/*--------------------------------*- C++ -*----------------------------------*\
| =========                 |                                                 |
| \\      /  F ield         | OpenFOAM: The Open Source CFD Toolbox           |
|  \\    /   O peration     | Version:  v2006                                 |
|   \\  /    A nd           | Website:  www.openfoam.com                      |
|    \\/     M anipulation  |                                                 |
\*---------------------------------------------------------------------------*/
FoamFile
{
    version     2.0;
    format      ascii;
    class       volScalarField;
    location    "6.9";
    object      omega;
}
// * * * * * * * * * * * * * * * * * * * * * * * * * * * * * * * * * * * * * //

dimensions      [0 0 -1 0 0 0 0];


internalField   nonuniform List<scalar> 
33000
(
0.801362
0.801621
0.802075
0.802634
0.803083
0.803394
0.803733
0.804199
0.804732
0.805219
0.805642
0.806049
0.806505
0.807064
0.807774
0.808656
0.8097
0.810767
0.811591
0.812117
0.812742
0.81386
0.816175
0.820784
0.828382
0.837903
0.846869
0.853509
0.857658
0.859995
0.861221
0.861774
0.861871
0.861631
0.861174
0.86067
0.860276
0.860051
0.859923
0.85971
0.859287
0.858768
0.85824
0.857915
0.857693
0.857404
0.856951
0.856345
0.855638
0.854972
0.85452
0.854261
0.854213
0.854482
0.854914
0.855248
0.855359
0.855069
0.85432
0.853155
0.85158
0.849539
0.84706
0.843626
0.840056
0.837176
0.83511
0.833442
0.831798
0.830018
0.828133
0.826259
0.824655
0.823594
0.823147
0.82342
0.824336
0.825903
0.828337
0.831431
0.834326
0.836792
0.838776
0.840079
0.840919
0.841454
0.841481
0.841173
0.840407
0.83938
0.83753
0.83532
0.833058
0.830741
0.828422
0.826412
0.825051
0.824108
0.824178
0.825127
0.826958
0.828659
0.829525
0.829872
0.829983
0.830034
0.830125
0.830038
0.82977
0.829346
0.828857
0.828307
0.827646
0.826783
0.825735
0.824728
0.824059
0.824143
0.824884
0.825476
0.825671
0.825695
0.825696
0.825778
0.825915
0.826001
0.826049
0.826062
0.826074
0.826091
0.826108
0.82611
0.8261
0.82608
0.826055
0.826027
0.826004
0.825983
0.825963
0.825942
0.825915
0.825883
0.825844
0.825797
0.825741
0.825675
0.825605
0.825536
0.825465
0.825384
0.825297
0.825214
0.825142
0.825083
0.825036
0.824995
0.824963
0.824941
0.82493
0.824933
0.82495
0.824985
0.825033
0.82509
0.825152
0.825212
0.825264
0.825297
0.825311
0.825313
0.825309
0.825298
0.825273
0.825231
0.825177
0.825121
0.825067
0.82501
0.824947
0.824881
0.824813
0.824738
0.824655
0.824566
0.82448
0.824405
0.82434
0.824275
0.824205
0.824132
0.824059
0.823989
0.82392
0.823844
0.823757
0.823656
0.823541
0.823422
0.823307
0.823198
0.823085
0.822956
0.822806
0.822644
0.822483
0.822328
0.822176
0.822018
0.82185
0.821682
0.821528
0.821393
0.821259
0.821111
0.820963
0.820836
0.820735
0.820655
0.820586
0.82051
0.820427
0.82035
0.820292
0.820255
0.820234
0.820214
0.820182
0.820144
0.820107
0.820077
0.82006
0.820054
0.820043
0.820017
0.819985
0.819954
0.819923
0.819894
0.819866
0.819834
0.8198
0.819764
0.819723
0.819672
0.819612
0.819551
0.819494
0.819442
0.819388
0.819317
0.819233
0.819153
0.819076
0.819
0.818921
0.818834
0.818739
0.818642
0.818543
0.818443
0.818342
0.818235
0.818122
0.818003
0.817884
0.817768
0.817654
0.817534
0.817402
0.817263
0.817125
0.816989
0.816853
0.816716
0.816576
0.81643
0.816279
0.816125
0.815969
0.815811
0.815651
0.815491
0.815331
0.815167
0.814995
0.814819
0.814642
0.814464
0.814284
0.814103
0.813923
0.813742
0.81356
0.813379
0.813201
0.813025
0.812852
0.812679
0.812505
0.812332
0.81216
0.811989
0.811818
0.811645
0.811469
0.811288
0.811105
0.810927
0.810757
0.8106
0.810456
0.810329
0.810216
0.810115
0.81002
0.80993
0.809845
0.809764
0.809687
0.809613
0.809545
0.809482
0.809425
0.809372
0.809326
0.809285
0.809251
0.809222
0.809196
0.809174
0.809155
0.809139
0.809125
0.809113
0.809102
0.809092
0.809082
0.80907
0.809054
0.809035
0.809011
0.808983
0.808951
0.808918
0.808881
0.808842
0.808801
0.808757
0.808712
0.808665
0.808616
0.808564
0.808511
0.808455
0.808398
0.808339
0.808277
0.808215
0.80815
0.808085
0.808018
0.807949
0.80788
0.807809
0.807738
0.807666
0.807593
0.807519
0.807445
0.807371
0.807296
0.807221
0.807146
0.80707
0.806994
0.806918
0.806841
0.806763
0.806685
0.806606
0.806527
0.806447
0.806366
0.806285
0.806204
0.806122
0.80604
0.805958
0.805877
0.805795
0.805714
0.805633
0.805553
0.805473
0.805394
0.805316
0.805239
0.805163
0.805088
0.805014
0.804942
0.804871
0.804801
0.804733
0.804667
0.804603
0.80454
0.804481
0.804424
0.80437
0.804318
0.804268
0.804221
0.804174
0.80413
0.804087
0.804045
0.804006
0.803965
0.803924
0.803889
0.803852
0.803817
0.803787
0.803736
0.80369
0.803674
0.803619
0.803611
0.803594
0.803684
0.803717
0.803773
0.803795
0.803817
0.803823
0.803823
0.803821
0.803817
0.803815
0.803805
0.803812
0.803803
0.803782
0.803786
0.803752
0.8037
0.803638
0.803636
0.803637
0.803657
0.803683
0.803695
0.803709
0.803715
0.803723
0.803725
0.803714
0.803704
0.803701
0.803674
0.803694
0.803675
0.803587
0.803564
0.803524
0.803442
0.803505
0.80362
0.80399
0.804264
0.804697
0.805061
0.805441
0.805747
0.806002
0.806208
0.806379
0.806518
0.806629
0.80672
0.8068
0.806867
0.806926
0.806979
0.807023
0.807065
0.807105
0.807142
0.807171
0.8072
0.807231
0.807261
0.807287
0.80731
0.807332
0.807355
0.807376
0.807398
0.807417
0.807439
0.807458
0.807471
0.807485
0.807499
0.807514
0.807529
0.807542
0.807555
0.807566
0.807576
0.807585
0.807595
0.807602
0.807608
0.807617
0.807626
0.807633
0.807637
0.80764
0.807641
0.807642
0.807643
0.807642
0.807642
0.80764
0.807638
0.807635
0.807631
0.807626
0.807621
0.807616
0.80761
0.807604
0.807595
0.807586
0.807576
0.807566
0.807556
0.807544
0.807532
0.807519
0.807505
0.807487
0.807471
0.807454
0.807443
0.807441
0.807346
0.807341
0.0219556
0.0921127
0.243682
0.488697
0.685638
0.763409
0.811982
0.875973
0.936494
0.963018
0.961425
0.93508
0.913571
0.924798
0.970746
1.04802
1.14805
1.26473
1.37766
1.4578
1.47968
1.4404
1.35582
1.26418
1.19532
1.14275
1.08347
1.00985
0.934402
0.880115
0.850603
0.824375
0.782253
0.725851
0.663565
0.601675
0.560155
0.556432
0.580013
0.594908
0.58362
0.540623
0.497215
0.483852
0.501494
0.525177
0.529414
0.503537
0.458346
0.41921
0.396157
0.387801
0.390193
0.40543
0.433237
0.457855
0.46866
0.468886
0.468912
0.4835
0.508368
0.523274
0.522726
0.516867
0.51849
0.539753
0.584909
0.651667
0.73285
0.815314
0.883045
0.922716
0.937727
0.952264
0.974333
1.01621
1.08277
1.13151
1.14351
1.15838
1.25897
1.37713
1.38556
1.36277
1.20301
1.06227
0.870003
0.707518
0.573628
0.450219
0.385911
0.36791
0.393938
0.458205
0.548396
0.649444
0.751074
0.825236
0.895284
0.961227
1.00078
0.994561
0.94973
0.843029
0.712574
0.571918
0.435033
0.324517
0.254905
0.21261
0.187207
0.17682
0.179798
0.192144
0.210569
0.228636
0.247765
0.261209
0.268435
0.277468
0.265871
0.231682
0.209068
0.189881
0.175158
0.165007
0.157629
0.152874
0.151293
0.150082
0.1492
0.148829
0.148437
0.149359
0.150593
0.151697
0.152197
0.152397
0.153068
0.153696
0.154117
0.154068
0.153507
0.152428
0.151716
0.151674
0.151872
0.151878
0.151071
0.149686
0.148956
0.148808
0.148639
0.148003
0.147227
0.146579
0.145927
0.145217
0.144341
0.143455
0.142807
0.142106
0.140993
0.139812
0.139042
0.138427
0.137408
0.135962
0.134767
0.133976
0.133186
0.13213
0.130712
0.129227
0.127927
0.126833
0.125848
0.12473
0.123414
0.121983
0.120458
0.118738
0.117006
0.115438
0.114031
0.112743
0.111351
0.109712
0.107952
0.106238
0.104703
0.103334
0.101967
0.100499
0.0988743
0.097146
0.0954819
0.0940253
0.0928027
0.0916504
0.09039
0.0889626
0.0874151
0.0859391
0.0846057
0.0833927
0.0822197
0.0810002
0.0797237
0.0784929
0.0773582
0.0762494
0.0750374
0.0737357
0.0724844
0.0714126
0.0705086
0.069626
0.0685909
0.0673694
0.0661188
0.0650265
0.0641578
0.0634297
0.0627061
0.0618719
0.0609256
0.0599906
0.0591897
0.0585721
0.058085
0.0576009
0.0570381
0.0564281
0.0558716
0.0554359
0.0551241
0.0548999
0.054695
0.0544872
0.0543138
0.0541763
0.0540284
0.0538572
0.0537192
0.0536924
0.0537925
0.0539039
0.0538982
0.0537886
0.0537079
0.0537441
0.053857
0.0539557
0.0539979
0.0539806
0.053936
0.0539152
0.0539312
0.053952
0.0539376
0.0538676
0.0537816
0.0537603
0.0538439
0.0539829
0.0540536
0.0539608
0.0537631
0.053603
0.05357
0.053666
0.0538208
0.0539286
0.0539361
0.0538739
0.0538093
0.0537718
0.0537585
0.0537765
0.0538701
0.0540402
0.0541696
0.0541666
0.054082
0.0540248
0.0540414
0.0541297
0.0542756
0.0544147
0.0544616
0.054418
0.0543632
0.0543498
0.0544111
0.0545262
0.0545952
0.0545823
0.0545136
0.0544132
0.0543523
0.0543473
0.0543026
0.0541724
0.053981
0.0538045
0.0536414
0.0534287
0.0531435
0.0528202
0.0525391
0.05232
0.0520921
0.0517701
0.0513692
0.0509929
0.0506805
0.0503755
0.0500534
0.049727
0.0494347
0.0492049
0.0489926
0.0487607
0.0485451
0.048409
0.0483601
0.0483285
0.0482745
0.0482335
0.0482694
0.0484202
0.048617
0.0487493
0.0487821
0.0487692
0.048778
0.0488336
0.0489293
0.0490123
0.0490379
0.0490246
0.0490116
0.0490497
0.0491328
0.0491758
0.0491422
0.0490758
0.049049
0.0490911
0.0491569
0.0491705
0.0491332
0.0491391
0.0492025
0.0492496
0.049273
0.0493043
0.0493465
0.0493832
0.0494173
0.049459
0.0495062
0.0495679
0.0496332
0.0496796
0.0496887
0.0496702
0.0496463
0.0496398
0.0496329
0.049584
0.0494789
0.0493509
0.0492428
0.0491396
0.0490262
0.0489029
0.0487931
0.0486802
0.0485054
0.0482624
0.048009
0.0477887
0.0475889
0.0473853
0.0471793
0.0469167
0.0466138
0.0463335
0.0461009
0.0458276
0.0454892
0.045161
0.0448641
0.0445336
0.044228
0.0439526
0.0436573
0.0433072
0.0429005
0.0424739
0.0421073
0.0417541
0.0414017
0.0410399
0.0405805
0.04009
0.0396216
0.0391967
0.0388267
0.0384105
0.0380351
0.0374866
0.0370884
0.0367454
0.0363459
0.0361966
0.035885
0.0351147
0.0347212
0.0344146
0.0341997
0.0354992
0.035868
0.0343099
0.0346109
0.0340413
0.034069
0.0341596
0.0337093
0.0324957
0.0318774
0.0307199
0.0305071
0.0298984
0.0294339
0.0290589
0.0291037
0.0290112
0.029128
0.0324056
0.0340033
0.0309057
0.0324857
0.0308606
0.0296855
0.0289355
0.0290106
0.0289203
0.0276276
0.0266551
0.025966
0.0257656
0.025752
0.0259422
0.0263677
0.026576
0.0265168
0.0268397
0.0268048
0.030364
0.0425497
0.047124
0.0543345
0.0517889
0.056815
0.0572669
0.074328
0.0796838
0.0642434
0.0631949
0.05789
0.0502147
0.0429652
0.0374904
0.0337427
0.031271
0.0296684
0.0286221
0.0279505
0.0275362
0.0272739
0.0271354
0.0270968
0.0271049
0.0271705
0.0272754
0.0273908
0.0274806
0.0275824
0.0277199
0.0278726
0.0280166
0.0281392
0.0282466
0.0283497
0.0284461
0.028539
0.0286203
0.0287121
0.0287608
0.028733
0.0286678
0.0286131
0.028593
0.028614
0.028664
0.0287233
0.0287833
0.0288466
0.0289162
0.0289961
0.0290529
0.0291256
0.029255
0.0294087
0.0295294
0.0295938
0.0296056
0.0295812
0.0295431
0.0295134
0.0295103
0.0295414
0.0295971
0.0296517
0.0296781
0.0296738
0.0296679
0.0296995
0.0297848
0.0298917
0.0299623
0.0299718
0.0299576
0.0299752
0.0300222
0.0300456
0.0300133
0.0299739
0.0299342
0.0298251
0.0296614
0.0294944
0.0295337
0.0298016
0.0301639
0.0329695
0.0319882
0.0116977
0.0576672
0.160654
0.260559
0.29125
0.285318
0.290377
0.322143
0.369399
0.423634
0.469676
0.493376
0.51128
0.552495
0.63983
0.775609
0.946137
1.12999
1.28934
1.38678
1.41305
1.37776
1.30251
1.20927
1.1071
0.992206
0.866815
0.74955
0.660027
0.604481
0.573339
0.545785
0.510281
0.46754
0.422276
0.383053
0.357497
0.350647
0.357353
0.3609
0.355129
0.335988
0.310679
0.29879
0.305549
0.315172
0.31669
0.306449
0.282162
0.25343
0.232607
0.223154
0.222893
0.229107
0.237803
0.245393
0.24893
0.248727
0.256055
0.276835
0.298045
0.306707
0.304335
0.289272
0.266449
0.256351
0.262804
0.282076
0.310413
0.342314
0.366678
0.379152
0.386179
0.39745
0.420399
0.458256
0.511147
0.605976
0.736081
0.842815
0.972356
1.05842
1.12341
1.19706
1.25335
1.21559
1.09939
0.920906
0.726802
0.560395
0.434714
0.352818
0.303846
0.2906
0.301979
0.325793
0.350513
0.367193
0.379192
0.391526
0.395104
0.402843
0.419696
0.421271
0.411595
0.395425
0.36002
0.312481
0.258514
0.200563
0.1469
0.102005
0.0722506
0.0553811
0.0507968
0.0535639
0.059029
0.0625755
0.0629934
0.0631446
0.0636747
0.0636515
0.0650224
0.0600044
0.0503059
0.0434925
0.0378214
0.0341604
0.0317854
0.0300898
0.0291241
0.0286808
0.0283232
0.0285163
0.0289855
0.0294482
0.0296443
0.0296587
0.0297872
0.0298551
0.0299631
0.0299544
0.0297732
0.0294618
0.0292597
0.0292268
0.0292183
0.0291066
0.0288052
0.028463
0.0282929
0.0282286
0.0281151
0.0278518
0.0275838
0.0274128
0.0272705
0.0270777
0.0268105
0.0265255
0.0262766
0.0260141
0.02569
0.0253605
0.0251065
0.0248655
0.0245382
0.0241116
0.0237182
0.0234252
0.0231421
0.022798
0.0223787
0.0219192
0.021482
0.0210978
0.0207533
0.0203932
0.0199841
0.019541
0.0190722
0.0185582
0.0180341
0.01754
0.0170887
0.0166848
0.0162836
0.0158402
0.0153648
0.0148797
0.01442
0.0140074
0.0136238
0.0132463
0.0128511
0.0124305
0.0120099
0.0116301
0.0113079
0.0110176
0.0107197
0.0103914
0.0100446
0.00971804
0.00942713
0.00916523
0.00891323
0.00865589
0.00839598
0.00815253
0.00793422
0.00772556
0.0075017
0.00726258
0.0070353
0.00684326
0.00668324
0.00653442
0.0063724
0.0061859
0.00599008
0.00581212
0.00566715
0.00555027
0.00544335
0.00532686
0.00519487
0.00506095
0.00494098
0.00484545
0.00477135
0.00470198
0.00462475
0.00454127
0.00446489
0.00440447
0.00436068
0.00432856
0.00429946
0.00427039
0.00424402
0.00422208
0.00420216
0.00418232
0.00416715
0.00416328
0.00417207
0.00418347
0.0041855
0.00417865
0.00417428
0.00417975
0.004191
0.00420104
0.00420825
0.00421228
0.00421478
0.00421932
0.00422439
0.00422614
0.00422345
0.00421752
0.00421311
0.00421664
0.00423094
0.00424999
0.00425968
0.00425103
0.0042326
0.00421944
0.00421992
0.00423271
0.00424971
0.00426325
0.00426999
0.00427015
0.00426694
0.00426324
0.00426127
0.00426471
0.00427839
0.00430031
0.00431753
0.00432008
0.00431278
0.00430857
0.00431323
0.00432456
0.00434041
0.00435583
0.00436298
0.00436178
0.00435971
0.00436075
0.00436728
0.00437787
0.00438516
0.0043882
0.00438759
0.00438028
0.00437137
0.00436641
0.00436169
0.00435276
0.00433549
0.00431427
0.00429337
0.0042712
0.00424331
0.00420975
0.00417732
0.0041494
0.00412278
0.00408858
0.00404476
0.00400033
0.00396104
0.00392462
0.00388937
0.00385395
0.00381951
0.0037887
0.00376
0.00373253
0.00370974
0.00369445
0.00368488
0.00367601
0.00366641
0.00366037
0.00366231
0.00367327
0.00368726
0.00369573
0.00369605
0.00369282
0.00369108
0.0036921
0.00369575
0.00369924
0.00369945
0.00369638
0.0036928
0.00369365
0.00369711
0.00369602
0.00368956
0.00368218
0.00367891
0.00368094
0.00368446
0.00368446
0.00368155
0.00368241
0.00368801
0.00369374
0.00369938
0.00370543
0.00371136
0.00371707
0.00372387
0.00373225
0.00374069
0.00374972
0.00375855
0.00376583
0.00377057
0.00377287
0.00377386
0.00377525
0.00377597
0.00377285
0.00376383
0.00375196
0.00374151
0.00373168
0.00372146
0.00370889
0.0036955
0.00368138
0.0036634
0.00363996
0.00361433
0.003591
0.00356946
0.00354675
0.00352266
0.00349352
0.00346248
0.00343313
0.00340545
0.00337393
0.00333934
0.00330703
0.00327604
0.0032406
0.00320676
0.00317495
0.00314291
0.00310919
0.00306937
0.00302792
0.00299072
0.00295359
0.00291559
0.00287978
0.00283812
0.00279464
0.00275039
0.00270567
0.00266661
0.00262286
0.00258873
0.00254597
0.00252004
0.00249286
0.0024454
0.00241409
0.00239087
0.00238956
0.00243202
0.00246418
0.00239926
0.0024913
0.00246995
0.00231201
0.00218829
0.00211305
0.00214294
0.0021937
0.0022041
0.00213388
0.00205668
0.00198435
0.00195121
0.00191032
0.00190171
0.00197121
0.00208107
0.00216468
0.00209025
0.00229409
0.00227352
0.00208035
0.00189906
0.00182328
0.00184684
0.00180511
0.00184003
0.00179323
0.0017554
0.00174632
0.00172584
0.00174246
0.00172565
0.00167968
0.00172713
0.00179274
0.0019831
0.00247723
0.00297102
0.00365844
0.00430123
0.00472179
0.00443616
0.00460395
0.00478489
0.00382712
0.00482355
0.00488239
0.00447059
0.00421308
0.00371709
0.00319575
0.00274266
0.00240273
0.00217026
0.00201692
0.00191551
0.00184403
0.00179363
0.00176014
0.00173657
0.00172148
0.0017141
0.00170968
0.00170853
0.00171093
0.00171529
0.0017184
0.00172258
0.0017303
0.00173993
0.001749
0.00175683
0.00176391
0.00177087
0.00177754
0.00178412
0.00178975
0.00179616
0.0018005
0.00180052
0.00179833
0.00179692
0.00179742
0.00179958
0.00180292
0.00180686
0.00181107
0.00181565
0.00182097
0.00182741
0.0018324
0.00183757
0.00184563
0.00185492
0.00186231
0.00186668
0.00186846
0.00186843
0.00186754
0.00186679
0.00186728
0.00186973
0.00187385
0.00187827
0.00188151
0.00188324
0.00188492
0.00188874
0.00189526
0.00190206
0.00190615
0.00190708
0.00190737
0.00190971
0.00191295
0.00191416
0.00191231
0.00191092
0.00191073
0.00190603
0.00189836
0.00189028
0.00190086
0.00193125
0.0019992
0.00223824
0.00223022
0.0111129
0.0526362
0.116779
0.152286
0.155502
0.152371
0.159624
0.186504
0.225287
0.274138
0.314019
0.337025
0.35551
0.384489
0.43741
0.530916
0.667089
0.819628
0.94579
1.01127
1.03225
1.02691
0.99322
0.926031
0.825769
0.704621
0.582151
0.481107
0.41338
0.375857
0.357129
0.339225
0.313499
0.281634
0.250428
0.226214
0.210942
0.203942
0.203753
0.203241
0.199555
0.189997
0.178728
0.171759
0.171776
0.174829
0.175107
0.170275
0.159976
0.147639
0.136685
0.128071
0.122511
0.120731
0.12268
0.126603
0.127907
0.127182
0.13298
0.14653
0.159367
0.166821
0.167389
0.15896
0.147974
0.138557
0.136154
0.141752
0.153113
0.168165
0.186688
0.205427
0.221313
0.235497
0.254006
0.282944
0.319975
0.362548
0.41483
0.47144
0.573183
0.675015
0.742498
0.816525
0.846281
0.828714
0.800593
0.756335
0.704487
0.622582
0.522636
0.414782
0.326986
0.264559
0.22509
0.204422
0.197767
0.198708
0.199918
0.198197
0.194374
0.191136
0.192007
0.19218
0.196135
0.205457
0.208384
0.209472
0.207466
0.197392
0.173378
0.145654
0.115107
0.0854603
0.057382
0.0373368
0.0253365
0.0194105
0.017153
0.0166449
0.0166547
0.0168848
0.017463
0.0182782
0.0187568
0.0194171
0.017525
0.0140935
0.0118424
0.0100234
0.00887641
0.00812112
0.0075638
0.00729847
0.0072409
0.0072887
0.00729481
0.00729078
0.00730817
0.00726653
0.00724912
0.0072316
0.007177
0.00712103
0.00708474
0.00706014
0.00702676
0.00697111
0.00689434
0.00683666
0.00680586
0.00677741
0.00673205
0.00666026
0.0065939
0.0065506
0.00651693
0.00647448
0.00641473
0.00634459
0.00626856
0.00618964
0.00611245
0.00603937
0.00597234
0.00590022
0.00581714
0.00571901
0.00562044
0.00553869
0.00546461
0.00538247
0.00528766
0.00518183
0.00507731
0.00498334
0.00489875
0.0048143
0.0047215
0.00462271
0.00452115
0.00441545
0.00430787
0.00420279
0.00410462
0.00401614
0.00393268
0.00384755
0.00375869
0.00366601
0.00357415
0.00348998
0.00341381
0.00334317
0.00327427
0.00320234
0.00312748
0.00305658
0.00299515
0.00294188
0.00288996
0.00283296
0.00277163
0.00271387
0.00266375
0.00261925
0.00257549
0.00252911
0.00248105
0.00243539
0.00239514
0.00235887
0.00232091
0.00227842
0.00223551
0.00219626
0.00216084
0.00212905
0.00209896
0.00206663
0.00203037
0.00199275
0.00195801
0.00192896
0.00190502
0.00188214
0.00185611
0.00182705
0.00179743
0.00177068
0.00174852
0.00172945
0.00171122
0.00169264
0.00167422
0.00165676
0.00164092
0.00162565
0.00161129
0.00159994
0.00159088
0.00158269
0.00157386
0.00156369
0.0015539
0.00154623
0.00154118
0.00153841
0.00153668
0.00153381
0.00152918
0.00152427
0.00152075
0.00151912
0.00151901
0.00151927
0.00151844
0.00151652
0.00151473
0.00151442
0.00151476
0.00151451
0.00151399
0.00151374
0.00151453
0.00151694
0.00151933
0.00152001
0.00152003
0.00152043
0.00152138
0.00152267
0.0015245
0.00152739
0.00153093
0.00153408
0.00153641
0.0015379
0.00153888
0.00154068
0.00154383
0.00154807
0.00155265
0.00155625
0.00155822
0.00155939
0.00156129
0.00156431
0.0015679
0.00157167
0.00157483
0.00157693
0.00157834
0.00157971
0.00158141
0.00158315
0.00158474
0.00158614
0.00158697
0.00158651
0.00158532
0.00158425
0.00158287
0.00158079
0.00157774
0.00157399
0.00157001
0.00156566
0.00156017
0.00155376
0.00154719
0.00154069
0.00153395
0.00152618
0.00151729
0.00150804
0.00149906
0.0014902
0.0014812
0.00147197
0.00146258
0.0014532
0.00144398
0.00143499
0.0014265
0.00141851
0.00141073
0.00140295
0.00139524
0.00138806
0.00138172
0.001376
0.00137046
0.00136479
0.001359
0.00135329
0.00134793
0.00134285
0.00133806
0.00133365
0.00132939
0.00132508
0.00132091
0.00131709
0.00131348
0.00130983
0.00130626
0.00130305
0.00130039
0.00129825
0.00129637
0.00129443
0.00129247
0.00129095
0.00128998
0.00128943
0.0012892
0.00128901
0.00128883
0.00128884
0.0012892
0.00128985
0.0012905
0.0012911
0.0012917
0.00129233
0.00129297
0.00129339
0.00129349
0.00129354
0.0012937
0.0012937
0.00129312
0.0012921
0.00129107
0.00129014
0.00128919
0.00128786
0.00128631
0.00128469
0.00128293
0.00128085
0.00127846
0.00127604
0.00127374
0.00127118
0.00126832
0.00126511
0.00126205
0.00125895
0.00125568
0.00125208
0.00124844
0.00124507
0.00124174
0.00123798
0.00123407
0.00123024
0.00122644
0.00122282
0.00121891
0.00121471
0.00121059
0.00120639
0.00120218
0.0011986
0.0011945
0.00118972
0.00118522
0.00118077
0.00117692
0.00117437
0.00117317
0.00117178
0.00116553
0.00116936
0.00119232
0.00120641
0.00123665
0.00125796
0.00135274
0.00138334
0.00130037
0.00124659
0.00120605
0.00119442
0.00115594
0.00114738
0.00113396
0.00112958
0.00113282
0.00113541
0.00114538
0.00119562
0.0012261
0.00125669
0.00129587
0.00135309
0.001467
0.00154485
0.00142963
0.00132756
0.00124418
0.00123088
0.00116146
0.00114888
0.00111443
0.00110572
0.00112603
0.00112396
0.0011463
0.00112142
0.00117272
0.0012028
0.00126253
0.00136277
0.00159483
0.00194258
0.00252088
0.00311875
0.00345647
0.00338534
0.00302679
0.00261651
0.00211632
0.00191365
0.00171202
0.00151724
0.00140716
0.00135948
0.00135239
0.00134052
0.00132548
0.00130405
0.00127859
0.00125202
0.00122796
0.00120793
0.00119144
0.0011769
0.00116419
0.00115415
0.00114561
0.00113863
0.00113328
0.0011281
0.00112377
0.00112072
0.00111843
0.00111607
0.00111418
0.0011133
0.00111275
0.00111184
0.0011108
0.00110998
0.0011097
0.00110977
0.00111021
0.00111041
0.00111061
0.00111059
0.00111008
0.00110943
0.0011091
0.00110915
0.00110931
0.00110957
0.00110981
0.00110991
0.0011099
0.00111004
0.00111044
0.00111048
0.0011105
0.00111092
0.00111146
0.00111175
0.00111179
0.0011117
0.00111158
0.00111149
0.00111144
0.00111144
0.00111147
0.00111153
0.0011116
0.00111166
0.00111167
0.00111163
0.00111173
0.00111201
0.00111232
0.00111239
0.00111219
0.00111206
0.00111228
0.00111256
0.00111245
0.00111214
0.00111207
0.00111266
0.00111202
0.00111181
0.00111068
0.00111847
0.00113722
0.00118173
0.00133562
0.00135044
0.00979662
0.040434
0.0787938
0.0970451
0.101309
0.109539
0.131812
0.161638
0.193077
0.220287
0.236238
0.246732
0.260229
0.283142
0.320738
0.382105
0.471406
0.57323
0.655913
0.696689
0.705802
0.690233
0.65158
0.592734
0.515588
0.429327
0.347584
0.28433
0.244988
0.225156
0.214952
0.204813
0.188864
0.169122
0.151048
0.137996
0.129219
0.123291
0.119664
0.116918
0.114536
0.111381
0.107691
0.103776
0.100764
0.0994587
0.0988866
0.0984319
0.0966133
0.0922131
0.0851897
0.0774871
0.0714616
0.0679113
0.0676714
0.0689304
0.0690525
0.0686612
0.0722002
0.0792525
0.0860492
0.0918846
0.0954752
0.0942804
0.0903238
0.0857897
0.083268
0.0837466
0.0878015
0.0947894
0.1048
0.117413
0.129206
0.138932
0.14999
0.165533
0.186223
0.209121
0.228163
0.245774
0.265497
0.295519
0.320131
0.374763
0.41108
0.412266
0.41723
0.42967
0.43325
0.412778
0.384447
0.356171
0.32418
0.28274
0.232919
0.190524
0.158495
0.137084
0.123416
0.114797
0.109507
0.105018
0.100566
0.09791
0.0980216
0.101831
0.106411
0.111555
0.119841
0.127691
0.132031
0.131495
0.125008
0.110814
0.0944145
0.0768888
0.0592347
0.0410086
0.0264402
0.0169846
0.0118927
0.0096337
0.00879135
0.00860009
0.00890504
0.00946862
0.0102913
0.0108902
0.0113447
0.0101516
0.0080511
0.00666561
0.00553125
0.00480021
0.00436824
0.00412099
0.00388186
0.00365051
0.00350322
0.00338834
0.00333398
0.00330726
0.0032705
0.00324307
0.00322687
0.00320234
0.00318159
0.00316384
0.00314912
0.00313888
0.00312975
0.00311661
0.00310281
0.00309038
0.00308065
0.00307004
0.00305825
0.00304804
0.00303776
0.00302345
0.00300488
0.00298613
0.00296833
0.00294969
0.0029309
0.0029116
0.00289159
0.00287029
0.00284773
0.00282481
0.00280414
0.00278461
0.00276342
0.00274025
0.00271688
0.0026939
0.00267138
0.00264894
0.00262634
0.00260449
0.00258381
0.00256256
0.00253866
0.00251313
0.00248772
0.00246348
0.00244207
0.00242354
0.00240513
0.0023849
0.00236221
0.0023387
0.00231671
0.00229741
0.00228067
0.0022639
0.00224459
0.00222302
0.00220224
0.00218456
0.00216858
0.00215127
0.00213131
0.00211174
0.00209481
0.00207847
0.00206031
0.00203961
0.00201791
0.00199804
0.00198175
0.00196729
0.00195043
0.00192911
0.0019057
0.00188304
0.00186249
0.00184499
0.00182923
0.00181151
0.00178994
0.00176634
0.00174408
0.00172481
0.00170772
0.00169154
0.00167455
0.00165623
0.00163685
0.00161682
0.00159803
0.00158193
0.00156795
0.00155446
0.00154003
0.00152526
0.00151171
0.0014986
0.00148597
0.00147594
0.00146795
0.00145928
0.00144922
0.00143877
0.00142935
0.00142212
0.00141711
0.00141385
0.00141076
0.00140603
0.00139997
0.00139449
0.00139108
0.00138919
0.00138773
0.00138645
0.00138449
0.00138198
0.0013804
0.00138079
0.00138189
0.00138181
0.00138063
0.00137934
0.00137859
0.00137963
0.00138218
0.00138446
0.00138573
0.00138615
0.00138612
0.00138657
0.00138869
0.00139169
0.00139399
0.00139584
0.00139808
0.00140052
0.00140233
0.00140368
0.00140566
0.0014087
0.00141222
0.00141534
0.00141752
0.00141871
0.00142023
0.0014232
0.00142643
0.00142875
0.00143069
0.00143224
0.00143351
0.00143538
0.00143736
0.00143854
0.00143927
0.00143987
0.00144026
0.00144049
0.00144033
0.00143963
0.00143838
0.00143672
0.00143496
0.00143287
0.00143017
0.00142711
0.00142353
0.00141943
0.00141503
0.00141036
0.00140534
0.0013998
0.00139384
0.00138766
0.00138127
0.00137458
0.00136757
0.00136044
0.00135326
0.00134591
0.00133841
0.00133081
0.00132316
0.00131555
0.00130806
0.00130056
0.00129303
0.00128564
0.00127847
0.0012715
0.00126464
0.00125792
0.00125147
0.00124535
0.00123953
0.00123392
0.00122854
0.00122345
0.00121858
0.00121389
0.00120951
0.00120536
0.00120142
0.00119774
0.00119433
0.00119117
0.00118827
0.00118568
0.00118342
0.00118131
0.0011793
0.00117752
0.00117601
0.00117478
0.00117377
0.0011729
0.00117217
0.00117162
0.00117123
0.00117101
0.00117087
0.00117074
0.00117065
0.00117058
0.00117053
0.00117051
0.00117049
0.00117041
0.00117031
0.00117027
0.00117021
0.00116998
0.00116961
0.00116923
0.0011688
0.00116834
0.00116782
0.00116718
0.00116647
0.00116576
0.00116497
0.00116401
0.00116298
0.00116198
0.00116089
0.00115963
0.00115836
0.00115702
0.0011557
0.00115427
0.00115277
0.00115121
0.00114973
0.00114818
0.00114664
0.00114493
0.00114315
0.00114128
0.00113955
0.00113777
0.00113631
0.00113466
0.00113251
0.0011307
0.00112927
0.00112823
0.0011328
0.00113217
0.00113032
0.00112505
0.0011297
0.00115223
0.00116823
0.00120075
0.0012252
0.00132008
0.00135554
0.00127856
0.00122763
0.00118731
0.00117308
0.00113503
0.00112259
0.00111097
0.00110944
0.00110858
0.00111069
0.00112649
0.00117894
0.00121647
0.00128234
0.00131092
0.00146446
0.00154151
0.00148204
0.00138029
0.00126481
0.00121622
0.00121147
0.00114923
0.00113728
0.00110292
0.00109307
0.0011068
0.00111152
0.00111886
0.00111797
0.00116788
0.00124992
0.00137643
0.00155961
0.00194512
0.00220489
0.00283055
0.00330872
0.00358142
0.00344861
0.00311185
0.00269985
0.00217444
0.00194353
0.00168304
0.00144578
0.00130972
0.00123993
0.00122353
0.0012251
0.00123103
0.00122843
0.00122506
0.0012205
0.00121434
0.00120639
0.00119656
0.00118559
0.00117501
0.00116442
0.00115484
0.00114686
0.00114015
0.00113382
0.00112798
0.00112257
0.00111756
0.00111352
0.00111054
0.00110801
0.00110553
0.00110341
0.00110171
0.00110025
0.00109899
0.00109805
0.00109735
0.00109666
0.00109597
0.00109563
0.00109556
0.00109536
0.001095
0.00109452
0.00109401
0.00109361
0.0010934
0.00109331
0.00109331
0.00109334
0.0010933
0.00109318
0.00109309
0.00109303
0.00109291
0.0010928
0.0010928
0.00109284
0.00109281
0.0010927
0.00109253
0.00109238
0.00109229
0.00109226
0.00109222
0.00109212
0.00109195
0.00109178
0.00109166
0.00109156
0.00109145
0.00109137
0.00109134
0.00109129
0.00109109
0.0010909
0.00109095
0.00109112
0.00109104
0.0010906
0.00109055
0.00109065
0.00109089
0.00109011
0.00109044
0.00108973
0.00109735
0.00111571
0.00115965
0.00131147
0.00132704
0.00772185
0.0292642
0.0535723
0.0661123
0.072865
0.0843047
0.100734
0.117739
0.132875
0.145935
0.155746
0.166036
0.17981
0.197385
0.220983
0.256785
0.308246
0.366409
0.41286
0.434985
0.43376
0.412649
0.377786
0.335619
0.288328
0.240024
0.19656
0.164119
0.144399
0.134344
0.128755
0.122608
0.113828
0.103348
0.0943379
0.0880207
0.0832359
0.078823
0.0747962
0.0719171
0.0707677
0.0707554
0.0702641
0.0677457
0.0637383
0.0606454
0.0600217
0.0616594
0.06344
0.0625202
0.0579373
0.051548
0.0457742
0.0421664
0.0413721
0.0419791
0.0422506
0.0421708
0.0437569
0.0471654
0.0506305
0.0540522
0.0578601
0.0603587
0.0604733
0.058758
0.0562685
0.0548533
0.0556478
0.0590334
0.0649308
0.0719645
0.0794216
0.0855191
0.0896493
0.0950099
0.103966
0.115464
0.126794
0.136336
0.143883
0.151213
0.156972
0.165737
0.173085
0.175731
0.181662
0.200901
0.22216
0.227724
0.23477
0.235933
0.227496
0.216642
0.204149
0.1865
0.164979
0.13895
0.11681
0.0981925
0.084461
0.0741842
0.0669223
0.063028
0.060691
0.0598398
0.0610354
0.0635478
0.067978
0.0740711
0.0789881
0.0847059
0.0903505
0.0937902
0.0932573
0.0884347
0.0785481
0.0672378
0.0552564
0.043825
0.0316889
0.0211179
0.0139741
0.010084
0.00837372
0.00774792
0.00764559
0.0080301
0.00864129
0.00958632
0.010331
0.0108841
0.00981629
0.00784934
0.00642537
0.00552387
0.00468004
0.00409488
0.00368986
0.00332639
0.00303627
0.00286352
0.00275452
0.00270261
0.00267361
0.00263421
0.00259995
0.00258762
0.00257997
0.00257521
0.00256796
0.00256
0.00255567
0.00255854
0.0025602
0.00255846
0.00255098
0.00254476
0.00254217
0.00254099
0.00253929
0.00253532
0.00252801
0.00251729
0.00250716
0.00249981
0.00249446
0.00248937
0.00248217
0.00247135
0.00245988
0.00245049
0.00244355
0.00243718
0.00242885
0.00241824
0.00240625
0.00239468
0.00238544
0.00237829
0.0023714
0.00236231
0.00235052
0.00233744
0.00232385
0.00231049