/*--------------------------------*- C++ -*----------------------------------*\
| =========                 |                                                 |
| \\      /  F ield         | OpenFOAM: The Open Source CFD Toolbox           |
|  \\    /   O peration     | Version:  v2006                                 |
|   \\  /    A nd           | Website:  www.openfoam.com                      |
|    \\/     M anipulation  |                                                 |
\*---------------------------------------------------------------------------*/
FoamFile
{
    version     2.0;
    format      ascii;
    class       volScalarField;
    location    "6.9";
    object      p_rgh;
}
// * * * * * * * * * * * * * * * * * * * * * * * * * * * * * * * * * * * * * //

dimensions      [1 -1 -2 0 0 0 0];


internalField   nonuniform List<scalar> 
33000
(
8399.07
8398.3
8397.52
8396.73
8396.04
8395.44
8394.36
8392.62
8390.28
8388.04
8386.33
8384.85
8383.41
8381.98
8380.47
8378.81
8376.99
8374.98
8373.02
8371.3
8369.59
8368.07
8367
8366.29
8365.29
8363.52
8361.49
8359.34
8357.12
8354.85
8352.54
8350.14
8347.7
8345.27
8342.84
8340.33
8337.74
8335.09
8332.42
8329.67
8326.98
8324.16
8321.33
8318.43
8315.47
8312.43
8309.36
8306.27
8303.14
8299.94
8296.67
8293.34
8289.95
8286.5
8283
8279.44
8275.82
8272.16
8268.48
8264.79
8261.02
8257.21
8253.37
8249.47
8245.55
8241.58
8237.58
8233.55
8229.52
8225.48
8221.5
8217.58
8213.72
8209.97
8206.45
8203.17
8200.44
8197.69
8189.78
8178.43
8179.07
8170.9
8165.43
8159.88
8153.42
8146.25
8140.56
8133.84
8127.77
8120.9
8114.72
8107.9
8101.49
8094.79
8088.75
8082.28
8077.16
8071.11
8068.98
8061.51
8047.66
8038.97
8028.82
8018.33
8008.18
7997.33
7985.41
7973.84
7961.65
7949.73
7937.22
7924.92
7912.53
7899.87
7887.88
7875.02
7865.48
7851.38
7831.89
7817.07
7800.54
7783.75
7767.41
7750.23
7732.4
7714.85
7697.11
7679.35
7661.71
7644.02
7626.38
7608.97
7591.72
7574.67
7557.87
7541.36
7525.18
7509.33
7493.84
7478.72
7464.01
7449.74
7435.93
7422.58
7409.68
7397.24
7385.27
7373.77
7362.77
7352.29
7342.26
7332.68
7323.55
7314.88
7306.64
7298.84
7291.43
7284.4
7277.72
7271.39
7265.37
7259.65
7254.23
7249.05
7244.11
7239.42
7235.01
7230.9
7227.1
7223.63
7220.51
7217.76
7215.4
7213.41
7211.8
7210.58
7209.76
7209.36
7209.37
7209.8
7210.62
7211.85
7213.46
7215.46
7217.85
7220.62
7223.77
7227.28
7231.15
7235.35
7239.87
7244.72
7249.88
7255.36
7261.11
7267.14
7273.42
7279.95
7286.69
7293.66
7300.85
7308.25
7315.83
7323.57
7331.47
7339.51
7347.69
7355.99
7364.4
7372.9
7381.49
7390.14
7398.88
7407.68
7416.52
7425.39
7434.27
7443.17
7452.09
7461.03
7469.96
7478.87
7487.76
7496.61
7505.42
7514.2
7522.96
7531.66
7540.31
7548.9
7557.42
7565.87
7574.27
7582.61
7590.87
7599.06
7607.17
7615.2
7623.16
7631.04
7638.84
7646.56
7654.21
7661.79
7669.29
7676.71
7684.06
7691.32
7698.5
7705.63
7712.68
7719.66
7726.55
7733.37
7740.12
7746.8
7753.42
7759.96
7766.43
7772.83
7779.15
7785.41
7791.59
7797.71
7803.74
7809.7
7815.59
7821.39
7827.13
7832.79
7838.37
7843.86
7849.26
7854.58
7859.81
7864.95
7870.01
7874.97
7879.83
7884.59
7889.26
7893.82
7898.28
7902.63
7906.88
7911.02
7915.06
7918.98
7922.79
7926.49
7930.08
7933.56
7936.93
7940.19
7943.33
7946.37
7949.3
7952.12
7954.84
7957.47
7959.99
7962.42
7964.76
7967.01
7969.18
7971.27
7973.3
7975.25
7977.14
7978.97
7980.76
7982.49
7984.19
7985.85
7987.47
7989.06
7990.6
7992.09
7993.54
7994.93
7996.26
7997.53
7998.74
7999.88
8000.96
8001.97
8002.9
8003.77
8004.56
8005.28
8005.93
8006.5
8007
8007.42
8007.77
8008.05
8008.25
8008.38
8008.44
8008.43
8008.34
8008.19
8007.97
8007.68
8007.33
8006.91
8006.43
8005.89
8005.28
8004.62
8003.91
8003.13
8002.31
8001.43
8000.5
7999.52
7998.49
7997.42
7996.31
7995.15
7993.96
7992.72
7991.45
7990.15
7988.82
7987.45
7986.06
7984.64
7983.19
7981.73
7980.24
7978.74
7977.22
7975.69
7974.14
7972.58
7971.02
7969.44
7967.86
7966.27
7964.68
7963.08
7961.49
7959.89
7958.29
7956.69
7955.09
7953.5
7951.91
7950.33
7948.75
7947.18
7945.62
7944.07
7942.52
7940.98
7939.45
7937.93
7936.42
7934.92
7933.43
7931.95
7930.47
7929.01
7927.56
7926.11
7924.67
7923.25
7921.83
7920.42
7919.01
7917.62
7916.24
7914.86
7913.49
7912.13
7910.78
7909.44
7908.1
7906.78
7905.46
7904.14
7902.84
7901.54
7900.25
7898.97
7897.69
7896.41
7895.15
7893.86
7892.62
7891.41
7890.17
7888.94
7887.71
7886.47
7885.25
7884.03
7882.83
7881.62
7880.44
7879.26
7878.1
7876.96
7875.84
7874.72
7873.65
7872.57
7871.56
7870.53
7869.57
7868.59
7867.67
7866.74
7865.88
7865.01
7864.19
7863.39
7862.63
7861.89
7861.18
7860.52
7859.86
7859.27
7858.72
7858.19
7857.68
7857.28
7856.69
7856.42
7856.18
7855.92
7855.65
7855.39
7855.13
7854.89
7854.65
7854.44
7854.24
7854.05
7853.88
7853.73
7853.6
7853.49
7853.39
7853.31
7853.26
7853.22
7853.2
7853.2
7853.22
7853.26
7853.32
7853.4
7853.49
7853.61
7853.75
7853.9
7854.07
7854.26
7854.47
7854.7
7854.95
7855.22
7855.5
7855.8
7856.12
7856.45
7856.8
7857.17
7857.55
7857.95
7858.36
7858.79
7859.24
7859.7
7860.18
7860.67
7861.18
7861.7
7862.23
7862.78
7863.35
7863.93
7864.52
7865.12
7865.74
7866.37
7867.01
7867.67
7868.34
7869.02
7869.71
7870.42
7871.14
7871.87
7872.61
7873.37
7874.13
7874.91
7875.7
7876.5
7877.31
7878.13
7878.97
7879.81
7880.67
7881.63
7882.17
7883.75
8399.05
8398.27
8397.44
8396.55
8395.63
8394.53
8393.12
8391.35
8389.35
8387.04
8385.59
8384.67
8383.43
8382.03
8380.55
8378.9
8376.96
8374.67
8372.42
8370.34
8368.62
8367.26
8366.27
8365.54
8364.74
8363.25
8361.45
8359.37
8357.16
8354.89
8352.56
8350.08
8347.69
8345.27
8342.92
8340.47
8337.9
8335.22
8332.44
8329.7
8326.94
8324.23
8321.49
8318.57
8315.58
8312.49
8309.42
8306.37
8303.29
8300.09
8296.82
8293.49
8290.1
8286.64
8283.05
8279.42
8275.85
8272.2
8268.55
8264.91
8261.08
8257.25
8253.41
8249.54
8245.61
8241.62
8237.55
8233.43
8229.37
8225.31
8221.29
8217.31
8213.23
8209.09
8204.9
8200.69
8196.54
8192.25
8188.02
8184.98
8182.1
8173.61
8160.17
8161.01
8152.59
8147.42
8140.8
8135.12
8128.34
8120.46
8114.9
8107.43
8101.19
8094.13
8087.71
8080.71
8074.34
8067.94
8061.01
8054.78
8047.17
8044.02
8034.37
8018.61
8007.94
7995.97
7985.03
7973.73
7962.68
7950.86
7937.91
7925.2
7912.29
7899.33
7886.58
7873.48
7860.25
7846.84
7831.93
7821.32
7805.27
7783.78
7767.01
7749.44
7732.19
7715.44
7697.87
7679.67
7661.82
7643.99
7626.34
7608.93
7591.69
7574.54
7557.7
7541.11
7524.93
7509.04
7493.55
7478.36
7463.65
7449.35
7435.51
7422.14
7409.25
7396.77
7384.76
7373.23
7362.24
7351.76
7341.72
7332.12
7322.97
7314.28
7306.04
7298.23
7290.82
7283.78
7277.1
7270.76
7264.72
7258.99
7253.57
7248.39
7243.44
7238.72
7234.32
7230.22
7226.41
7222.9
7219.78
7217.04
7214.69
7212.7
7211.1
7209.88
7209.04
7208.64
7208.66
7209.08
7209.93
7211.2
7212.83
7214.85
7217.23
7219.99
7223.14
7226.7
7230.59
7234.81
7239.34
7244.2
7249.38
7254.86
7260.65
7266.71
7273.02
7279.55
7286.3
7293.3
7300.51
7307.94
7315.55
7323.31
7331.21
7339.26
7347.46
7355.78
7364.21
7372.73
7381.31
7389.98
7398.75
7407.58
7416.43
7425.31
7434.2
7443.11
7452.04
7460.98
7469.94
7478.87
7487.76
7496.61
7505.43
7514.23
7522.98
7531.7
7540.37
7548.96
7557.49
7565.94
7574.34
7582.68
7590.95
7599.15
7607.28
7615.31
7623.27
7631.14
7638.93
7646.65
7654.31
7661.88
7669.4
7676.82
7684.16
7691.42
7698.6
7705.73
7712.79
7719.76
7726.65
7733.47
7740.21
7746.9
7753.51
7760.05
7766.52
7772.92
7779.24
7785.49
7791.68
7797.8
7803.83
7809.79
7815.66
7821.47
7827.21
7832.88
7838.45
7843.95
7849.35
7854.67
7859.89
7865.04
7870.09
7875.06
7879.92
7884.69
7889.35
7893.91
7898.37
7902.72
7906.97
7911.12
7915.15
7919.08
7922.89
7926.59
7930.17
7933.65
7937.02
7940.28
7943.42
7946.46
7949.39
7952.21
7954.93
7957.55
7960.07
7962.5
7964.84
7967.09
7969.26
7971.35
7973.37
7975.33
7977.22
7979.05
7980.83
7982.57
7984.27
7985.93
7987.55
7989.14
7990.68
7992.18
7993.62
7995.01
7996.35
7997.62
7998.83
7999.97
8001.05
8002.06
8003
8003.86
8004.66
8005.38
8006.03
8006.6
8007.1
8007.52
8007.87
8008.15
8008.35
8008.48
8008.54
8008.53
8008.44
8008.29
8008.07
8007.78
8007.43
8007.01
8006.53
8005.98
8005.38
8004.72
8004
8003.23
8002.4
8001.52
8000.59
7999.61
7998.58
7997.51
7996.39
7995.24
7994.04
7992.8
7991.53
7990.23
7988.89
7987.52
7986.13
7984.71
7983.27
7981.8
7980.31
7978.8
7977.28
7975.75
7974.2
7972.64
7971.07
7969.49
7967.91
7966.32
7964.72
7963.13
7961.53
7959.93
7958.33
7956.73
7955.13
7953.54
7951.95
7950.37
7948.79
7947.22
7945.66
7944.1
7942.56
7941.02
7939.49
7937.96
7936.45
7934.95
7933.46
7931.97
7930.5
7929.03
7927.58
7926.13
7924.69
7923.26
7921.85
7920.44
7919.03
7917.64
7916.25
7914.88
7913.51
7912.15
7910.8
7909.45
7908.11
7906.79
7905.46
7904.15
7902.85
7901.55
7900.25
7898.96
7897.65
7896.38
7895.17
7893.9
7892.67
7891.42
7890.18
7888.93
7887.7
7886.46
7885.24
7884.01
7882.8
7881.59
7880.41
7879.22
7878.06
7876.91
7875.78
7874.67
7873.59
7872.53
7871.49
7870.49
7869.49
7868.53
7867.59
7866.68
7865.81
7864.94
7864.13
7863.31
7862.57
7861.77
7861.12
7860.44
7859.84
7859.17
7858.67
7857.88
7857.53
7857.21
7856.88
7856.53
7856.23
7855.94
7855.65
7855.38
7855.11
7854.86
7854.63
7854.41
7854.21
7854.02
7853.85
7853.7
7853.57
7853.45
7853.35
7853.28
7853.22
7853.18
7853.16
7853.16
7853.18
7853.22
7853.27
7853.35
7853.45
7853.56
7853.7
7853.85
7854.03
7854.22
7854.43
7854.66
7854.91
7855.18
7855.46
7855.76
7856.08
7856.41
7856.76
7857.13
7857.51
7857.91
7858.33
7858.76
7859.21
7859.67
7860.14
7860.64
7861.14
7861.66
7862.2
7862.75
7863.31
7863.89
7864.48
7865.09
7865.71
7866.34
7866.98
7867.64
7868.31
7868.99
7869.68
7870.39
7871.11
7871.84
7872.58
7873.34
7874.1
7874.88
7875.67
7876.47
7877.28
7878.11
7878.94
7879.79
7880.64
7881.61
7882.14
7883.72
8399.02
8398.18
8397.27
8396.12
8394.88
8392.68
8390.44
8387.87
8385.52
8384.47
8384.28
8383.98
8383.21
8382.27
8380.96
8379.32
8377.37
8375.15
8373
8371.03
8369.07
8367.5
8366.29
8365.23
8364
8362.57
8360.96
8359.08
8356.97
8354.75
8352.29
8349.99
8347.65
8345.3
8343.07
8340.66
8338.12
8335.48
8332.63
8329.79
8327.05
8324.48
8321.78
8318.85
8315.79
8312.66
8309.59
8306.53
8303.54
8300.39
8297.11
8293.78
8290.39
8286.83
8283.13
8279.61
8276.04
8272.57
8268.87
8264.93
8261.1
8257.26
8253.49
8249.72
8245.8
8241.78
8237.62
8233.44
8229.31
8225.2
8221.18
8217.03
8212.8
8208.56
8204.28
8199.92
8195.41
8190.74
8185.89
8180.85
8175.9
8171.02
8167.82
8164.95
8156.22
8140.83
8140.09
8133.81
8128.06
8121.02
8115.24
8108.13
8100.09
8094
8086.62
8079.96
8072.98
8066.02
8058.77
8051.27
8042.84
8034.41
8026.46
8018.41
8014.01
8003.56
7986.46
7974.71
7961.56
7949.84
7937.4
7925.76
7913.24
7899.78
7886.44
7872.7
7859.03
7844.74
7829.71
7814.57
7799.57
7783.62
7772.02
7755.11
7732.64
7715.25
7697.16
7679.5
7662.31
7644.54
7626.43
7608.85
7591.42
7574.27
7557.32
7540.73
7524.51
7508.58
7493.01
7477.76
7462.95
7448.61
7434.7
7421.33
7408.35
7395.79
7383.71
7372.18
7361.2
7350.68
7340.58
7330.9
7321.71
7313.09
7304.85
7296.96
7289.46
7282.4
7275.75
7269.4
7263.32
7257.57
7252.13
7246.96
7241.96
7237.25
7232.85
7228.78
7224.94
7221.43
7218.31
7215.56
7213.23
7211.26
7209.67
7208.46
7207.61
7207.22
7207.25
7207.69
7208.55
7209.87
7211.53
7213.57
7215.99
7218.75
7221.93
7225.48
7229.44
7233.73
7238.33
7243.23
7248.4
7253.91
7259.71
7265.84
7272.2
7278.77
7285.56
7292.59
7299.85
7307.34
7314.97
7322.75
7330.68
7338.78
7347.01
7355.39
7363.84
7372.38
7380.98
7389.69
7398.51
7407.37
7416.25
7425.16
7434.08
7442.99
7451.95
7460.91
7469.91
7478.86
7487.77
7496.65
7505.47
7514.28
7523.05
7531.8
7540.48
7549.09
7557.63
7566.08
7574.49
7582.85
7591.15
7599.35
7607.47
7615.5
7623.44
7631.31
7639.12
7646.86
7654.54
7662.13
7669.62
7677.04
7684.37
7691.62
7698.8
7705.92
7712.99
7719.96
7726.85
7733.66
7740.4
7747.1
7753.71
7760.25
7766.7
7773.08
7779.4
7785.68
7791.87
7797.98
7804.01
7809.96
7815.83
7821.64
7827.39
7833.06
7838.63
7844.12
7849.53
7854.85
7860.08
7865.22
7870.27
7875.23
7880.11
7884.87
7889.54
7894.1
7898.55
7902.91
7907.16
7911.31
7915.35
7919.27
7923.08
7926.78
7930.36
7933.84
7937.21
7940.47
7943.61
7946.64
7949.57
7952.4
7955.11
7957.72
7960.24
7962.68
7965.02
7967.27
7969.43
7971.52
7973.54
7975.5
7977.39
7979.22
7981.01
7982.75
7984.45
7986.11
7987.73
7989.32
7990.86
7992.36
7993.8
7995.2
7996.53
7997.8
7999.02
8000.16
8001.24
8002.25
8003.19
8004.06
8004.85
8005.58
8006.22
8006.8
8007.3
8007.72
8008.07
8008.35
8008.55
8008.68
8008.74
8008.73
8008.65
8008.49
8008.27
8007.98
8007.63
8007.21
8006.72
8006.18
8005.58
8004.91
8004.19
8003.42
8002.59
8001.7
8000.77
7999.79
7998.76
7997.68
7996.56
7995.41
7994.21
7992.97
7991.7
7990.39
7989.05
7987.68
7986.28
7984.86
7983.41
7981.94
7980.45
7978.94
7977.41
7975.87
7974.32
7972.75
7971.18
7969.59
7968.01
7966.41
7964.81
7963.21
7961.61
7960.01
7958.41
7956.81
7955.21
7953.61
7952.03
7950.44
7948.86
7947.29
7945.73
7944.17
7942.62
7941.08
7939.55
7938.03
7936.51
7935
7933.5
7932.02
7930.54
7929.07
7927.61
7926.17
7924.73
7923.3
7921.88
7920.47
7919.07
7917.67
7916.29
7914.91
7913.55
7912.18
7910.83
7909.47
7908.14
7906.81
7905.5
7904.16
7902.86
7901.5
7900.22
7899.01
7897.73
7896.48
7895.22
7893.95
7892.69
7891.43
7890.18
7888.92
7887.68
7886.43
7885.2
7883.97
7882.76
7881.53
7880.35
7879.14
7877.98
7876.83
7875.71
7874.58
7873.52
7872.41
7871.41
7870.34
7869.39
7868.39
7867.48
7866.54
7865.66
7864.8
7863.93
7863.16
7862.4
7861.72
7860.92
7860.33
7859.37
7858.93
7858.55
7858.14
7857.71
7857.31
7856.91
7856.55
7856.21
7855.93
7855.62
7855.33
7855.05
7854.79
7854.54
7854.31
7854.11
7853.91
7853.74
7853.59
7853.46
7853.34
7853.25
7853.17
7853.11
7853.07
7853.05
7853.06
7853.08
7853.12
7853.17
7853.25
7853.35
7853.47
7853.61
7853.76
7853.94
7854.13
7854.34
7854.57
7854.82
7855.08
7855.37
7855.67
7855.99
7856.32
7856.67
7857.04
7857.43
7857.83
7858.25
7858.68
7859.13
7859.59
7860.07
7860.56
7861.07
7861.59
7862.13
7862.68
7863.24
7863.82
7864.42
7865.02
7865.64
7866.27
7866.92
7867.58
7868.25
7868.93
7869.62
7870.33
7871.05
7871.78
7872.52
7873.28
7874.05
7874.82
7875.61
7876.41
7877.23
7878.05
7878.88
7879.73
7880.58
7881.55
7882.09
7883.66
8399.16
8398.34
8397.48
8396.32
8394.35
8390.96
8387.43
8383.02
8380.46
8381.1
8382.54
8383.04
8382.87
8382.33
8381.15
8379.64
8377.84
8375.87
8373.84
8371.98
8370.24
8368.68
8367.26
8365.8
8364.2
8362.71
8361.01
8359.21
8357.1
8354.76
8352.31
8350.1
8347.76
8345.58
8343.42
8340.99
8338.46
8335.87
8333.14
8330.15
8327.48
8324.94
8322.2
8319.29
8316.27
8313.02
8309.91
8306.89
8303.96
8300.82
8297.55
8294.22
8290.82
8287.33
8283.52
8280.08
8276.71
8273.1
8269.22
8265.2
8261.37
8257.49
8253.64
8249.97
8246.09
8242.05
8237.94
8233.72
8229.3
8225.1
8221.03
8216.82
8212.47
8208.04
8203.51
8198.83
8193.88
8189.07
8184.21
8179.25
8174.19
8169.16
8163.73
8157.74
8151.93
8147.72
8144.6
8140.57
8131.53
8115.28
8116.11
8106.17
8100.56
8093.32
8086.58
8077.6
8071.34
8063.01
8055.69
8047.7
8039.8
8031.25
8022.8
8012.38
8003.44
7992.82
7984.92
7974.49
7970.49
7958.06
7939.4
7926.19
7912.42
7899.28
7886.39
7872.76
7858.1
7843.46
7828.4
7813.4
7797.86
7781.34
7764.95
7749.05
7732.46
7720.28
7702.64
7679.69
7661.77
7643.7
7626.07
7609.13
7591.63
7573.88
7556.74
7539.77
7523.57
7507.56
7492.09
7476.81
7461.86
7447.4
7433.46
7420.01
7406.96
7394.25
7382.15
7370.55
7359.57
7348.97
7338.75
7329.02
7319.82
7311.17
7302.91
7294.96
7287.39
7280.27
7273.53
7267.13
7261.1
7255.37
7249.89
7244.61
7239.62
7234.93
7230.52
7226.47
7222.7
7219.16
7216.04
7213.29
7210.92
7209.02
7207.46
7206.28
7205.46
7205.04
7205.1
7205.57
7206.53
7207.86
7209.55
7211.64
7214.08
7216.87
7220.11
7223.71
7227.69
7232.08
7236.75
7241.72
7246.98
7252.49
7258.34
7264.5
7270.96
7277.62
7284.5
7291.55
7298.82
7306.36
7314.08
7321.9
7329.9
7338.06
7346.38
7354.78
7363.27
7371.82
7380.5
7389.27
7398.13
7407.06
7415.98
7424.91
7433.84
7442.81
7451.81
7460.82
7469.86
7478.84
7487.78
7496.7
7505.57
7514.37
7523.16
7531.9
7540.61
7549.27
7557.83
7566.3
7574.72
7583.09
7591.42
7599.63
7607.75
7615.76
7623.72
7631.61
7639.43
7647.22
7654.88
7662.45
7669.94
7677.32
7684.65
7691.92
7699.12
7706.27
7713.31
7720.25
7727.11
7733.93
7740.72
7747.4
7754
7760.52
7766.95
7773.34
7779.66
7785.94
7792.14
7798.24
7804.28
7810.23
7816.1
7821.9
7827.64
7833.32
7838.9
7844.38
7849.77
7855.1
7860.36
7865.51
7870.56
7875.5
7880.36
7885.14
7889.82
7894.39
7898.84
7903.19
7907.45
7911.61
7915.64
7919.54
7923.35
7927.07
7930.67
7934.14
7937.51
7940.75
7943.88
7946.92
7949.86
7952.68
7955.4
7958
7960.52
7962.95
7965.3
7967.54
7969.7
7971.8
7973.83
7975.79
7977.68
7979.51
7981.3
7983.05
7984.75
7986.41
7988.02
7989.6
7991.15
7992.65
7994.09
7995.48
7996.81
7998.09
7999.3
8000.45
8001.53
8002.54
8003.48
8004.35
8005.15
8005.87
8006.52
8007.1
8007.6
8008.02
8008.38
8008.65
8008.86
8008.99
8009.05
8009.04
8008.95
8008.8
8008.58
8008.29
8007.93
8007.51
8007.03
8006.48
8005.87
8005.21
8004.48
8003.7
8002.87
8001.98
8001.05
8000.06
7999.03
7997.95
7996.83
7995.67
7994.47
7993.23
7991.95
7990.64
7989.29
7987.92
7986.52
7985.09
7983.63
7982.16
7980.66
7979.14
7977.61
7976.06
7974.5
7972.93
7971.35
7969.76
7968.16
7966.56
7964.96
7963.35
7961.74
7960.14
7958.53
7956.92
7955.33
7953.73
7952.14
7950.55
7948.97
7947.39
7945.83
7944.26
7942.71
7941.17
7939.63
7938.1
7936.59
7935.07
7933.58
7932.08
7930.61
7929.13
7927.68
7926.22
7924.79
7923.36
7921.94
7920.54
7919.13
7917.75
7916.35
7914.98
7913.59
7912.23
7910.89
7909.55
7908.17
7906.84
7905.45
7904.14
7902.94
7901.64
7900.39
7899.1
7897.83
7896.53
7895.27
7893.98
7892.71
7891.43
7890.17
7888.9
7887.65
7886.38
7885.14
7883.9
7882.65
7881.44
7880.24
7879.06
7877.87
7876.73
7875.57
7874.46
7873.33
7872.29
7871.2
7870.21
7869.14
7868.22
7867.19
7866.33
7865.46
7864.62
7863.82
7862.91
7862.24
7861.14
7860.62
7860.16
7859.67
7859.16
7858.67
7858.2
7857.76
7857.34
7856.94
7856.55
7856.21
7855.87
7855.55
7855.24
7854.96
7854.69
7854.44
7854.21
7854
7853.8
7853.62
7853.47
7853.33
7853.21
7853.11
7853.03
7852.97
7852.93
7852.91
7852.91
7852.93
7852.97
7853.03
7853.11
7853.21
7853.33
7853.47
7853.62
7853.8
7853.99
7854.21
7854.44
7854.69
7854.96
7855.24
7855.54
7855.86
7856.2
7856.55
7856.92
7857.31
7857.71
7858.13
7858.56
7859.01
7859.48
7859.96
7860.45
7860.96
7861.49
7862.02
7862.58
7863.14
7863.72
7864.32
7864.92
7865.54
7866.18
7866.82
7867.48
7868.15
7868.84
7869.53
7870.24
7870.96
7871.69
7872.44
7873.19
7873.96
7874.74
7875.53
7876.33
7877.14
7877.96
7878.8
7879.65
7880.5
7881.47
7882.01
7883.58
8399.5
8398.61
8397.6
8397.02
8395.33
8392.2
8388.39
8384.96
8383.22
8382.9
8383.23
8383.33
8383.1
8382.38
8381.28
8379.89
8378.29
8376.55
8374.77
8373
8371.28
8369.65
8368.07
8366.46
8364.63
8362.9
8361.24
8359.44
8357.36
8355.09
8352.48
8350.26
8348.11
8346.15
8343.86
8341.4
8338.88
8336.31
8333.64
8330.89
8328.17
8325.48
8322.69
8319.8
8316.83
8313.71
8310.39
8307.48
8304.53
8301.37
8298.11
8294.78
8291.39
8287.91
8284.38
8280.88
8277.34
8273.67
8269.89
8265.69
8261.75
8257.85
8254
8250.38
8246.48
8242.41
8238.26
8234.05
8229.77
8225.23
8220.89
8216.62
8212.23
8207.73
8203.1
8198.32
8193.21
8188.29
8183.33
8178.42
8173.42
8168.18
8162.65
8157.12
8151.66
8146.12
8140.21
8133.95
8128.29
8124.38
8121.05
8111.05
8093
8094.07
8084.03
8077.72
8070.29
8062.61
8052.92
8045.66
8036.44
8028.15
8019.2
8010.15
8000.68
7991.25
7979.78
7970.15
7958.6
7949.02
7938.83
7933.14
7920.38
7900.29
7885.99
7871.31
7857
7842.91
7827.93
7811.89
7795.92
7779.62
7763.65
7747.39
7730.15
7713.13
7696.21
7678.96
7666.2
7648.37
7625.77
7607.96
7590.13
7573.05
7556.09
7539.56
7523.11
7506.56
7490.82
7475.53
7460.54
7445.94
7431.87
7418.19
7404.87
7392.17
7379.97
7368.4
7357.29
7346.5
7336.15
7326.41
7317.14
7308.46
7300.1
7292.12
7284.45
7277.24
7270.43
7263.97
7257.95
7252.19
7246.65
7241.31
7236.33
7231.66
7227.27
7223.29
7219.54
7216.02
7212.88
7210.16
7207.83
7205.98
7204.44
7203.27
7202.44
7202.09
7202.19
7202.77
7203.79
7205.13
7206.87
7209.02
7211.52
7214.37
7217.67
7221.34
7225.38
7229.87
7234.62
7239.67
7245.03
7250.64
7256.52
7262.75
7269.31
7276.04
7283.01
7290.15
7297.47
7305.05
7312.8
7320.77
7328.93
7337.15
7345.5
7353.95
7362.45
7371.11
7379.87
7388.74
7397.69
7406.63
7415.6
7424.54
7433.54
7442.58
7451.66
7460.76
7469.78
7478.75
7487.72
7496.7
7505.68
7514.57
7523.39
7532.1
7540.79
7549.44
7558.03
7566.55
7575.05
7583.48
7591.78
7600.01
7608.13
7616.13
7624.11
7632.02
7639.89
7647.66
7655.31
7662.86
7670.31
7677.73
7685.07
7692.34
7699.58
7706.7
7713.72
7720.64
7727.5
7734.31
7741.07
7747.78
7754.38
7760.87
7767.31
7773.69
7780.03
7786.31
7792.49
7798.6
7804.63
7810.59
7816.46
7822.24
7827.99
7833.67
7839.25
7844.72
7850.12
7855.46
7860.73
7865.88
7870.94
7875.88
7880.74
7885.51
7890.18
7894.77
7899.25
7903.62
7907.86
7911.98
7916.01
7919.94
7923.76
7927.48
7931.08
7934.55
7937.9
7941.15
7944.29
7947.33
7950.27
7953.09
7955.81
7958.41
7960.93
7963.37
7965.7
7967.94
7970.11
7972.21
7974.25
7976.22
7978.11
7979.94
7981.74
7983.49
7985.19
7986.83
7988.44
7990.02
7991.56
7993.06
7994.5
7995.88
7997.21
7998.48
7999.7
8000.85
8001.93
8002.95
8003.88
8004.74
8005.54
8006.27
8006.93
8007.51
8008.01
8008.43
8008.78
8009.06
8009.27
8009.41
8009.47
8009.46
8009.37
8009.21
8008.98
8008.69
8008.34
8007.92
8007.44
8006.89
8006.28
8005.61
8004.88
8004.1
8003.26
8002.37
8001.43
8000.44
7999.41
7998.32
7997.2
7996.03
7994.82
7993.58
7992.29
7990.97
7989.62
7988.24
7986.83
7985.39
7983.93
7982.45
7980.95
7979.42
7977.88
7976.32
7974.75
7973.17
7971.58
7969.98
7968.38
7966.77
7965.16
7963.54
7961.93
7960.31
7958.7
7957.09
7955.48
7953.88
7952.28
7950.69
7949.1
7947.52
7945.95
7944.38
7942.82
7941.27
7939.73
7938.2
7936.68
7935.17
7933.66
7932.18
7930.69
7929.22
7927.76
7926.32
7924.88
7923.45
7922.02
7920.61
7919.21
7917.8
7916.43
7915.06
7913.7
7912.29
7910.94
7909.5
7908.18
7906.98
7905.67
7904.41
7903.1
7901.81
7900.5
7899.21
7897.91
7896.62
7895.32
7894.03
7892.74
7891.45
7890.16
7888.87
7887.58
7886.3
7885.07
7883.81
7882.59
7881.34
7880.15
7878.91
7877.76
7876.54
7875.43
7874.24
7873.19
7872.01
7871.03
7869.86
7868.95
7867.94
7867.06
7866.08
7865.18
7864.34
7863.11
7862.45
7862.07
7861.48
7860.89
7860.31
7859.74
7859.19
7858.68
7858.2
7857.74
7857.3
7856.89
7856.48
7856.11
7855.76
7855.42
7855.11
7854.81
7854.53
7854.28
7854.04
7853.82
7853.62
7853.44
7853.28
7853.14
7853.02
7852.92
7852.84
7852.78
7852.74
7852.72
7852.72
7852.74
7852.78
7852.84
7852.92
7853.02
7853.14
7853.28
7853.44
7853.62
7853.81
7854.02
7854.26
7854.51
7854.78
7855.07
7855.37
7855.69
7856.03
7856.39
7856.76
7857.15
7857.55
7857.97
7858.41
7858.86
7859.33
7859.81
7860.31
7860.82
7861.34
7861.88
7862.44
7863.01
7863.59
7864.18
7864.79
7865.41
7866.05
7866.7
7867.36
7868.03
7868.71
7869.41
7870.12
7870.84
7871.58
7872.32
7873.08
7873.84
7874.62
7875.41
7876.22
7877.03
7877.85
7878.69
7879.54
7880.39
7881.36
7881.9
7883.47
8399.94
8398.99
8398.09
8397.33
8395.76
8393.52
8391.26
8389.26
8387.83
8387
8386.17
8385.18
8384.16
8383.06
8381.82
8380.39
8378.87
8377.23
8375.54
8373.85
8372.16
8370.49
8368.82
8367.13
8365.3
8363.49
8361.74
8359.85
8357.81
8355.65
8353.11
8350.84
8348.89
8346.77
8344.38
8341.92
8339.41
8336.85
8334.23
8331.57
8328.84
8326.09
8323.28
8320.41
8317.47
8314.46
8311.38
8308.21
8305.09
8301.96
8298.75
8295.45
8292.06
8288.63
8285.15
8281.62
8278.02
8274.36
8270.62
8266.75
8262.43
8258.37
8254.52
8250.95
8247.02
8242.9
8238.7
8234.43
8230.12
8225.74
8221.21
8216.33
8211.83
8207.43
8202.78
8197.94
8192.93
8187.5
8182.56
8177.6
8172.35
8166.96
8161.37
8155.7
8150.11
8144.31
8138.31
8132.26
8126.22
8120.06
8113.41
8106.93
8102.53
8098.73
8087.76
8068.82
8069.95
8059.02
8052.1
8043.51
8035.17
8024.57
8016.46
8005.91
7996.77
7986.32
7976.77
7966.04
7956.17
7945.04
7933.43
7921.34
7910.19
7899.12
7892.3
7878.46
7856.97
7841.51
7825.88
7810.35
7795.09
7778.85
7761.9
7745.08
7728.24
7711.51
7694.43
7676.46
7659.05
7641.93
7624.72
7611.75
7593.87
7571.91
7554.39
7536.78
7521.06
7504.76
7489.34
7473.94
7458.6
7443.85
7429.64
7415.71
7402.25
7389.41
7377.19
7365.51
7354.22
7343.3
7332.8
7322.91
7313.65
7304.82
7296.35
7288.28
7280.6
7273.21
7266.3
7259.83
7253.77
7247.92
7242.37
7237.06
7232
7227.33
7223.07
7219.09
7215.35
7211.94
7208.78
7206.07
7203.87
7202.02
7200.51
7199.39
7198.59
7198.3
7198.53
7199.23
7200.24
7201.65
7203.45
7205.62
7208.21
7211.3
7214.69
7218.36
7222.49
7227.05
7231.92
7237.07
7242.53
7248.31
7254.36
7260.64
7267.13
7273.98
7281.12
7288.38
7295.78
7303.46
7311.32
7319.45
7327.64
7335.95
7344.35
7352.83
7361.49
7370.25
7379.18
7388.12
7397.08
7406.09
7415.08
7424.1
7433.2
7442.35
7451.51
7460.62
7469.68
7478.7
7487.74
7496.77
7505.81
7514.73
7523.6
7532.41
7541.1
7549.75
7558.37
7566.92
7575.46
7583.91
7592.24
7600.48
7608.63
7616.66
7624.61
7632.57
7640.46
7648.2
7655.81
7663.35
7670.85
7678.26
7685.63
7692.95
7700.13
7707.23
7714.22
7721.12
7727.99
7734.8
7741.59
7748.27
7754.85
7761.33
7767.76
7774.16
7780.52
7786.76
7792.93
7799.01
7805.02
7810.99
7816.91
7822.73
7828.46
7834.12
7839.67
7845.14
7850.56
7855.93
7861.19
7866.34
7871.41
7876.37
7881.22
7885.99
7890.67
7895.28
7899.76
7904.13
7908.38
7912.5
7916.52
7920.47
7924.31
7928.02
7931.6
7935.07
7938.42
7941.68
7944.85
7947.89
7950.82
7953.64
7956.35
7958.96
7961.49
7963.93
7966.28
7968.53
7970.69
7972.8
7974.84
7976.81
7978.7
7980.53
7982.33
7984.09
7985.78
7987.43
7989.03
7990.6
7992.14
7993.62
7995.05
7996.43
7997.75
7999.03
8000.23
8001.38
8002.45
8003.47
8004.41
8005.28
8006.07
8006.79
8007.45
8008.04
8008.54
8008.96
8009.31
8009.6
8009.81
8009.94
8010
8009.98
8009.89
8009.73
8009.51
8009.22
8008.86
8008.44
8007.96
8007.41
8006.79
8006.12
8005.39
8004.6
8003.75
8002.86
8001.92
8000.93
7999.88
7998.79
7997.66
7996.49
7995.27
7994.02
7992.72
7991.4
7990.04
7988.65
7987.23
7985.78
7984.31
7982.82
7981.3
7979.77
7978.21
7976.65
7975.07
7973.48
7971.87
7970.26
7968.65
7967.03
7965.41
7963.78
7962.16
7960.53
7958.91
7957.29
7955.67
7954.06
7952.45
7950.85
7949.26
7947.67
7946.09
7944.51
7942.95
7941.39
7939.86
7938.32
7936.8
7935.28
7933.78
7932.28
7930.81
7929.33
7927.88
7926.41
7924.98
7923.53
7922.12
7920.75
7919.35
7917.98
7916.52
7915.16
7913.67
7912.33
7911.15
7909.81
7908.57
7907.23
7905.93
7904.59
7903.3
7901.95
7900.66
7899.31
7898.02
7896.69
7895.4
7894.05
7892.76
7891.41
7890.11
7888.84
7887.55
7886.29
7885
7883.75
7882.46
7881.24
7879.97
7878.78
7877.53
7876.4
7875.14
7874.07
7872.81
7871.8
7870.68
7869.74
7868.53
7867.68
7866.18
7865.51
7864.9
7864.26
7863.55
7862.89
7862.21
7861.55
7860.92
7860.32
7859.74
7859.19
7858.66
7858.16
7857.68
7857.22
7856.78
7856.37
7855.98
7855.61
7855.26
7854.93
7854.63
7854.34
7854.07
7853.83
7853.6
7853.4
7853.21
7853.05
7852.9
7852.78
7852.68
7852.6
7852.54
7852.5
7852.48
7852.48
7852.5
7852.54
7852.6
7852.68
7852.79
7852.91
7853.05
7853.21
7853.39
7853.59
7853.8
7854.04
7854.29
7854.56
7854.85
7855.16
7855.48
7855.82
7856.18
7856.56
7856.95
7857.36
7857.78
7858.22
7858.67
7859.14
7859.63
7860.12
7860.64
7861.17
7861.71
7862.27
7862.84
7863.42
7864.02
7864.63
7865.25
7865.89
7866.54
7867.2
7867.87
7868.56
7869.26
7869.97
7870.69
7871.43
7872.17
7872.93
7873.7
7874.48
7875.27
7876.08
7876.89
7877.72
7878.55
7879.4
7880.25
7881.22
7881.76
7883.34
8400.56
8399.61
8398.57
8397.53
8396.34
8394.71
8392.8
8390.63
8389.03
8388.35
8387.49
8386.37
8385.16
8383.9
8382.56
8381.14
8379.63
8378.03
8376.38
8374.71
8373.02
8371.32
8369.6
8367.86
8366.07
8364.24
8362.37
8360.4
8358.37
8356.26
8354.04
8351.86
8349.69
8347.38
8344.97
8342.52
8340.03
8337.48
8334.91
8332.25
8329.54
8326.78
8323.95
8321.09
8318.21
8315.23
8312.18
8308.92
8305.17
8302.31
8299.42
8296.21
8292.86
8289.44
8285.96
8282.42
8278.82
8275.16
8271.43
8267.62
8263.7
8259.6
8255.15
8251.34
8247.49
8243.48
8239.27
8234.96
8230.56
8226.1
8221.34
8216.46
8211.77
8207.31
8202.69
8197.78
8192.71
8187.53
8182.31
8176.99
8171.55
8165.83
8159.78
8154.2
8148.7
8142.81
8136.68
8130.41
8124.06
8117.45
8110.81
8104.32
8097.61
8089.94
8082.76
8077.79
8073.85
8063.23
8043.35
8043.02
8031.25
8023.5
8014.24
8004.9
7993.4
7984.1
7972.79
7962.61
7951.6
7940.85
7929.29
7918.17
7906.35
7893.3
7880.48
7868.16
7855.87
7847.79
7833.06
7809.72
7793.03
7776.41
7759.96
7743.9
7726.95
7709.24
7691.76
7674.25
7656.85
7639.47
7621.34
7604.38
7586.16
7569.91
7553.57
7540.1
7523.38
7502.87
7486.67
7471.51
7456.22
7441.48
7426.99
7412.62
7398.86
7385.99
7373.66
7361.75
7350.22
7339.23
7328.54
7318.51
7309.13
7300.11
7291.47
7283.26
7275.49
7268.14
7261.12
7254.54
7248.35
7242.45
7236.88
7231.59
7226.62
7221.99
7217.71
7213.71
7210.02
7206.62
7203.62
7201.11
7198.9
7197.06
7195.6
7194.45
7193.8
7193.71
7194.09
7194.78
7195.87
7197.35
7199.17
7201.4
7204.15
7207.44
7211.01
7214.9
7219.09
7223.56
7228.48
7233.78
7239.51
7245.43
7251.6
7258
7264.58
7271.51
7278.69
7286.1
7293.75
7301.68
7309.67
7317.81
7326.09
7334.44
7342.9
7351.58
7360.35
7369.28
7378.29
7387.29
7396.34
7405.45
7414.58
7423.68
7432.79
7441.98
7451.22
7460.45
7469.61
7478.72
7487.78
7496.92
7505.95
7514.89
7523.78
7532.68
7541.51
7550.22
7558.8
7567.36
7575.89
7584.42
7592.78
7601.05
7609.22
7617.25
7625.22
7633.22
7641.1
7648.86
7656.51
7664.03
7671.5
7678.91
7686.32
7693.6
7700.77
7707.86
7714.83
7721.73
7728.6
7735.43
7742.2
7748.86
7755.44
7761.93
7768.32
7774.72
7781.07
7787.3
7793.46
7799.52
7805.52
7811.5
7817.43
7823.25
7828.99
7834.64
7840.19
7845.67
7851.11
7856.49
7861.74
7866.9
7871.97
7876.95
7881.81
7886.58
7891.29
7895.89
7900.38
7904.75
7909.01
7913.15
7917.17
7921.14
7924.97
7928.68
7932.27
7935.74
7939.1
7942.38
7945.54
7948.58
7951.51
7954.34
7957.06
7959.69
7962.23
7964.67
7967.01
7969.27
7971.46
7973.57
7975.61
7977.57
7979.48
7981.32
7983.11
7984.86
7986.55
7988.19
7989.79
7991.36
7992.87
7994.34
7995.76
7997.13
7998.45
7999.71
8000.91
8002.04
8003.12
8004.12
8005.06
8005.93
8006.73
8007.45
8008.1
8008.68
8009.18
8009.61
8009.96
8010.24
8010.45
8010.57
8010.62
8010.61
8010.52
8010.37
8010.14
8009.85
8009.48
8009.06
8008.57
8008.02
8007.4
8006.73
8005.99
8005.2
8004.35
8003.45
8002.5
8001.5
8000.45
7999.35
7998.21
7997.03
7995.8
7994.54
7993.23
7991.9
7990.53
7989.13
7987.7
7986.24
7984.75
7983.25
7981.72
7980.17
7978.6
7977.03
7975.44
7973.83
7972.22
7970.59
7968.97
7967.33
7965.7
7964.06
7962.43
7960.79
7959.16
7957.53
7955.9
7954.29
7952.67
7951.06
7949.45