/*--------------------------------*- C++ -*----------------------------------*\
| =========                 |                                                 |
| \\      /  F ield         | OpenFOAM: The Open Source CFD Toolbox           |
|  \\    /   O peration     | Version:  v2006                                 |
|   \\  /    A nd           | Website:  www.openfoam.com                      |
|    \\/     M anipulation  |                                                 |
\*---------------------------------------------------------------------------*/
FoamFile
{
    version     2.0;
    format      ascii;
    class       volVectorField;
    location    "6.9";
    object      U;
}
// * * * * * * * * * * * * * * * * * * * * * * * * * * * * * * * * * * * * * //

dimensions      [0 1 -1 0 0 0 0];


internalField   nonuniform List<vector> 
33000
(
(0.12436 0 0.000836733)
(0.123103 0 0.00133228)
(0.121452 0 0.00181646)
(0.120186 0 0.000690641)
(0.121316 0 -0.0032316)
(0.131534 0 -0.00855983)
(0.156752 0 -0.0132681)
(0.180216 0 -0.0107243)
(0.19211 0 -0.00611902)
(0.194023 0 -0.00435212)
(0.193882 0 -0.00464864)
(0.194604 0 -0.00574182)
(0.197054 0 -0.00649574)
(0.199855 0 -0.00648442)
(0.204565 0 -0.00599266)
(0.210106 0 -0.00393222)
(0.215484 0 -0.00511765)
(0.223646 0 -0.00843759)
(0.23119 0 -0.00591425)
(0.234205 0 -0.000184819)
(0.233819 0 0.00159369)
(0.23054 0 0.00080425)
(0.223866 0 0.00420373)
(0.206814 0 0.01686)
(0.185151 0 0.0243081)
(0.166377 0 0.020691)
(0.153224 0 0.01287)
(0.145029 0 0.00721533)
(0.139637 0 0.00464464)
(0.135186 0 0.00486586)
(0.129853 0 0.00542204)
(0.12427 0 0.0049706)
(0.119818 0 0.0043906)
(0.115276 0 0.00424176)
(0.111097 0 0.00314116)
(0.108955 0 0.00101265)
(0.108704 0 -3.75081e-05)
(0.108801 0 6.60715e-05)
(0.108474 0 0.00164018)
(0.104963 0 0.00443966)
(0.100194 0 0.0034552)
(0.0980724 0 0.000697096)
(0.0982551 0 -0.000410548)
(0.0987722 0 -0.000383299)
(0.0990276 0 0.000350064)
(0.0979114 0 0.00226274)
(0.0947163 0 0.00293339)
(0.0924295 0 0.0010402)
(0.0922576 0 -0.000367046)
(0.0928362 0 -0.000684092)
(0.0938736 0 -0.000611832)
(0.0946369 0 -0.000619899)
(0.0955717 0 -0.000827643)
(0.0965935 0 -0.000686094)
(0.0970059 0 9.6306e-05)
(0.0961422 0 0.00126212)
(0.093677 0 0.00288552)
(0.0908707 0 0.00311521)
(0.0889383 0 0.00144869)
(0.0879708 0 0.000358189)
(0.0875767 0 0.000734074)
(0.0858052 0 0.00154054)
(0.084145 0 0.000637929)
(0.0843029 0 -0.000983903)
(0.0861938 0 -0.00257933)
(0.0890867 0 -0.0034028)
(0.0920169 0 -0.00289411)
(0.0942207 0 -0.00250782)
(0.0958834 0 -0.00249683)
(0.0976909 0 -0.00297206)
(0.099416 0 -0.00376227)
(0.102453 0 -0.00504659)
(0.106253 0 -0.00653476)
(0.112515 0 -0.00664781)
(0.116452 0 -0.00507367)
(0.120396 0 -0.00152956)
(0.124555 0 0.00694133)
(0.117793 0 0.0228429)
(0.0823777 0 0.020944)
(0.0791206 0 0.00738689)
(0.0604029 0 0.0004354)
(0.0597838 0 -0.00659293)
(0.0549474 0 0.00163131)
(0.0517235 0 0.000638101)
(0.0534517 0 0.0025647)
(0.0534841 0 0.000685373)
(0.0522407 0 0.000413464)
(0.0522132 0 -0.00148866)
(0.0524509 0 -0.00181396)
(0.0529384 0 -0.00092498)
(0.0532072 0 -0.00111484)
(0.0542526 0 -0.000472215)
(0.0555917 0 -0.00136484)
(0.0565714 0 -0.00152792)
(0.0585225 0 -0.00261059)
(0.0597804 0 -0.00351376)
(0.0633708 0 -0.00281378)
(0.0631784 0 -0.00274801)
(0.0680322 0 0.00305832)
(0.0604259 0 0.00548984)
(0.0599224 0 0.00383525)
(0.0567858 0 6.01953e-05)
(0.0575988 0 -0.00358396)
(0.0577174 0 -0.00175312)
(0.0576911 0 -0.000928878)
(0.0588734 0 1.49321e-05)
(0.0598476 0 5.40848e-05)
(0.0602146 0 0.000411914)
(0.0604464 0 5.37269e-05)
(0.0605895 0 -0.000302298)
(0.0607121 0 -0.00021065)
(0.0604524 0 -8.6753e-05)
(0.060475 0 0.00030808)
(0.0598401 0 0.000577255)
(0.0596623 0 0.00145543)
(0.0573378 0 0.00174316)
(0.0573973 0 0.00432465)
(0.0503739 0 0.00411179)
(0.0493198 0 0.00141562)
(0.0469322 0 -0.00194205)
(0.0478119 0 -0.00295505)
(0.0477056 0 -0.000840691)
(0.0476456 0 0.000175156)
(0.0484153 0 0.000616432)
(0.0485709 0 0.000424354)
(0.0483586 0 4.88277e-05)
(0.0482375 0 -9.96361e-05)
(0.0479898 0 0.000114843)
(0.0476697 0 0.000256436)
(0.0473595 0 0.000362855)
(0.0469109 0 0.000433082)
(0.0463595 0 0.00044227)
(0.0457875 0 0.000480537)
(0.0451402 0 0.000541451)
(0.0444098 0 0.000605433)
(0.0436104 0 0.000663698)
(0.0427413 0 0.000699152)
(0.0418286 0 0.000748149)
(0.0408546 0 0.000791983)
(0.0398054 0 0.000872788)
(0.0386702 0 0.000914336)
(0.0374754 0 0.000976655)
(0.0362125 0 0.000999664)
(0.0349124 0 0.00103194)
(0.0335858 0 0.00105397)
(0.0321949 0 0.00111524)
(0.0307325 0 0.00116637)
(0.0291877 0 0.00125119)
(0.0275658 0 0.0012821)
(0.025944 0 0.00127513)
(0.0243164 0 0.00129015)
(0.022627 0 0.00133952)
(0.0208804 0 0.00138941)
(0.0190778 0 0.0014338)
(0.0172626 0 0.00144838)
(0.015423 0 0.00144603)
(0.013589 0 0.00143867)
(0.0117429 0 0.00144893)
(0.00989557 0 0.00144772)
(0.00806348 0 0.00144277)
(0.00623883 0 0.00144481)
(0.00440969 0 0.00143247)
(0.00262398 0 0.00138104)
(0.000907398 0 0.00133504)
(-0.00076788 0 0.0013076)
(-0.0024192 0 0.00128426)
(-0.00403121 0 0.00123369)
(-0.0055607 0 0.00117312)
(-0.00702404 0 0.00113757)
(-0.00846451 0 0.00111708)
(-0.00987382 0 0.00109518)
(-0.0112478 0 0.00105756)
(-0.0125571 0 0.000997937)
(-0.0137982 0 0.000955198)
(-0.0149986 0 0.00092338)
(-0.0161573 0 0.000901815)
(-0.0172942 0 0.000885753)
(-0.0184026 0 0.000856058)
(-0.0194669 0 0.000816891)
(-0.0204819 0 0.000778155)
(-0.0214563 0 0.000742682)
(-0.0223792 0 0.000700687)
(-0.023248 0 0.000669957)
(-0.0240869 0 0.000647198)
(-0.0248919 0 0.000624612)
(-0.0256716 0 0.000603473)
(-0.0264238 0 0.000571151)
(-0.0271297 0 0.000533566)
(-0.0277916 0 0.00050078)
(-0.0284125 0 0.000473387)
(-0.0290007 0 0.000455953)
(-0.0295653 0 0.000436261)
(-0.0301012 0 0.000410868)
(-0.0306044 0 0.000381418)
(-0.0310744 0 0.000351447)
(-0.0315056 0 0.000322455)
(-0.0319006 0 0.000297226)
(-0.0322647 0 0.000276902)
(-0.0326088 0 0.000265117)
(-0.032938 0 0.000250951)
(-0.0332421 0 0.000230759)
(-0.0335183 0 0.000203992)
(-0.0337557 0 0.000172672)
(-0.0339618 0 0.000152942)
(-0.0341502 0 0.000139407)
(-0.0343209 0 0.000126536)
(-0.0344731 0 0.000112936)
(-0.0346043 0 9.44111e-05)
(-0.0347071 0 7.01124e-05)
(-0.0347843 0 5.39721e-05)
(-0.0348488 0 4.67247e-05)
(-0.0349066 0 4.28315e-05)
(-0.0349526 0 2.63894e-05)
(-0.034965 0 -3.3834e-06)
(-0.0349467 0 -2.09418e-05)
(-0.0349167 0 -3.04494e-05)
(-0.034874 0 -3.4239e-05)
(-0.0348293 0 -3.32362e-05)
(-0.0347813 0 -4.11224e-05)
(-0.0347174 0 -5.83393e-05)
(-0.034631 0 -7.92345e-05)
(-0.0345208 0 -9.2481e-05)
(-0.0343997 0 -9.95812e-05)
(-0.0342716 0 -0.000100999)
(-0.0341439 0 -9.66686e-05)
(-0.0340187 0 -9.94606e-05)
(-0.0338829 0 -0.000110652)
(-0.0337359 0 -0.0001219)
(-0.0335753 0 -0.000131275)
(-0.0334048 0 -0.000136593)
(-0.0332313 0 -0.000134794)
(-0.0330638 0 -0.000125538)
(-0.0329062 0 -0.000124299)
(-0.0327419 0 -0.000132908)
(-0.0325679 0 -0.000137839)
(-0.03239 0 -0.000140463)
(-0.0322082 0 -0.000142008)
(-0.0320263 0 -0.000139417)
(-0.0318504 0 -0.000136591)
(-0.0316769 0 -0.000137432)
(-0.0315057 0 -0.000134361)
(-0.0313398 0 -0.000128717)
(-0.0311782 0 -0.000123979)
(-0.0310172 0 -0.000125111)
(-0.030851 0 -0.000133423)
(-0.0306787 0 -0.000135955)
(-0.0305087 0 -0.000132549)
(-0.0303438 0 -0.000124247)
(-0.0301918 0 -0.00011295)
(-0.0300472 0 -0.000117859)
(-0.0298855 0 -0.000132315)
(-0.0297144 0 -0.000132847)
(-0.0295486 0 -0.000130291)
(-0.0293837 0 -0.000127568)
(-0.0292243 0 -0.000122862)
(-0.0290664 0 -0.000125535)
(-0.0288984 0 -0.000132533)
(-0.028725 0 -0.000137448)
(-0.0285474 0 -0.000141913)
(-0.0283649 0 -0.000145072)
(-0.0281817 0 -0.000145539)
(-0.0279956 0 -0.000147468)
(-0.0278008 0 -0.000154701)
(-0.0275954 0 -0.000165702)
(-0.0273783 0 -0.000174851)
(-0.0271525 0 -0.000178753)
(-0.0269264 0 -0.000178019)
(-0.0266989 0 -0.00017936)
(-0.0264641 0 -0.000190781)
(-0.0262084 0 -0.000209158)
(-0.0259333 0 -0.000220184)
(-0.0256497 0 -0.000228239)
(-0.0253546 0 -0.000237129)
(-0.0250484 0 -0.00024289)
(-0.0247352 0 -0.000247517)
(-0.0244126 0 -0.000259033)
(-0.0240718 0 -0.000275592)
(-0.0237127 0 -0.000289843)
(-0.0233363 0 -0.000302658)
(-0.0229432 0 -0.000315835)
(-0.022533 0 -0.000329811)
(-0.0221049 0 -0.00034329)
(-0.021661 0 -0.000351942)
(-0.0212087 0 -0.000360496)
(-0.0207399 0 -0.000379469)
(-0.0202416 0 -0.000400335)
(-0.0197226 0 -0.000415592)
(-0.0191854 0 -0.000430346)
(-0.0186294 0 -0.000445604)
(-0.0180531 0 -0.000460109)
(-0.0174592 0 -0.000472274)
(-0.0168491 0 -0.000487638)
(-0.0162162 0 -0.000506243)
(-0.0155608 0 -0.000524619)
(-0.0148838 0 -0.000541093)
(-0.0141874 0 -0.000556124)
(-0.0134722 0 -0.000567426)
(-0.0127433 0 -0.000577749)
(-0.0119983 0 -0.000592374)
(-0.0112359 0 -0.00060739)
(-0.0104576 0 -0.000620481)
(-0.00966275 0 -0.000631257)
(-0.00885546 0 -0.000636938)
(-0.00804282 0 -0.000641693)
(-0.00722173 0 -0.000649953)
(-0.00639232 0 -0.000656287)
(-0.00555846 0 -0.000657981)
(-0.00472312 0 -0.000656487)
(-0.00389125 0 -0.000653671)
(-0.00306416 0 -0.000650064)
(-0.0022439 0 -0.000644235)
(-0.00143271 0 -0.000634478)
(-0.000635719 0 -0.000619775)
(0.000141486 0 -0.000602791)
(0.000898544 0 -0.000588233)
(0.00163881 0 -0.000574955)
(0.00236172 0 -0.000560493)
(0.00306591 0 -0.000545352)
(0.00375106 0 -0.000530453)
(0.00441748 0 -0.000516295)
(0.00506598 0 -0.000502492)
(0.00569666 0 -0.000488628)
(0.0063097 0 -0.000474286)
(0.00690437 0 -0.000459438)
(0.00748056 0 -0.000445626)
(0.00803992 0 -0.000432704)
(0.00858228 0 -0.000419298)
(0.00910702 0 -0.00040506)
(0.0096135 0 -0.000390661)
(0.0101025 0 -0.000377382)
(0.0105752 0 -0.000364743)
(0.0110315 0 -0.000352164)
(0.0114713 0 -0.00033847)
(0.0118928 0 -0.000323732)
(0.0122963 0 -0.000310231)
(0.0126833 0 -0.000297963)
(0.0130549 0 -0.000285937)
(0.0134109 0 -0.000273466)
(0.0137507 0 -0.000260638)
(0.0140742 0 -0.000247667)
(0.0143815 0 -0.000235065)
(0.0146729 0 -0.000222977)
(0.0149489 0 -0.000211211)
(0.01521 0 -0.000199411)
(0.0154558 0 -0.000187378)
(0.0156863 0 -0.000175325)
(0.0159018 0 -0.000163626)
(0.0161028 0 -0.000152506)
(0.0162897 0 -0.000141664)
(0.0164628 0 -0.000130707)
(0.0166217 0 -0.000119373)
(0.0167662 0 -0.000108192)
(0.016897 0 -9.78831e-05)
(0.017015 0 -8.79337e-05)
(0.0171201 0 -7.76202e-05)
(0.0172119 0 -6.74468e-05)
(0.0172911 0 -5.76572e-05)
(0.0173578 0 -4.80535e-05)
(0.0174123 0 -3.85648e-05)
(0.0174548 0 -2.93346e-05)
(0.0174858 0 -2.02612e-05)
(0.0175053 0 -1.13543e-05)
(0.0175135 0 -2.64437e-06)
(0.0175109 0 5.84104e-06)
(0.0174974 0 1.45037e-05)
(0.017473 0 2.30067e-05)
(0.0174379 0 3.13267e-05)
(0.0173927 0 3.88609e-05)
(0.0173382 0 4.58917e-05)
(0.0172745 0 5.32655e-05)
(0.017201 0 6.09981e-05)
(0.017118 0 6.84746e-05)
(0.0170258 0 7.5226e-05)
(0.0169256 0 8.14579e-05)
(0.0168174 0 8.79375e-05)
(0.016701 0 9.44598e-05)
(0.0165764 0 0.000100849)
(0.016444 0 0.00010692)
(0.0163042 0 0.000113388)
(0.0161562 0 0.000120235)
(0.0160002 0 0.000125554)
(0.0158379 0 0.000130034)
(0.0156695 0 0.000134918)
(0.0154951 0 0.000140336)
(0.0153138 0 0.000145706)
(0.0151263 0 0.000151019)
(0.0149323 0 0.000156076)
(0.0147318 0 0.000161003)
(0.014526 0 0.000164702)
(0.0143153 0 0.000169261)
(0.0140988 0 0.000173974)
(0.013876 0 0.000179543)
(0.0136474 0 0.000182506)
(0.0134151 0 0.00018624)
(0.0131775 0 0.000189621)
(0.0129353 0 0.000194059)
(0.0126884 0 0.000197265)
(0.0124365 0 0.000202909)
(0.0121785 0 0.000206129)
(0.0119166 0 0.000210046)
(0.0116495 0 0.000211405)
(0.0113814 0 0.000215038)
(0.0111084 0 0.000216494)
(0.0108333 0 0.000221177)
(0.0105527 0 0.000223137)
(0.0102701 0 0.000227875)
(0.00998241 0 0.000227779)
(0.00969677 0 0.000229022)
(0.00940809 0 0.000227791)
(0.00912012 0 0.000227449)
(0.00882907 0 0.000226927)
(0.00853717 0 0.000227055)
(0.00824462 0 0.000227648)
(0.00795104 0 0.000229625)
(0.00766269 0 0.000229827)
(0.00736957 0 0.000230436)
(0.00707999 0 0.000221999)
(0.00678876 0 0.000219601)
(0.00649454 0 0.000217875)
(0.00620451 0 0.000228889)
(0.00591836 0 0.00023808)
(0.00563407 0 0.000244003)
(0.00535361 0 0.000217054)
(0.00507196 0 0.000195141)
(0.00480219 0 0.000166659)
(0.00452711 0 0.000208159)
(0.00420967 0 0.000206683)
(0.00400252 0 0.000267886)
(0.00366054 0 0.000300982)
(0.00342888 0 0.000215724)
(0.00314484 0 8.66735e-05)
(0.00304026 0 9.29874e-05)
(0.00277132 0 0.000185536)
(0.00254546 0 0.000162334)
(0.00226179 0 0.000194053)
(0.00197793 0 0.000162453)
(0.00171166 0 0.000209006)
(0.00144221 0 0.000225062)
(0.00120044 0 0.000269278)
(0.000924624 0 0.000288629)
(0.000707125 0 0.000177169)
(0.000433675 0 0.000150818)
(8.4632e-05 0 6.14062e-05)
(-0.000187244 0 0.000255285)
(-0.000457376 0 0.000487367)
(-0.000704569 0 0.000621246)
(-0.000707388 0 0.000314559)
(-0.000802691 0 -0.000200403)
(-0.000194602 0 -0.000725828)
(9.4783e-05 0 -0.000417494)
(0.000446378 0 -0.000294611)
(0.000503518 0 -0.000135274)
(0.00055709 0 -2.04921e-05)
(0.000530214 0 -5.58251e-05)
(0.000466942 0 9.92983e-05)
(0.000417749 0 -5.47202e-05)
(0.00029714 0 0.000151644)
(0.000223406 0 -5.77691e-05)
(0.000155413 0 0.000205091)
(-7.76248e-06 0 -5.8914e-05)
(-1.56445e-05 0 0.000167235)
(-0.000142205 0 -6.23179e-05)
(-0.000364776 0 0.000233315)
(-0.000253167 0 -0.000127057)
(-0.000224702 0 0.000435772)
(-0.000901985 0 -0.000322042)
(-8.0794e-05 0 -0.00012373)
(-0.00141073 0 0.000200498)
(9.41378e-05 0 0.000605798)
(-0.00292787 0 0.00123627)
(-0.00174899 0 -0.000487205)
(-0.00203927 0 -0.000363986)
(-0.00124343 0 -0.000357686)
(-0.00124342 0 -0.000171499)
(-0.00104318 0 -0.000115185)
(-0.00102043 0 -7.94234e-05)
(-0.00096974 0 -5.20761e-05)
(-0.000956737 0 -2.5193e-05)
(-0.000962793 0 -2.95175e-06)
(-0.000978001 0 1.37595e-06)
(-0.000983695 0 -1.05493e-06)
(-0.000988691 0 4.45175e-06)
(-0.0010008 0 4.61056e-06)
(-0.00100705 0 3.75358e-06)
(-0.00101268 0 7.26841e-06)
(-0.0010157 0 -3.91996e-06)
(-0.00100566 0 -1.03381e-05)
(-0.000990296 0 -9.71344e-06)
(-0.000979513 0 -7.45835e-06)
(-0.00096228 0 -2.16397e-05)
(-0.000924395 0 -3.37921e-05)
(-0.000880058 0 -3.26434e-05)
(-0.000839814 0 -2.99393e-05)
(-0.000799736 0 -3.14638e-05)
(-0.000751561 0 -4.14514e-05)
(-0.000692041 0 -5.16587e-05)
(-0.000623704 0 -5.57255e-05)
(-0.00054876 0 -6.10658e-05)
(-0.000468811 0 -6.44577e-05)
(-0.000382213 0 -7.23441e-05)
(-0.000290174 0 -6.9951e-05)
(-0.000201276 0 -6.84319e-05)
(-0.000107963 0 -7.9953e-05)
(2.66111e-06 0 -9.37318e-05)
(0.000128913 0 -0.000104811)
(0.000265181 0 -0.000112104)
(0.000407073 0 -0.000113869)
(0.000552001 0 -0.000115196)
(0.000699722 0 -0.000117469)
(0.000851272 0 -0.000120557)
(0.00100722 0 -0.000124519)
(0.0011704 0 -0.000131398)
(0.00133778 0 -0.000129776)
(0.00150581 0 -0.000138015)
(0.00168391 0 -0.000146667)
(0.00187018 0 -0.00014499)
(0.00205241 0 -0.000139842)
(0.0022296 0 -0.000138201)
(0.00240773 0 -0.000139363)
(0.00258949 0 -0.000142916)
(0.00277642 0 -0.000148555)
(0.00296946 0 -0.000153712)
(0.00316782 0 -0.000157637)
(0.00337036 0 -0.000160481)
(0.0035761 0 -0.000162407)
(0.00378408 0 -0.000163807)
(0.00399358 0 -0.00016471)
(0.00420459 0 -0.000166415)
(0.00441818 0 -0.000169063)
(0.00463521 0 -0.000171455)
(0.00485546 0 -0.000173949)
(0.00507762 0 -0.000174967)
(0.00529955 0 -0.000174207)
(0.00552084 0 -0.000173684)
(0.0057434 0 -0.000175599)
(0.00596978 0 -0.000179006)
(0.00619938 0 -0.000180451)
(0.00642892 0 -0.000180029)
(0.00665648 0 -0.00017607)
(0.00688191 0 -0.000181483)
(0.00711936 0 -0.00017856)
(0.00734034 0 -0.000178585)
(0.00758606 0 -0.000178716)
(0.00778549 0 -0.000194006)
(0.00809327 0 -0.000204901)
(0.00826351 0 -0.000205784)
(0.00847423 0 -0.000204118)
(0.00973822 0 -0.000204717)
(0.00667353 0 -0.000203337)
(0.0138478 0 -0.000245453)
(0.124525 0 0.00253518)
(0.123227 0 0.00394498)
(0.121566 0 0.00384101)
(0.121373 0 0.000720518)
(0.129306 0 -0.0152929)
(0.157075 0 -0.0499757)
(0.184629 0 -0.0616584)
(0.210188 0 -0.0420456)
(0.226314 0 -0.0110016)
(0.226079 0 0.00194455)
(0.218654 0 0.00285165)
(0.206178 0 0.000289799)
(0.199003 0 -0.00275704)
(0.193862 0 -0.00648402)
(0.190698 0 -0.0107259)
(0.191549 0 -0.0138006)
(0.194634 0 -0.0161054)
(0.200101 0 -0.0155415)
(0.202513 0 -0.0125218)
(0.201891 0 -0.00543876)
(0.200343 0 0.00391057)
(0.193397 0 0.0158253)
(0.181339 0 0.0300022)
(0.169241 0 0.0388532)
(0.160373 0 0.0393452)
(0.152915 0 0.031809)
(0.146491 0 0.0220113)
(0.141409 0 0.0148765)
(0.136668 0 0.0112089)
(0.132371 0 0.0109165)
(0.127407 0 0.011889)
(0.122484 0 0.0111168)
(0.117978 0 0.00980879)
(0.114099 0 0.00948944)
(0.111426 0 0.00693382)
(0.109546 0 0.00259406)
(0.108259 0 0.000525738)
(0.107898 0 0.000715864)
(0.106748 0 0.00427371)
(0.103863 0 0.00796979)
(0.102777 0 0.00741437)
(0.100538 0 0.00248038)
(0.0993213 0 -0.000754751)
(0.0994017 0 -0.000822736)
(0.099204 0 0.000894954)
(0.097722 0 0.00477725)
(0.0960002 0 0.00539832)
(0.094498 0 0.00304214)
(0.0928408 0 -0.000495844)
(0.0926579 0 -0.00184188)
(0.0930769 0 -0.0021242)
(0.0937713 0 -0.00220862)
(0.09412 0 -0.00220543)
(0.0943841 0 -0.00160082)
(0.0938448 0 0.000855393)
(0.0922811 0 0.0039693)
(0.0913161 0 0.00495912)
(0.0913351 0 0.00461027)
(0.0912178 0 0.00275968)
(0.0901598 0 0.00178154)
(0.0889485 0 0.00292752)
(0.0863946 0 0.00377736)
(0.0850257 0 0.00202807)
(0.0843273 0 -0.00257892)
(0.0850587 0 -0.00534892)
(0.0861631 0 -0.00591793)
(0.0869041 0 -0.00520535)
(0.0873448 0 -0.00373739)
(0.0868933 0 -0.00271889)
(0.0861839 0 -0.00273624)
(0.0855044 0 -0.00411146)
(0.0860785 0 -0.00724097)
(0.0877745 0 -0.0103329)
(0.0907532 0 -0.0111429)
(0.0944877 0 -0.00995784)
(0.0993221 0 -0.00476977)
(0.10455 0 0.00361491)
(0.11253 0 0.0236338)
(0.123035 0 0.0400881)
(0.123266 0 0.0320726)
(0.116446 0 0.028889)
(0.0815568 0 0.016587)
(0.076986 0 0.0102932)
(0.0591099 0 0.00157354)
(0.0563295 0 -0.00566357)
(0.0518946 0 0.0018643)
(0.0495846 0 0.00128214)
(0.048884 0 0.00149723)
(0.0530378 0 0.000481296)
(0.0548824 0 -8.05418e-05)
(0.0544191 0 -0.00114314)
(0.0555924 0 -0.00318517)
(0.0552754 0 -0.00240199)
(0.0554539 0 -0.00294683)
(0.0557372 0 -0.00270363)
(0.0562051 0 -0.00384878)
(0.0560472 0 -0.00323692)
(0.0577157 0 -0.00359546)
(0.0581164 0 0.000189493)
(0.0642366 0 0.00595814)
(0.0645349 0 0.00341695)
(0.0705762 0 0.00355437)
(0.0634149 0 0.00266263)
(0.0627961 0 0.00176135)
(0.0604962 0 -0.00113936)
(0.060202 0 -0.00386482)
(0.0596595 0 -0.00203899)
(0.0593315 0 -0.00154012)
(0.0592404 0 -0.000414282)
(0.0602846 0 -0.00014303)
(0.0613159 0 0.000560458)
(0.0613232 0 0.000451038)
(0.0614141 0 0.000525759)
(0.0611899 0 0.000850748)
(0.0609426 0 0.00194249)
(0.0608645 0 0.00269773)
(0.0604979 0 0.00576596)
(0.0616573 0 0.00750484)
(0.0598036 0 0.00536603)
(0.0599682 0 0.004121)
(0.0527176 0 0.00220065)
(0.0514476 0 0.00126601)
(0.0487854 0 -0.00157246)
(0.0484474 0 -0.00234715)
(0.047914 0 -0.000249825)
(0.0477478 0 0.00047074)
(0.0483238 0 0.000751248)
(0.0483459 0 0.000823366)
(0.0478986 0 0.000704957)
(0.0474436 0 0.000805982)
(0.046929 0 0.00114799)
(0.0463902 0 0.00131826)
(0.0458635 0 0.00144359)
(0.0452201 0 0.00162574)
(0.0444779 0 0.00179687)
(0.0436405 0 0.00195685)
(0.0427404 0 0.00209299)
(0.0418156 0 0.00221669)
(0.0408189 0 0.00238202)
(0.0397729 0 0.00256151)
(0.0386467 0 0.00274606)
(0.0374621 0 0.00288399)
(0.036212 0 0.00303038)
(0.0349146 0 0.0030938)
(0.033576 0 0.00321752)
(0.0321637 0 0.00336867)
(0.0306741 0 0.00356109)
(0.0291273 0 0.00372591)
(0.0275516 0 0.00381953)
(0.0259569 0 0.00382743)
(0.0243015 0 0.00392688)
(0.0225925 0 0.00405892)
(0.0208222 0 0.004193)
(0.0190449 0 0.00425071)
(0.0172736 0 0.00429791)
(0.0154717 0 0.00432772)
(0.0136307 0 0.00434758)
(0.0117741 0 0.00435781)
(0.00992641 0 0.00433734)
(0.00809957 0 0.00430614)
(0.00628277 0 0.00430018)
(0.00449003 0 0.00425291)
(0.00272779 0 0.00412399)
(0.00100794 0 0.00399685)
(-0.000677495 0 0.00392135)
(-0.00233145 0 0.0038483)
(-0.00393978 0 0.00370548)
(-0.00548858 0 0.00353178)
(-0.00697151 0 0.00342696)
(-0.00842367 0 0.00336352)
(-0.00984026 0 0.00327875)
(-0.0112042 0 0.00316194)
(-0.0125233 0 0.00300869)
(-0.013788 0 0.00288324)
(-0.0150017 0 0.00278403)
(-0.0161727 0 0.00270547)
(-0.0173044 0 0.00264378)
(-0.0184064 0 0.00255786)
(-0.0194695 0 0.00245123)
(-0.0204898 0 0.0023477)
(-0.0214708 0 0.00224105)
(-0.0223998 0 0.00211337)
(-0.0232796 0 0.00201441)
(-0.0241219 0 0.00193592)
(-0.0249261 0 0.00186476)
(-0.0257006 0 0.00180494)
(-0.0264495 0 0.00172074)
(-0.0271614 0 0.00161562)
(-0.0278352 0 0.00151615)
(-0.0284665 0 0.00142493)
(-0.0290542 0 0.00135645)
(-0.0296086 0 0.00129202)
(-0.0301334 0 0.00122246)
(-0.030633 0 0.00114791)
(-0.031106 0 0.00106524)
(-0.0315455 0 0.000975528)
(-0.0319464 0 0.000895934)
(-0.0323147 0 0.000834962)
(-0.0326598 0 0.000793508)
(-0.0329808 0 0.000743486)
(-0.0332781 0 0.000680956)
(-0.033547 0 0.000603269)
(-0.033784 0 0.000522864)
(-0.0339971 0 0.000467276)
(-0.0341906 0 0.000424501)
(-0.0343629 0 0.00038094)
(-0.0345111 0 0.000331911)
(-0.0346333 0 0.00027398)
(-0.0347336 0 0.000211916)
(-0.0348167 0 0.000169042)
(-0.0348869 0 0.000144984)
(-0.0349423 0 0.000120695)
(-0.0349756 0 6.62336e-05)
(-0.034984 0 -7.75795e-06)
(-0.0349719 0 -5.41842e-05)
(-0.0349463 0 -8.45703e-05)
(-0.0349073 0 -0.000103822)
(-0.0348587 0 -0.000111765)
(-0.0348003 0 -0.000135416)
(-0.0347301 0 -0.000176651)
(-0.0346438 0 -0.000231135)
(-0.0345387 0 -0.000270679)
(-0.0344225 0 -0.000292283)
(-0.0342995 0 -0.000301748)
(-0.0341682 0 -0.000300361)
(-0.0340313 0 -0.000310878)
(-0.0338898 0 -0.000333663)
(-0.0337428 0 -0.000361472)
(-0.0335855 0 -0.000389586)
(-0.0334203 0 -0.00040378)
(-0.0332514 0 -0.000401941)
(-0.0330822 0 -0.000384545)
(-0.0329156 0 -0.000381312)
(-0.0327488 0 -0.000398942)
(-0.032574 0 -0.000415166)
(-0.0323918 0 -0.000425086)
(-0.032209 0 -0.00042959)
(-0.0320278 0 -0.000423173)
(-0.0318521 0 -0.000412233)
(-0.0316836 0 -0.000404643)
(-0.0315192 0 -0.0003952)
(-0.0313538 0 -0.000386074)
(-0.0311855 0 -0.000383474)
(-0.0310133 0 -0.000388755)
(-0.0308431 0 -0.000399219)
(-0.0306778 0 -0.000401749)
(-0.0305149 0 -0.000394041)
(-0.0303557 0 -0.000373969)
(-0.0301996 0 -0.000352594)
(-0.0300425 0 -0.000362851)
(-0.0298807 0 -0.000391883)
(-0.0297159 0 -0.00039582)
(-0.0295533 0 -0.000389343)
(-0.0293954 0 -0.0003821)
(-0.0292357 0 -0.000375362)
(-0.0290706 0 -0.000386402)
(-0.028898 0 -0.000404057)
(-0.0287228 0 -0.00041379)
(-0.0285465 0 -0.000424001)
(-0.0283704 0 -0.000429413)
(-0.0281938 0 -0.000434387)
(-0.0280067 0 -0.000451296)
(-0.0278055 0 -0.000473866)
(-0.0275977 0 -0.000498413)
(-0.0273846 0 -0.00052096)
(-0.0271638 0 -0.000531677)
(-0.0269399 0 -0.000534429)
(-0.0267087 0 -0.000547322)
(-0.026467 0 -0.000579317)
(-0.0262104 0 -0.000625824)
(-0.0259388 0 -0.000657325)
(-0.0256577 0 -0.000681333)
(-0.0253662 0 -0.000707839)
(-0.0250643 0 -0.00073051)
(-0.0247477 0 -0.000751549)
(-0.0244162 0 -0.000783356)
(-0.024072 0 -0.000824483)
(-0.023714 0 -0.000865964)
(-0.0233408 0 -0.00090652)
(-0.0229489 0 -0.000946657)
(-0.0225395 0 -0.000987514)
(-0.0221117 0 -0.00102731)
(-0.0216695 0 -0.00105648)
(-0.0212127 0 -0.0010868)
(-0.0207375 0 -0.00114019)
(-0.0202389 0 -0.00119879)
(-0.0197204 0 -0.00124376)
(-0.0191845 0 -0.00128782)
(-0.0186311 0 -0.00133353)
(-0.0180573 0 -0.0013793)
(-0.0174608 0 -0.00141955)
(-0.0168459 0 -0.00146596)
(-0.0162098 0 -0.00151814)
(-0.0155545 0 -0.00156927)
(-0.0148815 0 -0.00161708)
(-0.0141898 0 -0.00166217)
(-0.0134771 0 -0.0017019)
(-0.0127448 0 -0.00173841)
(-0.0119956 0 -0.00177645)
(-0.011235 0 -0.00181386)
(-0.0104628 0 -0.00185164)
(-0.00967437 0 -0.00188659)
(-0.00887084 0 -0.00190894)
(-0.00805631 0 -0.00192568)
(-0.00723606 0 -0.00194412)
(-0.0064148 0 -0.00195762)
(-0.00558769 0 -0.00196559)
(-0.0047558 0 -0.00196392)
(-0.00392663 0 -0.00195395)
(-0.00310474 0 -0.00193929)
(-0.00229146 0 -0.00192039)
(-0.00148584 0 -0.00189347)
(-0.000691858 0 -0.00185442)
(8.72977e-05 0 -0.00180865)
(0.000847951 0 -0.00176551)
(0.00159032 0 -0.00172513)
(0.00231641 0 -0.0016828)
(0.00302489 0 -0.00163857)
(0.00371518 0 -0.00159404)
(0.00438637 0 -0.00155055)
(0.0050384 0 -0.00150814)
(0.0056721 0 -0.00146617)
(0.006288 0 -0.00142388)
(0.00688641 0 -0.00138071)
(0.00746697 0 -0.00133898)
(0.00802966 0 -0.0012987)
(0.0085742 0 -0.00125765)
(0.00910071 0 -0.00121554)
(0.00960976 0 -0.00117373)
(0.0101018 0 -0.00113396)
(0.0105769 0 -0.00109504)
(0.0110347 0 -0.00105597)
(0.0114752 0 -0.0010152)
(0.0118984 0 -0.00097264)
(0.0123046 0 -0.000932039)
(0.0126936 0 -0.000894062)
(0.0130663 0 -0.000857458)
(0.0134229 0 -0.00081995)
(0.0137631 0 -0.000781917)
(0.0140876 0 -0.000743675)
(0.0143962 0 -0.000705866)
(0.0146886 0 -0.000668875)
(0.0149652 0 -0.000633062)
(0.0152266 0 -0.00059746)
(0.0154723 0 -0.000561377)
(0.0157028 0 -0.000525718)
(0.0159189 0 -0.000491014)
(0.0161206 0 -0.000457309)
(0.0163079 0 -0.000424267)
(0.0164807 0 -0.000391209)
(0.0166394 0 -0.00035758)
(0.0167842 0 -0.000324342)
(0.0169153 0 -0.000292965)
(0.0170331 0 -0.000262662)
(0.0171377 0 -0.000231868)
(0.0172296 0 -0.000201336)
(0.0173087 0 -0.000171573)
(0.0173749 0 -0.00014227)
(0.0174286 0 -0.000113759)
(0.0174705 0 -8.61734e-05)
(0.017501 0 -5.90792e-05)
(0.01752 0 -3.21992e-05)
(0.0175276 0 -6.09342e-06)
(0.0175241 0 1.94483e-05)
(0.0175098 0 4.50675e-05)
(0.017485 0 7.04113e-05)
(0.0174499 0 9.48691e-05)
(0.0174047 0 0.000117787)
(0.0173495 0 0.000139742)
(0.0172846 0 0.000162094)
(0.0172103 0 0.000184686)
(0.0171267 0 0.000206743)
(0.0170338 0 0.000227078)
(0.0169328 0 0.000245974)
(0.0168235 0 0.000264856)
(0.0167064 0 0.000284129)
(0.0165808 0 0.000303142)
(0.0164472 0 0.000321036)
(0.0163059 0 0.000339103)
(0.0161577 0 0.00035764)
(0.0160023 0 0.000375055)
(0.0158396 0 0.00038984)
(0.0156701 0 0.000404152)
(0.0154944 0 0.000418886)
(0.0153119 0 0.000434191)
(0.0151231 0 0.000448553)
(0.0149282 0 0.000463993)
(0.0147273 0 0.000477336)
(0.0145212 0 0.000490014)
(0.014309 0 0.000501987)
(0.0140912 0 0.000516481)
(0.0138686 0 0.000529392)
(0.0136411 0 0.000541849)
(0.0134081 0 0.000551904)
(0.0131694 0 0.000564608)
(0.0129258 0 0.000574232)
(0.0126783 0 0.000586828)
(0.0124258 0 0.000597951)
(0.0121699 0 0.000611431)
(0.0119083 0 0.00062078)
(0.0116415 0 0.000630165)
(0.0113721 0 0.000634767)
(0.0110987 0 0.00064561)
(0.010822 0 0.000651561)
(0.0105431 0 0.000662841)
(0.0102611 0 0.000667836)
(0.0099754 0 0.000674076)
(0.00968855 0 0.000672901)
(0.00939785 0 0.000679333)
(0.00910954 0 0.000682043)
(0.0088195 0 0.000689923)
(0.00853075 0 0.000691201)
(0.00824187 0 0.000693582)
(0.00794947 0 0.000684929)
(0.0076591 0 0.000683101)
(0.00736069 0 0.000686236)
(0.00706881 0 0.000689722)
(0.00678202 0 0.000701963)
(0.0064962 0 0.00069931)
(0.00621269 0 0.000677404)
(0.00592182 0 0.000655356)
(0.00563353 0 0.000646315)
(0.00533673 0 0.000663925)
(0.00503263 0 0.000676473)
(0.00478035 0 0.000690525)
(0.00445843 0 0.000721926)
(0.00423221 0 0.0006099)
(0.00397684 0 0.000596925)
(0.00385367 0 0.000589396)
(0.00360214 0 0.000604034)
(0.00338167 0 0.000529109)
(0.00303887 0 0.000488722)
(0.00276684 0 0.000595026)
(0.00247356 0 0.000638917)
(0.00223162 0 0.000696753)
(0.00195867 0 0.000704453)
(0.00175838 0 0.00063001)
(0.00149112 0 0.000581331)
(0.00125085 0 0.000540344)
(0.000842664 0 0.000490372)
(0.000573889 0 0.000590254)
(0.000301901 0 0.000831543)
(0.000177235 0 0.000910462)
(0.000228037 0 0.000599842)
(0.000229684 0 0.000319614)
(0.000811734 0 -0.000222807)
(0.0010752 0 -0.000170673)
(0.00139054 0 -0.000593367)
(0.00118314 0 -0.000696195)
(0.00107341 0 -0.000577219)
(0.000897654 0 -0.000360963)
(0.000863544 0 -2.55987e-05)
(0.000673438 0 -3.41478e-05)
(0.00069223 0 0.000208353)
(0.000494181 0 6.98072e-05)
(0.00050518 0 0.000328499)
(0.000300232 0 0.00015247)
(0.000315714 0 0.000283146)
(0.000158964 0 0.000158579)
(-4.18228e-05 0 0.000318609)
(2.91592e-05 0 5.40643e-05)
(2.91447e-05 0 0.000597209)
(-0.000439653 0 -3.53842e-05)
(2.17276e-05 0 -9.29826e-05)
(-0.00129268 0 0.000582041)
(0.000545057 0 6.14243e-05)
(-0.00245305 0 0.000897236)
(-0.00058037 0 -0.000570396)
(-0.00175961 0 0.00189645)
(-0.000369084 0 0.00159564)
(-0.000636019 0 -0.000590018)
(-0.000684819 0 -0.00075641)
(-0.000703482 0 -0.000667536)
(-0.000716723 0 -0.000317224)
(-0.000728797 0 -0.000154286)
(-0.000760445 0 -8.35974e-05)
(-0.000787402 0 -4.20216e-05)
(-0.000814921 0 2.67366e-06)
(-0.000843058 0 3.78037e-05)
(-0.000867184 0 3.20177e-05)
(-0.000884805 0 1.49302e-05)
(-0.000900374 0 2.46152e-05)
(-0.000916224 0 2.01691e-05)
(-0.000927946 0 1.1496e-05)
(-0.000934846 0 1.41851e-05)
(-0.00093454 0 -1.24269e-05)
(-0.000926606 0 -3.03635e-05)
(-0.000912975 0 -3.47777e-05)
(-0.000892569 0 -3.48587e-05)
(-0.000865186 0 -6.84281e-05)
(-0.000829998 0 -9.74651e-05)
(-0.000788738 0 -9.9672e-05)
(-0.000742537 0 -9.78705e-05)
(-0.000690692 0 -0.000106784)
(-0.000633159 0 -0.000129442)
(-0.000569257 0 -0.000152828)
(-0.000498298 0 -0.000167333)
(-0.000420171 0 -0.000186216)
(-0.000334256 0 -0.000196381)
(-0.000246186 0 -0.000211508)
(-0.000155511 0 -0.000211023)
(-5.55579e-05 0 -0.000216935)
(5.13263e-05 0 -0.00024546)
(0.000165652 0 -0.000279207)
(0.000287196 0 -0.000307032)
(0.000414404 0 -0.000324992)
(0.000547587 0 -0.000336263)
(0.000687908 0 -0.000345026)
(0.000833949 0 -0.000353976)
(0.00098515 0 -0.000364831)
(0.00114232 0 -0.000377544)
(0.00130406 0 -0.000391539)
(0.00146909 0 -0.00039242)
(0.00163698 0 -0.000410264)
(0.00180978 0 -0.000429896)
(0.00198503 0 -0.000429578)
(0.00216337 0 -0.00042297)
(0.00234575 0 -0.000422866)
(0.00253185 0 -0.000428627)
(0.00272161 0 -0.000438424)
(0.00291448 0 -0.000450945)
(0.00310989 0 -0.000463029)
(0.00330852 0 -0.000473543)
(0.00351083 0 -0.000482193)
(0.00371663 0 -0.000488524)
(0.00392512 0 -0.000492879)
(0.00413572 0 -0.000496691)
(0.00434834 0 -0.000501991)
(0.00456306 0 -0.0005093)
(0.00478053 0 -0.000517149)
(0.0050005 0 -0.000522347)
(0.00522111 0 -0.000522912)
(0.00544179 0 -0.000522251)
(0.00566422 0 -0.000524952)
(0.0058899 0 -0.000531611)
(0.00611815 0 -0.000539823)
(0.00634661 0 -0.000540015)
(0.00657366 0 -0.000539537)
(0.00680446 0 -0.000536475)
(0.00703565 0 -0.000548745)
(0.00727623 0 -0.000544606)