/*--------------------------------*- C++ -*----------------------------------*\
| =========                 |                                                 |
| \\      /  F ield         | OpenFOAM: The Open Source CFD Toolbox           |
|  \\    /   O peration     | Version:  v2006                                 |
|   \\  /    A nd           | Website:  www.openfoam.com                      |
|    \\/     M anipulation  |                                                 |
\*---------------------------------------------------------------------------*/
FoamFile
{
    version     2.0;
    format      ascii;
    class       surfaceScalarField;
    location    "9.8";
    object      alphaPhi0.water;
}
// * * * * * * * * * * * * * * * * * * * * * * * * * * * * * * * * * * * * * //

dimensions      [0 3 -1 0 0 0 0];
oriented        oriented;


internalField   nonuniform List<scalar> 
65390
(
2.37536e-05
5.48001e-06
1.88332e-05
4.92054e-06
1.54832e-05
3.35007e-06
1.55415e-05
-5.82894e-08
1.90178e-05
-3.47629e-06
2.41675e-05
-5.14963e-06
2.96601e-05
-5.49262e-06
3.48212e-05
-5.16113e-06
3.98326e-05
-5.0115e-06
4.50227e-05
-5.19006e-06
4.95724e-05
-4.54992e-06
5.29377e-05
-3.36567e-06
5.5476e-05
-2.53939e-06
5.74029e-05
-1.92951e-06
5.93822e-05
-1.97943e-06
6.15061e-05
-2.12391e-06
6.34666e-05
-1.96595e-06
6.53516e-05
-1.92679e-06
6.74934e-05
-2.14124e-06
6.92598e-05
-1.76703e-06
6.95723e-05
-3.1195e-07
6.83962e-05
1.2034e-06
6.63988e-05
2.02279e-06
6.38782e-05
2.52415e-06
6.03324e-05
3.54578e-06
5.56339e-05
4.69859e-06
5.12559e-05
4.37795e-06
4.80999e-05
3.15608e-06
4.65173e-05
1.58263e-06
4.61159e-05
4.01349e-07
4.58873e-05
2.28641e-07
4.53946e-05
4.92741e-07
4.38101e-05
1.58451e-06
4.10611e-05
2.74914e-06
3.81922e-05
2.86909e-06
3.37372e-05
4.45507e-06
2.78541e-05
5.88316e-06
2.26399e-05
5.21432e-06
1.83476e-05
4.29059e-06
1.48695e-05
3.47575e-06
1.29004e-05
1.97129e-06
1.16402e-05
1.26013e-06
1.02868e-05
1.35369e-06
7.99625e-06
2.28788e-06
5.43409e-06
2.562e-06
4.14247e-06
1.29307e-06
3.69054e-06
4.52298e-07
3.32315e-06
3.67575e-07
2.35778e-06
9.64694e-07
5.32825e-07
1.82453e-06
-1.0441e-06
1.5769e-06
-1.73728e-06
6.93185e-07
-1.59905e-06
-1.38171e-07
-1.11301e-06
-4.86008e-07
-4.43917e-07
-6.69066e-07
3.03942e-07
-7.47837e-07
1.02842e-06
-7.24439e-07
1.54839e-06
-5.19917e-07
1.79566e-06
-2.47207e-07
1.51283e-06
2.82886e-07
6.451e-07
8.67697e-07
-6.3527e-07
1.28027e-06
-2.03571e-06
1.40098e-06
-3.23171e-06
1.19503e-06
-4.0927e-06
8.60848e-07
-4.70242e-06
6.09726e-07
-4.98296e-06
2.80539e-07
-4.72828e-06
-2.54682e-07
-3.8485e-06
-8.79783e-07
-2.50217e-06
-1.34634e-06
-8.87142e-07
-1.61503e-06
6.6437e-07
-1.55147e-06
1.91048e-06
-1.24587e-06
2.9499e-06
-1.03903e-06
3.9709e-06
-1.02075e-06
5.24811e-06
-1.27696e-06
6.75166e-06
-1.5062e-06
7.61633e-06
-8.64677e-07
7.98502e-06
-3.68688e-07
8.20101e-06
-2.15997e-07
7.78485e-06
4.16694e-07
7.06776e-06
7.16111e-07
6.33921e-06
7.28556e-07
5.75575e-06
5.83459e-07
5.24111e-06
5.14646e-07
4.69319e-06
5.48855e-07
4.19263e-06
5.01624e-07
3.90659e-06
2.8623e-07
3.8038e-06
1.02785e-07
3.70823e-06
9.55577e-08
3.6479e-06
6.02982e-08
3.61785e-06
3.00187e-08
3.51456e-06
1.03264e-07
3.37665e-06
1.37758e-07
3.10204e-06
2.73632e-07
2.78155e-06
3.20749e-07
2.34447e-06
4.37171e-07
1.8791e-06
4.65683e-07
8.37137e-07
1.04203e-06
-8.92013e-07
1.72914e-06
-2.49624e-06
1.60422e-06
-3.33489e-06
8.38648e-07
-3.4125e-06
7.76014e-08
-3.42308e-06
1.0794e-08
-3.03062e-06
-3.91769e-07
-2.54889e-06
-4.81688e-07
-2.26792e-06
-2.81e-07
-2.22366e-06
-4.42217e-08
-2.14256e-06
-8.10609e-08
-1.85564e-06
-2.87555e-07
-1.59775e-06
-2.58127e-07
-1.26264e-06
-3.35143e-07
-9.39701e-07
-3.22954e-07
-6.65153e-07
-2.74349e-07
-5.96304e-07
-6.88805e-08
-5.94661e-07
-1.68872e-09
-9.95372e-07
4.00555e-07
-1.58017e-06
5.84804e-07
-1.85154e-06
2.71476e-07
-1.70865e-06
-1.42726e-07
-1.31312e-06
-3.95516e-07
-1.00209e-06
-3.11028e-07
-4.93789e-07
-5.0841e-07
6.55103e-08
-5.59295e-07
4.78232e-07
-4.12722e-07
8.59319e-07
-3.81245e-07
1.23418e-06
-3.7482e-07
1.59151e-06
-3.57078e-07
1.99259e-06
-4.00976e-07
2.41697e-06
-4.24442e-07
2.82129e-06
-4.04408e-07
3.21646e-06
-3.95311e-07
3.58184e-06
-3.66397e-07
3.94102e-06
-3.59002e-07
4.31108e-06
-3.69354e-07
4.69603e-06
-3.84721e-07
5.08551e-06
-3.89472e-07
5.46476e-06
-3.79229e-07
5.83666e-06
-3.7186e-07
6.20294e-06
-3.66203e-07
6.56497e-06
-3.61939e-07
6.91957e-06
-3.54612e-07
7.25362e-06
-3.35724e-07
7.57314e-06
-3.19407e-07
7.88332e-06
-3.10059e-07
8.19076e-06
-3.0539e-07
8.49423e-06
-3.03319e-07
8.78702e-06
-2.92814e-07
9.05773e-06
-2.7159e-07
9.30728e-06
-2.49745e-07
9.55265e-06
-2.44674e-07
9.79588e-06
-2.4299e-07
1.00272e-05
-2.31628e-07
1.02416e-05
-2.14748e-07
1.04384e-05
-1.97932e-07
1.06218e-05
-1.84034e-07
1.07944e-05
-1.72096e-07
1.09562e-05
-1.61111e-07
1.11028e-05
-1.46586e-07
1.12336e-05
-1.30848e-07
1.13497e-05
-1.16157e-07
1.14523e-05
-1.02723e-07
1.1541e-05
-8.88798e-08
1.16155e-05
-7.44249e-08
1.16712e-05
-5.51207e-08
1.17056e-05
-3.38244e-08
1.17253e-05
-1.93644e-08
1.17331e-05
-7.63636e-09
1.17246e-05
8.81239e-09
1.16898e-05
3.46863e-08
1.16301e-05
5.94814e-08
1.15579e-05
7.27226e-08
1.14723e-05
8.59167e-08
1.13696e-05
1.02671e-07
1.12452e-05
1.2377e-07
1.10878e-05
1.56172e-07
1.08996e-05
1.87624e-07
1.06917e-05
2.09266e-07
1.04667e-05
2.25235e-07
1.02277e-05
2.38752e-07
9.96731e-06
2.59705e-07
9.6819e-06
2.84561e-07
9.37206e-06
3.09475e-07
9.02964e-06
3.42655e-07
8.66092e-06
3.68888e-07
8.27984e-06
3.81014e-07
7.8887e-06
3.91076e-07
7.47664e-06
4.10714e-07
7.03995e-06
4.36804e-07
6.58242e-06
4.57689e-07
6.11274e-06
4.70367e-07
5.64038e-06
4.72674e-07
5.16746e-06
4.72984e-07
4.69244e-06
4.75155e-07
4.21262e-06
4.79868e-07
3.72036e-06
4.91888e-07
3.22034e-06
5.00147e-07
2.72245e-06
4.97982e-07
2.23971e-06
4.8308e-07
1.77674e-06
4.63191e-07
1.32448e-06
4.52386e-07
8.78328e-07
4.46211e-07
4.39744e-07
4.38561e-07
1.26926e-08
4.27023e-07
-3.96434e-07
4.09081e-07
-7.85494e-07
3.89013e-07
-1.16127e-06
3.7579e-07
-1.5303e-06
3.69103e-07
-1.8937e-06
3.63536e-07
-2.23852e-06
3.44505e-07
-2.55881e-06
3.20264e-07
-2.86615e-06
3.07373e-07
-3.1632e-06
2.97117e-07
-3.45202e-06
2.8905e-07
-3.73773e-06
2.85891e-07
-4.01523e-06
2.77559e-07
-4.27784e-06
2.62225e-07
-4.52031e-06
2.42399e-07
-4.74847e-06
2.2813e-07
-4.96669e-06
2.18193e-07
-5.17595e-06
2.0945e-07
-5.38039e-06
2.04814e-07
-5.57928e-06
1.98937e-07
-5.768e-06
1.88259e-07
-5.94227e-06
1.74139e-07
-6.10173e-06
1.59471e-07
-6.25076e-06
1.49036e-07
-6.39122e-06
1.40657e-07
-6.52701e-06
1.35918e-07
-6.65902e-06
1.32152e-07
-6.78235e-06
1.23377e-07
-6.89507e-06
1.12234e-07
-6.9942e-06
9.90972e-08
-7.08341e-06
8.93762e-08
-7.16671e-06
8.33646e-08
-7.24434e-06
7.76957e-08
-7.31618e-06
7.17747e-08
-7.38173e-06
6.55588e-08
-7.44221e-06
6.05039e-08
-7.49687e-06
5.4998e-08
-7.54549e-06
4.85821e-08
-7.58583e-06
3.9861e-08
-7.61677e-06
3.0869e-08
-7.64251e-06
2.5713e-08
-7.66427e-06
2.17515e-08
-7.68348e-06
1.9522e-08
-7.70169e-06
1.88325e-08
-7.7165e-06
1.39357e-08
-7.71948e-06
2.9116e-09
-7.7166e-06
-2.87941e-09
-7.71129e-06
-5.27297e-09
-7.70341e-06
-7.66451e-09
-7.69464e-06
-8.50011e-09
-7.68416e-06
-1.05047e-08
-7.66878e-06
-1.57352e-08
-7.64765e-06
-2.12188e-08
-7.62254e-06
-2.51345e-08
-7.59573e-06
-2.68173e-08
-7.56734e-06
-2.82318e-08
-7.53648e-06
-3.08474e-08
-7.50246e-06
-3.40299e-08
-7.46485e-06
-3.77707e-08
-7.42302e-06
-4.18369e-08
-7.37877e-06
-4.42065e-08
-7.33451e-06
-4.41576e-08
-7.29099e-06
-4.33371e-08
-7.24651e-06
-4.45044e-08
-7.19643e-06
-5.02083e-08
-7.14074e-06
-5.56708e-08
-7.08314e-06
-5.75694e-08
-7.0242e-06
-5.89144e-08
-6.96342e-06
-6.07459e-08
-6.90194e-06
-6.13666e-08
-6.8409e-06
-6.095e-08
-6.77894e-06
-6.19625e-08
-6.71343e-06
-6.57049e-08
-6.64346e-06
-6.99763e-08
-6.57103e-06
-7.24297e-08
-6.49689e-06
-7.41346e-08
-6.42048e-06
-7.64059e-08
-6.34197e-06
-7.84885e-08
-6.26314e-06
-7.87437e-08
-6.18527e-06
-7.7772e-08
-6.10558e-06
-7.98635e-08
-6.02008e-06
-8.55108e-08
-5.93134e-06
-8.87518e-08
-5.84148e-06
-8.9862e-08
-5.74984e-06
-9.16408e-08
-5.65583e-06
-9.39728e-08
-5.5605e-06
-9.51742e-08
-5.46497e-06
-9.55288e-08
-5.36707e-06
-9.79324e-08
-5.26526e-06
-1.01869e-07
-5.15984e-06
-1.05413e-07
-5.05196e-06
-1.07885e-07
-4.9414e-06
-1.10544e-07
-4.82883e-06
-1.1246e-07
-4.71554e-06
-1.13304e-07
-4.60006e-06
-1.15529e-07
-4.48153e-06
-1.18549e-07
-4.35965e-06
-1.2189e-07
-4.23423e-06
-1.25412e-07
-4.10645e-06
-1.2772e-07
-3.97843e-06
-1.28028e-07
-3.84918e-06
-1.29248e-07
-3.71761e-06
-1.31593e-07
-3.58335e-06
-1.34263e-07
-3.4477e-06
-1.35662e-07
-3.31237e-06
-1.35335e-07
-3.17718e-06
-1.35221e-07
-3.04167e-06
-1.35524e-07
-2.90612e-06
-1.35572e-07
-2.77191e-06
-1.3421e-07
-2.64053e-06
-1.31379e-07
-2.51247e-06
-1.28068e-07
-2.38768e-06
-1.24806e-07
-2.26598e-06
-1.21715e-07
-2.14759e-06
-1.18402e-07
-2.03312e-06
-1.14486e-07
-1.92309e-06
-1.10038e-07
-1.81773e-06
-1.05376e-07
-1.71718e-06
-1.00559e-07
-1.6213e-06
-9.58892e-08
-1.5301e-06
-9.12019e-08
-1.44367e-06
-8.64321e-08
-1.36188e-06
-8.17812e-08
-1.28445e-06
-7.74186e-08
-1.21121e-06
-7.32358e-08
-1.14232e-06
-6.88832e-08
-1.07777e-06
-6.45518e-08
-1.01704e-06
-6.0735e-08
-9.59645e-07
-5.74052e-08
-9.05275e-07
-5.43785e-08
-8.54012e-07
-5.12658e-08
-8.05944e-07
-4.80679e-08
-7.61066e-07
-4.48802e-08
-7.18816e-07
-4.22589e-08
-6.78617e-07
-4.02141e-08
-6.39915e-07
-3.87198e-08
-6.02687e-07
-3.72443e-08
-5.66834e-07
-3.58629e-08
-5.32165e-07
-3.4671e-08
-4.98469e-07
-3.36923e-08
-4.65546e-07
-3.29164e-08
-4.33155e-07
-3.23867e-08
-4.00956e-07
-3.21981e-08
-3.68642e-07
-3.23185e-08
-3.36097e-07
-3.25516e-08
-3.03186e-07
-3.29177e-08
-2.69779e-07
-3.34106e-08
-2.35752e-07
-3.40287e-08
-2.00995e-07
-3.47557e-08
-1.65394e-07
-3.55981e-08
-1.28648e-07
-3.67408e-08
-9.05836e-08
-3.80552e-08
-5.11339e-08
-3.94387e-08
-1.02757e-08
-4.08482e-08
3.19394e-08
-4.22103e-08
7.55466e-08
-4.36094e-08
1.20679e-07
-4.5139e-08
1.67395e-07
-4.67214e-08
2.15713e-07
-4.83157e-08
2.65622e-07
-4.98986e-08
3.17128e-07
-5.14935e-08
3.70063e-07
-5.29293e-08
4.24057e-07
-5.40034e-08
4.7912e-07
-5.50889e-08
5.35558e-07
-5.64659e-08
5.93645e-07
-5.81152e-08
6.53197e-07
-5.95673e-08
7.13585e-07
-6.03923e-08
7.74458e-07
-6.08727e-08
8.36221e-07
-6.17668e-08
8.9905e-07
-6.28445e-08
9.62884e-07
-6.38606e-08
1.02743e-06
-6.45722e-08
1.09228e-06
-6.48794e-08
1.15743e-06
-6.51611e-08
1.22261e-06
-6.51688e-08
1.2874e-06
-6.47732e-08
1.35213e-06
-6.4721e-08
1.41741e-06
-6.52561e-08
1.48291e-06
-6.55088e-08
1.54805e-06
-6.51514e-08
1.61261e-06
-6.45705e-08
1.67654e-06
-6.39456e-08
1.73962e-06
-6.30911e-08
1.80206e-06
-6.24432e-08
1.864e-06
-6.19385e-08
1.925e-06
-6.09909e-08
1.98466e-06
-5.96518e-08
2.04309e-06
-5.84234e-08
2.10065e-06
-5.75366e-08
2.15725e-06
-5.65885e-08
2.21258e-06
-5.53137e-08
2.26659e-06
-5.40229e-08
2.31931e-06
-5.2726e-08
2.37025e-06
-5.09618e-08
2.41935e-06
-4.90979e-08
2.46689e-06
-4.75445e-08
2.5129e-06
-4.60091e-08
2.55771e-06
-4.48003e-08
2.60118e-06
-4.34626e-08
2.64339e-06
-4.22014e-08
2.68319e-06
-3.98033e-08
2.72017e-06
-3.69685e-08
2.75572e-06
-3.55424e-08
2.79091e-06
-3.51703e-08
2.82441e-06
-3.34857e-08
2.85569e-06
-3.12477e-08
2.88435e-06
-2.86376e-08
2.91066e-06
-2.62763e-08
2.93638e-06
-2.56945e-08
2.96039e-06
-2.39905e-08
2.98299e-06
-2.26029e-08
3.00261e-06
-1.96226e-08
3.02026e-06
-1.76532e-08
3.03637e-06
-1.61206e-08
3.05072e-06
-1.43571e-08
3.06401e-06
-1.32998e-08
3.07688e-06
-1.28711e-08
3.08362e-06
-6.74433e-09
3.08931e-06
-5.69619e-09
3.08618e-06
3.12172e-09
3.07976e-06
6.42914e-09
3.09306e-06
-1.32937e-08
3.0992e-06
-6.13361e-09
3.10326e-06
-4.04444e-09
3.10829e-06
-5.02913e-09
3.12641e-06
-1.81098e-08
3.14893e-06
-2.25152e-08
3.15617e-06
-7.23733e-09
3.16705e-06
-1.08738e-08
3.17323e-06
-6.17792e-09
3.17773e-06
-4.49635e-09
3.17621e-06
1.51784e-09
3.1709e-06
5.31185e-09
3.16256e-06
8.34771e-09
3.1553e-06
7.26961e-09
3.14641e-06
8.88995e-09
3.13885e-06
7.57083e-09
3.1374e-06
1.44454e-09
3.12105e-06
1.63456e-08
3.09405e-06
2.69988e-08
3.08355e-06
1.05043e-08
3.05732e-06
2.6235e-08
3.01636e-06
4.0968e-08
2.97015e-06
4.61998e-08
2.99293e-06
-2.27666e-08
3.07033e-06
-7.73899e-08
3.11483e-06
-4.45008e-08
3.14329e-06
-2.84678e-08
3.14467e-06
-1.37776e-09
3.14219e-06
2.48074e-09
3.1195e-06
2.26986e-08
3.09545e-06
2.40649e-08
3.04801e-06
4.74611e-08
3.00673e-06
4.12894e-08
2.97294e-06
3.38083e-08
2.93285e-06
4.01007e-08
2.89502e-06
3.78476e-08
2.86363e-06
3.14129e-08
2.72945e-06
1.34208e-07
2.60632e-06
1.23147e-07
2.52581e-06
8.05239e-08
2.36e-06
1.65801e-07
2.40377e-06
-4.38311e-08
2.3718e-06
3.17915e-08
2.79908e-06
-4.27564e-07
3.5423e-06
-7.43741e-07
4.27207e-06
-7.30695e-07
4.91874e-06
-6.47514e-07
5.49658e-06
-5.78613e-07
5.96295e-06
-4.6711e-07
6.30825e-06
-3.46112e-07
6.53404e-06
-2.26373e-07
6.68555e-06
-1.52052e-07
6.79523e-06
-1.10075e-07
6.8845e-06
-8.96891e-08
6.93755e-06
-5.35448e-08
6.95581e-06
-1.87202e-08
6.95856e-06
-3.01161e-09
6.94941e-06
8.91828e-09
6.93885e-06
1.03656e-08
6.92347e-06
1.51688e-08
6.89164e-06
3.15703e-08
6.84466e-06
4.67795e-08
6.79309e-06
5.14012e-08
6.73874e-06
5.4247e-08
6.67996e-06
5.87156e-08
6.61457e-06
6.52893e-08
6.54899e-06
6.54819e-08
6.48487e-06
6.40278e-08
6.41511e-06
6.96475e-08
6.33359e-06
8.13973e-08
6.24523e-06
8.82569e-08
6.15319e-06
9.19478e-08
6.06263e-06
9.04907e-08
5.97189e-06
9.06746e-08
5.87912e-06
9.27219e-08
5.78621e-06
9.28653e-08
5.6909e-06
9.52853e-08
5.58918e-06
1.01683e-07
5.4796e-06
1.09527e-07
5.36805e-06
1.1151e-07
5.26063e-06
1.0737e-07
5.16047e-06
1.00125e-07
5.06597e-06
9.44722e-08
4.97164e-06
9.42958e-08
4.87552e-06
9.60775e-08
4.77594e-06
9.95479e-08
4.67657e-06
9.93339e-08
4.57861e-06
9.7932e-08
4.48019e-06
9.83979e-08
4.38321e-06
9.69829e-08
4.28945e-06
9.37652e-08
4.19848e-06
9.09845e-08
4.10783e-06
9.06671e-08
4.01545e-06
9.23738e-08
3.92052e-06
9.49079e-08
3.82373e-06
9.67463e-08
3.72749e-06
9.61895e-08
3.63325e-06
9.4173e-08
3.54282e-06
9.0372e-08
3.45626e-06
8.64969e-08
3.37267e-06
8.35206e-08
3.29178e-06
8.08131e-08
3.21323e-06
7.84559e-08
3.13644e-06
7.66816e-08
3.0619e-06
7.44209e-08
2.99018e-06
7.15781e-08
2.92228e-06
6.77456e-08
2.85705e-06
6.50411e-08
2.79411e-06
6.27471e-08
2.73217e-06
6.17165e-08
2.67233e-06
5.96096e-08
2.61424e-06
5.78343e-08
2.5602e-06
5.3762e-08
2.50929e-06
5.06126e-08
2.45947e-06
4.95045e-08
2.4113e-06
4.78351e-08
2.36408e-06
4.68809e-08
2.31812e-06
4.56064e-08
2.2741e-06
4.36396e-08
2.23271e-06
4.10026e-08
2.19906e-06
3.32453e-08
2.17267e-06
2.60159e-08
2.15654e-06
1.57796e-08
2.14593e-06
1.02904e-08
-6.42894e-09
2.7522e-05
7.2306e-06
2.56674e-05
6.77515e-06
2.38406e-05
5.17692e-06
2.30969e-05
6.85591e-07
2.53051e-05
-5.68429e-06
2.9217e-05
-9.06133e-06
3.33607e-05
-9.63631e-06
3.74648e-05
-9.26524e-06
4.14593e-05
-9.00606e-06
4.4889e-05
-8.62021e-06
4.71434e-05
-6.80642e-06
4.8107e-05
-4.33358e-06
4.87186e-05
-3.15711e-06
4.95405e-05
-2.77577e-06
5.0762e-05
-3.19908e-06
5.28966e-05
-4.26034e-06
5.55713e-05
-4.63879e-06
5.83908e-05
-4.7241e-06
6.08042e-05
-4.54597e-06
6.25186e-05
-3.48109e-06
6.28889e-05
-6.81675e-07
6.18806e-05
2.21357e-06
5.9851e-05
4.05437e-06
5.66675e-05
5.70823e-06
5.31235e-05
7.08962e-06
5.00089e-05
7.81306e-06
4.77019e-05
6.68483e-06
4.72273e-05
3.63044e-06
4.74633e-05
1.3462e-06
4.75128e-05
3.51431e-07
4.73122e-05
4.28789e-07
4.6251e-05
1.55385e-06
4.39477e-05
3.8878e-06
4.06278e-05
6.06875e-06
3.62371e-05
7.25951e-06
3.17188e-05
8.97311e-06
2.74076e-05
1.01941e-05
2.33719e-05
9.24974e-06
1.9312e-05
8.34808e-06
1.59838e-05
6.80125e-06
1.37598e-05
4.19672e-06
1.19336e-05
3.08659e-06
1.00707e-05
3.21563e-06
8.05662e-06
4.29594e-06
6.20618e-06
4.41234e-06
4.70032e-06
2.80157e-06
3.85559e-06
1.29675e-06
3.14301e-06
1.07999e-06
2.34215e-06
1.76398e-06
1.32099e-06
2.84593e-06
1.50686e-07
2.74652e-06
-8.72048e-07
1.71566e-06
-1.18947e-06
1.79137e-07
-9.73127e-07
-7.02431e-07
-5.98441e-07
-1.04381e-06
-2.43384e-07
-1.10295e-06
-1.36505e-07
-8.31306e-07
-5.40122e-07
-1.16325e-07
-1.10804e-06
3.20653e-07
-1.49777e-06
6.72699e-07
-1.47472e-06
8.4449e-07
-1.03512e-06
8.4048e-07
-6.9542e-07
1.0611e-06
-1.10397e-06
1.60293e-06
-2.06264e-06
1.81834e-06
-3.1163e-06
1.66304e-06
-4.01552e-06
1.17971e-06
-4.45216e-06
1.81969e-07
-4.17019e-06
-1.16171e-06
-3.46221e-06
-2.05429e-06
-2.58847e-06
-2.48868e-06
-1.745e-06
-2.39434e-06
-1.40519e-06
-1.58522e-06
-1.34312e-06
-1.1011e-06
-1.21791e-06
-1.14597e-06
-7.42477e-07
-1.75322e-06
1.11816e-07
-2.36107e-06
1.67091e-06
-2.42401e-06
3.40603e-06
-2.10418e-06
5.22716e-06
-2.03739e-06
6.66574e-06
-1.0219e-06
7.62244e-06
-2.40507e-07
8.04164e-06
3.09385e-07
7.71057e-06
9.13211e-07
7.19123e-06
1.03297e-06
6.55561e-06
1.18591e-06
5.81906e-06
1.23925e-06
5.17035e-06
9.35041e-07
4.70602e-06
5.6714e-07
4.23558e-06
5.65998e-07
3.90183e-06
3.94045e-07
3.81273e-06
1.19102e-07
3.75208e-06
1.63895e-07
3.63117e-06
2.58548e-07
3.54537e-06
3.58625e-07
3.38691e-06
4.78964e-07
3.29556e-06
5.29075e-07
3.17702e-06
5.84652e-07
3.3619e-06
8.57171e-07
3.39384e-06
1.69706e-06
3.21642e-06
1.78153e-06
2.27584e-06
1.77919e-06
4.97032e-07
1.85637e-06
-1.08276e-06
1.59064e-06
-2.27259e-06
7.982e-07
-2.88472e-06
1.30397e-07
-3.0527e-06
-1.12974e-07
-3.05748e-06
-3.94833e-08
-2.56306e-06
-5.7621e-07
-1.80784e-06
-1.04327e-06
-1.33122e-06
-7.34836e-07
-1.02835e-06
-6.38051e-07
-7.7979e-07
-5.71538e-07
-6.22995e-07
-4.31007e-07
-3.46076e-07
-3.45729e-07
-2.8316e-08
-3.19443e-07
4.35777e-07
-6.35503e-08
7.67368e-07
2.53274e-07
9.17103e-07
1.21768e-07
5.75248e-07
1.99138e-07
-4.61469e-08
2.25838e-07
-3.47489e-07
-9.72182e-09
-3.52197e-07
-5.03723e-07
-1.41205e-07
-7.70322e-07
1.29264e-07
-6.83242e-07
6.31873e-07
-8.83963e-07
1.19915e-06
-9.42139e-07
1.62442e-06
-7.82308e-07
2.02347e-06
-8.00035e-07
2.39819e-06
-7.99103e-07
2.75099e-06
-7.57392e-07
3.13066e-06
-7.75286e-07
3.52574e-06
-7.62337e-07
3.91787e-06
-7.5097e-07
4.30409e-06
-7.55154e-07
4.68846e-06
-7.6861e-07
5.07175e-06
-7.72644e-07
5.44176e-06
-7.49158e-07
5.80849e-06
-7.38354e-07
6.17505e-06
-7.32522e-07
6.53899e-06
-7.25739e-07
6.89496e-06
-7.10598e-07
7.2354e-06
-6.77648e-07
7.56376e-06
-6.47662e-07
7.88249e-06
-6.28691e-07
8.1935e-06
-6.1629e-07
8.49753e-06
-6.05763e-07
8.78509e-06
-5.80347e-07
9.054e-06
-5.42264e-07
9.31343e-06
-5.09134e-07
9.56466e-06
-4.95522e-07
9.80893e-06
-4.86539e-07
1.00374e-05
-4.60415e-07
1.02465e-05
-4.24146e-07
1.04431e-05
-3.96101e-07
1.06331e-05
-3.7469e-07
1.08119e-05
-3.51241e-07
1.09759e-05
-3.24119e-07
1.11198e-05
-2.89924e-07
1.1247e-05
-2.57938e-07
1.13611e-05
-2.30355e-07
1.14644e-05
-2.05918e-07
1.15554e-05
-1.79293e-07
1.16309e-05
-1.4965e-07
1.16866e-05
-1.10948e-07
1.17198e-05
-6.69971e-08
1.17383e-05
-3.69693e-08
1.17447e-05
-1.33229e-08
1.1733e-05
2.05599e-08
1.16965e-05
6.99759e-08
1.16403e-05
1.15914e-07
1.15668e-05
1.47029e-07
1.14766e-05
1.76287e-07
1.13678e-05
2.11419e-07
1.12386e-05
2.52559e-07
1.10826e-05
3.09482e-07
1.09011e-05
3.6865e-07
1.06939e-05
4.16404e-07
1.04649e-05
4.55457e-07
1.02199e-05
4.84168e-07
9.95595e-06
5.23467e-07
9.67078e-06
5.69505e-07
9.36182e-06
6.1788e-07
9.02142e-06
6.81778e-07
8.65481e-06
7.35524e-07
8.27008e-06
7.66914e-07
7.87187e-06
7.89275e-07
7.46162e-06
8.20889e-07
7.0361e-06
8.6217e-07
6.59301e-06
9.01017e-07
6.13139e-06
9.32178e-07
5.6573e-06
9.47789e-07
5.1787e-06
9.52011e-07
4.70005e-06
9.53973e-07
4.21851e-06
9.6134e-07
3.7331e-06
9.77258e-07
3.24533e-06
9.87946e-07
2.75886e-06
9.84542e-07
2.28115e-06
9.61119e-07
1.81331e-06
9.31075e-07
1.35589e-06
9.09727e-07
9.06853e-07
8.95071e-07
4.68398e-07
8.76934e-07
4.45898e-08
8.50783e-07
-3.63685e-07
8.17313e-07
-7.59136e-07
7.84461e-07
-1.14393e-06
7.60606e-07
-1.51814e-06
7.43451e-07
-1.87833e-06
7.23746e-07
-2.22139e-06
6.87476e-07
-2.54781e-06
6.46737e-07
-2.86158e-06
6.21231e-07
-3.16425e-06
5.99907e-07
-3.4566e-06
5.81651e-07
-3.74007e-06
5.6963e-07
-4.01327e-06
5.5081e-07
-4.27481e-06
5.23477e-07
-4.52159e-06
4.88948e-07
-4.75457e-06
4.61095e-07
-4.977e-06
4.40684e-07
-5.18915e-06
4.21906e-07
-5.3919e-06
4.07947e-07
-5.58629e-06
3.93369e-07
-5.7717e-06
3.73716e-07
-5.9481e-06
3.49928e-07
-6.11162e-06
3.22924e-07
-6.26391e-06
3.01336e-07
-6.40695e-06
2.83929e-07
-6.54237e-06
2.71688e-07
-6.6716e-06
2.6154e-07
-6.79224e-06
2.44094e-07
-6.902e-06
2.22013e-07
-7.002e-06
1.98501e-07
-7.09314e-06
1.80592e-07
-7.17678e-06
1.67137e-07
-7.25463e-06
1.55669e-07
-7.32801e-06
1.45327e-07
-7.3957e-06
1.33678e-07
-7.45601e-06
1.21228e-07
-7.50819e-06
1.07213e-07
-7.5515e-06
9.18614e-08
-7.58986e-06
7.73235e-08
-7.6229e-06
6.37643e-08
-7.65135e-06
5.41262e-08
-7.67529e-06
4.58089e-08
-7.695e-06
3.97886e-08
-7.71007e-06
3.39336e-08
-7.71964e-06
2.29867e-08
-7.72327e-06
6.34068e-09
-7.72247e-06
-3.68172e-09
-7.7191e-06
-8.58892e-09
-7.71295e-06
-1.35565e-08
-7.70304e-06
-1.81633e-08
-7.68892e-06
-2.45984e-08
-7.67006e-06
-3.4627e-08
-7.64871e-06
-4.31457e-08
-7.62512e-06
-4.88273e-08
-7.60057e-06
-5.13767e-08
-7.57385e-06
-5.48964e-08
-7.54159e-06
-6.29918e-08
-7.50503e-06
-7.05755e-08
-7.46633e-06
-7.66348e-08
-7.42555e-06
-8.26026e-08
-7.38261e-06
-8.69422e-08
-7.33858e-06
-8.78362e-08
-7.29371e-06
-8.81631e-08
-7.2463e-06
-9.19146e-08
-7.19553e-06
-1.01346e-07
-7.14085e-06
-1.10357e-07
-7.08417e-06
-1.1422e-07
-7.02625e-06
-1.16805e-07
-6.96695e-06
-1.19962e-07
-6.90549e-06
-1.22629e-07
-6.84176e-06
-1.24681e-07
-6.77608e-06
-1.27641e-07
-6.70926e-06
-1.32766e-07
-6.64065e-06
-1.3868e-07
-6.56965e-06
-1.4344e-07
-6.49629e-06
-1.47496e-07
-6.4202e-06
-1.52486e-07
-6.34196e-06
-1.56689e-07
-6.26276e-06
-1.57743e-07
-6.18274e-06
-1.57793e-07
-6.10057e-06
-1.62183e-07
-6.015e-06
-1.7119e-07
-5.92678e-06
-1.76975e-07
-5.83764e-06
-1.79013e-07
-5.74717e-06
-1.82098e-07
-5.65389e-06
-1.87199e-07
-5.55764e-06
-1.91303e-07
-5.4594e-06
-1.93766e-07
-5.3587e-06
-1.98627e-07
-5.25592e-06
-2.04761e-07
-5.1517e-06
-2.09668e-07
-5.04547e-06
-2.14112e-07
-4.93599e-06
-2.2001e-07
-4.82258e-06
-2.25812e-07
-4.70619e-06
-2.29688e-07
-4.58812e-06
-2.33605e-07
-4.46976e-06
-2.36973e-07
-4.34962e-06
-2.42057e-07
-4.22568e-06
-2.49358e-07
-4.09783e-06
-2.55545e-07
-3.96795e-06
-2.57902e-07
-3.83787e-06
-2.59391e-07
-3.70771e-06
-2.61754e-07
-3.57527e-06
-2.66706e-07
-3.43998e-06
-2.7096e-07
-3.30387e-06
-2.71446e-07
-3.1688e-06
-2.70315e-07
-3.03518e-06
-2.69172e-07
-2.90172e-06
-2.69052e-07
-2.76872e-06
-2.6723e-07
-2.63749e-06
-2.62641e-07
-2.50951e-06
-2.56081e-07
-2.38587e-06
-2.48491e-07
-2.26563e-06
-2.41988e-07
-2.14797e-06
-2.36095e-07
-2.03369e-06
-2.28785e-07
-1.92371e-06
-2.20049e-07
-1.8184e-06
-2.10702e-07
-1.71804e-06
-2.00926e-07
-1.62237e-06
-1.91574e-07
-1.53122e-06
-1.8236e-07
-1.4445e-06
-1.73155e-07
-1.36228e-06
-1.64004e-07
-1.28457e-06
-1.55139e-07
-1.21134e-06
-1.46466e-07
-1.14255e-06
-1.3768e-07
-1.07788e-06
-1.29218e-07
-1.01699e-06
-1.21632e-07
-9.59528e-07
-1.14883e-07
-9.05342e-07
-1.08585e-07
-8.54402e-07
-1.02235e-07
-8.0655e-07
-9.59529e-08
-7.61631e-07
-8.98344e-08
-7.19365e-07
-8.45585e-08
-6.79476e-07
-8.01299e-08
-6.41084e-07
-7.71348e-08
-6.03938e-07
-7.44084e-08
-5.68079e-07
-7.17411e-08
-5.33462e-07
-6.93108e-08
-4.99971e-07
-6.72105e-08
-4.67496e-07
-6.54202e-08
-4.35827e-07
-6.40829e-08
-4.04373e-07
-6.36749e-08
-3.72561e-07
-6.41475e-08
-3.40324e-07
-6.48003e-08
-3.07611e-07
-6.56383e-08
-2.74336e-07
-6.66895e-08
-2.40417e-07
-6.79481e-08
-2.05755e-07
-6.94156e-08
-1.70234e-07
-7.11169e-08
-1.33559e-07
-7.3414e-08
-9.55785e-08
-7.60349e-08
-5.62255e-08
-7.87915e-08
-1.54624e-08
-8.16098e-08
2.659e-08
-8.42593e-08
6.99693e-08
-8.69848e-08
1.14944e-07
-9.01132e-08
1.6161e-07
-9.33943e-08
2.09947e-07
-9.66681e-08
2.59872e-07
-9.98463e-08
3.11329e-07
-1.02975e-07
3.64239e-07
-1.05859e-07
4.18528e-07
-1.08305e-07
4.74222e-07
-1.1079e-07
5.31285e-07
-1.13534e-07
5.89732e-07
-1.16575e-07
6.49341e-07
-1.19202e-07
7.09652e-07
-1.2074e-07
7.70544e-07
-1.2181e-07
8.32489e-07
-1.2375e-07
8.95691e-07
-1.26073e-07
9.59916e-07
-1.281e-07
1.02473e-06
-1.29396e-07
1.08963e-06
-1.29774e-07
1.15457e-06
-1.30109e-07
1.21977e-06
-1.30386e-07
1.28549e-06
-1.305e-07
1.35142e-06
-1.30668e-07
1.41724e-06
-1.31088e-07
1.48277e-06
-1.3104e-07
1.54783e-06
-1.30221e-07
1.61226e-06
-1.29e-07
1.67623e-06
-1.27917e-07
1.73969e-06
-1.26554e-07
1.80252e-06
-1.2527e-07
1.86456e-06
-1.23962e-07
1.92557e-06
-1.22002e-07
1.98564e-06
-1.19722e-07
2.04472e-06
-1.17499e-07
2.1027e-06
-1.15523e-07
2.15929e-06
-1.1319e-07
2.21448e-06
-1.10511e-07
2.26829e-06
-1.07838e-07
2.32096e-06
-1.05396e-07
2.37231e-06
-1.02313e-07
2.42226e-06
-9.90434e-08
2.4702e-06
-9.54657e-08
2.51606e-06
-9.18713e-08
2.5604e-06
-8.91337e-08
2.60364e-06
-8.67092e-08
2.6454e-06
-8.39609e-08
2.68527e-06
-7.96646e-08
2.72321e-06
-7.49069e-08
2.75947e-06
-7.1763e-08
2.79446e-06
-7.01437e-08
2.82769e-06
-6.66972e-08
2.85898e-06
-6.25454e-08
2.8883e-06
-5.79993e-08
2.91614e-06
-5.41236e-08
2.94149e-06
-5.10672e-08
2.96525e-06
-4.77616e-08
2.98738e-06
-4.47408e-08
3.00818e-06
-4.04383e-08
3.02775e-06
-3.72287e-08
3.04633e-06
-3.47117e-08
3.05837e-06
-2.64071e-08
3.06936e-06
-2.4308e-08
3.07017e-06
-1.36962e-08
3.07206e-06
-8.65539e-09
3.09709e-06
-3.07389e-08
3.12347e-06
-2.32629e-08
3.14822e-06
-1.83233e-08
3.15255e-06
-1.76215e-08
3.17978e-06
-3.33718e-08
3.21383e-06
-3.80901e-08
3.21647e-06
-7.66702e-09
3.20662e-06
-8.26717e-09
3.19992e-06
-1.58214e-08
3.20345e-06
-1.07663e-08
3.201e-06
-8.4296e-09
3.1971e-06
-2.29488e-09
3.19342e-06
-8.26193e-10
3.18934e-06
5.59746e-09
3.18456e-06
1.00869e-08
3.17787e-06
1.5028e-08
3.17239e-06
1.27467e-08
3.15614e-06
2.51341e-08
3.12992e-06
3.37578e-08
3.11659e-06
1.47741e-08
3.09515e-06
3.77689e-08
3.07423e-06
4.79215e-08
3.0576e-06
2.7121e-08
3.10996e-06
-2.614e-08
3.19535e-06
-4.44564e-08
3.25073e-06
-9.20375e-09
3.25735e-06
-2.94083e-08
3.23438e-06
-5.44338e-08
3.21089e-06
-2.10265e-08
3.18631e-06
-3.90212e-09
3.15086e-06
3.40467e-08
3.12628e-06
2.70189e-08
3.10623e-06
4.27275e-08
3.0949e-06
3.5368e-08
3.08745e-06
5.48883e-08
3.08104e-06
4.76928e-08
3.06208e-06
5.27457e-08
2.92463e-06
1.77524e-07
2.79133e-06
1.71115e-07
2.72167e-06
1.01044e-07
2.63397e-06
2.21887e-07
2.78151e-06
-2.43937e-08
2.90654e-06
-4.44471e-08
3.61616e-06
-5.43692e-07
4.50227e-06
-9.29589e-07
5.29685e-06
-7.62077e-07
5.84374e-06
-9.73526e-07
6.13436e-06
-1.03297e-06
6.3419e-06
-9.36905e-07
6.47537e-06
-7.7971e-07
6.55926e-06
-6.61313e-07
6.66064e-06
-5.67402e-07
6.77941e-06
-4.63894e-07
6.88852e-06
-3.34595e-07
6.96806e-06
-2.30799e-07
7.02374e-06
-1.65038e-07
7.05695e-06
-1.22251e-07
7.07776e-06
-7.37693e-08
7.09059e-06
-3.10247e-08
7.09295e-06
-4.90602e-09
7.08582e-06
1.64854e-08
7.07053e-06
2.60441e-08
7.04241e-06
4.36529e-08
7.00246e-06
7.18664e-08
6.95725e-06
9.2297e-08
6.9076e-06
1.01335e-07
6.8551e-06
1.06997e-07
6.79601e-06
1.18017e-07
6.73271e-06
1.28771e-07
6.6667e-06
1.31643e-07
6.5965e-06
1.34357e-07
6.52214e-06
1.4413e-07
6.4439e-06
1.5974e-07
6.36233e-06
1.69921e-07
6.27786e-06
1.7651e-07
6.18949e-06
1.78951e-07
6.09989e-06
1.8035e-07
6.00989e-06
1.82771e-07
5.9178e-06
1.85017e-07
5.82235e-06
1.90791e-07
5.72253e-06
2.01564e-07
5.61893e-06
2.13174e-07
5.51508e-06
2.154e-07
5.41148e-06
2.11001e-07
5.31056e-06
2.01066e-07
5.20965e-06
1.95392e-07
5.10798e-06
1.95965e-07
5.00633e-06
1.97724e-07
4.90585e-06
2.00049e-07
4.80701e-06
1.98202e-07
4.70966e-06
1.95332e-07
4.61208e-06
1.96026e-07
4.51401e-06
1.95119e-07
4.41594e-06
1.91885e-07
4.31843e-06
1.88557e-07
4.2215e-06
1.87653e-07
4.12528e-06
1.88661e-07
4.03064e-06
1.89625e-07
3.93791e-06
1.89574e-07
3.84669e-06
1.87515e-07
3.75745e-06
1.83552e-07
3.66965e-06
1.78321e-07
3.58352e-06
1.72815e-07
3.50016e-06
1.67079e-07
3.41917e-06
1.62036e-07
3.34061e-06
1.57264e-07
3.26446e-06
1.53097e-07
3.19055e-06
1.48611e-07
3.11984e-06
1.42602e-07
3.05157e-06
1.36327e-07
2.98584e-06
1.31109e-07
2.92217e-06
1.26794e-07
2.86032e-06
1.23945e-07
2.80126e-06
1.19072e-07
2.74563e-06
1.13888e-07
2.69263e-06
1.07197e-07
2.64122e-06
1.02483e-07
2.59123e-06
9.99743e-08
2.54252e-06
9.70664e-08
2.49666e-06
9.32818e-08
2.45264e-06
9.01731e-08
2.41006e-06
8.67804e-08
2.36899e-06
8.26339e-08
2.32823e-06
7.45906e-08
2.28902e-06
6.58113e-08
2.24682e-06
5.85173e-08
2.20506e-06
5.25057e-08
4.64615e-08
2.88056e-05
7.77599e-06
2.85412e-05
7.03957e-06
2.8362e-05
5.3561e-06
2.87824e-05
2.65005e-07
3.02936e-05
-7.19545e-06
3.22227e-05
-1.09904e-05
3.46628e-05
-1.20765e-05
3.74418e-05
-1.20443e-05
3.99869e-05
-1.15513e-05
4.1505e-05
-1.01398e-05
4.13067e-05
-6.62089e-06
4.06547e-05
-3.69231e-06
4.03756e-05
-2.8801e-06
4.07067e-05
-3.09254e-06
4.15248e-05
-4.00695e-06
4.2433e-05
-5.16673e-06
4.3002e-05
-5.20778e-06
4.2905e-05
-4.62707e-06
4.22166e-05
-3.85747e-06
4.10226e-05
-2.28709e-06
3.98266e-05
5.1437e-07
3.86653e-05
3.37486e-06
3.72627e-05
5.45703e-06
3.58981e-05
7.07279e-06
3.53956e-05
7.59216e-06
3.63203e-05
6.88846e-06
3.82463e-05
4.75882e-06
3.99108e-05
1.9658e-06
4.04689e-05
7.86172e-07
3.99786e-05
8.4217e-07
3.87362e-05
1.67163e-06
3.67119e-05
3.57882e-06
3.39581e-05
6.64169e-06
3.0644e-05
9.38274e-06
2.6608e-05
1.12957e-05
2.29797e-05
1.26015e-05
2.02097e-05
1.29641e-05
1.73558e-05
1.21027e-05
1.45108e-05
1.11858e-05
1.28435e-05
8.46728e-06
1.1511e-05
5.53398e-06
1.00222e-05
4.57526e-06
8.45826e-06
4.77497e-06
7.02188e-06
5.72905e-06
5.82722e-06
5.60687e-06
4.79516e-06
3.83632e-06
3.99265e-06
2.09993e-06
3.24399e-06
1.82855e-06
2.5227e-06
2.48397e-06
1.67998e-06
3.68894e-06
6.99032e-07
3.72743e-06
-3.55527e-07
2.76982e-06
-1.11143e-06
9.35012e-07
-1.56039e-06
-2.53447e-07
-1.95211e-06
-6.52085e-07
-2.36996e-06
-6.85067e-07
-2.91101e-06
-2.89713e-07
-3.48908e-06
4.62466e-07
-3.78324e-06
6.14674e-07
-3.35161e-06
2.40923e-07
-2.38872e-06
-1.19439e-07
-1.17427e-06
-3.7371e-07
-8.62507e-09
-1.04047e-07
3.89414e-07
1.20474e-06
-2.05746e-07
2.41263e-06
-1.19478e-06
2.65117e-06
-2.34718e-06
2.32996e-06
-3.47427e-06
1.30829e-06
-4.00295e-06
-6.33059e-07
-3.90827e-06
-2.1489e-06
-3.63719e-06
-2.75964e-06
-3.19647e-06
-2.83454e-06
-2.62508e-06
-2.15651e-06
-2.29124e-06
-1.43494e-06
-2.02393e-06
-1.41354e-06
-1.86126e-06
-1.91656e-06
-1.73821e-06
-2.48423e-06
-1.18521e-06
-2.9771e-06
-5.711e-08
-3.23237e-06
1.49508e-06
-3.58966e-06
3.54611e-06