/*--------------------------------*- C++ -*----------------------------------*\
| =========                 |                                                 |
| \\      /  F ield         | OpenFOAM: The Open Source CFD Toolbox           |
|  \\    /   O peration     | Version:  v2006                                 |
|   \\  /    A nd           | Website:  www.openfoam.com                      |
|    \\/     M anipulation  |                                                 |
\*---------------------------------------------------------------------------*/
FoamFile
{
    version     2.0;
    format      ascii;
    class       volScalarField;
    location    "9.8";
    object      nut;
}
// * * * * * * * * * * * * * * * * * * * * * * * * * * * * * * * * * * * * * //

dimensions      [0 2 -1 0 0 0 0];


internalField   nonuniform List<scalar> 
33000
(
2.30694e-09
4.43454e-09
6.28362e-09
7.26488e-09
4.35694e-09
2.87394e-09
2.28752e-09
2.04645e-09
1.81547e-09
1.66117e-09
1.54945e-09
1.55071e-09
1.61929e-09
1.71039e-09
1.813e-09
1.8652e-09
1.91246e-09
2.00159e-09
2.06684e-09
2.05556e-09
2.03903e-09
2.09795e-09
2.28347e-09
2.51149e-09
2.84995e-09
3.81195e-09
6.07291e-09
9.8979e-09
1.5418e-08
2.12668e-08
2.61187e-08
2.92556e-08
3.18209e-08
3.62442e-08
4.00779e-08
4.38974e-08
5.89024e-08
9.34383e-08
1.41283e-07
2.09899e-07
2.94425e-07
3.29389e-07
3.32415e-07
3.4055e-07
4.35911e-07
7.81662e-07
9.85725e-07
8.53487e-07
7.10842e-07
6.72274e-07
8.28672e-07
1.3659e-06
1.51628e-06
1.43562e-06
1.38735e-06
1.36866e-06
1.38021e-06
1.43086e-06
1.5153e-06
1.6328e-06
1.31295e-06
1.06594e-06
9.54983e-07
9.61103e-07
9.9841e-07
9.06175e-07
7.39318e-07
5.72661e-07
4.74641e-07
4.2603e-07
3.97241e-07
4.34203e-07
5.46664e-07
6.07523e-07
6.76059e-07
4.64472e-07
3.22956e-07
3.66355e-07
3.85253e-07
3.10709e-07
2.90976e-07
3.00838e-07
3.4238e-07
3.96918e-07
4.24059e-07
4.57572e-07
5.23958e-07
6.33707e-07
7.13518e-07
7.82962e-07
8.75138e-07
8.5765e-07
8.22169e-07
7.88455e-07
7.70013e-07
7.85587e-07
7.59635e-07
6.45508e-07
4.82357e-07
3.77561e-07
3.87222e-07
5.58905e-07
9.30969e-07
9.40472e-07
9.33252e-07
6.75382e-07
6.47792e-07
6.51173e-07
6.25521e-07
8.24855e-07
9.74712e-07
9.65299e-07
9.57291e-07
9.45173e-07
9.33404e-07
9.02645e-07
8.7042e-07
8.26004e-07
8.02198e-07
7.90694e-07
7.8401e-07
7.91835e-07
7.8979e-07
7.94944e-07
8.12602e-07
8.26055e-07
8.36118e-07
8.44565e-07
8.49449e-07
7.8333e-07
7.15769e-07
6.46195e-07
5.84156e-07
5.3206e-07
4.84309e-07
4.42118e-07
4.06862e-07
3.79213e-07
3.56012e-07
3.3487e-07
3.15848e-07
2.98472e-07
2.83795e-07
2.71487e-07
2.60281e-07
2.49685e-07
2.39483e-07
2.29948e-07
2.21601e-07
2.14587e-07
2.07954e-07
2.01034e-07
1.94423e-07
1.88465e-07
1.83049e-07
1.77979e-07
1.73138e-07
1.68444e-07
1.63978e-07
1.5984e-07
1.55974e-07
1.52291e-07
1.48755e-07
1.45346e-07
1.42131e-07
1.39252e-07
1.36602e-07
1.33978e-07
1.31376e-07
1.2905e-07
1.27201e-07
1.2557e-07
1.23939e-07
1.22448e-07
1.2114e-07
1.20254e-07
1.20039e-07
1.20249e-07
1.2067e-07
1.21223e-07
1.21987e-07
1.23233e-07
1.2493e-07
1.27308e-07
1.30704e-07
1.3481e-07
1.39248e-07
1.4419e-07
1.50349e-07
1.5813e-07
1.67672e-07
1.78925e-07
1.91821e-07
2.06942e-07
2.24694e-07
2.46263e-07
2.74304e-07
3.1115e-07
3.59339e-07
4.19387e-07
4.91448e-07
5.18454e-07
5.20821e-07
5.23781e-07
5.26978e-07
5.3011e-07
5.33174e-07
5.36466e-07
5.40111e-07
5.18313e-07
4.66947e-07
4.23949e-07
3.87504e-07
3.58123e-07
3.32704e-07
3.10893e-07
2.93041e-07
2.78762e-07
2.66766e-07
2.5599e-07
2.46692e-07
2.38465e-07
2.30809e-07
2.23983e-07
2.18046e-07
2.12937e-07
2.08381e-07
2.0429e-07
2.00628e-07
1.97052e-07
1.93716e-07
1.90698e-07
1.8802e-07
1.85702e-07
1.83491e-07
1.81382e-07
1.7942e-07
1.77623e-07
1.75935e-07
1.74304e-07
1.72702e-07
1.71141e-07
1.69758e-07
1.68464e-07
1.67216e-07
1.66101e-07
1.64938e-07
1.63614e-07
1.62419e-07
1.61401e-07
1.60376e-07
1.59414e-07
1.58484e-07
1.57474e-07
1.5645e-07
1.55485e-07
1.54584e-07
1.53702e-07
1.52795e-07
1.51887e-07
1.5098e-07
1.50072e-07
1.49215e-07
1.48441e-07
1.47709e-07
1.4693e-07
1.46008e-07
1.45038e-07
1.44202e-07
1.43439e-07
1.42656e-07
1.41915e-07
1.41221e-07
1.40499e-07
1.39681e-07
1.3882e-07
1.38032e-07
1.37299e-07
1.36556e-07
1.3584e-07
1.35205e-07
1.34635e-07
1.33986e-07
1.33187e-07
1.32448e-07
1.31886e-07
1.31335e-07
1.30753e-07
1.30233e-07
1.29795e-07
1.2933e-07
1.28778e-07
1.28277e-07
1.27864e-07
1.27489e-07
1.27154e-07
1.2695e-07
1.26774e-07
1.26594e-07
1.2654e-07
1.26618e-07
1.26868e-07
1.27374e-07
1.28018e-07
1.28675e-07
1.2948e-07
1.30565e-07
1.32039e-07
1.33776e-07
1.3575e-07
1.38085e-07
1.40933e-07
1.44371e-07
1.48297e-07
1.52662e-07
1.57486e-07
1.6288e-07
1.68987e-07
1.75836e-07
1.83401e-07
1.81782e-07
1.80218e-07
1.78915e-07
1.77864e-07
1.7705e-07
1.76454e-07
1.76061e-07
1.75862e-07
1.75839e-07
1.75963e-07
1.76208e-07
1.76559e-07
1.77009e-07
1.77548e-07
1.78157e-07
1.78808e-07
1.79476e-07
1.80149e-07
1.80813e-07
1.81455e-07
1.82058e-07
1.82612e-07
1.83112e-07
1.83557e-07
1.83945e-07
1.84272e-07
1.84538e-07
1.84743e-07
1.84885e-07
1.84966e-07
1.84984e-07
1.84936e-07
1.84817e-07
1.84626e-07
1.84366e-07
1.84039e-07
1.83645e-07
1.83186e-07
1.82663e-07
1.82075e-07
1.81424e-07
1.80711e-07
1.79937e-07
1.79104e-07
1.78217e-07
1.77277e-07
1.76282e-07
1.75233e-07
1.74137e-07
1.73002e-07
1.7183e-07
1.70614e-07
1.69352e-07
1.6805e-07
1.6671e-07
1.65335e-07
1.63924e-07
1.62475e-07
1.60992e-07
1.59471e-07
1.57909e-07
1.56311e-07
1.54686e-07
1.53033e-07
1.51355e-07
1.49652e-07
1.47928e-07
1.46182e-07
1.44422e-07
1.42653e-07
1.40875e-07
1.39088e-07
1.3567e-07
1.30179e-07
1.25058e-07
1.20298e-07
1.15813e-07
1.11627e-07
1.07747e-07
1.04112e-07
1.00682e-07
9.74715e-08
9.4423e-08
9.15493e-08
8.88047e-08
8.63628e-08
8.40622e-08
8.1835e-08
7.9665e-08
7.76932e-08
7.58522e-08
7.41925e-08
7.26339e-08
7.11057e-08
6.96926e-08
6.82917e-08
6.70743e-08
6.58349e-08
6.47946e-08
6.38712e-08
6.29627e-08
6.21291e-08
6.12804e-08
5.97393e-08
5.88894e-08
5.77044e-08
5.78975e-08
5.72511e-08
5.73585e-08
5.71387e-08
5.79765e-08
5.99594e-08
6.12593e-08
6.20418e-08
6.24559e-08
6.275e-08
6.28588e-08
6.29318e-08
6.33138e-08
6.3412e-08
6.4183e-08
6.43714e-08
6.40909e-08
6.4199e-08
6.35487e-08
6.11689e-08
6.0817e-08
6.12293e-08
6.05513e-08
5.61903e-08
5.52457e-08
5.57543e-08
5.6656e-08
5.79137e-08
5.85165e-08
5.94775e-08
5.927e-08
5.9737e-08
5.89274e-08
6.05454e-08
6.42488e-08
6.66168e-08
6.45906e-08
6.48369e-08
5.49921e-08
5.84893e-08
4.97357e-08
5.08595e-08
5.55731e-08
4.58136e-08
4.32759e-08
4.15935e-08
4.19625e-08
4.30672e-08
4.48896e-08
4.75935e-08
5.00819e-08
5.21419e-08
5.36428e-08
5.49703e-08
5.64986e-08
5.78687e-08
5.90547e-08
6.00734e-08
6.08805e-08
6.17562e-08
6.28426e-08
6.39213e-08
6.48867e-08
6.58465e-08
6.69098e-08
6.80114e-08
6.89828e-08
6.99312e-08
7.11149e-08
7.24755e-08
7.38926e-08
7.5278e-08
7.66158e-08
7.80625e-08
7.95641e-08
8.1055e-08
8.26692e-08
8.4529e-08
8.6588e-08
8.86572e-08
9.06278e-08
9.24901e-08
9.44088e-08
9.64918e-08
9.88019e-08
1.01292e-07
1.03767e-07
1.06368e-07
1.09174e-07
1.12028e-07
1.1489e-07
1.17876e-07
1.21093e-07
1.24582e-07
1.28378e-07
1.32408e-07
1.36601e-07
1.40898e-07
1.45247e-07
1.49718e-07
1.54395e-07
1.59272e-07
1.64342e-07
1.6968e-07
1.75232e-07
1.80875e-07
1.86672e-07
1.92524e-07
1.98914e-07
2.05139e-07
2.12607e-07
2.18609e-07
2.26756e-07
2.32182e-07
2.41929e-07
2.48794e-07
2.5359e-07
2.5462e-07
2.55537e-07
2.55863e-07
2.41842e-07
2.41278e-07
1.58921e-07
9.40871e-08
5.31039e-09
2.93348e-08
2.49199e-08
2.73649e-08
1.52478e-08
7.36283e-09
5.93716e-09
5.8586e-09
5.69219e-09
6.55959e-09
8.65424e-09
1.8282e-08
1.7183e-08
1.59786e-08
1.84208e-08
2.25163e-08
2.79887e-08
3.52705e-08
4.58426e-08
6.12056e-08
7.22954e-08
7.03023e-08
6.71726e-08
7.3356e-08
8.73294e-08
1.20961e-07
1.8874e-07
2.86538e-07
3.84914e-07
4.60687e-07
5.05667e-07
5.24033e-07
5.42902e-07
6.02094e-07
7.12245e-07
8.48497e-07
1.00219e-06
1.00961e-06
9.5755e-07
9.1021e-07
8.94774e-07
8.29511e-07
6.83194e-07
6.08616e-07
5.86698e-07
5.32577e-07
5.24056e-07
5.55461e-07
5.16866e-07
6.12569e-07
4.8434e-07
2.98109e-07
2.91906e-07
3.05642e-07
2.21451e-07
1.97152e-07
2.43029e-07
2.04095e-07
2.34071e-07
4.50786e-07
6.36986e-07
7.40917e-07
7.57267e-07
6.8972e-07
4.038e-07
2.89763e-07
2.39923e-07
2.56202e-07
1.95125e-07
1.24174e-07
1.18066e-07
1.55284e-07
1.97834e-07
2.13179e-07
2.33449e-07
2.56766e-07
2.83444e-07
3.64177e-07
4.50481e-07
4.47747e-07
4.47053e-07
4.58654e-07
4.70189e-07
4.73375e-07
4.57032e-07
4.39061e-07
4.12288e-07
3.74302e-07
3.38049e-07
3.05679e-07
2.72391e-07
2.42908e-07
2.22112e-07
2.11532e-07
2.16097e-07
2.24789e-07
2.40997e-07
2.56775e-07
3.08937e-07
3.54519e-07
3.50065e-07
3.19575e-07
2.9506e-07
2.60693e-07
2.27939e-07
2.0094e-07
1.82422e-07
1.64342e-07
1.53626e-07
8.59174e-08
1.01331e-07
1.15041e-07
1.80428e-07
2.05301e-07
1.52866e-07
1.2238e-07
1.26775e-07
1.90164e-07
2.5448e-07
1.31938e-07
8.18246e-08
1.4249e-07
1.77322e-07
1.3536e-07
1.11523e-07
8.50309e-08
7.46677e-08
9.4768e-08
9.80942e-08
1.09188e-07
1.18603e-07
1.11303e-07
1.06778e-07
1.07723e-07
1.09177e-07
1.10822e-07
1.13255e-07
1.18554e-07
1.20805e-07
1.2174e-07
1.24109e-07
1.28531e-07
1.35306e-07
1.41698e-07
1.46026e-07
1.49631e-07
1.54898e-07
1.64965e-07
1.7708e-07
1.8604e-07
1.92062e-07
1.98172e-07
2.11976e-07
2.32958e-07
2.4858e-07
2.59636e-07
2.76106e-07
2.93219e-07
2.9287e-07
2.9251e-07
2.91914e-07
2.91037e-07
2.89958e-07
2.89162e-07
2.88896e-07
2.88098e-07
2.86337e-07
2.84464e-07
2.83532e-07
2.83557e-07
2.82605e-07
2.80238e-07
2.77887e-07
2.76186e-07
2.75646e-07
2.76093e-07
2.7591e-07
2.60976e-07
2.31174e-07
2.11636e-07
1.93007e-07
1.75788e-07
1.59895e-07
1.44123e-07
1.31664e-07
1.22314e-07
1.15351e-07
1.09482e-07
1.03824e-07
9.80235e-08
9.22398e-08
8.73144e-08
8.40266e-08
8.16116e-08
7.90614e-08
7.6941e-08
7.53021e-08
7.39783e-08
7.31562e-08
7.22167e-08
7.15988e-08
7.11836e-08
7.13194e-08
7.21487e-08
7.2923e-08
7.3097e-08
7.3149e-08
7.36841e-08
7.51976e-08
7.68834e-08
7.78866e-08
7.84988e-08
7.9325e-08
8.03972e-08
8.15914e-08
8.31191e-08
8.46079e-08
8.65758e-08
8.86584e-08
9.04037e-08
9.26334e-08
9.52409e-08
9.77799e-08
1.00086e-07
1.02562e-07
1.06817e-07
1.11678e-07
1.16261e-07
1.20705e-07
1.24783e-07
1.30676e-07
1.397e-07
1.49982e-07
1.60176e-07
1.71334e-07
1.81208e-07
1.89199e-07
2.01185e-07
2.21793e-07
2.30228e-07
2.29169e-07
2.28036e-07
2.27052e-07
2.26642e-07
2.26496e-07
2.26491e-07
2.26484e-07
2.26243e-07
2.26013e-07
2.26209e-07
2.26504e-07
2.2682e-07
2.2711e-07
2.27337e-07
2.27554e-07
2.27821e-07
2.28136e-07
2.28468e-07
2.28787e-07
2.29083e-07
2.29332e-07
2.29515e-07
2.29698e-07
2.29915e-07
2.30106e-07
2.30191e-07
2.30152e-07
2.30084e-07
2.30049e-07
2.29978e-07
2.29845e-07
2.29682e-07
2.29479e-07
2.2918e-07
2.25516e-07
2.20179e-07
2.14355e-07
2.07039e-07
1.99867e-07
1.92506e-07
1.87318e-07
1.85479e-07
1.82928e-07
1.76963e-07
1.69221e-07
1.63742e-07
1.61551e-07
1.58782e-07
1.53658e-07
1.48613e-07
1.44857e-07
1.40617e-07
1.36823e-07
1.34255e-07
1.31047e-07
1.26484e-07
1.21563e-07
1.17708e-07
1.15301e-07
1.14083e-07
1.116e-07
1.07404e-07
1.03452e-07
1.01099e-07
1.00133e-07
9.92298e-08
9.666e-08
9.38004e-08
9.24332e-08
9.23274e-08
9.24775e-08
9.18144e-08
9.14121e-08
9.19844e-08
9.36459e-08
9.62042e-08
9.82328e-08
9.97305e-08
1.0208e-07
1.05488e-07
1.09671e-07
1.14613e-07
1.19832e-07
1.25437e-07
1.31587e-07
1.38547e-07
1.46423e-07
1.55334e-07
1.65403e-07
1.76142e-07
1.873e-07
1.89125e-07
1.88644e-07
1.88112e-07
1.87641e-07
1.87339e-07
1.8721e-07
1.87139e-07
1.87058e-07
1.86963e-07
1.86892e-07
1.86869e-07
1.86887e-07
1.86911e-07
1.86931e-07
1.8699e-07
1.87122e-07
1.87311e-07
1.87513e-07
1.87679e-07
1.87809e-07
1.87939e-07
1.88102e-07
1.88285e-07
1.88447e-07
1.8858e-07
1.88696e-07
1.88794e-07
1.88892e-07
1.89001e-07
1.89106e-07
1.8919e-07
1.89246e-07
1.89266e-07
1.8924e-07
1.89192e-07
1.8917e-07
1.89205e-07
1.89266e-07
1.86183e-07
1.83498e-07
1.81072e-07
1.77198e-07
1.72854e-07
1.69336e-07
1.67118e-07
1.66231e-07
1.65408e-07
1.64071e-07
1.6219e-07
1.6087e-07
1.60251e-07
1.60095e-07
1.60452e-07
1.6125e-07
1.61647e-07
1.62135e-07
1.62922e-07
1.64129e-07
1.65972e-07
1.67776e-07
1.69745e-07
1.71986e-07
1.75139e-07
1.78622e-07
1.82181e-07
1.85183e-07
1.88927e-07
1.93361e-07
1.95668e-07
1.96348e-07
1.97137e-07
1.97853e-07
1.98494e-07
1.9883e-07
1.99328e-07
2.00111e-07
2.01437e-07
2.02282e-07
2.03104e-07
2.03834e-07
2.04802e-07
2.06367e-07
2.0739e-07
2.08957e-07
2.10017e-07
2.11125e-07
2.13465e-07
2.14824e-07
2.14051e-07
2.17465e-07
2.16871e-07
2.15493e-07
2.23113e-07
2.19754e-07
2.03397e-07
1.99969e-07
1.72916e-07
1.66293e-07
1.52231e-07
1.58498e-07
1.80714e-07
1.91304e-07
2.04818e-07
2.10854e-07
2.16409e-07
2.19609e-07
2.22873e-07
2.25779e-07
2.26782e-07
2.20189e-07
2.1887e-07
2.05051e-07
1.94187e-07
2.07032e-07
1.38691e-07
9.21165e-08
1.3216e-07
2.60013e-07
2.18877e-07
1.67492e-07
1.93634e-07
2.13385e-07
2.19558e-07
2.62102e-07
2.05313e-07
2.57159e-07
2.5599e-07
2.08734e-07
6.43443e-08
6.57976e-08
5.11327e-08
6.41869e-08
2.99489e-08
2.92064e-08
1.40948e-08
1.0898e-08
1.70295e-08
1.99607e-08
2.26556e-08
1.82201e-08
1.96282e-08
2.39202e-08
2.80406e-08
3.27761e-08
4.02971e-08
5.70536e-08
8.30345e-08
1.09295e-07
1.27421e-07
1.65462e-07
2.14612e-07
2.42203e-07
2.42679e-07
2.0914e-07
1.8083e-07
1.81714e-07
1.79447e-07
1.70582e-07
1.55995e-07
1.50158e-07
1.46469e-07
1.37975e-07
1.29587e-07
1.24889e-07
1.22314e-07
1.19215e-07
1.14747e-07
1.12525e-07
1.12039e-07
1.09347e-07
1.05156e-07
1.01227e-07
9.90674e-08
9.93886e-08
9.96809e-08
1.00233e-07
9.91825e-08
9.81605e-08
9.82901e-08
9.98246e-08
1.02021e-07
1.03112e-07
1.0329e-07
1.03283e-07
1.03427e-07
1.03646e-07
1.04304e-07
1.05662e-07
1.07791e-07
1.10345e-07
1.12557e-07
1.14464e-07
1.16008e-07
1.17908e-07
1.20706e-07
1.23849e-07
1.26949e-07
1.30143e-07
1.33806e-07
1.38311e-07
1.42977e-07
1.47331e-07
1.50093e-07
1.55405e-07
1.58789e-07
1.70623e-07
1.72565e-07
1.79236e-07
1.7741e-07
1.78597e-07
2.12259e-07
1.90274e-07
1.74229e-07
2.08256e-07
1.78375e-07
4.52587e-08
1.81661e-07
1.86419e-08
1.64667e-08
1.36608e-08
4.45479e-08
4.30037e-08
2.76167e-08
1.4035e-08
1.11723e-08
6.57705e-09
5.30524e-09
5.48811e-09
8.78529e-09
2.0092e-08
2.71427e-08
1.90297e-08
2.38086e-08
3.37629e-08
5.86121e-08
1.13778e-07
1.42056e-07
1.46589e-07
1.40654e-07
1.25976e-07
1.1793e-07
1.24514e-07
1.48678e-07
2.01918e-07
3.20767e-07
5.4557e-07
8.13128e-07
9.48771e-07
1.01312e-06
1.02183e-06
9.96441e-07
9.7885e-07
9.9454e-07
1.03031e-06
1.08007e-06
1.21497e-06
1.3553e-06
1.40354e-06
1.28737e-06
9.86852e-07
6.76128e-07
5.52982e-07
5.76701e-07
5.72859e-07
4.6758e-07
3.42054e-07
2.92399e-07
3.2042e-07
3.65369e-07
3.45848e-07
2.81847e-07
1.64604e-07
1.35548e-07
1.11207e-07
1.03726e-07
1.09309e-07
1.36254e-07
1.89286e-07
2.19063e-07
2.18883e-07
2.17294e-07
2.53879e-07
2.89558e-07
2.71893e-07
2.36792e-07
1.98026e-07
1.44781e-07
1.24008e-07
1.39393e-07
1.39467e-07
1.46801e-07
1.59095e-07
1.69551e-07
1.80706e-07
1.92193e-07
2.06674e-07
2.30825e-07
2.73744e-07
3.05302e-07
3.43492e-07
3.74051e-07
3.62795e-07
3.68818e-07
3.90556e-07
4.10022e-07
4.21632e-07
4.06766e-07
3.69542e-07
3.26075e-07
2.79985e-07
2.42349e-07
2.09413e-07
1.81169e-07
1.61777e-07
1.51086e-07
1.48581e-07
1.52737e-07
1.63978e-07
1.85525e-07
1.91965e-07
1.94e-07
1.94207e-07
1.81678e-07
1.701e-07
1.56606e-07
1.39467e-07
1.20874e-07
1.02107e-07
9.20011e-08
8.69004e-08
8.3871e-08
5.0524e-08
4.99066e-08
4.88097e-08
6.32497e-08
4.19457e-08
3.37259e-08
3.62003e-08
3.89445e-08
5.6067e-08
8.53518e-08
3.99671e-08
2.59368e-08
4.02671e-08
5.90559e-08
4.15396e-08
3.54688e-08
2.44644e-08
2.09758e-08
2.7061e-08
2.92771e-08
3.33847e-08
3.34568e-08
3.22486e-08
2.96333e-08
2.80913e-08
2.95934e-08
3.09883e-08
3.27864e-08
3.43422e-08
3.48414e-08
3.52622e-08
3.63596e-08
3.75301e-08
3.88646e-08
4.13741e-08
4.42503e-08
4.61732e-08
4.74437e-08
4.9182e-08
5.19996e-08
5.62114e-08
6.10604e-08
6.47903e-08
6.72969e-08
7.12075e-08
7.81286e-08
8.81849e-08
9.94441e-08
1.11383e-07
1.22589e-07
1.34877e-07
1.5391e-07
1.79969e-07
2.29246e-07
2.4463e-07
2.43473e-07
2.42512e-07
2.4178e-07
2.30311e-07
1.89963e-07
1.55433e-07
1.29378e-07
1.09023e-07
9.44778e-08
8.27467e-08
7.34283e-08
6.57844e-08
5.95439e-08
5.40343e-08
4.94261e-08
4.52933e-08
4.17963e-08
3.89305e-08
3.59276e-08
3.36344e-08
3.2144e-08
3.09538e-08
2.96772e-08
2.81813e-08
2.65914e-08
2.53916e-08
2.48008e-08
2.43452e-08
2.41207e-08
2.38888e-08
2.34505e-08
2.30321e-08
2.27731e-08
2.29603e-08
2.32755e-08
2.35617e-08
2.39399e-08
2.42098e-08
2.43245e-08
2.46221e-08
2.54033e-08
2.64985e-08
2.72981e-08
2.78372e-08
2.85856e-08
2.93401e-08
3.01487e-08
3.13099e-08
3.26368e-08
3.38685e-08
3.50058e-08
3.62322e-08
3.76036e-08
3.943e-08
4.19166e-08
4.40577e-08
4.57519e-08
4.74203e-08
4.94064e-08
5.25627e-08
5.61023e-08
5.98486e-08
6.3667e-08
6.79414e-08
7.37093e-08
7.9536e-08
8.56167e-08
9.26326e-08
9.81648e-08
1.04042e-07
1.13849e-07
1.30909e-07
1.53497e-07
1.7621e-07
1.9306e-07
2.06089e-07
2.27911e-07
2.65483e-07
3.34408e-07
4.36863e-07
4.73132e-07
5.42063e-07
7.94236e-07
9.62746e-07
8.4048e-07
5.7528e-07
4.10661e-07
3.66084e-07
3.65823e-07
3.78749e-07
3.60612e-07
3.02882e-07
2.48828e-07
2.23928e-07
2.16484e-07
2.12122e-07
2.03061e-07
1.90909e-07
1.8078e-07
1.7147e-07
1.62293e-07
1.55739e-07
1.51661e-07
1.49899e-07
1.47698e-07
1.3937e-07
1.28603e-07
1.23085e-07
1.21802e-07
1.22622e-07
1.22291e-07
1.18425e-07
1.12948e-07
1.08724e-07
1.05463e-07
1.02116e-07
9.92735e-08
9.79844e-08
9.71873e-08
9.64919e-08
9.47428e-08
9.06907e-08
8.61528e-08
8.34427e-08
8.19828e-08
8.16297e-08
8.17546e-08
7.99694e-08
7.69315e-08
7.37591e-08
7.15801e-08
7.0398e-08
7.01834e-08
6.98563e-08
6.79363e-08
6.56175e-08
6.45459e-08
6.49214e-08
6.50952e-08
6.38117e-08
6.21007e-08
6.15421e-08
6.24306e-08
6.33984e-08
6.34171e-08
6.32864e-08
6.38436e-08
6.55349e-08
6.79645e-08
6.96473e-08
7.06661e-08
7.24623e-08
7.51104e-08
7.83897e-08
8.23671e-08
8.63131e-08
9.03146e-08
9.45627e-08
9.94516e-08
1.05124e-07
1.11577e-07
1.19327e-07
1.27738e-07
1.35987e-07
1.437e-07
1.51642e-07
1.61308e-07
1.72853e-07
1.84795e-07
1.96992e-07
2.1034e-07
2.18336e-07
2.24872e-07
2.33727e-07
2.4229e-07
2.51457e-07
2.62982e-07
2.72803e-07
2.72023e-07
2.63477e-07
2.57598e-07
2.53495e-07
2.4878e-07
2.43408e-07
2.38131e-07
2.32528e-07
2.23825e-07
2.14562e-07
2.06257e-07
1.98952e-07
1.93433e-07
1.87422e-07
1.79736e-07
1.72707e-07
1.66852e-07
1.61763e-07
1.57086e-07
1.52478e-07
1.47635e-07
1.43586e-07
1.40693e-07
1.37831e-07
1.35033e-07
1.32917e-07
1.31578e-07
1.2979e-07
1.26954e-07
1.24645e-07
1.23597e-07
1.23484e-07
1.23343e-07
1.22205e-07
1.20779e-07
1.2033e-07
1.20884e-07
1.21589e-07
1.22577e-07
1.24009e-07
1.24597e-07
1.24651e-07
1.25558e-07
1.27485e-07
1.29877e-07
1.31536e-07
1.33106e-07
1.35664e-07
1.39183e-07
1.43524e-07
1.47061e-07
1.4982e-07
1.52339e-07
1.55905e-07
1.61101e-07
1.69944e-07
1.77844e-07
1.83742e-07
1.8752e-07
1.92248e-07
1.96427e-07
2.07497e-07
2.21976e-07
2.40064e-07
2.55594e-07
2.60104e-07
2.7025e-07
2.80027e-07
2.86183e-07
2.97931e-07
4.12123e-07
4.9432e-07
5.63929e-07
4.88122e-07
1.81523e-07
1.92276e-07
1.91449e-07
9.41716e-07
1.64648e-07
1.20675e-07
3.01801e-07
9.43769e-07
1.26864e-06
3.10002e-07
5.43725e-07
4.03748e-07
6.22374e-07
5.54546e-07
1.13928e-06
9.47773e-07
4.80367e-07
2.8239e-07
2.72927e-07
4.4858e-07
2.75969e-07
2.75721e-07
2.14013e-07
9.3444e-08
7.70045e-08
1.28115e-07
2.9179e-07
1.95054e-07
1.42621e-07
2.39587e-07
1.03444e-07
1.39943e-07
1.59366e-07
3.14372e-07
2.79515e-07
3.36024e-07
2.29327e-07
6.07861e-08
6.62222e-08
3.76762e-08
4.61892e-08
2.07047e-08
1.80966e-08
8.99311e-09
7.04118e-09
1.08678e-08
1.15043e-08
1.35908e-08
1.25002e-08
2.0092e-08
2.90775e-08
2.39567e-08
2.6136e-08
3.36052e-08
4.1326e-08
4.61278e-08
5.0869e-08
6.37212e-08
8.48646e-08
1.02634e-07
1.15574e-07
1.3909e-07
1.67575e-07
1.90502e-07
1.72252e-07
1.40877e-07
1.37567e-07
1.44466e-07
1.38963e-07
1.27582e-07
1.18047e-07
1.14304e-07
1.0987e-07
1.03356e-07
9.94259e-08
9.84519e-08
9.71153e-08
9.45214e-08
8.94261e-08
8.65477e-08
8.5505e-08
8.37181e-08
8.20913e-08
8.16386e-08
8.15971e-08
8.03421e-08
7.75152e-08
7.46187e-08
7.2432e-08
7.17303e-08
7.18645e-08
7.30541e-08
7.36486e-08
7.3729e-08
7.44571e-08
7.48641e-08
7.42924e-08
7.38189e-08
7.45035e-08
7.62365e-08
7.84901e-08
8.07248e-08
8.2393e-08
8.35533e-08
8.44282e-08
8.56307e-08
8.74397e-08
8.96325e-08
9.18897e-08
9.43671e-08
9.68876e-08
9.94124e-08
1.01917e-07
1.05038e-07
1.07588e-07
1.13308e-07
1.16437e-07
1.24787e-07
1.24519e-07
1.30642e-07
1.30987e-07
1.3257e-07
1.65897e-07
1.44189e-07
1.32929e-07
1.67998e-07
1.27524e-07
3.22015e-08
1.74034e-07
1.40033e-08
1.35366e-08
2.02325e-08
5.25266e-08
5.1706e-08
2.34517e-08
1.1098e-08
1.272e-08
1.26007e-08
1.16193e-08
1.31705e-08
1.04388e-08
1.21234e-08
4.37083e-08
5.65885e-08
8.86155e-08
1.54223e-07
1.61803e-07
1.68254e-07
1.78783e-07
1.97377e-07
2.16447e-07
2.27892e-07
2.52182e-07
2.99899e-07
3.80488e-07
5.14835e-07
7.1633e-07
9.47982e-07
1.0926e-06
1.0713e-06
9.907e-07
9.38389e-07
9.13575e-07
9.2623e-07
9.72359e-07
1.0219e-06
1.07293e-06
1.15831e-06
1.22134e-06
1.21406e-06
9.90985e-07
6.79773e-07
4.58193e-07
3.69128e-07
3.70734e-07
3.65225e-07
2.94128e-07
2.25741e-07
1.96854e-07
2.02359e-07
2.1817e-07
2.10223e-07
1.84723e-07
9.24355e-08
6.32678e-08
5.2387e-08
5.46749e-08
9.46297e-08
1.25849e-07
9.37751e-08
6.70456e-08
6.64942e-08
8.2766e-08
1.06033e-07
1.37281e-07
1.64841e-07
1.56908e-07
1.43899e-07
1.14323e-07
6.17071e-08
6.64954e-08
1.27551e-07
1.31048e-07
8.32549e-08
8.77886e-08
1.52233e-07
1.61526e-07
1.69118e-07
1.81364e-07
2.02083e-07
2.24708e-07
2.48362e-07
2.82406e-07
3.11808e-07
3.45278e-07
3.66043e-07
3.54737e-07
3.55055e-07
3.61061e-07
3.74449e-07
3.8366e-07
3.82892e-07
3.59356e-07
3.20747e-07
2.70027e-07
2.23857e-07
1.88521e-07
1.61744e-07
1.46329e-07
1.40084e-07
1.38291e-07
1.3604e-07
1.34784e-07
1.3766e-07
1.36244e-07
1.3267e-07
1.26818e-07
1.17583e-07
1.07653e-07
9.83644e-08
9.07433e-08
8.51507e-08
8.20428e-08
8.13174e-08
6.46532e-08
6.56673e-08
4.12945e-08
4.24369e-08
3.69751e-08
4.28552e-08
3.38449e-08
1.97211e-08
1.94586e-08
2.19862e-08
3.18464e-08
5.10086e-08
2.12568e-08
1.42933e-08
2.43271e-08
4.09758e-08
2.92334e-08
2.48925e-08
1.78791e-08
1.52462e-08
1.90763e-08
2.15468e-08
2.17533e-08
2.30862e-08
2.40964e-08
2.22568e-08
2.15468e-08
2.27512e-08
2.3591e-08
2.42859e-08
2.51093e-08
2.56201e-08
2.63851e-08
2.81169e-08
2.9834e-08
3.07369e-08
3.1523e-08
3.26223e-08
3.4781e-08
3.72792e-08
3.93743e-08
4.186e-08
4.42519e-08
4.66593e-08
4.97567e-08
5.42135e-08
6.03899e-08
6.80095e-08
7.5793e-08
8.24166e-08
9.04755e-08
1.00121e-07
1.16918e-07
1.51745e-07
1.68662e-07
1.41037e-07
1.21633e-07
1.13916e-07
1.00787e-07
8.59104e-08
7.32841e-08
6.24828e-08
5.4547e-08
4.86348e-08
4.45238e-08
4.1313e-08
3.73803e-08
3.37938e-08
3.10769e-08
2.88354e-08
2.72339e-08
2.58494e-08
2.42295e-08
2.27413e-08
2.18633e-08
2.12432e-08
2.07091e-08
2.01707e-08
1.94144e-08
1.86791e-08
1.82762e-08
1.80656e-08
1.80873e-08
1.82201e-08
1.80949e-08
1.78547e-08
1.78225e-08
1.81498e-08
1.86436e-08
1.9028e-08
1.93156e-08
1.94942e-08
1.97616e-08
2.03664e-08
2.13315e-08
2.23842e-08
2.3051e-08
2.35876e-08
2.44315e-08
2.51946e-08
2.60863e-08
2.74619e-08
2.90245e-08
3.04909e-08
3.14347e-08
3.23247e-08
3.36378e-08
3.546e-08
3.81631e-08
4.08155e-08
4.28686e-08
4.47169e-08
4.6132e-08
4.82406e-08
5.14435e-08
5.54119e-08
6.01705e-08
6.51337e-08
6.94373e-08
7.38673e-08
8.00372e-08
8.67995e-08
9.23099e-08
9.9172e-08
1.09803e-07
1.26298e-07
1.43952e-07
1.58318e-07
1.70763e-07
1.8368e-07
2.05123e-07
2.40825e-07
2.97514e-07
3.48853e-07
3.751e-07
4.40979e-07
5.86009e-07
6.4913e-07
5.2024e-07
3.96028e-07
3.35237e-07
3.32519e-07
3.47114e-07
3.52335e-07
3.10766e-07
2.53759e-07
2.25833e-07
2.1716e-07
2.10213e-07
2.05265e-07
1.97032e-07
1.79882e-07
1.6585e-07
1.58217e-07
1.52355e-07
1.4942e-07
1.4786e-07
1.46084e-07
1.41003e-07
1.31299e-07
1.22021e-07
1.17441e-07
1.15343e-07
1.14948e-07
1.15833e-07
1.14082e-07
1.10259e-07
1.04768e-07
9.87317e-08
9.46855e-08
9.28935e-08
9.39719e-08
9.51738e-08
9.32074e-08
8.90926e-08
8.48893e-08
8.1488e-08
7.93003e-08
7.85206e-08
7.90086e-08
7.83102e-08
7.52479e-08
7.27396e-08
7.08765e-08
6.9357e-08
6.79108e-08
6.695e-08
6.63096e-08
6.4842e-08
6.37775e-08
6.35257e-08
6.34726e-08
6.27214e-08
6.182e-08
6.10186e-08
6.08603e-08
6.16069e-08
6.21386e-08
6.24093e-08
6.2658e-08
6.33746e-08
6.48478e-08
6.6511e-08
6.79262e-08
6.92246e-08
7.11177e-08
7.35855e-08
7.66028e-08
8.03787e-08
8.40664e-08
8.78312e-08
9.19071e-08
9.66103e-08
1.01921e-07
1.0779e-07
1.15461e-07
1.24585e-07
1.33186e-07
1.40036e-07
1.466e-07
1.55674e-07
1.68927e-07
1.84088e-07
1.94959e-07
2.04293e-07
2.1259e-07
2.22017e-07
2.32728e-07
2.41333e-07
2.52692e-07
2.67929e-07
2.75766e-07
2.69865e-07
2.58479e-07
2.52906e-07
2.49418e-07
2.43971e-07
2.37421e-07
2.32401e-07
2.27902e-07
2.17739e-07
2.06584e-07
1.97908e-07
1.91023e-07
1.85726e-07
1.79265e-07
1.71335e-07
1.64856e-07
1.59729e-07
1.55117e-07
1.50696e-07
1.4609e-07
1.41338e-07
1.37675e-07
1.35072e-07
1.32425e-07
1.2963e-07
1.27124e-07
1.25708e-07
1.24517e-07
1.22216e-07
1.20422e-07
1.19479e-07
1.18856e-07
1.18219e-07
1.17422e-07
1.16883e-07
1.17027e-07
1.17302e-07
1.17804e-07
1.18793e-07
1.20536e-07
1.2114e-07
1.21084e-07
1.21731e-07
1.23743e-07
1.26664e-07
1.28379e-07
1.29611e-07
1.31723e-07
1.35862e-07
1.40339e-07
1.43974e-07
1.4575e-07
1.49066e-07
1.52515e-07
1.5802e-07
1.64744e-07
1.73405e-07
1.78814e-07
1.84397e-07
1.87948e-07
2.00036e-07
2.09444e-07
2.28439e-07
2.30051e-07
2.21514e-07
2.16609e-07
2.21983e-07
2.94242e-07
3.39818e-07
4.37381e-07
3.5765e-07
1.47969e-07
1.55159e-07
1.54994e-07
5.15574e-07
1.29697e-07
9.91382e-08
2.4489e-07
7.45195e-07
9.89031e-07
2.39575e-07
4.49869e-07
3.67123e-07
4.94656e-07
6.48621e-07
1.86693e-06
7.93685e-07
4.0023e-07
3.79512e-07
3.03596e-07
1.7792e-07
1.63992e-07
1.95521e-07
1.45378e-07
7.93127e-08
7.10261e-08
1.15227e-07
1.72499e-07
1.50241e-07
1.2068e-07
1.38816e-07
1.00572e-07
1.47322e-07
2.01322e-07
3.22062e-07
2.52373e-07
2.56307e-07
5.77181e-08
7.80416e-08
1.26403e-07
3.15768e-08
3.74925e-08
1.75236e-08
1.5155e-08
8.08462e-09
6.47305e-09
1.00163e-08
9.96773e-09
1.17079e-08
1.08034e-08
1.73378e-08
2.66332e-08
2.94899e-08
3.79317e-08
3.63729e-08
3.56651e-08
4.37439e-08
5.21206e-08
5.32122e-08
5.31985e-08
5.66086e-08
6.70798e-08
8.00766e-08
9.0307e-08
1.00469e-07
1.14709e-07
1.26249e-07
1.30384e-07
1.2312e-07
1.18295e-07
1.24968e-07
1.30722e-07
1.24957e-07
1.13198e-07
1.06062e-07
1.0319e-07
9.95978e-08
9.4965e-08
9.22407e-08
9.20333e-08
9.06211e-08
8.74245e-08
8.33983e-08
8.03673e-08
7.90211e-08
7.87315e-08
7.8757e-08
7.97842e-08
8.09916e-08
7.94487e-08
7.66744e-08
7.30807e-08
7.12592e-08
7.11918e-08
7.15624e-08
7.20946e-08
7.15901e-08
7.1078e-08
7.15154e-08
7.20178e-08
7.20036e-08
7.21578e-08
7.30514e-08
7.45046e-08
7.60908e-08
7.75757e-08
7.88283e-08
7.99324e-08
8.12182e-08
8.28345e-08
8.48063e-08
8.70727e-08
8.95191e-08
9.20475e-08
9.43601e-08
9.65818e-08
9.89733e-08
1.02545e-07
1.05535e-07
1.11828e-07
1.1501e-07
1.21909e-07
1.21486e-07
1.29578e-07
1.31157e-07
1.32184e-07
1.63212e-07
1.40036e-07
1.28771e-07
1.60928e-07
1.25929e-07
3.1595e-08
1.7519e-07
1.3743e-08
1.35883e-08
2.35507e-08
4.24929e-08
6.79163e-08
1.90893e-08
1.0852e-08
1.53464e-08
4.02082e-08
5.6812e-08
1.25856e-08
8.94233e-09
1.74582e-08
8.52776e-08
1.60919e-07
1.66321e-07
1.72354e-07
1.79839e-07
1.90705e-07
2.08857e-07
2.34263e-07
2.63511e-07
2.95719e-07
3.3685e-07
3.93472e-07
4.65934e-07
5.59235e-07
6.85534e-07
7.89723e-07
7.69591e-07
6.93251e-07
6.6084e-07
6.90227e-07
7.39738e-07
7.9344e-07
8.46989e-07
8.93739e-07
9.36176e-07
9.83846e-07
1.01697e-06
9.35157e-07
6.75656e-07
4.39543e-07
3.13694e-07
2.61443e-07
2.54616e-07
2.433e-07
2.02415e-07
1.72388e-07
1.60383e-07
1.59612e-07
1.63776e-07
1.60807e-07
1.27064e-07
6.20641e-08
4.19359e-08
3.76156e-08
4.45077e-08
7.52586e-08
7.92162e-08
4.52324e-08
4.03024e-08
4.7182e-08
5.93613e-08
8.5411e-08
6.00322e-08
8.8662e-08
1.36428e-07
1.33526e-07
1.11578e-07
4.96914e-08
4.21228e-08
6.1098e-08
1.24798e-07
1.47689e-07
6.85895e-08
8.17692e-08
1.57639e-07
1.62891e-07
1.70715e-07
1.80744e-07
1.90427e-07
1.9881e-07
2.14859e-07
2.33123e-07
2.5442e-07
2.80729e-07
3.0166e-07
3.20756e-07
3.37912e-07
3.48077e-07
3.30432e-07
3.30367e-07
3.33629e-07
3.27587e-07
3.1444e-07
2.89394e-07
2.62032e-07
2.26975e-07
1.93933e-07
1.68341e-07
1.47023e-07
1.34275e-07
1.27271e-07
1.21795e-07
1.16624e-07
1.12783e-07
1.11647e-07
1.0903e-07
1.05774e-07
1.02631e-07
9.92348e-08
9.61204e-08
9.0014e-08
5.90416e-08
6.28361e-08
6.50352e-08
6.28814e-08
5.35017e-08
5.47849e-08
3.53167e-08
3.77965e-08
3.3273e-08
3.69612e-08
3.1954e-08
1.67806e-08
1.61877e-08
1.82794e-08
2.64292e-08
5.48448e-08
1.68904e-08
1.10988e-08
1.95224e-08
3.10292e-08
2.78586e-08
2.19543e-08
2.46923e-08
1.59242e-08
1.35917e-08
1.72747e-08
1.87455e-08
2.1995e-08
2.47288e-08
2.26537e-08
2.11362e-08
2.17025e-08
2.27832e-08
2.44554e-08
2.63177e-08
2.7114e-08
2.7368e-08
2.79729e-08
2.93907e-08
3.13888e-08
3.33014e-08
3.48982e-08
3.69146e-08
3.9487e-08
4.19812e-08
4.4022e-08
4.66733e-08
5.15757e-08
5.7345e-08
6.37675e-08
6.95749e-08
7.34729e-08
7.79276e-08
8.7517e-08
1.03437e-07
1.11532e-07
9.8266e-08
8.61365e-08
8.1059e-08
7.58751e-08
6.74038e-08
5.81236e-08
5.01811e-08
4.41777e-08
4.03626e-08
3.82452e-08
3.59794e-08
3.24152e-08
2.94707e-08
2.72824e-08
2.56206e-08
2.46531e-08
2.36272e-08
2.24604e-08
2.11618e-08
2.02764e-08
1.97656e-08
1.93541e-08
1.90596e-08
1.8719e-08
1.82765e-08
1.77018e-08
1.72762e-08
1.72181e-08
1.74332e-08
1.75823e-08
1.75405e-08
1.75706e-08
1.76986e-08
1.79813e-08
1.83224e-08
1.85039e-08
1.86698e-08
1.91071e-08
1.9858e-08
2.07609e-08
2.15386e-08
2.2022e-08
2.26058e-08
2.34815e-08
2.43044e-08
2.53019e-08
2.6619e-08
2.80244e-08
2.93961e-08
3.03953e-08
3.14274e-08
3.28117e-08
3.43777e-08
3.66441e-08
3.92805e-08
4.14137e-08
4.36317e-08
4.58875e-08
4.76495e-08
5.01473e-08
5.36957e-08
5.79746e-08
6.26885e-08
6.68335e-08
7.10542e-08
7.70923e-08
8.45332e-08
9.14265e-08
9.72564e-08
1.05701e-07
1.18351e-07
1.3204e-07
1.46198e-07
1.59571e-07
1.73753e-07
1.93977e-07
2.22735e-07
2.55049e-07
2.82827e-07
3.13931e-07
3.74917e-07
4.60952e-07
4.631e-07
3.67633e-07
3.08875e-07