/*--------------------------------*- C++ -*----------------------------------*\
| =========                 |                                                 |
| \\      /  F ield         | OpenFOAM: The Open Source CFD Toolbox           |
|  \\    /   O peration     | Version:  v2006                                 |
|   \\  /    A nd           | Website:  www.openfoam.com                      |
|    \\/     M anipulation  |                                                 |
\*---------------------------------------------------------------------------*/
FoamFile
{
    version     2.0;
    format      ascii;
    class       volScalarField;
    location    "9.8";
    object      p;
}
// * * * * * * * * * * * * * * * * * * * * * * * * * * * * * * * * * * * * * //

dimensions      [1 -1 -2 0 0 0 0];


internalField   nonuniform List<scalar> 
33000
(
7922.65
7918.23
7915.3
7912.65
7910.07
7907.36
7904.44
7901.38
7898.01
7894.43
7890.63
7886.63
7882.57
7878.51
7874.44
7870.29
7866.02
7861.68
7857.28
7852.78
7848.33
7844.12
7840.22
7836.41
7832.6
7828.8
7824.8
7820.58
7816.21
7811.85
7807.51
7803.28
7799.25
7795.32
7791.49
7787.7
7783.89
7779.93
7775.79
7771.54
7767.28
7763.06
7758.9
7754.81
7750.78
7746.8
7742.91
7739.1
7735.37
7731.73
7728.19
7724.73
7721.37
7718.1
7714.93
7711.84
7708.84
7705.94
7703.16
7700.49
7697.94
7695.51
7693.2
7690.99
7688.92
7686.97
7685.15
7683.46
7681.89
7680.45
7679.1
7677.86
7676.73
7675.73
7674.87
7674.13
7673.53
7673.11
7672.41
7671.64
7671.55
7671.47
7671.49
7671.66
7671.98
7672.52
7673.25
7674.16
7675.28
7676.51
7677.96
7679.55
7681.36
7683.31
7685.49
7687.77
7690.32
7692.93
7695.82
7698.74
7701.71
7704.85
7708.28
7711.82
7715.58
7719.39
7723.32
7727.37
7731.58
7735.95
7740.35
7744.89
7749.46
7754.13
7758.82
7763.63
7768.43
7773.42
7778.37
7783.48
7788.56
7793.67
7798.74
7803.83
7808.89
7813.98
7819.02
7824.04
7829.02
7833.93
7838.74
7843.46
7848.03
7852.51
7856.85
7861.05
7865.07
7868.88
7872.5
7875.9
7879.08
7882.02
7884.71
7887.14
7889.33
7891.26
7892.92
7894.31
7895.4
7896.21
7896.77
7897.05
7897.04
7896.74
7896.16
7895.31
7894.2
7892.82
7891.18
7889.29
7887.15
7884.79
7882.19
7879.38
7876.36
7873.15
7869.76
7866.21
7862.5
7858.65
7854.67
7850.59
7846.42
7842.17
7837.84
7833.45
7829.03
7824.61
7820.19
7815.78
7811.38
7807.01
7802.68
7798.39
7794.17
7790.02
7785.96
7781.97
7778.05
7774.22
7770.49
7766.84
7763.28
7759.8
7756.39
7753.06
7749.79
7746.6
7743.47
7740.39
7737.36
7734.37
7731.41
7728.49
7725.6
7722.74
7719.93
7717.17
7714.47
7711.87
7709.35
7706.91
7704.57
7702.34
7700.2
7698.19
7696.3
7694.53
7692.87
7691.33
7689.91
7688.61
7687.43
7686.37
7685.44
7684.62
7683.92
7683.32
7682.82
7682.43
7682.15
7681.97
7681.88
7681.88
7681.97
7682.13
7682.37
7682.69
7683.08
7683.53
7684.05
7684.63
7685.27
7685.95
7686.68
7687.45
7688.27
7689.12
7690.02
7690.94
7691.89
7692.87
7693.87
7694.89
7695.94
7697
7698.09
7699.18
7700.28
7701.4
7702.53
7703.67
7704.81
7705.96
7707.1
7708.26
7709.42
7710.58
7711.75
7712.91
7714.07
7715.23
7716.39
7717.54
7718.7
7719.85
7721
7722.14
7723.28
7724.41
7725.54
7726.66
7727.77
7728.88
7729.98
7731.08
7732.16
7733.24
7734.31
7735.37
7736.43
7737.47
7738.51
7739.54
7740.55
7741.56
7742.56
7743.55
7744.52
7745.49
7746.44
7747.39
7748.32
7749.25
7750.16
7751.06
7751.95
7752.83
7753.7
7754.56
7755.41
7756.25
7757.08
7757.9
7758.71
7759.52
7760.32
7761.11
7761.9
7762.68
7763.45
7764.22
7764.99
7765.75
7766.51
7767.27
7768.03
7768.79
7769.54
7770.3
7771.05
7771.81
7772.56
7773.32
7774.08
7774.84
7775.61
7776.38
7777.15
7777.93
7778.71
7779.49
7780.29
7781.08
7781.89
7782.7
7783.51
7784.33
7785.16
7786
7786.84
7787.69
7788.55
7789.41
7790.28
7791.16
7792.05
7792.94
7793.84
7794.74
7795.65
7796.56
7797.47
7798.39
7799.31
7800.23
7801.15
7802.07
7802.98
7803.9
7804.81
7805.71
7806.6
7807.49
7808.37
7809.24
7810.09
7810.94
7811.77
7812.58
7813.38
7814.16
7814.92
7815.67
7816.39
7817.09
7817.77
7818.42
7819.06
7819.66
7820.25
7820.8
7821.33
7821.84
7822.32
7822.77
7823.19
7823.59
7823.96
7824.3
7824.62
7824.9
7825.17
7825.4
7825.61
7825.8
7825.96
7826.1
7826.21
7826.3
7826.36
7826.41
7826.43
7826.44
7826.42
7826.39
7826.34
7826.27
7826.19
7826.09
7825.98
7825.86
7825.73
7825.58
7825.44
7825.3
7825.15
7824.97
7824.85
7824.57
7824.45
7824.47
7824.35
7824.26
7824.12
7823.99
7823.83
7823.67
7823.5
7823.32
7823.14
7822.95
7822.77
7822.59
7822.41
7822.22
7822.06
7821.82
7821.67
7821.62
7821.47
7821.37
7821.21
7821.08
7820.92
7820.79
7820.63
7820.5
7820.34
7820.22
7820.07
7819.95
7819.8
7819.71
7819.6
7819.52
7819.41
7819.36
7819.2
7819.21
7819.19
7819.15
7819.12
7819.09
7819.06
7819.04
7819.02
7819.02
7819.03
7819.04
7819.07
7819.1
7819.15
7819.22
7819.29
7819.38
7819.49
7819.61
7819.74
7819.89
7820.06
7820.25
7820.46
7820.69
7820.94
7821.21
7821.5
7821.82
7822.16
7822.53
7822.92
7823.34
7823.79
7824.27
7824.78
7825.32
7825.9
7826.51
7827.16
7827.84
7828.56
7829.32
7830.12
7830.96
7831.85
7832.78
7833.76
7834.79
7835.86
7836.99
7838.17
7839.4
7840.69
7842.03
7843.43
7844.89
7846.4
7847.98
7849.63
7851.33
7853.1
7854.93
7856.83
7858.8
7860.84
7862.95
7865.12
7867.37
7869.69
7872.08
7874.55
7877.09
7879.7
7882.39
7885.15
7887.98
7890.94
7893.81
7896.87
7901.98
7726.16
7721.62
7718.63
7715.94
7713.37
7710.77
7707.93
7704.86
7701.5
7697.89
7694.1
7690.19
7686.27
7682.36
7678.37
7674.24
7669.9
7665.47
7660.94
7656.27
7651.63
7647.4
7643.6
7639.84
7636.15
7632.61
7628.77
7624.56
7620.07
7615.57
7611.17
7606.83
7602.67
7598.77
7594.94
7591.14
7587.37
7583.42
7579.31
7575.12
7570.88
7566.66
7562.49
7558.39
7554.36
7550.39
7546.51
7542.69
7538.97
7535.33
7531.77
7528.3
7524.94
7521.66
7518.47
7515.38
7512.38
7509.45
7506.68
7504.03
7501.51
7499.1
7496.78
7494.53
7492.43
7490.46
7488.63
7486.92
7485.35
7483.9
7482.56
7481.33
7480.2
7479.21
7478.35
7477.61
7476.97
7476.44
7475.81
7475.46
7475.21
7474.78
7474.76
7474.97
7475.65
7476.04
7476.76
7477.52
7478.51
7479.8
7481.25
7482.91
7484.74
7486.67
7488.86
7491.14
7493.69
7496.32
7499.2
7502.09
7505.18
7508.26
7511.87
7515.29
7518.99
7522.71
7526.87
7530.88
7535.24
7539.53
7543.95
7548.47
7553.08
7557.77
7562.52
7567.36
7572.24
7577.17
7582.15
7587.21
7592.36
7597.36
7602.53
7607.58
7612.74
7617.81
7622.92
7627.92
7632.95
7637.83
7642.67
7647.41
7652.04
7656.54
7660.9
7665.1
7669.12
7672.95
7676.59
7680.01
7683.21
7686.18
7688.89
7691.35
7693.55
7695.49
7697.16
7698.55
7699.65
7700.49
7701.04
7701.32
7701.3
7701
7700.43
7699.59
7698.48
7697.09
7695.44
7693.54
7691.4
7689.03
7686.43
7683.61
7680.58
7677.35
7673.95
7670.39
7666.67
7662.8
7658.81
7654.72
7650.53
7646.26
7641.93
7637.53
7633.11
7628.66
7624.22
7619.79
7615.38
7611
7606.66
7602.36
7598.12
7593.96
7589.88
7585.88
7581.96
7578.12
7574.37
7570.7
7567.12
7563.63
7560.22
7556.87
7553.6
7550.39
7547.24
7544.15
7541.11
7538.1
7535.14
7532.21
7529.3
7526.43
7523.61
7520.84
7518.15
7515.53
7513
7510.55
7508.21
7505.97
7503.83
7501.82
7499.92
7498.14
7496.48
7494.94
7493.53
7492.23
7491.05
7490
7489.06
7488.25
7487.54
7486.95
7486.46
7486.08
7485.8
7485.63
7485.54
7485.55
7485.63
7485.8
7486.05
7486.37
7486.77
7487.23
7487.76
7488.34
7488.97
7489.66
7490.39
7491.17
7491.99
7492.85
7493.75
7494.67
7495.63
7496.61
7497.61
7498.64
7499.69
7500.75
7501.83
7502.93
7504.04
7505.16
7506.29
7507.43
7508.57
7509.72
7510.87
7512.02
7513.18
7514.35
7515.51
7516.67
7517.83
7519
7520.15
7521.31
7522.46
7523.61
7524.76
7525.9
7527.04
7528.18
7529.3
7530.42
7531.54
7532.64
7533.75
7534.84
7535.93
7537.01
7538.08
7539.14
7540.2
7541.24
7542.28
7543.31
7544.32
7545.33
7546.33
7547.32
7548.3
7549.26
7550.22
7551.16
7552.1
7553.02
7553.93
7554.83
7555.73
7556.61
7557.48
7558.34
7559.19
7560.03
7560.86
7561.68
7562.5
7563.3
7564.1
7564.9
7565.68
7566.46
7567.24
7568.01
7568.78
7569.55
7570.31
7571.07
7571.82
7572.58
7573.33
7574.09
7574.84
7575.6
7576.36
7577.11
7577.87
7578.63
7579.4
7580.17
7580.94
7581.71
7582.49
7583.28
7584.07
7584.87
7585.67
7586.48
7587.29
7588.11
7588.94
7589.78
7590.62
7591.47
7592.33
7593.2
7594.07
7594.95
7595.83
7596.72
7597.62
7598.53
7599.43
7600.35
7601.26
7602.18
7603.1
7604.03
7604.95
7605.87
7606.79
7607.7
7608.61
7609.52
7610.42
7611.31
7612.19
7613.06
7613.92
7614.76
7615.6
7616.41
7617.21
7618
7618.76
7619.51
7620.23
7620.93
7621.61
7622.27
7622.9
7623.51
7624.1
7624.65
7625.19
7625.69
7626.17
7626.62
7627.05
7627.44
7627.81
7628.15
7628.47
7628.76
7629.02
7629.26
7629.47
7629.65
7629.81
7629.94
7630.06
7630.14
7630.21
7630.25
7630.27
7630.28
7630.26
7630.22
7630.17
7630.1
7630.01
7629.92
7629.79
7629.68
7629.56
7629.43
7629.26
7629.11
7628.83
7628.68
7628.7
7628.55
7628.48
7628.36
7628.24
7628.12
7627.97
7627.83
7627.66
7627.49
7627.31
7627.13
7626.96
7626.78
7626.57
7626.39
7626.12
7625.96
7625.88
7625.73
7625.59
7625.47
7625.31
7625.18
7625.02
7624.88
7624.73
7624.58
7624.45
7624.28
7624.15
7623.97
7623.88
7623.73
7623.64
7623.49
7623.39
7623.17
7623.14
7623.13
7623.06
7623.01
7622.98
7622.93
7622.89
7622.85
7622.82
7622.8
7622.79
7622.78
7622.79
7622.8
7622.83
7622.86
7622.91
7622.98
7623.05
7623.14
7623.24
7623.36
7623.49
7623.65
7623.81
7624
7624.21
7624.43
7624.68
7624.95
7625.24
7625.56
7625.9
7626.26
7626.65
7627.07
7627.52
7627.99
7628.5
7629.04
7629.61
7630.22
7630.86
7631.54
7632.26
7633.02
7633.81
7634.65
7635.54
7636.47
7637.44
7638.47
7639.54
7640.66
7641.83
7643.06
7644.35
7645.68
7647.08
7648.53
7650.05
7651.62
7653.26
7654.96
7656.73
7658.56
7660.46
7662.42
7664.46
7666.56
7668.74
7670.98
7673.3
7675.69
7678.15
7680.69
7683.3
7685.98
7688.74
7691.58
7694.53
7697.42
7700.48
7705.58
7530.33
7525.93
7522.99
7520.2
7517.4
7514.68
7511.77
7508.61
7505.22
7501.63
7497.88
7494.07
7490.3
7486.47
7482.5
7478.31
7473.95
7469.4
7464.7
7459.92
7455.27
7451.08
7447.23
7443.49
7439.8
7436.18
7432.3
7428.06
7423.62
7418.95
7414.25
7409.7
7405.41
7401.54
7397.82
7394.08
7390.33
7386.49
7382.52
7378.41
7374.21
7369.99
7365.82
7361.73
7357.71
7353.75
7349.87
7346.06
7342.33
7338.68
7335.12
7331.65
7328.28
7324.99
7321.79
7318.69
7315.68
7312.78
7310
7307.36
7304.83
7302.41
7300.09
7297.76
7295.66
7293.68
7291.83
7290.12
7288.54
7287.09
7285.76
7284.54
7283.44
7282.44
7281.57
7280.8
7280.13
7279.57
7279.1
7278.72
7278.48
7278.16
7278.12
7278.17
7278
7278.55
7279.33
7280.46
7281.86
7282.9
7284.31
7285.77
7287.62
7289.62
7291.86
7294.21
7296.71
7299.37
7302.21
7305.23
7308.27
7311.57
7314.94
7318.55
7322.31
7326.23
7330.09
7334.11
7338.08
7342.59
7347.12
7351.83
7356.49
7361.22
7365.99
7370.88
7375.83
7380.84
7385.9
7390.98
7396.09
7401.2
7406.35
7411.56
7416.54
7421.77
7426.74
7431.88
7436.91
7441.91
7446.75
7451.57
7456.18
7460.76
7465.16
7469.42
7473.5
7477.37
7481.04
7484.48
7487.71
7490.7
7493.45
7495.95
7498.18
7500.14
7501.82
7503.22
7504.35
7505.2
7505.77
7506.05
7506.03
7505.74
7505.17
7504.33
7503.22
7501.83
7500.16
7498.26
7496.1
7493.72
7491.1
7488.26
7485.21
7481.96
7478.53
7474.94
7471.2
7467.3
7463.29
7459.16
7454.94
7450.65
7446.29
7441.87
7437.42
7432.95
7428.48
7424.01
7419.57
7415.16
7410.79
7406.47
7402.21
7398.02
7393.91
7389.88
7385.94
7382.08
7378.3
7374.6
7370.99
7367.47
7364.03
7360.66
7357.36
7354.12
7350.94
7347.82
7344.75
7341.72
7338.74
7335.78
7332.86
7329.98
7327.14
7324.36
7321.65
7319.02
7316.47
7314.01
7311.66
7309.41
7307.27
7305.25
7303.34
7301.56
7299.9
7298.36
7296.95
7295.66
7294.48
7293.43
7292.5
7291.68
7290.99
7290.4
7289.93
7289.56
7289.29
7289.13
7289.05
7289.06
7289.16
7289.33
7289.59
7289.93
7290.34
7290.81
7291.35
7291.94
7292.58
7293.27
7294.02
7294.81
7295.64
7296.51
7297.4
7298.33
7299.29
7300.28
7301.29
7302.33
7303.38
7304.45
7305.53
7306.63
7307.74
7308.87
7310
7311.14
7312.28
7313.43
7314.59
7315.75
7316.91
7318.07
7319.23
7320.4
7321.56
7322.72
7323.88
7325.04
7326.2
7327.35
7328.49
7329.63
7330.77
7331.9
7333.03
7334.15
7335.27
7336.38
7337.48
7338.57
7339.66
7340.74
7341.81
7342.88
7343.93
7344.98
7346.01
7347.04
7348.06
7349.07
7350.07
7351.06
7352.04
7353
7353.96
7354.91
7355.84
7356.77
7357.68
7358.58
7359.48
7360.36
7361.23
7362.09
7362.95
7363.79
7364.62
7365.45
7366.27
7367.07
7367.87
7368.67
7369.46
7370.24
7371.02
7371.79
7372.56
7373.33
7374.09
7374.85
7375.61
7376.36
7377.12
7377.87
7378.63
7379.38
7380.14
7380.89
7381.65
7382.41
7383.18
7383.94
7384.71
7385.49
7386.27
7387.05
7387.84
7388.63
7389.43
7390.24
7391.06
7391.88
7392.71
7393.54
7394.39
7395.24
7396.09
7396.96
7397.83
7398.71
7399.6
7400.49
7401.39
7402.3
7403.21
7404.13
7405.05
7405.97
7406.9
7407.82
7408.75
7409.67
7410.6
7411.52
7412.43
7413.34
7414.25
7415.14
7416.03
7416.9
7417.77
7418.62
7419.46
7420.28
7421.08
7421.87
7422.64
7423.39
7424.11
7424.82
7425.51
7426.17
7426.8
7427.41
7428
7428.56
7429.09
7429.6
7430.08
7430.53
7430.95
7431.35
7431.72
7432.06
7432.38
7432.67
7432.93
7433.16
7433.37
7433.55
7433.71
7433.84
7433.95
7434.04
7434.1
7434.14
7434.16
7434.16
7434.14
7434.09
7434.04
7433.95
7433.87
7433.79
7433.68
7433.53
7433.4
7433.13
7433
7433.02
7432.89
7432.79
7432.66
7432.52
7432.38
7432.27
7432.12
7431.98
7431.82
7431.66
7431.51
7431.33
7431.17
7430.96
7430.79
7430.51
7430.34
7430.26
7430.09
7429.95
7429.79
7429.62
7429.46
7429.32
7429.16
7429.02
7428.85
7428.72
7428.52
7428.4
7428.19
7428.09
7427.91
7427.82
7427.63
7427.51
7427.25
7427.22
7427.19
7427.11
7427.04
7426.97
7426.88
7426.81
7426.76
7426.71
7426.67
7426.63
7426.59
7426.57
7426.55
7426.54
7426.54
7426.55
7426.58
7426.61
7426.65
7426.71
7426.78
7426.87
7426.97
7427.08
7427.21
7427.36
7427.52
7427.71
7427.91
7428.13
7428.37
7428.64
7428.93
7429.24
7429.57
7429.93
7430.32
7430.73
7431.17
7431.64
7432.14
7432.68
7433.24
7433.84
7434.48
7435.15
7435.86
7436.61
7437.4
7438.24
7439.12
7440.04
7441.01
7442.02
7443.09
7444.2
7445.37
7446.59
7447.87
7449.2
7450.59
7452.04
7453.55
7455.12
7456.75
7458.45
7460.21
7462.04
7463.93
7465.89
7467.92
7470.02
7472.19
7474.44
7476.75
7479.14
7481.6
7484.13
7486.74
7489.42
7492.18
7495.02
7497.97
7500.85
7503.91
7509
7334.97
7330.61
7327.62
7324.75
7321.85
7319.02
7316.01
7312.77
7309.38
7305.82
7302.09
7298.41
7294.67
7290.79
7286.87
7282.73
7278.35
7273.84
7269.24
7264.54
7260.08
7255.81
7251.79
7247.89
7244.06
7240.22
7236.34
7232.06
7227.45
7222.7
7217.93
7213.23
7208.83
7204.75
7200.86
7197.06
7193.3
7189.47
7185.51
7181.45
7177.28
7173.09
7168.95
7164.88
7160.87
7156.93
7153.03
7149.21
7145.47
7141.82
7138.26
7134.79
7131.4
7128.1
7124.89
7121.76
7118.75
7115.85
7113.07
7110.4
7107.83
7105.36
7103
7100.74
7098.63
7096.64
7094.78
7093.05
7091.45
7090
7088.67
7087.45
7086.36
7085.37
7084.49
7083.7
7083.04
7082.49
7082.05
7081.7
7081.48
7081.32
7081.33
7081.44
7081.62
7081.97
7082.47
7083.04
7083.34
7084.87
7086.51
7088.57
7090.31
7092.2
7094.2
7096.6
7099.15
7101.92
7104.85
7107.84
7111.01
7114.29
7117.84
7121.28
7125.14
7128.85
7132.95
7137.02
7141.47
7146.11
7150.36
7155
7159.54
7164.42
7169.32
7174.29
7179.24
7184.29
7189.38
7194.55
7199.76
7204.99
7210.15
7215.41
7220.59
7225.86
7231.08
7235.94
7241.14
7245.96
7250.95
7255.84
7260.61
7265.21
7269.67
7273.95
7278.06
7281.96
7285.72
7289.23
7292.52
7295.57
7298.37
7300.91
7303.19
7305.19
7306.9
7308.33
7309.49
7310.36
7310.95
7311.23
7311.23
7310.95
7310.38
7309.54
7308.42
7307.03
7305.36
7303.44
7301.27
7298.85
7296.21
7293.34
7290.26
7286.98
7283.51
7279.88
7276.1
7272.17
7268.11
7263.94
7259.67
7255.33
7250.93
7246.48
7241.98
7237.47
7232.96
7228.45
7223.96
7219.5
7215.09
7210.73
7206.43
7202.19
7198.03
7193.96
7189.98
7186.07
7182.25
7178.51
7174.85
7171.28
7167.78
7164.37
7161.03
7157.74
7154.52
7151.36
7148.26
7145.2
7142.18
7139.19
7136.25
7133.34
7130.49
7127.7
7124.97
7122.32
7119.75
7117.27
7114.9
7112.64
7110.5
7108.47
7106.57
7104.77
7103.11
7101.57
7100.16
7098.87
7097.71
7096.67
7095.75
7094.94
7094.25
7093.68
7093.22
7092.86
7092.61
7092.46
7092.4
7092.42
7092.54
7092.73
7093.01
7093.37
7093.79
7094.28
7094.83
7095.43
7096.08
7096.79
7097.55
7098.36
7099.2
7100.08
7100.99
7101.92
7102.89
7103.89
7104.91
7105.96
7107.01
7108.09
7109.18
7110.28
7111.4
7112.53
7113.66
7114.8
7115.95
7117.11
7118.27
7119.43
7120.59
7121.75
7122.92
7124.08
7125.24
7126.41
7127.57
7128.73
7129.89
7131.04
7132.18
7133.32
7134.46
7135.6
7136.73
7137.85
7138.97
7140.08
7141.17
7142.27
7143.35
7144.44
7145.51
7146.58
7147.63
7148.68
7149.72
7150.74
7151.76
7152.78
7153.78
7154.77
7155.75
7156.72
7157.68
7158.62
7159.56
7160.49
7161.4
7162.31
7163.21
7164.09
7164.97
7165.83
7166.69
7167.53
7168.37
7169.2
7170.02
7170.83
7171.64
7172.43
7173.23
7174.01
7174.79
7175.57
7176.34
7177.1
7177.87
7178.63
7179.39
7180.14
7180.9
7181.65
7182.4
7183.15
7183.91
7184.66
7185.42
7186.18
7186.94
7187.71
7188.47
7189.25
7190.02
7190.8
7191.59
7192.38
7193.18
7193.99
7194.8
7195.62
7196.45
7197.29
7198.13
7198.98
7199.84
7200.71
7201.58
7202.46
7203.35
7204.25
7205.15
7206.06
7206.98
7207.9
7208.83
7209.75
7210.68
7211.62
7212.55
7213.48
7214.41
7215.34
7216.26
7217.18
7218.09
7218.99
7219.89
7220.77
7221.64
7222.5
7223.34
7224.17
7224.99
7225.78
7226.55
7227.31
7228.04
7228.75
7229.44
7230.11
7230.75
7231.36
7231.95
7232.51
7233.05
7233.56
7234.04
7234.49
7234.92
7235.31
7235.68
7236.03
7236.34
7236.62
7236.89
7237.12
7237.32
7237.5
7237.66
7237.79
7237.89
7237.98
7238.04
7238.08
7238.08
7238.08
7238.04
7238
7237.96
7237.89
7237.78
7237.67
7237.42
7237.31
7237.35
7237.23
7237.15
7237.01
7236.88
7236.74
7236.62
7236.47
7236.34
7236.19
7236.04
7235.9
7235.73
7235.58
7235.37
7235.19
7234.91
7234.74
7234.66
7234.49
7234.34
7234.18
7233.98
7233.83
7233.64
7233.5
7233.31
7233.17
7232.98
7232.83
7232.63
7232.49
7232.35
7232.19
7232.07
7231.87
7231.71
7231.41
7231.36
7231.31
7231.21
7231.11
7231.01
7230.89
7230.8
7230.72
7230.65
7230.58
7230.52
7230.46
7230.41
7230.37
7230.33
7230.3
7230.28
7230.27
7230.26
7230.27
7230.29
7230.32
7230.36
7230.41
7230.48
7230.56
7230.65
7230.76
7230.89
7231.03
7231.19
7231.37
7231.56
7231.78
7232.01
7232.27
7232.55
7232.85
7233.18
7233.53
7233.91
7234.32
7234.75
7235.21
7235.7
7236.23
7236.79
7237.38
7238
7238.67
7239.37
7240.11
7240.89
7241.71
7242.58
7243.49
7244.45
7245.46
7246.51
7247.62
7248.77
7249.99
7251.25
7252.58
7253.96
7255.39
7256.89
7258.46
7260.08
7261.77
7263.52
7265.34
7267.22
7269.18
7271.2
7273.3
7275.46
7277.7
7280.01
7282.39
7284.84
7287.37
7289.98
7292.66
7295.42
7298.25
7301.2
7304.08
7307.14
7312.24
7140.14
7135.8
7132.76
7129.86
7126.81
7123.84
7120.73
7117.44
7114.03
7110.48
7106.79
7103.1
7099.31
7095.43
7091.44
7087.3
7083
7078.61
7074.17
7069.75
7065.24
7060.84
7056.56
7052.39
7048.27
7044.13
7039.89
7035.53
7031.01
7026.38
7021.76
7017.23
7012.82
7008.58
7004.47
7000.45
6996.49
6992.51
6988.47
6984.37
6980.2
6976.03
6971.91
6967.85
6963.84
6959.89
6955.98
6952.13
6948.37
6944.71
6941.13
6937.66
6934.25
6930.93
6927.69
6924.55
6921.52
6918.6
6915.8
6913.1
6910.51
6908.02
6905.64
6903.38
6901.28
6899.31
6897.45
6895.71
6894.09
6892.62
6891.29
6890.07
6888.97
6887.98
6887.1
6886.33
6885.68
6885.16
6884.76
6884.46
6884.27
6884.19
6884.22
6884.39
6884.67
6885.13
6885.77
6886.51
6887.16
6888.08
6888.97
6889.49
6891.65
6894
6896.79
6899.01
6901.46
6904.02
6906.95
6910.13
6913.42
6916.82
6920.33
6923.96
6927.79
6931.78
6935.7
6940
6944.21
6948.75
6953.26
6958.22
6963.06
6967.51
6972.43
6977.27
6982.41
6987.63
6992.86
6998.05
7003.29
7008.55
7013.87
7019.2
7024.53
7029.74
7035.09
7040.25
7045.58
7050.75
7055.37
7060.49
7064.98
7069.81
7074.35
7078.88
7083.13
7087.08
7090.91
7094.41
7097.74
7100.85
7103.71
7106.31
7108.64
7110.66
7112.41
7113.88
7115.08
7115.99
7116.6
7116.9
7116.91
7116.64
7116.08
7115.24
7114.11
7112.71
7111.03
7109.09
7106.9
7104.45
7101.77
7098.86
7095.74
7092.42
7088.91
7085.22
7081.38
7077.4
7073.28
7069.05
7064.73
7060.32
7055.85
7051.34
7046.78
7042.21
7037.64
7033.06
7028.5
7023.98
7019.51
7015.1
7010.73
7006.44
7002.21
6998.07
6994.01
6990.04
6986.16
6982.36
6978.64
6975
6971.44
6967.96
6964.56
6961.23
6957.95
6954.74
6951.58
6948.47
6945.41
6942.38
6939.41
6936.48
6933.61
6930.8
6928.05
6925.38
6922.8
6920.31
6917.92
6915.65
6913.5
6911.47
6909.56
6907.76
6906.1
6904.56
6903.15
6901.88
6900.73
6899.7
6898.79
6898
6897.32
6896.77
6896.32
6895.99
6895.76
6895.63
6895.59
6895.64
6895.77
6896
6896.3
6896.67
6897.12
6897.62
6898.19
6898.81
6899.49
6900.22
6901
6901.82
6902.68
6903.57
6904.49
6905.44
6906.43
6907.44
6908.47
6909.52
6910.59
6911.67
6912.77
6913.88
6915.01
6916.14
6917.28
6918.42
6919.58
6920.73
6921.9
6923.07
6924.23
6925.4
6926.56
6927.73
6928.89
6930.06
6931.22
6932.38
6933.54
6934.69
6935.84
6936.98
6938.12
6939.25
6940.38
6941.51
6942.63
6943.73
6944.83
6945.93
6947.02
6948.1
6949.18
6950.24
6951.3
6952.34
6953.38
6954.41
6955.44
6956.45
6957.45
6958.44
6959.43
6960.4
6961.36
6962.31
6963.25
6964.18
6965.1
6966.01
6966.91
6967.8
6968.68
6969.55
6970.41
6971.26
6972.1
6972.93
6973.76
6974.58
6975.39
6976.19
6976.98
6977.77
6978.55
6979.33
6980.1
6980.87
6981.64
6982.4
6983.16
6983.91
6984.67
6985.42
6986.17
6986.92
6987.68
6988.43
6989.18
6989.94
6990.7
6991.46
6992.23
6992.99
6993.77
6994.55
6995.33
6996.12
6996.92
6997.72
6998.53
6999.35
7000.18
7001.01
7001.86
7002.71
7003.57
7004.44
7005.31
7006.2
7007.09
7007.99
7008.9
7009.81
7010.74
7011.66
7012.59
7013.53
7014.47
7015.41
7016.35
7017.29
7018.23
7019.17
7020.1
7021.03
7021.95
7022.86
7023.76
7024.66
7025.54
7026.41
7027.26
7028.1
7028.92
7029.73
7030.51
7031.27
7032.01
7032.73
7033.43
7034.1
7034.75
7035.37
7035.96
7036.53
7037.06
7037.57
7038.06
7038.51
7038.94
7039.34
7039.7
7040.05
7040.36
7040.64
7040.9
7041.13
7041.34
7041.51
7041.67
7041.79
7041.9
7041.96
7042.02
7042.03
7042.05
7042.05
7042.03
7041.96
7041.89
7041.68
7041.6
7041.66
7041.57
7041.5
7041.38
7041.26
7041.13
7041.02
7040.88
7040.75
7040.59
7040.44
7040.29
7040.14
7039.96
7039.79
7039.52
7039.35
7039.29
7039.12
7038.99
7038.8
7038.64
7038.43
7038.27
7038.08
7037.92
7037.73
7037.57
7037.37
7037.21
7037
7036.85
7036.7
7036.53
7036.4
7036.15
7035.95
7035.63
7035.58
7035.52
7035.4
7035.28
7035.15
7035.01
7034.89
7034.79
7034.69
7034.6
7034.51
7034.42
7034.34
7034.27
7034.21
7034.15
7034.1
7034.05
7034.02
7033.99
7033.97
7033.96
7033.96
7033.98
7034
7034.03
7034.08
7034.14
7034.21
7034.3
7034.41
7034.52
7034.66
7034.81
7034.98
7035.17
7035.37
7035.6
7035.85
7036.12
7036.41
7036.73
7037.07
7037.44
7037.83
7038.25
7038.71
7039.19
7039.7
7040.24
7040.82
7041.44
7042.09
7042.78
7043.5
7044.27
7045.08
7045.93
7046.83
7047.78
7048.77
7049.81
7050.9
7052.05
7053.25
7054.5
7055.81
7057.18
7058.6
7060.09
7061.64
7063.25
7064.93
7066.67
7068.48
7070.36
7072.3
7074.32
7076.4
7078.56
7080.79
7083.09
7085.47
7087.92
7090.44
7093.04
7095.72
7098.47
7101.3
7104.25
7107.12
7110.18
7115.28
6945.75
6941.46
6938.2
6935.24
6932.05
6929.02
6925.86
6922.52
6919.05
6915.46
6911.79
6908.03
6904.17
6900.23
6896.2
6892.05
6887.77
6883.39
6878.95
6874.49
6870.02
6865.58
6861.19
6856.83
6852.5
6848.16
6843.8
6839.35
6834.8
6830.19
6825.57
6821.03
6816.57
6812.23
6807.99
6803.82
6799.68
6795.55
6791.41
6787.22
6783.03
6778.85
6774.72
6770.64
6766.61
6762.63
6758.71
6754.84
6751.02
6747.39
6743.76
6740.24
6736.81
6733.46
6730.2
6727.04
6723.98
6721.05
6718.22
6715.5
6712.89
6710.4
6708.03
6705.77
6703.64
6701.67
6699.82
6698.07
6696.45
6694.96
6693.61
6692.38
6691.27
6690.28
6689.41
6688.65
6688.03
6687.53
6687.16
6686.91
6686.78
6686.77
6686.88
6687.13
6687.49
6687.96
6688.54
6689.45
6690.21
6691.18
6692.28
6693.33
6694.73
6696
6696.94
6699.98
6702.92
6706.25
6709.12
6712.1
6715.17
6718.6
6722.29
6726.04
6730.01
6733.89
6738.14
6742.27
6746.82
6751.34
6755.98
6760.75
6765.55
6770.51
6775.85
6781
6785.52
6790.73
6795.8
6801.22
6806.78
6812.24
6817.6
6822.97
6828.34
6833.75
6839.17
6844.52
6849.69
6855.06
6860.13
6865.5
6870.42
6874.74
6879.45
6883.83
6888.01
6892.1
6896.19
6899.93
6903.35
6906.56
6909.42
6912.06
6914.47
6916.58
6918.4
6919.93
6921.16
6922.1
6922.73
6923.07
6923.1
6922.84
6922.29
6921.44
6920.31
6918.89
6917.21
6915.24
6913.01
6910.53
6907.8
6904.84
6901.67
6898.29
6894.71
6890.96
6887.04
6882.99
6878.8
6874.49
6870.08
6865.59
6861.04
6856.44
6851.81
6847.16
6842.5
6837.84
6833.2
6828.6
6824.04
6819.54
6815.1
6810.72
6806.41
6802.18
6798.03
6793.98
6790.01
6786.12
6782.32
6778.6
6774.96
6771.4
6767.92
6764.51
6761.17
6757.89
6754.66
6751.5
6748.38
6745.32
6742.31
6739.35
6736.45
6733.62
6730.86
6728.17
6725.58
6723.08
6720.69
6718.41
6716.25
6714.21
6712.3
6710.51
6708.85
6707.32
6705.92
6704.65
6703.51
6702.5
6701.61
6700.85
6700.2
6699.67
6699.25
6698.94
6698.73
6698.62
6698.61
6698.7
6698.86
6699.12
6699.44
6699.85
6700.32
6700.85
6701.45
6702.1
6702.8
6703.56
6704.36
6705.2
6706.07
6706.98
6707.93
6708.9
6709.9
6710.92
6711.97
6713.03
6714.11
6715.21
6716.32
6717.43
6718.57
6719.7
6720.85
6722
6723.16
6724.32
6725.49
6726.66
6727.83
6729
6730.17
6731.34
6732.5
6733.67
6734.84
6736
6737.15
6738.3
6739.45
6740.6
6741.74
6742.87
6744
6745.13
6746.24
6747.35
6748.46
6749.55
6750.64
6751.73
6752.8
6753.87
6754.93
6755.98
6757.02
6758.05
6759.07
6760.09
6761.09
6762.09
6763.08
6764.05
6765.02
6765.97
6766.92
6767.85
6768.78
6769.69
6770.6
6771.49
6772.38
6773.25
6774.12
6774.97
6775.82
6776.66
6777.49
6778.31
6779.13
6779.93
6780.73
6781.52
6782.31
6783.09
6783.87
6784.64
6785.4
6786.17
6786.93
6787.68
6788.44
6789.19
6789.94
6790.69
6791.44
6792.19
6792.94
6793.69
6794.45
6795.2
6795.96
6796.73
6797.5
6798.27
6799.05
6799.84
6800.63
6801.44
6802.24
6803.06
6803.89
6804.72
6805.56
6806.41
6807.28
6808.15
6809.02
6809.91
6810.81
6811.72
6812.63
6813.55
6814.48
6815.41
6816.35
6817.3
6818.25
6819.2
6820.15
6821.1
6822.05
6823
6823.95
6824.89
6825.82
6826.75
6827.67
6828.57
6829.47
6830.35
6831.21
6832.06
6832.9
6833.71
6834.51
6835.28
6836.03
6836.76
6837.46
6838.14
6838.79
6839.42
6840.02
6840.59
6841.13
6841.65
6842.13
6842.59
6843.02
6843.41
6843.78
6844.12
6844.43
6844.71
6844.97
6845.2
6845.4
6845.56
6845.71
6845.82
6845.92
6846.02
6846.06
6846.11
6846.08
6846.07
6845.89
6845.86
6845.95
6845.88
6845.84
6845.75
6845.65
6845.54
6845.45
6845.32
6845.2
6845.05
6844.91
6844.77
6844.62
6844.44
6844.27
6844.01
6843.83
6843.79
6843.61
6843.49
6843.3
6843.14
6842.92
6842.76
6842.56
6842.39
6842.19
6842.03
6841.8
6841.64
6841.39
6841.26
6841.04
6840.91
6840.69
6840.48
6840.12
6840.06
6839.97
6839.83
6839.69
6839.53
6839.38
6839.21
6839.06
6838.93
6838.81
6838.69
6838.58
6838.47
6838.36
6838.26
6838.17
6838.08
6838
6837.93
6837.86
6837.8
6837.75
6837.71
6837.68
6837.65
6837.63
6837.63
6837.63
6837.65
6837.68
6837.72
6837.77
6837.83
6837.91
6838.01
6838.12
6838.24
6838.39
6838.55
6838.72
6838.92
6839.14
6839.37
6839.63
6839.91
6840.22
6840.55
6840.9
6841.28
6841.69
6842.13
6842.59
6843.09
6843.62
6844.18
6844.78
6845.41
6846.09
6846.8
6847.55
6848.34
6849.18
6850.06
6850.98
6851.96
6852.98
6854.06
6855.19
6856.37
6857.6
6858.9
6860.25
6861.66
6863.13
6864.66
6866.26
6867.93
6869.65
6871.45
6873.31
6875.25
6877.25
6879.33
6881.47
6883.69
6885.99
6888.35
6890.8
6893.32
6895.91
6898.58
6901.33
6904.16
6907.1
6909.98
6913.03
6918.13
6751.77
6747.46
6744
6741.05
6737.74
6734.56
6731.31
6727.88
6724.34
6720.7
6716.98
6713.16
6709.26
6705.24
6701.14
6696.93
6692.63
6688.24
6683.78
6679.29
6674.77
6670.26
6665.75
6661.26
6656.78
6652.29
6647.78
6643.23
6638.63
6633.99
6629.35
6624.76
6620.23
6615.78
6611.47
6607.17
6602.86
6598.57
6594.29
6590.02
6585.78
6581.56
6577.38
6573.25
6569.19
6565.18
6561.24
6557.35
6553.47
6549.75
6546.1
6542.53
6539.06
6535.68
6532.4
6529.21
6526.14
6523.19
6520.34
6517.61
6514.99
6512.49
6510.11
6507.87
6505.77
6503.73
6501.88
6500.13
6498.49
6496.99
6495.63
6494.39
6493.28
6492.3
6491.43
6490.7
6490.1
6489.62
6489.27
6489.06
6488.98
6489.03
6489.2
6489.49
6489.9
6490.45
6491.15
6492
6492.96
6494.03
6495.26
6496.43
6497.89
6499.51
6501.09
6503.02
6504.75
6506.03
6509.72
6513.36
6517.3
6520.69
6524.16
6527.76
6531.68
6535.93
6540.2
6544.59
6549.06
6553.64
6558.33
6563.18
6568.23
6573.1
6578.3
6583.47
6588.79
6594.67
6600.08
6604.54
6609.98
6615.17
6620.79
6626.64
6632.27
6637.68
6643.17
6648.48
6654.02
6659.37
6664.72
6669.98
6675.11
6680.28
6684.98
6690.14
6694.67
6698.11
6702.29
6705.61
6709.2
6712.64
6715.72
6718.42
6720.89
6722.98
6724.83
6726.45
6727.75
6728.73
6729.4
6729.75
6729.8
6729.56
6729.02
6728.16
6727.01
6725.58
6723.87
6721.88
6719.61
6717.08
6714.3
6711.28
6708.04
6704.59
6700.94
6697.1
6693.09
6688.93
6684.65
6680.25
6675.74
6671.15
6666.49
6661.78
6657.05
6652.3
6647.53
6642.77
6638.02
6633.31
6628.65
6624.04
6619.5
6615.02
6610.6
6606.25
6602
6597.83
6593.75
6589.75
6585.84
6582.02
6578.28
6574.62
6571.04
6567.54
6564.11
6560.75
6557.45
6554.22
6551.05
6547.94
6544.89
6541.9
6538.98
6536.12
6533.34
6530.65
6528.05
6525.55
6523.16
6520.87
6518.71
6516.67
6514.76
6512.98
6511.33
6509.82
6508.43
6507.18
6506.06
6505.08
6504.22
6503.48
6502.87
6502.37
6501.98
6501.7
6501.53
6501.45
6501.48
6501.6
6501.8
6502.09
6502.46
6502.89
6503.4
6503.97
6504.6
6505.28
6506.01
6506.8
6507.62
6508.49
6509.39
6510.32
6511.29
6512.28
6513.3
6514.34
6515.4
6516.48
6517.58
6518.69
6519.81
6520.94
6522.08
6523.22
6524.38
6525.54
6526.7
6527.87
6529.04
6530.22
6531.39
6532.56
6533.74
6534.91
6536.08
6537.25
6538.41
6539.57
6540.73
6541.88
6543.03
6544.18
6545.32
6546.45
6547.58
6548.71
6549.82
6550.93
6552.04
6553.14
6554.23
6555.31
6556.39
6557.46
6558.52
6559.57
6560.62
6561.65
6562.68
6563.69
6564.7
6565.7
6566.7
6567.68
6568.65
6569.61
6570.56
6571.5
6572.43
6573.35
6574.26
6575.17
6576.06
6576.94
6577.81
6578.68
6579.53
6580.37
6581.21
6582.04
6582.86
6583.67
6584.48
6585.27
6586.07
6586.85
6587.63
6588.4
6589.17
6589.93
6590.69
6591.45
6592.2
6592.95
6593.7
6594.44
6595.19
6595.94
6596.68
6597.43
6598.18
6598.93
6599.69
6600.45
6601.21
6601.98
6602.76
6603.54
6604.33
6605.13
6605.93
6606.75
6607.57
6608.4
6609.25
6610.1
6610.96
6611.83
6612.72
6613.61
6614.51
6615.42
6616.34
6617.27
6618.21
6619.15
6620.1
6621.06
6622.02
6622.98
6623.95
6624.91
6625.88
6626.84
6627.8
6628.76
6629.71
6630.65
6631.59
6632.51
6633.42
6634.31
6635.2
6636.06
6636.91
6637.74
6638.55
6639.33
6640.1
6640.83
6641.55
6642.24
6642.9
6643.53
6644.14
6644.72
6645.26
6645.78
6646.27
6646.73
6647.16
6647.56
6647.92
6648.26
6648.57