/*--------------------------------*- C++ -*----------------------------------*\
| =========                 |                                                 |
| \\      /  F ield         | OpenFOAM: The Open Source CFD Toolbox           |
|  \\    /   O peration     | Version:  v2006                                 |
|   \\  /    A nd           | Website:  www.openfoam.com                      |
|    \\/     M anipulation  |                                                 |
\*---------------------------------------------------------------------------*/
FoamFile
{
    version     2.0;
    format      ascii;
    class       volScalarField;
    location    "9.8";
    object      p_rgh;
}
// * * * * * * * * * * * * * * * * * * * * * * * * * * * * * * * * * * * * * //

dimensions      [1 -1 -2 0 0 0 0];


internalField   nonuniform List<scalar> 
33000
(
8020.75
8016.33
8013.4
8010.75
8008.17
8005.46
8002.54
7999.48
7996.11
7992.53
7988.73
7984.73
7980.67
7976.6
7972.53
7968.38
7964.11
7959.73
7955.29
7950.79
7946.35
7942.15
7938.3
7934.51
7930.7
7926.9
7922.91
7918.68
7914.32
7909.95
7905.61
7901.38
7897.35
7893.42
7889.59
7885.8
7881.99
7878.03
7873.89
7869.62
7865.37
7861.16
7857
7852.9
7848.84
7844.9
7841.01
7837.2
7833.46
7829.79
7826.27
7822.83
7819.47
7816.2
7813.03
7809.94
7806.94
7804.04
7801.26
7798.59
7796.04
7793.58
7791.23
7789.08
7787.02
7785.07
7783.25
7781.56
7779.99
7778.55
7777.2
7775.96
7774.83
7773.82
7772.96
7772.22
7771.61
7771.17
7770.47
7769.7
7769.62
7769.54
7769.54
7769.71
7770.03
7770.57
7771.33
7772.26
7773.38
7774.61
7776.06
7777.65
7779.46
7781.41
7783.57
7785.83
7788.39
7791.01
7793.92
7796.84
7799.81
7802.95
7806.38
7809.92
7813.66
7817.46
7821.39
7825.44
7829.65
7834.03
7838.44
7842.99
7847.56
7852.22
7856.89
7861.7
7866.52
7871.51
7876.47
7881.57
7886.64
7891.75
7896.83
7901.93
7906.99
7912.07
7917.08
7922.12
7927.11
7932.03
7936.83
7941.56
7946.12
7950.58
7954.94
7959.15
7963.17
7966.98
7970.6
7974
7977.18
7980.12
7982.79
7985.21
7987.4
7989.34
7991.02
7992.4
7993.5
7994.29
7994.85
7995.14
7995.13
7994.84
7994.25
7993.4
7992.28
7990.91
7989.28
7987.39
7985.25
7982.89
7980.29
7977.48
7974.46
7971.25
7967.86
7964.31
7960.6
7956.75
7952.76
7948.69
7944.52
7940.26
7935.94
7931.54
7927.11
7922.69
7918.28
7913.88
7909.48
7905.1
7900.77
7896.48
7892.26
7888.12
7884.06
7880.06
7876.13
7872.31
7868.58
7864.94
7861.38
7857.9
7854.49
7851.15
7847.88
7844.68
7841.56
7838.49
7835.46
7832.47
7829.51
7826.58
7823.69
7820.84
7818.02
7815.26
7812.56
7809.96
7807.45
7805.01
7802.67
7800.43
7798.29
7796.28
7794.39
7792.63
7790.97
7789.43
7788.01
7786.7
7785.52
7784.46
7783.54
7782.72
7782.02
7781.42
7780.92
7780.52
7780.24
7780.06
7779.98
7779.98
7780.06
7780.23
7780.47
7780.79
7781.18
7781.63
7782.14
7782.73
7783.37
7784.05
7784.78
7785.55
7786.36
7787.21
7788.12
7789.04
7789.99
7790.97
7791.96
7792.98
7794.03
7795.1
7796.19
7797.28
7798.38
7799.5
7800.63
7801.76
7802.91
7804.06
7805.2
7806.36
7807.51
7808.68
7809.85
7811.01
7812.17
7813.33
7814.49
7815.64
7816.79
7817.95
7819.1
7820.24
7821.38
7822.51
7823.64
7824.75
7825.87
7826.97
7828.08
7829.18
7830.26
7831.34
7832.41
7833.47
7834.52
7835.57
7836.61
7837.64
7838.65
7839.66
7840.66
7841.64
7842.62
7843.59
7844.54
7845.49
7846.42
7847.34
7848.26
7849.16
7850.05
7850.93
7851.8
7852.66
7853.51
7854.35
7855.18
7856
7856.81
7857.62
7858.42
7859.21
7860
7860.78
7861.55
7862.32
7863.09
7863.85
7864.61
7865.37
7866.13
7866.89
7867.64
7868.4
7869.15
7869.91
7870.66
7871.42
7872.18
7872.94
7873.71
7874.48
7875.25
7876.03
7876.81
7877.59
7878.39
7879.18
7879.99
7880.8
7881.61
7882.43
7883.26
7884.1
7884.94
7885.79
7886.65
7887.51
7888.38
7889.26
7890.15
7891.04
7891.94
7892.84
7893.75
7894.66
7895.57
7896.49
7897.41
7898.33
7899.25
7900.17
7901.08
7902
7902.91
7903.81
7904.7
7905.59
7906.47
7907.34
7908.19
7909.04
7909.87
7910.68
7911.48
7912.26
7913.02
7913.77
7914.49
7915.19
7915.87
7916.52
7917.16
7917.76
7918.35
7918.9
7919.43
7919.94
7920.42
7920.87
7921.29
7921.69
7922.06
7922.4
7922.72
7923
7923.27
7923.5
7923.71
7923.9
7924.06
7924.2
7924.31
7924.4
7924.46
7924.51
7924.53
7924.54
7924.52
7924.49
7924.44
7924.37
7924.29
7924.19
7924.08
7923.96
7923.83
7923.68
7923.54
7923.4
7923.25
7923.07
7922.95
7922.67
7922.55
7922.57
7922.45
7922.36
7922.22
7922.09
7921.93
7921.77
7921.6
7921.42
7921.24
7921.05
7920.87
7920.69
7920.51
7920.32
7920.16
7919.92
7919.77
7919.72
7919.57
7919.47
7919.31
7919.18
7919.02
7918.89
7918.73
7918.6
7918.44
7918.32
7918.17
7918.05
7917.91
7917.81
7917.7
7917.62
7917.51
7917.46
7917.3
7917.31
7917.29
7917.25
7917.22
7917.19
7917.16
7917.13
7917.12
7917.12
7917.12
7917.14
7917.16
7917.2
7917.25
7917.31
7917.39
7917.48
7917.58
7917.7
7917.84
7917.99
7918.16
7918.35
7918.56
7918.79
7919.04
7919.31
7919.6
7919.92
7920.26
7920.63
7921.02
7921.44
7921.89
7922.37
7922.88
7923.42
7924
7924.61
7925.26
7925.94
7926.66
7927.42
7928.22
7929.06
7929.95
7930.88
7931.86
7932.89
7933.96
7935.09
7936.27
7937.5
7938.79
7940.13
7941.53
7942.99
7944.51
7946.08
7947.73
7949.43
7951.2
7953.03
7954.94
7956.9
7958.94
7961.05
7963.22
7965.47
7967.79
7970.18
7972.65
7975.19
7977.8
7980.49
7983.25
7986.08
7989.04
7991.91
7994.97
8000.08
8020.45
8015.92
8012.92
8010.24
8007.67
8005.07
8002.23
7999.16
7995.8
7992.19
7988.39
7984.45
7980.52
7976.51
7972.44
7968.31
7963.97
7959.61
7955.18
7950.55
7945.91
7941.68
7937.89
7934.14
7930.45
7926.91
7923.07
7918.86
7914.37
7909.87
7905.47
7901.13
7896.96
7893.07
7889.24
7885.45
7881.67
7877.72
7873.6
7869.31
7865.13
7860.95
7856.77
7852.61
7848.45
7844.64
7840.8
7836.99
7833.21
7829.47
7825.96
7822.58
7819.24
7815.96
7812.77
7809.68
7806.68
7803.73
7800.96
7798.27
7795.63
7793.19
7790.88
7788.64
7786.66
7784.75
7782.92
7781.22
7779.65
7778.2
7776.86
7775.6
7774.38
7773.36
7772.5
7771.8
7771.24
7770.73
7770.08
7769.74
7769.49
7769.06
7769.05
7769.24
7769.81
7770.22
7771.03
7771.82
7772.81
7774.1
7775.55
7777.21
7779.05
7780.97
7783.11
7785.33
7787.9
7790.6
7793.49
7796.39
7799.47
7802.56
7806.17
7809.58
7813.22
7816.92
7821.08
7825.09
7829.47
7833.81
7838.25
7842.77
7847.38
7852.05
7856.72
7861.55
7866.43
7871.43
7876.44
7881.5
7886.61
7891.62
7896.82
7901.88
7907.03
7912.03
7917.13
7922.13
7927.18
7932.12
7936.97
7941.7
7946.26
7950.74
7955.12
7959.37
7963.42
7967.25
7970.88
7974.31
7977.51
7980.47
7983.15
7985.57
7987.77
7989.71
7991.42
7992.84
7993.92
7994.69
7995.26
7995.59
7995.6
7995.3
7994.72
7993.84
7992.73
7991.36
7989.73
7987.84
7985.69
7983.32
7980.72
7977.91
7974.87
7971.62
7968.23
7964.69
7960.97
7957.08
7953.06
7948.99
7944.83
7940.56
7936.22
7931.81
7927.34
7922.89
7918.47
7914.08
7909.68
7905.3
7900.95
7896.62
7892.36
7888.23
7884.17
7880.17
7876.22
7872.37
7868.62
7864.98
7861.42
7857.93
7854.51
7851.14
7847.85
7844.64
7841.52
7838.45
7835.4
7832.39
7829.41
7826.48
7823.58
7820.73
7817.9
7815.12
7812.4
7809.8
7807.29
7804.85
7802.51
7800.25
7798.1
7796.07
7794.18
7792.43
7790.78
7789.24
7787.82
7786.5
7785.32
7784.26
7783.34
7782.54
7781.84
7781.25
7780.74
7780.35
7780.07
7779.89
7779.83
7779.84
7779.93
7780.1
7780.35
7780.66
7781.04
7781.49
7782.02
7782.62
7783.27
7783.96
7784.69
7785.46
7786.26
7787.13
7788.05
7788.97
7789.93
7790.9
7791.89
7792.92
7793.97
7795.04
7796.13
7797.23
7798.33
7799.45
7800.58
7801.72
7802.87
7804.01
7805.15
7806.3
7807.46
7808.64
7809.81
7810.97
7812.14
7813.29
7814.45
7815.6
7816.75
7817.9
7819.06
7820.2
7821.34
7822.48
7823.6
7824.71
7825.82
7826.93
7828.04
7829.14
7830.23
7831.31
7832.38
7833.44
7834.49
7835.53
7836.57
7837.6
7838.62
7839.63
7840.63
7841.61
7842.59
7843.56
7844.51
7845.46
7846.39
7847.32
7848.23
7849.13
7850.02
7850.91
7851.77
7852.63
7853.49
7854.33
7855.16
7855.98
7856.8
7857.6
7858.4
7859.2
7859.98
7860.76
7861.54
7862.31
7863.08
7863.84
7864.61
7865.37
7866.12
7866.88
7867.63
7868.39
7869.14
7869.9
7870.66
7871.41
7872.17
7872.93
7873.7
7874.47
7875.24
7876.01
7876.79
7877.58
7878.37
7879.17
7879.97
7880.78
7881.59
7882.42
7883.24
7884.08
7884.92
7885.77
7886.63
7887.5
7888.37
7889.25
7890.13
7891.02
7891.92
7892.83
7893.73
7894.65
7895.56
7896.48
7897.4
7898.33
7899.25
7900.17
7901.09
7902
7902.91
7903.82
7904.72
7905.61
7906.49
7907.36
7908.22
7909.06
7909.9
7910.71
7911.51
7912.3
7913.06
7913.81
7914.53
7915.23
7915.91
7916.57
7917.2
7917.81
7918.4
7918.95
7919.49
7919.99
7920.47
7920.92
7921.35
7921.74
7922.11
7922.45
7922.77
7923.06
7923.32
7923.56
7923.77
7923.95
7924.11
7924.24
7924.36
7924.44
7924.51
7924.55
7924.57
7924.58
7924.56
7924.52
7924.47
7924.4
7924.31
7924.22
7924.09
7923.98
7923.86
7923.73
7923.56
7923.41
7923.13
7922.99
7923.01
7922.86
7922.78
7922.66
7922.54
7922.42
7922.27
7922.13
7921.96
7921.79
7921.61
7921.43
7921.26
7921.07
7920.87
7920.69
7920.42
7920.26
7920.18
7920.03
7919.89
7919.77
7919.61
7919.48
7919.32
7919.18
7919.03
7918.88
7918.74
7918.58
7918.45
7918.27
7918.18
7918.03
7917.94
7917.79
7917.69
7917.47
7917.44
7917.43
7917.36
7917.31
7917.27
7917.23
7917.19
7917.15
7917.13
7917.11
7917.09
7917.09
7917.09
7917.11
7917.13
7917.17
7917.22
7917.28
7917.36
7917.44
7917.55
7917.67
7917.8
7917.95
7918.12
7918.31
7918.51
7918.74
7918.98
7919.25
7919.54
7919.86
7920.2
7920.56
7920.95
7921.37
7921.82
7922.29
7922.8
7923.34
7923.91
7924.52
7925.16
7925.84
7926.56
7927.32
7928.12
7928.96
7929.84
7930.77
7931.74
7932.77
7933.84
7934.96
7936.13
7937.36
7938.64
7939.98
7941.38
7942.83
7944.35
7945.92
7947.56
7949.26
7951.03
7952.86
7954.76
7956.72
7958.76
7960.86
7963.04
7965.28
7967.6
7969.99
7972.45
7974.99
7977.6
7980.28
7983.04
7985.88
7988.83
7991.72
7994.78
7999.89
8020.83
8016.43
8013.49
8010.7
8007.9
8005.18
8002.27
7999.11
7995.72
7992.13
7988.31
7984.25
7980.46
7976.69
7972.91
7968.8
7964.45
7959.9
7955.2
7950.42
7945.76
7941.58
7937.73
7933.99
7930.3
7926.68
7922.8
7918.56
7914.11
7909.43
7904.72
7900.19
7895.91
7892.04
7888.32
7884.58
7880.83
7876.99
7872.86
7868.72
7864.64
7860.48
7856.23
7851.9
7847.85
7844.07
7840.35
7836.55
7832.72
7828.91
7825.35
7822.01
7818.77
7815.49
7812.29
7809.18
7806.13
7803.08
7800.26
7797.62
7795.22
7792.87
7790.52
7788
7785.79
7783.82
7782.12
7780.57
7779.03
7777.59
7776.25
7774.98
7773.73
7772.69
7771.84
7771.24
7770.62
7770.07
7769.6
7769.22
7768.97
7768.66
7768.62
7768.66
7768.48
7769
7769.77
7770.92
7772.35
7773.39
7774.81
7776.27
7778.12
7780.08
7782.23
7784.58
7787.17
7789.85
7792.69
7795.66
7798.68
7802.02
7805.43
7809.04
7812.8
7816.65
7820.44
7824.5
7828.56
7833.09
7837.62
7842.33
7846.98
7851.67
7856.32
7861.2
7866.15
7871.27
7876.39
7881.47
7886.56
7891.66
7896.83
7902.05
7907.01
7912.13
7917.09
7922.23
7927.34
7932.4
7937.23
7941.97
7946.52
7951.1
7955.58
7959.91
7964
7967.83
7971.43
7974.92
7978.2
7981.19
7983.88
7986.31
7988.54
7990.52
7992.29
7993.68
7994.71
7995.54
7996.13
7996.51
7996.51
7996.14
7995.57
7994.8
7993.71
7992.31
7990.59
7988.64
7986.52
7984.19
7981.6
7978.76
7975.7
7972.37
7968.96
7965.43
7961.68
7957.73
7953.69
7949.59
7945.42
7941.15
7936.78
7932.35
7927.81
7923.34
7918.86
7914.46
7910.06
7905.66
7901.29
7896.91
7892.61
7888.44
7884.38
7880.38
7876.43
7872.52
7868.72
7865.02
7861.46
7857.97
7854.52
7851.12
7847.78
7844.54
7841.41
7838.31
7835.24
7832.18
7829.19
7826.24
7823.35
7820.47
7817.62
7814.79
7812.08
7809.48
7806.96
7804.51
7802.15
7799.89
7797.71
7795.68
7793.78
7792.04
7790.4
7788.86
7787.44
7786.11
7784.92
7783.87
7782.95
7782.18
7781.49
7780.9
7780.4
7780
7779.74
7779.6
7779.55
7779.56
7779.66
7779.82
7780.05
7780.37
7780.78
7781.27
7781.84
7782.44
7783.08
7783.77
7784.5
7785.26
7786.09
7786.96
7787.9
7788.83
7789.79
7790.77
7791.77
7792.8
7793.88
7794.95
7796.02
7797.1
7798.21
7799.36
7800.5
7801.64
7802.78
7803.93
7805.06
7806.22
7807.38
7808.56
7809.73
7810.9
7812.06
7813.22
7814.38
7815.52
7816.67
7817.82
7818.97
7820.13
7821.27
7822.4
7823.53
7824.63
7825.75
7826.86
7827.97
7829.07
7830.16
7831.23
7832.31
7833.37
7834.42
7835.47
7836.51
7837.54
7838.55
7839.56
7840.57
7841.56
7842.53
7843.49
7844.45
7845.4
7846.34
7847.27
7848.18
7849.08
7849.97
7850.86
7851.73
7852.59
7853.44
7854.29
7855.12
7855.95
7856.76
7857.57
7858.37
7859.17
7859.96
7860.74
7861.52
7862.29
7863.06
7863.83
7864.59
7865.35
7866.11
7866.86
7867.62
7868.37
7869.13
7869.88
7870.64
7871.39
7872.15
7872.91
7873.67
7874.44
7875.21
7875.99
7876.77
7877.55
7878.34
7879.13
7879.93
7880.74
7881.56
7882.38
7883.21
7884.04
7884.89
7885.74
7886.59
7887.46
7888.33
7889.21
7890.1
7890.99
7891.89
7892.8
7893.71
7894.63
7895.55
7896.47
7897.4
7898.32
7899.25
7900.17
7901.1
7902.02
7902.93
7903.84
7904.74
7905.64
7906.53
7907.4
7908.27
7909.12
7909.95
7910.78
7911.58
7912.37
7913.14
7913.89
7914.61
7915.32
7916
7916.67
7917.3
7917.91
7918.5
7919.06
7919.59
7920.1
7920.58
7921.03
7921.45
7921.85
7922.22
7922.56
7922.88
7923.17
7923.43
7923.66
7923.87
7924.05
7924.21
7924.34
7924.45
7924.53
7924.6
7924.63
7924.66
7924.66
7924.64
7924.59
7924.54
7924.45
7924.37
7924.29
7924.18
7924.03
7923.9
7923.63
7923.5
7923.52
7923.39
7923.29
7923.16
7923.02
7922.89
7922.77
7922.62
7922.48
7922.31
7922.16
7922.01
7921.83
7921.67
7921.46
7921.29
7921.01
7920.84
7920.75
7920.59
7920.45
7920.29
7920.12
7919.96
7919.82
7919.66
7919.52
7919.35
7919.22
7919.02
7918.9
7918.69
7918.59
7918.41
7918.32
7918.13
7918.01
7917.75
7917.72
7917.69
7917.61
7917.54
7917.47
7917.38
7917.32
7917.26
7917.2
7917.16
7917.12
7917.09
7917.07
7917.05
7917.04
7917.04
7917.05
7917.07
7917.1
7917.15
7917.21
7917.28
7917.37
7917.46
7917.58
7917.71
7917.86
7918.03
7918.21
7918.41
7918.63
7918.88
7919.14
7919.43
7919.74
7920.07
7920.43
7920.82
7921.23
7921.67
7922.14
7922.64
7923.17
7923.74
7924.34
7924.98
7925.65
7926.36
7927.11
7927.91
7928.74
7929.62
7930.54
7931.51
7932.52
7933.59
7934.71
7935.87
7937.1
7938.37
7939.71
7941.1
7942.54
7944.05
7945.62
7947.26
7948.95
7950.71
7952.54
7954.43
7956.39
7958.43
7960.53
7962.7
7964.94
7967.25
7969.64
7972.1
7974.63
7977.24
7979.93
7982.69
7985.52
7988.47
7991.35
7994.41
7999.51
8021.67
8017.31
8014.32
8011.44
8008.55
8005.72
8002.71
7999.47
7996.07
7992.49
7988.53
7984.65
7981.05
7977.43
7973.56
7969.43
7965.04
7960.54
7955.94
7951.24
7946.78
7942.51
7938.48
7934.59
7930.76
7926.92
7923.01
7918.61
7914.02
7909.36
7904.62
7899.93
7895.53
7891.45
7887.56
7883.76
7879.97
7875.93
7871.9
7867.93
7863.95
7859.78
7855.47
7851.07
7847.06
7843.42
7839.71
7835.9
7832.04
7828.14
7824.58
7821.24
7818.07
7814.8
7811.59
7808.46
7805.37
7802.3
7799.44
7797.02
7794.52
7792.06
7789.69
7787.33
7784.85
7782.82
7780.96
7779.35
7778.04
7776.69
7775.36
7774.15
7773.01
7771.83
7770.98
7770.33
7769.73
7769.19
7768.75
7768.4
7768.17
7767.99
7767.96
7768.08
7768.25
7768.43
7768.81
7769.37
7769.68
7771.34
7773.16
7775.26
7777.01
7778.89
7780.8
7783.04
7785.69
7788.59
7791.53
7794.44
7797.58
7800.86
7804.49
7807.97
7811.84
7815.54
7819.56
7823.62
7828.13
7832.8
7837.06
7841.7
7846.24
7851.04
7855.78
7860.76
7865.84
7870.97
7876.07
7881.24
7886.43
7891.67
7896.84
7902.11
7907.28
7912.45
7917.56
7922.48
7927.8
7932.64
7937.57
7942.31
7947.07
7951.73
7956.32
7960.64
7964.75
7968.6
7972.26
7975.76
7979.12
7982.24
7985.01
7987.42
7989.72
7991.83
7993.55
7994.9
7995.96
7996.84
7997.48
7997.89
7997.85
7997.46
7996.91
7996.17
7995.11
7993.7
7991.93
7989.98
7987.81
7985.45
7982.89
7980.04
7976.92
7973.54
7970.06
7966.49
7962.77
7958.76
7954.67
7950.5
7946.3
7942.02
7937.62
7933.15
7928.55
7924.01
7919.5
7915.07
7910.64
7906.2
7901.77
7897.33
7892.98
7888.75
7884.67
7880.65
7876.67
7872.75
7868.86
7865.09
7861.44
7857.94
7854.47
7851.06
7847.68
7844.35
7841.12
7838
7834.93
7831.87
7828.84
7825.87
7822.93
7820.01
7817.09
7814.29
7811.56
7808.98
7806.44
7803.97
7801.59
7799.29
7797.1
7795.08
7793.19
7791.46
7789.8
7788.26
7786.85
7785.55
7784.34
7783.28
7782.36
7781.58
7780.94
7780.37
7779.89
7779.49
7779.24
7779.14
7779.09
7779.12
7779.22
7779.37
7779.63
7779.98
7780.44
7780.97
7781.52
7782.12
7782.76
7783.43
7784.18
7784.99
7785.86
7786.77
7787.68
7788.61
7789.54
7790.53
7791.6
7792.65
7793.71
7794.78
7795.84
7796.93
7798.05
7799.21
7800.36
7801.5
7802.65
7803.8
7804.95
7806.09
7807.25
7808.44
7809.62
7810.78
7811.93
7813.08
7814.25
7815.43
7816.59
7817.73
7818.86
7819.99
7821.13
7822.29
7823.42
7824.53
7825.64
7826.75
7827.87
7828.96
7830.02
7831.1
7832.19
7833.27
7834.33
7835.38
7836.41
7837.42
7838.44
7839.46
7840.47
7841.47
7842.44
7843.4
7844.36
7845.31
7846.26
7847.18
7848.08
7848.98
7849.89
7850.79
7851.66
7852.52
7853.37
7854.22
7855.07
7855.9
7856.71
7857.51
7858.32
7859.13
7859.92
7860.71
7861.49
7862.26
7863.03
7863.8
7864.57
7865.33
7866.08
7866.84
7867.59
7868.34
7869.1
7869.85
7870.61
7871.36
7872.12
7872.88
7873.64
7874.4
7875.17
7875.94
7876.72
7877.5
7878.29
7879.08
7879.88
7880.68
7881.5
7882.32
7883.15
7883.99
7884.83
7885.68
7886.54
7887.41
7888.28
7889.16
7890.05
7890.95
7891.85
7892.76
7893.68
7894.6
7895.52
7896.45
7897.38
7898.32
7899.25
7900.18
7901.11
7902.04
7902.96
7903.87
7904.78
7905.69
7906.59
7907.47
7908.34
7909.2
7910.04
7910.87
7911.69
7912.48
7913.25
7914.01
7914.74
7915.45
7916.14
7916.81
7917.45
7918.06
7918.65
7919.21
7919.75
7920.26
7920.74
7921.19
7921.62
7922.01
7922.38
7922.72
7923.04
7923.32
7923.58
7923.82
7924.02
7924.2
7924.36
7924.48
7924.59
7924.68
7924.73
7924.78
7924.78
7924.78
7924.74
7924.7
7924.66
7924.59
7924.47
7924.37
7924.12
7924.01
7924.05
7923.93
7923.84
7923.71
7923.58
7923.44
7923.32
7923.17
7923.04
7922.89
7922.74
7922.6
7922.43
7922.28
7922.07
7921.89
7921.61
7921.43
7921.36
7921.19
7921.04
7920.88
7920.68
7920.52
7920.34
7920.2
7920.01
7919.87
7919.67
7919.53
7919.33
7919.19
7919.05
7918.89
7918.77
7918.57
7918.4
7918.1
7918.06
7918.01
7917.91
7917.81
7917.71
7917.59
7917.49
7917.42
7917.35
7917.28
7917.22
7917.16
7917.11
7917.07
7917.03
7917
7916.98
7916.97
7916.96
7916.97
7916.99
7917.02
7917.06
7917.11
7917.18
7917.26
7917.35
7917.46
7917.59
7917.73
7917.89
7918.07
7918.26
7918.48
7918.71
7918.97
7919.25
7919.55
7919.88
7920.23
7920.61
7921.02
7921.45
7921.91
7922.4
7922.93
7923.48
7924.08
7924.7
7925.36
7926.07
7926.81
7927.59
7928.41
7929.28
7930.19
7931.15
7932.16
7933.21
7934.32
7935.47
7936.69
7937.95
7939.28
7940.66
7942.09
7943.59
7945.15
7946.78
7948.47
7950.22
7952.04
7953.92
7955.88
7957.9
7960
7962.16
7964.4
7966.71
7969.09
7971.54
7974.07
7976.68
7979.36
7982.12
7984.95
7987.9
7990.78
7993.84
7998.94
8023.04
8018.7
8015.65
8012.75
8009.7
8006.74
8003.63
8000.33
7996.92
7993.33
7989.35
7985.68
7982.12
7978.32
7974.34
7970.19
7965.9
7961.5
7957.07
7952.64
7948.13
7943.74
7939.46
7935.29
7931.14
7926.84
7922.53
7918.22
7913.87
7909.28
7904.66
7900.12
7895.71
7891.47
7887.34
7883.22
7879.09
7874.97
7870.98
7867.19
7863.09
7858.92
7854.65
7850.31
7846.3
7842.69
7838.87
7835.03
7831.17
7827.23
7823.54
7820.41
7817.14
7813.83
7810.59
7807.44
7804.39
7801.46
7798.67
7795.99
7793.41
7790.92
7788.53
7786.21
7783.74
7781.54
7779.68
7777.94
7776.68
7775.48
7774.19
7772.97
7771.87
7770.87
7769.94
7769.11
7768.44
7767.98
7767.64
7767.36
7767.16
7766.98
7766.7
7766.82
7767.11
7767.57
7768.29
7769.19
7769.97
7770.96
7771.86
7772.39
7774.55
7776.9
7779.66
7781.62
7783.93
7786.64
7789.79
7793
7796.2
7799.55
7803.09
7806.81
7810.69
7814.67
7818.57
7822.77
7827.04
7831.64
7836.16
7841.12
7845.96
7850.41
7855.26
7860.07
7865.24
7870.46
7875.66
7880.87
7886.16
7891.45
7896.77
7902.1
7907.43
7912.6
7917.72
7922.98
7928.45
7933.64
7938.17
7943.1
7947.58
7952.55
7957.22
7961.77
7966.02
7969.97
7973.7
7977.09
7980.41
7983.52
7986.5
7989.19
7991.53
7993.55
7995.24
7996.51
7997.7
7998.61
7999.4
7999.76
7999.62
7999.3
7998.75
7998
7996.99
7995.59
7993.8
7991.79
7989.59
7987.19
7984.63
7981.75
7978.55
7975.12
7971.61
7967.96
7964.24
7960.22
7956
7951.77
7947.48
7943.18
7938.74
7934.21
7929.51
7924.9
7920.37
7915.91
7911.4
7906.88
7902.4
7897.9
7893.45
7889.15
7884.96
7880.93
7876.91
7872.94
7869.03
7865.14
7861.4
7857.83
7854.33
7850.85
7847.44
7844.01
7840.72
7837.51
7834.42
7831.36
7828.3
7825.27
7822.26
7819.26
7816.37
7813.56
7810.91
7808.28
7805.69
7803.19
7800.75
7798.43
7796.28
7794.29
7792.44
7790.64
7788.93
7787.37
7785.98
7784.76
7783.62
7782.59
7781.65
7780.8
7780.11
7779.55
7779.11
7778.83
7778.65
7778.52
7778.48
7778.53
7778.64
7778.79
7779.09
7779.48
7780
7780.52
7781.08
7781.67
7782.3
7783.03
7783.81
7784.68
7785.58
7786.47
7787.38
7788.29
7789.25
7790.25
7791.32
7792.42
7793.49
7794.55
7795.61
7796.71
7797.85
7799.03
7800.18
7801.33
7802.48
7803.63
7804.79
7805.93
7807.09
7808.29
7809.46
7810.61
7811.75
7812.92
7814.1
7815.28
7816.44
7817.59
7818.72
7819.83
7820.97
7822.1
7823.27
7824.41
7825.52
7826.63
7827.7
7828.78
7829.87
7830.96
7832.06
7833.14
7834.2
7835.24
7836.26
7837.28
7838.31
7839.34
7840.35
7841.34
7842.32
7843.28
7844.24
7845.2
7846.15
7847.07
7847.97
7848.88
7849.79
7850.69
7851.58
7852.43
7853.29
7854.14
7855
7855.83
7856.65
7857.46
7858.27
7859.08
7859.88
7860.67
7861.45
7862.22
7862.99
7863.76
7864.53
7865.3
7866.06
7866.81
7867.56
7868.3
7869.06
7869.81
7870.57
7871.33
7872.08
7872.82
7873.58
7874.34
7875.12
7875.89
7876.67
7877.44
7878.23
7879.01
7879.8
7880.6
7881.43
7882.25
7883.08
7883.91
7884.76
7885.61
7886.46
7887.33
7888.21
7889.1
7889.99
7890.89
7891.8
7892.71
7893.63
7894.56
7895.49
7896.43
7897.37
7898.31
7899.25
7900.19
7901.13
7902.06
7902.99
7903.92
7904.84
7905.76
7906.66
7907.56
7908.44
7909.31
7910.16
7911
7911.82
7912.63
7913.41
7914.17
7914.91
7915.63
7916.33
7917
7917.65
7918.26
7918.85
7919.42
7919.96
7920.47
7920.95
7921.4
7921.83
7922.23
7922.6
7922.94
7923.25
7923.54
7923.79
7924.03
7924.24
7924.41
7924.57
7924.69
7924.79
7924.86
7924.92
7924.93
7924.95
7924.95
7924.93
7924.86
7924.79
7924.57
7924.5
7924.56
7924.47
7924.4
7924.28
7924.16
7924.03
7923.92
7923.78
7923.65
7923.49
7923.34
7923.19
7923.04
7922.86
7922.69
7922.42
7922.25
7922.19
7922.02
7921.89
7921.69
7921.54
7921.33
7921.17
7920.98
7920.82
7920.62
7920.47
7920.27
7920.11
7919.9
7919.75
7919.59
7919.42
7919.3
7919.06
7918.85
7918.53
7918.48
7918.42
7918.3
7918.18
7918.05
7917.91
7917.79
7917.69
7917.59
7917.49
7917.4
7917.32
7917.24
7917.17
7917.11
7917.05
7917
7916.95
7916.91
7916.89
7916.87
7916.86
7916.86
7916.88
7916.9
7916.93
7916.98
7917.04
7917.11
7917.2
7917.31
7917.42
7917.56
7917.71
7917.88
7918.07
7918.28
7918.5
7918.75
7919.02
7919.31
7919.63
7919.97
7920.34
7920.73
7921.16
7921.61
7922.09
7922.6
7923.15
7923.72
7924.34
7924.99
7925.68
7926.4
7927.17
7927.98
7928.84
7929.73
7930.68
7931.67
7932.71
7933.8
7934.95
7936.15
7937.4
7938.71
7940.08
7941.5
7942.99
7944.54
7946.15
7947.83
7949.57
7951.38
7953.26
7955.2
7957.22
7959.3
7961.46
7963.69
7965.99
7968.37
7970.82
7973.34
7975.94
7978.62
7981.37
7984.2
7987.15
7990.03
7993.08
7998.18
8024.85
8020.55
8017.28
8014.33
8011.14
8008.11
8004.96
8001.61
7998.14
7994.53
7990.77
7987.01
7983.22
7979.32
7975.3
7971.14
7966.86
7962.48
7958.05
7953.58
7949.11
7944.68
7940.27
7935.84
7931.28
7926.88
7922.58
7918.38
7913.89
7909.28
7904.67
7900.11
7895.63
7891.16
7886.54
7882.12
7877.98
7874.26
7870.36
7866.31
7862.12
7857.94
7853.75
7849.61
7845.59
7841.71
7837.8
7833.93
7830.08
7826.29
7822.58
7819.28
7815.9
7812.56
7809.3
7806.14
7803.09
7800.15
7797.32
7794.6
7792
7789.5
7787.13
7784.86
7782.54
7780.05
7778.1
7776.35
7775.14
7774
7772.71
7771.48
7770.37
7769.38
7768.5
7767.64
7766.65
7766.26
7766.15
7766
7765.88
7765.84
7765.79
7765.97
7766.46
7767.02
7767.6
7768.46
7769.22
7770.23
7771.37
7772.41
7773.69
7774.63
7775.52
7778.56
7781.5
7784.97
7788.13
7791.19
7794.26
7797.6
7801.23
7805.08
7809.11
7812.98
7817.15
7821.06
7825.75
7830.4
7835.08
7839.85
7844.65
7849.6
7854.94
7859.99
7864.41
7869.63
7874.69
7880.14
7885.81
7891.33
7896.7
7902.07
7907.44
7912.83
7918.14
7923.5
7928.75
7934.16
7939.22
7944.44
7949.15
7953.53
7958.42
7962.91
7967.11
7971.2
7975.27
7978.84
7982.17
7985.39
7988.4
7991.15
7993.57
7995.68
7997.39
7998.68
7999.91
8000.97
8001.8
8002.13
8001.98
8001.65
8001.11
8000.43
7999.39
7997.98
7996.22
7994.09
7991.87
7989.47
7986.88
7983.93
7980.67
7977.15
7973.58
7969.9
7966.11
7962.05
7957.71
7953.37
7949.03
7944.66
7940.13
7935.5
7930.71
7926
7921.49
7916.92
7912.3
7907.69
7903.13
7898.6
7894.01
7889.6
7885.28
7881.16
7877.11
7873.07
7869.09
7865.18
7861.34
7857.6
7853.92
7850.35
7846.95
7843.52
7840.1
7836.91
7833.74
7830.59
7827.47
7824.37
7821.25
7818.28
7815.39
7812.66
7809.95
7807.27
7804.67
7802.13
7799.64
7797.35
7795.2
7793.26
7791.37
7789.57
7787.84
7786.3
7784.91
7783.72
7782.6
7781.59
7780.7
7779.9
7779.17
7778.63
7778.21
7777.93
7777.82
7777.72
7777.71
7777.79
7777.95
7778.14
7778.41
7778.89
7779.41
7779.95
7780.5
7781.08
7781.79
7782.55
7783.43
7784.3
7785.17
7786.08
7786.99
7787.91
7788.9
7789.93
7791.05
7792.13
7793.21
7794.28
7795.34
7796.45
7797.64
7798.8
7799.95
7801.09
7802.22
7803.36
7804.57
7805.76
7806.93
7808.1
7809.26
7810.39
7811.55
7812.73
7813.93
7815.1
7816.25
7817.4
7818.54
7819.65
7820.78
7821.92
7823.09
7824.23
7825.34
7826.45
7827.53
7828.59
7829.69
7830.81
7831.9
7832.97
7834.02
7835.05
7836.07
7837.11
7838.17
7839.19
7840.19
7841.19
7842.17
7843.13
7844.1
7845.07
7846.01
7846.94
7847.85
7848.76
7849.69
7850.59
7851.47
7852.34
7853.19
7854.06
7854.92
7855.75
7856.58
7857.39
7858.21
7859.03
7859.83
7860.62
7861.41
7862.18
7862.96
7863.73
7864.5
7865.26
7866.02
7866.78
7867.53
7868.27
7869.02
7869.77
7870.53
7871.28
7872.03
7872.77
7873.53
7874.3
7875.06
7875.83
7876.6
7877.37
7878.14
7878.92
7879.71
7880.52
7881.34
7882.16
7882.98
7883.82
7884.66
7885.51
7886.37
7887.24
7888.12
7889.01
7889.91
7890.81
7891.72
7892.65
7893.58
7894.51
7895.45
7896.39
7897.34
7898.29
7899.25
7900.2
7901.15
7902.1
7903.05
7903.98
7904.91
7905.84
7906.77
7907.67
7908.57
7909.45
7910.31
7911.16
7911.99
7912.81
7913.6
7914.38
7915.12
7915.85
7916.56
7917.24
7917.89
7918.51
7919.11
7919.69
7920.23
7920.74
7921.22
7921.68
7922.11
7922.51
7922.88
7923.22
7923.53
7923.81
7924.07
7924.3
7924.5
7924.66
7924.81
7924.92
7925.02
7925.12
7925.16
7925.21
7925.18
7925.17
7924.99
7924.96
7925.04
7924.98
7924.94
7924.85
7924.75
7924.64
7924.55
7924.42
7924.3
7924.15
7924.01
7923.87
7923.72
7923.54
7923.37
7923.11
7922.93
7922.89
7922.71
7922.59
7922.4
7922.24
7922.02
7921.86
7921.66
7921.49
7921.29
7921.13
7920.9
7920.74
7920.49
7920.36
7920.14
7920.01
7919.78
7919.57
7919.22
7919.16
7919.07
7918.93
7918.79
7918.63
7918.48
7918.31
7918.16
7918.03
7917.91
7917.79
7917.68
7917.57
7917.46
7917.36
7917.27
7917.18
7917.1
7917.03
7916.96
7916.9
7916.85
7916.81
7916.78
7916.75
7916.74
7916.73
7916.73
7916.75
7916.77
7916.81
7916.87
7916.93
7917.01
7917.11
7917.22
7917.34
7917.49
7917.65
7917.82
7918.02
7918.24
7918.47
7918.73
7919.01
7919.32
7919.65
7920
7920.38
7920.79
7921.23
7921.69
7922.19
7922.72
7923.28
7923.88
7924.52
7925.19
7925.9
7926.65
7927.44
7928.28
7929.16
7930.08
7931.06
7932.08
7933.16
7934.29
7935.47
7936.7
7938
7939.35
7940.76
7942.23
7943.77
7945.36
7947.03
7948.75
7950.55
7952.41
7954.35
7956.35
7958.43
7960.57
7962.79
7965.09
7967.45
7969.9
7972.42
7975.01
7977.69
7980.43
7983.26
7986.2
7989.08
7992.13
7997.23
8027.07
8022.75
8019.28
8016.34
8013.03
8009.86
8006.6
8003.17
7999.64
7995.99
7992.24
7988.37
7984.52
7980.53
7976.43
7972.23
7967.93
7963.53
7959.08
7954.59
7950.07
7945.56
7941.04
7936.45
7931.68
7927.13
7922.92
7918.52
7913.92
7909.28
7904.6
7899.79
7894.88
7890.15
7885.83
7881.53
7877.71
7873.76
7869.58
7865.32
7861.07
7856.85
7852.67
7848.54
7844.48
7840.48
7836.54
7832.65
7828.76
7825.03
7821.32
7817.7
7814.3
7810.97
7807.7
7804.51
7801.45
7798.5
7795.65
7792.91
7790.29
7787.79
7785.42
7783.17
7781.05
7778.81
7776.4
7774.46
7773.38
7772.2
7770.91
7769.69
7768.58
7767.59
7766.71
7765.77
7764.83
7764.35
7764.25
7764.3
7764.28
7764.33
7764.49
7764.78
7765.18
7765.67
7766.24
7766.73
7767.71
7769.1
7770.51
7771.71
7773.14
7774.58
7775.89
7778.02
7779.94
7781.3
7785.01
7788.66
7792.6
7795.95
7799.39
7803.02
7806.97
7811.21
7815.28
7819.37
7823.92
7828.8
7833.62
7838.48
7843.53
7848.39
7853.54
7858.6
7863.91
7869.89
7875.36
7879.79
7885.17
7890.37
7896.03
7901.88
7907.41
7912.74
7918.36
7923.76
7929.32
7934.67
7940.02
7945.26
7950.21
7955.17
7959.88
7965.21
7969.93
7973.4
7977.58
7980.88
7984.23
7987.74
7990.97
7993.72
7996.19
7998.27
7999.97
8001.34
8002.7
8003.92
8004.68
8005.02
8004.97
8004.52
8004.09
8003.41
8002.3
8000.86
7999.13
7996.92
7994.68
7992.3
7989.58
7986.56
7983.3
7979.64
7976.02
7972.33
7968.36
7964.2
7959.83
7955.35
7950.95
7946.43
7941.78
7937.04
7932.11
7927.4
7922.79
7918.06
7913.32
7908.56
7903.88
7899.28
7894.72
7890.15
7885.63
7881.3
7877.19
7873.1
7869.03
7865.04
7861.12
7857.19
7853.34
7849.68
7846.1
7842.69
7839.35
7836.03
7832.75
7829.52
7826.31
7823.09
7819.99
7817
7814.18
7811.4
7808.63
7805.94
7803.34
7800.83
7798.37
7796
7793.83
7791.81
7790.02
7788.26
7786.6
7785.04
7783.63
7782.44
7781.3
7780.24
7779.44
7778.77
7778.15
7777.58
7777.11
7776.84
7776.75
7776.75
7776.78
7776.89
7777.06
7777.27
7777.6
7778.16
7778.69
7779.26
7779.88
7780.49
7781.18
7782
7782.91
7783.79
7784.69
7785.62
7786.55
7787.48
7788.48
7789.56
7790.69
7791.78
7792.87
7793.97
7795.04
7796.14
7797.36
7798.52
7799.67
7800.8
7801.92
7803.08
7804.31
7805.52
7806.69
7807.86
7809.01
7810.15
7811.31
7812.5
7813.71
7814.87
7816.03
7817.17
7818.31
7819.43
7820.55
7821.74
7822.88
7824.01
7825.12
7826.23
7827.32
7828.39
7829.46
7830.6
7831.69
7832.76
7833.82
7834.85
7835.86
7836.89
7837.95
7838.99
7840
7840.99
7841.98
7842.97
7843.94
7844.9
7845.84
7846.77
7847.71
7848.65
7849.56
7850.46
7851.36
7852.24
7853.1
7853.97
7854.81
7855.64
7856.49
7857.33
7858.16
7858.97
7859.77
7860.55
7861.35
7862.14
7862.92
7863.7
7864.46
7865.22
7865.97
7866.73
7867.49
7868.24
7868.99
7869.73
7870.48
7871.22
7871.97
7872.72
7873.48
7874.23
7874.98
7875.74
7876.5
7877.27
7878.05
7878.83
7879.62
7880.42
7881.23
7882.04
7882.87
7883.7
7884.54
7885.4
7886.26
7887.12
7888.01
7888.91
7889.81
7890.72
7891.63
7892.57
7893.51
7894.45
7895.39
7896.35
7897.31
7898.28
7899.24
7900.21
7901.18
7902.14
7903.1
7904.06
7905
7905.95
7906.88
7907.81
7908.72
7909.61
7910.5
7911.36
7912.21
7913.04
7913.85
7914.63
7915.39
7916.13
7916.85
7917.53
7918.19
7918.82
7919.43
7920.01
7920.56
7921.07
7921.56
7922.02
7922.45