/*--------------------------------*- C++ -*----------------------------------*\
| =========                 |                                                 |
| \\      /  F ield         | OpenFOAM: The Open Source CFD Toolbox           |
|  \\    /   O peration     | Version:  v2006                                 |
|   \\  /    A nd           | Website:  www.openfoam.com                      |
|    \\/     M anipulation  |                                                 |
\*---------------------------------------------------------------------------*/
FoamFile
{
    version     2.0;
    format      ascii;
    class       volVectorField;
    location    "9.8";
    object      U;
}
// * * * * * * * * * * * * * * * * * * * * * * * * * * * * * * * * * * * * * //

dimensions      [0 1 -1 0 0 0 0];


internalField   nonuniform List<vector> 
33000
(
(0.0480699 0 0.0140228)
(0.0631358 0 0.00950811)
(0.038116 0 0.00278776)
(0.0398428 0 -0.00651761)
(0.0424295 0 -0.0129009)
(0.052562 0 -0.012245)
(0.070238 0 -0.0139191)
(0.0802352 0 -0.0130573)
(0.094633 0 -0.0121669)
(0.106502 0 -0.0133908)
(0.119222 0 -0.0124991)
(0.129772 0 -0.0101703)
(0.13733 0 -0.00841935)
(0.143025 0 -0.00639732)
(0.147146 0 -0.00616211)
(0.151972 0 -0.00564016)
(0.157296 0 -0.00349993)
(0.161756 0 -0.00181511)
(0.166226 0 -0.002415)
(0.172497 0 -0.00150379)
(0.176703 0 0.0018025)
(0.176271 0 0.0058746)
(0.171036 0 0.00924975)
(0.165805 0 0.00909562)
(0.159144 0 0.0116155)
(0.147112 0 0.0157744)
(0.134145 0 0.012831)
(0.124705 0 0.00761593)
(0.118385 0 0.00303772)
(0.116853 0 -0.000490317)
(0.116372 0 -0.000991688)
(0.116004 0 5.15157e-05)
(0.114482 0 0.00396639)
(0.108605 0 0.00663301)
(0.101204 0 0.00629806)
(0.0943835 0 0.0136184)
(0.0789754 0 0.0178081)
(0.0635855 0 0.0127781)
(0.0525817 0 0.00834723)
(0.0420106 0 0.00611304)
(0.0354332 0 0.00297577)
(0.0321292 0 0.00169285)
(0.0292923 0 0.00222364)
(0.0252583 0 0.00516349)
(0.01766 0 0.00603743)
(0.0126319 0 0.00226225)
(0.0110142 0 0.000387794)
(0.0102999 0 0.000297447)
(0.00916338 0 0.00214326)
(0.0051975 0 0.00493313)
(0.000172763 0 0.00382738)
(-0.00277175 0 0.00110103)
(-0.00318058 0 -0.000548372)
(-0.00227133 0 -0.000863337)
(-0.000795924 0 -0.00119861)
(0.000901007 0 -0.00152454)
(0.00282504 0 -0.00175325)
(0.00438802 0 -0.00170479)
(0.00533429 0 -0.00158578)
(0.00556598 0 -0.000351547)
(0.00397524 0 0.00200002)
(0.00101932 0 0.00409392)
(-0.00253243 0 0.00422359)
(-0.00606611 0 0.00288689)
(-0.00853699 0 0.00160374)
(-0.0104887 0 0.000848556)
(-0.0117182 0 0.000276019)
(-0.011896 0 -0.000989058)
(-0.0104172 0 -0.0024523)
(-0.00754292 0 -0.00342216)
(-0.00394009 0 -0.00406283)
(0.000416413 0 -0.00402368)
(0.00367483 0 -0.0039086)
(0.00639763 0 -0.00387082)
(0.0092999 0 -0.0040051)
(0.0105963 0 -0.00455796)
(0.0166692 0 -0.00449603)
(0.0189547 0 -0.000902158)
(0.0191024 0 0.000384087)
(0.0208302 0 0.00125515)
(0.0202988 0 0.00282498)
(0.0186551 0 0.0037478)
(0.0167018 0 0.00337584)
(0.0149694 0 0.00153142)
(0.0137258 0 0.00027149)
(0.0123546 0 -5.80516e-05)
(0.0109203 0 -0.000141126)
(0.00979015 0 9.85062e-05)
(0.00944752 0 -1.76613e-05)
(0.00920697 0 0.000167679)
(0.00894287 0 -0.000137946)
(0.00883634 0 -0.000211197)
(0.00876193 0 -8.29887e-05)
(0.00825219 0 0.000259017)
(0.00805002 0 0.000934533)
(0.00680437 0 0.00113734)
(0.00644259 0 0.00155644)
(0.00451825 0 0.00154226)
(0.00412924 0 0.00414201)
(-0.000759686 0 0.00457245)
(-0.00453761 0 0.00284274)
(-0.00879719 0 -0.00204284)
(-0.00872571 0 -0.00448417)
(-0.0092536 0 -0.00215928)
(-0.00878905 0 -4.81922e-05)
(-0.00736158 0 0.00143489)
(-0.00641901 0 0.000705451)
(-0.00600839 0 0.000537111)
(-0.00623583 0 -0.000857154)
(-0.00562326 0 -0.00155577)
(-0.00485462 0 -0.00145494)
(-0.00433362 0 -0.00106643)
(-0.00322856 0 -0.000562174)
(-0.00272283 0 -0.000314381)
(-0.00189705 0 0.000333439)
(-0.00237681 0 0.000479663)
(-0.0019365 0 0.00192004)
(-0.00434531 0 0.00198908)
(-0.00490185 0 0.000450814)
(-0.00565517 0 -0.00189312)
(-0.00423064 0 -0.00287416)
(-0.00367432 0 -0.00147992)
(-0.00270203 0 -0.000806343)
(-0.00113011 0 -0.00020225)
(7.22504e-05 0 -0.000318383)
(0.000946128 0 -0.000642004)
(0.00196117 0 -0.00102532)
(0.00282619 0 -0.000964626)
(0.00374363 0 -0.000905275)
(0.00483169 0 -0.000764664)
(0.00585938 0 -0.000710373)
(0.00686439 0 -0.000732569)
(0.00782625 0 -0.000743154)
(0.00870776 0 -0.000737157)
(0.00961997 0 -0.000762686)
(0.0105619 0 -0.000758697)
(0.0115472 0 -0.0007394)
(0.0125146 0 -0.000706594)
(0.0134529 0 -0.000700133)
(0.0143817 0 -0.000700906)
(0.0152936 0 -0.000705923)
(0.0162031 0 -0.000696934)
(0.0170764 0 -0.000656002)
(0.0178966 0 -0.00061914)
(0.0186885 0 -0.000603945)
(0.019462 0 -0.000601611)
(0.020233 0 -0.000603767)
(0.0209945 0 -0.000586684)
(0.0217161 0 -0.000542873)
(0.0223707 0 -0.000490918)
(0.0229896 0 -0.000485278)
(0.0236148 0 -0.000487063)
(0.0242252 0 -0.000467752)
(0.0247969 0 -0.000437379)
(0.0253244 0 -0.000399493)
(0.0258138 0 -0.000367244)
(0.026272 0 -0.000344652)
(0.0267041 0 -0.000328374)
(0.0271066 0 -0.000304856)
(0.0274691 0 -0.000274116)
(0.0277938 0 -0.000242938)
(0.028085 0 -0.000214715)
(0.0283426 0 -0.000187543)
(0.0285671 0 -0.000159341)
(0.028753 0 -0.000121924)
(0.0288819 0 -8.29392e-05)
(0.0289654 0 -5.38085e-05)
(0.0290205 0 -3.03111e-05)
(0.0290463 0 1.14045e-06)
(0.0290198 0 5.31034e-05)
(0.028918 0 0.00010381)
(0.0287708 0 0.000126952)
(0.0285994 0 0.000150887)
(0.0283869 0 0.000182888)
(0.0281347 0 0.000226438)
(0.0278152 0 0.000296792)
(0.0274048 0 0.000359659)
(0.0269304 0 0.000392193)
(0.026409 0 0.000415594)
(0.0258565 0 0.000445174)
(0.0252662 0 0.000491462)
(0.0246101 0 0.000544436)
(0.0238987 0 0.000593187)
(0.0231147 0 0.000655421)
(0.0222416 0 0.000702156)
(0.0213255 0 0.000722102)
(0.0203893 0 0.000742124)
(0.0194211 0 0.00079031)
(0.0183859 0 0.000851143)
(0.0172876 0 0.000894071)
(0.016144 0 0.000912871)
(0.0149806 0 0.000908131)
(0.0138208 0 0.00091006)
(0.0126526 0 0.000918296)
(0.0114792 0 0.000929648)
(0.0102822 0 0.000960879)
(0.00904655 0 0.000985136)
(0.00780272 0 0.000983675)
(0.00657427 0 0.000952428)
(0.00540034 0 0.000905132)
(0.00426709 0 0.000883672)
(0.0031446 0 0.000874068)
(0.00203778 0 0.000863422)
(0.000949836 0 0.000846352)
(-0.000103015 0 0.00081001)
(-0.00110154 0 0.000763592)
(-0.00205478 0 0.000735558)
(-0.00298613 0 0.000724179)
(-0.00390802 0 0.000720718)
(-0.00480916 0 0.000681884)
(-0.00563694 0 0.000627098)
(-0.0064173 0 0.000601805)
(-0.00717876 0 0.000582385)
(-0.00790905 0 0.000568975)
(-0.0086314 0 0.000568212)
(-0.00934449 0 0.000553051)
(-0.0100271 0 0.000518904)
(-0.0106612 0 0.000475104)
(-0.0112472 0 0.000447719)
(-0.0118084 0 0.000428827)
(-0.0123451 0 0.000412323)
(-0.0128642 0 0.000406859)
(-0.0133766 0 0.000398154)
(-0.0138668 0 0.000375663)
(-0.0143255 0 0.000343209)
(-0.0147445 0 0.000313524)
(-0.015131 0 0.000293537)
(-0.0154965 0 0.000277259)
(-0.0158426 0 0.00027042)
(-0.0161845 0 0.000265446)
(-0.0165107 0 0.000248145)
(-0.0168102 0 0.000225268)
(-0.0170787 0 0.000196727)
(-0.0173142 0 0.00017709)
(-0.0175332 0 0.000167152)
(-0.0177383 0 0.000156658)
(-0.0179292 0 0.000143432)
(-0.0181042 0 0.000129365)
(-0.0182649 0 0.000120536)
(-0.0184141 0 0.000111876)
(-0.0185479 0 0.00010277)
(-0.0186643 0 8.32963e-05)
(-0.0187547 0 6.19846e-05)
(-0.0188272 0 5.16924e-05)
(-0.0188906 0 4.44329e-05)
(-0.0189444 0 4.0576e-05)
(-0.0189961 0 4.25397e-05)
(-0.0190466 0 3.34922e-05)
(-0.0190714 0 7.75266e-06)
(-0.0190699 0 -4.44848e-06)
(-0.019064 0 -8.4596e-06)
(-0.0190511 0 -1.28922e-05)
(-0.0190337 0 -1.28938e-05)
(-0.0190163 0 -1.5288e-05)
(-0.0189886 0 -2.55964e-05)
(-0.0189456 0 -3.85415e-05)
(-0.0188902 0 -4.74469e-05)
(-0.0188282 0 -5.12842e-05)
(-0.0187641 0 -5.38253e-05)
(-0.018695 0 -5.63366e-05)
(-0.0186179 0 -6.14804e-05)
(-0.0185327 0 -7.00034e-05)
(-0.018437 0 -7.98184e-05)
(-0.0183319 0 -8.48405e-05)
(-0.0182244 0 -8.43483e-05)
(-0.0181195 0 -8.10569e-05)
(-0.0180164 0 -8.15571e-05)
(-0.0179045 0 -9.45794e-05)
(-0.0177741 0 -0.000107028)
(-0.017635 0 -0.000110485)
(-0.0174949 0 -0.000113031)
(-0.0173493 0 -0.000116736)
(-0.0172003 0 -0.000116824)
(-0.0170518 0 -0.000114001)
(-0.0169046 0 -0.00011538)
(-0.016751 0 -0.000125215)
(-0.0165853 0 -0.000135398)
(-0.0164108 0 -0.000139249)
(-0.0162327 0 -0.000141949)
(-0.0160497 0 -0.000146623)
(-0.0158603 0 -0.000150887)
(-0.0156672 0 -0.000150934)
(-0.0154767 0 -0.000147302)
(-0.0152881 0 -0.000151387)
(-0.0150867 0 -0.000164528)
(-0.0148709 0 -0.000171063)
(-0.0146529 0 -0.000172956)
(-0.0144317 0 -0.000176656)
(-0.0142047 0 -0.000181215)
(-0.013972 0 -0.00018273)
(-0.0137391 0 -0.000182015)
(-0.0135042 0 -0.000186476)
(-0.0132594 0 -0.000195686)
(-0.0130048 0 -0.000204111)
(-0.0127426 0 -0.000209282)
(-0.0124753 0 -0.000214313)
(-0.0122 0 -0.000216536)
(-0.0119232 0 -0.000215912)
(-0.0116432 0 -0.000220961)
(-0.0113556 0 -0.00022997)
(-0.0110602 0 -0.000237561)
(-0.0107559 0 -0.000243925)
(-0.0104426 0 -0.000247283)
(-0.0101272 0 -0.000246325)
(-0.00981168 0 -0.000248991)
(-0.00949025 0 -0.000255549)
(-0.00916268 0 -0.000261893)
(-0.00882782 0 -0.000263599)
(-0.00849312 0 -0.000261923)
(-0.00815938 0 -0.000262316)
(-0.00782506 0 -0.000264445)
(-0.00748944 0 -0.00026515)
(-0.0071546 0 -0.000261911)
(-0.00682544 0 -0.000255527)
(-0.00650429 0 -0.000248966)
(-0.00619131 0 -0.000243355)
(-0.00588604 0 -0.000238052)
(-0.00558816 0 -0.000231389)
(-0.00529904 0 -0.000223372)
(-0.0050204 0 -0.000214579)
(-0.00475308 0 -0.000205528)
(-0.0044975 0 -0.000196256)
(-0.00425386 0 -0.000187236)
(-0.00402141 0 -0.000178047)
(-0.00380088 0 -0.000168433)
(-0.00359207 0 -0.00015927)
(-0.00339455 0 -0.000150927)
(-0.00320738 0 -0.000143112)
(-0.00303062 0 -0.000134606)
(-0.00286515 0 -0.000125694)
(-0.00270986 0 -0.000118103)
(-0.00256348 0 -0.000111731)
(-0.00242467 0 -0.000106184)
(-0.00229349 0 -0.000100218)
(-0.0021701 0 -9.38323e-05)
(-0.00205505 0 -8.74367e-05)
(-0.00194748 0 -8.22923e-05)
(-0.00184574 0 -7.83096e-05)
(-0.00174828 0 -7.53359e-05)
(-0.0016542 0 -7.23141e-05)
(-0.00156403 0 -6.95102e-05)
(-0.00147696 0 -6.71884e-05)
(-0.0013927 0 -6.53672e-05)
(-0.0013106 0 -6.40401e-05)
(-0.00123023 0 -6.31229e-05)
(-0.00115086 0 -6.27716e-05)
(-0.00107143 0 -6.2896e-05)
(-0.000991525 0 -6.32209e-05)
(-0.000910939 0 -6.383e-05)
(-0.000829238 0 -6.47051e-05)
(-0.000746199 0 -6.58831e-05)
(-0.000661387 0 -6.72779e-05)
(-0.00057471 0 -6.89357e-05)
(-0.000485602 0 -7.12062e-05)
(-0.000393172 0 -7.38703e-05)
(-0.000297387 0 -7.66763e-05)
(-0.000197983 0 -7.95299e-05)
(-9.50505e-05 0 -8.22642e-05)
(1.12125e-05 0 -8.5101e-05)
(0.000121244 0 -8.81502e-05)
(0.00023525 0 -9.12787e-05)
(0.000353344 0 -9.43735e-05)
(0.000475481 0 -9.75276e-05)
(0.000601634 0 -0.000100743)
(0.000731914 0 -0.000103676)
(0.000865322 0 -0.000105671)
(0.00100116 0 -0.000107495)
(0.00114012 0 -0.000110083)
(0.0012831 0 -0.000113583)
(0.00143048 0 -0.000116944)
(0.001581 0 -0.000118883)
(0.00173267 0 -0.000119785)
(0.00188588 0 -0.000121238)
(0.00204213 0 -0.000123322)
(0.00220096 0 -0.000125357)
(0.00236249 0 -0.000127014)
(0.0025251 0 -0.00012769)
(0.00268844 0 -0.000128604)
(0.00285269 0 -0.000128244)
(0.00301628 0 -0.000126903)
(0.00317879 0 -0.000126375)
(0.00334234 0 -0.000128492)
(0.00350766 0 -0.000129085)
(0.0036727 0 -0.000128878)
(0.00383638 0 -0.000127116)
(0.00399875 0 -0.000126263)
(0.00415937 0 -0.000123871)
(0.0043177 0 -0.000123386)
(0.00447516 0 -0.00012215)
(0.00463114 0 -0.000121063)
(0.00478398 0 -0.000117619)
(0.00493346 0 -0.00011572)
(0.00508023 0 -0.000113899)
(0.00522541 0 -0.000113012)
(0.00536742 0 -0.000110422)
(0.00550638 0 -0.000108328)
(0.00564186 0 -0.000105751)
(0.00577445 0 -0.000101885)
(0.00590098 0 -9.84215e-05)
(0.00602448 0 -9.56225e-05)
(0.00614298 0 -9.41834e-05)
(0.00625906 0 -9.07063e-05)
(0.00637128 0 -8.99358e-05)
(0.00648084 0 -8.55004e-05)
(0.00658665 0 -8.38689e-05)
(0.00668411 0 -7.39153e-05)
(0.00677606 0 -7.68848e-05)
(0.00686599 0 -7.2143e-05)
(0.00695626 0 -7.48859e-05)
(0.00703743 0 -6.38585e-05)
(0.00711689 0 -6.30705e-05)
(0.00718432 0 -5.05466e-05)
(0.00725266 0 -5.3638e-05)
(0.007316 0 -4.79428e-05)
(0.00737687 0 -4.8696e-05)
(0.00743159 0 -4.29132e-05)
(0.00747937 0 -3.53754e-05)
(0.00752181 0 -2.97632e-05)
(0.00756367 0 -1.86739e-05)
(0.00759562 0 -2.27613e-05)
(0.00763393 0 -2.32861e-05)
(0.00765976 0 -3.19759e-05)
(0.00767484 0 -1.81343e-05)
(0.00768459 0 -1.72883e-05)
(0.00766291 0 3.97998e-05)
(0.00765632 0 3.18642e-05)
(0.00772835 0 9.95356e-05)
(0.00767928 0 3.43195e-05)
(0.0077832 0 -9.11482e-05)
(0.00765477 0 -0.000147016)
(0.00792548 0 -6.02543e-05)
(0.00780877 0 1.11557e-05)
(0.00791998 0 -2.13656e-05)
(0.00790154 0 -9.47948e-06)
(0.00793706 0 -3.13102e-05)
(0.00793915 0 -3.69528e-07)
(0.00792695 0 -2.11042e-05)
(0.00791812 0 3.74758e-05)
(0.00788766 0 2.22198e-05)
(0.00788218 0 6.44058e-05)
(0.00784785 0 2.75044e-05)
(0.00784225 0 2.39738e-05)
(0.00784138 0 -1.416e-05)
(0.00776286 0 -4.66417e-06)
(0.00770645 0 -2.37836e-05)
(0.00770562 0 0.000112547)
(0.00759503 0 0.000239689)
(0.00747389 0 0.000137699)
(0.00739142 0 -8.96471e-05)
(0.00761839 0 -0.000273187)
(0.00774233 0 -0.000114246)
(0.007873 0 -0.00010272)
(0.00786675 0 2.21623e-05)
(0.00789951 0 7.75739e-06)
(0.00783901 0 2.85512e-05)
(0.00780282 0 9.60438e-06)
(0.00770391 0 -1.60898e-05)
(0.00757916 0 5.10595e-05)
(0.00748433 0 4.88797e-05)
(0.00742116 0 0.000243487)
(0.00727065 0 0.000119406)
(0.00724569 0 7.79693e-05)
(0.00709454 0 -0.00016802)
(0.00658949 0 -4.13449e-05)
(0.00646498 0 -5.82237e-06)
(0.00619276 0 0.00103633)
(0.00562277 0 0.000819612)
(0.00643894 0 0.000902698)
(0.00541598 0 4.68294e-05)
(0.00865546 0 -0.0016195)
(0.00947676 0 -0.00190034)
(0.0115181 0 -0.00168487)
(0.0131343 0 -0.00157405)
(0.0143022 0 -0.00119013)
(0.0154272 0 -0.00080614)
(0.0160841 0 -0.000488602)
(0.0165496 0 -0.000331608)
(0.0168587 0 -0.000246892)
(0.0171061 0 -0.000217963)
(0.0172832 0 -0.000129494)
(0.0173616 0 -3.74939e-05)
(0.0173817 0 2.09611e-07)
(0.0173665 0 2.85277e-05)
(0.0173339 0 2.59367e-05)
(0.0173 0 2.7354e-05)
(0.0172398 0 6.20363e-05)
(0.0171306 0 0.000101419)
(0.0169972 0 0.000110823)
(0.0168629 0 0.000116789)
(0.0167175 0 0.000122488)
(0.0165514 0 0.000137806)
(0.0163777 0 0.000135577)
(0.0162103 0 0.00012616)
(0.0160396 0 0.000138431)
(0.0158434 0 0.000169317)
(0.0156208 0 0.000186018)
(0.0153844 0 0.000192862)
(0.0151468 0 0.000184852)
(0.0149129 0 0.000184771)
(0.0146728 0 0.000191653)
(0.0144291 0 0.000190213)
(0.014187 0 0.000194006)
(0.0139323 0 0.000207965)
(0.0136545 0 0.000226245)
(0.0133631 0 0.00023284)
(0.0130755 0 0.000223203)
(0.0128038 0 0.000206692)
(0.0125495 0 0.000192358)
(0.0123009 0 0.000192203)
(0.0120498 0 0.000197925)
(0.0117913 0 0.000209239)
(0.0115256 0 0.000210576)
(0.0112635 0 0.000208333)
(0.011004 0 0.000209625)
(0.0107418 0 0.000204403)
(0.0104842 0 0.00019543)
(0.0102377 0 0.000189034)
(0.00999452 0 0.000189509)
(0.00974777 0 0.000195243)
(0.00949487 0 0.000203784)
(0.00923484 0 0.000210914)
(0.00897272 0 0.000211587)
(0.00871361 0 0.000207284)
(0.00846087 0 0.000198147)
(0.00821844 0 0.000189405)
(0.00798435 0 0.000183309)
(0.00775601 0 0.000179335)
(0.00753433 0 0.00017518)
(0.00731713 0 0.000171887)
(0.00710409 0 0.000168234)
(0.00689668 0 0.000162516)
(0.00669742 0 0.000156214)
(0.00650582 0 0.000150831)
(0.00632318 0 0.000146175)
(0.00613721 0 0.000144632)
(0.00596725 0 0.000141009)
(0.00577691 0 0.000139039)
(0.00563561 0 0.000130345)
(0.00544526 0 0.00012458)
(0.00533785 0 0.000122716)
(0.00513473 0 0.000119621)
(0.00501588 0 0.000119254)
(0.00492514 0 0.000117181)
(0.00469194 0 0.000112228)
(0.00456398 0 0.000106986)
(0.00445129 0 8.28517e-05)
(0.00497171 0 5.99886e-05)
(0.00276679 0 2.44181e-05)
(0.00527145 0 2.65225e-06)
(0.0069617 0 -5.45521e-05)
(0.0533672 0 0.0259734)
(0.0754294 0 0.0270628)
(0.0605151 0 0.0220194)
(0.0590822 0 0.00634299)
(0.0608355 0 -0.0159201)
(0.0668222 0 -0.0300136)
(0.0805654 0 -0.0311169)
(0.0883095 0 -0.0293265)
(0.0998544 0 -0.0289204)
(0.108983 0 -0.0292481)
(0.116445 0 -0.0250746)
(0.121478 0 -0.0177826)
(0.122485 0 -0.0126573)
(0.12481 0 -0.0094712)
(0.126382 0 -0.00982249)
(0.12997 0 -0.011565)
(0.136181 0 -0.0127125)
(0.143218 0 -0.0141523)
(0.149362 0 -0.0154031)
(0.154706 0 -0.0137137)
(0.159987 0 -0.0052312)
(0.160201 0 0.00206172)
(0.154761 0 0.00526706)
(0.148837 0 0.0093052)
(0.140609 0 0.0159575)
(0.130989 0 0.0222188)
(0.121686 0 0.0232778)
(0.118526 0 0.0188323)
(0.11921 0 0.0105364)
(0.120583 0 0.00420518)
(0.119966 0 0.00319614)
(0.119034 0 0.00417913)
(0.116158 0 0.00879295)
(0.108699 0 0.0156039)
(0.0983714 0 0.0165098)
(0.0879551 0 0.0217988)
(0.0752191 0 0.0291861)
(0.0647276 0 0.0288149)
(0.0553116 0 0.0258651)
(0.0446975 0 0.0215779)
(0.0382126 0 0.0129638)
(0.0335939 0 0.00847389)
(0.0293073 0 0.00856831)
(0.0242226 0 0.0129282)
(0.0192608 0 0.0139194)
(0.0146836 0 0.00812259)
(0.0118396 0 0.00331766)
(0.0102057 0 0.00271579)
(0.00837277 0 0.00551107)
(0.0060093 0 0.00927516)
(0.00315777 0 0.00853028)
(0.000136683 0 0.00447733)
(-0.00174754 0 -0.00049366)
(-0.00163152 0 -0.00297936)
(-0.00082594 0 -0.00412791)
(0.00015928 0 -0.00444766)
(0.000776106 0 -0.00404609)
(0.000510861 0 -0.00242039)
(-0.00114516 0 -0.000284705)
(-0.00241538 0 0.00269249)
(-0.00301848 0 0.00483024)
(-0.00233827 0 0.00586529)
(-0.000996021 0 0.0065939)
(-0.00106392 0 0.00654849)
(-0.00297394 0 0.00542348)
(-0.00585561 0 0.00415165)
(-0.00843704 0 0.00202669)
(-0.0103372 0 -0.00103484)
(-0.0105224 0 -0.00459253)
(-0.00905237 0 -0.00735506)
(-0.00717283 0 -0.00885855)
(-0.00484378 0 -0.00838799)
(-0.00325703 0 -0.00607581)
(-0.00306158 0 -0.00440008)
(-0.00288614 0 -0.00396783)
(-0.00274366 0 -0.0050494)
(-0.000530872 0 -0.00682111)
(0.00161184 0 -0.00546338)
(0.00622312 0 -0.00315369)
(0.0121653 0 -0.00277238)
(0.0151295 0 0.000511651)
(0.0179827 0 0.00185646)
(0.0200888 0 0.00237028)
(0.0199815 0 0.00310316)
(0.0185284 0 0.00393136)
(0.0172272 0 0.00449881)
(0.0154105 0 0.00421177)
(0.0134424 0 0.00223468)
(0.0121257 0 0.000852135)
(0.0110753 0 0.000634669)
(0.00969535 0 0.000670992)
(0.00935867 0 0.000532042)
(0.00920586 0 0.000974498)
(0.00898649 0 0.000894969)
(0.00859132 0 0.00128273)
(0.00847182 0 0.00144331)
(0.0077928 0 0.00194164)
(0.0079242 0 0.00217797)
(0.00719404 0 0.00408863)
(0.00875681 0 0.00902265)
(0.00734225 0 0.00978886)
(0.00773367 0 0.0086527)
(0.00273782 0 0.00517672)
(-0.00129003 0 0.00229315)
(-0.00510106 0 -0.00298892)
(-0.00733148 0 -0.00519367)
(-0.00807982 0 -0.0028391)
(-0.00831913 0 -0.00082306)
(-0.00803325 0 0.000312169)
(-0.0059424 0 -0.000640246)
(-0.0042745 0 -0.00051405)
(-0.00360491 0 -0.00152759)
(-0.00278856 0 -0.00193798)
(-0.00238187 0 -0.0018062)
(-0.00203207 0 -0.000839443)
(-0.00100928 0 -0.000460927)
(-0.000467274 0 0.00125207)
(0.0012925 0 0.00260291)
(0.00116446 0 0.00167617)
(0.00202902 0 0.000777362)
(-0.000514856 0 -0.000207132)
(-0.00112614 0 -0.000965199)
(-0.001951 0 -0.00317585)
(-0.00121023 0 -0.00419895)
(-0.000854067 0 -0.00291223)
(0.000103852 0 -0.00235854)
(0.00168174 0 -0.0019059)
(0.00290415 0 -0.00183927)
(0.00383666 0 -0.002239)
(0.0048718 0 -0.00257717)
(0.00572711 0 -0.00247107)
(0.0066331 0 -0.00238204)
(0.00762874 0 -0.00213733)
(0.00861509 0 -0.00209002)
(0.00959189 0 -0.00214626)
(0.0105482 0 -0.00227694)
(0.0115194 0 -0.00233723)
(0.012467 0 -0.00229166)
(0.0133815 0 -0.00223992)
(0.0143063 0 -0.00219434)
(0.0152244 0 -0.0021565)
(0.0161353 0 -0.0021094)
(0.0170164 0 -0.00200444)
(0.0178589 0 -0.00191454)
(0.0186736 0 -0.00185755)
(0.0194673 0 -0.00182359)
(0.0202453 0 -0.00180698)
(0.0209959 0 -0.00174394)
(0.0217008 0 -0.00162322)
(0.0223706 0 -0.00150614)
(0.0230169 0 -0.001472)
(0.023647 0 -0.00145917)
(0.0242554 0 -0.00139184)
(0.0248133 0 -0.00129091)
(0.0253294 0 -0.0011992)
(0.0258302 0 -0.00112511)
(0.026309 0 -0.00105588)
(0.026755 0 -0.000986908)
(0.0271536 0 -0.000897307)
(0.0275058 0 -0.000805807)
(0.027823 0 -0.00072342)
(0.0281129 0 -0.000648422)
(0.028375 0 -0.000568732)
(0.0286031 0 -0.000485001)
(0.028791 0 -0.000373008)
(0.0289221 0 -0.000244922)
(0.0290013 0 -0.000161113)
(0.0290526 0 -9.43422e-05)
(0.0290726 0 1.11788e-06)
(0.0290367 0 0.000149575)
(0.028943 0 0.000293006)
(0.0287998 0 0.000373756)
(0.0286181 0 0.000451843)
(0.0283935 0 0.000549525)
(0.028122 0 0.000668991)
(0.0277976 0 0.000848907)
(0.0274037 0 0.00103245)
(0.0269441 0 0.00116995)
(0.0264176 0 0.00127246)
(0.0258465 0 0.00134832)
(0.0252413 0 0.00146487)
(0.0245806 0 0.00160599)
(0.0238712 0 0.00175201)
(0.0230915 0 0.00194985)
(0.0222315 0 0.00211148)
(0.0213124 0 0.00218971)
(0.0203557 0 0.00225074)
(0.0193733 0 0.00235821)
(0.0183559 0 0.00250456)
(0.0172956 0 0.00262996)
(0.0161863 0 0.00271621)
(0.015031 0 0.00274492)
(0.0138522 0 0.00275055)
(0.0126736 0 0.0027647)
(0.0114919 0 0.00279621)
(0.010296 0 0.00286579)
(0.0090911 0 0.00291354)
(0.00787772 0 0.00290516)
(0.00667672 0 0.00282575)
(0.00549992 0 0.00272296)
(0.00434766 0 0.00266548)
(0.00321798 0 0.00263255)
(0.00210591 0 0.00258849)
(0.00102469 0 0.00251872)
(-1.5881e-05 0 0.00241575)
(-0.00102135 0 0.00230473)
(-0.00199821 0 0.00222889)
(-0.0029517 0 0.00218813)
(-0.00387603 0 0.00214761)
(-0.00475922 0 0.00203583)
(-0.00559707 0 0.00189997)
(-0.00639781 0 0.00182426)
(-0.00717199 0 0.00176324)
(-0.00791801 0 0.00171365)
(-0.00864185 0 0.00169007)
(-0.00934314 0 0.00163969)
(-0.010016 0 0.00155344)
(-0.010656 0 0.00144112)
(-0.0112565 0 0.00135677)
(-0.0118281 0 0.00129769)
(-0.0123761 0 0.00124572)
(-0.012898 0 0.00121501)
(-0.0133993 0 0.00117724)
(-0.0138777 0 0.00111588)
(-0.0143347 0 0.00103738)
(-0.0147638 0 0.000951825)
(-0.0151601 0 0.000890109)
(-0.0155328 0 0.000840807)
(-0.0158843 0 0.000810617)
(-0.01622 0 0.000785703)
(-0.0165387 0 0.000733664)
(-0.0168312 0 0.000668615)
(-0.0170949 0 0.000594039)
(-0.0173358 0 0.00053767)
(-0.0175578 0 0.00050028)
(-0.0177621 0 0.000466216)
(-0.017955 0 0.000433194)
(-0.0181373 0 0.000398514)
(-0.0183029 0 0.000367504)
(-0.0184487 0 0.00033233)
(-0.0185711 0 0.000290272)
(-0.0186739 0 0.000241366)
(-0.018766 0 0.000192592)
(-0.0188466 0 0.000162489)
(-0.0189157 0 0.000138731)
(-0.018975 0 0.000125283)
(-0.0190244 0 0.000117284)
(-0.0190582 0 8.71246e-05)
(-0.019077 0 2.67821e-05)
(-0.0190829 0 -5.88933e-06)
(-0.0190806 0 -2.06491e-05)
(-0.0190739 0 -3.49887e-05)
(-0.0190587 0 -4.16733e-05)
(-0.0190335 0 -5.54456e-05)
(-0.0189957 0 -8.63547e-05)
(-0.0189475 0 -0.000116103)
(-0.0188941 0 -0.000137523)
(-0.0188374 0 -0.000146527)
(-0.0187795 0 -0.000155161)
(-0.0187112 0 -0.000173701)
(-0.0186273 0 -0.000193467)
(-0.0185363 0 -0.000214151)
(-0.0184411 0 -0.000235901)
(-0.0183404 0 -0.000249127)
(-0.0182359 0 -0.000248915)
(-0.0181302 0 -0.000245994)
(-0.01802 0 -0.000255047)
(-0.0179014 0 -0.000286822)
(-0.0177727 0 -0.000316637)
(-0.0176369 0 -0.000327766)
(-0.0174983 0 -0.00033567)
(-0.0173565 0 -0.000346203)
(-0.0172112 0 -0.000350852)
(-0.0170594 0 -0.000350477)
(-0.0169018 0 -0.000357175)
(-0.0167404 0 -0.000376439)
(-0.016576 0 -0.000399549)
(-0.0164063 0 -0.000414794)
(-0.0162307 0 -0.000425399)
(-0.016049 0 -0.000438476)
(-0.0158601 0 -0.000450368)
(-0.0156679 0 -0.000452099)
(-0.015475 0 -0.000448319)
(-0.0152778 0 -0.000460812)
(-0.0150731 0 -0.000491853)
(-0.0148595 0 -0.000510423)
(-0.0146422 0 -0.000517201)
(-0.0144239 0 -0.000527503)
(-0.0141999 0 -0.000541252)
(-0.0139678 0 -0.000549131)
(-0.0137295 0 -0.00055285)
(-0.0134866 0 -0.000567396)
(-0.0132362 0 -0.000588995)
(-0.0129824 0 -0.000608265)
(-0.012725 0 -0.000622484)
(-0.0124614 0 -0.000638416)
(-0.0121876 0 -0.000651383)
(-0.0119049 0 -0.000658912)
(-0.0116157 0 -0.000671422)
(-0.0113248 0 -0.000686113)
(-0.0110332 0 -0.000704866)
(-0.0107337 0 -0.000726394)
(-0.010423 0 -0.000741344)
(-0.0101043 0 -0.000745051)
(-0.00978311 0 -0.000752272)
(-0.00946297 0 -0.000764369)
(-0.0091411 0 -0.000779301)
(-0.00880952 0 -0.000788982)
(-0.00847325 0 -0.00078859)
(-0.00813727 0 -0.000787784)
(-0.00780589 0 -0.000788498)
(-0.0074765 0 -0.000788712)
(-0.0071459 0 -0.000781861)
(-0.00681839 0 -0.000766661)
(-0.00649627 0 -0.000747846)
(-0.00618466 0 -0.000728418)
(-0.00588368 0 -0.000709996)
(-0.00558873 0 -0.00069124)
(-0.00530032 0 -0.000669076)
(-0.00502196 0 -0.00064347)
(-0.00475455 0 -0.000616407)
(-0.00449936 0 -0.000588308)
(-0.0042563 0 -0.000561079)
(-0.00402431 0 -0.000533853)
(-0.00380353 0 -0.000506384)
(-0.00359355 0 -0.000479345)
(-0.003395 0 -0.000453696)
(-0.00320738 0 -0.000428856)
(-0.00303112 0 -0.000403321)
(-0.00286556 0 -0.000378333)
(-0.00270983 0 -0.000356043)
(-0.00256307 0 -0.000336347)
(-0.00242435 0 -0.000318198)
(-0.002294 0 -0.000299768)
(-0.00217139 0 -0.000281065)
(-0.00205661 0 -0.0002624)
(-0.00194853 0 -0.000246907)
(-0.00184722 0 -0.000234758)
(-0.00175087 0 -0.00022595)
(-0.00165724 0 -0.000217338)
(-0.00156706 0 -0.000209251)
(-0.00147997 0 -0.000202162)
(-0.00139598 0 -0.000196231)
(-0.00131461 0 -0.000191371)
(-0.00123573 0 -0.000188022)
(-0.00115848 0 -0.000186791)
(-0.00108067 0 -0.000187538)
(-0.00100171 0 -0.000188994)
(-0.000921773 0 -0.000191233)
(-0.000840458 0 -0.000194226)
(-0.000757716 0 -0.000197912)
(-0.000673176 0 -0.000202258)
(-0.000586729 0 -0.000207269)
(-0.000497834 0 -0.000214062)
(-0.000405592 0 -0.000221843)
(-0.000310083 0 -0.000230048)
(-0.00021092 0 -0.000238415)
(-0.000108259 0 -0.000246529)
(-2.59902e-06 0 -0.000254828)
(0.000106831 0 -0.000263969)
(0.000220562 0 -0.000273488)
(0.000338614 0 -0.000283172)
(0.000460852 0 -0.000292713)
(0.000587007 0 -0.000302273)
(0.000717069 0 -0.000310838)
(0.000850622 0 -0.000317478)
(0.000987769 0 -0.000324411)
(0.00112852 0 -0.000332931)
(0.00127272 0 -0.000342735)
(0.0014206 0 -0.000351158)
(0.00157086 0 -0.000356076)
(0.00172244 0 -0.000359287)
(0.00187587 0 -0.000365209)
(0.00203289 0 -0.00037192)
(0.00219278 0 -0.000378196)
(0.0023552 0 -0.000382469)
(0.00251821 0 -0.000384585)
(0.0026813 0 -0.000386255)
(0.00284472 0 -0.000387083)
(0.00300942 0 -0.000385694)
(0.00317547 0 -0.000386145)
(0.00334155 0 -0.000388476)
(0.00350715 0 -0.000390109)
(0.00367202 0 -0.000387747)
(0.00383543 0 -0.000385213)
(0.0039974 0 -0.000381439)
(0.00415863 0 -0.000377398)
(0.00431826 0 -0.000373051)
(0.00447646 0 -0.000370538)
(0.00463216 0 -0.0003644)
(0.0047855 0 -0.000357487)
(0.0049365 0 -0.000349924)
(0.00508505 0 -0.000344856)
(0.00523052 0 -0.000338421)
(0.00537239 0 -0.000331005)
(0.00551072 0 -0.000323064)
(0.00564597 0 -0.000315432)
(0.00577837 0 -0.000305589)
(0.00590735 0 -0.000294389)
(0.00603243 0 -0.000285104)
(0.0061516 0 -0.000274388)
(0.00626607 0 -0.000268462)
(0.00637787 0 -0.000258617)
(0.00648652 0 -0.000253149)
(0.00659126 0 -0.000235853)
(0.00669006 0 -0.000223442)
(0.00678549 0 -0.000209225)
(0.00687546 0 -0.000210736)
(0.0069644 0 -0.000194868)
(0.00704605 0 -0.000187729)
(0.00712419 0 -0.000168231)
(0.00719779 0 -0.000161469)
(0.00726584 0 -0.000154214)
(0.00732985 0 -0.000145965)
(0.00738645 0 -0.000134821)
(0.00744533 0 -0.000115765)
(0.00749226 0 -0.00010807)
(0.00754834 0 -9.93245e-05)
(0.00758512 0 -9.83957e-05)
(0.00761666 0 -8.72169e-05)
(0.00763647 0 -8.60406e-05)
(0.00762613 0 -2.59027e-05)
(0.00764804 0 -2.89593e-05)
(0.00775298 0 5.21881e-05)
(0.00777561 0 1.73724e-05)
(0.00790486 0 -0.000146425)
(0.00776124 0 -0.000173881)
(0.00808092 0 -9.44996e-05)
(0.00798509 0 3.75599e-05)
(0.0080403 0 -4.17149e-06)
(0.00797779 0 -0.000118787)
(0.0079928 0 -7.57052e-05)
(0.00800164 0 -6.7395e-05)
(0.00798521 0 -4.32169e-05)
(0.00798204 0 -6.09763e-06)
(0.00797362 0 9.86124e-06)
(0.00796087 0 5.83614e-05)
(0.00795594 0 2.38573e-05)
(0.00792577 0 2.80888e-05)
(0.00793106 0 2.01769e-06)
(0.00784561 0 2.91069e-05)
(0.00780453 0 -5.57397e-06)
(0.00777321 0 0.000145335)
(0.00772092 0 0.000209228)
(0.00763929 0 8.64337e-05)
(0.00767012 0 6.92073e-05)
(0.00792538 0 6.98e-05)
(0.00807008 0 0.000220115)
(0.00821768 0 -8.87863e-05)
(0.00810662 0 -0.00033692)
(0.00809332 0 -0.000240438)
(0.00800445 0 -0.000125335)
(0.00795713 0 -3.66984e-05)
(0.00783811 0 6.68027e-06)
(0.00782887 0 0.000150955)
(0.00773759 0 0.000176987)
(0.00777867 0 0.000395485)
(0.00768801 0 0.00027063)
(0.00776566 0 0.000221635)
(0.00756544 0 6.27061e-05)
(0.00710918 0 0.000183565)
(0.00686578 0 0.00016953)
(0.00678802 0 0.0012437)
(0.00640048 0 0.0010165)
(0.00756105 0 0.000638899)
(0.0069795 0 0.000237372)
(0.0111684 0 -0.00122156)
(0.012072 0 -0.000682216)
(0.0138126 0 -0.00335442)
(0.0154344 0 -0.00388444)
(0.015555 0 -0.00357818)
(0.0160791 0 -0.00318799)
(0.016327 0 -0.0028089)
(0.0165015 0 -0.00236743)
(0.0167907 0 -0.00184152)
(0.0170878 0 -0.00124752)
(0.0173259 0 -0.000833141)
(0.0174917 0 -0.000591274)
(0.0175988 0 -0.000456917)
(0.0176617 0 -0.000268192)
(0.0176992 0 -9.74152e-05)
(0.0177139 0 -1.03142e-05)
(0.0177041 0 5.6895e-05)
(0.0176723 0 7.2927e-05)
(0.0176141 0 0.000111269)
(0.0175225 0 0.000206619)
(0.0174088 0 0.000284678)
(0.0172843 0 0.000311598)
(0.0171513 0 0.000328216)
(0.0170056 0 0.000360584)
(0.0168448 0 0.000398688)
(0.0166773 0 0.000403809)
(0.0164992 0 0.000402475)
(0.0163116 0 0.00043433)
(0.0161128 0 0.000496339)
(0.0159049 0 0.000534139)
(0.0156892 0 0.000556668)
(0.0154645 0 0.000556343)
(0.0152308 0 0.000559002)
(0.0149971 0 0.000569349)
(0.0147613 0 0.000572419)
(0.0145168 0 0.000589396)
(0.0142616 0 0.000627335)
(0.0139953 0 0.0006712)
(0.0137232 0 0.000680977)
(0.0134521 0 0.000660262)
(0.0131844 0 0.000620435)
(0.0129189 0 0.000593168)
(0.0126524 0 0.000593709)
(0.0123843 0 0.00060205)
(0.0121169 0 0.000618267)
(0.0118523 0 0.000616413)
(0.0115925 0 0.000609084)
(0.0113333 0 0.000613673)
(0.0110719 0 0.0006109)
(0.0108102 0 0.000596704)
(0.0105484 0 0.000583647)
(0.0102868 0 0.000582629)
(0.0100265 0 0.000591789)
(0.00976889 0 0.000603642)
(0.00951524 0 0.000611632)
(0.00926596 0 0.000609444)
(0.00901993 0 0.000598179)
(0.00877756 0 0.000580343)
(0.0085382 0 0.000561105)
(0.00830407 0 0.000544077)
(0.00807652 0 0.000529887)
(0.0078541 0 0.000516752)
(0.00763787 0 0.00050648)
(0.00742665 0 0.00049423)
(0.00722104 0 0.000477439)
(0.00702311 0 0.00045742)