/*--------------------------------*- C++ -*----------------------------------*\
| =========                 |                                                 |
| \\      /  F ield         | OpenFOAM: The Open Source CFD Toolbox           |
|  \\    /   O peration     | Version:  v2006                                 |
|   \\  /    A nd           | Website:  www.openfoam.com                      |
|    \\/     M anipulation  |                                                 |
\*---------------------------------------------------------------------------*/
FoamFile
{
    version     2.0;
    format      ascii;
    class       volScalarField;
    location    "9.9";
    object      omega;
}
// * * * * * * * * * * * * * * * * * * * * * * * * * * * * * * * * * * * * * //

dimensions      [0 0 -1 0 0 0 0];


internalField   nonuniform List<scalar> 
33000
(
0.802701
0.804898
0.806053
0.805945
0.80518
0.804548
0.804194
0.804024
0.803943
0.803903
0.803928
0.804045
0.804248
0.804525
0.804849
0.805206
0.805596
0.806013
0.806452
0.806879
0.807204
0.807434
0.807669
0.807976
0.808499
0.809589
0.81197
0.816769
0.825069
0.836791
0.849828
0.861595
0.87074
0.877461
0.882918
0.88878
0.89792
0.915615
0.944167
0.97422
0.994091
1.00283
1.00596
1.00691
1.00476
0.99947
0.99185
0.988032
0.989633
0.991769
0.988178
0.979671
0.966896
0.956527
0.950225
0.947671
0.94881
0.954635
0.964557
0.97795
0.988778
0.993617
0.993294
0.989058
0.981822
0.971283
0.957535
0.940667
0.92364
0.911139
0.903114
0.899698
0.899247
0.899565
0.89957
0.898532
0.900336
0.904894
0.907338
0.909522
0.910729
0.911968
0.914092
0.917384
0.922292
0.928393
0.934336
0.939186
0.942512
0.944723
0.94509
0.944004
0.942011
0.937849
0.932244
0.924241
0.916598
0.908868
0.904202
0.898934
0.896616
0.897015
0.89861
0.899494
0.898426
0.898674
0.90096
0.90337
0.903918
0.902906
0.902639
0.901429
0.90041
0.899121
0.897921
0.894617
0.890991
0.88652
0.884081
0.882831
0.881843
0.882597
0.882071
0.882464
0.884377
0.885751
0.886745
0.887585
0.887978
0.888411
0.889076
0.889704
0.890324
0.890742
0.891002
0.891189
0.891402
0.891675
0.891935
0.89218
0.892403
0.892619
0.892829
0.892967
0.893
0.892935
0.892799
0.892643
0.892469
0.892222
0.891835
0.891359
0.89084
0.890277
0.889656
0.888968
0.888213
0.887396
0.886532
0.885623
0.884667
0.883668
0.882628
0.881549
0.880439
0.879299
0.878118
0.876901
0.875663
0.874424
0.873186
0.871943
0.870696
0.869453
0.868244
0.867097
0.866016
0.864988
0.863991
0.863011
0.862046
0.861112
0.860239
0.859444
0.858718
0.858046
0.8574
0.856776
0.8562
0.855691
0.855242
0.854825
0.854425
0.854045
0.853717
0.853474
0.853336
0.853285
0.853276
0.853273
0.853286
0.85335
0.853493
0.853701
0.85394
0.854186
0.85445
0.854762
0.855136
0.855531
0.855894
0.856231
0.8566
0.857023
0.857484
0.857964
0.858421
0.85882
0.859169
0.859512
0.859878
0.86027
0.860671
0.861052
0.861378
0.861644
0.861876
0.862104
0.862342
0.862585
0.862805
0.862965
0.863055
0.863103
0.863138
0.863167
0.863184
0.863177
0.863141
0.863077
0.862975
0.862819
0.862609
0.862372
0.862135
0.861903
0.861665
0.861389
0.861035
0.860631
0.86024
0.85986
0.859475
0.859073
0.85863
0.858145
0.857643
0.857141
0.856638
0.85612
0.855577
0.855011
0.854428
0.853843
0.853272
0.852707
0.85212
0.851485
0.850819
0.850161
0.849514
0.848867
0.848222
0.847579
0.846923
0.846235
0.845527
0.84482
0.844117
0.843415
0.842712
0.842016
0.841326
0.840616
0.839877
0.839139
0.838415
0.837692
0.836967
0.836244
0.835524
0.83479
0.834042
0.833289
0.832536
0.831784
0.831037
0.830301
0.829568
0.82884
0.828121
0.827414
0.826724
0.826051
0.825388
0.824732
0.824091
0.823474
0.822887
0.822327
0.821798
0.821303
0.820846
0.820427
0.820041
0.819687
0.819365
0.819075
0.818817
0.818589
0.818391
0.81822
0.818077
0.81796
0.817868
0.817798
0.817749
0.81772
0.81771
0.817714
0.817732
0.817761
0.817799
0.817847
0.817903
0.817964
0.818026
0.818089
0.818151
0.818211
0.818268
0.818319
0.818366
0.818406
0.818441
0.81847
0.818493
0.81851
0.81852
0.818523
0.818521
0.818511
0.818495
0.81847
0.818439
0.8184
0.818355
0.818303
0.818244
0.818179
0.818107
0.81803
0.817947
0.817859
0.817765
0.817667
0.817565
0.817458
0.817346
0.817232
0.817115
0.816995
0.816871
0.816744
0.816615
0.816483
0.816349
0.816213
0.816073
0.81593
0.815783
0.815631
0.815478
0.815322
0.815163
0.815001
0.814838
0.814672
0.814504
0.814336
0.814166
0.813996
0.813824
0.813653
0.813481
0.81331
0.81314
0.812971
0.812803
0.812636
0.81247
0.812306
0.812144
0.811985
0.81183
0.811677
0.811526
0.811378
0.811236
0.811097
0.810964
0.810832
0.810703
0.810579
0.810458
0.810341
0.810227
0.810113
0.81
0.809891
0.809788
0.809687
0.80959
0.809468
0.809328
0.809221
0.809161
0.809042
0.809069
0.809174
0.809542
0.809698
0.809923
0.810043
0.810151
0.8102
0.810231
0.810241
0.810247
0.810242
0.81024
0.810238
0.81019
0.810141
0.810076
0.809875
0.809683
0.809421
0.809263
0.809045
0.809108
0.809185
0.809277
0.809338
0.809388
0.80942
0.809438
0.8094
0.809375
0.809352
0.809278
0.809298
0.809145
0.808862
0.808833
0.808754
0.808396
0.808936
0.809329
0.81111
0.811749
0.812687
0.813482
0.814447
0.815537
0.816662
0.817682
0.818554
0.819288
0.819953
0.820529
0.820986
0.821355
0.821651
0.82191
0.822153
0.822361
0.822528
0.822671
0.822803
0.822921
0.823016
0.823099
0.823186
0.823279
0.823359
0.823424
0.823477
0.823524
0.823568
0.823605
0.823644
0.823685
0.823721
0.823742
0.823746
0.823741
0.823737
0.823743
0.823755
0.82377
0.823781
0.82379
0.823802
0.823811
0.823818
0.823829
0.823849
0.823878
0.823911
0.823944
0.823972
0.824
0.824032
0.824072
0.82412
0.824177
0.824241
0.824313
0.82439
0.824471
0.824556
0.824646
0.824744
0.824847
0.824956
0.825065
0.825178
0.825293
0.825421
0.825545
0.825676
0.825816
0.82595
0.826064
0.826129
0.825996
0.824519
0.822157
0.814572
0.391529
0.659993
0.829491
0.854882
0.777882
0.726048
0.703196
0.68852
0.681119
0.662705
0.634097
0.595294
0.589717
0.640949
0.727704
0.811163
0.883578
0.947401
1.00255
1.04886
1.0892
1.13121
1.16835
1.20006
1.22261
1.24067
1.28798
1.3843
1.5119
1.64156
1.7307
1.77138
1.77785
1.79259
1.85501
1.87635
1.80253
1.72249
1.68785
1.60352
1.3939
1.14526
0.982823
0.92163
0.884196
0.818378
0.707235
0.649491
0.663178
0.691081
0.675731
0.616925
0.536045
0.486839
0.461604
0.445591
0.436949
0.4466
0.474165
0.515184
0.565071
0.612966
0.630326
0.628391
0.633467
0.624812
0.595418
0.564946
0.553038
0.554152
0.564158
0.590366
0.638179
0.713511
0.792378
0.857678
0.916917
1.02344
1.14218
1.13903
1.14164
1.20602
1.28256
1.34878
1.35659
1.32072
1.25501
1.17703
1.09946
1.01156
0.911918
0.816485
0.733708
0.67447
0.64809
0.652077
0.684211
0.744926
0.845094
0.934495
0.996558
1.08387
1.21271
1.1784
1.07129
0.936467
0.80967
0.671339
0.560421
0.480044
0.403145
0.344632
0.305506
0.286843
0.288221
0.307842
0.35912
0.390571
0.391166
0.399562
0.418552
0.38561
0.340601
0.304264
0.276419
0.251193
0.231952
0.215315
0.204133
0.196875
0.193129
0.191444
0.190516
0.189741
0.189614
0.190347
0.191617
0.192985
0.194261
0.195631
0.197263
0.19905
0.200686
0.201807
0.202488
0.203228
0.204468
0.206317
0.208198
0.209459
0.210284
0.211411
0.213127
0.215068
0.216894
0.218548
0.220198
0.221984
0.223863
0.225637
0.227213
0.228655
0.230093
0.231779
0.233778
0.235485
0.236432
0.237072
0.23818
0.239798
0.240898
0.240818
0.24014
0.239501
0.239436
0.240156
0.240618
0.239982
0.238054
0.23511
0.232249
0.229797
0.227754
0.226368
0.224532
0.221315
0.217238
0.213534
0.210684
0.208119
0.205252
0.201565
0.197215
0.192804
0.188909
0.185922
0.183307
0.180234
0.176233
0.171548
0.167259
0.163659
0.16042
0.15711
0.153446
0.149579
0.14608
0.143145
0.140399
0.136882
0.132691
0.129022
0.12597
0.123413
0.12129
0.118974
0.116052
0.112665
0.109502
0.106902
0.104749
0.102996
0.101284
0.0992604
0.0969331
0.0945673
0.0925507
0.090936
0.0897007
0.0885982
0.0872467
0.0856665
0.0840304
0.0826825
0.0816895
0.0809078
0.0802421
0.0796369
0.0790925
0.0785373
0.0779414
0.077299
0.0767611
0.0764943
0.0764345
0.0765264
0.0766205
0.076501
0.0762242
0.0761338
0.0762503
0.0764818
0.0767392
0.0769127
0.0769824
0.0770425
0.0771743
0.077379
0.0775905
0.0777458
0.0778491
0.0779509
0.0781176
0.0783894
0.0787313
0.0790138
0.079118
0.0790612
0.0789994
0.0790657
0.0792653
0.0795444
0.0798394
0.080071
0.0801718
0.080148
0.080093
0.0800898
0.0801602
0.0803096
0.0805409
0.0807905
0.0809314
0.0809029
0.0808028
0.0807785
0.0808496
0.0809714
0.0811275
0.0812737
0.0813414
0.0813018
0.0812204
0.081165
0.0811647
0.0812217
0.0812992
0.0813255
0.0812491
0.0811
0.0809386
0.0808343
0.0807879
0.0807052
0.0805085
0.0802234
0.0799408
0.0796901
0.0794165
0.079072
0.0786814
0.0783277
0.0780574
0.0778102
0.0774821
0.0770702
0.076666
0.0763202
0.0760294
0.0757792
0.0755655
0.0753934
0.0752704
0.0752084
0.0751913
0.0752028
0.0752745
0.0754338
0.0756518
0.0758737
0.076087
0.0763355
0.0766639
0.0770745
0.077488
0.0777989
0.0779821
0.0781247
0.078284
0.078458
0.0786162
0.0787321
0.0788011
0.0788429
0.0788738
0.0788668
0.0788019
0.0786873
0.0785524
0.0784283
0.0783214
0.0782061
0.078053
0.0778652
0.0776747
0.077497
0.0773279
0.0771666
0.0769886
0.0767845
0.0765701
0.0763594
0.0761535
0.0759632
0.0758069
0.0756615
0.0754777
0.0752205
0.0749226
0.0746666
0.0744765
0.0742579
0.0739417
0.0735684
0.0732124
0.0729032
0.0726233
0.0723457
0.0720956
0.071842
0.0714945
0.0710328
0.0705908
0.0702191
0.0698822
0.0695465
0.0691908
0.0687834
0.0683389
0.0679358
0.0675712
0.0671736
0.0666911
0.0661996
0.0657347
0.0652821
0.0648428
0.0644726
0.0640935
0.0636377
0.0631226
0.0625607
0.0620501
0.0615898
0.061316
0.0609795
0.0605261
0.0598166
0.0593628
0.0589445
0.0585653
0.058087
0.057347
0.056864
0.0561546
0.0556736
0.0552386
0.0542937
0.053812
0.054098
0.0528875
0.0531069
0.0539286
0.0514029
0.0525527
0.0587952
0.0601484
0.0690144
0.0811796
0.0952968
0.0916031
0.0743767
0.0674573
0.0606816
0.0577428
0.0554766
0.0542047
0.0529635
0.0516932
0.0512798
0.053309
0.0528438
0.0580097
0.0633476
0.0573937
0.0582254
0.0597287
0.0583489
0.0448526
0.0391999
0.0379483
0.0372179
0.0375255
0.0381821
0.0402965
0.0416199
0.0439863
0.0441106
0.0449782
0.0462014
0.0503118
0.0626872
0.0833377
0.108134
0.138018
0.171322
0.181217
0.185509
0.214682
0.200254
0.140038
0.102712
0.0846325
0.0759416
0.0699616
0.0649906
0.0606023
0.0569149
0.0542013
0.052845
0.0523804
0.0523238
0.0525029
0.0526175
0.0531495
0.0544491
0.0558497
0.0565938
0.0571885
0.0579785
0.0588009
0.0591155
0.0592851
0.060017
0.0613254
0.0624011
0.0630458
0.0631848
0.0633439
0.0636413
0.0638773
0.0643969
0.065335
0.0663203
0.0666401
0.0661961
0.065405
0.0648014
0.0647384
0.0650057
0.0654993
0.0657762
0.0659411
0.0662393
0.0664181
0.066428
0.0665069
0.0668829
0.0675351
0.0683069
0.0689976
0.069434
0.0696277
0.0696326
0.0695839
0.0695907
0.0696709
0.0698156
0.0700027
0.0701685
0.0702807
0.0703467
0.0704561
0.0706222
0.0708714
0.0710651
0.0712096
0.0712205
0.0713007
0.0714566
0.0715993
0.0717681
0.07203
0.0724367
0.0731747
0.0744566
0.0762986
0.0819891
0.0756372
0.0518383
0.229517
0.463681
0.579017
0.557743
0.444416
0.331091
0.261574
0.228105
0.212602
0.201848
0.194397
0.198571
0.230488
0.281794
0.3434
0.413604
0.494119
0.591695
0.710426
0.834839
0.952517
1.08354
1.23098
1.36525
1.48084
1.61239
1.8195
2.12567
2.40197
2.52658
2.56382
2.5377
2.48718
2.45838
2.43338
2.32044
2.15851
2.02348
1.87963
1.65337
1.32538
0.983939
0.775439
0.699752
0.669134
0.613351
0.51805
0.454678
0.458558
0.477799
0.468355
0.43718
0.386216
0.334281
0.2992
0.283063
0.282216
0.298148
0.321279
0.347581
0.368323
0.379975
0.394978
0.41346
0.424247
0.426094
0.417058
0.395755
0.352273
0.311592
0.296826
0.307584
0.338319
0.368662
0.398702
0.421686
0.446933
0.489662
0.576571
0.657491
0.776503
0.907036
0.953378
1.01859
1.1116
1.21762
1.32394
1.38539
1.37224
1.30784
1.19235
1.06868
0.941918
0.814312
0.711973
0.64038
0.599451
0.588566
0.609574
0.663731
0.704384
0.750302
0.799933
0.797066
0.789773
0.768738
0.717432
0.641581
0.540558
0.463082
0.401583
0.339621
0.292698
0.235933
0.19116
0.161971
0.155574
0.166358
0.168235
0.173618
0.176087
0.170656
0.184204
0.202658
0.175922
0.142782
0.116303
0.0970798
0.0831037
0.0730494
0.0629491
0.0564973
0.0523134
0.0503463
0.0497727
0.0501999
0.0509586
0.051462
0.0518108
0.0521348
0.052606
0.053327
0.0540756
0.0546355
0.0550845
0.0556008
0.0562479
0.0570375
0.0578306
0.058505
0.0591612
0.0599922
0.0609893
0.0619619
0.0628662
0.0638364
0.0649669
0.0661942
0.0673927
0.068456
0.0693631
0.070217
0.0711549
0.0722637
0.0734767
0.0745355
0.0752322
0.0757353
0.0764232
0.07729
0.0779668
0.0781665
0.0779887
0.0777206
0.0776041
0.0777863
0.0779204
0.077599
0.0766446
0.0751059
0.0734691
0.0719376
0.0705844
0.069527
0.0683385
0.06666
0.064495
0.0622389
0.0602584
0.0585436
0.0569077
0.0550794
0.0529271
0.0505886
0.0484111
0.0465943
0.0450155
0.0434127
0.0415506
0.0394722
0.0374692
0.0357186
0.0341589
0.032627
0.0310546
0.0295081
0.0280894
0.0268154
0.0255925
0.0242501
0.0228127
0.0215095
0.0203927
0.0194384
0.0186043
0.0177637
0.0168398
0.0158484
0.0149125
0.0141127
0.0134291
0.0128449
0.012305
0.0117462
0.0111541
0.010558
0.0100265
0.00958293
0.0092215
0.00889936
0.00855205
0.00817948
0.00781904
0.00751841
0.00727977
0.00708777
0.0069239
0.00676962
0.00662291
0.0064838
0.00635484
0.00624298
0.00615539
0.0061041
0.00608409
0.0060885
0.00609727
0.00609226
0.00607805
0.00608728
0.00612299
0.00617389
0.00623241
0.00629068
0.00634368
0.00639819
0.00645968
0.00652487
0.00658782
0.00664808
0.0067077
0.00676998
0.00684199
0.00692908
0.00702453
0.00710794
0.00716323
0.00719739
0.00723329
0.00728693
0.00735818
0.00743952
0.0075248
0.00760572
0.00766927
0.00771111
0.00774148
0.00777426
0.00781986
0.00788325
0.00796186
0.00804217
0.00810404
0.00813806
0.00815864
0.00818923
0.00823394
0.00828598
0.00834434
0.00840283
0.00844848
0.00847731
0.00849785
0.00851802
0.0085435
0.00857684
0.0086153
0.00865068
0.00867327
0.00867727
0.00866675
0.00866128
0.00866881
0.00867475
0.00866035
0.00862306
0.0085803
0.00854521
0.00851055
0.00846026
0.0083952
0.00833317
0.0082848
0.00824268
0.00818709
0.00811099
0.00803173
0.0079625
0.00790401
0.00785441
0.00781008
0.00776863
0.00773228
0.00770515
0.00768733
0.00767757
0.00767951
0.00769414
0.00771478
0.00773522
0.00775656
0.0077866
0.00783015
0.00788378
0.00793511
0.00797251
0.00799065
0.00800079
0.00801295
0.00802622
0.00803757
0.00804461
0.00804498
0.00803933
0.00802903
0.00800984
0.00798071
0.0079454
0.00790999
0.00787871
0.00785089
0.0078216
0.00778632
0.00774643
0.00770723
0.00767187
0.00764079
0.00761293
0.00758101
0.0075433
0.00750458
0.00746843
0.0074346
0.007403
0.00737515
0.00734771
0.00731526
0.0072745
0.00722901
0.0071896
0.00715901
0.00712175
0.00706804
0.00700401
0.00694317
0.00689272
0.00684866
0.00680257
0.00675566
0.0067055
0.00664766
0.00657975
0.00651416
0.00645685
0.00640358
0.00634753
0.00628842
0.00622448
0.00615793
0.00609542
0.00603488
0.00597083
0.00590067
0.00583209
0.00576605
0.00569895
0.00563243
0.00557272
0.00551449
0.005452
0.00538363
0.0053028
0.00522664
0.00515631
0.0051086
0.00505162
0.00499309
0.0048984
0.0048322
0.00478038
0.00471843
0.0046382
0.00453466
0.0044783
0.00436355
0.004316
0.00429713
0.00416964
0.00416343
0.00433843
0.00417581
0.00437202
0.00496478
0.00519617
0.00575922
0.00655209
0.00718588
0.00766029
0.00786896
0.00875956
0.0077388
0.00607079
0.00531302
0.00474759
0.00435666
0.00416869
0.00420067
0.00437206
0.00434927
0.00467744
0.00518361
0.00498721
0.00513899
0.00520285
0.00424281
0.00328296
0.00279808
0.00293053
0.0025257
0.00234731
0.00232665
0.00239098
0.00250193
0.00258326
0.00269577
0.00278434
0.0031078
0.00351594
0.00472693
0.00677776
0.0105345
0.0158117
0.024844
0.0280964
0.0276875
0.0315106
0.0307165
0.0272128
0.030224
0.0228009
0.013057
0.00829659
0.0064616
0.0056521
0.00517251
0.00483786
0.0045243
0.0042135
0.0039574
0.00379318
0.00370268
0.00365794
0.0036492
0.00366193
0.00373044
0.00386723
0.0039965
0.00407877
0.00414995
0.00424831
0.00434231
0.00439337
0.00444353
0.00454092
0.0046832
0.00480537
0.00489663
0.00495408
0.00499642
0.00504008
0.00509037
0.00517844
0.00530941
0.00543762
0.00548361
0.00545348
0.00538101
0.00533375
0.00534197
0.00537954
0.00543342
0.00546813
0.00549757
0.00554857
0.00559614
0.00562906
0.00566697
0.00573216
0.00582336
0.00592281
0.006012
0.0060777
0.006118
0.00613963
0.00615297
0.00616615
0.00618653
0.00621542
0.0062503
0.00628325
0.00630776
0.00632849
0.00635501
0.00638981
0.00643264
0.00646425
0.00648752
0.00649913
0.00651961
0.00654761
0.00657143
0.006596
0.0066424
0.00671778
0.00684321
0.00706862
0.00740015
0.00810743
0.00761106
0.00529382
0.139697
0.293501
0.364656
0.34103
0.267788
0.194507
0.141874
0.112174
0.100785
0.10489
0.120426
0.139722
0.169743
0.217865
0.289655
0.396604
0.54531
0.737413
0.970666
1.20593
1.35702
1.44498
1.53621
1.65271
1.80421
1.99698
2.21383
2.4013
2.46651
2.41384
2.33209
2.25779
2.2121
2.2092
2.17784
2.06441
1.92694
1.78958
1.62423
1.31713
0.952893
0.677944
0.533952
0.488992
0.472105
0.415599
0.343313
0.302426
0.300812
0.315918
0.312652
0.289607
0.24922
0.215377
0.193037
0.180564
0.176861
0.182875
0.19158
0.193438
0.192286
0.192431
0.2021
0.229651
0.257861
0.269019
0.266518
0.252786
0.223806
0.191209
0.171798
0.169959
0.183439
0.200007
0.214889
0.232878
0.25706
0.284625
0.323845
0.370262
0.430723
0.536069
0.646587
0.790731
0.905775
0.950592
1.01515
1.08805
1.17091
1.26467
1.3442
1.35093
1.27287
1.10561
0.924334
0.773595
0.649194
0.566421
0.521471
0.49851
0.482085
0.47706
0.493007
0.497805
0.496036
0.489883
0.460178
0.42239
0.377623
0.349595
0.326131
0.298413
0.262886
0.232138
0.20005
0.174941
0.14809
0.122967
0.100608
0.0905461
0.089764
0.0857292
0.0829611
0.0813764
0.0785824
0.0893355
0.0993429
0.0841344
0.064882
0.0513457
0.0404554
0.0323325
0.0265675
0.0217594
0.0186328
0.0170252
0.0162251
0.0158888
0.0158305
0.0158324
0.0158355
0.0159151
0.0160592
0.0162313
0.0164342
0.0166748
0.0169386
0.0172153
0.0174826
0.0177433
0.0180436
0.0184078
0.0188085
0.0191858
0.0195326
0.0199116
0.0203696
0.0208814
0.0213873
0.0218348
0.0222096
0.0225534
0.0229341
0.0233807
0.0238534
0.0242692
0.0245579
0.0247594
0.0250095
0.0253182
0.0255681
0.0256576
0.0255883
0.0254587
0.0253596
0.0253485
0.0253281
0.0251409
0.0247237
0.0241192
0.023467
0.0228158
0.0222018
0.0216773
0.0211356
0.0204795
0.0196752
0.0187942
0.0179668
0.0172361
0.0165747
0.0159196
0.0152087
0.0144336
0.0136839
0.0130241
0.0124449
0.0119073
0.0113381
0.0107202
0.0101027
0.00954421
0.0090517
0.00858614
0.00812745
0.00768569
0.00727209
0.0068877
0.00652452
0.00616487
0.0058052
0.00546868
0.00517172
0.00491202
0.00467702
0.00445278
0.00423185
0.00401357
0.00380664
0.00361879
0.00345114
0.00330412
0.00317473
0.00305438
0.00293521
0.00281704
0.00270492
0.00260368
0.00251666
0.00244116
0.00237042
0.00230189
0.00223641
0.00217691
0.00212488
0.00207984
0.0020392
0.00200255
0.00197094
0.00194367
0.00191853
0.00189457
0.00187269
0.00185508
0.00184316
0.00183709
0.00183499
0.00183348
0.00182991
0.00182573
0.00182406
0.00182632
0.00183249
0.00184164
0.00185064
0.00185801
0.00186523
0.00187387
0.00188481
0.00189643
0.00190728
0.00191818
0.00192996
0.00194358
0.00195994
0.00197692
0.00199103
0.00200227
0.00201315
0.00202496
0.00203809
0.00205304
0.00207045
0.00208928
0.00210682
0.00212165
0.0021339
0.00214426
0.00215524
0.00216956
0.00218772
0.00220813
0.0022269
0.00224097
0.00225076
0.00225991
0.00227236
0.0022879
0.00230427
0.00232041
0.00233486
0.00234611
0.0023546
0.00236345
0.00237401
0.0023842
0.00239403
0.00240363
0.00241227
0.00241769
0.00241931
0.00242084
0.00242263
0.00242296
0.00242046
0.00241503
0.00240757
0.00240039
0.00239234
0.0023805
0.00236583
0.00235059
0.00233635
0.00232208
0.00230503
0.00228428
0.0022622
0.002241
0.00222074
0.00220112
0.00218118
0.00216051
0.0021402
0.00212101
0.00210308
0.00208638
0.00207144
0.00205807
0.00204487
0.00203151
0.00201907
0.00200894
0.00200146
0.00199538
0.00198864
0.00198079
0.00197211
0.00196332
0.00195505
0.00194713
0.00193972
0.0019329
0.00192583
0.00191805
0.00190946
0.00189969
0.00188931
0.00187894
0.00186921
0.00186057
0.00185288
0.00184528
0.00183684
0.00182791
0.00181938
0.00181188
0.0018057
0.0018003
0.00179415
0.00178738
0.00178092
0.0017752
0.00177
0.00176495
0.00176013
0.00175552
0.0017509
0.00174592
0.00174035
0.00173504
0.00173082
0.00172641
0.00172026
0.00171246
0.00170474
0.00169839
0.00169295
0.00168697
0.00168043
0.00167357
0.00166647
0.00165888
0.00165149
0.0016448
0.00163826
0.00163075
0.00162258
0.00161426
0.00160625
0.00159848
0.00159009
0.00158111
0.00157224
0.0015641
0.00155614
0.00154752
0.0015385
0.00153016
0.00152247
0.00151489
0.00150727
0.00149763
0.00148864
0.00148005
0.00147241
0.001463
0.00145569
0.00144296
0.00143794
0.00143825
0.00143661
0.00143166
0.00142557
0.00141943
0.00140243
0.00141883
0.00151815
0.00157985
0.00170102
0.00188786
0.00212328
0.00211764
0.00196601
0.00190178
0.00182877
0.00176549
0.00172622
0.00168183
0.00162611
0.00164527
0.00160272
0.00153788
0.00155682
0.00166343
0.00172823
0.00186615
0.00205979
0.002255
0.00246822
0.00250589
0.00243312
0.00210159
0.00181549
0.00162992
0.00151942
0.00141288
0.00135714
0.00132223
0.00134452
0.00137288
0.00142687
0.00148712
0.00170949
0.00189496
0.00210825
0.00278426
0.00396591
0.00649646
0.009704
0.0150947
0.0157843
0.0125693
0.0114177
0.0104286
0.00946323
0.00892928
0.0070014
0.00477151
0.00348802
0.00278161
0.00237278
0.00214648
0.00201916
0.00194467
0.00189558
0.00184792
0.00179354
0.0017404
0.0016935
0.00165262
0.00161738
0.00158817
0.00156546
0.00154948
0.00153998
0.00153464
0.00153057
0.00152723
0.00152634
0.00152844
0.00153061
0.00153173
0.00153458
0.0015407
0.00154891
0.00155629
0.00156279
0.00156893
0.00157401
0.00157877
0.00158443
0.0015927
0.00160317
0.00161347
0.00161943
0.00162169
0.0016216
0.00162253
0.00162594
0.00163096
0.00163663
0.0016416
0.00164669
0.00165295
0.00165953
0.00166589
0.00167269
0.00168077
0.00169006
0.00169973
0.00170874
0.00171646
0.00172268
0.00172767
0.00173184
0.00173574
0.00173991
0.00174474
0.00175
0.00175513
0.00175967
0.00176384
0.00176842
0.00177356
0.00177885
0.00178293
0.0017864
0.00178944
0.00179305
0.00179684
0.00180041
0.00180719
0.00182422
0.00185762
0.00191909
0.00203613
0.00221532
0.00260728
0.0026519
0.00212858
0.080833
0.17244
0.214487
0.20357
0.164422
0.122553
0.0898585
0.0712031
0.0680526
0.0785047
0.0950748
0.11485
0.14618
0.199539
0.282109
0.394547
0.531942
0.681265
0.823096
0.942468
1.05018
1.15796
1.26215
1.36024
1.45718
1.58153
1.71331
1.72395
1.61183
1.50979
1.51262
1.57997
1.65093
1.69164
1.6744
1.5972
1.497
1.3863
1.19803
0.867517
0.582809
0.418557
0.342703
0.317801
0.301286
0.259367
0.217847
0.197341
0.195549
0.204634
0.204247
0.189023
0.16641
0.146899
0.13124
0.119726
0.11357
0.112739
0.112679
0.109569
0.107238
0.108249
0.114605
0.132123
0.153104
0.164607
0.167251
0.160152
0.144642
0.125878
0.111861
0.105981
0.107415
0.115214
0.123867
0.13557
0.153646
0.173672
0.195054
0.218657
0.249315
0.29905
0.365678
0.442157
0.537101
0.636047
0.741147
0.837895
0.921789
0.934379
0.983321
1.03904
1.07942
1.08567
1.03199
0.942961
0.803912
0.659402
0.545495
0.453372
0.39428
0.358925
0.332871
0.309706
0.293736
0.288541
0.277925
0.25991
0.24102
0.228528
0.218835
0.207875
0.20355
0.196123
0.183259
0.164699
0.147191
0.128589
0.11326
0.0960492
0.079877
0.0651893
0.0558552
0.0525009
0.0490298
0.0465358
0.0453823
0.0436577
0.0500597
0.0564883
0.0486286
0.0384239
0.0305784
0.0243469
0.0187541
0.0156039
0.013371
0.0111672
0.00966986
0.00861538
0.00792109
0.00755224
0.00734117
0.00720232
0.00713638
0.00712807
0.00715675
0.00721292
0.00728858
0.00738445
0.00750396
0.00764313
0.00778972
0.00793426
0.0080804
0.00823973
0.0084215
0.00862528
0.00883418
0.00902358
0.00918984
0.00934512
0.0095076
0.00968701
0.00987066
0.0100341
0.0101601
0.0102565
0.010354
0.0104643
0.0105583
0.0105998
0.0105853
0.0105447
0.0105014
0.0104721
0.0104338
0.0103371
0.0101755
0.00997497
0.0097495
0.00950535
0.00925551
0.00901909
0.00879413
0.00855854
0.00829258
0.00798805
0.00767458
0.0073842
0.00712255
0.00687999
0.00663924
0.00638948
0.00613753
0.00589227
0.0056634
0.00545931
0.00526552
0.00506503
0.00486165
0.00466938
0.00449514
0.0043345
0.00417798
0.00402145
0.00387082
0.00373228
0.0036065
0.00348779
0.00336804
0.00324815
0.00313657
0.00303417
0.00293872
0.00285088
0.00276872
0.00268907
0.00260951
0.00253142
0.00245869
0.00239202
0.00233134
0.00227634
0.00222367
0.00217149
0.00212025
0.00206968
0.0020216
0.00197881
0.00194139
0.00190679
0.0018724
0.00183842
0.00180668
0.00177782
0.00175183
0.00172897
0.00170933
0.0016911
0.00167218
0.00165327
0.00163592
0.00162184
0.00161236
0.00160678
0.00160253
0.00159721
0.00159028
0.00158337
0.00157895
0.00157827
0.00158012
0.00158245
0.00158427
0.00158557
0.00158745
0.00159142
0.0015977
0.00160409
0.00160867
0.0016126
0.00161663
0.00162146
0.00162941
0.00164051
0.00165119
0.00165891
0.00166431
0.00166948
0.00167624
0.00168578
0.0016972
0.00170772
0.00171689
0.00172606
0.00173547
0.0017442
0.00175186
0.00176031
0.00177127
0.00178375
0.0017958
0.00180577
0.00181301
0.00181914
0.00182806
0.00184058
0.0018518
0.00186062
0.00186938
0.00187668
0.00188227
0.00189005
0.00189965
0.00190662
0.00191168
0.0019167
0.00192152
0.00192587
0.00192931
0.0019311
0.00193053
0.00192939
0.00192854
0.0019271
0.00192331
0.00191759
0.00191161
0.00190468
0.00189614
0.00188621
0.00187516
0.00186359
0.00185144
0.00183816
0.00182356
0.00180808
0.00179212
0.00177559
0.00175856
0.00174123
0.00172376
0.00170615
0.00168826
0.00167031
0.00165267
0.00163563
0.0016187
0.00160152
0.00158476
0.0015691
0.00155459
0.00154064
0.00152638
0.00151227
0.00149948
0.00148767
0.00147631
0.00146553
0.00145544
0.00144599
0.00143685
0.00142792
0.00141938
0.00141151
0.00140421
0.00139726
0.00139073
0.00138473
0.0013794
0.00137458
0.00136985
0.00136528
0.00136101
0.00135719
0.00135394
0.00135103
0.00134824
0.00134573
0.00134348
0.00134154
0.00133978
0.00133806
0.00133646
0.001335
0.00133361
0.00133229
0.00133103
0.00132973
0.00132849
0.00132744
0.00132634
0.00132503
0.00132353
0.00132191
0.0013204
0.00131894
0.00131746
0.00131588
0.00131424
0.00131251
0.00131082
0.00130913
0.0013074
0.00130554
0.00130343
0.00130127
0.00129915
0.00129705
0.00129441
0.00129166
0.00128887
0.00128646
0.00128379
0.00128097
0.0012777
0.00127476
0.0012717
0.00126927
0.00126734
0.0012647
0.00126079
0.00125775
0.00125382
0.00125318
0.00125993
0.0012643
0.00127714
0.00127511
0.00126729
0.00126101
0.00128107
0.00137775
0.00145827
0.00158157
0.00175464
0.00199976
0.00196522
0.00175773
0.00166263
0.00154506
0.00143073
0.00133597
0.00129489
0.00127866
0.00127755
0.00128998
0.00130822
0.00137178
0.00152528
0.00166233
0.00187235
0.00209064
0.0023833
0.0024595
0.00242706
0.00220045
0.00190399
0.00167073
0.00153005
0.0014318
0.00136535
0.00133872
0.00131017
0.00132412
0.00134899
0.00140757
0.00152436
0.00182686
0.002187
0.00292703
0.00409763
0.00596468
0.00817543
0.0119816
0.0169506
0.0171916
0.0132061
0.0111635
0.00964359
0.00831742
0.00715484
0.00553962
0.00405382
0.00306043
0.00244529
0.00209878
0.00190495
0.00180099
0.00174853
0.00171931
0.0017038
0.00169233
0.00167575
0.00164952
0.00162113
0.00159483
0.00157015
0.00154502
0.00152049
0.00149916
0.00148149
0.00146552
0.00145137
0.00143967
0.00142957
0.00142109
0.00141451
0.0014092
0.00140481
0.00140161
0.00139942
0.0013979
0.00139678
0.00139617
0.00139599
0.00139599
0.00139634
0.00139706
0.00139805
0.00139931
0.00140072
0.00140214
0.00140368
0.00140528
0.00140699
0.00140869
0.00141044
0.00141234
0.00141443
0.00141663
0.00141884
0.00142107
0.00142336
0.00142569
0.00142805
0.00143047
0.00143295
0.00143544
0.00143789
0.00144027
0.00144256
0.00144475
0.00144681
0.00144876
0.00145064
0.00145248
0.00145433
0.00145617
0.00145792
0.00145955
0.00146112
0.00146272
0.00146422
0.00146557
0.00146678
0.00146794
0.00146922
0.00147041
0.00147187
0.00147688
0.00149104
0.00152003
0.00157438
0.00167886
0.00183962
0.00219188
0.00226996
0.00188769
0.0437407
0.0958117
0.121719
0.120562
0.104132
0.0824871
0.0638889
0.053937
0.0544658
0.0635759
0.0768634
0.0938592
0.120687
0.165211
0.231678
0.318106
0.416466
0.514965
0.607042
0.688119
0.751971
0.810723
0.866405
0.921416
0.981028
1.04998
1.08997
1.04426
0.986072
0.979441
1.0454
1.15007
1.23505
1.26005
1.23707
1.17843
1.09825
0.984674
0.758771
0.502669
0.336324
0.252336
0.213638
0.19782
0.183697
0.161022
0.141973
0.132151
0.130055
0.133802
0.134016
0.127225
0.116998
0.10555
0.0938415
0.0842524
0.0779016
0.0746681
0.0721836
0.0695159
0.0683357
0.0694503
0.0730849
0.0823197
0.0940047
0.10252
0.105389
0.103371
0.0969679
0.0882273
0.0805483
0.0752778
0.0736816
0.0753553
0.08029
0.0889957
0.0993047
0.110974
0.121921
0.132286
0.14629
0.166299
0.194245
0.22705
0.266974
0.31244
0.359297
0.407981
0.484382
0.561872
0.672021
0.766231
0.782877
0.787903
0.772127
0.739401
0.686129
0.616434
0.545112
0.463251
0.38494
0.32242
0.273091
0.236751
0.212442
0.195012
0.17973
0.165005
0.153954
0.149448
0.14493
0.141919
0.141462
0.140097
0.137507
0.137193
0.133839
0.126172
0.114274
0.102469
0.0899272
0.0794313
0.0674863
0.0562833
0.0463071
0.0399082
0.0375114
0.0353451
0.0340218
0.0343533
0.0344891
0.0403415
0.0454934
0.0428338
0.0356998
0.0292704
0.0239724
0.0194568
0.0159256
0.0129823
0.0101755
0.00826603
0.00698865
0.00616146
0.00567363
0.00535981
0.00513695
0.00499749
0.00493193
0.00491907
0.00493941
0.00497872
0.00502661
0.00508213
0.00515048
0.00522639
0.0053048
0.00538988
0.00548044
0.00556725
0.00565105
0.00573237
0.00580819
0.005882
0.00595601
0.00602413
0.00608438
0.00613917
0.00618638
0.00622771
0.00626157
0.00628266
0.00629254
0.00629219
0.00628188
0.00626467
0.00623607
0.0061923
0.00614382
0.006088
0.00601419
0.00592687
0.00582703
0.0057172
0.00561562
0.00552598
0.00543724
0.00533484
0.00521188
0.0050819
0.00496087
0.00485104
0.00474888
0.00465298
0.00455217
0.00443901
0.00432538
0.00421887
0.00412087
0.00403112
0.00394339
0.0038514
0.00375715
0.00366627
0.00357491
0.00348213
0.0033949
0.00331586
0.00324217
0.00316714
0.00308635
0.00300387
0.00292566
0.00285308
0.00278494
0.00271977
0.00265497
0.00258973
0.00252596
0.00246558
0.00240892
0.00235393
0.00229949
0.00224727