/*--------------------------------*- C++ -*----------------------------------*\
| =========                 |                                                 |
| \\      /  F ield         | OpenFOAM: The Open Source CFD Toolbox           |
|  \\    /   O peration     | Version:  v2006                                 |
|   \\  /    A nd           | Website:  www.openfoam.com                      |
|    \\/     M anipulation  |                                                 |
\*---------------------------------------------------------------------------*/
FoamFile
{
    version     2.0;
    format      ascii;
    class       volScalarField;
    location    "9.9";
    object      p;
}
// * * * * * * * * * * * * * * * * * * * * * * * * * * * * * * * * * * * * * //

dimensions      [1 -1 -2 0 0 0 0];


internalField   nonuniform List<scalar> 
33000
(
8012.18
8008.15
8005.18
8002.3
7999.23
7996.39
7993.37
7990.1
7986.54
7982.68
7978.55
7974.1
7969.48
7964.8
7960.11
7955.38
7950.5
7945.46
7940.34
7935.05
7929.63
7924.26
7919.22
7914.37
7909.53
7904.74
7899.92
7894.83
7889.5
7884
7878.52
7873.01
7867.57
7862.33
7857.17
7852.04
7846.87
7841.6
7836.09
7830.37
7824.54
7818.7
7812.88
7807.1
7801.32
7795.56
7789.84
7784.16
7778.54
7772.98
7767.48
7762.01
7756.61
7751.29
7746.03
7740.84
7735.73
7730.71
7725.77
7720.94
7716.22
7711.6
7707.08
7702.67
7698.38
7694.19
7690.13
7686.18
7682.37
7678.7
7675.15
7671.73
7668.46
7665.37
7662.48
7659.83
7657.43
7655.41
7652.9
7648.35
7646.18
7643.6
7640.97
7638.67
7636.44
7634.17
7632.33
7630.48
7629.02
7627.52
7626.36
7625.24
7624.41
7623.66
7623.19
7622.79
7622.67
7622.67
7622.83
7623.17
7623.6
7624.22
7625.41
7626.61
7628.13
7629.8
7631.61
7633.64
7635.93
7638.46
7641.08
7643.94
7646.84
7649.97
7653.04
7656.46
7659.53
7663.4
7667.84
7672.19
7676.84
7681.47
7686.29
7691.16
7696.11
7701.15
7706.26
7711.44
7716.67
7721.96
7727.23
7732.55
7737.85
7743.21
7748.56
7753.94
7759.31
7764.67
7770.03
7775.38
7780.73
7786.05
7791.33
7796.55
7801.71
7806.8
7811.81
7816.69
7821.46
7826.08
7830.58
7834.92
7839.1
7843.1
7846.9
7850.51
7853.92
7857.12
7860.11
7862.87
7865.41
7867.71
7869.78
7871.62
7873.21
7874.56
7875.68
7876.57
7877.23
7877.65
7877.84
7877.83
7877.61
7877.17
7876.53
7875.7
7874.67
7873.48
7872.13
7870.64
7869
7867.23
7865.32
7863.3
7861.18
7858.98
7856.7
7854.35
7851.93
7849.46
7846.96
7844.43
7841.87
7839.29
7836.7
7834.08
7831.47
7828.85
7826.25
7823.65
7821.05
7818.46
7815.86
7813.27
7810.69
7808.11
7805.53
7802.96
7800.37
7797.8
7795.23
7792.65
7790.06
7787.47
7784.87
7782.29
7779.74
7777.21
7774.71
7772.25
7769.83
7767.45
7765.13
7762.86
7760.66
7758.52
7756.44
7754.42
7752.46
7750.57
7748.75
7747
7745.32
7743.71
7742.15
7740.67
7739.24
7737.88
7736.58
7735.35
7734.18
7733.07
7732.01
7731
7730.05
7729.15
7728.3
7727.51
7726.77
7726.06
7725.41
7724.79
7724.22
7723.7
7723.21
7722.77
7722.36
7721.99
7721.66
7721.37
7721.11
7720.89
7720.7
7720.55
7720.43
7720.34
7720.28
7720.27
7720.28
7720.32
7720.4
7720.5
7720.64
7720.8
7720.99
7721.22
7721.48
7721.76
7722.07
7722.41
7722.77
7723.16
7723.58
7724.02
7724.49
7724.98
7725.49
7726.02
7726.58
7727.15
7727.74
7728.36
7728.99
7729.63
7730.29
7730.97
7731.65
7732.35
7733.06
7733.78
7734.5
7735.24
7735.97
7736.72
7737.46
7738.21
7738.97
7739.72
7740.47
7741.23
7741.98
7742.72
7743.47
7744.21
7744.95
7745.69
7746.42
7747.14
7747.86
7748.58
7749.29
7750
7750.7
7751.4
7752.09
7752.78
7753.46
7754.14
7754.82
7755.49
7756.16
7756.83
7757.49
7758.15
7758.82
7759.47
7760.13
7760.79
7761.45
7762.11
7762.77
7763.43
7764.1
7764.77
7765.44
7766.12
7766.8
7767.48
7768.18
7768.88
7769.58
7770.29
7771.01
7771.74
7772.48
7773.23
7773.98
7774.75
7775.52
7776.3
7777.1
7777.9
7778.71
7779.53
7780.36
7781.2
7782.05
7782.91
7783.77
7784.65
7785.53
7786.42
7787.31
7788.21
7789.12
7790.03
7790.95
7791.87
7792.79
7793.71
7794.64
7795.56
7796.49
7797.41
7798.33
7799.24
7800.15
7801.05
7801.94
7802.82
7803.69
7804.55
7805.4
7806.23
7807.05
7807.85
7808.64
7809.41
7810.16
7810.89
7811.61
7812.3
7812.98
7813.63
7814.27
7814.88
7815.47
7816.04
7816.59
7817.12
7817.63
7818.11
7818.58
7819.03
7819.45
7819.86
7820.25
7820.61
7820.96
7821.3
7821.62
7821.91
7822.2
7822.46
7822.73
7822.99
7823.23
7823.44
7823.7
7823.81
7824.05
7824.38
7824.59
7824.84
7825.02
7825.22
7825.38
7825.54
7825.68
7825.81
7825.93
7826.03
7826.14
7826.25
7826.34
7826.42
7826.52
7826.54
7826.63
7826.82
7826.88
7827.01
7827.06
7827.15
7827.18
7827.26
7827.28
7827.33
7827.35
7827.38
7827.4
7827.42
7827.44
7827.47
7827.48
7827.49
7827.52
7827.51
7827.54
7827.58
7827.6
7827.61
7827.62
7827.64
7827.66
7827.68
7827.71
7827.73
7827.77
7827.81
7827.85
7827.9
7827.95
7828.01
7828.08
7828.15
7828.23
7828.31
7828.41
7828.51
7828.62
7828.74
7828.86
7829
7829.15
7829.31
7829.48
7829.66
7829.85
7830.05
7830.27
7830.5
7830.75
7831.01
7831.29
7831.59
7831.9
7832.23
7832.58
7832.95
7833.34
7833.75
7834.18
7834.64
7835.12
7835.63
7836.16
7836.72
7837.31
7837.93
7838.58
7839.26
7839.98
7840.73
7841.52
7842.34
7843.2
7844.1
7845.05
7846.03
7847.06
7848.13
7849.24
7850.41
7851.62
7852.87
7854.18
7855.54
7856.95
7858.41
7859.92
7861.49
7863.11
7864.79
7866.52
7868.3
7870.16
7872.09
7873.7
7876.9
7815.92
7811.88
7808.79
7805.77
7802.69
7799.82
7796.83
7793.6
7790.06
7786.17
7782
7777.59
7773.08
7768.57
7764.03
7759.35
7754.48
7749.39
7744.19
7738.8
7733.19
7727.64
7722.65
7717.9
7713.1
7708.46
7703.92
7698.91
7693.57
7687.96
7682.36
7676.81
7671.28
7665.96
7660.82
7655.64
7650.49
7645.2
7639.67
7634
7628.23
7622.39
7616.54
7610.75
7604.98
7599.2
7593.5
7587.82
7582.19
7576.63
7571.11
7565.64
7560.24
7554.9
7549.63
7544.43
7539.3
7534.27
7529.34
7524.5
7519.78
7515.17
7510.64
7506.21
7501.89
7497.69
7493.61
7489.65
7485.82
7482.12
7478.56
7475.12
7471.81
7468.67
7465.69
7462.87
7460.18
7457.61
7454.99
7452.63
7450.67
7448.18
7444.06
7441.93
7439.88
7437.61
7435.79
7433.95
7432.4
7430.87
7429.66
7428.64
7427.75
7427.05
7426.53
7426.16
7426.06
7426.04
7426.35
7426.59
7427.12
7427.72
7428.92
7429.81
7431.21
7432.83
7434.97
7436.97
7439.47
7441.95
7444.58
7447.36
7450.35
7453.5
7456.78
7460.26
7463.83
7467.55
7471.57
7475.45
7479.88
7484.7
7489.58
7494.58
7499.62
7504.69
7509.84
7514.99
7520.26
7525.53
7530.86
7536.18
7541.54
7546.89
7552.28
7557.66
7563.05
7568.43
7573.81
7579.18
7584.56
7589.9
7595.21
7600.46
7605.66
7610.77
7615.79
7620.7
7625.48
7630.13
7634.65
7639.01
7643.2
7647.2
7651.03
7654.66
7658.09
7661.3
7664.29
7667.06
7669.6
7671.92
7674
7675.84
7677.44
7678.8
7679.92
7680.81
7681.47
7681.89
7682.09
7682.07
7681.84
7681.4
7680.76
7679.92
7678.9
7677.7
7676.34
7674.84
7673.19
7671.4
7669.49
7667.46
7665.33
7663.11
7660.82
7658.47
7656.04
7653.57
7651.05
7648.5
7645.92
7643.33
7640.72
7638.1
7635.48
7632.85
7630.23
7627.61
7625
7622.39
7619.78
7617.18
7614.59
7611.99
7609.4
7606.81
7604.23
7601.64
7599.05
7596.46
7593.86
7591.26
7588.66
7586.08
7583.51
7580.97
7578.46
7575.99
7573.56
7571.18
7568.86
7566.58
7564.37
7562.23
7560.14
7558.12
7556.16
7554.28
7552.46
7550.71
7549.02
7547.4
7545.85
7544.36
7542.94
7541.58
7540.29
7539.06
7537.89
7536.77
7535.71
7534.71
7533.76
7532.86
7532.02
7531.22
7530.48
7529.78
7529.12
7528.51
7527.94
7527.42
7526.93
7526.49
7526.08
7525.71
7525.38
7525.09
7524.83
7524.61
7524.42
7524.27
7524.14
7524.06
7524
7523.99
7524
7524.04
7524.11
7524.22
7524.35
7524.52
7524.72
7524.94
7525.2
7525.48
7525.79
7526.13
7526.49
7526.88
7527.3
7527.74
7528.21
7528.7
7529.21
7529.75
7530.3
7530.88
7531.48
7532.09
7532.72
7533.37
7534.03
7534.7
7535.39
7536.09
7536.8
7537.52
7538.25
7538.99
7539.73
7540.47
7541.22
7541.97
7542.73
7543.48
7544.24
7544.99
7545.74
7546.5
7547.24
7547.99
7548.73
7549.46
7550.2
7550.93
7551.65
7552.37
7553.08
7553.79
7554.49
7555.19
7555.89
7556.57
7557.26
7557.94
7558.62
7559.29
7559.96
7560.63
7561.29
7561.95
7562.61
7563.27
7563.93
7564.58
7565.24
7565.9
7566.56
7567.22
7567.89
7568.55
7569.23
7569.9
7570.58
7571.27
7571.96
7572.66
7573.36
7574.07
7574.79
7575.52
7576.26
7577
7577.76
7578.52
7579.29
7580.08
7580.87
7581.67
7582.48
7583.3
7584.14
7584.98
7585.83
7586.68
7587.55
7588.42
7589.31
7590.2
7591.09
7592
7592.9
7593.82
7594.74
7595.66
7596.58
7597.51
7598.44
7599.37
7600.29
7601.22
7602.14
7603.05
7603.96
7604.86
7605.76
7606.64
7607.51
7608.37
7609.22
7610.06
7610.88
7611.68
7612.47
7613.24
7613.99
7614.73
7615.44
7616.14
7616.82
7617.47
7618.11
7618.72
7619.31
7619.88
7620.43
7620.96
7621.47
7621.96
7622.42
7622.87
7623.29
7623.7
7624.08
7624.46
7624.8
7625.13
7625.43
7625.74
7626.04
7626.32
7626.56
7626.82
7626.95
7627.19
7627.55
7627.76
7628.03
7628.26
7628.48
7628.7
7628.88
7629.06
7629.21
7629.37
7629.49
7629.63
7629.75
7629.88
7629.96
7630.07
7630.07
7630.18
7630.35
7630.45
7630.56
7630.67
7630.74
7630.84
7630.9
7630.97
7631.02
7631.06
7631.11
7631.13
7631.17
7631.18
7631.22
7631.23
7631.25
7631.27
7631.24
7631.28
7631.31
7631.35
7631.35
7631.36
7631.39
7631.41
7631.42
7631.43
7631.45
7631.47
7631.5
7631.52
7631.56
7631.59
7631.64
7631.68
7631.74
7631.79
7631.86
7631.93
7632.01
7632.09
7632.19
7632.29
7632.4
7632.51
7632.64
7632.78
7632.92
7633.08
7633.25
7633.43
7633.62
7633.82
7634.04
7634.27
7634.51
7634.77
7635.05
7635.34
7635.65
7635.98
7636.33
7636.69
7637.08
7637.49
7637.92
7638.38
7638.85
7639.36
7639.89
7640.45
7641.03
7641.65
7642.3
7642.98
7643.69
7644.44
7645.22
7646.05
7646.9
7647.8
7648.74
7649.72
7650.75
7651.81
7652.93
7654.09
7655.29
7656.55
7657.86
7659.21
7660.62
7662.08
7663.59
7665.16
7666.78
7668.45
7670.18
7671.96
7673.82
7675.75
7677.36
7680.55
7620.31
7616.35
7613.24
7610.21
7606.97
7603.9
7600.81
7597.47
7593.85
7589.92
7585.79
7581.45
7577.09
7572.72
7568.28
7563.57
7558.63
7553.53
7548.24
7542.69
7536.96
7531.36
7526.38
7521.61
7516.89
7512.22
7507.58
7502.54
7497.12
7491.57
7485.78
7479.91
7474.19
7468.79
7463.72
7458.67
7453.56
7448.37
7442.99
7437.41
7431.71
7425.88
7420.02
7414.22
7408.46
7402.69
7397.01
7391.32
7385.68
7380.12
7374.59
7369.1
7363.71
7358.36
7353.07
7347.85
7342.71
7337.66
7332.71
7327.87
7323.13
7318.48
7313.93
7309.48
7305.13
7300.9
7296.8
7292.82
7288.98
7285.27
7281.68
7278.22
7274.91
7271.74
7268.65
7265.71
7262.88
7260.18
7257.52
7254.86
7252.38
7249.83
7247.65
7245.81
7243.59
7239.88
7238.32
7236.55
7235.48
7233.75
7232.7
7231.48
7230.65
7229.87
7229.5
7229.06
7228.98
7228.94
7229.17
7229.55
7230.13
7230.91
7231.86
7233.14
7234.53
7236.32
7237.86
7239.76
7241.8
7244.54
7247.34
7250.39
7253.51
7256.68
7259.97
7263.51
7267.17
7271.07
7275.15
7279.37
7283.72
7288.26
7292.7
7297.55
7302.61
7307.82
7313.02
7318.35
7323.62
7329
7334.29
7339.73
7345.1
7350.57
7355.96
7361.41
7366.82
7372.24
7377.67
7383.07
7388.49
7393.87
7399.22
7404.52
7409.76
7414.91
7419.96
7424.9
7429.72
7434.43
7438.98
7443.37
7447.58
7451.62
7455.48
7459.15
7462.61
7465.85
7468.86
7471.65
7474.21
7476.54
7478.64
7480.49
7482.1
7483.47
7484.6
7485.49
7486.15
7486.57
7486.77
7486.74
7486.5
7486.06
7485.41
7484.56
7483.53
7482.32
7480.95
7479.42
7477.75
7475.95
7474.01
7471.97
7469.82
7467.58
7465.26
7462.88
7460.44
7457.95
7455.41
7452.82
7450.22
7447.6
7444.96
7442.32
7439.67
7437.01
7434.36
7431.71
7429.07
7426.43
7423.8
7421.17
7418.55
7415.93
7413.31
7410.7
7408.09
7405.48
7402.87
7400.25
7397.63
7395.02
7392.4
7389.8
7387.22
7384.67
7382.14
7379.66
7377.22
7374.83
7372.49
7370.21
7367.99
7365.83
7363.74
7361.72
7359.76
7357.87
7356.05
7354.3
7352.61
7350.99
7349.44
7347.95
7346.53
7345.17
7343.89
7342.66
7341.49
7340.37
7339.31
7338.31
7337.36
7336.47
7335.64
7334.84
7334.09
7333.39
7332.74
7332.13
7331.57
7331.05
7330.56
7330.11
7329.71
7329.34
7329.01
7328.72
7328.46
7328.24
7328.05
7327.9
7327.78
7327.69
7327.64
7327.62
7327.63
7327.67
7327.74
7327.85
7327.99
7328.16
7328.35
7328.58
7328.83
7329.11
7329.42
7329.76
7330.13
7330.52
7330.94
7331.39
7331.85
7332.35
7332.86
7333.4
7333.96
7334.54
7335.14
7335.75
7336.39
7337.03
7337.7
7338.38
7339.07
7339.78
7340.49
7341.21
7341.95
7342.68
7343.43
7344.18
7344.93
7345.69
7346.45
7347.21
7347.97
7348.73
7349.48
7350.24
7350.99
7351.74
7352.48
7353.22
7353.96
7354.69
7355.42
7356.14
7356.86
7357.57
7358.28
7358.98
7359.67
7360.37
7361.05
7361.73
7362.41
7363.08
7363.75
7364.42
7365.08
7365.75
7366.4
7367.06
7367.72
7368.37
7369.03
7369.69
7370.34
7371
7371.66
7372.33
7373
7373.67
7374.35
7375.03
7375.72
7376.42
7377.12
7377.83
7378.55
7379.27
7380.01
7380.75
7381.5
7382.27
7383.04
7383.82
7384.61
7385.42
7386.23
7387.05
7387.88
7388.73
7389.58
7390.44
7391.31
7392.18
7393.07
7393.96
7394.86
7395.77
7396.68
7397.59
7398.52
7399.44
7400.37
7401.3
7402.24
7403.17
7404.1
7405.03
7405.95
7406.87
7407.79
7408.69
7409.59
7410.48
7411.36
7412.22
7413.07
7413.91
7414.74
7415.54
7416.34
7417.11
7417.87
7418.6
7419.32
7420.02
7420.7
7421.35
7421.99
7422.6
7423.2
7423.77
7424.32
7424.85
7425.36
7425.84
7426.31
7426.75
7427.18
7427.57
7427.96
7428.31
7428.66
7429.01
7429.33
7429.61
7429.9
7430.07
7430.34
7430.72
7430.96
7431.25
7431.48
7431.71
7431.93
7432.16
7432.35
7432.56
7432.73
7432.91
7433.09
7433.23
7433.39
7433.48
7433.62
7433.63
7433.76
7433.94
7434.06
7434.18
7434.28
7434.37
7434.45
7434.55
7434.62
7434.71
7434.75
7434.83
7434.85
7434.91
7434.91
7434.98
7434.97
7435.01
7435.03
7435
7435.03
7435.07
7435.11
7435.11
7435.13
7435.14
7435.14
7435.15
7435.16
7435.18
7435.19
7435.21
7435.23
7435.25
7435.27
7435.3
7435.33
7435.37
7435.41
7435.45
7435.51
7435.56
7435.63
7435.69
7435.77
7435.85
7435.94
7436.04
7436.15
7436.27
7436.39
7436.52
7436.67
7436.82
7436.99
7437.16
7437.35
7437.55
7437.77
7437.99
7438.24
7438.49
7438.77
7439.05
7439.36
7439.68
7440.03
7440.39
7440.77
7441.18
7441.6
7442.05
7442.52
7443.02
7443.55
7444.1
7444.68
7445.29
7445.94
7446.61
7447.32
7448.06
7448.84
7449.65
7450.51
7451.4
7452.33
7453.31
7454.32
7455.39
7456.49
7457.65
7458.85
7460.1
7461.4
7462.75
7464.16
7465.61
7467.12
7468.68
7470.3
7471.97
7473.7
7475.48
7477.33
7479.26
7480.87
7484.06
7425.08
7421.1
7417.84
7414.92
7411.66
7408.44
7405.22
7401.77
7398.09
7394.2
7390.13
7385.86
7381.62
7377.25
7372.73
7368.14
7363.25
7358.12
7352.92
7347.57
7342.08
7336.76
7331.52
7326.53
7321.66
7316.83
7311.97
7307.02
7301.54
7295.72
7289.83
7283.86
7277.94
7272.4
7267.11
7261.9
7256.76
7251.58
7246.2
7240.66
7234.98
7229.19
7223.36
7217.57
7211.82
7206.08
7200.38
7194.68
7189.03
7183.45
7177.9
7172.41
7167
7161.63
7156.32
7151.08
7145.91
7140.84
7135.87
7130.99
7126.21
7121.51
7116.93
7112.45
7108.08
7103.84
7099.71
7095.7
7091.83
7088.1
7084.47
7080.97
7077.6
7074.34
7071.22
7068.2
7065.28
7062.5
7059.81
7057.17
7054.64
7052.15
7049.68
7047.39
7045.11
7043.06
7041.33
7039.95
7038.23
7035.7
7034.84
7034.22
7033.08
7032.48
7031.78
7031.47
7031.26
7031.42
7031.64
7032.07
7032.65
7033.42
7034.51
7035.6
7037.1
7038.54
7040.51
7042.53
7044.82
7047.61
7050.06
7052.77
7055.84
7059.23
7062.74
7066.49
7070.17
7074.08
7078.14
7082.4
7086.83
7091.44
7096.13
7100.98
7105.95
7110.85
7116.05
7121.28
7126.75
7132.13
7137.63
7143.05
7148.55
7154
7159.5
7164.99
7170.53
7176.02
7181.52
7186.98
7192.45
7197.89
7203.31
7208.68
7213.98
7219.19
7224.3
7229.3
7234.19
7238.95
7243.57
7248.01
7252.27
7256.37
7260.28
7263.99
7267.49
7270.77
7273.82
7276.64
7279.24
7281.59
7283.71
7285.58
7287.21
7288.58
7289.72
7290.62
7291.28
7291.71
7291.9
7291.86
7291.61
7291.15
7290.48
7289.62
7288.57
7287.34
7285.95
7284.4
7282.7
7280.86
7278.9
7276.82
7274.65
7272.37
7270.02
7267.6
7265.12
7262.59
7260.02
7257.4
7254.75
7252.08
7249.4
7246.72
7244.02
7241.32
7238.62
7235.93
7233.24
7230.57
7227.89
7225.22
7222.55
7219.89
7217.24
7214.59
7211.95
7209.3
7206.65
7204
7201.36
7198.71
7196.08
7193.46
7190.86
7188.28
7185.74
7183.23
7180.78
7178.38
7176.03
7173.74
7171.51
7169.33
7167.23
7165.2
7163.24
7161.35
7159.53
7157.77
7156.08
7154.46
7152.91
7151.42
7150.01
7148.66
7147.37
7146.15
7144.98
7143.86
7142.81
7141.81
7140.88
7139.99
7139.15
7138.36
7137.62
7136.92
7136.27
7135.66
7135.1
7134.58
7134.1
7133.66
7133.25
7132.88
7132.56
7132.27
7132.01
7131.79
7131.6
7131.45
7131.33
7131.24
7131.19
7131.17
7131.18
7131.22
7131.29
7131.4
7131.54
7131.7
7131.9
7132.13
7132.38
7132.66
7132.97
7133.32
7133.69
7134.08
7134.5
7134.95
7135.42
7135.91
7136.43
7136.97
7137.54
7138.12
7138.72
7139.34
7139.98
7140.64
7141.31
7141.99
7142.69
7143.4
7144.12
7144.85
7145.59
7146.33
7147.09
7147.84
7148.6
7149.36
7150.13
7150.9
7151.66
7152.43
7153.19
7153.95
7154.71
7155.47
7156.22
7156.96
7157.71
7158.45
7159.18
7159.91
7160.63
7161.34
7162.05
7162.76
7163.46
7164.15
7164.84
7165.52
7166.2
7166.88
7167.55
7168.21
7168.88
7169.54
7170.19
7170.85
7171.5
7172.16
7172.81
7173.46
7174.12
7174.77
7175.43
7176.09
7176.76
7177.43
7178.1
7178.78
7179.47
7180.16
7180.86
7181.56
7182.28
7183
7183.73
7184.48
7185.23
7185.99
7186.76
7187.54
7188.33
7189.14
7189.95
7190.77
7191.61
7192.45
7193.3
7194.17
7195.04
7195.92
7196.81
7197.71
7198.61
7199.52
7200.44
7201.36
7202.29
7203.22
7204.16
7205.1
7206.03
7206.97
7207.91
7208.85
7209.78
7210.71
7211.63
7212.54
7213.44
7214.34
7215.22
7216.09
7216.95
7217.79
7218.62
7219.44
7220.23
7221.01
7221.77
7222.51
7223.23
7223.93
7224.61
7225.27
7225.91
7226.52
7227.12
7227.69
7228.24
7228.78
7229.28
7229.78
7230.23
7230.68
7231.08
7231.49
7231.88
7232.26
7232.59
7232.92
7233.13
7233.44
7233.85
7234.13
7234.44
7234.69
7234.95
7235.19
7235.45
7235.66
7235.9
7236.1
7236.29
7236.51
7236.67
7236.86
7236.97
7237.13
7237.16
7237.3
7237.51
7237.64
7237.77
7237.9
7237.98
7238.09
7238.17
7238.28
7238.35
7238.44
7238.5
7238.56
7238.61
7238.67
7238.72
7238.75
7238.78
7238.83
7238.77
7238.8
7238.86
7238.89
7238.89
7238.9
7238.91
7238.9
7238.9
7238.91
7238.92
7238.93
7238.95
7238.96
7238.97
7238.99
7239
7239.02
7239.04
7239.07
7239.1
7239.13
7239.17
7239.21
7239.26
7239.32
7239.38
7239.44
7239.52
7239.6
7239.69
7239.78
7239.88
7240
7240.12
7240.25
7240.39
7240.54
7240.7
7240.87
7241.06
7241.25
7241.46
7241.69
7241.92
7242.17
7242.44
7242.72
7243.02
7243.34
7243.68
7244.03
7244.41
7244.8
7245.22
7245.67
7246.13
7246.62
7247.14
7247.68
7248.26
7248.86
7249.49
7250.16
7250.86
7251.59
7252.36
7253.16
7254.01
7254.89
7255.81
7256.78
7257.79
7258.84
7259.94
7261.09
7262.28
7263.53
7264.82
7266.16
7267.56
7269.01
7270.51
7272.07
7273.68
7275.35
7277.07
7278.85
7280.7
7282.63
7284.24
7287.43
7230.36
7226.31
7222.98
7220.12
7216.86
7213.5
7210.18
7206.63
7202.92
7199.07
7194.99
7190.81
7186.56
7182.17
7177.62
7172.97
7168.12
7163.08
7157.94
7152.71
7147.44
7142.16
7136.88
7131.68
7126.54
7121.41
7116.19
7110.84
7105.37
7099.67
7093.9
7088.13
7082.38
7076.76
7071.27
7065.85
7060.47
7055.06
7049.54
7043.96
7038.23
7032.44
7026.64
7020.85
7015.08
7009.35
7003.62
6997.9
6992.22
6986.61
6981.03
6975.53
6970.09
6964.69
6959.35
6954.06
6948.86
6943.76
6938.75
6933.83
6929
6924.27
6919.64
6915.12
6910.75
6906.49
6902.34
6898.3
6894.38
6890.59
6886.94
6883.41
6879.99
6876.7
6873.53
6870.49
6867.53
6864.69
6861.95
6859.3
6856.74
6854.27
6851.88
6849.66
6847.49
6845.45
6843.65
6841.95
6840.16
6838.73
6837.66
6836.13
6834.31
6833.97
6834.13
6833.37
6833.42
6833.21
6833.59
6833.99
6834.83
6835.59
6836.68
6837.88
6839.36
6841.07
6842.87
6844.97
6847.12
6849.66
6852.37
6855.3
6858.63
6861.7
6864.94
6868.54
6872.47
6876.55
6880.85
6885.1
6889.56
6894.16
6898.91
6903.79
6908.83
6913.92
6919.18
6924.49
6929.79
6935.33
6940.73
6946.48
6951.93
6957.65
6963.15
6968.8
6974.35
6979.94
6985.54
6991.08
6996.66
7002.14
7007.63
7013.05
7018.43
7023.7
7028.89
7033.96
7038.93
7043.76
7048.45
7052.96
7057.29
7061.45
7065.42
7069.19
7072.74
7076.07
7079.18
7082.05
7084.68
7087.07
7089.21
7091.11
7092.75
7094.15
7095.3
7096.21
7096.87
7097.29
7097.48
7097.43
7097.16
7096.68
7095.99
7095.1
7094.03
7092.77
7091.35
7089.76
7088.02
7086.14
7084.14
7082.02
7079.8
7077.48
7075.08
7072.6
7070.07
7067.49
7064.86
7062.19
7059.49
7056.76
7054.02
7051.27
7048.52
7045.76
7043
7040.25
7037.5
7034.76
7032.02
7029.3
7026.57
7023.86
7021.16
7018.46
7015.76
7013.07
7010.38
7007.69
7005
7002.33
6999.67
6997.02
6994.4
6991.79
6989.23
6986.71
6984.23
6981.81
6979.45
6977.14
6974.9
6972.72
6970.61
6968.56
6966.6
6964.7
6962.88
6961.12
6959.43
6957.81
6956.26
6954.78
6953.37
6952.03
6950.75
6949.52
6948.36
6947.25
6946.21
6945.22
6944.29
6943.41
6942.57
6941.79
6941.05
6940.35
6939.71
6939.11
6938.55
6938.03
6937.55
6937.11
6936.71
6936.34
6936.02
6935.72
6935.47
6935.24
6935.06
6934.9
6934.79
6934.7
6934.65
6934.63
6934.64
6934.68
6934.75
6934.86
6935
6935.16
6935.36
6935.59
6935.84
6936.13
6936.44
6936.79
6937.16
6937.56
6937.98
6938.43
6938.9
6939.4
6939.92
6940.47
6941.04
6941.63
6942.24
6942.86
6943.51
6944.17
6944.85
6945.54
6946.25
6946.97
6947.69
6948.43
6949.18
6949.93
6950.69
6951.46
6952.23
6953
6953.77
6954.55
6955.32
6956.1
6956.87
6957.64
6958.41
6959.17
6959.93
6960.69
6961.44
6962.19
6962.93
6963.66
6964.39
6965.11
6965.83
6966.54
6967.24
6967.94
6968.63
6969.31
6970
6970.67
6971.34
6972.01
6972.67
6973.33
6973.98
6974.64
6975.29
6975.94
6976.59
6977.24
6977.89
6978.54
6979.19
6979.85
6980.51
6981.17
6981.84
6982.51
6983.19
6983.88
6984.57
6985.28
6985.99
6986.71
6987.44
6988.17
6988.92
6989.68
6990.45
6991.23
6992.03
6992.83
6993.64
6994.47
6995.3
6996.15
6997
6997.87
6998.75
6999.63
7000.53
7001.43
7002.34
7003.26
7004.19
7005.12
7006.05
7006.99
7007.94
7008.89
7009.83
7010.78
7011.73
7012.67
7013.61
7014.55
7015.48
7016.4
7017.32
7018.22
7019.11
7019.99
7020.86
7021.71
7022.55
7023.37
7024.17
7024.95
7025.72
7026.46
7027.19
7027.89
7028.58
7029.24
7029.88
7030.5
7031.1
7031.67
7032.23
7032.74
7033.26
7033.72
7034.19
7034.64
7035.07
7035.46
7035.84
7036.1
7036.45
7036.9
7037.22
7037.57
7037.85
7038.14
7038.41
7038.7
7038.94
7039.2
7039.41
7039.64
7039.85
7040.07
7040.24
7040.42
7040.5
7040.66
7040.94
7041.07
7041.28
7041.37
7041.54
7041.62
7041.75
7041.85
7041.97
7042.05
7042.15
7042.22
7042.29
7042.35
7042.43
7042.48
7042.55
7042.59
7042.62
7042.54
7042.58
7042.65
7042.69
7042.68
7042.69
7042.69
7042.68
7042.68
7042.68
7042.69
7042.7
7042.71
7042.71
7042.72
7042.72
7042.73
7042.74
7042.75
7042.77
7042.78
7042.8
7042.83
7042.85
7042.88
7042.92
7042.96
7043.01
7043.06
7043.11
7043.18
7043.25
7043.32
7043.41
7043.5
7043.6
7043.7
7043.82
7043.95
7044.08
7044.23
7044.38
7044.55
7044.73
7044.92
7045.12
7045.34
7045.57
7045.81
7046.07
7046.35
7046.64
7046.95
7047.28
7047.63
7047.99
7048.38
7048.79
7049.22
7049.67
7050.15
7050.66
7051.19
7051.75
7052.35
7052.97
7053.62
7054.31
7055.03
7055.78
7056.58
7057.41
7058.28
7059.19
7060.15
7061.14
7062.19
7063.27
7064.41
7065.59
7066.83
7068.11
7069.45
7070.83
7072.28
7073.77
7075.32
7076.93
7078.59
7080.31
7082.08
7083.93
7085.86
7087.46
7090.66
7036.07
7032
7028.59
7025.72
7022.43
7018.95
7015.57
7012
7008.25
7004.37
7000.26
6996.1
6991.8
6987.37
6982.8
6978.11
6973.25
6968.21
6963.13
6957.93
6952.64
6947.35
6942.06
6936.76
6931.45
6926.14
6920.77
6915.35
6909.78
6904.05
6898.26
6892.47
6886.7
6881
6875.37
6869.78
6864.22
6858.62
6853
6847.29
6841.51
6835.7
6829.88
6824.06
6818.26
6812.5
6806.73
6800.97
6795.25
6789.59
6783.98
6778.44
6772.96
6767.52
6762.13
6756.8
6751.56
6746.41
6741.36
6736.4
6731.54
6726.78
6722.12
6717.57
6713.16
6708.87
6704.68
6700.61
6696.66
6692.84
6689.14
6685.55
6682.08
6678.72
6675.49
6672.37
6669.39
6666.53
6663.76
6661.1
6658.61
6656.16
6653.78
6651.59
6649.48
6647.51
6645.65
6643.93
6642.28
6640.76
6639.45
6638
6636.97
6636.23
6635.12
6634.22
6634.38
6635.2
6635.08
6635.7
6636.09
6637.05
6638.1
6639.51
6640.98
6642.59
6644.57
6646.56
6648.99
6651.53
6654.33
6657.2
6660.26
6663.62
6667.1
6671.08
6674.73
6678.6
6682.7
6687.24
6691.87
6696.69
6701.43
6706.36
6711.43
6716.6
6721.9
6727.28
6732.69
6738.3
6743.87
6749.54
6755.25
6760.91
6766.67
6772.4
6778.13
6783.82
6789.5
6795.19
6800.83
6806.49
6812.04
6817.6
6823.03
6828.41
6833.69
6838.87
6843.93
6848.86
6853.62
6858.22
6862.65
6866.89
6870.94
6874.78
6878.4
6881.8
6884.97
6887.9
6890.58
6893.01
6895.19
6897.11
6898.78
6900.2
6901.36
6902.27
6902.93
6903.34
6903.52
6903.46
6903.18
6902.67
6901.95
6901.02
6899.91
6898.62
6897.16
6895.52
6893.72
6891.79
6889.73
6887.56
6885.29
6882.91
6880.44
6877.89
6875.29
6872.63
6869.93
6867.2
6864.42
6861.62
6858.79
6855.97
6853.13
6850.3
6847.47
6844.64
6841.81
6838.99
6836.17
6833.37
6830.58
6827.8
6825.03
6822.26
6819.51
6816.75
6814.01
6811.28
6808.55
6805.84
6803.14
6800.46
6797.81
6795.18
6792.6
6790.05
6787.56
6785.11
6782.73
6780.41
6778.16
6775.97
6773.85
6771.8
6769.83
6767.92
6766.1
6764.34
6762.65
6761.04
6759.49
6758.02
6756.62
6755.28
6754
6752.79
6751.63
6750.54
6749.5
6748.52
6747.59
6746.72
6745.89
6745.11
6744.38
6743.69
6743.05
6742.46
6741.9
6741.39
6740.91
6740.48
6740.08
6739.71
6739.39
6739.1
6738.84
6738.62
6738.43
6738.28
6738.16
6738.08
6738.03
6738
6738.01
6738.05
6738.13
6738.23
6738.37
6738.54
6738.73
6738.96
6739.22
6739.51
6739.83
6740.17
6740.54
6740.95
6741.37
6741.83
6742.31
6742.81
6743.34
6743.89
6744.47
6745.06
6745.68
6746.31
6746.97
6747.64
6748.32
6749.02
6749.74
6750.47
6751.21
6751.96
6752.72
6753.48
6754.25
6755.03
6755.81
6756.59
6757.38
6758.16
6758.95
6759.74
6760.52
6761.3
6762.08
6762.86
6763.63
6764.4
6765.16
6765.91
6766.66
6767.4
6768.14
6768.87
6769.59
6770.31
6771.02
6771.72
6772.42
6773.1
6773.79
6774.47
6775.14
6775.8
6776.46
6777.12
6777.77
6778.42
6779.07
6779.72
6780.36
6781
6781.65
6782.29
6782.94
6783.59
6784.24
6784.9
6785.56
6786.23
6786.9
6787.58
6788.27
6788.97
6789.67
6790.39
6791.11
6791.85
6792.59
6793.35
6794.12
6794.9
6795.69
6796.49
6797.3
6798.13
6798.97
6799.82
6800.68
6801.55
6802.43
6803.33
6804.23
6805.14
6806.06
6806.99
6807.92
6808.86
6809.81
6810.76
6811.72
6812.68
6813.63
6814.59
6815.55
6816.51
6817.46
6818.41
6819.35
6820.28
6821.21
6822.12
6823.03
6823.92
6824.79
6825.65
6826.5
6827.32
6828.14
6828.92
6829.7
6830.45
6831.18
6831.89
6832.58
6833.24
6833.89
6834.5
6835.1
6835.67
6836.22
6836.77
6837.26
6837.78
6838.22
6838.67
6838.98
6839.39
6839.88
6840.25
6840.63
6840.96
6841.29
6841.6
6841.92
6842.2
6842.49
6842.73
6842.99
6843.23
6843.47
6843.67
6843.87
6843.98
6844.16
6844.46
6844.61
6844.84
6844.96
6845.14
6845.23
6845.39
6845.49
6845.63
6845.72
6845.84
6845.92
6846.01
6846.06
6846.18
6846.22
6846.29
6846.37
6846.32
6846.37
6846.45
6846.49
6846.49
6846.5
6846.5
6846.5
6846.49
6846.48
6846.48
6846.49
6846.49
6846.49
6846.49
6846.49
6846.49
6846.49
6846.49
6846.5
6846.5
6846.51
6846.52
6846.53
6846.54
6846.56
6846.58
6846.6
6846.62
6846.66
6846.69
6846.73
6846.78
6846.83
6846.89
6846.96
6847.03
6847.11
6847.19
6847.29
6847.39
6847.5
6847.62
6847.75
6847.89
6848.04
6848.2
6848.37
6848.56
6848.75
6848.96
6849.18
6849.42
6849.67
6849.93
6850.22
6850.51
6850.83
6851.17
6851.52
6851.9
6852.29
6852.71
6853.15
6853.62
6854.11
6854.63
6855.18
6855.75
6856.36
6857
6857.67
6858.38
6859.12
6859.89
6860.71
6861.57
6862.46
6863.4
6864.38
6865.41
6866.49
6867.61
6868.78
6870
6871.27
6872.6
6873.97
6875.4
6876.89
6878.43
6880.03
6881.69
6883.4
6885.17
6887.01
6888.93
6890.54
6893.73
6842.09
6838.17
6834.7
6831.79
6828.51
6824.85
6821.37
6817.73
6813.91
6809.99
6805.86
6801.66
6797.33
6792.89
6788.26
6783.53
6778.68
6773.72
6768.58
6763.35
6758.06
6752.72
6747.34
6741.93
6736.5
6731.03
6725.51
6719.96
6714.3
6708.54
6702.72
6696.89
6691.07
6685.28
6679.52
6673.8
6668.08
6662.31
6656.52
6650.69
6644.83
6638.96
6633.08
6627.21
6621.36
6615.53
6609.71
6603.9
6598.12
6592.39
6586.73
6581.13
6575.58
6570.08
6564.65
6559.28
6554
6548.81
6543.72
6538.72
6533.83
6529.03
6524.33
6519.74
6515.29
6510.95
6506.73
6502.62
6498.63
6494.75
6491.01
6487.39
6483.87
6480.47
6477.19
6474.04
6471.02
6468.12
6465.34
6462.67
6460.16
6457.72
6455.4
6453.22
6451.02
6449.07
6447.32
6445.64
6444.13
6442.63
6441.35
6440.07
6438.98
6438.13
6437.11
6436.57
6436.24
6435.53
6435.47
6436.16
6437.8
6438.18
6439.47
6440.47
6442.14
6443.84
6445.99
6448.06
6450.44
6452.92
6455.69
6458.65
6461.93
6465.21
6468.81
6472.38
6476.38
6480.49
6485.1
6489.3
6493.79
6498.36
6503.38
6508.46
6513.82
6518.93
6524.41
6529.79
6535.47
6541.07
6546.86
6552.67
6558.53
6564.53
6570.41
6576.36
6582.34
6588.06
6594.04
6599.6
6605.45
6611.06
6616.8
6622.38
6627.99
6633.43
6638.84
6644.1
6649.26
6654.28
6659.16
6663.85
6668.37
6672.71
6676.85
6680.77
6684.47
6687.94
6691.17
6694.17
6696.91
6699.39
6701.6
6703.56
6705.26
6706.71
6707.89
6708.8
6709.46
6709.87
6710.03
6709.96
6709.65
6709.11
6708.35
6707.39
6706.23
6704.9
6703.37
6701.67
6699.82
6697.82
6695.69
6693.44
6691.1
6688.65
6686.1
6683.46
6680.77
6678.02
6675.23
6672.39
6669.53
6666.63
6663.71
6660.78
6657.85
6654.91
6651.98
6649.05
6646.13
6643.21
6640.3
6637.41
6634.53
6631.67
6628.82
6625.97
6623.14
6620.33
6617.53
6614.74
6611.97
6609.21
6606.47
6603.76
6601.07
6598.42
6595.81
6593.24
6590.73
6588.26
6585.86
6583.53
6581.27
6579.07
6576.95
6574.89
6572.91
6571.01
6569.18
6567.42
6565.74
6564.13
6562.59
6561.13
6559.73
6558.4
6557.14
6555.93
6554.79
6553.71
6552.68
6551.71
6550.79
6549.92
6549.11
6548.34
6547.62
6546.94
6546.31
6545.72
6545.17
6544.66
6544.19
6543.76
6543.36
6543
6542.67
6542.38
6542.13
6541.91
6541.72
6541.57
6541.45
6541.37
6541.31
6541.29
6541.3
6541.34
6541.41
6541.52
6541.65
6541.82
6542.02
6542.25
6542.51
6542.8
6543.12
6543.47
6543.84
6544.25
6544.68
6545.14
6545.62
6546.13
6546.67
6547.23
6547.81
6548.42
6549.04
6549.69
6550.35
6551.03
6551.73
6552.44
6553.17
6553.91
6554.66
6555.43
6556.2
6556.98
6557.76
6558.55
6559.35
6560.14
6560.94
6561.75
6562.55
6563.35
6564.15
6564.94
6565.73
6566.52
6567.31
6568.09
6568.86
6569.63
6570.39
6571.14
6571.89
6572.63
6573.36
6574.08
6574.8
6575.51
6576.21
6576.9
6577.58
6578.26
6578.93
6579.6
6580.26
6580.91
6581.56
6582.21
6582.85
6583.49
6584.13
6584.77
6585.4
6586.04
6586.68
6587.32
6587.97
6588.61
6589.27
6589.93
6590.59
6591.26
6591.94
6592.63
6593.33
6594.04
6594.76
6595.49
6596.23
6596.98
6597.75
6598.53
6599.32
6600.12
6600.94
6601.77
6602.61
6603.46
6604.33
6605.21
6606.1
6607
6607.91
6608.83
6609.76
6610.7
6611.64
6612.6
6613.56
6614.52
6615.49
6616.46
6617.44
6618.41
6619.38
6620.36
6621.32
6622.29
6623.24
6624.19
6625.13
6626.06
6626.97
6627.87
6628.76
6629.63
6630.49
6631.33
6632.15
6632.95
6633.72
6634.49