/*--------------------------------*- C++ -*----------------------------------*\
| =========                 |                                                 |
| \\      /  F ield         | OpenFOAM: The Open Source CFD Toolbox           |
|  \\    /   O peration     | Version:  v2006                                 |
|   \\  /    A nd           | Website:  www.openfoam.com                      |
|    \\/     M anipulation  |                                                 |
\*---------------------------------------------------------------------------*/
FoamFile
{
    version     2.0;
    format      ascii;
    class       volScalarField;
    location    "9.9";
    object      p_rgh;
}
// * * * * * * * * * * * * * * * * * * * * * * * * * * * * * * * * * * * * * //

dimensions      [1 -1 -2 0 0 0 0];


internalField   nonuniform List<scalar> 
33000
(
8110.28
8106.25
8103.28
8100.4
8097.33
8094.49
8091.47
8088.2
8084.64
8080.78
8076.65
8072.2
8067.57
8062.9
8058.21
8053.47
8048.58
8043.55
8038.41
8033.07
8027.65
8022.28
8017.24
8012.42
8007.62
8002.84
7998.02
7992.93
7987.6
7982.11
7976.62
7971.11
7965.67
7960.43
7955.27
7950.14
7944.97
7939.7
7934.19
7928.45
7922.63
7916.8
7910.98
7905.19
7899.39
7893.64
7887.94
7882.26
7876.63
7871.04
7865.56
7860.11
7854.71
7849.39
7844.13
7838.94
7833.83
7828.81
7823.87
7819.04
7814.31
7809.67
7805.12
7800.76
7796.48
7792.29
7788.23
7784.28
7780.47
7776.8
7773.25
7769.83
7766.56
7763.46
7760.57
7757.92
7755.51
7753.46
7750.96
7746.41
7744.25
7741.66
7739.02
7736.72
7734.49
7732.22
7730.4
7728.58
7727.12
7725.62
7724.46
7723.34
7722.51
7721.76
7721.27
7720.86
7720.73
7720.76
7720.92
7721.27
7721.7
7722.32
7723.51
7724.7
7726.21
7727.87
7729.68
7731.71
7734
7736.55
7739.17
7742.04
7744.94
7748.05
7751.11
7754.53
7757.63
7761.5
7765.94
7770.28
7774.92
7779.56
7784.39
7789.26
7794.2
7799.23
7804.32
7809.53
7814.77
7820.06
7825.33
7830.65
7835.94
7841.28
7846.64
7852.04
7857.41
7862.77
7868.13
7873.48
7878.83
7884.15
7889.42
7894.62
7899.79
7904.88
7909.9
7914.79
7919.56
7924.15
7928.66
7933.02
7937.2
7941.19
7944.99
7948.6
7952.01
7955.22
7958.21
7960.97
7963.51
7965.81
7967.88
7969.71
7971.3
7972.66
7973.78
7974.67
7975.33
7975.75
7975.93
7975.92
7975.7
7975.27
7974.63
7973.79
7972.75
7971.56
7970.23
7968.74
7967.1
7965.32
7963.41
7961.39
7959.27
7957.07
7954.8
7952.44
7950.01
7947.55
7945.04
7942.52
7939.97
7937.39
7934.8
7932.18
7929.55
7926.94
7924.34
7921.75
7919.15
7916.56
7913.96
7911.36
7908.78
7906.21
7903.63
7901.05
7898.46
7895.9
7893.33
7890.75
7888.16
7885.56
7882.96
7880.38
7877.83
7875.31
7872.81
7870.35
7867.92
7865.54
7863.21
7860.95
7858.76
7856.62
7854.53
7852.51
7850.55
7848.66
7846.84
7845.1
7843.42
7841.8
7840.25
7838.76
7837.34
7835.98
7834.68
7833.44
7832.27
7831.16
7830.11
7829.1
7828.15
7827.25
7826.39
7825.6
7824.87
7824.16
7823.51
7822.89
7822.32
7821.79
7821.31
7820.87
7820.46
7820.09
7819.76
7819.47
7819.21
7818.99
7818.8
7818.65
7818.52
7818.43
7818.38
7818.37
7818.38
7818.42
7818.5
7818.6
7818.73
7818.89
7819.09
7819.32
7819.58
7819.86
7820.17
7820.51
7820.87
7821.26
7821.68
7822.12
7822.59
7823.08
7823.59
7824.12
7824.68
7825.25
7825.84
7826.45
7827.08
7827.73
7828.39
7829.07
7829.75
7830.45
7831.16
7831.88
7832.6
7833.33
7834.07
7834.82
7835.56
7836.31
7837.07
7837.82
7838.57
7839.32
7840.08
7840.82
7841.57
7842.31
7843.05
7843.78
7844.52
7845.24
7845.96
7846.68
7847.39
7848.1
7848.8
7849.5
7850.19
7850.88
7851.56
7852.24
7852.92
7853.59
7854.26
7854.93
7855.59
7856.25
7856.92
7857.57
7858.23
7858.89
7859.55
7860.21
7860.87
7861.53
7862.2
7862.87
7863.54
7864.22
7864.9
7865.58
7866.28
7866.98
7867.68
7868.39
7869.11
7869.84
7870.58
7871.33
7872.08
7872.85
7873.62
7874.4
7875.2
7876
7876.81
7877.63
7878.46
7879.3
7880.15
7881.01
7881.87
7882.75
7883.63
7884.51
7885.41
7886.31
7887.22
7888.13
7889.05
7889.97
7890.89
7891.81
7892.74
7893.66
7894.59
7895.51
7896.43
7897.34
7898.25
7899.15
7900.04
7900.92
7901.79
7902.65
7903.5
7904.33
7905.15
7905.95
7906.74
7907.51
7908.26
7908.99
7909.71
7910.4
7911.08
7911.73
7912.37
7912.98
7913.57
7914.14
7914.69
7915.22
7915.73
7916.21
7916.68
7917.13
7917.55
7917.96
7918.35
7918.71
7919.06
7919.4
7919.72
7920.01
7920.3
7920.56
7920.83
7921.09
7921.33
7921.54
7921.8
7921.91
7922.15
7922.48
7922.69
7922.94
7923.12
7923.32
7923.48
7923.64
7923.78
7923.91
7924.03
7924.13
7924.24
7924.35
7924.44
7924.52
7924.62
7924.64
7924.73
7924.92
7924.98
7925.11
7925.16
7925.25
7925.28
7925.36
7925.38
7925.43
7925.45
7925.48
7925.5
7925.52
7925.54
7925.57
7925.58
7925.59
7925.62
7925.61
7925.64
7925.68
7925.7
7925.71
7925.72
7925.74
7925.76
7925.78
7925.8
7925.83
7925.87
7925.9
7925.95
7925.99
7926.05
7926.11
7926.17
7926.25
7926.32
7926.41
7926.5
7926.61
7926.72
7926.84
7926.96
7927.1
7927.25
7927.41
7927.58
7927.76
7927.95
7928.15
7928.37
7928.61
7928.85
7929.11
7929.39
7929.69
7930
7930.33
7930.68
7931.05
7931.44
7931.85
7932.28
7932.74
7933.22
7933.73
7934.26
7934.82
7935.41
7936.03
7936.68
7937.36
7938.08
7938.83
7939.62
7940.44
7941.3
7942.21
7943.15
7944.13
7945.16
7946.23
7947.34
7948.51
7949.72
7950.97
7952.28
7953.64
7955.05
7956.51
7958.02
7959.59
7961.21
7962.89
7964.62
7966.4
7968.26
7970.19
7971.8
7975
8110.22
8106.18
8103.09
8100.06
8096.98
8094.12
8091.13
8087.9
8084.36
8080.47
8076.3
8071.87
8067.35
8062.83
8058.18
8053.41
8048.54
8043.46
8038.31
8033.04
8027.47
8021.93
8016.93
8012.19
8007.4
8002.76
7998.22
7993.21
7987.87
7982.26
7976.66
7971.11
7965.57
7960.25
7955.12
7949.94
7944.79
7939.5
7933.97
7928.23
7922.46
7916.67
7910.84
7905.01
7899.08
7893.42
7887.79
7882.11
7876.45
7870.78
7865.29
7859.91
7854.53
7849.2
7843.93
7838.73
7833.6
7828.55
7823.62
7818.75
7813.91
7809.26
7804.74
7800.31
7796.11
7791.98
7787.9
7783.95
7780.12
7776.42
7772.86
7769.39
7766
7762.81
7759.84
7757.06
7754.46
7751.9
7749.27
7746.9
7744.95
7742.46
7738.34
7736.21
7734.05
7731.78
7730.04
7728.24
7726.7
7725.17
7723.96
7722.94
7722.05
7721.34
7720.79
7720.36
7720.27
7720.31
7720.64
7720.89
7721.41
7722.02
7723.22
7724.1
7725.44
7727.04
7729.18
7731.18
7733.71
7736.24
7738.88
7741.66
7744.65
7747.77
7750.97
7754.45
7758.03
7761.82
7765.86
7769.75
7774.13
7778.97
7783.88
7788.87
7793.9
7798.91
7804.05
7809.2
7814.5
7819.82
7825.16
7830.47
7835.76
7841.09
7846.5
7851.93
7857.35
7862.73
7868.11
7873.48
7878.86
7884.2
7889.48
7894.68
7899.87
7904.98
7910.04
7914.98
7919.75
7924.34
7928.85
7933.27
7937.49
7941.5
7945.32
7948.92
7952.34
7955.56
7958.58
7961.36
7963.9
7966.2
7968.29
7970.14
7971.74
7973.07
7974.19
7975.1
7975.77
7976.18
7976.34
7976.33
7976.13
7975.7
7975.06
7974.22
7973.14
7971.93
7970.58
7969.12
7967.49
7965.7
7963.79
7961.74
7959.57
7957.37
7955.12
7952.76
7950.31
7947.82
7945.3
7942.77
7940.22
7937.63
7935.02
7932.37
7929.73
7927.11
7924.5
7921.91
7919.3
7916.68
7914.06
7911.46
7908.87
7906.29
7903.7
7901.09
7898.48
7895.92
7893.35
7890.76
7888.16
7885.55
7882.92
7880.33
7877.77
7875.26
7872.76
7870.29
7867.85
7865.45
7863.12
7860.85
7858.66
7856.52
7854.44
7852.41
7850.44
7848.54
7846.72
7844.97
7843.32
7841.7
7840.15
7838.66
7837.24
7835.87
7834.55
7833.32
7832.15
7831.06
7830.01
7829.01
7828.05
7827.14
7826.29
7825.5
7824.78
7824.08
7823.42
7822.8
7822.22
7821.69
7821.21
7820.78
7820.38
7820.01
7819.68
7819.38
7819.12
7818.91
7818.72
7818.56
7818.43
7818.34
7818.29
7818.28
7818.3
7818.34
7818.41
7818.52
7818.64
7818.8
7819
7819.23
7819.49
7819.78
7820.09
7820.43
7820.79
7821.17
7821.59
7822.03
7822.51
7823
7823.51
7824.05
7824.6
7825.17
7825.77
7826.38
7827.01
7827.67
7828.33
7829
7829.69
7830.39
7831.1
7831.82
7832.55
7833.28
7834.02
7834.77
7835.52
7836.27
7837.03
7837.78
7838.54
7839.29
7840.04
7840.8
7841.54
7842.29
7843.03
7843.76
7844.5
7845.23
7845.95
7846.67
7847.38
7848.09
7848.79
7849.49
7850.19
7850.87
7851.56
7852.24
7852.92
7853.59
7854.26
7854.93
7855.59
7856.25
7856.91
7857.57
7858.23
7858.88
7859.54
7860.2
7860.86
7861.52
7862.19
7862.86
7863.53
7864.2
7864.88
7865.57
7866.26
7866.96
7867.66
7868.37
7869.09
7869.82
7870.56
7871.3
7872.06
7872.82
7873.59
7874.38
7875.17
7875.97
7876.78
7877.6
7878.44
7879.27
7880.12
7880.98
7881.85
7882.72
7883.61
7884.5
7885.39
7886.29
7887.2
7888.12
7889.04
7889.96
7890.88
7891.81
7892.74
7893.67
7894.59
7895.52
7896.44
7897.35
7898.26
7899.16
7900.06
7900.94
7901.81
7902.67
7903.52
7904.36
7905.18
7905.98
7906.77
7907.54
7908.29
7909.03
7909.74
7910.44
7911.12
7911.77
7912.41
7913.02
7913.61
7914.18
7914.73
7915.26
7915.77
7916.26
7916.72
7917.17
7917.59
7918
7918.38
7918.76
7919.1
7919.43
7919.74
7920.04
7920.34
7920.62
7920.86
7921.12
7921.26
7921.49
7921.85
7922.06
7922.33
7922.56
7922.78
7923
7923.18
7923.37
7923.51
7923.67
7923.79
7923.93
7924.05
7924.17
7924.25
7924.37
7924.37
7924.48
7924.65
7924.75
7924.86
7924.97
7925.04
7925.14
7925.2
7925.27
7925.32
7925.36
7925.4
7925.43
7925.47
7925.48
7925.52
7925.53
7925.55
7925.57
7925.54
7925.58
7925.61
7925.65
7925.65
7925.66
7925.69
7925.7
7925.72
7925.73
7925.75
7925.78
7925.8
7925.83
7925.86
7925.9
7925.94
7925.99
7926.04
7926.1
7926.17
7926.24
7926.31
7926.4
7926.49
7926.59
7926.7
7926.82
7926.94
7927.08
7927.22
7927.38
7927.55
7927.73
7927.92
7928.12
7928.34
7928.57
7928.81
7929.07
7929.35
7929.64
7929.95
7930.28
7930.63
7931
7931.38
7931.79
7932.22
7932.68
7933.16
7933.66
7934.19
7934.75
7935.34
7935.95
7936.6
7937.28
7937.99
7938.74
7939.52
7940.34
7941.2
7942.1
7943.04
7944.02
7945.05
7946.11
7947.23
7948.39
7949.59
7950.85
7952.15
7953.51
7954.92
7956.38
7957.89
7959.45
7961.07
7962.75
7964.48
7966.26
7968.12
7970.05
7971.66
7974.85
8110.81
8106.85
8103.74
8100.71
8097.47
8094.39
8091.31
8087.97
8084.35
8080.42
8076.28
8071.84
8067.26
8062.89
8058.52
8053.99
8049.12
8044.03
8038.74
8033.19
8027.46
8021.86
8016.88
8012.1
8007.39
8002.72
7998.08
7993.04
7987.61
7982.06
7976.26
7970.39
7964.68
7959.29
7954.22
7949.17
7944.06
7938.87
7933.44
7927.74
7922.09
7916.36
7910.48
7904.47
7898.59
7892.95
7887.46
7881.81
7876.12
7870.36
7864.81
7859.44
7854.18
7848.86
7843.57
7838.35
7833.17
7827.97
7822.97
7818.13
7813.52
7808.94
7804.36
7799.75
7795.27
7791.04
7787.09
7783.27
7779.47
7775.76
7772.17
7768.67
7765.2
7761.98
7758.93
7756.14
7753.38
7750.68
7748.02
7745.36
7742.88
7740.33
7738.15
7736.31
7734.07
7730.34
7728.76
7727.01
7725.96
7724.25
7723.2
7721.98
7721.15
7720.34
7719.89
7719.41
7719.43
7719.42
7719.65
7720
7720.54
7721.36
7722.35
7723.63
7725.02
7726.74
7728.21
7730.16
7732.28
7735.04
7737.84
7740.89
7744
7747.12
7750.29
7753.83
7757.49
7761.51
7765.64
7769.87
7774.19
7778.71
7783.18
7788.05
7793.08
7798.17
7803.37
7808.69
7814.06
7819.49
7824.77
7830.13
7835.43
7840.91
7846.39
7851.9
7857.31
7862.71
7868.06
7873.5
7878.97
7884.36
7889.67
7894.88
7900.12
7905.28
7910.42
7915.37
7920.1
7924.77
7929.32
7933.81
7938.07
7942.06
7945.86
7949.6
7953.1
7956.34
7959.31
7962.03
7964.61
7967
7969.13
7970.99
7972.6
7973.91
7975
7975.95
7976.64
7977.03
7977.17
7977.15
7976.97
7976.55
7975.9
7975.05
7973.95
7972.7
7971.33
7969.83
7968.23
7966.44
7964.51
7962.43
7960.21
7957.99
7955.73
7953.37
7950.93
7948.4
7945.82
7943.24
7940.68
7938.09
7935.46
7932.79
7930.1
7927.44
7924.82
7922.2
7919.56
7916.89
7914.25
7911.63
7909.03
7906.42
7903.79
7901.13
7898.52
7895.94
7893.36
7890.75
7888.13
7885.5
7882.85
7880.23
7877.66
7875.15
7872.64
7870.16
7867.71
7865.28
7862.93
7860.65
7858.45
7856.33
7854.24
7852.21
7850.22
7848.31
7846.5
7844.78
7843.11
7841.49
7839.93
7838.43
7836.98
7835.61
7834.33
7833.12
7831.98
7830.87
7829.81
7828.81
7827.84
7826.92
7826.08
7825.31
7824.59
7823.89
7823.24
7822.62
7822.04
7821.52
7821.06
7820.61
7820.2
7819.81
7819.48
7819.22
7818.96
7818.74
7818.55
7818.39
7818.25
7818.16
7818.12
7818.12
7818.13
7818.17
7818.24
7818.35
7818.48
7818.63
7818.83
7819.05
7819.32
7819.61
7819.92
7820.26
7820.62
7821
7821.42
7821.87
7822.35
7822.84
7823.36
7823.89
7824.45
7825.02
7825.62
7826.24
7826.88
7827.53
7828.19
7828.88
7829.57
7830.28
7830.98
7831.7
7832.43
7833.18
7833.93
7834.68
7835.43
7836.18
7836.94
7837.71
7838.47
7839.22
7839.98
7840.74
7841.49
7842.24
7842.98
7843.72
7844.46
7845.19
7845.92
7846.64
7847.36
7848.07
7848.78
7849.48
7850.17
7850.87
7851.55
7852.23
7852.91
7853.58
7854.25
7854.92
7855.58
7856.25
7856.9
7857.56
7858.22
7858.87
7859.53
7860.19
7860.84
7861.5
7862.17
7862.83
7863.5
7864.17
7864.85
7865.53
7866.22
7866.92
7867.62
7868.33
7869.05
7869.77
7870.51
7871.25
7872
7872.77
7873.54
7874.32
7875.11
7875.92
7876.73
7877.55
7878.38
7879.23
7880.08
7880.94
7881.81
7882.68
7883.57
7884.46
7885.36
7886.26
7887.18
7888.09
7889.02
7889.94
7890.87
7891.8
7892.74
7893.67
7894.6
7895.53
7896.45
7897.37
7898.29
7899.19
7900.09
7900.98
7901.86
7902.72
7903.57
7904.41
7905.24
7906.05
7906.84
7907.61
7908.37
7909.1
7909.82
7910.52
7911.2
7911.85
7912.49
7913.1
7913.7
7914.27
7914.82
7915.34
7915.85
7916.33
7916.8
7917.25
7917.68
7918.07
7918.46
7918.81
7919.16
7919.51
7919.83
7920.11
7920.4
7920.57
7920.84
7921.22
7921.46
7921.75
7921.98
7922.21
7922.43
7922.66
7922.85
7923.06
7923.23
7923.41
7923.59
7923.72
7923.89
7923.98
7924.12
7924.13
7924.26
7924.44
7924.56
7924.68
7924.78
7924.87
7924.95
7925.05
7925.12
7925.21
7925.25
7925.33
7925.35
7925.41
7925.41
7925.48
7925.47
7925.51
7925.53
7925.5
7925.53
7925.57
7925.62
7925.62
7925.63
7925.65
7925.64
7925.65
7925.66
7925.67
7925.69
7925.71
7925.73
7925.75
7925.77
7925.8
7925.83
7925.87
7925.91
7925.95
7926
7926.06
7926.12
7926.19
7926.27
7926.35
7926.44
7926.54
7926.65
7926.77
7926.89
7927.02
7927.17
7927.32
7927.49
7927.66
7927.85
7928.05
7928.27
7928.5
7928.74
7928.99
7929.26
7929.55
7929.86
7930.19
7930.53
7930.89
7931.27
7931.68
7932.1
7932.55
7933.03
7933.52
7934.05
7934.6
7935.18
7935.8
7936.44
7937.11
7937.82
7938.56
7939.34
7940.15
7941.01
7941.9
7942.83
7943.81
7944.83
7945.89
7947
7948.15
7949.35
7950.6
7951.9
7953.25
7954.66
7956.11
7957.62
7959.18
7960.8
7962.47
7964.2
7965.98
7967.83
7969.76
7971.37
7974.57
8111.78
8107.8
8104.54
8101.61
8098.35
8095.14
8091.92
8088.47
8084.78
8080.89
8076.77
8072.26
8067.86
8063.71
8059.39
8054.84
8049.95
8044.82
8039.61
8034.26
8028.77
8023.46
8018.22
8013.23
8008.36
8003.52
7998.66
7993.64
7988.12
7982.32
7976.51
7970.56
7964.63
7959.1
7953.81
7948.6
7943.46
7938.19
7932.59
7927.11
7921.6
7915.88
7909.98
7903.8
7898.01
7892.46
7887.03
7881.38
7875.65
7869.78
7864.22
7858.83
7853.65
7848.33
7843.02
7837.77
7832.54
7827.3
7822.24
7817.6
7812.89
7808.21
7803.62
7799.05
7794.31
7790.01
7785.89
7782.02
7778.41
7774.78
7771.17
7767.67
7764.26
7760.81
7757.71
7754.82
7751.97
7749.19
7746.51
7743.87
7741.34
7738.82
7736.3
7734.03
7731.75
7729.58
7727.66
7726.29
7724.57
7722.13
7721.46
7720.91
7719.78
7719.18
7718.39
7717.95
7717.79
7718.09
7718.32
7718.69
7719.22
7719.99
7721.15
7722.29
7723.8
7725.23
7727.12
7729.13
7731.48
7734.31
7736.77
7739.47
7742.53
7745.83
7749.19
7752.96
7756.79
7760.76
7764.84
7769.1
7773.51
7778.11
7782.82
7787.67
7792.64
7797.44
7802.53
7807.82
7813.41
7818.82
7824.24
7829.52
7835.01
7840.52
7846.16
7851.68
7857.23
7862.67
7868.06
7873.5
7879.03
7884.56
7889.96
7895.21
7900.51
7905.83
7910.96
7915.91
7920.67
7925.43
7930.07
7934.65
7938.92
7942.9
7946.79
7950.58
7954.17
7957.45
7960.43
7963.18
7965.78
7968.15
7970.37
7972.28
7973.89
7975.18
7976.27
7977.2
7977.95
7978.33
7978.46
7978.42
7978.2
7977.82
7977.18
7976.31
7975.19
7973.88
7972.49
7970.98
7969.37
7967.56
7965.59
7963.47
7961.2
7958.93
7956.62
7954.28
7951.81
7949.28
7946.64
7943.98
7941.33
7938.74
7936.09
7933.41
7930.69
7927.93
7925.22
7922.56
7919.91
7917.24
7914.55
7911.9
7909.24
7906.57
7903.85
7901.19
7898.54
7895.97
7893.35
7890.7
7888.05
7885.36
7882.68
7880.06
7877.49
7874.97
7872.43
7869.93
7867.47
7865.05
7862.65
7860.35
7858.12
7855.99
7853.92
7851.89
7849.9
7847.97
7846.16
7844.46
7842.78
7841.16
7839.58
7838.05
7836.62
7835.28
7834.03
7832.84
7831.67
7830.56
7829.48
7828.44
7827.5
7826.62
7825.83
7825.06
7824.31
7823.6
7822.91
7822.31
7821.8
7821.28
7820.8
7820.34
7819.9
7819.53
7819.21
7818.96
7818.71
7818.49
7818.3
7818.14
7818.01
7817.9
7817.85
7817.86
7817.88
7817.91
7817.97
7818.06
7818.22
7818.4
7818.6
7818.82
7819.05
7819.32
7819.65
7820.01
7820.38
7820.76
7821.17
7821.63
7822.11
7822.6
7823.1
7823.64
7824.22
7824.82
7825.42
7826.04
7826.67
7827.31
7827.98
7828.68
7829.39
7830.1
7830.82
7831.53
7832.27
7833.02
7833.78
7834.53
7835.28
7836.04
7836.82
7837.59
7838.36
7839.12
7839.87
7840.65
7841.41
7842.17
7842.91
7843.65
7844.39
7845.14
7845.88
7846.6
7847.33
7848.04
7848.75
7849.46
7850.16
7850.85
7851.54
7852.22
7852.9
7853.57
7854.24
7854.91
7855.57
7856.23
7856.89
7857.55
7858.2
7858.85
7859.5
7860.16
7860.82
7861.47
7862.13
7862.79
7863.45
7864.12
7864.8
7865.48
7866.17
7866.86
7867.56
7868.26
7868.98
7869.7
7870.43
7871.18
7871.93
7872.69
7873.46
7874.24
7875.03
7875.84
7876.65
7877.47
7878.31
7879.15
7880
7880.87
7881.74
7882.62
7883.51
7884.4
7885.3
7886.22
7887.14
7888.06
7888.99
7889.92
7890.85
7891.8
7892.74
7893.67
7894.61
7895.55
7896.48
7897.4
7898.33
7899.24
7900.14
7901.04
7901.92
7902.79
7903.65
7904.49
7905.32
7906.13
7906.93
7907.71
7908.47
7909.21
7909.93
7910.62
7911.31
7911.97
7912.61
7913.22
7913.82
7914.39
7914.94
7915.47
7915.98
7916.47
7916.92
7917.38
7917.78
7918.19
7918.58
7918.96
7919.29
7919.62
7919.83
7920.14
7920.55
7920.83
7921.14
7921.39
7921.65
7921.89
7922.15
7922.36
7922.59
7922.79
7922.99
7923.21
7923.37
7923.56
7923.67
7923.83
7923.86
7924
7924.21
7924.34
7924.47
7924.6
7924.67
7924.79
7924.87
7924.98
7925.05
7925.14
7925.2
7925.26
7925.31
7925.37
7925.42
7925.45
7925.48
7925.52
7925.47
7925.5
7925.56
7925.59
7925.59
7925.6
7925.61
7925.59
7925.59
7925.6
7925.62
7925.63
7925.65
7925.66
7925.67
7925.69
7925.7
7925.72
7925.74
7925.77
7925.8
7925.83
7925.87
7925.91
7925.96
7926.02
7926.08
7926.14
7926.22
7926.3
7926.38
7926.48
7926.58
7926.69
7926.82
7926.95
7927.09
7927.24
7927.4
7927.57
7927.76
7927.95
7928.16
7928.39
7928.62
7928.87
7929.14
7929.42
7929.72
7930.04
7930.38
7930.73
7931.11
7931.5
7931.92
7932.37
7932.83
7933.32
7933.84
7934.38
7934.96
7935.56
7936.19
7936.86
7937.56
7938.29
7939.06
7939.86
7940.71
7941.59
7942.51
7943.48
7944.49
7945.54
7946.64
7947.79
7948.98
7950.23
7951.52
7952.86
7954.26
7955.71
7957.21
7958.77
7960.38
7962.05
7963.77
7965.55
7967.4
7969.33
7970.94
7974.13
8113.26
8109.21
8105.88
8103.01
8099.75
8096.4
8093.07
8089.53
8085.82
8081.96
8077.81
8073.34
8069.22
8065.01
8060.52
8055.86
8051.01
8045.97
8040.84
8035.61
8030.33
8025.06
8019.78
8014.57
8009.43
8004.24
7998.83
7993.5
7988.18
7982.55
7976.79
7971.02
7965.28
7959.66
7954.16
7948.71
7943.19
7937.53
7932.03
7926.69
7921.11
7915.33
7909.45
7903.33
7897.44
7892.06
7886.5
7880.8
7875.06
7869.15
7863.44
7858.2
7852.97
7847.59
7842.25
7836.96
7831.73
7826.61
7821.61
7816.73
7811.9
7807.17
7802.54
7797.96
7793.23
7788.72
7784.57
7780.53
7776.95
7773.45
7769.84
7766.31
7762.9
7759.59
7756.37
7753.27
7750.28
7747.51
7744.84
7742.2
7739.63
7737.06
7734.36
7732.09
7729.92
7727.89
7726.16
7724.61
7722.95
7721.59
7720.56
7719.03
7717.21
7716.87
7717.02
7716.06
7715.89
7715.8
7716.41
7716.87
7717.62
7718.33
7719.43
7720.72
7722.25
7723.97
7725.75
7727.74
7729.94
7732.53
7735.27
7738.2
7741.53
7744.6
7747.77
7751.34
7755.3
7759.38
7763.65
7767.92
7772.43
7777.05
7781.81
7786.69
7791.73
7796.78
7801.82
7807.21
7812.65
7818.22
7823.54
7829.09
7834.53
7840.39
7846.02
7851.69
7857.24
7862.83
7868.36
7873.76
7879.34
7884.81
7890.39
7895.92
7901.32
7906.59
7911.75
7916.61
7921.54
7926.38
7931.2
7935.82
7940.05
7944.11
7948.08
7951.91
7955.6
7958.96
7962.01
7964.74
7967.37
7969.77
7972.04
7974
7975.61
7976.87
7978.01
7978.91
7979.7
7980.15
7980.22
7980.15
7979.88
7979.5
7978.88
7977.99
7976.81
7975.46
7974.05
7972.58
7970.9
7969.04
7967.03
7964.88
7962.52
7960.19
7957.8
7955.44
7952.96
7950.38
7947.74
7944.99
7942.24
7939.57
7936.9
7934.15
7931.4
7928.56
7925.77
7923.01
7920.33
7917.64
7914.91
7912.18
7909.44
7906.64
7903.92
7901.22
7898.61
7895.96
7893.27
7890.57
7887.83
7885.1
7882.44
7879.84
7877.27
7874.67
7872.06
7869.51
7867.08
7864.7
7862.34
7860.03
7857.75
7855.51
7853.39
7851.35
7849.38
7847.56
7845.77
7844.02
7842.33
7840.7
7839.11
7837.58
7836.17
7834.85
7833.63
7832.42
7831.24
7830.09
7829.01
7828.03
7827.1
7826.28
7825.47
7824.68
7823.93
7823.19
7822.52
7821.92
7821.42
7820.93
7820.45
7819.98
7819.54
7819.17
7818.88
7818.62
7818.37
7818.14
7817.96
7817.8
7817.67
7817.56
7817.51
7817.52
7817.53
7817.56
7817.61
7817.72
7817.88
7818.06
7818.26
7818.49
7818.72
7818.98
7819.29
7819.64
7820.05
7820.46
7820.88
7821.32
7821.77
7822.25
7822.77
7823.33
7823.93
7824.53
7825.14
7825.75
7826.38
7827.04
7827.73
7828.44
7829.15
7829.86
7830.59
7831.31
7832.05
7832.83
7833.59
7834.34
7835.09
7835.87
7836.65
7837.44
7838.22
7838.98
7839.75
7840.53
7841.3
7842.07
7842.82
7843.57
7844.32
7845.08
7845.82
7846.56
7847.28
7848
7848.71
7849.42
7850.13
7850.83
7851.53
7852.21
7852.88
7853.55
7854.22
7854.9
7855.57
7856.23
7856.88
7857.52
7858.17
7858.82
7859.48
7860.13
7860.78
7861.44
7862.09
7862.73
7863.39
7864.05
7864.73
7865.41
7866.09
7866.78
7867.47
7868.17
7868.88
7869.6
7870.33
7871.07
7871.82
7872.58
7873.35
7874.13
7874.92
7875.73
7876.54
7877.37
7878.2
7879.05
7879.9
7880.77
7881.64
7882.53
7883.42
7884.32
7885.23
7886.16
7887.09
7888.02
7888.95
7889.89
7890.84
7891.78
7892.73
7893.68
7894.63
7895.57
7896.51
7897.44
7898.38
7899.3
7900.22
7901.12
7902.01
7902.89
7903.76
7904.61
7905.44
7906.26
7907.06
7907.85
7908.62
7909.36
7910.08
7910.79
7911.47
7912.14
7912.78
7913.4
7914
7914.56
7915.13
7915.64
7916.16
7916.62
7917.09
7917.54
7917.97
7918.35
7918.74
7919
7919.35
7919.8
7920.12
7920.47
7920.75
7921.04
7921.31
7921.6
7921.84
7922.1
7922.31
7922.54
7922.75
7922.97
7923.14
7923.32
7923.4
7923.56
7923.84
7923.97
7924.18
7924.27
7924.44
7924.52
7924.65
7924.75
7924.87
7924.94
7925.05
7925.12
7925.19
7925.25
7925.33
7925.37
7925.44
7925.49
7925.52
7925.44
7925.48
7925.55
7925.59
7925.58
7925.59
7925.59
7925.58
7925.58
7925.58
7925.59
7925.6
7925.6
7925.61
7925.62
7925.63
7925.64
7925.64
7925.66
7925.67
7925.68
7925.7
7925.73
7925.75
7925.79
7925.82
7925.86
7925.91
7925.95
7926.01
7926.07
7926.15
7926.22
7926.31
7926.4
7926.49
7926.6
7926.72
7926.85
7926.98
7927.13
7927.29
7927.45
7927.63
7927.82
7928.02
7928.24
7928.47
7928.72
7928.98
7929.25
7929.54
7929.85
7930.18
7930.53
7930.89
7931.28
7931.69
7932.12
7932.58
7933.06
7933.56
7934.1
7934.66
7935.25
7935.87
7936.52
7937.21
7937.93
7938.68
7939.48
7940.31
7941.18
7942.09
7943.05
7944.04
7945.09
7946.18
7947.31
7948.49
7949.73
7951.01
7952.35
7953.73
7955.18
7956.67
7958.22
7959.83
7961.49
7963.21
7964.99
7966.83
7968.76
7970.36
7973.56
8115.17
8111.1
8107.68
8104.81
8101.51
8098.04
8094.66
8091.1
8087.35
8083.46
8079.32
8075.07
8070.8
8066.44
8061.89
8057.21
8052.35
8047.31
8042.22
8037.03
8031.74
8026.45
8021.15
8015.82
8010.35
8004.86
7999.49
7994.3
7988.86
7983.15
7977.35
7971.56
7965.78
7960.04
7954.18
7948.23
7942.64
7937.16
7931.86
7926.35
7920.6
7914.79
7908.92
7903.01
7897.2
7891.54
7885.82
7880.07
7874.32
7868.51
7862.74
7857.45
7852.05
7846.62
7841.23
7835.9
7830.66
7825.51
7820.46
7815.51
7810.65
7805.88
7801.22
7796.66
7792.07
7787.25
7782.96
7778.89
7775.31
7771.87
7768.24
7764.65
7761.18
7757.82
7754.58
7751.35
7748.01
7745.26
7742.76
7740.19
7737.71
7735.23
7732.71
7730.46
7728.47
7726.57
7724.71
7722.94
7721.28
7719.8
7718.54
7717.08
7715.99
7714.95
7713.7
7712.8
7712.96
7713.84
7714.03
7714.79
7715.19
7716.08
7717.02
7718.53
7720.07
7721.68
7723.63
7725.38
7727.89
7730.57
7733.43
7736.3
7739.36
7742.72
7746.2
7750.1
7753.63
7757.5
7761.6
7766.17
7770.91
7775.78
7780.53
7785.46
7790.53
7795.68
7800.87
7806.27
7811.75
7817.39
7822.96
7828.52
7833.98
7839.69
7845.62
7851.47
7857.22
7862.91
7868.59
7874.15
7879.65
7885.31
7891
7896.68
7902.13
7907.5
7912.72
7917.65
7922.68
7927.69
7932.66
7937.29
7941.59
7945.7
7949.75
7953.72
7957.47
7960.89
7964.03
7966.78
7969.42
7971.9
7974.23
7976.2
7977.84
7979.09
7980.22
7981.16
7981.96
7982.42
7982.5
7982.34
7982.08
7981.7
7981.04
7980.1
7978.88
7977.47
7976.08
7974.57
7972.82
7970.89
7968.83
7966.64
7964.25
7961.78
7959.31
7956.84
7954.36
7951.73
7949.02
7946.26
7943.45
7940.63
7937.77
7934.92
7932.16
7929.32
7926.4
7923.63
7920.87
7918.08
7915.26
7912.43
7909.53
7906.73
7903.96
7901.29
7898.6
7895.85
7893.11
7890.33
7887.5
7884.78
7882.09
7879.52
7876.88
7874.24
7871.58
7869.04
7866.55
7864.2
7861.82
7859.5
7857.25
7855
7852.81
7850.76
7848.78
7846.94
7845.19
7843.44
7841.75
7840.14
7838.57
7837.03
7835.58
7834.34
7833.1
7831.88
7830.66
7829.52
7828.48
7827.53
7826.68
7825.82
7824.99
7824.21
7823.43
7822.69
7822.05
7821.48
7820.99
7820.49
7820.01
7819.54
7819.09
7818.74
7818.48
7818.2
7817.94
7817.7
7817.48
7817.32
7817.25
7817.18
7817.12
7817.1
7817.09
7817.1
7817.17
7817.3
7817.47
7817.64
7817.83
7818.06
7818.3
7818.56
7818.86
7819.23
7819.64
7820.04
7820.47
7820.92
7821.37
7821.85
7822.39
7822.98
7823.56
7824.16
7824.77
7825.38
7826.02
7826.7
7827.42
7828.12
7828.84
7829.57
7830.3
7831.03
7831.8
7832.57
7833.34
7834.11
7834.88
7835.67
7836.47
7837.26
7838.04
7838.82
7839.6
7840.4
7841.18
7841.95
7842.72
7843.47
7844.25
7845.01
7845.76
7846.5
7847.24
7847.96
7848.68
7849.4
7850.11
7850.81
7851.51
7852.2
7852.88
7853.55
7854.22
7854.89
7855.56
7856.22
7856.86
7857.5
7858.16
7858.81
7859.46
7860.1
7860.75
7861.39
7862.03
7862.67
7863.32
7863.98
7864.66
7865.33
7866
7866.68
7867.37
7868.06
7868.76
7869.48
7870.21
7870.94
7871.69
7872.45
7873.21
7873.99
7874.79
7875.59
7876.4
7877.23
7878.07
7878.92
7879.78
7880.65
7881.53
7882.43
7883.33
7884.24
7885.15
7886.08
7887.02
7887.96
7888.91
7889.86
7890.81
7891.77
7892.73
7893.69
7894.65
7895.6
7896.55
7897.5
7898.45
7899.38
7900.31
7901.22
7902.12
7903.01
7903.89
7904.74
7905.59
7906.41
7907.23
7908.02
7908.8
7909.54
7910.27
7910.98
7911.67
7912.34
7912.99
7913.6
7914.2
7914.76
7915.31
7915.87
7916.36
7916.88
7917.32
7917.77
7918.08
7918.49
7918.98
7919.35
7919.73
7920.06
7920.39
7920.7
7921.02
7921.3
7921.59
7921.83
7922.09
7922.33
7922.57
7922.77
7922.98
7923.08
7923.26
7923.56
7923.71
7923.94
7924.05
7924.24
7924.33
7924.49
7924.59
7924.73
7924.82
7924.94
7925.02
7925.11
7925.16
7925.28
7925.32
7925.39
7925.47
7925.42
7925.46
7925.55
7925.59
7925.59
7925.6
7925.6
7925.6
7925.59
7925.58
7925.58
7925.58
7925.59
7925.59
7925.59
7925.59
7925.59
7925.59
7925.59
7925.6
7925.6
7925.61
7925.62
7925.62
7925.64
7925.66
7925.68
7925.7
7925.73
7925.76
7925.79
7925.83
7925.88
7925.93
7925.99
7926.06
7926.13
7926.21
7926.29
7926.39
7926.49
7926.6
7926.72
7926.85
7926.99
7927.14
7927.3
7927.47
7927.66
7927.85
7928.06
7928.28
7928.52
7928.77
7929.04
7929.32
7929.62
7929.93
7930.27
7930.62
7931
7931.39
7931.81
7932.26
7932.72
7933.21
7933.73
7934.28
7934.86
7935.46
7936.1
7936.77
7937.48
7938.22
7938.99
7939.81
7940.67
7941.56
7942.5
7943.48
7944.51
7945.59
7946.71
7947.88
7949.1
7950.37
7951.7
7953.07
7954.5
7955.99
7957.53
7959.13
7960.79
7962.5
7964.27
7966.11
7968.04
7969.64
7972.83
8117.39
8113.46
8109.99
8107.07
8103.79
8100.14
8096.67
8093.03
8089.2
8085.28
8081.15
8076.89
8072.56
8068.16
8063.56
8058.83
8053.98
8049.02
8043.87
8038.65
8033.36
8028.01
8022.63
8017.19
8011.47
8005.88
8000.51
7995.21
7989.6
7983.84
7977.99
7972.06
7965.98
7959.79
7953.85
7948.13
7942.67
7937.36
7931.78
7925.98
7920.12
7914.25
7908.37
7902.49
7896.64
7890.83
7885.01
7879.2
7873.41
7867.67
7861.96
7856.32
7850.83
7845.37
7839.95
7834.58
7829.3
7824.11
7819.03
7814.03
7809.13
7804.33
7799.63
7795.04
7790.57
7786.02
7781.24
7776.95
7773.47
7769.96
7766.3
7762.69
7759.17
7755.77
7752.47
7749.11
7745.75
7742.85
7740.32
7737.92
7735.46
7733.02
7730.7
7728.51
7726.31
7724.28
7722.39
7720.37
7718.88
7717.73
7716.6
7715.36
7714.24
7713.24
7711.89
7711.51
7711.38
7710.74
7710.75
7711.45
7713.09
7713.46
7714.69
7715.71
7717.43
7719.13
7721.16
7722.88
7725.25
7728.02
7730.97
7733.95
7737.23
7740.51
7744.09
7747.56
7751.45
7755.67
7760.38
7764.56
7768.99
7773.56
7778.62
7783.68
7788.93
7793.98
7799.59
7805.07
7810.77
7816.37
7822.16
7827.96
7833.7
7839.45
7845.29
7851.38
7857.58
7863.36
7869.34
7874.88
7880.53
7886.16
7892.04
7897.68
7903.29
7908.73
7914.04
7918.99
7924.19
7929.44
7934.43
7939.13
7943.61
7947.68
7951.88
7955.99
7959.75
7963.22
7966.45
7969.32
7971.91
7974.55
7976.88
7978.85
7980.55
7981.86
7982.92
7983.99
7984.73
7985.14
7985.28
7985.05
7984.82
7984.38
7983.64
7982.66
7981.39
7979.94
7978.57
7976.96
7975.11
7973.09
7970.93
7968.7
7966.33
7963.79
7961.13
7958.5
7955.94
7953.29
7950.52
7947.68
7944.81
7941.85
7938.77
7935.84
7932.91
7930.06
7927.21
7924.33
7921.42
7918.51
7915.58
7912.57
7909.63
7906.77
7904
7901.25
7898.43
7895.62
7892.82
7890.01
7887.17
7884.33
7881.59
7878.91
7876.33
7873.69
7871.07
7868.45
7865.92
7863.53
7861.09
7858.7
7856.51
7854.36
7852.22
7850.08
7848.04
7846.15
7844.43
7842.72
7841.04
7839.42
7837.84
7836.29
7834.9
7833.68
7832.43
7831.23
7830.06
7828.9
7827.85
7826.94
7826.09
7825.22
7824.41
7823.63
7822.87
7822.13
7821.49
7820.96
7820.46
7819.96
7819.48
7819.03
7818.58
7818.22
7817.97
7817.68
7817.42
7817.16
7816.93
7816.78
7816.73
7816.66
7816.61
7816.59
7816.57
7816.57
7816.65
7816.79
7816.95
7817.12
7817.32
7817.54
7817.79
7818.05
7818.36
7818.76
7819.14
7819.55
7819.98
7820.44
7820.9
7821.38
7821.9
7822.52
7823.11
7823.72
7824.34
7824.96
7825.6
7826.27
7827.01
7827.74
7828.47
7829.2
7829.95
7830.72
7831.49
7832.27
7833.04
7833.81
7834.63
7835.44
7836.24
7837.04
7837.84
7838.64
7839.44
7840.23
7841.01
7841.79
7842.59
7843.38
7844.16
7844.93
7845.68
7846.42
7847.17
7847.92
7848.66
7849.38
7850.09
7850.79
7851.49
7852.19
7852.88
7853.56
7854.23
7854.89
7855.55
7856.2
7856.85
7857.5
7858.15
7858.79
7859.43
7860.06
7860.69
7861.33
7861.97
7862.61
7863.25
7863.9
7864.56
7865.22
7865.89
7866.56
7867.24
7867.93
7868.63
7869.33
7870.05
7870.79
7871.53
7872.28
7873.04
7873.82
7874.62
7875.42
7876.23
7877.06
7877.9
7878.76
7879.63
7880.5
7881.39
7882.3
7883.21
7884.13
7885.05
7885.99
7886.94
7887.9
7888.86
7889.82
7890.79
7891.76
7892.74
7893.71
7894.68
7895.65
7896.61
7897.58
7898.54
7899.49
7900.42
7901.35
7902.26
7903.17
7904.05
7904.92