/*--------------------------------*- C++ -*----------------------------------*\
| =========                 |                                                 |
| \\      /  F ield         | OpenFOAM: The Open Source CFD Toolbox           |
|  \\    /   O peration     | Version:  v2006                                 |
|   \\  /    A nd           | Website:  www.openfoam.com                      |
|    \\/     M anipulation  |                                                 |
\*---------------------------------------------------------------------------*/
FoamFile
{
    version     2.0;
    format      ascii;
    class       surfaceScalarField;
    location    "9.9";
    object      phi;
}
// * * * * * * * * * * * * * * * * * * * * * * * * * * * * * * * * * * * * * //

dimensions      [0 3 -1 0 0 0 0];
oriented        oriented;


internalField   nonuniform List<scalar> 
65390
(
3.55409e-05
2.87945e-06
3.13866e-05
4.15437e-06
2.7263e-05
4.12367e-06
2.53132e-05
1.94992e-06
2.6996e-05
-1.68278e-06
3.1353e-05
-4.35693e-06
3.69347e-05
-5.58169e-06
4.25838e-05
-5.64905e-06
4.78791e-05
-5.29525e-06
5.33691e-05
-5.49002e-06
5.87772e-05
-5.40808e-06
6.32218e-05
-4.4446e-06
6.67528e-05
-3.53103e-06
6.93901e-05
-2.63735e-06
7.15903e-05
-2.20013e-06
7.38657e-05
-2.27546e-06
7.62288e-05
-2.36312e-06
7.83774e-05
-2.14867e-06
8.04939e-05
-2.11649e-06
8.2861e-05
-2.36715e-06
8.47607e-05
-1.89974e-06
8.52079e-05
-4.47209e-07
8.41861e-05
1.02177e-06
8.24232e-05
1.76283e-06
8.02283e-05
2.19493e-06
7.68189e-05
3.40939e-06
7.24731e-05
4.34576e-06
6.82888e-05
4.1842e-06
6.51073e-05
3.18148e-06
6.35006e-05
1.60673e-06
6.27576e-05
7.43055e-07
6.21536e-05
6.03912e-07
6.12408e-05
9.12838e-07
5.9052e-05
2.18882e-06
5.65622e-05
2.48979e-06
5.32523e-05
3.30995e-06
4.79935e-05
5.25879e-06
4.24014e-05
5.59209e-06
3.75973e-05
4.80409e-06
3.34624e-05
4.13498e-06
3.07505e-05
2.71194e-06
2.90796e-05
1.67094e-06
2.76711e-05
1.40852e-06
2.54236e-05
2.24748e-06
2.25321e-05
2.89154e-06
2.06761e-05
1.85609e-06
1.98494e-05
8.26715e-07
1.92506e-05
5.98803e-07
1.81955e-05
1.05515e-06
1.61449e-05
2.05063e-06
1.42066e-05
1.93828e-06
1.3125e-05
1.08153e-06
1.29122e-05
2.12736e-07
1.30848e-05
-1.72638e-07
1.34476e-05
-3.62799e-07
1.38868e-05
-4.39274e-07
1.43016e-05
-4.14814e-07
1.4516e-05
-2.14479e-07
1.44511e-05
6.47918e-08
1.38769e-05
5.74194e-07
1.26879e-05
1.18898e-06
1.10278e-05
1.66e-06
9.18496e-06
1.84287e-06
7.53329e-06
1.65167e-06
6.24279e-06
1.2905e-06
5.21869e-06
1.02409e-06
4.50868e-06
7.10022e-07
4.33758e-06
1.71107e-07
4.78221e-06
-4.44617e-07
5.68847e-06
-9.0624e-07
6.86067e-06
-1.17217e-06
7.95445e-06
-1.09375e-06
8.67773e-06
-7.23236e-07
9.14082e-06
-4.63028e-07
9.51638e-06
-3.75507e-07
1.00359e-05
-5.19477e-07
1.06771e-05
-6.41085e-07
1.04936e-05
1.83514e-07
1.00331e-05
4.60502e-07
1.00234e-05
9.70901e-09
9.46228e-06
5.6112e-07
8.70732e-06
7.5495e-07
7.76118e-06
9.46122e-07
6.99201e-06
7.69154e-07
6.30599e-06
6.85998e-07
5.49329e-06
8.12673e-07
4.73928e-06
7.53979e-07
4.2022e-06
5.37051e-07
3.89533e-06
3.06837e-07
3.5819e-06
3.13406e-07
3.30063e-06
2.81244e-07
3.04597e-06
2.54633e-07
2.72322e-06
3.22721e-07
2.37064e-06
3.52549e-07
1.88149e-06
4.89117e-07
1.33633e-06
5.4514e-07
6.79184e-07
6.57121e-07
6.55429e-09
6.72607e-07
-1.19507e-06
1.2016e-06
-3.00759e-06
1.81249e-06
-4.65262e-06
1.64501e-06
-5.58716e-06
9.34527e-07
-5.84769e-06
2.60517e-07
-6.02557e-06
1.77866e-07
-5.86056e-06
-1.65028e-07
-5.63961e-06
-2.20962e-07
-5.61545e-06
-2.41615e-08
-5.79835e-06
1.82884e-07
-5.90141e-06
1.03057e-07
-5.79741e-06
-1.04008e-07
-5.71018e-06
-8.72342e-08
-5.54e-06
-1.7018e-07
-5.36411e-06
-1.75886e-07
-5.24059e-06
-1.23514e-07
-5.28403e-06
4.34436e-08
-5.38862e-06
1.04601e-07
-5.7798e-06
3.91177e-07
-6.28001e-06
5.00215e-07
-6.51795e-06
2.37938e-07
-6.48065e-06
-3.73186e-08
-6.27583e-06
-2.04832e-07
-6.11687e-06
-1.58983e-07
-5.78882e-06
-3.28081e-07
-5.41619e-06
-3.7266e-07
-5.14722e-06
-2.69006e-07
-4.88519e-06
-2.62082e-07
-4.61206e-06
-2.73176e-07
-4.34001e-06
-2.72101e-07
-4.01247e-06
-3.27587e-07
-3.64816e-06
-3.64356e-07
-3.29148e-06
-3.56726e-07
-2.93297e-06
-3.58544e-07
-2.60083e-06
-3.32165e-07
-2.27006e-06
-3.30795e-07
-1.91701e-06
-3.53063e-07
-1.53489e-06
-3.82137e-07
-1.13993e-06
-3.94962e-07
-7.51109e-07
-3.88831e-07
-3.65684e-07
-3.85427e-07
1.78882e-08
-3.8357e-07
4.04069e-07
-3.86176e-07
7.88663e-07
-3.84589e-07
1.15868e-06
-3.70015e-07
1.51086e-06
-3.52174e-07
1.85881e-06
-3.47938e-07
2.20811e-06
-3.49302e-07
2.56437e-06
-3.56272e-07
2.91913e-06
-3.54771e-07
3.25786e-06
-3.38745e-07
3.57363e-06
-3.15804e-07
3.88796e-06
-3.14378e-07
4.21118e-06
-3.23283e-07
4.53187e-06
-3.20761e-07
4.84091e-06
-3.09109e-07
5.13771e-06
-2.96892e-07
5.42451e-06
-2.86882e-07
5.70471e-06
-2.80294e-07
5.97987e-06
-2.75248e-07
6.2473e-06
-2.67509e-07
6.50357e-06
-2.56325e-07
6.74964e-06
-2.46107e-07
6.98725e-06
-2.37634e-07
7.21643e-06
-2.2917e-07
7.43629e-06
-2.19844e-07
7.64338e-06
-2.07056e-07
7.83234e-06
-1.88917e-07
8.00938e-06
-1.7698e-07
8.17934e-06
-1.69898e-07
8.33988e-06
-1.60475e-07
8.48197e-06
-1.42017e-07
8.60056e-06
-1.18532e-07
8.70767e-06
-1.07055e-07
8.80729e-06
-9.95882e-08
8.89569e-06
-8.83671e-08
8.96979e-06
-7.409e-08
9.02118e-06
-5.13736e-08
9.04286e-06
-2.16846e-08
9.04457e-06
-1.72544e-09
9.03324e-06
1.12849e-08
9.01269e-06
2.0487e-08
8.97747e-06
3.51496e-08
8.92176e-06
5.5626e-08
8.84554e-06
7.61433e-08
8.74126e-06
1.04221e-07
8.60897e-06
1.3223e-07
8.46198e-06
1.46947e-07
8.30462e-06
1.57309e-07
8.12855e-06
1.76043e-07
7.92471e-06
2.03812e-07
7.69502e-06
2.2968e-07
7.44481e-06
2.50224e-07
7.18283e-06
2.62007e-07
6.91134e-06
2.71537e-07
6.62814e-06
2.83258e-07
6.33027e-06
2.9796e-07
6.00912e-06
3.21256e-07
5.6649e-06
3.44335e-07
5.30664e-06
3.58393e-07
4.94761e-06
3.59151e-07
4.59416e-06
3.53554e-07
4.23753e-06
3.56708e-07
3.8719e-06
3.65676e-07
3.49803e-06
3.73899e-07
3.12028e-06
3.77772e-07
2.74802e-06
3.7229e-07
2.38579e-06
3.62274e-07
2.02735e-06
3.58491e-07
1.66536e-06
3.62065e-07
1.30033e-06
3.65093e-07
9.52464e-07
3.47899e-07
6.27721e-07
3.24748e-07
3.13185e-07
3.14505e-07
6.92626e-09
3.06202e-07
-2.94387e-07
3.01247e-07
-5.96426e-07
3.01985e-07
-8.91084e-07
2.94629e-07
-1.16892e-06
2.77838e-07
-1.42546e-06
2.56565e-07
-1.66943e-06
2.43997e-07
-1.90486e-06
2.35456e-07
-2.13379e-06
2.2895e-07
-2.36132e-06
2.27527e-07
-2.5839e-06
2.22586e-07
-2.79551e-06
2.11623e-07
-2.99174e-06
1.96248e-07
-3.1739e-06
1.82183e-07
-3.34687e-06
1.72996e-07
-3.51306e-06
1.66219e-07
-3.67706e-06
1.64032e-07
-3.8377e-06
1.60697e-07
-3.98938e-06
1.51747e-07
-4.12892e-06
1.39608e-07
-4.25499e-06
1.26131e-07
-4.37268e-06
1.17723e-07
-4.48551e-06
1.12834e-07
-4.59328e-06
1.0773e-07
-4.69541e-06
1.02082e-07
-4.79201e-06
9.65448e-08
-4.88415e-06
9.20827e-08
-4.97087e-06
8.66776e-08
-5.05095e-06
8.00533e-08
-5.12105e-06
7.00931e-08
-5.18317e-06
6.21363e-08
-5.24098e-06
5.78435e-08
-5.29543e-06
5.44851e-08
-5.34903e-06
5.36423e-08
-5.40204e-06
5.30485e-08
-5.44795e-06
4.59219e-08
-5.48301e-06
3.50574e-08
-5.51387e-06
3.08494e-08
-5.54275e-06
2.88557e-08
-5.56995e-06
2.71727e-08
-5.59707e-06
2.70956e-08
-5.62178e-06
2.46848e-08
-5.64089e-06
1.91111e-08
-5.65471e-06
1.38211e-08
-5.66572e-06
1.10171e-08
-5.67578e-06
1.00833e-08
-5.68466e-06
8.89652e-09
-5.69097e-06
6.3337e-09
-5.69462e-06
3.6766e-09
-5.69443e-06
-1.67742e-10
-5.69091e-06
-3.49799e-09
-5.68618e-06
-4.72341e-09
-5.68255e-06
-3.62174e-09
-5.68004e-06
-2.51564e-09
-5.67595e-06
-4.09803e-09
-5.6654e-06
-1.05635e-08
-5.65091e-06
-1.45025e-08
-5.63544e-06
-1.54759e-08
-5.61892e-06
-1.65302e-08
-5.60112e-06
-1.78098e-08
-5.58357e-06
-1.75495e-08
-5.5669e-06
-1.66795e-08
-5.549e-06
-1.78907e-08
-5.52715e-06
-2.18489e-08
-5.50158e-06
-2.55567e-08
-5.47428e-06
-2.72958e-08
-5.44553e-06
-2.87433e-08
-5.4147e-06
-3.08191e-08
-5.38228e-06
-3.24058e-08
-5.35041e-06
-3.1866e-08
-5.3193e-06
-3.10996e-08
-5.28526e-06
-3.40236e-08
-5.24576e-06
-3.94899e-08
-5.20378e-06
-4.19726e-08
-5.1608e-06
-4.29761e-08
-5.11583e-06
-4.49556e-08
-5.06864e-06
-4.7195e-08
-5.02052e-06
-4.81089e-08
-4.97165e-06
-4.88668e-08
-4.91995e-06
-5.1708e-08
-4.86405e-06
-5.5892e-08
-4.8047e-06
-5.93469e-08
-4.74276e-06
-6.19424e-08
-4.6779e-06
-6.48636e-08
-4.61103e-06
-6.68741e-08
-4.54282e-06
-6.82134e-08
-4.47186e-06
-7.09582e-08
-4.39737e-06
-7.45038e-08
-4.31911e-06
-7.82605e-08
-4.23685e-06
-8.22621e-08
-4.15195e-06
-8.49032e-08
-4.06597e-06
-8.59864e-08
-3.97785e-06
-8.81201e-08
-3.8865e-06
-9.13524e-08
-3.79156e-06
-9.49364e-08
-3.69424e-06
-9.73164e-08
-3.59609e-06
-9.81437e-08
-3.49668e-06
-9.9406e-08
-3.39556e-06
-1.01118e-07
-3.29297e-06
-1.02584e-07
-3.19022e-06
-1.02747e-07
-3.08862e-06
-1.01604e-07
-2.98859e-06
-1.00026e-07
-2.89006e-06
-9.85381e-08
-2.79289e-06
-9.71863e-08
-2.69726e-06
-9.56394e-08
-2.60385e-06
-9.34181e-08
-2.51326e-06
-9.06051e-08
-2.42577e-06
-8.74973e-08
-2.34164e-06
-8.41382e-08
-2.26082e-06
-8.08323e-08
-2.18343e-06
-7.73947e-08
-2.10967e-06
-7.37702e-08
-2.03953e-06
-7.01513e-08
-1.97283e-06
-6.67001e-08
-1.90954e-06
-6.33029e-08
-1.84994e-06
-5.95957e-08
-1.79416e-06
-5.57901e-08
-1.74173e-06
-5.24228e-08
-1.69228e-06
-4.94542e-08
-1.64558e-06
-4.67018e-08
-1.60185e-06
-4.37407e-08
-1.56127e-06
-4.05917e-08
-1.52393e-06
-3.73497e-08
-1.48932e-06
-3.46291e-08
-1.45691e-06
-3.24237e-08
-1.42615e-06
-3.0774e-08
-1.39709e-06
-2.90684e-08
-1.36969e-06
-2.74066e-08
-1.34379e-06
-2.58998e-08
-1.31921e-06
-2.45782e-08
-1.29578e-06
-2.34307e-08
-1.27326e-06
-2.2525e-08
-1.2513e-06
-2.19653e-08
-1.22957e-06
-2.17396e-08
-1.20794e-06
-2.1628e-08
-1.18628e-06
-2.1663e-08
-1.16444e-06
-2.18475e-08
-1.14225e-06
-2.2186e-08
-1.11957e-06
-2.26746e-08
-1.09624e-06
-2.33145e-08
-1.0719e-06
-2.4328e-08
-1.04632e-06
-2.55766e-08
-1.01935e-06
-2.69566e-08
-9.90933e-07
-2.84127e-08
-9.61037e-07
-2.98889e-08
-9.2958e-07
-3.14514e-08
-8.96346e-07
-3.32289e-08
-8.61211e-07
-3.51315e-08
-8.24087e-07
-3.71234e-08
-7.84931e-07
-3.91588e-08
-7.43661e-07
-4.12765e-08
-7.00397e-07
-4.32728e-08
-6.55496e-07
-4.491e-08
-6.08887e-07
-4.66171e-08
-5.60155e-07
-4.87384e-08
-5.08928e-07
-5.12323e-08
-4.55358e-07
-5.35748e-08
-4.00118e-07
-5.52445e-08
-3.4359e-07
-5.65332e-08
-2.85286e-07
-5.83094e-08
-2.24952e-07
-6.03391e-08
-1.62628e-07
-6.23254e-08
-9.86102e-08
-6.40147e-08
-3.33528e-08
-6.52478e-08
3.30953e-08
-6.64335e-08
1.00459e-07
-6.73477e-08
1.68263e-07
-6.77904e-08
2.36884e-07
-6.86143e-08
3.07005e-07
-7.01223e-08
3.78342e-07
-7.13434e-08
4.50189e-07
-7.1853e-08
5.22277e-07
-7.2091e-08
5.94555e-07
-7.2275e-08
6.66739e-07
-7.2178e-08
7.39033e-07
-7.22873e-08
8.11579e-07
-7.25428e-08
8.83883e-07
-7.23042e-08
9.55462e-07
-7.15838e-08
1.0264e-06
-7.0944e-08
1.09702e-06
-7.06325e-08
1.16726e-06
-7.02565e-08
1.23671e-06
-6.94678e-08
1.30531e-06
-6.86143e-08
1.37301e-06
-6.77123e-08
1.4393e-06
-6.63002e-08
1.50399e-06
-6.46946e-08
1.56735e-06
-6.33718e-08
1.62942e-06
-6.20676e-08
1.69043e-06
-6.10148e-08
1.75028e-06
-5.98633e-08
1.80895e-06
-5.86746e-08
1.86544e-06
-5.64953e-08
1.91888e-06
-5.34383e-08
1.97103e-06
-5.21503e-08
2.02258e-06
-5.15546e-08
2.07264e-06
-5.00458e-08
2.12018e-06
-4.75377e-08
2.16497e-06
-4.47917e-08
2.20697e-06
-4.19953e-08
2.24792e-06
-4.09502e-08
2.28725e-06
-3.93251e-08
2.3247e-06
-3.74388e-08
2.3587e-06
-3.39898e-08
2.3904e-06
-3.16911e-08
2.41903e-06
-2.8622e-08
2.44518e-06
-2.61313e-08
2.47203e-06
-2.68334e-08
2.49686e-06
-2.4819e-08
2.51607e-06
-1.91935e-08
2.53492e-06
-1.8843e-08
2.53585e-06
-9.24092e-10
2.53194e-06
3.92081e-09
2.55784e-06
-2.58965e-08
2.56837e-06
-1.05301e-08
2.59061e-06
-2.22299e-08
2.623e-06
-3.23933e-08
2.69398e-06
-7.09778e-08
2.7743e-06
-8.0315e-08
2.81458e-06
-4.02809e-08
2.85551e-06
-4.09279e-08
2.88201e-06
-2.64979e-08
2.90456e-06
-2.25419e-08
2.91765e-06
-1.30845e-08
2.9268e-06
-9.15405e-09
2.93104e-06
-4.23962e-09
2.93541e-06
-4.37523e-09
2.9354e-06
8.95147e-12
2.93703e-06
-1.63018e-09
2.93524e-06
1.78322e-09
2.91978e-06
1.54598e-08
2.90483e-06
1.49475e-08
2.89595e-06
8.88271e-09
2.88411e-06
1.18479e-08
2.86653e-06
1.75806e-08
2.85912e-06
7.42022e-09
2.91603e-06
-5.69112e-08
3.01001e-06
-9.3969e-08
3.07711e-06
-6.71036e-08
3.11871e-06
-4.15897e-08
3.13245e-06
-1.37313e-08
3.13782e-06
-5.37294e-09
3.12217e-06
1.56547e-08
3.10079e-06
2.13786e-08
3.05681e-06
4.39777e-08
3.01554e-06
4.12764e-08
2.9817e-06
3.38332e-08
2.94093e-06
4.07707e-08
2.90384e-06
3.70884e-08
2.86508e-06
3.87673e-08
2.7322e-06
1.32879e-07
2.60189e-06
1.30317e-07
2.51487e-06
8.702e-08
2.35108e-06
1.63793e-07
2.39057e-06
-3.9497e-08
2.37419e-06
1.63791e-08
2.7574e-06
-3.83203e-07
3.4426e-06
-6.85193e-07
4.13862e-06
-6.96015e-07
4.76555e-06
-6.26931e-07
5.32628e-06
-5.60717e-07
5.77974e-06
-4.53452e-07
6.11427e-06
-3.34528e-07
6.32561e-06
-2.11326e-07
6.45674e-06
-1.31128e-07
6.54102e-06
-8.42688e-08
6.60366e-06
-6.26319e-08
6.62965e-06
-2.5984e-08
6.61794e-06
1.17144e-08
6.58713e-06
3.08215e-08
6.54153e-06
4.56055e-08
6.49265e-06
4.88834e-08
6.43901e-06
5.36348e-08
6.36771e-06
7.12984e-08
6.278e-06
8.97059e-08
6.18078e-06
9.72056e-08
6.07868e-06
1.02092e-07
5.97078e-06
1.07881e-07
5.85404e-06
1.16728e-07
5.73439e-06
1.19639e-07
5.61433e-06
1.20046e-07
5.48709e-06
1.27218e-07
5.34558e-06
1.41498e-07
5.19406e-06
1.51507e-07
5.0357e-06
1.58353e-07
4.87609e-06
1.5962e-07
4.71377e-06
1.6232e-07
4.54654e-06
1.67235e-07
4.37612e-06
1.70431e-07
4.2005e-06
1.75622e-07
4.01556e-06
1.84934e-07
3.81919e-06
1.96368e-07
3.61668e-06
2.02511e-07
3.41441e-06
2.02262e-07
3.21591e-06
1.98495e-07
3.0199e-06
1.95996e-07
2.82061e-06
1.99279e-07
2.6157e-06
2.04906e-07
2.40314e-06
2.12553e-07
2.18652e-06
2.16606e-07
1.96713e-06
2.19386e-07
1.74313e-06
2.24004e-07
1.51624e-06
2.26898e-07
1.2882e-06
2.28045e-07
1.05859e-06
2.29606e-07
8.24948e-07
2.33645e-07
5.85134e-07
2.39812e-07
3.3822e-07
2.46911e-07
8.48139e-08
2.53406e-07
-1.72683e-07
2.57503e-07
-4.32729e-07
2.60058e-07
-6.93392e-07
2.60681e-07
-9.5464e-07
2.61269e-07
-1.21735e-06
2.62731e-07
-1.48169e-06
2.64358e-07
-1.74773e-06
2.66066e-07
-2.01634e-06
2.68635e-07
-2.28684e-06
2.70523e-07
-2.55841e-06
2.71596e-07
-2.82981e-06
2.71426e-07
-3.10232e-06
2.72531e-07
-3.37632e-06
2.74012e-07
-3.65281e-06
2.76507e-07
-3.93052e-06
2.77736e-07
-4.2094e-06
2.78887e-07
-4.48696e-06
2.77583e-07
-4.76392e-06
2.76974e-07
-5.04243e-06
2.78506e-07
-5.32173e-06
2.79286e-07
-5.60243e-06
2.80678e-07
-5.88351e-06
2.81062e-07
-6.16391e-06
2.80396e-07
-6.44169e-06
2.77792e-07
-6.71477e-06
2.73106e-07
-6.98415e-06
2.69395e-07
-7.23778e-06
2.53628e-07
-7.49452e-06
2.56736e-07
2.3518e-07
3.76985e-05
3.66572e-06
3.64851e-05
5.36774e-06
3.50166e-05
5.59207e-06
3.33531e-05
3.61328e-06
3.39235e-05
-2.25325e-06
3.71598e-05
-7.59326e-06
4.13981e-05
-9.82e-06
4.58629e-05
-1.01139e-05
5.04112e-05
-9.8436e-06
5.47318e-05
-9.81072e-06
5.83581e-05
-9.03439e-06
6.05531e-05
-6.63963e-06
6.16753e-05
-4.65334e-06
6.26635e-05
-3.62558e-06
6.3795e-05
-3.33168e-06
6.53381e-05
-3.81854e-06
6.76618e-05
-4.68685e-06
7.04959e-05
-4.9829e-06
7.34025e-05
-5.02313e-06
7.60509e-05
-5.01558e-06
7.80271e-05
-3.87594e-06
7.85918e-05
-1.01194e-06
7.79508e-05
1.66273e-06
7.6068e-05
3.64559e-06
7.30647e-05
5.19815e-06
6.99247e-05
6.54937e-06
6.70216e-05
7.24884e-06
6.49016e-05
6.30429e-06
6.44402e-05
3.64291e-06
6.44415e-05
1.6054e-06
6.42795e-05
9.05133e-07
6.38238e-05
1.05958e-06
6.24308e-05
2.30595e-06
5.99071e-05
4.71261e-06
5.6078e-05
6.31898e-06
5.16095e-05
7.77857e-06
4.7176e-05
9.69239e-06
4.30136e-05
9.75452e-06
3.87604e-05
9.05748e-06
3.48084e-05
8.08701e-06
3.19461e-05
5.57439e-06
2.97507e-05
3.8665e-06
2.76565e-05
3.50273e-06
2.53998e-05
4.50435e-06
2.32678e-05
5.02356e-06
2.13146e-05
3.80941e-06
2.01114e-05
2.02998e-06
1.91315e-05
1.57877e-06
1.81283e-05
2.05836e-06
1.68651e-05
3.31385e-06
1.54225e-05
3.38088e-06
1.406e-05
2.44399e-06
1.33969e-05
8.75839e-07
1.32944e-05
-7.01753e-08
1.33715e-05
-4.39988e-07
1.34372e-05
-5.04961e-07
1.32574e-05
-2.3506e-07
1.25354e-05
5.07443e-07
1.16199e-05
9.80248e-07
1.08467e-05
1.34732e-06
1.04576e-05
1.57798e-06
1.05054e-05
1.61214e-06
1.04848e-05
1.86344e-06
9.71781e-06
2.41863e-06
8.34504e-06
2.66324e-06
6.84888e-06
2.52024e-06
5.52512e-06
2.03379e-06
4.66115e-06
1.03508e-06
4.50539e-06
-2.88834e-07
4.78616e-06
-1.18698e-06
5.22058e-06
-1.60656e-06
5.62072e-06
-1.49386e-06
5.51536e-06
-6.17828e-07
5.09326e-06
-4.08835e-08
4.7432e-06
-2.54047e-08
4.806e-06
-5.8224e-07
5.29486e-06
-1.1299e-06
6.62002e-06
-1.1416e-06
7.90301e-06
-8.22485e-07
8.82097e-06
-9.08236e-07
9.20636e-06
1.75736e-07
9.26352e-06
6.97773e-07
9.38803e-06
8.21589e-07
8.78731e-06
1.36985e-06
8.16258e-06
1.31068e-06
7.36268e-06
1.61254e-06
6.43952e-06
1.6771e-06
5.58009e-06
1.39643e-06
4.87035e-06
1.01653e-06
4.1243e-06
1.0594e-06
3.52285e-06
8.8265e-07
3.22115e-06
5.56283e-07
2.95342e-06
5.90401e-07
2.62232e-06
6.83607e-07
2.29983e-06
8.1157e-07
1.90915e-06
9.35788e-07
1.5783e-06
9.8794e-07
1.24605e-06
1.00483e-06
1.19283e-06
1.2548e-06
9.62911e-07
2.04239e-06
4.76718e-07
2.13118e-06
-6.60258e-07
2.07148e-06
-2.48205e-06
2.08229e-06
-4.11497e-06
1.81076e-06
-5.35962e-06
1.0796e-06
-6.0658e-06
4.852e-07
-6.38028e-06
2.90296e-07
-6.51885e-06
3.21441e-07
-6.2114e-06
-2.04409e-07
-5.71601e-06
-5.99407e-07
-5.49253e-06
-3.10726e-07
-5.38543e-06
-2.77281e-07
-5.30816e-06
-2.53158e-07
-5.29148e-06
-1.40185e-07
-5.17294e-06
-7.51037e-08
-4.99208e-06
-7.62549e-08
-4.72608e-06
1.25165e-07
-4.59059e-06
3.64706e-07
-4.58178e-06
2.29102e-07
-4.919e-06
2.99864e-07
-5.45536e-06
3.31481e-07
-5.71748e-06
1.03073e-07
-5.74989e-06
-2.95736e-07
-5.6178e-06
-5.0483e-07
-5.43517e-06
-4.51724e-07
-5.06272e-06
-6.34615e-07
-4.64662e-06
-6.89362e-07
-4.3299e-06
-5.88909e-07
-4.0058e-06
-6.51773e-07
-3.6834e-06
-6.86836e-07
-3.37264e-06
-6.67549e-07
-3.03623e-06
-6.95015e-07
-2.68019e-06
-6.88258e-07
-2.31496e-06
-6.96068e-07
-1.9432e-06
-7.24849e-07
-1.56365e-06
-7.61697e-07
-1.17783e-06
-7.80796e-07
-8.00612e-07
-7.6605e-07
-4.24487e-07
-7.6155e-07
-4.43383e-08
-7.63715e-07
3.41473e-07
-7.71982e-07
7.26719e-07
-7.69828e-07
1.10304e-06
-7.46331e-07
1.46837e-06
-7.17499e-07
1.82899e-06
-7.08564e-07
2.18725e-06
-7.07578e-07
2.5445e-06
-7.13554e-07
2.89265e-06
-7.02961e-07
3.22732e-06
-6.73487e-07
3.55525e-06
-6.4381e-07
3.87972e-06
-6.3895e-07
4.20497e-06
-6.48655e-07
4.52341e-06
-6.39331e-07
4.82656e-06
-6.12401e-07
5.12114e-06
-5.91603e-07
5.41507e-06
-5.80941e-07
5.70539e-06
-5.70729e-07
5.98618e-06
-5.56133e-07
6.25231e-06
-5.33702e-07
6.50495e-06
-5.09004e-07
6.74895e-06
-4.90119e-07
6.98729e-06
-4.75948e-07
7.21927e-06
-4.61094e-07
7.44182e-06
-4.42312e-07
7.65137e-06
-4.16502e-07
7.8418e-06
-3.79225e-07
8.01849e-06
-3.53531e-07
8.18781e-06
-3.39081e-07
8.34715e-06
-3.19686e-07
8.48862e-06
-2.83364e-07
8.61149e-06
-2.41293e-07
8.72011e-06
-2.15577e-07
8.81725e-06
-1.9666e-07
8.90178e-06
-1.72847e-07
8.97144e-06
-1.43736e-07
9.02343e-06
-1.03365e-07
9.05218e-06
-5.04626e-08
9.05888e-06
-8.48159e-09
9.04573e-06
2.43736e-08
9.01953e-06
4.66133e-08
8.98004e-06
7.4548e-08
8.92353e-06
1.12042e-07
8.84766e-06
1.51909e-07
8.74546e-06
2.06324e-07
8.61508e-06
2.625e-07
8.46411e-06
2.97831e-07
8.29889e-06
3.2245e-07
8.11964e-06
3.55244e-07
7.92256e-06
4.0087e-07
7.70362e-06
4.48633e-07
7.46053e-06
4.93345e-07
7.19607e-06
5.26533e-07
6.91774e-06
5.49943e-07
6.62921e-06
5.71878e-07
6.32714e-06
6.00115e-07
6.00895e-06
6.39541e-07
5.67501e-06
6.7836e-07
5.32803e-06
7.0546e-07
4.97489e-06
7.12372e-07
4.61733e-06
7.11204e-07
4.25547e-06
7.18656e-07
3.88735e-06
7.33891e-07
3.5153e-06
7.4605e-07
3.14502e-06
7.48141e-07
2.77848e-06
7.389e-07
2.41362e-06
7.27197e-07
2.04856e-06
7.23584e-07
1.68469e-06
7.25955e-07
1.32844e-06
7.21363e-07
9.85294e-07
6.91064e-07
6.5485e-07
6.55214e-07
3.33686e-07
6.35692e-07
2.09241e-08
6.18983e-07
-2.84126e-07
6.06304e-07
-5.82741e-07
6.00589e-07
-8.72202e-07
5.84062e-07
-1.15061e-06
5.56212e-07
-1.41379e-06
5.19712e-07
-1.66459e-06
4.94766e-07
-1.90605e-06
4.76911e-07
-2.13857e-06
4.61472e-07
-2.36342e-06
4.52382e-07
-2.58091e-06
4.4009e-07
-2.79052e-06
4.21249e-07
-2.99053e-06
3.96285e-07
-3.17816e-06
3.6984e-07
-3.3555e-06
3.50385e-07
-3.52486e-06
3.35635e-07
-3.68805e-06
3.27289e-07
-3.84559e-06
3.18308e-07
-3.99421e-06
3.0043e-07
-4.13143e-06
2.76882e-07
-4.25903e-06
2.53771e-07
-4.37913e-06
2.3784e-07
-4.49242e-06
2.2611e-07
-4.60108e-06
2.16368e-07
-4.70603e-06
2.06987e-07
-4.80533e-06
1.95809e-07
-4.89701e-06
1.83723e-07
-4.97974e-06
1.69381e-07
-5.05402e-06
1.54338e-07
-5.12343e-06
1.39514e-07
-5.18862e-06
1.27364e-07
-5.24956e-06
1.18819e-07
-5.30661e-06
1.11579e-07
-5.36006e-06
1.07119e-07
-5.40783e-06
1.00825e-07
-5.44985e-06
8.7931e-08
-5.48641e-06
7.15882e-08
-5.51966e-06
6.40709e-08
-5.55093e-06
6.00943e-08
-5.57962e-06
5.58422e-08
-5.60444e-06
5.18986e-08
-5.62503e-06
4.52707e-08
-5.64135e-06
3.54468e-08
-5.65537e-06
2.78535e-08
-5.66842e-06
2.40991e-08
-5.68103e-06
2.27309e-08
-5.69101e-06
1.8914e-08
-5.69532e-06
1.0677e-08
-5.69636e-06
4.74713e-09
-5.69583e-06
-6.82664e-10
-5.69375e-06
-5.56e-09
-5.6904e-06
-8.07854e-09
-5.68685e-06
-7.18064e-09
-5.68237e-06
-7.01985e-09
-5.67532e-06
-1.11697e-08
-5.66471e-06
-2.11988e-08
-5.65151e-06
-2.77383e-08
-5.63705e-06
-2.9956e-08
-5.62189e-06
-3.17068e-08
-5.60569e-06
-3.40248e-08
-5.58767e-06
-3.55753e-08
-5.56772e-06
-3.66235e-08
-5.54636e-06
-3.92381e-08
-5.5241e-06
-4.41029e-08
-5.50025e-06
-4.9394e-08
-5.47446e-06
-5.30646e-08
-5.44654e-06
-5.66519e-08
-5.41617e-06
-6.11729e-08
-5.38416e-06
-6.43923e-08
-5.35178e-06
-6.42294e-08
-5.31828e-06
-6.45859e-08
-5.28242e-06
-6.98669e-08
-5.24324e-06
-7.8664e-08
-5.20203e-06
-8.31684e-08
-5.16006e-06
-8.49387e-08
-5.11644e-06
-8.85667e-08
-5.06987e-06
-9.37494e-08
-5.02056e-06
-9.74153e-08
-4.96907e-06
-1.00348e-07
-4.915e-06
-1.05775e-07
-4.85876e-06
-1.12132e-07
-4.80092e-06
-1.17188e-07
-4.74068e-06
-1.22178e-07
-4.67673e-06
-1.28817e-07
-4.6087e-06
-1.34909e-07
-4.5375e-06
-1.39416e-07
-4.46444e-06
-1.44016e-07
-4.39043e-06
-1.48513e-07
-4.31389e-06
-1.54803e-07
-4.23279e-06
-1.63365e-07
-4.14744e-06
-1.70252e-07
-4.05957e-06
-1.73861e-07
-3.97071e-06
-1.76974e-07
-3.88068e-06
-1.81382e-07
-3.78713e-06
-1.88489e-07
-3.68979e-06
-1.94658e-07
-3.59059e-06
-1.97341e-07
-3.49116e-06
-1.98827e-07
-3.3917e-06
-2.00579e-07
-3.2908e-06
-2.03487e-07
-3.18884e-06
-2.04711e-07
-3.08708e-06
-2.03367e-07
-2.98695e-06
-2.00158e-07
-2.88942e-06
-1.96079e-07
-2.7935e-06
-1.93106e-07
-2.69839e-06
-1.90761e-07
-2.60504e-06
-1.86786e-07
-2.51438e-06
-1.81277e-07
-2.42688e-06
-1.75018e-07
-2.34288e-06
-1.68145e-07
-2.26221e-06
-1.61524e-07
-2.18478e-06
-1.54827e-07
-2.11064e-06
-1.47921e-07
-2.03997e-06
-1.4083e-07
-1.9729e-06
-1.33781e-07
-1.90953e-06
-1.26676e-07
-1.84994e-06
-1.192e-07
-1.79394e-06
-1.11804e-07
-1.74127e-06
-1.05116e-07
-1.69166e-06
-9.9085e-08
-1.64506e-06
-9.33196e-08
-1.60156e-06
-8.72607e-08
-1.5611e-06
-8.10716e-08
-1.52361e-06
-7.4848e-08
-1.48889e-06
-6.93658e-08
-1.45674e-06
-6.45911e-08
-1.42623e-06
-6.12958e-08
-1.39717e-06
-5.81345e-08
-1.36969e-06
-5.48973e-08
-1.34379e-06
-5.18114e-08
-1.3194e-06
-4.89872e-08
-1.29643e-06
-4.64059e-08
-1.27469e-06
-4.42692e-08
-1.25356e-06
-4.3101e-08
-1.23239e-06
-4.29006e-08
-1.21114e-06
-4.28787e-08
-1.18974e-06
-4.30572e-08
-1.16808e-06
-4.34924e-08
-1.14607e-06
-4.4186e-08
-1.12357e-06
-4.51681e-08
-1.10042e-06
-4.64552e-08
-1.07626e-06
-4.84795e-08
-1.05088e-06
-5.09533e-08
-1.02415e-06
-5.36849e-08
-9.95977e-07
-5.65835e-08
-9.66424e-07
-5.94433e-08
-9.35406e-07
-6.24728e-08
-9.02548e-07
-6.60935e-08
-8.67665e-07
-7.00238e-08
-8.3071e-07
-7.40885e-08
-7.91717e-07
-7.81641e-08
-7.50684e-07
-8.23231e-08
-7.07635e-07
-8.6338e-08
-6.62587e-07
-8.99762e-08
-6.15453e-07
-9.37685e-08
-5.66197e-07
-9.80094e-08
-5.14758e-07
-1.02682e-07
-4.61318e-07
-1.0702e-07
-4.06346e-07
-1.10214e-07
-3.49975e-07
-1.12897e-07
-2.91635e-07
-1.16637e-07
-2.31021e-07
-1.2094e-07
-1.68386e-07
-1.24949e-07
-1.04194e-07
-1.28198e-07
-3.90145e-08
-1.30421e-07
2.70989e-08
-1.32541e-07
9.44232e-08
-1.34665e-07
1.63248e-07
-1.36604e-07
2.33263e-07
-1.38614e-07
3.04072e-07
-1.40917e-07
3.75458e-07
-1.42717e-07
4.47239e-07
-1.43628e-07
5.19209e-07
-1.44064e-07
5.91544e-07
-1.44621e-07
6.64199e-07
-1.44852e-07
7.36997e-07
-1.45108e-07
8.09738e-07
-1.4531e-07
8.82141e-07
-1.44735e-07
9.54255e-07
-1.43724e-07
1.02598e-06
-1.42698e-07
1.09721e-06
-1.41878e-07
1.16756e-06
-1.4063e-07
1.237e-06
-1.38924e-07
1.30549e-06
-1.37115e-07
1.37327e-06
-1.35499e-07
1.44008e-06
-1.33114e-07
1.50584e-06
-1.3046e-07
1.56982e-06
-1.27345e-07
1.63192e-06
-1.2417e-07
1.69253e-06
-1.21624e-07
1.75228e-06
-1.19611e-07
1.8106e-06
-1.16991e-07
1.86724e-06
-1.13127e-07
1.9217e-06
-1.07892e-07
1.97456e-06
-1.04998e-07
2.0258e-06
-1.02776e-07
2.07533e-06
-9.95652e-08
2.12311e-06
-9.53007e-08
2.1687e-06
-9.03679e-08
2.21293e-06
-8.62121e-08
2.25391e-06
-8.19134e-08
2.29306e-06
-7.8457e-08
2.32891e-06
-7.32613e-08
2.36304e-06
-6.81056e-08
2.39763e-06
-6.62632e-08
2.43094e-06
-6.19111e-08
2.4583e-06
-5.34792e-08
2.48351e-06
-5.20371e-08
2.48935e-06
-3.06605e-08
2.49394e-06
-2.37863e-08
2.53162e-06
-5.65284e-08
2.57134e-06
-4.06444e-08
2.62484e-06
-4.95764e-08
2.66153e-06
-6.25832e-08
2.74195e-06
-9.09514e-08
2.82958e-06
-1.09866e-07
2.86557e-06
-6.83848e-08
2.87735e-06
-8.27564e-08
2.87814e-06
-8.11013e-08
2.89724e-06
-5.93789e-08
2.90742e-06
-5.11038e-08
2.92023e-06
-3.93068e-08
2.9305e-06
-3.28145e-08
2.94226e-06
-2.48433e-08
2.94998e-06
-1.68866e-08
2.95516e-06
-9.42167e-09
2.95171e-06
-9.36997e-10
2.93829e-06
1.34224e-08
2.92759e-06
9.07278e-09
2.92714e-06
2.22607e-09
2.92988e-06
1.27199e-08
2.93204e-06
1.27986e-08
2.95579e-06
-1.4869e-08
3.04088e-06
-7.32329e-08
3.14151e-06
-8.30474e-08
3.2121e-06
-6.31607e-08
3.22434e-06
-6.91359e-08
3.21424e-06
-8.38603e-08
3.19666e-06
-4.95099e-08
3.17886e-06
-2.37917e-08
3.14793e-06
1.72087e-08
3.1264e-06
1.61535e-08
3.10987e-06
3.21883e-08
3.10208e-06
2.9172e-08
3.09742e-06
4.86352e-08
3.09668e-06
4.20149e-08
3.07405e-06
5.64604e-08
2.93976e-06
1.75059e-07
2.79942e-06
1.77433e-07
2.72769e-06
1.10502e-07
2.64553e-06
2.15038e-07
2.79265e-06
-1.68018e-08
2.93917e-06
-5.94967e-08
3.58891e-06
-4.85936e-07
4.41515e-06
-8.65719e-07
5.16183e-06
-7.30299e-07
5.72013e-06
-9.41489e-07
6.04547e-06
-1.01053e-06
6.26462e-06
-9.15159e-07
6.39001e-06
-7.52318e-07
6.45315e-06
-6.23848e-07
6.5256e-06
-5.25894e-07
6.6168e-06
-4.25724e-07
6.70138e-06
-2.959e-07
6.7561e-06
-1.85839e-07
6.78528e-06
-1.13433e-07
6.78993e-06
-6.72718e-08
6.77994e-06
-1.5981e-08
6.75979e-06
3.1872e-08
6.72788e-06
6.2732e-08
6.68571e-06
8.77783e-08
6.63393e-06
1.00657e-07
6.56722e-06
1.20338e-07
6.4863e-06
1.52211e-07
6.39801e-06
1.77978e-07
6.30313e-06
1.92067e-07
6.20378e-06
2.01413e-07
6.09572e-06
2.15915e-07
5.98102e-06
2.31398e-07
5.86144e-06
2.39202e-07
5.73546e-06
2.46002e-07
5.60301e-06
2.59661e-07
5.4643e-06
2.80207e-07
5.31967e-06
2.9613e-07
5.16957e-06
3.0845e-07
5.0127e-06
3.16488e-07
4.85164e-06
3.23371e-07
4.68738e-06
3.31493e-07
4.51822e-06
3.39583e-07
4.34273e-06
3.51104e-07
4.15962e-06
3.68031e-07
3.96898e-06
3.87001e-07
3.77456e-06
3.96911e-07
3.57678e-06
4.00035e-07
3.37827e-06
3.9699e-07
3.17613e-06
3.98117e-07
2.9694e-06
4.06003e-07
2.75874e-06
4.15566e-07
2.54522e-06
4.2608e-07
2.32929e-06
4.32538e-07
2.11079e-06
4.37905e-07
1.88783e-06
4.46975e-07
1.65995e-06
4.54787e-07
1.42764e-06
4.60359e-07
1.19144e-06
4.6582e-07
9.51342e-07
4.73758e-07
7.07419e-07
4.83758e-07
4.60536e-07
4.93823e-07
2.1103e-07
5.02946e-07
-4.14887e-08
5.10059e-07
-2.96582e-07
5.15189e-07
-5.54778e-07
5.18915e-07
-8.15803e-07
5.22331e-07
-1.07845e-06
5.25411e-07
-1.3431e-06
5.29056e-07
-1.60965e-06
5.32664e-07
-1.87798e-06
5.37007e-07
-2.1481e-06
5.40694e-07
-2.41908e-06
5.42625e-07
-2.69148e-06
5.43875e-07
-2.96508e-06
5.46173e-07
-3.24021e-06
5.49178e-07
-3.51692e-06
5.53255e-07
-3.79403e-06
5.54894e-07
-4.07092e-06
5.55818e-07
-4.34816e-06
5.54858e-07
-4.62659e-06
5.55422e-07
-4.90613e-06
5.58048e-07
-5.18677e-06
5.59921e-07
-5.46659e-06
5.60508e-07
-5.74655e-06
5.61055e-07
-6.02695e-06
5.60851e-07
-6.30817e-06
5.59079e-07
-6.58844e-06
5.53437e-07
-6.86678e-06
5.47754e-07
-7.1536e-06
5.40475e-07
-7.4343e-06
5.37496e-07
5.30559e-07
3.83748e-05
3.90496e-06
3.83808e-05
5.36176e-06
3.86272e-05
5.34577e-06
3.88837e-05
3.35687e-06
3.97901e-05
-3.15967e-06
4.16005e-05
-9.40362e-06
4.40492e-05
-1.22686e-05
4.69981e-05
-1.30628e-05
5.0191e-05
-1.30364e-05
5.29026e-05
-1.25223e-05
5.43287e-05
-1.04605e-05
5.43365e-05
-6.64736e-06
5.40941e-05
-4.41086e-06
5.43097e-05
-3.84115e-06
5.4992e-05
-4.01395e-06
5.61469e-05
-4.97339e-06
5.7376e-05
-5.91588e-06
5.81429e-05
-5.74969e-06
5.83886e-05
-5.26879e-06
5.8005e-05
-4.63189e-06
5.72179e-05
-3.08885e-06
5.6248e-05
-4.1945e-08
5.53729e-05
2.53785e-06
5.41229e-05
4.89566e-06
5.28852e-05
6.43585e-06
5.2562e-05
6.87263e-06
5.36505e-05
6.16036e-06
5.56234e-05
4.33141e-06
5.73896e-05
1.87677e-06
5.80519e-05
9.43086e-07
5.77514e-05
1.20568e-06
5.66751e-05
2.13586e-06
5.44872e-05
4.49386e-06
5.14819e-05
7.71798e-06
4.76236e-05
1.01772e-05
4.33613e-05
1.20409e-05
3.97828e-05
1.32709e-05
3.66207e-05
1.29166e-05
3.34137e-05
1.22644e-05
3.10385e-05
1.04622e-05
2.94289e-05
7.18391e-06
2.7774e-05
5.52138e-06
2.59637e-05
5.31295e-06
2.41559e-05
6.31209e-06
2.26983e-05
6.48111e-06
2.13146e-05
5.19298e-06
2.02419e-05
3.1026e-06
1.92629e-05
2.55769e-06
1.83089e-05
3.01227e-06
1.72347e-05
4.38803e-06
1.60101e-05
4.60536e-06
1.46375e-05
3.81651e-06
1.35828e-05
1.93048e-06
1.28309e-05
6.81677e-07
1.21361e-05
2.54724e-07
1.14038e-05
2.27229e-07
1.05355e-05
6.33222e-07
9.5974e-06
1.4454e-06
8.91126e-06
1.66629e-06
8.93047e-06
1.328e-06
9.51416e-06
9.94189e-07
1.03591e-05
7.67102e-07
1.11893e-05
1.03316e-06
1.12943e-05
2.31358e-06
1.03135e-05
3.64401e-06
8.8821e-06
3.95156e-06
7.26638e-06
3.64948e-06
5.68894e-06
2.61252e-06
4.71939e-06
6.80717e-07
4.3857e-06
-8.53277e-07
4.22908e-06
-1.44994e-06
4.23065e-06
-1.49541e-06
4.39364e-06
-7.80806e-07
4.35326e-06
-4.82549e-10
4.24253e-06
8.53503e-08
4.03399e-06
-3.73667e-07
3.80727e-06
-9.03136e-07
4.02486e-06
-1.35917e-06
4.8506e-06
-1.6482e-06
5.96135e-06