/*--------------------------------*- C++ -*----------------------------------*\
| =========                 |                                                 |
| \\      /  F ield         | OpenFOAM: The Open Source CFD Toolbox           |
|  \\    /   O peration     | Version:  v2006                                 |
|   \\  /    A nd           | Website:  www.openfoam.com                      |
|    \\/     M anipulation  |                                                 |
\*---------------------------------------------------------------------------*/
FoamFile
{
    version     2.0;
    format      ascii;
    class       surfaceScalarField;
    location    "3.3";
    object      alphaPhi0.water;
}
// * * * * * * * * * * * * * * * * * * * * * * * * * * * * * * * * * * * * * //

dimensions      [0 3 -1 0 0 0 0];
oriented        oriented;


internalField   nonuniform List<scalar> 
65390
(
-9.47354e-05
-1.12642e-06
-9.33098e-05
-1.42344e-06
-9.18511e-05
-1.45661e-06
-9.03531e-05
-1.49702e-06
-8.88535e-05
-1.49881e-06
-8.73865e-05
-1.46775e-06
-8.58508e-05
-1.53685e-06
-8.42417e-05
-1.6101e-06
-8.25301e-05
-1.71294e-06
-8.07794e-05
-1.74682e-06
-7.89986e-05
-1.7594e-06
-7.72347e-05
-1.74681e-06
-7.5482e-05
-1.75487e-06
-7.37137e-05
-1.77265e-06
-7.19114e-05
-1.8402e-06
-6.9981e-05
-1.93478e-06
-6.80459e-05
-1.93506e-06
-6.61263e-05
-1.91831e-06
-6.42101e-05
-1.9146e-06
-6.23492e-05
-1.85351e-06
-6.0567e-05
-1.77483e-06
-5.88547e-05
-1.71144e-06
-5.70962e-05
-1.76022e-06
-5.51583e-05
-1.94451e-06
-5.30655e-05
-2.09308e-06
-5.10414e-05
-2.02191e-06
-4.92739e-05
-1.76069e-06
-4.77791e-05
-1.49075e-06
-4.61704e-05
-1.60775e-06
-4.43186e-05
-1.8614e-06
-4.23844e-05
-1.93752e-06
-4.05825e-05
-1.80315e-06
-3.87975e-05
-1.78614e-06
-3.6883e-05
-1.91577e-06
-3.49282e-05
-1.95082e-06
-3.32276e-05
-1.69479e-06
-3.1718e-05
-1.50887e-06
-3.02118e-05
-1.51789e-06
-2.85129e-05
-1.70007e-06
-2.65857e-05
-1.92832e-06
-2.47109e-05
-1.87269e-06
-2.31157e-05
-1.5941e-06
-2.16846e-05
-1.42983e-06
-2.01219e-05
-1.57022e-06
-1.82633e-05
-1.85905e-06
-1.62537e-05
-2.00999e-06
-1.44185e-05
-1.83421e-06
-1.29509e-05
-1.46947e-06
-1.15947e-05
-1.3523e-06
-1.01092e-05
-1.48962e-06
-8.50402e-06
-1.60579e-06
-6.75784e-06
-1.74603e-06
-4.95345e-06
-1.80534e-06
-3.22278e-06
-1.73071e-06
-1.69514e-06
-1.52796e-06
-2.99641e-07
-1.3957e-06
1.16223e-06
-1.46181e-06
2.78058e-06
-1.61864e-06
4.41955e-06
-1.63924e-06
5.90402e-06
-1.48487e-06
7.28237e-06
-1.37833e-06
8.68853e-06
-1.40612e-06
1.02959e-05
-1.60746e-06
1.18843e-05
-1.5884e-06
1.31745e-05
-1.29021e-06
1.41909e-05
-1.01697e-06
1.50853e-05
-9.01706e-07
1.61254e-05
-1.03551e-06
1.71752e-05
-1.04664e-06
1.80314e-05
-8.56243e-07
1.86753e-05
-6.44087e-07
1.91955e-05
-5.19905e-07
1.96119e-05
-4.16272e-07
1.99954e-05
-3.83651e-07
2.00621e-05
-6.7987e-08
1.96305e-05
4.28306e-07
1.85325e-05
1.09663e-06
1.67673e-05
1.76971e-06
1.49345e-05
1.83422e-06
1.40353e-05
8.98974e-07
1.27111e-05
1.32432e-06
1.21072e-05
6.03775e-07
1.12746e-05
8.30121e-07
1.07072e-05
5.67329e-07
1.08383e-05
-1.31093e-07
1.07875e-05
5.09182e-08
1.0737e-05
5.25808e-08
1.09949e-05
-2.5689e-07
1.15014e-05
-5.06075e-07
1.18979e-05
-3.96626e-07
1.22828e-05
-3.84922e-07
1.26292e-05
-3.48437e-07
1.2755e-05
-1.29613e-07
1.28119e-05
-5.38055e-08
1.27134e-05
1.00122e-07
1.25022e-05
2.11924e-07
1.18136e-05
6.87681e-07
1.08513e-05
9.62257e-07
8.82257e-06
2.0292e-06
6.00276e-06
2.82095e-06
3.6705e-06
2.33249e-06
2.64265e-06
1.02807e-06
2.84215e-06
-1.99776e-07
3.02828e-06
-1.86551e-07
3.71701e-06
-6.88379e-07
4.5653e-06
-8.48367e-07
5.08498e-06
-5.19799e-07
5.3006e-06
-2.15799e-07
5.53361e-06
-2.3271e-07
5.91632e-06
-3.83129e-07
6.25139e-06
-3.35215e-07
6.64814e-06
-3.96887e-07
7.00669e-06
-3.59461e-07
7.2951e-06
-2.88083e-07
7.39442e-06
-9.89196e-08
7.39075e-06
3.61015e-09
6.89048e-06
5.00147e-07
6.19948e-06
6.90359e-07
5.86043e-06
3.38789e-07
5.99674e-06
-1.35772e-07
6.39441e-06
-3.97336e-07
6.68488e-06
-2.90403e-07
7.14223e-06
-4.57418e-07
7.64414e-06
-5.01841e-07
7.99168e-06
-3.48065e-07
8.31156e-06
-3.19652e-07
8.62841e-06
-3.16454e-07
8.92158e-06
-2.93013e-07
9.22754e-06
-3.05967e-07
9.53078e-06
-3.03201e-07
9.80853e-06
-2.77494e-07
1.00782e-05
-2.69665e-07
1.03326e-05
-2.54448e-07
1.05716e-05
-2.39023e-07
1.08e-05
-2.28757e-07
1.10256e-05
-2.2551e-07
1.1251e-05
-2.25232e-07
1.14661e-05
-2.15268e-07
1.16701e-05
-2.03879e-07
1.18695e-05
-1.99392e-07
1.20587e-05
-1.89256e-07
1.22337e-05
-1.74953e-07
1.23969e-05
-1.63318e-07
1.25552e-05
-1.58258e-07
1.27012e-05
-1.46043e-07
1.28327e-05
-1.31601e-07
1.29518e-05
-1.20049e-07
1.30629e-05
-1.10347e-07
1.31663e-05
-1.03415e-07
1.3258e-05
-9.17802e-08
1.33365e-05
-7.86561e-08
1.34009e-05
-6.51291e-08
1.34565e-05
-5.52159e-08
1.35075e-05
-5.07494e-08
1.35523e-05
-4.48891e-08
1.35836e-05
-3.1435e-08
1.36e-05
-1.6937e-08
1.36102e-05
-1.00924e-08
1.36164e-05
-6.24988e-09
1.36158e-05
4.01506e-10
1.36014e-05
1.35644e-08
1.35781e-05
2.34891e-08
1.35514e-05
2.67282e-08
1.35202e-05
3.10719e-08
1.34771e-05
4.23476e-08
1.34242e-05
5.29462e-08
1.33678e-05
5.64993e-08
1.33082e-05
5.95007e-08
1.32407e-05
6.71659e-08
1.31617e-05
7.89189e-08
1.30774e-05
8.48383e-08
1.29924e-05
8.4802e-08
1.29041e-05
8.84653e-08
1.28039e-05
9.94914e-08
1.26981e-05
1.06725e-07
1.25897e-05
1.09e-07
1.24788e-05
1.11121e-07
1.23635e-05
1.15158e-07
1.22426e-05
1.2107e-07
1.21168e-05
1.25851e-07
1.19871e-05
1.30747e-07
1.18564e-05
1.31231e-07
1.17237e-05
1.32876e-07
1.1586e-05
1.37759e-07
1.14434e-05
1.43204e-07
1.13002e-05
1.43686e-07
1.11596e-05
1.4067e-07
1.10156e-05
1.44297e-07
1.08654e-05
1.50275e-07
1.07144e-05
1.51735e-07
1.05648e-05
1.49746e-07
1.04146e-05
1.50183e-07
1.0261e-05
1.53677e-07
1.01065e-05
1.54423e-07
9.95259e-06
1.54076e-07
9.80017e-06
1.52704e-07
9.64654e-06
1.53885e-07
9.49057e-06
1.55994e-07
9.33656e-06
1.53989e-07
9.18663e-06
1.49871e-07
9.03607e-06
1.50693e-07
8.88269e-06
1.53528e-07
8.72686e-06
1.55872e-07
8.57477e-06
1.52149e-07
8.42654e-06
1.4825e-07
8.28102e-06
1.4554e-07
8.13569e-06
1.45471e-07
7.98597e-06
1.4975e-07
7.83767e-06
1.4828e-07
7.69477e-06
1.42931e-07
7.55494e-06
1.39817e-07
7.41158e-06
1.43341e-07
7.26933e-06
1.42319e-07
7.12916e-06
1.40265e-07
6.99307e-06
1.36004e-07
6.86193e-06
1.31134e-07
6.72655e-06
1.35314e-07
6.5916e-06
1.35239e-07
6.45795e-06
1.33786e-07
6.32413e-06
1.33901e-07
6.19853e-06
1.25664e-07
6.07594e-06
1.22565e-07
5.95052e-06
1.25347e-07
5.8232e-06
1.27451e-07
5.69935e-06
1.23898e-07
5.57733e-06
1.22056e-07
5.45528e-06
1.22071e-07
5.33722e-06
1.18113e-07
5.22362e-06
1.13644e-07
5.10712e-06
1.16452e-07
4.98931e-06
1.17945e-07
4.87425e-06
1.15083e-07
4.76024e-06
1.13994e-07
4.65045e-06
1.09828e-07
4.5447e-06
1.05774e-07
4.43384e-06
1.1076e-07
4.32287e-06
1.11107e-07
4.21417e-06
1.08703e-07
4.10897e-06
1.05203e-07
4.00251e-06
1.06438e-07
3.89716e-06
1.05353e-07
3.79334e-06
1.03827e-07
3.6912e-06
1.02133e-07
3.58873e-06
1.02462e-07
3.48754e-06
1.01184e-07
3.38874e-06
9.87619e-08
3.28503e-06
1.03715e-07
3.18462e-06
1.00383e-07
3.08908e-06
9.55184e-08
2.99141e-06
9.76267e-08
2.89355e-06
9.78332e-08
2.79668e-06
9.68426e-08
2.70007e-06
9.65824e-08
2.60535e-06
9.46885e-08
2.50911e-06
9.6217e-08
2.41392e-06
9.5196e-08
2.32242e-06
9.14567e-08
2.23086e-06
9.15152e-08
2.13699e-06
9.38202e-08
2.04432e-06
9.26695e-08
1.95384e-06
9.04741e-08
1.86609e-06
8.77006e-08
1.77606e-06
9.00009e-08
1.68575e-06
9.0278e-08
1.59652e-06
8.9197e-08
1.50792e-06
8.85795e-08
1.42013e-06
8.77711e-08
1.33578e-06
8.43363e-08
1.25256e-06
8.31626e-08
1.16842e-06
8.41196e-08
1.08368e-06
8.47106e-08
9.99253e-07
8.441e-08
9.15981e-07
8.32482e-08
8.34045e-07
8.19163e-08
7.53318e-07
8.07068e-08
6.74156e-07
7.91426e-08
5.94932e-07
7.9204e-08
5.16502e-07
7.84113e-08
4.39135e-07
7.73449e-08
3.62922e-07
7.61954e-08
2.86351e-07
7.65567e-08
2.10487e-07
7.58491e-08
1.36931e-07
7.35396e-08
6.50398e-08
7.18766e-08
-5.38837e-09
7.04137e-08
-7.51415e-08
6.9739e-08
-1.44874e-07
6.97187e-08
-2.13844e-07
6.89569e-08
-2.81373e-07
6.7517e-08
-3.47671e-07
6.62883e-08
-4.11834e-07
6.41561e-08
-4.74864e-07
6.30155e-08
-5.37973e-07
6.30992e-08
-6.00224e-07
6.22417e-08
-6.6119e-07
6.09567e-08
-7.2118e-07
5.99799e-08
-7.79812e-07
5.86231e-08
-8.37304e-07
5.74836e-08
-8.94134e-07
5.68232e-08
-9.49862e-07
5.57207e-08
-1.00453e-06
5.46603e-08
-1.05808e-06
5.3543e-08
-1.11028e-06
5.22011e-08
-1.16167e-06
5.1388e-08
-1.21196e-06
5.02858e-08
-1.26108e-06
4.91153e-08
-1.30871e-06
4.76342e-08
-1.355e-06
4.62814e-08
-1.40077e-06
4.57704e-08
-1.44525e-06
4.44799e-08
-1.48848e-06
4.3226e-08
-1.53031e-06
4.18353e-08
-1.57089e-06
4.05765e-08
-1.61038e-06
3.94822e-08
-1.64862e-06
3.825e-08
-1.68559e-06
3.69716e-08
-1.72121e-06
3.56185e-08
-1.75559e-06
3.43764e-08
-1.78884e-06
3.32599e-08
-1.82081e-06
3.19676e-08
-1.85144e-06
3.06406e-08
-1.88061e-06
2.91762e-08
-1.90843e-06
2.78152e-08
-1.9353e-06
2.68709e-08
-1.96082e-06
2.55292e-08
-1.98487e-06
2.40607e-08
-2.00738e-06
2.25108e-08
-2.02889e-06
2.15091e-08
-2.04918e-06
2.02949e-08
-2.06816e-06
1.89812e-08
-2.08585e-06
1.77008e-08
-2.10221e-06
1.63595e-08
-2.1172e-06
1.49867e-08
-2.13089e-06
1.36964e-08
-2.14332e-06
1.24307e-08
-2.15451e-06
1.12023e-08
-2.1645e-06
9.99745e-09
-2.17329e-06
8.78375e-09
-2.18084e-06
7.56095e-09
-2.18717e-06
6.32587e-09
-2.1924e-06
5.23834e-09
-2.19664e-06
4.23722e-09
-2.19981e-06
3.17317e-09
-2.20189e-06
2.08185e-09
-2.20286e-06
9.78453e-10
-2.20274e-06
-1.21129e-10
-2.20167e-06
-1.06995e-09
-2.19969e-06
-1.98268e-09
-2.19677e-06
-2.90448e-09
-2.19287e-06
-3.90713e-09
-2.18799e-06
-4.87974e-09
-2.1824e-06
-5.59527e-09
-2.17602e-06
-6.3753e-09
-2.16885e-06
-7.16873e-09
-2.16088e-06
-7.96777e-09
-2.15217e-06
-8.71266e-09
-2.14283e-06
-9.33873e-09
-2.13284e-06
-9.99608e-09
-2.12218e-06
-1.06629e-08
-2.11082e-06
-1.13614e-08
-2.09894e-06
-1.18814e-08
-2.08653e-06
-1.24112e-08
-2.07359e-06
-1.29441e-08
-2.06016e-06
-1.34295e-08
-2.04625e-06
-1.39159e-08
-2.03186e-06
-1.43882e-08
-2.01715e-06
-1.47123e-08
-2.00204e-06
-1.51118e-08
-1.98657e-06
-1.5474e-08
-1.97074e-06
-1.58307e-08
-1.95451e-06
-1.6232e-08
-1.93797e-06
-1.65494e-08
-1.92115e-06
-1.68259e-08
-1.90407e-06
-1.70783e-08
-1.88674e-06
-1.73356e-08
-1.86916e-06
-1.75806e-08
-1.85144e-06
-1.77207e-08
-1.83355e-06
-1.78922e-08
-1.81552e-06
-1.80408e-08
-1.79734e-06
-1.81832e-08
-1.77898e-06
-1.83564e-08
-1.76049e-06
-1.8501e-08
-1.74192e-06
-1.85724e-08
-1.72331e-06
-1.86124e-08
-1.70468e-06
-1.86314e-08
-1.68601e-06
-1.86717e-08
-1.66731e-06
-1.8698e-08
-1.64859e-06
-1.87252e-08
-1.62985e-06
-1.87454e-08
-1.61112e-06
-1.87293e-08
-1.5924e-06
-1.87241e-08
-1.57364e-06
-1.8763e-08
-1.55485e-06
-1.87925e-08
-1.53619e-06
-1.86644e-08
-1.51756e-06
-1.86367e-08
-1.49895e-06
-1.86068e-08
-1.48043e-06
-1.85244e-08
-1.46197e-06
-1.84627e-08
-1.44354e-06
-1.84317e-08
-1.42514e-06
-1.84022e-08
-1.4068e-06
-1.83407e-08
-1.38854e-06
-1.82657e-08
-1.37037e-06
-1.81687e-08
-1.35234e-06
-1.80397e-08
-1.33445e-06
-1.78855e-08
-1.31668e-06
-1.77714e-08
-1.29911e-06
-1.75717e-08
-1.28163e-06
-1.74889e-08
-1.26431e-06
-1.73164e-08
-1.24718e-06
-1.71353e-08
-1.2302e-06
-1.69787e-08
-1.21336e-06
-1.68481e-08
-1.19655e-06
-1.68029e-08
-1.18e-06
-1.65571e-08
-1.16345e-06
-1.65528e-08
-1.14674e-06
-1.67094e-08
-1.13028e-06
-1.6457e-08
-1.11334e-06
-1.69495e-08
-1.09647e-06
-1.68711e-08
-1.08094e-06
-1.55236e-08
-1.06493e-06
-1.60194e-08
-1.04854e-06
-1.63836e-08
-1.03339e-06
-1.51523e-08
-1.01246e-06
-2.09334e-08
-9.92117e-07
-2.03428e-08
-9.81035e-07
-1.10832e-08
-9.64263e-07
-1.67727e-08
-9.54483e-07
-9.77987e-09
-9.54327e-07
-1.56909e-10
-9.70993e-07
1.66653e-08
-9.88117e-07
1.71245e-08
-9.88719e-07
6.00448e-10
-9.87981e-07
-7.38461e-10
-9.81635e-07
-6.34667e-09
-9.74085e-07
-7.5507e-09
-9.64573e-07
-9.51195e-09
-9.54819e-07
-9.75543e-09
-9.44155e-07
-1.0664e-08
-9.33073e-07
-1.10835e-08
-9.20932e-07
-1.21417e-08
-9.09127e-07
-1.18067e-08
-8.94708e-07
-1.44206e-08
-8.80268e-07
-1.44408e-08
-8.68916e-07
-1.13545e-08
-8.55217e-07
-1.37005e-08
-8.43639e-07
-1.15807e-08
-8.35337e-07
-8.30536e-09
-8.32385e-07
-2.95537e-09
-8.29501e-07
-2.88811e-09
-8.20684e-07
-8.8217e-09
-8.11482e-07
-9.20696e-09
-8.01273e-07
-1.02154e-08
-7.90114e-07
-1.11671e-08
-7.79717e-07
-1.04057e-08
-7.68144e-07
-1.15827e-08
-7.57234e-07
-1.09207e-08
-7.43418e-07
-1.38292e-08
-7.29821e-07
-1.36113e-08
-7.18992e-07
-1.0845e-08
-7.0612e-07
-1.28904e-08
-6.93899e-07
-1.22428e-08
-6.85294e-07
-8.62717e-09
-6.54089e-07
-3.12281e-08
-6.27095e-07
-2.70152e-08
-6.23541e-07
-3.56659e-09
-5.98728e-07
-2.47931e-08
-6.26082e-07
2.74391e-08
-6.68166e-07
4.23255e-08
-8.33602e-07
1.65788e-07
-1.00074e-06
1.67812e-07
-1.10897e-06
1.09387e-07
-1.18003e-06
7.21279e-08
-1.22721e-06
4.81381e-08
-1.25929e-06
3.29531e-08
-1.28151e-06
2.30007e-08
-1.29712e-06
1.63204e-08
-1.30809e-06
1.16161e-08
-1.31563e-06
8.12221e-09
-1.32055e-06
5.44062e-09
-1.32341e-06
3.3348e-09
-1.32465e-06
1.67624e-09
-1.32448e-06
2.23767e-10
-1.32299e-06
-1.13557e-09
-1.32053e-06
-2.13717e-09
-1.3173e-06
-2.94146e-09
-1.31337e-06
-3.66125e-09
-1.30878e-06
-4.35257e-09
-1.30355e-06
-5.01199e-09
-1.29774e-06
-5.61219e-09
-1.29143e-06
-6.13024e-09
-1.28471e-06
-6.56287e-09
-1.27764e-06
-6.92064e-09
-1.27027e-06
-7.22494e-09
-1.26265e-06
-7.49866e-09
-1.25473e-06
-7.80899e-09
-1.24653e-06
-8.0967e-09
-1.23807e-06
-8.36819e-09
-1.22932e-06
-8.66156e-09
-1.22027e-06
-8.97477e-09
-1.21089e-06
-9.30505e-09
-1.20116e-06
-9.66129e-09
-1.19107e-06
-1.00301e-08
-1.18063e-06
-1.03861e-08
-1.16988e-06
-1.07042e-08
-1.15887e-06
-1.09559e-08
-1.14769e-06
-1.11409e-08
-1.13641e-06
-1.12473e-08
-1.12506e-06
-1.13143e-08
-1.11365e-06
-1.13731e-08
-1.10225e-06
-1.13745e-08
-1.09089e-06
-1.13301e-08
-1.07962e-06
-1.12414e-08
-1.06848e-06
-1.11169e-08
-1.05747e-06
-1.09855e-08
-1.04657e-06
-1.08849e-08
-1.03571e-06
-1.08458e-08
-1.02481e-06
-1.08782e-08
-1.01382e-06
-1.09737e-08
-1.00269e-06
-1.11177e-08
-9.91381e-07
-1.12944e-08
-9.79898e-07
-1.14695e-08
-9.68315e-07
-1.15712e-08
-9.56787e-07
-1.15155e-08
-9.45488e-07
-1.12886e-08
-9.34456e-07
-1.10206e-08
-9.23537e-07
-1.09096e-08
-9.12436e-07
-1.10914e-08
-9.01004e-07
-1.14224e-08
-8.89498e-07
-1.14977e-08
-8.78391e-07
-1.10991e-08
-8.67841e-07
-1.05417e-08
-8.57754e-07
-1.00799e-08
-8.4745e-07
-1.02967e-08
-8.36608e-07
-1.08355e-08
-8.25685e-07
-1.09175e-08
-8.15241e-07
-1.04377e-08
-8.0528e-07
-9.9554e-09
-7.94997e-07
-1.02781e-08
-7.83903e-07
-1.1088e-08
-7.72654e-07
-1.12445e-08
-7.61789e-07
-1.08586e-08
-7.50966e-07
-1.08178e-08
-7.39445e-07
-1.15153e-08
-7.27707e-07
-1.17335e-08
-7.16654e-07
-1.10491e-08
-7.06167e-07
-1.04816e-08
-6.95459e-07
-1.07021e-08
-6.85028e-07
-1.04251e-08
-6.74438e-07
-1.05865e-08
-6.97076e-09
-9.47689e-05
-2.28638e-06
-9.33377e-05
-2.85894e-06
-9.18583e-05
-2.93669e-06
-9.03303e-05
-3.02621e-06
-8.87991e-05
-3.03025e-06
-8.73031e-05
-2.96362e-06
-8.57928e-05
-3.04677e-06
-8.42424e-05
-3.15943e-06
-8.26267e-05
-3.32734e-06
-8.09504e-05
-3.42169e-06
-7.91924e-05
-3.51564e-06
-7.73481e-05
-3.58929e-06
-7.54486e-05
-3.65289e-06
-7.35648e-05
-3.6553e-06
-7.16932e-05
-3.7111e-06
-6.98806e-05
-3.74683e-06
-6.80776e-05
-3.7378e-06
-6.62624e-05
-3.73358e-06
-6.44256e-05
-3.7516e-06
-6.25861e-05
-3.69351e-06
-6.07284e-05
-3.63319e-06
-5.88949e-05
-3.54574e-06
-5.7048e-05
-3.60802e-06
-5.51967e-05
-3.79635e-06
-5.33541e-05
-3.93545e-06
-5.15337e-05
-3.84139e-06
-4.972e-05
-3.56542e-06
-4.7919e-05
-3.2797e-06
-4.60836e-05
-3.44225e-06
-4.42096e-05
-3.73453e-06
-4.2352e-05
-3.8019e-06
-4.05344e-05
-3.62156e-06
-3.88837e-05
-3.43458e-06
-3.71875e-05
-3.60778e-06
-3.53268e-05
-3.79913e-06
-3.33017e-05
-3.70501e-06
-3.13455e-05
-3.46461e-06
-2.96989e-05
-3.16382e-06
-2.8268e-05
-3.13638e-06
-2.6763e-05
-3.43211e-06
-2.50312e-05
-3.59669e-06
-2.31029e-05
-3.51195e-06
-2.12774e-05
-3.25407e-06
-1.96556e-05
-3.19076e-06
-1.80355e-05
-3.48224e-06
-1.62776e-05
-3.76818e-06
-1.44235e-05
-3.68381e-06
-1.26172e-05
-3.26674e-06
-1.10232e-05
-2.94564e-06
-9.51294e-06
-2.99924e-06
-7.89906e-06
-3.21941e-06
-6.17687e-06
-3.47107e-06
-4.40612e-06
-3.57527e-06
-2.70004e-06
-3.43515e-06
-1.13991e-06
-3.08639e-06
2.87101e-07
-2.82203e-06
1.71002e-06
-2.88326e-06
3.25255e-06
-3.15963e-06
4.79109e-06
-3.17753e-06
6.21572e-06
-2.90951e-06
7.55745e-06
-2.7199e-06
8.92207e-06
-2.76831e-06
1.04316e-05
-3.11491e-06
1.19007e-05
-3.05768e-06
1.31502e-05
-2.54313e-06
1.42578e-05
-2.12726e-06
1.54036e-05
-2.0479e-06
1.65994e-05
-2.22726e-06
1.77128e-05
-2.15703e-06
1.85326e-05
-1.68187e-06
1.92492e-05
-1.36168e-06
1.9865e-05
-1.13565e-06
2.05657e-05
-1.10911e-06
2.12718e-05
-1.0863e-06
2.19742e-05
-7.71178e-07
2.25116e-05
-1.14129e-07
2.29846e-05
6.22011e-07
2.32239e-05
1.53092e-06
2.22604e-05
2.7981e-06
2.08035e-05
2.3608e-06
1.9448e-05
2.68082e-06
1.77038e-05
2.34646e-06
1.69441e-05
1.59149e-06
1.55262e-05
1.98656e-06
1.45568e-05
8.37994e-07
1.35464e-05
1.06033e-06
1.24574e-05
1.14164e-06
1.22053e-05
-3.31998e-09
1.25867e-05
-8.86695e-07
1.2545e-05
-3.54597e-07
1.25996e-05
-4.39612e-07
1.28307e-05
-5.79767e-07
1.30564e-05
-3.58731e-07
1.3323e-05
-3.20256e-07
1.36173e-05
-1.93927e-07
1.37533e-05
7.85386e-08
1.38656e-05
5.76821e-07
1.38108e-05
1.01512e-06
1.41952e-05
1.64456e-06
1.41532e-05
2.86321e-06
1.35322e-05
2.95438e-06
1.1524e-05
3.03693e-06
8.56857e-06
2.75528e-06
6.15627e-06
2.22459e-06
4.62782e-06
8.39205e-07
4.12412e-06
-3.44794e-07
4.19315e-06
-5.88963e-07
4.38619e-06
-4.08814e-07
5.10625e-06
-9.52797e-07
6.06702e-06
-1.34374e-06
6.64147e-06
-9.09737e-07
6.97989e-06
-7.3782e-07
7.27301e-06
-6.52493e-07
7.50428e-06
-5.19433e-07
7.8477e-06
-4.42261e-07
8.20203e-06
-3.50662e-07
8.69966e-06
2.7698e-09
9.02553e-06
3.6432e-07
9.08574e-06
2.77063e-07
8.54365e-06
4.05904e-07
7.75287e-06
3.93241e-07
7.35393e-06
1.085e-07
7.32896e-06
-4.33211e-07
7.52208e-06
-6.96461e-07
7.7378e-06
-5.63667e-07
8.16968e-06
-7.51412e-07
8.66019e-06
-8.06743e-07
9.00219e-06
-6.34597e-07
9.28931e-06
-5.92517e-07
9.55198e-06
-5.66606e-07
9.79498e-06
-5.20362e-07
1.0065e-05
-5.38067e-07
1.03345e-05
-5.24356e-07
1.05838e-05
-4.88687e-07
1.08178e-05
-4.6287e-07
1.10419e-05
-4.49475e-07
1.12631e-05
-4.44364e-07
1.14715e-05
-4.23849e-07
1.16767e-05
-4.08997e-07
1.1878e-05
-4.00795e-07
1.20679e-05
-3.79612e-07
1.2244e-05
-3.51074e-07
1.24115e-05
-3.30674e-07
1.25708e-05
-3.16448e-07
1.27145e-05
-2.90597e-07
1.28451e-05
-2.62725e-07
1.29674e-05
-2.42374e-07
1.30814e-05
-2.24294e-07
1.31841e-05
-2.05197e-07
1.32725e-05
-1.80225e-07
1.33473e-05
-1.56008e-07
1.34152e-05
-1.32743e-07
1.34744e-05
-1.14336e-07
1.35265e-05
-1.0171e-07
1.35678e-05
-8.57368e-08
1.35943e-05
-5.93742e-08
1.36125e-05
-3.56e-08
1.36253e-05
-2.31643e-08
1.3632e-05
-1.20404e-08
1.36284e-05
4.13674e-09
1.36136e-05
2.72774e-08
1.35917e-05
4.5665e-08
1.35642e-05
5.46428e-08
1.35307e-05
6.44569e-08
1.34872e-05
8.49585e-08
1.34357e-05
1.04535e-07
1.33781e-05
1.1441e-07
1.33165e-05
1.2111e-07
1.3248e-05
1.35072e-07
1.317e-05
1.56734e-07
1.30857e-05
1.69268e-07
1.30006e-05
1.71177e-07
1.29096e-05
1.79329e-07
1.28089e-05
1.99803e-07
1.27037e-05
2.12171e-07
1.25962e-05
2.16797e-07
1.2484e-05
2.24462e-07
1.2366e-05
2.33285e-07
1.22443e-05
2.42508e-07
1.21205e-05
2.50068e-07
1.19924e-05
2.59203e-07
1.18614e-05
2.63456e-07
1.17254e-05
2.69066e-07
1.15857e-05
2.7745e-07
1.14439e-05
2.85288e-07
1.13017e-05
2.8639e-07
1.11589e-05
2.8355e-07
1.10138e-05
2.89472e-07
1.08658e-05
2.98365e-07
1.07152e-05
3.02387e-07
1.05637e-05
3.01847e-07
1.04108e-05
3.03074e-07
1.02559e-05
3.08219e-07
1.01027e-05
3.07706e-07
9.95103e-06
3.05865e-07
9.79907e-06
3.04938e-07
9.64345e-06
3.09798e-07
9.48657e-06
3.12867e-07
9.33303e-06
3.07663e-07
9.18178e-06
3.01033e-07
9.03042e-06
3.01955e-07
8.87767e-06
3.0602e-07
8.72244e-06
3.11282e-07
8.57187e-06
3.03042e-07
8.42455e-06
2.9573e-07
8.27759e-06
2.92564e-07
8.12856e-06
2.94438e-07
7.97826e-06
2.99961e-07
7.83301e-06
2.93489e-07
7.69118e-06
2.85061e-07
7.54831e-06
2.82693e-07
7.40376e-06
2.87793e-07
7.26363e-06
2.82477e-07
7.12562e-06
2.78253e-07
6.98871e-06
2.73232e-07
6.85472e-06
2.65099e-07
6.72013e-06
2.69695e-07
6.58672e-06
2.68673e-07
6.45384e-06
2.66676e-07
6.32188e-06
2.65881e-07
6.19527e-06
2.52616e-07
6.06859e-06
2.49199e-07
5.94382e-06
2.5005e-07
5.8186e-06
2.52478e-07
5.69446e-06
2.48211e-07
5.5732e-06
2.43342e-07
5.45266e-06
2.42596e-07
5.33403e-06
2.36999e-07
5.21754e-06
2.30111e-07
5.1018e-06
2.31955e-07
4.98496e-06
2.34868e-07
4.87045e-06
2.29599e-07
4.75824e-06
2.262e-07
4.64756e-06
2.20684e-07
4.5393e-06
2.13993e-07
4.43172e-06
2.1822e-07
4.32318e-06
2.19612e-07
4.21237e-06
2.1955e-07
4.10364e-06
2.13928e-07
3.99676e-06
2.1317e-07
3.89346e-06
2.0869e-07
3.79095e-06
2.06297e-07
3.68758e-06
2.05403e-07
3.58582e-06
2.04215e-07
3.48581e-06
2.01149e-07
3.38555e-06
1.98902e-07
3.28263e-06
2.06567e-07
3.18183e-06
2.01123e-07
3.08473e-06
1.926e-07
2.98759e-06
1.94519e-07
2.89039e-06
1.95026e-07
2.79437e-06
1.92868e-07
2.69781e-06
1.9313e-07
2.60258e-06
1.89779e-07
2.50866e-06
1.90116e-07
2.41511e-06
1.88692e-07
2.32146e-06
1.8506e-07
2.22661e-06
1.8631e-07
2.13269e-06
1.8764e-07
2.04243e-06
1.82868e-07
1.95302e-06
1.79831e-07
1.86354e-06
1.77161e-07
1.77325e-06
1.80156e-07
1.68349e-06
1.80014e-07
1.59393e-06
1.78702e-07
1.50594e-06
1.76537e-07
1.41908e-06
1.74566e-07
1.33404e-06
1.69337e-07
1.24955e-06
1.67597e-07
1.16484e-06
1.68745e-07
1.08039e-06
1.69128e-07
9.96614e-07
1.6814e-07
9.14031e-07
1.65801e-07
8.3204e-07
1.63863e-07
7.50151e-07
1.62538e-07
6.70074e-07
1.59171e-07
5.91281e-07
1.57961e-07
5.13666e-07
1.55987e-07
4.36623e-07
1.54359e-07
3.603e-07
1.52468e-07
2.84507e-07
1.52313e-07
2.08858e-07
1.51469e-07
1.35596e-07
1.46767e-07
6.37008e-08
1.43737e-07
-7.59568e-09
1.41679e-07
-7.79978e-08
1.4011e-07
-1.47415e-07
1.39106e-07
-2.16019e-07
1.37536e-07
-2.83118e-07
1.34594e-07
-3.49252e-07
1.32389e-07
-4.14203e-07
1.2908e-07
-4.78026e-07
1.26807e-07
-5.41105e-07
1.26151e-07
-6.03157e-07
1.24279e-07
-6.63849e-07
1.21624e-07
-7.23643e-07
1.19759e-07
-7.82638e-07
1.17585e-07
-8.40633e-07
1.15449e-07
-8.9739e-07
1.13555e-07
-9.52922e-07
1.11248e-07
-1.00741e-06
1.09149e-07
-1.06087e-06
1.06972e-07
-1.11336e-06
1.04659e-07
-1.16482e-06
1.02845e-07
-1.21482e-06
1.00272e-07
-1.26375e-06
9.8042e-08
-1.31163e-06
9.54869e-08
-1.35829e-06
9.29112e-08
-1.40404e-06
9.15222e-08
-1.44837e-06
8.88042e-08
-1.49151e-06
8.63653e-08
-1.53347e-06
8.37738e-08
-1.57428e-06
8.1363e-08
-1.61382e-06
7.90172e-08
-1.65205e-06
7.6481e-08
-1.68903e-06
7.39494e-08
-1.72478e-06
7.13576e-08
-1.75935e-06
6.89333e-08
-1.79258e-06
6.64924e-08
-1.82445e-06
6.38368e-08
-1.85502e-06
6.12132e-08
-1.88433e-06
5.84769e-08
-1.91238e-06
5.58535e-08
-1.93925e-06
5.37484e-08
-1.96465e-06
5.09212e-08
-1.98869e-06
4.81065e-08
-2.01146e-06
4.52646e-08
-2.03293e-06
4.29968e-08
-2.05314e-06
4.04992e-08
-2.07204e-06
3.78826e-08
-2.0896e-06
3.52628e-08
-2.10585e-06
3.26228e-08
-2.12084e-06
2.99748e-08
-2.13454e-06
2.73982e-08
-2.14696e-06
2.48454e-08
-2.15814e-06
2.23801e-08
-2.16811e-06
1.99641e-08
-2.17686e-06
1.75371e-08
-2.18442e-06
1.5121e-08
-2.19081e-06
1.27142e-08
-2.19604e-06
1.04769e-08
-2.20017e-06
8.36984e-09
-2.20323e-06
6.23448e-09
-2.20519e-06
4.04903e-09
-2.20609e-06
1.88061e-09
-2.20597e-06
-2.5182e-10
-2.20485e-06
-2.18084e-09
-2.20277e-06
-4.06732e-09
-2.19974e-06
-5.9317e-09
-2.19579e-06
-7.8591e-09
-2.19098e-06
-9.69393e-09
-2.18536e-06
-1.12133e-08
-2.17887e-06
-1.28589e-08
-2.1716e-06
-1.44439e-08
-2.16358e-06
-1.5996e-08
-2.15482e-06
-1.74705e-08
-2.14537e-06
-1.87972e-08
-2.1352e-06
-2.01564e-08
-2.12444e-06
-2.14333e-08
-2.11314e-06
-2.2668e-08
-2.1013e-06
-2.3729e-08
-2.08878e-06
-2.49277e-08
-2.07573e-06
-2.59955e-08
-2.06221e-06
-2.69491e-08
-2.04823e-06
-2.79111e-08
-2.03383e-06
-2.87904e-08
-2.01906e-06
-2.94935e-08
-2.00382e-06
-3.03512e-08
-1.98821e-06
-3.10784e-08
-1.97228e-06
-3.17721e-08
-1.95599e-06
-3.25255e-08
-1.93939e-06
-3.31507e-08
-1.92252e-06
-3.37049e-08
-1.90541e-06
-3.41952e-08
-1.88806e-06
-3.46969e-08
-1.87049e-06
-3.5153e-08
-1.85274e-06
-3.54739e-08
-1.83477e-06
-3.58695e-08
-1.81663e-06
-3.61749e-08
-1.79838e-06
-3.64384e-08
-1.78002e-06
-3.67296e-08
-1.76155e-06
-3.69748e-08
-1.74299e-06
-3.71345e-08
-1.72438e-06
-3.72268e-08
-1.70576e-06
-3.72579e-08
-1.68705e-06
-3.73849e-08
-1.66829e-06
-3.74597e-08
-1.64951e-06
-3.75064e-08
-1.63072e-06
-3.75463e-08
-1.61192e-06
-3.75338e-08
-1.59313e-06
-3.75196e-08
-1.57436e-06
-3.75384e-08
-1.55564e-06
-3.75172e-08
-1.53697e-06
-3.73364e-08
-1.51831e-06
-3.73085e-08
-1.49967e-06
-3.72484e-08
-1.48109e-06
-3.71106e-08
-1.46254e-06
-3.70157e-08
-1.44407e-06
-3.69043e-08
-1.42564e-06
-3.68359e-08
-1.40732e-06
-3.66703e-08
-1.38904e-06
-3.65469e-08
-1.37089e-06
-3.63241e-08
-1.35279e-06
-3.61459e-08
-1.33486e-06
-3.5825e-08
-1.31692e-06
-3.57062e-08
-1.29926e-06
-3.52449e-08
-1.28164e-06
-3.51132e-08
-1.26432e-06
-3.46442e-08
-1.24739e-06
-3.40698e-08
-1.23054e-06
-3.3828e-08
-1.21404e-06
-3.33544e-08
-1.1971e-06
-3.37435e-08
-1.1805e-06
-3.31652e-08
-1.16324e-06
-3.38218e-08
-1.14639e-06
-3.35648e-08
-1.13088e-06
-3.19638e-08
-1.11549e-06
-3.23491e-08
-1.09931e-06
-3.30551e-08
-1.08341e-06
-3.14246e-08
-1.0614e-06
-3.80354e-08
-1.04068e-06
-3.71029e-08
-1.03034e-06
-2.5504e-08
-1.01979e-06
-3.14787e-08
-1.01553e-06
-2.46107e-08
-1.01524e-06
-1.13781e-08
-1.0341e-06
2.09164e-09
-1.05057e-06
6.68706e-09
-1.04834e-06
-2.39226e-09
-1.03817e-06
6.49549e-09
-1.02224e-06
1.19043e-09
-1.01247e-06
-9.17216e-09
-1.00087e-06
-1.23383e-08
-9.912e-07
-1.60173e-08
-9.80552e-07
-1.82006e-08
-9.70191e-07
-1.98732e-08
-9.59058e-07
-2.08895e-08
-9.47852e-07
-2.18705e-08
-9.3381e-07
-2.51253e-08
-9.19927e-07
-2.60252e-08
-9.09519e-07
-2.22147e-08
-8.98898e-07
-2.504e-08
-8.89886e-07
-2.34521e-08
-8.82241e-07
-1.89969e-08
-8.80592e-07
-1.53477e-08
-8.78371e-07
-1.37975e-08
-8.68641e-07
-1.80294e-08
-8.56736e-07
-1.48537e-08
-8.42259e-07
-1.73586e-08
-8.31121e-07
-1.9952e-08
-8.17373e-07
-2.29451e-08
-8.05818e-07
-2.17591e-08
-7.89781e-07
-2.71875e-08
-7.77164e-07
-2.30064e-08
-7.65675e-07
-2.30548e-08
-7.57182e-07
-1.9393e-08
-7.48859e-07
-2.21276e-08
-7.39722e-07
-2.27218e-08
-7.31329e-07
-1.92075e-08
-6.97984e-07
-4.61982e-08
-6.6914e-07
-4.10493e-08
-6.66075e-07
-1.16576e-08
-6.61678e-07
-3.55983e-08
-7.02598e-07
1.38974e-08
-7.49758e-07
4.35156e-08
-9.38602e-07
1.63885e-07
-1.12101e-06
2.09383e-07
-1.24051e-06
1.60943e-07
-1.28275e-06
2.06851e-07
-1.26488e-06
1.48219e-07
-1.26358e-06
1.06439e-07
-1.27331e-06
8.03022e-08
-1.28619e-06
5.95648e-08
-1.29881e-06
4.42413e-08
-1.3098e-06
3.27791e-08
-1.31873e-06
2.41419e-08
-1.32547e-06
1.73481e-08
-1.33016e-06
1.19028e-08
-1.33313e-06
7.57856e-09
-1.33464e-06
4.09851e-09
-1.3346e-06
9.48192e-10
-1.3334e-06
-1.5944e-09
-1.33126e-06
-3.82923e-09
-1.32821e-06
-5.69414e-09
-1.32434e-06
-7.27458e-09
-1.31971e-06
-8.71084e-09
-1.31438e-06
-1.006e-08
-1.30843e-06
-1.13017e-08
-1.30196e-06
-1.2395e-08
-1.29507e-06
-1.33127e-08
-1.28782e-06
-1.40634e-08
-1.28029e-06
-1.46822e-08
-1.27251e-06
-1.52241e-08
-1.26445e-06
-1.57461e-08
-1.2562e-06
-1.62384e-08
-1.24768e-06
-1.67747e-08
-1.23884e-06
-1.73564e-08
-1.22971e-06
-1.79174e-08
-1.22033e-06
-1.84759e-08
-1.2107e-06
-1.90496e-08
-1.20082e-06
-1.96366e-08
-1.19072e-06
-2.02176e-08
-1.18042e-06
-2.07647e-08
-1.16994e-06
-2.12605e-08
-1.15927e-06
-2.16968e-08
-1.14842e-06
-2.20456e-08
-1.1374e-06
-2.23232e-08
-1.12625e-06
-2.25106e-08
-1.11508e-06
-2.25958e-08
-1.10387e-06
-2.26253e-08
-1.09266e-06
-2.25716e-08
-1.0815e-06
-2.24314e-08
-1.07041e-06
-2.22413e-08
-1.05936e-06
-2.20631e-08
-1.04831e-06
-2.19547e-08
-1.03724e-06
-2.19428e-08
-1.02612e-06
-2.20167e-08
-1.01496e-06
-2.21552e-08
-1.00374e-06
-2.23519e-08
-9.92441e-07
-2.26102e-08
-9.81038e-07
-2.28873e-08
-9.69564e-07
-2.30586e-08
-9.5812e-07
-2.29724e-08
-9.46809e-07
-2.26101e-08
-9.3564e-07
-2.22005e-08
-9.24484e-07
-2.20754e-08
-9.1325e-07
-2.2335e-08
-9.02018e-07
-2.26617e-08
-8.90966e-07
-2.25573e-08
-8.80204e-07
-2.18675e-08
-8.69838e-07
-2.09136e-08
-8.59163e-07
-2.07596e-08
-8.48126e-07
-2.13394e-08
-8.37112e-07
-2.18528e-08
-8.26479e-07
-2.15549e-08
-8.16253e-07
-2.06665e-08
-8.0576e-07
-2.04517e-08
-7.94661e-07
-2.13797e-08
-7.83633e-07
-2.21179e-08
-7.73008e-07
-2.18715e-08
-7.62559e-07
-2.13088e-08
-7.51511e-07
-2.18676e-08
-7.40526e-07
-2.25036e-08
-7.30043e-07
-2.22183e-08
-7.19823e-07
-2.12718e-08
-7.09387e-07
-2.09186e-08
-6.98984e-07
-2.11052e-08
-6.88171e-07
-2.12401e-08
-6.76725e-07
-2.2037e-08
-1.62206e-08
-9.49096e-05
-3.45898e-06
-9.34701e-05
-4.29735e-06
-9.19815e-05
-4.42462e-06
-9.04377e-05
-4.56864e-06
-8.88894e-05
-4.57953e-06
-8.73685e-05
-4.48555e-06
-8.58319e-05
-4.58721e-06
-8.42737e-05
-4.71951e-06
-8.26645e-05
-4.93814e-06
-8.09957e-05
-5.09199e-06
-7.92605e-05
-5.2523e-06
-7.74735e-05
-5.37741e-06
-7.56689e-05
-5.45814e-06
-7.38381e-05
-5.48616e-06
-7.20195e-05
-5.52938e-06
-7.02112e-05
-5.55447e-06
-6.84016e-05
-5.54606e-06
-6.65958e-05
-5.53773e-06
-6.47943e-05
-5.55135e-06
-6.29716e-05
-5.51453e-06
-6.11462e-05
-5.4571e-06
-5.92923e-05
-5.39829e-06
-5.74488e-05
-5.45051e-06
-5.5654e-05
-5.59056e-06
-5.39409e-05
-5.64814e-06
-5.21908e-05
-5.59112e-06
-5.03636e-05
-5.39138e-06
-4.84141e-05
-5.22734e-06
-4.64922e-05
-5.36875e-06
-4.4645e-05
-5.58709e-06
-4.28479e-05
-5.59923e-06
-4.10366e-05
-5.42779e-06
-3.92924e-05
-5.17824e-06
-3.7562e-05
-5.33869e-06
-3.5747e-05
-5.62611e-06
-3.37468e-05
-5.70916e-06
-3.17358e-05
-5.47278e-06
-2.98525e-05
-5.03708e-06
-2.82495e-05
-4.73945e-06
-2.67869e-05
-4.89467e-06
-2.51462e-05
-5.25101e-06
-2.32843e-05
-5.37954e-06
-2.1365e-05
-5.17138e-06
-1.95221e-05
-5.03451e-06
-1.78242e-05
-5.18103e-06
-1.6213e-05
-5.39139e-06
-1.45226e-05
-5.37656e-06
-1.27041e-05
-5.08455e-06
-1.08447e-05
-4.80373e-06
-9.04714e-06
-4.79752e-06
-7.32838e-06
-4.94619e-06
-5.74663e-06
-5.0553e-06
-4.19234e-06
-5.13005e-06
-2.59127e-06
-5.03664e-06
-9.47248e-07
-4.73223e-06
6.07476e-07
-4.37765e-06
2.06387e-06
-4.34062e-06
3.47473e-06
-4.56938e-06
4.8679e-06
-4.57097e-06
6.27137e-06
-4.31583e-06
7.67142e-06
-4.11889e-06
9.09725e-06
-4.19519e-06
1.04975e-05
-4.51129e-06
1.18198e-05
-4.38236e-06
1.30993e-05