/*--------------------------------*- C++ -*----------------------------------*\
| =========                 |                                                 |
| \\      /  F ield         | OpenFOAM: The Open Source CFD Toolbox           |
|  \\    /   O peration     | Version:  v2006                                 |
|   \\  /    A nd           | Website:  www.openfoam.com                      |
|    \\/     M anipulation  |                                                 |
\*---------------------------------------------------------------------------*/
FoamFile
{
    version     2.0;
    format      ascii;
    class       volScalarField;
    location    "3.3";
    object      nut;
}
// * * * * * * * * * * * * * * * * * * * * * * * * * * * * * * * * * * * * * //

dimensions      [0 2 -1 0 0 0 0];


internalField   nonuniform List<scalar> 
33000
(
4.58775e-10
3.63722e-10
4.22366e-10
4.59033e-10
5.14097e-10
5.75844e-10
6.57738e-10
7.51743e-10
8.6564e-10
9.92542e-10
1.12713e-09
1.26226e-09
1.39631e-09
1.52661e-09
1.64722e-09
1.76242e-09
1.87238e-09
1.97475e-09
2.07334e-09
2.17265e-09
2.26447e-09
2.34443e-09
2.41056e-09
2.47888e-09
2.56984e-09
2.70201e-09
2.84053e-09
2.94305e-09
3.01531e-09
3.11644e-09
3.2695e-09
3.42608e-09
3.56747e-09
3.71913e-09
3.94455e-09
4.22088e-09
4.43706e-09
4.62904e-09
4.82322e-09
5.08944e-09
5.52397e-09
6.00357e-09
6.34032e-09
6.66177e-09
7.07408e-09
7.78187e-09
8.86735e-09
9.9812e-09
1.08606e-08
1.18117e-08
1.301e-08
1.45072e-08
1.67188e-08
2.03148e-08
2.56283e-08
3.08433e-08
3.29423e-08
3.11669e-08
2.87985e-08
2.67753e-08
2.41593e-08
2.0862e-08
1.71606e-08
1.46802e-08
1.33454e-08
1.25535e-08
1.18917e-08
1.09095e-08
1.00521e-08
9.39788e-09
9.0285e-09
8.65907e-09
8.37699e-09
7.89708e-09
7.54006e-09
7.13618e-09
6.63539e-09
7.06483e-09
8.68173e-09
8.06333e-09
8.10156e-09
8.09063e-09
7.64659e-09
9.06044e-09
9.53557e-09
9.50324e-09
9.85454e-09
9.95705e-09
9.20893e-09
8.8612e-09
9.03229e-09
8.64314e-09
8.50327e-09
8.38025e-09
8.12519e-09
7.78869e-09
7.50013e-09
7.07472e-09
6.58516e-09
7.30097e-09
9.91084e-09
1.59232e-08
1.38856e-08
1.17782e-08
1.40148e-08
1.57125e-08
1.91704e-08
2.09685e-08
1.97791e-08
1.46415e-08
1.22436e-08
1.13815e-08
1.07872e-08
1.04213e-08
1.00018e-08
9.25252e-09
8.66927e-09
9.85098e-09
1.16762e-08
1.12349e-08
9.81399e-09
9.14049e-09
9.4027e-09
9.19301e-09
9.32829e-09
9.07704e-09
8.43702e-09
7.98572e-09
7.72219e-09
7.5003e-09
7.33948e-09
7.1646e-09
6.96238e-09
6.78352e-09
6.62724e-09
6.48869e-09
6.35451e-09
6.22667e-09
6.11287e-09
6.00077e-09
5.89256e-09
5.79571e-09
5.71072e-09
5.62755e-09
5.54719e-09
5.47676e-09
5.41306e-09
5.35588e-09
5.30147e-09
5.24954e-09
5.20397e-09
5.16424e-09
5.1303e-09
5.09936e-09
5.0684e-09
5.04078e-09
5.02145e-09
5.00706e-09
4.99273e-09
4.97826e-09
4.96867e-09
4.96675e-09
4.96691e-09
4.96541e-09
4.96681e-09
4.97542e-09
4.98675e-09
4.99675e-09
5.00769e-09
5.02508e-09
5.0488e-09
5.07197e-09
5.09298e-09
5.11949e-09
5.15404e-09
5.18997e-09
5.22627e-09
5.26504e-09
5.30828e-09
5.35513e-09
5.40648e-09
5.46059e-09
5.51408e-09
5.57143e-09
5.63589e-09
5.70586e-09
5.77197e-09
5.83734e-09
5.91283e-09
5.99472e-09
6.07504e-09
6.15414e-09
6.24008e-09
6.33123e-09
6.42409e-09
6.51575e-09
6.60803e-09
6.70831e-09
6.81404e-09
6.91323e-09
7.01181e-09
7.11792e-09
7.23262e-09
7.3506e-09
7.4632e-09
7.57637e-09
7.6869e-09
7.8105e-09
7.94519e-09
8.07477e-09
8.19424e-09
8.32347e-09
8.4667e-09
8.60782e-09
8.75391e-09
8.88505e-09
9.02336e-09
9.18306e-09
9.33652e-09
9.50657e-09
9.67215e-09
9.81763e-09
9.97697e-09
1.01582e-08
1.03433e-08
1.05177e-08
1.07093e-08
1.091e-08
1.10893e-08
1.12757e-08
1.14945e-08
1.17151e-08
1.19377e-08
1.21741e-08
1.23763e-08
1.26005e-08
1.28729e-08
1.31461e-08
1.34054e-08
1.36722e-08
1.39751e-08
1.42753e-08
1.45838e-08
1.49028e-08
1.52577e-08
1.55837e-08
1.59582e-08
1.64062e-08
1.67916e-08
1.71938e-08
1.76692e-08
1.81561e-08
1.86774e-08
1.92138e-08
1.97889e-08
2.04622e-08
2.11344e-08
2.17925e-08
2.25718e-08
2.345e-08
2.43845e-08
2.5312e-08
2.56505e-08
2.55349e-08
2.54201e-08
2.53091e-08
2.52002e-08
2.50931e-08
2.49867e-08
2.48846e-08
2.47877e-08
2.46932e-08
2.46019e-08
2.45126e-08
2.44267e-08
2.43431e-08
2.42622e-08
2.41858e-08
2.41125e-08
2.40428e-08
2.39765e-08
2.39161e-08
2.38571e-08
2.37994e-08
2.37454e-08
2.36933e-08
2.3645e-08
2.35983e-08
2.3549e-08
2.34978e-08
2.3444e-08
2.33862e-08
2.33287e-08
2.32709e-08
2.32105e-08
2.31491e-08
2.3086e-08
2.30211e-08
2.29556e-08
2.28889e-08
2.28206e-08
2.27513e-08
2.26804e-08
2.26084e-08
2.25357e-08
2.24613e-08
2.23854e-08
2.23077e-08
2.22296e-08
2.21506e-08
2.20698e-08
2.19875e-08
2.19035e-08
2.18196e-08
2.17358e-08
2.16519e-08
2.15677e-08
2.14833e-08
2.1399e-08
2.13146e-08
2.12297e-08
2.11446e-08
2.10588e-08
2.0973e-08
2.08872e-08
2.08007e-08
2.07133e-08
2.0493e-08
2.01868e-08
1.99023e-08
1.9635e-08
1.93837e-08
1.91489e-08
1.89292e-08
1.87225e-08
1.85286e-08
1.83462e-08
1.81749e-08
1.80145e-08
1.78657e-08
1.77274e-08
1.75966e-08
1.74736e-08
1.73596e-08
1.7254e-08
1.71573e-08
1.70684e-08
1.69852e-08
1.69081e-08
1.68375e-08
1.6776e-08
1.67199e-08
1.66673e-08
1.66209e-08
1.65803e-08
1.65463e-08
1.65167e-08
1.64911e-08
1.64701e-08
1.64552e-08
1.64452e-08
1.64381e-08
1.64357e-08
1.64376e-08
1.64435e-08
1.64546e-08
1.64692e-08
1.64866e-08
1.65087e-08
1.64369e-08
1.63346e-08
1.62326e-08
1.61312e-08
1.60304e-08
1.59301e-08
1.58304e-08
1.57315e-08
1.56333e-08
1.5536e-08
1.54394e-08
1.53436e-08
1.52485e-08
1.51542e-08
1.50608e-08
1.49685e-08
1.48772e-08
1.47869e-08
1.46977e-08
1.46094e-08
1.45221e-08
1.44358e-08
1.43505e-08
1.42661e-08
1.41827e-08
1.41006e-08
1.40194e-08
1.39394e-08
1.38605e-08
1.37826e-08
1.37056e-08
1.36296e-08
1.35546e-08
1.34806e-08
1.34078e-08
1.3336e-08
1.32654e-08
1.3196e-08
1.31276e-08
1.30602e-08
1.29939e-08
1.29288e-08
1.28648e-08
1.28017e-08
1.27396e-08
1.26788e-08
1.26181e-08
1.25587e-08
1.25e-08
1.2441e-08
1.2384e-08
1.23302e-08
1.22729e-08
1.22204e-08
1.21667e-08
1.21012e-08
1.20506e-08
1.20118e-08
1.19471e-08
1.19295e-08
1.18844e-08
1.19272e-08
1.18821e-08
1.1873e-08
1.18332e-08
1.18048e-08
1.17653e-08
1.17311e-08
1.16926e-08
1.16566e-08
1.1618e-08
1.15807e-08
1.15432e-08
1.15019e-08
1.14648e-08
1.14317e-08
1.13901e-08
1.13627e-08
1.13263e-08
1.13156e-08
1.1281e-08
1.12547e-08
1.12235e-08
1.11935e-08
1.1164e-08
1.11346e-08
1.11066e-08
1.10779e-08
1.10447e-08
1.10156e-08
1.09937e-08
1.09565e-08
1.09402e-08
1.09128e-08
1.08355e-08
1.08159e-08
1.08212e-08
1.07342e-08
1.08912e-08
1.08542e-08
1.14497e-08
1.14196e-08
1.15959e-08
1.16637e-08
1.17162e-08
1.17497e-08
1.17712e-08
1.17843e-08
1.17915e-08
1.1794e-08
1.1793e-08
1.17892e-08
1.17833e-08
1.17754e-08
1.17661e-08
1.17557e-08
1.17442e-08
1.17318e-08
1.17185e-08
1.17043e-08
1.16892e-08
1.16736e-08
1.16575e-08
1.1641e-08
1.16243e-08
1.16074e-08
1.15901e-08
1.15726e-08
1.15548e-08
1.15365e-08
1.15178e-08
1.14986e-08
1.14788e-08
1.14584e-08
1.14374e-08
1.14159e-08
1.13942e-08
1.13724e-08
1.13506e-08
1.1329e-08
1.13076e-08
1.12865e-08
1.12658e-08
1.12454e-08
1.12253e-08
1.12055e-08
1.11859e-08
1.11664e-08
1.11471e-08
1.11278e-08
1.11086e-08
1.10895e-08
1.10704e-08
1.10513e-08
1.10323e-08
1.10134e-08
1.09948e-08
1.09766e-08
1.09585e-08
1.09403e-08
1.0922e-08
1.09038e-08
1.08858e-08
1.08681e-08
1.08506e-08
1.08331e-08
1.08155e-08
1.0798e-08
1.07808e-08
1.07639e-08
1.07471e-08
1.07299e-08
1.07129e-08
1.06967e-08
1.06809e-08
1.06638e-08
1.06472e-08
1.06301e-08
1.05913e-08
1.06866e-08
1.04565e-08
1.26743e-09
1.25121e-09
2.56177e-09
5.30886e-09
5.23797e-09
5.97677e-09
5.7181e-09
5.67672e-09
5.21349e-09
5.27694e-09
5.33848e-09
5.30135e-09
5.20324e-09
5.26955e-09
5.43076e-09
5.65179e-09
5.74465e-09
5.77861e-09
5.81377e-09
5.83363e-09
5.86501e-09
5.94817e-09
5.85789e-09
5.90471e-09
5.9429e-09
6.0469e-09
6.17865e-09
6.22411e-09
6.12426e-09
5.93337e-09
6.0113e-09
6.21787e-09
6.70197e-09
6.69766e-09
6.0821e-09
5.727e-09
5.99531e-09
6.87705e-09
7.92059e-09
7.63682e-09
6.56818e-09
6.16045e-09
6.36648e-09
6.9565e-09
7.15128e-09
6.55949e-09
6.2085e-09
6.5048e-09
7.25971e-09
7.60903e-09
7.20327e-09
6.68551e-09
6.51646e-09
6.66292e-09
7.22617e-09
7.92236e-09
7.9452e-09
7.46671e-09
7.3183e-09
7.71729e-09
8.28199e-09
8.08318e-09
7.60722e-09
7.71527e-09
8.54858e-09
9.98542e-09
1.02104e-08
1.00759e-08
1.04015e-08
1.27205e-08
1.48311e-08
1.68e-08
1.59859e-08
1.54642e-08
1.39392e-08
1.32374e-08
1.47256e-08
1.33945e-08
2.05702e-08
2.03041e-08
1.75961e-08
2.50015e-08
2.4016e-08
1.9372e-08
1.25542e-08
6.03683e-09
7.16455e-09
1.90034e-08
1.95362e-08
2.23297e-08
3.00807e-08
1.91945e-08
1.82344e-08
2.19768e-08
2.05547e-08
1.72942e-08
1.52199e-08
9.39395e-09
6.4216e-09
5.68793e-09
6.4937e-09
4.23093e-09
2.85669e-09
3.36631e-09
4.38697e-09
6.36976e-09
6.10077e-09
1.14392e-08
1.07497e-08
8.18892e-09
1.27673e-08
1.91852e-08
2.83826e-08
2.61347e-08
1.94838e-08
1.47678e-08
1.22375e-08
1.51706e-08
2.14299e-08
1.1924e-08
8.91831e-09
1.76214e-08
2.68911e-08
2.27965e-08
1.93962e-08
1.76723e-08
1.59559e-08
2.26168e-08
2.72331e-08
3.07722e-08
3.23411e-08
2.9428e-08
2.89318e-08
3.14031e-08
3.36356e-08
3.5252e-08
3.62576e-08
3.77996e-08
3.8444e-08
3.89926e-08
4.10348e-08
4.41548e-08
4.65821e-08
4.91033e-08
5.31954e-08
5.82372e-08
6.2393e-08
6.67477e-08
7.38282e-08
8.33252e-08
9.37271e-08
1.05893e-07
1.20035e-07
1.36334e-07
1.59025e-07
1.97693e-07
2.61673e-07
3.29286e-07
3.35642e-07
3.30898e-07
3.22257e-07
3.22129e-07
3.29251e-07
2.68916e-07
2.0627e-07
1.74454e-07
1.56703e-07
1.45156e-07
1.2918e-07
1.12689e-07
1.04271e-07
1.01429e-07
9.54019e-08
8.62263e-08
8.20155e-08
7.99288e-08
7.58662e-08
7.24938e-08
7.03771e-08
6.85885e-08
6.62891e-08
6.42155e-08
6.22277e-08
6.05319e-08
5.94149e-08
5.90027e-08
5.87714e-08
5.77738e-08
5.65601e-08
5.55209e-08
5.49041e-08
5.44922e-08
5.39078e-08
5.41738e-08
5.46546e-08
5.4378e-08
5.31234e-08
5.26865e-08
5.36272e-08
5.43878e-08
5.44006e-08
5.38385e-08
5.29091e-08
5.42e-08
5.54132e-08
5.55283e-08
5.47869e-08
5.4379e-08
5.59836e-08
5.71509e-08
5.68035e-08
5.62625e-08
5.77613e-08
5.86013e-08
5.88669e-08
6.01794e-08
6.00784e-08
6.04156e-08
6.05547e-08
6.09806e-08
6.30493e-08
6.3405e-08
6.42491e-08
6.41348e-08
6.43931e-08
6.59088e-08
6.63081e-08
6.70734e-08
6.84566e-08
6.89854e-08
6.82183e-08
6.94625e-08
7.08206e-08
7.16313e-08
7.32973e-08
7.39066e-08
7.30694e-08
7.16368e-08
7.28254e-08
7.42821e-08
7.6517e-08
7.71874e-08
7.65946e-08
7.76396e-08
7.90253e-08
7.88115e-08
7.68897e-08
7.8247e-08
8.11948e-08
8.13521e-08
8.11587e-08
8.19778e-08
8.16708e-08
8.27596e-08
8.38646e-08
8.41227e-08
8.40465e-08
8.29746e-08
8.38878e-08
8.69867e-08
8.79151e-08
8.77073e-08
8.71821e-08
8.74156e-08
8.77345e-08
8.90974e-08
9.0347e-08
9.20906e-08
9.28057e-08
9.25165e-08
9.27687e-08
9.34416e-08
9.47785e-08
9.53971e-08
9.55616e-08
9.75709e-08
9.91899e-08
1.00595e-07
1.0133e-07
1.02292e-07
1.02904e-07
1.03139e-07
1.06305e-07
1.08392e-07
1.09209e-07
1.10642e-07
1.12115e-07
1.13505e-07
1.15896e-07
1.17653e-07
1.19689e-07
1.21878e-07
1.23269e-07
1.2527e-07
1.28007e-07
1.29938e-07
1.31684e-07
1.33959e-07
1.36831e-07
1.39746e-07
1.42375e-07
1.45173e-07
1.47803e-07
1.50724e-07
1.55008e-07
1.5834e-07
1.61857e-07
1.66018e-07
1.69333e-07
1.74451e-07
1.79318e-07
1.84264e-07
1.89503e-07
1.95351e-07
2.01885e-07
2.08593e-07
2.15669e-07
2.23001e-07
2.31635e-07
2.41315e-07
2.5123e-07
2.61978e-07
2.73496e-07
2.85234e-07
3.00855e-07
3.17301e-07
3.34914e-07
3.5433e-07
3.75634e-07
4.00452e-07
4.2959e-07
4.62194e-07
4.99457e-07
5.43691e-07
5.96402e-07
6.57512e-07
7.30025e-07
8.1964e-07
9.14731e-07
9.16848e-07
9.18632e-07
9.20144e-07
9.21555e-07
9.2287e-07
9.24071e-07
9.25113e-07
9.25985e-07
9.26891e-07
9.27819e-07
9.28746e-07
9.29586e-07
9.30361e-07
9.31159e-07
9.31873e-07
9.32541e-07
9.18904e-07
8.51074e-07
7.92233e-07
7.46813e-07
7.11795e-07
6.78555e-07
6.42058e-07
6.15289e-07
5.93796e-07
5.7322e-07
5.57028e-07
5.42255e-07
5.25825e-07
5.13205e-07
5.02136e-07
4.91075e-07
4.81782e-07
4.7372e-07
4.66921e-07
4.60171e-07
4.5455e-07
4.49684e-07
4.44008e-07
4.39979e-07
4.36975e-07
4.34009e-07
4.31562e-07
4.29364e-07
4.28119e-07
4.2764e-07
4.25623e-07
4.24381e-07
4.2386e-07
4.23319e-07
4.23141e-07
4.23263e-07
4.23609e-07
4.24693e-07
4.25756e-07
4.25705e-07
4.26304e-07
4.27427e-07
4.28212e-07
4.29827e-07
4.3082e-07
4.32937e-07
4.34253e-07
4.36864e-07
4.38301e-07
4.41892e-07
4.4222e-07
4.48429e-07
4.49729e-07
4.57924e-07
4.68057e-07
4.71938e-07
4.79846e-07
4.69256e-07
4.75626e-07
4.59225e-07
4.69246e-07
5.13417e-07
5.15039e-07
4.85762e-07
4.86053e-07
3.55131e-07
3.77769e-07
5.39202e-07
5.83614e-07
8.36681e-07
9.23335e-07
3.12561e-07
3.10995e-07
5.86708e-07
4.78056e-07
3.53579e-07
4.38654e-07
5.88965e-07
6.86013e-07
7.17502e-07
7.56016e-07
7.14939e-07
6.97166e-07
5.54828e-07
5.59504e-07
6.91954e-07
7.00809e-07
8.38271e-07
9.03706e-07
9.21306e-07
9.21275e-07
6.9418e-07
6.11422e-07
5.12057e-07
6.27057e-07
5.81748e-07
6.57089e-07
4.94374e-07
5.9689e-07
6.86705e-07
7.70556e-07
8.98785e-07
7.56612e-07
7.02063e-07
2.34628e-07
2.65827e-07
1.85008e-07
2.267e-07
9.13721e-08
9.08753e-08
3.84532e-08
3.6771e-08
7.88068e-08
7.92759e-08
7.55845e-08
9.16474e-08
1.48701e-07
2.02785e-07
2.7756e-07
3.67821e-07
4.79021e-07
6.18166e-07
7.96561e-07
8.96548e-07
9.03744e-07
9.09408e-07
9.13109e-07
9.14838e-07
9.15765e-07
9.16068e-07
9.16407e-07
9.1715e-07
9.18125e-07
9.18966e-07
9.1945e-07
9.19539e-07
9.1929e-07
9.18856e-07
9.18399e-07
9.18059e-07
9.17921e-07
8.89968e-07
8.62088e-07
8.37765e-07
8.15478e-07
7.95545e-07
7.78039e-07
7.62673e-07
7.48658e-07
7.35301e-07
7.23402e-07
7.12862e-07
7.05163e-07
7.01066e-07
6.99052e-07
6.99465e-07
7.02276e-07
7.0596e-07
7.08514e-07
7.0874e-07
7.0695e-07
7.04309e-07
7.01447e-07
6.9781e-07
6.92525e-07
6.86409e-07
6.82502e-07
6.84059e-07
6.91165e-07
6.98659e-07
7.00009e-07
6.96606e-07
6.97279e-07
7.08129e-07
7.27826e-07
7.42938e-07
7.30152e-07
7.10412e-07
7.12495e-07
7.35097e-07
7.55374e-07
7.391e-07
7.08325e-07
7.11934e-07
7.35603e-07
7.37661e-07
7.08784e-07
7.13125e-07
7.45715e-07
7.5847e-07
7.89651e-07
4.2442e-07
3.22086e-07
1.10841e-07
2.29533e-07
1.25924e-09
1.24093e-09
2.52565e-09
5.16019e-09
5.03986e-09
5.64504e-09
5.33324e-09
5.27273e-09
4.79283e-09
4.75015e-09
4.74341e-09
4.68554e-09
4.52951e-09
4.44916e-09
4.53845e-09
4.63868e-09
4.61878e-09
4.61491e-09
4.6437e-09
4.58447e-09
4.57258e-09
4.5047e-09
4.49658e-09
4.68849e-09
4.86136e-09
4.83274e-09
4.5845e-09
4.28425e-09
4.365e-09
4.51392e-09
4.65328e-09
4.68872e-09
4.76215e-09
4.8257e-09
4.62617e-09
4.1759e-09
4.20824e-09
4.55274e-09
5.21819e-09
5.68759e-09
5.07415e-09
4.55088e-09
4.38219e-09
4.56131e-09
4.99509e-09
5.15315e-09
4.88932e-09
4.60725e-09
4.54971e-09
4.69322e-09
4.88824e-09
5.18998e-09
5.36245e-09
5.14493e-09
5.06883e-09
5.32752e-09
5.63803e-09
5.91253e-09
5.89644e-09
5.88212e-09
5.90324e-09
5.70963e-09
5.96227e-09
6.18885e-09
6.15092e-09
6.27081e-09
5.96831e-09
6.56379e-09
7.42106e-09
7.67269e-09
8.06388e-09
8.7144e-09
9.67636e-09
1.03577e-08
8.93969e-09
7.30285e-09
7.47997e-09
6.89499e-09
9.12599e-09
1.27355e-08
1.67904e-08
2.89188e-08
2.2266e-08
1.45434e-08
1.3703e-08
1.01727e-08
6.40727e-09
5.38534e-09
5.16838e-09
4.85755e-09
1.13545e-08
1.07944e-08
1.17753e-08
1.56271e-08
1.2214e-08
1.02854e-08
1.06641e-08
1.01123e-08
7.9407e-09
6.80241e-09
6.33126e-09
5.47784e-09
3.98805e-09
4.10285e-09
2.77473e-09
2.26874e-09
2.60056e-09
3.27444e-09
5.0495e-09
5.84493e-09
5.69548e-09
7.74882e-09
7.26069e-09
1.28178e-08
2.09576e-08
2.53267e-08
1.47513e-08
1.15123e-08
1.20168e-08
1.35716e-08
1.70603e-08
2.47179e-08
1.06271e-08
7.6843e-09
1.45703e-08
2.14519e-08
2.23739e-08
1.92627e-08
1.84354e-08
1.63118e-08
2.40557e-08
3.02736e-08
3.58885e-08
3.58309e-08
3.49899e-08
3.17776e-08
3.05284e-08
3.30861e-08
3.54726e-08
3.79602e-08
4.06748e-08
4.20668e-08
4.3555e-08
4.64185e-08
5.02319e-08
5.46835e-08
5.88719e-08
6.31566e-08
6.99975e-08
7.76246e-08
8.6371e-08
9.58463e-08
1.05921e-07
1.23845e-07
1.4634e-07
1.67659e-07
2.07677e-07
2.60081e-07
2.91286e-07
2.77563e-07
2.7097e-07
2.91171e-07
2.6385e-07
2.07716e-07
1.73101e-07
1.61094e-07
1.45642e-07
1.29842e-07
1.15602e-07
1.06248e-07
1.00269e-07
9.38867e-08
8.72834e-08
8.1404e-08
7.86928e-08
7.58309e-08
7.11868e-08
6.83072e-08
6.67951e-08
6.52058e-08
6.30237e-08
6.08654e-08
5.88022e-08
5.76105e-08
5.70666e-08
5.64848e-08
5.56974e-08
5.45656e-08
5.35379e-08
5.33602e-08
5.26091e-08
5.19806e-08
5.12923e-08
5.15464e-08
5.26693e-08
5.26672e-08
5.1207e-08
5.05519e-08
5.11749e-08
5.18944e-08
5.19603e-08
5.19245e-08
5.18617e-08
5.26413e-08
5.30807e-08
5.24978e-08
5.23503e-08
5.38205e-08
5.5239e-08
5.50916e-08
5.42312e-08
5.50497e-08
5.64805e-08
5.70529e-08
5.69109e-08
5.80637e-08
5.90897e-08
5.89814e-08
5.89685e-08
6.10722e-08
6.18661e-08
6.01558e-08
6.222e-08
6.41126e-08
6.45035e-08
6.50774e-08
6.49264e-08
6.54374e-08
6.58411e-08
6.76573e-08
6.89834e-08
6.87867e-08
6.93788e-08
7.02083e-08
7.17068e-08
7.23661e-08
7.17479e-08
7.09183e-08
7.21573e-08
7.52763e-08
7.68618e-08
7.59074e-08
7.43463e-08
7.63228e-08
7.8063e-08
7.63825e-08
7.76186e-08
7.96242e-08
7.97148e-08
7.99514e-08
7.97664e-08
8.10285e-08
8.2031e-08
8.25628e-08
8.3137e-08
8.35207e-08
8.1536e-08
8.1142e-08
8.43023e-08
8.70853e-08
8.69785e-08
8.58772e-08
8.69803e-08
8.79698e-08
8.7744e-08
8.86472e-08
8.93147e-08
9.02648e-08
9.06002e-08
9.04364e-08
9.13032e-08
9.37381e-08
9.65906e-08
9.66554e-08
9.434e-08
9.51377e-08
9.82162e-08
1.0041e-07
1.00883e-07
1.0104e-07
1.02615e-07
1.04326e-07
1.06003e-07
1.07188e-07
1.07346e-07
1.0852e-07
1.12265e-07
1.14803e-07
1.15524e-07
1.16367e-07
1.17627e-07
1.19611e-07
1.22526e-07
1.25385e-07
1.27814e-07
1.29173e-07
1.30449e-07
1.33099e-07
1.36366e-07
1.3893e-07
1.41737e-07
1.44399e-07
1.46684e-07
1.50626e-07
1.54546e-07
1.57319e-07
1.60178e-07
1.64759e-07
1.69284e-07
1.73386e-07
1.77949e-07
1.82649e-07
1.88118e-07
1.94259e-07
2.00231e-07
2.06771e-07
2.13785e-07
2.21536e-07
2.30084e-07
2.39271e-07
2.4954e-07
2.58747e-07
2.6985e-07
2.83905e-07
2.9829e-07
3.13249e-07
3.29646e-07
3.50289e-07
3.71946e-07
3.96439e-07
4.25496e-07
4.55875e-07
4.89522e-07
5.3178e-07
5.82037e-07
6.37764e-07
7.03502e-07
7.83459e-07
8.78558e-07
9.97044e-07
1.1585e-06
1.36114e-06
1.58933e-06
1.8498e-06
2.11328e-06
2.33035e-06
2.36427e-06
2.16383e-06
1.89312e-06
1.66645e-06
1.47962e-06
1.2974e-06
1.15814e-06
1.05192e-06
9.65462e-07
8.92096e-07
8.24549e-07
7.69607e-07
7.32078e-07
7.03316e-07
6.67399e-07
6.32568e-07
6.08104e-07
5.87598e-07
5.69047e-07
5.52882e-07
5.35168e-07
5.20255e-07
5.08768e-07
4.98056e-07
4.88917e-07
4.80031e-07
4.71936e-07
4.65058e-07
4.59057e-07
4.53781e-07
4.47322e-07
4.41532e-07
4.38276e-07
4.35707e-07
4.33674e-07
4.31652e-07
4.29428e-07
4.2758e-07
4.26039e-07
4.24522e-07
4.23761e-07
4.2356e-07
4.23326e-07
4.23238e-07
4.23127e-07
4.24598e-07
4.25734e-07
4.25418e-07
4.25294e-07
4.26318e-07
4.26042e-07
4.27527e-07
4.29007e-07
4.31867e-07
4.33221e-07
4.35815e-07
4.35075e-07
4.3838e-07
4.39205e-07
4.45391e-07
4.5586e-07
4.59839e-07
4.63655e-07
4.61556e-07
4.65725e-07
4.54075e-07
4.64706e-07
5.13698e-07
5.17502e-07
4.78605e-07
4.78158e-07
3.46228e-07
3.7578e-07
5.6051e-07
6.16608e-07
8.62349e-07
9.05799e-07
2.84088e-07
3.09532e-07
7.86754e-07
7.05788e-07
4.51663e-07
4.46046e-07
3.62129e-07
3.73404e-07
5.41378e-07
5.80115e-07
6.40032e-07
5.27961e-07
5.51939e-07
7.37465e-07
7.08206e-07
7.78964e-07
8.84621e-07
9.54005e-07
1.01316e-06
1.10682e-06
7.34641e-07
7.46751e-07
5.63543e-07
6.07858e-07
4.62911e-07
5.09434e-07
4.51919e-07
5.41424e-07
6.19638e-07
8.21397e-07
6.30168e-07
7.7712e-07
7.31818e-07
2.35851e-07
2.78672e-07
1.71507e-07
2.04526e-07
8.328e-08
8.01075e-08
3.49812e-08
3.52652e-08
8.23433e-08
8.29663e-08
8.44344e-08
9.07137e-08
1.15802e-07
1.50047e-07
2.17264e-07
2.64942e-07
3.00647e-07
3.60374e-07
4.39777e-07
5.41365e-07
6.68686e-07
8.3374e-07
1.04012e-06
1.26127e-06
1.44785e-06
1.58687e-06
1.65556e-06
1.61187e-06
1.49238e-06
1.35891e-06
1.24626e-06
1.16019e-06
1.09628e-06
1.04842e-06
1.01147e-06
9.79982e-07
9.50073e-07
9.20085e-07
8.90358e-07
8.62059e-07
8.37198e-07
8.16162e-07
7.99862e-07
7.88859e-07
7.82393e-07
7.78212e-07
7.73607e-07
7.66886e-07
7.57332e-07
7.45549e-07
7.33337e-07
7.22546e-07
7.14899e-07
7.114e-07
7.11276e-07
7.12171e-07
7.11617e-07
7.08528e-07
7.04029e-07
7.00704e-07
7.00405e-07
7.02338e-07
7.03312e-07
7.00433e-07
6.94198e-07
6.88364e-07
6.86264e-07
6.88532e-07
6.93488e-07
6.99902e-07
7.09753e-07
7.24725e-07
7.37949e-07
7.34912e-07
7.13668e-07
6.95112e-07
7.03991e-07
7.36867e-07
7.54984e-07
7.26704e-07
6.87691e-07
6.99864e-07
7.56827e-07
7.79021e-07
7.34362e-07
7.20731e-07
7.7558e-07
7.98953e-07
7.43776e-07
7.74511e-07
4.2562e-07
3.19764e-07
1.11881e-07
2.37123e-07
1.25285e-09
1.23663e-09
2.5048e-09
5.08906e-09
4.98302e-09
5.56461e-09
5.18285e-09
5.08947e-09
4.6149e-09
4.51537e-09
4.50921e-09
4.50855e-09
4.40815e-09
4.38292e-09
4.50479e-09
4.58956e-09
4.55757e-09
4.52237e-09
4.55086e-09
4.55341e-09
4.51245e-09
4.4341e-09
4.48213e-09
4.60868e-09
4.67643e-09
4.54337e-09
4.26771e-09
4.10043e-09
4.30621e-09
4.57189e-09
4.55289e-09
4.3908e-09
4.13985e-09
4.21119e-09
4.48531e-09
4.4983e-09
4.32699e-09
4.13562e-09
4.07781e-09
4.29011e-09
4.54366e-09
4.59853e-09
4.34657e-09
4.22944e-09
4.44173e-09
4.81527e-09
4.90638e-09
4.60331e-09
4.25076e-09
4.27155e-09
4.65323e-09
5.23826e-09
5.52299e-09
5.21868e-09
4.82671e-09
4.76405e-09
5.06902e-09
5.69166e-09
5.89589e-09
5.6438e-09
5.39232e-09
5.26913e-09
5.73494e-09
6.05147e-09
5.79264e-09
5.41107e-09
5.25016e-09
5.9016e-09
6.48739e-09
6.49583e-09
6.2179e-09
6.19379e-09
7.67205e-09
8.92876e-09
7.58452e-09
5.9484e-09
5.39218e-09
6.09405e-09
6.01739e-09
6.34009e-09
5.37749e-09
8.22036e-09
1.10334e-08
1.23416e-08
1.55653e-08
1.04875e-08
6.18792e-09
4.06548e-09
3.64641e-09
3.13012e-09
3.11655e-09
4.19857e-09
3.88065e-09
7.9468e-09
8.99313e-09
8.14655e-09
1.06774e-08
8.87534e-09
7.2362e-09
7.96789e-09
9.55085e-09
8.5408e-09
7.22989e-09
5.89069e-09
5.59271e-09
4.30326e-09
3.67737e-09
3.45319e-09
2.64028e-09
2.02468e-09
2.60764e-09
3.36995e-09
4.88902e-09
5.23908e-09
7.85488e-09
7.36353e-09
1.27109e-08
1.88154e-08
2.5986e-08
1.64922e-08
1.19735e-08
1.24987e-08
1.47665e-08
1.63637e-08
2.30668e-08
9.44439e-09
7.02129e-09
1.31029e-08
1.86411e-08
2.12401e-08
1.90867e-08
1.96352e-08
1.73993e-08
2.62682e-08
3.61044e-08
3.90817e-08
3.94897e-08
3.75463e-08
3.35776e-08
3.3109e-08
3.68849e-08
4.06327e-08
4.38684e-08
4.6654e-08
4.80828e-08
5.13536e-08
5.68851e-08
6.26671e-08
6.75775e-08
7.21114e-08
8.02165e-08
9.05305e-08
9.97013e-08
1.14013e-07
1.29561e-07
1.43407e-07
1.70504e-07
2.06666e-07
2.15978e-07
2.05169e-07
2.08097e-07
2.24176e-07
2.08632e-07
1.6935e-07
1.5237e-07
1.50864e-07
1.37935e-07
1.18773e-07
1.06491e-07
1.03483e-07
9.87445e-08
8.88303e-08
8.35005e-08
8.12194e-08
7.74483e-08
7.23523e-08
6.97036e-08
6.87744e-08
6.60285e-08
6.28241e-08
6.12038e-08
6.01838e-08
5.83765e-08
5.72329e-08
5.7027e-08
5.6312e-08
5.46289e-08
5.30553e-08
5.27737e-08
5.32877e-08
5.24322e-08
5.18127e-08
5.13797e-08
5.10258e-08
5.15414e-08
5.20628e-08
5.17085e-08
5.11197e-08
5.05083e-08
5.09741e-08
5.17346e-08
5.20703e-08
5.25731e-08
5.20198e-08
5.15725e-08
5.15249e-08
5.3099e-08
5.5871e-08
5.51496e-08
5.35159e-08
5.40255e-08
5.62453e-08
5.64842e-08
5.63336e-08
5.66389e-08
5.7846e-08
5.87529e-08
5.89428e-08
5.99529e-08
6.16155e-08
6.14564e-08
6.01004e-08
6.14235e-08
6.41956e-08
6.56798e-08
6.59448e-08
6.53753e-08
6.52294e-08
6.49438e-08
6.66805e-08
7.01228e-08
6.9588e-08
6.85907e-08
6.99381e-08
7.22006e-08
7.14019e-08
7.11487e-08
7.27136e-08
7.42065e-08
7.66909e-08
7.61073e-08
7.41789e-08
7.48721e-08
7.6468e-08
7.59956e-08
7.66179e-08
8.04802e-08
8.18235e-08
7.93346e-08
7.867e-08
7.96278e-08
8.00323e-08
8.20207e-08
8.36772e-08
8.27864e-08
8.20695e-08
8.15968e-08
8.36734e-08
8.59698e-08
8.57856e-08
8.57434e-08
8.5594e-08
8.67848e-08
8.87253e-08
8.92885e-08
8.90874e-08
8.88079e-08
8.92142e-08
8.93583e-08
9.00653e-08
9.13887e-08
9.39724e-08
9.72646e-08
9.7972e-08
9.56956e-08
9.52145e-08
9.72838e-08
9.93085e-08
1.00327e-07
1.00795e-07
1.0352e-07
1.06597e-07
1.05261e-07
1.05603e-07
1.07203e-07
1.08982e-07
1.12879e-07
1.15149e-07
1.14336e-07
1.1544e-07
1.17534e-07
1.19056e-07
1.21976e-07
1.25293e-07
1.27248e-07
1.28361e-07
1.30595e-07
1.33429e-07
1.35806e-07
1.38002e-07
1.40847e-07
1.43735e-07
1.46791e-07
1.50705e-07
1.53075e-07
1.55956e-07
1.59537e-07
1.64348e-07
1.68764e-07
1.71807e-07
1.76081e-07
1.81079e-07
1.87095e-07
1.929e-07
1.98099e-07
2.04446e-07
2.11907e-07
2.20151e-07
2.27437e-07
2.35618e-07
2.46257e-07
2.5551e-07
2.66725e-07
2.80692e-07
2.92731e-07
3.07521e-07
3.25013e-07
3.44004e-07
3.64432e-07
3.87659e-07
4.14327e-07
4.43314e-07
4.75174e-07
5.14237e-07
5.5904e-07
6.07626e-07
6.63901e-07
7.31239e-07
8.10033e-07
9.0527e-07
1.02425e-06
1.16056e-06
1.30167e-06
1.43557e-06
1.55937e-06
1.66678e-06
1.69271e-06
1.61676e-06
1.50894e-06
1.3921e-06
1.26855e-06
1.15068e-06
1.06579e-06
9.84141e-07
9.10918e-07
8.46623e-07
7.88314e-07
7.42759e-07
7.0905e-07
6.79166e-07
6.45888e-07
6.20292e-07
5.97746e-07
5.77755e-07
5.60228e-07
5.42681e-07
5.25314e-07
5.13677e-07
5.0303e-07
4.92495e-07
4.84344e-07
4.76199e-07
4.68159e-07
4.60929e-07
4.5535e-07
4.49887e-07
4.43406e-07
4.3919e-07
4.36676e-07
4.3381e-07
4.31383e-07
4.29143e-07
4.27237e-07
4.25242e-07
4.23143e-07
4.22915e-07
4.22748e-07
4.22566e-07
4.22755e-07
4.22653e-07
4.22788e-07
4.23538e-07
4.24248e-07
4.23166e-07
4.24629e-07
4.25048e-07
4.25995e-07
4.26836e-07
4.29315e-07
4.28775e-07
4.31696e-07
4.30843e-07
4.34922e-07
4.3824e-07
4.42487e-07
4.30907e-07
4.42e-07
4.23504e-07
4.47878e-07
4.93394e-07
5.16631e-07
5.40798e-07
4.71047e-07
4.75817e-07
3.3827e-07
3.72055e-07
5.73477e-07
6.3465e-07
8.73406e-07
8.94863e-07
2.56456e-07
2.81684e-07
8.67074e-07
7.47399e-07
4.76444e-07
4.36837e-07
3.42157e-07
3.50951e-07
5.0113e-07
4.79663e-07
5.11337e-07
4.44138e-07
4.76681e-07
5.7818e-07
6.45237e-07
6.60907e-07
8.69026e-07
6.96853e-07
8.22981e-07
8.14776e-07
7.68248e-07
7.66073e-07
5.90399e-07
6.09958e-07
4.7032e-07
4.9451e-07
4.57673e-07
5.02225e-07
5.98202e-07
6.96524e-07
5.25788e-07
6.48427e-07
1.94843e-07
2.67542e-07
9.11613e-07
1.62503e-07
1.90971e-07
7.75995e-08
7.52133e-08
3.28004e-08
3.24966e-08
7.4211e-08
7.08405e-08
7.59769e-08
8.70696e-08
1.13967e-07
1.27347e-07
2.17974e-07
2.48861e-07
2.30698e-07
2.44353e-07
2.73367e-07
3.17991e-07
3.76455e-07
4.49584e-07
5.39194e-07
6.462e-07
7.70398e-07
9.05874e-07
1.03554e-06
1.14747e-06
1.23932e-06
1.29224e-06
1.2929e-06
1.25268e-06
1.1973e-06
1.14452e-06
1.1003e-06
1.06451e-06
1.03415e-06
1.006e-06
9.75992e-07
9.42556e-07
9.0747e-07
8.72359e-07
8.4081e-07
8.1602e-07
7.96862e-07
7.84039e-07
7.77504e-07
7.75295e-07
7.74383e-07
7.71724e-07
7.65598e-07
7.56093e-07
7.44149e-07
7.32312e-07
7.22752e-07
7.16728e-07
7.14693e-07
7.14899e-07
7.14588e-07
7.11653e-07
7.06265e-07
7.01191e-07
6.9977e-07
7.02946e-07
7.07797e-07
7.09035e-07
7.03631e-07
6.94454e-07
6.87699e-07
6.87442e-07
6.93675e-07
7.03928e-07
7.14836e-07
7.25326e-07
7.3403e-07
7.34125e-07
7.20448e-07
7.01021e-07
6.98941e-07
7.20788e-07
7.43739e-07
7.31673e-07
6.93087e-07
6.87351e-07
7.33564e-07
7.71431e-07
7.53695e-07
7.38344e-07
7.80812e-07
7.96396e-07
7.55186e-07
7.16761e-07
7.4721e-07
4.1472e-07
3.22953e-07
1.12896e-07
2.34471e-07
1.24345e-09
1.23167e-09
2.48174e-09
5.01658e-09
4.93157e-09
5.52031e-09
5.08052e-09
4.97439e-09
4.50023e-09
4.37147e-09
4.35708e-09
4.36265e-09
4.33593e-09
4.41582e-09
4.6292e-09
4.7657e-09
4.69956e-09
4.57688e-09
4.56619e-09
4.60228e-09
4.64191e-09
4.64205e-09
4.58442e-09
4.55981e-09
4.49176e-09
4.38738e-09
4.27063e-09
4.27705e-09
4.41957e-09
4.56461e-09
4.53218e-09
4.34685e-09
4.09785e-09
4.14071e-09
4.41553e-09
4.59674e-09
4.47638e-09
4.17934e-09
3.91884e-09
3.93046e-09
4.20127e-09
4.47547e-09
4.37239e-09
4.23217e-09
4.32971e-09
4.59616e-09
4.83549e-09
4.68978e-09
4.42651e-09
4.47308e-09
4.825e-09
5.17983e-09
5.43799e-09
5.31658e-09
4.93823e-09
4.65143e-09
4.9257e-09
5.51742e-09
5.71145e-09
5.48501e-09
5.30231e-09
5.38722e-09
5.87014e-09
5.89976e-09
5.51256e-09
5.21512e-09
5.36415e-09
5.54591e-09
5.45976e-09
5.62932e-09
5.80638e-09
5.61398e-09
6.0332e-09
7.11057e-09
7.00962e-09
6.1582e-09
4.97124e-09
5.05185e-09
5.05486e-09
5.82189e-09
5.92912e-09
5.26138e-09
5.18904e-09
4.42557e-09
5.64121e-09
6.08173e-09
4.52259e-09
3.72848e-09
3.84751e-09
2.58401e-09
1.56925e-09
1.97252e-09
2.30337e-09
2.68767e-09
3.87962e-09
3.58694e-09
7.78226e-09
9.00607e-09
8.59922e-09
1.17738e-08
9.25082e-09
7.78588e-09
9.14939e-09
1.08515e-08
1.07211e-08
8.13192e-09
9.1291e-09
7.75062e-09
5.81125e-09
3.37763e-09
3.57723e-09
2.4514e-09
1.98048e-09
2.56062e-09
3.34574e-09
4.88625e-09
5.1319e-09
7.60931e-09
7.27194e-09
1.27968e-08
2.01916e-08
3.06492e-08
1.87054e-08
1.2836e-08
1.30933e-08
1.53188e-08
1.56065e-08
2.09006e-08
8.42745e-09
6.42275e-09
1.19637e-08
1.68579e-08
2.0947e-08
1.80548e-08
3.26246e-08
2.16482e-08
1.8185e-08
2.72215e-08
3.65007e-08
4.21843e-08
4.21923e-08
3.84236e-08
3.80831e-08
4.26657e-08
4.71725e-08
5.10824e-08
5.63853e-08
6.01012e-08
6.29504e-08
6.77065e-08
7.46431e-08
8.46577e-08
9.46741e-08
1.02679e-07
1.1246e-07
1.25567e-07
1.43337e-07
1.62739e-07
1.67317e-07
1.65353e-07
1.71277e-07
1.77364e-07
1.66242e-07
1.44945e-07
1.38784e-07
1.35681e-07
1.22152e-07
1.07976e-07
1.00459e-07
9.89146e-08
9.38889e-08
8.47845e-08
8.00057e-08
7.85882e-08
7.46173e-08
6.995e-08
6.84995e-08
6.7429e-08
6.42029e-08
6.08842e-08
6.01387e-08
5.93031e-08
5.74467e-08
5.65125e-08
5.65389e-08
5.55552e-08
5.30302e-08
5.2094e-08
5.28658e-08
5.27608e-08
5.18096e-08
5.1554e-08
5.19247e-08
5.10702e-08
4.9917e-08
5.04741e-08
5.15899e-08
5.17281e-08
5.07715e-08
5.03999e-08
5.10851e-08
5.17868e-08
5.25126e-08
5.1652e-08
5.11607e-08
5.20165e-08
5.36714e-08
5.52817e-08
5.41954e-08
5.31934e-08
5.43052e-08
5.62073e-08
5.6656e-08
5.68415e-08
5.69534e-08
5.68376e-08
5.78264e-08
5.94383e-08
6.18463e-08
6.13684e-08
5.99039e-08
6.10021e-08
6.18384e-08
6.4051e-08
6.50239e-08
6.57396e-08
6.67806e-08
6.57979e-08
6.52941e-08
6.62345e-08
6.86172e-08
7.0547e-08
7.01367e-08
6.97964e-08
7.11866e-08
7.22047e-08
7.21564e-08
7.36304e-08
7.52904e-08
7.51688e-08
7.37239e-08
7.37988e-08
7.69978e-08
7.75438e-08
7.53538e-08
7.85354e-08
8.23809e-08
8.04347e-08
7.76673e-08
7.83322e-08