/*--------------------------------*- C++ -*----------------------------------*\
| =========                 |                                                 |
| \\      /  F ield         | OpenFOAM: The Open Source CFD Toolbox           |
|  \\    /   O peration     | Version:  v2006                                 |
|   \\  /    A nd           | Website:  www.openfoam.com                      |
|    \\/     M anipulation  |                                                 |
\*---------------------------------------------------------------------------*/
FoamFile
{
    version     2.0;
    format      ascii;
    class       volScalarField;
    location    "3.3";
    object      omega;
}
// * * * * * * * * * * * * * * * * * * * * * * * * * * * * * * * * * * * * * //

dimensions      [0 0 -1 0 0 0 0];


internalField   nonuniform List<scalar> 
33000
(
0.801775
0.801856
0.80196
0.802101
0.80229
0.802538
0.802846
0.803211
0.803622
0.804066
0.804526
0.804979
0.805399
0.805773
0.806087
0.80635
0.806572
0.806755
0.8069
0.807021
0.807118
0.807182
0.807205
0.807195
0.807195
0.807243
0.807328
0.8074
0.8074
0.807372
0.807378
0.807421
0.807447
0.807454
0.807485
0.807563
0.807632
0.807652
0.807633
0.807621
0.807669
0.807757
0.807815
0.807806
0.807765
0.807764
0.80783
0.807925
0.807964
0.807941
0.807917
0.80789
0.807874
0.807881
0.807907
0.807923
0.807903
0.807873
0.807861
0.807866
0.807854
0.80782
0.80777
0.807758
0.807787
0.80781
0.807807
0.807766
0.807734
0.807719
0.807701
0.807668
0.807624
0.807568
0.807509
0.807433
0.807335
0.807196
0.806984
0.806673
0.806302
0.805943
0.805681
0.805522
0.805373
0.805354
0.805364
0.805343
0.805301
0.80529
0.805273
0.805253
0.805241
0.805208
0.805155
0.805089
0.805006
0.804898
0.804754
0.804562
0.80434
0.804143
0.804019
0.803962
0.803878
0.803832
0.803845
0.803863
0.803845
0.803809
0.803785
0.803757
0.803734
0.80371
0.803679
0.803624
0.803564
0.803494
0.803437
0.803415
0.803401
0.803418
0.803413
0.80341
0.803425
0.803436
0.803441
0.803449
0.803455
0.803459
0.803462
0.803467
0.803471
0.803473
0.803474
0.803474
0.803475
0.803475
0.803474
0.803472
0.803472
0.80347
0.803468
0.803464
0.80346
0.803455
0.80345
0.803446
0.803441
0.803435
0.80343
0.803424
0.803417
0.80341
0.803404
0.803399
0.803393
0.803386
0.803379
0.803374
0.803368
0.803362
0.803356
0.803351
0.803346
0.80334
0.803334
0.803328
0.803323
0.803318
0.803312
0.803306
0.803302
0.803297
0.803293
0.803288
0.803284
0.803281
0.803278
0.803275
0.803272
0.80327
0.803267
0.803266
0.803264
0.803263
0.803261
0.80326
0.80326
0.803258
0.803257
0.803255
0.803254
0.803253
0.803251
0.803249
0.803246
0.803243
0.80324
0.803236
0.803232
0.803227
0.803222
0.803217
0.803211
0.803205
0.803199
0.803192
0.803186
0.803178
0.80317
0.803163
0.803155
0.803146
0.803137
0.803128
0.803119
0.80311
0.8031
0.80309
0.80308
0.803069
0.803059
0.803049
0.803037
0.803026
0.803014
0.803003
0.802991
0.802979
0.802967
0.802955
0.802942
0.802929
0.802916
0.802904
0.802891
0.802877
0.802864
0.80285
0.802837
0.802823
0.802809
0.802795
0.802781
0.802767
0.802753
0.802738
0.802724
0.80271
0.802695
0.802681
0.802668
0.802654
0.802641
0.802628
0.802615
0.802602
0.80259
0.802578
0.802565
0.802553
0.802542
0.802531
0.80252
0.802509
0.802498
0.802488
0.802478
0.802468
0.802458
0.802449
0.802441
0.802432
0.802424
0.802416
0.802408
0.802401
0.802394
0.802387
0.802381
0.802375
0.802369
0.802364
0.802359
0.802354
0.802349
0.802344
0.802339
0.802333
0.802328
0.802322
0.802316
0.80231
0.802304
0.802297
0.802291
0.802284
0.802278
0.802271
0.802264
0.802257
0.80225
0.802242
0.802235
0.802227
0.80222
0.802212
0.802204
0.802196
0.802188
0.802179
0.802171
0.802162
0.802154
0.802145
0.802137
0.802128
0.80212
0.802111
0.802103
0.802094
0.802086
0.802077
0.802069
0.80206
0.802051
0.802042
0.802034
0.802025
0.802016
0.802007
0.801998
0.801989
0.801979
0.80197
0.801961
0.801951
0.801942
0.801932
0.801923
0.801913
0.801903
0.801893
0.801883
0.801873
0.801863
0.801853
0.801843
0.801833
0.801823
0.801812
0.801802
0.801792
0.801781
0.801771
0.801761
0.80175
0.80174
0.80173
0.801719
0.801709
0.801698
0.801688
0.801678
0.801667
0.801657
0.801647
0.801637
0.801627
0.801616
0.801606
0.801596
0.801586
0.801577
0.801567
0.801557
0.801547
0.801538
0.801528
0.801519
0.801509
0.8015
0.801491
0.801482
0.801473
0.801464
0.801455
0.801446
0.801438
0.801429
0.801421
0.801412
0.801404
0.801396
0.801388
0.80138
0.801372
0.801365
0.801357
0.801349
0.801342
0.801335
0.801328
0.801321
0.801314
0.801307
0.8013
0.801293
0.801287
0.80128
0.801274
0.801268
0.801262
0.801256
0.80125
0.801244
0.801238
0.801232
0.801227
0.801221
0.801216
0.801211
0.801205
0.801199
0.801194
0.80119
0.801184
0.801182
0.801177
0.801182
0.801177
0.801176
0.801172
0.801169
0.801166
0.801162
0.801158
0.801155
0.801151
0.801147
0.801144
0.80114
0.801136
0.801133
0.801129
0.801126
0.801122
0.801121
0.801118
0.801115
0.801112
0.801109
0.801106
0.801103
0.801101
0.801098
0.801095
0.801092
0.80109
0.801086
0.801084
0.801082
0.801074
0.801072
0.801073
0.801064
0.80108
0.801076
0.801134
0.801132
0.801149
0.801155
0.80116
0.801164
0.801166
0.801167
0.801168
0.801168
0.801168
0.801167
0.801167
0.801166
0.801165
0.801164
0.801163
0.801162
0.80116
0.801159
0.801157
0.801156
0.801154
0.801153
0.801151
0.801149
0.801148
0.801146
0.801144
0.801142
0.80114
0.801139
0.801137
0.801135
0.801133
0.80113
0.801128
0.801126
0.801124
0.801122
0.80112
0.801118
0.801116
0.801114
0.801112
0.80111
0.801108
0.801106
0.801104
0.801102
0.8011
0.801098
0.801097
0.801095
0.801093
0.801091
0.801089
0.801087
0.801086
0.801084
0.801082
0.80108
0.801079
0.801077
0.801075
0.801073
0.801072
0.80107
0.801068
0.801067
0.801065
0.801063
0.801062
0.80106
0.801058
0.801057
0.801055
0.801054
0.80105
0.801059
0.801037
0.00885267
0.0112043
0.0143074
0.0193951
0.0266623
0.0355577
0.0463522
0.058405
0.0711216
0.0836577
0.0958478
0.107527
0.118075
0.126736
0.133397
0.138643
0.143122
0.14689
0.149968
0.152608
0.154644
0.155986
0.156679
0.156601
0.15705
0.158619
0.160933
0.162897
0.163239
0.163136
0.162902
0.162904
0.16213
0.162169
0.164745
0.167384
0.167066
0.163854
0.159753
0.159051
0.161947
0.163888
0.163293
0.160011
0.157086
0.157694
0.159653
0.159598
0.156884
0.153689
0.151686
0.150269
0.148641
0.146941
0.144745
0.142118
0.139799
0.137842
0.136208
0.134397
0.132448
0.13172
0.132178
0.134621
0.138127
0.14078
0.143599
0.146957
0.152151
0.157827
0.164351
0.171793
0.182188
0.199767
0.233681
0.289114
0.363669
0.480373
0.57283
0.659039
0.802586
0.896563
0.904626
0.814274
0.576135
0.376323
0.212859
0.11242
0.0717019
0.0545207
0.0478416
0.0453074
0.0451422
0.046177
0.0525052
0.0619292
0.0826256
0.105188
0.154602
0.205715
0.208893
0.17535
0.119532
0.0765981
0.0529187
0.040376
0.0369699
0.03434
0.0326809
0.0319537
0.0313891
0.0311328
0.0311964
0.03273
0.038071
0.0455294
0.0707219
0.0872877
0.0757133
0.0528439
0.0393011
0.0322292
0.0299612
0.0289445
0.0289789
0.0280202
0.0269943
0.0265797
0.0270105
0.0272434
0.0268844
0.0267717
0.0272571
0.0278448
0.0278677
0.0274185
0.0276051
0.0282552
0.0285941
0.0282309
0.0284275
0.0290605
0.0294023
0.0294328
0.0298145
0.0302241
0.0301759
0.0298399
0.0301954
0.0308404
0.0312973
0.0317481
0.0313336
0.0304491
0.0306798
0.0317633
0.0323153
0.0317665
0.0311414
0.0316172
0.0325152
0.0325326
0.0317936
0.03186
0.0328198
0.0331191
0.0324872
0.032257
0.0328582
0.0335936
0.0332941
0.0323537
0.0324354
0.0333087
0.0334573
0.0329116
0.0324389
0.032501
0.0326743
0.0326867
0.0326097
0.0321097
0.031851
0.0320506
0.0320272
0.0314669
0.0307055
0.0308485
0.0311265
0.0308234
0.0301359
0.0299574
0.0299647
0.0296541
0.0292305
0.0287596
0.028685
0.0285086
0.0279268
0.0272035
0.0271409
0.0271704
0.0270449
0.0263934
0.0257797
0.0251601
0.0250289
0.0252763
0.0248018
0.024027
0.0235404
0.0237183
0.0233084
0.0228702
0.0222906
0.0216881
0.0219058
0.0216243
0.0212997
0.0210754
0.0201862
0.0197041
0.0198289
0.0197821
0.0193755
0.019007
0.0187944
0.0183501
0.0178426
0.0179479
0.0178625
0.0175419
0.0172807
0.0168845
0.0164985
0.0167195
0.0166601
0.0163883
0.0160416
0.016043
0.0158767
0.0157064
0.0155498
0.0154742
0.0153247
0.0151665
0.0153791
0.0151266
0.0148149
0.014876
0.0148394
0.0147478
0.0147038
0.0145884
0.014618
0.0145324
0.0143153
0.0142835
0.0143944
0.0142988
0.0141649
0.0140093
0.0141169
0.0141054
0.0140413
0.0139952
0.013941
0.0137696
0.0136948
0.0137337
0.0137492
0.0137228
0.0136666
0.0136005
0.0135496
0.0134658
0.0134552
0.0134171
0.0133728
0.0133298
0.0133358
0.0133056
0.0132024
0.0131347
0.0130745
0.01304
0.0130415
0.0130082
0.0129489
0.0128966
0.0128102
0.0127612
0.0127662
0.0127319
0.0126842
0.0126466
0.0125964
0.0125564
0.012529
0.0124886
0.0124492
0.0124073
0.0123597
0.0123274
0.0122864
0.0122386
0.0121835
0.0121372
0.012114
0.0120671
0.0120201
0.0119722
0.0119292
0.0118895
0.0118468
0.0118024
0.0117576
0.0117156
0.0116762
0.0116322
0.0115873
0.0115407
0.011497
0.0114647
0.0114233
0.011379
0.0113341
0.0113059
0.0112711
0.0112345
0.0111988
0.0111619
0.0111249
0.0110902
0.0110563
0.011024
0.0109939
0.0109656
0.0109383
0.0109125
0.010891
0.0108728
0.0108559
0.0108403
0.0108261
0.0108138
0.0108036
0.010793
0.0107822
0.0107714
0.0107617
0.0107526
0.0107434
0.0107351
0.0107273
0.0107195
0.0107115
0.0107035
0.0106962
0.0106896
0.010683
0.0106762
0.0106711
0.0106675
0.0106647
0.0106624
0.01066
0.0106569
0.0106535
0.0106497
0.0106452
0.0106409
0.0106374
0.0106348
0.0106326
0.0106307
0.010629
0.0106272
0.0106255
0.0106232
0.0106203
0.0106175
0.0106156
0.010615
0.0106155
0.0106163
0.0106169
0.0106167
0.0106159
0.0106146
0.0106134
0.0106129
0.0106135
0.0106153
0.0106173
0.0106195
0.0106212
0.0106216
0.0106208
0.0106193
0.0106185
0.0106188
0.0106201
0.0106214
0.010623
0.0106243
0.0106259
0.0106271
0.0106302
0.0106352
0.01064
0.0106448
0.0106461
0.0106489
0.0106484
0.0106527
0.0106626
0.0106658
0.0106637
0.010666
0.0106418
0.010653
0.0107089
0.0107174
0.0107764
0.0108072
0.0107967
0.010789
0.0107706
0.0111106
0.0110925
0.0107208
0.0107283
0.0107424
0.0107444
0.0107503
0.0107483
0.0107459
0.010728
0.0107273
0.0107565
0.0107634
0.01078
0.0107913
0.0108268
0.0108274
0.0107694
0.010757
0.0107405
0.0107595
0.0107484
0.0107612
0.0107324
0.0107654
0.0107888
0.0108072
0.0108179
0.0108014
0.0107893
0.0106451
0.0106854
0.0107013
0.0107414
0.0107382
0.0107355
0.0109973
0.0125
0.0134974
0.0205417
0.0199471
0.0170162
0.0146566
0.0133154
0.0124803
0.0119542
0.0116256
0.011408
0.0112443
0.0111209
0.0110319
0.0109631
0.0109187
0.0108982
0.0108873
0.0108838
0.01088
0.0108715
0.0108602
0.0108505
0.010845
0.010844
0.0108471
0.0108522
0.0108577
0.0108618
0.0108636
0.0108621
0.0108572
0.0108486
0.0108366
0.0108217
0.0108079
0.0108034
0.0108012
0.0107994
0.010798
0.0107971
0.0107965
0.0107963
0.0107964
0.0107967
0.0107975
0.0107986
0.0107998
0.0108021
0.0108049
0.0108038
0.0108002
0.0107983
0.0107972
0.0107963
0.0107959
0.0107967
0.0107987
0.0108021
0.0108074
0.010799
0.0107967
0.0107977
0.0108048
0.01085
0.0108889
0.0108642
0.0108113
0.0108087
0.0108539
0.0109003
0.0108631
0.0108001
0.0108005
0.0108118
0.0108111
0.0107965
0.0107991
0.0108088
0.0108501
0.0107947
0.0108347
0.0107597
0.0105218
0.00348072
0.0033231
0.00325432
0.00372781
0.00465563
0.00585478
0.00743615
0.00927955
0.0112792
0.0132627
0.0151764
0.016967
0.0185159
0.0197185
0.0206142
0.0213667
0.0220648
0.0226705
0.0231935
0.0237033
0.0241445
0.0244956
0.0246508
0.0246422
0.0247929
0.0253022
0.0260972
0.0267637
0.0268214
0.0266891
0.0267157
0.0269585
0.0271664
0.0272046
0.0275265
0.0282634
0.028682
0.0286215
0.0280451
0.0274483
0.0275067
0.0278085
0.0279243
0.0274779
0.0266757
0.0262898
0.0265018
0.0268203
0.0267289
0.0261077
0.0252968
0.0245215
0.0239764
0.0238189
0.0236863
0.0233322
0.022743
0.0220905
0.021698
0.021401
0.0210861
0.0208517
0.0207716
0.0213548
0.0224427
0.0235152
0.0245166
0.025548
0.0272693
0.0295499
0.0318459
0.0341565
0.0369332
0.0416628
0.0504153
0.0658021
0.0901242
0.130643
0.19127
0.247182
0.317261
0.370107
0.393107
0.41007
0.384543
0.331793
0.261449
0.164798
0.0824418
0.0384449
0.0170682
0.00915695
0.00564691
0.00427565
0.00400587
0.00467788
0.0065972
0.00922138
0.0150734
0.0260893
0.0306701
0.0295505
0.0246917
0.0180646
0.0128327
0.00902015
0.00637484
0.00480884
0.00361045
0.00292769
0.00271652
0.00249644
0.00242256
0.00230588
0.00232045
0.00250146
0.00360484
0.00541009
0.00537292
0.00495755
0.00438519
0.00362208
0.00311666
0.00291457
0.00254673
0.00225354
0.00203125
0.00197052
0.00193724
0.00192424
0.00186712
0.00183943
0.00185079
0.00188174
0.00188615
0.00187098
0.0018879
0.00191975
0.00193109
0.00191392
0.00193452
0.00197045
0.0019835
0.00199217
0.00202475
0.00204777
0.0020402
0.00202812
0.00206328
0.00210232
0.00212304
0.00214757
0.0021268
0.00208486
0.00210568
0.00217191
0.00219816
0.00216188
0.00213198
0.00216915
0.00222681
0.00222839
0.00218278
0.00218756
0.00225305
0.00227675
0.00223795
0.0022186
0.00225694
0.00231139
0.00229213
0.00222807
0.00223499
0.00229607
0.00229766
0.00225937
0.0022377
0.00223956
0.00224071
0.00223553
0.00223202
0.00220614
0.0021922
0.00220002
0.00218976
0.00214922
0.00210082
0.00210522
0.00211826
0.00209954
0.00206103
0.00204657
0.00204019
0.0020121
0.00197769
0.00195108
0.00195214
0.00193768
0.0018952
0.00185071
0.00184241
0.00184113
0.00183363
0.00178922
0.00175202
0.00172325
0.00171749
0.00172086
0.00168571
0.0016472
0.00162777
0.00163068
0.00160158
0.00157761
0.00155226
0.0015229
0.00152563
0.00151081
0.0014957
0.00148175
0.00144342
0.00142618
0.00142238
0.00141666
0.00140136
0.00138379
0.00137383
0.0013566
0.00133807
0.00133649
0.00133248
0.00132017
0.00130841
0.00129514
0.00128151
0.00128428
0.00128267
0.00127796
0.00126675
0.00126229
0.0012542
0.00124937
0.0012462
0.00124214
0.00123643
0.00123381
0.00123952
0.00123148
0.00122216
0.00122316
0.00122242
0.00121927
0.00121845
0.00121517
0.00121454
0.00121222
0.00120867
0.00120908
0.00120945
0.00120441
0.0012016
0.00119953
0.0012019
0.00120113
0.00119978
0.00119785
0.00119586
0.00119139
0.00118999
0.00119089
0.00119085
0.00118946
0.00118746
0.00118624
0.00118568
0.00118287
0.00118174
0.00118039
0.0011794
0.00117836
0.00117822
0.00117753
0.00117418
0.00117257
0.00117138
0.00117034
0.00116964
0.00116854
0.00116685
0.00116551
0.00116351
0.0011622
0.00116186
0.00116072
0.00115932
0.00115833
0.00115719
0.00115609
0.00115495
0.00115374
0.00115257
0.00115133
0.00115011
0.00114902
0.00114758
0.00114623
0.00114486
0.00114355
0.00114263
0.00114112
0.00113977
0.00113843
0.00113717
0.00113592
0.0011346
0.0011333
0.00113204
0.00113084
0.00112961
0.00112831
0.00112707
0.00112588
0.00112474
0.00112377
0.00112257
0.00112144
0.00112036
0.00111951
0.00111859
0.00111767
0.00111678
0.00111592
0.00111512
0.00111439
0.00111371
0.0011131
0.00111255
0.00111206
0.00111162
0.00111126
0.00111101
0.00111082
0.00111066
0.00111055
0.0011105
0.00111052
0.00111058
0.00111063
0.00111072
0.00111083
0.00111095
0.00111108
0.00111122
0.00111136
0.00111151
0.00111165
0.00111179
0.00111193
0.00111208
0.00111224
0.00111241
0.00111259
0.00111277
0.00111294
0.00111311
0.00111328
0.00111344
0.00111359
0.00111372
0.00111385
0.00111397
0.00111407
0.00111418
0.0011143
0.00111441
0.00111451
0.0011146
0.00111468
0.00111477
0.00111487
0.00111497
0.00111505
0.00111515
0.00111525
0.00111533
0.00111541
0.00111548
0.00111555
0.00111562
0.00111571
0.00111579
0.0011159
0.00111601
0.0011161
0.00111619
0.00111627
0.00111636
0.00111645
0.00111655
0.00111663
0.00111673
0.00111679
0.00111686
0.00111688
0.00111695
0.00111701
0.00111709
0.00111721
0.00111734
0.00111747
0.00111755
0.00111773
0.00111774
0.00111757
0.00111768
0.00111811
0.0011184
0.00111973
0.00111938
0.00111776
0.00111724
0.00111685
0.00111777
0.00111919
0.00111994
0.00111959
0.00111974
0.0011212
0.00112053
0.00112204
0.001121
0.00112023
0.00112035
0.00112048
0.00112085
0.00112103
0.00112084
0.00112107
0.00112092
0.00112088
0.00112146
0.0011217
0.00112199
0.00112254
0.0011231
0.00112361
0.00112291
0.00112343
0.00112332
0.00112426
0.00112392
0.0011239
0.00112311
0.0011236
0.00112473
0.00112569
0.0011285
0.00112868
0.00113378
0.00113165
0.00113363
0.00113618
0.00116103
0.00116168
0.0011622
0.00124508
0.00129094
0.00126614
0.00135356
0.00127564
0.00122445
0.00119387
0.00117429
0.00116208
0.00115448
0.00114947
0.00114545
0.00114235
0.00114006
0.00113838
0.00113733
0.00113701
0.00113679
0.00113634
0.00113563
0.00113478
0.001134
0.00113337
0.00113301
0.00113293
0.00113309
0.00113337
0.00113364
0.00113373
0.00113359
0.00113324
0.00113275
0.00113223
0.00113175
0.00113142
0.00113126
0.00113126
0.00113143
0.00113153
0.00113144
0.00113118
0.00113083
0.00113051
0.00113035
0.00113043
0.00113072
0.00113108
0.00113137
0.00113149
0.00113152
0.0011316
0.00113178
0.00113205
0.00113228
0.00113222
0.00113191
0.00113158
0.00113142
0.00113159
0.00113217
0.00113291
0.00113351
0.00113445
0.00113518
0.00113522
0.00113518
0.00113456
0.00113442
0.00113559
0.00113654
0.00113623
0.00113438
0.00113412
0.00113651
0.00113768
0.00113586
0.00113467
0.00113753
0.00113867
0.00113625
0.00113589
0.00113715
0.00113153
0.00112832
0.00112582
0.00321382
0.00285449
0.00249963
0.00251785
0.00276227
0.00305434
0.0034731
0.00394897
0.00444222
0.00489209
0.00529347
0.00564908
0.00594117
0.00613571
0.00623719
0.00629724
0.00634774
0.00638284
0.00640155
0.00642434
0.00645449
0.00647716
0.00646293
0.0064376
0.00646169
0.00656686
0.00671705
0.00680099
0.00674532
0.00667538
0.0066963
0.0067821
0.00686971
0.00683588
0.00676986
0.00683046
0.00697781
0.00711359
0.00712559
0.00697266
0.00680625
0.00673606
0.00674175
0.0066837
0.00651711
0.00635548
0.00630546
0.00634547
0.00636064
0.00623996
0.00602175
0.00579777
0.00566103
0.00564811
0.00567117
0.00562696
0.00548047
0.00529733
0.00518327
0.00511495
0.00504857
0.00497881
0.00492723
0.00499811
0.00516995
0.00537392
0.00557896
0.00582287
0.00619698
0.00667825
0.00722438
0.00780766
0.00840337
0.00933057
0.0110893
0.0141111
0.0195243
0.0275397
0.0421787
0.0605268
0.0916542
0.128266
0.154037
0.175722
0.17928
0.169197
0.1578
0.146609
0.128887
0.0976026
0.0642691
0.0364221
0.0206964
0.0105583
0.00566971
0.0033107
0.00230597
0.00203712
0.00228927
0.00307622
0.00359278
0.0039227
0.0040884
0.00374984
0.00328856
0.00293891
0.00265329
0.00251054
0.00264872
0.0031246
0.00291968
0.00245561
0.00197193
0.00173362
0.00150845
0.00140833
0.00130816
0.00126781
0.00125056
0.00129804
0.00135164
0.00135268
0.00135716
0.0013896
0.00137887
0.00151936
0.00166865
0.00155069
0.00142145
0.00131266
0.00125745
0.00120232
0.00117572
0.00114538
0.00113319
0.00113115
0.00112694
0.00112636
0.00112801
0.00112977
0.00112975
0.00112781
0.00112618
0.00112728
0.00112943
0.00113053
0.00113129
0.00113151
0.00113154
0.00113209
0.00113352
0.00113431
0.00113457
0.00113652
0.00113875
0.0011391
0.00113783
0.00113718
0.00113888
0.00114093
0.00114145
0.0011424
0.0011438
0.00114532
0.00114591
0.00114513
0.00114556
0.00114678
0.00114768
0.0011477
0.00114774
0.0011474
0.00114629
0.00114708
0.00114774
0.00114708
0.00114531
0.0011438
0.0011439
0.00114387
0.00114324
0.00114134
0.00114012
0.00113908
0.00113684
0.00113449
0.00113291
0.00113255
0.00113144
0.00112875
0.00112645
0.0011247
0.00112356
0.00112112
0.00111694
0.00111345
0.00111294
0.00111228
0.00111013
0.00110636
0.0011034
0.00110166
0.00109985
0.00109794
0.00109595
0.00109379
0.00109019
0.00108617
0.00108507
0.00108445
0.00108214
0.00107915
0.00107729
0.00107566
0.0010736
0.00107074
0.00106907
0.00106766
0.00106555
0.00106326
0.00106182
0.00106163
0.00105956
0.00105673
0.00105483
0.00105372
0.00105336
0.0010525
0.00105156
0.00104997
0.00104797
0.00104747
0.00104741
0.00104622
0.00104451
0.00104448
0.00104426
0.00104351
0.00104294
0.00104189
0.00104145
0.0010417
0.00104146
0.001041
0.00104084
0.00104033
0.00103961
0.00103945
0.00103959
0.00103959
0.0010394
0.00103925
0.00103875
0.00103829
0.00103841
0.00103841
0.00103833
0.0010379
0.00103751
0.00103734
0.00103711
0.001037
0.00103675
0.00103632
0.00103609
0.00103593
0.00103578
0.00103547
0.00103523
0.00103493
0.0010346
0.00103416
0.00103359
0.00103327
0.0010333
0.00103312
0.00103262
0.00103215
0.00103182
0.00103156
0.0010311
0.00103059
0.00103047
0.00103015
0.00102975
0.00102936
0.00102877
0.00102833
0.00102814
0.00102781
0.00102741
0.00102707
0.00102665
0.00102621
0.00102587
0.00102558
0.00102523
0.00102485
0.0010245
0.00102416
0.00102378
0.0010234
0.00102303
0.00102262
0.00102227
0.00102191
0.00102153
0.00102111
0.00102073
0.00102039
0.00102004
0.00101967
0.0010193
0.00101894
0.00101862
0.00101828
0.00101793
0.00101758
0.00101725
0.00101693
0.00101659
0.00101629
0.00101598
0.00101568
0.00101541
0.00101515
0.00101489
0.00101467
0.00101446
0.00101426
0.00101407
0.00101389
0.00101374
0.00101358
0.00101343
0.00101331
0.00101322
0.00101317
0.00101313
0.00101312
0.00101311
0.00101314
0.00101319
0.00101325
0.00101332
0.00101339
0.00101344
0.00101352
0.0010136
0.00101368
0.00101378
0.00101387
0.00101395
0.00101403
0.00101411
0.00101418
0.00101425
0.00101431
0.00101434
0.00101436
0.00101439
0.00101441
0.00101443
0.00101445
0.00101448
0.0010145
0.00101451
0.0010145
0.00101448
0.00101445
0.00101441
0.00101437
0.00101433
0.0010143
0.00101426
0.00101421
0.00101417
0.00101411
0.00101403
0.00101395
0.00101386
0.00101377
0.00101368
0.0010136
0.00101352
0.00101342
0.00101332
0.0010132
0.00101308
0.00101297
0.00101285
0.00101273
0.00101263
0.00101253
0.00101243
0.00101232
0.0010122
0.00101207
0.00101193
0.00101181
0.00101168
0.00101158
0.00101145
0.00101131
0.00101118
0.00101116
0.00101095
0.00101098
0.00101065
0.00101019
0.00100992
0.00100973
0.0010101
0.00100999
0.00101131
0.00101063
0.0010081
0.0010077
0.00100672
0.00100635
0.00100674
0.0010065
0.00100651
0.00100676
0.00100823
0.00100854
0.00101007
0.00100984
0.0010084
0.00100844
0.00100807
0.00100833
0.00100798
0.00100709
0.00100677
0.00100675
0.00100611
0.0010061
0.00100496
0.00100502
0.00100617
0.00100613
0.00100661
0.00100645
0.00100731
0.00100701
0.00100736
0.00100684
0.00100593
0.00100555
0.00100696
0.00100632
0.00101326
0.00101008
0.00100474
0.00101268
0.00101063
0.00102568
0.00102729
0.0010637
0.00106226
0.00102613
0.00102894
0.00102773
0.00102488
0.001022
0.00102092
0.00101421
0.0010131
0.00101178
0.00101044
0.00100921
0.00100785
0.00100666
0.0010057
0.00100494
0.00100432
0.00100385
0.0010035
0.00100325
0.00100308
0.00100299
0.00100296
0.00100301
0.0010031
0.00100321
0.00100332
0.00100341
0.00100347
0.00100353
0.00100358
0.00100363
0.00100371
0.0010038
0.0010039
0.001004
0.00100408
0.00100413
0.00100415
0.00100415
0.00100412
0.00100408
0.00100407
0.00100407
0.0010041
0.00100414
0.00100419
0.00100423
0.00100425
0.00100424
0.00100422
0.00100421
0.00100421
0.00100423
0.00100425
0.00100424
0.0010042
0.00100416
0.00100413
0.00100416
0.00100421
0.00100425
0.00100424
0.00100419
0.00100411
0.00100403
0.00100396
0.00100392
0.00100393
0.00100401
0.00100413
0.00100412
0.00100396
0.00100385
0.00100394
0.00100419
0.00100418
0.00100385
0.00100371
0.00100381
0.00100386
0.00100361
0.00100361
0.00100381
0.00100399
0.00100401
0.00100513
0.0010046
0.00101431
0.00100651
0.00321569
0.00283741
0.00245676
0.00243161
0.00260794
0.00280631
0.00310432
0.00343397
0.00376155
0.00403498
0.00424793
0.00439926
0.00447167
0.00445022
0.00436118
0.00426001
0.00417682
0.00410184
0.004019
0.0039346
0.00386049
0.0038046
0.00376637
0.0037384
0.00372614
0.00372746
0.00372883
0.003705
0.00365517
0.0036104
0.00359876
0.00361517
0.00363259
0.00359866
0.00353423
0.00349892
0.00351543
0.00355905
0.00358245
0.00354393
0.00346249
0.00339124
0.00336882
0.00335176
0.00330209
0.00323685
0.00318704
0.00317925
0.00317868
0.00313604
0.00305861
0.00298549
0.00293174
0.00291852
0.00293149
0.00292795
0.00286644
0.0027906
0.00274552
0.00272047
0.0026919
0.00265507
0.00262416
0.00262939
0.00265216
0.00267463
0.00269958
0.00275904
0.00284014
0.00291658
0.00301116
0.00314576
0.0032773
0.00342284
0.00370274
0.00424254
0.00523575
0.00669171
0.00922749
0.0131936
0.0200089
0.0307118
0.0406126
0.0530592
0.0616317
0.0641989
0.0659873
0.0655896
0.059617
0.0511862
0.0535339
0.0551071
0.0507252
0.0416672
0.0277724
0.0173034
0.00920183
0.00494704
0.00295546
0.00203731
0.001699
0.00160575
0.00155795
0.00149099
0.0014616
0.0014783
0.00145687
0.00149229
0.0016081
0.00188938
0.00201689
0.00236414
0.0028757
0.00273001
0.00232357
0.00188485
0.00166482
0.00145202
0.0013516
0.00123867
0.00117306
0.0011452
0.00116275
0.00119069
0.001212
0.00123641
0.00129169
0.00131403
0.00148006
0.00163891
0.00152606
0.0014022
0.0012922
0.00123632
0.00116989
0.00114482
0.00113981
0.0011215
0.00111236
0.00110901
0.00110797
0.0011063
0.0011056
0.00110492
0.00110426
0.00110452
0.00110522
0.00110491
0.00110354
0.0011032
0.00110398
0.00110415
0.00110542
0.00110668
0.00110633
0.00110482
0.00110435
0.00110676
0.00110923
0.00110878
0.00110649
0.00110636
0.00110924
0.00111038
0.00110791
0.00110703
0.00110972
0.00111145
0.00110965
0.00110695
0.00110813
0.00111083
0.0011095
0.00110709
0.00110832
0.00110922
0.00110748
0.00110628
0.00110738
0.00110789
0.00110613
0.00110528
0.00110494
0.00110347
0.0011019
0.00110194
0.00110332
0.00110177
0.00109884
0.00109772
0.00109721
0.00109568
0.00109391
0.00109389
0.00109408
0.00109134
0.00108804
0.0010868
0.00108722
0.00108662
0.00108418
0.00108176
0.00108004
0.00108036
0.00107969
0.00107716
0.00107408
0.00107164
0.00107189
0.00107179
0.00106946
0.00106683
0.00106571
0.00106457
0.00106358
0.00106265
0.0010609
0.00105885
0.00105628
0.00105589
0.00105612
0.00105468
0.0010535
0.00105124
0.00104986
0.00104876
0.00104771
0.00104786
0.00104743
0.00104641
0.00104495
0.00104354
0.00104345
0.00104337
0.00104212
0.00104124
0.00104117
0.0010406
0.00104009
0.00103997
0.00103989
0.00103959
0.00103878
0.00103857
0.00103903
0.00103798
0.00103722
0.00103773
0.00103803
0.00103773
0.0010372
0.00103729
0.00103709
0.00103653
0.0010363
0.0010365
0.00103636
0.00103579
0.00103557
0.00103576
0.00103556
0.00103533
0.00103508
0.00103448
0.00103425
0.00103415
0.00103395
0.00103378
0.00103359
0.00103318
0.00103279
0.00103247
0.00103221
0.0010318
0.0010315
0.00103136
0.00103108
0.00103075
0.00103028
0.00102992
0.00102951
0.00102912
0.00102899
0.00102869
0.00102823
0.00102772
0.00102734
0.001027
0.00102673
0.00102637
0.00102593
0.00102558
0.00102523
0.00102487
0.00102455
0.00102421
0.00102385
0.00102351
0.00102319
0.00102286
0.00102251
0.00102215
0.00102178
0.00102141
0.00102107
0.0010207
0.00102035
0.00101996
0.00101957
0.00101924
0.0010189
0.00101855
0.0010182
0.00101786
0.00101754
0.00101721
0.00101688
0.00101655
0.00101624
0.00101594
0.00101563
0.00101532
0.00101504
0.00101478
0.00101453
0.00101429
0.00101406
0.00101384
0.00101366
0.00101348
0.0010133
0.00101313
0.00101299
0.00101286
0.00101272
0.00101261
0.00101253
0.00101249
0.00101247
0.00101246
0.00101245
0.00101247
0.00101251
0.00101255
0.0010126
0.00101265
0.0010127
0.00101278
0.00101284
0.00101291
0.00101299
0.00101306
0.00101313
0.0010132
0.00101326
0.00101332
0.00101337
0.00101342
0.00101345
0.00101348
0.00101351
0.00101353
0.00101355
0.00101357
0.00101359
0.0010136
0.0010136
0.00101358
0.00101356
0.00101352
0.00101348
0.00101344
0.0010134
0.00101336
0.00101331
0.00101325
0.00101318
0.00101311
0.00101303
0.00101295
0.00101287
0.00101278
0.00101269
0.0010126
0.0010125
0.00101239
0.00101227
0.00101214
0.00101202
0.0010119
0.00101179
0.00101167
0.00101156
0.00101145
0.00101134
0.00101122
0.00101111
0.00101097
0.00101086
0.00101071
0.00101056
0.00101043
0.00101042
0.00101023
0.00101024
0.00100995
0.00100942
0.00100927
0.00100943
0.00100929
0.00100919
0.00101056
0.0010098
0.001007
0.00100661
0.0010057
0.0010053
0.00100603
0.00100573
0.00100539
0.00100563
0.00100702
0.00100743
0.00100927
0.00100901
0.00100753
0.00100755
0.00100724
0.00100769
0.00100749
0.00100638
0.00100595
0.00100542
0.00100506
0.00100397
0.00100394
0.00100504
0.00100495
0.00100543
0.00100531
0.0010054
0.00100627
0.00100604
0.00100629
0.00100564
0.00100474
0.00100427
0.00100561
0.00100528
0.00101229
0.00100948
0.0010118
0.00100925
0.00102246
0.00102593
0.00103704
0.00106915
0.00106719
0.00102642
0.00102782
0.00102625
0.00102288
0.0010189
0.0010144
0.00100708
0.00100538
0.00100704
0.00100776
0.00100827
0.00100795
0.00100711
0.00100615
0.00100527
0.00100453
0.00100391
0.00100337
0.00100291
0.00100255
0.00100226
0.00100202
0.00100184
0.00100173
0.0010017
0.00100173
0.00100178
0.00100183
0.00100185
0.00100186
0.00100186
0.00100187
0.0010019
0.00100196
0.00100204
0.00100214
0.00100225
0.00100234
0.00100241
0.00100245
0.00100245
0.00100242
0.00100239
0.00100236
0.00100235
0.00100236
0.00100239
0.00100243
0.00100247
0.00100249
0.0010025
0.00100249
0.00100248
0.00100247
0.00100248
0.00100251
0.00100252
0.00100249
0.00100244
0.00100239
0.0010024
0.00100245
0.00100251
0.0010025
0.00100244
0.00100235
0.00100225
0.00100218
0.00100215
0.00100214
0.00100218
0.00100223
0.00100222
0.00100213
0.00100205
0.00100214
0.00100238
0.00100242
0.00100204
0.00100179
0.00100194
0.00100217
0.00100186
0.00100157
0.00100184
0.00100207
0.00100189
0.00100199
0.00100333
0.00100292
0.0010132
0.00100491
0.00324508
0.00286637
0.00248747
0.00246351
0.00263979
0.00283831
0.00314067
0.00347766
0.00381605
0.00410219
0.00432645
0.00446953
0.00450006
0.00441235
0.0042586
0.0041179
0.00403045
0.00396078
0.00386157
0.00373396
0.00361187
0.00353309
0.0035039
0.00348925
0.00347457
0.00345871
0.00342471
0.00336352
0.00330017
0.00325667
0.00324205
0.00323961
0.00324652
0.0032395
0.00320208
0.00314759
0.00309489
0.00305923
0.00305411
0.00306254
0.00304616
0.00300685
0.0029709
0.00294716
0.00291674
0.00285984
0.00279914
0.00278821
0.0027935
0.00276737
0.00270571
0.00264224
0.00259261
0.00256929
0.00258315
0.00259984
0.00256777
0.00251253
0.00246999
0.00244397
0.00241091
0.0023707
0.00235427
0.00236277
0.00237167
0.00236039
0.00235002
0.00238045
0.00242181
0.00243292
0.0024272
0.00245041
0.00248695
0.00250393
0.00253572
0.00262368
0.00280549
0.00306821
0.00345179
0.00410865
0.00520642
0.00720083
0.00953893
0.012611
0.0156382
0.0176816
0.0186577
0.01969
0.0194852
0.0183477
0.0193161
0.0207875
0.0225299
0.0329402
0.0410685
0.0419852
0.0371039
0.0257872
0.0162194
0.0086481
0.0046984