/*--------------------------------*- C++ -*----------------------------------*\
| =========                 |                                                 |
| \\      /  F ield         | OpenFOAM: The Open Source CFD Toolbox           |
|  \\    /   O peration     | Version:  v2006                                 |
|   \\  /    A nd           | Website:  www.openfoam.com                      |
|    \\/     M anipulation  |                                                 |
\*---------------------------------------------------------------------------*/
FoamFile
{
    version     2.0;
    format      ascii;
    class       volVectorField;
    location    "3.3";
    object      U;
}
// * * * * * * * * * * * * * * * * * * * * * * * * * * * * * * * * * * * * * //

dimensions      [0 1 -1 0 0 0 0];


internalField   nonuniform List<vector> 
33000
(
(-0.189348 0 -0.00216099)
(-0.252557 0 -0.00275558)
(-0.233701 0 -0.00280041)
(-0.231895 0 -0.00285712)
(-0.226209 0 -0.00285759)
(-0.224018 0 -0.00284237)
(-0.219841 0 -0.00299932)
(-0.216825 0 -0.0031642)
(-0.212134 0 -0.00337572)
(-0.207601 0 -0.0033648)
(-0.203173 0 -0.00328503)
(-0.199209 0 -0.00317564)
(-0.19503 0 -0.00318389)
(-0.190483 0 -0.00323377)
(-0.185987 0 -0.0034044)
(-0.181248 0 -0.00365859)
(-0.176484 0 -0.00364949)
(-0.171813 0 -0.00363325)
(-0.16706 0 -0.00362288)
(-0.162314 0 -0.00345806)
(-0.157844 0 -0.00314808)
(-0.153562 0 -0.00304279)
(-0.149333 0 -0.00317525)
(-0.144703 0 -0.00375973)
(-0.139698 0 -0.00412278)
(-0.134502 0 -0.00395847)
(-0.129713 0 -0.00307891)
(-0.12588 0 -0.00251254)
(-0.122137 0 -0.00288519)
(-0.117782 0 -0.003498)
(-0.112982 0 -0.00358071)
(-0.108347 0 -0.0032675)
(-0.103945 0 -0.00341424)
(-0.0993461 0 -0.00373358)
(-0.0944581 0 -0.00374967)
(-0.089908 0 -0.00293412)
(-0.08604 0 -0.00251196)
(-0.0822729 0 -0.002833)
(-0.0783427 0 -0.00347136)
(-0.0738423 0 -0.00393938)
(-0.068975 0 -0.00359997)
(-0.0645808 0 -0.00268716)
(-0.0609391 0 -0.00234636)
(-0.0573106 0 -0.00303756)
(-0.0530854 0 -0.00378493)
(-0.0481469 0 -0.00402916)
(-0.0431913 0 -0.0033767)
(-0.0390879 0 -0.00256107)
(-0.0356312 0 -0.00250374)
(-0.032139 0 -0.0028977)
(-0.0282905 0 -0.00309948)
(-0.0241636 0 -0.0033956)
(-0.0196462 0 -0.00356924)
(-0.0150874 0 -0.00343408)
(-0.0109699 0 -0.00295485)
(-0.00739762 0 -0.0027547)
(-0.00389958 0 -0.00292092)
(-2.38541e-05 0 -0.00319465)
(0.00413651 0 -0.003261)
(0.00807545 0 -0.00289389)
(0.0116735 0 -0.00271377)
(0.0151812 0 -0.00282351)
(0.0189259 0 -0.00309717)
(0.0229992 0 -0.00299397)
(0.0267377 0 -0.00240926)
(0.0296629 0 -0.00192085)
(0.0320488 0 -0.00168576)
(0.0345002 0 -0.00197775)
(0.0371896 0 -0.00183252)
(0.0394983 0 -0.00175576)
(0.0416115 0 -0.00118337)
(0.0429642 0 -0.00114541)
(0.0444068 0 -0.000586797)
(0.0452943 0 -0.000620966)
(0.046986 0 0.00080772)
(0.0460259 0 0.00147266)
(0.0485055 0 0.00467212)
(0.0416687 0 0.0073725)
(0.0356625 0 0.00562069)
(0.035886 0 0.000487393)
(0.0309176 0 0.000560258)
(0.0291855 0 -0.00125071)
(0.0280422 0 0.00199474)
(0.0251697 0 0.00079743)
(0.0251022 0 -3.56435e-05)
(0.0257313 0 -0.00146519)
(0.0249876 0 -0.00206894)
(0.025319 0 -0.00190153)
(0.0263979 0 -0.00204215)
(0.0277789 0 -0.000904907)
(0.0284916 0 -0.000850045)
(0.029677 0 -0.000593148)
(0.0302914 0 -0.000137831)
(0.0303663 0 -5.21493e-06)
(0.030595 0 0.000453786)
(0.0298665 0 0.000676067)
(0.0297015 0 0.00245474)
(0.0263124 0 0.00301928)
(0.0252824 0 0.00795885)
(0.0161083 0 0.00765555)
(0.0110522 0 0.00387686)
(0.00490542 0 -0.00378826)
(0.00575527 0 -0.00698517)
(0.00594575 0 -0.00340003)
(0.00680248 0 -0.000382937)
(0.00933667 0 0.00129664)
(0.011115 0 0.000679313)
(0.0119625 0 0.000140949)
(0.0122511 0 -0.00131469)
(0.0131822 0 -0.00201143)
(0.0141541 0 -0.00168539)
(0.0149621 0 -0.00116966)
(0.0161597 0 -0.000591527)
(0.016797 0 -0.00032953)
(0.0177122 0 0.00020083)
(0.0172457 0 0.000415939)
(0.0179673 0 0.00211106)
(0.0147433 0 0.00219379)
(0.0143757 0 0.000533945)
(0.0134926 0 -0.00197523)
(0.0148847 0 -0.00288581)
(0.0155535 0 -0.00151718)
(0.0164221 0 -0.000645415)
(0.0178507 0 -0.000165441)
(0.0189294 0 -0.000233822)
(0.0196843 0 -0.000629989)
(0.0205435 0 -0.000892438)
(0.0213082 0 -0.000809229)
(0.0220601 0 -0.000661631)
(0.0228708 0 -0.000538047)
(0.0236122 0 -0.000491277)
(0.0243096 0 -0.000525521)
(0.024994 0 -0.000542328)
(0.0256269 0 -0.00051749)
(0.0262304 0 -0.000483604)
(0.0268136 0 -0.000452742)
(0.0274006 0 -0.000439715)
(0.0279788 0 -0.000417528)
(0.0285187 0 -0.000399468)
(0.0290428 0 -0.000399102)
(0.0295542 0 -0.00038472)
(0.0300311 0 -0.000358238)
(0.0304699 0 -0.000332213)
(0.0308919 0 -0.000324798)
(0.0312984 0 -0.000303042)
(0.0316635 0 -0.000275342)
(0.0319979 0 -0.000250481)
(0.0323031 0 -0.000230152)
(0.0325908 0 -0.000219889)
(0.032857 0 -0.000198367)
(0.0330892 0 -0.000171559)
(0.0332885 0 -0.000141672)
(0.0334542 0 -0.000121201)
(0.0336026 0 -0.000114536)
(0.0337447 0 -0.000104904)
(0.033862 0 -7.88638e-05)
(0.0339383 0 -4.61591e-05)
(0.0339855 0 -3.12976e-05)
(0.0340231 0 -2.61424e-05)
(0.0340516 0 -1.49291e-05)
(0.0340533 0 1.35408e-05)
(0.0340194 0 3.45706e-05)
(0.03397 0 3.9662e-05)
(0.0339175 0 4.78694e-05)
(0.0338447 0 7.17901e-05)
(0.0337373 0 9.35606e-05)
(0.0336124 0 9.91454e-05)
(0.0334835 0 0.00010552)
(0.0333431 0 0.000122045)
(0.0331747 0 0.0001462)
(0.0329782 0 0.000157187)
(0.0327776 0 0.000156701)
(0.0325792 0 0.00016411)
(0.0323584 0 0.000186937)
(0.0321083 0 0.000202899)
(0.0318493 0 0.000206508)
(0.0315856 0 0.000208944)
(0.0313158 0 0.000217764)
(0.0310304 0 0.000231517)
(0.0307322 0 0.000242301)
(0.0304203 0 0.000252369)
(0.030099 0 0.000250664)
(0.029781 0 0.000252864)
(0.0294517 0 0.000263879)
(0.0291082 0 0.000277999)
(0.0287522 0 0.000278936)
(0.0284048 0 0.000270531)
(0.0280602 0 0.000279192)
(0.0276962 0 0.000295029)
(0.0273216 0 0.000295172)
(0.0269484 0 0.00028854)
(0.0265824 0 0.000290222)
(0.0262053 0 0.000299856)
(0.0258235 0 0.000303962)
(0.0254398 0 0.000303402)
(0.0250601 0 0.000297913)
(0.0246813 0 0.000299382)
(0.0242954 0 0.000305767)
(0.0239062 0 0.000302859)
(0.0235296 0 0.000293234)
(0.0231582 0 0.000296744)
(0.0227794 0 0.00030345)
(0.0223919 0 0.000306368)
(0.0220032 0 0.000299975)
(0.0216315 0 0.000292198)
(0.0212619 0 0.000286006)
(0.020904 0 0.00028508)
(0.0205329 0 0.000294862)
(0.0201564 0 0.000294952)
(0.0197899 0 0.000282256)
(0.0194407 0 0.000274588)
(0.0190874 0 0.000282517)
(0.0187236 0 0.000283472)
(0.0183732 0 0.000279104)
(0.0180198 0 0.000267582)
(0.0176908 0 0.000257821)
(0.0173597 0 0.000268552)
(0.0170122 0 0.000269357)
(0.0166809 0 0.000266385)
(0.0163386 0 0.000265177)
(0.01601 0 0.00024718)
(0.0157043 0 0.000241142)
(0.015394 0 0.0002495)
(0.0150727 0 0.000253827)
(0.0147543 0 0.000244289)
(0.0144477 0 0.000243247)
(0.01414 0 0.000244156)
(0.0138328 0 0.000233121)
(0.0135452 0 0.000223706)
(0.0132589 0 0.000232514)
(0.0129587 0 0.000233915)
(0.0126646 0 0.000228781)
(0.0123781 0 0.000227876)
(0.0120893 0 0.000216842)
(0.0118249 0 0.000208379)
(0.0115528 0 0.000224185)
(0.0112682 0 0.000223759)
(0.0109902 0 0.000213518)
(0.0107209 0 0.000205341)
(0.0104568 0 0.00021015)
(0.0101846 0 0.000211107)
(0.0099234 0 0.000207557)
(0.00966035 0 0.000202836)
(0.0094064 0 0.000205047)
(0.00914205 0 0.000201653)
(0.0088955 0 0.000195876)
(0.00864039 0 0.000206534)
(0.00837259 0 0.000198329)
(0.00813161 0 0.000189337)
(0.00788848 0 0.000195182)
(0.00763722 0 0.000195746)
(0.00739333 0 0.000193432)
(0.00714582 0 0.00019141)
(0.00690487 0 0.000188076)
(0.00666467 0 0.000194047)
(0.00641811 0 0.000190813)
(0.00618153 0 0.000181105)
(0.00595443 0 0.000179964)
(0.00571651 0 0.000186502)
(0.00547955 0 0.000186803)
(0.00524533 0 0.000181745)
(0.00502144 0 0.000173737)
(0.00479858 0 0.000178736)
(0.00456565 0 0.000179828)
(0.00433937 0 0.000177553)
(0.00411333 0 0.00017759)
(0.00388857 0 0.000176324)
(0.00366823 0 0.00016787)
(0.00345899 0 0.0001652)
(0.00324579 0 0.000168185)
(0.00303086 0 0.00016991)
(0.00281532 0 0.000168863)
(0.00260128 0 0.000166119)
(0.002392 0 0.000163066)
(0.00218409 0 0.000160633)
(0.00198154 0 0.000158239)
(0.00178057 0 0.000158879)
(0.00157867 0 0.00015742)
(0.00138066 0 0.000154838)
(0.00118503 0 0.000152598)
(0.000991802 0 0.000154375)
(0.00079512 0 0.000151971)
(0.000604983 0 0.00014739)
(0.000419954 0 0.000144054)
(0.000238269 0 0.000140691)
(6.04022e-05 0 0.000139782)
(-0.000117643 0 0.000140052)
(-0.000295564 0 0.000138201)
(-0.000469405 0 0.000135628)
(-0.000640399 0 0.000133171)
(-0.000807517 0 0.00012821)
(-0.000968073 0 0.000125891)
(-0.00112922 0 0.00012653)
(-0.00129012 0 0.00012488)
(-0.00144687 0 0.000122441)
(-0.00160135 0 0.00012043)
(-0.00175299 0 0.000117351)
(-0.0019006 0 0.000114844)
(-0.00204657 0 0.000113942)
(-0.00219057 0 0.000111912)
(-0.00233109 0 0.000109742)
(-0.00246967 0 0.000107491)
(-0.00260434 0 0.000104563)
(-0.0027364 0 0.000102925)
(-0.00286658 0 0.00010107)
(-0.00299327 0 9.87114e-05)
(-0.00311741 0 9.54964e-05)
(-0.00323644 0 9.26202e-05)
(-0.00335415 0 9.17481e-05)
(-0.00346992 0 8.94204e-05)
(-0.00358166 0 8.68478e-05)
(-0.00369063 0 8.39309e-05)
(-0.00379559 0 8.13124e-05)
(-0.00389804 0 7.9243e-05)
(-0.00399745 0 7.68782e-05)
(-0.00409367 0 7.43016e-05)
(-0.00418655 0 7.1513e-05)
(-0.00427594 0 6.89443e-05)
(-0.00436253 0 6.68945e-05)
(-0.00444619 0 6.44303e-05)
(-0.00452628 0 6.17423e-05)
(-0.0046032 0 5.86722e-05)
(-0.00467579 0 5.58839e-05)
(-0.00474605 0 5.40954e-05)
(-0.00481349 0 5.16066e-05)
(-0.00487732 0 4.86151e-05)
(-0.00493696 0 4.53215e-05)
(-0.00499333 0 4.3501e-05)
(-0.00504755 0 4.11383e-05)
(-0.005098 0 3.85081e-05)
(-0.00514545 0 3.60068e-05)
(-0.0051895 0 3.33239e-05)
(-0.00523009 0 3.05358e-05)
(-0.00526726 0 2.79728e-05)
(-0.00530128 0 2.54721e-05)
(-0.00533209 0 2.30341e-05)
(-0.00535989 0 2.06478e-05)
(-0.0053846 0 1.8233e-05)
(-0.00540628 0 1.57833e-05)
(-0.00542479 0 1.32883e-05)
(-0.00544027 0 1.11728e-05)
(-0.00545326 0 9.25544e-06)
(-0.00546369 0 7.1457e-06)
(-0.0054713 0 4.97957e-06)
(-0.00547622 0 2.77288e-06)
(-0.00547824 0 5.51279e-07)
(-0.00547766 0 -1.30573e-06)
(-0.00547485 0 -3.06949e-06)
(-0.00546968 0 -4.8821e-06)
(-0.00546221 0 -6.91559e-06)
(-0.00545195 0 -8.94574e-06)
(-0.00543966 0 -1.03246e-05)
(-0.00542568 0 -1.17917e-05)
(-0.00540954 0 -1.3365e-05)
(-0.00539151 0 -1.49807e-05)
(-0.00537134 0 -1.64631e-05)
(-0.00534959 0 -1.76554e-05)
(-0.00532619 0 -1.89163e-05)
(-0.00530119 0 -2.0282e-05)
(-0.00527434 0 -2.17984e-05)
(-0.00524592 0 -2.28415e-05)
(-0.00521635 0 -2.37725e-05)
(-0.00518531 0 -2.48177e-05)
(-0.00515301 0 -2.57962e-05)
(-0.00511955 0 -2.67576e-05)
(-0.00508473 0 -2.77564e-05)
(-0.00504897 0 -2.83835e-05)
(-0.00501241 0 -2.91121e-05)
(-0.0049747 0 -2.98217e-05)
(-0.00493626 0 -3.05512e-05)
(-0.00489675 0 -3.13748e-05)
(-0.0048563 0 -3.20208e-05)
(-0.00481516 0 -3.25712e-05)
(-0.00477331 0 -3.30887e-05)
(-0.0047309 0 -3.36097e-05)
(-0.00468772 0 -3.41247e-05)
(-0.0046441 0 -3.43938e-05)
(-0.00460014 0 -3.4695e-05)
(-0.00455569 0 -3.49815e-05)
(-0.00451094 0 -3.52805e-05)
(-0.00446577 0 -3.56687e-05)
(-0.00442013 0 -3.60005e-05)
(-0.00437423 0 -3.61397e-05)
(-0.0043282 0 -3.62285e-05)
(-0.0042821 0 -3.63073e-05)
(-0.00423593 0 -3.63552e-05)
(-0.00418964 0 -3.63819e-05)
(-0.00414331 0 -3.64604e-05)
(-0.00409685 0 -3.64927e-05)
(-0.00405043 0 -3.64661e-05)
(-0.00400401 0 -3.6447e-05)
(-0.00395763 0 -3.66052e-05)
(-0.00391095 0 -3.67151e-05)
(-0.00386448 0 -3.64794e-05)
(-0.00381833 0 -3.63498e-05)
(-0.00377204 0 -3.63749e-05)
(-0.00372601 0 -3.61185e-05)
(-0.00368012 0 -3.60883e-05)
(-0.00363437 0 -3.59728e-05)
(-0.00358862 0 -3.61004e-05)
(-0.00354302 0 -3.58845e-05)
(-0.00349754 0 -3.5934e-05)
(-0.00345232 0 -3.55872e-05)
(-0.00340728 0 -3.55024e-05)
(-0.00336274 0 -3.50731e-05)
(-0.00331839 0 -3.49807e-05)
(-0.00327451 0 -3.46283e-05)
(-0.00323102 0 -3.42152e-05)
(-0.00318765 0 -3.40448e-05)
(-0.00314493 0 -3.26606e-05)
(-0.00310251 0 -3.30951e-05)
(-0.00306053 0 -3.15365e-05)
(-0.00301875 0 -3.32131e-05)
(-0.00297698 0 -3.14874e-05)
(-0.00293647 0 -3.35296e-05)
(-0.00289453 0 -3.07763e-05)
(-0.00285353 0 -3.18357e-05)
(-0.00281243 0 -2.89581e-05)
(-0.0027693 0 -3.42282e-05)
(-0.00272836 0 -3.19713e-05)
(-0.00269222 0 -4.01122e-05)
(-0.0026481 0 -3.19913e-05)
(-0.00261155 0 -2.55619e-05)
(-0.00257146 0 -1.61762e-05)
(-0.00250749 0 -2.97454e-05)
(-0.00247058 0 -3.55077e-05)
(-0.00245163 0 -9.33289e-05)
(-0.00238567 0 -7.30434e-05)
(-0.00240892 0 -1.56668e-06)
(-0.00237581 0 5.70442e-05)
(-0.00250132 0 7.41384e-05)
(-0.00246745 0 1.20845e-05)
(-0.0024976 0 1.274e-05)
(-0.00246963 0 -7.45989e-06)
(-0.00246366 0 -9.1258e-06)
(-0.00243427 0 -1.5496e-05)
(-0.00241554 0 -1.97201e-05)
(-0.00238643 0 -2.06104e-05)
(-0.00236248 0 -2.63967e-05)
(-0.00233108 0 -2.32799e-05)
(-0.00230255 0 -2.40166e-05)
(-0.00227159 0 -1.86721e-05)
(-0.00223092 0 -2.71586e-05)
(-0.00219952 0 -2.5871e-05)
(-0.00217418 0 -5.15248e-05)
(-0.0021305 0 -3.99628e-05)
(-0.00211866 0 -2.05691e-05)
(-0.00208561 0 4.83662e-06)
(-0.00210726 0 3.37244e-06)
(-0.0020743 0 -1.28727e-05)
(-0.00205953 0 -1.92847e-05)
(-0.00203187 0 -2.16734e-05)
(-0.00200592 0 -2.62107e-05)
(-0.00197887 0 -2.61189e-05)
(-0.00195151 0 -1.68356e-05)
(-0.00192347 0 -2.52699e-05)
(-0.00189471 0 -7.45518e-06)
(-0.00185624 0 -3.39148e-05)
(-0.00182485 0 -1.23651e-05)
(-0.00180395 0 -6.12015e-05)
(-0.00175767 0 -1.81713e-05)
(-0.00174647 0 -2.97003e-05)
(-0.00170988 0 3.32402e-05)
(-0.00159277 0 -2.42062e-05)
(-0.00157358 0 3.39617e-06)
(-0.00157438 0 -0.000254865)
(-0.00144537 0 -0.000145128)
(-0.00172582 0 -3.88277e-05)
(-0.00163014 0 0.000256757)
(-0.00258692 0 0.000493798)
(-0.00260343 0 0.00031394)
(-0.00291748 0 0.00019205)
(-0.00304137 0 0.000120179)
(-0.00314262 0 7.7334e-05)
(-0.00321079 0 5.08237e-05)
(-0.0032586 0 3.40496e-05)
(-0.00329228 0 2.31771e-05)
(-0.00331581 0 1.57177e-05)
(-0.00333167 0 1.02708e-05)
(-0.00334164 0 6.09014e-06)
(-0.003347 0 2.60406e-06)
(-0.00334837 0 -2.86474e-07)
(-0.0033463 0 -2.82409e-06)
(-0.00334151 0 -4.87074e-06)
(-0.0033345 0 -6.49853e-06)
(-0.00332562 0 -7.90375e-06)
(-0.00331502 0 -9.24921e-06)
(-0.00330277 0 -1.05525e-05)
(-0.00328897 0 -1.17515e-05)
(-0.00327381 0 -1.27882e-05)
(-0.0032575 0 -1.36469e-05)
(-0.00324022 0 -1.43441e-05)
(-0.00322215 0 -1.49122e-05)
(-0.00320338 0 -1.53909e-05)
(-0.0031839 0 -1.60205e-05)
(-0.00316369 0 -1.66026e-05)
(-0.0031428 0 -1.69748e-05)
(-0.00312121 0 -1.74661e-05)
(-0.00309888 0 -1.80546e-05)
(-0.00307576 0 -1.8673e-05)
(-0.0030518 0 -1.9378e-05)
(-0.00302695 0 -2.01434e-05)
(-0.00300117 0 -2.09001e-05)
(-0.00297452 0 -2.15775e-05)
(-0.00294719 0 -2.20675e-05)
(-0.00291932 0 -2.24253e-05)
(-0.00289109 0 -2.26231e-05)
(-0.00286266 0 -2.27176e-05)
(-0.00283407 0 -2.27796e-05)
(-0.0028054 0 -2.27292e-05)
(-0.00277679 0 -2.26033e-05)
(-0.00274835 0 -2.24005e-05)
(-0.00272018 0 -2.21211e-05)
(-0.00269234 0 -2.18161e-05)
(-0.00266481 0 -2.1562e-05)
(-0.00263744 0 -2.14335e-05)
(-0.00261008 0 -2.14761e-05)
(-0.00258257 0 -2.16828e-05)
(-0.00255476 0 -2.20172e-05)
(-0.00252653 0 -2.24273e-05)
(-0.00249785 0 -2.28272e-05)
(-0.00246882 0 -2.30554e-05)
(-0.00243973 0 -2.29292e-05)
(-0.00241098 0 -2.24123e-05)
(-0.00238291 0 -2.17737e-05)
(-0.00235533 0 -2.14344e-05)
(-0.00232765 0 -2.17942e-05)
(-0.00229927 0 -2.26288e-05)
(-0.0022703 0 -2.29722e-05)
(-0.00224174 0 -2.22731e-05)
(-0.0022145 0 -2.1003e-05)
(-0.00218865 0 -1.96205e-05)
(-0.0021631 0 -1.97069e-05)
(-0.00213645 0 -2.10582e-05)
(-0.00210886 0 -2.16145e-05)
(-0.00208189 0 -2.08687e-05)
(-0.00205631 0 -1.94926e-05)
(-0.00203107 0 -1.96547e-05)
(-0.00200412 0 -2.16918e-05)
(-0.0019757 0 -2.24916e-05)
(-0.00194785 0 -2.18093e-05)
(-0.00192077 0 -2.11577e-05)
(-0.00189267 0 -2.28655e-05)
(-0.00186306 0 -2.40874e-05)
(-0.0018342 0 -2.2563e-05)
(-0.00180808 0 -2.06883e-05)
(-0.00178651 0 -2.1269e-05)
(-0.00168704 0 -2.03488e-05)
(-0.00195198 0 -2.01801e-05)
(-0.0011925 0 -1.28896e-05)
(-0.189384 0 -0.00655831)
(-0.252693 0 -0.00826187)
(-0.233735 0 -0.00847358)
(-0.231879 0 -0.00872527)
(-0.226105 0 -0.00872046)
(-0.223886 0 -0.00855367)
(-0.219669 0 -0.0088983)
(-0.216712 0 -0.00932284)
(-0.212303 0 -0.00993118)
(-0.207978 0 -0.010183)
(-0.20364 0 -0.0103647)
(-0.199458 0 -0.0104703)
(-0.194908 0 -0.0106445)
(-0.190113 0 -0.0106784)
(-0.185415 0 -0.0109888)
(-0.180862 0 -0.0112556)
(-0.176492 0 -0.0112076)
(-0.171958 0 -0.0111706)
(-0.167485 0 -0.0112186)
(-0.162925 0 -0.0109055)
(-0.158337 0 -0.0106138)
(-0.153809 0 -0.010279)
(-0.149246 0 -0.0105549)
(-0.144543 0 -0.0114099)
(-0.14021 0 -0.0121678)
(-0.135459 0 -0.0117184)
(-0.131131 0 -0.0104669)
(-0.126575 0 -0.00913767)
(-0.122092 0 -0.00982342)
(-0.117612 0 -0.0110816)
(-0.112775 0 -0.0114554)
(-0.108356 0 -0.0106204)
(-0.103785 0 -0.0103674)
(-0.0998644 0 -0.0110597)
(-0.0956425 0 -0.0113777)
(-0.0905763 0 -0.010461)
(-0.0856545 0 -0.00949014)
(-0.0810221 0 -0.00899737)
(-0.0771611 0 -0.00967594)
(-0.0738858 0 -0.0109612)
(-0.0698111 0 -0.0109867)
(-0.0650582 0 -0.00997489)
(-0.0605447 0 -0.0089536)
(-0.0558811 0 -0.00918208)
(-0.0521166 0 -0.0106453)
(-0.0480515 0 -0.0116245)
(-0.0433591 0 -0.0110178)
(-0.0387143 0 -0.00913753)
(-0.0344633 0 -0.00819439)
(-0.0306018 0 -0.00869937)
(-0.0268876 0 -0.00943964)
(-0.0226561 0 -0.0102501)
(-0.0182227 0 -0.0106741)
(-0.0137879 0 -0.0102849)
(-0.00959525 0 -0.00914124)
(-0.00603582 0 -0.0082416)
(-0.00238999 0 -0.00857411)
(0.00126059 0 -0.00954204)
(0.00514021 0 -0.00965539)
(0.00892766 0 -0.00881675)
(0.0124129 0 -0.00819006)
(0.0157589 0 -0.00830107)
(0.019519 0 -0.00961111)
(0.0230594 0 -0.00951455)
(0.0266468 0 -0.00777033)
(0.0297199 0 -0.00622884)
(0.0324824 0 -0.00571761)
(0.0355609 0 -0.00638605)
(0.038319 0 -0.00648185)
(0.0411387 0 -0.00513315)
(0.0427813 0 -0.00412638)
(0.0449909 0 -0.00323516)
(0.0462933 0 -0.00299311)
(0.0489054 0 -0.00279382)
(0.0501898 0 -0.00192678)
(0.0528735 0 0.0010237)
(0.0527319 0 0.00327496)
(0.0531529 0 0.00793991)
(0.0525145 0 0.00924239)
(0.0543428 0 0.0063843)
(0.0479889 0 0.00770596)
(0.0422042 0 0.00496258)
(0.0426657 0 0.00375434)
(0.0387422 0 0.00374389)
(0.0351935 0 -0.000450207)
(0.0342132 0 0.00208957)
(0.0304984 0 0.00251835)
(0.0285002 0 -0.000229215)
(0.0294507 0 -0.00213085)
(0.0301139 0 -0.00246454)
(0.0295074 0 -0.00228856)
(0.030158 0 -0.00224199)
(0.0308233 0 -0.000914267)
(0.0312739 0 -0.00050929)
(0.0322308 0 0.000237954)
(0.0327502 0 0.000853922)
(0.0329952 0 0.00275677)
(0.0332865 0 0.00433806)
(0.0328897 0 0.0076673)
(0.0351131 0 0.0141782)
(0.0326583 0 0.0143438)
(0.0324211 0 0.0120125)
(0.022598 0 0.00555538)
(0.017322 0 0.00170178)
(0.0112983 0 -0.00539109)
(0.00925832 0 -0.00833688)
(0.00910262 0 -0.00483272)
(0.00936865 0 -0.00185926)
(0.0103496 0 -0.000398413)
(0.0128996 0 -0.000916543)
(0.0151553 0 -0.000938329)
(0.0159189 0 -0.00203338)
(0.0168594 0 -0.00235661)
(0.0174346 0 -0.00205675)
(0.018086 0 -0.00108911)
(0.0191779 0 -0.000491097)
(0.0199013 0 0.00160459)
(0.0217389 0 0.00302982)
(0.0214315 0 0.00206211)
(0.0224039 0 0.000997017)
(0.0186927 0 -0.000109632)
(0.0182343 0 -0.000876694)
(0.0172145 0 -0.00312377)
(0.0179229 0 -0.00398837)
(0.0182901 0 -0.00258199)
(0.0190707 0 -0.00192174)
(0.0204552 0 -0.00159512)
(0.0215252 0 -0.00152426)
(0.0222491 0 -0.00181062)
(0.022983 0 -0.00193224)
(0.0236089 0 -0.0017684)
(0.0242553 0 -0.00166103)
(0.0249784 0 -0.00151446)
(0.0256488 0 -0.00142031)
(0.0262723 0 -0.00137823)
(0.0268617 0 -0.00139154)
(0.0274389 0 -0.00140619)
(0.027996 0 -0.00135043)
(0.02853 0 -0.00127707)
(0.0290628 0 -0.00123958)
(0.0295787 0 -0.00117302)
(0.0300565 0 -0.00108662)
(0.0305038 0 -0.00102118)
(0.0309342 0 -0.000987688)
(0.0313352 0 -0.000913347)
(0.0316982 0 -0.000826249)
(0.0320326 0 -0.000759584)
(0.0323496 0 -0.000703058)
(0.032641 0 -0.00065728)
(0.0328973 0 -0.000587061)
(0.0331229 0 -0.000510134)
(0.0333225 0 -0.000433336)
(0.033499 0 -0.000374471)
(0.0336553 0 -0.000343811)
(0.0337905 0 -0.000306244)
(0.0338951 0 -0.000226893)
(0.033968 0 -0.00014452)
(0.0340249 0 -0.000103843)
(0.0340679 0 -7.65179e-05)
(0.0340885 0 -3.47598e-05)
(0.0340837 0 3.9827e-05)
(0.0340547 0 9.89751e-05)
(0.0340066 0 0.000121948)
(0.0339477 0 0.000148686)
(0.0338703 0 0.000213135)
(0.0337668 0 0.000276263)
(0.0336432 0 0.000301498)
(0.0335078 0 0.000319705)
(0.0333633 0 0.000363681)
(0.0331961 0 0.0004326)
(0.0330032 0 0.000470341)
(0.0328016 0 0.000472909)
(0.032597 0 0.000494703)
(0.0323714 0 0.000558278)
(0.0321219 0 0.000600741)
(0.0318689 0 0.000616874)
(0.0316049 0 0.000632826)
(0.0313253 0 0.000656596)
(0.0310357 0 0.000689976)
(0.0307392 0 0.000717769)
(0.0304337 0 0.00074745)
(0.0301166 0 0.000755224)
(0.0297903 0 0.000767282)
(0.0294532 0 0.000795134)
(0.0291081 0 0.000824865)
(0.0287582 0 0.000829437)
(0.0284084 0 0.000815896)
(0.0280563 0 0.000836029)
(0.0276948 0 0.000867492)
(0.0273269 0 0.000880768)
(0.0269518 0 0.000874079)
(0.0265763 0 0.00087668)
(0.026195 0 0.000895282)
(0.0258125 0 0.000898224)
(0.0254345 0 0.000897377)
(0.0250599 0 0.000893366)
(0.0246779 0 0.000902057)
(0.0242861 0 0.000913288)
(0.0238979 0 0.000901765)
(0.023521 0 0.000880197)
(0.0231438 0 0.000883227)
(0.022768 0 0.000899177)
(0.0223816 0 0.000915971)
(0.0219946 0 0.000894597)
(0.0216264 0 0.000872492)
(0.0212575 0 0.000858201)
(0.0208912 0 0.00085893)
(0.0205121 0 0.000882884)
(0.020141 0 0.000872259)
(0.0197837 0 0.000844025)
(0.0194293 0 0.000827535)
(0.0190668 0 0.00084705)
(0.0187066 0 0.00083865)
(0.0183629 0 0.00082733)
(0.0180137 0 0.000806147)
(0.0176747 0 0.000777869)
(0.01734 0 0.000799231)
(0.0170001 0 0.000798506)
(0.0166697 0 0.000790407)
(0.0163312 0 0.000792971)
(0.0160075 0 0.00074717)
(0.0156906 0 0.000728832)
(0.0153717 0 0.000741885)
(0.0150618 0 0.000754256)
(0.0147429 0 0.000736536)
(0.0144361 0 0.000723064)
(0.0141316 0 0.000722354)
(0.0138292 0 0.000702873)
(0.0135323 0 0.000677289)
(0.0132422 0 0.000690002)
(0.0129491 0 0.000700742)
(0.0126535 0 0.000683661)
(0.012371 0 0.000676079)
(0.012087 0 0.00065481)
(0.0118119 0 0.00063136)
(0.0115397 0 0.000654129)
(0.0112697 0 0.000657588)
(0.0109908 0 0.000649557)
(0.0107112 0 0.00063043)
(0.0104403 0 0.000635077)
(0.0101726 0 0.000625606)
(0.00991703 0 0.000617306)
(0.00965433 0 0.000608851)
(0.00939492 0 0.000609268)
(0.00913906 0 0.000602818)
(0.00888923 0 0.000589497)
(0.00863137 0 0.000617884)
(0.00836945 0 0.0006003)
(0.00812092 0 0.000571006)
(0.00787757 0 0.000581582)
(0.00762954 0 0.00058284)
(0.00738566 0 0.000577447)
(0.00714191 0 0.0005776)
(0.00689702 0 0.00056598)
(0.00665908 0 0.000571965)
(0.00642112 0 0.000567438)
(0.00618449 0 0.00054789)
(0.00594643 0 0.000549593)
(0.00570335 0 0.000561182)
(0.00547096 0 0.000551774)
(0.00524457 0 0.000539683)
(0.00501783 0 0.000525992)
(0.00478953 0 0.000539127)
(0.00456068 0 0.00054037)
(0.00433295 0 0.000534202)
(0.00410663 0 0.000529284)
(0.00388526 0 0.000524242)
(0.00366596 0 0.00050577)
(0.00345254 0 0.000499233)
(0.00323684 0 0.000503781)
(0.00302183 0 0.000506823)
(0.00280763 0 0.000505645)
(0.00259557 0 0.00049932)
(0.00238766 0 0.00049192)
(0.00217811 0 0.00048482)
(0.00197138 0 0.000474906)
(0.00177019 0 0.000474832)
(0.00157037 0 0.000470087)
(0.00137467 0 0.000464362)
(0.00117786 0 0.000457551)
(0.000985915 0 0.000458672)
(0.000791273 0 0.000455667)
(0.000600666 0 0.000442012)
(0.000417264 0 0.000432187)
(0.000234176 0 0.000424006)
(5.32885e-05 0 0.000419513)
(-0.00012479 0 0.000419018)
(-0.000301213 0 0.00041477)
(-0.000474574 0 0.000405767)
(-0.000643963 0 0.000398357)
(-0.000811828 0 0.000386353)
(-0.000975592 0 0.000379544)
(-0.00113744 0 0.000379453)
(-0.00129759 0 0.000374232)
(-0.00145406 0 0.000366355)
(-0.0016075 0 0.000360544)
(-0.00175922 0 0.000352797)
(-0.00190859 0 0.000346193)
(-0.00205518 0 0.000341765)
(-0.00219828 0 0.000334952)
(-0.00233874 0 0.000328637)
(-0.00247657 0 0.000321945)
(-0.00261156 0 0.000314165)
(-0.00274458 0 0.000309298)
(-0.00287424 0 0.00030229)
(-0.00300003 0 0.00029531)
(-0.00312416 0 0.000286719)
(-0.0032444 0 0.000278808)
(-0.00336262 0 0.000275581)
(-0.00347794 0 0.00026756)
(-0.00358936 0 0.000260141)
(-0.00369829 0 0.000251973)
(-0.00380387 0 0.000244562)
(-0.00390675 0 0.000237876)
(-0.00400609 0 0.000230404)
(-0.00410231 0 0.000222795)
(-0.00419527 0 0.000214802)
(-0.00428525 0 0.000207476)
(-0.00437213 0 0.000200611)
(-0.00445547 0 0.000192766)
(-0.00453537 0 0.000184894)
(-0.0046122 0 0.000176311)
(-0.00468555 0 0.000168279)
(-0.00475614 0 0.000162549)
(-0.00482337 0 0.000154323)
(-0.00488668 0 0.000145638)
(-0.00494691 0 0.000136637)
(-0.00500379 0 0.000130472)
(-0.00505752 0 0.000123177)
(-0.00510796 0 0.000115365)
(-0.00515505 0 0.000107681)
(-0.00519876 0 9.97077e-05)
(-0.00523925 0 9.15989e-05)
(-0.00527652 0 8.39097e-05)
(-0.0053105 0 7.63608e-05)
(-0.00534127 0 6.9047e-05)
(-0.00536899 0 6.1868e-05)
(-0.00539363 0 5.46467e-05)
(-0.00541523 0 4.7391e-05)
(-0.00543384 0 4.00872e-05)
(-0.00544952 0 3.35735e-05)
(-0.00546232 0 2.75404e-05)
(-0.00547242 0 2.12089e-05)
(-0.00547978 0 1.4713e-05)
(-0.0054844 0 8.16398e-06)
(-0.00548635 0 1.66703e-06)
(-0.00548578 0 -3.99995e-06)
(-0.00548276 0 -9.47664e-06)
(-0.00547728 0 -1.49786e-05)
(-0.00546951 0 -2.08991e-05)
(-0.00545936 0 -2.65699e-05)
(-0.00544726 0 -3.08668e-05)
(-0.00543301 0 -3.55964e-05)
(-0.00541658 0 -4.03187e-05)
(-0.00539832 0 -4.50431e-05)
(-0.00537809 0 -4.9471e-05)
(-0.00535616 0 -5.32468e-05)
(-0.00533236 0 -5.7209e-05)
(-0.00530693 0 -6.11353e-05)
(-0.00528001 0 -6.51495e-05)
(-0.00525192 0 -6.82336e-05)
(-0.0052222 0 -7.15193e-05)
(-0.0051908 0 -7.47108e-05)
(-0.00515832 0 -7.75851e-05)
(-0.00512458 0 -8.04974e-05)
(-0.00508969 0 -8.32481e-05)
(-0.00505392 0 -8.51969e-05)
(-0.00501704 0 -8.76559e-05)
(-0.00497902 0 -8.98324e-05)
(-0.00494025 0 -9.19425e-05)
(-0.00490053 0 -9.43104e-05)
(-0.00485999 0 -9.61923e-05)
(-0.00481869 0 -9.78484e-05)
(-0.00477675 0 -9.93476e-05)
(-0.00473423 0 -0.000100885)
(-0.00469104 0 -0.000102328)
(-0.00464746 0 -0.000103186)
(-0.00460332 0 -0.00010427)
(-0.00455863 0 -0.000105182)
(-0.00451366 0 -0.000106031)
(-0.00446837 0 -0.000107035)
(-0.00442277 0 -0.000107869)
(-0.00437697 0 -0.000108318)
(-0.0043309 0 -0.000108569)
(-0.00428484 0 -0.000108662)
(-0.00423866 0 -0.000108962)
(-0.00419219 0 -0.000109175)
(-0.00414572 0 -0.000109333)
(-0.00409915 0 -0.00010949)
(-0.00405255 0 -0.000109411)
(-0.00400595 0 -0.000109421)
(-0.00395938 0 -0.000109592)
(-0.00391287 0 -0.000109743)
(-0.00386654 0 -0.000108984)
(-0.00382027 0 -0.000108938)
(-0.00377391 0 -0.000108693)
(-0.00372781 0 -0.000108339)
(-0.00368166 0 -0.000107894)
(-0.00363578 0 -0.000107806)
(-0.00358991 0 -0.000107448)
(-0.00354434 0 -0.000107224)
(-0.00349883 0 -0.000106584)
(-0.00345366 0 -0.000106216)
(-0.00340857 0 -0.000105284)
(-0.00336383 0 -0.000104536)
(-0.00331935 0 -0.000103741)
(-0.00327482 0 -0.000102526)
(-0.00323151 0 -0.000102358)
(-0.00318719 0 -0.000101153)
(-0.0031456 0 -0.000101276)
(-0.00310274 0 -9.95263e-05)
(-0.00306233 0 -0.000100263)
(-0.00302014 0 -9.80389e-05)
(-0.00297877 0 -9.80061e-05)
(-0.00293686 0 -9.57033e-05)
(-0.00289352 0 -0.000100083)
(-0.00285244 0 -9.68781e-05)
(-0.00281714 0 -0.000104152)
(-0.00277486 0 -9.77361e-05)
(-0.00273797 0 -8.92764e-05)
(-0.00269407 0 -8.42931e-05)
(-0.00262912 0 -9.61489e-05)
(-0.00259063 0 -9.32256e-05)
(-0.00257801 0 -0.000150911)
(-0.00253679 0 -0.000131482)
(-0.00256236 0 -4.99655e-05)
(-0.00252764 0 -3.24662e-05)
(-0.00266435 0 2.71083e-06)
(-0.00261842 0 2.83451e-06)
(-0.00264387 0 7.49601e-05)
(-0.00257419 0 6.00028e-05)
(-0.00256192 0 -6.31229e-06)
(-0.00252647 0 -1.81363e-05)
(-0.00250454 0 -4.18322e-05)
(-0.0024779 0 -4.98278e-05)
(-0.00245265 0 -5.89108e-05)
(-0.00242541 0 -5.61496e-05)
(-0.00239855 0 -6.26797e-05)
(-0.00236837 0 -5.96111e-05)
(-0.00232958 0 -7.18042e-05)
(-0.00229838 0 -6.82113e-05)
(-0.00227867 0 -9.57517e-05)
(-0.00224405 0 -8.65209e-05)
(-0.00223697 0 -6.26512e-05)
(-0.00220169 0 -5.3291e-05)
(-0.00223329 0 -4.84081e-05)
(-0.00219258 0 -4.31359e-05)
(-0.00218266 0 -2.75863e-05)
(-0.00213365 0 -2.56449e-05)
(-0.00211151 0 -5.62258e-05)
(-0.00207587 0 -5.2539e-05)
(-0.00204543 0 -5.80884e-05)
(-0.00201546 0 -6.10307e-05)
(-0.00196742 0 -5.47846e-05)
(-0.00195109 0 -7.44407e-05)
(-0.00191003 0 -5.98767e-05)
(-0.00191017 0 -0.00010272)
(-0.00186529 0 -7.25689e-05)
(-0.00186974 0 -7.37894e-05)
(-0.00181627 0 -3.75618e-05)
(-0.00170888 0 -7.84936e-05)
(-0.00166597 0 -3.61968e-05)
(-0.00169951 0 -0.00028647)
(-0.00163502 0 -0.000191359)
(-0.00192536 0 -3.30673e-05)
(-0.00184303 0 7.17228e-05)
(-0.00290682 0 0.000396884)
(-0.00293446 0 0.000395689)
(-0.0032244 0 0.0010384)
(-0.0032209 0 0.000730908)
(-0.00319039 0 0.000485298)
(-0.00320273 0 0.000335193)
(-0.0032319 0 0.000231917)
(-0.00326434 0 0.000163452)
(-0.00329442 0 0.000116654)
(-0.00331987 0 8.39722e-05)
(-0.00333994 0 5.98432e-05)
(-0.00335464 0 4.12201e-05)
(-0.00336455 0 2.67066e-05)
(-0.00337043 0 1.52388e-05)
(-0.00337248 0 5.72083e-06)
(-0.00337124 0 -2.44041e-06)
(-0.00336734 0 -9.34933e-06)
(-0.00336096 0 -1.49405e-05)
(-0.00335243 0 -1.95753e-05)
(-0.00334192 0 -2.37591e-05)
(-0.00332955 0 -2.77647e-05)
(-0.00331553 0 -3.15505e-05)
(-0.00330005 0 -3.496e-05)
(-0.00328337 0 -3.78734e-05)
(-0.00326571 0 -4.02849e-05)
(-0.00324725 0 -4.227e-05)
(-0.0032281 0 -4.39744e-05)
(-0.00320828 0 -4.55547e-05)
(-0.00318787 0 -4.71583e-05)
(-0.00316687 0 -4.87772e-05)
(-0.00314511 0 -5.04588e-05)
(-0.00312259 0 -5.21669e-05)
(-0.00309939 0 -5.39406e-05)
(-0.00307552 0 -5.58214e-05)
(-0.00305104 0 -5.78224e-05)
(-0.00302597 0 -5.98602e-05)
(-0.00300038 0 -6.17978e-05)
(-0.0029743 0 -6.3521e-05)
(-0.00294773 0 -6.49327e-05)
(-0.00292071 0 -6.5983e-05)
(-0.00289325 0 -6.67053e-05)
(-0.0028654 0 -6.71569e-05)
(-0.00283736 0 -6.73963e-05)
(-0.00280923 0 -6.74276e-05)
(-0.00278105 0 -6.72139e-05)
(-0.00275295 0 -6.67297e-05)
(-0.00272498 0 -6.60467e-05)
(-0.00269716 0 -6.5347e-05)
(-0.00266939 0 -6.4846e-05)
(-0.00264158 0 -6.46979e-05)
(-0.00261368 0 -6.49237e-05)
(-0.00258566 0 -6.54588e-05)
(-0.00255752 0 -6.62267e-05)
(-0.0025292 0 -6.71676e-05)
(-0.00250065 0 -6.81099e-05)