/*--------------------------------*- C++ -*----------------------------------*\
| =========                 |                                                 |
| \\      /  F ield         | OpenFOAM: The Open Source CFD Toolbox           |
|  \\    /   O peration     | Version:  v2006                                 |
|   \\  /    A nd           | Website:  www.openfoam.com                      |
|    \\/     M anipulation  |                                                 |
\*---------------------------------------------------------------------------*/
FoamFile
{
    version     2.0;
    format      ascii;
    class       surfaceScalarField;
    location    "4.6";
    object      alphaPhi0.water;
}
// * * * * * * * * * * * * * * * * * * * * * * * * * * * * * * * * * * * * * //

dimensions      [0 3 -1 0 0 0 0];
oriented        oriented;


internalField   nonuniform List<scalar> 
65390
(
0.00010631
2.43953e-07
0.000105789
5.20623e-07
0.000104881
9.08518e-07
0.000104312
5.69321e-07
0.000106227
-1.91521e-06
0.000114704
-8.47639e-06
0.000128944
-1.424e-05
0.00014558
-1.66364e-05
0.00016072
-1.51404e-05
0.000168145
-7.42532e-06
0.000164108
4.03681e-06
0.000153383
1.07223e-05
0.000141495
1.188e-05
0.00013139
1.00924e-05
0.000124297
7.09323e-06
0.000119454
4.84293e-06
0.000116277
3.19177e-06
0.000114011
2.2635e-06
0.000111969
2.01447e-06
0.000109942
2.0165e-06
0.000108087
1.85408e-06
0.000106734
1.38389e-06
0.000105713
1.03024e-06
0.000104897
8.16482e-07
0.000104119
7.77719e-07
0.000103115
1.00138e-06
0.00010163
1.39379e-06
0.000100158
1.51878e-06
9.89203e-05
1.26695e-06
9.81231e-05
7.97205e-07
9.73739e-05
7.49171e-07
9.61532e-05
1.13099e-06
9.48758e-05
1.34814e-06
9.38204e-05
1.08211e-06
9.32276e-05
5.94071e-07
9.27573e-05
4.70083e-07
9.17922e-05
9.36217e-07
9.02602e-05
1.53198e-06
8.87069e-05
1.56e-06
8.76881e-05
1.03723e-06
8.72117e-05
4.78425e-07
8.67133e-05
4.98276e-07
8.57436e-05
9.31622e-07
8.44871e-05
1.26889e-06
8.32324e-05
1.27476e-06
8.22539e-05
9.82978e-07
8.15671e-05
6.86853e-07
8.09304e-05
6.36643e-07
8.00476e-05
8.73061e-07
7.90557e-05
9.9561e-07
7.82147e-05
8.4741e-07
7.74807e-05
7.35102e-07
7.66251e-05
8.55938e-07
7.54887e-05
1.13483e-06
7.39006e-05
1.55314e-06
7.23211e-05
1.57926e-06
7.11693e-05
1.17998e-06
7.03288e-05
8.44164e-07
6.93465e-05
9.82834e-07
6.81056e-05
1.24123e-06
6.69588e-05
1.14873e-06
6.62071e-05
7.53193e-07
6.59966e-05
2.10347e-07
6.61162e-05
-1.19642e-07
6.61998e-05
-9.73534e-08
6.62001e-05
-1.57249e-08
6.6296e-05
-9.57854e-08
6.67605e-05
-4.64428e-07
6.7794e-05
-1.03352e-06
6.94439e-05
-1.62578e-06
7.14569e-05
-2.0076e-06
7.35984e-05
-2.1417e-06
7.55547e-05
-1.95639e-06
7.69041e-05
-1.34968e-06
7.69999e-05
-9.59676e-08
7.36554e-05
3.34424e-06
6.53408e-05
8.30613e-06
5.08882e-05
1.4443e-05
3.75553e-05
1.3337e-05
3.06763e-05
6.88222e-06
2.74831e-05
3.19328e-06
2.74014e-05
8.16292e-08
2.67576e-05
6.43597e-07
2.72266e-05
-4.70196e-07
2.79351e-05
-7.17133e-07
2.75161e-05
4.189e-07
2.69581e-05
5.5808e-07
2.66185e-05
3.45844e-07
2.64962e-05
1.23892e-07
2.63759e-05
1.20245e-07
2.64146e-05
-4.32931e-08
2.67272e-05
-3.12683e-07
2.7082e-05
-3.54745e-07
2.76739e-05
-5.88005e-07
2.85428e-05
-8.67172e-07
2.96866e-05
-1.14378e-06
3.06855e-05
-9.98899e-07
3.16376e-05
-9.52191e-07
3.10158e-05
6.21066e-07
2.91719e-05
1.83918e-06
2.80052e-05
1.16703e-06
2.7314e-05
6.91426e-07
2.72078e-05
1.06418e-07
2.6934e-05
2.74034e-07
2.68505e-05
8.79518e-08
2.69532e-05
-1.01601e-07
2.684e-05
1.13154e-07
2.66399e-05
1.9975e-07
2.6292e-05
3.47534e-07
2.59439e-05
3.3996e-07
2.55294e-05
4.21381e-07
2.50877e-05
4.45431e-07
2.45855e-05
5.02601e-07
2.40157e-05
5.69757e-07
2.328e-05
7.35757e-07
2.2513e-05
7.65202e-07
2.11788e-05
1.33427e-06
1.9769e-05
1.4111e-06
1.88793e-05
8.91047e-07
1.83723e-05
5.07022e-07
1.81413e-05
2.3104e-07
1.77577e-05
3.83495e-07
1.74294e-05
3.22781e-07
1.71222e-05
3.11247e-07
1.66599e-05
4.63642e-07
1.61573e-05
5.0283e-07
1.56344e-05
5.22702e-07
1.50616e-05
5.72761e-07
1.44571e-05
6.05049e-07
1.3829e-05
6.28177e-07
1.31645e-05
6.64364e-07
1.24643e-05
6.98908e-07
1.17451e-05
7.20095e-07
1.1003e-05
7.43032e-07
1.02356e-05
7.67347e-07
9.44534e-06
7.90252e-07
8.63594e-06
8.09413e-07
7.81047e-06
8.25235e-07
6.97262e-06
8.37563e-07
6.1303e-06
8.42287e-07
5.29344e-06
8.37499e-07
4.45926e-06
8.34298e-07
3.62278e-06
8.36428e-07
2.79587e-06
8.26803e-07
1.99001e-06
8.06334e-07
1.20773e-06
7.82332e-07
4.40075e-07
7.67683e-07
-3.12059e-07
7.52237e-07
-1.04293e-06
7.31062e-07
-1.74561e-06
7.02594e-07
-2.41625e-06
6.70728e-07
-3.06783e-06
6.51492e-07
-3.70391e-06
6.36068e-07
-4.32314e-06
6.19637e-07
-4.92271e-06
6.0043e-07
-5.50268e-06
5.79129e-07
-6.05922e-06
5.56553e-07
-6.60137e-06
5.42136e-07
-7.13003e-06
5.28389e-07
-7.63839e-06
5.0835e-07
-8.12604e-06
4.87642e-07
-8.59735e-06
4.71528e-07
-9.05634e-06
4.59155e-07
-9.50025e-06
4.43551e-07
-9.92239e-06
4.22142e-07
-1.03262e-05
4.03772e-07
-1.0717e-05
3.91024e-07
-1.10964e-05
3.79445e-07
-1.14588e-05
3.61958e-07
-1.17994e-05
3.40621e-07
-1.21235e-05
3.24076e-07
-1.24351e-05
3.11801e-07
-1.27345e-05
2.99988e-07
-1.30202e-05
2.85555e-07
-1.32876e-05
2.6689e-07
-1.35362e-05
2.48586e-07
-1.3771e-05
2.34862e-07
-1.3994e-05
2.23542e-07
-1.42034e-05
2.0992e-07
-1.43989e-05
1.95472e-07
-1.45792e-05
1.79736e-07
-1.47452e-05
1.66053e-07
-1.49001e-05
1.55154e-07
-1.50431e-05
1.43663e-07
-1.51716e-05
1.27145e-07
-1.52814e-05
1.09738e-07
-1.53786e-05
9.83094e-08
-1.54678e-05
8.92279e-08
-1.55454e-05
7.75876e-08
-1.56126e-05
6.56849e-08
-1.56654e-05
5.26769e-08
-1.57059e-05
4.04999e-08
-1.57354e-05
2.95132e-08
-1.57516e-05
1.76535e-08
-1.57581e-05
6.50384e-09
-1.57552e-05
-2.92342e-09
-1.57444e-05
-1.26165e-08
-1.57216e-05
-2.28388e-08
-1.56876e-05
-3.39746e-08
-1.56411e-05
-4.65023e-08
-1.55844e-05
-5.67049e-08
-1.55204e-05
-6.34048e-08
-1.54503e-05
-6.94564e-08
-1.53724e-05
-7.7823e-08
-1.52856e-05
-8.78534e-08
-1.5187e-05
-9.9138e-08
-1.50781e-05
-1.08935e-07
-1.49623e-05
-1.1576e-07
-1.48409e-05
-1.21179e-07
-1.47124e-05
-1.28077e-07
-1.45753e-05
-1.37397e-07
-1.44286e-05
-1.4725e-07
-1.42749e-05
-1.53453e-07
-1.41181e-05
-1.56182e-07
-1.39571e-05
-1.61512e-07
-1.37852e-05
-1.72077e-07
-1.36037e-05
-1.81547e-07
-1.34144e-05
-1.8937e-07
-1.32187e-05
-1.95246e-07
-1.30224e-05
-1.96117e-07
-1.28239e-05
-1.98508e-07
-1.26184e-05
-2.06178e-07
-1.24027e-05
-2.15699e-07
-1.21777e-05
-2.25052e-07
-1.19468e-05
-2.30696e-07
-1.17142e-05
-2.32113e-07
-1.14818e-05
-2.32353e-07
-1.12445e-05
-2.38096e-07
-1.09995e-05
-2.44988e-07
-1.07497e-05
-2.49838e-07
-1.04934e-05
-2.56294e-07
-1.02319e-05
-2.61361e-07
-9.97189e-06
-2.59804e-07
-9.71224e-06
-2.59689e-07
-9.44682e-06
-2.65648e-07
-9.17729e-06
-2.69511e-07
-8.90437e-06
-2.72876e-07
-8.62776e-06
-2.76341e-07
-8.35129e-06
-2.76461e-07
-8.07562e-06
-2.75686e-07
-7.79746e-06
-2.7841e-07
-7.51649e-06
-2.80921e-07
-7.23652e-06
-2.79846e-07
-6.95928e-06
-2.77015e-07
-6.68074e-06
-2.78605e-07
-6.39905e-06
-2.81692e-07
-6.1138e-06
-2.85231e-07
-5.8319e-06
-2.81619e-07
-5.55556e-06
-2.76218e-07
-5.27867e-06
-2.76863e-07
-4.99835e-06
-2.80286e-07
-4.71799e-06
-2.80329e-07
-4.44088e-06
-2.77025e-07
-4.16503e-06
-2.7577e-07
-3.88927e-06
-2.75635e-07
-3.61778e-06
-2.71317e-07
-3.34727e-06
-2.70548e-07
-3.07714e-06
-2.70124e-07
-2.809e-06
-2.68099e-07
-2.54179e-06
-2.67177e-07
-2.27832e-06
-2.63429e-07
-2.01891e-06
-2.59441e-07
-1.76062e-06
-2.58307e-07
-1.50336e-06
-2.57308e-07
-1.24738e-06
-2.55997e-07
-9.9592e-07
-2.51485e-07
-7.5078e-07
-2.45171e-07
-5.11239e-07
-2.39597e-07
-2.75086e-07
-2.36217e-07
-3.97135e-08
-2.35415e-07
1.93833e-07
-2.33552e-07
4.23477e-07
-2.29623e-07
6.47251e-07
-2.23746e-07
8.63886e-07
-2.16629e-07
1.07625e-06
-2.12388e-07
1.28576e-06
-2.09592e-07
1.49214e-06
-2.06458e-07
1.69394e-06
-2.01844e-07
1.89119e-06
-1.97228e-07
2.08506e-06
-1.93841e-07
2.2756e-06
-1.90541e-07
2.46052e-06
-1.84965e-07
2.63897e-06
-1.78429e-07
2.81352e-06
-1.74503e-07
2.98476e-06
-1.71199e-07
3.15293e-06
-1.68131e-07
3.31722e-06
-1.64252e-07
3.47685e-06
-1.59619e-07
3.63124e-06
-1.54351e-07
3.77992e-06
-1.48683e-07
3.92467e-06
-1.44645e-07
4.0658e-06
-1.41106e-07
4.20354e-06
-1.37781e-07
4.33737e-06
-1.33881e-07
4.46593e-06
-1.28635e-07
4.58922e-06
-1.23315e-07
4.70884e-06
-1.19567e-07
4.82444e-06
-1.15582e-07
4.93623e-06
-1.11789e-07
5.04429e-06
-1.08066e-07
5.14752e-06
-1.03335e-07
5.24658e-06
-9.90149e-08
5.34186e-06
-9.52832e-08
5.43346e-06
-9.16037e-08
5.5215e-06
-8.80424e-08
5.60518e-06
-8.36065e-08
5.68492e-06
-7.96717e-08
5.76136e-06
-7.63931e-08
5.83464e-06
-7.32839e-08
5.904e-06
-6.9361e-08
5.9693e-06
-6.5343e-08
6.03079e-06
-6.14687e-08
6.08893e-06
-5.81499e-08
6.14419e-06
-5.52664e-08
6.19598e-06
-5.1832e-08
6.2439e-06
-4.80103e-08
6.28847e-06
-4.45887e-08
6.32995e-06
-4.14951e-08
6.36831e-06
-3.83948e-08
6.40324e-06
-3.49114e-08
6.43453e-06
-3.13041e-08
6.46271e-06
-2.81357e-08
6.48812e-06
-2.53782e-08
6.51045e-06
-2.23063e-08
6.52932e-06
-1.88577e-08
6.5449e-06
-1.55949e-08
6.55773e-06
-1.28217e-08
6.5679e-06
-1.02043e-08
6.57503e-06
-7.16095e-09
6.57896e-06
-3.95375e-09
6.57978e-06
-8.7158e-10
6.57779e-06
2.0028e-09
6.57324e-06
4.57639e-09
6.56621e-06
7.05234e-09
6.55658e-06
9.64388e-09
6.54433e-06
1.22973e-08
6.52938e-06
1.49867e-08
6.51181e-06
1.76197e-08
6.49185e-06
2.0006e-08
6.46972e-06
2.21523e-08
6.44533e-06
2.4377e-08
6.41855e-06
2.6749e-08
6.38935e-06
2.91566e-08
6.35789e-06
3.1418e-08
6.32454e-06
3.33238e-08
6.28951e-06
3.49988e-08
6.25263e-06
3.68444e-08
6.21371e-06
3.88821e-08
6.17283e-06
4.08571e-08
6.13033e-06
4.24827e-08
6.08653e-06
4.38124e-08
6.04118e-06
4.5358e-08
5.99416e-06
4.70278e-08
5.9456e-06
4.85659e-08
5.89581e-06
4.97984e-08
5.84498e-06
5.0849e-08
5.79283e-06
5.2154e-08
5.73936e-06
5.34644e-08
5.6849e-06
5.44688e-08
5.6296e-06
5.52988e-08
5.57334e-06
5.62483e-08
5.51612e-06
5.72011e-08
5.45804e-06
5.80653e-08
5.39919e-06
5.88368e-08
5.33976e-06
5.94191e-08
5.2798e-06
5.99535e-08
5.21922e-06
6.05814e-08
5.15802e-06
6.11917e-08
5.0963e-06
6.17196e-08
5.03412e-06
6.2174e-08
4.97169e-06
6.24265e-08
4.90908e-06
6.25967e-08
4.8462e-06
6.28719e-08
4.78304e-06
6.31438e-08
4.71977e-06
6.32695e-08
4.65643e-06
6.33293e-08
4.59297e-06
6.3465e-08
4.52937e-06
6.35982e-08
4.46568e-06
6.36986e-08
4.40202e-06
6.36727e-08
4.33854e-06
6.3481e-08
4.27525e-06
6.3285e-08
4.21207e-06
6.31803e-08
4.14897e-06
6.30998e-08
4.08593e-06
6.30354e-08
4.02307e-06
6.28572e-08
3.96046e-06
6.26167e-08
3.89817e-06
6.22866e-08
3.83625e-06
6.19133e-08
3.77445e-06
6.17961e-08
3.71287e-06
6.15784e-08
3.65184e-06
6.10375e-08
3.59132e-06
6.05196e-08
3.53088e-06
6.04287e-08
3.47082e-06
6.00568e-08
3.41129e-06
5.95337e-08
3.35202e-06
5.92638e-08
3.29308e-06
5.89449e-08
3.23457e-06
5.84963e-08
3.17665e-06
5.79207e-08
3.11924e-06
5.73986e-08
3.0624e-06
5.68302e-08
3.00596e-06
5.64343e-08
2.94997e-06
5.59889e-08
2.89441e-06
5.55511e-08
2.83941e-06
5.5009e-08
2.78492e-06
5.44882e-08
2.73126e-06
5.36741e-08
2.67804e-06
5.3228e-08
2.62532e-06
5.27273e-08
2.57307e-06
5.22538e-08
2.52142e-06
5.16546e-08
2.47047e-06
5.09526e-08
2.41994e-06
5.05303e-08
2.37021e-06
4.9727e-08
2.32072e-06
4.9482e-08
2.27196e-06
4.87511e-08
2.22389e-06
4.80662e-08
2.17658e-06
4.73079e-08
2.12956e-06
4.70177e-08
2.08373e-06
4.58319e-08
2.03683e-06
4.68971e-08
1.99108e-06
4.57514e-08
1.94745e-06
4.3625e-08
1.9039e-06
4.35522e-08
1.86187e-06
4.20215e-08
1.82236e-06
3.9511e-08
1.77507e-06
4.72812e-08
1.72604e-06
4.90181e-08
1.66447e-06
6.15593e-08
1.59959e-06
6.48743e-08
1.54519e-06
5.43925e-08
1.49358e-06
5.15936e-08
1.44601e-06
4.75678e-08
1.40031e-06
4.56932e-08
1.35566e-06
4.46426e-08
1.31116e-06
4.45009e-08
1.26735e-06
4.38129e-08
1.22439e-06
4.2964e-08
1.18265e-06
4.17482e-08
1.14102e-06
4.16294e-08
1.106e-06
3.50214e-08
1.07098e-06
3.50282e-08
1.02828e-06
4.2694e-08
9.92109e-07
3.61767e-08
9.45054e-07
4.70549e-08
8.88232e-07
5.6821e-08
8.12822e-07
7.54085e-08
7.38185e-07
7.46347e-08
6.82493e-07
5.56891e-08
6.28331e-07
5.41598e-08
5.82466e-07
4.58628e-08
5.37667e-07
4.47972e-08
4.96702e-07
4.09643e-08
4.5653e-07
4.01725e-08
4.20314e-07
3.62171e-08
3.8324e-07
3.7078e-08
3.49113e-07
3.41308e-08
3.17045e-07
3.20748e-08
2.84636e-07
3.24167e-08
2.51171e-07
3.34733e-08
2.23254e-07
2.79271e-08
1.84948e-07
3.83154e-08
1.5501e-07
2.99454e-08
1.35571e-07
1.94458e-08
9.53605e-08
4.02046e-08
5.57834e-08
3.95454e-08
-3.8663e-09
5.95583e-08
-1.26688e-08
8.66265e-09
-1.26839e-09
-1.16574e-08
-2.33097e-08
2.1586e-08
-5.32902e-08
2.95634e-08
-8.10015e-08
2.7331e-08
-1.12632e-07
3.12854e-08
-1.4644e-07
3.34947e-08
-1.82139e-07
3.54141e-08
-2.19154e-07
3.6756e-08
-2.57077e-07
3.76873e-08
-2.95659e-07
3.83669e-08
-3.34719e-07
3.88638e-08
-3.74038e-07
3.91397e-08
-4.13482e-07
3.9279e-08
-4.53032e-07
3.93993e-08
-4.92733e-07
3.95613e-08
-5.32571e-07
3.97083e-08
-5.7244e-07
3.97487e-08
-6.12212e-07
3.96602e-08
-6.51797e-07
3.94804e-08
-6.91176e-07
3.92808e-08
-7.3037e-07
3.91033e-08
-7.69421e-07
3.89661e-08
-8.08313e-07
3.88129e-08
-8.47026e-07
3.86391e-08
-8.85508e-07
3.84134e-08
-9.23509e-07
3.79367e-08
-9.61275e-07
3.77078e-08
-9.98716e-07
3.7387e-08
-1.03573e-06
3.69655e-08
-1.07228e-06
3.6499e-08
-1.10827e-06
3.59492e-08
-1.14364e-06
3.5329e-08
-1.17838e-06
3.47041e-08
-1.21254e-06
3.41246e-08
-1.24618e-06
3.36144e-08
-1.27937e-06
3.31633e-08
-1.31226e-06
3.28602e-08
-1.34502e-06
3.2733e-08
-1.37741e-06
3.23734e-08
-1.40961e-06
3.21786e-08
-1.44169e-06
3.20707e-08
-1.47371e-06
3.20055e-08
-1.50571e-06
3.19922e-08
-1.53773e-06
3.20075e-08
-1.56973e-06
3.19917e-08
-1.60163e-06
3.18965e-08
-1.63335e-06
3.17158e-08
-1.66478e-06
3.14225e-08
-1.69584e-06
3.10538e-08
-1.72647e-06
3.06257e-08
-1.75665e-06
3.0185e-08
-1.78645e-06
2.97971e-08
-1.81602e-06
2.95694e-08
-1.8456e-06
2.95784e-08
-1.87536e-06
2.97523e-08
-1.9052e-06
2.98368e-08
-1.93482e-06
2.96171e-08
-1.96388e-06
2.90664e-08
-1.99244e-06
2.85498e-08
-2.02104e-06
2.85994e-08
-2.05015e-06
2.91126e-08
-2.07987e-06
2.97125e-08
-2.10971e-06
2.98425e-08
-2.13879e-06
2.90757e-08
-2.16719e-06
2.8398e-08
-2.19572e-06
2.85363e-08
-2.22488e-06
2.91544e-08
-2.25422e-06
2.93385e-08
-2.28255e-06
2.83332e-08
-2.30999e-06
2.74323e-08
-2.33752e-06
2.7532e-08
-2.36545e-06
2.79364e-08
-2.39291e-06
2.74523e-08
-2.41952e-06
2.66132e-08
-2.44633e-06
2.68051e-08
-2.4743e-06
2.79713e-08
-2.50283e-06
2.85363e-08
-2.53141e-06
2.85756e-08
-2.56104e-06
2.96282e-08
-2.59292e-06
3.18804e-08
3.69158e-08
0.00010658
2.73846e-07
0.000106566
5.35227e-07
0.000106852
6.22342e-07
0.000107987
-5.66148e-07
0.00011359
-7.51748e-06
0.000123187
-1.80731e-05
0.00013084
-2.18934e-05
0.000135192
-2.0989e-05
0.000134767
-1.47164e-05
0.000131471
-4.12973e-06
0.000129217
6.28792e-06
0.000127619
1.23179e-05
0.000125864
1.36341e-05
0.000123341
1.26157e-05
0.000120279
1.01563e-05
0.000117391
7.73366e-06
0.000114897
5.68944e-06
0.000112751
4.40845e-06
0.000110857
3.89743e-06
0.000109219
3.6279e-06
0.000107831
3.24269e-06
0.000106618
2.62045e-06
0.000105448
2.21355e-06
0.000104285
1.97945e-06
0.000103208
1.85195e-06
0.000102248
1.89859e-06
0.000101328
2.30267e-06
0.000100233
2.61279e-06
9.89703e-05
2.58366e-06
9.77118e-05
2.05596e-06
9.66853e-05
1.73888e-06
9.58369e-05
1.97354e-06
9.4971e-05
2.21413e-06
9.40553e-05
2.03225e-06
9.31475e-05
1.51416e-06
9.23497e-05
1.26571e-06
9.14468e-05
1.79701e-06
9.04042e-05
2.57464e-06
8.93105e-05
2.65355e-06
8.83206e-05
2.07351e-06
8.74912e-05
1.31916e-06
8.67892e-05
1.19588e-06
8.59381e-05
1.75175e-06
8.48108e-05
2.39534e-06
8.35952e-05
2.50386e-06
8.24715e-05
2.12414e-06
8.15259e-05
1.63302e-06
8.06946e-05
1.46633e-06
7.97286e-05
1.82062e-06
7.87148e-05
2.00846e-06
7.78408e-05
1.73598e-06
7.69851e-05
1.58223e-06
7.5926e-05
1.87515e-06
7.47367e-05
2.32341e-06
7.35302e-05
2.75933e-06
7.24525e-05
2.65727e-06
7.15163e-05
2.15186e-06
7.04688e-05
1.89483e-06
6.91497e-05
2.28429e-06
6.77026e-05
2.67875e-06
6.64588e-05
2.40913e-06
6.55153e-05
1.70878e-06
6.48156e-05
9.10158e-07
6.40614e-05
6.29447e-07
6.30389e-05
9.02772e-07
6.18829e-05
1.1404e-06
6.07942e-05
9.92993e-07
5.99617e-05
3.83607e-07
5.93251e-05
-3.89007e-07
5.88466e-05
-1.14445e-06
5.86294e-05
-1.79151e-06
5.86693e-05
-2.18076e-06
5.89896e-05
-2.27563e-06
5.95616e-05
-1.92191e-06
6.02281e-05
-7.67055e-07
6.19072e-05
1.63911e-06
6.52105e-05
5.00103e-06
6.92031e-05
1.04506e-05
6.81059e-05
1.44344e-05
6.06528e-05
1.43569e-05
4.95515e-05
1.42987e-05
3.84892e-05
1.11437e-05
3.27484e-05
6.38379e-06
2.88811e-05
3.38873e-06
2.74625e-05
6.9936e-07
2.62935e-05
1.58799e-06
2.56135e-05
1.24174e-06
2.60884e-05
-1.25171e-07
2.70142e-05
-8.02037e-07
2.67692e-05
3.65147e-07
2.651e-05
2.12663e-07
2.62152e-05
-1.78346e-08
2.59054e-05
-4.35644e-08
2.57063e-05
-3.86968e-07
2.56855e-05
-8.46324e-07
2.559e-05
-1.04826e-06
2.58723e-05
-1.28213e-06
2.63515e-05
-1.43848e-06
2.78721e-05
-9.00744e-07
2.96321e-05
8.12221e-08
3.09647e-05
-1.64534e-07
3.07569e-05
8.99496e-07
2.92263e-05
1.63727e-06
2.83731e-05
1.13157e-06
2.76818e-05
7.79142e-07
2.72097e-05
3.70398e-07
2.67817e-05
5.41071e-07
2.63386e-05
6.39231e-07
2.60927e-05
5.89897e-07
2.60507e-05
3.81877e-07
2.57799e-05
6.92266e-07
2.53808e-05
8.49466e-07
2.49617e-05
9.23239e-07
2.4476e-05
1.05542e-06
2.39871e-05
1.22287e-06
2.34581e-05
1.29188e-06
2.31579e-05
1.63445e-06
2.27388e-05
1.83154e-06
2.2043e-05
1.58736e-06
2.07614e-05
1.78694e-06
1.9313e-05
1.67527e-06
1.83327e-05
1.36373e-06
1.75477e-05
1.10779e-06
1.70667e-05
7.92291e-07
1.65825e-05
9.49543e-07
1.61321e-05
9.53011e-07
1.56607e-05
9.92223e-07
1.50694e-05
1.16414e-06
1.44456e-05
1.22941e-06
1.3817e-05
1.25616e-06
1.31539e-05
1.32593e-06
1.24584e-05
1.39368e-06
1.174e-05
1.43906e-06
1.09921e-05
1.49131e-06
1.02171e-05
1.54213e-06
9.42432e-06
1.58282e-06
8.62101e-06
1.61095e-06
7.80344e-06
1.64256e-06
6.9794e-06
1.66158e-06
6.14944e-06
1.67227e-06
5.31481e-06
1.67244e-06
4.47888e-06
1.66963e-06
3.65167e-06
1.66326e-06
2.84128e-06
1.6373e-06
2.04603e-06
1.60176e-06
1.26104e-06
1.56735e-06
4.89298e-07
1.53922e-06
-2.63265e-07
1.50468e-06
-9.89377e-07
1.45707e-06
-1.68859e-06
1.4016e-06
-2.36786e-06
1.34994e-06
-3.03034e-06
1.31403e-06
-3.67556e-06
1.2814e-06
-4.30022e-06
1.24427e-06
-4.89813e-06
1.19813e-06
-5.4763e-06
1.15694e-06
-6.03897e-06
1.11921e-06
-6.58685e-06
1.09032e-06
-7.11769e-06
1.05919e-06
-7.63008e-06
1.0202e-06
-8.12224e-06
9.79807e-07
-8.59682e-06
9.46492e-07
-9.05673e-06
9.19401e-07
-9.50138e-06
8.8761e-07
-9.92666e-06
8.47298e-07
-1.03333e-05
8.10451e-07
-1.07256e-05
7.84201e-07
-1.11039e-05
7.58535e-07
-1.14677e-05
7.24037e-07
-1.18113e-05
6.84104e-07
-1.21377e-05
6.50774e-07
-1.24498e-05
6.25278e-07
-1.27492e-05
5.9934e-07
-1.30329e-05
5.69155e-07
-1.3302e-05
5.34786e-07
-1.35536e-05
5.00178e-07
-1.37892e-05
4.71873e-07
-1.40129e-05
4.47192e-07
-1.42208e-05
4.17815e-07
-1.44139e-05
3.88414e-07
-1.45956e-05
3.60336e-07
-1.47641e-05
3.35058e-07
-1.49189e-05
3.10897e-07
-1.50611e-05
2.8502e-07
-1.51879e-05
2.52992e-07
-1.53002e-05
2.21493e-07
-1.5398e-05
1.97508e-07
-1.54849e-05
1.76081e-07
-1.55601e-05
1.52863e-07
-1.56257e-05
1.30875e-07
-1.56806e-05
1.06778e-07
-1.57232e-05
8.282e-08
-1.57538e-05
5.96191e-08
-1.57699e-05
3.41292e-08
-1.5773e-05
1.10127e-08
-1.57672e-05
-8.69757e-09
-1.57529e-05
-2.69766e-08
-1.573e-05
-4.58626e-08
-1.5698e-05
-6.75995e-08
-1.56522e-05
-9.23853e-08
-1.55956e-05
-1.12802e-07
-1.5531e-05
-1.27237e-07
-1.54593e-05
-1.41087e-07
-1.53786e-05
-1.58604e-07
-1.52878e-05
-1.78908e-07
-1.51891e-05
-1.98931e-07
-1.50816e-05
-2.16453e-07
-1.49662e-05
-2.30212e-07
-1.48442e-05
-2.43168e-07
-1.47136e-05
-2.58734e-07
-1.45744e-05
-2.77158e-07
-1.44279e-05
-2.94321e-07
-1.42751e-05
-3.05713e-07
-1.41167e-05
-3.13689e-07
-1.39516e-05
-3.26674e-07
-1.37789e-05
-3.45485e-07
-1.35982e-05
-3.62928e-07
-1.341e-05
-3.77456e-07
-1.32155e-05
-3.89275e-07
-1.30165e-05
-3.94453e-07
-1.28141e-05
-4.00813e-07
-1.26063e-05
-4.14035e-07
-1.23913e-05
-4.31599e-07
-1.2168e-05
-4.48373e-07
-1.19403e-05
-4.5842e-07
-1.17075e-05
-4.64093e-07
-1.14715e-05
-4.68393e-07
-1.1231e-05
-4.78574e-07
-1.09863e-05
-4.89704e-07
-1.0737e-05
-4.99625e-07
-1.04832e-05
-5.10358e-07
-1.02249e-05
-5.19617e-07
-9.96335e-06
-5.20868e-07
-9.70098e-06
-5.22016e-07
-9.43597e-06
-5.30675e-07
-9.16733e-06
-5.38064e-07
-8.89488e-06
-5.45638e-07
-8.61916e-06
-5.5227e-07
-8.34185e-06
-5.53568e-07
-8.06522e-06
-5.52323e-07
-7.78981e-06
-5.53914e-07
-7.51388e-06
-5.56702e-07
-7.23517e-06
-5.58003e-07
-6.95546e-06
-5.56664e-07
-6.67416e-06
-5.59806e-07
-6.39348e-06
-5.62513e-07
-6.11227e-06
-5.66421e-07
-5.8309e-06
-5.62584e-07
-5.55204e-06
-5.54968e-07
-5.27549e-06
-5.53277e-07
-4.99731e-06
-5.58438e-07
-4.71812e-06
-5.59436e-07
-4.44122e-06
-5.53825e-07
-4.16728e-06
-5.49678e-07
-3.89413e-06
-5.4863e-07
-3.62091e-06
-5.44443e-07
-3.34803e-06
-5.43414e-07
-3.0771e-06
-5.41041e-07
-2.80902e-06
-5.36244e-07
-2.545e-06
-5.31299e-07
-2.28463e-06
-5.23821e-07
-2.02428e-06
-5.19855e-07
-1.76389e-06
-5.18733e-07
-1.50631e-06
-5.15051e-07
-1.25187e-06
-5.10574e-07
-1.00206e-06
-5.01365e-07
-7.57111e-07
-4.9019e-07
-5.15794e-07
-4.80925e-07
-2.77764e-07
-4.74261e-07
-4.17866e-08
-4.71438e-07
1.91018e-07
-4.6642e-07
4.19144e-07
-4.57838e-07
6.42483e-07
-4.47192e-07
8.61612e-07
-4.35826e-07
1.07647e-06
-4.27249e-07
1.28698e-06
-4.20042e-07
1.49273e-06
-4.12151e-07
1.69436e-06
-4.03465e-07
1.89249e-06
-3.954e-07
2.08692e-06
-3.88308e-07
2.2773e-06
-3.80901e-07
2.46259e-06
-3.70266e-07
2.64232e-06
-3.5814e-07
2.81788e-06
-3.50026e-07
2.99007e-06
-3.4335e-07
3.15852e-06
-3.36451e-07
3.32222e-06
-3.27938e-07
3.48112e-06
-3.18513e-07
3.63566e-06
-3.08964e-07
3.78573e-06
-2.98813e-07
3.93155e-06
-2.90462e-07
4.07322e-06
-2.82779e-07
4.21052e-06
-2.75017e-07
4.34334e-06
-2.66714e-07
4.47181e-06
-2.57165e-07
4.59619e-06
-2.47675e-07
4.71665e-06
-2.4003e-07
4.8325e-06
-2.31433e-07
4.94356e-06
-2.22775e-07
5.05081e-06
-2.15334e-07
5.15467e-06
-2.07187e-07
5.25466e-06
-1.98983e-07
5.35026e-06
-1.90874e-07
5.44134e-06
-1.82637e-07
5.52878e-06
-1.75587e-07
5.61297e-06
-1.67851e-07
5.69328e-06
-1.60022e-07
5.76966e-06
-1.52736e-07
5.84241e-06
-1.45971e-07
5.91135e-06
-1.38362e-07
5.97687e-06
-1.30834e-07
6.03886e-06
-1.23466e-07
6.09707e-06
-1.16336e-07
6.15187e-06
-1.10034e-07
6.20338e-06
-1.03407e-07
6.25162e-06
-9.62574e-08
6.29636e-06
-8.93538e-08
6.33762e-06
-8.27471e-08
6.37553e-06
-7.63305e-08
6.4102e-06
-6.96701e-08
6.44184e-06
-6.29517e-08
6.47032e-06
-5.6611e-08
6.49555e-06
-5.06119e-08
6.51742e-06
-4.42123e-08
6.53609e-06
-3.76142e-08
6.5519e-06
-3.14272e-08
6.56476e-06
-2.57464e-08
6.57464e-06
-2.01375e-08
6.58143e-06
-1.40007e-08
6.58517e-06
-7.768e-09
6.58614e-06
-1.8223e-09
6.58434e-06
3.81898e-09
6.5798e-06
9.18227e-09
6.57255e-06
1.43729e-08
6.56261e-06
1.96282e-08
6.55013e-06
2.48367e-08
6.53507e-06
3.00668e-08
6.51749e-06
3.52312e-08
6.49743e-06
4.00716e-08
6.47496e-06
4.45985e-08
6.45019e-06
4.91015e-08
6.42317e-06
5.36941e-08
6.39387e-06
5.83496e-08
6.36252e-06
6.27197e-08
6.32916e-06
6.66078e-08
6.29386e-06
7.02413e-08
6.25661e-06
7.40461e-08
6.21746e-06
7.79715e-08
6.1766e-06
8.16932e-08
6.13408e-06
8.49965e-08
6.08995e-06
8.79437e-08
6.04423e-06
9.10779e-08
5.99705e-06
9.42174e-08
5.94848e-06
9.71402e-08
5.89856e-06
9.97373e-08
5.84737e-06
1.02054e-07
5.79501e-06
1.04515e-07
5.74158e-06
1.06893e-07
5.68708e-06
1.08969e-07
5.63147e-06
1.10894e-07
5.57482e-06
1.12884e-07
5.51741e-06
1.14583e-07
5.45933e-06
1.16124e-07
5.40046e-06
1.17693e-07
5.34089e-06
1.18993e-07
5.28066e-06
1.20187e-07
5.21983e-06
1.21403e-07
5.15854e-06
1.22464e-07
5.09682e-06
1.23435e-07
5.03465e-06
1.24338e-07
4.97215e-06
1.24925e-07
4.90937e-06
1.25364e-07
4.84638e-06
1.25854e-07
4.78313e-06
1.26389e-07
4.71967e-06
1.26727e-07
4.65608e-06
1.2693e-07
4.59243e-06
1.27128e-07
4.52881e-06
1.27223e-07
4.46519e-06
1.27333e-07
4.40152e-06
1.2735e-07
4.33788e-06
1.27126e-07
4.27438e-06
1.26786e-07
4.21104e-06
1.26524e-07
4.1478e-06
1.26334e-07
4.08465e-06
1.26177e-07
4.0218e-06
1.25708e-07
3.95922e-06
1.25198e-07
3.89686e-06
1.24644e-07
3.83478e-06
1.23992e-07
3.77301e-06
1.2356e-07
3.71159e-06
1.22994e-07
3.6505e-06
1.22136e-07
3.5897e-06
1.21317e-07
3.52917e-06
1.20952e-07
3.46911e-06
1.2011e-07
3.40946e-06
1.19178e-07
3.35024e-06
1.18475e-07
3.29142e-06
1.17758e-07
3.23297e-06
1.16938e-07
3.17495e-06
1.15925e-07
3.11744e-06
1.14895e-07
3.0604e-06
1.13859e-07
3.00388e-06
1.1295e-07
2.94785e-06
1.12012e-07
2.89238e-06
1.11026e-07
2.8374e-06
1.09995e-07
2.78296e-06
1.08943e-07
2.72919e-06
1.07458e-07
2.67595e-06
1.06479e-07
2.62336e-06
1.05324e-07
2.57122e-06
1.0441e-07
2.51971e-06
1.03158e-07
2.46857e-06
1.02101e-07
2.41813e-06
1.0096e-07
2.36839e-06
9.94621e-08
2.3194e-06
9.84608e-08
2.27077e-06
9.73752e-08
2.22305e-06
9.5788e-08
2.17393e-06
9.64196e-08
2.12637e-06
9.45736e-08
2.08024e-06
9.1966e-08
2.03505e-06
9.20864e-08
1.99323e-06
8.75625e-08
1.9519e-06
8.49522e-08
1.90157e-06
9.38804e-08
1.84842e-06
9.51651e-08
1.78694e-06
1.00978e-07
1.72555e-06
1.08658e-07
1.66992e-06
1.04628e-07
1.61842e-06
1.13048e-07
1.57554e-06
1.07735e-07
1.53062e-06
9.93031e-08
1.4863e-06
9.59008e-08
1.4401e-06
9.37505e-08
1.39482e-06
9.09679e-08
1.34836e-06
9.10981e-08
1.30367e-06
8.91994e-08
1.26056e-06
8.69244e-08
1.22369e-06
7.98361e-08
1.18728e-06
7.81588e-08
1.14194e-06
8.69674e-08
1.09769e-06
7.92774e-08
1.04204e-06
9.067e-08
9.82897e-07
1.01836e-07
9.04809e-07
1.14258e-07
8.31879e-07
1.19975e-07
7.76766e-07
1.11925e-07
7.31879e-07
1.20284e-07
6.93825e-07
1.12674e-07
6.50272e-07
9.92264e-08
6.07755e-07
9.66594e-08
5.66302e-07
8.72995e-08
5.24156e-07
8.69287e-08
4.85124e-07
7.9985e-08
4.48759e-07
7.65232e-08
4.14588e-07
7.03731e-08
3.8158e-07
7.00715e-08
3.45866e-07
6.98312e-08
3.15755e-07
6.21717e-08
2.73549e-07
7.46116e-08
2.39148e-07
6.78602e-08
2.16967e-07
5.00932e-08
1.83189e-07
7.20858e-08
1.51705e-07
6.14314e-08
8.73594e-08
8.38229e-08
1.03162e-07
2.44702e-08
9.83013e-08
4.45844e-08
7.43423e-08
8.38753e-08
3.24986e-08
5.09707e-08
-1.12984e-08
3.28314e-08
-3.61634e-08
4.71187e-08
-6.73666e-08
6.13953e-08
-1.01287e-07
6.18337e-08
-1.35473e-07
6.60072e-08
-1.70895e-07
6.94086e-08
-2.07387e-07
7.23561e-08
-2.44651e-07
7.44321e-08
-2.82528e-07
7.59425e-08
-3.2096e-07
7.71448e-08
-3.59796e-07
7.80185e-08
-3.98832e-07
7.84673e-08
-4.37963e-07
7.86786e-08
-4.77177e-07
7.88602e-08
-5.16405e-07
7.90157e-08
-5.55533e-07
7.90454e-08
-5.94484e-07
7.88915e-08
-6.33193e-07
7.85461e-08
-6.71769e-07
7.82188e-08
-7.10207e-07
7.78705e-08
-7.48551e-07
7.75881e-08
-7.86822e-07
7.73688e-08
-8.25003e-07
7.7116e-08
-8.63022e-07
7.67726e-08
-9.0078e-07
7.62779e-08
-9.38534e-07
7.57901e-08
-9.75836e-07
7.5103e-08
-1.01272e-06
7.43532e-08
-1.04931e-06
7.36352e-08
-1.0856e-06
7.28623e-08
-1.12148e-06
7.18936e-08
-1.1569e-06
7.08105e-08
-1.19191e-06
6.97612e-08
-1.22655e-06
6.88114e-08
-1.26086e-06
6.79643e-08
-1.29479e-06
6.71313e-08
-1.32825e-06
6.63451e-08
-1.36112e-06
6.56342e-08
-1.39398e-06
6.52523e-08
-1.42662e-06
6.4841e-08
-1.45904e-06
6.45079e-08
-1.49131e-06
6.42882e-08
-1.52346e-06
6.41597e-08
-1.55549e-06
6.4047e-08
-1.58735e-06
6.38639e-08
-1.61899e-06
6.35496e-08
-1.65037e-06
6.30972e-08
-1.68147e-06
6.25348e-08
-1.7123e-06
6.18896e-08
-1.74284e-06
6.11665e-08
-1.77305e-06
6.03966e-08
-1.80295e-06
5.96993e-08
-1.83261e-06
5.92348e-08
-1.86219e-06
5.91594e-08
-1.89179e-06
5.93435e-08
-1.92133e-06
5.93831e-08
-1.95065e-06
5.89363e-08
-1.9797e-06
5.81165e-08
-2.00869e-06
5.75346e-08
-2.03778e-06
5.76896e-08
-2.06731e-06
5.8644e-08
-2.09684e-06
5.92449e-08
-2.12558e-06
5.85831e-08
-2.15388e-06
5.73721e-08
-2.18237e-06
5.68913e-08
-2.21136e-06
5.75325e-08
-2.24039e-06
5.81929e-08
-2.26864e-06
5.75941e-08
-2.29628e-06
5.59784e-08
-2.32426e-06
5.54153e-08
-2.35264e-06
5.59156e-08
-2.3807e-06
5.60109e-08
-2.40811e-06
5.48633e-08
-2.43581e-06
5.43299e-08
-2.46426e-06
5.52665e-08
-2.49269e-06
5.64103e-08
-2.52079e-06
5.66434e-08
-2.54842e-06
5.62226e-08
-2.57527e-06
5.64898e-08
-2.60223e-06
5.88512e-08
6.45236e-08
0.000106654
3.41281e-07
0.00010663
5.59265e-07
0.000106828
4.25043e-07
0.000107462
-1.19942e-06
0.000108855
-8.91039e-06
0.000108652
-1.78692e-05
0.000106912
-2.01524e-05
0.000104095
-1.81719e-05
9.89746e-05
-9.59675e-06
9.56579e-05
-8.13783e-07
9.69338e-05
5.0113e-06
0.000100656
8.59523e-06
0.000104421
9.86934e-06
0.000107436
9.60028e-06
0.00010899
8.60277e-06
0.000109431
7.29228e-06
0.000109146
5.97453e-06
0.000108439
5.11467e-06
0.000107618
4.71451e-06
0.000106882
4.35877e-06
0.000106204
3.91548e-06
0.000105322
3.47833e-06
0.000104277
3.2599e-06
0.000103109
3.14659e-06
0.000102067
2.92115e-06
0.000101318
2.64195e-06
0.000100764
2.81896e-06
9.9996e-05
3.36068e-06
9.88114e-05
3.76701e-06
9.73802e-05
3.48835e-06
9.62918e-05
2.8815e-06
9.55723e-05
2.67034e-06
9.50077e-05
2.77886e-06
9.42022e-05
2.85491e-06
9.31339e-05
2.59941e-06
9.21156e-05
2.281e-06
9.12883e-05
2.59679e-06
9.06415e-05
3.17827e-06
8.99666e-05
3.36498e-06
8.90485e-05
3.02349e-06
8.79542e-05
2.4206e-06
8.69363e-05
2.2105e-06
8.59994e-05
2.64912e-06
8.50112e-05
3.38027e-06
8.3893e-05
3.6221e-06
8.27282e-05
3.31526e-06
8.15298e-05
2.85021e-06
8.03816e-05
2.60295e-06
7.93694e-05
2.82149e-06
7.84226e-05
2.95614e-06
7.74439e-05
2.72091e-06
7.64774e-05
2.53656e-06
7.54751e-05
2.85497e-06
7.44465e-05
3.35253e-06
7.3623e-05
3.58306e-06
7.28713e-05
3.43182e-06
7.18866e-05
3.15679e-06
7.05817e-05
3.18473e-06
6.91371e-05
3.70949e-06
6.78385e-05
3.97701e-06
6.67555e-05
3.51619e-06
6.57598e-05
2.71954e-06
6.46934e-05
1.97645e-06
6.34818e-05
1.83672e-06
6.21769e-05
2.18899e-06
6.10121e-05
2.30529e-06
5.99125e-05
2.10105e-06
5.86028e-05
1.708e-06
5.69776e-05
1.23597e-06
5.52326e-05
5.96079e-07
5.35596e-05
-1.19286e-07
5.20566e-05
-6.77955e-07
5.07446e-05
-9.62045e-07
4.95213e-05
-7.00603e-07
4.85982e-05
1.38677e-07
4.88131e-05
1.42446e-06
5.07963e-05
3.01784e-06
5.56066e-05
5.64038e-06
6.1362e-05
8.69471e-06
6.64925e-05
9.24037e-06
6.91309e-05
1.16627e-05
6.63015e-05
1.39733e-05
5.91979e-05
1.34874e-05
4.87462e-05
1.38388e-05
3.8195e-05
1.12436e-05
3.28318e-05
6.95112e-06
2.84257e-05
5.64893e-06
2.6458e-05
1.84653e-06
2.54552e-05
2.00945e-07
2.50214e-05
7.98897e-07
2.54929e-05
-2.62279e-07
2.62535e-05
-7.7834e-07
2.59103e-05