/*--------------------------------*- C++ -*----------------------------------*\
| =========                 |                                                 |
| \\      /  F ield         | OpenFOAM: The Open Source CFD Toolbox           |
|  \\    /   O peration     | Version:  v2006                                 |
|   \\  /    A nd           | Website:  www.openfoam.com                      |
|    \\/     M anipulation  |                                                 |
\*---------------------------------------------------------------------------*/
FoamFile
{
    version     2.0;
    format      ascii;
    class       volScalarField;
    location    "4.6";
    object      p;
}
// * * * * * * * * * * * * * * * * * * * * * * * * * * * * * * * * * * * * * //

dimensions      [1 -1 -2 0 0 0 0];


internalField   nonuniform List<scalar> 
33000
(
7942.15
7952.78
7962.94
7972.89
7983.17
7993.23
8001.96
8009.33
8015.5
8021.69
8029.17
8038.21
8047.53
8055.6
8062.74
8069.48
8075.74
8081.67
8087.33
8092.7
8097.78
8102.6
8107.17
8111.48
8115.53
8119.29
8122.8
8126.08
8129.1
8131.86
8134.36
8136.61
8138.64
8140.42
8141.96
8143.2
8144.21
8145.04
8145.66
8145.98
8146.08
8145.92
8145.57
8145
8144.2
8143.17
8141.91
8140.44
8138.74
8136.84
8134.76
8132.46
8129.94
8127.23
8124.34
8121.27
8118.03
8114.61
8111
8107.21
8103.27
8099.17
8094.92
8090.52
8085.96
8081.29
8076.54
8071.71
8066.77
8061.74
8056.66
8051.59
8046.59
8041.82
8037.43
8033.66
8030.94
8027.53
8016.94
7998
8000.43
7987.73
7980.64
7972.86
7964.33
7954.17
7946.1
7937.34
7928.58
7919.23
7910.43
7901.32
7892.26
7883.18
7874.75
7865.89
7858.69
7850.56
7847.45
7837.13
7817.83
7805.05
7791
7776.43
7762.41
7747.66
7731.92
7716.54
7700.83
7685.54
7670.04
7654.81
7639.78
7624.73
7610.59
7596.07
7584.59
7569.31
7549.04
7533.07
7516.24
7499.51
7483.48
7467.3
7451.01
7435.34
7420.01
7405.07
7390.62
7376.63
7363.1
7350.08
7337.58
7325.6
7314.12
7303.15
7292.68
7282.68
7273.16
7264.08
7255.43
7247.17
7239.28
7231.74
7224.52
7217.59
7210.93
7204.51
7198.31
7192.38
7186.73
7181.39
7176.38
7171.73
7167.46
7163.59
7160.14
7157.11
7154.52
7152.38
7150.69
7149.47
7148.71
7148.43
7148.63
7149.29
7150.42
7152.01
7154.08
7156.61
7159.58
7162.99
7166.84
7171.11
7175.81
7180.9
7186.38
7192.23
7198.45
7205.01
7211.91
7219.13
7226.64
7234.44
7242.51
7250.84
7259.39
7268.16
7277.13
7286.29
7295.62
7305.1
7314.71
7324.45
7334.29
7344.21
7354.22
7364.28
7374.4
7384.55
7394.71
7404.88
7415.04
7425.18
7435.3
7445.39
7455.42
7465.4
7475.3
7485.13
7494.89
7504.55
7514.11
7523.57
7532.93
7542.18
7551.32
7560.33
7569.21
7577.96
7586.58
7595.07
7603.44
7611.67
7619.75
7627.7
7635.5
7643.17
7650.7
7658.09
7665.34
7672.45
7679.42
7686.25
7692.96
7699.53
7705.97
7712.28
7718.47
7724.52
7730.46
7736.27
7741.97
7747.55
7753.02
7758.39
7763.64
7768.79
7773.84
7778.78
7783.64
7788.39
7793.06
7797.62
7802.1
7806.49
7810.8
7815.02
7819.15
7823.21
7827.18
7831.07
7834.88
7838.62
7842.28
7845.86
7849.37
7852.81
7856.17
7859.47
7862.7
7865.86
7868.94
7871.94
7874.87
7877.71
7880.46
7883.11
7885.67
7888.13
7890.5
7892.75
7894.9
7896.94
7898.88
7900.7
7902.41
7904.01
7905.5
7906.87
7908.13
7909.27
7910.3
7911.22
7912.03
7912.72
7913.3
7913.77
7914.14
7914.39
7914.54
7914.59
7914.53
7914.37
7914.12
7913.77
7913.33
7912.8
7912.18
7911.47
7910.68
7909.81
7908.87
7907.85
7906.76
7905.6
7904.38
7903.09
7901.74
7900.33
7898.86
7897.35
7895.78
7894.17
7892.51
7890.81
7889.08
7887.31
7885.51
7883.69
7881.83
7879.96
7878.06
7876.15
7874.22
7872.28
7870.33
7868.37
7866.4
7864.43
7862.46
7860.49
7858.52
7856.55
7854.59
7852.63
7850.68
7848.74
7846.82
7844.9
7843.01
7841.13
7839.27
7837.42
7835.6
7833.8
7832.02
7830.26
7828.53
7826.81
7825.13
7823.46
7821.82
7820.2
7818.61
7817.04
7815.5
7813.98
7812.49
7811.03
7809.59
7808.17
7806.78
7805.42
7804.08
7802.76
7801.47
7800.21
7798.97
7797.75
7796.56
7795.39
7794.25
7793.12
7792.03
7790.95
7789.89
7788.86
7787.85
7786.86
7785.88
7784.93
7784
7783.09
7782.19
7781.32
7780.46
7779.61
7778.79
7777.98
7777.19
7776.41
7775.65
7774.91
7774.18
7773.47
7772.76
7772.08
7771.41
7770.75
7770.1
7769.47
7768.85
7768.24
7767.64
7767.05
7766.47
7765.91
7765.35
7764.8
7764.27
7763.74
7763.23
7762.71
7762.21
7761.73
7761.25
7760.77
7760.32
7759.82
7759.39
7759.01
7758.58
7758.18
7757.76
7757.34
7756.93
7756.51
7756.1
7755.69
7755.28
7754.88
7754.48
7754.08
7753.68
7753.29
7752.9
7752.51
7752.13
7751.76
7751.39
7751.02
7750.65
7750.29
7749.92
7749.57
7749.2
7748.85
7748.5
7748.16
7747.81
7747.48
7747.13
7746.81
7746.51
7746.2
7745.89
7745.64
7745.19
7744.96
7744.88
7744.59
7744.37
7744.14
7743.9
7743.66
7743.41
7743.16
7742.9
7742.65
7742.39
7742.13
7741.88
7741.62
7741.36
7741.1
7740.85
7740.59
7740.34
7740.08
7739.83
7739.58
7739.32
7739.07
7738.83
7738.58
7738.33
7738.09
7737.84
7737.6
7737.36
7737.13
7736.89
7736.65
7736.42
7736.19
7735.96
7735.73
7735.51
7735.29
7735.07
7734.85
7734.63
7734.41
7734.2
7733.99
7733.78
7733.58
7733.37
7733.17
7732.97
7732.77
7732.58
7732.39
7732.2
7732.01
7731.82
7731.64
7731.46
7731.28
7731.1
7730.93
7730.76
7730.59
7730.42
7730.26
7730.1
7729.94
7729.78
7729.63
7729.48
7729.33
7729.18
7729.04
7728.89
7728.76
7728.62
7728.49
7728.35
7728.21
7746.38
7757.01
7767.11
7776.92
7786.49
7795.64
7802.64
7809.01
7814.68
7819.92
7828.03
7839.31
7850.02
7859.01
7867.02
7874.01
7880.25
7886.16
7891.8
7897.17
7902.26
7907.08
7911.63
7915.93
7919.97
7923.75
7927.28
7930.55
7933.56
7936.31
7938.82
7941.09
7943.09
7944.85
7946.38
7947.63
7948.64
7949.47
7950.05
7950.35
7950.45
7950.3
7949.92
7949.36
7948.55
7947.51
7946.25
7944.77
7943.07
7941.17
7939.08
7936.77
7934.24
7931.53
7928.65
7925.58
7922.31
7918.85
7915.21
7911.42
7907.48
7903.36
7899.09
7894.66
7890.09
7885.41
7880.6
7875.7
7870.69
7865.56
7860.33
7854.97
7849.51
7843.99
7838.43
7832.85
7827.61
7821.91
7815.55
7811.36
7808.67
7797.97
7775.33
7777.74
7766.67
7759.03
7750.7
7742.5
7733.41
7722.64
7714.4
7704.56
7695.52
7686.06
7677.16
7667.48
7658.63
7649.61
7640.01
7631.04
7620.73
7615.29
7602.51
7581.27
7566.15
7550.3
7535.13
7520.29
7505.53
7490.49
7474.41
7458.72
7443.25
7427.78
7412.77
7397.63
7382.9
7368.01
7352.22
7340.22
7323.85
7303.39
7286.83
7270.5
7254.51
7239.12
7223.85
7208.65
7194.13
7180.09
7166.53
7153.49
7140.97
7128.94
7117.43
7106.44
7095.95
7085.95
7076.42
7067.33
7058.67
7050.4
7042.5
7034.96
7027.72
7020.78
7014.1
7007.67
7001.47
6995.53
6989.86
6984.5
6979.48
6974.82
6970.55
6966.66
6963.19
6960.15
6957.55
6955.41
6953.72
6952.5
6951.75
6951.47
6951.66
6952.34
6953.47
6955.08
6957.16
6959.69
6962.68
6966.11
6969.98
6974.27
6978.98
6984.09
6989.59
6995.47
7001.71
7008.29
7015.21
7022.45
7029.98
7037.81
7045.9
7054.25
7062.83
7071.62
7080.61
7089.79
7099.13
7108.63
7118.27
7128.04
7137.9
7147.85
7157.86
7167.94
7178.07
7188.24
7198.42
7208.6
7218.78
7228.94
7239.07
7249.16
7259.21
7269.19
7279.11
7288.95
7298.71
7308.38
7317.95
7327.42
7336.78
7346.03
7355.17
7364.18
7373.07
7381.82
7390.45
7398.94
7407.3
7415.53
7423.62
7431.56
7439.37
7447.04
7454.56
7461.95
7469.2
7476.31
7483.29
7490.12
7496.83
7503.4
7509.84
7516.15
7522.34
7528.39
7534.33
7540.14
7545.85
7551.43
7556.91
7562.27
7567.53
7572.68
7577.73
7582.68
7587.53
7592.29
7596.96
7601.53
7606.01
7610.41
7614.72
7618.94
7623.08
7627.13
7631.11
7635
7638.82
7642.56
7646.22
7649.81
7653.32
7656.76
7660.13
7663.43
7666.67
7669.83
7672.91
7675.92
7678.85
7681.69
7684.45
7687.11
7689.67
7692.14
7694.5
7696.76
7698.92
7700.96
7702.9
7704.72
7706.44
7708.03
7709.52
7710.89
7712.15
7713.29
7714.32
7715.24
7716.04
7716.73
7717.31
7717.78
7718.14
7718.4
7718.54
7718.59
7718.53
7718.37
7718.11
7717.76
7717.31
7716.77
7716.15
7715.44
7714.64
7713.77
7712.82
7711.8
7710.7
7709.54
7708.31
7707.01
7705.65
7704.24
7702.77
7701.25
7699.68
7698.06
7696.4
7694.7
7692.96
7691.19
7689.38
7687.55
7685.69
7683.81
7681.91
7679.99
7678.06
7676.11
7674.16
7672.19
7670.22
7668.25
7666.28
7664.3
7662.32
7660.35
7658.39
7656.43
7654.48
7652.54
7650.61
7648.69
7646.79
7644.91
7643.05
7641.21
7639.38
7637.58
7635.8
7634.04
7632.3
7630.59
7628.9
7627.23
7625.59
7623.97
7622.38
7620.81
7619.27
7617.75
7616.26
7614.8
7613.36
7611.94
7610.55
7609.18
7607.84
7606.53
7605.24
7603.98
7602.74
7601.52
7600.33
7599.16
7598.02
7596.9
7595.8
7594.72
7593.67
7592.63
7591.62
7590.63
7589.66
7588.71
7587.78
7586.86
7585.97
7585.09
7584.23
7583.39
7582.57
7581.76
7580.97
7580.19
7579.43
7578.69
7577.96
7577.25
7576.55
7575.86
7575.19
7574.53
7573.88
7573.25
7572.63
7572.02
7571.42
7570.84
7570.26
7569.69
7569.13
7568.59
7568.05
7567.53
7567.02
7566.51
7566
7565.51
7564.99
7564.52
7564.13
7563.68
7563.26
7562.83
7562.41
7561.99
7561.57
7561.15
7560.73
7560.31
7559.9
7559.49
7559.08
7558.68
7558.27
7557.87
7557.46
7557.08
7556.7
7556.32
7555.93
7555.56
7555.18
7554.82
7554.44
7554.08
7553.72
7553.36
7553
7552.64
7552.3
7551.92
7551.6
7551.27
7550.95
7550.61
7550.31
7549.85
7549.57
7549.41
7549.17
7548.93
7548.71
7548.46
7548.22
7547.97
7547.72
7547.47
7547.22
7546.96
7546.71
7546.45
7546.19
7545.94
7545.68
7545.42
7545.16
7544.9
7544.65
7544.39
7544.14
7543.88
7543.63
7543.37
7543.12
7542.87
7542.62
7542.38
7542.13
7541.88
7541.64
7541.4
7541.16
7540.92
7540.68
7540.45
7540.22
7539.99
7539.76
7539.53
7539.3
7539.08
7538.86
7538.64
7538.42
7538.21
7538
7537.79
7537.58
7537.37
7537.17
7536.97
7536.77
7536.57
7536.37
7536.18
7535.99
7535.8
7535.62
7535.43
7535.25
7535.07
7534.9
7534.72
7534.55
7534.38
7534.22
7534.05
7533.89
7533.73
7533.58
7533.42
7533.27
7533.12
7532.97
7532.83
7532.69
7532.55
7532.41
7532.28
7532.14
7532.01
7551.36
7561.96
7572.01
7581.64
7591.51
7601.23
7608.91
7615.26
7621.93
7628.13
7636.12
7645.46
7654.72
7663.35
7671.21
7678.21
7684.71
7690.8
7696.55
7702
7707.17
7712.04
7716.63
7720.95
7724.99
7728.78
7732.31
7735.6
7738.62
7741.37
7743.86
7746.13
7748.14
7749.87
7751.39
7752.67
7753.67
7754.48
7754.99
7755.29
7755.41
7755.27
7754.86
7754.26
7753.44
7752.38
7751.11
7749.63
7747.92
7746
7743.88
7741.56
7739.03
7736.3
7733.38
7730.29
7727
7723.51
7719.86
7716.05
7712.06
7707.9
7703.59
7699.13
7694.53
7689.79
7684.91
7679.92
7674.8
7669.57
7664.2
7658.71
7653.11
7647.4
7641.55
7635.58
7629.54
7623.51
7617.58
7611.36
7604.17
7596.76
7592.09
7588.71
7577.1
7553.83
7553.42
7545.37
7536.8
7526.93
7518.77
7509.12
7498.29
7489.41
7479.62
7470.04
7460.39
7450.86
7440.7
7430.35
7418.55
7406.8
7395.51
7384.06
7376.89
7362.99
7341.39
7325.04
7308.29
7293.25
7277.61
7262.85
7247.47
7231.41
7215.83
7200.24
7184.88
7169.28
7153.08
7137.35
7121.82
7106.13
7093.62
7077.58
7058.06
7042.12
7026.81
7011.82
6997.45
6983.39
6969.59
6956.46
6943.88
6931.79
6920.25
6909.21
6898.68
6888.65
6879.08
6869.97
6861.26
6852.97
6845.03
6837.46
6830.18
6823.22
6816.51
6810.06
6803.85
6797.9
6792.21
6786.84
6781.81
6777.13
6772.84
6768.95
6765.46
6762.41
6759.81
6757.65
6755.96
6754.75
6754
6753.73
6753.93
6754.62
6755.77
6757.4
6759.5
6762.06
6765.08
6768.54
6772.44
6776.77
6781.51
6786.66
6792.2
6798.12
6804.4
6811.03
6817.99
6825.27
6832.86
6840.73
6848.86
6857.25
6865.87
6874.71
6883.75
6892.97
6902.36
6911.9
6921.58
6931.39
6941.29
6951.28
6961.34
6971.46
6981.62
6991.81
7002.02
7012.24
7022.44
7032.63
7042.78
7052.9
7062.96
7072.97
7082.91
7092.77
7102.54
7112.22
7121.81
7131.29
7140.66
7149.92
7159.06
7168.08
7176.97
7185.74
7194.37
7202.87
7211.23
7219.45
7227.54
7235.49
7243.3
7250.97
7258.49
7265.88
7273.13
7280.24
7287.22
7294.06
7300.76
7307.33
7313.77
7320.09
7326.27
7332.33
7338.27
7344.09
7349.8
7355.39
7360.87
7366.23
7371.5
7376.65
7381.71
7386.67
7391.53
7396.29
7400.96
7405.54
7410.03
7414.44
7418.75
7422.98
7427.12
7431.19
7435.17
7439.07
7442.89
7446.64
7450.31
7453.91
7457.43
7460.88
7464.26
7467.57
7470.81
7473.98
7477.07
7480.09
7483.02
7485.88
7488.63
7491.3
7493.87
7496.34
7498.71
7500.98
7503.14
7505.19
7507.13
7508.96
7510.68
7512.28
7513.77
7515.14
7516.39
7517.54
7518.56
7519.48
7520.28
7520.96
7521.54
7522
7522.36
7522.6
7522.75
7522.78
7522.72
7522.55
7522.29
7521.93
7521.47
7520.93
7520.29
7519.57
7518.77
7517.88
7516.92
7515.88
7514.78
7513.6
7512.36
7511.05
7509.68
7508.26
7506.78
7505.25
7503.67
7502.04
7500.37
7498.66
7496.91
7495.13
7493.31
7491.47
7489.6
7487.71
7485.8
7483.88
7481.94
7479.98
7478.02
7476.04
7474.06
7472.08
7470.1
7468.12
7466.13
7464.16
7462.18
7460.22
7458.26
7456.32
7454.39
7452.47
7450.57
7448.68
7446.82
7444.97
7443.14
7441.34
7439.55
7437.79
7436.05
7434.33
7432.64
7430.98
7429.33
7427.71
7426.12
7424.55
7423.01
7421.49
7420
7418.53
7417.09
7415.68
7414.29
7412.92
7411.58
7410.27
7408.98
7407.71
7406.47
7405.26
7404.07
7402.9
7401.76
7400.64
7399.54
7398.46
7397.41
7396.38
7395.37
7394.38
7393.41
7392.46
7391.52
7390.61
7389.72
7388.84
7387.98
7387.14
7386.32
7385.51
7384.72
7383.95
7383.19
7382.45
7381.72
7381.01
7380.31
7379.62
7378.95
7378.29
7377.65
7377.02
7376.4
7375.79
7375.19
7374.6
7374.03
7373.46
7372.91
7372.37
7371.84
7371.3
7370.79
7370.23
7369.74
7369.33
7368.86
7368.42
7367.97
7367.52
7367.08
7366.65
7366.22
7365.79
7365.37
7364.94
7364.53
7364.11
7363.7
7363.28
7362.88
7362.45
7362.06
7361.67
7361.28
7360.89
7360.51
7360.11
7359.74
7359.35
7358.98
7358.61
7358.23
7357.88
7357.5
7357.15
7356.76
7356.42
7356.07
7355.75
7355.38
7355.06
7354.56
7354.28
7354.09
7353.84
7353.59
7353.32
7353.04
7352.78
7352.54
7352.29
7352.04
7351.79
7351.54
7351.28
7351.03
7350.77
7350.51
7350.25
7349.99
7349.74
7349.48
7349.22
7348.96
7348.7
7348.44
7348.19
7347.93
7347.67
7347.42
7347.17
7346.92
7346.66
7346.42
7346.17
7345.92
7345.68
7345.43
7345.19
7344.95
7344.71
7344.48
7344.24
7344.01
7343.78
7343.55
7343.32
7343.09
7342.87
7342.65
7342.43
7342.21
7342
7341.78
7341.57
7341.37
7341.16
7340.96
7340.75
7340.55
7340.36
7340.16
7339.97
7339.78
7339.59
7339.4
7339.22
7339.04
7338.86
7338.69
7338.51
7338.34
7338.17
7338
7337.84
7337.68
7337.52
7337.36
7337.21
7337.06
7336.91
7336.76
7336.62
7336.48
7336.34
7336.2
7336.07
7335.93
7335.79
7357.03
7367.6
7377.59
7387.2
7397.18
7406.57
7414.6
7422.29
7430.16
7438.03
7446.14
7454.23
7462.21
7469.87
7477.13
7483.95
7490.38
7496.46
7502.21
7507.67
7512.85
7517.72
7522.31
7526.62
7530.68
7534.49
7538
7541.25
7544.28
7547
7549.47
7551.75
7553.74
7555.46
7556.96
7558.21
7559.23
7560.01
7560.51
7560.81
7560.9
7560.74
7560.33
7559.7
7558.85
7557.78
7556.49
7554.99
7553.26
7551.32
7549.17
7546.82
7544.28
7541.53
7538.58
7535.45
7532.12
7528.6
7524.91
7521.05
7517.02
7512.81
7508.45
7503.93
7499.26
7494.43
7489.47
7484.37
7479.14
7473.78
7468.28
7462.63
7456.83
7450.89
7444.81
7438.61
7432.3
7425.96
7419.45
7412.49
7405.39
7398.31
7390.81
7382.19
7373.51
7367.31
7363.12
7357.42
7345.76
7323.51
7323.36
7311.29
7302.32
7292.77
7282.85
7271.3
7261.7
7251.07
7240.49
7229.5
7218.48
7206.66
7194.94
7181.03
7168.37
7154.01
7142.22
7128.65
7120.47
7105.81
7083.28
7066.47
7050.44
7034.23
7018.94
7003.16
6986.78
6970.79
6954.81
6939.07
6923.29
6907.02
6891.27
6875.79
6860.46
6847.89
6832.57
6814.55
6799.74
6785.78
6772.07
6758.98
6746.3
6733.99
6722.35
6711.18
6700.66
6690.55
6680.96
6671.79
6663.06
6654.7
6646.73
6639.08
6631.78
6624.76
6618.03
6611.55
6605.33
6599.37
6593.69
6588.31
6583.28
6578.6
6574.29
6570.38
6566.89
6563.83
6561.22
6559.07
6557.38
6556.17
6555.44
6555.18
6555.41
6556.11
6557.3
6558.96
6561.1
6563.7
6566.76
6570.27
6574.22
6578.6
6583.4
6588.6
6594.2
6600.19
6606.53
6613.22
6620.24
6627.6
6635.25
6643.19
6651.39
6659.85
6668.53
6677.44
6686.55
6695.84
6705.3
6714.91
6724.65
6734.51
6744.47
6754.52
6764.64
6774.81
6785.02
6795.26
6805.52
6815.78
6826.03
6836.26
6846.44
6856.59
6866.69
6876.73
6886.7
6896.58
6906.38
6916.08
6925.68
6935.19
6944.58
6953.85
6963
6972.03
6980.93
6989.71
6998.35
7006.85
7015.22
7023.44
7031.53
7039.48
7047.29
7054.97
7062.49
7069.88
7077.12
7084.23
7091.21
7098.05
7104.76
7111.33
7117.77
7124.09
7130.27
7136.34
7142.29
7148.11
7153.83
7159.43
7164.91
7170.29
7175.56
7180.72
7185.79
7190.76
7195.63
7200.4
7205.08
7209.67
7214.17
7218.58
7222.91
7227.14
7231.3
7235.37
7239.37
7243.28
7247.12
7250.88
7254.56
7258.17
7261.71
7265.17
7268.57
7271.89
7275.14
7278.32
7281.43
7284.46
7287.4
7290.26
7293.03
7295.71
7298.29
7300.77
7303.15
7305.42
7307.59
7309.65
7311.59
7313.42
7315.14
7316.75
7318.24
7319.61
7320.86
7322
7323.03
7323.93
7324.73
7325.41
7325.98
7326.43
7326.78
7327.02
7327.15
7327.18
7327.1
7326.92
7326.65
7326.28
7325.81
7325.25
7324.6
7323.87
7323.05
7322.15
7321.17
7320.12
7318.99
7317.8
7316.54
7315.21
7313.83
7312.39
7310.9
7309.35
7307.75
7306.11
7304.42
7302.7
7300.94
7299.14
7297.31
7295.45
7293.57
7291.67
7289.74
7287.8
7285.85
7283.88
7281.9
7279.91
7277.92
7275.93
7273.93
7271.94
7269.95
7267.96
7265.98
7264.01
7262.05
7260.1
7258.16
7256.24
7254.33
7252.44
7250.57
7248.71
7246.88
7245.07
7243.28
7241.51
7239.77
7238.05
7236.36
7234.69
7233.04
7231.42
7229.83
7228.26
7226.71
7225.2
7223.7
7222.24
7220.79
7219.38
7217.99
7216.62
7215.28
7213.97
7212.68
7211.42
7210.18
7208.97
7207.78
7206.61
7205.47
7204.35
7203.25
7202.18
7201.12
7200.09
7199.08
7198.09
7197.13
7196.18
7195.25
7194.34
7193.44
7192.57
7191.71
7190.87
7190.05
7189.25
7188.46
7187.68
7186.93
7186.19
7185.46
7184.75
7184.05
7183.37
7182.7
7182.05
7181.4
7180.78
7180.15
7179.55
7178.94
7178.36
7177.79
7177.23
7176.66
7176.12
7175.53
7175.02
7174.6
7174.1
7173.65
7173.17
7172.71
7172.24
7171.8
7171.34
7170.9
7170.46
7170.03
7169.6
7169.17
7168.75
7168.32
7167.9
7167.47
7167.07
7166.67
7166.27
7165.86
7165.48
7165.07
7164.69
7164.28
7163.91
7163.51
7163.14
7162.75
7162.39
7161.99
7161.63
7161.28
7160.93
7160.59
7160.21
7159.88
7159.34
7159.05
7158.85
7158.59
7158.31
7158.02
7157.73
7157.45
7157.18
7156.92
7156.66
7156.4
7156.14
7155.88
7155.62
7155.36
7155.1
7154.84
7154.58
7154.32
7154.06
7153.8
7153.54
7153.28
7153.02
7152.76
7152.5
7152.24
7151.98
7151.72
7151.47
7151.21
7150.96
7150.71
7150.46
7150.21
7149.96
7149.71
7149.46
7149.22
7148.98
7148.74
7148.5
7148.26
7148.03
7147.79
7147.56
7147.33
7147.1
7146.88
7146.66
7146.43
7146.21
7146
7145.78
7145.57
7145.36
7145.15
7144.94
7144.74
7144.54
7144.34
7144.14
7143.94
7143.75
7143.56
7143.37
7143.19
7143
7142.82
7142.64
7142.47
7142.29
7142.12
7141.95
7141.79
7141.62
7141.46
7141.3
7141.14
7140.99
7140.84
7140.69
7140.54
7140.4
7140.26
7140.12
7139.98
7139.85
7139.71
7139.57
7163.51
7174.07
7184.05
7193.63
7203.49
7212.96
7221.38
7229.71
7238.34
7246.42
7254.05
7261.7
7269.25
7276.59
7283.63
7290.34
7296.71
7302.76
7308.51
7313.97
7319.14
7324.01
7328.6
7332.92
7336.97
7340.77
7344.28
7347.5
7350.51
7353.21
7355.69
7357.94
7359.91
7361.62
7363.09
7364.33
7365.32
7366.08
7366.58
7366.85
7366.9
7366.73
7366.29
7365.63
7364.76
7363.66
7362.34
7360.81
7359.06
7357.1
7354.91
7352.53
7349.96
7347.18
7344.2
7341.02
7337.65
7334.09
7330.35
7326.42
7322.33
7318.07
7313.64
7309.05
7304.29
7299.37
7294.3
7289.08
7283.72
7278.21
7272.55
7266.75
7260.79
7254.68
7248.42
7242
7235.43
7228.72
7221.83
7214.76
7207.54
7200.08
7192.25
7184.45
7176.8
7169.14
7160.81
7151.77
7143.4
7137.5
7132.86
7120.98
7097.42
7096.5
7084.26
7074.46
7064.26
7053.66
7041.34
7030.59
7018.46
7006.55
6994.45
6982.08
6969.17
6956.29
6941.47
6927.7
6912.82
6899.64
6885.52
6876.04
6860.94
6838.21
6821.14
6805.2
6788.74
6773.01
6756.85
6740.27
6724.15
6708.26
6692.63
6677.15
6661.33
6646.16
6631.1
6616.54
6604.25
6589.99
6573.77
6560.28
6547.82
6535.54
6523.86
6512.68
6501.99
6491.75
6481.99
6472.78
6463.92
6455.52
6447.44
6439.76
6432.36
6425.31
6418.52
6412.03
6405.78
6399.83
6394.15
6388.8
6383.76
6379.09
6374.78
6370.87
6367.38
6364.34
6361.74
6359.6
6357.92
6356.73
6356.02
6355.79
6356.04
6356.79
6358.02
6359.73
6361.92
6364.57
6367.69
6371.27
6375.29
6379.74
6384.62
6389.9
6395.58
6401.64
6408.07
6414.85
6421.97
6429.42
6437.16
6445.19
6453.48
6462.03
6470.8
6479.8
6489.01
6498.4
6507.95
6517.64
6527.46
6537.4
6547.44
6557.57
6567.77
6578.01
6588.29
6598.6
6608.92
6619.24
6629.55
6639.83
6650.06
6660.26
6670.4
6680.48
6690.48
6700.4
6710.22
6719.96
6729.59
6739.12
6748.53
6757.82
6766.98
6776.03
6784.94
6793.73
6802.38
6810.89
6819.26
6827.49
6835.59
6843.54
6851.36
6859.03
6866.56
6873.95
6881.19
6888.3
6895.28
6902.12
6908.83
6915.4
6921.85
6928.17
6934.36
6940.43
6946.39
6952.22
6957.94
6963.55
6969.04
6974.43
6979.71
6984.89
6989.97
6994.95
6999.83
7004.62
7009.31
7013.91
7018.42
7022.85
7027.19
7031.45
7035.62
7039.71
7043.72
7047.65
7051.5
7055.28
7058.98
7062.62
7066.17
7069.66
7073.07
7076.41
7079.68
7082.88
7086
7089.04
7092
7094.88
7097.66
7100.35
7102.94
7105.42
7107.81
7110.09
7112.27
7114.33
7116.28
7118.12
7119.84
7121.45
7122.94
7124.31
7125.56
7126.7
7127.72
7128.62
7129.41
7130.08
7130.64
7131.08
7131.42
7131.64
7131.76
7131.77
7131.68
7131.49
7131.2
7130.81
7130.32
7129.75
7129.08
7128.33
7127.49
7126.57
7125.57
7124.5
7123.35
7122.13
7120.85
7119.5
7118.1
7116.64
7115.12
7113.55
7111.93
7110.27
7108.56
7106.82
7105.03
7103.22
7101.37
7099.5
7097.59
7095.67
7093.73
7091.77
7089.79
7087.81
7085.81
7083.81
7081.8
7079.79
7077.78
7075.77
7073.77
7071.77
7069.78
7067.79
7065.82
7063.86
7061.92
7059.99
7058.07
7056.17
7054.3
7052.44
7050.6
7048.78
7046.99
7045.21
7043.47
7041.74
7040.04
7038.37
7036.72
7035.1
7033.5
7031.93
7030.39
7028.87
7027.37
7025.91
7024.46
7023.05
7021.66
7020.29
7018.96
7017.64
7016.36
7015.09
7013.86
7012.64
7011.45
7010.29
7009.15
7008.03
7006.94
7005.86
7004.81
7003.78
7002.77
7001.79
7000.82
6999.87
6998.94
6998.04
6997.14
6996.27
6995.42
6994.58
6993.76
6992.96
6992.17
6991.4
6990.64
6989.91
6989.18
6988.47
6987.78
6987.1
6986.43
6985.77
6985.13
6984.5
6983.89
6983.29
6982.7
6982.09
6981.53
6980.9
6980.37
6979.93
6979.41
6978.94
6978.44
6977.95
6977.47
6977
6976.53
6976.07
6975.61
6975.16
6974.72
6974.27
6973.83
6973.39
6972.95
6972.52
6972.13
6971.7
6971.3
6970.88
6970.49
6970.06
6969.67
6969.26
6968.87
6968.46
6968.09
6967.68
6967.31
6966.9
6966.53
6966.18
6965.8
6965.47
6965.06
6964.73
6964.16
6963.86
6963.65
6963.37
6963.08
6962.78
6962.47
6962.17
6961.89
6961.61
6961.33
6961.06
6960.79
6960.52
6960.25
6959.98
6959.72
6959.45
6959.19
6958.92
6958.66
6958.39
6958.13
6957.87
6957.6
6957.34
6957.08
6956.81
6956.55
6956.29
6956.03
6955.77
6955.51
6955.26
6955
6954.75
6954.49
6954.24
6953.99
6953.74
6953.49
6953.25
6953
6952.76
6952.52
6952.28
6952.04
6951.81
6951.57
6951.34
6951.11
6950.88
6950.66
6950.43
6950.21
6949.99
6949.78
6949.56
6949.35
6949.14
6948.93
6948.72
6948.52
6948.31
6948.11
6947.92
6947.72
6947.53
6947.34
6947.15
6946.96
6946.78
6946.6
6946.42
6946.24
6946.07
6945.9
6945.73
6945.56
6945.4
6945.24
6945.08
6944.92
6944.77
6944.61
6944.46
6944.32
6944.17
6944.03
6943.89
6943.75
6943.63
6943.49
6943.35
6970.81
6981.37
6991.36
7000.95
7010.71
7020.21
7029.04
7037.65
7046.16
7054.3
7062.03
7069.56
7076.92
7084.07
7090.95
7097.55
7103.84
7109.84
7115.55
7120.98
7126.13
7130.99
7135.56
7139.85
7143.89
7147.66
7151.15
7154.37
7157.34
7160.04
7162.5
7164.7
7166.65
7168.35
7169.78
7171
7171.98
7172.69
7173.16
7173.42
7173.45
7173.24
7172.77
7172.08
7171.16
7170.04
7168.69
7167.12
7165.35
7163.35
7161.13
7158.7
7156.08
7153.26
7150.23
7147
7143.58
7139.98
7136.18
7132.19
7128.01
7123.67
7119.17
7114.48
7109.62
7104.61
7099.43
7094.09
7088.59
7082.93
7077.12
7071.15
7065.01
7058.7
7052.24
7045.62
7038.82
7031.85
7024.74
7017.46
7010.01
7002.37
6994.56
6986.62
6978.48
6970
6961.45
6953.06
6944.86
6936.41
6926.99
6917.58
6910.75
6905.26
6893.1
6869.57
6866.83
6854.12
6843.16
6831.88
6820.34
6806.86
6794.89
6781.31
6768.47
6754.85
6741.67
6727.48
6713.98
6699.66
6684.32
6669.21
6655.12
6639.9
6629.22
6613.72
6591.17
6573.94
6558.11
6541.53
6525.74
6509.61
6493.38
6477.57
6462.17
6447.07
6432.23
6417.2
6402.85
6388.53
6374.94
6363.19
6350.12
6335.78
6323.73
6312.07
6302.06
6291.68
6282.04
6272.64
6263.73
6255.15
6247.07
6239.25
6231.85
6224.7
6217.91
6211.36
6205.13
6199.17
6193.53
6188.18
6183.18
6178.51
6174.23
6170.34
6166.88
6163.85
6161.28
6159.16
6157.51
6156.35
6155.67
6155.48
6155.79
6156.59
6157.89
6159.66
6161.92
6164.65
6167.84
6171.5
6175.62
6180.17
6185.14
6190.53
6196.31
6202.48
6209.02
6215.92
6223.15
6230.71
6238.57
6246.72
6255.13
6263.79
6272.68
6281.8
6291.12
6300.63
6310.29
6320.1
6330.03
6340.06
6350.2
6360.43
6370.72
6381.06
6391.43
6401.82
6412.22
6422.61
6432.99
6443.34
6453.65
6463.9
6474.1
6484.22
6494.27
6504.23
6514.09
6523.86
6533.53
6543.09
6552.52
6561.84
6571.02
6580.09
6589.02
6597.82
6606.48
6615
6623.38
6631.62
6639.72
6647.67
6655.49
6663.16
6670.69
6678.08
6685.33
6692.44
6699.42
6706.26
6712.97
6719.55
6726
6732.33
6738.53
6744.61
6750.57
6756.42
6762.14
6767.76
6773.27
6778.67
6783.97
6789.16
6794.26
6799.25
6804.15
6808.95
6813.66
6818.29
6822.82
6827.26
6831.62
6835.9
6840.09
6844.2
6848.24
6852.19
6856.07
6859.88
6863.6
6867.26
6870.84
6874.35
6877.79
6881.15
6884.44
6887.66
6890.8
6893.86
6896.84
6899.72
6902.52
6905.22
6907.83
6910.33
6912.73
6915.02
6917.2
6919.26
6921.22
6923.06
6924.78
6926.39
6927.88
6929.25
6930.5
6931.63
6932.65
6933.54
6934.32
6934.98
6935.52
6935.96
6936.28
6936.49
6936.59
6936.58
6936.47
6936.25
6935.94
6935.53
6935.02
6934.42
6933.73
6932.95
6932.09
6931.15
6930.12
6929.02
6927.85
6926.61
6925.3
6923.92
6922.49
6921
6919.45
6917.85
6916.21
6914.52
6912.79
6911.01
6909.21
6907.37
6905.49
6903.59
6901.67
6899.72
6897.75
6895.77
6893.77
6891.76
6889.74
6887.72
6885.69
6883.66
6881.63
6879.61
6877.59
6875.58
6873.57
6871.58
6869.59
6867.62
6865.67
6863.72
6861.8
6859.89
6858
6856.14
6854.29
6852.47
6850.66
6848.89
6847.13
6845.4
6843.7
6842.02
6840.37
6838.75
6837.15
6835.57
6834.03
6832.5
6831.01
6829.54
6828.1
6826.69
6825.3
6823.93
6822.6
6821.28
6820
6818.74
6817.5
6816.29
6815.1
6813.94
6812.8
6811.68
6810.59
6809.52
6808.47
6807.44
6806.44
6805.45
6804.49
6803.54
6802.61
6801.71
6800.82
6799.95
6799.1
6798.26
6797.45
6796.64
6795.86
6795.09
6794.34
6793.6
6792.88
6792.17
6791.48
6790.8
6790.14
6789.51
6788.87
6788.26
6787.61
6787.02
6786.35
6785.79
6785.33
6784.79
6784.3
6783.77
6783.27
6782.76
6782.28
6781.78
6781.31
6780.82
6780.36
6779.89
6779.43
6778.97
6778.52
6778.06
6777.62
6777.22
6776.78
6776.37
6775.94
6775.53
6775.1
6774.7
6774.27
6773.87
6773.45
6773.07
6772.64
6772.26
6771.82
6771.46
6771.06
6770.71
6770.29
6769.95
6769.36
6769.06
6768.83
6768.55
6768.25
6767.93
6767.61
6767.28
6766.96
6766.66
6766.37
6766.07
6765.78
6765.49
6765.21
6764.93
6764.65
6764.37
6764.1
6763.82
6763.55
6763.28
6763.01
6762.74
6762.47
6762.21
6761.94
6761.67
6761.41
6761.14
6760.87
6760.61
6760.35
6760.08
6759.82
6759.56
6759.3
6759.04
6758.79
6758.53
6758.28
6758.03
6757.77
6757.52
6757.28
6757.03
6756.78
6756.54
6756.3
6756.06
6755.82
6755.58
6755.35
6755.12
6754.89
6754.66
6754.43
6754.21
6753.99
6753.77
6753.55
6753.33
6753.12
6752.91
6752.7
6752.49
6752.29
6752.08
6751.88
6751.69
6751.49
6751.3
6751.11
6750.92
6750.73
6750.55
6750.37
6750.19
6750.01
6749.84
6749.67
6749.5
6749.33
6749.17
6749
6748.85
6748.69
6748.53
6748.38
6748.23
6748.09
6747.94
6747.8
6747.66
6747.52
6747.39
6747.26
6747.12
6778.88
6789.44
6799.43
6809.02
6818.75
6828.25
6837.18
6845.83
6854.26
6862.37
6870.21
6877.77
6885.08
6892.15
6898.93
6905.44
6911.69
6917.64
6923.31
6928.71
6933.82
6938.64
6943.17
6947.44
6951.45
6955.19
6958.67
6961.88
6964.82
6967.49
6969.9
6972.07
6973.97
6975.66
6977.08
6978.26
6979.19
6979.87
6980.3
6980.55
6980.54
6980.29
6979.79
6979.07
6978.09
6976.93
6975.56
6973.95
6972.12
6970.09
6967.83
6965.35
6962.67
6959.8
6956.71
6953.42
6949.94
6946.27
6942.4
6938.34
6934.09
6929.67
6925.06
6920.28
6915.31
6910.18
6904.87
6899.39
6893.75
6887.95
6881.97
6875.84
6869.52
6863.03
6856.37
6849.55
6842.54
6835.36
6828.05
6820.56
6812.89
6805.04
6797.03
6788.84
6780.5
6771.99
6763.36
6754.6
6745.66
6736.45
6727.32
6718.42
6709.25
6699.02
6688.8
6681.06
6674.66
6662.56
6639.14
6633.97
6620.66
6608.49
6596.18
6583.46
6569.22
6556.04
6541.7
6527.86
6513.58
6499.56
6484.8
6470.32
6455.45
6439
6423.74
6408.55
6392.78
6380.76
6364.85
6342.84
6325.88
6310.34
6294.08
6278.64
6262.96
6247.43
6232.23
6217.59
6203.2
6189.21
6175.09
6161.77
6148.15
6135.87
6123.86
6113.36
6102.21
6090.59
6080.44
6071.42
6062.27
6053.76
6045.43
6037.58
6029.97
6022.86
6015.96
6009.47
6003.19
5997.27
5991.62
5986.33
5981.35
5976.75
5972.5
5968.66
5965.24
5962.26
5959.73
5957.66
5956.07
5954.96
5954.34
5954.22
5954.6
5955.48
5956.85
5958.72
5961.06
5963.89
5967.19
5970.96
5975.18
5979.85
5984.95
5990.46
5996.38
6002.68
6009.35
6016.39
6023.77
6031.46
6039.47
6047.76
6056.32
6065.13
6074.17
6083.43
6092.89
6102.53
6112.33
6122.27
6132.33
6142.51
6152.77
6163.11
6173.52
6183.97
6194.45
6204.94
6215.43
6225.91
6236.38
6246.81
6257.19
6267.52
6277.78
6287.96
6298.06
6308.07
6317.99
6327.81
6337.51
6347.1
6356.57
6365.91
6375.12
6384.21
6393.16
6401.97
6410.64
6419.17
6427.56
6435.81
6443.91
6451.87
6459.69
6467.36
6474.9
6482.29
6489.55
6496.67
6503.64
6510.49
6517.2
6523.78
6530.24
6536.57
6542.78
6548.87
6554.84
6560.7
6566.44
6572.08
6577.6
6583.02
6588.33
6593.54
6598.66
6603.67
6608.59
6613.42
6618.15
6622.79
6627.35
6631.82
6636.2
6640.51
6644.73
6648.87
6652.93
6656.92
6660.83
6664.66
6668.42
6672.11
6675.72
6679.26
6682.73
6686.12
6689.43
6692.67
6695.84
6698.92
6701.91
6704.82
6707.63
6710.35
6712.97
6715.48
6717.89
6720.19
6722.38
6724.45
6726.41
6728.26
6729.98
6731.59
6733.08
6734.44
6735.69
6736.81
6737.82
6738.7
6739.47
6740.11
6740.64
6741.06
6741.36
6741.55
6741.63
6741.6
6741.46
6741.22
6740.88
6740.45
6739.91
6739.28
6738.56
6737.75
6736.86
6735.88
6734.82
6733.69
6732.49
6731.21
6729.87
6728.46
6726.99
6725.47
6723.89
6722.26
6720.58
6718.86
6717.09
6715.29
6713.45
6711.58
6709.68
6707.74
6705.79
6703.81
6701.82
6699.8
6697.78
6695.74
6693.7
6691.65
6689.6
6687.55
6685.5
6683.45
6681.41
6679.38
6677.36
6675.35
6673.35
6671.37
6669.4
6667.44
6665.51
6663.59
6661.69
6659.82
6657.96
6656.13
6654.32
6652.53
6650.77
6649.04
6647.33
6645.64
6643.99
6642.36
6640.76
6639.18
6637.63
6636.11
6634.61
6633.14
6631.7
6630.29
6628.9
6627.54
6626.2
6624.89
6623.61
6622.35
6621.11
6619.9
6618.72
6617.56
6616.42
6615.31
6614.21
6613.15
6612.1
6611.08
6610.07
6609.09
6608.13
6607.19
6606.26
6605.36
6604.47
6603.61