/*--------------------------------*- C++ -*----------------------------------*\
| =========                 |                                                 |
| \\      /  F ield         | OpenFOAM: The Open Source CFD Toolbox           |
|  \\    /   O peration     | Version:  v2006                                 |
|   \\  /    A nd           | Website:  www.openfoam.com                      |
|    \\/     M anipulation  |                                                 |
\*---------------------------------------------------------------------------*/
FoamFile
{
    version     2.0;
    format      ascii;
    class       surfaceScalarField;
    location    "4.6";
    object      phi;
}
// * * * * * * * * * * * * * * * * * * * * * * * * * * * * * * * * * * * * * //

dimensions      [0 3 -1 0 0 0 0];
oriented        oriented;


internalField   nonuniform List<scalar> 
65390
(
0.000105339
2.16385e-07
0.000104856
4.82678e-07
0.000103984
8.7193e-07
0.000103393
5.9086e-07
0.000105072
-1.67885e-06
0.000113137
-8.06572e-06
0.000127064
-1.39276e-05
0.000143607
-1.65434e-05
0.000158971
-1.53641e-05
0.000167166
-8.19521e-06
0.000163925
3.24047e-06
0.000153541
1.03836e-05
0.000141671
1.18703e-05
0.000131414
1.02561e-05
0.000124134
7.2792e-06
0.000119174
4.95958e-06
0.000115914
3.26008e-06
0.000113632
2.28221e-06
0.000111631
2.00024e-06
0.000109632
1.99893e-06
0.00010778
1.85099e-06
0.000106393
1.38667e-06
0.000105369
1.02463e-06
0.000104567
8.01186e-07
0.000103818
7.48662e-07
0.00010286
9.58483e-07
0.000101504
1.35564e-06
0.000100002
1.50126e-06
9.8737e-05
1.26549e-06
9.79471e-05
7.89982e-07
9.72303e-05
7.16842e-07
9.61382e-05
1.09219e-06
9.48101e-05
1.32831e-06
9.37287e-05
1.08176e-06
9.314e-05
5.88927e-07
9.26954e-05
4.44855e-07
9.18137e-05
8.81953e-07
9.03197e-05
1.49428e-06
8.87659e-05
1.55395e-06
8.77207e-05
1.04551e-06
8.72486e-05
4.72241e-07
8.67793e-05
4.69483e-07
8.58908e-05
8.88691e-07
8.46495e-05
1.24147e-06
8.33872e-05
1.26243e-06
8.24101e-05
9.77159e-07
8.17346e-05
6.75569e-07
8.1122e-05
6.12729e-07
8.02769e-05
8.45157e-07
7.92999e-05
9.77109e-07
7.84654e-05
8.34514e-07
7.7749e-05
7.16519e-07
7.69194e-05
8.29745e-07
7.58161e-05
1.10334e-06
7.42892e-05
1.52696e-06
7.27173e-05
1.57198e-06
7.15379e-05
1.17953e-06
7.07054e-05
8.3255e-07
6.9746e-05
9.59511e-07
6.85226e-05
1.22354e-06
6.7379e-05
1.14371e-06
6.66223e-05
7.56895e-07
6.64087e-05
2.13704e-07
6.65349e-05
-1.26118e-07
6.66452e-05
-1.10212e-07
6.66701e-05
-2.47733e-08
6.6766e-05
-9.57443e-08
6.72194e-05
-4.53371e-07
6.82347e-05
-1.01523e-06
6.98437e-05
-1.60898e-06
7.18387e-05
-1.995e-06
7.39704e-05
-2.13172e-06
7.5921e-05
-1.95055e-06
7.72738e-05
-1.35285e-06
7.73864e-05
-1.12665e-07
7.40983e-05
3.28805e-06
6.58321e-05
8.2661e-06
5.13748e-05
1.44572e-05
3.79716e-05
1.34031e-05
3.09986e-05
6.97297e-06
2.77466e-05
3.25193e-06
2.7652e-05
9.46147e-08
2.70036e-05
6.48356e-07
2.74779e-05
-4.74284e-07
2.82075e-05
-7.29668e-07
2.77969e-05
4.1058e-07
2.72404e-05
5.56566e-07
2.68969e-05
3.4349e-07
2.67742e-05
1.22728e-07
2.66532e-05
1.21007e-07
2.66922e-05
-3.90144e-08
2.69994e-05
-3.07119e-07
2.73443e-05
-3.44763e-07
2.79171e-05
-5.72703e-07
2.87615e-05
-8.44314e-07
2.98809e-05
-1.11926e-06
3.08475e-05
-9.66531e-07
3.17586e-05
-9.10843e-07
3.10941e-05
6.64681e-07
2.92118e-05
1.88247e-06
2.80128e-05
1.19913e-06
2.73162e-05
6.96762e-07
2.72178e-05
9.86111e-08
2.69556e-05
2.62338e-07
2.68833e-05
7.24974e-08
2.70016e-05
-1.18158e-07
2.69009e-05
1.00913e-07
2.67108e-05
1.90316e-07
2.63742e-05
3.3679e-07
2.60451e-05
3.29316e-07
2.56343e-05
4.10937e-07
2.5199e-05
4.35527e-07
2.47054e-05
4.9375e-07
2.41418e-05
5.63742e-07
2.34062e-05
7.3573e-07
2.26363e-05
7.70045e-07
2.12864e-05
1.35004e-06
1.98567e-05
1.42977e-06
1.89581e-05
8.98749e-07
1.84565e-05
5.017e-07
1.82361e-05
2.20422e-07
1.78618e-05
3.74329e-07
1.75522e-05
3.09741e-07
1.72553e-05
2.969e-07
1.68019e-05
4.53503e-07
1.63089e-05
4.93073e-07
1.57965e-05
5.12519e-07
1.52333e-05
5.63293e-07
1.4638e-05
5.95427e-07
1.40192e-05
6.18891e-07
1.33634e-05
6.55872e-07
1.26725e-05
6.90955e-07
1.19597e-05
7.12934e-07
1.12233e-05
7.3651e-07
1.04619e-05
7.61524e-07
9.67681e-06
7.85219e-07
8.8717e-06
8.05222e-07
8.04973e-06
8.22071e-07
7.21437e-06
8.35464e-07
6.37304e-06
8.4143e-07
5.53547e-06
8.37669e-07
4.7e-06
8.35567e-07
3.86118e-06
8.38925e-07
3.03078e-06
8.30506e-07
2.21983e-06
8.1104e-07
1.43194e-06
7.87971e-07
6.57811e-07
7.74204e-07
-1.01519e-07
7.59393e-07
-8.39793e-07
7.38324e-07
-1.54928e-06
7.09524e-07
-2.22647e-06
6.77219e-07
-2.88419e-06
6.57752e-07
-3.5263e-06
6.42124e-07
-4.15178e-06
6.25493e-07
-4.7578e-06
6.06023e-07
-5.34234e-06
5.84545e-07
-5.90411e-06
5.61774e-07
-6.45136e-06
5.4725e-07
-6.98472e-06
5.33359e-07
-7.49779e-06
5.13074e-07
-7.99005e-06
4.92257e-07
-8.46612e-06
4.76075e-07
-8.92978e-06
4.63658e-07
-9.37769e-06
4.47903e-07
-9.80402e-06
4.26326e-07
-1.02119e-05
4.07915e-07
-1.06071e-05
3.95167e-07
-1.09906e-05
3.83521e-07
-1.13565e-05
3.65828e-07
-1.17009e-05
3.4441e-07
-1.20287e-05
3.27847e-07
-1.23443e-05
3.15553e-07
-1.2648e-05
3.03671e-07
-1.29372e-05
2.89155e-07
-1.32075e-05
2.70309e-07
-1.34595e-05
2.51991e-07
-1.36978e-05
2.38263e-07
-1.39247e-05
2.26881e-07
-1.41379e-05
2.13184e-07
-1.43366e-05
1.98684e-07
-1.45195e-05
1.82852e-07
-1.46887e-05
1.69166e-07
-1.48469e-05
1.58245e-07
-1.49936e-05
1.46654e-07
-1.51236e-05
1.29993e-07
-1.52363e-05
1.12598e-07
-1.53375e-05
1.01217e-07
-1.54296e-05
9.20774e-08
-1.551e-05
8.0378e-08
-1.55785e-05
6.84317e-08
-1.56339e-05
5.5367e-08
-1.5677e-05
4.31761e-08
-1.57092e-05
3.21411e-08
-1.57295e-05
2.02566e-08
-1.57386e-05
9.1151e-09
-1.57383e-05
-3.31467e-10
-1.57282e-05
-1.00822e-08
-1.57079e-05
-2.03264e-08
-1.56764e-05
-3.15271e-08
-1.56324e-05
-4.40423e-08
-1.55782e-05
-5.41972e-08
-1.55174e-05
-6.08474e-08
-1.54504e-05
-6.69266e-08
-1.53751e-05
-7.5318e-08
-1.52898e-05
-8.53519e-08
-1.51931e-05
-9.66262e-08
-1.50868e-05
-1.06346e-07
-1.49736e-05
-1.13126e-07
-1.4855e-05
-1.1856e-07
-1.47295e-05
-1.25483e-07
-1.45947e-05
-1.34804e-07
-1.44501e-05
-1.44597e-07
-1.42994e-05
-1.50719e-07
-1.4146e-05
-1.53424e-07
-1.39872e-05
-1.58803e-07
-1.38179e-05
-1.69334e-07
-1.36392e-05
-1.7874e-07
-1.34528e-05
-1.86481e-07
-1.32606e-05
-1.92268e-07
-1.30675e-05
-1.93121e-07
-1.2872e-05
-1.95568e-07
-1.26688e-05
-2.03234e-07
-1.24561e-05
-2.12717e-07
-1.22342e-05
-2.21971e-07
-1.20066e-05
-2.27544e-07
-1.17777e-05
-2.28943e-07
-1.15485e-05
-2.29252e-07
-1.13134e-05
-2.35029e-07
-1.10715e-05
-2.41906e-07
-1.08248e-05
-2.46777e-07
-1.05715e-05
-2.53248e-07
-1.03132e-05
-2.58305e-07
-1.00564e-05
-2.56814e-07
-9.79966e-06
-2.56819e-07
-9.53686e-06
-2.62841e-07
-9.27013e-06
-2.66754e-07
-8.99997e-06
-2.70185e-07
-8.72627e-06
-2.73718e-07
-8.45236e-06
-2.73913e-07
-8.17909e-06
-2.73263e-07
-7.90299e-06
-2.76089e-07
-7.62429e-06
-2.78696e-07
-7.34655e-06
-2.77742e-07
-7.07147e-06
-2.75088e-07
-6.79466e-06
-2.76836e-07
-6.51463e-06
-2.80064e-07
-6.23096e-06
-2.83717e-07
-5.95077e-06
-2.8025e-07
-5.67579e-06
-2.75034e-07
-5.40001e-06
-2.7584e-07
-5.12066e-06
-2.7941e-07
-4.8411e-06
-2.79606e-07
-4.56468e-06
-2.76463e-07
-4.28934e-06
-2.7537e-07
-4.01399e-06
-2.7539e-07
-3.74278e-06
-2.71241e-07
-3.47215e-06
-2.70654e-07
-3.20177e-06
-2.70394e-07
-2.93326e-06
-2.68522e-07
-2.66551e-06
-2.67752e-07
-2.40138e-06
-2.64145e-07
-2.14108e-06
-2.60312e-07
-1.88175e-06
-2.5935e-07
-1.62325e-06
-2.58505e-07
-1.3659e-06
-2.57343e-07
-1.11291e-06
-2.5296e-07
-8.66124e-07
-2.46758e-07
-6.24806e-07
-2.41301e-07
-3.86747e-07
-2.38059e-07
-1.49351e-07
-2.37405e-07
8.62916e-08
-2.35641e-07
3.18068e-07
-2.31744e-07
5.43987e-07
-2.25855e-07
7.62773e-07
-2.18704e-07
9.77291e-07
-2.14449e-07
1.189e-06
-2.11668e-07
1.39757e-06
-2.08565e-07
1.60156e-06
-2.03977e-07
1.80098e-06
-1.99379e-07
1.99706e-06
-1.95996e-07
2.18987e-06
-1.92696e-07
2.3771e-06
-1.87122e-07
2.55777e-06
-1.80581e-07
2.73451e-06
-1.7668e-07
2.90797e-06
-1.73406e-07
3.07838e-06
-1.70359e-07
3.24491e-06
-1.66495e-07
3.4068e-06
-1.61866e-07
3.5634e-06
-1.56597e-07
3.7143e-06
-1.50908e-07
3.86115e-06
-1.46845e-07
4.00444e-06
-1.43279e-07
4.14438e-06
-1.39922e-07
4.2804e-06
-1.36003e-07
4.41115e-06
-1.30745e-07
4.53656e-06
-1.25401e-07
4.65822e-06
-1.21641e-07
4.7759e-06
-1.17637e-07
4.88976e-06
-1.13809e-07
4.99986e-06
-1.1006e-07
5.10518e-06
-1.05301e-07
5.20614e-06
-1.00954e-07
5.30332e-06
-9.72042e-08
5.39681e-06
-9.35039e-08
5.48673e-06
-8.99223e-08
5.5722e-06
-8.54515e-08
5.65369e-06
-8.14747e-08
5.73183e-06
-7.81521e-08
5.8068e-06
-7.50103e-08
5.87779e-06
-7.10607e-08
5.94471e-06
-6.70048e-08
6.0077e-06
-6.30816e-08
6.06733e-06
-5.9699e-08
6.12404e-06
-5.67519e-08
6.17728e-06
-5.32575e-08
6.22664e-06
-4.93787e-08
6.27256e-06
-4.59091e-08
6.31535e-06
-4.27735e-08
6.35504e-06
-3.96364e-08
6.39122e-06
-3.61159e-08
6.42377e-06
-3.24689e-08
6.45309e-06
-2.92636e-08
6.47961e-06
-2.64737e-08
6.503e-06
-2.33755e-08
6.52288e-06
-1.98958e-08
6.53946e-06
-1.65934e-08
6.5532e-06
-1.3775e-08
6.56428e-06
-1.11146e-08
6.57226e-06
-8.02981e-09
6.57701e-06
-4.78096e-09
6.57863e-06
-1.6583e-09
6.57735e-06
1.25687e-09
6.57348e-06
3.86815e-09
6.56711e-06
6.37722e-09
6.55813e-06
8.99982e-09
6.54647e-06
1.16839e-08
6.5321e-06
1.44033e-08
6.51507e-06
1.70689e-08
6.49562e-06
1.94898e-08
6.47399e-06
2.16718e-08
6.4501e-06
2.39299e-08
6.42381e-06
2.63325e-08
6.39508e-06
2.87698e-08
6.36405e-06
3.10604e-08
6.33108e-06
3.29913e-08
6.29641e-06
3.4689e-08
6.25987e-06
3.65537e-08
6.22126e-06
3.86096e-08
6.18066e-06
4.06019e-08
6.13841e-06
4.22441e-08
6.09481e-06
4.35876e-08
6.04966e-06
4.5143e-08
6.00282e-06
4.68243e-08
5.95443e-06
4.83766e-08
5.90479e-06
4.96241e-08
5.8541e-06
5.06877e-08
5.80209e-06
5.2003e-08
5.74876e-06
5.33252e-08
5.69442e-06
5.43409e-08
5.63923e-06
5.51808e-08
5.58309e-06
5.61393e-08
5.52599e-06
5.7101e-08
5.46802e-06
5.79757e-08
5.40927e-06
5.87564e-08
5.34993e-06
5.93475e-08
5.29005e-06
5.9888e-08
5.22954e-06
6.05202e-08
5.16841e-06
6.11348e-08
5.10675e-06
6.16669e-08
5.04463e-06
6.21263e-08
4.98224e-06
6.2385e-08
4.91968e-06
6.25604e-08
4.85684e-06
6.28401e-08
4.79373e-06
6.31169e-08
4.73048e-06
6.32469e-08
4.66718e-06
6.33094e-08
4.60373e-06
6.34463e-08
4.54015e-06
6.35806e-08
4.47647e-06
6.36824e-08
4.41281e-06
6.36581e-08
4.34934e-06
6.34685e-08
4.28606e-06
6.32742e-08
4.22289e-06
6.3171e-08
4.1598e-06
6.3092e-08
4.09677e-06
6.3029e-08
4.03392e-06
6.28526e-08
3.9713e-06
6.26132e-08
3.90902e-06
6.22841e-08
3.84711e-06
6.19109e-08
3.78532e-06
6.17938e-08
3.72375e-06
6.1578e-08
3.66272e-06
6.10391e-08
3.60221e-06
6.0522e-08
3.54179e-06
6.04315e-08
3.48174e-06
6.00618e-08
3.42221e-06
5.95402e-08
3.36295e-06
5.92711e-08
3.30401e-06
5.89537e-08
3.24551e-06
5.85068e-08
3.18758e-06
5.79325e-08
3.13016e-06
5.74113e-08
3.07332e-06
5.68442e-08
3.01687e-06
5.64486e-08
2.96086e-06
5.60044e-08
2.90529e-06
5.55659e-08
2.85026e-06
5.50248e-08
2.79576e-06
5.45014e-08
2.74207e-06
5.36874e-08
2.68884e-06
5.32384e-08
2.6361e-06
5.27369e-08
2.58383e-06
5.22625e-08
2.53217e-06
5.1663e-08
2.4812e-06
5.09628e-08
2.43066e-06
5.05366e-08
2.38092e-06
4.97361e-08
2.33142e-06
4.94977e-08
2.28265e-06
4.87651e-08
2.23455e-06
4.80939e-08
2.18721e-06
4.73405e-08
2.14019e-06
4.70185e-08
2.09435e-06
4.58459e-08
2.04743e-06
4.6926e-08
2.00168e-06
4.57554e-08
1.95792e-06
4.37648e-08
1.91423e-06
4.36977e-08
1.87229e-06
4.19438e-08
1.83274e-06
3.95627e-08
1.78556e-06
4.71806e-08
1.73685e-06
4.87164e-08
1.67594e-06
6.09033e-08
1.61171e-06
6.42297e-08
1.5576e-06
5.41136e-08
1.50626e-06
5.13362e-08
1.45882e-06
4.7439e-08
1.41322e-06
4.55913e-08
1.36863e-06
4.45899e-08
1.32417e-06
4.44576e-08
1.28037e-06
4.37949e-08
1.23741e-06
4.29567e-08
1.19564e-06
4.17663e-08
1.15399e-06
4.16506e-08
1.11891e-06
3.50893e-08
1.08381e-06
3.50955e-08
1.0411e-06
4.27157e-08
1.00487e-06
3.62348e-08
9.57791e-07
4.70887e-08
9.00989e-07
5.68085e-08
8.25655e-07
7.5342e-08
7.51069e-07
7.45937e-08
6.95348e-07
5.57301e-08
6.41145e-07
5.42125e-08
5.95225e-07
4.59294e-08
5.5035e-07
4.48852e-08
5.09316e-07
4.10445e-08
4.6905e-07
4.02762e-08
4.32744e-07
3.63161e-08
3.95526e-07
3.72299e-08
3.61243e-07
3.42949e-08
3.29072e-07
3.21832e-08
2.96507e-07
3.25781e-08
2.6291e-07
3.36107e-08
2.34895e-07
2.80304e-08
1.96088e-07
3.88233e-08
1.6569e-07
3.04134e-08
1.462e-07
1.9499e-08
1.0558e-07
4.06091e-08
6.6553e-08
3.89776e-08
7.10969e-09
5.92988e-08
1.37044e-09
5.50801e-09
1.73135e-08
-1.63616e-08
-4.77042e-09
2.13411e-08
-3.3049e-08
2.75976e-08
-5.96411e-08
2.59753e-08
-9.05051e-08
3.03057e-08
-1.23764e-07
3.27529e-08
-1.59068e-07
3.48464e-08
-1.95798e-07
3.63149e-08
-2.33516e-07
3.73411e-08
-2.71952e-07
3.80936e-08
-3.10911e-07
3.86478e-08
-3.50166e-07
3.89703e-08
-3.89574e-07
3.91483e-08
-4.29113e-07
3.93015e-08
-4.68823e-07
3.94922e-08
-5.08688e-07
3.96643e-08
-5.48599e-07
3.9727e-08
-5.88426e-07
3.96583e-08
-6.28079e-07
3.94963e-08
-6.67536e-07
3.93129e-08
-7.0682e-07
3.91502e-08
-7.45969e-07
3.90264e-08
-7.84968e-07
3.88854e-08
-8.23795e-07
3.87228e-08
-8.62398e-07
3.85071e-08
-9.00525e-07
3.80391e-08
-9.38424e-07
3.78192e-08
-9.76004e-07
3.75061e-08
-1.01316e-06
3.70917e-08
-1.04986e-06
3.66318e-08
-1.086e-06
3.60877e-08
-1.12153e-06
3.54728e-08
-1.15643e-06
3.48529e-08
-1.19075e-06
3.42781e-08
-1.22456e-06
3.37723e-08
-1.25792e-06
3.33253e-08
-1.29098e-06
3.30266e-08
-1.32392e-06
3.29032e-08
-1.35649e-06
3.2547e-08
-1.38888e-06
3.23558e-08
-1.42115e-06
3.22513e-08
-1.45336e-06
3.21893e-08
-1.48556e-06
3.21791e-08
-1.51777e-06
3.21972e-08
-1.54997e-06
3.21842e-08
-1.58208e-06
3.20915e-08
-1.614e-06
3.19132e-08
-1.64563e-06
3.16221e-08
-1.6769e-06
3.12554e-08
-1.70773e-06
3.08294e-08
-1.73813e-06
3.03906e-08
-1.76814e-06
3.00047e-08
-1.79792e-06
2.97793e-08
-1.82771e-06
2.97907e-08
-1.85768e-06
2.99668e-08
-1.88773e-06
3.00532e-08
-1.91757e-06
2.9835e-08
-1.94685e-06
2.92856e-08
-1.97562e-06
2.87709e-08
-2.00444e-06
2.88229e-08
-2.03378e-06
2.93381e-08
-2.06372e-06
2.99399e-08
-2.09379e-06
3.00705e-08
-2.12309e-06
2.93041e-08
-2.15171e-06
2.86278e-08
-2.18048e-06
2.8768e-08
-2.20987e-06
2.93876e-08
-2.23944e-06
2.95719e-08
-2.268e-06
2.85661e-08
-2.29566e-06
2.76662e-08
-2.32343e-06
2.77671e-08
-2.3516e-06
2.8172e-08
-2.37929e-06
2.76875e-08
-2.40613e-06
2.68498e-08
-2.43317e-06
2.70427e-08
-2.46138e-06
2.82103e-08
-2.49016e-06
2.87756e-08
-2.51897e-06
2.88159e-08
-2.54884e-06
2.98717e-08
-2.58097e-06
3.21284e-08
3.71652e-08
0.000105603
2.24436e-07
0.000105608
4.77641e-07
0.000105891
5.88308e-07
0.000106957
-4.75261e-07
0.00011221
-6.93196e-06
0.000121738
-1.7594e-05
0.000129577
-2.17662e-05
0.000134192
-2.11586e-05
0.000134105
-1.52766e-05
0.000130947
-5.03724e-06
0.000128613
5.57395e-06
0.000127025
1.1972e-05
0.000125343
1.35525e-05
0.000122916
1.26837e-05
0.000119898
1.02969e-05
0.000117011
7.84707e-06
0.000114511
5.76017e-06
0.000112367
4.42592e-06
0.000110489
3.87911e-06
0.000108883
3.60473e-06
0.000107504
3.22983e-06
0.000106284
2.60701e-06
0.000105121
2.18768e-06
0.000103978
1.94447e-06
0.000102919
1.80829e-06
0.000102038
1.83882e-06
0.000101156
2.23763e-06
0.000100096
2.56145e-06
9.88069e-05
2.55452e-06
9.75616e-05
2.03496e-06
9.65809e-05
1.69706e-06
9.57566e-05
1.91594e-06
9.49157e-05
2.16857e-06
9.39894e-05
2.00738e-06
9.30864e-05
1.49117e-06
9.23141e-05
1.21637e-06
9.14808e-05
1.71448e-06
9.04641e-05
2.51017e-06
8.9393e-05
2.62422e-06
8.83687e-05
2.06906e-06
8.75411e-05
1.2991e-06
8.68653e-05
1.14453e-06
8.60758e-05
1.67752e-06
8.49793e-05
2.3373e-06
8.37701e-05
2.47095e-06
8.2641e-05
2.10557e-06
8.17069e-05
1.60909e-06
8.08962e-05
1.42276e-06
7.99715e-05
1.76919e-06
7.89758e-05
1.97222e-06
7.81011e-05
1.70865e-06
7.7274e-05
1.54309e-06
7.62784e-05
1.82482e-06
7.51091e-05
2.27207e-06
7.39154e-05
2.72008e-06
7.28477e-05
2.63918e-06
7.18904e-05
2.13639e-06
7.08615e-05
1.86103e-06
6.95819e-05
2.23871e-06
6.81567e-05
2.64833e-06
6.68997e-05
2.40028e-06
6.5947e-05
1.70914e-06
6.52561e-05
9.0421e-07
6.45249e-05
6.04605e-07
6.35431e-05
8.71154e-07
6.23984e-05
1.11952e-06
6.13125e-05
9.89738e-07
6.04656e-05
3.93087e-07
5.98242e-05
-3.74232e-07
5.93436e-05
-1.1288e-06
5.91257e-05
-1.7775e-06
5.9162e-05
-2.16837e-06
5.9477e-05
-2.26593e-06
6.00435e-05
-1.91968e-06
6.07104e-05
-7.79807e-07
6.23904e-05
1.60777e-06
6.56961e-05
4.96001e-06
6.97138e-05
1.04393e-05
6.86119e-05
1.45049e-05
6.11085e-05
1.44763e-05
4.99778e-05
1.43826e-05
3.8881e-05
1.11914e-05
3.30953e-05
6.43403e-06
2.91961e-05
3.42493e-06
2.77589e-05
7.07581e-07
2.65786e-05
1.59084e-06
2.58855e-05
1.24971e-06
2.63582e-05
-1.29146e-07
2.72924e-05
-8.11421e-07
2.7056e-05
3.57413e-07
2.68044e-05
2.12722e-07
2.651e-05
-1.25877e-08
2.61989e-05
-3.36176e-08
2.59932e-05
-3.66795e-07
2.59704e-05
-8.21454e-07
2.58681e-05
-1.01674e-06
2.61421e-05
-1.24036e-06
2.6619e-05
-1.38761e-06
2.81284e-05
-8.44553e-07
2.98657e-05
1.45329e-07
3.11653e-05
-1.00336e-07
3.0913e-05
9.49147e-07
2.93271e-05
1.68465e-06
2.84311e-05
1.15834e-06
2.77262e-05
7.77374e-07
2.72545e-05
3.53588e-07
2.6832e-05
5.23344e-07
2.64008e-05
6.21459e-07
2.61749e-05
5.62558e-07
2.61513e-05
3.52876e-07
2.58943e-05
6.6776e-07
2.54991e-05
8.30593e-07
2.50862e-05
9.06548e-07
2.46088e-05
1.04104e-06
2.4131e-05
1.21325e-06
2.36135e-05
1.28738e-06
2.33234e-05
1.63991e-06
2.29083e-05
1.84464e-06
2.2208e-05
1.59883e-06
2.09097e-05
1.79969e-06
1.9444e-05
1.68582e-06
1.84561e-05
1.362e-06
1.76727e-05
1.09278e-06
1.7198e-05
7.71344e-07
1.67197e-05
9.31485e-07
1.62824e-05
9.30033e-07
1.58268e-05
9.67748e-07
1.52444e-05
1.14538e-06
1.46279e-05
1.21162e-06
1.40079e-05
1.23857e-06
1.33538e-05
1.30975e-06
1.26665e-05
1.37797e-06
1.19544e-05
1.4247e-06
1.12122e-05
1.47848e-06
1.04428e-05
1.53071e-06
9.65456e-06
1.57319e-06
8.85644e-06
1.60314e-06
8.04158e-06
1.63675e-06
7.21913e-06
1.65775e-06
6.38985e-06
1.67056e-06
5.55458e-06
1.67281e-06
4.71777e-06
1.67225e-06
3.88827e-06
1.6683e-06
3.07417e-06
1.64448e-06
2.27436e-06
1.61074e-06
1.48415e-06
1.57807e-06
7.06639e-07
1.55161e-06
-5.22848e-08
1.51821e-06
-7.84983e-07
1.47092e-06
-1.49069e-06
1.41513e-06
-2.17646e-06
1.36289e-06
-2.84537e-06
1.32657e-06
-3.49699e-06
1.29365e-06
-4.12788e-06
1.25629e-06
-4.73139e-06
1.20946e-06
-5.31475e-06
1.16783e-06
-5.88275e-06
1.12972e-06
-6.43612e-06
1.10057e-06
-6.97208e-06
1.06928e-06
-7.48881e-06
1.02976e-06
-7.98565e-06
9.89073e-07
-8.46519e-06
9.55604e-07
-8.93001e-06
9.28471e-07
-9.37852e-06
8.96404e-07
-9.80789e-06
8.55698e-07
-1.02187e-05
8.18739e-07
-1.06161e-05
7.92509e-07
-1.09993e-05
7.66684e-07
-1.13653e-05
7.31865e-07
-1.17126e-05
6.91674e-07
-1.20431e-05
6.58283e-07
-1.23603e-05
6.3277e-07
-1.26634e-05
6.06687e-07
-1.29506e-05
5.76323e-07
-1.3222e-05
5.41686e-07
-1.3477e-05
5.06982e-07
-1.37175e-05
4.78656e-07
-1.39445e-05
4.53868e-07
-1.41557e-05
4.24322e-07
-1.43519e-05
3.94848e-07
-1.45358e-05
3.66644e-07
-1.47079e-05
3.41301e-07
-1.48668e-05
3.17051e-07
-1.50112e-05
2.91002e-07
-1.514e-05
2.58756e-07
-1.52547e-05
2.27253e-07
-1.53568e-05
2.03279e-07
-1.54466e-05
1.8176e-07
-1.55247e-05
1.58473e-07
-1.55927e-05
1.36422e-07
-1.56496e-05
1.12174e-07
-1.56946e-05
8.81634e-08
-1.57273e-05
6.48434e-08
-1.57464e-05
3.93032e-08
-1.57535e-05
1.61969e-08
-1.57504e-05
-3.53103e-09
-1.57386e-05
-2.18645e-08
-1.57181e-05
-4.08123e-08
-1.5687e-05
-6.26554e-08
-1.56436e-05
-8.7416e-08
-1.55901e-05
-1.0774e-07
-1.55288e-05
-1.22111e-07
-1.54597e-05
-1.36021e-07
-1.53814e-05
-1.53578e-07
-1.52929e-05
-1.73863e-07
-1.51956e-05
-1.93855e-07
-1.50907e-05
-2.11278e-07
-1.49788e-05
-2.24988e-07
-1.48593e-05
-2.37953e-07
-1.47312e-05
-2.53532e-07
-1.45941e-05
-2.71893e-07
-1.44497e-05
-2.88931e-07
-1.43002e-05
-3.00199e-07
-1.41454e-05
-3.08159e-07
-1.3983e-05
-3.21165e-07
-1.38125e-05
-3.39893e-07
-1.36339e-05
-3.57237e-07
-1.34488e-05
-3.71645e-07
-1.32577e-05
-3.83336e-07
-1.30623e-05
-3.88468e-07
-1.2863e-05
-3.94906e-07
-1.26581e-05
-4.08105e-07
-1.24452e-05
-4.25617e-07
-1.22249e-05
-4.42229e-07
-1.20003e-05
-4.52183e-07
-1.17714e-05
-4.57838e-07
-1.15384e-05
-4.62228e-07
-1.1301e-05
-4.72458e-07
-1.10594e-05
-4.83574e-07
-1.08126e-05
-4.93522e-07
-1.05616e-05
-5.04311e-07
-1.03064e-05
-5.13591e-07
-1.00483e-05
-5.14954e-07
-9.78883e-06
-5.16284e-07
-9.52665e-06
-5.2505e-07
-9.26087e-06
-5.32548e-07
-8.99079e-06
-5.40268e-07
-8.71747e-06
-5.47038e-07
-8.44287e-06
-5.48506e-07
-8.16863e-06
-5.47487e-07
-7.89538e-06
-5.49333e-07
-7.62169e-06
-5.52398e-07
-7.3455e-06
-5.53957e-07
-7.06771e-06
-5.52917e-07
-6.78827e-06
-5.56338e-07
-6.50908e-06
-5.59328e-07
-6.22938e-06
-5.635e-07
-5.94978e-06
-5.59947e-07
-5.67224e-06
-5.52666e-07
-5.39686e-06
-5.51324e-07
-5.11957e-06
-5.56784e-07
-4.8412e-06
-5.58066e-07
-4.56498e-06
-5.52758e-07
-4.29151e-06
-5.48911e-07
-4.01875e-06
-5.48206e-07
-3.74571e-06
-5.44336e-07
-3.47281e-06
-5.43617e-07
-3.20171e-06
-5.41551e-07
-2.93323e-06
-5.37059e-07
-2.66861e-06
-5.32406e-07
-2.40755e-06
-5.25239e-07
-2.14632e-06
-5.21556e-07
-1.88493e-06
-5.20745e-07
-1.62609e-06
-5.17357e-07
-1.37027e-06
-5.13177e-07
-1.11899e-06
-5.04251e-07
-8.72419e-07
-4.93332e-07
-6.29386e-07
-4.84313e-07
-3.89496e-07
-4.77906e-07
-1.51548e-07
-4.75301e-07
8.3289e-08
-4.70437e-07
3.13496e-07
-4.61933e-07
5.38962e-07
-4.5132e-07
7.60238e-07
-4.39974e-07
9.77259e-07
-4.31433e-07
1.18993e-06
-4.2426e-07
1.39786e-06
-4.16384e-07
1.60171e-06
-4.07704e-07
1.80207e-06
-3.99641e-07
1.99874e-06
-3.92581e-07
2.19134e-06
-3.8522e-07
2.37891e-06
-3.74628e-07
2.56092e-06
-3.62518e-07
2.73874e-06
-3.54424e-07
2.91319e-06
-3.47781e-07
3.08379e-06
-3.40911e-07
3.24974e-06
-3.32416e-07
3.41088e-06
-3.22987e-07
3.56771e-06
-3.13421e-07
3.72004e-06
-3.0323e-07
3.86804e-06
-2.94828e-07
4.01188e-06
-2.87107e-07
4.1513e-06
-2.79314e-07
4.28631e-06
-2.70987e-07
4.41701e-06
-2.61411e-07
4.54352e-06
-2.51867e-07
4.66609e-06
-2.4417e-07
4.78402e-06
-2.35527e-07
4.89707e-06
-2.26815e-07
5.00638e-06
-2.19336e-07
5.11227e-06
-2.11152e-07
5.21424e-06
-2.02893e-07
5.31179e-06
-1.94728e-07
5.4047e-06
-1.8642e-07
5.49407e-06
-1.7932e-07
5.58008e-06
-1.7153e-07
5.66216e-06
-1.63645e-07
5.74021e-06
-1.56292e-07
5.81459e-06
-1.49457e-07
5.88526e-06
-1.41767e-07
5.95236e-06
-1.34131e-07
6.01591e-06
-1.26644e-07
6.07559e-06
-1.19392e-07
6.1318e-06
-1.12981e-07
6.1848e-06
-1.06256e-07
6.23444e-06
-9.90063e-08
6.28056e-06
-9.20017e-08
6.32313e-06
-8.52955e-08
6.36233e-06
-7.87912e-08
6.39832e-06
-7.20548e-08
6.43115e-06
-6.52684e-08
6.46077e-06
-5.88638e-08
6.48709e-06
-5.27995e-08
6.51003e-06
-4.6333e-08
6.52976e-06
-3.96557e-08
6.54652e-06
-3.33831e-08
6.56032e-06
-2.7616e-08
6.5711e-06
-2.19275e-08
6.57875e-06
-1.57143e-08
6.58336e-06
-9.40432e-09
6.58507e-06
-3.38216e-09
6.584e-06
2.33353e-09
6.58013e-06
7.76717e-09
6.57352e-06
1.30235e-08
6.56422e-06
1.83459e-08
6.55233e-06
2.3627e-08
6.53786e-06
2.89329e-08
6.52082e-06
3.41782e-08
6.50128e-06
3.90995e-08
6.47932e-06
4.37024e-08
6.45503e-06
4.82725e-08
6.42849e-06
5.29233e-08
6.39967e-06
5.76315e-08
6.36872e-06
6.20514e-08
6.33575e-06
6.59822e-08
6.30081e-06
6.96516e-08
6.26388e-06
7.34849e-08
6.22505e-06
7.74357e-08
6.18446e-06
8.11811e-08
6.14217e-06
8.45088e-08
6.09825e-06
8.74803e-08
6.05274e-06
9.06381e-08
6.00574e-06
9.38054e-08
5.95734e-06
9.6759e-08
5.90757e-06
9.9387e-08
5.85652e-06
1.01733e-07
5.8043e-06
1.04218e-07
5.751e-06
1.06622e-07
5.69662e-06
1.08723e-07
5.64113e-06
1.10671e-07
5.58459e-06
1.12683e-07
5.5273e-06
1.14403e-07
5.46933e-06
1.15962e-07
5.41056e-06
1.17545e-07
5.35108e-06
1.18858e-07
5.29092e-06
1.20062e-07
5.23017e-06
1.21286e-07
5.16896e-06
1.22358e-07
5.1073e-06
1.23339e-07
5.04518e-06
1.24253e-07
4.98272e-06
1.24852e-07
4.91999e-06
1.253e-07
4.85704e-06
1.25795e-07
4.79383e-06
1.26336e-07
4.7304e-06
1.26678e-07
4.66683e-06
1.26884e-07
4.6032e-06
1.27085e-07
4.5396e-06
1.27183e-07
4.47598e-06
1.27297e-07
4.41232e-06
1.27318e-07
4.34869e-06
1.271e-07
4.2852e-06
1.26764e-07
4.22187e-06
1.26506e-07
4.15864e-06
1.26319e-07
4.09551e-06
1.26165e-07
4.03266e-06
1.257e-07
3.97008e-06
1.25194e-07
3.90772e-06
1.24643e-07
3.84565e-06
1.23993e-07
3.78389e-06
1.23565e-07
3.72248e-06
1.23003e-07
3.66139e-06
1.22149e-07
3.6006e-06
1.21331e-07
3.54008e-06
1.20968e-07
3.48004e-06
1.20129e-07
3.4204e-06
1.192e-07
3.36118e-06
1.18497e-07
3.30236e-06
1.17782e-07
3.24391e-06
1.16964e-07
3.18589e-06
1.15953e-07
3.12837e-06
1.14922e-07
3.07132e-06
1.13888e-07
3.01479e-06
1.12977e-07
2.95875e-06
1.12041e-07
2.90326e-06
1.1105e-07
2.84826e-06
1.10023e-07
2.7938e-06
1.08964e-07
2.74e-06
1.07481e-07
2.68674e-06
1.06496e-07
2.63415e-06
1.05333e-07
2.58198e-06
1.0442e-07
2.53048e-06
1.03162e-07
2.47931e-06
1.02121e-07
2.42887e-06
1.00972e-07
2.3791e-06
9.94972e-08
2.33009e-06
9.84994e-08
2.28147e-06
9.73804e-08
2.23376e-06
9.58067e-08
2.18463e-06
9.64657e-08
2.13707e-06
9.45858e-08
2.09078e-06
9.21395e-08
2.04545e-06
9.22672e-08
2.00375e-06
8.74686e-08
1.96253e-06
8.49939e-08
1.91246e-06
9.37827e-08
1.85963e-06
9.47827e-08
1.79888e-06
1.00323e-07
1.73815e-06
1.07912e-07
1.68277e-06
1.04096e-07
1.63133e-06
1.1234e-07
1.58839e-06
1.07159e-07
1.54355e-06
9.89507e-08
1.49926e-06
9.56218e-08
1.45313e-06
9.35605e-08
1.40788e-06
9.08322e-08
1.36145e-06
9.10109e-08
1.31676e-06
8.91447e-08
1.27364e-06
8.69024e-08
1.23672e-06
7.9877e-08
1.20027e-06
7.82184e-08
1.15494e-06
8.69743e-08
1.11069e-06
7.93371e-08
1.05507e-06
9.07204e-08
9.95964e-07
1.01827e-07
9.17984e-07
1.14218e-07
8.45132e-07
1.19944e-07
7.89978e-07
1.11967e-07
7.45021e-07
1.20303e-07
7.06875e-07
1.12743e-07
6.63269e-07
9.93381e-08
6.20658e-07
9.68244e-08
5.79135e-07
8.74524e-08
5.36837e-07
8.71802e-08
4.97689e-07
8.01881e-08
4.6123e-07
7.67293e-08
4.27011e-07
7.05249e-08
3.93947e-07
7.02822e-08
3.58185e-07
7.00409e-08
3.28017e-07
6.23327e-08
2.85312e-07
7.52623e-08
2.50433e-07
6.8467e-08
2.28238e-07
5.0203e-08
1.94439e-07
7.26078e-08
1.63844e-07
6.1008e-08
1.00469e-07
8.29224e-08
1.19277e-07
2.19067e-08
1.16811e-07
4.17256e-08
9.54967e-08
8.11785e-08
5.43952e-08
4.73612e-08
9.91852e-09
2.92401e-08
-1.31934e-08
4.55302e-08
-4.45748e-08
5.9991e-08
-7.84123e-08
6.07502e-08
-1.124e-07
6.51547e-08
-1.47617e-07
6.87576e-08
-1.83919e-07
7.18686e-08
-2.21021e-07
7.40734e-08
-2.58767e-07
7.56864e-08
-2.97099e-07
7.69717e-08
-3.35865e-07
7.79133e-08
-3.74857e-07
7.84179e-08
-4.13968e-07
7.86759e-08
-4.53183e-07
7.88972e-08
-4.92429e-07
7.9087e-08
-5.31593e-07
7.91465e-08
-5.70593e-07
7.90189e-08
-6.09363e-07
7.86967e-08
-6.48012e-07
7.83903e-08
-6.86534e-07
7.80608e-08
-7.24971e-07
7.77956e-08
-7.63344e-07
7.75921e-08
-8.01635e-07
7.73537e-08
-8.39771e-07
7.70233e-08
-8.77652e-07
7.65405e-08
-9.15535e-07
7.60641e-08
-9.52972e-07
7.53872e-08
-9.89993e-07
7.46477e-08
-1.02673e-06
7.39397e-08
-1.06317e-06
7.31763e-08
-1.0992e-06
7.22155e-08
-1.13478e-06
7.11401e-08
-1.16995e-06
7.00982e-08
-1.20475e-06
6.91559e-08
-1.23923e-06
6.8316e-08
-1.27334e-06
6.74897e-08
-1.30697e-06
6.67095e-08
-1.34002e-06
6.60048e-08
-1.37306e-06
6.56289e-08
-1.40589e-06
6.52231e-08
-1.4385e-06
6.48953e-08
-1.47096e-06
6.46806e-08
-1.50331e-06
6.45569e-08
-1.53553e-06
6.44488e-08
-1.5676e-06
6.42699e-08
-1.59944e-06
6.39595e-08
-1.63102e-06
6.35109e-08
-1.66233e-06
6.29519e-08
-1.69337e-06
6.23101e-08
-1.72412e-06
6.15904e-08
-1.75454e-06
6.08236e-08
-1.78465e-06
6.01296e-08
-1.81452e-06
5.96684e-08
-1.84432e-06
5.95964e-08
-1.87412e-06
5.97836e-08
-1.90389e-06
5.98256e-08
-1.93342e-06
5.93805e-08
-1.96269e-06
5.85626e-08
-1.99189e-06
5.7983e-08
-2.02121e-06
5.81408e-08
-2.05096e-06
5.90982e-08
-2.08071e-06
5.96998e-08
-2.10968e-06
5.90381e-08
-2.1382e-06
5.78275e-08
-2.16691e-06
5.73489e-08
-2.19614e-06
5.79923e-08
-2.2254e-06
5.86527e-08
-2.25388e-06
5.80528e-08
-2.28175e-06
5.64365e-08
-2.30996e-06
5.58752e-08
-2.33857e-06
5.63765e-08
-2.36687e-06
5.64713e-08
-2.3945e-06
5.53232e-08
-2.42245e-06
5.47909e-08
-2.45114e-06
5.57298e-08
-2.4798e-06
5.68743e-08
-2.50814e-06
5.71075e-08
-2.53601e-06
5.66864e-08
-2.5631e-06
5.69576e-08
-2.5903e-06
5.93286e-08
6.49987e-08
0.000105681
2.66757e-07
0.000105683
4.75798e-07
0.000105893
3.7796e-07
0.000106511
-1.09444e-06
0.000107914
-8.33493e-06
0.000107863
-1.75435e-05
0.000106219
-2.01224e-05
0.000103546
-1.84867e-05
9.86048e-05
-1.03355e-05
9.50221e-05
-1.45506e-06
9.60389e-05
4.55662e-06
9.96932e-05
8.31726e-06
0.000103502
9.743e-06
0.00010662
9.56545e-06
0.000108304
8.61204e-06
0.000108839
7.31188e-06
0.00010862
5.97854e-06
0.000107958
5.08782e-06
0.000107167
4.66965e-06
0.000106458
4.31399e-06
0.000105815
3.87248e-06
0.000104993
3.42832e-06
0.00010398
3.20045e-06
0.000102837
3.08757e-06
0.000101778
2.8669e-06
0.000101042
2.57496e-06
0.000100547
2.73249e-06
9.98449e-05
3.26348e-06
9.87027e-05
3.69679e-06
9.72899e-05
3.44797e-06
9.61471e-05
2.84007e-06
9.54569e-05
2.60628e-06
9.49171e-05
2.70867e-06
9.41321e-05
2.79268e-06
9.30744e-05
2.54914e-06
9.20751e-05
2.21588e-06
9.12832e-05
2.50654e-06
9.06978e-05
3.09587e-06
9.00182e-05
3.30392e-06
8.91005e-05
2.98701e-06
8.80218e-05
2.37791e-06
8.7024e-05
2.14245e-06
8.61438e-05
2.55776e-06
8.51853e-05
3.29592e-06
8.40914e-05
3.56501e-06
8.29216e-05
3.2754e-06
8.17234e-05
2.80738e-06
8.06018e-05
2.54449e-06
7.96156e-05
2.75546e-06
7.86861e-05
2.90184e-06
7.77207e-05
2.67422e-06
7.67847e-05
2.47924e-06
7.5824e-05
2.78557e-06
7.4809e-05
3.28715e-06
7.39959e-05
3.53332e-06
7.32418e-05
3.39342e-06
7.22649e-05
3.11334e-06
7.09989e-05
3.12723e-06
6.95885e-05
3.64918e-06
6.82983e-05
3.93864e-06
6.71993e-05
3.49944e-06
6.62015e-05
2.70706e-06
6.51527e-05
1.9532e-06
6.39624e-05
1.79503e-06
6.26871e-05
2.14654e-06
6.15297e-05
2.27712e-06
6.04346e-05
2.08503e-06
5.9129e-05
1.69878e-06
5.75212e-05
1.23367e-06
5.57906e-05
6.01939e-07
5.41221e-05
-1.08796e-07
5.26221e-05
-6.68197e-07
5.13144e-05
-9.5809e-07
5.01006e-05
-7.05714e-07
4.91916e-05
1.29416e-07
4.93833e-05
1.41615e-06
5.13332e-05
3.01022e-06
5.61239e-05
5.64881e-06
6.18712e-05
8.75764e-06
6.70407e-05
9.30691e-06
6.97118e-05
1.17117e-05
6.68424e-05
1.4061e-05
5.96747e-05
1.3602e-05
4.91932e-05
1.39066e-05
3.86152e-05
1.12859e-05
3.32114e-05
6.99476e-06
2.87564e-05
5.70494e-06
2.67646e-05
1.86283e-06
2.57506e-05
2.02767e-07
2.53065e-05
8.01643e-07
2.57832e-05
-2.63772e-07
2.65543e-05
-7.83523e-07
2.62144e-05
3.06383e-07
2.57473e-05