/*--------------------------------*- C++ -*----------------------------------*\
| =========                 |                                                 |
| \\      /  F ield         | OpenFOAM: The Open Source CFD Toolbox           |
|  \\    /   O peration     | Version:  v2006                                 |
|   \\  /    A nd           | Website:  www.openfoam.com                      |
|    \\/     M anipulation  |                                                 |
\*---------------------------------------------------------------------------*/
FoamFile
{
    version     2.0;
    format      ascii;
    class       surfaceScalarField;
    location    "0.5";
    object      alphaPhi0.water;
}
// * * * * * * * * * * * * * * * * * * * * * * * * * * * * * * * * * * * * * //

dimensions      [0 3 -1 0 0 0 0];
oriented        oriented;


internalField   nonuniform List<scalar> 
65390
(
-2.05224e-06
-1.00068e-07
-2.00184e-06
-6.8059e-08
-1.94768e-06
-6.96421e-08
-1.88587e-06
-7.47425e-08
-1.82108e-06
-7.57022e-08
-1.75524e-06
-7.50832e-08
-1.68812e-06
-7.49469e-08
-1.62045e-06
-7.43598e-08
-1.55228e-06
-7.39846e-08
-1.48356e-06
-7.37773e-08
-1.41498e-06
-7.3008e-08
-1.3466e-06
-7.23043e-08
-1.27842e-06
-7.17127e-08
-1.21058e-06
-7.10093e-08
-1.14323e-06
-7.02106e-08
-1.07635e-06
-6.94572e-08
-1.01001e-06
-6.8655e-08
-9.44326e-07
-6.77777e-08
-8.79264e-07
-6.69408e-08
-8.14821e-07
-6.61196e-08
-7.51051e-07
-6.52542e-08
-6.88089e-07
-6.42674e-08
-6.26146e-07
-6.30854e-08
-5.65307e-07
-6.18297e-08
-5.05364e-07
-6.07985e-08
-4.46553e-07
-5.95433e-08
-3.89021e-07
-5.81574e-08
-3.32698e-07
-5.68624e-08
-2.77496e-07
-5.56753e-08
-2.2351e-07
-5.4402e-08
-1.70801e-07
-5.30828e-08
-1.19434e-07
-5.17038e-08
-6.94766e-08
-5.02587e-08
-2.09756e-08
-4.87559e-08
2.60039e-08
-4.71682e-08
7.1328e-08
-4.54096e-08
1.15011e-07
-4.36281e-08
1.57258e-07
-4.20002e-08
1.97879e-07
-4.01305e-08
2.36757e-07
-3.80921e-08
2.74378e-07
-3.64934e-08
3.10527e-07
-3.46444e-08
3.45207e-07
-3.2777e-08
3.78519e-07
-3.10034e-08
4.10458e-07
-2.92349e-08
4.41053e-07
-2.75178e-08
4.70459e-07
-2.59939e-08
4.98716e-07
-2.45586e-08
5.25849e-07
-2.32042e-08
5.51904e-07
-2.19594e-08
5.76884e-07
-2.07804e-08
6.00762e-07
-1.96407e-08
6.23507e-07
-1.85327e-08
6.45076e-07
-1.74391e-08
6.65426e-07
-1.63572e-08
6.84497e-07
-1.52596e-08
7.02266e-07
-1.41777e-08
7.18728e-07
-1.31203e-08
7.33761e-07
-1.19622e-08
7.47439e-07
-1.08895e-08
7.59617e-07
-9.67722e-09
7.70233e-07
-8.398e-09
7.79229e-07
-7.04918e-09
7.86567e-07
-5.64934e-09
7.92176e-07
-4.16132e-09
7.95974e-07
-2.57193e-09
7.97882e-07
-8.79213e-10
7.97773e-07
9.6121e-10
7.95417e-07
3.05557e-09
7.90452e-07
5.5364e-09
7.8242e-07
8.49947e-09
7.70649e-07
1.21568e-08
7.54018e-07
1.6957e-08
7.30661e-07
2.36418e-08
6.97593e-07
3.3324e-08
6.49943e-07
4.78847e-08
5.81083e-07
6.90626e-08
4.77314e-07
1.03991e-07
3.81191e-07
9.62599e-08
3.59453e-07
2.18291e-08
3.34931e-07
2.45794e-08
3.40785e-07
-5.78728e-09
3.38825e-07
1.99685e-09
3.47527e-07
-8.65682e-09
3.60529e-07
-1.29394e-08
3.57696e-07
2.92723e-09
3.57217e-07
6.00382e-10
3.55913e-07
1.44465e-09
3.57342e-07
-1.26337e-09
3.57324e-07
2.07213e-10
3.58889e-07
-1.35463e-09
3.60639e-07
-1.52776e-09
3.60688e-07
1.81106e-10
3.60618e-07
3.01037e-10
3.60216e-07
6.27764e-10
3.59263e-07
1.16998e-09
3.57813e-07
1.6535e-09
3.559e-07
2.10251e-09
3.52358e-07
3.71607e-09
3.48808e-07
3.70832e-09
3.4663e-07
2.32089e-09
3.45253e-07
1.50755e-09
3.44193e-07
1.18223e-09
3.4244e-07
1.86547e-09
3.40939e-07
1.6067e-09
3.39218e-07
1.82129e-09
3.36926e-07
2.38919e-09
3.34472e-07
2.54791e-09
3.31885e-07
2.67942e-09
3.2918e-07
2.79539e-09
3.26258e-07
3.01098e-09
3.23144e-07
3.20418e-09
3.19764e-07
3.46866e-09
3.16022e-07
3.83052e-09
3.11655e-07
4.45601e-09
3.06677e-07
5.06647e-09
2.99537e-07
7.2294e-09
2.92659e-07
6.9672e-09
2.88139e-07
4.60698e-09
2.853e-07
2.92692e-09
2.83287e-07
2.0999e-09
2.80503e-07
2.86967e-09
2.78225e-07
2.3636e-09
2.75943e-07
2.36568e-09
2.73152e-07
2.8746e-09
2.70376e-07
2.85789e-09
2.67577e-07
2.88121e-09
2.64674e-07
2.98341e-09
2.61754e-07
3.00044e-09
2.58799e-07
3.03448e-09
2.55793e-07
3.08637e-09
2.52763e-07
3.10941e-09
2.49704e-07
3.13961e-09
2.46615e-07
3.16965e-09
2.43518e-07
3.17952e-09
2.40423e-07
3.1794e-09
2.37322e-07
3.18622e-09
2.34211e-07
3.19899e-09
2.31097e-07
3.20244e-09
2.27995e-07
3.19367e-09
2.24907e-07
3.18055e-09
2.21826e-07
3.1748e-09
2.1875e-07
3.17175e-09
2.15689e-07
3.1581e-09
2.12643e-07
3.14443e-09
2.09604e-07
3.13864e-09
2.06573e-07
3.13079e-09
2.03562e-07
3.1117e-09
2.00574e-07
3.08991e-09
1.97602e-07
3.07395e-09
1.94646e-07
3.05765e-09
1.91713e-07
3.03563e-09
1.888e-07
3.01495e-09
1.85903e-07
2.99761e-09
1.83028e-07
2.9761e-09
1.80178e-07
2.95e-09
1.77352e-07
2.92503e-09
1.74551e-07
2.89982e-09
1.71776e-07
2.87212e-09
1.69025e-07
2.84757e-09
1.66293e-07
2.82726e-09
1.63585e-07
2.80129e-09
1.60911e-07
2.76665e-09
1.58267e-07
2.73389e-09
1.55648e-07
2.70869e-09
1.53052e-07
2.6832e-09
1.50487e-07
2.65042e-09
1.47955e-07
2.616e-09
1.45448e-07
2.58891e-09
1.42961e-07
2.56592e-09
1.40503e-07
2.53529e-09
1.3808e-07
2.49853e-09
1.35685e-07
2.46809e-09
1.33312e-07
2.44284e-09
1.30967e-07
2.41201e-09
1.28654e-07
2.3774e-09
1.26368e-07
2.34825e-09
1.24104e-07
2.32253e-09
1.21867e-07
2.29282e-09
1.19658e-07
2.26127e-09
1.17473e-07
2.2336e-09
1.15312e-07
2.20654e-09
1.1318e-07
2.17422e-09
1.11079e-07
2.13935e-09
1.09007e-07
2.10785e-09
1.06959e-07
2.07897e-09
1.04939e-07
2.04852e-09
1.02948e-07
2.01664e-09
1.00984e-07
1.98649e-09
9.90446e-08
1.95795e-09
9.71329e-08
1.92778e-09
9.52517e-08
1.89443e-09
9.34022e-08
1.85996e-09
9.15829e-08
1.82729e-09
8.97916e-08
1.79676e-09
8.80283e-08
1.76646e-09
8.62935e-08
1.73588e-09
8.45864e-08
1.70605e-09
8.29067e-08
1.6768e-09
8.12545e-08
1.64759e-09
7.96293e-08
1.61887e-09
7.80309e-08
1.59058e-09
7.64596e-08
1.56197e-09
7.49157e-08
1.53325e-09
7.33992e-08
1.50465e-09
7.19109e-08
1.47507e-09
7.04523e-08
1.44424e-09
6.90232e-08
1.41358e-09
6.76239e-08
1.38284e-09
6.62558e-08
1.3506e-09
6.49183e-08
1.31904e-09
6.36066e-08
1.29247e-09
6.23162e-08
1.27037e-09
6.10472e-08
1.24823e-09
5.98006e-08
1.22524e-09
5.85742e-08
1.20447e-09
5.73662e-08
1.18567e-09
5.61789e-08
1.16446e-09
5.50159e-08
1.13982e-09
5.38762e-08
1.11618e-09
5.27568e-08
1.09566e-09
5.16577e-08
1.07514e-09
5.05804e-08
1.05313e-09
4.95233e-08
1.03279e-09
4.84829e-08
1.01611e-09
4.74585e-08
9.99966e-10
4.6453e-08
9.80955e-10
4.54682e-08
9.60381e-10
4.4503e-08
9.4081e-10
4.35566e-08
9.22037e-10
4.26296e-08
9.02836e-10
4.1722e-08
8.83645e-10
4.08331e-08
8.65279e-10
3.99624e-08
8.47306e-10
3.911e-08
8.29515e-10
3.82746e-08
8.13063e-10
3.74544e-08
7.98487e-10
3.66492e-08
7.84131e-10
3.58609e-08
7.67907e-10
3.50913e-08
7.49927e-10
3.43402e-08
7.32069e-10
3.3606e-08
7.15797e-10
3.28866e-08
7.01464e-10
3.218e-08
6.88928e-10
3.14847e-08
6.77777e-10
3.08005e-08
6.66604e-10
3.01286e-08
6.54031e-10
2.94696e-08
6.40767e-10
2.88217e-08
6.29135e-10
2.81823e-08
6.19922e-10
2.75518e-08
6.10436e-10
2.69336e-08
5.97424e-10
2.63305e-08
5.81615e-10
2.57411e-08
5.67368e-10
2.51613e-08
5.57385e-10
2.45895e-08
5.48954e-10
2.40292e-08
5.37373e-10
2.34842e-08
5.21963e-10
2.29548e-08
5.06605e-10
2.24372e-08
4.95085e-10
2.19275e-08
4.87525e-10
2.14244e-08
4.81365e-10
2.09282e-08
4.75054e-10
2.0439e-08
4.6865e-10
1.99572e-08
4.61775e-10
1.94844e-08
4.53551e-10
1.90214e-08
4.44254e-10
1.85683e-08
4.34899e-10
1.81256e-08
4.25077e-10
1.7695e-08
4.13388e-10
1.72778e-08
4.00345e-10
1.68728e-08
3.88507e-10
1.64775e-08
3.78988e-10
1.60901e-08
3.71246e-10
1.57098e-08
3.64315e-10
1.53357e-08
3.5814e-10
1.49672e-08
3.52797e-10
1.46036e-08
3.47888e-10
1.42447e-08
3.43373e-10
1.38896e-08
3.39825e-10
1.35374e-08
3.3711e-10
1.3189e-08
3.33572e-10
1.28471e-08
3.27501e-10
1.25138e-08
3.19178e-10
1.21901e-08
3.1014e-10
1.18754e-08
3.01546e-10
1.15696e-08
2.932e-10
1.12731e-08
2.8432e-10
1.09866e-08
2.74762e-10
1.07102e-08
2.65113e-10
1.04435e-08
2.55952e-10
1.01856e-08
2.47505e-10
9.93555e-09
2.40007e-10
9.69186e-09
2.34037e-10
9.45267e-09
2.29869e-10
9.21664e-09
2.27007e-10
8.98362e-09
2.24296e-10
8.75434e-09
2.20822e-10
8.52963e-09
2.16512e-10
8.30968e-09
2.11997e-10
8.0942e-09
2.07759e-10
7.88319e-09
2.03538e-10
7.67745e-09
1.98488e-10
7.47848e-09
1.91942e-10
7.28774e-09
1.83943e-10
7.10594e-09
1.75226e-10
6.93284e-09
1.66737e-10
6.76741e-09
1.59266e-10
6.60817e-09
1.53268e-10
6.45342e-09
1.48957e-10
6.3013e-09
1.46491e-10
6.15043e-09
1.45394e-10
5.99965e-09
1.45434e-10
5.84848e-09
1.45945e-10
5.69718e-09
1.46168e-10
5.5467e-09
1.45428e-10
5.3985e-09
1.43216e-10
5.2543e-09
1.39275e-10
5.11565e-09
1.33754e-10
4.98359e-09
1.27196e-10
4.85856e-09
1.20186e-10
4.7408e-09
1.12931e-10
4.6306e-09
1.05376e-10
4.52806e-09
9.77245e-11
4.43216e-09
9.10877e-11
4.34001e-09
8.73295e-11
4.24739e-09
8.78084e-11
4.15147e-09
9.11144e-11
4.05235e-09
9.43006e-11
3.95252e-09
9.50286e-11
3.85414e-09
9.35701e-11
3.7581e-09
9.12342e-11
3.6654e-09
8.79041e-11
3.57893e-09
8.16833e-11
3.50236e-09
7.17926e-11
3.43686e-09
6.07435e-11
3.37922e-09
5.28891e-11
3.32462e-09
4.98576e-11
3.27077e-09
4.91351e-11
3.21732e-09
4.87554e-11
3.16306e-09
4.95908e-11
3.1052e-09
5.32239e-11
3.04192e-09
5.86732e-11
2.97466e-09
6.27077e-11
2.90655e-09
6.3594e-11
2.83974e-09
6.23591e-11
2.77519e-09
6.01727e-11
2.71429e-09
5.66023e-11
2.65852e-09
5.15858e-11
2.60755e-09
4.69048e-11
2.55933e-09
4.42941e-11
2.51176e-09
4.38209e-11
2.463e-09
4.51887e-11
2.41088e-09
4.87618e-11
2.35379e-09
5.39537e-11
2.29251e-09
5.83706e-11
2.22994e-09
5.99027e-11
2.16872e-09
5.87932e-11
2.11027e-09
5.62489e-11
2.0557e-09
5.2594e-11
2.00615e-09
4.77763e-11
1.96138e-09
4.31798e-11
1.91891e-09
4.10396e-11
1.87513e-09
4.24747e-11
1.82751e-09
4.64185e-11
1.77543e-09
5.09666e-11
1.71955e-09
5.48098e-11
1.66117e-09
5.73352e-11
1.60231e-09
5.78216e-11
1.54568e-09
5.55835e-11
1.49374e-09
5.08609e-11
1.44731e-09
4.52924e-11
1.40521e-09
4.09069e-11
1.36523e-09
3.8707e-11
1.32575e-09
3.81217e-11
1.28633e-09
3.79459e-11
1.24699e-09
3.77555e-11
1.20752e-09
3.77672e-11
1.16846e-09
3.72173e-11
1.1322e-09
3.42758e-11
1.10176e-09
2.83187e-11
1.07815e-09
2.13529e-11
1.05938e-09
1.63722e-11
1.04192e-09
1.49455e-11
1.02225e-09
1.7038e-11
9.98207e-10
2.1314e-11
9.69965e-10
2.5446e-11
9.39865e-10
2.72577e-11
9.10915e-10
2.60887e-11
8.85384e-10
2.26771e-11
8.64161e-10
1.84041e-11
8.46199e-10
1.52014e-11
8.2859e-10
1.49316e-11
8.08052e-10
1.7961e-11
7.82437e-10
2.31527e-11
7.51136e-10
2.89646e-11
7.15439e-10
3.34913e-11
6.78836e-10
3.45293e-11
6.45913e-10
3.09806e-11
6.19613e-10
2.44847e-11
5.99114e-10
1.88023e-11
5.80871e-10
1.66572e-11
5.6214e-10
1.7247e-11
5.42628e-10
1.81214e-11
5.22223e-10
1.90973e-11
5.01343e-10
1.96474e-11
4.82902e-10
1.72754e-11
4.68916e-10
1.2883e-11
4.57655e-10
1.02132e-11
4.45808e-10
1.08502e-11
4.3113e-10
1.37304e-11
4.13768e-10
1.64606e-11
3.96538e-10
1.63731e-11
3.82132e-10
1.35918e-11
3.70597e-10
1.07628e-11
3.6084e-10
9.02531e-12
3.52299e-10
7.85059e-12
3.42868e-10
8.77915e-12
3.32085e-10
1.0169e-11
3.21462e-10
1.00475e-11
3.1238e-10
8.5415e-12
2.99164e-10
1.27111e-11
2.79817e-10
1.88751e-11
2.57658e-10
2.17181e-11
2.33194e-10
2.40539e-11
2.12373e-10
2.04397e-11
1.9643e-10
1.55894e-11
1.81979e-10
1.41237e-11
1.68351e-10
1.33241e-11
1.53075e-10
1.49965e-11
1.41754e-10
1.10624e-11
1.36191e-10
5.32511e-12
1.408e-10
-4.82829e-12
1.47914e-10
-7.31523e-12
1.53494e-10
-5.7649e-12
1.51663e-10
1.66069e-12
1.45054e-10
6.45036e-12
1.42555e-10
2.35152e-12
1.38081e-10
4.33467e-12
1.46303e-10
-8.35545e-12
1.45585e-10
5.88528e-13
1.2822e-10
1.72394e-11
1.12176e-10
1.59187e-11
9.73919e-11
1.46594e-11
9.34552e-11
3.81133e-12
8.37232e-11
9.60584e-12
7.45209e-11
9.07442e-12
7.75004e-11
-3.10781e-12
8.59795e-11
-8.60738e-12
1.10142e-10
-2.42899e-11
1.14308e-10
-4.29048e-12
1.33671e-10
-1.94806e-11
1.34115e-10
-5.5456e-13
1.31631e-10
2.38309e-12
1.18177e-10
1.33651e-11
1.14626e-10
3.47708e-12
1.38091e-10
-2.35223e-11
1.3216e-10
5.89165e-12
1.51335e-10
-1.91944e-11
1.83877e-10
-3.25413e-11
1.86886e-10
-2.98695e-12
1.90462e-10
-3.53555e-12
1.8287e-10
7.64961e-12
1.99174e-10
-1.62334e-11
1.80857e-10
1.83962e-11
1.95729e-10
-1.47896e-11
2.26617e-10
-3.0809e-11
2.28722e-10
-1.99111e-12
3.13955e-10
-8.51296e-11
3.38972e-10
-2.48928e-11
3.11173e-10
2.79643e-11
3.07365e-10
3.95075e-12
2.76837e-10
3.06611e-11
2.43474e-10
3.3492e-11
2.12084e-10
3.15183e-11
1.69315e-10
4.28964e-11
1.12336e-10
5.71073e-11
4.74991e-11
6.49624e-11
-2.15675e-11
6.91887e-11
-9.40359e-11
7.25846e-11
-1.62442e-10
6.85148e-11
-2.16261e-10
5.39167e-11
-2.5394e-10
3.77655e-11
-2.85743e-10
3.18764e-11
-3.21462e-10
3.57791e-11
-3.59677e-10
3.82609e-11
-3.92428e-10
3.27831e-11
-4.12986e-10
2.05771e-11
-4.24116e-10
1.11357e-11
-4.30686e-10
6.56279e-12
-4.39405e-10
8.70042e-12
-4.56933e-10
1.74985e-11
-4.87042e-10
3.00687e-11
-5.28098e-10
4.10054e-11
-5.78188e-10
5.00305e-11
-6.34265e-10
5.60081e-11
-6.92359e-10
5.80161e-11
-7.48305e-10
5.58611e-11
-7.96858e-10
4.8459e-11
-8.31486e-10
3.45278e-11
-8.44899e-10
1.33065e-11
-8.31557e-10
-1.34531e-11
-7.89414e-10
-4.22588e-11
-7.21562e-10
-6.79712e-11
-6.33287e-10
-8.83973e-11
-5.32674e-10
-1.00736e-10
-4.27837e-10
-1.0496e-10
-3.24632e-10
-1.03327e-10
-2.27076e-10
-9.76767e-11
-1.38285e-10
-8.89096e-11
-6.25417e-11
-7.58597e-11
-3.60073e-12
-5.90542e-11
3.13431e-11
-3.50538e-11
4.13052e-11
-1.00688e-11
3.44844e-11
6.71755e-12
1.96535e-11
1.47308e-11
5.8735e-12
1.36829e-11
1.58952e-12
4.18934e-12
1.42868e-11
-1.27898e-11
5.23308e-11
-3.81347e-11
1.16607e-10
-6.43655e-11
1.95898e-10
-7.9379e-11
2.68953e-10
-7.31423e-11
3.08167e-10
-3.9301e-11
3.08712e-10
-6.32665e-13
2.93171e-10
1.54537e-11
3.01515e-10
-8.43267e-12
3.61707e-10
-6.02813e-11
4.43049e-10
-8.14343e-11
4.70893e-10
-2.79376e-11
4.10661e-10
6.01356e-11
2.94581e-10
1.15981e-10
2.04256e-10
9.02229e-11
1.92065e-10
1.20849e-11
2.01773e-10
-9.81682e-12
1.46656e-10
5.50043e-11
2.59942e-11
1.20546e-10
-5.67276e-11
8.26025e-11
-1.93729e-11
-3.74766e-11
5.85818e-11
-7.80781e-11
6.65642e-11
-8.10621e-12
6.66877e-11
-2.47078e-13
1.70011e-10
-1.03446e-10
3.32555e-10
-1.62663e-10
3.65942e-10
-3.35024e-11
3.11264e-10
5.4567e-11
2.86417e-10
2.47422e-11
1.75067e-10
1.11251e-10
6.10365e-11
1.13938e-10
6.30886e-11
-2.07527e-06
-1.78866e-07
-2.01307e-06
-1.22741e-07
-1.94963e-06
-1.26994e-07
-1.88659e-06
-1.33304e-07
-1.82239e-06
-1.36938e-07
-1.75639e-06
-1.39457e-07
-1.68952e-06
-1.41321e-07
-1.62123e-06
-1.42985e-07
-1.55244e-06
-1.43848e-07
-1.48375e-06
-1.43977e-07
-1.41502e-06
-1.43546e-07
-1.34621e-06
-1.43138e-07
-1.27755e-06
-1.42527e-07
-1.20927e-06
-1.4149e-07
-1.14149e-06
-1.40148e-07
-1.07419e-06
-1.38849e-07
-1.00737e-06
-1.37438e-07
-9.41098e-07
-1.35862e-07
-8.75473e-07
-1.34209e-07
-8.10559e-07
-1.32492e-07
-7.4649e-07
-1.30585e-07
-6.83345e-07
-1.28467e-07
-6.21109e-07
-1.26162e-07
-5.59819e-07
-1.23751e-07
-4.99711e-07
-1.21336e-07
-4.40888e-07
-1.18608e-07
-3.8332e-07
-1.15791e-07
-3.26904e-07
-1.13178e-07
-2.71366e-07
-1.1095e-07
-2.17095e-07
-1.08251e-07
-1.64156e-07
-1.05441e-07
-1.12625e-07
-1.02487e-07
-6.25424e-08
-9.94125e-08
-1.3939e-08
-9.62285e-08
3.31261e-08
-9.28714e-08
7.86763e-08
-8.93439e-08
1.22839e-07
-8.58511e-08
1.65448e-07
-8.22899e-08
2.06715e-07
-7.86444e-08
2.46822e-07
-7.49642e-08
2.85314e-07
-7.12325e-08
3.22346e-07
-6.73856e-08
3.57937e-07
-6.35345e-08
3.91889e-07
-5.95979e-08
4.24286e-07
-5.5784e-08
4.55186e-07
-5.21344e-08
4.84643e-07
-4.87995e-08
5.12727e-07
-4.57053e-08
5.39543e-07
-4.28879e-08
5.6517e-07
-4.03542e-08
5.89678e-07
-3.80537e-08
6.13118e-07
-3.59366e-08
6.35492e-07
-3.3943e-08
6.56773e-07
-3.20149e-08
6.76914e-07
-3.01184e-08
6.95831e-07
-2.81786e-08
7.13454e-07
-2.62265e-08
7.29865e-07
-2.44092e-08
7.44704e-07
-2.21507e-08
7.57896e-07
-1.99065e-08
7.69512e-07
-1.75886e-08
7.79513e-07
-1.515e-08
7.87899e-07
-1.26207e-08
7.94631e-07
-9.97404e-09
7.99736e-07
-7.23516e-09
8.03219e-07
-4.36417e-09
8.0507e-07
-1.34147e-09
8.05217e-07
1.93855e-09
8.03541e-07
5.63336e-09
7.99942e-07
9.87316e-09
7.94278e-07
1.47454e-08
7.86495e-07
2.04072e-08
7.76721e-07
2.71182e-08
7.65401e-07
3.52949e-08
7.53515e-07
4.55037e-08
7.43449e-07
5.82228e-08
7.38493e-07
7.42816e-08
7.42154e-07
1.00474e-07
7.12908e-07
1.25604e-07
6.2926e-07
1.05465e-07
5.34777e-07
1.19179e-07
4.27358e-07
1.01635e-07
3.96029e-07
3.34344e-08
3.57973e-07
2.94722e-08
3.48638e-07
-3.50245e-09
3.43646e-07
8.10605e-09
3.44735e-07
-3.03289e-10
3.52812e-07
-6.40562e-09
3.66312e-07
-1.44931e-08
3.64023e-07
2.79373e-09
3.63064e-07
-6.82429e-11
3.62854e-07
-9.80168e-10
3.62145e-07
1.22825e-09
3.62586e-07
1.90559e-10
3.63303e-07
2.49244e-10
3.6261e-07
2.1615e-09
3.61884e-07
2.652e-09
3.60944e-07
3.28775e-09
3.60298e-07
4.58351e-09
3.59109e-07
5.09312e-09
3.56677e-07
4.92927e-09
3.52327e-07
6.01676e-09
3.47795e-07
5.85936e-09
3.4475e-07
5.04362e-09
3.42151e-07
4.33049e-09
3.39953e-07
4.14145e-09
3.37485e-07
4.96849e-09
3.34959e-07
5.18239e-09
3.32617e-07
5.12708e-09
3.30199e-07
5.31971e-09
3.27347e-07
5.96889e-09
3.24426e-07
6.23164e-09
3.21422e-07
6.5798e-09
3.183e-07
7.06125e-09
3.15238e-07
7.62766e-09
3.1217e-07
8.24503e-09
3.10004e-07
9.50613e-09
3.07116e-07
9.96646e-09
3.02382e-07
9.45259e-09
2.94926e-07
1.04951e-08
2.87445e-07
9.6918e-09
2.82611e-07
7.81426e-09
2.78977e-07
6.10845e-09
2.7627e-07
5.17903e-09
2.7324e-07
6.01276e-09
2.70666e-07
5.53937e-09
2.68106e-07
5.54846e-09
2.65119e-07
6.07624e-09
2.62137e-07
6.08946e-09
2.59154e-07
6.12474e-09
2.56106e-07
6.24338e-09
2.53052e-07
6.2734e-09
2.49979e-07
6.32512e-09
2.46874e-07
6.39055e-09
2.43761e-07
6.41035e-09
2.40648e-07
6.41368e-09
2.37537e-07
6.4221e-09
2.34423e-07
6.4421e-09
2.31312e-07
6.44446e-09
2.2821e-07
6.4316e-09
2.25117e-07
6.41223e-09
2.22031e-07
6.40283e-09
2.1895e-07
6.39768e-09
2.15878e-07
6.37696e-09
2.12823e-07
6.34989e-09
2.09783e-07
6.33097e-09
2.06754e-07
6.31327e-09
2.03741e-07
6.27974e-09
2.00748e-07
6.2396e-09
1.9777e-07
6.2087e-09
1.94807e-07
6.17813e-09
1.91864e-07
6.13636e-09
1.88943e-07
6.09379e-09
1.86041e-07
6.05682e-09
1.8316e-07
6.01354e-09
1.80306e-07
5.95904e-09
1.77482e-07
5.90389e-09
1.74682e-07
5.85253e-09
1.71905e-07
5.8002e-09
1.69153e-07
5.74952e-09
1.66424e-07
5.70355e-09
1.63717e-07
5.65422e-09
1.61031e-07
5.59549e-09
1.58372e-07
5.53422e-09
1.55742e-07
5.47601e-09
1.53144e-07
5.41618e-09
1.50577e-07
5.35016e-09
1.48038e-07
5.28354e-09
1.45527e-07
5.22569e-09
1.4304e-07
5.1744e-09
1.40578e-07
5.11523e-09
1.38143e-07
5.04756e-09
1.35734e-07
4.9856e-09
1.33354e-07
4.92847e-09
1.31002e-07
4.8634e-09
1.28682e-07
4.79284e-09
1.26391e-07
4.72935e-09
1.24126e-07
4.6718e-09
1.21888e-07
4.60991e-09
1.19677e-07
4.54489e-09
1.17493e-07
4.48485e-09
1.15334e-07
4.42679e-09
1.13202e-07
4.36158e-09
1.11099e-07
4.29124e-09
1.09026e-07
4.22495e-09
1.06979e-07
4.16332e-09
1.0496e-07
4.09945e-09
1.02971e-07
4.03263e-09
1.0101e-07
3.9692e-09
9.9073e-08
3.91122e-09
9.71595e-08
3.8529e-09
9.52721e-08
3.78897e-09
9.34135e-08
3.72139e-09
9.15844e-08
3.65514e-09
8.97856e-08
3.59067e-09
8.80185e-08
3.52502e-09
8.62829e-08
3.45986e-09
8.45748e-08
3.39942e-09
8.28916e-08
3.34254e-09
8.12339e-08
3.28522e-09
7.96032e-08
3.22702e-09
7.8e-08
3.16902e-09
7.64251e-08
3.11013e-09
7.48797e-08
3.04989e-09
7.33646e-08
2.98922e-09
7.18798e-08
2.92763e-09
7.04249e-08
2.86532e-09
6.89984e-08
2.80489e-09
6.75978e-08
2.74679e-09
6.62221e-08
2.68831e-09
6.48717e-08
2.63041e-09
6.35459e-08
2.5782e-09
6.22435e-08
2.53177e-09
6.09648e-08
2.4851e-09
5.97111e-08
2.43651e-09
5.84821e-08
2.39046e-09
5.72765e-08
2.34773e-09
5.60938e-08
2.30331e-09
5.49335e-08
2.25593e-09
5.37941e-08
2.2112e-09
5.26736e-08
2.17173e-09
5.15714e-08
2.13289e-09
5.04886e-08
2.09134e-09
4.94267e-08
2.05029e-09
4.83859e-08
2.01262e-09
4.73664e-08
1.97522e-09
4.63689e-08
1.93451e-09
4.53927e-08
1.89279e-09
4.4436e-08
1.85408e-09
4.34967e-08
1.81829e-09
4.25737e-08
1.78325e-09
4.16666e-08
1.74877e-09
4.07753e-08
1.71518e-09
3.99011e-08
1.68097e-09
3.90456e-08
1.64517e-09
3.82103e-08
1.60952e-09
3.73948e-08
1.57601e-09
3.65982e-08
1.54384e-09
3.58189e-08
1.51122e-09
3.50553e-08
1.47849e-09
3.43057e-08
1.44735e-09
3.35695e-08
1.41834e-09
3.28466e-08
1.39108e-09
3.21364e-08
1.366e-09
3.14373e-08
1.34373e-09
3.07477e-08
1.32262e-09
3.00684e-08
1.29922e-09
2.9402e-08
1.27233e-09
2.87505e-08
1.24489e-09
2.81135e-08
1.2201e-09
2.74892e-08
1.19685e-09
2.68767e-08
1.1711e-09
2.62769e-08
1.14178e-09
2.56905e-08
1.11328e-09
2.51167e-08
1.09022e-09
2.4553e-08
1.07141e-09
2.39978e-08
1.05121e-09
2.34518e-08
1.0268e-09
2.29158e-08
1.00178e-09
2.23897e-08
9.81003e-10
2.1873e-08
9.64759e-10
2.13664e-08
9.49424e-10
2.08706e-08
9.33162e-10
2.03856e-08
9.17049e-10
1.99104e-08
9.01449e-10
1.94446e-08
8.84715e-10
1.8989e-08
8.66274e-10
1.85436e-08
8.47539e-10
1.8108e-08
8.28852e-10
1.76814e-08
8.0879e-10
1.72636e-08
7.8753e-10
1.68543e-08
7.67839e-10
1.64526e-08
7.51104e-10
1.60584e-08
7.36208e-10
1.56719e-08
7.22054e-10
1.52923e-08
7.09221e-10
1.49188e-08
6.9807e-10
1.45514e-08
6.87454e-10
1.41908e-08
6.76516e-10
1.38377e-08
6.66028e-10
1.34917e-08
6.5667e-10
1.31525e-08
6.47044e-10
1.28199e-08
6.34932e-10
1.24947e-08
6.19987e-10
1.21773e-08
6.03992e-10
1.18675e-08
5.88495e-10
1.15655e-08
5.73253e-10
1.12715e-08
5.57141e-10
1.09859e-08
5.3992e-10
1.07089e-08
5.22587e-10
1.04397e-08
5.0623e-10
1.01778e-08
4.91243e-10
9.92256e-09
4.77652e-10
9.67388e-09
4.65767e-10
9.4315e-09
4.55864e-10
9.19505e-09
4.47602e-10
8.96409e-09
4.39883e-10
8.73838e-09
4.31643e-10
8.51784e-09
4.22605e-10
8.3026e-09
4.13234e-10
8.09284e-09
4.03933e-10
7.88873e-09
3.94474e-10
7.6904e-09
3.84063e-10
7.49788e-09
3.72097e-10
7.31114e-09
3.58702e-10
7.13002e-09
3.44736e-10
6.95419e-09
3.31327e-10
6.78309e-09
3.19458e-10
6.61609e-09
3.0968e-10
6.4526e-09
3.02143e-10
6.2923e-09
2.96762e-10
6.13487e-09
2.9302e-10
5.98035e-09
2.90369e-10
5.82885e-09
2.88023e-10
5.68056e-09
2.85182e-10
5.53578e-09
2.81048e-10
5.39502e-09
2.74917e-10
5.25901e-09
2.66299e-10
5.12855e-09
2.55273e-10
5.00416e-09
2.42686e-10
4.88551e-09
2.29957e-10
4.77131e-09
2.18261e-10
4.65992e-09
2.07916e-10
4.55036e-09
1.98433e-10
4.44284e-09
1.89761e-10
4.33812e-09
1.8321e-10
4.23635e-09
1.80734e-10
4.13643e-09
1.82204e-10
4.03731e-09
1.84596e-10
3.93958e-09
1.83952e-10
3.84528e-09
1.79079e-10
3.75582e-09
1.71913e-10
3.67081e-09
1.6417e-10
3.58926e-09
1.54513e-10
3.51154e-09
1.40831e-10
3.43868e-09
1.24962e-10
3.37035e-09
1.12626e-10
3.30421e-09
1.07456e-10
3.23795e-09
1.06922e-10
3.1715e-09
1.06791e-10
3.10611e-09
1.06645e-10
3.04208e-09
1.09017e-10
2.97852e-09
1.14084e-10
2.91505e-09
1.18156e-10
2.85243e-09
1.18334e-10
2.79135e-09
1.15711e-10
2.7317e-09
1.12279e-10
2.67329e-09
1.07679e-10
2.61622e-09
1.01563e-10
2.56014e-09
9.61495e-11
2.50425e-09
9.36394e-11
2.44819e-09
9.3655e-11
2.39205e-09
9.54468e-11
2.33556e-09
9.97329e-11
2.27833e-09
1.06039e-10
2.22106e-09
1.10873e-10
2.16556e-09
1.11006e-10
2.11321e-09
1.07107e-10
2.06378e-09
1.02e-10
2.01593e-09
9.70715e-11
1.9686e-09
9.20205e-11
1.92131e-09
8.76284e-11
1.87357e-09
8.61432e-11
1.82475e-09
8.88266e-11
1.77459e-09
9.4241e-11
1.72357e-09
9.97187e-11
1.67264e-09
1.03523e-10
1.62262e-09
1.05145e-10
1.57402e-09
1.04186e-10
1.52717e-09
1.00142e-10
1.48231e-09
9.33436e-11
1.43949e-09
8.56296e-11
1.39826e-09
7.95328e-11
1.3577e-09
7.65056e-11
1.31726e-09
7.56404e-11
1.27751e-09
7.45916e-11
1.23979e-09
7.21861e-11
1.20479e-09
6.92625e-11
1.17223e-09
6.60743e-11
1.14178e-09
6.08122e-11
1.11333e-09
5.26514e-11
1.0861e-09
4.42755e-11
1.05863e-09
3.9347e-11
1.02991e-09
3.90132e-11
1.00023e-09
4.194e-11
9.70632e-10
4.60241e-11
9.42423e-10
4.87084e-11
9.16823e-10
4.78853e-11
8.94245e-10
4.37086e-11
8.7383e-10
3.81887e-11
8.53834e-10
3.35883e-11
8.32381e-10
3.19696e-11
8.08255e-10
3.45289e-11
7.81562e-10
4.03064e-11
7.53327e-10
4.724e-11
7.25061e-10
5.32936e-11
6.98273e-10
5.65603e-11
6.73604e-10
5.5697e-11
6.50503e-10
5.07937e-11
6.27969e-10
4.39356e-11
6.05063e-10
3.88193e-11
5.81194e-10
3.78177e-11
5.57237e-10
3.86624e-11
5.35688e-10
3.72808e-11
5.17732e-10
3.48029e-11
5.01862e-10
3.33936e-11
4.86104e-10
3.1025e-11
4.69061e-10
2.80226e-11
4.50734e-10
2.67357e-11
4.32469e-10
2.74016e-11
4.15292e-10
2.92794e-11
3.99972e-10
3.02359e-11
3.87164e-10
2.77151e-11
3.76828e-10
2.25384e-11
3.67095e-10
1.91808e-11
3.56178e-10
1.86999e-11
3.4398e-10
1.88767e-11
3.3115e-10
2.05059e-11
3.17793e-10
2.24904e-11
3.04153e-10
2.27151e-11
2.92101e-10
1.96833e-11
2.79809e-10
2.41523e-11
2.66469e-10
3.1422e-11
2.509e-10
3.65482e-11
2.3297e-10
4.12966e-11
2.17975e-10
3.47953e-11
2.07388e-10
2.55848e-11
2.00054e-10
2.09096e-11
1.91524e-10
2.13471e-11
1.79906e-10
2.61479e-11
1.70364e-10
2.01746e-11
1.63979e-10
1.13159e-11
1.62824e-10
-4.03579e-12
1.59899e-10
-4.72189e-12
1.59787e-10
-5.95882e-12
1.5591e-10
5.255e-12
1.52821e-10
9.27627e-12
1.48562e-10
6.36351e-12
1.45104e-10
7.55799e-12
1.44783e-10
-8.25879e-12
1.40305e-10
4.84804e-12
1.26846e-10
3.04849e-11
1.184e-10
2.4152e-11
1.09518e-10
2.33296e-11
1.10407e-10
2.71063e-12
1.09291e-10
1.05096e-11
1.07619e-10
1.05334e-11
1.11916e-10
-7.61481e-12
1.16708e-10
-1.3604e-11
1.16296e-10
-2.40746e-11
1.06584e-10
5.23682e-12
1.19161e-10
-3.2227e-11
1.29481e-10
-1.10243e-11
1.26141e-10
5.59627e-12
1.38499e-10
9.06439e-13
1.51621e-10
-9.71637e-12
1.57952e-10
-2.98917e-11
1.72188e-10
-8.3489e-12
1.70282e-10
-1.7259e-11
1.64049e-10
-2.62448e-11
1.85593e-10
-2.44374e-11
1.80864e-10
1.31229e-12
1.55483e-10
3.31679e-11
1.95116e-10
-5.57195e-11
2.20183e-10
-6.48411e-12
2.95212e-10
-8.96418e-11
3.58265e-10
-9.36267e-11
4.02772e-10
-4.62407e-11
4.00623e-10
-8.27384e-11
3.36278e-10
3.97039e-11
3.45613e-10
1.88496e-11
3.44265e-10
5.50648e-12
3.21901e-10
5.32312e-11
2.89429e-10
6.61726e-11
2.43369e-10
7.77908e-11
1.79998e-10
1.06482e-10
1.21795e-10
1.15525e-10
7.99711e-11
1.06997e-10
4.09628e-11
1.084e-10
-4.13846e-12
1.17876e-10
-4.98174e-11
1.14368e-10
-9.28299e-11
9.7084e-11
-1.38334e-10
8.34024e-11
-1.88919e-10
8.25701e-11
-2.39083e-10
8.60273e-11
-2.80768e-10
8.00049e-11
-3.0959e-10
6.16397e-11
-3.2639e-10
3.73876e-11
-3.35427e-10
2.01598e-11
-3.44494e-10
1.55954e-11
-3.58837e-10
2.29872e-11
-3.82636e-10
4.12214e-11
-4.1597e-10
6.33077e-11
-4.57629e-10
8.25502e-11
-5.01467e-10
9.37376e-11
-5.41311e-10
9.5704e-11
-5.73887e-10
9.0428e-11
-5.96946e-10
7.87415e-11
-6.09032e-10
6.03525e-11
-6.09739e-10
3.50302e-11
-5.99571e-10
2.92281e-12
-5.80268e-10
-3.29803e-11
-5.51097e-10
-7.16613e-11
-5.14185e-10
-1.05119e-10
-4.69662e-10
-1.3316e-10
-4.17414e-10
-1.53226e-10
-3.57435e-10
-1.65182e-10
-2.90692e-10
-1.7031e-10
-2.21058e-10
-1.67549e-10
-1.54111e-10
-1.5609e-10
-9.71143e-11
-1.33086e-10
-5.67453e-11
-9.96472e-11
-3.11987e-11
-6.08187e-11
-1.81024e-11
-2.33775e-11
-1.14256e-11
-1.6591e-13
-5.798e-12
8.90229e-12
3.63194e-12
4.05738e-12
1.83978e-11
-1.07671e-11
4.0089e-11
-3.4667e-11
7.3465e-11
-7.16925e-11
1.19829e-10
-1.10908e-10
1.75628e-10
-1.35353e-10
2.26151e-10
-1.23836e-10
2.63018e-10
-7.63374e-11
2.8203e-10
-1.98128e-11
2.9991e-10
-2.59331e-12
3.34871e-10
-4.35592e-11
3.73834e-10
-9.94115e-11
3.83641e-10
-9.14088e-11
3.44967e-10
1.05675e-11
2.72229e-10
1.32702e-10
2.28074e-10
1.59961e-10
2.48204e-10
6.9916e-11
2.72124e-10
-1.20153e-11
2.38181e-10
2.39408e-11
1.42966e-10
1.50031e-10
8.63426e-11
1.76978e-10
1.30284e-10
3.84672e-11
1.77198e-10
-8.45858e-11
1.40483e-10
-4.15585e-11
1.0627e-10
2.59142e-11
1.64427e-10
-5.85932e-11
2.20685e-10
-1.59888e-10
1.57734e-10
-9.98891e-11
1.0972e-10
1.43435e-11
9.3009e-11
7.11182e-11
6.02221e-11
5.73773e-11
2.83155e-11
1.43013e-10
7.90703e-11
6.30417e-11
1.44226e-10
-2.0931e-06
-2.69118e-07
-2.02972e-06
-1.98169e-07
-1.96536e-06
-2.00224e-07
-1.89985e-06
-2.05804e-07
-1.83368e-06
-2.0872e-07
-1.76648e-06
-2.11169e-07
-1.69797e-06
-2.13453e-07
-1.62905e-06
-2.14858e-07
-1.55992e-06
-2.15442e-07
-1.49065e-06
-2.15349e-07
-1.42107e-06
-2.14841e-07
-1.35143e-06
-2.14217e-07
-1.282e-06
-2.13177e-07
-1.21295e-06
-2.11541e-07
-1.14431e-06
-2.09576e-07
-1.07611e-06
-2.07616e-07
-1.00835e-06
-2.05566e-07
-9.41189e-07
-2.03175e-07
-8.74763e-07
-2.0056e-07
-8.09172e-07
-1.97761e-07
-7.44463e-07
-1.94707e-07
-6.80686e-07
-1.91372e-07
-6.17878e-07
-1.87802e-07
-5.56136e-07
-1.84018e-07
-4.95654e-07
-1.80027e-07
-4.36439e-07
-1.75704e-07
-3.77781e-07
-1.71991e-07
-3.20294e-07
-1.67855e-07
-2.64409e-07
-1.63668e-07
-2.0981e-07
-1.59326e-07
-1.56491e-07
-1.54892e-07
-1.04527e-07
-1.50263e-07
-5.3991e-08
-1.45475e-07
-4.94152e-09
-1.40562e-07
4.2601e-08
-1.35498e-07
8.87333e-08
-1.30391e-07
1.33377e-07
-1.25293e-07
1.76555e-07
-1.20183e-07
2.18301e-07
-1.15048e-07
2.58598e-07
-1.09877e-07
2.97397e-07
-1.04613e-07
3.34662e-07
-9.91997e-08
3.70296e-07
-9.36818e-08
4.04366e-07
-8.81447e-08
4.36859e-07
-8.27149e-08
4.67843e-07
-7.75233e-08
4.97348e-07
-7.26851e-08
5.25508e-07
-6.82424e-08
5.52451e-07
-6.42302e-08
5.78246e-07
-6.06042e-08
6.0293e-07
-5.72888e-08
6.26514e-07
-5.42067e-08
6.48965e-07
-5.12553e-08
6.7023e-07
-4.83529e-08
6.9023e-07
-4.54346e-08
7.08913e-07
-4.24498e-08
7.2617e-07
-3.93666e-08
7.41723e-07
-3.61571e-08
7.55867e-07
-3.28151e-08
7.68405e-07
-2.92971e-08
7.79334e-07
-2.57038e-08
7.88712e-07
-2.20464e-08
7.9657e-07
-1.83219e-08
8.02964e-07
-1.45253e-08
8.07941e-07
-1.06674e-08
8.11573e-07
-6.73262e-09
8.13872e-07
-2.63556e-09
8.14798e-07
1.78483e-09
8.14333e-07
6.6669e-09
8.12517e-07
1.20836e-08
8.0938e-07
1.81351e-08
8.04966e-07
2.49629e-08
7.99516e-07
3.26241e-08
7.93531e-07
4.12765e-08
7.87741e-07
5.12459e-08
7.83339e-07
6.25417e-08
7.82102e-07
7.5404e-08
7.92662e-07
8.97752e-08
8.16547e-07
1.01587e-07
8.14864e-07
1.07016e-07
8.06738e-07
1.271e-07
7.61512e-07
1.46681e-07
6.67909e-07
1.26819e-07
5.58076e-07
1.39164e-07
4.41481e-07
1.12973e-07
4.07131e-07
4.24466e-08
3.68737e-07
3.80461e-08
3.51603e-07
1.07459e-08
3.45067e-07
-7.93518e-09
3.46156e-07
1.79417e-09
3.56045e-07
-9.85685e-09
3.69625e-07
-1.44468e-08
3.6744e-07
3.53724e-09
3.66015e-07
1.7454e-09
3.65491e-07
8.95573e-10
3.64274e-07
3.48912e-09
3.64093e-07
2.92857e-09
3.64153e-07
3.30765e-09
3.63351e-07
5.44783e-09
3.62508e-07
5.97987e-09
3.60961e-07
6.50514e-09
3.59225e-07
7.76743e-09
3.56894e-07
8.19315e-09
3.53743e-07
8.18891e-09