/*--------------------------------*- C++ -*----------------------------------*\
| =========                 |                                                 |
| \\      /  F ield         | OpenFOAM: The Open Source CFD Toolbox           |
|  \\    /   O peration     | Version:  v2006                                 |
|   \\  /    A nd           | Website:  www.openfoam.com                      |
|    \\/     M anipulation  |                                                 |
\*---------------------------------------------------------------------------*/
FoamFile
{
    version     2.0;
    format      ascii;
    class       volScalarField;
    location    "0.5";
    object      k;
}
// * * * * * * * * * * * * * * * * * * * * * * * * * * * * * * * * * * * * * //

dimensions      [0 2 -2 0 0 0 0];


internalField   nonuniform List<scalar> 
33000
(
1.21333e-08
1.28834e-08
1.28546e-08
1.28366e-08
1.28235e-08
1.28103e-08
1.27962e-08
1.27817e-08
1.2767e-08
1.27521e-08
1.2737e-08
1.27217e-08
1.27065e-08
1.26925e-08
1.26829e-08
1.26761e-08
1.26694e-08
1.26558e-08
1.26381e-08
1.26201e-08
1.26018e-08
1.25817e-08
1.25612e-08
1.25405e-08
1.25198e-08
1.2499e-08
1.24782e-08
1.24558e-08
1.24324e-08
1.2409e-08
1.23855e-08
1.23622e-08
1.23392e-08
1.23161e-08
1.22928e-08
1.22748e-08
1.22586e-08
1.22417e-08
1.22223e-08
1.22001e-08
1.21774e-08
1.21548e-08
1.21304e-08
1.21044e-08
1.20769e-08
1.20438e-08
1.20096e-08
1.1975e-08
1.19366e-08
1.18981e-08
1.18599e-08
1.1822e-08
1.17848e-08
1.17496e-08
1.17186e-08
1.1689e-08
1.16595e-08
1.163e-08
1.16003e-08
1.15704e-08
1.15401e-08
1.15094e-08
1.14781e-08
1.14462e-08
1.14136e-08
1.13801e-08
1.13456e-08
1.13099e-08
1.12725e-08
1.12332e-08
1.11912e-08
1.11455e-08
1.10946e-08
1.1036e-08
1.09656e-08
1.0878e-08
1.07492e-08
1.07243e-08
1.02692e-08
1.02901e-08
1.01793e-08
1.02027e-08
1.01939e-08
1.01814e-08
1.01966e-08
1.01949e-08
1.01806e-08
1.01732e-08
1.0167e-08
1.01627e-08
1.01565e-08
1.01531e-08
1.01482e-08
1.01423e-08
1.01368e-08
1.01306e-08
1.01244e-08
1.01166e-08
1.01116e-08
1.00988e-08
1.00937e-08
1.00861e-08
1.00807e-08
1.00746e-08
1.00683e-08
1.00625e-08
1.00563e-08
1.00498e-08
1.00434e-08
1.00371e-08
1.00307e-08
1.00242e-08
1.00177e-08
1.0011e-08
1.00045e-08
9.99614e-09
9.99161e-09
9.9769e-09
9.97265e-09
9.96544e-09
9.96089e-09
9.95581e-09
9.95064e-09
9.94595e-09
9.94101e-09
9.93596e-09
9.93105e-09
9.92614e-09
9.92125e-09
9.91643e-09
9.91165e-09
9.90692e-09
9.90224e-09
9.8976e-09
9.89303e-09
9.88852e-09
9.88409e-09
9.87971e-09
9.87538e-09
9.87112e-09
9.86693e-09
9.86281e-09
9.85875e-09
9.85474e-09
9.8508e-09
9.84692e-09
9.84309e-09
9.83931e-09
9.83559e-09
9.83194e-09
9.82833e-09
9.82478e-09
9.82129e-09
9.81784e-09
9.81445e-09
9.81111e-09
9.80783e-09
9.8046e-09
9.80143e-09
9.79831e-09
9.79523e-09
9.7922e-09
9.78923e-09
9.78632e-09
9.78345e-09
9.78063e-09
9.77786e-09
9.77514e-09
9.77247e-09
9.76984e-09
9.76726e-09
9.76472e-09
9.76224e-09
9.75979e-09
9.75738e-09
9.75503e-09
9.75271e-09
9.75044e-09
9.7482e-09
9.74601e-09
9.74386e-09
9.74174e-09
9.73967e-09
9.73764e-09
9.73565e-09
9.7337e-09
9.73179e-09
9.72992e-09
9.72808e-09
9.72629e-09
9.72452e-09
9.7228e-09
9.72111e-09
9.71947e-09
9.71785e-09
9.71627e-09
9.71473e-09
9.71321e-09
9.71173e-09
9.71028e-09
9.70886e-09
9.70747e-09
9.70611e-09
9.70478e-09
9.70347e-09
9.7022e-09
9.70096e-09
9.69974e-09
9.69856e-09
9.69741e-09
9.69629e-09
9.69519e-09
9.69412e-09
9.69307e-09
9.69204e-09
9.69104e-09
9.69005e-09
9.68907e-09
9.68812e-09
9.6872e-09
9.68629e-09
9.6854e-09
9.68453e-09
9.68368e-09
9.68285e-09
9.68203e-09
9.68122e-09
9.68043e-09
9.67966e-09
9.67891e-09
9.67818e-09
9.67746e-09
9.67676e-09
9.67608e-09
9.67541e-09
9.67476e-09
9.67412e-09
9.67349e-09
9.67287e-09
9.67228e-09
9.6717e-09
9.67113e-09
9.67058e-09
9.67003e-09
9.6695e-09
9.66898e-09
9.66846e-09
9.66796e-09
9.66746e-09
9.66698e-09
9.6665e-09
9.66603e-09
9.66557e-09
9.66513e-09
9.66469e-09
9.66427e-09
9.66385e-09
9.66344e-09
9.66305e-09
9.66266e-09
9.66229e-09
9.66192e-09
9.66155e-09
9.6612e-09
9.66084e-09
9.6605e-09
9.66016e-09
9.65983e-09
9.65952e-09
9.65921e-09
9.65891e-09
9.65862e-09
9.65835e-09
9.65808e-09
9.65781e-09
9.65756e-09
9.6573e-09
9.65706e-09
9.65681e-09
9.65657e-09
9.65632e-09
9.65608e-09
9.65585e-09
9.65562e-09
9.65539e-09
9.65517e-09
9.65496e-09
9.65476e-09
9.65456e-09
9.65437e-09
9.65419e-09
9.65401e-09
9.65384e-09
9.65367e-09
9.65351e-09
9.65335e-09
9.65319e-09
9.65303e-09
9.65288e-09
9.65273e-09
9.65258e-09
9.65243e-09
9.65229e-09
9.65215e-09
9.65201e-09
9.65188e-09
9.65176e-09
9.65165e-09
9.65154e-09
9.65143e-09
9.65132e-09
9.65122e-09
9.65112e-09
9.65101e-09
9.6509e-09
9.65079e-09
9.65068e-09
9.65057e-09
9.65047e-09
9.65037e-09
9.65028e-09
9.65019e-09
9.65011e-09
9.65004e-09
9.64997e-09
9.64991e-09
9.64985e-09
9.64978e-09
9.64971e-09
9.64965e-09
9.64958e-09
9.64951e-09
9.64944e-09
9.64938e-09
9.64932e-09
9.64928e-09
9.64924e-09
9.64921e-09
9.64918e-09
9.64914e-09
9.64911e-09
9.64908e-09
9.64904e-09
9.64899e-09
9.64894e-09
9.6489e-09
9.64885e-09
9.64881e-09
9.64877e-09
9.64873e-09
9.6487e-09
9.64867e-09
9.64864e-09
9.6486e-09
9.64857e-09
9.64852e-09
9.64848e-09
9.64843e-09
9.64839e-09
9.64835e-09
9.64832e-09
9.64829e-09
9.64826e-09
9.64824e-09
9.64821e-09
9.64819e-09
9.64816e-09
9.64813e-09
9.64811e-09
9.64809e-09
9.64808e-09
9.64806e-09
9.64805e-09
9.64804e-09
9.64802e-09
9.64801e-09
9.648e-09
9.64798e-09
9.64797e-09
9.64796e-09
9.64794e-09
9.64793e-09
9.64793e-09
9.64792e-09
9.64791e-09
9.6479e-09
9.64788e-09
9.64787e-09
9.64785e-09
9.64783e-09
9.64781e-09
9.64779e-09
9.64777e-09
9.64775e-09
9.64773e-09
9.6477e-09
9.64768e-09
9.64764e-09
9.64761e-09
9.64758e-09
9.64755e-09
9.64753e-09
9.6475e-09
9.64747e-09
9.64744e-09
9.64741e-09
9.64739e-09
9.64736e-09
9.64734e-09
9.64732e-09
9.6473e-09
9.64727e-09
9.64725e-09
9.64723e-09
9.64722e-09
9.64721e-09
9.64721e-09
9.64721e-09
9.64721e-09
9.6472e-09
9.6472e-09
9.6472e-09
9.64719e-09
9.64718e-09
9.64716e-09
9.64714e-09
9.64713e-09
9.64712e-09
9.64711e-09
9.6471e-09
9.64709e-09
9.64708e-09
9.64707e-09
9.64707e-09
9.64707e-09
9.64706e-09
9.64705e-09
9.64703e-09
9.64702e-09
9.64701e-09
9.64702e-09
9.64701e-09
9.64701e-09
9.64701e-09
9.64701e-09
9.64701e-09
9.64702e-09
9.64703e-09
9.64705e-09
9.64707e-09
9.64708e-09
9.6471e-09
9.64712e-09
9.64713e-09
9.64714e-09
9.64714e-09
9.64716e-09
9.64717e-09
9.64718e-09
9.6472e-09
9.6472e-09
9.6472e-09
9.6472e-09
9.6472e-09
9.6472e-09
9.64718e-09
9.64718e-09
9.64718e-09
9.64714e-09
9.64744e-09
9.64734e-09
9.64732e-09
9.6473e-09
9.64726e-09
9.64722e-09
9.64719e-09
9.64716e-09
9.64714e-09
9.64713e-09
9.64716e-09
9.64721e-09
9.64727e-09
9.64733e-09
9.64738e-09
9.64744e-09
9.6475e-09
9.64755e-09
9.64761e-09
9.64766e-09
9.6477e-09
9.64775e-09
9.64779e-09
9.64783e-09
9.64788e-09
9.64793e-09
9.64798e-09
9.64802e-09
9.64807e-09
9.6481e-09
9.64813e-09
9.64815e-09
9.64815e-09
9.64814e-09
9.64812e-09
9.64808e-09
9.64803e-09
9.64798e-09
9.64792e-09
9.64786e-09
9.6478e-09
9.64775e-09
9.64771e-09
9.64769e-09
9.64766e-09
9.64763e-09
9.64759e-09
9.64755e-09
9.64751e-09
9.64748e-09
9.64746e-09
9.64745e-09
9.64746e-09
9.64746e-09
9.64747e-09
9.64744e-09
9.64741e-09
9.64738e-09
9.64738e-09
9.6474e-09
9.64741e-09
9.64738e-09
9.6473e-09
9.6472e-09
9.64713e-09
9.64711e-09
9.6471e-09
9.64709e-09
9.64709e-09
9.64708e-09
9.64707e-09
9.64703e-09
9.64701e-09
9.64705e-09
9.64716e-09
9.64717e-09
9.64712e-09
9.64709e-09
9.64705e-09
9.64703e-09
9.65444e-09
1.00067e-08
1.0007e-08
1.00073e-08
1.00075e-08
1.0008e-08
1.00087e-08
1.00093e-08
1.00098e-08
1.00102e-08
1.00106e-08
1.00108e-08
1.0011e-08
1.00109e-08
1.00108e-08
1.00109e-08
1.00109e-08
1.00109e-08
1.0011e-08
1.00111e-08
1.00112e-08
1.00113e-08
1.00114e-08
1.00114e-08
1.00114e-08
1.00114e-08
1.00113e-08
1.00112e-08
1.00111e-08
1.0011e-08
1.00106e-08
1.00103e-08
1.001e-08
1.00098e-08
1.00096e-08
1.00095e-08
1.00094e-08
1.00092e-08
1.00091e-08
1.0009e-08
1.0009e-08
1.00089e-08
1.00089e-08
1.00088e-08
1.00088e-08
1.00087e-08
1.00085e-08
1.00083e-08
1.00082e-08
1.00082e-08
1.00081e-08
1.00081e-08
1.0008e-08
1.00079e-08
1.00079e-08
1.00078e-08
1.00078e-08
1.00078e-08
1.00078e-08
1.00078e-08
1.00079e-08
1.00079e-08
1.00076e-08
1.00075e-08
1.00074e-08
1.00074e-08
1.00075e-08
1.00077e-08
1.00079e-08
1.00081e-08
1.00081e-08
1.00082e-08
1.00086e-08
1.00094e-08
1.00105e-08
1.00122e-08
1.00147e-08
1.00189e-08
1.00251e-08
1.00183e-08
1.00112e-08
1.00088e-08
1.00058e-08
1.0007e-08
1.00061e-08
1.0006e-08
1.00073e-08
1.00026e-08
1.00014e-08
1.00029e-08
1.00017e-08
1.0002e-08
1.0001e-08
1.00013e-08
1.00008e-08
1.00008e-08
1.0001e-08
1.0001e-08
1.00012e-08
1.00011e-08
1.00012e-08
1.00013e-08
1.0002e-08
1.0002e-08
1.00013e-08
1.00013e-08
1.00011e-08
1.00011e-08
1.0001e-08
1.00009e-08
1.00008e-08
1.00009e-08
1.00009e-08
1.00009e-08
1.0001e-08
1.00009e-08
1.0001e-08
1.00007e-08
1.0001e-08
1.00011e-08
1.00021e-08
1.00021e-08
1.0001e-08
1.00011e-08
1.00006e-08
1.00006e-08
1.00004e-08
1.00004e-08
1.00005e-08
1.00005e-08
1.00004e-08
1.00004e-08
1.00004e-08
1.00003e-08
1.00003e-08
1.00003e-08
1.00003e-08
1.00002e-08
1.00002e-08
1.00002e-08
1.00001e-08
1.00001e-08
1.00001e-08
1e-08
1e-08
9.99999e-09
9.99996e-09
9.99994e-09
9.99992e-09
9.99989e-09
9.99987e-09
9.99985e-09
9.99983e-09
9.9998e-09
9.99978e-09
9.99976e-09
9.99973e-09
9.9997e-09
9.99968e-09
9.99965e-09
9.99963e-09
9.9996e-09
9.99958e-09
9.99956e-09
9.99953e-09
9.9995e-09
9.99948e-09
9.99945e-09
9.99942e-09
9.9994e-09
9.99938e-09
9.99935e-09
9.99932e-09
9.9993e-09
9.99927e-09
9.99924e-09
9.99921e-09
9.99919e-09
9.99916e-09
9.99914e-09
9.99911e-09
9.99909e-09
9.99907e-09
9.99905e-09
9.99903e-09
9.99901e-09
9.99899e-09
9.99897e-09
9.99895e-09
9.99893e-09
9.99892e-09
9.9989e-09
9.99889e-09
9.99887e-09
9.99886e-09
9.99884e-09
9.99882e-09
9.99881e-09
9.9988e-09
9.99878e-09
9.99877e-09
9.99876e-09
9.99875e-09
9.99874e-09
9.99872e-09
9.99871e-09
9.9987e-09
9.99869e-09
9.99868e-09
9.99867e-09
9.99866e-09
9.99865e-09
9.99865e-09
9.99864e-09
9.99863e-09
9.99862e-09
9.99861e-09
9.99861e-09
9.9986e-09
9.99859e-09
9.99858e-09
9.99858e-09
9.99857e-09
9.99857e-09
9.99856e-09
9.99856e-09
9.99855e-09
9.99854e-09
9.99854e-09
9.99853e-09
9.99853e-09
9.99852e-09
9.99852e-09
9.99851e-09
9.99851e-09
9.9985e-09
9.9985e-09
9.99849e-09
9.99849e-09
9.99848e-09
9.99848e-09
9.99848e-09
9.99848e-09
9.99847e-09
9.99847e-09
9.99847e-09
9.99846e-09
9.99846e-09
9.99846e-09
9.99846e-09
9.99845e-09
9.99845e-09
9.99845e-09
9.99844e-09
9.99844e-09
9.99844e-09
9.99844e-09
9.99844e-09
9.99843e-09
9.99843e-09
9.99843e-09
9.99843e-09
9.99843e-09
9.99842e-09
9.99842e-09
9.99842e-09
9.99842e-09
9.99841e-09
9.99841e-09
9.99841e-09
9.99841e-09
9.99841e-09
9.99841e-09
9.99841e-09
9.9984e-09
9.9984e-09
9.9984e-09
9.9984e-09
9.9984e-09
9.9984e-09
9.99839e-09
9.99839e-09
9.99839e-09
9.99839e-09
9.99839e-09
9.99839e-09
9.99839e-09
9.99839e-09
9.99839e-09
9.99839e-09
9.99839e-09
9.99839e-09
9.99839e-09
9.99839e-09
9.99839e-09
9.99839e-09
9.99839e-09
9.99839e-09
9.99839e-09
9.99839e-09
9.99838e-09
9.99838e-09
9.99838e-09
9.99838e-09
9.99839e-09
9.99839e-09
9.99839e-09
9.99839e-09
9.99839e-09
9.99839e-09
9.99839e-09
9.99839e-09
9.99839e-09
9.99839e-09
9.99839e-09
9.99839e-09
9.99839e-09
9.99839e-09
9.99839e-09
9.99839e-09
9.99839e-09
9.99839e-09
9.99839e-09
9.99839e-09
9.99839e-09
9.99839e-09
9.99839e-09
9.99839e-09
9.99839e-09
9.99839e-09
9.99839e-09
9.99839e-09
9.99839e-09
9.99839e-09
9.99839e-09
9.99839e-09
9.99839e-09
9.99839e-09
9.99839e-09
9.99838e-09
9.99838e-09
9.99838e-09
9.99838e-09
9.99838e-09
9.99838e-09
9.99838e-09
9.99838e-09
9.99838e-09
9.99838e-09
9.99837e-09
9.99837e-09
9.99837e-09
9.99837e-09
9.99837e-09
9.99837e-09
9.99837e-09
9.99837e-09
9.99837e-09
9.99836e-09
9.99836e-09
9.99836e-09
9.99836e-09
9.99836e-09
9.99836e-09
9.99836e-09
9.99836e-09
9.99836e-09
9.99836e-09
9.99835e-09
9.99835e-09
9.99835e-09
9.99835e-09
9.99835e-09
9.99835e-09
9.99835e-09
9.99835e-09
9.99835e-09
9.99835e-09
9.99835e-09
9.99835e-09
9.99835e-09
9.99835e-09
9.99835e-09
9.99835e-09
9.99835e-09
9.99834e-09
9.99834e-09
9.99834e-09
9.99834e-09
9.99834e-09
9.99834e-09
9.99834e-09
9.99834e-09
9.99834e-09
9.99834e-09
9.99834e-09
9.99834e-09
9.99833e-09
9.99833e-09
9.99833e-09
9.99833e-09
9.99833e-09
9.99833e-09
9.99833e-09
9.99833e-09
9.99833e-09
9.99833e-09
9.99833e-09
9.99833e-09
9.99833e-09
9.99833e-09
9.99833e-09
9.99833e-09
9.99833e-09
9.99833e-09
9.99833e-09
9.99833e-09
9.99833e-09
9.99833e-09
9.99833e-09
9.99833e-09
9.99833e-09
9.99832e-09
9.99832e-09
9.99832e-09
9.99832e-09
9.99832e-09
9.99832e-09
9.99832e-09
9.99832e-09
9.99832e-09
9.99832e-09
9.99832e-09
9.99833e-09
9.99833e-09
9.99833e-09
9.99832e-09
9.99832e-09
9.99832e-09
9.99832e-09
9.99832e-09
9.99832e-09
9.99832e-09
9.99832e-09
9.99832e-09
9.99832e-09
9.99832e-09
9.99832e-09
9.99832e-09
9.99832e-09
9.99832e-09
9.99832e-09
9.99832e-09
9.99832e-09
9.99832e-09
9.99832e-09
9.99832e-09
9.99832e-09
9.99832e-09
9.99832e-09
9.99832e-09
9.99832e-09
9.99832e-09
9.99832e-09
9.99832e-09
9.99831e-09
9.99832e-09
9.99831e-09
9.99829e-09
9.99829e-09
9.99828e-09
9.99828e-09
9.99828e-09
9.99828e-09
9.99828e-09
9.99828e-09
9.99828e-09
9.99828e-09
9.99828e-09
9.99828e-09
9.99828e-09
9.99828e-09
9.99829e-09
9.99829e-09
9.99829e-09
9.99829e-09
9.99829e-09
9.99829e-09
9.9983e-09
9.9983e-09
9.9983e-09
9.9983e-09
9.99831e-09
9.99831e-09
9.99831e-09
9.99831e-09
9.99831e-09
9.99832e-09
9.99832e-09
9.99832e-09
9.99833e-09
9.99833e-09
9.99833e-09
9.99834e-09
9.99834e-09
9.99834e-09
9.99835e-09
9.99835e-09
9.99835e-09
9.99835e-09
9.99835e-09
9.99836e-09
9.99836e-09
9.99836e-09
9.99836e-09
9.99836e-09
9.99836e-09
9.99836e-09
9.99836e-09
9.99836e-09
9.99836e-09
9.99837e-09
9.99837e-09
9.99837e-09
9.99837e-09
9.99837e-09
9.99837e-09
9.99837e-09
9.99837e-09
9.99837e-09
9.99837e-09
9.99836e-09
9.99836e-09
9.99836e-09
9.99837e-09
9.99837e-09
9.99836e-09
9.99836e-09
9.99836e-09
9.99837e-09
9.99837e-09
9.99837e-09
9.99837e-09
9.99837e-09
9.99837e-09
9.99837e-09
9.99836e-09
9.99836e-09
9.99836e-09
9.99836e-09
9.99839e-09
1.00075e-08
1.00063e-08
1.00053e-08
1.00045e-08
1.00038e-08
1.00035e-08
1.00034e-08
1.00033e-08
1.00032e-08
1.00031e-08
1.00029e-08
1.00028e-08
1.00027e-08
1.00026e-08
1.00025e-08
1.00023e-08
1.00022e-08
1.00021e-08
1.0002e-08
1.00019e-08
1.00018e-08
1.00017e-08
1.00016e-08
1.00015e-08
1.00014e-08
1.00013e-08
1.00013e-08
1.00012e-08
1.00012e-08
1.00011e-08
1.00011e-08
1.00011e-08
1.00011e-08
1.00011e-08
1.00011e-08
1.00011e-08
1.00012e-08
1.00013e-08
1.00014e-08
1.00014e-08
1.00014e-08
1.00014e-08
1.00013e-08
1.00013e-08
1.00012e-08
1.0001e-08
1.00009e-08
1.00008e-08
1.00008e-08
1.00007e-08
1.00007e-08
1.00007e-08
1.00007e-08
1.00008e-08
1.00008e-08
1.00009e-08
1.0001e-08
1.00011e-08
1.00013e-08
1.00013e-08
1.00014e-08
1.00014e-08
1.00015e-08
1.00016e-08
1.00016e-08
1.00016e-08
1.00017e-08
1.00018e-08
1.0002e-08
1.00021e-08
1.00023e-08
1.00024e-08
1.00025e-08
1.00026e-08
1.00027e-08
1.00029e-08
1.00029e-08
1.00029e-08
1.00028e-08
1.00029e-08
1.0003e-08
1.00033e-08
1.00032e-08
1.00032e-08
1.00034e-08
1.00036e-08
1.00035e-08
1.00034e-08
1.0003e-08
1.00033e-08
1.00012e-08
1.00017e-08
1.00019e-08
1.00021e-08
1.00018e-08
1.00022e-08
1.00017e-08
1.00016e-08
1.00016e-08
1.00016e-08
1.00018e-08
1.00018e-08
1.0002e-08
1.00019e-08
1.00024e-08
1.00024e-08
1.0002e-08
1.0002e-08
1.00019e-08
1.00017e-08
1.00017e-08
1.00016e-08
1.00015e-08
1.00016e-08
1.00016e-08
1.00015e-08
1.00013e-08
1.00013e-08
1.00015e-08
1.00015e-08
1.00019e-08
1.00018e-08
1.00027e-08
1.00027e-08
1.00018e-08
1.00018e-08
1.00014e-08
1.00014e-08
1.00012e-08
1.00012e-08
1.00013e-08
1.00012e-08
1.00012e-08
1.00012e-08
1.00012e-08
1.00011e-08
1.00011e-08
1.00011e-08
1.00011e-08
1.0001e-08
1.0001e-08
1.0001e-08
1.0001e-08
1.0001e-08
1.0001e-08
1.00009e-08
1.00009e-08
1.00009e-08
1.00009e-08
1.00009e-08
1.00009e-08
1.00009e-08
1.00008e-08
1.00008e-08
1.00008e-08
1.00008e-08
1.00008e-08
1.00008e-08
1.00007e-08
1.00007e-08
1.00007e-08
1.00007e-08
1.00007e-08
1.00007e-08
1.00007e-08
1.00006e-08
1.00006e-08
1.00006e-08
1.00006e-08
1.00006e-08
1.00006e-08
1.00006e-08
1.00005e-08
1.00005e-08
1.00005e-08
1.00005e-08
1.00005e-08
1.00005e-08
1.00005e-08
1.00004e-08
1.00004e-08
1.00004e-08
1.00004e-08
1.00004e-08
1.00004e-08
1.00004e-08
1.00003e-08
1.00003e-08
1.00003e-08
1.00003e-08
1.00003e-08
1.00003e-08
1.00003e-08
1.00002e-08
1.00002e-08
1.00002e-08
1.00002e-08
1.00002e-08
1.00002e-08
1.00002e-08
1.00002e-08
1.00001e-08
1.00001e-08
1.00001e-08
1.00001e-08
1.00001e-08
1.00001e-08
1.00001e-08
1e-08
1e-08
1e-08
1e-08
1e-08
9.99999e-09
9.99998e-09
9.99997e-09
9.99996e-09
9.99995e-09
9.99994e-09
9.99993e-09
9.99992e-09
9.99991e-09
9.9999e-09
9.99989e-09
9.99988e-09
9.99987e-09
9.99986e-09
9.99985e-09
9.99985e-09
9.99984e-09
9.99983e-09
9.99983e-09
9.99982e-09
9.99981e-09
9.9998e-09
9.99979e-09
9.99978e-09
9.99978e-09
9.99977e-09
9.99976e-09
9.99976e-09
9.99975e-09
9.99974e-09
9.99974e-09
9.99973e-09
9.99973e-09
9.99972e-09
9.99972e-09
9.99971e-09
9.99971e-09
9.9997e-09
9.9997e-09
9.99969e-09
9.99969e-09
9.99968e-09
9.99968e-09
9.99968e-09
9.99968e-09
9.99967e-09
9.99967e-09
9.99967e-09
9.99966e-09
9.99966e-09
9.99965e-09
9.99965e-09
9.99965e-09
9.99964e-09
9.99964e-09
9.99964e-09
9.99964e-09
9.99964e-09
9.99963e-09
9.99963e-09
9.99963e-09
9.99963e-09
9.99962e-09
9.99962e-09
9.99962e-09
9.99962e-09
9.99962e-09
9.99961e-09
9.99961e-09
9.99961e-09
9.99961e-09
9.99961e-09
9.99961e-09
9.99961e-09
9.99961e-09
9.99961e-09
9.99961e-09
9.99961e-09
9.99961e-09
9.99961e-09
9.9996e-09
9.9996e-09
9.9996e-09
9.9996e-09
9.9996e-09
9.9996e-09
9.9996e-09
9.9996e-09
9.9996e-09
9.9996e-09
9.9996e-09
9.9996e-09
9.9996e-09
9.9996e-09
9.9996e-09
9.9996e-09
9.9996e-09
9.9996e-09
9.9996e-09
9.9996e-09
9.9996e-09
9.9996e-09
9.9996e-09
9.9996e-09
9.9996e-09
9.9996e-09
9.9996e-09
9.9996e-09
9.9996e-09
9.9996e-09
9.9996e-09
9.9996e-09
9.9996e-09
9.9996e-09
9.9996e-09
9.9996e-09
9.9996e-09
9.9996e-09
9.9996e-09
9.9996e-09
9.9996e-09
9.9996e-09
9.9996e-09
9.9996e-09
9.99959e-09
9.99959e-09
9.99959e-09
9.99959e-09
9.99959e-09
9.99959e-09
9.99959e-09
9.99959e-09
9.99959e-09
9.99959e-09
9.99959e-09
9.99959e-09
9.99958e-09
9.99958e-09
9.99958e-09
9.99958e-09
9.99958e-09
9.99958e-09
9.99958e-09
9.99958e-09
9.99958e-09
9.99958e-09
9.99958e-09
9.99957e-09
9.99957e-09
9.99957e-09
9.99957e-09
9.99957e-09
9.99957e-09
9.99957e-09
9.99957e-09
9.99957e-09
9.99957e-09
9.99957e-09
9.99957e-09
9.99957e-09
9.99956e-09
9.99956e-09
9.99956e-09
9.99956e-09
9.99956e-09
9.99956e-09
9.99956e-09
9.99956e-09
9.99956e-09
9.99956e-09
9.99956e-09
9.99956e-09
9.99956e-09
9.99956e-09
9.99956e-09
9.99956e-09
9.99955e-09
9.99955e-09
9.99955e-09
9.99955e-09
9.99955e-09
9.99955e-09
9.99955e-09
9.99955e-09
9.99955e-09
9.99955e-09
9.99955e-09
9.99955e-09
9.99955e-09
9.99955e-09
9.99955e-09
9.99955e-09
9.99955e-09
9.99955e-09
9.99954e-09
9.99954e-09
9.99954e-09
9.99954e-09
9.99954e-09
9.99954e-09
9.99954e-09
9.99954e-09
9.99954e-09
9.99954e-09
9.99954e-09
9.99954e-09
9.99954e-09
9.99954e-09
9.99954e-09
9.99954e-09
9.99954e-09
9.99954e-09
9.99954e-09
9.99954e-09
9.99954e-09
9.99954e-09
9.99954e-09
9.99954e-09
9.99954e-09
9.99954e-09
9.99954e-09
9.99954e-09
9.99954e-09
9.99954e-09
9.99954e-09
9.99954e-09
9.99954e-09
9.99954e-09
9.99954e-09
9.99954e-09
9.99954e-09
9.99954e-09
9.99954e-09
9.99954e-09
9.99954e-09
9.99954e-09
9.99954e-09
9.99954e-09
9.99954e-09
9.99954e-09
9.99954e-09
9.99954e-09
9.99954e-09
9.99954e-09
9.99954e-09
9.99954e-09
9.99953e-09
9.99954e-09
9.99954e-09
9.99954e-09
9.99954e-09
9.99952e-09
9.99952e-09
9.99951e-09
9.99951e-09
9.99951e-09
9.99951e-09
9.99951e-09
9.99951e-09
9.99951e-09
9.99951e-09
9.99951e-09
9.9995e-09
9.9995e-09
9.99951e-09
9.99951e-09
9.99951e-09
9.99951e-09
9.99951e-09
9.99951e-09
9.99951e-09
9.99951e-09
9.99951e-09
9.99952e-09
9.99952e-09
9.99952e-09
9.99952e-09
9.99952e-09
9.99952e-09
9.99953e-09
9.99953e-09
9.99953e-09
9.99953e-09
9.99953e-09
9.99954e-09
9.99954e-09
9.99954e-09
9.99954e-09
9.99955e-09
9.99955e-09
9.99955e-09
9.99956e-09
9.99956e-09
9.99956e-09
9.99956e-09
9.99956e-09
9.99957e-09
9.99957e-09
9.99957e-09
9.99957e-09
9.99957e-09
9.99957e-09
9.99957e-09
9.99957e-09
9.99957e-09
9.99957e-09
9.99958e-09
9.99958e-09
9.99958e-09
9.99958e-09
9.99958e-09
9.99958e-09
9.99958e-09
9.99958e-09
9.99958e-09
9.99958e-09
9.99958e-09
9.99957e-09
9.99958e-09
9.99958e-09
9.99958e-09
9.99958e-09
9.99957e-09
9.99958e-09
9.99958e-09
9.99958e-09
9.99958e-09
9.99958e-09
9.99958e-09
9.99958e-09
9.99958e-09
9.99957e-09
9.99957e-09
9.99957e-09
9.99958e-09
9.99958e-09
9.99957e-09
1.0002e-08
1.00015e-08
1.00019e-08
1.0002e-08
1.00021e-08
1.00023e-08
1.00025e-08
1.00026e-08
1.00027e-08
1.00027e-08
1.00027e-08
1.00026e-08
1.00026e-08
1.00025e-08
1.00024e-08
1.00023e-08
1.00022e-08
1.00021e-08
1.0002e-08
1.0002e-08
1.00019e-08
1.00018e-08
1.00018e-08
1.00017e-08
1.00016e-08
1.00016e-08
1.00016e-08
1.00016e-08
1.00016e-08
1.00016e-08
1.00017e-08
1.00017e-08
1.00018e-08
1.00018e-08
1.00018e-08
1.00018e-08
1.00019e-08
1.0002e-08
1.00021e-08
1.00021e-08
1.00022e-08
1.00022e-08
1.00022e-08
1.00022e-08
1.00021e-08
1.0002e-08
1.00019e-08
1.00017e-08
1.00017e-08
1.00016e-08
1.00016e-08
1.00017e-08
1.00017e-08
1.00018e-08
1.00019e-08
1.00019e-08
1.0002e-08
1.0002e-08
1.00021e-08
1.00021e-08
1.00021e-08
1.00021e-08
1.00021e-08
1.00021e-08
1.00022e-08
1.00023e-08
1.00024e-08
1.00025e-08
1.00026e-08
1.00028e-08
1.00028e-08
1.00029e-08
1.0003e-08
1.0003e-08
1.00031e-08
1.00031e-08
1.00031e-08
1.00031e-08
1.00031e-08
1.0003e-08
1.00021e-08
1.00024e-08
1.0003e-08
1.00031e-08
1.00035e-08
1.00034e-08
1.00033e-08
1.00033e-08
1.00036e-08
1.00036e-08
1.00036e-08
1.00033e-08
1.00035e-08
1.00013e-08
1.00015e-08
1.00023e-08
1.00024e-08
1.00021e-08
1.00023e-08
1.00018e-08
1.00016e-08
1.00017e-08
1.00017e-08
1.00019e-08
1.00019e-08
1.0002e-08
1.00021e-08
1.00022e-08
1.00026e-08
1.00026e-08
1.00021e-08
1.00021e-08
1.00018e-08
1.00017e-08
1.00016e-08
1.00015e-08
1.00015e-08
1.00015e-08
1.00014e-08
1.00013e-08
1.00013e-08
1.00016e-08
1.00016e-08
1.00019e-08
1.00019e-08
1.00027e-08
1.00027e-08
1.00018e-08
1.00018e-08
1.00014e-08
1.00014e-08
1.00012e-08
1.00012e-08
1.00012e-08
1.00012e-08
1.00012e-08
1.00012e-08
1.00011e-08
1.00011e-08
1.00011e-08
1.00011e-08
1.0001e-08
1.0001e-08
1.0001e-08
1.0001e-08
1.0001e-08
1.00009e-08
1.00009e-08
1.00009e-08
1.00009e-08
1.00009e-08
1.00009e-08
1.00009e-08
1.00008e-08
1.00008e-08
1.00008e-08
1.00008e-08
1.00008e-08
1.00008e-08
1.00007e-08
1.00007e-08
1.00007e-08
1.00007e-08
1.00007e-08
1.00007e-08
1.00007e-08
1.00006e-08
1.00006e-08
1.00006e-08
1.00006e-08
1.00006e-08
1.00006e-08
1.00006e-08
1.00005e-08
1.00005e-08
1.00005e-08
1.00005e-08
1.00005e-08
1.00005e-08
1.00005e-08
1.00004e-08
1.00004e-08
1.00004e-08
1.00004e-08
1.00004e-08
1.00004e-08
1.00004e-08
1.00003e-08
1.00003e-08
1.00003e-08
1.00003e-08
1.00003e-08
1.00003e-08
1.00003e-08
1.00002e-08
1.00002e-08
1.00002e-08
1.00002e-08
1.00002e-08
1.00002e-08
1.00002e-08
1.00001e-08
1.00001e-08
1.00001e-08
1.00001e-08
1.00001e-08
1.00001e-08
1.00001e-08
1.00001e-08
1e-08
1e-08
1e-08
1e-08
1e-08
9.99999e-09
9.99998e-09
9.99997e-09
9.99996e-09
9.99995e-09
9.99994e-09
9.99993e-09
9.99992e-09
9.99991e-09
9.9999e-09
9.99989e-09
9.99988e-09
9.99987e-09
9.99986e-09
9.99985e-09
9.99984e-09
9.99984e-09
9.99983e-09
9.99982e-09
9.99981e-09
9.99981e-09
9.9998e-09
9.99979e-09
9.99978e-09
9.99977e-09
9.99977e-09
9.99976e-09
9.99976e-09
9.99975e-09
9.99974e-09
9.99974e-09
9.99973e-09
9.99973e-09
9.99972e-09
9.99972e-09
9.99971e-09
9.99971e-09
9.9997e-09
9.9997e-09
9.99969e-09
9.99969e-09
9.99968e-09
9.99968e-09
9.99968e-09
9.99967e-09
9.99967e-09
9.99967e-09
9.99966e-09
9.99966e-09
9.99966e-09
9.99965e-09
9.99965e-09
9.99965e-09
9.99965e-09
9.99964e-09
9.99964e-09
9.99964e-09
9.99964e-09
9.99963e-09
9.99963e-09
9.99963e-09
9.99963e-09
9.99962e-09
9.99962e-09
9.99962e-09
9.99962e-09
9.99962e-09
9.99962e-09
9.99961e-09
9.99961e-09
9.99961e-09
9.99961e-09
9.99961e-09
9.99961e-09
9.99961e-09
9.99961e-09
9.99961e-09
9.99961e-09
9.99961e-09
9.99961e-09
9.99961e-09
9.9996e-09
9.9996e-09
9.9996e-09
9.9996e-09
9.9996e-09
9.9996e-09
9.9996e-09
9.9996e-09
9.9996e-09
9.9996e-09
9.9996e-09
9.9996e-09
9.9996e-09
9.9996e-09
9.9996e-09
9.9996e-09
9.9996e-09
9.9996e-09
9.9996e-09
9.9996e-09
9.9996e-09
9.9996e-09
9.9996e-09
9.9996e-09
9.9996e-09
9.9996e-09
9.9996e-09
9.9996e-09
9.9996e-09
9.9996e-09
9.9996e-09
9.9996e-09
9.9996e-09
9.9996e-09
9.9996e-09
9.9996e-09
9.9996e-09
9.9996e-09
9.9996e-09
9.9996e-09
9.9996e-09
9.9996e-09
9.9996e-09
9.9996e-09
9.9996e-09
9.99959e-09
9.99959e-09
9.99959e-09
9.99959e-09
9.99959e-09
9.99959e-09
9.99959e-09
9.99959e-09
9.99959e-09
9.99959e-09
9.99959e-09
9.99959e-09
9.99958e-09
9.99958e-09
9.99958e-09
9.99958e-09
9.99958e-09
9.99958e-09
9.99958e-09
9.99958e-09
9.99958e-09
9.99958e-09
9.99958e-09
9.99958e-09
9.99957e-09
9.99957e-09
9.99957e-09
9.99957e-09
9.99957e-09
9.99957e-09
9.99957e-09
9.99957e-09
9.99957e-09
9.99957e-09
9.99957e-09
9.99957e-09
9.99957e-09
9.99957e-09
9.99957e-09
9.99957e-09
9.99956e-09
9.99956e-09
9.99956e-09
9.99956e-09
9.99956e-09
9.99956e-09
9.99956e-09
9.99956e-09
9.99956e-09
9.99956e-09
9.99956e-09
9.99956e-09
9.99956e-09
9.99956e-09
9.99956e-09
9.99956e-09
9.99955e-09
9.99955e-09
9.99955e-09
9.99955e-09
9.99955e-09
9.99955e-09
9.99955e-09
9.99955e-09
9.99955e-09
9.99955e-09
9.99955e-09
9.99955e-09
9.99955e-09
9.99955e-09
9.99955e-09
9.99955e-09
9.99955e-09
9.99955e-09
9.99955e-09
9.99955e-09
9.99955e-09
9.99955e-09
9.99955e-09
9.99955e-09
9.99955e-09
9.99955e-09
9.99955e-09
9.99955e-09
9.99955e-09
9.99955e-09
9.99955e-09
9.99955e-09
9.99955e-09
9.99955e-09
9.99955e-09
9.99955e-09
9.99955e-09
9.99955e-09
9.99955e-09
9.99955e-09
9.99955e-09
9.99955e-09
9.99955e-09
9.99955e-09
9.99955e-09
9.99955e-09
9.99955e-09
9.99955e-09
9.99955e-09
9.99955e-09
9.99955e-09
9.99954e-09
9.99954e-09
9.99954e-09
9.99954e-09
9.99954e-09
9.99954e-09
9.99954e-09
9.99954e-09
9.99954e-09
9.99954e-09
9.99955e-09
9.99954e-09
9.99955e-09
9.99955e-09
9.99953e-09
9.99953e-09
9.99952e-09
9.99952e-09
9.99952e-09
9.99952e-09
9.99952e-09
9.99952e-09
9.99952e-09
9.99951e-09
9.99951e-09
9.99951e-09
9.99951e-09
9.99951e-09
9.99951e-09
9.99951e-09
9.99951e-09
9.99951e-09
9.99951e-09
9.99951e-09
9.99951e-09
9.99952e-09
9.99952e-09
9.99952e-09
9.99952e-09
9.99952e-09
9.99952e-09
9.99953e-09
9.99953e-09
9.99953e-09
9.99953e-09
9.99953e-09
9.99953e-09
9.99954e-09
9.99954e-09
9.99954e-09
9.99954e-09
9.99955e-09
9.99955e-09
9.99955e-09
9.99955e-09
9.99956e-09
9.99956e-09
9.99956e-09
9.99956e-09
9.99957e-09
9.99957e-09
9.99957e-09
9.99957e-09
9.99957e-09
9.99957e-09
9.99957e-09
9.99957e-09
9.99958e-09
9.99958e-09
9.99958e-09
9.99958e-09
9.99958e-09
9.99958e-09
9.99958e-09
9.99958e-09
9.99958e-09
9.99959e-09
9.99958e-09
9.99958e-09
9.99958e-09
9.99958e-09
9.99958e-09
9.99958e-09
9.99958e-09
9.99958e-09
9.99958e-09
9.99958e-09
9.99958e-09
9.99958e-09
9.99959e-09
9.99958e-09
9.99958e-09
9.99958e-09
9.99958e-09
9.99959e-09
9.99958e-09
9.99958e-09
9.99958e-09
9.99958e-09
9.99958e-09
9.99958e-09
9.99958e-09
9.99958e-09
1.00034e-08
1.00025e-08
1.00026e-08
1.00027e-08
1.00028e-08
1.00028e-08
1.00029e-08
1.00029e-08
1.00029e-08
1.00029e-08
1.00028e-08
1.00027e-08
1.00027e-08
1.00026e-08
1.00026e-08
1.00025e-08
1.00025e-08
1.00024e-08
1.00024e-08
1.00024e-08
1.00024e-08
1.00023e-08
1.00023e-08
1.00023e-08
1.00022e-08
1.00022e-08
1.00022e-08
1.00022e-08
1.00022e-08
1.00022e-08
1.00022e-08
1.00022e-08
1.00023e-08
1.00022e-08
1.00022e-08
1.00021e-08
1.0002e-08
1.0002e-08
1.0002e-08
1.00021e-08
1.00021e-08
1.00022e-08
1.00023e-08
1.00023e-08
1.00023e-08
1.00024e-08
1.00024e-08
1.00024e-08
1.00024e-08
1.00025e-08
1.00025e-08
1.00026e-08
1.00027e-08
1.00027e-08
1.00028e-08
1.00027e-08
1.00027e-08
1.00027e-08
1.00027e-08
1.00026e-08
1.00026e-08
1.00026e-08
1.00026e-08
1.00026e-08
1.00027e-08
1.00028e-08
1.00029e-08
1.0003e-08
1.00031e-08
1.00032e-08
1.00032e-08
1.00032e-08
1.00032e-08
1.00032e-08
1.00033e-08
1.00033e-08
1.00033e-08
1.00033e-08
1.00032e-08
1.00032e-08
1.00031e-08
1.00028e-08
1.00023e-08
1.00028e-08
1.00029e-08
1.0003e-08
1.0003e-08
1.00032e-08
1.00035e-08
1.00035e-08
1.00036e-08
1.00037e-08
1.00037e-08
1.00037e-08
1.00034e-08
1.00035e-08
1.00015e-08
1.00016e-08
1.00025e-08
1.00026e-08
1.00022e-08
1.00024e-08
1.00018e-08
1.00017e-08
1.00018e-08
1.00019e-08
1.0002e-08
1.00021e-08
1.0002e-08
1.00022e-08
1.00021e-08
1.00026e-08
1.00025e-08
1.0002e-08
1.0002e-08
1.00017e-08
1.00016e-08
1.00015e-08
1.00015e-08
1.00015e-08
1.00015e-08
1.00015e-08
1.00014e-08
1.00014e-08
1.00016e-08
1.00016e-08
1.00019e-08
1.00019e-08
1.00027e-08
1.00026e-08
1.00018e-08
1.00018e-08
1.00014e-08
1.00014e-08
1.00013e-08
1.00012e-08
1.00011e-08
1.00012e-08
1.00012e-08
1.00011e-08
1.00011e-08
1.00011e-08
1.00011e-08
1.0001e-08
1.0001e-08
1.0001e-08
1.0001e-08
1.0001e-08
1.0001e-08
1.00009e-08
1.00009e-08
1.00009e-08
1.00009e-08
1.00009e-08
1.00009e-08
1.00008e-08
1.00008e-08
1.00008e-08
1.00008e-08
1.00008e-08
1.00008e-08
1.00007e-08
1.00007e-08
1.00007e-08
1.00007e-08
1.00007e-08
1.00007e-08
1.00007e-08
1.00006e-08
1.00006e-08
1.00006e-08
1.00006e-08
1.00006e-08
1.00006e-08
1.00005e-08
1.00005e-08
1.00005e-08
1.00005e-08
1.00005e-08
1.00005e-08
1.00005e-08
1.00004e-08
1.00004e-08
1.00004e-08
1.00004e-08
1.00004e-08
1.00004e-08
1.00004e-08
1.00003e-08
1.00003e-08
1.00003e-08
1.00003e-08
1.00003e-08
1.00003e-08
1.00003e-08
1.00002e-08
1.00002e-08
1.00002e-08
1.00002e-08
1.00002e-08
1.00002e-08
1.00001e-08
1.00001e-08
1.00001e-08
1.00001e-08
1.00001e-08
1.00001e-08
1.00001e-08
1.00001e-08
1e-08
1e-08
1e-08
1e-08
1e-08
9.99999e-09
9.99998e-09
9.99997e-09
9.99996e-09
9.99995e-09
9.99994e-09
9.99992e-09
9.99991e-09
9.9999e-09
9.99989e-09
9.99989e-09
9.99988e-09
9.99987e-09
9.99986e-09
9.99985e-09
9.99984e-09
9.99983e-09
9.99983e-09
9.99982e-09
9.99981e-09
9.9998e-09
9.9998e-09
9.99979e-09
9.99978e-09
9.99978e-09
9.99977e-09
9.99976e-09
9.99975e-09
9.99975e-09
9.99974e-09
9.99973e-09
9.99973e-09
9.99972e-09
9.99972e-09
9.99971e-09
9.99971e-09
9.9997e-09
9.9997e-09
9.9997e-09
9.99969e-09
9.99969e-09
9.99968e-09
9.99968e-09
9.99967e-09