/*--------------------------------*- C++ -*----------------------------------*\
| =========                 |                                                 |
| \\      /  F ield         | OpenFOAM: The Open Source CFD Toolbox           |
|  \\    /   O peration     | Version:  v2006                                 |
|   \\  /    A nd           | Website:  www.openfoam.com                      |
|    \\/     M anipulation  |                                                 |
\*---------------------------------------------------------------------------*/
FoamFile
{
    version     2.0;
    format      ascii;
    class       volScalarField;
    location    "0.5";
    object      omega;
}
// * * * * * * * * * * * * * * * * * * * * * * * * * * * * * * * * * * * * * //

dimensions      [0 0 -1 0 0 0 0];


internalField   nonuniform List<scalar> 
33000
(
0.80148
0.801561
0.801558
0.801556
0.801554
0.801553
0.801551
0.801549
0.801548
0.801546
0.801544
0.801543
0.801541
0.801539
0.801538
0.801537
0.801537
0.801536
0.801535
0.801534
0.801533
0.801532
0.801531
0.80153
0.801528
0.801527
0.801526
0.801524
0.801522
0.801521
0.801519
0.801517
0.801516
0.801514
0.801512
0.801511
0.80151
0.801509
0.801508
0.801506
0.801504
0.801502
0.8015
0.801498
0.801495
0.801492
0.801488
0.801484
0.80148
0.801476
0.801472
0.801468
0.801464
0.801459
0.801455
0.801451
0.801447
0.801443
0.801439
0.801434
0.80143
0.801426
0.801421
0.801417
0.801413
0.801408
0.801404
0.801399
0.801394
0.801389
0.801384
0.801378
0.801371
0.801364
0.801356
0.801345
0.80133
0.801327
0.801272
0.801274
0.801261
0.801264
0.801263
0.801261
0.801263
0.801262
0.801261
0.80126
0.801259
0.801258
0.801257
0.801257
0.801256
0.801256
0.801255
0.801254
0.801253
0.801252
0.801251
0.80125
0.801249
0.801248
0.801248
0.801247
0.801246
0.801245
0.801244
0.801244
0.801243
0.801242
0.801241
0.80124
0.80124
0.801239
0.801238
0.801237
0.801236
0.801235
0.801234
0.801233
0.801233
0.801232
0.801232
0.801231
0.80123
0.80123
0.801229
0.801229
0.801228
0.801228
0.801227
0.801226
0.801226
0.801225
0.801225
0.801224
0.801224
0.801223
0.801223
0.801222
0.801222
0.801221
0.801221
0.80122
0.80122
0.801219
0.801219
0.801219
0.801218
0.801218
0.801217
0.801217
0.801216
0.801216
0.801216
0.801215
0.801215
0.801215
0.801214
0.801214
0.801214
0.801213
0.801213
0.801213
0.801212
0.801212
0.801212
0.801211
0.801211
0.801211
0.80121
0.80121
0.80121
0.80121
0.801209
0.801209
0.801209
0.801209
0.801208
0.801208
0.801208
0.801208
0.801207
0.801207
0.801207
0.801207
0.801206
0.801206
0.801206
0.801206
0.801206
0.801206
0.801205
0.801205
0.801205
0.801205
0.801205
0.801204
0.801204
0.801204
0.801204
0.801204
0.801204
0.801204
0.801203
0.801203
0.801203
0.801203
0.801203
0.801203
0.801203
0.801203
0.801202
0.801202
0.801202
0.801202
0.801202
0.801202
0.801202
0.801202
0.801202
0.801202
0.801201
0.801201
0.801201
0.801201
0.801201
0.801201
0.801201
0.801201
0.801201
0.801201
0.801201
0.801201
0.8012
0.8012
0.8012
0.8012
0.8012
0.8012
0.8012
0.8012
0.8012
0.8012
0.8012
0.8012
0.8012
0.8012
0.8012
0.8012
0.8012
0.8012
0.801199
0.801199
0.801199
0.801199
0.801199
0.801199
0.801199
0.801199
0.801199
0.801199
0.801199
0.801199
0.801199
0.801199
0.801199
0.801199
0.801199
0.801199
0.801199
0.801199
0.801199
0.801199
0.801199
0.801199
0.801199
0.801199
0.801199
0.801199
0.801199
0.801198
0.801198
0.801198
0.801198
0.801198
0.801198
0.801198
0.801198
0.801198
0.801198
0.801198
0.801198
0.801198
0.801198
0.801198
0.801198
0.801198
0.801198
0.801198
0.801198
0.801198
0.801198
0.801198
0.801198
0.801198
0.801198
0.801198
0.801198
0.801198
0.801198
0.801198
0.801198
0.801198
0.801198
0.801198
0.801198
0.801198
0.801198
0.801198
0.801198
0.801198
0.801198
0.801198
0.801198
0.801198
0.801198
0.801198
0.801198
0.801198
0.801198
0.801198
0.801198
0.801198
0.801198
0.801198
0.801198
0.801198
0.801198
0.801198
0.801198
0.801198
0.801198
0.801198
0.801198
0.801198
0.801198
0.801198
0.801198
0.801198
0.801198
0.801198
0.801198
0.801198
0.801198
0.801198
0.801198
0.801198
0.801198
0.801198
0.801198
0.801198
0.801198
0.801198
0.801198
0.801198
0.801198
0.801198
0.801198
0.801198
0.801198
0.801198
0.801198
0.801198
0.801198
0.801198
0.801198
0.801198
0.801198
0.801198
0.801198
0.801198
0.801198
0.801198
0.801198
0.801198
0.801198
0.801198
0.801198
0.801198
0.801198
0.801198
0.801198
0.801198
0.801198
0.801198
0.801198
0.801198
0.801198
0.801198
0.801198
0.801198
0.801198
0.801198
0.801198
0.801198
0.801198
0.801198
0.801198
0.801198
0.801198
0.801198
0.801198
0.801198
0.801198
0.801198
0.801198
0.801198
0.801198
0.801198
0.801198
0.801198
0.801198
0.801198
0.801198
0.801198
0.801198
0.801198
0.801198
0.801198
0.801198
0.801198
0.801198
0.801198
0.801198
0.801198
0.801198
0.801198
0.801198
0.801198
0.801198
0.801198
0.801198
0.801198
0.801198
0.801198
0.801198
0.801198
0.801198
0.801198
0.801198
0.801198
0.801198
0.801198
0.801198
0.801198
0.801198
0.801198
0.801198
0.801198
0.801198
0.801198
0.801198
0.801198
0.801198
0.801198
0.801198
0.801198
0.801198
0.801198
0.801198
0.801198
0.801198
0.801198
0.801198
0.801198
0.801198
0.801198
0.801198
0.801198
0.801198
0.801198
0.801198
0.801198
0.801198
0.801198
0.801198
0.801198
0.801198
0.801198
0.801198
0.801198
0.801198
0.801198
0.801198
0.801198
0.801198
0.801198
0.801198
0.801198
0.801198
0.801198
0.801198
0.801198
0.801198
0.801198
0.801198
0.801198
0.801198
0.801198
0.801198
0.801198
0.801198
0.801198
0.801198
0.801198
0.801198
0.801198
0.801198
0.801198
0.801198
0.801198
0.801198
0.801198
0.801198
0.801198
0.801198
0.801198
0.801198
0.801198
0.801198
0.801198
0.801198
0.801198
0.801198
0.801198
0.801198
0.801198
0.801198
0.801198
0.801198
0.801198
0.801198
0.801198
0.801198
0.801198
0.801198
0.801198
0.801198
0.801198
0.0029353
0.00342034
0.0034064
0.00347348
0.00354126
0.00360888
0.00365054
0.00368624
0.00372138
0.00375388
0.00378666
0.00382045
0.00385292
0.00388532
0.0039171
0.00394726
0.00397592
0.00400332
0.00402945
0.00405499
0.00408046
0.00410581
0.00412827
0.00414386
0.00415003
0.00415094
0.00415276
0.00415463
0.00415723
0.00416038
0.00416347
0.00416641
0.00416953
0.00417272
0.00417564
0.00417817
0.00418021
0.0041813
0.0041798
0.00417556
0.00417287
0.00416759
0.00416043
0.00415173
0.00414138
0.0041295
0.004116
0.00410184
0.00408736
0.00407266
0.00405798
0.00404365
0.00403018
0.00401815
0.0040082
0.00400044
0.00399448
0.00398937
0.00398524
0.00398339
0.00398132
0.00398089
0.00398382
0.0039917
0.00400647
0.00402877
0.00405718
0.00409456
0.00414689
0.00422225
0.00433231
0.00449365
0.00474377
0.00515794
0.00581749
0.00690033
0.00868657
0.0119536
0.0106584
0.00499424
0.00390643
0.00217342
0.00263602
0.00223061
0.00228605
0.00275856
0.00299321
0.0032254
0.00286479
0.00288863
0.00280426
0.00294316
0.00291617
0.00300626
0.0030267
0.00298841
0.00299411
0.002995
0.00307118
0.00304259
0.00296944
0.00285351
0.00283651
0.00292825
0.00291388
0.00295207
0.0029677
0.00298158
0.00300575
0.00300961
0.00299818
0.00300351
0.0030122
0.00302284
0.00304618
0.00306753
0.0031727
0.00313269
0.00304256
0.00290352
0.00287775
0.00298958
0.00297771
0.00302971
0.00305375
0.00308947
0.00310119
0.00308601
0.00308977
0.00309809
0.00310371
0.00311078
0.003118
0.00312461
0.00313203
0.00313961
0.00314707
0.00315474
0.00316279
0.0031701
0.00317769
0.00318555
0.00319353
0.00320088
0.00320899
0.00321766
0.0032249
0.00323224
0.0032401
0.00324804
0.00325506
0.00326207
0.00326965
0.0032765
0.00328299
0.00329033
0.00329824
0.00330461
0.0033107
0.00331629
0.00332172
0.0033268
0.00333181
0.00333654
0.00334145
0.00334671
0.00335156
0.00335473
0.00335817
0.00335996
0.0033601
0.00336
0.00335906
0.00335817
0.00335708
0.00335496
0.00335309
0.00335139
0.00334954
0.00334764
0.00334591
0.00334423
0.00334235
0.00334037
0.00333856
0.00333688
0.00333516
0.0033334
0.00333173
0.00333015
0.00332852
0.00332678
0.00332501
0.00332335
0.00332179
0.00332027
0.00331877
0.00331732
0.00331592
0.00331454
0.00331319
0.00331188
0.00331056
0.00330925
0.00330797
0.00330666
0.00330532
0.00330399
0.00330267
0.0033013
0.00329997
0.00329884
0.0032979
0.00329696
0.00329599
0.00329513
0.00329436
0.00329349
0.00329249
0.00329154
0.00329071
0.00328989
0.00328901
0.0032882
0.00328754
0.00328691
0.00328618
0.00328539
0.00328463
0.00328392
0.00328318
0.00328246
0.00328177
0.0032811
0.00328044
0.00327983
0.0032793
0.00327878
0.00327818
0.00327751
0.00327684
0.00327623
0.00327571
0.00327526
0.00327487
0.00327449
0.00327405
0.00327359
0.0032732
0.00327291
0.0032726
0.00327215
0.00327158
0.00327108
0.00327076
0.00327049
0.00327009
0.00326953
0.00326896
0.00326855
0.0032683
0.00326809
0.00326788
0.00326766
0.00326742
0.00326712
0.00326681
0.00326649
0.00326617
0.00326578
0.00326534
0.00326497
0.0032647
0.0032645
0.00326431
0.00326415
0.00326402
0.00326389
0.00326379
0.00326371
0.00326366
0.00326358
0.00326343
0.00326322
0.00326297
0.00326274
0.00326252
0.00326227
0.00326201
0.00326174
0.00326148
0.00326124
0.00326104
0.00326088
0.00326078
0.00326072
0.00326066
0.00326059
0.00326048
0.00326037
0.00326027
0.00326017
0.00326005
0.00325987
0.00325965
0.00325941
0.00325917
0.00325896
0.0032588
0.00325869
0.00325863
0.00325861
0.00325863
0.00325867
0.00325869
0.00325868
0.00325862
0.00325852
0.00325836
0.00325817
0.00325797
0.00325776
0.00325753
0.00325731
0.00325711
0.003257
0.00325703
0.00325713
0.00325724
0.00325726
0.00325722
0.00325715
0.00325705
0.00325686
0.00325655
0.00325621
0.00325597
0.00325587
0.00325584
0.00325583
0.00325585
0.00325596
0.00325612
0.00325624
0.00325626
0.00325622
0.00325614
0.00325603
0.00325586
0.00325571
0.00325562
0.0032556
0.00325563
0.00325573
0.00325588
0.00325601
0.00325604
0.003256
0.00325591
0.00325579
0.00325563
0.00325548
0.0032554
0.00325543
0.00325555
0.00325568
0.00325578
0.00325585
0.00325586
0.00325579
0.00325563
0.00325546
0.00325532
0.00325524
0.00325522
0.00325521
0.00325519
0.00325519
0.00325517
0.00325507
0.00325488
0.00325466
0.00325451
0.00325446
0.00325452
0.00325464
0.00325476
0.00325482
0.00325478
0.00325466
0.00325453
0.00325442
0.0032544
0.00325448
0.00325463
0.0032548
0.00325493
0.00325496
0.00325484
0.00325463
0.00325444
0.00325437
0.00325437
0.00325439
0.00325442
0.00325443
0.00325435
0.0032542
0.00325411
0.00325413
0.00325421
0.00325429
0.00325428
0.00325419
0.00325409
0.00325403
0.00325399
0.00325401
0.00325405
0.00325404
0.00325399
0.00325412
0.00325436
0.0032545
0.00325462
0.00325451
0.00325435
0.00325433
0.00325434
0.00325444
0.00325433
0.00325415
0.00325393
0.00325393
0.00325398
0.00325414
0.00325435
0.00325422
0.00325433
0.00325408
0.00325424
0.00325485
0.00325483
0.00325479
0.00325442
0.00325465
0.00325464
0.00325429
0.00325424
0.00325409
0.00325429
0.00325414
0.00325436
0.00325444
0.00325482
0.00325445
0.00325405
0.00325448
0.00325402
0.00325386
0.00325414
0.00325402
0.00325415
0.00325397
0.00325445
0.00325368
0.00325394
0.00325464
0.003255
0.00325582
0.00325572
0.00325482
0.00325541
0.00325534
0.00325516
0.00325545
0.00325583
0.00325604
0.00325615
0.00325623
0.00325606
0.00325553
0.00325498
0.00325477
0.00325489
0.00325495
0.00325476
0.00325436
0.00325406
0.00325394
0.003254
0.00325428
0.00325473
0.00325516
0.00325557
0.00325584
0.00325595
0.00325591
0.00325567
0.00325516
0.00325438
0.00325374
0.0032537
0.00325369
0.00325368
0.00325368
0.00325368
0.00325368
0.00325368
0.00325368
0.00325369
0.00325371
0.00325378
0.00325393
0.00325428
0.00325455
0.00325453
0.00325426
0.00325399
0.00325389
0.00325382
0.00325378
0.00325382
0.00325393
0.0032542
0.00325468
0.00325413
0.00325392
0.00325384
0.00325401
0.00325603
0.00325778
0.00325701
0.00325469
0.00325418
0.00325592
0.00325789
0.00325673
0.00325407
0.0032539
0.00325418
0.00325429
0.00325381
0.00325368
0.00325407
0.00325595
0.00325512
0.00325778
0.00325788
0.0032244
0.00113075
0.00111649
0.0010428
0.00101808
0.00101623
0.00101627
0.00101669
0.0010171
0.00101745
0.0010178
0.00101816
0.00101851
0.00101881
0.0010191
0.00101936
0.00101961
0.00101984
0.00102003
0.0010202
0.00102036
0.00102051
0.00102065
0.00102076
0.00102081
0.0010208
0.00102076
0.00102072
0.00102069
0.00102066
0.00102063
0.00102058
0.00102052
0.00102045
0.00102037
0.00102029
0.0010202
0.0010201
0.00101999
0.00101988
0.00101978
0.00101967
0.00101953
0.00101937
0.00101919
0.001019
0.00101879
0.00101858
0.00101837
0.00101815
0.00101794
0.00101773
0.00101754
0.00101735
0.00101716
0.00101698
0.00101681
0.00101666
0.00101652
0.00101641
0.00101633
0.00101626
0.00101621
0.00101621
0.00101626
0.00101635
0.0010165
0.00101673
0.00101707
0.00101757
0.00101824
0.00101917
0.00102048
0.00102239
0.00102536
0.00103021
0.00103834
0.00105268
0.00108392
0.00108452
0.00104622
0.00104036
0.00103019
0.00102713
0.00104873
0.00104576
0.00102761
0.0010235
0.0010189
0.00100737
0.0010096
0.00100443
0.00100505
0.00100464
0.00100496
0.00100467
0.00100478
0.00100467
0.0010046
0.00100485
0.00100483
0.00100464
0.00100444
0.00100447
0.00100462
0.00100484
0.00100492
0.00100468
0.00100471
0.00100467
0.00100461
0.00100458
0.00100456
0.00100457
0.00100461
0.00100465
0.00100469
0.00100492
0.00100483
0.00100469
0.00100445
0.00100448
0.00100462
0.00100501
0.00100508
0.00100466
0.00100473
0.00100465
0.00100463
0.00100463
0.00100465
0.00100467
0.0010047
0.00100472
0.00100474
0.00100477
0.0010048
0.00100482
0.00100485
0.00100488
0.00100491
0.00100494
0.00100497
0.00100501
0.00100504
0.00100508
0.00100511
0.00100515
0.00100518
0.00100522
0.00100526
0.00100529
0.00100533
0.00100537
0.00100541
0.00100545
0.00100549
0.00100553
0.00100557
0.00100561
0.00100564
0.00100568
0.00100572
0.00100575
0.00100579
0.00100583
0.00100587
0.00100591
0.00100594
0.00100598
0.00100601
0.00100603
0.00100606
0.00100608
0.0010061
0.00100613
0.00100615
0.00100617
0.00100619
0.00100621
0.00100623
0.00100626
0.00100628
0.00100631
0.00100634
0.00100637
0.0010064
0.00100642
0.00100645
0.00100647
0.00100649
0.00100652
0.00100654
0.00100658
0.00100661
0.00100665
0.00100669
0.00100672
0.00100675
0.00100677
0.00100679
0.00100681
0.00100684
0.00100687
0.0010069
0.00100693
0.00100695
0.00100697
0.00100699
0.00100701
0.00100703
0.00100705
0.00100707
0.0010071
0.00100713
0.00100716
0.00100718
0.0010072
0.00100723
0.00100724
0.00100726
0.00100729
0.00100731
0.00100733
0.00100735
0.00100738
0.00100739
0.0010074
0.00100742
0.00100743
0.00100744
0.00100744
0.00100745
0.00100745
0.00100746
0.00100746
0.00100747
0.00100748
0.00100747
0.00100747
0.00100747
0.00100746
0.00100746
0.00100745
0.00100745
0.00100745
0.00100745
0.00100744
0.00100744
0.00100744
0.00100743
0.00100743
0.00100743
0.00100742
0.00100742
0.00100742
0.00100742
0.00100741
0.00100741
0.00100741
0.00100741
0.0010074
0.0010074
0.0010074
0.0010074
0.0010074
0.0010074
0.00100739
0.00100739
0.00100739
0.00100739
0.00100738
0.00100738
0.00100738
0.00100738
0.00100738
0.00100738
0.00100738
0.00100738
0.00100737
0.00100737
0.00100737
0.00100737
0.00100737
0.00100737
0.00100737
0.00100737
0.00100737
0.00100736
0.00100736
0.00100736
0.00100736
0.00100736
0.00100736
0.00100736
0.00100735
0.00100735
0.00100735
0.00100735
0.00100735
0.00100735
0.00100735
0.00100735
0.00100735
0.00100735
0.00100735
0.00100735
0.00100734
0.00100734
0.00100734
0.00100734
0.00100734
0.00100734
0.00100734
0.00100734
0.00100734
0.00100734
0.00100734
0.00100734
0.00100734
0.00100734
0.00100734
0.00100734
0.00100733
0.00100733
0.00100733
0.00100733
0.00100733
0.00100733
0.00100733
0.00100733
0.00100733
0.00100733
0.00100733
0.00100733
0.00100733
0.00100733
0.00100733
0.00100732
0.00100732
0.00100732
0.00100732
0.00100732
0.00100732
0.00100733
0.00100733
0.00100732
0.00100732
0.00100732
0.00100732
0.00100732
0.00100732
0.00100732
0.00100732
0.00100732
0.00100732
0.00100732
0.00100732
0.00100732
0.00100732
0.00100732
0.00100732
0.00100732
0.00100732
0.00100732
0.00100732
0.00100732
0.00100732
0.00100732
0.00100732
0.00100732
0.00100732
0.00100732
0.00100732
0.00100732
0.00100732
0.00100732
0.00100732
0.00100732
0.00100732
0.00100731
0.00100731
0.00100731
0.00100731
0.00100731
0.00100731
0.00100731
0.00100731
0.00100731
0.00100731
0.00100731
0.00100731
0.00100731
0.00100731
0.00100731
0.00100731
0.00100731
0.00100731
0.00100731
0.00100731
0.00100731
0.00100731
0.00100731
0.00100731
0.00100731
0.00100731
0.00100731
0.00100731
0.00100731
0.00100731
0.00100731
0.00100731
0.00100731
0.00100731
0.00100731
0.00100731
0.00100731
0.00100731
0.00100731
0.00100731
0.00100731
0.00100731
0.00100731
0.00100731
0.00100731
0.00100731
0.00100731
0.00100731
0.00100731
0.00100731
0.00100731
0.00100731
0.00100731
0.00100731
0.00100731
0.00100731
0.00100731
0.00100731
0.00100731
0.00100731
0.00100731
0.00100731
0.00100731
0.00100731
0.00100731
0.00100731
0.00100731
0.00100731
0.00100731
0.00100731
0.00100731
0.00100731
0.00100731
0.00100731
0.00100731
0.00100731
0.00100731
0.00100731
0.00100731
0.00100731
0.00100731
0.00100731
0.00100731
0.00100731
0.00100731
0.00100731
0.00100731
0.00100731
0.00100731
0.00100731
0.00100732
0.00100731
0.00100731
0.00100731
0.00100731
0.00100731
0.00100732
0.00100732
0.00100732
0.00100732
0.00100732
0.00100732
0.00100731
0.00100731
0.00100731
0.00100731
0.00100731
0.00100731
0.00100731
0.00100731
0.00100731
0.00100731
0.00100731
0.00100731
0.00100731
0.00100732
0.00100732
0.00100732
0.00100732
0.00100731
0.00100731
0.00100731
0.0010073
0.0010073
0.00100731
0.00100731
0.00100731
0.00100731
0.00100731
0.00100731
0.00100731
0.00100731
0.00100731
0.00100731
0.00100731
0.00100731
0.00100731
0.00100731
0.00100731
0.00100731
0.00100731
0.00100731
0.00100731
0.00100731
0.00100731
0.00100731
0.00100731
0.00100731
0.00100731
0.00100731
0.00100731
0.00100732
0.00100733
0.00100732
0.00100731
0.00100731
0.00100732
0.00100733
0.00100732
0.00100731
0.00100731
0.00100731
0.00100731
0.00100731
0.00100731
0.00100731
0.00100732
0.00100732
0.00100733
0.00100732
0.00100717
0.00114632
0.00111306
0.00103807
0.00101276
0.00101066
0.00101036
0.00101052
0.0010107
0.00101087
0.00101102
0.00101116
0.00101126
0.00101134
0.00101141
0.00101146
0.0010115
0.00101152
0.00101151
0.00101149
0.00101146
0.00101143
0.00101139
0.00101134
0.00101129
0.00101124
0.00101118
0.00101112
0.00101105
0.00101097
0.00101088
0.00101079
0.00101069
0.00101058
0.00101047
0.00101035
0.00101023
0.0010101
0.00100997
0.00100984
0.00100972
0.0010096
0.00100949
0.00100936
0.00100924
0.00100911
0.00100898
0.00100885
0.00100872
0.00100859
0.00100846
0.00100834
0.00100822
0.00100811
0.00100799
0.00100787
0.00100775
0.00100763
0.00100752
0.00100742
0.00100733
0.00100724
0.00100718
0.00100712
0.00100707
0.00100703
0.00100701
0.001007
0.00100701
0.00100703
0.00100706
0.00100709
0.00100712
0.00100712
0.00100708
0.00100696
0.00100672
0.00100632
0.00100566
0.00100454
0.00100354
0.00100383
0.00100589
0.00101212
0.00101481
0.00101834
0.0010219
0.00102731
0.00104368
0.00104297
0.00102072
0.00101917
0.00100538
0.00100669
0.0010007
0.00100113
0.00100146
0.00100159
0.00100106
0.00100121
0.00100082
0.00100071
0.00100082
0.00100084
0.00100091
0.00100094
0.00100099
0.0010011
0.00100111
0.00100145
0.00100144
0.001001
0.00100097
0.00100078
0.00100074
0.00100064
0.0010006
0.0010006
0.00100057
0.00100055
0.00100049
0.00100049
0.00100057
0.00100057
0.00100075
0.00100074
0.00100133
0.00100131
0.00100069
0.00100068
0.00100046
0.00100044
0.00100037
0.00100035
0.00100038
0.00100038
0.00100036
0.00100034
0.00100033
0.00100032
0.00100031
0.0010003
0.00100029
0.00100028
0.00100027
0.00100026
0.00100026
0.00100025
0.00100024
0.00100023
0.00100023
0.00100022
0.00100021
0.00100021
0.0010002
0.00100019
0.00100019
0.00100018
0.00100017
0.00100017
0.00100016
0.00100016
0.00100015
0.00100015
0.00100014
0.00100014
0.00100013
0.00100013
0.00100012
0.00100012
0.00100011
0.00100011
0.00100011
0.0010001
0.0010001
0.0010001
0.00100009
0.00100009
0.00100008
0.00100008
0.00100008
0.00100007
0.00100007
0.00100007
0.00100007
0.00100006
0.00100006
0.00100006
0.00100006
0.00100005
0.00100005
0.00100005
0.00100005
0.00100004
0.00100004
0.00100004
0.00100004
0.00100004
0.00100004
0.00100003
0.00100003
0.00100003
0.00100003
0.00100003
0.00100003
0.00100002
0.00100002
0.00100002
0.00100002
0.00100002
0.00100002
0.00100002
0.00100002
0.00100002
0.00100001
0.00100001
0.00100001
0.00100001
0.00100001
0.00100001
0.00100001
0.00100001
0.00100001
0.00100001
0.00100001
0.00100001
0.00100001
0.00100001
0.001
0.001
0.001
0.001
0.001
0.001
0.001
0.001
0.001
0.001
0.001
0.001
0.000999999
0.000999999
0.000999999
0.000999998
0.000999998
0.000999997
0.000999997
0.000999997
0.000999996
0.000999996
0.000999996
0.000999995
0.000999995
0.000999995
0.000999995
0.000999994
0.000999994
0.000999994
0.000999994
0.000999993
0.000999993
0.000999993
0.000999993
0.000999993
0.000999992
0.000999992
0.000999992
0.000999992
0.000999992
0.000999991
0.000999991
0.000999991
0.000999991
0.000999991
0.00099999
0.00099999
0.00099999
0.00099999
0.00099999
0.00099999
0.00099999
0.00099999
0.000999989
0.000999989
0.000999989
0.000999989
0.000999989
0.000999989
0.000999989
0.000999989
0.000999989
0.000999989
0.000999989
0.000999989
0.000999989
0.000999989
0.000999989
0.000999989
0.000999989
0.000999989
0.000999989
0.000999989
0.000999989
0.000999989
0.000999989
0.000999989
0.000999989
0.000999989
0.000999989
0.000999989
0.000999989
0.000999989
0.000999989
0.000999989
0.000999989
0.000999989
0.000999989
0.000999989
0.000999989
0.000999989
0.000999989
0.000999989
0.000999989
0.000999989
0.000999989
0.000999989
0.000999989
0.000999989
0.000999989
0.000999989
0.000999989
0.000999989
0.000999989
0.000999989
0.000999988
0.000999988
0.000999988
0.000999988
0.000999988
0.000999988
0.000999988
0.000999988
0.000999988
0.000999988
0.000999988
0.000999988
0.000999988
0.000999988
0.000999988
0.000999988
0.000999988
0.000999988
0.000999987
0.000999987
0.000999987
0.000999987
0.000999987
0.000999987
0.000999987
0.000999987
0.000999987
0.000999987
0.000999987
0.000999987
0.000999987
0.000999987
0.000999986
0.000999986
0.000999986
0.000999986
0.000999986
0.000999986
0.000999986
0.000999986
0.000999986
0.000999986
0.000999986
0.000999986
0.000999986
0.000999986
0.000999986
0.000999986
0.000999986
0.000999986
0.000999986
0.000999985
0.000999985
0.000999985
0.000999985
0.000999985
0.000999985
0.000999985
0.000999985
0.000999985
0.000999985
0.000999985
0.000999985
0.000999985
0.000999985
0.000999985
0.000999985
0.000999985
0.000999985
0.000999985
0.000999985
0.000999985
0.000999985
0.000999985
0.000999984
0.000999984
0.000999984
0.000999984
0.000999984
0.000999984
0.000999984
0.000999984
0.000999984
0.000999984
0.000999984
0.000999984
0.000999984
0.000999984
0.000999984
0.000999984
0.000999984
0.000999984
0.000999984
0.000999984
0.000999984
0.000999984
0.000999984
0.000999984
0.000999984
0.000999984
0.000999984
0.000999984
0.000999984
0.000999984
0.000999984
0.000999984
0.000999984
0.000999984
0.000999984
0.000999984
0.000999984
0.000999984
0.000999984
0.000999984
0.000999984
0.000999984
0.000999984
0.000999984
0.000999984
0.000999984
0.000999984
0.000999984
0.000999984
0.000999984
0.000999984
0.000999984
0.000999984
0.000999984
0.000999983
0.000999982
0.000999982
0.000999982
0.000999982
0.000999982
0.000999982
0.000999982
0.000999982
0.000999982
0.000999981
0.000999981
0.000999981
0.000999981
0.000999981
0.000999981
0.000999981
0.000999981
0.000999981
0.000999982
0.000999982
0.000999982
0.000999982
0.000999982
0.000999982
0.000999982
0.000999982
0.000999983
0.000999983
0.000999983
0.000999983
0.000999983
0.000999983
0.000999983
0.000999984
0.000999984
0.000999984
0.000999984
0.000999984
0.000999985
0.000999985
0.000999985
0.000999985
0.000999985
0.000999986
0.000999986
0.000999986
0.000999986
0.000999986
0.000999986
0.000999986
0.000999986
0.000999987
0.000999987
0.000999987
0.000999987
0.000999987
0.000999987
0.000999987
0.000999987
0.000999987
0.000999987
0.000999987
0.000999987
0.000999987
0.000999987
0.000999987
0.000999987
0.000999987
0.000999987
0.000999987
0.000999987
0.000999987
0.000999987
0.000999987
0.000999987
0.000999987
0.000999987
0.000999987
0.000999987
0.000999987
0.000999987
0.000999987
0.000999987
0.000999987
0.000999987
0.000999987
0.000999987
0.000999986
0.00116823
0.00111474
0.00103844
0.00101301
0.00101091
0.00101061
0.00101074
0.00101091
0.00101106
0.00101119
0.0010113
0.0010114
0.00101148
0.00101155
0.00101161
0.00101165
0.00101167
0.00101168
0.00101166
0.00101164
0.00101161
0.00101157
0.00101153
0.00101148
0.00101142
0.00101136
0.00101128
0.00101119
0.0010111
0.00101101
0.00101091
0.00101081
0.00101071
0.00101059
0.00101047
0.00101033
0.00101019
0.00101005
0.00100992
0.00100979
0.00100967
0.00100955
0.00100943
0.00100932
0.0010092
0.00100907
0.00100893
0.0010088
0.00100866
0.00100853
0.00100839
0.00100826
0.00100814
0.00100801
0.00100789
0.00100777
0.00100766
0.00100755
0.00100745
0.00100735
0.00100726
0.00100717
0.0010071
0.00100703
0.00100697
0.00100692
0.00100687
0.00100683
0.00100679
0.00100675
0.0010067
0.00100662
0.00100651
0.00100634
0.0010061
0.00100576
0.00100531
0.00100475
0.00100415
0.00100368
0.00100311
0.00100242
0.00100198
0.00100403
0.00100587
0.00100764
0.00101351
0.00101653
0.00102181
0.00102164
0.00104374
0.00104191
0.00102061
0.00101902
0.00100506
0.00100636
0.00100069
0.00100101
0.00100153
0.00100165
0.00100105
0.00100119
0.00100084
0.00100073
0.00100084
0.00100086
0.00100092
0.00100098
0.00100094
0.00100105
0.00100099
0.00100135
0.00100132
0.00100089
0.00100086
0.00100066
0.00100062
0.00100055
0.00100053
0.00100054
0.00100053
0.00100052
0.00100046
0.00100046
0.00100053
0.00100054
0.00100072
0.0010007
0.00100124
0.00100121
0.00100064
0.00100063
0.00100042
0.00100041
0.00100038
0.00100032
0.0010003
0.00100032
0.00100032
0.0010003
0.00100029
0.00100028
0.00100027
0.00100027
0.00100026
0.00100025
0.00100024
0.00100023
0.00100023
0.00100022
0.00100021
0.0010002
0.0010002
0.00100019
0.00100018
0.00100018
0.00100017
0.00100017
0.00100016
0.00100015
0.00100015
0.00100014
0.00100014
0.00100013
0.00100013
0.00100012
0.00100012
0.00100011
0.00100011
0.0010001
0.0010001
0.0010001
0.00100009
0.00100009
0.00100008
0.00100008
0.00100008
0.00100007
0.00100007
0.00100007
0.00100006
0.00100006
0.00100006
0.00100005
0.00100005
0.00100005
0.00100005
0.00100004
0.00100004
0.00100004
0.00100003
0.00100003
0.00100003
0.00100003
0.00100003
0.00100002
0.00100002
0.00100002
0.00100002
0.00100001
0.00100001
0.00100001
0.00100001
0.00100001
0.00100001
0.00100001
0.001
0.001
0.001
0.001
0.000999999
0.000999998
0.000999996
0.000999995
0.000999994
0.000999993
0.000999992
0.000999991
0.00099999
0.000999989
0.000999988
0.000999987
0.000999986
0.000999985
0.000999985
0.000999984
0.000999983
0.000999983
0.000999982
0.000999982
0.000999981
0.00099998
0.00099998
0.000999979
0.000999979
0.000999978
0.000999978
0.000999978
0.000999977
0.000999977
0.000999976
0.000999976
0.000999975
0.000999975
0.000999975
0.000999974
0.000999974
0.000999973
0.000999973
0.000999973
0.000999973
0.000999972
0.000999972
0.000999972
0.000999972
0.000999971
0.000999971
0.000999971
0.000999971
0.00099997
0.00099997
0.00099997
0.00099997
0.00099997
0.00099997
0.000999969
0.000999969
0.000999969
0.000999969
0.000999969
0.000999969
0.000999968
0.000999968
0.000999968
0.000999968
0.000999968
0.000999968
0.000999967
0.000999967
0.000999967
0.000999967
0.000999967
0.000999967
0.000999967
0.000999967
0.000999967
0.000999967
0.000999967
0.000999967
0.000999967
0.000999967
0.000999967
0.000999966
0.000999966
0.000999966
0.000999966
0.000999966
0.000999966
0.000999966
0.000999966
0.000999966
0.000999966
0.000999966
0.000999966
0.000999966
0.000999966
0.000999966
0.000999966
0.000999966
0.000999966
0.000999966
0.000999966
0.000999966
0.000999966
0.000999966
0.000999966
0.000999966
0.000999966
0.000999966
0.000999966
0.000999966
0.000999966
0.000999966
0.000999966
0.000999966
0.000999966
0.000999966
0.000999966
0.000999966
0.000999966
0.000999966
0.000999966
0.000999966
0.000999966
0.000999966
0.000999966
0.000999966
0.000999966
0.000999966
0.000999966
0.000999966
0.000999966
0.000999966
0.000999966
0.000999966
0.000999966
0.000999966
0.000999965
0.000999965
0.000999965
0.000999965
0.000999965
0.000999965
0.000999965
0.000999965
0.000999965
0.000999965
0.000999965
0.000999965
0.000999965
0.000999965
0.000999965
0.000999965
0.000999964
0.000999964
0.000999964
0.000999964
0.000999964
0.000999964
0.000999964
0.000999964
0.000999964
0.000999964
0.000999964
0.000999964
0.000999964
0.000999964
0.000999964
0.000999964
0.000999964
0.000999964
0.000999964
0.000999964
0.000999964
0.000999964
0.000999963
0.000999963
0.000999963
0.000999963
0.000999963
0.000999963
0.000999963
0.000999963
0.000999963
0.000999963
0.000999963
0.000999963
0.000999963
0.000999963
0.000999963
0.000999963
0.000999963
0.000999963
0.000999963
0.000999963
0.000999963
0.000999963
0.000999962
0.000999962
0.000999962
0.000999962
0.000999962
0.000999962
0.000999962
0.000999962
0.000999962
0.000999962
0.000999962
0.000999962
0.000999962
0.000999962
0.000999962
0.000999962
0.000999962
0.000999962
0.000999962
0.000999962
0.000999962
0.000999962
0.000999962
0.000999962
0.000999962
0.000999962
0.000999962
0.000999962
0.000999962
0.000999962
0.000999962
0.000999962
0.000999962
0.000999962
0.000999962
0.000999962
0.000999962
0.000999962
0.000999962
0.000999962
0.000999962
0.000999962
0.000999962
0.000999962
0.000999962
0.000999962
0.000999962
0.000999962
0.000999962
0.000999963
0.000999962
0.000999961
0.000999961
0.00099996
0.00099996
0.00099996
0.00099996
0.00099996
0.00099996
0.00099996
0.00099996
0.00099996
0.00099996
0.00099996
0.00099996
0.00099996
0.000999959
0.00099996
0.00099996
0.00099996
0.00099996
0.00099996
0.00099996
0.00099996
0.00099996
0.00099996
0.00099996
0.00099996
0.00099996
0.00099996
0.00099996
0.000999961
0.000999961
0.000999961
0.000999961
0.000999961
0.000999961
0.000999961
0.000999962
0.000999962
0.000999962
0.000999962
0.000999962
0.000999963
0.000999963
0.000999963
0.000999963
0.000999963
0.000999964
0.000999964
0.000999964
0.000999964
0.000999964
0.000999964
0.000999964
0.000999964
0.000999964
0.000999965
0.000999965
0.000999965
0.000999965
0.000999965
0.000999965