/*--------------------------------*- C++ -*----------------------------------*\
| =========                 |                                                 |
| \\      /  F ield         | OpenFOAM: The Open Source CFD Toolbox           |
|  \\    /   O peration     | Version:  v2006                                 |
|   \\  /    A nd           | Website:  www.openfoam.com                      |
|    \\/     M anipulation  |                                                 |
\*---------------------------------------------------------------------------*/
FoamFile
{
    version     2.0;
    format      ascii;
    class       volScalarField;
    location    "0.5";
    object      p;
}
// * * * * * * * * * * * * * * * * * * * * * * * * * * * * * * * * * * * * * //

dimensions      [1 -1 -2 0 0 0 0];


internalField   nonuniform List<scalar> 
33000
(
7670.41
7672.21
7673.78
7675.35
7676.9
7678.43
7679.96
7681.46
7682.95
7684.42
7685.88
7687.32
7688.74
7690.14
7691.52
7692.88
7694.22
7695.54
7696.84
7698.12
7699.38
7700.61
7701.83
7703.02
7704.19
7705.34
7706.47
7707.57
7708.65
7709.72
7710.76
7711.78
7712.77
7713.75
7714.7
7715.63
7716.55
7717.44
7718.31
7719.16
7719.98
7720.79
7721.58
7722.36
7723.11
7723.84
7724.56
7725.26
7725.95
7726.62
7727.27
7727.91
7728.54
7729.15
7729.74
7730.33
7730.89
7731.45
7731.99
7732.51
7733.02
7733.51
7733.98
7734.44
7734.88
7735.31
7735.72
7736.12
7736.5
7736.86
7737.21
7737.55
7737.87
7738.17
7738.46
7738.72
7738.97
7739.18
7739.41
7739.76
7740.05
7740.32
7740.6
7740.88
7741.14
7741.4
7741.65
7741.89
7742.12
7742.35
7742.57
7742.78
7742.99
7743.18
7743.38
7743.56
7743.73
7743.9
7744.06
7744.22
7744.36
7744.5
7744.63
7744.75
7744.87
7744.98
7745.08
7745.17
7745.26
7745.34
7745.41
7745.48
7745.54
7745.6
7745.65
7745.69
7745.73
7745.76
7745.79
7745.81
7745.82
7745.84
7745.85
7745.85
7745.85
7745.85
7745.85
7745.84
7745.83
7745.82
7745.8
7745.79
7745.77
7745.75
7745.73
7745.71
7745.69
7745.66
7745.64
7745.61
7745.58
7745.55
7745.52
7745.49
7745.46
7745.43
7745.39
7745.36
7745.32
7745.29
7745.25
7745.21
7745.17
7745.14
7745.1
7745.06
7745.02
7744.98
7744.94
7744.9
7744.87
7744.83
7744.79
7744.75
7744.71
7744.67
7744.63
7744.6
7744.56
7744.52
7744.48
7744.45
7744.41
7744.37
7744.34
7744.3
7744.26
7744.23
7744.19
7744.16
7744.12
7744.09
7744.06
7744.02
7743.99
7743.96
7743.92
7743.89
7743.86
7743.83
7743.8
7743.77
7743.73
7743.7
7743.68
7743.65
7743.62
7743.59
7743.56
7743.53
7743.51
7743.48
7743.45
7743.43
7743.4
7743.38
7743.35
7743.33
7743.3
7743.28
7743.26
7743.23
7743.21
7743.19
7743.17
7743.15
7743.12
7743.1
7743.08
7743.06
7743.05
7743.03
7743.01
7742.99
7742.97
7742.95
7742.94
7742.92
7742.9
7742.89
7742.87
7742.86
7742.84
7742.83
7742.81
7742.8
7742.78
7742.77
7742.75
7742.74
7742.73
7742.72
7742.7
7742.69
7742.68
7742.67
7742.65
7742.64
7742.63
7742.62
7742.61
7742.6
7742.59
7742.58
7742.57
7742.56
7742.55
7742.54
7742.53
7742.52
7742.51
7742.5
7742.49
7742.48
7742.47
7742.47
7742.46
7742.45
7742.44
7742.43
7742.43
7742.42
7742.41
7742.4
7742.4
7742.39
7742.38
7742.38
7742.37
7742.36
7742.36
7742.35
7742.34
7742.34
7742.33
7742.33
7742.32
7742.31
7742.31
7742.3
7742.3
7742.29
7742.29
7742.28
7742.28
7742.27
7742.27
7742.26
7742.26
7742.26
7742.25
7742.25
7742.24
7742.24
7742.24
7742.23
7742.23
7742.22
7742.22
7742.22
7742.21
7742.21
7742.21
7742.2
7742.2
7742.2
7742.19
7742.19
7742.19
7742.18
7742.18
7742.18
7742.17
7742.17
7742.17
7742.17
7742.16
7742.16
7742.16
7742.16
7742.15
7742.15
7742.15
7742.15
7742.14
7742.14
7742.14
7742.14
7742.14
7742.13
7742.13
7742.13
7742.13
7742.13
7742.13
7742.12
7742.12
7742.12
7742.12
7742.12
7742.12
7742.11
7742.11
7742.11
7742.11
7742.11
7742.11
7742.1
7742.1
7742.1
7742.1
7742.1
7742.1
7742.1
7742.1
7742.1
7742.09
7742.09
7742.09
7742.09
7742.09
7742.09
7742.09
7742.09
7742.09
7742.09
7742.08
7742.08
7742.08
7742.08
7742.08
7742.08
7742.08
7742.08
7742.08
7742.08
7742.08
7742.08
7742.08
7742.07
7742.07
7742.07
7742.07
7742.07
7742.07
7742.07
7742.07
7742.07
7742.07
7742.07
7742.07
7742.07
7742.07
7742.07
7742.07
7742.07
7742.07
7742.06
7742.06
7742.06
7742.06
7742.06
7742.06
7742.06
7742.06
7742.06
7742.06
7742.06
7742.06
7742.06
7742.06
7742.06
7742.06
7742.06
7742.06
7742.06
7742.06
7742.06
7742.06
7742.06
7742.06
7742.06
7742.06
7742.06
7742.06
7742.06
7742.06
7742.06
7742.06
7742.06
7742.06
7742.06
7742.06
7742.06
7742.06
7742.06
7742.06
7742.06
7742.06
7742.06
7742.06
7742.06
7742.06
7742.06
7742.05
7742.05
7742.05
7742.05
7742.05
7742.05
7742.05
7742.05
7742.05
7742.05
7742.05
7742.05
7742.05
7742.05
7742.05
7742.05
7742.05
7742.05
7742.05
7742.05
7742.05
7742.05
7742.05
7742.05
7742.05
7742.05
7742.05
7742.05
7742.05
7742.05
7742.05
7742.05
7742.05
7742.05
7742.05
7742.05
7742.05
7742.05
7742.05
7742.05
7742.05
7742.05
7742.05
7742.05
7742.05
7742.05
7742.05
7742.05
7742.05
7742.05
7742.05
7742.05
7742.05
7742.05
7742.05
7742.05
7742.05
7742.05
7742.05
7742.05
7742.05
7742.05
7742.05
7742.05
7742.05
7742.05
7742.05
7742.05
7742.05
7742.05
7742.05
7742.05
7742.05
7742.05
7742.05
7742.05
7742.05
7742.05
7742.05
7742.05
7742.05
7742.05
7742.05
7742.05
7742.05
7742.05
7742.05
7742.05
7742.05
7742.05
7742.05
7742.05
7742.05
7742.05
7742.05
7742.05
7474.25
7476.06
7477.63
7479.2
7480.75
7482.29
7483.81
7485.32
7486.81
7488.28
7489.74
7491.18
7492.6
7494
7495.38
7496.75
7498.09
7499.41
7500.71
7501.99
7503.25
7504.49
7505.7
7506.9
7508.07
7509.22
7510.34
7511.45
7512.53
7513.59
7514.63
7515.65
7516.65
7517.62
7518.58
7519.51
7520.42
7521.31
7522.18
7523.03
7523.86
7524.68
7525.47
7526.24
7526.99
7527.73
7528.45
7529.15
7529.84
7530.51
7531.16
7531.8
7532.43
7533.04
7533.63
7534.21
7534.78
7535.33
7535.86
7536.38
7536.88
7537.37
7537.84
7538.3
7538.74
7539.17
7539.58
7539.97
7540.35
7540.72
7541.07
7541.4
7541.72
7542.03
7542.32
7542.6
7542.86
7543.12
7543.38
7543.63
7543.86
7544.1
7544.43
7544.71
7544.97
7545.23
7545.48
7545.72
7545.96
7546.18
7546.4
7546.61
7546.82
7547.01
7547.2
7547.38
7547.56
7547.73
7547.89
7548.04
7548.18
7548.32
7548.45
7548.57
7548.69
7548.8
7548.9
7548.99
7549.08
7549.16
7549.23
7549.3
7549.36
7549.41
7549.46
7549.5
7549.54
7549.57
7549.6
7549.62
7549.64
7549.65
7549.66
7549.66
7549.66
7549.66
7549.65
7549.65
7549.64
7549.62
7549.61
7549.6
7549.58
7549.56
7549.54
7549.52
7549.49
7549.47
7549.44
7549.42
7549.39
7549.36
7549.33
7549.3
7549.26
7549.23
7549.2
7549.16
7549.12
7549.09
7549.05
7549.01
7548.98
7548.94
7548.9
7548.86
7548.82
7548.78
7548.74
7548.71
7548.67
7548.63
7548.59
7548.55
7548.51
7548.47
7548.43
7548.4
7548.36
7548.32
7548.28
7548.25
7548.21
7548.17
7548.14
7548.1
7548.06
7548.03
7547.99
7547.96
7547.92
7547.89
7547.85
7547.82
7547.79
7547.75
7547.72
7547.69
7547.66
7547.63
7547.59
7547.56
7547.53
7547.5
7547.47
7547.44
7547.41
7547.39
7547.36
7547.33
7547.3
7547.28
7547.25
7547.22
7547.2
7547.17
7547.15
7547.12
7547.1
7547.08
7547.05
7547.03
7547.01
7546.99
7546.96
7546.94
7546.92
7546.9
7546.88
7546.86
7546.84
7546.82
7546.81
7546.79
7546.77
7546.75
7546.73
7546.72
7546.7
7546.69
7546.67
7546.65
7546.64
7546.62
7546.61
7546.59
7546.58
7546.57
7546.55
7546.54
7546.53
7546.51
7546.5
7546.49
7546.48
7546.46
7546.45
7546.44
7546.43
7546.42
7546.41
7546.4
7546.39
7546.38
7546.37
7546.36
7546.35
7546.34
7546.33
7546.32
7546.31
7546.3
7546.29
7546.28
7546.27
7546.26
7546.26
7546.25
7546.24
7546.23
7546.22
7546.22
7546.21
7546.2
7546.2
7546.19
7546.18
7546.17
7546.17
7546.16
7546.15
7546.15
7546.14
7546.14
7546.13
7546.12
7546.12
7546.11
7546.11
7546.1
7546.1
7546.09
7546.09
7546.08
7546.08
7546.07
7546.07
7546.06
7546.06
7546.05
7546.05
7546.05
7546.04
7546.04
7546.03
7546.03
7546.03
7546.02
7546.02
7546.02
7546.01
7546.01
7546
7546
7546
7545.99
7545.99
7545.99
7545.98
7545.98
7545.98
7545.98
7545.97
7545.97
7545.97
7545.97
7545.96
7545.96
7545.96
7545.96
7545.95
7545.95
7545.95
7545.95
7545.94
7545.94
7545.94
7545.94
7545.94
7545.93
7545.93
7545.93
7545.93
7545.93
7545.92
7545.92
7545.92
7545.92
7545.92
7545.92
7545.91
7545.91
7545.91
7545.91
7545.91
7545.91
7545.91
7545.9
7545.9
7545.9
7545.9
7545.9
7545.9
7545.9
7545.9
7545.89
7545.89
7545.89
7545.89
7545.89
7545.89
7545.89
7545.89
7545.89
7545.89
7545.88
7545.88
7545.88
7545.88
7545.88
7545.88
7545.88
7545.88
7545.88
7545.88
7545.88
7545.88
7545.88
7545.87
7545.87
7545.87
7545.87
7545.87
7545.87
7545.87
7545.87
7545.87
7545.87
7545.87
7545.87
7545.87
7545.87
7545.87
7545.87
7545.87
7545.87
7545.87
7545.86
7545.86
7545.86
7545.86
7545.86
7545.86
7545.86
7545.86
7545.86
7545.86
7545.86
7545.86
7545.86
7545.86
7545.86
7545.86
7545.86
7545.86
7545.86
7545.86
7545.86
7545.86
7545.86
7545.86
7545.86
7545.86
7545.86
7545.86
7545.86
7545.86
7545.86
7545.86
7545.86
7545.86
7545.86
7545.86
7545.86
7545.86
7545.86
7545.86
7545.86
7545.86
7545.86
7545.86
7545.86
7545.86
7545.86
7545.85
7545.85
7545.85
7545.85
7545.85
7545.85
7545.85
7545.85
7545.85
7545.85
7545.85
7545.85
7545.85
7545.85
7545.85
7545.85
7545.85
7545.85
7545.85
7545.85
7545.85
7545.85
7545.85
7545.85
7545.85
7545.85
7545.85
7545.85
7545.85
7545.85
7545.85
7545.85
7545.85
7545.85
7545.85
7545.85
7545.85
7545.85
7545.85
7545.85
7545.85
7545.85
7545.85
7545.85
7545.85
7545.85
7545.85
7545.85
7545.85
7545.85
7545.85
7545.85
7545.85
7545.85
7545.85
7545.85
7545.85
7545.85
7545.85
7545.85
7545.85
7545.85
7545.85
7545.85
7545.85
7545.85
7545.85
7545.85
7545.85
7545.85
7545.85
7545.85
7545.85
7545.85
7545.85
7545.85
7545.85
7545.85
7545.85
7545.85
7545.85
7545.85
7545.85
7545.85
7545.85
7545.85
7545.85
7545.85
7545.85
7545.85
7545.85
7545.85
7545.85
7545.85
7545.85
7545.85
7278.09
7279.9
7281.49
7283.06
7284.62
7286.16
7287.69
7289.2
7290.69
7292.17
7293.63
7295.08
7296.5
7297.91
7299.3
7300.67
7302.01
7303.34
7304.64
7305.92
7307.18
7308.42
7309.64
7310.83
7312
7313.15
7314.28
7315.38
7316.47
7317.53
7318.57
7319.59
7320.58
7321.56
7322.51
7323.44
7324.35
7325.24
7326.11
7326.97
7327.8
7328.61
7329.41
7330.18
7330.94
7331.68
7332.4
7333.11
7333.8
7334.47
7335.12
7335.76
7336.38
7336.99
7337.58
7338.15
7338.71
7339.26
7339.78
7340.3
7340.79
7341.28
7341.75
7342.2
7342.64
7343.06
7343.47
7343.86
7344.24
7344.6
7344.95
7345.29
7345.61
7345.92
7346.22
7346.5
7346.78
7347.05
7347.31
7347.57
7347.82
7348.08
7348.33
7348.55
7348.78
7349.09
7349.36
7349.58
7349.8
7350.03
7350.25
7350.46
7350.66
7350.86
7351.04
7351.23
7351.4
7351.57
7351.72
7351.88
7352.02
7352.16
7352.28
7352.41
7352.52
7352.63
7352.73
7352.82
7352.9
7352.98
7353.05
7353.12
7353.18
7353.23
7353.28
7353.32
7353.36
7353.39
7353.41
7353.43
7353.45
7353.46
7353.47
7353.48
7353.48
7353.47
7353.47
7353.46
7353.45
7353.44
7353.42
7353.41
7353.39
7353.37
7353.35
7353.33
7353.3
7353.28
7353.25
7353.22
7353.2
7353.17
7353.14
7353.1
7353.07
7353.04
7353
7352.97
7352.93
7352.89
7352.86
7352.82
7352.78
7352.74
7352.7
7352.66
7352.63
7352.59
7352.55
7352.51
7352.47
7352.43
7352.39
7352.35
7352.31
7352.27
7352.24
7352.2
7352.16
7352.12
7352.08
7352.05
7352.01
7351.97
7351.94
7351.9
7351.86
7351.83
7351.79
7351.76
7351.72
7351.69
7351.65
7351.62
7351.58
7351.55
7351.52
7351.49
7351.45
7351.42
7351.39
7351.36
7351.33
7351.3
7351.27
7351.24
7351.21
7351.18
7351.15
7351.13
7351.1
7351.07
7351.05
7351.02
7350.99
7350.97
7350.94
7350.92
7350.9
7350.87
7350.85
7350.83
7350.8
7350.78
7350.76
7350.74
7350.72
7350.7
7350.68
7350.66
7350.64
7350.62
7350.6
7350.58
7350.57
7350.55
7350.53
7350.51
7350.5
7350.48
7350.47
7350.45
7350.44
7350.42
7350.41
7350.39
7350.38
7350.36
7350.35
7350.34
7350.32
7350.31
7350.3
7350.29
7350.27
7350.26
7350.25
7350.24
7350.23
7350.22
7350.21
7350.19
7350.18
7350.17
7350.16
7350.15
7350.14
7350.13
7350.12
7350.11
7350.11
7350.1
7350.09
7350.08
7350.07
7350.06
7350.05
7350.05
7350.04
7350.03
7350.02
7350.02
7350.01
7350
7349.99
7349.99
7349.98
7349.97
7349.97
7349.96
7349.95
7349.95
7349.94
7349.94
7349.93
7349.92
7349.92
7349.91
7349.91
7349.9
7349.9
7349.89
7349.89
7349.88
7349.88
7349.87
7349.87
7349.86
7349.86
7349.85
7349.85
7349.85
7349.84
7349.84
7349.83
7349.83
7349.83
7349.82
7349.82
7349.81
7349.81
7349.81
7349.8
7349.8
7349.8
7349.79
7349.79
7349.79
7349.78
7349.78
7349.78
7349.77
7349.77
7349.77
7349.77
7349.76
7349.76
7349.76
7349.76
7349.75
7349.75
7349.75
7349.75
7349.74
7349.74
7349.74
7349.74
7349.74
7349.73
7349.73
7349.73
7349.73
7349.73
7349.73
7349.72
7349.72
7349.72
7349.72
7349.72
7349.72
7349.71
7349.71
7349.71
7349.71
7349.71
7349.71
7349.71
7349.7
7349.7
7349.7
7349.7
7349.7
7349.7
7349.7
7349.7
7349.69
7349.69
7349.69
7349.69
7349.69
7349.69
7349.69
7349.69
7349.69
7349.69
7349.68
7349.68
7349.68
7349.68
7349.68
7349.68
7349.68
7349.68
7349.68
7349.68
7349.68
7349.68
7349.68
7349.67
7349.67
7349.67
7349.67
7349.67
7349.67
7349.67
7349.67
7349.67
7349.67
7349.67
7349.67
7349.67
7349.67
7349.67
7349.67
7349.67
7349.67
7349.67
7349.66
7349.66
7349.66
7349.66
7349.66
7349.66
7349.66
7349.66
7349.66
7349.66
7349.66
7349.66
7349.66
7349.66
7349.66
7349.66
7349.66
7349.66
7349.66
7349.66
7349.66
7349.66
7349.66
7349.66
7349.66
7349.66
7349.66
7349.66
7349.66
7349.66
7349.66
7349.66
7349.66
7349.66
7349.66
7349.66
7349.66
7349.66
7349.66
7349.66
7349.66
7349.66
7349.66
7349.66
7349.66
7349.66
7349.66
7349.66
7349.66
7349.65
7349.65
7349.65
7349.65
7349.65
7349.65
7349.65
7349.65
7349.65
7349.65
7349.65
7349.65
7349.65
7349.65
7349.65
7349.65
7349.65
7349.65
7349.65
7349.65
7349.65
7349.65
7349.65
7349.65
7349.65
7349.65
7349.65
7349.65
7349.65
7349.65
7349.65
7349.65
7349.65
7349.65
7349.65
7349.65
7349.65
7349.65
7349.65
7349.65
7349.65
7349.65
7349.65
7349.65
7349.65
7349.65
7349.65
7349.65
7349.65
7349.65
7349.65
7349.65
7349.65
7349.65
7349.65
7349.65
7349.65
7349.65
7349.65
7349.65
7349.65
7349.65
7349.65
7349.65
7349.65
7349.65
7349.65
7349.65
7349.65
7349.65
7349.65
7349.65
7349.65
7349.65
7349.65
7349.65
7349.65
7349.65
7349.65
7349.65
7349.65
7349.65
7349.65
7349.65
7349.65
7349.65
7349.65
7349.65
7349.65
7349.65
7349.65
7349.65
7349.65
7349.65
7081.97
7083.79
7085.38
7086.96
7088.52
7090.07
7091.6
7093.12
7094.62
7096.11
7097.58
7099.03
7100.46
7101.87
7103.26
7104.63
7105.98
7107.31
7108.62
7109.9
7111.16
7112.4
7113.62
7114.82
7115.99
7117.14
7118.27
7119.38
7120.46
7121.52
7122.56
7123.58
7124.57
7125.55
7126.5
7127.43
7128.34
7129.23
7130.11
7130.96
7131.79
7132.61
7133.4
7134.18
7134.94
7135.68
7136.41
7137.11
7137.8
7138.47
7139.12
7139.76
7140.38
7140.98
7141.56
7142.13
7142.68
7143.22
7143.74
7144.25
7144.74
7145.22
7145.68
7146.13
7146.56
7146.98
7147.39
7147.78
7148.15
7148.52
7148.87
7149.21
7149.53
7149.84
7150.14
7150.43
7150.72
7150.99
7151.26
7151.52
7151.77
7152.02
7152.27
7152.51
7152.76
7153.01
7153.23
7153.42
7153.62
7153.89
7154.11
7154.31
7154.52
7154.71
7154.9
7155.08
7155.25
7155.42
7155.57
7155.72
7155.87
7156
7156.13
7156.25
7156.36
7156.46
7156.56
7156.65
7156.74
7156.82
7156.89
7156.95
7157.01
7157.06
7157.1
7157.14
7157.18
7157.21
7157.23
7157.25
7157.27
7157.28
7157.29
7157.29
7157.29
7157.29
7157.29
7157.28
7157.27
7157.25
7157.24
7157.22
7157.2
7157.18
7157.16
7157.14
7157.12
7157.09
7157.06
7157.03
7157.01
7156.98
7156.94
7156.91
7156.88
7156.84
7156.81
7156.77
7156.74
7156.7
7156.66
7156.62
7156.59
7156.55
7156.51
7156.47
7156.43
7156.39
7156.35
7156.31
7156.27
7156.23
7156.19
7156.15
7156.11
7156.08
7156.04
7156
7155.96
7155.92
7155.88
7155.85
7155.81
7155.77
7155.73
7155.7
7155.66
7155.63
7155.59
7155.55
7155.52
7155.48
7155.45
7155.42
7155.38
7155.35
7155.32
7155.28
7155.25
7155.22
7155.19
7155.16
7155.13
7155.1
7155.07
7155.04
7155.01
7154.98
7154.95
7154.92
7154.9
7154.87
7154.84
7154.82
7154.79
7154.77
7154.74
7154.72
7154.69
7154.67
7154.65
7154.62
7154.6
7154.58
7154.56
7154.54
7154.52
7154.49
7154.47
7154.46
7154.44
7154.42
7154.4
7154.38
7154.36
7154.35
7154.33
7154.31
7154.3
7154.28
7154.26
7154.25
7154.23
7154.22
7154.2
7154.19
7154.17
7154.16
7154.15
7154.13
7154.12
7154.11
7154.1
7154.08
7154.07
7154.06
7154.05
7154.04
7154.02
7154.01
7154
7153.99
7153.98
7153.97
7153.96
7153.95
7153.94
7153.93
7153.92
7153.91
7153.9
7153.89
7153.89
7153.88
7153.87
7153.86
7153.85
7153.84
7153.84
7153.83
7153.82
7153.81
7153.81
7153.8
7153.79
7153.78
7153.78
7153.77
7153.76
7153.76
7153.75
7153.75
7153.74
7153.73
7153.73
7153.72
7153.72
7153.71
7153.71
7153.7
7153.69
7153.69
7153.68
7153.68
7153.67
7153.67
7153.67
7153.66
7153.66
7153.65
7153.65
7153.64
7153.64
7153.64
7153.63
7153.63
7153.62
7153.62
7153.62
7153.61
7153.61
7153.61
7153.6
7153.6
7153.6
7153.59
7153.59
7153.59
7153.58
7153.58
7153.58
7153.57
7153.57
7153.57
7153.57
7153.56
7153.56
7153.56
7153.56
7153.55
7153.55
7153.55
7153.55
7153.54
7153.54
7153.54
7153.54
7153.54
7153.53
7153.53
7153.53
7153.53
7153.53
7153.52
7153.52
7153.52
7153.52
7153.52
7153.52
7153.51
7153.51
7153.51
7153.51
7153.51
7153.51
7153.51
7153.5
7153.5
7153.5
7153.5
7153.5
7153.5
7153.5
7153.5
7153.49
7153.49
7153.49
7153.49
7153.49
7153.49
7153.49
7153.49
7153.49
7153.49
7153.48
7153.48
7153.48
7153.48
7153.48
7153.48
7153.48
7153.48
7153.48
7153.48
7153.48
7153.48
7153.48
7153.48
7153.47
7153.47
7153.47
7153.47
7153.47
7153.47
7153.47
7153.47
7153.47
7153.47
7153.47
7153.47
7153.47
7153.47
7153.47
7153.47
7153.47
7153.47
7153.46
7153.46
7153.46
7153.46
7153.46
7153.46
7153.46
7153.46
7153.46
7153.46
7153.46
7153.46
7153.46
7153.46
7153.46
7153.46
7153.46
7153.46
7153.46
7153.46
7153.46
7153.46
7153.46
7153.46
7153.46
7153.46
7153.46
7153.46
7153.46
7153.46
7153.46
7153.46
7153.46
7153.46
7153.46
7153.46
7153.46
7153.46
7153.46
7153.46
7153.46
7153.46
7153.46
7153.46
7153.46
7153.46
7153.46
7153.46
7153.46
7153.46
7153.46
7153.45
7153.45
7153.45
7153.45
7153.45
7153.45
7153.45
7153.45
7153.45
7153.45
7153.45
7153.45
7153.45
7153.45
7153.45
7153.45
7153.45
7153.45
7153.45
7153.45
7153.45
7153.45
7153.45
7153.45
7153.45
7153.45
7153.45
7153.45
7153.45
7153.45
7153.45
7153.45
7153.45
7153.45
7153.45
7153.45
7153.45
7153.45
7153.45
7153.45
7153.45
7153.45
7153.45
7153.45
7153.45
7153.45
7153.45
7153.45
7153.45
7153.45
7153.45
7153.45
7153.45
7153.45
7153.45
7153.45
7153.45
7153.45
7153.45
7153.45
7153.45
7153.45
7153.45
7153.45
7153.45
7153.45
7153.45
7153.45
7153.45
7153.45
7153.45
7153.45
7153.45
7153.45
7153.45
7153.45
7153.45
7153.45
7153.45
7153.45
7153.45
7153.45
7153.45
7153.45
7153.45
7153.45
7153.45
7153.45
7153.45
7153.45
7153.45
7153.45
7153.45
6885.87
6887.71
6889.31
6890.89
6892.47
6894.02
6895.56
6897.09
6898.6
6900.09
6901.57
6903.02
6904.46
6905.88
6907.28
6908.65
6910.01
6911.34
6912.65
6913.93
6915.2
6916.44
6917.66
6918.86
6920.04
6921.19
6922.32
6923.43
6924.51
6925.57
6926.62
6927.63
6928.63
6929.6
6930.56
6931.49
6932.4
6933.29
6934.16
6935.02
6935.85
6936.66
6937.46
6938.24
6939
6939.74
6940.46
6941.16
6941.85
6942.52
6943.16
6943.79
6944.41
6945
6945.58
6946.14
6946.68
6947.21
6947.73
6948.23
6948.71
6949.18
6949.64
6950.08
6950.51
6950.93
6951.33
6951.72
6952.1
6952.46
6952.81
6953.15
6953.47
6953.79
6954.09
6954.38
6954.67
6954.95
6955.21
6955.48
6955.73
6955.98
6956.23
6956.47
6956.71
6956.93
6957.16
6957.37
6957.58
6957.79
6957.96
6958.15
6958.39
6958.59
6958.76
6958.94
6959.12
6959.28
6959.43
6959.58
6959.72
6959.85
6959.98
6960.1
6960.21
6960.31
6960.41
6960.5
6960.58
6960.65
6960.72
6960.79
6960.84
6960.89
6960.93
6960.97
6961.01
6961.03
6961.06
6961.08
6961.09
6961.1
6961.11
6961.11
6961.11
6961.11
6961.1
6961.09
6961.09
6961.07
6961.06
6961.04
6961.02
6961
6960.98
6960.95
6960.93
6960.9
6960.87
6960.85
6960.82
6960.78
6960.75
6960.72
6960.69
6960.65
6960.62
6960.58
6960.54
6960.5
6960.47
6960.43
6960.39
6960.35
6960.31
6960.27
6960.23
6960.19
6960.15
6960.11
6960.07
6960.03
6959.99
6959.95
6959.91
6959.88
6959.84
6959.8
6959.76
6959.72
6959.68
6959.64
6959.61
6959.57
6959.53
6959.5
6959.46
6959.42
6959.39
6959.35
6959.32
6959.28
6959.25
6959.21
6959.18
6959.15
6959.11
6959.08
6959.05
6959.02
6958.98
6958.95
6958.92
6958.89
6958.86
6958.83
6958.8
6958.78
6958.75
6958.72
6958.69
6958.67
6958.64
6958.61
6958.59
6958.56
6958.54
6958.51
6958.49
6958.46
6958.44
6958.42
6958.4
6958.37
6958.35
6958.33
6958.31
6958.29
6958.27
6958.25
6958.23
6958.21
6958.19
6958.18
6958.16
6958.14
6958.12
6958.11
6958.09
6958.08
6958.06
6958.04
6958.03
6958.01
6958
6957.98
6957.97
6957.96
6957.94
6957.93
6957.92
6957.9
6957.89
6957.88
6957.87
6957.86
6957.84
6957.83
6957.82
6957.81
6957.8
6957.79
6957.78
6957.77
6957.76
6957.75
6957.74
6957.73
6957.72
6957.71
6957.7
6957.69
6957.68
6957.67
6957.67
6957.66
6957.65
6957.64
6957.63
6957.63
6957.62
6957.61
6957.6
6957.6
6957.59
6957.58
6957.58
6957.57
6957.56
6957.56
6957.55
6957.54
6957.54
6957.53
6957.53
6957.52
6957.51
6957.51
6957.5
6957.5
6957.49
6957.49
6957.48
6957.48
6957.47
6957.47
6957.46
6957.46
6957.45
6957.45
6957.45
6957.44
6957.44
6957.43
6957.43
6957.43
6957.42
6957.42
6957.41
6957.41
6957.41
6957.4
6957.4
6957.4
6957.39
6957.39
6957.39
6957.38
6957.38
6957.38
6957.38
6957.37
6957.37
6957.37
6957.36
6957.36
6957.36
6957.36
6957.35
6957.35
6957.35
6957.35
6957.34
6957.34
6957.34
6957.34
6957.34
6957.33
6957.33
6957.33
6957.33
6957.33
6957.32
6957.32
6957.32
6957.32
6957.32
6957.32
6957.31
6957.31
6957.31
6957.31
6957.31
6957.31
6957.31
6957.3
6957.3
6957.3
6957.3
6957.3
6957.3
6957.3
6957.3
6957.3
6957.29
6957.29
6957.29
6957.29
6957.29
6957.29
6957.29
6957.29
6957.29
6957.29
6957.28
6957.28
6957.28
6957.28
6957.28
6957.28
6957.28
6957.28
6957.28
6957.28
6957.28
6957.28
6957.28
6957.27
6957.27
6957.27
6957.27
6957.27
6957.27
6957.27
6957.27
6957.27
6957.27
6957.27
6957.27
6957.27
6957.27
6957.27
6957.27
6957.27
6957.27
6957.27
6957.26
6957.26
6957.26
6957.26
6957.26
6957.26
6957.26
6957.26
6957.26
6957.26
6957.26
6957.26
6957.26
6957.26
6957.26
6957.26
6957.26
6957.26
6957.26
6957.26
6957.26
6957.26
6957.26
6957.26
6957.26
6957.26
6957.26
6957.26
6957.26
6957.26
6957.26
6957.26
6957.26
6957.26
6957.26
6957.26
6957.26
6957.26
6957.26
6957.26
6957.26
6957.26
6957.26
6957.26
6957.26
6957.26
6957.26
6957.26
6957.26
6957.26
6957.26
6957.26
6957.25
6957.25
6957.25
6957.25
6957.25
6957.25
6957.25
6957.25
6957.25
6957.25
6957.25
6957.25
6957.25
6957.25
6957.25
6957.25
6957.25
6957.25
6957.25
6957.25
6957.25
6957.25
6957.25
6957.25
6957.25
6957.25
6957.25
6957.25
6957.25
6957.25
6957.25
6957.25
6957.25
6957.25
6957.25
6957.25
6957.25
6957.25
6957.25
6957.25
6957.25
6957.25
6957.25
6957.25
6957.25
6957.25
6957.25
6957.25
6957.25
6957.25
6957.25
6957.25
6957.25
6957.25
6957.25
6957.25
6957.25
6957.25
6957.25
6957.25
6957.25
6957.25
6957.25
6957.25
6957.25
6957.25
6957.25
6957.25
6957.25
6957.25
6957.25
6957.25
6957.25
6957.25
6957.25
6957.25
6957.25
6957.25
6957.25
6957.25
6957.25
6957.25
6957.25
6957.25
6957.25
6957.25
6957.25
6957.25
6957.25
6957.25
6957.25
6957.25
6689.81
6691.66
6693.27
6694.87
6696.45
6698.02
6699.57
6701.1
6702.62
6704.12
6705.61
6707.07
6708.51
6709.94
6711.34
6712.72
6714.08
6715.42
6716.73
6718.02
6719.29
6720.53
6721.76
6722.96
6724.14
6725.29
6726.42
6727.53
6728.62
6729.69
6730.73
6731.75
6732.75
6733.73
6734.68
6735.62
6736.53
6737.42
6738.29
6739.14
6739.98
6740.79
6741.58
6742.36
6743.11
6743.85
6744.57
6745.26
6745.94
6746.6
6747.24
6747.87
6748.47
6749.06
6749.63
6750.18
6750.72
6751.24
6751.75
6752.24
6752.72
6753.19
6753.64
6754.07
6754.5
6754.91
6755.31
6755.69
6756.07
6756.43
6756.78
6757.11
6757.44
6757.76
6758.06
6758.36
6758.64
6758.92
6759.19
6759.45
6759.7
6759.95
6760.2
6760.43
6760.66
6760.89
6761.11
6761.32
6761.52
6761.72
6761.91
6762.11
6762.29
6762.45
6762.62
6762.83
6763
6763.15
6763.3
6763.45
6763.59
6763.72
6763.84
6763.95
6764.06
6764.16
6764.26
6764.34
6764.42
6764.5
6764.56
6764.62
6764.68
6764.73
6764.77
6764.81
6764.84
6764.86
6764.89
6764.9
6764.92
6764.93
6764.93
6764.93
6764.93
6764.93
6764.92
6764.91
6764.9
6764.89
6764.87
6764.86
6764.84
6764.81
6764.79
6764.77
6764.74
6764.71
6764.69
6764.66
6764.63
6764.59
6764.56
6764.53
6764.49
6764.46
6764.42
6764.39
6764.35
6764.31
6764.27
6764.23
6764.19
6764.15
6764.11
6764.07
6764.03
6763.99
6763.95
6763.91
6763.87
6763.83
6763.79
6763.75
6763.71
6763.67
6763.64
6763.6
6763.56
6763.52
6763.48
6763.44
6763.4
6763.37
6763.33
6763.29
6763.26
6763.22
6763.18
6763.15
6763.11
6763.08
6763.04
6763.01
6762.97
6762.94
6762.91
6762.88
6762.84
6762.81
6762.78
6762.75
6762.72
6762.69
6762.66
6762.63
6762.6
6762.57
6762.54
6762.51
6762.49
6762.46
6762.43
6762.41
6762.38
6762.36
6762.33
6762.31
6762.28
6762.26
6762.24
6762.21
6762.19
6762.17
6762.15
6762.13
6762.11
6762.09
6762.07
6762.05
6762.03
6762.01
6761.99
6761.97
6761.95
6761.94
6761.92
6761.9
6761.89
6761.87
6761.85
6761.84
6761.82
6761.81
6761.79
6761.78
6761.77
6761.75
6761.74
6761.73
6761.71
6761.7
6761.69
6761.68
6761.66
6761.65
6761.64
6761.63
6761.62
6761.61
6761.6
6761.58
6761.57
6761.56
6761.55
6761.54
6761.53
6761.52
6761.52
6761.51
6761.5
6761.49
6761.48
6761.47
6761.46
6761.45
6761.45
6761.44
6761.43
6761.42
6761.42
6761.41
6761.4
6761.39
6761.39
6761.38
6761.37
6761.37
6761.36
6761.35
6761.35
6761.34
6761.33
6761.33
6761.32
6761.32
6761.31
6761.31
6761.3
6761.3
6761.29
6761.29
6761.28
6761.28
6761.27
6761.27
6761.26
6761.26
6761.25
6761.25
6761.24
6761.24
6761.24
6761.23
6761.23
6761.22
6761.22
6761.22
6761.21
6761.21
6761.21
6761.2
6761.2
6761.2
6761.19
6761.19
6761.19
6761.18
6761.18
6761.18
6761.17
6761.17
6761.17
6761.17
6761.16
6761.16
6761.16
6761.15
6761.15
6761.15
6761.15
6761.15
6761.14
6761.14
6761.14
6761.14
6761.13
6761.13
6761.13
6761.13
6761.13
6761.13
6761.12
6761.12
6761.12
6761.12
6761.12
6761.12
6761.11
6761.11
6761.11
6761.11
6761.11
6761.11
6761.11
6761.1
6761.1
6761.1
6761.1
6761.1
6761.1
6761.1
6761.1
6761.09
6761.09
6761.09
6761.09
6761.09
6761.09
6761.09
6761.09
6761.09
6761.09
6761.08
6761.08
6761.08
6761.08
6761.08
6761.08
6761.08
6761.08
6761.08
6761.08
6761.08
6761.08
6761.08
6761.07
6761.07
6761.07
6761.07
6761.07
6761.07
6761.07
6761.07
6761.07
6761.07
6761.07
6761.07
6761.07
6761.07
6761.07
6761.07
6761.07
6761.07
6761.07
6761.07
6761.06
6761.06
6761.06
6761.06
6761.06
6761.06
6761.06
6761.06
6761.06
6761.06
6761.06
6761.06
6761.06
6761.06
6761.06
6761.06
6761.06
6761.06
6761.06
6761.06
6761.06
6761.06
6761.06
6761.06
6761.06
6761.06
6761.06
6761.06
6761.06
6761.06
6761.06
6761.06
6761.06
6761.06
6761.06
6761.06
6761.06
6761.06
6761.06
6761.06
6761.06
6761.06
6761.06
6761.06
6761.06
6761.06
6761.06
6761.06
6761.06
6761.06
6761.06
6761.06
6761.06
6761.06
6761.05
6761.05
6761.05
6761.05
6761.05
6761.05
6761.05
6761.05
6761.05
6761.05
6761.05
6761.05
6761.05
6761.05
6761.05
6761.05
6761.05
6761.05
6761.05
6761.05
6761.05
6761.05
6761.05
6761.05
6761.05
6761.05
6761.05
6761.05
6761.05
6761.05
6761.05
6761.05
6761.05
6761.05
6761.05
6761.05
6761.05
6761.05
6761.05
6761.05
6761.05
6761.05
6761.05
6761.05
6761.05
6761.05
6761.05
6761.05
6761.05
6761.05
6761.05
6761.05
6761.05
6761.05
6761.05
6761.05
6761.05
6761.05
6761.05
6761.05
6761.05
6761.05
6761.05
6761.05
6761.05
6761.05
6761.05
6761.05
6761.05
6761.05
6761.05
6761.05
6761.05
6761.05
6761.05
6761.05
6761.05
6761.05
6761.05
6761.05
6761.05
6761.05
6761.05
6761.05
6761.05
6761.05
6761.05
6761.05
6761.05
6761.05
6493.77
6495.64
6497.26
6498.87
6500.47
6502.05
6503.61
6505.16
6506.69
6508.2
6509.69
6511.16
6512.62
6514.05
6515.45
6516.84
6518.2
6519.55
6520.86
6522.16
6523.43
6524.68
6525.91
6527.12
6528.3
6529.46
6530.59
6531.7
6532.8
6533.86
6534.91
6535.93
6536.94
6537.92
6538.87
6539.81
6540.72
6541.62
6542.49
6543.34
6544.17
6544.98
6545.77
6546.54
6547.28
6548.01
6548.72
6549.41
6550.08
6550.74
6551.37
6551.98
6552.58
6553.16
6553.72
6554.27
6554.8
6555.32
6555.81
6556.3
6556.77
6557.23
6557.67
6558.1
6558.52
6558.92
6559.32
6559.7
6560.07
6560.43
6560.78
6561.11
6561.44
6561.75
6562.06
6562.35
6562.64
6562.91
6563.18
6563.44
6563.69
6563.94
6564.18
6564.41
6564.64
6564.86
6565.07
6565.28
6565.48
6565.67
6565.86
6566.05
6566.22
6566.39
6566.57
6566.73
6566.87
6567.01
6567.19
6567.34
6567.46
6567.59
6567.71
6567.83
6567.93
6568.03
6568.12
6568.2
6568.28
6568.35
6568.42
6568.47
6568.52
6568.57
6568.61
6568.65
6568.68
6568.7
6568.72
6568.74
6568.75
6568.75
6568.76
6568.76
6568.76
6568.75
6568.75
6568.74
6568.72
6568.71
6568.69
6568.67
6568.65
6568.63
6568.61
6568.59
6568.56
6568.53
6568.5
6568.47
6568.44
6568.4
6568.37
6568.34
6568.3
6568.27
6568.23
6568.19
6568.15
6568.12
6568.08
6568.04
6568
6567.96
6567.92
6567.88
6567.84
6567.8
6567.76
6567.72
6567.67
6567.63
6567.59
6567.55
6567.51
6567.47
6567.43
6567.39
6567.35
6567.32
6567.28
6567.24
6567.2
6567.16
6567.12
6567.09
6567.05
6567.01
6566.98
6566.94
6566.91
6566.87
6566.84
6566.8
6566.77
6566.73
6566.7
6566.67
6566.64
6566.6
6566.57
6566.54
6566.51
6566.48
6566.45
6566.42
6566.39
6566.36
6566.33
6566.31
6566.28
6566.25
6566.23
6566.2
6566.17
6566.15
6566.12
6566.1
6566.08
6566.05
6566.03
6566.01
6565.98
6565.96
6565.94
6565.92
6565.9
6565.88
6565.86
6565.84
6565.82
6565.8
6565.78
6565.77
6565.75
6565.73
6565.71
6565.7
6565.68
6565.67
6565.65
6565.63
6565.62
6565.6
6565.59
6565.58
6565.56
6565.55
6565.53
6565.52
6565.51
6565.5
6565.48
6565.47
6565.46
6565.45
6565.44
6565.42
6565.41
6565.4
6565.39
6565.38
6565.37
6565.36
6565.35
6565.34
6565.33
6565.32
6565.31
6565.3
6565.29
6565.28
6565.28
6565.27
6565.26
6565.25
6565.24
6565.24
6565.23
6565.22
6565.21
6565.2
6565.2
6565.19
6565.18
6565.18
6565.17
6565.16
6565.16
6565.15
6565.14
6565.14
6565.13
6565.13
6565.12
6565.12
6565.11
6565.1
6565.1
6565.09
6565.09
6565.08
6565.08
6565.07
6565.07
6565.06
6565.06
6565.06
6565.05
6565.05
6565.04
6565.04
6565.03
6565.03
6565.03
6565.02
6565.02
6565.01
6565.01
6565.01
6565
6565
6565
6564.99
6564.99
6564.99
6564.98
6564.98
6564.98
6564.98
6564.97
6564.97
6564.97
6564.96
6564.96
6564.96
6564.96
6564.95
6564.95
6564.95
6564.95
6564.94
6564.94
6564.94
6564.94
6564.94
6564.93
6564.93
6564.93
6564.93
6564.93
6564.92
6564.92
6564.92
6564.92
6564.92
6564.92
6564.91
6564.91
6564.91
6564.91
6564.91
6564.91
6564.91
6564.9
6564.9
6564.9
6564.9
6564.9
6564.9
6564.9
6564.9
6564.89
6564.89
6564.89
6564.89
6564.89
6564.89
6564.89
6564.89
6564.89
6564.89
6564.89
6564.88
6564.88
6564.88
6564.88
6564.88
6564.88
6564.88
6564.88
6564.88