/*--------------------------------*- C++ -*----------------------------------*\
| =========                 |                                                 |
| \\      /  F ield         | OpenFOAM: The Open Source CFD Toolbox           |
|  \\    /   O peration     | Version:  v2006                                 |
|   \\  /    A nd           | Website:  www.openfoam.com                      |
|    \\/     M anipulation  |                                                 |
\*---------------------------------------------------------------------------*/
FoamFile
{
    version     2.0;
    format      ascii;
    class       volScalarField;
    location    "0.5";
    object      p_rgh;
}
// * * * * * * * * * * * * * * * * * * * * * * * * * * * * * * * * * * * * * //

dimensions      [1 -1 -2 0 0 0 0];


internalField   nonuniform List<scalar> 
33000
(
7768.51
7770.31
7771.89
7773.45
7775
7776.53
7778.06
7779.56
7781.05
7782.52
7783.98
7785.41
7786.83
7788.23
7789.61
7790.97
7792.31
7793.63
7794.93
7796.21
7797.47
7798.71
7799.92
7801.11
7802.28
7803.43
7804.56
7805.66
7806.75
7807.81
7808.85
7809.87
7810.86
7811.84
7812.79
7813.72
7814.63
7815.52
7816.39
7817.24
7818.07
7818.88
7819.67
7820.44
7821.19
7821.93
7822.65
7823.35
7824.03
7824.7
7825.36
7826
7826.62
7827.24
7827.83
7828.41
7828.98
7829.54
7830.08
7830.6
7831.11
7831.6
7832.07
7832.53
7832.98
7833.4
7833.82
7834.21
7834.59
7834.96
7835.31
7835.64
7835.96
7836.26
7836.55
7836.82
7837.06
7837.27
7837.51
7837.85
7838.14
7838.41
7838.7
7838.97
7839.24
7839.49
7839.75
7839.99
7840.22
7840.45
7840.66
7840.88
7841.08
7841.28
7841.47
7841.65
7841.83
7842
7842.16
7842.31
7842.46
7842.6
7842.73
7842.85
7842.96
7843.07
7843.17
7843.27
7843.36
7843.44
7843.51
7843.58
7843.64
7843.69
7843.74
7843.79
7843.83
7843.86
7843.88
7843.91
7843.92
7843.94
7843.94
7843.95
7843.95
7843.95
7843.94
7843.94
7843.93
7843.92
7843.9
7843.89
7843.87
7843.85
7843.83
7843.81
7843.79
7843.76
7843.74
7843.71
7843.68
7843.65
7843.62
7843.59
7843.56
7843.52
7843.49
7843.46
7843.42
7843.38
7843.35
7843.31
7843.27
7843.24
7843.2
7843.16
7843.12
7843.08
7843.04
7843
7842.97
7842.93
7842.89
7842.85
7842.81
7842.77
7842.73
7842.7
7842.66
7842.62
7842.58
7842.55
7842.51
7842.47
7842.44
7842.4
7842.36
7842.33
7842.29
7842.26
7842.22
7842.19
7842.16
7842.12
7842.09
7842.06
7842.02
7841.99
7841.96
7841.93
7841.9
7841.87
7841.84
7841.81
7841.78
7841.75
7841.72
7841.69
7841.66
7841.63
7841.61
7841.58
7841.55
7841.53
7841.5
7841.48
7841.45
7841.43
7841.4
7841.38
7841.36
7841.33
7841.31
7841.29
7841.27
7841.25
7841.23
7841.2
7841.18
7841.16
7841.15
7841.13
7841.11
7841.09
7841.07
7841.05
7841.04
7841.02
7841
7840.99
7840.97
7840.96
7840.94
7840.93
7840.91
7840.9
7840.88
7840.87
7840.86
7840.84
7840.83
7840.82
7840.8
7840.79
7840.78
7840.77
7840.75
7840.74
7840.73
7840.72
7840.71
7840.7
7840.69
7840.68
7840.67
7840.66
7840.65
7840.64
7840.63
7840.62
7840.61
7840.6
7840.59
7840.58
7840.57
7840.57
7840.56
7840.55
7840.54
7840.53
7840.53
7840.52
7840.51
7840.5
7840.5
7840.49
7840.48
7840.48
7840.47
7840.46
7840.46
7840.45
7840.44
7840.44
7840.43
7840.43
7840.42
7840.41
7840.41
7840.4
7840.4
7840.39
7840.39
7840.38
7840.38
7840.37
7840.37
7840.36
7840.36
7840.36
7840.35
7840.35
7840.34
7840.34
7840.34
7840.33
7840.33
7840.32
7840.32
7840.32
7840.31
7840.31
7840.31
7840.3
7840.3
7840.3
7840.29
7840.29
7840.29
7840.28
7840.28
7840.28
7840.27
7840.27
7840.27
7840.27
7840.26
7840.26
7840.26
7840.26
7840.25
7840.25
7840.25
7840.25
7840.24
7840.24
7840.24
7840.24
7840.24
7840.23
7840.23
7840.23
7840.23
7840.23
7840.23
7840.22
7840.22
7840.22
7840.22
7840.22
7840.22
7840.21
7840.21
7840.21
7840.21
7840.21
7840.21
7840.21
7840.2
7840.2
7840.2
7840.2
7840.2
7840.2
7840.2
7840.2
7840.19
7840.19
7840.19
7840.19
7840.19
7840.19
7840.19
7840.19
7840.19
7840.19
7840.18
7840.18
7840.18
7840.18
7840.18
7840.18
7840.18
7840.18
7840.18
7840.18
7840.18
7840.18
7840.18
7840.17
7840.17
7840.17
7840.17
7840.17
7840.17
7840.17
7840.17
7840.17
7840.17
7840.17
7840.17
7840.17
7840.17
7840.17
7840.17
7840.17
7840.17
7840.16
7840.16
7840.16
7840.16
7840.16
7840.16
7840.16
7840.16
7840.16
7840.16
7840.16
7840.16
7840.16
7840.16
7840.16
7840.16
7840.16
7840.16
7840.16
7840.16
7840.16
7840.16
7840.16
7840.16
7840.16
7840.16
7840.16
7840.16
7840.16
7840.16
7840.16
7840.16
7840.16
7840.16
7840.16
7840.16
7840.16
7840.16
7840.16
7840.16
7840.16
7840.16
7840.16
7840.16
7840.16
7840.16
7840.15
7840.15
7840.15
7840.15
7840.15
7840.15
7840.15
7840.15
7840.15
7840.15
7840.15
7840.15
7840.15
7840.15
7840.15
7840.15
7840.15
7840.15
7840.15
7840.15
7840.15
7840.15
7840.15
7840.15
7840.15
7840.15
7840.15
7840.15
7840.15
7840.15
7840.15
7840.15
7840.15
7840.15
7840.15
7840.15
7840.15
7840.15
7840.15
7840.15
7840.15
7840.15
7840.15
7840.15
7840.15
7840.15
7840.15
7840.15
7840.15
7840.15
7840.15
7840.15
7840.15
7840.15
7840.15
7840.15
7840.15
7840.15
7840.15
7840.15
7840.15
7840.15
7840.15
7840.15
7840.15
7840.15
7840.15
7840.15
7840.15
7840.15
7840.15
7840.15
7840.15
7840.15
7840.15
7840.15
7840.15
7840.15
7840.15
7840.15
7840.15
7840.15
7840.15
7840.15
7840.15
7840.15
7840.15
7840.15
7840.15
7840.15
7840.15
7840.15
7840.15
7840.15
7840.15
7840.15
7840.15
7768.53
7770.3
7771.88
7773.45
7775.01
7776.55
7778.07
7779.58
7781.07
7782.54
7784
7785.44
7786.86
7788.26
7789.64
7791.01
7792.35
7793.67
7794.97
7796.25
7797.51
7798.74
7799.96
7801.15
7802.32
7803.47
7804.59
7805.7
7806.78
7807.84
7808.88
7809.89
7810.89
7811.86
7812.82
7813.75
7814.66
7815.55
7816.41
7817.26
7818.09
7818.9
7819.69
7820.46
7821.22
7821.95
7822.67
7823.38
7824.06
7824.73
7825.39
7826.03
7826.66
7827.27
7827.86
7828.45
7829.01
7829.57
7830.11
7830.63
7831.14
7831.63
7832.1
7832.56
7833
7833.43
7833.84
7834.24
7834.62
7834.98
7835.33
7835.67
7835.99
7836.3
7836.59
7836.87
7837.13
7837.39
7837.66
7837.91
7838.13
7838.37
7838.71
7838.99
7839.24
7839.51
7839.77
7840
7840.23
7840.46
7840.68
7840.89
7841.09
7841.29
7841.48
7841.67
7841.84
7842.01
7842.17
7842.32
7842.47
7842.61
7842.74
7842.86
7842.97
7843.08
7843.18
7843.28
7843.37
7843.45
7843.52
7843.59
7843.65
7843.7
7843.75
7843.79
7843.83
7843.86
7843.89
7843.92
7843.93
7843.94
7843.95
7843.95
7843.96
7843.95
7843.95
7843.94
7843.93
7843.92
7843.91
7843.89
7843.87
7843.85
7843.83
7843.81
7843.79
7843.76
7843.74
7843.71
7843.68
7843.65
7843.62
7843.59
7843.56
7843.53
7843.49
7843.46
7843.42
7843.39
7843.35
7843.31
7843.27
7843.24
7843.2
7843.16
7843.12
7843.08
7843.04
7843
7842.97
7842.93
7842.89
7842.85
7842.81
7842.77
7842.73
7842.7
7842.66
7842.62
7842.58
7842.55
7842.51
7842.47
7842.44
7842.4
7842.36
7842.33
7842.29
7842.26
7842.22
7842.19
7842.16
7842.12
7842.09
7842.06
7842.02
7841.99
7841.96
7841.93
7841.9
7841.87
7841.84
7841.81
7841.78
7841.75
7841.72
7841.69
7841.66
7841.63
7841.61
7841.58
7841.55
7841.53
7841.5
7841.48
7841.45
7841.43
7841.4
7841.38
7841.36
7841.33
7841.31
7841.29
7841.27
7841.25
7841.23
7841.2
7841.18
7841.17
7841.15
7841.13
7841.11
7841.09
7841.07
7841.05
7841.04
7841.02
7841
7840.99
7840.97
7840.96
7840.94
7840.93
7840.91
7840.9
7840.88
7840.87
7840.86
7840.84
7840.83
7840.82
7840.8
7840.79
7840.78
7840.77
7840.75
7840.74
7840.73
7840.72
7840.71
7840.7
7840.69
7840.68
7840.67
7840.66
7840.65
7840.64
7840.63
7840.62
7840.61
7840.6
7840.59
7840.58
7840.57
7840.57
7840.56
7840.55
7840.54
7840.53
7840.53
7840.52
7840.51
7840.5
7840.5
7840.49
7840.48
7840.48
7840.47
7840.46
7840.46
7840.45
7840.44
7840.44
7840.43
7840.43
7840.42
7840.41
7840.41
7840.4
7840.4
7840.39
7840.39
7840.38
7840.38
7840.37
7840.37
7840.36
7840.36
7840.36
7840.35
7840.35
7840.34
7840.34
7840.34
7840.33
7840.33
7840.32
7840.32
7840.32
7840.31
7840.31
7840.31
7840.3
7840.3
7840.3
7840.29
7840.29
7840.29
7840.28
7840.28
7840.28
7840.27
7840.27
7840.27
7840.27
7840.26
7840.26
7840.26
7840.26
7840.25
7840.25
7840.25
7840.25
7840.25
7840.24
7840.24
7840.24
7840.24
7840.23
7840.23
7840.23
7840.23
7840.23
7840.23
7840.22
7840.22
7840.22
7840.22
7840.22
7840.22
7840.21
7840.21
7840.21
7840.21
7840.21
7840.21
7840.21
7840.2
7840.2
7840.2
7840.2
7840.2
7840.2
7840.2
7840.2
7840.19
7840.19
7840.19
7840.19
7840.19
7840.19
7840.19
7840.19
7840.19
7840.19
7840.18
7840.18
7840.18
7840.18
7840.18
7840.18
7840.18
7840.18
7840.18
7840.18
7840.18
7840.18
7840.18
7840.17
7840.17
7840.17
7840.17
7840.17
7840.17
7840.17
7840.17
7840.17
7840.17
7840.17
7840.17
7840.17
7840.17
7840.17
7840.17
7840.17
7840.17
7840.16
7840.16
7840.16
7840.16
7840.16
7840.16
7840.16
7840.16
7840.16
7840.16
7840.16
7840.16
7840.16
7840.16
7840.16
7840.16
7840.16
7840.16
7840.16
7840.16
7840.16
7840.16
7840.16
7840.16
7840.16
7840.16
7840.16
7840.16
7840.16
7840.16
7840.16
7840.16
7840.16
7840.16
7840.16
7840.16
7840.16
7840.16
7840.16
7840.16
7840.16
7840.16
7840.16
7840.16
7840.16
7840.16
7840.15
7840.15
7840.15
7840.15
7840.15
7840.15
7840.15
7840.15
7840.15
7840.15
7840.15
7840.15
7840.15
7840.15
7840.15
7840.15
7840.15
7840.15
7840.15
7840.15
7840.15
7840.15
7840.15
7840.15
7840.15
7840.15
7840.15
7840.15
7840.15
7840.15
7840.15
7840.15
7840.15
7840.15
7840.15
7840.15
7840.15
7840.15
7840.15
7840.15
7840.15
7840.15
7840.15
7840.15
7840.15
7840.15
7840.15
7840.15
7840.15
7840.15
7840.15
7840.15
7840.15
7840.15
7840.15
7840.15
7840.15
7840.15
7840.15
7840.15
7840.15
7840.15
7840.15
7840.15
7840.15
7840.15
7840.15
7840.15
7840.15
7840.15
7840.15
7840.15
7840.15
7840.15
7840.15
7840.15
7840.15
7840.15
7840.15
7840.15
7840.15
7840.15
7840.15
7840.15
7840.15
7840.15
7840.15
7840.15
7840.15
7840.15
7840.15
7840.15
7840.15
7840.15
7840.15
7840.15
7840.15
7768.63
7770.4
7771.98
7773.54
7775.09
7776.63
7778.16
7779.67
7781.16
7782.64
7784.09
7785.54
7786.96
7788.36
7789.75
7791.11
7792.46
7793.78
7795.08
7796.36
7797.62
7798.85
7800.07
7801.26
7802.43
7803.58
7804.7
7805.8
7806.89
7807.94
7808.98
7810
7810.99
7811.97
7812.92
7813.85
7814.76
7815.65
7816.52
7817.38
7818.21
7819.03
7819.82
7820.6
7821.35
7822.09
7822.81
7823.51
7824.2
7824.87
7825.52
7826.16
7826.79
7827.4
7827.99
7828.57
7829.13
7829.68
7830.21
7830.73
7831.23
7831.72
7832.19
7832.64
7833.08
7833.51
7833.92
7834.31
7834.69
7835.06
7835.41
7835.75
7836.07
7836.38
7836.68
7836.97
7837.25
7837.51
7837.77
7838.03
7838.29
7838.55
7838.8
7839.02
7839.24
7839.57
7839.83
7840.04
7840.27
7840.5
7840.72
7840.93
7841.13
7841.33
7841.52
7841.7
7841.88
7842.05
7842.21
7842.36
7842.5
7842.64
7842.77
7842.89
7843.01
7843.11
7843.21
7843.3
7843.39
7843.47
7843.54
7843.61
7843.67
7843.72
7843.77
7843.81
7843.85
7843.88
7843.9
7843.93
7843.94
7843.96
7843.97
7843.97
7843.97
7843.97
7843.96
7843.95
7843.94
7843.93
7843.92
7843.9
7843.88
7843.86
7843.84
7843.82
7843.8
7843.77
7843.74
7843.72
7843.69
7843.66
7843.63
7843.6
7843.56
7843.53
7843.5
7843.46
7843.42
7843.39
7843.35
7843.31
7843.28
7843.24
7843.2
7843.16
7843.12
7843.08
7843.04
7843.01
7842.97
7842.93
7842.89
7842.85
7842.81
7842.77
7842.73
7842.7
7842.66
7842.62
7842.58
7842.55
7842.51
7842.47
7842.44
7842.4
7842.36
7842.33
7842.29
7842.26
7842.22
7842.19
7842.16
7842.12
7842.09
7842.05
7842.02
7841.99
7841.96
7841.93
7841.89
7841.86
7841.83
7841.8
7841.77
7841.74
7841.72
7841.69
7841.66
7841.63
7841.6
7841.58
7841.55
7841.52
7841.5
7841.47
7841.45
7841.42
7841.4
7841.38
7841.35
7841.33
7841.31
7841.29
7841.26
7841.24
7841.22
7841.2
7841.18
7841.16
7841.14
7841.12
7841.11
7841.09
7841.07
7841.05
7841.04
7841.02
7841
7840.99
7840.97
7840.95
7840.94
7840.92
7840.91
7840.9
7840.88
7840.87
7840.85
7840.84
7840.83
7840.81
7840.8
7840.79
7840.78
7840.76
7840.75
7840.74
7840.73
7840.72
7840.71
7840.7
7840.69
7840.68
7840.67
7840.66
7840.65
7840.64
7840.63
7840.62
7840.61
7840.6
7840.59
7840.58
7840.57
7840.56
7840.56
7840.55
7840.54
7840.53
7840.52
7840.52
7840.51
7840.5
7840.5
7840.49
7840.48
7840.47
7840.47
7840.46
7840.46
7840.45
7840.44
7840.44
7840.43
7840.43
7840.42
7840.41
7840.41
7840.4
7840.4
7840.39
7840.39
7840.38
7840.38
7840.37
7840.37
7840.36
7840.36
7840.36
7840.35
7840.35
7840.34
7840.34
7840.33
7840.33
7840.33
7840.32
7840.32
7840.32
7840.31
7840.31
7840.31
7840.3
7840.3
7840.3
7840.29
7840.29
7840.29
7840.28
7840.28
7840.28
7840.27
7840.27
7840.27
7840.27
7840.26
7840.26
7840.26
7840.26
7840.25
7840.25
7840.25
7840.25
7840.24
7840.24
7840.24
7840.24
7840.24
7840.23
7840.23
7840.23
7840.23
7840.23
7840.23
7840.22
7840.22
7840.22
7840.22
7840.22
7840.22
7840.21
7840.21
7840.21
7840.21
7840.21
7840.21
7840.21
7840.2
7840.2
7840.2
7840.2
7840.2
7840.2
7840.2
7840.2
7840.19
7840.19
7840.19
7840.19
7840.19
7840.19
7840.19
7840.19
7840.19
7840.19
7840.18
7840.18
7840.18
7840.18
7840.18
7840.18
7840.18
7840.18
7840.18
7840.18
7840.18
7840.18
7840.18
7840.17
7840.17
7840.17
7840.17
7840.17
7840.17
7840.17
7840.17
7840.17
7840.17
7840.17
7840.17
7840.17
7840.17
7840.17
7840.17
7840.17
7840.17
7840.16
7840.16
7840.16
7840.16
7840.16
7840.16
7840.16
7840.16
7840.16
7840.16
7840.16
7840.16
7840.16
7840.16
7840.16
7840.16
7840.16
7840.16
7840.16
7840.16
7840.16
7840.16
7840.16
7840.16
7840.16
7840.16
7840.16
7840.16
7840.16
7840.16
7840.16
7840.16
7840.16
7840.16
7840.16
7840.16
7840.16
7840.16
7840.16
7840.16
7840.16
7840.16
7840.16
7840.16
7840.16
7840.16
7840.15
7840.15
7840.15
7840.15
7840.15
7840.15
7840.15
7840.15
7840.15
7840.15
7840.15
7840.15
7840.15
7840.15
7840.15
7840.15
7840.15
7840.15
7840.15
7840.15
7840.15
7840.15
7840.15
7840.15
7840.15
7840.15
7840.15
7840.15
7840.15
7840.15
7840.15
7840.15
7840.15
7840.15
7840.15
7840.15
7840.15
7840.15
7840.15
7840.15
7840.15
7840.15
7840.15
7840.15
7840.15
7840.15
7840.15
7840.15
7840.15
7840.15
7840.15
7840.15
7840.15
7840.15
7840.15
7840.15
7840.15
7840.15
7840.15
7840.15
7840.15
7840.15
7840.15
7840.15
7840.15
7840.15
7840.15
7840.15
7840.15
7840.15
7840.15
7840.15
7840.15
7840.15
7840.15
7840.15
7840.15
7840.15
7840.15
7840.15
7840.15
7840.15
7840.15
7840.15
7840.15
7840.15
7840.15
7840.15
7840.15
7840.15
7840.15
7840.15
7840.15
7840.15
7840.15
7840.15
7840.15
7768.62
7770.4
7772.01
7773.59
7775.16
7776.72
7778.25
7779.77
7781.27
7782.75
7784.22
7785.67
7787.1
7788.51
7789.9
7791.27
7792.61
7793.94
7795.24
7796.53
7797.79
7799.02
7800.24
7801.43
7802.6
7803.75
7804.87
7805.98
7807.06
7808.12
7809.16
7810.17
7811.16
7812.14
7813.09
7814.03
7814.94
7815.83
7816.71
7817.57
7818.4
7819.22
7820.01
7820.79
7821.55
7822.29
7823.01
7823.71
7824.4
7825.07
7825.73
7826.37
7826.99
7827.6
7828.19
7828.76
7829.31
7829.85
7830.37
7830.88
7831.37
7831.85
7832.32
7832.77
7833.2
7833.63
7834.04
7834.43
7834.81
7835.18
7835.53
7835.87
7836.19
7836.51
7836.81
7837.1
7837.38
7837.66
7837.93
7838.19
7838.44
7838.69
7838.93
7839.18
7839.44
7839.68
7839.9
7840.09
7840.29
7840.56
7840.79
7840.99
7841.2
7841.39
7841.58
7841.76
7841.93
7842.1
7842.26
7842.41
7842.55
7842.68
7842.81
7842.93
7843.05
7843.15
7843.25
7843.34
7843.43
7843.51
7843.58
7843.64
7843.7
7843.75
7843.8
7843.84
7843.87
7843.9
7843.93
7843.95
7843.96
7843.97
7843.98
7843.99
7843.99
7843.99
7843.98
7843.97
7843.96
7843.95
7843.93
7843.92
7843.9
7843.88
7843.86
7843.83
7843.81
7843.78
7843.76
7843.73
7843.7
7843.67
7843.64
7843.6
7843.57
7843.54
7843.5
7843.47
7843.43
7843.39
7843.36
7843.32
7843.28
7843.24
7843.2
7843.17
7843.13
7843.09
7843.05
7843.01
7842.97
7842.93
7842.89
7842.85
7842.81
7842.78
7842.74
7842.7
7842.66
7842.62
7842.59
7842.55
7842.51
7842.47
7842.44
7842.4
7842.36
7842.33
7842.29
7842.26
7842.22
7842.19
7842.16
7842.12
7842.09
7842.05
7842.02
7841.99
7841.96
7841.93
7841.89
7841.86
7841.83
7841.8
7841.77
7841.74
7841.71
7841.69
7841.66
7841.63
7841.6
7841.58
7841.55
7841.52
7841.5
7841.47
7841.45
7841.42
7841.4
7841.37
7841.35
7841.33
7841.31
7841.28
7841.26
7841.24
7841.22
7841.2
7841.18
7841.16
7841.14
7841.12
7841.1
7841.09
7841.07
7841.05
7841.03
7841.02
7841
7840.98
7840.97
7840.95
7840.94
7840.92
7840.91
7840.89
7840.88
7840.87
7840.85
7840.84
7840.83
7840.81
7840.8
7840.79
7840.78
7840.76
7840.75
7840.74
7840.73
7840.72
7840.71
7840.7
7840.69
7840.67
7840.66
7840.65
7840.64
7840.63
7840.63
7840.62
7840.61
7840.6
7840.59
7840.58
7840.57
7840.56
7840.56
7840.55
7840.54
7840.53
7840.52
7840.52
7840.51
7840.5
7840.49
7840.49
7840.48
7840.47
7840.47
7840.46
7840.45
7840.45
7840.44
7840.44
7840.43
7840.42
7840.42
7840.41
7840.41
7840.4
7840.4
7840.39
7840.39
7840.38
7840.38
7840.37
7840.37
7840.36
7840.36
7840.35
7840.35
7840.35
7840.34
7840.34
7840.33
7840.33
7840.33
7840.32
7840.32
7840.32
7840.31
7840.31
7840.3
7840.3
7840.3
7840.29
7840.29
7840.29
7840.29
7840.28
7840.28
7840.28
7840.27
7840.27
7840.27
7840.27
7840.26
7840.26
7840.26
7840.26
7840.25
7840.25
7840.25
7840.25
7840.24
7840.24
7840.24
7840.24
7840.24
7840.23
7840.23
7840.23
7840.23
7840.23
7840.22
7840.22
7840.22
7840.22
7840.22
7840.22
7840.21
7840.21
7840.21
7840.21
7840.21
7840.21
7840.21
7840.2
7840.2
7840.2
7840.2
7840.2
7840.2
7840.2
7840.2
7840.19
7840.19
7840.19
7840.19
7840.19
7840.19
7840.19
7840.19
7840.19
7840.19
7840.18
7840.18
7840.18
7840.18
7840.18
7840.18
7840.18
7840.18
7840.18
7840.18
7840.18
7840.18
7840.18
7840.17
7840.17
7840.17
7840.17
7840.17
7840.17
7840.17
7840.17
7840.17
7840.17
7840.17
7840.17
7840.17
7840.17
7840.17
7840.17
7840.17
7840.17
7840.16
7840.16
7840.16
7840.16
7840.16
7840.16
7840.16
7840.16
7840.16
7840.16
7840.16
7840.16
7840.16
7840.16
7840.16
7840.16
7840.16
7840.16
7840.16
7840.16
7840.16
7840.16
7840.16
7840.16
7840.16
7840.16
7840.16
7840.16
7840.16
7840.16
7840.16
7840.16
7840.16
7840.16
7840.16
7840.16
7840.16
7840.16
7840.16
7840.16
7840.16
7840.16
7840.16
7840.16
7840.16
7840.16
7840.16
7840.15
7840.15
7840.15
7840.15
7840.15
7840.15
7840.15
7840.15
7840.15
7840.15
7840.15
7840.15
7840.15
7840.15
7840.15
7840.15
7840.15
7840.15
7840.15
7840.15
7840.15
7840.15
7840.15
7840.15
7840.15
7840.15
7840.15
7840.15
7840.15
7840.15
7840.15
7840.15
7840.15
7840.15
7840.15
7840.15
7840.15
7840.15
7840.15
7840.15
7840.15
7840.15
7840.15
7840.15
7840.15
7840.15
7840.15
7840.15
7840.15
7840.15
7840.15
7840.15
7840.15
7840.15
7840.15
7840.15
7840.15
7840.15
7840.15
7840.15
7840.15
7840.15
7840.15
7840.15
7840.15
7840.15
7840.15
7840.15
7840.15
7840.15
7840.15
7840.15
7840.15
7840.15
7840.15
7840.15
7840.15
7840.15
7840.15
7840.15
7840.15
7840.15
7840.15
7840.15
7840.15
7840.15
7840.15
7840.15
7840.15
7840.15
7840.15
7840.15
7840.15
7840.15
7840.15
7840.15
7840.15
7768.73
7770.53
7772.15
7773.74
7775.32
7776.88
7778.42
7779.94
7781.45
7782.94
7784.41
7785.87
7787.3
7788.72
7790.11
7791.49
7792.84
7794.17
7795.48
7796.76
7798.03
7799.27
7800.48
7801.68
7802.85
7804
7805.13
7806.24
7807.32
7808.38
7809.42
7810.44
7811.43
7812.4
7813.35
7814.28
7815.19
7816.08
7816.95
7817.81
7818.64
7819.46
7820.26
7821.04
7821.8
7822.55
7823.28
7823.99
7824.68
7825.35
7826
7826.64
7827.26
7827.85
7828.43
7828.99
7829.53
7830.06
7830.57
7831.07
7831.55
7832.03
7832.48
7832.93
7833.36
7833.78
7834.19
7834.58
7834.96
7835.32
7835.68
7836.02
7836.34
7836.66
7836.96
7837.25
7837.54
7837.82
7838.08
7838.35
7838.6
7838.85
7839.09
7839.33
7839.57
7839.79
7840.01
7840.23
7840.46
7840.67
7840.84
7841.02
7841.27
7841.47
7841.64
7841.82
7841.99
7842.16
7842.32
7842.47
7842.61
7842.74
7842.87
7842.99
7843.1
7843.2
7843.3
7843.39
7843.47
7843.55
7843.62
7843.68
7843.74
7843.79
7843.83
7843.87
7843.9
7843.93
7843.96
7843.97
7843.99
7844
7844.01
7844.01
7844.01
7844.01
7844
7843.99
7843.98
7843.97
7843.95
7843.94
7843.92
7843.89
7843.87
7843.85
7843.82
7843.8
7843.77
7843.74
7843.71
7843.68
7843.65
7843.62
7843.58
7843.55
7843.51
7843.48
7843.44
7843.4
7843.37
7843.33
7843.29
7843.25
7843.21
7843.17
7843.13
7843.09
7843.05
7843.01
7842.97
7842.94
7842.9
7842.86
7842.82
7842.78
7842.74
7842.7
7842.66
7842.63
7842.59
7842.55
7842.51
7842.48
7842.44
7842.4
7842.37
7842.33
7842.3
7842.26
7842.23
7842.19
7842.16
7842.12
7842.09
7842.06
7842.02
7841.99
7841.96
7841.93
7841.89
7841.86
7841.83
7841.8
7841.77
7841.74
7841.71
7841.69
7841.66
7841.63
7841.6
7841.57
7841.55
7841.52
7841.5
7841.47
7841.45
7841.42
7841.4
7841.37
7841.35
7841.33
7841.31
7841.28
7841.26
7841.24
7841.22
7841.2
7841.18
7841.16
7841.14
7841.12
7841.1
7841.08
7841.07
7841.05
7841.03
7841.02
7841
7840.98
7840.97
7840.95
7840.94
7840.92
7840.91
7840.89
7840.88
7840.86
7840.85
7840.84
7840.82
7840.81
7840.8
7840.79
7840.77
7840.76
7840.75
7840.74
7840.73
7840.72
7840.7
7840.69
7840.68
7840.67
7840.66
7840.65
7840.64
7840.63
7840.62
7840.61
7840.61
7840.6
7840.59
7840.58
7840.57
7840.56
7840.55
7840.55
7840.54
7840.53
7840.52
7840.51
7840.51
7840.5
7840.49
7840.49
7840.48
7840.47
7840.47
7840.46
7840.45
7840.45
7840.44
7840.43
7840.43
7840.42
7840.42
7840.41
7840.41
7840.4
7840.4
7840.39
7840.39
7840.38
7840.38
7840.37
7840.37
7840.36
7840.36
7840.35
7840.35
7840.35
7840.34
7840.34
7840.33
7840.33
7840.33
7840.32
7840.32
7840.31
7840.31
7840.31
7840.3
7840.3
7840.3
7840.29
7840.29
7840.29
7840.28
7840.28
7840.28
7840.28
7840.27
7840.27
7840.27
7840.26
7840.26
7840.26
7840.26
7840.25
7840.25
7840.25
7840.25
7840.25
7840.24
7840.24
7840.24
7840.24
7840.24
7840.23
7840.23
7840.23
7840.23
7840.23
7840.22
7840.22
7840.22
7840.22
7840.22
7840.22
7840.21
7840.21
7840.21
7840.21
7840.21
7840.21
7840.21
7840.2
7840.2
7840.2
7840.2
7840.2
7840.2
7840.2
7840.2
7840.19
7840.19
7840.19
7840.19
7840.19
7840.19
7840.19
7840.19
7840.19
7840.19
7840.18
7840.18
7840.18
7840.18
7840.18
7840.18
7840.18
7840.18
7840.18
7840.18
7840.18
7840.18
7840.18
7840.17
7840.17
7840.17
7840.17
7840.17
7840.17
7840.17
7840.17
7840.17
7840.17
7840.17
7840.17
7840.17
7840.17
7840.17
7840.17
7840.17
7840.17
7840.16
7840.16
7840.16
7840.16
7840.16
7840.16
7840.16
7840.16
7840.16
7840.16
7840.16
7840.16
7840.16
7840.16
7840.16
7840.16
7840.16
7840.16
7840.16
7840.16
7840.16
7840.16
7840.16
7840.16
7840.16
7840.16
7840.16
7840.16
7840.16
7840.16
7840.16
7840.16
7840.16
7840.16
7840.16
7840.16
7840.16
7840.16
7840.16
7840.16
7840.16
7840.16
7840.16
7840.16
7840.16
7840.16
7840.16
7840.16
7840.15
7840.15
7840.15
7840.15
7840.15
7840.15
7840.15
7840.15
7840.15
7840.15
7840.15
7840.15
7840.15
7840.15
7840.15
7840.15
7840.15
7840.15
7840.15
7840.15
7840.15
7840.15
7840.15
7840.15
7840.15
7840.15
7840.15
7840.15
7840.15
7840.15
7840.15
7840.15
7840.15
7840.15
7840.15
7840.15
7840.15
7840.15
7840.15
7840.15
7840.15
7840.15
7840.15
7840.15
7840.15
7840.15
7840.15
7840.15
7840.15
7840.15
7840.15
7840.15
7840.15
7840.15
7840.15
7840.15
7840.15
7840.15
7840.15
7840.15
7840.15
7840.15
7840.15
7840.15
7840.15
7840.15
7840.15
7840.15
7840.15
7840.15
7840.15
7840.15
7840.15
7840.15
7840.15
7840.15
7840.15
7840.15
7840.15
7840.15
7840.15
7840.15
7840.15
7840.15
7840.15
7840.15
7840.15
7840.15
7840.15
7840.15
7840.15
7840.15
7840.15
7840.15
7840.15
7840.15
7768.84
7770.7
7772.33
7773.94
7775.52
7777.09
7778.64
7780.17
7781.69
7783.18
7784.66
7786.12
7787.57
7788.99
7790.39
7791.77
7793.13
7794.46
7795.78
7797.07
7798.33
7799.58
7800.8
7801.99
7803.17
7804.32
7805.45
7806.56
7807.64
7808.7
7809.74
7810.76
7811.75
7812.72
7813.66
7814.58
7815.49
7816.37
7817.24
7818.09
7818.92
7819.74
7820.54
7821.32
7822.09
7822.84
7823.57
7824.27
7824.96
7825.63
7826.28
7826.9
7827.51
7828.1
7828.67
7829.22
7829.76
7830.28
7830.78
7831.27
7831.74
7832.21
7832.66
7833.1
7833.53
7833.94
7834.35
7834.74
7835.11
7835.48
7835.83
7836.17
7836.49
7836.81
7837.11
7837.41
7837.69
7837.97
7838.24
7838.5
7838.76
7839
7839.25
7839.48
7839.71
7839.93
7840.15
7840.37
7840.58
7840.78
7840.98
7841.17
7841.36
7841.53
7841.67
7841.89
7842.07
7842.21
7842.38
7842.53
7842.67
7842.8
7842.92
7843.04
7843.15
7843.25
7843.35
7843.43
7843.51
7843.59
7843.65
7843.72
7843.77
7843.82
7843.86
7843.9
7843.93
7843.96
7843.98
7844
7844.01
7844.02
7844.03
7844.03
7844.03
7844.03
7844.02
7844.01
7844
7843.99
7843.97
7843.96
7843.94
7843.91
7843.89
7843.86
7843.84
7843.81
7843.78
7843.75
7843.72
7843.69
7843.66
7843.63
7843.59
7843.56
7843.52
7843.48
7843.45
7843.41
7843.37
7843.33
7843.29
7843.26
7843.22
7843.18
7843.14
7843.1
7843.06
7843.02
7842.98
7842.94
7842.9
7842.86
7842.82
7842.78
7842.74
7842.7
7842.66
7842.63
7842.59
7842.55
7842.51
7842.48
7842.44
7842.4
7842.37
7842.33
7842.29
7842.26
7842.22
7842.19
7842.15
7842.12
7842.09
7842.05
7842.02
7841.99
7841.96
7841.92
7841.89
7841.86
7841.83
7841.8
7841.77
7841.74
7841.71
7841.68
7841.65
7841.63
7841.6
7841.57
7841.55
7841.52
7841.49
7841.47
7841.44
7841.42
7841.39
7841.37
7841.35
7841.32
7841.3
7841.28
7841.26
7841.24
7841.22
7841.2
7841.18
7841.16
7841.14
7841.12
7841.1
7841.08
7841.06
7841.05
7841.03
7841.01
7841
7840.98
7840.96
7840.95
7840.93
7840.92
7840.9
7840.89
7840.87
7840.86
7840.85
7840.83
7840.82
7840.81
7840.79
7840.78
7840.77
7840.76
7840.75
7840.73
7840.72
7840.71
7840.7
7840.69
7840.68
7840.67
7840.66
7840.65
7840.64
7840.63
7840.62
7840.61
7840.6
7840.59
7840.58
7840.58
7840.57
7840.56
7840.55
7840.54
7840.54
7840.53
7840.52
7840.51
7840.5
7840.5
7840.49
7840.48
7840.48
7840.47
7840.46
7840.46
7840.45
7840.44
7840.44
7840.43
7840.43
7840.42
7840.42
7840.41
7840.4
7840.4
7840.39
7840.39
7840.38
7840.38
7840.37
7840.37
7840.37
7840.36
7840.36
7840.35
7840.35
7840.34
7840.34
7840.34
7840.33
7840.33
7840.32
7840.32
7840.32
7840.31
7840.31
7840.31
7840.3
7840.3
7840.3
7840.29
7840.29
7840.29
7840.28
7840.28
7840.28
7840.27
7840.27
7840.27
7840.27
7840.26
7840.26
7840.26
7840.26
7840.25
7840.25
7840.25
7840.25
7840.24
7840.24
7840.24
7840.24
7840.24
7840.23
7840.23
7840.23
7840.23
7840.23
7840.23
7840.22
7840.22
7840.22
7840.22
7840.22
7840.22
7840.21
7840.21
7840.21
7840.21
7840.21
7840.21
7840.21
7840.2
7840.2
7840.2
7840.2
7840.2
7840.2
7840.2
7840.2
7840.19
7840.19
7840.19
7840.19
7840.19
7840.19
7840.19
7840.19
7840.19
7840.19
7840.18
7840.18
7840.18
7840.18
7840.18
7840.18
7840.18
7840.18
7840.18
7840.18
7840.18
7840.18
7840.18
7840.17
7840.17
7840.17
7840.17
7840.17
7840.17
7840.17
7840.17
7840.17
7840.17
7840.17
7840.17
7840.17
7840.17
7840.17
7840.17
7840.17
7840.16
7840.16
7840.16
7840.16
7840.16
7840.16
7840.16
7840.16
7840.16
7840.16
7840.16
7840.16
7840.16
7840.16
7840.16
7840.16
7840.16
7840.16
7840.16
7840.16
7840.16
7840.16
7840.16
7840.16
7840.16
7840.16
7840.16
7840.16
7840.16
7840.16
7840.16
7840.16
7840.16
7840.16
7840.16
7840.16
7840.16
7840.16
7840.16
7840.16
7840.16
7840.16
7840.16
7840.16
7840.16
7840.16
7840.16
7840.16
7840.16
7840.15
7840.15
7840.15
7840.15
7840.15
7840.15
7840.15
7840.15
7840.15
7840.15
7840.15
7840.15
7840.15
7840.15
7840.15
7840.15
7840.15
7840.15
7840.15
7840.15
7840.15
7840.15
7840.15
7840.15
7840.15
7840.15
7840.15
7840.15
7840.15
7840.15
7840.15
7840.15
7840.15
7840.15
7840.15
7840.15
7840.15
7840.15
7840.15
7840.15
7840.15
7840.15
7840.15
7840.15
7840.15
7840.15
7840.15
7840.15
7840.15
7840.15
7840.15
7840.15
7840.15
7840.15
7840.15
7840.15
7840.15
7840.15
7840.15
7840.15
7840.15
7840.15
7840.15
7840.15
7840.15
7840.15
7840.15
7840.15
7840.15
7840.15
7840.15
7840.15
7840.15
7840.15
7840.15
7840.15
7840.15
7840.15
7840.15
7840.15
7840.15
7840.15
7840.15
7840.15
7840.15
7840.15
7840.15
7840.15
7840.15
7840.15
7840.15
7840.15
7840.15
7840.15
7840.15
7840.15
7769.03
7770.94
7772.58
7774.19
7775.78
7777.35
7778.91
7780.45
7781.98
7783.48
7784.97
7786.44
7787.89
7789.32
7790.72
7792.11
7793.47
7794.81
7796.12
7797.41
7798.68
7799.93
7801.15
7802.35
7803.52
7804.67
7805.79
7806.9
7807.98
7809.05
7810.09
7811.11
7812.11
7813.08
7814.03
7814.96
7815.86
7816.74
7817.61
7818.45
7819.28
7820.09
7820.89
7821.66
7822.42
7823.16
7823.88
7824.57
7825.25
7825.9
7826.54
7827.16
7827.76
7828.35
7828.91
7829.46
7829.99
7830.51
7831
7831.49
7831.96
7832.42
7832.86
7833.3
7833.72
7834.13
7834.53
7834.91
7835.29
7835.65
7836
7836.34
7836.66
7836.98
7837.28
7837.58
7837.86
7838.14
7838.41
7838.67
7838.93
7839.17
7839.41
7839.64
7839.87
7840.09
7840.31
7840.51
7840.72
7840.91
7841.11
7841.3
7841.48
7841.65
7841.83
7841.99
7842.13
7842.26
7842.45
7842.6
7842.72
7842.87
7842.99
7843.11
7843.21
7843.31
7843.41
7843.49
7843.57
7843.64
7843.7
7843.76
7843.82
7843.86
7843.9
7843.94
7843.97
7844
7844.02
7844.03
7844.05
7844.05
7844.06
7844.06
7844.06
7844.05
7844.04
7844.03
7844.02
7844.01
7843.99
7843.97
7843.95
7843.93
7843.91
7843.88
7843.86
7843.83
7843.8
7843.77
7843.73
7843.7
7843.67
7843.63
7843.6
7843.56
7843.53
7843.49
7843.45
7843.42
7843.38
7843.34
7843.3
7843.26
7843.22
7843.18
7843.14
7843.1
7843.06
7843.02
7842.98
7842.94
7842.9
7842.86
7842.82
7842.78
7842.74
7842.7
7842.66
7842.62
7842.58
7842.55
7842.51
7842.47
7842.43
7842.4
7842.36
7842.32
7842.29
7842.25
7842.22
7842.18
7842.15
7842.11
7842.08
7842.05
7842.01
7841.98
7841.95
7841.92
7841.89
7841.86
7841.82
7841.79
7841.76
7841.73
7841.7
7841.68
7841.65
7841.62
7841.59
7841.57
7841.54
7841.51
7841.49
7841.46
7841.44
7841.41
7841.39
7841.36
7841.34
7841.32
7841.29
7841.27
7841.25
7841.23
7841.21
7841.19
7841.17
7841.15
7841.13
7841.11
7841.09
7841.08
7841.06
7841.04
7841.02
7841.01
7840.99
7840.97
7840.96
7840.94
7840.93
7840.91
7840.9
7840.88
7840.87
7840.86
7840.84
7840.83
7840.82
7840.8
7840.79
7840.78
7840.77
7840.75
7840.74
7840.73
7840.72
7840.71
7840.7
7840.69
7840.68
7840.67
7840.66
7840.65
7840.64
7840.63
7840.62
7840.61
7840.6
7840.59
7840.58
7840.57
7840.56
7840.56
7840.55
7840.54
7840.53
7840.52
7840.52
7840.51
7840.5
7840.49
7840.49
7840.48
7840.47
7840.47
7840.46
7840.45
7840.45
7840.44
7840.44
7840.43
7840.42
7840.42
7840.41
7840.41
7840.4
7840.4
7840.39
7840.39
7840.38
7840.38
7840.37
7840.37
7840.36
7840.36
7840.35
7840.35
7840.35
7840.34
7840.34
7840.33
7840.33
7840.33
7840.32
7840.32
7840.31
7840.31
7840.31
7840.3
7840.3
7840.3
7840.29
7840.29
7840.29
7840.28
7840.28
7840.28
7840.28
7840.27
7840.27
7840.27
7840.26
7840.26
7840.26
7840.26
7840.26
7840.25
7840.25
7840.25
7840.25
7840.24
7840.24
7840.24
7840.24
7840.24
7840.23
7840.23
7840.23
7840.23
7840.23
7840.22
7840.22
7840.22
7840.22
7840.22
7840.22
7840.21
7840.21
7840.21
7840.21
7840.21
7840.21
7840.21
7840.2
7840.2
7840.2
7840.2
7840.2
7840.2
7840.2
7840.2
7840.19
7840.19
7840.19
7840.19
7840.19
7840.19
7840.19
7840.19
7840.19
7840.19
7840.18
7840.18
7840.18
7840.18
7840.18
7840.18
7840.18
7840.18
7840.18
7840.18