/*--------------------------------*- C++ -*----------------------------------*\
| =========                 |                                                 |
| \\      /  F ield         | OpenFOAM: The Open Source CFD Toolbox           |
|  \\    /   O peration     | Version:  v2006                                 |
|   \\  /    A nd           | Website:  www.openfoam.com                      |
|    \\/     M anipulation  |                                                 |
\*---------------------------------------------------------------------------*/
FoamFile
{
    version     2.0;
    format      ascii;
    class       volScalarField;
    location    "8.7";
    object      nut;
}
// * * * * * * * * * * * * * * * * * * * * * * * * * * * * * * * * * * * * * //

dimensions      [0 2 -1 0 0 0 0];


internalField   nonuniform List<scalar> 
33000
(
9.67418e-10
1.7169e-09
2.64349e-09
3.68615e-09
3.16639e-09
1.98294e-09
1.48466e-09
1.27869e-09
1.16488e-09
1.11267e-09
1.1166e-09
1.13146e-09
1.12062e-09
1.09499e-09
1.06939e-09
1.08076e-09
1.14425e-09
1.2571e-09
1.55347e-09
2.43221e-09
4.19917e-09
6.32444e-09
8.34033e-09
1.01949e-08
1.22034e-08
1.40151e-08
1.53913e-08
1.6682e-08
1.78327e-08
1.83999e-08
1.90537e-08
2.24371e-08
3.24219e-08
5.21939e-08
8.9535e-08
1.56381e-07
2.04599e-07
2.49891e-07
3.98945e-07
6.56217e-07
6.43145e-07
4.71283e-07
3.46943e-07
2.73129e-07
2.45041e-07
2.4483e-07
2.40352e-07
2.20447e-07
1.9122e-07
1.60986e-07
1.40099e-07
1.31278e-07
1.25655e-07
1.18625e-07
1.13524e-07
1.11064e-07
1.11072e-07
1.12143e-07
1.12474e-07
1.09733e-07
1.04318e-07
9.86813e-08
9.33628e-08
8.72334e-08
7.97409e-08
7.16408e-08
6.3708e-08
5.68006e-08
5.12267e-08
4.70259e-08
4.35313e-08
4.07964e-08
3.88076e-08
3.76179e-08
3.77749e-08
3.95103e-08
4.43055e-08
5.56614e-08
6.32235e-08
7.81373e-08
8.90492e-08
8.79744e-08
1.01733e-07
1.1702e-07
1.19992e-07
1.19051e-07
1.23337e-07
1.20446e-07
1.17035e-07
1.12021e-07
1.11365e-07
1.06559e-07
1.00014e-07
9.37736e-08
8.44911e-08
7.76636e-08
7.311e-08
7.68455e-08
9.01855e-08
1.30195e-07
1.38814e-07
1.2654e-07
1.23926e-07
1.37337e-07
1.59956e-07
1.6675e-07
1.66394e-07
1.55086e-07
1.42302e-07
1.29663e-07
1.26472e-07
1.23945e-07
1.17804e-07
1.09973e-07
1.02122e-07
9.77388e-08
1.02671e-07
1.28453e-07
1.3292e-07
1.23334e-07
1.19021e-07
1.1985e-07
1.26537e-07
1.26141e-07
1.25956e-07
1.20773e-07
1.16043e-07
1.14368e-07
1.13263e-07
1.11686e-07
1.10307e-07
1.08171e-07
1.06307e-07
1.04894e-07
1.03478e-07
1.0204e-07
1.00706e-07
9.94205e-08
9.81983e-08
9.70408e-08
9.59875e-08
9.49204e-08
9.39397e-08
9.29944e-08
9.20692e-08
9.11885e-08
9.03392e-08
8.95412e-08
8.87656e-08
8.797e-08
8.72433e-08
8.65457e-08
8.58288e-08
8.51455e-08
8.44932e-08
8.38772e-08
8.32846e-08
8.27149e-08
8.21648e-08
8.16217e-08
8.11053e-08
8.0624e-08
8.01754e-08
7.97416e-08
7.93451e-08
7.89806e-08
7.85921e-08
7.81954e-08
7.78438e-08
7.75833e-08
7.74016e-08
7.72228e-08
7.70237e-08
7.68797e-08
7.68704e-08
7.70293e-08
7.73913e-08
7.78817e-08
7.83846e-08
7.89369e-08
7.95998e-08
8.03932e-08
8.14308e-08
8.27688e-08
8.43724e-08
8.62795e-08
8.82965e-08
9.03924e-08
9.29468e-08
9.61641e-08
1.00109e-07
1.04549e-07
1.09412e-07
1.14937e-07
1.21358e-07
1.29237e-07
1.39121e-07
1.51934e-07
1.67805e-07
1.85801e-07
2.064e-07
2.31498e-07
2.64903e-07
3.10887e-07
3.71898e-07
3.78575e-07
3.8123e-07
3.83884e-07
3.8688e-07
3.90306e-07
3.93647e-07
3.96368e-07
3.98925e-07
4.01702e-07
4.04636e-07
3.78978e-07
3.48041e-07
3.25591e-07
3.0681e-07
2.89337e-07
2.73447e-07
2.60172e-07
2.49094e-07
2.3977e-07
2.32729e-07
2.2685e-07
2.21319e-07
2.1608e-07
2.11229e-07
2.06934e-07
2.03133e-07
2.00363e-07
1.98208e-07
1.95893e-07
1.93554e-07
1.91289e-07
1.89242e-07
1.87549e-07
1.86107e-07
1.847e-07
1.83372e-07
1.82227e-07
1.81169e-07
1.8002e-07
1.78646e-07
1.77274e-07
1.75881e-07
1.74557e-07
1.73621e-07
1.72553e-07
1.70982e-07
1.69324e-07
1.67727e-07
1.66067e-07
1.64497e-07
1.62902e-07
1.61073e-07
1.59094e-07
1.57029e-07
1.54959e-07
1.52856e-07
1.5069e-07
1.48457e-07
1.46102e-07
1.43639e-07
1.41143e-07
1.38745e-07
1.3644e-07
1.34005e-07
1.31399e-07
1.28792e-07
1.26238e-07
1.23689e-07
1.21137e-07
1.1868e-07
1.16269e-07
1.138e-07
1.11311e-07
1.08858e-07
1.0646e-07
1.04082e-07
1.01715e-07
9.94353e-08
9.725e-08
9.50445e-08
9.28201e-08
9.0648e-08
8.8543e-08
8.6467e-08
8.44178e-08
8.24291e-08
8.04751e-08
7.85211e-08
7.65734e-08
7.46432e-08
7.27212e-08
7.08356e-08
6.9006e-08
6.72158e-08
6.54647e-08
6.3756e-08
6.20798e-08
6.04444e-08
5.88557e-08
5.72993e-08
5.57661e-08
5.42601e-08
5.28057e-08
5.14197e-08
5.01097e-08
4.88757e-08
4.77196e-08
4.66524e-08
4.56785e-08
4.47943e-08
4.39918e-08
4.32715e-08
4.26423e-08
4.21065e-08
4.16662e-08
4.13248e-08
4.10831e-08
4.09388e-08
4.08945e-08
4.09529e-08
4.1108e-08
4.13571e-08
4.17065e-08
4.21592e-08
4.27102e-08
4.33494e-08
4.40758e-08
4.4892e-08
4.58136e-08
4.68493e-08
4.79857e-08
4.92054e-08
5.05146e-08
5.19246e-08
5.3429e-08
5.50364e-08
5.67501e-08
5.85786e-08
6.05254e-08
6.2606e-08
6.48222e-08
6.71798e-08
6.96931e-08
7.23727e-08
7.52356e-08
7.83018e-08
8.15913e-08
8.51172e-08
8.88922e-08
9.29394e-08
9.73004e-08
1.02011e-07
1.07127e-07
1.12692e-07
1.18728e-07
1.25318e-07
1.3146e-07
1.31248e-07
1.31004e-07
1.3073e-07
1.30429e-07
1.30098e-07
1.29737e-07
1.29344e-07
1.28926e-07
1.28486e-07
1.28022e-07
1.27527e-07
1.26999e-07
1.26442e-07
1.25858e-07
1.25248e-07
1.2461e-07
1.23946e-07
1.23256e-07
1.22537e-07
1.21778e-07
1.20984e-07
1.2016e-07
1.19304e-07
1.18417e-07
1.175e-07
1.16555e-07
1.15582e-07
1.14586e-07
1.13572e-07
1.12541e-07
1.11489e-07
1.10419e-07
1.09337e-07
1.08249e-07
1.07155e-07
1.06059e-07
1.04965e-07
1.03866e-07
1.02766e-07
1.01665e-07
1.00571e-07
9.94865e-08
9.84209e-08
9.73712e-08
9.63357e-08
9.53062e-08
9.42983e-08
9.33227e-08
9.23672e-08
9.14288e-08
9.04934e-08
8.95647e-08
8.86612e-08
8.77442e-08
8.68558e-08
8.59319e-08
8.49846e-08
8.41027e-08
8.32666e-08
8.233e-08
8.15476e-08
8.03378e-08
7.90151e-08
7.80934e-08
7.75754e-08
7.62923e-08
7.67134e-08
6.44726e-08
5.70102e-08
5.75062e-08
5.8614e-08
5.80427e-08
5.80207e-08
5.73273e-08
5.7053e-08
5.62392e-08
5.53179e-08
5.46392e-08
5.3294e-08
5.21101e-08
5.319e-08
5.15253e-08
5.22646e-08
5.25648e-08
5.02069e-08
4.5775e-08
4.45091e-08
4.83758e-08
5.1528e-08
5.29052e-08
5.32598e-08
5.47976e-08
5.43221e-08
5.55144e-08
5.43001e-08
5.54253e-08
5.39088e-08
5.38272e-08
5.59384e-08
5.65355e-08
5.24752e-08
5.38845e-08
4.13568e-08
4.1333e-08
3.70656e-08
3.90987e-08
2.80509e-08
2.29135e-08
2.48111e-08
2.9173e-08
3.28583e-08
3.65087e-08
3.96922e-08
4.20432e-08
4.38342e-08
4.53109e-08
4.65702e-08
4.75289e-08
4.80027e-08
4.82105e-08
4.82554e-08
4.81827e-08
4.81078e-08
4.79281e-08
4.75624e-08
4.71545e-08
4.68183e-08
4.64738e-08
4.60448e-08
4.55929e-08
4.52187e-08
4.49129e-08
4.45684e-08
4.4165e-08
4.3761e-08
4.33853e-08
4.30517e-08
4.27123e-08
4.23814e-08
4.2107e-08
4.18431e-08
4.15443e-08
4.12102e-08
4.08855e-08
4.06067e-08
4.03868e-08
4.02024e-08
4.00404e-08
3.9891e-08
3.97246e-08
3.95873e-08
3.94784e-08
3.93597e-08
3.9247e-08
3.91724e-08
3.91333e-08
3.91113e-08
3.90929e-08
3.90658e-08
3.90309e-08
3.89971e-08
3.89739e-08
3.89684e-08
3.89815e-08
3.90119e-08
3.90558e-08
3.91105e-08
3.91745e-08
3.92458e-08
3.93272e-08
3.94195e-08
3.95406e-08
3.96528e-08
3.98183e-08
3.98895e-08
4.0131e-08
4.0161e-08
4.05217e-08
4.05109e-08
4.08648e-08
4.10378e-08
4.1644e-08
3.95897e-08
4.54217e-08
3.58356e-08
5.40647e-08
2.92323e-08
8.71781e-08
3.69443e-09
1.24805e-08
2.61009e-08
2.74731e-08
1.15057e-08
7.19404e-09
5.888e-09
5.28693e-09
5.04308e-09
6.26796e-09
7.50803e-09
7.81268e-09
8.28758e-09
1.00758e-08
1.37104e-08
2.33887e-08
2.84077e-08
2.53288e-08
2.9799e-08
4.53331e-08
7.43822e-08
1.28642e-07
1.68184e-07
2.10464e-07
2.6145e-07
3.13162e-07
3.58097e-07
4.14046e-07
4.96576e-07
5.71573e-07
6.04687e-07
6.18071e-07
6.55179e-07
5.59669e-07
5.60728e-07
5.37578e-07
4.78429e-07
4.41387e-07
4.28538e-07
3.59296e-07
2.77819e-07
2.57696e-07
2.53136e-07
2.30826e-07
1.85515e-07
1.56188e-07
1.58391e-07
1.49834e-07
1.48788e-07
1.47286e-07
1.1906e-07
9.36001e-08
9.35105e-08
1.02668e-07
9.62208e-08
7.75268e-08
6.88657e-08
7.49454e-08
9.98123e-08
1.57398e-07
2.30383e-07
2.53754e-07
1.88012e-07
1.26539e-07
1.0177e-07
9.58418e-08
9.08612e-08
9.51247e-08
1.09792e-07
1.14911e-07
1.27389e-07
1.47595e-07
1.60668e-07
1.71154e-07
1.75733e-07
1.63196e-07
1.45899e-07
1.43191e-07
1.77681e-07
2.62228e-07
2.85861e-07
3.13173e-07
3.27414e-07
3.19694e-07
3.1521e-07
2.99863e-07
2.95532e-07
2.88234e-07
2.58669e-07
2.20485e-07
1.96297e-07
1.86057e-07
1.88926e-07
2.02076e-07
1.76472e-07
1.72012e-07
2.17579e-07
2.39144e-07
2.40103e-07
2.31159e-07
2.12929e-07
1.8957e-07
1.645e-07
1.36326e-07
1.3081e-07
9.77294e-08
6.78719e-08
6.7703e-08
4.09662e-08
5.45945e-08
1.30678e-07
1.47328e-07
8.90926e-08
8.24827e-08
8.20797e-08
7.16499e-08
7.78743e-08
6.49498e-08
3.89833e-08
2.75106e-08
3.9285e-08
9.84691e-08
8.46865e-08
7.31607e-08
6.5675e-08
5.59204e-08
6.76256e-08
1.06746e-07
1.14707e-07
1.09147e-07
1.0388e-07
9.87947e-08
1.11264e-07
1.28484e-07
1.32841e-07
1.3594e-07
1.35719e-07
1.40313e-07
1.45634e-07
1.57644e-07
1.70818e-07
1.81472e-07
1.82249e-07
1.81722e-07
1.81171e-07
1.80889e-07
1.81034e-07
1.81334e-07
1.81559e-07
1.81515e-07
1.81388e-07
1.81629e-07
1.81982e-07
1.82346e-07
1.82668e-07
1.82892e-07
1.83013e-07
1.83098e-07
1.83205e-07
1.83344e-07
1.83483e-07
1.83588e-07
1.83621e-07
1.83598e-07
1.83583e-07
1.83605e-07
1.8362e-07
1.83596e-07
1.76868e-07
1.68597e-07
1.64839e-07
1.57634e-07
1.48755e-07
1.3964e-07
1.31045e-07
1.2487e-07
1.20462e-07
1.1782e-07
1.15486e-07
1.11095e-07
1.05472e-07
9.86313e-08
9.21832e-08
8.79999e-08
8.48898e-08
8.29064e-08
8.14759e-08
7.8065e-08
7.3589e-08
6.92084e-08
6.55949e-08
6.301e-08
6.1229e-08
5.97184e-08
5.75587e-08
5.47184e-08
5.23087e-08
5.12689e-08
5.09567e-08
5.06948e-08
5.00283e-08
4.90495e-08
4.87656e-08
4.92787e-08
5.04531e-08
5.12532e-08
5.18168e-08
5.27864e-08
5.45254e-08
5.72138e-08
5.99064e-08
6.15911e-08
6.22042e-08
6.33335e-08
6.56418e-08
6.85563e-08
7.22157e-08
7.64047e-08
7.96325e-08
8.17191e-08
8.31475e-08
8.62089e-08
9.03445e-08
9.50513e-08
1.01363e-07
1.08409e-07
1.14979e-07
1.19675e-07
1.24405e-07
1.31333e-07
1.41478e-07
1.56994e-07
1.70712e-07
1.78743e-07
1.86012e-07
1.97274e-07
2.12263e-07
2.29817e-07
2.29718e-07
2.29594e-07
2.29442e-07
2.29184e-07
2.28868e-07
2.2863e-07
2.28544e-07
2.28684e-07
2.28995e-07
2.29083e-07
2.28903e-07
2.28757e-07
2.2879e-07
2.29015e-07
2.29356e-07
2.29624e-07
2.29748e-07
2.29801e-07
2.29884e-07
2.30088e-07
2.30367e-07
2.30646e-07
2.3087e-07
2.30948e-07
2.30917e-07
2.30908e-07
2.30996e-07
2.31171e-07
2.31205e-07
2.30999e-07
2.30753e-07
2.30562e-07
2.30335e-07
2.30044e-07
2.29747e-07
2.29444e-07
2.29026e-07
2.28489e-07
2.27918e-07
2.27362e-07
2.26775e-07
2.26095e-07
2.25351e-07
2.24629e-07
2.23885e-07
2.23063e-07
2.22228e-07
2.21397e-07
2.20508e-07
2.1953e-07
2.18498e-07
2.17466e-07
2.16439e-07
2.15406e-07
2.14342e-07
2.13222e-07
2.12019e-07
2.1075e-07
2.09473e-07
2.08219e-07
2.07009e-07
2.05842e-07
2.04681e-07
2.03476e-07
2.02249e-07
2.01076e-07
1.99987e-07
1.98964e-07
1.97942e-07
1.96946e-07
1.96053e-07
1.95303e-07
1.94649e-07
1.93992e-07
1.93331e-07
1.92805e-07
1.92542e-07
1.92442e-07
1.92327e-07
1.84237e-07
1.72593e-07
1.61721e-07
1.5227e-07
1.44492e-07
1.37777e-07
1.31584e-07
1.25853e-07
1.20545e-07
1.15612e-07
1.11217e-07
1.07497e-07
1.04289e-07
1.01294e-07
9.85217e-08
9.59597e-08
9.37061e-08
9.16292e-08
8.95538e-08
8.80995e-08
8.68599e-08
8.57916e-08
8.48423e-08
8.38446e-08
8.29119e-08
8.21175e-08
8.14568e-08
8.10535e-08
8.09592e-08
8.08615e-08
8.07104e-08
8.05872e-08
8.05394e-08
8.06098e-08
8.07981e-08
8.10853e-08
8.14684e-08
8.18797e-08
8.22983e-08
8.26685e-08
8.30952e-08
8.38855e-08
8.47965e-08
8.56476e-08
8.64969e-08
8.74227e-08
8.84252e-08
8.95456e-08
9.08102e-08
9.21047e-08
9.34315e-08
9.47311e-08
9.59088e-08
9.72899e-08
9.92446e-08
1.01412e-07
1.03638e-07
1.05621e-07
1.07331e-07
1.09331e-07
1.11742e-07
1.1453e-07
1.17555e-07
1.20169e-07
1.22801e-07
1.25655e-07
1.28524e-07
1.31627e-07
1.35352e-07
1.38985e-07
1.42702e-07
1.46422e-07
1.50592e-07
1.5518e-07
1.60012e-07
1.6454e-07
1.69215e-07
1.74254e-07
1.80472e-07
1.87165e-07
1.94126e-07
1.99928e-07
2.05341e-07
2.11036e-07
2.2147e-07
2.2556e-07
2.26588e-07
2.2752e-07
2.28674e-07
2.30087e-07
2.31873e-07
2.33211e-07
2.34644e-07
2.35907e-07
2.37376e-07
2.39112e-07
2.4068e-07
2.42454e-07
2.4364e-07
2.44764e-07
2.46156e-07
2.47854e-07
2.48946e-07
2.53114e-07
2.52426e-07
8.42081e-08
8.84651e-08
6.2107e-08
4.50859e-08
2.73676e-08
3.27944e-08
6.49536e-08
7.16331e-08
6.65069e-08
7.21538e-08
1.40422e-07
1.27397e-07
1.93168e-07
2.3485e-07
2.61357e-07
1.97839e-07
2.31053e-07
2.4389e-07
1.07979e-07
2.34525e-07
2.0859e-07
2.16975e-07
2.20706e-07
8.74466e-08
4.47368e-08
6.92584e-08
1.61036e-07
1.92716e-07
9.01144e-08
1.83128e-07
1.61959e-07
3.22319e-07
3.14988e-07
3.05001e-07
2.94746e-07
2.87872e-07
1.77962e-07
1.03645e-07
9.93754e-08
3.84648e-08
4.63851e-08
1.96392e-08
2.56492e-08
9.01644e-09
1.06502e-08
4.67643e-08
9.44266e-08
2.2702e-08
4.34301e-08
9.43037e-08
5.39434e-08
4.83567e-08
5.53403e-08
6.18356e-08
7.13656e-08
7.6393e-08
7.71291e-08
7.82748e-08
8.12703e-08
8.3814e-08
8.55658e-08
8.63612e-08
8.44209e-08
8.38895e-08
8.58472e-08
8.85003e-08
9.08454e-08
9.26307e-08
9.59394e-08
9.99939e-08
1.02837e-07
1.05356e-07
1.08753e-07
1.13374e-07
1.18012e-07
1.21995e-07
1.28856e-07
1.39392e-07
1.47237e-07
1.51517e-07
1.5583e-07
1.63308e-07
1.79238e-07
2.00085e-07
2.23925e-07
2.34794e-07
2.34798e-07
2.34534e-07
2.34022e-07
2.33453e-07
2.32909e-07
2.32351e-07
2.3184e-07
2.31408e-07
2.30934e-07
2.30251e-07
2.29319e-07
2.28263e-07
2.27275e-07
2.26524e-07
2.26066e-07
2.25846e-07
2.25746e-07
2.25656e-07
2.25503e-07
2.25258e-07
2.24951e-07
2.18846e-07
2.08717e-07
1.98656e-07
1.89261e-07
1.85014e-07
1.76719e-07
1.7884e-07
1.62641e-07
1.68381e-07
1.54853e-07
1.59659e-07
1.58938e-07
1.37458e-07
1.15514e-07
1.02838e-07
3.43454e-08
3.42402e-08
2.02504e-08
1.68077e-08
1.08807e-08
2.091e-08
3.69107e-09
3.95701e-08
3.42913e-08
1.62613e-08
8.00756e-09
7.11521e-09
6.66149e-09
6.92405e-09
7.24082e-09
1.53884e-08
1.28873e-08
1.16321e-08
1.56652e-08
2.31444e-08
4.18722e-08
6.28598e-08
5.67033e-08
5.73902e-08
6.69898e-08
8.70214e-08
1.21296e-07
1.76468e-07
2.61296e-07
3.68919e-07
4.77346e-07
5.77151e-07
6.40973e-07
6.5498e-07
6.72774e-07
6.99167e-07
6.94725e-07
6.82306e-07
6.95084e-07
7.05224e-07
6.88349e-07
6.38577e-07
5.82905e-07
5.17646e-07
4.2025e-07
3.32284e-07
2.87914e-07
2.7833e-07
2.80743e-07
2.70567e-07
1.822e-07
1.37157e-07
1.29396e-07
1.14485e-07
1.12523e-07
1.11125e-07
8.17507e-08
5.57208e-08
4.42795e-08
3.92292e-08
3.5667e-08
3.40895e-08
3.59188e-08
4.82824e-08
8.27087e-08
1.45198e-07
1.49873e-07
1.49397e-07
1.49044e-07
1.04972e-07
7.97824e-08
6.64662e-08
5.6654e-08
5.15007e-08
6.17583e-08
9.93609e-08
1.2857e-07
1.38311e-07
1.49106e-07
1.59594e-07
1.68969e-07
1.77828e-07
1.86942e-07
1.96825e-07
2.07825e-07
2.2003e-07
2.33534e-07
2.48252e-07
2.63842e-07
2.7925e-07
2.92038e-07
2.96454e-07
2.81319e-07
2.57938e-07
2.32309e-07
2.07123e-07
1.86385e-07
1.6461e-07
1.43734e-07
1.33304e-07
1.31155e-07
1.36147e-07
1.45922e-07
1.55025e-07
1.58019e-07
1.5538e-07
1.50693e-07
1.39948e-07
1.27599e-07
1.12421e-07
9.6811e-08
8.28638e-08
7.21753e-08
6.27559e-08
5.12959e-08
3.91837e-08
2.8843e-08
2.12425e-08
3.00863e-08
1.25161e-07
3.95161e-08
2.33846e-08
2.17454e-08
2.60067e-08
2.54237e-08
3.26771e-08
2.24457e-08
1.43117e-08
9.37069e-09
1.22943e-08
2.91829e-08
2.58376e-08
2.80888e-08
2.88044e-08
2.35044e-08
2.89806e-08
5.34379e-08
6.24493e-08
5.80367e-08
5.45973e-08
5.07615e-08
4.65331e-08
4.98074e-08
5.92405e-08
6.15237e-08
6.67778e-08
7.18208e-08
7.49397e-08
8.17391e-08
9.27599e-08
1.00738e-07
1.08421e-07
1.19128e-07
1.38205e-07
1.66655e-07
1.95902e-07
2.38186e-07
3.15236e-07
3.22532e-07
3.10827e-07
2.48826e-07
2.23676e-07
2.10727e-07
1.98602e-07
1.76873e-07
1.5171e-07
1.31994e-07
1.15602e-07
1.02766e-07
9.55515e-08
9.16734e-08
8.65625e-08
7.97838e-08
7.46376e-08
6.97463e-08
6.57298e-08
6.28773e-08
5.97091e-08
5.71027e-08
5.47383e-08
5.14276e-08
4.88271e-08
4.68753e-08
4.51921e-08
4.39712e-08
4.22807e-08
4.00517e-08
3.78628e-08
3.61114e-08
3.46875e-08
3.33221e-08
3.20986e-08
3.10715e-08
3.01086e-08
2.91593e-08
2.77833e-08
2.6173e-08
2.49013e-08
2.4102e-08
2.36829e-08
2.34787e-08
2.3048e-08
2.23455e-08
2.17752e-08
2.11977e-08
2.10088e-08
2.11583e-08
2.13337e-08
2.15816e-08
2.17536e-08
2.19528e-08
2.21428e-08
2.2556e-08
2.34611e-08
2.47333e-08
2.58759e-08
2.64715e-08
2.7392e-08
2.86799e-08
2.99445e-08
3.14606e-08
3.33172e-08
3.51191e-08
3.67157e-08
3.85233e-08
4.06651e-08
4.30925e-08
4.59816e-08
4.87773e-08
5.05583e-08
5.27509e-08
5.69503e-08
6.19168e-08
6.79493e-08
7.33802e-08
7.78693e-08
8.27985e-08
8.95565e-08
9.7989e-08
1.04853e-07
1.12548e-07
1.22934e-07
1.35016e-07
1.55334e-07
1.81842e-07
2.05318e-07
2.13064e-07
2.12361e-07
2.24066e-07
2.55767e-07
3.07264e-07
3.6539e-07
3.98181e-07
3.71079e-07
3.23395e-07
3.13086e-07
3.35236e-07
3.68668e-07
4.01387e-07
3.53701e-07
2.84315e-07
2.53958e-07
2.44458e-07
2.49675e-07
2.60193e-07
2.45942e-07
2.15489e-07
1.93426e-07
1.85065e-07
1.82533e-07
1.78075e-07
1.71654e-07
1.66128e-07
1.60591e-07
1.54684e-07
1.50443e-07
1.48373e-07
1.49395e-07
1.5049e-07
1.45308e-07
1.38676e-07
1.37335e-07
1.40515e-07
1.45694e-07
1.48805e-07
1.4822e-07
1.48272e-07
1.50127e-07
1.52344e-07
1.55734e-07
1.61427e-07
1.68917e-07
1.78555e-07
1.90682e-07
1.97721e-07
2.02165e-07
2.11076e-07
2.27413e-07
2.53802e-07
2.90249e-07
3.27661e-07
3.58153e-07
3.89256e-07
4.34418e-07
5.16801e-07
6.83346e-07
8.96267e-07
9.20775e-07
7.76409e-07
6.25233e-07
5.14681e-07
4.51441e-07
4.0075e-07
3.41052e-07
2.84763e-07
2.48309e-07
2.26584e-07
2.07556e-07
1.89811e-07
1.71838e-07
1.55763e-07
1.46263e-07
1.39122e-07
1.31253e-07
1.23478e-07
1.15869e-07
1.0937e-07
1.04411e-07
1.00215e-07
9.61584e-08
9.23091e-08
8.86056e-08
8.49544e-08
8.16262e-08
7.89581e-08
7.68051e-08
7.47961e-08
7.28128e-08
7.08301e-08
6.90776e-08
6.76838e-08
6.62927e-08
6.51362e-08
6.41685e-08
6.34328e-08
6.28188e-08
6.21138e-08
6.13559e-08
6.06964e-08
6.02182e-08
6.01849e-08
6.0473e-08
6.05558e-08
6.05482e-08
6.05808e-08
6.06402e-08
6.07871e-08
6.10791e-08
6.15639e-08
6.21773e-08
6.27528e-08
6.32822e-08
6.36851e-08
6.42228e-08
6.52578e-08
6.62634e-08
6.71326e-08
6.80383e-08
6.90301e-08
7.0253e-08
7.15928e-08
7.28909e-08
7.40374e-08
7.52201e-08
7.67977e-08
7.83958e-08
7.97369e-08
8.12532e-08
8.32318e-08
8.57019e-08
8.78029e-08
8.95209e-08
9.15057e-08
9.4178e-08
9.7177e-08
9.99974e-08
1.02357e-07
1.04701e-07
1.07327e-07
1.09948e-07
1.12951e-07
1.16951e-07
1.20895e-07
1.24147e-07
1.27466e-07
1.31096e-07
1.36392e-07
1.41024e-07
1.45375e-07
1.48858e-07
1.53777e-07
1.5949e-07
1.6793e-07
1.74798e-07
1.82075e-07
1.853e-07
1.89547e-07
1.95533e-07
2.09114e-07
2.18165e-07
2.31396e-07
2.31383e-07
2.19014e-07
2.24998e-07
2.19125e-07
2.50629e-07
2.76717e-07
3.45941e-07
2.96647e-07
2.09946e-07
2.39502e-07
2.14436e-07
3.61592e-07
2.75098e-07
3.30451e-07
7.39892e-08
7.40164e-08
5.17707e-08
3.80138e-08
2.35252e-08
2.89865e-08
5.53707e-08
5.31493e-08
6.39935e-08
8.65015e-08
1.35821e-07
1.29464e-07
1.64038e-07
2.51226e-07
1.69212e-07
2.12853e-07
1.92511e-07
1.10361e-07
1.04166e-07
2.27787e-07
2.12205e-07
2.69392e-07
6.95211e-07
7.76023e-08
4.24932e-08
8.26051e-08
1.5225e-07
1.78783e-07
9.46328e-08
2.46824e-07
1.92189e-07
2.94285e-07
4.21345e-07
6.54315e-07
1.62096e-07
1.62125e-07
1.37295e-07
1.05981e-07
8.90885e-08
3.98634e-08
4.17306e-08
1.59064e-08
2.05842e-08
7.58909e-09
8.82579e-09
3.39665e-08
4.71945e-08
2.47368e-08
2.73291e-08
1.46257e-08
2.43588e-08
2.08771e-07
5.94353e-08
4.09371e-08
3.89818e-08
4.33682e-08
5.07161e-08
5.86479e-08
6.28832e-08
6.43178e-08
6.83639e-08
7.26832e-08
7.39409e-08
7.36864e-08
7.12039e-08
6.95652e-08
7.13068e-08
7.39967e-08
7.45809e-08
7.53404e-08
7.79736e-08
8.09876e-08
8.26349e-08
8.38275e-08
8.72309e-08
9.27187e-08
9.76272e-08
1.0172e-07
1.03278e-07
1.07156e-07
1.14271e-07
1.21037e-07
1.29626e-07
1.43409e-07
1.58268e-07
1.68134e-07
1.74062e-07
1.80787e-07
1.9394e-07
2.16397e-07
2.44753e-07
2.86148e-07
3.25517e-07
3.75882e-07
4.58575e-07
5.0906e-07
5.08415e-07
5.33361e-07
5.68964e-07
5.3801e-07
4.49594e-07
3.71111e-07
3.2075e-07
2.89334e-07
2.67863e-07
2.5042e-07
2.34478e-07
2.1995e-07
2.0707e-07
1.95868e-07
1.85769e-07
1.76851e-07
1.70365e-07
1.64021e-07
1.62287e-07
1.51471e-07
1.52267e-07
1.36654e-07
1.45005e-07
1.34052e-07
1.37449e-07
1.35905e-07
1.17176e-07
9.70349e-08
8.76859e-08
2.81508e-08
2.84427e-08
1.66924e-08
1.386e-08
8.93758e-09
1.77831e-08
4.36374e-09
5.03376e-08
4.43904e-08
1.31395e-08
7.5811e-09
8.31957e-09
1.17591e-08
1.74226e-08
1.4992e-08
1.441e-08
2.2775e-08
2.89052e-08
5.61845e-08
1.07768e-07
1.05105e-07
9.43248e-08
8.87928e-08
9.48997e-08
1.11398e-07
1.41194e-07
1.87556e-07
2.48541e-07
3.141e-07
3.72525e-07
4.2778e-07
4.89754e-07
5.5071e-07
5.54414e-07
5.63931e-07
5.81432e-07
5.79585e-07
5.75882e-07
5.79396e-07
5.76683e-07
5.55165e-07
5.00273e-07
4.43648e-07
3.8034e-07
3.05e-07
2.42229e-07
2.07035e-07
1.92331e-07
1.86648e-07
1.78656e-07
1.26043e-07
8.4971e-08
7.39718e-08
7.00958e-08
7.36245e-08
7.58874e-08
5.71594e-08
3.77071e-08
2.76083e-08
2.26022e-08
2.07007e-08
2.30116e-08
2.92119e-08
4.00865e-08
5.10065e-08
5.76629e-08
8.09317e-08
1.10981e-07
1.0345e-07
9.11597e-08
7.29237e-08
5.13534e-08
3.85956e-08
3.03889e-08
2.83809e-08
3.68644e-08
6.24684e-08
1.05921e-07
1.26927e-07
1.32995e-07
1.40144e-07
1.32433e-07
1.58279e-07
1.69665e-07
1.8151e-07
1.93763e-07
2.05939e-07
2.17567e-07
2.28405e-07
2.38433e-07
2.4752e-07
2.55167e-07
2.60067e-07
2.60672e-07
2.55604e-07
2.4234e-07
2.14132e-07
1.87668e-07
1.67385e-07
1.51232e-07
1.3616e-07
1.21756e-07
1.16643e-07
1.17281e-07
1.2066e-07
1.22638e-07
1.20749e-07
1.15073e-07
1.0729e-07
9.91174e-08
9.06659e-08
8.34954e-08
6.08766e-08
4.32936e-08
3.32347e-08
3.38608e-08
4.51426e-08
3.41816e-08
3.23929e-08
2.74738e-08
2.01914e-08
2.26473e-08
4.68654e-08
3.25213e-08
1.79192e-08
1.38538e-08
1.74887e-08
1.71179e-08
2.22703e-08
1.44304e-08
9.53048e-09
6.37143e-09
8.70388e-09
2.19533e-08
2.03722e-08
2.31907e-08
2.4322e-08
2.18999e-08
2.78695e-08
5.25546e-08
5.92087e-08
6.31191e-08
5.01133e-08
4.51649e-08
4.20673e-08
4.72053e-08
6.20158e-08
6.62336e-08
6.93867e-08
7.28815e-08
7.53921e-08
8.20912e-08
9.59173e-08
1.08111e-07
1.21278e-07
1.35505e-07
1.60033e-07
1.96209e-07
2.08997e-07
1.75331e-07
1.54508e-07
1.56141e-07
1.54721e-07
1.41178e-07
1.25137e-07
1.10859e-07
9.8521e-08
8.77111e-08
7.97145e-08
7.52363e-08
7.15716e-08
6.62085e-08
6.07742e-08
5.71514e-08
5.40792e-08
5.08135e-08
4.78049e-08
4.56949e-08
4.37804e-08
4.17848e-08
3.95764e-08
3.78571e-08
3.64994e-08
3.51431e-08
3.38081e-08
3.2154e-08
3.02912e-08
2.90841e-08
2.85192e-08
2.7708e-08
2.67003e-08
2.55699e-08
2.44629e-08
2.37709e-08
2.3377e-08
2.28315e-08
2.1892e-08
2.10792e-08
2.03908e-08
1.98852e-08
1.98363e-08
1.99009e-08
1.97578e-08
1.94499e-08
1.89455e-08
1.86738e-08
1.89344e-08
1.94017e-08
1.97043e-08
1.96545e-08
1.95235e-08
1.97866e-08
2.04005e-08
2.13557e-08
2.24128e-08
2.30558e-08
2.33918e-08
2.41946e-08
2.56243e-08
2.70691e-08
2.85987e-08
3.05623e-08
3.21935e-08
3.33144e-08
3.46191e-08
3.66887e-08
3.97701e-08
4.32161e-08
4.62692e-08
4.7987e-08
4.92014e-08
5.21077e-08
5.62212e-08
6.24641e-08
6.98468e-08
7.5844e-08
8.03826e-08
8.47973e-08
9.06314e-08
9.88529e-08
1.09484e-07
1.19555e-07
1.31046e-07
1.52051e-07
1.7567e-07
1.90376e-07
1.9547e-07
2.04207e-07
2.31632e-07
2.80974e-07
3.47141e-07
4.02971e-07
4.1062e-07
3.53942e-07
3.10698e-07
3.15049e-07
3.61367e-07
4.16874e-07
4.22063e-07
3.46881e-07
2.7368e-07
2.47131e-07
2.45498e-07
2.55712e-07
2.52531e-07
2.21016e-07
1.97411e-07
1.86764e-07
1.81372e-07
1.79011e-07
1.74649e-07
1.64009e-07
1.5452e-07
1.49629e-07
1.45711e-07
1.43705e-07
1.44032e-07
1.45278e-07
1.43578e-07
1.37911e-07
1.32326e-07
1.30711e-07
1.31829e-07
1.36115e-07
1.41582e-07
1.44077e-07
1.44725e-07
1.42878e-07
1.4131e-07
1.43905e-07
1.51778e-07
1.63812e-07
1.73094e-07
1.79895e-07
1.84837e-07
1.88587e-07
1.96243e-07
2.13579e-07
2.39836e-07
2.66852e-07
2.94886e-07
3.22847e-07
3.51635e-07
3.83954e-07
4.20926e-07
5.00353e-07
6.23092e-07
6.45452e-07
5.39208e-07
4.53247e-07
4.26456e-07
4.0558e-07
3.56062e-07
2.97538e-07
2.54482e-07
2.30654e-07
2.12481e-07
1.9453e-07
1.76916e-07
1.60501e-07
1.48309e-07
1.40278e-07
1.33273e-07
1.25727e-07
1.17902e-07
1.10665e-07
1.05163e-07
1.00774e-07
9.67877e-08
9.28323e-08
8.91697e-08
8.58033e-08
8.24886e-08
7.93221e-08
7.65881e-08
7.46043e-08
7.30199e-08
7.12955e-08
6.92102e-08
6.71928e-08
6.59556e-08
6.50108e-08
6.40947e-08
6.31543e-08
6.22772e-08
6.15654e-08
6.07791e-08
5.99392e-08
5.93192e-08
5.90819e-08
5.92813e-08
5.94917e-08
5.94619e-08
5.94581e-08
5.9566e-08
5.96654e-08
5.96493e-08
5.97506e-08
6.02886e-08
6.10779e-08
6.16975e-08
6.21758e-08
6.2577e-08
6.32008e-08
6.42484e-08
6.51637e-08
6.59734e-08
6.68533e-08
6.78567e-08
6.90896e-08
7.03967e-08
7.16549e-08
7.28108e-08
7.39946e-08
7.56744e-08
7.75368e-08
7.8917e-08
8.00284e-08
8.17882e-08
8.42082e-08
8.64676e-08
8.84897e-08
9.06008e-08
9.31432e-08
9.58166e-08
9.82374e-08
1.00717e-07
1.03289e-07
1.05809e-07
1.08236e-07
1.10944e-07
1.15043e-07
1.19166e-07
1.2284e-07
1.25481e-07
1.29043e-07
1.34072e-07
1.3956e-07
1.43498e-07
1.47276e-07
1.51435e-07
1.57963e-07
1.64891e-07
1.71656e-07
1.78404e-07
1.86573e-07
1.90708e-07
2.00182e-07
2.04022e-07
2.10323e-07
2.21099e-07
2.47657e-07
2.57795e-07
3.45508e-07
2.63508e-07
1.9953e-07
1.86452e-07
1.81869e-07
1.99326e-07
2.86377e-07
3.01213e-07
3.60646e-07
6.9932e-08
6.93501e-08
4.847e-08
3.55544e-08
2.24317e-08
2.75967e-08
5.16737e-08
4.76893e-08
6.09478e-08
8.62283e-08
1.44435e-07
2.19097e-07
6.38932e-07
5.23838e-07
1.49401e-07
1.28495e-07
1.8838e-07
9.37376e-08
3.643e-07
2.71878e-07
1.47009e-07
5.87883e-07
2.24579e-07
9.35618e-08
4.41134e-08
9.09434e-08
1.43561e-07
1.76513e-07
1.07311e-07
1.44442e-07
1.48162e-07
3.43693e-07
1.83339e-07
2.42956e-07
1.30935e-07
1.34939e-07
6.43912e-08
7.66735e-08
1.26158e-07
5.6731e-08
5.30775e-08
1.64919e-08
2.17892e-08
7.59543e-09
8.58243e-09
2.85648e-08
4.158e-08
2.69048e-08
3.26123e-08
1.39694e-08
2.04829e-08
4.12351e-08
6.30176e-08
6.32403e-08
5.26656e-08
5.90668e-08
6.01735e-08
5.62887e-08
5.23996e-08
5.54863e-08
6.13763e-08
6.48331e-08
6.55032e-08
6.7558e-08
6.9845e-08
7.03425e-08
6.97668e-08
6.77589e-08
6.83322e-08
7.17491e-08
7.43177e-08
7.44092e-08
7.44256e-08
7.61661e-08
7.80256e-08
7.91621e-08
8.08599e-08
8.45316e-08
8.96947e-08
9.3467e-08
9.62497e-08
9.79796e-08
1.00241e-07
1.05031e-07
1.12973e-07
1.23562e-07
1.37292e-07
1.51405e-07
1.5798e-07
1.61981e-07
1.67338e-07
1.78591e-07
1.9854e-07
2.23299e-07
2.51265e-07
2.73495e-07
2.99983e-07
3.40223e-07
3.73778e-07
3.92816e-07
4.14252e-07
4.27962e-07
4.10894e-07
3.7263e-07
3.32716e-07
3.00035e-07
2.73666e-07
2.5149e-07
2.33309e-07
2.17954e-07
2.05579e-07
1.95778e-07
1.86278e-07
1.77463e-07
1.69996e-07
1.65158e-07
1.59437e-07
1.56736e-07
1.45357e-07
1.45708e-07
1.33643e-07
1.43205e-07
1.30249e-07
1.3191e-07
1.32549e-07
1.15617e-07
9.64785e-08
8.64372e-08
2.79689e-08
2.81149e-08
1.65561e-08
1.37403e-08
8.84375e-09
1.78568e-08
4.58622e-09
6.85459e-08
3.22523e-08
1.09133e-08
8.02213e-09
1.06804e-08
2.13395e-08
1.58232e-07
1.17568e-08
1.23959e-08
3.22022e-08
6.35035e-08
1.19492e-07
1.38711e-07
1.37037e-07
1.2828e-07
1.21801e-07
1.30038e-07
1.53079e-07
1.86324e-07
2.24483e-07
2.6297e-07
2.96661e-07
3.2701e-07
3.62306e-07
4.07153e-07
4.49976e-07
4.52747e-07
4.58058e-07
4.71444e-07
4.73848e-07
4.71876e-07
4.70677e-07
4.63475e-07
4.37467e-07
3.91245e-07
3.43685e-07
2.91492e-07
2.35905e-07
1.93098e-07
1.69315e-07
1.47545e-07
1.45764e-07
1.22471e-07
7.41212e-08
4.93214e-08
4.17272e-08
4.51228e-08
5.36476e-08
5.33319e-08
4.13986e-08
2.70687e-08
1.93503e-08
1.62125e-08
1.57498e-08
1.83259e-08
2.23845e-08
2.62129e-08
2.68105e-08
2.76109e-08
3.38258e-08
4.41162e-08
8.07096e-08
1.29339e-07
8.55454e-08
5.01479e-08
3.19851e-08
2.24124e-08
1.9068e-08
2.00762e-08
2.52694e-08
3.45106e-08
4.84392e-08
5.82112e-08
6.5667e-08
7.48286e-08
8.57252e-08
1.15596e-07
1.63553e-07
1.7209e-07
1.80651e-07
1.88835e-07
1.9625e-07
2.02561e-07
2.07515e-07
2.11121e-07
2.13552e-07
2.1495e-07
2.15344e-07
2.14064e-07
2.09828e-07
2.01852e-07
1.89495e-07
1.7218e-07
1.54486e-07
1.40599e-07
1.27793e-07
1.16432e-07
1.07793e-07
1.05217e-07
1.05292e-07
1.04716e-07
1.02289e-07
9.84617e-08
9.43862e-08
9.0921e-08
8.83254e-08
8.15377e-08
5.30361e-08
3.58906e-08
2.70147e-08
2.21639e-08
2.6444e-08
3.60593e-08
3.02759e-08
3.05613e-08
2.64617e-08
1.99337e-08
2.39403e-08
4.67843e-08
3.29715e-08
1.74532e-08
1.31155e-08
1.6539e-08
1.47248e-08
1.81623e-08
1.23334e-08
8.54645e-09
5.72331e-09
7.72232e-09
1.90926e-08
1.74383e-08
2.16165e-08
2.57604e-08
3.56424e-08
2.19862e-08
2.66211e-08
5.7982e-08
6.31257e-08
5.04507e-08
5.14727e-08
4.99111e-08
5.8199e-08
7.51363e-08
7.53222e-08
7.68677e-08
8.32155e-08
8.9437e-08
9.95314e-08
1.15693e-07
1.33509e-07
1.48828e-07
1.47419e-07
1.31063e-07
1.23389e-07
1.30051e-07
1.29964e-07
1.17846e-07
1.05633e-07
9.56979e-08
8.57688e-08
7.74883e-08
7.37856e-08
7.05497e-08
6.57506e-08
6.03993e-08
5.58622e-08
5.2083e-08
4.96932e-08
4.76324e-08
4.47182e-08
4.24838e-08
4.03451e-08
3.80969e-08
3.66554e-08
3.55957e-08
3.44585e-08
3.30926e-08
3.1347e-08
2.93988e-08
2.7918e-08
2.73504e-08
2.70091e-08
2.63135e-08
2.55443e-08
2.43499e-08
2.30805e-08
2.24536e-08
2.21374e-08
2.19482e-08
2.15366e-08
2.09571e-08
2.03687e-08
1.98014e-08
1.9514e-08
1.9579e-08
1.9881e-08
1.99715e-08
1.96917e-08
1.93482e-08
1.926e-08
1.94987e-08
1.97398e-08
1.97425e-08
1.97045e-08
2.00055e-08
2.06846e-08
2.14699e-08
2.20273e-08
2.23056e-08
2.26342e-08
2.34918e-08
2.49284e-08
2.62832e-08
2.77045e-08
2.94729e-08
3.08621e-08
3.20152e-08
3.3408e-08
3.54809e-08
3.83535e-08
4.14075e-08
4.4376e-08
4.68188e-08
4.85847e-08
5.11678e-08
5.47094e-08
5.89087e-08
6.51828e-08
7.24384e-08
7.83225e-08
8.34878e-08
8.91981e-08
9.76128e-08
1.08734e-07
1.18545e-07
1.26881e-07
1.43488e-07
1.67688e-07
1.83854e-07
1.97006e-07
2.1899e-07
2.50875e-07
3.06517e-07
3.78258e-07
4.16924e-07
3.92748e-07
3.56508e-07
3.51307e-07