/*--------------------------------*- C++ -*----------------------------------*\
| =========                 |                                                 |
| \\      /  F ield         | OpenFOAM: The Open Source CFD Toolbox           |
|  \\    /   O peration     | Version:  v2006                                 |
|   \\  /    A nd           | Website:  www.openfoam.com                      |
|    \\/     M anipulation  |                                                 |
\*---------------------------------------------------------------------------*/
FoamFile
{
    version     2.0;
    format      ascii;
    class       volScalarField;
    location    "8.7";
    object      p_rgh;
}
// * * * * * * * * * * * * * * * * * * * * * * * * * * * * * * * * * * * * * //

dimensions      [1 -1 -2 0 0 0 0];


internalField   nonuniform List<scalar> 
33000
(
7730.57
7735.48
7740.69
7745.76
7750.52
7755.35
7759.87
7763.99
7767.55
7770.56
7773.24
7775.74
7778.06
7780.21
7782.04
7783.76
7785.63
7787.48
7789.74
7792.01
7793.52
7794.28
7794.69
7794.92
7794.91
7794.62
7794.22
7793.82
7793.29
7792.85
7792.37
7791.7
7790.8
7789.54
7787.82
7785.73
7783.35
7780.72
7777.99
7775.03
7772
7768.85
7765.55
7762.15
7758.69
7755.09
7751.39
7747.59
7743.69
7739.7
7735.68
7731.55
7727.35
7723.09
7718.78
7714.43
7710.05
7705.63
7701.21
7696.78
7692.31
7687.84
7683.45
7679.08
7674.71
7670.35
7666.03
7661.77
7657.57
7653.42
7649.36
7645.37
7641.46
7637.63
7633.88
7630.34
7627.18
7624.5
7619.8
7612.49
7609.3
7604.05
7600.23
7595.52
7590.96
7586.38
7582.12
7577.81
7573.63
7569.6
7565.49
7561.53
7557.55
7553.86
7550.02
7546.49
7542.47
7538.53
7534.09
7529.83
7527.13
7523.6
7520.61
7517.74
7515.08
7512.76
7510.82
7508.88
7507.1
7505.48
7504.02
7502.74
7501.64
7500.96
7500.01
7499.55
7498.3
7497.98
7499.14
7499.53
7500.59
7501.79
7503.2
7505.05
7507.38
7509.9
7512.77
7515.85
7519.21
7522.87
7526.83
7531.04
7535.59
7540.34
7545.34
7550.57
7556.05
7561.78
7567.74
7573.92
7580.29
7586.89
7593.71
7600.73
7607.94
7615.29
7622.79
7630.43
7638.19
7646.1
7654.15
7662.24
7670.42
7678.64
7686.93
7695.27
7703.64
7712.03
7720.41
7728.78
7737.13
7745.46
7753.74
7761.98
7770.15
7778.24
7786.26
7794.2
7802.03
7809.76
7817.35
7824.83
7832.19
7839.43
7846.51
7853.43
7860.17
7866.75
7873.19
7879.47
7885.58
7891.52
7897.27
7902.82
7908.19
7913.37
7918.38
7923.21
7927.86
7932.32
7936.59
7940.68
7944.61
7948.37
7951.98
7955.42
7958.7
7961.83
7964.81
7967.66
7970.41
7973.05
7975.59
7978.04
7980.39
7982.68
7984.89
7987.06
7989.19
7991.26
7993.28
7995.25
7997.18
7999.05
8000.84
8002.57
8004.22
8005.8
8007.32
8008.78
8010.18
8011.5
8012.75
8013.93
8015.04
8016.1
8017.11
8018.06
8018.96
8019.8
8020.58
8021.31
8022.01
8022.67
8023.3
8023.89
8024.44
8024.96
8025.46
8025.93
8026.37
8026.8
8027.2
8027.6
8027.98
8028.34
8028.69
8029.02
8029.33
8029.65
8029.96
8030.25
8030.53
8030.79
8031.04
8031.28
8031.51
8031.72
8031.92
8032.1
8032.25
8032.39
8032.5
8032.59
8032.66
8032.69
8032.69
8032.65
8032.59
8032.5
8032.36
8032.18
8031.96
8031.69
8031.37
8031.01
8030.6
8030.13
8029.62
8029.05
8028.41
8027.73
8026.98
8026.17
8025.3
8024.37
8023.38
8022.33
8021.21
8020.02
8018.78
8017.47
8016.1
8014.67
8013.17
8011.62
8010
8008.33
8006.6
8004.81
8002.98
8001.08
7999.14
7997.15
7995.11
7993.04
7990.91
7988.75
7986.56
7984.32
7982.06
7979.77
7977.44
7975.1
7972.73
7970.35
7967.94
7965.53
7963.1
7960.66
7958.22
7955.77
7953.32
7950.87
7948.42
7945.98
7943.55
7941.12
7938.71
7936.31
7933.92
7931.55
7929.2
7926.87
7924.56
7922.28
7920.01
7917.77
7915.56
7913.37
7911.21
7909.08
7906.97
7904.9
7902.85
7900.84
7898.85
7896.89
7894.97
7893.07
7891.2
7889.36
7887.56
7885.78
7884.03
7882.31
7880.62
7878.96
7877.33
7875.73
7874.15
7872.6
7871.08
7869.59
7868.12
7866.68
7865.27
7863.88
7862.52
7861.18
7859.86
7858.57
7857.31
7856.07
7854.85
7853.66
7852.48
7851.33
7850.21
7849.1
7848.02
7846.96
7845.92
7844.91
7843.91
7842.94
7841.99
7841.06
7840.16
7839.28
7838.42
7837.58
7836.77
7835.98
7835.22
7834.48
7833.76
7833.06
7832.39
7831.74
7831.11
7830.5
7829.91
7829.35
7828.81
7828.29
7827.79
7827.31
7826.85
7826.41
7826
7825.6
7825.22
7824.86
7824.52
7824.19
7823.89
7823.6
7823.33
7823.07
7822.83
7822.6
7822.39
7822.2
7822.01
7821.82
7821.66
7821.51
7821.34
7821.27
7821.13
7820.93
7820.81
7820.66
7820.55
7820.44
7820.34
7820.25
7820.17
7820.09
7820.01
7819.95
7819.88
7819.79
7819.72
7819.66
7819.55
7819.55
7819.43
7819.2
7819.07
7818.88
7818.76
7818.59
7818.47
7818.3
7818.17
7818
7817.86
7817.69
7817.54
7817.36
7817.2
7817.02
7816.86
7816.66
7816.51
7816.26
7816.04
7815.97
7815.82
7815.65
7815.47
7815.29
7815.1
7814.91
7814.71
7814.52
7814.32
7814.12
7813.92
7813.72
7813.52
7813.32
7813.13
7812.93
7812.75
7812.56
7812.39
7812.22
7812.05
7811.9
7811.75
7811.61
7811.48
7811.36
7811.26
7811.16
7811.08
7811.01
7810.96
7810.91
7810.89
7810.87
7810.88
7810.89
7810.93
7810.98
7811.05
7811.13
7811.23
7811.35
7811.48
7811.64
7811.81
7812
7812.2
7812.43
7812.67
7812.93
7813.21
7813.51
7813.82
7814.16
7814.51
7814.88
7815.27
7815.68
7816.11
7816.55
7817.02
7817.5
7818
7818.53
7819.06
7819.62
7820.2
7820.79
7821.41
7822.04
7822.69
7823.36
7824.05
7824.76
7825.47
7826.26
7826.94
7827.88
7828.33
7829.9
7730.83
7735.82
7740.91
7745.79
7750.64
7755.35
7759.75
7763.79
7767.34
7770.4
7773.02
7775.64
7777.99
7780.01
7781.64
7783.2
7784.83
7786.86
7789.45
7792.11
7793.83
7794.72
7795.25
7795.4
7795.27
7794.88
7794.26
7793.62
7793.09
7792.6
7792.13
7791.54
7790.67
7789.45
7787.8
7785.75
7783.36
7780.7
7778.1
7775.21
7772.16
7768.95
7765.57
7762.15
7758.81
7755.25
7751.55
7747.71
7743.73
7739.74
7735.76
7731.69
7727.47
7723.2
7718.87
7714.5
7710.1
7705.66
7701.16
7696.6
7692.15
7687.7
7683.25
7678.85
7674.58
7670.22
7665.88
7661.59
7657.35
7653.14
7648.97
7644.81
7640.75
7636.84
7633.03
7629.32
7625.43
7621.58
7617.96
7614.76
7611.32
7605.6
7598.17
7595.01
7590
7586.64
7581.99
7578.53
7573.42
7569.28
7565.31
7561.22
7557.25
7553.35
7549.62
7545.83
7542.09
7538.11
7534.3
7529.77
7526.31
7522.11
7518.95
7517.86
7515.12
7513.09
7510.5
7508.57
7506.35
7504.8
7503.53
7502.35
7501.33
7500.51
7499.75
7499.23
7498.84
7498.55
7498.93
7498.26
7499.08
7501.38
7502.86
7504.9
7506.96
7509.32
7512.15
7515.4
7518.79
7522.47
7526.37
7530.58
7535.15
7539.96
7544.97
7550.22
7555.7
7561.44
7567.4
7573.58
7579.94
7586.56
7593.39
7600.41
7607.65
7615.04
7622.54
7630.16
7637.94
7645.89
7653.97
7662.08
7670.27
7678.5
7686.8
7695.15
7703.53
7711.95
7720.34
7728.73
7737.09
7745.43
7753.73
7761.99
7770.16
7778.25
7786.27
7794.25
7802.1
7809.82
7817.41
7824.89
7832.29
7839.54
7846.63
7853.56
7860.31
7866.87
7873.31
7879.58
7885.69
7891.66
7897.42
7902.98
7908.35
7913.51
7918.48
7923.33
7927.99
7932.46
7936.72
7940.8
7944.71
7948.46
7952.07
7955.52
7958.8
7961.93
7964.89
7967.74
7970.48
7973.13
7975.68
7978.13
7980.48
7982.75
7984.98
7987.15
7989.29
7991.36
7993.36
7995.33
7997.28
7999.15
8000.95
8002.68
8004.33
8005.89
8007.41
8008.87
8010.28
8011.61
8012.86
8014.03
8015.12
8016.18
8017.17
8018.13
8019.04
8019.87
8020.66
8021.37
8022.06
8022.72
8023.34
8023.94
8024.5
8025.01
8025.5
8025.97
8026.4
8026.8
8027.21
8027.6
8028
8028.36
8028.71
8029.03
8029.33
8029.65
8029.97
8030.27
8030.54
8030.81
8031.05
8031.29
8031.52
8031.74
8031.95
8032.13
8032.29
8032.42
8032.54
8032.64
8032.7
8032.74
8032.73
8032.7
8032.65
8032.56
8032.43
8032.25
8032.03
8031.77
8031.44
8031.09
8030.68
8030.23
8029.72
8029.15
8028.52
8027.83
8027.08
8026.27
8025.41
8024.49
8023.5
8022.45
8021.33
8020.15
8018.9
8017.6
8016.23
8014.8
8013.31
8011.75
8010.13
8008.46
8006.73
8004.94
8003.1
8001.21
7999.27
7997.27
7995.23
7993.15
7991.03
7988.86
7986.66
7984.43
7982.16
7979.86
7977.54
7975.19
7972.82
7970.43
7968.02
7965.6
7963.17
7960.73
7958.28
7955.83
7953.37
7950.92
7948.47
7946.02
7943.59
7941.16
7938.74
7936.34
7933.95
7931.58
7929.22
7926.89
7924.57
7922.28
7920.01
7917.77
7915.56
7913.37
7911.2
7909.07
7906.96
7904.88
7902.84
7900.82
7898.83
7896.87
7894.94
7893.04
7891.17
7889.33
7887.52
7885.74
7884
7882.28
7880.58
7878.92
7877.29
7875.69
7874.11
7872.56
7871.04
7869.54
7868.07
7866.63
7865.22
7863.83
7862.46
7861.12
7859.81
7858.52
7857.26
7856.01
7854.8
7853.6
7852.43
7851.28
7850.15
7849.05
7847.97
7846.91
7845.87
7844.85
7843.86
7842.88
7841.93
7841.01
7840.1
7839.22
7838.36
7837.53
7836.72
7835.93
7835.17
7834.43
7833.71
7833.01
7832.34
7831.69
7831.06
7830.45
7829.87
7829.3
7828.76
7828.24
7827.74
7827.27
7826.81
7826.37
7825.95
7825.55
7825.18
7824.82
7824.48
7824.15
7823.85
7823.56
7823.29
7823.03
7822.81
7822.58
7822.35
7822.15
7821.97
7821.78
7821.69
7821.54
7821.32
7821.18
7821.04
7820.89
7820.77
7820.63
7820.53
7820.41
7820.34
7820.23
7820.17
7820.08
7820.01
7819.93
7819.89
7819.8
7819.83
7819.73
7819.53
7819.43
7819.28
7819.14
7819.01
7818.87
7818.74
7818.59
7818.46
7818.31
7818.17
7818.01
7817.86
7817.7
7817.54
7817.39
7817.21
7817.05
7816.81
7816.58
7816.52
7816.37
7816.19
7816.03
7815.87
7815.7
7815.52
7815.34
7815.15
7814.96
7814.76
7814.56
7814.36
7814.15
7813.95
7813.74
7813.54
7813.34
7813.14
7812.95
7812.75
7812.57
7812.39
7812.21
7812.05
7811.89
7811.74
7811.59
7811.46
7811.34
7811.23
7811.14
7811.05
7810.98
7810.93
7810.88
7810.85
7810.84
7810.84
7810.86
7810.89
7810.94
7811.01
7811.09
7811.19
7811.31
7811.44
7811.6
7811.77
7811.95
7812.16
7812.38
7812.63
7812.89
7813.16
7813.46
7813.78
7814.11
7814.46
7814.84
7815.23
7815.64
7816.06
7816.51
7816.97
7817.46
7817.96
7818.48
7819.02
7819.58
7820.15
7820.75
7821.36
7822
7822.65
7823.32
7824.01
7824.71
7825.42
7826.21
7826.9
7827.83
7828.29
7829.85
7731.8
7736.84
7741.96
7746.94
7751.85
7756.38
7760.6
7764.48
7767.97
7770.87
7773.72
7776.5
7779.09
7780.89
7782.14
7783.35
7784.93
7787.13
7789.63
7792.14
7794.17
7795.57
7796.35
7796.58
7796.36
7795.78
7794.89
7793.94
7793.26
7792.69
7792.02
7791.27
7790.36
7789.13
7787.57
7785.6
7783.14
7780.68
7778.28
7775.46
7772.44
7769.15
7765.69
7762.32
7759.01
7755.56
7751.85
7747.97
7743.9
7739.88
7735.84
7731.89
7727.7
7723.4
7719.05
7714.64
7710.09
7705.49
7701.03
7696.6
7692.25
7687.78
7683.11
7678.52
7674.09
7669.67
7665.49
7661.28
7657
7652.74
7648.47
7644.16
7640.01
7635.98
7632.13
7628.25
7624.26
7620.21
7616
7611.73
7607.83
7604.18
7601.03
7597.33
7591.47
7583.95
7581.38
7576.81
7572.88
7569.29
7565.11
7560.88
7556.6
7553.21
7549.21
7545.48
7541.48
7537.73
7533.89
7530.45
7527.29
7524.02
7519.71
7516.78
7512.65
7510.32
7510.36
7508.42
7506.72
7504.78
7503.07
7501.5
7500.45
7499.98
7499.28
7498.82
7498.46
7498.39
7498.81
7499.49
7499.99
7501.01
7500.95
7502.63
7506.16
7508.75
7511.74
7514.67
7517.77
7521.35
7525.52
7529.85
7534.52
7539.22
7544.18
7549.3
7554.79
7560.64
7566.66
7572.88
7579.25
7585.88
7592.74
7599.82
7607.12
7614.5
7621.96
7629.64
7637.48
7645.52
7653.61
7661.73
7669.87
7678.15
7686.6
7695
7703.38
7711.73
7720.13
7728.54
7736.97
7745.4
7753.73
7762.01
7770.18
7778.26
7786.31
7794.32
7802.22
7809.94
7817.54
7825.05
7832.44
7839.74
7846.86
7853.81
7860.58
7867.14
7873.56
7879.84
7885.94
7891.93
7897.72
7903.28
7908.65
7913.79
7918.75
7923.56
7928.23
7932.72
7937
7941.08
7944.95
7948.68
7952.25
7955.72
7959.02
7962.14
7965.1
7967.94
7970.69
7973.36
7975.9
7978.34
7980.68
7982.97
7985.2
7987.39
7989.52
7991.58
7993.56
7995.54
7997.49
7999.38
8001.17
8002.9
8004.55
8006.1
8007.61
8009.06
8010.48
8011.81
8013.06
8014.23
8015.31
8016.35
8017.34
8018.29
8019.2
8020.02
8020.8
8021.49
8022.17
8022.84
8023.47
8024.05
8024.59
8025.1
8025.57
8025.99
8026.43
8026.85
8027.28
8027.68
8028.05
8028.4
8028.74
8029.04
8029.35
8029.67
8030
8030.3
8030.58
8030.84
8031.08
8031.33
8031.58
8031.8
8031.99
8032.15
8032.33
8032.49
8032.62
8032.72
8032.79
8032.83
8032.82
8032.8
8032.76
8032.69
8032.56
8032.39
8032.18
8031.93
8031.61
8031.25
8030.85
8030.4
8029.91
8029.35
8028.73
8028.05
8027.3
8026.5
8025.64
8024.73
8023.75
8022.7
8021.59
8020.41
8019.16
8017.86
8016.49
8015.06
8013.57
8012.01
8010.4
8008.73
8006.99
8005.19
8003.35
8001.46
7999.51
7997.52
7995.47
7993.38
7991.25
7989.09
7986.88
7984.63
7982.36
7980.06
7977.72
7975.37
7972.98
7970.59
7968.17
7965.75
7963.31
7960.86
7958.4
7955.94
7953.48
7951.02
7948.56
7946.11
7943.67
7941.23
7938.81
7936.39
7934
7931.62
7929.25
7926.91
7924.59
7922.29
7920.02
7917.78
7915.55
7913.36
7911.19
7909.05
7906.93
7904.85
7902.8
7900.78
7898.78
7896.82
7894.89
7892.98
7891.11
7889.27
7887.45
7885.67
7883.92
7882.2
7880.5
7878.84
7877.2
7875.6
7874.02
7872.47
7870.94
7869.45
7867.98
7866.53
7865.12
7863.73
7862.36
7861.02
7859.7
7858.42
7857.15
7855.91
7854.69
7853.49
7852.32
7851.17
7850.04
7848.94
7847.86
7846.8
7845.76
7844.74
7843.75
7842.77
7841.83
7840.9
7840
7839.12
7838.26
7837.42
7836.61
7835.83
7835.06
7834.32
7833.6
7832.91
7832.23
7831.58
7830.95
7830.35
7829.77
7829.2
7828.66
7828.14
7827.64
7827.17
7826.71
7826.28
7825.86
7825.47
7825.09
7824.73
7824.39
7824.08
7823.77
7823.5
7823.23
7822.96
7822.72
7822.5
7822.28
7822.16
7821.99
7821.73
7821.57
7821.4
7821.25
7821.11
7820.98
7820.84
7820.73
7820.6
7820.51
7820.4
7820.29
7820.21
7820.11
7820.08
7819.99
7820.03
7819.94
7819.75
7819.67
7819.55
7819.46
7819.35
7819.25
7819.1
7819
7818.85
7818.75
7818.58
7818.47
7818.31
7818.18
7818.03
7817.9
7817.73
7817.59
7817.35
7817.13
7817.07
7816.91
7816.73
7816.56
7816.4
7816.23
7816.06
7815.89
7815.7
7815.52
7815.33
7815.15
7814.95
7814.74
7814.54
7814.33
7814.13
7813.92
7813.71
7813.51
7813.31
7813.1
7812.9
7812.71
7812.52
7812.34
7812.16
7811.99
7811.83
7811.68
7811.54
7811.4
7811.28
7811.17
7811.07
7810.99
7810.91
7810.85
7810.81
7810.78
7810.76
7810.76
7810.77
7810.81
7810.86
7810.92
7811
7811.1
7811.22
7811.35
7811.5
7811.67
7811.86
7812.07
7812.29
7812.53
7812.79
7813.07
7813.37
7813.69
7814.02
7814.37
7814.74
7815.13
7815.54
7815.97
7816.42
7816.88
7817.36
7817.87
7818.39
7818.93
7819.48
7820.06
7820.66
7821.27
7821.9
7822.55
7823.22
7823.92
7824.62
7825.33
7826.12
7826.81
7827.73
7828.19
7829.76
7733.48
7738.54
7743.66
7748.72
7753.49
7757.96
7762.12
7766.02
7769.54
7772.31
7775.4
7778.53
7781.09
7783.02
7784.47
7785.79
7787.6
7789.69
7791.87
7794.01
7795.82
7797.1
7797.83
7798.03
7797.8
7797.21
7796.26
7795.42
7794.66
7793.9
7793.04
7792.06
7790.92
7789.54
7787.79
7785.54
7783.35
7781.08
7778.74
7775.96
7772.97
7769.72
7766.18
7762.69
7759.59
7756.05
7752.32
7748.42
7744.25
7740.15
7736.09
7732.21
7728.01
7723.68
7719.29
7714.83
7710.26
7705.57
7701.03
7696.75
7692.25
7687.71
7683.05
7678.24
7673.71
7669.25
7664.81
7660.71
7656.54
7652.24
7647.94
7643.64
7639.27
7634.99
7631.09
7627.06
7623
7618.85
7614.59
7610.3
7605.99
7601.67
7597.36
7593.36
7589.53
7585.96
7583.21
7579.99
7573.97
7566.74
7564.29
7559.6
7556.63
7552.38
7548.69
7544.44
7541.1
7537.15
7533.58
7529.96
7526.55
7522.96
7520.08
7517.75
7514.95
7512.53
7509.43
7506.91
7503.26
7501.67
7502.27
7501.06
7500.1
7499.1
7498.14
7497.72
7497.78
7497.78
7498.13
7498.54
7499.43
7500.67
7502.15
7503.41
7505.5
7506.24
7508.82
7513.34
7516.6
7520.51
7524.38
7528.55
7533.07
7538.04
7543.06
7548.31
7553.79
7559.53
7565.56
7571.85
7578.33
7584.92
7591.82
7599.01
7606.28
7613.63
7621.16
7628.91
7636.82
7644.95
7653.06
7661.15
7669.37
7677.71
7686.21
7694.69
7703.11
7711.49
7719.92
7728.38
7736.81
7745.27
7753.71
7762.02
7770.2
7778.32
7786.41
7794.41
7802.39
7810.18
7817.77
7825.31
7832.71
7840.01
7847.21
7854.18
7860.97
7867.54
7873.95
7880.24
7886.37
7892.4
7898.17
7903.73
7909.09
7914.22
7919.16
7923.96
7928.59
7933.11
7937.41
7941.49
7945.38
7949.05
7952.6
7956.02
7959.36
7962.5
7965.49
7968.31
7971.03
7973.66
7976.24
7978.7
7981.04
7983.35
7985.61
7987.78
7989.89
7991.9
7993.91
7995.88
7997.84
7999.73
8001.53
8003.24
8004.86
8006.4
8007.92
8009.39
8010.81
8012.12
8013.35
8014.52
8015.63
8016.62
8017.58
8018.5
8019.39
8020.24
8021.01
8021.7
8022.34
8023
8023.64
8024.21
8024.73
8025.2
8025.63
8026.08
8026.51
8026.97
8027.38
8027.75
8028.11
8028.43
8028.74
8029.07
8029.4
8029.75
8030.06
8030.34
8030.57
8030.85
8031.15
8031.41
8031.65
8031.87
8032.04
8032.22
8032.4
8032.59
8032.73
8032.84
8032.92
8032.97
8032.98
8032.96
8032.93
8032.87
8032.76
8032.6
8032.38
8032.14
8031.87
8031.54
8031.14
8030.68
8030.17
8029.63
8029.04
8028.38
8027.63
8026.84
8026
8025.09
8024.11
8023.05
8021.95
8020.79
8019.56
8018.26
8016.89
8015.45
8013.95
8012.4
8010.8
8009.12
8007.38
8005.58
8003.73
8001.83
7999.89
7997.88
7995.81
7993.72
7991.59
7989.42
7987.2
7984.93
7982.65
7980.35
7978
7975.63
7973.23
7970.82
7968.41
7965.97
7963.52
7961.05
7958.58
7956.11
7953.64
7951.17
7948.7
7946.24
7943.78
7941.33
7938.89
7936.47
7934.07
7931.68
7929.3
7926.95
7924.62
7922.31
7920.03
7917.77
7915.54
7913.34
7911.16
7909.01
7906.89
7904.8
7902.74
7900.71
7898.71
7896.74
7894.8
7892.89
7891.01
7889.16
7887.35
7885.56
7883.8
7882.08
7880.38
7878.71
7877.07
7875.46
7873.88
7872.32
7870.8
7869.3
7867.83
7866.38
7864.96
7863.57
7862.2
7860.86
7859.54
7858.25
7856.99
7855.74
7854.53
7853.33
7852.15
7851
7849.88
7848.77
7847.69
7846.63
7845.59
7844.57
7843.58
7842.61
7841.66
7840.73
7839.83
7838.95
7838.09
7837.26
7836.45
7835.67
7834.9
7834.16
7833.45
7832.75
7832.08
7831.43
7830.8
7830.2
7829.62
7829.06
7828.52
7828.01
7827.51
7827.03
7826.58
7826.14
7825.73
7825.33
7824.97
7824.6
7824.29
7823.96
7823.65
7823.36
7823.1
7822.83
7822.68
7822.47
7822.17
7821.99
7821.79
7821.62
7821.46
7821.3
7821.15
7821.01
7820.88
7820.75
7820.65
7820.51
7820.43
7820.31
7820.27
7820.16
7820.2
7820.1
7819.94
7819.85
7819.76
7819.68
7819.59
7819.5
7819.39
7819.3
7819.18
7819.08
7818.96
7818.84
7818.71
7818.61
7818.48
7818.36
7818.21
7818.08
7817.87
7817.66
7817.62
7817.48
7817.31
7817.15
7817
7816.83
7816.66
7816.49
7816.32
7816.14
7815.96
7815.78
7815.58
7815.39
7815.19
7814.98
7814.78
7814.57
7814.35
7814.14
7813.93
7813.72
7813.5
7813.29
7813.08
7812.88
7812.68
7812.48
7812.3
7812.11
7811.94
7811.77
7811.61
7811.46
7811.33
7811.2
7811.08
7810.98
7810.89
7810.81
7810.75
7810.7
7810.67
7810.65
7810.65
7810.66
7810.69
7810.73
7810.8
7810.88
7810.97
7811.09
7811.22
7811.37
7811.54
7811.73
7811.93
7812.16
7812.4
7812.66
7812.94
7813.23
7813.55
7813.88
7814.24
7814.61
7815
7815.41
7815.83
7816.28
7816.74
7817.23
7817.73
7818.25
7818.79
7819.35
7819.92
7820.52
7821.13
7821.76
7822.41
7823.08
7823.78
7824.48
7825.19
7825.98
7826.66
7827.59
7828.05
7829.62
7735.83
7740.9
7746.03
7751.13
7755.86
7760.31
7764.44
7768.34
7771.93
7774.61
7777.9
7781.17
7783.86
7786.04
7787.85
7789.53
7791.2
7792.95
7794.7
7796.35
7797.75
7798.75
7799.4
7799.67
7799.5
7798.9
7798.24
7797.45
7796.76
7795.79
7794.68
7793.46
7792.04
7790.28
7788.14
7786.15
7784.01
7782.04
7779.54
7776.72
7773.73
7770.53
7767.12
7763.65
7760.31
7756.7
7752.92
7749.01
7744.86
7740.57
7736.63
7732.64
7728.37
7724
7719.54
7715.02
7710.46
7705.88
7701.31
7696.75
7692.16
7687.56
7682.91
7678.04
7673.21
7668.72
7664.22
7660
7655.94
7651.57
7647.2
7642.84
7638.49
7634.15
7629.85
7625.69
7621.54
7617.38
7613.23
7609.05
7604.73
7600.12
7595.66
7591.4
7587.4
7583.76
7580.08
7576.49
7573.23
7570.5
7566.73
7560.36
7553.55
7551.75
7547.59
7544.97
7540.47
7536.57
7532.67
7529.79
7526.37
7523.32
7520.05
7517.1
7514.16
7511.72
7510.02
7507.7
7506.39
7503.09
7501.24
7497.86
7496.71
7498.41
7497.65
7497.11
7496.76
7496.58
7496.96
7497.93
7498.75
7499.9
7501.02
7502.74
7505.16
7507.69
7509.73
7512.4
7513.62
7517.03
7522.9
7527.25
7532.17
7536.7
7541.62
7546.48
7551.88
7557.88
7563.94
7570.34
7576.99
7583.74
7590.69
7597.86
7605.07
7612.44
7620.11
7627.94
7636.08
7644.18
7652.23
7660.39
7668.73
7677.14
7685.75
7694.27
7702.78
7711.23
7719.65
7728.16
7736.65
7745.22
7753.69
7762.04
7770.23
7778.41
7786.55
7794.6
7802.65
7810.51
7818.14
7825.66
7833.1
7840.43
7847.68
7854.68
7861.49
7868.04
7874.48
7880.79
7887.03
7893.02
7898.77
7904.33
7909.7
7914.83
7919.74
7924.53
7929.14
7933.62
7937.97
7942.05
7945.95
7949.66
7953.15
7956.55
7959.88
7963.04
7966.03
7968.89
7971.56
7974.18
7976.72
7979.21
7981.66
7983.96
7986.19
7988.34
7990.38
7992.42
7994.43
7996.44
7998.4
8000.25
8002.02
8003.68
8005.27
8006.85
8008.4
8009.89
8011.24
8012.48
8013.69
8014.87
8016.01
8017.05
8018.01
8018.88
8019.66
8020.45
8021.2
8021.9
8022.62
8023.28
8023.86
8024.41
8024.91
8025.32
8025.76
8026.2
8026.66
8027.1
8027.48
8027.83
8028.13
8028.46
8028.79
8029.13
8029.5
8029.82
8030.12
8030.37
8030.61
8030.89
8031.18
8031.48
8031.73
8031.94
8032.11
8032.31
8032.52
8032.72
8032.87
8032.99
8033.09
8033.16
8033.19
8033.16
8033.16
8033.12
8033.02
8032.86
8032.67
8032.44
8032.2
8031.88
8031.51
8031.07
8030.56
8030.02
8029.43
8028.8
8028.11
8027.33
8026.49
8025.55
8024.57
8023.54
8022.45
8021.31
8020.09
8018.79
8017.41
8015.97
8014.48
8012.93
8011.33
8009.65
8007.91
8006.1
8004.24
8002.34
8000.38
7998.35
7996.28
7994.18
7992.04
7989.86
7987.62
7985.35
7983.05
7980.73
7978.38
7975.98
7973.57
7971.14
7968.71
7966.26
7963.79
7961.31
7958.82
7956.33
7953.85
7951.36
7948.87
7946.39
7943.92
7941.45
7939
7936.57
7934.15
7931.75
7929.37
7926.99
7924.65
7922.33
7920.04
7917.78
7915.53
7913.32
7911.13
7908.96
7906.82
7904.72
7902.66
7900.62
7898.61
7896.64
7894.69
7892.77
7890.88
7889.02
7887.2
7885.41
7883.65
7881.91
7880.21
7878.53
7876.89
7875.28
7873.69
7872.13
7870.6
7869.1
7867.63
7866.18
7864.76
7863.36
7861.99
7860.65
7859.33
7858.03
7856.76
7855.53
7854.31
7853.11
7851.93
7850.78
7849.66
7848.55
7847.47
7846.41
7845.36
7844.35
7843.35
7842.38
7841.44
7840.51
7839.61
7838.73
7837.88
7837.04
7836.24
7835.45
7834.68
7833.95
7833.24
7832.54
7831.87
7831.22
7830.6
7829.99
7829.42
7828.86
7828.33
7827.82
7827.31
7826.84
7826.38
7825.96
7825.55
7825.18
7824.8
7824.44
7824.1
7823.78
7823.48
7823.27
7823.03
7822.7
7822.47
7822.24
7822.04
7821.85
7821.67
7821.48
7821.33
7821.17
7821.04
7820.9
7820.78
7820.65
7820.57
7820.46
7820.45
7820.35
7820.16
7820.09
7819.95
7819.91
7819.81
7819.76
7819.67
7819.59
7819.51
7819.42
7819.34
7819.24
7819.15
7819.04
7818.96
7818.84
7818.75
7818.63
7818.52
7818.33
7818.16
7818.11
7817.99
7817.84
7817.69
7817.54
7817.39
7817.24
7817.08
7816.91
7816.74
7816.56
7816.39
7816.21
7816.02
7815.83
7815.63
7815.43
7815.22
7815.01
7814.79
7814.58
7814.36
7814.14
7813.92
7813.7
7813.48
7813.26
7813.05
7812.83
7812.63
7812.43
7812.23
7812.04
7811.85
7811.68
7811.52
7811.36
7811.22
7811.09
7810.96
7810.85
7810.76
7810.68
7810.61
7810.56
7810.52
7810.5
7810.49
7810.5
7810.52
7810.57
7810.63
7810.71
7810.8
7810.92
7811.05
7811.2
7811.36
7811.55
7811.75
7811.98
7812.22
7812.48
7812.75
7813.05
7813.37
7813.7
7814.05
7814.42
7814.81
7815.22
7815.65
7816.09
7816.56
7817.04
7817.54
7818.06
7818.6
7819.16
7819.74
7820.33
7820.95
7821.58
7822.23
7822.9
7823.59
7824.29
7825.01
7825.79
7826.48
7827.41
7827.86
7829.43
7738.84
7743.93
7749.07
7754.16
7758.92
7763.41
7767.54
7771.41
7775.03
7777.71
7781.02
7784.36
7787.15
7789.49
7791.5
7793.3
7794.95
7796.5
7797.94
7799.23
7800.32
7801.15
7801.68
7801.88
7801.65
7801.09
7800.5
7799.87
7799.1
7798
7796.72
7795.21
7793.3
7791.17
7789.4
7787.36
7785.57
7783.31
7780.65
7777.79
7774.75
7771.55
7768.21
7764.76
7761.2
7757.51
7753.67
7749.72
7745.64
7741.44
7737.21
7733.03
7728.73
7724.31
7719.8
7715.23
7710.62
7706
7701.36
7696.7
7692.03
7687.36
7682.69
7677.94
7672.87
7668.08
7663.52
7659.39
7655.25
7650.79
7646.32
7641.87
7637.45
7633.05
7628.64
7624.09
7619.61
7615.59
7611.55
7607.31
7603.06
7598.67
7594.2
7590.14
7586.39
7582.3
7578.21
7574.24
7570.32
7566.32
7562.82
7559.76
7557.42
7553.88
7547.29
7540.88
7539.74
7535.46
7533.1
7528.76
7525.25
7521.98
7519.68
7516.75
7513.86
7511.27
7508.85
7506.76
7504.51
7502.95
7501.76
7500.69
7497.93
7496.6
7493.54
7492.95
7495.8
7496
7496.23
7496.57
7497.13
7498.34
7500.14
7501.81
7503.99
7506.13
7508.79
7511.9
7515.09
7517.89
7521.52
7523.65
7528.11
7534.73
7539.89
7545.42
7550.82
7556.36
7562.01
7568.39
7575.32
7582.15
7589.23
7596.39
7603.63
7611.03
7618.81
7626.85
7635.05
7643.19
7651.36
7659.54
7667.93
7676.51
7685.18
7693.74
7702.32
7710.9
7719.37
7727.89
7736.51
7745.16
7753.65
7762.08
7770.38
7778.55
7786.73
7794.94
7803.01
7810.89
7818.62
7826.14
7833.59
7841.08
7848.29
7855.31
7862.13
7868.69
7875.15
7881.59
7887.83
7893.78
7899.53
7905.08
7910.44
7915.64
7920.59
7925.3
7929.89
7934.3
7938.67
7942.79
7946.7
7950.44
7953.99
7957.36
7960.58
7963.69
7966.7
7969.58
7972.34
7974.95
7977.55
7980.06
7982.46
7984.75
7986.95
7989.01
7991.1
7993.15
7995.21
7997.22
7999.11
8000.93
8002.66
8004.26
8005.89
8007.47
8009.04
8010.47
8011.79
8013
8014.21
8015.36
8016.49
8017.51
8018.46
8019.34
8020.13
8020.83
8021.55
8022.22
8022.91
8023.57
8024.14
8024.66
8025.15
8025.56
8025.93
8026.39
8026.85
8027.25
8027.6
8027.87
8028.2
8028.53
8028.9
8029.27
8029.59
8029.89
8030.18
8030.4
8030.67
8030.95
8031.28
8031.57
8031.82
8032.03
8032.22
8032.44
8032.69
8032.88
8033.04
8033.17
8033.25
8033.35
8033.43
8033.47
8033.47
8033.43
8033.33
8033.18
8033.03
8032.85
8032.61
8032.32
8031.96
8031.56
8031.06
8030.53
8029.96
8029.36
8028.67
8027.92
8027.09
8026.16
8025.19
8024.18
8023.12
8021.97
8020.75
8019.44
8018.05
8016.63
8015.17
8013.62
8012
8010.31
8008.57
8006.75
8004.89
8002.98
8001.01
7998.98
7996.89
7994.78
7992.63
7990.42
7988.16
7985.87
7983.56
7981.22
7978.84
7976.44
7974
7971.56
7969.11
7966.63
7964.14
7961.63
7959.13
7956.62
7954.11
7951.6
7949.1
7946.6
7944.11
7941.62
7939.15
7936.69
7934.26
7931.85
7929.44
7927.05
7924.69
7922.36
7920.06
7917.77
7915.51
7913.28
7911.07
7908.89
7906.74
7904.63
7902.56
7900.51
7898.49
7896.5
7894.54
7892.61
7890.71
7888.84
7887.01
7885.22
7883.45
7881.7
7879.99
7878.31
7876.66
7875.04
7873.45
7871.89
7870.35
7868.85
7867.37
7865.92
7864.49
7863.1
7861.72
7860.38
7859.05
7857.76
7856.49
7855.25
7854.02
7852.82
7851.65
7850.5
7849.37
7848.26
7847.18
7846.12
7845.08
7844.06
7843.06
7842.1
7841.15
7840.23
7839.32
7838.45
7837.6
7836.77
7835.96
7835.17
7834.42
7833.69
7832.97
7832.29
7831.61
7830.97
7830.34
7829.75
7829.18
7828.62
7828.09
7827.58
7827.09
7826.63
7826.18
7825.73
7825.34
7824.92
7824.58
7824.2
7823.96
7823.65
7823.28
7823.01
7822.74
7822.5
7822.28
7822.06
7821.84
7821.66
7821.47
7821.32
7821.16
7821
7820.87
7820.75
7820.64
7820.59
7820.5
7820.29
7820.22
7820.09
7820.04
7819.93
7819.89
7819.8
7819.73
7819.65
7819.58
7819.51
7819.44
7819.36
7819.28
7819.22
7819.13
7819.04
7818.96
7818.8
7818.68
7818.66
7818.57
7818.46
7818.32
7818.2
7818.07
7817.94
7817.8
7817.65
7817.5
7817.35
7817.19
7817.02
7816.85
7816.67
7816.49
7816.3
7816.1
7815.9
7815.7
7815.49
7815.27
7815.05
7814.83
7814.61
7814.38
7814.15
7813.92
7813.69
7813.46
7813.23
7813
7812.78
7812.56
7812.35
7812.15
7811.95
7811.76
7811.57
7811.4
7811.24
7811.08
7810.94
7810.81
7810.7
7810.6
7810.51
7810.43
7810.38
7810.33
7810.31
7810.29
7810.3
7810.32
7810.36
7810.42
7810.49
7810.59
7810.7
7810.83
7810.98
7811.14
7811.33
7811.53
7811.75
7811.99
7812.25
7812.53
7812.82
7813.14
7813.47
7813.82
7814.19
7814.58
7814.99
7815.42
7815.86
7816.33
7816.81
7817.31
7817.83
7818.37
7818.93
7819.51
7820.1
7820.71
7821.35
7822
7822.67
7823.36
7824.06
7824.77
7825.56
7826.25
7827.18
7827.63
7829.2
7742.52
7747.63
7752.79
7757.86
7762.65
7767.15
7771.29
7775.18
7778.83
7781.79
7784.97
7788.27
7791.04
7793.39
7795.45
7797.26
7798.87
7800.31
7801.58
7802.67
7803.55
7804.2
7804.59
7804.71
7804.48
7803.87
7803.26
7802.68
7801.73
7800.54
7799.16
7797.46
7795.17
7793.07
7791.27
7789.55
7787.4
7784.85
7782.1
7779.16
7776.05
7772.81
7769.42
7765.89
7762.24
7758.48
7754.57
7750.54
7746.4
7742.17
7737.73
7733.15
7728.79
7724.61
7720.06
7715.42
7710.76
7706.06
7701.35
7696.63
7691.89
7687.14
7682.39
7677.66
7672.84
7667.76
7662.7
7658.59
7654.37
7649.84
7645.29
7640.75
7636.23
7631.71
7627.11
7622.36
7617.89
7613.59
7609.68
7605.51
7601.21
7596.93
7592.73
7588.61
7584.55
7580.51
7576.45
7572.19
7568.07
7564.35
7560.91
7557.31
7553.65
7550.34
7547.46
7545.22
7541.18
7534.17
7528.26
7528.44
7524.44
7522.53
7518.63
7515.04
7512.15
7510.74
7508.85
7506.74
7504.6
7502.8
7500.75
7498.94
7497.79
7497.13
7496.78
7494.77
7494.08
7491.29
7491.5
7495.57
7496.43
7497.34
7498.65
7500.26
7502.46
7505.33
7507.88
7510.89
7513.75
7517.05
7520.81
7524.71
7529.3
7533.4
7537.99
7540.89
7546.14
7554.03
7560.07
7566.82
7573.37
7579.93
7587
7594.53
7601.9
7609.43
7617.31
7625.52
7633.68
7641.95
7650.29
7658.61
7667.03
7675.78
7684.46
7693.11
7701.77
7710.45
7719.07
7727.71
7736.42
7745.05
7753.61
7762.11
7770.53
7778.84
7787.1
7795.34
7803.4
7811.34
7819.12
7826.76
7834.37
7841.79
7849.02
7856.06
7862.85
7869.47
7876.09
7882.58
7888.75
7894.71
7900.45
7905.91
7911.22
7916.58
7921.62
7926.43
7930.96
7935.27
7939.5
7943.67
7947.67
7951.42
7955
7958.41
7961.56
7964.61
7967.61
7970.49
7973.29
7976.09
7978.67
7981.14
7983.51
7985.77
7987.86
7989.99
7992.08
7994.18
7996.22
7998.16
8000.02
8001.82
8003.55
8005.15
8006.67
8008.21
8009.72
8011.19
8012.52
8013.72
8014.89
8016.04
8017.09
8018.04
8018.93
8019.83
8020.66
8021.39
8021.99
8022.61
8023.25
8023.9
8024.46
8024.96
8025.41
8025.75
8026.15
8026.63
8027.04
8027.41
8027.75
8028.03
8028.3
8028.64
8029.02
8029.36
8029.67
8029.97
8030.24
8030.45
8030.73
8031.05
8031.39
8031.67
8031.93
8032.17
8032.34
8032.6
8032.86
8033.06
8033.24
8033.36
8033.45
8033.59
8033.72
8033.78
8033.81
8033.79
8033.7
8033.58
8033.46
8033.32
8033.11
8032.83
8032.51
8032.12
8031.67
8031.14
8030.62
8030.03
8029.36
8028.61
8027.81
8026.93
8025.93
8024.95
8023.9
8022.76
8021.54
8020.25
8018.85
8017.44
8015.98
8014.43
8012.81
8011.11
8009.36
8007.55
8005.69
8003.76
8001.77
7999.72
7997.64
7995.51
7993.33
7991.1
7988.83
7986.51
7984.17
7981.81
7979.4
7976.97
7974.53
7972.06
7969.57
7967.07
7964.55
7962.03
7959.5
7956.97
7954.43
7951.9
7949.37
7946.84
7944.33
7941.83
7939.33
7936.85
7934.39
7931.95
7929.52
7927.12
7924.75
7922.39
7920.06
7917.75
7915.47
7913.22
7911
7908.81
7906.65
7904.52
7902.43
7900.36
7898.33
7896.33
7894.36
7892.42
7890.51
7888.63
7886.78
7884.97
7883.2
7881.45
7879.72
7878.04
7876.38
7874.76
7873.16
7871.59
7870.05
7868.54
7867.06
7865.6
7864.17
7862.77
7861.4
7860.05
7858.72
7857.42
7856.15
7854.91
7853.68
7852.48
7851.31
7850.15
7849.02
7847.92
7846.83
7845.77
7844.73
7843.72
7842.73
7841.76
7840.82
7839.89
7838.99
7838.11
7837.27
7836.43
7835.63
7834.84
7834.09
7833.36
7832.65
7831.96
7831.3