/*--------------------------------*- C++ -*----------------------------------*\
| =========                 |                                                 |
| \\      /  F ield         | OpenFOAM: The Open Source CFD Toolbox           |
|  \\    /   O peration     | Version:  v2006                                 |
|   \\  /    A nd           | Website:  www.openfoam.com                      |
|    \\/     M anipulation  |                                                 |
\*---------------------------------------------------------------------------*/
FoamFile
{
    version     2.0;
    format      ascii;
    class       surfaceScalarField;
    location    "3.4";
    object      alphaPhi0.water;
}
// * * * * * * * * * * * * * * * * * * * * * * * * * * * * * * * * * * * * * //

dimensions      [0 3 -1 0 0 0 0];
oriented        oriented;


internalField   nonuniform List<scalar> 
65390
(
-0.000120323
-1.17614e-06
-0.000119263
-1.05947e-06
-0.000118181
-1.08117e-06
-0.000117076
-1.10554e-06
-0.000115973
-1.10402e-06
-0.000114792
-1.18067e-06
-0.000113485
-1.30674e-06
-0.000112123
-1.35831e-06
-0.000110701
-1.39321e-06
-0.000109304
-1.36462e-06
-0.000107923
-1.38245e-06
-0.000106519
-1.40275e-06
-0.000105129
-1.4502e-06
-0.000103617
-1.51843e-06
-0.000102022
-1.59479e-06
-0.000100425
-1.59684e-06
-9.88528e-05
-1.57063e-06
-9.72805e-05
-1.56579e-06
-9.57582e-05
-1.5068e-06
-9.43332e-05
-1.42432e-06
-9.29134e-05
-1.41906e-06
-9.14253e-05
-1.49548e-06
-8.97515e-05
-1.6788e-06
-8.7946e-05
-1.80636e-06
-8.62218e-05
-1.71913e-06
-8.4742e-05
-1.46461e-06
-8.34785e-05
-1.25265e-06
-8.21774e-05
-1.30202e-06
-8.05825e-05
-1.61064e-06
-7.88548e-05
-1.72947e-06
-7.72067e-05
-1.64848e-06
-7.56419e-05
-1.56449e-06
-7.39479e-05
-1.69364e-06
-7.21644e-05
-1.77683e-06
-7.05088e-05
-1.61855e-06
-6.91806e-05
-1.32774e-06
-6.79115e-05
-1.30027e-06
-6.64251e-05
-1.48621e-06
-6.46873e-05
-1.738e-06
-6.28391e-05
-1.84209e-06
-6.11954e-05
-1.62002e-06
-5.98555e-05
-1.33894e-06
-5.85247e-05
-1.35479e-06
-5.6853e-05
-1.67368e-06
-5.4894e-05
-1.95882e-06
-5.29313e-05
-1.96222e-06
-5.12469e-05
-1.66375e-06
-4.9924e-05
-1.30552e-06
-4.86365e-05
-1.31707e-06
-4.70908e-05
-1.54977e-06
-4.53977e-05
-1.69195e-06
-4.35259e-05
-1.86897e-06
-4.16348e-05
-1.884e-06
-3.98849e-05
-1.75014e-06
-3.837e-05
-1.51771e-06
-3.69225e-05
-1.45224e-06
-3.53228e-05
-1.60035e-06
-3.35277e-05
-1.79466e-06
-3.17341e-05
-1.79323e-06
-3.01044e-05
-1.62779e-06
-2.85706e-05
-1.53238e-06
-2.694e-05
-1.63025e-06
-2.50505e-05
-1.88992e-06
-2.31734e-05
-1.87657e-06
-2.15948e-05
-1.57805e-06
-2.02789e-05
-1.30944e-06
-1.90498e-05
-1.2277e-06
-1.76319e-05
-1.41679e-06
-1.60868e-05
-1.54837e-06
-1.4685e-05
-1.40113e-06
-1.34512e-05
-1.23321e-06
-1.2238e-05
-1.21256e-06
-1.09578e-05
-1.27998e-06
-9.41065e-06
-1.54694e-06
-7.76915e-06
-1.64104e-06
-6.02363e-06
-1.74351e-06
-4.31535e-06
-1.7085e-06
-1.97363e-06
-2.34155e-06
2.90602e-08
-2.00247e-06
4.31789e-07
-4.02523e-07
3.84512e-08
3.93326e-07
-8.01767e-07
8.40181e-07
-1.41326e-06
6.11745e-07
-2.06371e-06
6.50239e-07
-2.35713e-06
2.93111e-07
-2.31958e-06
-3.72565e-08
-2.27334e-06
-4.66324e-08
-1.96781e-06
-3.05429e-07
-1.42653e-06
-5.41675e-07
-9.38379e-07
-4.88293e-07
-4.80636e-07
-4.57844e-07
-6.69497e-08
-4.1384e-07
1.5533e-07
-2.22494e-07
3.148e-07
-1.59715e-07
3.34852e-07
-2.02229e-08
2.83109e-07
5.1525e-08
-1.85817e-07
4.68784e-07
-8.99414e-07
7.1357e-07
-2.57696e-06
1.67739e-06
-5.00125e-06
2.42399e-06
-6.99608e-06
1.99429e-06
-7.8434e-06
8.47506e-07
-7.56823e-06
-2.75336e-07
-7.24492e-06
-3.22354e-07
-6.39826e-06
-8.47061e-07
-5.44036e-06
-9.57882e-07
-4.8045e-06
-6.35652e-07
-4.45138e-06
-3.53264e-07
-4.06278e-06
-3.89053e-07
-3.49006e-06
-5.72794e-07
-2.97302e-06
-5.17109e-07
-2.37477e-06
-5.98438e-07
-1.80793e-06
-5.66386e-07
-1.30296e-06
-5.0459e-07
-9.74976e-07
-3.28382e-07
-7.23287e-07
-2.51815e-07
-9.01885e-07
1.78422e-07
-1.26068e-06
3.58571e-07
-1.32688e-06
6.59162e-08
-9.98496e-07
-3.28466e-07
-4.33915e-07
-5.64896e-07
3.91312e-08
-4.73318e-07
6.74592e-07
-6.35717e-07
1.33759e-06
-6.6321e-07
1.851e-06
-5.13628e-07
2.33789e-06
-4.87112e-07
2.81574e-06
-4.77888e-07
3.26987e-06
-4.54206e-07
3.73905e-06
-4.69478e-07
4.2035e-06
-4.64747e-07
4.6412e-06
-4.3726e-07
5.07216e-06
-4.31059e-07
5.48795e-06
-4.15902e-07
5.88792e-06
-4.00077e-07
6.27599e-06
-3.88365e-07
6.66107e-06
-3.85022e-07
7.04566e-06
-3.84718e-07
7.42046e-06
-3.74968e-07
7.7822e-06
-3.61972e-07
8.1382e-06
-3.56155e-07
8.48375e-06
-3.45713e-07
8.81308e-06
-3.29486e-07
9.12879e-06
-3.16049e-07
9.43887e-06
-3.0998e-07
9.7382e-06
-2.99358e-07
1.0021e-05
-2.82837e-07
1.02898e-05
-2.69489e-07
1.0548e-05
-2.5786e-07
1.07985e-05
-2.50109e-07
1.10383e-05
-2.39915e-07
1.12644e-05
-2.26036e-07
1.14732e-05
-2.10132e-07
1.16718e-05
-1.97714e-07
1.18632e-05
-1.90879e-07
1.20485e-05
-1.85229e-07
1.22222e-05
-1.7374e-07
1.23781e-05
-1.5625e-07
1.25246e-05
-1.46114e-07
1.26646e-05
-1.39695e-07
1.27981e-05
-1.33276e-07
1.29182e-05
-1.20662e-07
1.3025e-05
-1.06533e-07
1.31249e-05
-9.95331e-08
1.32192e-05
-9.42492e-08
1.33027e-05
-8.34982e-08
1.33715e-05
-6.92864e-08
1.34328e-05
-6.11948e-08
1.34889e-05
-5.62331e-08
1.35366e-05
-4.78378e-08
1.35701e-05
-3.42664e-08
1.35937e-05
-2.36733e-08
1.36125e-05
-1.8852e-08
1.36263e-05
-1.4016e-08
1.3629e-05
-2.98297e-09
1.3619e-05
8.96803e-09
1.36036e-05
1.56273e-08
1.3582e-05
2.13261e-08
1.35544e-05
2.73085e-08
1.35188e-05
3.54163e-08
1.34745e-05
4.3539e-08
1.34224e-05
5.20501e-08
1.33655e-05
5.70362e-08
1.33044e-05
6.10578e-08
1.32365e-05
6.78442e-08
1.3159e-05
7.7156e-08
1.30773e-05
8.18383e-08
1.29949e-05
8.23312e-08
1.29072e-05
8.77115e-08
1.28113e-05
9.59425e-08
1.27104e-05
1.01274e-07
1.2607e-05
1.03724e-07
1.25008e-05
1.06165e-07
1.23891e-05
1.11655e-07
1.22734e-05
1.15697e-07
1.2155e-05
1.18473e-07
1.20349e-05
1.20453e-07
1.19122e-05
1.23283e-07
1.17845e-05
1.27891e-07
1.16551e-05
1.29299e-07
1.15271e-05
1.28083e-07
1.13969e-05
1.29965e-07
1.12632e-05
1.34212e-07
1.11245e-05
1.38928e-07
1.09858e-05
1.38805e-07
1.08492e-05
1.36984e-07
1.0713e-05
1.36277e-07
1.05759e-05
1.37139e-07
1.04342e-05
1.41749e-07
1.02914e-05
1.42862e-07
1.01509e-05
1.40509e-07
1.00126e-05
1.383e-07
9.87105e-06
1.41551e-07
9.72825e-06
1.42791e-07
9.5862e-06
1.42194e-07
9.4462e-06
1.39982e-07
9.31014e-06
1.36077e-07
9.17082e-06
1.38956e-07
9.03008e-06
1.40914e-07
8.88989e-06
1.40503e-07
8.74836e-06
1.41518e-07
8.61262e-06
1.35664e-07
8.48003e-06
1.32566e-07
8.34548e-06
1.3452e-07
8.20802e-06
1.3729e-07
8.07284e-06
1.35216e-07
7.93896e-06
1.33853e-07
7.80473e-06
1.34212e-07
7.67304e-06
1.31581e-07
7.54549e-06
1.27482e-07
7.41601e-06
1.29306e-07
7.28467e-06
1.31748e-07
7.15504e-06
1.29737e-07
7.02604e-06
1.28954e-07
6.90036e-06
1.25723e-07
6.77882e-06
1.21583e-07
6.653e-06
1.25715e-07
6.52633e-06
1.26845e-07
6.40108e-06
1.25259e-07
6.27897e-06
1.22105e-07
6.15601e-06
1.22957e-07
6.03354e-06
1.22456e-07
5.91236e-06
1.21229e-07
5.79285e-06
1.19578e-07
5.67268e-06
1.20153e-07
5.55341e-06
1.19282e-07
5.43677e-06
1.16631e-07
5.31525e-06
1.21569e-07
5.19607e-06
1.19203e-07
5.08165e-06
1.14421e-07
4.96557e-06
1.16072e-07
4.84873e-06
1.16845e-07
4.73265e-06
1.16087e-07
4.61671e-06
1.1594e-07
4.50275e-06
1.13959e-07
4.38705e-06
1.15737e-07
4.27195e-06
1.15169e-07
4.16037e-06
1.11545e-07
4.04876e-06
1.11574e-07
3.93477e-06
1.1395e-07
3.82158e-06
1.13225e-07
3.71033e-06
1.1123e-07
3.60191e-06
1.08405e-07
3.49123e-06
1.10651e-07
3.37979e-06
1.11416e-07
3.26926e-06
1.10501e-07
3.1592e-06
1.10029e-07
3.04974e-06
1.09462e-07
2.94368e-06
1.0605e-07
2.83875e-06
1.04848e-07
2.73278e-06
1.05941e-07
2.62588e-06
1.0689e-07
2.519e-06
1.06867e-07
2.41315e-06
1.05826e-07
2.30857e-06
1.0456e-07
2.2052e-06
1.0336e-07
2.10324e-06
1.01935e-07
2.00098e-06
1.02242e-07
1.89934e-06
1.0163e-07
1.7987e-06
1.00621e-07
1.69923e-06
9.94496e-08
1.59903e-06
1.00182e-07
1.4993e-06
9.97224e-08
1.40196e-06
9.73256e-08
1.30637e-06
9.55707e-08
1.21229e-06
9.40732e-08
1.11872e-06
9.35473e-08
1.02499e-06
9.37252e-08
9.31921e-07
9.3052e-08
8.40423e-07
9.14851e-08
7.50304e-07
9.01076e-08
6.62641e-07
8.76517e-08
5.76281e-07
8.63443e-08
4.89823e-07
8.64463e-08
4.04346e-07
8.54639e-08
3.20463e-07
8.38689e-08
2.3784e-07
8.26105e-08
1.5699e-07
8.08368e-08
7.76797e-08
7.92964e-08
-7.30513e-10
7.83973e-08
-7.7661e-08
7.69177e-08
-1.53139e-07
7.54669e-08
-2.27073e-07
7.39222e-08
-2.99177e-07
7.2092e-08
-3.70192e-07
7.10042e-08
-4.39727e-07
6.95253e-08
-5.07731e-07
6.79937e-08
-5.73766e-07
6.60269e-08
-6.3801e-07
6.42326e-08
-7.01567e-07
6.35464e-08
-7.63447e-07
6.18704e-08
-8.23713e-07
6.02566e-08
-8.82155e-07
5.84357e-08
-9.38956e-07
5.67884e-08
-9.94368e-07
5.54041e-08
-1.04822e-06
5.38465e-08
-1.10045e-06
5.22237e-08
-1.15093e-06
5.0472e-08
-1.19983e-06
4.88926e-08
-1.24735e-06
4.75174e-08
-1.29327e-06
4.59118e-08
-1.33753e-06
4.42576e-08
-1.37994e-06
4.24044e-08
-1.42068e-06
4.07314e-08
-1.46027e-06
3.95905e-08
-1.4982e-06
3.79353e-08
-1.53433e-06
3.6129e-08
-1.56859e-06
3.42473e-08
-1.60162e-06
3.30243e-08
-1.63319e-06
3.15739e-08
-1.66318e-06
2.99877e-08
-1.69163e-06
2.84491e-08
-1.71846e-06
2.68357e-08
-1.74366e-06
2.51928e-08
-1.76732e-06
2.36611e-08
-1.78949e-06
2.21713e-08
-1.81021e-06
2.07272e-08
-1.82953e-06
1.93106e-08
-1.84741e-06
1.78815e-08
-1.86384e-06
1.64295e-08
-1.87881e-06
1.49715e-08
-1.89254e-06
1.37347e-08
-1.9051e-06
1.25617e-08
-1.91642e-06
1.13173e-08
-1.92645e-06
1.004e-08
-1.93519e-06
8.73679e-09
-1.94264e-06
7.45306e-09
-1.94901e-06
6.37263e-09
-1.95433e-06
5.32111e-09
-1.95858e-06
4.25504e-09
-1.96164e-06
3.06565e-09
-1.96359e-06
1.94554e-09
-1.96472e-06
1.13181e-09
-1.96494e-06
2.24809e-10
-1.96424e-06
-7.03094e-10
-1.96259e-06
-1.65045e-09
-1.96007e-06
-2.52228e-09
-1.95683e-06
-3.23514e-09
-1.95282e-06
-4.00601e-09
-1.94802e-06
-4.80248e-09
-1.9424e-06
-5.6176e-09
-1.93617e-06
-6.22931e-09
-1.92933e-06
-6.84587e-09
-1.92185e-06
-7.4823e-09
-1.91378e-06
-8.06156e-09
-1.90512e-06
-8.66714e-09
-1.89588e-06
-9.23537e-09
-1.88626e-06
-9.6258e-09
-1.87615e-06
-1.01115e-08
-1.86559e-06
-1.05602e-08
-1.85459e-06
-1.10033e-08
-1.84308e-06
-1.15013e-08
-1.83119e-06
-1.18985e-08
-1.81894e-06
-1.22489e-08
-1.80636e-06
-1.25777e-08
-1.79344e-06
-1.29247e-08
-1.7802e-06
-1.32472e-08
-1.76675e-06
-1.34482e-08
-1.75306e-06
-1.36903e-08
-1.73915e-06
-1.39086e-08
-1.72503e-06
-1.41228e-08
-1.71065e-06
-1.43826e-08
-1.69605e-06
-1.45999e-08
-1.68132e-06
-1.4729e-08
-1.66649e-06
-1.48289e-08
-1.65158e-06
-1.49112e-08
-1.63656e-06
-1.50212e-08
-1.62145e-06
-1.51158e-08
-1.60624e-06
-1.52126e-08
-1.59094e-06
-1.53008e-08
-1.5756e-06
-1.53354e-08
-1.56021e-06
-1.53925e-08
-1.5447e-06
-1.55133e-08
-1.52909e-06
-1.5613e-08
-1.51357e-06
-1.5524e-08
-1.498e-06
-1.55672e-08
-1.48239e-06
-1.56124e-08
-1.46681e-06
-1.55808e-08
-1.45123e-06
-1.55802e-08
-1.43562e-06
-1.56137e-08
-1.41997e-06
-1.56502e-08
-1.40432e-06
-1.56483e-08
-1.38869e-06
-1.56372e-08
-1.37309e-06
-1.55954e-08
-1.35758e-06
-1.55165e-08
-1.34217e-06
-1.54096e-08
-1.32682e-06
-1.53536e-08
-1.31163e-06
-1.51899e-08
-1.29646e-06
-1.51755e-08
-1.28142e-06
-1.50408e-08
-1.26651e-06
-1.49064e-08
-1.25171e-06
-1.48e-08
-1.23698e-06
-1.4731e-08
-1.22223e-06
-1.47559e-08
-1.2077e-06
-1.45334e-08
-1.19309e-06
-1.46099e-08
-1.17822e-06
-1.48646e-08
-1.16357e-06
-1.46515e-08
-1.14826e-06
-1.53157e-08
-1.13296e-06
-1.52965e-08
-1.1192e-06
-1.37669e-08
-1.10477e-06
-1.44229e-08
-1.08988e-06
-1.4899e-08
-1.07626e-06
-1.36176e-08
-1.0557e-06
-2.05577e-08
-1.03583e-06
-1.98693e-08
-1.02678e-06
-9.05356e-09
-1.01097e-06
-1.58126e-08
-1.00371e-06
-7.25336e-09
-1.00799e-06
4.27204e-09
-1.03244e-06
2.44548e-08
-1.0573e-06
2.48606e-08
-1.06222e-06
4.91704e-09
-1.06541e-06
3.19123e-09
-1.06177e-06
-3.63759e-09
-1.05658e-06
-5.19288e-09
-1.04896e-06
-7.6153e-09
-1.04102e-06
-7.94205e-09
-1.03192e-06
-9.09449e-09
-1.02226e-06
-9.66364e-09
-1.01124e-06
-1.10169e-08
-1.00056e-06
-1.06793e-08
-9.86436e-07
-1.41221e-08
-9.72253e-07
-1.41811e-08
-9.62059e-07
-1.01933e-08
-9.48772e-07
-1.32852e-08
-9.38327e-07
-1.04432e-08
-9.32142e-07
-6.18346e-09
-9.33008e-07
8.68374e-10
-9.33869e-07
8.63557e-10
-9.26904e-07
-6.96188e-09
-9.19343e-07
-7.55807e-09
-9.10244e-07
-9.09573e-09
-8.99855e-07
-1.0385e-08
-8.90219e-07
-9.63178e-09
-8.79009e-07
-1.12056e-08
-8.68427e-07
-1.05767e-08
-8.54411e-07
-1.40101e-08
-8.40473e-07
-1.39321e-08
-8.29667e-07
-1.07989e-08
-8.16455e-07
-1.32044e-08
-8.03961e-07
-1.24862e-08
-7.95383e-07
-8.56886e-09
-7.60489e-07
-3.48846e-08
-7.30273e-07
-3.02071e-08
-7.2727e-07
-2.99782e-09
-6.99689e-07
-2.75836e-08
-7.33054e-07
3.33457e-08
-7.84318e-07
5.11903e-08
-9.79081e-07
1.94634e-07
-1.17755e-06
1.98263e-07
-1.30642e-06
1.28453e-07
-1.39204e-06
8.52592e-08
-1.44943e-06
5.70525e-08
-1.48901e-06
3.92676e-08
-1.51689e-06
2.76065e-08
-1.53693e-06
1.97985e-08
-1.55148e-06
1.43215e-08
-1.56196e-06
1.02846e-08
-1.56938e-06
7.23284e-09
-1.57441e-06
4.87253e-09
-1.57746e-06
2.89611e-09
-1.57869e-06
1.09507e-09
-1.57848e-06
-3.36463e-10
-1.57713e-06
-1.45601e-09
-1.57483e-06
-2.40622e-09
-1.57167e-06
-3.24728e-09
-1.56771e-06
-4.0416e-09
-1.563e-06
-4.79187e-09
-1.55759e-06
-5.47391e-09
-1.55159e-06
-6.06589e-09
-1.54507e-06
-6.56693e-09
-1.53813e-06
-6.98872e-09
-1.53083e-06
-7.35312e-09
-1.52318e-06
-7.68394e-09
-1.51515e-06
-8.06269e-09
-1.50679e-06
-8.39786e-09
-1.49809e-06
-8.725e-09
-1.48904e-06
-9.07148e-09
-1.47963e-06
-9.43652e-09
-1.46983e-06
-9.81821e-09
-1.45962e-06
-1.02254e-08
-1.44899e-06
-1.06429e-08
-1.43796e-06
-1.10445e-08
-1.42657e-06
-1.14045e-08
-1.41489e-06
-1.16948e-08
-1.40298e-06
-1.1916e-08
-1.39095e-06
-1.20416e-08
-1.37882e-06
-1.21344e-08
-1.3666e-06
-1.22295e-08
-1.35435e-06
-1.22533e-08
-1.34213e-06
-1.2229e-08
-1.32997e-06
-1.21587e-08
-1.31793e-06
-1.20514e-08
-1.30599e-06
-1.1937e-08
-1.29414e-06
-1.18545e-08
-1.28231e-06
-1.18355e-08
-1.27042e-06
-1.18897e-08
-1.25841e-06
-1.20083e-08
-1.24624e-06
-1.21763e-08
-1.23386e-06
-1.23767e-08
-1.22129e-06
-1.25736e-08
-1.2086e-06
-1.26926e-08
-1.19595e-06
-1.2648e-08
-1.18352e-06
-1.24275e-08
-1.17135e-06
-1.21678e-08
-1.15928e-06
-1.20719e-08
-1.147e-06
-1.22772e-08
-1.13437e-06
-1.2632e-08
-1.12165e-06
-1.27174e-08
-1.10934e-06
-1.23084e-08
-1.09759e-06
-1.17542e-08
-1.0863e-06
-1.12852e-08
-1.07477e-06
-1.15293e-08
-1.06268e-06
-1.20948e-08
-1.05049e-06
-1.21842e-08
-1.0388e-06
-1.16917e-08
-1.0276e-06
-1.12044e-08
-1.01604e-06
-1.15551e-08
-1.00365e-06
-1.2395e-08
-9.91092e-07
-1.25589e-08
-9.78934e-07
-1.21581e-08
-9.66807e-07
-1.21277e-08
-9.53945e-07
-1.2862e-08
-9.40879e-07
-1.30677e-08
-9.28512e-07
-1.23675e-08
-9.16728e-07
-1.17848e-08
-9.04718e-07
-1.20095e-08
-8.92996e-07
-1.17219e-08
-8.81166e-07
-1.18306e-08
-8.01048e-09
-0.000120381
-2.38276e-06
-0.000119306
-2.13478e-06
-0.000118201
-2.18705e-06
-0.000117077
-2.22942e-06
-0.00011598
-2.20219e-06
-0.00011483
-2.33111e-06
-0.000113612
-2.52502e-06
-0.000112335
-2.63493e-06
-0.000110971
-2.75783e-06
-0.000109533
-2.80207e-06
-0.00010802
-2.89498e-06
-0.000106493
-2.92999e-06
-0.00010497
-2.97239e-06
-0.000103483
-3.00596e-06
-0.000102014
-3.06289e-06
-0.000100567
-3.04338e-06
-9.90924e-05
-3.04494e-06
-9.75989e-05
-3.05924e-06
-9.60803e-05
-3.02553e-06
-9.45506e-05
-2.95469e-06
-9.30091e-05
-2.9615e-06
-9.14698e-05
-3.03583e-06
-8.99053e-05
-3.24397e-06
-8.83594e-05
-3.35193e-06
-8.68216e-05
-3.25681e-06
-8.52772e-05
-2.99466e-06
-8.37175e-05
-2.79866e-06
-8.21297e-05
-2.88884e-06
-8.04714e-05
-3.26994e-06
-7.88568e-05
-3.3734e-06
-7.7277e-05
-3.23187e-06
-7.578e-05
-3.06263e-06
-7.43286e-05
-3.14256e-06
-7.26548e-05
-3.43281e-06
-7.08292e-05
-3.42136e-06
-6.89901e-05
-3.16732e-06
-6.73525e-05
-2.9374e-06
-6.6085e-05
-2.78166e-06
-6.48061e-05
-3.02338e-06
-6.32767e-05
-3.36342e-06
-6.14933e-05
-3.38154e-06
-5.9638e-05
-3.19523e-06
-5.79726e-05
-3.01926e-06
-5.64974e-05
-3.16951e-06
-5.48863e-05
-3.57668e-06
-5.31027e-05
-3.7509e-06
-5.12622e-05
-3.48554e-06
-4.95193e-05
-3.03123e-06
-4.79811e-05
-2.85543e-06
-4.64786e-05
-3.0521e-06
-4.48159e-05
-3.3852e-06
-4.30191e-05
-3.67191e-06
-4.1193e-05
-3.70978e-06
-3.94365e-05
-3.49746e-06
-3.78358e-05
-3.1113e-06
-3.63539e-05
-2.935e-06
-3.48332e-05
-3.13096e-06
-3.31472e-05
-3.48456e-06
-3.14545e-05
-3.48555e-06
-2.98827e-05
-3.19261e-06
-2.83664e-05
-3.04458e-06
-2.6794e-05
-3.21183e-06
-2.50269e-05
-3.66016e-06
-2.32862e-05
-3.61764e-06
-2.17589e-05
-3.09653e-06
-2.03602e-05
-2.70478e-06
-1.88611e-05
-2.72903e-06
-1.72416e-05
-3.04292e-06
-1.5687e-05
-3.1074e-06
-1.43882e-05
-2.69676e-06
-1.31499e-05
-2.46997e-06
-1.19639e-05
-2.39856e-06
-1.06529e-05
-2.59621e-06
-9.28873e-06
-2.91345e-06
-7.94528e-06
-2.98444e-06
-6.87955e-06
-2.80849e-06
-6.15111e-06
-2.43604e-06
-5.90906e-06
-2.58362e-06
-5.23406e-06
-2.67742e-06
-3.44142e-06
-2.19633e-06
-9.6765e-07
-2.08073e-06
1.50268e-06
-1.63033e-06
2.31181e-06
-1.97095e-07
2.16883e-06
7.93498e-07
1.54929e-06
9.13126e-07
9.49547e-07
5.62578e-07
8.77454e-08
8.15194e-07
-3.67083e-07
1.49637e-07
-4.12773e-07
-4.95989e-07
-4.12968e-07
-4.88018e-07
-2.69135e-07
-6.01592e-07
2.53557e-08
-7.08129e-07
3.86961e-07
-5.84038e-07
7.57268e-07
-5.29973e-07
1.14791e-06
-4.10971e-07
1.41264e-06
-2.12936e-07
1.66656e-06
2.15373e-07
1.76217e-06
6.18097e-07
2.25382e-06
1.18602e-06
2.33072e-06
2.34725e-06
1.8845e-06
2.44074e-06
2.83842e-07
2.44847e-06
-2.18209e-06
2.19073e-06
-4.24657e-06
1.74259e-06
-5.62186e-06
5.27765e-07
-6.02359e-06
-5.55661e-07
-5.79159e-06
-8.66943e-07
-5.38421e-06
-7.60495e-07
-4.46453e-06
-1.30903e-06
-3.32524e-06
-1.71234e-06
-2.60381e-06
-1.23838e-06
-2.08405e-06
-1.11785e-06
-1.59697e-06
-1.0533e-06
-1.1753e-06
-9.26113e-07
-6.30464e-07
-8.73289e-07
-7.61101e-08
-8.06137e-07
5.97147e-07
-4.9485e-07
1.1144e-06
-1.58806e-07
1.43021e-06
-2.50186e-07
1.23897e-06
-1.37336e-07
8.0158e-07
-1.27667e-07
6.77415e-07
-3.49208e-07
8.36967e-07
-7.95483e-07
1.18609e-06
-1.01289e-06
1.57699e-06
-9.04755e-07
2.17481e-06
-1.08492e-06
2.82131e-06
-1.12441e-06
3.32633e-06
-9.59502e-07
3.78372e-06
-9.26932e-07
4.20884e-06
-8.90655e-07
4.61187e-06
-8.40233e-07
5.04089e-06
-8.60091e-07
5.47284e-06
-8.47952e-07
5.88394e-06
-8.12509e-07
6.28065e-06
-7.85231e-07
6.66779e-06
-7.72283e-07
7.04929e-06
-7.65896e-07
7.41666e-06
-7.42282e-07
7.77863e-06
-7.24717e-07
8.13715e-06
-7.14807e-07
8.48379e-06
-6.9293e-07
8.81506e-06
-6.61302e-07
9.13608e-06
-6.37263e-07
9.4483e-06
-6.21399e-07
9.74614e-06
-5.97206e-07
1.00276e-05
-5.65266e-07
1.02985e-05
-5.405e-07
1.05627e-05
-5.21008e-07
1.0814e-05
-5.00984e-07
1.10509e-05
-4.76686e-07
1.12733e-05
-4.4927e-07
1.14847e-05
-4.21852e-07
1.16869e-05
-3.99764e-07
1.18805e-05
-3.84265e-07
1.20652e-05
-3.67709e-07
1.22347e-05
-3.43166e-07
1.23909e-05
-3.13068e-07
1.254e-05
-2.95147e-07
1.26812e-05
-2.80845e-07
1.28143e-05
-2.64598e-07
1.2933e-05
-2.39934e-07
1.30416e-05
-2.15092e-07
1.31415e-05
-1.99133e-07
1.32341e-05
-1.86825e-07
1.33164e-05
-1.66128e-07
1.33868e-05
-1.40313e-07
1.34483e-05
-1.22555e-07
1.35032e-05
-1.10998e-07
1.35497e-05
-9.45845e-08
1.35829e-05
-6.93461e-08
1.36084e-05
-4.85994e-08
1.36269e-05
-3.72502e-08
1.3639e-05
-2.62831e-08
1.36395e-05
-4.21986e-09
1.36309e-05
1.69187e-08
1.36164e-05
2.99304e-08
1.35949e-05
4.32562e-08
1.3565e-05
5.74025e-08
1.35269e-05
7.26154e-08
1.34836e-05
8.67514e-08
1.34339e-05
1.01749e-07
1.33772e-05
1.13736e-07
1.33146e-05
1.24793e-07
1.32435e-05
1.38609e-07
1.31669e-05
1.5398e-07
1.30861e-05
1.62934e-07
1.30019e-05
1.66702e-07
1.29124e-05
1.77102e-07
1.28177e-05
1.90851e-07
1.27178e-05
2.01429e-07
1.26134e-05
2.08838e-07
1.25048e-05
2.15036e-07
1.23909e-05
2.25173e-07
1.22754e-05
2.31413e-07
1.21585e-05
2.35613e-07
1.20395e-05
2.39811e-07
1.19154e-05
2.47854e-07
1.17865e-05
2.57165e-07
1.16572e-05
2.58925e-07
1.15279e-05
2.57507e-07
1.13969e-05
2.60907e-07
1.1263e-05
2.6792e-07
1.11243e-05
2.77631e-07
1.09863e-05
2.76829e-07
1.08506e-05
2.73514e-07
1.07134e-05
2.73383e-07
1.05736e-05
2.76903e-07
1.04305e-05
2.84683e-07
1.02893e-05
2.84015e-07
1.015e-05
2.7985e-07
1.00098e-05
2.78804e-07
9.86618e-06
2.8486e-07
9.72457e-06
2.84415e-07
9.58434e-06
2.82442e-07
9.44414e-06
2.80546e-07
9.30548e-06
2.7471e-07
9.16609e-06
2.78209e-07
9.02649e-06
2.80314e-07
8.88675e-06
2.80237e-07
8.74675e-06
2.81527e-07
8.61073e-06
2.72002e-07
8.47468e-06
2.6859e-07
8.33929e-06
2.6954e-07
8.20368e-06
2.72722e-07
8.0686e-06
2.70635e-07
7.93519e-06
2.67265e-07
7.80236e-06
2.67044e-07
7.67058e-06
2.6365e-07
7.54049e-06
2.57562e-07
7.41112e-06
2.58478e-07
7.28045e-06
2.62415e-07
7.1512e-06
2.58988e-07
7.02379e-06
2.56369e-07
6.8976e-06
2.52149e-07
6.77359e-06
2.45597e-07
6.65018e-06
2.49004e-07
6.52584e-06
2.51134e-07
6.39919e-06
2.52017e-07
6.27392e-06
2.47372e-07
6.15017e-06
2.46612e-07
6.02945e-06
2.43192e-07
5.90967e-06
2.40986e-07
5.78894e-06
2.40331e-07
5.66932e-06
2.39783e-07
5.55119e-06
2.37395e-07
5.43324e-06
2.34622e-07
5.31228e-06
2.42344e-07
5.19294e-06
2.38593e-07
5.077e-06
2.30358e-07
4.96114e-06
2.31735e-07
4.84494e-06
2.33036e-07
4.72973e-06
2.31311e-07
4.61389e-06
2.31874e-07
4.49919e-06
2.28526e-07
4.38563e-06
2.2929e-07
4.27232e-06
2.28468e-07
4.15884e-06
2.25e-07
4.04396e-06
2.26419e-07
3.92964e-06
2.28146e-07
3.8188e-06
2.23985e-07
3.70882e-06
2.21163e-07
3.59871e-06
2.18486e-07
3.48754e-06
2.21633e-07
3.37666e-06
2.22243e-07
3.26579e-06
2.21324e-07
3.15628e-06
2.1945e-07
3.04788e-06
2.17812e-07
2.94117e-06
2.12709e-07
2.83492e-06
2.11037e-07
2.72823e-06
2.1249e-07
2.62158e-06
2.13491e-07
2.5154e-06
2.1298e-07
2.4103e-06
2.10892e-07
2.3057e-06
2.09112e-07
2.20101e-06
2.07946e-07
2.098e-06
2.04879e-07
1.99616e-06
2.04022e-07
1.89546e-06
2.02288e-07
1.79517e-06
2.00875e-07
1.69542e-06
1.99102e-07
1.59607e-06
1.99467e-07
1.49666e-06
1.99108e-07
1.3997e-06
1.94244e-07
1.30412e-06
1.91093e-07
1.20902e-06
1.89115e-07
1.11474e-06
1.87766e-07
1.02141e-06
1.87005e-07
9.28884e-07
1.8554e-07
8.38023e-07
1.82312e-07
7.48196e-07
1.79882e-07
6.59686e-07
1.76118e-07
5.72468e-07
1.73505e-07
4.86111e-07
1.72747e-07
4.00979e-07
1.70554e-07
3.17557e-07
1.67249e-07
2.3526e-07
1.64861e-07
1.54024e-07
1.62026e-07
7.41549e-08
1.5912e-07
-4.11376e-09
1.56625e-07
-8.07785e-08
1.53542e-07
-1.56031e-07
1.5068e-07
-2.29858e-07
1.47712e-07
-3.0236e-07
1.44551e-07
-3.73486e-07
1.42095e-07
-4.4266e-07
1.38666e-07
-5.10442e-07
1.35744e-07
-5.76803e-07
1.32344e-07
-6.4152e-07
1.28921e-07
-7.05076e-07
1.27068e-07
-7.66764e-07
1.2353e-07
-8.26915e-07
1.2038e-07
-8.85523e-07
1.17008e-07
-9.4265e-07
1.13876e-07
-9.98116e-07
1.10847e-07
-1.05193e-06
1.07639e-07
-1.10416e-06
1.04431e-07
-1.15483e-06
1.01112e-07
-1.204e-06
9.80265e-08
-1.25147e-06
9.49786e-08
-1.29725e-06
9.16753e-08
-1.34143e-06
8.84121e-08
-1.38402e-06
8.49736e-08
-1.42506e-06
8.17457e-08
-1.46465e-06
7.91681e-08
-1.5024e-06
7.56749e-08
-1.53853e-06
7.22319e-08
-1.57308e-06
6.87835e-08
-1.6061e-06
6.60269e-08
-1.63756e-06
6.30289e-08
-1.66745e-06
5.98696e-08
-1.69573e-06
5.67185e-08
-1.72246e-06
5.35578e-08
-1.74768e-06
5.03997e-08
-1.77137e-06
4.73314e-08
-1.79353e-06
4.43189e-08
-1.81423e-06
4.14146e-08
-1.83349e-06
3.8572e-08
-1.85133e-06
3.57127e-08
-1.86777e-06
3.28633e-08
-1.88285e-06
3.00341e-08
-1.89656e-06
2.74482e-08
-1.90899e-06
2.49869e-08
-1.92017e-06
2.24988e-08
-1.93007e-06
1.99394e-08
-1.93874e-06
1.73943e-08
-1.9462e-06
1.49117e-08
-1.95252e-06
1.26969e-08
-1.95772e-06
1.0517e-08
-1.96183e-06
8.35676e-09
-1.96486e-06
6.09626e-09
-1.9669e-06
3.97508e-09
-1.96799e-06
2.22521e-09
-1.96808e-06
3.15604e-10
-1.96726e-06
-1.5307e-09
-1.96556e-06
-3.35424e-09
-1.96301e-06
-5.07848e-09
-1.95963e-06
-6.61037e-09
-1.95544e-06
-8.2033e-09
-1.95054e-06
-9.70786e-09
-1.945e-06
-1.11564e-08
-1.93882e-06
-1.24183e-08
-1.93184e-06
-1.38216e-08
-1.92423e-06
-1.50922e-08
-1.91607e-06
-1.62249e-08
-1.90734e-06
-1.74061e-08
-1.89811e-06
-1.84668e-08
-1.88843e-06
-1.9321e-08
-1.87817e-06
-2.03662e-08
-1.86747e-06
-2.12623e-08
-1.85635e-06
-2.21256e-08
-1.84479e-06
-2.30617e-08
-1.83285e-06
-2.38475e-08
-1.82055e-06
-2.45557e-08
-1.80793e-06
-2.51974e-08
-1.795e-06
-2.58665e-08
-1.78177e-06
-2.64734e-08
-1.7683e-06
-2.693e-08
-1.75451e-06
-2.74818e-08
-1.74049e-06
-2.79228e-08
-1.7263e-06
-2.83238e-08
-1.71191e-06
-2.87726e-08
-1.69735e-06
-2.91619e-08
-1.68264e-06
-2.94484e-08
-1.66781e-06
-2.96634e-08
-1.6529e-06
-2.982e-08
-1.63783e-06
-3.0092e-08
-1.62264e-06
-3.03017e-08
-1.60738e-06
-3.04786e-08
-1.59204e-06
-3.06506e-08
-1.57662e-06
-3.07532e-08
-1.56115e-06
-3.0866e-08
-1.54564e-06
-3.10319e-08
-1.53011e-06
-3.11403e-08
-1.51458e-06
-3.10602e-08
-1.49898e-06
-3.1173e-08
-1.48334e-06
-3.12537e-08
-1.4677e-06
-3.12249e-08
-1.45202e-06
-3.12587e-08
-1.43637e-06
-3.12649e-08
-1.42069e-06
-3.13323e-08
-1.40507e-06
-3.128e-08
-1.38942e-06
-3.12905e-08
-1.37384e-06
-3.1172e-08
-1.35825e-06
-3.11097e-08
-1.34279e-06
-3.08769e-08
-1.32725e-06
-3.08967e-08
-1.31194e-06
-3.04975e-08
-1.29661e-06
-3.05144e-08
-1.28155e-06
-3.00989e-08
-1.26689e-06
-2.95743e-08
-1.25225e-06
-2.94421e-08
-1.23794e-06
-2.90446e-08
-1.22303e-06
-2.96641e-08
-1.20844e-06
-2.91322e-08
-1.19297e-06
-3.00806e-08
-1.17792e-06
-2.99134e-08
-1.16442e-06
-2.81602e-08
-1.15096e-06
-2.87707e-08
-1.13655e-06
-2.97153e-08
-1.12227e-06
-2.80503e-08
-1.10065e-06
-3.60405e-08
-1.0806e-06
-3.49571e-08
-1.07266e-06
-2.15552e-08
-1.06445e-06
-2.87679e-08
-1.06409e-06
-2.02355e-08
-1.06848e-06
-4.66291e-09
-1.09573e-06
1.14368e-08
-1.11985e-06
1.68666e-08
-1.12152e-06
5.94052e-09
-1.11361e-06
1.65407e-08
-1.09859e-06
9.84414e-09
-1.09089e-06
-2.78713e-09
-1.08097e-06
-6.73172e-09
-1.07335e-06
-1.12631e-08
-1.06447e-06
-1.4065e-08
-1.05594e-06
-1.61488e-08
-1.04635e-06
-1.75386e-08
-1.03657e-06
-1.88747e-08
-1.02312e-06
-2.31203e-08
-1.00983e-06
-2.43095e-08
-1.001e-06
-1.95053e-08
-9.91863e-07
-2.32672e-08
-9.8495e-07
-2.10954e-08
-9.79751e-07
-1.53962e-08
-9.8245e-07
-1.05914e-08
-9.84185e-07
-8.71175e-09
-9.76204e-07
-1.41665e-08
-9.65226e-07
-1.01144e-08
-9.50844e-07
-1.35215e-08
-9.40601e-07
-1.72126e-08
-9.27188e-07
-2.09777e-08
-9.16273e-07
-2.00165e-08
-9.0003e-07
-2.6632e-08
-8.87684e-07
-2.19848e-08
-8.76462e-07
-2.24356e-08
-8.68667e-07
-1.83823e-08
-8.60932e-07
-2.17543e-08
-8.52369e-07
-2.25064e-08
-8.44346e-07
-1.88328e-08
-8.07351e-07
-5.02126e-08
-7.75362e-07
-4.44856e-08
-7.73169e-07
-1.07737e-08
-7.69756e-07
-3.83077e-08
-8.20179e-07
2.02104e-08
-8.78605e-07
5.54487e-08
-1.10058e-06
1.94446e-07
-1.31414e-06
2.47034e-07
-1.45476e-06
1.9211e-07
-1.50636e-06
2.46636e-07
-1.48714e-06
1.79684e-07
-1.48802e-06
1.29953e-07
-1.50126e-06
9.90591e-08
-1.51824e-06
7.4556e-08
-1.53494e-06
5.64411e-08
-1.54972e-06
4.28224e-08
-1.56204e-06
3.25094e-08
-1.57175e-06
2.43865e-08
-1.57901e-06
1.78694e-08
-1.58413e-06
1.26446e-08
-1.58732e-06
8.33277e-09
-1.58875e-06
4.56254e-09
-1.58903e-06
1.59784e-09
-1.588e-06
-1.16214e-09
-1.58596e-06
-3.31627e-09
-1.58298e-06
-5.2263e-09
-1.57909e-06
-6.98666e-09
-1.57436e-06
-8.6319e-09
-1.56889e-06
-1.0139e-08
-1.56278e-06
-1.14704e-08
-1.55615e-06
-1.26019e-08
-1.54907e-06
-1.3547e-08
-1.54163e-06
-1.43455e-08
-1.53386e-06
-1.50552e-08
-1.52573e-06
-1.57367e-08
-1.51736e-06
-1.63736e-08
-1.50864e-06
-1.70624e-08
-1.49953e-06
-1.77801e-08
-1.49009e-06
-1.84685e-08
-1.48033e-06
-1.91502e-08
-1.47027e-06
-1.9846e-08
-1.45991e-06
-2.05509e-08
-1.44928e-06
-2.1241e-08
-1.4384e-06
-2.18915e-08
-1.42729e-06
-2.24818e-08
-1.41596e-06
-2.30047e-08
-1.40442e-06
-2.34325e-08
-1.39264e-06
-2.37965e-08
-1.3807e-06
-2.40546e-08
-1.36872e-06
-2.41922e-08
-1.35667e-06
-2.42807e-08
-1.3446e-06
-2.42808e-08
-1.33255e-06
-2.41892e-08
-1.32055e-06
-2.40446e-08
-1.30856e-06
-2.39113e-08
-1.29655e-06
-2.38488e-08
-1.28449e-06
-2.38841e-08
-1.27236e-06
-2.4006e-08
-1.26017e-06
-2.41925e-08
-1.24789e-06
-2.44371e-08
-1.23552e-06
-2.47427e-08
-1.22302e-06
-2.50645e-08
-1.21043e-06
-2.5273e-08
-1.19785e-06
-2.52131e-08
-1.1854e-06
-2.48692e-08
-1.17308e-06
-2.44802e-08
-1.16076e-06
-2.43883e-08
-1.14834e-06
-2.46908e-08
-1.13591e-06
-2.50517e-08
-1.12366e-06
-2.49613e-08
-1.11168e-06
-2.42723e-08
-1.10012e-06
-2.33043e-08
-1.08821e-06
-2.31897e-08
-1.07591e-06
-2.38159e-08
-1.06364e-06
-2.43583e-08
-1.05176e-06
-2.40557e-08
-1.04029e-06
-2.3156e-08
-1.02852e-06
-2.29633e-08
-1.01612e-06
-2.39452e-08
-1.00379e-06
-2.47109e-08
-9.91886e-07
-2.44534e-08
-9.80142e-07
-2.3891e-08
-9.67775e-07
-2.44843e-08
-9.55486e-07
-2.51416e-08
-9.43687e-07
-2.48568e-08
-9.32181e-07
-2.38632e-08
-9.2045e-07
-2.3504e-08
-9.08738e-07
-2.37097e-08
-8.96566e-07
-2.38844e-08
-8.83761e-07
-2.463e-08
-1.86025e-08
-0.000120514
-3.62027e-06
-0.000119425
-3.22284e-06
-0.000118302
-3.31026e-06
-0.000117157
-3.37628e-06
-0.00011604
-3.32037e-06
-0.000114881
-3.49204e-06
-0.000113661
-3.74491e-06
-0.000112398
-3.89922e-06
-0.00011105
-4.10693e-06
-0.000109644
-4.2088e-06
-0.000108197
-4.34243e-06
-0.00010674
-4.3863e-06
-0.000105288
-4.42418e-06
-0.000103838
-4.45541e-06
-0.000102403
-4.49698e-06
-0.000100938
-4.50628e-06
-9.9467e-05
-4.51456e-06
-9.80006e-05
-4.52357e-06
-9.65089e-05
-4.51504e-06
-9.49871e-05
-4.47427e-06
-9.34637e-05
-4.48278e-06
-9.19346e-05
-4.56264e-06
-9.04626e-05
-4.71387e-06
-8.90248e-05
-4.78837e-06
-8.75618e-05
-4.71728e-06
-8.59609e-05
-4.58931e-06
-8.42729e-05
-4.48198e-06
-8.2574e-05
-4.59141e-06
-8.09848e-05
-4.86326e-06
-7.94148e-05
-4.93726e-06
-7.78351e-05
-4.79212e-06
-7.62741e-05
-4.625e-06
-7.47499e-05
-4.66538e-06
-7.31553e-05
-5.04848e-06
-7.13671e-05
-5.21374e-06
-6.94694e-05
-5.05625e-06
-6.76879e-05
-4.6842e-06
-6.6132e-05
-4.33614e-06
-6.47947e-05
-4.3621e-06
-6.3421e-05
-4.7588e-06
-6.17098e-05
-5.10584e-06
-5.98303e-05
-5.06522e-06
-5.80007e-05
-4.83892e-06
-5.63042e-05
-4.87476e-06
-5.47511e-05
-5.14509e-06
-5.31894e-05
-5.31889e-06
-5.14857e-05
-5.18868e-06
-4.96183e-05
-4.88488e-06
-4.7738e-05
-4.72195e-06
-4.59675e-05
-4.84129e-06
-4.42739e-05
-5.09168e-06
-4.27275e-05
-5.22031e-06
-4.11516e-05
-5.28505e-06
-3.94788e-05
-5.16267e-06
-3.77315e-05
-4.8488e-06
-3.6085e-05
-4.58055e-06
-3.45496e-05
-4.6695e-06
-3.30536e-05
-4.98946e-06
-3.15356e-05
-5.00089e-06
-2.99627e-05
-4.75957e-06
-2.83618e-05
-4.64645e-06
-2.67271e-05
-4.84992e-06
-2.51245e-05