/*--------------------------------*- C++ -*----------------------------------*\
| =========                 |                                                 |
| \\      /  F ield         | OpenFOAM: The Open Source CFD Toolbox           |
|  \\    /   O peration     | Version:  v2006                                 |
|   \\  /    A nd           | Website:  www.openfoam.com                      |
|    \\/     M anipulation  |                                                 |
\*---------------------------------------------------------------------------*/
FoamFile
{
    version     2.0;
    format      ascii;
    class       volScalarField;
    location    "3.4";
    object      k;
}
// * * * * * * * * * * * * * * * * * * * * * * * * * * * * * * * * * * * * * //

dimensions      [0 2 -2 0 0 0 0];


internalField   nonuniform List<scalar> 
33000
(
1.75224e-08
1.88584e-08
2.05593e-08
2.2672e-08
2.52045e-08
2.81146e-08
3.1335e-08
3.4781e-08
3.83262e-08
4.18342e-08
4.5148e-08
4.81553e-08
5.07789e-08
5.30042e-08
5.48697e-08
5.64494e-08
5.77694e-08
5.88414e-08
5.97067e-08
6.03489e-08
6.07158e-08
6.08336e-08
6.08356e-08
6.09804e-08
6.1437e-08
6.2076e-08
6.25496e-08
6.26112e-08
6.2412e-08
6.24076e-08
6.26608e-08
6.29317e-08
6.30755e-08
6.33456e-08
6.39103e-08
6.45303e-08
6.47717e-08
6.46641e-08
6.45234e-08
6.47383e-08
6.5396e-08
6.60136e-08
6.61038e-08
6.57492e-08
6.55107e-08
6.5843e-08
6.66641e-08
6.73889e-08
6.74526e-08
6.70986e-08
6.67685e-08
6.64775e-08
6.6424e-08
6.66365e-08
6.69327e-08
6.69272e-08
6.6503e-08
6.60321e-08
6.58855e-08
6.59674e-08
6.58812e-08
6.55107e-08
6.49908e-08
6.49652e-08
6.54431e-08
6.58474e-08
6.58263e-08
6.5374e-08
6.5071e-08
6.50934e-08
6.50949e-08
6.48946e-08
6.45093e-08
6.39529e-08
6.34829e-08
6.30007e-08
6.22223e-08
6.10683e-08
5.951e-08
5.71696e-08
5.42766e-08
5.1005e-08
4.85259e-08
4.68393e-08
4.55584e-08
4.54166e-08
4.54677e-08
4.51055e-08
4.46459e-08
4.4591e-08
4.45167e-08
4.44497e-08
4.45099e-08
4.43084e-08
4.40112e-08
4.3441e-08
4.28349e-08
4.17917e-08
4.09849e-08
3.92456e-08
3.68532e-08
3.5228e-08
3.43971e-08
3.34592e-08
3.23196e-08
3.19312e-08
3.21439e-08
3.23898e-08
3.23027e-08
3.19991e-08
3.1785e-08
3.14766e-08
3.12802e-08
3.11061e-08
3.09676e-08
3.05664e-08
3.02259e-08
2.95125e-08
2.89274e-08
2.87229e-08
2.86829e-08
2.87909e-08
2.87616e-08
2.88837e-08
2.91815e-08
2.93667e-08
2.95075e-08
2.96395e-08
2.97214e-08
2.97759e-08
2.98248e-08
2.98668e-08
2.99087e-08
2.99378e-08
2.99486e-08
2.99545e-08
2.99599e-08
2.99648e-08
2.99615e-08
2.99522e-08
2.99494e-08
2.99417e-08
2.99242e-08
2.98981e-08
2.98714e-08
2.98399e-08
2.98015e-08
2.97638e-08
2.9727e-08
2.96863e-08
2.9643e-08
2.95946e-08
2.95396e-08
2.9488e-08
2.9443e-08
2.93985e-08
2.93495e-08
2.92955e-08
2.92447e-08
2.91979e-08
2.91519e-08
2.91033e-08
2.90553e-08
2.9012e-08
2.89691e-08
2.8922e-08
2.88729e-08
2.88252e-08
2.87794e-08
2.87339e-08
2.8686e-08
2.86395e-08
2.85973e-08
2.85572e-08
2.85166e-08
2.84772e-08
2.8442e-08
2.84117e-08
2.83844e-08
2.83589e-08
2.83351e-08
2.83129e-08
2.82937e-08
2.82781e-08
2.82648e-08
2.82521e-08
2.82388e-08
2.82283e-08
2.82194e-08
2.821e-08
2.81984e-08
2.81869e-08
2.81767e-08
2.81645e-08
2.81493e-08
2.81305e-08
2.81087e-08
2.80843e-08
2.80566e-08
2.80229e-08
2.79873e-08
2.79503e-08
2.79089e-08
2.78626e-08
2.78134e-08
2.77604e-08
2.77041e-08
2.7649e-08
2.7591e-08
2.75278e-08
2.74611e-08
2.73938e-08
2.73242e-08
2.72508e-08
2.71756e-08
2.70966e-08
2.70176e-08
2.69366e-08
2.68527e-08
2.67666e-08
2.66782e-08
2.65868e-08
2.64951e-08
2.64028e-08
2.63073e-08
2.62098e-08
2.61098e-08
2.60088e-08
2.5905e-08
2.58013e-08
2.56964e-08
2.55895e-08
2.54816e-08
2.53703e-08
2.52585e-08
2.51464e-08
2.5033e-08
2.49183e-08
2.48013e-08
2.4685e-08
2.45674e-08
2.44485e-08
2.4328e-08
2.42069e-08
2.40838e-08
2.39605e-08
2.38382e-08
2.37128e-08
2.35866e-08
2.34614e-08
2.33345e-08
2.32073e-08
2.30789e-08
2.29506e-08
2.28221e-08
2.26925e-08
2.25621e-08
2.24311e-08
2.23007e-08
2.21694e-08
2.20363e-08
2.19029e-08
2.17704e-08
2.16375e-08
2.15036e-08
2.137e-08
2.12357e-08
2.11007e-08
2.09672e-08
2.08365e-08
2.07099e-08
2.05854e-08
2.0464e-08
2.03453e-08
2.02298e-08
2.01174e-08
2.00077e-08
1.99017e-08
1.9799e-08
1.96999e-08
1.96042e-08
1.95125e-08
1.94235e-08
1.93368e-08
1.92538e-08
1.91735e-08
1.90971e-08
1.90246e-08
1.89551e-08
1.88889e-08
1.88256e-08
1.87645e-08
1.87084e-08
1.86568e-08
1.86082e-08
1.85639e-08
1.85229e-08
1.84854e-08
1.84524e-08
1.8423e-08
1.83959e-08
1.83692e-08
1.83408e-08
1.8311e-08
1.82803e-08
1.82474e-08
1.82127e-08
1.81754e-08
1.81375e-08
1.80984e-08
1.80569e-08
1.80136e-08
1.7968e-08
1.7922e-08
1.78753e-08
1.78278e-08
1.77793e-08
1.773e-08
1.768e-08
1.76293e-08
1.75775e-08
1.75248e-08
1.74706e-08
1.7416e-08
1.73606e-08
1.7304e-08
1.72457e-08
1.71866e-08
1.7127e-08
1.70661e-08
1.70041e-08
1.69408e-08
1.6876e-08
1.68098e-08
1.67423e-08
1.66734e-08
1.66033e-08
1.65318e-08
1.64591e-08
1.63851e-08
1.63099e-08
1.62338e-08
1.61568e-08
1.60787e-08
1.59995e-08
1.59191e-08
1.58377e-08
1.57555e-08
1.56724e-08
1.55884e-08
1.55033e-08
1.54175e-08
1.53312e-08
1.52443e-08
1.51569e-08
1.50689e-08
1.49806e-08
1.4892e-08
1.4803e-08
1.47136e-08
1.46239e-08
1.45341e-08
1.44442e-08
1.43542e-08
1.42642e-08
1.41743e-08
1.40846e-08
1.39951e-08
1.39058e-08
1.38167e-08
1.37276e-08
1.36388e-08
1.35503e-08
1.34622e-08
1.33744e-08
1.32871e-08
1.32003e-08
1.31142e-08
1.30286e-08
1.29436e-08
1.28592e-08
1.27754e-08
1.26922e-08
1.26098e-08
1.25282e-08
1.24475e-08
1.23676e-08
1.22886e-08
1.22103e-08
1.21329e-08
1.20564e-08
1.19806e-08
1.19056e-08
1.18315e-08
1.17584e-08
1.16862e-08
1.16149e-08
1.15446e-08
1.14751e-08
1.14065e-08
1.13386e-08
1.12716e-08
1.12055e-08
1.11403e-08
1.10762e-08
1.1013e-08
1.09509e-08
1.08897e-08
1.08293e-08
1.077e-08
1.07116e-08
1.06542e-08
1.05976e-08
1.05418e-08
1.04873e-08
1.04327e-08
1.03792e-08
1.03263e-08
1.02729e-08
1.02215e-08
1.01733e-08
1.01213e-08
1.0074e-08
1.00252e-08
9.96386e-09
9.91843e-09
9.8847e-09
9.82418e-09
9.8133e-09
9.77456e-09
9.82653e-09
9.7864e-09
9.7834e-09
9.74804e-09
9.72463e-09
9.68914e-09
9.65927e-09
9.62458e-09
9.59257e-09
9.5574e-09
9.52371e-09
9.48945e-09
9.45087e-09
9.41696e-09
9.38707e-09
9.34785e-09
9.32442e-09
9.29124e-09
9.28605e-09
9.25422e-09
9.23148e-09
9.20288e-09
9.17554e-09
9.1483e-09
9.12125e-09
9.09507e-09
9.06828e-09
9.03663e-09
9.00908e-09
8.98873e-09
8.95287e-09
8.93815e-09
8.91121e-09
8.83392e-09
8.81532e-09
8.82207e-09
8.73548e-09
8.89684e-09
8.86813e-09
9.47545e-09
9.45544e-09
9.63902e-09
9.71135e-09
9.76827e-09
9.80528e-09
9.82968e-09
9.84536e-09
9.85471e-09
9.85925e-09
9.86009e-09
9.85803e-09
9.85357e-09
9.84711e-09
9.83905e-09
9.82973e-09
9.81932e-09
9.80789e-09
9.79545e-09
9.78208e-09
9.76788e-09
9.75301e-09
9.73761e-09
9.72181e-09
9.7057e-09
9.6893e-09
9.67256e-09
9.65548e-09
9.63805e-09
9.62021e-09
9.60188e-09
9.583e-09
9.56354e-09
9.54343e-09
9.52272e-09
9.50158e-09
9.48016e-09
9.45863e-09
9.4371e-09
9.41569e-09
9.39444e-09
9.37346e-09
9.35275e-09
9.33238e-09
9.31231e-09
9.29252e-09
9.27293e-09
9.25344e-09
9.23403e-09
9.21465e-09
9.19529e-09
9.17592e-09
9.15652e-09
9.13713e-09
9.11785e-09
9.0988e-09
9.08005e-09
9.06151e-09
9.04307e-09
9.02449e-09
9.00585e-09
8.98743e-09
8.96938e-09
8.95162e-09
8.93388e-09
8.91604e-09
8.89815e-09
8.88059e-09
8.86333e-09
8.84606e-09
8.82873e-09
8.81108e-09
8.7937e-09
8.77693e-09
8.76022e-09
8.74263e-09
8.72575e-09
8.7088e-09
8.66542e-09
8.77556e-09
8.51242e-09
1.01791e-08
1.02621e-08
1.03741e-08
1.05191e-08
1.06977e-08
1.09069e-08
1.11418e-08
1.13959e-08
1.16604e-08
1.19269e-08
1.2186e-08
1.24313e-08
1.26566e-08
1.28586e-08
1.30367e-08
1.31939e-08
1.33299e-08
1.34466e-08
1.35469e-08
1.36299e-08
1.36924e-08
1.37381e-08
1.3778e-08
1.38341e-08
1.3916e-08
1.40093e-08
1.40829e-08
1.41169e-08
1.41266e-08
1.41555e-08
1.42091e-08
1.4264e-08
1.42997e-08
1.43295e-08
1.43866e-08
1.4461e-08
1.45195e-08
1.45439e-08
1.45336e-08
1.45314e-08
1.4566e-08
1.46124e-08
1.46336e-08
1.4611e-08
1.45837e-08
1.4609e-08
1.46863e-08
1.47556e-08
1.47554e-08
1.46879e-08
1.46028e-08
1.45325e-08
1.45007e-08
1.45077e-08
1.45249e-08
1.45049e-08
1.44335e-08
1.43519e-08
1.43161e-08
1.43128e-08
1.43005e-08
1.42815e-08
1.42908e-08
1.44209e-08
1.4643e-08
1.48398e-08
1.49735e-08
1.50898e-08
1.52959e-08
1.55884e-08
1.58911e-08
1.62088e-08
1.6617e-08
1.72148e-08
1.83844e-08
2.02037e-08
2.27046e-08
2.59437e-08
2.84224e-08
2.93864e-08
3.06349e-08
2.94296e-08
2.64429e-08
2.24568e-08
1.76705e-08
1.45543e-08
1.28902e-08
1.18202e-08
1.13566e-08
1.12002e-08
1.11288e-08
1.11027e-08
1.1121e-08
1.1178e-08
1.14073e-08
1.17436e-08
1.26097e-08
1.33192e-08
1.49447e-08
1.62974e-08
1.60045e-08
1.42586e-08
1.21418e-08
1.11538e-08
1.07714e-08
1.06312e-08
1.05961e-08
1.06012e-08
1.05744e-08
1.05389e-08
1.05361e-08
1.05366e-08
1.05371e-08
1.05851e-08
1.07033e-08
1.08435e-08
1.14386e-08
1.18176e-08
1.14783e-08
1.09461e-08
1.06385e-08
1.05194e-08
1.04822e-08
1.04655e-08
1.04654e-08
1.04472e-08
1.04229e-08
1.04097e-08
1.04073e-08
1.04039e-08
1.03993e-08
1.03994e-08
1.04069e-08
1.04144e-08
1.04143e-08
1.04089e-08
1.04118e-08
1.04206e-08
1.04253e-08
1.04222e-08
1.0426e-08
1.04345e-08
1.04389e-08
1.04406e-08
1.04468e-08
1.04523e-08
1.04516e-08
1.04482e-08
1.04532e-08
1.04613e-08
1.04666e-08
1.04724e-08
1.04689e-08
1.0458e-08
1.04585e-08
1.04718e-08
1.04805e-08
1.04751e-08
1.04668e-08
1.04715e-08
1.04845e-08
1.04881e-08
1.04792e-08
1.04777e-08
1.04914e-08
1.05008e-08
1.04955e-08
1.04901e-08
1.04976e-08
1.05128e-08
1.05145e-08
1.05023e-08
1.05019e-08
1.05179e-08
1.0526e-08
1.05217e-08
1.05181e-08
1.052e-08
1.0524e-08
1.05268e-08
1.05295e-08
1.05264e-08
1.05245e-08
1.05288e-08
1.05313e-08
1.05248e-08
1.05127e-08
1.05132e-08
1.05198e-08
1.05192e-08
1.05112e-08
1.05071e-08
1.05071e-08
1.05022e-08
1.04943e-08
1.04868e-08
1.04864e-08
1.04845e-08
1.04737e-08
1.04592e-08
1.04549e-08
1.04558e-08
1.04557e-08
1.04428e-08
1.04285e-08
1.04168e-08
1.04135e-08
1.04163e-08
1.04065e-08
1.03907e-08
1.03807e-08
1.03816e-08
1.03728e-08
1.03626e-08
1.0351e-08
1.03372e-08
1.03375e-08
1.03325e-08
1.03257e-08
1.03201e-08
1.0302e-08
1.02906e-08
1.02888e-08
1.02875e-08
1.02799e-08
1.02708e-08
1.02652e-08
1.02559e-08
1.02446e-08
1.02434e-08
1.02424e-08
1.02354e-08
1.02287e-08
1.02202e-08
1.0211e-08
1.02125e-08
1.02119e-08
1.02084e-08
1.0201e-08
1.01984e-08
1.01937e-08
1.01895e-08
1.01863e-08
1.0184e-08
1.01801e-08
1.01764e-08
1.01804e-08
1.01755e-08
1.01678e-08
1.01675e-08
1.01666e-08
1.01641e-08
1.01627e-08
1.01595e-08
1.01587e-08
1.01566e-08
1.01523e-08
1.01512e-08
1.01517e-08
1.01483e-08
1.01449e-08
1.01415e-08
1.01423e-08
1.01414e-08
1.01393e-08
1.01371e-08
1.01349e-08
1.01306e-08
1.01281e-08
1.01278e-08
1.01271e-08
1.01255e-08
1.01231e-08
1.01208e-08
1.0119e-08
1.01161e-08
1.01145e-08
1.01126e-08
1.01107e-08
1.01087e-08
1.01077e-08
1.01062e-08
1.01029e-08
1.01004e-08
1.00984e-08
1.00967e-08
1.00955e-08
1.00938e-08
1.00915e-08
1.00895e-08
1.00869e-08
1.00848e-08
1.00837e-08
1.00819e-08
1.00797e-08
1.00779e-08
1.00758e-08
1.00739e-08
1.00721e-08
1.00701e-08
1.00683e-08
1.00664e-08
1.00644e-08
1.00627e-08
1.00607e-08
1.00589e-08
1.00569e-08
1.0055e-08
1.00535e-08
1.00516e-08
1.00497e-08
1.00478e-08
1.0046e-08
1.00443e-08
1.00425e-08
1.00407e-08
1.00389e-08
1.00373e-08
1.00356e-08
1.00339e-08
1.00323e-08
1.00306e-08
1.0029e-08
1.00276e-08
1.0026e-08
1.00244e-08
1.00229e-08
1.00216e-08
1.00202e-08
1.00189e-08
1.00177e-08
1.00165e-08
1.00153e-08
1.00142e-08
1.00132e-08
1.00123e-08
1.00114e-08
1.00106e-08
1.00098e-08
1.0009e-08
1.00084e-08
1.00078e-08
1.00073e-08
1.00068e-08
1.00063e-08
1.00059e-08
1.00056e-08
1.00054e-08
1.00052e-08
1.00051e-08
1.0005e-08
1.00049e-08
1.00049e-08
1.00049e-08
1.00048e-08
1.00048e-08
1.00048e-08
1.00048e-08
1.00048e-08
1.00047e-08
1.00046e-08
1.00046e-08
1.00045e-08
1.00043e-08
1.00042e-08
1.0004e-08
1.00039e-08
1.00037e-08
1.00036e-08
1.00034e-08
1.00032e-08
1.00031e-08
1.00029e-08
1.00026e-08
1.00024e-08
1.00022e-08
1.00019e-08
1.00017e-08
1.00014e-08
1.00011e-08
1.00009e-08
1.00006e-08
1.00002e-08
9.99991e-09
9.99956e-09
9.99924e-09
9.99892e-09
9.99859e-09
9.99826e-09
9.99792e-09
9.99757e-09
9.9972e-09
9.9968e-09
9.99642e-09
9.99605e-09
9.99569e-09
9.99532e-09
9.99496e-09
9.9946e-09
9.99424e-09
9.99385e-09
9.99348e-09
9.9931e-09
9.99274e-09
9.99235e-09
9.99201e-09
9.99156e-09
9.99118e-09
9.99068e-09
9.99016e-09
9.98976e-09
9.98933e-09
9.98922e-09
9.98883e-09
9.98883e-09
9.9883e-09
9.98721e-09
9.98693e-09
9.98718e-09
9.98702e-09
9.99003e-09
9.98875e-09
9.98404e-09
9.98307e-09
9.98008e-09
9.9788e-09
9.98113e-09
9.98195e-09
9.98102e-09
9.98276e-09
9.98588e-09
9.98339e-09
9.98153e-09
9.98035e-09
9.98003e-09
9.97963e-09
9.97972e-09
9.97974e-09
9.98098e-09
9.9807e-09
9.9789e-09
9.97857e-09
9.97748e-09
9.97679e-09
9.97442e-09
9.97484e-09
9.97785e-09
9.9785e-09
9.97954e-09
9.97786e-09
9.97846e-09
9.97751e-09
9.97962e-09
9.97744e-09
9.97593e-09
9.97447e-09
9.97349e-09
9.97499e-09
9.97543e-09
9.98977e-09
9.98691e-09
9.99213e-09
9.98761e-09
1.00168e-08
1.00174e-08
1.00426e-08
1.00422e-08
1.00169e-08
1.00032e-08
1.0011e-08
1.00041e-08
9.99104e-09
9.98484e-09
9.9802e-09
9.97695e-09
9.97452e-09
9.97267e-09
9.97124e-09
9.97016e-09
9.96945e-09
9.96918e-09
9.96914e-09
9.9692e-09
9.96932e-09
9.9695e-09
9.96978e-09
9.9701e-09
9.97044e-09
9.97074e-09
9.97098e-09
9.97115e-09
9.97127e-09
9.97139e-09
9.97152e-09
9.97166e-09
9.97186e-09
9.9721e-09
9.97233e-09
9.97256e-09
9.97279e-09
9.97302e-09
9.97321e-09
9.97336e-09
9.9735e-09
9.97363e-09
9.97374e-09
9.97383e-09
9.97387e-09
9.97388e-09
9.97383e-09
9.97372e-09
9.97357e-09
9.97341e-09
9.97327e-09
9.97318e-09
9.97313e-09
9.97312e-09
9.97312e-09
9.97314e-09
9.9732e-09
9.97328e-09
9.97332e-09
9.97324e-09
9.97306e-09
9.97285e-09
9.97276e-09
9.97281e-09
9.97276e-09
9.97252e-09
9.97214e-09
9.97175e-09
9.97177e-09
9.97214e-09
9.97222e-09
9.97186e-09
9.97142e-09
9.97144e-09
9.97203e-09
9.97213e-09
9.97176e-09
9.97166e-09
9.97212e-09
9.97207e-09
9.97151e-09
9.97132e-09
9.97124e-09
9.97441e-09
9.97154e-09
9.99389e-09
9.97633e-09
1.00262e-08
1.00352e-08
1.00477e-08
1.00643e-08
1.00851e-08
1.01097e-08
1.01374e-08
1.01674e-08
1.01987e-08
1.02303e-08
1.02611e-08
1.02904e-08
1.03176e-08
1.03424e-08
1.03646e-08
1.03845e-08
1.0402e-08
1.04174e-08
1.0431e-08
1.04427e-08
1.04524e-08
1.04606e-08
1.04687e-08
1.04784e-08
1.04903e-08
1.05026e-08
1.05128e-08
1.05192e-08
1.05238e-08
1.05307e-08
1.05401e-08
1.05492e-08
1.05556e-08
1.05601e-08
1.05686e-08
1.05818e-08
1.05961e-08
1.06057e-08
1.06069e-08
1.06025e-08
1.05997e-08
1.06013e-08
1.06034e-08
1.06014e-08
1.05977e-08
1.05985e-08
1.06048e-08
1.06111e-08
1.06104e-08
1.06013e-08
1.05892e-08
1.0579e-08
1.05728e-08
1.0572e-08
1.05738e-08
1.05723e-08
1.05631e-08
1.0551e-08
1.05439e-08
1.05406e-08
1.05364e-08
1.05317e-08
1.05339e-08
1.05555e-08
1.05923e-08
1.06286e-08
1.06569e-08
1.06892e-08
1.07417e-08
1.08115e-08
1.08838e-08
1.09582e-08
1.1039e-08
1.11649e-08
1.13957e-08
1.18072e-08
1.25117e-08
1.35972e-08
1.51779e-08
1.64456e-08
1.76758e-08
1.81624e-08
1.78293e-08
1.69226e-08
1.529e-08
1.35921e-08
1.22758e-08
1.12438e-08
1.06395e-08
1.03102e-08
1.01675e-08
1.01102e-08
1.00869e-08
1.00789e-08
1.00807e-08
1.00985e-08
1.01624e-08
1.02544e-08
1.04472e-08
1.08103e-08
1.09086e-08
1.07838e-08
1.05356e-08
1.03393e-08
1.02e-08
1.01133e-08
1.00728e-08
1.00577e-08
1.00495e-08
1.0044e-08
1.00424e-08
1.00419e-08
1.0042e-08
1.00428e-08
1.00451e-08
1.00485e-08
1.00663e-08
1.00989e-08
1.00975e-08
1.00892e-08
1.00774e-08
1.00643e-08
1.00527e-08
1.00458e-08
1.00419e-08
1.00391e-08
1.00368e-08
1.0036e-08
1.00358e-08
1.00356e-08
1.00351e-08
1.00348e-08
1.0035e-08
1.00354e-08
1.00353e-08
1.00351e-08
1.00353e-08
1.00357e-08
1.00358e-08
1.00357e-08
1.0036e-08
1.00365e-08
1.00367e-08
1.00367e-08
1.00372e-08
1.00375e-08
1.00374e-08
1.00371e-08
1.00375e-08
1.0038e-08
1.00383e-08
1.00387e-08
1.00385e-08
1.00378e-08
1.00379e-08
1.00388e-08
1.00393e-08
1.00389e-08
1.00384e-08
1.00387e-08
1.00395e-08
1.00397e-08
1.00391e-08
1.00389e-08
1.00397e-08
1.00403e-08
1.00399e-08
1.00395e-08
1.00398e-08
1.00407e-08
1.00407e-08
1.00398e-08
1.00396e-08
1.00405e-08
1.00408e-08
1.00404e-08
1.004e-08
1.004e-08
1.00401e-08
1.00401e-08
1.00401e-08
1.00398e-08
1.00396e-08
1.00397e-08
1.00397e-08
1.00391e-08
1.00382e-08
1.00381e-08
1.00383e-08
1.00382e-08
1.00376e-08
1.00372e-08
1.00371e-08
1.00366e-08
1.0036e-08
1.00355e-08
1.00354e-08
1.00351e-08
1.00344e-08
1.00335e-08
1.00332e-08
1.00331e-08
1.0033e-08
1.00323e-08
1.00315e-08
1.00308e-08
1.00306e-08
1.00306e-08
1.003e-08
1.00293e-08
1.00288e-08
1.00287e-08
1.00282e-08
1.00277e-08
1.00272e-08
1.00266e-08
1.00265e-08
1.00262e-08
1.00259e-08
1.00257e-08
1.0025e-08
1.00245e-08
1.00244e-08
1.00242e-08
1.0024e-08
1.00236e-08
1.00234e-08
1.00231e-08
1.00227e-08
1.00225e-08
1.00224e-08
1.00222e-08
1.0022e-08
1.00217e-08
1.00213e-08
1.00212e-08
1.00211e-08
1.0021e-08
1.00208e-08
1.00207e-08
1.00204e-08
1.00201e-08
1.002e-08
1.002e-08
1.00198e-08
1.00195e-08
1.00196e-08
1.00196e-08
1.00193e-08
1.00191e-08
1.00191e-08
1.0019e-08
1.00189e-08
1.00188e-08
1.00188e-08
1.00187e-08
1.00185e-08
1.00185e-08
1.00185e-08
1.00184e-08
1.00183e-08
1.00181e-08
1.00181e-08
1.00181e-08
1.0018e-08
1.00179e-08
1.00179e-08
1.00177e-08
1.00176e-08
1.00176e-08
1.00175e-08
1.00175e-08
1.00174e-08
1.00173e-08
1.00172e-08
1.00172e-08
1.00171e-08
1.0017e-08
1.00169e-08
1.00169e-08
1.00168e-08
1.00167e-08
1.00167e-08
1.00166e-08
1.00165e-08
1.00164e-08
1.00163e-08
1.00163e-08
1.00162e-08
1.00161e-08
1.0016e-08
1.00159e-08
1.00159e-08
1.00158e-08
1.00157e-08
1.00156e-08
1.00155e-08
1.00155e-08
1.00154e-08
1.00153e-08
1.00152e-08
1.00151e-08
1.0015e-08
1.0015e-08
1.00149e-08
1.00148e-08
1.00147e-08
1.00147e-08
1.00146e-08
1.00145e-08
1.00144e-08
1.00143e-08
1.00143e-08
1.00142e-08
1.00141e-08
1.0014e-08
1.0014e-08
1.00139e-08
1.00138e-08
1.00137e-08
1.00137e-08
1.00136e-08
1.00135e-08
1.00134e-08
1.00134e-08
1.00133e-08
1.00132e-08
1.00131e-08
1.00131e-08
1.0013e-08
1.00129e-08
1.00129e-08
1.00128e-08
1.00127e-08
1.00127e-08
1.00126e-08
1.00125e-08
1.00125e-08
1.00124e-08
1.00124e-08
1.00123e-08
1.00122e-08
1.00122e-08
1.00121e-08
1.00121e-08
1.0012e-08
1.00119e-08
1.00119e-08
1.00118e-08
1.00118e-08
1.00118e-08
1.00118e-08
1.00118e-08
1.00118e-08
1.00118e-08
1.00118e-08
1.00118e-08
1.00118e-08
1.00118e-08
1.00118e-08
1.00118e-08
1.00117e-08
1.00117e-08
1.00116e-08
1.00116e-08
1.00115e-08
1.00115e-08
1.00114e-08
1.00114e-08
1.00113e-08
1.00113e-08
1.00112e-08
1.00112e-08
1.00111e-08
1.00111e-08
1.0011e-08
1.0011e-08
1.00109e-08
1.00109e-08
1.00108e-08
1.00108e-08
1.00107e-08
1.00107e-08
1.00106e-08
1.00106e-08
1.00105e-08
1.00105e-08
1.00104e-08
1.00104e-08
1.00103e-08
1.00103e-08
1.00102e-08
1.00101e-08
1.00101e-08
1.00101e-08
1.001e-08
1.001e-08
1.00099e-08
1.00098e-08
1.00098e-08
1.00097e-08
1.00097e-08
1.00096e-08
1.00096e-08
1.00095e-08
1.00094e-08
1.00094e-08
1.00093e-08
1.00092e-08
1.00092e-08
1.00091e-08
1.00091e-08
1.0009e-08
1.0009e-08
1.00089e-08
1.00088e-08
1.00088e-08
1.00087e-08
1.00086e-08
1.00084e-08
1.00084e-08
1.00082e-08
1.00079e-08
1.00064e-08
1.00065e-08
1.0008e-08
1.00079e-08
1.0008e-08
1.0008e-08
1.0008e-08
1.00079e-08
1.00077e-08
1.00077e-08
1.00076e-08
1.00075e-08
1.00075e-08
1.00073e-08
1.00071e-08
1.00071e-08
1.0007e-08
1.00068e-08
1.00059e-08
1.00059e-08
1.00068e-08
1.00067e-08
1.00067e-08
1.00066e-08
1.00067e-08
1.00066e-08
1.00066e-08
1.00063e-08
1.00061e-08
1.00058e-08
1.00062e-08
1.00057e-08
1.00055e-08
1.00069e-08
1.00065e-08
1.00063e-08
1.00058e-08
1.00086e-08
1.00086e-08
1.00107e-08
1.00104e-08
1.00076e-08
1.00084e-08
1.00082e-08
1.00076e-08
1.00073e-08
1.00063e-08
1.0005e-08
1.00043e-08
1.0004e-08
1.00035e-08
1.0003e-08
1.00025e-08
1.0002e-08
1.00016e-08
1.00011e-08
1.00008e-08
1.00006e-08
1.00006e-08
1.00006e-08
1.00008e-08
1.00012e-08
1.00015e-08
1.00019e-08
1.00023e-08
1.00025e-08
1.00028e-08
1.00029e-08
1.0003e-08
1.00031e-08
1.00032e-08
1.00033e-08
1.00034e-08
1.00035e-08
1.00036e-08
1.00037e-08
1.00037e-08
1.00037e-08
1.00037e-08
1.00036e-08
1.00036e-08
1.00036e-08
1.00037e-08
1.00038e-08
1.00039e-08
1.00039e-08
1.00039e-08
1.00039e-08
1.00038e-08
1.00037e-08
1.00037e-08
1.00037e-08
1.00037e-08
1.00036e-08
1.00035e-08
1.00035e-08
1.00035e-08
1.00036e-08
1.00037e-08
1.00037e-08
1.00037e-08
1.00036e-08
1.00034e-08
1.00032e-08
1.0003e-08
1.00029e-08
1.00029e-08
1.00031e-08
1.00034e-08
1.00033e-08
1.00028e-08
1.00027e-08
1.00029e-08
1.00035e-08
1.00033e-08
1.00026e-08
1.00025e-08
1.00028e-08
1.0003e-08
1.00024e-08
1.00024e-08
1.00026e-08
1.00028e-08
1.0003e-08
1.00019e-08
1.00061e-08
1.00034e-08
1.00141e-08
1.00161e-08
1.00191e-08
1.00231e-08
1.00279e-08
1.00335e-08
1.00395e-08
1.00458e-08
1.00521e-08
1.00582e-08
1.00639e-08
1.00691e-08
1.00736e-08
1.00776e-08
1.00809e-08
1.00838e-08
1.00862e-08
1.00882e-08
1.009e-08
1.00915e-08
1.00927e-08
1.00938e-08
1.00948e-08
1.00959e-08
1.00971e-08
1.00983e-08
1.00994e-08
1.01001e-08
1.01007e-08
1.01015e-08
1.01025e-08
1.01035e-08
1.01042e-08
1.0105e-08
1.01061e-08
1.01079e-08
1.01099e-08
1.01113e-08
1.01116e-08
1.0111e-08
1.01103e-08
1.011e-08
1.01098e-08
1.01093e-08
1.01088e-08
1.01086e-08
1.01089e-08
1.01091e-08
1.01086e-08
1.01075e-08
1.01062e-08
1.01048e-08
1.01037e-08
1.01031e-08
1.01029e-08
1.01025e-08
1.01012e-08
1.00995e-08
1.0098e-08
1.00967e-08
1.00953e-08
1.00941e-08
1.00941e-08
1.00965e-08
1.01007e-08
1.01052e-08
1.01095e-08
1.01159e-08
1.01254e-08
1.01369e-08
1.0149e-08
1.01624e-08
1.01785e-08
1.02006e-08
1.02379e-08
1.03032e-08
1.04307e-08
1.06248e-08
1.09596e-08
1.1349e-08
1.19039e-08
1.25578e-08
1.28724e-08
1.29584e-08
1.26893e-08
1.22125e-08
1.17023e-08
1.12154e-08
1.08207e-08
1.05188e-08
1.03166e-08
1.01915e-08
1.01194e-08
1.00774e-08
1.00546e-08
1.00421e-08
1.00375e-08
1.00386e-08
1.00487e-08
1.00777e-08
1.00951e-08
1.01011e-08
1.00973e-08
1.00804e-08
1.00635e-08
1.005e-08
1.0041e-08
1.00364e-08
1.00338e-08
1.00336e-08
1.00329e-08
1.00314e-08
1.00297e-08
1.00286e-08
1.00278e-08
1.00273e-08
1.0027e-08
1.00272e-08
1.00272e-08
1.00275e-08
1.00278e-08
1.00276e-08
1.00274e-08
1.00273e-08
1.00271e-08
1.00274e-08
1.00278e-08
1.00275e-08
1.00267e-08
1.00259e-08
1.00253e-08
1.00249e-08
1.00245e-08
1.00242e-08
1.0024e-08
1.00238e-08
1.00237e-08
1.00236e-08
1.00236e-08
1.00236e-08
1.00236e-08
1.00236e-08
1.00235e-08
1.00235e-08
1.00234e-08
1.00234e-08
1.00233e-08
1.00232e-08
1.00231e-08
1.00231e-08
1.0023e-08
1.0023e-08
1.00229e-08
1.00229e-08
1.00229e-08
1.00229e-08
1.00228e-08
1.00228e-08
1.00228e-08
1.00228e-08
1.00228e-08
1.00228e-08
1.00227e-08
1.00227e-08
1.00227e-08
1.00227e-08
1.00226e-08
1.00226e-08
1.00226e-08
1.00226e-08
1.00225e-08
1.00224e-08
1.00224e-08
1.00223e-08
1.00223e-08
1.00223e-08
1.00222e-08
1.00222e-08
1.00221e-08
1.00221e-08
1.0022e-08
1.0022e-08
1.00219e-08
1.00219e-08
1.00218e-08
1.00217e-08
1.00216e-08
1.00215e-08
1.00215e-08
1.00214e-08
1.00214e-08
1.00213e-08
1.00212e-08
1.00212e-08
1.00211e-08
1.0021e-08
1.00209e-08
1.00208e-08
1.00208e-08
1.00207e-08
1.00206e-08
1.00205e-08
1.00205e-08
1.00204e-08
1.00203e-08
1.00202e-08
1.00201e-08
1.00201e-08
1.002e-08
1.00199e-08
1.00198e-08
1.00198e-08
1.00197e-08
1.00197e-08
1.00196e-08
1.00195e-08
1.00194e-08
1.00194e-08
1.00193e-08
1.00193e-08
1.00192e-08
1.00191e-08
1.0019e-08
1.0019e-08
1.00189e-08
1.00188e-08
1.00188e-08
1.00187e-08
1.00187e-08
1.00186e-08
1.00185e-08
1.00185e-08
1.00184e-08
1.00183e-08
1.00183e-08
1.00181e-08
1.00181e-08
1.0018e-08
1.0018e-08
1.0018e-08
1.00178e-08
1.00176e-08
1.00176e-08
1.00176e-08
1.00175e-08
1.00172e-08
1.00173e-08
1.00173e-08
1.00171e-08
1.00169e-08
1.00169e-08
1.00169e-08
1.00168e-08
1.00167e-08
1.00167e-08
1.00166e-08
1.00165e-08
1.00165e-08
1.00165e-08
1.00165e-08
1.00163e-08
1.00162e-08
1.00162e-08
1.00162e-08
1.00161e-08
1.00161e-08
1.00161e-08
1.0016e-08
1.00159e-08
1.00159e-08
1.00158e-08
1.00158e-08
1.00158e-08
1.00157e-08
1.00156e-08
1.00156e-08
1.00155e-08
1.00155e-08
1.00154e-08
1.00153e-08
1.00153e-08
1.00153e-08
1.00152e-08
1.00151e-08
1.00151e-08
1.0015e-08
1.0015e-08
1.00149e-08
1.00149e-08
1.00148e-08
1.00148e-08
1.00147e-08
1.00147e-08
1.00146e-08
1.00145e-08
1.00145e-08
1.00144e-08
1.00144e-08
1.00143e-08
1.00143e-08
1.00142e-08
1.00141e-08
1.00141e-08
1.0014e-08
1.0014e-08
1.00139e-08
1.00138e-08
1.00138e-08
1.00137e-08
1.00137e-08
1.00136e-08
1.00135e-08
1.00135e-08
1.00134e-08
1.00134e-08
1.00133e-08
1.00132e-08
1.00132e-08
1.00131e-08
1.00131e-08
1.0013e-08
1.0013e-08
1.00129e-08
1.00129e-08
1.00128e-08
1.00128e-08
1.00127e-08
1.00126e-08
1.00126e-08
1.00126e-08
1.00125e-08
1.00125e-08
1.00124e-08
1.00124e-08
1.00123e-08
1.00122e-08
1.00122e-08
1.00121e-08
1.00121e-08
1.0012e-08
1.0012e-08
1.00119e-08
1.00119e-08
1.00118e-08
1.00118e-08
1.00117e-08
1.00116e-08
1.00116e-08
1.00115e-08
1.00114e-08
1.00114e-08
1.00114e-08
1.00113e-08
1.00113e-08
1.00113e-08
1.00113e-08
1.00113e-08
1.00113e-08
1.00112e-08
1.00112e-08
1.00112e-08
1.00111e-08
1.00111e-08
1.0011e-08
1.0011e-08
1.00109e-08
1.00109e-08
1.00108e-08
1.00108e-08
1.00107e-08
1.00107e-08
1.00106e-08
1.00106e-08
1.00105e-08
1.00105e-08
1.00104e-08
1.00104e-08
1.00103e-08
1.00103e-08
1.00102e-08
1.00102e-08
1.00101e-08
1.00101e-08
1.001e-08
1.001e-08
1.00099e-08
1.00099e-08
1.00098e-08
1.00098e-08
1.00097e-08
1.00097e-08
1.00096e-08
1.00096e-08
1.00096e-08
1.00095e-08
1.00095e-08
1.00094e-08
1.00094e-08
1.00093e-08
1.00093e-08
1.00092e-08
1.00092e-08
1.00091e-08
1.00091e-08
1.0009e-08
1.0009e-08
1.00089e-08
1.00088e-08
1.00088e-08
1.00087e-08
1.00087e-08
1.00086e-08
1.00086e-08
1.00085e-08
1.00085e-08
1.00084e-08
1.00082e-08
1.00081e-08
1.00081e-08
1.00079e-08
1.00066e-08
1.00066e-08
1.00079e-08
1.00078e-08
1.00078e-08
1.00078e-08
1.00078e-08
1.00078e-08
1.00077e-08
1.00076e-08
1.00075e-08
1.00074e-08
1.00074e-08
1.00072e-08
1.00071e-08
1.00071e-08
1.0007e-08
1.00068e-08
1.00064e-08
1.00064e-08
1.00068e-08
1.00067e-08
1.00067e-08
1.00066e-08
1.00067e-08
1.00066e-08
1.00065e-08
1.00064e-08
1.00061e-08
1.0006e-08
1.00066e-08
1.00064e-08
1.00071e-08
1.00066e-08
1.00051e-08
1.0006e-08
1.00055e-08
1.00083e-08
1.00083e-08
1.00106e-08
1.00103e-08
1.00078e-08
1.00083e-08
1.00081e-08
1.0008e-08
1.00078e-08
1.00076e-08
1.00071e-08
1.00068e-08
1.00064e-08
1.00059e-08
1.00056e-08
1.00052e-08
1.00048e-08
1.00043e-08
1.0004e-08
1.00036e-08
1.00033e-08
1.0003e-08
1.00028e-08
1.00025e-08
1.00023e-08
1.00022e-08
1.00023e-08
1.00025e-08
1.00027e-08
1.00029e-08
1.00031e-08
1.00032e-08
1.00033e-08
1.00034e-08
1.00034e-08
1.00034e-08
1.00035e-08
1.00036e-08
1.00037e-08
1.00038e-08
1.00039e-08
1.0004e-08
1.00039e-08
1.00039e-08
1.00038e-08
1.00037e-08
1.00037e-08
1.00037e-08
1.00038e-08
1.00039e-08
1.00039e-08
1.0004e-08
1.0004e-08
1.0004e-08
1.00039e-08
1.00039e-08
1.00039e-08
1.00039e-08
1.00038e-08
1.00037e-08
1.00036e-08
1.00035e-08
1.00036e-08
1.00037e-08
1.00038e-08
1.00039e-08
1.00038e-08
1.00036e-08
1.00033e-08
1.00032e-08
1.00031e-08
1.00031e-08
1.00033e-08
1.00034e-08
1.00035e-08
1.00031e-08
1.0003e-08
1.00031e-08
1.00036e-08
1.00037e-08
1.0003e-08
1.00029e-08
1.00028e-08
1.00031e-08
1.00028e-08
1.00028e-08
1.00028e-08
1.00031e-08
1.00033e-08
1.00032e-08
1.00022e-08
1.00064e-08
1.00037e-08
1.0013e-08
1.00144e-08
1.00164e-08
1.00191e-08
1.00222e-08
1.00257e-08
1.00294e-08
1.0033e-08
1.00364e-08
1.00394e-08
1.0042e-08
1.00441e-08
1.00457e-08
1.00469e-08
1.00477e-08
1.00483e-08
1.00486e-08
1.00488e-08
1.00488e-08
1.00489e-08
1.00489e-08
1.00489e-08
1.00489e-08
1.00489e-08
1.00489e-08
1.00489e-08
1.00489e-08
1.00489e-08
1.00489e-08
1.00489e-08
1.00489e-08
1.00488e-08
1.00488e-08
1.00486e-08
1.00486e-08
1.00486e-08
1.00486e-08
1.00486e-08
1.00485e-08
1.00482e-08
1.00479e-08
1.00477e-08
1.00475e-08
1.00473e-08
1.00471e-08
1.0047e-08
1.00469e-08
1.00469e-08
1.00467e-08
1.00465e-08
1.00461e-08
1.00457e-08
1.00453e-08
1.0045e-08
1.00447e-08
1.00444e-08
1.0044e-08
1.00435e-08
1.00431e-08
1.00427e-08
1.00422e-08
1.00418e-08
1.00416e-08
1.00417e-08
1.00419e-08
1.00422e-08
1.00425e-08
1.00433e-08
1.00445e-08
1.00459e-08
1.00475e-08
1.00495e-08
1.0052e-08
1.00554e-08
1.00604e-08
1.00692e-08
1.00865e-08
1.01156e-08
1.01665e-08
1.02468e-08
1.03667e-08
1.05451e-08
1.06914e-08
1.08412e-08
1.09139e-08
1.08738e-08
1.07855e-08
1.06558e-08
1.05072e-08
1.03689e-08
1.02735e-08
1.02172e-08
1.01832e-08
1.01566e-08
1.01248e-08
1.00935e-08
1.00666e-08
1.00486e-08
1.00383e-08
1.00336e-08
1.00319e-08
1.00316e-08
1.0032e-08
1.0031e-08
1.00302e-08
1.00295e-08
1.00286e-08
1.00282e-08
1.00281e-08
1.00285e-08
1.00289e-08
1.00297e-08
1.0031e-08
1.00312e-08
1.00301e-08
1.00287e-08
1.00277e-08
1.00269e-08
1.00262e-08
1.00257e-08
1.00253e-08
1.00251e-08
1.00251e-08
1.00252e-08
1.00253e-08
1.00254e-08
1.00257e-08
1.00259e-08
1.00266e-08
1.00273e-08
1.00271e-08
1.00263e-08
1.00256e-08
1.0025e-08
1.00244e-08
1.0024e-08
1.00237e-08
1.00235e-08
1.00233e-08
1.00233e-08
1.00232e-08
1.00232e-08
1.00231e-08
1.0023e-08
1.00229e-08
1.00229e-08
1.00228e-08
1.00227e-08
1.00226e-08
1.00225e-08
1.00225e-08
1.00224e-08
1.00224e-08
1.00224e-08
1.00224e-08
1.00223e-08
1.00223e-08
1.00223e-08
1.00223e-08
1.00223e-08
1.00223e-08
1.00223e-08
1.00223e-08
1.00223e-08
1.00222e-08
1.00222e-08
1.00222e-08
1.00222e-08
1.00221e-08
1.00221e-08
1.0022e-08
1.0022e-08
1.00219e-08
1.00218e-08
1.00218e-08
1.00218e-08
1.00217e-08
1.00216e-08
1.00216e-08
1.00215e-08
1.00215e-08
1.00214e-08
1.00213e-08
1.00212e-08
1.00212e-08
1.00211e-08
1.0021e-08
1.0021e-08
1.00209e-08
1.00209e-08
1.00208e-08
1.00207e-08
1.00207e-08
1.00206e-08
1.00206e-08
1.00205e-08
1.00205e-08
1.00204e-08
1.00204e-08
1.00203e-08
1.00202e-08
1.00202e-08
1.00201e-08
1.00201e-08
1.002e-08
1.002e-08
1.00199e-08
1.00198e-08
1.00198e-08
1.00197e-08
1.00196e-08
1.00196e-08
1.00195e-08
1.00194e-08
1.00194e-08
1.00193e-08
1.00192e-08
1.00192e-08
1.00191e-08
1.0019e-08
1.0019e-08
1.00189e-08
1.00188e-08
1.00188e-08
1.00187e-08
1.00186e-08
1.00186e-08
1.00185e-08
1.00185e-08
1.00184e-08
1.00183e-08
1.00183e-08
1.00182e-08
1.00182e-08
1.00181e-08
1.00181e-08
1.0018e-08
1.0018e-08
1.00179e-08
1.00179e-08
1.00178e-08
1.00177e-08
1.00177e-08
1.00176e-08
1.00175e-08
1.00174e-08
1.00174e-08
1.00173e-08
1.00171e-08
1.0017e-08