/*--------------------------------*- C++ -*----------------------------------*\
| =========                 |                                                 |
| \\      /  F ield         | OpenFOAM: The Open Source CFD Toolbox           |
|  \\    /   O peration     | Version:  v2006                                 |
|   \\  /    A nd           | Website:  www.openfoam.com                      |
|    \\/     M anipulation  |                                                 |
\*---------------------------------------------------------------------------*/
FoamFile
{
    version     2.0;
    format      ascii;
    class       volScalarField;
    location    "3.4";
    object      p;
}
// * * * * * * * * * * * * * * * * * * * * * * * * * * * * * * * * * * * * * //

dimensions      [1 -1 -2 0 0 0 0];


internalField   nonuniform List<scalar> 
33000
(
7292.59
7299.56
7302.97
7306.43
7309.96
7313.59
7317.4
7321.44
7325.73
7330.18
7334.74
7339.48
7344.43
7349.58
7354.9
7360.39
7366.04
7371.87
7377.87
7384.05
7390.41
7396.94
7403.64
7410.49
7417.49
7424.64
7431.97
7439.47
7447.13
7454.93
7462.86
7470.94
7479.17
7487.51
7495.96
7504.55
7513.28
7522.16
7531.15
7540.22
7549.4
7558.68
7568.08
7577.6
7587.19
7596.84
7606.54
7616.32
7626.18
7636.13
7646.15
7656.22
7666.32
7676.44
7686.6
7696.8
7707.04
7717.3
7727.56
7737.82
7748.09
7758.36
7768.6
7778.81
7788.96
7799.07
7809.12
7819.13
7829.05
7838.86
7848.55
7858.09
7867.47
7876.61
7885.44
7893.85
7901.73
7908.48
7915.81
7932
7941.25
7951.88
7963.02
7973.51
7984.29
7995.99
8007.1
8018.32
8029.49
8040.62
8051.75
8062.79
8073.94
8085
8096.05
8107.01
8117.96
8128.7
8139.31
8149.9
8160.21
8170.68
8181.49
8192.05
8202.57
8212.79
8222.85
8232.72
8242.46
8252.12
8261.47
8270.7
8279.66
8288.42
8297
8305.35
8313.49
8321.52
8329.24
8336.92
8344.25
8351.43
8358.35
8365.04
8371.44
8377.64
8383.52
8389.13
8394.46
8399.47
8404.15
8408.52
8412.54
8416.23
8419.56
8422.54
8425.16
8427.41
8429.28
8430.77
8431.88
8432.6
8432.94
8432.9
8432.49
8431.69
8430.53
8429
8427.11
8424.87
8422.27
8419.33
8416.06
8412.48
8408.57
8404.36
8399.84
8395.04
8389.97
8384.63
8379.03
8373.18
8367.1
8360.8
8354.27
8347.54
8340.63
8333.53
8326.27
8318.85
8311.28
8303.59
8295.78
8287.85
8279.82
8271.71
8263.53
8255.29
8246.99
8238.64
8230.27
8221.87
8213.47
8205.05
8196.64
8188.24
8179.87
8171.52
8163.21
8154.93
8146.71
8138.54
8130.43
8122.39
8114.41
8106.52
8098.7
8090.97
8083.33
8075.78
8068.33
8060.97
8053.72
8046.57
8039.53
8032.59
8025.76
8019.03
8012.42
8005.92
7999.52
7993.23
7987.06
7980.99
7975.03
7969.18
7963.44
7957.79
7952.26
7946.83
7941.51
7936.28
7931.16
7926.13
7921.21
7916.38
7911.65
7907.02
7902.48
7898.02
7893.66
7889.39
7885.21
7881.12
7877.11
7873.18
7869.33
7865.57
7861.89
7858.28
7854.75
7851.3
7847.92
7844.62
7841.38
7838.22
7835.13
7832.1
7829.14
7826.25
7823.42
7820.65
7817.94
7815.3
7812.71
7810.18
7807.71
7805.3
7802.94
7800.63
7798.38
7796.18
7794.02
7791.92
7789.87
7787.86
7785.9
7783.99
7782.11
7780.29
7778.5
7776.76
7775.05
7773.39
7771.77
7770.18
7768.63
7767.12
7765.64
7764.2
7762.79
7761.41
7760.07
7758.76
7757.48
7756.24
7755.02
7753.83
7752.67
7751.53
7750.42
7749.34
7748.29
7747.26
7746.25
7745.27
7744.31
7743.38
7742.46
7741.57
7740.7
7739.85
7739.03
7738.22
7737.44
7736.68
7735.93
7735.22
7734.52
7733.84
7733.18
7732.55
7731.93
7731.34
7730.76
7730.21
7729.67
7729.16
7728.66
7728.19
7727.73
7727.29
7726.87
7726.46
7726.07
7725.7
7725.35
7725.01
7724.69
7724.38
7724.09
7723.82
7723.55
7723.3
7723.07
7722.85
7722.64
7722.44
7722.26
7722.08
7721.92
7721.77
7721.63
7721.5
7721.38
7721.26
7721.16
7721.07
7720.98
7720.9
7720.83
7720.77
7720.71
7720.66
7720.62
7720.58
7720.55
7720.53
7720.5
7720.49
7720.48
7720.47
7720.47
7720.48
7720.48
7720.5
7720.51
7720.53
7720.55
7720.58
7720.6
7720.64
7720.67
7720.71
7720.75
7720.79
7720.83
7720.88
7720.93
7720.98
7721.03
7721.08
7721.14
7721.2
7721.25
7721.32
7721.38
7721.44
7721.51
7721.57
7721.64
7721.71
7721.78
7721.85
7721.92
7722
7722.07
7722.15
7722.22
7722.3
7722.38
7722.46
7722.54
7722.62
7722.7
7722.78
7722.86
7722.95
7723.03
7723.12
7723.2
7723.29
7723.37
7723.46
7723.55
7723.63
7723.72
7723.81
7723.9
7723.99
7724.07
7724.16
7724.25
7724.34
7724.43
7724.52
7724.6
7724.69
7724.77
7724.88
7724.96
7725.02
7725.1
7725.18
7725.26
7725.34
7725.43
7725.52
7725.61
7725.7
7725.79
7725.88
7725.97
7726.06
7726.16
7726.25
7726.34
7726.44
7726.53
7726.61
7726.7
7726.79
7726.88
7726.97
7727.07
7727.16
7727.25
7727.35
7727.44
7727.53
7727.63
7727.72
7727.82
7727.91
7728
7728.08
7728.18
7728.24
7728.37
7728.44
7728.49
7728.55
7728.62
7728.69
7728.76
7728.84
7728.92
7729
7729.08
7729.16
7729.24
7729.32
7729.4
7729.49
7729.57
7729.66
7729.74
7729.82
7729.91
7729.99
7730.08
7730.16
7730.25
7730.34
7730.42
7730.51
7730.59
7730.68
7730.76
7730.85
7730.93
7731.02
7731.11
7731.19
7731.28
7731.36
7731.45
7731.53
7731.61
7731.7
7731.78
7731.87
7731.95
7732.03
7732.12
7732.2
7732.28
7732.37
7732.45
7732.53
7732.61
7732.69
7732.77
7732.85
7732.93
7733.01
7733.09
7733.17
7733.25
7733.33
7733.41
7733.49
7733.57
7733.64
7733.72
7733.8
7733.87
7733.95
7734.02
7734.1
7734.17
7734.25
7734.32
7734.4
7734.47
7734.54
7734.62
7734.69
7734.75
7734.85
7095.91
7102.88
7106.28
7109.74
7113.26
7116.89
7120.71
7124.75
7129.05
7133.52
7138.1
7142.84
7147.78
7152.92
7158.23
7163.71
7169.36
7175.2
7181.2
7187.39
7193.74
7200.28
7206.98
7213.82
7220.83
7228.02
7235.36
7242.87
7250.52
7258.31
7266.25
7274.34
7282.58
7290.94
7299.43
7308.06
7316.78
7325.64
7334.62
7343.72
7352.94
7362.25
7371.65
7381.15
7390.74
7400.4
7410.15
7419.96
7429.83
7439.77
7449.78
7459.85
7469.97
7480.11
7490.28
7500.48
7510.73
7521
7531.28
7541.56
7551.85
7562.14
7572.41
7582.65
7592.83
7602.99
7613.1
7623.15
7633.1
7642.96
7652.72
7662.36
7671.88
7681.24
7690.42
7699.41
7708.2
7716.87
7725.72
7734.65
7741.89
7750.43
7767.18
7777.86
7789.25
7800.34
7811.14
7821.7
7832.56
7844.11
7855.46
7866.55
7877.9
7888.88
7900
7911
7922.06
7932.89
7943.81
7954.21
7964.53
7975.02
7985.83
7995.91
8006.12
8016.31
8026.93
8036.81
8046.77
8056.35
8065.67
8074.88
8083.88
8092.7
8101.31
8109.72
8117.9
8125.92
8133.67
8141.27
8148.7
8155.7
8162.71
8169.3
8175.8
8182.02
8187.97
8193.55
8198.89
8203.87
8208.56
8212.94
8216.98
8220.67
8224.01
8226.99
8229.6
8231.84
8233.71
8235.2
8236.31
8237.03
8237.38
8237.34
8236.91
8236.12
8234.95
8233.42
8231.53
8229.27
8226.67
8223.73
8220.45
8216.86
8212.94
8208.71
8204.19
8199.38
8194.29
8188.94
8183.31
8177.45
8171.35
8165.02
8158.48
8151.73
8144.8
8137.69
8130.41
8122.96
8115.38
8107.67
8099.84
8091.89
8083.85
8075.73
8067.53
8059.27
8050.95
8042.6
8034.21
8025.79
8017.37
8008.94
8000.52
7992.11
7983.72
7975.36
7967.03
7958.75
7950.51
7942.33
7934.21
7926.16
7918.18
7910.28
7902.45
7894.71
7887.07
7879.51
7872.06
7864.7
7857.43
7850.28
7843.23
7836.29
7829.46
7822.73
7816.11
7809.61
7803.21
7796.92
7790.74
7784.67
7778.71
7772.86
7767.11
7761.47
7755.94
7750.5
7745.18
7739.96
7734.83
7729.81
7724.89
7720.06
7715.33
7710.7
7706.15
7701.71
7697.35
7693.08
7688.9
7684.8
7680.79
7676.87
7673.02
7669.26
7665.58
7661.97
7658.45
7655
7651.62
7648.32
7645.09
7641.92
7638.83
7635.8
7632.85
7629.95
7627.12
7624.36
7621.65
7619.01
7616.42
7613.9
7611.43
7609.01
7606.65
7604.35
7602.1
7599.9
7597.74
7595.64
7593.59
7591.58
7589.62
7587.71
7585.84
7584.01
7582.23
7580.48
7578.78
7577.12
7575.49
7573.91
7572.36
7570.85
7569.37
7567.93
7566.53
7565.15
7563.81
7562.5
7561.22
7559.97
7558.76
7557.57
7556.41
7555.27
7554.17
7553.09
7552.03
7551
7550
7549.02
7548.06
7547.12
7546.21
7545.32
7544.45
7543.6
7542.78
7541.97
7541.19
7540.43
7539.69
7538.97
7538.27
7537.59
7536.94
7536.3
7535.69
7535.1
7534.52
7533.97
7533.43
7532.92
7532.42
7531.95
7531.49
7531.05
7530.63
7530.22
7529.84
7529.47
7529.12
7528.78
7528.46
7528.15
7527.86
7527.59
7527.32
7527.08
7526.84
7526.62
7526.41
7526.22
7526.03
7525.86
7525.7
7525.55
7525.41
7525.28
7525.16
7525.04
7524.94
7524.85
7524.76
7524.69
7524.62
7524.55
7524.5
7524.45
7524.4
7524.37
7524.34
7524.31
7524.29
7524.28
7524.27
7524.26
7524.26
7524.27
7524.27
7524.28
7524.3
7524.32
7524.34
7524.37
7524.4
7524.43
7524.46
7524.5
7524.54
7524.58
7524.62
7524.67
7524.72
7524.77
7524.82
7524.88
7524.93
7524.99
7525.05
7525.11
7525.17
7525.24
7525.3
7525.37
7525.44
7525.51
7525.58
7525.65
7525.72
7525.79
7525.87
7525.94
7526.02
7526.1
7526.18
7526.26
7526.34
7526.42
7526.5
7526.58
7526.66
7526.74
7526.83
7526.91
7527
7527.08
7527.17
7527.26
7527.34
7527.43
7527.52
7527.61
7527.7
7527.78
7527.88
7527.96
7528.05
7528.14
7528.23
7528.31
7528.42
7528.51
7528.57
7528.65
7528.73
7528.81
7528.89
7528.97
7529.05
7529.14
7529.23
7529.31
7529.41
7529.49
7529.59
7529.68
7529.77
7529.86
7529.96
7530.05
7530.14
7530.23
7530.32
7530.4
7530.5
7530.59
7530.68
7530.77
7530.86
7530.96
7531.05
7531.15
7531.24
7531.34
7531.43
7531.52
7531.61
7531.71
7531.78
7531.93
7532.01
7532.07
7532.14
7532.21
7532.28
7532.35
7532.42
7532.5
7532.57
7532.65
7532.73
7532.8
7532.88
7532.96
7533.05
7533.13
7533.21
7533.29
7533.38
7533.46
7533.54
7533.63
7533.71
7533.8
7533.88
7533.97
7534.05
7534.14
7534.22
7534.31
7534.39
7534.48
7534.57
7534.65
7534.74
7534.82
7534.91
7534.99
7535.08
7535.16
7535.25
7535.33
7535.42
7535.5
7535.58
7535.67
7535.75
7535.83
7535.92
7536
7536.08
7536.17
7536.25
7536.33
7536.41
7536.49
7536.57
7536.65
7536.73
7536.81
7536.89
7536.97
7537.05
7537.13
7537.21
7537.29
7537.37
7537.44
7537.52
7537.6
7537.67
7537.75
7537.83
7537.9
7537.98
7538.05
7538.12
7538.2
7538.27
7538.34
7538.42
7538.49
7538.55
7538.66
6898.74
6905.72
6909.12
6912.57
6916.08
6919.69
6923.5
6927.53
6931.82
6936.29
6940.85
6945.58
6950.52
6955.67
6960.98
6966.47
6972.14
6977.98
6984
6990.2
6996.57
7003.11
7009.82
7016.69
7023.73
7030.94
7038.31
7045.83
7053.49
7061.31
7069.28
7077.38
7085.63
7094.02
7102.53
7111.18
7119.94
7128.81
7137.81
7146.94
7156.18
7165.51
7174.93
7184.44
7194.03
7203.72
7213.51
7223.36
7233.26
7243.22
7253.23
7263.31
7273.43
7283.61
7293.83
7304.07
7314.34
7324.63
7334.94
7345.27
7355.6
7365.92
7376.23
7386.52
7396.78
7407
7417.18
7427.29
7437.31
7447.27
7457.16
7466.94
7476.61
7486.18
7495.63
7504.99
7514.26
7523.51
7532.87
7542.42
7551.89
7561.36
7570.91
7578.32
7587.11
7604.36
7615.28
7627.44
7637.97
7648.8
7659.37
7670.2
7681.71
7693.02
7704.12
7715.35
7726.3
7737.26
7748.13
7758.93
7769.45
7780.06
7790.46
7800.8
7811.31
7821.65
7831.45
7841.17
7850.5
7860.45
7870.11
7879.58
7888.6
7897.41
7906.02
7914.44
7922.69
7930.76
7938.61
7946.2
7953.64
7960.77
7967.79
7974.55
7980.71
7987
7992.75
7998.45
8003.86
8008.93
8013.6
8018
8021.98
8025.69
8029.05
8032.07
8034.72
8036.96
8038.83
8040.31
8041.4
8042.12
8042.46
8042.41
8041.98
8041.18
8040
8038.46
8036.55
8034.28
8031.67
8028.72
8025.43
8021.81
8017.86
8013.61
8009.07
8004.23
7999.11
7993.72
7988.07
7982.17
7976.03
7969.67
7963.09
7956.31
7949.34
7942.19
7934.88
7927.4
7919.78
7912.03
7904.17
7896.19
7888.11
7879.95
7871.72
7863.42
7855.07
7846.68
7838.26
7829.82
7821.36
7812.91
7804.46
7796.02
7787.61
7779.22
7770.87
7762.57
7754.31
7746.11
7737.97
7729.9
7721.91
7713.99
7706.15
7698.4
7690.73
7683.17
7675.7
7668.33
7661.06
7653.89
7646.83
7639.88
7633.04
7626.31
7619.68
7613.17
7606.77
7600.47
7594.29
7588.22
7582.25
7576.4
7570.65
7565.01
7559.48
7554.05
7548.72
7543.49
7538.37
7533.35
7528.43
7523.61
7518.88
7514.24
7509.7
7505.26
7500.9
7496.64
7492.46
7488.37
7484.36
7480.44
7476.6
7472.84
7469.16
7465.56
7462.03
7458.59
7455.21
7451.91
7448.68
7445.52
7442.43
7439.41
7436.45
7433.56
7430.73
7427.97
7425.26
7422.62
7420.04
7417.52
7415.05
7412.64
7410.28
7407.98
7405.73
7403.53
7401.38
7399.28
7397.23
7395.22
7393.26
7391.35
7389.48
7387.66
7385.88
7384.13
7382.43
7380.77
7379.15
7377.57
7376.02
7374.51
7373.04
7371.6
7370.19
7368.82
7367.48
7366.17
7364.9
7363.65
7362.43
7361.24
7360.08
7358.95
7357.85
7356.77
7355.72
7354.69
7353.68
7352.7
7351.75
7350.81
7349.9
7349.01
7348.15
7347.3
7346.47
7345.67
7344.89
7344.13
7343.39
7342.67
7341.98
7341.3
7340.65
7340.01
7339.4
7338.81
7338.23
7337.68
7337.15
7336.64
7336.14
7335.67
7335.21
7334.77
7334.35
7333.95
7333.57
7333.2
7332.85
7332.51
7332.19
7331.89
7331.6
7331.33
7331.07
7330.82
7330.59
7330.37
7330.16
7329.97
7329.78
7329.61
7329.45
7329.3
7329.16
7329.03
7328.92
7328.81
7328.7
7328.61
7328.53
7328.45
7328.38
7328.32
7328.26
7328.22
7328.17
7328.14
7328.11
7328.08
7328.07
7328.05
7328.04
7328.04
7328.04
7328.04
7328.05
7328.06
7328.08
7328.1
7328.12
7328.15
7328.18
7328.21
7328.24
7328.28
7328.32
7328.36
7328.41
7328.45
7328.5
7328.55
7328.61
7328.66
7328.72
7328.78
7328.84
7328.9
7328.96
7329.02
7329.09
7329.16
7329.22
7329.29
7329.37
7329.44
7329.51
7329.58
7329.66
7329.73
7329.81
7329.89
7329.97
7330.05
7330.13
7330.21
7330.29
7330.37
7330.45
7330.54
7330.62
7330.71
7330.79
7330.88
7330.96
7331.05
7331.14
7331.23
7331.31
7331.4
7331.49
7331.58
7331.66
7331.76
7331.84
7331.96
7332.04
7332.1
7332.19
7332.26
7332.35
7332.43
7332.51
7332.59
7332.68
7332.76
7332.85
7332.93
7333.02
7333.11
7333.19
7333.29
7333.38
7333.48
7333.57
7333.65
7333.74
7333.83
7333.92
7334.02
7334.11
7334.2
7334.29
7334.38
7334.48
7334.56
7334.66
7334.75
7334.86
7334.94
7335.04
7335.13
7335.23
7335.31
7335.46
7335.54
7335.59
7335.67
7335.74
7335.82
7335.9
7335.97
7336.05
7336.12
7336.2
7336.28
7336.35
7336.43
7336.51
7336.59
7336.67
7336.75
7336.84
7336.92
7337
7337.09
7337.17
7337.25
7337.34
7337.42
7337.51
7337.59
7337.68
7337.76
7337.85
7337.94
7338.02
7338.11
7338.19
7338.28
7338.36
7338.45
7338.54
7338.62
7338.71
7338.79
7338.88
7338.96
7339.05
7339.13
7339.22
7339.3
7339.38
7339.47
7339.55
7339.64
7339.72
7339.8
7339.88
7339.97
7340.05
7340.13
7340.21
7340.29
7340.37
7340.46
7340.54
7340.62
7340.7
7340.78
7340.85
7340.93
7341.01
7341.09
7341.17
7341.25
7341.32
7341.4
7341.48
7341.55
7341.63
7341.7
7341.78
7341.85
7341.93
7342
7342.07
7342.15
7342.22
7342.29
7342.35
7342.46
6701.05
6708.07
6711.46
6714.91
6718.41
6722.03
6725.83
6729.85
6734.13
6738.59
6743.16
6747.88
6752.81
6757.95
6763.27
6768.76
6774.44
6780.29
6786.31
6792.51
6798.9
6805.45
6812.18
6819.07
6826.14
6833.37
6840.75
6848.28
6855.95
6863.8
6871.81
6879.96
6888.23
6896.64
6905.19
6913.87
6922.69
6931.61
6940.65
6949.79
6959.04
6968.4
6977.85
6987.39
6997.01
7006.73
7016.54
7026.43
7036.37
7046.36
7056.41
7066.52
7076.69
7086.91
7097.19
7107.49
7117.8
7128.13
7138.5
7148.88
7159.27
7169.65
7180.02
7190.38
7200.73
7211.05
7221.31
7231.51
7241.66
7251.76
7261.78
7271.72
7281.58
7291.36
7301.09
7310.77
7320.42
7330.05
7339.71
7349.35
7359.11
7368.85
7378.93
7388.99
7399.23
7409.31
7418.98
7426.43
7435.15
7452.19
7463.78
7474.85
7486.36
7496.89
7507.88
7519.31
7530.66
7541.66
7552.77
7563.56
7574.27
7584.9
7595.54
7605.76
7616.13
7626.14
7636.37
7646.23
7656.44
7666.47
7675.36
7684.57
7693.32
7702.45
7711.26
7719.76
7727.98
7736.05
7743.88
7751.58
7759.05
7766.28
7773.16
7780
7786.43
7792.87
7798.87
7804.08
7809.53
7814.35
7819.13
7823.66
7827.77
7831.47
7834.82
7837.8
7840.42
7842.65
7844.57
7846.07
7847.18
7847.9
7848.22
7848.16
7847.72
7846.9
7845.7
7844.13
7842.2
7839.91
7837.27
7834.28
7830.96
7827.3
7823.32
7819.03
7814.45
7809.57
7804.41
7798.98
7793.28
7787.34
7781.16
7774.74
7768.12
7761.29
7754.27
7747.07
7739.69
7732.17
7724.5
7716.7
7708.77
7700.74
7692.62
7684.4
7676.12
7667.77
7659.38
7650.94
7642.47
7633.98
7625.48
7616.98
7608.49
7600.01
7591.56
7583.13
7574.75
7566.41
7558.12
7549.89
7541.72
7533.62
7525.6
7517.65
7509.79
7502.01
7494.33
7486.74
7479.25
7471.86
7464.58
7457.39
7450.32
7443.35
7436.5
7429.76
7423.13
7416.61
7410.19
7403.9
7397.71
7391.63
7385.66
7379.81
7374.06
7368.42
7362.88
7357.45
7352.13
7346.9
7341.78
7336.77
7331.85
7327.03
7322.3
7317.67
7313.13
7308.68
7304.34
7300.07
7295.89
7291.81
7287.8
7283.89
7280.05
7276.29
7272.62
7269.02
7265.5
7262.06
7258.68
7255.39
7252.16
7249.01
7245.92
7242.9
7239.95
7237.06
7234.24
7231.48
7228.78
7226.14
7223.56
7221.04
7218.57
7216.17
7213.81
7211.51
7209.27
7207.07
7204.92
7202.83
7200.78
7198.78
7196.82
7194.91
7193.05
7191.22
7189.45
7187.71
7186.01
7184.35
7182.73
7181.15
7179.61
7178.1
7176.63
7175.19
7173.79
7172.42
7171.08
7169.77
7168.5
7167.26
7166.04
7164.86
7163.7
7162.57
7161.46
7160.39
7159.34
7158.31
7157.31
7156.33
7155.38
7154.45
7153.54
7152.65
7151.78
7150.94
7150.12
7149.31
7148.53
7147.78
7147.04
7146.32
7145.63
7144.96
7144.3
7143.67
7143.06
7142.47
7141.9
7141.35
7140.82
7140.31
7139.82
7139.35
7138.89
7138.46
7138.04
7137.64
7137.26
7136.89
7136.54
7136.21
7135.89
7135.59
7135.31
7135.03
7134.78
7134.53
7134.3
7134.09
7133.88
7133.69
7133.51
7133.34
7133.18
7133.03
7132.9
7132.77
7132.65
7132.54
7132.45
7132.35
7132.27
7132.2
7132.13
7132.07
7132.02
7131.97
7131.93
7131.89
7131.87
7131.84
7131.83
7131.81
7131.81
7131.8
7131.8
7131.81
7131.82
7131.83
7131.85
7131.87
7131.89
7131.92
7131.95
7131.98
7132.02
7132.06
7132.1
7132.14
7132.18
7132.23
7132.28
7132.33
7132.39
7132.44
7132.5
7132.56
7132.62
7132.68
7132.74
7132.81
7132.87
7132.94
7133.01
7133.08
7133.15
7133.22
7133.3
7133.37
7133.44
7133.52
7133.6
7133.68
7133.76
7133.84
7133.92
7134
7134.08
7134.16
7134.24
7134.33
7134.41
7134.49
7134.58
7134.67
7134.75
7134.84
7134.93
7135.02
7135.1
7135.19
7135.28
7135.37
7135.48
7135.57
7135.63
7135.71
7135.79
7135.87
7135.96
7136.04
7136.12
7136.21
7136.29
7136.37
7136.46
7136.54
7136.63
7136.72
7136.81
7136.9
7137
7137.09
7137.17
7137.26
7137.35
7137.43
7137.53
7137.62
7137.71
7137.8
7137.9
7137.99
7138.09
7138.17
7138.28
7138.37
7138.46
7138.55
7138.64
7138.74
7138.82
7138.98
7139.06
7139.12
7139.2
7139.28
7139.36
7139.44
7139.53
7139.6
7139.68
7139.76
7139.84
7139.91
7139.99
7140.07
7140.15
7140.23
7140.31
7140.39
7140.47
7140.55
7140.64
7140.72
7140.8
7140.89
7140.97
7141.05
7141.14
7141.22
7141.31
7141.39
7141.48
7141.57
7141.65
7141.74
7141.82
7141.91
7141.99
7142.08
7142.17
7142.25
7142.34
7142.42
7142.51
7142.59
7142.68
7142.76
7142.85
7142.93
7143.02
7143.1
7143.19
7143.27
7143.35
7143.44
7143.52
7143.6
7143.69
7143.77
7143.85
7143.93
7144.01
7144.1
7144.18
7144.26
7144.34
7144.42
7144.5
7144.58
7144.66
7144.74
7144.81
7144.89
7144.97
7145.05
7145.12
7145.2
7145.28
7145.35
7145.43
7145.5
7145.58
7145.65
7145.73
7145.8
7145.88
7145.95
7146.02
7146.09
7146.16
7146.26
6502.86
6509.91
6513.3
6516.74
6520.25
6523.85
6527.65
6531.66
6535.94
6540.39
6544.94
6549.65
6554.58
6559.71
6565.04
6570.54
6576.23
6582.08
6588.11
6594.33
6600.72
6607.3
6614.05
6620.98
6628.07
6635.32
6642.71
6650.25
6657.96
6665.86
6673.91
6682.1
6690.41
6698.85
6707.44
6716.15
6725
6733.97
6743.05
6752.24
6761.53
6770.93
6780.43
6790.01
6799.68
6809.44
6819.3
6829.23
6839.21
6849.25
6859.35
6869.51
6879.74
6890.02
6900.36
6910.73
6921.1
6931.5
6941.92
6952.38
6962.84
6973.29
6983.75
6994.21
7004.66
7015.07
7025.44
7035.78
7046.07
7056.31
7066.49
7076.61
7086.67
7096.67
7106.64
7116.59
7126.52
7136.43
7146.36
7156.29
7166.28
7176.2
7186.21
7196.3
7206.51
7216.94
7227.43
7237.9
7247.6
7257.29
7265.46
7273.94
7290.25
7302.19
7313.11
7324.58
7335.21
7346.08
7357.3
7368.58
7379.42
7390.25
7400.94
7411.36
7421.77
7432.1
7442.06
7452.12
7461.68
7471.59
7480.94
7490.86
7500.07
7508.19
7516.81
7524.95
7533.51
7541.86
7549.81
7557.46
7564.91
7572.1
7579.15
7585.95
7592.47
7598.63
7604.77
7610.42
7616.22
7621.36
7625.5
7630.07
7633.81
7637.69
7641.14
7644.35
7647.08
7649.27
7651.16
7652.57
7653.64
7654.37
7654.69
7654.61
7654.15
7653.29
7652.05
7650.44
7648.47
7646.14
7643.46
7640.42
7637.05
7633.34
7629.31
7624.98
7620.34
7615.41
7610.19
7604.7
7598.96
7592.96
7586.72
7580.24
7573.56
7566.67
7559.58
7552.31
7544.87
7537.27
7529.54
7521.66
7513.67
7505.57
7497.38
7489.1
7480.74
7472.33
7463.87
7455.36
7446.83
7438.28
7429.72
7421.16
7412.62
7404.08
7395.57
7387.09
7378.66
7370.27
7361.94
7353.66
7345.45
7337.31
7329.24
7321.26
7313.37
7305.56
7297.84
7290.22
7282.71
7275.3
7267.99
7260.79
7253.69
7246.71
7239.84
7233.09
7226.44
7219.91
7213.49
7207.18
7200.99
7194.91
7188.94
7183.07
7177.32
7171.68
7166.15
7160.72
7155.4
7150.18
7145.06
7140.04
7135.13
7130.31
7125.58
7120.96
7116.42
7111.98
7107.64
7103.38
7099.21
7095.13
7091.13
7087.22
7083.39
7079.64
7075.97
7072.37
7068.86
7065.42
7062.05
7058.76
7055.54
7052.39
7049.31
7046.29
7043.35
7040.46
7037.65
7034.89
7032.2
7029.56
7026.99
7024.47
7022.01
7019.61
7017.26
7014.96
7012.72
7010.53
7008.38
7006.29
7004.25
7002.25
7000.3
6998.39
6996.53
6994.71
6992.94
6991.2
6989.51
6987.86
6986.24
6984.66
6983.12
6981.62
6980.15
6978.71
6977.31
6975.95
6974.61
6973.31
6972.04
6970.8
6969.58
6968.4
6967.25
6966.12
6965.02
6963.94
6962.9
6961.87
6960.87
6959.9
6958.95
6958.02
6957.11
6956.23
6955.36
6954.52
6953.7
6952.9
6952.13
6951.37
6950.64
6949.92
6949.23
6948.56
6947.91
6947.28
6946.68
6946.09
6945.52
6944.98
6944.45
6943.94
6943.45
6942.98
6942.53
6942.1
6941.69
6941.29
6940.91
6940.55
6940.21
6939.88
6939.56
6939.26
6938.98
6938.71
6938.46
6938.22
6937.99
6937.78
6937.58
6937.39
6937.21
6937.04
6936.89
6936.74
6936.61
6936.48
6936.37
6936.26
6936.17
6936.08
6936
6935.93
6935.86
6935.8
6935.75
6935.71
6935.67
6935.64
6935.61
6935.59
6935.57
6935.56
6935.56
6935.55
6935.56
6935.56
6935.57
6935.59
6935.61
6935.63
6935.65
6935.68
6935.71
6935.75
6935.78
6935.82
6935.86
6935.91
6935.95
6936
6936.05
6936.1
6936.16
6936.21
6936.27
6936.33
6936.39
6936.45
6936.52
6936.58
6936.65
6936.72
6936.79
6936.86
6936.93
6937
6937.08
6937.15
6937.23
6937.3
6937.38
6937.46
6937.54
6937.62
6937.7
6937.78
6937.86
6937.95
6938.03
6938.11
6938.2
6938.28
6938.37
6938.46
6938.54
6938.63
6938.71
6938.81
6938.89
6939.01
6939.09
6939.15
6939.23
6939.31
6939.39
6939.48
6939.56
6939.64
6939.73
6939.81
6939.9
6939.98
6940.06
6940.15
6940.24
6940.33
6940.43
6940.51
6940.59
6940.68
6940.76
6940.85
6940.94
6941.04
6941.12
6941.22
6941.31
6941.41
6941.49
6941.59
6941.68
6941.78
6941.88
6941.96
6942.06
6942.14
6942.25
6942.33
6942.49
6942.57
6942.63
6942.71
6942.79
6942.88
6942.96
6943.05
6943.13
6943.21
6943.29
6943.37
6943.45
6943.53
6943.61
6943.69
6943.77
6943.85
6943.93
6944.02
6944.1
6944.18
6944.26
6944.35
6944.43
6944.51
6944.6
6944.68
6944.77
6944.85
6944.94
6945.02
6945.11
6945.19
6945.28
6945.36
6945.45
6945.54
6945.62
6945.71
6945.79
6945.88
6945.97
6946.05
6946.14
6946.22
6946.31
6946.39
6946.48
6946.56
6946.65
6946.73
6946.82
6946.9
6946.99
6947.07
6947.16
6947.24
6947.32
6947.41
6947.49
6947.57
6947.65
6947.74
6947.82
6947.9
6947.98
6948.06
6948.14
6948.22
6948.3
6948.38
6948.46
6948.54
6948.62
6948.7
6948.77
6948.85
6948.93
6949
6949.08
6949.16
6949.23
6949.31
6949.38
6949.46
6949.53
6949.61
6949.68
6949.75
6949.82
6949.9
6949.96
6950.06
6304.17
6311.28
6314.67
6318.11
6321.6
6325.2
6328.98
6332.99
6337.26
6341.71
6346.25
6350.94
6355.85
6360.97
6366.3
6371.83
6377.53
6383.4
6389.43
6395.65
6402.06
6408.66
6415.44
6422.39
6429.52
6436.8
6444.22
6451.79
6459.55
6467.48
6475.57
6483.79
6492.15
6500.65
6509.27
6518.01
6526.89
6535.91
6545.05
6554.3
6563.67
6573.13
6582.68
6592.31
6602.03
6611.85
6621.77
6631.76
6641.8
6651.91
6662.07
6672.29
6682.59
6692.95
6703.36
6713.81
6724.27
6734.74
6745.24
6755.77
6766.32
6776.86
6787.43
6798
6808.55
6819.08
6829.58
6840.05
6850.5
6860.9
6871.24
6881.54
6891.79
6902.02
6912.21
6922.39
6932.55
6942.72
6952.89
6963.08
6973.14
6983.34
6993.56
7003.85
7014.17
7024.44
7034.63
7044.68
7054.91
7065.35
7075.74
7086.2
7095.67
7103.28
7111.58
7128.27
7140.79
7151.58
7162.99
7173.53
7184.18
7195.11
7206.28
7216.76
7227.42
7237.68
7247.92
7257.9
7267.92
7277.73
7287.13
7296.46
7305.63
7314.5
7324.18
7332.78
7339.95
7348.07
7355.56
7363.55
7371.43
7378.77
7385.74
7392.49
7398.96
7405.28
7411.35
7417.08
7422.43
7427.8
7432.61
7437.71
7441.89
7444.93
7448.41
7451.31
7453.85
7456.12
7458.24
7459.8
7460.85
7461.54
7461.77
7461.64
7461.18
7460.31
7459.04
7457.39
7455.36
7452.97
7450.24
7447.15
7443.72
7439.95
7435.87
7431.48
7426.78
7421.78
7416.5
7410.94
7405.12
7399.05
7392.74
7386.19
7379.42
7372.45
7365.27
7357.92
7350.39
7342.71
7334.89
7326.93
7318.85
7310.66
7302.38
7294.01
7285.58
7277.08
7268.53
7259.95
7251.34
7242.71
7234.07
7225.44
7216.81
7208.21
7199.63
7191.08
7182.59
7174.14
7165.74
7157.41
7149.15
7140.96
7132.84
7124.81
7116.87
7109.03
7101.27
7093.62
7086.07
7078.63
7071.29
7064.07
7056.95
7049.95
7043.06
7036.29
7029.63
7023.08
7016.65
7010.34
7004.14
6998.05
6992.07
6986.21
6980.45
6974.81
6969.28
6963.85
6958.52
6953.31
6948.19
6943.18
6938.27
6933.45
6928.74
6924.12
6919.59
6915.16
6910.82
6906.57
6902.4
6898.33
6894.33
6890.43
6886.6
6882.86
6879.2
6875.61
6872.1
6868.67
6865.31
6862.02
6858.81
6855.67
6852.59
6849.58
6846.64
6843.76
6840.95
6838.2
6835.51
6832.89
6830.32
6827.81
6825.35
6822.95
6820.61
6818.32
6816.08
6813.89
6811.76
6809.67
6807.63
6805.64
6803.69
6801.79
6799.93
6798.12
6796.35
6794.62
6792.93
6791.28
6789.67
6788.1
6786.56
6785.06
6783.59
6782.16
6780.77
6779.41
6778.07
6776.78
6775.51
6774.27
6773.06
6771.88
6770.73
6769.6
6768.51
6767.44
6766.39
6765.37
6764.37
6763.4
6762.45
6761.53
6760.63
6759.74
6758.88
6758.05
6757.23
6756.44
6755.66
6754.91
6754.18
6753.47
6752.79
6752.12
6751.47
6750.85
6750.25
6749.66
6749.1
6748.56
6748.03
6747.53
6747.05
6746.58
6746.14
6745.71
6745.3
6744.91
6744.53
6744.17
6743.83
6743.51
6743.2
6742.9
6742.63
6742.36
6742.11
6741.87
6741.65
6741.44
6741.24
6741.06
6740.89
6740.72
6740.57
6740.43
6740.3
6740.18
6740.07
6739.96
6739.87
6739.79
6739.71
6739.64
6739.58
6739.52
6739.47
6739.43
6739.39
6739.36
6739.34
6739.32
6739.31
6739.3
6739.29
6739.29
6739.3
6739.31
6739.32
6739.34
6739.35
6739.38
6739.4
6739.43
6739.47
6739.5
6739.54
6739.58
6739.62
6739.67
6739.71
6739.76
6739.81
6739.87
6739.92
6739.98
6740.04
6740.1
6740.16
6740.22
6740.29
6740.35
6740.42
6740.49
6740.56
6740.63
6740.7
6740.78
6740.85
6740.93
6741
6741.08
6741.16
6741.24
6741.32
6741.4
6741.48
6741.56
6741.64
6741.73
6741.81
6741.9
6741.98
6742.06
6742.15
6742.23
6742.33
6742.41
6742.53
6742.61
6742.66
6742.75
6742.82
6742.9
6742.99
6743.07
6743.15
6743.24
6743.32
6743.41
6743.49
6743.58
6743.66
6743.75
6743.84
6743.94
6744.03
6744.1
6744.19
6744.27
6744.36
6744.44
6744.54
6744.63
6744.72
6744.81
6744.91
6744.99
6745.1
6745.18
6745.29
6745.38
6745.48
6745.56
6745.67
6745.74
6745.91
6745.99
6746.05
6746.13
6746.21
6746.3
6746.39
6746.48
6746.56
6746.65
6746.73
6746.82
6746.9
6746.98
6747.07
6747.15
6747.23
6747.31
6747.39
6747.48
6747.56
6747.64
6747.72
6747.81
6747.89
6747.97
6748.06
6748.14
6748.22
6748.31
6748.39
6748.48
6748.56
6748.65
6748.73
6748.82
6748.91
6748.99
6749.08
6749.16
6749.25
6749.34
6749.42
6749.51
6749.59
6749.68
6749.77
6749.85
6749.94
6750.02
6750.11
6750.2
6750.28
6750.37
6750.45
6750.54
6750.62
6750.71
6750.79
6750.87
6750.96
6751.04
6751.13
6751.21
6751.29
6751.37
6751.46
6751.54
6751.62
6751.7
6751.78
6751.86
6751.95
6752.03
6752.11
6752.19
6752.26
6752.34
6752.42
6752.5
6752.58
6752.66
6752.73
6752.81
6752.89
6752.96
6753.04
6753.11
6753.19
6753.26
6753.34
6753.41
6753.48
6753.56
6753.63
6753.7
6753.77
6753.87
6104.98
6112.14
6115.53
6118.97
6122.46
6126.04
6129.82
6133.81
6138.08
6142.52
6147.04
6151.73
6156.62
6161.74
6167.06
6172.61
6178.34
6184.24
6190.29
6196.51
6202.93
6209.56
6216.37
6223.35
6230.52
6237.84
6245.29
6252.89
6260.67
6268.64
6276.76
6285.04
6293.47
6302.02
6310.7
6319.49
6328.42
6337.49
6346.69
6356.02
6365.46
6374.99
6384.6
6394.3
6404.09
6413.99
6423.99
6434.06
6444.19
6454.37
6464.61
6474.91
6485.28
6495.71
6506.21
6516.75
6527.33
6537.91
6548.5
6559.1
6569.73
6580.38
6591.05
6601.74
6612.41
6623.06
6633.7
6644.31
6654.9
6665.46
6675.98
6686.47
6696.92
6707.35
6717.75
6728.14
6738.52
6748.9
6759.28
6769.65
6779.99
6790.36
6800.74
6811.15
6821.57
6831.97
6842.34
6852.7
6863.05
6873.29
6883.39
6893.4
6904.22
6915.2
6925.79
6935.39
6943.45
6951.6
6967.2
6979.93
6990.49
7001.66
7012.06
7022.44
7032.98
7043.87
7054.05
7064.37
7074.26
7084.08
7093.59
7103.04
7112.34
7121.18
7130.01
7138.67
7147.07
7156.58
7164.54
7170.62
7178.14
7184.92
7192.27
7199.61
7206.25
7212.43
7218.41
7224.01
7229.6
7234.8
7239.7
7244.29
7248.61
7252.74
7256.26
7260.26
7263.09
7264.31
7266.29
7267.35
7268.45
7269.36
7269.7
7269.51
7268.96
7267.98
7266.64
7264.97
7262.91
7260.46
7257.66
7254.51
7251
7247.17
7243.01
7238.55
7233.77
7228.69
7223.32
7217.68
7211.77
7205.61
7199.21
7192.56
7185.7
7178.62
7171.34
7163.88
7156.25
7148.47
7140.53
7132.46
7124.27
7115.98
7107.59
7099.12
7090.58
7081.99
7073.34
7064.66
7055.95
7047.22
7038.49
7029.77
7021.06
7012.37
7003.7
6995.08
6986.5
6977.98
6969.52
6961.12
6952.79
6944.54
6936.37
6928.29
6920.3
6912.41
6904.61
6896.92
6889.33
6881.85
6874.49
6867.23
6860.09
6853.06
6846.15
6839.35
6832.68
6826.12
6819.67
6813.35
6807.14
6801.04
6795.06
6789.19
6783.44
6777.79
6772.26
6766.83
6761.51
6756.3
6751.19
6746.18
6741.27
6736.47
6731.76
6727.14
6722.63
6718.2
6713.86
6709.62
6705.46
6701.39
6697.41
6693.51
6689.7
6685.96
6682.31
6678.73
6675.23
6671.8
6668.45
6665.17
6661.97
6658.83
6655.76
6652.76
6649.83
6646.96
6644.15
6641.41
6638.73
6636.11
6633.55
6631.04
6628.6
6626.2
6623.87
6621.58
6619.35
6617.17
6615.04
6612.96
6610.93
6608.94
6607
6605.1
6603.25
6601.44
6599.68
6597.95
6596.27
6594.62
6593.02
6591.45
6589.92
6588.42
6586.96
6585.54
6584.15
6582.79
6581.46
6580.17
6578.9
6577.67
6576.46
6575.29
6574.14
6573.02
6571.93
6570.86
6569.82
6568.8
6567.81
6566.84
6565.9
6564.98
6564.08
6563.2
6562.35
6561.51
6560.7
6559.91
6559.14
6558.4
6557.67
6556.97
6556.28
6555.62
6554.98
6554.36
6553.76
6553.19
6552.63
6552.09
6551.57
6551.07
6550.6
6550.14
6549.7
6549.27
6548.87
6548.48
6548.11
6547.76
6547.42
6547.1
6546.8
6546.51
6546.24
6545.98
6545.73
6545.5
6545.28
6545.08
6544.89
6544.7
6544.54
6544.38
6544.23
6544.09
6543.97
6543.85
6543.74
6543.64
6543.55
6543.47
6543.4
6543.33
6543.27
6543.22
6543.18
6543.14
6543.1
6543.08
6543.05
6543.04
6543.03
6543.02
6543.02
6543.02
6543.03
6543.04
6543.05
6543.07
6543.09
6543.12
6543.15
6543.18
6543.21
6543.25
6543.29
6543.33
6543.37
6543.42
6543.47
6543.52
6543.57
6543.62
6543.68
6543.74
6543.8
6543.86
6543.92
6543.98
6544.05
6544.12
6544.18
6544.25
6544.33
6544.4
6544.47
6544.54
6544.62
6544.7