/*--------------------------------*- C++ -*----------------------------------*\
| =========                 |                                                 |
| \\      /  F ield         | OpenFOAM: The Open Source CFD Toolbox           |
|  \\    /   O peration     | Version:  v2006                                 |
|   \\  /    A nd           | Website:  www.openfoam.com                      |
|    \\/     M anipulation  |                                                 |
\*---------------------------------------------------------------------------*/
FoamFile
{
    version     2.0;
    format      ascii;
    class       volScalarField;
    location    "3.4";
    object      p_rgh;
}
// * * * * * * * * * * * * * * * * * * * * * * * * * * * * * * * * * * * * * //

dimensions      [1 -1 -2 0 0 0 0];


internalField   nonuniform List<scalar> 
33000
(
7390.69
7397.66
7401.07
7404.53
7408.06
7411.69
7415.5
7419.54
7423.82
7428.23
7432.79
7437.52
7442.5
7447.68
7453
7458.49
7464.14
7469.97
7475.96
7482.13
7488.48
7495.02
7501.73
7508.59
7515.58
7522.73
7530.03
7537.53
7545.21
7553.02
7560.95
7569.04
7577.27
7585.6
7594.03
7602.58
7611.34
7620.25
7629.24
7638.31
7647.45
7656.72
7666.13
7675.69
7685.28
7694.93
7704.61
7714.34
7724.24
7734.22
7744.24
7754.31
7764.39
7774.51
7784.67
7794.89
7805.14
7815.4
7825.66
7835.91
7846.18
7856.45
7866.7
7876.9
7887.06
7897.16
7907.18
7917.18
7927.13
7936.95
7946.64
7956.19
7965.56
7974.71
7983.53
7991.93
7999.79
8006.54
8013.9
8030.1
8039.34
8049.98
8061.1
8071.58
8082.36
8094.07
8105.16
8116.39
8127.58
8138.71
8149.85
8160.89
8172.02
8183.06
8194.13
8205.1
8216.05
8226.78
8237.38
8247.98
8258.31
8268.78
8279.59
8290.14
8300.65
8310.88
8320.94
8330.8
8340.54
8350.21
8359.56
8368.79
8377.75
8386.49
8395.08
8403.45
8411.58
8419.62
8427.32
8435
8442.35
8449.52
8456.45
8463.14
8469.54
8475.72
8481.61
8487.22
8492.55
8497.55
8502.24
8506.62
8510.64
8514.32
8517.65
8520.63
8523.26
8525.5
8527.37
8528.87
8529.97
8530.69
8531.02
8530.99
8530.58
8529.78
8528.62
8527.08
8525.21
8522.96
8520.37
8517.42
8514.15
8510.57
8506.67
8502.46
8497.93
8493.13
8488.07
8482.73
8477.13
8471.27
8465.2
8458.89
8452.37
8445.64
8438.72
8431.63
8424.37
8416.94
8409.38
8401.69
8393.87
8385.95
8377.91
8369.81
8361.63
8353.39
8345.08
8336.74
8328.36
8319.97
8311.56
8303.15
8294.73
8286.34
8277.97
8269.62
8261.3
8253.03
8244.81
8236.64
8228.53
8220.48
8212.51
8204.61
8196.8
8189.07
8181.43
8173.88
8166.43
8159.07
8151.81
8144.67
8137.62
8130.69
8123.86
8117.13
8110.52
8104.01
8097.62
8091.33
8085.15
8079.09
8073.13
8067.28
8061.53
8055.89
8050.36
8044.93
8039.6
8034.38
8029.26
8024.23
8019.31
8014.48
8009.75
8005.12
8000.57
7996.12
7991.76
7987.49
7983.31
7979.21
7975.21
7971.27
7967.43
7963.67
7959.99
7956.38
7952.85
7949.4
7946.02
7942.72
7939.48
7936.32
7933.22
7930.2
7927.24
7924.34
7921.51
7918.75
7916.04
7913.4
7910.81
7908.28
7905.81
7903.4
7901.04
7898.73
7896.48
7894.28
7892.12
7890.02
7887.97
7885.96
7884
7882.08
7880.21
7878.39
7876.6
7874.85
7873.15
7871.49
7869.86
7868.28
7866.73
7865.22
7863.74
7862.3
7860.89
7859.51
7858.17
7856.86
7855.58
7854.33
7853.12
7851.93
7850.76
7849.63
7848.52
7847.44
7846.39
7845.36
7844.35
7843.37
7842.41
7841.48
7840.56
7839.67
7838.8
7837.95
7837.13
7836.32
7835.54
7834.77
7834.03
7833.31
7832.62
7831.94
7831.28
7830.65
7830.03
7829.44
7828.86
7828.31
7827.77
7827.26
7826.76
7826.29
7825.83
7825.39
7824.96
7824.56
7824.17
7823.8
7823.45
7823.11
7822.79
7822.48
7822.19
7821.91
7821.65
7821.4
7821.17
7820.95
7820.74
7820.54
7820.36
7820.18
7820.02
7819.87
7819.73
7819.6
7819.48
7819.36
7819.26
7819.17
7819.08
7819
7818.93
7818.87
7818.81
7818.76
7818.72
7818.68
7818.65
7818.62
7818.6
7818.59
7818.58
7818.57
7818.57
7818.58
7818.58
7818.6
7818.61
7818.63
7818.65
7818.68
7818.7
7818.74
7818.77
7818.81
7818.85
7818.89
7818.93
7818.98
7819.03
7819.08
7819.13
7819.18
7819.24
7819.3
7819.35
7819.42
7819.48
7819.54
7819.61
7819.67
7819.74
7819.81
7819.88
7819.95
7820.02
7820.1
7820.17
7820.25
7820.32
7820.4
7820.48
7820.56
7820.64
7820.72
7820.8
7820.88
7820.96
7821.05
7821.13
7821.22
7821.3
7821.39
7821.47
7821.56
7821.65
7821.73
7821.82
7821.91
7822
7822.09
7822.17
7822.26
7822.35
7822.44
7822.53
7822.62
7822.7
7822.79
7822.87
7822.98
7823.06
7823.12
7823.2
7823.28
7823.36
7823.44
7823.53
7823.62
7823.71
7823.8
7823.89
7823.98
7824.07
7824.16
7824.26
7824.35
7824.44
7824.54
7824.63
7824.71
7824.8
7824.89
7824.98
7825.07
7825.17
7825.26
7825.35
7825.45
7825.54
7825.63
7825.73
7825.82
7825.92
7826.01
7826.1
7826.18
7826.28
7826.34
7826.47
7826.53
7826.58
7826.65
7826.71
7826.79
7826.86
7826.94
7827.01
7827.09
7827.17
7827.26
7827.34
7827.42
7827.5
7827.59
7827.67
7827.75
7827.84
7827.92
7828.01
7828.09
7828.18
7828.26
7828.35
7828.44
7828.52
7828.61
7828.69
7828.78
7828.86
7828.95
7829.03
7829.12
7829.21
7829.29
7829.38
7829.46
7829.55
7829.63
7829.71
7829.8
7829.88
7829.97
7830.05
7830.13
7830.22
7830.3
7830.38
7830.47
7830.55
7830.63
7830.71
7830.79
7830.87
7830.95
7831.03
7831.11
7831.19
7831.27
7831.35
7831.43
7831.51
7831.59
7831.67
7831.74
7831.82
7831.9
7831.97
7832.05
7832.12
7832.2
7832.27
7832.35
7832.42
7832.5
7832.57
7832.64
7832.72
7832.79
7832.85
7832.95
7390.21
7397.19
7400.59
7404.05
7407.57
7411.21
7415.03
7419.07
7423.37
7427.85
7432.43
7437.17
7442.11
7447.26
7452.57
7458.04
7463.69
7469.52
7475.53
7481.71
7488.06
7494.59
7501.29
7508.13
7515.13
7522.29
7529.55
7537.04
7544.7
7552.56
7560.54
7568.63
7576.87
7585.18
7593.56
7602.16
7610.89
7619.79
7628.88
7637.97
7647.09
7656.36
7665.76
7675.31
7685
7694.68
7704.37
7714.04
7723.9
7733.84
7743.95
7754.13
7764.26
7774.36
7784.44
7794.63
7804.93
7815.28
7825.57
7835.81
7846.02
7856.37
7866.7
7876.93
7887.07
7897.1
7907.21
7917.27
7927.36
7937.19
7946.85
7956.49
7966.05
7975.51
7984.71
7993.68
8002.38
8011.04
8019.89
8028.86
8036.16
8044.68
8061.41
8072.13
8083.53
8094.62
8105.32
8115.9
8126.82
8138.4
8149.75
8160.85
8172.16
8183.08
8194.19
8205.2
8216.32
8227.16
8238.04
8248.44
8258.77
8269.29
8280.12
8290.2
8300.37
8310.55
8321.17
8331.05
8341.01
8350.62
8359.94
8369.13
8378.09
8386.91
8395.52
8403.93
8412.17
8420.21
8427.94
8435.52
8442.95
8449.98
8457
8463.55
8470.03
8476.25
8482.2
8487.8
8493.16
8498.12
8502.8
8507.2
8511.26
8514.93
8518.25
8521.23
8523.85
8526.11
8527.98
8529.49
8530.59
8531.28
8531.62
8531.6
8531.19
8530.37
8529.19
8527.66
8525.78
8523.55
8520.94
8517.96
8514.69
8511.09
8507.21
8503
8498.45
8493.63
8488.55
8483.21
8477.6
8471.71
8465.62
8459.32
8452.77
8446
8439.07
8431.98
8424.7
8417.24
8409.65
8401.94
8394.13
8386.19
8378.12
8370
8361.8
8353.56
8345.24
8336.86
8328.47
8320.06
8311.65
8303.23
8294.78
8286.38
8278.01
8269.64
8261.31
8253.03
8244.79
8236.62
8228.5
8220.44
8212.46
8204.56
8196.74
8188.99
8181.35
8173.81
8166.35
8158.98
8151.71
8144.56
8137.52
8130.59
8123.75
8117.01
8110.39
8103.89
8097.5
8091.21
8085.02
8078.95
8072.99
8067.15
8061.4
8055.75
8050.21
8044.78
8039.47
8034.25
8029.12
8024.1
8019.17
8014.34
8009.61
8004.98
8000.45
7996
7991.63
7987.36
7983.18
7979.09
7975.09
7971.15
7967.31
7963.55
7959.87
7956.26
7952.73
7949.28
7945.91
7942.6
7939.37
7936.22
7933.11
7930.09
7927.14
7924.24
7921.41
7918.64
7915.94
7913.3
7910.71
7908.18
7905.72
7903.31
7900.94
7898.64
7896.39
7894.19
7892.04
7889.93
7887.88
7885.87
7883.91
7882.01
7880.14
7878.31
7876.52
7874.78
7873.07
7871.41
7869.79
7868.21
7866.65
7865.14
7863.67
7862.23
7860.82
7859.44
7858.1
7856.8
7855.52
7854.27
7853.05
7851.86
7850.7
7849.57
7848.46
7847.38
7846.33
7845.3
7844.29
7843.31
7842.36
7841.42
7840.51
7839.62
7838.75
7837.9
7837.07
7836.27
7835.48
7834.72
7833.98
7833.27
7832.57
7831.89
7831.23
7830.6
7829.99
7829.39
7828.82
7828.26
7827.73
7827.22
7826.72
7826.24
7825.79
7825.35
7824.93
7824.52
7824.14
7823.77
7823.41
7823.08
7822.76
7822.45
7822.16
7821.88
7821.62
7821.38
7821.14
7820.92
7820.71
7820.52
7820.33
7820.16
7820
7819.85
7819.71
7819.58
7819.46
7819.34
7819.24
7819.15
7819.06
7818.98
7818.91
7818.85
7818.8
7818.75
7818.7
7818.67
7818.64
7818.61
7818.59
7818.58
7818.57
7818.56
7818.56
7818.56
7818.57
7818.58
7818.6
7818.62
7818.64
7818.67
7818.69
7818.73
7818.76
7818.8
7818.84
7818.88
7818.92
7818.97
7819.02
7819.07
7819.12
7819.17
7819.23
7819.29
7819.35
7819.41
7819.47
7819.54
7819.6
7819.67
7819.74
7819.8
7819.88
7819.95
7820.02
7820.09
7820.17
7820.24
7820.32
7820.4
7820.48
7820.56
7820.63
7820.72
7820.8
7820.88
7820.96
7821.04
7821.13
7821.21
7821.3
7821.38
7821.47
7821.56
7821.64
7821.73
7821.82
7821.91
7822
7822.08
7822.17
7822.26
7822.35
7822.44
7822.53
7822.61
7822.72
7822.81
7822.87
7822.95
7823.03
7823.11
7823.19
7823.27
7823.35
7823.44
7823.53
7823.61
7823.71
7823.79
7823.88
7823.97
7824.07
7824.16
7824.26
7824.35
7824.44
7824.53
7824.62
7824.7
7824.8
7824.88
7824.98
7825.07
7825.16
7825.26
7825.35
7825.45
7825.54
7825.64
7825.73
7825.82
7825.91
7826.01
7826.09
7826.24
7826.31
7826.37
7826.45
7826.53
7826.6
7826.67
7826.74
7826.81
7826.89
7826.96
7827.04
7827.12
7827.19
7827.27
7827.35
7827.44
7827.52
7827.6
7827.68
7827.76
7827.85
7827.93
7828.01
7828.1
7828.18
7828.27
7828.35
7828.44
7828.52
7828.61
7828.69
7828.78
7828.87
7828.95
7829.04
7829.12
7829.21
7829.29
7829.38
7829.46
7829.55
7829.63
7829.72
7829.8
7829.89
7829.97
7830.05
7830.14
7830.22
7830.3
7830.38
7830.47
7830.55
7830.63
7830.71
7830.79
7830.87
7830.96
7831.04
7831.12
7831.2
7831.27
7831.35
7831.43
7831.51
7831.59
7831.67
7831.74
7831.82
7831.9
7831.97
7832.05
7832.13
7832.2
7832.28
7832.35
7832.43
7832.5
7832.57
7832.65
7832.72
7832.79
7832.85
7832.96
7389.23
7396.21
7399.61
7403.06
7406.58
7410.2
7414.01
7418.04
7422.34
7426.81
7431.38
7436.11
7441.05
7446.2
7451.51
7457
7462.67
7468.51
7474.52
7480.72
7487.08
7493.62
7500.33
7507.19
7514.23
7521.42
7528.75
7536.26
7543.96
7551.78
7559.66
7567.69
7575.94
7584.38
7593.01
7601.65
7610.24
7618.94
7627.94
7637.1
7646.6
7655.94
7665.18
7674.67
7684.32
7694.19
7703.99
7713.75
7723.46
7733.38
7743.67
7753.79
7763.93
7774.06
7784.13
7794.31
7804.58
7815.04
7825.4
7835.57
7845.87
7856.2
7866.66
7876.96
7887.03
7897.18
7907.38
7917.69
7927.72
7937.5
7947.36
7957.14
7966.88
7976.62
7986.11
7995.4
8004.55
8013.81
8023.22
8032.88
8042.37
8051.77
8061.28
8068.74
8077.58
8094.82
8105.59
8117.83
8128.44
8139.29
8149.85
8160.62
8172.09
8183.4
8194.58
8205.83
8216.77
8227.73
8238.53
8249.32
8259.86
8270.53
8280.95
8291.29
8301.8
8312.07
8321.86
8331.64
8340.97
8350.87
8360.5
8369.96
8379.05
8387.89
8396.42
8404.8
8413.14
8421.25
8429.1
8436.65
8444.05
8451.18
8458.25
8465.02
8471.16
8477.38
8483.13
8488.87
8494.31
8499.36
8504
8508.43
8512.38
8516.09
8519.47
8522.54
8525.18
8527.38
8529.25
8530.75
8531.87
8532.54
8532.88
8532.88
8532.42
8531.58
8530.4
8528.91
8527.01
8524.73
8522.06
8519.11
8515.82
8512.26
8508.33
8504.08
8499.46
8494.66
8489.59
8484.2
8478.52
8472.6
8466.48
8460.15
8453.58
8446.76
8439.78
8432.67
8425.36
8417.85
8410.22
8402.49
8394.65
8386.64
8378.56
8370.41
8362.19
8353.87
8345.53
8337.15
8328.74
8320.3
8311.84
8303.35
8294.9
8286.48
8278.1
8269.71
8261.36
8253.05
8244.78
8236.57
8228.43
8220.39
8212.4
8204.48
8196.62
8188.84
8181.21
8173.66
8166.19
8158.82
8151.52
8144.37
8137.32
8130.37
8123.52
8116.76
8110.15
8103.66
8097.25
8090.94
8084.76
8078.71
8072.74
8066.89
8061.14
8055.49
8049.95
8044.51
8039.2
8033.99
8028.86
8023.83
8018.9
8014.09
8009.37
8004.73
8000.2
7995.75
7991.38
7987.12
7982.95
7978.86
7974.85
7970.93
7967.09
7963.31
7959.62
7956.03
7952.51
7949.07
7945.7
7942.4
7939.17
7936.01
7932.9
7929.88
7926.93
7924.05
7921.22
7918.46
7915.74
7913.11
7910.53
7908.01
7905.54
7903.12
7900.76
7898.47
7896.22
7894.02
7891.86
7889.76
7887.71
7885.71
7883.76
7881.85
7879.98
7878.15
7876.37
7874.62
7872.92
7871.26
7869.64
7868.06
7866.52
7865.01
7863.53
7862.09
7860.68
7859.31
7857.97
7856.67
7855.39
7854.14
7852.93
7851.73
7850.58
7849.45
7848.34
7847.26
7846.21
7845.18
7844.18
7843.2
7842.24
7841.31
7840.4
7839.51
7838.64
7837.79
7836.97
7836.16
7835.39
7834.62
7833.89
7833.17
7832.47
7831.8
7831.14
7830.51
7829.89
7829.3
7828.73
7828.18
7827.65
7827.13
7826.64
7826.17
7825.71
7825.27
7824.85
7824.45
7824.07
7823.7
7823.35
7823.01
7822.69
7822.39
7822.1
7821.82
7821.56
7821.32
7821.09
7820.87
7820.66
7820.47
7820.28
7820.11
7819.95
7819.8
7819.66
7819.53
7819.41
7819.3
7819.2
7819.11
7819.03
7818.95
7818.88
7818.82
7818.76
7818.72
7818.67
7818.64
7818.61
7818.58
7818.56
7818.55
7818.54
7818.54
7818.54
7818.54
7818.55
7818.56
7818.58
7818.6
7818.62
7818.65
7818.68
7818.71
7818.74
7818.78
7818.82
7818.86
7818.91
7818.95
7819
7819.05
7819.11
7819.16
7819.22
7819.28
7819.33
7819.4
7819.46
7819.52
7819.59
7819.66
7819.72
7819.79
7819.86
7819.94
7820.01
7820.08
7820.16
7820.23
7820.31
7820.39
7820.47
7820.55
7820.63
7820.71
7820.79
7820.87
7820.95
7821.04
7821.12
7821.21
7821.29
7821.38
7821.46
7821.55
7821.64
7821.73
7821.81
7821.9
7821.99
7822.08
7822.16
7822.26
7822.34
7822.46
7822.54
7822.6
7822.68
7822.76
7822.85
7822.93
7823.01
7823.09
7823.18
7823.26
7823.35
7823.43
7823.52
7823.61
7823.69
7823.79
7823.88
7823.98
7824.07
7824.15
7824.24
7824.33
7824.42
7824.52
7824.61
7824.7
7824.79
7824.88
7824.98
7825.06
7825.16
7825.25
7825.36
7825.45
7825.54
7825.63
7825.73
7825.81
7825.96
7826.03
7826.09
7826.15
7826.22
7826.3
7826.37
7826.45
7826.53
7826.61
7826.68
7826.76
7826.84
7826.92
7827
7827.08
7827.16
7827.24
7827.33
7827.41
7827.49
7827.58
7827.66
7827.75
7827.84
7827.92
7828.01
7828.09
7828.18
7828.26
7828.35
7828.44
7828.52
7828.61
7828.69
7828.78
7828.86
7828.95
7829.03
7829.12
7829.2
7829.29
7829.38
7829.46
7829.55
7829.63
7829.71
7829.8
7829.88
7829.97
7830.05
7830.13
7830.22
7830.3
7830.38
7830.47
7830.55
7830.63
7830.71
7830.79
7830.88
7830.96
7831.04
7831.12
7831.2
7831.28
7831.35
7831.43
7831.51
7831.59
7831.67
7831.74
7831.82
7831.9
7831.97
7832.05
7832.13
7832.2
7832.28
7832.35
7832.42
7832.5
7832.57
7832.64
7832.72
7832.79
7832.85
7832.96
7387.74
7394.75
7398.16
7401.6
7405.11
7408.73
7412.54
7416.57
7420.87
7425.34
7429.91
7434.65
7439.58
7444.73
7450.05
7455.54
7461.21
7467.06
7473.08
7479.28
7485.65
7492.2
7498.92
7505.81
7512.86
7520.08
7527.46
7534.98
7542.65
7550.5
7558.5
7566.58
7574.81
7583.3
7591.89
7600.57
7609.35
7618.1
7626.96
7636.3
7645.72
7655.09
7664.53
7674.05
7683.67
7693.4
7703.24
7713.12
7723.06
7733.04
7743.08
7753.2
7763.38
7773.61
7783.86
7794.06
7804.3
7814.76
7825.15
7835.52
7845.83
7856.25
7866.69
7877.06
7887.3
7897.4
7907.87
7918.16
7928.11
7938.04
7948.06
7958.01
7967.94
7977.87
7987.7
7997.33
8006.84
8016.47
8026.2
8035.99
8045.78
8055.47
8065.46
8075.51
8085.87
8095.93
8105.42
8112.88
8121.73
8138.87
8150.46
8161.53
8172.92
8183.39
8194.39
8205.9
8217.32
8228.32
8239.43
8250.22
8260.93
8271.52
8282.16
8292.43
8302.81
8312.81
8322.97
8332.86
8343.12
8353.15
8362
8371.11
8379.96
8389.13
8397.94
8406.41
8414.6
8422.7
8430.55
8438.25
8445.71
8452.9
8459.81
8466.65
8473.03
8479.49
8485.53
8490.7
8496.13
8500.94
8505.77
8510.3
8514.38
8518.03
8521.41
8524.45
8527.07
8529.25
8531.15
8532.71
8533.76
8534.47
8534.86
8534.81
8534.33
8533.46
8532.28
8530.78
8528.84
8526.48
8523.82
8520.83
8517.56
8513.94
8509.95
8505.59
8501
8496.14
8491.05
8485.65
8479.91
8473.94
8467.76
8461.38
8454.77
8447.9
8440.88
8433.71
8426.37
8418.8
8411.12
8403.32
8395.44
8387.38
8379.24
8371.04
8362.77
8354.41
8346.01
8337.59
8329.14
8320.63
8312.13
8303.61
8295.11
8286.64
8278.23
8269.82
8261.4
8253.05
8244.77
8236.54
8228.34
8220.26
8212.28
8204.33
8196.47
8188.64
8180.97
8173.42
8165.93
8158.5
8151.22
8144.05
8137
8130.04
8123.15
8116.4
8109.78
8103.29
8096.87
8090.55
8084.35
8078.29
8072.33
8066.49
8060.74
8055.08
8049.52
8044.11
8038.81
8033.57
8028.45
8023.44
8018.52
8013.69
8008.96
8004.32
7999.81
7995.37
7991.02
7986.73
7982.55
7978.48
7974.49
7970.57
7966.7
7962.95
7959.29
7955.71
7952.19
7948.74
7945.34
7942.06
7938.85
7935.68
7932.58
7929.58
7926.63
7923.74
7920.91
7918.16
7915.46
7912.83
7910.24
7907.72
7905.25
7902.83
7900.49
7898.2
7895.95
7893.76
7891.61
7889.51
7887.46
7885.45
7883.5
7881.6
7879.74
7877.91
7876.12
7874.39
7872.7
7871.04
7869.41
7867.83
7866.29
7864.79
7863.32
7861.87
7860.47
7859.1
7857.77
7856.47
7855.19
7853.94
7852.73
7851.55
7850.39
7849.25
7848.15
7847.08
7846.03
7845
7844
7843.02
7842.06
7841.14
7840.23
7839.34
7838.47
7837.63
7836.8
7836.01
7835.23
7834.47
7833.73
7833.02
7832.32
7831.65
7831
7830.37
7829.75
7829.17
7828.6
7828.05
7827.52
7827.01
7826.51
7826.04
7825.59
7825.15
7824.74
7824.34
7823.95
7823.59
7823.24
7822.91
7822.59
7822.29
7822
7821.73
7821.47
7821.23
7821
7820.78
7820.58
7820.39
7820.21
7820.04
7819.88
7819.73
7819.59
7819.47
7819.35
7819.24
7819.14
7819.05
7818.97
7818.89
7818.83
7818.77
7818.71
7818.67
7818.63
7818.59
7818.56
7818.54
7818.52
7818.51
7818.5
7818.5
7818.5
7818.51
7818.52
7818.53
7818.55
7818.57
7818.59
7818.62
7818.65
7818.68
7818.72
7818.75
7818.79
7818.84
7818.88
7818.93
7818.98
7819.03
7819.08
7819.14
7819.2
7819.25
7819.32
7819.38
7819.44
7819.5
7819.57
7819.64
7819.71
7819.78
7819.85
7819.92
7819.99
7820.07
7820.14
7820.22
7820.3
7820.38
7820.45
7820.53
7820.61
7820.7
7820.78
7820.86
7820.94
7821.03
7821.11
7821.19
7821.28
7821.36
7821.45
7821.54
7821.63
7821.72
7821.8
7821.89
7821.98
7822.07
7822.18
7822.27
7822.33
7822.41
7822.49
7822.57
7822.65
7822.74
7822.82
7822.91
7822.99
7823.07
7823.16
7823.24
7823.33
7823.41
7823.51
7823.6
7823.7
7823.79
7823.87
7823.96
7824.05
7824.13
7824.23
7824.32
7824.41
7824.5
7824.6
7824.69
7824.79
7824.87
7824.98
7825.07
7825.16
7825.25
7825.34
7825.44
7825.52
7825.68
7825.76
7825.83
7825.9
7825.99
7826.07
7826.16
7826.24
7826.32
7826.39
7826.47
7826.55
7826.62
7826.7
7826.78
7826.86
7826.93
7827.01
7827.09
7827.17
7827.26
7827.34
7827.42
7827.5
7827.59
7827.67
7827.75
7827.84
7827.92
7828.01
7828.09
7828.18
7828.26
7828.35
7828.44
7828.52
7828.61
7828.69
7828.78
7828.87
7828.95
7829.04
7829.12
7829.21
7829.29
7829.38
7829.46
7829.55
7829.63
7829.72
7829.8
7829.89
7829.97
7830.05
7830.14
7830.22
7830.3
7830.39
7830.47
7830.55
7830.63
7830.72
7830.8
7830.88
7830.96
7831.04
7831.12
7831.2
7831.28
7831.36
7831.44
7831.52
7831.59
7831.67
7831.75
7831.83
7831.9
7831.98
7832.06
7832.13
7832.21
7832.28
7832.36
7832.43
7832.5
7832.58
7832.65
7832.72
7832.79
7832.86
7832.96
7385.73
7392.8
7396.2
7399.65
7403.15
7406.76
7410.56
7414.57
7418.86
7423.32
7427.88
7432.6
7437.53
7442.67
7448
7453.51
7459.19
7465.05
7471.08
7477.29
7483.68
7490.26
7497.01
7503.93
7511.02
7518.26
7525.65
7533.18
7540.89
7548.79
7556.84
7565.03
7573.34
7581.78
7590.36
7599.06
7607.9
7616.87
7625.95
7635.12
7644.42
7653.83
7663.32
7672.9
7682.57
7692.34
7702.19
7712.12
7722.11
7732.15
7742.25
7752.41
7762.64
7772.92
7783.26
7793.62
7803.98
7814.34
7824.76
7835.26
7845.73
7856.19
7866.64
7877.1
7887.49
7897.88
7908.3
7918.64
7928.8
7938.71
7948.98
7959.35
7969.31
7979.2
7989.17
7999.21
8009.35
8019.29
8029.09
8038.85
8048.84
8058.76
8068.95
8079.16
8089.4
8099.81
8110.08
8120.39
8130.09
8139.94
8148.31
8156.76
8172.9
8184.87
8195.94
8207.4
8217.86
8228.71
8239.99
8251.42
8262.29
8273.08
8283.67
8294.07
8304.49
8314.9
8324.93
8335
8344.55
8354.37
8363.71
8373.67
8382.89
8390.98
8399.61
8407.8
8416.36
8424.67
8432.62
8440.27
8447.78
8454.97
8461.98
8468.74
8475.26
8481.47
8487.64
8493.3
8499.09
8504.15
8508.25
8512.82
8516.61
8520.54
8523.99
8527.11
8529.83
8532.02
8534.01
8535.43
8536.39
8537.1
8537.42
8537.37
8537
8536.07
8534.76
8533.15
8531.19
8528.93
8526.16
8523.13
8519.83
8516.16
8512.03
8507.69
8503.05
8498.12
8492.95
8487.56
8481.8
8475.73
8469.49
8463.02
8456.33
8449.44
8442.41
8435.15
8427.71
8420.07
8412.33
8404.46
8396.49
8388.44
8380.19
8371.9
8363.54
8355.15
8346.73
8338.17
8329.63
8321.12
8312.52
8303.96
8295.41
8286.9
8278.44
8269.92
8261.45
8253.1
8244.74
8236.45
8228.24
8220.1
8212.08
8204.14
8196.23
8188.36
8180.64
8173.03
8165.57
8158.16
8150.82
8143.6
8136.5
8129.52
8122.66
8115.96
8109.32
8102.74
8096.31
8090.03
8083.82
8077.73
8071.76
8065.94
8060.19
8054.51
8048.97
8043.55
8038.27
8033.03
8027.89
8022.87
8017.97
8013.18
8008.44
8003.79
7999.25
7994.81
7990.51
7986.22
7982.05
7977.97
7974.01
7970.08
7966.22
7962.47
7958.8
7955.25
7951.74
7948.28
7944.9
7941.62
7938.39
7935.24
7932.16
7929.17
7926.22
7923.33
7920.5
7917.74
7915.05
7912.45
7909.85
7907.33
7904.87
7902.46
7900.12
7897.84
7895.6
7893.41
7891.26
7889.16
7887.12
7885.13
7883.17
7881.26
7879.4
7877.58
7875.8
7874.08
7872.4
7870.75
7869.11
7867.53
7865.99
7864.5
7863.02
7861.59
7860.19
7858.83
7857.49
7856.18
7854.91
7853.67
7852.47
7851.29
7850.12
7849
7847.9
7846.82
7845.77
7844.76
7843.76
7842.78
7841.83
7840.9
7839.99
7839.11
7838.24
7837.4
7836.59
7835.79
7835.01
7834.25
7833.52
7832.81
7832.12
7831.45
7830.8
7830.17
7829.57
7828.98
7828.41
7827.86
7827.34
7826.83
7826.34
7825.87
7825.43
7824.99
7824.58
7824.18
7823.8
7823.44
7823.1
7822.77
7822.45
7822.16
7821.87
7821.61
7821.35
7821.11
7820.89
7820.67
7820.47
7820.28
7820.1
7819.94
7819.78
7819.64
7819.5
7819.38
7819.27
7819.16
7819.06
7818.97
7818.89
7818.82
7818.76
7818.7
7818.65
7818.6
7818.56
7818.53
7818.51
7818.49
7818.47
7818.46
7818.45
7818.45
7818.45
7818.46
7818.47
7818.49
7818.5
7818.53
7818.55
7818.58
7818.61
7818.64
7818.68
7818.72
7818.76
7818.8
7818.85
7818.9
7818.95
7819
7819.05
7819.11
7819.17
7819.23
7819.29
7819.35
7819.42
7819.48
7819.55
7819.61
7819.68
7819.75
7819.83
7819.9
7819.97
7820.05
7820.12
7820.2
7820.28
7820.36
7820.44
7820.52
7820.6
7820.68
7820.76
7820.84
7820.93
7821.01
7821.09
7821.18
7821.27
7821.36
7821.44
7821.53
7821.61
7821.71
7821.79
7821.91
7821.99
7822.05
7822.13
7822.21
7822.29
7822.37
7822.46
7822.54
7822.63
7822.71
7822.79
7822.88
7822.96
7823.05
7823.14
7823.23
7823.33
7823.41
7823.49
7823.58
7823.66
7823.75
7823.84
7823.94
7824.02
7824.12
7824.21
7824.3
7824.39
7824.49
7824.58
7824.68
7824.77
7824.86
7824.96
7825.04
7825.15
7825.23
7825.39
7825.47
7825.53
7825.61
7825.68
7825.77
7825.85
7825.93
7826.01
7826.1
7826.18
7826.26
7826.34
7826.42
7826.5
7826.59
7826.67
7826.75
7826.83
7826.91
7826.99
7827.07
7827.16
7827.24
7827.32
7827.41
7827.49
7827.58
7827.66
7827.75
7827.83
7827.92
7828.01
7828.09
7828.18
7828.26
7828.35
7828.43
7828.52
7828.61
7828.69
7828.78
7828.86
7828.95
7829.04
7829.12
7829.21
7829.29
7829.38
7829.46
7829.55
7829.63
7829.72
7829.8
7829.89
7829.97
7830.06
7830.14
7830.22
7830.31
7830.39
7830.47
7830.55
7830.64
7830.72
7830.8
7830.88
7830.96
7831.04
7831.12
7831.2
7831.28
7831.36
7831.44
7831.52
7831.6
7831.67
7831.75
7831.83
7831.9
7831.98
7832.06
7832.13
7832.21
7832.28
7832.36
7832.43
7832.51
7832.58
7832.65
7832.72
7832.8
7832.86
7832.96
7383.24
7390.34
7393.74
7397.2
7400.7
7404.29
7408.08
7412.08
7416.36
7420.81
7425.35
7430.05
7434.95
7440.07
7445.4
7450.94
7456.65
7462.52
7468.54
7474.74
7481.15
7487.76
7494.57
7501.53
7508.65
7515.93
7523.34
7530.9
7538.66
7546.61
7554.71
7562.94
7571.3
7579.79
7588.41
7597.14
7606
7615.01
7624.14
7633.4
7642.77
7652.23
7661.78
7671.4
7681.12
7690.92
7700.78
7710.74
7720.85
7730.99
7741.14
7751.31
7761.56
7771.98
7782.44
7792.89
7803.23
7813.47
7823.94
7834.74
7845.38
7855.94
7866.51
7877.07
7887.61
7898.11
7908.65
7919.15
7929.58
7939.91
7950.22
7960.51
7970.61
7980.71
7991.1
8001.42
8011.64
8021.8
8031.92
8041.83
8051.83
8062.12
8072.56
8082.94
8093.26
8103.52
8113.47
8123.29
8133.51
8143.98
8154.69
8165.15
8174.46
8182.12
8190.6
8207.33
8219.78
8230.36
8241.76
8252.39
8263.23
8274.2
8285.3
8295.63
8306.29
8316.59
8326.96
8336.99
8347
8356.69
8366.07
8375.47
8384.68
8393.46
8403.13
8411.79
8419.02
8427.1
8434.59
8442.59
8450.49
8457.84
8464.78
8471.47
8477.94
8484.32
8490.43
8496.16
8501.52
8506.83
8511.55
8516.64
8520.84
8523.97
8527.45
8530.29
8532.76
8535.07
8537.3
8538.86
8539.81
8540.43
8540.69
8540.68
8540.24
8539.31
8537.91
8536.26
8534.33
8531.97
8529.24
8526.03
8522.68
8518.95
8514.83
8510.35
8505.7
8500.82
8495.54
8489.92
8484.1
8478.08
8471.79
8465.16
8458.4
8451.5
8444.35
8436.93
8429.4
8421.74
8413.95
8405.92
8397.86
8389.74
8381.44
8372.99
8364.57
8356.14
8347.61
8338.95
8330.32
8321.74
8313.1
8304.42
8295.81
8287.27
8278.68
8270.06
8261.56
8253.14
8244.79
8236.45
8228.15
8219.92
8211.84
8203.87
8195.94
8188.06
8180.26
8172.66
8165.13
8157.69
8150.32
8143.07
8135.96
8128.97
8122.1
8115.37
8108.7
8102.11
8095.66
8089.36
8083.2
8077.12
8071.11
8065.23
8059.48
8053.85
8048.35
8042.92
8037.55
8032.33
8027.22
8022.25
8017.35
8012.53
8007.8
8003.15
7998.61
7994.17
7989.87
7985.64
7981.46
7977.38
7973.42
7969.5
7965.63
7961.89
7958.26
7954.69
7951.14
7947.71
7944.35
7941.09
7937.86
7934.74
7931.67
7928.66
7925.69
7922.81
7920
7917.25
7914.58
7911.97
7909.4
7906.86
7904.4
7902.03
7899.69
7897.4
7895.14
7892.96
7890.83
7888.75
7886.7
7884.71
7882.76
7880.87
7879
7877.18
7875.42
7873.7
7872.02
7870.37
7868.74
7867.16
7865.63
7864.14
7862.68
7861.24
7859.85
7858.49
7857.15
7855.85
7854.58
7853.35
7852.15
7850.96
7849.8
7848.68
7847.59
7846.52
7845.47
7844.45
7843.46
7842.48
7841.54
7840.61
7839.71
7838.83
7837.97
7837.13
7836.32
7835.52
7834.75
7834
7833.27
7832.56
7831.87
7831.21
7830.56
7829.94
7829.33
7828.75
7828.19
7827.65
7827.13
7826.62
7826.14
7825.67
7825.23
7824.8
7824.39
7824
7823.62
7823.26
7822.93
7822.6
7822.29
7822
7821.72
7821.46
7821.21
7820.97
7820.75
7820.54
7820.34
7820.15
7819.98
7819.82
7819.67
7819.53
7819.4
7819.27
7819.16
7819.06
7818.97
7818.88
7818.8
7818.73
7818.67
7818.62
7818.57
7818.53
7818.49
7818.46
7818.44
7818.42
7818.4
7818.39
7818.39
7818.39
7818.4
7818.4
7818.42
7818.43
7818.45
7818.48
7818.5
7818.53
7818.56
7818.6
7818.64
7818.68
7818.72
7818.76
7818.81
7818.86
7818.91
7818.96
7819.02
7819.08
7819.14
7819.2
7819.26
7819.32
7819.38
7819.45
7819.52
7819.59
7819.66
7819.73
7819.8
7819.87
7819.95
7820.02
7820.1
7820.18
7820.26
7820.34
7820.42
7820.5
7820.58
7820.66
7820.74
7820.83
7820.91
7821
7821.08
7821.16
7821.25
7821.33
7821.42
7821.51
7821.63
7821.71
7821.76
7821.85
7821.92
7822
7822.09
7822.17
7822.25
7822.34
7822.42
7822.51
7822.59
7822.68
7822.76
7822.85
7822.94
7823.04
7823.12
7823.19
7823.29
7823.37
7823.46
7823.54
7823.64
7823.73
7823.82
7823.91
7824.01
7824.09
7824.2
7824.28
7824.39
7824.48
7824.58
7824.66
7824.77
7824.84
7825.01
7825.09
7825.15
7825.23
7825.31
7825.4
7825.49
7825.58
7825.67
7825.76
7825.84
7825.92
7826.01
7826.09
7826.17
7826.25
7826.33
7826.41
7826.5
7826.58
7826.66
7826.74
7826.82
7826.91
7826.99
7827.07
7827.15
7827.24
7827.32
7827.41
7827.49
7827.58
7827.66
7827.75
7827.83
7827.92
7828
7828.09
7828.18
7828.26
7828.35
7828.44
7828.52
7828.61
7828.69
7828.78
7828.87
7828.95
7829.04
7829.13
7829.21
7829.3
7829.38
7829.47
7829.55
7829.64
7829.72
7829.81
7829.89
7829.98
7830.06
7830.14
7830.23
7830.31
7830.39
7830.48
7830.56
7830.64
7830.72
7830.8
7830.89
7830.97
7831.05
7831.13
7831.21
7831.29
7831.37
7831.44
7831.52
7831.6
7831.68
7831.76
7831.83
7831.91
7831.99
7832.06
7832.14
7832.21
7832.29
7832.36
7832.44
7832.51
7832.58
7832.66
7832.73
7832.8
7832.87
7832.97
7380.25
7387.4
7390.79
7394.26
7397.75
7401.33
7405.07
7409.05
7413.33
7417.8
7422.33
7427.01
7431.83
7436.82
7442.12
7447.84
7453.63
7459.53
7465.5
7471.52
7477.83
7484.66
7491.64
7498.65
7505.82
7513.1
7520.43
7527.89
7535.67
7543.83
7552.04
7560.34
7568.77
7577.32
7586
7594.77
7603.6
7612.52
7621.73
7631.26
7640.75
7650.28
7659.89
7669.56
7679.22
7688.86
7698.69
7709.04
7719.39
7729.6
7739.59
7749.48
7759.56
7770.43
7781.27
7791.98
7802.35
7812.41
7822.82
7833.69
7844.6
7855.25
7865.98
7876.82
7887.63
7898.34
7908.98
7919.61
7930.2
7940.76
7951.27
7961.67
7971.79
7982.41
7992.97
8003.42
8013.81
8024.19
8034.56
8044.84
8055.02
8065.5
8075.99
8086.43
8096.86
8107.24
8117.52
8127.44
8137.83
8148.39
8158.56
8168.53
8179.16
8190.23
8201.02
8210.64
8218.69
8226.66
8242.11
8254.96
8265.73
8276.94
8287.33
8297.58
8308.05
8319.07
8329.33
8339.67
8349.56
8359.37
8368.87
8378.33
8387.6
8396.35
8405.24
8413.96
8422.35
8431.87
8439.8
8445.86
8453.34
8460.06
8467.5
8474.85
8481.5
8487.59
8493.55
8499.19
8504.86
8510.06
8514.96
8519.53
8523.71
8527.82
8531.33
8535.45
8538.35
8539.58
8541.56
8542.62
8543.68
8544.48
8544.92
8544.78
8544.23
8543.21
8541.84
8540.21
8538.14
8535.58
8532.81
8529.75
8526.24
8522.34
8518.19
8513.8
8509.04
8503.96
8498.57
8492.84
8487.02
8480.89
8474.48
8467.83
8460.97
8453.9
8446.62
8439.14
8431.5
8423.74
8415.81
8407.74
8399.56
8391.26
8382.87
8374.38
8365.85
8357.26
8348.61
8339.92
8331.15
8322.47
8313.74
8305.02
8296.32
8287.63
8278.94
8270.28
8261.74
8253.24
8244.77
8236.37
8228.05
8219.8
8211.57
8203.51
8195.57
8187.68
8179.88
8172.18
8164.58
8157.11
8149.75
8142.5
8135.32
8128.31
8121.42
8114.63
8107.95
8101.38
8094.93
8088.59
8082.41
8076.32
8070.34
8064.47
8058.72
8053.03
8047.52
8042.11
8036.79
8031.58
8026.42
8021.45
8016.56
8011.75
8007.04
8002.41
7997.9
7993.47
7989.11
7984.89
7980.74
7976.68
7972.69
7968.79
7964.97
7961.21
7957.58
7954
7950.5
7947.05
7943.73
7940.45
7937.24
7934.1
7931.04
7928.04
7925.11
7922.21
7919.43
7916.69
7914.01
7911.39
7908.83
7906.33
7903.88
7901.46
7899.14
7896.86
7894.63
7892.45
7890.29
7888.24
7886.21
7884.22
7882.28
7880.39
7878.54
7876.72
7874.94
7873.24
7871.56
7869.91
7868.31
7866.74
7865.21
7863.7
7862.25
7860.83
7859.44
7858.08
7856.75
7855.46
7854.19
7852.96
7851.75
7850.58
7849.43
7848.3
7847.22
7846.15
7845.11
7844.09
7843.1
7842.13
7841.19
7840.27
7839.37
7838.49
7837.64
7836.8
7835.99
7835.2
7834.43
7833.69
7832.96
7832.26
7831.58
7830.91
7830.27
7829.65
7829.06
7828.48
7827.92
7827.38
7826.87
7826.37
7825.89
7825.43
7824.99
7824.57
7824.16
7823.78
7823.41
7823.06
7822.72
7822.4
7822.09
7821.81
7821.53
7821.27
7821.03
7820.8
7820.58
7820.37
7820.18
7820
7819.83
7819.67
7819.53
7819.39
7819.26
7819.15
7819.04
7818.94
7818.85
7818.77
7818.7
7818.63
7818.57
7818.52
7818.47
7818.43
7818.4
7818.37
7818.35
7818.34
7818.32
7818.32
7818.32
7818.32
7818.33
7818.34
7818.35
7818.37
7818.39
7818.41
7818.44
7818.47
7818.51
7818.54
7818.58
7818.63
7818.67
7818.72
7818.76
7818.81
7818.87
7818.92
7818.98
7819.04
7819.1
7819.16
7819.22
7819.28
7819.35
7819.41
7819.48
7819.55
7819.62
7819.7
7819.77
7819.84
7819.92
7819.99
7820.07
7820.15
7820.23
7820.31