/*--------------------------------*- C++ -*----------------------------------*\
| =========                 |                                                 |
| \\      /  F ield         | OpenFOAM: The Open Source CFD Toolbox           |
|  \\    /   O peration     | Version:  v2006                                 |
|   \\  /    A nd           | Website:  www.openfoam.com                      |
|    \\/     M anipulation  |                                                 |
\*---------------------------------------------------------------------------*/
FoamFile
{
    version     2.0;
    format      ascii;
    class       surfaceScalarField;
    location    "3.4";
    object      phi;
}
// * * * * * * * * * * * * * * * * * * * * * * * * * * * * * * * * * * * * * //

dimensions      [0 3 -1 0 0 0 0];
oriented        oriented;


internalField   nonuniform List<scalar> 
65390
(
-0.000120725
-1.18095e-06
-0.000119698
-1.02554e-06
-0.000118649
-1.04718e-06
-0.000117576
-1.07187e-06
-0.000116501
-1.07452e-06
-0.000115342
-1.15872e-06
-0.00011406
-1.28274e-06
-0.000112732
-1.32956e-06
-0.000111375
-1.35974e-06
-0.000110047
-1.32956e-06
-0.000108698
-1.35141e-06
-0.000107327
-1.37396e-06
-0.000105904
-1.42495e-06
-0.000104412
-1.49401e-06
-0.000102849
-1.56512e-06
-0.00010129
-1.56141e-06
-9.97548e-05
-1.5363e-06
-9.82258e-05
-1.53019e-06
-9.67601e-05
-1.46657e-06
-9.53732e-05
-1.38712e-06
-9.39817e-05
-1.39086e-06
-9.2504e-05
-1.47662e-06
-9.08412e-05
-1.66201e-06
-8.90657e-05
-1.77507e-06
-8.73954e-05
-1.66998e-06
-8.59834e-05
-1.41098e-06
-8.4767e-05
-1.21437e-06
-8.34761e-05
-1.2882e-06
-8.18758e-05
-1.59753e-06
-8.01739e-05
-1.69957e-06
-7.85599e-05
-1.61233e-06
-7.70202e-05
-1.53881e-06
-7.53442e-05
-1.67567e-06
-7.35968e-05
-1.74739e-06
-7.20212e-05
-1.57534e-06
-7.07292e-05
-1.29076e-06
-6.94474e-05
-1.27973e-06
-6.79695e-05
-1.47542e-06
-6.62412e-05
-1.72618e-06
-6.44247e-05
-1.81541e-06
-6.28421e-05
-1.58231e-06
-6.15319e-05
-1.31011e-06
-6.01877e-05
-1.34381e-06
-5.85135e-05
-1.67298e-06
-5.65616e-05
-1.9502e-06
-5.4622e-05
-1.93781e-06
-5.29903e-05
-1.6303e-06
-5.17106e-05
-1.27877e-06
-5.04037e-05
-1.30639e-06
-4.88587e-05
-1.54452e-06
-4.717e-05
-1.68796e-06
-4.53051e-05
-1.86384e-06
-4.3432e-05
-1.8717e-06
-4.16982e-05
-1.73224e-06
-4.01968e-05
-1.4999e-06
-3.87513e-05
-1.44391e-06
-3.71507e-05
-1.59933e-06
-3.53559e-05
-1.79368e-06
-3.35681e-05
-1.7869e-06
-3.19473e-05
-1.62015e-06
-3.04172e-05
-1.52941e-06
-2.87811e-05
-1.63552e-06
-2.68831e-05
-1.89723e-06
-2.50042e-05
-1.87815e-06
-2.34262e-05
-1.57724e-06
-2.2113e-05
-1.3126e-06
-2.08745e-05
-1.23808e-06
-1.94419e-05
-1.43239e-06
-1.78745e-05
-1.56738e-06
-1.64541e-05
-1.42056e-06
-1.51974e-05
-1.2569e-06
-1.39531e-05
-1.24459e-06
-1.26293e-05
-1.32415e-06
-1.10235e-05
-1.6063e-06
-9.30481e-06
-1.71919e-06
-7.45624e-06
-1.84905e-06
-5.58683e-06
-1.86988e-06
-2.98923e-06
-2.59811e-06
-7.67646e-07
-2.22207e-06
-3.47517e-07
-4.20554e-07
-6.92652e-07
3.44775e-07
-1.55256e-06
8.59702e-07
-2.15605e-06
6.03261e-07
-2.82171e-06
6.657e-07
-3.14036e-06
3.18543e-07
-3.09587e-06
-4.45949e-08
-3.0458e-06
-4.99461e-08
-2.7353e-06
-3.10507e-07
-2.19375e-06
-5.41513e-07
-1.70305e-06
-4.90689e-07
-1.24529e-06
-4.57873e-07
-8.32925e-07
-4.1265e-07
-6.08504e-07
-2.24735e-07
-4.46419e-07
-1.62515e-07
-4.22889e-07
-2.40436e-08
-4.68727e-07
4.52536e-08
-9.29963e-07
4.60628e-07
-1.63434e-06
7.03831e-07
-3.29705e-06
1.66226e-06
-5.6958e-06
2.39847e-06
-7.65706e-06
1.96116e-06
-8.48556e-06
8.28552e-07
-8.20623e-06
-2.79153e-07
-7.87854e-06
-3.27445e-07
-7.03116e-06
-8.47051e-07
-6.07842e-06
-9.52346e-07
-5.44341e-06
-6.34605e-07
-5.08672e-06
-3.56344e-07
-4.69088e-06
-3.95523e-07
-4.1092e-06
-5.81309e-07
-3.58305e-06
-5.25754e-07
-2.9749e-06
-6.0778e-07
-2.39814e-06
-5.7644e-07
-1.88238e-06
-5.15501e-07
-1.54183e-06
-3.40415e-07
-1.27697e-06
-2.64902e-07
-1.43997e-06
1.62773e-07
-1.78199e-06
3.41646e-07
-1.83178e-06
4.93164e-08
-1.49107e-06
-3.41271e-07
-9.14379e-07
-5.77304e-07
-4.28555e-07
-4.8645e-07
2.20063e-07
-6.49278e-07
8.94954e-07
-6.75591e-07
1.4203e-06
-5.26034e-07
1.91917e-06
-4.99515e-07
2.40825e-06
-4.89686e-07
2.87346e-06
-4.65786e-07
3.35377e-06
-4.80822e-07
3.82906e-06
-4.75741e-07
4.27667e-06
-4.47991e-07
4.71811e-06
-4.41741e-07
5.14417e-06
-4.26325e-07
5.55433e-06
-4.10393e-07
5.95254e-06
-3.98426e-07
6.34733e-06
-3.94985e-07
6.74172e-06
-3.9452e-07
7.12627e-06
-3.84604e-07
7.49771e-06
-3.714e-07
7.86327e-06
-3.65409e-07
8.21838e-06
-3.5488e-07
8.55717e-06
-3.38503e-07
8.88241e-06
-3.24932e-07
9.20149e-06
-3.18771e-07
9.51002e-06
-3.08226e-07
9.80199e-06
-2.91674e-07
1.00805e-05
-2.78242e-07
1.03474e-05
-2.66598e-07
1.06064e-05
-2.58818e-07
1.08554e-05
-2.48801e-07
1.10904e-05
-2.35001e-07
1.13094e-05
-2.19097e-07
1.15158e-05
-2.06621e-07
1.17152e-05
-1.99764e-07
1.1909e-05
-1.94174e-07
1.20914e-05
-1.82861e-07
1.22562e-05
-1.65322e-07
1.24107e-05
-1.55038e-07
1.25586e-05
-1.48508e-07
1.27001e-05
-1.42014e-07
1.28291e-05
-1.29452e-07
1.29437e-05
-1.15044e-07
1.30511e-05
-1.07801e-07
1.31531e-05
-1.02407e-07
1.32444e-05
-9.16339e-08
1.33213e-05
-7.72306e-08
1.33898e-05
-6.8866e-08
1.34532e-05
-6.37613e-08
1.35082e-05
-5.53112e-08
1.35495e-05
-4.16719e-08
1.358e-05
-3.07901e-08
1.36053e-05
-2.56955e-08
1.36258e-05
-2.07856e-08
1.36353e-05
-9.72651e-09
1.36326e-05
2.44121e-09
1.3623e-05
9.37383e-09
1.36075e-05
1.52752e-08
1.35859e-05
2.13796e-08
1.35562e-05
2.95996e-08
1.35181e-05
3.79187e-08
1.34714e-05
4.66201e-08
1.34195e-05
5.18567e-08
1.33635e-05
5.60387e-08
1.33007e-05
6.29204e-08
1.32284e-05
7.24362e-08
1.31512e-05
7.73512e-08
1.30733e-05
7.80247e-08
1.299e-05
8.35189e-08
1.28984e-05
9.18829e-08
1.28013e-05
9.74093e-08
1.27016e-05
1.00122e-07
1.25992e-05
1.02683e-07
1.24913e-05
1.08269e-07
1.23791e-05
1.12486e-07
1.22639e-05
1.15419e-07
1.21465e-05
1.17574e-07
1.2026e-05
1.20501e-07
1.19008e-05
1.25245e-07
1.1774e-05
1.26833e-07
1.16481e-05
1.25796e-07
1.15203e-05
1.27771e-07
1.1388e-05
1.32133e-07
1.1251e-05
1.36989e-07
1.11138e-05
1.37103e-07
1.09783e-05
1.35457e-07
1.08434e-05
1.34874e-07
1.07075e-05
1.35819e-07
1.05669e-05
1.40469e-07
1.0425e-05
1.4174e-07
1.02853e-05
1.39591e-07
1.01476e-05
1.37491e-07
1.00067e-05
1.40762e-07
9.86445e-06
1.42187e-07
9.7227e-06
1.41721e-07
9.58304e-06
1.39683e-07
9.4472e-06
1.35884e-07
9.30854e-06
1.38716e-07
9.16777e-06
1.40808e-07
9.02731e-06
1.40492e-07
8.88575e-06
1.41567e-07
8.74986e-06
1.35895e-07
8.61703e-06
1.32824e-07
8.48228e-06
1.34746e-07
8.34471e-06
1.37573e-07
8.2091e-06
1.35626e-07
8.07482e-06
1.34303e-07
7.94017e-06
1.34687e-07
7.80805e-06
1.32159e-07
7.68e-06
1.2809e-07
7.55019e-06
1.29855e-07
7.41788e-06
1.32353e-07
7.28753e-06
1.30396e-07
7.15793e-06
1.29632e-07
7.03149e-06
1.26479e-07
6.90917e-06
1.22341e-07
6.78278e-06
1.2641e-07
6.65521e-06
1.27582e-07
6.52916e-06
1.26051e-07
6.40623e-06
1.22919e-07
6.28247e-06
1.2374e-07
6.15919e-06
1.23273e-07
6.0371e-06
1.22067e-07
5.91667e-06
1.20426e-07
5.79565e-06
1.21013e-07
5.67548e-06
1.20173e-07
5.55797e-06
1.1752e-07
5.43554e-06
1.22439e-07
5.31541e-06
1.20152e-07
5.20003e-06
1.15392e-07
5.08305e-06
1.17005e-07
4.96527e-06
1.17816e-07
4.84822e-06
1.17076e-07
4.73131e-06
1.16938e-07
4.61639e-06
1.14949e-07
4.49969e-06
1.16735e-07
4.38353e-06
1.16198e-07
4.27097e-06
1.12588e-07
4.1584e-06
1.1261e-07
4.04345e-06
1.14983e-07
3.9292e-06
1.14288e-07
3.81693e-06
1.12312e-07
3.70747e-06
1.09488e-07
3.59579e-06
1.11718e-07
3.4833e-06
1.12515e-07
3.37172e-06
1.11612e-07
3.2606e-06
1.11146e-07
3.15003e-06
1.10598e-07
3.04286e-06
1.07197e-07
2.93691e-06
1.05992e-07
2.82985e-06
1.07089e-07
2.72183e-06
1.0806e-07
2.61382e-06
1.08054e-07
2.50683e-06
1.07026e-07
2.4011e-06
1.05766e-07
2.29656e-06
1.0457e-07
2.19344e-06
1.03157e-07
2.08999e-06
1.03478e-07
1.98713e-06
1.02879e-07
1.88528e-06
1.01877e-07
1.7846e-06
1.00705e-07
1.68316e-06
1.01459e-07
1.58216e-06
1.0102e-07
1.48355e-06
9.86249e-08
1.38669e-06
9.68694e-08
1.29133e-06
9.5375e-08
1.19648e-06
9.48614e-08
1.10143e-06
9.50559e-08
1.00704e-06
9.43968e-08
9.14214e-07
9.28336e-08
8.22762e-07
9.14589e-08
7.33768e-07
8.89986e-08
6.46079e-07
8.76936e-08
5.58271e-07
8.78115e-08
4.71433e-07
8.68403e-08
3.86188e-07
8.52453e-08
3.02198e-07
8.39886e-08
2.19986e-07
8.22103e-08
1.39318e-07
8.06658e-08
5.9545e-08
7.97695e-08
-1.87353e-08
7.82761e-08
-9.55413e-08
7.68013e-08
-1.70775e-07
7.52278e-08
-2.44144e-07
7.3364e-08
-3.16406e-07
7.22553e-08
-3.87163e-07
7.07505e-08
-4.56363e-07
6.91936e-08
-5.23563e-07
6.71932e-08
-5.8894e-07
6.5369e-08
-6.53618e-07
6.46697e-08
-7.16595e-07
6.29677e-08
-7.77934e-07
6.13296e-08
-8.37423e-07
5.94798e-08
-8.9524e-07
5.78072e-08
-9.51653e-07
5.64033e-08
-1.00649e-06
5.48247e-08
-1.05968e-06
5.31796e-08
-1.11109e-06
5.14022e-08
-1.1609e-06
4.98014e-08
-1.20932e-06
4.841e-08
-1.25611e-06
4.67848e-08
-1.30123e-06
4.511e-08
-1.34448e-06
4.32327e-08
-1.38603e-06
4.15403e-08
-1.42643e-06
4.03876e-08
-1.46516e-06
3.87135e-08
-1.50205e-06
3.68864e-08
-1.53705e-06
3.49844e-08
-1.57081e-06
3.37484e-08
-1.60311e-06
3.22843e-08
-1.6338e-06
3.06819e-08
-1.66294e-06
2.91283e-08
-1.69046e-06
2.74986e-08
-1.71631e-06
2.58399e-08
-1.74061e-06
2.42943e-08
-1.76342e-06
2.27915e-08
-1.78477e-06
2.13351e-08
-1.80468e-06
1.99063e-08
-1.82316e-06
1.84649e-08
-1.84017e-06
1.69995e-08
-1.85571e-06
1.55288e-08
-1.87001e-06
1.42839e-08
-1.88312e-06
1.31011e-08
-1.89498e-06
1.18462e-08
-1.90555e-06
1.05584e-08
-1.9148e-06
9.2434e-09
-1.92276e-06
7.94893e-09
-1.92963e-06
6.86116e-09
-1.93544e-06
5.80151e-09
-1.94018e-06
4.72714e-09
-1.94371e-06
3.52673e-09
-1.94612e-06
2.3984e-09
-1.94771e-06
1.57889e-09
-1.94838e-06
6.64878e-10
-1.94812e-06
-2.7064e-10
-1.9469e-06
-1.22668e-09
-1.9448e-06
-2.10589e-09
-1.94198e-06
-2.82381e-09
-1.93839e-06
-3.60154e-09
-1.93399e-06
-4.40585e-09
-1.92877e-06
-5.22768e-09
-1.92293e-06
-5.84488e-09
-1.91647e-06
-6.46643e-09
-1.90936e-06
-7.10897e-09
-1.90167e-06
-7.69381e-09
-1.89337e-06
-8.30668e-09
-1.88449e-06
-8.88027e-09
-1.87522e-06
-9.27501e-09
-1.86546e-06
-9.76562e-09
-1.85524e-06
-1.02195e-08
-1.84457e-06
-1.06679e-08
-1.8334e-06
-1.11718e-08
-1.82183e-06
-1.1574e-08
-1.8099e-06
-1.1929e-08
-1.79764e-06
-1.22625e-08
-1.78502e-06
-1.26152e-08
-1.77208e-06
-1.29423e-08
-1.75893e-06
-1.31474e-08
-1.74554e-06
-1.33939e-08
-1.73192e-06
-1.36166e-08
-1.71809e-06
-1.38356e-08
-1.70399e-06
-1.4101e-08
-1.68966e-06
-1.43228e-08
-1.67521e-06
-1.44558e-08
-1.66065e-06
-1.45595e-08
-1.646e-06
-1.46458e-08
-1.63124e-06
-1.47602e-08
-1.61638e-06
-1.48591e-08
-1.60142e-06
-1.49603e-08
-1.58637e-06
-1.50528e-08
-1.57128e-06
-1.50905e-08
-1.55613e-06
-1.51516e-08
-1.54085e-06
-1.52777e-08
-1.52547e-06
-1.53819e-08
-1.51017e-06
-1.52957e-08
-1.49483e-06
-1.53436e-08
-1.47943e-06
-1.53937e-08
-1.46407e-06
-1.53655e-08
-1.4487e-06
-1.53689e-08
-1.43329e-06
-1.54066e-08
-1.41784e-06
-1.54474e-08
-1.40239e-06
-1.54495e-08
-1.38695e-06
-1.54426e-08
-1.37154e-06
-1.54043e-08
-1.35621e-06
-1.53288e-08
-1.34099e-06
-1.52251e-08
-1.32581e-06
-1.5173e-08
-1.3108e-06
-1.50118e-08
-1.2958e-06
-1.5002e-08
-1.28092e-06
-1.48699e-08
-1.26618e-06
-1.47389e-08
-1.25155e-06
-1.46359e-08
-1.23697e-06
-1.45713e-08
-1.22237e-06
-1.46009e-08
-1.20799e-06
-1.43802e-08
-1.19353e-06
-1.44623e-08
-1.1788e-06
-1.47233e-08
-1.16429e-06
-1.45133e-08
-1.1491e-06
-1.51887e-08
-1.13392e-06
-1.51735e-08
-1.12029e-06
-1.36336e-08
-1.10599e-06
-1.42996e-08
-1.09121e-06
-1.4782e-08
-1.07771e-06
-1.34975e-08
-1.05721e-06
-2.05064e-08
-1.0374e-06
-1.98103e-08
-1.02849e-06
-8.90727e-09
-1.01276e-06
-1.57307e-08
-1.00568e-06
-7.07558e-09
-1.01025e-06
4.56322e-09
-1.03519e-06
2.49447e-08
-1.06054e-06
2.53468e-08
-1.06574e-06
5.19972e-09
-1.06918e-06
3.45106e-09
-1.06573e-06
-3.44983e-09
-1.0607e-06
-5.02642e-09
-1.05322e-06
-7.47594e-09
-1.04541e-06
-7.80714e-09
-1.03643e-06
-8.97405e-09
-1.02688e-06
-9.55174e-09
-1.01595e-06
-1.09231e-08
-1.00536e-06
-1.05862e-08
-9.91271e-07
-1.4079e-08
-9.77124e-07
-1.41403e-08
-9.6702e-07
-1.00968e-08
-9.53778e-07
-1.32337e-08
-9.43425e-07
-1.03454e-08
-9.37394e-07
-6.02171e-09
-9.38529e-07
1.14402e-09
-9.39654e-07
1.13579e-09
-9.32827e-07
-6.8146e-09
-9.2539e-07
-7.42372e-09
-9.1638e-07
-8.9951e-09
-9.0606e-07
-1.03037e-08
-8.9649e-07
-9.55223e-09
-8.85323e-07
-1.11473e-08
-8.74781e-07
-1.05208e-08
-8.60773e-07
-1.39834e-08
-8.46833e-07
-1.39125e-08
-8.36045e-07
-1.07569e-08
-8.2283e-07
-1.31812e-08
-8.10337e-07
-1.24553e-08
-8.01772e-07
-8.52226e-09
-7.66673e-07
-3.5055e-08
-7.36274e-07
-3.03594e-08
-7.33298e-07
-2.95242e-09
-7.05555e-07
-2.77741e-08
-7.39225e-07
3.3527e-08
-7.91011e-07
5.13699e-08
-9.87434e-07
1.95765e-07
-1.18756e-06
1.98937e-07
-1.31797e-06
1.28289e-07
-1.40463e-06
8.47321e-08
-1.46272e-06
5.63323e-08
-1.50278e-06
3.84827e-08
-1.53103e-06
2.68155e-08
-1.55135e-06
1.90325e-08
-1.56611e-06
1.35967e-08
-1.57678e-06
9.60844e-09
-1.58434e-06
6.60765e-09
-1.5895e-06
4.29693e-09
-1.59265e-06
2.36708e-09
-1.59397e-06
6.11821e-10
-1.59385e-06
-7.62506e-10
-1.59258e-06
-1.85988e-09
-1.59033e-06
-2.77305e-09
-1.58723e-06
-3.58121e-09
-1.58332e-06
-4.34622e-09
-1.57864e-06
-5.07017e-09
-1.57327e-06
-5.7285e-09
-1.56729e-06
-6.29909e-09
-1.5608e-06
-6.78089e-09
-1.55388e-06
-7.18537e-09
-1.54659e-06
-7.53423e-09
-1.53896e-06
-7.85109e-09
-1.53093e-06
-8.21852e-09
-1.52257e-06
-8.54215e-09
-1.51387e-06
-8.85987e-09
-1.50482e-06
-9.19796e-09
-1.4954e-06
-9.55563e-09
-1.48559e-06
-9.93094e-09
-1.47537e-06
-1.03326e-08
-1.46472e-06
-1.07452e-08
-1.45367e-06
-1.11426e-08
-1.44225e-06
-1.14987e-08
-1.43054e-06
-1.17857e-08
-1.4186e-06
-1.20038e-08
-1.40654e-06
-1.2126e-08
-1.39438e-06
-1.22162e-08
-1.38212e-06
-1.23097e-08
-1.36984e-06
-1.23315e-08
-1.35757e-06
-1.23053e-08
-1.34538e-06
-1.22335e-08
-1.33329e-06
-1.21248e-08
-1.32131e-06
-1.20093e-08
-1.30941e-06
-1.1926e-08
-1.29754e-06
-1.19065e-08
-1.2856e-06
-1.19606e-08
-1.27354e-06
-1.20794e-08
-1.26132e-06
-1.22477e-08
-1.24889e-06
-1.24487e-08
-1.23626e-06
-1.26461e-08
-1.22351e-06
-1.27655e-08
-1.21081e-06
-1.2721e-08
-1.19833e-06
-1.25006e-08
-1.1861e-06
-1.22411e-08
-1.17397e-06
-1.21459e-08
-1.16163e-06
-1.23525e-08
-1.14894e-06
-1.27085e-08
-1.13616e-06
-1.27943e-08
-1.12379e-06
-1.23845e-08
-1.11197e-06
-1.18303e-08
-1.10063e-06
-1.13608e-08
-1.08903e-06
-1.16064e-08
-1.07687e-06
-1.21731e-08
-1.06462e-06
-1.22626e-08
-1.05287e-06
-1.17688e-08
-1.0416e-06
-1.12809e-08
-1.02998e-06
-1.16329e-08
-1.01752e-06
-1.24741e-08
-1.00489e-06
-1.26379e-08
-9.92665e-07
-1.22358e-08
-9.80468e-07
-1.22055e-08
-9.67535e-07
-1.29411e-08
-9.54398e-07
-1.31454e-08
-9.41963e-07
-1.24437e-08
-9.30111e-07
-1.18599e-08
-9.18033e-07
-1.20842e-08
-9.06243e-07
-1.17955e-08
-8.94348e-07
-1.19004e-08
-8.06493e-09
-0.00012078
-2.39676e-06
-0.000119737
-2.07078e-06
-0.000118665
-2.12119e-06
-0.000117577
-2.16084e-06
-0.000116511
-2.13971e-06
-0.000115386
-2.28204e-06
-0.000114194
-2.47301e-06
-0.000112942
-2.57769e-06
-0.000111602
-2.6963e-06
-0.000110189
-2.73791e-06
-0.000108706
-2.83e-06
-0.000107214
-2.86152e-06
-0.00010573
-2.90458e-06
-0.00010428
-2.93934e-06
-0.000102849
-2.99304e-06
-0.000101437
-2.97091e-06
-9.99961e-05
-2.97489e-06
-9.85373e-05
-2.98779e-06
-9.70532e-05
-2.95041e-06
-9.55579e-05
-2.88331e-06
-9.4051e-05
-2.89967e-06
-9.25445e-05
-2.98551e-06
-9.10143e-05
-3.19495e-06
-8.9505e-05
-3.28727e-06
-8.80025e-05
-3.17568e-06
-8.65058e-05
-2.91146e-06
-8.499e-05
-2.7345e-06
-8.34307e-05
-2.8523e-06
-8.18e-05
-3.23321e-06
-8.01896e-05
-3.31482e-06
-7.86423e-05
-3.16383e-06
-7.71778e-05
-3.00694e-06
-7.57494e-05
-3.10702e-06
-7.41061e-05
-3.39294e-06
-7.23244e-05
-3.35893e-06
-7.0519e-05
-3.09785e-06
-6.89252e-05
-2.87546e-06
-6.76649e-05
-2.73811e-06
-6.63946e-05
-2.9993e-06
-6.48793e-05
-3.33372e-06
-6.31283e-05
-3.33593e-06
-6.12968e-05
-3.14365e-06
-5.96606e-05
-2.98121e-06
-5.8184e-05
-3.15057e-06
-5.65756e-05
-3.55978e-06
-5.47985e-05
-3.71647e-06
-5.29958e-05
-3.43505e-06
-5.12921e-05
-2.98474e-06
-4.97732e-05
-2.82764e-06
-4.82814e-05
-3.03829e-06
-4.65942e-05
-3.37691e-06
-4.48002e-05
-3.65928e-06
-4.2986e-05
-3.68726e-06
-4.12526e-05
-3.46722e-06
-3.96721e-05
-3.08212e-06
-3.81994e-05
-2.91862e-06
-3.66728e-05
-3.12825e-06
-3.49856e-05
-3.4834e-06
-3.32993e-05
-3.47575e-06
-3.17409e-05
-3.1809e-06
-3.02309e-05
-3.04144e-06
-2.86457e-05
-3.22228e-06
-2.68708e-05
-3.67338e-06
-2.51285e-05
-3.62131e-06
-2.36095e-05
-3.09686e-06
-2.22095e-05
-2.71321e-06
-2.06965e-05
-2.75146e-06
-1.90558e-05
-3.07329e-06
-1.74855e-05
-3.1375e-06
-1.61766e-05
-2.7289e-06
-1.49211e-05
-2.51165e-06
-1.37117e-05
-2.45289e-06
-1.23681e-05
-2.66665e-06
-1.09707e-05
-3.00263e-06
-9.59577e-06
-3.09301e-06
-8.5002e-06
-2.94376e-06
-7.76005e-06
-2.60936e-06
-7.54546e-06
-2.81218e-06
-6.83212e-06
-2.93525e-06
-4.82559e-06
-2.42676e-06
-2.11068e-06
-2.36956e-06
6.10102e-07
-1.86074e-06
1.44821e-06
-2.34234e-07
1.3906e-06
7.24034e-07
7.86404e-07
9.23551e-07
2.03144e-07
5.39494e-07
-6.52558e-07
8.06623e-07
-1.12038e-06
1.58247e-07
-1.1955e-06
-4.65393e-07
-1.19161e-06
-4.93585e-07
-1.04225e-06
-6.06245e-07
-7.43996e-07
-7.1001e-07
-3.78011e-07
-5.90212e-07
-5.90051e-09
-5.34456e-07
3.85675e-07
-4.15591e-07
6.53382e-07
-2.22593e-07
9.10889e-07
2.02928e-07
1.01198e-06
6.02495e-07
1.5064e-06
1.16748e-06
1.5815e-06
2.32298e-06
1.13032e-06
2.412e-06
-4.56576e-07
2.41514e-06
-2.89266e-06
2.15657e-06
-4.92844e-06
1.70785e-06
-6.28099e-06
5.04928e-07
-6.66872e-06
-5.65268e-07
-6.42614e-06
-8.7784e-07
-6.00832e-06
-7.74742e-07
-5.08334e-06
-1.32096e-06
-3.94309e-06
-1.72189e-06
-3.2183e-06
-1.25072e-06
-2.6898e-06
-1.13626e-06
-2.19086e-06
-1.07523e-06
-1.75725e-06
-9.48924e-07
-1.20018e-06
-8.97326e-07
-6.33432e-07
-8.31472e-07
5.17662e-08
-5.22223e-07
5.81316e-07
-1.87684e-07
9.10828e-07
-2.79964e-07
7.37798e-07
-1.68011e-07
3.18714e-07
-1.57997e-07
2.10451e-07
-3.77954e-07
3.81773e-07
-8.20364e-07
7.42243e-07
-1.03584e-06
1.14525e-06
-9.28857e-07
1.75465e-06
-1.10876e-06
2.41179e-06
-1.14672e-06
2.928e-06
-9.81951e-07
3.39675e-06
-9.49543e-07
3.8333e-06
-9.12311e-07
4.24665e-06
-8.61426e-07
4.68575e-06
-8.8099e-07
5.12783e-06
-8.68588e-07
5.55026e-06
-8.33043e-07
5.95693e-06
-8.05318e-07
6.35394e-06
-7.92188e-07
6.7447e-06
-7.85429e-07
7.12142e-06
-7.61427e-07
7.4936e-06
-7.43627e-07
7.8616e-06
-7.33409e-07
8.21814e-06
-7.11393e-07
8.55925e-06
-6.79573e-07
8.88972e-06
-6.55357e-07
9.21037e-06
-6.39385e-07
9.51748e-06
-6.15319e-07
9.80913e-06
-5.83317e-07
1.00893e-05
-5.58391e-07
1.03615e-05
-5.38914e-07
1.06216e-05
-5.18953e-07
1.08675e-05
-4.94864e-07
1.10999e-05
-4.67501e-07
1.13206e-05
-4.40043e-07
1.15317e-05
-4.17895e-07
1.1734e-05
-4.0233e-07
1.19253e-05
-3.8586e-07
1.21037e-05
-3.61504e-07
1.22692e-05
-3.31218e-07
1.24268e-05
-3.12969e-07
1.25765e-05
-2.98491e-07
1.27163e-05
-2.82127e-07
1.28439e-05
-2.57411e-07
1.29606e-05
-2.32124e-07
1.30681e-05
-2.15735e-07
1.31684e-05
-2.03198e-07
1.32587e-05
-1.82452e-07
1.33373e-05
-1.56297e-07
1.34059e-05
-1.38057e-07
1.34678e-05
-1.26179e-07
1.35216e-05
-1.09615e-07
1.35636e-05
-8.41762e-08
1.35953e-05
-6.29376e-08
1.36203e-05
-5.1026e-08
1.36391e-05
-3.98808e-08
1.36469e-05
-1.7705e-08
1.36452e-05
3.87998e-09
1.36371e-05
1.74039e-08
1.36212e-05
3.10519e-08
1.35971e-05
4.55024e-08
1.35656e-05
6.10326e-08
1.3528e-05
7.55847e-08
1.34839e-05
9.08891e-08
1.34326e-05
1.03304e-07
1.33742e-05
1.14689e-07
1.33086e-05
1.28801e-07
1.32368e-05
1.44568e-07
1.31605e-05
1.53966e-07
1.30809e-05
1.58051e-07
1.29961e-05
1.68702e-07
1.29057e-05
1.82709e-07
1.28098e-05
1.93595e-07
1.27088e-05
2.01452e-07
1.26038e-05
2.07906e-07
1.2494e-05
2.18299e-07
1.23817e-05
2.24908e-07
1.22679e-05
2.2943e-07
1.21516e-05
2.33916e-07
1.20301e-05
2.42129e-07
1.19035e-05
2.51852e-07
1.17763e-05
2.53977e-07
1.16492e-05
2.52883e-07
1.15203e-05
2.56486e-07
1.13886e-05
2.63727e-07
1.12516e-05
2.73735e-07
1.11151e-05
2.73413e-07
1.098e-05
2.70418e-07
1.08441e-05
2.70524e-07
1.07056e-05
2.74224e-07
1.05638e-05
2.82216e-07
1.04235e-05
2.81958e-07
1.0285e-05
2.78127e-07
1.01452e-05
2.77265e-07
1.00026e-05
2.83433e-07
9.86144e-06
2.8339e-07
9.72159e-06
2.81606e-07
9.58135e-06
2.79956e-07
9.44292e-06
2.74317e-07
9.30384e-06
2.778e-07
9.16452e-06
2.80126e-07
9.02478e-06
2.80235e-07
8.88468e-06
2.8168e-07
8.74816e-06
2.72451e-07
8.61196e-06
2.69075e-07
8.47669e-06
2.70068e-07
8.34099e-06
2.73322e-07
8.20524e-06
2.71406e-07
8.07142e-06
2.68146e-07
7.93815e-06
2.67951e-07
7.80558e-06
2.64706e-07
7.67495e-06
2.58673e-07
7.54522e-06
2.59537e-07
7.41397e-06
2.63528e-07
7.28406e-06
2.60243e-07
7.15593e-06
2.57688e-07
7.02876e-06
2.53577e-07
6.90398e-06
2.47049e-07
6.77993e-06
2.50405e-07
6.65487e-06
2.52579e-07
6.52733e-06
2.53536e-07
6.40126e-06
2.4895e-07
6.27677e-06
2.48194e-07
6.15516e-06
2.44857e-07
6.03453e-06
2.42668e-07
5.9129e-06
2.4204e-07
5.79236e-06
2.41534e-07
5.67331e-06
2.39201e-07
5.5544e-06
2.36406e-07
5.43271e-06
2.44111e-07
5.31235e-06
2.40485e-07
5.19543e-06
2.32293e-07
5.07878e-06
2.33621e-07
4.9616e-06
2.34971e-07
4.84537e-06
2.33276e-07
4.72843e-06
2.33852e-07
4.61285e-06
2.30503e-07
4.49827e-06
2.31289e-07
4.38394e-06
2.30514e-07
4.26945e-06
2.27064e-07
4.15356e-06
2.2848e-07
4.0383e-06
2.30234e-07
3.92645e-06
2.26127e-07
3.81542e-06
2.23325e-07
3.70425e-06
2.20644e-07
3.59216e-06
2.23788e-07
3.4802e-06
2.24446e-07
3.36824e-06
2.2356e-07
3.25766e-06
2.21705e-07
3.14816e-06
2.20093e-07
3.04035e-06
2.15012e-07
2.933e-06
2.13343e-07
2.82529e-06
2.14808e-07
2.71751e-06
2.15849e-07
2.6102e-06
2.15367e-07
2.50393e-06
2.13304e-07
2.39816e-06
2.11534e-07
2.29235e-06
2.10377e-07
2.18816e-06
2.07338e-07
2.08513e-06
2.06502e-07
1.98321e-06
2.04788e-07
1.88169e-06
2.03394e-07
1.78075e-06
2.01632e-07
1.68017e-06
2.02029e-07
1.57946e-06
2.01714e-07
1.48122e-06
1.96851e-07
1.38438e-06
1.937e-07
1.288e-06
1.91737e-07
1.19243e-06
1.90411e-07
1.09779e-06
1.89677e-07
1.00394e-06
1.88236e-07
9.11741e-07
1.85013e-07
8.20587e-07
1.82594e-07
7.30737e-07
1.7883e-07
6.42186e-07
1.76223e-07
5.54487e-07
1.75489e-07
4.67992e-07
1.73311e-07
3.83209e-07
1.70003e-07
2.99553e-07
1.67618e-07
2.16956e-07
1.6478e-07
1.35734e-07
1.6186e-07
5.61207e-08
1.59355e-07
-2.18735e-08
1.56243e-07
-9.8439e-08
1.53339e-07
-1.73561e-07
1.50323e-07
-2.47329e-07
1.47107e-07
-3.19705e-07
1.44606e-07
-3.90099e-07
1.41119e-07
-4.59077e-07
1.38148e-07
-5.26598e-07
1.3469e-07
-5.92461e-07
1.31209e-07
-6.57138e-07
1.29324e-07
-7.19925e-07
1.25732e-07
-7.81151e-07
1.22534e-07
-8.40802e-07
1.1911e-07
-8.98945e-07
1.15931e-07
-9.55416e-07
1.12856e-07
-1.01021e-06
1.09606e-07
-1.0634e-06
1.06354e-07
-1.11501e-06
1.02988e-07
-1.16508e-06
9.98609e-08
-1.21346e-06
9.6774e-08
-1.26012e-06
9.34306e-08
-1.30515e-06
9.01271e-08
-1.34858e-06
8.66446e-08
-1.39043e-06
8.33791e-08
-1.43083e-06
8.07726e-08
-1.46938e-06
7.72388e-08
-1.50626e-06
7.37569e-08
-1.54156e-06
7.02715e-08
-1.57532e-06
6.74852e-08
-1.60751e-06
6.44573e-08
-1.63811e-06
6.12653e-08
-1.66708e-06
5.80825e-08
-1.69448e-06
5.48901e-08
-1.72036e-06
5.17015e-08
-1.74469e-06
4.86043e-08
-1.76748e-06
4.55642e-08
-1.78879e-06
4.2634e-08
-1.80867e-06
3.97661e-08
-1.8271e-06
3.68815e-08
-1.84413e-06
3.40062e-08
-1.85977e-06
3.11522e-08
-1.87405e-06
2.85461e-08
-1.88703e-06
2.60641e-08
-1.89876e-06
2.35553e-08
-1.90919e-06
2.09741e-08
-1.91837e-06
1.84069e-08
-1.92634e-06
1.59041e-08
-1.93317e-06
1.36731e-08
-1.93886e-06
1.14762e-08
-1.94344e-06
9.29895e-09
-1.94695e-06
7.01914e-09
-1.94945e-06
4.88173e-09
-1.951e-06
3.11877e-09
-1.95154e-06
1.19402e-09
-1.95116e-06
-6.67385e-10
-1.94989e-06
-2.50682e-09
-1.94776e-06
-4.24562e-09
-1.9448e-06
-5.78935e-09
-1.94102e-06
-7.39589e-09
-1.93652e-06
-8.91375e-09
-1.93138e-06
-1.03746e-08
-1.92559e-06
-1.16484e-08
-1.919e-06
-1.30637e-08
-1.91177e-06
-1.43463e-08
-1.90398e-06
-1.54897e-08
-1.89561e-06
-1.66843e-08
-1.88674e-06
-1.77556e-08
-1.8774e-06
-1.86194e-08
-1.8675e-06
-1.96756e-08
-1.85714e-06
-2.05818e-08
-1.84636e-06
-2.14556e-08
-1.83513e-06
-2.24029e-08
-1.82351e-06
-2.31986e-08
-1.81153e-06
-2.39164e-08
-1.79922e-06
-2.45675e-08
-1.78659e-06
-2.52471e-08
-1.77368e-06
-2.58633e-08
-1.7605e-06
-2.63289e-08
-1.747e-06
-2.68904e-08
-1.73328e-06
-2.734e-08
-1.71937e-06
-2.77499e-08
-1.70526e-06
-2.82088e-08
-1.69098e-06
-2.86071e-08
-1.67654e-06
-2.89017e-08
-1.66197e-06
-2.91244e-08
-1.64733e-06
-2.9289e-08
-1.63252e-06
-2.95701e-08
-1.6176e-06
-2.97881e-08
-1.60258e-06
-2.99734e-08
-1.58748e-06
-3.01539e-08
-1.57231e-06
-3.02639e-08
-1.55708e-06
-3.0385e-08
-1.5418e-06
-3.05606e-08
-1.52651e-06
-3.06774e-08
-1.5112e-06
-3.06042e-08
-1.49582e-06
-3.07262e-08
-1.4804e-06
-3.08162e-08
-1.46497e-06
-3.07947e-08
-1.4495e-06
-3.0837e-08
-1.43406e-06
-3.0851e-08
-1.41858e-06
-3.09275e-08
-1.40315e-06
-3.08828e-08
-1.38769e-06
-3.09022e-08
-1.37231e-06
-3.07907e-08
-1.3569e-06
-3.07363e-08
-1.34162e-06
-3.05097e-08
-1.32625e-06
-3.05388e-08
-1.31112e-06
-3.01443e-08
-1.29596e-06
-3.01711e-08
-1.28107e-06
-2.97597e-08
-1.26657e-06
-2.92391e-08
-1.2521e-06
-2.91144e-08
-1.23795e-06
-2.87226e-08
-1.22319e-06
-2.93566e-08
-1.20875e-06
-2.88284e-08
-1.19342e-06
-2.97956e-08
-1.17851e-06
-2.96346e-08
-1.16515e-06
-2.7873e-08
-1.15184e-06
-2.84989e-08
-1.13756e-06
-2.94577e-08
-1.1234e-06
-2.77927e-08
-1.10183e-06
-3.58662e-08
-1.08184e-06
-3.47731e-08
-1.07408e-06
-2.12638e-08
-1.06605e-06
-2.85386e-08
-1.06594e-06
-1.99165e-08
-1.07064e-06
-4.21121e-09
-1.09841e-06
1.20388e-08
-1.12301e-06
1.75211e-08
-1.12494e-06
6.4879e-09
-1.11719e-06
1.71894e-08
-1.10226e-06
1.04087e-08
-1.0947e-06
-2.3602e-09
-1.0849e-06
-6.35156e-09
-1.07742e-06
-1.09343e-08
-1.06868e-06
-1.37741e-08
-1.06029e-06
-1.58819e-08
-1.05081e-06
-1.72954e-08
-1.04114e-06
-1.86543e-08
-1.02774e-06
-2.29607e-08
-1.01451e-06
-2.41678e-08
-1.0058e-06
-1.93037e-08
-9.96774e-07
-2.31219e-08
-9.90018e-07
-2.09113e-08
-9.84996e-07
-1.51341e-08
-9.8799e-07
-1.02566e-08
-9.89998e-07
-8.35573e-09
-9.82154e-07
-1.38854e-08
-9.71251e-07
-9.77966e-09
-9.56894e-07
-1.32444e-08
-9.46726e-07
-1.70075e-08
-9.33356e-07
-2.08211e-08
-9.22501e-07
-1.98793e-08
-9.0627e-07
-2.65671e-08
-8.93961e-07
-2.18975e-08
-8.82774e-07
-2.2374e-08
-8.75035e-07
-1.83032e-08
-8.67353e-07
-2.17145e-08
-8.58842e-07
-2.24771e-08
-8.50857e-07
-1.88016e-08
-8.13665e-07
-5.04382e-08
-7.81513e-07
-4.46764e-08
-7.79391e-07
-1.07118e-08
-7.76065e-07
-3.8429e-08
-8.27095e-07
2.06704e-08
-8.86256e-07
5.63396e-08
-1.11027e-06
1.96531e-07
-1.32581e-06
2.49873e-07
-1.46763e-06
1.94779e-07
-1.51968e-06
2.49945e-07
-1.50012e-06
1.82557e-07
-1.50107e-06
1.32296e-07
-1.51451e-06
1.01036e-07
-1.53176e-06
7.623e-08
-1.54872e-06
5.78825e-08
-1.56376e-06
4.4071e-08
-1.57631e-06
3.35985e-08
-1.58622e-06
2.53421e-08
-1.59366e-06
1.8712e-08
-1.59894e-06
1.33905e-08
-1.60227e-06
8.99769e-09
-1.60383e-06
5.15991e-09
-1.60422e-06
2.11865e-09
-1.60328e-06
-6.83234e-10
-1.60133e-06
-2.89211e-09
-1.59842e-06
-4.84748e-09
-1.59459e-06
-6.64828e-09
-1.58993e-06
-8.33033e-09
-1.58451e-06
-9.87085e-09
-1.57844e-06
-1.12327e-08
-1.57184e-06
-1.23918e-08
-1.5648e-06
-1.33621e-08
-1.55738e-06
-1.41835e-08
-1.54962e-06
-1.49146e-08
-1.54151e-06
-1.56159e-08
-1.53315e-06
-1.62707e-08
-1.52443e-06
-1.69771e-08
-1.51533e-06
-1.77106e-08
-1.50588e-06
-1.84135e-08
-1.49612e-06
-1.91089e-08
-1.48604e-06
-1.98179e-08
-1.47566e-06
-2.05349e-08
-1.46502e-06
-2.12363e-08
-1.45412e-06
-2.18974e-08
-1.44299e-06
-2.24973e-08
-1.43163e-06
-2.3029e-08
-1.42006e-06
-2.34648e-08
-1.40825e-06
-2.38371e-08
-1.39628e-06
-2.4102e-08
-1.38426e-06
-2.42455e-08
-1.37218e-06
-2.43398e-08
-1.36007e-06
-2.43453e-08
-1.34799e-06
-2.42586e-08
-1.33594e-06
-2.41185e-08
-1.32391e-06
-2.39896e-08
-1.31186e-06
-2.39313e-08
-1.29975e-06
-2.39708e-08
-1.28757e-06
-2.40968e-08
-1.27533e-06
-2.42872e-08
-1.26301e-06
-2.45356e-08
-1.25058e-06
-2.48447e-08
-1.23803e-06
-2.51699e-08
-1.22538e-06
-2.53811e-08
-1.21275e-06
-2.53233e-08
-1.20024e-06
-2.4981e-08
-1.18787e-06
-2.45936e-08
-1.17548e-06
-2.45042e-08
-1.163e-06
-2.48096e-08
-1.15051e-06
-2.51728e-08
-1.1382e-06
-2.50835e-08
-1.12616e-06
-2.43946e-08
-1.11454e-06
-2.34262e-08
-1.10256e-06
-2.33143e-08
-1.0902e-06
-2.39436e-08
-1.07786e-06
-2.44881e-08
-1.06592e-06
-2.41855e-08
-1.05438e-06
-2.32858e-08
-1.04254e-06
-2.30954e-08
-1.03007e-06
-2.40811e-08
-1.01768e-06
-2.4849e-08
-1.00571e-06
-2.45913e-08
-9.93894e-07
-2.40293e-08
-9.81457e-07
-2.46248e-08
-9.69098e-07
-2.52835e-08
-9.5723e-07
-2.49988e-08
-9.45657e-07
-2.40029e-08
-9.33859e-07
-2.36437e-08
-9.22078e-07
-2.38509e-08
-9.09836e-07
-2.40282e-08
-8.96954e-07
-2.47673e-08
-1.87345e-08
-0.000120913
-3.64292e-06
-0.000119856
-3.12716e-06
-0.000118766
-3.21105e-06
-0.000117655
-3.2722e-06
-0.000116571
-3.22505e-06
-0.000115439
-3.41644e-06
-0.000114248
-3.66704e-06
-0.000113011
-3.81784e-06
-0.000111688
-4.02212e-06
-0.00011031
-4.1188e-06
-0.000108895
-4.24836e-06
-0.000107473
-4.28592e-06
-0.000106058
-4.32308e-06
-0.000104645
-4.3543e-06
-0.000103245
-4.39438e-06
-0.000101815
-4.40278e-06
-0.000100378
-4.41191e-06
-9.89468e-05
-4.4197e-06
-9.74884e-05
-4.40874e-06
-9.60008e-05
-4.37009e-06
-9.45126e-05
-4.38599e-06
-9.3021e-05
-4.47393e-06
-9.15876e-05
-4.62492e-06
-9.01825e-05
-4.68936e-06
-8.87453e-05
-4.6108e-06
-8.71713e-05
-4.48397e-06
-8.55143e-05
-4.39013e-06
-8.38475e-05
-4.51702e-06
-8.22916e-05
-4.78632e-06
-8.07592e-05
-4.84344e-06
-7.92276e-05
-4.69107e-06
-7.76949e-05
-4.53512e-06
-7.61974e-05
-4.60091e-06
-7.45984e-05
-4.99003e-06
-7.28227e-05
-5.13448e-06
-7.09622e-05
-4.95917e-06
-6.92542e-05
-4.58406e-06
-6.77382e-05
-4.25382e-06
-6.64265e-05
-4.30944e-06
-6.50395e-05
-4.71874e-06
-6.33219e-05
-5.05175e-06
-6.14691e-05
-4.99542e-06
-5.96755e-05
-4.77433e-06
-5.7998e-05
-4.82781e-06
-5.64529e-05
-5.1045e-06
-5.48995e-05
-5.26915e-06
-5.32058e-05
-5.12766e-06
-5.13636e-05
-4.82575e-06
-4.95136e-05
-4.67624e-06
-4.77429e-05
-4.80767e-06
-4.6055e-05
-5.06351e-06
-4.45232e-05
-5.18986e-06
-4.29582e-05
-5.25115e-06
-4.13009e-05
-5.1236e-06
-3.95725e-05
-4.8097e-06
-3.7937e-05
-4.55341e-06
-3.64064e-05
-4.65833e-06
-3.49088e-05
-4.98055e-06
-3.33982e-05
-4.9859e-06
-3.18331e-05
-4.74559e-06
-3.02307e-05
-4.64352e-06
-2.85917e-05
-4.86116e-06