/*--------------------------------*- C++ -*----------------------------------*\
| =========                 |                                                 |
| \\      /  F ield         | OpenFOAM: The Open Source CFD Toolbox           |
|  \\    /   O peration     | Version:  v2006                                 |
|   \\  /    A nd           | Website:  www.openfoam.com                      |
|    \\/     M anipulation  |                                                 |
\*---------------------------------------------------------------------------*/
FoamFile
{
    version     2.0;
    format      ascii;
    class       volScalarField;
    location    "1.6";
    object      nut;
}
// * * * * * * * * * * * * * * * * * * * * * * * * * * * * * * * * * * * * * //

dimensions      [0 2 -1 0 0 0 0];


internalField   nonuniform List<scalar> 
33000
(
4.35314e-09
3.26917e-09
3.59274e-09
3.76153e-09
3.90314e-09
4.02351e-09
4.14992e-09
4.29046e-09
4.43878e-09
4.60187e-09
4.78071e-09
4.96919e-09
5.16892e-09
5.37054e-09
5.5668e-09
5.78328e-09
6.013e-09
6.2535e-09
6.50978e-09
6.79801e-09
7.07209e-09
7.31634e-09
7.60313e-09
7.9644e-09
8.34065e-09
8.67357e-09
9.00897e-09
9.34939e-09
9.76533e-09
1.01907e-08
1.04791e-08
1.07188e-08
1.11379e-08
1.16767e-08
1.21e-08
1.23659e-08
1.25256e-08
1.30957e-08
1.36993e-08
1.39132e-08
1.41729e-08
1.41692e-08
1.42826e-08
1.48658e-08
1.53163e-08
1.51281e-08
1.50534e-08
1.53686e-08
1.55751e-08
1.54248e-08
1.52251e-08
1.52499e-08
1.53419e-08
1.54242e-08
1.54015e-08
1.52316e-08
1.51517e-08
1.51387e-08
1.48831e-08
1.44575e-08
1.41932e-08
1.41414e-08
1.39006e-08
1.34681e-08
1.31076e-08
1.28493e-08
1.27266e-08
1.25727e-08
1.23575e-08
1.22159e-08
1.20608e-08
1.18482e-08
1.1578e-08
1.14174e-08
1.1274e-08
1.09107e-08
1.06727e-08
1.23867e-08
1.49014e-08
1.72705e-08
1.68489e-08
1.5063e-08
1.60346e-08
1.68339e-08
1.80844e-08
1.83302e-08
1.78701e-08
1.71095e-08
1.56229e-08
1.49683e-08
1.47242e-08
1.45112e-08
1.43808e-08
1.41182e-08
1.37819e-08
1.34741e-08
1.32373e-08
1.32367e-08
1.34111e-08
1.53944e-08
1.59387e-08
1.50625e-08
1.46807e-08
1.43354e-08
1.48701e-08
1.45618e-08
1.43734e-08
1.41549e-08
1.38205e-08
1.3339e-08
1.30607e-08
1.28729e-08
1.26508e-08
1.24708e-08
1.22573e-08
1.21229e-08
1.21541e-08
1.37261e-08
1.40296e-08
1.33969e-08
1.32618e-08
1.2937e-08
1.32658e-08
1.29952e-08
1.2856e-08
1.25861e-08
1.22512e-08
1.20418e-08
1.18757e-08
1.1693e-08
1.15596e-08
1.14186e-08
1.12628e-08
1.11321e-08
1.10107e-08
1.09069e-08
1.08041e-08
1.06959e-08
1.05995e-08
1.05114e-08
1.04304e-08
1.03526e-08
1.02798e-08
1.02129e-08
1.01491e-08
1.00906e-08
1.00403e-08
9.99611e-09
9.95289e-09
9.91413e-09
9.87935e-09
9.84763e-09
9.82268e-09
9.80379e-09
9.78684e-09
9.77258e-09
9.7631e-09
9.75791e-09
9.75628e-09
9.75744e-09
9.762e-09
9.7709e-09
9.78371e-09
9.79922e-09
9.81703e-09
9.83818e-09
9.86271e-09
9.8897e-09
9.92045e-09
9.9545e-09
9.99118e-09
1.00316e-08
1.00757e-08
1.01223e-08
1.01716e-08
1.0225e-08
1.02825e-08
1.03423e-08
1.0406e-08
1.04735e-08
1.05433e-08
1.06167e-08
1.0694e-08
1.07756e-08
1.08601e-08
1.09487e-08
1.10415e-08
1.11385e-08
1.12384e-08
1.13418e-08
1.14497e-08
1.15627e-08
1.16788e-08
1.17989e-08
1.19237e-08
1.20534e-08
1.21865e-08
1.23236e-08
1.24662e-08
1.26143e-08
1.27679e-08
1.29269e-08
1.30916e-08
1.3262e-08
1.32255e-08
1.31754e-08
1.31268e-08
1.30793e-08
1.30326e-08
1.29867e-08
1.29417e-08
1.28974e-08
1.28541e-08
1.28122e-08
1.27715e-08
1.27317e-08
1.26927e-08
1.26545e-08
1.2617e-08
1.25803e-08
1.25446e-08
1.25102e-08
1.24767e-08
1.24438e-08
1.24115e-08
1.23799e-08
1.2349e-08
1.23187e-08
1.22891e-08
1.22606e-08
1.2233e-08
1.2206e-08
1.21795e-08
1.21535e-08
1.21281e-08
1.21031e-08
1.20787e-08
1.20549e-08
1.20317e-08
1.20095e-08
1.19878e-08
1.19666e-08
1.19458e-08
1.19254e-08
1.19054e-08
1.18858e-08
1.18666e-08
1.1848e-08
1.183e-08
1.18124e-08
1.17951e-08
1.17782e-08
1.17617e-08
1.17455e-08
1.17298e-08
1.17146e-08
1.16998e-08
1.16853e-08
1.16712e-08
1.16573e-08
1.16436e-08
1.16302e-08
1.16172e-08
1.16044e-08
1.15921e-08
1.15801e-08
1.15684e-08
1.1557e-08
1.15458e-08
1.15348e-08
1.15242e-08
1.15138e-08
1.15039e-08
1.14942e-08
1.14848e-08
1.14755e-08
1.14665e-08
1.14577e-08
1.14492e-08
1.14409e-08
1.14328e-08
1.14248e-08
1.14171e-08
1.14095e-08
1.14023e-08
1.13952e-08
1.13883e-08
1.13816e-08
1.13751e-08
1.13688e-08
1.13628e-08
1.1357e-08
1.13513e-08
1.13457e-08
1.13403e-08
1.1335e-08
1.13299e-08
1.1325e-08
1.13201e-08
1.13154e-08
1.13107e-08
1.13062e-08
1.13017e-08
1.12975e-08
1.12934e-08
1.12895e-08
1.12857e-08
1.1282e-08
1.12785e-08
1.12751e-08
1.12719e-08
1.12688e-08
1.12657e-08
1.12627e-08
1.12599e-08
1.12572e-08
1.12545e-08
1.12519e-08
1.12494e-08
1.1247e-08
1.12448e-08
1.12427e-08
1.12406e-08
1.12386e-08
1.12369e-08
1.12352e-08
1.12335e-08
1.12318e-08
1.12302e-08
1.12287e-08
1.12271e-08
1.12257e-08
1.12242e-08
1.12228e-08
1.12214e-08
1.12203e-08
1.12193e-08
1.12183e-08
1.12174e-08
1.12165e-08
1.12155e-08
1.12146e-08
1.12137e-08
1.12128e-08
1.12119e-08
1.1211e-08
1.121e-08
1.12091e-08
1.12083e-08
1.12076e-08
1.12069e-08
1.12063e-08
1.12056e-08
1.12048e-08
1.1204e-08
1.12031e-08
1.12023e-08
1.12015e-08
1.12007e-08
1.11999e-08
1.11991e-08
1.11984e-08
1.11977e-08
1.1197e-08
1.11962e-08
1.11954e-08
1.11945e-08
1.11936e-08
1.11927e-08
1.11918e-08
1.11909e-08
1.119e-08
1.11892e-08
1.11884e-08
1.11876e-08
1.11868e-08
1.1186e-08
1.11852e-08
1.11843e-08
1.11835e-08
1.11827e-08
1.1182e-08
1.11813e-08
1.11807e-08
1.118e-08
1.11793e-08
1.11785e-08
1.11777e-08
1.11769e-08
1.11761e-08
1.11754e-08
1.11747e-08
1.1174e-08
1.11733e-08
1.11725e-08
1.11717e-08
1.11708e-08
1.11699e-08
1.1169e-08
1.11681e-08
1.11673e-08
1.11665e-08
1.11658e-08
1.1165e-08
1.11642e-08
1.11634e-08
1.11626e-08
1.11619e-08
1.11612e-08
1.11605e-08
1.11598e-08
1.1159e-08
1.11583e-08
1.11576e-08
1.11569e-08
1.11563e-08
1.11556e-08
1.1155e-08
1.11544e-08
1.11538e-08
1.11532e-08
1.11527e-08
1.1152e-08
1.11514e-08
1.11507e-08
1.115e-08
1.11495e-08
1.11488e-08
1.11485e-08
1.11479e-08
1.1148e-08
1.11475e-08
1.11474e-08
1.11472e-08
1.1147e-08
1.11468e-08
1.11464e-08
1.11462e-08
1.11458e-08
1.11456e-08
1.11455e-08
1.11451e-08
1.11447e-08
1.11443e-08
1.1144e-08
1.11438e-08
1.11435e-08
1.11433e-08
1.11432e-08
1.11433e-08
1.11433e-08
1.11433e-08
1.11433e-08
1.11431e-08
1.11429e-08
1.11425e-08
1.11426e-08
1.11425e-08
1.11423e-08
1.11426e-08
1.11424e-08
1.11423e-08
1.11418e-08
1.11414e-08
1.11413e-08
1.11407e-08
1.11405e-08
1.11418e-08
1.11406e-08
1.11489e-08
1.11471e-08
1.1148e-08
1.11483e-08
1.11481e-08
1.11478e-08
1.11473e-08
1.11466e-08
1.11458e-08
1.11448e-08
1.11439e-08
1.1143e-08
1.11422e-08
1.11416e-08
1.11412e-08
1.11407e-08
1.11403e-08
1.11399e-08
1.11396e-08
1.11394e-08
1.11391e-08
1.1139e-08
1.11388e-08
1.11386e-08
1.11384e-08
1.11382e-08
1.11381e-08
1.1138e-08
1.11379e-08
1.11378e-08
1.11378e-08
1.11377e-08
1.11377e-08
1.11376e-08
1.11375e-08
1.11374e-08
1.11373e-08
1.11373e-08
1.11374e-08
1.11375e-08
1.11377e-08
1.1138e-08
1.11383e-08
1.11385e-08
1.11387e-08
1.11387e-08
1.11386e-08
1.11385e-08
1.11384e-08
1.11385e-08
1.11388e-08
1.11394e-08
1.11402e-08
1.1141e-08
1.11416e-08
1.11418e-08
1.11417e-08
1.11416e-08
1.1142e-08
1.11428e-08
1.11433e-08
1.11431e-08
1.11421e-08
1.11408e-08
1.11401e-08
1.11401e-08
1.11398e-08
1.11389e-08
1.11376e-08
1.11371e-08
1.11378e-08
1.1138e-08
1.11377e-08
1.11381e-08
1.11397e-08
1.11404e-08
1.11399e-08
1.11394e-08
1.11387e-08
1.11382e-08
1.11426e-08
3.46161e-09
4.43767e-09
1.18435e-08
1.43207e-08
1.65928e-08
1.65463e-08
1.67906e-08
1.71658e-08
1.74428e-08
1.78421e-08
1.83952e-08
1.90072e-08
1.96159e-08
2.01932e-08
2.08222e-08
2.15202e-08
2.21072e-08
2.27001e-08
2.35881e-08
2.4611e-08
2.54462e-08
2.62432e-08
2.7396e-08
2.84774e-08
2.95065e-08
3.05341e-08
3.21854e-08
3.47846e-08
3.64555e-08
4.0737e-08
5.29434e-08
5.84957e-08
4.96286e-08
3.94839e-08
4.22059e-08
6.07446e-08
7.77773e-08
8.02996e-08
6.38381e-08
6.21294e-08
8.10027e-08
1.31662e-07
1.16171e-07
8.38978e-08
7.32317e-08
1.42435e-07
2.71935e-07
1.84376e-07
1.57653e-07
3.096e-07
6.86873e-07
7.54111e-07
7.87353e-07
8.00902e-07
7.77599e-07
7.69918e-07
7.44721e-07
3.30146e-07
1.93896e-07
1.64464e-07
2.06835e-07
2.01184e-07
1.1705e-07
1.08622e-07
1.16873e-07
1.56126e-07
2.14576e-07
2.58125e-07
2.45351e-07
2.2815e-07
1.81585e-07
1.3744e-07
8.73374e-08
6.88232e-08
4.89842e-08
2.8817e-08
2.47509e-08
2.27178e-08
2.25684e-08
1.4929e-08
1.52653e-08
1.64042e-08
2.11289e-08
3.8384e-08
3.02877e-08
5.35692e-08
6.86784e-08
5.33837e-08
5.47319e-08
1.07498e-07
2.22632e-07
2.07221e-07
1.4124e-07
1.37457e-07
1.31579e-07
1.23466e-07
9.38095e-08
6.12943e-08
6.26716e-08
6.49684e-08
5.94625e-08
3.36268e-08
3.91219e-08
9.21245e-08
8.68256e-08
1.12055e-07
1.04998e-07
1.58874e-07
1.02755e-07
1.11174e-07
2.08976e-07
2.2562e-07
1.86837e-07
1.51734e-07
1.19338e-07
7.43439e-08
7.98814e-08
8.54174e-08
8.00912e-08
3.95237e-08
4.53174e-08
1.22215e-07
1.07882e-07
1.44394e-07
1.35628e-07
1.28873e-07
1.35784e-07
2.39e-07
2.5933e-07
2.58836e-07
2.79172e-07
2.79987e-07
3.01997e-07
3.53655e-07
3.87093e-07
4.14739e-07
4.40445e-07
4.76281e-07
5.14274e-07
5.63808e-07
6.3548e-07
7.34221e-07
8.60957e-07
9.79791e-07
1.20388e-06
1.5334e-06
1.62134e-06
1.62227e-06
1.62316e-06
1.62335e-06
1.62306e-06
1.43506e-06
1.17663e-06
9.95553e-07
8.55399e-07
7.51161e-07
6.73434e-07
6.12733e-07
5.62571e-07
5.20937e-07
4.87716e-07
4.59516e-07
4.33595e-07
4.1134e-07
3.93754e-07
3.77647e-07
3.60952e-07
3.47039e-07
3.36744e-07
3.27366e-07
3.16491e-07
3.07004e-07
2.99495e-07
2.92527e-07
2.85177e-07
2.78712e-07
2.7326e-07
2.68346e-07
2.63505e-07
2.59038e-07
2.55171e-07
2.51697e-07
2.48485e-07
2.45609e-07
2.43063e-07
2.40724e-07
2.38554e-07
2.36612e-07
2.34991e-07
2.33667e-07
2.32591e-07
2.31735e-07
2.31064e-07
2.30523e-07
2.30082e-07
2.29756e-07
2.29628e-07
2.29736e-07
2.30032e-07
2.30455e-07
2.30974e-07
2.31585e-07
2.32309e-07
2.33161e-07
2.34192e-07
2.35495e-07
2.37089e-07
2.38893e-07
2.40772e-07
2.4268e-07
2.44602e-07
2.46539e-07
2.48527e-07
2.50586e-07
2.52777e-07
2.55164e-07
2.5779e-07
2.60663e-07
2.6376e-07
2.67082e-07
2.70563e-07
2.74116e-07
2.77668e-07
2.81206e-07
2.84769e-07
2.88349e-07
2.9202e-07
2.95806e-07
2.99865e-07
3.04293e-07
3.08975e-07
3.1379e-07
3.1867e-07
3.23431e-07
3.27872e-07
3.32286e-07
3.36881e-07
3.41898e-07
3.47535e-07
3.53587e-07
3.5989e-07
3.6622e-07
3.72407e-07
3.78482e-07
3.84626e-07
3.91071e-07
3.97815e-07
4.04805e-07
4.12007e-07
4.19421e-07
4.27064e-07
4.3488e-07
4.42819e-07
4.50961e-07
4.595e-07
4.6856e-07
4.77998e-07
4.87574e-07
4.97179e-07
5.06916e-07
5.16882e-07
5.27081e-07
5.37554e-07
5.48443e-07
5.59841e-07
5.71664e-07
5.83802e-07
5.96308e-07
6.09306e-07
6.22842e-07
6.36951e-07
6.51718e-07
6.67191e-07
6.83268e-07
6.99838e-07
7.16903e-07
7.34481e-07
7.52456e-07
7.70732e-07
7.89416e-07
8.08744e-07
8.28775e-07
8.49303e-07
8.70101e-07
8.91164e-07
9.12651e-07
9.34637e-07
9.57109e-07
9.80147e-07
1.004e-06
1.02896e-06
1.05518e-06
1.0827e-06
1.11148e-06
1.14165e-06
1.17339e-06
1.2068e-06
1.2418e-06
1.27816e-06
1.31564e-06
1.35403e-06
1.39322e-06
1.433e-06
1.47322e-06
1.50801e-06
1.50848e-06
1.50898e-06
1.50945e-06
1.50987e-06
1.51022e-06
1.51049e-06
1.51068e-06
1.51079e-06
1.51087e-06
1.51094e-06
1.51104e-06
1.5112e-06
1.51143e-06
1.51172e-06
1.51204e-06
1.51239e-06
1.51273e-06
1.51309e-06
1.51345e-06
1.51377e-06
1.51394e-06
1.51388e-06
1.51368e-06
1.51349e-06
1.51342e-06
1.51349e-06
1.5136e-06
1.51378e-06
1.51412e-06
1.51466e-06
1.51527e-06
1.5157e-06
1.51586e-06
1.51588e-06
1.51588e-06
1.51581e-06
1.51557e-06
1.51523e-06
1.51495e-06
1.51486e-06
1.51491e-06
1.51501e-06
1.5152e-06
1.51548e-06
1.51573e-06
1.51586e-06
1.51586e-06
1.51574e-06
1.51548e-06
1.5151e-06
1.51477e-06
1.51462e-06
1.51465e-06
1.51478e-06
1.51498e-06
1.51527e-06
1.51554e-06
1.51565e-06
1.51553e-06
1.51523e-06
1.51489e-06
1.51459e-06
1.51439e-06
1.51434e-06
1.51448e-06
1.5148e-06
1.51518e-06
1.51547e-06
1.51561e-06
1.51562e-06
1.5156e-06
1.51559e-06
1.51556e-06
1.51558e-06
1.51577e-06
1.51617e-06
1.51665e-06
1.51698e-06
1.51706e-06
1.51689e-06
1.51655e-06
1.51623e-06
1.51608e-06
1.51616e-06
1.51641e-06
1.51672e-06
1.51694e-06
1.51693e-06
1.51667e-06
1.51624e-06
1.51575e-06
1.51537e-06
1.51527e-06
1.51554e-06
1.51604e-06
1.51647e-06
1.51662e-06
1.51655e-06
1.51647e-06
1.51639e-06
1.51634e-06
1.51654e-06
1.51689e-06
1.51712e-06
1.51709e-06
1.51689e-06
1.51672e-06
1.51678e-06
1.51707e-06
1.51735e-06
1.51756e-06
1.51773e-06
1.51772e-06
1.5177e-06
1.51785e-06
1.51804e-06
1.51776e-06
1.51745e-06
1.51701e-06
1.51694e-06
1.51787e-06
1.51805e-06
1.51859e-06
1.51953e-06
1.52053e-06
1.52097e-06
1.52072e-06
1.52147e-06
1.52145e-06
1.52134e-06
1.52064e-06
1.52031e-06
1.52059e-06
1.52054e-06
1.52149e-06
1.52089e-06
1.51937e-06
1.51953e-06
1.51978e-06
1.52072e-06
1.52032e-06
1.52065e-06
1.52187e-06
1.52244e-06
1.52288e-06
1.52202e-06
1.52272e-06
1.52171e-06
1.52139e-06
1.52039e-06
1.52138e-06
1.52257e-06
1.52089e-06
1.52263e-06
1.5229e-06
1.52141e-06
1.52121e-06
1.51667e-06
1.51951e-06
1.51942e-06
1.51966e-06
1.52322e-06
1.52302e-06
1.52299e-06
1.52276e-06
1.52235e-06
1.52282e-06
1.52175e-06
1.52084e-06
1.51994e-06
1.51816e-06
1.51616e-06
1.51481e-06
1.51405e-06
1.5135e-06
1.51368e-06
1.51485e-06
1.51621e-06
1.51679e-06
1.51653e-06
1.51634e-06
1.51686e-06
1.51791e-06
1.51888e-06
1.51942e-06
1.51936e-06
1.51875e-06
1.51782e-06
1.5169e-06
1.5162e-06
1.51585e-06
1.51588e-06
1.5163e-06
1.5172e-06
1.51865e-06
1.52073e-06
1.52281e-06
1.52309e-06
1.52311e-06
1.52313e-06
1.52314e-06
1.52314e-06
1.52315e-06
1.52315e-06
1.52314e-06
1.52313e-06
1.52311e-06
1.52309e-06
1.52304e-06
1.52282e-06
1.52229e-06
1.52241e-06
1.52293e-06
1.52304e-06
1.52307e-06
1.5231e-06
1.52312e-06
1.52311e-06
1.52307e-06
1.52293e-06
1.52183e-06
1.52301e-06
1.52307e-06
1.52308e-06
1.52298e-06
1.51717e-06
1.51178e-06
1.51416e-06
1.52157e-06
1.52271e-06
1.5171e-06
1.51098e-06
1.5145e-06
1.52297e-06
1.52304e-06
1.52221e-06
1.5217e-06
1.5231e-06
1.5231e-06
1.52297e-06
1.51695e-06
1.51975e-06
1.51256e-06
1.51308e-06
1.50909e-06
3.30801e-09
4.10812e-09
1.33065e-08
1.51277e-08
1.69284e-08
1.62091e-08
1.6289e-08
1.66441e-08
1.71131e-08
1.77257e-08
1.83539e-08
1.89684e-08
1.94338e-08
1.97532e-08
2.05503e-08
2.13394e-08
2.19148e-08
2.26107e-08
2.34562e-08
2.40093e-08
2.39987e-08
2.49506e-08
2.68098e-08
2.83989e-08
2.8172e-08
2.85348e-08
3.00129e-08
3.24759e-08
3.52409e-08
3.52867e-08
3.926e-08
4.75767e-08
5.39658e-08
4.62144e-08
3.98953e-08
4.44804e-08
6.20043e-08
7.79015e-08
6.14355e-08
5.37294e-08
5.40734e-08
7.85582e-08
1.32223e-07
1.21409e-07
7.63684e-08
1.08104e-07
2.99266e-07
1.9761e-07
1.63962e-07
2.65606e-07
5.46077e-07
3.8105e-07
4.83991e-07
3.37905e-07
2.95434e-07
9.20039e-07
4.64943e-07
1.58272e-07
1.97894e-07
2.68078e-07
2.31466e-07
1.15563e-07
1.15976e-07
1.45154e-07
1.48754e-07
1.30944e-07
1.32102e-07
1.80693e-07
2.4335e-07
2.9319e-07
2.25137e-07
1.3247e-07
1.01434e-07
8.67297e-08
7.66452e-08
5.6312e-08
3.43395e-08
2.8553e-08
2.27054e-08
2.38684e-08
2.02672e-08
2.22984e-08
1.46899e-08
1.27889e-08
1.30477e-08
1.57173e-08
2.8581e-08
3.51614e-08
2.9451e-08
4.6793e-08
4.91397e-08
5.49882e-08
1.07314e-07
2.70676e-07
1.63232e-07
9.9432e-08
8.87181e-08
7.2331e-08
6.55976e-08
7.6397e-08
7.19042e-08
8.5679e-08
6.86274e-08
5.7422e-08
3.11579e-08
3.47923e-08
5.4601e-08
7.84313e-08
8.06461e-08
1.00789e-07
9.18857e-08
1.06499e-07
1.148e-07
1.91416e-07
1.50917e-07
1.05916e-07
8.32947e-08
9.55406e-08
9.11864e-08
1.15541e-07
9.73954e-08
8.6408e-08
3.82693e-08
4.18649e-08
1.08384e-07
1.01271e-07
1.50465e-07
1.43039e-07
1.50718e-07
1.56612e-07
2.9953e-07
3.45416e-07
3.3741e-07
3.69827e-07
3.82498e-07
3.60437e-07
4.00671e-07
4.65361e-07
5.02011e-07
5.32483e-07
5.959e-07
6.94554e-07
8.36424e-07
8.96639e-07
1.03391e-06
1.23562e-06
1.44804e-06
1.6934e-06
1.74256e-06
1.61592e-06
1.37254e-06
1.17662e-06
1.05015e-06
9.20439e-07
7.95323e-07
7.05903e-07
6.467e-07
5.96904e-07
5.49029e-07
5.09195e-07
4.80667e-07
4.55649e-07
4.29472e-07
4.07253e-07
3.90375e-07
3.7423e-07
3.57147e-07
3.43586e-07
3.34184e-07
3.24651e-07
3.12968e-07
3.03612e-07
2.96667e-07
2.89846e-07
2.82269e-07
2.75854e-07
2.70771e-07
2.66101e-07
2.6136e-07
2.57055e-07
2.53316e-07
2.49828e-07
2.46533e-07
2.43632e-07
2.41188e-07
2.39011e-07
2.37004e-07
2.35296e-07
2.3399e-07
2.32845e-07
2.3173e-07
2.30742e-07
2.29971e-07
2.29402e-07
2.28927e-07
2.28554e-07
2.28434e-07
2.28596e-07
2.28962e-07
2.29515e-07
2.30214e-07
2.30995e-07
2.3183e-07
2.32691e-07
2.33615e-07
2.34769e-07
2.36266e-07
2.38058e-07
2.40052e-07
2.42185e-07
2.44294e-07
2.46294e-07
2.48238e-07
2.5024e-07
2.52321e-07
2.54621e-07
2.57183e-07
2.60071e-07
2.63195e-07
2.66446e-07
2.69724e-07
2.73039e-07
2.76362e-07
2.79724e-07
2.83226e-07
2.86985e-07
2.90998e-07
2.95167e-07
2.99491e-07
3.03922e-07
3.084e-07
3.12983e-07
3.17676e-07
3.22396e-07
3.26985e-07
3.31559e-07
3.36257e-07
3.41223e-07
3.46597e-07
3.52431e-07
3.58595e-07
3.64984e-07
3.71398e-07
3.77733e-07
3.84084e-07
3.90593e-07
3.97295e-07
4.04131e-07
4.11042e-07
4.1808e-07
4.25368e-07
4.32947e-07
4.40775e-07
4.48906e-07
4.57605e-07
4.6713e-07
4.77378e-07
4.87843e-07
4.98057e-07
5.07986e-07
5.17866e-07
5.27885e-07
5.38076e-07
5.48545e-07
5.59473e-07
5.7095e-07
5.82956e-07
5.95542e-07
6.08823e-07
6.22775e-07
6.37277e-07
6.52275e-07
6.678e-07
6.8383e-07
7.00278e-07
7.17044e-07
7.34013e-07
7.51041e-07
7.68091e-07
7.85406e-07
8.03433e-07
8.22532e-07
8.42783e-07
8.64073e-07
8.86298e-07
9.09443e-07
9.33461e-07
9.58257e-07
9.83784e-07
1.01003e-06
1.03689e-06
1.06414e-06
1.09156e-06
1.11914e-06
1.1472e-06
1.17628e-06
1.20673e-06
1.23854e-06
1.27149e-06
1.30546e-06
1.3406e-06
1.3772e-06
1.41555e-06
1.45577e-06
1.49785e-06
1.54172e-06
1.58729e-06
1.63449e-06
1.68312e-06
1.73293e-06
1.78363e-06
1.83507e-06
1.88725e-06
1.9404e-06
1.99499e-06
2.05177e-06
2.11168e-06
2.17549e-06
2.24344e-06
2.3153e-06
2.39112e-06
2.47219e-06
2.56057e-06
2.65676e-06
2.75738e-06
2.85617e-06
2.94966e-06
3.04194e-06
3.14066e-06
3.24831e-06
3.36e-06
3.4733e-06
3.59737e-06
3.74498e-06
3.91503e-06
4.09051e-06
4.25871e-06
4.42838e-06
4.6144e-06
4.81033e-06
4.99424e-06
5.16288e-06
5.33991e-06
5.54586e-06
5.78003e-06
6.04074e-06
6.33959e-06
6.68263e-06
7.05756e-06
7.45012e-06
7.85147e-06
8.24175e-06
8.59553e-06
8.9167e-06
9.23943e-06
9.51721e-06
9.51716e-06
9.51721e-06
9.51729e-06
9.51739e-06
9.51752e-06
9.51763e-06
9.51766e-06
9.51759e-06
9.51743e-06
9.51727e-06
9.51714e-06
9.51706e-06
9.51706e-06
9.51714e-06
9.51731e-06
9.5175e-06
9.51765e-06
9.51771e-06
9.51772e-06
9.51772e-06
9.51775e-06
9.51777e-06
9.51782e-06
9.51793e-06
9.51812e-06
9.51834e-06
9.51848e-06
9.51849e-06
9.5184e-06
9.51826e-06
9.51815e-06
9.51813e-06
9.51821e-06
9.51835e-06
9.51848e-06
9.51854e-06
9.5185e-06
9.51834e-06
9.51814e-06
9.51793e-06
9.51779e-06
9.51778e-06
9.51792e-06
9.51813e-06
9.5183e-06
9.51835e-06
9.51832e-06
9.51833e-06
9.51835e-06
9.51837e-06
9.51845e-06
9.51858e-06
9.51865e-06
9.51865e-06
9.5186e-06
9.51856e-06
9.51863e-06
9.5188e-06
9.51894e-06
9.51902e-06
9.51909e-06
9.51909e-06
9.51908e-06
9.51916e-06
9.5192e-06
9.51912e-06
9.51911e-06
9.51893e-06
9.51891e-06
9.51946e-06
9.51997e-06
9.52024e-06
9.52025e-06
9.52041e-06
9.52058e-06
9.52068e-06
9.52109e-06
9.52111e-06
9.52112e-06
9.52081e-06
9.5207e-06
9.52081e-06
9.5208e-06
9.52124e-06
9.52096e-06
9.52022e-06
9.52039e-06
9.52052e-06
9.52113e-06
9.52095e-06
9.52101e-06
9.52154e-06
9.52176e-06
9.5219e-06
9.52142e-06
9.522e-06
9.52156e-06
9.52128e-06
9.52116e-06
9.52163e-06
9.52194e-06
9.52136e-06
9.52178e-06
9.52075e-06
7.05345e-06
7.28787e-06
3.49127e-06
3.17172e-06
8.22419e-06
8.51453e-06
9.52238e-06
9.52228e-06
9.52226e-06
9.52201e-06
9.52187e-06
9.52208e-06
9.52124e-06
9.52052e-06
9.51981e-06
9.51873e-06
9.518e-06
9.51773e-06
9.51744e-06
9.51708e-06
9.51712e-06
9.51762e-06
9.51813e-06
9.51825e-06
9.51815e-06
9.51826e-06
9.51872e-06
9.51939e-06
9.51994e-06
9.52019e-06
9.52009e-06
9.51969e-06
9.51915e-06
9.51866e-06
9.51837e-06
9.51832e-06
9.5185e-06
9.51889e-06
9.51949e-06
9.52033e-06
9.52139e-06
9.52224e-06
9.52234e-06
9.52235e-06
9.52235e-06
9.52236e-06
9.52237e-06
9.52237e-06
9.52238e-06
9.52238e-06
9.52237e-06
9.52235e-06
9.52233e-06
9.5223e-06
9.52225e-06
9.52212e-06
9.52216e-06
9.52226e-06
9.52229e-06
9.52231e-06
9.52233e-06
9.52235e-06
9.52235e-06
9.52233e-06
9.52227e-06
9.52204e-06
9.52227e-06
9.52231e-06
9.52232e-06
9.52185e-06
9.51855e-06
9.51699e-06
9.51901e-06
9.52178e-06
9.52131e-06
9.51799e-06
9.51642e-06
9.5195e-06
9.52226e-06
9.52219e-06
9.52111e-06
9.52214e-06
9.52236e-06
9.5224e-06
9.52129e-06
9.51933e-06
9.52e-06
9.5175e-06
9.03032e-06
9.51484e-06
3.19761e-09
4.11438e-09
1.31896e-08
1.4362e-08
1.69344e-08
1.65427e-08
1.68477e-08
1.7314e-08
1.78856e-08
1.84251e-08
1.89471e-08
1.95711e-08
2.01874e-08
2.06787e-08
2.12439e-08
2.17619e-08
2.22795e-08
2.28625e-08
2.34201e-08
2.39037e-08
2.42491e-08
2.51562e-08
2.65231e-08
2.78412e-08
2.83819e-08
2.92258e-08
3.00911e-08
3.1185e-08
3.33599e-08
3.2391e-08
3.10628e-08
3.45242e-08
4.59486e-08
5.9899e-08
4.8619e-08
4.13437e-08
4.60389e-08
5.64165e-08
6.82485e-08
6.79726e-08
5.86817e-08
7.2112e-08
1.26803e-07
1.88904e-07
1.21969e-07
1.2378e-07
2.16417e-07
2.3373e-07
2.15329e-07
2.80881e-07
3.61275e-07
4.89743e-07
5.5606e-07
2.35362e-07
2.42792e-07
4.29255e-07
2.2197e-07
1.50413e-07
2.77329e-07
3.39137e-07
1.93099e-07
1.15596e-07
1.47456e-07
1.75062e-07
1.6953e-07
1.31612e-07
1.18706e-07
1.22121e-07
1.43124e-07
2.16476e-07
2.21604e-07
1.11271e-07
7.67697e-08
6.33415e-08
5.9452e-08
6.37012e-08
5.88894e-08
5.94188e-08
4.47881e-08
2.70193e-08
2.47544e-08
1.96475e-08
2.11783e-08
1.87029e-08
2.65026e-08
1.82833e-08
1.25507e-08
1.08429e-08
1.09846e-08
1.64672e-08
2.70374e-08
2.69864e-08
4.17556e-08
4.76681e-08
5.95399e-08
1.24395e-07
2.16149e-07
1.18257e-07
8.63192e-08
8.78889e-08
7.90084e-08
6.60772e-08
7.5899e-08
6.90453e-08
8.85323e-08
7.80909e-08
5.9404e-08
4.22335e-08
2.94249e-08
3.30295e-08
7.06653e-08
6.57324e-08
8.79221e-08
8.9329e-08
9.9106e-08
9.69281e-08
1.4633e-07
1.52865e-07
1.28659e-07
8.93847e-08
1.04334e-07
9.86473e-08
1.24483e-07
8.87415e-08
8.13827e-08
3.68072e-08
4.02405e-08
9.92616e-08
9.31643e-08
1.46512e-07
1.43042e-07
1.72754e-07
1.84583e-07
4.38158e-07
5.52527e-07
5.23254e-07
4.3706e-07
4.29248e-07
4.32175e-07
4.5809e-07
5.51e-07
6.20169e-07
7.53776e-07
8.1181e-07
8.26472e-07
9.45602e-07
1.06454e-06
1.14298e-06
1.17169e-06
1.14021e-06
1.04238e-06
9.66286e-07
8.94542e-07
8.10671e-07
7.28944e-07
6.62205e-07
6.13241e-07
5.71849e-07
5.33568e-07
5.00094e-07
4.71716e-07
4.46461e-07
4.23978e-07
4.04524e-07
3.86287e-07
3.69422e-07
3.55868e-07
3.44015e-07
3.31958e-07
3.20068e-07
3.10427e-07
3.0248e-07
2.94803e-07
2.87476e-07
2.81031e-07
2.7522e-07
2.69896e-07
2.65004e-07
2.60618e-07
2.5662e-07
2.52838e-07
2.49356e-07
2.46132e-07
2.43236e-07
2.4072e-07
2.38659e-07
2.36929e-07
2.35435e-07
2.34115e-07
2.32903e-07
2.31683e-07
2.30573e-07
2.29704e-07
2.29174e-07
2.28836e-07
2.28579e-07
2.2842e-07
2.28509e-07
2.28846e-07
2.29443e-07
2.30281e-07
2.31313e-07
2.32386e-07
2.33421e-07
2.34419e-07
2.35432e-07
2.36569e-07
2.37969e-07
2.39773e-07
2.41929e-07
2.44225e-07
2.46523e-07
2.48764e-07
2.5108e-07
2.53449e-07
2.55921e-07
2.58471e-07
2.61206e-07
2.64077e-07
2.67036e-07
2.70033e-07
2.73156e-07
2.76423e-07
2.7984e-07
2.83484e-07
2.87459e-07
2.91726e-07
2.96193e-07
3.00602e-07
3.04853e-07
3.09013e-07
3.13199e-07
3.17562e-07
3.22248e-07
3.27249e-07
3.32267e-07
3.37252e-07
3.42167e-07
3.47002e-07
3.52241e-07
3.58047e-07
3.64399e-07
3.71075e-07
3.77787e-07
3.84354e-07
3.9074e-07
3.97188e-07
4.03782e-07
4.10504e-07
4.17411e-07
4.24639e-07
4.3229e-07
4.40333e-07
4.48698e-07
4.57488e-07
4.66923e-07
4.77045e-07
4.8749e-07
4.97822e-07
5.07962e-07
5.18159e-07
5.2855e-07
5.38972e-07
5.49376e-07
5.60075e-07
5.71439e-07
5.83581e-07
5.96453e-07
6.09991e-07
6.24027e-07
6.3835e-07
6.52929e-07
6.67875e-07
6.83247e-07
6.98997e-07
7.15066e-07
7.3141e-07
7.47985e-07
7.6477e-07
7.81929e-07
7.99822e-07
8.18864e-07
8.39295e-07
8.61137e-07
8.84314e-07
9.08741e-07
9.34322e-07
9.6087e-07
9.88091e-07
1.01563e-06
1.04311e-06
1.0703e-06
1.09717e-06
1.12392e-06
1.1509e-06
1.17844e-06
1.20673e-06
1.23589e-06
1.26606e-06
1.29752e-06
1.3307e-06
1.36602e-06
1.40381e-06
1.44421e-06
1.4872e-06
1.53267e-06
1.58033e-06
1.62973e-06
1.68038e-06
1.73179e-06
1.78359e-06
1.83563e-06
1.88792e-06
1.94067e-06
1.99439e-06
2.05015e-06
2.10968e-06
2.17487e-06
2.24679e-06
2.32467e-06
2.4063e-06
2.48999e-06
2.57684e-06
2.66981e-06
2.76921e-06
2.86927e-06
2.96218e-06
3.04772e-06
3.13619e-06
3.23804e-06
3.35205e-06
3.47019e-06
3.59593e-06
3.74809e-06
3.93727e-06
4.14394e-06
4.33406e-06
4.49993e-06
4.66553e-06
4.84457e-06
5.01875e-06
5.1735e-06
5.33154e-06
5.52605e-06
5.7624e-06
6.03243e-06
6.34305e-06
6.70299e-06
7.09924e-06
7.51001e-06
7.92057e-06
8.30657e-06
8.63473e-06
8.90871e-06
9.18661e-06
9.53177e-06
9.9696e-06
9.99522e-06
9.99522e-06
9.99522e-06
9.99522e-06
9.99522e-06
9.99522e-06
9.99522e-06
9.99521e-06
9.9952e-06
9.9952e-06
9.9952e-06
9.9952e-06
9.9952e-06
9.9952e-06
9.9952e-06
9.9952e-06
9.9952e-06
9.9952e-06
9.9952e-06
9.9952e-06
9.9952e-06
9.9952e-06
9.9952e-06
9.9952e-06
9.99521e-06
9.99521e-06
9.99521e-06
9.9952e-06
9.9952e-06
9.9952e-06
9.9952e-06
9.9952e-06
9.9952e-06
9.99521e-06
9.99521e-06
9.99521e-06
9.9952e-06
9.9952e-06
9.99519e-06
9.99519e-06
9.99519e-06
9.9952e-06
9.9952e-06
9.9952e-06
9.9952e-06
9.9952e-06
9.9952e-06
9.9952e-06
9.9952e-06
9.9952e-06
9.9952e-06
9.9952e-06
9.9952e-06
9.9952e-06
9.99519e-06
9.9952e-06
9.9952e-06
9.9952e-06
9.99521e-06
9.9952e-06
9.9952e-06
9.99519e-06
9.9952e-06
9.99519e-06
9.99519e-06
9.9952e-06
9.9952e-06
9.9952e-06
9.9952e-06
9.99521e-06
9.99521e-06
9.99521e-06
9.99521e-06
9.99521e-06
9.99522e-06
9.99522e-06
9.99522e-06
9.99522e-06
9.99521e-06
9.99521e-06
9.99521e-06
9.99521e-06
9.99521e-06
9.99521e-06
9.9952e-06
9.9952e-06
9.99521e-06
9.99521e-06
9.99521e-06
9.99521e-06
9.99522e-06
9.99522e-06
9.99522e-06
9.99522e-06
9.99523e-06
9.99523e-06
9.99522e-06
9.99522e-06
9.99524e-06
9.99523e-06
6.79321e-06
7.00236e-06
3.12985e-06
2.96954e-06
7.25844e-06
8.09864e-06
9.83124e-06
9.47327e-06
9.9953e-06
9.99526e-06
9.99524e-06
9.99524e-06
9.99525e-06
9.99525e-06
9.99525e-06
9.99523e-06
9.99522e-06
9.9952e-06
9.99518e-06
9.99517e-06
9.99517e-06
9.99517e-06
9.99517e-06
9.99517e-06
9.99518e-06
9.99519e-06
9.99519e-06
9.99518e-06
9.99518e-06
9.99519e-06
9.9952e-06
9.99521e-06
9.99522e-06
9.99523e-06
9.99522e-06
9.99521e-06
9.9952e-06
9.99518e-06
9.99518e-06
9.99518e-06
9.99519e-06
9.99521e-06
9.99522e-06
9.99523e-06
9.99524e-06
9.99524e-06
9.99524e-06
9.99524e-06
9.99523e-06
9.99524e-06
9.99524e-06
9.99524e-06
9.99525e-06
9.99525e-06
9.99525e-06
9.99525e-06
9.99524e-06
9.99524e-06
9.99524e-06
9.99524e-06
9.99523e-06
9.99523e-06
9.99524e-06
9.99524e-06
9.99525e-06
9.99525e-06
9.99526e-06
9.99525e-06
9.99523e-06
9.99524e-06
9.99525e-06
9.99525e-06
9.99523e-06
9.99519e-06
9.99519e-06
9.99521e-06
9.99524e-06
9.99521e-06
9.99519e-06
9.99521e-06
9.99522e-06
9.99529e-06
9.99523e-06
9.99524e-06
9.99531e-06
9.99534e-06
9.99524e-06
9.99522e-06
9.99521e-06
9.99521e-06
9.99522e-06
6.58994e-06
9.7941e-06
3.23744e-09
4.06612e-09
1.18536e-08
1.31292e-08
1.6706e-08
1.64904e-08
1.71462e-08
1.77909e-08
1.8495e-08
1.89635e-08
1.93618e-08
1.99592e-08
2.05846e-08
2.10874e-08
2.1417e-08
2.16672e-08
2.2019e-08
2.25014e-08
2.30379e-08
2.35634e-08
2.41358e-08
2.47996e-08
2.56739e-08
2.67761e-08
2.79499e-08
2.91942e-08
3.01019e-08
3.07496e-08
3.15397e-08
3.11157e-08
3.0126e-08
3.15335e-08
3.63634e-08
4.52485e-08
4.70809e-08
4.46993e-08
4.83178e-08
5.56805e-08
6.55137e-08
7.03715e-08
7.03633e-08
8.5922e-08
1.22786e-07
1.49712e-07
1.36096e-07
1.36673e-07
1.63494e-07
1.79467e-07
1.85679e-07
2.26497e-07
4.72131e-07
7.78924e-07
3.00192e-07
1.90709e-07
2.57969e-07
2.32875e-07
1.55404e-07
1.96848e-07
3.99593e-07
3.40362e-07
1.73954e-07
1.44623e-07
1.62064e-07
1.75292e-07
1.51076e-07
1.42785e-07
1.34068e-07
1.09751e-07
9.85849e-08
1.07402e-07
1.2533e-07
1.08074e-07
7.48836e-08
5.55212e-08
4.95622e-08
5.65295e-08
5.73066e-08
5.1386e-08
5.3631e-08
4.57057e-08
5.4671e-08
5.24572e-08
3.24667e-08
2.94983e-08
2.76382e-08
2.42537e-08
1.76961e-08
1.47967e-08
1.7979e-08
1.32196e-08
1.03645e-08
1.04787e-08
1.51586e-08
2.33703e-08
2.49494e-08
3.85054e-08
4.52695e-08
5.43699e-08
1.0327e-07
1.71466e-07
1.31492e-07
1.07828e-07
1.07683e-07
8.63813e-08
7.62983e-08
1.01254e-07
1.23847e-07
6.90539e-08
8.60613e-08
6.22627e-08
5.3776e-08
2.9144e-08
3.28089e-08
7.01025e-08
6.68733e-08
8.36292e-08
8.27317e-08
9.58429e-08
1.05361e-07
1.80967e-07
1.86457e-07
1.50009e-07
1.03738e-07
1.19683e-07
1.03753e-07
1.27318e-07
8.46172e-08
7.61808e-08
3.56623e-08
3.88074e-08
9.21978e-08
8.7036e-08
1.42386e-07
1.40976e-07
4.04988e-07
1.92466e-07
2.09444e-07
5.38752e-07
6.10832e-07
4.58734e-07
4.8153e-07
5.15107e-07
5.91029e-07
7.49762e-07
7.34121e-07
7.67359e-07
8.28196e-07
8.70299e-07
8.97103e-07
8.82765e-07
8.33373e-07
7.96925e-07
7.53093e-07
7.02479e-07
6.55502e-07
6.13327e-07
5.74757e-07
5.40278e-07
5.10577e-07
4.83237e-07
4.56268e-07
4.32378e-07
4.13735e-07
3.9676e-07
3.78509e-07
3.62485e-07
3.51616e-07
3.40812e-07
3.27096e-07
3.14501e-07
3.06961e-07
2.99996e-07
2.91659e-07
2.84049e-07
2.78704e-07
2.73299e-07
2.67614e-07
2.62559e-07
2.58603e-07
2.54839e-07
2.51233e-07
2.48032e-07
2.45233e-07
2.42552e-07
2.40012e-07
2.37866e-07
2.36086e-07
2.345e-07
2.32969e-07
2.3164e-07
2.30635e-07
2.29804e-07
2.29124e-07
2.28752e-07
2.28573e-07
2.2844e-07
2.28228e-07
2.28105e-07
2.28215e-07
2.28592e-07
2.29324e-07
2.3042e-07
2.31718e-07
2.33085e-07
2.34379e-07
2.35528e-07
2.36557e-07
2.37718e-07
2.39241e-07
2.41206e-07
2.43622e-07
2.46335e-07
2.48871e-07
2.51451e-07
2.54089e-07
2.5667e-07
2.59171e-07
2.61715e-07
2.64413e-07
2.67383e-07
2.70551e-07
2.73934e-07
2.77423e-07
2.80905e-07
2.84449e-07
2.88086e-07
2.91945e-07
2.96214e-07
3.00641e-07
3.05111e-07
3.09532e-07
3.13776e-07
3.18028e-07
3.2253e-07
3.27395e-07
3.32393e-07
3.37403e-07
3.42399e-07
3.47347e-07
3.52527e-07
3.58234e-07
3.64424e-07
3.70967e-07
3.77564e-07
3.83944e-07
3.90165e-07
3.96486e-07
4.03119e-07
4.10109e-07
4.17365e-07
4.24863e-07
4.32718e-07
4.40956e-07
4.49397e-07
4.57883e-07