/*--------------------------------*- C++ -*----------------------------------*\
| =========                 |                                                 |
| \\      /  F ield         | OpenFOAM: The Open Source CFD Toolbox           |
|  \\    /   O peration     | Version:  v2006                                 |
|   \\  /    A nd           | Website:  www.openfoam.com                      |
|    \\/     M anipulation  |                                                 |
\*---------------------------------------------------------------------------*/
FoamFile
{
    version     2.0;
    format      ascii;
    class       volScalarField;
    location    "1.6";
    object      omega;
}
// * * * * * * * * * * * * * * * * * * * * * * * * * * * * * * * * * * * * * //

dimensions      [0 0 -1 0 0 0 0];


internalField   nonuniform List<scalar> 
33000
(
0.80292
0.802764
0.802811
0.802794
0.802783
0.802781
0.802775
0.802771
0.802768
0.802767
0.802768
0.802771
0.802773
0.802778
0.802779
0.80278
0.80278
0.80278
0.802781
0.802784
0.80279
0.802795
0.8028
0.802805
0.802812
0.80282
0.802827
0.802834
0.80284
0.802848
0.802855
0.802862
0.802867
0.802872
0.80288
0.80289
0.802896
0.802898
0.802902
0.802907
0.802912
0.802914
0.802911
0.802905
0.802899
0.802892
0.802879
0.802865
0.802851
0.802838
0.802823
0.802808
0.802794
0.80278
0.802768
0.802755
0.802742
0.80273
0.802717
0.802703
0.802688
0.802674
0.802659
0.802645
0.80263
0.802614
0.802598
0.802582
0.802565
0.802547
0.802527
0.802504
0.802475
0.802438
0.802395
0.802342
0.802276
0.8022
0.802123
0.802138
0.802116
0.802124
0.802121
0.802118
0.80212
0.802112
0.802102
0.802095
0.802088
0.802082
0.802074
0.802067
0.80206
0.802053
0.802045
0.802036
0.802026
0.802016
0.802004
0.801994
0.801991
0.801984
0.801978
0.80197
0.801963
0.801955
0.801947
0.801939
0.801931
0.801923
0.801915
0.801907
0.801899
0.801891
0.801882
0.801872
0.801862
0.80185
0.801846
0.801839
0.801832
0.801824
0.801817
0.80181
0.801803
0.801795
0.801788
0.801781
0.801774
0.801766
0.801759
0.801752
0.801745
0.801738
0.801731
0.801723
0.801716
0.801709
0.801702
0.801695
0.801688
0.801682
0.801675
0.801668
0.801661
0.801654
0.801648
0.801641
0.801634
0.801627
0.801621
0.801614
0.801607
0.801601
0.801594
0.801587
0.801581
0.801574
0.801568
0.801561
0.801555
0.801548
0.801542
0.801536
0.801529
0.801523
0.801516
0.80151
0.801504
0.801497
0.801491
0.801485
0.801479
0.801472
0.801466
0.80146
0.801454
0.801447
0.801441
0.801435
0.801429
0.801423
0.801417
0.801411
0.801405
0.801399
0.801393
0.801387
0.801381
0.801375
0.801369
0.801364
0.801358
0.801352
0.801346
0.801341
0.801335
0.80133
0.801324
0.801319
0.801314
0.801309
0.801304
0.801299
0.801295
0.80129
0.801285
0.801281
0.801277
0.801273
0.801268
0.801264
0.80126
0.801257
0.801253
0.801249
0.801246
0.801242
0.801239
0.801236
0.801232
0.801229
0.801226
0.801223
0.80122
0.801217
0.801215
0.801212
0.801209
0.801207
0.801204
0.801202
0.801199
0.801197
0.801195
0.801193
0.80119
0.801188
0.801186
0.801184
0.801182
0.80118
0.801179
0.801177
0.801175
0.801173
0.801172
0.80117
0.801168
0.801167
0.801165
0.801164
0.801162
0.801161
0.801159
0.801158
0.801157
0.801156
0.801154
0.801153
0.801152
0.801151
0.801149
0.801148
0.801147
0.801146
0.801145
0.801144
0.801143
0.801142
0.801141
0.80114
0.80114
0.801139
0.801138
0.801137
0.801136
0.801135
0.801135
0.801134
0.801133
0.801133
0.801132
0.801131
0.801131
0.80113
0.801129
0.801129
0.801128
0.801128
0.801127
0.801127
0.801126
0.801126
0.801125
0.801125
0.801124
0.801124
0.801124
0.801123
0.801123
0.801122
0.801122
0.801122
0.801121
0.801121
0.801121
0.80112
0.80112
0.80112
0.801119
0.801119
0.801119
0.801119
0.801118
0.801118
0.801118
0.801118
0.801117
0.801117
0.801117
0.801117
0.801117
0.801116
0.801116
0.801116
0.801116
0.801116
0.801116
0.801116
0.801116
0.801115
0.801115
0.801115
0.801115
0.801115
0.801115
0.801115
0.801115
0.801115
0.801115
0.801114
0.801114
0.801114
0.801114
0.801114
0.801114
0.801114
0.801114
0.801114
0.801114
0.801114
0.801114
0.801114
0.801114
0.801114
0.801113
0.801113
0.801113
0.801113
0.801113
0.801113
0.801113
0.801113
0.801113
0.801113
0.801113
0.801113
0.801112
0.801112
0.801112
0.801112
0.801112
0.801112
0.801112
0.801112
0.801112
0.801112
0.801112
0.801111
0.801111
0.801111
0.801111
0.801111
0.801111
0.801111
0.801111
0.801111
0.801111
0.801111
0.801111
0.801111
0.801111
0.80111
0.80111
0.80111
0.80111
0.80111
0.80111
0.80111
0.80111
0.80111
0.80111
0.80111
0.80111
0.801109
0.801109
0.801109
0.801109
0.801109
0.801109
0.801109
0.801109
0.801109
0.801109
0.801109
0.801109
0.801109
0.801109
0.801109
0.801108
0.801108
0.801108
0.801108
0.801108
0.801108
0.801108
0.801108
0.801108
0.801108
0.801108
0.801108
0.801108
0.801108
0.801108
0.801108
0.801108
0.801108
0.801108
0.801108
0.801108
0.801108
0.801108
0.801108
0.801108
0.801108
0.801108
0.801107
0.801107
0.801107
0.801107
0.801107
0.801107
0.801107
0.801107
0.801107
0.801107
0.801107
0.801107
0.801107
0.801107
0.801107
0.801107
0.801107
0.801107
0.801107
0.801107
0.801107
0.801107
0.801108
0.801108
0.801108
0.801108
0.801108
0.801108
0.801108
0.801108
0.801108
0.801108
0.801108
0.801107
0.801107
0.801107
0.801107
0.801107
0.801107
0.801107
0.801107
0.801107
0.801107
0.801107
0.801107
0.801107
0.801107
0.801107
0.801107
0.801107
0.801107
0.801107
0.801107
0.801107
0.801107
0.801107
0.801107
0.801107
0.801107
0.801107
0.801107
0.801107
0.801107
0.801107
0.801107
0.801107
0.801107
0.801107
0.801107
0.801107
0.801107
0.801107
0.801107
0.801107
0.801107
0.801107
0.801107
0.801107
0.801107
0.801107
0.801107
0.801107
0.801107
0.801107
0.801107
0.801107
0.801107
0.801107
0.801107
0.801107
0.801107
0.801107
0.801107
0.801107
0.801107
0.801107
0.801107
0.801107
0.801107
0.801107
0.801107
0.801107
0.801107
0.0127679
0.0159358
0.014254
0.0136601
0.0144438
0.015034
0.0149686
0.0148913
0.0148821
0.014856
0.0149811
0.0152605
0.0157058
0.0165312
0.016625
0.0166723
0.016826
0.0169928
0.0172041
0.0176224
0.0182471
0.0184022
0.0181244
0.0177927
0.0181803
0.0186421
0.0188622
0.0187553
0.0185864
0.0192454
0.0196257
0.0191417
0.0179467
0.0183011
0.019119
0.0195046
0.018339
0.0168461
0.0181362
0.0188589
0.0193477
0.0190062
0.0167085
0.0158743
0.0172493
0.0179558
0.0158338
0.0147915
0.0151915
0.0157562
0.0148091
0.013463
0.0128838
0.0126612
0.0130472
0.0130584
0.0126188
0.0128151
0.0136064
0.0133849
0.0123018
0.0118208
0.0124057
0.0121731
0.0114249
0.0104047
0.00959435
0.00935134
0.00883015
0.00826371
0.00809142
0.00809941
0.00858527
0.00935696
0.0105588
0.0121297
0.0131902
0.0124599
0.0100036
0.00821804
0.00872261
0.0110734
0.0120035
0.0138946
0.0139951
0.00794215
0.00710547
0.00814415
0.0086315
0.00852472
0.00845095
0.0079967
0.00703658
0.00669389
0.00620681
0.00592831
0.00591821
0.00592558
0.00592997
0.00589333
0.0059287
0.00711395
0.00812565
0.00717539
0.00811167
0.00787293
0.00678839
0.00666328
0.00677364
0.00678271
0.0065522
0.00637281
0.00606542
0.00591707
0.0059283
0.00595082
0.00600679
0.00593344
0.00586155
0.0063744
0.00724651
0.0066355
0.00741838
0.00727438
0.00657681
0.00670692
0.0066592
0.00660921
0.00660685
0.00648908
0.00638336
0.00641944
0.0063806
0.00635012
0.00632205
0.00629295
0.00630116
0.00628544
0.0062664
0.00625157
0.00623923
0.00623159
0.00622236
0.00621401
0.00620512
0.00618941
0.00618052
0.00617685
0.00617343
0.00617263
0.00617369
0.0061765
0.00618042
0.00618476
0.00618974
0.00619604
0.00620339
0.00621086
0.00621846
0.00622533
0.00623174
0.00623833
0.00624502
0.00625199
0.00625978
0.00626776
0.00627363
0.00627865
0.00628434
0.00628916
0.00629265
0.00629526
0.00629666
0.00629839
0.00629993
0.00630125
0.00630317
0.0063049
0.00630573
0.00630662
0.00630807
0.0063098
0.00631146
0.00631353
0.00631613
0.00631804
0.00631993
0.00632193
0.00632443
0.00632742
0.00632991
0.00633184
0.00633401
0.00633657
0.0063396
0.00634283
0.00634609
0.00634849
0.00635152
0.00635498
0.00635881
0.00636279
0.00636581
0.00636871
0.00637212
0.0063758
0.00637966
0.00638365
0.00638664
0.00638968
0.00639314
0.00639761
0.0064028
0.00640725
0.00641155
0.00641632
0.0064216
0.00642691
0.00643149
0.0064359
0.00644087
0.00644597
0.00645091
0.00645492
0.00645923
0.00646404
0.00646855
0.00647296
0.00647698
0.00648073
0.0064846
0.0064889
0.00649332
0.00649739
0.00650083
0.0065045
0.00650853
0.00651305
0.00651703
0.00652052
0.00652408
0.00652787
0.00653139
0.00653482
0.00653885
0.00654303
0.00654677
0.00654991
0.00655329
0.00655709
0.00656085
0.00656378
0.00656614
0.00656863
0.00657148
0.0065745
0.00657702
0.0065786
0.00657975
0.00658157
0.0065843
0.00658695
0.00658963
0.00659244
0.00659532
0.00659768
0.00659976
0.00660183
0.00660398
0.00660551
0.00660661
0.00660793
0.00660969
0.00661135
0.00661318
0.00661523
0.00661732
0.00661932
0.00662156
0.0066241
0.00662636
0.00662839
0.0066298
0.00663026
0.00663023
0.00663005
0.00662977
0.00662891
0.00662777
0.0066267
0.00662597
0.00662563
0.0066252
0.00662532
0.00662603
0.00662721
0.00662819
0.0066288
0.00662923
0.0066296
0.00662944
0.00662898
0.00662815
0.00662684
0.00662503
0.00662293
0.00662074
0.00661864
0.00661678
0.00661522
0.00661402
0.00661318
0.00661265
0.0066123
0.00661197
0.00661151
0.00661081
0.0066098
0.00660853
0.00660708
0.00660558
0.00660405
0.00660248
0.00660089
0.0065995
0.00659876
0.006599
0.00659985
0.00660068
0.00660096
0.00660068
0.00660016
0.00659939
0.00659791
0.00659553
0.00659289
0.00659102
0.00659032
0.00659023
0.00659022
0.00659051
0.00659154
0.00659303
0.00659423
0.00659462
0.00659442
0.00659395
0.00659312
0.00659193
0.00659081
0.00659026
0.00659028
0.00659078
0.00659192
0.00659353
0.006595
0.00659564
0.0065955
0.00659495
0.00659405
0.00659281
0.00659162
0.00659112
0.00659164
0.00659295
0.00659442
0.00659572
0.00659661
0.00659684
0.00659621
0.00659482
0.00659318
0.00659191
0.00659131
0.00659124
0.00659132
0.00659138
0.0065915
0.00659143
0.0065906
0.00658885
0.00658678
0.00658533
0.00658497
0.0065857
0.00658718
0.00658859
0.00658921
0.00658887
0.00658779
0.00658645
0.00658549
0.00658553
0.00658666
0.00658853
0.00659066
0.00659231
0.00659272
0.00659156
0.0065894
0.00658753
0.00658687
0.00658716
0.00658752
0.00658787
0.00658806
0.00658722
0.00658569
0.0065847
0.00658481
0.00658566
0.00658642
0.00658617
0.00658491
0.00658367
0.00658278
0.00658203
0.00658206
0.00658218
0.00658153
0.0065807
0.00658189
0.00658324
0.00658514
0.00658545
0.00658141
0.00658062
0.00657828
0.00657421
0.00656991
0.006568
0.00656909
0.00656584
0.00656593
0.00656642
0.00656942
0.00657085
0.00656963
0.00656988
0.00656578
0.00656837
0.00657491
0.00657422
0.00657314
0.0065691
0.0065708
0.0065694
0.00656413
0.00656166
0.00655975
0.00656348
0.00656046
0.00656483
0.0065662
0.00657051
0.00656621
0.00656111
0.00656836
0.00656087
0.00655971
0.00656612
0.00656699
0.00658659
0.00657432
0.00657471
0.00657383
0.00655851
0.0065592
0.00655932
0.00656033
0.00656206
0.00656002
0.00656464
0.00656853
0.00657242
0.00658013
0.00658882
0.00659468
0.00659798
0.00660038
0.00659958
0.00659448
0.00658858
0.00658607
0.00658722
0.00658802
0.00658576
0.00658124
0.00657703
0.0065747
0.00657496
0.00657761
0.00658162
0.00658562
0.00658865
0.00659016
0.00659003
0.00658822
0.00658431
0.00657803
0.00656904
0.00656009
0.00655889
0.00655881
0.00655874
0.00655869
0.00655866
0.00655864
0.00655864
0.00655866
0.00655871
0.00655878
0.00655891
0.0065591
0.00656005
0.00656231
0.00656183
0.0065596
0.00655911
0.00655897
0.00655884
0.00655877
0.00655882
0.00655901
0.00655961
0.0065643
0.00655926
0.00655897
0.00655894
0.00655936
0.00658447
0.00660794
0.00659757
0.00656543
0.00656052
0.00658477
0.0066114
0.00659607
0.00655939
0.00655914
0.00656269
0.00656489
0.00655888
0.00655887
0.00655941
0.00658541
0.0065733
0.00660451
0.00660225
0.00661975
0.00210739
0.00179024
0.00136057
0.0013032
0.00130589
0.00131763
0.00131548
0.00131435
0.00131537
0.00131684
0.00132356
0.00133445
0.00134928
0.00137183
0.00137806
0.00138376
0.00139026
0.0013955
0.00140489
0.00141849
0.00143415
0.00144022
0.001437
0.00142986
0.00143893
0.00144955
0.00145545
0.00146083
0.00145826
0.00148379
0.00152009
0.00150779
0.0014518
0.00141246
0.00143877
0.0014837
0.00146044
0.00141899
0.00142261
0.00142342
0.00146388
0.00145612
0.00138057
0.00134829
0.00137591
0.00140696
0.00135307
0.00132826
0.00133287
0.00133953
0.0013086
0.0012733
0.00125426
0.00124179
0.00124329
0.00124134
0.00122837
0.00122967
0.00124967
0.00124405
0.00121424
0.00120201
0.0012226
0.00121744
0.00119964
0.00117053
0.00115617
0.00114879
0.00114074
0.00113717
0.00113927
0.00113959
0.00115051
0.00116542
0.00118341
0.00120693
0.0012383
0.00126135
0.00128948
0.00132174
0.00137625
0.00146578
0.0016471
0.00187594
0.00178192
0.00149972
0.00138532
0.00131895
0.00121885
0.00114547
0.0010899
0.00108509
0.0010579
0.0010518
0.00105108
0.00104794
0.00104351
0.0010458
0.00104687
0.00104498
0.00104915
0.00104854
0.00105769
0.00106589
0.00110422
0.00110287
0.00107115
0.0010659
0.001067
0.00105913
0.00105131
0.00104446
0.00104096
0.00103662
0.00103645
0.00103869
0.00104042
0.0010387
0.00104155
0.00104013
0.00104676
0.00105201
0.00108272
0.00108197
0.00105308
0.00105775
0.00104863
0.00104399
0.00104067
0.00103936
0.00103719
0.00103746
0.00103688
0.00103638
0.00103592
0.00103561
0.00103545
0.00103514
0.00103488
0.00103467
0.00103451
0.00103438
0.00103429
0.00103426
0.00103417
0.00103397
0.00103388
0.00103386
0.00103389
0.00103398
0.00103411
0.00103427
0.00103439
0.00103451
0.00103465
0.00103476
0.00103487
0.00103499
0.00103513
0.00103527
0.00103538
0.00103546
0.00103555
0.00103565
0.00103572
0.00103582
0.00103591
0.001036
0.00103609
0.00103615
0.00103619
0.00103624
0.00103627
0.00103629
0.00103633
0.00103637
0.00103642
0.00103643
0.00103642
0.00103643
0.00103646
0.0010365
0.00103655
0.00103662
0.00103665
0.00103662
0.0010366
0.00103659
0.00103659
0.00103662
0.00103666
0.00103666
0.00103665
0.00103664
0.00103665
0.00103668
0.00103672
0.00103671
0.00103668
0.00103667
0.00103667
0.00103668
0.0010367
0.00103675
0.00103681
0.0010368
0.00103679
0.0010368
0.00103681
0.00103681
0.00103682
0.00103681
0.00103685
0.0010369
0.00103698
0.00103705
0.00103713
0.00103715
0.00103716
0.00103719
0.00103726
0.00103736
0.00103747
0.00103752
0.00103758
0.00103764
0.00103772
0.00103782
0.0010379
0.00103793
0.00103798
0.00103803
0.00103811
0.00103823
0.00103835
0.00103844
0.00103855
0.00103865
0.00103875
0.00103884
0.00103893
0.00103899
0.00103904
0.0010391
0.0010392
0.00103931
0.00103942
0.00103951
0.00103962
0.00103974
0.00103985
0.00103996
0.00104008
0.00104023
0.00104036
0.00104038
0.00104039
0.00104041
0.00104048
0.0010406
0.00104076
0.00104093
0.00104107
0.00104123
0.00104139
0.00104154
0.00104168
0.00104181
0.00104194
0.00104204
0.00104211
0.00104219
0.0010423
0.00104242
0.00104257
0.00104272
0.00104286
0.00104302
0.0010432
0.00104339
0.00104359
0.00104378
0.00104395
0.0010441
0.00104423
0.00104435
0.00104448
0.00104461
0.00104475
0.00104488
0.001045
0.00104515
0.00104531
0.00104549
0.00104568
0.00104585
0.00104601
0.00104617
0.00104632
0.00104647
0.00104659
0.00104667
0.00104675
0.00104683
0.00104691
0.00104698
0.00104704
0.00104711
0.00104719
0.00104727
0.00104736
0.00104743
0.0010475
0.00104757
0.00104765
0.00104773
0.00104782
0.00104791
0.00104798
0.00104806
0.00104815
0.00104825
0.00104836
0.00104846
0.00104858
0.0010487
0.00104879
0.00104888
0.00104898
0.00104909
0.00104919
0.00104926
0.00104935
0.00104945
0.00104954
0.00104962
0.00104971
0.00104978
0.00104986
0.00104995
0.00105003
0.00105011
0.00105018
0.00105024
0.00105031
0.00105037
0.00105044
0.00105047
0.0010505
0.00105053
0.00105053
0.00105053
0.00105054
0.00105055
0.00105057
0.00105059
0.00105059
0.00105058
0.00105057
0.00105056
0.00105055
0.00105054
0.00105053
0.00105054
0.00105056
0.00105057
0.00105059
0.00105059
0.0010506
0.00105059
0.00105057
0.00105055
0.00105053
0.00105052
0.00105052
0.00105052
0.00105052
0.00105051
0.00105051
0.0010505
0.00105048
0.00105045
0.00105044
0.00105043
0.00105044
0.00105046
0.00105047
0.00105047
0.00105046
0.00105045
0.00105043
0.00105043
0.00105043
0.00105045
0.00105047
0.00105049
0.00105051
0.00105051
0.0010505
0.00105047
0.00105045
0.00105045
0.00105045
0.00105045
0.00105045
0.00105044
0.00105044
0.00105042
0.00105041
0.00105041
0.00105042
0.00105042
0.00105041
0.0010504
0.00105038
0.00105037
0.00105036
0.00105036
0.00105037
0.00105036
0.00105035
0.00105036
0.00105036
0.00105038
0.00105038
0.00105032
0.00105026
0.00105023
0.00105023
0.00105022
0.0010502
0.00105019
0.00105014
0.00105014
0.00105014
0.00105017
0.00105018
0.00105017
0.00105017
0.00105012
0.00105015
0.00105023
0.00105022
0.0010502
0.00105013
0.00105015
0.00105015
0.00105009
0.00105006
0.00105005
0.0010501
0.00105004
0.00105009
0.00105012
0.00105013
0.00105008
0.00105005
0.00105011
0.00105007
0.00105018
0.00104957
0.00104963
0.00104546
0.00104426
0.00104994
0.00104999
0.00105001
0.00105002
0.00105003
0.00105005
0.00105005
0.00105003
0.00105012
0.0010502
0.00105028
0.0010504
0.00105048
0.00105051
0.00105054
0.00105058
0.00105058
0.00105052
0.00105047
0.00105046
0.00105047
0.00105045
0.0010504
0.00105033
0.00105027
0.00105024
0.00105025
0.0010503
0.00105036
0.00105041
0.00105044
0.00105045
0.00105043
0.00105038
0.00105032
0.00105023
0.00105011
0.00105002
0.00105
0.00105
0.00105
0.00105
0.00105
0.00105
0.00105
0.00105
0.00105
0.00105
0.00105001
0.00105001
0.00105001
0.00105003
0.00105002
0.00105001
0.00105001
0.00105001
0.00105001
0.00105
0.00105001
0.00105001
0.00105001
0.00105004
0.00105001
0.00105001
0.00105001
0.00105006
0.00105042
0.0010506
0.00105037
0.00105007
0.00105013
0.00105049
0.00105066
0.00105032
0.00105002
0.00105004
0.00105014
0.00105003
0.00105001
0.00105002
0.00105012
0.00105034
0.00105027
0.00105054
0.00105039
0.00105086
0.00208812
0.00162573
0.00119675
0.00114824
0.00113058
0.00113121
0.00113014
0.00112924
0.0011279
0.00112724
0.00112696
0.00112633
0.0011257
0.00112529
0.00112484
0.00112441
0.00112424
0.0011243
0.00112439
0.00112428
0.0011239
0.00112321
0.0011227
0.00112248
0.00112245
0.00112204
0.00112144
0.00112057
0.00112006
0.0011209
0.00112048
0.00111858
0.00111823
0.00111993
0.00112088
0.00111748
0.00111358
0.00111277
0.00111333
0.00111395
0.00111192
0.00110914
0.00110944
0.00111049
0.00110975
0.00110678
0.00110586
0.0011056
0.0011045
0.00110372
0.00110342
0.00110089
0.00109777
0.00109663
0.00109499
0.00109274
0.00109171
0.00109126
0.0010887
0.00108825
0.0010888
0.00108885
0.00108714
0.0010878
0.00108904
0.00109035
0.00109094
0.00109137
0.00109146
0.00109115
0.00109294
0.00109853
0.00110441
0.00110916
0.00111048
0.00110586
0.0011
0.00109247
0.00109666
0.00112651
0.00116129
0.00121742
0.00126677
0.00131798
0.00137627
0.00151283
0.00170923
0.00187366
0.00174753
0.00140229
0.00128529
0.00113475
0.00109921
0.00104553
0.00104187
0.00102526
0.0010235
0.00102808
0.00103072
0.00102645
0.00102707
0.00102942
0.00102924
0.00103463
0.00103303
0.00103918
0.00104672
0.00105808
0.00107617
0.00106767
0.00104033
0.0010395
0.00102952
0.00102792
0.0010221
0.00102192
0.00101898
0.00101772
0.00101864
0.00102103
0.0010206
0.00102482
0.0010248
0.00103225
0.0010361
0.00105759
0.00105204
0.00102943
0.00102877
0.00102018
0.00101931
0.00101477
0.00101445
0.00101365
0.00101347
0.00101323
0.00101337
0.00101338
0.00101311
0.00101304
0.00101299
0.00101296
0.00101287
0.0010128
0.00101279
0.00101273
0.0010127
0.00101269
0.00101267
0.00101266
0.00101267
0.00101266
0.00101265
0.00101266
0.00101266
0.00101265
0.00101263
0.0010126
0.00101257
0.00101254
0.0010125
0.00101246
0.00101241
0.00101235
0.0010123
0.00101224
0.00101217
0.0010121
0.00101204
0.00101197
0.00101189
0.00101181
0.00101172
0.00101164
0.00101154
0.00101145
0.00101135
0.00101124
0.00101114
0.00101103
0.00101092
0.00101081
0.0010107
0.00101058
0.00101046
0.00101033
0.0010102
0.00101006
0.00100992
0.00100978
0.00100964
0.00100951
0.00100937
0.00100923
0.00100909
0.00100894
0.0010088
0.00100866
0.00100851
0.00100835
0.0010082
0.00100804
0.00100788
0.00100774
0.0010076
0.00100745
0.0010073
0.00100715
0.001007
0.00100684
0.00100668
0.00100653
0.00100638
0.00100624
0.0010061
0.00100597
0.00100583
0.00100569
0.00100556
0.00100543
0.0010053
0.00100517
0.00100505
0.00100492
0.0010048
0.00100468
0.00100455
0.00100443
0.00100432
0.00100421
0.0010041
0.001004
0.00100389
0.0010038
0.0010037
0.00100361
0.00100352
0.00100343
0.00100335
0.00100326
0.00100317
0.00100308
0.00100299
0.0010029
0.00100283
0.00100275
0.00100268
0.00100261
0.00100255
0.00100249
0.00100242
0.00100236
0.00100229
0.00100223
0.00100217
0.0010021
0.00100204
0.00100197
0.00100191
0.00100186
0.00100181
0.00100176
0.00100172
0.00100167
0.00100163
0.00100159
0.00100155
0.0010015
0.00100146
0.00100141
0.00100137
0.00100133
0.00100129
0.00100125
0.00100121
0.00100118
0.00100115
0.00100111
0.00100108
0.00100106
0.00100103
0.001001
0.00100097
0.00100094
0.00100091
0.00100088
0.00100085
0.00100082
0.00100079
0.00100076
0.00100074
0.00100071
0.00100069
0.00100067
0.00100066
0.00100064
0.00100062
0.00100061
0.00100059
0.00100058
0.00100056
0.00100055
0.00100054
0.00100052
0.00100051
0.0010005
0.00100048
0.00100047
0.00100046
0.00100045
0.00100044
0.00100044
0.00100043
0.00100042
0.00100042
0.00100041
0.0010004
0.0010004
0.00100039
0.00100039
0.00100038
0.00100038
0.00100038
0.00100037
0.00100037
0.00100037
0.00100037
0.00100037
0.00100036
0.00100036
0.00100036
0.00100036
0.00100036
0.00100036
0.00100036
0.00100036
0.00100036
0.00100036
0.00100036
0.00100036
0.00100036
0.00100036
0.00100035
0.00100035
0.00100035
0.00100035
0.00100036
0.00100036
0.00100036
0.00100036
0.00100036
0.00100035
0.00100035
0.00100035
0.00100035
0.00100035
0.00100035
0.00100035
0.00100035
0.00100035
0.00100035
0.00100035
0.00100035
0.00100035
0.00100035
0.00100035
0.00100035
0.00100035
0.00100035
0.00100035
0.00100035
0.00100035
0.00100035
0.00100035
0.00100035
0.00100035
0.00100035
0.00100035
0.00100035
0.00100035
0.00100035
0.00100035
0.00100035
0.00100035
0.00100034
0.00100034
0.00100034
0.00100034
0.00100034
0.00100034
0.00100034
0.00100034
0.00100034
0.00100034
0.00100034
0.00100034
0.00100034
0.00100034
0.00100034
0.00100034
0.00100034
0.00100034
0.00100034
0.00100034
0.00100034
0.00100034
0.00100034
0.00100034
0.00100034
0.00100034
0.00100034
0.00100034
0.00100034
0.00100034
0.00100034
0.00100034
0.00100034
0.00100034
0.00100034
0.00100034
0.00100034
0.00100034
0.00100034
0.00100034
0.00100034
0.00100034
0.00100034
0.00100034
0.00100034
0.00100034
0.00100034
0.00100034
0.00100034
0.00100034
0.00100034
0.00100034
0.00100034
0.00100034
0.00100034
0.00100034
0.00100034
0.00100034
0.00100034
0.00100034
0.00100034
0.00100034
0.00100034
0.00100033
0.00100033
0.00100033
0.00100034
0.00100033
0.00100034
0.00100034
0.00100033
0.00100034
0.00100034
0.00100035
0.00100035
0.00100041
0.00100041
0.00100034
0.0010003
0.00100028
0.00100034
0.00100034
0.00100034
0.00100033
0.00100033
0.00100034
0.00100034
0.00100034
0.00100034
0.00100034
0.00100034
0.00100034
0.00100034
0.00100034
0.00100034
0.00100034
0.00100034
0.00100034
0.00100034
0.00100034
0.00100034
0.00100034
0.00100034
0.00100034
0.00100034
0.00100034
0.00100034
0.00100034
0.00100034
0.00100034
0.00100034
0.00100034
0.00100034
0.00100034
0.00100034
0.00100034
0.00100034
0.00100034
0.00100034
0.00100034
0.00100034
0.00100034
0.00100034
0.00100034
0.00100034
0.00100034
0.00100034
0.00100034
0.00100034
0.00100034
0.00100034
0.00100034
0.00100034
0.00100034
0.00100034
0.00100034
0.00100034
0.00100034
0.00100034
0.00100034
0.00100034
0.00100034
0.00100034
0.00100034
0.00100034
0.00100034
0.00100034
0.00100034
0.00100034
0.00100034
0.00100034
0.00100034
0.00100035
0.00100034
0.00100035
0.00100034
0.00100034
0.00100035
0.00100035
0.00100034
0.00100034
0.00100034
0.00100034
0.00100034
0.00100036
0.00100036
0.00215959
0.00164576
0.00120306
0.0011568
0.00113421
0.00113511
0.00113348
0.0011327
0.0011312
0.00113048
0.00113028
0.00112946
0.00112827
0.00112721
0.00112631
0.00112565
0.00112542
0.00112534
0.00112502
0.00112425
0.00112322
0.00112237
0.00112178
0.0011214
0.00112111
0.00112074
0.00112003
0.00111879
0.00111766
0.00111663
0.00111479
0.00111315
0.00111297
0.00111475
0.00111576
0.00111438
0.00111259
0.00111184
0.00111216
0.00111245
0.00111077
0.0011091
0.00110909
0.00110959
0.00110848
0.00110563
0.00110434
0.00110369
0.0011032
0.0011026
0.0011019
0.00110062
0.0011001
0.00109916
0.0010963
0.00109576
0.00109507
0.00109108
0.00108857
0.00108892
0.00108969
0.00108821
0.00108741
0.00108881
0.00109042
0.00109076
0.00109115
0.00109281
0.001094
0.0010937
0.00109263
0.00109382
0.00109787
0.00110231
0.00110313
0.0010971
0.00109284
0.00108947
0.00108132
0.00107635
0.00106938
0.00107345
0.0011003
0.00112612
0.00115762
0.00122
0.00131211
0.00138982
0.00147562
0.00164824
0.00187692
0.00174404
0.0014137
0.00129755
0.00113686
0.00109987
0.00104532
0.0010422
0.00102666
0.0010238
0.00102601
0.00102759
0.00102389
0.00102508
0.00102617
0.00102485
0.00102795
0.00103639
0.00103549
0.0010447
0.00105027
0.00107368
0.00106532
0.0010393
0.00103791
0.0010285
0.00102696
0.00102099
0.00101987
0.0010171
0.00101633
0.00101728
0.00101918
0.00101921
0.00102406
0.00102448
0.00103246
0.00103621
0.00105661
0.00105141
0.00102985
0.00102916
0.00102041
0.00101999
0.00101431
0.00101365
0.00101334
0.00101294
0.00101296
0.00101328
0.00101335
0.00101312
0.00101299
0.00101293
0.00101292
0.00101289
0.00101287
0.00101282
0.00101278
0.00101277
0.00101276
0.00101273
0.00101272
0.0010127
0.00101268
0.00101266
0.00101263
0.0010126
0.00101256
0.00101252
0.00101249
0.00101245
0.00101239
0.00101232
0.00101227
0.00101221
0.00101213
0.00101206
0.001012
0.00101195
0.00101186
0.00101177
0.00101168
0.00101159
0.00101149
0.00101139
0.00101129
0.00101119
0.00101108
0.00101096
0.00101085
0.00101073
0.0010106
0.00101047
0.00101035
0.00101023
0.0010101
0.00100997
0.00100983
0.0010097
0.00100956
0.00100941
0.00100927
0.00100912
0.00100897
0.00100882
0.00100868
0.00100855
0.0010084
0.00100826
0.0010081
0.00100794
0.00100777
0.00100761
0.00100745
0.00100731
0.00100716
0.00100702
0.00100688
0.00100672
0.00100656
0.00100639
0.00100624
0.00100608
0.00100593
0.00100579
0.00100566
0.00100552
0.00100539
0.00100526
0.00100513
0.001005
0.00100487
0.00100474
0.00100462
0.00100449
0.00100437
0.00100425
0.00100413
0.00100402
0.00100391
0.00100381
0.0010037
0.0010036
0.0010035
0.0010034
0.00100331
0.00100322
0.00100314
0.00100305
0.00100296
0.00100287
0.00100278
0.0010027
0.00100262
0.00100254
0.00100247
0.00100239
0.00100232
0.00100225
0.00100218
0.00100212
0.00100205
0.00100198
0.00100192
0.00100186
0.00100179
0.00100173
0.00100167
0.00100161
0.00100155
0.0010015
0.00100145
0.0010014
0.00100136
0.00100131
0.00100127
0.00100122
0.00100117
0.00100113
0.00100108
0.00100104
0.001001
0.00100096
0.00100092
0.00100089
0.00100085
0.00100082
0.00100078
0.00100075
0.00100072
0.00100068
0.00100065
0.00100062
0.00100058
0.00100055
0.00100051
0.00100048
0.00100045
0.00100042
0.00100039
0.00100037
0.00100034
0.00100032
0.0010003
0.00100028
0.00100026
0.00100024
0.00100022
0.00100021
0.00100019
0.00100018
0.00100016
0.00100014
0.00100013
0.00100011
0.0010001
0.00100009
0.00100007
0.00100006
0.00100005
0.00100004
0.00100003
0.00100002
0.00100002
0.00100001
0.001
0.000999995
0.000999988
0.000999981
0.000999974
0.000999969
0.000999963
0.000999959
0.000999954
0.000999949
0.000999945
0.000999942
0.000999938
0.000999935
0.000999932
0.000999928
0.000999926
0.000999923
0.00099992
0.000999918
0.000999915
0.000999913
0.000999912
0.00099991
0.000999908
0.000999907
0.000999905
0.000999904
0.000999903
0.000999902
0.000999901
0.0009999
0.000999899
0.000999898
0.000999898
0.000999897
0.000999896
0.000999895
0.000999895
0.000999894
0.000999894
0.000999894
0.000999893
0.000999893
0.000999893
0.000999893
0.000999892
0.000999892
0.000999891
0.000999891
0.000999891
0.00099989
0.00099989
0.00099989
0.00099989
0.00099989
0.00099989
0.00099989
0.000999889
0.000999889
0.000999889
0.000999889
0.000999889
0.000999889
0.000999889
0.000999889
0.000999889
0.000999889
0.000999888
0.000999888
0.000999888
0.000999889
0.000999889
0.000999889
0.000999889
0.000999888
0.000999888
0.000999888
0.000999888
0.000999887
0.000999887
0.000999888
0.000999888
0.000999888
0.000999887
0.000999887
0.000999887
0.000999887
0.000999887
0.000999887
0.000999887
0.000999887
0.000999887
0.000999887
0.000999886
0.000999887
0.000999887
0.000999886
0.000999886
0.000999886
0.000999885
0.000999884
0.000999884
0.000999885
0.000999885
0.000999885
0.000999885
0.000999885
0.000999885
0.000999885
0.000999885
0.000999885
0.000999885
0.000999885
0.000999885
0.000999885
0.000999885
0.000999885
0.000999884
0.000999884
0.000999884
0.000999884
0.000999884
0.000999884
0.000999884
0.000999883
0.000999883
0.000999883
0.000999884
0.000999884
0.000999884
0.000999884
0.000999883
0.000999886
0.000999884
0.000999886
0.000999886
0.000999908
0.000999909
0.000999924
0.00100005
0.00100003
0.000999911
0.000999906
0.000999897
0.000999898
0.000999888
0.000999888
0.000999884
0.000999883
0.000999884
0.000999885
0.000999886
0.000999886
0.000999884
0.000999883
0.000999883
0.000999883
0.000999882
0.000999882
0.000999882
0.000999882
0.000999882
0.000999882
0.000999883
0.000999884
0.000999884
0.000999883
0.000999883
0.000999883
0.000999883
0.000999884
0.000999885
0.000999887
0.000999887
0.000999887
0.000999886
0.000999884
0.000999883
0.000999883
0.000999883
0.000999884
0.000999884
0.000999885
0.000999885
0.000999885
0.000999885
0.000999885
0.000999885
0.000999885
0.000999885
0.000999886
0.000999886
0.000999887
0.000999888
0.000999888
0.000999887
0.000999886
0.000999886
0.000999886
0.000999886
0.000999886
0.000999886
0.000999887
0.000999888
0.000999887
0.000999888
0.00099989
0.000999888
0.000999887
0.000999887
0.000999887
0.000999887
0.000999886
0.000999886
0.000999886
0.000999887
0.000999886
0.000999888
0.00099989
0.000999887
0.000999895
0.000999888
0.000999887
0.000999889
0.000999905
0.000999889
0.000999886
0.000999888
0.000999888
0.000999886
0.000999887
0.00099992
0.000999903
0.0022742
0.00168038
0.00121292
0.00116959
0.00114371
0.00114325
0.0011407
0.0011406
0.00113844
0.00113736
0.0011378
0.00113737
0.00113594