/*--------------------------------*- C++ -*----------------------------------*\
| =========                 |                                                 |
| \\      /  F ield         | OpenFOAM: The Open Source CFD Toolbox           |
|  \\    /   O peration     | Version:  v2006                                 |
|   \\  /    A nd           | Website:  www.openfoam.com                      |
|    \\/     M anipulation  |                                                 |
\*---------------------------------------------------------------------------*/
FoamFile
{
    version     2.0;
    format      ascii;
    class       volScalarField;
    location    "1.6";
    object      p_rgh;
}
// * * * * * * * * * * * * * * * * * * * * * * * * * * * * * * * * * * * * * //

dimensions      [1 -1 -2 0 0 0 0];


internalField   nonuniform List<scalar> 
33000
(
7727.39
7730.02
7732.06
7734.14
7736.19
7738.22
7740.23
7742.21
7744.17
7746.09
7747.99
7749.85
7751.68
7753.47
7755.22
7756.94
7758.62
7760.26
7761.85
7763.39
7764.9
7766.36
7767.78
7769.15
7770.47
7771.73
7772.96
7774.13
7775.26
7776.33
7777.35
7778.33
7779.25
7780.12
7780.94
7781.71
7782.44
7783.12
7783.74
7784.31
7784.83
7785.31
7785.73
7786.12
7786.44
7786.71
7786.95
7787.14
7787.28
7787.37
7787.43
7787.45
7787.42
7787.36
7787.26
7787.13
7786.96
7786.76
7786.53
7786.28
7786
7785.69
7785.37
7785.02
7784.66
7784.28
7783.89
7783.48
7783.06
7782.62
7782.18
7781.74
7781.29
7780.85
7780.41
7779.98
7779.58
7779.2
7778.74
7777.95
7777.43
7776.81
7776.17
7775.55
7774.89
7774.23
7773.58
7772.91
7772.24
7771.57
7770.9
7770.23
7769.56
7768.88
7768.19
7767.52
7766.83
7766.17
7765.44
7764.8
7764.24
7763.62
7763.05
7762.49
7761.94
7761.42
7760.92
7760.44
7759.97
7759.53
7759.1
7758.69
7758.29
7757.92
7757.56
7757.22
7756.81
7756.54
7756.4
7756.19
7756.04
7755.92
7755.82
7755.76
7755.74
7755.75
7755.79
7755.85
7755.94
7756.06
7756.21
7756.39
7756.58
7756.81
7757.06
7757.33
7757.63
7757.94
7758.29
7758.65
7759.03
7759.44
7759.86
7760.31
7760.77
7761.26
7761.76
7762.28
7762.81
7763.36
7763.93
7764.51
7765.1
7765.71
7766.33
7766.96
7767.61
7768.27
7768.94
7769.61
7770.3
7771
7771.71
7772.42
7773.14
7773.87
7774.61
7775.35
7776.09
7776.85
7777.6
7778.36
7779.12
7779.89
7780.66
7781.43
7782.2
7782.97
7783.74
7784.52
7785.29
7786.06
7786.83
7787.6
7788.37
7789.14
7789.9
7790.66
7791.42
7792.17
7792.92
7793.67
7794.41
7795.15
7795.88
7796.61
7797.34
7798.05
7798.76
7799.47
7800.17
7800.87
7801.55
7802.24
7802.91
7803.58
7804.24
7804.9
7805.55
7806.19
7806.82
7807.45
7808.07
7808.69
7809.29
7809.89
7810.48
7811.07
7811.64
7812.21
7812.78
7813.33
7813.88
7814.42
7814.95
7815.48
7815.99
7816.5
7817.01
7817.5
7817.99
7818.47
7818.94
7819.41
7819.86
7820.31
7820.76
7821.19
7821.62
7822.04
7822.46
7822.87
7823.27
7823.66
7824.05
7824.42
7824.8
7825.16
7825.52
7825.87
7826.22
7826.56
7826.89
7827.21
7827.53
7827.85
7828.15
7828.46
7828.75
7829.04
7829.32
7829.6
7829.87
7830.14
7830.39
7830.65
7830.9
7831.14
7831.38
7831.61
7831.84
7832.06
7832.28
7832.49
7832.69
7832.9
7833.09
7833.29
7833.48
7833.66
7833.84
7834.01
7834.19
7834.35
7834.52
7834.67
7834.83
7834.98
7835.13
7835.27
7835.41
7835.55
7835.68
7835.81
7835.94
7836.06
7836.18
7836.3
7836.41
7836.52
7836.63
7836.74
7836.84
7836.94
7837.04
7837.13
7837.22
7837.31
7837.4
7837.49
7837.57
7837.65
7837.73
7837.8
7837.88
7837.95
7838.02
7838.09
7838.15
7838.22
7838.28
7838.34
7838.4
7838.46
7838.52
7838.57
7838.62
7838.67
7838.72
7838.77
7838.82
7838.87
7838.91
7838.96
7839
7839.04
7839.08
7839.12
7839.16
7839.19
7839.23
7839.26
7839.3
7839.33
7839.36
7839.39
7839.42
7839.45
7839.48
7839.51
7839.53
7839.56
7839.59
7839.61
7839.63
7839.66
7839.68
7839.7
7839.72
7839.74
7839.76
7839.78
7839.8
7839.82
7839.84
7839.86
7839.87
7839.89
7839.9
7839.92
7839.93
7839.95
7839.96
7839.98
7839.99
7840
7840.01
7840.02
7840.04
7840.05
7840.06
7840.07
7840.08
7840.09
7840.1
7840.11
7840.11
7840.12
7840.13
7840.14
7840.15
7840.15
7840.16
7840.17
7840.17
7840.18
7840.18
7840.19
7840.2
7840.2
7840.21
7840.21
7840.21
7840.22
7840.22
7840.23
7840.23
7840.23
7840.24
7840.24
7840.24
7840.25
7840.25
7840.25
7840.25
7840.26
7840.26
7840.26
7840.26
7840.26
7840.27
7840.27
7840.27
7840.27
7840.27
7840.27
7840.27
7840.27
7840.27
7840.28
7840.28
7840.28
7840.28
7840.28
7840.28
7840.28
7840.28
7840.28
7840.28
7840.28
7840.28
7840.28
7840.28
7840.28
7840.28
7840.28
7840.28
7840.28
7840.28
7840.27
7840.27
7840.27
7840.27
7840.27
7840.27
7840.27
7840.27
7840.27
7840.27
7840.27
7840.27
7840.27
7840.26
7840.26
7840.26
7840.26
7840.26
7840.26
7840.26
7840.26
7840.26
7840.26
7840.26
7840.26
7840.25
7840.25
7840.25
7840.25
7840.25
7840.25
7840.25
7840.25
7840.25
7840.25
7840.25
7840.25
7840.25
7840.25
7840.24
7840.24
7840.24
7840.24
7840.24
7840.24
7840.24
7840.24
7840.24
7840.24
7840.24
7840.24
7840.24
7840.24
7840.24
7840.24
7840.23
7840.23
7840.23
7840.23
7840.23
7840.23
7840.23
7840.23
7840.23
7840.23
7840.23
7840.23
7840.23
7840.23
7840.23
7840.23
7840.23
7840.22
7840.22
7840.22
7840.22
7840.22
7840.22
7840.22
7840.22
7840.22
7840.22
7840.22
7840.22
7840.22
7840.22
7840.22
7840.22
7840.22
7840.22
7840.21
7840.21
7840.21
7840.21
7840.21
7840.21
7840.21
7840.21
7840.21
7840.21
7840.21
7727.84
7730.62
7732.63
7734.64
7736.62
7738.58
7740.53
7742.46
7744.38
7746.28
7748.15
7749.99
7751.81
7753.59
7755.34
7757.05
7758.72
7760.36
7761.95
7763.49
7764.99
7766.46
7767.89
7769.26
7770.55
7771.82
7773.05
7774.23
7775.36
7776.42
7777.44
7778.42
7779.37
7780.2
7781.02
7781.79
7782.54
7783.25
7783.8
7784.36
7784.87
7785.35
7785.82
7786.2
7786.49
7786.76
7787.03
7787.22
7787.34
7787.42
7787.49
7787.52
7787.5
7787.42
7787.31
7787.17
7787.01
7786.8
7786.55
7786.29
7786.03
7785.75
7785.39
7785.03
7784.66
7784.29
7783.91
7783.48
7783.05
7782.63
7782.17
7781.72
7781.27
7780.83
7780.35
7779.88
7779.43
7779
7778.52
7778.02
7777.55
7777
7776.1
7775.54
7774.9
7774.25
7773.6
7772.9
7772.22
7771.54
7770.88
7770.24
7769.57
7768.88
7768.18
7767.51
7766.86
7766.2
7765.5
7764.84
7764.23
7763.51
7762.92
7762.45
7761.92
7761.39
7760.88
7760.41
7759.91
7759.45
7759.04
7758.63
7758.25
7757.89
7757.54
7757.22
7756.89
7756.6
7756.36
7756.06
7755.87
7755.85
7755.76
7755.71
7755.68
7755.68
7755.72
7755.78
7755.87
7756
7756.17
7756.32
7756.52
7756.74
7757
7757.28
7757.57
7757.88
7758.23
7758.6
7758.98
7759.38
7759.81
7760.26
7760.72
7761.21
7761.71
7762.23
7762.76
7763.32
7763.88
7764.46
7765.06
7765.67
7766.29
7766.93
7767.58
7768.24
7768.91
7769.59
7770.28
7770.98
7771.68
7772.4
7773.12
7773.85
7774.59
7775.33
7776.08
7776.83
7777.59
7778.35
7779.11
7779.88
7780.65
7781.42
7782.19
7782.96
7783.74
7784.51
7785.29
7786.06
7786.83
7787.6
7788.37
7789.14
7789.9
7790.66
7791.42
7792.18
7792.93
7793.67
7794.42
7795.16
7795.89
7796.62
7797.34
7798.06
7798.77
7799.48
7800.18
7800.88
7801.56
7802.25
7802.92
7803.59
7804.25
7804.91
7805.56
7806.2
7806.84
7807.46
7808.09
7808.7
7809.31
7809.9
7810.5
7811.08
7811.66
7812.23
7812.79
7813.34
7813.89
7814.43
7814.96
7815.49
7816.01
7816.52
7817.02
7817.51
7818
7818.48
7818.96
7819.42
7819.88
7820.33
7820.77
7821.21
7821.64
7822.06
7822.47
7822.88
7823.28
7823.67
7824.06
7824.44
7824.81
7825.18
7825.53
7825.89
7826.23
7826.57
7826.9
7827.23
7827.55
7827.86
7828.17
7828.47
7828.76
7829.05
7829.33
7829.61
7829.88
7830.15
7830.41
7830.66
7830.91
7831.15
7831.39
7831.62
7831.85
7832.07
7832.29
7832.5
7832.7
7832.91
7833.1
7833.3
7833.49
7833.67
7833.85
7834.02
7834.19
7834.36
7834.52
7834.68
7834.84
7834.99
7835.14
7835.28
7835.42
7835.56
7835.69
7835.82
7835.95
7836.07
7836.19
7836.31
7836.42
7836.53
7836.64
7836.74
7836.85
7836.95
7837.04
7837.14
7837.23
7837.32
7837.41
7837.49
7837.57
7837.65
7837.73
7837.81
7837.88
7837.95
7838.02
7838.09
7838.16
7838.22
7838.29
7838.35
7838.41
7838.46
7838.52
7838.57
7838.63
7838.68
7838.73
7838.78
7838.82
7838.87
7838.92
7838.96
7839
7839.04
7839.08
7839.12
7839.16
7839.19
7839.23
7839.27
7839.3
7839.33
7839.36
7839.39
7839.42
7839.45
7839.48
7839.51
7839.54
7839.56
7839.59
7839.61
7839.64
7839.66
7839.68
7839.7
7839.72
7839.75
7839.77
7839.78
7839.8
7839.82
7839.84
7839.86
7839.87
7839.89
7839.9
7839.92
7839.93
7839.95
7839.96
7839.98
7839.99
7840
7840.01
7840.03
7840.04
7840.05
7840.06
7840.07
7840.08
7840.09
7840.1
7840.11
7840.11
7840.12
7840.13
7840.14
7840.15
7840.15
7840.16
7840.17
7840.17
7840.18
7840.18
7840.19
7840.2
7840.2
7840.21
7840.21
7840.21
7840.22
7840.22
7840.23
7840.23
7840.23
7840.24
7840.24
7840.24
7840.25
7840.25
7840.25
7840.25
7840.26
7840.26
7840.26
7840.26
7840.26
7840.27
7840.27
7840.27
7840.27
7840.27
7840.27
7840.27
7840.27
7840.28
7840.28
7840.28
7840.28
7840.28
7840.28
7840.28
7840.28
7840.28
7840.28
7840.28
7840.28
7840.28
7840.28
7840.28
7840.28
7840.28
7840.28
7840.28
7840.28
7840.28
7840.27
7840.27
7840.27
7840.27
7840.27
7840.27
7840.27
7840.27
7840.27
7840.27
7840.27
7840.27
7840.27
7840.26
7840.26
7840.26
7840.26
7840.26
7840.26
7840.26
7840.26
7840.26
7840.26
7840.26
7840.26
7840.25
7840.25
7840.25
7840.25
7840.25
7840.25
7840.25
7840.25
7840.25
7840.25
7840.25
7840.25
7840.25
7840.25
7840.24
7840.24
7840.24
7840.24
7840.24
7840.24
7840.24
7840.24
7840.24
7840.24
7840.24
7840.24
7840.24
7840.24
7840.24
7840.24
7840.23
7840.23
7840.23
7840.23
7840.23
7840.23
7840.23
7840.23
7840.23
7840.23
7840.23
7840.23
7840.23
7840.23
7840.23
7840.23
7840.23
7840.22
7840.22
7840.22
7840.22
7840.22
7840.22
7840.22
7840.22
7840.22
7840.22
7840.22
7840.22
7840.22
7840.22
7840.22
7840.22
7840.22
7840.22
7840.22
7840.21
7840.21
7840.21
7840.21
7840.21
7840.21
7840.21
7840.21
7840.21
7840.21
7726.91
7729.81
7732.02
7734.15
7736.26
7738.35
7740.41
7742.44
7744.44
7746.4
7748.32
7750.21
7752.06
7753.87
7755.65
7757.38
7759.08
7760.72
7762.33
7763.88
7765.39
7766.86
7768.28
7769.65
7770.97
7772.24
7773.46
7774.62
7775.75
7776.78
7777.74
7778.72
7779.71
7780.66
7781.44
7782.11
7782.8
7783.45
7784.12
7784.71
7785.13
7785.55
7786
7786.43
7786.75
7786.94
7787.16
7787.34
7787.47
7787.57
7787.64
7787.65
7787.61
7787.55
7787.46
7787.31
7787.15
7786.96
7786.69
7786.41
7786.16
7785.87
7785.47
7785.12
7784.75
7784.42
7784.04
7783.62
7783.18
7782.68
7782.21
7781.81
7781.36
7780.87
7780.39
7779.9
7779.39
7778.84
7778.33
7777.87
7777.33
7776.79
7776.23
7775.7
7775.16
7774.21
7773.59
7772.88
7772.32
7771.63
7770.98
7770.28
7769.58
7768.89
7768.23
7767.55
7766.87
7766.2
7765.52
7764.89
7764.27
7763.65
7763.03
7762.44
7761.79
7761.26
7760.83
7760.34
7759.89
7759.44
7759.01
7758.59
7758.2
7757.84
7757.5
7757.18
7756.88
7756.61
7756.37
7756.17
7755.97
7755.81
7755.58
7755.52
7755.6
7755.6
7755.64
7755.71
7755.79
7755.91
7756.07
7756.25
7756.45
7756.67
7756.92
7757.2
7757.49
7757.81
7758.16
7758.53
7758.91
7759.32
7759.75
7760.2
7760.67
7761.16
7761.66
7762.18
7762.72
7763.27
7763.84
7764.43
7765.03
7765.64
7766.26
7766.9
7767.55
7768.21
7768.88
7769.57
7770.26
7770.96
7771.67
7772.39
7773.11
7773.84
7774.58
7775.33
7776.07
7776.83
7777.59
7778.35
7779.11
7779.88
7780.66
7781.43
7782.2
7782.98
7783.75
7784.53
7785.31
7786.08
7786.85
7787.63
7788.4
7789.16
7789.93
7790.69
7791.45
7792.21
7792.96
7793.71
7794.45
7795.19
7795.92
7796.65
7797.38
7798.09
7798.81
7799.52
7800.22
7800.91
7801.6
7802.29
7802.96
7803.63
7804.29
7804.95
7805.6
7806.24
7806.88
7807.5
7808.13
7808.74
7809.35
7809.95
7810.54
7811.12
7811.7
7812.27
7812.83
7813.38
7813.93
7814.47
7815
7815.53
7816.05
7816.56
7817.06
7817.55
7818.04
7818.52
7818.99
7819.46
7819.92
7820.37
7820.81
7821.24
7821.67
7822.09
7822.51
7822.91
7823.31
7823.71
7824.09
7824.47
7824.85
7825.21
7825.57
7825.92
7826.27
7826.6
7826.94
7827.26
7827.58
7827.89
7828.2
7828.5
7828.79
7829.08
7829.36
7829.64
7829.91
7830.18
7830.43
7830.69
7830.94
7831.18
7831.41
7831.65
7831.87
7832.09
7832.31
7832.52
7832.73
7832.93
7833.13
7833.32
7833.51
7833.69
7833.87
7834.04
7834.21
7834.38
7834.54
7834.7
7834.86
7835.01
7835.15
7835.3
7835.44
7835.57
7835.71
7835.83
7835.96
7836.08
7836.2
7836.32
7836.43
7836.54
7836.65
7836.76
7836.86
7836.96
7837.05
7837.15
7837.24
7837.33
7837.42
7837.5
7837.58
7837.66
7837.74
7837.82
7837.89
7837.96
7838.03
7838.1
7838.17
7838.23
7838.29
7838.35
7838.41
7838.47
7838.53
7838.58
7838.63
7838.68
7838.73
7838.78
7838.83
7838.88
7838.92
7838.96
7839.01
7839.05
7839.09
7839.13
7839.16
7839.2
7839.24
7839.27
7839.3
7839.34
7839.37
7839.4
7839.43
7839.46
7839.49
7839.51
7839.54
7839.57
7839.59
7839.62
7839.64
7839.66
7839.68
7839.71
7839.73
7839.75
7839.77
7839.79
7839.81
7839.82
7839.84
7839.86
7839.88
7839.89
7839.91
7839.92
7839.94
7839.95
7839.96
7839.98
7839.99
7840
7840.02
7840.03
7840.04
7840.05
7840.06
7840.07
7840.08
7840.09
7840.1
7840.11
7840.12
7840.12
7840.13
7840.14
7840.15
7840.15
7840.16
7840.17
7840.17
7840.18
7840.19
7840.19
7840.2
7840.2
7840.21
7840.21
7840.22
7840.22
7840.22
7840.23
7840.23
7840.24
7840.24
7840.24
7840.24
7840.25
7840.25
7840.25
7840.26
7840.26
7840.26
7840.26
7840.26
7840.26
7840.27
7840.27
7840.27
7840.27
7840.27
7840.27
7840.27
7840.27
7840.28
7840.28
7840.28
7840.28
7840.28
7840.28
7840.28
7840.28
7840.28
7840.28
7840.28
7840.28
7840.28
7840.28
7840.28
7840.28
7840.28
7840.28
7840.28
7840.28
7840.28
7840.27
7840.27
7840.27
7840.27
7840.27
7840.27
7840.27
7840.27
7840.27
7840.27
7840.27
7840.27
7840.27
7840.26
7840.26
7840.26
7840.26
7840.26
7840.26
7840.26
7840.26
7840.26
7840.26
7840.26
7840.26
7840.25
7840.25
7840.25
7840.25
7840.25
7840.25
7840.25
7840.25
7840.25
7840.25
7840.25
7840.25
7840.25
7840.25
7840.24
7840.24
7840.24
7840.24
7840.24
7840.24
7840.24
7840.24
7840.24
7840.24
7840.24
7840.24
7840.24
7840.24
7840.24
7840.24
7840.23
7840.23
7840.23
7840.23
7840.23
7840.23
7840.23
7840.23
7840.23
7840.23
7840.23
7840.23
7840.23
7840.23
7840.23
7840.23
7840.23
7840.22
7840.22
7840.22
7840.22
7840.22
7840.22
7840.22
7840.22
7840.22
7840.22
7840.22
7840.22
7840.22
7840.22
7840.22
7840.22
7840.22
7840.22
7840.21
7840.21
7840.21
7840.21
7840.21
7840.21
7840.21
7840.21
7840.21
7840.21
7840.21
7727.77
7730.5
7732.55
7734.64
7736.73
7738.78
7740.82
7742.84
7744.83
7746.8
7748.72
7750.61
7752.47
7754.3
7756.08
7757.83
7759.53
7761.2
7762.81
7764.38
7765.91
7767.39
7768.82
7770.21
7771.54
7772.82
7774.04
7775.2
7776.31
7777.37
7778.36
7779.31
7780.22
7781.13
7781.96
7782.71
7783.41
7784.06
7784.66
7785.2
7785.68
7786.11
7786.5
7786.85
7787.13
7787.36
7787.55
7787.71
7787.81
7787.88
7787.91
7787.92
7787.92
7787.86
7787.71
7787.6
7787.43
7787.13
7786.89
7786.65
7786.42
7785.99
7785.63
7785.29
7784.94
7784.49
7784.06
7783.68
7783.29
7782.85
7782.34
7781.82
7781.34
7780.9
7780.39
7779.87
7779.27
7778.73
7778.2
7777.72
7777.06
7776.45
7775.96
7775.44
7774.83
7774.2
7773.54
7773.03
7772.4
7771.55
7770.95
7770.24
7769.56
7768.9
7768.18
7767.47
7766.8
7766.13
7765.51
7764.88
7764.23
7763.57
7762.97
7762.45
7761.88
7761.3
7760.73
7760.25
7759.69
7759.19
7758.84
7758.48
7758.11
7757.74
7757.35
7757.05
7756.79
7756.53
7756.28
7756.06
7755.91
7755.78
7755.65
7755.56
7755.49
7755.35
7755.36
7755.53
7755.64
7755.77
7755.91
7756.07
7756.28
7756.53
7756.79
7757.05
7757.35
7757.68
7758.03
7758.4
7758.79
7759.21
7759.64
7760.07
7760.56
7761.05
7761.56
7762.08
7762.62
7763.18
7763.76
7764.35
7764.95
7765.57
7766.2
7766.84
7767.49
7768.16
7768.83
7769.52
7770.21
7770.91
7771.63
7772.35
7773.08
7773.81
7774.56
7775.31
7776.06
7776.81
7777.58
7778.35
7779.11
7779.88
7780.66
7781.44
7782.21
7782.99
7783.77
7784.55
7785.32
7786.1
7786.88
7787.65
7788.42
7789.19
7789.96
7790.73
7791.49
7792.24
7793
7793.75
7794.49
7795.23
7795.97
7796.7
7797.42
7798.14
7798.86
7799.57
7800.27
7800.97
7801.66
7802.34
7803.02
7803.69
7804.35
7805.01
7805.66
7806.3
7806.93
7807.56
7808.19
7808.8
7809.41
7810.01
7810.6
7811.18
7811.76
7812.33
7812.89
7813.45
7813.99
7814.53
7815.06
7815.59
7816.1
7816.61
7817.12
7817.61
7818.1
7818.58
7819.05
7819.52
7819.97
7820.42
7820.87
7821.3
7821.73
7822.15
7822.56
7822.97
7823.37
7823.76
7824.15
7824.53
7824.9
7825.26
7825.62
7825.97
7826.32
7826.65
7826.98
7827.31
7827.63
7827.94
7828.25
7828.55
7828.84
7829.13
7829.41
7829.68
7829.95
7830.22
7830.48
7830.73
7830.98
7831.22
7831.45
7831.68
7831.91
7832.13
7832.35
7832.56
7832.76
7832.96
7833.16
7833.35
7833.54
7833.72
7833.9
7834.07
7834.24
7834.41
7834.57
7834.73
7834.88
7835.03
7835.18
7835.32
7835.46
7835.6
7835.73
7835.86
7835.98
7836.11
7836.23
7836.34
7836.45
7836.56
7836.67
7836.78
7836.88
7836.98
7837.07
7837.17
7837.26
7837.35
7837.43
7837.52
7837.6
7837.68
7837.76
7837.83
7837.91
7837.98
7838.05
7838.11
7838.18
7838.24
7838.31
7838.37
7838.43
7838.48
7838.54
7838.59
7838.64
7838.7
7838.74
7838.79
7838.84
7838.89
7838.93
7838.97
7839.01
7839.06
7839.1
7839.13
7839.17
7839.21
7839.24
7839.28
7839.31
7839.34
7839.37
7839.4
7839.43
7839.46
7839.49
7839.52
7839.55
7839.57
7839.6
7839.62
7839.64
7839.67
7839.69
7839.71
7839.73
7839.75
7839.77
7839.79
7839.81
7839.83
7839.85
7839.86
7839.88
7839.9
7839.91
7839.93
7839.94
7839.95
7839.97
7839.98
7839.99
7840.01
7840.02
7840.03
7840.04
7840.05
7840.06
7840.07
7840.08
7840.09
7840.1
7840.11
7840.12
7840.13
7840.13
7840.14
7840.15
7840.16
7840.16
7840.17
7840.18
7840.18
7840.19
7840.19
7840.2
7840.2
7840.21
7840.21
7840.22
7840.22
7840.23
7840.23
7840.23
7840.24
7840.24
7840.24
7840.25
7840.25
7840.25
7840.25
7840.26
7840.26
7840.26
7840.26
7840.26
7840.27
7840.27
7840.27
7840.27
7840.27
7840.27
7840.27
7840.27
7840.28
7840.28
7840.28
7840.28
7840.28
7840.28
7840.28
7840.28
7840.28
7840.28
7840.28
7840.28
7840.28
7840.28
7840.28
7840.28
7840.28
7840.28
7840.28
7840.28
7840.28
7840.28
7840.28
7840.27
7840.27
7840.27
7840.27
7840.27
7840.27
7840.27
7840.27
7840.27
7840.27
7840.27
7840.27
7840.26
7840.26
7840.26
7840.26
7840.26
7840.26
7840.26
7840.26
7840.26
7840.26
7840.26
7840.26
7840.25
7840.25
7840.25
7840.25
7840.25
7840.25
7840.25
7840.25
7840.25
7840.25
7840.25
7840.25
7840.25
7840.25
7840.24
7840.24
7840.24
7840.24
7840.24
7840.24
7840.24
7840.24
7840.24
7840.24
7840.24
7840.24
7840.24
7840.24
7840.24
7840.24
7840.23
7840.23
7840.23
7840.23
7840.23
7840.23
7840.23
7840.23
7840.23
7840.23
7840.23
7840.23
7840.23
7840.23
7840.23
7840.23
7840.23
7840.22
7840.22
7840.22
7840.22
7840.22
7840.22
7840.22
7840.22
7840.22
7840.22
7840.22
7840.22
7840.22
7840.22
7840.22
7840.22
7840.22
7840.22
7840.21
7840.21
7840.21
7840.21
7840.21
7840.21
7840.21
7840.21
7840.21
7840.21
7840.21
7727.48
7730.41
7732.59
7734.77
7736.9
7739.01
7741.1
7743.15
7745.17
7747.16
7749.12
7751.03
7752.91
7754.76
7756.57
7758.34
7760.07
7761.76
7763.4
7765
7766.54
7768.04
7769.49
7770.89
7772.23
7773.53
7774.77
7775.95
7777.07
7778.13
7779.13
7780.08
7780.98
7781.84
7782.65
7783.41
7784.12
7784.76
7785.35
7785.88
7786.35
7786.77
7787.13
7787.45
7787.72
7787.95
7788.13
7788.27
7788.37
7788.41
7788.42
7788.44
7788.41
7788.31
7788.17
7788.02
7787.82
7787.57
7787.3
7787.01
7786.72
7786.38
7785.96
7785.53
7785.18
7784.79
7784.34
7783.86
7783.43
7782.99
7782.46
7781.89
7781.36
7780.84
7780.34
7779.87
7779.27
7778.78
7778.16
7777.44
7776.86
7776.26
7775.69
7775.2
7774.6
7773.9
7773.33
7772.83
7772.22
7771.58
7770.93
7770.27
7769.31
7768.77
7768.17
7767.45
7766.78
7766.04
7765.38
7764.76
7764.19
7763.51
7762.91
7762.37
7761.73
7761.19
7760.67
7760.21
7759.75
7759.18
7758.72
7758.19
7757.84
7757.6
7757.21
7756.9
7756.61
7756.37
7756.17
7755.94
7755.77
7755.63
7755.53
7755.48
7755.4
7755.37
7755.37
7755.38
7755.32
7755.42
7755.69
7755.89
7756.1
7756.32
7756.57
7756.85
7757.18
7757.48
7757.82
7758.2
7758.6
7759.02
7759.49
7759.92
7760.39
7760.89
7761.41
7761.94
7762.5
7763.06
7763.63
7764.22
7764.83
7765.45
7766.09
7766.74
7767.4
7768.07
7768.75
7769.44
7770.14
7770.85
7771.56
7772.29
7773.02
7773.76
7774.51
7775.26
7776.02
7776.78
7777.55
7778.32
7779.09
7779.87
7780.65
7781.43
7782.21
7782.99
7783.77
7784.55
7785.34
7786.12
7786.9
7787.67
7788.45
7789.22
7789.99
7790.76
7791.52
7792.28
7793.04
7793.79
7794.54
7795.28
7796.02
7796.75
7797.48
7798.2
7798.91
7799.62
7800.33
7801.02
7801.72
7802.4
7803.08
7803.75
7804.42
7805.07
7805.73
7806.37
7807
7807.63
7808.26
7808.87
7809.48
7810.08
7810.67
7811.26
7811.83
7812.4
7812.97
7813.52
7814.07
7814.61
7815.14
7815.66
7816.18
7816.69
7817.19
7817.68
7818.17
7818.65
7819.12
7819.59
7820.05
7820.5
7820.94
7821.37
7821.8
7822.22
7822.64
7823.04
7823.44
7823.83
7824.22
7824.6
7824.97
7825.33
7825.69
7826.04
7826.38
7826.72
7827.05
7827.37
7827.69
7828
7828.31
7828.6
7828.9
7829.18
7829.46
7829.74
7830.01
7830.27
7830.53
7830.78
7831.03
7831.27
7831.5
7831.73
7831.96
7832.18
7832.39
7832.6
7832.81
7833.01
7833.2
7833.39
7833.58
7833.76
7833.94
7834.11
7834.28
7834.45
7834.61
7834.77
7834.92
7835.07
7835.21
7835.36
7835.49
7835.63
7835.76
7835.89
7836.01
7836.14
7836.25
7836.37
7836.48
7836.59
7836.7
7836.8
7836.9
7837
7837.1
7837.19
7837.28
7837.37
7837.46
7837.54
7837.62
7837.7
7837.78
7837.85
7837.93
7838
7838.07
7838.13
7838.2
7838.26
7838.32
7838.38
7838.44
7838.5
7838.55
7838.61
7838.66
7838.71
7838.76
7838.81
7838.85
7838.9
7838.94
7838.98
7839.03
7839.07
7839.11
7839.14
7839.18
7839.22
7839.25
7839.29
7839.32
7839.35
7839.38
7839.41
7839.44
7839.47
7839.5
7839.53
7839.55
7839.58
7839.6
7839.63
7839.65
7839.67
7839.7
7839.72
7839.74
7839.76
7839.78
7839.8
7839.82
7839.83
7839.85
7839.87
7839.88
7839.9
7839.92
7839.93
7839.94
7839.96
7839.97
7839.99
7840
7840.01
7840.02
7840.03
7840.04
7840.06
7840.07
7840.08
7840.09
7840.09
7840.1
7840.11
7840.12
7840.13
7840.14
7840.14
7840.15
7840.16
7840.17
7840.17
7840.18
7840.18
7840.19
7840.2
7840.2
7840.21
7840.21
7840.21
7840.22
7840.22
7840.23
7840.23
7840.23
7840.24
7840.24
7840.24
7840.25
7840.25
7840.25
7840.26
7840.26
7840.26
7840.26
7840.26
7840.27
7840.27
7840.27
7840.27
7840.27
7840.27
7840.27
7840.27
7840.28
7840.28
7840.28
7840.28
7840.28
7840.28
7840.28
7840.28
7840.28
7840.28
7840.28
7840.28
7840.28
7840.28
7840.28
7840.28
7840.28
7840.28
7840.28
7840.28
7840.28
7840.28
7840.28
7840.28
7840.27
7840.27
7840.27
7840.27
7840.27
7840.27
7840.27
7840.27
7840.27
7840.27
7840.27
7840.27
7840.26
7840.26
7840.26
7840.26
7840.26
7840.26
7840.26
7840.26
7840.26
7840.26
7840.26
7840.26
7840.26
7840.25
7840.25
7840.25
7840.25
7840.25
7840.25
7840.25
7840.25
7840.25
7840.25
7840.25
7840.25
7840.25
7840.24
7840.24
7840.24
7840.24
7840.24
7840.24
7840.24
7840.24
7840.24
7840.24
7840.24
7840.24
7840.24
7840.24
7840.24
7840.24
7840.23
7840.23
7840.23
7840.23
7840.23
7840.23
7840.23
7840.23
7840.23
7840.23
7840.23
7840.23
7840.23
7840.23
7840.23
7840.23
7840.23
7840.22
7840.22
7840.22
7840.22
7840.22
7840.22
7840.22
7840.22
7840.22
7840.22
7840.22
7840.22
7840.22
7840.22
7840.22
7840.22
7840.22
7840.21
7840.21
7840.21
7840.21
7840.21
7840.21
7840.21
7840.21
7840.21
7840.21
7840.21
7840.21
7727.62
7730.54
7732.79
7734.98
7737.12
7739.23
7741.33
7743.39
7745.43
7747.44
7749.42
7751.36
7753.27
7755.14
7756.98
7758.79
7760.55
7762.27
7763.94
7765.56
7767.14
7768.66
7770.12
7771.54
7772.9
7774.21
7775.47
7776.67
7777.81
7778.88
7779.88
7780.82
7781.7
7782.52
7783.29
7784.02
7784.69
7785.31
7785.88
7786.4
7786.87
7787.29
7787.65
7787.98
7788.26
7788.5
7788.68
7788.83
7788.93
7788.98
7789
7789.01
7788.95
7788.85
7788.72
7788.55
7788.34
7788.1
7787.83
7787.53
7787.2
7786.82
7786.41
7786
7785.6
7785.16
7784.69
7784.2
7783.71
7783.22
7782.7
7782.16
7781.55
7780.93
7780.46
7779.92
7779.35
7778.76
7778.12
7777.4
7776.91
7776.35
7775.73
7775.03
7774.38
7773.77
7773.21
7772.58
7771.96
7771.39
7770.77
7770.14
7769.5
7768.87
7768.19
7767.29
7766.74
7766.11
7765.41
7764.75
7764.08
7763.49
7762.91
7762.32
7761.72
7761.16
7760.65
7760.16
7759.64
7759.14
7758.7
7758.31
7757.88
7757.45
7756.95
7756.67
7756.51
7756.25
7756.01
7755.82
7755.66
7755.53
7755.42
7755.34
7755.3
7755.27
7755.26
7755.3
7755.37
7755.44
7755.54
7755.56
7755.76
7756.11
7756.38
7756.66
7756.96
7757.29
7757.63
7758.01
7758.42
7758.85
7759.29
7759.75
7760.23
7760.74
7761.26
7761.8
7762.35
7762.92
7763.51
7764.11
7764.72
7765.35
7765.99
7766.64
7767.3
7767.98
7768.66
7769.36
7770.07
7770.78
7771.5
7772.23
7772.97
7773.72
7774.47
7775.23
7775.99
7776.76
7777.53
7778.31
7779.08
7779.87
7780.65
7781.43
7782.22
7783
7783.79
7784.58
7785.36
7786.14
7786.93
7787.71
7788.49
7789.26
7790.03
7790.8
7791.57
7792.33
7793.09
7793.85
7794.6
7795.34
7796.08
7796.82
7797.55
7798.27
7798.99
7799.7
7800.4
7801.1
7801.79
7802.48
7803.16
7803.83
7804.5
7805.16
7805.81
7806.46
7807.09
7807.72
7808.35
7808.96
7809.57
7810.17
7810.76
7811.35
7811.92
7812.49
7813.06
7813.61
7814.16
7814.7
7815.23
7815.75
7816.27
7816.78
7817.28
7817.77
7818.26
7818.74
7819.21
7819.68
7820.13
7820.58
7821.03
7821.46
7821.89
7822.31
7822.72
7823.12
7823.52
7823.92
7824.3
7824.68
7825.05
7825.41
7825.77
7826.12
7826.46
7826.8
7827.13
7827.45
7827.77
7828.08
7828.38
7828.68
7828.97
7829.26
7829.53
7829.81
7830.08
7830.34
7830.59
7830.85
7831.09
7831.33
7831.56
7831.79
7832.02
7832.24
7832.45
7832.66
7832.86
7833.06
7833.26
7833.45
7833.63
7833.81
7833.99
7834.16
7834.33
7834.49
7834.65
7834.81
7834.96
7835.11
7835.26
7835.4
7835.53
7835.67
7835.8
7835.93
7836.05
7836.17
7836.29
7836.4
7836.52
7836.63
7836.73
7836.83
7836.94
7837.03
7837.13
7837.22
7837.31
7837.4
7837.48
7837.57
7837.65
7837.73
7837.8
7837.88
7837.95
7838.02
7838.09
7838.15
7838.22
7838.28
7838.34
7838.4
7838.46
7838.52
7838.57
7838.62
7838.68
7838.73
7838.77
7838.82
7838.87
7838.91
7838.96
7839
7839.04
7839.08
7839.12
7839.16
7839.19
7839.23
7839.26
7839.3
7839.33
7839.36
7839.39
7839.42
7839.45
7839.48
7839.51
7839.54
7839.56
7839.59
7839.61
7839.64
7839.66
7839.68
7839.7
7839.72
7839.75
7839.77
7839.78
7839.8
7839.82
7839.84
7839.86
7839.87
7839.89
7839.91
7839.92
7839.94
7839.95
7839.96
7839.98
7839.99
7840
7840.02
7840.03
7840.04
7840.05
7840.06
7840.07
7840.08
7840.09
7840.1
7840.11
7840.12
7840.12
7840.13
7840.14
7840.15
7840.15
7840.16
7840.17
7840.17
7840.18
7840.19
7840.19
7840.2
7840.2
7840.21
7840.21
7840.22
7840.22
7840.23
7840.23
7840.23
7840.24
7840.24
7840.24
7840.25
7840.25
7840.25
7840.25
7840.26
7840.26
7840.26
7840.26
7840.27
7840.27
7840.27
7840.27
7840.27
7840.27
7840.27
7840.28
7840.28
7840.28
7840.28
7840.28
7840.28
7840.28
7840.28
7840.28
7840.28
7840.28
7840.28
7840.28
7840.28
7840.28
7840.28
7840.28
7840.28
7840.28
7840.28
7840.28
7840.28
7840.28
7840.28
7840.28
7840.28
7840.28
7840.28
7840.27
7840.27
7840.27
7840.27
7840.27
7840.27
7840.27
7840.27
7840.27
7840.27
7840.27
7840.26
7840.26
7840.26
7840.26
7840.26
7840.26
7840.26
7840.26
7840.26
7840.26
7840.26
7840.26
7840.25
7840.25
7840.25
7840.25
7840.25
7840.25
7840.25
7840.25
7840.25
7840.25
7840.25
7840.25
7840.25
7840.24
7840.24
7840.24
7840.24
7840.24
7840.24
7840.24
7840.24
7840.24
7840.24
7840.24
7840.24
7840.24
7840.24
7840.24
7840.24
7840.23
7840.23
7840.23
7840.23
7840.23
7840.23
7840.23
7840.23
7840.23
7840.23
7840.23
7840.23
7840.23
7840.23
7840.23
7840.23
7840.23
7840.22
7840.22
7840.22
7840.22
7840.22
7840.22
7840.22
7840.22
7840.22
7840.22
7840.22
7840.22
7840.22
7840.22
7840.22
7840.22
7840.22
7840.21
7840.21
7840.21
7840.21
7840.21
7840.21
7840.21
7840.21
7840.21
7840.21
7840.21
7840.21
7727.62
7730.51
7732.86
7735.1
7737.22
7739.33
7741.46
7743.56
7745.62
7747.66
7749.65
7751.62
7753.55
7755.46
7757.33
7759.17
7760.96
7762.7
7764.38
7766.02
7767.61
7769.15
7770.63
7772.04
7773.4
7774.7
7775.95
7777.16
7778.32
7779.42
7780.45
7781.41
7782.29
7783.1
7783.84
7784.53
7785.16
7785.77
7786.35
7786.82
7787.22
7787.62
7788.03
7788.36
7788.6
7788.87
7789.1
7789.23
7789.28
7789.34
7789.43
7789.44
7789.38
7789.28
7789.18
7789
7788.76
7788.54
7788.3
7787.99
7787.65
7787.27
7786.86
7786.41
7785.91
7785.44
7784.97
7784.46
7783.94
7783.39
7782.84
7782.28
7781.68
7781.03
7780.42
7779.89
7779.31
7778.7
7778.03
7777.36
7776.84
7776.22
7775.55
7774.83
7774.19
7773.64
7772.99
7772.32
7771.64
7771
7770.36
7769.77
7769.23
7768.6
7767.96
7767.32
7766.73
7766.12
7765.21
7764.63
7764
7763.38
7762.81
7762.2
7761.64
7761.09
7760.53
7760.04
7759.55
7759.07
7758.57
7758.17
7757.77
7757.39
7757
7756.68
7756.36
7755.96
7755.71
7755.65
7755.5
7755.37
7755.26
7755.16
7755.12
7755.11
7755.12
7755.16
7755.21
7755.31
7755.44
7755.58
7755.76
7755.95
7756.16
7756.29
7756.58
7757.04
7757.41
7757.79
7758.2
7758.63
7759.08
7759.56
7760.05
7760.56
7761.09
7761.63
7762.18
7762.78
7763.37
7763.98
7764.59
7765.23
7765.88
7766.54
7767.21
7767.89
7768.58
7769.28
7769.99
7770.72
7771.45
7772.18
7772.93
7773.68
7774.44
7775.2
7775.97
7776.75
7777.53
7778.31
7779.1
7779.88
7780.67
7781.46
7782.25
7783.04
7783.83
7784.62
7785.41
7786.2
7786.99
7787.77
7788.56
7789.33
7790.11
7790.88
7791.65
7792.42
7793.18
7793.94
7794.69
7795.44
7796.18
7796.92
7797.65
7798.37
7799.09
7799.81
7800.52
7801.22
7801.91
7802.6
7803.28
7803.95
7804.62
7805.28
7805.93
7806.58
7807.21
7807.84
7808.47
7809.08
7809.69
7810.29
7810.88
7811.47
7812.05
7812.62
7813.18
7813.73
7814.28
7814.82
7815.35
7815.87
7816.39
7816.9
7817.4
7817.89
7818.37
7818.85
7819.32
7819.79
7820.24
7820.69
7821.14
7821.57
7822
7822.42
7822.83
7823.23
7823.63
7824.02
7824.4
7824.78
7825.15
7825.52
7825.87
7826.22
7826.56
7826.9
7827.23
7827.55
7827.86
7828.17
7828.47
7828.77
7829.06
7829.34
7829.62
7829.89
7830.16
7830.42
7830.68
7830.92
7831.17
7831.41
7831.64
7831.87
7832.09
7832.31
7832.52
7832.73
7832.93
7833.13
7833.32
7833.51
7833.7
7833.88
7834.05
7834.22
7834.39
7834.55
7834.71
7834.87
7835.02
7835.16
7835.31
7835.45
7835.58
7835.72
7835.85
7835.97
7836.1
7836.22
7836.33
7836.45
7836.56
7836.67
7836.77
7836.87
7836.97
7837.07
7837.16
7837.26
7837.35
7837.43
7837.52
7837.6
7837.68
7837.76
7837.83
7837.91
7837.98
7838.05
7838.11
7838.18
7838.24
7838.31
7838.37
7838.43
7838.48
7838.54
7838.59
7838.65
7838.7
7838.75
7838.79
7838.84
7838.89
7838.93
7838.97
7839.02
7839.06
7839.1
7839.13
7839.17
7839.21
7839.24
7839.28
7839.31
7839.34
7839.38
7839.41
7839.44
7839.46
7839.49
7839.52
7839.55
7839.57
7839.6
7839.62
7839.65
7839.67
7839.69
7839.71
7839.73
7839.75
7839.77
7839.79
7839.81
7839.83
7839.85
7839.86
7839.88
7839.9
7839.91
7839.93
7839.94
7839.96
7839.97
7839.98
7840
7840.01
7840.02
7840.03
7840.04
7840.05
7840.06
7840.08
7840.08
7840.09
7840.1