/*--------------------------------*- C++ -*----------------------------------*\
| =========                 |                                                 |
| \\      /  F ield         | OpenFOAM: The Open Source CFD Toolbox           |
|  \\    /   O peration     | Version:  v2006                                 |
|   \\  /    A nd           | Website:  www.openfoam.com                      |
|    \\/     M anipulation  |                                                 |
\*---------------------------------------------------------------------------*/
FoamFile
{
    version     2.0;
    format      ascii;
    class       surfaceScalarField;
    location    "1.6";
    object      phi;
}
// * * * * * * * * * * * * * * * * * * * * * * * * * * * * * * * * * * * * * //

dimensions      [0 3 -1 0 0 0 0];
oriented        oriented;


internalField   nonuniform List<scalar> 
65390
(
-1.60205e-05
-8.53106e-07
-1.55557e-05
-4.68004e-07
-1.50998e-05
-4.59242e-07
-1.45763e-05
-5.26241e-07
-1.40924e-05
-4.86679e-07
-1.3637e-05
-4.58191e-07
-1.31828e-05
-4.572e-07
-1.27334e-05
-4.52252e-07
-1.22871e-05
-4.4903e-07
-1.1841e-05
-4.49016e-07
-1.1406e-05
-4.38201e-07
-1.09872e-05
-4.22259e-07
-1.05827e-05
-4.07905e-07
-1.0203e-05
-3.82977e-07
-9.82809e-06
-3.78619e-07
-9.45545e-06
-3.76902e-07
-9.09076e-06
-3.69213e-07
-8.7378e-06
-3.57465e-07
-8.39596e-06
-3.46418e-07
-8.07499e-06
-3.25893e-07
-7.79591e-06
-2.8439e-07
-7.52028e-06
-2.81098e-07
-7.22803e-06
-2.97681e-07
-6.93082e-06
-3.02595e-07
-6.67359e-06
-2.62684e-07
-6.43885e-06
-2.40298e-07
-6.21673e-06
-2.27716e-07
-6.00046e-06
-2.21739e-07
-5.77785e-06
-2.27752e-07
-5.59654e-06
-1.85973e-07
-5.43998e-06
-1.60694e-07
-5.27907e-06
-1.64524e-07
-5.08495e-06
-1.97302e-07
-4.92634e-06
-1.61431e-07
-4.79875e-06
-1.30021e-07
-4.7087e-06
-9.18642e-08
-4.58993e-06
-1.19634e-07
-4.42217e-06
-1.67341e-07
-4.32938e-06
-9.08595e-08
-4.25294e-06
-7.29439e-08
-4.2097e-06
-3.8402e-08
-4.18081e-06
-2.31179e-08
-4.09312e-06
-8.14523e-08
-3.98262e-06
-1.04123e-07
-3.93495e-06
-4.13763e-08
-3.92817e-06
-6.59324e-10
-3.87421e-06
-4.80243e-08
-3.81012e-06
-5.83348e-08
-3.77642e-06
-2.81324e-08
-3.77092e-06
-2.18934e-10
-3.75292e-06
-1.32162e-08
-3.71729e-06
-3.14995e-08
-3.68243e-06
-3.1468e-08
-3.65515e-06
-2.47197e-08
-3.64979e-06
-3.61005e-09
-3.65665e-06
7.9216e-09
-3.6583e-06
2.10219e-09
-3.6775e-06
1.91422e-08
-3.73288e-06
5.48826e-08
-3.793e-06
5.92039e-08
-3.83032e-06
3.59737e-08
-3.86014e-06
2.8021e-08
-3.92714e-06
6.47704e-08
-3.99984e-06
7.00401e-08
-4.06335e-06
6.04834e-08
-4.10508e-06
3.84421e-08
-4.12859e-06
2.00621e-08
-4.16126e-06
2.91818e-08
-4.18477e-06
2.00737e-08
-4.1921e-06
4.0171e-09
-4.19805e-06
2.76289e-09
-4.18536e-06
-1.57664e-08
-4.13935e-06
-4.90742e-08
-4.00961e-06
-1.32842e-07
-3.83527e-06
-1.7753e-07
-3.56876e-06
-2.69707e-07
-3.1522e-06
-4.19706e-07
-2.71155e-06
-4.43762e-07
-2.33222e-06
-3.82249e-07
-2.15173e-06
-1.8248e-07
-2.08545e-06
-6.84956e-08
-2.11675e-06
2.91775e-08
-2.23283e-06
1.14537e-07
-2.34977e-06
1.15545e-07
-2.46742e-06
1.16029e-07
-2.52886e-06
5.96851e-08
-2.55999e-06
2.97007e-08
-2.61794e-06
5.65482e-08
-2.68246e-06
6.29997e-08
-2.7544e-06
7.0364e-08
-2.82057e-06
6.46981e-08
-2.87602e-06
5.42963e-08
-2.91049e-06
3.34859e-08
-2.93694e-06
2.55089e-08
-2.94928e-06
1.13957e-08
-2.93671e-06
-1.34208e-08
-2.87677e-06
-6.0734e-08
-2.76928e-06
-1.08349e-07
-2.58465e-06
-1.85606e-07
-2.44116e-06
-1.44535e-07
-2.41829e-06
-2.39999e-08
-2.46663e-06
4.71323e-08
-2.54385e-06
7.59786e-08
-2.59546e-06
5.03858e-08
-2.67567e-06
7.90699e-08
-2.75211e-06
7.53641e-08
-2.79617e-06
4.3064e-08
-2.83406e-06
3.69829e-08
-2.8767e-06
4.17924e-08
-2.921e-06
4.34951e-08
-2.95668e-06
3.48855e-08
-2.98726e-06
2.97966e-08
-3.00343e-06
1.53986e-08
-2.99834e-06
-5.86327e-09
-2.96141e-06
-3.77076e-08
-2.88452e-06
-7.76509e-08
-2.72631e-06
-1.58956e-07
-2.59949e-06
-1.27544e-07
-2.57812e-06
-2.20659e-08
-2.61327e-06
3.44776e-08
-2.67828e-06
6.44012e-08
-2.72063e-06
4.1794e-08
-2.79009e-06
6.8951e-08
-2.8542e-06
6.36505e-08
-2.89349e-06
3.88802e-08
-2.93474e-06
4.08773e-08
-2.97368e-06
3.85994e-08
-3.00972e-06
3.57276e-08
-3.04619e-06
3.61943e-08
-3.07862e-06
3.2156e-08
-3.10494e-06
2.60611e-08
-3.13236e-06
2.71522e-08
-3.15771e-06
2.50848e-08
-3.18068e-06
2.27008e-08
-3.20141e-06
2.04508e-08
-3.21924e-06
1.7577e-08
-3.23769e-06
1.82077e-08
-3.2546e-06
1.66845e-08
-3.26988e-06
1.50704e-08
-3.28313e-06
1.30663e-08
-3.29495e-06
1.16635e-08
-3.30565e-06
1.05601e-08
-3.31476e-06
8.98215e-09
-3.32239e-06
7.51201e-09
-3.32849e-06
5.97395e-09
-3.33296e-06
4.31497e-09
-3.33545e-06
2.32268e-09
-3.33664e-06
9.99961e-10
-3.33663e-06
-2.27995e-10
-3.33525e-06
-1.62587e-09
-3.33253e-06
-3.02023e-09
-3.3282e-06
-4.68437e-09
-3.32211e-06
-6.48305e-09
-3.31467e-06
-7.88791e-09
-3.30621e-06
-8.94633e-09
-3.29654e-06
-1.01878e-08
-3.28544e-06
-1.16492e-08
-3.27299e-06
-1.30194e-08
-3.2595e-06
-1.40839e-08
-3.24499e-06
-1.51029e-08
-3.22931e-06
-1.62764e-08
-3.21247e-06
-1.7429e-08
-3.19465e-06
-1.8409e-08
-3.17591e-06
-1.93244e-08
-3.15627e-06
-2.02085e-08
-3.13575e-06
-2.10842e-08
-3.11434e-06
-2.19646e-08
-3.09207e-06
-2.28181e-08
-3.06902e-06
-2.35749e-08
-3.04526e-06
-2.42702e-08
-3.02072e-06
-2.50208e-08
-2.99542e-06
-2.57738e-08
-2.96941e-06
-2.64561e-08
-2.94275e-06
-2.70797e-08
-2.91545e-06
-2.77091e-08
-2.88751e-06
-2.83255e-08
-2.85898e-06
-2.88926e-08
-2.82991e-06
-2.94174e-08
-2.8003e-06
-2.99358e-08
-2.77019e-06
-3.04292e-08
-2.73961e-06
-3.08912e-08
-2.7086e-06
-3.13183e-08
-2.67716e-06
-3.17388e-08
-2.64533e-06
-3.2127e-08
-2.61311e-06
-3.24943e-08
-2.58056e-06
-3.2819e-08
-2.54771e-06
-3.30991e-08
-2.51458e-06
-3.33577e-08
-2.4812e-06
-3.35997e-08
-2.44761e-06
-3.37869e-08
-2.41384e-06
-3.39451e-08
-2.37992e-06
-3.40858e-08
-2.34587e-06
-3.42002e-08
-2.31172e-06
-3.42876e-08
-2.2775e-06
-3.43429e-08
-2.24324e-06
-3.43673e-08
-2.20897e-06
-3.43683e-08
-2.17471e-06
-3.43394e-08
-2.1405e-06
-3.4286e-08
-2.10634e-06
-3.42248e-08
-2.07224e-06
-3.41516e-08
-2.03823e-06
-3.40595e-08
-2.00433e-06
-3.39448e-08
-1.97057e-06
-3.38053e-08
-1.93696e-06
-3.36379e-08
-1.90354e-06
-3.34445e-08
-1.87032e-06
-3.32351e-08
-1.83731e-06
-3.30193e-08
-1.8045e-06
-3.2801e-08
-1.77191e-06
-3.25818e-08
-1.73954e-06
-3.23528e-08
-1.70742e-06
-3.20924e-08
-1.67558e-06
-3.17981e-08
-1.64403e-06
-3.1492e-08
-1.6128e-06
-3.11663e-08
-1.58191e-06
-3.08229e-08
-1.55137e-06
-3.04698e-08
-1.52117e-06
-3.01284e-08
-1.49129e-06
-2.97935e-08
-1.46175e-06
-2.94484e-08
-1.43256e-06
-2.90863e-08
-1.4037e-06
-2.8717e-08
-1.37518e-06
-2.83447e-08
-1.34702e-06
-2.79653e-08
-1.31921e-06
-2.75785e-08
-1.29177e-06
-2.72011e-08
-1.26471e-06
-2.68411e-08
-1.238e-06
-2.64978e-08
-1.21165e-06
-2.61592e-08
-1.18567e-06
-2.58122e-08
-1.16006e-06
-2.5456e-08
-1.13479e-06
-2.50928e-08
-1.10988e-06
-2.47195e-08
-1.08532e-06
-2.43422e-08
-1.0611e-06
-2.39693e-08
-1.03725e-06
-2.35956e-08
-1.01379e-06
-2.32173e-08
-9.90709e-07
-2.28466e-08
-9.68015e-07
-2.24855e-08
-9.45681e-07
-2.21431e-08
-9.23685e-07
-2.18142e-08
-9.02016e-07
-2.14852e-08
-8.80673e-07
-2.11538e-08
-8.59664e-07
-2.08114e-08
-8.39005e-07
-2.0459e-08
-8.18704e-07
-2.01025e-08
-7.98765e-07
-1.97513e-08
-7.79182e-07
-1.9408e-08
-7.59955e-07
-1.90665e-08
-7.41084e-07
-1.87227e-08
-7.22563e-07
-1.83798e-08
-7.04381e-07
-1.80443e-08
-6.86528e-07
-1.77155e-08
-6.69001e-07
-1.73859e-08
-6.51803e-07
-1.70533e-08
-6.34929e-07
-1.67274e-08
-6.18358e-07
-1.64243e-08
-6.0207e-07
-1.61407e-08
-5.86061e-07
-1.58622e-08
-5.70341e-07
-1.55729e-08
-5.54923e-07
-1.52696e-08
-5.39812e-07
-1.49593e-08
-5.2501e-07
-1.4648e-08
-5.10517e-07
-1.43381e-08
-4.9633e-07
-1.40324e-08
-4.82444e-07
-1.37345e-08
-4.68853e-07
-1.34434e-08
-4.55554e-07
-1.3156e-08
-4.42542e-07
-1.28729e-08
-4.29805e-07
-1.25979e-08
-4.17337e-07
-1.23305e-08
-4.05134e-07
-1.20648e-08
-3.93201e-07
-1.17973e-08
-3.81539e-07
-1.15299e-08
-3.70147e-07
-1.12647e-08
-3.59026e-07
-1.1e-08
-3.48176e-07
-1.0734e-08
-3.37595e-07
-1.0467e-08
-3.27282e-07
-1.01998e-08
-3.17234e-07
-9.9325e-09
-3.07448e-07
-9.66844e-09
-2.97912e-07
-9.41523e-09
-2.88609e-07
-9.17998e-09
-2.79523e-07
-8.96311e-09
-2.7064e-07
-8.75971e-09
-2.61953e-07
-8.56498e-09
-2.53457e-07
-8.37739e-09
-2.45143e-07
-8.19695e-09
-2.37008e-07
-8.0219e-09
-2.29049e-07
-7.84863e-09
-2.21269e-07
-7.67332e-09
-2.13672e-07
-7.494e-09
-2.06263e-07
-7.30983e-09
-1.99048e-07
-7.11881e-09
-1.92033e-07
-6.92043e-09
-1.85224e-07
-6.71724e-09
-1.78619e-07
-6.51404e-09
-1.72214e-07
-6.31517e-09
-1.66003e-07
-6.12238e-09
-1.5998e-07
-5.93539e-09
-1.54138e-07
-5.75405e-09
-1.48472e-07
-5.58028e-09
-1.4297e-07
-5.41649e-09
-1.37621e-07
-5.2649e-09
-1.32413e-07
-5.12574e-09
-1.27334e-07
-4.99699e-09
-1.22378e-07
-4.87551e-09
-1.17541e-07
-4.7584e-09
-1.1282e-07
-4.64341e-09
-1.08216e-07
-4.52882e-09
-1.03731e-07
-4.41322e-09
-9.93647e-08
-4.29593e-09
-9.51209e-08
-4.17693e-09
-9.09998e-08
-4.05716e-09
-8.70009e-08
-3.93819e-09
-8.31214e-08
-3.82179e-09
-7.93571e-08
-3.70943e-09
-7.57029e-08
-3.60182e-09
-7.21542e-08
-3.49854e-09
-6.87075e-08
-3.39829e-09
-6.53608e-08
-3.2997e-09
-6.21124e-08
-3.20255e-09
-5.89598e-08
-3.10756e-09
-5.59006e-08
-3.01479e-09
-5.29353e-08
-2.92161e-09
-5.00693e-08
-2.82288e-09
-4.73114e-08
-2.71535e-09
-4.4667e-08
-2.60249e-09
-4.21329e-08
-2.49296e-09
-3.96989e-08
-2.39371e-09
-3.7355e-08
-2.30455e-09
-3.50954e-08
-2.2214e-09
-3.29145e-08
-2.14408e-09
-3.08014e-08
-2.07772e-09
-2.8743e-08
-2.02459e-09
-2.67335e-08
-1.97725e-09
-2.47802e-08
-1.92273e-09
-2.28948e-08
-1.85627e-09
-2.10828e-08
-1.78435e-09
-1.93433e-08
-1.71311e-09
-1.76778e-08
-1.64032e-09
-1.60923e-08
-1.56139e-09
-1.45901e-08
-1.47909e-09
-1.31649e-08
-1.40268e-09
-1.18056e-08
-1.33738e-09
-1.05037e-08
-1.28037e-09
-9.25419e-09
-1.22835e-09
-8.05087e-09
-1.18259e-09
-6.88749e-09
-1.14319e-09
-5.76315e-09
-1.10476e-09
-4.68221e-09
-1.06199e-09
-3.64934e-09
-1.01441e-09
-2.66858e-09
-9.62613e-10
-1.74514e-09
-9.05381e-10
-8.8255e-10
-8.44482e-10
-7.71103e-11
-7.8727e-10
6.81281e-10
-7.40257e-10
1.40232e-09
-7.0312e-10
2.09197e-09
-6.72131e-10
2.75491e-09
-6.46e-10
3.39577e-09
-6.24572e-10
4.01528e-09
-6.03911e-10
4.6075e-09
-5.77283e-10
5.16326e-09
-5.41405e-10
5.67636e-09
-4.99256e-10
6.14632e-09
-4.56509e-10
6.57648e-09
-4.17028e-10
6.97212e-09
-3.82747e-10
7.34046e-09
-3.55684e-10
7.69053e-09
-3.37661e-10
8.03028e-09
-3.27647e-10
8.36279e-09
-3.20738e-10
8.68518e-09
-3.10953e-10
8.99167e-09
-2.95355e-10
9.27823e-09
-2.75666e-10
9.54441e-09
-2.55492e-10
9.79103e-09
-2.36139e-10
1.00181e-08
-2.16918e-10
1.02279e-08
-1.99975e-10
1.04278e-08
-1.90653e-10
1.06268e-08
-1.90434e-10
1.08278e-08
-1.93037e-10
1.10259e-08
-1.90633e-10
1.12116e-08
-1.78721e-10
1.13757e-08
-1.57304e-10
1.15123e-08
-1.30051e-10
1.16226e-08
-1.03759e-10
1.17139e-08
-8.48665e-11
1.17952e-08
-7.50372e-11
1.18732e-08
-7.18803e-11
1.19504e-08
-7.13166e-11
1.20237e-08
-6.76172e-11
1.20847e-08
-5.56786e-11
1.21246e-08
-3.46345e-11
1.21373e-08
-7.52671e-12
1.21216e-08
2.07974e-11
1.20825e-08
4.44129e-11
1.20303e-08
5.7387e-11
1.19786e-08
5.69644e-11
1.19356e-08
4.807e-11
1.18989e-08
4.15394e-11
1.18586e-08
4.47734e-11
1.18072e-08
5.56435e-11
1.17445e-08
6.67164e-11
1.16709e-08
7.73244e-11
1.15881e-08
8.62933e-11
1.15049e-08
8.65841e-11
1.1427e-08
8.10512e-11
1.13503e-08
7.96432e-11
1.12659e-08
8.71058e-11
1.11676e-08
1.00773e-10
1.10565e-08
1.13342e-10
1.09413e-08
1.17346e-10
1.08311e-08
1.12204e-10
1.07251e-08
1.0787e-10
1.06204e-08
1.06443e-10
1.05171e-08
1.04989e-10
1.04074e-08
1.11306e-10
1.02919e-08
1.1715e-10
1.01806e-08
1.12852e-10
1.00708e-08
1.11278e-10
9.94472e-09
1.27537e-10
9.80839e-09
1.37725e-10
9.63485e-09
1.74861e-10
9.45526e-09
1.80871e-10
9.33576e-09
1.20728e-10
9.20148e-09
1.35466e-10
9.10304e-09
9.95739e-11
9.0685e-09
3.55818e-11
9.12491e-09
-5.55644e-11
9.20152e-09
-7.60192e-11
9.2103e-09
-8.51482e-12
9.24009e-09
-2.98828e-11
9.2502e-09
-1.05016e-11
9.24791e-09
1.70067e-12
9.20795e-09
3.93047e-11
9.1516e-09
5.57467e-11
9.09885e-09
5.22718e-11
9.04092e-09
5.75976e-11
9.0158e-09
2.49409e-11
8.9628e-09
5.29313e-11
8.84503e-09
1.17796e-10
8.73031e-09
1.1483e-10
8.62628e-09
1.0421e-10
8.55222e-09
7.42971e-11
8.46293e-09
8.95651e-11
8.38954e-09
7.36648e-11
8.36702e-09
2.27313e-11
8.37411e-09
-6.98913e-12
8.4004e-09
-2.63594e-11
8.37221e-09
2.78945e-11
8.37923e-09
-7.57799e-12
8.32786e-09
5.05613e-11
8.26173e-09
6.5096e-11
8.15135e-09
1.09173e-10
8.08142e-09
6.86084e-11
8.05591e-09
2.41251e-11
7.94839e-09
1.06064e-10
7.93036e-09
1.65384e-11
7.92404e-09
4.76056e-12
7.83714e-09
8.52427e-11
7.75052e-09
8.4964e-11
7.40971e-09
3.39216e-10
7.2239e-09
1.84458e-10
7.07595e-09
1.46712e-10
6.816e-09
2.59096e-10
7.11494e-09
-2.99693e-10
7.4136e-09
-3.00151e-10
9.19468e-09
-1.78272e-09
1.0976e-08
-1.78412e-09
1.17948e-08
-8.23449e-10
1.23545e-08
-5.64304e-10
1.25909e-08
-2.41089e-10
1.26621e-08
-7.56583e-11
1.26379e-08
1.98108e-11
1.25135e-08
1.20199e-10
1.22897e-08
2.19726e-10
1.19908e-08
2.94772e-10
1.1647e-08
3.39651e-10
1.12691e-08
3.73699e-10
1.08881e-08
3.76787e-10
1.05441e-08
3.39793e-10
1.02458e-08
2.94073e-10
9.96534e-09
2.76344e-10
9.67152e-09
2.89725e-10
9.36707e-09
3.0041e-10
9.07989e-09
2.83154e-10
8.83029e-09
2.4558e-10
8.61695e-09
2.09307e-10
8.42364e-09
1.89269e-10
8.22756e-09
1.92045e-10
8.00832e-09
2.15227e-10
7.75436e-09
2.49992e-10
7.46521e-09
2.85222e-10
7.15047e-09
3.10842e-10
6.82444e-09
3.22138e-10
6.50176e-09
3.1874e-10
6.19718e-09
3.00556e-10
5.92885e-09
2.6421e-10
5.71711e-09
2.07516e-10
5.58526e-09
1.27586e-10
5.55028e-09
3.07358e-11
5.61895e-09
-7.28172e-11
5.78385e-09
-1.68917e-10
6.02586e-09
-2.45908e-10
6.31819e-09
-2.96163e-10
6.63532e-09
-3.20989e-10
6.95623e-09
-3.24839e-10
7.26579e-09
-3.13592e-10
7.55115e-09
-2.89474e-10
7.79683e-09
-2.49776e-10
7.98378e-09
-1.90959e-10
8.09601e-09
-1.1606e-10
8.13119e-09
-3.88497e-11
8.10523e-09
2.24345e-11
8.04761e-09
5.41332e-11
7.99439e-09
4.96997e-11
7.97872e-09
1.20753e-11
8.0218e-09
-4.67539e-11
8.14832e-09
-1.30236e-10
8.35915e-09
-2.14529e-10
8.62112e-09
-2.65578e-10
8.85573e-09
-2.38107e-10
8.9757e-09
-1.23365e-10
8.95792e-09
1.44387e-11
8.87777e-09
7.6837e-11
8.88494e-09
-1.05336e-11
9.05903e-09
-1.77531e-10
9.28803e-09
-2.32541e-10
9.33447e-09
-5.00741e-11
9.06724e-09
2.63492e-10
8.58955e-09
4.73824e-10
8.20939e-09
3.76153e-10
8.11128e-09
9.38866e-11
8.07181e-09
3.49993e-11
7.79317e-09
2.73872e-10
7.27347e-09
5.14579e-10
6.89795e-09
3.70025e-10
6.93853e-09
-4.64407e-11
7.08799e-09
-1.55679e-10
7.0103e-09
7.11191e-11
6.9074e-09
9.59997e-11
7.1579e-09
-2.57718e-10
7.58051e-09
-4.30168e-10
7.58737e-09
-1.47183e-11
7.3068e-09
2.72459e-10
7.13857e-09
1.60059e-10
6.69573e-09
4.34911e-10
6.28667e-09
4.01881e-10
9.75993e-10
-1.64573e-05
-1.28962e-06
-1.58965e-05
-1.02906e-06
-1.53026e-05
-1.05561e-06
-1.47978e-05
-1.03369e-06
-1.43133e-05
-9.75136e-07
-1.38335e-05
-9.43115e-07
-1.33627e-05
-9.34163e-07
-1.29026e-05
-9.1923e-07
-1.2448e-05
-9.11512e-07
-1.20039e-05
-9.01878e-07
-1.15703e-05
-8.81063e-07
-1.11496e-05
-8.52546e-07
-1.07435e-05
-8.24019e-07
-1.03475e-05
-7.89218e-07
-9.96443e-06
-7.72318e-07
-9.59553e-06
-7.56362e-07
-9.23663e-06
-7.38433e-07
-8.88455e-06
-7.19619e-07
-8.54649e-06
-6.94467e-07
-8.22255e-06
-6.59728e-07
-7.90671e-06
-6.09799e-07
-7.60028e-06
-5.96558e-07
-7.31253e-06
-5.93847e-07
-7.03245e-06
-5.90542e-07
-6.76177e-06
-5.40762e-07
-6.49885e-06
-5.10168e-07
-6.24674e-06
-4.86245e-07
-6.01913e-06
-4.55201e-07
-5.7974e-06
-4.5473e-07
-5.60071e-06
-3.87312e-07
-5.46156e-06
-3.03872e-07
-5.33586e-06
-2.93514e-07
-5.18043e-06
-3.55157e-07
-4.9636e-06
-3.79676e-07
-4.76323e-06
-3.30654e-07
-4.64127e-06
-2.1287e-07
-4.54219e-06
-2.16558e-07
-4.45428e-06
-2.51998e-07
-4.33594e-06
-2.0499e-07
-4.19872e-06
-2.05299e-07
-4.12821e-06
-1.03647e-07
-4.07184e-06
-7.39102e-08
-4.00291e-06
-1.44613e-07
-3.91569e-06
-1.85436e-07
-3.83371e-06
-1.17284e-07
-3.79916e-06
-2.90572e-08
-3.77209e-06
-6.90205e-08
-3.75227e-06
-7.22814e-08
-3.74007e-06
-3.48726e-08
-3.73829e-06
2.79531e-09
-3.73034e-06
-1.71825e-08
-3.72338e-06
-3.53253e-08
-3.71872e-06
-3.39081e-08
-3.71338e-06
-2.86742e-08
-3.71173e-06
-4.61464e-09
-3.72269e-06
1.88391e-08
-3.73366e-06
1.2382e-08
-3.74406e-06
2.82215e-08
-3.78547e-06
9.42808e-08
-3.83768e-06
1.08693e-07
-3.87014e-06
6.50215e-08
-3.89565e-06
4.94386e-08
-3.96839e-06
1.32815e-07
-4.0478e-06
1.44239e-07
-4.12403e-06
1.31109e-07
-4.16099e-06
6.95213e-08
-4.19543e-06
4.84668e-08
-4.22176e-06
4.94645e-08
-4.24265e-06
3.50106e-08
-4.27657e-06
3.21408e-08
-4.31722e-06
3.7779e-08
-4.32939e-06
-9.09115e-09
-4.32152e-06
-6.23689e-08
-4.31712e-06
-1.42631e-07
-4.31265e-06
-1.87304e-07
-4.2963e-06
-2.91184e-07
-4.27033e-06
-4.50687e-07
-4.15078e-06
-5.67874e-07
-3.93773e-06
-5.98616e-07
-3.60391e-06
-5.19897e-07
-3.27476e-06
-4.01184e-07
-2.85025e-06
-3.98011e-07
-2.56341e-06
-1.74654e-07
-2.42053e-06
-2.99809e-08
-2.32666e-06
1.96014e-08
-2.37216e-06
1.03202e-07
-2.46423e-06
1.19994e-07
-2.62176e-06
2.12214e-07
-2.76535e-06
2.04757e-07
-2.82804e-06
1.31426e-07
-2.85778e-06
9.32612e-08
-2.89037e-06
8.60062e-08
-2.93622e-06
7.85484e-08
-2.98562e-06
7.40734e-08
-3.03629e-06
6.12275e-08
-3.07244e-06
2.19142e-08
-3.11168e-06
-2.23737e-08
-3.1504e-06
-7.06803e-08
-3.21096e-06
-1.26274e-07
-3.21187e-06
-1.44968e-07
-3.11637e-06
-1.209e-07
-2.92256e-06
-1.48125e-07
-2.75448e-06
-9.35366e-08
-2.70756e-06
2.10683e-09
-2.70498e-06
7.52396e-08
-2.73791e-06
1.07142e-07
-2.76949e-06
7.35822e-08
-2.81621e-06
8.27151e-08
-2.88908e-06
1.1373e-07
-2.9572e-06
1.1069e-07
-2.99244e-06
6.9193e-08
-3.02722e-06
6.36433e-08
-3.0584e-06
4.56335e-08
-3.08741e-06
2.21723e-08
-3.12259e-06
-3.53046e-09
-3.15787e-06
-4.33591e-08
-3.21513e-06
-1.02682e-07
-3.22915e-06
-1.14488e-07
-3.15909e-06
-9.30614e-08
-2.99061e-06
-1.34886e-07
-2.83839e-06
-8.86397e-08
-2.79813e-06
7.7739e-10
-2.80355e-06
7.36951e-08
-2.839e-06
9.84885e-08
-2.87318e-06
7.25239e-08
-2.93267e-06
9.98906e-08
-2.98764e-06
9.31356e-08
-3.01879e-06
6.64854e-08
-3.05052e-06
6.7557e-08
-3.081e-06
6.22887e-08
-3.1088e-06
5.35185e-08
-3.13692e-06
5.49317e-08
-3.16247e-06
5.03103e-08
-3.18441e-06
4.43247e-08
-3.2047e-06
4.04372e-08
-3.22385e-06
3.64471e-08
-3.24194e-06
3.60275e-08
-3.25831e-06
3.28308e-08
-3.27343e-06
2.99948e-08
-3.28709e-06
2.6563e-08
-3.2992e-06
2.36288e-08
-3.30953e-06
2.07674e-08
-3.31813e-06
1.74514e-08
-3.32571e-06
1.49638e-08
-3.3315e-06
1.16158e-08
-3.33557e-06
8.19726e-09
-3.33818e-06
4.69852e-09
-3.33941e-06
1.91828e-09
-3.33918e-06
-8.48251e-10
-3.33752e-06
-3.75698e-09
-3.33438e-06
-6.70949e-09
-3.3298e-06
-9.90453e-09
-3.32384e-06
-1.31561e-08
-3.31651e-06
-1.59993e-08
-3.30783e-06
-1.84687e-08
-3.29788e-06
-2.10277e-08
-3.28672e-06
-2.37455e-08
-3.27437e-06
-2.6343e-08
-3.26084e-06
-2.86083e-08
-3.24619e-06
-3.07749e-08
-3.23051e-06
-3.29822e-08
-3.21382e-06
-3.51405e-08
-3.19608e-06
-3.71606e-08
-3.17733e-06
-3.90705e-08
-3.15771e-06
-4.07995e-08
-3.13724e-06
-4.24961e-08
-3.11576e-06
-4.43484e-08
-3.09338e-06
-4.60714e-08
-3.07029e-06
-4.75151e-08
-3.04653e-06
-4.88376e-08
-3.02191e-06
-5.04165e-08
-2.9965e-06
-5.19325e-08
-2.97044e-06
-5.324e-08
-2.94374e-06
-5.44705e-08
-2.91633e-06
-5.57949e-08
-2.88826e-06
-5.70406e-08
-2.85961e-06
-5.81646e-08
-2.83043e-06
-5.92064e-08
-2.8007e-06
-6.02593e-08
-2.77043e-06
-6.12644e-08
-2.7397e-06
-6.21779e-08
-2.70852e-06
-6.3018e-08
-2.67694e-06
-6.38284e-08
-2.64498e-06
-6.45707e-08
-2.61267e-06
-6.52564e-08
-2.58004e-06
-6.58818e-08
-2.5471e-06
-6.6447e-08
-2.51389e-06
-6.69649e-08
-2.48043e-06
-6.74249e-08
-2.44678e-06
-6.77914e-08
-2.41296e-06
-6.80915e-08
-2.37901e-06
-6.83394e-08
-2.34496e-06
-6.85351e-08
-2.31081e-06
-6.86875e-08
-2.27659e-06
-6.87937e-08
-2.24232e-06
-6.88537e-08
-2.20801e-06
-6.88616e-08
-2.17372e-06
-6.88049e-08
-2.13947e-06
-6.86961e-08
-2.10527e-06
-6.85612e-08
-2.07115e-06
-6.84011e-08
-2.03711e-06
-6.82097e-08
-2.00318e-06
-6.798e-08
-1.96936e-06
-6.77082e-08
-1.93569e-06
-6.73835e-08
-1.9022e-06
-6.69941e-08
-1.86894e-06
-6.6549e-08
-1.83593e-06
-6.60708e-08
-1.80318e-06
-6.55852e-08
-1.77067e-06
-6.50989e-08
-1.73842e-06
-6.46033e-08
-1.70642e-06
-6.40795e-08
-1.67468e-06
-6.35205e-08
-1.64318e-06
-6.29467e-08
-1.61196e-06
-6.23402e-08
-1.58103e-06
-6.16966e-08
-1.5504e-06
-6.10188e-08
-1.52011e-06
-6.03272e-08
-1.49018e-06
-5.96216e-08
-1.46061e-06
-5.88863e-08
-1.43143e-06
-5.81269e-08
-1.40261e-06
-5.73658e-08
-1.37416e-06
-5.6615e-08
-1.34606e-06
-5.58723e-08
-1.3183e-06
-5.51301e-08
-1.29087e-06
-5.44078e-08
-1.26378e-06
-5.3699e-08
-1.23702e-06
-5.30033e-08
-1.21061e-06
-5.22934e-08
-1.1846e-06
-5.15504e-08
-1.15898e-06
-5.07901e-08
-1.13375e-06
-5.00301e-08
-1.10892e-06
-4.92734e-08
-1.08446e-06
-4.85392e-08
-1.06032e-06
-4.78519e-08
-1.0365e-06
-4.71701e-08
-1.013e-06
-4.64762e-08
-9.89833e-07
-4.57622e-08
-9.6704e-07
-4.50134e-08
-9.44631e-07
-4.42682e-08
-9.22613e-07
-4.35302e-08
-9.00974e-07
-4.28097e-08
-8.79695e-07
-4.21164e-08
-8.58758e-07
-4.14393e-08
-8.38157e-07
-4.07673e-08
-8.17896e-07
-4.0088e-08
-7.97978e-07
-3.94095e-08
-7.78403e-07
-3.87333e-08
-7.59167e-07
-3.80528e-08
-7.40266e-07
-3.73662e-08
-7.217e-07
-3.66786e-08
-7.03464e-07
-3.60024e-08
-6.85553e-07
-3.53415e-08
-6.67966e-07
-3.46866e-08
-6.50708e-07
-3.40291e-08
-6.33785e-07
-3.33746e-08
-6.17199e-07
-3.27442e-08
-6.0094e-07
-3.21412e-08
-5.84994e-07
-3.15532e-08
-5.69355e-07
-3.09602e-08
-5.54014e-07
-3.03567e-08
-5.38966e-07
-2.97506e-08
-5.24209e-07
-2.91473e-08
-5.09741e-07
-2.85464e-08
-4.95567e-07
-2.79492e-08
-4.81685e-07
-2.73623e-08
-4.68093e-07
-2.67875e-08
-4.54787e-07
-2.62204e-08
-4.41767e-07
-2.56589e-08
-4.29029e-07
-2.51061e-08
-4.16572e-07
-2.45608e-08
-4.04395e-07
-2.40161e-08
-3.92498e-07
-2.3469e-08
-3.80879e-07
-2.2924e-08
-3.69532e-07
-2.23857e-08
-3.58454e-07
-2.18531e-08
-3.4764e-07
-2.1324e-08
-3.37084e-07
-2.0801e-08
-3.26779e-07
-2.0286e-08
-3.16717e-07
-1.97774e-08
-3.06896e-07
-1.92756e-08
-2.97311e-07
-1.87879e-08
-2.87957e-07
-1.83239e-08
-2.78826e-07
-1.78864e-08
-2.6991e-07
-1.74701e-08
-2.61204e-07
-1.70688e-08
-2.52702e-07
-1.66803e-08
-2.44401e-07
-1.6305e-08
-2.36294e-07
-1.594e-08
-2.28381e-07
-1.55797e-08
-2.2066e-07
-1.5218e-08
-2.13131e-07
-1.48522e-08
-2.05793e-07
-1.44816e-08
-1.98645e-07
-1.41048e-08
-1.91684e-07
-1.37212e-08
-1.84911e-07
-1.33329e-08
-1.78325e-07
-1.29451e-08
-1.71923e-07
-1.25631e-08
-1.65702e-07
-1.21905e-08
-1.59657e-07
-1.18283e-08
-1.53784e-07
-1.14777e-08
-1.48076e-07
-1.11406e-08
-1.42525e-07
-1.08204e-08
-1.37126e-07
-1.05193e-08
-1.31872e-07
-1.02372e-08
-1.26758e-07
-9.97117e-09
-1.21779e-07
-9.71713e-09
-1.16932e-07
-9.47115e-09
-1.12214e-07
-9.23025e-09
-1.07624e-07
-8.99232e-09
-1.03159e-07
-8.75579e-09
-9.88184e-08
-8.51993e-09
-9.45992e-08
-8.28463e-09
-9.04995e-08
-8.05059e-09
-8.65173e-08
-7.81909e-09
-8.26507e-08
-7.59182e-09
-7.8897e-08
-7.37065e-09
-7.5253e-08
-7.15703e-09
-7.17147e-08
-6.95101e-09
-6.82791e-08
-6.75067e-09
-6.49449e-08
-6.55258e-09
-6.17138e-08
-6.35401e-09
-5.85881e-08
-6.15481e-09
-5.55686e-08
-5.95705e-09
-5.26524e-08
-5.76157e-09
-4.9835e-08
-5.56497e-09
-4.71138e-08
-5.36227e-09
-4.44892e-08
-5.154e-09
-4.19614e-08
-4.94919e-09
-3.9526e-08
-4.75938e-09
-3.71746e-08
-4.58814e-09
-3.4901e-08
-4.42954e-09
-3.27038e-08
-4.27828e-09
-3.05832e-08
-4.13804e-09
-2.85356e-08
-4.01461e-09
-2.65558e-08
-3.9022e-09
-2.46429e-08
-3.78348e-09
-2.28016e-08
-3.64775e-09
-2.10364e-08
-3.50203e-09
-1.9345e-08
-3.35883e-09
-1.77218e-08
-3.21957e-09
-1.61638e-08
-3.0769e-09
-1.46716e-08
-2.93017e-09
-1.32443e-08
-2.79009e-09
-1.18775e-08
-2.66523e-09
-1.05675e-08
-2.55235e-09
-9.31283e-09
-2.44564e-09
-8.11227e-09
-2.3464e-09
-6.96322e-09
-2.2559e-09
-5.86426e-09
-2.16775e-09
-4.81532e-09
-2.07531e-09
-3.8152e-09
-1.97932e-09
-2.86172e-09
-1.8814e-09
-1.95419e-09
-1.77885e-09
-1.0927e-09
-1.67264e-09
-2.74369e-10
-1.57308e-09
5.06944e-10
-1.48989e-09
1.25615e-09
-1.42148e-09
1.97361e-09
-1.35954e-09
2.65698e-09
-1.30005e-09
3.30486e-09
-1.2438e-09
3.91736e-09
-1.18836e-09
4.49437e-09
-1.1268e-09
5.0352e-09
-1.05529e-09
5.54039e-09
-9.78063e-10
6.01277e-09
-9.03087e-10
6.45643e-09
-8.35474e-10
6.87494e-09
-7.76661e-10
7.27095e-09
-7.27712e-10
7.64671e-09
-6.90037e-10
8.00427e-09
-6.62427e-10
8.34483e-09
-6.3916e-10
8.66783e-09
-6.1247e-10
8.97117e-09
-5.77917e-10
9.25377e-09
-5.38213e-10
9.51798e-09
-5.00401e-10
9.76826e-09
-4.67875e-10
1.0007e-08
-4.37869e-10
1.02335e-08
-4.09349e-10
1.04468e-08
-3.87615e-10
1.06474e-08
-3.75231e-10
1.0834e-08
-3.64443e-10
1.10032e-08
-3.45139e-10
1.11531e-08
-3.14418e-10
1.12853e-08
-2.75863e-10
1.14035e-08
-2.35087e-10
1.15117e-08
-1.99408e-10
1.16137e-08
-1.74959e-10
1.1711e-08
-1.60994e-10
1.18013e-08
-1.51314e-10
1.18796e-08
-1.39196e-10
1.19407e-08
-1.18651e-10
1.19815e-08
-8.66495e-11
1.20024e-08
-4.60675e-11
1.2007e-08
-2.73833e-12
1.19996e-08
3.73106e-11
1.19847e-08
6.82166e-11
1.19646e-08
8.61339e-11
1.19387e-08
9.11847e-11
1.19049e-08
8.98248e-11
1.1861e-08
9.30644e-11
1.18058e-08
1.07272e-10
1.17421e-08
1.26268e-10
1.16774e-08
1.38046e-10
1.16146e-08
1.46397e-10
1.15492e-08
1.57579e-10
1.14765e-08
1.64841e-10
1.13927e-08
1.69875e-10
1.1299e-08
1.7789e-10
1.11999e-08
1.90264e-10
1.10985e-08
2.05716e-10
1.09973e-08
2.17842e-10
1.08967e-08
2.20773e-10
1.07996e-08
2.11978e-10
1.06983e-08
2.11737e-10
1.05914e-08
2.15711e-10
1.04826e-08
2.16145e-10
1.03692e-08
2.27041e-10
1.02472e-08
2.41557e-10
1.0128e-08
2.34371e-10
9.98403e-09
2.57669e-10
9.84282e-09
2.7115e-10
9.74717e-09
2.35759e-10
9.64339e-09
2.8096e-10
9.55299e-09
2.73439e-10
9.50703e-09
1.68635e-10
9.58506e-09
5.90828e-11
9.66994e-09
1.59628e-11
9.64371e-09
6.26604e-11
9.55408e-09
3.44868e-11
9.44151e-09
3.65578e-11
9.37618e-09
5.64605e-11
9.3226e-09
2.30493e-11
9.27133e-09
3.98873e-11
9.22632e-09
4.56863e-11
9.16988e-09
9.4645e-11
9.1133e-09
1.11209e-10
9.05164e-09
1.12839e-10
8.98497e-09
1.23225e-10
8.92934e-09
7.96016e-11
8.86627e-09
1.15104e-10
8.77563e-09
2.07637e-10
8.70401e-09
1.85754e-10
8.63617e-09
1.7143e-10
8.61621e-09
9.3709e-11
8.58789e-09
1.17332e-10
8.53782e-09
1.23107e-10
8.49308e-09
6.66834e-11
8.44764e-09
3.74197e-11
8.38735e-09
3.26074e-11
8.29577e-09
1.17814e-10
8.2756e-09
1.06057e-11
8.22186e-09
1.02039e-10
8.14335e-09
1.41141e-10
8.11362e-09
1.36291e-10
8.11256e-09
6.6969e-11
8.0792e-09
5.4742e-11
8.06167e-09
1.20773e-10
7.99894e-09
7.64084e-11
7.67747e-09
3.23353e-10
7.52566e-09
2.34036e-10
7.45768e-09
1.50178e-10
7.31344e-09
4.80611e-10
7.79568e-09
-3.00225e-10
8.31184e-09
-3.73354e-10
1.03753e-08
-1.80837e-09
1.23589e-08
-2.28933e-09
1.36284e-08
-1.5779e-09
1.38324e-08
-1.99567e-09
1.32354e-08
-1.19794e-09
1.31932e-08
-7.91596e-10
1.32009e-08
-5.82065e-10
1.31617e-08
-2.11787e-10
1.30777e-08
-1.26427e-12
1.29189e-08
1.69075e-10
1.26709e-08
3.58722e-10
1.24126e-08
4.6864e-10
1.21889e-08
5.09055e-10
1.19524e-08
5.66778e-10
1.16802e-08
6.36563e-10
1.13928e-08
6.55034e-10
1.11011e-08
6.22401e-10
1.07943e-08
5.91868e-10
1.04635e-08
5.98241e-10
1.01304e-08
6.14101e-10
9.82705e-09
5.9501e-10
9.56846e-09
5.33076e-10
9.35216e-09
4.53261e-10
9.16323e-09
3.89686e-10
8.97967e-09
3.64343e-10
8.78013e-09
3.83155e-10
8.55065e-09
4.3633e-10
8.29147e-09
5.00829e-10
8.0137e-09
5.54658e-10
7.73717e-09
5.79044e-10
7.47984e-09
5.71112e-10
7.25417e-09
5.36041e-10
7.06904e-09
4.773e-10
6.92676e-09
3.98107e-10
6.83005e-09
2.95844e-10
6.77773e-09
1.7152e-10
6.76317e-09
3.68908e-11
6.78667e-09
-1.04738e-10
6.8454e-09
-2.36087e-10
6.93887e-09
-3.47826e-10
7.06672e-09
-4.32439e-10
7.22754e-09
-4.90182e-10
7.41461e-09
-5.202e-10
7.61568e-09
-5.22826e-10
7.81116e-09
-4.92986e-10
7.97754e-09
-4.2405e-10
8.09545e-09
-3.16656e-10
8.16045e-09
-1.88761e-10
8.18267e-09
-6.87324e-11
8.19103e-09
6.41436e-12
8.20156e-09
3.59208e-11
8.2232e-09
2.03531e-11
8.25711e-09
-2.95708e-11
8.31547e-09
-1.12867e-10
8.40709e-09
-2.29594e-10
8.54356e-09
-3.58742e-10
8.70947e-09
-4.39227e-10
8.85823e-09
-3.94609e-10
8.94712e-09
-2.19994e-10
8.98121e-09
-2.73913e-11
9.00853e-09
4.18182e-11
9.072e-09
-8.16088e-11
9.13986e-09
-2.52823e-10
9.10569e-09
-2.05562e-10
8.9091e-09
1.39658e-10
8.61222e-09
5.53901e-10
8.41657e-09
6.63463e-10
8.40304e-09
3.84184e-10
8.38105e-09
1.10922e-10
8.16123e-09
2.50464e-10
7.7624e-09
6.6899e-10
7.51734e-09
7.56626e-10
7.56504e-09
3.20048e-10
7.57237e-09
-5.52694e-11
7.32999e-09
8.5983e-11
7.10999e-09
2.91165e-10
7.20177e-09
4.96408e-12
7.22749e-09
-2.82097e-10
6.89831e-09
-9.91733e-11
6.62503e-09
2.60715e-10
6.46129e-09
4.38566e-10
6.24104e-09
3.82793e-10
6.07689e-09
6.01455e-10
6.12806e-09
3.52685e-10
1.79544e-09
-1.62795e-05
-1.851e-06
-1.58759e-05
-1.43583e-06
-1.54038e-05
-1.5314e-06
-1.49572e-05
-1.48359e-06
-1.44842e-05
-1.45072e-06
-1.39955e-05
-1.43375e-06
-1.35074e-05
-1.42438e-06
-1.30291e-05
-1.39961e-06
-1.25651e-05
-1.37689e-06
-1.21186e-05
-1.34907e-06
-1.16885e-05
-1.31159e-06
-1.12725e-05
-1.26904e-06
-1.0867e-05
-1.22987e-06
-1.04627e-05
-1.19336e-06
-1.00758e-05
-1.15869e-06
-9.70561e-06
-1.1262e-06
-9.34418e-06
-1.09944e-06
-8.99438e-06
-1.0688e-06
-8.65863e-06
-1.02939e-06
-8.33297e-06
-9.84446e-07
-7.99869e-06
-9.43029e-07
-7.68011e-06
-9.13923e-07
-7.38379e-06
-8.88712e-07
-7.11236e-06
-8.60313e-07
-6.82843e-06
-8.22881e-07
-6.54658e-06
-7.90065e-07
-6.28177e-06
-7.48956e-07
-6.03502e-06
-6.99668e-07
-5.81766e-06
-6.69576e-07
-5.59833e-06
-6.03808e-07
-5.40456e-06
-4.94397e-07
-5.23913e-06
-4.55282e-07
-5.10737e-06
-4.82924e-07
-4.93113e-06
-5.51876e-07
-4.75034e-06
-5.07732e-07
-4.57826e-06
-3.82056e-07
-4.45239e-06
-3.40674e-07
-4.3752e-06
-3.28666e-07
-4.24177e-06
-3.38861e-07
-4.1137e-06
-3.34347e-07
-3.99278e-06
-2.25667e-07
-3.89021e-06
-1.77177e-07
-3.83465e-06
-2.00182e-07
-3.79422e-06
-2.25159e-07
-3.72873e-06
-1.81512e-07
-3.66721e-06
-8.90501e-08
-3.65252e-06
-8.20378e-08
-3.66251e-06
-6.05535e-08
-3.6657e-06
-2.99718e-08
-3.65645e-06
-4.68594e-09
-3.66516e-06
-6.54335e-09
-3.68896e-06
-9.38553e-09
-3.70187e-06
-1.86707e-08
-3.70745e-06
-2.06234e-08
-3.72353e-06
1.39417e-08
-3.72458e-06
2.22509e-08
-3.7244e-06
1.43291e-08
-3.76869e-06
7.43248e-08
-3.79866e-06
1.25724e-07
-3.82347e-06
1.34655e-07