/*--------------------------------*- C++ -*----------------------------------*\
| =========                 |                                                 |
| \\      /  F ield         | OpenFOAM: The Open Source CFD Toolbox           |
|  \\    /   O peration     | Version:  v2006                                 |
|   \\  /    A nd           | Website:  www.openfoam.com                      |
|    \\/     M anipulation  |                                                 |
\*---------------------------------------------------------------------------*/
FoamFile
{
    version     2.0;
    format      ascii;
    class       volVectorField;
    location    "1.6";
    object      U;
}
// * * * * * * * * * * * * * * * * * * * * * * * * * * * * * * * * * * * * * //

dimensions      [0 1 -1 0 0 0 0];


internalField   nonuniform List<vector> 
33000
(
(-0.0257282 0 -0.00188988)
(-0.0406066 0 -0.000843576)
(-0.038897 0 -0.000806879)
(-0.0370011 0 -0.00102996)
(-0.0358343 0 -0.000924464)
(-0.0346724 0 -0.00085524)
(-0.0335219 0 -0.000867677)
(-0.0323942 0 -0.000863897)
(-0.0312731 0 -0.000864512)
(-0.0301588 0 -0.000874409)
(-0.0290567 0 -0.000860332)
(-0.0279887 0 -0.000833554)
(-0.0269513 0 -0.000800968)
(-0.0259745 0 -0.000747442)
(-0.0250385 0 -0.000742247)
(-0.0241024 0 -0.000740986)
(-0.023178 0 -0.000725029)
(-0.0222805 0 -0.000701327)
(-0.0214147 0 -0.000681296)
(-0.0205861 0 -0.000638052)
(-0.0198384 0 -0.000548318)
(-0.0191464 0 -0.000542424)
(-0.0184354 0 -0.000585915)
(-0.0176962 0 -0.000596661)
(-0.017004 0 -0.000511919)
(-0.0163908 0 -0.000461776)
(-0.0158208 0 -0.0004334)
(-0.0152706 0 -0.000435555)
(-0.0147194 0 -0.000447429)
(-0.0142192 0 -0.000362112)
(-0.0138001 0 -0.000324255)
(-0.0133993 0 -0.0003411)
(-0.0129526 0 -0.000408502)
(-0.0125102 0 -0.000281598)
(-0.0121555 0 -0.000208927)
(-0.0118936 0 -0.000164551)
(-0.0116218 0 -0.000246941)
(-0.0112587 0 -0.000374324)
(-0.0109364 0 -0.000165171)
(-0.0107282 0 -0.000101111)
(-0.0105821 0 -5.87386e-05)
(-0.0104966 0 -3.81267e-05)
(-0.0103399 0 -0.000161026)
(-0.0100864 0 -0.000205298)
(-0.0098975 0 -5.9256e-05)
(-0.00983769 0 7.4643e-06)
(-0.0097542 0 -0.000102999)
(-0.00959927 0 -0.000136862)
(-0.00948078 0 -6.94932e-05)
(-0.00943903 0 2.27125e-06)
(-0.00940886 0 -2.87949e-05)
(-0.00933535 0 -7.79264e-05)
(-0.00924821 0 -8.15093e-05)
(-0.00916972 0 -6.32405e-05)
(-0.00913101 0 -8.23071e-06)
(-0.00913426 0 1.382e-05)
(-0.00914171 0 3.76029e-06)
(-0.00916783 0 3.92385e-05)
(-0.00926473 0 0.000108773)
(-0.00941089 0 0.000116192)
(-0.00953001 0 7.0654e-05)
(-0.00961009 0 5.47059e-05)
(-0.00973497 0 0.000124545)
(-0.0099132 0 0.000134712)
(-0.0100814 0 0.000117799)
(-0.010211 0 7.64911e-05)
(-0.0102919 0 3.78516e-05)
(-0.0103634 0 5.63639e-05)
(-0.0104348 0 3.49858e-05)
(-0.0104739 0 -8.22137e-06)
(-0.0104931 0 -2.08686e-05)
(-0.0104889 0 -5.74837e-05)
(-0.0104199 0 -0.000145215)
(-0.010214 0 -0.000368893)
(-0.00983144 0 -0.000539292)
(-0.00917105 0 -0.000870122)
(-0.00814851 0 -0.00139842)
(-0.00677432 0 -0.00174739)
(-0.0067264 0 -0.000856992)
(-0.00525809 0 0.000422877)
(-0.00530526 0 0.000762096)
(-0.00516672 0 0.000857775)
(-0.0054332 0 0.000233311)
(-0.00570157 0 -0.000108063)
(-0.00606084 0 -0.000179517)
(-0.00628971 0 -3.93609e-06)
(-0.00634114 0 9.02646e-05)
(-0.00646745 0 0.000281896)
(-0.00661582 0 0.000311323)
(-0.00680315 0 0.000209995)
(-0.00696476 0 0.0001444)
(-0.00713861 0 6.79642e-05)
(-0.00724048 0 5.79767e-05)
(-0.00731241 0 3.8647e-05)
(-0.00737821 0 1.30751e-05)
(-0.00735687 0 -7.42638e-05)
(-0.0073478 0 -0.000226052)
(-0.00698262 0 -0.000363809)
(-0.00695025 0 -0.000617579)
(-0.00597642 0 -0.000375063)
(-0.00614388 0 0.000141136)
(-0.00600768 0 0.000460099)
(-0.00630729 0 0.00044902)
(-0.00641122 0 0.000102204)
(-0.0065731 0 5.25217e-05)
(-0.00680677 0 3.83903e-05)
(-0.00694663 0 7.00538e-05)
(-0.00703467 0 7.86532e-05)
(-0.00713639 0 0.000122555)
(-0.00725001 0 0.000116442)
(-0.00735153 0 7.60694e-05)
(-0.00743334 0 4.7688e-05)
(-0.00750358 0 6.40458e-06)
(-0.00750389 0 -4.80065e-05)
(-0.00750394 0 -0.000146291)
(-0.00724705 0 -0.000258956)
(-0.0072847 0 -0.000521381)
(-0.00635132 0 -0.00033599)
(-0.00653523 0 8.65294e-05)
(-0.00641825 0 0.000363003)
(-0.00663968 0 0.000370169)
(-0.00674192 0 9.88828e-05)
(-0.00687589 0 6.71557e-05)
(-0.00707196 0 5.0725e-05)
(-0.00719003 0 7.21714e-05)
(-0.00728199 0 9.42911e-05)
(-0.00738925 0 9.33519e-05)
(-0.00747932 0 7.53046e-05)
(-0.00757031 0 6.88325e-05)
(-0.00765973 0 5.84289e-05)
(-0.00773041 0 4.90026e-05)
(-0.00779658 0 5.3874e-05)
(-0.00786423 0 5.04986e-05)
(-0.00792401 0 4.52367e-05)
(-0.0079791 0 4.00376e-05)
(-0.00802634 0 3.31821e-05)
(-0.0080713 0 3.5363e-05)
(-0.00811635 0 3.26584e-05)
(-0.00815646 0 2.94484e-05)
(-0.00819216 0 2.53525e-05)
(-0.00822328 0 2.25711e-05)
(-0.00825142 0 2.06851e-05)
(-0.00827624 0 1.76759e-05)
(-0.00829725 0 1.46215e-05)
(-0.00831443 0 1.16789e-05)
(-0.00832776 0 8.31482e-06)
(-0.0083363 0 4.2287e-06)
(-0.00834069 0 1.75193e-06)
(-0.00834229 0 -5.4786e-07)
(-0.00834051 0 -3.26193e-06)
(-0.00833552 0 -5.97097e-06)
(-0.00832679 0 -9.36375e-06)
(-0.00831364 0 -1.30367e-05)
(-0.00829656 0 -1.57598e-05)
(-0.00827666 0 -1.76929e-05)
(-0.00825412 0 -2.01191e-05)
(-0.00822814 0 -2.30945e-05)
(-0.00819861 0 -2.58408e-05)
(-0.00816611 0 -2.78904e-05)
(-0.00813114 0 -2.98496e-05)
(-0.00809343 0 -3.22143e-05)
(-0.00805272 0 -3.45519e-05)
(-0.00800935 0 -3.64813e-05)
(-0.00796363 0 -3.82506e-05)
(-0.00791564 0 -3.9989e-05)
(-0.00786545 0 -4.17144e-05)
(-0.00781304 0 -4.34272e-05)
(-0.0077584 0 -4.51026e-05)
(-0.00770169 0 -4.66025e-05)
(-0.00764318 0 -4.79687e-05)
(-0.00758283 0 -4.94391e-05)
(-0.00752051 0 -5.09382e-05)
(-0.00745631 0 -5.22958e-05)
(-0.00739047 0 -5.35099e-05)
(-0.00732304 0 -5.47364e-05)
(-0.00725396 0 -5.59477e-05)
(-0.00718334 0 -5.70514e-05)
(-0.00711133 0 -5.80683e-05)
(-0.00703798 0 -5.90718e-05)
(-0.00696332 0 -6.00198e-05)
(-0.00688743 0 -6.09171e-05)
(-0.00681043 0 -6.17509e-05)
(-0.00673237 0 -6.25896e-05)
(-0.00665327 0 -6.33745e-05)
(-0.00657319 0 -6.4122e-05)
(-0.00649221 0 -6.47697e-05)
(-0.00641044 0 -6.53141e-05)
(-0.00632796 0 -6.58102e-05)
(-0.0062448 0 -6.6279e-05)
(-0.00616105 0 -6.66372e-05)
(-0.00607685 0 -6.69505e-05)
(-0.00599223 0 -6.72475e-05)
(-0.00590726 0 -6.74985e-05)
(-0.00582199 0 -6.76901e-05)
(-0.00573651 0 -6.78054e-05)
(-0.00565091 0 -6.78439e-05)
(-0.00556523 0 -6.78314e-05)
(-0.00547955 0 -6.77627e-05)
(-0.00539395 0 -6.76464e-05)
(-0.00530847 0 -6.75193e-05)
(-0.00522314 0 -6.73679e-05)
(-0.005138 0 -6.71782e-05)
(-0.0050531 0 -6.69417e-05)
(-0.00496851 0 -6.66549e-05)
(-0.00488428 0 -6.63157e-05)
(-0.00480049 0 -6.59362e-05)
(-0.00471718 0 -6.55402e-05)
(-0.00463439 0 -6.51457e-05)
(-0.00455212 0 -6.47518e-05)
(-0.00447038 0 -6.43554e-05)
(-0.00438916 0 -6.39308e-05)
(-0.00430852 0 -6.34168e-05)
(-0.00422856 0 -6.28121e-05)
(-0.00414932 0 -6.21757e-05)
(-0.00407084 0 -6.14951e-05)
(-0.00399318 0 -6.07741e-05)
(-0.00391639 0 -6.00411e-05)
(-0.00384047 0 -5.93601e-05)
(-0.00376538 0 -5.87179e-05)
(-0.0036911 0 -5.80692e-05)
(-0.00361767 0 -5.73891e-05)
(-0.0035451 0 -5.66942e-05)
(-0.00347339 0 -5.59859e-05)
(-0.00340252 0 -5.52412e-05)
(-0.00333255 0 -5.44564e-05)
(-0.00326351 0 -5.36708e-05)
(-0.00319538 0 -5.29229e-05)
(-0.00312817 0 -5.22184e-05)
(-0.00306185 0 -5.15462e-05)
(-0.00299645 0 -5.08848e-05)
(-0.00293196 0 -5.02244e-05)
(-0.00286835 0 -4.95533e-05)
(-0.00280563 0 -4.88501e-05)
(-0.00274378 0 -4.81144e-05)
(-0.0026828 0 -4.73485e-05)
(-0.00262272 0 -4.65579e-05)
(-0.00256357 0 -4.57457e-05)
(-0.00250539 0 -4.49668e-05)
(-0.00244819 0 -4.42465e-05)
(-0.00239192 0 -4.35996e-05)
(-0.00233651 0 -4.30033e-05)
(-0.00228194 0 -4.23997e-05)
(-0.00222817 0 -4.17719e-05)
(-0.00217522 0 -4.10978e-05)
(-0.00212313 0 -4.03876e-05)
(-0.00207193 0 -3.9668e-05)
(-0.00202163 0 -3.89655e-05)
(-0.00197223 0 -3.82856e-05)
(-0.00192372 0 -3.76083e-05)
(-0.0018761 0 -3.69223e-05)
(-0.00182936 0 -3.62393e-05)
(-0.00178349 0 -3.55753e-05)
(-0.00173845 0 -3.49256e-05)
(-0.00169422 0 -3.42682e-05)
(-0.00165082 0 -3.36013e-05)
(-0.00160824 0 -3.29555e-05)
(-0.00156645 0 -3.2373e-05)
(-0.00152538 0 -3.18412e-05)
(-0.00148501 0 -3.1319e-05)
(-0.00144534 0 -3.07641e-05)
(-0.00140641 0 -3.01678e-05)
(-0.00136824 0 -2.95466e-05)
(-0.00133086 0 -2.89169e-05)
(-0.00129424 0 -2.829e-05)
(-0.00125839 0 -2.7676e-05)
(-0.0012233 0 -2.70827e-05)
(-0.00118896 0 -2.65032e-05)
(-0.00115535 0 -2.59284e-05)
(-0.00112247 0 -2.53628e-05)
(-0.00109029 0 -2.48206e-05)
(-0.00105878 0 -2.43021e-05)
(-0.00102794 0 -2.37913e-05)
(-0.000997772 0 -2.32769e-05)
(-0.000968278 0 -2.27605e-05)
(-0.000939463 0 -2.22453e-05)
(-0.000911322 0 -2.1728e-05)
(-0.000883857 0 -2.12042e-05)
(-0.000857069 0 -2.06738e-05)
(-0.000830952 0 -2.01361e-05)
(-0.000805501 0 -1.9591e-05)
(-0.000780711 0 -1.90493e-05)
(-0.000756567 0 -1.85342e-05)
(-0.000733031 0 -1.80646e-05)
(-0.000710054 0 -1.76397e-05)
(-0.000687598 0 -1.72451e-05)
(-0.00066564 0 -1.68688e-05)
(-0.000644165 0 -1.65077e-05)
(-0.000623157 0 -1.61624e-05)
(-0.000602598 0 -1.58287e-05)
(-0.00058248 0 -1.54982e-05)
(-0.000562805 0 -1.51617e-05)
(-0.000543581 0 -1.48155e-05)
(-0.000524819 0 -1.44584e-05)
(-0.000506534 0 -1.40828e-05)
(-0.000488742 0 -1.36857e-05)
(-0.00047146 0 -1.32736e-05)
(-0.000454695 0 -1.286e-05)
(-0.000438436 0 -1.24572e-05)
(-0.00042267 0 -1.20697e-05)
(-0.00040738 0 -1.16952e-05)
(-0.000392553 0 -1.13313e-05)
(-0.000378173 0 -1.09817e-05)
(-0.00036422 0 -1.0653e-05)
(-0.000350664 0 -1.03512e-05)
(-0.000337473 0 -1.00784e-05)
(-0.000324619 0 -9.83022e-06)
(-0.000312079 0 -9.59877e-06)
(-0.000299839 0 -9.37683e-06)
(-0.000287892 0 -9.15891e-06)
(-0.000276236 0 -8.94056e-06)
(-0.000264873 0 -8.71799e-06)
(-0.000253808 0 -8.48927e-06)
(-0.000243044 0 -8.25405e-06)
(-0.000232588 0 -8.01517e-06)
(-0.000222439 0 -7.77734e-06)
(-0.000212593 0 -7.54543e-06)
(-0.000203041 0 -7.32256e-06)
(-0.000193771 0 -7.10923e-06)
(-0.000184769 0 -6.90356e-06)
(-0.000176026 0 -6.70301e-06)
(-0.000167535 0 -6.50734e-06)
(-0.000159292 0 -6.31949e-06)
(-0.000151292 0 -6.14232e-06)
(-0.000143528 0 -5.9724e-06)
(-0.000135996 0 -5.79746e-06)
(-0.000128702 0 -5.60156e-06)
(-0.000121666 0 -5.37926e-06)
(-0.000114912 0 -5.14525e-06)
(-0.000108444 0 -4.92303e-06)
(-0.000102241 0 -4.72491e-06)
(-9.6273e-05 0 -4.54413e-06)
(-9.0521e-05 0 -4.37132e-06)
(-8.49747e-05 0 -4.21325e-06)
(-7.96158e-05 0 -4.08731e-06)
(-7.44081e-05 0 -3.99617e-06)
(-6.93226e-05 0 -3.9165e-06)
(-6.43612e-05 0 -3.8159e-06)
(-5.95561e-05 0 -3.68786e-06)
(-5.4934e-05 0 -3.55085e-06)
(-5.04953e-05 0 -3.41491e-06)
(-4.62362e-05 0 -3.26891e-06)
(-4.21678e-05 0 -3.1021e-06)
(-3.83085e-05 0 -2.92624e-06)
(-3.46557e-05 0 -2.76654e-06)
(-3.11818e-05 0 -2.63407e-06)
(-2.78584e-05 0 -2.52014e-06)
(-2.46718e-05 0 -2.4177e-06)
(-2.16103e-05 0 -2.33161e-06)
(-1.86547e-05 0 -2.26212e-06)
(-1.57932e-05 0 -2.19541e-06)
(-1.30331e-05 0 -2.11748e-06)
(-1.03884e-05 0 -2.0259e-06)
(-7.86853e-06 0 -1.92129e-06)
(-5.4845e-06 0 -1.80148e-06)
(-3.25128e-06 0 -1.67184e-06)
(-1.17122e-06 0 -1.54962e-06)
(7.76542e-07 0 -1.44894e-06)
(2.62123e-06 0 -1.36897e-06)
(4.38201e-06 0 -1.30408e-06)
(6.06973e-06 0 -1.25549e-06)
(7.69712e-06 0 -1.22356e-06)
(9.27421e-06 0 -1.19546e-06)
(1.07946e-05 0 -1.15121e-06)
(1.22351e-05 0 -1.08181e-06)
(1.35732e-05 0 -9.95067e-07)
(1.48009e-05 0 -9.05377e-07)
(1.59234e-05 0 -8.2097e-07)
(1.69521e-05 0 -7.45724e-07)
(1.7902e-05 0 -6.85735e-07)
(1.87943e-05 0 -6.4813e-07)
(1.96528e-05 0 -6.32333e-07)
(2.04933e-05 0 -6.26124e-07)
(2.13153e-05 0 -6.13619e-07)
(2.21051e-05 0 -5.86912e-07)
(2.28478e-05 0 -5.49697e-07)
(2.35381e-05 0 -5.09608e-07)
(2.41789e-05 0 -4.68499e-07)
(2.47712e-05 0 -4.25008e-07)
(2.53144e-05 0 -3.86288e-07)
(2.58202e-05 0 -3.66944e-07)
(2.63143e-05 0 -3.72062e-07)
(2.68155e-05 0 -3.88166e-07)
(2.73195e-05 0 -3.96581e-07)
(2.78055e-05 0 -3.82964e-07)
(2.8248e-05 0 -3.41807e-07)
(2.86257e-05 0 -2.79226e-07)
(2.89313e-05 0 -2.13546e-07)
(2.91774e-05 0 -1.63398e-07)
(2.93881e-05 0 -1.35752e-07)
(2.95843e-05 0 -1.28388e-07)
(2.97783e-05 0 -1.33422e-07)
(2.99703e-05 0 -1.36442e-07)
(3.01443e-05 0 -1.22497e-07)
(3.02754e-05 0 -8.55024e-08)
(3.03435e-05 0 -2.92876e-08)
(3.03389e-05 0 3.68878e-08)
(3.02657e-05 0 9.80698e-08)
(3.01435e-05 0 1.34584e-07)
(3.00056e-05 0 1.33606e-07)
(2.98851e-05 0 1.06203e-07)
(2.97903e-05 0 8.12658e-08)
(2.97012e-05 0 7.90931e-08)
(2.95887e-05 0 9.78392e-08)
(2.94445e-05 0 1.23911e-07)
(2.92751e-05 0 1.5543e-07)
(2.90764e-05 0 1.82636e-07)
(2.8862e-05 0 1.81487e-07)
(2.86603e-05 0 1.58704e-07)
(2.84723e-05 0 1.44837e-07)
(2.82764e-05 0 1.57248e-07)
(2.805e-05 0 1.90624e-07)
(2.77852e-05 0 2.25719e-07)
(2.7495e-05 0 2.43125e-07)
(2.72098e-05 0 2.35966e-07)
(2.69438e-05 0 2.24269e-07)
(2.66789e-05 0 2.09341e-07)
(2.64221e-05 0 1.99464e-07)
(2.61603e-05 0 2.07715e-07)
(2.58749e-05 0 2.31152e-07)
(2.55829e-05 0 2.25873e-07)
(2.53201e-05 0 2.34863e-07)
(2.50275e-05 0 2.48194e-07)
(2.46997e-05 0 2.62441e-07)
(2.43334e-05 0 2.52747e-07)
(2.38356e-05 0 3.33488e-07)
(2.3452e-05 0 3.24407e-07)
(2.32229e-05 0 5.79432e-07)
(2.2763e-05 0 4.61819e-07)
(2.28145e-05 0 9.20849e-08)
(2.24269e-05 0 -2.48148e-07)
(2.3209e-05 0 -3.33609e-07)
(2.28787e-05 0 -7.2398e-08)
(2.31251e-05 0 -1.29386e-07)
(2.30944e-05 0 -7.2169e-08)
(2.3144e-05 0 -3.57711e-08)
(2.30968e-05 0 6.09158e-08)
(2.29378e-05 0 1.12863e-07)
(2.28221e-05 0 1.08525e-07)
(2.26673e-05 0 1.27456e-07)
(2.25392e-05 0 3.13501e-08)
(2.25393e-05 0 9.13617e-08)
(2.22649e-05 0 2.17559e-07)
(2.19663e-05 0 2.30221e-07)
(2.16774e-05 0 2.31075e-07)
(2.14616e-05 0 2.23572e-07)
(2.12891e-05 0 2.58118e-07)
(2.10335e-05 0 1.7417e-07)
(2.09059e-05 0 4.40822e-08)
(2.0917e-05 0 -5.05803e-08)
(2.09858e-05 0 -1.30048e-07)
(2.09792e-05 0 -3.35443e-09)
(2.09138e-05 0 -2.0458e-08)
(2.09509e-05 0 1.21318e-07)
(2.07093e-05 0 1.40728e-07)
(2.05801e-05 0 2.85558e-07)
(2.01851e-05 0 1.68085e-07)
(2.02228e-05 0 -6.25136e-08)
(2.00444e-05 0 2.62518e-07)
(1.97053e-05 0 6.75407e-09)
(1.99592e-05 0 9.20969e-08)
(1.96163e-05 0 2.6605e-07)
(1.96409e-05 0 1.23786e-07)
(1.90076e-05 0 -1.93097e-07)
(1.81058e-05 0 1.05157e-07)
(1.80065e-05 0 4.17654e-07)
(1.73704e-05 0 2.42596e-06)
(1.66527e-05 0 1.15417e-06)
(1.92348e-05 0 4.50133e-07)
(1.72268e-05 0 -2.72183e-06)
(2.91623e-05 0 -5.28567e-06)
(2.79946e-05 0 -2.05896e-06)
(3.02184e-05 0 -1.37677e-06)
(3.12016e-05 0 -6.46834e-07)
(3.1571e-05 0 -2.71158e-07)
(3.16288e-05 0 -6.16354e-08)
(3.14459e-05 0 1.52571e-07)
(3.10087e-05 0 4.13681e-07)
(3.03524e-05 0 6.16089e-07)
(2.95494e-05 0 7.20187e-07)
(2.86458e-05 0 7.74919e-07)
(2.76875e-05 0 7.70601e-07)
(2.67774e-05 0 6.79315e-07)
(2.59817e-05 0 5.61252e-07)
(2.52629e-05 0 5.13923e-07)
(2.45462e-05 0 5.43075e-07)
(2.37975e-05 0 5.75973e-07)
(2.30531e-05 0 5.55805e-07)
(2.23761e-05 0 4.87289e-07)
(2.18019e-05 0 4.13493e-07)
(2.13012e-05 0 3.67807e-07)
(2.08158e-05 0 3.67436e-07)
(2.02992e-05 0 4.09593e-07)
(1.97083e-05 0 4.77685e-07)
(1.90274e-05 0 5.53163e-07)
(1.82722e-05 0 6.14217e-07)
(1.74698e-05 0 6.50756e-07)
(1.66569e-05 0 6.60187e-07)
(1.58703e-05 0 6.40916e-07)
(1.51502e-05 0 5.78882e-07)
(1.4545e-05 0 4.70547e-07)
(1.41047e-05 0 3.0199e-07)
(1.3895e-05 0 8.89474e-08)
(1.39381e-05 0 -1.50778e-07)
(1.4234e-05 0 -3.73183e-07)
(1.47537e-05 0 -5.49229e-07)
(1.54255e-05 0 -6.58416e-07)
(1.61903e-05 0 -7.02309e-07)
(1.69891e-05 0 -6.9622e-07)
(1.77794e-05 0 -6.58332e-07)
(1.85266e-05 0 -5.99758e-07)
(1.91945e-05 0 -5.15771e-07)
(1.97447e-05 0 -3.98256e-07)
(2.0125e-05 0 -2.44377e-07)
(2.03041e-05 0 -7.83037e-08)
(2.03053e-05 0 6.35804e-08)
(2.01929e-05 0 1.49536e-07)
(2.00491e-05 0 1.52908e-07)
(1.99541e-05 0 7.48069e-08)
(1.99814e-05 0 -7.11339e-08)
(2.01947e-05 0 -2.57905e-07)
(2.06239e-05 0 -4.47975e-07)
(2.12241e-05 0 -5.63943e-07)
(2.18518e-05 0 -5.08475e-07)
(2.23095e-05 0 -2.55773e-07)
(2.24289e-05 0 5.9427e-08)
(2.22882e-05 0 2.35163e-07)
(2.21822e-05 0 6.54062e-08)
(2.24147e-05 0 -3.65721e-07)
(2.29485e-05 0 -5.94163e-07)
(2.33272e-05 0 -3.07865e-07)
(2.30653e-05 0 4.68819e-07)
(2.20771e-05 0 1.06266e-06)
(2.09404e-05 0 1.00549e-06)
(2.03505e-05 0 3.27704e-07)
(2.02512e-05 0 -3.19965e-08)
(1.99009e-05 0 4.2151e-07)
(1.8857e-05 0 1.10738e-06)
(1.76016e-05 0 1.02396e-06)
(1.71773e-05 0 1.37276e-08)
(1.75675e-05 0 -4.99133e-07)
(1.76799e-05 0 -1.111e-08)
(1.73272e-05 0 3.21993e-07)
(1.74776e-05 0 -5.52675e-07)
(1.84751e-05 0 -1.3432e-06)
(1.90828e-05 0 -3.72623e-07)
(1.863e-05 0 5.95327e-07)
(1.80852e-05 0 2.82701e-07)
(1.72089e-05 0 9.65921e-07)
(1.77113e-05 0 1.14123e-06)
(9.52951e-06 0 1.9274e-06)
(-0.0269073 0 -0.00435115)
(-0.0414741 0 -0.00297449)
(-0.0394566 0 -0.00295952)
(-0.0375691 0 -0.00310749)
(-0.0363923 0 -0.00287287)
(-0.0351909 0 -0.00273069)
(-0.0339905 0 -0.00271592)
(-0.0328317 0 -0.00268066)
(-0.0316857 0 -0.0026602)
(-0.0305589 0 -0.00265239)
(-0.0294615 0 -0.00259507)
(-0.0283964 0 -0.00250955)
(-0.0273632 0 -0.00241943)
(-0.0263613 0 -0.00229663)
(-0.0253883 0 -0.00225998)
(-0.0244481 0 -0.00222643)
(-0.0235388 0 -0.00217579)
(-0.0226508 0 -0.00211606)
(-0.0217884 0 -0.00204571)
(-0.0209613 0 -0.00193346)
(-0.0201612 0 -0.00174453)
(-0.0193833 0 -0.00171368)
(-0.0186404 0 -0.00175242)
(-0.0179315 0 -0.00175785)
(-0.0172431 0 -0.00157361)
(-0.0165751 0 -0.00146369)
(-0.0159299 0 -0.00138929)
(-0.0153324 0 -0.00132815)
(-0.0147708 0 -0.00134057)
(-0.0142416 0 -0.00111376)
(-0.01383 0 -0.000904039)
(-0.013504 0 -0.000901008)
(-0.0131524 0 -0.00111213)
(-0.0126764 0 -0.00105544)
(-0.0121422 0 -0.000860012)
(-0.0117596 0 -0.000572803)
(-0.0114822 0 -0.000669613)
(-0.0112524 0 -0.000867112)
(-0.0109867 0 -0.000568741)
(-0.0106601 0 -0.0005051)
(-0.0104069 0 -0.000250764)
(-0.0102559 0 -0.000158224)
(-0.0100958 0 -0.000462539)
(-0.00989675 0 -0.00058698)
(-0.00968056 0 -0.000294288)
(-0.00954125 0 -5.16563e-05)
(-0.0094664 0 -0.000249574)
(-0.00940612 0 -0.000292615)
(-0.00936628 0 -0.000140802)
(-0.00934932 0 5.67205e-06)
(-0.00933593 0 -6.84517e-05)
(-0.00931738 0 -0.000156539)
(-0.00930305 0 -0.00014903)
(-0.00928924 0 -0.000121344)
(-0.00928026 0 -1.8949e-05)
(-0.00929396 0 5.22749e-05)
(-0.00931918 0 2.67665e-05)
(-0.00934444 0 8.93343e-05)
(-0.00941329 0 0.000298263)
(-0.00953069 0 0.00033207)
(-0.00963543 0 0.000194098)
(-0.00970438 0 0.000143385)
(-0.00983042 0 0.000391246)
(-0.0100259 0 0.000422523)
(-0.0102182 0 0.000374753)
(-0.0103555 0 0.000205903)
(-0.0104448 0 0.000126978)
(-0.0105212 0 0.00015143)
(-0.0105795 0 0.000101892)
(-0.0106503 0 5.50788e-05)
(-0.0107452 0 5.40937e-05)
(-0.0108081 0 -8.22205e-05)
(-0.0108089 0 -0.000277524)
(-0.0107898 0 -0.000652941)
(-0.0107587 0 -0.000898583)
(-0.0107176 0 -0.00146427)
(-0.0107705 0 -0.00239487)
(-0.0107331 0 -0.00257697)
(-0.00996056 0 -0.00241307)
(-0.0093045 0 -0.00150842)
(-0.00809176 0 -0.00089773)
(-0.00826228 0 -0.000432373)
(-0.00634106 0 0.000617843)
(-0.00626957 0 0.000965467)
(-0.00586132 0 0.00102229)
(-0.00579608 0 0.000503264)
(-0.00604169 0 0.000161935)
(-0.00628631 0 0.00018728)
(-0.00681632 0 0.000180401)
(-0.00702732 0 0.000332099)
(-0.00710073 0 0.000354958)
(-0.00718728 0 0.000363378)
(-0.00727312 0 0.000211136)
(-0.00739997 0 0.0001674)
(-0.00753726 0 7.79776e-05)
(-0.00763779 0 -2.36657e-05)
(-0.00773035 0 -0.000232514)
(-0.00782115 0 -0.000467117)
(-0.00793428 0 -0.000786577)
(-0.00814236 0 -0.000729904)
(-0.00785143 0 -0.000345789)
(-0.00783724 0 -0.000180574)
(-0.00676936 0 5.57904e-05)
(-0.0069086 0 0.000286894)
(-0.0066846 0 0.000604127)
(-0.00682229 0 0.00060043)
(-0.00687658 0 0.000276803)
(-0.00696806 0 0.000213743)
(-0.00712017 0 0.000189341)
(-0.00732782 0 0.000209654)
(-0.00744715 0 0.00019182)
(-0.00752024 0 0.000188583)
(-0.00761365 0 0.000122604)
(-0.00767733 0 1.18185e-05)
(-0.00776399 0 -0.00013022)
(-0.00784226 0 -0.00032792)
(-0.00795453 0 -0.000653187)
(-0.0081349 0 -0.000610517)
(-0.00794148 0 -0.000276193)
(-0.00797992 0 -0.00019754)
(-0.00696603 0 1.86393e-05)
(-0.00711096 0 0.000209837)
(-0.0069398 0 0.000508823)
(-0.00706672 0 0.000494725)
(-0.0071284 0 0.000236212)
(-0.00724783 0 0.000219431)
(-0.00741462 0 0.00019854)
(-0.00751411 0 0.000200887)
(-0.00758367 0 0.000216219)
(-0.00766736 0 0.000197927)
(-0.00773728 0 0.000158102)
(-0.00780756 0 0.00015891)
(-0.00787636 0 0.000144918)
(-0.00793492 0 0.000132126)
(-0.00798702 0 0.000120575)
(-0.0080362 0 0.000106506)
(-0.00808304 0 0.000108042)
(-0.00812609 0 9.84243e-05)
(-0.00816533 0 8.89799e-05)
(-0.00820143 0 7.77233e-05)
(-0.00823369 0 6.92732e-05)
(-0.00826183 0 6.20381e-05)
(-0.00828525 0 5.2496e-05)
(-0.0083055 0 4.43126e-05)
(-0.00832243 0 3.50174e-05)
(-0.00833462 0 2.49137e-05)
(-0.00834292 0 1.37304e-05)
(-0.00834773 0 5.89928e-06)
(-0.00834896 0 -1.81355e-06)
(-0.0083466 0 -1.02387e-05)
(-0.00834062 0 -1.86533e-05)
(-0.00833095 0 -2.83476e-05)
(-0.00831774 0 -3.85623e-05)
(-0.00830112 0 -4.68508e-05)
(-0.00828108 0 -5.35518e-05)
(-0.00825776 0 -6.09995e-05)
(-0.00823135 0 -6.94032e-05)
(-0.00820194 0 -7.7262e-05)
(-0.00816958 0 -8.37265e-05)
(-0.00813432 0 -8.99254e-05)
(-0.00809636 0 -9.66911e-05)
(-0.00805588 0 -0.000103307)
(-0.00801286 0 -0.000109144)
(-0.0079672 0 -0.000114634)
(-0.00791919 0 -0.000119784)
(-0.0078691 0 -0.000124843)
(-0.00781668 0 -0.000130132)
(-0.0077618 0 -0.000135166)
(-0.00770491 0 -0.000139564)
(-0.00764637 0 -0.000143555)
(-0.00758592 0 -0.000148051)
(-0.00752334 0 -0.000152501)
(-0.00745896 0 -0.000156455)
(-0.00739303 0 -0.000160085)
(-0.00732538 0 -0.000163873)
(-0.007256 0 -0.000167513)
(-0.00718508 0 -0.000170846)
(-0.00711279 0 -0.000173928)
(-0.00703914 0 -0.000177005)
(-0.00696412 0 -0.000179941)
(-0.00688784 0 -0.00018265)
(-0.00681045 0 -0.000185135)
(-0.00673199 0 -0.000187552)
(-0.00665254 0 -0.000189779)
(-0.00657218 0 -0.000191869)
(-0.006491 0 -0.000193745)
(-0.00640903 0 -0.000195408)
(-0.00632633 0 -0.000196945)
(-0.00624297 0 -0.00019836)
(-0.00615906 0 -0.000199469)
(-0.00607471 0 -0.000200385)
(-0.00598998 0 -0.000201162)
(-0.00590496 0 -0.000201781)
(-0.0058197 0 -0.000202255)
(-0.00573424 0 -0.000202562)
(-0.00564861 0 -0.000202709)
(-0.00556288 0 -0.00020272)
(-0.00547712 0 -0.000202552)
(-0.00539142 0 -0.000202239)
(-0.00530585 0 -0.000201869)
(-0.00522045 0 -0.000201428)
(-0.00513524 0 -0.000200879)
(-0.00505026 0 -0.000200206)
(-0.00496556 0 -0.000199391)
(-0.00488118 0 -0.000198409)
(-0.00479722 0 -0.00019726)
(-0.00471377 0 -0.000195992)
(-0.00463092 0 -0.000194665)
(-0.00454871 0 -0.000193326)
(-0.00446714 0 -0.000191984)
(-0.0043862 0 -0.000190591)
(-0.00430589 0 -0.00018905)
(-0.00422621 0 -0.000187345)
(-0.00414715 0 -0.000185583)
(-0.00406875 0 -0.000183709)
(-0.00399104 0 -0.000181737)
(-0.00391408 0 -0.000179692)
(-0.00383793 0 -0.000177673)
(-0.00376264 0 -0.000175658)
(-0.00368826 0 -0.000173567)
(-0.00361482 0 -0.000171383)
(-0.00354233 0 -0.00016917)
(-0.00347075 0 -0.000166957)
(-0.00340007 0 -0.000164731)
(-0.00333025 0 -0.000162483)
(-0.00326126 0 -0.000160301)
(-0.00319311 0 -0.000158196)
(-0.00312578 0 -0.000156164)
(-0.00305931 0 -0.000154126)
(-0.00299378 0 -0.000152008)
(-0.00292923 0 -0.000149836)
(-0.00286568 0 -0.000147649)
(-0.00280312 0 -0.000145443)
(-0.00274152 0 -0.000143262)
(-0.00268079 0 -0.000141164)
(-0.00262084 0 -0.000139066)
(-0.00256168 0 -0.00013693)
(-0.00250333 0 -0.000134781)
(-0.00244587 0 -0.000132603)
(-0.00238936 0 -0.000130487)
(-0.00233383 0 -0.00012842)
(-0.00227927 0 -0.000126386)
(-0.00222563 0 -0.000124389)
(-0.00217287 0 -0.000122386)
(-0.00212095 0 -0.000120363)
(-0.00206987 0 -0.000118317)
(-0.00201965 0 -0.000116285)
(-0.00197028 0 -0.000114271)
(-0.00192177 0 -0.000112244)
(-0.0018741 0 -0.000110196)
(-0.00182727 0 -0.000108149)
(-0.00178127 0 -0.000106148)
(-0.00173609 0 -0.000104197)
(-0.00169172 0 -0.00010226)
(-0.00164816 0 -0.00010032)
(-0.00160543 0 -9.84152e-05)
(-0.00156354 0 -9.6622e-05)
(-0.00152249 0 -9.4927e-05)
(-0.00148225 0 -9.32594e-05)
(-0.00144277 0 -9.15381e-05)
(-0.00140404 0 -8.97485e-05)
(-0.00136606 0 -8.79301e-05)
(-0.00132881 0 -8.61123e-05)
(-0.00129227 0 -8.43037e-05)
(-0.00125647 0 -8.2514e-05)
(-0.0012214 0 -8.0764e-05)
(-0.00118707 0 -7.9055e-05)
(-0.00115345 0 -7.73718e-05)
(-0.00112054 0 -7.5714e-05)
(-0.00108834 0 -7.40969e-05)
(-0.00105685 0 -7.25142e-05)
(-0.00102606 0 -7.09353e-05)
(-0.000995965 0 -6.93439e-05)
(-0.000966572 0 -6.77533e-05)
(-0.000937867 0 -6.61773e-05)
(-0.000909839 0 -6.46094e-05)
(-0.000882477 0 -6.30389e-05)
(-0.000855769 0 -6.14709e-05)
(-0.000829697 0 -5.9911e-05)
(-0.00080424 0 -5.83609e-05)
(-0.000779387 0 -5.68332e-05)
(-0.000755132 0 -5.53635e-05)
(-0.000731463 0 -5.39874e-05)
(-0.000708362 0 -5.27094e-05)
(-0.000685807 0 -5.15062e-05)
(-0.000663782 0 -5.0353e-05)
(-0.000642276 0 -4.92411e-05)
(-0.000621276 0 -4.81699e-05)
(-0.000600768 0 -4.71298e-05)
(-0.000580744 0 -4.61006e-05)
(-0.000561201 0 -4.50611e-05)
(-0.000542138 0 -4.39993e-05)
(-0.000523555 0 -4.29101e-05)
(-0.000505448 0 -4.17852e-05)
(-0.000487812 0 -4.06243e-05)
(-0.000470646 0 -3.94409e-05)
(-0.000453947 0 -3.82592e-05)
(-0.000437712 0 -3.71005e-05)
(-0.000421936 0 -3.59744e-05)
(-0.000406607 0 -3.48812e-05)
(-0.000391714 0 -3.38228e-05)
(-0.00037724 0 -3.28087e-05)
(-0.000363171 0 -3.18527e-05)
(-0.000349488 0 -3.09652e-05)
(-0.000336175 0 -3.01455e-05)
(-0.000323218 0 -2.93822e-05)
(-0.000310603 0 -2.86589e-05)
(-0.000298321 0 -2.79605e-05)
(-0.000286366 0 -2.72749e-05)
(-0.000274732 0 -2.65932e-05)
(-0.000263415 0 -2.59084e-05)
(-0.00025241 0 -2.52172e-05)
(-0.000241711 0 -2.45195e-05)
(-0.000231313 0 -2.38197e-05)
(-0.000221212 0 -2.3125e-05)
(-0.000211402 0 -2.24442e-05)
(-0.000201878 0 -2.17856e-05)
(-0.000192633 0 -2.11544e-05)
(-0.000183657 0 -2.05497e-05)
(-0.000174941 0 -1.99636e-05)
(-0.000166478 0 -1.93855e-05)
(-0.000158269 0 -1.88102e-05)
(-0.000150322 0 -1.82404e-05)
(-0.000142641 0 -1.76805e-05)
(-0.000135224 0 -1.71227e-05)
(-0.000128059 0 -1.65434e-05)
(-0.000121136 0 -1.59223e-05)
(-0.000114453 0 -1.52714e-05)
(-0.000108013 0 -1.46345e-05)
(-0.000101814 0 -1.40541e-05)
(-9.58354e-05 0 -1.35361e-05)
(-9.00563e-05 0 -1.3058e-05)
(-8.4467e-05 0 -1.26106e-05)
(-7.90703e-05 0 -1.2216e-05)
(-7.38635e-05 0 -1.18896e-05)
(-6.88319e-05 0 -1.15973e-05)
(-6.39641e-05 0 -1.12698e-05)
(-5.92669e-05 0 -1.0876e-05)
(-5.47575e-05 0 -1.0448e-05)
(-5.04399e-05 0 -1.00242e-05)
(-4.62999e-05 0 -9.59908e-06)
(-4.23234e-05 0 -9.14735e-06)
(-3.85097e-05 0 -8.67844e-06)
(-3.48619e-05 0 -8.23903e-06)
(-3.13722e-05 0 -7.85911e-06)
(-2.80274e-05 0 -7.52546e-06)
(-2.48217e-05 0 -7.219e-06)
(-2.17539e-05 0 -6.94469e-06)
(-1.88184e-05 0 -6.703e-06)
(-1.60084e-05 0 -6.46609e-06)
(-1.33234e-05 0 -6.20663e-06)
(-1.07634e-05 0 -5.92397e-06)
(-8.32253e-06 0 -5.62212e-06)
(-5.9958e-06 0 -5.29377e-06)
(-3.78475e-06 0 -4.94703e-06)
(-1.68809e-06 0 -4.62188e-06)
(3.07327e-07 0 -4.35507e-06)
(2.21886e-06 0 -4.14472e-06)
(4.05355e-06 0 -3.96682e-06)
(5.8062e-06 0 -3.8097e-06)
(7.47052e-06 0 -3.67182e-06)
(9.04585e-06 0 -3.53577e-06)
(1.05332e-05 0 -3.36957e-06)
(1.1931e-05 0 -3.15677e-06)
(1.32376e-05 0 -2.9124e-06)
(1.44572e-05 0 -2.6667e-06)
(1.55998e-05 0 -2.44166e-06)
(1.66758e-05 0 -2.24856e-06)
(1.76926e-05 0 -2.0969e-06)
(1.86561e-05 0 -1.99345e-06)
(1.95716e-05 0 -1.93049e-06)
(2.0444e-05 0 -1.88198e-06)
(2.12745e-05 0 -1.81725e-06)
(2.2059e-05 0 -1.72144e-06)
(2.27913e-05 0 -1.60427e-06)
(2.34722e-05 0 -1.48639e-06)
(2.41127e-05 0 -1.37623e-06)
(2.47238e-05 0 -1.26963e-06)
(2.53064e-05 0 -1.17593e-06)
(2.58561e-05 0 -1.12203e-06)
(2.63734e-05 0 -1.11452e-06)
(2.68591e-05 0 -1.11782e-06)
(2.73063e-05 0 -1.08868e-06)
(2.77052e-05 0 -1.00756e-06)
(2.80559e-05 0 -8.80801e-07)
(2.83665e-05 0 -7.30562e-07)
(2.86469e-05 0 -5.9192e-07)
(2.89077e-05 0 -4.95983e-07)
(2.91572e-05 0 -4.47816e-07)
(2.93943e-05 0 -4.31071e-07)
(2.96085e-05 0 -4.21274e-07)
(2.97857e-05 0 -3.88258e-07)
(2.99139e-05 0 -3.075e-07)
(2.99896e-05 0 -1.78775e-07)
(3.0019e-05 0 -2.2474e-08)
(3.00126e-05 0 1.3254e-07)
(2.99824e-05 0 2.55076e-07)
(2.99382e-05 0 3.19088e-07)
(2.98817e-05 0 3.16576e-07)
(2.98086e-05 0 2.75058e-07)
(2.97128e-05 0 2.49887e-07)
(2.95892e-05 0 2.78349e-07)
(2.94368e-05 0 3.45313e-07)
(2.92713e-05 0 4.05692e-07)
(2.91135e-05 0 4.56212e-07)
(2.89569e-05 0 4.98154e-07)
(2.87867e-05 0 5.01482e-07)
(2.85926e-05 0 4.81759e-07)
(2.83679e-05 0 4.85606e-07)
(2.81245e-05 0 5.32111e-07)
(2.7872e-05 0 6.05052e-07)
(2.7619e-05 0 6.67506e-07)
(2.73641e-05 0 6.79662e-07)
(2.71187e-05 0 6.45836e-07)
(2.68761e-05 0 6.2292e-07)
(2.66136e-05 0 6.29485e-07)
(2.63412e-05 0 6.28474e-07)
(2.60718e-05 0 6.73028e-07)
(2.57677e-05 0 6.90713e-07)
(2.54728e-05 0 6.60851e-07)
(2.51565e-05 0 6.31984e-07)
(2.47637e-05 0 7.56386e-07)
(2.44542e-05 0 8.26181e-07)
(2.42875e-05 0 1.16123e-06)
(2.39039e-05 0 1.10531e-06)
(2.39176e-05 0 6.04821e-07)
(2.35224e-05 0 3.85246e-07)
(2.44008e-05 0 2.24827e-07)
(2.40459e-05 0 1.74231e-07)
(2.41051e-05 0 -1.52806e-07)
(2.36899e-05 0 -2.05815e-07)
(2.35101e-05 0 2.41055e-08)
(2.33732e-05 0 -8.82242e-08)
(2.32355e-05 0 1.85021e-09)
(2.31226e-05 0 6.01929e-08)
(2.3004e-05 0 2.53974e-07)
(2.28469e-05 0 3.2796e-07)
(2.27158e-05 0 3.0356e-07)
(2.25428e-05 0 3.24062e-07)
(2.23784e-05 0 1.66916e-07)
(2.22715e-05 0 3.26532e-07)
(2.20525e-05 0 7.13473e-07)
(2.18295e-05 0 6.73958e-07)
(2.16891e-05 0 5.8516e-07)
(2.14859e-05 0 3.44802e-07)
(2.15878e-05 0 4.28591e-07)
(2.13666e-05 0 3.98951e-07)
(2.13124e-05 0 1.36395e-07)
(2.11523e-05 0 2.34945e-09)
(2.10911e-05 0 -7.02675e-08)
(2.08282e-05 0 2.25519e-07)
(2.06714e-05 0 -4.49131e-08)
(2.06841e-05 0 2.64442e-07)
(2.04366e-05 0 3.5976e-07)
(2.02749e-05 0 5.67028e-07)
(2.02954e-05 0 3.65964e-07)
(2.02727e-05 0 2.83645e-07)
(2.00983e-05 0 5.6376e-07)
(2.0259e-05 0 1.33204e-07)
(1.96454e-05 0 -9.97255e-08)
(1.88021e-05 0 3.89987e-07)
(1.88084e-05 0 5.23608e-07)
(1.85179e-05 0 3.08731e-06)
(1.7961e-05 0 1.42879e-06)
(2.13696e-05 0 7.61347e-07)
(1.95174e-05 0 -8.55884e-07)
(3.27189e-05 0 -4.38896e-06)
(3.2008e-05 0 -3.35002e-06)
(3.45052e-05 0 -1.05968e-05)
(3.38685e-05 0 -6.75668e-06)
(3.29784e-05 0 -3.60272e-06)
(3.29936e-05 0 -2.56921e-06)