/*--------------------------------*- C++ -*----------------------------------*\
| =========                 |                                                 |
| \\      /  F ield         | OpenFOAM: The Open Source CFD Toolbox           |
|  \\    /   O peration     | Version:  v2006                                 |
|   \\  /    A nd           | Website:  www.openfoam.com                      |
|    \\/     M anipulation  |                                                 |
\*---------------------------------------------------------------------------*/
FoamFile
{
    version     2.0;
    format      ascii;
    class       surfaceScalarField;
    location    "0.8";
    object      alphaPhi0.water;
}
// * * * * * * * * * * * * * * * * * * * * * * * * * * * * * * * * * * * * * //

dimensions      [0 3 -1 0 0 0 0];
oriented        oriented;


internalField   nonuniform List<scalar> 
65390
(
-1.50435e-05
-2.51939e-08
-1.49617e-05
-2.7117e-08
-1.48989e-05
-1.62964e-08
-1.48271e-05
-3.45113e-08
-1.47527e-05
-4.38077e-08
-1.46772e-05
-5.28833e-08
-1.45951e-05
-6.69694e-08
-1.45036e-05
-8.15422e-08
-1.44029e-05
-9.43291e-08
-1.42935e-05
-1.0627e-07
-1.41771e-05
-1.16552e-07
-1.40557e-05
-1.23801e-07
-1.3927e-05
-1.3251e-07
-1.37947e-05
-1.36944e-07
-1.36578e-05
-1.42316e-07
-1.3517e-05
-1.47318e-07
-1.33728e-05
-1.51454e-07
-1.32235e-05
-1.56801e-07
-1.30688e-05
-1.62076e-07
-1.29099e-05
-1.66467e-07
-1.27469e-05
-1.70812e-07
-1.25803e-05
-1.74829e-07
-1.24106e-05
-1.7818e-07
-1.2238e-05
-1.81036e-07
-1.20626e-05
-1.83696e-07
-1.18848e-05
-1.8562e-07
-1.1705e-05
-1.87376e-07
-1.15231e-05
-1.893e-07
-1.13396e-05
-1.90839e-07
-1.11552e-05
-1.92022e-07
-1.09696e-05
-1.93251e-07
-1.0783e-05
-1.94366e-07
-1.05952e-05
-1.95521e-07
-1.04064e-05
-1.9647e-07
-1.02169e-05
-1.96911e-07
-1.00275e-05
-1.96649e-07
-9.83795e-06
-1.96548e-07
-9.64785e-06
-1.96887e-07
-9.45821e-06
-1.96195e-07
-9.26926e-06
-1.95283e-07
-9.08108e-06
-1.94276e-07
-8.89501e-06
-1.91947e-07
-8.70935e-06
-1.91317e-07
-8.52524e-06
-1.89577e-07
-8.34315e-06
-1.87367e-07
-8.16264e-06
-1.8562e-07
-7.98302e-06
-1.8458e-07
-7.80422e-06
-1.83645e-07
-7.62614e-06
-1.82828e-07
-7.44863e-06
-1.82157e-07
-7.27204e-06
-1.81182e-07
-7.09581e-06
-1.80751e-07
-6.9201e-06
-1.80177e-07
-6.7454e-06
-1.79074e-07
-6.57197e-06
-1.77716e-07
-6.40025e-06
-1.75861e-07
-6.2305e-06
-1.73717e-07
-6.06256e-06
-1.71683e-07
-5.89662e-06
-1.69433e-07
-5.73276e-06
-1.67057e-07
-5.57078e-06
-1.64862e-07
-5.41063e-06
-1.62705e-07
-5.25216e-06
-1.6069e-07
-5.09509e-06
-1.58987e-07
-4.93901e-06
-1.57692e-07
-4.7836e-06
-1.56755e-07
-4.6283e-06
-1.56329e-07
-4.47265e-06
-1.56544e-07
-4.31596e-06
-1.57379e-07
-4.15732e-06
-1.59145e-07
-3.9951e-06
-1.62512e-07
-3.82647e-06
-1.68684e-07
-3.64629e-06
-1.79995e-07
-3.44721e-06
-1.98643e-07
-3.21527e-06
-2.31274e-07
-2.92738e-06
-2.87052e-07
-2.5385e-06
-3.8797e-07
-1.95866e-06
-5.78419e-07
-1.50224e-06
-4.55494e-07
-1.32295e-06
-1.78608e-07
-1.24066e-06
-8.16807e-08
-1.25272e-06
1.26952e-08
-1.21187e-06
-4.04156e-08
-1.18094e-06
-3.04254e-08
-1.16582e-06
-1.45014e-08
-1.12209e-06
-4.30321e-08
-1.07871e-06
-4.25353e-08
-1.04323e-06
-3.44938e-08
-1.01404e-06
-2.80702e-08
-9.83008e-07
-2.97955e-08
-9.5133e-07
-3.03577e-08
-9.20565e-07
-2.93887e-08
-8.90057e-07
-2.91149e-08
-8.59544e-07
-2.91438e-08
-8.29566e-07
-2.86661e-08
-7.99319e-07
-2.90199e-08
-7.69219e-07
-2.89739e-08
-7.39044e-07
-2.91532e-08
-7.09303e-07
-2.88162e-08
-6.80131e-07
-2.83383e-08
-6.51695e-07
-2.76792e-08
-6.24444e-07
-2.65473e-08
-5.97876e-07
-2.58978e-08
-5.71862e-07
-2.53647e-08
-5.45934e-07
-2.52827e-08
-5.20727e-07
-2.45554e-08
-4.96399e-07
-2.36617e-08
-4.72606e-07
-2.31102e-08
-4.49432e-07
-2.2473e-08
-4.26842e-07
-2.18711e-08
-4.04928e-07
-2.11805e-08
-3.83666e-07
-2.05196e-08
-3.63239e-07
-1.96801e-08
-3.4368e-07
-1.88143e-08
-3.25555e-07
-1.73858e-08
-3.08271e-07
-1.65566e-08
-2.94371e-07
-1.31875e-08
-2.80734e-07
-1.29429e-08
-2.64828e-07
-1.5233e-08
-2.47896e-07
-1.62786e-08
-2.30364e-07
-1.69003e-08
-2.14084e-07
-1.56709e-08
-1.96951e-07
-1.65451e-08
-1.80285e-07
-1.60979e-08
-1.65044e-07
-1.46951e-08
-1.501e-07
-1.4418e-08
-1.35635e-07
-1.39585e-08
-1.21724e-07
-1.34252e-08
-1.08163e-07
-1.30939e-08
-9.50592e-08
-1.26541e-08
-8.24705e-08
-1.21563e-08
-7.03203e-08
-1.17335e-08
-5.86396e-08
-1.12788e-08
-4.74283e-08
-1.08228e-08
-3.66479e-08
-1.04044e-08
-2.62827e-08
-1.00004e-08
-1.63366e-08
-9.59182e-09
-6.81663e-09
-9.17497e-09
2.30384e-09
-8.78405e-09
1.10526e-08
-8.42027e-09
1.94467e-08
-8.07299e-09
2.7486e-08
-7.72508e-09
3.51759e-08
-7.38206e-09
4.25399e-08
-7.06227e-09
4.95936e-08
-6.75765e-09
5.63338e-08
-6.44946e-09
6.27723e-08
-6.15275e-09
6.89356e-08
-5.88215e-09
7.48375e-08
-5.62491e-09
8.04787e-08
-5.36807e-09
8.58643e-08
-5.11593e-09
9.10103e-08
-4.87966e-09
9.59192e-08
-4.6456e-09
1.0059e-07
-4.41085e-09
1.05033e-07
-4.18543e-09
1.0926e-07
-3.97187e-09
1.13272e-07
-3.76067e-09
1.17075e-07
-3.55405e-09
1.20676e-07
-3.35594e-09
1.24076e-07
-3.15793e-09
1.27271e-07
-2.95725e-09
1.30275e-07
-2.76977e-09
1.33105e-07
-2.59922e-09
1.3576e-07
-2.43002e-09
1.38234e-07
-2.25323e-09
1.40534e-07
-2.08442e-09
1.42675e-07
-1.93082e-09
1.44663e-07
-1.78469e-09
1.46494e-07
-1.63336e-09
1.48166e-07
-1.48052e-09
1.49693e-07
-1.34364e-09
1.51091e-07
-1.22097e-09
1.52354e-07
-1.09304e-09
1.53478e-07
-9.61332e-10
1.54472e-07
-8.40018e-10
1.55351e-07
-7.32485e-10
1.56109e-07
-6.19094e-10
1.56744e-07
-5.0469e-10
1.57266e-07
-4.00187e-10
1.57683e-07
-3.02342e-10
1.57991e-07
-2.02148e-10
1.58193e-07
-1.04055e-10
1.58301e-07
-1.69616e-11
1.5832e-07
6.30086e-11
1.5825e-07
1.45076e-10
1.58089e-07
2.28349e-10
1.57842e-07
3.06345e-10
1.57516e-07
3.79149e-10
1.5711e-07
4.51713e-10
1.56625e-07
5.24109e-10
1.56065e-07
5.91587e-10
1.55439e-07
6.51699e-10
1.5475e-07
7.0736e-10
1.54e-07
7.63086e-10
1.53187e-07
8.19418e-10
1.52315e-07
8.73241e-10
1.51387e-07
9.23712e-10
1.50406e-07
9.72514e-10
1.49372e-07
1.01939e-09
1.48291e-07
1.06335e-09
1.47164e-07
1.10518e-09
1.45994e-07
1.14502e-09
1.44784e-07
1.18174e-09
1.43537e-07
1.21561e-09
1.42255e-07
1.24696e-09
1.40945e-07
1.27405e-09
1.3961e-07
1.29642e-09
1.38253e-07
1.31623e-09
1.36877e-07
1.33327e-09
1.35488e-07
1.34537e-09
1.34087e-07
1.35589e-09
1.32669e-07
1.37172e-09
1.3123e-07
1.3926e-09
1.2977e-07
1.41162e-09
1.28295e-07
1.42751e-09
1.26802e-07
1.44511e-09
1.25289e-07
1.46385e-09
1.23764e-07
1.47686e-09
1.22234e-07
1.48272e-09
1.20698e-07
1.48826e-09
1.19154e-07
1.49667e-09
1.17604e-07
1.50327e-09
1.16052e-07
1.50582e-09
1.14498e-07
1.50915e-09
1.12937e-07
1.51617e-09
1.11371e-07
1.52206e-09
1.09806e-07
1.5217e-09
1.08247e-07
1.51708e-09
1.06693e-07
1.51231e-09
1.05146e-07
1.50737e-09
1.03606e-07
1.50063e-09
1.02074e-07
1.49299e-09
1.00551e-07
1.48591e-09
9.90361e-08
1.47886e-09
9.75298e-08
1.47147e-09
9.60311e-08
1.46533e-09
9.4538e-08
1.46106e-09
9.30514e-08
1.45589e-09
9.15755e-08
1.4465e-09
9.01142e-08
1.43303e-09
8.86684e-08
1.41839e-09
8.7237e-08
1.40487e-09
8.58178e-08
1.39321e-09
8.44086e-08
1.38361e-09
8.30076e-08
1.37567e-09
8.16153e-08
1.36736e-09
8.02341e-08
1.35655e-09
7.88656e-08
1.3443e-09
7.75078e-08
1.33429e-09
7.61575e-08
1.32768e-09
7.48158e-08
1.32014e-09
7.34891e-08
1.30644e-09
7.21829e-08
1.28735e-09
7.08962e-08
1.26932e-09
6.96237e-08
1.25638e-09
6.83642e-08
1.24453e-09
6.71234e-08
1.22668e-09
6.59079e-08
1.20198e-09
6.47176e-08
1.17704e-09
6.3546e-08
1.15824e-09
6.23865e-08
1.1458e-09
6.12362e-08
1.13597e-09
6.00945e-08
1.12659e-09
5.89609e-08
1.11774e-09
5.78355e-08
1.10868e-09
5.67204e-08
1.09767e-09
5.56177e-08
1.08474e-09
5.45282e-08
1.07114e-09
5.34537e-08
1.05604e-09
5.2398e-08
1.03716e-09
5.13646e-08
1.01525e-09
5.03523e-08
9.94476e-10
4.93579e-08
9.7722e-10
4.83788e-08
9.62691e-10
4.74136e-08
9.49596e-10
4.6461e-08
9.38066e-10
4.55191e-08
9.28383e-10
4.45867e-08
9.19943e-10
4.36629e-08
9.12477e-10
4.27461e-08
9.06489e-10
4.18356e-08
9.01314e-10
4.09334e-08
8.93889e-10
4.00448e-08
8.81231e-10
3.91745e-08
8.63663e-10
3.83248e-08
8.43598e-10
3.74964e-08
8.22867e-10
3.66896e-08
8.01558e-10
3.59057e-08
7.78985e-10
3.51455e-08
7.55429e-10
3.44085e-08
7.32294e-10
3.36927e-08
7.11331e-10
3.29947e-08
6.93508e-10
3.23125e-08
6.77864e-10
3.16424e-08
6.65917e-10
3.09803e-08
6.58001e-10
3.03234e-08
6.52945e-10
2.96712e-08
6.48488e-10
2.9025e-08
6.42737e-10
2.83866e-08
6.35229e-10
2.7757e-08
6.26638e-10
2.71368e-08
6.17502e-10
2.6527e-08
6.07352e-10
2.59297e-08
5.95069e-10
2.5348e-08
5.79711e-10
2.4785e-08
5.6127e-10
2.42424e-08
5.40971e-10
2.37204e-08
5.20492e-10
2.32179e-08
5.01266e-10
2.27324e-08
4.84194e-10
2.22615e-08
4.69778e-10
2.18022e-08
4.58261e-10
2.13518e-08
4.49364e-10
2.09081e-08
4.42694e-10
2.04698e-08
4.37366e-10
2.00366e-08
4.32241e-10
1.96095e-08
4.26212e-10
1.91902e-08
4.18397e-10
1.87809e-08
4.08355e-10
1.83838e-08
3.9626e-10
1.8e-08
3.82874e-10
1.763e-08
3.69024e-10
1.72741e-08
3.54991e-10
1.69325e-08
3.40606e-10
1.66054e-08
3.2611e-10
1.62912e-08
3.13184e-10
1.59853e-08
3.04809e-10
1.56813e-08
3.02926e-10
1.53746e-08
3.05458e-10
1.50657e-08
3.07765e-10
1.47582e-08
3.06204e-10
1.44558e-08
3.0109e-10
1.41598e-08
2.94559e-10
1.38719e-08
2.86503e-10
1.35963e-08
2.74013e-10
1.33389e-08
2.55814e-10
1.31014e-08
2.35897e-10
1.28784e-08
2.21217e-10
1.26624e-08
2.14263e-10
1.24495e-08
2.11088e-10
1.22391e-08
2.08508e-10
1.20294e-08
2.07841e-10
1.18158e-08
2.11585e-10
1.15956e-08
2.18206e-10
1.1371e-08
2.22647e-10
1.11468e-08
2.22121e-10
1.09266e-08
2.1822e-10
1.07117e-08
2.12795e-10
1.05044e-08
2.05195e-10
1.0307e-08
1.95359e-10
1.01188e-08
1.86105e-10
9.93664e-09
1.80143e-10
9.757e-09
1.77563e-10
9.577e-09
1.77923e-10
9.39311e-09
1.81799e-10
9.20273e-09
1.88265e-10
9.00709e-09
1.93499e-10
8.81076e-09
1.94144e-10
8.618e-09
1.90538e-10
8.43107e-09
1.84673e-10
8.25167e-09
1.77135e-10
8.08152e-09
1.67887e-10
7.92026e-09
1.59035e-10
7.76401e-09
1.541e-10
7.60715e-09
1.54817e-10
7.44569e-09
1.59554e-10
7.27864e-09
1.65295e-10
7.10711e-09
1.69956e-10
6.9332e-09
1.72505e-10
6.76016e-09
1.71808e-10
6.59226e-09
1.66821e-10
6.43329e-09
1.5802e-10
6.28441e-09
1.48015e-10
6.14362e-09
1.39985e-10
6.00737e-09
1.35478e-10
5.87298e-09
1.33601e-10
5.7397e-09
1.32447e-10
5.60751e-09
1.31307e-10
5.47605e-09
1.305e-10
5.34614e-09
1.28853e-10
5.22146e-09
1.23545e-10
5.10652e-09
1.13713e-10
5.00301e-09
1.02211e-10
4.90787e-09
9.37706e-11
4.81551e-09
9.09317e-11
4.72045e-09
9.36026e-11
4.61925e-09
9.97153e-11
4.51221e-09
1.05552e-10
4.40307e-09
1.0765e-10
4.29653e-09
1.05055e-10
4.196e-09
9.90476e-11
4.10269e-09
9.18354e-11
4.01483e-09
8.63939e-11
3.9278e-09
8.55606e-11
3.83641e-09
8.99081e-11
3.73721e-09
9.7695e-11
3.62929e-09
1.06383e-10
3.51479e-09
1.12925e-10
3.39918e-09
1.13992e-10
3.28955e-09
1.07965e-10
3.19038e-09
9.74513e-11
3.1004e-09
8.8221e-11
3.01412e-09
8.44648e-11
2.92719e-09
8.5073e-11
2.83926e-09
8.6046e-11
2.75027e-09
8.70765e-11
2.66091e-09
8.74309e-11
2.57577e-09
8.32056e-11
2.49803e-09
7.5811e-11
2.42507e-09
7.1038e-11
2.3519e-09
7.12683e-11
2.27512e-09
7.4901e-11
2.19507e-09
7.82107e-11
2.11625e-09
7.70128e-11
2.04301e-09
7.14598e-11
1.97538e-09
6.58945e-11
1.91177e-09
6.1905e-11
1.85131e-09
5.8788e-11
1.79082e-09
5.88458e-11
1.72956e-09
5.96416e-11
1.67008e-09
5.78833e-11
1.6145e-09
5.39985e-11
1.55383e-09
5.90973e-11
1.48538e-09
6.6894e-11
1.41342e-09
7.04066e-11
1.33957e-09
7.23106e-11
1.27453e-09
6.35022e-11
1.21787e-09
5.51268e-11
1.16612e-09
5.02156e-11
1.11991e-09
4.46739e-11
1.07597e-09
4.23826e-11
1.03995e-09
3.44688e-11
1.01211e-09
2.62535e-11
1.00163e-09
8.89118e-12
9.9532e-10
4.7001e-12
9.87879e-10
5.81108e-12
9.68689e-10
1.75417e-11
9.43484e-10
2.35391e-11
9.24879e-10
1.69274e-11
9.04847e-10
1.8349e-11
9.05331e-10
-2.16334e-12
8.92644e-10
1.10221e-11
8.53156e-10
3.78507e-11
8.17005e-10
3.45567e-11
7.83791e-10
3.16759e-11
7.68916e-10
1.341e-11
7.45811e-10
2.17245e-11
7.25781e-10
1.87384e-11
7.26734e-10
-2.13784e-12
7.38904e-10
-1.32475e-11
7.74381e-10
-3.64498e-11
7.79918e-10
-6.39789e-12
8.08549e-10
-2.9388e-11
8.08117e-10
-2.34236e-13
8.0196e-10
5.56382e-12
7.77664e-10
2.3753e-11
7.70161e-10
6.9836e-12
8.01598e-10
-3.19596e-11
7.87938e-10
1.31078e-11
8.1283e-10
-2.54965e-11
8.5585e-10
-4.36851e-11
8.55315e-10
-1.90627e-13
8.46936e-10
7.60514e-12
8.07805e-10
3.83299e-11
8.19115e-10
-1.21083e-11
7.66411e-10
5.19675e-11
7.5736e-10
8.36462e-12
8.19651e-10
-6.29032e-11
8.20041e-10
-1.24774e-12
1.02515e-09
-2.05839e-10
1.13489e-09
-1.10576e-10
1.09554e-09
3.82679e-11
1.09e-09
4.68188e-12
1.0316e-09
5.76551e-11
9.58625e-10
7.23008e-11
8.82498e-10
7.5482e-11
7.85189e-10
9.66735e-11
6.5861e-10
1.2594e-10
5.14674e-10
1.43297e-10
3.61884e-10
1.52159e-10
2.02966e-10
1.58308e-10
5.06241e-11
1.51769e-10
-7.83496e-11
1.2845e-10
-1.80259e-10
1.01444e-10
-2.7073e-10
9.00684e-11
-3.65546e-10
9.44756e-11
-4.63151e-10
9.73233e-11
-5.50843e-10
8.74642e-11
-6.18876e-10
6.78516e-11
-6.68763e-10
4.97428e-11
-7.08911e-10
4.00343e-11
-7.50482e-10
4.14819e-11
-8.03734e-10
5.3181e-11
-8.74576e-10
7.07849e-11
-9.62403e-10
8.77815e-11
-1.06333e-09
1.00893e-10
-1.17141e-09
1.08054e-10
-1.27988e-09
1.08441e-10
-1.38159e-09
1.01703e-10
-1.46794e-09
8.6345e-11
-1.52857e-09
6.0629e-11
-1.55167e-09
2.31006e-11
-1.53063e-09
-2.10256e-11
-1.45888e-09
-7.17376e-11
-1.34213e-09
-1.16729e-10
-1.18961e-09
-1.52504e-10
-1.0145e-09
-1.75101e-10
-8.2983e-10
-1.84657e-10
-6.45498e-10
-1.84327e-10
-4.68453e-10
-1.77046e-10
-3.04359e-10
-1.64103e-10
-1.60391e-10
-1.43985e-10
-4.49269e-11
-1.15489e-10
3.37877e-11
-7.87486e-11
7.52275e-11
-4.14821e-11
8.65099e-11
-1.13322e-11
8.35397e-11
2.91379e-12
8.24882e-11
9.89736e-13
9.80137e-11
-1.55915e-11
1.43085e-10
-4.51399e-11
2.28351e-10
-8.53361e-11
3.55129e-10
-1.26847e-10
5.07099e-10
-1.52038e-10
6.47016e-10
-1.39981e-10
7.31801e-10
-8.48444e-11
7.50099e-10
-1.83533e-11
7.39438e-10
1.06125e-11
7.69297e-10
-2.99025e-11
8.84137e-10
-1.14876e-10
1.03109e-09
-1.46984e-10
1.09202e-09
-6.09554e-11
9.99607e-10
9.23949e-11
8.0772e-10
1.9187e-10
6.56222e-10
1.51483e-10
6.47167e-10
9.03961e-12
6.70883e-10
-2.3734e-11
5.81085e-10
8.97758e-11
3.78316e-10
2.0274e-10
2.36944e-10
1.41331e-10
2.96431e-10
-5.95395e-11
4.19671e-10
-1.23309e-10
4.25213e-10
-5.62816e-12
4.19487e-10
5.61829e-12
5.8261e-10
-1.63253e-10
8.409e-10
-2.58441e-10
8.94312e-10
-5.35829e-11
7.98131e-10
9.59948e-11
7.55989e-10
4.19475e-11
5.78421e-10
1.77371e-10
4.03594e-10
1.74639e-10
2.71962e-10
-1.49844e-05
-1.78755e-07
-1.49695e-05
-1.36333e-07
-1.49274e-05
-1.39573e-07
-1.48791e-05
-1.62597e-07
-1.48141e-05
-1.73781e-07
-1.47368e-05
-1.86059e-07
-1.46517e-05
-2.01739e-07
-1.45552e-05
-2.18686e-07
-1.44509e-05
-2.34086e-07
-1.43405e-05
-2.48193e-07
-1.42243e-05
-2.60862e-07
-1.41019e-05
-2.7157e-07
-1.39737e-05
-2.82445e-07
-1.38412e-05
-2.90828e-07
-1.37034e-05
-2.99216e-07
-1.35614e-05
-3.07333e-07
-1.34145e-05
-3.15224e-07
-1.32626e-05
-3.24468e-07
-1.31059e-05
-3.33664e-07
-1.2945e-05
-3.42003e-07
-1.27803e-05
-3.49915e-07
-1.26124e-05
-3.57076e-07
-1.24413e-05
-3.63297e-07
-1.22671e-05
-3.68844e-07
-1.20896e-05
-3.73845e-07
-1.19092e-05
-3.77616e-07
-1.17267e-05
-3.8109e-07
-1.15431e-05
-3.8465e-07
-1.13583e-05
-3.87481e-07
-1.11726e-05
-3.89558e-07
-1.09854e-05
-3.92256e-07
-1.07976e-05
-3.93829e-07
-1.06091e-05
-3.95418e-07
-1.04197e-05
-3.97048e-07
-1.023e-05
-3.97423e-07
-1.00398e-05
-3.97032e-07
-9.84935e-06
-3.96979e-07
-9.65911e-06
-3.96806e-07
-9.46894e-06
-3.95632e-07
-9.2782e-06
-3.95166e-07
-9.08716e-06
-3.93749e-07
-8.89615e-06
-3.91095e-07
-8.70686e-06
-3.89086e-07
-8.51886e-06
-3.85986e-07
-8.33173e-06
-3.8223e-07
-8.14634e-06
-3.78666e-07
-7.96317e-06
-3.7558e-07
-7.78212e-06
-3.72538e-07
-7.60291e-06
-3.69806e-07
-7.42523e-06
-3.67363e-07
-7.24888e-06
-3.64855e-07
-7.07387e-06
-3.63109e-07
-6.90004e-06
-3.61338e-07
-6.72719e-06
-3.59123e-07
-6.55534e-06
-3.56545e-07
-6.38471e-06
-3.53181e-07
-6.21531e-06
-3.49435e-07
-6.04741e-06
-3.45532e-07
-5.88149e-06
-3.40822e-07
-5.71772e-06
-3.35739e-07
-5.55608e-06
-3.3088e-07
-5.39655e-06
-3.26093e-07
-5.23883e-06
-3.21704e-07
-5.0827e-06
-3.17848e-07
-4.92773e-06
-3.14904e-07
-4.77345e-06
-3.12856e-07
-4.61942e-06
-3.11812e-07
-4.46523e-06
-3.1182e-07
-4.31049e-06
-3.12846e-07
-4.15467e-06
-3.15277e-07
-3.99713e-06
-3.19935e-07
-3.83713e-06
-3.28119e-07
-3.6746e-06
-3.41539e-07
-3.50945e-06
-3.62416e-07
-3.34634e-06
-3.92633e-07
-3.19691e-06
-4.34362e-07
-3.09715e-06
-4.85331e-07
-3.12995e-06
-5.43524e-07
-3.01981e-06
-5.63917e-07
-2.6012e-06
-5.95617e-07
-1.98947e-06
-6.90944e-07
-1.47099e-06
-5.04206e-07
-1.27557e-06
-2.3448e-07
-1.17685e-06
-1.27683e-07
-1.16353e-06
-2.6064e-08
-1.1173e-06
-8.76038e-08
-1.07209e-06
-8.58846e-08
-1.03726e-06
-6.72378e-08
-1.01582e-06
-4.72677e-08
-9.80183e-07
-6.30618e-08
-9.46806e-07
-6.12716e-08
-9.19258e-07
-5.44414e-08
-8.8809e-07
-5.78195e-08
-8.56631e-07
-5.8232e-08
-8.25598e-07
-5.7459e-08
-7.95112e-07
-5.74204e-08
-7.64944e-07
-5.72233e-08
-7.35958e-07
-5.63859e-08
-7.07396e-07
-5.57753e-08
-6.79182e-07
-5.50775e-08
-6.50834e-07
-5.46421e-08
-6.22651e-07
-5.34085e-08
-5.95138e-07
-5.2132e-08
-5.68622e-07
-5.06191e-08
-5.43471e-07
-4.91656e-08
-5.1899e-07
-4.77495e-08
-4.94539e-07
-4.68046e-08
-4.70499e-07
-4.58154e-08
-4.46733e-07
-4.48802e-08
-4.23596e-07
-4.36305e-08
-4.01446e-07
-4.19408e-08
-3.79885e-07
-4.06876e-08
-3.58967e-07
-3.92082e-08
-3.38717e-07
-3.76866e-08
-3.18834e-07
-3.59101e-08
-2.99779e-07
-3.428e-08
-2.80371e-07
-3.12959e-08
-2.62463e-07
-2.95879e-08
-2.46493e-07
-2.9977e-08
-2.33926e-07
-2.76588e-08
-2.22033e-07
-2.76477e-08
-2.07753e-07
-2.88465e-08
-1.93338e-07
-2.98948e-08
-1.78259e-07
-3.01506e-08
-1.63521e-07
-2.84455e-08
-1.47995e-07
-2.89944e-08
-1.32888e-07
-2.81521e-08
-1.19142e-07
-2.62931e-08
-1.0579e-07
-2.56024e-08
-9.28963e-08
-2.47352e-08
-8.04982e-08
-2.37723e-08
-6.84549e-08
-2.30227e-08
-5.68555e-08
-2.215e-08
-4.57418e-08
-2.12321e-08
-3.50448e-08
-2.04189e-08
-2.47543e-08
-1.96286e-08
-1.48548e-08
-1.88475e-08
-5.35734e-09
-1.80458e-08
3.76723e-09
-1.72978e-08
1.25237e-08
-1.65807e-08
2.0922e-08
-1.58888e-08
2.89688e-08
-1.52022e-08
3.66692e-08
-1.45244e-08
4.40386e-08
-1.38847e-08
5.10957e-08
-1.32781e-08
5.78492e-08
-1.2676e-08
6.43013e-08
-1.20868e-08
7.0467e-08
-1.15381e-08
7.63608e-08
-1.10166e-08
8.1985e-08
-1.04973e-08
8.73453e-08
-9.98766e-09
9.24575e-08
-9.50948e-09
9.7331e-08
-9.04253e-09
1.01967e-07
-8.57614e-09
1.06374e-07
-8.12698e-09
1.10567e-07
-7.70448e-09
1.14551e-07
-7.29165e-09
1.18328e-07
-6.88243e-09
1.21897e-07
-6.48403e-09
1.25266e-07
-6.09268e-09
1.28439e-07
-5.70297e-09
1.31417e-07
-5.32878e-09
1.34206e-07
-4.97661e-09
1.36814e-07
-4.63671e-09
1.39257e-07
-4.30354e-09
1.41537e-07
-3.98172e-09
1.43656e-07
-3.6793e-09
1.4562e-07
-3.38793e-09
1.47428e-07
-3.09374e-09
1.49082e-07
-2.79894e-09
1.50587e-07
-2.52575e-09
1.51951e-07
-2.27486e-09
1.53177e-07
-2.02354e-09
1.54271e-07
-1.77323e-09
1.55243e-07
-1.54309e-09
1.56094e-07
-1.33039e-09
1.5683e-07
-1.11535e-09
1.5745e-07
-8.9947e-10
1.57958e-07
-6.98275e-10
1.58361e-07
-5.09655e-10
1.58661e-07
-3.20367e-10
1.58858e-07
-1.34106e-10
1.58958e-07
3.5588e-11
1.58968e-07
1.91787e-10
1.58889e-07
3.48885e-10
1.58721e-07
5.0813e-10
1.58467e-07
6.58972e-10
1.58132e-07
7.99926e-10
1.57717e-07
9.40482e-10
1.57218e-07
1.08384e-09
1.56637e-07
1.22127e-09
1.55981e-07
1.3447e-09
1.55258e-07
1.45672e-09
1.54471e-07
1.56503e-09
1.53625e-07
1.67043e-09
1.52726e-07
1.76831e-09
1.51775e-07
1.86108e-09
1.50771e-07
1.95518e-09
1.49713e-07
2.04861e-09
1.48604e-07
2.13542e-09
1.47451e-07
2.21543e-09
1.46257e-07
2.29042e-09
1.45026e-07
2.35889e-09
1.43763e-07
2.4204e-09
1.42471e-07
2.47619e-09
1.41152e-07
2.52542e-09
1.3981e-07
2.5684e-09
1.38444e-07
2.6092e-09
1.37053e-07
2.64848e-09
1.35638e-07
2.68195e-09
1.34203e-07
2.71131e-09
1.32749e-07
2.74486e-09
1.31277e-07
2.78314e-09
1.29788e-07
2.81708e-09
1.28289e-07
2.84419e-09
1.26779e-07
2.87159e-09
1.2526e-07
2.90044e-09
1.23732e-07
2.92274e-09
1.22197e-07
2.93651e-09
1.20654e-07
2.9506e-09
1.19102e-07
2.96927e-09
1.17541e-07
2.98538e-09
1.15976e-07
2.99388e-09
1.14409e-07
2.99997e-09
1.12843e-07
3.00825e-09
1.11279e-07
3.01381e-09
1.09718e-07
3.01091e-09
1.08163e-07
3.00295e-09
1.06612e-07
2.99617e-09
1.05063e-07
2.99047e-09
1.03517e-07
2.98257e-09
1.01975e-07
2.97257e-09
1.00439e-07
2.96144e-09
9.89128e-08
2.94724e-09
9.73994e-08
2.92875e-09
9.59017e-08
2.90895e-09
9.44195e-08
2.89097e-09
9.29517e-08
2.87342e-09
9.14962e-08
2.85336e-09
9.00508e-08
2.83127e-09
8.86135e-08
2.80992e-09
8.71835e-08
2.79027e-09
8.57612e-08
2.77189e-09
8.43466e-08
2.75558e-09
8.29381e-08
2.74239e-09
8.15349e-08
2.72975e-09
8.01395e-08
2.7122e-09
7.87575e-08
2.6879e-09
7.73933e-08
2.66154e-09
7.60475e-08
2.6383e-09
7.4718e-08
2.61642e-09
7.34038e-08
2.58934e-09
7.21068e-08
2.55512e-09
7.08284e-08
2.52035e-09
6.95668e-08
2.49218e-09
6.83183e-08
2.46854e-09
6.70809e-08
2.44043e-09
6.5856e-08
2.40369e-09
6.46454e-08
2.36434e-09
6.34495e-08
2.33043e-09
6.22679e-08
2.30281e-09
6.11019e-08
2.27645e-09
5.99528e-08
2.24895e-09
5.88204e-08
2.22229e-09
5.77031e-08
2.19709e-09
5.66004e-08
2.17056e-09
5.55133e-08
2.14153e-09
5.44419e-08
2.11194e-09
5.33854e-08
2.08206e-09
5.23431e-08
2.04949e-09
5.13145e-08
2.01455e-09
5.0299e-08
1.98172e-09
4.9296e-08
1.95341e-09
4.83054e-08
1.92792e-09
4.73277e-08
1.90356e-09
4.63626e-08
1.88124e-09
4.54094e-08
1.86148e-09
4.44688e-08
1.84239e-09
4.35423e-08
1.82244e-09
4.26315e-08
1.80261e-09
4.1736e-08
1.78362e-09
4.08553e-08
1.76289e-09
3.99895e-08
1.73654e-09
3.91398e-08
1.70393e-09
3.8307e-08
1.66782e-09
3.74912e-08
1.63083e-09
3.66923e-08
1.5931e-09
3.59109e-08
1.55345e-09
3.51475e-08
1.5122e-09
3.44018e-08
1.47162e-09
3.36728e-08
1.43415e-09
3.29595e-08
1.40086e-09
3.22604e-08
1.37125e-09
3.15748e-08
1.34603e-09
3.09022e-08
1.32547e-09
3.02418e-08
1.3086e-09
2.95927e-08
1.29314e-09
2.89545e-08
1.27685e-09
2.83274e-08
1.25873e-09
2.77118e-08
1.2391e-09
2.71082e-08
1.21834e-09
2.65172e-08
1.19594e-09
2.59395e-08
1.17067e-09
2.53759e-08
1.14161e-09
2.48266e-08
1.10908e-09
2.42917e-08
1.07463e-09
2.37709e-08
1.04029e-09
2.32634e-08
1.00788e-09
2.27683e-08
9.78551e-10
2.22846e-08
9.52792e-10
2.18116e-08
9.30655e-10
2.13488e-08
9.11631e-10
2.08959e-08
8.95011e-10
2.0453e-08
8.7972e-10
2.00201e-08
8.64561e-10
1.95974e-08
8.48305e-10
1.91853e-08
8.29797e-10
1.87848e-08
8.0822e-10
1.83967e-08
7.83584e-10
1.80217e-08
7.57104e-10
1.7659e-08
7.30857e-10
1.73064e-08
7.06578e-10
1.69614e-08
6.84637e-10
1.66222e-08
6.64186e-10
1.62891e-08
6.45063e-10
1.59633e-08
6.29345e-10
1.56448e-08
6.20018e-10
1.53319e-08
6.16841e-10
1.5023e-08
6.15046e-10
1.4719e-08
6.0846e-10
1.44231e-08
5.95213e-10
1.41372e-08
5.78421e-10
1.38608e-08
5.6081e-10
1.35923e-08
5.40286e-10
1.33322e-08
5.13555e-10
1.3082e-08
4.83544e-10
1.28412e-08
4.59411e-10
1.2606e-08
4.46803e-10
1.23727e-08
4.41615e-10
1.21412e-08
4.37161e-10
1.19133e-08
4.32738e-10
1.16895e-08
4.32322e-10
1.14684e-08
4.36214e-10
1.12493e-08
4.38573e-10
1.10335e-08
4.34764e-10
1.08219e-08
4.26511e-10
1.06144e-08
4.16987e-10
1.04106e-08
4.05623e-10
1.02107e-08
3.91884e-10
1.00141e-08
3.79282e-10
9.81953e-09
3.71262e-10
9.62639e-09
3.67204e-10
9.43482e-09
3.65946e-10
9.24438e-09
3.68654e-10
9.0544e-09
3.74617e-10
8.86592e-09
3.78316e-10
8.68171e-09
3.74656e-10
8.50386e-09
3.64683e-10
8.3319e-09
3.52953e-10
8.16373e-09
3.41665e-10
7.99772e-09
3.30348e-10
7.83312e-09
3.20214e-10
7.66917e-09
3.14815e-10
7.50484e-09
3.16107e-10
7.3398e-09
3.21804e-10
7.17489e-09
3.2767e-10
7.0116e-09
3.30967e-10
6.85119e-09
3.30884e-10
6.6944e-09
3.2679e-10
6.54172e-09
3.17876e-10
6.39357e-09
3.04693e-10
6.25001e-09
2.90179e-10
6.11028e-09
2.78355e-10
5.97287e-09
2.71519e-10
5.83682e-09
2.68234e-10
5.70299e-09
2.64765e-10
5.57342e-09
2.59258e-10
5.4491e-09
2.53079e-10
5.32939e-09
2.46673e-10
5.21373e-09
2.37195e-10
5.10199e-09
2.2332e-10
4.99288e-09
2.09076e-10
4.8841e-09
2.00225e-10
4.77411e-09
1.98525e-10
4.66335e-09
2.01917e-10
4.55347e-09
2.0712e-10
4.44646e-09
2.10071e-10
4.3442e-09
2.07416e-10
4.2473e-09
1.99448e-10
4.15441e-09
1.8944e-10
4.06274e-09
1.81e-10
3.96929e-09
1.77328e-10
3.87208e-09
1.8023e-10
3.7712e-09
1.88205e-10
3.66824e-09
1.98033e-10
3.56545e-09
2.06487e-10
3.46507e-09
2.10548e-10
3.3681e-09
2.08144e-10
3.2738e-09
1.99363e-10
3.18076e-09
1.87519e-10
3.08751e-09
1.78424e-10
2.99311e-09
1.75761e-10
2.899e-09
1.76022e-10
2.80913e-09
1.7273e-10
2.72516e-09
1.67827e-10
2.64469e-09
1.64673e-10
2.56473e-09
1.59945e-10
2.48321e-09
1.54136e-10
2.40026e-09
1.50821e-10
2.31809e-09
1.5032e-10
2.23838e-09
1.51545e-10
2.16236e-09
1.51219e-10
2.09106e-09
1.45359e-10
2.02465e-09
1.34991e-10
1.96023e-09
1.27491e-10
1.89524e-09
1.24117e-10
1.82952e-09
1.21798e-10
1.76402e-09
1.21677e-10
1.69885e-09
1.22174e-10
1.63493e-09
1.19205e-10
1.57443e-09
1.11936e-10
1.51504e-09
1.15932e-10
1.45663e-09
1.22774e-10
1.39582e-09
1.28704e-10
1.33247e-09
1.33148e-10
1.27798e-09
1.15481e-10
1.23638e-09
9.42156e-11
1.20178e-09
8.22908e-11
1.16234e-09
8.15835e-11
1.11712e-09
8.50397e-11
1.0758e-09
7.32087e-11
1.04254e-09
5.68967e-11
1.01924e-09
2.95423e-11
9.94899e-10
2.63659e-11
9.76468e-10
2.15331e-11
9.53209e-10
3.80637e-11
9.32385e-10
4.16073e-11
9.1069e-10
3.58578e-11
8.91064e-10
3.52191e-11
8.7797e-10
8.20302e-12
8.59324e-10
2.6991e-11
8.27525e-10
6.7048e-11
8.04996e-10
5.45848e-11
7.83465e-10
5.08278e-11
7.79869e-10
1.47761e-11
7.73606e-10
2.59155e-11
7.66504e-10
2.39472e-11
7.68291e-10
-5.62928e-12
7.71762e-10
-1.82395e-11
7.67166e-10
-3.31854e-11
7.49645e-10
9.96295e-12
7.66867e-10
-4.76223e-11
7.7988e-10
-1.41457e-11
7.7176e-10
1.28614e-11
7.86674e-10
8.04658e-12
8.05679e-10
-1.28287e-11
8.12404e-10
-3.95458e-11
8.33132e-10
-8.56913e-12
8.23793e-10
-1.72121e-11
7.91045e-10
-1.20886e-11
8.128e-10
-2.31716e-11
7.91393e-10
2.77676e-11
7.36607e-10
9.18851e-11
8.15616e-10
-9.23133e-11
8.72523e-10
-6.25162e-12
1.08771e-09
-2.08002e-10
1.28357e-09
-2.60383e-10
1.3962e-09
-1.15545e-10
1.38103e-09
-1.92311e-10
1.22085e-09
4.77295e-11
1.2102e-09
4.74035e-11
1.18323e-09
3.034e-11
1.11902e-09
1.20687e-10
1.03942e-09
1.50785e-10
9.35845e-10
1.77966e-10
8.01195e-10
2.30238e-10
6.7531e-10
2.50745e-10
5.74931e-10
2.4262e-10
4.77432e-10
2.48647e-10
3.69114e-10
2.65684e-10
2.59314e-10
2.60716e-10
1.53931e-10
2.33085e-10
4.494e-11
2.09797e-10
-7.21279e-11
2.0661e-10
-1.87538e-10
2.09466e-10
-2.8722e-10
1.96679e-10
-3.64109e-10
1.64111e-10
-4.19489e-10
1.23059e-10
-4.61062e-10
9.11977e-11
-5.00313e-10
7.92106e-11
-5.4695e-10
8.80769e-11
-6.07706e-10
1.13919e-10
-6.82888e-10
1.45967e-10
-7.68451e-10
1.73358e-10
-8.54786e-10
1.87252e-10
-9.32721e-10
1.86022e-10
-9.9638e-10
1.7214e-10
-1.04192e-09
1.4729e-10
-1.0673e-09
1.1178e-10
-1.07193e-09
6.53052e-11
-1.05709e-09
8.3238e-12
-1.02295e-09
-5.51147e-11
-9.72601e-10
-1.22029e-10
-9.07179e-10
-1.821e-10
-8.26934e-10
-2.32703e-10
-7.31929e-10
-2.70069e-10
-6.22621e-10
-2.9394e-10
-5.01239e-10
-3.05696e-10
-3.73709e-10
-3.04577e-10
-2.49305e-10
-2.88523e-10
-1.39646e-10
-2.53675e-10
-5.44296e-11
-2.00752e-10
4.92182e-12
-1.3816e-10
4.23872e-11
-7.90206e-11
7.24964e-11
-4.1526e-11
1.03847e-10
-2.85302e-11
1.40245e-10
-3.55089e-11
1.83979e-10
-5.94305e-11
2.38802e-10
-1.00069e-10
3.11138e-10
-1.57778e-10
4.04973e-10
-2.20785e-10
5.13154e-10
-2.60315e-10
6.13174e-10
-2.40092e-10
6.86187e-10
-1.5794e-10
7.32098e-10
-6.43368e-11
7.7673e-10
-3.40833e-11
8.45832e-10
-9.90579e-11
9.17708e-10
-1.86797e-10
9.39519e-10
-1.68834e-10
8.78075e-10
4.55102e-13
7.6763e-10
2.02809e-10
7.04905e-10
2.54565e-10
7.45827e-10
1.10527e-10
7.81706e-10
-2.68805e-11
7.18692e-10
3.92274e-11
5.63189e-10
2.45212e-10
4.74884e-10
2.90957e-10
5.46088e-10
7.00145e-11
6.13155e-10
-1.26747e-10
5.41333e-10
-5.16592e-11
4.8087e-10
5.46272e-11
5.66751e-10
-8.05039e-11
6.42653e-10
-2.39429e-10
5.29025e-10
-1.45117e-10
4.35729e-10
3.93895e-11
4.09915e-10
1.21475e-10
3.38917e-10
1.12614e-10
2.97764e-10
2.18208e-10
3.8268e-10
8.94312e-11
5.2321e-10
-1.50914e-05
-1.7974e-07
-1.50422e-05
-1.50182e-07
-1.49855e-05
-1.69298e-07
-1.49238e-05
-2.06903e-07
-1.48552e-05
-2.30764e-07
-1.47763e-05
-2.57896e-07
-1.46878e-05
-2.87511e-07
-1.45927e-05
-3.13995e-07
-1.44906e-05
-3.38165e-07
-1.43819e-05
-3.60319e-07
-1.42679e-05
-3.79474e-07
-1.41475e-05
-3.97631e-07
-1.40217e-05
-4.14407e-07
-1.38898e-05
-4.29022e-07
-1.37524e-05
-4.42947e-07
-1.36094e-05
-4.56477e-07
-1.34603e-05
-4.70681e-07
-1.33062e-05
-4.84461e-07
-1.3148e-05
-4.97618e-07
-1.29857e-05
-5.10114e-07
-1.28198e-05
-5.21779e-07
-1.26503e-05
-5.32338e-07
-1.24774e-05
-5.41657e-07
-1.23012e-05
-5.49856e-07
-1.21221e-05
-5.57064e-07
-1.194e-05
-5.63158e-07
-1.17549e-05
-5.69286e-07
-1.15682e-05
-5.74208e-07
-1.13805e-05
-5.77695e-07
-1.11913e-05
-5.81052e-07
-1.10014e-05
-5.8443e-07
-1.08086e-05
-5.86277e-07
-1.06172e-05
-5.88006e-07
-1.04264e-05
-5.8936e-07
-1.02352e-05
-5.89638e-07
-1.00423e-05
-5.89645e-07
-9.84966e-06
-5.89303e-07
-9.65626e-06
-5.89067e-07
-9.46422e-06
-5.88444e-07
-9.27136e-06
-5.88101e-07
-9.07942e-06
-5.8677e-07
-8.88687e-06
-5.84815e-07
-8.69569e-06
-5.81757e-07
-8.5054e-06
-5.78182e-07
-8.31608e-06
-5.73726e-07
-8.12837e-06
-5.68713e-07
-7.94284e-06
-5.6352e-07
-7.75953e-06
-5.58308e-07
-7.57835e-06
-5.53532e-07
-7.39928e-06
-5.49142e-07
-7.22179e-06
-5.45227e-07
-7.04615e-06
-5.41811e-07
-6.87218e-06
-5.38633e-07
-6.6995e-06
-5.35376e-07
-6.52809e-06
-5.31637e-07
-6.35784e-06
-5.27148e-07
-6.18905e-06
-5.21912e-07
-6.0223e-06
-5.15848e-07
-5.85751e-06
-5.0898e-07
-5.6948e-06
-5.01554e-07
-5.5344e-06
-4.94098e-07
-5.37608e-06
-4.86923e-07
-5.21962e-06
-4.80396e-07
-5.06466e-06
-4.74792e-07
-4.91091e-06
-4.70392e-07
-4.75795e-06
-4.67275e-07
-4.60551e-06
-4.6542e-07
-4.45354e-06
-4.6464e-07
-4.302e-06
-4.64871e-07
-4.15089e-06
-4.66489e-07
-4.00046e-06
-4.70035e-07
-3.85143e-06
-4.76364e-07
-3.70498e-06
-4.86751e-07
-3.56346e-06
-5.02276e-07
-3.43084e-06
-5.23214e-07
-3.3136e-06
-5.49253e-07
-3.21847e-06
-5.77873e-07
-3.15379e-06
-6.05407e-07
-3.089e-06
-6.25819e-07
-3.04409e-06
-6.37578e-07
-3.08278e-06
-6.49173e-07
-2.95018e-06
-6.34336e-07
-2.52923e-06
-6.52653e-07
-1.90737e-06
-7.46031e-07
-1.38956e-06
-5.41424e-07