/*--------------------------------*- C++ -*----------------------------------*\
| =========                 |                                                 |
| \\      /  F ield         | OpenFOAM: The Open Source CFD Toolbox           |
|  \\    /   O peration     | Version:  v2006                                 |
|   \\  /    A nd           | Website:  www.openfoam.com                      |
|    \\/     M anipulation  |                                                 |
\*---------------------------------------------------------------------------*/
FoamFile
{
    version     2.0;
    format      ascii;
    class       volScalarField;
    location    "0.8";
    object      omega;
}
// * * * * * * * * * * * * * * * * * * * * * * * * * * * * * * * * * * * * * //

dimensions      [0 0 -1 0 0 0 0];


internalField   nonuniform List<scalar> 
33000
(
0.801825
0.801888
0.801884
0.801882
0.80188
0.801877
0.801875
0.801873
0.80187
0.801868
0.801866
0.801864
0.801861
0.80186
0.801858
0.801857
0.801856
0.801854
0.801851
0.801849
0.801846
0.801843
0.80184
0.801837
0.801834
0.801831
0.801828
0.801825
0.801822
0.801818
0.801814
0.80181
0.801805
0.8018
0.801795
0.801791
0.801787
0.801783
0.801779
0.801774
0.80177
0.801765
0.801759
0.801752
0.801745
0.801738
0.80173
0.801723
0.801715
0.801707
0.801699
0.80169
0.801681
0.801672
0.801665
0.801657
0.801649
0.801642
0.801635
0.801627
0.801618
0.80161
0.801601
0.801593
0.801584
0.801576
0.801567
0.801558
0.801548
0.801539
0.801529
0.801519
0.801508
0.801494
0.801478
0.801459
0.801433
0.801425
0.801311
0.801317
0.801295
0.801296
0.801294
0.80129
0.801291
0.801289
0.801285
0.801282
0.80128
0.801278
0.801276
0.801274
0.801272
0.80127
0.801268
0.801266
0.801264
0.801262
0.80126
0.801257
0.801255
0.801253
0.801252
0.80125
0.801249
0.801247
0.801246
0.801244
0.801243
0.801241
0.80124
0.801239
0.801238
0.801236
0.801235
0.801234
0.801233
0.80123
0.801229
0.801228
0.801227
0.801226
0.801225
0.801225
0.801224
0.801224
0.801223
0.801222
0.801222
0.801221
0.80122
0.80122
0.801219
0.801219
0.801219
0.801218
0.801218
0.801217
0.801217
0.801216
0.801216
0.801216
0.801216
0.801215
0.801215
0.801215
0.801214
0.801214
0.801214
0.801213
0.801213
0.801213
0.801212
0.801212
0.801211
0.801211
0.801211
0.80121
0.80121
0.80121
0.801209
0.801209
0.801208
0.801208
0.801207
0.801207
0.801207
0.801206
0.801206
0.801205
0.801205
0.801205
0.801204
0.801204
0.801203
0.801203
0.801202
0.801202
0.801202
0.801201
0.801201
0.8012
0.8012
0.8012
0.801199
0.801199
0.801198
0.801198
0.801198
0.801197
0.801197
0.801196
0.801196
0.801196
0.801195
0.801195
0.801195
0.801194
0.801194
0.801194
0.801193
0.801193
0.801193
0.801192
0.801192
0.801192
0.801191
0.801191
0.801191
0.80119
0.80119
0.80119
0.801189
0.801189
0.801189
0.801188
0.801188
0.801188
0.801188
0.801187
0.801187
0.801187
0.801186
0.801186
0.801186
0.801186
0.801185
0.801185
0.801185
0.801185
0.801184
0.801184
0.801184
0.801184
0.801184
0.801183
0.801183
0.801183
0.801183
0.801182
0.801182
0.801182
0.801182
0.801182
0.801181
0.801181
0.801181
0.801181
0.801181
0.801181
0.80118
0.80118
0.80118
0.80118
0.80118
0.80118
0.801179
0.801179
0.801179
0.801179
0.801179
0.801179
0.801179
0.801178
0.801178
0.801178
0.801178
0.801178
0.801178
0.801178
0.801177
0.801177
0.801177
0.801177
0.801177
0.801177
0.801177
0.801177
0.801177
0.801177
0.801176
0.801176
0.801176
0.801176
0.801176
0.801176
0.801176
0.801176
0.801176
0.801176
0.801175
0.801175
0.801175
0.801175
0.801175
0.801175
0.801175
0.801175
0.801175
0.801175
0.801175
0.801175
0.801175
0.801175
0.801175
0.801174
0.801174
0.801174
0.801174
0.801174
0.801174
0.801174
0.801174
0.801174
0.801174
0.801174
0.801174
0.801174
0.801174
0.801174
0.801174
0.801174
0.801174
0.801174
0.801174
0.801174
0.801174
0.801174
0.801173
0.801173
0.801173
0.801173
0.801173
0.801173
0.801173
0.801173
0.801173
0.801173
0.801173
0.801173
0.801173
0.801173
0.801173
0.801173
0.801173
0.801173
0.801173
0.801173
0.801173
0.801173
0.801173
0.801173
0.801173
0.801173
0.801173
0.801173
0.801173
0.801173
0.801173
0.801173
0.801173
0.801173
0.801173
0.801173
0.801173
0.801173
0.801173
0.801173
0.801173
0.801173
0.801173
0.801173
0.801173
0.801173
0.801173
0.801173
0.801173
0.801173
0.801173
0.801173
0.801173
0.801173
0.801173
0.801173
0.801173
0.801172
0.801172
0.801172
0.801172
0.801172
0.801172
0.801172
0.801172
0.801172
0.801172
0.801172
0.801172
0.801172
0.801172
0.801172
0.801172
0.801172
0.801172
0.801172
0.801172
0.801172
0.801172
0.801172
0.801172
0.801172
0.801172
0.801172
0.801172
0.801172
0.801172
0.801172
0.801172
0.801172
0.801172
0.801172
0.801172
0.801172
0.801172
0.801172
0.801172
0.801172
0.801172
0.801172
0.801172
0.801172
0.801172
0.801172
0.801172
0.801172
0.801172
0.801172
0.801172
0.801172
0.801172
0.801172
0.801172
0.801172
0.801172
0.801172
0.801172
0.801172
0.801172
0.801172
0.801172
0.801172
0.801172
0.801172
0.801172
0.801172
0.801172
0.801172
0.801172
0.801172
0.801172
0.801172
0.801172
0.801172
0.801172
0.801172
0.801172
0.801172
0.801172
0.801172
0.801172
0.801172
0.801172
0.801172
0.801172
0.801172
0.801172
0.801172
0.801172
0.801172
0.801172
0.801172
0.801172
0.801172
0.801172
0.801172
0.801172
0.801172
0.801172
0.801172
0.801172
0.801172
0.801172
0.801172
0.801172
0.801172
0.801172
0.801172
0.801172
0.801172
0.801172
0.801172
0.801172
0.801172
0.801172
0.801172
0.801172
0.801172
0.801172
0.801172
0.801172
0.801172
0.801172
0.801172
0.801172
0.801172
0.801172
0.801172
0.801172
0.801172
0.801172
0.801172
0.801172
0.801172
0.801172
0.801172
0.801172
0.801172
0.801172
0.801172
0.801172
0.801172
0.801172
0.801172
0.801172
0.801172
0.801172
0.801172
0.801172
0.801172
0.801172
0.801172
0.801172
0.801172
0.801172
0.801172
0.801172
0.801172
0.801172
0.801172
0.801172
0.801173
0.0047905
0.0050506
0.00449081
0.00441817
0.00447813
0.00452804
0.00456374
0.00459559
0.00462651
0.00465636
0.00468672
0.0047174
0.00474724
0.00477702
0.00480606
0.00483376
0.00486012
0.00488494
0.00490867
0.00493197
0.00495479
0.00497605
0.00499304
0.00500309
0.00500617
0.00500634
0.00500705
0.00500784
0.00500911
0.00501073
0.00501209
0.00501298
0.00501396
0.00501492
0.00501569
0.00501633
0.0050163
0.00501485
0.00501106
0.00500556
0.00500044
0.00499299
0.00498322
0.00497186
0.00495884
0.00494407
0.00492785
0.00491103
0.00489378
0.00487642
0.0048592
0.00484221
0.00482621
0.00481194
0.00479994
0.00479008
0.00478182
0.00477441
0.0047682
0.00476377
0.0047593
0.00475686
0.00475809
0.00476457
0.004778
0.00479878
0.00482608
0.00486316
0.0049162
0.00499344
0.00510657
0.00527322
0.00553218
0.00595724
0.00663904
0.0077667
0.0096536
0.0124522
0.0110061
0.00561441
0.00464944
0.00316981
0.00331867
0.00293812
0.00301435
0.00346523
0.00372045
0.00389934
0.0035627
0.00364246
0.00356476
0.00370721
0.00366884
0.00374863
0.00375726
0.00375196
0.00375638
0.00374419
0.00381402
0.0038005
0.00374222
0.00364289
0.0036384
0.00372815
0.00371955
0.00375329
0.00377173
0.00378996
0.00381192
0.00382055
0.00382318
0.0038352
0.00385012
0.00386573
0.00389462
0.00388441
0.00403755
0.00399144
0.00389199
0.00369976
0.00368509
0.00385676
0.00383389
0.00390481
0.00392919
0.00396409
0.00397847
0.00398431
0.00399365
0.00400622
0.004019
0.00403255
0.00404642
0.0040576
0.00406964
0.00408214
0.00409501
0.00410887
0.0041208
0.00413159
0.00414313
0.00415527
0.00416787
0.00418003
0.00419311
0.00420513
0.00421521
0.0042253
0.00423624
0.00424775
0.00425867
0.00426964
0.00427961
0.00428843
0.00429697
0.00430632
0.00431632
0.00432555
0.00433455
0.00434229
0.00434869
0.00435458
0.00436012
0.0043655
0.00437131
0.00437749
0.0043829
0.00438667
0.00439084
0.00439365
0.00439467
0.00439514
0.00439505
0.00439513
0.00439477
0.0043937
0.00439301
0.00439259
0.00439183
0.00439087
0.00439016
0.00438947
0.00438832
0.00438724
0.00438652
0.00438601
0.00438532
0.00438445
0.00438369
0.00438304
0.00438222
0.00438136
0.00438049
0.00437974
0.00437916
0.00437853
0.00437781
0.00437713
0.00437646
0.00437571
0.00437495
0.00437417
0.0043733
0.00437235
0.00437135
0.00437021
0.00436887
0.00436749
0.00436604
0.00436438
0.00436272
0.00436148
0.00436062
0.00435972
0.00435869
0.00435785
0.00435715
0.00435617
0.00435483
0.00435353
0.00435248
0.00435138
0.00435009
0.00434891
0.00434803
0.00434716
0.00434598
0.0043446
0.00434328
0.00434199
0.00434064
0.00433927
0.00433796
0.00433667
0.00433536
0.00433416
0.00433311
0.00433207
0.00433082
0.00432938
0.00432791
0.00432657
0.00432539
0.00432438
0.0043235
0.0043226
0.00432156
0.00432043
0.00431945
0.0043187
0.00431793
0.0043168
0.00431536
0.00431403
0.00431309
0.00431228
0.00431115
0.00430961
0.00430804
0.00430685
0.00430605
0.0043054
0.00430476
0.00430411
0.00430344
0.00430264
0.00430176
0.00430086
0.00429991
0.00429877
0.00429747
0.00429629
0.00429535
0.00429456
0.00429386
0.00429322
0.00429268
0.00429218
0.00429173
0.00429137
0.00429107
0.00429067
0.00429003
0.00428915
0.00428817
0.00428719
0.00428621
0.00428518
0.0042841
0.00428302
0.00428203
0.00428115
0.00428038
0.00427978
0.00427937
0.0042791
0.00427885
0.00427853
0.00427813
0.00427768
0.00427724
0.00427678
0.00427621
0.0042755
0.00427463
0.00427368
0.00427274
0.00427188
0.00427115
0.00427057
0.00427015
0.00426986
0.0042697
0.00426958
0.00426946
0.00426927
0.00426896
0.00426851
0.00426792
0.00426725
0.00426655
0.00426583
0.00426508
0.00426433
0.00426367
0.00426326
0.00426324
0.00426346
0.00426367
0.00426367
0.00426346
0.00426317
0.0042628
0.00426216
0.0042612
0.00426014
0.00425937
0.00425903
0.00425891
0.00425881
0.00425883
0.0042591
0.00425953
0.00425983
0.00425985
0.00425968
0.00425942
0.00425904
0.00425852
0.00425804
0.00425775
0.00425764
0.0042577
0.00425797
0.00425837
0.00425871
0.00425879
0.00425862
0.00425833
0.00425794
0.00425745
0.00425698
0.00425673
0.0042568
0.0042571
0.00425746
0.00425776
0.00425793
0.00425793
0.00425768
0.00425721
0.00425667
0.00425624
0.00425601
0.00425592
0.00425588
0.00425584
0.00425581
0.00425574
0.00425546
0.00425491
0.00425427
0.0042538
0.00425366
0.00425382
0.00425419
0.00425454
0.00425468
0.00425455
0.00425422
0.00425382
0.00425352
0.00425347
0.00425372
0.00425417
0.00425467
0.00425506
0.00425513
0.00425479
0.00425419
0.00425367
0.00425346
0.00425349
0.00425355
0.00425362
0.00425365
0.00425342
0.00425301
0.00425274
0.00425277
0.004253
0.00425321
0.00425317
0.00425288
0.00425259
0.00425239
0.00425225
0.00425228
0.00425236
0.0042523
0.00425212
0.00425246
0.004253
0.00425327
0.00425348
0.00425308
0.00425261
0.00425242
0.00425227
0.00425233
0.00425194
0.00425143
0.00425062
0.00425054
0.0042506
0.0042511
0.00425154
0.00425117
0.00425134
0.0042506
0.004251
0.00425258
0.00425246
0.00425232
0.00425129
0.00425182
0.00425173
0.00425078
0.00425073
0.0042506
0.00425078
0.00425065
0.00425084
0.00425106
0.00425211
0.00425113
0.00425056
0.00425137
0.00425054
0.00425039
0.00425065
0.00425069
0.00425185
0.00425049
0.00425274
0.00425036
0.00425043
0.00425109
0.00425139
0.00425215
0.00425378
0.00425154
0.00425402
0.00425442
0.00425431
0.00425536
0.00425678
0.00425761
0.00425803
0.00425833
0.00425792
0.00425652
0.00425498
0.00425436
0.00425466
0.00425484
0.00425429
0.00425317
0.00425221
0.00425174
0.00425187
0.00425261
0.00425372
0.00425478
0.00425567
0.00425621
0.00425636
0.00425609
0.00425529
0.00425386
0.00425172
0.00425028
0.00425024
0.00425022
0.00425021
0.0042502
0.0042502
0.0042502
0.0042502
0.0042502
0.00425021
0.00425024
0.00425031
0.00425045
0.00425078
0.00425127
0.00425118
0.00425075
0.0042505
0.00425041
0.00425033
0.0042503
0.00425033
0.00425044
0.00425069
0.00425165
0.00425063
0.00425043
0.00425036
0.00425054
0.00425599
0.00426135
0.0042591
0.00425157
0.00425071
0.00425572
0.00426182
0.0042584
0.00425059
0.00425043
0.00425069
0.00425092
0.00425033
0.00425022
0.0042506
0.00425593
0.00425315
0.00426082
0.00426081
0.00423343
0.00144629
0.00137164
0.00109412
0.00103766
0.00103846
0.0010394
0.00104093
0.00104215
0.0010433
0.00104442
0.00104551
0.00104657
0.0010475
0.00104841
0.00104928
0.00105013
0.00105093
0.00105158
0.00105215
0.00105267
0.00105314
0.00105354
0.00105385
0.00105405
0.00105415
0.00105422
0.00105426
0.00105424
0.00105417
0.0010541
0.00105397
0.00105378
0.00105354
0.00105327
0.00105298
0.00105268
0.00105235
0.00105202
0.00105169
0.00105139
0.00105108
0.00105072
0.00105026
0.00104979
0.00104928
0.0010487
0.00104808
0.00104745
0.00104684
0.00104625
0.00104569
0.00104515
0.00104463
0.00104413
0.00104363
0.00104311
0.00104256
0.00104198
0.00104141
0.00104084
0.00104029
0.00103978
0.00103936
0.00103904
0.00103881
0.0010387
0.0010387
0.00103885
0.00103918
0.0010397
0.0010405
0.0010417
0.00104353
0.00104647
0.00105137
0.00105967
0.00107449
0.00110203
0.00109847
0.00106338
0.00105925
0.0010599
0.00105811
0.00111122
0.00110427
0.00105818
0.00104956
0.00104173
0.00101429
0.00101801
0.00101077
0.00101116
0.00101074
0.00101135
0.00101054
0.00101079
0.00101077
0.00101057
0.00101078
0.00101078
0.00101036
0.00101004
0.00101001
0.00101023
0.00101026
0.00101028
0.00101009
0.00101013
0.00101008
0.00101002
0.00100998
0.00101011
0.00101008
0.00101005
0.0010101
0.00100995
0.00101055
0.00101047
0.00100985
0.00100922
0.00100895
0.00100938
0.00100939
0.00100957
0.00100939
0.00100947
0.00100966
0.00100967
0.00101023
0.00101032
0.00101025
0.00101032
0.00101036
0.00101042
0.00101055
0.00101065
0.00101067
0.0010107
0.00101074
0.00101079
0.00101085
0.00101094
0.00101105
0.00101118
0.00101129
0.00101134
0.00101137
0.00101143
0.0010115
0.0010116
0.00101171
0.00101184
0.00101191
0.00101198
0.00101206
0.00101211
0.00101218
0.00101227
0.00101236
0.00101247
0.00101257
0.00101263
0.0010127
0.00101277
0.00101282
0.00101289
0.00101297
0.00101305
0.00101315
0.00101321
0.00101325
0.00101329
0.00101334
0.00101337
0.00101341
0.00101345
0.00101351
0.00101352
0.00101351
0.00101352
0.00101353
0.00101354
0.00101355
0.00101358
0.00101357
0.00101356
0.00101355
0.00101354
0.00101354
0.00101353
0.00101353
0.00101354
0.00101354
0.00101353
0.00101354
0.00101355
0.00101356
0.00101357
0.00101357
0.00101357
0.00101359
0.00101361
0.00101364
0.00101368
0.00101371
0.00101374
0.00101376
0.00101378
0.00101379
0.00101381
0.00101383
0.00101386
0.00101391
0.00101396
0.00101401
0.00101406
0.0010141
0.00101414
0.00101417
0.00101421
0.00101424
0.00101429
0.00101433
0.00101439
0.00101445
0.0010145
0.00101454
0.00101458
0.00101462
0.00101465
0.00101468
0.00101471
0.00101475
0.00101479
0.00101484
0.00101491
0.00101497
0.00101502
0.00101506
0.00101509
0.00101512
0.00101514
0.00101517
0.00101519
0.00101522
0.00101524
0.00101528
0.00101532
0.00101538
0.00101543
0.00101548
0.00101551
0.00101555
0.00101559
0.00101563
0.00101565
0.00101565
0.00101566
0.00101568
0.00101571
0.00101576
0.0010158
0.00101584
0.00101589
0.00101593
0.00101598
0.001016
0.00101603
0.00101604
0.00101605
0.00101606
0.00101607
0.00101609
0.0010161
0.00101612
0.00101614
0.00101616
0.00101619
0.00101622
0.00101624
0.00101626
0.00101628
0.00101629
0.00101629
0.00101629
0.00101629
0.00101629
0.00101628
0.00101627
0.00101626
0.00101625
0.00101625
0.00101624
0.00101623
0.00101623
0.00101622
0.00101622
0.00101622
0.00101621
0.00101621
0.0010162
0.0010162
0.00101619
0.00101619
0.00101618
0.00101617
0.00101616
0.00101616
0.00101615
0.00101614
0.00101614
0.00101614
0.00101614
0.00101613
0.00101613
0.00101613
0.00101612
0.00101612
0.00101611
0.00101611
0.0010161
0.0010161
0.00101609
0.00101609
0.00101608
0.00101608
0.00101608
0.00101608
0.00101608
0.00101608
0.00101607
0.00101607
0.00101607
0.00101606
0.00101605
0.00101605
0.00101604
0.00101604
0.00101604
0.00101604
0.00101604
0.00101604
0.00101604
0.00101604
0.00101604
0.00101604
0.00101604
0.00101603
0.00101603
0.00101603
0.00101602
0.00101602
0.00101602
0.00101602
0.00101603
0.00101603
0.00101603
0.00101603
0.00101602
0.00101602
0.00101602
0.00101601
0.00101601
0.00101601
0.00101601
0.00101602
0.00101602
0.00101602
0.00101602
0.00101602
0.00101601
0.00101601
0.00101601
0.001016
0.001016
0.001016
0.001016
0.001016
0.001016
0.001016
0.00101599
0.00101599
0.00101599
0.00101598
0.00101599
0.00101599
0.00101599
0.00101599
0.00101599
0.00101598
0.00101598
0.00101598
0.00101598
0.00101598
0.00101599
0.00101599
0.00101599
0.00101599
0.00101599
0.00101598
0.00101598
0.00101598
0.00101598
0.00101598
0.00101598
0.00101598
0.00101598
0.00101597
0.00101597
0.00101597
0.00101597
0.00101597
0.00101597
0.00101597
0.00101597
0.00101597
0.00101597
0.00101597
0.00101597
0.00101597
0.00101597
0.00101597
0.00101597
0.00101597
0.00101598
0.00101597
0.00101597
0.00101597
0.00101597
0.00101597
0.00101596
0.00101596
0.00101595
0.00101595
0.00101595
0.00101596
0.00101596
0.00101596
0.00101596
0.00101595
0.00101596
0.00101597
0.00101597
0.00101597
0.00101596
0.00101596
0.00101596
0.00101595
0.00101595
0.00101595
0.00101596
0.00101595
0.00101595
0.00101596
0.00101596
0.00101596
0.00101595
0.00101596
0.00101595
0.00101595
0.00101595
0.00101596
0.00101597
0.00101595
0.00101596
0.00101595
0.00101595
0.00101596
0.00101596
0.00101598
0.00101597
0.00101596
0.00101598
0.00101599
0.00101599
0.001016
0.00101601
0.00101601
0.00101601
0.00101601
0.00101601
0.001016
0.00101599
0.00101599
0.00101599
0.00101599
0.00101598
0.00101597
0.00101596
0.00101596
0.00101596
0.00101597
0.00101598
0.00101599
0.001016
0.001016
0.001016
0.00101599
0.00101598
0.00101597
0.00101596
0.00101595
0.00101595
0.00101595
0.00101595
0.00101595
0.00101595
0.00101595
0.00101595
0.00101595
0.00101595
0.00101595
0.00101595
0.00101595
0.00101596
0.00101596
0.00101596
0.00101596
0.00101595
0.00101595
0.00101595
0.00101595
0.00101595
0.00101595
0.00101596
0.00101596
0.00101596
0.00101595
0.00101595
0.00101596
0.00101601
0.00101603
0.001016
0.00101596
0.00101597
0.00101601
0.00101604
0.00101599
0.00101596
0.00101596
0.00101597
0.00101596
0.00101595
0.00101595
0.00101596
0.00101599
0.00101598
0.00101602
0.001016
0.00101583
0.00145344
0.00136577
0.00108742
0.00103127
0.00103171
0.00103205
0.001033
0.00103382
0.00103466
0.00103548
0.00103628
0.00103703
0.00103771
0.00103842
0.00103913
0.00103981
0.00104039
0.00104084
0.0010412
0.00104153
0.0010418
0.00104202
0.00104217
0.00104227
0.00104233
0.00104238
0.00104238
0.00104234
0.00104228
0.00104217
0.00104199
0.00104177
0.00104149
0.00104115
0.00104078
0.00104037
0.00103993
0.00103948
0.00103902
0.0010386
0.00103822
0.00103785
0.00103747
0.00103712
0.00103676
0.00103636
0.00103593
0.00103546
0.00103498
0.00103447
0.00103394
0.00103341
0.00103288
0.00103234
0.00103179
0.00103124
0.00103067
0.0010301
0.00102954
0.001029
0.00102847
0.00102798
0.00102751
0.00102707
0.00102667
0.0010263
0.00102596
0.00102563
0.00102529
0.00102493
0.0010245
0.00102396
0.00102328
0.00102239
0.00102123
0.00101973
0.00101792
0.00101579
0.00101374
0.00101199
0.00101166
0.0010145
0.00102413
0.00103001
0.00104309
0.00104821
0.00105855
0.00109807
0.00109274
0.00104469
0.00104061
0.00101046
0.00101227
0.00100525
0.00100487
0.00100476
0.00100499
0.00100411
0.00100437
0.00100406
0.00100388
0.0010038
0.00100379
0.00100373
0.00100364
0.00100364
0.00100357
0.00100354
0.00100368
0.00100358
0.00100311
0.00100303
0.00100282
0.00100274
0.00100262
0.00100255
0.00100244
0.00100234
0.00100225
0.00100229
0.00100219
0.00100211
0.00100199
0.00100197
0.00100186
0.00100239
0.00100234
0.00100167
0.00100166
0.00100149
0.00100146
0.00100138
0.00100133
0.0010012
0.00100114
0.00100109
0.00100106
0.00100101
0.00100097
0.00100092
0.00100087
0.00100083
0.00100079
0.00100076
0.00100072
0.00100068
0.00100064
0.00100061
0.00100058
0.00100055
0.00100052
0.00100048
0.00100046
0.00100043
0.00100041
0.00100038
0.00100036
0.00100034
0.00100033
0.00100031
0.0010003
0.00100028
0.00100027
0.00100026
0.00100024
0.00100023
0.00100023
0.00100022
0.00100021
0.0010002
0.00100019
0.00100019
0.00100018
0.00100018
0.00100017
0.00100017
0.00100016
0.00100016
0.00100016
0.00100015
0.00100015
0.00100014
0.00100014
0.00100014
0.00100014
0.00100013
0.00100013
0.00100013
0.00100013
0.00100013
0.00100012
0.00100012
0.00100012
0.00100012
0.00100012
0.00100012
0.00100011
0.00100011
0.00100011
0.00100011
0.00100011
0.00100011
0.0010001
0.0010001
0.0010001
0.0010001
0.0010001
0.0010001
0.0010001
0.0010001
0.0010001
0.00100009
0.00100009
0.00100009
0.00100009
0.00100009
0.00100009
0.00100009
0.00100009
0.00100008
0.00100008
0.00100008
0.00100008
0.00100008
0.00100008
0.00100008
0.00100007
0.00100007
0.00100007
0.00100007
0.00100007
0.00100007
0.00100007
0.00100007
0.00100007
0.00100006
0.00100006
0.00100006
0.00100006
0.00100006
0.00100006
0.00100006
0.00100006
0.00100006
0.00100006
0.00100006
0.00100005
0.00100005
0.00100005
0.00100005
0.00100005
0.00100005
0.00100005
0.00100005
0.00100005
0.00100005
0.00100005
0.00100005
0.00100005
0.00100005
0.00100005
0.00100005
0.00100004
0.00100004
0.00100004
0.00100004
0.00100004
0.00100004
0.00100004
0.00100004
0.00100004
0.00100004
0.00100004
0.00100004
0.00100004
0.00100004
0.00100004
0.00100004
0.00100004
0.00100004
0.00100004
0.00100004
0.00100004
0.00100003
0.00100003
0.00100003
0.00100003
0.00100003
0.00100003
0.00100003
0.00100003
0.00100003
0.00100003
0.00100003
0.00100003
0.00100003
0.00100003
0.00100003
0.00100003
0.00100003
0.00100003
0.00100003
0.00100003
0.00100003
0.00100003
0.00100003
0.00100003
0.00100003
0.00100003
0.00100003
0.00100002
0.00100002
0.00100002
0.00100002
0.00100002
0.00100002
0.00100002
0.00100002
0.00100002
0.00100002
0.00100002
0.00100002
0.00100002
0.00100002
0.00100002
0.00100002
0.00100002
0.00100002
0.00100002
0.00100002
0.00100002
0.00100002
0.00100002
0.00100002
0.00100002
0.00100002
0.00100002
0.00100002
0.00100002
0.00100002
0.00100002
0.00100002
0.00100002
0.00100002
0.00100002
0.00100002
0.00100002
0.00100002
0.00100002
0.00100002
0.00100002
0.00100002
0.00100002
0.00100002
0.00100002
0.00100002
0.00100002
0.00100002
0.00100002
0.00100002
0.00100002
0.00100002
0.00100002
0.00100002
0.00100002
0.00100002
0.00100002
0.00100002
0.00100002
0.00100002
0.00100002
0.00100002
0.00100002
0.00100002
0.00100002
0.00100002
0.00100002
0.00100002
0.00100002
0.00100002
0.00100002
0.00100002
0.00100002
0.00100002
0.00100002
0.00100002
0.00100002
0.00100002
0.00100002
0.00100002
0.00100002
0.00100002
0.00100002
0.00100002
0.00100002
0.00100002
0.00100002
0.00100002
0.00100002
0.00100002
0.00100002
0.00100002
0.00100002
0.00100002
0.00100002
0.00100002
0.00100002
0.00100002
0.00100002
0.00100002
0.00100002
0.00100002
0.00100002
0.00100002
0.00100002
0.00100002
0.00100002
0.00100002
0.00100002
0.00100002
0.00100002
0.00100002
0.00100002
0.00100002
0.00100002
0.00100002
0.00100002
0.00100002
0.00100002
0.00100002
0.00100002
0.00100002
0.00100002
0.00100002
0.00100002
0.00100001
0.00100001
0.00100001
0.00100001
0.00100001
0.00100001
0.00100001
0.00100001
0.00100001
0.00100001
0.00100001
0.00100001
0.00100001
0.00100001
0.00100001
0.00100001
0.00100001
0.00100001
0.00100001
0.00100001
0.00100001
0.00100001
0.00100002
0.00100001
0.00100002
0.00100002
0.00100001
0.00100001
0.00100001
0.00100001
0.00100001
0.00100001
0.00100001
0.00100001
0.00100001
0.00100001
0.00100001
0.00100001
0.00100001
0.00100001
0.00100001
0.00100001
0.00100001
0.00100001
0.00100001
0.00100001
0.00100001
0.00100001
0.00100001
0.00100001
0.00100001
0.00100001
0.00100001
0.00100001
0.00100001
0.00100001
0.00100001
0.00100001
0.00100001
0.00100001
0.00100001
0.00100001
0.00100001
0.00100002
0.00100002
0.00100002
0.00100002
0.00100002
0.00100002
0.00100002
0.00100002
0.00100002
0.00100002
0.00100002
0.00100002
0.00100002
0.00100002
0.00100002
0.00100002
0.00100002
0.00100002
0.00100002
0.00100002
0.00100002
0.00100002
0.00100002
0.00100002
0.00100002
0.00100002
0.00100002
0.00100002
0.00100002
0.00100002
0.00100002
0.00100002
0.00100002
0.00100002
0.00100002
0.00100002
0.00100002
0.00100002
0.00100002
0.00100002
0.00100002
0.00100002
0.00100002
0.00100002
0.00100002
0.00100002
0.00100002
0.00100002
0.00100002
0.00100002
0.00100002
0.00100002
0.00147433
0.00136788
0.0010885
0.00103219
0.00103246
0.00103271
0.00103355
0.00103432
0.00103511
0.00103591
0.00103671
0.00103749
0.00103825
0.00103902
0.00103977
0.00104046
0.00104104
0.00104151
0.00104191
0.00104225
0.00104254
0.00104277
0.00104294
0.00104306
0.00104312
0.00104315
0.00104315
0.00104311
0.00104304
0.00104295
0.00104283
0.00104267
0.00104245
0.00104215
0.00104178
0.00104134
0.00104083
0.00104026
0.00103969
0.00103915
0.00103866
0.00103823
0.00103784
0.00103748
0.00103711
0.00103675
0.00103635
0.0010359
0.00103539
0.00103484
0.00103422
0.00103361
0.00103299
0.00103236
0.00103177
0.00103119
0.00103063
0.0010301
0.00102958
0.00102909
0.00102861
0.00102812
0.00102763
0.00102714
0.00102665
0.00102615
0.00102567
0.00102519
0.00102469
0.00102415
0.00102354
0.00102283
0.00102197
0.00102093
0.00101974
0.00101837
0.00101688
0.00101534
0.00101386
0.00101252
0.00101131
0.00101049
0.0010102
0.00101326
0.00101795
0.00102082
0.00102751
0.0010314
0.00104701
0.0010476
0.00109417
0.00108795
0.00104305
0.00103959
0.00100957
0.00101135
0.00100506
0.00100469
0.00100459
0.00100484
0.00100392
0.00100414
0.00100386
0.00100371
0.0010036
0.00100358
0.0010035
0.00100348
0.00100337
0.00100333
0.0010032
0.00100341
0.00100328
0.00100283
0.00100275
0.00100257
0.0010025
0.00100238
0.00100229
0.00100217
0.00100207
0.001002
0.00100203
0.00100194
0.00100189
0.00100177
0.00100181
0.00100169
0.00100225
0.00100221
0.00100153
0.00100152
0.00100131
0.0010013
0.00100114
0.00100114
0.00100109
0.00100099
0.00100094
0.00100091
0.00100086
0.00100082
0.00100078
0.00100074
0.0010007
0.00100066
0.00100063
0.00100059
0.00100056
0.00100053
0.0010005
0.00100046
0.00100043
0.00100041
0.00100038
0.00100036
0.00100034
0.00100032
0.0010003
0.00100028
0.00100026
0.00100025
0.00100024
0.00100022
0.00100021
0.0010002
0.00100019
0.00100018
0.00100017
0.00100016
0.00100016
0.00100015
0.00100014
0.00100014
0.00100013
0.00100013
0.00100012
0.00100012
0.00100012
0.00100011
0.00100011
0.0010001
0.0010001
0.0010001
0.0010001
0.00100009
0.00100009
0.00100009
0.00100009
0.00100008
0.00100008
0.00100008
0.00100008
0.00100008
0.00100008
0.00100007
0.00100007
0.00100007
0.00100007
0.00100006
0.00100006
0.00100006
0.00100006
0.00100006
0.00100006
0.00100006
0.00100005
0.00100005
0.00100005
0.00100005
0.00100005
0.00100005
0.00100004
0.00100004
0.00100004
0.00100004
0.00100004
0.00100003
0.00100003
0.00100003
0.00100003
0.00100003
0.00100002
0.00100002
0.00100002
0.00100002
0.00100002
0.00100002
0.00100002
0.00100001
0.00100001
0.00100001
0.00100001
0.00100001
0.00100001
0.001
0.001
0.001
0.000999999
0.000999998
0.000999997
0.000999995
0.000999994
0.000999993
0.000999991
0.000999989
0.000999988
0.000999987
0.000999986
0.000999985
0.000999984
0.000999983
0.000999983
0.000999982
0.000999981
0.000999979
0.000999978
0.000999977
0.000999977
0.000999976
0.000999975
0.000999974
0.000999973
0.000999972
0.000999971
0.00099997
0.000999969
0.000999968
0.000999968
0.000999967
0.000999966
0.000999966
0.000999965
0.000999964
0.000999963
0.000999962
0.000999961
0.000999961
0.00099996
0.000999959
0.000999959
0.000999958
0.000999958
0.000999957
0.000999957
0.000999956
0.000999956
0.000999956
0.000999955
0.000999955
0.000999955
0.000999954
0.000999954
0.000999953
0.000999953
0.000999952
0.000999951
0.000999951
0.000999951
0.00099995
0.00099995
0.00099995
0.000999949
0.000999949
0.000999949
0.000999949
0.000999949
0.000999949
0.000999949
0.000999949
0.000999948
0.000999948
0.000999948
0.000999948
0.000999948
0.000999947
0.000999947
0.000999947
0.000999947
0.000999947
0.000999947
0.000999947
0.000999947
0.000999947
0.000999947
0.000999947
0.000999947
0.000999946
0.000999946
0.000999946
0.000999946
0.000999946
0.000999946
0.000999946
0.000999946
0.000999946
0.000999946
0.000999946
0.000999945
0.000999945
0.000999945
0.000999945
0.000999945
0.000999945
0.000999945
0.000999944
0.000999944
0.000999944
0.000999944
0.000999944
0.000999944
0.000999944
0.000999944
0.000999944
0.000999944
0.000999944
0.000999943
0.000999943
0.000999943
0.000999943
0.000999943
0.000999943
0.000999943
0.000999943
0.000999943
0.000999943
0.000999943
0.000999943
0.000999942
0.000999942
0.000999942
0.000999942
0.000999942
0.000999942
0.000999942
0.000999942
0.000999942
0.000999942
0.000999942
0.000999942
0.000999942
0.000999942
0.000999942
0.000999942
0.000999942
0.000999942
0.000999941
0.000999941
0.000999941
0.000999941
0.000999941
0.000999941
0.000999941
0.000999941
0.000999941
0.000999941
0.000999941
0.000999941
0.000999941
0.000999941
0.000999941
0.000999941
0.000999941
0.000999941
0.000999941
0.000999941
0.000999941
0.00099994
0.00099994
0.00099994
0.00099994
0.00099994
0.00099994
0.00099994
0.00099994
0.00099994
0.00099994
0.00099994
0.00099994
0.00099994
0.00099994
0.00099994
0.00099994
0.00099994
0.00099994
0.00099994
0.00099994
0.00099994
0.00099994
0.00099994
0.00099994
0.00099994
0.00099994
0.00099994
0.00099994
0.00099994
0.00099994
0.00099994
0.00099994
0.00099994
0.00099994
0.00099994
0.00099994
0.00099994
0.00099994
0.00099994
0.00099994
0.00099994
0.00099994
0.00099994
0.00099994
0.00099994
0.00099994
0.000999941
0.00099994
0.00099994
0.000999942
0.000999941
0.000999939
0.000999939
0.000999939
0.000999938
0.000999938
0.000999938
0.000999938
0.000999938
0.000999938
0.000999938
0.000999938
0.000999938
0.000999938
0.000999938
0.000999937
0.000999937
0.000999937
0.000999937
0.000999937
0.000999937
0.000999937
0.000999937
0.000999938
0.000999938
0.000999938
0.000999938
0.000999938
0.000999938
0.000999938
0.000999938
0.000999939
0.000999939
0.000999939
0.000999939
0.000999939
0.000999939
0.000999939
0.000999939
0.00099994
0.00099994
0.00099994
0.00099994
0.00099994
0.000999941
0.000999941
0.000999941
0.000999941
0.000999941
0.000999942
0.000999942
0.000999942
0.000999942
0.000999942
0.000999942
0.000999942
0.000999942
0.000999942
0.000999943
0.000999943
0.000999943
0.000999943
0.000999943
0.000999943
0.000999943
0.000999943
0.000999943
0.000999943
0.000999943
0.000999943
0.000999943
0.000999943
0.000999943
0.000999943
0.000999943
0.000999943
0.000999943
0.000999943
0.000999943
0.000999943
0.000999944
0.000999943
0.000999943
0.000999943
0.000999945
0.000999943
0.000999943
0.000999943
0.000999943