/*--------------------------------*- C++ -*----------------------------------*\
| =========                 |                                                 |
| \\      /  F ield         | OpenFOAM: The Open Source CFD Toolbox           |
|  \\    /   O peration     | Version:  v2006                                 |
|   \\  /    A nd           | Website:  www.openfoam.com                      |
|    \\/     M anipulation  |                                                 |
\*---------------------------------------------------------------------------*/
FoamFile
{
    version     2.0;
    format      ascii;
    class       volScalarField;
    location    "0.8";
    object      p;
}
// * * * * * * * * * * * * * * * * * * * * * * * * * * * * * * * * * * * * * //

dimensions      [1 -1 -2 0 0 0 0];


internalField   nonuniform List<scalar> 
33000
(
7659.72
7660.44
7660.74
7661.06
7661.41
7661.77
7662.16
7662.57
7663
7663.46
7663.93
7664.42
7664.93
7665.46
7666.01
7666.57
7667.15
7667.75
7668.37
7669.01
7669.66
7670.33
7671.01
7671.71
7672.42
7673.14
7673.88
7674.63
7675.4
7676.17
7676.96
7677.76
7678.56
7679.38
7680.2
7681.03
7681.86
7682.71
7683.55
7684.41
7685.26
7686.12
7686.99
7687.85
7688.72
7689.59
7690.46
7691.32
7692.19
7693.05
7693.91
7694.77
7695.62
7696.47
7697.31
7698.14
7698.97
7699.79
7700.6
7701.39
7702.18
7702.96
7703.73
7704.48
7705.23
7705.96
7706.68
7707.38
7708.07
7708.74
7709.4
7710.03
7710.65
7711.25
7711.82
7712.35
7712.84
7713.27
7713.73
7714.58
7715.18
7715.78
7716.41
7717
7717.6
7718.22
7718.81
7719.39
7719.96
7720.53
7721.09
7721.64
7722.19
7722.74
7723.27
7723.81
7724.33
7724.85
7725.36
7725.86
7726.36
7726.86
7727.34
7727.81
7728.27
7728.73
7729.17
7729.61
7730.03
7730.45
7730.86
7731.26
7731.65
7732.03
7732.41
7732.77
7733.13
7733.48
7733.83
7734.16
7734.49
7734.82
7735.13
7735.44
7735.74
7736.03
7736.32
7736.6
7736.87
7737.13
7737.39
7737.64
7737.88
7738.12
7738.35
7738.57
7738.79
7739
7739.2
7739.4
7739.59
7739.77
7739.95
7740.12
7740.29
7740.45
7740.61
7740.76
7740.91
7741.05
7741.18
7741.31
7741.44
7741.56
7741.67
7741.79
7741.89
7742
7742.1
7742.19
7742.28
7742.37
7742.46
7742.54
7742.61
7742.69
7742.76
7742.83
7742.89
7742.95
7743.01
7743.07
7743.12
7743.17
7743.22
7743.26
7743.3
7743.35
7743.38
7743.42
7743.45
7743.48
7743.51
7743.54
7743.57
7743.59
7743.61
7743.63
7743.65
7743.67
7743.68
7743.7
7743.71
7743.72
7743.73
7743.73
7743.74
7743.74
7743.75
7743.75
7743.75
7743.75
7743.75
7743.75
7743.74
7743.74
7743.73
7743.72
7743.72
7743.71
7743.7
7743.69
7743.68
7743.67
7743.66
7743.64
7743.63
7743.62
7743.6
7743.59
7743.57
7743.56
7743.54
7743.52
7743.51
7743.49
7743.47
7743.46
7743.44
7743.42
7743.4
7743.39
7743.37
7743.35
7743.33
7743.31
7743.3
7743.28
7743.26
7743.24
7743.22
7743.21
7743.19
7743.17
7743.15
7743.13
7743.12
7743.1
7743.08
7743.06
7743.05
7743.03
7743.01
7743
7742.98
7742.96
7742.95
7742.93
7742.91
7742.9
7742.88
7742.87
7742.85
7742.84
7742.82
7742.81
7742.79
7742.78
7742.77
7742.75
7742.74
7742.73
7742.71
7742.7
7742.69
7742.67
7742.66
7742.65
7742.64
7742.63
7742.62
7742.6
7742.59
7742.58
7742.57
7742.56
7742.55
7742.54
7742.53
7742.52
7742.51
7742.5
7742.49
7742.48
7742.47
7742.47
7742.46
7742.45
7742.44
7742.43
7742.43
7742.42
7742.41
7742.4
7742.4
7742.39
7742.38
7742.38
7742.37
7742.36
7742.36
7742.35
7742.34
7742.34
7742.33
7742.33
7742.32
7742.32
7742.31
7742.31
7742.3
7742.3
7742.29
7742.29
7742.28
7742.28
7742.27
7742.27
7742.26
7742.26
7742.25
7742.25
7742.25
7742.24
7742.24
7742.23
7742.23
7742.23
7742.22
7742.22
7742.22
7742.21
7742.21
7742.21
7742.2
7742.2
7742.2
7742.19
7742.19
7742.19
7742.18
7742.18
7742.18
7742.18
7742.17
7742.17
7742.17
7742.16
7742.16
7742.16
7742.16
7742.15
7742.15
7742.15
7742.15
7742.15
7742.14
7742.14
7742.14
7742.14
7742.13
7742.13
7742.13
7742.13
7742.13
7742.13
7742.12
7742.12
7742.12
7742.12
7742.12
7742.11
7742.11
7742.11
7742.11
7742.11
7742.11
7742.11
7742.1
7742.1
7742.1
7742.1
7742.1
7742.1
7742.1
7742.1
7742.09
7742.09
7742.09
7742.09
7742.09
7742.09
7742.09
7742.09
7742.09
7742.08
7742.08
7742.08
7742.08
7742.08
7742.08
7742.08
7742.08
7742.08
7742.08
7742.08
7742.08
7742.08
7742.08
7742.07
7742.07
7742.07
7742.07
7742.07
7742.07
7742.07
7742.07
7742.07
7742.07
7742.07
7742.07
7742.07
7742.07
7742.07
7742.07
7742.07
7742.07
7742.07
7742.07
7742.07
7742.07
7742.06
7742.06
7742.06
7742.06
7742.06
7742.06
7742.06
7742.06
7742.06
7742.06
7742.06
7742.06
7742.06
7742.06
7742.06
7742.06
7742.06
7742.06
7742.06
7742.06
7742.06
7742.06
7742.06
7742.06
7742.06
7742.06
7742.06
7742.06
7742.06
7742.06
7742.06
7742.06
7742.06
7742.06
7742.06
7742.06
7742.06
7742.06
7742.06
7742.06
7742.06
7742.06
7742.06
7742.06
7742.06
7742.06
7742.06
7742.06
7742.06
7742.06
7742.06
7742.06
7742.06
7742.06
7742.06
7742.06
7742.06
7742.06
7742.06
7742.06
7742.06
7742.06
7742.06
7742.06
7742.06
7742.06
7742.06
7742.06
7742.06
7742.06
7742.06
7742.06
7742.06
7742.06
7742.06
7742.06
7742.06
7742.06
7742.06
7742.06
7742.06
7742.06
7742.06
7742.06
7742.06
7742.06
7742.06
7742.06
7742.06
7742.06
7742.06
7742.06
7742.06
7742.06
7742.06
7742.05
7742.05
7742.05
7742.05
7742.05
7742.05
7742.05
7742.05
7742.05
7742.05
7742.05
7742.05
7742.05
7742.05
7463.38
7464.1
7464.4
7464.74
7465.09
7465.47
7465.87
7466.29
7466.72
7467.18
7467.66
7468.15
7468.66
7469.19
7469.74
7470.31
7470.9
7471.5
7472.12
7472.76
7473.42
7474.09
7474.78
7475.48
7476.19
7476.92
7477.66
7478.42
7479.18
7479.96
7480.75
7481.55
7482.36
7483.18
7484
7484.83
7485.67
7486.52
7487.37
7488.23
7489.09
7489.95
7490.82
7491.69
7492.56
7493.42
7494.29
7495.16
7496.03
7496.89
7497.75
7498.61
7499.46
7500.31
7501.15
7501.99
7502.82
7503.64
7504.45
7505.25
7506.04
7506.82
7507.59
7508.34
7509.09
7509.82
7510.54
7511.25
7511.94
7512.61
7513.27
7513.91
7514.53
7515.14
7515.72
7516.29
7516.83
7517.36
7517.9
7518.42
7518.86
7519.36
7520.24
7520.86
7521.47
7522.07
7522.64
7523.21
7523.78
7524.36
7524.92
7525.48
7526.03
7526.58
7527.11
7527.65
7528.17
7528.69
7529.2
7529.71
7530.2
7530.69
7531.17
7531.65
7532.11
7532.57
7533.01
7533.45
7533.87
7534.29
7534.7
7535.1
7535.49
7535.87
7536.25
7536.61
7536.97
7537.32
7537.66
7538
7538.33
7538.65
7538.97
7539.27
7539.57
7539.86
7540.15
7540.43
7540.7
7540.96
7541.22
7541.47
7541.71
7541.95
7542.17
7542.4
7542.61
7542.82
7543.02
7543.22
7543.41
7543.59
7543.77
7543.95
7544.11
7544.27
7544.43
7544.58
7544.72
7544.86
7545
7545.13
7545.25
7545.37
7545.49
7545.6
7545.71
7545.81
7545.91
7546.01
7546.1
7546.18
7546.27
7546.35
7546.43
7546.5
7546.57
7546.64
7546.7
7546.76
7546.82
7546.87
7546.93
7546.98
7547.02
7547.07
7547.11
7547.15
7547.19
7547.22
7547.26
7547.29
7547.32
7547.35
7547.37
7547.39
7547.42
7547.44
7547.45
7547.47
7547.48
7547.5
7547.51
7547.52
7547.53
7547.53
7547.54
7547.54
7547.55
7547.55
7547.55
7547.55
7547.55
7547.55
7547.54
7547.54
7547.53
7547.52
7547.52
7547.51
7547.5
7547.49
7547.48
7547.47
7547.45
7547.44
7547.43
7547.41
7547.4
7547.39
7547.37
7547.36
7547.34
7547.32
7547.31
7547.29
7547.27
7547.26
7547.24
7547.22
7547.2
7547.18
7547.17
7547.15
7547.13
7547.11
7547.09
7547.08
7547.06
7547.04
7547.02
7547
7546.99
7546.97
7546.95
7546.93
7546.91
7546.9
7546.88
7546.86
7546.84
7546.83
7546.81
7546.79
7546.78
7546.76
7546.74
7546.73
7546.71
7546.7
7546.68
7546.67
7546.65
7546.64
7546.62
7546.61
7546.59
7546.58
7546.56
7546.55
7546.54
7546.52
7546.51
7546.5
7546.49
7546.47
7546.46
7546.45
7546.44
7546.43
7546.41
7546.4
7546.39
7546.38
7546.37
7546.36
7546.35
7546.34
7546.33
7546.32
7546.31
7546.3
7546.29
7546.28
7546.27
7546.27
7546.26
7546.25
7546.24
7546.23
7546.22
7546.22
7546.21
7546.2
7546.2
7546.19
7546.18
7546.17
7546.17
7546.16
7546.16
7546.15
7546.14
7546.14
7546.13
7546.13
7546.12
7546.11
7546.11
7546.1
7546.1
7546.09
7546.09
7546.08
7546.08
7546.07
7546.07
7546.07
7546.06
7546.06
7546.05
7546.05
7546.04
7546.04
7546.04
7546.03
7546.03
7546.03
7546.02
7546.02
7546.01
7546.01
7546.01
7546
7546
7546
7546
7545.99
7545.99
7545.99
7545.98
7545.98
7545.98
7545.97
7545.97
7545.97
7545.97
7545.96
7545.96
7545.96
7545.96
7545.95
7545.95
7545.95
7545.95
7545.94
7545.94
7545.94
7545.94
7545.94
7545.93
7545.93
7545.93
7545.93
7545.93
7545.92
7545.92
7545.92
7545.92
7545.92
7545.92
7545.91
7545.91
7545.91
7545.91
7545.91
7545.91
7545.91
7545.9
7545.9
7545.9
7545.9
7545.9
7545.9
7545.9
7545.9
7545.89
7545.89
7545.89
7545.89
7545.89
7545.89
7545.89
7545.89
7545.89
7545.88
7545.88
7545.88
7545.88
7545.88
7545.88
7545.88
7545.88
7545.88
7545.88
7545.88
7545.88
7545.88
7545.88
7545.87
7545.87
7545.87
7545.87
7545.87
7545.87
7545.87
7545.87
7545.87
7545.87
7545.87
7545.87
7545.87
7545.87
7545.87
7545.87
7545.87
7545.87
7545.87
7545.87
7545.87
7545.87
7545.86
7545.86
7545.86
7545.86
7545.86
7545.86
7545.86
7545.86
7545.86
7545.86
7545.86
7545.86
7545.86
7545.86
7545.86
7545.86
7545.86
7545.86
7545.86
7545.86
7545.86
7545.86
7545.86
7545.86
7545.86
7545.86
7545.86
7545.86
7545.86
7545.86
7545.86
7545.86
7545.86
7545.86
7545.86
7545.86
7545.86
7545.86
7545.86
7545.86
7545.86
7545.86
7545.86
7545.86
7545.86
7545.86
7545.86
7545.86
7545.86
7545.86
7545.86
7545.86
7545.86
7545.86
7545.86
7545.86
7545.86
7545.86
7545.86
7545.86
7545.86
7545.86
7545.86
7545.86
7545.86
7545.86
7545.86
7545.86
7545.86
7545.86
7545.86
7545.86
7545.86
7545.86
7545.86
7545.86
7545.86
7545.86
7545.86
7545.86
7545.86
7545.86
7545.86
7545.86
7545.86
7545.86
7545.86
7545.86
7545.86
7545.86
7545.86
7545.85
7545.85
7545.85
7545.85
7545.85
7545.85
7545.85
7545.85
7545.85
7545.85
7545.85
7545.85
7545.85
7545.85
7545.85
7545.85
7545.85
7545.85
7267.06
7267.77
7268.07
7268.4
7268.75
7269.12
7269.52
7269.94
7270.37
7270.83
7271.3
7271.8
7272.31
7272.85
7273.4
7273.97
7274.57
7275.18
7275.8
7276.45
7277.11
7277.79
7278.48
7279.19
7279.91
7280.64
7281.39
7282.15
7282.93
7283.71
7284.51
7285.31
7286.12
7286.95
7287.78
7288.61
7289.46
7290.31
7291.17
7292.03
7292.9
7293.77
7294.64
7295.51
7296.39
7297.26
7298.13
7299
7299.87
7300.74
7301.6
7302.46
7303.32
7304.17
7305.01
7305.85
7306.68
7307.5
7308.32
7309.12
7309.91
7310.7
7311.47
7312.23
7312.98
7313.71
7314.44
7315.14
7315.84
7316.52
7317.18
7317.82
7318.45
7319.07
7319.67
7320.25
7320.82
7321.38
7321.93
7322.49
7323.04
7323.59
7324.12
7324.57
7325.07
7325.94
7326.53
7327.14
7327.68
7328.24
7328.78
7329.33
7329.89
7330.44
7330.98
7331.51
7332.04
7332.56
7333.07
7333.57
7334.07
7334.56
7335.04
7335.51
7335.97
7336.42
7336.87
7337.31
7337.74
7338.15
7338.56
7338.96
7339.35
7339.73
7340.11
7340.47
7340.83
7341.18
7341.52
7341.86
7342.19
7342.51
7342.82
7343.13
7343.43
7343.72
7344
7344.28
7344.55
7344.81
7345.07
7345.31
7345.56
7345.79
7346.02
7346.24
7346.45
7346.66
7346.86
7347.06
7347.25
7347.43
7347.61
7347.78
7347.95
7348.11
7348.26
7348.41
7348.56
7348.69
7348.83
7348.96
7349.08
7349.2
7349.32
7349.43
7349.53
7349.64
7349.73
7349.83
7349.92
7350.01
7350.09
7350.17
7350.25
7350.32
7350.39
7350.45
7350.52
7350.58
7350.64
7350.69
7350.74
7350.79
7350.84
7350.88
7350.92
7350.96
7351
7351.04
7351.07
7351.1
7351.13
7351.16
7351.18
7351.2
7351.22
7351.24
7351.26
7351.28
7351.29
7351.3
7351.31
7351.32
7351.33
7351.34
7351.34
7351.35
7351.35
7351.35
7351.35
7351.35
7351.35
7351.35
7351.34
7351.34
7351.33
7351.32
7351.32
7351.31
7351.3
7351.29
7351.28
7351.27
7351.25
7351.24
7351.23
7351.21
7351.2
7351.18
7351.17
7351.15
7351.14
7351.12
7351.1
7351.09
7351.07
7351.05
7351.04
7351.02
7351
7350.98
7350.96
7350.95
7350.93
7350.91
7350.89
7350.87
7350.86
7350.84
7350.82
7350.8
7350.78
7350.76
7350.75
7350.73
7350.71
7350.69
7350.68
7350.66
7350.64
7350.62
7350.61
7350.59
7350.57
7350.56
7350.54
7350.53
7350.51
7350.49
7350.48
7350.46
7350.45
7350.43
7350.42
7350.4
7350.39
7350.38
7350.36
7350.35
7350.34
7350.32
7350.31
7350.3
7350.28
7350.27
7350.26
7350.25
7350.23
7350.22
7350.21
7350.2
7350.19
7350.18
7350.17
7350.16
7350.15
7350.14
7350.13
7350.12
7350.11
7350.1
7350.09
7350.08
7350.07
7350.06
7350.06
7350.05
7350.04
7350.03
7350.02
7350.02
7350.01
7350
7349.99
7349.99
7349.98
7349.97
7349.97
7349.96
7349.95
7349.95
7349.94
7349.94
7349.93
7349.92
7349.92
7349.91
7349.91
7349.9
7349.9
7349.89
7349.89
7349.88
7349.88
7349.87
7349.87
7349.86
7349.86
7349.86
7349.85
7349.85
7349.84
7349.84
7349.84
7349.83
7349.83
7349.82
7349.82
7349.82
7349.81
7349.81
7349.81
7349.8
7349.8
7349.8
7349.79
7349.79
7349.79
7349.78
7349.78
7349.78
7349.78
7349.77
7349.77
7349.77
7349.77
7349.76
7349.76
7349.76
7349.76
7349.75
7349.75
7349.75
7349.75
7349.74
7349.74
7349.74
7349.74
7349.74
7349.73
7349.73
7349.73
7349.73
7349.73
7349.72
7349.72
7349.72
7349.72
7349.72
7349.72
7349.71
7349.71
7349.71
7349.71
7349.71
7349.71
7349.71
7349.7
7349.7
7349.7
7349.7
7349.7
7349.7
7349.7
7349.69
7349.69
7349.69
7349.69
7349.69
7349.69
7349.69
7349.69
7349.69
7349.69
7349.68
7349.68
7349.68
7349.68
7349.68
7349.68
7349.68
7349.68
7349.68
7349.68
7349.68
7349.68
7349.68
7349.67
7349.67
7349.67
7349.67
7349.67
7349.67
7349.67
7349.67
7349.67
7349.67
7349.67
7349.67
7349.67
7349.67
7349.67
7349.67
7349.67
7349.67
7349.67
7349.67
7349.67
7349.67
7349.67
7349.67
7349.66
7349.66
7349.66
7349.66
7349.66
7349.66
7349.66
7349.66
7349.66
7349.66
7349.66
7349.66
7349.66
7349.66
7349.66
7349.66
7349.66
7349.66
7349.66
7349.66
7349.66
7349.66
7349.66
7349.66
7349.66
7349.66
7349.66
7349.66
7349.66
7349.66
7349.66
7349.66
7349.66
7349.66
7349.66
7349.66
7349.66
7349.66
7349.66
7349.66
7349.66
7349.66
7349.66
7349.66
7349.66
7349.66
7349.66
7349.66
7349.66
7349.66
7349.66
7349.66
7349.66
7349.66
7349.66
7349.66
7349.66
7349.66
7349.66
7349.66
7349.66
7349.66
7349.66
7349.66
7349.66
7349.66
7349.66
7349.66
7349.66
7349.66
7349.66
7349.66
7349.66
7349.66
7349.66
7349.66
7349.66
7349.66
7349.66
7349.66
7349.66
7349.66
7349.66
7349.66
7349.66
7349.66
7349.65
7349.65
7349.65
7349.65
7349.65
7349.65
7349.65
7349.65
7349.65
7349.65
7349.65
7349.65
7349.65
7349.65
7349.65
7349.65
7349.65
7349.65
7349.65
7349.65
7349.65
7349.65
7070.63
7071.35
7071.65
7071.98
7072.33
7072.71
7073.1
7073.52
7073.95
7074.41
7074.89
7075.38
7075.9
7076.44
7077
7077.58
7078.17
7078.79
7079.43
7080.08
7080.75
7081.44
7082.14
7082.86
7083.59
7084.33
7085.09
7085.86
7086.64
7087.44
7088.24
7089.06
7089.88
7090.71
7091.55
7092.39
7093.25
7094.11
7094.97
7095.84
7096.71
7097.59
7098.46
7099.34
7100.22
7101.1
7101.98
7102.85
7103.72
7104.59
7105.46
7106.32
7107.18
7108.03
7108.88
7109.72
7110.56
7111.38
7112.2
7113.01
7113.8
7114.59
7115.37
7116.13
7116.88
7117.62
7118.35
7119.06
7119.76
7120.44
7121.11
7121.76
7122.4
7123.03
7123.64
7124.23
7124.82
7125.4
7125.97
7126.54
7127.1
7127.66
7128.22
7128.77
7129.34
7129.89
7130.39
7130.82
7131.29
7132.11
7132.68
7133.22
7133.78
7134.31
7134.85
7135.4
7135.92
7136.44
7136.96
7137.46
7137.96
7138.45
7138.93
7139.4
7139.86
7140.32
7140.76
7141.19
7141.62
7142.03
7142.45
7142.84
7143.24
7143.62
7143.99
7144.36
7144.71
7145.06
7145.41
7145.74
7146.07
7146.39
7146.7
7147
7147.3
7147.59
7147.87
7148.15
7148.42
7148.68
7148.93
7149.18
7149.42
7149.65
7149.88
7150.1
7150.31
7150.52
7150.72
7150.91
7151.1
7151.28
7151.46
7151.63
7151.8
7151.95
7152.11
7152.26
7152.4
7152.54
7152.67
7152.8
7152.92
7153.04
7153.16
7153.27
7153.37
7153.47
7153.57
7153.66
7153.75
7153.84
7153.92
7154
7154.07
7154.15
7154.21
7154.28
7154.34
7154.4
7154.46
7154.51
7154.56
7154.61
7154.66
7154.7
7154.74
7154.78
7154.82
7154.85
7154.88
7154.92
7154.94
7154.97
7154.99
7155.02
7155.04
7155.05
7155.07
7155.09
7155.1
7155.11
7155.12
7155.13
7155.14
7155.15
7155.15
7155.15
7155.16
7155.16
7155.16
7155.16
7155.15
7155.15
7155.15
7155.14
7155.13
7155.13
7155.12
7155.11
7155.1
7155.09
7155.08
7155.07
7155.05
7155.04
7155.03
7155.01
7155
7154.98
7154.97
7154.95
7154.94
7154.92
7154.9
7154.89
7154.87
7154.85
7154.83
7154.82
7154.8
7154.78
7154.76
7154.74
7154.73
7154.71
7154.69
7154.67
7154.65
7154.64
7154.62
7154.6
7154.58
7154.56
7154.54
7154.53
7154.51
7154.49
7154.47
7154.46
7154.44
7154.42
7154.41
7154.39
7154.37
7154.36
7154.34
7154.32
7154.31
7154.29
7154.28
7154.26
7154.25
7154.23
7154.22
7154.2
7154.19
7154.17
7154.16
7154.15
7154.13
7154.12
7154.11
7154.09
7154.08
7154.07
7154.06
7154.04
7154.03
7154.02
7154.01
7154
7153.99
7153.98
7153.97
7153.96
7153.95
7153.94
7153.93
7153.92
7153.91
7153.9
7153.89
7153.88
7153.87
7153.86
7153.85
7153.85
7153.84
7153.83
7153.82
7153.81
7153.81
7153.8
7153.79
7153.79
7153.78
7153.77
7153.77
7153.76
7153.75
7153.75
7153.74
7153.73
7153.73
7153.72
7153.72
7153.71
7153.71
7153.7
7153.7
7153.69
7153.69
7153.68
7153.68
7153.67
7153.67
7153.66
7153.66
7153.65
7153.65
7153.65
7153.64
7153.64
7153.63
7153.63
7153.63
7153.62
7153.62
7153.62
7153.61
7153.61
7153.61
7153.6
7153.6
7153.6
7153.59
7153.59
7153.59
7153.58
7153.58
7153.58
7153.58
7153.57
7153.57
7153.57
7153.56
7153.56
7153.56
7153.56
7153.55
7153.55
7153.55
7153.55
7153.55
7153.54
7153.54
7153.54
7153.54
7153.54
7153.53
7153.53
7153.53
7153.53
7153.53
7153.52
7153.52
7153.52
7153.52
7153.52
7153.52
7153.51
7153.51
7153.51
7153.51
7153.51
7153.51
7153.5
7153.5
7153.5
7153.5
7153.5
7153.5
7153.5
7153.5
7153.49
7153.49
7153.49
7153.49
7153.49
7153.49
7153.49
7153.49
7153.49
7153.49
7153.48
7153.48
7153.48
7153.48
7153.48
7153.48
7153.48
7153.48
7153.48
7153.48
7153.48
7153.48
7153.48
7153.47
7153.47
7153.47
7153.47
7153.47
7153.47
7153.47
7153.47
7153.47
7153.47
7153.47
7153.47
7153.47
7153.47
7153.47
7153.47
7153.47
7153.47
7153.47
7153.47
7153.47
7153.47
7153.47
7153.47
7153.46
7153.46
7153.46
7153.46
7153.46
7153.46
7153.46
7153.46
7153.46
7153.46
7153.46
7153.46
7153.46
7153.46
7153.46
7153.46
7153.46
7153.46
7153.46
7153.46
7153.46
7153.46
7153.46
7153.46
7153.46
7153.46
7153.46
7153.46
7153.46
7153.46
7153.46
7153.46
7153.46
7153.46
7153.46
7153.46
7153.46
7153.46
7153.46
7153.46
7153.46
7153.46
7153.46
7153.46
7153.46
7153.46
7153.46
7153.46
7153.46
7153.46
7153.46
7153.46
7153.46
7153.46
7153.46
7153.46
7153.46
7153.46
7153.46
7153.46
7153.46
7153.46
7153.46
7153.46
7153.46
7153.46
7153.46
7153.46
7153.46
7153.46
7153.46
7153.46
7153.46
7153.46
7153.46
7153.46
7153.46
7153.46
7153.46
7153.46
7153.46
7153.46
7153.45
7153.45
7153.45
7153.45
7153.45
7153.45
7153.45
7153.45
7153.45
7153.45
7153.45
7153.45
7153.45
7153.45
7153.45
7153.45
7153.45
7153.45
7153.45
7153.45
7153.45
7153.45
7153.45
7153.45
7153.45
7153.45
6874.19
6874.9
6875.2
6875.52
6875.87
6876.25
6876.64
6877.06
6877.49
6877.95
6878.43
6878.93
6879.45
6880
6880.56
6881.15
6881.75
6882.38
6883.02
6883.69
6884.37
6885.07
6885.78
6886.51
6887.25
6888.01
6888.78
6889.56
6890.36
6891.17
6891.98
6892.81
6893.64
6894.48
6895.33
6896.19
6897.05
6897.91
6898.78
6899.66
6900.54
6901.42
6902.3
6903.19
6904.07
6904.96
6905.84
6906.72
6907.59
6908.47
6909.34
6910.2
6911.07
6911.92
6912.77
6913.62
6914.46
6915.29
6916.11
6916.92
6917.72
6918.51
6919.29
6920.06
6920.81
6921.56
6922.29
6923
6923.71
6924.4
6925.07
6925.73
6926.38
6927.01
6927.63
6928.24
6928.84
6929.43
6930.01
6930.59
6931.16
6931.73
6932.29
6932.84
6933.39
6933.94
6934.48
6935
6935.53
6936.02
6936.44
6936.91
6937.7
6938.25
6938.77
6939.32
6939.83
6940.34
6940.87
6941.37
6941.87
6942.36
6942.84
6943.31
6943.77
6944.23
6944.67
6945.11
6945.53
6945.95
6946.35
6946.75
6947.14
6947.52
6947.9
6948.26
6948.62
6948.97
6949.31
6949.64
6949.96
6950.28
6950.59
6950.9
6951.19
6951.48
6951.76
6952.03
6952.3
6952.56
6952.81
6953.06
6953.3
6953.53
6953.75
6953.97
6954.19
6954.39
6954.59
6954.78
6954.97
6955.15
6955.33
6955.49
6955.66
6955.82
6955.97
6956.11
6956.26
6956.39
6956.52
6956.65
6956.77
6956.89
6957
6957.11
6957.22
6957.32
6957.41
6957.51
6957.59
6957.68
6957.76
6957.84
6957.91
6957.98
6958.05
6958.11
6958.18
6958.23
6958.29
6958.34
6958.39
6958.44
6958.48
6958.53
6958.57
6958.61
6958.64
6958.67
6958.71
6958.74
6958.76
6958.79
6958.81
6958.83
6958.85
6958.87
6958.89
6958.9
6958.91
6958.93
6958.94
6958.94
6958.95
6958.96
6958.96
6958.96
6958.97
6958.97
6958.97
6958.96
6958.96
6958.96
6958.95
6958.95
6958.94
6958.93
6958.92
6958.91
6958.9
6958.89
6958.88
6958.87
6958.86
6958.84
6958.83
6958.81
6958.8
6958.78
6958.77
6958.75
6958.74
6958.72
6958.7
6958.69
6958.67
6958.65
6958.63
6958.62
6958.6
6958.58
6958.56
6958.54
6958.53
6958.51
6958.49
6958.47
6958.45
6958.43
6958.42
6958.4
6958.38
6958.36
6958.34
6958.32
6958.31
6958.29
6958.27
6958.25
6958.24
6958.22
6958.2
6958.19
6958.17
6958.15
6958.14
6958.12
6958.11
6958.09
6958.07
6958.06
6958.04
6958.03
6958.01
6958
6957.99
6957.97
6957.96
6957.94
6957.93
6957.92
6957.9
6957.89
6957.88
6957.87
6957.85
6957.84
6957.83
6957.82
6957.81
6957.8
6957.79
6957.78
6957.76
6957.75
6957.74
6957.73
6957.72
6957.71
6957.7
6957.7
6957.69
6957.68
6957.67
6957.66
6957.65
6957.64
6957.64
6957.63
6957.62
6957.61
6957.61
6957.6
6957.59
6957.58
6957.58
6957.57
6957.56
6957.56
6957.55
6957.54
6957.54
6957.53
6957.53
6957.52
6957.52
6957.51
6957.51
6957.5
6957.49
6957.49
6957.48
6957.48
6957.48
6957.47
6957.47
6957.46
6957.46
6957.45
6957.45
6957.44
6957.44
6957.44
6957.43
6957.43
6957.43
6957.42
6957.42
6957.41
6957.41
6957.41
6957.4
6957.4
6957.4
6957.39
6957.39
6957.39
6957.39
6957.38
6957.38
6957.38
6957.37
6957.37
6957.37
6957.37
6957.36
6957.36
6957.36
6957.36
6957.35
6957.35
6957.35
6957.35
6957.34
6957.34
6957.34
6957.34
6957.34
6957.33
6957.33
6957.33
6957.33
6957.33
6957.33
6957.32
6957.32
6957.32
6957.32
6957.32
6957.31
6957.31
6957.31
6957.31
6957.31
6957.31
6957.31
6957.3
6957.3
6957.3
6957.3
6957.3
6957.3
6957.3
6957.3
6957.29
6957.29
6957.29
6957.29
6957.29
6957.29
6957.29
6957.29
6957.29
6957.29
6957.28
6957.28
6957.28
6957.28
6957.28
6957.28
6957.28
6957.28
6957.28
6957.28
6957.28
6957.28
6957.28
6957.27
6957.27
6957.27
6957.27
6957.27
6957.27
6957.27
6957.27
6957.27
6957.27
6957.27
6957.27
6957.27
6957.27
6957.27
6957.27
6957.27
6957.27
6957.27
6957.27
6957.27
6957.27
6957.27
6957.27
6957.26
6957.26
6957.26
6957.26
6957.26
6957.26
6957.26
6957.26
6957.26
6957.26
6957.26
6957.26
6957.26
6957.26
6957.26
6957.26
6957.26
6957.26
6957.26
6957.26
6957.26
6957.26
6957.26
6957.26
6957.26
6957.26
6957.26
6957.26
6957.26
6957.26
6957.26
6957.26
6957.26
6957.26
6957.26
6957.26
6957.26
6957.26
6957.26
6957.26
6957.26
6957.26
6957.26
6957.26
6957.26
6957.26
6957.26
6957.26
6957.26
6957.26
6957.26
6957.26
6957.26
6957.26
6957.26
6957.26
6957.26
6957.26
6957.26
6957.26
6957.26
6957.26
6957.26
6957.26
6957.26
6957.26
6957.26
6957.26
6957.26
6957.26
6957.26
6957.26
6957.26
6957.26
6957.26
6957.26
6957.26
6957.26
6957.25
6957.25
6957.25
6957.25
6957.25
6957.25
6957.25
6957.25
6957.25
6957.25
6957.25
6957.25
6957.25
6957.25
6957.25
6957.25
6957.25
6957.25
6957.25
6957.25
6957.25
6957.25
6957.25
6957.25
6957.25
6957.25
6957.25
6957.25
6957.25
6957.25
6677.7
6678.41
6678.71
6679.04
6679.38
6679.76
6680.15
6680.57
6681.01
6681.47
6681.95
6682.46
6682.99
6683.54
6684.11
6684.71
6685.32
6685.96
6686.61
6687.29
6687.98
6688.69
6689.41
6690.15
6690.91
6691.68
6692.46
6693.26
6694.06
6694.89
6695.72
6696.56
6697.4
6698.26
6699.12
6699.99
6700.86
6701.73
6702.61
6703.5
6704.38
6705.27
6706.16
6707.05
6707.94
6708.83
6709.72
6710.6
6711.49
6712.36
6713.24
6714.11
6714.98
6715.84
6716.69
6717.54
6718.38
6719.21
6720.04
6720.85
6721.66
6722.45
6723.24
6724.01
6724.77
6725.51
6726.25
6726.97
6727.68
6728.38
6729.06
6729.73
6730.38
6731.03
6731.66
6732.28
6732.88
6733.48
6734.08
6734.66
6735.24
6735.81
6736.37
6736.93
6737.48
6738.03
6738.56
6739.09
6739.61
6740.13
6740.64
6741.16
6741.64
6742.06
6742.51
6743.27
6743.8
6744.3
6744.82
6745.3
6745.8
6746.3
6746.78
6747.25
6747.71
6748.16
6748.61
6749.04
6749.47
6749.88
6750.29
6750.68
6751.07
6751.45
6751.82
6752.18
6752.54
6752.89
6753.23
6753.56
6753.88
6754.2
6754.51
6754.81
6755.1
6755.39
6755.67
6755.94
6756.2
6756.46
6756.71
6756.96
6757.2
6757.42
6757.65
6757.86
6758.07
6758.28
6758.48
6758.67
6758.85
6759.03
6759.2
6759.37
6759.53
6759.69
6759.84
6759.99
6760.13
6760.26
6760.39
6760.52
6760.64
6760.75
6760.86
6760.97
6761.07
6761.17
6761.27
6761.36
6761.45
6761.53
6761.61
6761.68
6761.76
6761.83
6761.89
6761.96
6762.02
6762.07
6762.13
6762.18
6762.23
6762.27
6762.32
6762.36
6762.4
6762.44
6762.47
6762.5
6762.53
6762.56
6762.59
6762.61
6762.63
6762.65
6762.67
6762.69
6762.71
6762.72
6762.73
6762.74
6762.75
6762.76
6762.76
6762.77
6762.77
6762.78
6762.78
6762.78
6762.78
6762.77
6762.77
6762.76
6762.76
6762.75
6762.75
6762.74
6762.73
6762.72
6762.71
6762.7
6762.69
6762.67
6762.66
6762.65
6762.63
6762.62
6762.6
6762.59
6762.57
6762.55
6762.54
6762.52
6762.5
6762.49
6762.47
6762.45
6762.43
6762.42
6762.4
6762.38
6762.36
6762.34
6762.32
6762.31
6762.29
6762.27
6762.25
6762.23
6762.21
6762.19
6762.18
6762.16
6762.14
6762.12
6762.1
6762.09
6762.07
6762.05
6762.03
6762.02
6762
6761.98
6761.97
6761.95
6761.93
6761.92
6761.9
6761.89
6761.87
6761.86
6761.84
6761.83
6761.81
6761.8
6761.78
6761.77
6761.76
6761.74
6761.73
6761.72
6761.7
6761.69
6761.68
6761.66
6761.65
6761.64
6761.63
6761.62
6761.61
6761.59
6761.58
6761.57
6761.56
6761.55
6761.54
6761.53
6761.52
6761.51
6761.5
6761.49
6761.48
6761.48
6761.47
6761.46
6761.45
6761.44
6761.43
6761.43
6761.42
6761.41
6761.4
6761.4
6761.39
6761.38
6761.38
6761.37
6761.36
6761.36
6761.35
6761.34
6761.34
6761.33
6761.33
6761.32
6761.31
6761.31
6761.3
6761.3
6761.29
6761.29
6761.28
6761.28
6761.27
6761.27
6761.26
6761.26
6761.26
6761.25
6761.25
6761.24
6761.24
6761.24
6761.23
6761.23
6761.22
6761.22
6761.22
6761.21
6761.21
6761.21
6761.2
6761.2
6761.2
6761.19
6761.19
6761.19
6761.18
6761.18
6761.18
6761.18
6761.17
6761.17
6761.17
6761.17
6761.16
6761.16
6761.16
6761.16
6761.15
6761.15
6761.15
6761.15
6761.14
6761.14
6761.14
6761.14
6761.14
6761.13
6761.13
6761.13
6761.13
6761.13
6761.12
6761.12
6761.12
6761.12
6761.12
6761.12
6761.11
6761.11
6761.11
6761.11
6761.11
6761.11
6761.11
6761.1
6761.1
6761.1
6761.1
6761.1
6761.1
6761.1
6761.1
6761.09
6761.09
6761.09
6761.09
6761.09
6761.09
6761.09
6761.09
6761.09
6761.08
6761.08
6761.08
6761.08
6761.08
6761.08
6761.08
6761.08
6761.08
6761.08
6761.08
6761.08
6761.08
6761.08
6761.07
6761.07
6761.07
6761.07
6761.07
6761.07
6761.07
6761.07
6761.07
6761.07
6761.07
6761.07
6761.07
6761.07
6761.07
6761.07
6761.07
6761.07
6761.07
6761.07
6761.07
6761.07
6761.07
6761.07
6761.06
6761.06
6761.06
6761.06
6761.06
6761.06
6761.06
6761.06
6761.06
6761.06
6761.06
6761.06
6761.06
6761.06
6761.06
6761.06
6761.06
6761.06
6761.06
6761.06
6761.06
6761.06
6761.06
6761.06
6761.06
6761.06
6761.06
6761.06
6761.06
6761.06
6761.06
6761.06
6761.06
6761.06
6761.06
6761.06
6761.06
6761.06
6761.06
6761.06
6761.06
6761.06
6761.06
6761.06
6761.06
6761.06
6761.06
6761.06
6761.06
6761.06
6761.06
6761.06
6761.06
6761.06
6761.06
6761.06
6761.06
6761.06
6761.06
6761.06
6761.06
6761.06
6761.06
6761.06
6761.06
6761.06
6761.06
6761.06
6761.06
6761.06
6761.06
6761.06
6761.06
6761.06
6761.06
6761.05
6761.05
6761.05
6761.05
6761.05
6761.05
6761.05
6761.05
6761.05
6761.05
6761.05
6761.05
6761.05
6761.05
6761.05
6761.05
6761.05
6761.05
6761.05
6761.05
6761.05
6761.05
6761.05
6761.05
6761.05
6761.05
6761.05
6761.05
6761.05
6761.05
6761.05
6761.05
6761.05
6481.17
6481.89
6482.19
6482.52
6482.87
6483.24
6483.64
6484.06
6484.5
6484.97
6485.46
6485.98
6486.52
6487.08
6487.66
6488.26
6488.89
6489.53
6490.19
6490.88
6491.58
6492.3
6493.03
6493.78
6494.55
6495.33
6496.13
6496.94
6497.76
6498.59
6499.44
6500.29
6501.15
6502.02
6502.9
6503.78
6504.66
6505.55
6506.44
6507.34
6508.23
6509.13
6510.03
6510.93
6511.82
6512.72
6513.62
6514.51
6515.4
6516.28
6517.16
6518.04
6518.91
6519.77
6520.63
6521.48
6522.33
6523.16
6523.99
6524.81
6525.62
6526.41
6527.2
6527.98
6528.74
6529.49
6530.23
6530.96
6531.68
6532.38
6533.07
6533.75
6534.41
6535.06
6535.7
6536.33
6536.95
6537.56
6538.15
6538.74
6539.33
6539.9
6540.47
6541.03
6541.58
6542.13
6542.67
6543.2
6543.72
6544.24
6544.75
6545.26
6545.76
6546.26
6546.76
6547.23
6547.63
6548.07
6548.8
6549.31
6549.77
6550.27
6550.73
6551.2
6551.67
6552.13
6552.57
6553
6553.43
6553.84
6554.25
6554.64
6555.03
6555.4
6555.77
6556.13
6556.49
6556.83
6557.17
6557.5
6557.82
6558.14
6558.44
6558.74
6559.03
6559.32
6559.59
6559.86
6560.13
6560.38
6560.63
6560.87
6561.11
6561.34
6561.56
6561.77
6561.98
6562.18
6562.38
6562.57
6562.75
6562.93
6563.1
6563.26
6563.42
6563.58
6563.73
6563.87
6564.01
6564.14
6564.27
6564.39
6564.51
6564.63
6564.74
6564.84
6564.94
6565.04
6565.13
6565.22
6565.31
6565.39
6565.47
6565.54
6565.61
6565.68
6565.74
6565.81
6565.86
6565.92
6565.97
6566.02
6566.07
6566.12
6566.16
6566.2
6566.24
6566.27
6566.3
6566.34
6566.36
6566.39
6566.42
6566.44
6566.46
6566.48
6566.5
6566.51
6566.53
6566.54
6566.55
6566.56
6566.57
6566.58
6566.58
6566.59
6566.59
6566.59
6566.59
6566.59
6566.59
6566.58
6566.58
6566.58
6566.57
6566.56
6566.55
6566.55
6566.54
6566.53
6566.51
6566.5
6566.49
6566.48
6566.46
6566.45
6566.44
6566.42
6566.41
6566.39
6566.37
6566.36
6566.34
6566.32
6566.31
6566.29
6566.27
6566.25
6566.23
6566.22
6566.2
6566.18
6566.16
6566.14
6566.12
6566.1
6566.09
6566.07
6566.05
6566.03
6566.01
6565.99
6565.97
6565.96
6565.94
6565.92
6565.9
6565.88
6565.87
6565.85
6565.83
6565.82
6565.8
6565.78
6565.76
6565.75
6565.73
6565.72
6565.7
6565.68
6565.67
6565.65
6565.64
6565.62
6565.61
6565.59
6565.58
6565.57
6565.55
6565.54
6565.53
6565.51
6565.5
6565.49
6565.47
6565.46
6565.45
6565.44
6565.43
6565.41
6565.4
6565.39
6565.38
6565.37
6565.36
6565.35
6565.34
6565.33
6565.32
6565.31
6565.3
6565.29
6565.28
6565.27
6565.27
6565.26
6565.25
6565.24
6565.23
6565.22
6565.22
6565.21
6565.2
6565.19
6565.19
6565.18
6565.17
6565.17
6565.16
6565.15
6565.15
6565.14
6565.14
6565.13
6565.12
6565.12
6565.11
6565.11
6565.1
6565.1
6565.09
6565.09
6565.08
6565.08
6565.07
6565.07
6565.06
6565.06
6565.05
6565.05
6565.05
6565.04
6565.04
6565.03
6565.03
6565.03
6565.02
6565.02
6565.02
6565.01
6565.01
6565.01
6565
6565
6565
6564.99
6564.99
6564.99
6564.98
6564.98
6564.98
6564.97
6564.97
6564.97
6564.97
6564.96
6564.96
6564.96
6564.96
6564.95
6564.95
6564.95
6564.95
6564.95
6564.94
6564.94
6564.94
6564.94
6564.93
6564.93
6564.93
6564.93
6564.93
6564.93
6564.92
6564.92
6564.92
6564.92
6564.92
6564.92
6564.91
6564.91
6564.91
6564.91
6564.91