/*--------------------------------*- C++ -*----------------------------------*\
| =========                 |                                                 |
| \\      /  F ield         | OpenFOAM: The Open Source CFD Toolbox           |
|  \\    /   O peration     | Version:  v2006                                 |
|   \\  /    A nd           | Website:  www.openfoam.com                      |
|    \\/     M anipulation  |                                                 |
\*---------------------------------------------------------------------------*/
FoamFile
{
    version     2.0;
    format      ascii;
    class       volScalarField;
    location    "0.8";
    object      p_rgh;
}
// * * * * * * * * * * * * * * * * * * * * * * * * * * * * * * * * * * * * * //

dimensions      [1 -1 -2 0 0 0 0];


internalField   nonuniform List<scalar> 
33000
(
7757.84
7758.58
7758.87
7759.19
7759.53
7759.89
7760.28
7760.68
7761.11
7761.56
7762.04
7762.53
7763.04
7763.56
7764.11
7764.67
7765.25
7765.85
7766.47
7767.1
7767.75
7768.42
7769.1
7769.8
7770.51
7771.23
7771.97
7772.72
7773.48
7774.26
7775.05
7775.84
7776.65
7777.46
7778.28
7779.11
7779.95
7780.79
7781.64
7782.49
7783.35
7784.21
7785.07
7785.94
7786.8
7787.67
7788.54
7789.41
7790.27
7791.14
7792
7792.86
7793.71
7794.56
7795.4
7796.23
7797.06
7797.87
7798.68
7799.48
7800.27
7801.05
7801.81
7802.57
7803.31
7804.04
7804.76
7805.47
7806.15
7806.83
7807.48
7808.12
7808.74
7809.33
7809.9
7810.44
7810.93
7811.36
7811.81
7812.67
7813.27
7813.87
7814.5
7815.09
7815.69
7816.31
7816.9
7817.48
7818.05
7818.62
7819.18
7819.73
7820.28
7820.83
7821.37
7821.9
7822.43
7822.94
7823.45
7823.96
7824.46
7824.95
7825.43
7825.9
7826.37
7826.82
7827.27
7827.7
7828.13
7828.55
7828.95
7829.35
7829.74
7830.13
7830.5
7830.87
7831.22
7831.57
7831.92
7832.26
7832.59
7832.91
7833.23
7833.54
7833.84
7834.13
7834.41
7834.69
7834.97
7835.23
7835.49
7835.74
7835.98
7836.22
7836.45
7836.67
7836.89
7837.09
7837.3
7837.5
7837.69
7837.87
7838.05
7838.22
7838.39
7838.55
7838.71
7838.86
7839
7839.14
7839.28
7839.41
7839.54
7839.66
7839.77
7839.89
7839.99
7840.1
7840.2
7840.29
7840.38
7840.47
7840.56
7840.64
7840.71
7840.79
7840.86
7840.93
7840.99
7841.05
7841.11
7841.17
7841.22
7841.27
7841.32
7841.36
7841.4
7841.45
7841.48
7841.52
7841.55
7841.58
7841.61
7841.64
7841.67
7841.69
7841.71
7841.73
7841.75
7841.77
7841.78
7841.8
7841.81
7841.82
7841.83
7841.83
7841.84
7841.84
7841.85
7841.85
7841.85
7841.85
7841.85
7841.85
7841.84
7841.84
7841.83
7841.83
7841.82
7841.81
7841.8
7841.79
7841.78
7841.77
7841.76
7841.74
7841.73
7841.72
7841.7
7841.69
7841.67
7841.66
7841.64
7841.63
7841.61
7841.59
7841.58
7841.56
7841.54
7841.52
7841.51
7841.49
7841.47
7841.45
7841.43
7841.42
7841.4
7841.38
7841.36
7841.34
7841.32
7841.31
7841.29
7841.27
7841.25
7841.23
7841.22
7841.2
7841.18
7841.16
7841.15
7841.13
7841.11
7841.1
7841.08
7841.06
7841.05
7841.03
7841.01
7841
7840.98
7840.97
7840.95
7840.94
7840.92
7840.91
7840.89
7840.88
7840.87
7840.85
7840.84
7840.83
7840.81
7840.8
7840.79
7840.78
7840.76
7840.75
7840.74
7840.73
7840.72
7840.7
7840.69
7840.68
7840.67
7840.66
7840.65
7840.64
7840.63
7840.62
7840.61
7840.6
7840.59
7840.58
7840.58
7840.57
7840.56
7840.55
7840.54
7840.53
7840.53
7840.52
7840.51
7840.5
7840.5
7840.49
7840.48
7840.48
7840.47
7840.46
7840.46
7840.45
7840.44
7840.44
7840.43
7840.43
7840.42
7840.42
7840.41
7840.41
7840.4
7840.4
7840.39
7840.39
7840.38
7840.38
7840.37
7840.37
7840.36
7840.36
7840.35
7840.35
7840.35
7840.34
7840.34
7840.33
7840.33
7840.33
7840.32
7840.32
7840.32
7840.31
7840.31
7840.31
7840.3
7840.3
7840.3
7840.29
7840.29
7840.29
7840.28
7840.28
7840.28
7840.28
7840.27
7840.27
7840.27
7840.26
7840.26
7840.26
7840.26
7840.25
7840.25
7840.25
7840.25
7840.25
7840.24
7840.24
7840.24
7840.24
7840.23
7840.23
7840.23
7840.23
7840.23
7840.23
7840.22
7840.22
7840.22
7840.22
7840.22
7840.22
7840.21
7840.21
7840.21
7840.21
7840.21
7840.21
7840.2
7840.2
7840.2
7840.2
7840.2
7840.2
7840.2
7840.2
7840.19
7840.19
7840.19
7840.19
7840.19
7840.19
7840.19
7840.19
7840.19
7840.19
7840.18
7840.18
7840.18
7840.18
7840.18
7840.18
7840.18
7840.18
7840.18
7840.18
7840.18
7840.18
7840.18
7840.17
7840.17
7840.17
7840.17
7840.17
7840.17
7840.17
7840.17
7840.17
7840.17
7840.17
7840.17
7840.17
7840.17
7840.17
7840.17
7840.17
7840.17
7840.17
7840.17
7840.17
7840.17
7840.16
7840.16
7840.16
7840.16
7840.16
7840.16
7840.16
7840.16
7840.16
7840.16
7840.16
7840.16
7840.16
7840.16
7840.16
7840.16
7840.16
7840.16
7840.16
7840.16
7840.16
7840.16
7840.16
7840.16
7840.16
7840.16
7840.16
7840.16
7840.16
7840.16
7840.16
7840.16
7840.16
7840.16
7840.16
7840.16
7840.16
7840.16
7840.16
7840.16
7840.16
7840.16
7840.16
7840.16
7840.16
7840.16
7840.16
7840.16
7840.16
7840.16
7840.16
7840.16
7840.16
7840.16
7840.16
7840.16
7840.16
7840.16
7840.16
7840.16
7840.16
7840.16
7840.16
7840.16
7840.16
7840.16
7840.16
7840.16
7840.16
7840.16
7840.16
7840.16
7840.16
7840.16
7840.16
7840.16
7840.16
7840.16
7840.16
7840.16
7840.16
7840.16
7840.16
7840.16
7840.16
7840.16
7840.16
7840.16
7840.16
7840.16
7840.16
7840.16
7840.16
7840.16
7840.16
7840.16
7840.16
7840.15
7840.15
7840.15
7840.15
7840.15
7840.15
7840.15
7840.15
7840.15
7840.15
7840.15
7840.15
7757.67
7758.36
7758.65
7759.03
7759.39
7759.77
7760.17
7760.59
7761.03
7761.49
7761.96
7762.46
7762.97
7763.49
7764.03
7764.59
7765.17
7765.77
7766.39
7767.02
7767.68
7768.34
7769.03
7769.72
7770.43
7771.15
7771.89
7772.64
7773.41
7774.18
7774.97
7775.77
7776.57
7777.39
7778.21
7779.04
7779.88
7780.73
7781.57
7782.43
7783.29
7784.15
7785.02
7785.89
7786.76
7787.63
7788.5
7789.37
7790.24
7791.11
7791.97
7792.83
7793.69
7794.54
7795.38
7796.22
7797.05
7797.86
7798.67
7799.47
7800.26
7801.04
7801.81
7802.57
7803.31
7804.05
7804.77
7805.47
7806.17
7806.84
7807.5
7808.15
7808.77
7809.38
7809.97
7810.53
7811.08
7811.62
7812.17
7812.69
7813.12
7813.6
7814.5
7815.12
7815.72
7816.33
7816.91
7817.47
7818.03
7818.62
7819.18
7819.74
7820.29
7820.84
7821.38
7821.91
7822.44
7822.96
7823.47
7823.98
7824.47
7824.96
7825.44
7825.92
7826.38
7826.83
7827.28
7827.71
7828.14
7828.56
7828.96
7829.36
7829.76
7830.14
7830.51
7830.88
7831.24
7831.59
7831.93
7832.27
7832.6
7832.92
7833.24
7833.55
7833.85
7834.14
7834.43
7834.71
7834.98
7835.24
7835.5
7835.75
7835.99
7836.23
7836.46
7836.68
7836.9
7837.11
7837.31
7837.51
7837.7
7837.88
7838.06
7838.23
7838.4
7838.56
7838.72
7838.87
7839.01
7839.15
7839.29
7839.42
7839.55
7839.67
7839.78
7839.89
7840
7840.11
7840.2
7840.3
7840.39
7840.48
7840.56
7840.64
7840.72
7840.79
7840.87
7840.93
7841
7841.06
7841.12
7841.17
7841.23
7841.28
7841.32
7841.37
7841.41
7841.45
7841.49
7841.53
7841.56
7841.59
7841.62
7841.65
7841.67
7841.7
7841.72
7841.74
7841.76
7841.77
7841.79
7841.8
7841.81
7841.82
7841.83
7841.84
7841.84
7841.85
7841.85
7841.85
7841.85
7841.85
7841.85
7841.85
7841.85
7841.84
7841.84
7841.83
7841.82
7841.81
7841.8
7841.79
7841.78
7841.77
7841.76
7841.75
7841.73
7841.72
7841.71
7841.69
7841.68
7841.66
7841.64
7841.63
7841.61
7841.59
7841.58
7841.56
7841.54
7841.52
7841.51
7841.49
7841.47
7841.45
7841.43
7841.42
7841.4
7841.38
7841.36
7841.34
7841.32
7841.31
7841.29
7841.27
7841.25
7841.23
7841.22
7841.2
7841.18
7841.16
7841.15
7841.13
7841.11
7841.1
7841.08
7841.06
7841.05
7841.03
7841.02
7841
7840.98
7840.97
7840.95
7840.94
7840.92
7840.91
7840.9
7840.88
7840.87
7840.85
7840.84
7840.83
7840.81
7840.8
7840.79
7840.78
7840.76
7840.75
7840.74
7840.73
7840.72
7840.7
7840.69
7840.68
7840.67
7840.66
7840.65
7840.64
7840.63
7840.62
7840.61
7840.6
7840.59
7840.58
7840.58
7840.57
7840.56
7840.55
7840.54
7840.53
7840.53
7840.52
7840.51
7840.5
7840.5
7840.49
7840.48
7840.48
7840.47
7840.46
7840.46
7840.45
7840.44
7840.44
7840.43
7840.43
7840.42
7840.42
7840.41
7840.41
7840.4
7840.4
7840.39
7840.39
7840.38
7840.38
7840.37
7840.37
7840.36
7840.36
7840.35
7840.35
7840.35
7840.34
7840.34
7840.33
7840.33
7840.33
7840.32
7840.32
7840.32
7840.31
7840.31
7840.31
7840.3
7840.3
7840.3
7840.29
7840.29
7840.29
7840.28
7840.28
7840.28
7840.28
7840.27
7840.27
7840.27
7840.26
7840.26
7840.26
7840.26
7840.25
7840.25
7840.25
7840.25
7840.25
7840.24
7840.24
7840.24
7840.24
7840.24
7840.23
7840.23
7840.23
7840.23
7840.23
7840.22
7840.22
7840.22
7840.22
7840.22
7840.22
7840.21
7840.21
7840.21
7840.21
7840.21
7840.21
7840.2
7840.2
7840.2
7840.2
7840.2
7840.2
7840.2
7840.2
7840.19
7840.19
7840.19
7840.19
7840.19
7840.19
7840.19
7840.19
7840.19
7840.18
7840.18
7840.18
7840.18
7840.18
7840.18
7840.18
7840.18
7840.18
7840.18
7840.18
7840.18
7840.18
7840.18
7840.17
7840.17
7840.17
7840.17
7840.17
7840.17
7840.17
7840.17
7840.17
7840.17
7840.17
7840.17
7840.17
7840.17
7840.17
7840.17
7840.17
7840.17
7840.17
7840.17
7840.17
7840.17
7840.16
7840.16
7840.16
7840.16
7840.16
7840.16
7840.16
7840.16
7840.16
7840.16
7840.16
7840.16
7840.16
7840.16
7840.16
7840.16
7840.16
7840.16
7840.16
7840.16
7840.16
7840.16
7840.16
7840.16
7840.16
7840.16
7840.16
7840.16
7840.16
7840.16
7840.16
7840.16
7840.16
7840.16
7840.16
7840.16
7840.16
7840.16
7840.16
7840.16
7840.16
7840.16
7840.16
7840.16
7840.16
7840.16
7840.16
7840.16
7840.16
7840.16
7840.16
7840.16
7840.16
7840.16
7840.16
7840.16
7840.16
7840.16
7840.16
7840.16
7840.16
7840.16
7840.16
7840.16
7840.16
7840.16
7840.16
7840.16
7840.16
7840.16
7840.16
7840.16
7840.16
7840.16
7840.16
7840.16
7840.16
7840.16
7840.16
7840.16
7840.16
7840.16
7840.16
7840.16
7840.16
7840.16
7840.16
7840.16
7840.16
7840.16
7840.16
7840.16
7840.16
7840.16
7840.16
7840.16
7840.16
7840.16
7840.16
7840.16
7840.15
7840.16
7840.15
7840.15
7840.15
7840.15
7840.15
7840.15
7840.15
7757.73
7758.43
7758.69
7759
7759.33
7759.69
7760.08
7760.5
7760.93
7761.38
7761.85
7762.34
7762.85
7763.37
7763.92
7764.48
7765.06
7765.66
7766.27
7766.91
7767.56
7768.23
7768.91
7769.61
7770.32
7771.04
7771.78
7772.53
7773.29
7774.06
7774.85
7775.64
7776.46
7777.28
7778.11
7778.94
7779.79
7780.64
7781.5
7782.36
7783.23
7784.1
7784.98
7785.85
7786.73
7787.61
7788.48
7789.36
7790.23
7791.1
7791.97
7792.83
7793.69
7794.55
7795.4
7796.24
7797.07
7797.89
7798.71
7799.51
7800.3
7801.09
7801.86
7802.62
7803.37
7804.11
7804.83
7805.55
7806.24
7806.92
7807.59
7808.24
7808.87
7809.49
7810.09
7810.67
7811.24
7811.8
7812.36
7812.92
7813.48
7814.04
7814.57
7815.01
7815.48
7816.37
7816.97
7817.56
7818.1
7818.68
7819.22
7819.77
7820.34
7820.89
7821.43
7821.96
7822.49
7823.01
7823.53
7824.03
7824.53
7825.02
7825.5
7825.97
7826.43
7826.88
7827.33
7827.76
7828.19
7828.6
7829.01
7829.41
7829.8
7830.19
7830.56
7830.93
7831.29
7831.64
7831.98
7832.32
7832.65
7832.97
7833.28
7833.59
7833.89
7834.18
7834.47
7834.75
7835.02
7835.28
7835.54
7835.79
7836.03
7836.27
7836.49
7836.72
7836.93
7837.14
7837.34
7837.54
7837.73
7837.91
7838.09
7838.26
7838.43
7838.59
7838.75
7838.9
7839.04
7839.18
7839.31
7839.44
7839.57
7839.69
7839.81
7839.92
7840.02
7840.13
7840.23
7840.32
7840.41
7840.5
7840.58
7840.66
7840.74
7840.81
7840.88
7840.95
7841.01
7841.07
7841.13
7841.19
7841.24
7841.29
7841.34
7841.38
7841.42
7841.46
7841.5
7841.54
7841.57
7841.6
7841.63
7841.66
7841.68
7841.71
7841.73
7841.75
7841.76
7841.78
7841.79
7841.81
7841.82
7841.83
7841.84
7841.84
7841.85
7841.85
7841.86
7841.86
7841.86
7841.86
7841.86
7841.85
7841.85
7841.84
7841.84
7841.83
7841.82
7841.81
7841.81
7841.8
7841.78
7841.77
7841.76
7841.75
7841.73
7841.72
7841.71
7841.69
7841.68
7841.66
7841.64
7841.63
7841.61
7841.59
7841.58
7841.56
7841.54
7841.52
7841.51
7841.49
7841.47
7841.45
7841.43
7841.42
7841.4
7841.38
7841.36
7841.34
7841.32
7841.31
7841.29
7841.27
7841.25
7841.23
7841.22
7841.2
7841.18
7841.16
7841.15
7841.13
7841.11
7841.1
7841.08
7841.06
7841.05
7841.03
7841.01
7841
7840.98
7840.97
7840.95
7840.94
7840.92
7840.91
7840.89
7840.88
7840.87
7840.85
7840.84
7840.83
7840.81
7840.8
7840.79
7840.77
7840.76
7840.75
7840.74
7840.73
7840.71
7840.7
7840.69
7840.68
7840.67
7840.66
7840.65
7840.64
7840.63
7840.62
7840.61
7840.6
7840.59
7840.58
7840.57
7840.57
7840.56
7840.55
7840.54
7840.53
7840.53
7840.52
7840.51
7840.5
7840.5
7840.49
7840.48
7840.48
7840.47
7840.46
7840.46
7840.45
7840.44
7840.44
7840.43
7840.43
7840.42
7840.42
7840.41
7840.41
7840.4
7840.4
7840.39
7840.39
7840.38
7840.38
7840.37
7840.37
7840.36
7840.36
7840.35
7840.35
7840.35
7840.34
7840.34
7840.33
7840.33
7840.33
7840.32
7840.32
7840.32
7840.31
7840.31
7840.31
7840.3
7840.3
7840.3
7840.29
7840.29
7840.29
7840.28
7840.28
7840.28
7840.28
7840.27
7840.27
7840.27
7840.26
7840.26
7840.26
7840.26
7840.25
7840.25
7840.25
7840.25
7840.25
7840.24
7840.24
7840.24
7840.24
7840.23
7840.23
7840.23
7840.23
7840.23
7840.23
7840.22
7840.22
7840.22
7840.22
7840.22
7840.21
7840.21
7840.21
7840.21
7840.21
7840.21
7840.21
7840.2
7840.2
7840.2
7840.2
7840.2
7840.2
7840.2
7840.2
7840.19
7840.19
7840.19
7840.19
7840.19
7840.19
7840.19
7840.19
7840.19
7840.18
7840.18
7840.18
7840.18
7840.18
7840.18
7840.18
7840.18
7840.18
7840.18
7840.18
7840.18
7840.18
7840.17
7840.17
7840.17
7840.17
7840.17
7840.17
7840.17
7840.17
7840.17
7840.17
7840.17
7840.17
7840.17
7840.17
7840.17
7840.17
7840.17
7840.17
7840.17
7840.17
7840.17
7840.17
7840.17
7840.16
7840.16
7840.16
7840.16
7840.16
7840.16
7840.16
7840.16
7840.16
7840.16
7840.16
7840.16
7840.16
7840.16
7840.16
7840.16
7840.16
7840.16
7840.16
7840.16
7840.16
7840.16
7840.16
7840.16
7840.16
7840.16
7840.16
7840.16
7840.16
7840.16
7840.16
7840.16
7840.16
7840.16
7840.16
7840.16
7840.16
7840.16
7840.16
7840.16
7840.16
7840.16
7840.16
7840.16
7840.16
7840.16
7840.16
7840.16
7840.16
7840.16
7840.16
7840.16
7840.16
7840.16
7840.16
7840.16
7840.16
7840.16
7840.16
7840.16
7840.16
7840.16
7840.16
7840.16
7840.16
7840.16
7840.16
7840.16
7840.16
7840.16
7840.16
7840.16
7840.16
7840.16
7840.16
7840.16
7840.16
7840.16
7840.16
7840.16
7840.16
7840.16
7840.16
7840.16
7840.16
7840.16
7840.16
7840.16
7840.16
7840.16
7840.16
7840.16
7840.16
7840.16
7840.16
7840.16
7840.16
7840.16
7840.15
7840.15
7840.15
7840.15
7840.15
7840.15
7840.15
7840.15
7840.15
7840.15
7840.15
7757.34
7758.04
7758.34
7758.69
7759.05
7759.43
7759.84
7760.27
7760.7
7761.17
7761.64
7762.13
7762.64
7763.17
7763.72
7764.28
7764.87
7765.47
7766.1
7766.74
7767.39
7768.07
7768.75
7769.45
7770.17
7770.9
7771.64
7772.4
7773.17
7773.95
7774.73
7775.53
7776.34
7777.17
7778.01
7778.85
7779.71
7780.58
7781.45
7782.33
7783.21
7784.09
7784.97
7785.85
7786.74
7787.62
7788.5
7789.37
7790.25
7791.12
7791.99
7792.85
7793.72
7794.58
7795.43
7796.28
7797.11
7797.94
7798.76
7799.57
7800.36
7801.15
7801.93
7802.69
7803.45
7804.19
7804.93
7805.64
7806.35
7807.03
7807.71
7808.36
7809
7809.63
7810.24
7810.84
7811.43
7812.01
7812.58
7813.15
7813.71
7814.26
7814.82
7815.39
7815.97
7816.52
7817.01
7817.44
7817.88
7818.73
7819.3
7819.84
7820.42
7820.95
7821.49
7822.03
7822.56
7823.08
7823.6
7824.1
7824.6
7825.09
7825.57
7826.04
7826.51
7826.96
7827.4
7827.84
7828.26
7828.67
7829.08
7829.48
7829.87
7830.26
7830.63
7831
7831.36
7831.71
7832.05
7832.39
7832.71
7833.03
7833.35
7833.65
7833.95
7834.24
7834.53
7834.8
7835.08
7835.34
7835.59
7835.84
7836.09
7836.32
7836.55
7836.77
7836.98
7837.19
7837.39
7837.59
7837.78
7837.96
7838.14
7838.31
7838.47
7838.63
7838.79
7838.94
7839.08
7839.22
7839.35
7839.48
7839.61
7839.73
7839.84
7839.95
7840.06
7840.16
7840.26
7840.35
7840.44
7840.53
7840.61
7840.69
7840.77
7840.84
7840.91
7840.97
7841.04
7841.1
7841.15
7841.21
7841.26
7841.31
7841.36
7841.4
7841.44
7841.48
7841.52
7841.55
7841.59
7841.62
7841.65
7841.67
7841.7
7841.72
7841.74
7841.76
7841.78
7841.79
7841.81
7841.82
7841.83
7841.84
7841.85
7841.85
7841.86
7841.86
7841.87
7841.87
7841.87
7841.87
7841.86
7841.86
7841.86
7841.85
7841.84
7841.84
7841.83
7841.82
7841.81
7841.8
7841.79
7841.78
7841.76
7841.75
7841.74
7841.72
7841.71
7841.69
7841.68
7841.66
7841.65
7841.63
7841.61
7841.6
7841.58
7841.56
7841.54
7841.53
7841.51
7841.49
7841.47
7841.45
7841.43
7841.42
7841.4
7841.38
7841.36
7841.34
7841.32
7841.31
7841.29
7841.27
7841.25
7841.23
7841.22
7841.2
7841.18
7841.16
7841.15
7841.13
7841.11
7841.09
7841.08
7841.06
7841.05
7841.03
7841.01
7841
7840.98
7840.97
7840.95
7840.94
7840.92
7840.91
7840.89
7840.88
7840.86
7840.85
7840.84
7840.82
7840.81
7840.8
7840.79
7840.77
7840.76
7840.75
7840.74
7840.73
7840.71
7840.7
7840.69
7840.68
7840.67
7840.66
7840.65
7840.64
7840.63
7840.62
7840.61
7840.6
7840.59
7840.58
7840.57
7840.57
7840.56
7840.55
7840.54
7840.53
7840.52
7840.52
7840.51
7840.5
7840.5
7840.49
7840.48
7840.47
7840.47
7840.46
7840.46
7840.45
7840.44
7840.44
7840.43
7840.43
7840.42
7840.42
7840.41
7840.4
7840.4
7840.39
7840.39
7840.38
7840.38
7840.38
7840.37
7840.37
7840.36
7840.36
7840.35
7840.35
7840.35
7840.34
7840.34
7840.33
7840.33
7840.33
7840.32
7840.32
7840.32
7840.31
7840.31
7840.31
7840.3
7840.3
7840.3
7840.29
7840.29
7840.29
7840.28
7840.28
7840.28
7840.27
7840.27
7840.27
7840.27
7840.26
7840.26
7840.26
7840.26
7840.25
7840.25
7840.25
7840.25
7840.24
7840.24
7840.24
7840.24
7840.24
7840.23
7840.23
7840.23
7840.23
7840.23
7840.22
7840.22
7840.22
7840.22
7840.22
7840.22
7840.21
7840.21
7840.21
7840.21
7840.21
7840.21
7840.21
7840.2
7840.2
7840.2
7840.2
7840.2
7840.2
7840.2
7840.2
7840.19
7840.19
7840.19
7840.19
7840.19
7840.19
7840.19
7840.19
7840.19
7840.18
7840.18
7840.18
7840.18
7840.18
7840.18
7840.18
7840.18
7840.18
7840.18
7840.18
7840.18
7840.18
7840.17
7840.17
7840.17
7840.17
7840.17
7840.17
7840.17
7840.17
7840.17
7840.17
7840.17
7840.17
7840.17
7840.17
7840.17
7840.17
7840.17
7840.17
7840.17
7840.17
7840.17
7840.17
7840.17
7840.16
7840.16
7840.16
7840.16
7840.16
7840.16
7840.16
7840.16
7840.16
7840.16
7840.16
7840.16
7840.16
7840.16
7840.16
7840.16
7840.16
7840.16
7840.16
7840.16
7840.16
7840.16
7840.16
7840.16
7840.16
7840.16
7840.16
7840.16
7840.16
7840.16
7840.16
7840.16
7840.16
7840.16
7840.16
7840.16
7840.16
7840.16
7840.16
7840.16
7840.16
7840.16
7840.16
7840.16
7840.16
7840.16
7840.16
7840.16
7840.16
7840.16
7840.16
7840.16
7840.16
7840.16
7840.16
7840.16
7840.16
7840.16
7840.16
7840.16
7840.16
7840.16
7840.16
7840.16
7840.16
7840.16
7840.16
7840.16
7840.16
7840.16
7840.16
7840.16
7840.16
7840.16
7840.16
7840.16
7840.16
7840.16
7840.16
7840.16
7840.16
7840.16
7840.16
7840.16
7840.16
7840.16
7840.16
7840.16
7840.16
7840.16
7840.16
7840.16
7840.16
7840.16
7840.16
7840.16
7840.16
7840.15
7840.15
7840.15
7840.15
7840.15
7840.15
7840.15
7840.15
7840.15
7840.15
7840.15
7840.15
7757.1
7757.77
7758.04
7758.42
7758.78
7759.16
7759.57
7759.99
7760.43
7760.89
7761.38
7761.87
7762.38
7762.91
7763.46
7764.04
7764.64
7765.25
7765.89
7766.55
7767.22
7767.9
7768.61
7769.32
7770.05
7770.79
7771.55
7772.33
7773.12
7773.91
7774.71
7775.52
7776.34
7777.17
7778.01
7778.86
7779.72
7780.59
7781.47
7782.35
7783.25
7784.14
7785.02
7785.92
7786.81
7787.7
7788.57
7789.45
7790.33
7791.2
7792.06
7792.92
7793.8
7794.66
7795.51
7796.36
7797.2
7798.03
7798.85
7799.66
7800.46
7801.25
7802.03
7802.81
7803.57
7804.32
7805.05
7805.78
7806.49
7807.18
7807.86
7808.52
7809.17
7809.81
7810.43
7811.04
7811.64
7812.23
7812.81
7813.39
7813.95
7814.52
7815.08
7815.63
7816.18
7816.73
7817.26
7817.8
7818.35
7818.85
7819.26
7819.69
7820.52
7821.07
7821.59
7822.15
7822.66
7823.17
7823.7
7824.21
7824.7
7825.2
7825.68
7826.15
7826.61
7827.06
7827.5
7827.94
7828.36
7828.78
7829.18
7829.58
7829.97
7830.35
7830.73
7831.09
7831.45
7831.8
7832.14
7832.48
7832.8
7833.12
7833.44
7833.74
7834.04
7834.33
7834.61
7834.89
7835.16
7835.42
7835.67
7835.92
7836.16
7836.39
7836.62
7836.84
7837.06
7837.26
7837.46
7837.66
7837.84
7838.03
7838.2
7838.37
7838.54
7838.69
7838.85
7838.99
7839.14
7839.27
7839.41
7839.53
7839.66
7839.78
7839.89
7840
7840.1
7840.2
7840.3
7840.39
7840.48
7840.57
7840.65
7840.73
7840.8
7840.88
7840.94
7841.01
7841.07
7841.13
7841.19
7841.24
7841.29
7841.34
7841.39
7841.43
7841.47
7841.51
7841.55
7841.58
7841.61
7841.64
7841.67
7841.7
7841.72
7841.74
7841.76
7841.78
7841.8
7841.81
7841.82
7841.84
7841.85
7841.86
7841.86
7841.87
7841.87
7841.88
7841.88
7841.88
7841.88
7841.88
7841.87
7841.87
7841.87
7841.86
7841.85
7841.84
7841.84
7841.83
7841.82
7841.81
7841.79
7841.78
7841.77
7841.76
7841.74
7841.73
7841.71
7841.7
7841.68
7841.67
7841.65
7841.63
7841.62
7841.6
7841.58
7841.56
7841.54
7841.53
7841.51
7841.49
7841.47
7841.45
7841.44
7841.42
7841.4
7841.38
7841.36
7841.34
7841.32
7841.31
7841.29
7841.27
7841.25
7841.23
7841.22
7841.2
7841.18
7841.16
7841.14
7841.13
7841.11
7841.09
7841.08
7841.06
7841.04
7841.03
7841.01
7841
7840.98
7840.97
7840.95
7840.94
7840.92
7840.91
7840.89
7840.88
7840.86
7840.85
7840.84
7840.82
7840.81
7840.8
7840.78
7840.77
7840.76
7840.75
7840.74
7840.72
7840.71
7840.7
7840.69
7840.68
7840.67
7840.66
7840.65
7840.64
7840.63
7840.62
7840.61
7840.6
7840.59
7840.58
7840.57
7840.56
7840.56
7840.55
7840.54
7840.53
7840.52
7840.52
7840.51
7840.5
7840.49
7840.49
7840.48
7840.47
7840.47
7840.46
7840.45
7840.45
7840.44
7840.44
7840.43
7840.43
7840.42
7840.41
7840.41
7840.4
7840.4
7840.39
7840.39
7840.38
7840.38
7840.37
7840.37
7840.37
7840.36
7840.36
7840.35
7840.35
7840.34
7840.34
7840.34
7840.33
7840.33
7840.33
7840.32
7840.32
7840.31
7840.31
7840.31
7840.3
7840.3
7840.3
7840.29
7840.29
7840.29
7840.29
7840.28
7840.28
7840.28
7840.27
7840.27
7840.27
7840.27
7840.26
7840.26
7840.26
7840.26
7840.25
7840.25
7840.25
7840.25
7840.24
7840.24
7840.24
7840.24
7840.24
7840.23
7840.23
7840.23
7840.23
7840.23
7840.22
7840.22
7840.22
7840.22
7840.22
7840.22
7840.21
7840.21
7840.21
7840.21
7840.21
7840.21
7840.21
7840.2
7840.2
7840.2
7840.2
7840.2
7840.2
7840.2
7840.19
7840.19
7840.19
7840.19
7840.19
7840.19
7840.19
7840.19
7840.19
7840.19
7840.18
7840.18
7840.18
7840.18
7840.18
7840.18
7840.18
7840.18
7840.18
7840.18
7840.18
7840.18
7840.18
7840.17
7840.17
7840.17
7840.17
7840.17
7840.17
7840.17
7840.17
7840.17
7840.17
7840.17
7840.17
7840.17
7840.17
7840.17
7840.17
7840.17
7840.17
7840.17
7840.17
7840.17
7840.17
7840.17
7840.16
7840.16
7840.16
7840.16
7840.16
7840.16
7840.16
7840.16
7840.16
7840.16
7840.16
7840.16
7840.16
7840.16
7840.16
7840.16
7840.16
7840.16
7840.16
7840.16
7840.16
7840.16
7840.16
7840.16
7840.16
7840.16
7840.16
7840.16
7840.16
7840.16
7840.16
7840.16
7840.16
7840.16
7840.16
7840.16
7840.16
7840.16
7840.16
7840.16
7840.16
7840.16
7840.16
7840.16
7840.16
7840.16
7840.16
7840.16
7840.16
7840.16
7840.16
7840.16
7840.16
7840.16
7840.16
7840.16
7840.16
7840.16
7840.16
7840.16
7840.16
7840.16
7840.16
7840.16
7840.16
7840.16
7840.16
7840.16
7840.16
7840.16
7840.16
7840.16
7840.16
7840.16
7840.16
7840.16
7840.16
7840.16
7840.16
7840.16
7840.16
7840.16
7840.16
7840.16
7840.16
7840.16
7840.16
7840.16
7840.16
7840.16
7840.16
7840.16
7840.16
7840.16
7840.16
7840.16
7840.15
7840.15
7840.15
7840.15
7840.15
7840.15
7840.15
7840.15
7840.15
7840.15
7840.15
7840.15
7840.15
7756.72
7757.33
7757.67
7758.06
7758.42
7758.8
7759.21
7759.63
7760.07
7760.53
7761.02
7761.52
7762.04
7762.58
7763.15
7763.75
7764.36
7765
7765.66
7766.34
7767.03
7767.75
7768.47
7769.21
7769.96
7770.72
7771.5
7772.29
7773.11
7773.93
7774.76
7775.59
7776.43
7777.26
7778.1
7778.95
7779.81
7780.67
7781.54
7782.42
7783.31
7784.2
7785.1
7785.99
7786.88
7787.78
7788.66
7789.54
7790.41
7791.28
7792.15
7793.02
7793.89
7794.74
7795.61
7796.46
7797.3
7798.14
7798.97
7799.78
7800.59
7801.39
7802.17
7802.95
7803.71
7804.47
7805.21
7805.94
7806.66
7807.36
7808.04
7808.71
7809.36
7810
7810.63
7811.25
7811.86
7812.45
7813.04
7813.63
7814.2
7814.77
7815.34
7815.9
7816.45
7816.99
7817.53
7818.07
7818.59
7819.11
7819.63
7820.17
7820.65
7821.06
7821.47
7822.27
7822.79
7823.28
7823.83
7824.32
7824.81
7825.32
7825.8
7826.27
7826.73
7827.19
7827.63
7828.06
7828.48
7828.9
7829.3
7829.7
7830.09
7830.47
7830.84
7831.21
7831.56
7831.91
7832.25
7832.59
7832.91
7833.23
7833.54
7833.85
7834.14
7834.43
7834.71
7834.98
7835.25
7835.51
7835.77
7836.01
7836.25
7836.49
7836.71
7836.93
7837.14
7837.35
7837.55
7837.74
7837.92
7838.1
7838.28
7838.45
7838.61
7838.76
7838.92
7839.06
7839.2
7839.34
7839.47
7839.6
7839.72
7839.83
7839.95
7840.05
7840.16
7840.26
7840.35
7840.45
7840.53
7840.62
7840.7
7840.78
7840.85
7840.92
7840.99
7841.05
7841.11
7841.17
7841.22
7841.28
7841.33
7841.37
7841.42
7841.46
7841.5
7841.54
7841.57
7841.61
7841.64
7841.67
7841.69
7841.72
7841.74
7841.76
7841.78
7841.8
7841.82
7841.83
7841.84
7841.85
7841.86
7841.87
7841.88
7841.88
7841.89
7841.89
7841.89
7841.89
7841.89
7841.89
7841.88
7841.88
7841.87
7841.87
7841.86
7841.85
7841.84
7841.83
7841.82
7841.81
7841.8
7841.79
7841.77
7841.76
7841.75
7841.73
7841.72
7841.7
7841.68
7841.67
7841.65
7841.63
7841.62
7841.6
7841.58
7841.56
7841.55
7841.53
7841.51
7841.49
7841.47
7841.45
7841.43
7841.42
7841.4
7841.38
7841.36
7841.34
7841.32
7841.31
7841.29
7841.27
7841.25
7841.23
7841.21
7841.2
7841.18
7841.16
7841.14
7841.13
7841.11
7841.09
7841.08
7841.06
7841.04
7841.03
7841.01
7840.99
7840.98
7840.96
7840.95
7840.93
7840.92
7840.9
7840.89
7840.88
7840.86
7840.85
7840.83
7840.82
7840.81
7840.79
7840.78
7840.77
7840.76
7840.75
7840.73
7840.72
7840.71
7840.7
7840.69
7840.68
7840.67
7840.66
7840.65
7840.64
7840.63
7840.62
7840.61
7840.6
7840.59
7840.58
7840.57
7840.56
7840.55
7840.55
7840.54
7840.53
7840.52
7840.51
7840.51
7840.5
7840.49
7840.49
7840.48
7840.47
7840.47
7840.46
7840.45
7840.45
7840.44
7840.44
7840.43
7840.42
7840.42
7840.41
7840.41
7840.4
7840.4
7840.39
7840.39
7840.38
7840.38
7840.37
7840.37
7840.36
7840.36
7840.36
7840.35
7840.35
7840.34
7840.34
7840.34
7840.33
7840.33
7840.32
7840.32
7840.32
7840.31
7840.31
7840.31
7840.3
7840.3
7840.3
7840.29
7840.29
7840.29
7840.28
7840.28
7840.28
7840.28
7840.27
7840.27
7840.27
7840.27
7840.26
7840.26
7840.26
7840.26
7840.25
7840.25
7840.25
7840.25
7840.24
7840.24
7840.24
7840.24
7840.24
7840.23
7840.23
7840.23
7840.23
7840.23
7840.22
7840.22
7840.22
7840.22
7840.22
7840.22
7840.21
7840.21
7840.21
7840.21
7840.21
7840.21
7840.2
7840.2
7840.2
7840.2
7840.2
7840.2
7840.2
7840.2
7840.19
7840.19
7840.19
7840.19
7840.19
7840.19
7840.19
7840.19
7840.19
7840.18
7840.18
7840.18
7840.18
7840.18
7840.18
7840.18
7840.18
7840.18
7840.18
7840.18
7840.18
7840.18
7840.18
7840.17
7840.17
7840.17
7840.17
7840.17
7840.17
7840.17
7840.17
7840.17
7840.17
7840.17
7840.17
7840.17
7840.17
7840.17
7840.17
7840.17
7840.17
7840.17
7840.17
7840.17
7840.17
7840.17
7840.17
7840.16
7840.16
7840.16
7840.16
7840.16
7840.16
7840.16
7840.16
7840.16
7840.16
7840.16
7840.16
7840.16
7840.16
7840.16
7840.16
7840.16
7840.16
7840.16
7840.16
7840.16
7840.16
7840.16
7840.16
7840.16
7840.16
7840.16
7840.16
7840.16
7840.16
7840.16
7840.16
7840.16
7840.16
7840.16
7840.16
7840.16
7840.16
7840.16
7840.16
7840.16
7840.16
7840.16
7840.16
7840.16
7840.16
7840.16
7840.16
7840.16
7840.16
7840.16
7840.16
7840.16
7840.16
7840.16
7840.16
7840.16
7840.16
7840.16
7840.16
7840.16
7840.16
7840.16
7840.16
7840.16
7840.16
7840.16
7840.16
7840.16
7840.16
7840.16
7840.16
7840.16
7840.16
7840.16
7840.16
7840.16
7840.16
7840.16
7840.16
7840.16
7840.16
7840.16
7840.16
7840.16
7840.16
7840.16
7840.16
7840.16
7840.16
7840.16
7840.16
7840.16
7840.16
7840.15
7840.15
7840.15
7840.15
7840.15
7840.15
7840.15
7840.15
7840.15
7840.15
7840.15
7840.15
7840.15
7840.15
7756.31
7756.91
7757.26
7757.67
7758.02
7758.39
7758.79
7759.21
7759.64
7760.11
7760.6
7761.11
7761.64
7762.21
7762.8
7763.42
7764.06
7764.72
7765.4
7766.1
7766.82
7767.56
7768.31
7769.07
7769.83
7770.61
7771.4
7772.2
7773.03
7773.87
7774.73
7775.59
7776.45
7777.31
7778.16
7779.02
7779.88
7780.74
7781.61
7782.48
7783.35
7784.23
7785.11
7786
7786.89
7787.77
7788.66
7789.54
7790.42
7791.3
7792.17
7793.05
7793.93
7794.8
7795.66
7796.53
7797.38
7798.22
7799.06
7799.89
7800.71
7801.52
7802.31
7803.09
7803.86
7804.62
7805.37
7806.1
7806.82
7807.53
7808.22
7808.9
7809.55
7810.2
7810.84
7811.46
7812.08
7812.69
7813.29
7813.88
7814.46
7815.04
7815.61
7816.17
7816.73
7817.28
7817.82
7818.35
7818.87
7819.39
7819.9
7820.41
7820.91
7821.42
7821.94
7822.42
7822.81
7823.19
7823.97
7824.47
7824.93
7825.47
7825.94
7826.4
7826.87
7827.33
7827.77
7828.2
7828.63
7829.04
7829.44
7829.84
7830.23
7830.61
7830.98
7831.34
7831.7
7832.04
7832.38
7832.71
7833.04
7833.35
7833.66
7833.97
7834.26
7834.55
7834.82
7835.1
7835.36
7835.62
7835.87
7836.12
7836.36
7836.59
7836.81
7837.03
7837.24
7837.44
7837.64
7837.83
7838.01
7838.19
7838.36
7838.53
7838.69
7838.85
7838.99
7839.14
7839.28
7839.41
7839.54
7839.67
7839.79
7839.9
7840.01
7840.12
7840.22
7840.32
7840.41
7840.5
7840.59
7840.67
7840.75
7840.83
7840.9
7840.97
7841.03
7841.1
7841.16
7841.21
7841.27
7841.32
7841.37
7841.41
7841.46
7841.5
7841.53
7841.57
7841.61
7841.64
7841.67
7841.7
7841.72
7841.75
7841.77
7841.79
7841.81
7841.82
7841.84
7841.85
7841.86
7841.87
7841.88
7841.89
7841.9
7841.9
7841.9
7841.9
7841.91
7841.9
7841.9
7841.9
7841.9
7841.89
7841.88
7841.88
7841.87
7841.86
7841.85
7841.84
7841.83
7841.82
7841.81
7841.79
7841.78
7841.76
7841.75
7841.73
7841.72
7841.7
7841.69
7841.67
7841.65
7841.64
7841.62
7841.6
7841.58
7841.56
7841.55
7841.53
7841.51
7841.49
7841.47
7841.45
7841.43
7841.42
7841.4
7841.38
7841.36
7841.34
7841.32
7841.3
7841.28
7841.27
7841.25
7841.23
7841.21
7841.19
7841.18
7841.16
7841.14
7841.12
7841.11
7841.09
7841.07
7841.06
7841.04
7841.02
7841.01
7840.99
7840.98
7840.96
7840.95
7840.93
7840.92
7840.9
7840.89
7840.87
7840.86
7840.84
7840.83
7840.82
7840.8
7840.79
7840.78
7840.77
7840.75
7840.74
7840.73
7840.72
7840.71
7840.7
7840.69
7840.67
7840.66
7840.65
7840.64
7840.63
7840.62
7840.61
7840.6
7840.59
7840.59
7840.58
7840.57
7840.56
7840.55
7840.54
7840.54
7840.53
7840.52
7840.51
7840.51
7840.5
7840.49
7840.48
7840.48
7840.47
7840.46
7840.46
7840.45
7840.45
7840.44
7840.43
7840.43
7840.42
7840.42
7840.41
7840.41
7840.4
7840.4
7840.39
7840.39
7840.38
7840.38
7840.37
7840.37
7840.36
7840.36
7840.35
7840.35
7840.35
7840.34
7840.34
7840.33
7840.33
7840.33
7840.32
7840.32
7840.32
7840.31
7840.31
7840.31
7840.3
7840.3
7840.3
7840.29
7840.29
7840.29
7840.28
7840.28
7840.28
7840.28
7840.27
7840.27
7840.27
7840.26
7840.26
7840.26
7840.26
7840.25
7840.25
7840.25
7840.25
7840.25
7840.24
7840.24
7840.24
7840.24
7840.24
7840.23
7840.23
7840.23
7840.23
7840.23
7840.22
7840.22
7840.22
7840.22
7840.22
7840.22
7840.21