/*--------------------------------*- C++ -*----------------------------------*\
| =========                 |                                                 |
| \\      /  F ield         | OpenFOAM: The Open Source CFD Toolbox           |
|  \\    /   O peration     | Version:  v2006                                 |
|   \\  /    A nd           | Website:  www.openfoam.com                      |
|    \\/     M anipulation  |                                                 |
\*---------------------------------------------------------------------------*/
FoamFile
{
    version     2.0;
    format      ascii;
    class       volVectorField;
    location    "0.8";
    object      U;
}
// * * * * * * * * * * * * * * * * * * * * * * * * * * * * * * * * * * * * * //

dimensions      [0 1 -1 0 0 0 0];


internalField   nonuniform List<vector> 
33000
(
(-0.0242564 0 2.17447e-05)
(-0.0416797 0 1.14179e-05)
(-0.0380447 0 4.99146e-05)
(-0.0380544 0 3.91239e-07)
(-0.0378736 0 -1.7668e-05)
(-0.0377559 0 -3.60474e-05)
(-0.0376135 0 -6.8643e-05)
(-0.037452 0 -0.000101736)
(-0.0372667 0 -0.000130212)
(-0.0370573 0 -0.000155955)
(-0.0368248 0 -0.000176668)
(-0.036575 0 -0.000190705)
(-0.0363084 0 -0.00020925)
(-0.0360293 0 -0.000215559)
(-0.0357412 0 -0.000226128)
(-0.0354415 0 -0.000235469)
(-0.0351321 0 -0.000243153)
(-0.0348117 0 -0.000254533)
(-0.0344776 0 -0.000265994)
(-0.0341304 0 -0.000275634)
(-0.0337706 0 -0.000285312)
(-0.0333985 0 -0.000294186)
(-0.0330144 0 -0.000301541)
(-0.0326222 0 -0.000307668)
(-0.0322223 0 -0.00031269)
(-0.031816 0 -0.000316774)
(-0.0314047 0 -0.000321879)
(-0.0309868 0 -0.000328068)
(-0.0305622 0 -0.00033272)
(-0.0301322 0 -0.000336335)
(-0.0296971 0 -0.000340184)
(-0.029257 0 -0.000343628)
(-0.0288123 0 -0.000347336)
(-0.0283629 0 -0.000350786)
(-0.0279101 0 -0.000353098)
(-0.0274554 0 -0.000354076)
(-0.0269992 0 -0.000355986)
(-0.0265405 0 -0.000358966)
(-0.02608 0 -0.000359941)
(-0.0256193 0 -0.000360897)
(-0.0251589 0 -0.000360083)
(-0.0247009 0 -0.000357089)
(-0.0242437 0 -0.000359268)
(-0.0237864 0 -0.000357926)
(-0.0233321 0 -0.000355159)
(-0.0228807 0 -0.000353962)
(-0.0224302 0 -0.000354393)
(-0.0219796 0 -0.000354626)
(-0.0215289 0 -0.000354952)
(-0.021078 0 -0.000355348)
(-0.0206273 0 -0.000354908)
(-0.020176 0 -0.000356034)
(-0.0197235 0 -0.000356851)
(-0.0192707 0 -0.000356391)
(-0.0188186 0 -0.000355365)
(-0.0183682 0 -0.000353205)
(-0.0179207 0 -0.000350416)
(-0.0174762 0 -0.000347945)
(-0.0170351 0 -0.000344951)
(-0.0165978 0 -0.0003412)
(-0.0161644 0 -0.000338124)
(-0.0157343 0 -0.000335121)
(-0.0153073 0 -0.000332446)
(-0.0148829 0 -0.000330439)
(-0.0144598 0 -0.000329343)
(-0.0140371 0 -0.000329092)
(-0.0136134 0 -0.000330003)
(-0.0131869 0 -0.000332279)
(-0.0127563 0 -0.000336)
(-0.0123192 0 -0.000341787)
(-0.0118718 0 -0.000351177)
(-0.0114078 0 -0.000366882)
(-0.0109156 0 -0.0003932)
(-0.0103768 0 -0.000439497)
(-0.00976358 0 -0.000519625)
(-0.00899204 0 -0.000666213)
(-0.00800226 0 -0.000944725)
(-0.00780142 0 -0.00148955)
(-0.00407475 0 -0.000665048)
(-0.0043605 0 -0.000165866)
(-0.00371085 0 0.000146858)
(-0.00370665 0 0.000293827)
(-0.00369811 0 -5.54753e-05)
(-0.00356055 0 -0.000102474)
(-0.00352212 0 -7.29811e-05)
(-0.00345638 0 -9.89877e-05)
(-0.00331898 0 -8.19307e-05)
(-0.00320598 0 -7.39058e-05)
(-0.00312615 0 -6.47395e-05)
(-0.00304375 0 -6.38369e-05)
(-0.0029621 0 -6.66664e-05)
(-0.00287576 0 -6.06101e-05)
(-0.00279642 0 -6.37299e-05)
(-0.00271445 0 -6.29708e-05)
(-0.00263221 0 -6.37239e-05)
(-0.00255201 0 -6.39274e-05)
(-0.00246729 0 -6.39103e-05)
(-0.00238463 0 -6.49254e-05)
(-0.00230701 0 -6.46508e-05)
(-0.00220787 0 -6.35443e-05)
(-0.00213285 0 -6.2218e-05)
(-0.00205581 0 -6.09105e-05)
(-0.00197831 0 -5.99106e-05)
(-0.00190588 0 -5.68281e-05)
(-0.00183235 0 -5.55469e-05)
(-0.00175934 0 -5.32756e-05)
(-0.00168942 0 -5.27643e-05)
(-0.00162093 0 -5.1824e-05)
(-0.00155376 0 -5.11976e-05)
(-0.0014884 0 -5.00196e-05)
(-0.00142454 0 -4.83832e-05)
(-0.00136281 0 -4.6749e-05)
(-0.00130197 0 -4.47433e-05)
(-0.00124564 0 -4.29084e-05)
(-0.00118661 0 -3.90221e-05)
(-0.0011412 0 -3.73728e-05)
(-0.0010844 0 -2.64633e-05)
(-0.00105183 0 -2.82508e-05)
(-0.000998129 0 -3.78004e-05)
(-0.00095731 0 -4.71432e-05)
(-0.000902024 0 -4.85182e-05)
(-0.000855442 0 -3.84713e-05)
(-0.000807495 0 -3.65597e-05)
(-0.00075698 0 -3.43261e-05)
(-0.000711059 0 -3.41193e-05)
(-0.000667283 0 -3.43052e-05)
(-0.000623594 0 -3.37292e-05)
(-0.000581812 0 -3.2287e-05)
(-0.000541028 0 -3.13125e-05)
(-0.000501107 0 -3.02639e-05)
(-0.000462597 0 -2.93417e-05)
(-0.000425303 0 -2.85027e-05)
(-0.000389132 0 -2.75601e-05)
(-0.000354251 0 -2.65668e-05)
(-0.000320555 0 -2.56404e-05)
(-0.000287967 0 -2.4738e-05)
(-0.00025649 0 -2.38358e-05)
(-0.00022617 0 -2.29237e-05)
(-0.000196991 0 -2.20604e-05)
(-0.000168865 0 -2.12536e-05)
(-0.00014174 0 -2.04789e-05)
(-0.000115598 0 -1.97032e-05)
(-9.04592e-05 0 -1.89407e-05)
(-6.62793e-05 0 -1.82285e-05)
(-4.29863e-05 0 -1.75384e-05)
(-2.05819e-05 0 -1.68338e-05)
(9.27136e-07 0 -1.6166e-05)
(2.16059e-05 0 -1.55581e-05)
(4.15174e-05 0 -1.49711e-05)
(6.06732e-05 0 -1.43855e-05)
(7.90625e-05 0 -1.38146e-05)
(9.67263e-05 0 -1.32768e-05)
(0.000113697 0 -1.27368e-05)
(0.00012996 0 -1.21951e-05)
(0.000145526 0 -1.16739e-05)
(0.000160434 0 -1.11728e-05)
(0.000174702 0 -1.06718e-05)
(0.000188332 0 -1.01884e-05)
(0.000201346 0 -9.7261e-06)
(0.000213763 0 -9.25507e-06)
(0.000225568 0 -8.77443e-06)
(0.000236768 0 -8.33649e-06)
(0.000247421 0 -7.94712e-06)
(0.000257557 0 -7.54983e-06)
(0.000267154 0 -7.12191e-06)
(0.000276204 0 -6.70149e-06)
(0.000284751 0 -6.32878e-06)
(0.000292833 0 -5.97464e-06)
(0.000300451 0 -5.60222e-06)
(0.000307584 0 -5.22724e-06)
(0.000314251 0 -4.89842e-06)
(0.000320513 0 -4.60566e-06)
(0.000326383 0 -4.29267e-06)
(0.00033183 0 -3.96594e-06)
(0.000336867 0 -3.67241e-06)
(0.000341545 0 -3.40062e-06)
(0.00034587 0 -3.11521e-06)
(0.000349822 0 -2.82614e-06)
(0.000353419 0 -2.56461e-06)
(0.000356695 0 -2.31919e-06)
(0.000359652 0 -2.06645e-06)
(0.000362281 0 -1.8203e-06)
(0.000364603 0 -1.60406e-06)
(0.000366653 0 -1.40268e-06)
(0.000368442 0 -1.19509e-06)
(0.000369951 0 -9.84588e-07)
(0.000371191 0 -7.85309e-07)
(0.000372183 0 -5.9593e-07)
(0.000372933 0 -4.07103e-07)
(0.000373439 0 -2.22125e-07)
(0.000373708 0 -5.10789e-08)
(0.00037376 0 1.03109e-07)
(0.000373614 0 2.48732e-07)
(0.000373276 0 3.96764e-07)
(0.000372742 0 5.50118e-07)
(0.000372014 0 7.02034e-07)
(0.000371104 0 8.4642e-07)
(0.000370018 0 9.82843e-07)
(0.000368761 0 1.11161e-06)
(0.000367339 0 1.23428e-06)
(0.000365762 0 1.35412e-06)
(0.000364032 0 1.46973e-06)
(0.000362158 0 1.57818e-06)
(0.000360149 0 1.6814e-06)
(0.00035801 0 1.78015e-06)
(0.000355751 0 1.86906e-06)
(0.000353385 0 1.9461e-06)
(0.000350924 0 2.01541e-06)
(0.000348371 0 2.07485e-06)
(0.000345739 0 2.11969e-06)
(0.000343042 0 2.16121e-06)
(0.000340275 0 2.2181e-06)
(0.000337419 0 2.28816e-06)
(0.000334471 0 2.35326e-06)
(0.000331443 0 2.41196e-06)
(0.00032834 0 2.47747e-06)
(0.000325153 0 2.54664e-06)
(0.000321887 0 2.59972e-06)
(0.000318568 0 2.63287e-06)
(0.000315207 0 2.66435e-06)
(0.000311798 0 2.70191e-06)
(0.000308335 0 2.73271e-06)
(0.000304834 0 2.75223e-06)
(0.000301303 0 2.77548e-06)
(0.000297731 0 2.81106e-06)
(0.000294112 0 2.84564e-06)
(0.000290462 0 2.86452e-06)
(0.000286797 0 2.87185e-06)
(0.000283125 0 2.87686e-06)
(0.000279443 0 2.87905e-06)
(0.000275755 0 2.87477e-06)
(0.000272068 0 2.86754e-06)
(0.000268383 0 2.86207e-06)
(0.000264697 0 2.85799e-06)
(0.000261014 0 2.85533e-06)
(0.000257334 0 2.85853e-06)
(0.000253652 0 2.8678e-06)
(0.000249965 0 2.87403e-06)
(0.000246281 0 2.86657e-06)
(0.000242616 0 2.84532e-06)
(0.000238977 0 2.81878e-06)
(0.000235363 0 2.79499e-06)
(0.000231772 0 2.7771e-06)
(0.000228197 0 2.76485e-06)
(0.000224635 0 2.75538e-06)
(0.000221082 0 2.74266e-06)
(0.000217545 0 2.72321e-06)
(0.000214032 0 2.7031e-06)
(0.000210542 0 2.69295e-06)
(0.000207065 0 2.69326e-06)
(0.000203597 0 2.6887e-06)
(0.000200146 0 2.66452e-06)
(0.000196736 0 2.62564e-06)
(0.000193372 0 2.59146e-06)
(0.000190042 0 2.5719e-06)
(0.000186735 0 2.55358e-06)
(0.000183457 0 2.51674e-06)
(0.000180232 0 2.46053e-06)
(0.000177072 0 2.40371e-06)
(0.000173965 0 2.36377e-06)
(0.000170893 0 2.3417e-06)
(0.000167843 0 2.32904e-06)
(0.000164812 0 2.31992e-06)
(0.000161802 0 2.31239e-06)
(0.00015881 0 2.30218e-06)
(0.00015584 0 2.28514e-06)
(0.000152899 0 2.26323e-06)
(0.000149991 0 2.24033e-06)
(0.000147116 0 2.21291e-06)
(0.000144283 0 2.17355e-06)
(0.000141504 0 2.12413e-06)
(0.000138783 0 2.07659e-06)
(0.00013611 0 2.03792e-06)
(0.000133478 0 2.00686e-06)
(0.000130882 0 1.98002e-06)
(0.000128318 0 1.95672e-06)
(0.000125782 0 1.93709e-06)
(0.000123269 0 1.92047e-06)
(0.000120777 0 1.90787e-06)
(0.000118303 0 1.90127e-06)
(0.000115843 0 1.89785e-06)
(0.000113397 0 1.88787e-06)
(0.000110975 0 1.86286e-06)
(0.000108595 0 1.82462e-06)
(0.000106266 0 1.7803e-06)
(0.000103992 0 1.73454e-06)
(0.000101773 0 1.68735e-06)
(9.96119e-05 0 1.6369e-06)
(9.75138e-05 0 1.58412e-06)
(9.54794e-05 0 1.53264e-06)
(9.35048e-05 0 1.48712e-06)
(9.15819e-05 0 1.44796e-06)
(8.97044e-05 0 1.41339e-06)
(8.78648e-05 0 1.38838e-06)
(8.60514e-05 0 1.37461e-06)
(8.4254e-05 0 1.36905e-06)
(8.24676e-05 0 1.36515e-06)
(8.06937e-05 0 1.35726e-06)
(7.89373e-05 0 1.34411e-06)
(7.72025e-05 0 1.32806e-06)
(7.54913e-05 0 1.31118e-06)
(7.38053e-05 0 1.29243e-06)
(7.21489e-05 0 1.26853e-06)
(7.05296e-05 0 1.23678e-06)
(6.89563e-05 0 1.19627e-06)
(6.74366e-05 0 1.15014e-06)
(6.59732e-05 0 1.10294e-06)
(6.45647e-05 0 1.0585e-06)
(6.32066e-05 0 1.01919e-06)
(6.18925e-05 0 9.86418e-07)
(6.0615e-05 0 9.61152e-07)
(5.93665e-05 0 9.42713e-07)
(5.81406e-05 0 9.30476e-07)
(5.69321e-05 0 9.21994e-07)
(5.57389e-05 0 9.14079e-07)
(5.45616e-05 0 9.03776e-07)
(5.34038e-05 0 8.89167e-07)
(5.22707e-05 0 8.69652e-07)
(5.1168e-05 0 8.45995e-07)
(5.01002e-05 0 8.19713e-07)
(4.90692e-05 0 7.91323e-07)
(4.80753e-05 0 7.59856e-07)
(4.7119e-05 0 7.24256e-07)
(4.62014e-05 0 6.86908e-07)
(4.53217e-05 0 6.54758e-07)
(4.44724e-05 0 6.37125e-07)
(4.36373e-05 0 6.37836e-07)
(4.27996e-05 0 6.48429e-07)
(4.19533e-05 0 6.56042e-07)
(4.11058e-05 0 6.53656e-07)
(4.02692e-05 0 6.45325e-07)
(3.94496e-05 0 6.36106e-07)
(3.86485e-05 0 6.22181e-07)
(3.78729e-05 0 5.93772e-07)
(3.71385e-05 0 5.49219e-07)
(3.64585e-05 0 5.01081e-07)
(3.58282e-05 0 4.67321e-07)
(3.52255e-05 0 4.5183e-07)
(3.46332e-05 0 4.43079e-07)
(3.40486e-05 0 4.3549e-07)
(3.34708e-05 0 4.35257e-07)
(3.28904e-05 0 4.48429e-07)
(3.22945e-05 0 4.68851e-07)
(3.16816e-05 0 4.82446e-07)
(3.10641e-05 0 4.83075e-07)
(3.04548e-05 0 4.75665e-07)
(2.98584e-05 0 4.64415e-07)
(2.92786e-05 0 4.46761e-07)
(2.87228e-05 0 4.22339e-07)
(2.81948e-05 0 3.98508e-07)
(2.76879e-05 0 3.82534e-07)
(2.71919e-05 0 3.75345e-07)
(2.66995e-05 0 3.76324e-07)
(2.62026e-05 0 3.86774e-07)
(2.5691e-05 0 4.04047e-07)
(2.51618e-05 0 4.18963e-07)
(2.46245e-05 0 4.23846e-07)
(2.40928e-05 0 4.19509e-07)
(2.3575e-05 0 4.0912e-07)
(2.30747e-05 0 3.9194e-07)
(2.25973e-05 0 3.67441e-07)
(2.21459e-05 0 3.42644e-07)
(2.17151e-05 0 3.28166e-07)
(2.12903e-05 0 3.28939e-07)
(2.08572e-05 0 3.40456e-07)
(2.04092e-05 0 3.55051e-07)
(1.99475e-05 0 3.67968e-07)
(1.94764e-05 0 3.76987e-07)
(1.90026e-05 0 3.78597e-07)
(1.85362e-05 0 3.6887e-07)
(1.8089e-05 0 3.48113e-07)
(1.76687e-05 0 3.23201e-07)
(1.72738e-05 0 3.02838e-07)
(1.68955e-05 0 2.91286e-07)
(1.65245e-05 0 2.86504e-07)
(1.61565e-05 0 2.84279e-07)
(1.57918e-05 0 2.83547e-07)
(1.54298e-05 0 2.84975e-07)
(1.50696e-05 0 2.84637e-07)
(1.47168e-05 0 2.74605e-07)
(1.43842e-05 0 2.5184e-07)
(1.40823e-05 0 2.22167e-07)
(1.3809e-05 0 1.97742e-07)
(1.3551e-05 0 1.86695e-07)
(1.32926e-05 0 1.91552e-07)
(1.30211e-05 0 2.08385e-07)
(1.27316e-05 0 2.27173e-07)
(1.24305e-05 0 2.37746e-07)
(1.21305e-05 0 2.3613e-07)
(1.18429e-05 0 2.23939e-07)
(1.15742e-05 0 2.05704e-07)
(1.1324e-05 0 1.8906e-07)
(1.10833e-05 0 1.82398e-07)
(1.08376e-05 0 1.89354e-07)
(1.05746e-05 0 2.0711e-07)
(1.02887e-05 0 2.30586e-07)
(9.98105e-06 0 2.51809e-07)
(9.66166e-06 0 2.59685e-07)
(9.34887e-06 0 2.46869e-07)
(9.06067e-06 0 2.19684e-07)
(8.80199e-06 0 1.93953e-07)
(8.56148e-06 0 1.81421e-07)
(8.32251e-06 0 1.81242e-07)
(8.07992e-06 0 1.8547e-07)
(7.83593e-06 0 1.93239e-07)
(7.58808e-06 0 1.98958e-07)
(7.34352e-06 0 1.89192e-07)
(7.11766e-06 0 1.67608e-07)
(6.91102e-06 0 1.52238e-07)
(6.71027e-06 0 1.51878e-07)
(6.50307e-06 0 1.62595e-07)
(6.28424e-06 0 1.74827e-07)
(6.06105e-06 0 1.76701e-07)
(5.84908e-06 0 1.66446e-07)
(5.65474e-06 0 1.52892e-07)
(5.47201e-06 0 1.40512e-07)
(5.30003e-06 0 1.30889e-07)
(5.13274e-06 0 1.31754e-07)
(4.96271e-06 0 1.34237e-07)
(4.7911e-06 0 1.2787e-07)
(4.63307e-06 0 1.17908e-07)
(4.47852e-06 0 1.32095e-07)
(4.29701e-06 0 1.53692e-07)
(4.10419e-06 0 1.60251e-07)
(3.90159e-06 0 1.68621e-07)
(3.70568e-06 0 1.52776e-07)
(3.5446e-06 0 1.40096e-07)
(3.39252e-06 0 1.25433e-07)
(3.26893e-06 0 1.0361e-07)
(3.12029e-06 0 9.19264e-08)
(3.04943e-06 0 7.79871e-08)
(2.93191e-06 0 6.2744e-08)
(2.88718e-06 0 1.97453e-08)
(2.86681e-06 0 4.64054e-09)
(2.84778e-06 0 1.09988e-08)
(2.81665e-06 0 4.07175e-08)
(2.73782e-06 0 6.00413e-08)
(2.68474e-06 0 4.41207e-08)
(2.62075e-06 0 5.01278e-08)
(2.58666e-06 0 -7.07789e-09)
(2.60399e-06 0 2.49062e-08)
(2.50967e-06 0 8.63533e-08)
(2.40241e-06 0 8.32543e-08)
(2.30042e-06 0 7.82039e-08)
(2.23615e-06 0 4.45008e-08)
(2.20067e-06 0 6.5713e-08)
(2.11404e-06 0 5.45113e-08)
(2.09334e-06 0 1.01941e-08)
(2.09621e-06 0 -2.32283e-08)
(2.1844e-06 0 -1.02609e-07)
(2.224e-06 0 -3.30566e-08)
(2.25819e-06 0 -6.48047e-08)
(2.31955e-06 0 6.62326e-09)
(2.28241e-06 0 1.28879e-08)
(2.2631e-06 0 9.38283e-08)
(2.15335e-06 0 4.0486e-08)
(2.24121e-06 0 -7.83468e-08)
(2.2681e-06 0 5.79387e-08)
(2.20716e-06 0 -6.84462e-08)
(2.3778e-06 0 -1.37422e-07)
(2.40894e-06 0 4.04661e-08)
(2.40961e-06 0 -1.08723e-08)
(2.29589e-06 0 -6.11201e-09)
(2.28358e-06 0 -2.78729e-08)
(2.25576e-06 0 1.81015e-07)
(2.05469e-06 0 1.80161e-07)
(2.1923e-06 0 -4.68945e-09)
(2.39076e-06 0 7.58439e-08)
(2.06477e-06 0 -3.46553e-07)
(3.64351e-06 0 -5.03148e-07)
(3.08217e-06 0 1.04415e-07)
(3.06687e-06 0 1.038e-08)
(2.99421e-06 0 1.14957e-07)
(2.8173e-06 0 1.4125e-07)
(2.61913e-06 0 1.40359e-07)
(2.38975e-06 0 1.72493e-07)
(2.09032e-06 0 2.47898e-07)
(1.72888e-06 0 3.10496e-07)
(1.33538e-06 0 3.3455e-07)
(9.19778e-07 0 3.40511e-07)
(4.96396e-07 0 3.21896e-07)
(1.1999e-07 0 2.6578e-07)
(-1.82031e-07 0 1.98098e-07)
(-4.39358e-07 0 1.68119e-07)
(-6.88697e-07 0 1.77208e-07)
(-9.47687e-07 0 1.90606e-07)
(-1.19796e-06 0 1.78615e-07)
(-1.40919e-06 0 1.42863e-07)
(-1.57024e-06 0 1.04167e-07)
(-1.69497e-06 0 8.11977e-08)
(-1.80897e-06 0 8.07445e-08)
(-1.93981e-06 0 1.01573e-07)
(-2.10859e-06 0 1.36429e-07)
(-2.32235e-06 0 1.75632e-07)
(-2.57501e-06 0 2.0793e-07)
(-2.85352e-06 0 2.27942e-07)
(-3.14116e-06 0 2.35111e-07)
(-3.41993e-06 0 2.28012e-07)
(-3.66834e-06 0 2.0188e-07)
(-3.86282e-06 0 1.52029e-07)
(-3.9752e-06 0 7.24432e-08)
(-3.96862e-06 0 -3.06386e-08)
(-3.84965e-06 0 -1.48227e-07)
(-3.61268e-06 0 -2.52711e-07)
(-3.25942e-06 0 -3.34648e-07)
(-2.83656e-06 0 -3.84765e-07)
(-2.37044e-06 0 -4.03013e-07)
(-1.88899e-06 0 -3.9764e-07)
(-1.41548e-06 0 -3.77084e-07)
(-9.67834e-07 0 -3.46076e-07)
(-5.61533e-07 0 -3.00832e-07)
(-2.13059e-07 0 -2.40205e-07)
(5.11753e-08 0 -1.62722e-07)
(2.08864e-07 0 -7.97045e-08)
(2.70236e-07 0 -9.33671e-09)
(2.76456e-07 0 3.32745e-08)
(2.69479e-07 0 3.36191e-08)
(2.83204e-07 0 -6.94585e-09)
(3.59486e-07 0 -7.91679e-08)
(5.35847e-07 0 -1.72368e-07)
(8.22311e-07 0 -2.6776e-07)
(1.195e-06 0 -3.26613e-07)
(1.57953e-06 0 -3.01739e-07)
(1.88384e-06 0 -1.76226e-07)
(2.01534e-06 0 -2.19347e-08)
(2.01754e-06 0 6.58215e-08)
(2.04196e-06 0 -2.52913e-08)
(2.23877e-06 0 -2.40649e-07)
(2.59478e-06 0 -3.56059e-07)
(2.87935e-06 0 -2.09919e-07)
(2.85006e-06 0 1.83361e-07)
(2.44343e-06 0 4.82019e-07)
(1.96046e-06 0 4.41097e-07)
(1.75956e-06 0 9.60934e-08)
(1.8199e-06 0 -8.78564e-08)
(1.76621e-06 0 1.48361e-07)
(1.35274e-06 0 4.99641e-07)
(8.09801e-07 0 4.30864e-07)
(6.95692e-07 0 -8.23252e-08)
(1.04144e-06 0 -3.35305e-07)
(1.22991e-06 0 -8.62529e-08)
(1.14219e-06 0 8.78687e-08)
(1.32285e-06 0 -3.6437e-07)
(1.96489e-06 0 -7.42632e-07)
(2.41436e-06 0 -2.49769e-07)
(2.29379e-06 0 2.28962e-07)
(2.11881e-06 0 7.45787e-08)
(1.86488e-06 0 4.29565e-07)
(1.37513e-06 0 5.06983e-07)
(5.69909e-07 0 5.60037e-07)
(-0.0241864 0 -0.000266781)
(-0.0416753 0 -0.000138417)
(-0.0381594 0 -0.000112223)
(-0.0382314 0 -0.000213594)
(-0.0380801 0 -0.000249447)
(-0.0379598 0 -0.000288583)
(-0.0377986 0 -0.000352823)
(-0.0376168 0 -0.000418515)
(-0.0374145 0 -0.000475997)
(-0.0371945 0 -0.000529564)
(-0.0369586 0 -0.000575391)
(-0.036707 0 -0.000609945)
(-0.0364417 0 -0.000651031)
(-0.0361631 0 -0.000671165)
(-0.0358713 0 -0.000697786)
(-0.0355684 0 -0.000722859)
(-0.0352537 0 -0.00074656)
(-0.0349266 0 -0.000777677)
(-0.0345869 0 -0.000809136)
(-0.0342341 0 -0.000836963)
(-0.0338688 0 -0.000864103)
(-0.0334921 0 -0.000889052)
(-0.0331055 0 -0.000910775)
(-0.0327098 0 -0.000930081)
(-0.0323059 0 -0.000947111)
(-0.0318951 0 -0.000960986)
(-0.0314778 0 -0.000976441)
(-0.0310542 0 -0.000992768)
(-0.0306252 0 -0.00100397)
(-0.0301916 0 -0.00101368)
(-0.0297528 0 -0.00102573)
(-0.0293098 0 -0.00103409)
(-0.0288636 0 -0.0010446)
(-0.0284132 0 -0.00105526)
(-0.0279595 0 -0.00106184)
(-0.0275037 0 -0.00106583)
(-0.0270457 0 -0.0010723)
(-0.0265859 0 -0.00107928)
(-0.0261248 0 -0.00108306)
(-0.0256609 0 -0.00108792)
(-0.0251944 0 -0.00108891)
(-0.0247263 0 -0.00108492)
(-0.0242577 0 -0.00108901)
(-0.02379 0 -0.00108614)
(-0.0233234 0 -0.00107991)
(-0.0228586 0 -0.00107593)
(-0.0223965 0 -0.00107442)
(-0.0219377 0 -0.00107232)
(-0.0214821 0 -0.00107066)
(-0.0210292 0 -0.00106937)
(-0.0205785 0 -0.00106702)
(-0.0201292 0 -0.00106824)
(-0.0196806 0 -0.00106913)
(-0.0192325 0 -0.00106765)
(-0.0187848 0 -0.00106473)
(-0.0183379 0 -0.00105889)
(-0.0178922 0 -0.00105155)
(-0.0174483 0 -0.00104375)
(-0.0170072 0 -0.00103448)
(-0.01657 0 -0.00102313)
(-0.0161369 0 -0.00101293)
(-0.0157079 0 -0.00100295)
(-0.0152825 0 -0.0009942)
(-0.01486 0 -0.000987349)
(-0.0144393 0 -0.000983417)
(-0.0140191 0 -0.000982242)
(-0.0135981 0 -0.000984349)
(-0.0131751 0 -0.000990166)
(-0.012749 0 -0.000999681)
(-0.0123188 0 -0.00101436)
(-0.011883 0 -0.00103765)
(-0.0114398 0 -0.00107535)
(-0.0109881 0 -0.00113573)
(-0.0105278 0 -0.0012335)
(-0.0100658 0 -0.0013869)
(-0.00962562 0 -0.0016311)
(-0.00927738 0 -0.00204177)
(-0.00919302 0 -0.00273265)
(-0.00904821 0 -0.00299792)
(-0.0082731 0 -0.0017784)
(-0.00802489 0 -0.00140915)
(-0.00405932 0 -0.000461251)
(-0.00428246 0 -0.000309101)
(-0.00358935 0 -4.64311e-05)
(-0.00350082 0 0.000102905)
(-0.00344965 0 -0.000265069)
(-0.00328029 0 -0.000295768)
(-0.00318762 0 -0.00025758)
(-0.00312131 0 -0.000200162)
(-0.00305244 0 -0.000202517)
(-0.00295505 0 -0.000188847)
(-0.00286821 0 -0.000183452)
(-0.00279647 0 -0.000185211)
(-0.00270827 0 -0.00018881)
(-0.0026242 0 -0.000184271)
(-0.00254166 0 -0.000189399)
(-0.00245905 0 -0.00018957)
(-0.00237715 0 -0.000191026)
(-0.00230007 0 -0.000190169)
(-0.00221942 0 -0.000187973)
(-0.00214177 0 -0.000184524)
(-0.00206575 0 -0.000179106)
(-0.0019723 0 -0.000173211)
(-0.00189938 0 -0.000168839)
(-0.00182657 0 -0.000166397)
(-0.00175468 0 -0.000162765)
(-0.00168578 0 -0.000157925)
(-0.00161618 0 -0.000154947)
(-0.00154819 0 -0.000150272)
(-0.00148078 0 -0.000146499)
(-0.0014162 0 -0.000142783)
(-0.00135386 0 -0.000139232)
(-0.00129252 0 -0.00013475)
(-0.00123371 0 -0.000129909)
(-0.00117559 0 -0.000122918)
(-0.00111945 0 -0.00011808)
(-0.00106617 0 -0.000103683)
(-0.0010069 0 -9.92622e-05)
(-0.000964731 0 -0.000106618)
(-0.000910719 0 -0.000104072)
(-0.000883832 0 -0.000106321)
(-0.000833166 0 -0.000106912)
(-0.000796921 0 -0.00011518)
(-0.000749344 0 -0.000114156)
(-0.000707165 0 -0.000102839)
(-0.000662794 0 -0.00010026)
(-0.000616527 0 -9.66478e-05)
(-0.000574259 0 -9.40564e-05)
(-0.000534374 0 -9.246e-05)
(-0.000494819 0 -8.99624e-05)
(-0.00045693 0 -8.66915e-05)
(-0.000420018 0 -8.39794e-05)
(-0.00038403 0 -8.10684e-05)
(-0.000349384 0 -7.82477e-05)
(-0.000315933 0 -7.5647e-05)
(-0.000283554 0 -7.31234e-05)
(-0.00025225 0 -7.0529e-05)
(-0.000222028 0 -6.78473e-05)
(-0.000192876 0 -6.53197e-05)
(-0.000164731 0 -6.2937e-05)
(-0.000137602 0 -6.06485e-05)
(-0.000111457 0 -5.83495e-05)
(-8.62953e-05 0 -5.607e-05)
(-6.20943e-05 0 -5.39241e-05)
(-3.8803e-05 0 -5.18834e-05)
(-1.63802e-05 0 -4.98309e-05)
(5.17313e-06 0 -4.78294e-05)
(2.5874e-05 0 -4.59805e-05)
(4.57761e-05 0 -4.42232e-05)
(6.48969e-05 0 -4.24684e-05)
(8.32325e-05 0 -4.07364e-05)
(0.000100817 0 -3.91028e-05)
(0.000117692 0 -3.7492e-05)
(0.000133864 0 -3.58784e-05)
(0.000149338 0 -3.43202e-05)
(0.00016415 0 -3.28413e-05)
(0.000178338 0 -3.13827e-05)
(0.000191903 0 -2.99468e-05)
(0.000204841 0 -2.85588e-05)
(0.000217168 0 -2.7185e-05)
(0.000228903 0 -2.58018e-05)
(0.00024005 0 -2.44805e-05)
(0.000250618 0 -2.32454e-05)
(0.000260624 0 -2.20345e-05)
(0.00027011 0 -2.08157e-05)
(0.0002791 0 -1.96279e-05)
(0.0002876 0 -1.85262e-05)
(0.00029562 0 -1.7471e-05)
(0.00030317 0 -1.63977e-05)
(0.000310253 0 -1.53176e-05)
(0.000316875 0 -1.43213e-05)
(0.00032306 0 -1.34069e-05)
(0.000328827 0 -1.24762e-05)
(0.000334186 0 -1.15344e-05)
(0.000339157 0 -1.06646e-05)
(0.000343763 0 -9.85659e-06)
(0.000348016 0 -9.04024e-06)
(0.000351919 0 -8.22425e-06)
(0.000355477 0 -7.46521e-06)
(0.00035871 0 -6.74785e-06)
(0.000361633 0 -6.02486e-06)
(0.000364243 0 -5.31619e-06)
(0.000366553 0 -4.66967e-06)
(0.000368582 0 -4.06469e-06)
(0.000370342 0 -3.45189e-06)
(0.00037183 0 -2.83472e-06)
(0.000373051 0 -2.25166e-06)
(0.000374018 0 -1.70309e-06)
(0.000374743 0 -1.15684e-06)
(0.000375218 0 -6.07789e-07)
(0.00037544 0 -8.43902e-08)
(0.000375421 0 3.95623e-07)
(0.000375185 0 8.47051e-07)
(0.000374748 0 1.2952e-06)
(0.000374116 0 1.74069e-06)
(0.000373304 0 2.16452e-06)
(0.000372326 0 2.56685e-06)
(0.000371179 0 2.9627e-06)
(0.000369854 0 3.34899e-06)
(0.000368357 0 3.71481e-06)
(0.000366703 0 4.06287e-06)
(0.000364903 0 4.39632e-06)
(0.000362965 0 4.70922e-06)
(0.0003609 0 5.00153e-06)
(0.000358721 0 5.275e-06)
(0.000356433 0 5.52162e-06)
(0.000354045 0 5.73989e-06)
(0.000351559 0 5.94356e-06)
(0.000348972 0 6.13353e-06)
(0.000346284 0 6.29673e-06)
(0.000343502 0 6.44752e-06)
(0.000340635 0 6.62225e-06)
(0.000337682 0 6.82157e-06)
(0.000334648 0 7.00876e-06)
(0.000331545 0 7.17423e-06)
(0.000328383 0 7.34322e-06)
(0.000325161 0 7.51496e-06)
(0.000321882 0 7.65495e-06)
(0.00031855 0 7.7557e-06)
(0.000315168 0 7.8533e-06)
(0.000311734 0 7.96577e-06)
(0.000308245 0 8.06882e-06)
(0.000304709 0 8.14857e-06)
(0.000301138 0 8.22769e-06)
(0.000297538 0 8.32067e-06)
(0.000293914 0 8.40231e-06)
(0.000290271 0 8.44659e-06)
(0.000286615 0 8.46548e-06)
(0.000282948 0 8.48274e-06)
(0.000279264 0 8.49888e-06)
(0.000275564 0 8.50405e-06)
(0.000271851 0 8.50164e-06)
(0.000268131 0 8.49861e-06)
(0.000264409 0 8.491e-06)
(0.000260697 0 8.47595e-06)
(0.000257005 0 8.46212e-06)
(0.000253338 0 8.45513e-06)
(0.000249692 0 8.44315e-06)
(0.000246065 0 8.41112e-06)
(0.000242452 0 8.36079e-06)
(0.000238847 0 8.30663e-06)
(0.000235247 0 8.25825e-06)
(0.000231653 0 8.21763e-06)
(0.000228067 0 8.18621e-06)
(0.000224487 0 8.16375e-06)
(0.00022091 0 8.13944e-06)
(0.000217338 0 8.0987e-06)
(0.000213782 0 8.04268e-06)
(0.00021026 0 7.98981e-06)
(0.000206778 0 7.95036e-06)
(0.000203334 0 7.90694e-06)
(0.00019992 0 7.83331e-06)
(0.000196538 0 7.73039e-06)
(0.000193195 0 7.62974e-06)
(0.000189892 0 7.55439e-06)
(0.000186618 0 7.48701e-06)
(0.000183365 0 7.39152e-06)
(0.000180134 0 7.26161e-06)
(0.000176931 0 7.13099e-06)
(0.000173761 0 7.03343e-06)
(0.000170624 0 6.96921e-06)
(0.000167522 0 6.91626e-06)
(0.000164459 0 6.86271e-06)
(0.000161439 0 6.81165e-06)
(0.000158458 0 6.76158e-06)
(0.000155514 0 6.70233e-06)
(0.000152608 0 6.63127e-06)
(0.000149742 0 6.55419e-06)
(0.000146915 0 6.4683e-06)
(0.000144124 0 6.36334e-06)
(0.000141369 0 6.24371e-06)
(0.000138647 0 6.13071e-06)
(0.000135957 0 6.03598e-06)
(0.000133297 0 5.95407e-06)
(0.000130668 0 5.87795e-06)
(0.00012807 0 5.80967e-06)
(0.000125502 0 5.75165e-06)
(0.000122961 0 5.69963e-06)
(0.000120453 0 5.65011e-06)
(0.000117982 0 5.6052e-06)
(0.00011555 0 5.56314e-06)
(0.000113155 0 5.50996e-06)
(0.000110796 0 5.43043e-06)
(0.000108476 0 5.32468e-06)
(0.000106198 0 5.20491e-06)
(0.000103964 0 5.08125e-06)
(0.000101774 0 4.95428e-06)
(9.96278e-05 0 4.82035e-06)
(9.75286e-05 0 4.68096e-06)
(9.5477e-05 0 4.54429e-06)
(9.34713e-05 0 4.42042e-06)
(9.15088e-05 0 4.31294e-06)
(8.95855e-05 0 4.22112e-06)
(8.76986e-05 0 4.15021e-06)
(8.5847e-05 0 4.10061e-06)
(8.40286e-05 0 4.06582e-06)
(8.2241e-05 0 4.03437e-06)
(8.04825e-05 0 3.99682e-06)
(7.87526e-05 0 3.95061e-06)
(7.70522e-05 0 3.89842e-06)
(7.53828e-05 0 3.84207e-06)
(7.3746e-05 0 3.77847e-06)
(7.21436e-05 0 3.70171e-06)
(7.05778e-05 0 3.6078e-06)
(6.90505e-05 0 3.49743e-06)
(6.75623e-05 0 3.3774e-06)
(6.61129e-05 0 3.25664e-06)
(6.47011e-05 0 3.14289e-06)
(6.33248e-05 0 3.04109e-06)
(6.19813e-05 0 2.95395e-06)
(6.06686e-05 0 2.8825e-06)
(5.93848e-05 0 2.82524e-06)
(5.8129e-05 0 2.77963e-06)
(5.69011e-05 0 2.74106e-06)
(5.57011e-05 0 2.70378e-06)
(5.4529e-05 0 2.66199e-06)
(5.33855e-05 0 2.61054e-06)
(5.22721e-05 0 2.54629e-06)
(5.11914e-05 0 2.46971e-06)
(5.01457e-05 0 2.38549e-06)
(4.91352e-05 0 2.3002e-06)
(4.81559e-05 0 2.21762e-06)
(4.72004e-05 0 2.13751e-06)
(4.62623e-05 0 2.05876e-06)
(4.53397e-05 0 1.98691e-06)
(4.44354e-05 0 1.93597e-06)
(4.35523e-05 0 1.91801e-06)
(4.26879e-05 0 1.92595e-06)
(4.18359e-05 0 1.93585e-06)
(4.09944e-05 0 1.92467e-06)
(4.01701e-05 0 1.88984e-06)
(3.9372e-05 0 1.84357e-06)
(3.86018e-05 0 1.7901e-06)
(3.78544e-05 0 1.71664e-06)
(3.71275e-05 0 1.61412e-06)
(3.64257e-05 0 1.50117e-06)
(3.57521e-05 0 1.41557e-06)
(3.51001e-05 0 1.37413e-06)
(3.4457e-05 0 1.35721e-06)
(3.3817e-05 0 1.34402e-06)
(3.31848e-05 0 1.33804e-06)
(3.25651e-05 0 1.35331e-06)
(3.19553e-05 0 1.38447e-06)
(3.13508e-05 0 1.4054e-06)
(3.07531e-05 0 1.39957e-06)
(3.01666e-05 0 1.3745e-06)
(2.95923e-05 0 1.34106e-06)
(2.90282e-05 0 1.29688e-06)
(2.84745e-05 0 1.24191e-06)
(2.79315e-05 0 1.19135e-06)
(2.73961e-05 0 1.15957e-06)
(2.68648e-05 0 1.14614e-06)
(2.6338e-05 0 1.14795e-06)
(2.58159e-05 0 1.1684e-06)
(2.5296e-05 0 1.20283e-06)
(2.47776e-05 0 1.2296e-06)
(2.42668e-05 0 1.22909e-06)
(2.37717e-05 0 1.20316e-06)
(2.32947e-05 0 1.1652e-06)
(2.2831e-05 0 1.12133e-06)
(2.23749e-05 0 1.07188e-06)
(2.19236e-05 0 1.02615e-06)
(2.14757e-05 0 1.00116e-06)
(2.10284e-05 0 1.00575e-06)
(2.05792e-05 0 1.03145e-06)
(2.01288e-05 0 1.06179e-06)
(1.96807e-05 0 1.08465e-06)
(1.92389e-05 0 1.09392e-06)
(1.88058e-05 0 1.08423e-06)
(1.83829e-05 0 1.05165e-06)
(1.79712e-05 0 1.00004e-06)
(1.75717e-05 0 9.43462e-07)
(1.71839e-05 0 8.98502e-07)
(1.68044e-05 0 8.73213e-07)
(1.64289e-05 0 8.62357e-07)
(1.60571e-05 0 8.5461e-07)
(1.56938e-05 0 8.45132e-07)
(1.53443e-05 0 8.35848e-07)
(1.50085e-05 0 8.21522e-07)
(1.46837e-05 0 7.87616e-07)
(1.43696e-05 0 7.30354e-07)
(1.40654e-05 0 6.67421e-07)
(1.37655e-05 0 6.24657e-07)
(1.34636e-05 0 6.13623e-07)
(1.31581e-05 0 6.30201e-07)
(1.28527e-05 0 6.61244e-07)
(1.25523e-05 0 6.87164e-07)
(1.22621e-05 0 6.90845e-07)
(1.19865e-05 0 6.69173e-07)
(1.17242e-05 0 6.31344e-07)
(1.14694e-05 0 5.90926e-07)
(1.12137e-05 0 5.64184e-07)
(1.09498e-05 0 5.6512e-07)
(1.0675e-05 0 5.94027e-07)
(1.03923e-05 0 6.39137e-07)
(1.0107e-05 0 6.84727e-07)
(9.82543e-06 0 7.1434e-07)
(9.55272e-06 0 7.13266e-07)
(9.28891e-06 0 6.76827e-07)
(9.03048e-06 0 6.19751e-07)
(8.77367e-06 0 5.72175e-07)
(8.51467e-06 0 5.55662e-07)
(8.25261e-06 0 5.6144e-07)
(7.99619e-06 0 5.64645e-07)
(7.75625e-06 0 5.63676e-07)
(7.53035e-06 0 5.59363e-07)
(7.30928e-06 0 5.34934e-07)
(7.08635e-06 0 4.98101e-07)
(6.85783e-06 0 4.76164e-07)
(6.62833e-06 0 4.78526e-07)
(6.40391e-06 0 4.96155e-07)
(6.18777e-06 0 5.08823e-07)
(5.98264e-06 0 4.95311e-07)
(5.79181e-06 0 4.59187e-07)
(5.61152e-06 0 4.27389e-07)
(5.43192e-06 0 4.07918e-07)
(5.24948e-06 0 3.92375e-07)
(5.0666e-06 0 3.90941e-07)
(4.88598e-06 0 3.93532e-07)
(4.70503e-06 0 3.85028e-07)
(4.53262e-06 0 3.62787e-07)
(4.36788e-06 0 3.8893e-07)
(4.20439e-06 0 4.28269e-07)
(4.04472e-06 0 4.53134e-07)
(3.86632e-06 0 4.55155e-07)
(3.70867e-06 0 3.9026e-07)
(3.54917e-06 0 3.25791e-07)
(3.49623e-06 0 2.99468e-07)
(3.37129e-06 0 2.8282e-07)
(3.25919e-06 0 2.77666e-07)
(3.13289e-06 0 2.27915e-07)
(3.02551e-06 0 1.74717e-07)
(2.95329e-06 0 7.70168e-08)
(2.88454e-06 0 5.88303e-08)
(2.8253e-06 0 5.98894e-08)
(2.76948e-06 0 1.24954e-07)
(2.70232e-06 0 1.51753e-07)
(2.64756e-06 0 1.13709e-07)
(2.58292e-06 0 1.17776e-07)
(2.53691e-06 0 1.09065e-08)
(2.50776e-06 0 8.52032e-08)
(2.4243e-06 0 2.42373e-07)
(2.34801e-06 0 2.16122e-07)
(2.28628e-06 0 1.95077e-07)
(2.23997e-06 0 7.53701e-08)
(2.25098e-06 0 1.20151e-07)
(2.2102e-06 0 1.08487e-07)
(2.20272e-06 0 -1.78165e-08)
(2.20801e-06 0 -7.28361e-08)
(2.21964e-06 0 -1.74443e-07)
(2.16122e-06 0 -2.25424e-09)
(2.14325e-06 0 -1.63919e-07)
(2.22631e-06 0 -1.18684e-09)
(2.20361e-06 0 4.00091e-08)
(2.18782e-06 0 9.73464e-08)
(2.26968e-06 0 1.77291e-08)
(2.27546e-06 0 -1.67242e-07)
(2.3137e-06 0 4.94126e-08)
(2.37137e-06 0 -1.30301e-07)
(2.2445e-06 0 -2.06329e-07)
(2.22913e-06 0 -4.18912e-08)
(2.32569e-06 0 9.58266e-08)
(2.09299e-06 0 4.04085e-07)
(2.09585e-06 0 -4.08138e-08)
(2.51395e-06 0 2.31146e-07)
(2.2272e-06 0 -1.72283e-07)
(3.91035e-06 0 -7.10103e-07)
(3.72907e-06 0 -1.68487e-07)
(3.88592e-06 0 -1.24546e-06)
(3.64729e-06 0 -1.8367e-07)
(3.39856e-06 0 1.70697e-07)
(3.3593e-06 0 3.39766e-08)
(3.23692e-06 0 3.71753e-07)
(3.04452e-06 0 4.61363e-07)
(2.80024e-06 0 5.12698e-07)
(2.48082e-06 0 6.65931e-07)
(2.12971e-06 0 7.7969e-07)
(1.82695e-06 0 8.11957e-07)
(1.56475e-06 0 8.5155e-07)
(1.28924e-06 0 9.03818e-07)
(9.96382e-07 0 8.77756e-07)
(7.10044e-07 0 7.57558e-07)
(4.25027e-07 0 6.384e-07)
(1.21363e-07 0 6.01853e-07)
(-1.91652e-07 0 6.199e-07)
(-4.80279e-07 0 6.092e-07)
(-7.17969e-07 0 5.31432e-07)