/*--------------------------------*- C++ -*----------------------------------*\
| =========                 |                                                 |
| \\      /  F ield         | OpenFOAM: The Open Source CFD Toolbox           |
|  \\    /   O peration     | Version:  v2006                                 |
|   \\  /    A nd           | Website:  www.openfoam.com                      |
|    \\/     M anipulation  |                                                 |
\*---------------------------------------------------------------------------*/
FoamFile
{
    version     2.0;
    format      ascii;
    class       surfaceScalarField;
    location    "7.6";
    object      alphaPhi0.water;
}
// * * * * * * * * * * * * * * * * * * * * * * * * * * * * * * * * * * * * * //

dimensions      [0 3 -1 0 0 0 0];
oriented        oriented;


internalField   nonuniform List<scalar> 
65390
(
-1.1104e-05
-7.84573e-07
-1.03781e-05
-7.23624e-07
-9.76718e-06
-6.0888e-07
-9.33695e-06
-4.28554e-07
-9.38049e-06
4.48254e-08
-9.73946e-06
3.5999e-07
-1.02145e-05
4.75852e-07
-1.02916e-05
7.76851e-08
-8.32242e-06
-1.96866e-06
-1.73227e-06
-6.58976e-06
8.31283e-06
-1.00448e-05
1.98841e-05
-1.1571e-05
3.22857e-05
-1.24014e-05
4.48749e-05
-1.25889e-05
5.49432e-05
-1.0068e-05
6.01315e-05
-5.18804e-06
6.08082e-05
-6.76561e-07
5.88507e-05
1.95768e-06
5.58511e-05
2.99975e-06
5.34274e-05
2.42383e-06
5.25147e-05
9.12879e-07
5.31675e-05
-6.52785e-07
5.50402e-05
-1.87258e-06
5.80632e-05
-3.02291e-06
6.20305e-05
-3.96721e-06
6.64629e-05
-4.43236e-06
7.07306e-05
-4.26756e-06
7.40655e-05
-3.33483e-06
7.60707e-05
-2.00514e-06
7.68772e-05
-8.06487e-07
7.63461e-05
5.31034e-07
7.41285e-05
2.21746e-06
7.0261e-05
3.86718e-06
6.553e-05
4.7277e-06
6.12433e-05
4.28791e-06
5.82089e-05
3.03555e-06
5.64139e-05
1.79501e-06
5.50415e-05
1.37023e-06
5.34154e-05
1.6035e-06
5.1798e-05
1.61754e-06
5.07822e-05
1.02816e-06
5.06729e-05
1.19307e-07
5.1207e-05
-5.33365e-07
5.19905e-05
-7.84361e-07
5.2552e-05
-5.69613e-07
5.24982e-05
2.05039e-08
5.229e-05
2.31181e-07
5.22158e-05
9.10758e-08
5.26454e-05
-4.2804e-07
5.34853e-05
-8.39489e-07
5.42577e-05
-7.74169e-07
5.46176e-05
-3.78437e-07
5.46591e-05
-4.15772e-08
5.46939e-05
-2.03746e-08
5.48807e-05
-1.80415e-07
5.53852e-05
-5.04046e-07
5.61776e-05
-7.9257e-07
5.71474e-05
-9.69889e-07
5.82855e-05
-1.13813e-06
5.95321e-05
-1.24639e-06
6.05718e-05
-1.03967e-06
6.09493e-05
-3.7825e-07
6.06637e-05
2.71245e-07
6.0095e-05
5.58598e-07
5.95874e-05
5.18775e-07
5.90723e-05
5.25128e-07
5.84891e-05
5.85734e-07
5.77287e-05
7.60671e-07
5.69812e-05
7.47697e-07
5.65496e-05
4.32067e-07
5.65315e-05
1.82995e-08
5.65793e-05
-4.78641e-08
5.64845e-05
9.48605e-08
5.60232e-05
4.61218e-07
5.45629e-05
1.45999e-06
5.19809e-05
2.57674e-06
4.76365e-05
4.32619e-06
4.04564e-05
7.18019e-06
3.47944e-05
5.66201e-06
3.29051e-05
1.88926e-06
3.19192e-05
9.85942e-07
3.21658e-05
-2.46633e-07
3.16867e-05
4.79149e-07
3.14807e-05
2.11997e-07
3.12439e-05
2.44175e-07
3.00506e-05
1.19487e-06
2.86879e-05
1.36272e-06
2.75569e-05
1.13099e-06
2.68798e-05
6.77101e-07
2.63988e-05
4.81004e-07
2.612e-05
2.78863e-07
2.59016e-05
2.18337e-07
2.54597e-05
4.41752e-07
2.49741e-05
4.83708e-07
2.4209e-05
7.59422e-07
2.33665e-05
8.42603e-07
2.19956e-05
1.37087e-06
2.04056e-05
1.59361e-06
1.75751e-05
2.83304e-06
1.38416e-05
3.7335e-06
1.0521e-05
3.32061e-06
8.47089e-06
2.05013e-06
8.00641e-06
4.64479e-07
7.60953e-06
3.96718e-07
7.89197e-06
-2.84612e-07
8.38774e-06
-4.95746e-07
8.41176e-06
-2.35377e-08
8.06469e-06
3.47107e-07
7.64222e-06
4.22508e-07
7.54602e-06
9.62271e-08
7.46165e-06
8.60509e-08
7.49725e-06
-3.52978e-08
7.57806e-06
-8.07889e-08
7.57703e-06
-4.59853e-10
7.36957e-06
2.06599e-07
7.07481e-06
2.9479e-07
6.32867e-06
7.48075e-07
5.38632e-06
9.42461e-07
4.7571e-06
6.29229e-07
4.56373e-06
1.92774e-07
4.67882e-06
-1.1518e-07
4.66922e-06
9.6014e-09
4.8553e-06
-1.85637e-07
5.10839e-06
-2.5283e-07
5.20582e-06
-9.73505e-08
5.28556e-06
-8.04823e-08
5.36344e-06
-7.80212e-08
5.41926e-06
-5.52895e-08
5.52432e-06
-1.04546e-07
5.66584e-06
-1.41414e-07
5.78933e-06
-1.2347e-07
5.92488e-06
-1.35562e-07
6.04588e-06
-1.21249e-07
6.15853e-06
-1.152e-07
6.28092e-06
-1.2041e-07
6.42888e-06
-1.46945e-07
6.60303e-06
-1.74121e-07
6.77922e-06
-1.76203e-07
6.95928e-06
-1.80075e-07
7.13791e-06
-1.78654e-07
7.32032e-06
-1.82446e-07
7.50807e-06
-1.87785e-07
7.69898e-06
-1.90951e-07
7.88204e-06
-1.84062e-07
8.05794e-06
-1.76763e-07
8.23323e-06
-1.75269e-07
8.41095e-06
-1.76723e-07
8.59423e-06
-1.82664e-07
8.77923e-06
-1.85001e-07
8.95723e-06
-1.78004e-07
9.12026e-06
-1.64121e-07
9.28274e-06
-1.61657e-07
9.45239e-06
-1.68732e-07
9.62308e-06
-1.70685e-07
9.78822e-06
-1.65151e-07
9.94578e-06
-1.58242e-07
1.00968e-05
-1.51582e-07
1.02445e-05
-1.47718e-07
1.03899e-05
-1.44225e-07
1.05311e-05
-1.40558e-07
1.06675e-05
-1.36356e-07
1.07992e-05
-1.31719e-07
1.09218e-05
-1.22656e-07
1.10337e-05
-1.12465e-07
1.11426e-05
-1.08581e-07
1.12456e-05
-1.02977e-07
1.13357e-05
-9.02074e-08
1.14123e-05
-7.6548e-08
1.14823e-05
-6.97317e-08
1.15464e-05
-6.4042e-08
1.15983e-05
-5.18843e-08
1.1631e-05
-3.31951e-08
1.16481e-05
-1.73182e-08
1.16577e-05
-9.20521e-09
1.16583e-05
-5.47916e-10
1.16465e-05
1.17127e-08
1.16142e-05
3.05231e-08
1.15579e-05
5.60705e-08
1.1482e-05
7.59111e-08
1.1391e-05
9.27009e-08
1.12837e-05
1.07352e-07
1.11643e-05
1.19369e-07
1.10263e-05
1.37036e-07
1.08681e-05
1.57953e-07
1.06844e-05
1.83596e-07
1.04741e-05
2.1099e-07
1.02458e-05
2.28579e-07
1.00036e-05
2.42109e-07
9.74523e-06
2.58396e-07
9.4605e-06
2.83645e-07
9.15117e-06
3.092e-07
8.82071e-06
3.30897e-07
8.47513e-06
3.46185e-07
8.11937e-06
3.55752e-07
7.75338e-06
3.65967e-07
7.37477e-06
3.78498e-07
6.97612e-06
3.98187e-07
6.55765e-06
4.18031e-07
6.1279e-06
4.29722e-07
5.69798e-06
4.30238e-07
5.2746e-06
4.2369e-07
4.85037e-06
4.24191e-07
4.42046e-06
4.29873e-07
3.98691e-06
4.33321e-07
3.55452e-06
4.32448e-07
3.13076e-06
4.2371e-07
2.71912e-06
4.11636e-07
2.31414e-06
4.04969e-07
1.90915e-06
4.04855e-07
1.50928e-06
3.99892e-07
1.13274e-06
3.76639e-07
7.75109e-07
3.57651e-07
4.29343e-07
3.45772e-07
9.26122e-08
3.36721e-07
-2.40101e-07
3.32698e-07
-5.63723e-07
3.23672e-07
-8.71245e-07
3.07422e-07
-1.15698e-06
2.85727e-07
-1.42618e-06
2.6922e-07
-1.68405e-06
2.57904e-07
-1.9334e-06
2.49452e-07
-2.17764e-06
2.44349e-07
-2.41279e-06
2.35175e-07
-2.63471e-06
2.21787e-07
-2.84045e-06
2.05744e-07
-3.03179e-06
1.91348e-07
-3.21219e-06
1.8041e-07
-3.38394e-06
1.71917e-07
-3.55089e-06
1.67141e-07
-3.71007e-06
1.59198e-07
-3.8577e-06
1.47575e-07
-3.99179e-06
1.34057e-07
-4.11332e-06
1.21579e-07
-4.22604e-06
1.12741e-07
-4.33164e-06
1.05579e-07
-4.43017e-06
9.83279e-08
-4.52087e-06
9.06378e-08
-4.60531e-06
8.43886e-08
-4.6826e-06
7.73137e-08
-4.75226e-06
6.97647e-08
-4.81461e-06
6.20868e-08
-4.86648e-06
5.18344e-08
-4.91126e-06
4.4792e-08
-4.95092e-06
3.96877e-08
-4.9865e-06
3.57406e-08
-5.02056e-06
3.42719e-08
-5.05087e-06
3.02923e-08
-5.0712e-06
2.0272e-08
-5.08462e-06
1.342e-08
-5.09509e-06
1.04389e-08
-5.10333e-06
8.31426e-09
-5.11082e-06
7.54664e-09
-5.11555e-06
4.74404e-09
-5.11604e-06
2.47004e-10
-5.1123e-06
-3.81403e-09
-5.10534e-06
-6.97538e-09
-5.09703e-06
-8.3183e-09
-5.08791e-06
-8.97617e-09
-5.07756e-06
-1.03455e-08
-5.06509e-06
-1.24763e-08
-5.05006e-06
-1.51133e-08
-5.03212e-06
-1.79317e-08
-5.01345e-06
-1.86546e-08
-4.99613e-06
-1.72664e-08
-4.98016e-06
-1.58443e-08
-4.96431e-06
-1.58359e-08
-4.94475e-06
-1.96975e-08
-4.92163e-06
-2.31236e-08
-4.89809e-06
-2.35287e-08
-4.87467e-06
-2.34218e-08
-4.85147e-06
-2.31721e-08
-4.82962e-06
-2.17612e-08
-4.80847e-06
-2.08892e-08
-4.78748e-06
-2.12842e-08
-4.76452e-06
-2.30663e-08
-4.73972e-06
-2.48183e-08
-4.71432e-06
-2.54052e-08
-4.68878e-06
-2.55568e-08
-4.6627e-06
-2.6091e-08
-4.6367e-06
-2.59865e-08
-4.61252e-06
-2.4136e-08
-4.58977e-06
-2.2753e-08
-4.56593e-06
-2.39325e-08
-4.53938e-06
-2.65695e-08
-4.5123e-06
-2.70973e-08
-4.4858e-06
-2.65219e-08
-4.45939e-06
-2.64096e-08
-4.43318e-06
-2.61865e-08
-4.40792e-06
-2.52532e-08
-4.38286e-06
-2.50608e-08
-4.35726e-06
-2.56667e-08
-4.33064e-06
-2.66402e-08
-4.30351e-06
-2.71407e-08
-4.27628e-06
-2.72309e-08
-4.24894e-06
-2.73192e-08
-4.22215e-06
-2.67711e-08
-4.19563e-06
-2.65284e-08
-4.16874e-06
-2.69211e-08
-4.14103e-06
-2.77161e-08
-4.11248e-06
-2.85519e-08
-4.08298e-06
-2.94727e-08
-4.05342e-06
-2.95413e-08
-4.02421e-06
-2.9201e-08
-3.99426e-06
-2.99774e-08
-3.9629e-06
-3.13577e-08
-3.93023e-06
-3.26655e-08
-3.89674e-06
-3.34997e-08
-3.86258e-06
-3.41881e-08
-3.82745e-06
-3.51539e-08
-3.79085e-06
-3.66067e-08
-3.75259e-06
-3.82772e-08
-3.71339e-06
-3.91956e-08
-3.67429e-06
-3.91109e-08
-3.63521e-06
-3.90762e-08
-3.59509e-06
-4.01235e-08
-3.55393e-06
-4.11609e-08
-3.51261e-06
-4.12975e-08
-3.4718e-06
-4.08006e-08
-3.43193e-06
-3.98591e-08
-3.39335e-06
-3.85761e-08
-3.35642e-06
-3.69273e-08
-3.32158e-06
-3.48311e-08
-3.2894e-06
-3.21697e-08
-3.26066e-06
-2.87494e-08
-3.23534e-06
-2.5323e-08
-3.21329e-06
-2.20588e-08
-3.19502e-06
-1.82706e-08
-3.18125e-06
-1.37462e-08
-3.17214e-06
-9.10868e-09
-3.16719e-06
-4.94977e-09
-3.16606e-06
-1.13327e-09
-3.16879e-06
2.73102e-09
-3.17581e-06
7.0279e-09
-3.18774e-06
1.1939e-08
-3.20427e-06
1.65213e-08
-3.22419e-06
1.99104e-08
-3.24679e-06
2.25981e-08
-3.27216e-06
2.53691e-08
-3.30038e-06
2.82214e-08
-3.33129e-06
3.09069e-08
-3.36462e-06
3.3327e-08
-3.39997e-06
3.53535e-08
-3.43695e-06
3.69753e-08
-3.47515e-06
3.82128e-08
-3.51456e-06
3.94113e-08
-3.55486e-06
4.03159e-08
-3.59569e-06
4.08298e-08
-3.63667e-06
4.09849e-08
-3.67751e-06
4.08466e-08
-3.71803e-06
4.05299e-08
-3.75818e-06
4.01512e-08
-3.79785e-06
3.96736e-08
-3.83663e-06
3.87917e-08
-3.87414e-06
3.75064e-08
-3.9102e-06
3.60651e-08
-3.94478e-06
3.45868e-08
-3.97774e-06
3.29611e-08
-4.00895e-06
3.12146e-08
-4.03826e-06
2.93204e-08
-4.06536e-06
2.71047e-08
-4.0901e-06
2.47453e-08
-4.11243e-06
2.23294e-08
-4.13226e-06
1.98364e-08
-4.14939e-06
1.71299e-08
-4.16383e-06
1.44352e-08
-4.17575e-06
1.19207e-08
-4.18497e-06
9.23395e-09
-4.19124e-06
6.26229e-09
-4.19405e-06
2.79363e-09
-4.19341e-06
-6.57258e-10
-4.18967e-06
-3.7452e-09
-4.18296e-06
-6.72429e-09
-4.17294e-06
-1.00253e-08
-4.15914e-06
-1.38101e-08
-4.14145e-06
-1.76944e-08
-4.12011e-06
-2.13432e-08
-4.09523e-06
-2.48748e-08
-4.06678e-06
-2.84517e-08
-4.03461e-06
-3.21595e-08
-3.99912e-06
-3.54743e-08
-3.96025e-06
-3.8874e-08
-3.91733e-06
-4.29294e-08
-3.87003e-06
-4.73085e-08
-3.81877e-06
-5.12702e-08
-3.76378e-06
-5.49909e-08
-3.70508e-06
-5.87115e-08
-3.64274e-06
-6.23344e-08
-3.57679e-06
-6.59501e-08
-3.50697e-06
-6.98243e-08
-3.43315e-06
-7.38173e-08
-3.35585e-06
-7.73027e-08
-3.27534e-06
-8.05022e-08
-3.19153e-06
-8.38068e-08
-3.10397e-06
-8.75698e-08
-3.01286e-06
-9.11123e-08
-2.91847e-06
-9.4383e-08
-2.82087e-06
-9.75965e-08
-2.72041e-06
-1.00451e-07
-2.61764e-06
-1.02775e-07
-2.51241e-06
-1.05238e-07
-2.40421e-06
-1.08198e-07
-2.29324e-06
-1.10976e-07
-2.17938e-06
-1.13854e-07
-2.06343e-06
-1.15953e-07
-1.94495e-06
-1.18464e-07
-1.82592e-06
-1.19038e-07
-1.7042e-06
-1.21707e-07
-1.58097e-06
-1.23234e-07
-1.45455e-06
-1.26422e-07
-1.32725e-06
-1.27305e-07
-1.19934e-06
-1.2791e-07
-1.0712e-06
-1.28141e-07
-9.43892e-07
-1.27312e-07
-8.13906e-07
-1.29989e-07
-6.84548e-07
-1.29356e-07
-5.56123e-07
-1.2842e-07
-4.27297e-07
-1.28819e-07
-3.0441e-07
-1.2288e-07
-1.8576e-07
-1.18644e-07
-5.76564e-08
-1.28101e-07
6.57645e-08
-1.2342e-07
1.88474e-07
-1.22709e-07
3.19706e-07
-1.31231e-07
4.06878e-07
-8.71684e-08
4.81553e-07
-7.46679e-08
6.10167e-07
-1.28602e-07
7.0554e-07
-9.53592e-08
8.5675e-07
-1.51196e-07
1.04637e-06
-1.89609e-07
1.39157e-06
-3.45188e-07
1.81153e-06
-4.19942e-07
2.11253e-06
-3.00998e-07
2.36421e-06
-2.51671e-07
2.55574e-06
-1.9152e-07
2.71362e-06
-1.57878e-07
2.84904e-06
-1.3542e-07
2.98345e-06
-1.34413e-07
3.11139e-06
-1.27934e-07
3.23258e-06
-1.21185e-07
3.34133e-06
-1.08735e-07
3.45859e-06
-1.17246e-07
3.50134e-06
-4.27201e-08
3.51328e-06
-1.19219e-08
3.59053e-06
-7.72248e-08
3.62712e-06
-3.65705e-08
3.76043e-06
-1.33273e-07
3.96507e-06
-2.04623e-07
4.44832e-06
-4.83238e-07
5.10819e-06
-6.59845e-07
5.62816e-06
-5.19954e-07
6.07545e-06
-4.47268e-07
6.37871e-06
-3.03247e-07
6.62522e-06
-2.46494e-07
6.81573e-06
-1.90487e-07
6.96965e-06
-1.5391e-07
7.08913e-06
-1.19469e-07
7.14999e-06
-6.08417e-08
7.21128e-06
-6.12762e-08
7.26724e-06
-5.59493e-08
7.29915e-06
-3.19015e-08
7.37717e-06
-7.80201e-08
7.38607e-06
-8.89856e-09
7.18724e-06
1.98834e-07
7.06264e-06
1.246e-07
6.95868e-06
1.03956e-07
6.86376e-06
9.49209e-08
7.24426e-06
-3.80502e-07
7.97959e-06
-7.35347e-07
9.76636e-06
-1.78679e-06
1.18357e-05
-2.06944e-06
1.34531e-05
-1.61736e-06
1.47691e-05
-1.31614e-06
1.5832e-05
-1.06317e-06
1.66225e-05
-7.90993e-07
1.72075e-05
-5.84911e-07
1.76521e-05
-4.44601e-07
1.80035e-05
-3.51258e-07
1.8285e-05
-2.81615e-07
1.85069e-05
-2.21965e-07
1.86824e-05
-1.75428e-07
1.88264e-05
-1.43996e-07
1.89436e-05
-1.17089e-07
1.9036e-05
-9.22733e-08
1.91068e-05
-7.08337e-08
1.91545e-05
-4.76562e-08
1.91851e-05
-3.06606e-08
1.92041e-05
-1.8735e-08
1.92097e-05
-5.56059e-09
1.91974e-05
1.23001e-08
1.91724e-05
2.50245e-08
1.91415e-05
3.09501e-08
1.9101e-05
4.05023e-08
1.90469e-05
5.40908e-08
1.89785e-05
6.83615e-08
1.89003e-05
7.82293e-08
1.88163e-05
8.40882e-08
1.87245e-05
9.18452e-08
1.86253e-05
9.91905e-08
1.85177e-05
1.07565e-07
1.84037e-05
1.14023e-07
1.82811e-05
1.22656e-07
1.81467e-05
1.34305e-07
1.80058e-05
1.40862e-07
1.78625e-05
1.43373e-07
1.77177e-05
1.44771e-07
1.75702e-05
1.47525e-07
1.74174e-05
1.52694e-07
1.72581e-05
1.59292e-07
1.70927e-05
1.6542e-07
1.69214e-05
1.71247e-07
1.67448e-05
1.76675e-07
1.65652e-05
1.79569e-07
1.63798e-05
1.85439e-07
1.61901e-05
1.89717e-07
1.5999e-05
1.91086e-07
1.58037e-05
1.95307e-07
1.56012e-05
2.02454e-07
1.53918e-05
2.09438e-07
1.51771e-05
2.14684e-07
1.49586e-05
2.18444e-07
1.47378e-05
2.20862e-07
1.45153e-05
2.22445e-07
1.42909e-05
2.24386e-07
1.40642e-05
2.26704e-07
1.3835e-05
2.29256e-07
1.36031e-05
2.31897e-07
1.33682e-05
2.34833e-07
1.3131e-05
2.37218e-07
1.28919e-05
2.39103e-07
1.26512e-05
2.40688e-07
1.2409e-05
2.42223e-07
1.21645e-05
2.44418e-07
1.19177e-05
2.46886e-07
1.16687e-05
2.49009e-07
1.14184e-05
2.50222e-07
1.11678e-05
2.50622e-07
1.09158e-05
2.51996e-07
1.06623e-05
2.53523e-07
1.0406e-05
2.56291e-07
1.01501e-05
2.55863e-07
9.89211e-06
2.57988e-07
9.63277e-06
2.59327e-07
9.37324e-06
2.59522e-07
9.11821e-06
2.55019e-07
8.86822e-06
2.4998e-07
8.61837e-06
2.49825e-07
8.36775e-06
2.50596e-07
8.11625e-06
2.51481e-07
7.86294e-06
2.53289e-07
2.42236e-07
-1.0998e-05
-1.66511e-06
-1.01864e-05
-1.53851e-06
-9.44477e-06
-1.35312e-06
-8.83071e-06
-1.04481e-06
-8.40001e-06
-3.8766e-07
-7.92747e-06
-1.1398e-07
-7.12381e-06
-3.28913e-07
-4.77761e-06
-2.26937e-06
2.15839e-06
-8.90528e-06
1.161e-05
-1.60418e-05
2.08628e-05
-1.92979e-05
2.96456e-05
-2.03532e-05
3.78816e-05
-2.0636e-05
4.55312e-05
-2.02371e-05
5.27399e-05
-1.7276e-05
5.85216e-05
-1.09696e-05
6.14818e-05
-3.63673e-06
6.1477e-05
1.96262e-06
6.00517e-05
4.42515e-06
5.80661e-05
4.40956e-06
5.57137e-05
3.26541e-06
5.39847e-05
1.07632e-06
5.4293e-05
-2.1808e-06
5.61531e-05
-4.88287e-06
5.88111e-05
-6.62521e-06
6.15421e-05
-7.16325e-06
6.41798e-05
-6.90521e-06
6.66599e-05
-5.81477e-06
6.8205e-05
-3.55021e-06
6.84587e-05
-1.06016e-06
6.71452e-05
1.84457e-06
6.45612e-05
4.80127e-06
6.18077e-05
6.61917e-06
5.95708e-05
6.96238e-06
5.78715e-05
5.98888e-06
5.6576e-05
4.33186e-06
5.53493e-05
3.02164e-06
5.4105e-05
2.61269e-06
5.2931e-05
2.74179e-06
5.19015e-05
2.64389e-06
5.11505e-05
1.79777e-06
5.10979e-05
1.8698e-07
5.1385e-05
-8.1548e-07
5.17777e-05
-1.17709e-06
5.22839e-05
-1.08215e-06
5.2717e-05
-4.40141e-07
5.30134e-05
-6.458e-08
5.32603e-05
-1.40121e-07
5.3586e-05
-7.37561e-07
5.39876e-05
-1.23969e-06
5.45156e-05
-1.30397e-06
5.50666e-05
-9.49651e-07
5.53899e-05
-3.64886e-07
5.55927e-05
-2.14668e-07
5.57273e-05
-3.02832e-07
5.60127e-05
-7.85919e-07
5.66572e-05
-1.43684e-06
5.74899e-05
-1.8026e-06
5.8306e-05
-1.95417e-06
5.89572e-05
-1.89761e-06
5.93322e-05
-1.41524e-06
5.94529e-05
-5.03589e-07
5.95678e-05
1.11478e-07
5.98195e-05
3.06795e-07
6.00171e-05
3.31614e-07
6.00295e-05
5.16236e-07
5.9713e-05
9.12482e-07
5.91193e-05
1.37228e-06
5.83938e-05
1.47933e-06
5.77572e-05
1.06962e-06
5.73706e-05
4.05158e-07
5.7113e-05
2.09831e-07
5.69003e-05
3.0688e-07
5.65926e-05
7.60796e-07
5.60292e-05
2.00261e-06
5.51178e-05
3.48812e-06
5.48034e-05
4.64053e-06
5.54997e-05
6.49798e-06
5.33206e-05
7.85275e-06
4.89392e-05
6.26932e-06
4.28177e-05
7.10516e-06
3.73468e-05
5.22593e-06
3.55995e-05
2.22891e-06
3.4145e-05
1.66896e-06
3.35229e-05
8.67499e-07
3.26782e-05
2.03986e-06
3.15814e-05
2.45951e-06
3.06762e-05
2.03615e-06
3.00794e-05
1.27387e-06
2.86581e-05
1.90236e-06
2.7287e-05
1.64988e-06
2.64434e-05
1.06197e-06
2.58651e-05
1.01965e-06
2.55051e-05
8.40143e-07
2.52991e-05
9.61405e-07
2.48877e-05
1.25398e-06
2.4577e-05
1.68161e-06
2.40273e-05
2.14865e-06
2.3991e-05
2.87167e-06
2.34008e-05
4.32271e-06
2.20431e-05
4.67733e-06
1.90804e-05
5.01307e-06
1.4924e-05
4.62148e-06
1.14118e-05
3.90892e-06
8.77279e-06
2.35403e-06
7.50008e-06
7.75175e-07
7.07422e-06
4.02323e-07
6.73271e-06
6.89111e-07
7.04956e-06
1.05704e-07
7.87157e-06
-7.24695e-07
8.09953e-06
-1.41152e-07
7.96185e-06
1.02394e-07
7.84204e-06
3.90081e-08
7.65928e-06
1.8165e-07
7.63758e-06
2.26348e-07
7.68964e-06
2.42761e-07
7.87898e-06
5.58745e-07
7.8967e-06
9.25829e-07
7.68996e-06
8.37076e-07
6.97475e-06
9.07941e-07
5.98023e-06
8.78688e-07
5.31499e-06
6.74848e-07
4.97454e-06
1.55032e-07
4.92518e-06
-2.0301e-07
4.89963e-06
-7.18929e-08
5.11139e-06
-2.93398e-07
5.39533e-06
-3.61892e-07
5.51403e-06
-1.73926e-07
5.59536e-06
-1.8581e-07
5.67393e-06
-2.18812e-07
5.74026e-06
-1.89333e-07
5.86384e-06
-2.59122e-07
6.00786e-06
-2.65647e-07
6.14428e-06
-2.52688e-07
6.28159e-06
-2.57741e-07
6.42742e-06
-2.919e-07
6.59117e-06
-3.37001e-07
6.75481e-06
-3.39802e-07
6.92873e-06
-3.54158e-07
7.10857e-06
-3.5849e-07
7.29365e-06
-3.67526e-07
7.48421e-06
-3.78375e-07
7.6742e-06
-3.80985e-07
7.85761e-06
-3.69389e-07
8.04014e-06
-3.59272e-07
8.22204e-06
-3.57187e-07
8.40467e-06
-3.59335e-07
8.59043e-06
-3.67261e-07
8.77122e-06
-3.65423e-07
8.94306e-06
-3.50277e-07
9.11128e-06
-3.33485e-07
9.28025e-06
-3.30643e-07
9.45311e-06
-3.3996e-07
9.62305e-06
-3.39635e-07
9.78345e-06
-3.2555e-07
9.9377e-06
-3.12491e-07
1.00917e-05
-3.06653e-07
1.02468e-05
-3.02808e-07
1.0396e-05
-2.93373e-07
1.05371e-05
-2.803e-07
1.06711e-05
-2.70024e-07
1.08008e-05
-2.61427e-07
1.09223e-05
-2.44431e-07
1.10374e-05
-2.27875e-07
1.11488e-05
-2.19564e-07
1.12518e-05
-2.06058e-07
1.13416e-05
-1.80358e-07
1.1419e-05
-1.54143e-07
1.14894e-05
-1.39563e-07
1.15525e-05
-1.26935e-07
1.1602e-05
-1.01532e-07
1.16343e-05
-6.69593e-08
1.16548e-05
-3.77443e-08
1.16641e-05
-1.72508e-08
1.16609e-05
2.81285e-09
1.16445e-05
2.79945e-08
1.16121e-05
6.23517e-08
1.15582e-05
1.08068e-07
1.14858e-05
1.4833e-07
1.13935e-05
1.85037e-07
1.12842e-05
2.17624e-07
1.11611e-05
2.43356e-07
1.10212e-05
2.76713e-07
1.08632e-05
3.15868e-07
1.06821e-05
3.64163e-07
1.04729e-05
4.19245e-07
1.02424e-05
4.59598e-07
9.99407e-06
4.90957e-07
9.73029e-06
5.22132e-07
9.44906e-06
5.63668e-07
9.14929e-06
6.08838e-07
8.82679e-06
6.53338e-07
8.48272e-06
6.90716e-07
8.12294e-06
7.16045e-07
7.75286e-06
7.36015e-07
7.37121e-06
7.59932e-07
6.97425e-06
7.94293e-07
6.56495e-06
8.27301e-07
6.14547e-06
8.49234e-07
5.72263e-06
8.53443e-07
5.29761e-06
8.48924e-07
4.86957e-06
8.52209e-07
4.43696e-06
8.62139e-07
4.0047e-06
8.65458e-07
3.57846e-06
8.58656e-07
3.15935e-06
8.42986e-07
2.74504e-06
8.25957e-07
2.33466e-06
8.15295e-07
1.92947e-06
8.09871e-07
1.53578e-06
7.93538e-07
1.15928e-06
7.53308e-07
7.9581e-07
7.2113e-07
4.43603e-07
6.97977e-07
1.02575e-07
6.77736e-07
-2.28705e-07
6.63976e-07
-5.48972e-07
6.4399e-07
-8.56405e-07
6.14793e-07
-1.14772e-06
5.76988e-07
-1.4234e-06
5.4492e-07
-1.68693e-06
5.21495e-07
-1.9391e-06
5.01822e-07
-2.18133e-06
4.86605e-07
-2.41351e-06
4.67386e-07
-2.63484e-06
4.43142e-07
-2.84413e-06
4.14786e-07
-3.03991e-06
3.87143e-07
-3.2241e-06
3.64597e-07
-3.39792e-06
3.45938e-07
-3.56337e-06
3.32748e-07
-3.72026e-06
3.16105e-07
-3.86607e-06
2.93404e-07
-3.99966e-06
2.67383e-07
-4.12238e-06
2.44141e-07
-4.23591e-06
2.26232e-07
-4.34194e-06
2.11571e-07
-4.44182e-06
1.98177e-07
-4.535e-06
1.83972e-07
-4.61985e-06
1.69404e-07
-4.69564e-06
1.53121e-07
-4.76169e-06
1.358e-07
-4.82016e-06
1.20327e-07
-4.87296e-06
1.0456e-07
-4.9203e-06
9.21263e-08
-4.9619e-06
8.14047e-08
-4.99877e-06
7.28552e-08
-5.03049e-06
6.6222e-08
-5.05595e-06
5.57199e-08
-5.07567e-06
3.9705e-08
-5.0907e-06
2.84321e-08
-5.10294e-06
2.26288e-08
-5.11223e-06
1.77455e-08
-5.1182e-06
1.35301e-08
-5.11997e-06
6.5001e-09
-5.1176e-06
-2.11507e-09
-5.11317e-06
-8.53228e-09
-5.10733e-06
-1.28931e-08
-5.10095e-06
-1.47084e-08
-5.09331e-06
-1.65465e-08
-5.08176e-06
-2.17939e-08
-5.06679e-06
-2.74422e-08
-5.0506e-06
-3.13751e-08
-5.03362e-06
-3.49094e-08
-5.0161e-06
-3.60413e-08
-4.99898e-06
-3.41855e-08
-4.98189e-06
-3.29142e-08
-4.96355e-06
-3.41866e-08
-4.94323e-06
-4.02352e-08
-4.92109e-06
-4.52754e-08
-4.89855e-06
-4.6064e-08
-4.87622e-06
-4.57441e-08
-4.85404e-06
-4.52646e-08
-4.83165e-06
-4.4063e-08
-4.80845e-06
-4.40971e-08
-4.78457e-06
-4.51549e-08
-4.76133e-06
-4.65378e-08
-4.73798e-06
-4.82099e-08
-4.71371e-06
-4.96981e-08
-4.68865e-06
-5.063e-08
-4.66289e-06
-5.18693e-08
-4.63716e-06
-5.16661e-08
-4.61238e-06
-4.88535e-08
-4.58775e-06
-4.73872e-08
-4.56278e-06
-4.90551e-08
-4.53652e-06
-5.29127e-08
-4.51007e-06
-5.35725e-08
-4.48439e-06
-5.22265e-08
-4.45891e-06
-5.1895e-08
-4.43277e-06
-5.23131e-08
-4.40628e-06
-5.17269e-08
-4.37973e-06
-5.16091e-08
-4.35302e-06
-5.24134e-08
-4.32661e-06
-5.31323e-08
-4.30047e-06
-5.32914e-08
-4.2742e-06
-5.35046e-08
-4.24694e-06
-5.45517e-08
-4.21879e-06
-5.4898e-08
-4.19044e-06
-5.48688e-08
-4.16284e-06
-5.4561e-08
-4.13586e-06
-5.473e-08
-4.10825e-06
-5.61646e-08
-4.07897e-06
-5.87482e-08
-4.04841e-06
-6.00787e-08
-4.01773e-06
-5.98775e-08
-3.98747e-06
-6.0282e-08
-3.95693e-06
-6.19003e-08
-3.92435e-06
-6.52563e-08
-3.88975e-06
-6.80951e-08
-3.85464e-06
-6.93329e-08
-3.81965e-06
-7.01688e-08
-3.78383e-06
-7.24531e-08
-3.74602e-06
-7.60958e-08
-3.70695e-06
-7.82697e-08
-3.66737e-06
-7.8677e-08
-3.62803e-06
-7.84196e-08
-3.58888e-06
-7.92711e-08
-3.5488e-06
-8.12243e-08
-3.50817e-06
-8.19148e-08
-3.46787e-06
-8.10829e-08
-3.42859e-06
-7.9129e-08
-3.39103e-06
-7.61243e-08
-3.3554e-06
-7.25479e-08
-3.32176e-06
-6.8471e-08
-3.29034e-06
-6.35846e-08
-3.26168e-06
-5.74084e-08
-3.2363e-06
-5.07028e-08
-3.21465e-06
-4.37126e-08
-3.19711e-06
-3.58158e-08
-3.18382e-06
-2.70353e-08
-3.17457e-06
-1.83612e-08
-3.16933e-06
-1.01835e-08
-3.16816e-06
-2.30641e-09
-3.17127e-06
5.83859e-09
-3.1787e-06
1.44663e-08
-3.19038e-06
2.36264e-08
-3.20607e-06
3.22064e-08
-3.22566e-06
3.94989e-08
-3.24852e-06
4.54376e-08
-3.27427e-06
5.1126e-08
-3.30282e-06
5.67675e-08
-3.3337e-06
6.1793e-08
-3.36685e-06
6.64829e-08
-3.40222e-06
7.07334e-08
-3.43946e-06
7.42211e-08
-3.47813e-06
7.68919e-08
-3.51813e-06
7.94271e-08
-3.55883e-06
8.10242e-08
-3.59967e-06
8.16802e-08
-3.64059e-06
8.19081e-08
-3.68155e-06
8.18154e-08
-3.72239e-06
8.13755e-08
-3.76283e-06
8.05966e-08
-3.80264e-06
7.9487e-08
-3.84152e-06
7.76847e-08
-3.87924e-06
7.52268e-08
-3.91552e-06
7.2355e-08
-3.95025e-06
6.93297e-08
-3.98338e-06
6.60994e-08
-4.01493e-06
6.27791e-08
-4.04472e-06
5.91158e-08
-4.07218e-06
5.45746e-08
-4.09715e-06
4.97117e-08
-4.11968e-06
4.48655e-08
-4.13977e-06
3.99265e-08
-4.15722e-06
3.45785e-08
-4.17194e-06
2.91567e-08
-4.18386e-06
2.38414e-08
-4.1928e-06
1.81585e-08
-4.1987e-06
1.21493e-08
-4.20155e-06
5.61952e-09
-4.20123e-06
-9.85932e-10
-4.19781e-06
-7.17348e-09
-4.19122e-06
-1.33174e-08
-4.18129e-06
-1.99646e-08
-4.16762e-06
-2.74973e-08
-4.15011e-06
-3.52041e-08
-4.12894e-06
-4.25155e-08
-4.10434e-06
-4.94717e-08
-4.0763e-06
-5.64876e-08
-4.04454e-06
-6.39041e-08
-4.00886e-06
-7.11526e-08
-3.9692e-06
-7.85263e-08
-3.92586e-06
-8.62882e-08
-3.87867e-06
-9.4515e-08
-3.82762e-06
-1.0233e-07
-3.77285e-06
-1.09764e-07
-3.71441e-06
-1.17155e-07
-3.65205e-06
-1.24704e-07
-3.58586e-06
-1.32142e-07
-3.5159e-06
-1.39807e-07
-3.44232e-06
-1.47404e-07
-3.36513e-06
-1.54493e-07
-3.28426e-06
-1.61369e-07
-3.19968e-06
-1.68387e-07
-3.11185e-06
-1.75413e-07
-3.02086e-06
-1.821e-07
-2.92681e-06
-1.88431e-07
-2.82942e-06
-1.94989e-07
-2.72893e-06
-2.00936e-07
-2.6252e-06
-2.06503e-07
-2.5193e-06
-2.1114e-07
-2.41078e-06
-2.1672e-07
-2.30015e-06
-2.21616e-07
-2.18661e-06
-2.27382e-07
-2.07103e-06
-2.31534e-07
-1.95244e-06
-2.37041e-07
-1.83286e-06
-2.38613e-07
-1.71084e-06
-2.43722e-07
-1.58851e-06
-2.4558e-07
-1.46401e-06
-2.50926e-07
-1.33632e-06
-2.54989e-07
-1.20776e-06
-2.56474e-07
-1.07611e-06
-2.5979e-07
-9.46279e-07
-2.57142e-07
-8.15151e-07
-2.61118e-07
-6.90537e-07
-2.53973e-07
-5.68176e-07
-2.50783e-07
-4.35984e-07
-2.61014e-07
-3.03153e-07
-2.55714e-07
-1.67449e-07
-2.54352e-07
-3.14306e-08
-2.64123e-07
5.82362e-08
-2.13088e-07
1.33634e-07
-1.98105e-07
2.63647e-07
-2.61238e-07
4.05526e-07
-2.29039e-07
6.16976e-07
-2.86105e-07
8.37969e-07
-3.4958e-07
1.20044e-06
-4.57816e-07
1.60865e-06
-5.5939e-07
1.9078e-06
-4.88734e-07
2.10574e-06
-5.43119e-07
2.21029e-06
-5.24477e-07
2.34169e-06
-4.32385e-07
2.46223e-06
-3.72194e-07
2.60946e-06
-3.38742e-07
2.7492e-06
-2.97612e-07
2.90498e-06
-2.91198e-07
3.05616e-06
-2.85584e-07
3.19722e-06
-2.68987e-07
3.25833e-06
-1.8228e-07
3.2782e-06
-1.28582e-07
3.37091e-06
-2.09935e-07
3.488e-06
-1.59796e-07
3.73778e-06
-2.61669e-07
4.024e-06
-3.63418e-07
4.56782e-06
-5.80353e-07
5.23628e-06
-8.01715e-07
5.77603e-06
-7.4436e-07
6.13134e-06
-8.38536e-07
6.27274e-06
-8.01233e-07
6.42133e-06
-6.68528e-07
6.55417e-06
-5.80064e-07
6.69193e-06
-4.40979e-07
6.78443e-06
-3.38985e-07
6.88856e-06
-2.94625e-07
6.99573e-06
-2.6107e-07
7.11421e-06
-2.37945e-07
7.23226e-06
-1.78862e-07
7.39621e-06
-2.25212e-07
7.46299e-06
-1.22719e-07
7.29074e-06
1.40344e-07
7.14951e-06
6.3174e-08
7.11328e-06
2.73253e-08
7.25654e-06
5.5573e-08
7.86846e-06
-4.87288e-07
8.91651e-06
-9.4407e-07
1.10234e-05
-2.01195e-06
1.31163e-05
-2.47339e-06
1.46658e-05
-2.28485e-06
1.55736e-05
-2.69462e-06
1.60007e-05
-2.49651e-06
1.64082e-05
-2.02481e-06
1.67625e-05
-1.67032e-06
1.71052e-05
-1.40561e-06
1.7458e-05
-1.14364e-06
1.77804e-05
-9.07157e-07
1.80615e-05
-7.25531e-07
1.83056e-05
-5.95217e-07
1.85151e-05
-4.91014e-07
1.86939e-05
-4.00745e-07
1.88443e-05
-3.25693e-07
1.8971e-05
-2.7066e-07
1.90755e-05
-2.21556e-07
1.91569e-05
-1.73693e-07
1.92183e-05
-1.32191e-07
1.92617e-05
-9.11257e-08
1.929e-05
-5.8968e-08
1.93043e-05
-3.30608e-08
1.93056e-05
-6.93004e-09
1.92943e-05
2.35728e-08
1.92717e-05
4.74907e-08
1.92383e-05
6.42897e-08
1.91943e-05
8.44864e-08
1.91395e-05
1.08809e-07
1.90749e-05
1.32925e-07
1.90006e-05
1.52491e-07
1.89171e-05
1.67657e-07
1.88253e-05
1.83632e-07
1.87265e-05
1.97986e-07
1.86207e-05
2.13344e-07
1.85056e-05
2.29177e-07
1.8381e-05
2.47253e-07
1.82506e-05
2.64806e-07
1.8114e-05
2.77483e-07
1.79721e-05
2.85221e-07
1.78252e-05
2.91695e-07
1.76725e-05
3.00323e-07
1.75145e-05
3.1068e-07
1.73518e-05
3.22005e-07
1.71839e-05
3.33358e-07
1.70114e-05
3.43741e-07
1.68348e-05
3.53217e-07
1.66531e-05
3.6129e-07
1.6466e-05
3.72511e-07
1.62746e-05
3.81187e-07
1.60784e-05
3.87235e-07
1.58777e-05
3.95991e-07
1.56728e-05
4.0733e-07
1.54642e-05
4.1798e-07
1.52521e-05
4.26766e-07
1.50366e-05
4.33944e-07
1.48177e-05
4.39761e-07
1.45954e-05
4.44718e-07
1.43702e-05
4.4951e-07
1.41426e-05
4.54316e-07
1.39126e-05
4.59207e-07
1.368e-05
4.64565e-07
1.34449e-05
4.69873e-07
1.32074e-05
4.74719e-07
1.29677e-05
4.78747e-07
1.27264e-05
4.82042e-07
1.2483e-05
4.85623e-07
1.22373e-05
4.90105e-07
1.19895e-05
4.94738e-07
1.17404e-05
4.98109e-07
1.14903e-05
5.00251e-07
1.1239e-05
5.01914e-07
1.09858e-05
5.05223e-07
1.07312e-05
5.08138e-07
1.04761e-05
5.11323e-07
1.02208e-05
5.11141e-07
9.96453e-06
5.1427e-07
9.70676e-06
5.17076e-07
9.44819e-06
5.18082e-07
9.19079e-06
5.12411e-07
8.93206e-06
5.08686e-07
8.67364e-06
5.08221e-07
8.41292e-06
5.11274e-07
8.15148e-06
5.12877e-07
7.88975e-06
5.14993e-07
5.11267e-07
-1.08813e-05
-2.63289e-06
-9.95009e-06
-2.46795e-06
-9.02078e-06
-2.28117e-06
-8.1027e-06
-1.96198e-06
-7.10748e-06
-1.38217e-06
-5.88053e-06
-1.34037e-06
-3.99974e-06
-2.20928e-06
5.9142e-07
-6.86021e-06
7.86221e-06
-1.61758e-05
1.40405e-05
-2.22199e-05
1.93618e-05
-2.46194e-05
2.42772e-05
-2.52676e-05
2.88021e-05
-2.51488e-05
3.24174e-05
-2.38449e-05
3.53606e-05
-2.02172e-05
3.85504e-05
-1.41591e-05
4.17026e-05
-6.78897e-06
4.43336e-05
-6.68306e-07
4.63412e-05
2.41767e-06
4.72343e-05
3.51656e-06
4.74012e-05
3.09858e-06
4.7311e-05
1.16651e-06
4.70846e-05
-1.95434e-06
4.66628e-05
-4.46108e-06
4.59938e-05
-5.95622e-06
4.5397e-05
-6.56641e-06
4.50236e-05
-6.53187e-06
4.47555e-05
-5.54661e-06
4.41939e-05
-2.98865e-06
4.30675e-05
6.62444e-08
4.22714e-05
2.63964e-06
4.24965e-05
4.5685e-06
4.37649e-05
5.35075e-06
4.56496e-05
5.08172e-06
4.7643e-05
3.99735e-06
4.90057e-05
2.9689e-06
4.94466e-05
2.58049e-06
4.93946e-05
2.65576e-06
4.93622e-05
2.74937e-06
4.94343e-05
2.5718e-06
4.95476e-05
1.68444e-06
4.99356e-05
-1.7748e-07
5.04646e-05
-1.33445e-06
5.10217e-05
-1.73423e-06
5.1621e-05
-1.68697e-06
5.22933e-05
-1.13825e-06
5.28745e-05
-6.4648e-07
5.3477e-05
-7.28564e-07
5.40837e-05
-1.32784e-06
5.45898e-05
-1.74206e-06
5.50619e-05
-1.77733e-06
5.55347e-05
-1.44018e-06
5.58754e-05
-7.16226e-07
5.60987e-05
-4.3803e-07
5.63004e-05
-4.89008e-07
5.64754e-05
-9.4768e-07
5.67953e-05
-1.75471e-06
5.71605e-05
-2.16768e-06
5.74569e-05
-2.25056e-06
5.7699e-05
-2.14073e-06
5.784e-05
-1.5779e-06
5.80693e-05
-7.44069e-07
5.86644e-05
-4.84827e-07
5.95715e-05
-5.80696e-07
6.04649e-05
-5.5685e-07
6.09439e-05
1.13556e-08
6.08519e-05
1.00062e-06
6.04901e-05
1.73434e-06
5.9988e-05
1.98148e-06
5.92603e-05
1.81865e-06
5.85762e-05
1.10504e-06
5.8204e-05
5.83883e-07
5.79291e-05
5.80798e-07
5.77381e-05
9.3441e-07
5.75736e-05
2.15812e-06
5.73898e-05
3.672e-06
5.73326e-05
4.71002e-06
5.85438e-05
5.30101e-06
6.06022e-05
5.79795e-06
6.09901e-05
5.88146e-06