/*--------------------------------*- C++ -*----------------------------------*\
| =========                 |                                                 |
| \\      /  F ield         | OpenFOAM: The Open Source CFD Toolbox           |
|  \\    /   O peration     | Version:  v2006                                 |
|   \\  /    A nd           | Website:  www.openfoam.com                      |
|    \\/     M anipulation  |                                                 |
\*---------------------------------------------------------------------------*/
FoamFile
{
    version     2.0;
    format      ascii;
    class       volScalarField;
    location    "7.6";
    object      nut;
}
// * * * * * * * * * * * * * * * * * * * * * * * * * * * * * * * * * * * * * //

dimensions      [0 2 -1 0 0 0 0];


internalField   nonuniform List<scalar> 
33000
(
4.59295e-09
2.15655e-09
4.00535e-09
3.86995e-09
5.98659e-09
6.0283e-09
7.0597e-09
7.4583e-09
6.21408e-09
2.9984e-09
1.9028e-09
1.53526e-09
1.27792e-09
1.10347e-09
1.08501e-09
1.23176e-09
1.50502e-09
1.84061e-09
2.27525e-09
2.83186e-09
3.29289e-09
3.67574e-09
4.10438e-09
4.53085e-09
4.91627e-09
5.19499e-09
5.29971e-09
5.27508e-09
5.29887e-09
5.51959e-09
6.00106e-09
6.79959e-09
8.30331e-09
1.13071e-08
1.60774e-08
2.16872e-08
2.6522e-08
3.0178e-08
3.3626e-08
3.71832e-08
4.00438e-08
4.11964e-08
4.06129e-08
3.92459e-08
3.82487e-08
3.82621e-08
3.86232e-08
3.886e-08
3.81722e-08
3.64994e-08
3.52258e-08
3.49613e-08
3.50324e-08
3.49618e-08
3.4474e-08
3.3413e-08
3.20503e-08
3.09132e-08
3.00822e-08
2.93953e-08
2.89277e-08
2.90326e-08
2.96278e-08
3.03154e-08
3.05325e-08
3.02152e-08
2.96969e-08
2.91111e-08
2.83577e-08
2.72429e-08
2.55706e-08
2.36657e-08
2.20668e-08
2.06519e-08
1.94702e-08
1.8596e-08
1.67623e-08
1.67078e-08
2.10095e-08
2.09498e-08
2.16687e-08
2.31099e-08
2.35635e-08
2.89806e-08
3.23029e-08
3.64252e-08
4.13031e-08
4.46259e-08
4.54152e-08
4.68066e-08
4.94589e-08
4.98296e-08
5.00603e-08
4.91459e-08
4.71629e-08
4.49319e-08
4.22908e-08
3.93931e-08
3.65373e-08
4.00208e-08
4.97231e-08
6.47073e-08
6.79852e-08
6.66014e-08
8.31415e-08
1.02163e-07
1.2489e-07
1.39205e-07
1.50786e-07
1.2884e-07
1.12658e-07
1.11646e-07
1.10318e-07
1.1181e-07
1.12456e-07
1.06562e-07
1.0048e-07
1.11893e-07
1.39053e-07
1.52018e-07
1.35229e-07
1.30538e-07
1.44246e-07
1.46925e-07
1.60235e-07
1.63135e-07
1.51534e-07
1.45013e-07
1.43524e-07
1.40867e-07
1.41248e-07
1.40006e-07
1.36664e-07
1.3388e-07
1.31628e-07
1.28947e-07
1.2568e-07
1.22626e-07
1.19937e-07
1.17068e-07
1.14312e-07
1.11455e-07
1.08612e-07
1.06009e-07
1.03773e-07
1.01615e-07
9.945e-08
9.72177e-08
9.49359e-08
9.27732e-08
9.09578e-08
8.93291e-08
8.75154e-08
8.56062e-08
8.3832e-08
8.21921e-08
8.06501e-08
7.91572e-08
7.7673e-08
7.62154e-08
7.4806e-08
7.34242e-08
7.20924e-08
7.08715e-08
6.96679e-08
6.84171e-08
6.72255e-08
6.61611e-08
6.51416e-08
6.40839e-08
6.30402e-08
6.21244e-08
6.13675e-08
6.06759e-08
6.00048e-08
5.94051e-08
5.89096e-08
5.8623e-08
5.85365e-08
5.8556e-08
5.86971e-08
5.89012e-08
5.91511e-08
5.9519e-08
6.00633e-08
6.08808e-08
6.19263e-08
6.3098e-08
6.43729e-08
6.58515e-08
6.7656e-08
6.97853e-08
7.22573e-08
7.49951e-08
7.80122e-08
8.13272e-08
8.50648e-08
8.9558e-08
9.49979e-08
1.0142e-07
1.08534e-07
1.16294e-07
1.25416e-07
1.36453e-07
1.49921e-07
1.6654e-07
1.86257e-07
2.09454e-07
2.3792e-07
2.7696e-07
2.9478e-07
2.94473e-07
2.94149e-07
2.93889e-07
2.93845e-07
2.9406e-07
2.94396e-07
2.94701e-07
2.94874e-07
2.94963e-07
2.95092e-07
2.87438e-07
2.60389e-07
2.39213e-07
2.2248e-07
2.08884e-07
1.97255e-07
1.87342e-07
1.78457e-07
1.70471e-07
1.63714e-07
1.58053e-07
1.53307e-07
1.49084e-07
1.45186e-07
1.41639e-07
1.38534e-07
1.35754e-07
1.33212e-07
1.30966e-07
1.28858e-07
1.27064e-07
1.25563e-07
1.24116e-07
1.22844e-07
1.21626e-07
1.20309e-07
1.19227e-07
1.18456e-07
1.1769e-07
1.16954e-07
1.16238e-07
1.15502e-07
1.14859e-07
1.14301e-07
1.13805e-07
1.13328e-07
1.1283e-07
1.1232e-07
1.11826e-07
1.11352e-07
1.1094e-07
1.10592e-07
1.10209e-07
1.09759e-07
1.09195e-07
1.08634e-07
1.0822e-07
1.07812e-07
1.07343e-07
1.06895e-07
1.06424e-07
1.05883e-07
1.05289e-07
1.04694e-07
1.04135e-07
1.03569e-07
1.02962e-07
1.02351e-07
1.01785e-07
1.01175e-07
1.00442e-07
9.96457e-08
9.89143e-08
9.82191e-08
9.74508e-08
9.66429e-08
9.58327e-08
9.49784e-08
9.40478e-08
9.30784e-08
9.20823e-08
9.10509e-08
8.99357e-08
8.8754e-08
8.75339e-08
8.62694e-08
8.49886e-08
8.3709e-08
8.24268e-08
8.11536e-08
7.98951e-08
7.859e-08
7.72356e-08
7.58782e-08
7.4537e-08
7.32152e-08
7.19176e-08
7.0675e-08
6.95096e-08
6.84599e-08
6.75375e-08
6.6702e-08
6.59193e-08
6.52171e-08
6.46525e-08
6.42092e-08
6.38558e-08
6.35925e-08
6.34158e-08
6.33283e-08
6.33246e-08
6.33966e-08
6.35102e-08
6.36409e-08
6.38089e-08
6.40136e-08
6.42095e-08
6.43601e-08
6.44684e-08
6.45529e-08
6.46133e-08
6.46382e-08
6.45873e-08
6.44296e-08
6.42039e-08
6.39425e-08
6.36343e-08
6.32526e-08
6.27996e-08
6.22769e-08
6.16956e-08
6.10668e-08
6.04087e-08
5.97221e-08
5.90043e-08
5.82708e-08
5.75282e-08
5.67863e-08
5.60478e-08
5.53132e-08
5.45768e-08
5.38421e-08
5.31216e-08
5.24199e-08
5.17328e-08
5.10591e-08
5.04026e-08
4.97608e-08
4.91398e-08
4.8544e-08
4.79713e-08
4.74193e-08
4.68909e-08
4.63907e-08
4.59134e-08
4.54548e-08
4.50169e-08
4.46061e-08
4.42344e-08
4.38927e-08
4.35722e-08
4.32697e-08
4.29971e-08
4.27627e-08
4.25613e-08
4.23869e-08
4.22377e-08
4.21242e-08
4.20419e-08
4.19786e-08
4.19415e-08
4.19542e-08
4.20088e-08
4.21015e-08
4.22285e-08
4.24045e-08
4.26177e-08
4.28859e-08
4.3212e-08
4.36139e-08
4.40641e-08
4.45816e-08
4.51673e-08
4.58654e-08
4.66425e-08
4.75444e-08
4.85616e-08
4.97215e-08
5.09884e-08
5.244e-08
5.40835e-08
5.59592e-08
5.81243e-08
6.05823e-08
6.26293e-08
6.19325e-08
6.12654e-08
6.0621e-08
6.00131e-08
5.94294e-08
5.88728e-08
5.83365e-08
5.78087e-08
5.7319e-08
5.68454e-08
5.63812e-08
5.59575e-08
5.54963e-08
5.50077e-08
5.46295e-08
5.42056e-08
5.38215e-08
5.35669e-08
5.28804e-08
5.21503e-08
5.19788e-08
5.11712e-08
5.11019e-08
5.05433e-08
4.54803e-08
4.30455e-08
4.31146e-08
4.22301e-08
4.10643e-08
3.92642e-08
3.71167e-08
3.5337e-08
3.3802e-08
3.41319e-08
3.36583e-08
3.24351e-08
3.10714e-08
2.70171e-08
2.57458e-08
2.5054e-08
2.49767e-08
2.22736e-08
1.7643e-08
1.62025e-08
1.57657e-08
1.56652e-08
1.55921e-08
1.55596e-08
1.53538e-08
1.51699e-08
1.4902e-08
1.46076e-08
1.40875e-08
1.41939e-08
1.46074e-08
1.46041e-08
1.45455e-08
1.35517e-08
1.16553e-08
1.12304e-08
1.01865e-08
9.82396e-09
8.13961e-09
6.74803e-09
6.65588e-09
6.91195e-09
7.34807e-09
7.86645e-09
8.36369e-09
8.78709e-09
9.11032e-09
9.35054e-09
9.53331e-09
9.67264e-09
9.77137e-09
9.84128e-09
9.89541e-09
9.93669e-09
9.9738e-09
1.00091e-08
1.00371e-08
1.006e-08
1.00871e-08
1.01195e-08
1.01473e-08
1.0173e-08
1.02042e-08
1.0242e-08
1.02836e-08
1.03235e-08
1.03639e-08
1.04076e-08
1.04558e-08
1.05066e-08
1.05587e-08
1.06175e-08
1.06807e-08
1.0742e-08
1.08027e-08
1.08654e-08
1.09328e-08
1.10062e-08
1.10843e-08
1.11652e-08
1.12505e-08
1.13375e-08
1.14288e-08
1.15276e-08
1.16273e-08
1.17304e-08
1.1843e-08
1.19636e-08
1.20888e-08
1.22177e-08
1.23504e-08
1.24874e-08
1.26297e-08
1.27788e-08
1.29352e-08
1.30992e-08
1.32716e-08
1.34527e-08
1.36415e-08
1.38392e-08
1.40464e-08
1.42647e-08
1.44959e-08
1.47404e-08
1.49975e-08
1.52658e-08
1.55485e-08
1.58468e-08
1.61742e-08
1.64848e-08
1.69379e-08
1.70976e-08
1.7954e-08
1.76644e-08
1.92443e-08
1.81825e-08
2.07321e-08
1.97004e-08
1.87693e-08
2.56574e-08
4.10827e-09
6.55074e-09
5.04612e-09
1.23387e-08
9.11428e-09
1.28265e-08
1.05106e-08
7.80811e-09
3.68089e-09
2.60862e-09
2.4827e-09
2.43306e-09
2.55336e-09
2.87091e-09
3.45052e-09
5.18639e-09
1.28446e-08
2.68219e-08
3.21591e-08
3.93399e-08
4.89494e-08
6.35081e-08
8.49217e-08
1.11803e-07
1.40814e-07
1.68604e-07
1.93013e-07
2.12657e-07
2.27658e-07
2.39345e-07
2.53924e-07
2.75328e-07
3.02576e-07
3.35901e-07
3.69302e-07
3.92498e-07
3.98473e-07
3.97133e-07
3.94744e-07
3.85289e-07
3.60142e-07
3.22274e-07
2.88316e-07
2.65049e-07
2.55108e-07
2.5602e-07
2.55789e-07
2.46022e-07
2.33305e-07
2.23233e-07
1.94867e-07
1.49889e-07
1.93325e-07
2.14109e-07
2.04427e-07
1.92417e-07
1.01861e-07
7.22324e-08
6.73794e-08
8.33299e-08
1.46841e-07
1.91876e-07
2.15893e-07
2.32391e-07
2.36371e-07
2.33227e-07
1.78366e-07
1.29736e-07
1.26282e-07
1.28753e-07
1.33679e-07
1.12056e-07
9.98439e-08
7.3096e-08
5.89345e-08
6.17466e-08
7.55106e-08
8.97326e-08
1.35892e-07
1.1914e-07
7.363e-08
1.23278e-07
1.92927e-07
2.18198e-07
2.29355e-07
2.47074e-07
2.47564e-07
2.32555e-07
2.05468e-07
1.78277e-07
1.51944e-07
1.29116e-07
9.22033e-08
9.04244e-08
9.04874e-08
6.72607e-08
7.50851e-08
5.61785e-08
6.5453e-08
8.33963e-08
1.15753e-07
1.07799e-07
1.00764e-07
1.16386e-07
1.01026e-07
8.78576e-08
7.61867e-08
6.93717e-08
8.36791e-08
3.01471e-08
4.43956e-08
3.84616e-08
1.08032e-07
6.71712e-08
8.48224e-08
6.44794e-08
6.91896e-08
1.01287e-07
1.0934e-07
4.41628e-08
2.81926e-08
3.6727e-08
5.70028e-08
7.57937e-08
6.24628e-08
8.51677e-08
7.01076e-08
1.34373e-07
1.21553e-07
1.59657e-07
1.63624e-07
1.62024e-07
1.37177e-07
1.45154e-07
1.41722e-07
1.29935e-07
1.24987e-07
1.26969e-07
1.21259e-07
1.17689e-07
1.15792e-07
1.13383e-07
1.15326e-07
1.19366e-07
1.22198e-07
1.23284e-07
1.23591e-07
1.23554e-07
1.282e-07
1.35684e-07
1.39521e-07
1.40539e-07
1.39912e-07
1.43327e-07
1.52678e-07
1.60404e-07
1.61384e-07
1.62664e-07
1.70264e-07
1.77318e-07
1.77445e-07
1.7768e-07
1.7793e-07
1.77986e-07
1.77903e-07
1.77967e-07
1.78176e-07
1.78243e-07
1.78154e-07
1.78162e-07
1.78452e-07
1.78884e-07
1.79059e-07
1.79068e-07
1.79239e-07
1.79745e-07
1.80607e-07
1.81493e-07
1.82133e-07
1.82743e-07
1.83378e-07
1.84103e-07
1.8511e-07
1.74187e-07
1.51066e-07
1.30647e-07
1.16511e-07
1.06429e-07
9.86654e-08
9.17664e-08
8.48185e-08
7.78405e-08
7.16369e-08
6.70621e-08
6.38474e-08
6.06251e-08
5.74341e-08
5.47952e-08
5.25616e-08
5.08849e-08
4.92395e-08
4.7663e-08
4.62055e-08
4.52937e-08
4.49515e-08
4.45827e-08
4.39276e-08
4.33129e-08
4.30452e-08
4.34567e-08
4.41785e-08
4.44974e-08
4.48009e-08
4.53275e-08
4.59141e-08
4.67062e-08
4.76547e-08
4.90254e-08
5.05429e-08
5.17808e-08
5.31505e-08
5.45984e-08
5.60996e-08
5.77799e-08
5.99303e-08
6.27017e-08
6.55361e-08
6.83813e-08
7.10502e-08
7.39831e-08
7.82864e-08
8.41075e-08
9.02097e-08
9.62621e-08
1.0199e-07
1.07085e-07
1.13394e-07
1.23114e-07
1.36524e-07
1.54765e-07
1.73376e-07
1.89651e-07
2.10154e-07
2.29568e-07
2.2938e-07
2.29099e-07
2.28818e-07
2.28646e-07
2.28641e-07
2.28583e-07
2.28346e-07
2.28002e-07
2.27692e-07
2.27512e-07
2.2743e-07
2.27364e-07
2.27252e-07
2.27101e-07
2.26987e-07
2.26958e-07
2.26986e-07
2.26995e-07
2.26879e-07
2.26614e-07
2.26326e-07
2.26204e-07
2.26355e-07
2.26675e-07
2.26904e-07
2.26885e-07
2.26637e-07
2.26298e-07
2.26034e-07
2.25941e-07
2.25989e-07
2.26078e-07
2.2611e-07
2.26043e-07
2.25866e-07
2.25561e-07
2.2516e-07
2.24811e-07
2.24662e-07
2.24686e-07
2.24684e-07
2.2451e-07
2.24167e-07
2.23719e-07
2.23264e-07
2.22933e-07
2.2277e-07
2.22669e-07
2.22484e-07
2.22151e-07
2.21701e-07
2.21253e-07
2.20938e-07
2.20777e-07
2.20696e-07
2.20583e-07
2.20363e-07
2.20116e-07
2.20004e-07
2.20072e-07
2.20215e-07
2.20308e-07
2.20426e-07
2.20724e-07
2.21202e-07
2.2172e-07
2.22138e-07
2.22506e-07
2.23023e-07
2.2383e-07
2.24823e-07
2.25743e-07
2.26548e-07
2.2739e-07
2.28307e-07
2.29235e-07
2.30051e-07
2.30706e-07
2.31326e-07
2.31974e-07
2.32531e-07
2.32822e-07
2.32845e-07
2.32795e-07
2.32779e-07
2.3269e-07
2.32332e-07
2.31614e-07
2.30744e-07
2.30038e-07
2.29627e-07
2.29394e-07
2.29131e-07
2.28712e-07
2.28162e-07
2.2765e-07
2.27307e-07
2.27099e-07
2.26908e-07
2.266e-07
2.26176e-07
2.22369e-07
2.21514e-07
2.20956e-07
2.20547e-07
2.21065e-07
2.23077e-07
2.25342e-07
2.25373e-07
2.25342e-07
2.2517e-07
2.25008e-07
2.24908e-07
2.24801e-07
2.24671e-07
2.24566e-07
2.2447e-07
2.24345e-07
2.24184e-07
2.23975e-07
2.23724e-07
2.23487e-07
2.23327e-07
2.23233e-07
2.23147e-07
2.22996e-07
2.22816e-07
2.22727e-07
2.22796e-07
2.22959e-07
2.23088e-07
2.23174e-07
2.23254e-07
2.23348e-07
2.23405e-07
2.23451e-07
2.2356e-07
2.0437e-07
1.87856e-07
1.73859e-07
1.62043e-07
1.51728e-07
1.42054e-07
1.33685e-07
1.26262e-07
1.1994e-07
1.14242e-07
1.08871e-07
1.0393e-07
9.98589e-08
9.62961e-08
9.2944e-08
8.96479e-08
8.66932e-08
8.39266e-08
8.19642e-08
7.98995e-08
7.81132e-08
7.60726e-08
7.44787e-08
7.25658e-08
7.17329e-08
7.02104e-08
6.98269e-08
6.84886e-08
6.66998e-08
6.60476e-08
6.44541e-08
6.5096e-08
6.43741e-08
6.75261e-08
6.8697e-08
6.33006e-08
6.28968e-08
6.13735e-08
6.06623e-08
9.2393e-08
1.09738e-07
5.56734e-08
5.0338e-08
3.7342e-08
3.63306e-08
2.26876e-08
1.96006e-08
2.59695e-08
3.63693e-08
5.00992e-08
4.38238e-08
5.51599e-08
4.96722e-08
5.40947e-08
5.30092e-08
5.37376e-08
5.78848e-08
1.32824e-07
2.93908e-07
5.05944e-08
3.96241e-08
2.67033e-08
2.50916e-08
1.4499e-08
1.14742e-08
1.36328e-08
1.77493e-08
2.42049e-08
2.43312e-08
3.22252e-08
3.70197e-08
6.01246e-08
5.56623e-08
5.50512e-08
4.55916e-08
5.6538e-08
4.96943e-08
1.06534e-07
4.5198e-08
4.86628e-08
1.93408e-08
1.5054e-08
8.95634e-09
6.77739e-09
3.95028e-09
3.81815e-09
4.96564e-09
5.8748e-09
6.21721e-09
7.10638e-09
9.9315e-09
1.23296e-08
1.43183e-08
1.78077e-08
2.23439e-08
2.74197e-08
3.28347e-08
3.91947e-08
4.74201e-08
5.67881e-08
6.7675e-08
8.2835e-08
1.01854e-07
1.27471e-07
1.65328e-07
2.03161e-07
2.15367e-07
2.20087e-07
2.26828e-07
2.01822e-07
1.66617e-07
1.42512e-07
1.2727e-07
1.15577e-07
1.0491e-07
9.60735e-08
8.96326e-08
8.41346e-08
7.78524e-08
7.23235e-08
6.90525e-08
6.64785e-08
6.4089e-08
6.18044e-08
5.94177e-08
5.74187e-08
5.57846e-08
5.4226e-08
5.28546e-08
5.16523e-08
5.0259e-08
4.88904e-08
4.77766e-08
4.66601e-08
4.55583e-08
4.46417e-08
4.38883e-08
4.31977e-08
4.25251e-08
4.18251e-08
4.11359e-08
4.05543e-08
4.00614e-08
3.96036e-08
3.91385e-08
3.87021e-08
3.82966e-08
3.79276e-08
3.76121e-08
3.7269e-08
3.68927e-08
3.65734e-08
3.63724e-08
3.62154e-08
3.6002e-08
3.57119e-08
3.54209e-08
3.59175e-08
3.39154e-08
3.7896e-08
3.17164e-08
3.93343e-08
3.04096e-08
4.06062e-08
3.02289e-08
2.91117e-08
3.60732e-08
9.90048e-09
2.77659e-08
3.57205e-09
6.64839e-09
4.48192e-09
8.98629e-09
5.75143e-09
8.00429e-09
7.33217e-09
3.90533e-09
2.5866e-09
2.5907e-09
2.79056e-09
2.93581e-09
3.31073e-09
4.52345e-09
7.22359e-09
1.04646e-08
1.60082e-08
2.46163e-08
3.46759e-08
5.54618e-08
7.34715e-08
1.00058e-07
1.33006e-07
1.67256e-07
1.99667e-07
2.29027e-07
2.54806e-07
2.76085e-07
2.92896e-07
3.08526e-07
3.18243e-07
3.25325e-07
3.32904e-07
3.39487e-07
3.41065e-07
3.34299e-07
3.17875e-07
2.9918e-07
2.82669e-07
2.66795e-07
2.46905e-07
2.20801e-07
1.94867e-07
1.74271e-07
1.61334e-07
1.54437e-07
1.49513e-07
1.44777e-07
1.39585e-07
1.34589e-07
1.31468e-07
1.29988e-07
1.28231e-07
1.25561e-07
1.2222e-07
1.18389e-07
9.46062e-08
8.73598e-08
9.36265e-08
1.06961e-07
1.08986e-07
1.10947e-07
7.57636e-08
5.74687e-08
6.42264e-08
8.86788e-08
9.91426e-08
1.05026e-07
1.13522e-07
9.14103e-08
7.72355e-08
9.16359e-08
7.59163e-08
4.60519e-08
4.75264e-08
5.95015e-08
9.31573e-08
1.07735e-07
1.18901e-07
1.26009e-07
1.34027e-07
1.42549e-07
1.52361e-07
1.65834e-07
1.80647e-07
1.97934e-07
2.0972e-07
2.12025e-07
1.99012e-07
1.86128e-07
1.63001e-07
1.40215e-07
1.23175e-07
1.08907e-07
9.70052e-08
8.84781e-08
8.46431e-08
8.50656e-08
8.99202e-08
9.96869e-08
1.06676e-07
1.08357e-07
1.03308e-07
9.58368e-08
8.65204e-08
6.77241e-08
5.17939e-08
4.30102e-08
4.10476e-08
3.46378e-08
2.35486e-08
2.69219e-08
1.70459e-08
3.0273e-08
3.39665e-08
7.36496e-08
2.99239e-08
3.28392e-08
3.08704e-08
3.2699e-08
3.04384e-08
3.30619e-08
1.36829e-08
9.52297e-09
1.4022e-08
2.1452e-08
2.89308e-08
2.85017e-08
4.23131e-08
3.07834e-08
5.56855e-08
5.60457e-08
1.22066e-07
1.06221e-07
7.9922e-08
5.43794e-08
4.37526e-08
4.82218e-08
4.77655e-08
5.2511e-08
5.50273e-08
5.3132e-08
5.12943e-08
5.05854e-08
5.04944e-08
5.14724e-08
5.19423e-08
5.29646e-08
5.56391e-08
5.72998e-08
5.65496e-08
5.57977e-08
5.66361e-08
5.95797e-08
6.28923e-08
6.47579e-08
6.43831e-08
6.40486e-08
6.60183e-08
7.08009e-08
7.58036e-08
7.98847e-08
8.35275e-08
8.59628e-08
9.00278e-08
9.78546e-08
1.08597e-07
1.2323e-07
1.42098e-07
1.57903e-07
1.76059e-07
2.08635e-07
2.77564e-07
2.78666e-07
2.8039e-07
2.82099e-07
2.16669e-07
1.69487e-07
1.37222e-07
1.13934e-07
9.73361e-08
8.39048e-08
7.27551e-08
6.37347e-08
5.62338e-08
5.03274e-08
4.5222e-08
4.07488e-08
3.78e-08
3.56992e-08
3.36266e-08
3.14036e-08
2.90596e-08
2.70842e-08
2.58356e-08
2.49071e-08
2.4169e-08
2.35067e-08
2.26756e-08
2.19618e-08
2.14322e-08
2.11345e-08
2.09371e-08
2.09302e-08
2.10724e-08
2.10416e-08
2.08827e-08
2.09117e-08
2.14013e-08
2.20708e-08
2.25198e-08
2.29632e-08
2.35047e-08
2.41148e-08
2.49598e-08
2.5944e-08
2.69185e-08
2.79282e-08
2.90301e-08
3.01699e-08
3.17546e-08
3.36619e-08
3.51654e-08
3.66348e-08
3.80259e-08
3.98891e-08
4.25032e-08
4.53147e-08
4.82914e-08
5.11887e-08
5.47131e-08
5.90656e-08
6.34734e-08
6.80919e-08
7.22575e-08
7.67459e-08
8.28918e-08
9.26027e-08
1.05464e-07
1.18853e-07
1.30799e-07
1.39216e-07
1.50805e-07
1.70071e-07
1.99079e-07
2.4575e-07
2.93929e-07
3.3089e-07
3.95267e-07
4.63486e-07
5.51375e-07
7.12985e-07
7.56011e-07
8.28775e-07
1.03093e-06
1.38293e-06
1.34107e-06
8.72547e-07
5.96721e-07
5.08201e-07
5.04906e-07
5.19997e-07
4.99911e-07
4.63175e-07
4.44631e-07
4.226e-07
3.98342e-07
3.86215e-07
3.83813e-07
4.00014e-07
4.0685e-07
3.6959e-07
3.30033e-07
3.19082e-07
3.35821e-07
3.6546e-07
3.69775e-07
3.53013e-07
3.35529e-07
3.23981e-07
3.17552e-07
3.11162e-07
3.13001e-07
3.21095e-07
3.2707e-07
3.38177e-07
3.38316e-07
3.13657e-07
2.95434e-07
2.94914e-07
3.0159e-07
3.15105e-07
3.26797e-07
3.2231e-07
3.01354e-07
2.85133e-07
2.80186e-07
2.84542e-07
2.96361e-07
2.97213e-07
2.79627e-07
2.62426e-07
2.61736e-07
2.6976e-07
2.67142e-07
2.47247e-07
2.31118e-07
2.28681e-07
2.33002e-07
2.29871e-07
2.17511e-07
2.0901e-07
2.06093e-07
2.10164e-07
2.1583e-07
2.11311e-07
2.05862e-07
2.06915e-07
2.13707e-07
2.25924e-07
2.39534e-07
2.52405e-07
2.66528e-07
2.87033e-07
3.20505e-07
3.70508e-07
4.46497e-07
5.64755e-07
7.41473e-07
1.0038e-06
1.18692e-06
9.99891e-07
7.26725e-07
5.58305e-07
4.63239e-07
3.89794e-07
3.35544e-07
2.98366e-07
2.7076e-07
2.51981e-07
2.3646e-07
2.21245e-07
2.08985e-07
2.00386e-07
1.93859e-07
1.92411e-07
1.93051e-07
1.92373e-07
1.91335e-07
1.91115e-07
1.92356e-07
1.94549e-07
1.98062e-07
2.03471e-07
2.11378e-07
2.20477e-07
2.2957e-07
2.38238e-07
2.49346e-07
2.67281e-07
2.89443e-07
3.1343e-07
3.39639e-07
3.7186e-07
4.15283e-07
4.68999e-07
5.25163e-07
5.71698e-07
6.01169e-07
6.23656e-07
6.1376e-07
5.628e-07
4.89644e-07
4.20562e-07
3.65956e-07
3.25076e-07
2.91431e-07
2.6163e-07
2.34087e-07
2.10437e-07
1.91008e-07
1.76337e-07
1.63964e-07
1.53031e-07
1.43702e-07
1.34989e-07
1.26318e-07
1.18293e-07
1.12379e-07
1.07342e-07
1.02852e-07
9.76388e-08
9.34303e-08
8.99208e-08
8.73212e-08
8.44829e-08
8.18768e-08
7.89657e-08
7.6642e-08
7.44847e-08
7.29539e-08
7.14468e-08
7.03462e-08
6.86913e-08
6.7413e-08
6.61616e-08
6.34713e-08
6.32018e-08
6.09953e-08
6.19678e-08
6.10575e-08
6.30956e-08
6.41691e-08
5.86613e-08
5.83103e-08
5.59074e-08
5.58969e-08
8.43842e-08
9.82792e-08
5.16284e-08
4.41439e-08
3.22165e-08
3.24106e-08
2.05497e-08
1.80852e-08
2.46026e-08
3.01945e-08
4.14962e-08
4.1967e-08
8.73452e-08
7.43372e-08
5.96888e-08
5.86766e-08
5.02246e-08
1.09522e-07
1.72446e-07
7.08646e-08
3.62107e-08
2.93124e-08
2.09695e-08
2.02388e-08
1.23305e-08
1.01972e-08
1.24507e-08
1.51574e-08
2.1539e-08
2.2455e-08
4.05407e-08
3.9857e-08
4.95791e-08
5.20018e-08
3.87974e-08
4.26241e-08
4.04016e-08
3.89172e-08
9.30621e-08
4.76431e-08
4.57295e-08
1.58319e-08
1.14775e-08
7.19205e-09
5.27013e-09
3.26842e-09
3.32322e-09
4.45974e-09
5.02949e-09
5.50609e-09
6.66459e-09
1.02698e-08
1.22698e-08
1.36559e-08
1.59335e-08
1.89503e-08
2.07291e-08
2.25724e-08
2.58804e-08
3.00102e-08
3.45023e-08
3.92756e-08
4.52527e-08
5.3259e-08
6.22105e-08
7.33883e-08
8.74563e-08
1.03424e-07
1.24557e-07
1.43804e-07
1.49379e-07
1.54729e-07
1.62429e-07
1.48507e-07
1.28386e-07
1.16412e-07
1.09107e-07
1.00918e-07
9.14205e-08
8.37352e-08
7.79113e-08
7.34635e-08
6.85174e-08
6.47703e-08
6.2556e-08
5.985e-08
5.64963e-08
5.34063e-08
5.09612e-08
4.91177e-08
4.76746e-08
4.64467e-08
4.53492e-08
4.42878e-08
4.30696e-08
4.2175e-08
4.12114e-08
3.999e-08
3.91083e-08
3.86641e-08
3.82913e-08
3.78012e-08
3.72256e-08
3.65933e-08
3.59826e-08
3.54561e-08
3.50044e-08
3.4609e-08
3.42406e-08
3.38893e-08
3.355e-08
3.32197e-08
3.28989e-08
3.25928e-08
3.23458e-08
3.21752e-08
3.20546e-08
3.18754e-08
3.15928e-08
3.13879e-08
3.12587e-08
3.18184e-08
2.98916e-08
3.34472e-08
2.81287e-08
3.498e-08
2.66709e-08
3.5219e-08
2.63357e-08
2.54407e-08
3.17819e-08
8.64816e-09
2.44977e-08
3.16391e-09
6.80287e-09
4.0274e-09
7.66578e-09
4.60452e-09
6.93177e-09
5.19886e-09
3.24986e-09
2.77881e-09
3.50313e-09
4.75924e-09
7.04413e-09
1.48479e-08
3.46135e-08
7.9382e-08
7.28458e-08
6.70744e-08
6.9591e-08
7.48274e-08
8.71798e-08
1.06253e-07
1.29573e-07
1.52426e-07
1.7304e-07
1.9051e-07
2.0412e-07
2.13125e-07
2.17877e-07
2.27959e-07
2.46093e-07
2.68226e-07
2.87912e-07
2.95026e-07
2.91532e-07
2.80321e-07
2.63569e-07
2.43484e-07
2.25376e-07
2.10553e-07
1.97357e-07
1.81458e-07
1.64232e-07
1.48875e-07
1.36503e-07
1.28865e-07
1.2449e-07
1.21895e-07
1.14348e-07
1.11267e-07
1.16161e-07
1.14907e-07
1.09965e-07
9.51306e-08
1.12302e-07
1.1128e-07
1.08484e-07
7.47593e-08
9.43322e-08
1.12285e-07
1.13519e-07
6.52175e-08
3.66951e-08
2.67859e-08
2.62806e-08
3.14528e-08
3.5111e-08
4.49142e-08
7.17608e-08
1.04637e-07
1.02168e-07
6.23542e-08
6.60282e-08
5.80181e-08
4.02601e-08
3.00772e-08
3.40551e-08
4.89266e-08
7.81403e-08
1.01807e-07
1.05724e-07
1.11694e-07
1.20116e-07
1.28952e-07
1.40418e-07
1.51603e-07
1.61414e-07
1.71282e-07
1.77339e-07
1.78128e-07
1.74221e-07
1.65064e-07
1.52631e-07
1.38494e-07
1.22686e-07
1.09584e-07
1.00136e-07
9.24655e-08
8.73998e-08
8.52904e-08
8.63355e-08
8.87105e-08
9.04051e-08
8.98516e-08
8.69622e-08
8.24602e-08
7.67449e-08
6.38205e-08
4.68254e-08
3.12565e-08
2.05469e-08
2.11436e-08
2.11281e-08
2.29373e-08
1.90713e-08
2.61308e-08
1.74974e-08
2.93483e-08
2.65639e-08
7.02691e-08
3.55301e-08
2.68395e-08
2.09222e-08
2.35832e-08
2.03093e-08
2.27499e-08
9.76283e-09
7.1653e-09
1.09832e-08
1.8027e-08
2.51885e-08
2.63527e-08
3.70514e-08
2.69637e-08
4.27401e-08
4.60335e-08
3.85343e-08
5.67048e-08
6.42317e-08
4.30527e-08
3.65775e-08
4.04773e-08
4.10665e-08
4.46147e-08
4.50682e-08
4.27679e-08
4.16605e-08
4.19279e-08
4.40725e-08
4.71993e-08
4.75083e-08
4.63251e-08
4.53042e-08
4.6594e-08
4.94079e-08
5.08517e-08
5.13018e-08
5.20101e-08
5.24516e-08
5.3087e-08
5.4921e-08
5.87593e-08
6.27701e-08
6.49822e-08
6.66968e-08
7.04999e-08
7.59766e-08
8.23416e-08
9.12974e-08
1.07145e-07
1.20222e-07
1.24275e-07
1.37586e-07
1.70181e-07
2.11048e-07
2.16105e-07
1.74905e-07
1.32058e-07
1.08684e-07
9.42747e-08
8.37268e-08
7.47265e-08
6.40101e-08
5.49422e-08
4.82715e-08
4.3211e-08
3.97902e-08
3.65939e-08
3.32892e-08
3.09147e-08
2.91786e-08
2.76151e-08
2.63471e-08
2.49233e-08
2.34638e-08
2.23315e-08
2.15891e-08
2.11844e-08
2.08399e-08
2.02557e-08
1.9601e-08
1.91447e-08
1.91e-08
1.92678e-08
1.93319e-08
1.93125e-08
1.91847e-08
1.9124e-08
1.94139e-08
2.00974e-08
2.07189e-08
2.09574e-08
2.13473e-08
2.18468e-08
2.24066e-08
2.33526e-08
2.44937e-08
2.55864e-08
2.64046e-08
2.71702e-08
2.81387e-08
2.96955e-08
3.19568e-08
3.38645e-08
3.54047e-08
3.66082e-08
3.79334e-08
4.00769e-08
4.27582e-08
4.59881e-08
4.97543e-08
5.32513e-08
5.63014e-08
6.02792e-08
6.49559e-08
6.91768e-08
7.42254e-08
8.07884e-08
9.05097e-08
1.02076e-07
1.11822e-07
1.20246e-07
1.29373e-07
1.42654e-07
1.61586e-07
1.92371e-07
2.3354e-07
2.67533e-07
3.02869e-07
3.53268e-07
4.11322e-07
4.56166e-07
4.9014e-07
5.32867e-07
6.52773e-07
8.80657e-07
1.08959e-06
8.67606e-07
5.85349e-07
4.92595e-07
4.99931e-07
5.08807e-07
5.20803e-07
4.96211e-07
4.24148e-07
3.9227e-07
3.85358e-07
3.78313e-07
3.81523e-07
3.89897e-07
4.05172e-07
3.96049e-07
3.4952e-07
3.17465e-07
3.12452e-07
3.17563e-07
3.384e-07
3.60023e-07
3.59727e-07
3.48169e-07
3.17124e-07
2.91678e-07
2.854e-07
2.95469e-07
3.24241e-07
3.36956e-07
3.32131e-07
3.16957e-07
2.94561e-07
2.82496e-07
2.8436e-07
2.98837e-07
3.12998e-07
3.10191e-07
2.99736e-07
2.88485e-07
2.80653e-07
2.74864e-07
2.70639e-07
2.73741e-07
2.74556e-07
2.65513e-07
2.58137e-07
2.58389e-07
2.57156e-07
2.48242e-07
2.36336e-07
2.28062e-07
2.24824e-07
2.25484e-07
2.23376e-07
2.16078e-07
2.10343e-07
2.09293e-07
2.12265e-07
2.16239e-07
2.15182e-07
2.1175e-07
2.13821e-07
2.22894e-07
2.34665e-07
2.45387e-07
2.58648e-07
2.73736e-07
2.93716e-07
3.24266e-07
3.62454e-07
4.14761e-07
4.97761e-07
6.22138e-07
7.56913e-07
8.00851e-07
7.1536e-07
5.78874e-07
4.76141e-07
4.17651e-07
3.71048e-07
3.2756e-07
2.93855e-07
2.66727e-07
2.45677e-07
2.29042e-07
2.14219e-07
2.02119e-07
1.94687e-07
1.90416e-07
1.89419e-07
1.8872e-07
1.87151e-07
1.86388e-07
1.86794e-07
1.87639e-07
1.8799e-07
1.89873e-07
1.94955e-07
2.02941e-07
2.1119e-07
2.18902e-07
2.26309e-07
2.36107e-07
2.50024e-07
2.66879e-07
2.85351e-07
3.03905e-07
3.24432e-07
3.51157e-07
3.807e-07
4.09983e-07
4.31075e-07
4.36262e-07
4.37455e-07
4.38481e-07
4.20938e-07
3.83321e-07
3.4106e-07
3.09839e-07
2.84643e-07
2.60759e-07
2.36063e-07
2.13727e-07
1.95412e-07
1.80062e-07
1.67095e-07
1.55714e-07
1.4644e-07
1.37681e-07
1.29985e-07
1.21635e-07
1.14562e-07
1.08846e-07
1.0469e-07
1.00242e-07
9.55855e-08
9.13175e-08
8.82439e-08
8.55478e-08
8.30924e-08
8.03201e-08
7.75585e-08
7.5152e-08
7.33954e-08
7.18021e-08
7.10264e-08
6.95762e-08
6.75184e-08
6.57426e-08
6.50491e-08
6.36714e-08
6.66396e-08
6.60341e-08
6.12034e-08
5.86993e-08
5.58371e-08
5.47892e-08
5.38861e-08
8.06293e-08
9.24871e-08
5.0222e-08
4.24406e-08
3.03553e-08
3.09004e-08
2.00221e-08
1.75424e-08
2.3633e-08
2.82193e-08
3.8685e-08
3.9822e-08
8.13673e-08
9.51332e-08
7.24125e-08
6.57144e-08
5.745e-08
1.18384e-07
1.57678e-07
4.0745e-08
2.92499e-08
2.30195e-08
1.81235e-08
1.55764e-08
1.14451e-08
9.3637e-09
1.15354e-08
1.35632e-08
1.89546e-08
1.99911e-08
3.64466e-08
4.49526e-08
7.73034e-08
9.99342e-08
4.68572e-08
5.4115e-08
4.35216e-08
9.09254e-08
4.97405e-08
7.59868e-08
2.76223e-08
1.31176e-08
9.42385e-09
6.37158e-09
4.76811e-09
3.11952e-09
3.17546e-09
4.15696e-09
4.56657e-09
5.06609e-09
6.40755e-09
1.05481e-08
1.46343e-08
1.98944e-08
2.30219e-08
2.14423e-08
2.09189e-08
2.12873e-08
2.23571e-08
2.33011e-08
2.50235e-08
2.7787e-08
3.11522e-08
3.5034e-08
3.96565e-08
4.48211e-08
5.09636e-08
5.75313e-08
6.5025e-08
7.42336e-08
8.43043e-08
9.46836e-08
1.02519e-07
1.0627e-07
1.10213e-07
1.13127e-07
1.08368e-07
1.01158e-07
9.61221e-08
9.20037e-08
8.67542e-08
8.0447e-08
7.53251e-08
7.13015e-08
6.80518e-08
6.51574e-08
6.27102e-08
6.0348e-08
5.7699e-08
5.48287e-08
5.21956e-08
5.01489e-08
4.84868e-08
4.70655e-08
4.58139e-08
4.46115e-08
4.33635e-08
4.21662e-08
4.13239e-08
4.04262e-08
3.94438e-08
3.8702e-08
3.81918e-08
3.77061e-08
3.71498e-08
3.65713e-08
3.60206e-08
3.55201e-08
3.50747e-08
3.46621e-08
3.42623e-08
3.38795e-08
3.35148e-08
3.31912e-08
3.28807e-08
3.25511e-08
3.2273e-08
3.20952e-08
3.19742e-08
3.18102e-08
3.15581e-08
3.13064e-08
3.12191e-08
3.11277e-08
3.15393e-08
2.95517e-08
3.31261e-08
2.79045e-08
3.45481e-08
2.64568e-08
3.50724e-08
2.62947e-08
2.53738e-08
3.17414e-08
8.59395e-09
2.44563e-08
2.89784e-09
6.83562e-09
3.63828e-09
6.4575e-09
4.03194e-09
5.69347e-09
4.32116e-09
3.15378e-09
3.0966e-09
4.29465e-09
6.87401e-09
1.1933e-08
1.81405e-08
1.88755e-08
3.17654e-08
5.27553e-08
9.00365e-08
9.68456e-08
1.04665e-07
1.15623e-07
1.28574e-07
1.41236e-07
1.52399e-07
1.61004e-07
1.66299e-07
1.68906e-07
1.7374e-07
1.85243e-07
2.02624e-07
2.20139e-07
2.35057e-07
2.40833e-07
2.37803e-07
2.28177e-07
2.15152e-07
2.01563e-07
1.88776e-07
1.77234e-07
1.66841e-07
1.56988e-07
1.4733e-07
1.39262e-07
1.33163e-07
1.29037e-07
1.27e-07
1.0039e-07
6.9565e-08
6.81765e-08
8.81419e-08
1.29411e-07
1.30526e-07
7.75942e-08
5.11005e-08
6.01382e-08
1.04939e-07
1.32035e-07
5.91875e-08
5.51786e-08
1.05495e-07
1.50719e-07
5.3076e-08
2.41324e-08
2.0606e-08
2.36187e-08
2.57307e-08
1.96263e-08
1.96219e-08
3.02497e-08
5.62692e-08
1.06641e-07
1.17181e-07
5.66408e-08
4.80818e-08
3.72887e-08
2.80706e-08
2.57667e-08
3.31031e-08
5.26298e-08
8.87068e-08
1.13604e-07
1.13054e-07
1.14148e-07
1.17098e-07
1.23154e-07
1.31408e-07
1.39108e-07
1.47069e-07
1.53942e-07
1.57129e-07
1.56611e-07
1.53061e-07
1.46095e-07
1.36373e-07
1.25461e-07
1.14537e-07
1.04701e-07
9.67267e-08
9.11879e-08
8.83106e-08
8.80729e-08
8.99604e-08
9.26228e-08
9.47058e-08
9.55361e-08
9.4693e-08
9.22863e-08
8.9382e-08
8.58851e-08
5.84441e-08
3.07369e-08
2.48485e-08
1.72975e-08
1.38697e-08
1.5935e-08
1.81078e-08
2.18124e-08
1.92157e-08
2.69048e-08
1.7947e-08
2.88616e-08
2.10894e-08
4.00481e-08
4.31817e-08
2.70046e-08
1.9841e-08
2.11756e-08
1.79774e-08
2.03445e-08
8.88738e-09
6.51833e-09
1.01562e-08
1.79329e-08
2.50839e-08
2.53684e-08
8.76586e-08
2.8518e-08
2.04385e-08
3.05987e-08
3.13964e-08
4.71004e-08
5.97434e-08
4.35651e-08
3.79505e-08
3.90279e-08
3.80836e-08
4.05673e-08
4.32117e-08
4.44012e-08
4.48311e-08
4.36494e-08
4.26728e-08
4.33591e-08
4.57472e-08
4.7493e-08
4.79198e-08
4.80524e-08
4.88266e-08
5.07241e-08
5.16814e-08
5.21578e-08
5.45684e-08
5.79311e-08
5.97662e-08
6.23226e-08
6.64603e-08
7.00278e-08
7.46147e-08
8.22364e-08
9.40162e-08
1.05573e-07
1.0731e-07
1.12851e-07
1.30663e-07
1.49548e-07
1.51859e-07
1.28179e-07
1.01399e-07
8.64083e-08
7.94052e-08
7.4287e-08
6.70615e-08
5.72827e-08
4.95655e-08
4.38085e-08
3.98956e-08
3.75295e-08
3.49442e-08
3.22919e-08
2.98621e-08
2.80098e-08
2.65639e-08
2.54756e-08
2.45614e-08
2.35571e-08
2.23573e-08
2.13439e-08
2.08526e-08
2.05561e-08
2.02494e-08
1.97693e-08
1.9279e-08
1.91846e-08
1.93261e-08
1.92882e-08
1.90695e-08
1.89111e-08
1.90272e-08
1.94864e-08
2.01062e-08
2.04736e-08
2.0572e-08
2.09125e-08
2.1346e-08
2.19447e-08
2.28898e-08
2.39648e-08
2.49565e-08
2.56266e-08
2.63637e-08
2.73794e-08
2.87067e-08
3.07138e-08
3.268e-08
3.42613e-08
3.58854e-08
3.74437e-08
3.91065e-08
4.1346e-08
4.42472e-08
4.78815e-08
5.14365e-08
5.42021e-08
5.79222e-08
6.30347e-08
6.83604e-08
7.28593e-08
7.80786e-08
8.65195e-08
9.59007e-08
1.05032e-07
1.14038e-07
1.2434e-07
1.38401e-07
1.56986e-07
1.82282e-07
2.08585e-07
2.36164e-07
2.75798e-07
3.23332e-07
3.73531e-07
3.85131e-07