/*--------------------------------*- C++ -*----------------------------------*\
| =========                 |                                                 |
| \\      /  F ield         | OpenFOAM: The Open Source CFD Toolbox           |
|  \\    /   O peration     | Version:  v2006                                 |
|   \\  /    A nd           | Website:  www.openfoam.com                      |
|    \\/     M anipulation  |                                                 |
\*---------------------------------------------------------------------------*/
FoamFile
{
    version     2.0;
    format      ascii;
    class       volScalarField;
    location    "7.6";
    object      p;
}
// * * * * * * * * * * * * * * * * * * * * * * * * * * * * * * * * * * * * * //

dimensions      [1 -1 -2 0 0 0 0];


internalField   nonuniform List<scalar> 
33000
(
7740.47
7748.54
7753.09
7758.94
7764.37
7770.08
7775.78
7781.62
7787.66
7793.9
7800.12
7805.82
7810.63
7814.45
7817.34
7820.04
7823.19
7826.9
7831.18
7835.73
7840.17
7844.73
7849.28
7853.56
7857.66
7861.63
7865.42
7869.09
7872.76
7876.6
7880.53
7884.47
7888.97
7893.42
7897.41
7901.19
7904.84
7908.38
7911.84
7915.21
7918.51
7921.77
7924.97
7928.09
7931.13
7934.11
7936.97
7939.81
7942.59
7945.32
7947.98
7950.57
7953.07
7955.54
7957.96
7960.31
7962.62
7964.87
7967.06
7969.18
7971.25
7973.26
7975.22
7977.13
7979.02
7980.9
7982.74
7984.57
7986.35
7988.12
7989.89
7991.67
7993.5
7995.37
7997.33
7999.4
8001.67
8003.44
8000.79
7993.98
8002.59
8001.38
8002.75
8004.31
8004.47
8004.88
8006.81
8007.77
8008.99
8009.65
8011.07
8011.83
8013.07
8014.32
8015.67
8017.16
8019
8020.46
8023.5
8024.04
8021.81
8022.48
8022.61
8023.05
8023.86
8024.25
8024.53
8025.04
8025.66
8026.75
8027.49
8028.6
8029.54
8030.56
8031.6
8032.67
8034.1
8035.19
8035.77
8037.07
8038.1
8039.23
8040.47
8041.66
8042.77
8044.01
8045.21
8046.49
8047.78
8049.13
8050.42
8051.77
8053.06
8054.39
8055.69
8057
8058.28
8059.51
8060.69
8061.79
8062.84
8063.8
8064.69
8065.48
8066.16
8066.76
8067.25
8067.63
8067.89
8068.01
8067.98
8067.84
8067.56
8067.13
8066.54
8065.79
8064.87
8063.79
8062.54
8061.12
8059.52
8057.75
8055.79
8053.64
8051.33
8048.84
8046.16
8043.31
8040.31
8037.13
8033.79
8030.3
8026.65
8022.88
8018.98
8014.95
8010.79
8006.52
8002.16
7997.73
7993.22
7988.65
7984.02
7979.34
7974.63
7969.89
7965.14
7960.4
7955.66
7950.93
7946.23
7941.55
7936.93
7932.34
7927.8
7923.31
7918.87
7914.47
7910.14
7905.87
7901.66
7897.49
7893.37
7889.3
7885.27
7881.29
7877.34
7873.43
7869.54
7865.68
7861.86
7858.06
7854.27
7850.5
7846.74
7843
7839.29
7835.62
7831.98
7828.39
7824.85
7821.37
7817.95
7814.6
7811.32
7808.11
7804.96
7801.89
7798.88
7795.95
7793.1
7790.32
7787.62
7784.98
7782.41
7779.9
7777.46
7775.08
7772.77
7770.51
7768.32
7766.18
7764.09
7762.06
7760.08
7758.14
7756.25
7754.42
7752.62
7750.86
7749.13
7747.44
7745.79
7744.18
7742.6
7741.05
7739.54
7738.06
7736.61
7735.2
7733.82
7732.47
7731.15
7729.86
7728.61
7727.38
7726.19
7725.03
7723.9
7722.8
7721.73
7720.68
7719.68
7718.7
7717.76
7716.85
7715.97
7715.12
7714.3
7713.52
7712.77
7712.05
7711.37
7710.71
7710.1
7709.51
7708.95
7708.43
7707.94
7707.48
7707.06
7706.67
7706.31
7705.98
7705.68
7705.42
7705.18
7704.98
7704.81
7704.66
7704.55
7704.46
7704.41
7704.38
7704.38
7704.41
7704.46
7704.55
7704.65
7704.78
7704.94
7705.12
7705.33
7705.56
7705.81
7706.09
7706.38
7706.71
7707.05
7707.41
7707.8
7708.21
7708.64
7709.09
7709.56
7710.05
7710.57
7711.11
7711.67
7712.26
7712.87
7713.5
7714.16
7714.84
7715.55
7716.28
7717.04
7717.83
7718.64
7719.48
7720.34
7721.24
7722.16
7723.11
7724.09
7725.09
7726.13
7727.19
7728.28
7729.4
7730.55
7731.73
7732.94
7734.17
7735.44
7736.73
7738.06
7739.41
7740.79
7742.2
7743.63
7745.1
7746.59
7748.1
7749.64
7751.21
7752.81
7754.43
7756.07
7757.74
7759.43
7761.14
7762.88
7764.63
7766.41
7768.21
7770.03
7771.86
7773.72
7775.59
7777.47
7779.38
7781.29
7783.22
7785.17
7787.12
7789.09
7791.06
7793.05
7795.04
7797.04
7799.04
7801.05
7803.07
7805.08
7807.1
7809.12
7811.14
7813.16
7815.18
7817.19
7819.2
7821.2
7823.2
7825.19
7827.18
7829.15
7831.12
7833.07
7835.02
7836.95
7838.87
7840.77
7842.66
7844.53
7846.39
7848.23
7850.05
7851.86
7853.64
7855.41
7857.15
7858.87
7860.56
7862.22
7863.86
7865.46
7867.03
7868.57
7870.04
7871.51
7872.96
7874.33
7875.69
7876.97
7878.23
7879.44
7880.6
7881.72
7882.78
7883.82
7884.78
7885.72
7886.64
7887.5
7888.32
7889.14
7889.72
7890.49
7891.33
7891.98
7892.65
7893.19
7893.74
7894.18
7894.63
7894.99
7895.35
7895.64
7895.89
7896.13
7896.26
7896.39
7896.55
7896.62
7896.61
7896.8
7896.39
7896.4
7896.65
7896.61
7896.4
7896.19
7895.96
7895.7
7895.42
7895.11
7894.79
7894.43
7894.05
7893.64
7893.21
7892.75
7892.27
7891.75
7891.21
7890.64
7890.04
7889.42
7888.77
7888.09
7887.38
7886.65
7885.89
7885.1
7884.29
7883.45
7882.58
7881.69
7880.78
7879.84
7878.88
7877.89
7876.88
7875.85
7874.79
7873.71
7872.61
7871.49
7870.35
7869.19
7868.01
7866.81
7865.59
7864.36
7863.11
7861.84
7860.55
7859.25
7857.94
7856.61
7855.26
7853.91
7852.54
7851.16
7849.76
7848.36
7846.95
7845.52
7844.09
7842.64
7841.19
7839.73
7838.26
7836.79
7835.31
7833.82
7832.32
7830.82
7829.31
7827.8
7826.28
7824.76
7823.23
7821.69
7820.16
7818.62
7817.05
7815.72
7813.46
7544.15
7552.25
7556.78
7562.62
7568.02
7573.66
7579.28
7585.03
7590.93
7596.84
7602.54
7607.55
7611.88
7615.47
7618.48
7621.48
7625.13
7629.61
7634.42
7639.2
7643.97
7648.63
7653.13
7657.41
7661.42
7665.22
7668.79
7672.27
7675.84
7679.63
7683.74
7688.11
7692.65
7697.24
7701.45
7705.31
7708.92
7712.43
7715.91
7719.3
7722.56
7725.8
7728.98
7732.08
7735.14
7738.11
7740.97
7743.83
7746.6
7749.3
7751.97
7754.57
7757.06
7759.51
7761.94
7764.26
7766.55
7768.8
7770.98
7773.09
7775.17
7777.18
7779.15
7781.11
7783.01
7784.86
7786.64
7788.43
7790.19
7791.91
7793.64
7795.35
7797.03
7798.71
7800.38
7801.95
7803.37
7804.69
7805.84
7807.97
7810.47
7807.08
7798.68
7808.03
7808.2
7809.71
7811.47
7811.9
7812.54
7812.7
7814.62
7815.21
7816.74
7817.66
7819.09
7820.01
7821.76
7822.69
7824.45
7824.96
7825.77
7828.28
7828.31
7825.5
7826.53
7826.92
7828.2
7828.89
7830.14
7831.01
7831.33
7832.26
7833.16
7834.14
7835.28
7836.37
7837.48
7838.56
7839.58
7841.14
7842.21
7842.77
7844.05
7845.18
7846.44
7847.78
7849.05
7850.22
7851.52
7852.79
7854.11
7855.47
7856.81
7858.13
7859.46
7860.76
7862.05
7863.27
7864.48
7865.6
7866.67
7867.66
7868.56
7869.37
7870.09
7870.7
7871.2
7871.6
7871.86
7871.99
7871.99
7871.86
7871.59
7871.17
7870.59
7869.85
7868.95
7867.88
7866.64
7865.22
7863.62
7861.85
7859.9
7857.77
7855.46
7852.97
7850.3
7847.45
7844.44
7841.27
7837.93
7834.43
7830.79
7827.01
7823.1
7819.07
7814.91
7810.64
7806.28
7801.83
7797.31
7792.74
7788.1
7783.42
7778.7
7773.95
7769.19
7764.44
7759.69
7754.96
7750.25
7745.57
7740.92
7736.32
7731.77
7727.27
7722.81
7718.42
7714.07
7709.79
7705.55
7701.37
7697.24
7693.16
7689.12
7685.12
7681.16
7677.24
7673.35
7669.48
7665.65
7661.83
7658.04
7654.26
7650.49
7646.75
7643.03
7639.35
7635.71
7632.11
7628.57
7625.08
7621.66
7618.3
7615.01
7611.79
7608.65
7605.57
7602.57
7599.64
7596.79
7594.01
7591.3
7588.66
7586.09
7583.58
7581.14
7578.77
7576.46
7574.21
7572.02
7569.88
7567.8
7565.77
7563.79
7561.86
7559.97
7558.13
7556.33
7554.57
7552.84
7551.16
7549.51
7547.9
7546.32
7544.77
7543.26
7541.78
7540.33
7538.92
7537.54
7536.19
7534.87
7533.58
7532.33
7531.1
7529.91
7528.75
7527.61
7526.51
7525.44
7524.4
7523.39
7522.41
7521.47
7520.56
7519.68
7518.83
7518.01
7517.23
7516.48
7515.76
7515.08
7514.42
7513.8
7513.22
7512.66
7512.14
7511.65
7511.2
7510.77
7510.38
7510.02
7509.69
7509.4
7509.13
7508.9
7508.69
7508.52
7508.38
7508.27
7508.18
7508.13
7508.1
7508.1
7508.13
7508.19
7508.27
7508.37
7508.51
7508.67
7508.85
7509.06
7509.29
7509.54
7509.82
7510.12
7510.44
7510.78
7511.15
7511.53
7511.94
7512.37
7512.82
7513.3
7513.79
7514.31
7514.85
7515.41
7516
7516.61
7517.24
7517.9
7518.58
7519.29
7520.02
7520.78
7521.57
7522.38
7523.22
7524.09
7524.98
7525.9
7526.85
7527.83
7528.83
7529.87
7530.93
7532.03
7533.15
7534.3
7535.47
7536.68
7537.92
7539.18
7540.48
7541.8
7543.15
7544.53
7545.94
7547.38
7548.84
7550.33
7551.85
7553.39
7554.96
7556.55
7558.17
7559.81
7561.48
7563.17
7564.88
7566.62
7568.38
7570.15
7571.95
7573.77
7575.61
7577.46
7579.33
7581.22
7583.12
7585.04
7586.97
7588.92
7590.87
7592.84
7594.82
7596.8
7598.8
7600.8
7602.8
7604.82
7606.83
7608.85
7610.87
7612.89
7614.91
7616.94
7618.95
7620.97
7622.98
7624.99
7626.99
7628.99
7630.97
7632.95
7634.92
7636.88
7638.83
7640.76
7642.68
7644.59
7646.49
7648.36
7650.23
7652.07
7653.9
7655.7
7657.49
7659.26
7661
7662.73
7664.42
7666.1
7667.73
7669.33
7670.89
7672.46
7673.94
7675.41
7676.84
7678.21
7679.58
7680.86
7682.15
7683.32
7684.5
7685.59
7686.66
7687.72
7688.7
7689.65
7690.55
7691.23
7692.04
7693.02
7693.74
7694.58
7695.27
7695.93
7696.55
7697.1
7697.65
7698.09
7698.55
7698.9
7699.27
7699.49
7699.77
7700.02
7700.24
7700.33
7700.6
7700.12
7700.22
7700.62
7700.68
7700.55
7700.45
7700.36
7700.21
7700.02
7699.8
7699.55
7699.27
7698.97
7698.65
7698.29
7697.92
7697.51
7697.08
7696.62
7696.13
7695.62
7695.08
7694.51
7693.91
7693.28
7692.63
7691.95
7691.25
7690.51
7689.75
7688.96
7688.15
7687.31
7686.45
7685.55
7684.64
7683.7
7682.73
7681.75
7680.73
7679.7
7678.64
7677.56
7676.46
7675.34
7674.2
7673.04
7671.85
7670.65
7669.43
7668.2
7666.94
7665.67
7664.39
7663.09
7661.77
7660.44
7659.09
7657.74
7656.37
7654.98
7653.59
7652.18
7650.77
7649.34
7647.91
7646.46
7645.01
7643.55
7642.08
7640.6
7639.12
7637.63
7636.14
7634.63
7633.13
7631.61
7630.09
7628.57
7627.03
7625.5
7623.97
7622.42
7620.85
7619.53
7617.27
7347.64
7355.76
7360.28
7366.13
7371.49
7377.1
7382.64
7388.17
7394.18
7399.55
7404.61
7409.23
7413.23
7416.43
7419.14
7422.11
7426.05
7431.18
7436.92
7442.58
7447.93
7452.85
7457.39
7461.59
7465.56
7469.32
7472.88
7476.32
7479.82
7483.45
7487.52
7491.93
7496.5
7501.02
7505.22
7509.1
7512.83
7516.39
7519.91
7523.38
7526.71
7529.96
7533.14
7536.25
7539.32
7542.28
7545.15
7548
7550.78
7553.45
7556.11
7558.7
7561.19
7563.63
7566.04
7568.37
7570.63
7572.86
7575.03
7577.16
7579.24
7581.25
7583.23
7585.18
7587.07
7588.93
7590.69
7592.41
7594.1
7595.77
7597.44
7599.13
7600.73
7602.32
7603.91
7605.39
7606.73
7607.9
7608.75
7609.42
7610.48
7611.93
7614.85
7617.52
7613.45
7603.68
7613.82
7615.71
7618.63
7617.39
7618.97
7619.27
7619.46
7621.28
7622.23
7623.65
7624.93
7626.04
7627.08
7628.18
7628.39
7629.41
7629.81
7630.58
7634.2
7633.5
7630.61
7631.37
7631.75
7633.64
7634.34
7636.38
7637.11
7637.88
7638.7
7639.8
7640.88
7642.11
7643.19
7644.24
7645.37
7646.48
7648.16
7649.33
7649.85
7651.24
7652.4
7653.78
7655.22
7656.64
7657.81
7659.26
7660.47
7661.94
7663.25
7664.66
7665.97
7667.21
7668.43
7669.54
7670.62
7671.62
7672.56
7673.39
7674.14
7674.78
7675.31
7675.71
7676
7676.15
7676.19
7676.09
7675.84
7675.43
7674.87
7674.15
7673.28
7672.24
7671.02
7669.61
7668.02
7666.26
7664.33
7662.21
7659.91
7657.43
7654.76
7651.92
7648.91
7645.73
7642.39
7638.89
7635.25
7631.46
7627.54
7623.49
7619.33
7615.06
7610.68
7606.23
7601.69
7597.09
7592.44
7587.74
7583.01
7578.25
7573.47
7568.69
7563.93
7559.19
7554.46
7549.76
7545.09
7540.46
7535.88
7531.36
7526.89
7522.47
7518.09
7513.78
7509.52
7505.31
7501.15
7497.05
7492.99
7488.97
7484.98
7481.03
7477.12
7473.24
7469.38
7465.55
7461.73
7457.94
7454.16
7450.41
7446.68
7442.98
7439.33
7435.72
7432.17
7428.67
7425.24
7421.88
7418.58
7415.35
7412.2
7409.13
7406.13
7403.2
7400.34
7397.56
7394.85
7392.21
7389.64
7387.14
7384.71
7382.35
7380.05
7377.81
7375.62
7373.49
7371.4
7369.38
7367.4
7365.47
7363.59
7361.75
7359.95
7358.18
7356.46
7354.79
7353.14
7351.53
7349.95
7348.4
7346.89
7345.41
7343.97
7342.56
7341.18
7339.83
7338.51
7337.22
7335.96
7334.74
7333.54
7332.37
7331.24
7330.14
7329.06
7328.03
7327.02
7326.04
7325.09
7324.18
7323.3
7322.45
7321.63
7320.85
7320.1
7319.38
7318.69
7318.04
7317.42
7316.83
7316.28
7315.76
7315.27
7314.82
7314.39
7314
7313.64
7313.32
7313.02
7312.76
7312.53
7312.33
7312.15
7312.01
7311.9
7311.82
7311.76
7311.74
7311.74
7311.77
7311.83
7311.91
7312.02
7312.16
7312.32
7312.5
7312.71
7312.94
7313.2
7313.48
7313.78
7314.1
7314.45
7314.81
7315.2
7315.61
7316.04
7316.5
7316.97
7317.47
7317.99
7318.53
7319.09
7319.68
7320.29
7320.93
7321.59
7322.27
7322.98
7323.71
7324.47
7325.26
7326.07
7326.91
7327.77
7328.67
7329.59
7330.54
7331.52
7332.52
7333.56
7334.62
7335.71
7336.83
7337.98
7339.16
7340.37
7341.61
7342.87
7344.17
7345.49
7346.84
7348.22
7349.63
7351.06
7352.53
7354.01
7355.53
7357.07
7358.64
7360.24
7361.85
7363.5
7365.16
7366.86
7368.57
7370.3
7372.06
7373.84
7375.64
7377.46
7379.3
7381.15
7383.02
7384.91
7386.82
7388.74
7390.67
7392.62
7394.58
7396.55
7398.53
7400.51
7402.51
7404.51
7406.52
7408.54
7410.56
7412.58
7414.61
7416.64
7418.66
7420.69
7422.72
7424.74
7426.76
7428.77
7430.78
7432.78
7434.77
7436.76
7438.73
7440.7
7442.65
7444.6
7446.52
7448.44
7450.34
7452.23
7454.1
7455.94
7457.78
7459.59
7461.39
7463.16
7464.93
7466.65
7468.34
7470.01
7471.68
7473.28
7474.85
7476.39
7477.88
7479.35
7480.78
7482.17
7483.53
7484.81
7486.07
7487.32
7488.48
7489.65
7490.7
7491.77
7492.54
7493.5
7494.57
7495.44
7496.35
7497.15
7497.88
7498.63
7499.32
7500
7500.61
7501.18
7501.69
7502.12
7502.5
7502.86
7503.25
7503.59
7503.8
7504.22
7503.76
7504.03
7504.53
7504.67
7504.59
7504.52
7504.48
7504.39
7504.3
7504.21
7504.07
7503.89
7503.69
7503.45
7503.18
7502.89
7502.57
7502.22
7501.84
7501.44
7501.01
7500.55
7500.06
7499.55
7499.01
7498.44
7497.84
7497.22
7496.57
7495.89
7495.18
7494.44
7493.68
7492.89
7492.08
7491.24
7490.37
7489.48
7488.56
7487.62
7486.65
7485.66
7484.65
7483.61
7482.55
7481.47
7480.36
7479.24
7478.09
7476.93
7475.74
7474.54
7473.32
7472.08
7470.82
7469.55
7468.26
7466.96
7465.64
7464.3
7462.96
7461.6
7460.22
7458.84
7457.44
7456.03
7454.61
7453.19
7451.75
7450.3
7448.85
7447.38
7445.91
7444.43
7442.95
7441.46
7439.96
7438.46
7436.95
7435.43
7433.91
7432.39
7430.85
7429.32
7427.78
7426.24
7424.67
7423.34
7421.09
7151.05
7159.2
7163.71
7169.56
7174.86
7180.45
7185.85
7191.49
7196.94
7202.14
7206.95
7211.4
7215.52
7219.3
7222.88
7226.65
7230.99
7236.01
7241.35
7246.71
7251.94
7256.91
7261.44
7265.65
7269.65
7273.52
7277.31
7281.05
7284.91
7289.04
7293.16
7297.39
7301.64
7305.82
7309.84
7313.62
7317.25
7320.8
7324.3
7327.76
7331.14
7334.36
7337.49
7340.59
7343.66
7346.62
7349.5
7352.33
7355.09
7357.76
7360.4
7362.97
7365.47
7367.9
7370.29
7372.64
7374.87
7377.08
7379.24
7381.36
7383.42
7385.45
7387.42
7389.33
7391.19
7392.99
7394.76
7396.47
7398.13
7399.73
7401.35
7402.95
7404.5
7405.99
7407.45
7408.84
7410.09
7411.27
7412.36
7413.41
7414.38
7415.03
7415.34
7416.15
7417.37
7419.53
7423.04
7425.21
7421.14
7410.54
7422.58
7423.2
7423.81
7424.84
7425.49
7425.6
7427.54
7428.36
7429.56
7430.37
7431.08
7431.79
7432.7
7432.51
7433.56
7433.08
7435.09
7436.43
7439.51
7439.94
7437.23
7438.6
7439.6
7440.95
7442.68
7443.68
7444.34
7445.28
7446.35
7447.55
7448.8
7450.03
7451.05
7452.32
7453.48
7455.35
7456.58
7457.1
7458.55
7459.78
7461.2
7462.76
7464.19
7465.48
7466.89
7468.2
7469.58
7470.86
7472.19
7473.39
7474.52
7475.58
7476.54
7477.44
7478.23
7478.93
7479.5
7479.95
7480.27
7480.48
7480.56
7480.5
7480.29
7479.92
7479.4
7478.72
7477.88
7476.87
7475.68
7474.31
7472.75
7471.01
7469.09
7466.99
7464.7
7462.22
7459.56
7456.73
7453.72
7450.54
7447.2
7443.7
7440.04
7436.24
7432.3
7428.24
7424.06
7419.78
7415.38
7410.91
7406.36
7401.74
7397.06
7392.33
7387.57
7382.79
7377.99
7373.18
7368.39
7363.61
7358.85
7354.12
7349.42
7344.76
7340.14
7335.57
7331.06
7326.6
7322.19
7317.83
7313.53
7309.29
7305.1
7300.95
7296.85
7292.79
7288.77
7284.79
7280.84
7276.93
7273.04
7269.17
7265.33
7261.51
7257.72
7253.94
7250.2
7246.49
7242.82
7239.2
7235.64
7232.13
7228.69
7225.32
7222.01
7218.78
7215.62
7212.54
7209.54
7206.62
7203.77
7200.99
7198.28
7195.64
7193.08
7190.59
7188.17
7185.81
7183.52
7181.28
7179.1
7176.98
7174.9
7172.88
7170.91
7168.99
7167.11
7165.27
7163.47
7161.71
7160
7158.32
7156.68
7155.07
7153.5
7151.95
7150.45
7148.97
7147.53
7146.11
7144.73
7143.38
7142.06
7140.77
7139.51
7138.28
7137.08
7135.91
7134.78
7133.67
7132.6
7131.56
7130.55
7129.57
7128.62
7127.71
7126.82
7125.97
7125.16
7124.37
7123.62
7122.91
7122.22
7121.56
7120.94
7120.36
7119.81
7119.29
7118.8
7118.34
7117.92
7117.53
7117.17
7116.85
7116.56
7116.3
7116.07
7115.87
7115.7
7115.56
7115.45
7115.37
7115.32
7115.29
7115.3
7115.33
7115.39
7115.48
7115.59
7115.73
7115.89
7116.08
7116.29
7116.53
7116.79
7117.07
7117.37
7117.7
7118.04
7118.41
7118.8
7119.22
7119.65
7120.11
7120.59
7121.09
7121.61
7122.15
7122.72
7123.3
7123.92
7124.55
7125.21
7125.9
7126.61
7127.34
7128.1
7128.89
7129.7
7130.54
7131.41
7132.3
7133.22
7134.17
7135.15
7136.16
7137.19
7138.25
7139.35
7140.47
7141.62
7142.79
7144
7145.24
7146.5
7147.8
7149.12
7150.47
7151.85
7153.26
7154.69
7156.15
7157.64
7159.16
7160.7
7162.27
7163.86
7165.48
7167.13
7168.79
7170.48
7172.2
7173.93
7175.69
7177.47
7179.27
7181.09
7182.93
7184.79
7186.66
7188.55
7190.46
7192.38
7194.32
7196.27
7198.23
7200.2
7202.19
7204.18
7206.18
7208.19
7210.2
7212.23
7214.25
7216.28
7218.31
7220.35
7222.38
7224.42
7226.45
7228.48
7230.51
7232.53
7234.55
7236.56
7238.56
7240.56
7242.55
7244.52
7246.49
7248.44
7250.38
7252.31
7254.22
7256.12
7258
7259.87
7261.71
7263.55
7265.35
7267.14
7268.89
7270.65
7272.35
7274.03
7275.67
7277.29
7278.88
7280.43
7281.95
7283.42
7284.86
7286.23
7287.65
7288.91
7290.29
7291.42
7292.62
7293.54
7294.62
7295.82
7296.8
7297.84
7298.72
7299.59
7300.42
7301.26
7302.02
7302.79
7303.46
7304.15
7304.67
7305.24
7305.81
7306.25
7306.73
7307.04
7307.63
7307.18
7307.62
7308.23
7308.44
7308.42
7308.42
7308.42
7308.41
7308.4
7308.39
7308.34
7308.26
7308.16
7308.02
7307.85
7307.65
7307.42
7307.16
7306.88
7306.56
7306.21
7305.84
7305.44
7305.01
7304.55
7304.07
7303.55
7303.01
7302.44
7301.85
7301.22
7300.57
7299.89
7299.18
7298.44
7297.68
7296.89
7296.07
7295.23
7294.36
7293.46
7292.54
7291.6
7290.63
7289.63
7288.61
7287.57
7286.51
7285.42
7284.32
7283.19
7282.04
7280.87
7279.68
7278.47
7277.25
7276
7274.74
7273.46
7272.17
7270.86
7269.54
7268.2
7266.85
7265.48
7264.11
7262.72
7261.32
7259.9
7258.48
7257.05
7255.61
7254.16
7252.7
7251.23
7249.76
7248.28
7246.79
7245.3
7243.8
7242.29
7240.78
7239.26
7237.74
7236.21
7234.68
7233.14
7231.61
7230.06
7228.49
7227.16
7224.91
6954.34
6962.55
6967.05
6972.91
6978.15
6983.69
6988.92
6995
7000.08
7005.08
7009.89
7014.5
7018.91
7023.23
7027.56
7031.98
7036.59
7041.43
7046.4
7051.4
7056.27
7060.95
7065.43
7069.71
7073.87
7077.92
7081.91
7085.89
7089.91
7093.97
7098.04
7102.14
7106.29
7110.32
7114.22
7117.98
7121.64
7125.25
7128.8
7132.24
7135.6
7138.83
7141.97
7145.06
7148.11
7151.07
7153.96
7156.78
7159.52
7162.19
7164.82
7167.39
7169.88
7172.31
7174.67
7176.98
7179.23
7181.41
7183.57
7185.68
7187.72
7189.73
7191.67
7193.56
7195.4
7197.17
7198.92
7200.61
7202.23
7203.8
7205.36
7206.86
7208.36
7209.77
7211.13
7212.47
7213.72
7214.87
7215.93
7216.92
7217.84
7218.76
7219.77
7220.78
7221.49
7222.05
7222.84
7223.76
7225.01
7228.27
7231.68
7226.79
7215.11
7228.37
7229.88
7229.8
7231.31
7231.06
7231.4
7233.32
7233.81
7234.86
7235.48
7236.2
7236.99
7237.7
7238.1
7238.96
7239.5
7240.95
7242.06
7246.7
7246.34
7243.27
7244.57
7245.87
7247.23
7249.11
7250.12
7250.74
7251.72
7252.89
7254.19
7255.55
7256.89
7257.97
7259.38
7260.63
7262.7
7264.11
7264.58
7266.4
7267.49
7269.25
7270.62
7272.3
7273.72
7274.93
7276.27
7277.4
7278.59
7279.69
7280.73
7281.65
7282.51
7283.22
7283.84
7284.34
7284.72
7284.99
7285.12
7285.11
7284.95
7284.63
7284.16
7283.53
7282.73
7281.75
7280.6
7279.27
7277.75
7276.04
7274.15
7272.07
7269.8
7267.34
7264.69
7261.87
7258.86
7255.68
7252.34
7248.83
7245.16
7241.35
7237.4
7233.31
7229.11
7224.8
7220.38
7215.88
7211.3
7206.65
7201.93
7197.17
7192.38
7187.56
7182.72
7177.88
7173.04
7168.22
7163.41
7158.64
7153.89
7149.18
7144.51
7139.89
7135.32
7130.81
7126.35
7121.93
7117.58
7113.28
7109.03
7104.83
7100.67
7096.56
7092.49
7088.46
7084.47
7080.51
7076.58
7072.68
7068.8
7064.95
7061.13
7057.34
7053.57
7049.84
7046.16
7042.53
7038.95
7035.44
7031.99
7028.61
7025.3
7022.06
7018.9
7015.82
7012.82
7009.9
7007.05
7004.28
7001.58
6998.96
6996.4
6993.92
6991.51
6989.16
6986.87
6984.64
6982.47
6980.36
6978.29
6976.28
6974.32
6972.4
6970.53
6968.69
6966.9
6965.15
6963.44
6961.77
6960.13
6958.53
6956.96
6955.42
6953.91
6952.44
6950.99
6949.58
6948.19
6946.84
6945.52
6944.23
6942.97
6941.74
6940.54
6939.37
6938.23
6937.12
6936.05
6935
6933.99
6933.01
6932.06
6931.15
6930.26
6929.41
6928.59
6927.81
6927.06
6926.34
6925.65
6925
6924.38
6923.79
6923.24
6922.72
6922.23
6921.78
6921.36
6920.97
6920.62
6920.29
6920
6919.75
6919.52
6919.32
6919.16
6919.02
6918.92
6918.84
6918.79
6918.77
6918.78
6918.82
6918.88
6918.97
6919.09
6919.23
6919.4
6919.59
6919.8
6920.04
6920.31
6920.59
6920.9
6921.23
6921.58
6921.95
6922.35
6922.76
6923.2
6923.66
6924.14
6924.64
6925.17
6925.71
6926.28
6926.87
6927.49
6928.12
6928.78
6929.47
6930.18
6930.92
6931.68
6932.46
6933.28
6934.12
6934.98
6935.88
6936.8
6937.75
6938.73
6939.73
6940.77
6941.83
6942.92
6944.04
6945.19
6946.37
6947.58
6948.82
6950.08
6951.37
6952.7
6954.05
6955.43
6956.83
6958.27
6959.73
6961.22
6962.73
6964.27
6965.84
6967.43
6969.05
6970.7
6972.36
6974.05
6975.77
6977.51
6979.26
6981.04
6982.85
6984.67
6986.51
6988.37
6990.24
6992.14
6994.05
6995.97
6997.91
6999.86
7001.83
7003.81
7005.8
7007.8
7009.81
7011.82
7013.85
7015.87
7017.91
7019.95
7021.99
7024.04
7026.08
7028.13
7030.17
7032.22
7034.26
7036.3
7038.32
7040.36
7042.36
7044.38
7046.37
7048.37
7050.34
7052.31
7054.26
7056.21
7058.14
7060.05
7061.96
7063.82
7065.69
7067.51
7069.35
7071.14
7072.91
7074.65
7076.37
7078.07
7079.74
7081.38
7082.98
7084.52
7086.04
7087.54
7088.99
7090.43
7091.78
7092.96
7094.22
7095.59
7096.75
7097.98
7099.01
7100.1
7101.03
7102.04
7102.97
7103.88
7104.77
7105.57
7106.38
7107.04
7107.74
7108.46
7109.04
7109.73
7110.25
7110.58
7110.38
7110.92
7111.67
7111.97
7112.02
7112.09
7112.18
7112.25
7112.32
7112.39
7112.43
7112.43
7112.41
7112.36
7112.28
7112.18
7112.05
7111.88
7111.69
7111.46
7111.21
7110.93
7110.62
7110.28
7109.91
7109.51
7109.08
7108.62
7108.14
7107.63
7107.09
7106.52
7105.92
7105.29
7104.64
7103.96
7103.25
7102.51
7101.74
7100.95
7100.13
7099.28
7098.41
7097.51
7096.59
7095.64
7094.66
7093.66
7092.64
7091.59
7090.52
7089.43
7088.32
7087.19
7086.03
7084.86
7083.66
7082.45
7081.22
7079.97
7078.7
7077.42
7076.12
7074.8
7073.47
7072.13
7070.77
7069.4
7068.02
7066.62
7065.22
7063.8
7062.37
7060.94
7059.49
7058.04
7056.57
7055.1
7053.62
7052.14
7050.65
7049.15
7047.65
7046.14
7044.62
7043.11
7041.58
7040.05
7038.51
7036.98
7035.44
7033.9
7032.32
7030.99
7028.74
6757.56
6765.83
6770.34
6776.25
6781.49
6787.1
6792.47
6798.04
6803.24
6808.28
6813.18
6817.96
6822.6
6827.19
6831.82
6836.51
6841.27
6846.08
6850.91
6855.72
6860.46
6865.08
6869.57
6873.95
6878.22
6882.43
6886.58
6890.71
6894.82
6898.95
6903.07
6907.17
6911.16
6915.09
6918.93
6922.69
6926.39
6930.01
6933.53
6936.94
6940.25
6943.46
6946.59
6949.68
6952.72
6955.67
6958.56
6961.37
6964.09
6966.76
6969.38
6971.93
6974.42
6976.85
6979.2
6981.46
6983.69
6985.86
6988.01
6990.1
6992.14
6994.11
6996.03
6997.9
6999.71
7001.48
7003.21
7004.86
7006.44
7007.96
7009.45
7010.91
7012.3
7013.66
7014.96
7016.24
7017.45
7018.57
7019.6
7020.58
7021.54
7022.47
7023.4
7024.27
7025.1
7025.97
7026.97
7027.98
7028.55
7028.83
7029.37
7030.17
7033.6
7037.58
7032.49
7019.96
7033.78
7035.91
7034.93
7036.24
7036.2
7035.8
7037.86
7038.04
7039.18
7039.53
7040.65
7041.38
7042.71
7043.93
7044.51
7045.76
7046.51
7047.96
7052.85
7052.42
7049.07
7050.56
7052.06
7053.52
7055.61
7056.71
7057.35
7058.41
7059.69
7061.07
7062.56
7063.97
7065.11
7066.64
7067.9
7070.21
7071.6
7072.29
7073.95
7075.33
7076.93
7078.33
7080.01
7081.4
7082.57
7083.78
7084.78
7085.8
7086.74
7087.57
7088.26
7088.85
7089.29
7089.63
7089.84
7089.91
7089.81
7089.57
7089.16
7088.6
7087.86
7086.95
7085.85
7084.57
7083.1
7081.43
7079.57
7077.51
7075.26
7072.81
7070.18
7067.36
7064.36
7061.18
7057.82
7054.31
7050.63
7046.8
7042.82
7038.71
7034.48
7030.13
7025.69
7021.16
7016.54
7011.84
7007.08
7002.27
6997.43
6992.57
6987.68
6982.79
6977.89
6973
6968.13
6963.3
6958.49
6953.72
6948.98
6944.28
6939.64
6935.05
6930.52
6926.04
6921.61
6917.24
6912.91
6908.64
6904.41
6900.24
6896.11
6892.02
6887.97
6883.96
6879.97
6876.03
6872.11
6868.23
6864.37
6860.55
6856.77
6853.02
6849.32
6845.68
6842.09
6838.57
6835.11
6831.73
6828.42
6825.18
6822.02
6818.94
6815.95
6813.03
6810.19
6807.43
6804.74
6802.13
6799.59
6797.12
6794.71
6792.38
6790.1
6787.88
6785.73
6783.63
6781.58
6779.58
6777.63
6775.72
6773.85
6772.03
6770.25
6768.5
6766.8
6765.14
6763.5
6761.9
6760.34
6758.8
6757.3
6755.82
6754.38
6752.96
6751.58
6750.22
6748.9
6747.6
6746.34
6745.11
6743.9
6742.73
6741.59
6740.48
6739.4
6738.36
6737.34
6736.36
6735.41
6734.49
6733.6
6732.75
6731.93
6731.14
6730.39
6729.67
6728.98
6728.33
6727.71
6727.12
6726.57
6726.05
6725.57
6725.12
6724.7
6724.31
6723.96
6723.64
6723.35
6723.1
6722.88
6722.68
6722.52
6722.39
6722.29
6722.22
6722.18
6722.17
6722.18
6722.22
6722.29
6722.39
6722.51
6722.65
6722.82
6723.02
6723.24
6723.49
6723.76
6724.04
6724.36
6724.69
6725.04
6725.42
6725.82
6726.24
6726.68
6727.15
6727.63
6728.14
6728.67
6729.21
6729.79
6730.38
6731
6731.63
6732.3
6732.99
6733.7
6734.43
6735.19
6735.98
6736.8
6737.64
6738.5
6739.4
6740.32
6741.27
6742.25
6743.25
6744.29
6745.35
6746.44
6747.57
6748.72
6749.89
6751.1
6752.34
6753.6
6754.89
6756.21
6757.56
6758.94
6760.35
6761.78
6763.24
6764.73
6766.24
6767.79
6769.35
6770.95
6772.56
6774.21
6775.88
6777.57
6779.28
6781.02
6782.78
6784.56
6786.37
6788.19
6790.03
6791.89
6793.77
6795.67
6797.58
6799.51
6801.46
6803.41
6805.38
6807.37
6809.36
6811.37
6813.39
6815.41
6817.44
6819.48
6821.53
6823.58
6825.63
6827.69
6829.75
6831.81
6833.87
6835.92
6837.98
6840.03
6842.08
6844.12
6846.16
6848.17
6850.2
6852.2
6854.2
6856.19
6858.17
6860.15
6862.09
6864.01
6865.92
6867.81
6869.68
6871.52
6873.36
6875.19
6876.99
6878.77
6880.52
6882.23
6883.91
6885.55
6887.19
6888.77
6890.36
6891.84
6893.18
6894.56
6896.06
6897.34
6898.69
6899.84
6901.07
6902.16
6903.28
6904.35
6905.39
6906.41
6907.32
6908.28
6909.02
6909.89
6910.66
6911.51
6912.12
6913.12
6912.86
6913.71
6914.54
6914.92
6915.12
6915.31
6915.49
6915.68
6915.84
6916.01
6916.16
6916.29
6916.39
6916.45
6916.49
6916.5
6916.48
6916.44
6916.37
6916.27
6916.14
6915.98
6915.79
6915.58
6915.33
6915.05
6914.74
6914.41
6914.04
6913.64
6913.22
6912.77
6912.28
6911.77
6911.23
6910.66
6910.06
6909.43
6908.78
6908.09
6907.38
6906.64
6905.87
6905.08
6904.25
6903.4
6902.53
6901.62
6900.69
6899.74
6898.76
6897.75
6896.72
6895.67
6894.59
6893.5
6892.38
6891.23
6890.07
6888.89
6887.69
6886.47
6885.23
6883.97
6882.7
6881.41
6880.1
6878.78
6877.44
6876.09
6874.72
6873.35
6871.96
6870.56
6869.14
6867.72
6866.29
6864.84
6863.39
6861.93
6860.46
6858.99
6857.5
6856.01
6854.52
6853.02
6851.51
6850
6848.48
6846.96
6845.43
6843.9
6842.36
6840.82
6839.28
6837.73
6836.16
6834.83
6832.58
6560.7
6569.04
6573.58
6579.55
6584.81
6590.49
6595.89
6601.37
6606.57
6611.66
6616.66
6621.58
6626.41
6631.24
6636.07
6640.92
6645.76
6650.59
6655.39
6660.14
6664.84
6669.45
6673.98
6678.42
6682.77
6687.07
6691.31
6695.52
6699.69
6703.84
6707.96
6712.01
6715.99
6719.88
6723.71
6727.47
6731.17
6734.79
6738.31
6741.71
6745
6748.2
6751.35
6754.44
6757.47
6760.42
6763.3
6766.1
6768.82
6771.47
6774.08
6776.61
6779.1
6781.51
6783.86
6786.11
6788.29
6790.48
6792.57
6794.63
6796.65
6798.6
6800.5
6802.35
6804.15
6805.89
6807.55
6809.18
6810.75
6812.23
6813.64
6815.01
6816.35
6817.66
6818.91
6820.12
6821.28
6822.41
6823.42
6824.39
6825.32
6826.23
6827.12
6827.98
6828.84
6829.69
6830.51
6831.28
6831.97
6832.64
6833.35
6833.94
6834.38
6834.87
6835.44
6839.11
6843.04
6837.59
6824.27
6838.8
6841.81
6839.68
6840.96
6841.06
6840.65
6842.48
6843.27
6844.13
6845.44
6845.98
6847.25
6848.24
6849.62
6850.05
6851.38
6852.04
6853.7
6859.12
6858.53
6854.85
6856.49
6858.14
6859.75
6862.04
6863.31
6863.84
6865.21
6866.42
6868.24
6869.85
6871.44
6873.22
6874.53
6876.46
6877.95
6880.26
6881.81
6882.31
6884.02
6885.08
6886.56
6887.99
6889.28
6890.22
6891.25
6892.02
6892.81
6893.49
6894.06
6894.48
6894.77
6894.88
6894.86
6894.7
6894.39
6893.9
6893.23
6892.37
6891.33
6890.1
6888.7
6887.08
6885.27
6883.25
6881.03
6878.61
6876
6873.2
6870.2
6867.02
6863.65
6860.12
6856.43
6852.58
6848.58
6844.44
6840.17
6835.79
6831.31
6826.73
6822.05
6817.3
6812.49
6807.62
6802.72
6797.8
6792.85
6787.89
6782.91
6777.94
6773
6768.08
6763.19
6758.33
6753.51
6748.72
6743.99
6739.31
6734.68
6730.11
6725.59
6721.12
6716.71
6712.35
6708.04
6703.78
6699.58
6695.42
6691.3
6687.22
6683.18
6679.19
6675.23
6671.3
6667.42
6663.57
6659.76
6656
6652.29
6648.63
6645.04
6641.51
6638.05
6634.66
6631.35
6628.12
6624.97
6621.9
6618.91
6615.99
6613.17
6610.42
6607.75
6605.15
6602.63
6600.17
6597.79
6595.46
6593.21
6591.01
6588.87
6586.78
6584.75
6582.76
6580.83
6578.94
6577.08
6575.28
6573.51
6571.77
6570.08
6568.41
6566.79
6565.19
6563.63
6562.1
6560.6
6559.12
6557.67
6556.26
6554.87
6553.52
6552.19
6550.89
6549.63
6548.39
6547.18
6546.01
6544.86
6543.75
6542.67
6541.62
6540.6
6539.61
6538.66
6537.74
6536.85
6535.99
6535.17
6534.38
6533.63
6532.91
6532.22
6531.57
6530.95
6530.36
6529.81
6529.29
6528.81
6528.36
6527.95
6527.56
6527.21
6526.9
6526.61
6526.36
6526.14
6525.96
6525.8
6525.68
6525.58
6525.52
6525.48
6525.47
6525.5
6525.54
6525.62
6525.72
6525.85
6526
6526.18
6526.38
6526.61
6526.86
6527.13
6527.43
6527.75
6528.09
6528.45
6528.83
6529.24
6529.66
6530.11
6530.58
6531.07
6531.58
6532.11
6532.66
6533.24
6533.83
6534.45
6535.09
6535.76
6536.45
6537.16
6537.9
6538.66
6539.45
6540.26
6541.1
6541.97
6542.87
6543.79
6544.74
6545.72
6546.72
6547.76
6548.82
6549.91
6551.03
6552.18
6553.36
6554.57
6555.8
6557.07
6558.36
6559.68
6561.03
6562.4
6563.81
6565.24
6566.7
6568.19
6569.7
6571.24
6572.81
6574.4
6576.02
6577.66
6579.33
6581.02
6582.74
6584.48
6586.24
6588.02
6589.83
6591.65
6593.5
6595.36
6597.24
6599.14
6601.06
6602.99
6604.94
6606.91
6608.89
6610.88
6612.88
6614.9
6616.92
6618.96
6621
6623.06