/*--------------------------------*- C++ -*----------------------------------*\
| =========                 |                                                 |
| \\      /  F ield         | OpenFOAM: The Open Source CFD Toolbox           |
|  \\    /   O peration     | Version:  v2006                                 |
|   \\  /    A nd           | Website:  www.openfoam.com                      |
|    \\/     M anipulation  |                                                 |
\*---------------------------------------------------------------------------*/
FoamFile
{
    version     2.0;
    format      ascii;
    class       surfaceScalarField;
    location    "7.6";
    object      phi;
}
// * * * * * * * * * * * * * * * * * * * * * * * * * * * * * * * * * * * * * //

dimensions      [0 3 -1 0 0 0 0];
oriented        oriented;


internalField   nonuniform List<scalar> 
65390
(
-1.14926e-05
-7.77754e-07
-1.07714e-05
-7.20615e-07
-1.01655e-05
-6.0538e-07
-9.74133e-06
-4.23671e-07
-9.79116e-06
5.01963e-08
-1.01568e-05
3.65922e-07
-1.06391e-05
4.82497e-07
-1.07229e-05
8.40387e-08
-8.75325e-06
-1.96953e-06
-2.15422e-06
-6.59891e-06
7.89535e-06
-1.00495e-05
1.94582e-05
-1.15628e-05
3.18397e-05
-1.23815e-05
4.44301e-05
-1.25903e-05
5.45517e-05
-1.01216e-05
5.98165e-05
-5.26472e-06
6.05446e-05
-7.28135e-07
5.86068e-05
1.93788e-06
5.55988e-05
3.00799e-06
5.31447e-05
2.45417e-06
5.21914e-05
9.53286e-07
5.28151e-05
-6.23596e-07
5.46625e-05
-1.84742e-06
5.76644e-05
-3.00185e-06
6.1619e-05
-3.9546e-06
6.60508e-05
-4.43174e-06
7.03347e-05
-4.28386e-06
7.37012e-05
-3.36646e-06
7.57401e-05
-2.03878e-06
7.65753e-05
-8.35208e-07
7.60845e-05
4.90918e-07
7.3914e-05
2.17057e-06
7.00928e-05
3.82119e-06
6.53766e-05
4.71626e-06
6.10718e-05
4.30495e-06
5.80092e-05
3.06264e-06
5.61977e-05
1.81149e-06
5.48299e-05
1.36793e-06
5.3234e-05
1.59596e-06
5.16126e-05
1.62143e-06
5.05693e-05
1.04342e-06
5.0437e-05
1.32376e-07
5.09654e-05
-5.2835e-07
5.17547e-05
-7.89217e-07
5.23376e-05
-5.8284e-07
5.23335e-05
4.24093e-09
5.21067e-05
2.26864e-07
5.20137e-05
9.29878e-08
5.24331e-05
-4.19291e-07
5.32734e-05
-8.40264e-07
5.40575e-05
-7.84053e-07
5.44508e-05
-3.93218e-07
5.44998e-05
-4.89058e-08
5.45228e-05
-2.2931e-08
5.47015e-05
-1.78702e-07
5.52008e-05
-4.9919e-07
5.59916e-05
-7.90783e-07
5.69613e-05
-9.69593e-07
5.80997e-05
-1.13841e-06
5.93511e-05
-1.25129e-06
6.04061e-05
-1.05495e-06
6.08052e-05
-3.99134e-07
6.05498e-05
2.55478e-07
5.99965e-05
5.53309e-07
5.94796e-05
5.17015e-07
5.89572e-05
5.22432e-07
5.83752e-05
5.81986e-07
5.7619e-05
7.56314e-07
5.68685e-05
7.50461e-07
5.64265e-05
4.42093e-07
5.64005e-05
2.5941e-08
5.64458e-05
-4.52252e-08
5.63517e-05
9.41582e-08
5.58978e-05
4.53888e-07
5.44511e-05
1.44667e-06
5.18872e-05
2.56394e-06
4.75741e-05
4.31312e-06
4.04004e-05
7.17373e-06
3.47401e-05
5.66031e-06
3.28502e-05
1.8899e-06
3.18626e-05
9.87589e-07
3.21101e-05
-2.4749e-07
3.16369e-05
4.73148e-07
3.14327e-05
2.0425e-07
3.11938e-05
2.3889e-07
3.00044e-05
1.18937e-06
2.86438e-05
1.36067e-06
2.75128e-05
1.13095e-06
2.68318e-05
6.81039e-07
2.63467e-05
4.85091e-07
2.60662e-05
2.80432e-07
2.58478e-05
2.18459e-07
2.54056e-05
4.42161e-07
2.49217e-05
4.83971e-07
2.41621e-05
7.59614e-07
2.33193e-05
8.42862e-07
2.19479e-05
1.37141e-06
2.03544e-05
1.59355e-06
1.75233e-05
2.83109e-06
1.37942e-05
3.72916e-06
1.04766e-05
3.31758e-06
8.42626e-06
2.05042e-06
7.96106e-06
4.65248e-07
7.56408e-06
3.97011e-07
7.84774e-06
-2.83617e-07
8.34251e-06
-4.94739e-07
8.36471e-06
-2.2166e-08
8.01631e-06
3.48427e-07
7.59202e-06
4.24316e-07
7.49446e-06
9.75721e-08
7.40722e-06
8.72649e-08
7.44134e-06
-3.41085e-08
7.52132e-06
-7.99696e-08
7.52107e-06
2.53041e-10
7.31406e-06
2.07018e-07
7.01905e-06
2.95023e-07
6.27229e-06
7.46769e-07
5.33174e-06
9.40556e-07
4.70307e-06
6.28686e-07
4.50933e-06
1.93753e-07
4.6229e-06
-1.13546e-07
4.61182e-06
1.1108e-08
4.79537e-06
-1.8352e-07
5.04601e-06
-2.5061e-07
5.14165e-06
-9.56063e-08
5.22045e-06
-7.87591e-08
5.29666e-06
-7.6175e-08
5.35024e-06
-5.35362e-08
5.45294e-06
-1.02661e-07
5.59257e-06
-1.396e-07
5.7144e-06
-1.21816e-07
5.8484e-06
-1.33983e-07
5.96813e-06
-1.19718e-07
6.08183e-06
-1.13701e-07
6.20066e-06
-1.18849e-07
6.34611e-06
-1.45473e-07
6.51889e-06
-1.72808e-07
6.69385e-06
-1.74985e-07
6.87274e-06
-1.7893e-07
7.05024e-06
-1.77533e-07
7.23163e-06
-1.8142e-07
7.41847e-06
-1.86867e-07
7.60863e-06
-1.9018e-07
7.79206e-06
-1.83442e-07
7.96823e-06
-1.76172e-07
8.14301e-06
-1.74778e-07
8.31936e-06
-1.76332e-07
8.5018e-06
-1.82418e-07
8.68678e-06
-1.84942e-07
8.86491e-06
-1.78098e-07
9.02925e-06
-1.64307e-07
9.1912e-06
-1.61905e-07
9.36036e-06
-1.69126e-07
9.53168e-06
-1.71283e-07
9.69762e-06
-1.65913e-07
9.85678e-06
-1.59131e-07
1.00094e-05
-1.52603e-07
1.01583e-05
-1.48869e-07
1.03038e-05
-1.4552e-07
1.04458e-05
-1.41985e-07
1.05837e-05
-1.37921e-07
1.07171e-05
-1.33434e-07
1.08416e-05
-1.24532e-07
1.09561e-05
-1.14441e-07
1.10667e-05
-1.10673e-07
1.1172e-05
-1.05243e-07
1.12646e-05
-9.26443e-08
1.13436e-05
-7.90603e-08
1.14159e-05
-7.23404e-08
1.14827e-05
-6.68256e-08
1.15376e-05
-5.48601e-08
1.15738e-05
-3.63331e-08
1.15943e-05
-2.05089e-08
1.16068e-05
-1.25118e-08
1.16108e-05
-4.02843e-09
1.16027e-05
8.04663e-09
1.1576e-05
2.66225e-08
1.1524e-05
5.20043e-08
1.14522e-05
7.1775e-08
1.13637e-05
8.83909e-08
1.12608e-05
1.02912e-07
1.1146e-05
1.14768e-07
1.10138e-05
1.32231e-07
1.08607e-05
1.52996e-07
1.06823e-05
1.78447e-07
1.04765e-05
2.05734e-07
1.02533e-05
2.23277e-07
1.00165e-05
2.36731e-07
9.76361e-06
2.52913e-07
9.48555e-06
2.78062e-07
9.18192e-06
3.03628e-07
8.85656e-06
3.25367e-07
8.51584e-06
3.40732e-07
8.16544e-06
3.50397e-07
7.80472e-06
3.60726e-07
7.43135e-06
3.73381e-07
7.03813e-06
3.93221e-07
6.6248e-06
4.13339e-07
6.19947e-06
4.25333e-07
5.77332e-06
4.26161e-07
5.35344e-06
4.19895e-07
4.93278e-06
4.20682e-07
4.50611e-06
4.26687e-07
4.07563e-06
4.30508e-07
3.64563e-06
4.30022e-07
3.22404e-06
4.21614e-07
2.81421e-06
4.09839e-07
2.41074e-06
4.03482e-07
2.00702e-06
4.03735e-07
1.60789e-06
3.99137e-07
1.23183e-06
3.76073e-07
8.74552e-07
3.57296e-07
5.28925e-07
3.45645e-07
1.92115e-07
3.36827e-07
-1.409e-07
3.33027e-07
-4.64981e-07
3.24085e-07
-7.72796e-07
3.07811e-07
-1.05884e-06
2.86028e-07
-1.32837e-06
2.69519e-07
-1.58661e-06
2.58228e-07
-1.83647e-06
2.4984e-07
-2.0813e-06
2.44825e-07
-2.31698e-06
2.35687e-07
-2.53927e-06
2.22294e-07
-2.74547e-06
2.06221e-07
-2.9373e-06
1.91843e-07
-3.11821e-06
1.80932e-07
-3.29069e-06
1.72489e-07
-3.45846e-06
1.67784e-07
-3.6183e-06
1.5985e-07
-3.76652e-06
1.48232e-07
-3.9012e-06
1.34709e-07
-4.02341e-06
1.2225e-07
-4.13683e-06
1.1347e-07
-4.24312e-06
1.06351e-07
-4.34219e-06
9.91233e-08
-4.4336e-06
9.14507e-08
-4.5188e-06
8.52173e-08
-4.59694e-06
7.81327e-08
-4.66755e-06
7.05746e-08
-4.73047e-06
6.28746e-08
-4.78311e-06
5.25894e-08
-4.82872e-06
4.55558e-08
-4.86921e-06
4.0464e-08
-4.90577e-06
3.65443e-08
-4.94087e-06
3.51158e-08
-4.97198e-06
3.11436e-08
-4.99303e-06
2.10987e-08
-5.00726e-06
1.42837e-08
-5.01854e-06
1.13324e-08
-5.02774e-06
9.23468e-09
-5.0362e-06
8.49039e-09
-5.04188e-06
5.68619e-09
-5.04308e-06
1.18385e-09
-5.04022e-06
-2.87753e-09
-5.03422e-06
-6.03449e-09
-5.02688e-06
-7.36316e-09
-5.01889e-06
-8.01007e-09
-5.00953e-06
-9.37878e-09
-4.99804e-06
-1.15026e-08
-4.9839e-06
-1.41396e-08
-4.96695e-06
-1.69492e-08
-4.94929e-06
-1.76488e-08
-4.93304e-06
-1.62355e-08
-4.91823e-06
-1.47988e-08
-4.90342e-06
-1.47873e-08
-4.88473e-06
-1.86716e-08
-4.86264e-06
-2.20791e-08
-4.84016e-06
-2.24655e-08
-4.8178e-06
-2.23507e-08
-4.7957e-06
-2.20865e-08
-4.77504e-06
-2.0659e-08
-4.75526e-06
-1.97796e-08
-4.73509e-06
-2.01756e-08
-4.71314e-06
-2.19634e-08
-4.68944e-06
-2.37121e-08
-4.66516e-06
-2.42918e-08
-4.64073e-06
-2.44405e-08
-4.61577e-06
-2.49725e-08
-4.59093e-06
-2.48579e-08
-4.56795e-06
-2.29928e-08
-4.54635e-06
-2.16108e-08
-4.52356e-06
-2.28061e-08
-4.49812e-06
-2.54463e-08
-4.47217e-06
-2.59667e-08
-4.4468e-06
-2.53908e-08
-4.42153e-06
-2.52839e-08
-4.39649e-06
-2.50595e-08
-4.37238e-06
-2.41274e-08
-4.34846e-06
-2.39428e-08
-4.32392e-06
-2.45596e-08
-4.29839e-06
-2.5541e-08
-4.27236e-06
-2.60452e-08
-4.24623e-06
-2.61416e-08
-4.22001e-06
-2.62361e-08
-4.19432e-06
-2.56921e-08
-4.16888e-06
-2.54578e-08
-4.14302e-06
-2.58612e-08
-4.11637e-06
-2.66654e-08
-4.08887e-06
-2.75093e-08
-4.06044e-06
-2.84361e-08
-4.03193e-06
-2.85062e-08
-4.00376e-06
-2.81719e-08
-3.97481e-06
-2.89574e-08
-3.94446e-06
-3.03426e-08
-3.9128e-06
-3.1657e-08
-3.88031e-06
-3.24931e-08
-3.84712e-06
-3.31865e-08
-3.81296e-06
-3.41593e-08
-3.77734e-06
-3.56197e-08
-3.74005e-06
-3.72974e-08
-3.70183e-06
-3.82213e-08
-3.6637e-06
-3.81447e-08
-3.62558e-06
-3.81214e-08
-3.58641e-06
-3.91818e-08
-3.54619e-06
-4.02297e-08
-3.50581e-06
-4.03762e-08
-3.46592e-06
-3.98914e-08
-3.42695e-06
-3.89632e-08
-3.38925e-06
-3.76949e-08
-3.35318e-06
-3.60625e-08
-3.31919e-06
-3.39847e-08
-3.28785e-06
-3.13436e-08
-3.2599e-06
-2.7946e-08
-3.23537e-06
-2.4544e-08
-3.21407e-06
-2.13042e-08
-3.19655e-06
-1.75396e-08
-3.18352e-06
-1.30392e-08
-3.17511e-06
-8.42667e-09
-3.17083e-06
-4.29081e-09
-3.17035e-06
-4.96114e-10
-3.1737e-06
3.34961e-09
-3.18134e-06
7.62904e-09
-3.19387e-06
1.25224e-08
-3.21096e-06
1.70858e-08
-3.23142e-06
2.04569e-08
-3.25455e-06
2.3128e-08
-3.28043e-06
2.58841e-08
-3.30916e-06
2.87216e-08
-3.34055e-06
3.13923e-08
-3.37435e-06
3.37987e-08
-3.41017e-06
3.58129e-08
-3.44759e-06
3.7424e-08
-3.48624e-06
3.86526e-08
-3.52608e-06
3.98438e-08
-3.56682e-06
4.07417e-08
-3.60806e-06
4.12505e-08
-3.64946e-06
4.14025e-08
-3.69072e-06
4.12628e-08
-3.73166e-06
4.0946e-08
-3.77223e-06
4.05678e-08
-3.81232e-06
4.0091e-08
-3.85153e-06
3.92107e-08
-3.88946e-06
3.79287e-08
-3.92595e-06
3.64919e-08
-3.96098e-06
3.50193e-08
-3.99438e-06
3.34006e-08
-4.02604e-06
3.16625e-08
-4.05582e-06
2.97775e-08
-4.0834e-06
2.75721e-08
-4.10863e-06
2.52244e-08
-4.13145e-06
2.28212e-08
-4.1518e-06
2.03414e-08
-4.16945e-06
1.76488e-08
-4.18443e-06
1.49691e-08
-4.19691e-06
1.24692e-08
-4.20671e-06
9.79705e-09
-4.21356e-06
6.8401e-09
-4.21695e-06
3.38798e-09
-4.21691e-06
-4.51993e-11
-4.2138e-06
-3.11574e-09
-4.20773e-06
-6.07861e-09
-4.19837e-06
-9.36505e-09
-4.18524e-06
-1.31354e-08
-4.16824e-06
-1.70053e-08
-4.14761e-06
-2.06405e-08
-4.12345e-06
-2.41597e-08
-4.09573e-06
-2.77245e-08
-4.06431e-06
-3.14205e-08
-4.02959e-06
-3.47244e-08
-3.99148e-06
-3.81158e-08
-3.94932e-06
-4.21636e-08
-3.90278e-06
-4.65359e-08
-3.8523e-06
-5.04922e-08
-3.79809e-06
-5.42111e-08
-3.74017e-06
-5.79317e-08
-3.67863e-06
-6.15572e-08
-3.61346e-06
-6.51768e-08
-3.54442e-06
-6.90562e-08
-3.47137e-06
-7.30541e-08
-3.39484e-06
-7.65465e-08
-3.31509e-06
-7.97558e-08
-3.23202e-06
-8.30737e-08
-3.14517e-06
-8.68523e-08
-3.05476e-06
-9.04134e-08
-2.96105e-06
-9.37051e-08
-2.86411e-06
-9.69439e-08
-2.76429e-06
-9.98258e-08
-2.66212e-06
-1.0218e-07
-2.55745e-06
-1.04677e-07
-2.44978e-06
-1.07673e-07
-2.3393e-06
-1.10487e-07
-2.22591e-06
-1.13406e-07
-2.11037e-06
-1.15546e-07
-1.99228e-06
-1.18101e-07
-1.87357e-06
-1.1872e-07
-1.75215e-06
-1.21435e-07
-1.62915e-06
-1.23011e-07
-1.50291e-06
-1.26248e-07
-1.37573e-06
-1.27183e-07
-1.2479e-06
-1.27842e-07
-1.11978e-06
-1.28131e-07
-9.9244e-07
-1.27361e-07
-8.6236e-07
-1.30099e-07
-7.32859e-07
-1.29523e-07
-6.04229e-07
-1.28652e-07
-4.75147e-07
-1.29102e-07
-3.5193e-07
-1.23233e-07
-2.3289e-07
-1.19053e-07
-1.0435e-07
-1.28549e-07
1.95498e-08
-1.23906e-07
1.42797e-07
-1.23252e-07
2.74588e-07
-1.31795e-07
3.62367e-07
-8.77827e-08
4.37701e-07
-7.53346e-08
5.6693e-07
-1.29227e-07
6.62982e-07
-9.60446e-08
8.14902e-07
-1.51909e-07
1.00511e-06
-1.90191e-07
1.35069e-06
-3.45564e-07
1.77111e-06
-4.20398e-07
2.07277e-06
-3.01644e-07
2.32512e-06
-2.52333e-07
2.51739e-06
-1.92261e-07
2.67602e-06
-1.58625e-07
2.81224e-06
-1.36217e-07
2.94747e-06
-1.3523e-07
3.07625e-06
-1.28775e-07
3.19829e-06
-1.22052e-07
3.30792e-06
-1.09631e-07
3.42612e-06
-1.18203e-07
3.46974e-06
-4.36263e-08
3.48252e-06
-1.27739e-08
3.5606e-06
-7.80644e-08
3.59802e-06
-3.74098e-08
3.73237e-06
-1.34328e-07
3.93792e-06
-2.05536e-07
4.42247e-06
-4.84528e-07
5.08421e-06
-6.61735e-07
5.60612e-06
-5.21892e-07
6.05531e-06
-4.4919e-07
6.3602e-06
-3.04887e-07
6.60825e-06
-2.48057e-07
6.80015e-06
-1.91899e-07
6.95542e-06
-1.5527e-07
7.07617e-06
-1.20749e-07
7.13819e-06
-6.202e-08
7.20064e-06
-6.2437e-08
7.2578e-06
-5.71509e-08
7.29075e-06
-3.29414e-08
7.37011e-06
-7.93514e-08
7.38015e-06
-1.00221e-08
7.18237e-06
1.97799e-07
7.05901e-06
1.23376e-07
6.95542e-06
1.03606e-07
6.86165e-06
9.37928e-08
7.24334e-06
-3.81674e-07
7.9807e-06
-7.37325e-07
9.76842e-06
-1.7877e-06
1.18393e-05
-2.07084e-06
1.3458e-05
-1.61874e-06
1.47765e-05
-1.31851e-06
1.58425e-05
-1.06603e-06
1.66365e-05
-7.93994e-07
1.72242e-05
-5.87681e-07
1.76713e-05
-4.47121e-07
1.80249e-05
-3.53629e-07
1.83089e-05
-2.83951e-07
1.85331e-05
-2.24266e-07
1.87108e-05
-1.77653e-07
1.8857e-05
-1.46171e-07
1.89763e-05
-1.19257e-07
1.90707e-05
-9.44413e-08
1.91438e-05
-7.30007e-08
1.91936e-05
-4.98037e-08
1.92264e-05
-3.27577e-08
1.92472e-05
-2.08197e-08
1.92549e-05
-7.67152e-09
1.92447e-05
1.0195e-08
1.92218e-05
2.29697e-08
1.91929e-05
2.89185e-08
1.91544e-05
3.84426e-08
1.91024e-05
5.20266e-08
1.9036e-05
6.633e-08
1.89598e-05
7.62524e-08
1.88776e-05
8.21403e-08
1.87877e-05
8.99136e-08
1.86904e-05
9.7283e-08
1.85847e-05
1.0569e-07
1.84725e-05
1.12179e-07
1.83517e-05
1.20828e-07
1.82192e-05
1.32522e-07
1.80801e-05
1.39153e-07
1.79384e-05
1.41718e-07
1.77953e-05
1.43147e-07
1.76493e-05
1.45919e-07
1.74982e-05
1.51107e-07
1.73405e-05
1.57737e-07
1.71766e-05
1.63905e-07
1.70068e-05
1.69772e-07
1.68315e-05
1.7525e-07
1.66533e-05
1.7818e-07
1.64692e-05
1.84087e-07
1.62808e-05
1.88423e-07
1.6091e-05
1.89835e-07
1.58969e-05
1.94081e-07
1.56956e-05
2.01262e-07
1.54873e-05
2.08299e-07
1.52737e-05
2.13601e-07
1.50563e-05
2.17414e-07
1.48364e-05
2.1988e-07
1.46149e-05
2.21505e-07
1.43915e-05
2.23483e-07
1.41656e-05
2.25839e-07
1.39372e-05
2.28429e-07
1.37061e-05
2.31107e-07
1.3472e-05
2.3408e-07
1.32355e-05
2.36504e-07
1.29971e-05
2.38427e-07
1.2757e-05
2.40047e-07
1.25154e-05
2.41613e-07
1.22716e-05
2.43837e-07
1.20252e-05
2.46336e-07
1.17767e-05
2.48492e-07
1.1527e-05
2.49737e-07
1.12768e-05
2.50164e-07
1.10253e-05
2.5156e-07
1.07722e-05
2.53108e-07
1.05163e-05
2.55902e-07
1.02608e-05
2.55498e-07
1.00032e-05
2.57636e-07
9.74416e-06
2.58996e-07
9.48494e-06
2.59208e-07
9.2302e-06
2.54732e-07
8.98049e-06
2.49704e-07
8.73094e-06
2.49535e-07
8.48062e-06
2.50313e-07
8.22943e-06
2.51183e-07
7.97642e-06
2.53003e-07
2.41945e-07
-1.13873e-05
-1.64975e-06
-1.05788e-05
-1.53004e-06
-9.84098e-06
-1.34391e-06
-9.2308e-06
-1.03445e-06
-8.8037e-06
-3.77392e-07
-8.33452e-06
-1.03632e-07
-7.5354e-06
-3.16931e-07
-5.19154e-06
-2.26005e-06
1.75176e-06
-8.913e-06
1.11947e-05
-1.6042e-05
2.04343e-05
-1.92891e-05
2.92131e-05
-2.03417e-05
3.74521e-05
-2.06204e-05
4.50963e-05
-2.02345e-05
5.23005e-05
-1.73258e-05
5.81053e-05
-1.10695e-05
6.11129e-05
-3.73572e-06
6.11526e-05
1.89816e-06
5.97462e-05
4.41443e-06
5.77755e-05
4.42496e-06
5.54311e-05
3.29776e-06
5.36771e-05
1.13036e-06
5.39497e-05
-2.1199e-06
5.57886e-05
-4.84073e-06
5.84406e-05
-6.60655e-06
6.11764e-05
-7.16747e-06
6.3817e-05
-6.9244e-06
6.63094e-05
-5.85872e-06
6.78852e-05
-3.6145e-06
6.81755e-05
-1.12549e-06
6.69064e-05
1.76008e-06
6.43516e-05
4.72544e-06
6.1595e-05
6.57791e-06
5.93545e-05
6.95681e-06
5.76462e-05
6.01336e-06
5.63495e-05
4.35944e-06
5.5127e-05
3.03402e-06
5.3888e-05
2.60707e-06
5.27502e-05
2.73385e-06
5.17248e-05
2.64692e-06
5.09467e-05
1.82166e-06
5.08705e-05
2.08668e-07
5.11524e-05
-8.102e-07
5.15482e-05
-1.18492e-06
5.2064e-05
-1.0986e-06
5.25327e-05
-4.6435e-07
5.2835e-05
-7.54019e-08
5.30716e-05
-1.43493e-07
5.33833e-05
-7.30969e-07
5.37861e-05
-1.24298e-06
5.43176e-05
-1.31541e-06
5.48966e-05
-9.72177e-07
5.52291e-05
-3.81302e-07
5.54293e-05
-2.23044e-07
5.55565e-05
-3.05818e-07
5.58344e-05
-7.76951e-07
5.6476e-05
-1.43228e-06
5.73105e-05
-1.804e-06
5.81327e-05
-1.96053e-06
5.87921e-05
-1.91066e-06
5.91802e-05
-1.44291e-06
5.93115e-05
-5.30354e-07
5.94723e-05
9.4744e-08
5.97269e-05
2.9872e-07
5.99205e-05
3.23512e-07
5.9939e-05
5.04067e-07
5.96217e-05
8.99327e-07
5.90171e-05
1.36096e-06
5.82877e-05
1.47993e-06
5.76463e-05
1.08357e-06
5.72544e-05
4.1791e-07
5.69961e-05
2.13071e-07
5.67847e-05
3.05622e-07
5.64915e-05
7.47164e-07
5.59614e-05
1.97681e-06
5.50533e-05
3.47204e-06
5.47337e-05
4.6328e-06
5.54078e-05
6.49967e-06
5.32185e-05
7.84956e-06
4.88415e-05
6.26692e-06
4.27307e-05
7.09841e-06
3.72668e-05
5.21642e-06
3.5521e-05
2.21893e-06
3.40707e-05
1.65458e-06
3.34539e-05
8.5567e-07
3.26167e-05
2.02661e-06
3.15326e-05
2.44474e-06
3.06367e-05
2.02682e-06
3.00398e-05
1.27802e-06
2.86171e-05
1.90771e-06
2.72434e-05
1.65418e-06
2.63948e-05
1.06711e-06
2.58126e-05
1.02432e-06
2.54536e-05
8.43064e-07
2.52498e-05
9.63399e-07
2.48374e-05
1.25535e-06
2.45265e-05
1.68235e-06
2.39721e-05
2.14807e-06
2.39339e-05
2.86933e-06
2.33446e-05
4.31855e-06
2.19873e-05
4.67494e-06
1.90252e-05
5.01258e-06
1.48712e-05
4.61926e-06
1.13615e-05
3.90681e-06
8.72354e-06
2.35441e-06
7.45251e-06
7.76354e-07
7.02684e-06
4.03553e-07
6.68482e-06
6.90494e-07
6.99993e-06
1.09237e-07
7.81925e-06
-7.21708e-07
8.04466e-06
-1.38118e-07
7.90516e-06
1.05407e-07
7.78429e-06
4.09291e-08
7.60147e-06
1.83093e-07
7.58054e-06
2.27969e-07
7.63141e-06
2.44174e-07
7.81873e-06
5.59474e-07
7.83348e-06
9.25831e-07
7.62507e-06
8.37128e-07
6.91155e-06
9.07315e-07
5.92002e-06
8.78027e-07
5.25548e-06
6.75705e-07
4.91416e-06
1.57863e-07
4.8632e-06
-1.99589e-07
4.83649e-06
-6.88283e-08
5.04742e-06
-2.89626e-07
5.32911e-06
-3.578e-07
5.44591e-06
-1.70284e-07
5.52537e-06
-1.82075e-07
5.60118e-06
-2.15373e-07
5.66551e-06
-1.86124e-07
5.78744e-06
-2.55903e-07
5.93017e-06
-2.62459e-07
6.0661e-06
-2.49649e-07
6.20191e-06
-2.54698e-07
6.34541e-06
-2.8903e-07
6.50692e-06
-3.34367e-07
6.66923e-06
-3.37363e-07
6.84212e-06
-3.5188e-07
7.02082e-06
-3.56283e-07
7.20479e-06
-3.65432e-07
7.39439e-06
-3.76506e-07
7.58358e-06
-3.79391e-07
7.76822e-06
-3.68085e-07
7.95016e-06
-3.58092e-07
8.13162e-06
-3.56217e-07
8.3139e-06
-3.58565e-07
8.49831e-06
-3.6678e-07
8.6787e-06
-3.65266e-07
8.85109e-06
-3.50431e-07
9.02071e-06
-3.33856e-07
9.19005e-06
-3.31188e-07
9.36179e-06
-3.40809e-07
9.53142e-06
-3.40867e-07
9.69264e-06
-3.27099e-07
9.84784e-06
-3.14304e-07
1.00039e-05
-3.08647e-07
1.01602e-05
-3.05121e-07
1.03107e-05
-2.96021e-07
1.04519e-05
-2.83224e-07
1.05872e-05
-2.73193e-07
1.07186e-05
-2.6487e-07
1.08422e-05
-2.48189e-07
1.09596e-05
-2.31825e-07
1.10727e-05
-2.23802e-07
1.1178e-05
-2.10632e-07
1.12706e-05
-1.85263e-07
1.13507e-05
-1.59225e-07
1.14232e-05
-1.44832e-07
1.14888e-05
-1.32547e-07
1.15414e-05
-1.07521e-07
1.15783e-05
-7.32262e-08
1.16019e-05
-4.4186e-08
1.16132e-05
-2.39303e-08
1.16133e-05
-4.19064e-09
1.16006e-05
2.06395e-08
1.15726e-05
5.45845e-08
1.15246e-05
9.99443e-08
1.14563e-05
1.40019e-07
1.13683e-05
1.76404e-07
1.12624e-05
2.08744e-07
1.1143e-05
2.34166e-07
1.1008e-05
2.67126e-07
1.08551e-05
3.05949e-07
1.06796e-05
3.53872e-07
1.04766e-05
4.0878e-07
1.02508e-05
4.49028e-07
1.00073e-05
4.80227e-07
9.74897e-06
5.11229e-07
9.47442e-06
5.52617e-07
9.18025e-06
5.97802e-07
8.86326e-06
6.42363e-07
8.5241e-06
6.79897e-07
8.16907e-06
7.05436e-07
7.8042e-06
7.25603e-07
7.42781e-06
7.4979e-07
7.03654e-06
7.84513e-07
6.63189e-06
8.18013e-07
6.21671e-06
8.4054e-07
5.79758e-06
8.45326e-07
5.37615e-06
8.41355e-07
4.95164e-06
8.45222e-07
4.52252e-06
8.55846e-07
4.09316e-06
8.59894e-07
3.66942e-06
8.53793e-07
3.25231e-06
8.38751e-07
2.83984e-06
8.2233e-07
2.43103e-06
8.12326e-07
2.0271e-06
8.0769e-07
1.63428e-06
7.91981e-07
1.25825e-06
7.52129e-07
8.95184e-07
7.20385e-07
5.43177e-07
6.97666e-07
2.02177e-07
6.77832e-07
-1.29262e-07
6.64461e-07
-4.49857e-07
6.44669e-07
-7.57602e-07
6.15541e-07
-1.04922e-06
5.77626e-07
-1.32527e-06
5.45558e-07
-1.58923e-06
5.22189e-07
-1.84202e-06
5.02631e-07
-2.08476e-06
4.87568e-07
-2.31748e-06
4.68416e-07
-2.53939e-06
4.44219e-07
-2.74896e-06
4.15818e-07
-2.94528e-06
3.88183e-07
-3.13001e-06
3.65686e-07
-3.3046e-06
3.47113e-07
-3.47082e-06
3.34046e-07
-3.62837e-06
3.17449e-07
-3.77486e-06
2.94774e-07
-3.90887e-06
2.68768e-07
-4.03213e-06
2.45561e-07
-4.14635e-06
2.27723e-07
-4.25309e-06
2.13127e-07
-4.35373e-06
1.9977e-07
-4.44787e-06
1.85578e-07
-4.53369e-06
1.71013e-07
-4.61029e-06
1.54695e-07
-4.67709e-06
1.37337e-07
-4.73611e-06
1.21848e-07
-4.7896e-06
1.06061e-07
-4.83771e-06
9.36583e-08
-4.8802e-06
8.29782e-08
-4.91812e-06
7.45022e-08
-4.95087e-06
6.79334e-08
-4.97712e-06
5.74579e-08
-4.99738e-06
4.14394e-08
-5.01327e-06
3.02294e-08
-5.02636e-06
2.4469e-08
-5.03671e-06
1.96137e-08
-5.04363e-06
1.54095e-08
-5.04633e-06
8.36696e-09
-5.04491e-06
-2.5954e-10
-5.04116e-06
-6.66946e-09
-5.03622e-06
-1.10159e-08
-5.03081e-06
-1.28044e-08
-5.02422e-06
-1.46299e-08
-5.01372e-06
-1.98874e-08
-4.99972e-06
-2.5511e-08
-4.98443e-06
-2.94231e-08
-4.96843e-06
-3.29347e-08
-4.95203e-06
-3.40247e-08
-4.93612e-06
-3.21239e-08
-4.92006e-06
-3.08285e-08
-4.90273e-06
-3.20934e-08
-4.88321e-06
-3.81622e-08
-4.8621e-06
-4.31709e-08
-4.84062e-06
-4.39278e-08
-4.81937e-06
-4.35892e-08
-4.79837e-06
-4.30874e-08
-4.77717e-06
-4.18656e-08
-4.75506e-06
-4.18922e-08
-4.73231e-06
-4.29425e-08
-4.70997e-06
-4.43199e-08
-4.68771e-06
-4.59873e-08
-4.66456e-06
-4.74661e-08
-4.64062e-06
-4.83917e-08
-4.61599e-06
-4.96248e-08
-4.59147e-06
-4.94031e-08
-4.56791e-06
-4.65692e-08
-4.54444e-06
-4.51054e-08
-4.52047e-06
-4.67933e-08
-4.49529e-06
-5.06562e-08
-4.46997e-06
-5.13057e-08
-4.44543e-06
-4.99589e-08
-4.42111e-06
-4.9641e-08
-4.39613e-06
-5.00638e-08
-4.3708e-06
-4.9483e-08
-4.3454e-06
-4.93775e-08
-4.31978e-06
-5.01979e-08
-4.29442e-06
-5.09274e-08
-4.26939e-06
-5.10966e-08
-4.24423e-06
-5.13262e-08
-4.21809e-06
-5.23909e-08
-4.19105e-06
-5.27472e-08
-4.16379e-06
-5.27307e-08
-4.13723e-06
-5.2436e-08
-4.11128e-06
-5.26235e-08
-4.08472e-06
-5.40772e-08
-4.05649e-06
-5.66745e-08
-4.027e-06
-5.80085e-08
-3.99736e-06
-5.78133e-08
-3.96809e-06
-5.8229e-08
-3.93857e-06
-5.98614e-08
-3.907e-06
-6.3234e-08
-3.87341e-06
-6.60764e-08
-3.83928e-06
-6.7322e-08
-3.80527e-06
-6.81737e-08
-3.77042e-06
-7.0481e-08
-3.73359e-06
-7.4145e-08
-3.69549e-06
-7.6334e-08
-3.65688e-06
-7.67594e-08
-3.61849e-06
-7.65227e-08
-3.58028e-06
-7.74002e-08
-3.54114e-06
-7.93766e-08
-3.50143e-06
-8.00852e-08
-3.46204e-06
-7.92739e-08
-3.42365e-06
-7.73441e-08
-3.38697e-06
-7.4368e-08
-3.35221e-06
-7.08257e-08
-3.3194e-06
-6.67875e-08
-3.28881e-06
-6.19428e-08
-3.26095e-06
-5.58114e-08
-3.23636e-06
-4.91534e-08
-3.21546e-06
-4.22114e-08
-3.19866e-06
-3.43613e-08
-3.18609e-06
-2.56277e-08
-3.17753e-06
-1.70004e-08
-3.17297e-06
-8.86733e-09
-3.17245e-06
-1.03205e-09
-3.17618e-06
7.07426e-09
-3.18423e-06
1.5665e-08
-3.19651e-06
2.4788e-08
-3.21276e-06
3.33306e-08
-3.2329e-06
4.05872e-08
-3.25627e-06
4.64913e-08
-3.28254e-06
5.21489e-08
-3.31159e-06
5.77605e-08
-3.34295e-06
6.27577e-08
-3.37657e-06
6.7422e-08
-3.41241e-06
7.16491e-08
-3.45009e-06
7.5116e-08
-3.4892e-06
7.77696e-08
-3.52964e-06
8.02898e-08
-3.57077e-06
8.18731e-08
-3.61203e-06
8.25195e-08
-3.65336e-06
8.27413e-08
-3.69474e-06
8.26444e-08
-3.73599e-06
8.2202e-08
-3.77685e-06
8.14223e-08
-3.81707e-06
8.03135e-08
-3.85638e-06
7.85141e-08
-3.89452e-06
7.60625e-08
-3.93123e-06
7.32e-08
-3.9664e-06
7.01872e-08
-3.99997e-06
6.69723e-08
-4.03199e-06
6.36695e-08
-4.06224e-06
6.00248e-08
-4.09018e-06
5.55043e-08
-4.11562e-06
5.06656e-08
-4.13866e-06
4.58452e-08
-4.15926e-06
4.09328e-08
-4.17723e-06
3.5613e-08
-4.19249e-06
3.02216e-08
-4.20497e-06
2.49369e-08
-4.21447e-06
1.9285e-08
-4.22095e-06
1.33075e-08
-4.22438e-06
6.81021e-09
-4.22467e-06
2.38659e-10
-4.22188e-06
-5.91626e-09
-4.21594e-06
-1.20292e-08
-4.20667e-06
-1.86485e-08
-4.19366e-06
-2.61529e-08
-4.17684e-06
-3.3831e-08
-4.15638e-06
-4.11137e-08
-4.1325e-06
-4.80437e-08
-4.1052e-06
-5.5035e-08
-4.0742e-06
-6.24286e-08
-4.03927e-06
-6.96557e-08
-4.00038e-06
-7.70121e-08
-3.9578e-06
-8.47595e-08
-3.91137e-06
-9.29741e-08
-3.8611e-06
-1.00778e-07
-3.80712e-06
-1.08207e-07
-3.74947e-06
-1.15596e-07
-3.6879e-06
-1.23147e-07
-3.6225e-06
-1.30589e-07
-3.55331e-06
-1.38263e-07
-3.4805e-06
-1.45871e-07
-3.40409e-06
-1.52976e-07
-3.32398e-06
-1.59874e-07
-3.24014e-06
-1.66919e-07
-3.15303e-06
-1.73977e-07
-3.06275e-06
-1.80702e-07
-2.96939e-06
-1.87077e-07
-2.87265e-06
-1.93684e-07
-2.7728e-06
-1.99687e-07
-2.66968e-06
-2.05314e-07
-2.56435e-06
-2.10019e-07
-2.45637e-06
-2.1567e-07
-2.34623e-06
-2.20643e-07
-2.23316e-06
-2.26488e-07
-2.118e-06
-2.30724e-07
-1.99979e-06
-2.36317e-07
-1.88055e-06
-2.37979e-07
-1.75882e-06
-2.43179e-07
-1.63671e-06
-2.45138e-07
-1.51238e-06
-2.50587e-07
-1.38484e-06
-2.54749e-07
-1.25636e-06
-2.56343e-07
-1.12474e-06
-2.59767e-07
-9.94888e-07
-2.57238e-07
-8.63682e-07
-2.61329e-07
-7.3891e-07
-2.54316e-07
-6.16327e-07
-2.51256e-07
-4.83874e-07
-2.61574e-07
-3.50748e-07
-2.56378e-07
-2.14681e-07
-2.55137e-07
-7.82548e-08
-2.64991e-07
1.19153e-08
-2.1409e-07
8.78752e-08
-1.99222e-07
2.18405e-07
-2.62332e-07
3.60862e-07
-2.30241e-07
5.72928e-07
-2.87397e-07
7.94476e-07
-3.50765e-07
1.15724e-06
-4.58794e-07
1.56578e-06
-5.60436e-07
1.86547e-06
-4.89861e-07
2.06413e-06
-5.44206e-07
2.16941e-06
-5.25662e-07
2.30153e-06
-4.33754e-07
2.42284e-06
-3.73632e-07
2.57087e-06
-3.40284e-07
2.71139e-06
-2.99152e-07
2.86805e-06
-2.92869e-07
3.02012e-06
-2.8731e-07
3.16211e-06
-2.70764e-07
3.22409e-06
-1.84031e-07
3.24474e-06
-1.3028e-07
3.33821e-06
-2.11673e-07
3.45613e-06
-1.61538e-07
3.70712e-06
-2.63739e-07
3.99443e-06
-3.65359e-07
4.53955e-06
-5.82505e-07
5.2097e-06
-8.04458e-07
5.75139e-06
-7.47207e-07
6.10853e-06
-8.41645e-07
6.25127e-06
-8.04463e-07
6.40106e-06
-6.71681e-07
6.53516e-06
-5.83282e-07
6.67412e-06
-4.43853e-07
6.76787e-06
-3.41806e-07
6.87323e-06
-2.97259e-07
6.9816e-06
-2.63645e-07
7.10125e-06
-2.40402e-07
7.2204e-06
-1.81169e-07
7.3858e-06
-2.27832e-07
7.45368e-06
-1.25021e-07
7.28261e-06
1.38135e-07
7.14259e-06
6.06788e-08
7.10684e-06
2.5743e-08
7.25123e-06
5.34236e-08
7.86445e-06
-4.89816e-07
8.915e-06
-9.46923e-07
1.10222e-05
-2.01343e-06
1.31157e-05
-2.47515e-06
1.46656e-05
-2.28715e-06
1.55764e-05
-2.6985e-06
1.6007e-05
-2.5015e-06
1.6418e-05
-2.02968e-06
1.67743e-05
-1.6749e-06
1.71186e-05
-1.4103e-06
1.74731e-05
-1.14855e-06
1.77975e-05
-9.12041e-07
1.80806e-05
-7.30219e-07
1.83267e-05
-5.99773e-07
1.85383e-05
-4.95541e-07
1.87193e-05
-4.05243e-07
1.88718e-05
-3.30104e-07
1.90006e-05
-2.75003e-07
1.91073e-05
-2.25903e-07
1.9191e-05
-1.78031e-07
1.92545e-05
-1.36504e-07
1.93001e-05
-9.53994e-08
1.93306e-05
-6.31745e-08
1.9347e-05
-3.72465e-08
1.93505e-05
-1.11188e-08
1.93413e-05
1.93867e-08
1.93209e-05
4.3364e-08
1.92896e-05
6.01863e-08
1.92477e-05
8.03661e-08
1.9195e-05
1.04697e-07
1.91325e-05
1.28864e-07
1.90602e-05
1.48508e-07
1.89786e-05
1.6373e-07
1.88888e-05
1.79757e-07
1.87919e-05
1.94171e-07
1.8688e-05
2.09587e-07
1.85747e-05
2.25477e-07
1.84519e-05
2.43619e-07
1.83232e-05
2.61267e-07
1.81883e-05
2.74052e-07
1.80482e-05
2.81881e-07
1.79029e-05
2.88411e-07
1.77518e-05
2.97085e-07
1.75954e-05
3.07497e-07
1.74342e-05
3.18887e-07
1.72678e-05
3.30316e-07
1.70967e-05
3.40781e-07
1.69216e-05
3.50345e-07
1.67413e-05
3.58499e-07
1.65556e-05
3.69802e-07
1.63654e-05
3.78585e-07
1.61705e-05
3.84723e-07
1.59711e-05
3.9355e-07
1.57674e-05
4.04973e-07
1.55599e-05
4.15724e-07
1.53489e-05
4.24611e-07
1.51345e-05
4.31886e-07
1.49166e-05
4.37793e-07
1.46952e-05
4.42836e-07
1.4471e-05
4.47708e-07
1.42443e-05
4.52591e-07
1.40151e-05
4.57557e-07
1.37832e-05
4.62989e-07
1.35489e-05
4.68371e-07
1.33121e-05
4.73293e-07
1.30732e-05
4.77395e-07
1.28324e-05
4.8076e-07
1.25896e-05
4.84405e-07
1.23445e-05
4.88949e-07
1.20972e-05
4.93648e-07
1.18486e-05
4.97087e-07
1.15991e-05
4.99292e-07
1.13483e-05
5.01007e-07
1.10955e-05
5.04363e-07
1.08412e-05
5.07325e-07
1.05866e-05
5.10562e-07
1.03317e-05
5.1042e-07
1.00757e-05
5.13577e-07
9.81829e-06
5.16421e-07
9.56002e-06
5.17459e-07
9.30289e-06
5.11836e-07
9.04446e-06
5.08122e-07
8.78631e-06
5.0766e-07
8.5259e-06
5.10714e-07
8.26474e-06
5.12331e-07
8.00328e-06
5.14455e-07
5.10741e-07
-1.12709e-05
-2.61321e-06
-1.03424e-05
-2.45806e-06
-9.41554e-06
-2.27043e-06
-8.49908e-06
-1.95065e-06
-7.50587e-06
-1.37042e-06
-6.27915e-06
-1.33022e-06
-4.39373e-06
-2.20225e-06
2.06521e-07
-6.86024e-06
7.46216e-06
-1.61686e-05
1.36247e-05
-2.22045e-05
1.89363e-05
-2.46008e-05
2.3846e-05
-2.52513e-05
2.83648e-05
-2.51392e-05
3.19751e-05
-2.38448e-05
3.49081e-05
-2.02588e-05
3.80906e-05
-1.4252e-05
4.12557e-05
-6.90087e-06
4.39082e-05
-7.54287e-07
4.59479e-05
2.3747e-06
4.68691e-05
3.50377e-06
4.706e-05
3.10688e-06
4.6983e-05
1.20734e-06
4.67701e-05
-1.90701e-06
4.63592e-05
-4.42976e-06
4.56959e-05
-5.94321e-06
4.50989e-05
-6.57045e-06
4.47258e-05
-6.55125e-06
4.44664e-05
-5.59933e-06
4.39264e-05
-3.07446e-06
4.27995e-05
1.4218e-09
4.19931e-05
2.5665e-06
4.22029e-05
4.5157e-06
4.34553e-05
5.3255e-06
4.5335e-05
5.07718e-06
4.73391e-05
4.00925e-06
4.8727e-05
2.97159e-06
4.919e-05
2.57101e-06
4.9156e-05
2.6411e-06
4.91496e-05
2.74023e-06
4.92259e-05
2.57065e-06
4.93401e-05
1.70737e-06
4.97052e-05
-1.56375e-07
5.02274e-05
-1.33242e-06
5.07885e-05
-1.74603e-06
5.13969e-05
-1.70702e-06
5.20999e-05
-1.16736e-06
5.26889e-05
-6.64359e-07
5.32809e-05
-7.35427e-07
5.38782e-05
-1.32822e-06
5.43866e-05
-1.75136e-06
5.48647e-05
-1.7935e-06
5.53609e-05
-1.46829e-06
5.5721e-05
-7.41414e-07
5.59503e-05
-4.5229e-07
5.61416e-05
-4.97014e-07
5.63064e-05
-9.41702e-07
5.66249e-05
-1.75066e-06
5.69941e-05
-2.17319e-06
5.72959e-05
-2.26222e-06
5.75429e-05
-2.15762e-06
5.77109e-05
-1.61079e-06
5.79485e-05
-7.67928e-07
5.85395e-05
-4.9621e-07
5.94268e-05
-5.88553e-07
6.0323e-05
-5.72633e-07
6.08478e-05
-2.0679e-08
6.07749e-05
9.72304e-07
6.0418e-05
1.71794e-06
5.99211e-05
1.97683e-06
5.91783e-05
1.82645e-06
5.84719e-05
1.12433e-06
5.80946e-05
5.90458e-07
5.78199e-05
5.80291e-07
5.76454e-05
9.21753e-07
5.74968e-05
2.12542e-06
5.73169e-05
3.652e-06
5.72464e-05
4.7033e-06
5.84454e-05
5.30071e-06
6.04942e-05
5.80075e-06
6.08758e-05
5.88536e-06
6.08405e-05