/*--------------------------------*- C++ -*----------------------------------*\
| =========                 |                                                 |
| \\      /  F ield         | OpenFOAM: The Open Source CFD Toolbox           |
|  \\    /   O peration     | Version:  v2006                                 |
|   \\  /    A nd           | Website:  www.openfoam.com                      |
|    \\/     M anipulation  |                                                 |
\*---------------------------------------------------------------------------*/
FoamFile
{
    version     2.0;
    format      ascii;
    class       volScalarField;
    location    "0.1";
    object      nut;
}
// * * * * * * * * * * * * * * * * * * * * * * * * * * * * * * * * * * * * * //

dimensions      [0 2 -1 0 0 0 0];


internalField   nonuniform List<scalar> 
33000
(
1.2732e-08
8.75616e-09
1.02036e-08
1.03701e-08
1.04768e-08
1.05929e-08
1.07142e-08
1.08414e-08
1.09747e-08
1.11141e-08
1.12597e-08
1.14115e-08
1.15698e-08
1.17344e-08
1.19044e-08
1.20811e-08
1.22646e-08
1.24552e-08
1.26528e-08
1.28505e-08
1.28425e-08
1.28345e-08
1.28266e-08
1.28186e-08
1.28107e-08
1.28028e-08
1.27949e-08
1.27871e-08
1.27794e-08
1.27717e-08
1.27641e-08
1.27565e-08
1.2749e-08
1.27416e-08
1.27343e-08
1.27271e-08
1.27199e-08
1.27129e-08
1.27059e-08
1.2699e-08
1.26922e-08
1.26855e-08
1.2679e-08
1.26725e-08
1.26661e-08
1.26598e-08
1.26536e-08
1.26475e-08
1.26415e-08
1.26356e-08
1.26297e-08
1.2624e-08
1.26184e-08
1.26129e-08
1.26074e-08
1.26021e-08
1.25968e-08
1.25916e-08
1.25865e-08
1.25814e-08
1.25765e-08
1.25715e-08
1.25667e-08
1.25619e-08
1.25571e-08
1.25524e-08
1.25477e-08
1.2543e-08
1.25383e-08
1.25335e-08
1.25285e-08
1.25234e-08
1.2518e-08
1.25121e-08
1.25052e-08
1.2497e-08
1.24857e-08
1.24848e-08
1.24404e-08
1.24437e-08
1.24356e-08
1.24365e-08
1.2436e-08
1.24347e-08
1.24349e-08
1.24343e-08
1.24329e-08
1.24319e-08
1.24311e-08
1.24304e-08
1.24296e-08
1.24289e-08
1.24282e-08
1.24274e-08
1.24267e-08
1.24259e-08
1.24252e-08
1.24244e-08
1.24237e-08
1.24227e-08
1.2422e-08
1.24213e-08
1.24206e-08
1.24199e-08
1.24192e-08
1.24186e-08
1.24179e-08
1.24173e-08
1.24166e-08
1.2416e-08
1.24154e-08
1.24148e-08
1.24142e-08
1.24136e-08
1.2413e-08
1.24124e-08
1.24119e-08
1.24112e-08
1.24108e-08
1.24102e-08
1.24098e-08
1.24093e-08
1.24088e-08
1.24084e-08
1.24079e-08
1.24075e-08
1.24071e-08
1.24067e-08
1.24063e-08
1.24059e-08
1.24055e-08
1.24051e-08
1.24047e-08
1.24044e-08
1.2404e-08
1.24037e-08
1.24033e-08
1.2403e-08
1.24027e-08
1.24024e-08
1.24021e-08
1.24018e-08
1.24015e-08
1.24012e-08
1.24009e-08
1.24007e-08
1.24004e-08
1.24002e-08
1.23999e-08
1.23997e-08
1.23994e-08
1.23992e-08
1.2399e-08
1.23988e-08
1.23986e-08
1.23984e-08
1.23982e-08
1.2398e-08
1.23978e-08
1.23976e-08
1.23974e-08
1.23973e-08
1.23971e-08
1.23969e-08
1.23968e-08
1.23966e-08
1.23965e-08
1.23963e-08
1.23962e-08
1.2396e-08
1.23959e-08
1.23958e-08
1.23956e-08
1.23955e-08
1.23954e-08
1.23953e-08
1.23952e-08
1.2395e-08
1.23949e-08
1.23948e-08
1.23947e-08
1.23946e-08
1.23945e-08
1.23944e-08
1.23944e-08
1.23943e-08
1.23942e-08
1.23941e-08
1.2394e-08
1.23939e-08
1.23939e-08
1.23938e-08
1.23937e-08
1.23937e-08
1.23936e-08
1.23935e-08
1.23935e-08
1.23934e-08
1.23934e-08
1.23933e-08
1.23933e-08
1.23932e-08
1.23932e-08
1.23931e-08
1.23931e-08
1.2393e-08
1.2393e-08
1.23929e-08
1.23929e-08
1.23928e-08
1.23928e-08
1.23928e-08
1.23927e-08
1.23927e-08
1.23927e-08
1.23926e-08
1.23926e-08
1.23926e-08
1.23925e-08
1.23925e-08
1.23925e-08
1.23924e-08
1.23924e-08
1.23924e-08
1.23924e-08
1.23923e-08
1.23923e-08
1.23923e-08
1.23922e-08
1.23922e-08
1.23922e-08
1.23922e-08
1.23922e-08
1.23921e-08
1.23921e-08
1.23921e-08
1.23921e-08
1.23921e-08
1.2392e-08
1.2392e-08
1.2392e-08
1.2392e-08
1.2392e-08
1.23919e-08
1.23919e-08
1.23919e-08
1.23919e-08
1.23919e-08
1.23918e-08
1.23918e-08
1.23918e-08
1.23918e-08
1.23918e-08
1.23918e-08
1.23917e-08
1.23917e-08
1.23917e-08
1.23917e-08
1.23917e-08
1.23917e-08
1.23916e-08
1.23916e-08
1.23916e-08
1.23916e-08
1.23916e-08
1.23916e-08
1.23916e-08
1.23915e-08
1.23915e-08
1.23915e-08
1.23915e-08
1.23915e-08
1.23915e-08
1.23915e-08
1.23915e-08
1.23915e-08
1.23915e-08
1.23915e-08
1.23915e-08
1.23915e-08
1.23915e-08
1.23915e-08
1.23915e-08
1.23915e-08
1.23915e-08
1.23915e-08
1.23914e-08
1.23914e-08
1.23914e-08
1.23914e-08
1.23914e-08
1.23914e-08
1.23914e-08
1.23914e-08
1.23914e-08
1.23914e-08
1.23914e-08
1.23914e-08
1.23914e-08
1.23914e-08
1.23914e-08
1.23914e-08
1.23914e-08
1.23914e-08
1.23914e-08
1.23914e-08
1.23914e-08
1.23914e-08
1.23914e-08
1.23914e-08
1.23914e-08
1.23914e-08
1.23914e-08
1.23914e-08
1.23914e-08
1.23914e-08
1.23914e-08
1.23914e-08
1.23914e-08
1.23914e-08
1.23914e-08
1.23914e-08
1.23914e-08
1.23914e-08
1.23914e-08
1.23914e-08
1.23914e-08
1.23914e-08
1.23914e-08
1.23914e-08
1.23914e-08
1.23914e-08
1.23914e-08
1.23914e-08
1.23914e-08
1.23914e-08
1.23914e-08
1.23914e-08
1.23914e-08
1.23914e-08
1.23914e-08
1.23914e-08
1.23914e-08
1.23914e-08
1.23914e-08
1.23914e-08
1.23914e-08
1.23914e-08
1.23914e-08
1.23914e-08
1.23914e-08
1.23914e-08
1.23914e-08
1.23914e-08
1.23914e-08
1.23914e-08
1.23914e-08
1.23914e-08
1.23914e-08
1.23914e-08
1.23914e-08
1.23914e-08
1.23914e-08
1.23915e-08
1.23915e-08
1.23915e-08
1.23915e-08
1.23915e-08
1.23915e-08
1.23915e-08
1.23915e-08
1.23915e-08
1.23915e-08
1.23915e-08
1.23915e-08
1.23915e-08
1.23915e-08
1.23915e-08
1.23915e-08
1.23915e-08
1.23915e-08
1.23915e-08
1.23915e-08
1.23915e-08
1.23915e-08
1.23915e-08
1.23915e-08
1.23915e-08
1.23915e-08
1.23915e-08
1.23915e-08
1.23915e-08
1.23915e-08
1.23915e-08
1.23915e-08
1.23915e-08
1.23915e-08
1.23914e-08
1.23914e-08
1.23914e-08
1.23914e-08
1.23914e-08
1.23914e-08
1.23914e-08
1.23914e-08
1.23914e-08
1.23914e-08
1.23914e-08
1.23914e-08
1.23914e-08
1.23914e-08
1.23914e-08
1.23914e-08
1.23914e-08
1.23914e-08
1.23914e-08
1.23914e-08
1.23914e-08
1.23914e-08
1.23914e-08
1.23914e-08
1.23914e-08
1.23913e-08
1.23913e-08
1.23913e-08
1.23913e-08
1.23913e-08
1.23913e-08
1.23913e-08
1.23913e-08
1.23913e-08
1.23913e-08
1.23913e-08
1.23913e-08
1.23913e-08
1.23913e-08
1.23913e-08
1.23913e-08
1.23913e-08
1.23913e-08
1.23913e-08
1.23913e-08
1.23913e-08
1.23913e-08
1.23913e-08
1.23913e-08
1.23913e-08
1.23913e-08
1.23913e-08
1.23913e-08
1.23913e-08
1.23913e-08
1.23913e-08
1.23913e-08
1.23913e-08
1.23913e-08
1.23913e-08
1.23913e-08
1.23913e-08
1.23913e-08
1.23913e-08
1.23913e-08
1.23913e-08
1.23913e-08
1.23913e-08
1.23913e-08
1.23913e-08
1.23913e-08
1.23913e-08
1.23914e-08
1.23914e-08
1.23914e-08
1.23915e-08
1.23915e-08
1.23915e-08
1.23915e-08
1.23915e-08
1.23915e-08
1.23914e-08
1.23914e-08
1.23914e-08
1.23914e-08
1.23914e-08
1.23914e-08
1.23914e-08
1.23914e-08
1.23914e-08
1.23914e-08
1.23914e-08
1.23914e-08
1.23914e-08
1.23915e-08
1.23915e-08
1.23915e-08
1.23915e-08
1.23915e-08
1.23915e-08
1.23915e-08
1.23915e-08
1.23915e-08
1.23915e-08
1.23915e-08
1.23915e-08
1.23915e-08
1.23915e-08
1.23915e-08
1.23915e-08
1.23915e-08
1.23915e-08
1.23915e-08
1.23914e-08
1.23914e-08
1.23914e-08
1.23914e-08
1.23914e-08
1.23914e-08
1.23914e-08
1.23914e-08
1.23914e-08
1.23914e-08
1.23914e-08
1.23914e-08
1.23914e-08
1.23914e-08
1.23914e-08
1.23914e-08
1.23914e-08
1.23914e-08
1.23914e-08
1.23914e-08
1.23914e-08
1.23914e-08
1.23913e-08
1.23913e-08
1.23913e-08
1.23913e-08
1.23913e-08
1.23913e-08
1.23913e-08
1.23913e-08
1.23913e-08
1.23913e-08
1.23913e-08
1.23913e-08
1.23913e-08
1.23912e-08
1.23912e-08
1.23912e-08
1.23912e-08
1.23918e-08
2.47988e-08
2.25386e-08
8.65899e-08
2.93967e-07
2.8602e-07
2.76174e-07
2.69557e-07
2.63741e-07
2.58586e-07
2.54053e-07
2.50112e-07
2.46701e-07
2.43756e-07
2.41239e-07
2.39127e-07
2.3737e-07
2.35939e-07
2.34835e-07
2.34047e-07
2.33544e-07
2.33297e-07
2.33302e-07
2.33559e-07
2.34058e-07
2.34783e-07
2.35726e-07
2.36887e-07
2.38257e-07
2.39821e-07
2.4157e-07
2.43513e-07
2.4565e-07
2.47973e-07
2.50476e-07
2.53163e-07
2.56033e-07
2.59081e-07
2.62296e-07
2.65676e-07
2.69219e-07
2.72915e-07
2.76744e-07
2.807e-07
2.84784e-07
2.88999e-07
2.93341e-07
2.97803e-07
3.02385e-07
3.07093e-07
3.11926e-07
3.16868e-07
3.21899e-07
3.27002e-07
3.32167e-07
3.37396e-07
3.42681e-07
3.47993e-07
3.5328e-07
3.58484e-07
3.63567e-07
3.685e-07
3.73216e-07
3.77585e-07
3.81452e-07
3.84693e-07
3.87174e-07
3.88667e-07
3.88817e-07
3.87261e-07
3.83685e-07
3.77706e-07
3.68897e-07
3.5694e-07
3.41381e-07
3.20734e-07
2.90109e-07
2.32021e-07
2.48932e-07
1.90358e-07
1.93107e-07
8.72522e-08
9.22717e-08
1.9998e-07
2.04967e-07
8.39409e-07
5.99518e-07
1.63567e-06
3.85852e-06
3.04566e-06
2.05458e-06
1.91741e-06
2.41215e-06
2.27655e-06
2.44251e-06
2.5537e-06
2.38835e-06
2.38615e-06
2.42334e-06
2.4767e-06
2.43714e-06
2.42867e-06
2.22534e-06
2.2511e-06
2.50031e-06
2.52316e-06
2.65275e-06
2.69453e-06
2.75019e-06
2.85037e-06
2.90982e-06
2.92278e-06
2.98117e-06
3.04727e-06
3.10817e-06
3.18078e-06
3.26734e-06
3.39569e-06
3.40097e-06
3.43142e-06
3.20396e-06
3.27594e-06
3.66289e-06
3.73732e-06
3.9467e-06
4.04676e-06
4.1963e-06
4.30475e-06
4.34694e-06
4.4389e-06
4.5468e-06
4.64901e-06
4.75835e-06
4.87021e-06
4.9836e-06
5.10437e-06
5.22893e-06
5.35417e-06
5.48071e-06
5.61299e-06
5.75221e-06
5.89689e-06
6.04259e-06
6.18895e-06
6.21594e-06
6.21691e-06
6.21778e-06
6.21864e-06
6.21957e-06
6.22048e-06
6.22131e-06
6.22213e-06
6.22296e-06
6.22376e-06
6.22452e-06
6.22527e-06
6.22601e-06
6.22672e-06
6.22743e-06
6.22813e-06
6.22878e-06
6.22938e-06
6.23003e-06
6.23073e-06
6.23137e-06
6.23193e-06
6.23248e-06
6.23306e-06
6.23364e-06
6.23416e-06
6.23463e-06
6.23516e-06
6.23571e-06
6.2362e-06
6.23664e-06
6.2371e-06
6.23758e-06
6.23799e-06
6.23838e-06
6.23878e-06
6.2392e-06
6.23958e-06
6.23995e-06
6.24035e-06
6.24076e-06
6.24112e-06
6.24146e-06
6.24179e-06
6.24212e-06
6.24243e-06
6.24272e-06
6.24303e-06
6.24335e-06
6.24366e-06
6.24395e-06
6.24421e-06
6.24447e-06
6.24472e-06
6.24497e-06
6.2452e-06
6.24543e-06
6.24565e-06
6.24586e-06
6.24607e-06
6.24628e-06
6.24648e-06
6.24668e-06
6.2469e-06
6.2471e-06
6.24731e-06
6.24752e-06
6.24772e-06
6.24789e-06
6.24802e-06
6.24816e-06
6.2483e-06
6.24842e-06
6.24852e-06
6.24865e-06
6.24879e-06
6.24892e-06
6.24904e-06
6.24914e-06
6.24925e-06
6.24933e-06
6.24939e-06
6.24944e-06
6.24951e-06
6.24959e-06
6.24967e-06
6.24975e-06
6.24983e-06
6.24991e-06
6.24998e-06
6.25005e-06
6.25012e-06
6.25018e-06
6.25023e-06
6.25028e-06
6.25033e-06
6.2504e-06
6.25048e-06
6.25055e-06
6.2506e-06
6.25065e-06
6.25068e-06
6.25071e-06
6.25075e-06
6.25079e-06
6.25083e-06
6.25084e-06
6.25087e-06
6.25091e-06
6.25097e-06
6.25101e-06
6.25103e-06
6.25104e-06
6.25108e-06
6.25114e-06
6.2512e-06
6.25123e-06
6.25125e-06
6.25126e-06
6.25127e-06
6.25129e-06
6.25131e-06
6.25133e-06
6.25136e-06
6.25138e-06
6.25141e-06
6.25145e-06
6.25148e-06
6.25152e-06
6.25154e-06
6.25156e-06
6.25157e-06
6.25158e-06
6.25158e-06
6.25159e-06
6.25159e-06
6.25159e-06
6.25158e-06
6.25158e-06
6.25159e-06
6.25161e-06
6.25163e-06
6.25165e-06
6.25167e-06
6.25169e-06
6.25171e-06
6.25174e-06
6.25176e-06
6.25178e-06
6.2518e-06
6.25181e-06
6.25181e-06
6.2518e-06
6.25179e-06
6.25179e-06
6.25179e-06
6.25179e-06
6.25179e-06
6.25179e-06
6.25179e-06
6.2518e-06
6.25182e-06
6.25184e-06
6.25186e-06
6.25188e-06
6.25189e-06
6.25189e-06
6.25189e-06
6.25188e-06
6.25187e-06
6.25185e-06
6.25184e-06
6.25183e-06
6.25183e-06
6.25184e-06
6.25185e-06
6.25187e-06
6.25189e-06
6.25191e-06
6.25195e-06
6.25198e-06
6.25201e-06
6.25203e-06
6.25203e-06
6.25201e-06
6.252e-06
6.252e-06
6.25201e-06
6.25203e-06
6.25205e-06
6.25209e-06
6.25214e-06
6.2522e-06
6.25224e-06
6.25227e-06
6.25228e-06
6.25229e-06
6.2523e-06
6.2523e-06
6.25229e-06
6.25229e-06
6.2523e-06
6.25232e-06
6.25235e-06
6.25238e-06
6.25242e-06
6.25246e-06
6.25249e-06
6.2525e-06
6.25251e-06
6.25251e-06
6.25251e-06
6.2525e-06
6.25251e-06
6.25253e-06
6.25256e-06
6.25258e-06
6.25262e-06
6.25264e-06
6.25266e-06
6.25266e-06
6.25266e-06
6.25265e-06
6.25264e-06
6.25264e-06
6.25265e-06
6.25266e-06
6.25269e-06
6.25271e-06
6.25274e-06
6.25275e-06
6.25276e-06
6.25277e-06
6.25278e-06
6.25278e-06
6.25279e-06
6.25281e-06
6.25283e-06
6.25286e-06
6.25288e-06
6.25289e-06
6.25289e-06
6.25287e-06
6.25286e-06
6.25286e-06
6.25286e-06
6.25288e-06
6.2529e-06
6.25292e-06
6.25293e-06
6.25293e-06
6.25291e-06
6.2529e-06
6.25289e-06
6.2529e-06
6.25292e-06
6.25295e-06
6.25299e-06
6.253e-06
6.25301e-06
6.25302e-06
6.25302e-06
6.25303e-06
6.25305e-06
6.25308e-06
6.2531e-06
6.2531e-06
6.2531e-06
6.2531e-06
6.25312e-06
6.25314e-06
6.25317e-06
6.25319e-06
6.25321e-06
6.25323e-06
6.25324e-06
6.25326e-06
6.25327e-06
6.25328e-06
6.25327e-06
6.25328e-06
6.25329e-06
6.25332e-06
6.25336e-06
6.25338e-06
6.2534e-06
6.25341e-06
6.25344e-06
6.25348e-06
6.25352e-06
6.25354e-06
6.25353e-06
6.25352e-06
6.25351e-06
6.25353e-06
6.25351e-06
6.25354e-06
6.25351e-06
6.25347e-06
6.25344e-06
6.25345e-06
6.25347e-06
6.25345e-06
6.25345e-06
6.25345e-06
6.25346e-06
6.25349e-06
6.25344e-06
6.25344e-06
6.25337e-06
6.25337e-06
6.25331e-06
6.25333e-06
6.25345e-06
6.25334e-06
6.25348e-06
6.25356e-06
6.25345e-06
6.25351e-06
6.25353e-06
6.25353e-06
6.25349e-06
6.25356e-06
6.25348e-06
6.25281e-06
6.25161e-06
6.25087e-06
6.25197e-06
6.25255e-06
6.25286e-06
6.25305e-06
6.25322e-06
6.25331e-06
6.25336e-06
6.25337e-06
6.25338e-06
6.2534e-06
6.25344e-06
6.25352e-06
6.25358e-06
6.25359e-06
6.25357e-06
6.25356e-06
6.25355e-06
6.25356e-06
6.25356e-06
6.25356e-06
6.25355e-06
6.25353e-06
6.25348e-06
6.25342e-06
6.25337e-06
6.25333e-06
6.25328e-06
6.25326e-06
6.25325e-06
6.25327e-06
6.2533e-06
6.25336e-06
6.25346e-06
6.25351e-06
6.25355e-06
6.25356e-06
6.25355e-06
6.25354e-06
6.25354e-06
6.25354e-06
6.25351e-06
6.25347e-06
6.25337e-06
6.25328e-06
6.2532e-06
6.25315e-06
6.25312e-06
6.25313e-06
6.25317e-06
6.25321e-06
6.25327e-06
6.25331e-06
6.25329e-06
6.2532e-06
6.25309e-06
6.25294e-06
6.25303e-06
6.25322e-06
6.25338e-06
6.25329e-06
6.25293e-06
6.25257e-06
6.25248e-06
6.25283e-06
6.2531e-06
6.25299e-06
6.25252e-06
6.25263e-06
6.25312e-06
6.25342e-06
6.25318e-06
6.25305e-06
6.25349e-06
6.25363e-06
6.2533e-06
6.25289e-06
6.25301e-06
6.25262e-06
6.25238e-06
6.26158e-06
2.40829e-08
2.25052e-08
8.62161e-08
2.90591e-07
2.82906e-07
2.73264e-07
2.66772e-07
2.61051e-07
2.56023e-07
2.51618e-07
2.47783e-07
2.44494e-07
2.41689e-07
2.39288e-07
2.37256e-07
2.35579e-07
2.34239e-07
2.33221e-07
2.32501e-07
2.32057e-07
2.31866e-07
2.31918e-07
2.32212e-07
2.32745e-07
2.3351e-07
2.34497e-07
2.35696e-07
2.37098e-07
2.38697e-07
2.40489e-07
2.42477e-07
2.44656e-07
2.47009e-07
2.4953e-07
2.52228e-07
2.55116e-07
2.58192e-07
2.61435e-07
2.64829e-07
2.68371e-07
2.72069e-07
2.75926e-07
2.79934e-07
2.84079e-07
2.88349e-07
2.92742e-07
2.97263e-07
3.0192e-07
3.06704e-07
3.11599e-07
3.16584e-07
3.2165e-07
3.26804e-07
3.32059e-07
3.37421e-07
3.42865e-07
3.48342e-07
3.53809e-07
3.59252e-07
3.6467e-07
3.7004e-07
3.75273e-07
3.80249e-07
3.84888e-07
3.89177e-07
3.93052e-07
3.96327e-07
3.98836e-07
4.00634e-07
4.01862e-07
4.02531e-07
4.02874e-07
4.03903e-07
4.07464e-07
4.17375e-07
4.42961e-07
5.14931e-07
7.77413e-07
8.39299e-07
3.23742e-07
2.82766e-07
1.83138e-07
1.89464e-07
8.73989e-08
9.17285e-08
1.73214e-07
2.04998e-07
2.57371e-07
1.05079e-06
7.42346e-07
5.85109e-06
5.45894e-06
2.07398e-06
1.92131e-06
2.35254e-06
2.24629e-06
2.42755e-06
2.5749e-06
2.47912e-06
2.4864e-06
2.4847e-06
2.4889e-06
2.44776e-06
2.48153e-06
2.2904e-06
2.32224e-06
2.58019e-06
2.59979e-06
2.72556e-06
2.8375e-06
2.90734e-06
3.01022e-06
3.08817e-06
3.11388e-06
3.19111e-06
3.29058e-06
3.41817e-06
3.49429e-06
3.51977e-06
3.57969e-06
3.56475e-06
3.63762e-06
3.41298e-06
3.48676e-06
3.88936e-06
3.97437e-06
4.21211e-06
4.31894e-06
4.46693e-06
4.58363e-06
4.63454e-06
4.73485e-06
4.85439e-06
4.96762e-06
5.08706e-06
5.21193e-06
5.34096e-06
5.47267e-06
5.60861e-06
5.74342e-06
5.88063e-06
6.0261e-06
6.17831e-06
6.33413e-06
6.49609e-06
6.6626e-06
6.83201e-06
7.00645e-06
7.18501e-06
7.3651e-06
7.54939e-06
7.74707e-06
7.95859e-06
8.17354e-06
8.38919e-06
8.61613e-06
8.85677e-06
9.09764e-06
9.33261e-06
9.57124e-06
9.82272e-06
9.99536e-06
9.99537e-06
9.99537e-06
9.99537e-06
9.99537e-06
9.99537e-06
9.99538e-06
9.99538e-06
9.99538e-06
9.99538e-06
9.99538e-06
9.99538e-06
9.99538e-06
9.99539e-06
9.99539e-06
9.99539e-06
9.99539e-06
9.99539e-06
9.99539e-06
9.99539e-06
9.9954e-06
9.9954e-06
9.9954e-06
9.9954e-06
9.9954e-06
9.9954e-06
9.9954e-06
9.9954e-06
9.99541e-06
9.99541e-06
9.99541e-06
9.99541e-06
9.99541e-06
9.99541e-06
9.99541e-06
9.99541e-06
9.99541e-06
9.99542e-06
9.99542e-06
9.99542e-06
9.99542e-06
9.99542e-06
9.99542e-06
9.99542e-06
9.99542e-06
9.99542e-06
9.99542e-06
9.99542e-06
9.99542e-06
9.99543e-06
9.99543e-06
9.99543e-06
9.99543e-06
9.99543e-06
9.99543e-06
9.99543e-06
9.99543e-06
9.99543e-06
9.99543e-06
9.99543e-06
9.99543e-06
9.99543e-06
9.99543e-06
9.99543e-06
9.99543e-06
9.99543e-06
9.99543e-06
9.99543e-06
9.99543e-06
9.99543e-06
9.99543e-06
9.99543e-06
9.99543e-06
9.99543e-06
9.99543e-06
9.99543e-06
9.99543e-06
9.99543e-06
9.99543e-06
9.99543e-06
9.99543e-06
9.99543e-06
9.99543e-06
9.99543e-06
9.99544e-06
9.99544e-06
9.99544e-06
9.99544e-06
9.99544e-06
9.99544e-06
9.99544e-06
9.99544e-06
9.99544e-06
9.99544e-06
9.99544e-06
9.99544e-06
9.99544e-06
9.99544e-06
9.99544e-06
9.99544e-06
9.99544e-06
9.99544e-06
9.99544e-06
9.99544e-06
9.99544e-06
9.99544e-06
9.99544e-06
9.99544e-06
9.99544e-06
9.99544e-06
9.99544e-06
9.99544e-06
9.99544e-06
9.99544e-06
9.99544e-06
9.99544e-06
9.99544e-06
9.99544e-06
9.99544e-06
9.99544e-06
9.99544e-06
9.99544e-06
9.99544e-06
9.99544e-06
9.99544e-06
9.99544e-06
9.99544e-06
9.99544e-06
9.99544e-06
9.99544e-06
9.99544e-06
9.99544e-06
9.99544e-06
9.99544e-06
9.99544e-06
9.99544e-06
9.99544e-06
9.99544e-06
9.99544e-06
9.99544e-06
9.99544e-06
9.99544e-06
9.99544e-06
9.99544e-06
9.99544e-06
9.99544e-06
9.99544e-06
9.99544e-06
9.99544e-06
9.99544e-06
9.99544e-06
9.99544e-06
9.99544e-06
9.99544e-06
9.99544e-06
9.99544e-06
9.99544e-06
9.99544e-06
9.99544e-06
9.99544e-06
9.99544e-06
9.99544e-06
9.99544e-06
9.99544e-06
9.99544e-06
9.99544e-06
9.99544e-06
9.99544e-06
9.99544e-06
9.99544e-06
9.99544e-06
9.99544e-06
9.99544e-06
9.99544e-06
9.99544e-06
9.99544e-06
9.99544e-06
9.99544e-06
9.99544e-06
9.99544e-06
9.99544e-06
9.99544e-06
9.99544e-06
9.99544e-06
9.99544e-06
9.99544e-06
9.99544e-06
9.99544e-06
9.99544e-06
9.99544e-06
9.99544e-06
9.99544e-06
9.99544e-06
9.99544e-06
9.99544e-06
9.99544e-06
9.99544e-06
9.99544e-06
9.99544e-06
9.99544e-06
9.99544e-06
9.99544e-06
9.99544e-06
9.99544e-06
9.99544e-06
9.99544e-06
9.99544e-06
9.99544e-06
9.99544e-06
9.99544e-06
9.99544e-06
9.99544e-06
9.99544e-06
9.99544e-06
9.99544e-06
9.99544e-06
9.99544e-06
9.99544e-06
9.99544e-06
9.99544e-06
9.99544e-06
9.99544e-06
9.99544e-06
9.99544e-06
9.99544e-06
9.99544e-06
9.99545e-06
9.99545e-06
9.99545e-06
9.99545e-06
9.99545e-06
9.99545e-06
9.99545e-06
9.99545e-06
9.99545e-06
9.99545e-06
9.99545e-06
9.99545e-06
9.99545e-06
9.99545e-06
9.99545e-06
9.99545e-06
9.99545e-06
9.99545e-06
9.99545e-06
9.99545e-06
9.99545e-06
9.99545e-06
9.99545e-06
9.99545e-06
9.99545e-06
9.99545e-06
9.99545e-06
9.99545e-06
9.99545e-06
9.99545e-06
9.99545e-06
9.99545e-06
9.99545e-06
9.99545e-06
9.99545e-06
9.99545e-06
9.99545e-06
9.99545e-06
9.99545e-06
9.99545e-06
9.99545e-06
9.99545e-06
9.99545e-06
9.99545e-06
9.99545e-06
9.99545e-06
9.99545e-06
9.99545e-06
9.99545e-06
9.99545e-06
9.99545e-06
9.99545e-06
9.99545e-06
9.99545e-06
9.99545e-06
9.99545e-06
9.99545e-06
9.99545e-06
9.99545e-06
9.99545e-06
9.99545e-06
9.99545e-06
9.99545e-06
9.99545e-06
9.99545e-06
9.99545e-06
9.99545e-06
9.99545e-06
9.99545e-06
9.99545e-06
9.99545e-06
9.99545e-06
9.99545e-06
9.99545e-06
9.99545e-06
9.99545e-06
9.99545e-06
9.99545e-06
9.99545e-06
9.99545e-06
9.99544e-06
9.99544e-06
9.99544e-06
9.99544e-06
9.99545e-06
9.99545e-06
9.99545e-06
9.99545e-06
9.99545e-06
9.99545e-06
9.99545e-06
9.99545e-06
9.99545e-06
9.99545e-06
9.99545e-06
9.99545e-06
9.99545e-06
9.99545e-06
9.99545e-06
9.99545e-06
9.99545e-06
9.99545e-06
9.99545e-06
9.99545e-06
9.99545e-06
9.99545e-06
9.99545e-06
9.99545e-06
9.99545e-06
9.99545e-06
9.99545e-06
9.99545e-06
9.99545e-06
9.99545e-06
9.99545e-06
9.99545e-06
9.99545e-06
9.99545e-06
9.99545e-06
9.99545e-06
9.99545e-06
9.99545e-06
9.99545e-06
9.99545e-06
9.99545e-06
9.99545e-06
9.99545e-06
9.99545e-06
9.99545e-06
9.99545e-06
9.99545e-06
9.99545e-06
9.99545e-06
9.99545e-06
9.99545e-06
9.99545e-06
9.99545e-06
9.99545e-06
9.99545e-06
9.99545e-06
9.99545e-06
9.99545e-06
9.99545e-06
9.99544e-06
9.99544e-06
9.99544e-06
9.99544e-06
9.99544e-06
9.99544e-06
9.99544e-06
9.99544e-06
9.99545e-06
9.99545e-06
9.99545e-06
9.99545e-06
9.99545e-06
9.99545e-06
9.99545e-06
9.99544e-06
9.99544e-06
9.99544e-06
9.99544e-06
9.99547e-06
2.31247e-08
2.2449e-08
8.56428e-08
2.84735e-07
2.77772e-07
2.68735e-07
2.62644e-07
2.57247e-07
2.52492e-07
2.48343e-07
2.4475e-07
2.41659e-07
2.39002e-07
2.36731e-07
2.34825e-07
2.33277e-07
2.32064e-07
2.31155e-07
2.30521e-07
2.3015e-07
2.30032e-07
2.30152e-07
2.30505e-07
2.31098e-07
2.31926e-07
2.3297e-07
2.34216e-07
2.35664e-07
2.37318e-07
2.39173e-07
2.41212e-07
2.43427e-07
2.45815e-07
2.48383e-07
2.5114e-07
2.54082e-07
2.57196e-07
2.60463e-07
2.6388e-07
2.67455e-07
2.71201e-07
2.75113e-07
2.79172e-07
2.83361e-07
2.87676e-07
2.92122e-07
2.96707e-07
3.01426e-07
3.06269e-07
3.11218e-07
3.16267e-07
3.21422e-07
3.26697e-07
3.32101e-07
3.37628e-07
3.43252e-07
3.48939e-07
3.54668e-07
3.60452e-07
3.66306e-07
3.72193e-07
3.78024e-07
3.8373e-07
3.89334e-07
3.94889e-07
4.00364e-07
4.05678e-07
4.10892e-07
4.16262e-07
4.22105e-07
4.28814e-07
4.37095e-07
4.48232e-07
4.64651e-07
4.90502e-07
5.32759e-07
6.05099e-07
7.33596e-07
8.94491e-07
1.17166e-06
1.92551e-06
1.30619e-06
3.98145e-07
3.34565e-07
2.13687e-07
1.8642e-07
1.56544e-07
9.4189e-08
9.93332e-08
2.09885e-07
2.20471e-07
9.91512e-07
7.40125e-07
3.72341e-06
5.54592e-06
1.93785e-06
1.85185e-06
2.34734e-06
2.29078e-06
2.4689e-06
2.61993e-06
2.53229e-06
2.53939e-06
2.56009e-06
2.56806e-06
2.56498e-06
2.53222e-06
2.58078e-06
2.42086e-06
2.46907e-06
2.75301e-06
2.81655e-06
3.00732e-06
3.09643e-06
3.21691e-06
3.31274e-06
3.35835e-06
3.44071e-06
3.53039e-06
3.64969e-06
3.72034e-06
3.7527e-06
3.81782e-06
3.79098e-06
3.86524e-06
3.63821e-06
3.71835e-06
4.13642e-06
4.22725e-06
4.493e-06
4.61204e-06
4.76088e-06
4.88484e-06
4.9437e-06
5.05076e-06
5.17957e-06
5.31983e-06
5.45132e-06
5.59077e-06
5.72926e-06
5.86572e-06
6.01206e-06
6.16465e-06
6.31908e-06
6.48045e-06
6.64219e-06
6.8052e-06
6.97685e-06
7.16048e-06
7.34915e-06
7.53885e-06
7.73651e-06
7.94941e-06
8.16719e-06
8.38071e-06
8.59807e-06
8.82725e-06
9.0604e-06
9.29463e-06
9.54155e-06
9.80671e-06
1e-05
1e-05
1e-05
9.99999e-06
9.99999e-06
9.99999e-06
9.99999e-06
9.99999e-06
9.99999e-06
9.99999e-06
9.99999e-06
9.99999e-06
9.99999e-06
9.99999e-06
9.99999e-06
9.99999e-06
9.99999e-06
9.99999e-06
9.99999e-06
9.99999e-06
9.99999e-06
9.99999e-06
9.99999e-06
9.99999e-06
9.99999e-06
9.99999e-06
9.99999e-06
9.99999e-06
9.99998e-06
9.99998e-06
9.99998e-06
9.99998e-06
9.99998e-06
9.99998e-06
9.99998e-06
9.99998e-06
9.99998e-06
9.99998e-06
9.99998e-06
9.99998e-06
9.99998e-06
9.99998e-06
9.99998e-06
9.99998e-06
9.99998e-06
9.99998e-06
9.99998e-06
9.99998e-06
9.99998e-06
9.99998e-06
9.99998e-06
9.99998e-06
9.99998e-06
9.99998e-06
9.99998e-06
9.99998e-06
9.99998e-06
9.99998e-06
9.99998e-06
9.99998e-06
9.99998e-06
9.99998e-06
9.99998e-06
9.99998e-06
9.99998e-06
9.99998e-06
9.99998e-06
9.99998e-06
9.99998e-06
9.99998e-06
9.99998e-06
9.99998e-06
9.99998e-06
9.99998e-06
9.99998e-06
9.99998e-06
9.99998e-06
9.99998e-06
9.99998e-06
9.99998e-06
9.99998e-06
9.99998e-06
9.99998e-06
9.99998e-06
9.99998e-06
9.99998e-06
9.99998e-06
9.99998e-06
9.99998e-06
9.99998e-06
9.99998e-06
9.99998e-06
9.99998e-06
9.99998e-06
9.99998e-06
9.99998e-06
9.99998e-06
9.99998e-06
9.99998e-06
9.99998e-06
9.99998e-06
9.99998e-06
9.99998e-06
9.99998e-06
9.99998e-06
9.99998e-06
9.99998e-06
9.99998e-06
9.99998e-06
9.99998e-06
9.99998e-06
9.99998e-06
9.99998e-06
9.99998e-06
9.99998e-06
9.99998e-06
9.99998e-06
9.99998e-06
9.99998e-06
9.99998e-06
9.99998e-06
9.99998e-06
9.99998e-06
9.99998e-06
9.99998e-06
9.99998e-06
9.99998e-06
9.99998e-06
9.99998e-06
9.99998e-06
9.99998e-06
9.99998e-06
9.99998e-06
9.99998e-06
9.99998e-06
9.99998e-06
9.99998e-06
9.99998e-06
9.99998e-06
9.99998e-06
9.99998e-06
9.99998e-06
9.99998e-06
9.99998e-06
9.99998e-06
9.99998e-06
9.99998e-06
9.99998e-06
9.99998e-06
9.99998e-06
9.99998e-06
9.99998e-06
9.99998e-06
9.99998e-06
9.99998e-06
9.99998e-06
9.99998e-06
9.99998e-06
9.99998e-06
9.99998e-06
9.99998e-06
9.99998e-06
9.99998e-06
9.99998e-06
9.99998e-06
9.99998e-06
9.99998e-06
9.99998e-06
9.99998e-06
9.99998e-06
9.99998e-06
9.99998e-06
9.99998e-06
9.99998e-06
9.99998e-06
9.99998e-06
9.99998e-06
9.99998e-06
9.99998e-06
9.99998e-06
9.99998e-06
9.99998e-06
9.99998e-06
9.99998e-06
9.99998e-06
9.99998e-06
9.99998e-06
9.99998e-06
9.99998e-06
9.99998e-06
9.99998e-06
9.99998e-06
9.99998e-06
9.99998e-06
9.99998e-06
9.99998e-06
9.99998e-06
9.99998e-06
9.99998e-06
9.99998e-06
9.99998e-06
9.99998e-06
9.99998e-06
9.99998e-06
9.99998e-06
9.99998e-06
9.99998e-06
9.99998e-06
9.99998e-06
9.99998e-06
9.99998e-06
9.99998e-06
9.99998e-06
9.99998e-06
9.99998e-06
9.99998e-06
9.99998e-06
9.99998e-06
9.99998e-06
9.99998e-06
9.99998e-06
9.99998e-06
9.99998e-06
9.99998e-06
9.99998e-06
9.99998e-06
9.99998e-06
9.99998e-06
9.99998e-06
9.99998e-06
9.99998e-06
9.99998e-06
9.99998e-06
9.99998e-06
9.99998e-06
9.99998e-06
9.99998e-06
9.99998e-06
9.99998e-06
9.99998e-06
9.99998e-06
9.99998e-06
9.99998e-06
9.99998e-06
9.99998e-06
9.99998e-06
9.99998e-06
9.99998e-06
9.99998e-06
9.99998e-06
9.99998e-06
9.99998e-06
9.99998e-06
9.99998e-06
9.99998e-06
9.99998e-06
9.99998e-06
9.99998e-06
9.99998e-06
9.99998e-06
9.99998e-06
9.99998e-06
9.99998e-06
9.99998e-06
9.99998e-06
9.99998e-06
9.99998e-06
9.99998e-06
9.99998e-06
9.99998e-06
9.99998e-06
9.99998e-06
9.99998e-06
9.99998e-06
9.99998e-06
9.99998e-06
9.99998e-06
9.99998e-06
9.99998e-06
9.99998e-06
9.99998e-06
9.99998e-06
9.99998e-06
9.99998e-06
9.99998e-06
9.99998e-06
9.99998e-06
9.99998e-06
9.99998e-06
9.99998e-06
9.99998e-06
9.99998e-06
9.99998e-06
9.99998e-06
9.99998e-06
9.99998e-06
9.99998e-06
9.99998e-06
9.99998e-06
9.99998e-06
9.99998e-06
9.99998e-06
9.99998e-06
9.99998e-06
9.99998e-06
9.99998e-06
9.99998e-06
9.99998e-06
9.99998e-06
9.99998e-06
9.99998e-06
9.99998e-06
9.99998e-06
9.99998e-06
9.99998e-06
9.99998e-06
9.99998e-06
9.99998e-06
9.99998e-06
9.99998e-06
9.99998e-06
9.99998e-06
9.99998e-06
9.99998e-06
9.99998e-06
9.99998e-06
9.99998e-06
9.99998e-06
9.99998e-06
9.99998e-06
9.99998e-06
9.99998e-06
9.99998e-06
9.99998e-06
9.99998e-06
9.99998e-06
9.99998e-06
9.99998e-06
9.99998e-06
9.99998e-06
9.99998e-06
9.99998e-06
9.99998e-06
9.99998e-06
9.99998e-06
9.99998e-06
9.99998e-06
9.99998e-06
9.99998e-06
9.99998e-06
9.99998e-06
9.99998e-06
9.99998e-06
9.99998e-06
9.99998e-06
9.99998e-06
9.99998e-06
9.99998e-06
9.99998e-06
9.99998e-06
9.99998e-06
9.99998e-06
9.99998e-06
9.99998e-06
9.99998e-06
9.99998e-06
9.99998e-06
9.99998e-06
9.99998e-06
9.99998e-06
9.99998e-06
9.99998e-06
9.99998e-06
9.99998e-06
9.99998e-06
9.99998e-06
9.99998e-06
9.99998e-06
9.99998e-06
9.99998e-06
9.99998e-06
9.99998e-06
9.99998e-06
9.99998e-06
9.99998e-06
9.99998e-06
9.99998e-06
9.99998e-06
9.99998e-06
2.19858e-08
2.23764e-08
8.48934e-08
2.76993e-07
2.70867e-07
2.62599e-07
2.57055e-07
2.52141e-07
2.47825e-07
2.44058e-07
2.40782e-07
2.37949e-07
2.35511e-07
2.33437e-07
2.31714e-07
2.3033e-07
2.29265e-07
2.28486e-07
2.27961e-07
2.27684e-07
2.27658e-07
2.2788e-07
2.28336e-07
2.29014e-07
2.29908e-07
2.31011e-07
2.32324e-07
2.33847e-07
2.35571e-07
2.37478e-07
2.39562e-07
2.41829e-07
2.44283e-07
2.46922e-07
2.49738e-07
2.52726e-07
2.55884e-07
2.59207e-07
2.62692e-07
2.6634e-07
2.70145e-07
2.74097e-07
2.78191e-07
2.82422e-07
2.86792e-07
2.91302e-07
2.95951e-07
3.00734e-07
3.05648e-07
3.10692e-07
3.15862e-07
3.21161e-07
3.266e-07
3.32189e-07
3.37925e-07
3.43781e-07
3.49732e-07
3.55778e-07
3.6195e-07
3.6826e-07
3.74676e-07
3.81145e-07
3.87679e-07
3.94351e-07
4.012e-07
4.08202e-07
4.15449e-07
4.23244e-07
4.31859e-07
4.41493e-07
4.52777e-07
4.66756e-07
4.84472e-07
5.08283e-07
5.41842e-07
5.88406e-07
6.54584e-07
7.46855e-07
8.55877e-07
9.69316e-07
1.11922e-06
1.16072e-06
1.31289e-06
1.12303e-06
7.77349e-07
5.35373e-07
3.50483e-07
2.99163e-07
1.91096e-07
1.98036e-07
9.7276e-08
1.03971e-07
2.16262e-07
2.26704e-07
1.07965e-06
8.00313e-07
3.32491e-06
4.92748e-06
1.95546e-06
1.86967e-06
2.42372e-06
2.37587e-06
2.52648e-06
2.67678e-06
2.59407e-06
2.60026e-06
2.60923e-06
2.6247e-06
2.67219e-06
2.64538e-06
2.71934e-06
2.57536e-06
2.64041e-06
2.94756e-06
3.02613e-06
3.25263e-06
3.34881e-06
3.46777e-06
3.56077e-06
3.59902e-06
3.66918e-06
3.76025e-06
3.88696e-06
3.96061e-06
3.99955e-06
4.06533e-06
4.02711e-06
4.11044e-06
3.88385e-06
3.97477e-06
4.41629e-06
4.51173e-06
4.80017e-06
4.91806e-06
5.02296e-06
5.20912e-06
5.34969e-06
5.43459e-06
5.56876e-06
5.7191e-06
5.85526e-06
6.00742e-06
6.16111e-06
6.30046e-06
6.45009e-06
6.61919e-06
6.79507e-06
6.96775e-06
7.15004e-06
7.34711e-06
7.54663e-06
7.74192e-06
7.94417e-06
8.15313e-06
8.36264e-06
8.57916e-06
8.81007e-06
9.04497e-06
9.28e-06
9.53407e-06
9.81188e-06
1e-05
1e-05
1e-05
1e-05
1e-05
1e-05
1e-05
1e-05
9.99999e-06
9.99999e-06
9.99999e-06
9.99999e-06
9.99999e-06
9.99999e-06
9.99999e-06
9.99999e-06
9.99999e-06
9.99999e-06
9.99999e-06
9.99999e-06
9.99999e-06
9.99999e-06
9.99999e-06
9.99999e-06
9.99999e-06
9.99999e-06
9.99999e-06
9.99999e-06
9.99999e-06
9.99999e-06
9.99999e-06
9.99999e-06
9.99999e-06
9.99999e-06
9.99999e-06
9.99999e-06
9.99999e-06
9.99999e-06
9.99999e-06
9.99999e-06
9.99999e-06
9.99999e-06
9.99999e-06
9.99999e-06
9.99999e-06
9.99999e-06
9.99999e-06
9.99999e-06
9.99999e-06
9.99999e-06
9.99999e-06
9.99999e-06
9.99999e-06
9.99999e-06
9.99999e-06
9.99999e-06
9.99999e-06
9.99999e-06
9.99999e-06
9.99999e-06
9.99999e-06
9.99999e-06
9.99999e-06
9.99999e-06
9.99999e-06
9.99999e-06
9.99998e-06
9.99998e-06
9.99998e-06
9.99998e-06
9.99998e-06
9.99998e-06
9.99998e-06
9.99998e-06
9.99998e-06
9.99998e-06
9.99998e-06
9.99998e-06
9.99998e-06
9.99998e-06
9.99998e-06
9.99998e-06
9.99998e-06
9.99998e-06