/*--------------------------------*- C++ -*----------------------------------*\
| =========                 |                                                 |
| \\      /  F ield         | OpenFOAM: The Open Source CFD Toolbox           |
|  \\    /   O peration     | Version:  v2006                                 |
|   \\  /    A nd           | Website:  www.openfoam.com                      |
|    \\/     M anipulation  |                                                 |
\*---------------------------------------------------------------------------*/
FoamFile
{
    version     2.0;
    format      ascii;
    class       volScalarField;
    location    "0.1";
    object      p;
}
// * * * * * * * * * * * * * * * * * * * * * * * * * * * * * * * * * * * * * //

dimensions      [1 -1 -2 0 0 0 0];


internalField   nonuniform List<scalar> 
33000
(
7782.25
7781.35
7780.65
7779.96
7779.27
7778.59
7777.91
7777.24
7776.58
7775.93
7775.28
7774.64
7774.01
7773.39
7772.77
7772.16
7771.56
7770.97
7770.39
7769.82
7769.26
7768.7
7768.15
7767.61
7767.08
7766.56
7766.05
7765.55
7765.05
7764.57
7764.09
7763.62
7763.16
7762.71
7762.26
7761.83
7761.4
7760.98
7760.57
7760.17
7759.78
7759.39
7759.01
7758.64
7758.28
7757.92
7757.57
7757.23
7756.9
7756.57
7756.25
7755.94
7755.64
7755.34
7755.05
7754.76
7754.49
7754.21
7753.95
7753.69
7753.44
7753.2
7752.96
7752.72
7752.5
7752.28
7752.06
7751.86
7751.66
7751.46
7751.27
7751.09
7750.92
7750.75
7750.59
7750.44
7750.31
7750.19
7750.06
7749.83
7749.67
7749.51
7749.34
7749.19
7749.03
7748.87
7748.71
7748.56
7748.42
7748.27
7748.13
7747.99
7747.85
7747.72
7747.59
7747.46
7747.33
7747.2
7747.08
7746.96
7746.84
7746.73
7746.61
7746.5
7746.39
7746.28
7746.18
7746.08
7745.98
7745.88
7745.78
7745.69
7745.6
7745.51
7745.42
7745.33
7745.25
7745.17
7745.09
7745.01
7744.93
7744.86
7744.78
7744.71
7744.64
7744.57
7744.51
7744.44
7744.38
7744.32
7744.26
7744.2
7744.15
7744.1
7744.04
7743.99
7743.94
7743.9
7743.85
7743.81
7743.76
7743.72
7743.68
7743.64
7743.6
7743.57
7743.53
7743.5
7743.47
7743.44
7743.41
7743.38
7743.35
7743.33
7743.3
7743.28
7743.25
7743.23
7743.21
7743.19
7743.17
7743.15
7743.13
7743.11
7743.09
7743.08
7743.06
7743.05
7743.03
7743.02
7743
7742.99
7742.98
7742.96
7742.95
7742.94
7742.93
7742.91
7742.9
7742.89
7742.88
7742.87
7742.86
7742.85
7742.84
7742.83
7742.82
7742.81
7742.8
7742.79
7742.78
7742.77
7742.77
7742.76
7742.75
7742.74
7742.73
7742.72
7742.72
7742.71
7742.7
7742.69
7742.69
7742.68
7742.67
7742.67
7742.66
7742.65
7742.65
7742.64
7742.64
7742.63
7742.62
7742.62
7742.61
7742.61
7742.6
7742.6
7742.59
7742.59
7742.59
7742.58
7742.58
7742.57
7742.57
7742.57
7742.56
7742.56
7742.56
7742.55
7742.55
7742.55
7742.55
7742.54
7742.54
7742.54
7742.53
7742.53
7742.53
7742.53
7742.52
7742.52
7742.52
7742.52
7742.51
7742.51
7742.51
7742.51
7742.5
7742.5
7742.5
7742.5
7742.49
7742.49
7742.49
7742.48
7742.48
7742.48
7742.47
7742.47
7742.47
7742.46
7742.46
7742.46
7742.45
7742.45
7742.45
7742.44
7742.44
7742.44
7742.43
7742.43
7742.43
7742.42
7742.42
7742.41
7742.41
7742.41
7742.4
7742.4
7742.4
7742.39
7742.39
7742.39
7742.39
7742.38
7742.38
7742.38
7742.38
7742.37
7742.37
7742.37
7742.37
7742.36
7742.36
7742.36
7742.36
7742.36
7742.36
7742.36
7742.35
7742.35
7742.35
7742.35
7742.35
7742.35
7742.35
7742.35
7742.35
7742.35
7742.35
7742.35
7742.35
7742.35
7742.35
7742.35
7742.35
7742.35
7742.35
7742.35
7742.35
7742.35
7742.35
7742.35
7742.35
7742.34
7742.34
7742.34
7742.34
7742.34
7742.34
7742.34
7742.34
7742.34
7742.34
7742.34
7742.33
7742.33
7742.33
7742.33
7742.33
7742.33
7742.32
7742.32
7742.32
7742.32
7742.32
7742.31
7742.31
7742.31
7742.31
7742.3
7742.3
7742.3
7742.29
7742.29
7742.29
7742.28
7742.28
7742.28
7742.27
7742.27
7742.27
7742.26
7742.26
7742.25
7742.25
7742.25
7742.24
7742.24
7742.23
7742.23
7742.23
7742.22
7742.22
7742.21
7742.21
7742.2
7742.2
7742.19
7742.19
7742.18
7742.18
7742.17
7742.17
7742.16
7742.16
7742.15
7742.15
7742.14
7742.14
7742.13
7742.13
7742.12
7742.12
7742.11
7742.11
7742.11
7742.1
7742.1
7742.09
7742.09
7742.09
7742.08
7742.08
7742.08
7742.07
7742.07
7742.07
7742.07
7742.06
7742.06
7742.06
7742.06
7742.06
7742.06
7742.06
7742.06
7742.06
7742.06
7742.06
7742.06
7742.06
7742.06
7742.06
7742.06
7742.06
7742.06
7742.06
7742.07
7742.07
7742.07
7742.07
7742.07
7742.07
7742.07
7742.07
7742.08
7742.08
7742.08
7742.08
7742.08
7742.08
7742.08
7742.08
7742.08
7742.08
7742.08
7742.08
7742.08
7742.08
7742.07
7742.07
7742.07
7742.07
7742.07
7742.06
7742.06
7742.06
7742.06
7742.05
7742.05
7742.05
7742.04
7742.04
7742.04
7742.03
7742.03
7742.03
7742.03
7742.02
7742.02
7742.02
7742.02
7742.02
7742.01
7742.01
7742.01
7742.01
7742.01
7742.01
7742.01
7742.01
7742.01
7742.01
7742.01
7742.01
7742.01
7742.01
7742.01
7742.01
7742.01
7742.02
7742.02
7742.02
7742.02
7742.02
7742.03
7742.03
7742.03
7742.04
7742.04
7742.04
7742.04
7742.05
7742.05
7742.05
7742.06
7742.06
7742.06
7742.07
7742.07
7742.07
7742.08
7742.08
7742.08
7742.08
7742.09
7742.09
7742.09
7742.09
7742.09
7742.1
7742.1
7742.1
7742.1
7742.1
7742.1
7742.11
7742.11
7742.11
7742.11
7742.11
7742.11
7742.11
7742.11
7742.11
7742.11
7742.11
7742.11
7742.11
7742.11
7742.11
7742.11
7742.11
7742.11
7742.11
7742.11
7742.11
7742.11
7586.04
7585.14
7584.44
7583.74
7583.05
7582.37
7581.69
7581.02
7580.36
7579.71
7579.06
7578.42
7577.79
7577.16
7576.55
7575.94
7575.34
7574.75
7574.17
7573.6
7573.03
7572.48
7571.93
7571.39
7570.86
7570.34
7569.83
7569.33
7568.83
7568.34
7567.87
7567.4
7566.94
7566.49
7566.04
7565.61
7565.18
7564.76
7564.35
7563.95
7563.56
7563.17
7562.79
7562.42
7562.06
7561.7
7561.35
7561.01
7560.68
7560.35
7560.04
7559.72
7559.42
7559.12
7558.83
7558.55
7558.27
7558
7557.73
7557.48
7557.23
7556.98
7556.74
7556.51
7556.28
7556.06
7555.85
7555.64
7555.44
7555.25
7555.06
7554.87
7554.7
7554.53
7554.37
7554.21
7554.06
7553.91
7553.77
7553.62
7553.51
7553.37
7553.13
7552.97
7552.81
7552.66
7552.51
7552.36
7552.22
7552.07
7551.92
7551.78
7551.65
7551.51
7551.38
7551.25
7551.12
7551
7550.87
7550.75
7550.64
7550.52
7550.41
7550.29
7550.19
7550.08
7549.97
7549.87
7549.77
7549.67
7549.58
7549.48
7549.39
7549.3
7549.21
7549.13
7549.04
7548.96
7548.88
7548.8
7548.73
7548.65
7548.58
7548.51
7548.44
7548.37
7548.3
7548.24
7548.18
7548.12
7548.06
7548
7547.95
7547.89
7547.84
7547.79
7547.74
7547.69
7547.65
7547.6
7547.56
7547.52
7547.48
7547.44
7547.4
7547.37
7547.33
7547.3
7547.27
7547.24
7547.21
7547.18
7547.15
7547.12
7547.1
7547.07
7547.05
7547.03
7547.01
7546.99
7546.97
7546.95
7546.93
7546.91
7546.89
7546.88
7546.86
7546.84
7546.83
7546.81
7546.8
7546.79
7546.77
7546.76
7546.75
7546.74
7546.72
7546.71
7546.7
7546.69
7546.68
7546.67
7546.66
7546.65
7546.64
7546.63
7546.62
7546.61
7546.6
7546.59
7546.58
7546.57
7546.56
7546.55
7546.55
7546.54
7546.53
7546.52
7546.51
7546.51
7546.5
7546.49
7546.48
7546.48
7546.47
7546.46
7546.46
7546.45
7546.44
7546.44
7546.43
7546.43
7546.42
7546.42
7546.41
7546.41
7546.4
7546.4
7546.39
7546.39
7546.38
7546.38
7546.38
7546.37
7546.37
7546.36
7546.36
7546.36
7546.35
7546.35
7546.35
7546.35
7546.34
7546.34
7546.34
7546.33
7546.33
7546.33
7546.33
7546.32
7546.32
7546.32
7546.32
7546.31
7546.31
7546.31
7546.31
7546.3
7546.3
7546.3
7546.3
7546.29
7546.29
7546.29
7546.28
7546.28
7546.28
7546.28
7546.27
7546.27
7546.27
7546.26
7546.26
7546.26
7546.25
7546.25
7546.24
7546.24
7546.24
7546.23
7546.23
7546.23
7546.22
7546.22
7546.22
7546.21
7546.21
7546.21
7546.2
7546.2
7546.2
7546.19
7546.19
7546.19
7546.18
7546.18
7546.18
7546.18
7546.17
7546.17
7546.17
7546.17
7546.16
7546.16
7546.16
7546.16
7546.16
7546.16
7546.15
7546.15
7546.15
7546.15
7546.15
7546.15
7546.15
7546.15
7546.15
7546.15
7546.15
7546.15
7546.15
7546.15
7546.15
7546.15
7546.15
7546.15
7546.14
7546.14
7546.14
7546.14
7546.14
7546.14
7546.14
7546.14
7546.14
7546.14
7546.14
7546.14
7546.14
7546.14
7546.14
7546.14
7546.14
7546.14
7546.14
7546.13
7546.13
7546.13
7546.13
7546.13
7546.13
7546.12
7546.12
7546.12
7546.12
7546.12
7546.11
7546.11
7546.11
7546.11
7546.1
7546.1
7546.1
7546.1
7546.09
7546.09
7546.09
7546.08
7546.08
7546.08
7546.07
7546.07
7546.07
7546.06
7546.06
7546.05
7546.05
7546.05
7546.04
7546.04
7546.03
7546.03
7546.02
7546.02
7546.02
7546.01
7546.01
7546
7546
7545.99
7545.99
7545.98
7545.98
7545.97
7545.97
7545.96
7545.96
7545.95
7545.95
7545.94
7545.94
7545.93
7545.93
7545.92
7545.92
7545.91
7545.91
7545.9
7545.9
7545.9
7545.89
7545.89
7545.89
7545.88
7545.88
7545.88
7545.87
7545.87
7545.87
7545.87
7545.86
7545.86
7545.86
7545.86
7545.86
7545.86
7545.86
7545.86
7545.86
7545.86
7545.86
7545.86
7545.86
7545.86
7545.86
7545.86
7545.86
7545.86
7545.86
7545.87
7545.87
7545.87
7545.87
7545.87
7545.87
7545.87
7545.87
7545.88
7545.88
7545.88
7545.88
7545.88
7545.88
7545.88
7545.88
7545.88
7545.88
7545.88
7545.88
7545.88
7545.88
7545.87
7545.87
7545.87
7545.87
7545.87
7545.86
7545.86
7545.86
7545.86
7545.85
7545.85
7545.85
7545.84
7545.84
7545.84
7545.83
7545.83
7545.83
7545.83
7545.82
7545.82
7545.82
7545.82
7545.82
7545.81
7545.81
7545.81
7545.81
7545.81
7545.81
7545.81
7545.81
7545.81
7545.81
7545.81
7545.81
7545.81
7545.81
7545.81
7545.81
7545.81
7545.82
7545.82
7545.82
7545.82
7545.82
7545.83
7545.83
7545.83
7545.84
7545.84
7545.84
7545.84
7545.85
7545.85
7545.85
7545.86
7545.86
7545.86
7545.87
7545.87
7545.87
7545.87
7545.88
7545.88
7545.88
7545.89
7545.89
7545.89
7545.89
7545.89
7545.9
7545.9
7545.9
7545.9
7545.9
7545.9
7545.91
7545.91
7545.91
7545.91
7545.91
7545.91
7545.91
7545.91
7545.91
7545.91
7545.91
7545.91
7545.91
7545.91
7545.91
7545.91
7545.91
7545.91
7545.91
7545.91
7545.91
7545.91
7389.81
7388.91
7388.21
7387.51
7386.82
7386.14
7385.46
7384.79
7384.12
7383.47
7382.82
7382.18
7381.55
7380.92
7380.31
7379.7
7379.1
7378.51
7377.93
7377.35
7376.79
7376.23
7375.69
7375.15
7374.62
7374.1
7373.58
7373.08
7372.59
7372.1
7371.62
7371.15
7370.69
7370.24
7369.8
7369.37
7368.94
7368.52
7368.11
7367.71
7367.32
7366.93
7366.55
7366.18
7365.82
7365.47
7365.12
7364.78
7364.44
7364.12
7363.8
7363.49
7363.19
7362.89
7362.6
7362.31
7362.04
7361.77
7361.5
7361.25
7361
7360.75
7360.51
7360.28
7360.05
7359.83
7359.62
7359.41
7359.21
7359.02
7358.83
7358.64
7358.46
7358.29
7358.13
7357.96
7357.81
7357.66
7357.5
7357.35
7357.21
7357.06
7356.92
7356.8
7356.67
7356.43
7356.28
7356.13
7355.99
7355.85
7355.71
7355.58
7355.43
7355.3
7355.17
7355.04
7354.91
7354.78
7354.66
7354.54
7354.42
7354.31
7354.19
7354.08
7353.97
7353.87
7353.76
7353.66
7353.56
7353.46
7353.37
7353.27
7353.18
7353.09
7353
7352.92
7352.83
7352.75
7352.67
7352.59
7352.52
7352.44
7352.37
7352.3
7352.23
7352.16
7352.1
7352.03
7351.97
7351.91
7351.85
7351.79
7351.74
7351.68
7351.63
7351.58
7351.53
7351.49
7351.44
7351.4
7351.35
7351.31
7351.27
7351.23
7351.2
7351.16
7351.13
7351.09
7351.06
7351.03
7351
7350.97
7350.94
7350.92
7350.89
7350.87
7350.85
7350.82
7350.8
7350.78
7350.76
7350.74
7350.72
7350.71
7350.69
7350.67
7350.66
7350.64
7350.62
7350.61
7350.6
7350.58
7350.57
7350.56
7350.54
7350.53
7350.52
7350.51
7350.5
7350.49
7350.47
7350.46
7350.45
7350.44
7350.43
7350.42
7350.41
7350.4
7350.39
7350.38
7350.38
7350.37
7350.36
7350.35
7350.34
7350.33
7350.32
7350.32
7350.31
7350.3
7350.29
7350.29
7350.28
7350.27
7350.26
7350.26
7350.25
7350.24
7350.24
7350.23
7350.23
7350.22
7350.21
7350.21
7350.2
7350.2
7350.19
7350.19
7350.18
7350.18
7350.18
7350.17
7350.17
7350.16
7350.16
7350.16
7350.15
7350.15
7350.15
7350.14
7350.14
7350.14
7350.14
7350.13
7350.13
7350.13
7350.12
7350.12
7350.12
7350.12
7350.11
7350.11
7350.11
7350.11
7350.11
7350.1
7350.1
7350.1
7350.09
7350.09
7350.09
7350.09
7350.08
7350.08
7350.08
7350.08
7350.07
7350.07
7350.07
7350.06
7350.06
7350.06
7350.05
7350.05
7350.05
7350.04
7350.04
7350.04
7350.03
7350.03
7350.03
7350.02
7350.02
7350.01
7350.01
7350.01
7350
7350
7350
7349.99
7349.99
7349.99
7349.98
7349.98
7349.98
7349.98
7349.97
7349.97
7349.97
7349.97
7349.96
7349.96
7349.96
7349.96
7349.96
7349.95
7349.95
7349.95
7349.95
7349.95
7349.95
7349.95
7349.94
7349.94
7349.94
7349.94
7349.94
7349.94
7349.94
7349.94
7349.94
7349.94
7349.94
7349.94
7349.94
7349.94
7349.94
7349.94
7349.94
7349.94
7349.94
7349.94
7349.94
7349.94
7349.94
7349.94
7349.94
7349.94
7349.93
7349.93
7349.93
7349.93
7349.93
7349.93
7349.93
7349.93
7349.93
7349.93
7349.92
7349.92
7349.92
7349.92
7349.92
7349.92
7349.91
7349.91
7349.91
7349.91
7349.9
7349.9
7349.9
7349.9
7349.89
7349.89
7349.89
7349.89
7349.88
7349.88
7349.88
7349.87
7349.87
7349.87
7349.86
7349.86
7349.86
7349.85
7349.85
7349.84
7349.84
7349.83
7349.83
7349.83
7349.82
7349.82
7349.81
7349.81
7349.8
7349.8
7349.79
7349.79
7349.78
7349.78
7349.77
7349.77
7349.76
7349.76
7349.75
7349.75
7349.74
7349.74
7349.73
7349.73
7349.73
7349.72
7349.72
7349.71
7349.71
7349.7
7349.7
7349.69
7349.69
7349.69
7349.68
7349.68
7349.68
7349.67
7349.67
7349.67
7349.67
7349.66
7349.66
7349.66
7349.66
7349.66
7349.66
7349.66
7349.66
7349.66
7349.66
7349.66
7349.66
7349.66
7349.66
7349.66
7349.66
7349.66
7349.66
7349.66
7349.66
7349.67
7349.67
7349.67
7349.67
7349.67
7349.67
7349.67
7349.68
7349.68
7349.68
7349.68
7349.68
7349.68
7349.68
7349.68
7349.68
7349.68
7349.68
7349.68
7349.68
7349.68
7349.68
7349.67
7349.67
7349.67
7349.67
7349.67
7349.66
7349.66
7349.66
7349.66
7349.65
7349.65
7349.65
7349.64
7349.64
7349.64
7349.64
7349.63
7349.63
7349.63
7349.63
7349.62
7349.62
7349.62
7349.62
7349.62
7349.61
7349.61
7349.61
7349.61
7349.61
7349.61
7349.61
7349.61
7349.61
7349.61
7349.61
7349.61
7349.61
7349.61
7349.61
7349.61
7349.62
7349.62
7349.62
7349.62
7349.62
7349.63
7349.63
7349.63
7349.63
7349.64
7349.64
7349.64
7349.65
7349.65
7349.65
7349.66
7349.66
7349.66
7349.67
7349.67
7349.67
7349.67
7349.68
7349.68
7349.68
7349.68
7349.69
7349.69
7349.69
7349.69
7349.7
7349.7
7349.7
7349.7
7349.7
7349.7
7349.7
7349.71
7349.71
7349.71
7349.71
7349.71
7349.71
7349.71
7349.71
7349.71
7349.71
7349.71
7349.71
7349.71
7349.71
7349.71
7349.71
7349.71
7349.71
7349.71
7349.71
7349.71
7193.57
7192.67
7191.96
7191.26
7190.57
7189.88
7189.2
7188.53
7187.87
7187.21
7186.56
7185.92
7185.29
7184.66
7184.04
7183.44
7182.84
7182.25
7181.66
7181.09
7180.52
7179.97
7179.42
7178.88
7178.35
7177.83
7177.32
7176.82
7176.32
7175.84
7175.36
7174.89
7174.43
7173.98
7173.54
7173.1
7172.68
7172.26
7171.85
7171.45
7171.06
7170.67
7170.29
7169.93
7169.56
7169.21
7168.86
7168.52
7168.19
7167.87
7167.55
7167.24
7166.94
7166.64
7166.35
7166.07
7165.79
7165.52
7165.26
7165
7164.75
7164.51
7164.27
7164.04
7163.81
7163.59
7163.38
7163.17
7162.97
7162.77
7162.58
7162.4
7162.22
7162.04
7161.87
7161.71
7161.55
7161.39
7161.24
7161.09
7160.94
7160.79
7160.64
7160.49
7160.34
7160.2
7160.07
7159.96
7159.84
7159.63
7159.49
7159.35
7159.21
7159.08
7158.95
7158.82
7158.69
7158.57
7158.44
7158.32
7158.21
7158.09
7157.98
7157.86
7157.76
7157.65
7157.55
7157.44
7157.34
7157.25
7157.15
7157.06
7156.96
7156.87
7156.79
7156.7
7156.62
7156.54
7156.46
7156.38
7156.3
7156.23
7156.16
7156.09
7156.02
7155.95
7155.88
7155.82
7155.76
7155.7
7155.64
7155.58
7155.53
7155.47
7155.42
7155.37
7155.32
7155.28
7155.23
7155.19
7155.14
7155.1
7155.06
7155.02
7154.99
7154.95
7154.92
7154.88
7154.85
7154.82
7154.79
7154.76
7154.74
7154.71
7154.69
7154.66
7154.64
7154.62
7154.59
7154.57
7154.55
7154.53
7154.52
7154.5
7154.48
7154.46
7154.45
7154.43
7154.42
7154.4
7154.39
7154.38
7154.36
7154.35
7154.34
7154.32
7154.31
7154.3
7154.29
7154.28
7154.27
7154.26
7154.25
7154.24
7154.23
7154.22
7154.21
7154.2
7154.19
7154.18
7154.17
7154.16
7154.15
7154.14
7154.13
7154.12
7154.11
7154.11
7154.1
7154.09
7154.08
7154.08
7154.07
7154.06
7154.05
7154.05
7154.04
7154.03
7154.03
7154.02
7154.01
7154.01
7154
7154
7153.99
7153.99
7153.98
7153.98
7153.97
7153.97
7153.96
7153.96
7153.96
7153.95
7153.95
7153.95
7153.94
7153.94
7153.94
7153.93
7153.93
7153.93
7153.92
7153.92
7153.92
7153.92
7153.91
7153.91
7153.91
7153.91
7153.9
7153.9
7153.9
7153.9
7153.89
7153.89
7153.89
7153.89
7153.88
7153.88
7153.88
7153.88
7153.87
7153.87
7153.87
7153.87
7153.86
7153.86
7153.86
7153.85
7153.85
7153.85
7153.84
7153.84
7153.84
7153.83
7153.83
7153.83
7153.82
7153.82
7153.82
7153.81
7153.81
7153.81
7153.8
7153.8
7153.8
7153.79
7153.79
7153.79
7153.78
7153.78
7153.78
7153.77
7153.77
7153.77
7153.76
7153.76
7153.76
7153.76
7153.75
7153.75
7153.75
7153.75
7153.75
7153.74
7153.74
7153.74
7153.74
7153.74
7153.74
7153.74
7153.74
7153.73
7153.73
7153.73
7153.73
7153.73
7153.73
7153.73
7153.73
7153.73
7153.73
7153.73
7153.73
7153.73
7153.73
7153.73
7153.73
7153.73
7153.73
7153.73
7153.73
7153.73
7153.73
7153.73
7153.73
7153.73
7153.73
7153.72
7153.72
7153.72
7153.72
7153.72
7153.72
7153.72
7153.72
7153.72
7153.72
7153.71
7153.71
7153.71
7153.71
7153.71
7153.71
7153.7
7153.7
7153.7
7153.7
7153.7
7153.69
7153.69
7153.69
7153.69
7153.68
7153.68
7153.68
7153.67
7153.67
7153.67
7153.66
7153.66
7153.66
7153.65
7153.65
7153.65
7153.64
7153.64
7153.63
7153.63
7153.63
7153.62
7153.62
7153.61
7153.61
7153.6
7153.6
7153.6
7153.59
7153.59
7153.58
7153.58
7153.57
7153.57
7153.56
7153.56
7153.55
7153.55
7153.54
7153.54
7153.53
7153.53
7153.52
7153.52
7153.51
7153.51
7153.5
7153.5
7153.5
7153.49
7153.49
7153.48
7153.48
7153.48
7153.48
7153.47
7153.47
7153.47
7153.46
7153.46
7153.46
7153.46
7153.46
7153.46
7153.46
7153.46
7153.45
7153.45
7153.45
7153.45
7153.46
7153.46
7153.46
7153.46
7153.46
7153.46
7153.46
7153.46
7153.46
7153.46
7153.47
7153.47
7153.47
7153.47
7153.47
7153.47
7153.48
7153.48
7153.48
7153.48
7153.48
7153.48
7153.48
7153.48
7153.48
7153.48
7153.48
7153.48
7153.48
7153.48
7153.48
7153.48
7153.47
7153.47
7153.47
7153.47
7153.47
7153.46
7153.46
7153.46
7153.45
7153.45
7153.45
7153.45
7153.44
7153.44
7153.44
7153.43
7153.43
7153.43
7153.43
7153.43
7153.42
7153.42
7153.42
7153.42
7153.42
7153.41
7153.41
7153.41
7153.41
7153.41
7153.41
7153.41
7153.41
7153.41
7153.41
7153.41
7153.41
7153.41
7153.41
7153.41
7153.42
7153.42
7153.42
7153.42
7153.42
7153.43
7153.43
7153.43
7153.43
7153.44
7153.44
7153.44
7153.45
7153.45
7153.45
7153.46
7153.46
7153.46
7153.46
7153.47
7153.47
7153.47
7153.48
7153.48
7153.48
7153.48
7153.49
7153.49
7153.49
7153.49
7153.49
7153.5
7153.5
7153.5
7153.5
7153.5
7153.5
7153.5
7153.51
7153.51
7153.51
7153.51
7153.51
7153.51
7153.51
7153.51
7153.51
7153.51
7153.51
7153.51
7153.51
7153.51
7153.51
7153.51
7153.51
7153.51
7153.51
7153.51
6997.31
6996.41
6995.7
6995
6994.3
6993.61
6992.93
6992.26
6991.59
6990.93
6990.28
6989.64
6989
6988.38
6987.76
6987.15
6986.55
6985.96
6985.38
6984.8
6984.24
6983.68
6983.13
6982.59
6982.06
6981.54
6981.03
6980.53
6980.03
6979.55
6979.07
6978.6
6978.14
6977.69
6977.25
6976.82
6976.39
6975.98
6975.57
6975.17
6974.78
6974.39
6974.02
6973.65
6973.29
6972.94
6972.59
6972.25
6971.92
6971.6
6971.28
6970.97
6970.67
6970.37
6970.09
6969.8
6969.53
6969.26
6969
6968.74
6968.49
6968.25
6968.01
6967.78
6967.55
6967.34
6967.12
6966.91
6966.71
6966.52
6966.33
6966.14
6965.96
6965.78
6965.61
6965.45
6965.28
6965.12
6964.97
6964.81
6964.66
6964.51
6964.37
6964.22
6964.08
6963.94
6963.8
6963.67
6963.53
6963.41
6963.3
6963.19
6962.98
6962.85
6962.72
6962.59
6962.47
6962.35
6962.22
6962.1
6961.98
6961.87
6961.75
6961.64
6961.53
6961.43
6961.32
6961.22
6961.12
6961.02
6960.93
6960.84
6960.74
6960.65
6960.57
6960.48
6960.4
6960.32
6960.24
6960.16
6960.08
6960.01
6959.94
6959.87
6959.8
6959.73
6959.67
6959.6
6959.54
6959.48
6959.42
6959.37
6959.31
6959.26
6959.21
6959.16
6959.11
6959.06
6959.02
6958.97
6958.93
6958.89
6958.85
6958.81
6958.77
6958.74
6958.71
6958.67
6958.64
6958.61
6958.58
6958.55
6958.53
6958.5
6958.47
6958.45
6958.43
6958.41
6958.38
6958.36
6958.34
6958.32
6958.31
6958.29
6958.27
6958.25
6958.24
6958.22
6958.21
6958.19
6958.18
6958.17
6958.15
6958.14
6958.13
6958.11
6958.1
6958.09
6958.08
6958.07
6958.06
6958.05
6958.04
6958.02
6958.01
6958
6957.99
6957.98
6957.97
6957.97
6957.96
6957.95
6957.94
6957.93
6957.92
6957.91
6957.9
6957.89
6957.89
6957.88
6957.87
6957.86
6957.85
6957.85
6957.84
6957.83
6957.83
6957.82
6957.81
6957.81
6957.8
6957.79
6957.79
6957.78
6957.78
6957.77
6957.77
6957.76
6957.76
6957.75
6957.75
6957.74
6957.74
6957.74
6957.73
6957.73
6957.73
6957.72
6957.72
6957.72
6957.71
6957.71
6957.71
6957.71
6957.7
6957.7
6957.7
6957.7
6957.69
6957.69
6957.69
6957.69
6957.68
6957.68
6957.68
6957.68
6957.68
6957.67
6957.67
6957.67
6957.67
6957.66
6957.66
6957.66
6957.66
6957.65
6957.65
6957.65
6957.64
6957.64
6957.64
6957.64
6957.63
6957.63
6957.63
6957.62
6957.62
6957.62
6957.61
6957.61
6957.61
6957.6
6957.6
6957.6
6957.59
6957.59
6957.59
6957.58
6957.58
6957.58
6957.57
6957.57
6957.57
6957.56
6957.56
6957.56
6957.55
6957.55
6957.55
6957.55
6957.54
6957.54
6957.54
6957.54
6957.54
6957.53
6957.53
6957.53
6957.53
6957.53
6957.53
6957.52
6957.52
6957.52
6957.52
6957.52
6957.52
6957.52
6957.52
6957.52
6957.52
6957.52
6957.52
6957.52
6957.52
6957.52
6957.52
6957.52
6957.52
6957.52
6957.51
6957.51
6957.51
6957.51
6957.51
6957.51
6957.51
6957.51
6957.51
6957.51
6957.51
6957.51
6957.51
6957.51
6957.51
6957.51
6957.51
6957.51
6957.5
6957.5
6957.5
6957.5
6957.5
6957.5
6957.5
6957.49
6957.49
6957.49
6957.49
6957.49
6957.48
6957.48
6957.48
6957.48
6957.47
6957.47
6957.47
6957.47
6957.46
6957.46
6957.46
6957.45
6957.45
6957.45
6957.44
6957.44
6957.44
6957.43
6957.43
6957.43
6957.42
6957.42
6957.41
6957.41
6957.4
6957.4
6957.4
6957.39
6957.39
6957.38
6957.38
6957.37
6957.37
6957.36
6957.36
6957.35
6957.35
6957.34
6957.34
6957.33
6957.33
6957.32
6957.32
6957.31
6957.31
6957.31
6957.3
6957.3
6957.29
6957.29
6957.29
6957.28
6957.28
6957.28
6957.27
6957.27
6957.27
6957.26
6957.26
6957.26
6957.26
6957.26
6957.26
6957.25
6957.25
6957.25
6957.25
6957.25
6957.25
6957.25
6957.25
6957.25
6957.26
6957.26
6957.26
6957.26
6957.26
6957.26
6957.26
6957.26
6957.27
6957.27
6957.27
6957.27
6957.27
6957.27
6957.28
6957.28
6957.28
6957.28
6957.28
6957.28
6957.28
6957.28
6957.28
6957.28
6957.28
6957.28
6957.28
6957.28
6957.28
6957.28
6957.28
6957.28
6957.27
6957.27
6957.27
6957.27
6957.26
6957.26
6957.26
6957.25
6957.25
6957.25
6957.25
6957.24
6957.24
6957.24
6957.23
6957.23
6957.23
6957.23
6957.23
6957.22
6957.22
6957.22
6957.22
6957.22
6957.21
6957.21
6957.21
6957.21
6957.21
6957.21
6957.21
6957.21
6957.21
6957.21
6957.21
6957.21
6957.21
6957.22
6957.22
6957.22
6957.22
6957.22
6957.22
6957.23
6957.23
6957.23
6957.23
6957.24
6957.24
6957.24
6957.25
6957.25
6957.25
6957.25
6957.26
6957.26
6957.26
6957.27
6957.27
6957.27
6957.27
6957.28
6957.28
6957.28
6957.28
6957.29
6957.29
6957.29
6957.29
6957.29
6957.3
6957.3
6957.3
6957.3
6957.3
6957.3
6957.3
6957.3
6957.3
6957.31
6957.31
6957.31
6957.31
6957.31
6957.31
6957.31
6957.31
6957.31
6957.31
6957.31
6957.31
6957.31
6957.31
6957.31
6957.31
6957.31
6801.04
6800.13
6799.42
6798.72
6798.02
6797.33
6796.64
6795.97
6795.3
6794.64
6793.98
6793.34
6792.7
6792.07
6791.45
6790.84
6790.24
6789.65
6789.07
6788.49
6787.92
6787.37
6786.82
6786.28
6785.75
6785.23
6784.72
6784.22
6783.72
6783.24
6782.76
6782.29
6781.84
6781.39
6780.95
6780.51
6780.09
6779.68
6779.27
6778.87
6778.48
6778.1
6777.72
6777.35
6776.99
6776.64
6776.3
6775.96
6775.63
6775.31
6774.99
6774.69
6774.39
6774.09
6773.8
6773.52
6773.25
6772.98
6772.72
6772.47
6772.22
6771.98
6771.74
6771.51
6771.28
6771.07
6770.85
6770.65
6770.44
6770.25
6770.06
6769.87
6769.69
6769.51
6769.34
6769.17
6769.01
6768.85
6768.69
6768.54
6768.39
6768.24
6768.09
6767.95
6767.8
6767.66
6767.53
6767.39
6767.26
6767.13
6767
6766.88
6766.76
6766.66
6766.55
6766.35
6766.23
6766.11
6765.99
6765.87
6765.75
6765.64
6765.52
6765.41
6765.3
6765.2
6765.09
6764.99
6764.89
6764.8
6764.7
6764.61
6764.52
6764.43
6764.34
6764.26
6764.18
6764.09
6764.02
6763.94
6763.86
6763.79
6763.72
6763.65
6763.58
6763.51
6763.45
6763.38
6763.32
6763.26
6763.21
6763.15
6763.09
6763.04
6762.99
6762.94
6762.89
6762.85
6762.8
6762.76
6762.71
6762.67
6762.63
6762.6
6762.56
6762.52
6762.49
6762.46
6762.43
6762.4
6762.37
6762.34
6762.31
6762.29
6762.26
6762.24
6762.21
6762.19
6762.17
6762.15
6762.13
6762.11
6762.09
6762.08
6762.06
6762.04
6762.03
6762.01
6762
6761.98
6761.97
6761.95
6761.94
6761.93
6761.91
6761.9
6761.89
6761.88
6761.87
6761.86
6761.84
6761.83
6761.82
6761.81
6761.8
6761.79
6761.78
6761.77
6761.76
6761.75
6761.74
6761.73
6761.72
6761.71
6761.7
6761.7
6761.69
6761.68
6761.67
6761.66
6761.65
6761.65
6761.64
6761.63
6761.62
6761.62
6761.61
6761.6
6761.6
6761.59
6761.58
6761.58
6761.57
6761.56
6761.56
6761.55
6761.55
6761.54
6761.54
6761.53
6761.53
6761.53
6761.52
6761.52
6761.51
6761.51
6761.51
6761.5
6761.5
6761.5
6761.49
6761.49
6761.49
6761.49
6761.48
6761.48
6761.48
6761.48
6761.48
6761.47
6761.47
6761.47
6761.47
6761.46
6761.46
6761.46
6761.46
6761.46
6761.45
6761.45
6761.45
6761.45
6761.44
6761.44
6761.44
6761.44
6761.43
6761.43
6761.43
6761.43
6761.42
6761.42
6761.42
6761.41
6761.41
6761.41
6761.41
6761.4
6761.4
6761.4
6761.39
6761.39
6761.38
6761.38
6761.38
6761.37
6761.37
6761.37
6761.36
6761.36
6761.36
6761.36
6761.35
6761.35
6761.35
6761.34
6761.34
6761.34
6761.33
6761.33
6761.33
6761.33
6761.32
6761.32
6761.32
6761.32
6761.32
6761.32
6761.31
6761.31
6761.31
6761.31
6761.31
6761.31
6761.31
6761.31
6761.3
6761.3
6761.3
6761.3
6761.3
6761.3
6761.3
6761.3
6761.3
6761.3
6761.3
6761.3
6761.3
6761.3
6761.3
6761.3
6761.3
6761.3
6761.3
6761.3
6761.3
6761.3
6761.3
6761.3
6761.3
6761.29
6761.29
6761.29
6761.29
6761.29
6761.29
6761.29
6761.29
6761.29
6761.29
6761.29
6761.29
6761.28
6761.28
6761.28
6761.28
6761.28
6761.28
6761.27
6761.27
6761.27
6761.27
6761.27
6761.26
6761.26
6761.26
6761.26
6761.25
6761.25
6761.25
6761.25
6761.24
6761.24
6761.24
6761.23
6761.23
6761.23
6761.22
6761.22
6761.21
6761.21
6761.21
6761.2
6761.2
6761.19
6761.19
6761.19
6761.18
6761.18
6761.17
6761.17
6761.16
6761.16
6761.15
6761.15
6761.14
6761.14
6761.13
6761.13
6761.12
6761.12
6761.12
6761.11
6761.11
6761.1
6761.1
6761.09
6761.09
6761.09
6761.08
6761.08
6761.07
6761.07
6761.07
6761.07
6761.06
6761.06
6761.06
6761.06
6761.06
6761.05
6761.05
6761.05
6761.05
6761.05
6761.05
6761.05
6761.05
6761.05
6761.05
6761.05
6761.05
6761.05
6761.06
6761.06
6761.06
6761.06
6761.06
6761.06
6761.07
6761.07
6761.07
6761.07
6761.07
6761.07
6761.08
6761.08
6761.08
6761.08
6761.08
6761.08
6761.08
6761.08
6761.08
6761.08
6761.08
6761.08
6761.08
6761.08
6761.08
6761.08
6761.08
6761.08
6761.08
6761.07
6761.07
6761.07
6761.07
6761.06
6761.06
6761.06
6761.05
6761.05
6761.05
6761.05
6761.04
6761.04
6761.04
6761.03
6761.03
6761.03
6761.03
6761.03
6761.02
6761.02
6761.02
6761.02
6761.02
6761.02
6761.01
6761.01
6761.01
6761.01
6761.01
6761.01
6761.01
6761.01
6761.01
6761.01
6761.01
6761.02
6761.02
6761.02
6761.02
6761.02
6761.02
6761.03
6761.03
6761.03
6761.03
6761.04
6761.04
6761.04
6761.04
6761.05
6761.05
6761.05
6761.06
6761.06
6761.06
6761.06
6761.07
6761.07
6761.07
6761.07
6761.08
6761.08
6761.08
6761.08
6761.09
6761.09
6761.09
6761.09
6761.09
6761.09
6761.1
6761.1
6761.1
6761.1
6761.1
6761.1
6761.1
6761.1
6761.1
6761.1
6761.1
6761.1
6761.1
6761.1
6761.11
6761.11
6761.11
6761.11
6761.11
6761.11
6761.11
6761.11
6761.11
6761.11
6604.76
6603.84
6603.13
6602.42
6601.72
6601.02
6600.33
6599.65
6598.98
6598.32
6597.66
6597.02
6596.38
6595.75
6595.13
6594.51
6593.91
6593.32
6592.73
6592.16
6591.59
6591.03
6590.48
6589.95
6589.42
6588.9
6588.38
6587.88
6587.39
6586.91
6586.43
6585.96
6585.51
6585.06
6584.62
6584.19
6583.77
6583.35
6582.95
6582.55
6582.16
6581.78
6581.4
6581.04
6580.68
6580.33
6579.99
6579.65
6579.33
6579.01
6578.69
6578.39
6578.09
6577.79
6577.51
6577.23
6576.96
6576.69
6576.43
6576.18
6575.93
6575.69
6575.45
6575.22
6575
6574.78
6574.57
6574.36
6574.16
6573.97
6573.78
6573.59
6573.41
6573.23
6573.06
6572.89
6572.73
6572.57
6572.41
6572.25
6572.1
6571.95
6571.81
6571.66
6571.52
6571.38
6571.25
6571.12
6570.98
6570.86
6570.73
6570.6
6570.48
6570.36
6570.24
6570.12
6570.03
6569.92
6569.74
6569.62
6569.51
6569.4
6569.29
6569.18
6569.07
6568.96
6568.86
6568.76
6568.66
6568.56
6568.47
6568.38
6568.29
6568.2
6568.11
6568.03
6567.95
6567.87
6567.79
6567.71
6567.64
6567.56
6567.49
6567.42
6567.35
6567.29
6567.22
6567.16
6567.1
6567.04
6566.98
6566.93
6566.87
6566.82
6566.77
6566.72
6566.67
6566.63
6566.58
6566.54
6566.5
6566.46
6566.42
6566.38
6566.34
6566.31
6566.27
6566.24
6566.21
6566.18
6566.15
6566.12
6566.1
6566.07
6566.05
6566.02
6566
6565.98
6565.96
6565.94
6565.92
6565.9
6565.88
6565.86
6565.84
6565.83
6565.81
6565.8
6565.78
6565.77
6565.75
6565.74
6565.73
6565.71
6565.7
6565.69
6565.68
6565.66
6565.65
6565.64
6565.63
6565.62
6565.61
6565.6
6565.59
6565.58
6565.57
6565.55
6565.54
6565.53
6565.53
6565.52
6565.51
6565.5
6565.49
6565.48
6565.47
6565.46
6565.45
6565.44
6565.43
6565.43
6565.42
6565.41
6565.4
6565.4
6565.39
6565.38
6565.37
6565.37
6565.36
6565.35
6565.35
6565.34
6565.34
6565.33
6565.33
6565.32
6565.32
6565.31
6565.31
6565.3
6565.3
6565.29
6565.29
6565.29
6565.28
6565.28
6565.28
6565.27
6565.27
6565.27
6565.27
6565.26
6565.26
6565.26
6565.26
6565.26
6565.25
6565.25
6565.25
6565.25
6565.25
6565.24
6565.24
6565.24
6565.24
6565.24
6565.23
6565.23
6565.23
6565.23
6565.23
6565.22
6565.22
6565.22
6565.22
6565.21
6565.21
6565.21
6565.21
6565.2
6565.2
6565.2
6565.19
6565.19
6565.19
6565.19
6565.18
6565.18
6565.18
6565.17
6565.17
6565.17
6565.16
6565.16
6565.16
6565.15
6565.15
6565.15
6565.14
6565.14
6565.14
6565.13
6565.13
6565.13
6565.12
6565.12
6565.12
6565.12
6565.11
6565.11
6565.11
6565.11
6565.1
6565.1
6565.1
6565.1
6565.1
6565.09
6565.09
6565.09
6565.09
6565.09
6565.09
6565.09
6565.09
6565.08
6565.08
6565.08
6565.08
6565.08
6565.08
6565.08
6565.08
6565.08
6565.08
6565.08
6565.08
6565.08
6565.08
6565.08
6565.08
6565.08
6565.08
6565.08
6565.08
6565.08
6565.08
6565.08
6565.08
6565.08
6565.08
6565.08
6565.08
6565.07
6565.07
6565.07
6565.07
6565.07
6565.07
6565.07
6565.07
6565.07
6565.07
6565.07
6565.06
6565.06
6565.06
6565.06
6565.06
6565.06
6565.06
6565.05
6565.05
6565.05
6565.05
6565.05
6565.04
6565.04
6565.04
6565.04
6565.03
6565.03
6565.03
6565.02
6565.02
6565.02
6565.01
6565.01
6565.01
6565
6565
6565
6564.99
6564.99
6564.98
6564.98
6564.97
6564.97
6564.97
6564.96
6564.96
6564.95
6564.95
6564.94
6564.94
6564.93
6564.93