/*--------------------------------*- C++ -*----------------------------------*\
| =========                 |                                                 |
| \\      /  F ield         | OpenFOAM: The Open Source CFD Toolbox           |
|  \\    /   O peration     | Version:  v2006                                 |
|   \\  /    A nd           | Website:  www.openfoam.com                      |
|    \\/     M anipulation  |                                                 |
\*---------------------------------------------------------------------------*/
FoamFile
{
    version     2.0;
    format      ascii;
    class       volScalarField;
    location    "0.1";
    object      p_rgh;
}
// * * * * * * * * * * * * * * * * * * * * * * * * * * * * * * * * * * * * * //

dimensions      [1 -1 -2 0 0 0 0];


internalField   nonuniform List<scalar> 
33000
(
7880.35
7879.45
7878.75
7878.06
7877.37
7876.69
7876.01
7875.34
7874.68
7874.03
7873.38
7872.74
7872.11
7871.49
7870.87
7870.26
7869.66
7869.07
7868.49
7867.92
7867.35
7866.8
7866.25
7865.71
7865.18
7864.66
7864.15
7863.65
7863.15
7862.67
7862.19
7861.72
7861.26
7860.81
7860.36
7859.93
7859.5
7859.08
7858.67
7858.27
7857.88
7857.49
7857.11
7856.74
7856.38
7856.02
7855.67
7855.33
7855
7854.67
7854.35
7854.04
7853.74
7853.44
7853.15
7852.86
7852.59
7852.31
7852.05
7851.79
7851.54
7851.3
7851.06
7850.82
7850.6
7850.38
7850.16
7849.96
7849.76
7849.56
7849.37
7849.19
7849.02
7848.85
7848.69
7848.54
7848.41
7848.29
7848.16
7847.93
7847.77
7847.61
7847.44
7847.29
7847.13
7846.97
7846.81
7846.66
7846.52
7846.37
7846.23
7846.09
7845.95
7845.82
7845.69
7845.56
7845.43
7845.3
7845.18
7845.06
7844.94
7844.83
7844.71
7844.6
7844.49
7844.38
7844.28
7844.18
7844.08
7843.98
7843.88
7843.79
7843.7
7843.61
7843.52
7843.43
7843.35
7843.27
7843.19
7843.11
7843.03
7842.96
7842.88
7842.81
7842.74
7842.67
7842.61
7842.54
7842.48
7842.42
7842.36
7842.3
7842.25
7842.2
7842.14
7842.09
7842.04
7842
7841.95
7841.91
7841.86
7841.82
7841.78
7841.74
7841.7
7841.67
7841.63
7841.6
7841.57
7841.54
7841.51
7841.48
7841.45
7841.43
7841.4
7841.38
7841.35
7841.33
7841.31
7841.29
7841.27
7841.25
7841.23
7841.21
7841.19
7841.18
7841.16
7841.15
7841.13
7841.12
7841.1
7841.09
7841.08
7841.06
7841.05
7841.04
7841.03
7841.01
7841
7840.99
7840.98
7840.97
7840.96
7840.95
7840.94
7840.93
7840.92
7840.91
7840.9
7840.89
7840.88
7840.87
7840.87
7840.86
7840.85
7840.84
7840.83
7840.82
7840.82
7840.81
7840.8
7840.79
7840.79
7840.78
7840.77
7840.77
7840.76
7840.75
7840.75
7840.74
7840.74
7840.73
7840.72
7840.72
7840.71
7840.71
7840.7
7840.7
7840.69
7840.69
7840.69
7840.68
7840.68
7840.67
7840.67
7840.67
7840.66
7840.66
7840.66
7840.65
7840.65
7840.65
7840.65
7840.64
7840.64
7840.64
7840.63
7840.63
7840.63
7840.63
7840.62
7840.62
7840.62
7840.62
7840.61
7840.61
7840.61
7840.61
7840.6
7840.6
7840.6
7840.6
7840.59
7840.59
7840.59
7840.58
7840.58
7840.58
7840.57
7840.57
7840.57
7840.56
7840.56
7840.56
7840.55
7840.55
7840.55
7840.54
7840.54
7840.54
7840.53
7840.53
7840.53
7840.52
7840.52
7840.51
7840.51
7840.51
7840.5
7840.5
7840.5
7840.49
7840.49
7840.49
7840.49
7840.48
7840.48
7840.48
7840.48
7840.47
7840.47
7840.47
7840.47
7840.46
7840.46
7840.46
7840.46
7840.46
7840.46
7840.46
7840.45
7840.45
7840.45
7840.45
7840.45
7840.45
7840.45
7840.45
7840.45
7840.45
7840.45
7840.45
7840.45
7840.45
7840.45
7840.45
7840.45
7840.45
7840.45
7840.45
7840.45
7840.45
7840.45
7840.45
7840.45
7840.44
7840.44
7840.44
7840.44
7840.44
7840.44
7840.44
7840.44
7840.44
7840.44
7840.44
7840.43
7840.43
7840.43
7840.43
7840.43
7840.43
7840.42
7840.42
7840.42
7840.42
7840.42
7840.41
7840.41
7840.41
7840.41
7840.4
7840.4
7840.4
7840.39
7840.39
7840.39
7840.38
7840.38
7840.38
7840.37
7840.37
7840.37
7840.36
7840.36
7840.35
7840.35
7840.35
7840.34
7840.34
7840.33
7840.33
7840.32
7840.32
7840.32
7840.31
7840.31
7840.3
7840.3
7840.29
7840.29
7840.28
7840.28
7840.27
7840.27
7840.26
7840.26
7840.25
7840.25
7840.24
7840.24
7840.23
7840.23
7840.22
7840.22
7840.21
7840.21
7840.21
7840.2
7840.2
7840.19
7840.19
7840.19
7840.18
7840.18
7840.18
7840.17
7840.17
7840.17
7840.17
7840.16
7840.16
7840.16
7840.16
7840.16
7840.16
7840.16
7840.16
7840.16
7840.16
7840.16
7840.16
7840.16
7840.16
7840.16
7840.16
7840.16
7840.16
7840.16
7840.17
7840.17
7840.17
7840.17
7840.17
7840.17
7840.17
7840.17
7840.18
7840.18
7840.18
7840.18
7840.18
7840.18
7840.18
7840.18
7840.18
7840.18
7840.18
7840.18
7840.18
7840.18
7840.17
7840.17
7840.17
7840.17
7840.17
7840.16
7840.16
7840.16
7840.16
7840.15
7840.15
7840.15
7840.14
7840.14
7840.14
7840.13
7840.13
7840.13
7840.13
7840.12
7840.12
7840.12
7840.12
7840.12
7840.11
7840.11
7840.11
7840.11
7840.11
7840.11
7840.11
7840.11
7840.11
7840.11
7840.11
7840.11
7840.11
7840.11
7840.11
7840.11
7840.11
7840.12
7840.12
7840.12
7840.12
7840.12
7840.13
7840.13
7840.13
7840.14
7840.14
7840.14
7840.14
7840.15
7840.15
7840.15
7840.16
7840.16
7840.16
7840.17
7840.17
7840.17
7840.18
7840.18
7840.18
7840.18
7840.19
7840.19
7840.19
7840.19
7840.19
7840.2
7840.2
7840.2
7840.2
7840.2
7840.2
7840.21
7840.21
7840.21
7840.21
7840.21
7840.21
7840.21
7840.21
7840.21
7840.21
7840.21
7840.21
7840.21
7840.21
7840.21
7840.21
7840.21
7840.21
7840.21
7840.21
7840.21
7840.21
7880.34
7879.44
7878.74
7878.04
7877.35
7876.67
7875.99
7875.32
7874.66
7874.01
7873.36
7872.72
7872.09
7871.46
7870.85
7870.24
7869.64
7869.05
7868.47
7867.9
7867.33
7866.78
7866.23
7865.69
7865.16
7864.64
7864.13
7863.62
7863.13
7862.64
7862.17
7861.7
7861.24
7860.79
7860.34
7859.91
7859.48
7859.06
7858.65
7858.25
7857.86
7857.47
7857.09
7856.72
7856.36
7856
7855.65
7855.31
7854.98
7854.65
7854.34
7854.02
7853.72
7853.42
7853.13
7852.85
7852.57
7852.3
7852.03
7851.78
7851.53
7851.28
7851.04
7850.81
7850.58
7850.36
7850.15
7849.94
7849.74
7849.54
7849.36
7849.17
7849
7848.83
7848.67
7848.51
7848.36
7848.21
7848.07
7847.92
7847.81
7847.67
7847.43
7847.27
7847.11
7846.96
7846.81
7846.66
7846.52
7846.37
7846.22
7846.08
7845.95
7845.81
7845.68
7845.55
7845.42
7845.3
7845.17
7845.05
7844.94
7844.82
7844.71
7844.59
7844.49
7844.38
7844.27
7844.17
7844.07
7843.97
7843.88
7843.78
7843.69
7843.6
7843.51
7843.43
7843.34
7843.26
7843.18
7843.1
7843.03
7842.95
7842.88
7842.81
7842.74
7842.67
7842.6
7842.54
7842.48
7842.42
7842.36
7842.3
7842.25
7842.19
7842.14
7842.09
7842.04
7841.99
7841.95
7841.9
7841.86
7841.82
7841.78
7841.74
7841.7
7841.67
7841.63
7841.6
7841.57
7841.54
7841.51
7841.48
7841.45
7841.42
7841.4
7841.37
7841.35
7841.33
7841.31
7841.29
7841.27
7841.25
7841.23
7841.21
7841.19
7841.18
7841.16
7841.14
7841.13
7841.11
7841.1
7841.09
7841.07
7841.06
7841.05
7841.04
7841.02
7841.01
7841
7840.99
7840.98
7840.97
7840.96
7840.95
7840.94
7840.93
7840.92
7840.91
7840.9
7840.89
7840.88
7840.87
7840.86
7840.85
7840.85
7840.84
7840.83
7840.82
7840.81
7840.81
7840.8
7840.79
7840.78
7840.78
7840.77
7840.76
7840.76
7840.75
7840.74
7840.74
7840.73
7840.73
7840.72
7840.72
7840.71
7840.71
7840.7
7840.7
7840.69
7840.69
7840.68
7840.68
7840.68
7840.67
7840.67
7840.66
7840.66
7840.66
7840.65
7840.65
7840.65
7840.65
7840.64
7840.64
7840.64
7840.63
7840.63
7840.63
7840.63
7840.62
7840.62
7840.62
7840.62
7840.61
7840.61
7840.61
7840.61
7840.6
7840.6
7840.6
7840.6
7840.59
7840.59
7840.59
7840.58
7840.58
7840.58
7840.58
7840.57
7840.57
7840.57
7840.56
7840.56
7840.56
7840.55
7840.55
7840.54
7840.54
7840.54
7840.53
7840.53
7840.53
7840.52
7840.52
7840.52
7840.51
7840.51
7840.51
7840.5
7840.5
7840.5
7840.49
7840.49
7840.49
7840.48
7840.48
7840.48
7840.48
7840.47
7840.47
7840.47
7840.47
7840.46
7840.46
7840.46
7840.46
7840.46
7840.46
7840.45
7840.45
7840.45
7840.45
7840.45
7840.45
7840.45
7840.45
7840.45
7840.45
7840.45
7840.45
7840.45
7840.45
7840.45
7840.45
7840.45
7840.45
7840.44
7840.44
7840.44
7840.44
7840.44
7840.44
7840.44
7840.44
7840.44
7840.44
7840.44
7840.44
7840.44
7840.44
7840.44
7840.44
7840.44
7840.44
7840.44
7840.43
7840.43
7840.43
7840.43
7840.43
7840.43
7840.42
7840.42
7840.42
7840.42
7840.42
7840.41
7840.41
7840.41
7840.41
7840.4
7840.4
7840.4
7840.4
7840.39
7840.39
7840.39
7840.38
7840.38
7840.38
7840.37
7840.37
7840.37
7840.36
7840.36
7840.35
7840.35
7840.35
7840.34
7840.34
7840.33
7840.33
7840.32
7840.32
7840.31
7840.31
7840.31
7840.3
7840.3
7840.29
7840.29
7840.28
7840.28
7840.27
7840.27
7840.26
7840.26
7840.25
7840.25
7840.24
7840.24
7840.23
7840.23
7840.22
7840.22
7840.21
7840.21
7840.2
7840.2
7840.2
7840.19
7840.19
7840.19
7840.18
7840.18
7840.18
7840.17
7840.17
7840.17
7840.17
7840.16
7840.16
7840.16
7840.16
7840.16
7840.16
7840.16
7840.16
7840.16
7840.16
7840.16
7840.16
7840.16
7840.16
7840.16
7840.16
7840.16
7840.16
7840.16
7840.17
7840.17
7840.17
7840.17
7840.17
7840.17
7840.17
7840.17
7840.18
7840.18
7840.18
7840.18
7840.18
7840.18
7840.18
7840.18
7840.18
7840.18
7840.18
7840.18
7840.18
7840.18
7840.17
7840.17
7840.17
7840.17
7840.17
7840.16
7840.16
7840.16
7840.16
7840.15
7840.15
7840.15
7840.14
7840.14
7840.14
7840.13
7840.13
7840.13
7840.13
7840.12
7840.12
7840.12
7840.12
7840.12
7840.11
7840.11
7840.11
7840.11
7840.11
7840.11
7840.11
7840.11
7840.11
7840.11
7840.11
7840.11
7840.11
7840.11
7840.11
7840.11
7840.11
7840.12
7840.12
7840.12
7840.12
7840.12
7840.13
7840.13
7840.13
7840.14
7840.14
7840.14
7840.14
7840.15
7840.15
7840.15
7840.16
7840.16
7840.16
7840.17
7840.17
7840.17
7840.17
7840.18
7840.18
7840.18
7840.19
7840.19
7840.19
7840.19
7840.19
7840.2
7840.2
7840.2
7840.2
7840.2
7840.2
7840.21
7840.21
7840.21
7840.21
7840.21
7840.21
7840.21
7840.21
7840.21
7840.21
7840.21
7840.21
7840.21
7840.21
7840.21
7840.21
7840.21
7840.21
7840.21
7840.21
7840.21
7840.21
7880.31
7879.41
7878.71
7878.01
7877.32
7876.64
7875.96
7875.29
7874.62
7873.97
7873.32
7872.68
7872.05
7871.42
7870.81
7870.2
7869.6
7869.01
7868.43
7867.85
7867.29
7866.73
7866.19
7865.65
7865.12
7864.6
7864.08
7863.58
7863.09
7862.6
7862.12
7861.65
7861.19
7860.74
7860.3
7859.87
7859.44
7859.02
7858.61
7858.21
7857.82
7857.43
7857.05
7856.68
7856.32
7855.96
7855.62
7855.28
7854.94
7854.62
7854.3
7853.99
7853.69
7853.39
7853.1
7852.81
7852.54
7852.27
7852
7851.75
7851.5
7851.25
7851.01
7850.78
7850.55
7850.33
7850.12
7849.91
7849.71
7849.52
7849.33
7849.14
7848.96
7848.79
7848.63
7848.46
7848.31
7848.16
7848
7847.85
7847.71
7847.56
7847.42
7847.3
7847.17
7846.93
7846.78
7846.63
7846.49
7846.35
7846.21
7846.08
7845.93
7845.8
7845.67
7845.54
7845.41
7845.28
7845.16
7845.04
7844.92
7844.81
7844.69
7844.58
7844.47
7844.37
7844.26
7844.16
7844.06
7843.96
7843.87
7843.77
7843.68
7843.59
7843.5
7843.42
7843.33
7843.25
7843.17
7843.09
7843.02
7842.94
7842.87
7842.8
7842.73
7842.66
7842.6
7842.53
7842.47
7842.41
7842.35
7842.29
7842.24
7842.18
7842.13
7842.08
7842.03
7841.99
7841.94
7841.9
7841.85
7841.81
7841.77
7841.73
7841.7
7841.66
7841.63
7841.59
7841.56
7841.53
7841.5
7841.47
7841.44
7841.42
7841.39
7841.37
7841.35
7841.32
7841.3
7841.28
7841.26
7841.24
7841.22
7841.21
7841.19
7841.17
7841.16
7841.14
7841.12
7841.11
7841.1
7841.08
7841.07
7841.06
7841.04
7841.03
7841.02
7841.01
7841
7840.99
7840.97
7840.96
7840.95
7840.94
7840.93
7840.92
7840.91
7840.9
7840.89
7840.88
7840.88
7840.87
7840.86
7840.85
7840.84
7840.83
7840.82
7840.82
7840.81
7840.8
7840.79
7840.79
7840.78
7840.77
7840.76
7840.76
7840.75
7840.74
7840.74
7840.73
7840.73
7840.72
7840.71
7840.71
7840.7
7840.7
7840.69
7840.69
7840.68
7840.68
7840.68
7840.67
7840.67
7840.66
7840.66
7840.66
7840.65
7840.65
7840.65
7840.64
7840.64
7840.64
7840.64
7840.63
7840.63
7840.63
7840.62
7840.62
7840.62
7840.62
7840.61
7840.61
7840.61
7840.61
7840.6
7840.6
7840.6
7840.6
7840.59
7840.59
7840.59
7840.59
7840.58
7840.58
7840.58
7840.58
7840.57
7840.57
7840.57
7840.56
7840.56
7840.56
7840.55
7840.55
7840.55
7840.54
7840.54
7840.54
7840.53
7840.53
7840.53
7840.52
7840.52
7840.51
7840.51
7840.51
7840.5
7840.5
7840.5
7840.49
7840.49
7840.49
7840.48
7840.48
7840.48
7840.48
7840.47
7840.47
7840.47
7840.47
7840.46
7840.46
7840.46
7840.46
7840.46
7840.45
7840.45
7840.45
7840.45
7840.45
7840.45
7840.45
7840.44
7840.44
7840.44
7840.44
7840.44
7840.44
7840.44
7840.44
7840.44
7840.44
7840.44
7840.44
7840.44
7840.44
7840.44
7840.44
7840.44
7840.44
7840.44
7840.44
7840.44
7840.44
7840.44
7840.44
7840.44
7840.44
7840.43
7840.43
7840.43
7840.43
7840.43
7840.43
7840.43
7840.43
7840.43
7840.43
7840.42
7840.42
7840.42
7840.42
7840.42
7840.42
7840.41
7840.41
7840.41
7840.41
7840.4
7840.4
7840.4
7840.4
7840.39
7840.39
7840.39
7840.39
7840.38
7840.38
7840.38
7840.37
7840.37
7840.37
7840.36
7840.36
7840.35
7840.35
7840.35
7840.34
7840.34
7840.33
7840.33
7840.33
7840.32
7840.32
7840.31
7840.31
7840.3
7840.3
7840.29
7840.29
7840.28
7840.28
7840.27
7840.27
7840.26
7840.26
7840.25
7840.25
7840.24
7840.24
7840.23
7840.23
7840.23
7840.22
7840.22
7840.21
7840.21
7840.2
7840.2
7840.19
7840.19
7840.19
7840.18
7840.18
7840.18
7840.17
7840.17
7840.17
7840.17
7840.16
7840.16
7840.16
7840.16
7840.16
7840.16
7840.16
7840.16
7840.16
7840.16
7840.16
7840.16
7840.16
7840.16
7840.16
7840.16
7840.16
7840.16
7840.16
7840.16
7840.17
7840.17
7840.17
7840.17
7840.17
7840.17
7840.17
7840.18
7840.18
7840.18
7840.18
7840.18
7840.18
7840.18
7840.18
7840.18
7840.18
7840.18
7840.18
7840.18
7840.18
7840.18
7840.17
7840.17
7840.17
7840.17
7840.17
7840.16
7840.16
7840.16
7840.16
7840.15
7840.15
7840.15
7840.14
7840.14
7840.14
7840.14
7840.13
7840.13
7840.13
7840.13
7840.12
7840.12
7840.12
7840.12
7840.12
7840.11
7840.11
7840.11
7840.11
7840.11
7840.11
7840.11
7840.11
7840.11
7840.11
7840.11
7840.11
7840.11
7840.11
7840.11
7840.11
7840.12
7840.12
7840.12
7840.12
7840.12
7840.13
7840.13
7840.13
7840.13
7840.14
7840.14
7840.14
7840.15
7840.15
7840.15
7840.16
7840.16
7840.16
7840.17
7840.17
7840.17
7840.17
7840.18
7840.18
7840.18
7840.18
7840.19
7840.19
7840.19
7840.19
7840.2
7840.2
7840.2
7840.2
7840.2
7840.2
7840.2
7840.21
7840.21
7840.21
7840.21
7840.21
7840.21
7840.21
7840.21
7840.21
7840.21
7840.21
7840.21
7840.21
7840.21
7840.21
7840.21
7840.21
7840.21
7840.21
7840.21
7840.21
7880.27
7879.36
7878.66
7877.96
7877.27
7876.58
7875.9
7875.23
7874.57
7873.91
7873.26
7872.62
7871.99
7871.36
7870.74
7870.13
7869.53
7868.94
7868.36
7867.79
7867.22
7866.67
7866.12
7865.58
7865.05
7864.53
7864.02
7863.51
7863.02
7862.53
7862.06
7861.59
7861.13
7860.68
7860.24
7859.8
7859.38
7858.96
7858.55
7858.15
7857.76
7857.37
7856.99
7856.62
7856.26
7855.91
7855.56
7855.22
7854.89
7854.57
7854.25
7853.94
7853.64
7853.34
7853.05
7852.77
7852.49
7852.22
7851.96
7851.7
7851.45
7851.21
7850.97
7850.74
7850.51
7850.29
7850.08
7849.87
7849.67
7849.47
7849.28
7849.1
7848.92
7848.74
7848.57
7848.41
7848.25
7848.09
7847.94
7847.79
7847.64
7847.49
7847.34
7847.19
7847.04
7846.9
7846.77
7846.66
7846.54
7846.33
7846.19
7846.05
7845.92
7845.78
7845.65
7845.52
7845.39
7845.27
7845.14
7845.02
7844.91
7844.79
7844.68
7844.56
7844.46
7844.35
7844.25
7844.14
7844.04
7843.95
7843.85
7843.76
7843.66
7843.58
7843.49
7843.4
7843.32
7843.24
7843.16
7843.08
7843
7842.93
7842.86
7842.79
7842.72
7842.65
7842.58
7842.52
7842.46
7842.4
7842.34
7842.28
7842.23
7842.17
7842.12
7842.07
7842.02
7841.98
7841.93
7841.89
7841.84
7841.8
7841.76
7841.72
7841.69
7841.65
7841.62
7841.58
7841.55
7841.52
7841.49
7841.46
7841.44
7841.41
7841.39
7841.36
7841.34
7841.32
7841.29
7841.27
7841.25
7841.23
7841.22
7841.2
7841.18
7841.16
7841.15
7841.13
7841.12
7841.1
7841.09
7841.08
7841.06
7841.05
7841.04
7841.02
7841.01
7841
7840.99
7840.98
7840.97
7840.96
7840.95
7840.94
7840.92
7840.91
7840.91
7840.9
7840.89
7840.88
7840.87
7840.86
7840.85
7840.84
7840.83
7840.82
7840.81
7840.81
7840.8
7840.79
7840.78
7840.78
7840.77
7840.76
7840.75
7840.75
7840.74
7840.73
7840.73
7840.72
7840.71
7840.71
7840.7
7840.7
7840.69
7840.69
7840.68
7840.68
7840.67
7840.67
7840.66
7840.66
7840.66
7840.65
7840.65
7840.65
7840.64
7840.64
7840.64
7840.63
7840.63
7840.63
7840.62
7840.62
7840.62
7840.62
7840.61
7840.61
7840.61
7840.61
7840.6
7840.6
7840.6
7840.6
7840.59
7840.59
7840.59
7840.59
7840.58
7840.58
7840.58
7840.58
7840.57
7840.57
7840.57
7840.57
7840.56
7840.56
7840.56
7840.55
7840.55
7840.55
7840.54
7840.54
7840.54
7840.53
7840.53
7840.53
7840.52
7840.52
7840.52
7840.51
7840.51
7840.51
7840.5
7840.5
7840.5
7840.49
7840.49
7840.49
7840.48
7840.48
7840.48
7840.47
7840.47
7840.47
7840.46
7840.46
7840.46
7840.46
7840.45
7840.45
7840.45
7840.45
7840.45
7840.44
7840.44
7840.44
7840.44
7840.44
7840.44
7840.44
7840.44
7840.43
7840.43
7840.43
7840.43
7840.43
7840.43
7840.43
7840.43
7840.43
7840.43
7840.43
7840.43
7840.43
7840.43
7840.43
7840.43
7840.43
7840.43
7840.43
7840.43
7840.43
7840.43
7840.43
7840.43
7840.43
7840.43
7840.42
7840.42
7840.42
7840.42
7840.42
7840.42
7840.42
7840.42
7840.42
7840.42
7840.41
7840.41
7840.41
7840.41
7840.41
7840.41
7840.4
7840.4
7840.4
7840.4
7840.4
7840.39
7840.39
7840.39
7840.39
7840.38
7840.38
7840.38
7840.37
7840.37
7840.37
7840.36
7840.36
7840.36
7840.35
7840.35
7840.35
7840.34
7840.34
7840.33
7840.33
7840.33
7840.32
7840.32
7840.31
7840.31
7840.3
7840.3
7840.3
7840.29
7840.29
7840.28
7840.28
7840.27
7840.27
7840.26
7840.26
7840.25
7840.25
7840.24
7840.24
7840.23
7840.23
7840.22
7840.22
7840.21
7840.21
7840.2
7840.2
7840.2
7840.19
7840.19
7840.18
7840.18
7840.18
7840.18
7840.17
7840.17
7840.17
7840.16
7840.16
7840.16
7840.16
7840.16
7840.16
7840.16
7840.16
7840.15
7840.15
7840.15
7840.15
7840.16
7840.16
7840.16
7840.16
7840.16
7840.16
7840.16
7840.16
7840.16
7840.17
7840.17
7840.17
7840.17
7840.17
7840.17
7840.17
7840.18
7840.18
7840.18
7840.18
7840.18
7840.18
7840.18
7840.18
7840.18
7840.18
7840.18
7840.18
7840.18
7840.18
7840.18
7840.18
7840.17
7840.17
7840.17
7840.17
7840.17
7840.16
7840.16
7840.16
7840.15
7840.15
7840.15
7840.15
7840.14
7840.14
7840.14
7840.14
7840.13
7840.13
7840.13
7840.13
7840.12
7840.12
7840.12
7840.12
7840.12
7840.11
7840.11
7840.11
7840.11
7840.11
7840.11
7840.11
7840.11
7840.11
7840.11
7840.11
7840.11
7840.11
7840.11
7840.11
7840.12
7840.12
7840.12
7840.12
7840.12
7840.13
7840.13
7840.13
7840.13
7840.14
7840.14
7840.14
7840.15
7840.15
7840.15
7840.16
7840.16
7840.16
7840.16
7840.17
7840.17
7840.17
7840.18
7840.18
7840.18
7840.18
7840.19
7840.19
7840.19
7840.19
7840.19
7840.2
7840.2
7840.2
7840.2
7840.2
7840.2
7840.2
7840.21
7840.21
7840.21
7840.21
7840.21
7840.21
7840.21
7840.21
7840.21
7840.21
7840.21
7840.21
7840.21
7840.21
7840.21
7840.21
7840.21
7840.21
7840.21
7840.21
7880.21
7879.3
7878.6
7877.9
7877.2
7876.51
7875.83
7875.16
7874.49
7873.83
7873.18
7872.54
7871.9
7871.28
7870.66
7870.05
7869.45
7868.86
7868.27
7867.7
7867.13
7866.58
7866.03
7865.49
7864.96
7864.44
7863.93
7863.42
7862.93
7862.45
7861.97
7861.5
7861.04
7860.59
7860.15
7859.72
7859.29
7858.88
7858.47
7858.07
7857.68
7857.29
7856.92
7856.55
7856.19
7855.83
7855.49
7855.15
7854.82
7854.5
7854.18
7853.87
7853.57
7853.27
7852.98
7852.7
7852.43
7852.16
7851.9
7851.64
7851.39
7851.15
7850.91
7850.68
7850.45
7850.24
7850.02
7849.81
7849.61
7849.42
7849.22
7849.04
7848.86
7848.68
7848.51
7848.35
7848.18
7848.02
7847.87
7847.71
7847.56
7847.41
7847.27
7847.12
7846.98
7846.84
7846.7
7846.57
7846.43
7846.31
7846.2
7846.09
7845.88
7845.75
7845.62
7845.49
7845.37
7845.25
7845.12
7845
7844.88
7844.77
7844.65
7844.54
7844.43
7844.33
7844.22
7844.12
7844.02
7843.92
7843.83
7843.74
7843.64
7843.56
7843.47
7843.38
7843.3
7843.22
7843.14
7843.06
7842.99
7842.91
7842.84
7842.77
7842.7
7842.63
7842.57
7842.5
7842.44
7842.38
7842.32
7842.27
7842.21
7842.16
7842.11
7842.06
7842.01
7841.96
7841.92
7841.87
7841.83
7841.79
7841.75
7841.71
7841.68
7841.64
7841.61
7841.57
7841.54
7841.51
7841.48
7841.45
7841.43
7841.4
7841.37
7841.35
7841.33
7841.31
7841.28
7841.26
7841.24
7841.22
7841.21
7841.19
7841.17
7841.15
7841.14
7841.12
7841.11
7841.09
7841.08
7841.07
7841.05
7841.04
7841.03
7841.01
7841
7840.99
7840.98
7840.97
7840.96
7840.95
7840.94
7840.92
7840.91
7840.9
7840.89
7840.88
7840.87
7840.87
7840.86
7840.85
7840.84
7840.83
7840.82
7840.81
7840.8
7840.79
7840.79
7840.78
7840.77
7840.76
7840.75
7840.75
7840.74
7840.73
7840.73
7840.72
7840.71
7840.71
7840.7
7840.69
7840.69
7840.68
7840.68
7840.67
7840.67
7840.66
7840.66
7840.65
7840.65
7840.64
7840.64
7840.64
7840.63
7840.63
7840.63
7840.62
7840.62
7840.62
7840.61
7840.61
7840.61
7840.61
7840.6
7840.6
7840.6
7840.6
7840.59
7840.59
7840.59
7840.59
7840.58
7840.58
7840.58
7840.58
7840.58
7840.57
7840.57
7840.57
7840.57
7840.56
7840.56
7840.56
7840.56
7840.55
7840.55
7840.55
7840.54
7840.54
7840.54
7840.54
7840.53
7840.53
7840.53
7840.52
7840.52
7840.52
7840.51
7840.51
7840.51
7840.5
7840.5
7840.49
7840.49
7840.49
7840.48
7840.48
7840.48
7840.47
7840.47
7840.47
7840.46
7840.46
7840.46
7840.46
7840.45
7840.45
7840.45
7840.45
7840.44
7840.44
7840.44
7840.44
7840.43
7840.43
7840.43
7840.43
7840.43
7840.43
7840.43
7840.42
7840.42
7840.42
7840.42
7840.42
7840.42
7840.42
7840.42
7840.42
7840.42
7840.42
7840.42
7840.42
7840.42
7840.42
7840.42
7840.42
7840.42
7840.42
7840.41
7840.41
7840.41
7840.41
7840.41
7840.41
7840.41
7840.41
7840.41
7840.41
7840.41
7840.41
7840.41
7840.41
7840.41
7840.41
7840.41
7840.41
7840.4
7840.4
7840.4
7840.4
7840.4
7840.4
7840.4
7840.39
7840.39
7840.39
7840.39
7840.39
7840.38
7840.38
7840.38
7840.38
7840.37
7840.37
7840.37
7840.37
7840.36
7840.36
7840.36
7840.35
7840.35
7840.35
7840.34
7840.34
7840.34
7840.33
7840.33
7840.32
7840.32
7840.32
7840.31
7840.31
7840.3
7840.3
7840.3
7840.29
7840.29
7840.28
7840.28
7840.27
7840.27
7840.26
7840.26
7840.25
7840.25
7840.24
7840.24
7840.23
7840.23
7840.22
7840.22
7840.21
7840.21
7840.21
7840.2
7840.2
7840.19
7840.19
7840.19
7840.18
7840.18
7840.18
7840.17
7840.17
7840.17
7840.16
7840.16
7840.16
7840.16
7840.16
7840.16
7840.15
7840.15
7840.15
7840.15
7840.15
7840.15
7840.15
7840.15
7840.15
7840.16
7840.16
7840.16
7840.16
7840.16
7840.16
7840.16
7840.16
7840.17
7840.17
7840.17
7840.17
7840.17
7840.17
7840.18
7840.18
7840.18
7840.18
7840.18
7840.18
7840.18
7840.18
7840.18
7840.18
7840.18
7840.18
7840.18
7840.18
7840.18
7840.18
7840.18
7840.18
7840.17
7840.17
7840.17
7840.17
7840.16
7840.16
7840.16
7840.15
7840.15
7840.15
7840.15
7840.14
7840.14
7840.14
7840.13
7840.13
7840.13
7840.13
7840.12
7840.12
7840.12
7840.12
7840.12
7840.12
7840.11
7840.11
7840.11
7840.11
7840.11
7840.11
7840.11
7840.11
7840.11
7840.11
7840.11
7840.11
7840.11
7840.12
7840.12
7840.12
7840.12
7840.12
7840.12
7840.13
7840.13
7840.13
7840.13
7840.14
7840.14
7840.14
7840.15
7840.15
7840.15
7840.15
7840.16
7840.16
7840.16
7840.17
7840.17
7840.17
7840.17
7840.18
7840.18
7840.18
7840.18
7840.19
7840.19
7840.19
7840.19
7840.19
7840.2
7840.2
7840.2
7840.2
7840.2
7840.2
7840.2
7840.2
7840.2
7840.21
7840.21
7840.21
7840.21
7840.21
7840.21
7840.21
7840.21
7840.21
7840.21
7840.21
7840.21
7840.21
7840.21
7840.21
7840.21
7840.21
7880.14
7879.23
7878.52
7877.82
7877.12
7876.43
7875.74
7875.07
7874.4
7873.73
7873.08
7872.44
7871.8
7871.17
7870.55
7869.94
7869.34
7868.75
7868.16
7867.59
7867.02
7866.46
7865.92
7865.38
7864.85
7864.33
7863.82
7863.31
7862.82
7862.33
7861.86
7861.39
7860.93
7860.48
7860.04
7859.61
7859.19
7858.77
7858.37
7857.97
7857.58
7857.19
7856.82
7856.45
7856.09
7855.74
7855.4
7855.06
7854.73
7854.41
7854.09
7853.79
7853.49
7853.19
7852.9
7852.62
7852.35
7852.08
7851.82
7851.57
7851.32
7851.07
7850.84
7850.61
7850.38
7850.17
7849.95
7849.75
7849.54
7849.35
7849.16
7848.97
7848.79
7848.61
7848.44
7848.27
7848.11
7847.95
7847.79
7847.64
7847.49
7847.34
7847.19
7847.05
7846.9
7846.76
7846.63
7846.49
7846.36
7846.23
7846.1
7845.98
7845.86
7845.76
7845.65
7845.45
7845.33
7845.21
7845.09
7844.97
7844.85
7844.74
7844.62
7844.51
7844.4
7844.3
7844.19
7844.09
7843.99
7843.9
7843.8
7843.71
7843.62
7843.53
7843.44
7843.36
7843.28
7843.19
7843.12
7843.04
7842.96
7842.89
7842.82
7842.75
7842.68
7842.61
7842.55
7842.48
7842.42
7842.36
7842.31
7842.25
7842.2
7842.14
7842.09
7842.04
7841.99
7841.95
7841.9
7841.86
7841.81
7841.77
7841.73
7841.7
7841.66
7841.62
7841.59
7841.56
7841.53
7841.5
7841.47
7841.44
7841.41
7841.39
7841.36
7841.34
7841.31
7841.29
7841.27
7841.25
7841.23
7841.21
7841.19
7841.18
7841.16
7841.14
7841.13
7841.11
7841.1
7841.08
7841.07
7841.05
7841.04
7841.03
7841.01
7841
7840.99
7840.98
7840.97
7840.96
7840.94
7840.93
7840.92
7840.91
7840.9
7840.89
7840.88
7840.87
7840.86
7840.85
7840.84
7840.83
7840.82
7840.81
7840.8
7840.8
7840.79
7840.78
7840.77
7840.76
7840.75
7840.75
7840.74
7840.73
7840.72
7840.72
7840.71
7840.7
7840.7
7840.69
7840.68
7840.68
7840.67
7840.66
7840.66
7840.65
7840.65
7840.64
7840.64
7840.63
7840.63
7840.63
7840.62
7840.62
7840.61
7840.61
7840.61
7840.6
7840.6
7840.6
7840.59
7840.59
7840.59
7840.59
7840.58
7840.58
7840.58
7840.58
7840.58
7840.57
7840.57
7840.57
7840.57
7840.56
7840.56
7840.56
7840.56
7840.56
7840.55
7840.55
7840.55
7840.55
7840.54
7840.54
7840.54
7840.54
7840.53
7840.53
7840.53
7840.53
7840.52
7840.52
7840.52
7840.51
7840.51
7840.51
7840.5
7840.5
7840.5
7840.49
7840.49
7840.49
7840.48
7840.48
7840.48
7840.47
7840.47
7840.47
7840.46
7840.46
7840.46
7840.45
7840.45
7840.45
7840.45
7840.44
7840.44
7840.44
7840.43
7840.43
7840.43
7840.43
7840.42
7840.42
7840.42
7840.42
7840.42
7840.41
7840.41
7840.41
7840.41
7840.41
7840.41
7840.41
7840.41
7840.4
7840.4
7840.4
7840.4
7840.4
7840.4
7840.4
7840.4
7840.4
7840.4
7840.4
7840.4
7840.4
7840.4
7840.4
7840.4
7840.4
7840.4
7840.4
7840.4
7840.4
7840.4
7840.4
7840.4
7840.4
7840.4
7840.4
7840.39
7840.39
7840.39
7840.39
7840.39
7840.39
7840.39
7840.39
7840.39
7840.39
7840.39
7840.38
7840.38
7840.38
7840.38
7840.38
7840.38
7840.37
7840.37
7840.37
7840.37
7840.37
7840.36
7840.36
7840.36
7840.36
7840.35
7840.35
7840.35
7840.34
7840.34
7840.34
7840.34
7840.33
7840.33
7840.33
7840.32
7840.32
7840.31
7840.31
7840.31
7840.3
7840.3
7840.29
7840.29
7840.29
7840.28
7840.28
7840.27
7840.27
7840.26
7840.26
7840.25
7840.25
7840.24
7840.24
7840.23
7840.23
7840.22
7840.22
7840.22
7840.21
7840.21
7840.2
7840.2
7840.19
7840.19
7840.19
7840.18
7840.18
7840.18
7840.17
7840.17
7840.17
7840.16
7840.16
7840.16
7840.16
7840.16
7840.15
7840.15
7840.15
7840.15
7840.15
7840.15
7840.15
7840.15
7840.15
7840.15
7840.15
7840.15
7840.15
7840.16
7840.16
7840.16
7840.16
7840.16
7840.16
7840.17
7840.17
7840.17
7840.17
7840.17
7840.17
7840.18
7840.18
7840.18
7840.18
7840.18
7840.18
7840.18
7840.18
7840.18
7840.18
7840.18
7840.18
7840.18
7840.18
7840.18
7840.18
7840.18
7840.18
7840.18
7840.17
7840.17
7840.17
7840.17
7840.16
7840.16
7840.16
7840.15
7840.15
7840.15
7840.15
7840.14
7840.14
7840.14
7840.13
7840.13
7840.13
7840.13
7840.13
7840.12
7840.12
7840.12
7840.12
7840.12
7840.12
7840.11
7840.11
7840.11
7840.11
7840.11
7840.11
7840.11
7840.11
7840.11
7840.11
7840.11
7840.12
7840.12
7840.12
7840.12
7840.12
7840.12
7840.13
7840.13
7840.13
7840.13
7840.14
7840.14
7840.14
7840.14
7840.15
7840.15
7840.15
7840.16
7840.16
7840.16
7840.16
7840.17
7840.17
7840.17
7840.18
7840.18
7840.18
7840.18
7840.18
7840.19
7840.19
7840.19
7840.19
7840.19
7840.19
7840.2
7840.2
7840.2
7840.2
7840.2
7840.2
7840.2
7840.2
7840.2
7840.2
7840.2
7840.2
7840.2
7840.2
7840.2
7840.2
7840.21
7840.21
7840.21
7840.21
7840.21
7840.21
7840.21
7840.21
7880.06
7879.14
7878.43
7877.72
7877.02
7876.32
7875.63
7874.95
7874.28
7873.62
7872.96
7872.31
7871.68
7871.05
7870.42
7869.81
7869.21
7868.62
7868.03
7867.45
7866.89
7866.33
7865.78
7865.24
7864.71
7864.19
7863.68
7863.18
7862.69
7862.2
7861.73
7861.26
7860.8
7860.36
7859.92
7859.49
7859.06
7858.65
7858.24
7857.85
7857.46
7857.08
7856.7
7856.34
7855.98
7855.63
7855.29
7854.95
7854.62
7854.3
7853.99
7853.68
7853.39
7853.09
7852.81
7852.53
7852.26
7851.99
7851.73
7851.48
7851.23
7850.99
7850.75
7850.52
7850.3
7850.08
7849.87
7849.66
7849.46
7849.27
7849.08
7848.89
7848.71
7848.53
7848.36
7848.19
7848.03
7847.86
7847.71
7847.55
7847.4
7847.25
7847.11
7846.96
7846.82
7846.68
7846.55
7846.42
7846.28
7846.15
7846.03
7845.9
7845.78
7845.66
7845.54
7845.42
7845.33
7845.22
7845.04
7844.92
7844.81
7844.7
7844.59
7844.48
7844.37
7844.26
7844.16
7844.06
7843.96
7843.86
7843.77
7843.68
7843.59
7843.5
7843.41
7843.33
7843.25
7843.17
7843.09
7843.01
7842.94
7842.86
7842.79
7842.72
7842.65
7842.59
7842.52
7842.46
7842.4
7842.34
7842.28
7842.23
7842.17
7842.12
7842.07
7842.02
7841.97
7841.93
7841.88
7841.84
7841.8
7841.76
7841.72
7841.68
7841.64
7841.61
7841.57
7841.54
7841.51
7841.48
7841.45
7841.42
7841.4
7841.37
7841.35
7841.32
7841.3
7841.28
7841.26
7841.24
7841.22
7841.2
7841.18
7841.16
7841.14
7841.13
7841.11
7841.1
7841.08
7841.07
7841.05
7841.04
7841.03
7841.01
7841
7840.99
7840.98
7840.96
7840.95
7840.94
7840.93
7840.92
7840.91
7840.9
7840.89
7840.88
7840.86
7840.85
7840.84
7840.83
7840.82
7840.82
7840.81
7840.8
7840.79
7840.78
7840.77
7840.76
7840.75
7840.74
7840.73
7840.73
7840.72
7840.71
7840.7
7840.7
7840.69
7840.68
7840.67
7840.67
7840.66
7840.65
7840.65
7840.64
7840.64
7840.63
7840.63
7840.62
7840.62
7840.61
7840.61
7840.6
7840.6
7840.59
7840.59
7840.59
7840.58
7840.58
7840.58
7840.57
7840.57
7840.57
7840.57
7840.56
7840.56
7840.56
7840.56
7840.56
7840.55
7840.55
7840.55
7840.55
7840.55
7840.54
7840.54
7840.54
7840.54
7840.54
7840.53
7840.53
7840.53
7840.53
7840.53
7840.52
7840.52
7840.52
7840.52
7840.51
7840.51
7840.51
7840.51
7840.5
7840.5
7840.5
7840.49
7840.49
7840.49
7840.48
7840.48
7840.48
7840.47
7840.47
7840.47
7840.46
7840.46
7840.46
7840.45
7840.45
7840.45
7840.44
7840.44
7840.44
7840.44
7840.43
7840.43
7840.43
7840.42
7840.42
7840.42
7840.41
7840.41
7840.41
7840.41
7840.41
7840.4
7840.4
7840.4
7840.4
7840.4
7840.39
7840.39
7840.39
7840.39
7840.39
7840.39
7840.39
7840.39
7840.38
7840.38
7840.38
7840.38
7840.38
7840.38
7840.38
7840.38
7840.38
7840.38
7840.38
7840.38
7840.38
7840.38
7840.38
7840.38
7840.38
7840.38
7840.38
7840.38
7840.38
7840.38
7840.38
7840.38
7840.38
7840.38
7840.38
7840.38
7840.37
7840.37
7840.37
7840.37
7840.37
7840.37
7840.37
7840.37
7840.37
7840.37
7840.37
7840.36
7840.36
7840.36
7840.36
7840.36
7840.36
7840.36
7840.35
7840.35
7840.35
7840.35
7840.34
7840.34
7840.34
7840.34
7840.33
7840.33
7840.33
7840.33
7840.32
7840.32
7840.32
7840.31
7840.31
7840.31
7840.3
7840.3
7840.3
7840.29
7840.29
7840.28
7840.28
7840.27
7840.27
7840.27
7840.26
7840.26
7840.25
7840.25
7840.24