/*--------------------------------*- C++ -*----------------------------------*\
| =========                 |                                                 |
| \\      /  F ield         | OpenFOAM: The Open Source CFD Toolbox           |
|  \\    /   O peration     | Version:  v2006                                 |
|   \\  /    A nd           | Website:  www.openfoam.com                      |
|    \\/     M anipulation  |                                                 |
\*---------------------------------------------------------------------------*/
FoamFile
{
    version     2.0;
    format      ascii;
    class       volVectorField;
    location    "0.1";
    object      U;
}
// * * * * * * * * * * * * * * * * * * * * * * * * * * * * * * * * * * * * * //

dimensions      [0 1 -1 0 0 0 0];


internalField   nonuniform List<vector> 
33000
(
(0.00379248 0 4.44583e-05)
(0.006826 0 4.80791e-05)
(0.00626193 0 4.98451e-05)
(0.00619583 0 5.16515e-05)
(0.00613069 0 5.3372e-05)
(0.00606136 0 5.50171e-05)
(0.00599017 0 5.65539e-05)
(0.00591728 0 5.79761e-05)
(0.00584283 0 5.92939e-05)
(0.00576695 0 6.04506e-05)
(0.00568977 0 6.1484e-05)
(0.00561139 0 6.24258e-05)
(0.00553197 0 6.32783e-05)
(0.00545167 0 6.4017e-05)
(0.00537057 0 6.46355e-05)
(0.00528878 0 6.51443e-05)
(0.00520642 0 6.5566e-05)
(0.00512359 0 6.59005e-05)
(0.00504041 0 6.61399e-05)
(0.00495699 0 6.62966e-05)
(0.00487343 0 6.63836e-05)
(0.0047898 0 6.63958e-05)
(0.0047062 0 6.63274e-05)
(0.0046227 0 6.61874e-05)
(0.00453941 0 6.59859e-05)
(0.00445638 0 6.57233e-05)
(0.0043737 0 6.53998e-05)
(0.00429144 0 6.50245e-05)
(0.00420966 0 6.46067e-05)
(0.00412843 0 6.41455e-05)
(0.00404779 0 6.36372e-05)
(0.0039678 0 6.30872e-05)
(0.00388851 0 6.25051e-05)
(0.00380997 0 6.18914e-05)
(0.00373223 0 6.12404e-05)
(0.00365533 0 6.05552e-05)
(0.00357931 0 5.98465e-05)
(0.00350421 0 5.91218e-05)
(0.00343004 0 5.83786e-05)
(0.00335683 0 5.76141e-05)
(0.0032846 0 5.68342e-05)
(0.00321335 0 5.60499e-05)
(0.00314309 0 5.52661e-05)
(0.0030738 0 5.44812e-05)
(0.00300549 0 5.36909e-05)
(0.00293815 0 5.28955e-05)
(0.00287179 0 5.2099e-05)
(0.0028064 0 5.13056e-05)
(0.00274197 0 5.05191e-05)
(0.00267848 0 4.97416e-05)
(0.00261595 0 4.89719e-05)
(0.00255436 0 4.8207e-05)
(0.00249371 0 4.74482e-05)
(0.00243399 0 4.67039e-05)
(0.00237517 0 4.59807e-05)
(0.00231722 0 4.52803e-05)
(0.00226013 0 4.46008e-05)
(0.00220386 0 4.39412e-05)
(0.0021484 0 4.33071e-05)
(0.0020937 0 4.271e-05)
(0.00203971 0 4.21596e-05)
(0.00198636 0 4.16606e-05)
(0.00193359 0 4.12202e-05)
(0.00188133 0 4.08501e-05)
(0.00182948 0 4.05697e-05)
(0.00177791 0 4.03997e-05)
(0.00172647 0 4.03657e-05)
(0.00167495 0 4.05156e-05)
(0.00162307 0 4.09336e-05)
(0.0015704 0 4.17397e-05)
(0.00151636 0 4.31005e-05)
(0.00146008 0 4.53185e-05)
(0.00140017 0 4.89818e-05)
(0.00133431 0 5.51936e-05)
(0.00125854 0 6.60444e-05)
(0.00116623 0 8.57174e-05)
(0.00103661 0 0.000122407)
(0.00101321 0 0.000198009)
(0.000541282 0 9.06012e-05)
(0.000585802 0 1.23201e-05)
(0.000490518 0 -2.54038e-05)
(0.000500755 0 -4.85232e-05)
(0.000496574 0 8.9772e-06)
(0.000481514 0 1.22618e-05)
(0.000485079 0 1.30809e-05)
(0.000479087 0 1.08389e-05)
(0.000463428 0 8.14642e-06)
(0.00045238 0 5.15452e-06)
(0.000443471 0 3.2456e-06)
(0.000435717 0 5.89124e-06)
(0.000426926 0 6.14106e-06)
(0.000419492 0 6.2826e-06)
(0.000411595 0 6.4912e-06)
(0.000403251 0 6.4016e-06)
(0.00039512 0 6.40116e-06)
(0.000386829 0 6.57367e-06)
(0.000378512 0 6.733e-06)
(0.000369629 0 6.87266e-06)
(0.000362047 0 7.45963e-06)
(0.000351104 0 7.2072e-06)
(0.000343743 0 6.3695e-06)
(0.000335348 0 5.59997e-06)
(0.000327982 0 5.42305e-06)
(0.000320429 0 5.85388e-06)
(0.000312954 0 5.81812e-06)
(0.000305733 0 5.77592e-06)
(0.000298498 0 5.70758e-06)
(0.00029129 0 5.5965e-06)
(0.000284229 0 5.48099e-06)
(0.000277304 0 5.38129e-06)
(0.000270496 0 5.30616e-06)
(0.000263798 0 5.23571e-06)
(0.00025722 0 5.15617e-06)
(0.000250727 0 5.09126e-06)
(0.000244378 0 5.07834e-06)
(0.000237797 0 5.08001e-06)
(0.000232137 0 5.34453e-06)
(0.000224361 0 5.1145e-06)
(0.000219036 0 4.54674e-06)
(0.000213152 0 4.02479e-06)
(0.00020793 0 3.86432e-06)
(0.000202703 0 4.0429e-06)
(0.000197556 0 3.981e-06)
(0.000192601 0 3.90098e-06)
(0.000187701 0 3.8223e-06)
(0.000182876 0 3.72594e-06)
(0.000178174 0 3.64061e-06)
(0.000173569 0 3.56755e-06)
(0.000169061 0 3.49122e-06)
(0.000164655 0 3.41495e-06)
(0.000160344 0 3.33761e-06)
(0.000156131 0 3.25787e-06)
(0.000152013 0 3.18546e-06)
(0.000147983 0 3.11398e-06)
(0.000144045 0 3.03922e-06)
(0.000140204 0 2.96433e-06)
(0.000136456 0 2.89617e-06)
(0.00013279 0 2.83237e-06)
(0.000129206 0 2.76743e-06)
(0.000125708 0 2.6988e-06)
(0.0001223 0 2.63039e-06)
(0.000118976 0 2.56648e-06)
(0.00011573 0 2.50541e-06)
(0.000112563 0 2.44062e-06)
(0.000109478 0 2.37996e-06)
(0.00010647 0 2.32477e-06)
(0.00010353 0 2.26911e-06)
(0.000100665 0 2.20993e-06)
(9.78778e-05 0 2.15227e-06)
(9.51625e-05 0 2.09902e-06)
(9.25145e-05 0 2.04632e-06)
(8.99356e-05 0 1.99255e-06)
(8.74261e-05 0 1.9419e-06)
(8.49816e-05 0 1.89405e-06)
(8.26002e-05 0 1.84526e-06)
(8.0284e-05 0 1.79641e-06)
(7.80314e-05 0 1.75076e-06)
(7.58396e-05 0 1.70553e-06)
(7.37087e-05 0 1.66015e-06)
(7.16372e-05 0 1.61878e-06)
(6.96197e-05 0 1.58125e-06)
(6.76552e-05 0 1.54071e-06)
(6.57481e-05 0 1.4956e-06)
(6.38999e-05 0 1.45374e-06)
(6.21044e-05 0 1.41852e-06)
(6.03565e-05 0 1.38429e-06)
(5.86584e-05 0 1.34624e-06)
(5.70128e-05 0 1.30826e-06)
(5.54156e-05 0 1.2762e-06)
(5.38602e-05 0 1.2476e-06)
(5.23472e-05 0 1.21488e-06)
(5.08816e-05 0 1.17981e-06)
(4.94617e-05 0 1.14982e-06)
(4.80807e-05 0 1.12356e-06)
(4.6738e-05 0 1.09444e-06)
(4.5437e-05 0 1.06377e-06)
(4.41755e-05 0 1.03705e-06)
(4.29479e-05 0 1.01271e-06)
(4.17542e-05 0 9.86687e-07)
(4.05965e-05 0 9.60804e-07)
(3.94725e-05 0 9.38543e-07)
(3.8379e-05 0 9.17545e-07)
(3.7317e-05 0 8.94731e-07)
(3.6289e-05 0 8.71633e-07)
(3.52935e-05 0 8.51248e-07)
(3.43264e-05 0 8.32554e-07)
(3.33866e-05 0 8.1361e-07)
(3.24748e-05 0 7.94411e-07)
(3.15898e-05 0 7.76496e-07)
(3.07294e-05 0 7.59329e-07)
(2.98925e-05 0 7.41743e-07)
(2.90803e-05 0 7.23395e-07)
(2.82938e-05 0 7.05312e-07)
(2.75314e-05 0 6.89031e-07)
(2.67909e-05 0 6.74981e-07)
(2.6071e-05 0 6.62114e-07)
(2.53712e-05 0 6.49618e-07)
(2.46908e-05 0 6.37359e-07)
(2.40288e-05 0 6.25345e-07)
(2.33846e-05 0 6.13701e-07)
(2.27578e-05 0 6.02811e-07)
(2.21474e-05 0 5.92377e-07)
(2.15528e-05 0 5.82075e-07)
(2.09742e-05 0 5.72143e-07)
(2.04111e-05 0 5.62775e-07)
(1.98632e-05 0 5.53045e-07)
(1.93311e-05 0 5.42616e-07)
(1.8815e-05 0 5.3201e-07)
(1.83144e-05 0 5.20819e-07)
(1.78296e-05 0 5.0825e-07)
(1.73614e-05 0 4.96002e-07)
(1.69079e-05 0 4.86812e-07)
(1.64655e-05 0 4.79954e-07)
(1.60328e-05 0 4.72818e-07)
(1.5611e-05 0 4.65705e-07)
(1.51996e-05 0 4.606e-07)
(1.47966e-05 0 4.57038e-07)
(1.44022e-05 0 4.5177e-07)
(1.40187e-05 0 4.44324e-07)
(1.36468e-05 0 4.37249e-07)
(1.3285e-05 0 4.31783e-07)
(1.2932e-05 0 4.25651e-07)
(1.25887e-05 0 4.18402e-07)
(1.22556e-05 0 4.12124e-07)
(1.19306e-05 0 4.07877e-07)
(1.1612e-05 0 4.0381e-07)
(1.13007e-05 0 3.97834e-07)
(1.09985e-05 0 3.90639e-07)
(1.07057e-05 0 3.8341e-07)
(1.04216e-05 0 3.76311e-07)
(1.01463e-05 0 3.68672e-07)
(9.88001e-06 0 3.60915e-07)
(9.62242e-06 0 3.53663e-07)
(9.37308e-06 0 3.47018e-07)
(9.13189e-06 0 3.40734e-07)
(8.89866e-06 0 3.35578e-07)
(8.67232e-06 0 3.31468e-07)
(8.45223e-06 0 3.27706e-07)
(8.23908e-06 0 3.22534e-07)
(8.03417e-06 0 3.16271e-07)
(7.83804e-06 0 3.09996e-07)
(7.65e-06 0 3.04512e-07)
(7.46885e-06 0 3.00176e-07)
(7.29328e-06 0 2.96826e-07)
(7.12196e-06 0 2.93941e-07)
(6.95435e-06 0 2.90752e-07)
(6.79119e-06 0 2.86668e-07)
(6.63316e-06 0 2.82477e-07)
(6.47984e-06 0 2.7968e-07)
(6.32955e-06 0 2.78138e-07)
(6.18142e-06 0 2.75786e-07)
(6.03683e-06 0 2.70595e-07)
(5.89814e-06 0 2.63601e-07)
(5.76564e-06 0 2.57588e-07)
(5.637e-06 0 2.54334e-07)
(5.50966e-06 0 2.5176e-07)
(5.38424e-06 0 2.47226e-07)
(5.26361e-06 0 2.40413e-07)
(5.14919e-06 0 2.33558e-07)
(5.03976e-06 0 2.29183e-07)
(4.93238e-06 0 2.26897e-07)
(4.82565e-06 0 2.25483e-07)
(4.71965e-06 0 2.23783e-07)
(4.6146e-06 0 2.21746e-07)
(4.51073e-06 0 2.18981e-07)
(4.40845e-06 0 2.15206e-07)
(4.30845e-06 0 2.11128e-07)
(4.21086e-06 0 2.07457e-07)
(4.11539e-06 0 2.03858e-07)
(4.02265e-06 0 1.99299e-07)
(3.93345e-06 0 1.93736e-07)
(3.84763e-06 0 1.88868e-07)
(3.76417e-06 0 1.85859e-07)
(3.68169e-06 0 1.84277e-07)
(3.59956e-06 0 1.83308e-07)
(3.51754e-06 0 1.82658e-07)
(3.43525e-06 0 1.82223e-07)
(3.35252e-06 0 1.81819e-07)
(3.26928e-06 0 1.81645e-07)
(3.18525e-06 0 1.82171e-07)
(3.09982e-06 0 1.83263e-07)
(3.01292e-06 0 1.83828e-07)
(2.92565e-06 0 1.82858e-07)
(2.83964e-06 0 1.8055e-07)
(2.75581e-06 0 1.77966e-07)
(2.67415e-06 0 1.75812e-07)
(2.59435e-06 0 1.73951e-07)
(2.51657e-06 0 1.71823e-07)
(2.44136e-06 0 1.6941e-07)
(2.36907e-06 0 1.66898e-07)
(2.29974e-06 0 1.64513e-07)
(2.23322e-06 0 1.62297e-07)
(2.16923e-06 0 1.6045e-07)
(2.10724e-06 0 1.59415e-07)
(2.04627e-06 0 1.59486e-07)
(1.98548e-06 0 1.60357e-07)
(1.92447e-06 0 1.61305e-07)
(1.86372e-06 0 1.61722e-07)
(1.80386e-06 0 1.61697e-07)
(1.74538e-06 0 1.61754e-07)
(1.68823e-06 0 1.6218e-07)
(1.63234e-06 0 1.62914e-07)
(1.57803e-06 0 1.6323e-07)
(1.52617e-06 0 1.62727e-07)
(1.47782e-06 0 1.61258e-07)
(1.4337e-06 0 1.59192e-07)
(1.39412e-06 0 1.56957e-07)
(1.35862e-06 0 1.54999e-07)
(1.32671e-06 0 1.53548e-07)
(1.29746e-06 0 1.52686e-07)
(1.26998e-06 0 1.52568e-07)
(1.24341e-06 0 1.53139e-07)
(1.21694e-06 0 1.54319e-07)
(1.19014e-06 0 1.5575e-07)
(1.16299e-06 0 1.57081e-07)
(1.13588e-06 0 1.579e-07)
(1.1096e-06 0 1.57963e-07)
(1.08509e-06 0 1.57253e-07)
(1.06327e-06 0 1.55833e-07)
(1.04485e-06 0 1.54058e-07)
(1.03014e-06 0 1.51944e-07)
(1.01921e-06 0 1.49517e-07)
(1.01227e-06 0 1.46484e-07)
(1.00952e-06 0 1.43235e-07)
(1.01092e-06 0 1.4045e-07)
(1.01521e-06 0 1.3924e-07)
(1.02031e-06 0 1.40286e-07)
(1.02378e-06 0 1.42357e-07)
(1.02471e-06 0 1.44239e-07)
(1.0241e-06 0 1.44576e-07)
(1.0234e-06 0 1.44345e-07)
(1.02356e-06 0 1.43887e-07)
(1.02461e-06 0 1.42939e-07)
(1.02767e-06 0 1.39913e-07)
(1.0348e-06 0 1.3464e-07)
(1.04772e-06 0 1.28751e-07)
(1.06582e-06 0 1.24344e-07)
(1.08629e-06 0 1.21713e-07)
(1.10704e-06 0 1.19839e-07)
(1.12731e-06 0 1.17654e-07)
(1.14693e-06 0 1.16532e-07)
(1.16472e-06 0 1.17034e-07)
(1.17884e-06 0 1.18639e-07)
(1.18934e-06 0 1.19307e-07)
(1.19771e-06 0 1.18337e-07)
(1.20571e-06 0 1.16359e-07)
(1.21397e-06 0 1.13867e-07)
(1.22306e-06 0 1.10398e-07)
(1.23391e-06 0 1.05794e-07)
(1.24705e-06 0 1.01085e-07)
(1.26166e-06 0 9.72968e-08)
(1.27636e-06 0 9.45043e-08)
(1.29013e-06 0 9.26105e-08)
(1.30191e-06 0 9.18671e-08)
(1.31037e-06 0 9.19708e-08)
(1.31545e-06 0 9.178e-08)
(1.31798e-06 0 9.02022e-08)
(1.31999e-06 0 8.76269e-08)
(1.3224e-06 0 8.42227e-08)
(1.32568e-06 0 8.02129e-08)
(1.33093e-06 0 7.51744e-08)
(1.33831e-06 0 7.03586e-08)
(1.34718e-06 0 6.70433e-08)
(1.3555e-06 0 6.6053e-08)
(1.36139e-06 0 6.65092e-08)
(1.36401e-06 0 6.75431e-08)
(1.36356e-06 0 6.83215e-08)
(1.36051e-06 0 6.87264e-08)
(1.35581e-06 0 6.82021e-08)
(1.35067e-06 0 6.62955e-08)
(1.34672e-06 0 6.29875e-08)
(1.34502e-06 0 5.92534e-08)
(1.34546e-06 0 5.63078e-08)
(1.34693e-06 0 5.46827e-08)
(1.34819e-06 0 5.39893e-08)
(1.34867e-06 0 5.35912e-08)
(1.34828e-06 0 5.33621e-08)
(1.34687e-06 0 5.34267e-08)
(1.34423e-06 0 5.31799e-08)
(1.34112e-06 0 5.1415e-08)
(1.33925e-06 0 4.77665e-08)
(1.33998e-06 0 4.33193e-08)
(1.34279e-06 0 3.97604e-08)
(1.34603e-06 0 3.81989e-08)
(1.34737e-06 0 3.88856e-08)
(1.34501e-06 0 4.11215e-08)
(1.33838e-06 0 4.37175e-08)
(1.32803e-06 0 4.53531e-08)
(1.31571e-06 0 4.54863e-08)
(1.30293e-06 0 4.42252e-08)
(1.29068e-06 0 4.20835e-08)
(1.27903e-06 0 4.01898e-08)
(1.26684e-06 0 3.96156e-08)
(1.25213e-06 0 4.078e-08)
(1.23326e-06 0 4.31782e-08)
(1.2095e-06 0 4.62123e-08)
(1.18084e-06 0 4.88535e-08)
(1.14868e-06 0 4.95998e-08)
(1.11545e-06 0 4.7562e-08)
(1.08374e-06 0 4.38021e-08)
(1.05431e-06 0 4.0419e-08)
(1.02559e-06 0 3.92066e-08)
(9.95508e-07 0 3.96908e-08)
(9.63356e-07 0 4.10013e-08)
(9.29234e-07 0 4.27835e-08)
(8.92994e-07 0 4.42554e-08)
(8.55745e-07 0 4.35158e-08)
(8.19554e-07 0 4.10833e-08)
(7.84693e-07 0 3.92757e-08)
(7.49286e-07 0 3.93386e-08)
(7.11656e-07 0 4.07196e-08)
(6.71397e-07 0 4.23245e-08)
(6.29677e-07 0 4.26866e-08)
(5.88713e-07 0 4.15487e-08)
(5.4947e-07 0 4.00821e-08)
(5.11867e-07 0 3.8873e-08)
(4.75346e-07 0 3.78396e-08)
(4.39774e-07 0 3.79416e-08)
(4.03817e-07 0 3.78739e-08)
(3.68155e-07 0 3.64202e-08)
(3.3491e-07 0 3.43498e-08)
(3.01748e-07 0 3.50266e-08)
(2.67e-07 0 3.66924e-08)
(2.30514e-07 0 3.62405e-08)
(1.94043e-07 0 3.59201e-08)
(1.60058e-07 0 3.29378e-08)
(1.30012e-07 0 2.92811e-08)
(1.05053e-07 0 2.78383e-08)
(8.15194e-08 0 2.66704e-08)
(6.04882e-08 0 2.66766e-08)
(4.05889e-08 0 2.40563e-08)
(2.69546e-08 0 1.91104e-08)
(2.06048e-08 0 1.25348e-08)
(1.98157e-08 0 8.27529e-09)
(2.43993e-08 0 7.68912e-09)
(2.52965e-08 0 8.48752e-09)
(2.83845e-08 0 9.46778e-09)
(3.16275e-08 0 4.82102e-09)
(3.9137e-08 0 4.30901e-09)
(5.46391e-08 0 -5.64469e-09)
(7.15719e-08 0 -2.7603e-09)
(8.69007e-08 0 1.96495e-09)
(9.42638e-08 0 7.99288e-10)
(1.07853e-07 0 -2.86606e-09)
(1.28592e-07 0 -8.12675e-09)
(1.47178e-07 0 -6.92678e-09)
(1.71454e-07 0 -7.75482e-09)
(1.89596e-07 0 -1.32772e-08)
(2.26345e-07 0 -1.70568e-08)
(2.59506e-07 0 -2.64524e-08)
(2.93266e-07 0 -1.62682e-08)
(3.2866e-07 0 -2.04347e-08)
(3.51314e-07 0 -1.20036e-08)
(3.84207e-07 0 -1.05725e-08)
(3.8713e-07 0 -3.81716e-09)
(4.07382e-07 0 -9.02777e-09)
(4.29825e-07 0 -2.7916e-08)
(4.42413e-07 0 -1.05632e-08)
(4.65001e-07 0 -2.81035e-08)
(4.8189e-07 0 -4.20581e-08)
(5.09351e-07 0 -1.70701e-08)
(5.09765e-07 0 -2.20867e-08)
(5.16646e-07 0 -1.5203e-08)
(5.28854e-07 0 -2.33959e-08)
(5.27401e-07 0 -2.86983e-08)
(5.23061e-07 0 -4.62703e-08)
(5.20536e-07 0 -4.36393e-08)
(5.05491e-07 0 -6.45525e-08)
(4.8492e-07 0 -1.03665e-07)
(1.00593e-06 0 -1.62158e-07)
(9.62184e-07 0 -1.08432e-07)
(9.66704e-07 0 -7.79448e-08)
(9.58318e-07 0 -5.28269e-08)
(9.15988e-07 0 -4.41659e-08)
(8.61191e-07 0 -4.16779e-08)
(7.94869e-07 0 -3.64052e-08)
(7.14769e-07 0 -2.6714e-08)
(6.24687e-07 0 -1.87914e-08)
(5.27773e-07 0 -1.59151e-08)
(4.24211e-07 0 -1.4926e-08)
(3.16985e-07 0 -1.59154e-08)
(2.12092e-07 0 -2.00158e-08)
(1.12415e-07 0 -2.4742e-08)
(1.54792e-08 0 -2.47146e-08)
(-8.23671e-08 0 -1.96552e-08)
(-1.82649e-07 0 -1.44024e-08)
(-2.83109e-07 0 -1.24925e-08)
(-3.79036e-07 0 -1.37377e-08)
(-4.67256e-07 0 -1.49046e-08)
(-5.4924e-07 0 -1.49383e-08)
(-6.28955e-07 0 -1.30736e-08)
(-7.09539e-07 0 -9.00028e-09)
(-7.93023e-07 0 -3.42875e-09)
(-8.80239e-07 0 2.26776e-09)
(-9.70206e-07 0 7.40842e-09)
(-1.06051e-06 0 1.205e-08)
(-1.14876e-06 0 1.61663e-08)
(-1.23277e-06 0 1.95621e-08)
(-1.30872e-06 0 2.12643e-08)
(-1.37457e-06 0 2.12521e-08)
(-1.42657e-06 0 1.67318e-08)
(-1.44753e-06 0 1.01452e-08)
(-1.46287e-06 0 -3.49683e-09)
(-1.46943e-06 0 -1.21481e-08)
(-1.44824e-06 0 -1.89935e-08)
(-1.41975e-06 0 -2.32212e-08)
(-1.38056e-06 0 -2.33918e-08)
(-1.33333e-06 0 -2.12639e-08)
(-1.28359e-06 0 -1.72031e-08)
(-1.2336e-06 0 -1.18702e-08)
(-1.18476e-06 0 -5.16941e-09)
(-1.14058e-06 0 3.6192e-09)
(-1.10302e-06 0 1.55514e-08)
(-1.07187e-06 0 2.91368e-08)
(-1.04656e-06 0 4.11959e-08)
(-1.02382e-06 0 4.82524e-08)
(-9.98289e-07 0 4.80275e-08)
(-9.67304e-07 0 4.46577e-08)
(-9.28889e-07 0 3.25221e-08)
(-8.78739e-07 0 1.81e-08)
(-8.1702e-07 0 4.40389e-09)
(-7.44415e-07 0 -3.06234e-09)
(-6.7429e-07 0 1.01649e-10)
(-6.02159e-07 0 1.75089e-08)
(-5.49717e-07 0 3.61044e-08)
(-5.10782e-07 0 5.27106e-08)
(-4.5437e-07 0 4.20976e-08)
(-3.86938e-07 0 1.40483e-08)
(-3.21183e-07 0 -3.82241e-09)
(-2.74741e-07 0 8.48734e-09)
(-2.4979e-07 0 6.11962e-08)
(-2.66317e-07 0 1.03741e-07)
(-2.65075e-07 0 1.14177e-07)
(-2.34688e-07 0 6.79788e-08)
(-2.17833e-07 0 3.9692e-08)
(-2.19039e-07 0 6.11478e-08)
(-2.36754e-07 0 1.16719e-07)
(-2.51955e-07 0 1.10075e-07)
(-2.38152e-07 0 4.12329e-08)
(-1.857e-07 0 -1.9388e-09)
(-1.45565e-07 0 2.40586e-08)
(-1.3579e-07 0 4.99181e-08)
(-9.18347e-08 0 -1.33762e-08)
(-6.73086e-10 0 -5.84838e-08)
(6.16664e-08 0 9.36746e-10)
(6.54045e-08 0 6.28006e-08)
(5.54872e-08 0 4.73937e-08)
(2.8255e-08 0 1.00094e-07)
(-5.04275e-08 0 9.91353e-08)
(-5.04534e-08 0 2.79839e-08)
(0.00379688 0 0.000136002)
(0.00683388 0 0.000147415)
(0.00626943 0 0.000152732)
(0.00620319 0 0.000157891)
(0.0061378 0 0.000162745)
(0.00606811 0 0.000167348)
(0.00599654 0 0.000171659)
(0.00592326 0 0.000175641)
(0.0058484 0 0.000179336)
(0.00577209 0 0.000182655)
(0.00569447 0 0.000185659)
(0.00561571 0 0.000188391)
(0.00553593 0 0.000190827)
(0.00545523 0 0.000192952)
(0.00537377 0 0.00019476)
(0.00529165 0 0.000196269)
(0.00520898 0 0.000197517)
(0.00512587 0 0.0001985)
(0.00504242 0 0.000199206)
(0.00495874 0 0.00019966)
(0.00487492 0 0.000199896)
(0.00479105 0 0.000199906)
(0.00470721 0 0.000199681)
(0.0046235 0 0.00019924)
(0.00453998 0 0.000198611)
(0.00445675 0 0.000197803)
(0.00437387 0 0.000196818)
(0.00429142 0 0.000195675)
(0.00420946 0 0.000194396)
(0.00412806 0 0.000192986)
(0.00404727 0 0.00019144)
(0.00396714 0 0.000189769)
(0.00388772 0 0.000187997)
(0.00380907 0 0.000186127)
(0.00373123 0 0.000184153)
(0.00365424 0 0.000182082)
(0.00357814 0 0.000179939)
(0.00350294 0 0.000177741)
(0.00342869 0 0.000175491)
(0.00335541 0 0.000173186)
(0.00328311 0 0.000170842)
(0.00321179 0 0.000168478)
(0.00314147 0 0.000166107)
(0.00307213 0 0.000163725)
(0.00300378 0 0.000161327)
(0.00293642 0 0.000158917)
(0.00287004 0 0.000156506)
(0.00280463 0 0.000154105)
(0.00274019 0 0.000151721)
(0.00267672 0 0.000149356)
(0.00261421 0 0.000147008)
(0.00255266 0 0.000144679)
(0.00249203 0 0.00014238)
(0.00243232 0 0.000140129)
(0.00237352 0 0.00013794)
(0.0023156 0 0.000135814)
(0.00225856 0 0.000133748)
(0.00220236 0 0.000131748)
(0.00214697 0 0.000129834)
(0.00209236 0 0.000128033)
(0.00203847 0 0.000126365)
(0.00198528 0 0.000124839)
(0.00193272 0 0.000123477)
(0.00188072 0 0.000122318)
(0.00182918 0 0.000121413)
(0.00177801 0 0.000120812)
(0.00172709 0 0.000120585)
(0.00167627 0 0.000120862)
(0.00162535 0 0.000121848)
(0.00157411 0 0.000123802)
(0.00152231 0 0.000127068)
(0.00146968 0 0.000132227)
(0.00141602 0 0.000140305)
(0.00136143 0 0.000152997)
(0.00130681 0 0.000173106)
(0.001255 0 0.000205527)
(0.0012135 0 0.000258618)
(0.00120295 0 0.000352054)
(0.00118886 0 0.000405302)
(0.00108201 0 0.000215276)
(0.0010574 0 0.000182193)
(0.000555822 0 5.66245e-05)
(0.000592113 0 3.21424e-05)
(0.000488094 0 -4.23211e-06)
(0.000482884 0 -2.68136e-05)
(0.000471295 0 3.14934e-05)
(0.000454472 0 3.16394e-05)
(0.000444707 0 3.24666e-05)
(0.000444626 0 2.41283e-05)
(0.000440246 0 2.28863e-05)
(0.00042752 0 1.90181e-05)
(0.000420018 0 1.70022e-05)
(0.000411806 0 1.94141e-05)
(0.000403147 0 1.94161e-05)
(0.00039542 0 1.94e-05)
(0.000387345 0 1.9704e-05)
(0.000378955 0 1.97773e-05)
(0.000370809 0 1.98583e-05)
(0.000362785 0 2.05687e-05)
(0.000355073 0 2.04807e-05)
(0.000346589 0 1.95871e-05)
(0.000339077 0 1.92141e-05)
(0.000328347 0 1.84653e-05)
(0.000321061 0 1.79975e-05)
(0.000312849 0 1.70975e-05)
(0.000305493 0 1.67873e-05)
(0.00029817 0 1.70341e-05)
(0.000290899 0 1.68045e-05)
(0.000283836 0 1.6554e-05)
(0.000277003 0 1.62155e-05)
(0.000270218 0 1.59294e-05)
(0.000263515 0 1.5622e-05)
(0.000256991 0 1.53306e-05)
(0.000250578 0 1.50985e-05)
(0.00024431 0 1.49247e-05)
(0.000238179 0 1.4772e-05)
(0.000232277 0 1.49055e-05)
(0.000226653 0 1.46145e-05)
(0.000220664 0 1.38859e-05)
(0.000215319 0 1.34589e-05)
(0.000207934 0 1.28208e-05)
(0.000202873 0 1.23584e-05)
(0.000197326 0 1.17094e-05)
(0.000192342 0 1.13958e-05)
(0.00018742 0 1.13982e-05)
(0.0001826 0 1.11515e-05)
(0.000177955 0 1.08972e-05)
(0.000173367 0 1.06667e-05)
(0.000168847 0 1.04171e-05)
(0.000164442 0 1.01785e-05)
(0.000160133 0 9.95447e-06)
(0.000155919 0 9.72489e-06)
(0.000151801 0 9.51015e-06)
(0.000147777 0 9.29704e-06)
(0.000143846 0 9.0736e-06)
(0.00014001 0 8.8501e-06)
(0.000136263 0 8.64507e-06)
(0.000132602 0 8.45267e-06)
(0.000129026 0 8.25653e-06)
(0.000125535 0 8.05113e-06)
(0.00012213 0 7.84748e-06)
(0.000118809 0 7.66008e-06)
(0.000115567 0 7.48272e-06)
(0.000112403 0 7.29684e-06)
(0.000109317 0 7.1143e-06)
(0.000106311 0 6.94652e-06)
(0.00010338 0 6.78341e-06)
(0.000100522 0 6.61217e-06)
(9.77381e-05 0 6.44178e-06)
(9.5026e-05 0 6.28498e-06)
(9.23821e-05 0 6.13334e-06)
(8.98055e-05 0 5.97864e-06)
(8.72968e-05 0 5.82911e-06)
(8.48538e-05 0 5.68842e-06)
(8.2474e-05 0 5.54676e-06)
(8.01595e-05 0 5.40321e-06)
(7.79117e-05 0 5.26509e-06)
(7.5727e-05 0 5.13218e-06)
(7.36015e-05 0 5.00095e-06)
(7.15338e-05 0 4.87596e-06)
(6.95237e-05 0 4.75963e-06)
(6.7568e-05 0 4.64204e-06)
(6.56627e-05 0 4.51889e-06)
(6.3809e-05 0 4.39969e-06)
(6.20091e-05 0 4.29059e-06)
(6.02635e-05 0 4.18451e-06)
(5.85702e-05 0 4.07449e-06)
(5.69266e-05 0 3.96615e-06)
(5.53315e-05 0 3.86893e-06)
(5.3782e-05 0 3.77974e-06)
(5.22752e-05 0 3.6855e-06)
(5.08104e-05 0 3.58695e-06)
(4.93875e-05 0 3.4976e-06)
(4.80058e-05 0 3.41644e-06)
(4.66647e-05 0 3.33163e-06)
(4.53641e-05 0 3.24519e-06)
(4.41035e-05 0 3.16757e-06)
(4.28807e-05 0 3.0964e-06)
(4.16934e-05 0 3.02323e-06)
(4.05407e-05 0 2.94996e-06)
(3.94218e-05 0 2.88301e-06)
(3.83347e-05 0 2.81862e-06)
(3.72781e-05 0 2.74997e-06)
(3.62521e-05 0 2.6801e-06)
(3.52569e-05 0 2.61621e-06)
(3.4291e-05 0 2.55781e-06)
(3.33533e-05 0 2.49941e-06)
(3.24439e-05 0 2.44103e-06)
(3.15626e-05 0 2.38706e-06)
(3.07067e-05 0 2.33795e-06)
(2.98735e-05 0 2.28929e-06)
(2.90622e-05 0 2.23853e-06)
(2.82738e-05 0 2.18778e-06)
(2.75087e-05 0 2.14052e-06)
(2.67663e-05 0 2.0967e-06)
(2.60464e-05 0 2.05373e-06)
(2.5349e-05 0 2.01177e-06)
(2.46717e-05 0 1.97295e-06)
(2.40116e-05 0 1.93671e-06)
(2.33675e-05 0 1.90141e-06)
(2.27397e-05 0 1.86737e-06)
(2.21289e-05 0 1.83482e-06)
(2.15347e-05 0 1.80272e-06)
(2.09572e-05 0 1.77091e-06)
(2.03966e-05 0 1.73978e-06)
(1.98527e-05 0 1.70825e-06)
(1.93251e-05 0 1.67608e-06)
(1.8813e-05 0 1.64512e-06)
(1.83146e-05 0 1.61539e-06)
(1.7829e-05 0 1.58492e-06)
(1.73561e-05 0 1.55553e-06)
(1.68953e-05 0 1.53186e-06)
(1.64456e-05 0 1.51357e-06)
(1.60076e-05 0 1.49545e-06)
(1.55819e-05 0 1.47571e-06)
(1.51682e-05 0 1.45794e-06)
(1.47658e-05 0 1.44209e-06)
(1.43741e-05 0 1.42326e-06)
(1.39929e-05 0 1.40067e-06)
(1.3622e-05 0 1.37931e-06)
(1.32599e-05 0 1.36175e-06)
(1.29056e-05 0 1.34447e-06)
(1.25595e-05 0 1.32562e-06)
(1.22223e-05 0 1.30821e-06)
(1.18944e-05 0 1.29445e-06)
(1.15762e-05 0 1.28092e-06)
(1.12684e-05 0 1.26419e-06)
(1.0971e-05 0 1.24538e-06)
(1.06833e-05 0 1.22763e-06)
(1.04039e-05 0 1.21075e-06)
(1.01318e-05 0 1.19336e-06)
(9.86677e-06 0 1.17553e-06)
(9.60871e-06 0 1.15807e-06)
(9.35754e-06 0 1.14028e-06)
(9.11398e-06 0 1.12188e-06)
(8.87906e-06 0 1.10418e-06)
(8.65362e-06 0 1.08828e-06)
(8.43749e-06 0 1.07247e-06)
(8.22972e-06 0 1.05479e-06)
(8.02955e-06 0 1.03537e-06)
(7.83536e-06 0 1.01626e-06)
(7.64665e-06 0 9.98805e-07)
(7.46344e-06 0 9.83269e-07)
(7.28578e-06 0 9.69933e-07)
(7.11333e-06 0 9.5841e-07)
(6.94472e-06 0 9.47144e-07)
(6.77904e-06 0 9.34082e-07)
(6.61718e-06 0 9.19561e-07)
(6.46064e-06 0 9.06224e-07)
(6.31005e-06 0 8.95427e-07)
(6.16449e-06 0 8.84554e-07)
(6.02292e-06 0 8.70347e-07)
(5.88531e-06 0 8.53088e-07)
(5.75275e-06 0 8.37638e-07)
(5.62567e-06 0 8.26827e-07)
(5.50321e-06 0 8.18318e-07)
(5.38416e-06 0 8.06377e-07)
(5.26714e-06 0 7.89909e-07)
(5.15256e-06 0 7.73306e-07)
(5.04027e-06 0 7.60981e-07)
(4.92984e-06 0 7.52984e-07)
(4.82139e-06 0 7.45984e-07)
(4.71505e-06 0 7.3826e-07)
(4.6112e-06 0 7.30375e-07)
(4.50922e-06 0 7.22493e-07)
(4.40895e-06 0 7.13666e-07)
(4.31073e-06 0 7.03949e-07)
(4.21496e-06 0 6.94326e-07)
(4.12154e-06 0 6.84573e-07)
(4.02993e-06 0 6.73308e-07)
(3.94004e-06 0 6.60792e-07)
(3.85175e-06 0 6.49749e-07)
(3.76445e-06 0 6.4187e-07)
(3.67783e-06 0 6.36257e-07)
(3.59196e-06 0 6.31637e-07)
(3.50669e-06 0 6.28038e-07)
(3.42134e-06 0 6.2568e-07)
(3.33554e-06 0 6.24e-07)
(3.24959e-06 0 6.22735e-07)
(3.16416e-06 0 6.22496e-07)
(3.07948e-06 0 6.23305e-07)
(2.99534e-06 0 6.23527e-07)
(2.91168e-06 0 6.21356e-07)
(2.82877e-06 0 6.16902e-07)
(2.74704e-06 0 6.11878e-07)
(2.66675e-06 0 6.07586e-07)
(2.58786e-06 0 6.03779e-07)
(2.51064e-06 0 5.9953e-07)
(2.43543e-06 0 5.94579e-07)
(2.36239e-06 0 5.8955e-07)
(2.29156e-06 0 5.85147e-07)
(2.22254e-06 0 5.81729e-07)
(2.15513e-06 0 5.79605e-07)
(2.08933e-06 0 5.79301e-07)
(2.02527e-06 0 5.81026e-07)
(1.96307e-06 0 5.84154e-07)
(1.90261e-06 0 5.87344e-07)
(1.84382e-06 0 5.89671e-07)
(1.78672e-06 0 5.90998e-07)
(1.73127e-06 0 5.91967e-07)
(1.67778e-06 0 5.92981e-07)
(1.6264e-06 0 5.93617e-07)
(1.57721e-06 0 5.92985e-07)
(1.53037e-06 0 5.90447e-07)
(1.48577e-06 0 5.86129e-07)
(1.44347e-06 0 5.8105e-07)
(1.40356e-06 0 5.7615e-07)
(1.36588e-06 0 5.72448e-07)
(1.33021e-06 0 5.70382e-07)
(1.29629e-06 0 5.70147e-07)
(1.26395e-06 0 5.71747e-07)
(1.23314e-06 0 5.7488e-07)
(1.20387e-06 0 5.7898e-07)
(1.17625e-06 0 5.83289e-07)
(1.15049e-06 0 5.8685e-07)
(1.12649e-06 0 5.88871e-07)
(1.10451e-06 0 5.88709e-07)
(1.08473e-06 0 5.85998e-07)
(1.0677e-06 0 5.80973e-07)
(1.05385e-06 0 5.74228e-07)
(1.04338e-06 0 5.66843e-07)
(1.03576e-06 0 5.59101e-07)
(1.03002e-06 0 5.51243e-07)
(1.02504e-06 0 5.42923e-07)
(1.0204e-06 0 5.35457e-07)
(1.01694e-06 0 5.3044e-07)
(1.01483e-06 0 5.29808e-07)
(1.01428e-06 0 5.32356e-07)
(1.01435e-06 0 5.34901e-07)
(1.01478e-06 0 5.34079e-07)
(1.01622e-06 0 5.29733e-07)
(1.01958e-06 0 5.23393e-07)
(1.0253e-06 0 5.1567e-07)
(1.03252e-06 0 5.04729e-07)
(1.04091e-06 0 4.89428e-07)
(1.05091e-06 0 4.72438e-07)
(1.06287e-06 0 4.58744e-07)
(1.0762e-06 0 4.50585e-07)
(1.08926e-06 0 4.45843e-07)
(1.10165e-06 0 4.41446e-07)
(1.11392e-06 0 4.37913e-07)
(1.12645e-06 0 4.36901e-07)
(1.13907e-06 0 4.37702e-07)
(1.15104e-06 0 4.36682e-07)
(1.16246e-06 0 4.31764e-07)
(1.17377e-06 0 4.24037e-07)
(1.18503e-06 0 4.15012e-07)
(1.19609e-06 0 4.04464e-07)
(1.20698e-06 0 3.9232e-07)
(1.21771e-06 0 3.80732e-07)
(1.22792e-06 0 3.71718e-07)
(1.23727e-06 0 3.65284e-07)
(1.24583e-06 0 3.60935e-07)
(1.25363e-06 0 3.59068e-07)
(1.26031e-06 0 3.58999e-07)
(1.26596e-06 0 3.57896e-07)
(1.27127e-06 0 3.53119e-07)
(1.27743e-06 0 3.45226e-07)
(1.28502e-06 0 3.35622e-07)
(1.29316e-06 0 3.2521e-07)
(1.30106e-06 0 3.13865e-07)
(1.30827e-06 0 3.03192e-07)
(1.31475e-06 0 2.9532e-07)
(1.32015e-06 0 2.91647e-07)
(1.32414e-06 0 2.90766e-07)
(1.32675e-06 0 2.90609e-07)
(1.32837e-06 0 2.89472e-07)
(1.32963e-06 0 2.86722e-07)
(1.33087e-06 0 2.81579e-07)
(1.33236e-06 0 2.73467e-07)
(1.33415e-06 0 2.62687e-07)
(1.3362e-06 0 2.51073e-07)
(1.33829e-06 0 2.40924e-07)
(1.3399e-06 0 2.33439e-07)
(1.34049e-06 0 2.28007e-07)
(1.34001e-06 0 2.23176e-07)
(1.33914e-06 0 2.18354e-07)
(1.33858e-06 0 2.13833e-07)
(1.33841e-06 0 2.08901e-07)
(1.33838e-06 0 2.01549e-07)
(1.33832e-06 0 1.9122e-07)
(1.33811e-06 0 1.80464e-07)
(1.33681e-06 0 1.72669e-07)
(1.33367e-06 0 1.69329e-07)
(1.32822e-06 0 1.6988e-07)
(1.32102e-06 0 1.72429e-07)
(1.31285e-06 0 1.74309e-07)
(1.30416e-06 0 1.73304e-07)
(1.29564e-06 0 1.68847e-07)
(1.2869e-06 0 1.62083e-07)
(1.27713e-06 0 1.54819e-07)
(1.26508e-06 0 1.49265e-07)
(1.24972e-06 0 1.47403e-07)
(1.23076e-06 0 1.49237e-07)
(1.20864e-06 0 1.53261e-07)
(1.18415e-06 0 1.5733e-07)
(1.15823e-06 0 1.59626e-07)
(1.13176e-06 0 1.57799e-07)
(1.10479e-06 0 1.51349e-07)
(1.07665e-06 0 1.42097e-07)
(1.04686e-06 0 1.34084e-07)
(1.01479e-06 0 1.30177e-07)
(9.80428e-07 0 1.29055e-07)
(9.4504e-07 0 1.27574e-07)
(9.09987e-07 0 1.25528e-07)
(8.75347e-07 0 1.23035e-07)
(8.40081e-07 0 1.18076e-07)
(8.03305e-07 0 1.11635e-07)
(7.64748e-07 0 1.07362e-07)
(7.25325e-07 0 1.06478e-07)
(6.85924e-07 0 1.07556e-07)
(6.47083e-07 0 1.07789e-07)
(6.09355e-07 0 1.04146e-07)
(5.73162e-07 0 9.73639e-08)
(5.3773e-07 0 9.06398e-08)
(5.02136e-07 0 8.57248e-08)
(4.65556e-07 0 8.10207e-08)
(4.29183e-07 0 7.85042e-08)
(3.92892e-07 0 7.66886e-08)
(3.57367e-07 0 7.35455e-08)
(3.23768e-07 0 6.87926e-08)
(2.91133e-07 0 6.99174e-08)
(2.61078e-07 0 7.36363e-08)
(2.31394e-07 0 7.36995e-08)
(2.01886e-07 0 7.27659e-08)
(1.75372e-07 0 6.52475e-08)
(1.51422e-07 0 5.50088e-08)
(1.3293e-07 0 4.93296e-08)
(1.15965e-07 0 4.46277e-08)
(1.00971e-07 0 4.30683e-08)
(8.6694e-08 0 3.37457e-08)
(7.73234e-08 0 2.12154e-08)
(7.33074e-08 0 6.29317e-09)
(7.10716e-08 0 -2.02434e-09)
(7.40848e-08 0 -3.62547e-09)
(7.53151e-08 0 -2.24668e-09)
(8.30379e-08 0 -5.56443e-10)
(8.84899e-08 0 -1.27344e-08)
(9.69977e-08 0 -1.42508e-08)
(1.11952e-07 0 -3.53408e-08)
(1.22426e-07 0 -2.82384e-08)
(1.3752e-07 0 -1.65081e-08)
(1.46047e-07 0 -2.15368e-08)
(1.60222e-07 0 -2.97764e-08)
(1.81533e-07 0 -4.69162e-08)
(1.99864e-07 0 -4.58964e-08)
(2.28385e-07 0 -5.0056e-08)
(2.4195e-07 0 -6.71236e-08)
(2.77996e-07 0 -7.68691e-08)
(2.99627e-07 0 -9.2009e-08)
(3.182e-07 0 -7.11214e-08)
(3.43383e-07 0 -9.50502e-08)
(3.69714e-07 0 -7.34732e-08)
(4.0291e-07 0 -7.2269e-08)
(4.1131e-07 0 -6.51859e-08)
(4.5607e-07 0 -7.33308e-08)
(4.73486e-07 0 -1.04368e-07)
(4.95774e-07 0 -6.77462e-08)
(5.26178e-07 0 -9.04824e-08)
(5.19709e-07 0 -9.64015e-08)
(5.52607e-07 0 -7.98094e-08)
(5.65352e-07 0 -8.60039e-08)
(5.46815e-07 0 -5.97555e-08)
(5.49919e-07 0 -9.86227e-08)
(5.68062e-07 0 -1.1102e-07)
(5.92522e-07 0 -1.85122e-07)
(1.27129e-06 0 -3.60236e-07)
(1.31198e-06 0 -4.38011e-07)
(1.28558e-06 0 -5.36213e-07)
(1.22149e-06 0 -4.19624e-07)
(1.14237e-06 0 -3.39842e-07)
(1.10192e-06 0 -2.95303e-07)
(1.06723e-06 0 -2.27948e-07)
(1.01985e-06 0 -2.05932e-07)
(9.55981e-07 0 -1.93656e-07)
(8.7361e-07 0 -1.69878e-07)
(7.80279e-07 0 -1.50478e-07)
(6.8841e-07 0 -1.40372e-07)
(5.98729e-07 0 -1.27704e-07)
(5.05831e-07 0 -1.12921e-07)
(4.0947e-07 0 -1.07758e-07)
(3.10549e-07 0 -1.14503e-07)
(2.07675e-07 0 -1.20435e-07)
(1.01063e-07 0 -1.1475e-07)
(-7.70559e-09 0 -1.01364e-07)
(-1.15386e-07 0 -9.1274e-08)
(-2.18323e-07 0 -8.93318e-08)
(-3.13204e-07 0 -9.19484e-08)
(-4.01915e-07 0 -9.23323e-08)
(-4.88951e-07 0 -8.5784e-08)
(-5.7567e-07 0 -7.13215e-08)
(-6.63836e-07 0 -5.05951e-08)
(-7.55006e-07 0 -2.68681e-08)
(-8.47761e-07 0 -3.65955e-09)
(-9.3832e-07 0 1.56226e-08)
(-1.02376e-06 0 3.02048e-08)
(-1.10232e-06 0 3.93806e-08)
(-1.17273e-06 0 4.35742e-08)