/*--------------------------------*- C++ -*----------------------------------*\
| =========                 |                                                 |
| \\      /  F ield         | OpenFOAM: The Open Source CFD Toolbox           |
|  \\    /   O peration     | Version:  v2006                                 |
|   \\  /    A nd           | Website:  www.openfoam.com                      |
|    \\/     M anipulation  |                                                 |
\*---------------------------------------------------------------------------*/
FoamFile
{
    version     2.0;
    format      ascii;
    class       surfaceScalarField;
    location    "7.1";
    object      alphaPhi0.water;
}
// * * * * * * * * * * * * * * * * * * * * * * * * * * * * * * * * * * * * * //

dimensions      [0 3 -1 0 0 0 0];
oriented        oriented;


internalField   nonuniform List<scalar> 
65390
(
4.61588e-05
4.54302e-08
4.6117e-05
4.1635e-08
4.57894e-05
3.27543e-07
4.52253e-05
5.64008e-07
4.47598e-05
4.65388e-07
4.5139e-05
-3.79209e-07
4.85493e-05
-3.41035e-06
5.72307e-05
-8.68145e-06
6.86712e-05
-1.14404e-05
7.82519e-05
-9.58062e-06
8.24194e-05
-4.16742e-06
8.27777e-05
-3.58229e-07
8.19048e-05
8.72972e-07
8.12323e-05
6.72582e-07
8.14992e-05
-2.6686e-07
8.27468e-05
-1.24753e-06
8.4727e-05
-1.98014e-06
8.70777e-05
-2.35066e-06
8.9867e-05
-2.78924e-06
9.32074e-05
-3.34035e-06
9.62109e-05
-3.00343e-06
9.79836e-05
-1.77269e-06
9.83715e-05
-3.87912e-07
9.74597e-05
9.11828e-07
9.48974e-05
2.56207e-06
8.98012e-05
5.09602e-06
8.26348e-05
7.16439e-06
7.58117e-05
6.8149e-06
7.08396e-05
4.97609e-06
6.77197e-05
3.12246e-06
6.55267e-05
2.19299e-06
6.34992e-05
2.02754e-06
6.16173e-05
1.87409e-06
5.97897e-05
1.79508e-06
5.78907e-05
1.89908e-06
5.63812e-05
1.53575e-06
5.5708e-05
6.83713e-07
5.5669e-05
3.94389e-08
5.5782e-05
-1.12983e-07
5.57257e-05
5.25882e-08
5.48365e-05
8.47727e-07
5.36726e-05
1.19118e-06
5.28821e-05
8.04883e-07
5.29204e-05
-3.64638e-08
5.32931e-05
-3.72525e-07
5.35913e-05
-2.98557e-07
5.33591e-05
2.18488e-07
5.26512e-05
7.07911e-07
5.2062e-05
5.95151e-07
5.20155e-05
5.3296e-08
5.24375e-05
-4.20877e-07
5.3005e-05
-5.6777e-07
5.36262e-05
-6.21665e-07
5.43256e-05
-6.99566e-07
5.49976e-05
-6.71974e-07
5.54183e-05
-4.20677e-07
5.52926e-05
1.25671e-07
5.46365e-05
6.38196e-07
5.37852e-05
8.51334e-07
5.31872e-05
6.03181e-07
5.29074e-05
2.89611e-07
5.26242e-05
2.84915e-07
5.21534e-05
4.70764e-07
5.17428e-05
4.10592e-07
5.18109e-05
-6.7486e-08
5.2555e-05
-7.43933e-07
5.36527e-05
-1.09774e-06
5.47264e-05
-1.07397e-06
5.55207e-05
-7.94863e-07
5.59955e-05
-4.772e-07
5.62366e-05
-2.64803e-07
5.64192e-05
-1.82422e-07
5.67216e-05
-3.02547e-07
5.72749e-05
-5.52278e-07
5.76348e-05
-3.59582e-07
5.71543e-05
4.80907e-07
5.47705e-05
2.39399e-06
4.87465e-05
6.03404e-06
4.19423e-05
6.80616e-06
3.83948e-05
3.5478e-06
3.49581e-05
3.43664e-06
3.32251e-05
1.73298e-06
3.13579e-05
1.8672e-06
3.05452e-05
8.12711e-07
3.07161e-05
-1.70977e-07
3.01369e-05
5.78946e-07
2.96657e-05
4.70616e-07
2.96407e-05
2.3788e-08
2.98061e-05
-1.72605e-07
2.98829e-05
-7.68378e-08
3.00608e-05
-1.77859e-07
3.02749e-05
-2.14145e-07
3.03757e-05
-9.34016e-08
3.04685e-05
-9.18628e-08
3.04463e-05
2.2259e-08
3.03328e-05
1.12542e-07
2.98479e-05
4.85292e-07
2.91052e-05
7.43551e-07
2.69744e-05
2.13081e-06
2.38222e-05
3.15216e-06
2.14138e-05
2.4084e-06
2.03186e-05
1.09066e-06
2.03595e-05
-4.14817e-08
2.0345e-05
1.4508e-08
2.08928e-05
-5.47857e-07
2.15816e-05
-6.88827e-07
2.1961e-05
-3.79394e-07
2.2102e-05
-1.37409e-07
2.22074e-05
-1.03828e-07
2.24482e-05
-2.40867e-07
2.26003e-05
-1.52678e-07
2.28012e-05
-2.05952e-07
2.29165e-05
-1.15267e-07
2.29371e-05
-1.72659e-08
2.26775e-05
2.62053e-07
2.22355e-05
4.4196e-07
2.09124e-05
1.32294e-06
1.92822e-05
1.62735e-06
1.83285e-05
9.53717e-07
1.81951e-05
1.33363e-07
1.85403e-05
-3.43083e-07
1.86704e-05
-1.2945e-07
1.90876e-05
-4.17193e-07
1.95757e-05
-4.90125e-07
1.97959e-05
-2.2019e-07
1.99816e-05
-1.84778e-07
2.01648e-05
-1.8156e-07
2.03021e-05
-1.37487e-07
2.04678e-05
-1.65741e-07
2.06244e-05
-1.5663e-07
2.07324e-05
-1.10396e-07
2.08081e-05
-7.56987e-08
2.08558e-05
-4.60986e-08
2.08889e-05
-3.21051e-08
2.09011e-05
-1.21649e-08
2.08955e-05
5.60427e-09
2.08753e-05
2.02108e-08
2.08327e-05
4.25702e-08
2.07718e-05
6.08748e-08
2.06893e-05
8.25301e-08
2.05766e-05
1.10557e-07
2.0436e-05
1.38223e-07
2.02719e-05
1.64142e-07
2.00851e-05
1.88971e-07
1.98772e-05
2.09463e-07
1.96442e-05
2.33006e-07
1.93823e-05
2.61858e-07
1.90876e-05
2.94741e-07
1.87576e-05
3.28524e-07
1.84082e-05
3.50201e-07
1.80394e-05
3.69603e-07
1.76425e-05
3.96951e-07
1.7213e-05
4.29508e-07
1.67488e-05
4.62241e-07
1.62583e-05
4.90488e-07
1.57422e-05
5.17363e-07
1.51996e-05
5.43701e-07
1.46268e-05
5.72765e-07
1.40254e-05
6.01445e-07
1.33964e-05
6.28957e-07
1.27336e-05
6.62457e-07
1.20344e-05
6.9879e-07
1.13116e-05
7.23265e-07
1.05666e-05
7.44994e-07
9.78944e-06
7.77076e-07
8.9746e-06
8.14738e-07
8.13794e-06
8.36848e-07
7.29088e-06
8.47103e-07
6.42495e-06
8.65932e-07
5.53462e-06
8.90138e-07
4.62723e-06
9.06811e-07
3.72202e-06
9.05469e-07
2.83623e-06
8.86013e-07
1.96864e-06
8.67586e-07
1.11999e-06
8.48548e-07
2.9015e-07
8.29777e-07
-5.1661e-07
8.06753e-07
-1.28718e-06
7.70458e-07
-2.01871e-06
7.31346e-07
-2.7149e-06
6.96178e-07
-3.37329e-06
6.58371e-07
-3.9977e-06
6.24585e-07
-4.59723e-06
5.99735e-07
-5.17442e-06
5.77131e-07
-5.73239e-06
5.57654e-07
-6.2683e-06
5.35579e-07
-6.77616e-06
5.07821e-07
-7.25675e-06
4.80549e-07
-7.71286e-06
4.56544e-07
-8.15043e-06
4.38075e-07
-8.57216e-06
4.21726e-07
-8.9758e-06
4.03231e-07
-9.36033e-06
3.83543e-07
-9.72297e-06
3.62606e-07
-1.00642e-05
3.41233e-07
-1.03864e-05
3.2211e-07
-1.06923e-05
3.0619e-07
-1.0986e-05
2.94429e-07
-1.12677e-05
2.81649e-07
-1.15341e-05
2.66422e-07
-1.17835e-05
2.48417e-07
-1.2013e-05
2.29267e-07
-1.22281e-05
2.15037e-07
-1.24319e-05
2.03786e-07
-1.26239e-05
1.92472e-07
-1.28041e-05
1.80458e-07
-1.29717e-05
1.66977e-07
-1.3124e-05
1.5227e-07
-1.32647e-05
1.40874e-07
-1.3397e-05
1.3274e-07
-1.35211e-05
1.25255e-07
-1.36356e-05
1.1267e-07
-1.37326e-05
9.67383e-08
-1.38182e-05
8.55939e-08
-1.38948e-05
7.69768e-08
-1.39641e-05
7.059e-08
-1.40298e-05
6.56314e-08
-1.40878e-05
5.75628e-08
-1.41359e-05
4.69673e-08
-1.41706e-05
3.46436e-08
-1.41958e-05
2.52151e-08
-1.42138e-05
1.8118e-08
-1.42263e-05
1.2983e-08
-1.42336e-05
9.31082e-09
-1.42386e-05
3.48264e-09
-1.42356e-05
-4.09115e-09
-1.42231e-05
-1.24566e-08
-1.42028e-05
-2.03133e-08
-1.41766e-05
-2.62064e-08
-1.4146e-05
-3.01229e-08
-1.41142e-05
-3.15427e-08
-1.40791e-05
-3.5086e-08
-1.40384e-05
-4.1192e-08
-1.3991e-05
-4.73165e-08
-1.39382e-05
-5.26386e-08
-1.38816e-05
-5.65942e-08
-1.38225e-05
-5.9115e-08
-1.37619e-05
-6.10966e-08
-1.36984e-05
-6.34341e-08
-1.36334e-05
-6.5031e-08
-1.35665e-05
-6.66068e-08
-1.34973e-05
-6.85741e-08
-1.34271e-05
-7.1228e-08
-1.33519e-05
-7.52067e-08
-1.32744e-05
-7.75663e-08
-1.31961e-05
-7.82753e-08
-1.31182e-05
-7.7587e-08
-1.30422e-05
-7.55394e-08
-1.29663e-05
-7.65737e-08
-1.28845e-05
-8.18614e-08
-1.28007e-05
-8.3819e-08
-1.27174e-05
-8.32787e-08
-1.26347e-05
-8.24154e-08
-1.25533e-05
-8.121e-08
-1.24712e-05
-8.20471e-08
-1.23876e-05
-8.41074e-08
-1.23021e-05
-8.54131e-08
-1.22158e-05
-8.63165e-08
-1.21293e-05
-8.6489e-08
-1.20427e-05
-8.62298e-08
-1.19558e-05
-8.69069e-08
-1.18671e-05
-8.87621e-08
-1.17764e-05
-9.10515e-08
-1.16831e-05
-9.32936e-08
-1.15891e-05
-9.39901e-08
-1.14955e-05
-9.33214e-08
-1.1402e-05
-9.32e-08
-1.13074e-05
-9.50865e-08
-1.12073e-05
-1.00191e-07
-1.11035e-05
-1.03846e-07
-1.09978e-05
-1.05653e-07
-1.08902e-05
-1.0758e-07
-1.07807e-05
-1.09381e-07
-1.06699e-05
-1.10576e-07
-1.05571e-05
-1.12805e-07
-1.04408e-05
-1.16574e-07
-1.03199e-05
-1.20953e-07
-1.01951e-05
-1.24769e-07
-1.00667e-05
-1.28395e-07
-9.93453e-06
-1.32219e-07
-9.79849e-06
-1.36038e-07
-9.65938e-06
-1.39002e-07
-9.51826e-06
-1.40991e-07
-9.37366e-06
-1.44819e-07
-9.22239e-06
-1.51306e-07
-9.0657e-06
-1.56706e-07
-8.90504e-06
-1.60672e-07
-8.74004e-06
-1.65015e-07
-8.57032e-06
-1.6966e-07
-8.39632e-06
-1.73925e-07
-8.21818e-06
-1.78154e-07
-8.0347e-06
-1.83587e-07
-7.84509e-06
-1.89657e-07
-7.64957e-06
-1.9553e-07
-7.44851e-06
-2.01064e-07
-7.24196e-06
-2.06534e-07
-7.03057e-06
-2.11368e-07
-6.81408e-06
-2.16495e-07
-6.59171e-06
-2.22448e-07
-6.36306e-06
-2.28649e-07
-6.12806e-06
-2.35005e-07
-5.88675e-06
-2.41302e-07
-5.64067e-06
-2.4606e-07
-5.38975e-06
-2.50921e-07
-5.13291e-06
-2.56859e-07
-4.87051e-06
-2.62408e-07
-4.60301e-06
-2.67488e-07
-4.3314e-06
-2.716e-07
-4.05631e-06
-2.75111e-07
-3.77785e-06
-2.78466e-07
-3.49636e-06
-2.81484e-07
-3.21298e-06
-2.8337e-07
-2.92984e-06
-2.83112e-07
-2.64838e-06
-2.81457e-07
-2.36848e-06
-2.79898e-07
-2.0905e-06
-2.77986e-07
-1.81605e-06
-2.7444e-07
-1.5467e-06
-2.69348e-07
-1.28364e-06
-2.63056e-07
-1.02769e-06
-2.55945e-07
-7.7964e-07
-2.48053e-07
-5.40221e-07
-2.3942e-07
-3.10127e-07
-2.30094e-07
-9.00157e-08
-2.20113e-07
1.20346e-07
-2.10365e-07
3.21593e-07
-2.0125e-07
5.13976e-07
-1.92389e-07
6.97536e-07
-1.83569e-07
8.726e-07
-1.75075e-07
1.04002e-06
-1.6743e-07
1.20045e-06
-1.6044e-07
1.35427e-06
-1.53834e-07
1.50145e-06
-1.47198e-07
1.64178e-06
-1.40359e-07
1.77581e-06
-1.34046e-07
1.90445e-06
-1.28656e-07
2.02835e-06
-1.23912e-07
2.1476e-06
-1.19273e-07
2.26227e-06
-1.14691e-07
2.37253e-06
-1.10276e-07
2.47864e-06
-1.06128e-07
2.58096e-06
-1.02331e-07
2.67985e-06
-9.89051e-08
2.77559e-06
-9.575e-08
2.86823e-06
-9.26517e-08
2.95795e-06
-8.97334e-08
3.04501e-06
-8.70856e-08
3.12972e-06
-8.47273e-08
3.2123e-06
-8.25897e-08
3.29285e-06
-8.05688e-08
3.37136e-06
-7.85274e-08
3.44786e-06
-7.65232e-08
3.52265e-06
-7.48079e-08
3.596e-06
-7.33538e-08
3.66788e-06
-7.18951e-08
3.73829e-06
-7.04178e-08
3.8073e-06
-6.90128e-08
3.87493e-06
-6.76339e-08
3.94123e-06
-6.62985e-08
4.00629e-06
-6.50626e-08
4.07013e-06
-6.38465e-08
4.1327e-06
-6.2572e-08
4.19397e-06
-6.12699e-08
4.25395e-06
-5.99904e-08
4.31254e-06
-5.85993e-08
4.36955e-06
-5.70159e-08
4.42495e-06
-5.54098e-08
4.47886e-06
-5.39142e-08
4.53141e-06
-5.25509e-08
4.58242e-06
-5.10005e-08
4.63161e-06
-4.91973e-08
4.6788e-06
-4.71914e-08
4.72412e-06
-4.53173e-08
4.76771e-06
-4.35894e-08
4.80948e-06
-4.17718e-08
4.8492e-06
-3.97192e-08
4.8867e-06
-3.75028e-08
4.922e-06
-3.52994e-08
4.95499e-06
-3.29939e-08
4.98535e-06
-3.03801e-08
5.01317e-06
-2.78257e-08
5.0388e-06
-2.56271e-08
5.06224e-06
-2.34359e-08
5.08324e-06
-2.10103e-08
5.10162e-06
-1.83796e-08
5.1174e-06
-1.57962e-08
5.13042e-06
-1.30273e-08
5.1408e-06
-1.03805e-08
5.14865e-06
-7.85887e-09
5.154e-06
-5.36536e-09
5.15652e-06
-2.53348e-09
5.15612e-06
3.80318e-10
5.15302e-06
3.07885e-09
5.14752e-06
5.49992e-09
5.13932e-06
8.18733e-09
5.12855e-06
1.07484e-08
5.1151e-06
1.34198e-08
5.09879e-06
1.62741e-08
5.07953e-06
1.92257e-08
5.05762e-06
2.18812e-08
5.03342e-06
2.41649e-08
5.00715e-06
2.62382e-08
4.97857e-06
2.85463e-08
4.94767e-06
3.08571e-08
4.91439e-06
3.3241e-08
4.87861e-06
3.57483e-08
4.84126e-06
3.73337e-08
4.80257e-06
3.86592e-08
4.76246e-06
4.00963e-08
4.72083e-06
4.16067e-08
4.67719e-06
4.36144e-08
4.63204e-06
4.51405e-08
4.58495e-06
4.70795e-08
4.53758e-06
4.73572e-08
4.48899e-06
4.85808e-08
4.43754e-06
5.1441e-08
4.38573e-06
5.18078e-08
4.32974e-06
5.59867e-08
4.27172e-06
5.80145e-08
4.21731e-06
5.44172e-08
4.16142e-06
5.58996e-08
4.1019e-06
5.95238e-08
4.0466e-06
5.53145e-08
3.97351e-06
7.31021e-08
3.89824e-06
7.52778e-08
3.8438e-06
5.44404e-08
3.78087e-06
6.29408e-08
3.72741e-06
5.34606e-08
3.69485e-06
3.25706e-08
3.71004e-06
-1.51912e-08
3.74991e-06
-3.98647e-08
3.74929e-06
6.27931e-10
3.71977e-06
2.95267e-08
3.66896e-06
5.08261e-08
3.60065e-06
6.83175e-08
3.52576e-06
7.49063e-08
3.45027e-06
7.5506e-08
3.37357e-06
7.67171e-08
3.29214e-06
8.14389e-08
3.20803e-06
8.41232e-08
3.12435e-06
8.36906e-08
3.00436e-06
1.19995e-07
2.88039e-06
1.23976e-07
2.77303e-06
1.07354e-07
2.66189e-06
1.11136e-07
2.59981e-06
6.207e-08
2.57285e-06
2.69432e-08
2.66765e-06
-9.48151e-08
2.84258e-06
-1.7494e-07
2.9585e-06
-1.15942e-07
3.0255e-06
-6.70185e-08
3.02619e-06
-7.10925e-10
3.00345e-06
2.27204e-08
2.95614e-06
4.72908e-08
2.8975e-06
5.86295e-08
2.82708e-06
7.04071e-08
2.7381e-06
8.8966e-08
2.65605e-06
8.20407e-08
2.56602e-06
9.00269e-08
2.47682e-06
8.9195e-08
2.39124e-06
8.55718e-08
2.27947e-06
1.11761e-07
2.12589e-06
1.53576e-07
2.03406e-06
9.18248e-08
1.87706e-06
1.56996e-07
1.79169e-06
8.53694e-08
1.73618e-06
5.54945e-08
1.85605e-06
-1.1989e-07
2.03677e-06
-1.8073e-07
2.19536e-06
-1.58607e-07
2.6209e-06
-4.25573e-07
2.93475e-06
-3.13941e-07
3.16322e-06
-2.28554e-07
3.26184e-06
-9.86171e-08
3.2967e-06
-3.48626e-08
3.29132e-06
5.39021e-09
3.25984e-06
3.1466e-08
3.20471e-06
5.51088e-08
3.13061e-06
7.4101e-08
3.04722e-06
8.33943e-08
2.95922e-06
8.80065e-08
2.8633e-06
9.59238e-08
2.7621e-06
1.01188e-07
2.65712e-06
1.04982e-07
2.54731e-06
1.09812e-07
2.43904e-06
1.0827e-07
2.33106e-06
1.07973e-07
2.22062e-06
1.10429e-07
2.10745e-06
1.13158e-07
1.99858e-06
1.08868e-07
1.89377e-06
1.04795e-07
1.78727e-06
1.06486e-07
1.6787e-06
1.08554e-07
1.57012e-06
1.0857e-07
1.46521e-06
1.04894e-07
1.36429e-06
1.00912e-07
1.26515e-06
9.91221e-08
1.16871e-06
9.64189e-08
1.0739e-06
9.48022e-08
9.81908e-07
9.19727e-08
8.89531e-07
9.23597e-08
7.97474e-07
9.20421e-08
7.10985e-07
8.64737e-08
6.31333e-07
7.96365e-08
5.5744e-07
7.38781e-08
4.87387e-07
7.00372e-08
4.19463e-07
6.79069e-08
3.53244e-07
6.62034e-08
2.89226e-07
6.4002e-08
2.27727e-07
6.14843e-08
1.6914e-07
5.8571e-08
1.14208e-07
5.49168e-08
6.03268e-08
5.38655e-08
1.04983e-08
4.98132e-08
-3.45516e-08
4.50347e-08
-7.89036e-08
4.43371e-08
-1.24067e-07
4.51487e-08
-1.6873e-07
4.46485e-08
-2.11547e-07
4.28033e-08
-2.51643e-07
4.00813e-08
-2.88275e-07
3.6618e-08
-3.21476e-07
3.31876e-08
-3.51769e-07
3.02791e-08
-3.79627e-07
2.78449e-08
-4.05405e-07
2.57649e-08
-4.29436e-07
2.40185e-08
-4.51888e-07
2.24389e-08
-4.72411e-07
2.05103e-08
-4.90731e-07
1.83074e-08
-5.06875e-07
1.61318e-08
-5.21133e-07
1.42452e-08
-5.34304e-07
1.31596e-08
-5.46794e-07
1.24777e-08
-5.58219e-07
1.14123e-08
-5.67804e-07
9.574e-09
-5.75198e-07
7.38196e-09
-5.81711e-07
6.50154e-09
-5.87641e-07
5.9177e-09
-5.93996e-07
6.34394e-09
-5.97672e-07
3.66536e-09
-6.01525e-07
3.84215e-09
-6.05278e-07
3.74222e-09
-6.10468e-07
5.17882e-09
-6.03468e-07
-7.00953e-09
-5.99869e-07
-3.60957e-09
-5.85654e-07
-1.42243e-08
-5.8188e-07
-3.78343e-09
-5.69087e-07
-1.2803e-08
-5.64753e-07
-4.34302e-09
-2.09466e-08
4.62436e-05
3.92293e-08
4.61661e-05
1.1946e-07
4.6015e-05
4.7905e-07
4.60007e-05
5.78538e-07
4.65176e-05
-5.11989e-08
5.03119e-05
-4.17335e-06
5.94545e-05
-1.25528e-05
6.96893e-05
-1.89161e-05
7.89529e-05
-2.07038e-05
8.74211e-05
-1.80486e-05
9.28371e-05
-9.58315e-06
9.34861e-05
-1.007e-06
9.08761e-05
3.48324e-06
8.73349e-05
4.21399e-06
8.41356e-05
2.93275e-06
8.17966e-05
1.09158e-06
8.09222e-05
-1.10563e-06
8.17502e-05
-3.17864e-06
8.3602e-05
-4.64095e-06
8.54422e-05
-5.18056e-06
8.69265e-05
-4.4877e-06
8.7778e-05
-2.62411e-06
8.73657e-05
2.43269e-08
8.51224e-05
3.15509e-06
8.11624e-05
6.52177e-06
7.68952e-05
9.3628e-06
7.35768e-05
1.04752e-05
7.06125e-05
9.77416e-06
6.81729e-05
7.42121e-06
6.6216e-05
5.08172e-06
6.44361e-05
3.97296e-06
6.26309e-05
3.83182e-06
6.07861e-05
3.69851e-06
5.90595e-05
3.49777e-06
5.75636e-05
3.39504e-06
5.64543e-05
2.66439e-06
5.58509e-05
1.30578e-06
5.55994e-05
2.94065e-07
5.54467e-05
3.88014e-08
5.52118e-05
2.6954e-07
5.47408e-05
1.29809e-06
5.42946e-05
1.63633e-06
5.37809e-05
1.34332e-06
5.35741e-05
1.83621e-07
5.35981e-05
-3.96269e-07
5.36458e-05
-3.51188e-07
5.35027e-05
3.4197e-07
5.32006e-05
1.01008e-06
5.28054e-05
1.0021e-06
5.24392e-05
4.3069e-07
5.25155e-05
-4.95747e-07
5.28988e-05
-9.50692e-07
5.33853e-05
-1.10813e-06
5.38324e-05
-1.14664e-06
5.41644e-05
-1.00457e-06
5.41311e-05
-3.94238e-07
5.38238e-05
4.0433e-07
5.37267e-05
7.35367e-07
5.38713e-05
7.06733e-07
5.39168e-05
5.57694e-07
5.37529e-05
4.78999e-07
5.33513e-05
6.85277e-07
5.27835e-05
1.03493e-06
5.22506e-05
9.49236e-07
5.20593e-05
1.29845e-07
5.23709e-05
-1.05459e-06
5.27553e-05
-1.48264e-06
5.31085e-05
-1.43289e-06
5.32587e-05
-9.65231e-07
5.30448e-05
-2.6334e-07
5.26874e-05
9.26052e-08
5.23966e-05
1.19072e-07
5.23711e-05
-2.65443e-07
5.29411e-05
-1.11969e-06
5.3873e-05
-1.29144e-06
5.51442e-05
-7.9014e-07
5.72863e-05
2.5225e-07
6.0798e-05
2.52312e-06
6.08421e-05
6.76244e-06
5.74555e-05
6.9344e-06
5.10736e-05
9.81844e-06
4.36934e-05
9.11303e-06
3.9669e-05
5.8916e-06
3.54129e-05
5.06877e-06
3.28942e-05
2.34765e-06
3.09631e-05
2.50976e-06
2.93762e-05
2.05668e-06
2.94509e-05
-5.33914e-08
3.0417e-05
-1.14433e-06
3.04453e-05
-1.05178e-07
3.06394e-05
-3.71892e-07
3.09109e-05
-4.81202e-07
3.09787e-05
-1.58432e-07
3.10265e-05
-1.38773e-07
3.10729e-05
-2.55652e-08
3.08916e-05
2.92946e-07
3.08311e-05
5.45626e-07
3.07447e-05
8.31544e-07
3.13513e-05
1.52523e-06
3.17409e-05
2.76256e-06
3.14675e-05
2.68175e-06
2.95508e-05
3.00352e-06
2.62022e-05
3.30397e-06
2.36911e-05
2.52557e-06
2.20693e-05
1.07393e-06
2.13699e-05
1.06277e-08
2.11927e-05
-1.9969e-07
2.11112e-05
-5.33891e-08
2.16754e-05
-6.68023e-07
2.25688e-05
-1.13435e-06
2.30756e-05
-6.61292e-07
2.32807e-05
-4.16894e-07
2.33707e-05
-2.05272e-07
2.33849e-05
-3.152e-08
2.35535e-05
9.74189e-08
2.37183e-05
2.80749e-07
2.41691e-05
8.7235e-07
2.43278e-05
1.46693e-06
2.39776e-05
1.30224e-06
2.26133e-05
1.49758e-06
2.08448e-05
1.42852e-06
1.98025e-05
9.12882e-07
1.93645e-05
1.90294e-08
1.93632e-05
-4.91831e-07
1.93841e-05
-2.41108e-07
1.97705e-05
-5.71193e-07
2.02566e-05
-6.64624e-07
2.04724e-05
-3.51209e-07
2.0584e-05
-2.77295e-07
2.0659e-05
-2.3159e-07
2.07054e-05
-1.61692e-07
2.07924e-05
-1.62775e-07
2.08834e-05
-1.34303e-07
2.09404e-05
-8.68855e-08
2.09549e-05
-2.62376e-08
2.09328e-05
2.76582e-08
2.08973e-05
5.56907e-08
2.08445e-05
9.54211e-08
2.07832e-05
1.22178e-07
2.07038e-05
1.61283e-07
2.05931e-05
2.17158e-07
2.04581e-05
2.73168e-07
2.02967e-05
3.25571e-07
2.01095e-05
3.76189e-07
1.99017e-05
4.19836e-07
1.96656e-05
4.70313e-07
1.93967e-05
5.30817e-07
1.90936e-05
5.94615e-07
1.87685e-05
6.53698e-07
1.84219e-05
6.98291e-07
1.80489e-05
7.44408e-07
1.76422e-05
8.03626e-07
1.72027e-05
8.69044e-07
1.67352e-05
9.27548e-07
1.62472e-05
9.7841e-07
1.57302e-05
1.03441e-06
1.51807e-05
1.09495e-06
1.4598e-05
1.156e-06
1.3988e-05
1.21144e-06
1.33503e-05
1.26656e-06
1.26814e-05
1.33028e-06
1.19838e-05
1.39638e-06
1.12597e-05
1.44794e-06
1.05088e-05
1.49595e-06
9.72688e-06
1.55865e-06
8.91561e-06
1.62546e-06
8.08372e-06
1.66912e-06
7.23818e-06
1.69279e-06
6.37633e-06
1.72752e-06
5.49669e-06
1.76896e-06
4.61179e-06
1.79171e-06
3.72826e-06
1.78926e-06
2.85358e-06
1.76081e-06
1.99516e-06
1.72601e-06
1.15629e-06
1.68735e-06
3.39581e-07
1.64641e-06
-4.5583e-07
1.60219e-06
-1.22382e-06
1.53842e-06
-1.96102e-06
1.46861e-06
-2.6667e-06
1.40128e-06
-3.33621e-06
1.3275e-06
-3.9711e-06
1.25946e-06
-4.57702e-06
1.20572e-06
-5.15678e-06
1.15717e-06
-5.71506e-06
1.11613e-06
-6.25319e-06
1.07373e-06
-6.76837e-06
1.02207e-06
-7.25753e-06
9.69654e-07
-7.72006e-06
9.19113e-07
-8.15766e-06
8.76504e-07
-8.57601e-06
8.40089e-07
-8.97669e-06
8.03899e-07
-9.36112e-06
7.67902e-07
-9.72909e-06
7.29179e-07
-1.00753e-05
6.87304e-07
-1.04008e-05
6.47585e-07
-1.07087e-05
6.14676e-07
-1.1002e-05
5.88273e-07
-1.12812e-05
5.60796e-07
-1.15454e-05
5.30662e-07
-1.17942e-05
4.95934e-07
-1.20259e-05
4.6076e-07
-1.22436e-05
4.32783e-07
-1.24486e-05
4.09378e-07
-1.26411e-05
3.85017e-07
-1.28196e-05
3.58945e-07
-1.29854e-05
3.31901e-07
-1.31386e-05
3.05529e-07
-1.32816e-05
2.84069e-07
-1.34144e-05
2.66477e-07
-1.35371e-05
2.47915e-07
-1.36481e-05
2.22544e-07
-1.3746e-05
1.94233e-07
-1.38335e-05
1.73086e-07
-1.39118e-05
1.55592e-07
-1.39812e-05
1.4106e-07
-1.40442e-05
1.28645e-07
-1.4099e-05
1.12345e-07
-1.4146e-05
9.3035e-08
-1.41823e-05
7.03797e-08
-1.42091e-05
5.20143e-08
-1.42284e-05
3.77683e-08
-1.42403e-05
2.58877e-08
-1.4247e-05
1.60091e-08
-1.42477e-05
4.23468e-09
-1.42426e-05
-9.2096e-09
-1.4232e-05
-2.44126e-08
-1.4213e-05
-3.92371e-08
-1.41881e-05
-5.11124e-08
-1.41573e-05
-5.98929e-08
-1.4124e-05
-6.48858e-08
-1.40869e-05
-7.21493e-08
-1.40448e-05
-8.33063e-08
-1.39969e-05
-9.57795e-08
-1.39444e-05
-1.06006e-07
-1.38875e-05
-1.13432e-07
-1.38284e-05
-1.18284e-07
-1.37679e-05
-1.21551e-07
-1.37055e-05
-1.25239e-07
-1.36404e-05
-1.29434e-07
-1.35727e-05
-1.34308e-07
-1.35013e-05
-1.39999e-07
-1.34276e-05
-1.45372e-07
-1.33532e-05
-1.50322e-07
-1.32774e-05
-1.53388e-07
-1.32007e-05
-1.5489e-07
-1.31228e-05
-1.54541e-07
-1.3045e-05
-1.53362e-07
-1.29658e-05
-1.5629e-07
-1.28846e-05
-1.63416e-07
-1.28022e-05
-1.66281e-07
-1.27202e-05
-1.65213e-07
-1.26381e-05
-1.63934e-07
-1.25558e-05
-1.63464e-07
-1.24717e-05
-1.66072e-07
-1.23862e-05
-1.69603e-07
-1.23009e-05
-1.71183e-07
-1.22157e-05
-1.71705e-07
-1.21309e-05
-1.71227e-07
-1.20456e-05
-1.71403e-07
-1.19576e-05
-1.74715e-07
-1.18673e-05
-1.79118e-07
-1.17763e-05
-1.82379e-07
-1.16842e-05
-1.8538e-07
-1.15911e-05
-1.86762e-07
-1.14977e-05
-1.86493e-07
-1.14032e-05
-1.87702e-07
-1.13065e-05
-1.91908e-07
-1.12068e-05
-2.003e-07
-1.11039e-05
-2.06776e-07
-1.09991e-05
-2.10458e-07
-1.08925e-05
-2.14112e-07
-1.07833e-05
-2.18147e-07
-1.06716e-05
-2.22334e-07
-1.05565e-05
-2.27843e-07
-1.04389e-05
-2.34395e-07
-1.03186e-05
-2.41459e-07
-1.01946e-05
-2.48773e-07
-1.00666e-05
-2.56426e-07
-9.93446e-06
-2.64404e-07
-9.79845e-06
-2.72022e-07
-9.6591e-06
-2.78187e-07
-9.51645e-06
-2.83401e-07
-9.36992e-06
-2.91485e-07
-9.21821e-06
-3.03309e-07
-9.06155e-06
-3.13432e-07
-8.90092e-06
-3.2131e-07
-8.73623e-06
-3.29729e-07
-8.56647e-06
-3.39367e-07
-8.39126e-06
-3.49073e-07
-8.21113e-06
-3.58265e-07
-8.02582e-06
-3.68917e-07
-7.8355e-06
-3.80126e-07
-7.64019e-06
-3.90889e-07
-7.43957e-06
-4.01684e-07
-7.23276e-06
-4.13331e-07
-7.0196e-06
-4.24492e-07
-6.80072e-06
-4.35376e-07
-6.57719e-06
-4.46049e-07
-6.349e-06
-4.56892e-07
-6.11477e-06
-4.69265e-07
-5.87352e-06
-4.8253e-07
-5.6261e-06
-4.93458e-07
-5.37374e-06
-5.03279e-07
-5.11756e-06
-5.13083e-07
-4.85662e-06
-5.2334e-07
-4.58958e-06
-5.34502e-07
-4.31796e-06
-5.43219e-07
-4.04361e-06
-5.49453e-07
-3.76724e-06
-5.5484e-07
-3.48838e-06
-5.60344e-07
-3.20749e-06
-5.64248e-07
-2.92618e-06
-5.64394e-07
-2.6461e-06
-5.61531e-07
-2.3686e-06
-5.57396e-07
-2.09369e-06
-5.52898e-07
-1.82195e-06
-5.46176e-07
-1.55474e-06
-5.36546e-07
-1.29346e-06
-5.24338e-07
-1.03931e-06
-5.10096e-07
-7.93017e-07
-4.94345e-07
-5.54916e-07
-4.77524e-07
-3.25289e-07
-4.59726e-07
-1.04496e-07
-4.40916e-07
1.07186e-07
-4.22061e-07
3.09662e-07
-4.03741e-07
5.03017e-07
-3.8576e-07
6.87616e-07
-3.68189e-07
8.64074e-07
-3.51558e-07
1.03286e-06
-3.36246e-07
1.19432e-06
-3.21927e-07
1.34869e-06
-3.08227e-07
1.49627e-06
-2.94813e-07
1.63738e-06
-2.8151e-07
1.77245e-06
-2.69149e-07
1.90177e-06
-2.58014e-07
2.02593e-06
-2.48097e-07
2.14525e-06
-2.3862e-07
2.25999e-06
-2.29453e-07
2.37051e-06
-2.2083e-07
2.47699e-06
-2.12631e-07
2.57952e-06
-2.04889e-07
2.67846e-06
-1.97872e-07
2.77411e-06
-1.91428e-07
2.86656e-06
-1.8513e-07
2.95622e-06
-1.79418e-07
3.04346e-06
-1.74356e-07
3.12838e-06
-1.69681e-07
3.21103e-06
-1.65266e-07
3.29152e-06
-1.61089e-07
3.37002e-06
-1.57045e-07
3.44666e-06
-1.53189e-07
3.52161e-06
-1.49778e-07
3.595e-06
-1.46757e-07
3.66694e-06
-1.43847e-07
3.73749e-06
-1.40979e-07
3.80662e-06
-1.38156e-07
3.87427e-06
-1.35285e-07
3.94053e-06
-1.3256e-07
4.00562e-06
-1.30156e-07
4.06958e-06
-1.27812e-07
4.13229e-06
-1.25282e-07
4.19366e-06
-1.22641e-07
4.25372e-06
-1.20059e-07
4.31242e-06
-1.17309e-07
4.36971e-06
-1.14315e-07
4.42558e-06
-1.11291e-07
4.47994e-06
-1.08264e-07
4.53269e-06
-1.05292e-07
4.58376e-06
-1.02077e-07
4.63307e-06
-9.85075e-08
4.68048e-06
-9.46029e-08
4.72601e-06
-9.08514e-08
4.76977e-06
-8.73365e-08
4.81164e-06
-8.36407e-08
4.85147e-06
-7.95526e-08
4.88901e-06
-7.50411e-08
4.92422e-06
-7.05205e-08
4.95715e-06
-6.59367e-08
4.98788e-06
-6.11261e-08
5.01621e-06
-5.61658e-08
5.04208e-06
-5.14815e-08
5.06545e-06
-4.68033e-08
5.08635e-06
-4.19174e-08
5.10456e-06
-3.66079e-08
5.1202e-06
-3.14476e-08
5.1332e-06
-2.60438e-08
5.14364e-06
-2.08425e-08
5.15146e-06
-1.56961e-08
5.15651e-06
-1.04447e-08
5.15889e-06
-4.95142e-09
5.15869e-06
5.46486e-10
5.15592e-06
5.8246e-09
5.15021e-06
1.11697e-08
5.14171e-06
1.66536e-08
5.13047e-06
2.19494e-08
5.1168e-06
2.70361e-08
5.1004e-06
3.25932e-08
5.08165e-06
3.79104e-08
5.05969e-06
4.37936e-08
5.03539e-06
4.8418e-08
5.0085e-06
5.30799e-08
4.97957e-06
5.74274e-08
4.94816e-06
6.22018e-08
4.91515e-06
6.61681e-08
4.87927e-06
7.15965e-08
4.8418e-06
7.4763e-08
4.80196e-06
7.84804e-08
4.76089e-06
8.11431e-08
4.71978e-06
8.26596e-08
4.677e-06
8.63759e-08
4.63437e-06
8.775e-08
4.58769e-06
9.37636e-08
4.54036e-06
9.46719e-08
4.4881e-06
1.00832e-07
4.43437e-06
1.05163e-07
4.38504e-06
1.01133e-07
4.33616e-06
1.04877e-07
4.28289e-06
1.11284e-07
4.2297e-06
1.07619e-07
4.15482e-06
1.30785e-07
4.07672e-06
1.37638e-07
4.02799e-06
1.04062e-07
3.98314e-06
1.17966e-07
3.94902e-06
1.09406e-07
3.9251e-06
7.8379e-08
3.96241e-06
2.56414e-08
4.01301e-06
2.86753e-09
4.01445e-06
3.11505e-08
3.97203e-06
2.7236e-08
3.89623e-06
3.59518e-08
3.82106e-06
7.58201e-08
3.74655e-06
1.04056e-07
3.67979e-06
1.17607e-07
3.61232e-06
1.35811e-07
3.54887e-06
1.38379e-07
3.48354e-06
1.40865e-07
3.40893e-06
1.51343e-07
3.29598e-06
1.94409e-07
3.1725e-06
2.07614e-07
3.07735e-06
1.78844e-07
3.00475e-06
1.92594e-07
2.98977e-06
1.38958e-07
3.00324e-06
9.38727e-08
3.1275e-06
-1.3138e-08
3.30925e-06
-1.19709e-07
3.42546e-06
-8.92938e-08
3.44285e-06
-1.12235e-07
3.36301e-06
-9.51251e-08
3.28699e-06
-3.99527e-08
3.21373e-06
6.20773e-09
3.14369e-06
6.92955e-08
3.06213e-06
1.04238e-07
2.98867e-06
1.20736e-07
2.91551e-06
1.31771e-07
2.84718e-06
1.38723e-07
2.78082e-06
1.55314e-07
2.71459e-06
1.48256e-07
2.61459e-06
1.90013e-07
2.45549e-06
2.4827e-07
2.35159e-06
1.89465e-07
2.23531e-06
2.28045e-07
2.20082e-06
1.88049e-07
2.15205e-06
1.40593e-07
2.3765e-06
-6.74669e-08
2.74202e-06
-2.8016e-07
3.03866e-06
-2.41158e-07
3.46432e-06
-5.45563e-07
3.62786e-06
-3.44279e-07
3.72627e-06
-2.57033e-07
3.64084e-06
-3.40124e-07
3.60016e-06
-2.73227e-07
3.56588e-06
-1.94249e-07
3.53822e-06
-7.09517e-08
3.49041e-06
1.29443e-08
3.43221e-06
6.35902e-08
3.36384e-06
9.98408e-08
3.28565e-06
1.33306e-07
3.2002e-06
1.5956e-07
3.10911e-06
1.74498e-07
3.01368e-06
1.83441e-07
2.91231e-06
1.97306e-07
2.80655e-06
2.06955e-07
2.69842e-06
2.13111e-07
2.58883e-06
2.19398e-07
2.47895e-06
2.18141e-07
2.36879e-06
2.18129e-07
2.2587e-06
2.20506e-07
2.14916e-06
2.22677e-07
2.04109e-06
2.16914e-07
1.93395e-06
2.11917e-07
1.82762e-06
2.12796e-07
1.722e-06
2.14148e-07
1.61798e-06
2.12556e-07
1.51558e-06
2.07268e-07
1.41497e-06
2.01501e-07
1.31688e-06
1.97189e-07
1.22186e-06
1.91415e-07
1.12864e-06
1.87989e-07
1.03594e-06
1.84655e-07
9.45468e-07
1.82806e-07
8.58671e-07
1.78816e-07
7.75007e-07
1.70116e-07
6.94904e-07
1.59718e-07
6.17976e-07
1.50785e-07
5.43805e-07
1.44188e-07
4.73074e-07
1.38617e-07
4.05551e-07
1.33704e-07
3.40796e-07
1.28735e-07
2.79216e-07
1.23041e-07
2.20832e-07
1.16932e-07
1.64622e-07
1.11103e-07
1.10535e-07
1.07929e-07
5.91886e-08
1.01136e-07
9.95085e-09
9.42486e-08
-3.70668e-08
9.13308e-08
-8.16063e-08
8.96642e-08
-1.23598e-07
8.66161e-08
-1.6312e-07
8.23016e-08
-2.00269e-07
7.72065e-08
-2.35278e-07
7.16029e-08
-2.67945e-07
6.58318e-08
-2.98214e-07
6.05241e-08
-3.26e-07
5.56085e-08
-3.51535e-07
5.12771e-08
-3.75118e-07
4.75796e-08
-3.96809e-07
4.41078e-08
-4.16774e-07
4.04524e-08
-4.34821e-07
3.63333e-08
-4.50813e-07
3.21013e-08
-4.65404e-07
2.88148e-08
-4.78965e-07
2.66991e-08
-4.9123e-07
2.47219e-08
-5.01648e-07
2.18091e-08
-5.10186e-07
1.80905e-08
-5.17544e-07
1.47194e-08
-5.24427e-07
1.33636e-08
-5.30186e-07
1.16569e-08
-5.34122e-07
1.02597e-08
-5.36559e-07
6.08296e-09
-5.38571e-07
5.83401e-09
-5.40786e-07
5.93751e-09
-5.40072e-07
4.44596e-09
-5.417e-07
-5.40116e-09
-5.3694e-07
-8.38723e-09
-5.39508e-07
-1.16736e-08
-5.34897e-07
-8.4116e-09
-5.38519e-07
-9.19837e-09
-5.35267e-07
-7.6135e-09
-1.24053e-08
4.63703e-05
-2.79807e-08
4.64972e-05
-7.50535e-09
4.68675e-05
1.08736e-07
4.75477e-05
-1.01715e-07
4.99164e-05
-2.41996e-06
5.80577e-05
-1.23148e-05
6.85453e-05
-2.30404e-05
7.60993e-05
-2.64701e-05
8.16234e-05
-2.62278e-05
8.59691e-05
-2.23942e-05
8.85894e-05
-1.22033e-05
8.87446e-05
-1.16202e-06
8.65861e-05
5.64185e-06
8.35493e-05
7.25093e-06
7.99189e-05
6.56323e-06
7.61767e-05
4.83384e-06
7.32328e-05
1.83825e-06
7.09805e-05
-9.26298e-07
6.91093e-05
-2.76987e-06
6.73218e-05
-3.39316e-06
6.54728e-05
-2.63875e-06
6.33316e-05
-4.82822e-07
6.12547e-05
2.10121e-06
5.95334e-05
4.87627e-06
5.86019e-05
7.4531e-06
5.86647e-05
9.29461e-06
5.9247e-05
9.87185e-06
5.9826e-05
9.20673e-06
6.03112e-05
6.94669e-06
6.02941e-05
5.10054e-06
5.98147e-05
4.4512e-06
5.9108e-05
4.529e-06
5.79633e-05
4.80552e-06
5.67295e-05
4.73158e-06
5.58382e-05
4.28636e-06
5.55114e-05
3.01367e-06
5.5238e-05
1.59731e-06
5.49649e-05
5.69842e-07
5.4727e-05
2.76284e-07
5.44996e-05
4.86872e-07
5.44104e-05
1.36034e-06
5.44096e-05
1.63821e-06
5.43357e-05
1.43734e-06
5.41254e-05
4.09057e-07
5.39972e-05
-2.67358e-07
5.38729e-05
-2.31118e-07
5.37069e-05
4.88258e-07
5.34782e-05
1.23874e-06
5.31899e-05
1.29045e-06
5.27663e-05
8.7274e-07
5.25084e-05
-2.32201e-07
5.24898e-05
-9.31753e-07
5.25931e-05
-1.21137e-06
5.26674e-05
-1.22126e-06
5.266e-05
-1.00227e-06
5.25175e-05
-2.81052e-07
5.26967e-05
2.25134e-07
5.31742e-05
2.57875e-07
5.38615e-05
3.74222e-08
5.44484e-05
-2.77983e-08
5.45461e-05
3.60138e-07
5.41487e-05
1.08265e-06
5.36803e-05
1.50338e-06
5.32128e-05
1.43208e-06
5.27288e-05
6.30441e-07
5.25909e-05
-9.13164e-07
5.26531e-05
-1.54531e-06
5.27843e-05
-1.57036e-06
5.30144e-05
-1.21259e-06
5.31018e-05
-3.5072e-07
5.30223e-05
1.72068e-07
5.28903e-05
2.67098e-07
5.26112e-05
2.02904e-08
5.21141e-05
-6.22317e-07
5.19681e-05
-1.14545e-06
5.22815e-05
-1.10369e-06
5.33153e-05
-7.82238e-07
5.58194e-05
1.74704e-08
6.01921e-05
2.38795e-06
6.35846e-05
3.53659e-06
6.69304e-05
6.45033e-06
6.53499e-05
1.06995e-05
6.03315e-05
1.09206e-05
5.19444e-05
1.34581e-05
4.35657e-05
1.0726e-05
3.96021e-05
6.47259e-06
3.52183e-05
6.43153e-06