/*--------------------------------*- C++ -*----------------------------------*\
| =========                 |                                                 |
| \\      /  F ield         | OpenFOAM: The Open Source CFD Toolbox           |
|  \\    /   O peration     | Version:  v2006                                 |
|   \\  /    A nd           | Website:  www.openfoam.com                      |
|    \\/     M anipulation  |                                                 |
\*---------------------------------------------------------------------------*/
FoamFile
{
    version     2.0;
    format      ascii;
    class       volScalarField;
    location    "7.1";
    object      nut;
}
// * * * * * * * * * * * * * * * * * * * * * * * * * * * * * * * * * * * * * //

dimensions      [0 2 -1 0 0 0 0];


internalField   nonuniform List<scalar> 
33000
(
5.69652e-10
6.3152e-10
7.32647e-10
8.98032e-10
1.12764e-09
1.3362e-09
1.35769e-09
1.10836e-09
9.21418e-10
9.02213e-10
9.94925e-10
1.14489e-09
1.31237e-09
1.49708e-09
1.67576e-09
1.82409e-09
1.96622e-09
2.16453e-09
2.41058e-09
2.60636e-09
2.70129e-09
2.77104e-09
2.91784e-09
3.19213e-09
3.60942e-09
4.32509e-09
5.98605e-09
9.15101e-09
1.32738e-08
1.68556e-08
1.92721e-08
2.11876e-08
2.27992e-08
2.39298e-08
2.49299e-08
2.60432e-08
2.66253e-08
2.6346e-08
2.58454e-08
2.5354e-08
2.53073e-08
2.61334e-08
2.68047e-08
2.66182e-08
2.59226e-08
2.53191e-08
2.50671e-08
2.54366e-08
2.59241e-08
2.58124e-08
2.51341e-08
2.44287e-08
2.398e-08
2.36181e-08
2.32959e-08
2.32313e-08
2.33642e-08
2.35666e-08
2.41185e-08
2.4441e-08
2.40198e-08
2.3267e-08
2.2688e-08
2.20781e-08
2.09185e-08
1.91267e-08
1.71681e-08
1.56449e-08
1.4633e-08
1.3877e-08
1.32195e-08
1.25253e-08
1.18096e-08
1.08931e-08
9.98505e-09
9.38054e-09
8.61072e-09
8.83036e-09
1.12857e-08
1.30523e-08
1.54492e-08
1.99001e-08
2.13037e-08
2.7131e-08
2.90798e-08
3.07476e-08
3.28721e-08
3.39652e-08
3.19029e-08
3.07347e-08
3.00915e-08
2.82546e-08
2.66692e-08
2.49026e-08
2.31414e-08
2.13538e-08
1.98721e-08
1.82689e-08
1.74124e-08
1.95244e-08
2.4279e-08
2.78679e-08
2.81736e-08
2.78004e-08
2.9758e-08
3.12516e-08
3.27265e-08
3.31936e-08
3.32433e-08
3.12577e-08
2.95985e-08
2.87198e-08
2.79562e-08
2.73149e-08
2.63194e-08
2.48308e-08
2.36551e-08
2.60964e-08
2.95629e-08
3.03526e-08
2.93311e-08
2.86714e-08
2.99583e-08
3.01437e-08
3.10407e-08
3.11594e-08
3.01708e-08
2.95707e-08
2.94082e-08
2.92936e-08
2.93222e-08
2.92922e-08
2.91625e-08
2.90287e-08
2.89335e-08
2.89167e-08
2.89381e-08
2.89725e-08
2.90281e-08
2.9077e-08
2.9163e-08
2.92963e-08
2.94683e-08
2.96752e-08
2.99041e-08
3.01472e-08
3.04273e-08
3.07607e-08
3.11755e-08
3.16523e-08
3.2144e-08
3.26686e-08
3.32721e-08
3.39863e-08
3.48001e-08
3.56931e-08
3.66765e-08
3.77817e-08
3.90503e-08
4.04724e-08
4.20744e-08
4.39648e-08
4.61784e-08
4.86532e-08
5.14814e-08
5.49521e-08
5.93235e-08
6.45739e-08
7.07821e-08
7.8543e-08
8.86582e-08
1.02178e-07
1.19842e-07
1.41558e-07
1.6721e-07
1.92239e-07
2.07667e-07
2.0689e-07
1.91002e-07
1.69004e-07
1.48603e-07
1.31622e-07
1.17494e-07
1.06004e-07
9.66307e-08
8.88993e-08
8.26208e-08
7.74141e-08
7.29826e-08
6.91231e-08
6.56825e-08
6.26445e-08
5.99607e-08
5.75578e-08
5.53948e-08
5.34263e-08
5.16275e-08
4.99661e-08
4.84332e-08
4.7035e-08
4.57496e-08
4.45777e-08
4.34869e-08
4.24457e-08
4.14733e-08
4.0575e-08
3.97375e-08
3.89642e-08
3.82484e-08
3.75791e-08
3.69531e-08
3.63732e-08
3.58587e-08
3.53881e-08
3.49546e-08
3.4582e-08
3.42537e-08
3.39637e-08
3.37073e-08
3.34787e-08
3.32811e-08
3.31198e-08
3.30059e-08
3.29251e-08
3.28618e-08
3.281e-08
3.27651e-08
3.27373e-08
3.27351e-08
3.27644e-08
3.28136e-08
3.28635e-08
3.29147e-08
3.29681e-08
3.30321e-08
3.31105e-08
3.31986e-08
3.32914e-08
3.33897e-08
3.34907e-08
3.35917e-08
3.36913e-08
3.37811e-08
3.38678e-08
3.3961e-08
3.40601e-08
3.41699e-08
3.4274e-08
3.43482e-08
3.44163e-08
3.44993e-08
3.45855e-08
3.46719e-08
3.47507e-08
3.48168e-08
3.48783e-08
3.49374e-08
3.49966e-08
3.50552e-08
3.5109e-08
3.51544e-08
3.51925e-08
3.5228e-08
3.52691e-08
3.53211e-08
3.5375e-08
3.54191e-08
3.54407e-08
3.54594e-08
3.54967e-08
3.55423e-08
3.55933e-08
3.56533e-08
3.57148e-08
3.57691e-08
3.58209e-08
3.58831e-08
3.59568e-08
3.60372e-08
3.61292e-08
3.62384e-08
3.63669e-08
3.64998e-08
3.66222e-08
3.67567e-08
3.69253e-08
3.71129e-08
3.73139e-08
3.75377e-08
3.77859e-08
3.80492e-08
3.83257e-08
3.86321e-08
3.89704e-08
3.9319e-08
3.96976e-08
4.01299e-08
4.06063e-08
4.1142e-08
4.17524e-08
4.24427e-08
4.32373e-08
4.41423e-08
4.51342e-08
4.62421e-08
4.75003e-08
4.8944e-08
5.0624e-08
5.25868e-08
5.49047e-08
5.76735e-08
6.10253e-08
6.50742e-08
6.99123e-08
7.57111e-08
8.28322e-08
9.17163e-08
9.74445e-08
9.65901e-08
9.58956e-08
9.53646e-08
9.49934e-08
9.47677e-08
9.46702e-08
9.46843e-08
9.47848e-08
9.49388e-08
9.51277e-08
9.53389e-08
9.55668e-08
9.581e-08
9.60647e-08
9.63279e-08
9.65952e-08
9.68606e-08
9.71192e-08
9.73623e-08
9.38751e-08
8.9249e-08
8.5171e-08
8.15391e-08
7.82712e-08
7.53066e-08
7.25942e-08
7.01078e-08
6.78181e-08
6.56918e-08
6.37053e-08
6.18412e-08
6.00858e-08
5.84295e-08
5.68656e-08
5.53802e-08
5.39579e-08
5.25941e-08
5.12879e-08
5.00335e-08
4.88276e-08
4.76685e-08
4.65507e-08
4.54703e-08
4.44263e-08
4.34188e-08
4.24445e-08
4.15009e-08
4.05901e-08
3.97128e-08
3.88669e-08
3.80473e-08
3.72527e-08
3.64862e-08
3.57497e-08
3.50417e-08
3.43544e-08
3.36876e-08
3.3042e-08
3.24196e-08
3.18176e-08
3.12332e-08
3.06694e-08
3.01277e-08
2.96006e-08
2.90852e-08
2.85848e-08
2.81017e-08
2.7635e-08
2.71835e-08
2.67499e-08
2.63294e-08
2.59239e-08
2.55325e-08
2.51609e-08
2.48042e-08
2.44614e-08
2.41316e-08
2.38208e-08
2.35215e-08
2.3241e-08
2.29765e-08
2.27312e-08
2.24986e-08
2.228e-08
2.20751e-08
2.18849e-08
2.17099e-08
2.1551e-08
2.14176e-08
2.12841e-08
2.11807e-08
2.10671e-08
2.09826e-08
2.08931e-08
2.0827e-08
2.07758e-08
2.0736e-08
2.0739e-08
2.07339e-08
2.06864e-08
2.06729e-08
2.0643e-08
2.06823e-08
2.09226e-08
2.10442e-08
2.09509e-08
2.08599e-08
2.04716e-08
2.06043e-08
2.06691e-08
2.10446e-08
2.1023e-08
2.07109e-08
2.07229e-08
2.13593e-08
2.18655e-08
2.23248e-08
2.27014e-08
2.29548e-08
2.33387e-08
2.37387e-08
2.48496e-08
2.5544e-08
2.60587e-08
2.61479e-08
2.52951e-08
2.58511e-08
2.66609e-08
2.78739e-08
2.74655e-08
2.43071e-08
2.28957e-08
2.33647e-08
2.38226e-08
2.4745e-08
2.52576e-08
2.60602e-08
2.65424e-08
2.71337e-08
2.764e-08
2.80391e-08
2.96551e-08
3.12608e-08
3.21879e-08
3.35395e-08
3.2117e-08
3.12665e-08
3.21424e-08
3.00301e-08
2.92325e-08
2.87416e-08
2.99017e-08
2.71083e-08
2.66307e-08
2.81406e-08
3.08931e-08
3.31718e-08
3.52041e-08
3.69008e-08
3.85879e-08
4.0361e-08
4.21858e-08
4.39414e-08
4.57679e-08
4.77828e-08
4.9897e-08
5.22735e-08
5.48456e-08
5.74313e-08
6.02391e-08
6.35577e-08
6.72328e-08
7.08383e-08
7.26941e-08
7.29146e-08
7.30995e-08
7.3255e-08
7.34072e-08
7.35664e-08
7.37161e-08
7.38669e-08
7.40042e-08
7.41645e-08
7.42996e-08
7.43871e-08
7.44664e-08
7.45581e-08
7.46648e-08
7.47811e-08
7.4895e-08
7.50035e-08
7.5105e-08
7.52017e-08
7.5298e-08
7.54133e-08
7.5502e-08
7.5595e-08
7.57249e-08
7.58591e-08
7.59715e-08
7.60638e-08
7.61402e-08
7.62043e-08
7.6263e-08
7.63187e-08
7.63715e-08
7.64217e-08
7.64694e-08
7.6512e-08
7.65456e-08
7.65703e-08
7.65897e-08
7.66088e-08
7.66318e-08
7.66525e-08
7.66599e-08
7.6652e-08
7.66357e-08
7.66246e-08
7.66122e-08
7.65963e-08
7.65528e-08
7.65311e-08
7.6488e-08
7.64747e-08
7.62606e-08
7.64034e-08
7.62596e-08
7.61946e-08
7.74411e-08
7.48231e-08
7.84116e-08
1.95973e-08
1.9247e-08
2.05666e-08
3.13722e-08
1.84138e-08
3.90364e-09
2.20953e-09
2.13884e-09
2.57384e-09
2.83051e-09
4.27038e-09
1.10934e-08
2.16005e-08
2.30969e-08
3.10916e-08
4.59007e-08
6.45362e-08
8.42646e-08
1.02906e-07
1.25831e-07
1.43209e-07
1.57609e-07
1.70515e-07
1.84011e-07
2.0008e-07
2.21771e-07
2.50052e-07
2.50399e-07
2.74676e-07
3.09594e-07
3.07413e-07
3.02846e-07
2.97314e-07
2.8628e-07
2.63958e-07
2.28589e-07
2.08872e-07
2.16702e-07
2.04119e-07
2.12168e-07
2.32694e-07
2.40744e-07
2.20164e-07
2.04942e-07
1.89711e-07
1.89826e-07
1.94044e-07
2.152e-07
2.09371e-07
1.58164e-07
1.71787e-07
1.28591e-07
9.5864e-08
9.17091e-08
1.2814e-07
1.61044e-07
1.84641e-07
2.0697e-07
2.14314e-07
2.03452e-07
1.85762e-07
1.49094e-07
1.21348e-07
1.3504e-07
1.15252e-07
9.09002e-08
8.29019e-08
7.60616e-08
7.37874e-08
7.47978e-08
7.7926e-08
8.20638e-08
8.60079e-08
8.92919e-08
9.17352e-08
9.49624e-08
1.04823e-07
9.73893e-08
1.45348e-07
1.59664e-07
9.13563e-08
1.22972e-07
1.93594e-07
1.97227e-07
1.80629e-07
1.61847e-07
1.36434e-07
1.12794e-07
9.72729e-08
8.69821e-08
8.20208e-08
8.13985e-08
7.84559e-08
8.37186e-08
8.26636e-08
8.09511e-08
8.05507e-08
8.04774e-08
7.60021e-08
9.1006e-08
8.76274e-08
8.11329e-08
5.56567e-08
6.31836e-08
5.48494e-08
4.97082e-08
3.06772e-08
4.15227e-08
3.39491e-08
2.11465e-08
3.39119e-08
6.06866e-08
1.29863e-07
6.02213e-08
4.60994e-08
2.72929e-08
2.566e-08
3.12936e-08
3.67545e-08
1.50643e-08
1.12008e-08
1.91982e-08
2.86284e-08
3.81729e-08
3.24848e-08
4.38911e-08
3.798e-08
7.96852e-08
1.23267e-07
1.63233e-07
1.65334e-07
1.60293e-07
1.66405e-07
1.66703e-07
1.67133e-07
1.67556e-07
1.67819e-07
1.67981e-07
1.68107e-07
1.68401e-07
1.68806e-07
1.56861e-07
1.33127e-07
1.15983e-07
1.03478e-07
9.20567e-08
8.18623e-08
7.42031e-08
6.89864e-08
6.43177e-08
5.95046e-08
5.49124e-08
5.11235e-08
4.84786e-08
4.62508e-08
4.35915e-08
4.08071e-08
3.8532e-08
3.67494e-08
3.50419e-08
3.34241e-08
3.19619e-08
3.05446e-08
2.9194e-08
2.79108e-08
2.68306e-08
2.58968e-08
2.50918e-08
2.43354e-08
2.36819e-08
2.3315e-08
2.30173e-08
2.2787e-08
2.27872e-08
2.29608e-08
2.3286e-08
2.36429e-08
2.4123e-08
2.47126e-08
2.54092e-08
2.63061e-08
2.72185e-08
2.80736e-08
2.89327e-08
2.9684e-08
3.04175e-08
3.13273e-08
3.2373e-08
3.36505e-08
3.49803e-08
3.61811e-08
3.72794e-08
3.83121e-08
3.95345e-08
4.1167e-08
4.3046e-08
4.4766e-08
4.64408e-08
4.83213e-08
5.03971e-08
5.29646e-08
5.57491e-08
5.84352e-08
6.1137e-08
6.44836e-08
6.86904e-08
7.33252e-08
7.79094e-08
8.24912e-08
8.75095e-08
9.41919e-08
1.03239e-07
1.14489e-07
1.2641e-07
1.39355e-07
1.54056e-07
1.70169e-07
1.90606e-07
2.02056e-07
2.04375e-07
2.06693e-07
2.08754e-07
2.1053e-07
2.12194e-07
2.13965e-07
2.15984e-07
2.18156e-07
2.20224e-07
2.21972e-07
2.23371e-07
2.24579e-07
2.25842e-07
2.27266e-07
2.09401e-07
1.90699e-07
1.79423e-07
1.72206e-07
1.68108e-07
1.63862e-07
1.56934e-07
1.48935e-07
1.41111e-07
1.35722e-07
1.33714e-07
1.32343e-07
1.30899e-07
1.30233e-07
1.28644e-07
1.25301e-07
1.22288e-07
1.20954e-07
1.2162e-07
1.22183e-07
1.20957e-07
1.18316e-07
1.16189e-07
1.15687e-07
1.1611e-07
1.16864e-07
1.16112e-07
1.12565e-07
1.09286e-07
1.08005e-07
1.07069e-07
1.06292e-07
1.05805e-07
1.04295e-07
1.01578e-07
9.81173e-08
9.53799e-08
9.36673e-08
9.21627e-08
9.02998e-08
8.78769e-08
8.53255e-08
8.32405e-08
8.13172e-08
7.90042e-08
7.64758e-08
7.40606e-08
7.20131e-08
7.03926e-08
6.87996e-08
6.67317e-08
6.43425e-08
6.23723e-08
6.08361e-08
5.93182e-08
5.75744e-08
5.57881e-08
5.42135e-08
5.26432e-08
5.11649e-08
4.98459e-08
4.85026e-08
4.70362e-08
4.56029e-08
4.43542e-08
4.33482e-08
4.23934e-08
4.12388e-08
3.99947e-08
3.89313e-08
3.80859e-08
3.74166e-08
3.66441e-08
3.57199e-08
3.50144e-08
3.45605e-08
3.41938e-08
3.37868e-08
3.34536e-08
3.33151e-08
3.33616e-08
3.35618e-08
3.37749e-08
3.40749e-08
3.45636e-08
3.5254e-08
3.61515e-08
3.72173e-08
3.84203e-08
3.97651e-08
4.12813e-08
4.29884e-08
4.48866e-08
4.69655e-08
4.91614e-08
5.14033e-08
5.37122e-08
5.61415e-08
5.87324e-08
6.14616e-08
6.42992e-08
6.71982e-08
7.01838e-08
7.31151e-08
7.60878e-08
7.91502e-08
8.21856e-08
8.53145e-08
8.85824e-08
9.17698e-08
9.49083e-08
9.81804e-08
1.01221e-07
1.03964e-07
1.06715e-07
1.09566e-07
1.12428e-07
1.15232e-07
1.17925e-07
1.20469e-07
1.22909e-07
1.25273e-07
1.27617e-07
1.30091e-07
1.32808e-07
1.35433e-07
1.37703e-07
1.39958e-07
1.42578e-07
1.45493e-07
1.48451e-07
1.51674e-07
1.55174e-07
1.5886e-07
1.63037e-07
1.67675e-07
1.72767e-07
1.78539e-07
1.85256e-07
1.92408e-07
1.99732e-07
2.08008e-07
2.17892e-07
2.25696e-07
2.25749e-07
2.25753e-07
2.2574e-07
2.25918e-07
2.26366e-07
2.26897e-07
2.27324e-07
2.27648e-07
2.27965e-07
2.28278e-07
2.28786e-07
2.29483e-07
2.30142e-07
2.30602e-07
2.31158e-07
2.31993e-07
2.32877e-07
2.33634e-07
2.34515e-07
2.35327e-07
2.36006e-07
2.36742e-07
2.37746e-07
2.3907e-07
2.40573e-07
2.41854e-07
2.43061e-07
2.44253e-07
2.43681e-07
2.32252e-07
2.17553e-07
2.10687e-07
2.0983e-07
2.02092e-07
2.01336e-07
1.84469e-07
1.79916e-07
1.62694e-07
1.57483e-07
1.7163e-07
1.72953e-07
1.58903e-07
1.53595e-07
1.10682e-07
1.06131e-07
1.43626e-07
1.5753e-07
1.8623e-07
2.19469e-07
1.28562e-07
9.70934e-08
1.45427e-07
1.32194e-07
9.24675e-08
8.97064e-08
9.9464e-08
1.10628e-07
1.17106e-07
1.31217e-07
1.25529e-07
1.0937e-07
7.23876e-08
6.57054e-08
6.96375e-08
7.49997e-08
8.79813e-08
9.46971e-08
4.9953e-08
3.51179e-08
4.16879e-08
5.78423e-08
5.0791e-08
5.42156e-08
6.24577e-08
7.94851e-08
8.55383e-08
9.61838e-08
1.01497e-07
1.01042e-07
1.20514e-07
1.25708e-07
7.8413e-08
5.07823e-08
6.87359e-08
5.70972e-08
6.3987e-08
4.2563e-08
2.6468e-08
1.84957e-08
1.93935e-08
1.90467e-08
1.85934e-08
2.62503e-08
3.82661e-08
2.96947e-08
3.76759e-08
4.49175e-08
6.89289e-08
8.43377e-08
9.30052e-08
9.18181e-08
9.01699e-08
8.78599e-08
8.42998e-08
7.99606e-08
7.70777e-08
7.53716e-08
7.45797e-08
7.44055e-08
7.418e-08
7.41542e-08
7.45752e-08
7.54283e-08
7.60979e-08
7.65179e-08
7.71876e-08
7.82711e-08
7.94618e-08
8.0976e-08
8.28854e-08
8.53099e-08
8.69158e-08
8.75189e-08
8.95922e-08
9.31169e-08
9.66021e-08
1.0055e-07
1.0453e-07
1.08276e-07
1.13071e-07
1.1823e-07
1.23453e-07
1.29708e-07
1.36289e-07
1.41694e-07
1.47499e-07
1.54786e-07
1.61892e-07
1.68828e-07
1.77389e-07
1.87772e-07
1.99532e-07
2.12124e-07
2.24635e-07
2.38777e-07
2.56386e-07
2.77166e-07
2.98925e-07
3.19894e-07
3.42627e-07
3.4243e-07
3.42566e-07
3.42714e-07
3.4244e-07
3.41553e-07
3.40425e-07
3.39698e-07
3.3963e-07
3.39816e-07
3.39628e-07
3.39139e-07
3.38867e-07
3.39248e-07
3.39627e-07
2.50179e-07
1.38518e-07
9.14537e-08
7.36862e-08
6.45878e-08
6.1149e-08
5.8091e-08
5.4636e-08
9.47194e-08
1.95105e-08
3.12733e-08
1.97558e-08
1.16901e-08
3.50699e-09
1.87605e-09
1.70938e-09
2.38302e-09
3.39716e-09
4.46236e-09
6.38852e-09
2.1404e-08
2.83833e-08
2.54072e-08
3.28555e-08
5.11142e-08
9.92456e-08
1.31495e-07
1.56193e-07
1.76356e-07
1.92729e-07
2.05896e-07
2.15891e-07
2.24274e-07
2.33615e-07
2.44504e-07
2.54598e-07
2.59222e-07
2.54842e-07
2.42765e-07
2.27559e-07
2.14598e-07
2.05763e-07
1.9754e-07
1.88147e-07
1.74933e-07
1.57743e-07
1.40594e-07
1.30927e-07
1.32491e-07
1.39699e-07
1.42556e-07
1.37707e-07
1.26995e-07
1.1814e-07
1.17078e-07
1.22601e-07
1.26464e-07
1.24177e-07
9.70427e-08
7.17442e-08
8.80011e-08
9.44982e-08
9.58e-08
9.78199e-08
1.038e-07
1.1254e-07
8.82817e-08
6.3376e-08
7.4954e-08
1.08806e-07
9.24078e-08
9.95793e-08
9.29834e-08
6.29288e-08
6.54464e-08
7.96825e-08
7.91136e-08
6.50961e-08
7.95759e-08
8.03282e-08
8.2011e-08
8.4624e-08
8.7055e-08
8.92465e-08
9.23271e-08
9.65029e-08
1.03112e-07
1.15817e-07
1.26387e-07
1.37469e-07
1.46905e-07
1.54143e-07
1.57917e-07
1.55176e-07
1.47858e-07
1.36056e-07
1.21023e-07
1.05329e-07
9.12784e-08
8.04686e-08
7.38333e-08
6.988e-08
6.94868e-08
6.69437e-08
6.57992e-08
7.57562e-08
7.53894e-08
7.42973e-08
7.35033e-08
7.07654e-08
6.69355e-08
6.27672e-08
5.80198e-08
3.38373e-08
2.03381e-08
2.00152e-08
1.98855e-08
2.1128e-08
1.60527e-08
1.02921e-08
1.09755e-08
9.38211e-09
1.7817e-08
3.97487e-08
3.4634e-08
1.53519e-08
1.29413e-08
1.33449e-08
1.36662e-08
1.2194e-08
1.42506e-08
5.98851e-09
4.60648e-09
7.87019e-09
1.09707e-08
1.53098e-08
1.39241e-08
2.27082e-08
2.03211e-08
5.67422e-08
1.01385e-07
1.7508e-07
7.71103e-08
7.75708e-08
1.09408e-07
1.70582e-07
2.34493e-07
1.35029e-07
9.01847e-08
7.19699e-08
6.4038e-08
5.65153e-08
4.9319e-08
4.308e-08
3.77482e-08
3.36881e-08
3.10906e-08
2.93035e-08
2.7267e-08
2.48796e-08
2.28786e-08
2.13679e-08
2.03419e-08
1.94655e-08
1.84218e-08
1.72576e-08
1.62889e-08
1.55079e-08
1.47626e-08
1.42001e-08
1.37812e-08
1.32471e-08
1.26384e-08
1.21761e-08
1.18946e-08
1.15707e-08
1.12831e-08
1.11172e-08
1.09756e-08
1.09154e-08
1.08498e-08
1.07926e-08
1.09027e-08
1.10726e-08
1.12934e-08
1.15191e-08
1.17574e-08
1.20995e-08
1.25438e-08
1.30435e-08
1.35634e-08
1.41432e-08
1.47681e-08
1.53797e-08
1.59811e-08
1.65854e-08
1.72354e-08
1.81023e-08
1.91358e-08
2.01168e-08
2.10368e-08
2.18937e-08
2.27122e-08
2.37292e-08
2.51188e-08
2.66162e-08
2.8189e-08
2.96802e-08
3.10425e-08
3.26723e-08
3.46716e-08
3.69058e-08
3.93445e-08
4.21101e-08
4.52425e-08
4.83636e-08
5.13001e-08
5.47187e-08
5.94079e-08
6.52048e-08
7.12128e-08
7.81055e-08
8.65539e-08
9.57155e-08
1.06456e-07
1.20106e-07
1.35627e-07
1.5339e-07
1.78061e-07
2.14505e-07
2.60267e-07
3.25685e-07
3.92456e-07
4.02148e-07
3.7318e-07
3.41742e-07
3.1553e-07
2.80585e-07
2.4949e-07
2.19971e-07
1.93724e-07
1.70853e-07
1.54779e-07
1.46262e-07
1.40865e-07
1.37783e-07
1.34398e-07
1.28521e-07
1.2039e-07
1.12591e-07
1.07873e-07
1.06541e-07
1.07581e-07
1.08037e-07
1.06724e-07
1.03781e-07
9.95497e-08
9.67184e-08
9.73223e-08
9.86421e-08
9.9845e-08
9.92954e-08
9.59467e-08
9.32693e-08
9.27563e-08
9.34641e-08
9.50982e-08
9.55108e-08
9.36873e-08
9.06183e-08
8.85225e-08
8.81727e-08
8.81085e-08
8.69355e-08
8.52501e-08
8.38011e-08
8.20276e-08
8.00102e-08
7.83066e-08
7.71071e-08
7.61353e-08
7.42911e-08
7.12158e-08
6.85196e-08
6.70117e-08
6.61086e-08
6.49107e-08
6.30084e-08
6.08417e-08
5.90173e-08
5.7308e-08
5.5491e-08
5.37713e-08
5.24128e-08
5.12305e-08
5.00121e-08
4.87364e-08
4.71176e-08
4.53572e-08
4.39959e-08
4.29095e-08
4.19578e-08
4.1076e-08
4.00028e-08
3.86974e-08
3.74566e-08
3.64485e-08
3.56813e-08
3.50665e-08
3.4263e-08
3.32894e-08
3.24604e-08
3.19116e-08
3.15178e-08
3.09337e-08
3.023e-08
2.97654e-08
2.95638e-08
2.94072e-08
2.91771e-08
2.89778e-08
2.89276e-08
2.90697e-08
2.93924e-08
2.96951e-08
2.99829e-08
3.04119e-08
3.10411e-08
3.1878e-08
3.28348e-08
3.38544e-08
3.49454e-08
3.6159e-08
3.7571e-08
3.91858e-08
4.10023e-08
4.29478e-08
4.49126e-08
4.69393e-08
4.90705e-08
5.13515e-08
5.37766e-08
5.62801e-08
5.87651e-08
6.13992e-08
6.41285e-08
6.68355e-08
6.95805e-08
7.22383e-08
7.49524e-08
7.79179e-08
8.09042e-08
8.38404e-08
8.67791e-08
8.92701e-08
9.15423e-08
9.40229e-08
9.66761e-08
9.93217e-08
1.01838e-07
1.04231e-07
1.06541e-07
1.08737e-07
1.10695e-07
1.12627e-07
1.14891e-07
1.17438e-07
1.19704e-07
1.21588e-07
1.23545e-07
1.25898e-07
1.28612e-07
1.31284e-07
1.33935e-07
1.36624e-07
1.39788e-07
1.43957e-07
1.4848e-07
1.52625e-07
1.57301e-07
1.63436e-07
1.70236e-07
1.77199e-07
1.84485e-07
1.9326e-07
2.04312e-07
2.17319e-07
2.30667e-07
2.45248e-07
2.63016e-07
2.87341e-07
3.1592e-07
3.50172e-07
3.95002e-07
4.51581e-07
5.17498e-07
5.99883e-07
7.25391e-07
9.13595e-07
1.12434e-06
1.31264e-06
1.25342e-06
1.04496e-06
8.06065e-07
6.73083e-07
5.55409e-07
4.86518e-07
4.20619e-07
3.75659e-07
3.31839e-07
3.03417e-07
2.7155e-07
2.56537e-07
2.39166e-07
2.29758e-07
2.26402e-07
2.17039e-07
2.03632e-07
1.91427e-07
1.85704e-07
1.69535e-07
1.64673e-07
1.84953e-07
1.8906e-07
1.64774e-07
1.57205e-07
1.05901e-07
1.02032e-07
1.45358e-07
1.63767e-07
1.86458e-07
2.04661e-07
8.93834e-08
7.47949e-08
1.51176e-07
1.75362e-07
1.11378e-07
9.21749e-08
8.3047e-08
7.92889e-08
8.93617e-08
1.17432e-07
1.2298e-07
7.51957e-08
6.95672e-08
8.78547e-08
7.12112e-08
7.45411e-08
7.49202e-08
7.25479e-08
4.00516e-08
3.12513e-08
3.98926e-08
6.21963e-08
6.40573e-08
5.63436e-08
5.51863e-08
4.75022e-08
4.80635e-08
6.24837e-08
7.03526e-08
1.10781e-07
1.15293e-07
1.38552e-07
7.89238e-08
4.68095e-08
6.2787e-08
5.09821e-08
5.13109e-08
3.40692e-08
2.01386e-08
1.38542e-08
1.5367e-08
1.81607e-08
1.69333e-08
2.12531e-08
3.57662e-08
2.56344e-08
4.2196e-08
2.99509e-08
3.34295e-08
3.92065e-08
4.69756e-08
5.8245e-08
6.68677e-08
7.08457e-08
7.35218e-08
7.74451e-08
7.7089e-08
7.32537e-08
7.11897e-08
6.97857e-08
6.90867e-08
6.99835e-08
6.95604e-08
6.90446e-08
7.00072e-08
7.16336e-08
7.16288e-08
7.14461e-08
7.28336e-08
7.50382e-08
7.66477e-08
7.72433e-08
7.80553e-08
7.97305e-08
8.20461e-08
8.47859e-08
8.65538e-08
9.02205e-08
9.40408e-08
9.52702e-08
9.58571e-08
9.76908e-08
1.00789e-07
1.0494e-07
1.09851e-07
1.15159e-07
1.20647e-07
1.26006e-07
1.31459e-07
1.38707e-07
1.42572e-07
1.46288e-07
1.56181e-07
1.70284e-07
1.8366e-07
1.95392e-07
2.05867e-07
2.15916e-07
2.27776e-07
2.43024e-07
2.6168e-07
2.83379e-07
3.07253e-07
3.31973e-07
3.56527e-07
3.81863e-07
4.124e-07
4.50547e-07
5.01277e-07
5.64832e-07
6.38712e-07
7.08881e-07
7.72695e-07
8.66061e-07
1.07065e-06
1.31328e-06
1.59213e-06
1.69947e-06
2.67474e-07
1.2978e-07
8.7659e-08
7.37294e-08
6.14988e-08
5.9573e-08
5.62672e-08
5.17101e-08
9.51818e-08
2.1196e-08
4.41474e-08
1.83284e-08
5.45917e-09
2.45797e-09
1.92172e-09
2.44759e-09
4.05409e-09
7.21595e-09
1.58646e-08
2.12985e-08
5.42463e-08
3.62497e-08
4.14124e-08
6.14283e-08
8.76614e-08
1.08539e-07
1.28782e-07
1.45859e-07
1.58853e-07
1.68167e-07
1.74743e-07
1.82212e-07
1.94432e-07
2.09057e-07
2.21298e-07
2.26731e-07
2.22181e-07
2.09488e-07
1.92696e-07
1.75645e-07
1.62744e-07
1.547e-07
1.48849e-07
1.42096e-07
1.33334e-07
1.23787e-07
1.15744e-07
1.11386e-07
1.11471e-07
1.13907e-07
1.15373e-07
1.14088e-07
9.6352e-08
1.07777e-07
1.07782e-07
1.08397e-07
1.11393e-07
1.10719e-07
7.28761e-08
4.06595e-08
3.85229e-08
4.63263e-08
6.02149e-08
1.12959e-07
9.3143e-08
4.09831e-08
2.78281e-08
2.65075e-08
3.85231e-08
5.53181e-08
6.8813e-08
1.0061e-07
9.66613e-08
4.16204e-08
3.27342e-08
8.17438e-08
1.00131e-07
5.33858e-08
3.83589e-08
5.91407e-08
9.63834e-08
9.49982e-08
9.27431e-08
9.58941e-08
9.65898e-08
9.65665e-08
9.54692e-08
9.72521e-08
1.00667e-07
1.08436e-07
1.19078e-07
1.26758e-07
1.32331e-07
1.32324e-07
1.29302e-07
1.23888e-07
1.16099e-07
1.07145e-07
9.77039e-08
8.89799e-08
8.15151e-08
7.63058e-08
7.4082e-08
7.48303e-08
7.73702e-08
8.05396e-08
6.46217e-08
5.64458e-08
8.39489e-08
8.21803e-08
8.04652e-08
4.45112e-08
3.88645e-08
3.34408e-08
2.95294e-08
3.41091e-08
2.84147e-08
1.62357e-08
1.06936e-08
1.29097e-08
1.25333e-08
1.27085e-08
9.11365e-09
9.88392e-09
8.00026e-09
1.36858e-08
2.38346e-08
4.42953e-08
1.68637e-08
1.12874e-08
1.09062e-08
1.10192e-08
8.84877e-09
1.03375e-08
4.59659e-09
3.66051e-09
6.18663e-09
8.26666e-09
1.16868e-08
1.13516e-08
2.07425e-08
2.04513e-08
8.80418e-08
1.09762e-07
6.4822e-08
6.9698e-08
4.7475e-08
6.14925e-08
7.39218e-08
6.35211e-08
5.07899e-08
4.27684e-08
3.81259e-08
3.42692e-08
3.03321e-08
2.74126e-08
2.55381e-08
2.4105e-08
2.22002e-08
2.02043e-08
1.87009e-08
1.77377e-08
1.68754e-08
1.59625e-08
1.50695e-08
1.42948e-08
1.35844e-08
1.29122e-08
1.23143e-08
1.19227e-08
1.16131e-08
1.11943e-08
1.07412e-08
1.04491e-08
1.02918e-08
1.00941e-08
9.91693e-09
9.85276e-09
9.82978e-09
9.79674e-09
9.78059e-09
9.781e-09
9.87856e-09
1.00098e-08
1.01768e-08
1.03754e-08
1.05839e-08
1.08879e-08
1.12934e-08
1.16786e-08
1.20799e-08
1.25958e-08
1.31807e-08
1.38317e-08
1.45125e-08
1.51279e-08
1.57252e-08
1.64473e-08
1.73876e-08
1.83498e-08
1.93458e-08
2.03842e-08
2.12696e-08
2.21478e-08
2.32868e-08
2.47131e-08
2.64131e-08
2.80149e-08
2.93207e-08
3.06839e-08
3.24606e-08
3.48476e-08
3.76596e-08
4.02823e-08
4.28206e-08
4.54066e-08
4.82057e-08
5.19756e-08
5.70662e-08
6.25401e-08
6.75329e-08
7.31235e-08
8.07537e-08
8.87757e-08
9.83916e-08
1.11092e-07
1.24921e-07
1.39897e-07
1.56681e-07
1.79758e-07
2.0548e-07
2.35844e-07
2.68978e-07
2.78379e-07
2.69484e-07
2.59858e-07
2.51023e-07
2.39473e-07
2.24801e-07
1.9938e-07
1.71124e-07
1.52064e-07
1.45481e-07
1.41296e-07
1.3693e-07
1.34266e-07
1.29102e-07
1.21064e-07
1.12451e-07
1.06748e-07
1.05582e-07
1.0667e-07
1.07367e-07
1.06274e-07
1.03742e-07
9.96076e-08
9.53601e-08
9.39464e-08
9.59692e-08
9.83312e-08
9.87954e-08
9.71424e-08
9.40787e-08
9.19177e-08
9.20072e-08
9.32837e-08
9.44282e-08
9.3298e-08
9.07594e-08
8.91259e-08
8.85576e-08
8.82367e-08
8.80502e-08
8.65032e-08
8.37324e-08
8.19731e-08
8.05879e-08
7.9109e-08
7.78622e-08
7.69074e-08
7.56355e-08
7.31363e-08
6.99169e-08
6.75082e-08
6.59323e-08
6.46715e-08
6.36104e-08
6.21442e-08
6.03355e-08
5.83089e-08
5.59531e-08
5.38677e-08
5.23511e-08
5.15046e-08
5.06855e-08
4.93e-08
4.75904e-08
4.58703e-08
4.43221e-08
4.31129e-08
4.21947e-08
4.13518e-08
4.02762e-08
3.90696e-08
3.79432e-08
3.6901e-08
3.59643e-08
3.51339e-08
3.44269e-08
3.36632e-08
3.28825e-08
3.23103e-08
3.18382e-08
3.12998e-08
3.07102e-08
3.02258e-08
2.99115e-08
2.97292e-08
2.95624e-08
2.93989e-08
2.92969e-08
2.9326e-08
2.9497e-08
2.97653e-08
3.00545e-08
3.03579e-08
3.07759e-08
3.13796e-08
3.21352e-08
3.29474e-08
3.38514e-08
3.48543e-08
3.59658e-08
3.7247e-08
3.86753e-08
4.03048e-08
4.2161e-08
4.41465e-08
4.61445e-08
4.81454e-08
5.02899e-08
5.27017e-08
5.53422e-08
5.78559e-08
6.03718e-08
6.30462e-08
6.5727e-08
6.84946e-08
7.13239e-08
7.42001e-08
7.71992e-08
8.02565e-08
8.32132e-08
8.59771e-08
8.83846e-08
9.07959e-08
9.33881e-08
9.59574e-08
9.84344e-08
1.00939e-07
1.03551e-07
1.05961e-07
1.07947e-07
1.0967e-07
1.11554e-07
1.13794e-07
1.16154e-07
1.1811e-07
1.19938e-07
1.21985e-07
1.24277e-07
1.26877e-07
1.29417e-07
1.31885e-07
1.34491e-07
1.37633e-07
1.41566e-07
1.45762e-07
1.49519e-07
1.53948e-07
1.59698e-07
1.668e-07
1.73848e-07
1.80924e-07
1.88957e-07
1.99293e-07
2.10979e-07
2.24089e-07
2.38243e-07
2.56144e-07
2.77917e-07
3.05492e-07
3.35558e-07
3.76287e-07
4.25679e-07
4.88253e-07
5.47894e-07
6.34998e-07
7.38974e-07
8.64403e-07
9.3041e-07
9.08443e-07
7.71196e-07
6.78399e-07
5.74165e-07
5.13195e-07
4.46735e-07
4.05886e-07
3.50141e-07
3.19561e-07
2.81239e-07
2.6584e-07
2.54395e-07
2.49531e-07
2.15632e-07
2.09693e-07
1.77234e-07
1.75922e-07
2.06236e-07
2.20359e-07
2.44572e-07
1.84956e-07
1.73181e-07
1.08571e-07
1.03253e-07
1.48935e-07
1.66546e-07
1.86479e-07
2.11598e-07
6.99383e-08
5.99927e-08
1.35619e-07
1.78636e-07
1.20658e-07
9.25834e-08
7.97064e-08
7.33717e-08
9.17589e-08
1.06858e-07
1.07759e-07
7.05867e-08
6.6124e-08
6.2526e-08
6.65627e-08
6.69332e-08
5.92263e-08
4.34054e-08
3.43541e-08
2.6774e-08
3.53905e-08
4.98206e-08
6.14562e-08
5.3593e-08
5.34431e-08
4.4022e-08
4.67079e-08
5.59113e-08
6.02754e-08
8.07829e-08
8.96697e-08
6.63155e-08
4.20141e-08
5.96258e-08
6.72513e-08
4.16871e-08
3.83389e-08
2.80273e-08
1.80849e-08
1.12773e-08
1.24407e-08
1.64439e-08
1.48925e-08
1.78731e-08
3.31752e-08
2.60132e-08
3.94232e-08
2.56105e-08
3.01516e-08
4.15971e-08
4.63792e-08
4.63479e-08
4.48421e-08
4.78977e-08
5.51265e-08
6.01478e-08
6.23826e-08
6.49993e-08
6.76823e-08
6.79128e-08
6.6352e-08
6.63534e-08
6.66821e-08
6.71628e-08
6.80371e-08
6.74489e-08
6.70095e-08
6.79031e-08
6.89878e-08
6.91415e-08
6.96019e-08
7.12317e-08
7.3168e-08
7.43185e-08
7.47263e-08
7.55453e-08
7.73123e-08
7.96869e-08
8.32239e-08
8.65923e-08
8.95735e-08
9.20899e-08
9.35095e-08
9.47446e-08
9.71682e-08
1.00839e-07
1.04929e-07
1.0956e-07
1.14468e-07
1.18998e-07
1.23243e-07
1.28696e-07
1.35914e-07
1.41038e-07
1.46891e-07
1.56574e-07
1.68203e-07
1.79161e-07
1.89225e-07
1.99017e-07
2.09761e-07
2.22885e-07
2.38758e-07
2.57002e-07
2.76966e-07
2.97936e-07
3.19273e-07
3.42509e-07
3.66657e-07
3.93476e-07
4.32648e-07
4.87677e-07
5.48054e-07
6.01646e-07
6.54583e-07
7.23542e-07
8.33113e-07
9.63787e-07
1.09973e-06
1.27105e-06
1.30563e-06
2.65522e-07
1.306e-07
8.75806e-08
7.26334e-08
6.21031e-08
5.8832e-08
5.63521e-08
5.15781e-08
9.66959e-08
1.86324e-08
3.69441e-08
1.4922e-08
4.14327e-09
2.46786e-09
2.52395e-09
4.3985e-09
9.4221e-09
1.30056e-08
1.55849e-08
5.59881e-08
5.87425e-08
6.5738e-08
7.67692e-08
8.76149e-08
1.01294e-07
1.15633e-07
1.28517e-07
1.38841e-07
1.46385e-07
1.51065e-07
1.54674e-07
1.61382e-07
1.71881e-07
1.83345e-07
1.91146e-07
1.91445e-07
1.84195e-07
1.71769e-07
1.57851e-07
1.45262e-07
1.36141e-07
1.31079e-07
1.27981e-07
1.24844e-07
1.21641e-07
1.1904e-07
1.17653e-07
1.18151e-07
1.20054e-07
1.22193e-07
1.24161e-07
1.24864e-07
7.32613e-08
6.22895e-08
8.66253e-08
1.30596e-07
1.31796e-07
1.31601e-07
6.7277e-08
2.89539e-08
2.31045e-08
2.62263e-08
3.97554e-08
8.17132e-08
5.26133e-08
2.63866e-08
1.99393e-08
2.2642e-08
3.13146e-08
2.44695e-08
2.79809e-08
6.60708e-08
1.30369e-07
4.98299e-08
2.569e-08
3.39627e-08
8.42861e-08
7.89978e-08
4.63157e-08
4.12772e-08
9.6169e-08
1.23114e-07
9.25899e-08
8.09511e-08
1.13278e-07
1.1073e-07
1.07359e-07
1.03005e-07
9.9091e-08
9.77817e-08
1.00105e-07
1.02936e-07
1.07493e-07
1.10207e-07
1.09922e-07
1.07822e-07
1.04044e-07
9.92179e-08
9.39008e-08
8.87504e-08
8.40828e-08
8.00165e-08
7.72733e-08
7.65379e-08
6.97833e-08
8.31652e-08
8.35172e-08
8.37736e-08
1.00035e-07
5.18187e-08
3.9889e-08
6.2438e-08
1.06659e-07
6.04434e-08
2.58141e-08
2.87973e-08
3.64206e-08
2.52075e-08
1.98199e-08
2.57933e-08
1.44998e-08
1.02535e-08
1.26575e-08
1.24797e-08
1.31029e-08
9.53069e-09
9.81463e-09
7.63173e-09
1.33805e-08
2.70202e-08
1.02048e-07
1.99428e-08
1.19914e-08
1.10456e-08
1.07452e-08
7.97354e-09
8.80123e-09
4.13397e-09
3.37116e-09
5.64509e-09
7.36201e-09
1.07443e-08
1.04435e-08
2.30871e-08
3.11465e-08
2.55516e-08
1.57697e-07
6.38166e-08
4.13399e-08
3.31339e-08
4.03948e-08
4.45028e-08
3.63616e-08
2.99812e-08
2.65185e-08
2.48619e-08
2.39377e-08
2.24466e-08
2.03842e-08
1.86203e-08
1.74598e-08
1.66459e-08
1.58468e-08
1.48799e-08
1.40448e-08
1.34358e-08
1.28471e-08
1.22621e-08
1.17939e-08
1.14587e-08
1.11066e-08
1.07554e-08
1.04691e-08
1.02771e-08
1.01426e-08
1.00411e-08
9.9193e-09
9.84887e-09
9.88183e-09
9.87387e-09
9.88907e-09
9.93396e-09
9.96778e-09
1.00357e-08
1.01528e-08
1.03265e-08
1.05324e-08
1.08014e-08
1.11155e-08
1.14007e-08
1.17508e-08
1.21924e-08
1.2701e-08
1.3378e-08
1.41232e-08
1.47426e-08
1.53289e-08
1.59435e-08
1.67414e-08
1.76702e-08
1.86704e-08
1.98107e-08
2.09062e-08
2.18431e-08
2.2692e-08
2.38498e-08
2.54897e-08
2.71886e-08
2.87249e-08
3.01888e-08
3.18249e-08
3.40974e-08
3.67659e-08
3.91395e-08
4.12743e-08
4.37094e-08
4.68254e-08
5.0917e-08
5.58258e-08
6.05978e-08
6.45849e-08
6.94645e-08
7.64678e-08
8.41181e-08
9.30585e-08
1.0322e-07
1.13843e-07
1.25516e-07
1.39544e-07
1.57637e-07
1.73228e-07
1.85958e-07
2.03219e-07
2.15747e-07
2.16619e-07
2.1036e-07
2.03209e-07
2.00664e-07
1.95329e-07
1.77264e-07
1.54932e-07
1.42025e-07
1.39234e-07
1.3601e-07
1.31547e-07
1.2738e-07
1.22655e-07
1.14997e-07
1.07317e-07
1.05006e-07
1.05724e-07
1.06456e-07
1.05562e-07
1.03069e-07
9.97511e-08
9.58721e-08
9.37921e-08
9.43579e-08