/*--------------------------------*- C++ -*----------------------------------*\
| =========                 |                                                 |
| \\      /  F ield         | OpenFOAM: The Open Source CFD Toolbox           |
|  \\    /   O peration     | Version:  v2006                                 |
|   \\  /    A nd           | Website:  www.openfoam.com                      |
|    \\/     M anipulation  |                                                 |
\*---------------------------------------------------------------------------*/
FoamFile
{
    version     2.0;
    format      ascii;
    class       volScalarField;
    location    "7.1";
    object      omega;
}
// * * * * * * * * * * * * * * * * * * * * * * * * * * * * * * * * * * * * * //

dimensions      [0 0 -1 0 0 0 0];


internalField   nonuniform List<scalar> 
33000
(
0.801336
0.801472
0.801701
0.802067
0.802535
0.802959
0.803199
0.803329
0.803539
0.803937
0.804519
0.805157
0.805746
0.806294
0.806829
0.807419
0.808146
0.809059
0.810168
0.81138
0.81244
0.813183
0.813774
0.814714
0.81653
0.820027
0.826112
0.834866
0.844813
0.853858
0.860756
0.86538
0.86816
0.869615
0.870173
0.870156
0.869831
0.869391
0.86899
0.868736
0.868463
0.868092
0.867592
0.866874
0.866204
0.865933
0.865764
0.865391
0.864823
0.863946
0.86284
0.86198
0.861404
0.861109
0.861263
0.861899
0.862579
0.862912
0.862863
0.862362
0.861383
0.859913
0.85793
0.855269
0.851648
0.847498
0.843841
0.84105
0.838962
0.837171
0.835359
0.83339
0.83128
0.829303
0.827826
0.827048
0.826854
0.827299
0.828635
0.831174
0.834545
0.838124
0.841245
0.843686
0.845238
0.846388
0.847014
0.847128
0.846588
0.845794
0.844322
0.842258
0.839948
0.837441
0.834911
0.832422
0.830378
0.82881
0.827978
0.828051
0.829196
0.830984
0.832456
0.83344
0.833623
0.833606
0.833831
0.834019
0.833983
0.833637
0.83325
0.832714
0.832125
0.831368
0.830375
0.829257
0.828252
0.827731
0.827951
0.828543
0.828806
0.829105
0.829027
0.828996
0.829257
0.829446
0.829555
0.82963
0.829652
0.829677
0.829718
0.829749
0.829758
0.829747
0.829727
0.829699
0.829671
0.829645
0.829621
0.829596
0.829568
0.829537
0.829497
0.82945
0.829391
0.829323
0.829247
0.829166
0.829086
0.828997
0.828898
0.82879
0.828675
0.828559
0.828438
0.82831
0.828171
0.828023
0.827867
0.827702
0.82753
0.827349
0.827157
0.826954
0.826739
0.826534
0.826347
0.82618
0.826032
0.825909
0.825822
0.825772
0.825754
0.825767
0.825818
0.825915
0.826057
0.826215
0.826362
0.8265
0.826626
0.826734
0.826825
0.826907
0.826986
0.827064
0.827132
0.827181
0.827208
0.827217
0.827211
0.827192
0.827156
0.827098
0.827014
0.826903
0.826772
0.826637
0.826506
0.826376
0.826237
0.826077
0.8259
0.825715
0.825533
0.825356
0.825178
0.824992
0.824802
0.824618
0.824451
0.824295
0.824135
0.823969
0.823813
0.823683
0.823579
0.823491
0.823406
0.823314
0.823221
0.823142
0.823086
0.82305
0.823022
0.822988
0.822944
0.822897
0.822856
0.822828
0.822813
0.822801
0.822777
0.822742
0.822702
0.822665
0.82263
0.822597
0.822563
0.822525
0.822484
0.82244
0.822387
0.822323
0.822253
0.822186
0.822124
0.822065
0.821995
0.821906
0.821811
0.821722
0.821636
0.821548
0.821454
0.82135
0.82124
0.821128
0.821015
0.8209
0.820782
0.820656
0.820523
0.820387
0.820252
0.82012
0.819987
0.819844
0.819689
0.819528
0.819371
0.819215
0.819058
0.8189
0.818738
0.818567
0.818391
0.818213
0.818033
0.817851
0.817667
0.817484
0.817299
0.817109
0.816909
0.816706
0.816503
0.816299
0.816091
0.815881
0.815667
0.815446
0.81522
0.814988
0.814744
0.814493
0.814243
0.813994
0.813743
0.813491
0.81324
0.812989
0.812739
0.812487
0.812231
0.81197
0.81171
0.811456
0.811212
0.810981
0.810766
0.810567
0.810386
0.810221
0.81007
0.809936
0.809819
0.809718
0.809633
0.809564
0.809511
0.809474
0.809452
0.809443
0.809445
0.809455
0.80947
0.809488
0.809509
0.809531
0.809555
0.80958
0.809606
0.809633
0.809659
0.809684
0.809708
0.80973
0.809747
0.809758
0.809764
0.809764
0.809759
0.80975
0.809736
0.809718
0.809695
0.809668
0.809638
0.809604
0.809568
0.809527
0.809484
0.809437
0.809387
0.809334
0.809278
0.80922
0.809159
0.809096
0.80903
0.808963
0.808894
0.808822
0.80875
0.808676
0.8086
0.808523
0.808445
0.808367
0.808287
0.808207
0.808126
0.808044
0.807961
0.807877
0.807793
0.807707
0.807621
0.807533
0.807445
0.807355
0.807265
0.807174
0.807082
0.806989
0.806896
0.806803
0.80671
0.806617
0.806524
0.806432
0.80634
0.806249
0.806159
0.806069
0.805981
0.805894
0.805809
0.805724
0.805641
0.80556
0.80548
0.805402
0.805326
0.805252
0.805179
0.805108
0.80504
0.804974
0.80491
0.804847
0.804787
0.804727
0.80467
0.804614
0.804558
0.804504
0.804449
0.804394
0.804344
0.804292
0.804243
0.804198
0.804132
0.80407
0.804036
0.803971
0.803945
0.803916
0.803993
0.804029
0.804075
0.80409
0.804099
0.804091
0.804078
0.804061
0.804044
0.804026
0.804003
0.803993
0.803963
0.803927
0.803918
0.803875
0.803817
0.803739
0.803761
0.803775
0.803814
0.803848
0.803861
0.803871
0.80387
0.803872
0.803865
0.803844
0.803827
0.80381
0.803778
0.803786
0.803754
0.803659
0.803636
0.803567
0.803502
0.803534
0.803693
0.804057
0.804317
0.804751
0.805146
0.805535
0.80586
0.806118
0.806326
0.806494
0.806629
0.806733
0.806817
0.80689
0.806948
0.806998
0.807043
0.807078
0.807111
0.807142
0.807171
0.807192
0.807213
0.807237
0.807259
0.807278
0.807294
0.807309
0.807325
0.80734
0.807356
0.80737
0.807386
0.8074
0.807409
0.807417
0.807426
0.807437
0.807449
0.80746
0.807471
0.807482
0.807492
0.807501
0.807513
0.807522
0.807531
0.807544
0.807558
0.807569
0.807578
0.807586
0.807592
0.807598
0.807603
0.807608
0.807613
0.807618
0.807622
0.807626
0.807628
0.80763
0.807632
0.807634
0.807636
0.807637
0.807636
0.807634
0.807633
0.807632
0.80763
0.807626
0.807624
0.807619
0.807618
0.807597
0.80761
0.807598
0.807588
0.807716
0.80745
0.807814
0.00700475
0.0282939
0.0838897
0.19036
0.366546
0.598282
0.732736
0.765958
0.784935
0.840786
0.916335
0.974106
1.00581
1.02206
1.02158
1.01886
1.02783
1.06331
1.13008
1.2238
1.33041
1.42784
1.49064
1.49582
1.44291
1.35401
1.26973
1.20688
1.1489
1.08497
1.01568
0.955947
0.908376
0.861482
0.808857
0.748242
0.681516
0.622787
0.589145
0.583602
0.591305
0.589812
0.569136
0.535074
0.510013
0.505881
0.516714
0.523785
0.513431
0.484543
0.448646
0.41878
0.399789
0.392576
0.397906
0.415442
0.438885
0.45934
0.470702
0.475166
0.483411
0.499418
0.514351
0.519909
0.517153
0.513801
0.521927
0.549383
0.599251
0.668265
0.744767
0.814721
0.863274
0.890984
0.910145
0.939752
0.993024
1.04847
1.08232
1.1173
1.19571
1.29846
1.38074
1.44511
1.40043
1.28825
1.08527
0.884876
0.736788
0.591923
0.481578
0.414004
0.390766
0.409338
0.463664
0.543057
0.635717
0.726376
0.817801
0.889637
0.937597
0.984728
1.01783
0.963496
0.850852
0.707654
0.56836
0.435045
0.334453
0.268912
0.222519
0.194753
0.183639
0.187008
0.203699
0.227656
0.263053
0.287889
0.291299
0.304307
0.315746
0.278461
0.241245
0.211057
0.192316
0.175656
0.164943
0.157684
0.153848
0.151912
0.151271
0.151033
0.151007
0.151776
0.153298
0.155112
0.156578
0.15774
0.158896
0.160278
0.161739
0.162903
0.163599
0.16369
0.163653
0.164175
0.165261
0.166514
0.167186
0.166953
0.166863
0.167518
0.168532
0.16917
0.169435
0.169734
0.17009
0.170395
0.170422
0.170336
0.170531
0.170664
0.170069
0.1692
0.168853
0.168683
0.167626
0.165677
0.164134
0.16315
0.161862
0.159896
0.157194
0.154508
0.152158
0.150169
0.148358
0.146173
0.143706
0.141194
0.138499
0.135695
0.13318
0.130938
0.128928
0.126962
0.124693
0.122187
0.119687
0.117396
0.115384
0.113461
0.111484
0.109354
0.10707
0.104794
0.102732
0.100989
0.0994242
0.0977884
0.0959616
0.093962
0.0920257
0.0902912
0.0887014
0.0871714
0.0856171
0.0839942
0.0824252
0.0810077
0.079679
0.0782327
0.0765913
0.0750084
0.0736408
0.0724935
0.071478
0.0703736
0.0690734
0.067667
0.066379
0.0653258
0.0644752
0.0637151
0.0629116
0.0620228
0.0610915
0.0602267
0.0595118
0.058947
0.058457
0.0579413
0.0573659
0.0567889
0.0562946
0.0559186
0.055646
0.0554325
0.0552326
0.0550439
0.0548853
0.0547422
0.0545887
0.0544398
0.0543542
0.0543749
0.0544667
0.0545258
0.0544834
0.0543885
0.0543526
0.054414
0.0545137
0.0545842
0.0545984
0.0545672
0.054529
0.0545171
0.0545268
0.0545266
0.0544874
0.0544119
0.0543508
0.0543616
0.0544496
0.0545453
0.054547
0.0544171
0.0542348
0.0541192
0.0541262
0.0542285
0.0543504
0.0544139
0.0543937
0.0543258
0.0542635
0.0542294
0.0542256
0.0542658
0.0543729
0.0545153
0.0545968
0.0545713
0.0544981
0.0544653
0.0545039
0.0546055
0.0547447
0.0548591
0.054889
0.0548525
0.0548186
0.0548313
0.0549109
0.0550239
0.0550896
0.0550811
0.0550195
0.0549402
0.0549067
0.0549149
0.0548778
0.0547569
0.0545798
0.0544201
0.0542727
0.0540692
0.0537899
0.0534774
0.0532082
0.0529909
0.0527539
0.0524212
0.0520108
0.0516262
0.0513014
0.0509803
0.0506403
0.0502945
0.0499817
0.0497306
0.0494994
0.0492524
0.0490207
0.0488639
0.0487924
0.0487445
0.0486805
0.0486281
0.048646
0.0487727
0.0489521
0.0490826
0.049122
0.0491119
0.0491157
0.0491627
0.0492505
0.0493337
0.0493681
0.0493627
0.0493524
0.0493845
0.0494614
0.0495129
0.0494967
0.0494421
0.0494139
0.0494476
0.0495123
0.04954
0.0495189
0.0495235
0.0495809
0.0496358
0.0496703
0.0497068
0.049753
0.0497965
0.0498372
0.0498836
0.0499357
0.0500014
0.0500776
0.0501457
0.0501862
0.0502012
0.0502089
0.0502331
0.050265
0.0502681
0.0502199
0.0501423
0.0500776
0.0500238
0.0499666
0.0499003
0.0498458
0.0497965
0.049697
0.0495264
0.0493342
0.0491691
0.0490304
0.0488931
0.0487581
0.0485751
0.0483467
0.0481289
0.0479615
0.0477735
0.0475212
0.0472579
0.0470264
0.046769
0.0465298
0.0463237
0.046108
0.045837
0.045499
0.0451272
0.0448085
0.0445092
0.0442179
0.0439174
0.0435145
0.0430561
0.0426178
0.0422141
0.0418798
0.0414984
0.041157
0.0406337
0.0402373
0.0399356
0.0395409
0.03943
0.0391693
0.038406
0.0379873
0.0377191
0.0374081
0.038704
0.0391735
0.0377289
0.0377093
0.0372102
0.0369699
0.0364131
0.035481
0.0346126
0.0347003
0.0339413
0.0340566
0.0335353
0.0330271
0.0326231
0.032794
0.0327265
0.032783
0.0366858
0.0383731
0.0351619
0.0365723
0.0339074
0.031583
0.0296566
0.0297049
0.0296318
0.0284113
0.0273761
0.0270597
0.0275471
0.0277315
0.0282728
0.0289898
0.028959
0.0293543
0.0294824
0.0292802
0.0337413
0.0452507
0.0487714
0.059216
0.0538834
0.0601931
0.0583507
0.0785036
0.0845153
0.0655394
0.063781
0.0586436
0.0512518
0.0439493
0.038537
0.0351383
0.033075
0.0318244
0.030893
0.0302372
0.0299551
0.0297573
0.0296481
0.0296799
0.0295855
0.0295892
0.0297114
0.0298599
0.0297967
0.0297615
0.0299118
0.0300917
0.0302112
0.0302242
0.0302197
0.0302657
0.0302865
0.0303332
0.0303445
0.030437
0.03047
0.0303231
0.0301235
0.0299629
0.0298763
0.0298599
0.0298798
0.0299043
0.0299251
0.0299443
0.0299639
0.0300291
0.030034
0.0300505
0.0301709
0.0303316
0.0304452
0.030489
0.0304728
0.0304154
0.0303473
0.0302938
0.0302715
0.0302865
0.0303289
0.0303721
0.0303864
0.0303697
0.0303524
0.0303737
0.0304516
0.030553
0.0306184
0.0306218
0.0306008
0.0306145
0.0306579
0.0306822
0.0306452
0.030607
0.030569
0.0304632
0.030294
0.0301694
0.0301732
0.0309198
0.0312001
0.0344774
0.0326918
0.00275833
0.0134034
0.0473845
0.120416
0.220635
0.283349
0.2906
0.276635
0.272135
0.289893
0.32956
0.386895
0.461855
0.520726
0.557223
0.591292
0.653492
0.758528
0.903408
1.07542
1.24813
1.38576
1.45676
1.45971
1.40876
1.32493
1.2253
1.11488
0.99538
0.878518
0.7781
0.703799
0.652074
0.60603
0.55838
0.50615
0.453027
0.407067
0.379078
0.37057
0.371422
0.369113
0.358054
0.337498
0.319509
0.314395
0.318866
0.321798
0.31756
0.302683
0.278333
0.253527
0.235988
0.227369
0.227103
0.233444
0.243102
0.251982
0.257746
0.262787
0.274211
0.291618
0.304951
0.309006
0.300445
0.28119
0.2653
0.261924
0.272498
0.29306
0.318424
0.343127
0.362759
0.374026
0.383184
0.402239
0.438258
0.515334
0.636834
0.749405
0.870245
0.982574
1.07881
1.16698
1.23931
1.28748
1.26613
1.16032
0.980746
0.781969
0.608395
0.480416
0.385243
0.328178
0.30697
0.311083
0.327466
0.348003
0.372102
0.40551
0.423273
0.439606
0.459285
0.458797
0.445918
0.434047
0.410621
0.371384
0.3215
0.267217
0.216243
0.160493
0.117419
0.0834103
0.0641463
0.058737
0.0646328
0.0735989
0.0771726
0.0801565
0.0818685
0.0782959
0.077581
0.0767582
0.0662542
0.055368
0.0461259
0.0403455
0.0356628
0.0328909
0.03092
0.0300367
0.0296889
0.0298698
0.0303706
0.0309971
0.031503
0.0319573
0.0323784
0.0328163
0.0333055
0.0337352
0.0340216
0.0341304
0.0342114
0.0344541
0.0348243
0.0351638
0.0352947
0.0352517
0.0353163
0.0355734
0.0358689
0.0359796
0.0359826
0.0360691
0.0362291
0.0363403
0.0363189
0.0362351
0.0361785
0.0360814
0.035831
0.035527
0.0353271
0.0351279
0.0347042
0.0340291
0.033419
0.0329758
0.0324643
0.0317854
0.0309282
0.0300237
0.0291927
0.0284679
0.0278161
0.0270948
0.0262932
0.0254657
0.0245926
0.023694
0.022859
0.0220954
0.0214113
0.0207737
0.0200933
0.0193642
0.0186185
0.0179011
0.0172552
0.0166651
0.0161019
0.0155327
0.0149354
0.0143285
0.0137639
0.0132761
0.0128451
0.012425
0.0119792
0.0115059
0.0110512
0.0106435
0.0102722
0.00992012
0.00957285
0.00922764
0.00890174
0.00860726
0.00833138
0.00804462
0.00773646
0.00744068
0.00718449
0.00697089
0.00678568
0.00659909
0.00639383
0.00617423
0.00596697
0.0057933
0.00565384
0.00553654
0.00542196
0.0052985
0.00516725
0.00504154
0.00493407
0.00484821
0.00477574
0.0047031
0.00462445
0.0045457
0.00447748
0.00442468
0.00438556
0.00435446
0.00432581
0.00429881
0.00427514
0.00425444
0.0042348
0.00421719
0.00420694
0.004208
0.00421731
0.0042252
0.00422453
0.00421884
0.00421783
0.00422501
0.00423561
0.00424498
0.00425146
0.00425489
0.00425766
0.00426154
0.00426473
0.00426498
0.0042619
0.00425751
0.0042567
0.00426403
0.00427923
0.00429406
0.00429711
0.00428581
0.00427033
0.00426277
0.00426786
0.00428191
0.00429762
0.00430945
0.00431482
0.0043142
0.00431091
0.00430818
0.00430902
0.00431685
0.00433339
0.00435373
0.00436707
0.00436783
0.00436218
0.00436104
0.0043683
0.00438146
0.00439773
0.00441189
0.00441794
0.00441727
0.00441655
0.00441936
0.0044274
0.00443817
0.00444565
0.00444871
0.00444723
0.00443997
0.00443237
0.00442829
0.00442364
0.00441377
0.00439603
0.00437546
0.00435527
0.00433293
0.00430456
0.00427126
0.00423955
0.00421204
0.00418512
0.00415043
0.00410633
0.0040619
0.00402267
0.00398613
0.00395046
0.00391438
0.0038792
0.00384759
0.00381813
0.0037899
0.00376602
0.00374928
0.00373818
0.00372811
0.00371757
0.00371027
0.00371048
0.00371945
0.00373202
0.00374011
0.00374056
0.00373694
0.00373417
0.00373404
0.00373659
0.00373943
0.0037395
0.0037363
0.00373222
0.0037318
0.00373425
0.00373345
0.00372756
0.00372
0.0037156
0.00371624
0.00371906
0.00371933
0.00371669
0.00371661
0.00372105
0.00372647
0.0037319
0.00373764
0.00374335
0.00374887
0.00375522
0.00376306
0.0037713
0.00378029
0.00378997
0.00379914
0.00380666
0.00381228
0.00381691
0.00382222
0.00382766
0.00383043
0.00382796
0.00382213
0.00381712
0.00381326
0.00380973
0.00380441
0.00379822
0.00379155
0.00378179
0.00376655
0.00374844
0.00373195
0.00371786
0.00370312
0.00368738
0.00366683
0.00364369
0.00362174
0.00360182
0.00357893
0.00355247
0.00352727
0.00350381
0.00347612
0.00344876
0.00342371
0.00339853
0.00337215
0.00333835
0.00330139
0.00326784
0.00323483
0.00320054
0.00316874
0.00312928
0.00308695
0.00304326
0.00299743
0.0029588
0.00291459
0.00288191
0.00283575
0.00280909
0.00278437
0.00273351
0.00270537
0.0026836
0.0026668
0.00271126
0.00274781
0.00267403
0.00275493
0.00274816
0.00258006
0.00241036
0.00230954
0.00234412
0.00240275
0.00241446
0.00237098
0.00231298
0.00223989
0.00222476
0.00217803
0.00215559
0.00222682
0.00237001
0.00246125
0.00237079
0.0026113
0.00256152
0.00229851
0.0019712
0.00187154
0.00188904
0.00185319
0.00188784
0.00184422
0.00180167
0.00183947
0.00183005
0.00186718
0.00185649
0.00183434
0.00189051
0.00194092
0.00218025
0.0026555
0.00313189
0.00397879
0.0045987
0.00512874
0.00462873
0.00490385
0.00518076
0.00398159
0.00510503
0.00514445
0.00463821
0.00434939
0.0038446
0.00330005
0.00284872
0.00252729
0.00230261
0.00215924
0.00206448
0.00199269
0.00194015
0.00191145
0.00188989
0.00187445
0.00186785
0.0018577
0.00185286
0.00185427
0.00185803
0.00185334
0.00185088
0.00185765
0.00186702
0.00187355
0.00187579
0.00187707
0.00187966
0.00188082
0.00188395
0.00188631
0.0018909
0.00189189
0.00188514
0.00187531
0.00186763
0.00186371
0.00186238
0.00186285
0.00186403
0.00186532
0.00186685
0.00186939
0.00187452
0.00187661
0.00187888
0.00188592
0.00189489
0.00190141
0.00190437
0.00190443
0.00190257
0.0018999
0.00189766
0.0018969
0.00189837
0.00190174
0.00190553
0.00190813
0.00190917
0.00191016
0.00191351
0.00191985
0.00192659
0.00193056
0.0019312
0.00193114
0.00193341
0.00193673
0.00193813
0.00193612
0.00193447
0.0019347
0.00193188
0.00192428
0.00192221
0.0019336
0.00199634
0.00206933
0.00234422
0.00228108
0.00261186
0.0121375
0.0410601
0.0922089
0.139661
0.156284
0.152517
0.149676
0.157987
0.180985
0.217575
0.268095
0.323764
0.365499
0.395435
0.426141
0.475171
0.561844
0.687002
0.827685
0.950218
1.0271
1.06381
1.07936
1.07062
1.0272
0.945079
0.829401
0.703377
0.592064
0.507208
0.451559
0.415294
0.384465
0.349649
0.31069
0.273852
0.244806
0.226327
0.217975
0.215515
0.212832
0.20626
0.19505
0.185099
0.18055
0.181554
0.182375
0.180257
0.173227
0.162511
0.150622
0.139254
0.130132
0.124964
0.125187
0.129039
0.131745
0.132894
0.136403
0.14557
0.157392
0.166815
0.171075
0.168022
0.158484
0.146799
0.140373
0.141977
0.149394
0.160539
0.174895
0.191867
0.208808
0.223855
0.240789
0.264865
0.297694
0.353491
0.420211
0.513397
0.631889
0.737184
0.835416
0.89929
0.934887
0.94758
0.916082
0.856765
0.779474
0.684966
0.571962
0.458216
0.361769
0.291681
0.245672
0.218598
0.207351
0.205336
0.205044
0.202958
0.203252
0.210702
0.213052
0.215844
0.221799
0.221052
0.219064
0.217462
0.217658
0.205007
0.183078
0.154296
0.125902
0.0944603
0.0670845
0.0452227
0.031676
0.024369
0.0219841
0.0217859
0.0215491
0.0219739
0.0227834
0.0224633
0.0235443
0.0238913
0.0201733
0.0162946
0.0130845
0.0110868
0.00953485
0.00859873
0.00799853
0.00785416
0.00790798
0.00796459
0.00806095
0.00812336
0.00817403
0.0082605
0.00835536
0.00842175
0.00846516
0.00851626
0.00859395
0.00867922
0.00874078
0.00876236
0.00878117
0.00883692
0.00891618
0.00898249
0.00900169
0.00900424
0.00903394
0.00908694
0.00912909
0.00913768
0.00912126
0.00908435
0.00902976
0.00896238
0.00889431
0.00883059
0.00874714
0.00862342
0.00844768
0.00826901
0.00812342
0.0079722
0.00778944
0.00757124
0.0073306
0.00710231
0.00689862
0.00671508
0.00652393
0.00631572
0.00610179
0.00588584
0.00567234
0.00546968
0.0052798
0.00510763
0.00495007
0.00479448
0.00463726
0.00447709
0.00431813
0.00417163
0.0040396
0.00391874
0.00380471
0.00369115
0.00357521
0.00346316
0.00336269
0.00327508
0.00319533
0.00311452
0.00302897
0.00294498
0.00286906
0.00280171
0.00273938
0.00267797
0.00261634
0.00255655
0.0025013
0.00245094
0.00240232
0.00235147
0.00229962
0.00225126
0.00220832
0.00216998
0.00213466
0.00209957
0.00206203
0.0020227
0.00198529
0.0019529
0.00192616
0.00190273
0.00187862
0.00185153
0.00182267
0.00179496
0.00177084
0.00175069
0.00173282
0.00171527
0.00169716
0.00167927
0.00166253
0.00164697
0.0016324
0.00161984
0.00161008
0.00160176
0.00159318
0.00158345
0.00157323
0.00156435
0.00155803
0.00155433
0.00155235
0.00155019
0.00154626
0.00154111
0.00153668
0.00153415
0.00153353
0.00153384
0.00153365
0.00153224
0.00153031
0.00152927
0.00152965
0.00153018
0.00153005
0.00152985
0.00153022
0.00153192
0.00153486
0.00153721
0.00153816
0.00153882
0.00153984
0.00154132
0.00154335
0.00154639
0.00155058
0.00155494
0.00155851
0.00156119
0.00156317
0.00156521
0.00156841
0.00157299
0.00157859
0.00158415
0.00158835
0.00159086
0.00159296
0.00159625
0.00160082
0.00160592
0.00161092
0.00161501
0.00161796
0.00162033
0.00162296
0.00162606
0.0016291
0.00163192
0.00163438
0.00163603
0.00163641
0.00163627
0.00163615
0.00163538
0.00163373
0.00163126
0.00162822
0.00162472
0.00162046
0.00161489
0.00160844
0.0016018
0.00159509
0.00158786
0.00157939
0.00156969
0.00155963
0.00154982
0.00153997
0.00152976
0.00151918
0.00150845
0.00149769
0.00148706
0.00147664
0.00146666
0.00145716
0.00144787
0.00143858
0.00142941
0.00142085
0.00141318
0.00140617
0.00139935
0.00139245
0.00138556
0.00137878
0.00137234
0.00136624
0.00136046
0.00135509
0.00134992
0.00134475
0.00133973
0.00133507
0.0013307
0.00132639
0.00132216
0.00131824
0.00131485
0.001312
0.00130947
0.00130695
0.00130443
0.00130232
0.00130077
0.00129965
0.00129886
0.00129818
0.00129755
0.0012971
0.00129699
0.0012972
0.00129747
0.00129776
0.00129814
0.00129864
0.00129924
0.00129973
0.0013
0.00130027
0.00130071
0.00130108
0.00130098
0.00130046
0.00129991
0.00129951
0.00129916
0.00129851
0.00129764
0.0012967
0.00129567
0.00129436
0.00129274
0.00129108
0.00128954
0.0012878
0.00128575
0.00128332
0.00128104
0.00127877
0.00127631
0.00127352
0.00127061
0.00126801
0.00126548
0.00126253
0.00125924
0.00125603
0.00125278
0.00124984
0.00124647
0.00124282
0.00123903
0.00123509
0.00123097
0.00122791
0.00122388
0.00121973
0.00121505
0.0012096
0.00120509
0.00120171
0.00120132
0.00119967
0.00119631
0.00119929
0.00121575
0.00122993
0.00125862
0.00127977
0.00136532
0.00140461
0.00133263
0.00127622
0.00123522
0.00122143
0.00118627
0.00117462
0.00116102
0.00115518
0.00115795
0.00116545
0.00117525
0.00122161
0.00125265
0.00128116
0.00132013
0.00138343
0.00150077
0.00159334
0.00148272
0.00136571
0.00127228
0.00125355
0.00118999
0.00117606
0.00114057
0.00112579
0.00114326
0.0011402
0.0011604
0.0011444
0.00119252
0.00121788
0.00127954
0.00137805
0.00160725
0.00196994
0.00256466
0.00320226
0.00354841
0.0035066
0.00318945
0.00275239
0.00220061
0.00198841
0.00176777
0.00158099
0.00145303
0.00138771
0.00137493
0.00136231
0.0013487
0.00132837
0.00130142
0.00127304
0.0012476
0.00122621
0.00120837
0.00119312
0.00118017
0.00116971
0.00116077
0.00115332
0.00114743
0.00114197
0.00113736
0.00113387
0.00113118
0.00112848
0.00112616
0.00112483
0.0011239
0.00112275
0.00112151
0.00112041
0.00111981
0.00111947
0.00111942
0.00111928
0.00111926
0.00111903
0.00111831
0.00111742
0.00111677
0.00111653
0.00111645
0.00111651
0.00111659
0.00111654
0.00111638
0.00111638
0.0011167
0.00111667
0.00111659
0.00111697
0.00111754
0.00111787
0.00111793
0.00111785
0.00111775
0.00111769
0.00111768
0.0011177
0.00111776
0.00111785
0.00111798
0.00111812
0.00111818
0.00111818
0.00111834
0.00111876
0.00111923
0.0011194
0.0011192
0.00111907
0.00111945
0.00111993
0.00111987
0.00111952
0.00111949
0.00112057
0.00112106
0.00112117
0.00112412
0.00113225
0.00117058
0.00121783
0.00139271
0.00137555
0.00242364
0.0101655
0.03123
0.064186
0.0896801
0.0971936
0.09802
0.105931
0.126992
0.157784
0.193264
0.22874
0.257836
0.279841
0.300501
0.326203
0.365805
0.427649
0.510791
0.601033
0.675085
0.71909
0.739635
0.743091
0.727628
0.685564
0.613196
0.521189
0.429259
0.355333
0.304242
0.272681
0.252628
0.234166
0.211858
0.187541
0.166169
0.149626
0.138213
0.131089
0.126718
0.123644
0.120226
0.115786
0.11114
0.107622
0.106043
0.105326
0.104556
0.102915
0.0992019
0.0934446
0.0860794
0.0786022
0.0730203
0.0709976
0.0710335
0.0711877
0.0714115
0.0737002
0.0795598
0.0867829
0.0926695
0.096549
0.0975922
0.0953804
0.0908931
0.0866426
0.0851951
0.0872335
0.0921313
0.0997873
0.110327
0.121714
0.132128
0.142902
0.156853
0.175863
0.199029
0.223046
0.252511
0.299871
0.347345
0.413402
0.480421
0.526216
0.555603
0.563861
0.554255
0.527616
0.492894
0.447555
0.400093
0.352963
0.302586
0.252549
0.207011
0.172461
0.148332
0.131873
0.121855
0.115762
0.110597
0.105783
0.104728
0.108608
0.112011
0.113953
0.119262
0.127378
0.132129
0.135142
0.136399
0.129502
0.116908
0.100238
0.0834008
0.0642748
0.0466486
0.0312453
0.020669
0.014477
0.0116844
0.0106571
0.0103556
0.0106705
0.0114579
0.0119507
0.0133263
0.0138417
0.0116906
0.00937929
0.00741049
0.00612787
0.00519326
0.00462373
0.00428507
0.00403088
0.0038928
0.00378149
0.00371494
0.00367583
0.00365612
0.0036579
0.0036719
0.00368266
0.00369035
0.00369636
0.00370463
0.00372035
0.00374254
0.00376204
0.00377564
0.0037846
0.00379558
0.00380864
0.00382116
0.00383299
0.00384075
0.00384019
0.00382903
0.00381372
0.00379685
0.00377786
0.00375616
0.00372842
0.00369317
0.00364999
0.00360329
0.00355734
0.00351318
0.00346537
0.00341087
0.0033519
0.00329422
0.00323931
0.00318675
0.00313341
0.00307822
0.00302421
0.00297329
0.00292308
0.00287202
0.00282156
0.00277266
0.00272683
0.0026863
0.00264944
0.00261261
0.00257385
0.00253438
0.00249655
0.00246164
0.00243061
0.0024026
0.00237461
0.0023446
0.00231346
0.00228479
0.00225996
0.00223639
0.00221126
0.00218467
0.00215946
0.00213696
0.002115
0.00209147
0.00206633
0.00204145
0.0020191
0.00199975
0.00198102
0.00195946
0.00193452
0.0019092
0.00188592
0.00186555
0.00184775
0.00183
0.00180952
0.00178631
0.00176329
0.00174289
0.00172506
0.00170862
0.00169228
0.00167499
0.00165653
0.00163722
0.00161823
0.00160135
0.00158705
0.00157386
0.00156009
0.00154559
0.00153145
0.00151827
0.00150571
0.00149465
0.00148591
0.00147768
0.00146812
0.00145765
0.00144762
0.00143932
0.00143334
0.00142937
0.00142625
0.00142226
0.00141665
0.00141064
0.00140607
0.0014035
0.001402
0.0014007
0.00139914
0.001397
0.001395
0.00139444
0.00139547
0.00139637
0.0013959
0.00139483
0.001394
0.00139435
0.0013967
0.00139992
0.00140234
0.0014036
0.00140416
0.00140481
0.0014066
0.00141004
0.0014138
0.00141668
0.00141936
0.00142249
0.00142558
0.00142808
0.00143054
0.00143402
0.00143853
0.00144312
0.00144696
0.00144969
0.00145185
0.001455
0.00145962
0.00146403
0.00146731
0.00147022
0.00147277
0.00147532
0.00147868
0.00148194
0.00148411
0.00148583
0.00148747
0.00148893
0.00149025
0.00149103
0.00149095
0.00149024
0.00148925
0.0014882
0.00148663
0.00148408
0.00148109
0.00147762
0.00147349
0.0014689
0.00146385
0.00145838
0.00145239
0.00144584
0.00143893
0.00143164
0.00142388
0.00141576
0.0014075
0.00139916
0.00139051
0.00138155
0.00137248
0.00136335
0.00135431
0.0013454
0.00133644
0.00132739
0.00131854
0.00131001
0.00130174
0.00129359
0.00128558
0.00127795
0.00127069
0.00126374
0.00125705
0.00125064
0.00124453
0.00123867
0.0012331
0.00122784
0.00122284
0.00121811
0.00121367
0.00120951
0.00120563
0.00120204
0.00119878
0.00119586
0.0011931
0.00119049
0.00118813
0.00118606
0.00118428
0.00118274
0.00118136
0.00118014
0.0011791
0.00117825
0.0011776
0.00117705
0.00117656
0.00117614
0.00117579
0.00117551
0.00117529
0.00117509
0.00117489
0.00117474
0.00117465
0.00117453
0.00117431
0.00117402
0.00117374
0.00117342
0.00117306
0.00117267
0.00117222
0.0011717
0.00117119
0.00117063
0.00116993
0.00116916
0.00116839
0.00116756
0.00116658
0.00116565
0.00116459
0.00116359
0.00116244
0.00116131
0.00116009
0.00115894
0.00115765
0.00115651
0.0011551
0.00115369
0.00115204
0.00115047
0.00114883
0.00114791
0.00114648
0.00114495
0.00114315
0.00114088
0.00113944
0.0011441
0.00114451
0.00114289
0.00114054
0.00114406
0.00116007
0.0011753
0.00120629
0.00123204
0.00131873
0.00136307
0.00129828
0.00124683
0.00120747
0.001191
0.00115779
0.00114263
0.00112901
0.00112386
0.00112257
0.00112894
0.00114452
0.0011931
0.00123042
0.00129284
0.0013267
0.00148309
0.00157783
0.00153222
0.00142633
0.00129971
0.00124138
0.00123453
0.00117869
0.00116521
0.00113011
0.00111378
0.00112199
0.00112578
0.00113249
0.00113987
0.00118621
0.00126748
0.00138398
0.0015659
0.00194955
0.00224133
0.00289038
0.0034504
0.0036953
0.00358235
0.00328242
0.00285398
0.00227494
0.00203153
0.0017495
0.0015158
0.00136349
0.00127726
0.00125078
0.00124387
0.001247
0.0012477
0.00124498
0.00124023
0.00123242
0.00122265
0.00121158
0.00119981
0.00118832
0.00117715
0.0011671
0.0011585
0.00115104
0.00114417
0.00113795
0.00113233
0.00112718
0.00112291
0.00111952
0.00111666
0.00111399
0.00111158
0.00110958
0.00110789
0.00110643
0.00110528
0.00110433
0.00110347
0.00110263
0.00110201
0.00110166
0.00110132
0.00110088
0.00110033
0.00109976
0.00109927
0.00109894
0.00109875
0.00109868
0.00109865
0.00109857
0.0010984
0.00109826
0.00109819
0.00109808
0.00109797
0.00109799
0.00109808
0.00109811
0.00109806
0.00109797
0.0010979
0.00109791
0.00109797
0.00109799
0.00109793
0.0010978
0.00109771
0.00109769
0.00109769
0.00109766
0.00109767
0.00109776
0.00109783
0.00109768
0.00109754
0.00109773
0.00109811
0.0010981
0.00109755
0.00109756
0.00109782
0.00109838
0.00109863
0.00109943
0.00110292
0.00111063
0.00114833
0.00119478
0.00136728
0.00135124
0.00211342
0.00779489
0.0225015
0.0438258
0.0596214
0.0650528
0.0682762
0.0775753
0.0929093
0.110837
0.129485
0.148785
0.168762
0.188235
0.207054
0.228236
0.25651
0.296577
0.347765
0.399947
0.439774
0.462137
0.466312
0.455852
0.433733
0.397653
0.348898
0.293395
0.241717
0.202371
0.176597
0.161129
0.150457
0.139903
0.127488
0.114554
0.103626
0.0951312
0.0884815
0.0831358
0.0791475
0.0766022
0.0751238
0.0739956
0.0720132
0.068961
0.0662497
0.0650158
0.0650426
0.0660798
0.0660094
0.0631323
0.0578412
0.0517689
0.0470421
0.0445707
0.0436917
0.0433271
0.0433425
0.0446804
0.0479901
0.0521942
0.0556702
0.0584878
0.0607088
0.0618416
0.0611782
0.0588259
0.0566545
0.056483
0.0586494
0.0630006
0.0690709
0.0759795
0.0821482
0.0868924
0.0921793
0.100092
0.111244
0.123199
0.134851
0.147708
0.159832
0.176787
0.199984
0.219523
0.233478
0.248442
0.271834
0.287543
0.298682
0.296758
0.28435
0.268654
0.248616
0.226534
0.203646
0.177352
0.15127
0.126231
0.106772
0.0915289
0.0799601
0.0722989
0.0677305
0.0645695
0.063119
0.0637503
0.0664812
0.0729299
0.0783146
0.0840723
0.0897129
0.0930689
0.0953943
0.0962736
0.0914966
0.0828611
0.071357
0.0596933
0.046918
0.0350685
0.0242068
0.0164599
0.0118401
0.00964201
0.00878841
0.00869836
0.00914399
0.0100815
0.0108633
0.0125345
0.013187
0.0113845
0.0090989
0.00731846
0.00597566
0.00505578
0.00426954
0.00373698
0.00339483
0.00318762
0.003039
0.00295074
0.00290023
0.00286708
0.00284433
0.00283368
0.00283212
0.00283759
0.00284316
0.00284696
0.00285056
0.00286042
0.00287298
0.00288301
0.00288563
0.00288642
0.00288942
0.00289234
0.00289407
0.00289352
0.00288801
0.00287644
0.00286373
0.00285213
0.00284132
0.00283106
0.00281768
0.00279823
0.00277753
0.0027582
0.00274133
0.00272495
0.00270591
0.00268407
0.00265974
0.00263562
0.002614
0.00259529
0.00257712
0.00255649
0.00253384
0.00251011
0.00248507
0.00246048
0.00243982
0.00242287