/*--------------------------------*- C++ -*----------------------------------*\
| =========                 |                                                 |
| \\      /  F ield         | OpenFOAM: The Open Source CFD Toolbox           |
|  \\    /   O peration     | Version:  v2006                                 |
|   \\  /    A nd           | Website:  www.openfoam.com                      |
|    \\/     M anipulation  |                                                 |
\*---------------------------------------------------------------------------*/
FoamFile
{
    version     2.0;
    format      ascii;
    class       volScalarField;
    location    "7.1";
    object      p;
}
// * * * * * * * * * * * * * * * * * * * * * * * * * * * * * * * * * * * * * //

dimensions      [1 -1 -2 0 0 0 0];


internalField   nonuniform List<scalar> 
33000
(
8319.54
8320.26
8320.86
8321.3
8321.66
8322
8322.4
8322.76
8322.67
8321.85
8320.22
8318.36
8316.91
8315.97
8315.28
8314.52
8313.65
8312.62
8311.41
8310.09
8308.66
8307.2
8305.87
8304.65
8303.56
8303.1
8302.71
8301.78
8300.36
8298.77
8297.08
8295.33
8293.54
8291.68
8289.8
8287.88
8285.95
8283.96
8281.94
8279.88
8277.82
8275.75
8273.63
8271.45
8269.31
8267.13
8264.93
8262.68
8260.44
8258.16
8255.91
8253.62
8251.3
8248.97
8246.61
8244.24
8241.85
8239.47
8237.11
8234.73
8232.36
8229.97
8227.62
8225.29
8222.94
8220.63
8218.33
8216.05
8213.81
8211.61
8209.51
8207.53
8205.72
8204.08
8202.68
8201.61
8201.22
8200.45
8192.79
8178.81
8185.2
8180.93
8176.23
8173.63
8170.11
8164.78
8162.34
8158.75
8155.39
8151.54
8148.28
8144.51
8140.98
8137.76
8134.77
8131.55
8129.86
8126.66
8128.23
8123.43
8112.63
8107.6
8101.11
8094.77
8088.97
8081.87
8074.27
8066.51
8058.83
8051.3
8043.15
8035.15
8026.77
8018.19
8009.97
8000.9
7994.87
7984.31
7968.61
7957.39
7944.28
7930.68
7917.32
7902.85
7887.32
7871.83
7855.81
7839.43
7822.86
7805.84
7788.48
7770.88
7753.06
7735.11
7716.99
7698.77
7680.47
7662.08
7643.68
7625.28
7606.9
7588.61
7570.45
7552.45
7534.66
7517.1
7499.81
7482.83
7466.19
7449.97
7434.16
7418.78
7403.87
7389.46
7375.57
7362.22
7349.43
7337.2
7325.54
7314.46
7303.96
7294.04
7284.7
7275.92
7267.69
7259.99
7252.82
7246.15
7239.93
7234.14
7228.76
7223.75
7219.08
7214.7
7210.59
7206.7
7202.99
7199.48
7196.18
7193.13
7190.35
7187.86
7185.68
7183.83
7182.31
7181.15
7180.35
7179.92
7179.86
7180.17
7180.84
7181.89
7183.32
7185.11
7187.26
7189.76
7192.61
7195.79
7199.3
7203.14
7207.3
7211.76
7216.51
7221.54
7226.83
7232.37
7238.17
7244.2
7250.44
7256.89
7263.54
7270.38
7277.4
7284.56
7291.88
7299.32
7306.89
7314.57
7322.36
7330.25
7338.21
7346.24
7354.32
7362.45
7370.62
7378.83
7387.06
7395.3
7403.54
7411.77
7419.99
7428.19
7436.37
7444.52
7452.64
7460.7
7468.71
7476.67
7484.57
7492.41
7500.18
7507.88
7515.51
7523.07
7530.54
7537.94
7545.24
7552.47
7559.61
7566.67
7573.64
7580.53
7587.32
7594.02
7600.63
7607.16
7613.59
7619.94
7626.19
7632.36
7638.43
7644.41
7650.31
7656.11
7661.82
7667.43
7672.96
7678.39
7683.74
7688.99
7694.15
7699.21
7704.18
7709.04
7713.82
7718.5
7723.08
7727.56
7731.95
7736.23
7740.42
7744.5
7748.47
7752.35
7756.13
7759.81
7763.38
7766.84
7770.21
7773.47
7776.63
7779.68
7782.64
7785.5
7788.26
7790.91
7793.48
7795.94
7798.32
7800.6
7802.8
7804.91
7806.93
7808.88
7810.74
7812.54
7814.26
7815.92
7817.51
7819.05
7820.53
7821.97
7823.36
7824.71
7826.03
7827.31
7828.57
7829.82
7831.04
7832.26
7833.47
7834.67
7835.88
7837.09
7838.31
7839.54
7840.78
7842.03
7843.28
7844.54
7845.8
7847.06
7848.32
7849.59
7850.85
7852.12
7853.38
7854.64
7855.9
7857.16
7858.41
7859.66
7860.9
7862.13
7863.36
7864.58
7865.79
7866.98
7868.17
7869.34
7870.49
7871.63
7872.75
7873.85
7874.93
7875.99
7877.02
7878.02
7879
7879.94
7880.86
7881.74
7882.59
7883.4
7884.17
7884.9
7885.6
7886.24
7886.85
7887.41
7887.92
7888.39
7888.81
7889.18
7889.5
7889.77
7889.98
7890.15
7890.27
7890.34
7890.35
7890.31
7890.23
7890.09
7889.9
7889.67
7889.38
7889.05
7888.66
7888.24
7887.77
7887.25
7886.69
7886.09
7885.45
7884.77
7884.06
7883.3
7882.52
7881.7
7880.85
7879.97
7879.06
7878.13
7877.16
7876.18
7875.17
7874.14
7873.09
7872.02
7870.93
7869.82
7868.69
7867.55
7866.4
7865.22
7864.04
7862.84
7861.63
7860.42
7859.19
7857.94
7856.71
7855.44
7854.19
7852.96
7851.7
7850.42
7849.21
7847.79
7846.59
7845.55
7844.32
7843.14
7841.88
7840.62
7839.33
7838.02
7836.71
7835.36
7834.03
7832.66
7831.31
7829.95
7828.59
7827.21
7825.87
7824.43
7823.09
7821.81
7820.45
7819.12
7817.75
7816.4
7815.02
7813.67
7812.3
7810.96
7809.6
7808.28
7806.93
7805.67
7804.31
7803.08
7801.9
7800.69
7799.5
7798.5
7796.87
7796.1
7795.42
7794.62
7793.77
7792.89
7792
7791.09
7790.18
7789.27
7788.37
7787.46
7786.57
7785.68
7784.8
7783.93
7783.08
7782.24
7781.42
7780.61
7779.81
7779.04
7778.28
7777.54
7776.81
7776.11
7775.43
7774.76
7774.12
7773.49
7772.89
7772.31
7771.75
7771.21
7770.7
7770.2
7769.73
7769.28
7768.85
7768.45
7768.06
7767.7
7767.36
7767.05
7766.76
7766.49
7766.24
7766.02
7765.82
7765.64
7765.48
7765.35
7765.24
7765.15
7765.08
7765.03
7765.01
7765.01
7765.03
7765.08
7765.14
7765.23
7765.34
7765.46
7765.62
7765.79
7765.98
7766.2
7766.43
7766.69
7766.97
7767.26
7767.58
7767.92
7768.26
7768.71
7768.99
7769.59
7769.81
7770.51
7770.74
7771.56
8123.44
8124.14
8124.72
8125.12
8125.4
8125.57
8125.74
8125.35
8124.9
8123.97
8122.48
8120.78
8119.8
8119.39
8119.03
8118.41
8117.61
8116.64
8115.33
8113.76
8112.06
8110.3
8108.65
8107.58
8106.84
8106.33
8106.04
8105.44
8104.19
8102.66
8100.97
8099.23
8097.45
8095.62
8093.75
8091.83
8089.88
8087.9
8085.87
8083.81
8081.77
8079.66
8077.49
8075.34
8073.21
8071.01
8068.84
8066.6
8064.31
8062.01
8059.77
8057.47
8055.15
8052.81
8050.45
8048.09
8045.72
8043.34
8040.99
8038.62
8036.2
8033.79
8031.43
8029.07
8026.66
8024.36
8022.04
8019.74
8017.48
8015.22
8013.02
8010.86
8008.73
8006.74
8004.79
8002.77
8000.8
7998.68
7996.43
7995.73
7995.18
7986.36
7970.42
7978.31
7973.67
7970.14
7967.13
7963.74
7959.78
7953.99
7952.01
7947.8
7944.43
7940.91
7937.46
7933.94
7930.78
7927.62
7924.42
7921.08
7916.8
7917.49
7911.01
7897.74
7891.14
7883.22
7877.41
7870.14
7864.38
7856.75
7847.85
7839.29
7830.38
7821.55
7812.79
7803.62
7794.24
7784.34
7773.03
7765.53
7752.88
7734.48
7720.85
7705.99
7691.16
7676.6
7660.84
7644.01
7627.15
7609.94
7592.57
7575.08
7557.29
7539.27
7521.06
7502.74
7484.39
7465.97
7447.57
7429.14
7410.74
7392.41
7374.21
7356.16
7338.32
7320.71
7303.37
7286.35
7269.69
7253.42
7237.56
7222.15
7207.21
7192.77
7178.87
7165.5
7152.68
7140.43
7128.77
7117.68
7107.18
7097.26
7087.92
7079.15
7070.92
7063.23
7056.06
7049.39
7043.18
7037.4
7032.03
7027.02
7022.35
7017.97
7013.85
7009.96
7006.26
7002.75
6999.44
6996.38
6993.59
6991.1
6988.91
6987.05
6985.53
6984.36
6983.57
6983.14
6983.08
6983.4
6984.08
6985.14
6986.56
6988.36
6990.52
6993.04
6995.9
6999.1
7002.63
7006.49
7010.66
7015.13
7019.89
7024.93
7030.24
7035.81
7041.62
7047.66
7053.93
7060.4
7067.06
7073.92
7080.95
7088.13
7095.46
7102.92
7110.51
7118.21
7126.02
7133.92
7141.89
7149.93
7158.03
7166.18
7174.36
7182.58
7190.82
7199.07
7207.32
7215.57
7223.8
7232.01
7240.2
7248.36
7256.48
7264.55
7272.57
7280.54
7288.44
7296.29
7304.07
7311.78
7319.41
7326.97
7334.44
7341.84
7349.15
7356.38
7363.53
7370.59
7377.56
7384.44
7391.24
7397.94
7404.56
7411.08
7417.51
7423.86
7430.11
7436.27
7442.35
7448.34
7454.23
7460.03
7465.74
7471.35
7476.88
7482.31
7487.66
7492.91
7498.06
7503.13
7508.09
7512.96
7517.74
7522.41
7526.99
7531.48
7535.86
7540.14
7544.33
7548.41
7552.39
7556.26
7560.04
7563.71
7567.28
7570.74
7574.11
7577.37
7580.52
7583.58
7586.53
7589.38
7592.14
7594.79
7597.35
7599.81
7602.18
7604.46
7606.65
7608.76
7610.78
7612.72
7614.58
7616.37
7618.09
7619.74
7621.33
7622.86
7624.34
7625.77
7627.16
7628.51
7629.82
7631.1
7632.36
7633.6
7634.82
7636.04
7637.24
7638.45
7639.65
7640.87
7642.09
7643.31
7644.55
7645.8
7647.05
7648.31
7649.57
7650.83
7652.09
7653.36
7654.63
7655.89
7657.16
7658.42
7659.68
7660.94
7662.19
7663.44
7664.69
7665.92
7667.15
7668.37
7669.58
7670.78
7671.97
7673.14
7674.3
7675.45
7676.57
7677.67
7678.76
7679.82
7680.85
7681.86
7682.84
7683.8
7684.72
7685.6
7686.45
7687.27
7688.05
7688.78
7689.48
7690.13
7690.74
7691.3
7691.82
7692.29
7692.71
7693.08
7693.4
7693.67
7693.89
7694.06
7694.18
7694.25
7694.26
7694.23
7694.14
7694
7693.82
7693.58
7693.29
7692.96
7692.57
7692.15
7691.67
7691.16
7690.6
7689.99
7689.35
7688.67
7687.95
7687.2
7686.41
7685.59
7684.74
7683.85
7682.94
7682
7681.04
7680.05
7679.04
7678.01
7676.96
7675.89
7674.79
7673.69
7672.55
7671.42
7670.25
7669.08
7667.89
7666.7
7665.48
7664.26
7663.01
7661.78
7660.57
7659.33
7658.04
7656.8
7655.36
7654.1
7653.12
7651.86
7650.71
7649.5
7648.28
7647.04
7645.77
7644.5
7643.19
7641.88
7640.53
7639.2
7637.86
7636.52
7635.13
7633.78
7632.32
7630.97
7629.69
7628.34
7626.98
7625.66
7624.27
7622.94
7621.55
7620.2
7618.83
7617.46
7616.13
7614.71
7613.42
7611.96
7610.72
7609.41
7608.21
7606.84
7605.72
7603.86
7602.94
7602.2
7601.29
7600.37
7599.47
7598.57
7597.67
7596.75
7595.83
7594.91
7593.99
7593.07
7592.15
7591.24
7590.34
7589.45
7588.57
7587.7
7586.85
7586
7585.18
7584.37
7583.57
7582.79
7582.03
7581.29
7580.57
7579.86
7579.18
7578.51
7577.87
7577.24
7576.64
7576.06
7575.5
7574.96
7574.44
7573.95
7573.47
7573.02
7572.59
7572.19
7571.81
7571.45
7571.11
7570.79
7570.5
7570.23
7569.98
7569.76
7569.56
7569.38
7569.22
7569.09
7568.98
7568.89
7568.82
7568.78
7568.76
7568.76
7568.78
7568.82
7568.89
7568.97
7569.08
7569.21
7569.36
7569.54
7569.73
7569.94
7570.18
7570.44
7570.71
7571.01
7571.33
7571.67
7572.01
7572.46
7572.74
7573.34
7573.56
7574.26
7574.49
7575.32
7927.55
7928.2
7928.76
7929.16
7929.49
7929.38
7928.99
7927.85
7926.02
7923.92
7922.13
7921.37
7921.88
7922.37
7922.57
7922.39
7921.81
7920.86
7919.6
7918.07
7916.35
7914.68
7913.21
7911.81
7910.77
7910.05
7909.51
7908.74
7907.59
7906.18
7904.6
7902.94
7901.25
7899.5
7897.65
7895.73
7893.81
7891.85
7889.82
7887.76
7885.7
7883.61
7881.49
7879.34
7877.17
7874.95
7872.75
7870.53
7868.23
7865.96
7863.68
7861.38
7859.05
7856.71
7854.35
7851.98
7849.59
7847.27
7844.9
7842.48
7840.07
7837.65
7835.25
7832.83
7830.42
7828.07
7825.73
7823.4
7821.08
7818.79
7816.5
7814.25
7812.07
7809.9
7807.7
7805.48
7803.1
7800.51
7797.51
7794.13
7791.25
7788.89
7788.65
7788.76
7779.84
7761.68
7768.56
7766.72
7763.42
7759.41
7756.26
7752.38
7746.4
7744.35
7740.21
7736.69
7733.28
7729.53
7725.72
7721.67
7716.59
7712.14
7707.59
7703.12
7703.72
7696.14
7681.38
7673.07
7665.01
7658.23
7650.52
7644.05
7635.6
7626.16
7616.59
7606.74
7597.05
7586.67
7575.36
7563.58
7551.89
7539.13
7530.57
7516.28
7495.76
7480.54
7464.15
7448.01
7432.27
7415.37
7397.41
7379.65
7361.5
7343.52
7325.35
7307.19
7288.83
7270.29
7251.73
7233.17
7214.67
7196.26
7177.95
7159.8
7141.84
7124.12
7106.68
7089.58
7072.84
7056.49
7040.54
7025.05
7010.05
6995.56
6981.61
6968.2
6955.34
6943.05
6931.36
6920.26
6909.75
6899.83
6890.49
6881.72
6873.5
6865.83
6858.66
6852
6845.8
6840.02
6834.64
6829.62
6824.93
6820.54
6816.41
6812.51
6808.81
6805.31
6802.02
6798.97
6796.18
6793.68
6791.49
6789.63
6788.11
6786.95
6786.16
6785.73
6785.68
6786.01
6786.72
6787.79
6789.24
6791.05
6793.23
6795.78
6798.67
6801.9
6805.46
6809.34
6813.54
6818.05
6822.84
6827.92
6833.27
6838.87
6844.71
6850.79
6857.08
6863.59
6870.3
6877.19
6884.25
6891.46
6898.82
6906.32
6913.94
6921.68
6929.51
6937.44
6945.44
6953.51
6961.64
6969.82
6978.03
6986.27
6994.53
7002.8
7011.08
7019.35
7027.61
7035.84
7044.05
7052.23
7060.36
7068.45
7076.48
7084.46
7092.38
7100.24
7108.04
7115.76
7123.4
7130.96
7138.44
7145.85
7153.17
7160.41
7167.56
7174.62
7181.59
7188.48
7195.27
7201.98
7208.6
7215.12
7221.56
7227.9
7234.15
7240.31
7246.39
7252.37
7258.26
7264.06
7269.77
7275.39
7280.91
7286.35
7291.69
7296.94
7302.09
7307.15
7312.12
7316.99
7321.77
7326.44
7331.02
7335.5
7339.88
7344.17
7348.35
7352.43
7356.41
7360.28
7364.05
7367.72
7371.28
7374.74
7378.1
7381.36
7384.51
7387.56
7390.51
7393.35
7396.1
7398.75
7401.3
7403.75
7406.11
7408.38
7410.56
7412.66
7414.67
7416.6
7418.45
7420.23
7421.94
7423.59
7425.17
7426.69
7428.16
7429.59
7430.96
7432.31
7433.61
7434.89
7436.14
7437.38
7438.6
7439.81
7441.01
7442.21
7443.41
7444.62
7445.84
7447.07
7448.3
7449.54
7450.79
7452.05
7453.31
7454.57
7455.84
7457.1
7458.37
7459.64
7460.9
7462.17
7463.43
7464.7
7465.95
7467.21
7468.46
7469.7
7470.93
7472.16
7473.38
7474.58
7475.78
7476.96
7478.13
7479.28
7480.41
7481.52
7482.61
7483.68
7484.73
7485.75
7486.74
7487.7
7488.63
7489.52
7490.38
7491.21
7491.99
7492.74
7493.44
7494.1
7494.72
7495.29
7495.81
7496.28
7496.71
7497.09
7497.41
7497.69
7497.91
7498.09
7498.21
7498.28
7498.29
7498.26
7498.17
7498.03
7497.84
7497.6
7497.31
7496.98
7496.59
7496.16
7495.69
7495.17
7494.6
7494
7493.35
7492.67
7491.94
7491.19
7490.39
7489.57
7488.71
7487.82
7486.91
7485.97
7485
7484.01
7483
7481.96
7480.9
7479.82
7478.73
7477.6
7476.48
7475.33
7474.17
7472.97
7471.79
7470.56
7469.36
7468.17
7466.96
7465.67
7464.45
7462.99
7461.77
7460.79
7459.57
7458.42
7457.19
7455.96
7454.71
7453.5
7452.23
7450.98
7449.68
7448.39
7447.11
7445.78
7444.48
7443.09
7441.77
7440.27
7438.94
7437.66
7436.34
7434.97
7433.64
7432.24
7430.9
7429.51
7428.15
7426.79
7425.39
7424.05
7422.6
7421.28
7419.76
7418.49
7417.11
7415.87
7414.41
7413.23
7411.23
7410.25
7409.44
7408.46
7407.43
7406.42
7405.39
7404.4
7403.45
7402.5
7401.55
7400.61
7399.67
7398.72
7397.79
7396.85
7395.93
7395.01
7394.1
7393.2
7392.31
7391.44
7390.58
7389.73
7388.9
7388.08
7387.29
7386.5
7385.74
7385
7384.27
7383.56
7382.88
7382.21
7381.56
7380.94
7380.33
7379.75
7379.19
7378.65
7378.13
7377.63
7377.16
7376.71
7376.28
7375.88
7375.49
7375.13
7374.79
7374.48
7374.19
7373.92
7373.67
7373.45
7373.25
7373.07
7372.91
7372.78
7372.67
7372.58
7372.51
7372.47
7372.45
7372.45
7372.47
7372.51
7372.58
7372.67
7372.78
7372.91
7373.06
7373.23
7373.42
7373.64
7373.88
7374.13
7374.41
7374.71
7375.03
7375.37
7375.71
7376.16
7376.43
7377.03
7377.26
7377.96
7378.19
7379.01
7731.83
7732.47
7733.02
7733.37
7733.55
7733.74
7732.81
7731.31
7729.19
7726.09
7723.4
7723.11
7724.11
7725.47
7726.2
7726.32
7725.98
7725.16
7723.97
7722.58
7721.04
7719.5
7718.17
7716.96
7715.89
7714.91
7713.98
7712.97
7711.77
7710.27
7708.64
7707
7705.31
7703.55
7701.68
7699.8
7697.88
7695.91
7693.9
7691.82
7689.73
7687.67
7685.54
7683.4
7681.21
7678.97
7676.73
7674.51
7672.23
7669.95
7667.64
7665.33
7663
7660.65
7658.28
7655.9
7653.56
7651.19
7648.78
7646.36
7643.98
7641.52
7639.06
7636.61
7634.22
7631.78
7629.4
7627.01
7624.62
7622.26
7619.86
7617.47
7615.07
7612.63
7610.2
7607.72
7605.13
7602.52
7599.75
7596.87
7594.04
7590.88
7587.24
7583.62
7580.18
7578.89
7579.73
7578.8
7569.26
7549.91
7559.96
7554.34
7551.47
7547.58
7543.8
7537.32
7534.91
7530.47
7526.44
7522.21
7517.47
7512.68
7507.9
7500.82
7495.92
7489.02
7485.1
7479.4
7480.38
7472.65
7455.81
7446.98
7437.29
7428.81
7421.06
7411.45
7400.61
7389.61
7378.06
7366.79
7354.67
7341.63
7328.08
7314.89
7300.6
7291.11
7275.37
7253.06
7236.47
7218.89
7201.63
7185.01
7167.14
7148.44
7129.87
7111.18
7092.79
7074.21
7055.8
7037.2
7018.58
7000
6981.55
6963.26
6945.17
6927.31
6909.74
6892.5
6875.63
6859.15
6843.09
6827.5
6812.41
6797.83
6783.8
6770.32
6757.41
6745.08
6733.35
6722.22
6711.69
6701.76
6692.41
6683.62
6675.4
6667.72
6660.55
6653.87
6647.65
6641.86
6636.46
6631.42
6626.7
6622.29
6618.14
6614.23
6610.54
6607.06
6603.8
6600.78
6598.02
6595.53
6593.36
6591.51
6590.01
6588.86
6588.08
6587.67
6587.64
6587.99
6588.72
6589.84
6591.32
6593.17
6595.38
6597.96
6600.89
6604.17
6607.78
6611.71
6615.96
6620.51
6625.36
6630.49
6635.89
6641.54
6647.44
6653.57
6659.92
6666.48
6673.24
6680.18
6687.29
6694.55
6701.96
6709.51
6717.18
6724.97
6732.85
6740.82
6748.86
6756.98
6765.15
6773.38
6781.63
6789.91
6798.2
6806.51
6814.81
6823.12
6831.41
6839.68
6847.92
6856.12
6864.28
6872.39
6880.45
6888.46
6896.4
6904.28
6912.09
6919.82
6927.47
6935.05
6942.55
6949.96
6957.3
6964.54
6971.7
6978.76
6985.74
6992.63
6999.43
7006.14
7012.75
7019.28
7025.71
7032.05
7038.31
7044.47
7050.54
7056.52
7062.41
7068.21
7073.92
7079.54
7085.06
7090.49
7095.83
7101.08
7106.23
7111.29
7116.26
7121.13
7125.91
7130.59
7135.16
7139.64
7144.02
7148.3
7152.48
7156.56
7160.53
7164.4
7168.17
7171.83
7175.39
7178.85
7182.2
7185.45
7188.59
7191.63
7194.57
7197.41
7200.14
7202.78
7205.32
7207.77
7210.11
7212.37
7214.54
7216.62
7218.62
7220.53
7222.37
7224.14
7225.84
7227.47
7229.03
7230.55
7232.01
7233.42
7234.79
7236.12
7237.41
7238.68
7239.93
7241.16
7242.37
7243.57
7244.77
7245.97
7247.17
7248.37
7249.58
7250.8
7252.03
7253.27
7254.51
7255.77
7257.02
7258.29
7259.55
7260.82
7262.09
7263.36
7264.63
7265.9
7267.17
7268.43
7269.7
7270.96
7272.21
7273.46
7274.7
7275.94
7277.17
7278.38
7279.59
7280.78
7281.96
7283.12
7284.27
7285.39
7286.5
7287.58
7288.64
7289.68
7290.68
7291.65
7292.6
7293.51
7294.38
7295.22
7296.01
7296.77
7297.49
7298.16
7298.79
7299.37
7299.9
7300.38
7300.82
7301.2
7301.54
7301.82
7302.05
7302.22
7302.35
7302.42
7302.43
7302.4
7302.31
7302.17
7301.98
7301.74
7301.45
7301.11
7300.72
7300.28
7299.8
7299.27
7298.71
7298.09
7297.44
7296.75
7296.02
7295.25
7294.46
7293.62
7292.76
7291.86
7290.95
7289.99
7289.02
7288.02
7287
7285.96
7284.9
7283.83
7282.72
7281.62
7280.45
7279.31
7278.11
7276.94
7275.78
7274.59
7273.32
7272.11
7270.66
7269.45
7268.52
7267.3
7266.18
7264.94
7263.74
7262.49
7261.3
7260.03
7258.81
7257.53
7256.27
7255.02
7253.72
7252.43
7251.07
7249.75
7248.25
7246.93
7245.69
7244.37
7243.02
7241.69
7240.27
7238.94
7237.5
7236.18
7234.74
7233.41
7231.93
7230.6
7229.09
7227.78
7226.43
7225.07
7223.77
7222.26
7221
7218.87
7217.84
7216.98
7215.92
7214.81
7213.7
7212.58
7211.5
7210.46
7209.44
7208.42
7207.42
7206.43
7205.44
7204.47
7203.5
7202.53
7201.58
7200.63
7199.68
7198.75
7197.83
7196.92
7196.03
7195.14
7194.28
7193.42
7192.58
7191.76
7190.96
7190.17
7189.41
7188.66
7187.93
7187.22
7186.53
7185.86
7185.21
7184.58
7183.97
7183.39
7182.83
7182.28
7181.77
7181.27
7180.79
7180.34
7179.91
7179.51
7179.12
7178.76
7178.42
7178.11
7177.82
7177.55
7177.3
7177.08
7176.88
7176.7
7176.55
7176.41
7176.3
7176.21
7176.15
7176.11
7176.08
7176.09
7176.11
7176.15
7176.22
7176.31
7176.42
7176.55
7176.7
7176.87
7177.07
7177.28
7177.52
7177.78
7178.06
7178.36
7178.68
7179.02
7179.36
7179.81
7180.08
7180.68
7180.91
7181.61
7181.84
7182.66
7536.33
7536.91
7537.35
7537.56
7537.64
7537.89
7537.23
7535.75
7534.12
7532.42
7531.14
7530.67
7530.63
7530.85
7530.92
7530.84
7530.39
7529.5
7528.44
7527.22
7525.91
7524.54
7523.23
7521.98
7520.79
7519.64
7518.47
7517.26
7515.89
7514.37
7512.77
7511.12
7509.4
7507.65
7505.84
7503.95
7501.99
7500.01
7497.99
7495.93
7493.83
7491.74
7489.61
7487.46
7485.26
7483.02
7480.74
7478.53
7476.24
7473.94
7471.64
7469.31
7466.96
7464.6
7462.23
7459.85
7457.49
7455.08
7452.64
7450.21
7447.76
7445.33
7442.86
7440.4
7437.97
7435.48
7433.05
7430.6
7428.13
7425.67
7423.22
7420.76
7418.23
7415.7
7413.2
7410.68
7407.99
7405.21
7402.4
7399.48
7396.49
7393.44
7390.3
7387.22
7384
7380.82
7377.62
7374.35
7371.72
7371.7
7372.4
7361.7
7339.51
7351.13
7345.8
7341.92
7337.85
7333.67
7326.44
7323.67
7318.39
7313.48
7308.45
7303.03
7297.6
7292.23
7284.32
7278.95
7271.81
7266.97
7260.46
7261.5
7252.19
7233.46
7223.39
7212.59
7202.97
7193.92
7182.66
7170.07
7157.25
7144.13
7131.32
7117.72
7103.11
7088.1
7073.5
7057.85
7047.45
7030.44
7006.57
6989.13
6970.28
6952.64
6934.51
6917.11
6898.71
6879.31
6860.33
6841.35
6822.52
6803.89
6785.25
6766.69
6748.34
6730.27
6712.51
6695.1
6678.05
6661.39
6645.16
6629.43
6614.2
6599.5
6585.35
6571.77
6558.79
6546.39
6534.6
6523.42
6512.85
6502.88
6493.5
6484.7
6476.45
6468.74
6461.55
6454.84
6448.58
6442.76
6437.32
6432.24
6427.5
6423.06
6418.9
6414.99
6411.31
6407.87
6404.66
6401.69
6398.97
6396.53
6394.4
6392.59
6391.13
6390.03
6389.28
6388.91
6388.91
6389.3
6390.07
6391.23
6392.77
6394.67
6396.95
6399.58
6402.56
6405.91
6409.58
6413.58
6417.9
6422.52
6427.44
6432.64
6438.1
6443.82
6449.79
6455.99
6462.42
6469.06
6475.89
6482.89
6490.07
6497.4
6504.88
6512.5
6520.24
6528.08
6536.03
6544.05
6552.16
6560.33
6568.56
6576.84
6585.15
6593.48
6601.83
6610.18
6618.54
6626.88
6635.22
6643.53
6651.81
6660.05
6668.24
6676.39
6684.48
6692.51
6700.49
6708.39
6716.22
6723.97
6731.65
6739.24
6746.76
6754.19
6761.53
6768.79
6775.95
6783.02
6790
6796.9
6803.7
6810.41
6817.03
6823.56
6829.99
6836.33
6842.59
6848.75
6854.82
6860.79
6866.68
6872.48
6878.18
6883.8
6889.33
6894.76
6900.09
6905.34
6910.49
6915.55
6920.52
6925.39
6930.16
6934.84
6939.41
6943.89
6948.27
6952.54
6956.72
6960.8
6964.77
6968.64
6972.4
6976.05
6979.61
6983.06
6986.4
6989.64
6992.78
6995.8
6998.73
7001.56
7004.28
7006.9
7009.43
7011.86
7014.19
7016.43
7018.58
7020.65
7022.63
7024.53
7026.35
7028.1
7029.78
7031.39
7032.94
7034.44
7035.89
7037.28
7038.64
7039.96
7041.24
7042.5
7043.74
7044.96
7046.16
7047.35
7048.54
7049.73
7050.92
7052.12
7053.32
7054.53
7055.75
7056.98
7058.22
7059.47
7060.72
7061.98
7063.24
7064.51
7065.78
7067.05
7068.33
7069.6
7070.87
7072.15
7073.42
7074.69
7075.95
7077.21
7078.47
7079.71
7080.95
7082.18
7083.4
7084.61
7085.81
7086.99
7088.15
7089.29
7090.42
7091.52
7092.6
7093.65
7094.67
7095.66
7096.62
7097.55
7098.44
7099.3
7100.11
7100.89
7101.62
7102.3
7102.95
7103.54
7104.09
7104.58
7105.03
7105.42
7105.76
7106.05
7106.29
7106.47
7106.6
7106.67
7106.69
7106.66
7106.57
7106.43
7106.23
7105.99
7105.69
7105.35
7104.95
7104.51
7104.02
7103.49
7102.91
7102.29
7101.63
7100.93
7100.19
7099.42
7098.61
7097.77
7096.9
7096
7095.06
7094.11
7093.12
7092.12
7091.11
7090.05
7088.99
7087.87
7086.78
7085.61
7084.49
7083.36
7082.2
7080.96
7079.78
7078.32
7077.14
7076.25
7075.06
7073.96
7072.75
7071.56
7070.32
7069.15
7067.9
7066.69
7065.41
7064.18
7062.92
7061.66
7060.35
7059.05
7057.6
7056.27
7055.14
7053.79
7052.54
7051.15
7049.85
7048.42
7047.1
7045.65
7044.33
7042.88
7041.54
7040.05
7038.71
7037.18
7035.84
7034.51
7033.09
7031.85
7030.26
7028.94
7026.71
7025.66
7024.75
7023.62
7022.45
7021.27
7020.07
7018.92
7017.8
7016.69
7015.6
7014.52
7013.45
7012.4
7011.36
7010.33
7009.32
7008.31
7007.31
7006.32
7005.35
7004.38
7003.42
7002.47
7001.54
7000.61
6999.71
6998.81
6997.94
6997.07
6996.23
6995.4
6994.59
6993.8
6993.02
6992.27
6991.54
6990.82
6990.13
6989.45
6988.8
6988.17
6987.56
6986.97
6986.41
6985.87
6985.34
6984.85
6984.37
6983.92
6983.49
6983.08
6982.7
6982.34
6982
6981.68
6981.39
6981.12
6980.88
6980.65
6980.45
6980.28
6980.12
6979.99
6979.88
6979.79
6979.73
6979.69
6979.67
6979.67
6979.69
6979.74
6979.8
6979.89
6980
6980.14
6980.29
6980.46
6980.66
6980.88
6981.11
6981.37
6981.65
6981.95
6982.27
6982.61
6982.95
6983.4
6983.68
6984.28
6984.51
6985.21
6985.44
6986.26
7341.11
7341.64
7342.01
7342.18
7342.21
7342.18
7341.72
7340.95
7340.22
7339.3
7338.35
7337.71
7337.37
7336.84
7336.31
7335.75
7335.03
7334.11
7333.07
7331.92
7330.69
7329.42
7328.15
7326.89
7325.62
7324.35
7323.06
7321.71
7320.25
7318.69
7317.09
7315.41
7313.67
7311.91
7310.09
7308.18
7306.2
7304.2
7302.16
7300.09
7298
7295.88
7293.72
7291.55
7289.34
7287.12
7284.84
7282.58
7280.31
7277.97
7275.63
7273.3
7270.95
7268.57
7266.2
7263.8
7261.39
7258.98
7256.54
7254.1
7251.65
7249.2
7246.7
7244.19
7241.71
7239.23
7236.69
7234.18
7231.65
7229.11
7226.58
7224.04
7221.43
7218.76
7216.11
7213.38
7210.6
7207.77
7204.98
7202.06
7199.04
7195.97
7192.84
7189.65
7186.41
7183.18
7180.02
7176.92
7173.51
7169.69
7166.05
7162.81
7162.71
7163.58
7152.18
7128
7140.45
7135.01
7130.19
7125.68
7120.69
7112.45
7109.14
7102.73
7097.24
7091.18
7085.52
7079.01
7073.29
7066.8
7059.06
7051.79
7045.06
7038.03
7038.42
7027.95
7006.99
6995.39
6983.31
6972.26
6961.84
6948.94
6934.68
6920.3
6905.69
6891.42
6876.51
6860.4
6844.17
6828.28
6811.49
6800.26
6782.14
6757.44
6738.81
6719.56
6701.59
6682.85
6665.13
6646.17
6626.66
6607.44
6588.54
6569.78
6551.34
6533.04
6514.99
6497.31
6480.03
6463.16
6446.75
6430.82
6415.42
6400.55
6386.26
6372.55
6359.45
6346.96
6335.08
6323.82
6313.18
6303.14
6293.7
6284.84
6276.54
6268.78
6261.52
6254.75
6248.44
6242.56
6237.07
6231.95
6227.18
6222.71
6218.55
6214.65
6211.01
6207.62
6204.47
6201.57
6198.93
6196.57
6194.52
6192.78
6191.39
6190.36
6189.67
6189.36
6189.43
6189.88
6190.71
6191.94
6193.55
6195.53
6197.88
6200.59
6203.66
6207.08
6210.84
6214.93
6219.34
6224.05
6229.06
6234.34
6239.9
6245.71
6251.77
6258.07
6264.59
6271.32
6278.23
6285.32
6292.59
6300.01
6307.57
6315.27
6323.09
6331.02
6339.04
6347.15
6355.33
6363.58
6371.88
6380.22
6388.6
6396.99
6405.41
6413.83
6422.25
6430.65
6439.03
6447.39
6455.72
6464
6472.25
6480.44
6488.57
6496.64
6504.64
6512.58
6520.44
6528.22
6535.92
6543.54
6551.07
6558.52
6565.88
6573.14
6580.32
6587.4
6594.39
6601.29
6608.09
6614.81
6621.43
6627.95
6634.39
6640.73
6646.98
6653.14
6659.21
6665.18
6671.07
6676.86
6682.56
6688.18
6693.7
6699.13
6704.47
6709.71
6714.86
6719.92
6724.89
6729.75
6734.53
6739.2
6743.78
6748.25
6752.63
6756.9
6761.08
6765.15
6769.12
6772.98
6776.74
6780.39
6783.93
6787.37
6790.71
6793.94
6797.06
6800.08
6802.99
6805.8
6808.51
6811.11
6813.62
6816.03
6818.35
6820.57
6822.7
6824.74
6826.7
6828.58
6830.39
6832.11
6833.77
6835.37
6836.9
6838.38
6839.81
6841.19
6842.53
6843.84
6845.11
6846.36
6847.58
6848.78
6849.97
6851.16
6852.33
6853.51
6854.69
6855.87
6857.06
6858.26
6859.47
6860.69
6861.92
6863.16
6864.4
6865.66
6866.92
6868.18
6869.46
6870.73
6872.01
6873.28
6874.56
6875.84
6877.12
6878.4
6879.68
6880.95
6882.22
6883.48
6884.74
6885.99
6887.22
6888.45
6889.67
6890.87
6892.05
6893.22
6894.37
6895.49
6896.59
6897.66
6898.71
6899.73
6900.71
6901.66
6902.58
6903.45
6904.29
6905.08
6905.84
6906.54
6907.2
6907.81
6908.37
6908.88
6909.34
6909.75
6910.1
6910.4
6910.64
6910.83
6910.96
6911.04
6911.06
6911.03
6910.94
6910.8
6910.61
6910.36
6910.06
6909.7
6909.3
6908.85
6908.35
6907.81
6907.22
6906.59
6905.92
6905.2
6904.46
6903.66
6902.85
6901.99
6901.11
6900.18
6899.25
6898.28
6897.29
6896.25
6895.22
6894.13
6893.07
6892.04
6890.92
6889.85
6888.6
6887.47
6886.01
6884.87
6884.02
6882.85
6881.79
6880.59
6879.43
6878.21
6877.07
6875.82
6874.65
6873.37
6872.16
6870.92
6869.69
6868.38
6867.12
6865.65
6864.35
6863.27
6861.94
6860.73
6859.35
6858.06
6856.64
6855.32
6853.89
6852.56
6851.11
6849.77
6848.26
6846.92
6845.32
6844.01
6842.54
6841.23
6839.68
6838.38
6836.08
6835.03
6834.08
6832.93
6831.7
6830.42
6829.15
6827.86
6826.62
6825.43
6824.24
6823.07
6821.91
6820.77
6819.64
6818.53
6817.43
6816.34
6815.27
6814.21
6813.16
6812.13
6811.1
6810.09
6809.09
6808.1
6807.12
6806.16
6805.21
6804.27
6803.35
6802.45
6801.56
6800.69
6799.83
6798.99
6798.18
6797.38
6796.6
6795.83
6795.09
6794.37
6793.68
6793
6792.34
6791.71
6791.09
6790.5
6789.94
6789.39
6788.87
6788.37
6787.89
6787.44
6787.01
6786.6
6786.21
6785.85
6785.51
6785.2
6784.91
6784.64
6784.39
6784.17
6783.97
6783.8
6783.64
6783.51
6783.4
6783.32
6783.25
6783.21
6783.19
6783.2
6783.22
6783.27
6783.34
6783.43
6783.54
6783.67
6783.83
6784
6784.2
6784.42
6784.66
6784.91
6785.2
6785.5
6785.82
6786.16
6786.5
6786.95
6787.23
6787.83
6788.06
6788.75
6788.99
6789.81
7146.2
7146.7
7147.02
7147.15
7147.17
7147.01
7146.65
7146.08
7145.64
7145.06
7144.33
7143.63
7142.94
7142.17
7141.52
7140.8
7139.96
7139.03
7137.98
7136.85
7135.64
7134.39
7133.11
7131.8
7130.47
7129.12
7127.73
7126.28
7124.75
7123.16
7121.52
7119.81
7118.07
7116.27
7114.41
7112.46
7110.47
7108.46
7106.42
7104.33
7102.22
7100.07
7097.91
7095.7
7093.49
7091.23
7088.97
7086.68
7084.39
7082.07
7079.67
7077.3
7074.92
7072.56
7070.16
7067.76
7065.34
7062.91
7060.46
7057.99
7055.52
7053.03
7050.54
7048.01
7045.46
7042.91
7040.34
7037.76
7035.19
7032.59
7029.98
7027.35
7024.7
7021.97
7019.21
7016.45
7013.69
7010.82
7007.83
7004.82
7001.72
6998.58
6995.38
6992.13
6988.86
6985.61
6982.3
6978.86
6975.3
6971.65
6968.09
6964.29
6960.14
6956.12
6952.32
6952.03
6953.04
6940.93
6914.79
6927.83
6921.83
6916.39
6911.27
6905.58
6896.45
6892.56
6885.49
6879.43
6872.85
6866.52
6859.42
6852.39
6845.16
6836.12
6827.8
6819.74
6811.75
6811.79
6799.47
6775.95
6762.53
6749.1
6736.58
6724.72
6710.38
6694.39
6678.55
6662.4
6647.05
6630.85
6613.52
6596.58
6578.37
6561.8
6544.74
6531.98
6513.61
6487.9
6468.79
6449.24
6430.12
6411.81
6392.61
6373.03
6353.96
6335.37
6317.08
6299.19
6281.61
6264.41
6247.72
6231.57
6215.94
6200.86
6186.37
6172.48
6159.22
6146.59
6134.6
6123.22
6112.47
6102.33
6092.81
6083.86
6075.48
6067.63
6060.29
6053.44
6047.06
6041.1
6035.56
6030.4
6025.59
6021.12
6016.96
6013.09
6009.5
6006.17
6003.11
6000.31
5997.78
5995.54
5993.6
5991.98
5990.69
5989.75
5989.17
5988.96
5989.12
5989.66
5990.6
5991.92
5993.62
5995.7
5998.16
6000.97
6004.15
6007.67
6011.54
6015.75
6020.27
6025.09
6030.2
6035.6
6041.26
6047.19
6053.37
6059.79
6066.41
6073.24
6080.26
6087.46
6094.84
6102.37
6110.04
6117.84
6125.76
6133.78
6141.9
6150.1
6158.38
6166.71
6175.1
6183.52
6191.98
6200.46
6208.95
6217.45
6225.94
6234.41
6242.86
6251.27
6259.65
6268
6276.3
6284.54
6292.72
6300.83
6308.87
6316.85
6324.74
6332.56
6340.29
6347.93
6355.49
6362.95
6370.33
6377.61
6384.8
6391.89
6398.89
6405.8
6412.61
6419.32
6425.94
6432.47
6438.91
6445.25
6451.5
6457.65
6463.71
6469.69
6475.57
6481.36
6487.06
6492.67
6498.2
6503.62
6508.96
6514.2
6519.35
6524.41
6529.37
6534.24
6539.01
6543.68
6548.25
6552.73
6557.11
6561.38
6565.55
6569.62
6573.58
6577.43
6581.19
6584.83
6588.37
6591.8
6595.12
6598.34
6601.45
6604.45
6607.35
6610.14
6612.83
6615.42
6617.91
6620.3
6622.6
6624.8
6626.91
6628.93
6630.86
6632.72
6634.5
6636.21
6637.84
6639.42
6640.93
6642.39
6643.8
6645.16
6646.48
6647.77
6649.03
6650.25
6651.46
6652.65
6653.82
6654.99
6656.15
6657.31
6658.47
6659.64
6660.81
6662
6663.19
6664.4
6665.61
6666.84
6668.08
6669.33
6670.58
6671.84
6673.11
6674.39
6675.66
6676.95
6678.23
6679.52
6680.81
6682.1
6683.39
6684.68
6685.96
6687.24
6688.52
6689.79
6691.05
6692.3
6693.54
6694.76
6695.98
6697.17
6698.34
6699.49
6700.62
6701.73
6702.8
6703.85
6704.86
6705.84
6706.78
6707.68
6708.55
6709.37
6710.14
6710.87
6711.55
6712.18
6712.76
6713.29
6713.77
6714.19
6714.55
6714.86
6715.11
6715.31
6715.45
6715.53
6715.56
6715.53
6715.44
6715.3
6715.1
6714.85
6714.54
6714.18
6713.77
6713.31
6712.8
6712.25
6711.64
6711
6710.31
6709.59
6708.82