/*--------------------------------*- C++ -*----------------------------------*\
| =========                 |                                                 |
| \\      /  F ield         | OpenFOAM: The Open Source CFD Toolbox           |
|  \\    /   O peration     | Version:  v2006                                 |
|   \\  /    A nd           | Website:  www.openfoam.com                      |
|    \\/     M anipulation  |                                                 |
\*---------------------------------------------------------------------------*/
FoamFile
{
    version     2.0;
    format      ascii;
    class       volScalarField;
    location    "7.1";
    object      p_rgh;
}
// * * * * * * * * * * * * * * * * * * * * * * * * * * * * * * * * * * * * * //

dimensions      [1 -1 -2 0 0 0 0];


internalField   nonuniform List<scalar> 
33000
(
8417.64
8418.36
8418.97
8419.4
8419.76
8420.1
8420.5
8420.86
8420.77
8419.96
8418.32
8416.46
8415.01
8414.07
8413.38
8412.62
8411.75
8410.72
8409.52
8408.19
8406.76
8405.3
8403.97
8402.76
8401.66
8401.2
8400.81
8399.86
8398.45
8396.87
8395.18
8393.43
8391.63
8389.74
8387.82
8385.94
8384.04
8382.06
8380.04
8377.98
8375.87
8373.79
8371.71
8369.55
8367.41
8365.23
8363.02
8360.73
8358.51
8356.25
8354.01
8351.72
8349.4
8347.07
8344.71
8342.34
8339.95
8337.56
8335.14
8332.78
8330.44
8328.07
8325.72
8323.39
8321.04
8318.73
8316.43
8314.15
8311.91
8309.71
8307.59
8305.58
8303.77
8302.13
8300.73
8299.67
8299.27
8298.53
8290.88
8276.91
8283.3
8279.03
8274.33
8271.73
8268.21
8262.88
8260.44
8256.85
8253.48
8249.61
8246.35
8242.58
8239.07
8235.86
8232.86
8229.65
8227.95
8224.76
8226.33
8221.53
8210.73
8205.69
8199.19
8192.85
8187.04
8179.94
8172.34
8164.6
8156.93
8149.4
8141.25
8133.24
8124.84
8116.27
8108.06
8099
8092.97
8082.4
8066.69
8055.47
8042.37
8028.78
8015.42
8000.94
7985.39
7969.91
7953.91
7937.53
7920.96
7903.94
7886.57
7868.95
7851.14
7833.2
7815.09
7796.87
7778.57
7760.18
7741.78
7723.37
7705
7686.69
7668.52
7650.53
7632.75
7615.19
7597.9
7580.92
7564.27
7548.05
7532.25
7516.88
7501.97
7487.54
7473.65
7460.31
7447.53
7435.3
7423.64
7412.56
7402.06
7392.13
7382.79
7374.02
7365.79
7358.09
7350.92
7344.24
7338.03
7332.24
7326.85
7321.84
7317.18
7312.8
7308.68
7304.78
7301.08
7297.56
7294.28
7291.23
7288.45
7285.96
7283.77
7281.92
7280.4
7279.25
7278.45
7278.02
7277.96
7278.25
7278.93
7279.98
7281.41
7283.21
7285.36
7287.86
7290.71
7293.88
7297.39
7301.23
7305.39
7309.86
7314.61
7319.63
7324.92
7330.47
7336.26
7342.3
7348.54
7354.99
7361.63
7368.47
7375.49
7382.66
7389.97
7397.41
7404.97
7412.66
7420.46
7428.35
7436.31
7444.34
7452.42
7460.54
7468.71
7476.92
7485.15
7493.4
7501.64
7509.87
7518.08
7526.28
7534.47
7542.62
7550.73
7558.8
7566.81
7574.77
7582.67
7590.5
7598.27
7605.97
7613.6
7621.17
7628.64
7636.03
7643.34
7650.56
7657.7
7664.77
7671.74
7678.62
7685.41
7692.11
7698.72
7705.25
7711.69
7718.04
7724.29
7730.45
7736.53
7742.51
7748.41
7754.21
7759.92
7765.53
7771.06
7776.49
7781.84
7787.09
7792.25
7797.31
7802.27
7807.14
7811.91
7816.6
7821.18
7825.66
7830.05
7834.33
7838.52
7842.59
7846.57
7850.45
7854.23
7857.91
7861.48
7864.94
7868.31
7871.57
7874.72
7877.78
7880.74
7883.6
7886.36
7889.01
7891.57
7894.04
7896.42
7898.7
7900.9
7903.01
7905.03
7906.97
7908.84
7910.64
7912.36
7914.02
7915.61
7917.15
7918.63
7920.07
7921.46
7922.81
7924.13
7925.41
7926.67
7927.92
7929.14
7930.36
7931.57
7932.77
7933.98
7935.19
7936.41
7937.64
7938.88
7940.13
7941.38
7942.63
7943.89
7945.16
7946.42
7947.69
7948.95
7950.22
7951.48
7952.74
7954
7955.26
7956.51
7957.76
7959
7960.23
7961.46
7962.68
7963.89
7965.08
7966.27
7967.44
7968.59
7969.73
7970.85
7971.95
7973.03
7974.09
7975.12
7976.12
7977.1
7978.05
7978.96
7979.84
7980.69
7981.5
7982.27
7983
7983.7
7984.34
7984.95
7985.51
7986.02
7986.49
7986.91
7987.28
7987.6
7987.87
7988.08
7988.25
7988.37
7988.44
7988.45
7988.41
7988.33
7988.19
7988
7987.77
7987.48
7987.15
7986.76
7986.34
7985.87
7985.35
7984.79
7984.19
7983.55
7982.87
7982.16
7981.4
7980.62
7979.8
7978.95
7978.07
7977.16
7976.23
7975.26
7974.28
7973.27
7972.24
7971.19
7970.12
7969.03
7967.92
7966.79
7965.65
7964.5
7963.32
7962.14
7960.94
7959.73
7958.52
7957.29
7956.04
7954.81
7953.54
7952.29
7951.06
7949.8
7948.52
7947.31
7945.89
7944.69
7943.65
7942.42
7941.24
7939.98
7938.72
7937.43
7936.12
7934.81
7933.46
7932.13
7930.75
7929.41
7928.05
7926.69
7925.31
7923.97
7922.53
7921.19
7919.91
7918.55
7917.22
7915.85
7914.5
7913.12
7911.77
7910.4
7909.06
7907.7
7906.38
7905.03
7903.77
7902.41
7901.18
7900
7898.79
7897.6
7896.6
7894.97
7894.2
7893.52
7892.72
7891.87
7890.99
7890.1
7889.19
7888.28
7887.37
7886.46
7885.56
7884.66
7883.78
7882.9
7882.03
7881.18
7880.34
7879.51
7878.7
7877.91
7877.14
7876.38
7875.64
7874.91
7874.21
7873.53
7872.86
7872.22
7871.59
7870.99
7870.41
7869.85
7869.31
7868.79
7868.3
7867.83
7867.38
7866.95
7866.54
7866.16
7865.8
7865.46
7865.15
7864.86
7864.59
7864.34
7864.12
7863.92
7863.74
7863.58
7863.45
7863.33
7863.25
7863.18
7863.13
7863.11
7863.11
7863.13
7863.18
7863.24
7863.33
7863.44
7863.56
7863.72
7863.89
7864.08
7864.3
7864.53
7864.79
7865.07
7865.36
7865.68
7866.02
7866.36
7866.81
7867.09
7867.69
7867.91
7868.61
7868.84
7869.66
8417.74
8418.44
8419.02
8419.42
8419.7
8419.87
8420.04
8419.66
8419.2
8418.27
8416.78
8415.08
8414.1
8413.7
8413.34
8412.72
8411.92
8410.94
8409.63
8408.06
8406.36
8404.61
8402.96
8401.89
8401.15
8400.63
8400.33
8399.68
8398.45
8396.96
8395.26
8393.52
8391.71
8389.72
8387.82
8385.93
8384.12
8382.2
8380.16
8378.08
8375.87
8373.74
8371.64
8369.61
8367.5
8365.3
8363.03
8360.74
8358.48
8356.28
8354.07
8351.77
8349.45
8347.11
8344.75
8342.38
8339.9
8337.45
8335.09
8332.72
8330.37
8328.02
8325.64
8323.3
8320.94
8318.65
8316.34
8314.03
8311.68
8309.38
8307.17
8305.02
8302.98
8301.04
8299.09
8297.07
8295.1
8292.98
8290.73
8290.02
8289.48
8280.66
8264.72
8272.61
8267.97
8264.44
8261.42
8258.02
8254
8248.2
8246.22
8242.03
8238.71
8235.2
8231.75
8228.21
8225.05
8221.89
8218.71
8215.37
8211.09
8211.77
8205.24
8191.96
8185.37
8177.44
8171.64
8164.42
8158.68
8151.05
8142.14
8133.51
8124.57
8115.74
8107
8097.9
8088.53
8078.63
8067.28
8059.78
8047.15
8028.78
8015.14
8000.21
7985.38
7970.81
7955.07
7938.29
7921.44
7904.23
7886.83
7869.29
7851.51
7833.53
7815.36
7797.03
7778.68
7760.26
7741.86
7723.43
7705
7686.64
7668.44
7650.39
7632.56
7614.99
7597.65
7580.6
7563.9
7547.64
7531.84
7516.44
7501.5
7487.04
7473.12
7459.75
7446.96
7434.73
7423.06
7411.98
7401.47
7391.52
7382.2
7373.44
7365.21
7357.49
7350.34
7343.69
7337.47
7331.67
7326.28
7321.29
7316.65
7312.27
7308.15
7304.23
7300.5
7296.99
7293.69
7290.63
7287.88
7285.39
7283.21
7281.34
7279.79
7278.61
7277.84
7277.43
7277.37
7277.67
7278.34
7279.39
7280.82
7282.64
7284.82
7287.33
7290.19
7293.36
7296.89
7300.75
7304.93
7309.43
7314.19
7319.22
7324.52
7330.08
7335.9
7341.96
7348.22
7354.67
7361.32
7368.2
7375.24
7382.43
7389.76
7397.2
7404.77
7412.48
7420.29
7428.21
7436.19
7444.23
7452.31
7460.45
7468.63
7476.85
7485.1
7493.36
7501.62
7509.85
7518.07
7526.28
7534.47
7542.64
7550.77
7558.85
7566.87
7574.83
7582.73
7590.56
7598.33
7606.04
7613.68
7621.26
7628.74
7636.14
7643.44
7650.66
7657.81
7664.89
7671.86
7678.74
7685.52
7692.22
7698.84
7705.36
7711.8
7718.15
7724.41
7730.57
7736.64
7742.62
7748.52
7754.33
7760.03
7765.64
7771.16
7776.6
7781.95
7787.21
7792.36
7797.42
7802.38
7807.25
7812.02
7816.7
7821.29
7825.78
7830.16
7834.44
7838.63
7842.7
7846.67
7850.55
7854.33
7858.01
7861.58
7865.04
7868.4
7871.66
7874.82
7877.87
7880.83
7883.68
7886.44
7889.09
7891.65
7894.11
7896.48
7898.76
7900.95
7903.06
7905.07
7907.01
7908.88
7910.67
7912.39
7914.04
7915.63
7917.16
7918.64
7920.07
7921.46
7922.8
7924.12
7925.4
7926.66
7927.9
7929.12
7930.34
7931.54
7932.75
7933.95
7935.16
7936.38
7937.61
7938.85
7940.1
7941.35
7942.61
7943.87
7945.13
7946.39
7947.66
7948.92
7950.19
7951.46
7952.72
7953.98
7955.24
7956.49
7957.74
7958.99
7960.22
7961.45
7962.67
7963.88
7965.08
7966.27
7967.45
7968.6
7969.75
7970.87
7971.97
7973.06
7974.12
7975.15
7976.16
7977.14
7978.1
7979.02
7979.9
7980.75
7981.57
7982.35
7983.08
7983.78
7984.43
7985.04
7985.6
7986.12
7986.59
7987.01
7987.38
7987.7
7987.97
7988.19
7988.36
7988.48
7988.55
7988.56
7988.53
7988.44
7988.3
7988.12
7987.88
7987.59
7987.26
7986.87
7986.45
7985.97
7985.45
7984.89
7984.29
7983.65
7982.97
7982.25
7981.5
7980.71
7979.88
7979.03
7978.15
7977.24
7976.3
7975.34
7974.35
7973.34
7972.31
7971.26
7970.19
7969.09
7967.99
7966.85
7965.71
7964.55
7963.38
7962.19
7961
7959.78
7958.56
7957.31
7956.08
7954.87
7953.63
7952.34
7951.1
7949.66
7948.4
7947.41
7946.16
7945.01
7943.8
7942.58
7941.34
7940.07
7938.8
7937.49
7936.18
7934.83
7933.5
7932.16
7930.82
7929.43
7928.08
7926.62
7925.27
7923.99
7922.64
7921.28
7919.96
7918.57
7917.24
7915.84
7914.5
7913.13
7911.76
7910.43
7909.01
7907.72
7906.26
7905.01
7903.71
7902.51
7901.14
7900.02
7898.16
7897.24
7896.5
7895.59
7894.67
7893.78
7892.88
7891.97
7891.06
7890.14
7889.22
7888.3
7887.38
7886.46
7885.56
7884.65
7883.76
7882.88
7882.01
7881.15
7880.31
7879.48
7878.67
7877.87
7877.1
7876.33
7875.59
7874.87
7874.16
7873.48
7872.81
7872.17
7871.54
7870.94
7870.36
7869.8
7869.26
7868.74
7868.25
7867.78
7867.33
7866.9
7866.49
7866.11
7865.75
7865.41
7865.1
7864.8
7864.53
7864.29
7864.06
7863.86
7863.68
7863.53
7863.39
7863.28
7863.19
7863.12
7863.08
7863.06
7863.06
7863.08
7863.12
7863.19
7863.27
7863.38
7863.51
7863.66
7863.84
7864.03
7864.24
7864.48
7864.74
7865.01
7865.31
7865.63
7865.97
7866.31
7866.76
7867.04
7867.64
7867.86
7868.56
7868.79
7869.62
8418.05
8418.7
8419.26
8419.66
8419.99
8419.89
8419.49
8418.35
8416.52
8414.42
8412.63
8411.87
8412.39
8412.87
8413.07
8412.89
8412.31
8411.36
8410.1
8408.57
8406.85
8405.18
8403.72
8402.31
8401.27
8400.53
8399.87
8399.09
8398.04
8396.67
8395.1
8393.41
8391.48
8389.62
8387.77
8385.91
8384.21
8382.34
8380.31
8378.22
8375.91
8373.74
8371.7
8369.76
8367.66
8365.43
8363.07
8360.76
8358.46
8356.32
8354.16
8351.88
8349.55
8347.21
8344.83
8342.28
8339.77
8337.44
8335.14
8332.9
8330.34
8327.82
8325.42
8323.02
8320.81
8318.56
8316.23
8313.88
8311.4
8309.05
8306.76
8304.6
8302.55
8300.4
8298.2
8295.98
8293.6
8291
8287.99
8284.6
8281.59
8279.21
8279.07
8279.25
8270.34
8252.17
8259.01
8257.05
8253.75
8249.79
8246.72
8242.88
8236.89
8234.79
8230.58
8227.12
8223.77
8220.03
8216.21
8212.17
8207.08
8202.63
8198.01
8193.49
8194.09
8186.51
8171.83
8163.56
8155.5
8148.72
8141
8134.44
8125.93
8116.49
8106.97
8097.21
8087.55
8077.17
8065.8
8054.02
8042.37
8029.62
8021.05
8006.65
7986.12
7970.9
7954.56
7938.5
7922.76
7905.82
7887.76
7870
7851.88
7833.98
7815.84
7797.63
7779.22
7760.71
7742.21
7723.66
7705.11
7686.63
7668.33
7650.17
7632.27
7614.59
7597.12
7579.93
7563.19
7546.9
7531.02
7515.53
7500.44
7485.96
7472.07
7458.68
7445.77
7433.46
7421.8
7410.74
7400.22
7390.27
7380.93
7372.21
7363.97
7356.24
7349.09
7342.48
7336.26
7330.44
7325.06
7320.04
7315.41
7311.04
7306.9
7302.98
7299.22
7295.72
7292.43
7289.38
7286.64
7284.18
7281.99
7280.12
7278.56
7277.37
7276.57
7276.18
7276.17
7276.51
7277.2
7278.23
7279.66
7281.48
7283.71
7286.27
7289.15
7292.34
7295.89
7299.79
7304.03
7308.54
7313.33
7318.38
7323.72
7329.33
7335.2
7341.28
7347.56
7354.03
7360.73
7367.66
7374.74
7381.96
7389.32
7396.8
7404.39
7412.12
7419.96
7427.93
7435.94
7444.01
7452.12
7460.27
7468.48
7476.72
7485.01
7493.3
7501.57
7509.83
7518.06
7526.29
7534.52
7542.73
7550.86
7558.95
7566.98
7574.93
7582.83
7590.69
7598.49
7606.24
7613.89
7621.46
7628.94
7636.34
7643.63
7650.86
7658.02
7665.11
7672.09
7678.97
7685.75
7692.45
7699.08
7705.62
7712.05
7718.39
7724.62
7730.78
7736.88
7742.87
7748.76
7754.56
7760.25
7765.86
7771.39
7776.83
7782.19
7787.44
7792.59
7797.65
7802.61
7807.47
7812.25
7816.92
7821.5
7825.99
7830.38
7834.66
7838.84
7842.91
7846.89
7850.76
7854.55
7858.22
7861.78
7865.24
7868.6
7871.85
7875
7878.06
7881
7883.85
7886.59
7889.25
7891.8
7894.25
7896.61
7898.87
7901.06
7903.16
7905.17
7907.1
7908.95
7910.73
7912.44
7914.09
7915.67
7917.19
7918.66
7920.08
7921.46
7922.8
7924.11
7925.39
7926.64
7927.88
7929.1
7930.31
7931.51
7932.71
7933.91
7935.12
7936.34
7937.57
7938.8
7940.04
7941.29
7942.55
7943.81
7945.07
7946.34
7947.6
7948.87
7950.14
7951.4
7952.67
7953.93
7955.2
7956.45
7957.71
7958.96
7960.2
7961.43
7962.66
7963.88
7965.08
7966.28
7967.46
7968.63
7969.78
7970.91
7972.02
7973.12
7974.18
7975.23
7976.25
7977.24
7978.2
7979.13
7980.02
7980.88
7981.71
7982.49
7983.24
7983.94
7984.6
7985.22
7985.78
7986.31
7986.78
7987.21
7987.59
7987.91
7988.19
7988.41
7988.58
7988.71
7988.77
7988.79
7988.76
7988.67
7988.53
7988.34
7988.1
7987.81
7987.48
7987.09
7986.66
7986.19
7985.67
7985.1
7984.5
7983.85
7983.17
7982.44
7981.69
7980.89
7980.06
7979.21
7978.32
7977.41
7976.46
7975.5
7974.51
7973.49
7972.45
7971.4
7970.32
7969.22
7968.1
7966.98
7965.83
7964.67
7963.47
7962.29
7961.06
7959.86
7958.67
7957.46
7956.17
7954.95
7953.49
7952.27
7951.29
7950.07
7948.92
7947.69
7946.46
7945.21
7944
7942.73
7941.48
7940.18
7938.89
7937.61
7936.28
7934.98
7933.59
7932.27
7930.77
7929.44
7928.16
7926.84
7925.47
7924.14
7922.74
7921.4
7920.01
7918.65
7917.29
7915.89
7914.55
7913.1
7911.78
7910.26
7908.99
7907.61
7906.37
7904.91
7903.73
7901.73
7900.75
7899.94
7898.96
7897.93
7896.92
7895.88
7894.89
7893.93
7892.99
7892.05
7891.11
7890.16
7889.21
7888.28
7887.34
7886.42
7885.5
7884.59
7883.69
7882.81
7881.93
7881.07
7880.23
7879.4
7878.58
7877.78
7877
7876.24
7875.5
7874.77
7874.06
7873.38
7872.71
7872.06
7871.44
7870.83
7870.25
7869.69
7869.15
7868.63
7868.13
7867.66
7867.21
7866.78
7866.37
7865.99
7865.63
7865.29
7864.98
7864.69
7864.42
7864.17
7863.95
7863.75
7863.57
7863.41
7863.28
7863.17
7863.08
7863.01
7862.97
7862.95
7862.95
7862.97
7863.01
7863.08
7863.17
7863.28
7863.41
7863.56
7863.73
7863.92
7864.14
7864.38
7864.63
7864.91
7865.21
7865.53
7865.87
7866.21
7866.66
7866.93
7867.53
7867.76
7868.46
7868.69
7869.51
8418.53
8419.17
8419.72
8420.07
8420.25
8420.44
8419.51
8418
8415.87
8412.78
8410.1
8409.81
8410.82
8412.17
8412.9
8413.02
8412.69
8411.87
8410.68
8409.29
8407.74
8406.2
8404.87
8403.66
8402.58
8401.46
8400.43
8399.42
8398.34
8396.95
8395.32
8393.49
8391.48
8389.72
8387.85
8386.18
8384.52
8382.61
8380.6
8378.52
8376.3
8373.91
8371.99
8370.05
8367.91
8365.66
8363.29
8360.84
8358.55
8356.48
8354.32
8352.03
8349.7
8347.35
8344.97
8342.42
8339.81
8337.66
8335.44
8333.01
8330.36
8327.75
8325.29
8322.85
8320.58
8318.41
8316.1
8313.71
8311.3
8308.74
8306.22
8303.93
8301.72
8299.33
8296.9
8294.42
8291.82
8289.11
8286.1
8283.21
8280.38
8277.23
8273.83
8270.11
8266.55
8265.26
8266.1
8265.28
8255.89
8236.59
8246.66
8241.03
8238.15
8234.14
8230.32
8223.85
8221.53
8217.16
8213.13
8208.9
8204.11
8199.29
8194.55
8187.5
8182.6
8175.69
8171.73
8166.02
8167.02
8159.33
8142.49
8133.56
8123.75
8115.38
8107.74
8098.14
8087.31
8076.3
8064.74
8053.47
8041.37
8028.33
8014.75
8001.42
7987.1
7977.68
7962.05
7939.75
7923.13
7905.4
7888.11
7871.5
7853.76
7835.12
7816.55
7797.82
7779.34
7760.76
7742.36
7723.87
7705.24
7686.55
7668.08
7649.79
7631.8
7613.97
7596.29
7579
7562.13
7545.77
7529.76
7514.09
7498.93
7484.37
7470.44
7457
7444.03
7431.65
7419.92
7408.78
7398.27
7388.4
7379.09
7370.29
7361.98
7354.3
7347.12
7340.48
7334.32
7328.45
7323.04
7318
7313.3
7308.96
7304.83
7300.91
7297.15
7293.63
7290.37
7287.37
7284.69
7282.23
7280.05
7278.19
7276.62
7275.44
7274.66
7274.26
7274.31
7274.68
7275.41
7276.51
7277.93
7279.76
7281.99
7284.64
7287.58
7290.86
7294.43
7298.32
7302.59
7307.19
7312.03
7317.13
7322.54
7328.23
7334.12
7340.24
7346.53
7353.09
7359.85
7366.83
7373.98
7381.25
7388.65
7396.15
7403.8
7411.58
7419.48
7427.51
7435.56
7443.67
7451.84
7460.03
7468.25
7476.53
7484.83
7493.16
7501.5
7509.8
7518.06
7526.31
7534.57
7542.81
7550.98
7559.08
7567.1
7575.08
7583.03
7590.91
7598.77
7606.51
7614.17
7621.73
7629.19
7636.6
7643.93
7651.19
7658.39
7665.46
7672.42
7679.28
7686.07
7692.82
7699.45
7705.98
7712.4
7718.71
7724.96
7731.12
7737.22
7743.22
7749.11
7754.91
7760.61
7766.21
7771.72
7777.16
7782.53
7787.78
7792.93
7797.97
7802.93
7807.82
7812.61
7817.28
7821.84
7826.31
7830.69
7834.99
7839.17
7843.23
7847.21
7851.08
7854.86
7858.53
7862.07
7865.52
7868.89
7872.15
7875.29
7878.33
7881.26
7884.09
7886.82
7889.48
7892.02
7894.46
7896.81
7899.05
7901.22
7903.31
7905.31
7907.22
7909.05
7910.82
7912.53
7914.16
7915.72
7917.23
7918.7
7920.12
7921.49
7922.81
7924.1
7925.37
7926.63
7927.86
7929.07
7930.27
7931.47
7932.66
7933.86
7935.07
7936.28
7937.5
7938.73
7939.96
7941.21
7942.46
7943.72
7944.98
7946.25
7947.52
7948.78
7950.05
7951.32
7952.59
7953.86
7955.13
7956.39
7957.65
7958.91
7960.16
7961.4
7962.63
7963.87
7965.08
7966.29
7967.48
7968.66
7969.82
7970.97
7972.09
7973.2
7974.28
7975.34
7976.37
7977.38
7978.35
7979.3
7980.21
7981.08
7981.92
7982.71
7983.47
7984.19
7984.86
7985.48
7986.06
7986.6
7987.08
7987.51
7987.9
7988.23
7988.52
7988.74
7988.92
7989.04
7989.12
7989.13
7989.1
7989.01
7988.87
7988.68
7988.44
7988.15
7987.81
7987.42
7986.98
7986.5
7985.97
7985.41
7984.79
7984.14
7983.45
7982.72
7981.95
7981.16
7980.32
7979.46
7978.56
7977.64
7976.69
7975.72
7974.72
7973.7
7972.66
7971.59
7970.53
7969.42
7968.32
7967.15
7966.01
7964.81
7963.64
7962.47
7961.29
7960.02
7958.81
7957.36
7956.15
7955.22
7954
7952.88
7951.64
7950.44
7949.19
7948
7946.73
7945.51
7944.23
7942.97
7941.72
7940.42
7939.13
7937.77
7936.45
7934.95
7933.63
7932.39
7931.07
7929.72
7928.38
7926.97
7925.64
7924.2
7922.88
7921.43
7920.1
7918.63
7917.3
7915.78
7914.48
7913.13
7911.77
7910.47
7908.96
7907.7
7905.57
7904.54
7903.68
7902.62
7901.51
7900.4
7899.28
7898.21
7897.17
7896.14
7895.13
7894.12
7893.13
7892.15
7891.17
7890.2
7889.24
7888.28
7887.33
7886.39
7885.46
7884.54
7883.63
7882.73
7881.84
7880.98
7880.12
7879.28
7878.46
7877.66
7876.87
7876.11
7875.36
7874.63
7873.92
7873.23
7872.56
7871.91
7871.28
7870.67
7870.09
7869.53
7868.99
7868.47
7867.97
7867.49
7867.04
7866.61
7866.21
7865.82
7865.46
7865.12
7864.81
7864.52
7864.25
7864
7863.78
7863.58
7863.4
7863.25
7863.11
7863
7862.91
7862.85
7862.81
7862.78
7862.79
7862.81
7862.85
7862.92
7863.01
7863.12
7863.25
7863.4
7863.57
7863.77
7863.98
7864.22
7864.48
7864.76
7865.06
7865.38
7865.72
7866.06
7866.51
7866.78
7867.38
7867.61
7868.31
7868.54
7869.36
8419.23
8419.81
8420.26
8420.46
8420.54
8420.79
8420.13
8418.6
8416.78
8415.14
8414
8413.57
8413.53
8413.76
8413.83
8413.75
8413.3
8412.41
8411.35
8410.13
8408.81
8407.45
8406.13
8404.88
8403.68
8402.39
8401.05
8399.86
8398.68
8397.26
8395.65
8393.71
8391.62
8389.87
8388.21
8386.72
8384.88
8382.91
8380.89
8378.83
8376.68
8374.51
8372.41
8370.33
8368.16
8365.92
8363.61
8361.09
8358.79
8356.71
8354.53
8352.21
8349.86
8347.5
8345.11
8342.66
8340.29
8337.93
8335.53
8333.1
8330.52
8327.66
8325.16
8322.7
8320.42
8318.28
8315.94
8313.5
8311.03
8308.56
8305.95
8303.35
8300.95
8298.55
8296.1
8293.58
8290.87
8287.89
8284.84
8281.92
8278.95
8276.15
8273.16
8270.06
8266.77
8263.45
8260.31
8257.16
8254.6
8254.6
8255.3
8244.61
8222.41
8234.03
8228.66
8224.63
8220.56
8216.45
8209.32
8206.51
8201.15
8196.24
8191.25
8185.91
8180.49
8175.11
8167.14
8161.74
8154.61
8149.81
8143.35
8144.39
8135.07
8116.34
8106.27
8095.44
8085.83
8076.79
8065.55
8052.97
8040.15
8027.02
8014.2
8000.4
7985.83
7970.94
7956.4
7940.74
7930.21
7913.06
7889.19
7871.86
7853.12
7835.52
7817.4
7799.99
7781.49
7762.01
7743.03
7724.07
7705.34
7686.72
7668.04
7649.53
7631.18
7612.98
7595.15
7577.74
7560.76
7544.25
7527.97
7512.1
7496.88
7482.2
7468.19
7454.66
7441.64
7429.13
7417.33
7406.15
7395.61
7385.74
7376.39
7367.51
7359.19
7351.48
7344.29
7337.65
7331.47
7325.56
7320.07
7314.99
7310.26
7305.93
7301.79
7297.85
7294.07
7290.6
7287.39
7284.53
7281.86
7279.43
7277.3
7275.47
7273.92
7272.77
7272.02
7271.65
7271.74
7272.19
7272.96
7274.12
7275.61
7277.44
7279.72
7282.44
7285.45
7288.79
7292.43
7296.36
7300.68
7305.3
7310.26
7315.52
7320.99
7326.71
7332.66
7338.79
7345.2
7351.84
7358.71
7365.78
7372.96
7380.29
7387.7
7395.29
7403.03
7410.9
7418.9
7426.93
7434.98
7443.14
7451.39
7459.73
7468.04
7476.36
7484.65
7492.98
7501.33
7509.68
7518.01
7526.38
7534.7
7542.94
7551.14
7559.26
7567.29
7575.32
7583.29
7591.25
7599.11
7606.86
7614.5
7622.06
7629.58
7637.01
7644.36
7651.67
7658.85
7665.91
7672.85
7679.73
7686.53
7693.26
7699.92
7706.45
7712.85
7719.17
7725.42
7731.6
7737.71
7743.69
7749.58
7755.37
7761.08
7766.68
7772.18
7777.62
7782.99
7788.23
7793.36
7798.41
7803.37
7808.27
7813.06
7817.73
7822.29
7826.75
7831.13
7835.4
7839.59
7843.69
7847.67
7851.53
7855.27
7858.91
7862.47
7865.92
7869.29
7872.54
7875.67
7878.69
7881.6
7884.43
7887.15
7889.79
7892.33
7894.75
7897.08
7899.31
7901.46
7903.54
7905.51
7907.4
7909.22
7910.97
7912.67
7914.29
7915.83
7917.32
7918.77
7920.18
7921.54
7922.84
7924.12
7925.38
7926.63
7927.85
7929.06
7930.24
7931.43
7932.62
7933.81
7935.01
7936.22
7937.43
7938.65
7939.87
7941.11
7942.35
7943.62
7944.88
7946.14
7947.4
7948.67
7949.94
7951.22
7952.5
7953.77
7955.05
7956.32
7957.58
7958.84
7960.1
7961.35
7962.61
7963.85
7965.08
7966.3
7967.51
7968.71
7969.88
7971.04
7972.19
7973.32
7974.42
7975.5
7976.54
7977.57
7978.56
7979.52
7980.45
7981.34
7982.2
7983.01
7983.79
7984.52
7985.2
7985.84
7986.44
7986.98
7987.48
7987.92
7988.31
7988.66
7988.95
7989.19
7989.37
7989.49
7989.57
7989.59
7989.56
7989.47
7989.33
7989.13
7988.88
7988.59
7988.25
7987.85
7987.41
7986.92
7986.39
7985.81
7985.19
7984.53
7983.83
7983.09
7982.32
7981.51
7980.67
7979.79
7978.89
7977.96
7977
7976.02
7975.02
7974.01
7972.95
7971.88
7970.77
7969.67
7968.51
7967.39
7966.26
7965.1
7963.86
7962.68
7961.22
7960.04
7959.15
7957.96
7956.86
7955.64
7954.45
7953.22
7952.05
7950.8
7949.59
7948.31
7947.08
7945.82
7944.56
7943.25
7941.95
7940.5
7939.17
7938.04
7936.69
7935.44
7934.05
7932.75
7931.32
7930
7928.55
7927.23
7925.77
7924.44
7922.95
7921.61
7920.07
7918.74
7917.41
7915.99
7914.74
7913.16
7911.84
7909.61
7908.55
7907.65
7906.52
7905.35
7904.17
7902.97
7901.81
7900.69
7899.58
7898.49
7897.42
7896.35
7895.3
7894.26
7893.23
7892.21
7891.21
7890.21
7889.22
7888.24
7887.27
7886.32
7885.37
7884.43
7883.51
7882.6
7881.71
7880.84
7879.97
7879.13
7878.3
7877.49
7876.7
7875.92
7875.17
7874.44
7873.72
7873.03
7872.35
7871.7
7871.07
7870.46
7869.87
7869.31
7868.76
7868.24
7867.75
7867.27
7866.82
7866.39
7865.98
7865.6
7865.24
7864.9
7864.58
7864.29
7864.02
7863.78
7863.55
7863.35
7863.18
7863.02
7862.89
7862.78
7862.69
7862.63
7862.59
7862.57
7862.57
7862.59
7862.64
7862.71
7862.79
7862.9
7863.04
7863.19
7863.36
7863.56
7863.78
7864.01
7864.27
7864.55
7864.85
7865.17
7865.52
7865.85
7866.3
7866.58
7867.18
7867.41
7868.11
7868.34
7869.16
8420.21
8420.74
8421.12
8421.28
8421.31
8421.28
8420.81
8419.97
8418.62
8417.47
8417.04
8416.74
8416.47
8415.94
8415.41
8414.85
8414.14
8413.23
8412.18
8411.03
8409.8
8408.53
8407.26
8405.99
8404.72
8403.4
8401.92
8400.62
8399.29
8397.78
8396.18
8394.39
8392.05
8390.41
8389.01
8387.26
8385.3
8383.3
8381.26
8379.19
8377.1
8374.97
8372.81
8370.64
8368.43
8366.21
8363.94
8361.66
8359.3
8356.89
8354.63
8352.38
8350.04
8347.67
8345.29
8342.89
8340.48
8338.07
8335.63
8333.2
8330.73
8328.06
8325.08
8322.56
8320.34
8318.24
8315.79
8313.28
8310.75
8308.21
8305.68
8303.12
8300.29
8297.39
8294.96
8292.45
8289.69
8286.84
8283.72
8280.74
8277.97
8275.04
8271.91
8268.7
8265.33
8262.16
8259.09
8256.02
8252.61
8248.79
8245.15
8241.91
8241.81
8242.68
8231.28
8207.09
8219.42
8213.71
8209.08
8204.69
8199.66
8191.38
8188.06
8181.73
8176.32
8170.27
8164.6
8157.99
8152.29
8145.87
8138.15
8130.88
8124.14
8117.12
8117.43
8106.84
8085.88
8074.29
8062.28
8051.34
8040.93
8028.04
8013.73
7999.22
7984.69
7970.5
7955.6
7939.49
7923.22
7907.08
7890.25
7879.04
7861.12
7836.51
7817.91
7798.66
7780.68
7761.81
7743.99
7725.03
7705.62
7686.51
7667.63
7648.87
7630.37
7611.84
7593.77
7576.13
7559.05
7542.23
7525.75
7509.65
7494.25
7479.47
7465.33
7451.63
7438.53
7425.94
7413.97
7402.71
7392.16
7382.22
7372.78
7363.89
7355.45
7347.68
7340.46
7333.81
7327.52
7321.63
7316.01
7310.87
7306.18
7301.8
7297.63
7293.7
7289.93
7286.51
7283.45
7280.66
7278.03
7275.67
7273.59
7271.81
7270.4
7269.37
7268.61
7268.27
7268.4
7268.95
7269.79
7271.01
7272.63
7274.61
7276.93
7279.57
7282.64
7286.15
7289.9
7293.91
7298.3
7303.02
7308.12
7313.43
7318.98
7324.76
7330.73
7337.02
7343.54
7350.37
7357.32
7364.41
7371.67
7379.03
7386.54
7394.24
7402.11
7410.09
7418.11
7426.19
7434.32
7442.56
7450.9
7459.31
7467.68
7476.08
7484.49
7492.84
7501.22
7509.62
7518.01
7526.45
7534.81
7543.1
7551.34
7559.52
7567.6
7575.63
7583.67
7591.66
7599.53
7607.26
7614.92
7622.54
7630.07
7637.55
7644.97
7652.24
7659.41
7666.46
7673.4
7680.3
7687.11
7693.87
7700.52
7707.05
7713.44
7719.76
7726.01
7732.23
7738.3
7744.28
7750.14
7755.91
7761.61
7767.27
7772.8
7778.23
7783.56
7788.79
7793.91
7798.97
7803.96
7808.85
7813.62
7818.3
7822.87
7827.32
7831.68
7835.95
7840.16
7844.25
7848.21
7852.07
7855.81
7859.44
7862.98
7866.46
7869.8
7873.03
7876.14
7879.14
7882.05
7884.88
7887.6
7890.21
7892.72
7895.13
7897.43
7899.65
7901.79
7903.84
7905.8
7907.67
7909.46
7911.21
7912.87
7914.47
7915.99
7917.46
7918.9
7920.29
7921.63
7922.93
7924.19
7925.44
7926.67
7927.88
7929.07
7930.24
7931.43
7932.61
7933.78
7934.96
7936.16
7937.36
7938.57
7939.79
7941.01
7942.24
7943.5
7944.76
7946.02
7947.27
7948.54
7949.82
7951.1
7952.38
7953.66
7954.94
7956.21
7957.49
7958.76
7960.04
7961.31
7962.58
7963.83
7965.08
7966.32
7967.55
7968.77
7969.96
7971.14
7972.31
7973.46
7974.59
7975.69
7976.76
7977.81
7978.83
7979.81
7980.76
7981.67
7982.55
7983.39
7984.18
7984.94
7985.64
7986.3
7986.91
7987.47
7987.98
7988.44
7988.84
7989.2
7989.5
7989.74
7989.93
7990.06
7990.14
7990.16
7990.13
7990.04
7989.9
7989.7
7989.45
7989.15
7988.8
7988.4
7987.94
7987.45
7986.9
7986.32
7985.68
7985.01
7984.29
7983.55
7982.76
7981.95
7981.08
7980.2
7979.27
7978.34
7977.37
7976.39
7975.35
7974.32
7973.23
7972.17
7971.14
7970.02
7968.95
7967.7
7966.57
7965.11
7963.97
7963.12
7961.95
7960.89
7959.69
7958.53
7957.31
7956.17
7954.92
7953.74
7952.47
7951.26
7950.02
7948.79
7947.48
7946.21
7944.75
7943.45
7942.37
7941.03
7939.83
7938.45
7937.16
7935.74
7934.42
7932.99
7931.66
7930.2
7928.87
7927.36
7926.01
7924.42
7923.11
7921.64
7920.33
7918.78
7917.47
7915.18
7914.13
7913.18
7912.03
7910.79
7909.52
7908.25
7906.96
7905.72
7904.52
7903.34
7902.17
7901.01
7899.87
7898.74
7897.63
7896.53
7895.44
7894.37
7893.31
7892.26
7891.23
7890.2
7889.19
7888.19
7887.2
7886.22
7885.26
7884.31
7883.37
7882.45
7881.55
7880.66
7879.78
7878.93
7878.09
7877.28
7876.48
7875.7
7874.93
7874.19
7873.47
7872.78
7872.1
7871.44
7870.81
7870.2
7869.6
7869.04
7868.49
7867.97
7867.47
7866.99
7866.54
7866.11
7865.7
7865.31
7864.95
7864.62
7864.3
7864.01
7863.74
7863.5
7863.27
7863.07
7862.9
7862.74
7862.61
7862.5
7862.42
7862.35
7862.31
7862.29
7862.3
7862.32
7862.37
7862.44
7862.53
7862.64
7862.77
7862.93
7863.1
7863.3
7863.52
7863.76
7864.02
7864.3
7864.6
7864.92
7865.26
7865.6
7866.05
7866.33
7866.93
7867.16
7867.85
7868.09
7868.91
8421.5
8422
8422.33
8422.46
8422.47
8422.31
8421.95
8421.32
8420.04
8419.03
8418.49
8418.58
8418.22
8417.47
8416.83
8416.11
8415.28
8414.35
8413.29
8412.16
8410.95
8409.7
8408.41
8407.1
8405.77
8404.41
8403
8401.55
8400.04
8398.46
8396.81
8395.05
8393.18
8391.41
8389.66
8387.75
8385.76
8383.74
8381.69
8379.61
8377.51
8375.37
8373.2
8370.97
8368.74
8366.5
8364.26
8361.97
8359.64
8356.88
8354.37
8352.33
8350.19
8347.85
8345.46
8343.06
8340.64
8338.21
8335.76
8333.29
8330.82
8328.32
8325.74
8322.52
8320.14
8317.99
8315.59
8313.06
8310.49
8307.89
8305.28
8302.6
8299.56
8296.72
8294.07
8291.63
8288.97
8286.1
8283.07
8280.05
8276.99
8273.85
8270.61
8266.94
8263.62
8260.69
8257.57
8254.16
8250.6
8246.95
8243.38
8239.56
8235.4
8231.4
8227.59
8227.15
8227.69
8215.57
8189.42
8202.72
8197.05
8191.57
8186.36
8180.73
8171.72
8167.85
8160.79
8154.7
8148.1
8141.8
8134.71
8127.67
8120.33
8111.18
8102.86
8094.8
8086.86
8087.02
8074.75
8051.23
8037.81
8024.38
8011.83
7999.84
7985.59
7969.67
7953.84
7937.7
7922.33
7906.05
7888.43
7871.48
7853.35
7837.01
7820.03
7807.27
7788.91
7763.18
7743.87
7724.3
7705.33
7687.1
7667.9
7648.32
7629.16
7610.3
7592.03
7574.34
7556.88
7539.68
7522.98
7506.6
7490.97
7476.07
7461.65
7447.75
7434.5
7421.83
7409.72
7398.36
7387.72
7377.62
7368.09
7359.13
7350.66
7342.77
7335.52
7328.72
7322.33
7316.36
7310.72
7305.59
7300.86
7296.4
7292.22
7288.24
7284.57
7281.34
7278.39
7275.61
7273.08
7270.8
7268.73
7267.04
7265.87
7265.03
7264.45
7264.18
7264.24
7264.74
7265.73
7267.17
7268.9
7270.98
7273.41
7276.1
7279.25
7282.77
7286.64
7290.91
7295.54
7300.37
7305.49
7310.88
7316.48
7322.32
7328.5
7334.91
7341.62
7348.53
7355.55
7362.75
7370.13
7377.64
7385.23
7392.99
7400.9
7408.99
7417.16
7425.37
7433.61
7441.9
7450.35
7458.8
7467.23
7475.66
7484.19
7492.73
7501.19
7509.58
7518.01
7526.45
7534.93
7543.29
7551.59
7559.82
7567.93
7576
7584.11
7592.14
7600.03
7607.84
7615.51
7623.12
7630.67
7638.22
7645.62
7652.9
7660.09
7667.14
7674.09
7680.99
7687.83
7694.61
7701.24
7707.77
7714.18
7720.48
7726.72
7732.94
7739.01
7744.98
7750.82
7756.58
7762.29
7767.96
7773.49
7778.92
7784.25
7789.47
7794.59
7799.65
7804.65
7809.53
7814.3
7818.97
7823.54
7828.01
7832.35
7836.64
7840.84
7844.91
7848.88
7852.73
7856.48
7860.1
7863.61
7867.09
7870.42
7873.64
7876.74
7879.72
7882.6
7885.43
7888.13
7890.72
7893.2
7895.59
7897.88
7900.09
7902.2
7904.22
7906.15
7908
7909.79
7911.5
7913.14
7914.72
7916.23
7917.68
7919.09
7920.46
7921.78
7923.06
7924.32
7925.55
7926.76
7927.94
7929.11
7930.28
7931.45
7932.61
7933.77
7934.93
7936.11
7937.29
7938.49
7939.7
7940.91
7942.14
7943.37
7944.62
7945.87
7947.14
7948.41
7949.68
7950.96
7952.25
7953.53
7954.81
7956.1
7957.39
7958.69
7959.97
7961.25
7962.54
7963.81
7965.08
7966.35
7967.6
7968.84
7970.06
7971.27
7972.46
7973.64
7974.79
7975.92
7977.02
7978.1
7979.14
7980.16
7981.13
7982.07
7982.98
7983.84
7984.66
7985.44
7986.17
7986.85
7987.48
7988.06
7988.59
7989.06
7989.48
7989.85
7990.16
7990.41
7990.61
7990.75
7990.83
7990.86
7990.83
7990.74
7990.59
7990.39
7990.14
7989.84
7989.48
7989.07
7988.61
7988.09
7987.55
7986.94
7986.29
7985.6
7984.89