/*--------------------------------*- C++ -*----------------------------------*\
| =========                 |                                                 |
| \\      /  F ield         | OpenFOAM: The Open Source CFD Toolbox           |
|  \\    /   O peration     | Version:  v2006                                 |
|   \\  /    A nd           | Website:  www.openfoam.com                      |
|    \\/     M anipulation  |                                                 |
\*---------------------------------------------------------------------------*/
FoamFile
{
    version     2.0;
    format      ascii;
    class       surfaceScalarField;
    location    "5.6";
    object      alphaPhi0.water;
}
// * * * * * * * * * * * * * * * * * * * * * * * * * * * * * * * * * * * * * //

dimensions      [0 3 -1 0 0 0 0];
oriented        oriented;


internalField   nonuniform List<scalar> 
65390
(
-0.000113463
1.07672e-06
-0.000113903
4.38358e-07
-0.000114748
8.43866e-07
-0.000116006
1.25688e-06
-0.000117223
1.21621e-06
-0.000117949
7.25303e-07
-0.00011732
-6.29591e-07
-0.00011469
-2.63119e-06
-0.000109564
-5.12631e-06
-0.000102649
-6.91491e-06
-9.51141e-05
-7.53533e-06
-8.80836e-05
-7.03073e-06
-8.14338e-05
-6.64995e-06
-7.43711e-05
-7.0628e-06
-6.69535e-05
-7.41762e-06
-6.00696e-05
-6.88393e-06
-5.38799e-05
-6.18964e-06
-4.89781e-05
-4.90175e-06
-4.58136e-05
-3.1643e-06
-4.48003e-05
-1.01317e-06
-4.60123e-05
1.21216e-06
-4.93107e-05
3.29868e-06
-5.53446e-05
6.03398e-06
-6.33843e-05
8.03963e-06
-6.95712e-05
6.18758e-06
-7.24252e-05
2.863e-06
-7.38408e-05
1.4325e-06
-7.47308e-05
8.90043e-07
-7.51153e-05
3.84563e-07
-7.48647e-05
-2.76443e-07
-7.40589e-05
-8.05832e-07
-7.29828e-05
-1.07612e-06
-7.19364e-05
-1.04636e-06
-7.10805e-05
-8.48464e-07
-7.04706e-05
-5.92128e-07
-6.99383e-05
-5.37049e-07
-6.91755e-05
-7.70047e-07
-6.82506e-05
-9.20741e-07
-6.74529e-05
-7.82896e-07
-6.6887e-05
-5.05425e-07
-6.63954e-05
-5.60059e-07
-6.52943e-05
-1.1209e-06
-6.3613e-05
-1.68281e-06
-6.17524e-05
-1.86087e-06
-6.01597e-05
-1.58086e-06
-5.90389e-05
-1.09105e-06
-5.84451e-05
-5.93769e-07
-5.7866e-05
-6.06322e-07
-5.67378e-05
-1.13782e-06
-5.51185e-05
-1.62031e-06
-5.33012e-05
-1.81889e-06
-5.16939e-05
-1.60371e-06
-5.04384e-05
-1.2459e-06
-4.94297e-05
-9.96973e-07
-4.8373e-05
-1.07453e-06
-4.70375e-05
-1.33506e-06
-4.55834e-05
-1.45357e-06
-4.40881e-05
-1.49531e-06
-4.25809e-05
-1.50721e-06
-4.09634e-05
-1.62127e-06
-3.90312e-05
-1.93288e-06
-3.69843e-05
-2.04728e-06
-3.51927e-05
-1.79036e-06
-3.38684e-05
-1.31583e-06
-3.29687e-05
-8.90373e-07
-3.19899e-05
-9.89784e-07
-3.06723e-05
-1.32063e-06
-2.92573e-05
-1.41476e-06
-2.81409e-05
-1.11561e-06
-2.71644e-05
-9.75715e-07
-2.60746e-05
-1.09059e-06
-2.45875e-05
-1.48866e-06
-2.27097e-05
-1.8782e-06
-2.04301e-05
-2.27962e-06
-1.78085e-05
-2.62157e-06
-1.48085e-05
-2.99966e-06
-1.15559e-05
-3.24875e-06
-7.45484e-06
-4.09868e-06
-3.55808e-06
-3.89672e-06
-1.90519e-06
-1.65288e-06
-6.48891e-07
-1.25627e-06
-7.19722e-07
7.08618e-08
-5.49841e-07
-1.70171e-07
-8.92166e-07
3.42185e-07
-1.80672e-06
9.14551e-07
-2.84224e-06
1.03553e-06
-4.25669e-06
1.41447e-06
-5.56004e-06
1.30356e-06
-6.63114e-06
1.07136e-06
-7.34403e-06
7.13186e-07
-7.74536e-06
4.00463e-07
-7.84508e-06
9.96703e-08
-7.9191e-06
7.41358e-08
-8.0444e-06
1.25906e-07
-8.31384e-06
2.71283e-07
-8.70875e-06
3.94915e-07
-9.50798e-06
7.97913e-07
-1.06406e-05
1.13216e-06
-1.25871e-05
1.94713e-06
-1.48406e-05
2.25292e-06
-1.65983e-05
1.75614e-06
-1.77219e-05
1.12347e-06
-1.78473e-05
1.25566e-07
-1.77502e-05
-9.55331e-08
-1.74373e-05
-3.10466e-07
-1.7228e-05
-2.09206e-07
-1.74085e-05
1.80575e-07
-1.76514e-05
2.42928e-07
-1.77253e-05
7.39453e-08
-1.75387e-05
-1.89964e-07
-1.73123e-05
-2.26372e-07
-1.69121e-05
-4.00169e-07
-1.64402e-05
-4.707e-07
-1.6066e-05
-3.72791e-07
-1.56659e-05
-4.00041e-07
-1.52603e-05
-4.08263e-07
-1.46982e-05
-5.61969e-07
-1.42501e-05
-4.48292e-07
-1.4019e-05
-2.29881e-07
-1.38664e-05
-1.51547e-07
-1.38036e-05
-6.31127e-08
-1.36655e-05
-1.39234e-07
-1.35707e-05
-9.52731e-08
-1.34578e-05
-1.12903e-07
-1.33015e-05
-1.55669e-07
-1.31387e-05
-1.60892e-07
-1.29677e-05
-1.70935e-07
-1.27896e-05
-1.79447e-07
-1.25749e-05
-2.15149e-07
-1.23312e-05
-2.44558e-07
-1.20828e-05
-2.4754e-07
-1.18237e-05
-2.59151e-07
-1.15585e-05
-2.65543e-07
-1.12647e-05
-2.9364e-07
-1.09591e-05
-3.04925e-07
-1.06395e-05
-3.19054e-07
-1.02971e-05
-3.43586e-07
-9.93961e-06
-3.58089e-07
-9.56596e-06
-3.73682e-07
-9.18264e-06
-3.83364e-07
-8.78969e-06
-3.92988e-07
-8.39086e-06
-3.98849e-07
-7.98342e-06
-4.07628e-07
-7.56214e-06
-4.21273e-07
-7.13597e-06
-4.24655e-07
-6.72135e-06
-4.1462e-07
-6.30346e-06
-4.17888e-07
-5.87675e-06
-4.27206e-07
-5.4364e-06
-4.40921e-07
-4.98297e-06
-4.53463e-07
-4.53139e-06
-4.51613e-07
-4.09108e-06
-4.40092e-07
-3.65491e-06
-4.35594e-07
-3.20934e-06
-4.46229e-07
-2.75195e-06
-4.57479e-07
-2.29167e-06
-4.60289e-07
-1.83614e-06
-4.55545e-07
-1.38574e-06
-4.50264e-07
-9.40019e-07
-4.45724e-07
-4.95585e-07
-4.44428e-07
-5.48315e-08
-4.40747e-07
3.82746e-07
-4.37551e-07
8.18293e-07
-4.35545e-07
1.25243e-06
-4.34143e-07
1.68044e-06
-4.28001e-07
2.09624e-06
-4.1591e-07
2.50802e-06
-4.11711e-07
2.9216e-06
-4.13555e-07
3.33024e-06
-4.08648e-07
3.72621e-06
-3.9613e-07
4.11462e-06
-3.88358e-07
4.50355e-06
-3.88808e-07
4.89126e-06
-3.87733e-07
5.27106e-06
-3.79813e-07
5.63755e-06
-3.66832e-07
5.99626e-06
-3.58663e-07
6.35509e-06
-3.58618e-07
6.71059e-06
-3.55491e-07
7.05704e-06
-3.46451e-07
7.39274e-06
-3.36071e-07
7.72185e-06
-3.29266e-07
8.047e-06
-3.24992e-07
8.36096e-06
-3.13782e-07
8.66271e-06
-3.01563e-07
8.95817e-06
-2.95048e-07
9.25058e-06
-2.92494e-07
9.53653e-06
-2.86029e-07
9.80947e-06
-2.73335e-07
1.00704e-05
-2.60801e-07
1.03205e-05
-2.49457e-07
1.05623e-05
-2.4136e-07
1.07958e-05
-2.3352e-07
1.10207e-05
-2.24862e-07
1.12319e-05
-2.11899e-07
1.14301e-05
-1.98168e-07
1.16161e-05
-1.85507e-07
1.17914e-05
-1.74502e-07
1.19576e-05
-1.66041e-07
1.21156e-05
-1.57996e-07
1.22623e-05
-1.46674e-07
1.23926e-05
-1.30611e-07
1.25061e-05
-1.14248e-07
1.26078e-05
-1.01602e-07
1.27011e-05
-9.25084e-08
1.27858e-05
-8.40782e-08
1.28575e-05
-7.16215e-08
1.29141e-05
-5.66347e-08
1.2955e-05
-4.16076e-08
1.29852e-05
-2.97262e-08
1.30068e-05
-2.11866e-08
1.30162e-05
-9.37508e-09
1.30086e-05
7.54369e-09
1.29855e-05
2.28961e-08
1.29545e-05
3.14622e-08
1.29165e-05
3.82346e-08
1.28685e-05
4.77935e-08
1.2805e-05
6.30205e-08
1.27238e-05
8.0772e-08
1.2631e-05
9.32162e-08
1.25316e-05
1.00019e-07
1.2427e-05
1.04634e-07
1.23146e-05
1.12397e-07
1.21902e-05
1.24082e-07
1.20496e-05
1.39852e-07
1.18986e-05
1.5107e-07
1.17417e-05
1.57759e-07
1.15784e-05
1.6336e-07
1.14109e-05
1.67537e-07
1.12375e-05
1.7337e-07
1.10527e-05
1.84271e-07
1.08566e-05
1.96011e-07
1.06555e-05
2.01533e-07
1.0451e-05
2.046e-07
1.02428e-05
2.08285e-07
1.00317e-05
2.10785e-07
9.81674e-06
2.15004e-07
9.59518e-06
2.21556e-07
9.36831e-06
2.27316e-07
9.13865e-06
2.29656e-07
8.90689e-06
2.31764e-07
8.67073e-06
2.35899e-07
8.43222e-06
2.38602e-07
8.19489e-06
2.37596e-07
7.95924e-06
2.35654e-07
7.72309e-06
2.36146e-07
7.48424e-06
2.38696e-07
7.23853e-06
2.4525e-07
6.99376e-06
2.45106e-07
6.75701e-06
2.36975e-07
6.52244e-06
2.34565e-07
6.28774e-06
2.34702e-07
6.0519e-06
2.35683e-07
5.81556e-06
2.36259e-07
5.58228e-06
2.33279e-07
5.35333e-06
2.29184e-07
5.12777e-06
2.25571e-07
4.90629e-06
2.21481e-07
4.68718e-06
2.19113e-07
4.46982e-06
2.17282e-07
4.2559e-06
2.13921e-07
4.04701e-06
2.0894e-07
3.84504e-06
2.02041e-07
3.64814e-06
1.96901e-07
3.45335e-06
1.94786e-07
3.25959e-06
1.93711e-07
3.06825e-06
1.91382e-07
2.88323e-06
1.8499e-07
2.70865e-06
1.74657e-07
2.54013e-06
1.68528e-07
2.37572e-06
1.64417e-07
2.21494e-06
1.60772e-07
2.05585e-06
1.59032e-07
1.90002e-06
1.5589e-07
1.75106e-06
1.4903e-07
1.60897e-06
1.42119e-07
1.47185e-06
1.37133e-07
1.33955e-06
1.32318e-07
1.21234e-06
1.27222e-07
1.09053e-06
1.21809e-07
9.73327e-07
1.17197e-07
8.57998e-07
1.15313e-07
7.44714e-07
1.13278e-07
6.37705e-07
1.07016e-07
5.37811e-07
9.98913e-08
4.42829e-07
9.49786e-08
3.51597e-07
9.12275e-08
2.6396e-07
8.76288e-08
1.78984e-07
8.49671e-08
9.62434e-08
8.27282e-08
1.77272e-08
7.85024e-08
-5.5229e-08
7.29386e-08
-1.23372e-07
6.81236e-08
-1.87728e-07
6.43357e-08
-2.48879e-07
6.11324e-08
-3.08412e-07
5.95169e-08
-3.65195e-07
5.67676e-08
-4.16808e-07
5.1604e-08
-4.64477e-07
4.76631e-08
-5.08214e-07
4.37347e-08
-5.47688e-07
3.94769e-08
-5.85189e-07
3.75039e-08
-6.19715e-07
3.45254e-08
-6.49233e-07
2.95173e-08
-6.74394e-07
2.51531e-08
-6.95471e-07
2.10785e-08
-7.13675e-07
1.81888e-08
-7.27797e-07
1.41072e-08
-7.37162e-07
9.34953e-09
-7.41478e-07
4.29958e-09
-7.41381e-07
-1.13957e-10
-7.38826e-07
-2.56934e-09
-7.33534e-07
-5.3105e-09
-7.24215e-07
-9.34327e-09
-7.0968e-07
-1.45542e-08
-6.90884e-07
-1.88133e-08
-6.69872e-07
-2.10263e-08
-6.46724e-07
-2.31681e-08
-6.20501e-07
-2.62401e-08
-5.91733e-07
-2.87826e-08
-5.60929e-07
-3.08165e-08
-5.29588e-07
-3.13485e-08
-4.985e-07
-3.1101e-08
-4.6667e-07
-3.18403e-08
-4.34222e-07
-3.24555e-08
-4.02508e-07
-3.17192e-08
-3.73149e-07
-2.93622e-08
-3.4629e-07
-2.68617e-08
-3.20664e-07
-2.56277e-08
-2.96177e-07
-2.44903e-08
-2.73677e-07
-2.25018e-08
-2.54232e-07
-1.94444e-08
-2.38383e-07
-1.58485e-08
-2.24569e-07
-1.38151e-08
-2.11437e-07
-1.31324e-08
-1.98578e-07
-1.28594e-08
-1.86239e-07
-1.23389e-08
-1.74668e-07
-1.15693e-08
-1.63836e-07
-1.08318e-08
-1.53599e-07
-1.02359e-08
-1.42968e-07
-1.0631e-08
-1.31314e-07
-1.16541e-08
-1.18609e-07
-1.27044e-08
-1.04907e-07
-1.37028e-08
-9.0793e-08
-1.41142e-08
-7.60635e-08
-1.47313e-08
-5.96844e-08
-1.63818e-08
-4.12718e-08
-1.84155e-08
-2.09749e-08
-2.03003e-08
6.07894e-10
-2.15863e-08
2.32253e-08
-2.26207e-08
4.72246e-08
-2.40024e-08
7.33114e-08
-2.60891e-08
1.01492e-07
-2.81819e-08
1.30919e-07
-2.94295e-08
1.61589e-07
-3.06698e-08
1.93961e-07
-3.23718e-08
2.28036e-07
-3.40743e-08
2.63557e-07
-3.55213e-08
3.00358e-07
-3.68002e-08
3.38495e-07
-3.81369e-08
3.77869e-07
-3.93732e-08
4.18356e-07
-4.04868e-08
4.59864e-07
-4.15068e-08
5.02089e-07
-4.2224e-08
5.44946e-07
-4.28558e-08
5.88409e-07
-4.34609e-08
6.32614e-07
-4.42031e-08
6.77473e-07
-4.48548e-08
7.22781e-07
-4.53033e-08
7.68224e-07
-4.5439e-08
8.13689e-07
-4.54602e-08
8.59288e-07
-4.55932e-08
9.05133e-07
-4.58396e-08
9.51073e-07
-4.59347e-08
9.96808e-07
-4.57307e-08
1.04222e-06
-4.54096e-08
1.08733e-06
-4.51043e-08
1.13205e-06
-4.47237e-08
1.17617e-06
-4.41236e-08
1.21958e-06
-4.34056e-08
1.26251e-06
-4.29282e-08
1.30504e-06
-4.25264e-08
1.34713e-06
-4.20945e-08
1.38852e-06
-4.13909e-08
1.42912e-06
-4.06005e-08
1.46886e-06
-3.9736e-08
1.5076e-06
-3.8744e-08
1.54556e-06
-3.79636e-08
1.58284e-06
-3.72839e-08
1.61928e-06
-3.64425e-08
1.65445e-06
-3.51734e-08
1.68862e-06
-3.41769e-08
1.72198e-06
-3.3359e-08
1.75443e-06
-3.2448e-08
1.78572e-06
-3.12962e-08
1.81605e-06
-3.03224e-08
1.84526e-06
-2.92108e-08
1.87315e-06
-2.7901e-08
1.89982e-06
-2.66635e-08
1.92539e-06
-2.55771e-08
1.95009e-06
-2.46984e-08
1.97396e-06
-2.38764e-08
1.99683e-06
-2.2873e-08
2.01845e-06
-2.16277e-08
2.03942e-06
-2.09686e-08
2.05896e-06
-1.95401e-08
2.07859e-06
-1.96281e-08
2.09728e-06
-1.86867e-08
2.11592e-06
-1.86456e-08
2.13356e-06
-1.76439e-08
2.15021e-06
-1.66538e-08
2.16596e-06
-1.5752e-08
2.17982e-06
-1.38738e-08
2.19445e-06
-1.46336e-08
2.20788e-06
-1.34368e-08
2.21917e-06
-1.12945e-08
2.22998e-06
-1.08088e-08
2.23612e-06
-6.14484e-09
2.23811e-06
-1.98374e-09
2.24781e-06
-9.69426e-09
2.25551e-06
-7.69611e-09
2.26042e-06
-4.90993e-09
2.27144e-06
-1.10108e-08
2.24972e-06
2.17162e-08
2.21654e-06
3.31871e-08
2.22961e-06
-1.30744e-08
2.21859e-06
1.10234e-08
2.24891e-06
-3.0328e-08
2.3186e-06
-6.96962e-08
2.51752e-06
-1.98926e-07
2.76644e-06
-2.48921e-07
2.91695e-06
-1.50514e-07
3.03212e-06
-1.15181e-07
3.1009e-06
-6.87798e-08
3.1503e-06
-4.94045e-08
3.18274e-06
-3.2448e-08
3.2139e-06
-3.11613e-08
3.24018e-06
-2.62834e-08
3.2628e-06
-2.26263e-08
3.27488e-06
-1.20737e-08
3.29136e-06
-1.64811e-08
3.26742e-06
2.39414e-08
3.22956e-06
3.78585e-08
3.23865e-06
-9.08791e-09
3.22493e-06
1.37269e-08
3.25146e-06
-2.65256e-08
3.32185e-06
-7.03832e-08
3.51972e-06
-1.9787e-07
3.76061e-06
-2.40884e-07
3.9012e-06
-1.40592e-07
4.01417e-06
-1.12965e-07
4.07638e-06
-6.221e-08
4.12603e-06
-4.96443e-08
4.15885e-06
-3.28215e-08
4.18115e-06
-2.22978e-08
4.19017e-06
-9.0205e-09
4.18222e-06
7.95303e-09
4.1716e-06
1.06109e-08
4.16332e-06
8.28474e-09
4.14762e-06
1.56998e-08
4.14663e-06
9.9281e-10
4.11826e-06
2.83612e-08
3.99055e-06
1.27718e-07
3.88001e-06
1.10536e-07
3.82714e-06
5.28694e-08
3.76104e-06
6.60966e-08
3.94883e-06
-1.87819e-07
4.28612e-06
-3.37329e-07
5.22734e-06
-9.41269e-07
6.39975e-06
-1.17256e-06
7.27435e-06
-8.74902e-07
7.87421e-06
-5.99904e-07
8.2999e-06
-4.2574e-07
8.61164e-06
-3.11716e-07
8.84741e-06
-2.35792e-07
9.03188e-06
-1.84499e-07
9.17599e-06
-1.44113e-07
9.29169e-06
-1.1569e-07
9.38653e-06
-9.48334e-08
9.46657e-06
-8.00297e-08
9.53119e-06
-6.46168e-08
9.58447e-06
-5.32585e-08
9.63053e-06
-4.60463e-08
9.66726e-06
-3.66985e-08
9.6971e-06
-2.98219e-08
9.72306e-06
-2.59531e-08
9.74189e-06
-1.88093e-08
9.75602e-06
-1.4113e-08
9.76704e-06
-1.10091e-08
9.77635e-06
-9.30089e-09
9.78011e-06
-3.75576e-09
9.77988e-06
2.40858e-10
9.77739e-06
2.49712e-09
9.77295e-06
4.44808e-09
9.76656e-06
6.3753e-09
9.75811e-06
8.44391e-09
9.74768e-06
1.0425e-08
9.73552e-06
1.21517e-08
9.72129e-06
1.42107e-08
9.70526e-06
1.60171e-08
9.68665e-06
1.86069e-08
9.67017e-06
1.64783e-08
9.65384e-06
1.63333e-08
9.63637e-06
1.7463e-08
9.6177e-06
1.86658e-08
9.5977e-06
1.99906e-08
9.57618e-06
2.1521e-08
9.55371e-06
2.24777e-08
9.53046e-06
2.32639e-08
9.50621e-06
2.42512e-08
9.48094e-06
2.52711e-08
9.45472e-06
2.62189e-08
9.42791e-06
2.6809e-08
9.40182e-06
2.60871e-08
9.37166e-06
3.01591e-08
9.33987e-06
3.17904e-08
9.3079e-06
3.19652e-08
9.27586e-06
3.2046e-08
9.24356e-06
3.22982e-08
9.21135e-06
3.2209e-08
9.179e-06
3.2349e-08
9.14631e-06
3.26934e-08
9.11304e-06
3.32643e-08
9.07898e-06
3.4062e-08
9.04414e-06
3.48366e-08
9.00881e-06
3.5332e-08
8.97339e-06
3.54091e-08
8.9381e-06
3.52883e-08
8.90255e-06
3.55568e-08
8.86618e-06
3.63626e-08
8.82868e-06
3.74994e-08
8.7903e-06
3.83807e-08
8.75205e-06
3.82445e-08
8.71436e-06
3.76883e-08
8.67659e-06
3.77683e-08
8.63768e-06
3.89019e-08
8.59774e-06
3.99275e-08
8.55825e-06
3.94841e-08
8.51943e-06
3.88278e-08
8.48027e-06
3.91524e-08
8.43932e-06
4.0941e-08
8.40196e-06
3.73551e-08
8.36623e-06
3.57307e-08
8.33158e-06
3.46428e-08
8.29241e-06
3.91626e-08
8.25139e-06
4.10106e-08
8.21062e-06
4.07669e-08
8.16889e-06
4.17351e-08
8.12673e-06
4.21537e-08
4.51264e-08
-0.0001126
1.22621e-06
-0.000112495
3.34741e-07
-0.000112412
7.62724e-07
-0.000112256
1.1017e-06
-0.000111873
8.34459e-07
-0.000111012
-1.3472e-07
-0.000109353
-2.28775e-06
-0.000106544
-5.43966e-06
-0.000102658
-9.01242e-06
-9.84761e-05
-1.10962e-05
-9.45944e-05
-1.14167e-05
-9.08702e-05
-1.07547e-05
-8.73258e-05
-1.01942e-05
-8.42891e-05
-1.00992e-05
-8.20259e-05
-9.68049e-06
-8.00583e-05
-8.85118e-06
-7.83128e-05
-7.93465e-06
-7.68592e-05
-6.35476e-06
-7.58833e-05
-4.13965e-06
-7.63236e-05
-5.72282e-07
-7.78587e-05
2.74792e-06
-7.91825e-05
4.62382e-06
-7.89411e-05
5.79225e-06
-7.69316e-05
6.02931e-06
-7.53441e-05
4.59944e-06
-7.50503e-05
2.57331e-06
-7.50782e-05
1.47333e-06
-7.50389e-05
8.59965e-07
-7.4864e-05
2.09656e-07
-7.46142e-05
-5.46935e-07
-7.42538e-05
-1.16834e-06
-7.36993e-05
-1.63061e-06
-7.28198e-05
-1.91788e-06
-7.17628e-05
-1.88051e-06
-7.07509e-05
-1.60478e-06
-6.99614e-05
-1.3321e-06
-6.93871e-05
-1.35875e-06
-6.88e-05
-1.49369e-06
-6.80229e-05
-1.53227e-06
-6.7095e-05
-1.43329e-06
-6.59522e-05
-1.70275e-06
-6.47606e-05
-2.35362e-06
-6.34769e-05
-2.97472e-06
-6.20677e-05
-3.27062e-06
-6.06086e-05
-3.02728e-06
-5.9226e-05
-2.44265e-06
-5.8012e-05
-1.8078e-06
-5.69019e-05
-1.71644e-06
-5.57522e-05
-2.3097e-06
-5.43779e-05
-3.01208e-06
-5.2857e-05
-3.34181e-06
-5.13295e-05
-3.12748e-06
-4.98889e-05
-2.67625e-06
-4.8623e-05
-2.25433e-06
-4.7535e-05
-2.16254e-06
-4.64629e-05
-2.41453e-06
-4.52644e-05
-2.65359e-06
-4.39109e-05
-2.85148e-06
-4.23956e-05
-3.02298e-06
-4.07721e-05
-3.24721e-06
-3.91405e-05
-3.56798e-06
-3.75489e-05
-3.63854e-06
-3.60562e-05
-3.27826e-06
-3.47136e-05
-2.64243e-06
-3.33295e-05
-2.27286e-06
-3.18129e-05
-2.50795e-06
-3.02231e-05
-2.91756e-06
-2.88483e-05
-2.78844e-06
-2.76803e-05
-2.27542e-06
-2.66086e-05
-2.04737e-06
-2.55517e-05
-2.15195e-06
-2.44167e-05
-2.63212e-06
-2.30398e-05
-3.25666e-06
-2.14761e-05
-3.8433e-06
-1.98503e-05
-4.24684e-06
-1.85423e-05
-4.30228e-06
-1.76161e-05
-4.17056e-06
-1.72483e-05
-4.46642e-06
-1.60448e-05
-5.10016e-06
-1.31158e-05
-4.5836e-06
-9.06371e-06
-5.3134e-06
-4.63195e-06
-4.36179e-06
-2.58943e-06
-2.21273e-06
-6.63666e-07
-1.58353e-06
-2.26117e-08
2.73525e-07
4.64393e-07
5.48559e-07
4.65098e-07
1.4138e-06
-4.81574e-07
2.25026e-06
-2.14343e-06
2.73339e-06
-3.77045e-06
2.34084e-06
-5.3396e-06
1.96946e-06
-6.45694e-06
1.2148e-06
-7.14765e-06
7.64725e-07
-7.47164e-06
4.50666e-07
-7.587e-06
3.88267e-07
-7.71033e-06
5.18249e-07
-7.77302e-06
8.59817e-07
-7.84637e-06
1.20414e-06
-7.67009e-06
1.77085e-06
-8.36792e-06
2.95185e-06
-1.01952e-05
3.58311e-06
-1.24511e-05
3.37829e-06
-1.48539e-05
2.52811e-06
-1.68539e-05
1.90429e-06
-1.82714e-05
1.11089e-06
-1.86271e-05
1.46543e-07
-1.84359e-05
-1.064e-08
-1.81102e-05
-8.27192e-08
-1.75506e-05
-4.88919e-07
-1.71037e-05
-6.36963e-07
-1.70489e-05
-2.81116e-07
-1.69611e-05
-4.88027e-07
-1.67553e-05
-6.74182e-07
-1.65534e-05
-5.71874e-07
-1.62165e-05
-7.36986e-07
-1.58168e-05
-8.07915e-07
-1.56264e-05
-7.53954e-07
-1.5405e-05
-6.7254e-07
-1.50366e-05
-5.9892e-07
-1.45549e-05
-6.32078e-07
-1.41506e-05
-4.66738e-07
-1.39173e-05
-3.72521e-07
-1.36659e-05
-3.47836e-07
-1.35011e-05
-2.77671e-07
-1.33044e-05
-3.4928e-07
-1.3137e-05
-3.28339e-07
-1.29734e-05
-3.34501e-07
-1.27821e-05
-3.70727e-07
-1.25713e-05
-4.28325e-07
-1.2343e-05
-4.73697e-07
-1.21106e-05
-4.79037e-07
-1.18502e-05
-5.19561e-07
-1.15778e-05
-5.38117e-07
-1.12885e-05
-5.83443e-07
-1.09879e-05
-6.05136e-07
-1.06625e-05
-6.4401e-07
-1.03138e-05
-6.91816e-07
-9.95688e-06
-7.15227e-07
-9.58916e-06
-7.42755e-07
-9.21169e-06
-7.61099e-07
-8.82528e-06
-7.79103e-07
-8.42581e-06
-7.98059e-07
-8.01882e-06
-8.15175e-07
-7.60331e-06
-8.37235e-07
-7.18329e-06
-8.43815e-07
-6.76227e-06
-8.3486e-07
-6.33729e-06
-8.42867e-07
-5.90328e-06
-8.61222e-07
-5.46228e-06
-8.82722e-07
-5.01865e-06
-8.97546e-07
-4.57979e-06
-8.90385e-07
-4.13821e-06
-8.80878e-07
-3.69297e-06
-8.80848e-07
-3.24076e-06
-8.98418e-07
-2.78422e-06
-9.14727e-07
-2.33132e-06
-9.13339e-07
-1.88616e-06
-9.00639e-07
-1.44082e-06
-8.95378e-07
-9.89356e-07
-8.9724e-07
-5.35532e-07
-8.98231e-07
-8.90936e-08
-8.87196e-07
3.47693e-07
-8.74304e-07
7.80414e-07
-8.68136e-07
1.21348e-06
-8.67208e-07
1.642e-06
-8.56546e-07
2.06124e-06
-8.35298e-07
2.47661e-06
-8.26965e-07
2.89173e-06
-8.28582e-07
3.30123e-06
-8.18157e-07
3.6994e-06
-7.94789e-07
4.09176e-06
-7.80446e-07
4.48217e-06
-7.78939e-07
4.86984e-06
-7.75457e-07
5.24917e-06
-7.59292e-07
5.61871e-06
-7.36903e-07
5.98252e-06
-7.22437e-07
6.34187e-06
-7.17282e-07
6.69563e-06
-7.09258e-07
7.04187e-06
-6.92982e-07
7.38148e-06
-6.75835e-07
7.71581e-06
-6.63445e-07
8.0405e-06
-6.49769e-07
8.35421e-06
-6.27755e-07
8.65931e-06
-6.06573e-07
8.95634e-06
-5.91973e-07
9.24874e-06
-5.838e-07
9.53405e-06
-5.70738e-07
9.80938e-06
-5.49574e-07
1.00751e-05
-5.26429e-07
1.03269e-05
-5.01051e-07
1.05676e-05
-4.8096e-07
1.07982e-05
-4.63812e-07
1.10209e-05
-4.47622e-07
1.12342e-05
-4.26175e-07
1.14376e-05
-4.01622e-07
1.16271e-05
-3.74831e-07
1.18022e-05
-3.49549e-07
1.19678e-05
-3.30256e-07
1.21243e-05
-3.13927e-07
1.22694e-05
-2.91771e-07
1.23985e-05
-2.60912e-07
1.25151e-05
-2.30791e-07
1.26206e-05
-2.06952e-07
1.27161e-05
-1.87186e-07
1.27994e-05
-1.66521e-07
1.28682e-05
-1.40438e-07
1.29225e-05
-1.11582e-07
1.29656e-05
-8.46433e-08
1.29981e-05
-6.21693e-08
1.30198e-05
-4.19406e-08
1.30262e-05
-1.58132e-08
1.30161e-05
1.67895e-08
1.29968e-05
4.30471e-08
1.29674e-05
6.07681e-08
1.29278e-05
7.83073e-08
1.28763e-05
9.92955e-08
1.28117e-05
1.26944e-07
1.27335e-05
1.58395e-07
1.26432e-05
1.83619e-07
1.25436e-05
2.00175e-07
1.2437e-05
2.11935e-07
1.23207e-05
2.28677e-07
1.21938e-05
2.50569e-07
1.20557e-05
2.77336e-07
1.19077e-05
2.99147e-07
1.17505e-05
3.1491e-07
1.15869e-05
3.27543e-07
1.14165e-05
3.38371e-07
1.12389e-05
3.50976e-07
1.10535e-05
3.69021e-07
1.08601e-05
3.89432e-07
1.06598e-05
4.01889e-07
1.04549e-05
4.09509e-07
1.0247e-05
4.16618e-07
1.0036e-05
4.22296e-07
9.82002e-06
4.3097e-07
9.5977e-06
4.43672e-07
9.36848e-06
4.56345e-07
9.13582e-06
4.62338e-07
8.90183e-06
4.65582e-07
8.66755e-06
4.70177e-07
8.43337e-06
4.72789e-07
8.19714e-06
4.742e-07
7.95828e-06
4.74701e-07
7.71815e-06
4.76274e-07
7.47652e-06
4.79974e-07
7.23408e-06
4.87705e-07
6.99307e-06
4.86191e-07
6.75473e-06
4.75457e-07
6.51755e-06
4.71738e-07
6.28009e-06
4.72058e-07
6.04228e-06
4.73311e-07
5.80755e-06
4.70983e-07
5.57738e-06
4.63449e-07
5.35033e-06
4.56234e-07
5.12491e-06
4.51106e-07
4.90108e-06
4.45427e-07
4.67822e-06
4.41915e-07
4.45879e-06
4.3662e-07
4.24714e-06
4.25567e-07
4.04101e-06
4.15066e-07
3.83852e-06
4.0467e-07
3.63943e-06
3.95966e-07
3.44294e-06
3.9117e-07
3.2494e-06
3.87226e-07
3.06064e-06
3.80147e-07
2.87827e-06
3.6744e-07
2.70272e-06
3.5029e-07
2.53235e-06
3.38935e-07
2.3662e-06
3.30597e-07
2.20385e-06
3.23091e-07
2.04615e-06
3.16741e-07
1.89384e-06
3.08219e-07
1.74637e-06
2.96568e-07
1.60327e-06
2.85271e-07
1.46506e-06
2.75363e-07
1.33258e-06
2.64804e-07
1.20564e-06
2.54162e-07
1.08386e-06
2.4359e-07
9.66183e-07
2.34865e-07
8.51257e-07
2.30202e-07
7.40322e-07
2.24211e-07
6.34964e-07
2.12366e-07
5.35272e-07
1.9958e-07
4.39677e-07
1.90565e-07
3.47319e-07
1.83571e-07
2.58838e-07
1.76089e-07
1.74708e-07
1.69068e-07
9.45544e-08
1.62853e-07
1.82742e-08
1.54753e-07
-5.40691e-08
1.45246e-07
-1.23031e-07
1.37051e-07
-1.8862e-07
1.29895e-07
-2.50102e-07
1.2259e-07
-3.07579e-07
1.16976e-07
-3.61314e-07
1.10486e-07
-4.11873e-07
1.02149e-07
-4.60328e-07
9.611e-08
-5.05314e-07
8.87201e-08
-5.45027e-07
7.91923e-08
-5.80096e-07
7.25733e-08
-6.11816e-07
6.62461e-08
-6.41431e-07
5.91132e-08
-6.68021e-07
5.17334e-08
-6.88885e-07
4.19284e-08
-7.04875e-07
3.41588e-08
-7.17779e-07
2.69949e-08
-7.27749e-07
1.92789e-08
-7.33387e-07
9.90624e-09
-7.34358e-07
8.30944e-10
-7.31322e-07
-5.64149e-09
-7.24757e-07
-1.18943e-08
-7.15736e-07
-1.8411e-08
-7.03087e-07
-2.724e-08
-6.86061e-07
-3.58714e-08
-6.65491e-07
-4.16254e-08
-6.42342e-07
-4.63442e-08
-6.17681e-07
-5.09329e-08
-5.91843e-07
-5.46457e-08
-5.64117e-07
-5.85632e-08
-5.34529e-07
-6.09554e-08
-5.03855e-07
-6.17906e-08
-4.73143e-07
-6.2567e-08
-4.43235e-07
-6.23791e-08
-4.14674e-07
-6.0289e-08
-3.87094e-07
-5.69492e-08
-3.60458e-07
-5.3504e-08
-3.35204e-07
-5.08903e-08
-3.11802e-07
-4.78973e-08
-2.90787e-07
-4.352e-08
-2.71921e-07
-3.83136e-08
-2.54924e-07
-3.28483e-08
-2.39722e-07
-2.90218e-08
-2.25787e-07
-2.70703e-08
-2.12865e-07
-2.57865e-08
-2.00845e-07
-2.43613e-08
-1.89256e-07
-2.31604e-08
-1.77687e-07
-2.24022e-08
-1.66163e-07
-2.17624e-08
-1.54672e-07
-2.21254e-08
-1.42935e-07
-2.33947e-08
-1.30397e-07
-2.52464e-08
-1.16905e-07
-2.72001e-08
-1.02623e-07
-2.84009e-08
-8.69105e-08
-3.04504e-08
-6.95925e-08
-3.37068e-08
-5.09046e-08
-3.71104e-08
-3.07836e-08
-4.04277e-08
-9.1693e-09
-4.32062e-08
1.41051e-08
-4.59001e-08
3.90722e-08
-4.89732e-08
6.56822e-08
-5.27017e-08
9.39088e-08
-5.64098e-08
1.23799e-07
-5.93205e-08
1.55271e-07
-6.21415e-08
1.88107e-07
-6.52062e-08
2.2225e-07
-6.8216e-08
2.57901e-07
-7.11699e-08
2.95077e-07
-7.39746e-08
3.33598e-07
-7.66551e-08
3.73249e-07
-7.90212e-08
4.13903e-07
-8.11361e-08
4.55622e-07
-8.32216e-08
4.98286e-07
-8.48846e-08
5.41771e-07
-8.63341e-08
5.85934e-07
-8.76176e-08
6.30606e-07
-8.88654e-08
6.75754e-07
-8.99937e-08
7.2124e-07
-9.07812e-08
7.66984e-07
-9.11752e-08
8.12894e-07
-9.13626e-08
8.58888e-07
-9.15791e-08
9.04974e-07
-9.19169e-08
9.511e-07
-9.20538e-08
9.97065e-07
-9.16896e-08
1.04271e-06
-9.10489e-08
1.08789e-06
-9.02822e-08
1.13273e-06
-8.9557e-08
1.17723e-06
-8.86215e-08
1.22126e-06
-8.74366e-08
1.26465e-06
-8.63164e-08
1.30735e-06
-8.52215e-08
1.34949e-06
-8.42355e-08
1.39091e-06
-8.28149e-08
1.43154e-06
-8.12361e-08
1.47132e-06
-7.95239e-08
1.51036e-06
-7.77874e-08
1.54858e-06
-7.61901e-08
1.58591e-06
-7.46116e-08
1.62221e-06
-7.2749e-08
1.65769e-06
-7.06586e-08
1.69223e-06
-6.87192e-08
1.7258e-06
-6.69193e-08
1.75804e-06
-6.46912e-08
1.7893e-06
-6.25581e-08
1.81946e-06
-6.04818e-08
1.84872e-06
-5.84812e-08
1.87684e-06
-5.60211e-08
1.90399e-06
-5.38171e-08
1.92951e-06
-5.10997e-08
1.95425e-06
-4.94436e-08
1.97767e-06
-4.72947e-08
2.00041e-06
-4.56172e-08
2.02187e-06
-4.30915e-08
2.04314e-06
-4.22358e-08
2.06247e-06
-3.88706e-08
2.08161e-06
-3.87692e-08
2.09882e-06
-3.59058e-08
2.11568e-06
-3.55047e-08
2.13366e-06
-3.56434e-08
2.15108e-06
-3.40856e-08
2.16983e-06
-3.45087e-08
2.18505e-06
-2.90991e-08
2.20008e-06
-2.96697e-08
2.20886e-06
-2.22238e-08
2.21487e-06
-1.73036e-08
2.22866e-06
-2.45971e-08
2.24468e-06
-2.21615e-08
2.25937e-06
-1.66702e-08
2.27347e-06
-2.37883e-08
2.25073e-06
1.5048e-08
2.21588e-06
2.99455e-08
2.23049e-06
-2.56166e-08
2.25509e-06
-2.87702e-09
2.329e-06
-4.07269e-08
2.41934e-06
-1.03415e-07
2.63089e-06
-2.00529e-07
2.87598e-06
-2.75426e-07
3.02337e-06
-2.171e-07
3.08758e-06
-2.63138e-07
3.08564e-06
-2.4699e-07
3.10975e-06
-1.74637e-07
3.1266e-06
-1.32042e-07
3.16225e-06
-1.04431e-07
3.19341e-06
-8.05707e-08
3.23036e-06
-6.94038e-08
3.25904e-06
-5.98477e-08
3.28422e-06
-5.14642e-08
3.26869e-06
-7.09254e-09
3.23713e-06
1.94804e-08
3.25721e-06
-3.65624e-08
3.28733e-06
-6.17064e-09
3.36949e-06
-4.42966e-08
3.46759e-06
-1.0718e-07
3.68482e-06
-2.03504e-07
3.92769e-06
-2.694e-07
4.06756e-06
-2.10244e-07
4.12466e-06
-2.54973e-07
4.11732e-06
-2.33544e-07
4.14163e-06
-1.6488e-07
4.15421e-06
-1.25548e-07
4.17276e-06
-8.07667e-08
4.16866e-06
-4.55421e-08
4.17082e-06
-3.49804e-08
4.17838e-06
-2.98607e-08
4.19785e-06
-2.84811e-08
4.22001e-06
-1.42084e-08
4.25461e-06
-2.40062e-08
4.24841e-06
1.44858e-08
4.1254e-06
1.38707e-07
4.00642e-06
1.19978e-07
3.97493e-06
5.98443e-08
4.03264e-06
7.00233e-08
4.36194e-06
-2.18761e-07
4.86233e-06
-4.47501e-07
5.93486e-06
-1.00641e-06
7.02488e-06
-1.27776e-06
7.82782e-06
-1.14013e-06
8.19489e-06
-1.30816e-06
8.26345e-06
-1.24089e-06
8.40858e-06
-1.01986e-06
8.57242e-06
-7.63567e-07
8.7361e-06
-5.89311e-07
8.88909e-06
-4.64644e-07
9.02741e-06
-3.74047e-07
9.15023e-06
-3.07274e-07
9.25697e-06
-2.5086e-07
9.34866e-06
-2.07385e-07
9.42886e-06
-1.75023e-07
9.49713e-06
-1.4829e-07
9.55472e-06
-1.22236e-07
9.60364e-06
-1.02212e-07
9.64525e-06
-8.76678e-08
9.67991e-06
-7.14083e-08
9.7087e-06
-5.86429e-08
9.73261e-06
-4.98879e-08
9.75166e-06
-3.79012e-08
9.76664e-06
-2.91403e-08
9.77798e-06
-2.23689e-08
9.78598e-06
-1.73064e-08
9.79028e-06
-8.10437e-09
9.79153e-06
-1.05435e-09
9.7901e-06
3.91199e-09
9.7861e-06
8.43976e-09
9.7796e-06
1.28745e-08
9.77128e-06
1.67613e-08
9.76107e-06
2.06306e-08
9.74898e-06
2.42452e-08
9.73506e-06
2.81251e-08
9.71967e-06
3.14067e-08
9.70299e-06
3.52926e-08
9.68551e-06
3.40017e-08
9.66695e-06
3.4927e-08
9.64742e-06
3.70136e-08
9.62686e-06
3.92273e-08
9.60532e-06
4.15234e-08
9.58327e-06
4.35607e-08
9.55996e-06
4.57734e-08
9.53582e-06
4.73965e-08
9.51083e-06
4.92271e-08
9.4848e-06
5.12988e-08
9.45754e-06
5.3472e-08
9.42976e-06
5.45826e-08
9.401e-06
5.4846e-08
9.37111e-06
6.00034e-08
9.3408e-06
6.20627e-08
9.30987e-06
6.28827e-08
9.27836e-06
6.35475e-08
9.24643e-06
6.42209e-08
9.21389e-06
6.47467e-08
9.18099e-06
6.52409e-08
9.14779e-06
6.58842e-08
9.11417e-06
6.68848e-08
9.07995e-06
6.82741e-08
9.0451e-06
6.96816e-08
9.00981e-06
7.06201e-08
8.97427e-06
7.0941e-08
8.93842e-06
7.11316e-08
8.90211e-06
7.18579e-08
8.86483e-06
7.36459e-08
8.8268e-06
7.55153e-08
8.789e-06
7.61764e-08
8.75154e-06
7.57061e-08
8.71369e-06
7.55257e-08
8.67486e-06
7.65948e-08
8.63557e-06
7.81851e-08
8.59669e-06
7.88049e-08
8.55846e-06
7.77058e-08
8.51954e-06
7.77456e-08
8.4798e-06
7.8885e-08
8.44e-06
8.07399e-08
8.40114e-06
7.62519e-08
8.36252e-06
7.43746e-08
8.32274e-06
7.44276e-08
8.28209e-06
7.97622e-08
8.24175e-06
8.13305e-08
8.20188e-06
8.06276e-08
8.16282e-06
8.07871e-08
8.12287e-06
8.21053e-08
8.63904e-08
-0.000111966
6.00073e-07
-0.000111452
-1.80599e-07
-0.000110813
1.22938e-07
-0.000110082
3.70252e-07
-0.000109092
-1.56544e-07
-0.000107825
-1.40168e-06
-0.000106207
-3.90588e-06
-0.0001042
-7.44719e-06
-0.000101894
-1.13181e-05
-9.97097e-05
-1.32808e-05
-9.75413e-05
-1.35852e-05
-9.52938e-05
-1.30024e-05
-9.34583e-05
-1.20299e-05
-9.27397e-05
-1.08179e-05
-9.33324e-05
-9.08774e-06
-9.46512e-05
-7.53203e-06
-9.60684e-05
-6.51703e-06
-9.6845e-05
-5.57777e-06
-9.69527e-05
-4.03148e-06
-9.56912e-05
-1.83297e-06
-9.30016e-05
5.98322e-08
-9.02802e-05
1.90237e-06
-8.76482e-05
3.15979e-06
-8.47767e-05
3.15639e-06
-8.23369e-05
2.15956e-06
-8.07915e-05
1.02793e-06
-7.95559e-05
2.38399e-07
-7.8439e-05
-2.52499e-07
-7.74669e-05
-7.42331e-07
-7.67685e-05
-1.24644e-06
-7.61852e-05
-1.75055e-06
-7.55022e-05
-2.32736e-06
-7.45194e-05
-2.90936e-06
-7.32996e-05
-3.09957e-06
-7.20319e-05
-2.85068e-06
-7.0956e-05
-2.37838e-06
-7.02103e-05
-2.10439e-06
-6.95584e-05
-2.14557e-06
-6.86539e-05
-2.43669e-06
-6.73343e-05
-2.75276e-06
-6.58777e-05
-3.20054e-06
-6.4527e-05
-3.71524e-06
-6.33768e-05
-4.12633e-06
-6.22983e-05
-4.34913e-06
-6.10754e-05
-4.24761e-06
-5.96607e-05
-3.84178e-06
-5.80556e-05
-3.39547e-06
-5.6462e-05
-3.31014e-06
-5.50722e-05
-3.73137e-06
-5.37804e-05
-4.30783e-06
-5.25834e-05
-4.53942e-06
-5.13e-05
-4.40974e-06
-4.99085e-05
-4.05722e-06
-4.85018e-05
-3.64722e-06
-4.72723e-05
-3.39194e-06
-4.61859e-05
-3.50102e-06
-4.50823e-05
-3.7702e-06
-4.38682e-05
-4.07606e-06
-4.25552e-05
-4.33751e-06
-4.11589e-05
-4.64357e-06
-3.97727e-05
-4.9542e-06
-3.84348e-05
-4.97433e-06
-3.71169e-05
-4.58602e-06
-3.57196e-05
-4.03033e-06
-3.395e-05
-4.04411e-06
-3.19988e-05
-4.46937e-06
-3.02159e-05
-4.69914e-06
-2.87485e-05
-4.24751e-06
-2.74262e-05
-3.59771e-06
-2.62017e-05
-3.27187e-06
-2.50649e-05
-3.28874e-06