/*--------------------------------*- C++ -*----------------------------------*\
| =========                 |                                                 |
| \\      /  F ield         | OpenFOAM: The Open Source CFD Toolbox           |
|  \\    /   O peration     | Version:  v2006                                 |
|   \\  /    A nd           | Website:  www.openfoam.com                      |
|    \\/     M anipulation  |                                                 |
\*---------------------------------------------------------------------------*/
FoamFile
{
    version     2.0;
    format      ascii;
    class       volScalarField;
    location    "5.6";
    object      k;
}
// * * * * * * * * * * * * * * * * * * * * * * * * * * * * * * * * * * * * * //

dimensions      [0 2 -2 0 0 0 0];


internalField   nonuniform List<scalar> 
33000
(
1.91406e-08
2.0088e-08
2.11054e-08
2.21277e-08
2.30746e-08
2.38643e-08
2.44318e-08
2.47964e-08
2.51611e-08
2.57609e-08
2.67636e-08
2.82485e-08
3.01829e-08
3.25578e-08
3.54719e-08
3.8988e-08
4.30068e-08
4.72516e-08
5.12569e-08
5.45981e-08
5.82085e-08
6.58755e-08
8.2765e-08
1.10821e-07
1.43576e-07
1.7289e-07
1.95414e-07
2.11015e-07
2.20333e-07
2.24119e-07
2.24308e-07
2.24449e-07
2.26273e-07
2.29403e-07
2.32491e-07
2.33993e-07
2.33906e-07
2.34066e-07
2.35382e-07
2.36531e-07
2.35022e-07
2.30509e-07
2.26132e-07
2.24965e-07
2.278e-07
2.32695e-07
2.36545e-07
2.35997e-07
2.31377e-07
2.26573e-07
2.24441e-07
2.25731e-07
2.28383e-07
2.29693e-07
2.28362e-07
2.2567e-07
2.23516e-07
2.21981e-07
2.20539e-07
2.18254e-07
2.15327e-07
2.14662e-07
2.1772e-07
2.22916e-07
2.26942e-07
2.26487e-07
2.23397e-07
2.21223e-07
2.2079e-07
2.18721e-07
2.13759e-07
2.0633e-07
1.98638e-07
1.9118e-07
1.84314e-07
1.78017e-07
1.71646e-07
1.64752e-07
1.54421e-07
1.47823e-07
1.42859e-07
1.40557e-07
1.39199e-07
1.4259e-07
1.47549e-07
1.53892e-07
1.588e-07
1.61093e-07
1.62213e-07
1.62486e-07
1.61807e-07
1.60709e-07
1.59322e-07
1.57057e-07
1.53646e-07
1.48711e-07
1.42947e-07
1.35759e-07
1.29833e-07
1.20553e-07
1.12965e-07
1.12713e-07
1.16105e-07
1.1521e-07
1.12058e-07
1.11911e-07
1.15275e-07
1.17616e-07
1.17765e-07
1.16046e-07
1.1463e-07
1.11933e-07
1.1034e-07
1.10155e-07
1.09949e-07
1.08466e-07
1.06449e-07
1.03946e-07
1.02089e-07
1.01001e-07
1e-07
9.99581e-08
9.88136e-08
9.85367e-08
9.9663e-08
1.00342e-07
1.00882e-07
1.01271e-07
1.01173e-07
1.01097e-07
1.01357e-07
1.01525e-07
1.01738e-07
1.01797e-07
1.01867e-07
1.01846e-07
1.01747e-07
1.01716e-07
1.01675e-07
1.01682e-07
1.01683e-07
1.01691e-07
1.01663e-07
1.016e-07
1.01553e-07
1.01529e-07
1.01446e-07
1.01336e-07
1.01228e-07
1.01154e-07
1.01147e-07
1.01185e-07
1.01202e-07
1.01197e-07
1.0122e-07
1.01298e-07
1.01412e-07
1.0154e-07
1.0167e-07
1.01813e-07
1.01982e-07
1.02164e-07
1.02344e-07
1.02507e-07
1.02664e-07
1.02794e-07
1.02863e-07
1.02894e-07
1.02916e-07
1.02914e-07
1.02848e-07
1.02727e-07
1.02584e-07
1.02435e-07
1.02269e-07
1.02059e-07
1.01818e-07
1.01583e-07
1.01362e-07
1.01145e-07
1.00934e-07
1.00743e-07
1.00589e-07
1.00454e-07
1.00316e-07
1.00183e-07
1.00075e-07
9.99947e-08
9.99263e-08
9.98569e-08
9.97761e-08
9.96859e-08
9.95879e-08
9.94818e-08
9.93576e-08
9.92162e-08
9.90573e-08
9.8878e-08
9.86806e-08
9.84768e-08
9.82785e-08
9.8083e-08
9.78802e-08
9.76593e-08
9.74225e-08
9.71801e-08
9.69416e-08
9.6708e-08
9.64698e-08
9.62191e-08
9.59596e-08
9.56998e-08
9.54377e-08
9.5163e-08
9.4868e-08
9.45603e-08
9.4252e-08
9.39461e-08
9.36351e-08
9.33019e-08
9.29338e-08
9.25363e-08
9.21309e-08
9.17303e-08
9.13339e-08
9.0929e-08
9.0506e-08
9.00686e-08
8.96308e-08
8.92006e-08
8.87795e-08
8.83661e-08
8.79459e-08
8.75136e-08
8.70781e-08
8.66495e-08
8.62283e-08
8.58122e-08
8.53926e-08
8.49658e-08
8.45397e-08
8.41153e-08
8.36831e-08
8.32387e-08
8.27898e-08
8.23505e-08
8.19223e-08
8.14874e-08
8.10296e-08
8.05636e-08
8.01073e-08
7.96569e-08
7.92027e-08
7.87455e-08
7.82905e-08
7.78373e-08
7.73855e-08
7.69406e-08
7.65018e-08
7.60671e-08
7.56286e-08
7.51811e-08
7.47332e-08
7.42954e-08
7.38714e-08
7.34526e-08
7.30246e-08
7.25772e-08
7.21175e-08
7.16652e-08
7.12247e-08
7.07926e-08
7.03602e-08
6.99119e-08
6.94461e-08
6.89779e-08
6.85093e-08
6.80356e-08
6.75532e-08
6.70657e-08
6.65842e-08
6.61079e-08
6.56149e-08
6.50977e-08
6.45737e-08
6.40498e-08
6.3526e-08
6.30006e-08
6.24721e-08
6.19313e-08
6.13687e-08
6.07942e-08
6.02136e-08
5.96281e-08
5.90396e-08
5.84391e-08
5.78099e-08
5.71661e-08
5.65067e-08
5.58235e-08
5.51266e-08
5.44068e-08
5.36484e-08
5.285e-08
5.19883e-08
5.1056e-08
5.01475e-08
4.92673e-08
4.84242e-08
4.76178e-08
4.68612e-08
4.61487e-08
4.54752e-08
4.48383e-08
4.42454e-08
4.37058e-08
4.32168e-08
4.27726e-08
4.23758e-08
4.2029e-08
4.17344e-08
4.14943e-08
4.13037e-08
4.11653e-08
4.10829e-08
4.10554e-08
4.10758e-08
4.11364e-08
4.12338e-08
4.13628e-08
4.15151e-08
4.16814e-08
4.18504e-08
4.20169e-08
4.21774e-08
4.23289e-08
4.24657e-08
4.25845e-08
4.26819e-08
4.27564e-08
4.28106e-08
4.28456e-08
4.28623e-08
4.28609e-08
4.2838e-08
4.27956e-08
4.27369e-08
4.26644e-08
4.25782e-08
4.24762e-08
4.23586e-08
4.22264e-08
4.20835e-08
4.19299e-08
4.17633e-08
4.15851e-08
4.13978e-08
4.12021e-08
4.09975e-08
4.07844e-08
4.05641e-08
4.03368e-08
4.01032e-08
3.98637e-08
3.96181e-08
3.93673e-08
3.91117e-08
3.88525e-08
3.85897e-08
3.83233e-08
3.80529e-08
3.77789e-08
3.75023e-08
3.72237e-08
3.69431e-08
3.66603e-08
3.63758e-08
3.60898e-08
3.58026e-08
3.55137e-08
3.52235e-08
3.49327e-08
3.46415e-08
3.43503e-08
3.40585e-08
3.37665e-08
3.34741e-08
3.31814e-08
3.2889e-08
3.25974e-08
3.23057e-08
3.20134e-08
3.17221e-08
3.14317e-08
3.11421e-08
3.08527e-08
3.05649e-08
3.0277e-08
2.99897e-08
2.97021e-08
2.94161e-08
2.91304e-08
2.88474e-08
2.85637e-08
2.82828e-08
2.80021e-08
2.77233e-08
2.7448e-08
2.71739e-08
2.69043e-08
2.66342e-08
2.63676e-08
2.6101e-08
2.58344e-08
2.55759e-08
2.53126e-08
2.50497e-08
2.47895e-08
2.45146e-08
2.42418e-08
2.40054e-08
2.3735e-08
2.34876e-08
2.32411e-08
2.28466e-08
2.2525e-08
2.23915e-08
2.19778e-08
2.20031e-08
2.17863e-08
2.23559e-08
2.24831e-08
2.2585e-08
2.25309e-08
2.24551e-08
2.23243e-08
2.2181e-08
2.20253e-08
2.18673e-08
2.1706e-08
2.15365e-08
2.13683e-08
2.11749e-08
2.09881e-08
2.08293e-08
2.06356e-08
2.04825e-08
2.02988e-08
2.02673e-08
2.02236e-08
2.01457e-08
2.0055e-08
1.99416e-08
1.98272e-08
1.97081e-08
1.95859e-08
1.94569e-08
1.92922e-08
1.91345e-08
1.90228e-08
1.8842e-08
1.8743e-08
1.85794e-08
1.8087e-08
1.78248e-08
1.78448e-08
1.73321e-08
1.81827e-08
1.84278e-08
2.12376e-08
2.32363e-08
2.50255e-08
2.6422e-08
2.74858e-08
2.83007e-08
2.89246e-08
2.94021e-08
2.97592e-08
3.00256e-08
3.0226e-08
3.03821e-08
3.05007e-08
3.05881e-08
3.0653e-08
3.0697e-08
3.0724e-08
3.07405e-08
3.07452e-08
3.07398e-08
3.0726e-08
3.07062e-08
3.06797e-08
3.06478e-08
3.06116e-08
3.05714e-08
3.05273e-08
3.04795e-08
3.0428e-08
3.03727e-08
3.03133e-08
3.02497e-08
3.01819e-08
3.01099e-08
3.00338e-08
2.99543e-08
2.9872e-08
2.97875e-08
2.97014e-08
2.96142e-08
2.95264e-08
2.94382e-08
2.93502e-08
2.92625e-08
2.91754e-08
2.90886e-08
2.90017e-08
2.89142e-08
2.88257e-08
2.87357e-08
2.8644e-08
2.85506e-08
2.8456e-08
2.83605e-08
2.82651e-08
2.81704e-08
2.80762e-08
2.79817e-08
2.78864e-08
2.77906e-08
2.76959e-08
2.76034e-08
2.75134e-08
2.74245e-08
2.73354e-08
2.72463e-08
2.71591e-08
2.70742e-08
2.69902e-08
2.69052e-08
2.68195e-08
2.67346e-08
2.66509e-08
2.65677e-08
2.64834e-08
2.64074e-08
2.62912e-08
2.63484e-08
2.58374e-08
2.5879e-08
2.30506e-08
1.11627e-08
1.1641e-08
1.22677e-08
1.30331e-08
1.38912e-08
1.48113e-08
1.57806e-08
1.68095e-08
1.77414e-08
1.87838e-08
2.03166e-08
2.26204e-08
2.59296e-08
3.0537e-08
3.68161e-08
4.50059e-08
5.51064e-08
6.68833e-08
7.97625e-08
9.2682e-08
1.03583e-07
1.11402e-07
1.18267e-07
1.25657e-07
1.30317e-07
1.25777e-07
1.11014e-07
9.20064e-08
7.61064e-08
6.3914e-08
5.56563e-08
5.0384e-08
4.71444e-08
4.51908e-08
4.38691e-08
4.27476e-08
4.17262e-08
4.09208e-08
4.03588e-08
3.98881e-08
3.92156e-08
3.82676e-08
3.73619e-08
3.68779e-08
3.68914e-08
3.71004e-08
3.71533e-08
3.67532e-08
3.59451e-08
3.51141e-08
3.45658e-08
3.43507e-08
3.42114e-08
3.38808e-08
3.32755e-08
3.25467e-08
3.18897e-08
3.13381e-08
3.08917e-08
3.05049e-08
3.02189e-08
3.0317e-08
3.09249e-08
3.18394e-08
3.26646e-08
3.31033e-08
3.3244e-08
3.34573e-08
3.3751e-08
3.35556e-08
3.26524e-08
3.1399e-08
3.04132e-08
3.03673e-08
3.20709e-08
3.65506e-08
4.48713e-08
5.58102e-08
6.24908e-08
6.60371e-08
7.31663e-08
7.78998e-08
7.84342e-08
8.47249e-08
8.89098e-08
9.65575e-08
1.0018e-07
9.5333e-08
8.27662e-08
6.72058e-08
4.74029e-08
3.10345e-08
2.38322e-08
2.10924e-08
2.18478e-08
2.37336e-08
2.89826e-08
3.41113e-08
4.49567e-08
5.54458e-08
5.96181e-08
5.72544e-08
4.88089e-08
4.01449e-08
3.12007e-08
2.43627e-08
2.10506e-08
1.93609e-08
1.7293e-08
1.56466e-08
1.51155e-08
1.4751e-08
1.44075e-08
1.46084e-08
1.54695e-08
1.75492e-08
2.14623e-08
2.33408e-08
2.18002e-08
1.94469e-08
1.77433e-08
1.6143e-08
1.52031e-08
1.48194e-08
1.47067e-08
1.45651e-08
1.44379e-08
1.42923e-08
1.4203e-08
1.41489e-08
1.41596e-08
1.42133e-08
1.42712e-08
1.43157e-08
1.43622e-08
1.44158e-08
1.44724e-08
1.45332e-08
1.45981e-08
1.46637e-08
1.4724e-08
1.47787e-08
1.48274e-08
1.48785e-08
1.49348e-08
1.49893e-08
1.50354e-08
1.50823e-08
1.51393e-08
1.52062e-08
1.52721e-08
1.53269e-08
1.53715e-08
1.54194e-08
1.54792e-08
1.55453e-08
1.56065e-08
1.566e-08
1.57127e-08
1.57665e-08
1.58151e-08
1.5855e-08
1.58954e-08
1.59435e-08
1.59897e-08
1.60212e-08
1.60448e-08
1.60792e-08
1.61191e-08
1.61425e-08
1.61471e-08
1.61532e-08
1.6176e-08
1.62055e-08
1.62145e-08
1.61975e-08
1.61789e-08
1.61766e-08
1.61818e-08
1.6175e-08
1.61513e-08
1.61281e-08
1.61175e-08
1.60888e-08
1.60229e-08
1.59544e-08
1.59132e-08
1.58869e-08
1.58491e-08
1.57876e-08
1.57096e-08
1.56285e-08
1.55664e-08
1.55138e-08
1.54545e-08
1.53838e-08
1.52932e-08
1.51855e-08
1.5083e-08
1.50112e-08
1.49657e-08
1.49103e-08
1.48207e-08
1.47018e-08
1.45912e-08
1.4511e-08
1.44468e-08
1.43772e-08
1.42815e-08
1.41722e-08
1.40903e-08
1.40431e-08
1.39745e-08
1.38551e-08
1.37276e-08
1.36306e-08
1.35789e-08
1.3537e-08
1.34617e-08
1.33449e-08
1.32159e-08
1.31136e-08
1.30473e-08
1.30039e-08
1.29408e-08
1.28519e-08
1.27554e-08
1.26594e-08
1.25795e-08
1.25314e-08
1.24924e-08
1.2429e-08
1.2352e-08
1.22811e-08
1.22131e-08
1.21599e-08
1.2123e-08
1.20868e-08
1.20375e-08
1.19887e-08
1.1953e-08
1.19143e-08
1.18668e-08
1.1818e-08
1.17816e-08
1.17576e-08
1.17489e-08
1.17183e-08
1.16604e-08
1.1624e-08
1.16013e-08
1.15823e-08
1.15624e-08
1.15324e-08
1.15001e-08
1.14708e-08
1.14415e-08
1.14173e-08
1.13954e-08
1.13696e-08
1.1339e-08
1.13055e-08
1.12769e-08
1.12582e-08
1.12435e-08
1.12247e-08
1.11956e-08
1.1155e-08
1.11249e-08
1.11033e-08
1.10849e-08
1.10709e-08
1.10539e-08
1.10285e-08
1.10023e-08
1.09809e-08
1.09615e-08
1.09428e-08
1.09241e-08
1.09074e-08
1.08965e-08
1.08859e-08
1.08682e-08
1.08488e-08
1.08332e-08
1.08208e-08
1.08101e-08
1.08014e-08
1.0793e-08
1.07816e-08
1.07684e-08
1.07565e-08
1.0747e-08
1.07394e-08
1.07331e-08
1.07253e-08
1.07155e-08
1.07062e-08
1.06977e-08
1.06903e-08
1.06841e-08
1.06768e-08
1.06678e-08
1.06595e-08
1.06527e-08
1.06462e-08
1.06383e-08
1.06297e-08
1.06227e-08
1.06166e-08
1.06104e-08
1.06033e-08
1.05953e-08
1.05877e-08
1.05808e-08
1.05739e-08
1.05662e-08
1.05578e-08
1.05495e-08
1.05417e-08
1.05339e-08
1.05251e-08
1.05152e-08
1.05054e-08
1.04953e-08
1.04846e-08
1.04736e-08
1.04626e-08
1.04521e-08
1.04419e-08
1.0432e-08
1.04222e-08
1.04123e-08
1.04027e-08
1.03935e-08
1.03848e-08
1.03768e-08
1.03693e-08
1.03619e-08
1.03544e-08
1.03475e-08
1.03415e-08
1.03363e-08
1.03313e-08
1.03265e-08
1.03218e-08
1.03174e-08
1.0314e-08
1.03111e-08
1.03085e-08
1.03058e-08
1.03035e-08
1.03019e-08
1.03008e-08
1.02996e-08
1.02982e-08
1.02972e-08
1.02965e-08
1.0296e-08
1.02952e-08
1.02944e-08
1.02937e-08
1.0293e-08
1.02923e-08
1.02914e-08
1.02903e-08
1.02892e-08
1.02881e-08
1.02871e-08
1.02859e-08
1.02846e-08
1.02826e-08
1.02805e-08
1.02785e-08
1.02764e-08
1.0274e-08
1.02714e-08
1.02687e-08
1.0266e-08
1.02632e-08
1.02598e-08
1.02561e-08
1.02522e-08
1.02485e-08
1.02449e-08
1.02411e-08
1.02371e-08
1.02329e-08
1.02284e-08
1.02241e-08
1.02201e-08
1.02157e-08
1.02109e-08
1.02066e-08
1.02023e-08
1.01978e-08
1.01933e-08
1.01892e-08
1.0185e-08
1.01806e-08
1.0176e-08
1.01713e-08
1.01668e-08
1.01625e-08
1.01578e-08
1.01539e-08
1.01486e-08
1.01439e-08
1.01387e-08
1.01337e-08
1.01293e-08
1.01247e-08
1.01219e-08
1.0117e-08
1.0115e-08
1.01138e-08
1.01072e-08
1.01054e-08
1.01085e-08
1.01019e-08
1.01134e-08
1.01214e-08
1.01168e-08
1.01446e-08
1.01661e-08
1.01307e-08
1.02274e-08
1.0232e-08
1.01821e-08
1.01311e-08
1.01279e-08
1.01285e-08
1.0095e-08
1.00801e-08
1.00652e-08
1.00524e-08
1.00462e-08
1.00438e-08
1.00513e-08
1.00596e-08
1.00731e-08
1.00952e-08
1.01134e-08
1.00947e-08
1.01521e-08
1.0156e-08
1.01224e-08
1.00943e-08
1.00916e-08
1.00899e-08
1.00645e-08
1.00554e-08
1.00526e-08
1.00515e-08
1.00463e-08
1.00497e-08
1.00459e-08
1.00477e-08
1.00503e-08
1.01362e-08
1.01537e-08
1.02117e-08
1.02982e-08
1.03525e-08
1.03274e-08
1.04021e-08
1.04387e-08
1.04656e-08
1.0487e-08
1.05449e-08
1.05529e-08
1.0473e-08
1.03721e-08
1.02899e-08
1.02316e-08
1.01917e-08
1.01637e-08
1.01434e-08
1.01292e-08
1.01197e-08
1.01135e-08
1.01097e-08
1.01082e-08
1.01089e-08
1.01103e-08
1.01128e-08
1.01168e-08
1.01203e-08
1.01238e-08
1.01274e-08
1.01338e-08
1.01396e-08
1.0144e-08
1.0148e-08
1.01515e-08
1.01549e-08
1.0158e-08
1.01608e-08
1.01635e-08
1.01657e-08
1.01678e-08
1.01658e-08
1.01651e-08
1.01657e-08
1.01664e-08
1.01673e-08
1.01684e-08
1.01691e-08
1.01696e-08
1.01703e-08
1.01712e-08
1.0172e-08
1.01725e-08
1.01721e-08
1.01752e-08
1.01764e-08
1.0176e-08
1.01753e-08
1.01744e-08
1.01731e-08
1.0172e-08
1.01712e-08
1.01709e-08
1.01712e-08
1.01715e-08
1.01713e-08
1.01702e-08
1.01686e-08
1.01677e-08
1.01682e-08
1.01694e-08
1.01698e-08
1.01684e-08
1.01664e-08
1.01656e-08
1.01663e-08
1.01666e-08
1.01647e-08
1.01625e-08
1.01618e-08
1.01625e-08
1.01586e-08
1.01558e-08
1.01523e-08
1.01671e-08
1.01551e-08
1.02188e-08
1.02429e-08
1.0316e-08
1.02339e-08
1.05508e-08
1.08031e-08
1.11245e-08
1.14902e-08
1.18755e-08
1.22398e-08
1.25687e-08
1.28993e-08
1.33277e-08
1.40368e-08
1.52518e-08
1.72339e-08
2.03371e-08
2.5016e-08
3.17066e-08
4.04508e-08
5.07796e-08
6.19228e-08
7.30569e-08
8.31025e-08
9.08166e-08
9.44094e-08
9.37904e-08
8.92587e-08
8.06728e-08
6.88835e-08
5.66873e-08
4.6268e-08
3.83505e-08
3.27975e-08
2.8895e-08
2.60364e-08
2.4009e-08
2.26796e-08
2.18435e-08
2.12559e-08
2.07066e-08
2.01869e-08
1.97402e-08
1.93091e-08
1.88121e-08
1.8311e-08
1.78801e-08
1.75814e-08
1.74395e-08
1.73972e-08
1.73455e-08
1.71804e-08
1.68897e-08
1.65698e-08
1.63318e-08
1.62021e-08
1.61318e-08
1.60454e-08
1.58852e-08
1.56459e-08
1.53814e-08
1.51319e-08
1.49129e-08
1.47297e-08
1.4615e-08
1.46255e-08
1.47729e-08
1.4993e-08
1.51747e-08
1.53051e-08
1.54688e-08
1.5739e-08
1.60223e-08
1.61583e-08
1.61052e-08
1.59697e-08
1.59422e-08
1.61634e-08
1.68362e-08
1.813e-08
2.02996e-08
2.34876e-08
2.69701e-08
3.04453e-08
3.44108e-08
3.80359e-08
4.16361e-08
4.73068e-08
5.45532e-08
6.15978e-08
6.69485e-08
6.59451e-08
6.06019e-08
5.25512e-08
4.24631e-08
3.38376e-08
2.57876e-08
1.9705e-08
1.5887e-08
1.39823e-08
1.36182e-08
1.43572e-08
1.69226e-08
2.20613e-08
2.63326e-08
2.82556e-08
2.73777e-08
2.51972e-08
2.13731e-08
1.74566e-08
1.47976e-08
1.32185e-08
1.20707e-08
1.13917e-08
1.10119e-08
1.079e-08
1.06587e-08
1.0571e-08
1.05518e-08
1.06222e-08
1.08881e-08
1.13146e-08
1.14608e-08
1.15654e-08
1.14882e-08
1.12346e-08
1.10088e-08
1.08392e-08
1.06971e-08
1.05977e-08
1.05295e-08
1.04918e-08
1.04628e-08
1.04492e-08
1.04466e-08
1.04443e-08
1.04454e-08
1.04487e-08
1.04552e-08
1.0462e-08
1.04689e-08
1.04774e-08
1.04851e-08
1.04937e-08
1.05024e-08
1.05106e-08
1.05185e-08
1.05265e-08
1.05345e-08
1.05418e-08
1.0548e-08
1.05546e-08
1.05631e-08
1.05731e-08
1.05821e-08
1.05887e-08
1.05941e-08
1.06007e-08
1.06095e-08
1.06189e-08
1.06269e-08
1.06335e-08
1.06405e-08
1.06484e-08
1.06557e-08
1.06613e-08
1.06665e-08
1.06729e-08
1.06791e-08
1.06826e-08
1.06848e-08
1.06888e-08
1.06938e-08
1.06957e-08
1.06941e-08
1.06927e-08
1.06942e-08
1.06964e-08
1.0695e-08
1.06892e-08
1.0683e-08
1.06789e-08
1.06753e-08
1.06697e-08
1.06623e-08
1.06551e-08
1.06485e-08
1.06383e-08
1.06229e-08
1.06073e-08
1.05953e-08
1.05859e-08
1.0576e-08
1.05631e-08
1.05475e-08
1.05308e-08
1.0516e-08
1.0503e-08
1.04907e-08
1.04781e-08
1.04631e-08
1.04455e-08
1.04287e-08
1.04161e-08
1.04068e-08
1.03965e-08
1.03825e-08
1.03665e-08
1.03519e-08
1.03405e-08
1.03307e-08
1.032e-08
1.03075e-08
1.02949e-08
1.02853e-08
1.02782e-08
1.02689e-08
1.02561e-08
1.02434e-08
1.02333e-08
1.02269e-08
1.02215e-08
1.02141e-08
1.02038e-08
1.01928e-08
1.01839e-08
1.01778e-08
1.01735e-08
1.01683e-08
1.01618e-08
1.01548e-08
1.01481e-08
1.01426e-08
1.01389e-08
1.0136e-08
1.01321e-08
1.01274e-08
1.0123e-08
1.0119e-08
1.01161e-08
1.01143e-08
1.01126e-08
1.01102e-08
1.01077e-08
1.01057e-08
1.01036e-08
1.01016e-08
1.00997e-08
1.00982e-08
1.00973e-08
1.00969e-08
1.00958e-08
1.00936e-08
1.00922e-08
1.00914e-08
1.00909e-08
1.00902e-08
1.00892e-08
1.00881e-08
1.00872e-08
1.00863e-08
1.00856e-08
1.00849e-08
1.00839e-08
1.00828e-08
1.00816e-08
1.00807e-08
1.00801e-08
1.00797e-08
1.00791e-08
1.00781e-08
1.00767e-08
1.00755e-08
1.00747e-08
1.00742e-08
1.00737e-08
1.00732e-08
1.00723e-08
1.00714e-08
1.00706e-08
1.00699e-08
1.00692e-08
1.00684e-08
1.00678e-08
1.00674e-08
1.0067e-08
1.00663e-08
1.00655e-08
1.00647e-08
1.00641e-08
1.00637e-08
1.00633e-08
1.00628e-08
1.00622e-08
1.00616e-08
1.0061e-08
1.00605e-08
1.00601e-08
1.00597e-08
1.00592e-08
1.00587e-08
1.00583e-08
1.00578e-08
1.00573e-08
1.00569e-08
1.00565e-08
1.0056e-08
1.00556e-08
1.00551e-08
1.00547e-08
1.00542e-08
1.00537e-08
1.00534e-08
1.0053e-08
1.00526e-08
1.00523e-08
1.00519e-08
1.00514e-08
1.0051e-08
1.00506e-08
1.00502e-08
1.00498e-08
1.00493e-08
1.0049e-08
1.00486e-08
1.00481e-08
1.00477e-08
1.00473e-08
1.0047e-08
1.00466e-08
1.00462e-08
1.00458e-08
1.00455e-08
1.00451e-08
1.00448e-08
1.00445e-08
1.00442e-08
1.00439e-08
1.00435e-08
1.00433e-08
1.0043e-08
1.00427e-08
1.00425e-08
1.00422e-08
1.0042e-08
1.00418e-08
1.00416e-08
1.00414e-08
1.00413e-08
1.00411e-08
1.00409e-08
1.00408e-08
1.00407e-08
1.00406e-08
1.00404e-08
1.00403e-08
1.00403e-08
1.00402e-08
1.00401e-08
1.004e-08
1.00399e-08
1.00398e-08
1.00397e-08
1.00396e-08
1.00395e-08
1.00394e-08
1.00393e-08
1.00392e-08
1.00391e-08
1.00389e-08
1.00388e-08
1.00386e-08
1.00385e-08
1.00384e-08
1.00384e-08
1.00382e-08
1.00381e-08
1.0038e-08
1.00379e-08
1.00377e-08
1.00376e-08
1.00375e-08
1.00373e-08
1.00372e-08
1.00371e-08
1.00369e-08
1.00368e-08
1.00366e-08
1.00364e-08
1.00363e-08
1.00361e-08
1.0036e-08
1.00358e-08
1.00356e-08
1.00354e-08
1.00352e-08
1.0035e-08
1.00349e-08
1.00347e-08
1.00345e-08
1.00343e-08
1.00341e-08
1.0034e-08
1.00337e-08
1.00335e-08
1.00333e-08
1.00331e-08
1.00329e-08
1.00327e-08
1.00326e-08
1.00322e-08
1.0032e-08
1.00321e-08
1.00317e-08
1.00316e-08
1.00314e-08
1.00315e-08
1.00318e-08
1.00319e-08
1.00321e-08
1.00321e-08
1.0032e-08
1.00321e-08
1.00322e-08
1.00325e-08
1.00327e-08
1.00319e-08
1.00314e-08
1.00312e-08
1.00316e-08
1.00327e-08
1.00336e-08
1.00336e-08
1.00342e-08
1.00345e-08
1.00333e-08
1.0032e-08
1.00311e-08
1.00305e-08
1.00305e-08
1.00301e-08
1.003e-08
1.003e-08
1.00299e-08
1.00297e-08
1.00294e-08
1.00294e-08
1.00299e-08
1.00305e-08
1.00309e-08
1.00308e-08
1.0031e-08
1.0031e-08
1.00305e-08
1.00298e-08
1.00292e-08
1.00289e-08
1.00288e-08
1.00284e-08
1.00282e-08
1.00286e-08
1.00289e-08
1.00294e-08
1.00316e-08
1.00343e-08
1.00354e-08
1.004e-08
1.00404e-08
1.00407e-08
1.00445e-08
1.00515e-08
1.00584e-08
1.00682e-08
1.0071e-08
1.0063e-08
1.00518e-08
1.00429e-08
1.00369e-08
1.0033e-08
1.00304e-08
1.00287e-08
1.00274e-08
1.00264e-08
1.00256e-08
1.00249e-08
1.00244e-08
1.0024e-08
1.00237e-08
1.00236e-08
1.00236e-08
1.00238e-08
1.00239e-08
1.00241e-08
1.00242e-08
1.00244e-08
1.00246e-08
1.00247e-08
1.00249e-08
1.00251e-08
1.00253e-08
1.00254e-08
1.00256e-08
1.00257e-08
1.00258e-08
1.00258e-08
1.00257e-08
1.00257e-08
1.00256e-08
1.00257e-08
1.00258e-08
1.0026e-08
1.00261e-08
1.00262e-08
1.00263e-08
1.00264e-08
1.00263e-08
1.00263e-08
1.00263e-08
1.00264e-08
1.00264e-08
1.00263e-08
1.00263e-08
1.00262e-08
1.00262e-08
1.00262e-08
1.00262e-08
1.00263e-08
1.00262e-08
1.00261e-08
1.0026e-08
1.00257e-08
1.00256e-08
1.00255e-08
1.00255e-08
1.00257e-08
1.00258e-08
1.00256e-08
1.00254e-08
1.00254e-08
1.00255e-08
1.00256e-08
1.00254e-08
1.00251e-08
1.00251e-08
1.00251e-08
1.0025e-08
1.00249e-08
1.00248e-08
1.00251e-08
1.00256e-08
1.00273e-08
1.00289e-08
1.00304e-08
1.00249e-08
1.02431e-08
1.0348e-08
1.04783e-08
1.06263e-08
1.07771e-08
1.09189e-08
1.10427e-08
1.11598e-08
1.13109e-08
1.15692e-08
1.20238e-08
1.27829e-08
1.39862e-08
1.57827e-08
1.82541e-08
2.12691e-08
2.45133e-08
2.77214e-08
3.07239e-08
3.33392e-08
3.54073e-08
3.69549e-08
3.68047e-08
3.39907e-08
2.93016e-08
2.45399e-08
2.10021e-08
1.8801e-08
1.73041e-08
1.61498e-08
1.52486e-08
1.45536e-08
1.40418e-08
1.36965e-08
1.34818e-08
1.33415e-08
1.32176e-08
1.30743e-08
1.29065e-08
1.27308e-08
1.25631e-08
1.24106e-08
1.22806e-08
1.21772e-08
1.21033e-08
1.20518e-08
1.20059e-08
1.19496e-08
1.18798e-08
1.18072e-08
1.17475e-08
1.17067e-08
1.16794e-08
1.16536e-08
1.16174e-08
1.15638e-08
1.14954e-08
1.14203e-08
1.13458e-08
1.12798e-08
1.12337e-08
1.12175e-08
1.12312e-08
1.12611e-08
1.12914e-08
1.13312e-08
1.14033e-08
1.1514e-08
1.16449e-08
1.17639e-08
1.18473e-08
1.18992e-08
1.19462e-08
1.20342e-08
1.22093e-08
1.25286e-08
1.30373e-08
1.37701e-08
1.47146e-08
1.58739e-08
1.74921e-08
1.97175e-08
2.21263e-08
2.55117e-08
2.95513e-08
3.46444e-08
4.02164e-08
4.49419e-08
4.64107e-08
4.33426e-08
3.85652e-08
3.2845e-08
2.7473e-08
2.29078e-08
1.8911e-08
1.59212e-08
1.39232e-08
1.27261e-08
1.22873e-08
1.27699e-08
1.37156e-08
1.46718e-08
1.55551e-08
1.58313e-08
1.53008e-08
1.42605e-08
1.32249e-08
1.2435e-08
1.17819e-08
1.13639e-08
1.11055e-08
1.08883e-08
1.06527e-08
1.0464e-08
1.0345e-08
1.02708e-08
1.01982e-08
1.0169e-08
1.01629e-08
1.0176e-08
1.01992e-08
1.02008e-08
1.0201e-08
1.01962e-08
1.01822e-08
1.01702e-08
1.0159e-08
1.01425e-08
1.01263e-08
1.01147e-08
1.01066e-08
1.01003e-08
1.00962e-08
1.00933e-08
1.00917e-08
1.00909e-08
1.00907e-08
1.00912e-08
1.00919e-08
1.00927e-08
1.00935e-08
1.00943e-08
1.00952e-08
1.00961e-08
1.0097e-08
1.00979e-08
1.00987e-08
1.00995e-08
1.01006e-08
1.01019e-08
1.0103e-08
1.01038e-08
1.01046e-08
1.01055e-08
1.01067e-08
1.01079e-08
1.01089e-08
1.01098e-08
1.01107e-08
1.01118e-08
1.01129e-08
1.01137e-08
1.01144e-08
1.01152e-08
1.01159e-08
1.01163e-08
1.01166e-08
1.01171e-08
1.01176e-08
1.01177e-08
1.01174e-08
1.0117e-08
1.01169e-08
1.01169e-08
1.01165e-08
1.01156e-08
1.01144e-08
1.01135e-08
1.01125e-08
1.01114e-08
1.01102e-08
1.01089e-08
1.01075e-08
1.01057e-08
1.01034e-08
1.0101e-08
1.0099e-08
1.00973e-08
1.00957e-08
1.00938e-08
1.00916e-08
1.00893e-08
1.0087e-08
1.00849e-08
1.0083e-08
1.00813e-08
1.00794e-08
1.00773e-08
1.00751e-08
1.00734e-08
1.00721e-08
1.00707e-08
1.00691e-08
1.00673e-08
1.00657e-08
1.00643e-08
1.0063e-08
1.00618e-08
1.00605e-08
1.00592e-08
1.00581e-08
1.00572e-08
1.00561e-08
1.00549e-08
1.00537e-08
1.00527e-08
1.0052e-08
1.00514e-08
1.00506e-08
1.00498e-08
1.00488e-08
1.00481e-08
1.00475e-08
1.0047e-08
1.00465e-08
1.00459e-08
1.00454e-08
1.00449e-08
1.00444e-08
1.0044e-08
1.00437e-08
1.00434e-08
1.00431e-08
1.00427e-08
1.00424e-08
1.00421e-08
1.00419e-08
1.00417e-08
1.00415e-08
1.00413e-08
1.00411e-08
1.00409e-08
1.00407e-08
1.00405e-08
1.00403e-08
1.00402e-08
1.00401e-08
1.00399e-08
1.00398e-08
1.00396e-08
1.00395e-08
1.00394e-08
1.00393e-08
1.00392e-08
1.00391e-08
1.0039e-08
1.00389e-08
1.00389e-08
1.00387e-08
1.00386e-08
1.00385e-08
1.00384e-08
1.00383e-08
1.00382e-08
1.00382e-08
1.00381e-08
1.0038e-08
1.00379e-08
1.00378e-08
1.00377e-08
1.00376e-08
1.00375e-08
1.00374e-08
1.00373e-08
1.00372e-08
1.00371e-08
1.0037e-08
1.00369e-08
1.00368e-08
1.00367e-08
1.00366e-08
1.00366e-08
1.00365e-08
1.00364e-08
1.00363e-08
1.00362e-08
1.00361e-08
1.0036e-08
1.0036e-08
1.00359e-08
1.00358e-08
1.00357e-08
1.00356e-08
1.00355e-08
1.00354e-08
1.00353e-08
1.00352e-08
1.00351e-08
1.0035e-08
1.00349e-08
1.00348e-08
1.00347e-08
1.00346e-08
1.00345e-08
1.00344e-08
1.00343e-08
1.00342e-08
1.00341e-08
1.00341e-08
1.00339e-08
1.00338e-08
1.00337e-08
1.00337e-08
1.00336e-08
1.00336e-08
1.00334e-08
1.00333e-08
1.00332e-08
1.00332e-08
1.00331e-08
1.00329e-08
1.00328e-08
1.00327e-08
1.00326e-08
1.00325e-08
1.00324e-08
1.00323e-08
1.00323e-08
1.00322e-08
1.00321e-08
1.00319e-08
1.00318e-08
1.00318e-08
1.00317e-08
1.00316e-08
1.00315e-08
1.00314e-08
1.00313e-08
1.00313e-08
1.00312e-08
1.00311e-08
1.00311e-08
1.0031e-08
1.00309e-08
1.00308e-08
1.00307e-08
1.00306e-08
1.00305e-08
1.00305e-08
1.00304e-08
1.00303e-08
1.00303e-08
1.00302e-08
1.00301e-08
1.003e-08
1.003e-08
1.00299e-08
1.00298e-08
1.00297e-08
1.00297e-08
1.00296e-08
1.00296e-08
1.00295e-08
1.00294e-08
1.00293e-08
1.00293e-08
1.00292e-08
1.00291e-08
1.00291e-08
1.0029e-08
1.00289e-08
1.00289e-08
1.00288e-08
1.00287e-08
1.00286e-08
1.00285e-08
1.00285e-08
1.00284e-08
1.00283e-08
1.00282e-08
1.00281e-08
1.0028e-08
1.00279e-08
1.00279e-08
1.00278e-08
1.00277e-08
1.00276e-08
1.00276e-08
1.00275e-08
1.00274e-08
1.00274e-08
1.00273e-08
1.00272e-08
1.00272e-08
1.00271e-08
1.00271e-08
1.0027e-08
1.00269e-08
1.00268e-08
1.00267e-08
1.00266e-08
1.00266e-08
1.00266e-08
1.00264e-08
1.00264e-08
1.00263e-08
1.00261e-08
1.0026e-08
1.00262e-08
1.00262e-08
1.00263e-08
1.00262e-08
1.00264e-08
1.00264e-08
1.00266e-08
1.00267e-08
1.00268e-08
1.00268e-08
1.00268e-08
1.00266e-08
1.00263e-08
1.00261e-08
1.00263e-08
1.00264e-08
1.00264e-08
1.00264e-08
1.00264e-08
1.00264e-08
1.0026e-08
1.00254e-08
1.00257e-08
1.00259e-08
1.00259e-08
1.00258e-08
1.00257e-08
1.00256e-08
1.00255e-08
1.00255e-08
1.00254e-08
1.00254e-08
1.00253e-08
1.00252e-08
1.00252e-08
1.00252e-08
1.00251e-08
1.00251e-08
1.0025e-08
1.00248e-08
1.00246e-08
1.00246e-08
1.00247e-08
1.00247e-08
1.00253e-08
1.00249e-08
1.00241e-08
1.00248e-08
1.00254e-08
1.00279e-08
1.00297e-08
1.00328e-08
1.00336e-08
1.00317e-08
1.00302e-08
1.00294e-08
1.00289e-08
1.00286e-08
1.00283e-08
1.00278e-08
1.00275e-08
1.00271e-08
1.00263e-08
1.00255e-08
1.00247e-08
1.0024e-08
1.00234e-08
1.00229e-08
1.00224e-08
1.0022e-08
1.00216e-08
1.00213e-08
1.0021e-08
1.00207e-08
1.00205e-08
1.00203e-08
1.00202e-08
1.00202e-08
1.00203e-08
1.00203e-08
1.00203e-08
1.00203e-08
1.00203e-08
1.00203e-08
1.00204e-08
1.00205e-08
1.00206e-08
1.00207e-08
1.00208e-08
1.00209e-08
1.00209e-08
1.00209e-08
1.00209e-08
1.00208e-08
1.00208e-08
1.00208e-08
1.00208e-08
1.00209e-08
1.0021e-08
1.00211e-08
1.00212e-08
1.00212e-08
1.00212e-08
1.00212e-08
1.00212e-08
1.00212e-08
1.00212e-08
1.00212e-08
1.00212e-08
1.00211e-08
1.00211e-08
1.00211e-08
1.00212e-08
1.00212e-08
1.00212e-08
1.00211e-08
1.0021e-08
1.00208e-08
1.00206e-08
1.00206e-08
1.00205e-08
1.00206e-08
1.00207e-08
1.00207e-08
1.00205e-08
1.00205e-08
1.00206e-08
1.00207e-08
1.00207e-08
1.00204e-08
1.00203e-08
1.00202e-08
1.00202e-08
1.00202e-08
1.00201e-08
1.00201e-08
1.00204e-08
1.00208e-08
1.00216e-08
1.00225e-08
1.00232e-08
1.00195e-08
1.01253e-08
1.01761e-08
1.02378e-08
1.03071e-08
1.03778e-08
1.0442e-08
1.04946e-08
1.05372e-08
1.05829e-08
1.06536e-08
1.07723e-08
1.09639e-08
1.12559e-08
1.16688e-08
1.21964e-08
1.27801e-08
1.33342e-08
1.38019e-08
1.41491e-08
1.43478e-08
1.43815e-08
1.42689e-08
1.40282e-08
1.36969e-08
1.33034e-08
1.29088e-08
1.25432e-08
1.22241e-08
1.19527e-08
1.17249e-08
1.15367e-08
1.13852e-08
1.12692e-08
1.11861e-08
1.11296e-08
1.10884e-08
1.10505e-08
1.10075e-08
1.09582e-08
1.09072e-08
1.08592e-08
1.08154e-08
1.0777e-08
1.07441e-08
1.07161e-08
1.06925e-08
1.06721e-08
1.06528e-08
1.06334e-08
1.06147e-08
1.05976e-08
1.05825e-08
1.057e-08
1.05596e-08
1.05489e-08
1.05354e-08
1.05179e-08
1.04961e-08
1.04714e-08
1.04475e-08
1.04285e-08
1.04168e-08
1.04121e-08
1.04125e-08
1.04164e-08
1.04264e-08
1.04472e-08
1.048e-08
1.05221e-08
1.05681e-08
1.06105e-08
1.06461e-08
1.06787e-08
1.07202e-08
1.07816e-08
1.0878e-08
1.10219e-08
1.12216e-08
1.14777e-08
1.17762e-08
1.21738e-08
1.27272e-08
1.35306e-08
1.492e-08
1.7095e-08
1.98036e-08
2.32124e-08
2.71627e-08
2.98968e-08
3.18232e-08
3.14701e-08
2.9591e-08
2.64484e-08
2.30913e-08
2.00621e-08
1.73417e-08
1.52601e-08
1.37651e-08
1.27263e-08
1.20557e-08
1.16919e-08
1.15651e-08
1.16268e-08
1.16861e-08
1.16873e-08
1.15887e-08
1.13958e-08
1.11949e-08
1.09925e-08
1.08297e-08
1.07184e-08
1.06433e-08
1.06297e-08
1.06478e-08
1.06142e-08
1.05007e-08
1.03791e-08
1.02883e-08
1.02258e-08
1.01543e-08
1.01146e-08
1.00946e-08
1.00828e-08
1.00803e-08
1.00798e-08
1.00799e-08
1.00808e-08
1.00814e-08
1.00842e-08
1.00878e-08
1.0086e-08
1.00814e-08
1.00768e-08
1.00722e-08
1.00677e-08
1.00645e-08
1.00622e-08
1.006e-08
1.00584e-08
1.00571e-08
1.00562e-08
1.00557e-08
1.00553e-08
1.00551e-08
1.0055e-08
1.00549e-08
1.00548e-08
1.00548e-08
1.00548e-08
1.00549e-08
1.00549e-08
1.0055e-08
1.0055e-08
1.00551e-08
1.00552e-08
1.00553e-08
1.00554e-08
1.00555e-08
1.00556e-08
1.00557e-08
1.00558e-08
1.00559e-08
1.0056e-08
1.0056e-08
1.0056e-08
1.0056e-08
1.0056e-08
1.00559e-08
1.00559e-08
1.00558e-08
1.00557e-08
1.00555e-08
1.00553e-08
1.00552e-08
1.0055e-08
1.00548e-08
1.00545e-08
1.00542e-08
1.0054e-08
1.00537e-08
1.00535e-08
1.00532e-08
1.00528e-08
1.00525e-08
1.00521e-08
1.00517e-08
1.00513e-08
1.0051e-08
1.00506e-08
1.00503e-08
1.00499e-08
1.00495e-08
1.00492e-08
1.00488e-08
1.00484e-08
1.0048e-08
1.00477e-08
1.00473e-08
1.0047e-08
1.00467e-08
1.00464e-08
1.00461e-08
1.00458e-08
1.00455e-08
1.00452e-08
1.00449e-08
1.00446e-08
1.00444e-08
1.00441e-08
1.00439e-08
1.00436e-08
1.00433e-08
1.00431e-08
1.00429e-08
1.00426e-08
1.00424e-08
1.00422e-08
1.00419e-08
1.00417e-08
1.00415e-08
1.00414e-08
1.00412e-08
1.0041e-08
1.00408e-08
1.00406e-08
1.00404e-08
1.00403e-08
1.00402e-08
1.004e-08
1.00399e-08
1.00397e-08
1.00396e-08
1.00395e-08
1.00393e-08
1.00393e-08
1.00391e-08
1.0039e-08
1.00389e-08
1.00388e-08
1.00387e-08
1.00386e-08
1.00385e-08
1.00384e-08
1.00383e-08
1.00382e-08
1.00381e-08
1.0038e-08
1.00379e-08
1.00378e-08
1.00377e-08