/*--------------------------------*- C++ -*----------------------------------*\
| =========                 |                                                 |
| \\      /  F ield         | OpenFOAM: The Open Source CFD Toolbox           |
|  \\    /   O peration     | Version:  v2006                                 |
|   \\  /    A nd           | Website:  www.openfoam.com                      |
|    \\/     M anipulation  |                                                 |
\*---------------------------------------------------------------------------*/
FoamFile
{
    version     2.0;
    format      ascii;
    class       volScalarField;
    location    "5.6";
    object      nut;
}
// * * * * * * * * * * * * * * * * * * * * * * * * * * * * * * * * * * * * * //

dimensions      [0 2 -1 0 0 0 0];


internalField   nonuniform List<scalar> 
33000
(
4.53166e-10
4.3171e-10
4.65545e-10
4.83389e-10
4.97756e-10
5.07912e-10
5.17258e-10
5.26091e-10
5.47632e-10
5.88998e-10
6.60081e-10
7.50897e-10
8.41286e-10
9.41586e-10
1.09028e-09
1.29041e-09
1.52088e-09
1.79055e-09
2.05808e-09
2.25834e-09
2.49086e-09
2.95124e-09
3.5352e-09
3.88656e-09
4.39048e-09
5.33836e-09
6.30018e-09
6.87126e-09
7.15227e-09
7.28157e-09
7.36772e-09
7.51243e-09
7.70637e-09
7.92054e-09
8.09486e-09
8.16628e-09
8.23359e-09
8.38279e-09
8.57509e-09
8.6816e-09
8.61253e-09
8.50908e-09
8.57107e-09
8.83911e-09
9.26632e-09
9.71503e-09
9.95618e-09
9.93015e-09
9.85354e-09
9.92431e-09
1.02189e-08
1.0687e-08
1.11117e-08
1.13551e-08
1.14498e-08
1.15919e-08
1.18436e-08
1.21411e-08
1.24352e-08
1.26337e-08
1.29192e-08
1.36448e-08
1.47558e-08
1.58767e-08
1.65457e-08
1.67448e-08
1.7148e-08
1.80685e-08
1.90065e-08
1.93523e-08
1.93122e-08
1.92132e-08
1.94468e-08
1.97699e-08
2.05799e-08
2.06964e-08
2.23549e-08
2.08714e-08
2.64476e-08
4.44498e-08
4.95986e-08
1.07366e-07
9.18287e-08
1.74426e-07
1.25726e-07
1.14171e-07
7.82548e-08
6.97733e-08
6.95385e-08
6.91153e-08
6.42616e-08
5.7438e-08
5.4875e-08
5.11893e-08
4.88644e-08
4.68388e-08
4.37185e-08
4.05462e-08
2.85086e-08
1.92023e-08
1.68468e-08
1.82518e-08
2.07759e-08
1.90128e-08
1.57471e-08
1.46393e-08
1.50083e-08
1.54367e-08
1.59698e-08
1.66285e-08
1.68294e-08
1.63156e-08
1.62793e-08
1.64371e-08
1.65735e-08
1.67129e-08
1.66893e-08
1.75847e-08
1.76793e-08
1.75648e-08
1.75311e-08
1.75106e-08
1.78383e-08
1.78612e-08
1.82629e-08
1.86043e-08
1.8991e-08
1.93544e-08
1.96175e-08
1.99541e-08
2.03394e-08
2.07515e-08
2.12349e-08
2.17641e-08
2.23843e-08
2.29783e-08
2.36261e-08
2.43953e-08
2.52336e-08
2.62156e-08
2.72881e-08
2.84965e-08
2.97813e-08
3.1247e-08
3.30039e-08
3.4892e-08
3.68526e-08
3.91156e-08
4.17425e-08
4.4954e-08
4.89226e-08
5.35058e-08
5.85278e-08
6.4419e-08
7.20399e-08
8.1897e-08
9.44784e-08
1.10301e-07
1.25131e-07
1.25305e-07
1.25509e-07
1.2573e-07
1.25949e-07
1.26146e-07
1.26336e-07
1.173e-07
1.01992e-07
8.89936e-08
7.86301e-08
7.07041e-08
6.43263e-08
5.87821e-08
5.39574e-08
4.98862e-08
4.65334e-08
4.36918e-08
4.11017e-08
3.87442e-08
3.66894e-08
3.49085e-08
3.33328e-08
3.18731e-08
3.05677e-08
2.94449e-08
2.84305e-08
2.74676e-08
2.65643e-08
2.57656e-08
2.50586e-08
2.44193e-08
2.38262e-08
2.32696e-08
2.27472e-08
2.22665e-08
2.18336e-08
2.14372e-08
2.10727e-08
2.07303e-08
2.04026e-08
2.00923e-08
1.98161e-08
1.95814e-08
1.93753e-08
1.91819e-08
1.89924e-08
1.88175e-08
1.86699e-08
1.85514e-08
1.84559e-08
1.83662e-08
1.82794e-08
1.82171e-08
1.81912e-08
1.81798e-08
1.81639e-08
1.81486e-08
1.81502e-08
1.81886e-08
1.82562e-08
1.83307e-08
1.83983e-08
1.84652e-08
1.85437e-08
1.86535e-08
1.87995e-08
1.89562e-08
1.91201e-08
1.92927e-08
1.94694e-08
1.9666e-08
1.99073e-08
2.01803e-08
2.04593e-08
2.07519e-08
2.10608e-08
2.13853e-08
2.17438e-08
2.2143e-08
2.25701e-08
2.30088e-08
2.34798e-08
2.40003e-08
2.45526e-08
2.51136e-08
2.56992e-08
2.63214e-08
2.70163e-08
2.78174e-08
2.86126e-08
2.94005e-08
3.02644e-08
3.12014e-08
3.2228e-08
3.33372e-08
3.45034e-08
3.57405e-08
3.70628e-08
3.84697e-08
4.00119e-08
4.16993e-08
4.35264e-08
4.54527e-08
4.74557e-08
4.96183e-08
5.20356e-08
5.47716e-08
5.7872e-08
6.10991e-08
6.43786e-08
6.80453e-08
7.20721e-08
7.65875e-08
8.18625e-08
8.64588e-08
8.58888e-08
8.53158e-08
8.47422e-08
8.41623e-08
8.35716e-08
8.29746e-08
8.23849e-08
8.18014e-08
8.11974e-08
8.05637e-08
7.99216e-08
7.92795e-08
7.86373e-08
7.79931e-08
7.7345e-08
7.66818e-08
7.59917e-08
7.52869e-08
7.45744e-08
7.38559e-08
7.31336e-08
7.23963e-08
7.16238e-08
7.08331e-08
7.00231e-08
6.91836e-08
6.83272e-08
6.74424e-08
6.651e-08
6.55282e-08
6.44683e-08
6.33211e-08
6.22031e-08
6.11194e-08
6.00812e-08
5.9088e-08
5.81558e-08
5.72778e-08
5.64478e-08
5.56626e-08
5.49315e-08
5.4266e-08
5.3663e-08
5.3115e-08
5.26254e-08
5.21975e-08
5.1834e-08
5.15376e-08
5.13024e-08
5.11316e-08
5.10299e-08
5.0996e-08
5.10211e-08
5.10959e-08
5.12161e-08
5.13753e-08
5.15633e-08
5.17686e-08
5.19771e-08
5.21825e-08
5.23806e-08
5.25675e-08
5.27363e-08
5.28828e-08
5.3003e-08
5.30949e-08
5.31618e-08
5.3205e-08
5.32256e-08
5.32239e-08
5.31956e-08
5.31432e-08
5.30708e-08
5.29814e-08
5.28751e-08
5.27492e-08
5.26041e-08
5.24409e-08
5.22647e-08
5.20751e-08
5.18696e-08
5.16497e-08
5.14185e-08
5.1177e-08
5.09244e-08
5.06613e-08
5.03895e-08
5.01089e-08
4.98204e-08
4.95247e-08
4.92214e-08
4.89117e-08
4.85961e-08
4.8276e-08
4.79513e-08
4.76223e-08
4.72882e-08
4.69497e-08
4.66079e-08
4.62637e-08
4.59169e-08
4.55674e-08
4.52157e-08
4.48622e-08
4.45071e-08
4.415e-08
4.37912e-08
4.34315e-08
4.30715e-08
4.27113e-08
4.23503e-08
4.19892e-08
4.16274e-08
4.12653e-08
4.09034e-08
4.05426e-08
4.01816e-08
3.98198e-08
3.94593e-08
3.90998e-08
3.87412e-08
3.8383e-08
3.80265e-08
3.76701e-08
3.73143e-08
3.69581e-08
3.66038e-08
3.62499e-08
3.58993e-08
3.5413e-08
3.47038e-08
3.399e-08
3.33849e-08
3.27096e-08
3.21859e-08
3.15367e-08
3.10057e-08
3.03859e-08
2.98512e-08
2.93364e-08
2.88548e-08
2.8519e-08
2.81316e-08
2.7554e-08
2.70881e-08
2.65304e-08
2.6168e-08
2.66205e-08
2.66625e-08
2.57535e-08
2.50274e-08
2.28861e-08
2.24902e-08
2.26346e-08
2.32523e-08
2.14619e-08
1.84468e-08
1.77165e-08
1.78116e-08
1.76474e-08
1.7503e-08
1.72126e-08
1.69295e-08
1.66762e-08
1.64609e-08
1.66258e-08
1.65723e-08
1.61538e-08
1.59341e-08
1.50043e-08
1.47787e-08
1.48836e-08
1.50703e-08
1.42547e-08
1.2534e-08
1.21128e-08
1.19987e-08
1.19093e-08
1.1824e-08
1.18014e-08
1.1693e-08
1.1621e-08
1.14385e-08
1.13123e-08
1.10701e-08
1.12189e-08
1.15609e-08
1.16803e-08
1.15272e-08
1.08869e-08
9.41431e-09
9.3408e-09
8.55647e-09
8.92335e-09
7.80018e-09
6.68655e-09
6.75196e-09
7.13568e-09
7.48743e-09
7.6853e-09
7.80033e-09
7.86433e-09
7.89785e-09
7.91293e-09
7.91411e-09
7.90419e-09
7.89142e-09
7.88127e-09
7.86645e-09
7.85088e-09
7.83895e-09
7.82382e-09
7.80968e-09
7.79964e-09
7.78977e-09
7.77686e-09
7.76501e-09
7.75818e-09
7.75173e-09
7.7452e-09
7.73895e-09
7.73323e-09
7.72856e-09
7.72423e-09
7.72033e-09
7.71639e-09
7.71541e-09
7.71358e-09
7.70681e-09
7.70058e-09
7.69512e-09
7.68948e-09
7.68483e-09
7.68096e-09
7.67681e-09
7.67309e-09
7.67029e-09
7.66847e-09
7.66838e-09
7.66565e-09
7.66421e-09
7.66824e-09
7.6716e-09
7.67391e-09
7.67623e-09
7.67838e-09
7.67995e-09
7.68137e-09
7.68294e-09
7.68518e-09
7.6885e-09
7.69276e-09
7.69732e-09
7.70126e-09
7.70481e-09
7.70921e-09
7.71525e-09
7.72352e-09
7.73292e-09
7.7412e-09
7.74842e-09
7.75691e-09
7.76831e-09
7.78075e-09
7.7913e-09
7.80017e-09
7.81393e-09
7.82832e-09
7.83646e-09
7.84623e-09
7.83531e-09
7.92711e-09
7.70705e-09
8.24772e-09
6.93696e-09
8.81366e-09
3.94444e-09
3.86722e-09
9.02051e-09
1.22603e-08
1.37478e-08
1.4999e-08
1.09981e-08
7.3879e-09
6.08689e-09
6.08094e-09
6.95543e-09
8.36042e-09
9.53784e-09
1.1639e-08
1.59509e-08
2.00903e-08
2.60616e-08
3.63053e-08
5.22706e-08
7.20108e-08
7.20607e-08
6.95259e-08
7.63708e-08
8.20608e-08
9.28082e-08
1.11563e-07
1.17832e-07
1.09719e-07
1.01733e-07
8.89363e-08
7.89442e-08
6.52705e-08
4.9463e-08
4.09434e-08
4.06771e-08
4.89481e-08
5.70501e-08
5.56665e-08
4.55925e-08
3.68239e-08
2.85057e-08
2.48107e-08
2.37349e-08
2.21239e-08
2.08894e-08
2.22642e-08
2.55508e-08
2.68727e-08
2.3953e-08
2.03994e-08
1.8367e-08
1.78463e-08
1.89168e-08
2.16047e-08
2.43066e-08
2.35724e-08
2.07734e-08
1.83373e-08
1.62761e-08
1.48904e-08
1.46199e-08
1.51769e-08
1.65509e-08
1.86486e-08
1.88459e-08
1.71521e-08
1.67869e-08
1.92476e-08
2.24393e-08
2.47552e-08
2.51603e-08
2.1551e-08
1.79197e-08
1.59595e-08
1.69381e-08
2.51806e-08
3.41937e-08
4.78692e-08
4.73896e-08
5.50913e-08
4.392e-08
5.36104e-08
6.65037e-08
6.80434e-08
6.98578e-08
7.44093e-08
7.73625e-08
7.60929e-08
7.1809e-08
6.68012e-08
4.83578e-08
2.49562e-08
1.87719e-08
2.09922e-08
2.74356e-08
2.69044e-08
3.21677e-08
2.84539e-08
2.88381e-08
3.92233e-08
4.61501e-08
5.72042e-08
4.62827e-08
3.84922e-08
3.4017e-08
2.55697e-08
1.98363e-08
3.45743e-08
2.07579e-08
1.78139e-08
2.27799e-08
3.11358e-08
5.74669e-08
5.61854e-08
3.50804e-08
3.18794e-08
7.33179e-08
5.84879e-08
4.74218e-08
2.90276e-08
3.24824e-08
5.65833e-08
3.97777e-08
6.13602e-08
5.54178e-08
7.25092e-08
7.37185e-08
5.94242e-08
5.10836e-08
4.90814e-08
4.87059e-08
4.39034e-08
4.17823e-08
3.93462e-08
3.79964e-08
3.51266e-08
3.30228e-08
3.23708e-08
3.14721e-08
3.08848e-08
3.03052e-08
2.942e-08
2.88655e-08
2.8375e-08
2.82744e-08
2.82921e-08
2.80157e-08
2.74953e-08
2.70893e-08
2.70936e-08
2.75181e-08
2.74815e-08
2.7239e-08
2.68722e-08
2.66829e-08
2.70544e-08
2.7613e-08
2.7689e-08
2.73734e-08
2.73278e-08
2.78466e-08
2.85257e-08
2.8857e-08
2.89217e-08
2.93207e-08
3.00073e-08
3.03408e-08
3.04261e-08
3.09286e-08
3.18031e-08
3.23433e-08
3.25102e-08
3.27704e-08
3.35332e-08
3.43925e-08
3.49517e-08
3.53951e-08
3.58841e-08
3.66264e-08
3.73208e-08
3.78911e-08
3.89054e-08
4.01779e-08
4.12773e-08
4.22055e-08
4.28258e-08
4.36683e-08
4.48772e-08
4.65268e-08
4.885e-08
5.10149e-08
5.27439e-08
5.42689e-08
5.61019e-08
5.87491e-08
6.26602e-08
6.72245e-08
7.10626e-08
7.4158e-08
7.88252e-08
8.66985e-08
9.60936e-08
1.05342e-07
1.15618e-07
1.29699e-07
1.50211e-07
1.78239e-07
1.80064e-07
1.82291e-07
1.84741e-07
1.86816e-07
1.8844e-07
1.90491e-07
1.93417e-07
1.96549e-07
1.99149e-07
1.70144e-07
1.41194e-07
1.22017e-07
1.0963e-07
1.00961e-07
9.19623e-08
8.36294e-08
7.65895e-08
7.08049e-08
6.62323e-08
6.28445e-08
5.98685e-08
5.711e-08
5.45595e-08
5.19303e-08
4.98454e-08
4.8393e-08
4.72791e-08
4.6265e-08
4.50623e-08
4.36258e-08
4.21578e-08
4.12936e-08
4.08888e-08
4.06594e-08
4.05008e-08
3.99099e-08
3.9307e-08
3.89834e-08
3.86847e-08
3.84458e-08
3.85267e-08
3.87282e-08
3.88094e-08
3.86787e-08
3.855e-08
3.89268e-08
3.95616e-08
3.99721e-08
4.01211e-08
4.02803e-08
4.03801e-08
4.09133e-08
4.2249e-08
4.32426e-08
4.38332e-08
4.45024e-08
4.502e-08
4.56043e-08
4.66133e-08
4.80284e-08
4.96773e-08
5.10837e-08
5.22577e-08
5.3391e-08
5.48368e-08
5.66126e-08
5.82557e-08
5.98821e-08
6.18578e-08
6.43556e-08
6.69763e-08
6.96412e-08
7.19648e-08
7.36209e-08
7.60339e-08
7.97519e-08
8.40707e-08
8.75571e-08
9.04563e-08
9.42285e-08
9.89329e-08
1.03624e-07
1.08548e-07
1.14161e-07
1.19529e-07
1.25424e-07
1.33504e-07
1.42457e-07
1.51815e-07
1.60876e-07
1.67553e-07
1.79664e-07
2.02394e-07
2.27847e-07
2.50281e-07
2.66748e-07
2.94923e-07
3.14073e-07
3.15169e-07
3.16767e-07
3.18678e-07
3.20156e-07
3.21305e-07
3.22549e-07
3.24196e-07
3.26196e-07
3.28137e-07
3.29823e-07
3.3147e-07
3.3344e-07
3.35673e-07
3.37756e-07
3.19011e-07
2.97372e-07
2.8556e-07
2.83822e-07
2.91323e-07
3.05529e-07
3.16036e-07
3.24932e-07
3.3979e-07
3.60647e-07
3.62561e-07
3.64444e-07
3.66485e-07
3.68768e-07
3.71079e-07
3.7322e-07
3.75102e-07
3.76711e-07
3.78142e-07
3.79613e-07
3.81219e-07
3.82587e-07
3.83453e-07
3.83975e-07
3.84385e-07
3.84985e-07
3.85811e-07
3.86397e-07
3.8647e-07
3.71518e-07
3.45987e-07
3.22044e-07
3.02273e-07
2.8634e-07
2.71425e-07
2.57799e-07
2.46999e-07
2.37625e-07
2.27696e-07
2.18374e-07
2.10746e-07
2.04741e-07
1.99643e-07
1.94516e-07
1.90177e-07
1.86534e-07
1.83578e-07
1.814e-07
1.79411e-07
1.78003e-07
1.76915e-07
1.76173e-07
1.7573e-07
1.75266e-07
1.75005e-07
1.75508e-07
1.76613e-07
1.78294e-07
1.79527e-07
1.8077e-07
1.82535e-07
1.85138e-07
1.87951e-07
1.90336e-07
1.934e-07
1.97086e-07
2.01035e-07
2.04825e-07
2.08943e-07
2.13918e-07
2.19525e-07
2.24609e-07
2.30368e-07
2.37143e-07
2.46194e-07
2.54119e-07
2.62737e-07
2.70956e-07
2.81087e-07
2.91588e-07
3.09082e-07
3.1968e-07
3.3632e-07
3.46595e-07
3.66493e-07
3.70081e-07
3.91365e-07
3.93363e-07
3.95312e-07
3.97414e-07
3.98819e-07
4.00179e-07
4.01677e-07
4.02908e-07
4.05525e-07
4.07627e-07
4.07615e-07
4.0965e-07
4.08169e-07
4.07067e-07
3.60026e-07
3.50296e-07
2.25726e-07
1.25741e-07
1.07088e-07
7.95181e-08
7.49142e-08
3.50871e-08
2.91805e-08
4.44046e-08
6.88248e-08
7.42062e-08
6.83988e-08
1.08995e-07
1.19068e-07
1.60523e-07
2.12773e-07
2.64127e-07
3.09898e-07
4.47325e-07
2.17858e-07
1.05322e-07
8.89834e-08
6.83268e-08
6.61974e-08
3.31019e-08
2.84372e-08
4.3855e-08
6.19898e-08
6.52093e-08
6.34615e-08
1.16393e-07
1.40071e-07
3.03823e-07
2.23865e-07
2.0539e-07
1.44034e-07
2.1836e-07
2.04568e-07
2.6671e-07
6.38188e-08
6.26289e-08
3.38315e-08
2.77088e-08
1.53612e-08
1.21736e-08
6.97522e-09
6.53907e-09
9.38267e-09
1.21445e-08
1.34524e-08
1.36239e-08
1.797e-08
2.52459e-08
3.33273e-08
4.24029e-08
5.19131e-08
6.26127e-08
7.55634e-08
8.96468e-08
1.05815e-07
1.25343e-07
1.50551e-07
1.77318e-07
2.09562e-07
2.55807e-07
3.03779e-07
3.64377e-07
4.27867e-07
4.26419e-07
4.25368e-07
4.22075e-07
4.19088e-07
4.17036e-07
4.1543e-07
4.14322e-07
4.13152e-07
4.12072e-07
4.1137e-07
4.10766e-07
4.10566e-07
4.10351e-07
4.13016e-07
4.14679e-07
3.99548e-07
3.82961e-07
3.68641e-07
3.5874e-07
3.4431e-07
3.32164e-07
3.21091e-07
3.09148e-07
2.97407e-07
2.89804e-07
2.80222e-07
2.70803e-07
2.66034e-07
2.6108e-07
2.56346e-07
2.52467e-07
2.48682e-07
2.45653e-07
2.43085e-07
2.39886e-07
2.3585e-07
2.31822e-07
2.28905e-07
2.26968e-07
2.24887e-07
2.217e-07
2.1674e-07
2.13028e-07
2.13481e-07
2.14661e-07
2.12844e-07
2.08288e-07
2.0566e-07
2.07256e-07
2.09725e-07
2.07155e-07
2.03262e-07
2.02924e-07
2.08032e-07
2.02594e-07
2.25511e-07
1.34618e-07
1.68237e-07
4.58651e-08
3.33785e-08
1.79074e-08
3.549e-08
3.08307e-09
3.74365e-09
6.59719e-09
1.20757e-08
1.20305e-08
9.53426e-09
7.16855e-09
5.54725e-09
5.78879e-09
7.47125e-09
8.28664e-09
1.03775e-08
1.83953e-08
5.97037e-08
7.22331e-08
8.34456e-08
8.52685e-08
8.73167e-08
8.94699e-08
9.15697e-08
9.36244e-08
9.59587e-08
9.87205e-08
1.01112e-07
1.01882e-07
1.00324e-07
9.72723e-08
9.39835e-08
8.31844e-08
6.66115e-08
5.50872e-08
4.38152e-08
3.41606e-08
2.76097e-08
2.5615e-08
2.89008e-08
3.43667e-08
3.35401e-08
2.47241e-08
1.723e-08
1.44231e-08
1.46033e-08
1.63782e-08
1.61936e-08
1.37255e-08
1.20682e-08
1.10575e-08
1.07259e-08
1.09691e-08
1.17906e-08
1.19477e-08
1.08163e-08
1.01099e-08
1.00905e-08
1.09907e-08
1.18051e-08
1.11979e-08
1.00704e-08
9.07767e-09
8.3464e-09
8.36209e-09
8.74425e-09
8.99961e-09
8.55927e-09
7.04757e-09
6.50034e-09
7.43166e-09
9.00915e-09
1.0266e-08
1.1763e-08
1.29267e-08
1.35845e-08
1.28173e-08
1.3635e-08
1.67086e-08
2.38609e-08
4.64657e-08
6.42779e-08
6.36914e-08
6.33979e-08
6.29386e-08
6.23624e-08
6.23608e-08
6.40407e-08
6.59981e-08
6.68074e-08
6.68847e-08
6.44653e-08
6.10223e-08
5.72746e-08
5.31921e-08
5.0838e-08
4.9409e-08
3.71425e-08
2.11501e-08
1.36674e-08
1.23076e-08
1.2762e-08
1.48633e-08
3.20996e-08
5.55701e-08
6.28677e-08
5.3414e-08
4.68162e-08
3.55167e-08
2.44781e-08
1.87639e-08
1.42971e-08
9.89702e-09
7.70001e-09
7.72213e-09
8.09491e-09
1.10121e-08
2.00475e-08
2.5061e-08
8.61793e-08
9.70039e-08
3.30688e-08
2.01641e-08
3.03534e-08
2.57197e-08
2.58379e-08
2.00104e-08
2.52085e-08
4.07714e-08
2.95604e-08
4.82407e-08
3.81971e-08
3.63813e-08
3.84556e-08
3.43424e-08
3.03152e-08
3.11034e-08
2.9292e-08
2.75857e-08
2.44638e-08
2.29561e-08
2.29305e-08
2.196e-08
2.21814e-08
2.19184e-08
2.14247e-08
2.07442e-08
2.04065e-08
1.99631e-08
1.97785e-08
1.9542e-08
1.91104e-08
1.89944e-08
1.92901e-08
1.93946e-08
1.89901e-08
1.85461e-08
1.82329e-08
1.83928e-08
1.88162e-08
1.89347e-08
1.88226e-08
1.85489e-08
1.83994e-08
1.85726e-08
1.89679e-08
1.92828e-08
1.94287e-08
1.9604e-08
1.9751e-08
1.98818e-08
2.00845e-08
2.04201e-08
2.07948e-08
2.10912e-08
2.14167e-08
2.16295e-08
2.19448e-08
2.23074e-08
2.26904e-08
2.32701e-08
2.37481e-08
2.39524e-08
2.4179e-08
2.47472e-08
2.56576e-08
2.63762e-08
2.6873e-08
2.75134e-08
2.82431e-08
2.90247e-08
2.97452e-08
3.07008e-08
3.21735e-08
3.37921e-08
3.53914e-08
3.67354e-08
3.77818e-08
3.9201e-08
4.14747e-08
4.4775e-08
4.83482e-08
5.13881e-08
5.44026e-08
5.85218e-08
6.414e-08
7.08979e-08
7.93171e-08
9.02514e-08
1.02721e-07
1.1791e-07
1.38135e-07
1.66503e-07
2.02877e-07
2.19011e-07
2.31423e-07
2.53219e-07
2.28658e-07
1.77984e-07
1.38938e-07
1.14952e-07
1.01414e-07
9.17674e-08
8.36475e-08
7.57718e-08
6.80004e-08
6.2688e-08
5.94597e-08
5.60544e-08
5.27032e-08
4.95076e-08
4.67821e-08
4.48338e-08
4.35367e-08
4.24268e-08
4.0859e-08
3.94712e-08
3.88654e-08
3.81191e-08
3.68448e-08
3.57794e-08
3.51056e-08
3.46194e-08
3.46502e-08
3.47155e-08
3.44195e-08
3.38045e-08
3.30998e-08
3.28022e-08
3.28458e-08
3.33574e-08
3.376e-08
3.34966e-08
3.33011e-08
3.31246e-08
3.33183e-08
3.41697e-08
3.48148e-08
3.5159e-08
3.51775e-08
3.50948e-08
3.54248e-08
3.61792e-08
3.74573e-08
3.84309e-08
3.88132e-08
3.94354e-08
4.03751e-08
4.12427e-08
4.21515e-08
4.32684e-08
4.45907e-08
4.59253e-08
4.68872e-08
4.77691e-08
4.97548e-08
5.24836e-08
5.42973e-08
5.52492e-08
5.63705e-08
5.8364e-08
6.11508e-08
6.40765e-08
6.63195e-08
6.85284e-08
7.21496e-08
7.54529e-08
7.79843e-08
8.05125e-08
8.30772e-08
8.71794e-08
9.36969e-08
1.00222e-07
1.04438e-07
1.07704e-07
1.11064e-07
1.16068e-07
1.25528e-07
1.38485e-07
1.49501e-07
1.56017e-07
1.609e-07
1.71167e-07
1.91951e-07
2.23031e-07
2.44439e-07
2.54965e-07
2.85087e-07
3.65013e-07
4.76921e-07
5.41701e-07
6.43608e-07
9.77278e-07
2.46801e-06
4.54505e-06
2.07052e-06
1.317e-06
8.65322e-07
6.03915e-07
4.71839e-07
4.19869e-07
4.02408e-07
3.81346e-07
3.51672e-07
3.21711e-07
3.02088e-07
3.00905e-07
3.16577e-07
3.37457e-07
3.38532e-07
3.35e-07
3.42962e-07
3.64665e-07
4.04613e-07
4.35427e-07
4.39202e-07
4.46175e-07
4.62917e-07
4.88829e-07
5.0942e-07
5.08089e-07
4.97818e-07
4.89935e-07
4.85643e-07
4.71408e-07
4.56809e-07
4.466e-07
4.23245e-07
3.87962e-07
3.64526e-07
3.53235e-07
3.41532e-07
3.24607e-07
3.04279e-07
2.8649e-07
2.72404e-07
2.6022e-07
2.47244e-07
2.35971e-07
2.28587e-07
2.21708e-07
2.12921e-07
2.04547e-07
1.98438e-07
1.93843e-07
1.89808e-07
1.85166e-07
1.80596e-07
1.7698e-07
1.74893e-07
1.74035e-07
1.72512e-07
1.70382e-07
1.69221e-07
1.69177e-07
1.69514e-07
1.69231e-07
1.69122e-07
1.69383e-07
1.70919e-07
1.72661e-07
1.7401e-07
1.74715e-07
1.76518e-07
1.79269e-07
1.83126e-07
1.85628e-07
1.89032e-07
1.93004e-07
1.96291e-07
1.98993e-07
2.02396e-07
2.08902e-07
2.14021e-07
2.18997e-07
2.23039e-07
2.31387e-07
2.39442e-07
2.49274e-07
2.56193e-07
2.66995e-07
2.73218e-07
2.86179e-07
2.97707e-07
3.14381e-07
3.22751e-07
3.47755e-07
3.56892e-07
3.80159e-07
3.9234e-07
3.70488e-07
3.80975e-07
3.68591e-07
4.32128e-07
4.47085e-07
6.15917e-07
6.97435e-07
3.73367e-07
3.22861e-07
3.5738e-07
3.33193e-07
3.92489e-07
2.42281e-07
1.22959e-07
9.70936e-08
7.00556e-08
6.87097e-08
3.26671e-08
2.79654e-08
4.48394e-08
6.24699e-08
8.10578e-08
7.4775e-08
1.3327e-07
1.05898e-07
1.37805e-07
2.9945e-07
2.58575e-07
3.60936e-07
2.26277e-07
2.28385e-07
8.36274e-08
7.0346e-08
5.53427e-08
5.58269e-08
2.96171e-08
2.65673e-08
4.25466e-08
5.57258e-08
6.68486e-08
6.50953e-08
1.12053e-07
8.85432e-08
1.13357e-07
1.28111e-07
1.15031e-07
1.46065e-07
1.56047e-07
1.41422e-07
3.04914e-07
6.64075e-08
6.50103e-08
3.05928e-08
2.39737e-08
1.35281e-08
1.06516e-08
6.41052e-09
6.09737e-09
8.63644e-09
1.03874e-08
1.24711e-08
1.38162e-08
2.02852e-08
2.38445e-08
2.72834e-08
3.37055e-08
3.89804e-08
4.48353e-08
5.18355e-08
5.97939e-08
6.84512e-08
7.94479e-08
9.1961e-08
1.07452e-07
1.2474e-07
1.46839e-07
1.72375e-07
1.96635e-07
2.32796e-07
2.74858e-07
3.11549e-07
3.7169e-07
4.57337e-07
5.24982e-07
5.66253e-07
6.8869e-07
7.86984e-07
7.88229e-07
7.55061e-07
7.05407e-07
6.4918e-07
5.86709e-07
5.39439e-07
5.03133e-07
4.91082e-07
4.27551e-07
3.81357e-07
3.60434e-07
3.48182e-07
3.38878e-07
3.29765e-07
3.20371e-07
3.11311e-07
3.02024e-07
2.92723e-07
2.83937e-07
2.73239e-07
2.60266e-07
2.65731e-07
2.67322e-07
2.60572e-07
2.53201e-07
2.47777e-07
2.43318e-07
2.40038e-07
2.37446e-07
2.34775e-07
2.31816e-07
2.28566e-07
2.2504e-07
2.2115e-07
2.17066e-07
2.13706e-07
2.12392e-07
2.13333e-07
2.14064e-07
2.11476e-07
2.06454e-07
2.03257e-07
2.05833e-07
2.09914e-07
2.07311e-07
2.01048e-07
2.00318e-07
2.05482e-07
1.99589e-07
1.84332e-07
2.05335e-07
1.3298e-07
1.6529e-07
4.50006e-08
3.27197e-08
1.74111e-08
3.44493e-08
2.56286e-09
3.43506e-09
5.44083e-09
8.41965e-09
7.95418e-09
6.59118e-09
5.20382e-09
4.34146e-09
4.97607e-09
7.55125e-09
8.19833e-09
1.02249e-08
1.74464e-08
2.87609e-08
3.55117e-08
5.91262e-08
8.89974e-08
8.82655e-08
8.80751e-08
8.83292e-08
8.89828e-08
8.99781e-08
9.10696e-08
9.19081e-08
8.56313e-08
5.84274e-08
4.19777e-08
3.32389e-08
2.72731e-08
2.25605e-08
1.90786e-08
1.65664e-08
1.5877e-08
1.5466e-08
1.41139e-08
1.31404e-08
1.26614e-08
1.14587e-08
9.8007e-09
8.46766e-09
8.26412e-09
9.05559e-09
1.04938e-08
1.09274e-08
9.38652e-09
7.35083e-09
6.17119e-09
6.01452e-09
6.79509e-09
8.50495e-09
9.46226e-09
8.43269e-09
7.10095e-09
6.29446e-09
6.30216e-09
7.05886e-09
7.93148e-09
8.338e-09
7.81516e-09
7.26064e-09
7.31171e-09
7.20036e-09
6.38915e-09
5.40612e-09
4.64595e-09
4.64387e-09
5.21942e-09
5.41333e-09
5.62225e-09
6.62257e-09
7.96302e-09
8.87906e-09
9.65964e-09
1.05373e-08
1.29099e-08
1.30092e-08
1.53808e-08
2.72428e-08
4.86127e-08
7.67468e-08
7.23209e-08
6.87875e-08
6.6646e-08
6.53049e-08
6.48906e-08
6.54056e-08
6.56318e-08
6.47875e-08
6.30673e-08
5.93478e-08
5.58939e-08
5.28595e-08
5.08065e-08
5.01013e-08
5.07443e-08
5.382e-08
3.49663e-08
2.22055e-08
1.56959e-08
1.7548e-08
2.24962e-08
3.25622e-08
4.28588e-08
4.54429e-08
4.11781e-08
2.64494e-08
1.69343e-08
1.3359e-08
1.11805e-08
1.08387e-08
1.06789e-08
8.15826e-09
6.48671e-09
6.73999e-09
7.60794e-09
1.00756e-08
2.03328e-08
2.48265e-08
8.08149e-08
5.04158e-08
2.52276e-08
1.69968e-08
2.45386e-08
2.15396e-08
2.26603e-08
2.24954e-08
3.08432e-08
4.037e-08
2.81932e-08
5.12791e-08
3.81798e-08
3.0955e-08
3.02881e-08
2.72374e-08
2.5481e-08
2.24961e-08
2.32886e-08
2.34546e-08
2.1494e-08
2.06348e-08
2.07017e-08
2.01963e-08
2.03401e-08
1.99771e-08
1.93207e-08
1.88311e-08
1.86816e-08
1.83328e-08
1.8505e-08
1.8728e-08
1.85258e-08
1.80551e-08
1.76376e-08
1.74653e-08
1.77913e-08
1.80033e-08
1.78056e-08
1.7668e-08
1.76448e-08
1.76237e-08
1.75852e-08
1.76356e-08
1.79478e-08
1.83332e-08
1.84872e-08
1.83958e-08
1.84547e-08
1.8807e-08
1.91505e-08
1.93727e-08
1.96199e-08
2.00487e-08
2.03208e-08
2.04427e-08
2.07297e-08
2.11906e-08
2.17463e-08
2.22002e-08
2.23474e-08
2.26281e-08
2.33626e-08
2.41746e-08
2.46408e-08
2.50662e-08
2.56347e-08
2.64529e-08
2.73942e-08
2.82575e-08
2.91664e-08
3.02244e-08
3.15017e-08
3.30636e-08
3.4713e-08
3.61055e-08
3.7502e-08
3.90307e-08
4.16053e-08
4.52967e-08
4.89227e-08
5.1795e-08
5.44152e-08
5.87842e-08
6.61312e-08
7.52089e-08
8.43032e-08
9.20543e-08
1.01564e-07
1.167e-07
1.36786e-07
1.55124e-07
1.60492e-07
1.70265e-07
1.86577e-07
1.74434e-07
1.43596e-07
1.16736e-07
1.00369e-07
9.30421e-08
8.7942e-08
8.09511e-08
7.17778e-08
6.38053e-08
5.90649e-08
5.71435e-08
5.52957e-08
5.22404e-08
4.84605e-08
4.53995e-08
4.33667e-08
4.21157e-08
4.15785e-08
4.05708e-08
3.90041e-08
3.81848e-08
3.73154e-08
3.59662e-08
3.50833e-08
3.47924e-08
3.46542e-08
3.46755e-08
3.43314e-08
3.35651e-08
3.29559e-08
3.25971e-08
3.2513e-08
3.27282e-08
3.33672e-08
3.36209e-08
3.3143e-08
3.27431e-08
3.27208e-08
3.31346e-08
3.38477e-08
3.44192e-08
3.46897e-08
3.46549e-08
3.47812e-08
3.55089e-08
3.64085e-08
3.7085e-08
3.77335e-08
3.81937e-08
3.89007e-08
4.02525e-08
4.13937e-08
4.21572e-08
4.29681e-08
4.41434e-08
4.54637e-08
4.63355e-08
4.7328e-08
4.95016e-08
5.22131e-08
5.4273e-08
5.57557e-08
5.67449e-08
5.79868e-08
6.01759e-08
6.32557e-08
6.63909e-08
6.95597e-08
7.36833e-08
7.62117e-08
7.70367e-08
7.94689e-08
8.35554e-08
8.89694e-08
9.5624e-08
1.01657e-07
1.04964e-07
1.07417e-07
1.12725e-07
1.19947e-07
1.28453e-07
1.40678e-07
1.52035e-07
1.59591e-07
1.69783e-07
1.8314e-07
1.99288e-07
2.23221e-07
2.41619e-07
2.66566e-07
3.15668e-07
3.86254e-07
4.70008e-07
5.28054e-07
6.5508e-07
9.76057e-07
2.02947e-06
8.02362e-06
5.82522e-06
1.75945e-06
9.58123e-07
7.12413e-07
6.07892e-07
5.64716e-07
5.10835e-07
4.44172e-07
4.15333e-07
3.96301e-07
3.7678e-07
3.72667e-07
3.78966e-07
3.84059e-07
3.8415e-07
3.89664e-07
3.85855e-07
3.88909e-07
4.12002e-07
4.29217e-07
4.23304e-07
4.14161e-07
4.141e-07
4.16951e-07
4.19857e-07
4.11408e-07
4.02594e-07
4.02416e-07
3.96294e-07
3.77007e-07
3.66313e-07
3.60226e-07
3.41429e-07
3.2151e-07
3.09943e-07
3.01712e-07
2.92586e-07
2.82187e-07
2.71572e-07
2.60381e-07
2.47594e-07
2.36345e-07
2.27266e-07
2.19813e-07
2.14262e-07
2.07582e-07
1.9998e-07
1.93865e-07
1.89295e-07
1.85488e-07
1.82214e-07
1.7846e-07
1.7449e-07
1.71662e-07
1.69988e-07
1.69069e-07
1.67416e-07
1.65541e-07
1.64682e-07
1.65223e-07
1.65773e-07
1.66093e-07
1.65818e-07
1.66279e-07
1.67557e-07
1.69234e-07
1.70322e-07
1.71922e-07
1.73677e-07
1.76742e-07
1.80117e-07
1.82704e-07
1.85861e-07
1.89451e-07
1.93263e-07
1.95968e-07
2.00279e-07
2.0584e-07
2.11716e-07
2.1624e-07
2.21996e-07
2.2791e-07
2.37227e-07
2.45557e-07
2.5611e-07
2.63168e-07
2.71605e-07
2.77978e-07
2.97811e-07
3.11261e-07
3.38974e-07
3.47427e-07
3.53291e-07
3.41323e-07
4.08952e-07
4.17114e-07
6.99918e-07
6.4151e-07
3.97488e-07
3.06518e-07
2.41047e-07
3.03487e-07
2.79945e-07
4.75429e-07
2.63525e-07
1.15265e-07
9.04995e-08
6.52123e-08
6.46134e-08
3.11732e-08
2.64125e-08
4.21767e-08
5.65176e-08
7.65185e-08
7.03246e-08
1.31216e-07
1.15125e-07
2.76943e-07
2.91489e-06
6.02113e-07
1.72429e-07
1.448e-07
7.43255e-08
6.39673e-08
5.90804e-08
5.03211e-08
3.91945e-08
2.67243e-08
2.34373e-08
3.75225e-08
4.65464e-08
5.97343e-08
5.86749e-08
1.10556e-07
9.29642e-08
1.45002e-07
1.64463e-07
1.11805e-07
1.49224e-07
2.35481e-07
4.4893e-07
5.94526e-08
7.02974e-08
7.64393e-08
2.67052e-08
2.11941e-08
1.25348e-08
9.75848e-09
6.04063e-09
5.77872e-09
8.14826e-09
9.72393e-09
1.22128e-08
1.4176e-08
1.96411e-08
2.47779e-08
3.93712e-08
7.34623e-08
5.49403e-08
4.32483e-08
4.20656e-08
4.5446e-08
5.05915e-08
5.7122e-08
6.48081e-08
7.3379e-08
8.39656e-08
9.50739e-08
1.07481e-07
1.23688e-07
1.42033e-07
1.62984e-07
1.84934e-07
2.11791e-07
2.43097e-07
2.75833e-07
3.15609e-07
3.58585e-07
3.92429e-07
4.23622e-07
4.73362e-07
5.08331e-07
5.23312e-07
5.30561e-07
5.33036e-07
5.23678e-07
4.98096e-07
4.79075e-07
4.59424e-07
4.41854e-07
4.02796e-07
3.72108e-07
3.53384e-07
3.42437e-07
3.32706e-07
3.22214e-07
3.13548e-07
3.02509e-07
2.91845e-07
2.83426e-07
2.7703e-07
2.69174e-07
2.61327e-07
2.6259e-07
2.59763e-07
2.53779e-07
2.47901e-07
2.43462e-07
2.4051e-07
2.38448e-07
2.36068e-07
2.32725e-07
2.28793e-07
2.24975e-07
2.21513e-07
2.18101e-07
2.14818e-07
2.12628e-07
2.12985e-07
2.14503e-07
2.13215e-07
2.08721e-07
2.04868e-07
2.05704e-07
2.09501e-07
2.08987e-07
2.0245e-07
1.98988e-07
2.00927e-07
2.01699e-07
1.95232e-07
1.86276e-07
2.14291e-07
1.35183e-07
1.64826e-07
4.50122e-08
3.27365e-08
1.73788e-08
3.46073e-08
2.23671e-09
3.2238e-09
5.10871e-09
7.21787e-09
6.49566e-09
5.16472e-09
3.99426e-09
3.5686e-09
4.61332e-09
8.07212e-09
9.19647e-09
1.04339e-08
1.17679e-08
1.16889e-08
1.50707e-08
2.9438e-08
5.23217e-08
5.45818e-08
4.17535e-08
3.45283e-08
2.75071e-08
2.29623e-08
1.92148e-08
1.69888e-08
1.62859e-08
1.5764e-08
1.49074e-08
1.3246e-08
1.12424e-08
9.7214e-09
8.86438e-09
8.8876e-09
9.87836e-09
1.08552e-08
1.00813e-08
8.2471e-09
7.08246e-09
6.40169e-09
6.0368e-09
6.04705e-09
6.3879e-09
7.02923e-09
7.96167e-09
8.9159e-09
7.857e-09
6.08148e-09
5.26074e-09
5.30651e-09
6.29434e-09
8.594e-09
1.03595e-08
8.32851e-09
6.13828e-09
5.19992e-09
5.0369e-09
5.76168e-09
7.63017e-09
9.1983e-09
8.28085e-09
7.49738e-09
7.30708e-09
6.6869e-09
5.57858e-09
4.7917e-09
4.75443e-09
5.01554e-09
4.94272e-09
4.43215e-09
4.20014e-09
4.60301e-09
5.66561e-09
6.55392e-09
7.68714e-09
9.48964e-09
1.08666e-08
1.11383e-08
1.01806e-08
1.09363e-08
1.81981e-08
3.13956e-08
6.45438e-08
5.99719e-08
6.74144e-08
8.78412e-08
7.9962e-08
7.45037e-08
7.06931e-08
6.78954e-08
6.56222e-08
6.35999e-08
6.10103e-08
5.86904e-08
5.62122e-08
5.44318e-08
5.3931e-08
5.46182e-08
5.73346e-08
6.27447e-08
4.91348e-08
3.30186e-08
2.58321e-08
2.22278e-08
2.53071e-08
2.70086e-08
3.3239e-08
2.89871e-08
2.46426e-08
1.90563e-08
1.35169e-08
8.7491e-09
7.13682e-09
6.82676e-09
7.87801e-09
9.22554e-09
8.6416e-09
7.5089e-09
7.7547e-09
7.5975e-09
9.17214e-09
1.95619e-08
2.14949e-08
5.56851e-08
4.53128e-08
2.27665e-08
1.66373e-08
2.31891e-08
2.10912e-08
2.43639e-08
2.88874e-08
4.38702e-08
4.29499e-08
2.62862e-08
4.71982e-08
3.28726e-08
2.42245e-08
2.23731e-08
2.26951e-08
2.28244e-08
2.01857e-08
2.09646e-08
2.11763e-08
2.05925e-08
2.02244e-08
2.00041e-08
1.9209e-08
1.89225e-08
1.87202e-08
1.86976e-08
1.89453e-08
1.89337e-08
1.83229e-08
1.78513e-08
1.76097e-08
1.77782e-08
1.79892e-08
1.78715e-08
1.76125e-08
1.74048e-08
1.7447e-08
1.76594e-08
1.764e-08
1.74768e-08
1.76099e-08
1.8002e-08
1.81231e-08
1.80135e-08
1.81474e-08
1.85253e-08
1.87804e-08
1.89417e-08
1.91637e-08
1.9507e-08
1.9867e-08
2.00548e-08
2.02826e-08
2.07491e-08
2.11681e-08
2.14871e-08
2.18206e-08
2.2336e-08
2.3063e-08
2.36367e-08
2.39542e-08
2.43678e-08
2.49634e-08
2.58586e-08
2.68796e-08
2.79087e-08
2.87189e-08
2.94198e-08
3.05011e-08
3.18725e-08
3.36682e-08
3.55481e-08
3.70906e-08
3.82788e-08
4.00415e-08
4.32103e-08
4.69929e-08
5.04122e-08
5.28478e-08
5.6049e-08
6.22308e-08
7.04352e-08
7.8148e-08
8.40224e-08
9.09866e-08
1.01773e-07
1.14417e-07
1.2399e-07
1.30241e-07
1.37919e-07
1.45386e-07
1.37412e-07
1.17004e-07
9.96856e-08
9.08869e-08
8.76502e-08
8.41157e-08
7.66301e-08
6.71705e-08
6.06543e-08
5.7189e-08
5.56291e-08
5.37161e-08
5.07785e-08
4.791e-08
4.50506e-08
4.27399e-08
4.11898e-08
4.03884e-08
4e-08
3.89812e-08
3.76861e-08
3.65127e-08
3.56806e-08
3.49879e-08
3.4598e-08
3.46926e-08
3.43333e-08
3.36073e-08
3.29309e-08
3.25183e-08
3.24538e-08
3.26983e-08
3.30213e-08
3.32306e-08
3.30785e-08
3.26536e-08
3.2388e-08
3.27232e-08
3.32307e-08