/*--------------------------------*- C++ -*----------------------------------*\
| =========                 |                                                 |
| \\      /  F ield         | OpenFOAM: The Open Source CFD Toolbox           |
|  \\    /   O peration     | Version:  v2006                                 |
|   \\  /    A nd           | Website:  www.openfoam.com                      |
|    \\/     M anipulation  |                                                 |
\*---------------------------------------------------------------------------*/
FoamFile
{
    version     2.0;
    format      ascii;
    class       surfaceScalarField;
    location    "5.6";
    object      phi;
}
// * * * * * * * * * * * * * * * * * * * * * * * * * * * * * * * * * * * * * //

dimensions      [0 3 -1 0 0 0 0];
oriented        oriented;


internalField   nonuniform List<scalar> 
65390
(
-0.000113581
1.11989e-06
-0.000114045
4.6019e-07
-0.000114914
8.66996e-07
-0.000116189
1.27254e-06
-0.000117404
1.21335e-06
-0.000118097
6.91437e-07
-0.000117401
-6.96596e-07
-0.000114679
-2.72371e-06
-0.000109468
-5.21138e-06
-0.000102516
-6.95188e-06
-9.49977e-05
-7.5191e-06
-8.80045e-05
-6.99351e-06
-8.13747e-05
-6.62996e-06
-7.43204e-05
-7.05444e-06
-6.69285e-05
-7.3921e-06
-6.00845e-05
-6.84406e-06
-5.39424e-05
-6.14217e-06
-4.9101e-05
-4.84149e-06
-4.60101e-05
-3.09095e-06
-4.50762e-05
-9.33946e-07
-4.63617e-05
1.28537e-06
-4.97242e-05
3.36248e-06
-5.58243e-05
6.09999e-06
-6.38782e-05
8.05389e-06
-6.99952e-05
6.11688e-06
-7.28032e-05
2.80798e-06
-7.4219e-05
1.41577e-06
-7.51033e-05
8.842e-07
-7.54788e-05
3.75416e-07
-7.51921e-05
-2.86759e-07
-7.43816e-05
-8.10545e-07
-7.33093e-05
-1.07237e-06
-7.22731e-05
-1.03618e-06
-7.14379e-05
-8.3526e-07
-7.08568e-05
-5.81073e-07
-7.03241e-05
-5.32745e-07
-6.95552e-05
-7.68893e-07
-6.86409e-05
-9.14358e-07
-6.78701e-05
-7.70739e-07
-6.73741e-05
-4.96057e-07
-6.68111e-05
-5.62971e-07
-6.56795e-05
-1.13153e-06
-6.39913e-05
-1.68821e-06
-6.2136e-05
-1.8553e-06
-6.05687e-05
-1.56734e-06
-5.94943e-05
-1.07437e-06
-5.8911e-05
-5.83268e-07
-5.83029e-05
-6.08067e-07
-5.71569e-05
-1.14601e-06
-5.55317e-05
-1.6251e-06
-5.37159e-05
-1.81581e-06
-5.21209e-05
-1.59499e-06
-5.08838e-05
-1.23711e-06
-4.98917e-05
-9.92013e-07
-4.8817e-05
-1.07474e-06
-4.7481e-05
-1.33598e-06
-4.60281e-05
-1.45288e-06
-4.45339e-05
-1.49419e-06
-4.30266e-05
-1.5072e-06
-4.14025e-05
-1.6241e-06
-3.94664e-05
-1.93604e-06
-3.74202e-05
-2.04619e-06
-3.5635e-05
-1.78515e-06
-3.43253e-05
-1.30967e-06
-3.34365e-05
-8.88739e-07
-3.24424e-05
-9.94058e-07
-3.1116e-05
-1.32632e-06
-2.9699e-05
-1.41693e-06
-2.85828e-05
-1.1162e-06
-2.76034e-05
-9.79333e-07
-2.65055e-05
-1.09788e-06
-2.50066e-05
-1.49889e-06
-2.31159e-05
-1.89066e-06
-2.08211e-05
-2.29471e-06
-1.81805e-05
-2.64055e-06
-1.51574e-05
-3.02312e-06
-1.18744e-05
-3.28288e-06
-7.71615e-06
-4.15824e-06
-3.77381e-06
-3.94232e-06
-2.10481e-06
-1.66899e-06
-8.36049e-07
-1.26876e-06
-9.09148e-07
7.31138e-08
-7.38049e-07
-1.7109e-07
-1.08567e-06
3.47634e-07
-2.00649e-06
9.20831e-07
-3.04244e-06
1.03597e-06
-4.45641e-06
1.414e-06
-5.7578e-06
1.3014e-06
-6.82828e-06
1.0705e-06
-7.5398e-06
7.11532e-07
-7.93946e-06
3.99675e-07
-8.03844e-06
9.89882e-08
-8.11077e-06
7.23459e-08
-8.23473e-06
1.23978e-07
-8.50237e-06
2.67656e-07
-8.89368e-06
3.91327e-07
-9.68479e-06
7.91113e-07
-1.08104e-05
1.12566e-06
-1.27382e-05
1.9277e-06
-1.49619e-05
2.22375e-06
-1.6693e-05
1.73107e-06
-1.78031e-05
1.1101e-06
-1.79247e-05
1.21565e-07
-1.78255e-05
-9.91866e-08
-1.75222e-05
-3.03288e-07
-1.73224e-05
-1.99722e-07
-1.75065e-05
1.84064e-07
-1.77473e-05
2.40832e-07
-1.78202e-05
7.2913e-08
-1.7631e-05
-1.89184e-07
-1.74041e-05
-2.26877e-07
-1.70051e-05
-3.99028e-07
-1.65361e-05
-4.69014e-07
-1.61638e-05
-3.72317e-07
-1.57606e-05
-4.03201e-07
-1.53463e-05
-4.14255e-07
-1.47699e-05
-5.7635e-07
-1.43092e-05
-4.6074e-07
-1.40758e-05
-2.33401e-07
-1.39258e-05
-1.49966e-07
-1.38668e-05
-5.89105e-08
-1.37299e-05
-1.3694e-07
-1.36408e-05
-8.91183e-08
-1.3534e-05
-1.06782e-07
-1.33813e-05
-1.52618e-07
-1.32242e-05
-1.57099e-07
-1.30572e-05
-1.67055e-07
-1.28812e-05
-1.76053e-07
-1.267e-05
-2.11188e-07
-1.24297e-05
-2.40296e-07
-1.21862e-05
-2.43578e-07
-1.19311e-05
-2.55185e-07
-1.16693e-05
-2.61792e-07
-1.13795e-05
-2.89872e-07
-1.10784e-05
-3.01177e-07
-1.0763e-05
-3.15399e-07
-1.04231e-05
-3.39913e-07
-1.00687e-05
-3.54483e-07
-9.69866e-06
-3.70084e-07
-9.31882e-06
-3.79879e-07
-8.92925e-06
-3.896e-07
-8.53361e-06
-3.95674e-07
-8.12897e-06
-4.04669e-07
-7.71053e-06
-4.18468e-07
-7.28855e-06
-4.22014e-07
-6.87632e-06
-4.12266e-07
-6.46054e-06
-4.15803e-07
-6.0352e-06
-4.25376e-07
-5.5959e-06
-4.39338e-07
-5.14385e-06
-4.52079e-07
-4.69345e-06
-4.50431e-07
-4.25431e-06
-4.39171e-07
-3.81936e-06
-4.34984e-07
-3.37345e-06
-4.45936e-07
-2.91598e-06
-4.57487e-07
-2.45546e-06
-4.60544e-07
-1.99943e-06
-4.56046e-07
-1.54841e-06
-4.51027e-07
-1.10163e-06
-4.46795e-07
-6.55844e-07
-4.45789e-07
-2.1351e-07
-4.42336e-07
2.25734e-07
-4.39245e-07
6.62999e-07
-4.37264e-07
1.09888e-06
-4.35878e-07
1.5286e-06
-4.29719e-07
1.94615e-06
-4.17556e-07
2.35949e-06
-4.13337e-07
2.77471e-06
-4.15233e-07
3.18506e-06
-4.10355e-07
3.58286e-06
-3.97811e-07
3.97286e-06
-3.90013e-07
4.36335e-06
-3.90512e-07
4.75285e-06
-3.89511e-07
5.13447e-06
-3.8164e-07
5.50313e-06
-3.68673e-07
5.86363e-06
-3.60511e-07
6.22413e-06
-3.6051e-07
6.58161e-06
-3.57481e-07
6.93014e-06
-3.48521e-07
7.26834e-06
-3.38194e-07
7.59981e-06
-3.31449e-07
7.9271e-06
-3.27252e-07
8.24325e-06
-3.16109e-07
8.54724e-06
-3.03938e-07
8.8448e-06
-2.97501e-07
9.13988e-06
-2.95015e-07
9.42863e-06
-2.88678e-07
9.70482e-06
-2.76108e-07
9.96854e-06
-2.63645e-07
1.0221e-05
-2.52367e-07
1.04654e-05
-2.44329e-07
1.07021e-05
-2.3659e-07
1.09302e-05
-2.28052e-07
1.11455e-05
-2.15239e-07
1.13472e-05
-2.01592e-07
1.15363e-05
-1.89022e-07
1.17144e-05
-1.78097e-07
1.18842e-05
-1.69703e-07
1.20461e-05
-1.61772e-07
1.21967e-05
-1.50585e-07
1.23314e-05
-1.34658e-07
1.24499e-05
-1.1837e-07
1.25557e-05
-1.0579e-07
1.26526e-05
-9.67531e-08
1.27411e-05
-8.84168e-08
1.28172e-05
-7.60789e-08
1.28785e-05
-6.11844e-08
1.29247e-05
-4.62267e-08
1.29592e-05
-3.43721e-08
1.29851e-05
-2.58823e-08
1.29993e-05
-1.41597e-08
1.29967e-05
2.67918e-09
1.29787e-05
1.80199e-08
1.29521e-05
2.66099e-08
1.29188e-05
3.33762e-08
1.28759e-05
4.28951e-08
1.28179e-05
5.80554e-08
1.27421e-05
7.58189e-08
1.26537e-05
8.832e-08
1.25585e-05
9.52037e-08
1.24587e-05
9.98708e-08
1.2351e-05
1.07662e-07
1.22317e-05
1.19358e-07
1.20965e-05
1.35178e-07
1.195e-05
1.46509e-07
1.17967e-05
1.53312e-07
1.16376e-05
1.59028e-07
1.14743e-05
1.63323e-07
1.13051e-05
1.69254e-07
1.11249e-05
1.8023e-07
1.09328e-05
1.92115e-07
1.0735e-05
1.97803e-07
1.0534e-05
2.01016e-07
1.03292e-05
2.04856e-07
1.01217e-05
2.07513e-07
9.90983e-06
2.11881e-07
9.69128e-06
2.18574e-07
9.4668e-06
2.24505e-07
9.2398e-06
2.27015e-07
9.01054e-06
2.2928e-07
8.77698e-06
2.33573e-07
8.54054e-06
2.36449e-07
8.30491e-06
2.35634e-07
8.07105e-06
2.33856e-07
7.83655e-06
2.345e-07
7.59935e-06
2.3719e-07
7.35543e-06
2.4391e-07
7.11146e-06
2.43957e-07
6.87546e-06
2.3599e-07
6.64174e-06
2.33709e-07
6.40774e-06
2.33986e-07
6.17262e-06
2.35112e-07
5.93677e-06
2.35841e-07
5.70376e-06
2.33008e-07
5.47472e-06
2.29043e-07
5.24917e-06
2.25554e-07
5.02759e-06
2.21583e-07
4.80826e-06
2.19333e-07
4.59064e-06
2.17624e-07
4.37627e-06
2.14378e-07
4.16677e-06
2.09503e-07
3.96408e-06
2.02697e-07
3.76644e-06
1.97645e-07
3.57083e-06
1.95622e-07
3.3762e-06
1.94643e-07
3.18379e-06
1.92413e-07
2.99771e-06
1.86096e-07
2.8219e-06
1.75817e-07
2.65216e-06
1.6975e-07
2.48647e-06
1.65701e-07
2.32436e-06
1.62117e-07
2.16394e-06
1.60448e-07
2.00659e-06
1.57372e-07
1.85606e-06
1.50551e-07
1.71241e-06
1.43676e-07
1.5737e-06
1.38731e-07
1.43976e-06
1.33955e-07
1.31087e-06
1.28893e-07
1.18736e-06
1.23511e-07
1.06843e-06
1.1893e-07
9.51336e-07
1.17089e-07
8.36235e-07
1.15095e-07
7.27388e-07
1.08841e-07
6.25661e-07
1.01724e-07
5.28829e-07
9.68285e-08
4.35731e-07
9.30962e-08
3.46213e-07
8.9515e-08
2.59331e-07
8.68776e-08
1.74663e-07
8.46602e-08
9.42122e-08
8.04392e-08
1.93276e-08
7.487e-08
-5.07404e-08
7.00512e-08
-1.17021e-07
6.62628e-08
-1.801e-07
6.30617e-08
-2.41571e-07
6.14558e-08
-3.00291e-07
5.8708e-08
-3.53834e-07
5.35352e-08
-4.03426e-07
4.95879e-08
-4.49082e-07
4.56551e-08
-4.90474e-07
4.13934e-08
-5.29897e-07
3.94258e-08
-5.66343e-07
3.64475e-08
-5.97771e-07
3.14289e-08
-6.24831e-07
2.70588e-08
-6.47815e-07
2.29805e-08
-6.67911e-07
2.00906e-08
-6.83923e-07
1.60034e-08
-6.95171e-07
1.12374e-08
-7.01362e-07
6.17895e-09
-7.03135e-07
1.75964e-09
-7.02452e-07
-6.97787e-10
-6.99024e-07
-3.44337e-09
-6.91552e-07
-7.48707e-09
-6.78855e-07
-1.27121e-08
-6.61888e-07
-1.69827e-08
-6.42698e-07
-1.92043e-08
-6.21354e-07
-2.13573e-08
-5.96921e-07
-2.44456e-08
-5.69928e-07
-2.70043e-08
-5.40884e-07
-2.90558e-08
-5.11288e-07
-2.96054e-08
-4.81921e-07
-2.93758e-08
-4.5179e-07
-3.01382e-08
-4.21017e-07
-3.07788e-08
-3.90955e-07
-3.00672e-08
-3.63224e-07
-2.77342e-08
-3.37967e-07
-2.52593e-08
-3.13912e-07
-2.40558e-08
-2.90961e-07
-2.29507e-08
-2.69967e-07
-2.0994e-08
-2.52e-07
-1.79664e-08
-2.376e-07
-1.43989e-08
-2.25201e-07
-1.23987e-08
-2.13447e-07
-1.17531e-08
-2.01928e-07
-1.15186e-08
-1.90891e-07
-1.1036e-08
-1.80586e-07
-1.03038e-08
-1.70981e-07
-9.60384e-09
-1.61934e-07
-9.04589e-09
-1.52451e-07
-9.48205e-09
-1.41901e-07
-1.05486e-08
-1.30258e-07
-1.16425e-08
-1.17573e-07
-1.26848e-08
-1.04435e-07
-1.31387e-08
-9.06384e-08
-1.37985e-08
-7.5145e-08
-1.54958e-08
-5.757e-08
-1.7578e-08
-3.80623e-08
-1.95111e-08
-1.72222e-08
-2.08437e-08
4.69736e-09
-2.19231e-08
2.80447e-08
-2.33506e-08
5.35277e-08
-2.54858e-08
8.11529e-08
-2.76273e-08
1.10072e-07
-2.89203e-08
1.40276e-07
-3.02052e-08
1.72229e-07
-3.19532e-08
2.0593e-07
-3.37011e-08
2.41122e-07
-3.51924e-08
2.77637e-07
-3.65146e-08
3.15531e-07
-3.78936e-08
3.54702e-07
-3.91713e-08
3.95028e-07
-4.0325e-08
4.36412e-07
-4.13839e-08
4.78551e-07
-4.21381e-08
5.21358e-07
-4.28053e-08
5.64805e-07
-4.34448e-08
6.09028e-07
-4.42205e-08
6.53935e-07
-4.49046e-08
6.99322e-07
-4.53839e-08
7.44874e-07
-4.55479e-08
7.90475e-07
-4.55957e-08
8.36234e-07
-4.57542e-08
8.82264e-07
-4.60252e-08
9.28413e-07
-4.61435e-08
9.74378e-07
-4.59604e-08
1.02004e-06
-4.56585e-08
1.06541e-06
-4.53711e-08
1.11042e-06
-4.50072e-08
1.15485e-06
-4.44221e-08
1.19856e-06
-4.37174e-08
1.24182e-06
-4.32528e-08
1.28468e-06
-4.2863e-08
1.32712e-06
-4.2442e-08
1.36887e-06
-4.17471e-08
1.40983e-06
-4.09641e-08
1.44994e-06
-4.01057e-08
1.48905e-06
-3.91181e-08
1.52739e-06
-3.83419e-08
1.56506e-06
-3.76659e-08
1.60188e-06
-3.68272e-08
1.63744e-06
-3.55594e-08
1.672e-06
-3.45633e-08
1.70574e-06
-3.37455e-08
1.73857e-06
-3.28348e-08
1.77026e-06
-3.16817e-08
1.80096e-06
-3.07064e-08
1.83056e-06
-2.95924e-08
1.85883e-06
-2.82795e-08
1.88587e-06
-2.70385e-08
1.91182e-06
-2.59481e-08
1.93688e-06
-2.50659e-08
1.96111e-06
-2.42401e-08
1.98434e-06
-2.32325e-08
2.00632e-06
-2.19816e-08
2.02764e-06
-2.13174e-08
2.04752e-06
-1.9882e-08
2.06748e-06
-1.99652e-08
2.0865e-06
-1.90168e-08
2.10547e-06
-1.8971e-08
2.12343e-06
-1.79627e-08
2.14039e-06
-1.69643e-08
2.15644e-06
-1.6057e-08
2.1706e-06
-1.41691e-08
2.18552e-06
-1.49256e-08
2.19924e-06
-1.37185e-08
2.21081e-06
-1.15768e-08
2.22189e-06
-1.10809e-08
2.2283e-06
-6.40857e-09
2.23054e-06
-2.23909e-09
2.24048e-06
-9.93981e-09
2.24842e-06
-7.9347e-09
2.25358e-06
-5.15466e-09
2.26483e-06
-1.1245e-08
2.24334e-06
2.14909e-08
2.21037e-06
3.29719e-08
2.22363e-06
-1.32589e-08
2.21279e-06
1.08428e-08
2.24332e-06
-3.05375e-08
2.31319e-06
-6.98666e-08
2.51235e-06
-1.99168e-07
2.76163e-06
-2.49289e-07
2.91249e-06
-1.50864e-07
3.02795e-06
-1.1546e-07
3.09697e-06
-6.9022e-08
3.14656e-06
-4.95999e-08
3.17919e-06
-3.263e-08
3.21053e-06
-3.13417e-08
3.23699e-06
-2.64661e-08
3.2598e-06
-2.28041e-08
3.27204e-06
-1.22463e-08
3.28871e-06
-1.66631e-08
3.26487e-06
2.38422e-08
3.22706e-06
3.78065e-08
3.23626e-06
-9.19759e-09
3.22262e-06
1.36386e-08
3.24937e-06
-2.67468e-08
3.32005e-06
-7.06686e-08
3.51863e-06
-1.98579e-07
3.76049e-06
-2.41866e-07
3.90185e-06
-1.41353e-07
4.01545e-06
-1.13599e-07
4.07809e-06
-6.26392e-08
4.12813e-06
-5.00334e-08
4.16125e-06
-3.31237e-08
4.18383e-06
-2.25815e-08
4.19307e-06
-9.23992e-09
4.1853e-06
7.77749e-09
4.17488e-06
1.04136e-08
4.16674e-06
8.14123e-09
4.15119e-06
1.55512e-08
4.15044e-06
7.47301e-10
4.12213e-06
2.8307e-08
3.99442e-06
1.27713e-07
3.88403e-06
1.10393e-07
3.83097e-06
5.30595e-08
3.76506e-06
6.59032e-08
3.95322e-06
-1.88155e-07
4.29128e-06
-3.38067e-07
5.23349e-06
-9.42206e-07
6.40711e-06
-1.17362e-06
7.28346e-06
-8.76345e-07
7.88453e-06
-6.01067e-07
8.31113e-06
-4.26601e-07
8.62351e-06
-3.12383e-07
8.85985e-06
-2.36341e-07
9.04482e-06
-1.84972e-07
9.18935e-06
-1.44529e-07
9.30541e-06
-1.16058e-07
9.40058e-06
-9.51691e-08
9.48093e-06
-8.03491e-08
9.54584e-06
-6.49189e-08
9.59938e-06
-5.35369e-08
9.64569e-06
-4.63167e-08
9.68265e-06
-3.69605e-08
9.71272e-06
-3.00693e-08
9.73892e-06
-2.61995e-08
9.75796e-06
-1.90485e-08
9.7723e-06
-1.43395e-08
9.78353e-06
-1.123e-08
9.79305e-06
-9.52686e-09
9.79703e-06
-3.9765e-09
9.79699e-06
3.34565e-11
9.7947e-06
2.29381e-09
9.79045e-06
4.24711e-09
9.78427e-06
6.17603e-09
9.77602e-06
8.24671e-09
9.76578e-06
1.02309e-08
9.75382e-06
1.19598e-08
9.7398e-06
1.40221e-08
9.72396e-06
1.58318e-08
9.70553e-06
1.8432e-08
9.68922e-06
1.63048e-08
9.67307e-06
1.61518e-08
9.65578e-06
1.72797e-08
9.6373e-06
1.84849e-08
9.61748e-06
1.98118e-08
9.59614e-06
2.13447e-08
9.57383e-06
2.23056e-08
9.55073e-06
2.30922e-08
9.52665e-06
2.40798e-08
9.50155e-06
2.51012e-08
9.47549e-06
2.6051e-08
9.44885e-06
2.66435e-08
9.42293e-06
2.59146e-08
9.39294e-06
2.99885e-08
9.36131e-06
3.16311e-08
9.32949e-06
3.18103e-08
9.2976e-06
3.18906e-08
9.26545e-06
3.21431e-08
9.2334e-06
3.2054e-08
9.2012e-06
3.21937e-08
9.16866e-06
3.25381e-08
9.13555e-06
3.3109e-08
9.10164e-06
3.39071e-08
9.06695e-06
3.46829e-08
9.03177e-06
3.51802e-08
8.99651e-06
3.52591e-08
8.96137e-06
3.51388e-08
8.92596e-06
3.54062e-08
8.88975e-06
3.62112e-08
8.85239e-06
3.73487e-08
8.81416e-06
3.82327e-08
8.77606e-06
3.80997e-08
8.73851e-06
3.75438e-08
8.70089e-06
3.76221e-08
8.66213e-06
3.87551e-08
8.62235e-06
3.97849e-08
8.583e-06
3.93455e-08
8.54431e-06
3.869e-08
8.5053e-06
3.90124e-08
8.46449e-06
4.08083e-08
8.42727e-06
3.7222e-08
8.39168e-06
3.55901e-08
8.3572e-06
3.44913e-08
8.31819e-06
3.90143e-08
8.27732e-06
4.08682e-08
8.2367e-06
4.0631e-08
8.19511e-06
4.15921e-08
8.15311e-06
4.20033e-08
4.49542e-08
-0.00011269
1.28523e-06
-0.000112598
3.72247e-07
-0.000112525
7.98497e-07
-0.000112366
1.11683e-06
-0.000111976
8.2575e-07
-0.000111096
-1.87086e-07
-0.000109403
-2.38773e-06
-0.000106557
-5.56833e-06
-0.00010265
-9.11701e-06
-9.84847e-05
-1.11167e-05
-9.46239e-05
-1.13792e-05
-9.09182e-05
-1.06987e-05
-8.73997e-05
-1.0148e-05
-8.44008e-05
-1.00529e-05
-8.21724e-05
-9.6202e-06
-8.02291e-05
-8.78709e-06
-7.85048e-05
-7.86622e-06
-7.70716e-05
-6.27443e-06
-7.61283e-05
-4.03406e-06
-7.66272e-05
-4.34779e-07
-7.81799e-05
2.8382e-06
-7.94937e-05
4.67652e-06
-7.92175e-05
5.82408e-06
-7.71916e-05
6.02818e-06
-7.56359e-05
4.56148e-06
-7.53686e-05
2.54091e-06
-7.54173e-05
1.46463e-06
-7.53901e-05
8.57249e-07
-7.52188e-05
2.0437e-07
-7.49531e-05
-5.52298e-07
-7.45934e-05
-1.16995e-06
-7.4038e-05
-1.62766e-06
-7.3166e-05
-1.90796e-06
-7.21389e-05
-1.8621e-06
-7.11367e-05
-1.58319e-06
-7.03541e-05
-1.31519e-06
-6.97743e-05
-1.34848e-06
-6.92046e-05
-1.48395e-06
-6.84562e-05
-1.519e-06
-6.7528e-05
-1.42413e-06
-6.63858e-05
-1.70506e-06
-6.51562e-05
-2.36107e-06
-6.38671e-05
-2.97723e-06
-6.24604e-05
-3.26187e-06
-6.10195e-05
-3.00815e-06
-5.96747e-05
-2.41909e-06
-5.84675e-05
-1.79037e-06
-5.73613e-05
-1.71427e-06
-5.61896e-05
-2.31759e-06
-5.47977e-05
-3.01698e-06
-5.32769e-05
-3.3365e-06
-5.17574e-05
-3.11447e-06
-5.03327e-05
-2.66174e-06
-4.90809e-05
-2.24375e-06
-4.79971e-05
-2.15851e-06
-4.69185e-05
-2.41455e-06
-4.57176e-05
-2.65376e-06
-4.43603e-05
-2.85141e-06
-4.28438e-05
-3.02364e-06
-4.1218e-05
-3.24993e-06
-3.95839e-05
-3.57015e-06
-3.7994e-05
-3.636e-06
-3.65077e-05
-3.27146e-06
-3.51811e-05
-2.63631e-06
-3.37955e-05
-2.2743e-06
-3.22733e-05
-2.51633e-06
-3.06741e-05
-2.92552e-06
-2.92997e-05
-2.79133e-06
-2.81383e-05
-2.27774e-06
-2.70636e-05
-2.05404e-06
-2.59976e-05
-2.1639e-06
-2.48472e-05
-2.64937e-06
-2.34608e-05
-3.27716e-06
-2.18887e-05
-3.8668e-06
-2.02565e-05
-4.27281e-06
-1.8947e-05
-4.33266e-06
-1.80184e-05
-4.21156e-06
-1.76495e-05
-4.52714e-06
-1.64322e-05
-5.15962e-06
-1.34663e-05
-4.63486e-06
-9.35372e-06
-5.38129e-06
-4.87167e-06
-4.40891e-06
-2.80836e-06
-2.23438e-06
-8.63914e-07
-1.59678e-06
-2.18117e-07
2.75061e-07
2.71929e-07
5.45954e-07
2.71125e-07
1.41484e-06
-6.81668e-07
2.25423e-06
-2.35122e-06
2.74007e-06
-3.97735e-06
2.3377e-06
-5.54519e-06
1.96756e-06
-6.65771e-06
1.21155e-06
-7.34529e-06
7.59981e-07
-7.66748e-06
4.46217e-07
-7.78306e-06
3.83284e-07
-7.9037e-06
5.12014e-07
-7.96361e-06
8.51063e-07
-8.03086e-06
1.19295e-06
-7.85837e-06
1.75525e-06
-8.56539e-06
2.93081e-06
-1.03934e-05
3.55909e-06
-1.26271e-05
3.34387e-06
-1.49966e-05
2.49118e-06
-1.6972e-05
1.87619e-06
-1.83731e-05
1.09797e-06
-1.87141e-05
1.41347e-07
-1.85162e-05
-1.3768e-08
-1.81893e-05
-8.59825e-08
-1.76336e-05
-4.82757e-07
-1.71977e-05
-6.25064e-07
-1.71468e-05
-2.77688e-07
-1.70606e-05
-4.85239e-07
-1.68587e-05
-6.7087e-07
-1.66592e-05
-5.71834e-07
-1.63231e-05
-7.3922e-07
-1.59265e-05
-8.10814e-07
-1.57401e-05
-7.6277e-07
-1.55162e-05
-6.84555e-07
-1.5142e-05
-6.07606e-07
-1.46473e-05
-6.4465e-07
-1.42295e-05
-4.76645e-07
-1.39908e-05
-3.75594e-07
-1.37364e-05
-3.43461e-07
-1.35737e-05
-2.69533e-07
-1.33826e-05
-3.43621e-07
-1.32219e-05
-3.17891e-07
-1.30648e-05
-3.24127e-07
-1.28769e-05
-3.63982e-07
-1.26674e-05
-4.20779e-07
-1.2442e-05
-4.65729e-07
-1.2214e-05
-4.71597e-07
-1.19576e-05
-5.11645e-07
-1.16891e-05
-5.30387e-07
-1.14031e-05
-5.75971e-07
-1.11065e-05
-5.97804e-07
-1.07851e-05
-6.36907e-07
-1.04406e-05
-6.84407e-07
-1.00871e-05
-7.08058e-07
-9.72162e-06
-7.35625e-07
-9.34725e-06
-7.54295e-07
-8.96442e-06
-7.72473e-07
-8.5685e-06
-7.91644e-07
-8.16407e-06
-8.09146e-07
-7.75097e-06
-8.31611e-07
-7.33443e-06
-8.38599e-07
-6.91656e-06
-8.30185e-07
-6.49372e-06
-8.38689e-07
-6.0616e-06
-8.57548e-07
-5.62154e-06
-8.79445e-07
-5.17897e-06
-8.94688e-07
-4.74139e-06
-8.88049e-07
-4.30145e-06
-8.79155e-07
-3.85681e-06
-8.79653e-07
-3.40494e-06
-8.97837e-07
-2.94783e-06
-9.14621e-07
-2.49465e-06
-9.13738e-07
-2.04904e-06
-9.01674e-07
-1.60317e-06
-8.96908e-07
-1.15071e-06
-8.99265e-07
-6.95758e-07
-9.0074e-07
-2.47887e-07
-8.90208e-07
1.90373e-07
-8.77504e-07
6.2461e-07
-8.71501e-07
1.05932e-06
-8.70588e-07
1.48953e-06
-8.59932e-07
1.91061e-06
-8.38641e-07
2.32755e-06
-8.30285e-07
2.74426e-06
-8.31956e-07
3.15547e-06
-8.21583e-07
3.55585e-06
-7.98204e-07
3.94967e-06
-7.83857e-07
4.3415e-06
-7.82364e-07
4.73098e-06
-7.79007e-07
5.11228e-06
-7.62957e-07
5.4842e-06
-7.40611e-07
5.84989e-06
-7.26206e-07
6.21051e-06
-7.21118e-07
6.56627e-06
-7.13225e-07
6.91488e-06
-6.97098e-07
7.25683e-06
-6.80098e-07
7.59326e-06
-6.67811e-07
7.92039e-06
-6.54305e-07
8.2368e-06
-6.32429e-07
8.54437e-06
-6.11397e-07
8.8439e-06
-5.96914e-07
9.13789e-06
-5.88884e-07
9.42537e-06
-5.76032e-07
9.70446e-06
-5.55063e-07
9.97305e-06
-5.321e-07
1.02277e-05
-5.06921e-07
1.04705e-05
-4.86991e-07
1.07041e-05
-4.70012e-07
1.09301e-05
-4.54002e-07
1.11478e-05
-4.32814e-07
1.13548e-05
-4.08463e-07
1.15478e-05
-3.81905e-07
1.17266e-05
-3.5679e-07
1.18946e-05
-3.37632e-07
1.20545e-05
-3.21512e-07
1.22036e-05
-2.99621e-07
1.23381e-05
-2.69024e-07
1.24589e-05
-2.39057e-07
1.25685e-05
-2.15353e-07
1.26676e-05
-1.95737e-07
1.27546e-05
-1.75264e-07
1.2828e-05
-1.49401e-07
1.28876e-05
-1.20714e-07
1.29353e-05
-9.38952e-08
1.29725e-05
-7.15052e-08
1.29981e-05
-5.1403e-08
1.30095e-05
-2.5444e-08
1.30051e-05
7.03951e-09
1.29899e-05
3.32944e-08
1.29655e-05
5.1013e-08
1.29304e-05
6.85135e-08
1.28838e-05
8.94475e-08
1.28249e-05
1.1701e-07
1.27522e-05
1.48482e-07
1.26667e-05
1.73795e-07
1.25714e-05
1.90505e-07
1.24689e-05
2.02358e-07
1.23574e-05
2.19158e-07
1.22357e-05
2.41117e-07
1.21029e-05
2.67998e-07
1.19594e-05
2.90013e-07
1.18067e-05
3.06006e-07
1.16469e-05
3.18872e-07
1.14803e-05
3.29907e-07
1.13069e-05
3.4272e-07
1.11262e-05
3.60956e-07
1.09367e-05
3.8164e-07
1.07401e-05
3.94424e-07
1.05388e-05
4.02361e-07
1.03339e-05
4.09782e-07
1.01257e-05
4.15748e-07
9.91294e-06
4.24698e-07
9.69385e-06
4.37692e-07
9.46766e-06
4.50721e-07
9.23764e-06
4.57058e-07
9.0063e-06
4.60645e-07
8.77432e-06
4.6557e-07
8.54224e-06
4.68539e-07
8.30759e-06
4.70284e-07
8.07035e-06
4.71098e-07
7.83185e-06
4.72988e-07
7.59203e-06
4.76995e-07
7.35085e-06
4.85077e-07
7.11089e-06
4.83901e-07
6.87338e-06
4.73483e-07
6.63704e-06
4.70037e-07
6.40037e-06
4.70644e-07
6.16326e-06
4.72205e-07
5.92893e-06
4.70167e-07
5.699e-06
4.62929e-07
5.47206e-06
4.55975e-07
5.24652e-06
4.51096e-07
5.02245e-06
4.45654e-07
4.79942e-06
4.42378e-07
4.57972e-06
4.37329e-07
4.36761e-06
4.26498e-07
4.16092e-06
4.1621e-07
3.95763e-06
4.05998e-07
3.75782e-06
3.97473e-07
3.56059e-06
3.92871e-07
3.36613e-06
3.8912e-07
3.17635e-06
3.82221e-07
2.99281e-06
3.6966e-07
2.81603e-06
3.52623e-07
2.64442e-06
3.41392e-07
2.47697e-06
3.33179e-07
2.31333e-06
3.25799e-07
2.15423e-06
3.19584e-07
2.00046e-06
3.1118e-07
1.85142e-06
2.99619e-07
1.70673e-06
2.884e-07
1.56691e-06
2.78571e-07
1.4328e-06
2.68087e-07
1.30419e-06
2.57511e-07
1.1807e-06
2.47001e-07
1.06128e-06
2.38339e-07
9.44607e-07
2.33762e-07
8.31854e-07
2.27843e-07
7.2467e-07
2.1602e-07
6.23134e-07
2.03253e-07
5.2568e-07
1.94275e-07
4.31445e-07
1.87321e-07
3.41074e-07
1.79873e-07
2.55045e-07
1.72888e-07
1.72978e-07
1.66705e-07
9.47741e-08
1.58617e-07
2.05052e-08
1.49111e-07
-5.03893e-08
1.40917e-07
-1.17915e-07
1.33761e-07
-1.81332e-07
1.26456e-07
-2.40743e-07
1.20849e-07
-2.96409e-07
1.14361e-07
-3.48897e-07
1.06017e-07
-3.99286e-07
9.99746e-08
-4.46205e-07
9.25749e-08
-4.87843e-07
8.30338e-08
-5.2483e-07
7.64151e-08
-5.5847e-07
7.00879e-08
-5.89992e-07
6.29486e-08
-6.18497e-07
5.55585e-08
-6.41264e-07
4.57371e-08
-6.59149e-07
3.79623e-08
-6.73954e-07
3.0792e-08
-6.85802e-07
2.30649e-08
-6.9332e-07
1.36747e-08
-6.96168e-07
4.58431e-09
-6.94994e-07
-1.89769e-09
-6.90303e-07
-8.16065e-09
-6.83123e-07
-1.46935e-08
-6.72312e-07
-2.35494e-08
-6.57114e-07
-3.2207e-08
-6.38362e-07
-3.79816e-08
-6.17019e-07
-4.27243e-08
-5.94146e-07
-4.73413e-08
-5.70086e-07
-5.1085e-08
-5.44121e-07
-5.50389e-08
-5.16274e-07
-5.74688e-08
-4.87321e-07
-5.83422e-08
-4.58308e-07
-5.91628e-08
-4.30074e-07
-5.90221e-08
-4.03168e-07
-5.69799e-08
-3.77218e-07
-5.36899e-08
-3.52183e-07
-5.02981e-08
-3.28498e-07
-4.77441e-08
-3.06638e-07
-4.48132e-08
-2.87137e-07
-4.04972e-08
-2.69754e-07
-3.53515e-08
-2.54208e-07
-2.99472e-08
-2.40421e-07
-2.61871e-08
-2.27868e-07
-2.43081e-08
-2.16289e-07
-2.30992e-08
-2.05577e-07
-2.17487e-08
-1.95258e-07
-2.06235e-08
-1.84921e-07
-1.99427e-08
-1.74587e-07
-1.93808e-08
-1.64245e-07
-1.98251e-08
-1.53618e-07
-2.11787e-08
-1.42146e-07
-2.31173e-08
-1.29676e-07
-2.51589e-08
-1.16374e-07
-2.64457e-08
-1.01594e-07
-2.85844e-08
-8.51618e-08
-3.19348e-08
-6.7313e-08
-3.54333e-08
-4.79847e-08
-3.88457e-08
-2.71162e-08
-4.1718e-08
-4.53957e-09
-4.45045e-08
1.97775e-08
-4.76714e-08
4.57847e-08
-5.14956e-08
7.34554e-08
-5.52996e-08
1.02837e-07
-5.83026e-08
1.33847e-07
-6.12145e-08
1.66265e-07
-6.43705e-08
2.00035e-07
-6.74699e-08
2.35357e-07
-7.05128e-08
2.72249e-07
-7.3405e-08
3.10529e-07
-7.61705e-08
3.4998e-07
-7.86193e-08
3.90473e-07
-8.08144e-08
4.32071e-07
-8.29778e-08
4.74654e-07
-8.47156e-08
5.18091e-07
-8.62367e-08
5.62243e-07
-8.75894e-08
6.06934e-07
-8.8904e-08
6.52135e-07
-9.00965e-08
6.97705e-07
-9.0945e-08
7.43562e-07
-9.13959e-08
7.89612e-07
-9.16368e-08
8.3577e-07
-9.19042e-08
8.82044e-07
-9.22912e-08
9.28382e-07
-9.24744e-08
9.7458e-07
-9.21523e-08
1.02048e-06
-9.15503e-08
1.06593e-06
-9.08193e-08
1.11105e-06
-9.01274e-08
1.15586e-06
-8.92227e-08
1.20021e-06
-8.80648e-08
1.24393e-06
-8.69699e-08
1.28696e-06
-8.58975e-08
1.32945e-06
-8.49326e-08
1.37123e-06
-8.35289e-08
1.41222e-06
-8.1965e-08
1.45238e-06
-8.02649e-08
1.49179e-06
-7.85382e-08
1.5304e-06
-7.69496e-08
1.56811e-06
-7.53781e-08
1.6048e-06
-7.35201e-08
1.64067e-06
-7.14327e-08
1.6756e-06
-6.94949e-08
1.70955e-06
-6.7695e-08
1.74219e-06
-6.54663e-08
1.77383e-06
-6.333e-08
1.80438e-06
-6.1251e-08
1.83403e-06
-5.92459e-08
1.86253e-06
-5.67805e-08
1.89005e-06
-5.45701e-08
1.91594e-06
-5.18445e-08
1.94105e-06
-5.01807e-08
1.96483e-06
-4.8024e-08
1.98793e-06
-4.63371e-08
2.00975e-06
-4.38012e-08
2.03136e-06
-4.29346e-08
2.05104e-06
-3.95575e-08
2.07051e-06
-3.94451e-08
2.08806e-06
-3.65666e-08
2.10523e-06
-3.61539e-08
2.12354e-06
-3.62808e-08
2.14127e-06
-3.47059e-08
2.16033e-06
-3.51191e-08
2.17584e-06
-2.96979e-08
2.19116e-06
-3.02559e-08
2.20023e-06
-2.27914e-08
2.20651e-06
-1.78585e-08
2.22056e-06
-2.51371e-08
2.23685e-06
-2.26913e-08
2.25181e-06
-1.71997e-08
2.26617e-06
-2.42984e-08
2.24369e-06
1.4555e-08
2.20907e-06
2.94698e-08
2.22388e-06
-2.60477e-08
2.24865e-06
-3.28349e-09
2.32281e-06
-4.11839e-08
2.41338e-06
-1.0383e-07
2.62518e-06
-2.00968e-07
2.87061e-06
-2.75978e-07
3.01839e-06
-2.17646e-07
3.08289e-06
-2.63676e-07
3.08114e-06
-2.4755e-07
3.10543e-06
-1.75167e-07
3.12246e-06
-1.32499e-07
3.1583e-06
-1.04871e-07
3.18967e-06
-8.09689e-08
3.22684e-06
-6.98089e-08
3.25575e-06
-6.02515e-08
3.28113e-06
-5.18527e-08
3.26572e-06
-7.3976e-09
3.23422e-06
1.92533e-08
3.25443e-06
-3.68678e-08
3.28471e-06
-6.43485e-09
3.36723e-06
-4.47093e-08
3.46574e-06
-1.07704e-07
3.68373e-06
-2.04351e-07
3.92756e-06
-2.70567e-07
4.06822e-06
-2.11331e-07
4.12581e-06
-2.56161e-07
4.11867e-06
-2.34727e-07
4.14321e-06
-1.65883e-07
4.15606e-06
-1.26447e-07
4.17486e-06
-8.14417e-08
4.17098e-06
-4.61514e-08
4.17336e-06
-3.54972e-08
4.18114e-06
-3.03588e-08
4.20081e-06
-2.89094e-08
4.22318e-06
-1.4597e-08
4.25809e-06
-2.44955e-08
4.25201e-06
1.42162e-08
4.12903e-06
1.38533e-07
4.01015e-06
1.19632e-07
3.97858e-06
5.9867e-08
4.03656e-06
6.97359e-08
4.36627e-06
-2.19323e-07
4.86784e-06
-4.48508e-07
5.94154e-06
-1.0078e-06
7.03269e-06
-1.27931e-06
7.83664e-06
-1.14203e-06
8.2046e-06
-1.31018e-06
8.2737e-06
-1.24273e-06
8.41922e-06
-1.02188e-06
8.58341e-06
-7.65265e-07
8.74748e-06
-5.90681e-07
8.90088e-06
-4.6579e-07
9.03956e-06
-3.75033e-07
9.16274e-06
-3.08158e-07
9.26986e-06
-2.51659e-07
9.36191e-06
-2.08109e-07
9.44243e-06
-1.75696e-07
9.51101e-06
-1.48933e-07
9.56892e-06
-1.22839e-07
9.61816e-06
-1.02776e-07
9.66005e-06
-8.82124e-08
9.69501e-06
-7.19329e-08
9.72408e-06
-5.91424e-08
9.74826e-06
-5.03796e-08
9.76758e-06
-3.83779e-08
9.78284e-06
-2.95974e-08
9.79442e-06
-2.28147e-08
9.80264e-06
-1.77538e-08
9.8072e-06
-8.54135e-09
9.8087e-06
-1.47158e-09
9.80749e-06
3.49925e-09
9.8037e-06
8.03434e-09
9.79739e-06
1.2475e-08
9.78927e-06
1.63683e-08
9.77925e-06
2.02419e-08
9.76735e-06
2.38605e-08
9.75362e-06
2.77493e-08
9.73841e-06
3.10361e-08
9.7219e-06
3.49343e-08
9.70455e-06
3.36466e-08
9.68614e-06
3.45639e-08
9.66676e-06
3.66507e-08
9.64638e-06
3.88667e-08
9.62502e-06
4.11678e-08
9.60315e-06
4.32094e-08
9.58002e-06
4.54261e-08
9.55606e-06
4.70519e-08
9.53125e-06
4.88838e-08
9.50539e-06
5.09583e-08
9.4783e-06
5.31355e-08
9.45069e-06
5.425e-08
9.42209e-06
5.4507e-08
9.39241e-06
5.96697e-08
9.36229e-06
6.17428e-08
9.33153e-06
6.25676e-08
9.30018e-06
6.32337e-08
9.26841e-06
6.39086e-08
9.23602e-06
6.44358e-08
9.20328e-06
6.4931e-08
9.17024e-06
6.55748e-08
9.13677e-06
6.65756e-08
9.10271e-06
6.79656e-08
9.06801e-06
6.93754e-08
9.03287e-06
7.03172e-08
8.99748e-06
7.06407e-08
8.96179e-06
7.08316e-08
8.92563e-06
7.15564e-08
8.88849e-06
7.33432e-08
8.85062e-06
7.52152e-08
8.81297e-06
7.58811e-08
8.77564e-06
7.5413e-08
8.73795e-06
7.52307e-08
8.69927e-06
7.62972e-08
8.66012e-06
7.78886e-08
8.62138e-06
7.85135e-08
8.5833e-06
7.74161e-08
8.54452e-06
7.74541e-08
8.50493e-06
7.85918e-08
8.46527e-06
8.04559e-08
8.42651e-06
7.5965e-08
8.38801e-06
7.40755e-08
8.34837e-06
7.41153e-08
8.30792e-06
7.94564e-08
8.26774e-06
8.10332e-08
8.22802e-06
8.03375e-08
8.1891e-06
8.04937e-08
8.14929e-06
8.1805e-08
8.60813e-08
-0.000112036
6.52697e-07
-0.000111527
-1.39204e-07
-0.000110893
1.62637e-07
-0.000110165
3.87999e-07
-0.000109171
-1.69972e-07
-0.000107899
-1.4594e-06
-0.000106273
-4.0139e-06
-0.000104259
-7.58362e-06
-0.000101956
-1.14199e-05
-9.97874e-05
-1.32856e-05
-9.76241e-05
-1.35426e-05
-9.53905e-05
-1.29325e-05
-9.35932e-05
-1.19453e-05
-9.29296e-05
-1.07166e-05
-9.35692e-05
-8.98073e-06
-9.49108e-05
-7.44547e-06
-9.63264e-05
-6.45068e-06
-9.70919e-05
-5.50901e-06
-9.71812e-05
-3.94484e-06
-9.58724e-05
-1.74362e-06
-9.31806e-05
1.46399e-07
-9.04763e-05
1.9722e-06
-8.78542e-05
3.20193e-06
-8.49912e-05
3.16506e-06
-8.25804e-05
2.15069e-06
-8.10625e-05
1.02288e-06
-7.98413e-05
2.43388e-07
-7.87412e-05
-2.42848e-07
-7.78034e-05
-7.33409e-07
-7.71173e-05
-1.23843e-06
-7.65425e-05
-1.74477e-06
-7.58465e-05
-2.32371e-06
-7.48544e-05
-2.90002e-06
-7.36389e-05
-3.07764e-06
-7.24028e-05
-2.81924e-06
-7.13706e-05
-2.34739e-06
-7.06372e-05
-2.08184e-06
-6.9989e-05
-2.1321e-06
-6.90803e-05
-2.42765e-06
-6.77582e-05
-2.74616e-06
-6.62662e-05
-3.19706e-06
-6.4915e-05
-3.71218e-06
-6.37727e-05
-4.1195e-06
-6.26985e-05
-4.33601e-06
-6.14795e-05
-4.22704e-06
-6.00809e-05
-3.81765e-06
-5.84949e-05
-3.3763e-06
-5.69071e-05
-3.30207e-06
-5.54931e-05
-3.73153e-06
-5.42042e-05
-4.30576e-06
-5.30107e-05
-4.52996e-06
-5.17305e-05
-4.39466e-06
-5.03519e-05
-4.04027e-06
-4.89628e-05
-3.63281e-06
-4.7738e-05
-3.38317e-06
-4.66549e-05
-3.49763e-06
-4.55402e-05
-3.76844e-06
-4.43163e-05
-4.0752e-06
-4.30021e-05
-4.33776e-06
-4.16067e-05
-4.64533e-06
-4.02222e-05
-4.95455e-06
-3.88878e-05
-4.97029e-06
-3.75798e-05
-4.57936e-06
-3.61872e-05
-4.02889e-06
-3.44109e-05
-4.05054e-06
-3.24481e-05
-4.47904e-06
-3.06686e-05
-4.70495e-06
-2.92101e-05
-4.24979e-06
-2.78862e-05
-3.60157e-06
-2.66593e-05
-3.28086e-06
-2.55196e-05
-3.30354e-06
-2.44918e-05
-3.67711e-06