/*--------------------------------*- C++ -*----------------------------------*\
| =========                 |                                                 |
| \\      /  F ield         | OpenFOAM: The Open Source CFD Toolbox           |
|  \\    /   O peration     | Version:  v2006                                 |
|   \\  /    A nd           | Website:  www.openfoam.com                      |
|    \\/     M anipulation  |                                                 |
\*---------------------------------------------------------------------------*/
FoamFile
{
    version     2.0;
    format      ascii;
    class       surfaceScalarField;
    location    "5.4";
    object      alphaPhi0.water;
}
// * * * * * * * * * * * * * * * * * * * * * * * * * * * * * * * * * * * * * //

dimensions      [0 3 -1 0 0 0 0];
oriented        oriented;


internalField   nonuniform List<scalar> 
65390
(
-8.24112e-05
-8.84006e-07
-8.14133e-05
-1.00021e-06
-8.05104e-05
-9.0484e-07
-7.97232e-05
-7.88827e-07
-7.91562e-05
-5.68329e-07
-7.90953e-05
-6.1845e-08
-7.94407e-05
3.44558e-07
-8.0085e-05
6.43656e-07
-8.05749e-05
4.89228e-07
-8.02431e-05
-3.32249e-07
-7.80065e-05
-2.23704e-06
-7.27634e-05
-5.24335e-06
-6.50863e-05
-7.67719e-06
-5.69604e-05
-8.12598e-06
-4.85289e-05
-8.4316e-06
-3.95632e-05
-8.96573e-06
-3.02738e-05
-9.28941e-06
-2.13413e-05
-8.93244e-06
-1.3399e-05
-7.9423e-06
-6.96134e-06
-6.43756e-06
-2.49013e-06
-4.47112e-06
-4.87352e-07
-2.00268e-06
-1.66968e-06
1.18244e-06
-6.6972e-06
5.02781e-06
-1.39107e-05
7.21338e-06
-2.04643e-05
6.55308e-06
-2.45627e-05
4.09905e-06
-2.66756e-05
2.11717e-06
-2.78189e-05
1.14907e-06
-2.83507e-05
5.31876e-07
-2.82799e-05
-7.06512e-08
-2.75906e-05
-6.9795e-07
-2.64356e-05
-1.15581e-06
-2.50797e-05
-1.35562e-06
-2.38012e-05
-1.27714e-06
-2.2823e-05
-9.73154e-07
-2.19664e-05
-8.57764e-07
-2.09713e-05
-9.95151e-07
-1.9804e-05
-1.16729e-06
-1.8674e-05
-1.12774e-06
-1.78459e-05
-8.24909e-07
-1.70933e-05
-7.52624e-07
-1.60192e-05
-1.07918e-06
-1.44156e-05
-1.60486e-06
-1.25626e-05
-1.85273e-06
-1.08264e-05
-1.73543e-06
-9.53647e-06
-1.28408e-06
-8.71408e-06
-8.22362e-07
-7.89292e-06
-8.23574e-07
-6.71279e-06
-1.18185e-06
-5.11192e-06
-1.60081e-06
-3.38494e-06
-1.72676e-06
-1.88092e-06
-1.50391e-06
-6.97378e-07
-1.18329e-06
3.78464e-07
-1.07547e-06
1.58068e-06
-1.20192e-06
2.90703e-06
-1.32613e-06
4.29775e-06
-1.39089e-06
5.66892e-06
-1.37116e-06
7.0239e-06
-1.35439e-06
8.60562e-06
-1.58106e-06
1.03991e-05
-1.79351e-06
1.20551e-05
-1.65599e-06
1.32784e-05
-1.22401e-06
1.40211e-05
-7.51319e-07
1.46759e-05
-6.48796e-07
1.55048e-05
-8.25048e-07
1.64047e-05
-8.99973e-07
1.7054e-05
-6.49321e-07
1.74993e-05
-4.45038e-07
1.79234e-05
-4.2349e-07
1.85294e-05
-6.05106e-07
1.92555e-05
-7.25827e-07
2.00483e-05
-7.92797e-07
2.07296e-05
-6.81344e-07
2.10612e-05
-3.32061e-07
2.07414e-05
3.13597e-07
1.91747e-05
1.56324e-06
1.80604e-05
1.11433e-06
1.80685e-05
-8.096e-09
1.80932e-05
-2.46864e-08
1.82594e-05
-1.62573e-07
1.81939e-05
6.97168e-08
1.80454e-05
1.49324e-07
1.75015e-05
5.43919e-07
1.61969e-05
1.30451e-06
1.45949e-05
1.60198e-06
1.31585e-05
1.4355e-06
1.21228e-05
1.03457e-06
1.14655e-05
6.57598e-07
1.11903e-05
2.76242e-07
1.11929e-05
-2.46234e-09
1.10593e-05
1.33574e-07
1.08487e-05
2.10095e-07
1.04045e-05
4.41627e-07
9.82499e-06
5.79461e-07
8.6684e-06
1.15769e-06
7.19033e-06
1.47907e-06
4.3586e-06
2.83126e-06
5.40372e-07
3.8179e-06
-3.09793e-06
3.63875e-06
-5.34983e-06
2.2513e-06
-5.79966e-06
4.49778e-07
-6.06439e-06
2.64685e-07
-5.40753e-06
-6.56218e-07
-4.49822e-06
-9.08896e-07
-4.18635e-06
-3.11771e-07
-4.42878e-06
2.42528e-07
-4.64029e-06
2.11577e-07
-4.37142e-06
-2.69054e-07
-4.17033e-06
-2.01891e-07
-3.76117e-06
-4.09178e-07
-3.25491e-06
-5.06247e-07
-2.84563e-06
-4.08574e-07
-2.66251e-06
-1.82642e-07
-2.5639e-06
-9.92017e-08
-2.96163e-06
3.97244e-07
-3.58933e-06
6.27701e-07
-3.87071e-06
2.81383e-07
-3.70362e-06
-1.66632e-07
-3.24387e-06
-4.59745e-07
-2.89933e-06
-3.4455e-07
-2.33674e-06
-5.62889e-07
-1.71533e-06
-6.21429e-07
-1.25342e-06
-4.61924e-07
-8.09763e-07
-4.43449e-07
-3.78104e-07
-4.31645e-07
2.04373e-08
-3.98562e-07
4.6353e-07
-4.43016e-07
9.38345e-07
-4.74815e-07
1.38729e-06
-4.48938e-07
1.83623e-06
-4.49035e-07
2.26794e-06
-4.31584e-07
2.70984e-06
-4.41817e-07
3.14931e-06
-4.39582e-07
3.59344e-06
-4.44164e-07
4.05145e-06
-4.57788e-07
4.50734e-06
-4.55497e-07
4.96592e-06
-4.5859e-07
5.41807e-06
-4.52135e-07
5.8656e-06
-4.47545e-07
6.30548e-06
-4.39858e-07
6.73974e-06
-4.34355e-07
7.17157e-06
-4.3208e-07
7.59446e-06
-4.23798e-07
8.00337e-06
-4.09066e-07
8.40426e-06
-4.00881e-07
8.80258e-06
-3.97134e-07
9.19836e-06
-3.95352e-07
9.5895e-06
-3.91124e-07
9.97022e-06
-3.80737e-07
1.03344e-05
-3.65317e-07
1.06928e-05
-3.57618e-07
1.10495e-05
-3.55778e-07
1.14018e-05
-3.52374e-07
1.17456e-05
-3.43791e-07
1.20792e-05
-3.33587e-07
1.24011e-05
-3.23025e-07
1.27158e-05
-3.14684e-07
1.30224e-05
-3.05951e-07
1.33197e-05
-2.96403e-07
1.36071e-05
-2.87271e-07
1.38854e-05
-2.78332e-07
1.41536e-05
-2.68229e-07
1.44068e-05
-2.53714e-07
1.46458e-05
-2.39066e-07
1.48756e-05
-2.29508e-07
1.50943e-05
-2.1869e-07
1.52963e-05
-2.02198e-07
1.54804e-05
-1.84292e-07
1.56527e-05
-1.71999e-07
1.58137e-05
-1.60861e-07
1.5959e-05
-1.45261e-07
1.60839e-05
-1.25252e-07
1.61891e-05
-1.0596e-07
1.62825e-05
-9.25505e-08
1.63616e-05
-7.9099e-08
1.64226e-05
-6.09493e-08
1.64621e-05
-4.0321e-08
1.6483e-05
-2.09712e-08
1.64878e-05
-4.62781e-09
1.6474e-05
1.35869e-08
1.64367e-05
3.76405e-08
1.63793e-05
5.77779e-08
1.63077e-05
7.16178e-08
1.62188e-05
8.84684e-08
1.61065e-05
1.11663e-07
1.5971e-05
1.35456e-07
1.58144e-05
1.57435e-07
1.56389e-05
1.76095e-07
1.54447e-05
1.94124e-07
1.52328e-05
2.11927e-07
1.49967e-05
2.34966e-07
1.4739e-05
2.57776e-07
1.44611e-05
2.78462e-07
1.41644e-05
2.97497e-07
1.38518e-05
3.12674e-07
1.35258e-05
3.26027e-07
1.31844e-05
3.41435e-07
1.28223e-05
3.61732e-07
1.24384e-05
3.83094e-07
1.20395e-05
3.98932e-07
1.1632e-05
4.0818e-07
1.12191e-05
4.13429e-07
1.07964e-05
4.22696e-07
1.0361e-05
4.35436e-07
9.9142e-06
4.46526e-07
9.46021e-06
4.54023e-07
9.00564e-06
4.54675e-07
8.55115e-06
4.54486e-07
8.09102e-06
4.60018e-07
7.62235e-06
4.68303e-07
7.15596e-06
4.6661e-07
6.70005e-06
4.5625e-07
6.25188e-06
4.4824e-07
5.80594e-06
4.45681e-07
5.35681e-06
4.48853e-07
4.90929e-06
4.4754e-07
4.47171e-06
4.3794e-07
4.0497e-06
4.22109e-07
3.64222e-06
4.07482e-07
3.24418e-06
3.98039e-07
2.8509e-06
3.93111e-07
2.46229e-06
3.88643e-07
2.08464e-06
3.77667e-07
1.72192e-06
3.62812e-07
1.37394e-06
3.47993e-07
1.04084e-06
3.33115e-07
7.19667e-07
3.21201e-07
4.05198e-07
3.14505e-07
9.88888e-08
3.06359e-07
-1.93943e-07
2.9289e-07
-4.72678e-07
2.7878e-07
-7.39242e-07
2.66603e-07
-9.93408e-07
2.5423e-07
-1.23796e-06
2.44566e-07
-1.47516e-06
2.37183e-07
-1.70436e-06
2.2916e-07
-1.92341e-06
2.19035e-07
-2.13323e-06
2.09803e-07
-2.33628e-06
2.0306e-07
-2.53145e-06
1.95116e-07
-2.71697e-06
1.8545e-07
-2.89273e-06
1.75745e-07
-3.06136e-06
1.68616e-07
-3.22462e-06
1.63336e-07
-3.38548e-06
1.60965e-07
-3.53981e-06
1.54263e-07
-3.68247e-06
1.42656e-07
-3.81835e-06
1.35887e-07
-3.94956e-06
1.31206e-07
-4.07644e-06
1.26986e-07
-4.19934e-06
1.22987e-07
-4.3163e-06
1.16976e-07
-4.42697e-06
1.10543e-07
-4.53185e-06
1.04885e-07
-4.63114e-06
9.92894e-08
-4.72588e-06
9.47331e-08
-4.81655e-06
9.0786e-08
-4.90287e-06
8.63219e-08
-4.98361e-06
8.06433e-08
-5.05794e-06
7.42504e-08
-5.12662e-06
6.86702e-08
-5.19179e-06
6.51539e-08
-5.25447e-06
6.27445e-08
-5.31407e-06
5.97113e-08
-5.36911e-06
5.4832e-08
-5.41586e-06
4.67041e-08
-5.45651e-06
4.06442e-08
-5.49302e-06
3.65107e-08
-5.5258e-06
3.28129e-08
-5.55585e-06
3.01223e-08
-5.58285e-06
2.70333e-08
-5.6046e-06
2.16512e-08
-5.62034e-06
1.57397e-08
-5.63146e-06
1.11163e-08
-5.6382e-06
6.72698e-09
-5.64033e-06
2.12676e-09
-5.63754e-06
-2.85218e-09
-5.62996e-06
-7.56914e-09
-5.61928e-06
-1.06246e-08
-5.60631e-06
-1.30041e-08
-5.58843e-06
-1.79534e-08
-5.56405e-06
-2.43841e-08
-5.53425e-06
-2.98098e-08
-5.50014e-06
-3.4108e-08
-5.46192e-06
-3.8198e-08
-5.41991e-06
-4.19675e-08
-5.37471e-06
-4.51558e-08
-5.32531e-06
-4.95126e-08
-5.26996e-06
-5.53798e-08
-5.20898e-06
-6.09981e-08
-5.14304e-06
-6.59456e-08
-5.0725e-06
-7.05225e-08
-4.99867e-06
-7.38189e-08
-4.92097e-06
-7.77448e-08
-4.83697e-06
-8.4017e-08
-4.74777e-06
-8.92136e-08
-4.65321e-06
-9.45748e-08
-4.55273e-06
-1.00484e-07
-4.44821e-06
-1.04528e-07
-4.33905e-06
-1.09189e-07
-4.22363e-06
-1.1544e-07
-4.10222e-06
-1.2143e-07
-3.975e-06
-1.27213e-07
-3.8432e-06
-1.31811e-07
-3.706e-06
-1.37256e-07
-3.5628e-06
-1.43229e-07
-3.41341e-06
-1.49405e-07
-3.25844e-06
-1.54978e-07
-3.09986e-06
-1.58572e-07
-2.93784e-06
-1.62016e-07
-2.7717e-06
-1.66186e-07
-2.60049e-06
-1.7122e-07
-2.42523e-06
-1.75273e-07
-2.24807e-06
-1.77161e-07
-2.06959e-06
-1.78485e-07
-1.8894e-06
-1.80205e-07
-1.70819e-06
-1.81216e-07
-1.52678e-06
-1.81408e-07
-1.3469e-06
-1.79875e-07
-1.16956e-06
-1.77349e-07
-9.94271e-07
-1.75289e-07
-8.21452e-07
-1.72822e-07
-6.52493e-07
-1.68958e-07
-4.88987e-07
-1.63502e-07
-3.3122e-07
-1.57767e-07
-1.78355e-07
-1.52863e-07
-3.04416e-08
-1.47915e-07
1.11833e-07
-1.42275e-07
2.47823e-07
-1.35989e-07
3.77359e-07
-1.29537e-07
5.01726e-07
-1.24366e-07
6.21969e-07
-1.20242e-07
7.38392e-07
-1.16424e-07
8.50797e-07
-1.12408e-07
9.58973e-07
-1.08181e-07
1.0629e-06
-1.03931e-07
1.16265e-06
-9.97609e-08
1.25893e-06
-9.62785e-08
1.35211e-06
-9.3179e-08
1.44218e-06
-9.00821e-08
1.52906e-06
-8.68874e-08
1.61228e-06
-8.32202e-08
1.69204e-06
-7.97802e-08
1.76911e-06
-7.70735e-08
1.84373e-06
-7.46256e-08
1.91577e-06
-7.20451e-08
1.98479e-06
-6.90198e-08
2.0507e-06
-6.5929e-08
2.11386e-06
-6.31575e-08
2.17478e-06
-6.09235e-08
2.23344e-06
-5.86687e-08
2.28932e-06
-5.58873e-08
2.34256e-06
-5.32453e-08
2.39356e-06
-5.09986e-08
2.4424e-06
-4.88455e-08
2.48896e-06
-4.65632e-08
2.53321e-06
-4.42533e-08
2.57533e-06
-4.21336e-08
2.61537e-06
-4.00426e-08
2.65333e-06
-3.79636e-08
2.68926e-06
-3.59346e-08
2.72303e-06
-3.37805e-08
2.75476e-06
-3.17356e-08
2.78454e-06
-2.97919e-08
2.81259e-06
-2.80634e-08
2.83896e-06
-2.63695e-08
2.86358e-06
-2.46222e-08
2.88637e-06
-2.27898e-08
2.90739e-06
-2.10133e-08
2.92686e-06
-1.94579e-08
2.94496e-06
-1.80923e-08
2.96167e-06
-1.66948e-08
2.97686e-06
-1.51914e-08
2.99061e-06
-1.37406e-08
3.003e-06
-1.23925e-08
3.01409e-06
-1.10939e-08
3.02379e-06
-9.70856e-09
3.03216e-06
-8.37008e-09
3.03947e-06
-7.29947e-09
3.04584e-06
-6.36849e-09
3.05131e-06
-5.46872e-09
3.05577e-06
-4.46791e-09
3.05923e-06
-3.45812e-09
3.06169e-06
-2.46441e-09
3.06316e-06
-1.47216e-09
3.06386e-06
-7.02064e-10
3.06393e-06
-6.77286e-11
3.06326e-06
6.64383e-10
3.06154e-06
1.70853e-09
3.05914e-06
2.40381e-09
3.05622e-06
2.91264e-09
3.05266e-06
3.5642e-09
3.04833e-06
4.33183e-09
3.04343e-06
4.89549e-09
3.03788e-06
5.55715e-09
3.03152e-06
6.35954e-09
3.02446e-06
7.07031e-09
3.01687e-06
7.59998e-09
3.00893e-06
7.94698e-09
3.00066e-06
8.26704e-09
2.99193e-06
8.73107e-09
2.98259e-06
9.33982e-09
2.97318e-06
9.40902e-09
2.96305e-06
1.01332e-08
2.95354e-06
9.51894e-09
2.94372e-06
9.82658e-09
2.9344e-06
9.31403e-09
2.92463e-06
9.77409e-09
2.91466e-06
9.97679e-09
2.90437e-06
1.0288e-08
2.89301e-06
1.13654e-08
2.88292e-06
1.00869e-08
2.87234e-06
1.05842e-08
2.85984e-06
1.25002e-08
2.84781e-06
1.20248e-08
2.83188e-06
1.59274e-08
2.81268e-06
1.92025e-08
2.80192e-06
1.07664e-08
2.78955e-06
1.23696e-08
2.77393e-06
1.56206e-08
2.76528e-06
8.65545e-09
2.72561e-06
3.96693e-08
2.67606e-06
4.95561e-08
2.67389e-06
2.17713e-09
2.64858e-06
2.53075e-08
2.66035e-06
-1.17722e-08
2.71287e-06
-5.25154e-08
2.88119e-06
-1.68315e-07
3.0861e-06
-2.04915e-07
3.19865e-06
-1.1255e-07
3.28395e-06
-8.53039e-08
3.32882e-06
-4.48712e-08
3.3588e-06
-2.99716e-08
3.37425e-06
-1.54484e-08
3.38826e-06
-1.40129e-08
3.39728e-06
-9.02165e-09
3.40327e-06
-5.98614e-09
3.39977e-06
3.50483e-09
3.3996e-06
1.71576e-10
3.36847e-06
3.11266e-08
3.32784e-06
4.06334e-08
3.32622e-06
1.62687e-09
3.30463e-06
2.15892e-08
3.31043e-06
-5.80174e-09
3.35058e-06
-4.0147e-08
3.47588e-06
-1.25292e-07
3.62198e-06
-1.46105e-07
3.69285e-06
-7.08675e-08
3.74761e-06
-5.47565e-08
3.77135e-06
-2.37355e-08
3.7856e-06
-1.42548e-08
3.79156e-06
-5.95855e-09
3.78876e-06
2.80122e-09
3.77871e-06
1.00528e-08
3.75479e-06
2.39134e-08
3.72733e-06
2.74653e-08
3.70695e-06
2.03807e-08
3.67845e-06
2.84952e-08
3.65746e-06
2.09862e-08
3.62671e-06
3.07472e-08
3.49986e-06
1.26856e-07
3.3829e-06
1.16959e-07
3.34813e-06
3.477e-08
3.26379e-06
8.43295e-08
3.41491e-06
-1.51145e-07
3.67239e-06
-2.57526e-07
4.49551e-06
-8.2318e-07
5.52301e-06
-1.02768e-06
6.23084e-06
-7.08024e-07
6.70652e-06
-4.75699e-07
7.04107e-06
-3.34564e-07
7.2821e-06
-2.41022e-07
7.46025e-06
-1.7817e-07
7.59558e-06
-1.35329e-07
7.69727e-06
-1.01685e-07
7.77582e-06
-7.85379e-08
7.83701e-06
-6.11696e-08
7.8854e-06
-4.83795e-08
7.92074e-06
-3.53267e-08
7.94713e-06
-2.63712e-08
7.96718e-06
-2.0035e-08
7.97919e-06
-1.19794e-08
7.98575e-06
-6.54722e-09
7.98862e-06
-2.85313e-09
7.98542e-06
3.21741e-09
7.97876e-06
6.6772e-09
7.96952e-06
9.24406e-09
7.95844e-06
1.10879e-08
7.94218e-06
1.62646e-08
7.92327e-06
1.89279e-08
7.90249e-06
2.07796e-08
7.87995e-06
2.25407e-08
7.85574e-06
2.41984e-08
7.82975e-06
2.599e-08
7.8021e-06
2.76404e-08
7.77301e-06
2.90833e-08
7.74225e-06
3.07463e-08
7.71012e-06
3.21304e-08
7.6763e-06
3.38145e-08
7.64444e-06
3.18634e-08
7.61212e-06
3.23152e-08
7.57868e-06
3.34382e-08
7.54439e-06
3.42818e-08
7.50899e-06
3.54008e-08
7.47235e-06
3.66317e-08
7.43513e-06
3.72358e-08
7.39716e-06
3.79709e-08
7.35832e-06
3.88486e-08
7.31862e-06
3.96935e-08
7.27817e-06
4.04517e-08
7.23727e-06
4.09019e-08
7.19655e-06
4.07181e-08
7.15235e-06
4.42045e-08
7.10744e-06
4.49077e-08
7.06261e-06
4.48377e-08
7.01765e-06
4.49532e-08
6.97252e-06
4.51303e-08
6.92752e-06
4.50004e-08
6.8824e-06
4.51259e-08
6.83697e-06
4.54248e-08
6.79102e-06
4.59524e-08
6.74435e-06
4.66672e-08
6.69706e-06
4.72981e-08
6.64945e-06
4.76054e-08
6.60194e-06
4.75158e-08
6.55459e-06
4.73464e-08
6.50692e-06
4.76734e-08
6.4584e-06
4.85156e-08
6.40884e-06
4.95655e-08
6.35863e-06
5.02095e-08
6.3088e-06
4.98295e-08
6.25953e-06
4.92757e-08
6.21003e-06
4.95046e-08
6.15937e-06
5.06524e-08
6.10805e-06
5.1324e-08
6.05743e-06
5.06192e-08
6.00749e-06
4.99491e-08
5.95709e-06
5.0407e-08
5.90546e-06
5.16326e-08
5.857e-06
4.84707e-08
5.80948e-06
4.75234e-08
5.76227e-06
4.72173e-08
5.71113e-06
5.11542e-08
5.65862e-06
5.25131e-08
5.60681e-06
5.18166e-08
5.5534e-06
5.34165e-08
5.49902e-06
5.439e-08
5.90348e-08
-8.2374e-05
-1.85658e-06
-8.13356e-05
-2.03531e-06
-8.03642e-05
-1.87342e-06
-7.94292e-05
-1.72191e-06
-7.85522e-05
-1.44369e-06
-7.77213e-05
-8.91783e-07
-7.69884e-05
-3.87171e-07
-7.61626e-05
-1.81509e-07
-7.50524e-05
-6.20431e-07
-7.30997e-05
-2.28449e-06
-6.97355e-05
-5.60097e-06
-6.50533e-05
-9.92529e-06
-6.02818e-05
-1.24487e-05
-5.5511e-05
-1.28967e-05
-5.07083e-05
-1.32343e-05
-4.63055e-05
-1.33685e-05
-4.22681e-05
-1.33268e-05
-3.88118e-05
-1.23887e-05
-3.58832e-05
-1.08708e-05
-3.35321e-05
-8.78852e-06
-3.2525e-05
-5.47804e-06
-3.30345e-05
-1.4929e-06
-3.37694e-05
1.91755e-06
-3.3027e-05
4.28605e-06
-3.12416e-05
5.42747e-06
-2.98051e-05
5.11585e-06
-2.92757e-05
3.56921e-06
-2.90797e-05
1.92228e-06
-2.88468e-05
9.21842e-07
-2.84638e-05
1.52027e-07
-2.79325e-05
-6.01968e-07
-2.73691e-05
-1.26915e-06
-2.66487e-05
-1.87713e-06
-2.56974e-05
-2.30672e-06
-2.44743e-05
-2.49437e-06
-2.3145e-05
-2.30001e-06
-2.19544e-05
-2.04947e-06
-2.10011e-05
-1.952e-06
-2.00893e-05
-2.07904e-06
-1.91471e-05
-2.06394e-06
-1.80652e-05
-1.90034e-06
-1.68416e-05
-1.97626e-06
-1.55422e-05
-2.38033e-06
-1.41596e-05
-2.99659e-06
-1.26411e-05
-3.37164e-06
-1.10776e-05
-3.29869e-06
-9.59315e-06
-2.76191e-06
-8.27338e-06
-2.14216e-06
-7.06579e-06
-2.03114e-06
-5.80489e-06
-2.44337e-06
-4.38649e-06
-3.02294e-06
-2.85985e-06
-3.25357e-06
-1.33569e-06
-3.02795e-06
6.31291e-08
-2.58242e-06
1.26288e-06
-2.27525e-06
2.34904e-06
-2.28738e-06
3.45652e-06
-2.43202e-06
4.64921e-06
-2.58282e-06
5.94842e-06
-2.67041e-06
7.35431e-06
-2.76075e-06
8.80017e-06
-3.02688e-06
1.02018e-05
-3.19446e-06
1.15114e-05
-2.96601e-06
1.26615e-05
-2.37603e-06
1.37344e-05
-1.82805e-06
1.48226e-05
-1.73811e-06
1.59737e-05
-1.97179e-06
1.6949e-05
-1.87346e-06
1.76857e-05
-1.39065e-06
1.82683e-05
-1.02761e-06
1.8781e-05
-9.31913e-07
1.93116e-05
-1.12974e-06
1.99736e-05
-1.38587e-06
2.07193e-05
-1.53852e-06
2.15244e-05
-1.48656e-06
2.20922e-05
-9.03946e-07
2.24371e-05
-3.68525e-08
2.27168e-05
1.28358e-06
2.22703e-05
1.56084e-06
2.15846e-05
6.82076e-07
2.03142e-05
1.25065e-06
1.92046e-05
9.47912e-07
1.92966e-05
-2.21403e-08
1.93632e-05
8.2735e-08
1.94802e-05
4.26859e-07
1.9476e-05
1.30874e-06
1.9181e-05
1.89701e-06
1.8341e-05
2.27536e-06
1.71694e-05
2.20391e-06
1.54249e-05
2.39627e-06
1.37946e-05
1.90915e-06
1.2685e-05
1.11019e-06
1.1983e-05
8.35784e-07
1.16405e-05
5.51862e-07
1.15397e-05
5.39802e-07
1.13123e-05
8.06913e-07
1.1209e-05
1.26247e-06
1.09369e-05
1.75255e-06
1.12247e-05
2.54363e-06
1.09254e-05
4.11557e-06
9.55851e-06
5.00569e-06
6.58358e-06
5.22622e-06
2.27063e-06
4.76298e-06
-1.55104e-06
4.08645e-06
-4.48188e-06
2.27498e-06
-5.90461e-06
5.14747e-07
-6.25136e-06
3.50638e-08
-6.27282e-06
2.64091e-07
-5.38215e-06
-6.78992e-07
-4.03502e-06
-1.61643e-06
-3.51852e-06
-7.18367e-07
-3.29604e-06
-6.31641e-07
-2.96624e-06
-8.36023e-07
-2.83224e-06
-5.41835e-07
-2.46635e-06
-5.4805e-07
-1.98216e-06
-5.83308e-07
-1.38462e-06
-2.00072e-07
-9.64949e-07
2.07478e-07
-7.67159e-07
8.34869e-08
-1.13351e-06
1.99777e-07
-1.82785e-06
2.34636e-07
-2.1616e-06
-1.07941e-08
-2.17621e-06
-5.48493e-07
-1.92355e-06
-8.74208e-07
-1.61807e-06
-7.6724e-07
-1.04615e-06
-1.01527e-06
-4.11138e-07
-1.06667e-06
6.20332e-08
-8.71723e-07
5.04644e-07
-8.85637e-07
9.2023e-07
-8.90302e-07
1.31148e-06
-8.40165e-07
1.74964e-06
-8.87474e-07
2.2073e-06
-8.89016e-07
2.66164e-06
-8.95772e-07
3.1077e-06
-8.85598e-07
3.55558e-06
-8.92065e-07
4.01296e-06
-9.1518e-07
4.46217e-06
-9.04691e-07
4.91617e-06
-9.12045e-07
5.36826e-06
-9.03844e-07
5.8173e-06
-8.96584e-07
6.26402e-06
-8.86877e-07
6.70403e-06
-8.74636e-07
7.13697e-06
-8.65077e-07
7.56051e-06
-8.47602e-07
7.97485e-06
-8.23744e-07
8.38283e-06
-8.08861e-07
8.78634e-06
-8.00647e-07
9.18515e-06
-7.93034e-07
9.57368e-06
-7.79389e-07
9.95041e-06
-7.57914e-07
1.03194e-05
-7.35425e-07
1.06835e-05
-7.21749e-07
1.10444e-05
-7.15648e-07
1.13986e-05
-7.05164e-07
1.17399e-05
-6.85066e-07
1.20705e-05
-6.64221e-07
1.23941e-05
-6.48033e-07
1.27146e-05
-6.35243e-07
1.30263e-05
-6.1759e-07
1.33255e-05
-5.94782e-07
1.36129e-05
-5.73786e-07
1.38907e-05
-5.56055e-07
1.41594e-05
-5.36867e-07
1.44136e-05
-5.08909e-07
1.4655e-05
-4.80592e-07
1.48863e-05
-4.60147e-07
1.51055e-05
-4.37896e-07
1.53079e-05
-4.05159e-07
1.54936e-05
-3.70586e-07
1.56673e-05
-3.44906e-07
1.58285e-05
-3.21413e-07
1.59725e-05
-2.89591e-07
1.60965e-05
-2.50829e-07
1.62051e-05
-2.14599e-07
1.62989e-05
-1.85092e-07
1.63757e-05
-1.55937e-07
1.6434e-05
-1.2013e-07
1.64741e-05
-8.10053e-08
1.64978e-05
-4.46543e-08
1.65029e-05
-8.89101e-09
1.64859e-05
3.07959e-08
1.6447e-05
7.51965e-08
1.63904e-05
1.14412e-07
1.6318e-05
1.45561e-07
1.62263e-05
1.80794e-07
1.61131e-05
2.23379e-07
1.59801e-05
2.68475e-07
1.58226e-05
3.14997e-07
1.56441e-05
3.56035e-07
1.54449e-05
3.93539e-07
1.52282e-05
4.28551e-07
1.49923e-05
4.69288e-07
1.47387e-05
5.11445e-07
1.4463e-05
5.5422e-07
1.41648e-05
5.9575e-07
1.38496e-05
6.29304e-07
1.35197e-05
6.56497e-07
1.31743e-05
6.86526e-07
1.28099e-05
7.24995e-07
1.24287e-05
7.64387e-07
1.20341e-05
7.9355e-07
1.16303e-05
8.12707e-07
1.12152e-05
8.29206e-07
1.07879e-05
8.49984e-07
1.03487e-05
8.73988e-07
9.90224e-06
8.92902e-07
9.45251e-06
9.03788e-07
9.00049e-06
9.07319e-07
8.54295e-06
9.12031e-07
8.07856e-06
9.24091e-07
7.6124e-06
9.34261e-07
7.15169e-06
9.27316e-07
6.69612e-06
9.12333e-07
6.2433e-06
9.01192e-07
5.79435e-06
8.94459e-07
5.34847e-06
8.94488e-07
4.90685e-06
8.8918e-07
4.47156e-06
8.7323e-07
4.04806e-06
8.45971e-07
3.63659e-06
8.18993e-07
3.23479e-06
7.99849e-07
2.8419e-06
7.85824e-07
2.45805e-06
7.72526e-07
2.08393e-06
7.51826e-07
1.72147e-06
7.2539e-07
1.37215e-06
6.97351e-07
1.03549e-06
6.69819e-07
7.11231e-07
6.45522e-07
3.98239e-07
6.2754e-07
9.49567e-08
6.09686e-07
-1.97305e-07
5.85196e-07
-4.76661e-07
5.58184e-07
-7.43435e-07
5.33348e-07
-9.98479e-07
5.0929e-07
-1.2439e-06
4.90002e-07
-1.48161e-06
4.74902e-07
-1.71223e-06
4.59743e-07
-1.93358e-06
4.40347e-07
-2.14458e-06
4.20804e-07
-2.3458e-06
4.04298e-07
-2.53753e-06
3.86823e-07
-2.72248e-06
3.70245e-07
-2.9007e-06
3.53959e-07
-3.07189e-06
3.39789e-07
-3.23619e-06
3.27868e-07
-3.39473e-06
3.19521e-07
-3.54612e-06
3.05577e-07
-3.68988e-06
2.86402e-07
-3.82721e-06
2.73208e-07
-3.95973e-06
2.63787e-07
-4.08768e-06
2.55107e-07
-4.20959e-06
2.44909e-07
-4.32437e-06
2.3178e-07
-4.43331e-06
2.19497e-07
-4.538e-06
2.09456e-07
-4.63854e-06
1.99752e-07
-4.73529e-06
1.91477e-07
-4.82733e-06
1.82902e-07
-4.91233e-06
1.71317e-07
-4.99095e-06
1.59264e-07
-5.06528e-06
1.48409e-07
-5.1352e-06
1.38578e-07
-5.20127e-06
1.31319e-07
-5.26387e-06
1.25416e-07
-5.32204e-06
1.17887e-07
-5.37505e-06
1.0768e-07
-5.42206e-06
9.35549e-08
-5.46373e-06
8.23095e-08
-5.50124e-06
7.40186e-08
-5.53495e-06
6.66217e-08
-5.56448e-06
5.97716e-08
-5.58934e-06
5.188e-08
-5.60962e-06
4.18565e-08
-5.62571e-06
3.17285e-08
-5.63751e-06
2.29111e-08
-5.64432e-06
1.3543e-08
-5.64618e-06
3.93309e-09
-5.64313e-06
-5.93505e-09
-5.63575e-06
-1.49581e-08
-5.62498e-06
-2.13152e-08
-5.6104e-06
-2.7501e-08
-5.59098e-06
-3.73994e-08
-5.56613e-06
-4.94606e-08
-5.53644e-06
-5.95212e-08
-5.50291e-06
-6.76434e-08
-5.4653e-06
-7.58008e-08
-5.42289e-06
-8.43213e-08
-5.37576e-06
-9.22463e-08
-5.32419e-06
-1.0111e-07
-5.26789e-06
-1.11759e-07
-5.20703e-06
-1.219e-07
-5.14178e-06
-1.31198e-07
-5.0716e-06
-1.40682e-07
-4.99619e-06
-1.49182e-07
-4.91578e-06
-1.58184e-07
-4.83045e-06
-1.69391e-07
-4.74132e-06
-1.78454e-07
-4.64751e-06
-1.88408e-07
-4.5473e-06
-2.00696e-07
-4.44079e-06
-2.11029e-07
-4.32904e-06
-2.20974e-07
-4.21317e-06
-2.31408e-07
-4.09282e-06
-2.41789e-07
-3.96581e-06
-2.54246e-07
-3.83221e-06
-2.65431e-07
-3.69372e-06
-2.75755e-07
-3.55093e-06
-2.8608e-07
-3.40288e-06
-2.97492e-07
-3.24929e-06
-3.08565e-07
-3.09084e-06
-3.17024e-07
-2.92809e-06
-3.24791e-07
-2.76229e-06
-3.32009e-07
-2.59309e-06
-3.40452e-07
-2.41997e-06
-3.48413e-07
-2.24377e-06
-3.53362e-07
-2.06574e-06
-3.56506e-07
-1.8872e-06
-3.58771e-07
-1.70885e-06
-3.59577e-07
-1.53048e-06
-3.59776e-07
-1.35242e-06
-3.57936e-07
-1.17563e-06
-3.54138e-07
-1.00136e-06
-3.49556e-07
-8.30619e-07
-3.43576e-07
-6.64105e-07
-3.35471e-07
-5.01748e-07
-3.25858e-07
-3.43719e-07
-3.15797e-07
-1.90513e-07
-3.06074e-07
-4.25937e-08
-2.95836e-07
9.96222e-08
-2.84492e-07
2.36319e-07
-2.7269e-07
3.67741e-07
-2.60963e-07
4.94025e-07
-2.50653e-07
6.15606e-07
-2.41825e-07
7.32709e-07
-2.33529e-07
8.45437e-07
-2.25138e-07
9.54109e-07
-2.16857e-07
1.05899e-06
-2.0882e-07
1.16002e-06
-2.00802e-07
1.2572e-06
-1.93469e-07
1.35072e-06
-1.86706e-07
1.44092e-06
-1.80287e-07
1.52787e-06
-1.73852e-07
1.61146e-06
-1.66828e-07
1.69212e-06
-1.60454e-07
1.76995e-06
-1.54919e-07
1.84483e-06
-1.49508e-07
1.9168e-06
-1.44024e-07
1.98591e-06
-1.38151e-07
2.05235e-06
-1.32379e-07
2.11616e-06
-1.2697e-07
2.17736e-06
-1.2213e-07
2.23599e-06
-1.17305e-07
2.29213e-06
-1.12052e-07
2.34583e-06
-1.06948e-07
2.397e-06
-1.02176e-07
2.44573e-06
-9.75814e-08
2.49223e-06
-9.307e-08
2.5366e-06
-8.86249e-08
2.5788e-06
-8.43509e-08
2.6188e-06
-8.00528e-08
2.65663e-06
-7.58017e-08
2.69248e-06
-7.17913e-08
2.72636e-06
-6.76775e-08
2.75831e-06
-6.36946e-08
2.78834e-06
-5.9817e-08
2.81644e-06
-5.61713e-08
2.84274e-06
-5.2668e-08
2.86725e-06
-4.91286e-08
2.89003e-06
-4.5572e-08
2.91113e-06
-4.21183e-08
2.93062e-06
-3.89486e-08
2.94863e-06
-3.60997e-08
2.96522e-06
-3.3281e-08
2.98034e-06
-3.03106e-08
2.99399e-06
-2.73853e-08
3.00618e-06
-2.4588e-08
3.01714e-06
-2.20457e-08
3.02693e-06
-1.94976e-08
3.03555e-06
-1.69824e-08
3.04296e-06
-1.46951e-08
3.04922e-06
-1.26277e-08
3.05452e-06
-1.07691e-08
3.05883e-06
-8.77627e-09
3.06213e-06
-6.75582e-09
3.06448e-06
-4.82207e-09
3.06604e-06
-3.03897e-09
3.06679e-06
-1.4599e-09
3.06672e-06
-5.18541e-12
3.06583e-06
1.54331e-09
3.06432e-06
3.2201e-09
3.06208e-06
4.63753e-09
3.05917e-06
5.82249e-09
3.05533e-06
7.40601e-09
3.05094e-06
8.72631e-09
3.04583e-06
1.00022e-08
3.04029e-06
1.11039e-08
3.03405e-06
1.26099e-08
3.02734e-06
1.37884e-08
3.01959e-06
1.53596e-08
3.01165e-06
1.59027e-08
3.00292e-06
1.70038e-08
2.99412e-06
1.7526e-08
2.98457e-06
1.88897e-08
2.97547e-06
1.85143e-08
2.96493e-06
2.06742e-08
2.95492e-06
1.95389e-08
2.94366e-06
2.10913e-08
2.93285e-06
2.01216e-08
2.92368e-06
1.89416e-08
2.91451e-06
1.91506e-08
2.90719e-06
1.76089e-08
2.89668e-06
2.18774e-08
2.88678e-06
1.99804e-08
2.87168e-06
2.56775e-08
2.8548e-06
2.93835e-08
2.84636e-06
2.04624e-08
2.84034e-06
2.19415e-08
2.83182e-06
2.77244e-08
2.82372e-06
1.88591e-08
2.78104e-06
5.50512e-08
2.72901e-06
6.76606e-08
2.72761e-06
1.00549e-08
2.73511e-06
3.21712e-08
2.78695e-06
-2.28307e-09
2.85403e-06
-6.49006e-08
3.03351e-06
-1.54178e-07
3.23664e-06
-2.14909e-07
3.34394e-06
-1.59814e-07
3.37973e-06
-2.04111e-07
3.36157e-06
-1.8676e-07
3.36949e-06
-1.20465e-07
3.37079e-06
-8.66096e-08
3.38785e-06
-6.19353e-08
3.40007e-06
-4.21914e-08
3.416e-06
-3.13849e-08
3.42437e-06
-2.23795e-08
3.43099e-06
-1.56328e-08
3.40557e-06
1.94297e-08
3.37108e-06
3.79954e-08
3.37873e-06
-7.47735e-09
3.39167e-06
1.81864e-08
3.43849e-06
-6.18543e-09
3.49505e-06
-5.49249e-08
3.63504e-06
-1.18399e-07
3.7854e-06
-1.5616e-07
3.85297e-06
-1.07721e-07
3.86908e-06
-1.41401e-07
3.84494e-06
-1.21959e-07
3.84703e-06
-7.29509e-08
3.83639e-06
-4.41181e-08
3.83279e-06
-2.0144e-08
3.80933e-06
9.20589e-09
3.79255e-06
1.08286e-08
3.7807e-06
1.46443e-08
3.78181e-06
8.95918e-09
3.78418e-06
2.15303e-08
3.79247e-06
1.91658e-08
3.77754e-06
3.53118e-08
3.65371e-06
1.52326e-07
3.5308e-06
1.43894e-07
3.50712e-06
5.44308e-08
3.53545e-06
9.85383e-08
3.81554e-06
-1.63132e-07
4.19095e-06
-3.40608e-07
5.12914e-06
-8.53839e-07
6.07685e-06
-1.09876e-06
6.74452e-06
-9.25055e-07
7.02302e-06
-1.1015e-06
7.03761e-06
-1.04207e-06
7.13896e-06
-8.0924e-07
7.2604e-06
-5.96985e-07
7.38172e-06
-4.55839e-07
7.49404e-06
-3.53309e-07
7.59443e-06
-2.78526e-07
7.681e-06
-2.21869e-07
7.75338e-06
-1.74102e-07
7.8129e-06
-1.38065e-07
7.86234e-06
-1.10609e-07
7.90133e-06
-8.73721e-08
7.93144e-06
-6.54826e-08
7.95426e-06
-4.92236e-08
7.97077e-06
-3.65491e-08
7.98136e-06
-2.26274e-08
7.98703e-06
-1.22481e-08
7.98851e-06
-4.34667e-09
7.98594e-06
5.73037e-09
7.97991e-06
1.26835e-08
7.97082e-06
1.83256e-08
7.95879e-06
2.3116e-08
7.94355e-06
3.14487e-08
7.92571e-06
3.67469e-08
7.90574e-06
4.07421e-08
7.88348e-06
4.47972e-08
7.85914e-06
4.85382e-08
7.83336e-06
5.17678e-08
7.80593e-06
5.50673e-08
7.7769e-06
5.81219e-08
7.74654e-06
6.11084e-08
7.71494e-06
6.37313e-08
7.68229e-06
6.64665e-08
7.64901e-06
6.51981e-08
7.61476e-06
6.65966e-08
7.57982e-06
6.83828e-08
7.54382e-06
7.02826e-08
7.50723e-06
7.19847e-08
7.47029e-06
7.35727e-08
7.43215e-06
7.53691e-08
7.3934e-06
7.67167e-08
7.35391e-06
7.8325e-08
7.31355e-06
8.00554e-08
7.2722e-06
8.17995e-08
7.23045e-06
8.26514e-08
7.18782e-06
8.33515e-08
7.14436e-06
8.76158e-08
7.10068e-06
8.85651e-08
7.05645e-06
8.90644e-08
7.01182e-06
8.95804e-08
6.96689e-06
9.00522e-08
6.92151e-06
9.03818e-08
6.87591e-06
9.07272e-08
6.83007e-06
9.12561e-08
6.78385e-06
9.21643e-08
6.73712e-06
9.33996e-08
6.68988e-06
9.45324e-08
6.64235e-06
9.51306e-08
6.59468e-06
9.51823e-08
6.54673e-06
9.52913e-08
6.49832e-06
9.60721e-08
6.44899e-06
9.78454e-08
6.39916e-06
9.93888e-08
6.34977e-06
9.95918e-08
6.30069e-06
9.8902e-08
6.25114e-06
9.88207e-08
6.20064e-06
9.99945e-08
6.14992e-06
1.01363e-07
6.09974e-06
1.01495e-07
6.05013e-06
1.00218e-07
5.99976e-06
1.00307e-07
5.94874e-06
1.01418e-07
5.89787e-06
1.0249e-07
5.84781e-06
9.85579e-08
5.79772e-06
9.76163e-08
5.74639e-06
9.8528e-08
5.69454e-06
1.02949e-07
5.6432e-06
1.0382e-07
5.5923e-06
1.02703e-07
5.54239e-06
1.03308e-07
5.49147e-06
1.05302e-07
1.10511e-07
-8.23919e-05
-2.93196e-06
-8.12846e-05
-3.14422e-06
-8.02136e-05
-2.94558e-06
-7.91515e-05
-2.78495e-06
-7.80532e-05
-2.54271e-06
-7.67966e-05
-2.14889e-06
-7.54186e-05
-1.76561e-06
-7.38964e-05
-1.70405e-06
-7.21593e-05
-2.35783e-06
-7.00479e-05
-4.39613e-06
-6.74712e-05
-8.17772e-06
-6.47102e-05
-1.26863e-05
-6.21241e-05
-1.50347e-05
-5.92396e-05
-1.57813e-05
-5.66142e-05
-1.58597e-05
-5.47608e-05
-1.52219e-05
-5.42287e-05
-1.38587e-05
-5.48e-05
-1.18172e-05
-5.56399e-05
-1.00305e-05
-5.62065e-05
-8.22159e-06
-5.57505e-05
-5.93377e-06
-5.37054e-05
-3.53782e-06
-5.05395e-05
-1.2475e-06
-4.70212e-05
7.68376e-07
-4.34196e-05
1.82566e-06
-3.99868e-05
1.68274e-06
-3.72596e-05
8.42097e-07
-3.52319e-05
-1.05214e-07
-3.34579e-05
-8.51903e-07
-3.18866e-05
-1.41814e-06
-3.05719e-05
-1.91107e-06
-2.95285e-05
-2.30926e-06
-2.8571e-05
-2.83452e-06
-2.74555e-05
-3.42626e-06
-2.60685e-05
-3.88487e-06
-2.44906e-05
-3.87791e-06
-2.30038e-05
-3.52734e-06
-2.18144e-05
-3.13345e-06
-2.08754e-05
-3.01806e-06
-1.98451e-05
-3.09429e-06
-1.85053e-05
-3.24012e-06
-1.69455e-05
-3.53608e-06
-1.54114e-05
-3.92653e-06
-1.40504e-05
-4.36123e-06
-1.274e-05
-4.68208e-06
-1.13769e-05
-4.66164e-06
-9.89235e-06
-4.24358e-06
-8.27564e-06
-3.75776e-06
-6.66725e-06
-3.63956e-06
-5.15909e-06
-3.95521e-06
-3.80135e-06
-4.38173e-06
-2.48297e-06
-4.57192e-06
-1.1182e-06
-4.39267e-06
2.72673e-07
-3.97332e-06
1.56748e-06
-3.56982e-06
2.70944e-06
-3.42933e-06
3.7741e-06
-3.49669e-06
4.86634e-06
-3.67473e-06
6.01899e-06
-3.82241e-06
7.26264e-06
-4.0042e-06
8.52106e-06
-4.28526e-06
9.72132e-06
-4.39473e-06
1.08407e-05
-4.08622e-06
1.19282e-05
-3.46898e-06
1.32603e-05
-3.15991e-06
1.48039e-05
-3.28143e-06
1.62294e-05
-3.39656e-06
1.73399e-05
-2.98913e-06
1.82601e-05
-2.31093e-06
1.90412e-05
-1.80866e-06
1.97015e-05
-1.59212e-06
2.0263e-05
-1.68567e-06
2.08591e-05
-1.97515e-06
2.15133e-05
-2.19193e-06
2.22068e-05
-2.18164e-06
2.29815e-05
-1.68744e-06
2.37325e-05
-7.87868e-07
2.50336e-05
-1.7418e-08
2.61934e-05