/*--------------------------------*- C++ -*----------------------------------*\
| =========                 |                                                 |
| \\      /  F ield         | OpenFOAM: The Open Source CFD Toolbox           |
|  \\    /   O peration     | Version:  v2006                                 |
|   \\  /    A nd           | Website:  www.openfoam.com                      |
|    \\/     M anipulation  |                                                 |
\*---------------------------------------------------------------------------*/
FoamFile
{
    version     2.0;
    format      ascii;
    class       volScalarField;
    location    "5.4";
    object      k;
}
// * * * * * * * * * * * * * * * * * * * * * * * * * * * * * * * * * * * * * //

dimensions      [0 2 -2 0 0 0 0];


internalField   nonuniform List<scalar> 
33000
(
1.42543e-08
1.47827e-08
1.53338e-08
1.59501e-08
1.66869e-08
1.75803e-08
1.85808e-08
1.96201e-08
2.0614e-08
2.14475e-08
2.20387e-08
2.25406e-08
2.32522e-08
2.44202e-08
2.60232e-08
2.80494e-08
3.06083e-08
3.38151e-08
3.76007e-08
4.16131e-08
4.53943e-08
4.83731e-08
5.15561e-08
5.99671e-08
7.70115e-08
1.03177e-07
1.3201e-07
1.56262e-07
1.75261e-07
1.89145e-07
1.97923e-07
2.00605e-07
2.01249e-07
2.02296e-07
2.04826e-07
2.08252e-07
2.10292e-07
2.10493e-07
2.10336e-07
2.11457e-07
2.13596e-07
2.14104e-07
2.11709e-07
2.08149e-07
2.06591e-07
2.0794e-07
2.11447e-07
2.14546e-07
2.14482e-07
2.11652e-07
2.08563e-07
2.07662e-07
2.092e-07
2.11238e-07
2.11795e-07
2.10964e-07
2.09959e-07
2.09156e-07
2.08693e-07
2.0791e-07
2.06025e-07
2.04682e-07
2.05571e-07
2.08303e-07
2.10894e-07
2.11357e-07
2.09812e-07
2.0792e-07
2.06445e-07
2.04054e-07
2.0008e-07
1.94635e-07
1.88754e-07
1.8268e-07
1.76626e-07
1.70154e-07
1.62675e-07
1.5436e-07
1.45274e-07
1.3653e-07
1.30021e-07
1.26563e-07
1.27086e-07
1.30749e-07
1.36425e-07
1.42484e-07
1.47543e-07
1.50782e-07
1.52197e-07
1.52358e-07
1.51818e-07
1.50634e-07
1.49348e-07
1.47149e-07
1.43745e-07
1.3902e-07
1.33066e-07
1.26017e-07
1.18357e-07
1.09925e-07
1.01172e-07
9.70085e-08
1.01884e-07
1.02513e-07
1.00202e-07
9.88935e-08
1.00718e-07
1.03372e-07
1.04183e-07
1.0334e-07
1.02718e-07
1.00688e-07
9.92931e-08
9.8774e-08
9.89332e-08
9.75325e-08
9.57557e-08
9.275e-08
9.05569e-08
8.98824e-08
8.89602e-08
8.95028e-08
8.87759e-08
8.84921e-08
8.97693e-08
9.07303e-08
9.16192e-08
9.2404e-08
9.28062e-08
9.32018e-08
9.3813e-08
9.43316e-08
9.4849e-08
9.52496e-08
9.56242e-08
9.5878e-08
9.60564e-08
9.62348e-08
9.63801e-08
9.65174e-08
9.66246e-08
9.66981e-08
9.6715e-08
9.66777e-08
9.66238e-08
9.65606e-08
9.64612e-08
9.63295e-08
9.61852e-08
9.60488e-08
9.59251e-08
9.58e-08
9.56463e-08
9.54738e-08
9.53048e-08
9.51444e-08
9.49793e-08
9.47998e-08
9.46031e-08
9.4398e-08
9.41877e-08
9.39712e-08
9.37481e-08
9.35253e-08
9.33065e-08
9.30788e-08
9.28357e-08
9.25872e-08
9.23367e-08
9.20729e-08
9.17866e-08
9.14863e-08
9.11848e-08
9.0886e-08
9.05845e-08
9.028e-08
8.99851e-08
8.97109e-08
8.94604e-08
8.92299e-08
8.90182e-08
8.88269e-08
8.86577e-08
8.85043e-08
8.83603e-08
8.82276e-08
8.81116e-08
8.80133e-08
8.79245e-08
8.78353e-08
8.77386e-08
8.7635e-08
8.75227e-08
8.7396e-08
8.72548e-08
8.71033e-08
8.69408e-08
8.67629e-08
8.65702e-08
8.63745e-08
8.61865e-08
8.60036e-08
8.58142e-08
8.56072e-08
8.53884e-08
8.5168e-08
8.49565e-08
8.47509e-08
8.45386e-08
8.43135e-08
8.40833e-08
8.3858e-08
8.36299e-08
8.33858e-08
8.31215e-08
8.2851e-08
8.26042e-08
8.23912e-08
8.22001e-08
8.20098e-08
8.18066e-08
8.16013e-08
8.14158e-08
8.12605e-08
8.11282e-08
8.09987e-08
8.08628e-08
8.07264e-08
8.06017e-08
8.04971e-08
8.04174e-08
8.03518e-08
8.02716e-08
8.01642e-08
8.00371e-08
7.98981e-08
7.97512e-08
7.95953e-08
7.94203e-08
7.92214e-08
7.90125e-08
7.87947e-08
7.85575e-08
7.82944e-08
7.8016e-08
7.77387e-08
7.74644e-08
7.71789e-08
7.68574e-08
7.65169e-08
7.61808e-08
7.58437e-08
7.54971e-08
7.51369e-08
7.47652e-08
7.43826e-08
7.39892e-08
7.35915e-08
7.319e-08
7.27828e-08
7.23639e-08
7.19282e-08
7.14845e-08
7.10443e-08
7.06111e-08
7.01779e-08
6.97309e-08
6.92623e-08
6.87793e-08
6.83e-08
6.78307e-08
6.73673e-08
6.69019e-08
6.64206e-08
6.59229e-08
6.54233e-08
6.49245e-08
6.44227e-08
6.39141e-08
6.34027e-08
6.28987e-08
6.24003e-08
6.18888e-08
6.13594e-08
6.08275e-08
6.02982e-08
5.97717e-08
5.92467e-08
5.87204e-08
5.81861e-08
5.76371e-08
5.70824e-08
5.65264e-08
5.59709e-08
5.54174e-08
5.48563e-08
5.42761e-08
5.36893e-08
5.30922e-08
5.24799e-08
5.18582e-08
5.12181e-08
5.05501e-08
4.98512e-08
4.90976e-08
4.82681e-08
4.7466e-08
4.66989e-08
4.59735e-08
4.52902e-08
4.46569e-08
4.40698e-08
4.3526e-08
4.30241e-08
4.257e-08
4.21694e-08
4.18195e-08
4.15173e-08
4.12638e-08
4.10608e-08
4.09091e-08
4.08085e-08
4.07572e-08
4.07577e-08
4.08117e-08
4.09158e-08
4.10623e-08
4.12459e-08
4.14624e-08
4.16989e-08
4.19291e-08
4.21338e-08
4.23082e-08
4.24555e-08
4.25777e-08
4.26769e-08
4.2752e-08
4.28035e-08
4.28309e-08
4.28348e-08
4.28179e-08
4.27815e-08
4.27266e-08
4.26537e-08
4.25608e-08
4.24498e-08
4.23228e-08
4.21817e-08
4.20265e-08
4.18563e-08
4.16716e-08
4.14737e-08
4.12651e-08
4.10459e-08
4.08155e-08
4.0575e-08
4.03261e-08
4.00695e-08
3.98052e-08
3.95336e-08
3.9256e-08
3.89725e-08
3.86838e-08
3.83904e-08
3.80927e-08
3.77913e-08
3.74868e-08
3.71799e-08
3.68706e-08
3.65591e-08
3.62454e-08
3.593e-08
3.56135e-08
3.52963e-08
3.49784e-08
3.46601e-08
3.43418e-08
3.40235e-08
3.37056e-08
3.33879e-08
3.30707e-08
3.27544e-08
3.2439e-08
3.21247e-08
3.18114e-08
3.14994e-08
3.11885e-08
3.0879e-08
3.05711e-08
3.0265e-08
2.99601e-08
2.96566e-08
2.93552e-08
2.90559e-08
2.87583e-08
2.84627e-08
2.81693e-08
2.78776e-08
2.75874e-08
2.72988e-08
2.70123e-08
2.67278e-08
2.64456e-08
2.6165e-08
2.58871e-08
2.5611e-08
2.53376e-08
2.50671e-08
2.47993e-08
2.45344e-08
2.42714e-08
2.40112e-08
2.37529e-08
2.3496e-08
2.32445e-08
2.29914e-08
2.27398e-08
2.24902e-08
2.22341e-08
2.19822e-08
2.17503e-08
2.14996e-08
2.12636e-08
2.10262e-08
2.06954e-08
2.04168e-08
2.02676e-08
1.99206e-08
1.9895e-08
1.97097e-08
1.9976e-08
1.99536e-08
1.99291e-08
1.9836e-08
1.97382e-08
1.96093e-08
1.94772e-08
1.93371e-08
1.91965e-08
1.905e-08
1.89016e-08
1.87505e-08
1.85779e-08
1.84167e-08
1.82787e-08
1.81104e-08
1.79949e-08
1.7866e-08
1.78661e-08
1.77917e-08
1.77132e-08
1.76175e-08
1.75121e-08
1.74071e-08
1.72989e-08
1.71884e-08
1.70739e-08
1.6924e-08
1.67869e-08
1.66954e-08
1.65258e-08
1.64518e-08
1.62981e-08
1.58203e-08
1.56267e-08
1.56808e-08
1.5195e-08
1.61723e-08
1.64517e-08
1.95976e-08
2.11482e-08
2.26612e-08
2.37512e-08
2.45703e-08
2.51959e-08
2.56728e-08
2.60337e-08
2.63001e-08
2.64983e-08
2.66481e-08
2.67638e-08
2.68509e-08
2.69147e-08
2.69593e-08
2.6988e-08
2.70045e-08
2.70114e-08
2.70098e-08
2.7001e-08
2.69859e-08
2.69652e-08
2.69399e-08
2.69103e-08
2.68773e-08
2.68407e-08
2.68007e-08
2.67576e-08
2.67113e-08
2.66615e-08
2.6608e-08
2.6551e-08
2.64902e-08
2.64257e-08
2.63577e-08
2.6287e-08
2.62139e-08
2.61391e-08
2.60632e-08
2.59864e-08
2.59091e-08
2.58317e-08
2.57546e-08
2.56778e-08
2.56015e-08
2.55255e-08
2.54492e-08
2.53723e-08
2.52944e-08
2.5215e-08
2.51341e-08
2.50518e-08
2.49684e-08
2.48845e-08
2.4801e-08
2.47181e-08
2.46356e-08
2.45527e-08
2.44689e-08
2.43848e-08
2.4302e-08
2.42217e-08
2.41434e-08
2.40657e-08
2.39875e-08
2.39095e-08
2.38336e-08
2.37598e-08
2.36863e-08
2.36114e-08
2.35362e-08
2.34619e-08
2.3389e-08
2.3316e-08
2.32419e-08
2.31774e-08
2.30638e-08
2.31647e-08
2.25501e-08
2.27671e-08
1.94704e-08
1.00541e-08
1.01061e-08
1.02054e-08
1.03805e-08
1.06631e-08
1.10766e-08
1.16354e-08
1.23642e-08
1.33017e-08
1.44611e-08
1.57095e-08
1.66153e-08
1.75318e-08
1.90038e-08
2.11962e-08
2.43583e-08
2.88656e-08
3.51598e-08
4.33622e-08
5.32825e-08
6.46704e-08
7.65734e-08
8.62171e-08
9.31189e-08
1.02655e-07
1.1296e-07
1.1785e-07
1.1307e-07
9.88871e-08
8.35871e-08
7.04456e-08
6.08022e-08
5.4062e-08
4.96465e-08
4.70202e-08
4.54539e-08
4.42209e-08
4.30992e-08
4.21487e-08
4.14877e-08
4.10584e-08
4.05111e-08
3.96181e-08
3.86295e-08
3.80451e-08
3.79329e-08
3.80848e-08
3.81308e-08
3.77372e-08
3.6985e-08
3.62102e-08
3.5703e-08
3.54488e-08
3.51843e-08
3.47009e-08
3.40262e-08
3.33192e-08
3.26486e-08
3.20844e-08
3.16214e-08
3.1229e-08
3.11257e-08
3.14987e-08
3.22381e-08
3.3027e-08
3.35964e-08
3.38994e-08
3.41527e-08
3.44271e-08
3.43181e-08
3.34765e-08
3.216e-08
3.09886e-08
3.06524e-08
3.21579e-08
3.68039e-08
4.54881e-08
5.75261e-08
6.32336e-08
6.65208e-08
7.19271e-08
7.48318e-08
7.85317e-08
8.52829e-08
9.01181e-08
9.73223e-08
9.59198e-08
8.6411e-08
6.9903e-08
5.44105e-08
3.87061e-08
2.73982e-08
2.18106e-08
1.93436e-08
1.95352e-08
2.07268e-08
2.42269e-08
2.78505e-08
3.52539e-08
4.33449e-08
4.76456e-08
4.74345e-08
4.23671e-08
3.67129e-08
2.99029e-08
2.40658e-08
2.0785e-08
1.89914e-08
1.74953e-08
1.57152e-08
1.50978e-08
1.47928e-08
1.4371e-08
1.43335e-08
1.47715e-08
1.58772e-08
2.01123e-08
2.31239e-08
2.24362e-08
1.99799e-08
1.82245e-08
1.64921e-08
1.53622e-08
1.48453e-08
1.47251e-08
1.45646e-08
1.44402e-08
1.42815e-08
1.41812e-08
1.41178e-08
1.41185e-08
1.41661e-08
1.4225e-08
1.42723e-08
1.43194e-08
1.43725e-08
1.44309e-08
1.44948e-08
1.45628e-08
1.46315e-08
1.46948e-08
1.47506e-08
1.48008e-08
1.48544e-08
1.49139e-08
1.49695e-08
1.50165e-08
1.50649e-08
1.51257e-08
1.51982e-08
1.52673e-08
1.53208e-08
1.53646e-08
1.54156e-08
1.54807e-08
1.55515e-08
1.56142e-08
1.5667e-08
1.57204e-08
1.57765e-08
1.58261e-08
1.5866e-08
1.59084e-08
1.59606e-08
1.60071e-08
1.60336e-08
1.6056e-08
1.60968e-08
1.61392e-08
1.61549e-08
1.61522e-08
1.61612e-08
1.61925e-08
1.62239e-08
1.62205e-08
1.6191e-08
1.61748e-08
1.61813e-08
1.6188e-08
1.61721e-08
1.61393e-08
1.61183e-08
1.61109e-08
1.60617e-08
1.59683e-08
1.58952e-08
1.58573e-08
1.58181e-08
1.5751e-08
1.5657e-08
1.55524e-08
1.54508e-08
1.53748e-08
1.52924e-08
1.51956e-08
1.50866e-08
1.49557e-08
1.48146e-08
1.46887e-08
1.45966e-08
1.45149e-08
1.44078e-08
1.42669e-08
1.41114e-08
1.39798e-08
1.38744e-08
1.37719e-08
1.3658e-08
1.35233e-08
1.33887e-08
1.32851e-08
1.32009e-08
1.30876e-08
1.29413e-08
1.28079e-08
1.27056e-08
1.26325e-08
1.25573e-08
1.24573e-08
1.23364e-08
1.22174e-08
1.21239e-08
1.20541e-08
1.19954e-08
1.19239e-08
1.18404e-08
1.17577e-08
1.16802e-08
1.16148e-08
1.15682e-08
1.15274e-08
1.14746e-08
1.14167e-08
1.13662e-08
1.13199e-08
1.12836e-08
1.12565e-08
1.12305e-08
1.11988e-08
1.11688e-08
1.11475e-08
1.11253e-08
1.11012e-08
1.10773e-08
1.106e-08
1.10489e-08
1.10443e-08
1.10314e-08
1.10079e-08
1.09937e-08
1.09858e-08
1.0979e-08
1.09723e-08
1.09624e-08
1.09518e-08
1.0942e-08
1.09322e-08
1.09236e-08
1.09163e-08
1.09082e-08
1.0898e-08
1.08871e-08
1.08775e-08
1.08712e-08
1.08665e-08
1.08602e-08
1.08507e-08
1.08371e-08
1.0826e-08
1.08185e-08
1.08127e-08
1.08083e-08
1.08032e-08
1.07957e-08
1.07874e-08
1.07802e-08
1.07744e-08
1.07698e-08
1.07655e-08
1.07611e-08
1.07572e-08
1.07534e-08
1.07484e-08
1.07422e-08
1.07358e-08
1.07302e-08
1.07257e-08
1.0722e-08
1.07179e-08
1.07123e-08
1.07055e-08
1.06988e-08
1.06932e-08
1.06888e-08
1.06845e-08
1.06791e-08
1.0673e-08
1.06663e-08
1.066e-08
1.06547e-08
1.06495e-08
1.06434e-08
1.06363e-08
1.06292e-08
1.06231e-08
1.0617e-08
1.06096e-08
1.06014e-08
1.05942e-08
1.05878e-08
1.05811e-08
1.05736e-08
1.05652e-08
1.05571e-08
1.05495e-08
1.0542e-08
1.0534e-08
1.05254e-08
1.05171e-08
1.05091e-08
1.05011e-08
1.04923e-08
1.04825e-08
1.0473e-08
1.04633e-08
1.0453e-08
1.04422e-08
1.04316e-08
1.04216e-08
1.0412e-08
1.04027e-08
1.03933e-08
1.03839e-08
1.03747e-08
1.03659e-08
1.03576e-08
1.03499e-08
1.03427e-08
1.03355e-08
1.03283e-08
1.03217e-08
1.03159e-08
1.03108e-08
1.03061e-08
1.03014e-08
1.02968e-08
1.02927e-08
1.02894e-08
1.02869e-08
1.02844e-08
1.02819e-08
1.02797e-08
1.02784e-08
1.02775e-08
1.02766e-08
1.02754e-08
1.02747e-08
1.02743e-08
1.02739e-08
1.02733e-08
1.02729e-08
1.02724e-08
1.0272e-08
1.02716e-08
1.0271e-08
1.02701e-08
1.02693e-08
1.02686e-08
1.02679e-08
1.0267e-08
1.0266e-08
1.02643e-08
1.02625e-08
1.02608e-08
1.02591e-08
1.02571e-08
1.0255e-08
1.02526e-08
1.02504e-08
1.02479e-08
1.02449e-08
1.02415e-08
1.0238e-08
1.02347e-08
1.02315e-08
1.02281e-08
1.02244e-08
1.02205e-08
1.02163e-08
1.02124e-08
1.02088e-08
1.02046e-08
1.02001e-08
1.01961e-08
1.01921e-08
1.01878e-08
1.01836e-08
1.01797e-08
1.01757e-08
1.01716e-08
1.01671e-08
1.01626e-08
1.01583e-08
1.01542e-08
1.01496e-08
1.01459e-08
1.01407e-08
1.01364e-08
1.01313e-08
1.01263e-08
1.0122e-08
1.01172e-08
1.0115e-08
1.01103e-08
1.01084e-08
1.01065e-08
1.00991e-08
1.00963e-08
1.00986e-08
1.00917e-08
1.01015e-08
1.01056e-08
1.00979e-08
1.01132e-08
1.01249e-08
1.01024e-08
1.01845e-08
1.01899e-08
1.01353e-08
1.00997e-08
1.01023e-08
1.01006e-08
1.00733e-08
1.00624e-08
1.00515e-08
1.00421e-08
1.00386e-08
1.00376e-08
1.00446e-08
1.00493e-08
1.00567e-08
1.00667e-08
1.00756e-08
1.00679e-08
1.01115e-08
1.01155e-08
1.00818e-08
1.00656e-08
1.00662e-08
1.00638e-08
1.00478e-08
1.00426e-08
1.00456e-08
1.00425e-08
1.00368e-08
1.00371e-08
1.00327e-08
1.00345e-08
1.00381e-08
1.01116e-08
1.01212e-08
1.01698e-08
1.02193e-08
1.02777e-08
1.02721e-08
1.03476e-08
1.03963e-08
1.04073e-08
1.04063e-08
1.0466e-08
1.04604e-08
1.03652e-08
1.02748e-08
1.0214e-08
1.01725e-08
1.01444e-08
1.0125e-08
1.01113e-08
1.01023e-08
1.00969e-08
1.00941e-08
1.00931e-08
1.00938e-08
1.00964e-08
1.00996e-08
1.01034e-08
1.01088e-08
1.01126e-08
1.01158e-08
1.01186e-08
1.0123e-08
1.01259e-08
1.0128e-08
1.013e-08
1.01315e-08
1.0133e-08
1.01343e-08
1.01354e-08
1.01364e-08
1.0137e-08
1.01374e-08
1.01358e-08
1.01352e-08
1.01352e-08
1.01351e-08
1.01352e-08
1.01354e-08
1.01353e-08
1.01353e-08
1.01355e-08
1.01357e-08
1.01358e-08
1.01359e-08
1.01356e-08
1.0137e-08
1.01368e-08
1.01361e-08
1.01353e-08
1.01343e-08
1.01331e-08
1.0132e-08
1.01312e-08
1.01308e-08
1.01308e-08
1.01308e-08
1.01302e-08
1.01289e-08
1.01274e-08
1.01267e-08
1.01272e-08
1.01279e-08
1.01277e-08
1.01262e-08
1.01246e-08
1.01241e-08
1.01245e-08
1.01245e-08
1.01226e-08
1.01207e-08
1.01203e-08
1.01205e-08
1.0118e-08
1.01161e-08
1.0114e-08
1.01263e-08
1.01178e-08
1.01713e-08
1.0187e-08
1.02611e-08
1.01556e-08
1.00253e-08
1.00487e-08
1.00951e-08
1.01803e-08
1.03251e-08
1.055e-08
1.08681e-08
1.12707e-08
1.17179e-08
1.21461e-08
1.25231e-08
1.29291e-08
1.35835e-08
1.47075e-08
1.65594e-08
1.95747e-08
2.43871e-08
3.15479e-08
4.08913e-08
5.15908e-08
6.24139e-08
7.18706e-08
7.88543e-08
8.23986e-08
8.22786e-08
7.87963e-08
7.10939e-08
6.09819e-08
5.09061e-08
4.24857e-08
3.62163e-08
3.16823e-08
2.81633e-08
2.55402e-08
2.37297e-08
2.25974e-08
2.18706e-08
2.12708e-08
2.0649e-08
2.01788e-08
1.98136e-08
1.93635e-08
1.88706e-08
1.83935e-08
1.80329e-08
1.78427e-08
1.77817e-08
1.77198e-08
1.75467e-08
1.72557e-08
1.69452e-08
1.67113e-08
1.65706e-08
1.64652e-08
1.6317e-08
1.60921e-08
1.58272e-08
1.55696e-08
1.53373e-08
1.51301e-08
1.49659e-08
1.49004e-08
1.49666e-08
1.51358e-08
1.5328e-08
1.54942e-08
1.56632e-08
1.58848e-08
1.61127e-08
1.62292e-08
1.61897e-08
1.60636e-08
1.60043e-08
1.61907e-08
1.68141e-08
1.80027e-08
2.00241e-08
2.3625e-08
2.78731e-08
3.10228e-08
3.51112e-08
3.84397e-08
4.16325e-08
4.60731e-08
5.18353e-08
5.93426e-08
6.43006e-08
6.31492e-08
5.58679e-08
4.7344e-08
3.65398e-08
2.79715e-08
2.17329e-08
1.72365e-08
1.44167e-08
1.29586e-08
1.25661e-08
1.29467e-08
1.43591e-08
1.74057e-08
2.03096e-08
2.21941e-08
2.24098e-08
2.14213e-08
1.9211e-08
1.6541e-08
1.43318e-08
1.2959e-08
1.1909e-08
1.12571e-08
1.09103e-08
1.07042e-08
1.05902e-08
1.05243e-08
1.04999e-08
1.05119e-08
1.06817e-08
1.11988e-08
1.13732e-08
1.15087e-08
1.14781e-08
1.12559e-08
1.10151e-08
1.08325e-08
1.06958e-08
1.05903e-08
1.05179e-08
1.04805e-08
1.04527e-08
1.04383e-08
1.04366e-08
1.04357e-08
1.04369e-08
1.04407e-08
1.04476e-08
1.04555e-08
1.04632e-08
1.04719e-08
1.04801e-08
1.04887e-08
1.04976e-08
1.0506e-08
1.05141e-08
1.05224e-08
1.05305e-08
1.05376e-08
1.05435e-08
1.05502e-08
1.05591e-08
1.05692e-08
1.05779e-08
1.0584e-08
1.05892e-08
1.05962e-08
1.06054e-08
1.06146e-08
1.06219e-08
1.06281e-08
1.06353e-08
1.06434e-08
1.06501e-08
1.06547e-08
1.06596e-08
1.06662e-08
1.06718e-08
1.06738e-08
1.06753e-08
1.06799e-08
1.06845e-08
1.06841e-08
1.06806e-08
1.06793e-08
1.06816e-08
1.06831e-08
1.06789e-08
1.06707e-08
1.06645e-08
1.06613e-08
1.06575e-08
1.06506e-08
1.06425e-08
1.06357e-08
1.06288e-08
1.06157e-08
1.05969e-08
1.05806e-08
1.05687e-08
1.05577e-08
1.05443e-08
1.05272e-08
1.0508e-08
1.04888e-08
1.04728e-08
1.04572e-08
1.04416e-08
1.04253e-08
1.04063e-08
1.03859e-08
1.03677e-08
1.03541e-08
1.03422e-08
1.03278e-08
1.03105e-08
1.02928e-08
1.02778e-08
1.02656e-08
1.02538e-08
1.02412e-08
1.02277e-08
1.02151e-08
1.02052e-08
1.01967e-08
1.01862e-08
1.01742e-08
1.01637e-08
1.01555e-08
1.01494e-08
1.01436e-08
1.01367e-08
1.01287e-08
1.01211e-08
1.01152e-08
1.01108e-08
1.01072e-08
1.01033e-08
1.0099e-08
1.00948e-08
1.00911e-08
1.0088e-08
1.00857e-08
1.00839e-08
1.00817e-08
1.00794e-08
1.00773e-08
1.00755e-08
1.00743e-08
1.00735e-08
1.00728e-08
1.00719e-08
1.00709e-08
1.00702e-08
1.00694e-08
1.00688e-08
1.00683e-08
1.00679e-08
1.00677e-08
1.00678e-08
1.00676e-08
1.00671e-08
1.00667e-08
1.00666e-08
1.00666e-08
1.00667e-08
1.00666e-08
1.00664e-08
1.00662e-08
1.00661e-08
1.0066e-08
1.0066e-08
1.00659e-08
1.00655e-08
1.00652e-08
1.00649e-08
1.00648e-08
1.00648e-08
1.00647e-08
1.00644e-08
1.00639e-08
1.00634e-08
1.0063e-08
1.00629e-08
1.00628e-08
1.00626e-08
1.00623e-08
1.00619e-08
1.00616e-08
1.00612e-08
1.0061e-08
1.00607e-08
1.00605e-08
1.00604e-08
1.00602e-08
1.00598e-08
1.00593e-08
1.00588e-08
1.00585e-08
1.00582e-08
1.0058e-08
1.00577e-08
1.00573e-08
1.00568e-08
1.00563e-08
1.0056e-08
1.00557e-08
1.00554e-08
1.0055e-08
1.00546e-08
1.00542e-08
1.00539e-08
1.00534e-08
1.00531e-08
1.00527e-08
1.00524e-08
1.00519e-08
1.00515e-08
1.00511e-08
1.00507e-08
1.00503e-08
1.00499e-08
1.00496e-08
1.00491e-08
1.00488e-08
1.00484e-08
1.00479e-08
1.00475e-08
1.00471e-08
1.00467e-08
1.00463e-08
1.00459e-08
1.00456e-08
1.00452e-08
1.00448e-08
1.00444e-08
1.0044e-08
1.00437e-08
1.00434e-08
1.0043e-08
1.00426e-08
1.00423e-08
1.0042e-08
1.00417e-08
1.00414e-08
1.00411e-08
1.00408e-08
1.00405e-08
1.00402e-08
1.004e-08
1.00397e-08
1.00395e-08
1.00393e-08
1.00391e-08
1.00388e-08
1.00387e-08
1.00385e-08
1.00384e-08
1.00382e-08
1.0038e-08
1.00379e-08
1.00378e-08
1.00377e-08
1.00376e-08
1.00375e-08
1.00374e-08
1.00373e-08
1.00372e-08
1.00371e-08
1.0037e-08
1.00369e-08
1.00368e-08
1.00367e-08
1.00366e-08
1.00365e-08
1.00363e-08
1.00362e-08
1.00361e-08
1.0036e-08
1.00358e-08
1.00356e-08
1.00355e-08
1.00354e-08
1.00353e-08
1.00352e-08
1.0035e-08
1.00349e-08
1.00349e-08
1.00347e-08
1.00346e-08
1.00345e-08
1.00343e-08
1.00342e-08
1.00341e-08
1.0034e-08
1.00339e-08
1.00337e-08
1.00337e-08
1.00336e-08
1.00334e-08
1.00333e-08
1.00332e-08
1.00331e-08
1.0033e-08
1.00328e-08
1.00327e-08
1.00326e-08
1.00325e-08
1.00324e-08
1.00323e-08
1.00321e-08
1.0032e-08
1.00318e-08
1.00316e-08
1.00314e-08
1.00313e-08
1.00312e-08
1.0031e-08
1.00308e-08
1.00305e-08
1.00304e-08
1.00302e-08
1.003e-08
1.00299e-08
1.00298e-08
1.00296e-08
1.00295e-08
1.00293e-08
1.00295e-08
1.00294e-08
1.00292e-08
1.00294e-08
1.00296e-08
1.00297e-08
1.00297e-08
1.00292e-08
1.00285e-08
1.00284e-08
1.00291e-08
1.00303e-08
1.00311e-08
1.00309e-08
1.00315e-08
1.00316e-08
1.00304e-08
1.00293e-08
1.00285e-08
1.00279e-08
1.0028e-08
1.00276e-08
1.00276e-08
1.00275e-08
1.00273e-08
1.00272e-08
1.00268e-08
1.00268e-08
1.00275e-08
1.00281e-08
1.00284e-08
1.00282e-08
1.00284e-08
1.00283e-08
1.00277e-08
1.00272e-08
1.00266e-08
1.00263e-08
1.00263e-08
1.00259e-08
1.00258e-08
1.00261e-08
1.00264e-08
1.00268e-08
1.00283e-08
1.00308e-08
1.00321e-08
1.00363e-08
1.00368e-08
1.00375e-08
1.00425e-08
1.00502e-08
1.00559e-08
1.00657e-08
1.00653e-08
1.00545e-08
1.00437e-08
1.00364e-08
1.00318e-08
1.00288e-08
1.00268e-08
1.00254e-08
1.00243e-08
1.00234e-08
1.00227e-08
1.00222e-08
1.00217e-08
1.00213e-08
1.00211e-08
1.0021e-08
1.00211e-08
1.00212e-08
1.00214e-08
1.00215e-08
1.00216e-08
1.00218e-08
1.00219e-08
1.00221e-08
1.00223e-08
1.00224e-08
1.00225e-08
1.00226e-08
1.00227e-08
1.00228e-08
1.00228e-08
1.00228e-08
1.00227e-08
1.00227e-08
1.00227e-08
1.00228e-08
1.00229e-08
1.00231e-08
1.00232e-08
1.00233e-08
1.00233e-08
1.00233e-08
1.00233e-08
1.00233e-08
1.00233e-08
1.00233e-08
1.00233e-08
1.00232e-08
1.00232e-08
1.00231e-08
1.00231e-08
1.00231e-08
1.00232e-08
1.00232e-08
1.00231e-08
1.0023e-08
1.00228e-08
1.00226e-08
1.00224e-08
1.00224e-08
1.00224e-08
1.00226e-08
1.00226e-08
1.00225e-08
1.00222e-08
1.00222e-08
1.00224e-08
1.00225e-08
1.00222e-08
1.00219e-08
1.00219e-08
1.0022e-08
1.00219e-08
1.00217e-08
1.00217e-08
1.0022e-08
1.00226e-08
1.00243e-08
1.00257e-08
1.00268e-08
1.002e-08
1.00154e-08
1.00264e-08
1.00479e-08
1.00867e-08
1.01515e-08
1.02503e-08
1.03876e-08
1.0558e-08
1.07423e-08
1.09118e-08
1.10529e-08
1.12008e-08
1.14479e-08
1.18893e-08
1.26489e-08
1.39289e-08
1.59877e-08
1.89186e-08
2.23888e-08
2.60196e-08
2.94635e-08
3.23911e-08
3.45824e-08
3.58817e-08
3.54891e-08
3.24696e-08
2.79732e-08
2.37382e-08
2.09652e-08
1.89866e-08
1.74737e-08
1.62964e-08
1.53701e-08
1.46576e-08
1.41451e-08
1.38176e-08
1.36222e-08
1.34841e-08
1.33417e-08
1.31756e-08
1.30008e-08
1.2824e-08
1.26568e-08
1.2505e-08
1.23787e-08
1.22876e-08
1.22259e-08
1.21719e-08
1.2108e-08
1.20309e-08
1.19524e-08
1.18876e-08
1.18418e-08
1.1807e-08
1.17685e-08
1.17175e-08
1.16515e-08
1.1575e-08
1.1495e-08
1.14186e-08
1.13561e-08
1.13196e-08
1.13148e-08
1.1335e-08
1.13656e-08
1.14077e-08
1.1476e-08
1.15766e-08
1.16953e-08
1.18035e-08
1.18798e-08
1.19278e-08
1.19787e-08
1.20713e-08
1.22486e-08
1.25718e-08
1.30879e-08
1.38153e-08
1.47787e-08
1.59476e-08
1.77514e-08
2.01496e-08
2.24131e-08
2.58075e-08
2.96802e-08
3.35174e-08
3.78609e-08
4.09999e-08
4.15574e-08
3.93923e-08
3.48786e-08
2.93968e-08
2.41573e-08
1.98392e-08
1.66533e-08
1.44372e-08
1.29503e-08
1.2025e-08
1.15884e-08
1.16951e-08
1.21445e-08
1.27437e-08
1.33626e-08
1.36279e-08
1.34787e-08
1.29716e-08
1.23418e-08
1.1814e-08
1.13587e-08
1.10405e-08
1.08437e-08
1.06996e-08
1.05286e-08
1.03756e-08
1.02734e-08
1.02182e-08
1.0169e-08
1.01483e-08
1.01422e-08
1.01555e-08
1.01872e-08
1.01902e-08
1.01912e-08
1.01883e-08
1.0175e-08
1.01611e-08
1.01488e-08
1.01345e-08
1.01197e-08
1.01082e-08
1.01004e-08
1.00946e-08
1.00908e-08
1.00886e-08
1.00875e-08
1.0087e-08
1.00871e-08
1.00878e-08
1.00886e-08
1.00896e-08
1.00905e-08
1.00914e-08
1.00923e-08
1.00933e-08
1.00943e-08
1.00951e-08
1.00959e-08
1.00968e-08
1.00979e-08
1.00992e-08
1.01003e-08
1.01011e-08
1.01018e-08
1.01029e-08
1.01041e-08
1.01053e-08
1.01062e-08
1.01071e-08
1.0108e-08
1.01092e-08
1.01101e-08
1.01108e-08
1.01115e-08
1.01123e-08
1.01129e-08
1.01132e-08
1.01133e-08
1.01138e-08
1.01143e-08
1.01141e-08
1.01135e-08
1.01131e-08
1.01131e-08
1.0113e-08
1.01123e-08
1.0111e-08
1.01098e-08
1.01088e-08
1.01078e-08
1.01065e-08
1.01051e-08
1.01037e-08
1.01022e-08
1.01e-08
1.00972e-08
1.00947e-08
1.00927e-08
1.00909e-08
1.0089e-08
1.00867e-08
1.00841e-08
1.00814e-08
1.0079e-08
1.00768e-08
1.00748e-08
1.00728e-08
1.00706e-08
1.00682e-08
1.0066e-08
1.00643e-08
1.00629e-08
1.00613e-08
1.00595e-08
1.00578e-08
1.00563e-08
1.00549e-08
1.00537e-08
1.00525e-08
1.00513e-08
1.00502e-08
1.00492e-08
1.00483e-08
1.00474e-08
1.00464e-08
1.00456e-08
1.00449e-08
1.00443e-08
1.00438e-08
1.00432e-08
1.00427e-08
1.00421e-08
1.00416e-08
1.00412e-08
1.00409e-08
1.00406e-08
1.00402e-08
1.00399e-08
1.00396e-08
1.00394e-08
1.00391e-08
1.0039e-08
1.00388e-08
1.00386e-08
1.00384e-08
1.00382e-08
1.00381e-08
1.00379e-08
1.00378e-08
1.00377e-08
1.00376e-08
1.00375e-08
1.00373e-08
1.00372e-08
1.00371e-08
1.00369e-08
1.00368e-08
1.00368e-08
1.00367e-08
1.00366e-08
1.00365e-08
1.00364e-08
1.00363e-08
1.00363e-08
1.00362e-08
1.00361e-08
1.00361e-08
1.0036e-08
1.0036e-08
1.00359e-08
1.00359e-08
1.00358e-08
1.00357e-08
1.00356e-08
1.00356e-08
1.00355e-08
1.00355e-08
1.00354e-08
1.00353e-08
1.00353e-08
1.00352e-08
1.00351e-08
1.00351e-08
1.0035e-08
1.00349e-08
1.00349e-08
1.00348e-08
1.00347e-08
1.00346e-08
1.00345e-08
1.00344e-08
1.00344e-08
1.00343e-08
1.00342e-08
1.00342e-08
1.00341e-08
1.0034e-08
1.00339e-08
1.00339e-08
1.00338e-08
1.00337e-08
1.00337e-08
1.00336e-08
1.00335e-08
1.00334e-08
1.00333e-08
1.00332e-08
1.00332e-08
1.00331e-08
1.0033e-08
1.00329e-08
1.00328e-08
1.00328e-08
1.00327e-08
1.00326e-08
1.00324e-08
1.00323e-08
1.00322e-08
1.00321e-08
1.00321e-08
1.0032e-08
1.00319e-08
1.00318e-08
1.00317e-08
1.00316e-08
1.00316e-08
1.00314e-08
1.00313e-08
1.00312e-08
1.00312e-08
1.00311e-08
1.0031e-08
1.00309e-08
1.00308e-08
1.00306e-08
1.00306e-08
1.00305e-08
1.00304e-08
1.00304e-08
1.00303e-08
1.00302e-08
1.00301e-08
1.003e-08
1.00299e-08
1.00298e-08
1.00297e-08
1.00297e-08
1.00296e-08
1.00295e-08
1.00295e-08
1.00294e-08
1.00293e-08
1.00293e-08
1.00292e-08
1.00291e-08
1.0029e-08
1.0029e-08
1.00289e-08
1.00288e-08
1.00287e-08
1.00286e-08
1.00285e-08
1.00285e-08
1.00284e-08
1.00283e-08
1.00282e-08
1.00282e-08
1.00281e-08
1.0028e-08
1.00279e-08
1.00279e-08
1.00278e-08
1.00278e-08
1.00277e-08
1.00276e-08
1.00275e-08
1.00275e-08
1.00274e-08
1.00274e-08
1.00273e-08
1.00273e-08
1.00272e-08
1.00271e-08
1.0027e-08
1.00269e-08
1.00269e-08
1.00268e-08
1.00267e-08
1.00266e-08
1.00265e-08
1.00265e-08
1.00264e-08
1.00262e-08
1.00262e-08
1.00261e-08
1.00261e-08
1.0026e-08
1.00259e-08
1.00259e-08
1.00259e-08
1.00258e-08
1.00258e-08
1.00257e-08
1.00257e-08
1.00257e-08
1.00256e-08
1.00256e-08
1.00255e-08
1.00254e-08
1.00254e-08
1.00253e-08
1.00252e-08
1.00252e-08
1.00251e-08
1.0025e-08
1.0025e-08
1.00249e-08
1.00248e-08
1.00247e-08
1.00247e-08
1.00246e-08
1.00246e-08
1.00245e-08
1.00247e-08
1.00247e-08
1.00248e-08
1.0025e-08
1.0025e-08
1.0025e-08
1.0025e-08
1.00248e-08
1.00244e-08
1.00242e-08
1.00245e-08
1.00247e-08
1.00247e-08
1.00247e-08
1.00247e-08
1.00247e-08
1.00243e-08
1.00238e-08
1.0024e-08
1.00242e-08
1.00241e-08
1.00241e-08
1.0024e-08
1.00239e-08
1.00238e-08
1.00237e-08
1.00236e-08
1.00235e-08
1.00236e-08
1.00235e-08
1.00234e-08
1.00234e-08
1.00234e-08
1.00233e-08
1.00232e-08
1.00231e-08
1.00229e-08
1.00228e-08
1.00231e-08
1.0023e-08
1.00236e-08
1.0023e-08
1.00222e-08
1.0023e-08
1.00235e-08
1.00261e-08
1.00276e-08
1.00305e-08
1.00307e-08
1.00286e-08
1.00275e-08
1.00271e-08
1.00267e-08
1.00265e-08
1.00263e-08
1.00258e-08
1.00255e-08
1.0025e-08
1.00241e-08
1.00233e-08
1.00226e-08
1.00219e-08
1.00214e-08
1.00209e-08
1.00205e-08
1.00201e-08
1.00198e-08
1.00195e-08
1.00191e-08
1.00189e-08
1.00187e-08
1.00185e-08
1.00185e-08
1.00186e-08
1.00186e-08
1.00186e-08
1.00186e-08
1.00186e-08
1.00186e-08
1.00187e-08
1.00187e-08
1.00188e-08
1.00189e-08
1.00191e-08
1.00192e-08
1.00192e-08
1.00192e-08
1.00192e-08
1.00192e-08
1.00191e-08
1.0019e-08
1.0019e-08
1.00191e-08
1.00192e-08
1.00193e-08
1.00194e-08
1.00195e-08
1.00195e-08
1.00195e-08
1.00195e-08
1.00195e-08
1.00195e-08
1.00195e-08
1.00195e-08
1.00194e-08
1.00194e-08
1.00193e-08
1.00194e-08
1.00195e-08
1.00195e-08
1.00195e-08
1.00194e-08
1.00192e-08
1.0019e-08
1.00188e-08
1.00188e-08
1.00188e-08
1.00189e-08
1.0019e-08
1.00189e-08
1.00188e-08
1.00187e-08
1.00189e-08
1.0019e-08
1.00189e-08
1.00186e-08
1.00185e-08
1.00185e-08
1.00185e-08
1.00184e-08
1.00184e-08
1.00184e-08
1.00187e-08
1.00191e-08
1.002e-08
1.00209e-08
1.00213e-08
1.00165e-08
1.00114e-08
1.00172e-08
1.00281e-08
1.00476e-08
1.00792e-08
1.01264e-08
1.01905e-08
1.02684e-08
1.03509e-08
1.04238e-08
1.04784e-08
1.05251e-08
1.05946e-08
1.07138e-08
1.09145e-08
1.12446e-08
1.17548e-08
1.2433e-08
1.3166e-08
1.38587e-08
1.44212e-08
1.47912e-08
1.49341e-08
1.48501e-08
1.45773e-08
1.4168e-08
1.3684e-08
1.31969e-08
1.27599e-08
1.23892e-08
1.20806e-08
1.18247e-08
1.16153e-08
1.14484e-08
1.13231e-08
1.12373e-08
1.11814e-08
1.11399e-08
1.10967e-08
1.10461e-08
1.09928e-08
1.09398e-08
1.08892e-08
1.08441e-08
1.08046e-08
1.07711e-08
1.0743e-08
1.07184e-08
1.06951e-08
1.06725e-08
1.06513e-08
1.06318e-08
1.06147e-08
1.06004e-08
1.05874e-08
1.05733e-08
1.05562e-08
1.0535e-08
1.05099e-08
1.04836e-08
1.04599e-08
1.0442e-08
1.04318e-08
1.04283e-08
1.04302e-08
1.04388e-08
1.04577e-08
1.04884e-08
1.05286e-08
1.05728e-08
1.06146e-08
1.06512e-08
1.06861e-08
1.07293e-08
1.07922e-08
1.08918e-08
1.10411e-08
1.12496e-08
1.15096e-08
1.1821e-08
1.22355e-08
1.28532e-08
1.37494e-08
1.5332e-08
1.76655e-08
2.01938e-08
2.32061e-08
2.6361e-08
2.84072e-08
2.8977e-08
2.82931e-08
2.62614e-08
2.33818e-08
2.03516e-08
1.76289e-08
1.54767e-08
1.39076e-08
1.28073e-08
1.20431e-08
1.15196e-08
1.11899e-08
1.10224e-08
1.09857e-08
1.09812e-08
1.0982e-08
1.09472e-08
1.08549e-08
1.07482e-08
1.06394e-08
1.055e-08
1.04893e-08
1.04492e-08
1.04435e-08
1.04655e-08
1.04676e-08
1.04012e-08
1.03042e-08
1.02236e-08
1.01769e-08
1.01291e-08
1.00984e-08
1.00821e-08
1.00738e-08
1.00727e-08
1.00728e-08
1.00735e-08
1.00746e-08
1.00748e-08
1.0076e-08
1.00784e-08
1.00779e-08
1.00744e-08
1.00701e-08
1.00659e-08
1.00618e-08
1.00589e-08
1.00569e-08
1.00553e-08
1.0054e-08
1.00532e-08
1.00526e-08
1.00522e-08
1.0052e-08
1.00519e-08
1.00518e-08
1.00518e-08
1.00518e-08
1.00518e-08
1.00518e-08
1.00518e-08
1.00519e-08
1.0052e-08
1.0052e-08
1.00521e-08
1.00522e-08
1.00523e-08
1.00524e-08
1.00525e-08
1.00526e-08
1.00527e-08
1.00528e-08
1.00529e-08
1.00529e-08
1.0053e-08
1.0053e-08
1.0053e-08
1.00529e-08
1.00529e-08
1.00528e-08
1.00527e-08
1.00525e-08
1.00523e-08
1.00522e-08
1.0052e-08
1.00518e-08
1.00515e-08
1.00513e-08
1.0051e-08
1.00508e-08
1.00505e-08
1.00502e-08
1.00499e-08
1.00496e-08
1.00492e-08
1.00488e-08
1.00483e-08
1.0048e-08
1.00476e-08
1.00473e-08
1.00469e-08
1.00465e-08
1.00461e-08
1.00457e-08
1.00453e-08
1.00449e-08
1.00446e-08
1.00443e-08
1.00439e-08
1.00436e-08
1.00433e-08
1.0043e-08
1.00428e-08
1.00425e-08
1.00422e-08
1.0042e-08
1.00417e-08
1.00414e-08
1.00412e-08
1.0041e-08
1.00408e-08
1.00405e-08
1.00403e-08
1.00401e-08
1.00399e-08
1.00398e-08
1.00396e-08
1.00393e-08
1.00392e-08
1.0039e-08
1.00389e-08
1.00387e-08
1.00386e-08
1.00384e-08
1.00383e-08
1.00381e-08
1.0038e-08
1.00379e-08
1.00378e-08
1.00376e-08
1.00375e-08
1.00374e-08
1.00373e-08
1.00372e-08
1.00371e-08
1.0037e-08
1.00369e-08
1.00368e-08
1.00367e-08
1.00366e-08
1.00366e-08
1.00365e-08
1.00364e-08
1.00363e-08
1.00362e-08
1.00361e-08
1.0036e-08
1.00359e-08
1.00358e-08
1.00357e-08
1.00356e-08