/*--------------------------------*- C++ -*----------------------------------*\
| =========                 |                                                 |
| \\      /  F ield         | OpenFOAM: The Open Source CFD Toolbox           |
|  \\    /   O peration     | Version:  v2006                                 |
|   \\  /    A nd           | Website:  www.openfoam.com                      |
|    \\/     M anipulation  |                                                 |
\*---------------------------------------------------------------------------*/
FoamFile
{
    version     2.0;
    format      ascii;
    class       volScalarField;
    location    "5.4";
    object      omega;
}
// * * * * * * * * * * * * * * * * * * * * * * * * * * * * * * * * * * * * * //

dimensions      [0 0 -1 0 0 0 0];


internalField   nonuniform List<scalar> 
33000
(
0.80176
0.801826
0.801894
0.801969
0.802059
0.802169
0.802293
0.802421
0.802544
0.802648
0.802722
0.802784
0.802871
0.803015
0.803212
0.803461
0.803776
0.80417
0.804636
0.805129
0.805594
0.805962
0.806357
0.807382
0.809458
0.812642
0.816147
0.819089
0.82139
0.82307
0.824134
0.824461
0.82454
0.824665
0.824968
0.82538
0.825629
0.825652
0.825633
0.825767
0.826027
0.826091
0.825802
0.825375
0.825188
0.825348
0.825769
0.826146
0.826139
0.825801
0.825437
0.825335
0.825525
0.825774
0.825845
0.825743
0.82562
0.825519
0.825459
0.82536
0.825129
0.824962
0.825066
0.825391
0.825703
0.825756
0.825568
0.82534
0.825161
0.824872
0.824393
0.823739
0.823031
0.8223
0.82157
0.820786
0.819881
0.818879
0.81778
0.816722
0.815934
0.815517
0.81558
0.816026
0.816716
0.81745
0.818062
0.818452
0.818623
0.818642
0.818575
0.818431
0.818276
0.818009
0.817599
0.817027
0.816304
0.815446
0.814516
0.813498
0.812439
0.81192
0.812513
0.812592
0.812312
0.812158
0.81238
0.812703
0.812801
0.812699
0.812623
0.812376
0.812208
0.812146
0.812168
0.811996
0.811777
0.811407
0.811138
0.811056
0.810946
0.811013
0.810926
0.810892
0.811049
0.811167
0.811279
0.811375
0.811424
0.811471
0.811545
0.811608
0.811669
0.811717
0.811762
0.811793
0.811813
0.811833
0.811849
0.811865
0.811877
0.811885
0.811886
0.81188
0.811874
0.811868
0.811856
0.811839
0.81182
0.811803
0.811788
0.811775
0.811756
0.811733
0.811712
0.811692
0.811672
0.811651
0.811628
0.811602
0.811576
0.811549
0.811522
0.811494
0.811468
0.81144
0.81141
0.81138
0.811349
0.811317
0.811282
0.811245
0.811208
0.811172
0.811136
0.811098
0.811062
0.811028
0.810998
0.810971
0.810944
0.81092
0.8109
0.810881
0.810863
0.810847
0.810833
0.810822
0.810811
0.810799
0.810787
0.810775
0.810761
0.810747
0.810729
0.81071
0.81069
0.810668
0.810644
0.81062
0.810598
0.810576
0.810553
0.810527
0.8105
0.810473
0.810447
0.810423
0.810396
0.810369
0.810341
0.810314
0.810286
0.810255
0.810223
0.81019
0.810162
0.810137
0.810114
0.810091
0.810068
0.810043
0.810022
0.810004
0.809989
0.809973
0.809957
0.809941
0.809927
0.809916
0.809907
0.809899
0.809888
0.809875
0.809859
0.809841
0.809823
0.809803
0.809781
0.809756
0.80973
0.809703
0.809673
0.809641
0.809606
0.809572
0.809538
0.809503
0.809463
0.809421
0.809379
0.809338
0.809295
0.809251
0.809205
0.809158
0.809109
0.80906
0.809011
0.808961
0.80891
0.808856
0.808801
0.808747
0.808694
0.808641
0.808586
0.808528
0.808469
0.80841
0.808353
0.808296
0.808239
0.80818
0.808119
0.808057
0.807996
0.807935
0.807872
0.80781
0.807748
0.807687
0.807624
0.807559
0.807494
0.807429
0.807365
0.8073
0.807236
0.80717
0.807103
0.807035
0.806966
0.806898
0.806831
0.806762
0.806691
0.806619
0.806546
0.806471
0.806395
0.806316
0.806234
0.806148
0.806056
0.805954
0.805856
0.805762
0.805673
0.805589
0.805511
0.805439
0.805373
0.805311
0.805255
0.805206
0.805164
0.805127
0.805096
0.805071
0.805053
0.805041
0.805035
0.805035
0.805042
0.805055
0.805073
0.805096
0.805123
0.805152
0.80518
0.805205
0.805227
0.805245
0.805259
0.805271
0.80528
0.805287
0.80529
0.80529
0.805288
0.805283
0.805276
0.805267
0.805256
0.805242
0.805226
0.805209
0.805189
0.805168
0.805145
0.805121
0.805095
0.805068
0.80504
0.80501
0.804979
0.804947
0.804915
0.804881
0.804847
0.804812
0.804776
0.80474
0.804704
0.804666
0.804629
0.804591
0.804553
0.804514
0.804476
0.804437
0.804398
0.804359
0.804319
0.80428
0.804241
0.804202
0.804163
0.804123
0.804084
0.804045
0.804006
0.803968
0.803929
0.80389
0.803852
0.803814
0.803776
0.803738
0.803701
0.803663
0.803626
0.803589
0.803552
0.803516
0.80348
0.803444
0.803408
0.803373
0.803337
0.803302
0.803267
0.803233
0.803198
0.803164
0.803131
0.803097
0.803064
0.803032
0.802999
0.802967
0.802935
0.802903
0.802872
0.802841
0.80281
0.802779
0.802748
0.802717
0.802688
0.802657
0.802628
0.802599
0.802558
0.802524
0.802505
0.802462
0.802459
0.802436
0.802469
0.802466
0.802463
0.802451
0.802439
0.802423
0.802407
0.80239
0.802373
0.802354
0.802336
0.802317
0.802296
0.802276
0.802259
0.802238
0.802224
0.802208
0.802208
0.802199
0.802189
0.802178
0.802165
0.802152
0.802138
0.802125
0.802111
0.802092
0.802075
0.802064
0.802043
0.802034
0.802015
0.801956
0.801932
0.801939
0.801879
0.802
0.802034
0.802423
0.802615
0.802801
0.802935
0.803036
0.803113
0.803172
0.803216
0.803249
0.803274
0.803292
0.803306
0.803317
0.803325
0.80333
0.803334
0.803336
0.803337
0.803336
0.803335
0.803333
0.803331
0.803328
0.803324
0.80332
0.803315
0.80331
0.803305
0.803299
0.803293
0.803287
0.80328
0.803272
0.803264
0.803256
0.803247
0.803238
0.803229
0.80322
0.80321
0.8032
0.803191
0.803181
0.803172
0.803163
0.803153
0.803144
0.803134
0.803125
0.803115
0.803105
0.803095
0.803084
0.803074
0.803064
0.803054
0.803043
0.803033
0.803023
0.803013
0.803002
0.802992
0.802983
0.802973
0.802964
0.802954
0.802945
0.802935
0.802926
0.802917
0.802908
0.802899
0.80289
0.802881
0.802872
0.802864
0.80285
0.802862
0.802786
0.802813
0.802405
0.0111135
0.0192412
0.0341161
0.0605755
0.105675
0.17135
0.257424
0.358847
0.470429
0.581322
0.671004
0.694768
0.673197
0.663431
0.672237
0.690627
0.725071
0.783284
0.866964
0.968943
1.08863
1.20298
1.23586
1.19078
1.15249
1.12782
1.09497
1.02418
0.922478
0.825013
0.738981
0.663737
0.604804
0.563911
0.538763
0.520097
0.500529
0.482283
0.467731
0.457328
0.45125
0.44564
0.435589
0.423729
0.417438
0.414533
0.410439
0.404514
0.396135
0.38764
0.381741
0.378981
0.376123
0.369665
0.360297
0.350842
0.343337
0.337368
0.333168
0.330055
0.325632
0.322149
0.322757
0.326948
0.333076
0.340318
0.347707
0.356527
0.368776
0.382109
0.395648
0.411815
0.434865
0.470056
0.522699
0.599334
0.693262
0.783777
0.837561
0.909148
1.03809
1.14452
1.2208
1.2848
1.31856
1.34766
1.32688
1.2524
1.10583
0.932894
0.730885
0.525792
0.369769
0.26829
0.222404
0.218052
0.250092
0.317849
0.452451
0.633581
0.742284
0.843494
0.961952
1.00341
0.947153
0.759456
0.594181
0.378137
0.257014
0.215072
0.163369
0.137378
0.114487
0.108775
0.116226
0.139719
0.198918
0.236848
0.234085
0.227652
0.234529
0.201681
0.167532
0.144144
0.132783
0.122642
0.116188
0.107587
0.102376
0.0990419
0.0977687
0.0979362
0.0985037
0.0988347
0.099278
0.099947
0.100751
0.101607
0.102554
0.103497
0.104325
0.105035
0.105644
0.106275
0.106957
0.107553
0.108017
0.108521
0.109232
0.110108
0.110905
0.111445
0.111833
0.11234
0.11307
0.11388
0.114567
0.115127
0.115729
0.11639
0.116949
0.117348
0.117782
0.118368
0.11887
0.11907
0.119211
0.119623
0.120048
0.120055
0.119763
0.119634
0.119822
0.119987
0.119626
0.118855
0.118232
0.117895
0.117515
0.116818
0.115898
0.115085
0.114367
0.113071
0.111214
0.109621
0.108514
0.107477
0.106131
0.104414
0.102512
0.100634
0.0990987
0.0975577
0.0959191
0.0941569
0.0920827
0.0898359
0.0878165
0.0863088
0.0849882
0.083332
0.0812149
0.078918
0.0769306
0.0753131
0.0737657
0.072068
0.0701194
0.0681934
0.0666713
0.0653799
0.0637117
0.0616492
0.0597691
0.058315
0.057264
0.0562069
0.05482
0.0531344
0.0514692
0.0501759
0.049238
0.0484632
0.0475279
0.0464177
0.0452977
0.0442545
0.0433925
0.0428012
0.042306
0.0416498
0.0409028
0.0402472
0.0396868
0.0392976
0.0390392
0.0387821
0.0384391
0.0381188
0.0379166
0.0377122
0.0374913
0.0372787
0.0371607
0.0371388
0.0372062
0.0371481
0.0369331
0.0368451
0.0368681
0.0369133
0.0369512
0.0369379
0.0369092
0.0368749
0.0368253
0.0368029
0.036814
0.0368056
0.0367383
0.03665
0.0366037
0.0366296
0.0366775
0.0366733
0.036575
0.0363787
0.0362188
0.0361599
0.0361744
0.0362142
0.0362123
0.0361256
0.0359966
0.0358871
0.035819
0.0357772
0.0357311
0.0356858
0.0356746
0.0356627
0.0355766
0.0354286
0.0352826
0.0351863
0.0351498
0.0351388
0.0350993
0.0349963
0.0348368
0.034682
0.0345917
0.0345574
0.0345192
0.0344374
0.0343147
0.0341778
0.0340608
0.0339775
0.0339005
0.0337874
0.0336291
0.0334765
0.0333597
0.0332432
0.0330697
0.0328537
0.0326877
0.0325594
0.0324177
0.032232
0.0320075
0.0317918
0.0316055
0.0314252
0.0312129
0.0309753
0.0307551
0.0305581
0.0303616
0.0301257
0.0298567
0.0296246
0.0294192
0.0291967
0.0289337
0.0286811
0.0284742
0.0282899
0.0281093
0.0279174
0.0277094
0.0275034
0.0273143
0.0271476
0.0270047
0.0268771
0.026748
0.0266104
0.0264937
0.0264166
0.0263661
0.0263235
0.0262681
0.0261978
0.026147
0.0261353
0.0261519
0.0261592
0.0261472
0.0261565
0.0262021
0.0262641
0.0263131
0.0263464
0.0263991
0.0264746
0.0265423
0.0265886
0.0266403
0.0267072
0.0267781
0.0268482
0.0269008
0.0269427
0.0269933
0.0270531
0.0271139
0.0271663
0.0271976
0.0272066
0.0272146
0.0272322
0.0272444
0.0272447
0.0272475
0.0272537
0.0272629
0.0272571
0.0272187
0.0271636
0.0271149
0.027081
0.0270552
0.0270219
0.0269758
0.0269094
0.0268266
0.0267674
0.0267263
0.0266386
0.026525
0.0264601
0.0263965
0.0263025
0.0262254
0.0261622
0.0260808
0.0259719
0.025852
0.025731
0.0256321
0.0255457
0.0254407
0.0253495
0.0252058
0.0250616
0.0249156
0.0248137
0.024712
0.0246016
0.0245
0.0243333
0.0241917
0.0241717
0.0240239
0.0240507
0.0240298
0.0235685
0.0234487
0.0236344
0.0230695
0.0241392
0.0246062
0.0223626
0.0234986
0.0231309
0.0237904
0.0272188
0.0289502
0.0263909
0.0244938
0.0231201
0.0224451
0.0221991
0.0220878
0.0220484
0.0219388
0.0220673
0.0218178
0.0222068
0.0223799
0.0216289
0.0220996
0.0223501
0.0231805
0.0255038
0.0262739
0.0243893
0.0234576
0.0225709
0.0223014
0.0219051
0.0220343
0.0217086
0.0222563
0.0221537
0.0214154
0.021885
0.0217999
0.021674
0.0277646
0.0287534
0.0235081
0.0331256
0.03805
0.0445066
0.0597552
0.0659287
0.0591616
0.047609
0.0383548
0.0324021
0.0286834
0.0263687
0.0249124
0.0239823
0.0233946
0.0230312
0.0228142
0.0226884
0.0226347
0.0226835
0.0227696
0.0228542
0.0230139
0.0230905
0.023134
0.0231652
0.0233016
0.0233784
0.0234306
0.023472
0.0234806
0.0235034
0.023519
0.0235126
0.0234974
0.0234584
0.0234107
0.0232594
0.0231797
0.023138
0.0230985
0.02309
0.0231084
0.0230965
0.0230973
0.0231166
0.0231455
0.0231803
0.023212
0.0232257
0.0233307
0.0233459
0.0233134
0.0232689
0.0232147
0.023147
0.0230917
0.0230638
0.0230785
0.0231283
0.0231721
0.0231646
0.0230915
0.0230123
0.0230204
0.0231299
0.0232805
0.0233455
0.0232332
0.0230972
0.0231078
0.023242
0.0233008
0.0231358
0.0229521
0.0229428
0.0230159
0.0228606
0.0227208
0.0227198
0.0230132
0.0230457
0.0231964
0.0232014
0.02356
0.019293
0.00567808
0.00916323
0.0156986
0.0275889
0.0483758
0.0789005
0.118942
0.163373
0.204933
0.234724
0.246668
0.238418
0.225784
0.226221
0.240516
0.271486
0.328543
0.420128
0.537069
0.662754
0.782467
0.88037
0.944665
0.95585
0.917726
0.852878
0.763226
0.662019
0.563431
0.479494
0.415984
0.367539
0.32861
0.299412
0.279817
0.267063
0.256437
0.245149
0.233491
0.226834
0.224662
0.220415
0.211726
0.201039
0.193549
0.19053
0.190412
0.189884
0.185961
0.178254
0.170333
0.165528
0.163257
0.160928
0.156346
0.149603
0.143161
0.138311
0.134626
0.131264
0.127624
0.125226
0.125572
0.128784
0.134514
0.140417
0.144873
0.150531
0.157659
0.163879
0.169416
0.176048
0.186663
0.205164
0.234794
0.27458
0.322083
0.384613
0.450099
0.505222
0.577246
0.64323
0.697327
0.7603
0.834351
0.927944
1.00149
1.01952
0.967551
0.877495
0.739239
0.597383
0.468148
0.358823
0.268745
0.201038
0.151354
0.131981
0.153223
0.220771
0.29244
0.360247
0.423493
0.459319
0.453849
0.418803
0.38004
0.333281
0.254236
0.173202
0.113608
0.0726918
0.0558761
0.0344941
0.023885
0.0193953
0.0226485
0.0348556
0.040575
0.0455687
0.0466268
0.0410716
0.0376579
0.0367788
0.0307491
0.024598
0.0204803
0.0180526
0.0162418
0.015145
0.0140447
0.0133395
0.0128765
0.012751
0.0128523
0.0130868
0.0133407
0.01353
0.0136973
0.0138445
0.0139945
0.0141633
0.0143364
0.014508
0.0146696
0.0148001
0.0149103
0.0150435
0.0152216
0.015422
0.015593
0.0157127
0.015816
0.015954
0.0161318
0.0163087
0.0164482
0.0165697
0.0167169
0.0168831
0.0170191
0.0171077
0.0171975
0.017321
0.0174243
0.017458
0.0174794
0.017561
0.0176428
0.0176258
0.0175349
0.0174814
0.0174972
0.0175008
0.0173939
0.0171982
0.0170231
0.016899
0.0167601
0.0165701
0.0163568
0.0161544
0.0159337
0.0155889
0.0151482
0.0147535
0.0144428
0.0141663
0.0138536
0.0134681
0.0130343
0.0125877
0.0121947
0.0118221
0.0114638
0.0111025
0.0106875
0.0102325
0.0098174
0.00949642
0.0092175
0.00889365
0.00850943
0.0081175
0.00777509
0.0074871
0.00721181
0.00692014
0.00661332
0.0063266
0.00609294
0.00587992
0.00562582
0.00534487
0.00509564
0.00489529
0.00473999
0.00459113
0.00441749
0.00421807
0.00402362
0.00387004
0.00375124
0.00365069
0.00354462
0.00342918
0.00331386
0.00320796
0.00311801
0.0030503
0.00299489
0.00293276
0.00286361
0.00280009
0.00274723
0.00271107
0.00268677
0.00266365
0.00263421
0.00260422
0.00258166
0.00256156
0.00254463
0.00252963
0.00252008
0.00251705
0.00252024
0.0025163
0.00250355
0.00249735
0.00249953
0.0025039
0.00250641
0.00250546
0.0025048
0.00250516
0.00250502
0.00250619
0.00250747
0.00250445
0.00249796
0.00249302
0.00249208
0.00249564
0.00250009
0.00249959
0.00249157
0.00247744
0.00246605
0.00246197
0.00246302
0.00246532
0.00246546
0.00246133
0.00245402
0.0024463
0.00244033
0.00243672
0.00243418
0.00243227
0.00243263
0.00243338
0.00242847
0.00241804
0.00240752
0.00240084
0.0023982
0.00239744
0.00239531
0.00238854
0.00237734
0.00236627
0.0023592
0.00235579
0.00235246
0.00234653
0.00233792
0.00232841
0.00231918
0.00231108
0.0023038
0.00229464
0.00228296
0.00227145
0.00226123
0.00225056
0.00223663
0.00222054
0.00220749
0.00219613
0.0021833
0.00216792
0.00215084
0.00213363
0.00211782
0.00210251
0.00208546
0.00206727
0.00204978
0.00203308
0.00201651
0.0019985
0.00197937
0.00196223
0.00194621
0.00192937
0.00191088
0.00189331
0.00187802
0.00186364
0.00184937
0.00183479
0.0018198
0.00180509
0.00179125
0.00177861
0.00176744
0.00175739
0.00174759
0.00173777
0.00172906
0.0017223
0.00171717
0.00171274
0.00170804
0.00170321
0.00169971
0.00169818
0.00169804
0.00169789
0.00169741
0.00169822
0.00170072
0.00170411
0.00170733
0.00171022
0.00171392
0.00171851
0.00172315
0.00172754
0.00173245
0.00173745
0.00174214
0.00174713
0.00175178
0.00175621
0.00176089
0.00176553
0.00177016
0.00177454
0.00177796
0.00178029
0.00178231
0.00178467
0.00178691
0.00178857
0.00179002
0.00179093
0.00179181
0.00179232
0.00179164
0.00178992
0.00178795
0.00178661
0.00178566
0.00178384
0.00178104
0.00177767
0.00177357
0.0017702
0.00176699
0.00176234
0.00175685
0.0017536
0.00174944
0.00174428
0.00173944
0.00173535
0.00173068
0.0017255
0.00171889
0.00171268
0.0017067
0.00170155
0.00169455
0.00169009
0.00168163
0.00167473
0.0016663
0.00165805
0.00165177
0.00164281
0.00164032
0.00162846
0.00162607
0.0016261
0.00160945
0.00161258
0.0016192
0.00159781
0.00163284
0.00165689
0.00157243
0.00163806
0.00162896
0.001571
0.00156561
0.00160706
0.00164534
0.0017468
0.0017727
0.00166393
0.00159166
0.00154662
0.00152848
0.00152278
0.00151531
0.00151934
0.00153208
0.00154372
0.00151343
0.00154512
0.00154921
0.00154006
0.00154599
0.00157632
0.0016001
0.00165565
0.00165996
0.00159953
0.00157424
0.00153891
0.00154567
0.00152382
0.00151524
0.00148352
0.00153534
0.00153574
0.00157397
0.00175254
0.00190997
0.00182639
0.00235302
0.00234016
0.00219987
0.0024541
0.00301908
0.00360678
0.00459063
0.0045675
0.00369208
0.00288266
0.0023487
0.00203161
0.00184342
0.00172815
0.00165436
0.00160536
0.0015731
0.00155228
0.00153923
0.00153163
0.00152859
0.00153002
0.00153311
0.00153669
0.00154281
0.0015469
0.00155041
0.00155418
0.00156146
0.0015668
0.00157092
0.00157425
0.00157655
0.00157776
0.00157849
0.00157875
0.00157863
0.00157754
0.00157595
0.00157144
0.0015692
0.00156771
0.00156646
0.00156528
0.00156459
0.00156468
0.00156498
0.0015661
0.00156792
0.00157013
0.00157169
0.00157274
0.0015758
0.00157583
0.00157482
0.00157328
0.0015711
0.00156832
0.00156564
0.00156412
0.00156476
0.00156732
0.00156988
0.00157026
0.00156823
0.00156662
0.00156825
0.00157376
0.001579
0.00157881
0.00157402
0.00157135
0.0015742
0.0015783
0.0015772
0.00157032
0.00156702
0.00156847
0.0015692
0.00156286
0.00156053
0.00156256
0.00157649
0.00157551
0.0016154
0.00164381
0.0017107
0.00148503
0.00395272
0.00545153
0.00837188
0.013837
0.0235583
0.0379066
0.0571418
0.0792496
0.100701
0.116159
0.122038
0.11748
0.110899
0.11144
0.121166
0.141647
0.175285
0.219808
0.267262
0.314957
0.358512
0.392988
0.416033
0.426228
0.414915
0.373932
0.318236
0.266484
0.229862
0.202068
0.17972
0.161504
0.146398
0.134116
0.124836
0.118851
0.115116
0.111961
0.108647
0.105575
0.102553
0.0985695
0.0931688
0.0873663
0.0826931
0.0803909
0.0802119
0.0798859
0.0777649
0.0737171
0.0694443
0.066607
0.0654483
0.0650795
0.0640776
0.061787
0.0587728
0.0558471
0.0533609
0.0511063
0.0490191
0.0477739
0.0479169
0.0491456
0.0511443
0.0533953
0.056081
0.0600509
0.0647827
0.0689873
0.0725829
0.0763834
0.081882
0.0901698
0.103173
0.121249
0.143284
0.166743
0.192383
0.220933
0.261149
0.310848
0.355812
0.416535
0.480859
0.542301
0.612992
0.67249
0.702216
0.697796
0.653797
0.582484
0.499725
0.415783
0.337386
0.269359
0.211498
0.164414
0.131617
0.113798
0.11001
0.120374
0.145807
0.171024
0.186904
0.191251
0.187604
0.182013
0.171277
0.170358
0.164138
0.148951
0.11449
0.0762451
0.043521
0.031644
0.0177238
0.0107812
0.0076128
0.00677179
0.0078498
0.00824517
0.00833269
0.00824832
0.00769933
0.00826753
0.00943903
0.00858351
0.00713636
0.00606859
0.00522871
0.0046045
0.00417759
0.00372323
0.00340828
0.00326619
0.00319782
0.00318297
0.00322035
0.00325984
0.00327021
0.00327694
0.00328576
0.0033054
0.00333355
0.00335766
0.00337673
0.00339873
0.00342658
0.00345728
0.00348477
0.00350775
0.00353179
0.00356114
0.00359381
0.00362453
0.00364933
0.00367261
0.00370157
0.00373509
0.00376462
0.00378504
0.00380208
0.0038217
0.00383809
0.00384545
0.00385163
0.00386506
0.00387693
0.00387301
0.00385529
0.00384159
0.00383873
0.00383405
0.00381338
0.00377747
0.00373908
0.00370556
0.00367298
0.00363699
0.00359683
0.00355248
0.00350005
0.00343146
0.00335344
0.00328052
0.00321714
0.00316009
0.00309935
0.00302985
0.0029546
0.00287522
0.00280024
0.00272913
0.00266296
0.00260111
0.00253615
0.00246491
0.0023954
0.00233622
0.00228525
0.00223392
0.00217773
0.00212028
0.00206597
0.00201726
0.00197277
0.00192956
0.00188742
0.00184726
0.00180974
0.00177439
0.00173897
0.00170274
0.00166918
0.00163987
0.00161412
0.00158965
0.0015655
0.0015411
0.00151765
0.0014963
0.00147641
0.0014583
0.00144227
0.00142784
0.00141405
0.0014001
0.00138634
0.00137392
0.00136318
0.001354
0.00134531
0.00133622
0.00132791
0.00132123
0.00131528
0.00130938
0.00130387
0.00129897
0.001295
0.0012916
0.00128804
0.00128428
0.00128096
0.00127845
0.00127692
0.00127583
0.00127444
0.00127274
0.00127126
0.00127012
0.00126924
0.00126853
0.00126814
0.00126778
0.001267
0.00126616
0.00126582
0.00126562
0.00126498
0.00126417
0.00126365
0.00126346
0.00126372
0.00126393
0.00126362
0.00126302
0.00126234
0.00126167
0.00126112
0.00126103
0.00126155
0.00126216
0.00126242
0.00126225
0.00126185
0.00126166
0.00126185
0.00126216
0.00126273
0.00126386
0.00126465
0.00126416
0.00126315
0.00126289
0.00126333
0.00126411
0.00126498
0.00126516
0.00126448
0.00126381
0.00126357
0.00126344
0.00126356
0.0012637
0.00126305
0.0012622
0.00126143
0.00126047
0.00125948
0.00125813
0.00125649
0.00125506
0.00125365
0.00125178
0.00124911
0.00124628
0.00124374
0.00124125
0.00123817
0.00123455
0.00123081
0.00122684
0.001223
0.00121901
0.00121442
0.00120969
0.00120508
0.00120021
0.00119523
0.00119029
0.00118523
0.00118004
0.00117489
0.00116963
0.00116429
0.00115934
0.00115459
0.00114969
0.00114478
0.00114009
0.00113557
0.00113117
0.00112692
0.00112283
0.001119
0.00111542
0.00111196
0.0011086
0.00110547
0.00110253
0.00109982
0.00109735
0.00109501
0.00109285
0.00109096
0.00108931
0.00108778
0.00108639
0.00108509
0.00108393
0.00108303
0.00108238
0.00108186
0.00108134
0.00108085
0.00108045
0.00108022
0.00108017
0.00108021
0.00108018
0.0010801
0.00108015
0.00108036
0.00108059
0.00108069
0.00108074
0.00108091
0.00108117
0.0010814
0.00108153
0.00108156
0.0010816
0.00108174
0.00108187
0.00108183
0.00108169
0.00108161
0.00108158
0.00108151
0.0010813
0.001081
0.00108076
0.00108049
0.00108012
0.00107968
0.0010793
0.0010789
0.00107843
0.00107783
0.00107729
0.00107677
0.00107633
0.00107577
0.00107524
0.00107452
0.00107386
0.00107316
0.00107277
0.0010721
0.00107157
0.00107074
0.0010698
0.00106859
0.00106887
0.00106785
0.00106838
0.00106699
0.00106371
0.00106127
0.0010592
0.00106185
0.00106238
0.00106961
0.00107177
0.00106944
0.00107137
0.0010785
0.00108092
0.00113081
0.00114665
0.00110465
0.00108624
0.00108029
0.00108059
0.00107325
0.00107298
0.0010618
0.0010604
0.00105961
0.00106267
0.0010616
0.00106582
0.00106609
0.00106779
0.00107014
0.00108135
0.00109982
0.00110466
0.00108054
0.00107182
0.00106772
0.00106493
0.00105864
0.00105748
0.00105768
0.00105715
0.00105655
0.0010529
0.00105187
0.00105186
0.00109795
0.00109093
0.00106141
0.00113386
0.00116516
0.00131391
0.00139837
0.00174127
0.00182209
0.00154658
0.00141981
0.00136375
0.00133476
0.00128888
0.00126798
0.00121603
0.00120727
0.00120369
0.00118012
0.00114904
0.00112303
0.00110363
0.00108899
0.00107779
0.00106911
0.00106228
0.00105711
0.00105311
0.00104996
0.00104773
0.00104622
0.00104519
0.00104452
0.00104416
0.001044
0.00104402
0.00104415
0.00104443
0.00104493
0.00104539
0.00104578
0.00104613
0.00104641
0.00104659
0.00104671
0.00104688
0.00104707
0.00104727
0.00104748
0.00104774
0.00104792
0.00104804
0.00104809
0.00104815
0.00104821
0.00104828
0.00104837
0.00104851
0.00104865
0.0010488
0.00104892
0.00104899
0.00104898
0.00104899
0.00104903
0.00104903
0.00104899
0.00104888
0.00104874
0.00104863
0.00104863
0.00104872
0.00104882
0.00104887
0.00104886
0.00104888
0.00104893
0.00104894
0.00104892
0.0010489
0.00104891
0.00104896
0.0010489
0.00104874
0.00104863
0.00104872
0.00104877
0.00104865
0.00104855
0.00104871
0.00104883
0.00104788
0.00105414
0.00105656
0.00109937
0.00113416
0.00120707
0.00111228
0.00326866
0.00395892
0.00541649
0.00829222
0.0135775
0.0214507
0.0323075
0.0454307
0.0590464
0.069514
0.0738709
0.0712484
0.0668885
0.0661174
0.0700094
0.0788315
0.0914333
0.103953
0.11457
0.124009
0.131332
0.135743
0.136693
0.134258
0.128842
0.120912
0.111353
0.101418
0.0923704
0.0847995
0.0785317
0.0730223
0.0678819
0.0630551
0.0587684
0.0561097
0.0552898
0.0549985
0.0541737
0.0527601
0.0508025
0.0482261
0.0453015
0.0420951
0.0393252
0.0379386
0.0376769
0.0374066
0.0362693
0.0341081
0.0317183
0.0303078
0.0301693
0.030483
0.0303508
0.0293457
0.0276461
0.0259308
0.0245841
0.0234462
0.0224469
0.0218326
0.0217891
0.0220866
0.022441
0.0230496
0.0243927
0.0266228
0.0291821
0.0313964
0.033149
0.0349381
0.0372911
0.0410174
0.0467406
0.0554401
0.0656555
0.0769499
0.0879883
0.0997937
0.11344
0.131301
0.154017
0.189636
0.237885
0.288037
0.346681
0.409716
0.456882
0.482192
0.489112
0.471339
0.436225
0.389539
0.338169
0.288449
0.241955
0.199389
0.162859
0.130493
0.103747
0.0850881
0.0732907
0.0672203
0.0657743
0.0682929
0.0696095
0.0714522
0.0726442
0.0778625
0.0829022
0.0887786
0.097736
0.10266
0.0997892
0.082913
0.0621675
0.0376381
0.0272699
0.0153636
0.00877606
0.00554008
0.00397041
0.00369132
0.00372534
0.00375912
0.00386802
0.00392887
0.00474469
0.00605341
0.00589627
0.00513153
0.00448206
0.00393368
0.00330926
0.00297038
0.00276358
0.00249622
0.00231283
0.00218024
0.00209895
0.00207206
0.00206029
0.00204568
0.0020361
0.00202863
0.00202407
0.00202433
0.00202624
0.00202828
0.00203069
0.00203382
0.00203783
0.00204235
0.00204686
0.00205174
0.00205725
0.00206281
0.00206815
0.00207374
0.00207958
0.0020843
0.00208727
0.00208935
0.00209102
0.00209218
0.00209314
0.00209382
0.00209319
0.00209058
0.00208636
0.00208203
0.00207874
0.0020752
0.00206914
0.00206052
0.00205086
0.00204176
0.00203407
0.00202573
0.00201417
0.00200019
0.00198563
0.00197124
0.00195647
0.00194138
0.00192564
0.00190783
0.00188933
0.00187168
0.00185484
0.00183889
0.00182197
0.00180233
0.00178183
0.00176307
0.00174698
0.00173159
0.0017145
0.00169591
0.00167771
0.00166237
0.00164837
0.00163256
0.00161431
0.00159663
0.00158169
0.00156845
0.00155506
0.00153994
0.00152334
0.0015083
0.00149619
0.00148453
0.00147131
0.00145726
0.00144327
0.00143028
0.00141933
0.0014096
0.0013992
0.00138751
0.00137576
0.00136478
0.00135529
0.00134691
0.00133884
0.00133104
0.00132306
0.00131468
0.00130653
0.00129943
0.00129394
0.0012888
0.00128284
0.00127663
0.00127141
0.00126714
0.00126325
0.00125985
0.00125645
0.0012528
0.0012492
0.00124596
0.00124314
0.00124087
0.00123944
0.00123847
0.00123691
0.00123476
0.0012328
0.00123164
0.0012309
0.00122988
0.00122877
0.00122792
0.00122717
0.00122656
0.00122639
0.00122659
0.00122612
0.00122498
0.00122403
0.00122348
0.00122357
0.00122415
0.00122457
0.0012245
0.0012238
0.0012229
0.0012226
0.00122321
0.001224
0.00122414
0.00122412
0.00122454
0.00122493
0.00122487
0.00122474
0.00122516
0.00122622
0.00122729
0.0012279
0.00122762
0.0012271
0.0012274
0.00122863
0.0012296
0.00122972
0.00122948
0.00122938
0.00122981
0.00123041
0.00123054
0.00123039
0.00123021
0.00122971
0.00122952
0.00122955
0.00122896
0.00122795
0.00122683
0.00122575
0.00122492
0.00122364
0.00122193
0.00122001
0.0012179
0.00121569
0.00121334
0.00121084
0.00120789
0.00120485
0.00120179
0.00119835
0.00119457
0.00119068
0.00118688
0.00118313
0.00117896
0.00117444
0.00116985
0.00116538
0.00116107
0.00115676
0.0011521
0.00114719
0.00114254
0.00113823
0.00113397
0.00112958
0.0011252
0.00112103
0.00111704
0.00111319
0.00110938
0.00110572
0.0011023
0.00109902
0.00109586
0.00109295
0.0010902
0.00108755
0.00108509
0.0010828
0.00108069
0.00107877
0.00107704
0.00107543
0.00107391
0.0010725
0.00107125
0.00107018
0.0010693
0.00106852
0.00106779
0.00106711
0.00106652
0.00106602
0.00106564
0.00106537
0.00106509
0.00106482
0.00106463
0.00106454
0.00106446
0.00106433
0.00106423
0.0010642
0.00106418
0.00106417
0.00106414
0.00106409
0.00106402
0.00106398
0.00106394
0.00106383
0.00106371
0.00106359
0.00106345
0.00106328
0.00106306
0.00106284
0.00106259
0.0010623
0.00106199
0.00106168
0.0010613
0.00106095
0.00106048
0.00106015
0.00105973
0.0010594
0.00105891
0.00105854
0.00105804
0.00105783
0.00105733
0.00105702
0.00105641
0.00105574
0.00105489
0.00105527
0.00105466
0.00105535
0.00105457
0.00105141
0.00104917
0.00105206
0.00105338
0.00105206
0.00105872
0.00106106
0.00105886
0.00106059
0.00106718
0.00107251
0.00112554
0.00114464
0.00110124
0.00108151
0.00107387
0.00107239
0.00106352
0.00106148
0.00104984
0.001047
0.00104523
0.00105178
0.00105398
0.00105849
0.00105938
0.00106477
0.00106797
0.00109778
0.00110395
0.0010866
0.00107071
0.00106414
0.00106134
0.00105761
0.00104949
0.00104737
0.00104678
0.00104492
0.00104534
0.00104238
0.00103785
0.00104029
0.00108848
0.00109022
0.00113482
0.00114992
0.00125458
0.00135333
0.00150098
0.00180596
0.00188445
0.00159467
0.00145034
0.0013758
0.00132458
0.00124291
0.00118941
0.00112581
0.00108489
0.00108152
0.00108859
0.00109228
0.0010926
0.00108996
0.00108469
0.00107839
0.00107203
0.00106592
0.0010603
0.00105527
0.00105086
0.00104725
0.00104422
0.00104164
0.0010396
0.00103806
0.00103692
0.00103613
0.00103549
0.001035
0.00103468
0.00103456
0.00103461
0.00103464
0.00103468
0.00103478
0.00103489
0.001035
0.00103513
0.00103529
0.00103542
0.00103556
0.00103573
0.00103592
0.0010361
0.00103626
0.00103639
0.00103649
0.00103658
0.00103665
0.00103671
0.00103679
0.00103685
0.00103692
0.00103697
0.001037
0.00103702
0.00103702
0.00103704
0.00103707
0.00103709
0.00103709
0.00103706
0.001037
0.00103696
0.00103695
0.00103696
0.00103696
0.00103694
0.00103691
0.00103687
0.00103682
0.00103676
0.00103674
0.00103678
0.00103679
0.00103666
0.00103649
0.0010365
0.00103668
0.00103673
0.00103647
0.00103636
0.00103665
0.0010368
0.00103648
0.00103563
0.00104227
0.00104463
0.00108761
0.00112296
0.00119617
0.00110458
0.00299918
0.00334654
0.00418912
0.00596715
0.00935771
0.0144052
0.0214414
0.0300955
0.0392898
0.0465001
0.0494359
0.0474454
0.0443501
0.0437476
0.0460748
0.0509073
0.0560946
0.0588411
0.0595341
0.0597409
0.0595082
0.05901
0.0582052
0.0570361
0.0553787
0.0530698
0.0501399
0.0470176
0.0442671
0.0422012
0.0405427
0.0388039
0.0369012
0.0346609
0.0322743
0.0306134
0.0298627
0.0294012
0.0288907
0.0283476
0.0276417
0.0264683
0.024853
0.0230868
0.0216309
0.0210458
0.0211016
0.0210469
0.0204545
0.0193425
0.0181066
0.0172961
0.0171177
0.0174183
0.0177417
0.0175293
0.016702
0.0156266
0.0147202
0.0140564
0.0136147
0.0134773
0.0135674
0.0136639
0.0135716
0.0135953
0.0141857
0.0153165
0.0165934
0.0176255
0.0182767
0.0188197
0.0195892
0.0209395
0.0231563
0.0269987
0.0326018
0.0386491
0.044022
0.049039
0.0546854
0.061457
0.0707566
0.0841492
0.104339
0.130237
0.162641
0.205127
0.250758
0.285009
0.31362
0.324886
0.321419
0.308736
0.28637
0.259587
0.231588
0.203559
0.177204
0.151487
0.127302
0.106024
0.0862962
0.0694663
0.0561469
0.0454879
0.037293
0.0312697
0.0279053
0.0283237
0.031558
0.0375645
0.0465086
0.0547398
0.0624526
0.0705791
0.0752385
0.0743214
0.0643997
0.051857
0.0349879
0.0257157
0.0150153
0.00875139
0.00549076
0.00379562
0.0033619
0.00330175
0.00330074
0.00344497
0.00355379
0.00448529
0.0058317
0.0060176
0.00532522
0.00461772
0.00411074
0.0036398
0.00323713
0.00290959
0.00252423
0.00225885
0.00208724
0.00199187
0.00195803
0.00194171
0.00192191
0.00190512
0.00189207
0.00188538
0.00188453
0.00188493
0.00188397
0.00188233
0.00188135
0.00188236
0.00188528
0.00188857
0.0018901
0.00189015
0.00189039
0.00189103
0.00189138
0.00189164
0.00189171
0.00189086
0.00188896
0.00188643