/*--------------------------------*- C++ -*----------------------------------*\
| =========                 |                                                 |
| \\      /  F ield         | OpenFOAM: The Open Source CFD Toolbox           |
|  \\    /   O peration     | Version:  v2006                                 |
|   \\  /    A nd           | Website:  www.openfoam.com                      |
|    \\/     M anipulation  |                                                 |
\*---------------------------------------------------------------------------*/
FoamFile
{
    version     2.0;
    format      ascii;
    class       volScalarField;
    location    "5.4";
    object      p;
}
// * * * * * * * * * * * * * * * * * * * * * * * * * * * * * * * * * * * * * //

dimensions      [1 -1 -2 0 0 0 0];


internalField   nonuniform List<scalar> 
33000
(
7393.77
7405.77
7411.91
7418.69
7425.65
7432.71
7439.95
7447.28
7454.76
7462.41
7470.32
7478.55
7486.87
7494.94
7502.7
7510.19
7517.33
7524.1
7530.64
7537.16
7543.93
7551.27
7559.5
7568.27
7577.3
7586.18
7594.73
7603.11
7611.46
7619.83
7628.24
7636.67
7645.14
7653.61
7662.08
7670.56
7679.05
7687.54
7696.06
7704.57
7713.08
7721.61
7730.15
7738.69
7747.21
7755.68
7764.11
7772.5
7780.9
7789.3
7797.69
7806.03
7814.32
7822.54
7830.71
7838.88
7847.03
7855.13
7863.19
7871.2
7879.15
7887.03
7894.83
7902.55
7910.19
7917.77
7925.29
7932.74
7940.08
7947.32
7954.47
7961.51
7968.42
7975.14
7981.64
7987.84
7993.68
7998.89
8003.25
8012.36
8021.17
8027.89
8036.2
8043.61
8051.21
8059.19
8067.24
8075
8082.79
8090.36
8098.27
8105.98
8113.96
8121.86
8129.82
8137.77
8145.8
8153.73
8161.71
8169.28
8176.02
8182.98
8190.14
8197.4
8204.8
8212.08
8219.1
8226.37
8233.58
8241.06
8248.14
8255.56
8262.59
8269.8
8276.66
8283.74
8290.37
8297.4
8304.4
8311.46
8318.44
8325.3
8332.08
8338.8
8345.36
8351.91
8358.33
8364.75
8371.04
8377.34
8383.49
8389.61
8395.54
8401.43
8407.12
8412.7
8418.1
8423.31
8428.34
8433.14
8437.72
8442.04
8446.12
8449.92
8453.44
8456.65
8459.57
8462.17
8464.44
8466.37
8467.93
8469.13
8469.96
8470.42
8470.49
8470.15
8469.41
8468.25
8466.68
8464.68
8462.27
8459.43
8456.17
8452.48
8448.36
8443.81
8438.86
8433.5
8427.73
8421.56
8415.02
8408.11
8400.83
8393.2
8385.24
8376.98
8368.42
8359.57
8350.46
8341.11
8331.54
8321.76
8311.81
8301.7
8291.46
8281.1
8270.64
8260.1
8249.52
8238.92
8228.3
8217.71
8207.13
8196.61
8186.17
8175.81
8165.56
8155.43
8145.42
8135.55
8125.84
8116.29
8106.92
8097.73
8088.72
8079.89
8071.25
8062.8
8054.55
8046.48
8038.6
8030.9
8023.39
8016.06
8008.91
8001.92
7995.09
7988.42
7981.91
7975.55
7969.33
7963.25
7957.3
7951.47
7945.77
7940.18
7934.71
7929.35
7924.09
7918.93
7913.87
7908.91
7904.04
7899.27
7894.61
7890.05
7885.6
7881.26
7877.04
7872.94
7868.96
7865.1
7861.36
7857.74
7854.24
7850.86
7847.59
7844.45
7841.42
7838.52
7835.72
7833.04
7830.48
7828.02
7825.67
7823.43
7821.3
7819.26
7817.32
7815.48
7813.73
7812.06
7810.49
7808.99
7807.58
7806.24
7804.99
7803.81
7802.69
7801.65
7800.66
7799.74
7798.88
7798.08
7797.33
7796.63
7795.98
7795.38
7794.82
7794.29
7793.81
7793.35
7792.93
7792.55
7792.19
7791.86
7791.55
7791.26
7790.99
7790.75
7790.53
7790.32
7790.13
7789.95
7789.78
7789.63
7789.49
7789.36
7789.25
7789.14
7789.05
7788.96
7788.89
7788.82
7788.77
7788.73
7788.69
7788.68
7788.67
7788.68
7788.7
7788.73
7788.78
7788.85
7788.94
7789.05
7789.17
7789.32
7789.49
7789.68
7789.9
7790.15
7790.42
7790.72
7791.05
7791.41
7791.8
7792.22
7792.67
7793.15
7793.66
7794.19
7794.76
7795.34
7795.95
7796.58
7797.23
7797.89
7798.56
7799.25
7799.94
7800.64
7801.35
7802.06
7802.78
7803.49
7804.21
7804.92
7805.62
7806.33
7807.02
7807.71
7808.39
7809.06
7809.71
7810.36
7810.99
7811.61
7812.21
7812.79
7813.36
7813.92
7814.45
7814.97
7815.47
7815.95
7816.41
7816.86
7817.28
7817.69
7818.07
7818.44
7818.79
7819.12
7819.43
7819.72
7819.99
7820.24
7820.48
7820.7
7820.9
7821.09
7821.25
7821.4
7821.54
7821.66
7821.76
7821.85
7821.92
7821.98
7822.03
7822.06
7822.07
7822.08
7822.07
7822.05
7822.02
7821.98
7821.92
7821.86
7821.79
7821.71
7821.62
7821.51
7821.41
7821.29
7821.17
7821.03
7820.89
7820.74
7820.59
7820.43
7820.26
7820.09
7819.91
7819.72
7819.53
7819.33
7819.13
7818.93
7818.72
7818.51
7818.3
7818.07
7817.86
7817.67
7817.45
7817.22
7817.05
7816.73
7816.56
7816.48
7816.28
7816.13
7815.92
7815.73
7815.51
7815.29
7815.07
7814.82
7814.59
7814.33
7814.09
7813.86
7813.62
7813.36
7813.15
7812.81
7812.6
7812.5
7812.27
7812.1
7811.86
7811.65
7811.39
7811.15
7810.88
7810.63
7810.35
7810.09
7809.81
7809.53
7809.23
7808.98
7808.7
7808.42
7808.17
7807.86
7807.48
7807.35
7807.18
7806.95
7806.71
7806.46
7806.2
7805.93
7805.66
7805.38
7805.1
7804.81
7804.51
7804.22
7803.92
7803.61
7803.3
7802.99
7802.68
7802.36
7802.04
7801.71
7801.39
7801.06
7800.72
7800.39
7800.05
7799.71
7799.37
7799.02
7798.68
7798.33
7797.97
7797.62
7797.26
7796.9
7796.54
7796.18
7795.81
7795.45
7795.08
7794.71
7794.33
7793.96
7793.58
7793.2
7792.82
7792.44
7792.05
7791.67
7791.28
7790.89
7790.5
7790.11
7789.71
7789.31
7788.92
7788.52
7788.12
7787.71
7787.31
7786.9
7786.5
7786.09
7785.68
7785.26
7784.85
7784.44
7784.02
7783.6
7783.18
7782.76
7782.34
7781.92
7781.49
7781.07
7780.64
7780.21
7779.79
7779.31
7779
7778.29
7197.23
7209.26
7215.4
7222.1
7229.07
7236.19
7243.41
7250.69
7258.11
7265.68
7273.43
7281.38
7289.34
7297.15
7304.77
7312.14
7319.19
7325.96
7332.58
7339.16
7345.98
7353.35
7361.49
7370.6
7380.24
7389.45
7398.26
7406.78
7415.21
7423.61
7432.02
7440.45
7448.91
7457.38
7465.87
7474.36
7482.86
7491.36
7499.87
7508.4
7516.93
7525.47
7534.01
7542.53
7551.04
7559.52
7567.98
7576.4
7584.8
7593.19
7601.55
7609.89
7618.2
7626.46
7634.57
7642.76
7650.91
7659.02
7667.09
7675.1
7683.06
7690.95
7698.77
7706.51
7714.19
7721.81
7729.35
7736.8
7744.16
7751.42
7758.6
7765.67
7772.65
7779.5
7786.23
7792.85
7799.39
7805.82
7812.13
7818.37
7823.93
7828.56
7838.37
7847.87
7855.57
7863.51
7871.22
7878.46
7885.79
7893.8
7901.84
7909.57
7917.74
7925.47
7933.57
7941.31
7949.47
7957.16
7965.27
7972.47
7980.04
7986.64
7994.43
8001.15
8008.06
8015.21
8022.92
8030.12
8037.69
8044.96
8052.08
8059.34
8066.56
8073.7
8080.74
8087.79
8094.7
8101.6
8108.52
8115.39
8122.33
8129.07
8135.92
8142.64
8149.33
8155.81
8162.3
8168.65
8175.03
8181.27
8187.47
8193.54
8199.52
8205.39
8211.12
8216.7
8222.13
8227.35
8232.4
8237.21
8241.82
8246.17
8250.27
8254.1
8257.65
8260.89
8263.83
8266.45
8268.74
8270.68
8272.26
8273.48
8274.33
8274.8
8274.88
8274.55
8273.82
8272.68
8271.13
8269.15
8266.73
8263.9
8260.63
8256.94
8252.82
8248.28
8243.33
8237.96
8232.19
8226.01
8219.46
8212.54
8205.25
8197.61
8189.65
8181.37
8172.79
8163.93
8154.8
8145.44
8135.85
8126.05
8116.08
8105.95
8095.68
8085.3
8074.82
8064.27
8053.66
8043.03
8032.4
8021.78
8011.19
8000.66
7990.19
7979.8
7969.53
7959.37
7949.35
7939.46
7929.73
7920.17
7910.78
7901.56
7892.53
7883.68
7875.03
7866.57
7858.3
7850.21
7842.32
7834.61
7827.09
7819.74
7812.58
7805.58
7798.74
7792.06
7785.54
7779.17
7772.95
7766.86
7760.9
7755.07
7749.36
7743.77
7738.29
7732.93
7727.67
7722.51
7717.44
7712.48
7707.61
7702.83
7698.17
7693.6
7689.15
7684.81
7680.6
7676.5
7672.51
7668.66
7664.91
7661.29
7657.79
7654.41
7651.15
7648.01
7644.99
7642.09
7639.3
7636.62
7634.06
7631.61
7629.27
7627.03
7624.9
7622.86
7620.93
7619.09
7617.35
7615.69
7614.12
7612.63
7611.22
7609.89
7608.64
7607.46
7606.35
7605.31
7604.33
7603.42
7602.56
7601.76
7601.02
7600.32
7599.68
7599.08
7598.52
7598
7597.51
7597.07
7596.65
7596.27
7595.91
7595.58
7595.27
7594.99
7594.72
7594.48
7594.26
7594.05
7593.85
7593.68
7593.51
7593.36
7593.22
7593.09
7592.98
7592.87
7592.77
7592.69
7592.61
7592.54
7592.49
7592.44
7592.41
7592.39
7592.38
7592.39
7592.41
7592.44
7592.49
7592.56
7592.64
7592.75
7592.88
7593.02
7593.19
7593.39
7593.61
7593.86
7594.13
7594.43
7594.76
7595.12
7595.51
7595.94
7596.39
7596.87
7597.38
7597.93
7598.49
7599.08
7599.7
7600.33
7600.98
7601.64
7602.32
7603.01
7603.71
7604.41
7605.13
7605.84
7606.56
7607.28
7608
7608.71
7609.42
7610.13
7610.83
7611.52
7612.2
7612.87
7613.53
7614.18
7614.81
7615.43
7616.03
7616.62
7617.2
7617.75
7618.29
7618.81
7619.31
7619.79
7620.25
7620.7
7621.12
7621.53
7621.91
7622.28
7622.63
7622.96
7623.27
7623.56
7623.83
7624.09
7624.32
7624.54
7624.74
7624.93
7625.09
7625.24
7625.38
7625.5
7625.6
7625.69
7625.76
7625.82
7625.86
7625.89
7625.91
7625.91
7625.9
7625.88
7625.85
7625.8
7625.75
7625.69
7625.61
7625.53
7625.44
7625.34
7625.23
7625.11
7624.98
7624.85
7624.71
7624.57
7624.41
7624.25
7624.08
7623.91
7623.72
7623.54
7623.34
7623.15
7622.94
7622.75
7622.52
7622.31
7622.12
7621.91
7621.69
7621.48
7621.16
7620.94
7620.89
7620.67
7620.51
7620.34
7620.14
7619.97
7619.75
7619.57
7619.32
7619.11
7618.86
7618.63
7618.4
7618.17
7617.91
7617.67
7617.31
7617.08
7616.98
7616.74
7616.57
7616.36
7616.15
7615.93
7615.69
7615.47
7615.21
7614.97
7614.7
7614.44
7614.16
7613.87
7613.62
7613.35
7613.08
7612.81
7612.45
7612.04
7611.89
7611.74
7611.49
7611.26
7611.03
7610.79
7610.54
7610.28
7610.02
7609.75
7609.47
7609.19
7608.91
7608.62
7608.32
7608.03
7607.73
7607.42
7607.11
7606.8
7606.48
7606.17
7605.84
7605.52
7605.19
7604.86
7604.53
7604.19
7603.86
7603.52
7603.17
7602.83
7602.48
7602.13
7601.78
7601.42
7601.07
7600.71
7600.35
7599.98
7599.62
7599.25
7598.88
7598.51
7598.14
7597.76
7597.39
7597.01
7596.63
7596.24
7595.86
7595.47
7595.08
7594.69
7594.3
7593.91
7593.52
7593.12
7592.72
7592.32
7591.92
7591.52
7591.11
7590.71
7590.3
7589.89
7589.48
7589.07
7588.65
7588.24
7587.82
7587.41
7586.99
7586.57
7586.14
7585.72
7585.3
7584.87
7584.44
7584.01
7583.59
7583.11
7582.81
7582.09
7000.39
7012.48
7018.61
7025.29
7032.26
7039.37
7046.58
7053.87
7061.26
7068.78
7076.42
7084.14
7091.85
7099.48
7106.97
7114.36
7121.64
7128.88
7136.11
7143.44
7151.05
7159.02
7167.35
7175.92
7184.61
7193.28
7201.87
7210.37
7218.82
7227.25
7235.68
7244.12
7252.58
7261.06
7269.56
7278.09
7286.6
7295.12
7303.65
7312.19
7320.75
7329.31
7337.84
7346.36
7354.86
7363.35
7371.83
7380.29
7388.71
7397.09
7405.45
7413.78
7422.09
7430.36
7438.55
7446.73
7454.88
7462.99
7471.07
7479.09
7487.07
7494.98
7502.83
7510.63
7518.37
7526.03
7533.6
7541.09
7548.48
7555.8
7563.03
7570.16
7577.22
7584.19
7591.07
7597.84
7604.49
7610.98
7617.5
7624.3
7631.36
7638.38
7645.1
7650.97
7655.44
7664.82
7674.9
7683.05
7691.68
7698.24
7705.94
7713.14
7721.28
7729.39
7737.29
7745.34
7753.14
7760.96
7768.67
7776.29
7783.6
7790.85
7797.99
7805.4
7813.09
7820.27
7826.92
7834.05
7840.29
7848.06
7855.63
7863.44
7870.66
7877.84
7884.72
7891.97
7898.78
7905.83
7912.66
7919.6
7926.4
7933.28
7939.98
7946.81
7953.29
7959.96
7966.35
7972.87
7979.12
7985.5
7991.62
7997.87
8003.77
8009.77
8015.46
8021.13
8026.57
8031.83
8036.92
8041.74
8046.38
8050.74
8054.88
8058.73
8062.32
8065.59
8068.57
8071.22
8073.53
8075.5
8077.11
8078.37
8079.26
8079.76
8079.86
8079.55
8078.85
8077.73
8076.2
8074.24
8071.84
8069.01
8065.75
8062.06
8057.95
8053.41
8048.45
8043.08
8037.29
8031.11
8024.54
8017.6
8010.29
8002.64
7994.65
7986.34
7977.73
7968.84
7959.68
7950.28
7940.65
7930.81
7920.81
7910.64
7900.33
7889.9
7879.38
7868.79
7858.14
7847.46
7836.78
7826.12
7815.49
7804.92
7794.41
7783.98
7773.66
7763.46
7753.39
7743.47
7733.7
7724.1
7714.67
7705.41
7696.34
7687.46
7678.78
7670.28
7661.98
7653.86
7645.94
7638.2
7630.65
7623.29
7616.09
7609.07
7602.22
7595.52
7588.98
7582.59
7576.35
7570.25
7564.28
7558.44
7552.72
7547.11
7541.63
7536.25
7530.98
7525.82
7520.75
7515.78
7510.91
7506.13
7501.46
7496.9
7492.44
7488.11
7483.89
7479.79
7475.81
7471.95
7468.21
7464.59
7461.1
7457.72
7454.47
7451.34
7448.33
7445.43
7442.65
7439.98
7437.43
7434.99
7432.65
7430.42
7428.29
7426.27
7424.35
7422.52
7420.78
7419.13
7417.57
7416.09
7414.7
7413.38
7412.14
7410.97
7409.87
7408.83
7407.87
7406.96
7406.12
7405.33
7404.59
7403.9
7403.27
7402.67
7402.12
7401.61
7401.13
7400.69
7400.28
7399.9
7399.55
7399.22
7398.92
7398.64
7398.38
7398.14
7397.91
7397.71
7397.51
7397.34
7397.17
7397.02
7396.88
7396.75
7396.63
7396.52
7396.42
7396.33
7396.25
7396.18
7396.12
7396.08
7396.04
7396.01
7396
7396.01
7396.02
7396.05
7396.1
7396.17
7396.25
7396.36
7396.49
7396.63
7396.81
7397
7397.22
7397.47
7397.75
7398.06
7398.39
7398.76
7399.15
7399.58
7400.04
7400.53
7401.04
7401.59
7402.17
7402.76
7403.38
7404.02
7404.68
7405.35
7406.04
7406.73
7407.44
7408.15
7408.87
7409.6
7410.32
7411.05
7411.78
7412.5
7413.22
7413.93
7414.64
7415.33
7416.02
7416.7
7417.36
7418.02
7418.66
7419.28
7419.89
7420.48
7421.06
7421.61
7422.15
7422.68
7423.18
7423.66
7424.13
7424.57
7425
7425.41
7425.79
7426.16
7426.51
7426.84
7427.15
7427.44
7427.71
7427.97
7428.2
7428.42
7428.62
7428.81
7428.97
7429.12
7429.25
7429.37
7429.47
7429.56
7429.63
7429.69
7429.73
7429.76
7429.77
7429.78
7429.76
7429.74
7429.71
7429.67
7429.61
7429.55
7429.47
7429.39
7429.29
7429.19
7429.08
7428.96
7428.84
7428.7
7428.56
7428.4
7428.25
7428.08
7427.92
7427.74
7427.56
7427.36
7427.17
7426.96
7426.76
7426.58
7426.38
7426.15
7425.95
7425.61
7425.4
7425.34
7425.13
7424.98
7424.77
7424.58
7424.37
7424.2
7423.99
7423.8
7423.57
7423.36
7423.18
7422.94
7422.75
7422.46
7422.25
7421.86
7421.65
7421.54
7421.32
7421.13
7420.91
7420.68
7420.46
7420.25
7420.02
7419.8
7419.56
7419.33
7419.05
7418.8
7418.5
7418.28
7418
7417.74
7417.47
7417.1
7416.68
7416.55
7416.38
7416.13
7415.88
7415.63
7415.37
7415.13
7414.88
7414.63
7414.38
7414.11
7413.85
7413.57
7413.3
7413.02
7412.73
7412.44
7412.14
7411.84
7411.54
7411.24
7410.93
7410.61
7410.3
7409.98
7409.66
7409.33
7409.01
7408.68
7408.34
7408.01
7407.67
7407.33
7406.99
7406.64
7406.29
7405.94
7405.59
7405.23
7404.88
7404.52
7404.16
7403.79
7403.43
7403.06
7402.69
7402.32
7401.95
7401.57
7401.19
7400.82
7400.43
7400.05
7399.67
7399.28
7398.89
7398.5
7398.11
7397.72
7397.32
7396.93
7396.53
7396.13
7395.73
7395.32
7394.92
7394.51
7394.11
7393.7
7393.29
7392.88
7392.46
7392.05
7391.63
7391.21
7390.79
7390.37
7389.95
7389.53
7389.1
7388.68
7388.25
7387.82
7387.4
7386.92
7386.61
7385.9
6803.16
6815.33
6821.47
6828.14
6835.12
6842.22
6849.43
6856.71
6864.09
6871.58
6879.14
6886.74
6894.36
6901.94
6909.46
6916.91
6924.35
6931.85
6939.37
6947
6954.81
6962.86
6971.17
6979.69
6988.27
6996.83
7005.34
7013.82
7022.27
7030.73
7039.19
7047.67
7056.16
7064.66
7073.18
7081.71
7090.26
7098.83
7107.4
7115.97
7124.53
7133.08
7141.62
7150.13
7158.64
7167.15
7175.65
7184.13
7192.57
7200.97
7209.33
7217.67
7225.99
7234.29
7242.54
7250.75
7258.91
7267.03
7275.11
7283.16
7291.16
7299.11
7307.01
7314.86
7322.65
7330.36
7337.98
7345.52
7352.99
7360.36
7367.66
7374.88
7382.02
7389.1
7396.14
7403.11
7410.05
7416.95
7423.79
7430.55
7437.27
7444
7451.02
7458.41
7466.01
7473.26
7480.16
7486.14
7490.1
7498.74
7509.87
7517.98
7525.43
7532.98
7540.52
7548.44
7556.77
7564.39
7572.45
7579.74
7587.55
7594.43
7602.31
7608.98
7616.37
7622.83
7630.54
7638.09
7645.63
7653.66
7660.14
7667.25
7674.2
7681.65
7688.94
7696.15
7702.97
7709.94
7716.95
7723.8
7730.71
7737.53
7744.27
7750.98
7757.66
7764.2
7770.84
7777.1
7783.59
7789.69
7795.98
7802.07
7808.14
7814.06
7819.9
7825.55
7831.05
7836.33
7841.49
7846.4
7851.1
7855.56
7859.74
7863.68
7867.32
7870.67
7873.7
7876.41
7878.78
7880.8
7882.48
7883.79
7884.73
7885.28
7885.42
7885.16
7884.5
7883.42
7881.92
7879.98
7877.61
7874.8
7871.55
7867.87
7863.76
7859.22
7854.26
7848.87
7843.06
7836.87
7830.27
7823.3
7815.97
7808.28
7800.25
7791.9
7783.24
7774.3
7765.1
7755.64
7745.95
7736.06
7725.99
7715.76
7705.39
7694.9
7684.31
7673.65
7662.94
7652.2
7641.45
7630.72
7620.03
7609.38
7598.81
7588.32
7577.93
7567.67
7557.54
7547.55
7537.73
7528.06
7518.57
7509.25
7500.13
7491.21
7482.47
7473.92
7465.57
7457.4
7449.44
7441.67
7434.08
7426.67
7419.44
7412.38
7405.5
7398.78
7392.21
7385.79
7379.52
7373.4
7367.41
7361.55
7355.81
7350.2
7344.69
7339.3
7334.02
7328.85
7323.77
7318.8
7313.92
7309.14
7304.47
7299.91
7295.46
7291.12
7286.91
7282.81
7278.83
7274.97
7271.24
7267.63
7264.15
7260.79
7257.55
7254.43
7251.42
7248.54
7245.77
7243.11
7240.57
7238.14
7235.82
7233.6
7231.49
7229.48
7227.57
7225.75
7224.03
7222.39
7220.85
7219.39
7218.01
7216.71
7215.48
7214.32
7213.24
7212.22
7211.27
7210.38
7209.55
7208.78
7208.05
7207.38
7206.75
7206.16
7205.62
7205.12
7204.66
7204.22
7203.82
7203.45
7203.1
7202.78
7202.49
7202.21
7201.96
7201.72
7201.5
7201.29
7201.1
7200.93
7200.76
7200.61
7200.47
7200.33
7200.21
7200.1
7199.99
7199.9
7199.82
7199.74
7199.68
7199.63
7199.58
7199.55
7199.54
7199.54
7199.55
7199.58
7199.62
7199.69
7199.77
7199.88
7200
7200.15
7200.33
7200.53
7200.75
7201
7201.29
7201.6
7201.94
7202.31
7202.71
7203.15
7203.61
7204.11
7204.64
7205.19
7205.78
7206.38
7207.01
7207.66
7208.33
7209.02
7209.71
7210.42
7211.14
7211.87
7212.6
7213.34
7214.08
7214.81
7215.55
7216.28
7217.01
7217.74
7218.45
7219.16
7219.86
7220.54
7221.22
7221.88
7222.52
7223.15
7223.77
7224.37
7224.95
7225.51
7226.06
7226.58
7227.09
7227.58
7228.05
7228.49
7228.92
7229.33
7229.72
7230.09
7230.44
7230.77
7231.08
7231.37
7231.64
7231.9
7232.13
7232.35
7232.55
7232.73
7232.89
7233.04
7233.17
7233.28
7233.38
7233.47
7233.54
7233.59
7233.63
7233.65
7233.67
7233.67
7233.66
7233.63
7233.6
7233.55
7233.49
7233.42
7233.35
7233.26
7233.16
7233.05
7232.94
7232.82
7232.69
7232.56
7232.41
7232.27
7232.1
7231.96
7231.76
7231.6
7231.39
7231.21
7231.03
7230.85
7230.63
7230.43
7230.09
7229.89
7229.84
7229.63
7229.48
7229.26
7229.07
7228.86
7228.69
7228.48
7228.29
7228.08
7227.87
7227.71
7227.47
7227.3
7227.01
7226.82
7226.43
7226.22
7226.12
7225.9
7225.71
7225.48
7225.25
7225.02
7224.81
7224.58
7224.37
7224.13
7223.9
7223.65
7223.39
7223.17
7222.92
7222.68
7222.41
7222.16
7221.77
7221.35
7221.23
7221.06
7220.8
7220.54
7220.28
7220.02
7219.76
7219.51
7219.26
7219.01
7218.76
7218.5
7218.23
7217.97
7217.69
7217.42
7217.14
7216.85
7216.56
7216.27
7215.97
7215.67
7215.37
7215.06
7214.75
7214.44
7214.12
7213.8
7213.48
7213.16
7212.83
7212.5
7212.16
7211.83
7211.49
7211.15
7210.8
7210.46
7210.11
7209.76
7209.41
7209.05
7208.69
7208.33
7207.97
7207.61
7207.24
7206.88
7206.51
7206.13
7205.76
7205.39
7205.01
7204.63
7204.25
7203.86
7203.48
7203.09
7202.71
7202.32
7201.92
7201.53
7201.14
7200.74
7200.34
7199.94
7199.54
7199.14
7198.73
7198.33
7197.92
7197.51
7197.1
7196.69
7196.27
7195.86
7195.44
7195.02
7194.6
7194.18
7193.76
7193.34
7192.91
7192.49
7192.06
7191.63
7191.21
7190.73
7190.42
7189.71
6605.62
6617.88
6624.01
6630.69
6637.68
6644.78
6652.01
6659.3
6666.69
6674.18
6681.72
6689.18
6696.7
6704.24
6711.77
6719.32
6726.93
6734.64
6742.41
6750.3
6758.33
6766.49
6774.77
6783.16
6791.63
6800.11
6808.58
6817.06
6825.54
6834.02
6842.53
6851.06
6859.58
6868.11
6876.66
6885.23
6893.81
6902.41
6911.03
6919.62
6928.2
6936.77
6945.31
6953.85
6962.38
6970.91
6979.43
6987.93
6996.4
7004.82
7013.2
7021.57
7029.92
7038.25
7046.55
7054.79
7062.98
7071.11
7079.21
7087.29
7095.33
7103.33
7111.28
7119.18
7127.01
7134.77
7142.45
7150.07
7157.62
7165.08
7172.45
7179.75
7187
7194.18
7201.33
7208.46
7215.52
7222.55
7229.52
7236.49
7243.52
7250.56
7257.54
7264.48
7271.28
7278.27
7285.43
7292.65
7299.96
7307.31
7313.73
7317.38
7325.28
7337.4
7345.73
7353.03
7360.71
7367.84
7375.56
7383.89
7391.26
7398.97
7406.36
7413.68
7421.05
7428.45
7435.56
7442.86
7449.68
7456.96
7464.32
7473.09
7480.14
7486.19
7493.06
7499.96
7507.03
7514.25
7521.16
7527.95
7534.83
7541.75
7548.49
7555.28
7562.05
7568.56
7575.26
7581.71
7588.22
7594.73
7600.69
7607.2
7612.9
7619.12
7624.84
7630.7
7636.23
7641.58
7646.83
7651.69
7656.47
7660.92
7665.2
7669.16
7672.9
7676.27
7679.37
7682.13
7684.56
7686.65
7688.4
7689.78
7690.77
7691.37
7691.57
7691.38
7690.77
7689.73
7688.26
7686.36
7684.02
7681.24
7678.01
7674.34
7670.24
7665.7
7660.73
7655.33
7649.51
7643.29
7636.67
7629.66
7622.28
7614.55
7606.46
7598.06
7589.34
7580.34
7571.06
7561.52
7551.76
7541.8
7531.65
7521.33
7510.87
7500.28
7489.6
7478.85
7468.06
7457.23
7446.39
7435.56
7424.77
7414.03
7403.37
7392.8
7382.32
7371.97
7361.75
7351.68
7341.77
7332.03
7322.46
7313.07
7303.88
7294.88
7286.07
7277.45
7269.04
7260.82
7252.8
7244.97
7237.32
7229.86
7222.58
7215.48
7208.55
7201.79
7195.19
7188.73
7182.43
7176.27
7170.26
7164.38
7158.62
7152.98
7147.46
7142.06
7136.76
7131.57
7126.49
7121.51
7116.63
7111.85
7107.18
7102.62
7098.18
7093.85
7089.64
7085.55
7081.58
7077.73
7074.01
7070.41
7066.94
7063.59
7060.37
7057.26
7054.27
7051.4
7048.65
7046.01
7043.49
7041.07
7038.77
7036.57
7034.48
7032.48
7030.59
7028.79
7027.09
7025.47
7023.95
7022.51
7021.15
7019.87
7018.67
7017.54
7016.47
7015.47
7014.54
7013.67
7012.86
7012.1
7011.4
7010.74
7010.12
7009.56
7009.03
7008.54
7008.09
7007.67
7007.28
7006.92
7006.58
7006.27
7005.98
7005.72
7005.47
7005.23
7005.02
7004.81
7004.63
7004.45
7004.28
7004.13
7003.98
7003.85
7003.72
7003.6
7003.5
7003.4
7003.31
7003.23
7003.16
7003.1
7003.05
7003.01
7002.99
7002.98
7002.99
7003.02
7003.06
7003.12
7003.2
7003.31
7003.44
7003.59
7003.76
7003.96
7004.19
7004.45
7004.74
7005.06
7005.41
7005.79
7006.2
7006.65
7007.12
7007.63
7008.17
7008.74
7009.33
7009.95
7010.6
7011.26
7011.94
7012.64
7013.36
7014.08
7014.82
7015.56
7016.31
7017.06
7017.81
7018.57
7019.32
7020.07
7020.81
7021.55
7022.28
7023
7023.71
7024.41
7025.09
7025.76
7026.42
7027.06
7027.68
7028.29
7028.88
7029.45
7030
7030.53
7031.04
7031.53
7032
7032.46
7032.89
7033.3
7033.69
7034.06
7034.41
7034.74
7035.05
7035.34
7035.61
7035.86
7036.09
7036.31
7036.51
7036.69
7036.85
7036.99
7037.12
7037.23
7037.33
7037.41
7037.48
7037.53
7037.57
7037.59
7037.6
7037.6
7037.58
7037.56
7037.52
7037.47
7037.41
7037.34
7037.26
7037.17
7037.07
7036.96
7036.85
7036.72
7036.6
7036.45
7036.32
7036.14
7035.99
7035.8
7035.63
7035.47
7035.29
7035.09
7034.9
7034.57
7034.37
7034.33
7034.12
7033.98
7033.76
7033.57
7033.36
7033.2
7032.98
7032.8
7032.57
7032.38
7032.19
7032
7031.76
7031.56
7031.21
7030.99
7030.94
7030.71
7030.57
7030.31
7030.13
7029.86
7029.66
7029.43
7029.21
7028.99
7028.76
7028.53
7028.28
7028.03
7027.82
7027.58
7027.36
7027.12
7026.82
7026.43
7026.03
7025.92
7025.75
7025.49
7025.23
7024.97
7024.7
7024.44
7024.18
7023.93
7023.67
7023.42
7023.16
7022.9
7022.63
7022.37
7022.1
7021.83
7021.55
7021.27
7020.98
7020.7
7020.41
7020.11
7019.81
7019.51
7019.21
7018.9
7018.59
7018.27
7017.95
7017.63
7017.31
7016.98
7016.65
7016.32
7015.99
7015.65
7015.31
7014.97
7014.63
7014.28
7013.93
7013.58
7013.23
7012.87
7012.52
7012.16
7011.79
7011.43
7011.06
7010.7
7010.33
7009.95
7009.58
7009.2
7008.83
7008.45
7008.07
7007.68
7007.3
7006.91
7006.52
7006.13
7005.74
7005.35
7004.95
7004.55
7004.16
7003.76
7003.35
7002.95
7002.55
7002.14
7001.73
7001.32
7000.91
7000.5
7000.09
6999.67
6999.25
6998.84
6998.42
6998
6997.57
6997.15
6996.73
6996.3
6995.87
6995.44
6995.02
6994.54
6994.24
6993.52
6407.72
6420.08
6426.22
6432.92
6439.91
6447.02
6454.26
6461.56
6468.95
6476.44
6484.01
6491.44
6498.89
6506.41
6513.99
6521.62
6529.37
6537.24
6545.17
6553.19
6561.31
6569.54
6577.87
6586.28
6594.74
6603.2
6611.68
6620.16
6628.66
6637.18
6645.73
6654.3
6662.87
6671.45
6680.04
6688.63
6697.25
6705.88
6714.52
6723.16
6731.77
6740.37
6748.95
6757.52
6766.08
6774.65
6783.2
6791.73
6800.22
6808.67
6817.08
6825.47
6833.86
6842.23
6850.57
6858.86
6867.09
6875.26
6883.39
6891.5
6899.58
6907.63
6915.62
6923.57
6931.45
6939.27
6947.02
6954.71
6962.34
6969.9
6977.36
6984.75
6992.07
6999.35
7006.6
7013.82
7021.02
7028.18
7035.3
7042.38
7049.44
7056.5
7063.58
7070.68
7077.86
7085.07
7092.15
7099.09
7105.89
7112.74
7119.88
7127.18
7134.88
7141.66
7144.88
7151.56
7164.78
7173.2
7180.13
7187.55
7194.7
7201.79
7210.22
7217.16
7225.08
7232.09
7239.63
7246.82
7254.52
7261.88
7269.09
7276.53
7283.12
7290.55
7299.29
7306.05
7311.43
7318.41
7325.14
7332.19
7339.39
7346.25
7352.99
7359.7
7366.51
7373.07
7379.76
7386.36
7392.66
7399.24
7405.43
7411.94
7418.06
7423.84
7429.84
7435.58
7441.08
7446.51
7451.9
7457.05
7461.88
7466.59
7470.83
7474.94
7478.72
7482.24
7485.42
7488.32
7490.81
7493
7494.83
7496.3
7497.37
7498.06
7498.34
7498.23
7497.68
7496.72
7495.3
7493.44
7491.15
7488.4
7485.2
7481.55
7477.45
7472.9
7467.92
7462.5
7456.66
7450.41
7443.75
7436.7
7429.26
7421.46
7413.32
7404.84
7396.04
7386.95
7377.58
7367.95
7358.09
7348.03
7337.78
7327.35
7316.77
7306.07
7295.27
7284.4
7273.49
7262.54
7251.58
7240.63
7229.71
7218.85
7208.07
7197.39
7186.8
7176.34
7166.01
7155.83
7145.82
7135.97
7126.31
7116.83
7107.54
7098.45
7089.55
7080.85
7072.35
7064.06
7055.96
7048.06
7040.35
7032.82
7025.48
7018.33
7011.34
7004.53
6997.88
6991.38
6985.04
6978.85
6972.8
6966.88
6961.1
6955.44
6949.9
6944.48
6939.16
6933.96
6928.87
6923.89
6919.01
6914.24
6909.57
6905.02
6900.59
6896.27
6892.07
6887.99
6884.04
6880.2
6876.5
6872.92
6869.46
6866.13
6862.92
6859.83
6856.87
6854.02
6851.29
6848.67
6846.17
6843.78
6841.5
6839.32
6837.25
6835.28
6833.41
6831.64
6829.96
6828.37
6826.87
6825.46
6824.13
6822.88
6821.7
6820.6
6819.56
6818.59
6817.68
6816.84
6816.04
6815.31
6814.62
6813.99
6813.4
6812.85
6812.34
6811.87
6811.43
6811.03
6810.65
6810.31
6809.98
6809.68
6809.41
6809.15
6808.9
6808.68
6808.46
6808.27
6808.08
6807.9
6807.74
6807.58
6807.43
6807.29
6807.16
6807.04
6806.92
6806.82
6806.72
6806.63
6806.56
6806.49
6806.44
6806.39
6806.36
6806.35
6806.35
6806.37
6806.41
6806.47
6806.55
6806.66
6806.78
6806.94
6807.12
6807.32
6807.56
6807.82
6808.12
6808.45
6808.8
6809.2
6809.62
6810.08
6810.57
6811.09
6811.64
6812.22
6812.83
6813.47
6814.13
6814.81
6815.51
6816.23
6816.96
6817.71
6818.46
6819.23
6819.99
6820.77
6821.54
6822.31
6823.09
6823.85
6824.61
6825.37
6826.12
6826.85
6827.58
6828.29
6828.99
6829.67
6830.34
6830.99
6831.63
6832.24
6832.84
6833.42
6833.97
6834.51
6835.03
6835.53
6836.01
6836.46
6836.9
6837.31
6837.7
6838.07
6838.42
6838.75
6839.06
6839.35
6839.62
6839.87
6840.1
6840.32
6840.51
6840.69
6840.85
6840.99
6841.12
6841.22
6841.32
6841.39
6841.46
6841.5
6841.54
6841.56
6841.57
6841.56
6841.54
6841.5
6841.47
6841.41
6841.35
6841.26
6841.18
6841.08
6840.98
6840.87
6840.76
6840.62
6840.49
6840.33
6840.18
6840.06
6839.89
6839.77
6839.54
6839.39
6839.04
6838.87
6838.84
6838.65
6838.51
6838.3
6838.11
6837.91
6837.75
6837.53
6837.36
6837.13
6836.94
6836.75
6836.56
6836.34
6836.13
6835.79
6835.57
6835.54
6835.3
6835.17
6834.92
6834.74
6834.48
6834.28
6834.06
6833.84
6833.62
6833.39
6833.17
6832.91
6832.66
6832.45
6832.22
6831.97
6831.76
6831.37
6830.99
6830.9
6830.72
6830.48
6830.22
6829.94
6829.68
6829.4
6829.14
6828.89
6828.63
6828.37
6828.11
6827.85
6827.58
6827.32
6827.05
6826.79
6826.52
6826.25
6825.97
6825.69
6825.41
6825.13
6824.84
6824.55
6824.26
6823.96
6823.66
6823.36
6823.05
6822.74
6822.43
6822.11
6821.79
6821.47
6821.15
6820.82
6820.49
6820.16
6819.82
6819.48
6819.14
6818.8
6818.46
6818.11
6817.76
6817.41
6817.06
6816.7
6816.34
6815.98
6815.62
6815.26
6814.89
6814.52
6814.15
6813.78
6813.4
6813.03
6812.65
6812.27
6811.89
6811.5
6811.12
6810.73
6810.34
6809.95
6809.56
6809.17
6808.77
6808.37
6807.98
6807.58
6807.17
6806.77
6806.37
6805.96
6805.55
6805.14
6804.73
6804.32
6803.9
6803.49
6803.07
6802.65
6802.23
6801.81
6801.39
6800.97
6800.54
6800.12
6799.69
6799.26
6798.84
6798.36
6798.05
6797.34
6209.49
6221.95
6228.11
6234.82
6241.83
6248.96
6256.22
6263.53
6270.94
6278.44
6286.02
6293.51
6300.96
6308.52
6316.15
6323.86
6331.73
6339.71
6347.75
6355.87
6364.06
6372.34
6380.71
6389.14
6397.61
6406.1
6414.6
6423.11
6431.63
6440.19
6448.79
6457.4
6466.03
6474.67
6483.3
6491.93
6500.58
6509.24
6517.92
6526.6
6535.27
6543.92
6552.54
6561.15
6569.75
6578.36
6586.97
6595.54
6604.06
6612.55
6620.99
6629.41
6637.83
6646.25
6654.65
6663
6671.29
6679.52
6687.69
6695.82
6703.92
6712
6720.05
6728.05
6735.99
6743.86
6751.68
6759.44
6767.14
6774.78
6782.34
6789.82
6797.22
6804.58
6811.92
6819.24
6826.53
6833.8
6841.04
6848.22
6855.39
6862.54
6869.7
6876.86
6884.02
6891.15
6898.26
6905.32
6912.44
6919.57
6926.58
6933.4
6940.21
6947.35
6954.62
6962.66
6969.71
6972.45
6978.03
6992.25
7000.9
7007.14
7014.54
7021.47
7028.58
7036.79
7044.11
7051.68
7059.2
7066.18
7073.61
7080.72
7088.39
7095.02
7102.5
7108.83
7116.16
7125.38
7131.77
7136.41
7143.41
7149.96
7156.98
7164.2
7171.15
7177.55
7184.44
7190.78
7197.63
7204.06
7210.7
7217.2
7223.48
7229.95
7235.84
7242.15
7247.95
7252.84
7258.45
7262.96
7268.03
7272.71
7277.28
7281.35
7285.34
7288.78
7292.09
7295.02
7297.67
7299.94
7301.89
7303.41
7304.57
7305.34
7305.71
7305.69
7305.22
7304.32
7302.96
7301.15
7298.91
7296.2
7293.05
7289.42
7285.34
7280.79
7275.8
7270.37
7264.52
7258.23
7251.53
7244.41
7236.91
7229.04
7220.82
7212.25
7203.36
7194.16
7184.68
7174.94
7164.96
7154.77
7144.38
7133.81
7123.09
7112.25
7101.3
7090.28
7079.22
7068.12
7057.01
7045.91
7034.84
7023.83
7012.91
7002.08
6991.35
6980.75
6970.28
6959.97
6949.83
6939.86
6930.08
6920.48
6911.07
6901.87
6892.86
6884.06
6875.47
6867.07
6858.89
6850.89
6843.1
6835.5
6828.09
6820.86
6813.81
6806.94
6800.23
6793.69
6787.31
6781.07
6774.98
6769.03
6763.21
6757.53
6751.97
6746.53
6741.21
6736
6730.9
6725.92
6721.04
6716.28
6711.62
6707.09
6702.67
6698.37
6694.19
6690.13
6686.19
6682.38
6678.69
6675.13
6671.7
6668.39
6665.2
6662.14
6659.2
6656.38
6653.67
6651.09
6648.61
6646.25
6643.99
6641.85
6639.81
6637.87
6636.03
6634.29
6632.64
6631.09
6629.62
6628.24
6626.94
6625.72
6624.58
6623.5
6622.5
6621.56
6620.68
6619.87
6619.1
6618.39
6617.74
6617.13
6616.56
6616.04
6615.55
6615.1
6614.69
6614.3
6613.94
6613.61
6613.31
6613.02
6612.75
6612.5
6612.27
6612.05
6611.85
6611.65
6611.47
6611.29
6611.12
6610.96
6610.82
6610.67
6610.54
6610.41
6610.28
6610.17
6610.07
6609.97
6609.89
6609.81
6609.75
6609.7
6609.66
6609.64
6609.64
6609.65
6609.69
6609.74
6609.82
6609.92
6610.05
6610.21
6610.39
6610.6
6610.84
6611.11
6611.42
6611.76
6612.13
6612.53
6612.97
6613.44
6613.95
6614.48
6615.05
6615.65
6616.28
6616.94
6617.62
6618.32
6619.04
6619.78
6620.54
6621.31
6622.09
6622.87
6623.67
6624.46
6625.26
6626.06
6626.85
6627.64
6628.42
6629.2
6629.97
6630.72
6631.46
6632.19
6632.91
6633.61
6634.29
6634.96
6635.6
6636.23
6636.84
6637.43
6637.99
6638.54
6639.06
6639.57
6640.05
6640.51
6640.95
6641.36
6641.76
6642.13
6642.48
6642.81
6643.12
6643.41
6643.68
6643.92
6644.15
6644.36
6644.56
6644.73
6644.88
6645.02
6645.15
6645.25
6645.34
6645.42
6645.47
6645.52