/*--------------------------------*- C++ -*----------------------------------*\
| =========                 |                                                 |
| \\      /  F ield         | OpenFOAM: The Open Source CFD Toolbox           |
|  \\    /   O peration     | Version:  v2006                                 |
|   \\  /    A nd           | Website:  www.openfoam.com                      |
|    \\/     M anipulation  |                                                 |
\*---------------------------------------------------------------------------*/
FoamFile
{
    version     2.0;
    format      ascii;
    class       volScalarField;
    location    "5.4";
    object      p_rgh;
}
// * * * * * * * * * * * * * * * * * * * * * * * * * * * * * * * * * * * * * //

dimensions      [1 -1 -2 0 0 0 0];


internalField   nonuniform List<scalar> 
33000
(
7491.87
7503.87
7510.01
7516.79
7523.75
7530.81
7538.05
7545.38
7552.86
7560.51
7568.42
7576.65
7584.97
7593.04
7600.8
7608.3
7615.43
7622.2
7628.74
7635.26
7642.03
7649.37
7657.6
7666.37
7675.4
7684.27
7692.83
7701.21
7709.54
7717.9
7726.3
7734.76
7743.23
7751.7
7760.18
7768.64
7777.11
7785.63
7794.14
7802.65
7811.12
7819.63
7828.22
7836.79
7845.31
7853.78
7862.17
7870.53
7878.94
7887.38
7895.78
7904.13
7912.41
7920.61
7928.77
7936.97
7945.12
7953.22
7961.28
7969.29
7977.25
7985.13
7992.93
8000.64
8008.24
8015.82
8023.38
8030.83
8038.17
8045.41
8052.56
8059.61
8066.52
8073.24
8079.74
8085.94
8091.77
8096.95
8101.3
8110.41
8119.22
8125.94
8134.28
8141.7
8149.31
8157.29
8165.34
8173.09
8180.88
8188.45
8196.37
8204.08
8212.06
8219.95
8227.9
8235.84
8243.87
8251.82
8259.81
8267.37
8274.1
8281.08
8288.24
8295.5
8302.89
8310.16
8317.18
8324.45
8331.66
8339.14
8346.23
8353.66
8360.68
8367.89
8374.72
8381.81
8388.47
8395.5
8402.5
8409.55
8416.53
8423.38
8430.17
8436.9
8443.46
8450.01
8456.41
8462.83
8469.14
8475.44
8481.58
8487.7
8493.63
8499.53
8505.22
8510.78
8516.18
8521.41
8526.44
8531.23
8535.82
8540.14
8544.22
8548.02
8551.53
8554.73
8557.65
8560.25
8562.54
8564.46
8566.03
8567.21
8568.04
8568.51
8568.58
8568.25
8567.5
8566.34
8564.76
8562.77
8560.37
8557.53
8554.27
8550.58
8546.46
8541.91
8536.96
8531.6
8525.83
8519.66
8513.12
8506.21
8498.93
8491.3
8483.33
8475.07
8466.52
8457.67
8448.56
8439.2
8429.63
8419.86
8409.89
8399.79
8389.55
8379.2
8368.73
8358.19
8347.61
8337.01
8326.4
8315.8
8305.22
8294.7
8284.25
8273.9
8263.66
8253.53
8243.52
8233.65
8223.93
8214.38
8205.01
8195.83
8186.82
8177.99
8169.35
8160.89
8152.64
8144.58
8136.7
8128.99
8121.48
8114.16
8107.01
8100.02
8093.18
8086.51
8080
8073.65
8067.43
8061.35
8055.39
8049.56
8043.86
8038.28
8032.81
8027.45
8022.19
8017.03
8011.96
8007
8002.14
7997.37
7992.7
7988.14
7983.69
7979.36
7975.14
7971.04
7967.06
7963.19
7959.46
7955.84
7952.34
7948.95
7945.68
7942.54
7939.52
7936.61
7933.82
7931.14
7928.57
7926.11
7923.77
7921.53
7919.4
7917.36
7915.42
7913.57
7911.82
7910.16
7908.59
7907.09
7905.68
7904.34
7903.08
7901.91
7900.79
7899.75
7898.76
7897.84
7896.98
7896.18
7895.43
7894.73
7894.08
7893.48
7892.92
7892.39
7891.9
7891.45
7891.03
7890.65
7890.29
7889.96
7889.65
7889.36
7889.09
7888.85
7888.63
7888.42
7888.23
7888.05
7887.88
7887.73
7887.59
7887.46
7887.35
7887.24
7887.15
7887.06
7886.99
7886.92
7886.87
7886.82
7886.79
7886.78
7886.77
7886.78
7886.8
7886.83
7886.88
7886.95
7887.04
7887.15
7887.27
7887.42
7887.59
7887.78
7888
7888.25
7888.52
7888.82
7889.15
7889.51
7889.9
7890.32
7890.77
7891.25
7891.76
7892.29
7892.86
7893.44
7894.05
7894.68
7895.33
7895.99
7896.66
7897.35
7898.04
7898.74
7899.45
7900.16
7900.88
7901.59
7902.31
7903.02
7903.72
7904.43
7905.12
7905.81
7906.49
7907.16
7907.81
7908.46
7909.09
7909.71
7910.31
7910.89
7911.46
7912.02
7912.55
7913.07
7913.57
7914.05
7914.51
7914.96
7915.38
7915.79
7916.17
7916.54
7916.89
7917.22
7917.53
7917.82
7918.09
7918.34
7918.58
7918.8
7919
7919.19
7919.35
7919.5
7919.64
7919.76
7919.86
7919.95
7920.02
7920.08
7920.13
7920.16
7920.17
7920.18
7920.17
7920.15
7920.12
7920.08
7920.02
7919.96
7919.89
7919.81
7919.72
7919.61
7919.51
7919.39
7919.27
7919.13
7918.99
7918.84
7918.69
7918.53
7918.36
7918.19
7918.01
7917.82
7917.63
7917.43
7917.23
7917.03
7916.82
7916.61
7916.4
7916.17
7915.96
7915.77
7915.55
7915.32
7915.15
7914.83
7914.66
7914.58
7914.38
7914.23
7914.02
7913.83
7913.61
7913.39
7913.17
7912.92
7912.69
7912.43
7912.19
7911.96
7911.72
7911.46
7911.25
7910.91
7910.7
7910.6
7910.37
7910.2
7909.96
7909.75
7909.49
7909.25
7908.98
7908.73
7908.45
7908.19
7907.91
7907.63
7907.33
7907.08
7906.8
7906.52
7906.27
7905.96
7905.58
7905.45
7905.27
7905.04
7904.8
7904.55
7904.3
7904.03
7903.76
7903.48
7903.19
7902.91
7902.61
7902.32
7902.01
7901.71
7901.4
7901.09
7900.78
7900.46
7900.14
7899.81
7899.49
7899.16
7898.82
7898.49
7898.15
7897.81
7897.47
7897.12
7896.77
7896.42
7896.07
7895.72
7895.36
7895
7894.64
7894.28
7893.91
7893.55
7893.18
7892.81
7892.43
7892.06
7891.68
7891.3
7890.92
7890.54
7890.15
7889.77
7889.38
7888.99
7888.6
7888.21
7887.81
7887.41
7887.02
7886.62
7886.22
7885.81
7885.41
7885
7884.6
7884.19
7883.78
7883.36
7882.95
7882.54
7882.12
7881.7
7881.28
7880.86
7880.44
7880.02
7879.59
7879.17
7878.74
7878.31
7877.89
7877.41
7877.1
7876.39
7491.52
7503.56
7509.7
7516.4
7523.37
7530.49
7537.71
7545
7552.42
7559.98
7567.73
7575.69
7583.65
7591.46
7599.07
7606.45
7613.5
7620.27
7626.89
7633.47
7640.28
7647.65
7655.78
7664.89
7674.53
7683.74
7692.56
7701.08
7709.47
7717.8
7726.21
7734.71
7743.2
7751.67
7760.13
7768.54
7777.04
7785.54
7794.11
7802.62
7811.02
7819.55
7828.09
7836.76
7845.33
7853.82
7862.21
7870.47
7878.87
7887.27
7895.78
7904.19
7912.49
7920.68
7928.73
7936.92
7945.15
7953.28
7961.35
7969.37
7977.32
7985.24
7993.06
8000.78
8008.32
8015.91
8023.47
8031.04
8038.32
8045.53
8052.71
8059.9
8066.94
8073.8
8080.53
8087.13
8093.56
8099.98
8106.29
8112.54
8118.18
8122.85
8132.66
8142.17
8149.87
8157.81
8165.52
8172.76
8180.08
8187.98
8196.02
8203.84
8212.04
8219.76
8227.79
8235.51
8243.69
8251.43
8259.57
8266.74
8274.29
8280.89
8288.71
8295.44
8302.36
8309.47
8317.15
8324.34
8331.92
8339.22
8346.37
8353.62
8360.84
8367.97
8374.94
8381.99
8388.9
8395.82
8402.8
8409.68
8416.59
8423.31
8430.18
8436.93
8443.61
8450.05
8456.51
8462.87
8469.25
8475.53
8481.76
8487.81
8493.77
8499.66
8505.4
8510.95
8516.38
8521.59
8526.66
8531.5
8536.11
8540.44
8544.53
8548.38
8551.92
8555.12
8558.06
8560.68
8562.98
8564.96
8566.54
8567.72
8568.55
8569.03
8569.15
8568.84
8568.11
8566.95
8565.38
8563.4
8560.99
8558.18
8554.93
8551.24
8547.11
8542.55
8537.61
8532.26
8526.48
8520.27
8513.73
8506.83
8499.55
8491.89
8483.9
8475.64
8467.08
8458.22
8449.06
8439.7
8430.12
8420.33
8410.34
8400.19
8389.95
8379.6
8369.11
8358.53
8347.93
8337.31
8326.69
8316.07
8305.47
8294.91
8284.44
8274.06
8263.8
8253.67
8243.64
8233.74
8224
8214.43
8205.04
8195.85
8186.83
8177.97
8169.3
8160.84
8152.58
8144.51
8136.61
8128.88
8121.36
8114.02
8106.87
8099.87
8093.01
8086.33
8079.81
8073.46
8067.24
8061.15
8055.18
8049.34
8043.63
8038.04
8032.58
8027.22
8021.96
8016.79
8011.72
8006.75
8001.88
7997.11
7992.46
7987.9
7983.44
7979.1
7974.88
7970.78
7966.79
7962.93
7959.2
7955.59
7952.09
7948.7
7945.43
7942.29
7939.29
7936.38
7933.59
7930.91
7928.35
7925.9
7923.55
7921.32
7919.19
7917.16
7915.23
7913.38
7911.64
7909.98
7908.42
7906.92
7905.5
7904.17
7902.92
7901.76
7900.65
7899.61
7898.63
7897.71
7896.85
7896.05
7895.31
7894.62
7893.98
7893.37
7892.82
7892.3
7891.81
7891.36
7890.94
7890.56
7890.21
7889.88
7889.57
7889.28
7889.02
7888.77
7888.55
7888.35
7888.15
7887.98
7887.81
7887.65
7887.51
7887.39
7887.27
7887.17
7887.07
7886.98
7886.9
7886.84
7886.79
7886.74
7886.71
7886.69
7886.68
7886.69
7886.7
7886.74
7886.79
7886.86
7886.94
7887.05
7887.17
7887.32
7887.49
7887.69
7887.91
7888.15
7888.43
7888.73
7889.06
7889.42
7889.81
7890.24
7890.69
7891.17
7891.68
7892.22
7892.79
7893.38
7893.99
7894.63
7895.28
7895.94
7896.62
7897.31
7898.01
7898.71
7899.43
7900.14
7900.86
7901.58
7902.3
7903.01
7903.72
7904.43
7905.13
7905.82
7906.5
7907.17
7907.83
7908.48
7909.11
7909.73
7910.33
7910.92
7911.5
7912.05
7912.59
7913.11
7913.61
7914.09
7914.55
7915
7915.42
7915.83
7916.21
7916.58
7916.93
7917.26
7917.57
7917.86
7918.13
7918.39
7918.62
7918.84
7919.04
7919.23
7919.39
7919.54
7919.68
7919.79
7919.9
7919.98
7920.06
7920.12
7920.16
7920.19
7920.21
7920.21
7920.2
7920.18
7920.15
7920.1
7920.05
7919.99
7919.91
7919.83
7919.74
7919.64
7919.53
7919.41
7919.28
7919.15
7919.01
7918.87
7918.71
7918.55
7918.38
7918.21
7918.02
7917.84
7917.64
7917.45
7917.24
7917.05
7916.82
7916.61
7916.42
7916.21
7915.99
7915.78
7915.46
7915.24
7915.19
7914.97
7914.81
7914.64
7914.44
7914.27
7914.05
7913.87
7913.62
7913.41
7913.16
7912.93
7912.7
7912.47
7912.2
7911.97
7911.61
7911.37
7911.28
7911.04
7910.87
7910.66
7910.44
7910.23
7909.99
7909.77
7909.51
7909.27
7909
7908.74
7908.46
7908.17
7907.92
7907.65
7907.38
7907.11
7906.75
7906.34
7906.2
7906.04
7905.8
7905.57
7905.35
7905.11
7904.86
7904.6
7904.33
7904.06
7903.79
7903.51
7903.22
7902.93
7902.64
7902.34
7902.03
7901.73
7901.42
7901.11
7900.79
7900.47
7900.15
7899.82
7899.49
7899.16
7898.83
7898.49
7898.16
7897.82
7897.47
7897.13
7896.78
7896.43
7896.08
7895.73
7895.37
7895.01
7894.65
7894.29
7893.92
7893.56
7893.19
7892.81
7892.44
7892.07
7891.69
7891.31
7890.93
7890.54
7890.16
7889.77
7889.38
7888.99
7888.6
7888.21
7887.82
7887.42
7887.02
7886.62
7886.22
7885.82
7885.41
7885.01
7884.6
7884.19
7883.78
7883.37
7882.95
7882.54
7882.12
7881.71
7881.29
7880.87
7880.44
7880.02
7879.6
7879.17
7878.74
7878.31
7877.89
7877.41
7877.11
7876.39
7490.89
7502.99
7509.12
7515.79
7522.77
7529.87
7537.08
7544.37
7551.76
7559.28
7566.92
7574.65
7582.36
7589.98
7597.48
7604.87
7612.15
7619.39
7626.62
7633.95
7641.55
7649.52
7657.84
7666.41
7675.1
7683.78
7692.37
7700.87
7709.31
7717.74
7726.12
7734.46
7742.91
7751.42
7760.03
7768.57
7777.02
7785.3
7793.78
7802.32
7810.88
7819.44
7828.15
7836.81
7845.36
7853.85
7862.28
7870.51
7878.82
7887.38
7895.91
7904.27
7912.58
7920.82
7928.81
7936.96
7945.11
7953.28
7961.51
7969.59
7977.57
7985.48
7993.32
8000.91
8008.55
8016.22
8023.99
8031.34
8038.66
8045.98
8053.2
8060.36
8067.61
8074.68
8081.55
8088.17
8094.75
8101.24
8107.8
8114.74
8121.86
8128.88
8135.6
8141.46
8145.93
8155.32
8165.4
8173.55
8182.12
8188.5
8196.19
8203.4
8211.66
8219.87
8227.74
8235.67
8243.54
8251.43
8259.16
8266.78
8274.03
8281.26
8288.39
8295.86
8303.59
8310.77
8317.39
8324.48
8330.74
8338.46
8346.02
8353.86
8361.14
8368.28
8375.06
8382.3
8389.12
8396.25
8403.15
8410.09
8416.88
8423.7
8430.4
8437.28
8443.78
8450.4
8456.71
8463.24
8469.51
8475.97
8482.1
8488.33
8494.16
8500.15
8505.84
8511.51
8517.03
8522.3
8527.34
8532.14
8536.78
8541.2
8545.35
8549.2
8552.75
8555.97
8558.95
8561.62
8563.99
8565.96
8567.5
8568.75
8569.63
8570.19
8570.33
8570
8569.23
8568.14
8566.67
8564.72
8562.27
8559.42
8556.19
8552.55
8548.41
8543.83
8538.89
8533.57
8527.76
8521.53
8514.98
8508.09
8500.78
8493.06
8485.07
8476.77
8468.2
8459.31
8450.12
8440.73
8431.13
8421.26
8411.22
8401.05
8390.78
8380.39
8369.88
8359.28
8348.59
8337.88
8327.21
8316.59
8305.98
8295.4
8284.86
8274.41
8264.09
8253.93
8243.88
8233.94
8224.14
8214.54
8205.14
8195.9
8186.83
8177.92
8169.23
8160.74
8152.47
8144.35
8136.4
8128.64
8121.13
8113.78
8106.59
8099.57
8092.69
8085.97
8079.43
8073.06
8066.85
8060.74
8054.76
8048.89
8043.17
8037.58
8032.12
8026.74
8021.48
8016.29
8011.21
8006.25
8001.4
7996.63
7991.96
7987.39
7982.92
7978.56
7974.34
7970.24
7966.28
7962.44
7958.7
7955.08
7951.59
7948.21
7944.94
7941.81
7938.81
7935.92
7933.14
7930.46
7927.9
7925.48
7923.15
7920.92
7918.79
7916.75
7914.81
7913.01
7911.28
7909.63
7908.06
7906.57
7905.17
7903.85
7902.62
7901.46
7900.37
7899.33
7898.37
7897.46
7896.6
7895.81
7895.07
7894.39
7893.76
7893.17
7892.62
7892.1
7891.62
7891.17
7890.77
7890.4
7890.05
7889.72
7889.41
7889.13
7888.87
7888.63
7888.41
7888.2
7888.01
7887.83
7887.67
7887.51
7887.38
7887.24
7887.12
7887.02
7886.92
7886.83
7886.75
7886.67
7886.62
7886.57
7886.54
7886.51
7886.5
7886.5
7886.52
7886.55
7886.6
7886.67
7886.75
7886.86
7886.99
7887.13
7887.3
7887.5
7887.72
7887.97
7888.25
7888.56
7888.89
7889.26
7889.65
7890.08
7890.54
7891.03
7891.54
7892.09
7892.66
7893.26
7893.88
7894.52
7895.18
7895.85
7896.54
7897.23
7897.94
7898.65
7899.37
7900.1
7900.82
7901.55
7902.28
7903
7903.72
7904.43
7905.14
7905.84
7906.52
7907.2
7907.86
7908.52
7909.15
7909.78
7910.39
7910.98
7911.56
7912.11
7912.65
7913.18
7913.68
7914.16
7914.63
7915.07
7915.5
7915.91
7916.29
7916.66
7917.01
7917.34
7917.65
7917.94
7918.21
7918.47
7918.7
7918.92
7919.12
7919.31
7919.47
7919.62
7919.75
7919.87
7919.97
7920.06
7920.13
7920.19
7920.23
7920.26
7920.27
7920.27
7920.26
7920.24
7920.21
7920.17
7920.11
7920.04
7919.97
7919.89
7919.79
7919.69
7919.58
7919.46
7919.34
7919.2
7919.06
7918.9
7918.75
7918.58
7918.42
7918.24
7918.06
7917.86
7917.67
7917.46
7917.26
7917.08
7916.88
7916.65
7916.45
7916.11
7915.9
7915.84
7915.63
7915.48
7915.27
7915.08
7914.87
7914.7
7914.49
7914.3
7914.07
7913.86
7913.68
7913.44
7913.25
7912.96
7912.75
7912.36
7912.15
7912.04
7911.82
7911.63
7911.41
7911.18
7910.96
7910.75
7910.52
7910.3
7910.06
7909.83
7909.55
7909.3
7909
7908.78
7908.5
7908.24
7907.97
7907.6
7907.18
7907.05
7906.88
7906.63
7906.36
7906.11
7905.85
7905.61
7905.37
7905.12
7904.86
7904.6
7904.33
7904.06
7903.78
7903.5
7903.22
7902.93
7902.63
7902.34
7902.03
7901.73
7901.42
7901.11
7900.79
7900.48
7900.16
7899.83
7899.5
7899.17
7898.84
7898.51
7898.17
7897.83
7897.48
7897.14
7896.79
7896.44
7896.09
7895.73
7895.38
7895.02
7894.65
7894.29
7893.93
7893.56
7893.19
7892.82
7892.45
7892.07
7891.69
7891.31
7890.93
7890.55
7890.17
7889.78
7889.39
7889
7888.61
7888.22
7887.82
7887.43
7887.03
7886.63
7886.23
7885.82
7885.42
7885.01
7884.61
7884.2
7883.79
7883.38
7882.96
7882.55
7882.13
7881.71
7881.29
7880.87
7880.45
7880.03
7879.6
7879.18
7878.75
7878.32
7877.9
7877.42
7877.11
7876.4
7489.86
7502.03
7508.17
7514.84
7521.82
7528.92
7536.14
7543.42
7550.79
7558.29
7565.85
7573.45
7581.06
7588.64
7596.16
7603.62
7611.07
7618.57
7626.09
7633.72
7641.53
7649.57
7657.88
7666.4
7674.98
7683.54
7692.05
7700.52
7708.98
7717.43
7725.87
7734.23
7742.63
7751.24
7759.85
7768.41
7776.93
7785.29
7793.58
7802.15
7810.84
7819.67
7828.29
7836.82
7845.34
7853.85
7862.34
7870.76
7879.1
7887.55
7895.99
7904.36
7912.69
7920.96
7929.01
7937.08
7945.35
7953.66
7961.81
7969.86
7977.86
7985.81
7993.69
8001.32
8009.05
8016.94
8024.65
8032.12
8039.28
8046.61
8053.91
8061.12
8068.38
8075.73
8082.83
8089.76
8096.45
8103.32
8110.17
8117.13
8123.96
8130.69
8137.72
8145.11
8152.71
8159.95
8166.79
8172.54
8176.46
8185.09
8196.23
8204.33
8211.92
8219.65
8227.22
8235.13
8243.44
8250.95
8258.9
8266.3
8274.19
8281.1
8288.98
8295.66
8303.02
8309.45
8317.18
8324.78
8332.32
8340.35
8346.76
8353.81
8360.78
8368.32
8375.61
8382.79
8389.52
8396.56
8403.63
8410.49
8417.4
8424.2
8430.93
8437.67
8444.35
8450.87
8457.36
8463.66
8470.24
8476.38
8482.65
8488.62
8494.67
8500.6
8506.43
8512.12
8517.7
8522.99
8528.15
8532.98
8537.65
8542.11
8546.34
8550.33
8553.94
8557.2
8560.23
8563.05
8565.42
8567.42
8569
8570.31
8571.27
8571.94
8572.08
8571.72
8571.03
8569.95
8568.54
8566.67
8564.24
8561.38
8558.13
8554.51
8550.36
8545.81
8540.86
8535.54
8529.7
8523.45
8516.85
8509.95
8502.63
8494.88
8486.84
8478.49
8469.83
8460.91
8451.78
8442.32
8432.62
8422.65
8412.57
8402.34
8392.03
8381.59
8371
8360.34
8349.55
8338.79
8328.04
8317.34
8306.71
8296.07
8285.49
8274.93
8264.54
8254.31
8244.23
8234.23
8224.34
8214.7
8205.25
8195.94
8186.8
8177.85
8169.11
8160.6
8152.25
8144.09
8136.06
8128.28
8120.71
8113.36
8106.14
8099.07
8092.14
8085.4
8078.83
8072.46
8066.22
8060.09
8054.1
8048.2
8042.44
8036.83
8031.33
8025.97
8020.71
8015.53
8010.44
8005.44
8000.56
7995.82
7991.17
7986.58
7982.1
7977.76
7973.55
7969.49
7965.52
7961.66
7957.93
7954.29
7950.79
7947.43
7944.2
7941.11
7938.11
7935.22
7932.43
7929.77
7927.26
7924.84
7922.51
7920.29
7918.15
7916.13
7914.22
7912.44
7910.73
7909.09
7907.55
7906.08
7904.68
7903.37
7902.15
7901.02
7899.94
7898.91
7897.94
7897.05
7896.24
7895.47
7894.74
7894.05
7893.42
7892.85
7892.32
7891.81
7891.33
7890.9
7890.5
7890.14
7889.8
7889.46
7889.16
7888.9
7888.65
7888.42
7888.19
7887.98
7887.78
7887.61
7887.46
7887.31
7887.16
7887.01
7886.89
7886.78
7886.69
7886.59
7886.5
7886.42
7886.37
7886.32
7886.27
7886.24
7886.23
7886.23
7886.25
7886.27
7886.31
7886.38
7886.47
7886.58
7886.7
7886.85
7887.02
7887.22
7887.45
7887.7
7887.99
7888.3
7888.63
7889
7889.41
7889.85
7890.31
7890.81
7891.33
7891.89
7892.47
7893.08
7893.71
7894.36
7895.03
7895.71
7896.41
7897.12
7897.84
7898.57
7899.3
7900.03
7900.77
7901.51
7902.25
7902.98
7903.71
7904.44
7905.15
7905.86
7906.56
7907.24
7907.92
7908.58
7909.22
7909.85
7910.47
7911.07
7911.65
7912.21
7912.76
7913.28
7913.79
7914.28
7914.74
7915.19
7915.62
7916.03
7916.42
7916.78
7917.14
7917.47
7917.78
7918.07
7918.34
7918.59
7918.83
7919.05
7919.25
7919.43
7919.59
7919.74
7919.87
7919.98
7920.08
7920.17
7920.23
7920.29
7920.33
7920.35
7920.37
7920.37
7920.36
7920.33
7920.3
7920.25
7920.19
7920.12
7920.04
7919.95
7919.86
7919.75
7919.64
7919.52
7919.39
7919.25
7919.11
7918.97
7918.8
7918.66
7918.46
7918.3
7918.09
7917.91
7917.73
7917.55
7917.33
7917.13
7916.79
7916.59
7916.54
7916.33
7916.18
7915.96
7915.77
7915.56
7915.39
7915.18
7914.99
7914.78
7914.57
7914.41
7914.17
7914
7913.71
7913.52
7913.13
7912.92
7912.82
7912.6
7912.41
7912.18
7911.95
7911.72
7911.51
7911.28
7911.06
7910.83
7910.6
7910.35
7910.09
7909.86
7909.62
7909.38
7909.11
7908.86
7908.47
7908.05
7907.93
7907.76
7907.51
7907.25
7906.99
7906.73
7906.48
7906.23
7905.97
7905.72
7905.46
7905.2
7904.94
7904.67
7904.4
7904.12
7903.84
7903.56
7903.27
7902.97
7902.67
7902.37
7902.07
7901.76
7901.45
7901.14
7900.82
7900.5
7900.18
7899.85
7899.53
7899.2
7898.86
7898.53
7898.19
7897.85
7897.5
7897.16
7896.81
7896.46
7896.11
7895.75
7895.4
7895.04
7894.67
7894.31
7893.94
7893.58
7893.21
7892.83
7892.46
7892.09
7891.71
7891.33
7890.95
7890.57
7890.18
7889.79
7889.41
7889.02
7888.62
7888.23
7887.84
7887.44
7887.04
7886.64
7886.24
7885.84
7885.43
7885.03
7884.62
7884.21
7883.8
7883.39
7882.97
7882.56
7882.14
7881.72
7881.3
7880.88
7880.46
7880.04
7879.61
7879.19
7878.76
7878.33
7877.91
7877.43
7877.12
7876.41
7488.52
7500.78
7506.91
7513.59
7520.58
7527.68
7534.91
7542.2
7549.59
7557.08
7564.62
7572.08
7579.6
7587.13
7594.67
7602.22
7609.84
7617.56
7625.34
7633.23
7641.26
7649.42
7657.7
7666.09
7674.55
7683.03
7691.5
7699.97
7708.44
7716.93
7725.43
7733.94
7742.44
7750.98
7759.55
7768.13
7776.7
7785.24
7793.67
7802.25
7811.01
7819.65
7828.21
7836.75
7845.28
7853.81
7862.33
7870.81
7879.27
7887.69
7896.09
7904.46
7912.81
7921.14
7929.39
7937.56
7945.76
7953.97
7962.1
7970.19
7978.23
7986.23
7994.16
8002.01
8009.83
8017.62
8025.34
8032.96
8040.42
8047.45
8054.77
8062.07
8069.49
8077
8084.23
8091.35
8098.37
8105.09
8112.01
8119.21
8126.39
8133.45
8140.44
8147.38
8154.17
8161.08
8167.92
8175.11
8182.42
8189.77
8196.27
8200.11
8208.14
8220.29
8228.63
8235.93
8243.6
8250.65
8258.14
8266.46
8273.88
8281.77
8289.24
8296.56
8303.84
8311.17
8318.28
8325.66
8332.56
8339.85
8347.21
8355.93
8362.9
8368.96
8375.91
8382.84
8389.88
8397.07
8404
8410.83
8417.71
8424.65
8431.38
8438.18
8444.94
8451.42
8457.93
8464.46
8471.09
8477.63
8483.55
8489.92
8495.59
8501.91
8507.67
8513.52
8518.97
8524.35
8529.69
8534.56
8539.24
8543.63
8547.91
8551.91
8555.76
8559.07
8562.08
8564.94
8567.39
8569.41
8571.07
8572.44
8573.52
8574.24
8574.39
8574.06
8573.45
8572.42
8571.06
8569.24
8566.9
8564.03
8560.75
8557.08
8552.98
8548.48
8543.61
8538.2
8532.29
8526.03
8519.41
8512.42
8505.15
8497.38
8489.22
8480.82
8472.1
8463.15
8453.94
8444.4
8434.54
8424.54
8414.39
8404.1
8393.73
8383.17
8372.49
8361.73
8350.83
8339.98
8329.15
8318.33
8307.63
8296.92
8286.25
8275.63
8265.1
8254.76
8244.62
8234.57
8224.65
8214.84
8205.24
8195.86
8186.71
8177.75
8168.95
8160.34
8151.91
8143.62
8135.58
8127.75
8120.14
8112.75
8105.47
8098.33
8091.35
8084.59
8078
8071.6
8065.3
8059.1
8053.08
8047.23
8041.5
8035.85
8030.27
8024.86
8019.57
8014.4
8009.34
8004.36
7999.46
7994.73
7990.07
7985.46
7981
7976.67
7972.47
7968.43
7964.47
7960.59
7956.84
7953.24
7949.77
7946.42
7943.24
7940.15
7937.16
7934.26
7931.48
7928.85
7926.34
7923.96
7921.66
7919.42
7917.32
7915.32
7913.44
7911.68
7909.99
7908.37
7906.85
7905.41
7904.03
7902.73
7901.53
7900.43
7899.37
7898.35
7897.4
7896.53
7895.75
7895
7894.29
7893.61
7892.99
7892.42
7891.91
7891.43
7890.96
7890.56
7890.17
7889.79
7889.44
7889.13
7888.85
7888.61
7888.36
7888.12
7887.89
7887.69
7887.5
7887.32
7887.18
7887.02
7886.88
7886.73
7886.6
7886.48
7886.38
7886.27
7886.18
7886.1
7886.05
7885.99
7885.93
7885.89
7885.88
7885.88
7885.88
7885.9
7885.94
7886
7886.1
7886.2
7886.33
7886.47
7886.65
7886.85
7887.09
7887.35
7887.64
7887.95
7888.3
7888.67
7889.09
7889.54
7890.02
7890.53
7891.06
7891.63
7892.22
7892.84
7893.49
7894.16
7894.84
7895.54
7896.25
7896.97
7897.71
7898.45
7899.2
7899.95
7900.71
7901.47
7902.22
7902.97
7903.71
7904.44
7905.17
7905.9
7906.61
7907.31
7907.99
7908.66
7909.32
7909.96
7910.58
7911.19
7911.78
7912.34
7912.89
7913.43
7913.94
7914.43
7914.9
7915.35
7915.79
7916.19
7916.58
7916.95
7917.3
7917.63
7917.95
7918.24
7918.51
7918.76
7918.99
7919.21
7919.41
7919.58
7919.75
7919.89
7920.02
7920.13
7920.23
7920.31
7920.37
7920.43
7920.46
7920.49
7920.5
7920.5
7920.48
7920.46
7920.42
7920.37
7920.31
7920.24
7920.15
7920.07
7919.97
7919.86
7919.75
7919.62
7919.5
7919.35
7919.22
7919.04
7918.89
7918.7
7918.53
7918.37
7918.19
7917.99
7917.79
7917.46
7917.27
7917.23
7917.02
7916.88
7916.66
7916.47
7916.26
7916.1
7915.88
7915.7
7915.47
7915.28
7915.08
7914.89
7914.66
7914.46
7914.11
7913.89
7913.84
7913.61
7913.47
7913.21
7913.03
7912.76
7912.55
7912.33
7912.11
7911.89
7911.66
7911.43
7911.18
7910.93
7910.72
7910.48
7910.26
7910.02
7909.72
7909.33
7908.93
7908.82
7908.65
7908.39
7908.12
7907.86
7907.58
7907.32
7907.07
7906.82
7906.57
7906.31
7906.05
7905.79
7905.53
7905.26
7904.99
7904.72
7904.44
7904.16
7903.88
7903.59
7903.3
7903.01
7902.71
7902.41
7902.1
7901.8
7901.48
7901.17
7900.85
7900.53
7900.21
7899.88
7899.55
7899.22
7898.89
7898.55
7898.21
7897.87
7897.53
7897.18
7896.83
7896.48
7896.13
7895.77
7895.41
7895.06
7894.69
7894.33
7893.96
7893.6
7893.23
7892.85
7892.48
7892.1
7891.73
7891.35
7890.97
7890.58
7890.2
7889.81
7889.42
7889.03
7888.64
7888.25
7887.85
7887.45
7887.06
7886.66
7886.25
7885.85
7885.45
7885.04
7884.63
7884.22
7883.81
7883.4
7882.99
7882.57
7882.16
7881.74
7881.32
7880.9
7880.47
7880.05
7879.63
7879.2
7878.77
7878.34
7877.92
7877.45
7877.14
7876.42
7486.82
7499.18
7505.32
7512.02
7519.01
7526.13
7533.37
7540.66
7548.05
7555.54
7563.11
7570.53
7577.96
7585.43
7592.97
7600.67
7608.47
7616.35
7624.28
7632.31
7640.43
7648.66
7657
7665.4
7673.86
7682.32
7690.79
7699.27
7707.77
7716.29
7724.84
7733.4
7741.97
7750.55
7759.14
7767.73
7776.34
7784.97
7793.6
7802.23
7810.85
7819.46
7828.05
7836.62
7845.17
7853.72
7862.27
7870.82
7879.31
7887.76
7896.15
7904.53
7912.93
7921.32
7929.66
7937.95
7946.12
7954.01
7962.14
7970.45
7978.66
7986.72
7994.72
8002.64
8010.51
8018.35
8026.12
8033.81
8041.42
8048.7
8055.75
8063.27
8071
8078.44
8085.7
8092.92
8100.12
8107.27
8114.36
8121.3
8128.25
8135.45
8142.65
8149.77
8156.94
8163.98
8170.71
8177.65
8184.45
8191.49
8198.89
8206.26
8213.98
8220.76
8223.98
8230.66
8243.88
8252.27
8258.93
8266.25
8273.4
8280.54
8289.2
8296.25
8304.14
8311
8318.51
8325.7
8333.5
8340.95
8348.19
8355.63
8362.18
8369.47
8378.21
8385.05
8390.52
8397.5
8404.23
8411.19
8418.37
8425.23
8432.05
8438.78
8445.53
8452.02
8458.71
8465.39
8471.75
8478.33
8484.52
8490.97
8496.9
8502.76
8508.85
8514.57
8519.99
8525.48
8530.95
8536.14
8540.95
8545.51
8549.69
8553.89
8557.79
8561.32
8564.45
8567.34
8569.81
8571.85
8573.65
8575.18
8576.42
8577.14
8577.36
8577.07
8576.52
8575.63
8574.36
8572.52
8570.23
8567.47
8564.14
8560.45
8556.39
8551.96
8547
8541.58
8535.64
8529.32
8522.66
8515.7
8508.34
8500.53
8492.27
8483.76
8475.01
8466.01
8456.67
8447.02
8437.03
8426.94
8416.72
8406.4
8395.86
8385.16
8374.35
8363.46
8352.48
8341.49
8330.54
8319.61
8308.74
8297.92
8287.16
8276.46
8265.79
8255.33
8245.07
8234.91
8224.9
8214.99
8205.27
8195.79
8186.55
8177.53
8168.63
8159.93
8151.36
8143.02
8134.95
8127.11
8119.43
8111.89
8104.49
8097.32
8090.34
8083.59
8076.95
8070.43
8064.03
8057.84
8051.8
8045.96
8040.19
8034.53
8028.95
8023.46
8018.15
8012.95
8007.89
8002.97
7998.1
7993.33
7988.66
7984.08
7979.6
7975.28
7971.15
7967.08
7963.08
7959.22
7955.51
7951.93
7948.51
7945.22
7942.01
7938.92
7935.93
7933.04
7930.31
7927.69
7925.24
7922.87
7920.59
7918.38
7916.28
7914.32
7912.5
7910.73
7909.05
7907.44
7905.92
7904.55
7903.22
7901.96
7900.79
7899.69
7898.65
7897.65
7896.73
7895.92
7895.14
7894.41
7893.72
7893.07
7892.45
7891.9
7891.4
7890.96
7890.53
7890.13
7889.75
7889.37
7889.04
7888.75
7888.5
7888.24
7887.99
7887.74
7887.53
7887.34
7887.17
7887
7886.83
7886.67
7886.51
7886.37
7886.25
7886.14
7886.02
7885.9
7885.79
7885.72
7885.65
7885.59
7885.52
7885.47
7885.46
7885.45
7885.45
7885.46
7885.49
7885.56
7885.65
7885.75
7885.87
7886.02
7886.21
7886.42
7886.65
7886.91
7887.21
7887.54
7887.9
7888.29
7888.7
7889.16
7889.66
7890.18
7890.73
7891.31
7891.93
7892.57
7893.23
7893.9
7894.6
7895.33
7896.06
7896.8
7897.56
7898.32
7899.09
7899.86
7900.64
7901.41
7902.18
7902.95
7903.71
7904.47
7905.21
7905.95
7906.68
7907.39
7908.09
7908.77
7909.44
7910.09
7910.73
7911.34
7911.94
7912.51
7913.07
7913.61
7914.13
7914.63
7915.1
7915.56
7915.99
7916.41
7916.8
7917.17
7917.52
7917.85
7918.16
7918.45
7918.72
7918.97
7919.2
7919.42
7919.61
7919.79
7919.95
7920.09
7920.21
7920.32
7920.42
7920.49
7920.56
7920.6
7920.64
7920.65
7920.66
7920.65
7920.64
7920.6
7920.57
7920.51
7920.44
7920.36
7920.28
7920.18
7920.08
7919.97
7919.86
7919.72
7919.58
7919.43
7919.28
7919.16
7918.99
7918.87
7918.64
7918.49
7918.14
7917.97
7917.94
7917.75
7917.61
7917.4
7917.21
7917.01
7916.85
7916.63
7916.46
7916.23
7916.04
7915.85
7915.66
7915.44
7915.23
7914.89
7914.67
7914.64
7914.4
7914.27
7914.02
7913.84
7913.58
7913.38
7913.16
7912.94
7912.72
7912.49
7912.27
7912.01
7911.76
7911.55
7911.32
7911.07
7910.86
7910.47
7910.08
7909.99
7909.82
7909.58
7909.32
7909.04
7908.78
7908.5
7908.24
7907.99
7907.73
7907.47
7907.21
7906.95
7906.68
7906.42
7906.15
7905.89
7905.62
7905.35
7905.07
7904.79
7904.51
7904.23
7903.94
7903.65
7903.36
7903.06
7902.76
7902.45
7902.15
7901.84
7901.52
7901.21
7900.89
7900.57
7900.24
7899.92
7899.59
7899.26
7898.92
7898.59
7898.25
7897.9
7897.56
7897.21
7896.86
7896.51
7896.16
7895.8
7895.44
7895.08
7894.72
7894.36
7893.99
7893.62
7893.25
7892.88
7892.5
7892.13
7891.75
7891.37
7890.99
7890.6
7890.22
7889.83
7889.44
7889.05
7888.66
7888.27
7887.87
7887.47
7887.08
7886.68
7886.27
7885.87
7885.47
7885.06
7884.65
7884.24
7883.83
7883.42
7883
7882.59
7882.17
7881.75
7881.33
7880.91
7880.49
7880.07
7879.64
7879.22
7878.79
7878.36
7877.94
7877.46
7877.15
7876.44
7484.79
7497.25
7503.41
7510.12
7517.13
7524.26
7531.52
7538.83
7546.24
7553.74
7561.32
7568.8
7576.16
7583.31
7590.56
7598.76
7607
7615.01
7623.05
7631.17
7639.36
7647.64
7656.01
7664.44
7672.92
7681.41
7689.9
7698.4
7706.92
7715.48
7724.08
7732.7
7741.33
7749.96
7758.6
7767.23
7775.86
7784.51
7793.2
7801.89
7810.57
7819.21
7827.84
7836.39
7844.75
7853.38
7862.13
7870.81
7879.35
7887.82
7896.03
7904.15
7912.78
7921.47
7929.93
7938.28
7946.39
7953.93
7961.89
7970.47
7979
7987.27
7995.34
8003.34
8011.28
8019.16
8026.98
8034.74
8042.44
8050.06
8057.3
8064.48
8072.22
8079.79
8087.19
8094.53
8101.83
8109.1
8116.33
8123.42
8130.28
8137.41
8144.83
8152.14
8159.31
8166.43
8173.44
8180.06
8187.12
8194.62
8201.84
8208.7
8215.51
8222.65
8229.92
8237.96
8245
8247.72
8253.07
8267.08
8275.73
8282.12
8289.78
8296.76
8303.87
8312.04
8319.19
8326.72
8334.27
8341.4
8348.91
8356.01
8363.69
8370.27
8377.67
8384
8391.37
8400.64
8407.05
8411.69
8418.63
8425.06
8432.08
8439.42
8446.42
8452.82
8459.61
8465.88
8472.84
8479.35
8485.99
8492.48
8498.73
8505.04
8510.85
8517.15
8523
8528.04
8533.73
8538.25
8543.32
8547.93
8552.38
8556.53
8560.61
8564.06
8567.38
8570.3
8572.73
8574.88
8577.02
8578.67
8579.84
8580.61
8580.96
8580.79
8580.36
8579.56
8578.23
8576.42
8574.18
8571.48
8568.25
8564.57
8560.56
8556.07
8551.08
8545.66
8539.76
8533.37
8526.73
8519.69
8512.19
8504.32
8496.04
8487.42
8478.6
8469.45
8459.97
8450.14
8440.05
8429.98
8419.66
8409.1
8398.38
8387.53
8376.46
8365.4
8354.44
8343.4
8332.29
8321.17
8309.94
8298.98
8288.16
8277.35
8266.63
8256.01
8245.46
8235.14
8225.07
8215.11
8205.25
8195.62
8186.3
8177.15
8168.14
8159.27
8150.6
8142.21
8134.12
8126.18
8118.39
8110.78
8103.3
8096.03
8088.99
8082.19
8075.5
8068.96
8062.5
8056.24
8050.2
8044.31
8038.5
8032.81
8027.25
8021.77
8016.38
8011.17
8006.1
8001.2
7996.33
7991.57
7986.92
7982.37
7977.91
7973.57
7969.47
7965.41
7961.47
7957.61
7953.89
7950.33
7946.97
7943.68
7940.49
7937.43
7934.46
7931.58
7928.88
7926.33
7923.9
7921.54
7919.29
7917.13
7915.04
7913.1
7911.32
7909.58
7907.93
7906.35
7904.85
7903.49
7902.24
7901.02
7899.88
7898.8
7897.78
7896.81
7895.93
7895.16
7894.4
7893.7
7893.04
7892.42
7891.84
7891.29
7890.81
7890.4
7889.98
7889.6
7889.24
7888.9
7888.58
7888.28
7888.05
7887.8
7887.56
7887.32
7887.11
7886.95
7886.76
7886.59
7886.42
7886.25
7886.09
7885.96
7885.83
7885.7
7885.58
7885.47
7885.36
7885.26
7885.18
7885.11
7885.04
7884.98
7884.96
7884.94
7884.93
7884.94
7884.97
7885.04
7885.12
7885.22
7885.35
7885.5
7885.68
7885.9
7886.14
7886.4
7886.71
7887.05
7887.42
7887.83
7888.27
7888.74
7889.24
7889.78
7890.35
7890.95
7891.58
7892.23
7892.91
7893.62
7894.33
7895.08
7895.83
7896.6
7897.38
7898.17
7898.96
7899.76
7900.56
7901.36
7902.15
7902.94
7903.72
7904.5
7905.26
7906.02
7906.76
7907.49
7908.21
7908.91
7909.59
7910.25
7910.9
7911.53
7912.14
7912.72
7913.29
7913.84
7914.36
7914.87
7915.35
7915.81
7916.25
7916.66
7917.05
7917.42
7917.78
7918.11
7918.42
7918.71
7918.97
7919.22
7919.45
7919.66
7919.85
7920.03
7920.18
7920.32
7920.44
7920.55
7920.64
7920.72
7920.77
7920.82
7920.84
7920.87
7920.86