/*--------------------------------*- C++ -*----------------------------------*\
| =========                 |                                                 |
| \\      /  F ield         | OpenFOAM: The Open Source CFD Toolbox           |
|  \\    /   O peration     | Version:  v2006                                 |
|   \\  /    A nd           | Website:  www.openfoam.com                      |
|    \\/     M anipulation  |                                                 |
\*---------------------------------------------------------------------------*/
FoamFile
{
    version     2.0;
    format      ascii;
    class       surfaceScalarField;
    location    "6.3";
    object      alphaPhi0.water;
}
// * * * * * * * * * * * * * * * * * * * * * * * * * * * * * * * * * * * * * //

dimensions      [0 3 -1 0 0 0 0];
oriented        oriented;


internalField   nonuniform List<scalar> 
65390
(
1.69928e-05
-7.63206e-07
2.20042e-05
-5.0115e-06
2.66473e-05
-4.64312e-06
3.13976e-05
-4.75031e-06
3.51357e-05
-3.73803e-06
3.84166e-05
-3.28084e-06
4.10639e-05
-2.6473e-06
4.30814e-05
-2.0175e-06
4.5022e-05
-1.94058e-06
4.7233e-05
-2.21093e-06
4.98313e-05
-2.59835e-06
5.2376e-05
-2.54464e-06
5.4486e-05
-2.11005e-06
5.48723e-05
-3.86294e-07
5.29721e-05
1.90021e-06
4.88211e-05
4.15085e-06
4.3338e-05
5.48301e-06
3.67453e-05
6.59259e-06
2.75321e-05
9.213e-06
1.68865e-05
1.06435e-05
1.00878e-05
6.79503e-06
6.41294e-06
3.6749e-06
3.10065e-06
3.31324e-06
2.30759e-07
2.87016e-06
-1.70659e-06
1.93735e-06
-3.57209e-06
1.86549e-06
-5.91111e-06
2.33908e-06
-8.40802e-06
2.49772e-06
-1.10115e-05
2.60485e-06
-1.34805e-05
2.4698e-06
-1.56154e-05
2.13577e-06
-1.76655e-05
2.04747e-06
-1.97635e-05
2.0922e-06
-2.14799e-05
1.71357e-06
-2.25334e-05
1.05356e-06
-2.33995e-05
8.6599e-07
-2.47138e-05
1.31749e-06
-2.6681e-05
1.98139e-06
-2.9145e-05
2.46478e-06
-3.14399e-05
2.27756e-06
-3.28715e-05
1.4265e-06
-3.37444e-05
8.72859e-07
-3.46271e-05
8.8274e-07
-3.57741e-05
1.14811e-06
-3.73937e-05
1.62657e-06
-3.93675e-05
1.98115e-06
-4.12697e-05
1.89995e-06
-4.26842e-05
1.40178e-06
-4.36413e-05
9.54916e-07
-4.44442e-05
8.02488e-07
-4.51962e-05
7.53255e-07
-4.59582e-05
7.61835e-07
-4.66007e-05
6.41638e-07
-4.71906e-05
5.89816e-07
-4.80192e-05
8.28665e-07
-4.9278e-05
1.26213e-06
-5.08384e-05
1.57068e-06
-5.238e-05
1.54748e-06
-5.36428e-05
1.26286e-06
-5.46238e-05
9.6622e-07
-5.55021e-05
8.76612e-07
-5.65567e-05
1.05285e-06
-5.77048e-05
1.14629e-06
-5.85679e-05
8.61259e-07
-5.87119e-05
1.43732e-07
-5.81138e-05
-5.98112e-07
-5.71313e-05
-9.82449e-07
-5.60237e-05
-1.10738e-06
-5.48494e-05
-1.17099e-06
-5.33841e-05
-1.45343e-06
-5.15541e-05
-1.81914e-06
-4.91314e-05
-2.42268e-06
-4.57372e-05
-3.39426e-06
-4.13372e-05
-4.40002e-06
-3.62826e-05
-5.05526e-06
-3.10776e-05
-5.21889e-06
-2.62229e-05
-4.8585e-06
-2.18005e-05
-4.42438e-06
-1.85412e-05
-3.26027e-06
-1.71901e-05
-1.35173e-06
-1.85683e-05
1.37806e-06
-2.09463e-05
2.37804e-06
-2.29057e-05
1.9595e-06
-2.4617e-05
1.71206e-06
-2.62869e-05
1.67058e-06
-2.68456e-05
5.57634e-07
-2.71088e-05
2.63312e-07
-2.7357e-05
2.49207e-07
-2.7534e-05
1.83803e-07
-2.75751e-05
4.10825e-08
-2.75455e-05
-3.16572e-08
-2.72854e-05
-2.66432e-07
-2.65353e-05
-7.50104e-07
-2.54829e-05
-1.05233e-06
-2.37442e-05
-1.73874e-06
-2.13291e-05
-2.41489e-06
-1.82283e-05
-3.10085e-06
-1.50051e-05
-3.22304e-06
-1.18891e-05
-3.11486e-06
-1.0288e-05
-1.59914e-06
-1.01239e-05
-1.64096e-07
-1.04149e-05
2.90998e-07
-1.10471e-05
6.32277e-07
-1.15561e-05
5.07419e-07
-1.23175e-05
7.60408e-07
-1.2708e-05
3.90496e-07
-1.27916e-05
8.35668e-08
-1.29177e-05
1.26123e-07
-1.31448e-05
2.30819e-07
-1.33918e-05
2.47034e-07
-1.36013e-05
2.07464e-07
-1.37913e-05
1.8779e-07
-1.37898e-05
-1.80877e-09
-1.35684e-05
-2.21102e-07
-1.30117e-05
-5.54948e-07
-1.22222e-05
-7.89522e-07
-1.10835e-05
-1.13868e-06
-1.03993e-05
-6.84935e-07
-1.03898e-05
-1.03124e-08
-1.05673e-05
1.77495e-07
-1.0899e-05
3.31746e-07
-1.11573e-05
2.59183e-07
-1.16153e-05
4.58374e-07
-1.19812e-05
3.65834e-07
-1.22042e-05
2.21669e-07
-1.24493e-05
2.45105e-07
-1.26782e-05
2.28899e-07
-1.29064e-05
2.28193e-07
-1.31705e-05
2.64538e-07
-1.34097e-05
2.40253e-07
-1.36219e-05
2.12251e-07
-1.38305e-05
2.088e-07
-1.40215e-05
1.90397e-07
-1.42191e-05
1.96314e-07
-1.44131e-05
1.93974e-07
-1.4608e-05
1.9483e-07
-1.48004e-05
1.92413e-07
-1.49816e-05
1.81207e-07
-1.51595e-05
1.77846e-07
-1.53273e-05
1.68978e-07
-1.54942e-05
1.69125e-07
-1.56577e-05
1.63515e-07
-1.58128e-05
1.55042e-07
-1.59612e-05
1.45275e-07
-1.60939e-05
1.32758e-07
-1.62144e-05
1.20485e-07
-1.63282e-05
1.13827e-07
-1.64372e-05
1.0903e-07
-1.65403e-05
1.04429e-07
-1.66363e-05
9.60145e-08
-1.67183e-05
8.01674e-08
-1.6785e-05
6.67669e-08
-1.68453e-05
6.02673e-08
-1.6899e-05
5.46426e-08
-1.69463e-05
4.84224e-08
-1.69848e-05
3.84307e-08
-1.70144e-05
2.83483e-08
-1.70353e-05
1.96085e-08
-1.70463e-05
1.09605e-08
-1.70486e-05
2.2965e-09
-1.70422e-05
-6.40129e-09
-1.70268e-05
-1.52251e-08
-1.70053e-05
-2.09107e-08
-1.69776e-05
-2.77193e-08
-1.69381e-05
-4.00426e-08
-1.68868e-05
-5.1372e-08
-1.68285e-05
-5.79173e-08
-1.67663e-05
-6.17791e-08
-1.66973e-05
-6.99794e-08
-1.66131e-05
-8.42132e-08
-1.65177e-05
-9.53709e-08
-1.64163e-05
-1.01319e-07
-1.63099e-05
-1.05429e-07
-1.61971e-05
-1.12228e-07
-1.60746e-05
-1.23952e-07
-1.59379e-05
-1.36746e-07
-1.57929e-05
-1.44925e-07
-1.56413e-05
-1.50681e-07
-1.54827e-05
-1.57759e-07
-1.53154e-05
-1.6723e-07
-1.51416e-05
-1.73831e-07
-1.49638e-05
-1.78581e-07
-1.47786e-05
-1.85975e-07
-1.45829e-05
-1.9575e-07
-1.43742e-05
-2.08875e-07
-1.41537e-05
-2.19022e-07
-1.39294e-05
-2.24292e-07
-1.37012e-05
-2.28209e-07
-1.34693e-05
-2.32872e-07
-1.32287e-05
-2.4092e-07
-1.29767e-05
-2.5192e-07
-1.2715e-05
-2.61784e-07
-1.2442e-05
-2.71387e-07
-1.21653e-05
-2.76759e-07
-1.18842e-05
-2.81127e-07
-1.15967e-05
-2.88353e-07
-1.12998e-05
-2.97368e-07
-1.09906e-05
-3.09224e-07
-1.06664e-05
-3.24228e-07
-1.03305e-05
-3.35892e-07
-9.98857e-06
-3.41415e-07
-9.64547e-06
-3.42319e-07
-9.29698e-06
-3.48462e-07
-8.93623e-06
-3.6071e-07
-8.56019e-06
-3.7701e-07
-8.16801e-06
-3.92187e-07
-7.76847e-06
-3.99534e-07
-7.36591e-06
-4.02384e-07
-6.95951e-06
-4.06244e-07
-6.54289e-06
-4.16736e-07
-6.11167e-06
-4.31217e-07
-5.67442e-06
-4.37247e-07
-5.24312e-06
-4.3098e-07
-4.81922e-06
-4.23678e-07
-4.38697e-06
-4.32615e-07
-3.9434e-06
-4.43658e-07
-3.49818e-06
-4.45232e-07
-3.05788e-06
-4.40165e-07
-2.63411e-06
-4.23528e-07
-2.22909e-06
-4.05009e-07
-1.8325e-06
-3.96612e-07
-1.43851e-06
-3.94045e-07
-1.04802e-06
-3.90466e-07
-6.68593e-07
-3.79396e-07
-3.06371e-07
-3.62193e-07
3.16009e-08
-3.37937e-07
3.51175e-07
-3.19551e-07
6.59527e-07
-3.08289e-07
9.58625e-07
-2.99048e-07
1.25092e-06
-2.92306e-07
1.53393e-06
-2.83014e-07
1.80286e-06
-2.69034e-07
2.05455e-06
-2.51875e-07
2.29641e-06
-2.41607e-07
2.53236e-06
-2.35904e-07
2.76155e-06
-2.29181e-07
2.98458e-06
-2.2304e-07
3.20114e-06
-2.16622e-07
3.40941e-06
-2.08295e-07
3.61024e-06
-2.00744e-07
3.80467e-06
-1.94388e-07
3.99181e-06
-1.87124e-07
4.17175e-06
-1.80051e-07
4.34664e-06
-1.74848e-07
4.5188e-06
-1.72023e-07
4.68919e-06
-1.70355e-07
4.85674e-06
-1.67544e-07
5.01943e-06
-1.62695e-07
5.17274e-06
-1.53784e-07
5.32299e-06
-1.49885e-07
5.47418e-06
-1.51003e-07
5.62444e-06
-1.50243e-07
5.77188e-06
-1.47458e-07
5.91616e-06
-1.4427e-07
6.0558e-06
-1.39795e-07
6.19294e-06
-1.37116e-07
6.32934e-06
-1.36273e-07
6.46474e-06
-1.35223e-07
6.59878e-06
-1.34021e-07
6.73121e-06
-1.32416e-07
6.86113e-06
-1.3e-07
6.98895e-06
-1.27859e-07
7.11582e-06
-1.26842e-07
7.24259e-06
-1.26558e-07
7.36901e-06
-1.26342e-07
7.49352e-06
-1.24471e-07
7.6142e-06
-1.20712e-07
7.73132e-06
-1.17279e-07
7.84792e-06
-1.16445e-07
7.96519e-06
-1.17161e-07
8.08163e-06
-1.16433e-07
8.19625e-06
-1.14634e-07
8.30866e-06
-1.12445e-07
8.41763e-06
-1.09183e-07
8.52317e-06
-1.05611e-07
8.62692e-06
-1.03658e-07
8.7289e-06
-1.01986e-07
8.82882e-06
-9.99734e-08
8.92637e-06
-9.76241e-08
9.02135e-06
-9.50501e-08
9.11384e-06
-9.25495e-08
9.20291e-06
-8.91654e-08
9.28688e-06
-8.41465e-08
9.36717e-06
-8.02669e-08
9.4452e-06
-7.79683e-08
9.52029e-06
-7.50849e-08
9.59163e-06
-7.13373e-08
9.65896e-06
-6.7323e-08
9.72214e-06
-6.3208e-08
9.7804e-06
-5.83228e-08
9.83388e-06
-5.34887e-08
9.88342e-06
-4.94028e-08
9.92893e-06
-4.53883e-08
9.97007e-06
-4.10875e-08
1.00067e-05
-3.65583e-08
1.00381e-05
-3.13426e-08
1.00638e-05
-2.57742e-08
1.00848e-05
-2.08589e-08
1.01009e-05
-1.60166e-08
1.01123e-05
-1.13854e-08
1.01191e-05
-6.73775e-09
1.01202e-05
-1.10646e-09
1.01156e-05
4.59107e-09
1.01061e-05
9.52006e-09
1.00919e-05
1.42876e-08
1.00726e-05
1.92526e-08
1.00481e-05
2.45703e-08
1.00183e-05
2.98098e-08
9.98372e-06
3.46577e-08
9.94474e-06
3.89964e-08
9.90111e-06
4.3646e-08
9.85199e-06
4.90914e-08
9.79748e-06
5.44925e-08
9.73865e-06
5.88843e-08
9.67602e-06
6.26579e-08
9.60911e-06
6.68868e-08
9.53746e-06
7.16355e-08
9.46144e-06
7.60131e-08
9.38136e-06
8.00975e-08
9.29737e-06
8.39844e-08
9.20947e-06
8.78832e-08
9.11713e-06
9.22848e-08
9.02063e-06
9.64911e-08
8.92059e-06
1.00035e-07
8.817e-06
1.03574e-07
8.70925e-06
1.07733e-07
8.59672e-06
1.12467e-07
8.48013e-06
1.16583e-07
8.36006e-06
1.20068e-07
8.23647e-06
1.23616e-07
8.10865e-06
1.27813e-07
7.97555e-06
1.33062e-07
7.8375e-06
1.38056e-07
7.69564e-06
1.41878e-07
7.55061e-06
1.45038e-07
7.40226e-06
1.48357e-07
7.2502e-06
1.52057e-07
7.09425e-06
1.55946e-07
6.93424e-06
1.60023e-07
6.77076e-06
1.63513e-07
6.60454e-06
1.66258e-07
6.43568e-06
1.68896e-07
6.26421e-06
1.71503e-07
6.08956e-06
1.74679e-07
5.91161e-06
1.7797e-07
5.73159e-06
1.80066e-07
5.5502e-06
1.81433e-07
5.36749e-06
1.82742e-07
5.18297e-06
1.84538e-07
4.99618e-06
1.86767e-07
4.80768e-06
1.88499e-07
4.6187e-06
1.88948e-07
4.42961e-06
1.89064e-07
4.23938e-06
1.90177e-07
4.04819e-06
1.91158e-07
3.85705e-06
1.91116e-07
3.66614e-06
1.90902e-07
3.47545e-06
1.90692e-07
3.28513e-06
1.90321e-07
3.0955e-06
1.89655e-07
2.90673e-06
1.88796e-07
2.71901e-06
1.87756e-07
2.5325e-06
1.86545e-07
2.3471e-06
1.85431e-07
2.16298e-06
1.84146e-07
1.98053e-06
1.82482e-07
1.80037e-06
1.80174e-07
1.62267e-06
1.77726e-07
1.44744e-06
1.75225e-07
1.27452e-06
1.72912e-07
1.10415e-06
1.70363e-07
9.36893e-07
1.6723e-07
7.73274e-07
1.63594e-07
6.13317e-07
1.59931e-07
4.56776e-07
1.56517e-07
3.03864e-07
1.52891e-07
1.5484e-07
1.49007e-07
9.76613e-09
1.45061e-07
-1.31525e-07
1.41282e-07
-2.68937e-07
1.3741e-07
-4.01946e-07
1.33008e-07
-5.30277e-07
1.28335e-07
-6.54112e-07
1.23845e-07
-7.73797e-07
1.19701e-07
-8.89357e-07
1.15581e-07
-1.00081e-06
1.11476e-07
-1.10825e-06
1.07472e-07
-1.21122e-06
1.02995e-07
-1.30961e-06
9.84201e-08
-1.40371e-06
9.41327e-08
-1.49394e-06
9.02542e-08
-1.57993e-06
8.60119e-08
-1.66134e-06
8.14176e-08
-1.73824e-06
7.6912e-08
-1.81098e-06
7.27336e-08
-1.87931e-06
6.83327e-08
-1.94354e-06
6.4233e-08
-2.00394e-06
6.03959e-08
-2.06036e-06
5.64207e-08
-2.11259e-06
5.2228e-08
-2.16038e-06
4.77919e-08
-2.20371e-06
4.33238e-08
-2.24304e-06
3.93307e-08
-2.2786e-06
3.557e-08
-2.31026e-06
3.16659e-08
-2.33839e-06
2.81297e-08
-2.36201e-06
2.36184e-08
-2.38157e-06
1.95555e-08
-2.39682e-06
1.52427e-08
-2.40859e-06
1.17569e-08
-2.41714e-06
8.54823e-09
-2.42223e-06
5.08508e-09
-2.4248e-06
2.55469e-09
-2.42236e-06
-2.45592e-09
-2.41735e-06
-5.02423e-09
-2.40932e-06
-8.02944e-09
-2.3983e-06
-1.10335e-08
-2.38726e-06
-1.10427e-08
-2.37525e-06
-1.20088e-08
-2.35533e-06
-1.99175e-08
-2.33451e-06
-2.081e-08
-2.3092e-06
-2.53063e-08
-2.27916e-06
-3.00412e-08
-2.2665e-06
-1.26456e-08
-2.25497e-06
-1.15281e-08
-2.2251e-06
-2.98588e-08
-2.20201e-06
-2.30868e-08
-2.14061e-06
-6.13908e-08
-2.0624e-06
-7.82052e-08
-1.89339e-06
-1.69007e-07
-1.66654e-06
-2.2685e-07
-1.49716e-06
-1.6937e-07
-1.36237e-06
-1.34789e-07
-1.25873e-06
-1.03642e-07
-1.17459e-06
-8.4141e-08
-1.09938e-06
-7.5208e-08
-1.0223e-06
-7.70774e-08
-9.45676e-07
-7.66254e-08
-8.70164e-07
-7.55116e-08
-7.99369e-07
-7.07967e-08
-7.20668e-07
-7.8702e-08
-6.86432e-07
-3.42365e-08
-6.69186e-07
-1.72451e-08
-6.07903e-07
-6.12817e-08
-5.65e-07
-4.29024e-08
-4.59562e-07
-1.05437e-07
-3.17364e-07
-1.42195e-07
-6.55802e-09
-3.10802e-07
4.12519e-07
-4.19072e-07
7.35473e-07
-3.22949e-07
1.01003e-06
-2.74556e-07
1.2015e-06
-1.9146e-07
1.36893e-06
-1.67431e-07
1.50659e-06
-1.37655e-07
1.62963e-06
-1.23033e-07
1.73212e-06
-1.02489e-07
1.81403e-06
-8.19076e-08
1.89529e-06
-8.12554e-08
1.96906e-06
-7.3771e-08
2.03537e-06
-6.63021e-08
2.12724e-06
-9.18741e-08
2.17204e-06
-4.47928e-08
2.15957e-06
1.24664e-08
2.19578e-06
-3.62101e-08
2.15469e-06
4.10886e-08
2.19198e-06
-3.72891e-08
2.35317e-06
-1.61193e-07
2.7385e-06
-3.85351e-07
3.25357e-06
-5.15075e-07
3.9172e-06
-6.63647e-07
4.64415e-06
-7.26999e-07
5.29264e-06
-6.48665e-07
5.78614e-06
-4.93565e-07
6.16379e-06
-3.77691e-07
6.4666e-06
-3.02809e-07
6.72464e-06
-2.58039e-07
6.94779e-06
-2.23196e-07
7.14364e-06
-1.95881e-07
7.31838e-06
-1.74761e-07
7.48178e-06
-1.63383e-07
7.63463e-06
-1.52841e-07
7.7753e-06
-1.40681e-07
7.90926e-06
-1.33966e-07
8.03673e-06
-1.27463e-07
8.15644e-06
-1.19684e-07
8.27399e-06
-1.17538e-07
8.38689e-06
-1.12904e-07
8.49421e-06
-1.0731e-07
8.5966e-06
-1.02369e-07
8.69976e-06
-1.0314e-07
8.80055e-06
-1.00804e-07
8.89585e-06
-9.53026e-08
8.98665e-06
-9.08058e-08
9.07537e-06
-8.869e-08
9.16311e-06
-8.77241e-08
9.24938e-06
-8.62723e-08
9.33339e-06
-8.40136e-08
9.41588e-06
-8.24901e-08
9.49598e-06
-8.01087e-08
9.57491e-06
-7.89385e-08
9.64898e-06
-7.40901e-08
9.72168e-06
-7.26955e-08
9.79632e-06
-7.46394e-08
9.8723e-06
-7.59774e-08
9.9482e-06
-7.59073e-08
1.00228e-05
-7.45926e-08
1.00954e-05
-7.2626e-08
1.01662e-05
-7.07805e-08
1.02353e-05
-6.9161e-08
1.03035e-05
-6.81542e-08
1.03708e-05
-6.72749e-08
1.0437e-05
-6.62121e-08
1.05009e-05
-6.38683e-08
1.05662e-05
-6.53258e-08
1.06308e-05
-6.45986e-08
1.06915e-05
-6.06238e-08
1.0749e-05
-5.75427e-08
1.08052e-05
-5.61762e-08
1.08607e-05
-5.55145e-08
1.09162e-05
-5.54641e-08
1.09717e-05
-5.54995e-08
1.1027e-05
-5.53246e-08
1.10819e-05
-5.49314e-08
1.11362e-05
-5.4243e-08
1.11895e-05
-5.32739e-08
1.12417e-05
-5.22257e-08
1.12931e-05
-5.13821e-08
1.13441e-05
-5.10427e-08
1.13951e-05
-5.09497e-08
1.14457e-05
-5.06471e-08
1.14955e-05
-4.98186e-08
1.1544e-05
-4.84232e-08
1.15913e-05
-4.73258e-08
1.16384e-05
-4.71497e-08
1.1686e-05
-4.75402e-08
1.17334e-05
-4.74454e-08
1.17795e-05
-4.61005e-08
1.18246e-05
-4.50945e-08
1.18693e-05
-4.47154e-08
1.19153e-05
-4.59417e-08
1.19587e-05
-4.34323e-08
1.20025e-05
-4.37855e-08
1.20488e-05
-4.6255e-08
1.21002e-05
-5.14025e-08
1.21511e-05
-5.09172e-08
1.21997e-05
-4.8641e-08
1.22469e-05
-4.71485e-08
1.22937e-05
-4.68431e-08
1.23413e-05
-4.75656e-08
-5.25948e-08
2.59801e-05
-1.04875e-05
3.25208e-05
-1.1552e-05
3.52155e-05
-7.33785e-06
3.59961e-05
-5.5308e-06
3.6444e-05
-4.18595e-06
3.63327e-05
-3.16946e-06
3.60424e-05
-2.35689e-06
3.55401e-05
-1.51522e-06
3.48933e-05
-1.29373e-06
3.42874e-05
-1.60507e-06
3.36813e-05
-1.99229e-06
3.31492e-05
-2.01262e-06
3.20903e-05
-1.05122e-06
3.0207e-05
1.49692e-06
2.69981e-05
5.10902e-06
2.27463e-05
8.40258e-06
1.786e-05
1.03692e-05
1.33788e-05
1.10738e-05
1.06067e-05
1.19848e-05
9.31751e-06
1.19297e-05
7.56967e-06
8.54219e-06
4.54619e-06
6.69839e-06
1.60655e-06
6.2534e-06
-6.63532e-07
5.14038e-06
-2.77141e-06
4.04527e-06
-4.88437e-06
3.97851e-06
-6.93136e-06
4.38699e-06
-9.12581e-06
4.693e-06
-1.14988e-05
4.97782e-06
-1.39114e-05
4.88526e-06
-1.61711e-05
4.39672e-06
-1.81159e-05
3.99235e-06
-1.97286e-05
3.70498e-06
-2.11818e-05
3.15295e-06
-2.25306e-05
2.40118e-06
-2.393e-05
2.2669e-06
-2.54118e-05
2.81379e-06
-2.7035e-05
3.60543e-06
-2.87151e-05
4.14403e-06
-3.03853e-05
3.93623e-06
-3.19941e-05
3.0254e-06
-3.33176e-05
2.19567e-06
-3.44575e-05
2.02476e-06
-3.57528e-05
2.45218e-06
-3.7274e-05
3.15573e-06
-3.89245e-05
3.63167e-06
-4.06447e-05
3.61772e-06
-4.23226e-05
3.06109e-06
-4.36843e-05
2.31527e-06
-4.47581e-05
1.87618e-06
-4.5638e-05
1.63321e-06
-4.64826e-05
1.60643e-06
-4.73896e-05
1.54918e-06
-4.83614e-05
1.56941e-06
-4.94411e-05
1.93006e-06
-5.06081e-05
2.42912e-06
-5.161e-05
2.57266e-06
-5.2414e-05
2.35139e-06
-5.31339e-05
1.98284e-06
-5.40213e-05
1.82903e-06
-5.51358e-05
1.98951e-06
-5.63594e-05
2.29436e-06
-5.75448e-05
2.33177e-06
-5.85105e-05
1.79838e-06
-5.90803e-05
7.11095e-07
-5.92041e-05
-4.74283e-07
-5.90761e-05
-1.10828e-06
-5.88698e-05
-1.30006e-06
-5.86902e-05
-1.33817e-06
-5.87012e-05
-1.4424e-06
-5.87797e-05
-1.74069e-06
-5.8607e-05
-2.60204e-06
-5.79023e-05
-4.11977e-06
-5.6614e-05
-5.6902e-06
-5.46248e-05
-7.04456e-06
-5.18309e-05
-8.01284e-06
-4.79584e-05
-8.73097e-06
-4.32116e-05
-9.17121e-06
-3.8143e-05
-8.32886e-06
-3.34787e-05
-6.01589e-06
-2.83993e-05
-3.70113e-06
-2.39584e-05
-2.06282e-06
-2.22341e-05
2.35341e-07
-2.31115e-05
2.59055e-06
-2.43031e-05
2.8645e-06
-2.54326e-05
1.6869e-06
-2.6551e-05
1.37936e-06
-2.76771e-05
1.37806e-06
-2.82048e-05
7.15012e-07
-2.82478e-05
8.40004e-08
-2.80745e-05
-2.10762e-07
-2.80397e-05
-3.03102e-07
-2.79422e-05
-8.47577e-07
-2.7954e-05
-1.03988e-06
-2.79589e-05
-1.73138e-06
-2.78766e-05
-2.49782e-06
-2.77189e-05
-3.26051e-06
-2.68653e-05
-4.07813e-06
-2.52699e-05
-4.708e-06
-2.24474e-05
-4.41993e-06
-1.88993e-05
-3.71215e-06
-1.53311e-05
-3.27722e-06
-1.31908e-05
-1.50794e-06
-1.23365e-05
-3.49518e-07
-1.17921e-05
2.16027e-07
-1.18891e-05
4.87417e-07
-1.2196e-05
3.90688e-07
-1.27181e-05
6.51646e-07
-1.34184e-05
9.31067e-07
-1.3806e-05
6.34631e-07
-1.38278e-05
2.29317e-07
-1.39041e-05
2.60463e-07
-1.40121e-05
1.05089e-07
-1.41585e-05
-7.4702e-08
-1.44175e-05
-2.95118e-07
-1.45837e-05
-6.22165e-07
-1.47511e-05
-9.71243e-07
-1.44583e-05
-9.79021e-07
-1.3654e-05
-8.15847e-07
-1.24956e-05
-9.79432e-07
-1.17192e-05
-4.4269e-07
-1.15889e-05
1.28866e-07
-1.15647e-05
4.34183e-07
-1.1742e-05
5.43098e-07
-1.19932e-05
4.69828e-07
-1.24408e-05
6.92747e-07
-1.2796e-05
5.84043e-07
-1.29914e-05
4.24193e-07
-1.31876e-05
4.62747e-07
-1.33817e-05
4.34329e-07
-1.35912e-05
4.21782e-07
-1.38349e-05
4.51753e-07
-1.40498e-05
4.04775e-07
-1.4238e-05
3.83609e-07
-1.44269e-05
3.81969e-07
-1.46098e-05
3.77662e-07
-1.47964e-05
3.7907e-07
-1.49802e-05
3.64912e-07
-1.51649e-05
3.63242e-07
-1.53375e-05
3.44208e-07
-1.55044e-05
3.36002e-07
-1.56657e-05
3.24818e-07
-1.58179e-05
3.07222e-07
-1.59626e-05
2.89968e-07
-1.60993e-05
2.66429e-07
-1.62234e-05
2.44577e-07
-1.63418e-05
2.32205e-07
-1.64509e-05
2.21624e-07
-1.65528e-05
2.06282e-07
-1.66423e-05
1.85501e-07
-1.6724e-05
1.57992e-07
-1.67937e-05
1.36469e-07
-1.68582e-05
1.24689e-07
-1.6915e-05
1.1257e-07
-1.69618e-05
9.61341e-08
-1.69965e-05
7.31694e-08
-1.7021e-05
5.28594e-08
-1.7041e-05
3.81871e-08
-1.70552e-05
2.39479e-08
-1.70603e-05
7.29284e-09
-1.70556e-05
-1.11362e-08
-1.7041e-05
-2.92132e-08
-1.70189e-05
-4.21963e-08
-1.6989e-05
-5.80129e-08
-1.6949e-05
-8.08853e-08
-1.68986e-05
-1.01746e-07
-1.68407e-05
-1.14553e-07
-1.67763e-05
-1.24805e-07
-1.67066e-05
-1.42146e-07
-1.66235e-05
-1.67671e-07
-1.65294e-05
-1.89439e-07
-1.64263e-05
-2.02071e-07
-1.63192e-05
-2.12551e-07
-1.62035e-05
-2.28074e-07
-1.60807e-05
-2.48742e-07
-1.59461e-05
-2.71296e-07
-1.58023e-05
-2.88812e-07
-1.56503e-05
-3.02773e-07
-1.54887e-05
-3.18649e-07
-1.53191e-05
-3.36301e-07
-1.51439e-05
-3.4794e-07
-1.49638e-05
-3.58726e-07
-1.47757e-05
-3.74002e-07
-1.45801e-05
-3.92921e-07
-1.43722e-05
-4.17464e-07
-1.41539e-05
-4.37444e-07
-1.3927e-05
-4.50317e-07
-1.36933e-05
-4.6084e-07
-1.34566e-05
-4.69909e-07
-1.32159e-05
-4.82588e-07
-1.29667e-05
-5.01308e-07
-1.27077e-05
-5.20817e-07
-1.24364e-05
-5.42178e-07
-1.21541e-05
-5.57987e-07
-1.18653e-05
-5.69894e-07
-1.15713e-05
-5.82397e-07
-1.12721e-05
-5.96536e-07
-1.09652e-05
-6.17457e-07
-1.06436e-05
-6.45983e-07
-1.031e-05
-6.69325e-07
-9.96889e-06
-6.8136e-07
-9.62343e-06
-6.87748e-07
-9.26834e-06
-7.03524e-07
-8.90056e-06
-7.2853e-07
-8.52285e-06
-7.55594e-07
-8.13699e-06
-7.7823e-07
-7.74438e-06
-7.91768e-07
-7.34468e-06
-8.01709e-07
-6.93536e-06
-8.15586e-07
-6.51609e-06
-8.36192e-07
-6.09013e-06
-8.5731e-07
-5.66304e-06
-8.64342e-07
-5.23803e-06
-8.5543e-07
-4.81015e-06
-8.51569e-07
-4.3772e-06
-8.65715e-07
-3.94147e-06
-8.79687e-07
-3.50746e-06
-8.79248e-07
-3.07796e-06
-8.69578e-07
-2.65633e-06
-8.44849e-07
-2.24702e-06
-8.14297e-07
-1.84831e-06
-7.9531e-07
-1.45807e-06
-7.84295e-07
-1.07464e-06
-7.73924e-07
-7.02538e-07
-7.51481e-07
-3.43602e-07
-7.21078e-07
3.66199e-10
-6.81861e-07
3.28123e-07
-6.47285e-07
6.40723e-07
-6.20872e-07
9.41407e-07
-5.99707e-07
1.23241e-06
-5.83275e-07
1.51313e-06
-5.63739e-07
1.78273e-06
-5.38675e-07
2.03938e-06
-5.0864e-07
2.28465e-06
-4.86874e-07
2.52197e-06
-4.73224e-07
2.75344e-06
-4.60653e-07
2.9783e-06
-4.4782e-07
3.19568e-06
-4.33912e-07
3.40441e-06
-4.17041e-07
3.60432e-06
-4.00674e-07
3.79608e-06
-3.86174e-07
3.98192e-06
-3.73204e-07
4.16394e-06
-3.62067e-07
4.34265e-06
-3.5355e-07
4.51713e-06
-3.46498e-07
4.68702e-06
-3.39898e-07
4.85172e-06
-3.32249e-07
5.01216e-06
-3.23174e-07
5.16795e-06
-3.09758e-07
5.32062e-06
-3.02591e-07
5.47204e-06
-3.02081e-07
5.62155e-06
-2.99654e-07
5.7675e-06
-2.93399e-07
5.90986e-06
-2.86644e-07
6.04973e-06
-2.79839e-07
6.18889e-06
-2.76241e-07
6.32704e-06
-2.74389e-07
6.46335e-06
-2.71494e-07
6.59739e-06
-2.67794e-07
6.72814e-06
-2.63027e-07
6.85668e-06
-2.58456e-07
6.98517e-06
-2.56436e-07
7.11375e-06
-2.554e-07
7.24116e-06
-2.53816e-07
7.36695e-06
-2.52049e-07
7.49054e-06
-2.48036e-07
7.61104e-06
-2.41445e-07
7.72999e-06
-2.36246e-07
7.84791e-06
-2.34346e-07
7.96553e-06
-2.34545e-07
8.08173e-06
-2.32587e-07
8.19569e-06
-2.28649e-07
8.30724e-06
-2.24077e-07
8.41654e-06
-2.18805e-07
8.52387e-06
-2.13199e-07
8.6289e-06
-2.08707e-07
8.73135e-06
-2.04338e-07
8.83117e-06
-1.99777e-07
8.92861e-06
-1.95164e-07
9.02373e-06
-1.90265e-07
9.11624e-06
-1.85155e-07
9.20532e-06
-1.7834e-07
9.28988e-06
-1.69051e-07
9.37135e-06
-1.61685e-07
9.45003e-06
-1.56563e-07
9.52532e-06
-1.50313e-07
9.59655e-06
-1.42548e-07
9.66349e-06
-1.34231e-07
9.72652e-06
-1.26189e-07
9.78532e-06
-1.17203e-07
9.83981e-06
-1.07959e-07
9.88997e-06
-9.94985e-08
9.93561e-06
-9.08353e-08
9.97633e-06
-8.16559e-08
1.00124e-05
-7.25074e-08
1.00438e-05
-6.27848e-08
1.00706e-05
-5.26025e-08
1.00923e-05
-4.24456e-08
1.01083e-05
-3.18073e-08
1.01189e-05
-2.19453e-08
1.01251e-05
-1.2832e-08
1.01266e-05
-2.62547e-09
1.01229e-05
8.26866e-09
1.01134e-05
1.91792e-08
1.00983e-05
2.93966e-08
1.00789e-05
3.86752e-08
1.00549e-05
4.86424e-08
1.00253e-05
5.94084e-08
9.9903e-06
6.97253e-08
9.95062e-06
7.87592e-08
9.90646e-06
8.78363e-08
9.85757e-06
9.79352e-08
9.80345e-06
1.08627e-07
9.74424e-06
1.18129e-07
9.68088e-06
1.26058e-07
9.61351e-06
1.34244e-07
9.54192e-06
1.43177e-07
9.46591e-06
1.52005e-07
9.38525e-06
1.60756e-07
9.30027e-06
1.68943e-07
9.21146e-06
1.76675e-07
9.11885e-06
1.84833e-07
9.02243e-06
1.92903e-07
8.92199e-06
2.00471e-07
8.81726e-06
2.08321e-07
8.70824e-06
2.16742e-07
8.59525e-06
2.25418e-07
8.47849e-06
2.33344e-07
8.35791e-06
2.4066e-07
8.23311e-06
2.48422e-07
8.10393e-06
2.56988e-07
7.97037e-06
2.66547e-07
7.83262e-06
2.75814e-07
7.69091e-06
2.83597e-07
7.54552e-06
2.90495e-07
7.39626e-06
2.97646e-07
7.24331e-06
3.05032e-07
7.08701e-06
3.12265e-07
6.92734e-06
3.19694e-07
6.7642e-06
3.26697e-07
6.5976e-06
3.32919e-07
6.42809e-06
3.38463e-07
6.25586e-06
3.43788e-07
6.08065e-06
3.49936e-07
5.90317e-06
3.55474e-07
5.72385e-06
3.59414e-07
5.54249e-06
3.62839e-07
5.35919e-06
3.6606e-07
5.17417e-06
3.69553e-07
4.98773e-06
3.7318e-07
4.80012e-06
3.76083e-07
4.61148e-06
3.77574e-07
4.42198e-06
3.78534e-07
4.23194e-06
3.8019e-07
4.0415e-06
3.81588e-07
3.85056e-06
3.82051e-07
3.65929e-06
3.82188e-07
3.46836e-06
3.81643e-07
3.27813e-06
3.80576e-07
3.08861e-06
3.79216e-07
2.89981e-06
3.77635e-07
2.71191e-06
3.757e-07
2.5253e-06
3.73193e-07
2.34013e-06
3.70639e-07
2.15661e-06
3.67698e-07
1.97487e-06
3.64238e-07
1.79504e-06
3.60024e-07
1.61735e-06
3.5541e-07
1.44201e-06
3.50555e-07
1.26921e-06
3.45679e-07
1.09922e-06
3.4032e-07
9.32218e-07
3.34187e-07
7.68633e-07
3.27141e-07
6.08591e-07
3.19936e-07
4.52093e-07
3.12982e-07
2.99151e-07
3.05808e-07
1.49829e-07
2.9831e-07
4.5208e-09
2.90359e-07
-1.36521e-07
2.82321e-07
-2.73431e-07
2.74323e-07
-4.06322e-07
2.65911e-07
-5.35092e-07
2.57125e-07
-6.59488e-07
2.4827e-07
-7.79722e-07
2.39971e-07
-8.95743e-07
2.31646e-07
-1.00754e-06
2.23323e-07
-1.11498e-06
2.14963e-07
-1.21799e-06
2.06046e-07
-1.3168e-06
1.97275e-07
-1.41139e-06
1.88757e-07
-1.50148e-06
1.80383e-07
-1.58704e-06
1.71591e-07
-1.66848e-06
1.62864e-07
-1.74584e-06
1.54286e-07
-1.81905e-06
1.45942e-07
-1.88768e-06
1.3696e-07
-1.95201e-06
1.28567e-07
-2.01191e-06
1.20295e-07
-2.0678e-06
1.12312e-07
-2.11993e-06
1.04362e-07
-2.16786e-06
9.57119e-08
-2.21154e-06
8.69995e-08
-2.25122e-06
7.90187e-08
-2.28663e-06
7.09832e-08
-2.31787e-06
6.29071e-08
-2.34548e-06
5.57499e-08
-2.36926e-06
4.73818e-08
-2.38976e-06
4.00355e-08
-2.40625e-06
3.17217e-08
-2.41802e-06
2.35071e-08
-2.42596e-06
1.64714e-08
-2.42938e-06
8.48553e-09
-2.43022e-06
3.3825e-09
-2.42768e-06
-5.02148e-09
-2.42536e-06
-7.35548e-09
-2.42117e-06
-1.2225e-08
-2.40878e-06
-2.34236e-08
-2.39248e-06
-2.7349e-08
-2.36937e-06
-3.51125e-08
-2.34606e-06
-4.32238e-08
-2.34076e-06
-2.6099e-08
-2.33888e-06
-2.71782e-08
-2.31788e-06
-5.10262e-08
-2.28164e-06
-4.88739e-08
-2.19963e-06
-9.3527e-08
-2.10586e-06
-1.23611e-07
-1.93629e-06
-1.92653e-07
-1.72985e-06
-2.67821e-07
-1.57069e-06
-2.37353e-07
-1.47109e-06
-2.68604e-07
-1.42906e-06
-2.68869e-07
-1.37216e-06
-2.26274e-07
-1.31371e-06
-1.93229e-07
-1.23586e-06
-1.81491e-07
-1.1594e-06
-1.60598e-07
-1.07068e-06
-1.63928e-07
-9.84149e-07
-1.63612e-07
-9.0197e-07
-1.58806e-07
-8.63164e-07
-1.14318e-07
-8.47957e-07
-8.60052e-08
-7.81923e-07
-1.44736e-07
-6.95106e-07
-1.21053e-07
-5.20645e-07
-1.91705e-07
-3.31572e-07
-2.50353e-07
3.98311e-09
-3.78454e-07
4.09541e-07
-5.10991e-07
7.35108e-07
-4.67757e-07
9.39729e-07
-5.15419e-07
1.02661e-06
-5.05946e-07
1.13082e-06
-4.27148e-07
1.24257e-06
-3.86302e-07
1.35334e-06
-3.02223e-07
1.45462e-06
-2.68714e-07
1.55368e-06
-2.36709e-07
1.65014e-06
-2.19488e-07
1.74863e-06
-2.00975e-07
1.84566e-06
-1.78926e-07
1.97066e-06
-2.06249e-07
2.03961e-06
-1.42733e-07
2.04427e-06
-7.0959e-08
2.07538e-06
-1.22988e-07
2.06766e-06
-3.70726e-08
2.17813e-06
-9.79947e-08
2.40204e-06
-2.60115e-07
2.96637e-06
-5.23236e-07
3.58898e-06
-6.59895e-07
4.21637e-06
-7.88561e-07
4.82321e-06
-9.92164e-07
5.33225e-06
-1.02406e-06
5.6584e-06
-9.89712e-07
5.88173e-06
-9.50216e-07
6.08414e-06
-8.50956e-07
6.2999e-06
-7.09234e-07
6.50962e-06
-5.87342e-07
6.70773e-06
-5.00844e-07
6.89437e-06
-4.44608e-07
7.07138e-06
-4.00157e-07
7.23752e-06
-3.61983e-07
7.39552e-06
-3.32733e-07
7.5466e-06
-3.14434e-07
7.68989e-06
-2.96107e-07
7.82542e-06
-2.762e-07
7.95508e-06
-2.63631e-07
8.07962e-06
-2.51999e-07
8.19916e-06
-2.39233e-07
8.31485e-06
-2.33242e-07
8.42679e-06
-2.24855e-07
8.53523e-06
-2.15777e-07
8.64036e-06
-2.07524e-07
8.74292e-06
-2.05708e-07
8.84259e-06
-2.0049e-07
8.93912e-06
-1.91854e-07
9.03274e-06
-1.84453e-07
9.12395e-06
-1.79912e-07
9.2127e-06
-1.76485e-07
9.2993e-06
-1.72881e-07
9.38408e-06
-1.68785e-07
9.46747e-06
-1.65876e-07
9.5481e-06
-1.60741e-07
9.62641e-06
-1.57235e-07
9.7034e-06
-1.51073e-07
9.77928e-06
-1.48558e-07
9.85414e-06
-1.49468e-07
9.92804e-06
-1.49843e-07
1.00007e-05
-1.48564e-07
1.00723e-05
-1.46125e-07
1.01432e-05
-1.43503e-07
1.02128e-05
-1.40357e-07
1.02813e-05
-1.37699e-07
1.03489e-05
-1.35711e-07
1.04153e-05
-1.33684e-07
1.04802e-05
-1.31103e-07
1.05439e-05
-1.27573e-07
1.06064e-05
-1.27855e-07
1.06675e-05
-1.25745e-07
1.07275e-05
-1.20617e-07
1.07865e-05
-1.16588e-07
1.08447e-05
-1.1431e-07
1.0902e-05
-1.1285e-07
1.09584e-05
-1.11853e-07
1.10139e-05
-1.11053e-07
1.10689e-05
-1.10255e-07
1.11233e-05
-1.09327e-07
1.11771e-05
-1.0805e-07
1.12301e-05
-1.06334e-07
1.12824e-05
-1.0444e-07
1.13339e-05
-1.02888e-07
1.13848e-05
-1.01955e-07
1.14353e-05
-1.01428e-07
1.14852e-05
-1.00545e-07
1.15339e-05
-9.85778e-08
1.15818e-05
-9.62958e-08
1.16295e-05
-9.49909e-08
1.16772e-05
-9.48879e-08
1.17246e-05
-9.48849e-08
1.1771e-05
-9.38847e-08
1.18166e-05
-9.17307e-08
1.18626e-05
-9.10864e-08
1.19089e-05
-9.09909e-08
1.19547e-05
-9.17076e-08
1.19996e-05
-8.83339e-08
1.20442e-05
-8.84086e-08
1.209e-05
-9.19554e-08
1.21355e-05
-9.69093e-08
1.21803e-05
-9.57331e-08
1.22246e-05
-9.29347e-08
1.22684e-05
-9.10161e-08
1.23119e-05
-9.02873e-08
1.2355e-05
-9.06952e-08
-9.15014e-08
4.01691e-05
-3.43484e-05
4.99537e-05
-2.13366e-05
4.68207e-05
-4.20493e-06
4.17735e-05
-4.83595e-07
3.78246e-05
-2.37094e-07
3.47604e-05
-1.05201e-07
3.1888e-05
5.15621e-07
2.88462e-05
1.52666e-06
2.52526e-05
2.29994e-06
2.12225e-05
2.42495e-06
1.72058e-05
2.02438e-06
1.36115e-05
1.5816e-06
1.05814e-05
1.97881e-06
8.096e-06
3.98213e-06
6.01548e-06
7.18937e-06
4.67757e-06
9.74035e-06
3.90698e-06
1.11398e-05
3.31247e-06
1.16683e-05
3.33952e-06
1.19577e-05
3.94339e-06
1.1326e-05
3.05915e-06
9.42697e-06
1.0378e-06
8.7207e-06
-9.72643e-07
8.26438e-06
-2.98314e-06
7.14864e-06
-5.11056e-06
6.17227e-06
-6.94096e-06
5.80944e-06
-8.54888e-06
5.99789e-06
-1.0399e-05
6.54707e-06
-1.24684e-05
7.04733e-06
-1.46055e-05
7.02231e-06
-1.67141e-05
6.50537e-06
-1.84165e-05
5.68427e-06
-1.97008e-05
4.98733e-06
-2.09685e-05
4.42051e-06
-2.26004e-05
4.03302e-06
-2.44075e-05
4.07428e-06
-2.59648e-05
4.37623e-06
-2.72243e-05
4.88221e-06
-2.83784e-05
5.29889e-06
-2.96568e-05
5.20259e-06
-3.1207e-05
4.56623e-06
-3.28468e-05
3.83492e-06
-3.43994e-05
3.57856e-06
-3.58955e-05
3.95712e-06
-3.7354e-05
4.6247e-06
-3.8778e-05
5.05565e-06
-4.03042e-05
5.14397e-06
-4.20127e-05
4.75107e-06
-4.36804e-05
3.97883e-06
-4.51257e-05
3.32121e-06
-4.64e-05
2.90748e-06
-4.75477e-05
2.75417e-06
-4.87366e-05
2.73982e-06
-4.99151e-05
2.76147e-06
-5.09523e-05
2.98493e-06
-5.17518e-05
3.22863e-06
-5.22969e-05
3.11775e-06
-5.26924e-05
2.72759e-06
-5.31714e-05
2.45907e-06
-5.38862e-05
2.56847e-06
-5.49356e-05
3.03924e-06
-5.60841e-05
3.44288e-06
-5.7136e-05
3.3841e-06
-5.81136e-05
2.75062e-06
-5.9002e-05
1.58554e-06
-5.96615e-05
1.83881e-07
-6.00612e-05
-7.05988e-07
-6.02384e-05
-1.10989e-06
-6.03231e-05
-1.24031e-06
-6.0509e-05
-1.25653e-06
-6.07756e-05
-1.474e-06
-6.11998e-05
-2.20263e-06