/*--------------------------------*- C++ -*----------------------------------*\
| =========                 |                                                 |
| \\      /  F ield         | OpenFOAM: The Open Source CFD Toolbox           |
|  \\    /   O peration     | Version:  v2006                                 |
|   \\  /    A nd           | Website:  www.openfoam.com                      |
|    \\/     M anipulation  |                                                 |
\*---------------------------------------------------------------------------*/
FoamFile
{
    version     2.0;
    format      ascii;
    class       volScalarField;
    location    "6.3";
    object      nut;
}
// * * * * * * * * * * * * * * * * * * * * * * * * * * * * * * * * * * * * * //

dimensions      [0 2 -1 0 0 0 0];


internalField   nonuniform List<scalar> 
33000
(
1.55854e-08
2.51177e-09
3.11505e-09
2.21754e-09
2.43088e-09
2.38415e-09
2.47651e-09
2.68564e-09
2.93803e-09
3.25503e-09
3.54655e-09
3.84735e-09
4.00563e-09
4.05069e-09
4.28249e-09
4.70123e-09
5.43231e-09
6.43784e-09
8.6872e-09
1.51326e-08
3.32811e-08
6.85979e-08
7.40427e-08
9.56348e-08
1.35275e-07
1.37059e-07
1.04503e-07
8.4994e-08
7.08387e-08
6.12365e-08
5.57088e-08
5.10551e-08
4.4979e-08
4.05887e-08
3.87394e-08
3.86131e-08
3.76387e-08
3.47917e-08
3.11145e-08
2.79764e-08
2.64029e-08
2.60736e-08
2.56855e-08
2.49705e-08
2.38386e-08
2.22745e-08
2.0733e-08
1.9717e-08
1.91322e-08
1.85851e-08
1.80812e-08
1.75848e-08
1.72211e-08
1.712e-08
1.70954e-08
1.68737e-08
1.6423e-08
1.58326e-08
1.52742e-08
1.48255e-08
1.44197e-08
1.37926e-08
1.29028e-08
1.19559e-08
1.10613e-08
1.03251e-08
9.78915e-09
9.3355e-09
8.87189e-09
8.44421e-09
8.05137e-09
7.68268e-09
7.42152e-09
7.43012e-09
7.77024e-09
8.52488e-09
1.00162e-08
1.26763e-08
1.55577e-08
2.06898e-08
2.33663e-08
2.29127e-08
2.40239e-08
2.46874e-08
2.46577e-08
2.42883e-08
2.43297e-08
2.32852e-08
2.2407e-08
2.15221e-08
2.12145e-08
2.01779e-08
1.91153e-08
1.80295e-08
1.66759e-08
1.59844e-08
1.59397e-08
1.75955e-08
2.1162e-08
3.02226e-08
3.27275e-08
3.08862e-08
3.04382e-08
3.39237e-08
3.84093e-08
3.95321e-08
3.90797e-08
3.66044e-08
3.37303e-08
3.09154e-08
3.05178e-08
3.01355e-08
2.89453e-08
2.73488e-08
2.58929e-08
2.54056e-08
2.71807e-08
3.45005e-08
3.60708e-08
3.37729e-08
3.2262e-08
3.24225e-08
3.40869e-08
3.39464e-08
3.39108e-08
3.25312e-08
3.11667e-08
3.07124e-08
3.04234e-08
2.99883e-08
2.9619e-08
2.90546e-08
2.85477e-08
2.81416e-08
2.77491e-08
2.73839e-08
2.70342e-08
2.66688e-08
2.63325e-08
2.59958e-08
2.56949e-08
2.53807e-08
2.50976e-08
2.48256e-08
2.4567e-08
2.43281e-08
2.40996e-08
2.38813e-08
2.36759e-08
2.3475e-08
2.32921e-08
2.31343e-08
2.29798e-08
2.28329e-08
2.26971e-08
2.25727e-08
2.24607e-08
2.23563e-08
2.22585e-08
2.21695e-08
2.20885e-08
2.20213e-08
2.19664e-08
2.19123e-08
2.18678e-08
2.18398e-08
2.18233e-08
2.18106e-08
2.17952e-08
2.17882e-08
2.17982e-08
2.18227e-08
2.18562e-08
2.18912e-08
2.19298e-08
2.19855e-08
2.20649e-08
2.21641e-08
2.22765e-08
2.24066e-08
2.25605e-08
2.27319e-08
2.29221e-08
2.3124e-08
2.33486e-08
2.36163e-08
2.39236e-08
2.4259e-08
2.46113e-08
2.49766e-08
2.53727e-08
2.58043e-08
2.62798e-08
2.6804e-08
2.73517e-08
2.79184e-08
2.85174e-08
2.91454e-08
2.98304e-08
3.0612e-08
3.14969e-08
3.24436e-08
3.3413e-08
3.44474e-08
3.55952e-08
3.69278e-08
3.8472e-08
4.01894e-08
4.20779e-08
4.4181e-08
4.66868e-08
4.98029e-08
5.35034e-08
5.75302e-08
6.20001e-08
6.76566e-08
7.48327e-08
8.38441e-08
9.5332e-08
1.08972e-07
1.25169e-07
1.45385e-07
1.51277e-07
1.52007e-07
1.52852e-07
1.53736e-07
1.54536e-07
1.55232e-07
1.55823e-07
1.56344e-07
1.5684e-07
1.5731e-07
1.55515e-07
1.41287e-07
1.289e-07
1.18539e-07
1.09854e-07
1.02425e-07
9.61633e-08
9.08272e-08
8.60856e-08
8.18843e-08
7.81951e-08
7.48946e-08
7.18661e-08
6.90167e-08
6.63832e-08
6.39516e-08
6.18236e-08
5.99308e-08
5.80376e-08
5.61968e-08
5.44999e-08
5.2916e-08
5.14413e-08
5.00666e-08
4.87336e-08
4.74466e-08
4.62169e-08
4.50422e-08
4.39242e-08
4.28621e-08
4.18378e-08
4.08389e-08
3.98644e-08
3.89216e-08
3.80306e-08
3.7195e-08
3.63874e-08
3.55793e-08
3.47869e-08
3.40305e-08
3.33042e-08
3.26068e-08
3.19421e-08
3.12959e-08
3.06604e-08
3.00438e-08
2.94468e-08
2.88684e-08
2.83058e-08
2.77582e-08
2.72367e-08
2.67384e-08
2.62451e-08
2.57584e-08
2.5287e-08
2.48333e-08
2.43929e-08
2.39651e-08
2.35505e-08
2.3144e-08
2.27437e-08
2.23527e-08
2.19714e-08
2.15987e-08
2.12351e-08
2.08777e-08
2.0524e-08
2.01747e-08
1.98281e-08
1.9485e-08
1.91459e-08
1.88053e-08
1.84572e-08
1.80979e-08
1.77389e-08
1.73923e-08
1.70646e-08
1.67563e-08
1.64689e-08
1.6205e-08
1.59651e-08
1.57461e-08
1.55456e-08
1.53661e-08
1.52107e-08
1.50775e-08
1.49654e-08
1.48755e-08
1.48077e-08
1.47631e-08
1.47428e-08
1.47451e-08
1.47699e-08
1.4819e-08
1.48937e-08
1.49928e-08
1.5113e-08
1.52531e-08
1.54132e-08
1.55969e-08
1.58079e-08
1.60439e-08
1.63006e-08
1.65766e-08
1.68714e-08
1.71841e-08
1.75154e-08
1.78666e-08
1.82354e-08
1.86235e-08
1.90336e-08
1.94692e-08
1.99395e-08
2.04435e-08
2.09769e-08
2.15431e-08
2.21486e-08
2.28034e-08
2.35163e-08
2.42853e-08
2.51039e-08
2.59933e-08
2.69796e-08
2.80621e-08
2.92446e-08
3.05497e-08
3.19963e-08
3.36055e-08
3.53991e-08
3.74125e-08
3.96776e-08
4.22455e-08
4.51867e-08
4.85887e-08
5.25473e-08
5.23594e-08
5.20336e-08
5.17162e-08
5.14078e-08
5.11068e-08
5.08127e-08
5.05255e-08
5.02462e-08
4.99745e-08
4.97092e-08
4.94503e-08
4.9196e-08
4.89388e-08
4.86703e-08
4.8389e-08
4.80964e-08
4.77938e-08
4.74833e-08
4.71634e-08
4.6837e-08
4.65018e-08
4.61589e-08
4.58099e-08
4.54566e-08
4.50978e-08
4.47333e-08
4.43647e-08
4.39927e-08
4.36181e-08
4.32402e-08
4.2862e-08
4.15618e-08
4.01285e-08
3.88243e-08
3.76797e-08
3.66238e-08
3.56927e-08
3.48169e-08
3.40575e-08
3.33127e-08
3.27039e-08
3.20922e-08
3.16237e-08
3.11598e-08
3.07949e-08
3.04584e-08
3.01456e-08
2.99014e-08
2.95685e-08
2.93632e-08
2.92839e-08
2.92094e-08
2.92449e-08
2.91958e-08
2.85816e-08
2.83213e-08
2.8565e-08
2.88578e-08
3.04623e-08
3.10783e-08
3.04608e-08
2.99963e-08
2.9774e-08
3.22452e-08
3.27579e-08
3.3401e-08
3.36502e-08
3.38927e-08
3.38972e-08
3.39116e-08
3.384e-08
3.38286e-08
3.37421e-08
3.36795e-08
3.37008e-08
3.33795e-08
3.30258e-08
3.30758e-08
3.26307e-08
3.27672e-08
3.24265e-08
3.39096e-08
3.46968e-08
3.556e-08
3.6003e-08
3.6295e-08
3.64311e-08
3.65175e-08
3.6533e-08
3.6524e-08
3.63513e-08
3.559e-08
3.52273e-08
3.51736e-08
3.40775e-08
3.53444e-08
2.98016e-08
2.59787e-08
2.31419e-08
2.24306e-08
2.06064e-08
1.79577e-08
1.59829e-08
1.37997e-08
1.39291e-08
1.45892e-08
1.51543e-08
1.55128e-08
1.56759e-08
1.57105e-08
1.56756e-08
1.55978e-08
1.54733e-08
1.53097e-08
1.51471e-08
1.49816e-08
1.48036e-08
1.46356e-08
1.4465e-08
1.42881e-08
1.41201e-08
1.39659e-08
1.38068e-08
1.36396e-08
1.34848e-08
1.33426e-08
1.32039e-08
1.30643e-08
1.2925e-08
1.27906e-08
1.26596e-08
1.25331e-08
1.24057e-08
1.22854e-08
1.21736e-08
1.20568e-08
1.19345e-08
1.18131e-08
1.16946e-08
1.15797e-08
1.14685e-08
1.13598e-08
1.12526e-08
1.11471e-08
1.10424e-08
1.09444e-08
1.0847e-08
1.07454e-08
1.06508e-08
1.05637e-08
1.0478e-08
1.03924e-08
1.03071e-08
1.02219e-08
1.01371e-08
1.00531e-08
9.97038e-09
9.88924e-09
9.80998e-09
9.73262e-09
9.6564e-09
9.58044e-09
9.50519e-09
9.43117e-09
9.35936e-09
9.2905e-09
9.22331e-09
9.15592e-09
9.08822e-09
9.0224e-09
8.95934e-09
8.8985e-09
8.83499e-09
8.77285e-09
8.7164e-09
8.65534e-09
8.59637e-09
8.52271e-09
8.4854e-09
8.3579e-09
8.48298e-09
7.98555e-09
8.44706e-09
4.10912e-09
4.09832e-09
4.65532e-09
7.87277e-09
1.26715e-08
3.89554e-08
4.1496e-08
2.99471e-08
3.17311e-08
4.0721e-08
5.48486e-08
7.61373e-08
9.94024e-08
1.11127e-07
1.21137e-07
1.23686e-07
1.02974e-07
1.01044e-07
1.17526e-07
1.3022e-07
1.36167e-07
1.15743e-07
9.21317e-08
7.67964e-08
5.98972e-08
5.27451e-08
5.2721e-08
4.90521e-08
4.53989e-08
4.12801e-08
3.86696e-08
3.99101e-08
4.22943e-08
3.96513e-08
3.63033e-08
3.4127e-08
3.33893e-08
3.46643e-08
3.72539e-08
3.52185e-08
2.96752e-08
3.09966e-08
3.41357e-08
2.9552e-08
2.78482e-08
2.83528e-08
2.62532e-08
2.34875e-08
2.44507e-08
2.8586e-08
3.26761e-08
3.17638e-08
2.85339e-08
2.80978e-08
2.72848e-08
2.9415e-08
3.66695e-08
4.17286e-08
4.33022e-08
3.76729e-08
2.84995e-08
2.57775e-08
2.81679e-08
3.06188e-08
3.18625e-08
4.29332e-08
5.46515e-08
6.12175e-08
5.97858e-08
5.56739e-08
5.21126e-08
4.66016e-08
4.14196e-08
3.85079e-08
3.69711e-08
3.62976e-08
3.5745e-08
3.79219e-08
4.87322e-08
7.4067e-08
9.63112e-08
1.12246e-07
1.17057e-07
1.11782e-07
1.05904e-07
9.60345e-08
9.02542e-08
8.42715e-08
7.39969e-08
6.90992e-08
7.45293e-08
4.11789e-08
3.61855e-08
3.56176e-08
3.26624e-08
3.50123e-08
4.21866e-08
4.26129e-08
4.51234e-08
3.9131e-08
3.2268e-08
2.68046e-08
2.91804e-08
2.67408e-08
1.86011e-08
1.57577e-08
1.83588e-08
2.52298e-08
1.85012e-08
2.81373e-08
9.04332e-08
9.33306e-08
3.88546e-08
3.5146e-08
3.23531e-08
2.5924e-08
2.72733e-08
2.2916e-08
1.48035e-08
1.1283e-08
1.71089e-08
4.41743e-08
3.90946e-08
3.51663e-08
3.4917e-08
2.91129e-08
3.53844e-08
5.67049e-08
6.4726e-08
6.23244e-08
5.80102e-08
5.10677e-08
5.72633e-08
6.53865e-08
6.59413e-08
6.80237e-08
6.68586e-08
6.73309e-08
6.69761e-08
7.03231e-08
7.41028e-08
7.63672e-08
8.06851e-08
8.44818e-08
9.09502e-08
9.77487e-08
1.0262e-07
1.07856e-07
1.18636e-07
1.334e-07
1.40218e-07
1.40005e-07
1.39836e-07
1.39643e-07
1.39438e-07
1.39235e-07
1.39041e-07
1.38857e-07
1.3871e-07
1.38626e-07
1.38579e-07
1.38515e-07
1.38426e-07
1.38366e-07
1.38365e-07
1.38385e-07
1.3839e-07
1.38418e-07
1.38532e-07
1.38717e-07
1.35554e-07
1.27252e-07
1.1973e-07
1.10468e-07
1.02259e-07
9.50095e-08
8.89814e-08
8.41854e-08
7.95193e-08
7.56745e-08
7.34162e-08
7.08381e-08
6.7706e-08
6.43223e-08
6.06456e-08
5.77973e-08
5.57668e-08
5.40859e-08
5.29145e-08
5.1669e-08
4.98536e-08
4.78003e-08
4.55979e-08
4.37801e-08
4.24939e-08
4.1539e-08
4.06058e-08
3.91746e-08
3.73395e-08
3.58861e-08
3.50769e-08
3.43981e-08
3.33035e-08
3.19579e-08
3.08468e-08
3.00873e-08
2.94721e-08
2.88207e-08
2.79706e-08
2.71332e-08
2.65543e-08
2.63748e-08
2.64119e-08
2.60587e-08
2.5549e-08
2.52008e-08
2.51821e-08
2.53562e-08
2.57453e-08
2.63504e-08
2.68583e-08
2.72229e-08
2.75429e-08
2.82565e-08
2.91921e-08
3.0328e-08
3.16687e-08
3.30096e-08
3.4124e-08
3.51045e-08
3.62694e-08
3.76561e-08
3.94108e-08
4.11182e-08
4.2317e-08
4.32302e-08
4.43783e-08
4.58255e-08
4.76071e-08
4.9633e-08
5.16283e-08
5.31587e-08
5.42576e-08
5.51801e-08
5.63938e-08
5.7955e-08
5.96334e-08
6.12413e-08
6.29572e-08
6.42087e-08
6.47491e-08
6.54277e-08
6.69479e-08
6.86236e-08
6.96974e-08
7.00734e-08
7.04734e-08
7.13228e-08
7.25681e-08
7.42625e-08
7.54057e-08
7.52404e-08
7.50957e-08
7.57307e-08
7.66005e-08
7.7948e-08
7.97333e-08
8.0849e-08
8.13533e-08
8.15516e-08
8.22785e-08
8.37759e-08
8.55693e-08
8.71254e-08
8.86795e-08
9.06575e-08
9.28904e-08
9.51125e-08
9.71825e-08
9.93958e-08
1.02043e-07
1.05856e-07
1.11017e-07
1.15608e-07
1.19466e-07
1.24363e-07
1.30964e-07
1.38975e-07
1.4725e-07
1.56872e-07
1.68817e-07
1.82529e-07
1.99634e-07
2.21503e-07
2.26922e-07
2.26264e-07
2.25934e-07
2.25881e-07
2.2588e-07
2.25943e-07
2.25788e-07
2.25429e-07
2.25376e-07
2.25599e-07
2.25895e-07
2.26024e-07
2.26202e-07
2.26676e-07
2.27415e-07
2.28218e-07
2.11704e-07
1.90612e-07
1.71622e-07
1.56537e-07
1.45714e-07
1.3655e-07
1.28102e-07
1.20219e-07
1.12938e-07
1.06905e-07
1.02004e-07
9.76296e-08
9.35068e-08
8.95484e-08
8.56709e-08
8.21831e-08
7.92187e-08
7.65357e-08
7.39897e-08
7.13979e-08
6.89223e-08
6.66766e-08
6.45789e-08
6.27092e-08
6.10139e-08
5.93709e-08
5.78769e-08
5.65787e-08
5.53337e-08
5.4066e-08
5.28452e-08
5.18439e-08
5.09341e-08
4.99944e-08
4.92796e-08
4.86665e-08
4.79999e-08
4.73898e-08
4.68613e-08
4.64229e-08
4.60374e-08
4.56736e-08
4.53666e-08
4.51524e-08
4.49683e-08
4.47538e-08
4.45796e-08
4.45688e-08
4.46446e-08
4.47207e-08
4.48052e-08
4.49347e-08
4.5162e-08
4.54345e-08
4.57624e-08
4.61314e-08
4.65314e-08
4.70137e-08
4.75608e-08
4.81874e-08
4.88979e-08
4.96877e-08
5.06287e-08
5.16644e-08
5.27471e-08
5.38846e-08
5.50953e-08
5.65269e-08
5.81447e-08
5.98077e-08
6.15083e-08
6.33706e-08
6.54903e-08
6.76555e-08
6.99941e-08
7.25191e-08
7.53247e-08
7.84173e-08
8.16082e-08
8.51075e-08
8.91935e-08
9.3699e-08
9.8272e-08
1.03198e-07
1.08855e-07
1.15724e-07
1.23249e-07
1.31868e-07
1.41047e-07
1.50381e-07
1.6305e-07
1.77631e-07
1.95127e-07
2.15971e-07
2.43632e-07
2.69518e-07
3.09353e-07
3.50712e-07
3.74629e-07
3.76223e-07
3.77638e-07
3.7917e-07
3.80351e-07
3.82618e-07
3.84048e-07
3.8427e-07
3.86106e-07
3.85206e-07
3.15246e-07
2.85025e-07
3.92538e-07
3.90454e-07
2.07215e-07
1.48518e-07
8.97522e-08
8.02153e-08
4.69836e-08
3.75765e-08
4.64226e-08
7.0553e-08
1.03961e-07
9.0045e-08
1.06832e-07
9.24328e-08
9.97636e-08
9.02512e-08
9.039e-08
9.52618e-08
1.9745e-07
4.14814e-07
7.85563e-08
5.84344e-08
3.97626e-08
3.77405e-08
2.27783e-08
1.8295e-08
2.19502e-08
3.10408e-08
4.3179e-08
4.13977e-08
4.83663e-08
5.64477e-08
7.01337e-08
7.42054e-08
7.26562e-08
7.1772e-08
7.7839e-08
6.44098e-08
1.13832e-07
1.8673e-07
1.32526e-07
6.76002e-08
3.18842e-08
2.75997e-08
1.3542e-08
1.22979e-08
1.24186e-08
1.02811e-08
1.19277e-08
1.64031e-08
2.25161e-08
2.2598e-08
2.41774e-08
2.98356e-08
3.55201e-08
3.99548e-08
4.32803e-08
4.66941e-08
4.98691e-08
5.25882e-08
5.53244e-08
5.85703e-08
6.15376e-08
6.40252e-08
6.67223e-08
6.91056e-08
7.12708e-08
7.35341e-08
7.59917e-08
7.80022e-08
7.9963e-08
8.24574e-08
8.51438e-08
8.74491e-08
8.96872e-08
9.18671e-08
9.38934e-08
9.55721e-08
9.8213e-08
1.00763e-07
1.02735e-07
1.04749e-07
1.06285e-07
1.07445e-07
1.08926e-07
1.10715e-07
1.12161e-07
1.14035e-07
1.161e-07
1.17985e-07
1.19854e-07
1.2234e-07
1.25288e-07
1.27682e-07
1.2977e-07
1.32429e-07
1.34975e-07
1.3722e-07
1.39215e-07
1.41266e-07
1.43233e-07
1.44847e-07
1.46195e-07
1.47649e-07
1.49601e-07
1.51974e-07
1.54226e-07
1.56138e-07
1.57496e-07
1.59117e-07
1.6231e-07
1.65507e-07
1.6682e-07
1.66747e-07
1.677e-07
1.70422e-07
1.73403e-07
1.72864e-07
1.72103e-07
1.72123e-07
1.76676e-07
1.75639e-07
1.78047e-07
1.7076e-07
1.99976e-07
1.19528e-07
1.76846e-07
5.32935e-08
6.34726e-08
7.32137e-08
1.22021e-09
2.16276e-09
2.88007e-09
3.37452e-09
4.87025e-09
8.42058e-09
1.4021e-08
2.7371e-08
4.92657e-08
9.26546e-08
1.14486e-07
1.20231e-07
1.23727e-07
1.24258e-07
1.23371e-07
1.29433e-07
1.37122e-07
1.44925e-07
1.57126e-07
1.66377e-07
1.54872e-07
1.38797e-07
1.26285e-07
9.96166e-08
6.46808e-08
5.99357e-08
6.15972e-08
5.079e-08
4.32413e-08
3.76724e-08
3.24618e-08
3.24334e-08
3.53105e-08
2.91452e-08
2.01772e-08
1.75145e-08
1.99178e-08
2.45095e-08
2.85265e-08
2.4087e-08
1.6464e-08
1.37898e-08
1.39121e-08
1.3608e-08
1.39653e-08
1.50613e-08
1.36016e-08
1.08262e-08
9.67987e-09
1.01321e-08
1.08107e-08
1.13264e-08
1.11159e-08
1.13517e-08
1.35458e-08
1.87361e-08
2.31934e-08
2.52018e-08
2.89103e-08
2.16471e-08
1.59511e-08
1.61224e-08
1.79467e-08
1.67966e-08
1.60056e-08
1.96261e-08
3.10193e-08
4.98907e-08
6.02626e-08
5.7123e-08
4.68709e-08
3.66056e-08
3.39183e-08
3.57261e-08
4.022e-08
4.78243e-08
5.68075e-08
6.54542e-08
6.90223e-08
7.49678e-08
8.67183e-08
8.86428e-08
9.05117e-08
9.20708e-08
9.11785e-08
8.77393e-08
8.20562e-08
7.46482e-08
6.74912e-08
6.22536e-08
6.04057e-08
6.04513e-08
6.31963e-08
6.89409e-08
3.41458e-08
3.8282e-08
4.57556e-08
5.64251e-08
6.503e-08
6.01913e-08
3.75484e-08
2.97923e-08
1.95079e-08
1.36218e-08
1.00521e-08
9.77546e-09
8.92153e-09
8.09946e-09
7.76218e-09
8.38292e-09
1.06235e-08
1.22457e-08
2.33426e-08
1.98605e-07
2.8303e-08
1.53678e-08
1.38923e-08
1.66606e-08
1.61698e-08
2.09668e-08
1.39853e-08
8.93205e-09
6.19202e-09
8.61131e-09
2.15781e-08
2.04371e-08
2.22345e-08
2.35002e-08
1.92806e-08
2.44171e-08
4.38057e-08
5.18819e-08
5.15813e-08
4.56165e-08
4.05161e-08
3.59788e-08
3.74767e-08
4.46825e-08
4.53708e-08
4.94972e-08
5.02171e-08
5.05635e-08
5.32419e-08
5.77775e-08
6.13388e-08
6.4856e-08
6.70974e-08
7.17944e-08
8.06193e-08
9.1707e-08
1.00594e-07
1.07949e-07
1.17459e-07
1.32408e-07
1.53556e-07
1.86858e-07
2.40377e-07
2.98501e-07
3.21361e-07
3.28405e-07
3.24264e-07
3.19486e-07
2.66339e-07
1.9971e-07
1.69908e-07
1.58748e-07
1.45668e-07
1.24515e-07
1.07747e-07
9.78856e-08
8.91646e-08
8.20208e-08
7.62584e-08
7.06494e-08
6.63946e-08
6.27713e-08
5.82606e-08
5.41401e-08
5.14348e-08
4.99957e-08
4.85012e-08
4.60303e-08
4.36237e-08
4.14864e-08
3.9791e-08
3.84709e-08
3.70731e-08
3.5729e-08
3.47972e-08
3.39918e-08
3.30733e-08
3.2017e-08
3.06982e-08
2.93604e-08
2.83675e-08
2.76705e-08
2.71456e-08
2.65884e-08
2.57945e-08
2.49109e-08
2.41511e-08
2.34561e-08
2.28284e-08
2.2259e-08
2.18806e-08
2.16109e-08
2.11243e-08
2.04845e-08
1.99178e-08
1.96068e-08
1.95857e-08
1.96327e-08
1.94407e-08
1.90841e-08
1.90161e-08
1.90696e-08
1.92064e-08
1.94506e-08
1.96688e-08
1.98955e-08
2.02653e-08
2.07624e-08
2.13569e-08
2.2134e-08
2.27539e-08
2.31705e-08
2.39633e-08
2.50915e-08
2.63396e-08
2.76568e-08
2.87348e-08
2.96723e-08
3.06772e-08
3.20713e-08
3.32817e-08
3.41844e-08
3.53371e-08
3.68777e-08
3.87099e-08
4.03495e-08
4.17493e-08
4.26219e-08
4.31467e-08
4.41418e-08
4.57015e-08
4.76143e-08
4.94887e-08
5.06311e-08
5.09557e-08
5.14602e-08
5.24336e-08
5.38036e-08
5.56328e-08
5.70176e-08
5.7067e-08
5.69295e-08
5.74131e-08
5.84169e-08
6.0039e-08
6.15373e-08
6.21303e-08
6.19035e-08
6.18358e-08
6.26803e-08
6.37724e-08
6.45069e-08
6.53181e-08
6.62135e-08
6.69135e-08
6.75529e-08
6.84169e-08
6.98901e-08
7.17043e-08
7.25658e-08
7.27853e-08
7.39853e-08
7.62297e-08
7.89535e-08
8.13318e-08
8.30659e-08
8.51509e-08
8.80124e-08
9.11105e-08
9.43624e-08
9.84298e-08
1.03362e-07
1.0918e-07
1.16236e-07
1.22533e-07
1.28448e-07
1.36854e-07
1.48379e-07
1.6366e-07
1.83014e-07
2.03653e-07
2.24206e-07
2.49238e-07
2.86674e-07
3.48149e-07
4.40183e-07
5.23328e-07
5.51602e-07
5.34479e-07
4.75987e-07
4.13975e-07
3.60619e-07
3.03308e-07
2.52776e-07
2.19397e-07
1.96776e-07
1.77882e-07
1.61592e-07
1.46675e-07
1.34282e-07
1.25318e-07
1.18163e-07
1.1159e-07
1.04949e-07
9.85623e-08
9.34135e-08
8.93812e-08
8.59717e-08
8.26952e-08
7.92253e-08
7.55819e-08
7.24846e-08
7.01315e-08
6.7941e-08
6.57851e-08
6.34928e-08
6.12595e-08
5.94831e-08
5.79236e-08
5.63316e-08
5.47397e-08
5.32522e-08
5.19603e-08
5.09186e-08
4.99805e-08
4.88811e-08
4.78035e-08
4.69282e-08
4.61403e-08
4.54771e-08
4.50199e-08
4.45644e-08
4.39829e-08
4.34171e-08
4.29946e-08
4.27303e-08
4.24872e-08
4.221e-08
4.19933e-08
4.19207e-08
4.18743e-08
4.1706e-08
4.1574e-08
4.16499e-08
4.18102e-08
4.19392e-08
4.20626e-08
4.22236e-08
4.25134e-08
4.28975e-08
4.33125e-08
4.3683e-08
4.40204e-08
4.45318e-08
4.52144e-08
4.59011e-08
4.65578e-08
4.72912e-08
4.82289e-08
4.92746e-08
5.0383e-08
5.14834e-08
5.26419e-08
5.40737e-08
5.5691e-08
5.73275e-08
5.89181e-08
6.05902e-08
6.25787e-08
6.46754e-08
6.68676e-08
6.94764e-08
7.24311e-08
7.54626e-08
7.82732e-08
8.16667e-08
8.5756e-08
9.03119e-08
9.46441e-08
9.92428e-08
1.04381e-07
1.10906e-07
1.18184e-07
1.26905e-07
1.35827e-07
1.45219e-07
1.5577e-07
1.69164e-07
1.83737e-07
2.02829e-07
2.25687e-07
2.5374e-07
2.98516e-07
3.34982e-07
3.72767e-07
4.02897e-07
4.61027e-07
5.19386e-07
6.42247e-07
9.66798e-07
8.35374e-07
3.40136e-07
3.14072e-07
4.03393e-07
7.63287e-07
2.79618e-07
1.62881e-07
8.82895e-08
8.0981e-08
4.77645e-08
3.88473e-08
4.89248e-08
6.56861e-08
1.00883e-07
9.75808e-08
2.43567e-07
1.92039e-07
1.42802e-07
1.24596e-07
9.63915e-08
2.29802e-07
3.9662e-07
1.21073e-07
6.26941e-08
4.79999e-08
3.41055e-08
3.32591e-08
2.11265e-08
1.76303e-08
2.17787e-08
2.79487e-08
4.03722e-08
4.04467e-08
7.51441e-08
7.9355e-08
1.01403e-07
8.89863e-08
6.60523e-08
7.00179e-08
5.55323e-08
5.78767e-08
1.08242e-07
2.02146e-07
1.08901e-07
5.9198e-08
2.75979e-08
2.40723e-08
1.15862e-08
1.15875e-08
1.26633e-08
9.76482e-09
1.08196e-08
1.36409e-08
2.10056e-08
2.6357e-08
3.49796e-08
4.00758e-08
4.73487e-08
4.63458e-08
4.32239e-08
4.35696e-08
4.54444e-08
4.71763e-08
4.90549e-08
5.07633e-08
5.3578e-08
5.67378e-08
5.937e-08
6.23988e-08
6.4854e-08
6.65018e-08
6.91237e-08
7.13988e-08
7.28775e-08
7.43083e-08
7.72448e-08
7.98485e-08
8.11579e-08
8.24713e-08
8.46904e-08
8.73423e-08
8.98736e-08
9.18236e-08
9.33815e-08
9.50546e-08
9.74647e-08
9.78728e-08
9.97558e-08
1.03866e-07
1.08107e-07
1.11044e-07
1.12979e-07
1.1435e-07
1.15653e-07
1.17224e-07
1.19011e-07
1.21012e-07
1.23096e-07
1.24784e-07
1.29448e-07
1.32717e-07
1.31939e-07
1.31256e-07
1.32745e-07
1.35317e-07
1.38173e-07
1.4086e-07
1.43065e-07
1.4484e-07
1.46427e-07
1.48108e-07
1.50062e-07
1.52319e-07
1.54876e-07
1.57612e-07
1.60255e-07
1.62095e-07
1.62525e-07
1.62564e-07
1.63834e-07
1.67545e-07
1.71033e-07
1.70129e-07
1.67387e-07
1.6817e-07
1.72992e-07
1.73079e-07
1.68374e-07
1.78367e-07
1.84526e-07
2.18919e-07
1.20565e-07
1.7407e-07
5.14997e-08
6.13007e-08
6.86535e-08
6.22529e-10
1.45131e-09
2.37766e-09
2.64389e-09
3.02534e-09
4.79648e-09
8.0185e-09
1.49391e-08
2.7403e-08
5.20394e-08
9.67637e-08
1.0762e-07
1.11952e-07
1.15839e-07
1.17575e-07
1.17992e-07
1.23105e-07
1.29075e-07
1.36323e-07
1.37712e-07
1.28452e-07
1.18924e-07
1.11191e-07
6.89081e-08
4.45933e-08
3.89075e-08
3.79606e-08
3.56979e-08
3.42459e-08
3.0735e-08
2.59949e-08
2.25025e-08
2.03802e-08
1.55945e-08
1.13042e-08
1.04587e-08
1.17291e-08
1.44307e-08
1.70425e-08
1.46211e-08
1.03753e-08
7.95459e-09
7.20357e-09
7.87455e-09
9.46142e-09
1.024e-08
9.66441e-09
7.71904e-09
6.04788e-09
5.5058e-09
5.55332e-09
6.22841e-09
7.22611e-09
8.22282e-09
1.03791e-08
1.35634e-08
1.30075e-08
1.41156e-08
1.65946e-08
1.54326e-08
1.52211e-08
1.60866e-08
1.36562e-08
1.06633e-08
9.07304e-09
9.11244e-09
1.20027e-08
1.83045e-08
2.49883e-08
2.85301e-08
2.79062e-08
2.61798e-08
2.31764e-08
2.29536e-08
2.71064e-08
3.76725e-08
5.68645e-08
8.52474e-08
8.35475e-08
8.19696e-08
8.06374e-08
7.94804e-08
7.83996e-08
7.72852e-08
7.60446e-08
7.45889e-08
7.28216e-08
7.03428e-08
6.71932e-08
6.37921e-08
6.10007e-08
6.02307e-08
6.19791e-08
6.59073e-08
5.14681e-08
7.72019e-08
8.16343e-08
3.76055e-08
3.74873e-08
3.92341e-08
3.87526e-08
3.94827e-08
3.50794e-08
1.88378e-08
1.48471e-08
1.07269e-08
8.32658e-09
7.34631e-09
6.4971e-09
6.81315e-09
8.37601e-09
6.49591e-09
7.19184e-09
9.50215e-09
1.06642e-08
1.84432e-08
5.14991e-08
3.0499e-08
1.50735e-08
1.16218e-08
1.54972e-08
1.4064e-08
1.72567e-08
1.13784e-08
7.75886e-09
5.36017e-09
7.54264e-09
1.89768e-08
1.80453e-08
2.04537e-08
2.30147e-08
1.9331e-08
2.45481e-08
4.29814e-08
4.91151e-08
5.61325e-08
4.48927e-08
3.92688e-08
3.50284e-08
3.86027e-08
4.85016e-08
4.9999e-08
5.2924e-08
5.29355e-08
5.3706e-08
5.69231e-08
6.28229e-08
6.81643e-08
7.61078e-08
8.26994e-08
8.8371e-08
9.56504e-08
1.07276e-07
1.19462e-07
1.32644e-07
1.48067e-07
1.76778e-07
2.15449e-07
2.35755e-07
2.32147e-07
2.29001e-07
2.23927e-07
1.93164e-07
1.5925e-07
1.47205e-07
1.40852e-07
1.26832e-07
1.08582e-07
9.56884e-08
8.76674e-08
8.10771e-08
7.46499e-08
6.92436e-08
6.4858e-08
6.09371e-08
5.72325e-08
5.32869e-08
5.00604e-08
4.82037e-08
4.71563e-08
4.51231e-08
4.23444e-08
3.99545e-08
3.81126e-08
3.71539e-08
3.63272e-08
3.51705e-08
3.39321e-08
3.2704e-08
3.15726e-08
3.07152e-08
2.99322e-08
2.9028e-08
2.80886e-08
2.71881e-08
2.62326e-08
2.55006e-08
2.5105e-08
2.46865e-08
2.40136e-08
2.32132e-08
2.23716e-08
2.19051e-08
2.18141e-08
2.15852e-08
2.11787e-08
2.05204e-08
1.98794e-08
1.96134e-08
1.95943e-08
1.97309e-08
1.96798e-08
1.92354e-08
1.89469e-08
1.90379e-08
1.92402e-08
1.94659e-08
1.97675e-08
1.99204e-08
1.98906e-08
2.00865e-08
2.05702e-08
2.13554e-08
2.2212e-08
2.27955e-08
2.30045e-08
2.33636e-08
2.41998e-08
2.54608e-08
2.6997e-08
2.82963e-08
2.92869e-08
3.01098e-08
3.10936e-08
3.21771e-08
3.34635e-08
3.47993e-08
3.63613e-08
3.83103e-08
3.96718e-08
4.05837e-08
4.13225e-08
4.21777e-08
4.37622e-08
4.57508e-08
4.7598e-08
4.90453e-08
4.99064e-08
4.99798e-08
5.03378e-08
5.16459e-08
5.35729e-08
5.53299e-08
5.63174e-08
5.6467e-08
5.63843e-08
5.68421e-08
5.81332e-08
5.97753e-08
6.04073e-08
6.04665e-08
6.0786e-08
6.13328e-08
6.23095e-08
6.34078e-08
6.36977e-08
6.38317e-08
6.47008e-08
6.56155e-08
6.64461e-08
6.7538e-08
6.91301e-08
7.06359e-08
7.13121e-08
7.15717e-08
7.24748e-08
7.41844e-08
7.67664e-08
7.97168e-08
8.20448e-08
8.41654e-08
8.61626e-08
8.80177e-08
9.08932e-08
9.56031e-08
1.01562e-07
1.07149e-07
1.12591e-07
1.17981e-07
1.2347e-07
1.3126e-07
1.4263e-07
1.56474e-07
1.7213e-07
1.89868e-07
2.08161e-07
2.28813e-07
2.53249e-07
2.87868e-07
3.42652e-07
3.91101e-07
3.96967e-07
3.74144e-07
3.56108e-07
3.44293e-07
3.10349e-07
2.61949e-07
2.24838e-07
2.03341e-07
1.86541e-07
1.6923e-07
1.52828e-07
1.39373e-07
1.29611e-07
1.21847e-07
1.14954e-07
1.07968e-07
1.0123e-07
9.5879e-08
9.14677e-08
8.73806e-08
8.37935e-08
8.04155e-08
7.70771e-08
7.38761e-08
7.107e-08
6.85038e-08
6.62225e-08
6.43257e-08
6.23452e-08
6.02428e-08
5.84526e-08
5.69922e-08
5.55234e-08
5.41079e-08
5.27771e-08
5.15294e-08
5.04905e-08
4.94869e-08
4.83702e-08
4.74688e-08
4.66752e-08
4.5901e-08
4.53877e-08
4.49109e-08
4.43744e-08
4.38701e-08
4.3397e-08
4.29839e-08
4.26162e-08
4.22886e-08
4.20991e-08
4.20013e-08
4.19152e-08
4.18288e-08
4.16926e-08
4.16346e-08
4.17242e-08
4.1833e-08
4.19468e-08
4.20883e-08
4.22422e-08
4.25088e-08
4.28914e-08
4.32876e-08
4.36597e-08
4.40338e-08
4.45645e-08
4.5254e-08
4.59207e-08
4.65181e-08
4.71992e-08
4.80578e-08
4.91038e-08
5.01904e-08
5.12662e-08
5.24372e-08
5.37873e-08
5.52423e-08
5.67819e-08
5.83372e-08
5.99539e-08
6.1907e-08
6.39495e-08
6.61416e-08
6.85281e-08
7.14108e-08
7.42771e-08
7.71199e-08
8.03795e-08
8.41155e-08
8.83396e-08
9.27702e-08
9.73619e-08
1.02147e-07
1.07886e-07
1.14777e-07
1.22905e-07
1.31687e-07
1.40366e-07
1.49425e-07
1.59827e-07
1.74299e-07
1.92825e-07
2.15296e-07
2.27185e-07
2.45836e-07
2.52011e-07
2.8612e-07
3.94071e-07
5.31869e-07
6.86103e-07
3.35721e-07
3.06785e-07
3.01305e-07
4.39389e-07
3.91133e-07
2.00747e-07
9.28684e-08
8.62867e-08
5.09574e-08
4.09044e-08
5.04376e-08
6.61329e-08
1.05933e-07
1.04557e-07
3.05601e-07
4.32762e-07
2.40646e-07
1.48296e-07
1.31983e-07
4.86206e-07
5.84528e-07
7.515e-08
5.06199e-08
3.87154e-08
3.15699e-08
2.79945e-08
2.04083e-08
1.67535e-08
2.086e-08
2.59436e-08
3.76881e-08
3.83598e-08
7.4499e-08
1.0833e-07
2.36346e-07
1.92619e-07
9.15394e-08
9.41896e-08
5.86248e-08
1.08435e-07
1.88992e-07
1.76935e-07
4.77844e-08
4.18922e-08
2.26359e-08
2.2213e-08
1.08707e-08
1.13558e-08
1.26362e-08
9.32966e-09
1.01346e-08
1.29751e-08
2.35801e-08
3.16091e-08
4.72773e-08
6.09529e-08
9.01031e-08
7.7079e-08
6.13034e-08
5.25611e-08
4.80408e-08
4.66962e-08
4.72376e-08
4.88918e-08
5.06961e-08
5.24591e-08
5.42324e-08
5.64886e-08
5.89466e-08
6.09799e-08
6.3406e-08
6.55849e-08
6.73214e-08
6.99207e-08
7.22774e-08
7.41067e-08
7.5928e-08
7.84465e-08
8.06217e-08
8.20347e-08
8.37755e-08
8.64613e-08
8.91449e-08
9.15641e-08
9.31599e-08
9.43473e-08
9.51955e-08
9.70356e-08
9.83524e-08
1.00661e-07
1.04232e-07
1.07751e-07
1.10284e-07
1.12042e-07
1.13744e-07
1.15185e-07
1.16949e-07
1.19348e-07
1.21945e-07
1.2389e-07
1.25483e-07
1.29038e-07
1.31261e-07
1.31458e-07
1.32198e-07
1.34242e-07
1.36894e-07
1.39472e-07
1.41597e-07
1.43272e-07
1.44828e-07
1.46612e-07
1.48759e-07
1.51143e-07
1.53617e-07
1.56129e-07
1.5886e-07
1.61183e-07
1.6185e-07
1.61566e-07
1.62408e-07
1.655e-07
1.69162e-07
1.69807e-07
1.67573e-07
1.67907e-07
1.7216e-07
1.75238e-07
1.73688e-07
1.71245e-07
1.83136e-07
1.82308e-07
2.12102e-07
1.18866e-07
1.73488e-07
5.15469e-08
6.11022e-08
6.84624e-08
5.27529e-10
1.41636e-09
2.90051e-09
3.90836e-09
3.28966e-09
4.29987e-09
6.9961e-09
1.2197e-08
2.05173e-08
3.43679e-08
5.55504e-08
9.18208e-08
1.10846e-07
1.12993e-07
1.14661e-07
1.1585e-07
1.17236e-07
1.20665e-07
1.24908e-07
1.25518e-07
1.21742e-07
1.18652e-07
7.35884e-08
4.15045e-08
2.82764e-08
2.25593e-08
2.17144e-08
2.40724e-08
2.88858e-08
2.62541e-08
2.05554e-08
1.55291e-08
1.23952e-08
9.72314e-09
8.33839e-09
8.17194e-09
8.42283e-09
9.1976e-09
1.03643e-08
9.41635e-09
7.07198e-09
5.72982e-09
5.34307e-09
6.05554e-09
7.90343e-09
9.12362e-09
8.20473e-09
6.20924e-09
4.65002e-09
4.01281e-09
4.16767e-09
4.93357e-09
6.11258e-09
7.6084e-09
9.06188e-09
9.59809e-09
9.28704e-09
9.93602e-09
1.18008e-08
1.51187e-08
2.42342e-08
2.47682e-08
1.49764e-08
9.65713e-09
6.91084e-09
6.19605e-09
7.06006e-09
8.85624e-09
1.10421e-08
1.33688e-08
1.46406e-08
1.49844e-08
1.36543e-08
1.32799e-08
1.55891e-08
2.09949e-08
3.08569e-08
4.79933e-08
7.86661e-08
9.12482e-08
8.71097e-08
8.3844e-08
8.1225e-08
7.9038e-08
7.71168e-08
7.5306e-08
7.35161e-08
7.10847e-08
6.97693e-08
6.78505e-08
6.61639e-08
6.45713e-08
6.36226e-08
6.43617e-08
6.82559e-08
6.88017e-08
5.61785e-08
3.84717e-08
7.19539e-08
8.30528e-08
3.29924e-08
2.87454e-08
2.66586e-08
2.33007e-08
2.45698e-08
2.07884e-08
1.29315e-08
9.77615e-09
8.63915e-09
7.71326e-09
6.93043e-09
6.33023e-09
7.56169e-09
9.32574e-09
7.6088e-09
7.67835e-09
8.67841e-09
9.56427e-09
1.81331e-08
4.43953e-08
3.41511e-08
1.60018e-08
1.17085e-08
1.51674e-08
1.32769e-08
1.57631e-08
1.05239e-08
7.17084e-09
4.9893e-09
6.93001e-09
1.75175e-08
1.68298e-08
2.0208e-08
2.4762e-08
3.20505e-08
1.92504e-08
2.22049e-08
4.55133e-08
5.24328e-08
4.64552e-08
4.42145e-08
3.94293e-08
4.50723e-08
5.63383e-08
5.58753e-08
5.74771e-08
5.97233e-08
6.30278e-08
7.05428e-08
7.85094e-08
8.30869e-08
9.18151e-08
1.00737e-07
1.09036e-07
1.213e-07
1.34271e-07
1.51578e-07
1.73292e-07
1.8221e-07
1.84043e-07
1.78101e-07
1.67771e-07
1.51621e-07
1.39391e-07
1.33302e-07
1.24792e-07
1.11597e-07
9.8856e-08
8.82515e-08
8.05868e-08
7.66516e-08
7.2148e-08
6.65962e-08
6.21161e-08
5.77184e-08
5.37375e-08
5.10662e-08
4.91381e-08
4.76028e-08
4.5929e-08
4.32536e-08
4.04017e-08
3.82698e-08
3.70139e-08
3.63191e-08
3.55176e-08
3.45921e-08
3.34303e-08
3.1811e-08
3.0434e-08
2.96182e-08
2.8834e-08
2.82621e-08
2.7795e-08
2.69625e-08
2.58404e-08
2.48981e-08
2.43672e-08
2.40817e-08
2.37351e-08
2.31535e-08
2.23291e-08
2.18465e-08
2.17943e-08
2.15335e-08
2.10171e-08
2.04359e-08
2.0095e-08
2.00659e-08
2.0193e-08
2.0282e-08
2.00107e-08
1.95188e-08
1.9306e-08
1.94942e-08
1.98443e-08
2.01638e-08
2.0427e-08
2.04064e-08
2.02774e-08
2.04356e-08
2.09474e-08
2.17337e-08
2.23682e-08
2.28781e-08
2.32284e-08
2.35603e-08
2.41873e-08
2.50532e-08
2.62757e-08
2.77178e-08
2.8952e-08
2.99056e-08
3.07126e-08
3.16884e-08
3.31642e-08
3.45966e-08
3.597e-08
3.77013e-08
3.90348e-08
3.98431e-08
4.0729e-08
4.21533e-08
4.40714e-08
4.60457e-08
4.75573e-08
4.85353e-08
4.90556e-08
4.93379e-08
5.02744e-08
5.20402e-08