/*--------------------------------*- C++ -*----------------------------------*\
| =========                 |                                                 |
| \\      /  F ield         | OpenFOAM: The Open Source CFD Toolbox           |
|  \\    /   O peration     | Version:  v2006                                 |
|   \\  /    A nd           | Website:  www.openfoam.com                      |
|    \\/     M anipulation  |                                                 |
\*---------------------------------------------------------------------------*/
FoamFile
{
    version     2.0;
    format      ascii;
    class       volScalarField;
    location    "6.3";
    object      omega;
}
// * * * * * * * * * * * * * * * * * * * * * * * * * * * * * * * * * * * * * //

dimensions      [0 0 -1 0 0 0 0];


internalField   nonuniform List<scalar> 
33000
(
0.80413
0.80427
0.804234
0.80428
0.804449
0.804685
0.805019
0.805438
0.805942
0.806545
0.807274
0.808071
0.808807
0.809147
0.809418
0.809809
0.810639
0.81287
0.818487
0.82761
0.835028
0.838144
0.840176
0.84155
0.842346
0.842917
0.843508
0.843997
0.844316
0.844426
0.844301
0.844024
0.843667
0.843312
0.843049
0.842932
0.842954
0.843034
0.843036
0.842871
0.842573
0.842252
0.842
0.841849
0.84175
0.841599
0.841314
0.84089
0.840394
0.839909
0.839508
0.83925
0.839175
0.839298
0.839587
0.839932
0.840166
0.840151
0.839838
0.839252
0.838437
0.837386
0.836047
0.834382
0.832416
0.830234
0.828221
0.826571
0.825151
0.823825
0.822586
0.821418
0.820357
0.819538
0.819092
0.819089
0.819593
0.820671
0.822588
0.824915
0.826776
0.827866
0.828891
0.829917
0.830649
0.831007
0.831073
0.830915
0.830558
0.829989
0.829159
0.827995
0.826546
0.825082
0.823447
0.82192
0.820702
0.820085
0.820008
0.820901
0.821876
0.822095
0.822079
0.822136
0.822311
0.822437
0.822365
0.822094
0.821726
0.821355
0.821
0.820606
0.820069
0.819317
0.818546
0.818034
0.817899
0.818592
0.819288
0.819319
0.819256
0.819246
0.819304
0.819409
0.819498
0.81955
0.819571
0.819578
0.819589
0.81961
0.819628
0.819632
0.819627
0.819613
0.819595
0.819575
0.819559
0.819546
0.819534
0.81952
0.819505
0.819486
0.819466
0.819442
0.819411
0.819371
0.819326
0.819282
0.819245
0.81921
0.819164
0.819109
0.81905
0.818996
0.818946
0.818895
0.818839
0.818776
0.818713
0.818647
0.81858
0.818512
0.818447
0.818383
0.818314
0.818238
0.818162
0.818091
0.818018
0.817933
0.817841
0.817752
0.81767
0.81759
0.8175
0.817402
0.817309
0.817226
0.817149
0.817072
0.816997
0.816931
0.816871
0.816809
0.816742
0.816681
0.816633
0.816597
0.816563
0.816524
0.816483
0.816439
0.816397
0.816359
0.816321
0.816275
0.816218
0.816151
0.816075
0.815999
0.815929
0.815865
0.815791
0.815702
0.815599
0.815492
0.81539
0.815294
0.815206
0.815121
0.815041
0.814981
0.814943
0.814918
0.814891
0.814872
0.814873
0.814894
0.814934
0.814982
0.815029
0.815079
0.81514
0.815214
0.815301
0.815391
0.815473
0.815542
0.8156
0.815652
0.815702
0.815748
0.815787
0.815811
0.815825
0.815834
0.815838
0.815838
0.815834
0.815823
0.815806
0.815786
0.81576
0.815727
0.815688
0.815645
0.815601
0.815557
0.81551
0.815454
0.815392
0.815329
0.815267
0.815203
0.815136
0.815065
0.814991
0.814914
0.814836
0.814756
0.814675
0.81459
0.814502
0.814411
0.814319
0.814227
0.814135
0.814041
0.813941
0.813839
0.813737
0.813636
0.813535
0.813433
0.813329
0.813221
0.813112
0.813001
0.812889
0.812775
0.81266
0.812544
0.812428
0.812309
0.812186
0.812062
0.811936
0.811809
0.811682
0.811552
0.811419
0.811283
0.811144
0.811003
0.810861
0.810716
0.810568
0.810417
0.810262
0.810103
0.809942
0.809776
0.809607
0.809431
0.809249
0.809056
0.80886
0.808666
0.808477
0.808296
0.808122
0.807957
0.8078
0.80765
0.807508
0.807374
0.807249
0.807131
0.807022
0.80692
0.806827
0.806742
0.806665
0.806595
0.806533
0.806479
0.806431
0.806389
0.806352
0.80632
0.806292
0.806268
0.806247
0.806229
0.806213
0.806199
0.806185
0.80617
0.806153
0.806133
0.806111
0.806088
0.806063
0.806037
0.806009
0.80598
0.805949
0.805917
0.805884
0.80585
0.805815
0.805778
0.80574
0.805703
0.805666
0.805629
0.805592
0.805555
0.805519
0.805483
0.805447
0.805411
0.805376
0.805341
0.805307
0.805273
0.805239
0.805206
0.805174
0.805143
0.805112
0.805082
0.805053
0.805025
0.804997
0.80497
0.804944
0.804918
0.804893
0.804867
0.80484
0.804812
0.804783
0.804752
0.804721
0.804689
0.804656
0.804623
0.804589
0.804554
0.804518
0.804482
0.804446
0.804409
0.804372
0.804334
0.804297
0.804259
0.804221
0.804183
0.804144
0.804105
0.804067
0.804028
0.80399
0.803951
0.803913
0.803875
0.803837
0.8038
0.803763
0.803726
0.803689
0.803652
0.803616
0.80358
0.803544
0.80351
0.803472
0.803433
0.8034
0.803363
0.803329
0.803302
0.803248
0.803195
0.803181
0.803119
0.803113
0.803082
0.803202
0.803253
0.803317
0.803342
0.803366
0.803367
0.803369
0.803361
0.80336
0.803352
0.803346
0.803348
0.803316
0.803281
0.803286
0.803242
0.803255
0.803222
0.803369
0.803447
0.803533
0.803577
0.803606
0.803619
0.803627
0.803629
0.803628
0.803611
0.803597
0.803582
0.803559
0.803556
0.803533
0.803459
0.803412
0.80337
0.803302
0.803331
0.803355
0.803563
0.803884
0.804237
0.804578
0.804873
0.805114
0.805304
0.805454
0.805571
0.805662
0.80573
0.805783
0.805825
0.805857
0.805882
0.805902
0.805915
0.805926
0.805934
0.805939
0.80594
0.80594
0.80594
0.805938
0.805934
0.805929
0.805923
0.805916
0.805908
0.805899
0.80589
0.80588
0.805869
0.805856
0.805843
0.805828
0.805814
0.805799
0.805784
0.805768
0.805752
0.805735
0.805719
0.805702
0.805685
0.805669
0.805653
0.805637
0.80562
0.805603
0.805586
0.805568
0.805551
0.805532
0.805514
0.805496
0.805478
0.80546
0.805442
0.805423
0.805405
0.805387
0.805369
0.805351
0.805334
0.805317
0.805299
0.805283
0.805266
0.80525
0.805233
0.805217
0.8052
0.805184
0.805166
0.80515
0.805134
0.805123
0.805096
0.805064
0.804922
0.759596
0.78623
0.668526
0.617218
0.56339
0.548384
0.583048
0.684749
0.836606
0.970621
1.08883
1.19761
1.30824
1.40901
1.41121
1.36184
1.30742
1.21597
1.1074
1.05201
1.01491
0.955525
0.877066
0.785464
0.704271
0.651138
0.622171
0.613995
0.612248
0.602626
0.574813
0.538464
0.508307
0.483506
0.462054
0.452717
0.458587
0.468466
0.470162
0.460035
0.439589
0.414614
0.401504
0.403972
0.411354
0.41338
0.407223
0.392145
0.371922
0.355852
0.347378
0.345151
0.345705
0.349274
0.358295
0.370096
0.379172
0.384232
0.38642
0.390584
0.401216
0.417247
0.434508
0.45283
0.474432
0.502067
0.537891
0.584479
0.641113
0.705518
0.775086
0.843234
0.895808
0.935244
0.973661
1.01708
1.06585
1.11574
1.1684
1.2245
1.27412
1.30425
1.30985
1.24803
1.18076
1.10846
0.982457
0.80618
0.602658
0.450901
0.364026
0.331082
0.347343
0.405235
0.500421
0.620258
0.742487
0.855198
0.925391
0.977811
0.989924
0.941904
0.829794
0.66157
0.524631
0.375713
0.26716
0.202753
0.171785
0.147464
0.137269
0.144179
0.160834
0.184884
0.206681
0.221878
0.229257
0.240645
0.251622
0.244464
0.203207
0.169173
0.160516
0.142724
0.128791
0.122796
0.115494
0.11133
0.110341
0.108563
0.107586
0.107514
0.107031
0.107461
0.107925
0.108459
0.108906
0.109182
0.109549
0.109642
0.109905
0.11012
0.110242
0.110285
0.11026
0.110224
0.110383
0.11072
0.111101
0.111394
0.111517
0.111633
0.111935
0.112353
0.112796
0.113207
0.113606
0.114016
0.114396
0.11472
0.115024
0.115345
0.115688
0.115986
0.116198
0.116365
0.11654
0.116686
0.116715
0.116629
0.116536
0.1165
0.116444
0.116235
0.115841
0.115359
0.114928
0.114561
0.114132
0.113566
0.112886
0.11214
0.111295
0.110246
0.109078
0.108035
0.107175
0.106329
0.105293
0.104011
0.102642
0.101384
0.100304
0.0993203
0.0982595
0.0969777
0.0954979
0.0939821
0.0926302
0.0915331
0.0905579
0.0895219
0.0882963
0.0868653
0.085391
0.0840447
0.0828815
0.08178
0.0805884
0.0792618
0.0779753
0.0768608
0.0757572
0.0744794
0.0729975
0.0715639
0.0704335
0.0695881
0.0687346
0.0675878
0.0661766
0.0647797
0.0636402
0.0628148
0.0621414
0.0613833
0.06045
0.0594155
0.0584221
0.0576324
0.0570991
0.0566496
0.056101
0.0554558
0.0547982
0.0542245
0.0538145
0.053566
0.0533608
0.0531198
0.0529006
0.0527405
0.0525856
0.0523832
0.0521796
0.0520677
0.0521538
0.0523471
0.0523814
0.0522381
0.0521117
0.0521229
0.0522568
0.0524009
0.0524703
0.0524696
0.052432
0.0524077
0.0524424
0.0525084
0.0525383
0.0524829
0.0523702
0.0523165
0.0524108
0.0526202
0.0527898
0.0527273
0.0524898
0.0522873
0.0522266
0.0523295
0.0525456
0.0527063
0.0527062
0.052623
0.0525534
0.0525191
0.0524979
0.0524791
0.052551
0.0527694
0.0529426
0.0529022
0.052755
0.0526654
0.052672
0.0527628
0.0529295
0.0530734
0.0530787
0.0529773
0.0528925
0.0528748
0.0529571
0.0530962
0.0531275
0.0530652
0.0529829
0.0528712
0.0528246
0.0528458
0.0527666
0.0525933
0.0523877
0.0522249
0.0520481
0.0517883
0.0514532
0.0511019
0.0508447
0.0506444
0.0503652
0.0499318
0.0494526
0.0490812
0.0487735
0.0484016
0.048009
0.0476297
0.0473178
0.0470761
0.0467733
0.046432
0.0461689
0.046033
0.045943
0.0457684
0.0455633
0.0454298
0.0454192
0.0455099
0.0454993
0.0453204
0.0450603
0.0448256
0.0446442
0.0444876
0.0443305
0.0440743
0.0437408
0.0434161
0.0431193
0.0428958
0.0426506
0.0422685
0.0418369
0.0414453
0.0411415
0.0408723
0.0405451
0.0401401
0.0397579
0.0394855
0.0392063
0.0388579
0.0385258
0.0382308
0.0379399
0.0376324
0.0373375
0.0370646
0.0368031
0.0365649
0.0363189
0.0360601
0.0357906
0.0355376
0.0352999
0.0350802
0.0348455
0.0345801
0.0343038
0.0340493
0.0338169
0.0335832
0.0333521
0.0331334
0.0329323
0.0327231
0.0324734
0.0322083
0.0319603
0.0317468
0.0315476
0.0313497
0.0311494
0.0309224
0.0306891
0.0304893
0.0303184
0.0301083
0.029879
0.0296916
0.0295215
0.0293322
0.0291668
0.0290233
0.0288668
0.0286882
0.0284968
0.0283116
0.0281568
0.0280221
0.027874
0.027745
0.0275577
0.0273857
0.0272097
0.027082
0.0269677
0.0268487
0.0267528
0.0265818
0.0264663
0.0264427
0.0263181
0.026378
0.0264026
0.025913
0.0258472
0.0260009
0.0256359
0.027488
0.0286583
0.0256894
0.0275974
0.02727
0.0270235
0.0281974
0.0296416
0.0288132
0.0269271
0.0256024
0.0247623
0.02441
0.0242531
0.0241944
0.02418
0.0243336
0.0243008
0.0259644
0.0280493
0.0255904
0.0267899
0.026979
0.0267493
0.0271338
0.0277083
0.0275154
0.0261819
0.0252158
0.0245567
0.0242106
0.0241634
0.0241362
0.0245657
0.0249051
0.0245038
0.0251425
0.0250429
0.0271869
0.0414745
0.0453682
0.0445677
0.0481042
0.0507552
0.052907
0.0567359
0.0620247
0.0654271
0.0633663
0.0563197
0.0476521
0.0402384
0.0348659
0.0312785
0.0289437
0.0274398
0.0264751
0.025868
0.0254908
0.0252634
0.0251561
0.0251402
0.0251796
0.0252708
0.0253917
0.0255134
0.025615
0.0257366
0.0258932
0.026059
0.0262102
0.0263392
0.026453
0.0265612
0.0266625
0.0267601
0.0268489
0.0269423
0.0269613
0.0268983
0.0268235
0.0267838
0.0267883
0.0268343
0.026902
0.0269692
0.0270348
0.0271083
0.0271937
0.0272838
0.0273348
0.0274418
0.0276224
0.0277859
0.0278748
0.0278986
0.0278777
0.0278346
0.0277939
0.0277782
0.0278043
0.0278701
0.0279483
0.0279978
0.0279953
0.0279686
0.0279782
0.0280668
0.028214
0.028329
0.0283427
0.0282935
0.0282874
0.028366
0.0284313
0.0283971
0.0283042
0.0282972
0.0282304
0.028041
0.027801
0.0277729
0.0279408
0.0283386
0.0292156
0.0305622
0.0301893
0.338701
0.326472
0.297644
0.260326
0.246361
0.24845
0.28547
0.3571
0.465656
0.597617
0.751637
0.901434
1.02425
1.1249
1.16466
1.17631
1.13939
1.04964
0.967321
0.894115
0.770566
0.652815
0.559716
0.481263
0.422915
0.385799
0.36573
0.357547
0.352981
0.343459
0.326479
0.304909
0.284263
0.268567
0.258636
0.253495
0.250993
0.250048
0.24779
0.242431
0.233842
0.221936
0.212201
0.208653
0.20827
0.206637
0.202918
0.196123
0.185807
0.174938
0.166863
0.163004
0.162966
0.165665
0.170219
0.175779
0.181664
0.185646
0.187079
0.189728
0.196083
0.203887
0.2111
0.217983
0.223437
0.228478
0.235341
0.246787
0.264689
0.28775
0.314076
0.340141
0.363671
0.386096
0.410829
0.442022
0.482845
0.533859
0.593831
0.660793
0.736815
0.828383
0.934639
1.03634
1.10137
1.11881
1.04777
0.904415
0.740271
0.581183
0.44767
0.345271
0.282021
0.259327
0.270799
0.304106
0.350587
0.39573
0.428128
0.447186
0.450771
0.442641
0.431765
0.40989
0.377003
0.330251
0.275337
0.21974
0.163038
0.111816
0.0723677
0.0483375
0.0357951
0.0331174
0.0375688
0.0431571
0.0465224
0.04715
0.0465244
0.0451152
0.0458498
0.046243
0.0441581
0.0360662
0.0285224
0.0257167
0.0216715
0.0189469
0.0178314
0.0165688
0.0157612
0.0155615
0.0153523
0.015361
0.015525
0.0156941
0.0157886
0.0157984
0.0158789
0.015879
0.0159357
0.0160008
0.0160373
0.0160597
0.0160675
0.0160742
0.0161302
0.0162214
0.0163101
0.016389
0.0164509
0.0165176
0.0166134
0.0167293
0.0168535
0.0169776
0.0171034
0.0172323
0.0173542
0.0174602
0.017554
0.017644
0.0177378
0.0178289
0.0178993
0.0179456
0.0179841
0.0180191
0.0180285
0.0179988
0.0179559
0.017927
0.0178969
0.0178252
0.0176941
0.0175285
0.0173732
0.0172381
0.0170887
0.0168994
0.0166831
0.0164583
0.0162053
0.015893
0.0155442
0.0152157
0.0149364
0.014684
0.0144094
0.0140874
0.0137313
0.0133719
0.0130411
0.0127469
0.012468
0.0121716
0.0118385
0.011476
0.0111294
0.0108431
0.0106077
0.010372
0.0100917
0.00977537
0.00946319
0.00918731
0.0089498
0.00872128
0.00847521
0.00821668
0.00797776
0.00777615
0.00757908
0.00734697
0.00708885
0.00684902
0.00665861
0.00651086
0.00637143
0.00620102
0.00599437
0.00578632
0.00561019
0.00547707
0.00536989
0.00526121
0.00513506
0.00499727
0.00486282
0.00475043
0.00466922
0.004603
0.00453078
0.00444759
0.00436256
0.00428934
0.00423766
0.00420688
0.00418344
0.00415592
0.00412694
0.00410135
0.00407903
0.0040582
0.00404141
0.00403383
0.00404326
0.00406091
0.00406465
0.0040535
0.00404533
0.00405134
0.00406688
0.00407968
0.00408436
0.00408502
0.00408625
0.00409147
0.00410123
0.00410725
0.00410386
0.0040938
0.0040834
0.0040819
0.00409571
0.00411907
0.00413513
0.00412708
0.00410279
0.00408352
0.00408033
0.00409283
0.0041128
0.00412714
0.00412993
0.00412707
0.00412355
0.00412035
0.00411727
0.00411608
0.00412692
0.00415236
0.00417163
0.00416934
0.0041574
0.00415279
0.00415834
0.0041701
0.00418686
0.00420175
0.00420517
0.00420046
0.0041984
0.00420083
0.00420914
0.0042208
0.00422488
0.00422575
0.00422533
0.00421631
0.0042071
0.00420377
0.00419822
0.0041878
0.00416642
0.00414195
0.00411909
0.00409384
0.00406022
0.00402087
0.00398715
0.00395824
0.00392678
0.00388155
0.0038276
0.00378064
0.00374034
0.00369914
0.00365869
0.003617
0.00357763
0.00354334
0.00350749
0.00347307
0.00344745
0.00342946
0.00341223
0.00338989
0.00336777
0.00335368
0.00334814
0.00334753
0.00333938
0.00331848
0.00329121
0.00326561
0.00324237
0.00321915
0.00319594
0.00316733
0.00313358
0.00309862
0.00306538
0.00303777
0.0030061
0.00296526
0.00292369
0.00288568
0.00285321
0.00282228
0.00278811
0.00275066
0.00271546
0.00268675
0.00265843
0.00262783
0.00259884
0.0025711
0.00254384
0.00251717
0.00249251
0.00246933
0.00244631
0.0024252
0.00240432
0.00238353
0.00236287
0.00234288
0.00232388
0.00230605
0.00228758
0.00226768
0.00224703
0.00222784
0.00221033
0.00219323
0.00217644
0.00215959
0.00214347
0.0021277
0.0021106
0.00209275
0.00207529
0.00206004
0.00204572
0.00203136
0.0020166
0.00200104
0.00198556
0.00197175
0.0019588
0.00194467
0.00193021
0.00191828
0.0019065
0.00189403
0.00188244
0.00187232
0.00186187
0.0018516
0.0018399
0.00182905
0.00181902
0.00181048
0.00179999
0.00179263
0.00178355
0.00177407
0.00176368
0.00175261
0.00174425
0.00173272
0.0017283
0.00172276
0.00172334
0.00172563
0.00170838
0.00169765
0.00170493
0.00172417
0.00179894
0.00186738
0.00176808
0.00190297
0.00192804
0.00179737
0.00172871
0.00171476
0.00175788
0.00179597
0.00185141
0.00178851
0.00170104
0.001654
0.00160502
0.00159521
0.00160595
0.00165622
0.0017043
0.00177778
0.00173764
0.00185774
0.00191676
0.00183009
0.00175942
0.00172323
0.00174588
0.00173331
0.00176186
0.00172843
0.00169356
0.00167529
0.00166027
0.00165146
0.00164045
0.00158979
0.00163678
0.00167474
0.00182542
0.00231659
0.00274805
0.00306696
0.00386408
0.00409778
0.00387619
0.0035761
0.00346499
0.0036035
0.00393956
0.00432363
0.00443381
0.00409537
0.00353626
0.00298152
0.00253879
0.00222702
0.00202118
0.00188677
0.00179775
0.00173696
0.00169534
0.00166703
0.00164766
0.00163588
0.00162995
0.00162728
0.00162774
0.00163054
0.00163428
0.00163797
0.00164365
0.00165188
0.00166095
0.00166955
0.00167744
0.00168465
0.00169134
0.00169758
0.00170359
0.00170909
0.00171466
0.00171716
0.00171634
0.001715
0.00171504
0.00171666
0.00171937
0.00172289
0.00172679
0.00173101
0.00173592
0.0017419
0.00174837
0.00175315
0.00175973
0.00176875
0.00177685
0.00178192
0.00178427
0.00178474
0.00178406
0.00178304
0.00178283
0.00178463
0.00178877
0.00179403
0.00179827
0.00180029
0.00180116
0.00180383
0.00181036
0.00181874
0.00182402
0.00182451
0.00182354
0.00182536
0.00182998
0.00183189
0.00182965
0.00182636
0.00182762
0.00182523
0.00181723
0.00180831
0.00181028
0.00183009
0.00187644
0.0019748
0.00211546
0.00212683
0.191155
0.202682
0.189938
0.164542
0.151175
0.151795
0.171454
0.207975
0.26013
0.321005
0.384734
0.460606
0.56138
0.677784
0.762373
0.776177
0.758417
0.708472
0.647051
0.559456
0.45153
0.371107
0.312414
0.265734
0.231467
0.209621
0.198272
0.193941
0.191039
0.184981
0.174624
0.161287
0.148411
0.139112
0.133621
0.129616
0.125852
0.122801
0.120249
0.117532
0.114031
0.109655
0.105334
0.101648
0.0989601
0.0970295
0.0950712
0.0925346
0.0889864
0.084466
0.0798725
0.0761091
0.0740854
0.074037
0.0756325
0.0784086
0.0815161
0.0835049
0.0847217
0.086977
0.0910046
0.0962314
0.101513
0.105881
0.108713
0.110483
0.11307
0.117005
0.123906
0.133666
0.145766
0.159926
0.176324
0.194979
0.216225
0.241654
0.273161
0.311442
0.355822
0.403387
0.450261
0.49448
0.535659
0.57572
0.615266
0.651839
0.674176
0.672796
0.646234
0.591337
0.505244
0.409004
0.326541
0.260421
0.216101
0.191275
0.184649
0.191644
0.203385
0.215176
0.220962
0.21954
0.215262
0.210615
0.205664
0.204071
0.200276
0.192922
0.181477
0.15931
0.129807
0.102888
0.0711148
0.0442967
0.0266455
0.0171681
0.0128459
0.0111659
0.0108709
0.0108125
0.0106177
0.0108794
0.0113866
0.0126047
0.0135579
0.0132481
0.0105252
0.00803884
0.00703544
0.0059481
0.00515269
0.00467088
0.00423189
0.00396873
0.00387678
0.00383665
0.00383954
0.00382767
0.00383034
0.00379702
0.00377409
0.00377553
0.00377767
0.00378254
0.00378519
0.00378405
0.00379007
0.0038047
0.00382119
0.00383917
0.00385586
0.00387261
0.00389257
0.00391739
0.00394556
0.00397361
0.00400047
0.00402818
0.00405808
0.00408613
0.00410904
0.00412763
0.00414696
0.00416813
0.00418557
0.00419628
0.00420377
0.00421095
0.00421378
0.00420853
0.00419923
0.0041925
0.00418669
0.00417255
0.00414634
0.0041137
0.00408268
0.00405464
0.00402306
0.00398283
0.00393842
0.00389481
0.00384712
0.00378923
0.003724
0.00365871
0.00360011
0.00354795
0.00349565
0.00343877
0.0033753
0.00330737
0.0032413
0.00318114
0.00312685
0.003075
0.0030191
0.00295516
0.00289068
0.00283496
0.00278913
0.00274621
0.00269558
0.00263755
0.00258111
0.00253074
0.0024871
0.00244538
0.00240038
0.00235343
0.00230738
0.00226623
0.0022287
0.00218746
0.00214297
0.00210083
0.00206278
0.00202821
0.00199648
0.00196475
0.00193045
0.00189541
0.00186155
0.00183066
0.00180412
0.00178101
0.00175803
0.00173385
0.00170895
0.00168524
0.0016646
0.00164676
0.00163038
0.00161396
0.00159767
0.001583
0.00157065
0.00155955
0.00154888
0.00153885
0.00152977
0.00152216
0.00151549
0.00150893
0.00150263
0.00149699
0.00149247
0.00148898
0.00148594
0.00148288
0.00148007
0.00147771
0.00147532
0.00147259
0.00147003
0.00146826
0.0014671
0.00146588
0.00146438
0.00146248
0.00146004
0.00145761
0.00145565
0.0014541
0.00145351
0.00145401
0.00145423
0.00145275
0.00145026
0.00144846
0.00144804
0.00144827
0.00144826
0.00144795
0.00144784
0.00144827
0.00144891
0.00144914
0.00144878
0.00144847
0.0014494
0.00145135
0.00145301
0.00145385
0.00145435
0.00145512
0.00145623
0.00145739
0.00145884
0.00146066
0.00146227
0.00146347
0.0014646
0.00146556
0.00146641
0.00146737
0.00146827
0.00146936
0.00147029
0.00147007
0.00146902
0.00146835
0.00146801
0.00146698
0.00146435
0.00146102
0.00145803
0.00145501
0.0014507
0.00144539
0.00144027
0.00143536
0.00143021
0.00142383
0.00141628
0.00140878
0.00140175
0.00139485
0.00138783
0.00138045
0.00137287
0.00136541
0.00135804
0.001351
0.00134464
0.00133848
0.0013322
0.00132574
0.00131925
0.00131344
0.00130832
0.00130327
0.00129782
0.00129195
0.00128582
0.00127983
0.00127407
0.00126819
0.00126239
0.00125677
0.00125087
0.00124484
0.00123897
0.00123329
0.00122756
0.00122164
0.00121596
0.00121073
0.00120585
0.00120115
0.00119648
0.00119174
0.00118721
0.0011832
0.00117948
0.00117593
0.00117257
0.00116924
0.00116607
0.00116319
0.00116059
0.00115814
0.00115566
0.00115336
0.00115125
0.00114928
0.00114735
0.00114543
0.00114356
0.00114185
0.00114023
0.00113861
0.00113688
0.00113516
0.00113359
0.00113211
0.0011306
0.00112905
0.00112755
0.00112613
0.0011247
0.00112322
0.00112171
0.00112025
0.00111889
0.00111748
0.00111612
0.00111465
0.00111324
0.00111186
0.00111052
0.00110914
0.0011078
0.0011065
0.00110526
0.00110399
0.00110272
0.00110156
0.00110041
0.0010993
0.00109811
0.00109677
0.00109565
0.00109476
0.00109382
0.00109322
0.00109204
0.00108983
0.00108852
0.00108854
0.0010887
0.00109
0.00109178
0.00109305
0.00108654
0.00109088
0.00111735
0.00113655
0.00117021
0.00118008
0.00128756
0.00133506
0.00125026
0.00119296
0.00115399
0.00115021
0.00111069
0.00110481
0.00109077
0.00108477
0.00108854
0.00108529
0.0010907
0.00113595
0.00116263
0.00118301
0.00120625
0.00123892
0.00131891
0.00137471
0.00129773
0.00123737
0.0011871
0.00117527
0.00112587
0.00111158
0.00109204
0.00108599
0.00110301
0.00110049
0.00110549
0.00108716
0.00112969
0.00114929
0.00118205
0.00129818
0.00145289
0.00176448
0.00217634
0.0028145
0.00312187
0.00299764
0.00264417
0.00225977
0.00194252
0.00171235
0.00155828
0.00144563
0.00135224
0.00131077
0.00130298
0.00129862
0.00128271
0.00125691
0.00122815
0.00120118
0.0011781
0.00115876
0.0011427
0.00112939
0.00111819
0.00110883
0.0011009
0.00109447
0.00108933
0.00108489
0.00108128
0.00107842
0.00107607
0.00107407
0.00107267
0.00107174
0.00107092
0.0010701
0.00106943
0.00106891
0.00106861
0.00106849
0.00106848
0.0010684
0.00106839
0.00106827
0.00106808
0.001068
0.00106805
0.00106818
0.00106831
0.00106846
0.0010686
0.00106873
0.00106893
0.00106923
0.00106954
0.00106974
0.00107001
0.00107033
0.00107056
0.00107069
0.00107077
0.0010708
0.00107078
0.00107075
0.00107075
0.00107084
0.00107104
0.00107128
0.00107151
0.0010717
0.00107187
0.00107204
0.00107224
0.00107243
0.00107257
0.00107267
0.00107275
0.00107282
0.00107288
0.00107288
0.00107289
0.00107293
0.00107305
0.00107312
0.00107309
0.00107283
0.00107482
0.00108533
0.00111479
0.00118305
0.00128615
0.00132124
0.125877
0.149726
0.137266
0.115865
0.103503
0.100818
0.108634
0.12634
0.154237
0.18387
0.209453
0.236659
0.279324
0.339488
0.396237
0.419456
0.407452
0.376892
0.335474
0.280972
0.227725
0.190864
0.163703
0.141869
0.125903
0.115703
0.110195
0.1075
0.105063
0.101663
0.096433
0.0898964
0.0836321
0.0791157
0.0758802
0.0726839
0.0693079
0.066112
0.063547
0.0621181
0.061467
0.0605282
0.0586003
0.0555074
0.0522908
0.0501581
0.0491281
0.0486468
0.0480216
0.0465149
0.0439558
0.0411285
0.039043
0.0381616
0.038558
0.0398815
0.0414634
0.042806
0.0441147
0.0457358
0.0477798
0.0504442
0.0534828
0.0561664
0.0583999
0.0599103
0.061133
0.0632137
0.0661395
0.0701879
0.075466
0.0820748
0.0903886
0.100479
0.112442
0.12702
0.145075
0.167108
0.192758
0.220566
0.248094
0.272885
0.293653
0.310139
0.322833
0.333232
0.342219
0.350505
0.35894
0.364964
0.362188
0.353246
0.329869
0.289129
0.239207
0.194759
0.161031
0.13733
0.121362
0.112993
0.109968
0.108459
0.107063
0.10483
0.102639
0.10279
0.105494
0.109411
0.114111
0.118581
0.120059
0.116262
0.10548
0.0898461
0.0736409
0.0548439
0.0367219
0.0225563
0.013998
0.00968129
0.00735936
0.0063604
0.00600659
0.00595391
0.00639057
0.00707845
0.0081886
0.009083
0.00906716
0.00738964
0.00574726
0.00501729
0.00429121
0.00372162
0.00331682
0.00312475
0.00285042
0.00261621
0.00249907
0.00243338
0.00238198
0.00235169
0.0023232
0.002304
0.00229944
0.00229431
0.00228951
0.00229008
0.0022947
0.00230107
0.00230688
0.00231042
0.00231536
0.00232472
0.00233702
0.00234885
0.00235807
0.00236599
0.00237527
0.00238584
0.00239527
0.00240278
0.00240984
0.00241736
0.00242331
0.00242673
0.00242946
0.00243312
0.00243639
0.00243759
0.00243653
0.0024349
0.0024338
0.00243167
0.00242741
0.00242224
0.00241685
0.00240993
0.00240037
0.00238889
0.00237844
0.00237067
0.00236261
0.00235093
0.00233559
0.00231798
0.0023003
0.00228398
0.00227039
0.00225838
0.00224378
0.00222681
0.00220779
0.00218692
0.00216872
0.00215403
0.00213971
0.00212201
0.00210107
0.00207994
0.00206172
0.00204684
0.00202951
0.00200788
0.00198629
0.00196703
0.00194993
0.00193243
0.00191276
0.00189077
0.00186815
0.00184854
0.00183194
0.00181436
0.0017942
0.00177278
0.00175094
0.00172981
0.00171149
0.00169515
0.00167809
0.00165909
0.00163887
0.00161943
0.00160161
0.00158603
0.00157149
0.00155693
0.0015422
0.00152688
0.00151169
0.00149757
0.00148506
0.00147403
0.00146337
0.00145269
0.0014427
0.00143304
0.00142337
0.00141491
0.00140792
0.00140162
0.00139526
0.00138861
0.00138202
0.00137588
0.00137062
0.00136647
0.00136317
0.00135998
0.00135635
0.00135242
0.00134874
0.00134529
0.0013422
0.00133975
0.00133763
0.00133523
0.00133256
0.00133035
0.00132863
0.00132703
0.00132544
0.00132345
0.00132125
0.00131966
0.00131871
0.00131789
0.00131702
0.00131628
0.00131547
0.00131434
0.00131336
0.00131283
0.00131251
0.00131236
0.00131253
0.00131287
0.00131293
0.00131266
0.00131253
0.00131276
0.00131335
0.00131427
0.00131524
0.00131581
0.00131611
0.00131666
0.00131749
0.00131852
0.00131965
0.00132057
0.00132119
0.00132184
0.00132259
0.00132327
0.00132391
0.00132443
0.00132472
0.00132487
0.00132491
0.00132488
0.00132458
0.00132371
0.00132266
0.00132154
0.00132018
0.00131849
0.00131628
0.00131384
0.00131127
0.0013084
0.00130521
0.00130159
0.00129776
0.00129381
0.00128966
0.00128526
0.00128054
0.00127576
0.00127098
0.00126605
0.00126098
0.00125571
0.00125035
0.00124501
0.00123986
0.0012347
0.00122936
0.00122396
0.00121865
0.00121357
0.00120851
0.00120351
0.00119866
0.00119395
0.00118942
0.00118487
0.00118039
0.00117614
0.00117192
0.00116778
0.00116384
0.00115994
0.00115623
0.00115264
0.00114912
0.00114578
0.00114261
0.00113965
0.00113694
0.00113425
0.00113158
0.0011291
0.0011268
0.00112467
0.00112274
0.00112092
0.00111913
0.00111745
0.00111592
0.00111456
0.00111326
0.00111198
0.00111078
0.00110962
0.00110857
0.00110763
0.00110666
0.00110565
0.00110476
0.00110398
0.00110321
0.00110232
0.00110143
0.00110059
0.00109982
0.00109905
0.00109823
0.00109737
0.00109654
0.00109573
0.00109491
0.00109402
0.00109321
0.0010924
0.00109158
0.00109071
0.0010898
0.00108901
0.00108816
0.00108732
0.00108639
0.00108554
0.00108477
0.00108403
0.00108318
0.00108233
0.00108137
0.0010806
0.00108001
0.0010793
0.00107861
0.00107795
0.00107643
0.00107585
0.00107652
0.00107702
0.00108317
0.00108359
0.00108203
0.00107598
0.00108029
0.0011058
0.00112705
0.00116173
0.00117457
0.00128368
0.0013349
0.00124978
0.00119045
0.00114824
0.00114189
0.00109953
0.00108893
0.00107511
0.00107609
0.00107583
0.00107102
0.00108024
0.00113051
0.00116052
0.00120894
0.00121612
0.0013271
0.00138174
0.00133716
0.00126975
0.00120104
0.00117087
0.00116322
0.00111602
0.0010999
0.00107871
0.00107044
0.0010867
0.00108917
0.00108688
0.001074
0.00112789
0.00118024
0.00130405
0.0014341
0.00171267
0.0019961
0.00243189
0.00297556
0.00322164
0.00311732
0.00277047
0.00236313
0.00200679
0.00173181
0.00152343
0.00137538
0.00126016
0.00119828
0.00118336
0.0011876
0.00119246
0.00119387
0.00119129
0.00118503
0.00117608
0.0011654
0.0011539
0.0011423
0.00113111
0.0011206
0.00111152
0.00110361
0.00109648
0.00108999
0.00108431
0.00107938
0.00107508
0.00107152
0.00106854
0.00106596
0.00106379
0.00106205
0.00106055
0.00105918
0.00105798
0.00105703
0.00105621
0.00105548
0.00105495
0.00105464
0.00105435
0.00105403
0.0010537
0.00105341
0.0010532
0.00105305
0.00105296
0.0010529
0.00105286
0.00105284
0.00105282
0.00105281
0.00105282
0.00105281
0.00105276
0.00105274
0.00105273
0.00105271
0.00105268
0.00105264
0.00105257
0.0010525
0.00105246
0.00105247
0.00105252
0.00105259
0.00105262
0.00105261
0.0010526
0.00105259
0.00105257
0.00105254
0.00105252
0.00105253
0.00105253
0.00105246
0.00105237
0.00105238
0.00105247
0.00105252
0.00105253
0.00105254
0.00105266
0.00105274
0.00105249
0.00105451
0.00106489
0.00109421
0.00116183
0.00126416
0.00130034
0.0884044
0.119034
0.0976464
0.0792659
0.074168
0.0714124
0.0753276
0.0838688
0.0975956
0.110684
0.119561
0.127968
0.142306
0.16293
0.183714
0.194017
0.190591
0.176895
0.157207
0.13407
0.113671
0.0990017
0.0877904
0.0787604
0.0722878
0.0680873
0.0654863
0.0637501
0.0619087
0.0596992
0.0569264
0.0538263
0.0511024
0.0491466
0.0474585
0.0454541
0.042911
0.0402413
0.0383687
0.0378124
0.0381907
0.0384517
0.0376525
0.0355181
0.0328786
0.0310077
0.030266
0.0302638
0.0304653
0.0302732
0.0293329
0.0278278
0.0263045
0.0252521
0.0250803
0.0257115
0.0266553
0.0275875
0.0284088
0.0291755
0.0300785
0.03127
0.0327233
0.0341859
0.0357018
0.0371193
0.0382155
0.039204
0.0404537
0.0421609
0.0443828
0.0472985
0.0513218
0.0564772
0.0624629
0.0690923
0.0767318
0.0862303
0.0981145
0.112157
0.127457
0.142692
0.156668
0.168414
0.177793
0.185141
0.191131
0.195934
0.199655
0.202678
0.20572
0.209182
0.212115
0.21165
0.207468
0.195272
0.174233
0.148167
0.123571
0.103441
0.0874964
0.0747776
0.0657161
0.0600807
0.0567737
0.055566
0.0561429
0.0582985
0.0626158
0.0680971
0.0738697
0.0785575
0.0830132
0.0848918
0.0833181
0.0771562
0.0673402
0.0567005
0.0442384
0.0320934
0.0210303
0.0133727
0.0092889
0.00704852
0.00602375
0.00562655
0.00557987
0.00607992
0.00687618
0.00811143
0.00913665
0.00933866
0.00785247
0.00634483
0.00538346
0.00469889
0.00412699
0.00363187
0.0032008
0.00283725
0.00255247
0.0024038
0.0023256
0.00226
0.00222034
0.00218859
0.00216454
0.00215957
0.00216119
0.00216159
0.00216154
0.00216142
0.00216427
0.00217336
0.00218432
0.00219217
0.00219676
0.00219986
0.00220484
0.00221227
0.00222058
0.00222798
0.00223317
0.00223639
0.00223789
0.00223908
0.00224178
0.00224615
0.00225026
0.00225226
0.00225141
0.00224886
0.00224691
0.0022468
0.0022477
0.0022475
0.00224482
0.00223951
0.00223254
0.00222599