/*--------------------------------*- C++ -*----------------------------------*\
| =========                 |                                                 |
| \\      /  F ield         | OpenFOAM: The Open Source CFD Toolbox           |
|  \\    /   O peration     | Version:  v2006                                 |
|   \\  /    A nd           | Website:  www.openfoam.com                      |
|    \\/     M anipulation  |                                                 |
\*---------------------------------------------------------------------------*/
FoamFile
{
    version     2.0;
    format      ascii;
    class       volScalarField;
    location    "6.3";
    object      p_rgh;
}
// * * * * * * * * * * * * * * * * * * * * * * * * * * * * * * * * * * * * * //

dimensions      [1 -1 -2 0 0 0 0];


internalField   nonuniform List<scalar> 
33000
(
7646.06
7640.17
7638.97
7635.44
7632.34
7629.38
7626.46
7623.82
7621.27
7618.74
7616.2
7613.59
7610.97
7608.47
7606.29
7604.55
7603.11
7601.58
7599.76
7597.57
7594.88
7591.86
7588.79
7585.64
7582.4
7579.12
7575.82
7572.45
7569.01
7565.52
7562.01
7558.47
7554.9
7551.26
7547.57
7543.84
7540.07
7536.24
7532.38
7528.56
7524.74
7520.85
7516.93
7512.99
7509.03
7505.04
7501.08
7497.14
7493.2
7489.23
7485.26
7481.31
7477.38
7473.47
7469.58
7465.73
7461.91
7458.11
7454.38
7450.76
7447.17
7443.63
7440.14
7436.73
7433.39
7430.12
7426.92
7423.82
7420.8
7417.88
7415.07
7412.42
7409.85
7407.24
7404.61
7402.08
7399.82
7397.65
7393.09
7387.26
7385.27
7381.71
7379.24
7376.25
7372.92
7369.96
7367.75
7364.98
7362.56
7360.08
7357.72
7355.39
7353.1
7350.98
7348.71
7346.56
7343.91
7341.08
7337.54
7334.47
7333.44
7331.23
7329.75
7328.28
7327.05
7326.16
7325.72
7325.15
7324.72
7324.48
7324.36
7324.45
7324.59
7325.15
7325.25
7325.95
7325.5
7326.26
7328.98
7330.47
7332.76
7335.18
7337.77
7340.89
7344.55
7348.29
7352.43
7356.8
7361.43
7366.39
7371.7
7377.26
7383.15
7389.25
7395.67
7402.33
7409.29
7416.54
7424.04
7431.83
7439.85
7448.16
7456.73
7465.58
7474.66
7483.97
7493.49
7503.22
7513.13
7523.25
7533.59
7544.07
7554.7
7565.46
7576.35
7587.37
7598.5
7609.73
7621.04
7632.42
7643.86
7655.34
7666.84
7678.37
7689.93
7701.47
7712.99
7724.47
7735.93
7747.34
7758.68
7769.94
7781.09
7792.16
7803.13
7813.97
7824.68
7835.23
7845.62
7855.87
7865.94
7875.83
7885.56
7895.09
7904.42
7913.54
7922.44
7931.13
7939.6
7947.87
7955.9
7963.71
7971.28
7978.62
7985.73
7992.61
7999.28
8005.71
8011.92
8017.89
8023.63
8029.14
8034.44
8039.53
8044.43
8049.13
8053.61
8057.89
8061.99
8065.92
8069.69
8073.29
8076.72
8080.01
8083.2
8086.26
8089.2
8092.03
8094.77
8097.42
8100.02
8102.56
8105.06
8107.5
8109.91
8112.29
8114.66
8117.02
8119.36
8121.67
8123.96
8126.21
8128.43
8130.62
8132.79
8134.91
8137
8139.05
8141.06
8143.03
8144.96
8146.85
8148.69
8150.49
8152.26
8153.98
8155.64
8157.26
8158.82
8160.34
8161.82
8163.23
8164.59
8165.89
8167.12
8168.3
8169.41
8170.46
8171.44
8172.34
8173.17
8173.92
8174.59
8175.18
8175.68
8176.09
8176.41
8176.62
8176.75
8176.78
8176.71
8176.53
8176.24
8175.84
8175.33
8174.71
8173.97
8173.12
8172.15
8171.06
8169.85
8168.52
8167.07
8165.5
8163.81
8162
8160.07
8158.02
8155.85
8153.56
8151.16
8148.65
8146.02
8143.29
8140.44
8137.5
8134.44
8131.3
8128.06
8124.72
8121.3
8117.8
8114.21
8110.55
8106.82
8103.02
8099.15
8095.23
8091.26
8087.24
8083.17
8079.06
8074.92
8070.74
8066.55
8062.33
8058.09
8053.84
8049.59
8045.33
8041.07
8036.82
8032.58
8028.35
8024.13
8019.94
8015.77
8011.63
8007.51
8003.44
7999.4
7995.39
7991.43
7987.52
7983.66
7979.84
7976.08
7972.37
7968.71
7965.12
7961.58
7958.1
7954.68
7951.32
7948.03
7944.79
7941.62
7938.52
7935.48
7932.5
7929.58
7926.73
7923.94
7921.21
7918.54
7915.94
7913.39
7910.9
7908.47
7906.1
7903.79
7901.53
7899.32
7897.17
7895.07
7893.02
7891.02
7889.07
7887.17
7885.32
7883.52
7881.76
7880.05
7878.39
7876.77
7875.2
7873.67
7872.19
7870.75
7869.35
7868.01
7866.71
7865.46
7864.26
7863.11
7862.02
7860.98
7859.99
7859.06
7858.18
7857.36
7856.59
7855.88
7855.22
7854.62
7854.08
7853.58
7853.15
7852.76
7852.43
7852.15
7851.93
7851.75
7851.62
7851.55
7851.52
7851.53
7851.59
7851.7
7851.85
7852.03
7852.26
7852.53
7852.83
7853.17
7853.54
7853.95
7854.38
7854.84
7855.33
7855.85
7856.39
7856.95
7857.53
7858.13
7858.74
7859.37
7860.03
7860.67
7861.39
7862.05
7862.64
7863.32
7863.99
7864.7
7865.41
7866.14
7866.89
7867.64
7868.4
7869.17
7869.95
7870.73
7871.52
7872.31
7873.1
7873.9
7874.69
7875.49
7876.26
7877.05
7877.82
7878.6
7879.36
7880.13
7880.88
7881.65
7882.39
7883.13
7883.85
7884.59
7885.27
7886.01
7886.67
7887.32
7887.95
7888.62
7889.11
7890
7890.48
7890.83
7891.25
7891.7
7892.17
7892.65
7893.14
7893.63
7894.12
7894.62
7895.12
7895.62
7896.11
7896.6
7897.09
7897.58
7898.07
7898.55
7899.02
7899.49
7899.96
7900.42
7900.88
7901.33
7901.78
7902.22
7902.65
7903.08
7903.51
7903.92
7904.34
7904.74
7905.14
7905.53
7905.92
7906.3
7906.67
7907.04
7907.4
7907.76
7908.11
7908.45
7908.78
7909.11
7909.43
7909.75
7910.06
7910.36
7910.65
7910.94
7911.23
7911.5
7911.77
7912.04
7912.29
7912.54
7912.79
7913.02
7913.26
7913.48
7913.7
7913.91
7914.12
7914.31
7914.51
7914.69
7914.87
7915.05
7915.21
7915.38
7915.53
7915.68
7915.82
7915.96
7916.09
7916.21
7916.33
7916.44
7916.54
7916.65
7916.71
7648
7641.15
7638.64
7634.88
7631.51
7628.63
7625.9
7623.36
7620.93
7618.55
7616.05
7613.38
7610.55
7607.81
7605.43
7603.6
7602.04
7600.31
7598.61
7596.91
7594.42
7591.52
7588.57
7585.52
7582.34
7579.09
7575.77
7572.32
7568.87
7565.44
7562.03
7558.47
7554.86
7551.22
7547.61
7543.89
7540.04
7536.11
7532.28
7528.46
7524.74
7520.86
7516.94
7512.95
7508.9
7504.93
7500.97
7497.1
7493.17
7489.19
7485.22
7481.26
7477.32
7473.38
7469.39
7465.46
7461.66
7457.91
7454.17
7450.55
7447.02
7443.37
7439.79
7436.49
7433.19
7429.9
7426.66
7423.47
7420.33
7417.36
7414.5
7411.72
7409.13
7406.49
7403.78
7400.97
7398.02
7395.01
7392.35
7390.22
7387.62
7382.32
7376.73
7375.11
7372.01
7370.31
7367.64
7365.45
7362.17
7359.68
7357.45
7355.09
7352.75
7350.44
7348.09
7345.76
7343.46
7340.88
7338.14
7334.66
7332.4
7329.34
7327.5
7328.72
7327.37
7326.75
7325.45
7324.91
7323.86
7323.8
7323.98
7324.15
7324.43
7324.8
7325.13
7325.75
7326.49
7327.26
7328.93
7328.89
7330.84
7334.79
7337.56
7340.85
7344.19
7347.72
7351.75
7356.33
7360.99
7366.03
7371.27
7376.83
7382.69
7388.84
7395.25
7401.98
7408.92
7416.18
7423.66
7431.43
7439.45
7447.78
7456.36
7465.2
7474.3
7483.64
7493.17
7502.88
7512.8
7522.94
7533.3
7543.82
7554.46
7565.23
7576.12
7587.16
7598.3
7609.54
7620.89
7632.28
7643.73
7655.23
7666.73
7678.27
7689.87
7701.43
7712.95
7724.43
7735.91
7747.37
7758.73
7769.98
7781.13
7792.22
7803.22
7814.09
7824.79
7835.35
7845.76
7856.04
7866.11
7875.99
7885.71
7895.25
7904.63
7913.76
7922.67
7931.33
7939.8
7948.06
7956.12
7963.93
7971.51
7978.83
7985.93
7992.81
7999.46
8005.9
8012.11
8018.08
8023.8
8029.3
8034.6
8039.69
8044.59
8049.27
8053.74
8058.01
8062.1
8066.03
8069.79
8073.38
8076.8
8080.08
8083.26
8086.32
8089.26
8092.09
8094.82
8097.46
8100.05
8102.59
8105.09
8107.54
8109.95
8112.32
8114.68
8117.03
8119.36
8121.69
8123.99
8126.24
8128.45
8130.64
8132.8
8134.92
8137.02
8139.08
8141.1
8143.07
8144.99
8146.87
8148.71
8150.51
8152.27
8154.01
8155.68
8157.3
8158.86
8160.38
8161.86
8163.29
8164.65
8165.95
8167.19
8168.37
8169.49
8170.54
8171.52
8172.44
8173.27
8174.02
8174.7
8175.3
8175.81
8176.22
8176.54
8176.76
8176.9
8176.94
8176.87
8176.7
8176.42
8176.02
8175.51
8174.89
8174.16
8173.32
8172.36
8171.27
8170.07
8168.74
8167.29
8165.71
8164.03
8162.23
8160.3
8158.25
8156.08
8153.79
8151.39
8148.87
8146.25
8143.51
8140.67
8137.72
8134.66
8131.51
8128.27
8124.93
8121.5
8117.99
8114.4
8110.73
8107
8103.19
8099.32
8095.39
8091.41
8087.38
8083.31
8079.19
8075.04
8070.86
8066.66
8062.44
8058.19
8053.94
8049.68
8045.41
8041.15
8036.89
8032.64
8028.4
8024.18
8019.98
8015.8
8011.65
8007.54
8003.45
7999.41
7995.4
7991.43
7987.52
7983.65
7979.83
7976.06
7972.35
7968.69
7965.09
7961.54
7958.06
7954.64
7951.28
7947.98
7944.74
7941.57
7938.46
7935.42
7932.44
7929.52
7926.66
7923.87
7921.14
7918.47
7915.86
7913.32
7910.83
7908.4
7906.02
7903.7
7901.44
7899.23
7897.08
7894.98
7892.92
7890.92
7888.97
7887.07
7885.22
7883.41
7881.66
7879.95
7878.28
7876.66
7875.09
7873.56
7872.08
7870.63
7869.24
7867.89
7866.59
7865.34
7864.14
7862.99
7861.9
7860.86
7859.87
7858.93
7858.06
7857.23
7856.47
7855.75
7855.1
7854.5
7853.95
7853.46
7853.03
7852.64
7852.31
7852.04
7851.81
7851.64
7851.51
7851.44
7851.41
7851.43
7851.49
7851.6
7851.75
7851.94
7852.17
7852.44
7852.75
7853.09
7853.46
7853.87
7854.31
7854.78
7855.27
7855.79
7856.33
7856.88
7857.47
7858.09
7858.7
7859.39
7860.03
7860.59
7861.26
7861.88
7862.56
7863.23
7863.93
7864.64
7865.37
7866.11
7866.85
7867.62
7868.37
7869.16
7869.93
7870.73
7871.5
7872.31
7873.09
7873.9
7874.67
7875.48
7876.25
7877.05
7877.82
7878.61
7879.37
7880.13
7880.9
7881.64
7882.42
7883.13
7883.92
7884.6
7885.32
7885.95
7886.7
7887.26
7888.27
7888.84
7889.22
7889.69
7890.19
7890.68
7891.16
7891.65
7892.14
7892.64
7893.13
7893.63
7894.13
7894.63
7895.13
7895.63
7896.13
7896.62
7897.11
7897.6
7898.08
7898.56
7899.04
7899.51
7899.98
7900.44
7900.9
7901.35
7901.79
7902.23
7902.67
7903.1
7903.52
7903.94
7904.35
7904.76
7905.16
7905.55
7905.94
7906.32
7906.69
7907.06
7907.42
7907.78
7908.12
7908.47
7908.8
7909.13
7909.45
7909.77
7910.07
7910.38
7910.67
7910.96
7911.24
7911.52
7911.79
7912.05
7912.31
7912.56
7912.8
7913.04
7913.27
7913.5
7913.71
7913.93
7914.13
7914.33
7914.52
7914.71
7914.89
7915.06
7915.23
7915.39
7915.55
7915.69
7915.84
7915.97
7916.1
7916.23
7916.35
7916.46
7916.56
7916.67
7916.73
7652.82
7645.38
7638.05
7633.74
7630.32
7627.58
7625.2
7622.98
7620.83
7618.64
7616.29
7613.77
7611.1
7608.47
7606.09
7604.09
7602.27
7600.36
7598.33
7596.27
7593.83
7591.08
7588.23
7585.29
7582.27
7579.08
7575.69
7572.14
7568.77
7565.35
7561.85
7558.42
7555.01
7551.39
7547.7
7543.97
7540.17
7536.2
7532.18
7528.36
7524.74
7520.87
7516.94
7512.93
7508.8
7504.77
7500.79
7496.89
7493.07
7489.1
7485.12
7481.15
7477.18
7473.18
7469.07
7465.17
7461.37
7457.65
7454.05
7450.21
7446.45
7442.87
7439.36
7435.95
7432.79
7429.5
7426.25
7423.01
7419.77
7416.72
7413.76
7410.97
7408.27
7405.5
7402.71
7399.82
7396.82
7393.69
7390.5
7387.44
7384.76
7382.43
7380.86
7378.31
7372.41
7366.72
7367
7364.27
7362.36
7359.94
7357.59
7354.67
7352.05
7350.11
7347.54
7345.47
7342.9
7340.67
7338.02
7336.17
7334.42
7332.25
7329.23
7327.48
7324.26
7323.17
7325.82
7325.01
7324.66
7324.06
7323.71
7323.47
7323.7
7324.48
7324.9
7325.6
7326.33
7327.48
7329.11
7330.94
7332.41
7334.67
7335.36
7338.23
7343.53
7347.27
7351.52
7355.62
7359.99
7364.9
7370.44
7376.02
7382.07
7388.08
7394.41
7400.96
7407.92
7415.28
7422.81
7430.64
7438.63
7446.97
7455.57
7464.46
7473.62
7482.97
7492.44
7502.18
7512.16
7522.38
7532.8
7543.31
7553.9
7564.69
7575.66
7586.82
7598
7609.21
7620.52
7631.94
7643.46
7655.01
7666.53
7678.11
7689.74
7701.35
7712.87
7724.39
7735.9
7747.41
7758.8
7770.05
7781.25
7792.37
7803.38
7814.3
7825.05
7835.62
7846.07
7856.35
7866.41
7876.32
7886.06
7895.61
7905.02
7914.18
7923.1
7931.79
7940.22
7948.46
7956.49
7964.34
7971.95
7979.3
7986.39
7993.22
7999.86
8006.28
8012.51
8018.47
8024.17
8029.65
8034.93
8040.04
8044.91
8049.56
8054
8058.26
8062.34
8066.27
8070.01
8073.58
8076.96
8080.24
8083.43
8086.49
8089.42
8092.24
8094.96
8097.57
8100.15
8102.69
8105.2
8107.65
8110.05
8112.41
8114.75
8117.09
8119.43
8121.76
8124.05
8126.3
8128.5
8130.68
8132.85
8135
8137.09
8139.14
8141.15
8143.11
8145.01
8146.9
8148.76
8150.58
8152.37
8154.09
8155.76
8157.39
8158.94
8160.46
8161.95
8163.4
8164.77
8166.08
8167.32
8168.51
8169.66
8170.73
8171.72
8172.62
8173.45
8174.23
8174.94
8175.55
8176.06
8176.49
8176.8
8177.05
8177.19
8177.25
8177.2
8177.04
8176.77
8176.38
8175.88
8175.27
8174.54
8173.71
8172.76
8171.69
8170.49
8169.17
8167.72
8166.15
8164.48
8162.68
8160.75
8158.7
8156.54
8154.25
8151.84
8149.33
8146.7
8143.96
8141.11
8138.16
8135.1
8131.94
8128.68
8125.33
8121.9
8118.39
8114.79
8111.11
8107.35
8103.54
8099.66
8095.72
8091.72
8087.68
8083.6
8079.47
8075.3
8071.11
8066.89
8062.65
8058.4
8054.13
8049.85
8045.57
8041.29
8037.02
8032.76
8028.51
8024.27
8020.06
8015.87
8011.71
8007.58
8003.48
7999.43
7995.41
7991.43
7987.5
7983.62
7979.79
7976.02
7972.29
7968.63
7965.02
7961.47
7957.98
7954.55
7951.18
7947.88
7944.64
7941.46
7938.35
7935.3
7932.32
7929.39
7926.53
7923.74
7921
7918.33
7915.71
7913.16
7910.66
7908.23
7905.85
7903.53
7901.26
7899.05
7896.89
7894.79
7892.73
7890.73
7888.78
7886.87
7885.02
7883.21
7881.45
7879.74
7878.07
7876.45
7874.87
7873.34
7871.85
7870.41
7869.01
7867.66
7866.36
7865.11
7863.9
7862.75
7861.65
7860.61
7859.62
7858.69
7857.81
7856.98
7856.22
7855.5
7854.85
7854.25
7853.71
7853.22
7852.78
7852.4
7852.07
7851.8
7851.58
7851.41
7851.29
7851.22
7851.19
7851.22
7851.29
7851.4
7851.56
7851.75
7851.99
7852.26
7852.58
7852.92
7853.31
7853.72
7854.17
7854.63
7855.13
7855.65
7856.22
7856.78
7857.43
7858.02
7858.54
7859.16
7859.77
7860.42
7861.08
7861.75
7862.43
7863.13
7863.84
7864.56
7865.29
7866.04
7866.8
7867.56
7868.35
7869.11
7869.91
7870.69
7871.49
7872.27
7873.08
7873.86
7874.67
7875.46
7876.26
7877.05
7877.82
7878.61
7879.36
7880.17
7880.9
7881.73
7882.44
7883.2
7883.86
7884.67
7885.26
7886.35
7886.95
7887.37
7887.88
7888.42
7888.96
7889.49
7890.03
7890.54
7891.06
7891.57
7892.07
7892.58
7893.08
7893.59
7894.1
7894.6
7895.11
7895.62
7896.12
7896.61
7897.11
7897.6
7898.09
7898.57
7899.05
7899.53
7899.99
7900.46
7900.92
7901.37
7901.82
7902.26
7902.7
7903.13
7903.55
7903.97
7904.38
7904.78
7905.18
7905.58
7905.96
7906.34
7906.72
7907.09
7907.45
7907.8
7908.15
7908.49
7908.83
7909.16
7909.48
7909.79
7910.1
7910.41
7910.7
7910.99
7911.27
7911.55
7911.82
7912.08
7912.34
7912.59
7912.83
7913.07
7913.3
7913.53
7913.75
7913.96
7914.16
7914.36
7914.55
7914.74
7914.92
7915.09
7915.26
7915.42
7915.58
7915.73
7915.87
7916
7916.13
7916.26
7916.37
7916.49
7916.59
7916.7
7916.76
7644.15
7637.25
7629.9
7628.14
7626.9
7625.36
7623.67
7621.99
7620.27
7618.44
7616.41
7614.19
7611.81
7609.36
7606.94
7604.94
7602.8
7600.6
7598.31
7596.3
7593.73
7590.98
7588.07
7585.18
7582.28
7579.14
7575.82
7572.22
7568.73
7565.3
7561.9
7558.69
7555.15
7551.5
7547.8
7544.06
7540.26
7536.36
7532.39
7528.54
7524.78
7520.87
7516.92
7512.94
7508.85
7504.64
7500.56
7496.75
7492.92
7488.93
7484.93
7480.94
7476.95
7472.96
7468.9
7464.92
7461.23
7457.5
7453.72
7449.76
7445.89
7442.3
7438.76
7435.26
7432.13
7428.94
7425.66
7422.43
7419.23
7415.98
7412.83
7409.92
7407.23
7404.39
7401.47
7398.54
7395.61
7392.6
7389.39
7386.1
7383.08
7380.24
7377.74
7375.48
7373.14
7371.24
7370.28
7368.03
7361.72
7356.49
7357.06
7353.74
7352.5
7349.55
7346.88
7344.41
7342.71
7340.2
7338.23
7335.78
7333.71
7331.46
7330.12
7329.7
7328.21
7326.84
7324.98
7323.51
7320.75
7320.58
7323.42
7323.56
7323.66
7323.82
7323.95
7324.74
7326.11
7327.21
7328.75
7330.16
7332.21
7334.56
7337.48
7339.88
7343.1
7344.34
7347.99
7354.35
7359.01
7364.24
7369.36
7374.66
7380.46
7386.87
7393.23
7399.98
7406.88
7414.11
7421.61
7429.47
7437.58
7445.84
7454.48
7463.4
7472.59
7481.93
7491.42
7501.21
7511.25
7521.58
7532
7542.48
7553.12
7563.98
7574.99
7586.22
7597.46
7608.72
7620.04
7631.5
7643.02
7654.59
7666.21
7677.93
7689.6
7701.2
7712.75
7724.34
7735.89
7747.41
7758.92
7770.23
7781.44
7792.6
7803.64
7814.55
7825.41
7836.08
7846.55
7856.8
7866.87
7876.83
7886.6
7896.22
7905.64
7914.79
7923.73
7932.42
7940.84
7949.09
7957.13
7964.94
7972.6
7979.96
7987.06
7993.9
8000.47
8006.87
8013.08
8019.05
8024.76
8030.21
8035.44
8040.54
8045.38
8050
8054.42
8058.67
8062.76
8066.66
8070.37
8073.89
8077.25
8080.52
8083.67
8086.75
8089.68
8092.48
8095.17
8097.78
8100.35
8102.89
8105.4
8107.83
8110.22
8112.6
8114.92
8117.23
8119.54
8121.84
8124.14
8126.39
8128.61
8130.76
8132.91
8135.07
8137.18
8139.22
8141.2
8143.14
8145.08
8146.98
8148.86
8150.7
8152.47
8154.19
8155.84
8157.46
8159.05
8160.6
8162.13
8163.57
8164.93
8166.23
8167.52
8168.76
8169.9
8170.98
8171.98
8172.88
8173.75
8174.54
8175.28
8175.91
8176.44
8176.89
8177.23
8177.47
8177.64
8177.72
8177.69
8177.54
8177.27
8176.9
8176.44
8175.86
8175.15
8174.31
8173.35
8172.3
8171.13
8169.82
8168.37
8166.82
8165.14
8163.36
8161.43
8159.37
8157.21
8154.94
8152.54
8150.02
8147.39
8144.63
8141.77
8138.82
8135.76
8132.59
8129.32
8125.95
8122.5
8118.98
8115.36
8111.66
8107.89
8104.06
8100.17
8096.21
8092.19
8088.13
8084.03
8079.88
8075.69
8071.47
8067.23
8062.98
8058.7
8054.41
8050.11
8045.81
8041.51
8037.22
8032.93
8028.66
8024.41
8020.17
8015.96
8011.79
8007.64
8003.53
7999.45
7995.42
7991.43
7987.48
7983.59
7979.74
7975.95
7972.22
7968.54
7964.92
7961.36
7957.86
7954.42
7951.05
7947.74
7944.49
7941.3
7938.18
7935.12
7932.13
7929.2
7926.33
7923.53
7920.79
7918.11
7915.48
7912.92
7910.42
7907.98
7905.6
7903.27
7900.99
7898.77
7896.61
7894.5
7892.44
7890.43
7888.48
7886.57
7884.71
7882.9
7881.13
7879.42
7877.75
7876.12
7874.54
7873
7871.51
7870.06
7868.66
7867.31
7866
7864.74
7863.54
7862.38
7861.28
7860.24
7859.25
7858.31
7857.43
7856.61
7855.84
7855.13
7854.47
7853.87
7853.33
7852.85
7852.42
7852.04
7851.72
7851.45
7851.23
7851.07
7850.95
7850.89
7850.87
7850.9
7850.98
7851.1
7851.26
7851.47
7851.71
7852
7852.32
7852.68
7853.07
7853.49
7853.94
7854.44
7854.94
7855.53
7856.07
7856.54
7857.12
7857.68
7858.29
7858.91
7859.56
7860.21
7860.88
7861.56
7862.26
7862.97
7863.7
7864.44
7865.19
7865.95
7866.7
7867.49
7868.26
7869.06
7869.83
7870.65
7871.42
7872.25
7873.03
7873.87
7874.65
7875.48
7876.25
7877.09
7877.84
7878.69
7879.45
7880.18
7880.95
7881.65
7882.49
7883.12
7884.29
7884.92
7885.37
7885.92
7886.5
7887.09
7887.69
7888.27
7888.84
7889.39
7889.93
7890.46
7890.99
7891.52
7892.04
7892.56
7893.08
7893.6
7894.11
7894.62
7895.13
7895.64
7896.14
7896.64
7897.14
7897.63
7898.12
7898.61
7899.09
7899.56
7900.03
7900.5
7900.96
7901.41
7901.86
7902.3
7902.74
7903.17
7903.6
7904.01
7904.43
7904.83
7905.23
7905.63
7906.01
7906.39
7906.77
7907.14
7907.5
7907.85
7908.2
7908.54
7908.88
7909.2
7909.53
7909.84
7910.15
7910.45
7910.75
7911.04
7911.32
7911.6
7911.87
7912.13
7912.39
7912.64
7912.88
7913.12
7913.35
7913.57
7913.79
7914
7914.21
7914.41
7914.6
7914.79
7914.97
7915.14
7915.31
7915.47
7915.62
7915.77
7915.91
7916.05
7916.18
7916.3
7916.42
7916.53
7916.63
7916.75
7916.8
7620.99
7609.31
7612.08
7617.28
7620.31
7621.3
7621.2
7620.56
7619.47
7618.09
7616.42
7614.51
7612.41
7610.19
7607.92
7605.68
7603.43
7601.14
7598.78
7596.4
7593.85
7591.12
7588.23
7585.35
7582.41
7579.29
7576.05
7572.6
7568.94
7565.47
7562.36
7558.89
7555.28
7551.62
7547.9
7544.14
7540.33
7536.46
7532.57
7528.67
7524.77
7520.82
7516.84
7512.83
7508.79
7504.64
7500.49
7496.57
7492.65
7488.64
7484.62
7480.61
7476.59
7472.57
7468.61
7464.7
7460.84
7457.01
7453.22
7449.41
7445.42
7441.53
7437.96
7434.47
7431.46
7428.18
7424.85
7421.57
7418.34
7415.17
7411.99
7408.86
7405.87
7402.98
7400.15
7397.24
7394.29
7391.28
7388.14
7385.1
7382.22
7379.38
7376.62
7374.22
7371.86
7369.68
7367.5
7365.3
7363.64
7362.7
7359.98
7353.13
7348.09
7349.29
7346.21
7345.14
7342.47
7340.04
7337.57
7336.44
7334.21
7332.71
7330.86
7329.28
7327.64
7326.68
7326.8
7325.55
7325.65
7323.36
7322.52
7319.95
7319.9
7323.8
7324.23
7324.85
7325.54
7326.39
7327.93
7330.17
7331.95
7334.23
7336.67
7339.72
7343.09
7346.82
7349.72
7353.79
7355.68
7360.37
7367.97
7373.35
7379.72
7385.47
7391.79
7397.9
7404.7
7412.21
7419.76
7427.84
7436
7444.36
7452.95
7461.93
7471.12
7480.45
7490.02
7499.9
7510.09
7520.47
7530.87
7541.35
7552.11
7563.03
7574.16
7585.45
7596.73
7608.1
7619.48
7630.94
7642.52
7654.16
7665.91
7677.68
7689.38
7701.03
7712.63
7724.29
7735.9
7747.51
7759.09
7770.5
7781.73
7792.91
7804.01
7815.02
7825.94
7836.63
7847.12
7857.37
7867.52
7877.52
7887.38
7897.06
7906.45
7915.62
7924.57
7933.28
7941.7
7949.96
7958
7965.8
7973.47
7980.84
7987.93
7994.79
8001.35
8007.68
8013.87
8019.85
8025.54
8031
8036.19
8041.15
8045.96
8050.57
8055.04
8059.31
8063.34
8067.2
8070.85
8074.32
8077.71
8080.97
8084.14
8087.17
8090.06
8092.83
8095.49
8098.12
8100.7
8103.25
8105.7
8108.07
8110.44
8112.82
8115.21
8117.52
8119.79
8122
8124.25
8126.48
8128.69
8130.88
8133.08
8135.22
8137.3
8139.33
8141.28
8143.24
8145.18
8147.1
8149
8150.83
8152.59
8154.27
8155.96
8157.61
8159.22
8160.81
8162.35
8163.79
8165.15
8166.48
8167.77
8169.02
8170.22
8171.32
8172.31
8173.26
8174.15
8174.97
8175.74
8176.39
8176.95
8177.42
8177.8
8178.05
8178.24
8178.34
8178.34
8178.21
8177.95
8177.61
8177.18
8176.63
8175.94
8175.12
8174.17
8173.12
8171.95
8170.68
8169.27
8167.73
8166.06
8164.25
8162.32
8160.28
8158.13
8155.86
8153.46
8150.94
8148.28
8145.52
8142.66
8139.7
8136.63
8133.45
8130.16
8126.77
8123.32
8119.77
8116.11
8112.4
8108.61
8104.76
8100.85
8096.85
8092.81
8088.72
8084.6
8080.42
8076.2
8071.95
8067.68
8063.4
8059.1
8054.78
8050.44
8046.11
8041.78
8037.47
8033.16
8028.86
8024.58
8020.31
8016.08
8011.87
8007.71
8003.58
7999.48
7995.42
7991.41
7987.44
7983.53
7979.67
7975.87
7972.12
7968.42
7964.78
7961.2
7957.69
7954.24
7950.85
7947.53
7944.27
7941.07
7937.94
7934.87
7931.86
7928.92
7926.05
7923.24
7920.49
7917.8
7915.17
7912.59
7910.09
7907.64
7905.24
7902.91
7900.63
7898.4
7896.23
7894.11
7892.05
7890.03
7888.07
7886.16
7884.29
7882.47
7880.7
7878.98
7877.3
7875.67
7874.08
7872.54
7871.04
7869.59
7868.19
7866.82
7865.51
7864.25
7863.04
7861.88
7860.78
7859.73
7858.74
7857.8
7856.92
7856.09
7855.33
7854.62
7853.96
7853.37
7852.83
7852.35
7851.92
7851.55
7851.24
7850.97
7850.76
7850.61
7850.5
7850.45
7850.44
7850.48
7850.57
7850.69
7850.88
7851.09
7851.36
7851.64
7851.98
7852.34
7852.77
7853.19
7853.72
7854.2
7854.6
7855.12
7855.63
7856.2
7856.77
7857.38
7857.99
7858.64
7859.28
7859.96
7860.64
7861.35
7862.06
7862.8
7863.54
7864.28
7865.05
7865.8
7866.59
7867.36
7868.16
7868.94
7869.77
7870.55
7871.4
7872.18
7873.03
7873.81
7874.67
7875.44
7876.32
7877.09
7877.85
7878.64
7879.36
7880.2
7880.9
7882.1
7882.77
7883.25
7883.83
7884.45
7885.07
7885.71
7886.32
7886.92
7887.52
7888.11
7888.68
7889.25
7889.81
7890.36
7890.91
7891.45
7891.99
7892.52
7893.05
7893.58
7894.1
7894.62
7895.14
7895.65
7896.16
7896.67
7897.17
7897.67
7898.16
7898.65
7899.13
7899.61
7900.08
7900.55
7901.01
7901.46
7901.91
7902.36
7902.79
7903.23
7903.65
7904.07
7904.48
7904.89
7905.29
7905.69
7906.07
7906.46
7906.83
7907.2
7907.56
7907.91
7908.26
7908.6
7908.94
7909.27
7909.59
7909.91
7910.22
7910.52
7910.81
7911.1
7911.39
7911.66
7911.93
7912.19
7912.45
7912.7
7912.94
7913.18
7913.41
7913.64
7913.85
7914.07
7914.27
7914.47
7914.66
7914.85
7915.03
7915.2
7915.37
7915.53
7915.68
7915.83
7915.97
7916.11
7916.24
7916.36
7916.48
7916.59
7916.7
7916.81
7916.87
7607.91
7593.97
7606.87
7611.41
7616.93
7618.23
7619.51
7619.61
7618.97
7617.92
7616.5
7614.81
7612.9
7610.82
7608.64
7606.4
7604.11
7601.75
7599.33
7596.83
7594.22
7591.49
7588.64
7585.71
7582.69
7579.56
7576.34
7573.01
7569.55
7566.08
7562.66
7559.09
7555.45
7551.75
7548
7544.21
7540.39
7536.52
7532.61
7528.67
7524.68
7520.67
7516.68
7512.67
7508.59
7504.52
7500.42
7496.16
7491.79
7487.76
7484.15
7480.15
7476.11
7472.08
7468.09
7464.14
7460.23
7456.36
7452.53
7448.75
7444.98
7441.08
7437.09
7433.47
7430.44
7427.19
7423.84
7420.51
7417.24
7414.02
7410.86
7407.74
7404.56
7401.29
7398.26
7395.59
7392.78
7389.84
7386.92
7383.87
7380.83
7378.21
7375.98
7373.47
7370.94
7368.43
7365.87
7363.39
7361.14
7358.93
7356.87
7355.35
7354.7
7351.58
7344.04
7339.65
7341.78
7339.49
7338.87
7335.86
7333.41
7331.58
7331.16
7329.82
7328.49
7327.45
7325.88
7325.07
7324.22
7324.14
7324.51
7324.45
7322.73
7322.29
7319.71
7320.2
7325.36
7326.51
7327.82
7329.17
7330.69
7333.07
7336.37
7339.08
7342.34
7345.43
7349.21
7353.4
7358.07
7361.96
7366.94
7369.32
7374.98
7383.51
7389.93
7396.98
7403.7
7410.69
7417.61
7425.57
7434.06
7442.51
7451.33
7460.23
7469.29
7478.57
7488.34
7498.41
7508.72
7519.04
7529.54
7540.1
7550.86
7561.88
7573.2
7584.44
7595.79
7607.23
7618.76
7630.26
7641.86
7653.64
7665.51
7677.28
7689.07
7700.86
7712.54
7724.21
7735.96
7747.72
7759.29
7770.78
7782.14
7793.33
7804.51
7815.67
7826.58
7837.32
7847.84
7858.14
7868.35
7878.49
7888.42
7898.05
7907.46
7916.63
7925.57
7934.31
7942.86
7951.13
7959.11
7966.96
7974.58
7981.91
7989
7995.89
8002.5
8008.81
8014.9
8020.84
8026.5
8031.95
8037.14
8042.05
8046.83
8051.43
8055.9
8060.1
8064.1
8067.87
8071.47
8074.98
8078.37
8081.69
8084.8
8087.78
8090.58
8093.32
8096.01
8098.68
8101.26
8103.74
8106.11
8108.48
8110.84
8113.21
8115.57
8117.86
8120.13
8122.35
8124.5
8126.7
8128.89
8131.07
8133.27
8135.39
8137.46
8139.5
8141.45
8143.38
8145.34
8147.3
8149.17
8150.96
8152.69
8154.43
8156.14
8157.82
8159.49
8161.08
8162.6
8164.04
8165.41
8166.78
8168.1
8169.4
8170.62
8171.74
8172.74
8173.73
8174.67
8175.55
8176.32
8176.99
8177.55
8178.05
8178.48
8178.81
8179.03
8179.15
8179.16
8179.03
8178.83
8178.53
8178.13
8177.59
8176.93
8176.14
8175.21
8174.17
8173.03
8171.78
8170.39
8168.86
8167.2
8165.39
8163.47
8161.45
8159.31
8157.03
8154.62
8152.07
8149.42
8146.67
8143.81
8140.83
8137.74
8134.54
8131.23
8127.82
8124.34
8120.77
8117.11
8113.34
8109.53
8105.66
8101.7
8097.68
8093.6
8089.48
8085.32
8081.11
8076.85
8072.56
8068.26
8063.95
8059.6
8055.24
8050.87
8046.51
8042.15
8037.79
8033.44
8029.11
8024.8
8020.51
8016.23
8011.99
8007.8
8003.64
7999.51
7995.43
7991.39
7987.41
7983.47
7979.58
7975.75
7971.98
7968.26
7964.6
7961.01
7957.48
7954.01
7950.6
7947.27
7943.99
7940.78
7937.63
7934.55
7931.53
7928.57
7925.68
7922.86
7920.1
7917.4
7914.76
7912.18
7909.66
7907.2
7904.8
7902.45
7900.16
7897.93
7895.75
7893.62
7891.55
7889.53
7887.55
7885.63
7883.76
7881.93
7880.15
7878.42
7876.74
7875.1
7873.5
7871.95
7870.45
7868.99
7867.58
7866.21
7864.9
7863.63
7862.42
7861.25
7860.15
7859.1
7858.1
7857.16
7856.28
7855.45
7854.69
7853.98
7853.33
7852.73
7852.2
7851.72
7851.31
7850.94
7850.63
7850.38
7850.18
7850.03
7849.94
7849.89
7849.91
7849.95
7850.06
7850.2
7850.37
7850.61
7850.86
7851.21
7851.54
7852
7852.4
7852.73
7853.19
7853.63
7854.14
7854.66
7855.23
7855.78
7856.39
7856.99
7857.64
7858.29
7858.97
7859.66
7860.38
7861.09
7861.82
7862.57
7863.3
7864.08
7864.83
7865.63
7866.4
7867.23
7868.01
7868.87
7869.65
7870.51
7871.29
7872.18
7872.95
7873.89
7874.64
7875.5
7876.24
7877.14
7877.83
7879.09
7879.8
7880.26
7880.89
7881.55
7882.22
7882.89
7883.58
7884.25
7884.9
7885.53
7886.16
7886.77
7887.38
7887.97
7888.56
7889.14
7889.72
7890.29
7890.85
7891.4
7891.95
7892.5
7893.04
7893.58
7894.11
7894.64
7895.16
7895.68
7896.2
7896.71
7897.21
7897.71
7898.21
7898.7
7899.19
7899.67
7900.14
7900.61
7901.07
7901.53
7901.98
7902.43
7902.87
7903.3
7903.73
7904.15
7904.56
7904.97
7905.37
7905.76
7906.15
7906.53
7906.91
7907.28
7907.64
7907.99
7908.34
7908.68
7909.02
7909.35
7909.67
7909.99
7910.3
7910.6
7910.89
7911.18
7911.46
7911.74
7912.01
7912.27
7912.53
7912.78
7913.02
7913.26
7913.49
7913.72
7913.93
7914.14
7914.35
7914.55
7914.74
7914.93
7915.11
7915.28
7915.45
7915.61
7915.76
7915.91
7916.05
7916.19
7916.32
7916.44
7916.56
7916.67
7916.77
7916.88
7916.94
7618.1
7605
7615.81
7614.44
7619.74
7618.69
7620.44
7620.29
7619.57
7618.49
7617.12
7615.51
7613.66
7611.64
7609.49
7607.24
7604.92
7602.51
7600.03
7597.47
7594.79
7592.03
7589.16
7586.19
7583.12
7579.96
7576.71
7573.37
7569.98
7566.53
7562.98
7559.36
7555.67
7551.81
7547.82
7544.07
7540.47
7536.58
7532.63
7528.65
7524.5
7520.11
7515.94
7512.38
7508.35
7504.23
7499.96
7495.2
7490.7
7486.61
7483.21
7479.56
7475.52
7471.46
7467.44
7463.44
7459.48
7455.57
7451.69
7447.86
7444.08
7440.34
7436.6
7432.83
7428.98
7425.44
7422.29
7419.21
7415.92
7412.64
7409.41
7406.23
7402.95
7399.57
7396.55
7393.62
7391.07
7388.24
7385.36
7382.46
7379.56
7376.84
7374.4
7371.93
7369.47
7366.88
7364.26
7361.98
7359.88
7357.46
7355
7352.75
7350.69
7348.92
7347.69
7347.25
7343.9
7336.4
7332.44
7337.25
7334.34
7333.53
7330.99
7328.63
7327.84
7328.03
7327.13
7326.35
7325.4
7324.78
7323.93
7323.39
7323.83
7324.49
7324.95
7323.44
7323.6
7321.56
7322.85
7329.23
7331.06
7333.11
7335.32
7337.9
7341.2
7345.46
7348.98
7353.16
7356.69
7361.24
7366.42
7371.6
7377.45
7382.34
7388.14
7391.66
7398.14
7407.97
7415.4
7423.8
7431.81
7439.85
7448.55
7457.9
7467.08
7476.55
7486.33
7496.54
7506.78
7517.25
7527.86
7538.59
7549.44
7560.65
7571.91
7583.25
7594.62
7606.11
7617.8
7629.57
7641.31
7653.1
7664.94
7676.82
7688.69
7700.59
7712.48
7724.31
7736.13
7747.87
7759.53
7771.06
7782.47
7793.93
7805.26
7816.38
7827.35
7838.1
7848.62
7859.08
7869.47
7879.67
7889.56
7899.24
7908.68
7917.8
7926.71
7935.5
7944.22
7952.56
7960.63
7968.4
7975.82
7983.13
7990.23
7997.22
8003.83
8010.17
8016.23
8021.97
8027.6
8033.03
8038.28
8043.23
8047.97
8052.61
8056.96
8061.11
8065.01
8068.74
8072.38
8075.87
8079.33
8082.55
8085.62
8088.58
8091.41
8094.08
8096.72
8099.33
8101.9
8104.39
8106.78
8109.08
8111.43
8113.78
8116.06
8118.29
8120.53
8122.75
8124.94
8127.04
8129.17
8131.32
8133.5
8135.62
8137.68
8139.71
8141.62
8143.57
8145.57
8147.5
8149.36
8151.19
8152.91
8154.64
8156.36
8158.1
8159.77
8161.36
8162.9
8164.34
8165.75
8167.15
8168.54
8169.87
8171.09
8172.25
8173.29
8174.3
8175.3
8176.2
8177
8177.7
8178.28
8178.82
8179.31
8179.69
8179.95
8180.11
8180.14
8180.04
8179.88
8179.64
8179.26
8178.75
8178.12
8177.36
8176.48
8175.44
8174.33
8173.1
8171.72
8170.21
8168.57
8166.79
8164.86
8162.86
8160.71
8158.43
8156.01
8153.46
8150.82
8148.06
8145.18
8142.18
8139.06
8135.84
8132.51
8129.09
8125.58
8121.97
8118.28
8114.5
8110.65
8106.72
8102.73
8098.67
8094.55
8090.39
8086.18
8081.92
8077.63
8073.3
8068.95
8064.58
8060.19
8055.79
8051.38
8046.97
8042.57
8038.16
8033.77
8029.4
8025.04
8020.71
8016.41
8012.14
8007.9
8003.7
7999.54
7995.43
7991.36
7987.34
7983.37
7979.46
7975.6
7971.8
7968.06
7964.38
7960.76
7957.21
7953.72
7950.29
7946.93
7943.64
7940.41
7937.24
7934.14
7931.11
7928.14
7925.23
7922.39
7919.62
7916.9
7914.25
7911.66
7909.13
7906.66
7904.25
7901.89
7899.59
7897.35
7895.16
7893.02
7890.94
7888.9
7886.92
7884.98
7883.1
7881.26
7879.47
7877.73
7876.04
7874.39
7872.79
7871.23
7869.72
7868.25
7866.83
7865.46
7864.14
7862.87
7861.65
7860.48
7859.37
7858.32
7857.32
7856.38
7855.49
7854.67
7853.91
7853.2
7852.55
7851.97
7851.44
7850.97