/*--------------------------------*- C++ -*----------------------------------*\
| =========                 |                                                 |
| \\      /  F ield         | OpenFOAM: The Open Source CFD Toolbox           |
|  \\    /   O peration     | Version:  v2006                                 |
|   \\  /    A nd           | Website:  www.openfoam.com                      |
|    \\/     M anipulation  |                                                 |
\*---------------------------------------------------------------------------*/
FoamFile
{
    version     2.0;
    format      ascii;
    class       volVectorField;
    location    "6.3";
    object      U;
}
// * * * * * * * * * * * * * * * * * * * * * * * * * * * * * * * * * * * * * //

dimensions      [0 1 -1 0 0 0 0];


internalField   nonuniform List<vector> 
33000
(
(0.0101963 0 0.00325936)
(0.067142 0 -0.0105743)
(0.0503876 0 -0.0124831)
(0.07879 0 -0.0148719)
(0.0817006 0 -0.0118726)
(0.0926031 0 -0.0118708)
(0.100652 0 -0.00935782)
(0.105538 0 -0.0069654)
(0.110777 0 -0.00608948)
(0.115298 0 -0.00626546)
(0.121376 0 -0.0082511)
(0.127591 0 -0.00915228)
(0.133576 0 -0.0107857)
(0.138134 0 -0.00724929)
(0.136621 0 -0.00387894)
(0.130081 0 -0.00058954)
(0.116547 0 0.000143907)
(0.101497 0 0.00530197)
(0.0832507 0 0.0221521)
(0.0561154 0 0.0361485)
(0.0293575 0 0.0213295)
(0.0212317 0 0.00723507)
(0.0121828 0 0.00575079)
(0.00400322 0 0.00627369)
(-0.00203789 0 0.00394213)
(-0.00571854 0 0.00315486)
(-0.0112877 0 0.00478845)
(-0.0175025 0 0.00555236)
(-0.0237549 0 0.00551358)
(-0.0303516 0 0.00500379)
(-0.0360917 0 0.0040538)
(-0.0410429 0 0.00426074)
(-0.0463714 0 0.00465225)
(-0.0515915 0 0.00375269)
(-0.0549795 0 0.00203143)
(-0.0566631 0 0.0012751)
(-0.0592194 0 0.00241353)
(-0.0635227 0 0.00434631)
(-0.0692207 0 0.00576306)
(-0.0755675 0 0.00535813)
(-0.0804695 0 0.00276342)
(-0.0828135 0 0.00136266)
(-0.0848217 0 0.00168545)
(-0.0872114 0 0.00229969)
(-0.0907932 0 0.00354736)
(-0.0953969 0 0.0044939)
(-0.100513 0 0.00408333)
(-0.104798 0 0.00254403)
(-0.10746 0 0.00166432)
(-0.109765 0 0.0015777)
(-0.111437 0 0.00161312)
(-0.113578 0 0.00161616)
(-0.115257 0 0.00122788)
(-0.116641 0 0.00090859)
(-0.118265 0 0.00143368)
(-0.120927 0 0.00256555)
(-0.124536 0 0.00369825)
(-0.128655 0 0.00390143)
(-0.132266 0 0.00303927)
(-0.135144 0 0.00195203)
(-0.137172 0 0.00142634)
(-0.139519 0 0.001994)
(-0.142489 0 0.00229499)
(-0.145207 0 0.00158383)
(-0.146656 0 -3.99861e-05)
(-0.146037 0 -0.00194772)
(-0.143697 0 -0.00287102)
(-0.140901 0 -0.0031567)
(-0.13827 0 -0.00351326)
(-0.134923 0 -0.00485389)
(-0.13091 0 -0.00638815)
(-0.125588 0 -0.00841577)
(-0.118286 0 -0.0112307)
(-0.108904 0 -0.0140172)
(-0.0978759 0 -0.014992)
(-0.0842255 0 -0.0137015)
(-0.0680126 0 -0.00979924)
(-0.0573644 0 -0.0053198)
(-0.0514801 0 0.0036891)
(-0.0410048 0 0.00300265)
(-0.0443825 0 0.00744025)
(-0.0483057 0 0.00672388)
(-0.0560956 0 0.00493949)
(-0.0581676 0 0.000868768)
(-0.064646 0 0.00147213)
(-0.0664609 0 5.60506e-05)
(-0.0673584 0 0.00102837)
(-0.0678637 0 0.000753754)
(-0.0685501 0 0.00146797)
(-0.0688004 0 0.000249994)
(-0.068746 0 -0.000114498)
(-0.068642 0 -0.000602855)
(-0.067404 0 -0.00178662)
(-0.064861 0 -0.00287634)
(-0.062154 0 -0.00564611)
(-0.056107 0 -0.00799069)
(-0.0501018 0 -0.0108426)
(-0.0405651 0 -0.00971088)
(-0.034062 0 -0.00750408)
(-0.0250311 0 0.000927637)
(-0.0258975 0 0.00553928)
(-0.0244283 0 0.00661283)
(-0.0272591 0 0.00249309)
(-0.0276294 0 -0.00147087)
(-0.0297949 0 -0.00120869)
(-0.0314307 0 -0.000741205)
(-0.0317194 0 0.00104606)
(-0.0318839 0 0.00137587)
(-0.032346 0 0.00198763)
(-0.0330376 0 0.00106764)
(-0.0335919 0 0.000279992)
(-0.0340716 0 -3.53012e-05)
(-0.0345531 0 -0.000249336)
(-0.0340167 0 -0.000655373)
(-0.0335323 0 -0.00188368)
(-0.0311384 0 -0.00252573)
(-0.0297642 0 -0.00411393)
(-0.0253992 0 -0.00131063)
(-0.0262005 0 0.00160372)
(-0.0255592 0 0.00300359)
(-0.0269883 0 0.00220291)
(-0.0272461 0 0.000183542)
(-0.0283014 0 1.02684e-05)
(-0.0295251 0 4.16145e-05)
(-0.0301183 0 0.000643888)
(-0.0306638 0 0.000851011)
(-0.0313289 0 0.000796856)
(-0.0318209 0 0.000423917)
(-0.0324745 0 0.000438273)
(-0.0331446 0 0.00036158)
(-0.0336761 0 0.000489481)
(-0.0342183 0 0.00045064)
(-0.0347148 0 0.000467307)
(-0.0351842 0 0.000356843)
(-0.0356937 0 0.000364459)
(-0.0361628 0 0.000286054)
(-0.0366709 0 0.000325929)
(-0.0371277 0 0.000307536)
(-0.0375846 0 0.000323673)
(-0.0380178 0 0.000312611)
(-0.0384384 0 0.000312618)
(-0.0388652 0 0.000309644)
(-0.0392628 0 0.000290643)
(-0.0396441 0 0.000280776)
(-0.0399945 0 0.000252439)
(-0.0403118 0 0.000233565)
(-0.040603 0 0.000215735)
(-0.0408854 0 0.000209368)
(-0.0411538 0 0.00020335)
(-0.0414128 0 0.000194165)
(-0.0416377 0 0.000158203)
(-0.0418187 0 0.000130555)
(-0.0419776 0 0.0001162)
(-0.0421244 0 0.000106569)
(-0.0422571 0 9.73923e-05)
(-0.0423704 0 8.28367e-05)
(-0.0424551 0 6.31923e-05)
(-0.042517 0 4.39376e-05)
(-0.0425584 0 2.36639e-05)
(-0.0425769 0 6.93842e-06)
(-0.0425751 0 -9.71599e-06)
(-0.0425497 0 -2.5664e-05)
(-0.0425047 0 -3.69206e-05)
(-0.0424503 0 -4.9045e-05)
(-0.0423702 0 -7.53629e-05)
(-0.0422554 0 -9.82808e-05)
(-0.0421184 0 -0.000111777)
(-0.0419712 0 -0.00011819)
(-0.0418144 0 -0.000133938)
(-0.0416249 0 -0.000163447)
(-0.0413986 0 -0.000186194)
(-0.0411528 0 -0.000198248)
(-0.0408971 0 -0.000204835)
(-0.0406302 0 -0.000215878)
(-0.0403399 0 -0.000241321)
(-0.0400145 0 -0.000268697)
(-0.0396611 0 -0.000284304)
(-0.0392939 0 -0.000294567)
(-0.0389125 0 -0.000306529)
(-0.0385086 0 -0.000324668)
(-0.0380811 0 -0.000339013)
(-0.037644 0 -0.000348445)
(-0.0371918 0 -0.000363651)
(-0.0367188 0 -0.000383703)
(-0.0362161 0 -0.000410101)
(-0.0356795 0 -0.00042912)
(-0.0351256 0 -0.000436812)
(-0.0345628 0 -0.000442468)
(-0.0339891 0 -0.00045245)
(-0.0334029 0 -0.000472269)
(-0.0327888 0 -0.0004966)
(-0.0321488 0 -0.000515447)
(-0.0314843 0 -0.000531748)
(-0.0307982 0 -0.000537386)
(-0.0301053 0 -0.000543171)
(-0.0293984 0 -0.000559955)
(-0.0286687 0 -0.000582405)
(-0.0279175 0 -0.00060762)
(-0.0271281 0 -0.000636449)
(-0.0263032 0 -0.000659107)
(-0.0254554 0 -0.000670457)
(-0.0246038 0 -0.000668201)
(-0.0237501 0 -0.000675467)
(-0.0228687 0 -0.000699015)
(-0.0219531 0 -0.00073564)
(-0.0209912 0 -0.00077222)
(-0.0200001 0 -0.000788289)
(-0.0190016 0 -0.000790772)
(-0.0179958 0 -0.000792449)
(-0.0169778 0 -0.000812537)
(-0.0159188 0 -0.000847245)
(-0.0148295 0 -0.000863795)
(-0.0137396 0 -0.000849385)
(-0.0126818 0 -0.000824623)
(-0.0116261 0 -0.0008454)
(-0.0105244 0 -0.00087539)
(-0.00941293 0 -0.00088235)
(-0.00830282 0 -0.000871563)
(-0.0072159 0 -0.000829816)
(-0.00618877 0 -0.000788718)
(-0.00519249 0 -0.000776753)
(-0.00420811 0 -0.000778556)
(-0.00322277 0 -0.000773559)
(-0.00225725 0 -0.000751854)
(-0.00132538 0 -0.000714819)
(-0.000446578 0 -0.000659214)
(0.000365359 0 -0.000621111)
(0.00115157 0 -0.000603404)
(0.00190669 0 -0.000587497)
(0.00264678 0 -0.000575379)
(0.0033673 0 -0.000558131)
(0.00406133 0 -0.000528028)
(0.00471085 0 -0.000490766)
(0.00531979 0 -0.000471393)
(0.00591718 0 -0.000462396)
(0.00649763 0 -0.000448652)
(0.00706117 0 -0.000436754)
(0.00761107 0 -0.000423946)
(0.00814208 0 -0.000406819)
(0.00865061 0 -0.000393395)
(0.00914359 0 -0.000383669)
(0.00962043 0 -0.000368825)
(0.0100769 0 -0.000352506)
(0.0105187 0 -0.000339717)
(0.0109488 0 -0.000335448)
(0.0113771 0 -0.00033487)
(0.0117981 0 -0.000330382)
(0.0122134 0 -0.000320379)
(0.0126091 0 -0.000299428)
(0.0129811 0 -0.00029188)
(0.0133567 0 -0.000296945)
(0.0137346 0 -0.000295609)
(0.0141061 0 -0.000290188)
(0.014471 0 -0.00028433)
(0.0148261 0 -0.000274356)
(0.0151692 0 -0.000267644)
(0.0155109 0 -0.000266175)
(0.0158501 0 -0.000265231)
(0.0161866 0 -0.000263797)
(0.0165203 0 -0.000261905)
(0.0168488 0 -0.000257113)
(0.0171707 0 -0.000250738)
(0.0174888 0 -0.00024802)
(0.0178056 0 -0.000248577)
(0.0181227 0 -0.000249405)
(0.0184386 0 -0.000246383)
(0.0187466 0 -0.000238506)
(0.019044 0 -0.000229915)
(0.0193351 0 -0.000228644)
(0.0196286 0 -0.000231307)
(0.0199232 0 -0.000230425)
(0.0202134 0 -0.000227173)
(0.0204991 0 -0.000222778)
(0.0207787 0 -0.000215336)
(0.0210481 0 -0.000207592)
(0.0213105 0 -0.000204855)
(0.0215698 0 -0.000202355)
(0.0218244 0 -0.000198406)
(0.0220737 0 -0.000193534)
(0.0223168 0 -0.000188613)
(0.0225534 0 -0.000183965)
(0.0227844 0 -0.000177311)
(0.0230041 0 -0.000166977)
(0.0232105 0 -0.000159245)
(0.0234111 0 -0.000155227)
(0.023606 0 -0.000150076)
(0.0237926 0 -0.000142938)
(0.0239689 0 -0.000135011)
(0.0241358 0 -0.000126793)
(0.0242917 0 -0.000116834)
(0.0244344 0 -0.000107188)
(0.0245663 0 -9.94961e-05)
(0.0246888 0 -9.21719e-05)
(0.0248008 0 -8.40788e-05)
(0.0249019 0 -7.51079e-05)
(0.0249914 0 -6.43932e-05)
(0.0250666 0 -5.27926e-05)
(0.0251285 0 -4.36626e-05)
(0.0251789 0 -3.5153e-05)
(0.0252168 0 -2.62755e-05)
(0.0252441 0 -1.6413e-05)
(0.0252587 0 -4.71749e-06)
(0.0252579 0 6.58459e-06)
(0.0252442 0 1.52456e-05)
(0.0252185 0 2.43021e-05)
(0.0251811 0 3.49003e-05)
(0.0251304 0 4.5622e-05)
(0.0250665 0 5.54818e-05)
(0.0249895 0 6.4447e-05)
(0.0249013 0 7.28513e-05)
(0.0248025 0 8.26208e-05)
(0.024691 0 9.40137e-05)
(0.0245649 0 0.000104271)
(0.0244263 0 0.000112219)
(0.0242781 0 0.000119663)
(0.0241205 0 0.000128702)
(0.023951 0 0.000138573)
(0.0237695 0 0.000146691)
(0.0235779 0 0.000154438)
(0.0233758 0 0.000162108)
(0.0231646 0 0.000170123)
(0.0229428 0 0.000179608)
(0.0227094 0 0.000188154)
(0.0224666 0 0.000194594)
(0.0222152 0 0.000201062)
(0.0219545 0 0.000209509)
(0.0216822 0 0.000219716)
(0.0213978 0 0.000228183)
(0.0211047 0 0.000234824)
(0.0208027 0 0.000241206)
(0.0204917 0 0.000249343)
(0.0201686 0 0.000260627)
(0.0198313 0 0.000271046)
(0.0194831 0 0.000278284)
(0.0191265 0 0.000284149)
(0.0187624 0 0.000290484)
(0.0183891 0 0.000297878)
(0.0180064 0 0.000306134)
(0.0176134 0 0.000314658)
(0.0172103 0 0.000321362)
(0.0167998 0 0.000325976)
(0.0163826 0 0.000331026)
(0.0159588 0 0.000336157)
(0.0155285 0 0.000342692)
(0.0150886 0 0.000350131)
(0.0146417 0 0.000354131)
(0.0141911 0 0.000355997)
(0.0137372 0 0.000358242)
(0.0132798 0 0.000362003)
(0.0128166 0 0.000366988)
(0.0123478 0 0.000370704)
(0.0118756 0 0.000370823)
(0.0114042 0 0.000370474)
(0.0109313 0 0.000373251)
(0.0104541 0 0.00037565)
(0.00997606 0 0.000374923)
(0.00949891 0 0.000374244)
(0.00902177 0 0.000373902)
(0.00854552 0 0.000373708)
(0.00807005 0 0.000372288)
(0.00759699 0 0.00037083)
(0.00712558 0 0.000368447)
(0.00665758 0 0.000366433)
(0.00619195 0 0.000364142)
(0.00572938 0 0.000362305)
(0.00526987 0 0.00035898)
(0.00481544 0 0.00035467)
(0.00436712 0 0.000349162)
(0.00392474 0 0.00034412)
(0.00348857 0 0.000339347)
(0.00305754 0 0.000335069)
(0.00263381 0 0.000328579)
(0.00221822 0 0.000321306)
(0.00181243 0 0.000313821)
(0.00141495 0 0.000307275)
(0.00102607 0 0.000300127)
(0.000646545 0 0.000292098)
(0.00027694 0 0.000284639)
(-8.30305e-05 0 0.000277196)
(-0.000433761 0 0.000270508)
(-0.000774376 0 0.000260614)
(-0.00110305 0 0.000252023)
(-0.00142033 0 0.000242067)
(-0.0017265 0 0.000235508)
(-0.00202308 0 0.000226245)
(-0.0023086 0 0.000220189)
(-0.00258467 0 0.000210869)
(-0.00285012 0 0.000204463)
(-0.00310384 0 0.000193547)
(-0.0033464 0 0.000187687)
(-0.00357872 0 0.000178897)
(-0.00380188 0 0.000173421)
(-0.00401303 0 0.000162417)
(-0.00421322 0 0.000155571)
(-0.0044019 0 0.000146282)
(-0.00458116 0 0.000139684)
(-0.00474791 0 0.000131121)
(-0.0049066 0 0.000125441)
(-0.00505424 0 0.000117908)
(-0.00519294 0 0.000109575)
(-0.00531971 0 0.000102458)
(-0.00543604 0 9.25937e-05)
(-0.00554065 0 8.78662e-05)
(-0.00563672 0 7.7388e-05)
(-0.00572279 0 7.57129e-05)
(-0.00579898 0 6.29676e-05)
(-0.0058677 0 6.33497e-05)
(-0.00592086 0 4.50822e-05)
(-0.00596974 0 4.65277e-05)
(-0.00600073 0 2.36557e-05)
(-0.00603278 0 2.73218e-05)
(-0.00604693 0 5.19599e-06)
(-0.0060624 0 1.11912e-05)
(-0.00606291 0 -5.45994e-06)
(-0.00605427 0 4.61525e-08)
(-0.00604076 0 -1.52669e-05)
(-0.00601809 0 -2.55984e-05)
(-0.00598833 0 -4.36723e-05)
(-0.00596659 0 -4.16261e-05)
(-0.00593063 0 -3.76968e-05)
(-0.00587072 0 -6.13461e-06)
(-0.00582849 0 -7.89164e-06)
(-0.00574795 0 -6.64963e-05)
(-0.00567976 0 -0.00012787)
(-0.00568766 0 -0.000156894)
(-0.00562342 0 -8.68213e-05)
(-0.0055419 0 0.00015065)
(-0.00550646 0 0.000216528)
(-0.00524477 0 3.04856e-05)
(-0.00510805 0 -0.000365209)
(-0.00441057 0 -0.000738735)
(-0.00398571 0 -0.00047051)
(-0.00355737 0 -0.000359018)
(-0.0033214 0 -0.00028881)
(-0.00303805 0 -0.000220008)
(-0.00290521 0 -0.000247256)
(-0.00266247 0 -0.000151724)
(-0.00252226 0 -0.000160782)
(-0.00228027 0 -5.30198e-05)
(-0.00214632 0 -5.73976e-05)
(-0.00192692 0 -0.000119198)
(-0.00175423 0 -0.000204715)
(-0.00175607 0 -0.000234822)
(-0.00166878 0 -0.000135691)
(-0.00144996 0 0.000300766)
(-0.00145451 0 0.000487205)
(-0.000922999 0 0.000125539)
(-0.000743949 0 -0.000567569)
(0.00063225 0 -0.00128959)
(0.00134804 0 -0.000809479)
(0.00225021 0 -0.000710706)
(0.00271782 0 -0.000427712)
(0.00321105 0 -0.000345456)
(0.00355198 0 -0.00027413)
(0.00390304 0 -0.000204865)
(0.0041643 0 -0.000268564)
(0.00441932 0 -0.000163417)
(0.00457172 0 -0.000269997)
(0.00482927 0 -6.67797e-05)
(0.00493779 0 -0.000139834)
(0.00516703 0 1.02568e-05)
(0.00539025 0 -0.000246919)
(0.00540143 0 -0.00011954)
(0.00532343 0 -0.000485686)
(0.00558811 0 0.000183495)
(0.00511579 0 0.00046796)
(0.00578859 0 0.000672897)
(0.00588604 0 0.000245818)
(0.00776781 0 -0.000642461)
(0.00840854 0 -0.00205785)
(0.0105347 0 -0.00210859)
(0.0126092 0 -0.00176835)
(0.0138924 0 -0.00130248)
(0.0149048 0 -0.000954214)
(0.0157494 0 -0.00073138)
(0.0164445 0 -0.000597646)
(0.0170376 0 -0.000495183)
(0.0175579 0 -0.000420546)
(0.0180178 0 -0.000364223)
(0.018436 0 -0.000334351)
(0.0188307 0 -0.000309114)
(0.019199 0 -0.000281155)
(0.0195403 0 -0.000266553)
(0.0198671 0 -0.000252736)
(0.0201777 0 -0.000235626)
(0.0204725 0 -0.000231966)
(0.0207608 0 -0.000222786)
(0.0210387 0 -0.000210808)
(0.0213013 0 -0.000199899)
(0.0215556 0 -0.000203133)
(0.0218114 0 -0.000199246)
(0.0220598 0 -0.0001875)
(0.0222934 0 -0.000178003)
(0.0225173 0 -0.000173594)
(0.0227378 0 -0.000172656)
(0.0229562 0 -0.000170608)
(0.02317 0 -0.000166025)
(0.023379 0 -0.000162696)
(0.0235827 0 -0.000158007)
(0.0237826 0 -0.000156655)
(0.0239765 0 -0.000145385)
(0.0241604 0 -0.000142115)
(0.0243429 0 -0.000147541)
(0.0245318 0 -0.000151232)
(0.0247233 0 -0.000151462)
(0.0249127 0 -0.000149108)
(0.025098 0 -0.000144082)
(0.0252783 0 -0.000139668)
(0.0254539 0 -0.000136356)
(0.0256263 0 -0.000134483)
(0.0257962 0 -0.000132609)
(0.0259646 0 -0.00013132)
(0.0261283 0 -0.000125555)
(0.0262885 0 -0.000130534)
(0.0264521 0 -0.000129283)
(0.026612 0 -0.000119814)
(0.0267608 0 -0.000112399)
(0.0269028 0 -0.000109497)
(0.027043 0 -0.000108181)
(0.0271825 0 -0.000108543)
(0.0273219 0 -0.000109256)
(0.0274613 0 -0.000109275)
(0.0276 0 -0.000108596)
(0.0277375 0 -0.000107135)
(0.027873 0 -0.000105131)
(0.0280059 0 -0.000102979)
(0.0281362 0 -0.000101055)
(0.0282648 0 -0.000100476)
(0.0283929 0 -0.000100414)
(0.0285208 0 -9.98806e-05)
(0.0286476 0 -9.90298e-05)
(0.0287717 0 -9.63097e-05)
(0.0288922 0 -9.31392e-05)
(0.0290106 0 -9.20271e-05)
(0.0291293 0 -9.32959e-05)
(0.0292492 0 -9.39621e-05)
(0.0293678 0 -9.16888e-05)
(0.0294827 0 -8.83549e-05)
(0.0295949 0 -8.66009e-05)
(0.0297083 0 -9.05213e-05)
(0.0298249 0 -8.45605e-05)
(0.0299305 0 -8.65572e-05)
(0.0300508 0 -9.11685e-05)
(0.030156 0 -0.000104561)
(0.0303178 0 -0.00010415)
(0.0303544 0 -9.87279e-05)
(0.0307616 0 -9.51102e-05)
(0.0301357 0 -9.46712e-05)
(0.0318441 0 -9.70943e-05)
(0.0292535 0 -0.00011566)
(0.029164 0 -0.0099403)
(0.0908714 0 -0.0303822)
(0.0798689 0 -0.0241736)
(0.0931321 0 -0.0224929)
(0.0895941 0 -0.0181859)
(0.092438 0 -0.0145779)
(0.0907215 0 -0.0120582)
(0.0899997 0 -0.00946747)
(0.0887969 0 -0.00972362)
(0.0871028 0 -0.0116613)
(0.0852691 0 -0.0128414)
(0.083503 0 -0.011696)
(0.0820001 0 -0.0068711)
(0.0782065 0 0.00357579)
(0.0728349 0 0.0173802)
(0.0642974 0 0.0312604)
(0.0517138 0 0.0407627)
(0.0377189 0 0.0439535)
(0.0301543 0 0.0477169)
(0.0250322 0 0.0463851)
(0.0217776 0 0.0312721)
(0.0163899 0 0.0212049)
(0.00752028 0 0.0197618)
(0.00123152 0 0.0159183)
(-0.00380924 0 0.0110805)
(-0.00948103 0 0.0113408)
(-0.0143854 0 0.0134668)
(-0.0196184 0 0.0141074)
(-0.025376 0 0.0148463)
(-0.0312599 0 0.014227)
(-0.0374415 0 0.0125969)
(-0.0425804 0 0.0118071)
(-0.0471264 0 0.011741)
(-0.0507341 0 0.00958469)
(-0.0542772 0 0.00622969)
(-0.0574977 0 0.00560276)
(-0.0610579 0 0.00804804)
(-0.0650533 0 0.0112399)
(-0.0694164 0 0.0134211)
(-0.0732884 0 0.0123053)
(-0.077523 0 0.00832489)
(-0.0815343 0 0.00546626)
(-0.0841669 0 0.00529933)
(-0.0869849 0 0.00684913)
(-0.0907994 0 0.00936468)
(-0.0948479 0 0.011097)
(-0.0989773 0 0.010718)
(-0.103274 0 0.00836718)
(-0.10727 0 0.00583784)
(-0.11023 0 0.00478103)
(-0.112566 0 0.00436995)
(-0.114566 0 0.00442335)
(-0.116886 0 0.0038251)
(-0.119111 0 0.00374392)
(-0.1217 0 0.00518977)
(-0.124813 0 0.00745682)
(-0.12749 0 0.00868782)
(-0.129514 0 0.00818149)
(-0.131578 0 0.00669497)
(-0.133491 0 0.00551647)
(-0.135823 0 0.00556727)
(-0.139002 0 0.0064141)
(-0.142187 0 0.00669662)
(-0.144732 0 0.0051013)
(-0.146875 0 0.0010457)
(-0.147771 0 -0.00289861)
(-0.147416 0 -0.00501055)
(-0.147014 0 -0.00575478)
(-0.1465 0 -0.00595144)
(-0.146034 0 -0.00692103)
(-0.146477 0 -0.00841166)
(-0.14654 0 -0.0113347)
(-0.145457 0 -0.0163696)
(-0.142644 0 -0.0215907)
(-0.138279 0 -0.0258342)
(-0.132348 0 -0.0286806)
(-0.125521 0 -0.0303086)
(-0.116395 0 -0.0317383)
(-0.100021 0 -0.028952)
(-0.0856355 0 -0.0126596)
(-0.0758822 0 0.00425281)
(-0.0660611 0 0.0119831)
(-0.0534872 0 0.0102076)
(-0.0571539 0 0.0123892)
(-0.0582808 0 0.011524)
(-0.0629021 0 0.00441818)
(-0.0640787 0 0.00104322)
(-0.0683172 0 0.00125596)
(-0.0698118 0 -5.35873e-05)
(-0.0708496 0 5.01891e-05)
(-0.0700303 0 -0.000160039)
(-0.0699878 0 -0.0015182)
(-0.0698367 0 -0.00412292)
(-0.06951 0 -0.00543651)
(-0.0699043 0 -0.00806713)
(-0.0695503 0 -0.011044)
(-0.0694735 0 -0.013532)
(-0.0687552 0 -0.0156109)
(-0.0651322 0 -0.0168947)
(-0.0608687 0 -0.0134819)
(-0.050859 0 -0.00691146)
(-0.0432972 0 -0.00447335)
(-0.0330299 0 0.00232095)
(-0.032327 0 0.0055129)
(-0.0291075 0 0.00727668)
(-0.0294258 0 0.00392585)
(-0.0297149 0 -0.000409359)
(-0.0308536 0 -0.000390427)
(-0.0324583 0 -0.00022595)
(-0.0342693 0 0.000838581)
(-0.0344138 0 0.00134411)
(-0.0343964 0 0.00152136)
(-0.0347812 0 0.000249797)
(-0.0349257 0 -0.00108142)
(-0.0355382 0 -0.00246125)
(-0.0362069 0 -0.00366289)
(-0.0363844 0 -0.00474607)
(-0.0370824 0 -0.00400035)
(-0.0347858 0 -0.00168033)
(-0.0333182 0 -0.00172766)
(-0.0288696 0 0.000276407)
(-0.0293415 0 0.00184431)
(-0.0284237 0 0.00363939)
(-0.0291378 0 0.00290036)
(-0.0293419 0 0.00110394)
(-0.0303894 0 0.00106264)
(-0.0315679 0 0.000978799)
(-0.03215 0 0.00136843)
(-0.0325802 0 0.00164966)
(-0.0331281 0 0.00154333)
(-0.0335656 0 0.00118468)
(-0.0341791 0 0.00119465)
(-0.0347809 0 0.00102784)
(-0.0352529 0 0.00119243)
(-0.0357287 0 0.00116659)
(-0.0361914 0 0.00125815)
(-0.0366543 0 0.00119832)
(-0.0371232 0 0.00112761)
(-0.037583 0 0.00108374)
(-0.0380497 0 0.00102425)
(-0.038467 0 0.00102592)
(-0.038888 0 0.000983944)
(-0.0392785 0 0.000936806)
(-0.0396545 0 0.000868949)
(-0.040006 0 0.000798912)
(-0.0403283 0 0.000721196)
(-0.0406315 0 0.00068767)
(-0.0409257 0 0.00065615)
(-0.041199 0 0.000625681)
(-0.0414403 0 0.000567663)
(-0.0416512 0 0.000479288)
(-0.0418348 0 0.000402213)
(-0.0420052 0 0.000366087)
(-0.042162 0 0.000331354)
(-0.0423 0 0.000291157)
(-0.0424053 0 0.000226464)
(-0.042479 0 0.000167048)
(-0.0425336 0 0.000117969)
(-0.0425771 0 7.04222e-05)
(-0.0426037 0 1.90746e-05)
(-0.0426073 0 -3.28276e-05)
(-0.042585 0 -8.61955e-05)
(-0.042543 0 -0.000119531)
(-0.0424833 0 -0.000161414)
(-0.0423966 0 -0.000232019)
(-0.0422837 0 -0.000297818)
(-0.0421505 0 -0.000335343)
(-0.0420053 0 -0.000359663)
(-0.0418404 0 -0.000408929)
(-0.0416488 0 -0.000491291)
(-0.0414277 0 -0.000555813)
(-0.0411837 0 -0.000590164)
(-0.0409284 0 -0.000616391)
(-0.0406525 0 -0.000659299)
(-0.0403538 0 -0.00072596)
(-0.0400324 0 -0.000798815)
(-0.0396857 0 -0.000847363)
(-0.0393173 0 -0.000882442)
(-0.0389294 0 -0.000926631)
(-0.038517 0 -0.00098265)
(-0.0380887 0 -0.00101989)
(-0.0376505 0 -0.00104803)
(-0.0371921 0 -0.00109105)
(-0.0367146 0 -0.00114783)
(-0.0362099 0 -0.00122436)
(-0.0356763 0 -0.00128459)
(-0.0351222 0 -0.00131823)
(-0.0345509 0 -0.0013435)
(-0.0339641 0 -0.00137003)
(-0.0333705 0 -0.0014132)
(-0.03276 0 -0.00147488)
(-0.0321282 0 -0.00153327)
(-0.0314692 0 -0.00159222)
(-0.0307798 0 -0.00162877)
(-0.0300686 0 -0.00165734)
(-0.0293418 0 -0.00169698)
(-0.0286041 0 -0.0017449)
(-0.0278517 0 -0.00181239)
(-0.0270684 0 -0.0019009)
(-0.0262495 0 -0.00196927)
(-0.0254079 0 -0.00200087)
(-0.0245565 0 -0.00201057)
(-0.0236875 0 -0.00205168)
(-0.0227878 0 -0.00212447)
(-0.021856 0 -0.00221517)
(-0.0209022 0 -0.00229715)
(-0.0199335 0 -0.00233859)
(-0.0189484 0 -0.00235884)
(-0.0179441 0 -0.00238814)
(-0.0169086 0 -0.00245095)
(-0.0158542 0 -0.00252989)
(-0.0147849 0 -0.00256086)
(-0.013726 0 -0.00252667)
(-0.0126683 0 -0.00249548)
(-0.0115926 0 -0.00254572)
(-0.0105078 0 -0.00260307)
(-0.00941769 0 -0.00260919)
(-0.00834198 0 -0.00258117)
(-0.00727427 0 -0.00249353)
(-0.00623902 0 -0.00239029)
(-0.00522976 0 -0.00233721)
(-0.00424777 0 -0.00231603)
(-0.00327927 0 -0.0022938)
(-0.00233193 0 -0.00222932)
(-0.00141912 0 -0.00213182)
(-0.000538004 0 -0.00199728)
(0.000300775 0 -0.00189076)
(0.00110068 0 -0.00181939)
(0.00186361 0 -0.00176208)
(0.00260355 0 -0.0017207)
(0.00331758 0 -0.00166447)
(0.00400638 0 -0.00158432)
(0.00466446 0 -0.00148641)
(0.00528912 0 -0.00142468)
(0.00588913 0 -0.00138858)
(0.00647419 0 -0.00134938)
(0.00704429 0 -0.00131287)
(0.00759631 0 -0.00127512)
(0.00812844 0 -0.00122668)
(0.00863822 0 -0.00118063)
(0.00912567 0 -0.00114014)
(0.00959545 0 -0.00109797)
(0.0100537 0 -0.0010588)
(0.0105036 0 -0.00103086)
(0.0109449 0 -0.001013)
(0.011374 0 -0.00100044)
(0.0117904 0 -0.000982944)
(0.0121958 0 -0.000955047)
(0.0125906 0 -0.000906225)
(0.0129741 0 -0.000883195)
(0.0133524 0 -0.000886956)
(0.0137282 0 -0.000882648)
(0.0140978 0 -0.000866466)
(0.0144569 0 -0.000847521)
(0.0148086 0 -0.000822615)
(0.0151564 0 -0.00080858)
(0.0155035 0 -0.000803765)
(0.0158466 0 -0.000796735)
(0.0161846 0 -0.000788985)
(0.0165155 0 -0.00077855)
(0.0168378 0 -0.000764634)
(0.0171585 0 -0.000754634)
(0.0174813 0 -0.000749789)
(0.0178021 0 -0.000747307)
(0.0181187 0 -0.000745117)
(0.0184321 0 -0.000733847)
(0.0187379 0 -0.000712583)
(0.0190378 0 -0.000694631)
(0.0193346 0 -0.000689646)
(0.0196296 0 -0.00069296)
(0.0199236 0 -0.000688552)
(0.0202129 0 -0.000678064)
(0.0204963 0 -0.000665677)
(0.0207739 0 -0.000647973)
(0.0210474 0 -0.000628096)
(0.021315 0 -0.000615761)
(0.0215761 0 -0.000605451)
(0.0218304 0 -0.000593975)
(0.022079 0 -0.000580806)
(0.0223222 0 -0.000565874)
(0.0225594 0 -0.00055122)
(0.0227899 0 -0.000531703)
(0.0230101 0 -0.000503001)
(0.0232197 0 -0.0004805)
(0.0234227 0 -0.000466756)
(0.0236184 0 -0.00044959)
(0.023805 0 -0.000427602)
(0.0239807 0 -0.000404282)
(0.0241462 0 -0.000380474)
(0.0243025 0 -0.000352375)
(0.0244478 0 -0.000324281)
(0.0245822 0 -0.000300067)
(0.0247059 0 -0.000276047)
(0.0248172 0 -0.000250543)
(0.0249167 0 -0.000224118)
(0.0250049 0 -0.000194079)
(0.025082 0 -0.000162115)
(0.0251473 0 -0.000132703)
(0.0251982 0 -0.000103211)
(0.0252346 0 -7.57538e-05)
(0.0252595 0 -4.91845e-05)
(0.0252734 0 -1.67592e-05)
(0.0252754 0 1.66709e-05)
(0.0252634 0 4.67771e-05)
(0.0252355 0 7.5249e-05)
(0.0251963 0 0.000103668)
(0.0251467 0 0.000134728)
(0.0250843 0 0.000166106)
(0.025007 0 0.000195352)
(0.0249173 0 0.000221162)
(0.0248163 0 0.000247996)
(0.0247043 0 0.000279448)
(0.02458 0 0.000311746)
(0.0244414 0 0.000338508)
(0.0242914 0 0.000360913)
(0.0241319 0 0.000385256)
(0.0239619 0 0.000412861)
(0.0237812 0 0.000439362)
(0.0235888 0 0.000463958)
(0.0233847 0 0.000487089)
(0.0231707 0 0.000509959)
(0.0229473 0 0.000535282)
(0.0227143 0 0.000560049)
(0.0224714 0 0.000581758)
(0.0222181 0 0.000603373)
(0.0219535 0 0.000627838)
(0.0216788 0 0.00065504)
(0.0213944 0 0.000679176)
(0.0211005 0 0.000700189)
(0.0207967 0 0.000721932)
(0.0204816 0 0.000746964)
(0.0201558 0 0.000777085)
(0.0198191 0 0.000806133)
(0.0194718 0 0.000829203)
(0.0191152 0 0.000848444)
(0.0187491 0 0.000868428)
(0.0183732 0 0.00089035)
(0.0179885 0 0.000912885)
(0.0175957 0 0.000936623)
(0.0171942 0 0.000957617)
(0.0167837 0 0.000974872)
(0.0163646 0 0.000990827)
(0.0159394 0 0.00100644)
(0.0155066 0 0.0010251)
(0.0150664 0 0.00104377)
(0.0146221 0 0.00105653)
(0.0141725 0 0.0010657)
(0.0137177 0 0.00107405)
(0.0132582 0 0.00108468)
(0.0127946 0 0.00109751)
(0.0123278 0 0.00110772)
(0.0118581 0 0.00111152)
(0.0113859 0 0.00111315)
(0.0109118 0 0.00111947)
(0.0104366 0 0.00112515)
(0.00996025 0 0.00112595)
(0.0094824 0 0.00112535)
(0.00900417 0 0.00112444)
(0.00852781 0 0.00112211)
(0.00805287 0 0.00111869)
(0.00757981 0 0.00111379)
(0.00710826 0 0.00110839)
(0.00663949 0 0.00110127)
(0.00617414 0 0.00109517)
(0.00571238 0 0.00108726)
(0.005255 0 0.00107785)
(0.00480199 0 0.00106436)
(0.00435381 0 0.00105094)
(0.0039114 0 0.00103666)
(0.00347464 0 0.00102354)
(0.00304483 0 0.0010081)
(0.00262177 0 0.00099026)
(0.00220683 0 0.000969272)
(0.00180052 0 0.000948251)
(0.0014032 0 0.000928275)
(0.00101436 0 0.00090719)
(0.00063471 0 0.00088497)
(0.000263751 0 0.00086162)
(-9.58878e-05 0 0.000839513)
(-0.00044566 0 0.000815807)
(-0.000784626 0 0.000791158)
(-0.00111439 0 0.00076304)
(-0.00143273 0 0.000737744)
(-0.00174069 0 0.000711757)
(-0.00203821 0 0.000688677)
(-0.00232512 0 0.000662497)
(-0.00260156 0 0.000640376)
(-0.00286664 0 0.000611631)
(-0.00312098 0 0.000586609)
(-0.00336499 0 0.000558822)
(-0.00359835 0 0.000537117)
(-0.00381974 0 0.000509297)
(-0.00403062 0 0.000484172)
(-0.0042311 0 0.000455669)
(-0.00442198 0 0.000432068)
(-0.00460127 0 0.000404133)
(-0.0047697 0 0.000380407)
(-0.00492703 0 0.000355976)
(-0.00507379 0 0.000332175)
(-0.00521051 0 0.000307608)
(-0.00533903 0 0.000279745)
(-0.00545402 0 0.000254522)
(-0.00556197 0 0.00022775)
(-0.00565627 0 0.000208662)
(-0.00574354 0 0.000179537)
(-0.00581627 0 0.000164421)
(-0.00588603 0 0.000128498)
(-0.00593892 0 0.000114681)
(-0.00599264 0 7.93045e-05)
(-0.00602522 0 7.45628e-05)
(-0.00605538 0 4.57181e-05)
(-0.00606883 0 4.03596e-05)
(-0.00607603 0 1.45424e-05)
(-0.00607705 0 -8.53719e-06)
(-0.00606645 0 -3.41028e-05)
(-0.00606933 0 -4.29698e-05)
(-0.00604839 0 -5.60266e-05)
(-0.0060112 0 -3.85645e-05)
(-0.00596948 0 -4.78916e-05)
(-0.00589958 0 -0.000113995)
(-0.00585514 0 -0.000152353)
(-0.00587598 0 -0.000187261)
(-0.00584792 0 -0.000165844)
(-0.00577418 0 2.93481e-05)
(-0.00566773 0 6.86144e-05)
(-0.00537243 0 -0.000141219)
(-0.00519537 0 -0.000322613)
(-0.00453322 0 -0.000688764)
(-0.00417774 0 -0.000639659)
(-0.00372819 0 -0.000957058)
(-0.00369172 0 -0.00104006)
(-0.00351477 0 -0.00085555)
(-0.0034116 0 -0.000696567)
(-0.00322368 0 -0.000522136)
(-0.00302412 0 -0.000438083)
(-0.00284383 0 -0.000341145)
(-0.00258109 0 -0.000451389)
(-0.00241408 0 -0.000439633)
(-0.00216969 0 -0.000538188)
(-0.00222385 0 -0.000498079)
(-0.00209104 0 -0.000497216)
(-0.00189852 0 -6.36692e-05)
(-0.00165292 0 0.000101057)
(-0.00103201 0 -0.000345426)
(-0.000702454 0 -0.000636236)
(0.000639772 0 -0.00131595)
(0.00132965 0 -0.00124175)
(0.00226164 0 -0.00187471)
(0.0023587 0 -0.00200243)
(0.00269052 0 -0.00172857)
(0.00288435 0 -0.00144664)
(0.00324565 0 -0.00107663)
(0.00344182 0 -0.000970094)
(0.00375076 0 -0.000806653)
(0.00393766 0 -0.000763273)
(0.00423587 0 -0.000536456)
(0.00442576 0 -0.000484335)
(0.00472862 0 -0.000368824)
(0.00504023 0 -0.000516042)
(0.00508839 0 -0.000377258)
(0.00505222 0 -0.000734428)
(0.0052581 0 -0.000102216)
(0.00500116 0 0.000199966)
(0.00583128 0 0.000191795)
(0.00607551 0 0.000132364)
(0.00871098 0 -0.000738868)
(0.00913444 0 -0.0018493)
(0.0112145 0 -0.00321452)
(0.0127976 0 -0.00340922)
(0.0139533 0 -0.00344455)
(0.0143332 0 -0.0038002)
(0.0147999 0 -0.00346797)
(0.0154113 0 -0.00267692)
(0.0159438 0 -0.00208083)
(0.016451 0 -0.00169165)
(0.0169333 0 -0.00145736)
(0.0173893 0 -0.00127616)
(0.0178195 0 -0.00112972)
(0.018224 0 -0.00101637)
(0.0186096 0 -0.000955166)
(0.0189785 0 -0.000896371)
(0.0193276 0 -0.000827789)
(0.0196588 0 -0.000789545)
(0.0199767 0 -0.00075326)
(0.0202825 0 -0.000708477)
(0.0205767 0 -0.00069372)
(0.0208616 0 -0.000668037)
(0.0211378 0 -0.000636772)
(0.0214055 0 -0.000607803)
(0.0216652 0 -0.000608575)
(0.021919 0 -0.000595367)
(0.0221654 0 -0.000565344)
(0.0224037 0 -0.000539921)
(0.0226353 0 -0.000526676)
(0.0228612 0 -0.000518816)
(0.0230812 0 -0.000509537)
(0.0232959 0 -0.000497217)
(0.0235068 0 -0.00048889)
(0.0237129 0 -0.000473621)
(0.0239128 0 -0.000465626)
(0.0241072 0 -0.00044091)
(0.0242992 0 -0.000433091)
(0.0244882 0 -0.000441651)
(0.0246749 0 -0.000447696)
(0.0248591 0 -0.000446415)
(0.0250403 0 -0.000439234)
(0.0252189 0 -0.000429751)
(0.0253955 0 -0.000419363)
(0.0255692 0 -0.000410556)
(0.02574 0 -0.000404455)
(0.0259084 0 -0.00039857)
(0.0260737 0 -0.000391479)
(0.0262354 0 -0.000378773)
(0.0263934 0 -0.000384467)
(0.0265498 0 -0.000380256)
(0.0267019 0 -0.000359471)
(0.0268514 0 -0.00034325)
(0.0269988 0 -0.000335637)
(0.027144 0 -0.000331691)
(0.0272871 0 -0.000330236)
(0.027428 0 -0.000329409)
(0.0275669 0 -0.000327981)
(0.0277043 0 -0.000325622)
(0.0278405 0 -0.000321696)
(0.0279751 0 -0.000316127)
(0.0281076 0 -0.000310044)
(0.0282381 0 -0.000305291)
(0.0283669 0 -0.000303144)
(0.0284944 0 -0.000302483)
(0.0286209 0 -0.000300596)
(0.0287455 0 -0.000294977)
(0.0288671 0 -0.000286784)
(0.0289868 0 -0.000281325)
(0.0291067 0 -0.000280881)
(0.0292268 0 -0.000282625)
(0.0293455 0 -0.000281357)
(0.0294612 0 -0.000273204)
(0.0295757 0 -0.000268731)
(0.0296922 0 -0.000267665)
(0.0298081 0 -0.000273451)
(0.0299247 0 -0.000259897)
(0.0300318 0 -0.000260005)