/*--------------------------------*- C++ -*----------------------------------*\
| =========                 |                                                 |
| \\      /  F ield         | OpenFOAM: The Open Source CFD Toolbox           |
|  \\    /   O peration     | Version:  v2006                                 |
|   \\  /    A nd           | Website:  www.openfoam.com                      |
|    \\/     M anipulation  |                                                 |
\*---------------------------------------------------------------------------*/
FoamFile
{
    version     2.0;
    format      ascii;
    class       surfaceScalarField;
    location    "6";
    object      alphaPhi0.water;
}
// * * * * * * * * * * * * * * * * * * * * * * * * * * * * * * * * * * * * * //

dimensions      [0 3 -1 0 0 0 0];
oriented        oriented;


internalField   nonuniform List<scalar> 
65390
(
-4.81612e-05
6.99952e-06
-4.65239e-05
-1.63728e-06
-4.34061e-05
-3.11786e-06
-3.82628e-05
-5.1432e-06
-3.33964e-05
-4.86641e-06
-2.84907e-05
-4.90563e-06
-2.44433e-05
-4.04747e-06
-2.10413e-05
-3.4019e-06
-1.77622e-05
-3.27911e-06
-1.43015e-05
-3.46074e-06
-1.05568e-05
-3.74465e-06
-6.9778e-06
-3.57898e-06
-4.19515e-06
-2.78262e-06
-3.02471e-06
-1.17042e-06
-3.72738e-06
7.02678e-07
-6.59228e-06
2.86495e-06
-1.13692e-05
4.77698e-06
-1.7565e-05
6.19592e-06
-2.55586e-05
7.99372e-06
-3.53143e-05
9.7564e-06
-4.364e-05
8.33245e-06
-4.78555e-05
4.22243e-06
-5.04511e-05
2.59558e-06
-5.29553e-05
2.49242e-06
-5.50475e-05
2.08695e-06
-5.63031e-05
1.25559e-06
-5.73988e-05
1.09576e-06
-5.86956e-05
1.29682e-06
-6.0176e-05
1.48174e-06
-6.18414e-05
1.67968e-06
-6.35579e-05
1.73956e-06
-6.51033e-05
1.5237e-06
-6.64282e-05
1.32898e-06
-6.77717e-05
1.34761e-06
-6.91775e-05
1.44194e-06
-7.03952e-05
1.15797e-06
-7.08647e-05
4.63394e-07
-7.10136e-05
1.48315e-07
-7.12042e-05
1.92701e-07
-7.17959e-05
6.1165e-07
-7.30194e-05
1.24696e-06
-7.43939e-05
1.37448e-06
-7.55426e-05
1.1091e-06
-7.60598e-05
5.09099e-07
-7.6085e-05
2.50539e-08
-7.60236e-05
-6.1281e-08
-7.61593e-05
1.37107e-07
-7.67448e-05
5.99835e-07
-7.75211e-05
7.94825e-07
-7.8248e-05
7.26866e-07
-7.8754e-05
4.79934e-07
-7.88564e-05
9.62801e-08
-7.87321e-05
-1.26729e-07
-7.85645e-05
-1.63973e-07
-7.83391e-05
-2.26467e-07
-7.78864e-05
-4.55325e-07
-7.7236e-05
-6.50456e-07
-7.66328e-05
-6.03118e-07
-7.63725e-05
-2.57514e-07
-7.6526e-05
1.68402e-07
-7.68193e-05
3.064e-07
-7.69883e-05
1.69059e-07
-7.6726e-05
-2.83342e-07
-7.62111e-05
-5.14874e-07
-7.59044e-05
-3.06718e-07
-7.57976e-05
-1.06329e-07
-7.56452e-05
-1.59398e-07
-7.49698e-05
-6.78315e-07
-7.35461e-05
-1.42372e-06
-7.16009e-05
-1.94524e-06
-6.92537e-05
-2.34715e-06
-6.64905e-05
-2.76263e-06
-6.33552e-05
-3.12973e-06
-5.95633e-05
-3.76597e-06
-5.49204e-05
-4.64289e-06
-4.91063e-05
-5.81406e-06
-4.21789e-05
-6.92737e-06
-3.35742e-05
-8.61039e-06
-2.65626e-05
-7.01536e-06
-2.30798e-05
-3.48792e-06
-2.15138e-05
-1.57118e-06
-2.26863e-05
1.17124e-06
-2.42075e-05
1.52102e-06
-2.58265e-05
1.619e-06
-2.82273e-05
2.4009e-06
-2.97101e-05
1.48371e-06
-3.03365e-05
6.27363e-07
-3.0794e-05
4.57405e-07
-3.11772e-05
3.81587e-07
-3.12799e-05
1.02982e-07
-3.12014e-05
-7.74057e-08
-3.11124e-05
-8.2629e-08
-3.07905e-05
-3.21572e-07
-3.02955e-05
-4.95268e-07
-2.95699e-05
-7.32166e-07
-2.84961e-05
-1.07381e-06
-2.66498e-05
-1.84634e-06
-2.43237e-05
-2.32547e-06
-2.14452e-05
-2.87852e-06
-1.96206e-05
-1.82441e-06
-1.92223e-05
-3.97662e-07
-1.91631e-05
-5.60403e-08
-1.9607e-05
4.43914e-07
-1.99312e-05
3.24128e-07
-2.0558e-05
6.26888e-07
-2.09614e-05
4.00904e-07
-2.10346e-05
7.15026e-08
-2.10723e-05
3.7663e-08
-2.10964e-05
2.40905e-08
-2.11852e-05
8.97108e-08
-2.12102e-05
2.98567e-08
-2.12485e-05
3.83245e-08
-2.11515e-05
-1.0116e-07
-2.08207e-05
-3.32757e-07
-2.00767e-05
-7.43909e-07
-1.90164e-05
-1.05998e-06
-1.74427e-05
-1.57171e-06
-1.63844e-05
-1.05827e-06
-1.62013e-05
-1.83116e-07
-1.62778e-05
7.47019e-08
-1.65403e-05
2.62527e-07
-1.66901e-05
1.49765e-07
-1.70787e-05
3.89642e-07
-1.73764e-05
3.00134e-07
-1.75033e-05
1.27e-07
-1.76696e-05
1.62904e-07
-1.78079e-05
1.38324e-07
-1.79332e-05
1.2528e-07
-1.80893e-05
1.56077e-07
-1.82193e-05
1.30929e-07
-1.83194e-05
1.01988e-07
-1.84207e-05
9.95213e-08
-1.84972e-05
7.68389e-08
-1.85716e-05
7.52437e-08
-1.86461e-05
7.24417e-08
-1.87153e-05
6.92259e-08
-1.87787e-05
6.33844e-08
-1.88316e-05
5.28811e-08
-1.88823e-05
5.07554e-08
-1.89224e-05
3.98405e-08
-1.89536e-05
3.09752e-08
-1.89737e-05
2.1874e-08
-1.89876e-05
1.63093e-08
-1.89974e-05
9.80441e-09
-1.89983e-05
9.85829e-10
-1.89906e-05
-1.07486e-08
-1.89654e-05
-2.51666e-08
-1.89269e-05
-3.85525e-08
-1.88799e-05
-4.69455e-08
-1.88262e-05
-5.25618e-08
-1.87656e-05
-5.76406e-08
-1.87005e-05
-6.8839e-08
-1.86147e-05
-8.64714e-08
-1.85143e-05
-1.00373e-07
-1.84065e-05
-1.07837e-07
-1.82905e-05
-1.14783e-07
-1.81671e-05
-1.22235e-07
-1.80334e-05
-1.33707e-07
-1.78894e-05
-1.4497e-07
-1.77362e-05
-1.54659e-07
-1.75719e-05
-1.6426e-07
-1.7397e-05
-1.74927e-07
-1.72115e-05
-1.8553e-07
-1.70164e-05
-1.94623e-07
-1.68163e-05
-1.99735e-07
-1.6608e-05
-2.08708e-07
-1.63834e-05
-2.24554e-07
-1.61469e-05
-2.36526e-07
-1.59051e-05
-2.41298e-07
-1.56593e-05
-2.45502e-07
-1.5401e-05
-2.5908e-07
-1.51237e-05
-2.77234e-07
-1.48349e-05
-2.8885e-07
-1.45406e-05
-2.93665e-07
-1.42418e-05
-2.98288e-07
-1.39319e-05
-3.10699e-07
-1.36007e-05
-3.31127e-07
-1.32559e-05
-3.44885e-07
-1.2903e-05
-3.5264e-07
-1.25405e-05
-3.62415e-07
-1.21618e-05
-3.7797e-07
-1.17682e-05
-3.92867e-07
-1.13691e-05
-3.98393e-07
-1.09647e-05
-4.0603e-07
-1.05427e-05
-4.22302e-07
-1.00987e-05
-4.43852e-07
-9.63552e-06
-4.62913e-07
-9.16408e-06
-4.70912e-07
-8.68786e-06
-4.76223e-07
-8.20428e-06
-4.83798e-07
-7.71028e-06
-4.94489e-07
-7.20209e-06
-5.08195e-07
-6.68111e-06
-5.20981e-07
-6.15154e-06
-5.29084e-07
-5.62421e-06
-5.2703e-07
-5.09737e-06
-5.26825e-07
-4.5691e-06
-5.2846e-07
-4.03693e-06
-5.32374e-07
-3.49618e-06
-5.4076e-07
-2.95021e-06
-5.45972e-07
-2.40846e-06
-5.41737e-07
-1.88161e-06
-5.26655e-07
-1.36927e-06
-5.12235e-07
-8.65182e-07
-5.04085e-07
-3.65402e-07
-4.99765e-07
1.29684e-07
-4.95075e-07
6.12548e-07
-4.8285e-07
1.07821e-06
-4.65651e-07
1.52718e-06
-4.4903e-07
1.96625e-06
-4.38952e-07
2.40007e-06
-4.33744e-07
2.8237e-06
-4.23631e-07
3.23059e-06
-4.06957e-07
3.62276e-06
-3.92153e-07
4.01008e-06
-3.87158e-07
4.39411e-06
-3.83955e-07
4.77169e-06
-3.77538e-07
5.1386e-06
-3.67072e-07
5.48974e-06
-3.51424e-07
5.82886e-06
-3.39115e-07
6.16206e-06
-3.3279e-07
6.4923e-06
-3.30001e-07
6.81801e-06
-3.2571e-07
7.1359e-06
-3.17894e-07
7.44218e-06
-3.06527e-07
7.73614e-06
-2.9417e-07
8.0229e-06
-2.86444e-07
8.30377e-06
-2.80526e-07
8.57943e-06
-2.75656e-07
8.85007e-06
-2.70646e-07
9.11244e-06
-2.62559e-07
9.36327e-06
-2.51234e-07
9.60521e-06
-2.41914e-07
9.84175e-06
-2.36009e-07
1.00717e-05
-2.29992e-07
1.02955e-05
-2.23799e-07
1.05127e-05
-2.17392e-07
1.0722e-05
-2.0929e-07
1.09227e-05
-2.00684e-07
1.11161e-05
-1.93018e-07
1.13015e-05
-1.85377e-07
1.14784e-05
-1.76896e-07
1.16471e-05
-1.6894e-07
1.18096e-05
-1.62264e-07
1.1966e-05
-1.56296e-07
1.21157e-05
-1.49674e-07
1.22573e-05
-1.41588e-07
1.23869e-05
-1.30337e-07
1.25085e-05
-1.2135e-07
1.26252e-05
-1.16273e-07
1.27353e-05
-1.10125e-07
1.28373e-05
-1.02013e-07
1.29304e-05
-9.31023e-08
1.30134e-05
-8.33848e-08
1.30885e-05
-7.51168e-08
1.31564e-05
-6.77071e-08
1.32167e-05
-6.00609e-08
1.32691e-05
-5.24259e-08
1.3313e-05
-4.39552e-08
1.33477e-05
-3.49707e-08
1.33739e-05
-2.63678e-08
1.33925e-05
-1.8584e-08
1.34045e-05
-1.16147e-08
1.34088e-05
-4.30781e-09
1.34042e-05
4.54138e-09
1.33895e-05
1.46367e-08
1.33648e-05
2.43661e-08
1.33338e-05
3.11752e-08
1.32973e-05
3.67165e-08
1.32534e-05
4.38597e-08
1.32019e-05
5.15301e-08
1.31421e-05
5.97139e-08
1.30725e-05
6.91499e-08
1.29953e-05
7.73694e-08
1.29119e-05
8.36513e-08
1.28218e-05
9.00697e-08
1.27249e-05
9.68424e-08
1.26213e-05
1.03517e-07
1.25114e-05
1.09931e-07
1.23957e-05
1.15675e-07
1.22734e-05
1.22343e-07
1.21423e-05
1.30897e-07
1.2005e-05
1.37342e-07
1.18637e-05
1.41376e-07
1.17179e-05
1.45795e-07
1.15668e-05
1.51087e-07
1.14105e-05
1.56312e-07
1.12489e-05
1.61505e-07
1.10813e-05
1.67481e-07
1.09085e-05
1.72683e-07
1.07324e-05
1.76247e-07
1.05532e-05
1.79296e-07
1.03703e-05
1.82802e-07
1.01841e-05
1.86184e-07
9.99364e-06
1.90413e-07
9.79841e-06
1.95112e-07
9.60093e-06
1.97542e-07
9.40131e-06
1.99644e-07
9.19942e-06
2.01857e-07
8.99614e-06
2.03255e-07
8.79011e-06
2.05929e-07
8.58099e-06
2.09065e-07
8.37117e-06
2.09867e-07
8.16078e-06
2.10358e-07
7.94997e-06
2.1079e-07
7.73785e-06
2.12059e-07
7.52522e-06
2.12638e-07
7.31302e-06
2.12219e-07
7.10203e-06
2.10971e-07
6.89244e-06
2.09559e-07
6.68274e-06
2.09649e-07
6.47272e-06
2.09985e-07
6.26399e-06
2.08734e-07
6.05834e-06
2.05634e-07
5.85561e-06
2.0269e-07
5.65416e-06
2.01399e-07
5.45385e-06
2.00273e-07
5.25612e-06
1.97721e-07
5.06089e-06
1.95216e-07
4.86812e-06
1.92741e-07
4.67682e-06
1.91252e-07
4.48608e-06
1.90695e-07
4.29723e-06
1.88825e-07
4.11076e-06
1.86454e-07
3.92553e-06
1.852e-07
3.73983e-06
1.85638e-07
3.55332e-06
1.86481e-07
3.3676e-06
1.85699e-07
3.18307e-06
1.84523e-07
2.99879e-06
1.84263e-07
2.81325e-06
1.85517e-07
2.62538e-06
1.87847e-07
2.43707e-06
1.88298e-07
2.2502e-06
1.86869e-07
2.06539e-06
1.848e-07
1.88229e-06
1.83094e-07
1.70047e-06
1.81807e-07
1.51992e-06
1.80542e-07
1.34078e-06
1.79136e-07
1.16444e-06
1.76344e-07
9.91823e-07
1.72616e-07
8.2293e-07
1.68891e-07
6.57745e-07
1.65184e-07
4.95569e-07
1.62174e-07
3.36759e-07
1.58807e-07
1.82924e-07
1.53834e-07
3.46558e-08
1.48268e-07
-1.0826e-07
1.42914e-07
-2.46622e-07
1.38361e-07
-3.80874e-07
1.34252e-07
-5.10478e-07
1.29603e-07
-6.34422e-07
1.23942e-07
-7.52796e-07
1.18374e-07
-8.66797e-07
1.14e-07
-9.76322e-07
1.09524e-07
-1.08063e-06
1.04309e-07
-1.17978e-06
9.91449e-08
-1.274e-06
9.42163e-08
-1.36335e-06
8.93537e-08
-1.44774e-06
8.4393e-08
-1.52721e-06
7.94638e-08
-1.60179e-06
7.4586e-08
-1.67153e-06
6.97345e-08
-1.7367e-06
6.51682e-08
-1.79732e-06
6.06286e-08
-1.8533e-06
5.59826e-08
-1.90431e-06
5.10096e-08
-1.95042e-06
4.61093e-08
-1.99178e-06
4.13604e-08
-2.02877e-06
3.69913e-08
-2.06143e-06
3.266e-08
-2.08952e-06
2.8091e-08
-2.1128e-06
2.32843e-08
-2.13145e-06
1.86497e-08
-2.14585e-06
1.44011e-08
-2.15612e-06
1.02738e-08
-2.1622e-06
6.08424e-09
-2.16423e-06
2.03044e-09
-2.1625e-06
-1.71682e-09
-2.15719e-06
-5.30563e-09
-2.14793e-06
-9.26189e-09
-2.13463e-06
-1.33003e-08
-2.1174e-06
-1.72286e-08
-2.09673e-06
-2.06692e-08
-2.07279e-06
-2.39401e-08
-2.04574e-06
-2.70456e-08
-2.01588e-06
-2.98568e-08
-1.98292e-06
-3.29486e-08
-1.94685e-06
-3.60709e-08
-1.90801e-06
-3.88317e-08
-1.86706e-06
-4.0945e-08
-1.82381e-06
-4.3249e-08
-1.77806e-06
-4.57418e-08
-1.72998e-06
-4.80837e-08
-1.68006e-06
-4.99156e-08
-1.62821e-06
-5.18397e-08
-1.57478e-06
-5.34312e-08
-1.52021e-06
-5.45589e-08
-1.46449e-06
-5.57142e-08
-1.40759e-06
-5.69012e-08
-1.34926e-06
-5.83208e-08
-1.2896e-06
-5.96566e-08
-1.22898e-06
-6.06214e-08
-1.16794e-06
-6.10309e-08
-1.106e-06
-6.19291e-08
-1.04417e-06
-6.18309e-08
-9.80856e-07
-6.33076e-08
-9.17217e-07
-6.36349e-08
-8.52351e-07
-6.48618e-08
-7.87531e-07
-6.48148e-08
-7.2312e-07
-6.44054e-08
-6.58704e-07
-6.441e-08
-5.95918e-07
-6.27802e-08
-5.31379e-07
-6.45341e-08
-4.68002e-07
-6.33713e-08
-4.05665e-07
-6.23306e-08
-3.43713e-07
-6.19467e-08
-2.86245e-07
-5.74621e-08
-2.3288e-07
-5.33588e-08
-1.7224e-07
-6.06349e-08
-1.14296e-07
-5.79381e-08
-5.72242e-08
-5.70659e-08
5.40488e-09
-6.26234e-08
3.64356e-08
-3.10252e-08
5.66774e-08
-2.02364e-08
1.15815e-07
-5.91318e-08
1.5278e-07
-3.69605e-08
2.31904e-07
-7.9119e-08
3.39684e-07
-1.07775e-07
5.67777e-07
-2.28088e-07
8.5886e-07
-2.91078e-07
1.06207e-06
-2.03204e-07
1.22386e-06
-1.61784e-07
1.33994e-06
-1.16081e-07
1.43142e-06
-9.14731e-08
1.50643e-06
-7.50034e-08
1.58016e-06
-7.37263e-08
1.64919e-06
-6.90322e-08
1.71496e-06
-6.57664e-08
1.77123e-06
-5.62664e-08
1.83295e-06
-6.17082e-08
1.84658e-06
-1.36344e-08
1.83977e-06
6.81449e-09
1.881e-06
-4.12268e-08
1.89843e-06
-1.74233e-08
1.97424e-06
-7.58024e-08
2.09321e-06
-1.18974e-07
2.38899e-06
-2.95776e-07
2.77785e-06
-3.88849e-07
3.0527e-06
-2.74846e-07
3.28119e-06
-2.28489e-07
3.42908e-06
-1.47891e-07
3.55563e-06
-1.26547e-07
3.65353e-06
-9.78941e-08
3.73659e-06
-8.3059e-08
3.79834e-06
-6.17486e-08
3.83523e-06
-3.68813e-08
3.87197e-06
-3.6743e-08
3.90622e-06
-3.42461e-08
3.9281e-06
-2.18759e-08
3.97934e-06
-5.12407e-08
3.98573e-06
-6.382e-09
3.88387e-06
1.01855e-07
3.82712e-06
5.67594e-08
3.76316e-06
6.3953e-08
3.73834e-06
2.48262e-08
3.95946e-06
-2.21131e-07
4.38922e-06
-4.29792e-07
5.31973e-06
-9.30522e-07
6.46951e-06
-1.14983e-06
7.44711e-06
-9.77771e-07
8.1953e-06
-7.48471e-07
8.74144e-06
-5.46134e-07
9.14809e-06
-4.06659e-07
9.46492e-06
-3.16805e-07
9.72274e-06
-2.57861e-07
9.93447e-06
-2.11761e-07
1.01117e-05
-1.77297e-07
1.02638e-05
-1.52051e-07
1.03999e-05
-1.36033e-07
1.05198e-05
-1.19901e-07
1.06251e-05
-1.05284e-07
1.0722e-05
-9.68924e-08
1.08095e-05
-8.74321e-08
1.0888e-05
-7.84632e-08
1.09626e-05
-7.46373e-08
1.10302e-05
-6.75597e-08
1.10913e-05
-6.10594e-08
1.11478e-05
-5.64908e-08
1.12037e-05
-5.59296e-08
1.12548e-05
-5.10452e-08
1.12998e-05
-4.50603e-08
1.13412e-05
-4.13768e-08
1.13805e-05
-3.924e-08
1.14179e-05
-3.73974e-08
1.14531e-05
-3.51653e-08
1.14858e-05
-3.27363e-08
1.15166e-05
-3.08311e-08
1.15449e-05
-2.8313e-08
1.15714e-05
-2.64713e-08
1.15936e-05
-2.2171e-08
1.16161e-05
-2.25393e-08
1.16403e-05
-2.42344e-08
1.16646e-05
-2.42587e-08
1.16878e-05
-2.32216e-08
1.17093e-05
-2.15399e-08
1.17291e-05
-1.976e-08
1.17472e-05
-1.80871e-08
1.17642e-05
-1.69492e-08
1.17803e-05
-1.60849e-08
1.17952e-05
-1.49739e-08
1.1809e-05
-1.37553e-08
1.18213e-05
-1.23283e-08
1.18351e-05
-1.37715e-08
1.18466e-05
-1.14785e-08
1.18543e-05
-7.72326e-09
1.18604e-05
-6.10233e-09
1.18661e-05
-5.65793e-09
1.18715e-05
-5.4185e-09
1.18769e-05
-5.43608e-09
1.18824e-05
-5.42261e-09
1.18876e-05
-5.21045e-09
1.18924e-05
-4.77439e-09
1.18964e-05
-4.04845e-09
1.18995e-05
-3.13931e-09
1.19019e-05
-2.32326e-09
1.19037e-05
-1.87283e-09
1.19056e-05
-1.87632e-09
1.19075e-05
-1.84376e-09
1.19088e-05
-1.3717e-09
1.19091e-05
-3.16981e-10
1.19083e-05
8.81073e-10
1.19069e-05
1.40082e-09
1.19058e-05
1.06058e-09
1.19051e-05
6.96577e-10
1.19038e-05
1.29167e-09
1.19011e-05
2.70849e-09
1.1898e-05
3.12727e-09
1.18953e-05
2.69649e-09
1.18932e-05
2.05492e-09
1.18884e-05
4.78234e-09
1.18859e-05
2.52101e-09
1.18863e-05
-3.66166e-10
1.18898e-05
-3.56822e-09
1.18907e-05
-9.09223e-10
1.18891e-05
1.62998e-09
1.18863e-05
2.78938e-09
1.18834e-05
2.93101e-09
1.18809e-05
2.51936e-09
1.46194e-09
-4.10995e-05
6.93823e-06
-3.91592e-05
-3.57761e-06
-3.69166e-05
-5.36045e-06
-3.50708e-05
-6.98899e-06
-3.29295e-05
-7.0077e-06
-3.13699e-05
-6.46522e-06
-3.00125e-05
-5.40484e-06
-2.90653e-05
-4.34905e-06
-2.86408e-05
-3.70359e-06
-2.86144e-05
-3.4871e-06
-2.90274e-05
-3.33155e-06
-2.9666e-05
-2.94028e-06
-3.05302e-05
-1.91835e-06
-3.17536e-05
5.30995e-08
-3.39635e-05
2.91265e-06
-3.75815e-05
6.48309e-06
-4.19228e-05
9.11827e-06
-4.55809e-05
9.85365e-06
-4.75065e-05
9.91907e-06
-4.76344e-05
9.88553e-06
-4.75576e-05
8.26327e-06
-4.91241e-05
5.79655e-06
-5.14441e-05
4.91563e-06
-5.36006e-05
4.63737e-06
-5.53558e-05
3.8362e-06
-5.69759e-05
2.87565e-06
-5.84515e-05
2.57137e-06
-5.97621e-05
2.6091e-06
-6.1007e-05
2.74524e-06
-6.23488e-05
3.04277e-06
-6.39041e-05
3.29491e-06
-6.55829e-05
3.18082e-06
-6.70685e-05
2.81875e-06
-6.8318e-05
2.61255e-06
-6.92789e-05
2.39435e-06
-7.00122e-05
1.86399e-06
-7.06527e-05
1.09107e-06
-7.12262e-05
7.21233e-07
-7.18446e-05
8.23963e-07
-7.24257e-05
1.23506e-06
-7.30627e-05
1.88403e-06
-7.37764e-05
2.08815e-06
-7.45756e-05
1.88942e-06
-7.52092e-05
1.10671e-06
-7.55435e-05
3.57326e-07
-7.58407e-05
2.36735e-07
-7.61219e-05
4.34437e-07
-7.64671e-05
9.6695e-07
-7.70133e-05
1.341e-06
-7.76251e-05
1.33872e-06
-7.82501e-05
1.08109e-06
-7.87062e-05
5.38523e-07
-7.88557e-05
2.12555e-08
-7.87738e-05
-2.464e-07
-7.8586e-05
-4.14709e-07
-7.83452e-05
-6.96845e-07
-7.81167e-05
-8.77853e-07
-7.78868e-05
-8.1684e-07
-7.77059e-05
-4.04343e-07
-7.75879e-05
5.03425e-08
-7.73659e-05
8.44504e-08
-7.6842e-05
-3.54807e-07
-7.62318e-05
-9.08718e-07
-7.58356e-05
-9.29762e-07
-7.56523e-05
-4.56543e-07
-7.55608e-05
-1.97805e-07
-7.53921e-05
-3.42635e-07
-7.49736e-05
-1.12768e-06
-7.42058e-05
-2.19386e-06
-7.3094e-05
-3.05701e-06
-7.16182e-05
-3.82065e-06
-7.00621e-05
-4.30281e-06
-6.86569e-05
-4.51889e-06
-6.74774e-05
-4.94549e-06
-6.63321e-05
-5.78814e-06
-6.48976e-05
-7.2504e-06
-6.25293e-05
-9.32434e-06
-6.00288e-05
-1.11139e-05
-5.56499e-05
-1.13946e-05
-4.91105e-05
-1.00273e-05
-4.01885e-05
-1.04931e-05
-3.13404e-05
-7.67699e-06
-2.62389e-05
-3.58057e-06
-2.38778e-05
-7.42157e-07
-2.37646e-05
2.28771e-06
-2.47778e-05
2.49721e-06
-2.63407e-05
2.19257e-06
-2.86602e-05
2.78018e-06
-3.08086e-05
2.5252e-06
-3.1516e-05
8.08465e-07
-3.15429e-05
-4.82328e-08
-3.1525e-05
-9.36057e-08
-3.1355e-05
-4.91805e-07
-3.11566e-05
-6.96222e-07
-3.09918e-05
-9.033e-07
-3.07293e-05
-1.33636e-06
-3.06851e-05
-1.89054e-06
-3.08278e-05
-2.18002e-06
-3.10393e-05
-2.66678e-06
-2.98806e-05
-2.98477e-06
-2.74623e-05
-2.81531e-06
-2.43561e-05
-3.15922e-06
-2.20668e-05
-1.8453e-06
-2.11148e-05
-6.27897e-07
-2.03882e-05
-9.9687e-08
-2.02336e-05
2.42256e-07
-2.03078e-05
1.45652e-07
-2.06443e-05
3.74152e-07
-2.1255e-05
6.34831e-07
-2.16506e-05
4.91823e-07
-2.15977e-05
-2.3013e-08
-2.15491e-05
-1.02409e-08
-2.15005e-05
-1.49693e-07
-2.14863e-05
-3.50961e-07
-2.15981e-05
-6.35041e-07
-2.16731e-05
-9.84972e-07
-2.1809e-05
-1.43437e-06
-2.13917e-05
-1.47388e-06
-2.0333e-05
-1.24178e-06
-1.8775e-05
-1.48502e-06
-1.76031e-05
-9.10458e-07
-1.72367e-05
-2.14225e-07
-1.70387e-05
1.94104e-07
-1.71166e-05
3.78067e-07
-1.72724e-05
2.82872e-07
-1.76588e-05
5.49395e-07
-1.7945e-05
4.20356e-07
-1.80247e-05
2.04961e-07
-1.81119e-05
2.4335e-07
-1.82014e-05
2.21963e-07
-1.83009e-05
2.03345e-07
-1.84357e-05
2.32372e-07
-1.85371e-05
1.78779e-07
-1.86062e-05
1.4516e-07
-1.86652e-05
1.3122e-07
-1.87178e-05
1.20371e-07
-1.87766e-05
1.21357e-07
-1.88313e-05
1.0755e-07
-1.88888e-05
1.08774e-07
-1.8935e-05
8.49248e-08
-1.89679e-05
6.41223e-08
-1.899e-05
4.60976e-08
-1.90026e-05
3.12409e-08
-1.901e-05
1.7327e-08
-1.90091e-05
1.24103e-10
-1.89967e-05
-2.31306e-08
-1.89743e-05
-5.10867e-08
-1.89382e-05
-7.46563e-08
-1.88953e-05
-8.92883e-08
-1.88415e-05
-1.0262e-07
-1.87796e-05
-1.19503e-07
-1.87039e-05
-1.44498e-07
-1.86192e-05
-1.75094e-07
-1.85213e-05
-1.9869e-07
-1.84171e-05
-2.11974e-07
-1.83041e-05
-2.26567e-07
-1.81796e-05
-2.45673e-07
-1.8041e-05
-2.72213e-07
-1.7891e-05
-2.94979e-07
-1.77348e-05
-3.11505e-07
-1.75733e-05
-3.27352e-07
-1.74007e-05
-3.47741e-07
-1.7216e-05
-3.701e-07
-1.70206e-05
-3.88991e-07
-1.68183e-05
-4.01053e-07
-1.66077e-05
-4.20465e-07
-1.63823e-05
-4.50114e-07
-1.61463e-05
-4.72562e-07
-1.59032e-05
-4.82653e-07
-1.56541e-05
-4.94545e-07
-1.53943e-05
-5.2066e-07
-1.51181e-05
-5.53371e-07
-1.48299e-05
-5.76346e-07
-1.45346e-05
-5.8757e-07
-1.42311e-05
-6.01712e-07
-1.39165e-05
-6.2645e-07
-1.35886e-05
-6.59498e-07
-1.32459e-05
-6.8634e-07
-1.28927e-05
-7.06017e-07
-1.25256e-05
-7.29313e-07
-1.21438e-05
-7.6027e-07
-1.17521e-05
-7.83863e-07
-1.13534e-05
-7.96417e-07
-1.09431e-05
-8.16335e-07
-1.052e-05
-8.45641e-07
-1.00812e-05
-8.83728e-07
-9.62402e-06
-9.20351e-07
-9.15297e-06
-9.41401e-07
-8.67121e-06
-9.57613e-07
-8.1846e-06
-9.70514e-07
-7.69545e-06
-9.83685e-07
-7.19791e-06
-1.006e-06
-6.68871e-06
-1.03019e-06
-6.16644e-06
-1.05113e-06
-5.63442e-06
-1.05863e-06
-5.1008e-06
-1.06042e-06
-4.57114e-06
-1.05808e-06
-4.04385e-06
-1.05968e-06
-3.51352e-06
-1.0715e-06
-2.97798e-06
-1.08151e-06
-2.44566e-06
-1.07393e-06
-1.92356e-06
-1.0485e-06
-1.40953e-06
-1.02626e-06
-9.01113e-07
-1.01248e-06
-3.99328e-07
-1.00162e-06
9.17976e-08
-9.86203e-07
5.69959e-07
-9.60976e-07
1.0351e-06
-9.30732e-07
1.48968e-06
-9.03604e-07
1.9352e-06
-8.84468e-07
2.37098e-06
-8.69356e-07
2.79358e-06
-8.46236e-07
3.20131e-06
-8.14757e-07
3.59966e-06
-7.90497e-07
3.99183e-06
-7.79092e-07
4.37664e-06
-7.68682e-07
4.75255e-06
-7.53405e-07
5.11912e-06
-7.33666e-07
5.47416e-06
-7.06969e-07
5.81878e-06
-6.83708e-07
6.15466e-06
-6.68637e-07
6.48527e-06
-6.60085e-07
6.80964e-06
-6.4984e-07
7.12592e-06
-6.34171e-07
7.43338e-06
-6.1437e-07
7.73166e-06
-5.9267e-07
8.02121e-06
-5.7599e-07
8.30304e-06
-5.62352e-07
8.57902e-06
-5.51078e-07
8.84827e-06
-5.3965e-07
9.11001e-06
-5.24307e-07
9.36255e-06
-5.04437e-07
9.60695e-06
-4.86309e-07
9.84407e-06
-4.73118e-07
1.00752e-05
-4.61088e-07
1.03005e-05
-4.48695e-07
1.05189e-05
-4.35316e-07
1.07286e-05
-4.19063e-07
1.09294e-05
-4.01527e-07
1.11212e-05
-3.85054e-07
1.13055e-05
-3.7002e-07
1.14833e-05
-3.54889e-07
1.16549e-05
-3.40592e-07
1.18193e-05
-3.26693e-07
1.19764e-05
-3.12602e-07
1.21246e-05
-2.97875e-07
1.22647e-05
-2.81769e-07
1.23957e-05
-2.61896e-07
1.25196e-05
-2.4524e-07
1.26371e-05
-2.33211e-07
1.27469e-05
-2.19858e-07
1.2848e-05
-2.03124e-07
1.29399e-05
-1.85115e-07
1.30232e-05
-1.67249e-07
1.31e-05
-1.51912e-07
1.31693e-05
-1.37003e-07
1.32302e-05
-1.20953e-07
1.32826e-05
-1.04401e-07
1.3325e-05
-8.63238e-08
1.33588e-05
-6.8819e-08
1.33856e-05
-5.35631e-08
1.34056e-05
-3.8547e-08
1.34176e-05
-2.34022e-08
1.3421e-05
-7.73665e-09
1.34153e-05
1.01486e-08
1.34e-05
2.95001e-08
1.33769e-05
4.74874e-08
1.33467e-05
6.1514e-08
1.33097e-05
7.39386e-08
1.3265e-05
8.86233e-08
1.32121e-05
1.04437e-07
1.31509e-05
1.20835e-07
1.30816e-05
1.37864e-07
1.30056e-05
1.53447e-07
1.29222e-05
1.67165e-07
1.28314e-05
1.81061e-07
1.27336e-05
1.94683e-07
1.26293e-05
2.07767e-07
1.25188e-05
2.20423e-07
1.24022e-05
2.3222e-07
1.22787e-05
2.45805e-07
1.21473e-05
2.61733e-07
1.20109e-05
2.7411e-07
1.18693e-05
2.82901e-07
1.17227e-05
2.92448e-07
1.15704e-05
3.03469e-07
1.14124e-05
3.14271e-07
1.12497e-05
3.24166e-07
1.1082e-05
3.34811e-07
1.09101e-05
3.44634e-07
1.0734e-05
3.52285e-07
1.05539e-05
3.59481e-07
1.03694e-05
3.673e-07
1.01815e-05
3.7406e-07
9.99052e-06
3.81245e-07
9.79657e-06
3.88945e-07
9.59976e-06
3.94292e-07
9.39924e-06
4.00257e-07
9.19555e-06
4.05544e-07
8.99064e-06
4.08117e-07
8.78484e-06
4.11574e-07
8.57761e-06
4.16246e-07
8.36783e-06
4.19661e-07
8.15561e-06
4.22559e-07
7.94386e-06
4.22493e-07
7.73281e-06
4.23017e-07
7.52116e-06
4.24224e-07
7.30846e-06
4.24902e-07
7.09619e-06
4.23241e-07
6.88533e-06
4.20373e-07
6.6757e-06
4.1917e-07
6.46708e-06
4.18565e-07
6.2585e-06
4.17273e-07
6.05151e-06
4.12597e-07
5.84742e-06
4.06742e-07
5.64582e-06
4.02936e-07
5.44619e-06
3.9983e-07
5.2478e-06
3.96066e-07
5.05051e-06
3.92471e-07
4.85537e-06
3.87828e-07
4.6628e-06
3.83746e-07
4.47235e-06
3.81073e-07
4.28334e-06
3.77781e-07
4.09509e-06
3.74672e-07
3.90702e-06
3.73231e-07
3.71957e-06
3.73022e-07
3.53309e-06
3.72911e-07
3.34728e-06
3.71485e-07
3.16165e-06
3.70129e-07
2.97549e-06
3.70393e-07
2.78899e-06
3.7197e-07
2.6025e-06
3.74298e-07
2.41611e-06
3.74667e-07
2.23047e-06
3.72493e-07
2.04588e-06
3.69382e-07
1.86242e-06
3.6655e-07
1.68071e-06
3.63507e-07
1.50129e-06
3.59951e-07
1.32414e-06
3.56284e-07
1.14922e-06
3.51254e-07
9.76914e-07
3.44921e-07
8.08058e-07
3.37745e-07
6.42869e-07
3.3037e-07
4.81176e-07
3.2386e-07
3.2402e-07
3.15961e-07
1.71635e-07
3.06215e-07
2.36769e-08
2.96224e-07
-1.19701e-07
2.86291e-07
-2.58353e-07
2.77012e-07
-3.92059e-07
2.67956e-07
-5.20767e-07
2.58309e-07
-6.44562e-07
2.47732e-07
-7.6344e-07
2.37251e-07
-8.77315e-07
2.27875e-07
-9.86277e-07
2.18487e-07
-1.09061e-06
2.08634e-07
-1.19028e-06
1.98815e-07
-1.28487e-06
1.8881e-07
-1.37429e-06
1.78769e-07
-1.45874e-06
1.68838e-07
-1.53838e-06
1.59104e-07
-1.61325e-06
1.49464e-07
-1.68319e-06
1.3967e-07
-1.74824e-06
1.30231e-07
-1.80847e-06
1.20853e-07
-1.86393e-06
1.11444e-07
-1.91475e-06
1.01832e-07
-1.96089e-06
9.22447e-08
-2.0024e-06
8.28754e-08
-2.03931e-06
7.39107e-08
-2.07166e-06
6.50151e-08
-2.0995e-06
5.59258e-08
-2.1227e-06
4.64853e-08
-2.14131e-06
3.72649e-08
-2.15555e-06
2.8651e-08
-2.16564e-06
2.03666e-08
-2.17174e-06
1.21819e-08
-2.17367e-06
3.97755e-09
-2.17139e-06
-3.98761e-09
-2.16514e-06
-1.15519e-08
-2.15516e-06
-1.92333e-08
-2.1416e-06
-2.68649e-08
-2.12426e-06
-3.45609e-08
-2.1035e-06
-4.14276e-08
-2.07941e-06
-4.80216e-08
-2.05217e-06
-5.42782e-08
-2.02174e-06
-6.02753e-08
-1.98824e-06
-6.64514e-08
-1.95194e-06
-7.2358e-08
-1.9131e-06
-7.76682e-08
-1.87155e-06
-8.24825e-08
-1.82743e-06
-8.73666e-08
-1.78114e-06
-9.20264e-08
-1.73305e-06
-9.61679e-08
-1.68311e-06
-9.98485e-08
-1.63122e-06
-1.03723e-07
-1.57755e-06
-1.07085e-07
-1.52229e-06
-1.09813e-07
-1.46567e-06
-1.12327e-07
-1.40841e-06
-1.14153e-07
-1.34987e-06
-1.16855e-07
-1.29043e-06
-1.19082e-07
-1.22997e-06
-1.21084e-07
-1.16881e-06
-1.22178e-07
-1.1064e-06
-1.24325e-07
-1.04419e-06
-1.24038e-07
-9.8105e-07
-1.26434e-07
-9.18499e-07
-1.2618e-07
-8.55353e-07
-1.27998e-07
-7.90246e-07
-1.29912e-07
-7.25261e-07
-1.29379e-07
-6.58136e-07
-1.31525e-07
-5.93424e-07
-1.27482e-07
-5.28167e-07
-1.29781e-07
-4.68699e-07
-1.2283e-07
-4.11839e-07
-1.1918e-07
-3.47668e-07
-1.26108e-07
-2.82077e-07
-1.23042e-07
-2.14809e-07
-1.20616e-07
-1.48116e-07
-1.27318e-07
-1.16277e-07
-8.97667e-08
-9.68851e-08
-7.64478e-08
-3.71911e-08
-1.22307e-07
3.40088e-08
-1.02215e-07
1.57176e-07
-1.43394e-07
2.90737e-07
-1.92683e-07
5.31417e-07
-2.77632e-07
8.13635e-07
-3.61328e-07
1.01478e-06
-3.0891e-07
1.13416e-06
-3.47465e-07
1.17971e-06
-3.36611e-07
1.24656e-06
-2.70046e-07
1.30772e-06
-2.22936e-07
1.38876e-06
-1.97115e-07
1.46508e-06
-1.67785e-07
1.55132e-06
-1.61233e-07
1.63077e-06
-1.53176e-07
1.70425e-06
-1.42499e-07
1.72945e-06
-9.09652e-08
1.72765e-06
-5.44585e-08
1.7799e-06
-1.1395e-07
1.84837e-06
-8.20993e-08
1.99749e-06
-1.423e-07
2.16399e-06
-2.07723e-07
2.48674e-06
-3.40167e-07
2.87027e-06
-4.59339e-07
3.15196e-06
-4.00659e-07
3.31098e-06
-4.54788e-07
3.35877e-06
-4.36637e-07
3.43456e-06
-3.50627e-07
3.5068e-06
-3.0072e-07
3.58094e-06
-2.22031e-07
3.63232e-06
-1.77927e-07
3.68737e-06
-1.52949e-07
3.74499e-06
-1.40669e-07
3.81175e-06
-1.28507e-07
3.87939e-06
-1.04503e-07
3.97219e-06
-1.29543e-07
4.00652e-06
-6.85923e-08
3.91806e-06
6.65898e-08
3.85005e-06
1.67774e-08
3.81939e-06
2.42779e-08
3.91829e-06
2.96581e-09
4.26765e-06
-2.92592e-07
4.9088e-06
-5.77177e-07
5.9952e-06
-1.06156e-06
7.0649e-06
-1.29079e-06
7.92793e-06
-1.29275e-06
8.44573e-06
-1.44818e-06
8.66077e-06
-1.3647e-06
8.87945e-06
-1.19626e-06
9.09633e-06
-9.65186e-07
9.3166e-06
-7.66274e-07
9.52642e-06
-6.16365e-07
9.71969e-06
-5.09987e-07
9.89663e-06
-4.34716e-07
1.00579e-05
-3.7297e-07
1.02032e-05
-3.22629e-07
1.03364e-05
-2.85188e-07
1.04581e-05
-2.5768e-07
1.05679e-05
-2.29738e-07
1.06677e-05
-2.05021e-07
1.07594e-05
-1.88613e-07
1.08436e-05
-1.7171e-07
1.09211e-05
-1.55945e-07
1.09932e-05
-1.4678e-07
1.10601e-05
-1.3442e-07
1.11222e-05
-1.23226e-07
1.11801e-05
-1.144e-07
1.12345e-05
-1.10345e-07
1.12849e-05
-1.01515e-07
1.13316e-05
-9.17308e-08
1.13749e-05
-8.47421e-08
1.14156e-05
-7.98885e-08
1.14533e-05
-7.51105e-08
1.14885e-05
-7.0414e-08
1.15216e-05
-6.58526e-08
1.15528e-05
-6.20097e-08
1.15813e-05
-5.68071e-08
1.16079e-05
-5.30092e-08
1.16329e-05
-4.71978e-08
1.16568e-05
-4.63557e-08
1.16795e-05
-4.69441e-08
1.17011e-05
-4.58372e-08
1.17215e-05
-4.35784e-08
1.17408e-05
-4.08543e-08
1.17592e-05
-3.81722e-08
1.17765e-05
-3.53079e-08
1.17926e-05
-3.31118e-08
1.18078e-05
-3.12441e-08
1.18218e-05
-2.90529e-08
1.18345e-05
-2.64317e-08
1.18462e-05
-2.4044e-08
1.18569e-05
-2.44498e-08
1.18663e-05
-2.08975e-08
1.18748e-05
-1.62443e-08
1.18825e-05
-1.38695e-08
1.18895e-05
-1.26782e-08
1.18959e-05
-1.17779e-08
1.19016e-05
-1.11059e-08
1.19067e-05
-1.05211e-08
1.19113e-05
-9.87872e-09
1.19156e-05
-9.00686e-09
1.19192e-05
-7.727e-09
1.19222e-05
-6.14618e-09
1.19246e-05
-4.67434e-09
1.19265e-05
-3.76736e-09
1.1928e-05
-3.39178e-09
1.19292e-05
-3.00836e-09
1.19296e-05
-1.85012e-09
1.19291e-05
2.58237e-10
1.1928e-05
1.90293e-09
1.19273e-05
2.17697e-09
1.19265e-05
1.78873e-09
1.19251e-05
2.10548e-09
1.19228e-05
3.56841e-09
1.19203e-05
5.19457e-09
1.19186e-05
4.82504e-09
1.19168e-05
4.55612e-09
1.19141e-05
4.68985e-09
1.19109e-05
8.02751e-09
1.19082e-05
5.21726e-09
1.19064e-05
1.49172e-09
1.1904e-05
-1.16949e-09
1.19008e-05
2.32265e-09
1.1897e-05
5.34466e-09
1.18933e-05
6.5301e-09
1.18896e-05
6.6039e-09
1.18856e-05
6.52015e-09
7.61355e-09
-3.65e-05
2.27694e-06
-3.55031e-05
-4.57445e-06
-3.44778e-05
-6.38567e-06
-3.41264e-05
-7.34031e-06
-3.39102e-05
-7.22384e-06
-3.38406e-05
-6.53482e-06
-3.40934e-05
-5.15203e-06
-3.50273e-05
-3.41516e-06
-3.69983e-05
-1.73266e-06
-3.99421e-05
-5.43144e-07
-4.34229e-05
1.49359e-07
-4.6795e-05
4.31955e-07
-4.95402e-05
8.27019e-07
-5.14148e-05
1.92807e-06
-5.26909e-05
4.18924e-06
-5.31391e-05
6.9314e-06
-5.28336e-05
8.81266e-06
-5.25597e-05
9.57879e-06
-5.24499e-05
9.80906e-06
-5.20457e-05
9.48151e-06
-5.19769e-05
8.19619e-06
-5.30701e-05
6.89571e-06
-5.45805e-05
6.43645e-06
-5.59705e-05
6.03044e-06
-5.74529e-05
5.31558e-06
-5.91131e-05
4.52305e-06
-6.04756e-05
3.93005e-06
-6.15205e-05
3.65566e-06
-6.25411e-05
3.78738e-06
-6.36251e-05
4.15005e-06
-6.48854e-05
4.55517e-06
-6.62977e-05
4.59313e-06
-6.76727e-05
4.19371e-06
-6.8703e-05
3.63971e-06
-6.92979e-05
2.94732e-06
-6.97716e-05
2.33301e-06
-7.05889e-05
1.90797e-06
-7.15376e-05
1.6699e-06
-7.23993e-05
1.68617e-06
-7.30329e-05
1.87946e-06
-7.33339e-05
2.22884e-06
-7.36053e-05
2.35957e-06
-7.40142e-05
2.26523e-06
-7.45855e-05
1.6592e-06
-7.5233e-05
1.00412e-06
-7.58458e-05
8.49507e-07
-7.641e-05
1.00771e-06
-7.67402e-05
1.32974e-06
-7.70684e-05
1.66916e-06
-7.74857e-05
1.75613e-06
-7.80066e-05
1.60199e-06
-7.86019e-05
1.09491e-06
-7.90389e-05
4.54705e-07
-7.92707e-05
-1.47909e-08
-7.93844e-05
-3.00952e-07
-7.94267e-05
-6.54547e-07
-7.94708e-05
-8.30703e-07
-7.94405e-05
-8.25248e-07
-7.92285e-05
-5.89294e-07
-7.87914e-05
-3.86848e-07
-7.8099e-05
-6.14286e-07
-7.71942e-05
-1.28758e-06
-7.64191e-05
-1.67272e-06
-7.58926e-05
-1.43374e-06
-7.56612e-05
-6.87872e-07
-7.54293e-05
-4.29722e-07
-7.50789e-05
-6.92977e-07
-7.47555e-05
-1.47055e-06
-7.44211e-05
-2.55408e-06
-7.37892e-05
-3.69198e-06