/*--------------------------------*- C++ -*----------------------------------*\
| =========                 |                                                 |
| \\      /  F ield         | OpenFOAM: The Open Source CFD Toolbox           |
|  \\    /   O peration     | Version:  v2006                                 |
|   \\  /    A nd           | Website:  www.openfoam.com                      |
|    \\/     M anipulation  |                                                 |
\*---------------------------------------------------------------------------*/
FoamFile
{
    version     2.0;
    format      ascii;
    class       volScalarField;
    location    "6";
    object      k;
}
// * * * * * * * * * * * * * * * * * * * * * * * * * * * * * * * * * * * * * //

dimensions      [0 2 -2 0 0 0 0];


internalField   nonuniform List<scalar> 
33000
(
3.1018e-08
3.09702e-08
3.09291e-08
3.11868e-08
3.21746e-08
3.36575e-08
3.57962e-08
3.84877e-08
4.16976e-08
4.54754e-08
4.98681e-08
5.47282e-08
5.95477e-08
6.3387e-08
6.62918e-08
7.11125e-08
8.0709e-08
9.97574e-08
1.32096e-07
1.74767e-07
2.15996e-07
2.468e-07
2.67317e-07
2.80064e-07
2.87359e-07
2.91398e-07
2.94003e-07
2.96278e-07
2.98549e-07
3.00567e-07
3.01909e-07
3.02333e-07
3.01806e-07
3.00327e-07
2.97886e-07
2.94666e-07
2.91309e-07
2.88944e-07
2.88775e-07
2.90982e-07
2.9349e-07
2.94242e-07
2.92532e-07
2.88939e-07
2.84899e-07
2.82219e-07
2.82554e-07
2.84101e-07
2.84717e-07
2.83441e-07
2.80321e-07
2.76014e-07
2.71448e-07
2.67916e-07
2.65113e-07
2.62932e-07
2.62358e-07
2.64494e-07
2.69133e-07
2.74293e-07
2.76987e-07
2.76151e-07
2.72306e-07
2.67727e-07
2.64022e-07
2.59502e-07
2.51628e-07
2.39925e-07
2.26379e-07
2.13502e-07
2.02035e-07
1.9181e-07
1.82594e-07
1.73751e-07
1.65331e-07
1.57721e-07
1.52355e-07
1.51027e-07
1.58052e-07
1.68172e-07
1.72989e-07
1.79683e-07
1.83196e-07
1.9071e-07
1.98986e-07
2.05417e-07
2.0908e-07
2.10511e-07
2.10455e-07
2.09182e-07
2.06723e-07
2.03227e-07
1.98235e-07
1.92107e-07
1.84546e-07
1.75619e-07
1.65408e-07
1.56118e-07
1.4859e-07
1.46327e-07
1.47547e-07
1.48624e-07
1.48388e-07
1.47534e-07
1.48312e-07
1.50351e-07
1.51619e-07
1.50894e-07
1.48632e-07
1.45889e-07
1.43345e-07
1.41299e-07
1.39312e-07
1.36621e-07
1.32615e-07
1.28717e-07
1.25792e-07
1.27251e-07
1.2989e-07
1.30038e-07
1.29395e-07
1.28933e-07
1.28853e-07
1.29508e-07
1.30379e-07
1.30959e-07
1.31255e-07
1.31308e-07
1.31293e-07
1.31406e-07
1.31591e-07
1.31709e-07
1.31736e-07
1.31687e-07
1.31602e-07
1.31454e-07
1.31309e-07
1.31204e-07
1.31128e-07
1.31057e-07
1.3097e-07
1.3085e-07
1.3071e-07
1.30587e-07
1.30465e-07
1.30271e-07
1.29986e-07
1.29668e-07
1.2938e-07
1.29158e-07
1.2897e-07
1.28723e-07
1.28372e-07
1.27989e-07
1.27658e-07
1.27371e-07
1.27078e-07
1.26745e-07
1.26376e-07
1.25995e-07
1.25607e-07
1.25199e-07
1.24783e-07
1.24382e-07
1.24012e-07
1.23615e-07
1.23137e-07
1.22651e-07
1.22219e-07
1.21788e-07
1.21264e-07
1.20664e-07
1.20097e-07
1.19588e-07
1.19086e-07
1.18514e-07
1.1788e-07
1.17299e-07
1.16796e-07
1.16315e-07
1.15818e-07
1.15342e-07
1.14965e-07
1.14618e-07
1.14232e-07
1.13836e-07
1.13496e-07
1.13253e-07
1.13059e-07
1.12864e-07
1.12656e-07
1.12427e-07
1.1221e-07
1.12076e-07
1.12038e-07
1.12042e-07
1.1208e-07
1.12143e-07
1.12233e-07
1.12398e-07
1.12681e-07
1.13076e-07
1.1352e-07
1.1399e-07
1.14494e-07
1.15073e-07
1.15722e-07
1.1636e-07
1.16931e-07
1.17404e-07
1.17809e-07
1.18197e-07
1.18559e-07
1.18834e-07
1.1901e-07
1.19129e-07
1.1922e-07
1.19298e-07
1.19339e-07
1.1929e-07
1.19136e-07
1.18891e-07
1.1859e-07
1.18259e-07
1.179e-07
1.17486e-07
1.1702e-07
1.16527e-07
1.16015e-07
1.15507e-07
1.15023e-07
1.14553e-07
1.1407e-07
1.13567e-07
1.13053e-07
1.12536e-07
1.12026e-07
1.11527e-07
1.11028e-07
1.10518e-07
1.10002e-07
1.09484e-07
1.08958e-07
1.08417e-07
1.07862e-07
1.07306e-07
1.06761e-07
1.06224e-07
1.05666e-07
1.05084e-07
1.04499e-07
1.0392e-07
1.03344e-07
1.02763e-07
1.02171e-07
1.01569e-07
1.00958e-07
1.00342e-07
9.97238e-08
9.91022e-08
9.84715e-08
9.7826e-08
9.71676e-08
9.65056e-08
9.5847e-08
9.51918e-08
9.45292e-08
9.38479e-08
9.31467e-08
9.2437e-08
9.17305e-08
9.103e-08
9.03288e-08
8.96141e-08
8.88794e-08
8.81308e-08
8.73751e-08
8.66118e-08
8.58379e-08
8.50543e-08
8.42685e-08
8.34812e-08
8.26796e-08
8.18546e-08
8.10132e-08
8.0164e-08
7.93104e-08
7.84516e-08
7.75837e-08
7.66988e-08
7.57894e-08
7.48605e-08
7.3918e-08
7.29657e-08
7.20052e-08
7.10262e-08
7.00178e-08
6.89889e-08
6.79401e-08
6.68682e-08
6.57791e-08
6.46626e-08
6.3511e-08
6.2321e-08
6.10732e-08
5.97551e-08
5.84408e-08
5.71631e-08
5.59323e-08
5.47538e-08
5.36338e-08
5.25667e-08
5.15471e-08
5.05747e-08
4.96569e-08
4.87986e-08
4.7994e-08
4.72393e-08
4.65378e-08
4.58898e-08
4.52978e-08
4.4757e-08
4.42669e-08
4.38394e-08
4.34774e-08
4.31769e-08
4.29276e-08
4.27236e-08
4.25663e-08
4.24519e-08
4.23774e-08
4.23388e-08
4.23348e-08
4.23671e-08
4.24291e-08
4.25112e-08
4.26029e-08
4.2697e-08
4.27891e-08
4.2876e-08
4.29591e-08
4.30411e-08
4.31239e-08
4.32096e-08
4.3296e-08
4.33795e-08
4.34598e-08
4.35359e-08
4.35986e-08
4.36395e-08
4.36557e-08
4.36462e-08
4.36122e-08
4.35572e-08
4.34811e-08
4.33825e-08
4.32635e-08
4.31261e-08
4.29704e-08
4.2797e-08
4.26072e-08
4.24023e-08
4.21828e-08
4.19507e-08
4.17063e-08
4.14506e-08
4.11838e-08
4.09074e-08
4.06225e-08
4.03301e-08
4.00305e-08
3.97237e-08
3.94106e-08
3.90925e-08
3.87707e-08
3.84456e-08
3.81172e-08
3.77867e-08
3.74548e-08
3.7122e-08
3.67877e-08
3.64528e-08
3.61184e-08
3.57853e-08
3.54539e-08
3.51239e-08
3.47964e-08
3.44701e-08
3.41465e-08
3.3826e-08
3.35095e-08
3.31947e-08
3.28838e-08
3.25764e-08
3.22739e-08
3.19743e-08
3.168e-08
3.13891e-08
3.11022e-08
3.08176e-08
3.0538e-08
3.02613e-08
2.99917e-08
2.97244e-08
2.94631e-08
2.9206e-08
2.89517e-08
2.87077e-08
2.84645e-08
2.82353e-08
2.8003e-08
2.77824e-08
2.75588e-08
2.73374e-08
2.71289e-08
2.69179e-08
2.6707e-08
2.65077e-08
2.62772e-08
2.60387e-08
2.58678e-08
2.56436e-08
2.54631e-08
2.53196e-08
2.48876e-08
2.45354e-08
2.45247e-08
2.40354e-08
2.42387e-08
2.40191e-08
2.52757e-08
2.5833e-08
2.64183e-08
2.66116e-08
2.67948e-08
2.67674e-08
2.67685e-08
2.66821e-08
2.66406e-08
2.65323e-08
2.64319e-08
2.63486e-08
2.6072e-08
2.58232e-08
2.57617e-08
2.54281e-08
2.54505e-08
2.51702e-08
2.56037e-08
2.58031e-08
2.58954e-08
2.58867e-08
2.57849e-08
2.56665e-08
2.55312e-08
2.5395e-08
2.52531e-08
2.50566e-08
2.48529e-08
2.46989e-08
2.44705e-08
2.43369e-08
2.4146e-08
2.36279e-08
2.32222e-08
2.31364e-08
2.24895e-08
2.29647e-08
2.29613e-08
2.4994e-08
2.74898e-08
2.99481e-08
3.21086e-08
3.38736e-08
3.52655e-08
3.63471e-08
3.71905e-08
3.78391e-08
3.83315e-08
3.87012e-08
3.89896e-08
3.92149e-08
3.93833e-08
3.95143e-08
3.96131e-08
3.9679e-08
3.97284e-08
3.97606e-08
3.97749e-08
3.97712e-08
3.97624e-08
3.97465e-08
3.97194e-08
3.96828e-08
3.96395e-08
3.95907e-08
3.95369e-08
3.94776e-08
3.94135e-08
3.93438e-08
3.92702e-08
3.9187e-08
3.90969e-08
3.90029e-08
3.8905e-08
3.88033e-08
3.86981e-08
3.859e-08
3.84794e-08
3.83671e-08
3.82541e-08
3.81407e-08
3.80275e-08
3.79133e-08
3.78014e-08
3.76902e-08
3.75776e-08
3.74637e-08
3.73483e-08
3.7231e-08
3.71116e-08
3.69902e-08
3.68675e-08
3.6744e-08
3.66207e-08
3.64979e-08
3.63753e-08
3.62521e-08
3.61282e-08
3.60046e-08
3.58827e-08
3.57633e-08
3.56461e-08
3.553e-08
3.54142e-08
3.52995e-08
3.51871e-08
3.50765e-08
3.49663e-08
3.48556e-08
3.47449e-08
3.46351e-08
3.45262e-08
3.44169e-08
3.43133e-08
3.41905e-08
3.41495e-08
3.38553e-08
3.36411e-08
3.19313e-08
1.99835e-08
1.88058e-08
1.91749e-08
2.07129e-08
2.24386e-08
2.50415e-08
2.89696e-08
3.49151e-08
4.33369e-08
5.36869e-08
6.61905e-08
8.10345e-08
9.77046e-08
1.15006e-07
1.30384e-07
1.40731e-07
1.47624e-07
1.53494e-07
1.58883e-07
1.62473e-07
1.59183e-07
1.43209e-07
1.20829e-07
9.98124e-08
8.17328e-08
6.74452e-08
5.89294e-08
5.53117e-08
5.40631e-08
5.3645e-08
5.28088e-08
5.09409e-08
4.89619e-08
4.75583e-08
4.61725e-08
4.34788e-08
3.97484e-08
3.73881e-08
3.73669e-08
3.89145e-08
4.1144e-08
4.17489e-08
4.01546e-08
3.71028e-08
3.43803e-08
3.36126e-08
3.367e-08
3.44347e-08
3.47843e-08
3.4119e-08
3.27408e-08
3.11965e-08
3.03759e-08
2.99407e-08
2.96999e-08
2.95895e-08
2.96626e-08
2.99891e-08
3.05806e-08
3.14196e-08
3.22147e-08
3.23214e-08
3.20407e-08
3.19062e-08
3.17934e-08
3.15989e-08
3.13024e-08
3.10378e-08
3.11086e-08
3.19901e-08
3.40377e-08
3.74584e-08
4.23277e-08
4.83246e-08
5.4492e-08
5.96956e-08
6.42469e-08
6.90995e-08
7.50066e-08
8.20327e-08
8.9875e-08
1.02013e-07
1.13896e-07
1.17338e-07
1.08659e-07
1.06707e-07
1.0411e-07
9.79053e-08
7.54217e-08
4.80735e-08
3.22725e-08
2.51118e-08
2.3935e-08
2.58139e-08
2.99719e-08
3.61147e-08
4.37969e-08
5.21138e-08
5.82298e-08
5.97068e-08
5.65654e-08
4.86383e-08
3.96751e-08
3.11059e-08
2.71063e-08
2.27932e-08
1.94814e-08
1.74186e-08
1.5981e-08
1.5334e-08
1.49463e-08
1.51255e-08
1.58786e-08
1.7303e-08
1.91427e-08
2.07678e-08
2.12066e-08
2.04954e-08
1.93261e-08
1.83348e-08
1.76361e-08
1.64854e-08
1.67808e-08
1.59724e-08
1.51853e-08
1.51339e-08
1.48835e-08
1.47012e-08
1.4712e-08
1.46182e-08
1.45576e-08
1.45793e-08
1.45501e-08
1.45739e-08
1.46143e-08
1.46571e-08
1.46971e-08
1.47334e-08
1.47865e-08
1.48245e-08
1.48633e-08
1.49016e-08
1.49457e-08
1.49934e-08
1.50424e-08
1.50913e-08
1.51399e-08
1.51926e-08
1.52503e-08
1.53094e-08
1.53654e-08
1.54155e-08
1.54626e-08
1.55136e-08
1.557e-08
1.56266e-08
1.56803e-08
1.57315e-08
1.57802e-08
1.58244e-08
1.58634e-08
1.59005e-08
1.59406e-08
1.59813e-08
1.60163e-08
1.60437e-08
1.60698e-08
1.60997e-08
1.61265e-08
1.61414e-08
1.61477e-08
1.61579e-08
1.61776e-08
1.61951e-08
1.6196e-08
1.61812e-08
1.61665e-08
1.61639e-08
1.61651e-08
1.61562e-08
1.61355e-08
1.61142e-08
1.60993e-08
1.60684e-08
1.60103e-08
1.59509e-08
1.59119e-08
1.58862e-08
1.5852e-08
1.57971e-08
1.57265e-08
1.56534e-08
1.5594e-08
1.55449e-08
1.54941e-08
1.54317e-08
1.53517e-08
1.52562e-08
1.51608e-08
1.50861e-08
1.50348e-08
1.49855e-08
1.49146e-08
1.48165e-08
1.47118e-08
1.46237e-08
1.45537e-08
1.44885e-08
1.44099e-08
1.43152e-08
1.42267e-08
1.4162e-08
1.41014e-08
1.40147e-08
1.39058e-08
1.38022e-08
1.37283e-08
1.368e-08
1.36281e-08
1.35483e-08
1.34436e-08
1.33394e-08
1.32581e-08
1.32055e-08
1.3161e-08
1.31028e-08
1.30289e-08
1.29465e-08
1.28683e-08
1.28112e-08
1.27768e-08
1.27422e-08
1.26936e-08
1.26379e-08
1.25815e-08
1.2533e-08
1.25006e-08
1.24811e-08
1.24604e-08
1.24345e-08
1.2414e-08
1.23989e-08
1.23795e-08
1.23524e-08
1.2328e-08
1.23157e-08
1.23259e-08
1.23385e-08
1.23205e-08
1.22903e-08
1.22727e-08
1.22703e-08
1.22764e-08
1.2276e-08
1.22645e-08
1.22492e-08
1.22332e-08
1.22214e-08
1.22172e-08
1.22129e-08
1.22022e-08
1.21824e-08
1.21603e-08
1.21505e-08
1.2157e-08
1.21684e-08
1.21656e-08
1.21336e-08
1.20972e-08
1.20745e-08
1.20619e-08
1.20598e-08
1.20612e-08
1.20471e-08
1.20196e-08
1.19941e-08
1.19725e-08
1.19518e-08
1.19293e-08
1.19069e-08
1.1896e-08
1.18937e-08
1.18752e-08
1.18415e-08
1.18112e-08
1.1789e-08
1.17701e-08
1.1755e-08
1.17437e-08
1.17253e-08
1.16968e-08
1.16669e-08
1.16413e-08
1.16189e-08
1.16029e-08
1.15856e-08
1.15573e-08
1.15285e-08
1.15002e-08
1.147e-08
1.14469e-08
1.14233e-08
1.13909e-08
1.13574e-08
1.13239e-08
1.12939e-08
1.12613e-08
1.12259e-08
1.11898e-08
1.11563e-08
1.11294e-08
1.11035e-08
1.10739e-08
1.10406e-08
1.10099e-08
1.09857e-08
1.09629e-08
1.09379e-08
1.09144e-08
1.08925e-08
1.08744e-08
1.08584e-08
1.08399e-08
1.08216e-08
1.08066e-08
1.07954e-08
1.07848e-08
1.07716e-08
1.07586e-08
1.07485e-08
1.07419e-08
1.07375e-08
1.07291e-08
1.07169e-08
1.07037e-08
1.06916e-08
1.06807e-08
1.067e-08
1.06589e-08
1.06448e-08
1.06291e-08
1.06138e-08
1.05993e-08
1.05867e-08
1.05734e-08
1.0557e-08
1.05401e-08
1.05245e-08
1.05113e-08
1.04989e-08
1.04857e-08
1.04712e-08
1.04577e-08
1.04469e-08
1.04363e-08
1.04248e-08
1.04142e-08
1.04048e-08
1.03961e-08
1.03877e-08
1.038e-08
1.03729e-08
1.03665e-08
1.03608e-08
1.03554e-08
1.03501e-08
1.0345e-08
1.03404e-08
1.03362e-08
1.03325e-08
1.0329e-08
1.03251e-08
1.03214e-08
1.03182e-08
1.03153e-08
1.03124e-08
1.03096e-08
1.0307e-08
1.03047e-08
1.03022e-08
1.02991e-08
1.02956e-08
1.02921e-08
1.02886e-08
1.0285e-08
1.02813e-08
1.02773e-08
1.02731e-08
1.02686e-08
1.02642e-08
1.02601e-08
1.02556e-08
1.02507e-08
1.0246e-08
1.02414e-08
1.02366e-08
1.02319e-08
1.02274e-08
1.02228e-08
1.02178e-08
1.02128e-08
1.02076e-08
1.02027e-08
1.01978e-08
1.01929e-08
1.0188e-08
1.01826e-08
1.01769e-08
1.01714e-08
1.01667e-08
1.01618e-08
1.01575e-08
1.01529e-08
1.01478e-08
1.01425e-08
1.01394e-08
1.01372e-08
1.01356e-08
1.01377e-08
1.01324e-08
1.01283e-08
1.01361e-08
1.01585e-08
1.01946e-08
1.02376e-08
1.02019e-08
1.03108e-08
1.03211e-08
1.02817e-08
1.02089e-08
1.01851e-08
1.01907e-08
1.0148e-08
1.013e-08
1.01087e-08
1.00924e-08
1.00819e-08
1.00759e-08
1.00646e-08
1.00785e-08
1.01182e-08
1.01592e-08
1.02132e-08
1.01829e-08
1.02329e-08
1.02423e-08
1.02203e-08
1.019e-08
1.01715e-08
1.01712e-08
1.01292e-08
1.01061e-08
1.00834e-08
1.00822e-08
1.00807e-08
1.00889e-08
1.00807e-08
1.0084e-08
1.00723e-08
1.01688e-08
1.02046e-08
1.02946e-08
1.04871e-08
1.05366e-08
1.0495e-08
1.05263e-08
1.05382e-08
1.05713e-08
1.06117e-08
1.06775e-08
1.07196e-08
1.06868e-08
1.05964e-08
1.04936e-08
1.04014e-08
1.03318e-08
1.02815e-08
1.02442e-08
1.02167e-08
1.01965e-08
1.01816e-08
1.01704e-08
1.01627e-08
1.0158e-08
1.01552e-08
1.01541e-08
1.01547e-08
1.0156e-08
1.01575e-08
1.01594e-08
1.01627e-08
1.01665e-08
1.01701e-08
1.01734e-08
1.01766e-08
1.01798e-08
1.01831e-08
1.01865e-08
1.01899e-08
1.01935e-08
1.01972e-08
1.01972e-08
1.01962e-08
1.01962e-08
1.01971e-08
1.01987e-08
1.02007e-08
1.02027e-08
1.02042e-08
1.02058e-08
1.02077e-08
1.02097e-08
1.02113e-08
1.02112e-08
1.02152e-08
1.02203e-08
1.0223e-08
1.02236e-08
1.02234e-08
1.02225e-08
1.02214e-08
1.02207e-08
1.02206e-08
1.02214e-08
1.02228e-08
1.02239e-08
1.02239e-08
1.02228e-08
1.02217e-08
1.02221e-08
1.02241e-08
1.02263e-08
1.02264e-08
1.02246e-08
1.0223e-08
1.02235e-08
1.02253e-08
1.02248e-08
1.02224e-08
1.02207e-08
1.02229e-08
1.02181e-08
1.02118e-08
1.02041e-08
1.02162e-08
1.02169e-08
1.02705e-08
1.03285e-08
1.04058e-08
1.03819e-08
1.43542e-08
1.37617e-08
1.40682e-08
1.48592e-08
1.61803e-08
1.84711e-08
2.21458e-08
2.79598e-08
3.66375e-08
4.80642e-08
6.16895e-08
7.62033e-08
8.99795e-08
1.01257e-07
1.08478e-07
1.13907e-07
1.19493e-07
1.1994e-07
1.1586e-07
1.09182e-07
9.58571e-08
7.80641e-08
6.22888e-08
4.9996e-08
4.0534e-08
3.37032e-08
2.93496e-08
2.66973e-08
2.50798e-08
2.41258e-08
2.34609e-08
2.27387e-08
2.18963e-08
2.10448e-08
2.01533e-08
1.92896e-08
1.84969e-08
1.79487e-08
1.77034e-08
1.76773e-08
1.77686e-08
1.77452e-08
1.74785e-08
1.69812e-08
1.64565e-08
1.61512e-08
1.60161e-08
1.5988e-08
1.59619e-08
1.58211e-08
1.55706e-08
1.52563e-08
1.49606e-08
1.47536e-08
1.46181e-08
1.45452e-08
1.45313e-08
1.45953e-08
1.47468e-08
1.49572e-08
1.51557e-08
1.52878e-08
1.53907e-08
1.55224e-08
1.56944e-08
1.58531e-08
1.59728e-08
1.60606e-08
1.61921e-08
1.65011e-08
1.70855e-08
1.80724e-08
1.95144e-08
2.13835e-08
2.35824e-08
2.59848e-08
2.85265e-08
3.13282e-08
3.45722e-08
3.84145e-08
4.31938e-08
4.91991e-08
5.6651e-08
6.53316e-08
7.66845e-08
8.56946e-08
8.55477e-08
7.50371e-08
5.94655e-08
4.83048e-08
3.82081e-08
2.83419e-08
2.11698e-08
1.71815e-08
1.55948e-08
1.62006e-08
1.85632e-08
2.23895e-08
2.64973e-08
2.88816e-08
2.92202e-08
2.7151e-08
2.45495e-08
2.11716e-08
1.78832e-08
1.53883e-08
1.36377e-08
1.25166e-08
1.178e-08
1.13363e-08
1.10202e-08
1.08322e-08
1.07466e-08
1.07497e-08
1.09116e-08
1.1137e-08
1.13599e-08
1.14807e-08
1.14667e-08
1.1352e-08
1.11896e-08
1.10262e-08
1.09082e-08
1.0821e-08
1.07225e-08
1.06832e-08
1.06029e-08
1.05388e-08
1.05217e-08
1.05086e-08
1.04987e-08
1.04959e-08
1.05043e-08
1.05009e-08
1.05004e-08
1.05062e-08
1.05114e-08
1.0516e-08
1.05248e-08
1.05335e-08
1.05401e-08
1.05469e-08
1.05542e-08
1.05621e-08
1.05701e-08
1.0578e-08
1.05854e-08
1.05929e-08
1.06015e-08
1.06106e-08
1.06187e-08
1.06251e-08
1.0631e-08
1.06378e-08
1.06457e-08
1.06534e-08
1.06595e-08
1.0665e-08
1.06707e-08
1.06766e-08
1.06819e-08
1.06863e-08
1.06906e-08
1.0695e-08
1.06986e-08
1.07007e-08
1.07023e-08
1.07049e-08
1.07072e-08
1.07071e-08
1.07049e-08
1.07034e-08
1.07035e-08
1.07033e-08
1.07e-08
1.06938e-08
1.06875e-08
1.06826e-08
1.06777e-08
1.06714e-08
1.06639e-08
1.06568e-08
1.06495e-08
1.06387e-08
1.06242e-08
1.06094e-08
1.05974e-08
1.0588e-08
1.05784e-08
1.05669e-08
1.05529e-08
1.05375e-08
1.05233e-08
1.05106e-08
1.04989e-08
1.04874e-08
1.04743e-08
1.04588e-08
1.04429e-08
1.04298e-08
1.04201e-08
1.04109e-08
1.03993e-08
1.03852e-08
1.03711e-08
1.03591e-08
1.0349e-08
1.03392e-08
1.03281e-08
1.03163e-08
1.03059e-08
1.02976e-08
1.02894e-08
1.02788e-08
1.0267e-08
1.02561e-08
1.0248e-08
1.02421e-08
1.02362e-08
1.02284e-08
1.02188e-08
1.02095e-08
1.0202e-08
1.01968e-08
1.01925e-08
1.01876e-08
1.01818e-08
1.01755e-08
1.01697e-08
1.01653e-08
1.01623e-08
1.01596e-08
1.01563e-08
1.01524e-08
1.01486e-08
1.01455e-08
1.01435e-08
1.01425e-08
1.01415e-08
1.01401e-08
1.01387e-08
1.01375e-08
1.01363e-08
1.01351e-08
1.01341e-08
1.01337e-08
1.01344e-08
1.0135e-08
1.01342e-08
1.01329e-08
1.01323e-08
1.01325e-08
1.0133e-08
1.01331e-08
1.01326e-08
1.0132e-08
1.01316e-08
1.01314e-08
1.01315e-08
1.01312e-08
1.01304e-08
1.01293e-08
1.01284e-08
1.01281e-08
1.01286e-08
1.01292e-08
1.0129e-08
1.01272e-08
1.01253e-08
1.0124e-08
1.01234e-08
1.01233e-08
1.01232e-08
1.01224e-08
1.01211e-08
1.01198e-08
1.01186e-08
1.01175e-08
1.01162e-08
1.01151e-08
1.01146e-08
1.01145e-08
1.01135e-08
1.01118e-08
1.01102e-08
1.0109e-08
1.01081e-08
1.01074e-08
1.01068e-08
1.01059e-08
1.01045e-08
1.0103e-08
1.01019e-08
1.01008e-08
1.01e-08
1.00992e-08
1.00979e-08
1.00967e-08
1.00955e-08
1.0094e-08
1.00929e-08
1.00918e-08
1.00905e-08
1.00891e-08
1.00875e-08
1.00861e-08
1.00847e-08
1.00833e-08
1.00817e-08
1.00803e-08
1.0079e-08
1.00778e-08
1.00765e-08
1.0075e-08
1.00735e-08
1.00723e-08
1.00712e-08
1.007e-08
1.0069e-08
1.0068e-08
1.00671e-08
1.00662e-08
1.00652e-08
1.00644e-08
1.00637e-08
1.00632e-08
1.00625e-08
1.00619e-08
1.00612e-08
1.00607e-08
1.00602e-08
1.00598e-08
1.00594e-08
1.00588e-08
1.00581e-08
1.00575e-08
1.00569e-08
1.00563e-08
1.00557e-08
1.00551e-08
1.00545e-08
1.00538e-08
1.00533e-08
1.00528e-08
1.00523e-08
1.00517e-08
1.00511e-08
1.00506e-08
1.00502e-08
1.00498e-08
1.00494e-08
1.0049e-08
1.00486e-08
1.00483e-08
1.0048e-08
1.00477e-08
1.00475e-08
1.00472e-08
1.00469e-08
1.00467e-08
1.00465e-08
1.00463e-08
1.0046e-08
1.00459e-08
1.00457e-08
1.00455e-08
1.00453e-08
1.00451e-08
1.00449e-08
1.00448e-08
1.00446e-08
1.00445e-08
1.00443e-08
1.00442e-08
1.00441e-08
1.00439e-08
1.00438e-08
1.00436e-08
1.00435e-08
1.00433e-08
1.00432e-08
1.0043e-08
1.00428e-08
1.00427e-08
1.00425e-08
1.00424e-08
1.00421e-08
1.0042e-08
1.00418e-08
1.00416e-08
1.00414e-08
1.00412e-08
1.0041e-08
1.00408e-08
1.00406e-08
1.00404e-08
1.00402e-08
1.004e-08
1.00398e-08
1.00396e-08
1.00393e-08
1.00391e-08
1.00389e-08
1.00387e-08
1.00384e-08
1.00383e-08
1.00379e-08
1.00377e-08
1.00377e-08
1.00373e-08
1.00371e-08
1.00369e-08
1.0037e-08
1.00373e-08
1.00373e-08
1.00376e-08
1.00375e-08
1.00364e-08
1.00369e-08
1.00376e-08
1.00381e-08
1.00385e-08
1.00374e-08
1.00371e-08
1.00369e-08
1.0037e-08
1.00379e-08
1.00388e-08
1.00391e-08
1.00397e-08
1.00402e-08
1.00391e-08
1.00376e-08
1.00365e-08
1.00347e-08
1.00355e-08
1.00352e-08
1.00351e-08
1.00352e-08
1.00353e-08
1.00349e-08
1.00348e-08
1.00348e-08
1.0035e-08
1.00355e-08
1.0036e-08
1.00361e-08
1.00363e-08
1.00365e-08
1.0036e-08
1.00353e-08
1.00346e-08
1.00342e-08
1.00339e-08
1.00336e-08
1.00333e-08
1.00337e-08
1.0034e-08
1.00348e-08
1.00385e-08
1.00419e-08
1.00435e-08
1.00483e-08
1.00492e-08
1.00488e-08
1.00501e-08
1.00547e-08
1.00615e-08
1.00707e-08
1.00779e-08
1.00771e-08
1.00689e-08
1.00586e-08
1.00498e-08
1.00434e-08
1.00391e-08
1.00362e-08
1.00342e-08
1.00327e-08
1.00316e-08
1.00307e-08
1.003e-08
1.00295e-08
1.00291e-08
1.00289e-08
1.00288e-08
1.00289e-08
1.0029e-08
1.00292e-08
1.00294e-08
1.00296e-08
1.00298e-08
1.00299e-08
1.003e-08
1.00302e-08
1.00302e-08
1.00303e-08
1.00304e-08
1.00306e-08
1.00307e-08
1.00307e-08
1.00305e-08
1.00304e-08
1.00304e-08
1.00304e-08
1.00305e-08
1.00306e-08
1.00307e-08
1.00308e-08
1.00309e-08
1.0031e-08
1.0031e-08
1.00309e-08
1.0031e-08
1.00311e-08
1.00311e-08
1.00311e-08
1.0031e-08
1.0031e-08
1.00311e-08
1.00311e-08
1.00311e-08
1.00312e-08
1.00313e-08
1.00313e-08
1.00313e-08
1.00311e-08
1.0031e-08
1.0031e-08
1.0031e-08
1.00311e-08
1.00312e-08
1.00312e-08
1.00312e-08
1.00312e-08
1.00312e-08
1.00312e-08
1.00311e-08
1.00311e-08
1.0031e-08
1.00309e-08
1.00308e-08
1.00309e-08
1.00307e-08
1.00313e-08
1.00317e-08
1.0033e-08
1.00348e-08
1.00369e-08
1.00352e-08
1.16096e-08
1.1484e-08
1.15926e-08
1.18299e-08
1.23773e-08
1.32804e-08
1.47296e-08
1.69384e-08
1.99924e-08
2.36627e-08
2.78153e-08
3.24604e-08
3.78058e-08
4.4213e-08
5.13001e-08
5.70313e-08
5.97222e-08
5.98522e-08
5.66623e-08
5.02758e-08
4.15233e-08
3.32006e-08
2.70777e-08
2.27503e-08
1.963e-08
1.74669e-08
1.60742e-08
1.52312e-08
1.476e-08
1.45008e-08
1.43251e-08
1.41176e-08
1.38291e-08
1.34842e-08
1.31225e-08
1.28012e-08
1.25578e-08
1.23895e-08
1.22816e-08
1.22143e-08
1.21679e-08
1.21311e-08
1.20791e-08
1.19802e-08
1.18622e-08
1.17811e-08
1.17322e-08
1.17e-08
1.16754e-08
1.16501e-08
1.15962e-08
1.15161e-08
1.14235e-08
1.13456e-08
1.12856e-08
1.12411e-08
1.12185e-08
1.12181e-08
1.12375e-08
1.12677e-08
1.13053e-08
1.13536e-08
1.14208e-08
1.15111e-08
1.16163e-08
1.17164e-08
1.17977e-08
1.1862e-08
1.19251e-08
1.20168e-08
1.21746e-08
1.24308e-08
1.28079e-08
1.3325e-08
1.40078e-08
1.48925e-08
1.60271e-08
1.75004e-08
1.94173e-08
2.18825e-08
2.49716e-08
2.8679e-08
3.28827e-08
3.74223e-08
4.19205e-08
4.60076e-08
4.89344e-08
5.07595e-08
4.97012e-08
4.56066e-08
3.79909e-08
3.00328e-08
2.48233e-08
2.05869e-08
1.70288e-08
1.49416e-08
1.39914e-08
1.39005e-08
1.46456e-08
1.57654e-08
1.66297e-08
1.69745e-08
1.66229e-08
1.56961e-08
1.45369e-08
1.35433e-08
1.27797e-08
1.22135e-08
1.17989e-08
1.14939e-08
1.12029e-08
1.0928e-08
1.06846e-08
1.05001e-08
1.03629e-08
1.02768e-08
1.023e-08
1.02143e-08
1.02141e-08
1.02179e-08
1.02177e-08
1.02119e-08
1.02038e-08
1.01958e-08
1.01878e-08
1.01801e-08
1.01681e-08
1.01514e-08
1.01405e-08
1.01278e-08
1.01174e-08
1.0112e-08
1.01074e-08
1.01046e-08
1.01034e-08
1.01031e-08
1.0103e-08
1.01032e-08
1.01039e-08
1.01044e-08
1.01049e-08
1.01055e-08
1.01062e-08
1.01069e-08
1.01077e-08
1.01084e-08
1.01092e-08
1.01101e-08
1.01111e-08
1.0112e-08
1.01128e-08
1.01135e-08
1.01143e-08
1.01152e-08
1.01162e-08
1.01171e-08
1.01179e-08
1.01186e-08
1.01194e-08
1.01203e-08
1.0121e-08
1.01216e-08
1.01222e-08
1.01227e-08
1.0123e-08
1.01232e-08
1.01234e-08
1.01236e-08
1.01238e-08
1.01236e-08
1.01231e-08
1.01227e-08
1.01224e-08
1.01221e-08
1.01214e-08
1.01204e-08
1.01192e-08
1.01182e-08
1.01171e-08
1.01159e-08
1.01147e-08
1.01134e-08
1.0112e-08
1.01101e-08
1.01079e-08
1.01057e-08
1.01037e-08
1.01021e-08
1.01005e-08
1.00988e-08
1.00968e-08
1.00946e-08
1.00925e-08
1.00905e-08
1.00887e-08
1.0087e-08
1.00853e-08
1.00834e-08
1.00814e-08
1.00796e-08
1.00782e-08
1.00769e-08
1.00754e-08
1.00738e-08
1.00722e-08
1.00708e-08
1.00695e-08
1.00682e-08
1.0067e-08
1.00657e-08
1.00645e-08
1.00635e-08
1.00625e-08
1.00614e-08
1.00602e-08
1.00591e-08
1.00582e-08
1.00575e-08
1.00568e-08
1.0056e-08
1.00551e-08
1.00543e-08
1.00536e-08
1.0053e-08
1.00524e-08
1.00519e-08
1.00514e-08
1.00508e-08
1.00503e-08
1.00499e-08
1.00495e-08
1.00492e-08
1.00489e-08
1.00486e-08
1.00482e-08
1.00479e-08
1.00477e-08
1.00475e-08
1.00473e-08
1.00472e-08
1.0047e-08
1.00468e-08
1.00466e-08
1.00464e-08
1.00463e-08
1.00462e-08
1.00461e-08
1.0046e-08
1.00459e-08
1.00458e-08
1.00457e-08
1.00456e-08
1.00456e-08
1.00456e-08
1.00455e-08
1.00454e-08
1.00453e-08
1.00453e-08
1.00453e-08
1.00452e-08
1.00451e-08
1.0045e-08
1.00449e-08
1.00448e-08
1.00448e-08
1.00448e-08
1.00447e-08
1.00446e-08
1.00444e-08
1.00443e-08
1.00442e-08
1.00441e-08
1.0044e-08
1.00439e-08
1.00438e-08
1.00437e-08
1.00436e-08
1.00435e-08
1.00433e-08
1.00432e-08
1.00431e-08
1.0043e-08
1.00429e-08
1.00428e-08
1.00426e-08
1.00425e-08
1.00424e-08
1.00423e-08
1.00422e-08
1.00421e-08
1.0042e-08
1.00418e-08
1.00417e-08
1.00416e-08
1.00414e-08
1.00413e-08
1.00411e-08
1.0041e-08
1.00409e-08
1.00407e-08
1.00405e-08
1.00404e-08
1.00403e-08
1.00401e-08
1.004e-08
1.00398e-08
1.00396e-08
1.00395e-08
1.00393e-08
1.00392e-08
1.0039e-08
1.00388e-08
1.00387e-08
1.00385e-08
1.00384e-08
1.00382e-08
1.00381e-08
1.00379e-08
1.00378e-08
1.00377e-08
1.00375e-08
1.00374e-08
1.00372e-08
1.00371e-08
1.0037e-08
1.00369e-08
1.00367e-08
1.00366e-08
1.00365e-08
1.00364e-08
1.00362e-08
1.00361e-08
1.0036e-08
1.00359e-08
1.00357e-08
1.00357e-08
1.00355e-08
1.00354e-08
1.00353e-08
1.00352e-08
1.00351e-08
1.0035e-08
1.00349e-08
1.00348e-08
1.00347e-08
1.00346e-08
1.00345e-08
1.00343e-08
1.00343e-08
1.00342e-08
1.00341e-08
1.0034e-08
1.00339e-08
1.00338e-08
1.00337e-08
1.00336e-08
1.00335e-08
1.00334e-08
1.00333e-08
1.00333e-08
1.00332e-08
1.00332e-08
1.00331e-08
1.0033e-08
1.00329e-08
1.00329e-08
1.00328e-08
1.00327e-08
1.00327e-08
1.00326e-08
1.00325e-08
1.00324e-08
1.00323e-08
1.00322e-08
1.00322e-08
1.00321e-08
1.0032e-08
1.00319e-08
1.00318e-08
1.00318e-08
1.00317e-08
1.00316e-08
1.00315e-08
1.00314e-08
1.00314e-08
1.00313e-08
1.00312e-08
1.00311e-08
1.0031e-08
1.0031e-08
1.00309e-08
1.00308e-08
1.00307e-08
1.00307e-08
1.00306e-08
1.00306e-08
1.00305e-08
1.00304e-08
1.00304e-08
1.00303e-08
1.00301e-08
1.00301e-08
1.00301e-08
1.00299e-08
1.00299e-08
1.00298e-08
1.00296e-08
1.00295e-08
1.00297e-08
1.00297e-08
1.00298e-08
1.00297e-08
1.00299e-08
1.00299e-08
1.00296e-08
1.00302e-08
1.00303e-08
1.00303e-08
1.00304e-08
1.00303e-08
1.00302e-08
1.00301e-08
1.00301e-08
1.00301e-08
1.00301e-08
1.003e-08
1.00299e-08
1.00299e-08
1.00296e-08
1.00286e-08
1.00291e-08
1.00294e-08
1.00294e-08
1.00294e-08
1.00293e-08
1.00293e-08
1.00292e-08
1.00292e-08
1.00292e-08
1.00293e-08
1.00291e-08
1.00289e-08
1.00288e-08
1.00288e-08
1.00287e-08
1.00286e-08
1.00285e-08
1.00283e-08
1.00282e-08
1.00281e-08
1.00282e-08
1.00282e-08
1.00287e-08
1.00286e-08
1.0028e-08
1.00286e-08
1.00294e-08
1.00322e-08
1.00347e-08
1.00383e-08
1.00401e-08
1.0039e-08
1.0037e-08
1.00354e-08
1.00342e-08
1.00333e-08
1.00327e-08
1.00321e-08
1.00316e-08
1.00312e-08
1.00307e-08
1.003e-08
1.00291e-08
1.00283e-08
1.00276e-08
1.0027e-08
1.00264e-08
1.00259e-08
1.00255e-08
1.00251e-08
1.00247e-08
1.00244e-08
1.00242e-08
1.00239e-08
1.00238e-08
1.00237e-08
1.00237e-08
1.00237e-08
1.00237e-08
1.00237e-08
1.00237e-08
1.00237e-08
1.00238e-08
1.00238e-08
1.00239e-08
1.0024e-08
1.00242e-08
1.00243e-08
1.00243e-08
1.00244e-08
1.00244e-08
1.00243e-08
1.00243e-08
1.00242e-08
1.00242e-08
1.00242e-08
1.00243e-08
1.00244e-08
1.00244e-08
1.00245e-08
1.00246e-08
1.00246e-08
1.00246e-08
1.00245e-08
1.00246e-08
1.00245e-08
1.00245e-08
1.00243e-08
1.00242e-08
1.00242e-08
1.00242e-08
1.00242e-08
1.00243e-08
1.00243e-08
1.00242e-08
1.00241e-08
1.00239e-08
1.00238e-08
1.00238e-08
1.00238e-08
1.00238e-08
1.00238e-08
1.00238e-08
1.00238e-08
1.00238e-08
1.00239e-08
1.00239e-08
1.00238e-08
1.00238e-08
1.00237e-08
1.00236e-08
1.00236e-08
1.00236e-08
1.00235e-08
1.00238e-08
1.0024e-08
1.00247e-08
1.00257e-08
1.00267e-08
1.00255e-08
1.06526e-08
1.07126e-08
1.0743e-08
1.08158e-08
1.09484e-08
1.11726e-08
1.15225e-08
1.20222e-08
1.2705e-08
1.3661e-08
1.47162e-08
1.57681e-08
1.69787e-08
1.8622e-08
2.07426e-08
2.27613e-08
2.39498e-08
2.38769e-08
2.26581e-08
2.06763e-08
1.81918e-08
1.60666e-08
1.45848e-08
1.3557e-08
1.28226e-08
1.23017e-08
1.19452e-08
1.17266e-08
1.16026e-08
1.15304e-08
1.14746e-08
1.14066e-08
1.13116e-08
1.11959e-08
1.10836e-08
1.09959e-08
1.09321e-08
1.08825e-08
1.08418e-08
1.08075e-08
1.07773e-08
1.07492e-08
1.07263e-08
1.07026e-08
1.06782e-08
1.06568e-08
1.0639e-08
1.06238e-08
1.06101e-08
1.05947e-08
1.05755e-08
1.05529e-08
1.05258e-08
1.04992e-08
1.04761e-08
1.04582e-08
1.04462e-08
1.04412e-08
1.04422e-08
1.04479e-08
1.04584e-08
1.04744e-08
1.0497e-08
1.05265e-08
1.05614e-08
1.0598e-08
1.0633e-08
1.06654e-08
1.06975e-08
1.07361e-08
1.07912e-08
1.08712e-08
1.09817e-08
1.1129e-08
1.13246e-08
1.15857e-08
1.1939e-08
1.24313e-08
1.31354e-08
1.41473e-08
1.55576e-08
1.73975e-08
1.96073e-08
2.20143e-08
2.43783e-08
2.64067e-08
2.80007e-08
2.90792e-08
2.9615e-08
2.96068e-08
2.87657e-08
2.75936e-08
2.52131e-08
2.19015e-08
1.86024e-08
1.6358e-08
1.46593e-08
1.34182e-08
1.27181e-08
1.23859e-08
1.22703e-08
1.22956e-08
1.23315e-08
1.22328e-08
1.20331e-08
1.17754e-08
1.14982e-08
1.12871e-08
1.11296e-08
1.10503e-08
1.10029e-08
1.09708e-08
1.09254e-08
1.08323e-08
1.06982e-08
1.0545e-08
1.04124e-08
1.02989e-08
1.02146e-08
1.01588e-08
1.01269e-08
1.01091e-08
1.01002e-08
1.00968e-08
1.00958e-08
1.00964e-08
1.0099e-08
1.01023e-08
1.01044e-08
1.01027e-08
1.00973e-08
1.00914e-08
1.00854e-08
1.00799e-08
1.00754e-08
1.0072e-08
1.00694e-08
1.00672e-08
1.00654e-08
1.00641e-08
1.00632e-08
1.00627e-08
1.00623e-08
1.00621e-08
1.00619e-08
1.00618e-08
1.00617e-08
1.00617e-08
1.00617e-08
1.00618e-08
1.00618e-08
1.00618e-08
1.00619e-08
1.0062e-08
1.00621e-08
1.00622e-08
1.00623e-08
1.00623e-08
1.00624e-08
1.00625e-08
1.00626e-08
1.00626e-08
1.00626e-08
1.00626e-08
1.00626e-08
1.00626e-08
1.00625e-08
1.00624e-08
1.00623e-08
1.00622e-08
1.0062e-08
1.00618e-08
1.00616e-08
1.00614e-08
1.00612e-08
1.00609e-08
1.00606e-08
1.00604e-08
1.00601e-08
1.00598e-08
1.00595e-08
1.00592e-08
1.00589e-08
1.00585e-08
1.00581e-08
1.00577e-08
1.00573e-08
1.00569e-08
1.00566e-08
1.00562e-08
1.00559e-08
1.00555e-08
1.00551e-08
1.00547e-08
1.00543e-08
1.00539e-08
1.00535e-08
1.00532e-08
1.00528e-08
1.00525e-08
1.00521e-08
1.00518e-08
1.00515e-08
1.00512e-08
1.00509e-08
1.00505e-08
1.00502e-08
1.00499e-08
1.00496e-08
1.00493e-08
1.0049e-08
1.00487e-08
1.00485e-08
1.00482e-08
1.00479e-08
1.00477e-08
1.00474e-08
1.00471e-08
1.00469e-08
1.00466e-08
1.00464e-08
1.00462e-08
1.0046e-08
1.00457e-08
1.00455e-08
1.00453e-08
1.00451e-08
1.00449e-08
1.00448e-08
1.00446e-08
1.00444e-08
1.00443e-08
1.00441e-08
1.00439e-08
1.00438e-08
1.00437e-08
1.00436e-08
1.00434e-08
1.00433e-08
1.00432e-08
1.00431e-08
1.0043e-08
1.00428e-08
1.00427e-08
1.00426e-08
1.00425e-08
1.00424e-08
1.00423e-08
1.00422e-08
1.00421e-08
1.0042e-08