/*--------------------------------*- C++ -*----------------------------------*\
| =========                 |                                                 |
| \\      /  F ield         | OpenFOAM: The Open Source CFD Toolbox           |
|  \\    /   O peration     | Version:  v2006                                 |
|   \\  /    A nd           | Website:  www.openfoam.com                      |
|    \\/     M anipulation  |                                                 |
\*---------------------------------------------------------------------------*/
FoamFile
{
    version     2.0;
    format      ascii;
    class       volScalarField;
    location    "6";
    object      nut;
}
// * * * * * * * * * * * * * * * * * * * * * * * * * * * * * * * * * * * * * //

dimensions      [0 2 -1 0 0 0 0];


internalField   nonuniform List<scalar> 
33000
(
1.25443e-09
1.57101e-09
1.6011e-09
1.81072e-09
2.11682e-09
2.4442e-09
3.03238e-09
3.51797e-09
4.00472e-09
4.45301e-09
5.11861e-09
6.16087e-09
7.99567e-09
1.01666e-08
9.89519e-09
8.48235e-09
7.87811e-09
8.46594e-09
9.48301e-09
9.46625e-09
9.47871e-09
1.08061e-08
1.27142e-08
1.3194e-08
1.28982e-08
1.27168e-08
1.27646e-08
1.26728e-08
1.24543e-08
1.21919e-08
1.18282e-08
1.15498e-08
1.13349e-08
1.10918e-08
1.07507e-08
1.03657e-08
1.01334e-08
1.00923e-08
1.01285e-08
1.02236e-08
1.01389e-08
9.88855e-09
9.62203e-09
9.40457e-09
9.28995e-09
9.25831e-09
9.31384e-09
9.30444e-09
9.18564e-09
9.01862e-09
8.82867e-09
8.66311e-09
8.54202e-09
8.45064e-09
8.35243e-09
8.28805e-09
8.33927e-09
8.51584e-09
8.74186e-09
8.89432e-09
8.90818e-09
8.834e-09
8.72502e-09
8.68502e-09
8.67514e-09
8.51258e-09
8.186e-09
7.78546e-09
7.42333e-09
7.1478e-09
6.91298e-09
6.72402e-09
6.54939e-09
6.37035e-09
6.2085e-09
6.06222e-09
6.18723e-09
7.03968e-09
9.89022e-09
1.25361e-08
1.33294e-08
1.43823e-08
1.49788e-08
1.86637e-08
1.93372e-08
1.84127e-08
1.82037e-08
1.81e-08
1.71079e-08
1.63356e-08
1.61966e-08
1.59969e-08
1.55727e-08
1.52537e-08
1.45998e-08
1.38326e-08
1.29732e-08
1.27437e-08
1.34671e-08
1.6786e-08
1.74562e-08
1.64357e-08
1.59022e-08
1.61764e-08
1.77922e-08
1.85142e-08
1.88868e-08
1.847e-08
1.77076e-08
1.666e-08
1.62793e-08
1.62095e-08
1.5924e-08
1.55559e-08
1.50167e-08
1.47072e-08
1.52284e-08
1.82941e-08
1.90658e-08
1.82175e-08
1.7761e-08
1.78652e-08
1.87938e-08
1.88772e-08
1.90449e-08
1.86202e-08
1.81242e-08
1.80378e-08
1.80309e-08
1.79456e-08
1.79155e-08
1.7769e-08
1.76441e-08
1.7572e-08
1.74987e-08
1.74302e-08
1.73689e-08
1.73032e-08
1.72431e-08
1.71763e-08
1.71338e-08
1.70941e-08
1.70625e-08
1.70316e-08
1.70064e-08
1.69806e-08
1.69581e-08
1.69481e-08
1.6952e-08
1.69688e-08
1.69901e-08
1.70051e-08
1.70272e-08
1.70688e-08
1.71229e-08
1.71861e-08
1.72541e-08
1.73267e-08
1.74105e-08
1.75042e-08
1.76061e-08
1.77165e-08
1.78395e-08
1.79809e-08
1.8135e-08
1.82861e-08
1.84488e-08
1.86427e-08
1.88586e-08
1.90713e-08
1.92797e-08
1.95162e-08
1.97986e-08
2.01087e-08
2.04246e-08
2.07394e-08
2.10953e-08
2.15233e-08
2.19957e-08
2.24999e-08
2.30491e-08
2.36879e-08
2.44117e-08
2.51719e-08
2.59947e-08
2.69359e-08
2.80609e-08
2.93663e-08
3.08019e-08
3.23977e-08
3.4186e-08
3.62434e-08
3.86509e-08
4.1559e-08
4.50152e-08
4.89843e-08
5.37215e-08
5.9365e-08
6.62528e-08
7.50362e-08
8.6639e-08
1.01876e-07
1.20712e-07
1.40035e-07
1.40644e-07
1.41344e-07
1.42127e-07
1.42897e-07
1.43586e-07
1.33292e-07
1.15485e-07
1.01236e-07
9.0348e-08
8.18161e-08
7.45682e-08
6.82726e-08
6.2966e-08
5.84948e-08
5.4799e-08
5.1668e-08
4.88533e-08
4.62629e-08
4.38956e-08
4.1777e-08
3.9892e-08
3.82328e-08
3.67229e-08
3.53185e-08
3.40187e-08
3.28107e-08
3.16974e-08
3.06985e-08
2.97968e-08
2.89469e-08
2.81426e-08
2.73911e-08
2.66865e-08
2.6033e-08
2.54309e-08
2.48666e-08
2.43323e-08
2.38325e-08
2.33662e-08
2.29251e-08
2.25013e-08
2.20985e-08
2.17179e-08
2.13693e-08
2.10509e-08
2.07391e-08
2.04343e-08
2.01495e-08
1.98846e-08
1.96384e-08
1.94085e-08
1.91884e-08
1.89793e-08
1.87815e-08
1.85959e-08
1.84245e-08
1.82658e-08
1.81163e-08
1.79735e-08
1.78374e-08
1.77119e-08
1.76008e-08
1.75056e-08
1.74188e-08
1.73306e-08
1.72472e-08
1.71748e-08
1.71125e-08
1.70629e-08
1.70247e-08
1.69893e-08
1.69568e-08
1.69325e-08
1.69163e-08
1.6907e-08
1.69023e-08
1.69022e-08
1.69158e-08
1.69423e-08
1.69685e-08
1.69946e-08
1.70275e-08
1.70694e-08
1.71184e-08
1.71756e-08
1.72418e-08
1.73112e-08
1.73813e-08
1.74558e-08
1.75364e-08
1.76231e-08
1.77211e-08
1.78223e-08
1.79226e-08
1.80276e-08
1.81338e-08
1.82416e-08
1.83589e-08
1.84759e-08
1.85849e-08
1.86821e-08
1.87654e-08
1.88609e-08
1.89728e-08
1.91066e-08
1.92567e-08
1.94344e-08
1.965e-08
1.99029e-08
2.0182e-08
2.0483e-08
2.08226e-08
2.12158e-08
2.16536e-08
2.21347e-08
2.26688e-08
2.32574e-08
2.39258e-08
2.46813e-08
2.55157e-08
2.64412e-08
2.74892e-08
2.86957e-08
3.00719e-08
3.16045e-08
3.33195e-08
3.52594e-08
3.75211e-08
4.01928e-08
4.32872e-08
4.68544e-08
5.09887e-08
5.29057e-08
5.30218e-08
5.31354e-08
5.32426e-08
5.33451e-08
5.34462e-08
5.35484e-08
5.3654e-08
5.37607e-08
5.38636e-08
5.39626e-08
5.40565e-08
5.41338e-08
5.41843e-08
5.42043e-08
5.41925e-08
5.41506e-08
5.40828e-08
5.39889e-08
5.38673e-08
5.37206e-08
5.35511e-08
5.3359e-08
5.31451e-08
5.2911e-08
5.26582e-08
5.23874e-08
5.2101e-08
5.17993e-08
5.14838e-08
5.11545e-08
5.08134e-08
5.04617e-08
4.94488e-08
4.82516e-08
4.71772e-08
4.6235e-08
4.54192e-08
4.47034e-08
4.40671e-08
4.35212e-08
4.30591e-08
4.26824e-08
4.23557e-08
4.21039e-08
4.19257e-08
4.18383e-08
4.18148e-08
4.18601e-08
4.19664e-08
4.2144e-08
4.23719e-08
4.24592e-08
4.20628e-08
4.16712e-08
4.12817e-08
4.0897e-08
4.05167e-08
4.01422e-08
3.97714e-08
3.94072e-08
3.9047e-08
3.86919e-08
3.83395e-08
3.79932e-08
3.76506e-08
3.73167e-08
3.69857e-08
3.6662e-08
3.63435e-08
3.60284e-08
3.57261e-08
3.54247e-08
3.51408e-08
3.48529e-08
3.45795e-08
3.43024e-08
3.4028e-08
3.37695e-08
3.3508e-08
3.32464e-08
3.29994e-08
3.27136e-08
3.24179e-08
3.2206e-08
3.19279e-08
3.17041e-08
3.15261e-08
3.09903e-08
3.05533e-08
3.05401e-08
2.9933e-08
3.01852e-08
2.99127e-08
3.14717e-08
3.21629e-08
3.28885e-08
3.31282e-08
3.33553e-08
3.33215e-08
3.33227e-08
3.32157e-08
3.31642e-08
3.303e-08
3.29055e-08
3.28021e-08
3.24592e-08
2.97904e-08
2.83958e-08
2.80455e-08
2.86604e-08
2.53409e-08
1.99417e-08
1.85822e-08
1.82371e-08
1.79072e-08
1.76581e-08
1.73536e-08
1.70541e-08
1.6684e-08
1.63226e-08
1.58926e-08
1.53078e-08
1.54218e-08
1.58191e-08
1.57097e-08
1.57709e-08
1.44545e-08
1.24064e-08
1.1962e-08
1.10729e-08
1.1118e-08
9.52342e-09
7.9688e-09
7.72403e-09
8.07119e-09
8.54433e-09
8.86166e-09
9.063e-09
9.17648e-09
9.23443e-09
9.25861e-09
9.25872e-09
9.23597e-09
9.19976e-09
9.16435e-09
9.12353e-09
9.07751e-09
9.03528e-09
8.98941e-09
8.94155e-09
8.89798e-09
8.85744e-09
8.81237e-09
8.76547e-09
8.72484e-09
8.68708e-09
8.64891e-09
8.61006e-09
8.57145e-09
8.53441e-09
8.49793e-09
8.46232e-09
8.42589e-09
8.39291e-09
8.36168e-09
8.32562e-09
8.28727e-09
8.2496e-09
8.21249e-09
8.17626e-09
8.14113e-09
8.10634e-09
8.07153e-09
8.03727e-09
8.00359e-09
7.97271e-09
7.94023e-09
7.90593e-09
7.87664e-09
7.84987e-09
7.82239e-09
7.79443e-09
7.76625e-09
7.73753e-09
7.70854e-09
7.67952e-09
7.65079e-09
7.62273e-09
7.59549e-09
7.56891e-09
7.5423e-09
7.51524e-09
7.48831e-09
7.46206e-09
7.43734e-09
7.41429e-09
7.39142e-09
7.36757e-09
7.34347e-09
7.321e-09
7.30029e-09
7.27963e-09
7.25645e-09
7.23547e-09
7.21781e-09
7.19469e-09
7.17288e-09
7.14039e-09
7.14839e-09
7.02234e-09
7.27995e-09
6.56432e-09
7.48824e-09
7.59865e-09
4.20023e-09
1.38989e-08
1.01955e-08
1.36886e-08
1.9241e-08
2.8331e-08
2.84467e-08
2.84467e-08
3.19006e-08
3.84448e-08
4.97486e-08
6.59254e-08
8.59174e-08
9.95595e-08
1.00554e-07
8.56329e-08
8.24013e-08
9.63876e-08
1.07544e-07
1.08262e-07
1.10671e-07
8.6388e-08
6.77553e-08
5.49244e-08
4.41923e-08
4.17384e-08
4.16675e-08
4.087e-08
3.70649e-08
3.09965e-08
2.71883e-08
2.81258e-08
3.26428e-08
4.12124e-08
4.30561e-08
4.54157e-08
5.3536e-08
4.62685e-08
4.7446e-08
5.20584e-08
4.66049e-08
3.91023e-08
4.57567e-08
8.1334e-08
7.78743e-08
6.55427e-08
5.91674e-08
4.88776e-08
4.23708e-08
4.04631e-08
4.96769e-08
9.17148e-08
9.08013e-08
6.47029e-08
5.14176e-08
5.51682e-08
7.98796e-08
9.11403e-08
9.13641e-08
6.55107e-08
3.76579e-08
3.95931e-08
6.11858e-08
8.4572e-08
8.15914e-08
7.75624e-08
3.43926e-08
2.53199e-08
2.14501e-08
1.97004e-08
2.25622e-08
2.74372e-08
3.00703e-08
3.03165e-08
2.88188e-08
2.5213e-08
2.61058e-08
2.81709e-08
3.29711e-08
3.48463e-08
4.32259e-08
8.10011e-08
9.08352e-08
8.82896e-08
8.80235e-08
8.75794e-08
8.70172e-08
7.95323e-08
6.71312e-08
6.1529e-08
6.59617e-08
5.53671e-08
5.16482e-08
4.98724e-08
3.42623e-08
4.15387e-08
4.63355e-08
6.67566e-08
6.20549e-08
4.76622e-08
3.50577e-08
3.50439e-08
4.00906e-08
2.39268e-08
1.95633e-08
1.73518e-08
3.25294e-08
2.00289e-08
2.56914e-08
7.13435e-08
1.21856e-07
3.98518e-08
2.77266e-08
2.66479e-08
2.08974e-08
2.41086e-08
1.95974e-08
1.21028e-08
8.10705e-09
1.06042e-08
2.48548e-08
2.44626e-08
2.85971e-08
3.09993e-08
3.04099e-08
4.00105e-08
8.98629e-08
1.31118e-07
1.00893e-07
9.66031e-08
8.42425e-08
1.09236e-07
1.4509e-07
1.44686e-07
1.44188e-07
1.43673e-07
1.43152e-07
1.42645e-07
1.42215e-07
1.41868e-07
1.41593e-07
1.41377e-07
1.4117e-07
1.4099e-07
1.40861e-07
1.40735e-07
1.40548e-07
1.40308e-07
1.40071e-07
1.3988e-07
1.39737e-07
1.34949e-07
1.24006e-07
1.17798e-07
1.10145e-07
9.98206e-08
8.94548e-08
8.3104e-08
7.98159e-08
7.68803e-08
7.27237e-08
6.83041e-08
6.51201e-08
6.29619e-08
5.98903e-08
5.6331e-08
5.40367e-08
5.29299e-08
5.13176e-08
4.88208e-08
4.63048e-08
4.45785e-08
4.36428e-08
4.22772e-08
4.05592e-08
3.89726e-08
3.74939e-08
3.62282e-08
3.48616e-08
3.34311e-08
3.26414e-08
3.20229e-08
3.10068e-08
2.99241e-08
2.8689e-08
2.75302e-08
2.67264e-08
2.6061e-08
2.56802e-08
2.54161e-08
2.48544e-08
2.41984e-08
2.35332e-08
2.30321e-08
2.28459e-08
2.28837e-08
2.28301e-08
2.25292e-08
2.22166e-08
2.22771e-08
2.26328e-08
2.28622e-08
2.29529e-08
2.30852e-08
2.34412e-08
2.39633e-08
2.45184e-08
2.49502e-08
2.52909e-08
2.57076e-08
2.63833e-08
2.72158e-08
2.77005e-08
2.79322e-08
2.82513e-08
2.87571e-08
2.93839e-08
3.01763e-08
3.09563e-08
3.15164e-08
3.18213e-08
3.22086e-08
3.28681e-08
3.365e-08
3.45421e-08
3.54167e-08
3.61556e-08
3.67758e-08
3.74761e-08
3.83932e-08
3.95674e-08
4.08387e-08
4.19136e-08
4.28087e-08
4.38058e-08
4.50714e-08
4.67144e-08
4.87016e-08
5.08004e-08
5.27388e-08
5.46124e-08
5.6537e-08
5.88592e-08
6.17557e-08
6.49836e-08
6.86387e-08
7.30785e-08
7.75716e-08
8.19314e-08
8.69566e-08
9.39638e-08
1.02934e-07
1.12647e-07
1.22684e-07
1.35032e-07
1.51937e-07
1.75168e-07
2.09498e-07
2.35225e-07
2.35103e-07
2.35324e-07
2.35592e-07
2.35388e-07
2.34623e-07
2.33757e-07
2.33482e-07
2.34296e-07
2.35321e-07
2.07443e-07
1.76868e-07
1.53933e-07
1.37571e-07
1.24773e-07
1.13687e-07
1.04188e-07
9.67858e-08
9.07395e-08
8.55288e-08
8.09351e-08
7.62713e-08
7.19803e-08
6.88136e-08
6.63232e-08
6.38251e-08
6.12962e-08
5.90435e-08
5.72496e-08
5.55913e-08
5.40141e-08
5.26283e-08
5.12771e-08
4.99642e-08
4.89643e-08
4.81273e-08
4.73091e-08
4.64828e-08
4.54721e-08
4.4668e-08
4.429e-08
4.40212e-08
4.36016e-08
4.29247e-08
4.23131e-08
4.22727e-08
4.23065e-08
4.20494e-08
4.16934e-08
4.16296e-08
4.1785e-08
4.19392e-08
4.20185e-08
4.19047e-08
4.20794e-08
4.25561e-08
4.29892e-08
4.33167e-08
4.34695e-08
4.36055e-08
4.39907e-08
4.45038e-08
4.49212e-08
4.5168e-08
4.52627e-08
4.52482e-08
4.5352e-08
4.5523e-08
4.56065e-08
4.5593e-08
4.54317e-08
4.53302e-08
4.53028e-08
4.52673e-08
4.53778e-08
4.55743e-08
4.5802e-08
4.61935e-08
4.67289e-08
4.72638e-08
4.77849e-08
4.84191e-08
4.93265e-08
5.03466e-08
5.13661e-08
5.27476e-08
5.42818e-08
5.57977e-08
5.74896e-08
5.93671e-08
6.14633e-08
6.37161e-08
6.61069e-08
6.87393e-08
7.16658e-08
7.47564e-08
7.79201e-08
8.14101e-08
8.56105e-08
9.03792e-08
9.54927e-08
1.01028e-07
1.07189e-07
1.14456e-07
1.22699e-07
1.32099e-07
1.42825e-07
1.55081e-07
1.69871e-07
1.87631e-07
2.09255e-07
2.35736e-07
2.68643e-07
3.13085e-07
3.5752e-07
3.57725e-07
3.57963e-07
3.58119e-07
3.58168e-07
3.58127e-07
3.58226e-07
3.58668e-07
3.59295e-07
3.59867e-07
3.6026e-07
3.28207e-07
2.93274e-07
2.63679e-07
2.40236e-07
2.22411e-07
2.08394e-07
1.95045e-07
1.83629e-07
1.75082e-07
1.68554e-07
1.62301e-07
1.56091e-07
1.50963e-07
1.46494e-07
1.42956e-07
1.41199e-07
1.3803e-07
1.35856e-07
1.3347e-07
1.31877e-07
1.29132e-07
1.2944e-07
1.27397e-07
1.28612e-07
1.27159e-07
1.23399e-07
1.23333e-07
1.19478e-07
1.23694e-07
1.22761e-07
1.34355e-07
1.40402e-07
1.23156e-07
1.20246e-07
1.17816e-07
1.16674e-07
2.46409e-07
4.00248e-07
9.60886e-08
8.11572e-08
5.81397e-08
5.55452e-08
3.21578e-08
2.66416e-08
3.56074e-08
5.35034e-08
7.32827e-08
6.42914e-08
8.53118e-08
8.0186e-08
9.16986e-08
9.21182e-08
9.87617e-08
1.06824e-07
3.13492e-07
4.27061e-07
7.94622e-08
6.10637e-08
4.30962e-08
4.09436e-08
2.31173e-08
1.88785e-08
2.44448e-08
3.52426e-08
4.49649e-08
4.26748e-08
5.88812e-08
7.05848e-08
1.14641e-07
1.08388e-07
9.92026e-08
8.38773e-08
1.01313e-07
8.49668e-08
2.01047e-07
8.16339e-08
9.07504e-08
3.43258e-08
2.41371e-08
1.55472e-08
1.07743e-08
7.01962e-09
6.86082e-09
8.08302e-09
9.81416e-09
1.23435e-08
1.3618e-08
1.63447e-08
2.06288e-08
2.6551e-08
3.2934e-08
3.8796e-08
4.43878e-08
5.05974e-08
5.68287e-08
6.30109e-08
6.96899e-08
7.75008e-08
8.5002e-08
9.22918e-08
1.00827e-07
1.08797e-07
1.16686e-07
1.25733e-07
1.35724e-07
1.44511e-07
1.53683e-07
1.66074e-07
1.79268e-07
1.91238e-07
2.04353e-07
2.17633e-07
2.30879e-07
2.4374e-07
2.61378e-07
2.75513e-07
2.93151e-07
3.15622e-07
3.28106e-07
3.38235e-07
3.54436e-07
3.74917e-07
3.91736e-07
3.90678e-07
3.89812e-07
3.88898e-07
3.87768e-07
3.86472e-07
3.85219e-07
3.84966e-07
3.82611e-07
3.79589e-07
3.77921e-07
3.77557e-07
3.77759e-07
3.78391e-07
3.79104e-07
3.79549e-07
3.79448e-07
3.78648e-07
3.77407e-07
3.76343e-07
3.76079e-07
3.76633e-07
3.77059e-07
3.76351e-07
3.74306e-07
3.71915e-07
3.7101e-07
3.71909e-07
3.72907e-07
3.72199e-07
3.70346e-07
3.70016e-07
3.71596e-07
3.73098e-07
3.7204e-07
3.7401e-07
3.77599e-07
3.80821e-07
3.78472e-07
1.6642e-07
6.63714e-08
3.75302e-08
2.43545e-08
4.27491e-08
9.30846e-09
3.83942e-09
1.31901e-08
1.7829e-08
2.77046e-08
4.05329e-08
5.91827e-08
6.44064e-08
5.71839e-08
7.27681e-08
9.98746e-08
1.03469e-07
1.06228e-07
1.07946e-07
1.0823e-07
1.0974e-07
1.14247e-07
1.18872e-07
1.23086e-07
1.26657e-07
1.25621e-07
1.19562e-07
1.12261e-07
1.05296e-07
6.97246e-08
4.47371e-08
4.05091e-08
4.30244e-08
3.89611e-08
3.33948e-08
2.81986e-08
2.27478e-08
2.10387e-08
2.56041e-08
3.67933e-08
3.42155e-08
2.32227e-08
1.96791e-08
2.05508e-08
2.63408e-08
4.79768e-08
6.18154e-08
3.33227e-08
2.22936e-08
2.12839e-08
2.19405e-08
2.36097e-08
3.50795e-08
4.14016e-08
2.961e-08
2.17321e-08
1.76395e-08
1.93769e-08
2.69585e-08
2.49102e-08
2.33548e-08
2.76546e-08
4.29457e-08
4.87173e-08
2.45613e-08
1.44009e-08
1.22753e-08
1.68373e-08
2.81424e-08
5.08339e-08
7.11604e-08
2.97794e-08
1.9408e-08
1.79427e-08
1.66506e-08
1.69197e-08
2.05744e-08
2.56324e-08
3.0536e-08
3.12489e-08
2.95644e-08
3.29143e-08
4.60742e-08
4.85889e-08
4.28874e-08
4.58482e-08
5.49231e-08
7.53343e-08
7.85202e-08
7.9918e-08
8.00812e-08
7.75404e-08
7.17851e-08
6.44903e-08
6.04298e-08
5.8076e-08
5.58258e-08
5.50909e-08
5.77388e-08
6.44703e-08
4.16226e-08
4.64848e-08
5.79517e-08
7.16369e-08
6.57325e-08
5.97581e-08
5.32839e-08
4.85043e-08
3.1389e-08
1.69459e-08
1.4775e-08
1.32145e-08
9.94894e-09
8.5398e-09
8.48784e-09
9.76692e-09
1.39584e-08
1.98543e-08
1.56043e-07
3.77129e-08
1.69197e-08
1.37433e-08
1.68956e-08
1.32597e-08
1.61273e-08
1.06439e-08
7.19058e-09
4.74074e-09
6.09739e-09
1.43296e-08
1.38638e-08
1.83845e-08
2.2695e-08
2.27457e-08
3.13726e-08
8.85535e-08
2.2176e-07
8.61824e-08
9.36784e-08
9.51882e-08
7.80606e-08
8.94476e-08
1.48957e-07
1.59775e-07
1.60434e-07
1.80849e-07
2.03314e-07
2.78555e-07
3.56174e-07
2.975e-07
2.25935e-07
1.99921e-07
2.02449e-07
1.85803e-07
1.47415e-07
1.15666e-07
9.62645e-08
8.84052e-08
8.59511e-08
8.09606e-08
7.2834e-08
6.5026e-08
5.87939e-08
5.50632e-08
5.25794e-08
5.06849e-08
4.83205e-08
4.58613e-08
4.35889e-08
4.12791e-08
3.88758e-08
3.71268e-08
3.59674e-08
3.48606e-08
3.32957e-08
3.1942e-08
3.07792e-08
2.9481e-08
2.84231e-08
2.73764e-08
2.64595e-08
2.58312e-08
2.49036e-08
2.36509e-08
2.26438e-08
2.21118e-08
2.18181e-08
2.11567e-08
2.03095e-08
1.96624e-08
1.90591e-08
1.85565e-08
1.80478e-08
1.75471e-08
1.73105e-08
1.71404e-08
1.69017e-08
1.66514e-08
1.62518e-08
1.58307e-08
1.56425e-08
1.56494e-08
1.57599e-08
1.58169e-08
1.57669e-08
1.57671e-08
1.58325e-08
1.5959e-08
1.61443e-08
1.64035e-08
1.67879e-08
1.71253e-08
1.73694e-08
1.76278e-08
1.79807e-08
1.85222e-08
1.91244e-08
1.96098e-08
1.9966e-08
2.03682e-08
2.08233e-08
2.1373e-08
2.19344e-08
2.24685e-08
2.29977e-08
2.35612e-08
2.41196e-08
2.47571e-08
2.54358e-08
2.59356e-08
2.64415e-08
2.71997e-08
2.80589e-08
2.89799e-08
2.98182e-08
3.05383e-08
3.12566e-08
3.22382e-08
3.33076e-08
3.42167e-08
3.51337e-08
3.63781e-08
3.79478e-08
3.95646e-08
4.11628e-08
4.25905e-08
4.38287e-08
4.54671e-08
4.76834e-08
5.04339e-08
5.351e-08
5.63946e-08
5.89261e-08
6.18906e-08
6.5858e-08
7.07168e-08
7.69348e-08
8.393e-08
9.02525e-08
9.73012e-08
1.06451e-07
1.19141e-07
1.37162e-07
1.60186e-07
1.8887e-07
2.19088e-07
2.52891e-07
2.96534e-07
3.20103e-07
3.03469e-07
2.74826e-07
2.49269e-07
2.1964e-07
1.86815e-07
1.59238e-07
1.36867e-07
1.20319e-07
1.1086e-07
1.03401e-07
9.48267e-08
8.64257e-08
7.97367e-08
7.47752e-08
7.10503e-08
6.74846e-08
6.35906e-08
6.07584e-08
5.86293e-08
5.63102e-08
5.39314e-08
5.1754e-08
4.98764e-08
4.86226e-08
4.77016e-08
4.65942e-08
4.53443e-08
4.40325e-08
4.28431e-08
4.20734e-08
4.16389e-08
4.12729e-08
4.06328e-08
3.97368e-08
3.90256e-08
3.86784e-08
3.86727e-08
3.85016e-08
3.78899e-08
3.74678e-08
3.75972e-08
3.78284e-08
3.76458e-08
3.73145e-08
3.73889e-08
3.76814e-08
3.7938e-08
3.80861e-08
3.80338e-08
3.81565e-08
3.86424e-08
3.92058e-08
3.95707e-08
3.9652e-08
3.97503e-08
4.00883e-08
4.06358e-08
4.11898e-08
4.14764e-08
4.14646e-08
4.13375e-08
4.1551e-08
4.19131e-08
4.2108e-08
4.22144e-08
4.21143e-08
4.21327e-08
4.24715e-08
4.26904e-08
4.28003e-08
4.29392e-08
4.31767e-08
4.36174e-08
4.42829e-08
4.49697e-08
4.54312e-08
4.60137e-08
4.68525e-08
4.78445e-08
4.90628e-08
5.05135e-08
5.19682e-08
5.32969e-08
5.47499e-08
5.65442e-08
5.8643e-08
6.07913e-08
6.29905e-08
6.55105e-08
6.84732e-08
7.15453e-08
7.44373e-08
7.76003e-08
8.16086e-08
8.62116e-08
9.10224e-08
9.61265e-08
1.01713e-07
1.08462e-07
1.16458e-07
1.25425e-07
1.34927e-07
1.44975e-07
1.57681e-07
1.74194e-07
1.93202e-07
2.1414e-07
2.3781e-07
2.69135e-07
3.09801e-07
3.61109e-07
4.13979e-07
4.64041e-07
4.99937e-07
5.17485e-07
4.94256e-07
4.5484e-07
4.07144e-07
3.64031e-07
3.27233e-07
2.96969e-07
2.67326e-07
2.41917e-07
2.22183e-07
2.10296e-07
1.97612e-07
1.85481e-07
1.74293e-07
1.67786e-07
1.61994e-07
1.57086e-07
1.51011e-07
1.46627e-07
1.41544e-07
1.38687e-07
1.36232e-07
1.3437e-07
1.32012e-07
1.30872e-07
1.28687e-07
1.27324e-07
1.26646e-07
1.20934e-07
1.21729e-07
1.16599e-07
1.20328e-07
1.19674e-07
1.27879e-07
1.34114e-07
1.15796e-07
1.13851e-07
1.0865e-07
1.10381e-07
2.23057e-07
3.40077e-07
9.28499e-08
7.33713e-08
5.17102e-08
5.12415e-08
3.03177e-08
2.57214e-08
3.55352e-08
4.66582e-08
6.6702e-08
6.51133e-08
1.54379e-07
1.23401e-07
1.05836e-07
1.18771e-07
9.51842e-08
3.13267e-07
4.07136e-07
1.26694e-07
6.08295e-08
4.8345e-08
3.58034e-08
3.5095e-08
2.10625e-08
1.7898e-08
2.37182e-08
3.09426e-08
4.24186e-08
4.16656e-08
8.56636e-08
7.56832e-08
9.91085e-08
9.82779e-08
7.21669e-08
8.04329e-08
7.08376e-08
7.11205e-08
1.88422e-07
8.92694e-08
8.63961e-08
3.07368e-08
2.06091e-08
1.35227e-08
9.24176e-09
6.44162e-09
6.55147e-09
7.58063e-09
8.63662e-09
1.07321e-08
1.32433e-08
1.99001e-08
2.45426e-08
2.63217e-08
3.2065e-08
3.49507e-08
3.7328e-08
4.09571e-08
4.52043e-08
4.93563e-08
5.41396e-08
5.9241e-08
6.57088e-08
7.24121e-08
7.93617e-08
8.73963e-08
9.41629e-08
1.01e-07
1.1007e-07
1.17329e-07
1.24121e-07
1.32815e-07
1.45032e-07
1.53766e-07
1.61175e-07
1.7159e-07
1.84801e-07
1.99102e-07
2.13185e-07
2.25498e-07
2.37163e-07
2.50846e-07
2.65856e-07
2.73495e-07
3.01907e-07
3.42011e-07
3.77149e-07
4.02473e-07
4.24383e-07
4.44409e-07
4.68437e-07
5.01146e-07
5.35386e-07
5.71345e-07
6.15878e-07
6.89656e-07
8.24703e-07
8.27023e-07
7.99018e-07
8.41155e-07
9.45527e-07
1.07901e-06
1.23706e-06
1.40448e-06
1.54995e-06
1.66443e-06
1.76958e-06
1.94793e-06
2.33069e-06
3.07912e-06
4.35679e-06
5.08124e-06
4.04389e-06
4.10589e-06
5.58863e-06
5.58401e-06
5.59377e-06
3.39686e-06
3.01032e-06
5.29679e-06
5.56875e-06
4.01947e-06
2.38298e-06
3.87533e-06
3.50898e-06
1.47995e-06
1.53727e-06
4.1555e-07
1.64074e-07
6.50627e-08
3.6341e-08
2.34972e-08
4.08453e-08
2.66908e-09
5.36827e-09
1.07134e-08
2.89131e-08
1.46859e-08
1.34777e-08
1.40422e-08
1.73013e-08
2.34805e-08
3.33229e-08
5.01502e-08
8.2936e-08
9.81434e-08
1.00034e-07
1.021e-07
1.0383e-07
1.05491e-07
1.08142e-07
1.10357e-07
1.11091e-07
1.09348e-07
1.06329e-07
9.58575e-08
6.0028e-08
3.59899e-08
2.44929e-08
2.12102e-08
2.07076e-08
2.03581e-08
2.07256e-08
2.28778e-08
2.09373e-08
1.83032e-08
1.94717e-08
2.03493e-08
1.68758e-08
1.22001e-08
1.01309e-08
1.12134e-08
1.60838e-08
3.00506e-08
4.58785e-08
2.9984e-08
1.37139e-08
9.68503e-09
1.02938e-08
1.31863e-08
2.299e-08
5.01113e-08
4.47317e-08
2.27308e-08
1.29548e-08
1.02167e-08
1.03829e-08
1.14763e-08
1.30138e-08
1.74879e-08
2.44642e-08
2.05942e-08
1.14613e-08
8.05243e-09
8.88566e-09
1.28157e-08
1.52101e-08
1.45938e-08
1.53075e-08
1.50376e-08
1.27082e-08
1.03932e-08
1.00177e-08
1.1521e-08
1.34991e-08
1.38044e-08
1.43815e-08
1.83841e-08
2.24275e-08
2.62013e-08
3.41727e-08
4.73405e-08
6.44139e-08
7.83633e-08
7.67667e-08
7.5555e-08
7.4581e-08
7.36923e-08
7.26966e-08
7.13902e-08
6.9521e-08
6.65948e-08
6.29403e-08
5.87721e-08
5.52913e-08
5.48735e-08
5.6368e-08
5.51906e-08
6.53346e-08
7.30146e-08
8.05057e-08
8.48894e-08
6.2695e-08
5.62056e-08
5.87531e-08
6.6479e-08
6.29946e-08
6.10872e-08
4.21975e-08
1.7407e-08
1.14173e-08
8.62666e-09
8.96912e-09
1.24151e-08
8.11433e-09
7.95685e-09
8.33238e-09
1.19665e-08
1.69387e-08
5.92857e-08
4.72559e-08
2.11621e-08
1.25725e-08
1.51721e-08
1.13476e-08
1.38453e-08
9.0235e-09
6.37153e-09
4.19467e-09
5.39373e-09
1.24333e-08
1.23377e-08
1.65866e-08
2.11995e-08
2.37426e-08
3.48282e-08
9.601e-08
9.27196e-08
2.4868e-07
8.96418e-08
8.78864e-08
8.193e-08
9.70772e-08
1.87009e-07
1.83485e-07
1.70328e-07
1.89441e-07
1.93069e-07
1.67344e-07
1.68317e-07
1.73543e-07
1.46609e-07
1.16264e-07
9.64095e-08
8.49661e-08
8.17643e-08
7.99775e-08
7.26428e-08
6.45816e-08
5.84634e-08
5.46653e-08
5.20829e-08
4.91202e-08
4.64044e-08
4.44781e-08
4.29486e-08
4.08329e-08
3.80272e-08
3.58374e-08
3.48286e-08
3.38713e-08
3.24267e-08
3.08879e-08
2.97724e-08
2.88612e-08
2.7626e-08
2.63819e-08
2.55341e-08
2.48542e-08
2.41777e-08
2.32389e-08
2.21252e-08
2.14143e-08
2.11788e-08
2.07935e-08
1.99382e-08
1.91511e-08
1.85361e-08
1.81149e-08
1.78964e-08
1.75485e-08
1.71618e-08
1.68078e-08
1.64583e-08
1.62519e-08
1.61231e-08
1.59379e-08
1.56977e-08
1.5466e-08
1.5282e-08
1.53377e-08
1.551e-08
1.56084e-08
1.55863e-08
1.54658e-08
1.55339e-08
1.58773e-08
1.62274e-08
1.64966e-08
1.66277e-08
1.67117e-08
1.69943e-08
1.74406e-08
1.80278e-08
1.85332e-08
1.88003e-08
1.91502e-08
1.96708e-08
2.01885e-08
2.07839e-08
2.13894e-08
2.1854e-08
2.22159e-08
2.27162e-08
2.33961e-08
2.42104e-08
2.49914e-08
2.54799e-08
2.57658e-08
2.63252e-08
2.71931e-08
2.82838e-08
2.93062e-08
3.01085e-08
3.07521e-08
3.1494e-08
3.24157e-08
3.34533e-08
3.44997e-08
3.57462e-08
3.73335e-08
3.87992e-08
4.00578e-08
4.12841e-08
4.26171e-08
4.45319e-08
4.6957e-08
4.95663e-08
5.22338e-08
5.47542e-08
5.69135e-08
5.96105e-08
6.35153e-08
6.84611e-08
7.40808e-08
8.01506e-08
8.62881e-08
9.25942e-08
1.0026e-07
1.10964e-07
1.25067e-07
1.40626e-07
1.60188e-07
1.82816e-07
2.01393e-07
2.18572e-07
2.28508e-07
2.21665e-07
2.09551e-07
2.00217e-07
1.85429e-07
1.63069e-07
1.40971e-07
1.23055e-07
1.11581e-07
1.04724e-07
9.81677e-08
9.06064e-08
8.33618e-08
7.70666e-08
7.20578e-08
6.83351e-08
6.50716e-08
6.18411e-08
5.97511e-08
5.77934e-08
5.50029e-08
5.22868e-08
5.03247e-08
4.89614e-08
4.797e-08
4.70159e-08
4.58068e-08
4.43784e-08
4.31277e-08
4.2262e-08
4.15783e-08
4.11114e-08
4.06684e-08
3.99881e-08
3.9328e-08
3.88125e-08
3.84284e-08
3.82479e-08
3.7855e-08
3.74306e-08
3.73975e-08
3.74781e-08
3.74719e-08
3.72271e-08
3.70315e-08
3.72269e-08
3.74921e-08
3.758e-08
3.75853e-08
3.76775e-08
3.78923e-08
3.82839e-08
3.86636e-08
3.87966e-08
3.89349e-08
3.92937e-08
3.95615e-08
3.98517e-08
4.02217e-08
4.04621e-08
4.06138e-08
4.07228e-08
4.08869e-08
4.09823e-08
4.12379e-08
4.16582e-08
4.18277e-08
4.18891e-08
4.21816e-08
4.25388e-08
4.27934e-08
4.31142e-08
4.34651e-08
4.38663e-08
4.44731e-08
4.50653e-08
4.55254e-08
4.62815e-08
4.71147e-08
4.8037e-08
4.93384e-08
5.06105e-08
5.18949e-08
5.33081e-08
5.47776e-08
5.63891e-08
5.81162e-08
5.99909e-08
6.22534e-08
6.48757e-08
6.76375e-08
7.04921e-08
7.3318e-08
7.64649e-08
8.02317e-08
8.44346e-08
8.89555e-08
9.38481e-08
9.89629e-08
1.05014e-07
1.12341e-07
1.20485e-07
1.29226e-07
1.38355e-07
1.49354e-07
1.63564e-07
1.80052e-07
1.96701e-07
2.1398e-07
2.34418e-07
2.62292e-07
2.94499e-07
3.25581e-07
3.46823e-07
3.60406e-07
3.66438e-07
3.63934e-07
3.47088e-07
3.2518e-07
2.99427e-07
2.81127e-07
2.58573e-07
2.39771e-07
2.19732e-07
2.073e-07
1.96761e-07
1.8665e-07
1.76269e-07
1.67969e-07
1.61557e-07
1.56549e-07
1.51867e-07
1.47424e-07
1.43123e-07
1.38762e-07
1.35366e-07
1.33545e-07
1.31747e-07
1.31921e-07
1.3012e-07
1.2667e-07
1.23423e-07
1.23998e-07
1.22839e-07
1.34478e-07
1.3565e-07
1.20273e-07
1.12914e-07
1.03745e-07
1.04652e-07
1.03324e-07
2.03224e-07
2.91234e-07
8.82008e-08
6.96067e-08
4.83348e-08
4.86013e-08
2.94234e-08
2.48585e-08
3.40422e-08
4.33066e-08
6.17945e-08
6.14059e-08
1.4636e-07
1.72556e-07
1.64032e-07
1.50971e-07
1.26693e-07
2.97013e-07
2.52712e-07
6.3731e-08
4.70011e-08
3.90392e-08
3.23847e-08
2.75488e-08
1.96607e-08
1.63916e-08
2.19057e-08
2.72872e-08
3.78801e-08
3.81168e-08
7.92588e-08
8.99575e-08
1.83549e-07
2.11123e-07
8.60168e-08
1.02569e-07
7.86081e-08
1.77567e-07
9.74797e-08
1.34189e-07
4.91642e-08
2.53791e-08
1.75428e-08
1.24993e-08
8.51117e-09
6.12268e-09
6.28663e-09
7.16608e-09
8.02303e-09
1.02585e-08
1.39009e-08
2.1122e-08
2.71374e-08
3.93403e-08
7.15128e-08
5.90203e-08
4.5177e-08
3.98969e-08
3.97063e-08
4.19135e-08
4.53638e-08
4.95524e-08
5.3885e-08
5.87448e-08
6.38477e-08
6.92308e-08
7.52842e-08
8.16154e-08
8.88111e-08
9.55542e-08
1.02393e-07
1.11004e-07
1.18836e-07
1.26722e-07
1.3557e-07
1.45844e-07
1.54447e-07
1.6314e-07
1.75269e-07
1.89795e-07
2.03579e-07
2.17482e-07
2.28121e-07
2.37814e-07
2.48321e-07
2.64172e-07
2.77701e-07
3.04517e-07
3.39012e-07
3.69962e-07
3.93939e-07
4.14192e-07
4.36069e-07
4.58559e-07
4.91241e-07
5.31474e-07
5.70037e-07
6.0456e-07
6.5761e-07
7.41384e-07
7.59198e-07
7.69777e-07
8.32758e-07
9.37585e-07
1.0685e-06
1.21011e-06
1.33979e-06
1.4429e-06
1.52572e-06
1.61768e-06
1.78261e-06
2.11204e-06
2.69096e-06
3.34922e-06
3.41038e-06
3.15946e-06
3.55088e-06
4.90632e-06
5.83247e-06
3.75654e-06
3.01455e-06
4.16691e-06
7.54805e-06
4.46819e-06
2.58634e-06
2.62224e-06
3.48136e-06
2.97657e-06
1.43951e-06
1.89757e-06
4.47008e-07
1.61538e-07
6.50935e-08
3.63886e-08
2.34554e-08
4.09981e-08
1.34076e-09
4.17367e-09
8.50042e-09
1.54281e-08
8.93175e-09
7.50275e-09
7.16728e-09
8.20705e-09
1.01841e-08
1.33592e-08
1.81185e-08
2.50901e-08
3.26518e-08
4.50738e-08
7.81601e-08
1.09796e-07
1.10503e-07
1.11828e-07
1.13754e-07
1.1656e-07
7.97118e-08
4.61989e-08
3.39601e-08
2.49593e-08
1.94068e-08
1.51625e-08
1.3062e-08
1.17536e-08
1.22342e-08
1.44137e-08
1.89083e-08
1.89677e-08
1.56208e-08
1.358e-08
1.25848e-08
1.0602e-08
9.21627e-09
8.5603e-09
8.78e-09
1.20015e-08
2.06449e-08
2.74278e-08
2.1505e-08
1.12292e-08
7.71723e-09
7.33727e-09
9.83288e-09
1.8406e-08
2.95713e-08
3.49106e-08
2.99161e-08
1.30133e-08
8.62116e-09
7.36312e-09
7.87823e-09
1.00463e-08
1.45211e-08
1.87608e-08
1.52204e-08
1.02658e-08
9.31561e-09
1.04091e-08
1.23548e-08
1.07217e-08
7.92138e-09
8.44325e-09
1.11284e-08
1.05618e-08
8.28867e-09
7.96984e-09
9.24737e-09
1.0378e-08
1.06209e-08
1.04643e-08
1.15096e-08
1.30832e-08
1.4337e-08
1.63551e-08
2.29252e-08
4.15715e-08
8.15697e-08
9.31328e-08
8.64655e-08
8.14899e-08
7.78028e-08
7.50074e-08
7.26747e-08
7.05425e-08
6.84467e-08
6.6278e-08
6.40942e-08
6.15473e-08
5.94417e-08
5.79832e-08
5.81598e-08
6.14906e-08
6.7516e-08
3.93363e-08
7.24181e-08
8.79521e-08
1.08298e-07
1.12874e-07
4.45075e-08
2.92864e-08
3.15069e-08
7.43213e-08
3.79528e-08
2.70932e-08
3.03529e-08
1.59506e-08
1.1366e-08
8.72963e-09
1.03719e-08
1.48756e-08
1.02986e-08
9.65051e-09
8.93217e-09
1.14724e-08
1.74773e-08
5.60834e-08
4.56528e-08
2.43297e-08
1.35424e-08
1.59383e-08
1.0947e-08
1.27511e-08
8.42502e-09
6.05857e-09
4.01421e-09
5.06387e-09
1.14104e-08
1.11535e-08
1.51375e-08
1.96912e-08
6.20888e-08
2.43926e-08
3.13245e-08
9.60684e-08
3.54309e-07
7.83707e-08
8.65254e-08
9.41085e-08
1.29038e-07
2.38669e-07
1.71111e-07
1.17421e-07
1.2812e-07
1.5056e-07
1.23808e-07
9.80585e-08
8.55928e-08
8.00215e-08
7.89828e-08
7.52464e-08
6.71351e-08
5.96929e-08
5.46087e-08
5.21829e-08
5.0967e-08
4.79258e-08
4.49126e-08
4.26478e-08
4.12614e-08
3.92128e-08
3.67048e-08
3.51731e-08
3.44512e-08
3.31742e-08
3.15014e-08
3.01056e-08
2.89506e-08
2.79907e-08
2.71136e-08
2.60244e-08
2.51329e-08
2.44101e-08
2.3497e-08
2.25606e-08
2.19175e-08
2.14932e-08
2.11889e-08
2.05467e-08
1.96142e-08
1.89012e-08
1.84135e-08
1.81856e-08
1.8038e-08
1.78053e-08
1.75076e-08
1.69752e-08
1.65375e-08
1.63409e-08
1.61908e-08
1.62083e-08
1.61709e-08
1.5944e-08
1.56466e-08
1.55316e-08
1.56504e-08
1.58426e-08
1.59337e-08
1.57857e-08
1.57449e-08
1.60235e-08
1.63347e-08
1.65001e-08
1.65476e-08
1.66461e-08
1.69357e-08
1.74053e-08
1.79361e-08
1.82752e-08
1.84292e-08
1.87265e-08
1.92669e-08
1.98937e-08
2.05577e-08
2.11339e-08
2.14799e-08
2.1762e-08
2.2263e-08
2.30407e-08
2.38957e-08
2.45983e-08
2.51425e-08
2.55262e-08
2.60382e-08
2.67417e-08
2.76358e-08
2.8722e-08
2.97062e-08
3.04921e-08
3.11701e-08
3.18999e-08
3.29562e-08
3.41451e-08
3.52733e-08
3.664e-08
3.80664e-08
3.92248e-08
4.04104e-08
4.19941e-08
4.40261e-08
4.63356e-08
4.86389e-08
5.08494e-08
5.29161e-08
5.50912e-08
5.80568e-08