/*--------------------------------*- C++ -*----------------------------------*\
| =========                 |                                                 |
| \\      /  F ield         | OpenFOAM: The Open Source CFD Toolbox           |
|  \\    /   O peration     | Version:  v2006                                 |
|   \\  /    A nd           | Website:  www.openfoam.com                      |
|    \\/     M anipulation  |                                                 |
\*---------------------------------------------------------------------------*/
FoamFile
{
    version     2.0;
    format      ascii;
    class       volScalarField;
    location    "6";
    object      omega;
}
// * * * * * * * * * * * * * * * * * * * * * * * * * * * * * * * * * * * * * //

dimensions      [0 0 -1 0 0 0 0];


internalField   nonuniform List<scalar> 
33000
(
0.803831
0.803826
0.803821
0.803853
0.803974
0.804156
0.804418
0.804749
0.805144
0.805608
0.806147
0.806743
0.807335
0.807809
0.808168
0.808756
0.809924
0.812237
0.816153
0.821302
0.826264
0.829963
0.83242
0.833944
0.834813
0.835294
0.835603
0.835873
0.836143
0.836384
0.836549
0.836603
0.836539
0.836366
0.836081
0.8357
0.835295
0.835008
0.834983
0.835245
0.835551
0.835649
0.835448
0.835019
0.834535
0.83421
0.834246
0.834433
0.834514
0.834369
0.834
0.833486
0.832941
0.83252
0.832185
0.831923
0.831848
0.832095
0.832643
0.833263
0.833596
0.833506
0.833049
0.832503
0.832062
0.831532
0.830603
0.829214
0.827597
0.826052
0.824674
0.823443
0.822332
0.821268
0.820253
0.81933
0.818675
0.818507
0.819349
0.820568
0.821141
0.821943
0.822363
0.823266
0.824262
0.825037
0.82548
0.825654
0.825647
0.825496
0.825202
0.824786
0.824191
0.823456
0.822547
0.821472
0.820241
0.819117
0.818203
0.817922
0.818065
0.818197
0.818169
0.818065
0.818158
0.818405
0.818558
0.818471
0.818198
0.817866
0.817559
0.817313
0.817072
0.816745
0.81626
0.815787
0.815432
0.815607
0.815926
0.815943
0.815864
0.815808
0.815798
0.815879
0.815986
0.816055
0.816089
0.816096
0.816094
0.816108
0.816132
0.816145
0.816148
0.816143
0.816133
0.816114
0.816096
0.816083
0.816074
0.816066
0.816055
0.816041
0.816025
0.816011
0.815996
0.815972
0.815936
0.815897
0.815863
0.815836
0.815815
0.815785
0.81574
0.815694
0.815653
0.815619
0.815584
0.815544
0.815499
0.815452
0.815404
0.815355
0.815304
0.815256
0.815211
0.815163
0.815105
0.815046
0.814993
0.814941
0.814877
0.814804
0.814735
0.814674
0.814613
0.814544
0.814466
0.814395
0.814334
0.814276
0.814216
0.814158
0.814113
0.81407
0.814023
0.813974
0.813933
0.813904
0.813881
0.813857
0.813831
0.813803
0.813777
0.813762
0.81376
0.813761
0.813767
0.813775
0.813786
0.813808
0.813843
0.813893
0.813949
0.814007
0.814069
0.814139
0.814218
0.814295
0.814364
0.814421
0.814469
0.814515
0.814558
0.814592
0.814612
0.814625
0.814635
0.814644
0.814649
0.814642
0.814622
0.814591
0.814554
0.814513
0.814469
0.814418
0.814362
0.814301
0.814238
0.814177
0.814118
0.814061
0.814002
0.813941
0.813878
0.813815
0.813753
0.813692
0.813632
0.813569
0.813506
0.813443
0.81338
0.813313
0.813245
0.813178
0.813111
0.813046
0.812979
0.812907
0.812836
0.812765
0.812695
0.812624
0.812552
0.812479
0.812404
0.812329
0.812253
0.812177
0.812101
0.812022
0.811941
0.81186
0.81178
0.8117
0.81162
0.811536
0.811451
0.811364
0.811278
0.811192
0.811107
0.81102
0.81093
0.810838
0.810746
0.810652
0.810558
0.810462
0.810366
0.81027
0.810172
0.810071
0.809968
0.809864
0.80976
0.809655
0.809549
0.80944
0.809329
0.809215
0.8091
0.808983
0.808866
0.808746
0.808622
0.808496
0.808368
0.808236
0.808103
0.807966
0.807825
0.807679
0.807526
0.807364
0.807203
0.807046
0.806895
0.80675
0.806613
0.806482
0.806357
0.806237
0.806125
0.806019
0.80592
0.805828
0.805741
0.805662
0.805589
0.805522
0.805462
0.80541
0.805366
0.805329
0.805299
0.805274
0.805255
0.805241
0.805232
0.805227
0.805227
0.805231
0.805239
0.805249
0.805261
0.805273
0.805284
0.805295
0.805306
0.805316
0.805326
0.805337
0.805348
0.805358
0.805369
0.805378
0.805386
0.80539
0.805392
0.805391
0.805387
0.80538
0.80537
0.805358
0.805343
0.805326
0.805307
0.805285
0.805262
0.805237
0.805209
0.805181
0.805151
0.805119
0.805086
0.805052
0.805017
0.804981
0.804944
0.804906
0.804868
0.804828
0.804789
0.804749
0.804708
0.804667
0.804627
0.804586
0.804544
0.804503
0.804462
0.804421
0.80438
0.804339
0.804299
0.804259
0.804219
0.80418
0.804141
0.804102
0.804064
0.804026
0.803988
0.803952
0.803915
0.80388
0.803844
0.803809
0.803775
0.803741
0.803708
0.803675
0.803642
0.803611
0.803579
0.803549
0.803519
0.803491
0.803463
0.803436
0.803408
0.803381
0.803355
0.803329
0.803303
0.803279
0.80325
0.803221
0.8032
0.803172
0.80315
0.803132
0.803079
0.803035
0.803034
0.802973
0.802998
0.802971
0.803126
0.803195
0.803267
0.80329
0.803313
0.803309
0.80331
0.803299
0.803294
0.80328
0.803268
0.803257
0.803223
0.803193
0.803185
0.803144
0.803146
0.803112
0.803165
0.803189
0.8032
0.803199
0.803186
0.803172
0.803155
0.803138
0.803121
0.803096
0.803071
0.803052
0.803024
0.803008
0.802984
0.80292
0.80287
0.802859
0.80278
0.802839
0.802838
0.80309
0.803398
0.803701
0.803967
0.804184
0.804356
0.804489
0.804592
0.804672
0.804733
0.804778
0.804814
0.804841
0.804862
0.804878
0.80489
0.804898
0.804904
0.804908
0.80491
0.804909
0.804908
0.804906
0.804903
0.804898
0.804893
0.804887
0.80488
0.804873
0.804865
0.804857
0.804848
0.804837
0.804826
0.804815
0.804803
0.80479
0.804777
0.804764
0.80475
0.804736
0.804722
0.804708
0.804695
0.80468
0.804667
0.804653
0.804639
0.804625
0.804611
0.804596
0.804582
0.804567
0.804552
0.804537
0.804521
0.804506
0.804491
0.804476
0.804461
0.804445
0.80443
0.804416
0.804401
0.804387
0.804373
0.804359
0.804345
0.804331
0.804318
0.804304
0.80429
0.804277
0.804263
0.80425
0.804237
0.804222
0.804217
0.804181
0.804154
0.803943
0.753446
0.691099
0.5963
0.609892
0.604892
0.613352
0.643732
0.707396
0.799269
0.895221
0.991191
1.08916
1.1845
1.26551
1.30961
1.30639
1.27461
1.21745
1.14083
1.06964
1.01142
0.943979
0.862261
0.77426
0.693342
0.628404
0.576631
0.54071
0.517867
0.503334
0.492911
0.481939
0.468685
0.455889
0.444608
0.433472
0.421069
0.41101
0.406505
0.405909
0.406698
0.404111
0.396631
0.385285
0.374284
0.36803
0.364278
0.361613
0.357039
0.349959
0.342064
0.33508
0.331199
0.329738
0.32959
0.329267
0.329083
0.330633
0.335534
0.343894
0.353482
0.361113
0.365528
0.369186
0.375933
0.387282
0.403576
0.425673
0.454496
0.49196
0.538545
0.59208
0.653838
0.723484
0.794981
0.858163
0.918423
0.979052
1.05114
1.12278
1.18127
1.23758
1.27205
1.29176
1.23071
1.21225
1.18875
1.12513
0.948316
0.716112
0.524509
0.380703
0.302899
0.282699
0.31182
0.386363
0.501611
0.649365
0.791593
0.902842
0.973928
0.983692
0.916929
0.77589
0.621423
0.458971
0.327265
0.237566
0.188648
0.153678
0.130368
0.124126
0.132208
0.154002
0.182838
0.21018
0.223753
0.23194
0.240301
0.239777
0.20626
0.167418
0.15452
0.137435
0.124272
0.117377
0.109953
0.104459
0.102293
0.100592
0.0999766
0.100221
0.100131
0.100447
0.101007
0.101653
0.102295
0.102921
0.103659
0.10424
0.104769
0.105243
0.105716
0.106208
0.106692
0.107136
0.107577
0.108096
0.108692
0.109297
0.109847
0.110318
0.110754
0.111254
0.111832
0.112417
0.112992
0.113578
0.11415
0.114631
0.115008
0.115367
0.115799
0.11625
0.116601
0.116845
0.11709
0.117383
0.117591
0.117608
0.117519
0.117493
0.117579
0.117585
0.117347
0.116882
0.116379
0.116028
0.115705
0.115245
0.114616
0.113884
0.113172
0.112249
0.11096
0.109667
0.108656
0.107823
0.10689
0.10564
0.104143
0.102644
0.101338
0.1002
0.0990734
0.0977856
0.096253
0.094539
0.0928711
0.0914978
0.0904075
0.0893415
0.088042
0.0864354
0.0847501
0.0832603
0.0820083
0.0808387
0.0795405
0.0780794
0.0767028
0.0755982
0.0745387
0.0732002
0.0716294
0.0701405
0.0690225
0.0682296
0.067415
0.0662797
0.0648516
0.0634431
0.0623304
0.0615841
0.060965
0.0602037
0.0592574
0.0582132
0.0572264
0.0564999
0.0560583
0.0556399
0.0550636
0.0543971
0.0537326
0.0531871
0.0528568
0.0526925
0.0525158
0.0522744
0.052085
0.0519578
0.0517979
0.0515709
0.0513869
0.0513504
0.0515714
0.0518182
0.0517233
0.0514936
0.0514167
0.0515268
0.0517362
0.0518696
0.0518762
0.0518361
0.0517804
0.0517708
0.0518487
0.0519201
0.0519014
0.0517686
0.0516159
0.0516189
0.051815
0.0520557
0.0521051
0.0517874
0.0514071
0.0512089
0.0511715
0.0512865
0.0514373
0.0513765
0.0511302
0.0508972
0.0507207
0.0505682
0.050399
0.0502378
0.050237
0.0503467
0.0502246
0.0498695
0.0495452
0.0493468
0.049228
0.0491833
0.0491836
0.0490594
0.0487639
0.0484416
0.0482084
0.048053
0.0480003
0.0479125
0.0476394
0.04735
0.0470737
0.0467789
0.0466027
0.046408
0.0460499
0.0456733
0.0453107
0.045017
0.0446462
0.0441835
0.0437034
0.0432699
0.0429456
0.0425998
0.0421389
0.0415793
0.0410671
0.0406825
0.0402956
0.0398259
0.0393828
0.0389758
0.0386448
0.0383376
0.0379418
0.0375639
0.0372841
0.0370893
0.0368769
0.0365898
0.0363277
0.0361425
0.0360379
0.035969
0.0357807
0.0354894
0.0351784
0.0349061
0.0346742
0.0344552
0.0342267
0.0339219
0.0335911
0.0332969
0.033034
0.0328202
0.0325787
0.0322538
0.0319281
0.031655
0.0314491
0.0312545
0.0310225
0.030771
0.0305612
0.0304204
0.0302707
0.0300884
0.0299333
0.0298156
0.0297034
0.0295804
0.0294744
0.0293936
0.0293272
0.0292752
0.0292167
0.0291547
0.0291014
0.0290653
0.0290403
0.0290199
0.0289869
0.0289377
0.0288909
0.0288605
0.0288359
0.0288085
0.0287882
0.028777
0.0287738
0.0287588
0.0287149
0.028655
0.0285997
0.0285587
0.0285258
0.0284877
0.0284383
0.0283701
0.0282875
0.0282241
0.0281779
0.0280946
0.0279869
0.0279172
0.027854
0.0277667
0.0276915
0.0276311
0.027557
0.0274578
0.027344
0.0272284
0.027132
0.0270513
0.0269517
0.0268696
0.0267284
0.0265928
0.0264459
0.0263408
0.0262449
0.0261396
0.0260599
0.0258931
0.0257682
0.0257603
0.0256238
0.0256875
0.0257661
0.0252408
0.0251329
0.0253245
0.0247814
0.0266512
0.0280551
0.0247125
0.0263762
0.025958
0.0258614
0.0275719
0.0293195
0.0282859
0.026351
0.0249227
0.0240643
0.0236938
0.0235424
0.0234919
0.0235054
0.0235997
0.0234846
0.0250409
0.0268545
0.0242583
0.0252552
0.0252396
0.0252569
0.0262335
0.027121
0.0265646
0.0252701
0.0243428
0.023825
0.023473
0.0234358
0.0233534
0.0239025
0.024182
0.0237308
0.0244343
0.0242332
0.0261402
0.0388321
0.0424217
0.0377786
0.043963
0.0466742
0.0490822
0.0552439
0.0625984
0.0654379
0.0603441
0.051177
0.0424772
0.0359243
0.0315444
0.0287491
0.0269709
0.0258419
0.0251296
0.0246935
0.0244323
0.0242877
0.024247
0.0242842
0.0243612
0.0244845
0.0246221
0.0247442
0.0248401
0.0249829
0.0251627
0.0253313
0.0254734
0.0255904
0.025698
0.0258046
0.0259018
0.0259963
0.0260785
0.0261728
0.0261245
0.0260126
0.0259467
0.0259361
0.0259682
0.0260397
0.0261153
0.0261773
0.0262429
0.0263242
0.0264177
0.0265079
0.0265248
0.0266986
0.0269247
0.0270506
0.0270783
0.0270632
0.0270156
0.0269621
0.0269285
0.0269355
0.0269945
0.0270869
0.0271664
0.0271855
0.0271425
0.027109
0.027161
0.0273147
0.0274962
0.0275637
0.0274921
0.0274143
0.0274679
0.02761
0.0276333
0.0275095
0.0273942
0.027478
0.0273204
0.0270439
0.026795
0.0269934
0.0272728
0.0278457
0.0285866
0.0301819
0.0283191
0.333391
0.26264
0.221546
0.214245
0.213383
0.229513
0.262626
0.317752
0.399927
0.502781
0.61767
0.736486
0.847042
0.938036
1.00229
1.03797
1.04592
1.00899
0.941291
0.86203
0.763067
0.652917
0.554855
0.474814
0.410843
0.361749
0.325469
0.299809
0.283055
0.272871
0.26609
0.259481
0.250718
0.239925
0.228324
0.218475
0.209495
0.202532
0.19864
0.197527
0.197922
0.196933
0.192475
0.184598
0.175265
0.168237
0.164291
0.162202
0.160208
0.156541
0.151462
0.145961
0.140926
0.137525
0.136082
0.135967
0.13706
0.140467
0.14717
0.156569
0.166176
0.172059
0.17277
0.172422
0.174694
0.179503
0.185938
0.193521
0.202308
0.213826
0.227953
0.245934
0.269115
0.297348
0.329599
0.36377
0.39777
0.433697
0.476458
0.525969
0.583567
0.652809
0.735638
0.832035
0.95954
1.0701
1.10327
1.0453
0.922084
0.799354
0.657899
0.507685
0.38427
0.297572
0.241891
0.220709
0.237616
0.293259
0.369883
0.439381
0.488975
0.509554
0.50613
0.470789
0.41951
0.361515
0.297451
0.233549
0.17483
0.126529
0.087359
0.0577688
0.0393702
0.029819
0.0299426
0.0347865
0.0407762
0.044742
0.0461765
0.0446485
0.0435908
0.0425728
0.0408243
0.0344995
0.0269006
0.0237295
0.0200727
0.0174277
0.0160719
0.0149101
0.0140521
0.0137244
0.0135517
0.0135152
0.0136373
0.0138321
0.0139925
0.0141085
0.0142526
0.0143664
0.0144964
0.0146421
0.014794
0.014944
0.015086
0.0152194
0.0153548
0.0155011
0.0156595
0.0158271
0.0159914
0.0161386
0.0162717
0.0164052
0.0165506
0.0167049
0.0168563
0.0170054
0.0171554
0.0172915
0.0173989
0.0174856
0.0175764
0.017674
0.0177591
0.0178176
0.0178591
0.0179068
0.0179443
0.0179353
0.0178804
0.0178293
0.0178159
0.0177948
0.017707
0.0175472
0.017367
0.0172207
0.0170931
0.0169336
0.0167279
0.0165095
0.0162944
0.0160182
0.0156589
0.0152901
0.0149749
0.0147188
0.0144687
0.0141703
0.0138195
0.0134401
0.0130798
0.0127594
0.0124701
0.0121833
0.0118635
0.0114954
0.0111197
0.0108015
0.0105536
0.010321
0.0100445
0.00972218
0.00939692
0.00911033
0.00886418
0.00862792
0.00837367
0.00810678
0.00786368
0.00766188
0.00746092
0.00722041
0.00695779
0.00671523
0.00652427
0.00637819
0.00623623
0.00605908
0.00584721
0.00563958
0.00546935
0.00534408
0.00523957
0.00512648
0.00499651
0.00485791
0.00472679
0.00462299
0.00455116
0.00448788
0.00441222
0.00432683
0.00424262
0.00417474
0.00413329
0.00411274
0.00409281
0.00406368
0.00403509
0.00401102
0.00399021
0.0039715
0.00395915
0.00395897
0.00397945
0.00399966
0.00399189
0.00397465
0.00397313
0.0039899
0.00401108
0.00402038
0.00401915
0.00401916
0.00402256
0.0040321
0.00404607
0.00404833
0.00403817
0.00402477
0.0040161
0.00402331
0.00404789
0.00407262
0.00407516
0.00404305
0.00400577
0.00398687
0.00398549
0.00399547
0.00400346
0.00399486
0.00397414
0.00395382
0.00393401
0.00391396
0.00389306
0.00387593
0.00387619
0.00388402
0.00386924
0.00383329
0.00380112
0.0037822
0.00376991
0.003761
0.00375512
0.00374037
0.00371228
0.00368312
0.00366126
0.00364301
0.00363079
0.0036162
0.0035905
0.003567
0.00354098
0.00350744
0.00348078
0.00345625
0.00342561
0.00339191
0.00335055
0.00331344
0.00327605
0.00323414
0.00318782
0.00314286
0.00310496
0.00306667
0.00302415
0.00297259
0.00292134
0.0028792
0.00283908
0.00279716
0.00275765
0.00271807
0.00268201
0.00264867
0.00261328
0.00258184
0.00255711
0.0025351
0.00251125
0.00248514
0.00246215
0.00244471
0.00243056
0.00241701
0.00239765
0.00237236
0.00234585
0.00232148
0.00229856
0.0022758
0.00225311
0.00222765
0.00220102
0.0021755
0.00215203
0.00213167
0.00210885
0.00208273
0.00205834
0.00203713
0.00201924
0.00200197
0.00198375
0.00196587
0.00195048
0.00193834
0.0019266
0.00191455
0.00190417
0.00189532
0.00188727
0.00187989
0.00187406
0.00186931
0.00186502
0.00186196
0.00185926
0.00185688
0.00185514
0.00185404
0.00185366
0.00185364
0.00185315
0.00185206
0.00185112
0.00185105
0.0018515
0.00185185
0.00185241
0.00185299
0.00185397
0.00185457
0.00185392
0.00185217
0.00185031
0.00184897
0.00184797
0.00184636
0.00184391
0.00184073
0.00183663
0.0018333
0.0018302
0.00182594
0.00182039
0.00181685
0.00181269
0.00180788
0.00180288
0.001799
0.00179416
0.00178924
0.00178263
0.0017766
0.00177037
0.00176568
0.00175815
0.00175354
0.00174683
0.00173953
0.00173044
0.00172098
0.00171382
0.00170318
0.00169974
0.00169187
0.00169176
0.00169386
0.00167625
0.0016709
0.00168013
0.00168198
0.0017474
0.00181349
0.00170123
0.00181295
0.0018325
0.00172572
0.00167258
0.00167477
0.00171661
0.00177426
0.00182815
0.00175732
0.00166809
0.00161608
0.00158045
0.00157401
0.00157239
0.00160459
0.00163839
0.00169091
0.00165074
0.00173092
0.0017659
0.00170608
0.00166679
0.00166134
0.00168755
0.00170193
0.00173123
0.00169327
0.00165607
0.0016287
0.00161657
0.00160113
0.0015908
0.00155063
0.00161286
0.00163802
0.00175919
0.00220494
0.00255356
0.00265496
0.00340744
0.00355452
0.00324476
0.00306526
0.00317079
0.00352982
0.00404885
0.00447137
0.00438793
0.00383217
0.00317788
0.00264071
0.00226628
0.00202414
0.00187077
0.00177147
0.0017055
0.00166078
0.00163071
0.00161058
0.00159757
0.00159099
0.00158881
0.00158903
0.00159196
0.00159629
0.0016009
0.0016057
0.00161344
0.00162319
0.00163272
0.00164145
0.00164948
0.0016567
0.00166332
0.00166948
0.00167554
0.00168098
0.0016864
0.0016868
0.00168502
0.00168467
0.00168615
0.00168883
0.00169212
0.00169613
0.00170027
0.00170481
0.00171037
0.00171716
0.0017238
0.00172753
0.00173626
0.00174614
0.00175248
0.00175531
0.00175621
0.00175582
0.00175467
0.0017537
0.00175436
0.0017578
0.00176351
0.00176908
0.00177198
0.00177213
0.00177246
0.00177726
0.00178664
0.00179493
0.00179642
0.00179327
0.00179259
0.00179744
0.00180295
0.00180133
0.0017961
0.00179404
0.00179858
0.00179154
0.00178076
0.00177331
0.0017899
0.00180696
0.00186953
0.00195566
0.00211031
0.00201923
0.158678
0.130497
0.115417
0.108685
0.111001
0.121546
0.141275
0.170757
0.208663
0.250043
0.292546
0.336478
0.38521
0.44198
0.502451
0.549277
0.566137
0.55346
0.513443
0.452566
0.379737
0.312244
0.261159
0.223458
0.194262
0.171687
0.154742
0.142903
0.135723
0.131712
0.129063
0.126223
0.121819
0.115455
0.107992
0.100872
0.0953227
0.0913167
0.0883722
0.0864065
0.0852578
0.0843825
0.0824103
0.0790949
0.0751402
0.0718041
0.0696845
0.0685342
0.0679362
0.0668916
0.0646358
0.0617179
0.0586568
0.0562049
0.0547221
0.0541965
0.0546413
0.056314
0.0594869
0.0636083
0.067413
0.0700173
0.0720961
0.0749385
0.0787246
0.082125
0.0847214
0.0873929
0.0909291
0.0953882
0.101153
0.109158
0.119762
0.132223
0.145876
0.161696
0.180936
0.204941
0.234993
0.272544
0.318664
0.373587
0.435215
0.501767
0.568858
0.632871
0.68545
0.730131
0.746322
0.724601
0.64641
0.543175
0.452373
0.365223
0.286232
0.228693
0.191624
0.172665
0.172526
0.187141
0.210445
0.234986
0.250047
0.249166
0.23797
0.225865
0.213516
0.200801
0.187911
0.169595
0.142807
0.114314
0.0837393
0.0569593
0.0352546
0.0221524
0.0142708
0.0109567
0.00975962
0.00959627
0.00956205
0.00956933
0.00949423
0.0101018
0.0109435
0.0114514
0.0100156
0.00790363
0.00686157
0.00583935
0.00506441
0.00451359
0.00407044
0.00375707
0.00360433
0.00351962
0.0034917
0.00348183
0.00349326
0.00349533
0.00349277
0.00350184
0.00351966
0.00354374
0.00357063
0.00359615
0.00361875
0.00364132
0.00366786
0.00370091
0.00373632
0.00376909
0.00379745
0.00382323
0.00385224
0.00388599
0.00391913
0.0039498
0.0039807
0.00401243
0.00404072
0.00406077
0.00407528
0.00409136
0.00411071
0.00412644
0.00413417
0.00413974
0.00414554
0.004144
0.00413173
0.0041178
0.00411163
0.0041061
0.0040868
0.00405256
0.00401375
0.00397985
0.00395079
0.00391582
0.00387032
0.0038228
0.00377625
0.00371945
0.00365163
0.00358075
0.00351417
0.00345711
0.00340322
0.00334532
0.00328103
0.00320971
0.00313746
0.00307011
0.00300942
0.00295381
0.00289726
0.00283248
0.00276419
0.00270251
0.00265142
0.00260548
0.00255474
0.00249807
0.00244125
0.00238877
0.00234199
0.00229757
0.00225261
0.00220765
0.00216462
0.00212524
0.00208699
0.00204589
0.00200396
0.00196502
0.00193053
0.0018998
0.00187061
0.00184009
0.00180806
0.00177694
0.00174818
0.00172226
0.00169918
0.00167778
0.00165691
0.00163602
0.00161531
0.00159611
0.00157923
0.00156425
0.00155007
0.00153566
0.00152172
0.00151009
0.00150095
0.00149298
0.00148503
0.00147676
0.00146937
0.00146363
0.001459
0.00145482
0.00145089
0.00144749
0.00144505
0.00144297
0.00144069
0.00143902
0.00143844
0.00143829
0.00143735
0.00143549
0.00143392
0.00143368
0.00143427
0.00143466
0.00143443
0.00143319
0.00143145
0.00143028
0.00142984
0.00142988
0.00143089
0.00143239
0.00143262
0.00143049
0.00142781
0.00142649
0.0014266
0.00142655
0.00142545
0.00142395
0.00142283
0.00142229
0.00142155
0.00142007
0.00141797
0.00141622
0.00141601
0.00141609
0.00141531
0.00141381
0.00141207
0.00141071
0.00140962
0.00140853
0.00140788
0.0014073
0.00140608
0.00140444
0.00140292
0.00140128
0.00139967
0.00139822
0.00139645
0.00139478
0.00139268
0.00138963
0.00138638
0.00138357
0.00138059
0.00137691
0.00137238
0.00136785
0.00136343
0.00135857
0.00135293
0.00134723
0.00134176
0.00133606
0.00133004
0.00132329
0.00131625
0.00130949
0.00130277
0.00129599
0.00128924
0.00128228
0.00127523
0.00126831
0.00126145
0.00125475
0.00124842
0.00124201
0.00123549
0.00122912
0.00122286
0.0012169
0.00121116
0.00120546
0.00119972
0.00119394
0.00118817
0.00118258
0.00117725
0.00117198
0.00116681
0.00116188
0.001157
0.0011522
0.00114761
0.00114328
0.0011391
0.00113499
0.00113117
0.00112771
0.00112448
0.00112145
0.00111858
0.00111586
0.00111341
0.0011113
0.00110941
0.00110764
0.00110608
0.00110469
0.00110346
0.00110247
0.00110167
0.00110097
0.00110032
0.00109988
0.00109961
0.00109939
0.00109915
0.00109901
0.00109901
0.00109907
0.0010991
0.00109916
0.00109921
0.00109934
0.00109953
0.0010997
0.00109979
0.00109988
0.00109999
0.00110012
0.00110013
0.00109999
0.00109986
0.00109967
0.00109947
0.00109915
0.00109888
0.00109847
0.00109797
0.00109741
0.00109682
0.00109621
0.00109558
0.00109487
0.0010941
0.00109331
0.0010925
0.0010917
0.0010909
0.00109001
0.00108908
0.00108796
0.00108703
0.00108608
0.00108515
0.00108435
0.00108335
0.00108162
0.00108042
0.0010796
0.00107888
0.00107932
0.00107973
0.00108121
0.00107877
0.0010829
0.00110123
0.00111286
0.00113607
0.00113886
0.00123044
0.00127484
0.00120528
0.00115868
0.00113047
0.00112831
0.00110112
0.00109801
0.00108082
0.0010718
0.00107286
0.00107775
0.00108226
0.001109
0.00112306
0.00113264
0.00114607
0.00117172
0.00122782
0.00126252
0.00120548
0.00116586
0.00113714
0.00113013
0.00109903
0.00109376
0.00108192
0.00107697
0.00108619
0.00108119
0.00107727
0.00106685
0.00112346
0.00113535
0.00113066
0.00123664
0.00133822
0.00160751
0.00186993
0.00245363
0.00272513
0.00248286
0.00216433
0.00189338
0.00170791
0.00155881
0.0014587
0.00137002
0.0012962
0.0012717
0.00126797
0.00125615
0.00123156
0.00120259
0.00117555
0.0011526
0.00113391
0.0011185
0.00110599
0.00109589
0.00108742
0.00108041
0.00107468
0.00107023
0.00106669
0.00106376
0.0010615
0.00105975
0.00105838
0.0010574
0.00105694
0.00105669
0.00105646
0.00105633
0.00105634
0.00105637
0.00105649
0.0010567
0.00105697
0.00105721
0.00105749
0.00105778
0.00105815
0.00105858
0.00105898
0.00105932
0.00105965
0.00105998
0.00106033
0.00106075
0.00106125
0.00106176
0.00106224
0.00106273
0.00106313
0.00106342
0.0010637
0.001064
0.00106426
0.00106444
0.00106453
0.00106458
0.00106471
0.00106501
0.00106542
0.00106584
0.00106619
0.0010665
0.00106678
0.00106704
0.00106721
0.00106735
0.00106754
0.00106782
0.00106802
0.00106797
0.00106784
0.00106796
0.00106827
0.00106838
0.00106832
0.00106839
0.00106901
0.00106812
0.00107367
0.00107989
0.00112374
0.00119027
0.00130824
0.00128833
0.0917603
0.0784442
0.0716364
0.0669004
0.0674738
0.0721374
0.0805275
0.0910056
0.102647
0.116193
0.129027
0.140391
0.152842
0.169118
0.189173
0.207306
0.216734
0.213515
0.199185
0.177387
0.152368
0.130715
0.11449
0.102164
0.0922422
0.0841626
0.0777464
0.0733792
0.0707397
0.0692382
0.0682662
0.0673204
0.0654947
0.0621782
0.05785
0.0538008
0.0506119
0.0481774
0.04627
0.0445818
0.0431085
0.0418129
0.0404341
0.038951
0.0376587
0.0366296
0.035849
0.035355
0.0350379
0.0342666
0.0326596
0.0308896
0.0293747
0.028288
0.0276105
0.0273399
0.0275263
0.0283328
0.0297604
0.0314937
0.0330964
0.0346428
0.0365539
0.0390787
0.0417556
0.0434166
0.0439677
0.0444515
0.0455373
0.0472544
0.0498284
0.0537721
0.0590078
0.0649312
0.0709716
0.0773689
0.0849308
0.0948085
0.108278
0.127115
0.153162
0.186803
0.226764
0.270148
0.313334
0.352055
0.385289
0.412222
0.432672
0.446706
0.448804
0.448332
0.424165
0.377721
0.31985
0.266025
0.217124
0.176807
0.146383
0.125578
0.113301
0.108932
0.109379
0.110852
0.111523
0.110503
0.109032
0.108169
0.109266
0.113212
0.11614
0.116241
0.110799
0.098104
0.0819864
0.063674
0.0466391
0.0305823
0.0191414
0.011825
0.0081855
0.00620672
0.00530269
0.00498453
0.00501589
0.00522415
0.00593205
0.00686619
0.00759696
0.00700938
0.00580845
0.00514914
0.00447457
0.00390727
0.0033954
0.00315719
0.00289638
0.00267047
0.00251129
0.00240691
0.00233193
0.00228812
0.00226497
0.00225216
0.00224664
0.00224386
0.00223984
0.00223723
0.00224158
0.0022521
0.00226347
0.00227127
0.00227565
0.00228028
0.00228944
0.00230199
0.00231389
0.00232281
0.00232879
0.00233617
0.00234553
0.00235274
0.00235585
0.00235902
0.0023649
0.00236906
0.00236861
0.00236757
0.00236822
0.0023678
0.00236467
0.00236009
0.00235569
0.0023521
0.00234611
0.00233651
0.00232703
0.00231851
0.00230891
0.00229634
0.00228086
0.00226654
0.00225452
0.00224085
0.00222493
0.00220639
0.00218634
0.00216617
0.00214696
0.00213019
0.0021128
0.00209398
0.00207409
0.00205183
0.00202989
0.00201042
0.00199283
0.00197385
0.00195282
0.00193108
0.00191068
0.00189317
0.0018754
0.0018553
0.00183421
0.00181373
0.0017951
0.00177758
0.0017601
0.0017415
0.00172176
0.00170282
0.00168567
0.00166925
0.00165262
0.00163556
0.00161788
0.00160036
0.00158422
0.00156955
0.00155542
0.00154084
0.00152567
0.00151033
0.00149596
0.00148314
0.00147131
0.00146005
0.00144886
0.00143756
0.00142624
0.00141526
0.00140545
0.00139677
0.00138861
0.00138085
0.00137353
0.00136635
0.00135928
0.00135304
0.00134796
0.00134361
0.00133937
0.00133498
0.00133046
0.00132616
0.00132259
0.00131999
0.00131824
0.00131683
0.00131495
0.0013126
0.00131029
0.00130824
0.00130666
0.00130567
0.00130497
0.0013039
0.00130243
0.00130157
0.00130126
0.00130095
0.00130056
0.00129961
0.00129843
0.00129782
0.00129786
0.00129809
0.00129802
0.00129776
0.00129725
0.00129638
0.00129591
0.00129585
0.00129559
0.0012954
0.00129565
0.001296
0.00129581
0.00129507
0.0012946
0.0012947
0.0012952
0.00129572
0.00129578
0.00129541
0.00129525
0.00129557
0.00129578
0.00129593
0.00129608
0.00129595
0.00129575
0.00129579
0.00129565
0.00129528
0.00129479
0.00129415
0.00129357
0.00129292
0.00129184
0.00129053
0.00128902
0.00128737
0.00128569
0.0012836
0.0012812
0.00127864
0.00127576
0.00127275
0.00126954
0.00126599
0.00126227
0.00125838
0.00125427
0.00124986
0.00124525
0.0012406
0.00123587
0.00123102
0.00122595
0.00122071
0.00121544
0.00121013
0.00120484
0.00119946
0.00119406
0.00118875
0.00118341
0.00117807
0.00117282
0.00116775
0.00116278
0.00115793
0.00115321
0.00114858
0.00114415
0.00113981
0.00113554
0.00113154
0.00112772
0.00112398
0.00112037
0.00111696
0.00111375
0.00111065
0.00110769
0.00110495
0.00110237
0.00109996
0.0010978
0.00109579
0.00109386
0.00109211
0.00109055
0.00108913
0.00108793
0.00108686
0.00108583
0.00108492
0.00108419
0.00108358
0.00108309
0.00108266
0.00108232
0.00108202
0.00108182
0.0010817
0.00108157
0.00108145
0.00108143
0.00108143
0.00108146
0.00108146
0.00108148
0.0010815
0.00108156
0.00108155
0.00108154
0.00108146
0.0010814
0.00108122
0.00108108
0.00108087
0.00108068
0.00108037
0.00108006
0.00107976
0.0010793
0.00107892
0.00107835
0.00107789
0.0010773
0.00107675
0.00107613
0.00107554
0.00107483
0.00107415
0.00107339
0.00107269
0.00107207
0.00107133
0.00107045
0.00106975
0.00106872
0.00106809
0.00106818
0.00106746
0.00107179
0.00107205
0.00107107
0.00106761
0.001072
0.00109091
0.00110391
0.00112688
0.00113232
0.00122734
0.00127664
0.00120579
0.001157
0.00112607
0.00112149
0.00109123
0.00108383
0.00106598
0.00106124
0.00105895
0.00106293
0.00107385
0.00110281
0.00111888
0.00114523
0.00115094
0.00123056
0.00126786
0.00123434
0.00118557
0.00114312
0.00112761
0.0011225
0.00109119
0.001084
0.00107049
0.00106283
0.00107218
0.00107089
0.00106101
0.00105462
0.00111776
0.00114921
0.00124415
0.0013201
0.00151951
0.00175313
0.00207595
0.00259507
0.00283495
0.00259942
0.00227189
0.00197278
0.00175215
0.00155745
0.00141172
0.0012972
0.00120219
0.00115602
0.00115022
0.00115667
0.00116078
0.00116082
0.00115662
0.00114884
0.00113903
0.00112839
0.00111774
0.00110755
0.00109804
0.00108952
0.00108235
0.00107598
0.00107028
0.00106533
0.00106119
0.0010577
0.00105477
0.00105238
0.00105038
0.00104872
0.00104749
0.0010466
0.00104579
0.00104506
0.00104449
0.00104409
0.00104374
0.00104353
0.00104351
0.00104355
0.00104357
0.00104362
0.00104372
0.00104389
0.00104409
0.00104428
0.00104446
0.00104464
0.00104481
0.001045
0.00104523
0.00104548
0.0010457
0.00104587
0.00104603
0.00104615
0.00104626
0.00104639
0.00104655
0.00104669
0.00104678
0.00104682
0.00104689
0.00104705
0.00104729
0.00104753
0.00104772
0.00104783
0.00104793
0.00104801
0.00104805
0.00104806
0.00104815
0.00104833
0.00104841
0.00104823
0.00104805
0.00104827
0.00104874
0.00104883
0.00104856
0.00104872
0.00104914
0.00104949
0.0010482
0.00105402
0.00106016
0.00110375
0.00116995
0.00128716
0.00126973
0.0646768
0.0560136
0.0496805
0.0470127
0.0473059
0.0496806
0.0532979
0.0572639
0.0617414
0.0660879
0.0695693
0.0720205
0.0741682
0.0767476
0.0798907
0.0827024
0.0840521
0.0829301
0.079211
0.0737658
0.0677667
0.0623566
0.0579649
0.0541636
0.0505927
0.0473557
0.044513
0.0424115
0.0410828
0.0402834
0.0398055
0.0393707
0.0385125
0.0368525
0.0346615
0.0326306
0.0310874
0.0300435
0.0292722
0.0284867
0.0275072
0.0263698
0.025192
0.0242735
0.0236764
0.0233278
0.0232435
0.023209
0.023046
0.0226042
0.0217624
0.0206803
0.0197546
0.0191732
0.0189558
0.0189848
0.0192454
0.0198422
0.0206591
0.0213761
0.0219756
0.0227547
0.0239099
0.0253909
0.0269077
0.0278697
0.0279922
0.0275958
0.0272523
0.0274691
0.0285424
0.0306185
0.0334956
0.0366218
0.0396636
0.0425955
0.0457177
0.049661
0.0550061
0.0622917
0.0724196
0.0863577
0.104699
0.127378
0.153232
0.180003
0.205637
0.226947
0.243089
0.254952
0.26343
0.268889
0.270852
0.267577
0.264612
0.250696
0.225651
0.195352
0.165455
0.138427
0.115881
0.0969993
0.0820737
0.0704753
0.062202
0.0562523
0.0521162
0.0508386
0.0525651
0.0566364
0.0629824
0.0696148
0.0761799
0.0808236
0.0827739
0.0806999
0.0735086
0.0634568
0.0515651
0.0401626
0.0284026
0.018518
0.0117008
0.00814066
0.00604259
0.00500699
0.00460389
0.00459482
0.00483008
0.00559295
0.00662988
0.0075393
0.00717443
0.00621402
0.00546197
0.00483349
0.00431318
0.00383429
0.00337489
0.00301057
0.00270955
0.00249122
0.00235225
0.00225695
0.00220017
0.00217065
0.00214769
0.00212911
0.002122
0.00212416
0.00212787
0.00212893
0.00212834
0.00213007
0.00213758
0.002148
0.00215612
0.00216034
0.00216112
0.0021631
0.00216829
0.00217426
0.00217815
0.00218021
0.00218148
0.00217972
0.00217638
0.00217516
0.00217599
0.00217625
0.00217464
0.00217095
0.00216484