/*--------------------------------*- C++ -*----------------------------------*\
| =========                 |                                                 |
| \\      /  F ield         | OpenFOAM: The Open Source CFD Toolbox           |
|  \\    /   O peration     | Version:  v2006                                 |
|   \\  /    A nd           | Website:  www.openfoam.com                      |
|    \\/     M anipulation  |                                                 |
\*---------------------------------------------------------------------------*/
FoamFile
{
    version     2.0;
    format      ascii;
    class       volScalarField;
    location    "6";
    object      p;
}
// * * * * * * * * * * * * * * * * * * * * * * * * * * * * * * * * * * * * * //

dimensions      [1 -1 -2 0 0 0 0];


internalField   nonuniform List<scalar> 
33000
(
7405.4
7390.06
7383.22
7374.83
7366.55
7358.1
7349.61
7341.13
7332.73
7324.36
7316.02
7307.67
7299.42
7291.44
7283.88
7276.85
7270.46
7264.51
7258.62
7252.6
7246.01
7239.03
7232.43
7225.89
7219.44
7213.2
7207.13
7201.21
7195.45
7189.83
7184.37
7179.06
7173.91
7168.91
7164.07
7159.39
7154.85
7150.49
7146.3
7142.25
7138.39
7134.7
7131.15
7127.79
7124.57
7121.56
7118.72
7116.04
7113.52
7111.17
7108.99
7107.03
7105.22
7103.6
7102.13
7100.82
7099.66
7098.68
7097.85
7097.21
7096.72
7096.41
7096.25
7096.29
7096.49
7096.83
7097.3
7098
7098.86
7099.87
7101.02
7102.3
7103.69
7105.2
7106.78
7108.53
7110.64
7111
7107.08
7107.94
7113.45
7112.71
7115.87
7117.57
7119.77
7122.11
7125.6
7128.49
7131.69
7135.03
7138.36
7141.73
7145.09
7148.84
7151.93
7155.74
7158.09
7161.57
7161.84
7165.01
7173.44
7178.14
7183.82
7189.96
7195.94
7202.71
7210.34
7217.5
7225.16
7232.46
7240.25
7247.92
7255.71
7263.98
7271.39
7279.65
7285.26
7293.57
7306.04
7315.5
7326.3
7337.26
7348.13
7359.82
7372.18
7384.45
7397.21
7410.1
7423.21
7436.59
7450.26
7464.04
7478.1
7492.25
7506.59
7521.05
7535.68
7550.45
7565.33
7580.36
7595.48
7610.7
7625.99
7641.36
7656.79
7672.27
7687.78
7703.29
7718.79
7734.26
7749.69
7765.08
7780.42
7795.66
7810.79
7825.82
7840.7
7855.46
7870.06
7884.5
7898.76
7912.83
7926.7
7940.36
7953.79
7967
7979.99
7992.72
8005.18
8017.39
8029.34
8041.03
8052.42
8063.53
8074.34
8084.87
8095.12
8105.05
8114.68
8124.01
8133.03
8141.74
8150.15
8158.25
8166.07
8173.58
8180.8
8187.72
8194.34
8200.69
8206.76
8212.57
8218.11
8223.41
8228.46
8233.29
8237.9
8242.3
8246.52
8250.55
8254.41
8258.11
8261.66
8265.09
8268.4
8271.61
8274.71
8277.72
8280.6
8283.37
8285.99
8288.47
8290.79
8292.95
8294.94
8296.75
8298.38
8299.8
8301.03
8302.05
8302.87
8303.48
8303.87
8304.03
8303.97
8303.67
8303.16
8302.41
8301.43
8300.21
8298.76
8297.07
8295.14
8292.98
8290.59
8287.97
8285.11
8282.02
8278.7
8275.16
8271.4
8267.42
8263.22
8258.82
8254.21
8249.4
8244.4
8239.2
8233.81
8228.26
8222.53
8216.64
8210.59
8204.39
8198.04
8191.57
8184.97
8178.25
8171.42
8164.49
8157.47
8150.37
8143.2
8135.96
8128.66
8121.31
8113.93
8106.52
8099.09
8091.65
8084.2
8076.76
8069.33
8061.92
8054.54
8047.2
8039.9
8032.66
8025.47
8018.35
8011.29
8004.31
7997.42
7990.61
7983.9
7977.28
7970.76
7964.35
7958.05
7951.85
7945.78
7939.82
7933.98
7928.26
7922.66
7917.19
7911.84
7906.62
7901.53
7896.56
7891.72
7887
7882.41
7877.94
7873.6
7869.37
7865.27
7861.29
7857.42
7853.67
7850.03
7846.5
7843.08
7839.76
7836.55
7833.44
7830.43
7827.51
7824.69
7821.96
7819.31
7816.75
7814.27
7811.88
7809.56
7807.32
7805.15
7803.06
7801.03
7799.07
7797.18
7795.34
7793.57
7791.86
7790.21
7788.61
7787.07
7785.58
7784.14
7782.74
7781.4
7780.11
7778.86
7777.65
7776.48
7775.36
7774.28
7773.24
7772.24
7771.29
7770.37
7769.51
7768.68
7767.91
7767.18
7766.5
7765.86
7765.28
7764.75
7764.27
7763.84
7763.46
7763.13
7762.85
7762.62
7762.45
7762.32
7762.24
7762.21
7762.23
7762.29
7762.4
7762.56
7762.76
7763
7763.28
7763.6
7763.97
7764.36
7764.8
7765.27
7765.77
7766.3
7766.86
7767.45
7768.07
7768.71
7769.38
7770.07
7770.78
7771.51
7772.25
7773.02
7773.79
7774.58
7775.39
7776.2
7777.02
7777.86
7778.7
7779.54
7780.39
7781.25
7782.1
7782.96
7783.82
7784.68
7785.54
7786.4
7787.26
7788.11
7788.96
7789.81
7790.65
7791.48
7792.31
7793.13
7793.95
7794.76
7795.56
7796.35
7797.14
7797.91
7798.68
7799.43
7800.18
7800.91
7801.64
7802.34
7803.04
7803.73
7804.41
7805.06
7805.71
7806.34
7806.96
7807.56
7808.15
7808.72
7809.27
7809.82
7810.34
7810.86
7811.36
7811.85
7812.32
7812.8
7813.2
7813.66
7814.12
7814.55
7814.96
7815.35
7815.73
7816.09
7816.44
7816.77
7817.1
7817.41
7817.69
7817.99
7818.24
7818.52
7818.77
7819.01
7819.21
7819.49
7819.55
7819.86
7820.1
7820.22
7820.31
7820.43
7820.55
7820.66
7820.78
7820.9
7821.01
7821.13
7821.24
7821.35
7821.45
7821.55
7821.65
7821.74
7821.83
7821.91
7822
7822.07
7822.15
7822.21
7822.28
7822.34
7822.39
7822.44
7822.49
7822.53
7822.57
7822.61
7822.64
7822.66
7822.68
7822.7
7822.72
7822.72
7822.73
7822.73
7822.72
7822.72
7822.7
7822.69
7822.67
7822.64
7822.61
7822.58
7822.54
7822.5
7822.45
7822.4
7822.35
7822.29
7822.23
7822.16
7822.09
7822.02
7821.94
7821.86
7821.77
7821.68
7821.59
7821.49
7821.39
7821.29
7821.18
7821.06
7820.95
7820.82
7820.7
7820.57
7820.44
7820.3
7820.16
7820.02
7819.87
7819.72
7819.56
7819.4
7819.22
7819.11
7818.78
7207.88
7193.47
7186.91
7178.21
7169.79
7161.27
7152.78
7144.32
7135.96
7127.66
7119.34
7110.99
7102.66
7094.58
7086.92
7079.84
7073.13
7066.53
7060.39
7054.55
7048.35
7041.96
7035.5
7029.04
7022.72
7016.54
7010.5
7004.6
6998.84
6993.24
6987.8
6982.51
6977.35
6972.35
6967.52
6962.82
6958.29
6953.95
6949.74
6945.67
6941.82
6938.15
6934.59
6931.19
6928
6925
6922.13
6919.44
6916.95
6914.6
6912.42
6910.44
6908.64
6907
6905.53
6904.23
6903.07
6902.09
6901.28
6900.65
6900.17
6899.9
6899.77
6899.75
6899.91
6900.25
6900.72
6901.39
6902.22
6903.19
6904.28
6905.47
6906.74
6908.13
6909.64
6911.16
6912.36
6913.09
6914.56
6916.95
6916.75
6912.44
6914.42
6922.39
6923.21
6927.11
6929.01
6933.07
6934.28
6938.04
6942.13
6945.48
6949.1
6952.67
6956.1
6959.78
6963.26
6966.63
6969.9
6972.38
6977.18
6977.45
6982.82
6994.27
7000.48
7007.86
7014.09
7021.17
7027.65
7035.19
7043.64
7051.53
7059.63
7067.69
7075.67
7083.91
7092.26
7100.46
7110.19
7116.25
7126.58
7140.84
7152.07
7164
7175.82
7187.6
7200.21
7213.52
7226.69
7240.2
7253.78
7267.54
7281.57
7295.83
7310.18
7324.72
7339.31
7354.11
7368.96
7384.01
7399.14
7414.38
7429.7
7445.09
7460.53
7476.03
7491.55
7507.07
7522.58
7538.08
7553.54
7568.95
7584.29
7599.55
7614.69
7629.73
7644.64
7659.42
7674.04
7688.48
7702.74
7716.82
7730.7
7744.37
7757.82
7771.04
7784.02
7796.76
7809.23
7821.45
7833.41
7845.09
7856.49
7867.6
7878.43
7888.95
7899.19
7909.13
7918.76
7928.09
7937.11
7945.82
7954.23
7962.33
7970.13
7977.64
7984.86
7991.77
7998.39
8004.73
8010.79
8016.59
8022.14
8027.44
8032.5
8037.32
8041.93
8046.33
8050.53
8054.57
8058.43
8062.13
8065.69
8069.12
8072.43
8075.64
8078.75
8081.75
8084.64
8087.41
8090.05
8092.53
8094.86
8097.03
8099.02
8100.84
8102.47
8103.91
8105.14
8106.17
8106.99
8107.6
8107.99
8108.16
8108.1
8107.82
8107.3
8106.55
8105.57
8104.35
8102.9
8101.21
8099.29
8097.13
8094.74
8092.11
8089.25
8086.16
8082.84
8079.29
8075.52
8071.54
8067.34
8062.94
8058.32
8053.5
8048.49
8043.28
8037.9
8032.33
8026.6
8020.7
8014.64
8008.43
8002.08
7995.59
7988.98
7982.25
7975.41
7968.47
7961.44
7954.33
7947.15
7939.89
7932.59
7925.23
7917.83
7910.41
7902.97
7895.52
7888.06
7880.61
7873.17
7865.75
7858.36
7851.01
7843.7
7836.45
7829.25
7822.12
7815.06
7808.07
7801.17
7794.36
7787.63
7781.01
7774.49
7768.07
7761.76
7755.56
7749.48
7743.52
7737.67
7731.95
7726.35
7720.88
7715.53
7710.3
7705.2
7700.23
7695.39
7690.67
7686.08
7681.61
7677.27
7673.04
7668.94
7664.95
7661.09
7657.34
7653.7
7650.17
7646.75
7643.43
7640.22
7637.11
7634.1
7631.19
7628.36
7625.63
7622.99
7620.43
7617.95
7615.56
7613.24
7611
7608.84
7606.74
7604.72
7602.76
7600.87
7599.04
7597.27
7595.56
7593.91
7592.31
7590.77
7589.27
7587.83
7586.44
7585.1
7583.81
7582.55
7581.35
7580.18
7579.06
7577.98
7576.94
7575.94
7574.98
7574.07
7573.2
7572.37
7571.6
7570.87
7570.18
7569.55
7568.97
7568.44
7567.96
7567.52
7567.14
7566.82
7566.54
7566.31
7566.14
7566.01
7565.93
7565.9
7565.92
7565.99
7566.1
7566.26
7566.46
7566.7
7566.99
7567.31
7567.68
7568.08
7568.51
7568.98
7569.49
7570.02
7570.59
7571.18
7571.8
7572.45
7573.12
7573.81
7574.52
7575.26
7576
7576.77
7577.55
7578.35
7579.15
7579.97
7580.8
7581.63
7582.47
7583.32
7584.17
7585.03
7585.89
7586.75
7587.62
7588.48
7589.34
7590.2
7591.06
7591.91
7592.77
7593.61
7594.46
7595.29
7596.12
7596.95
7597.77
7598.58
7599.38
7600.17
7600.96
7601.73
7602.5
7603.26
7604
7604.73
7605.46
7606.17
7606.88
7607.55
7608.24
7608.89
7609.55
7610.17
7610.8
7611.39
7611.98
7612.54
7613.1
7613.66
7614.17
7614.71
7615.19
7615.64
7616.1
7616.63
7617.06
7617.55
7617.97
7618.39
7618.8
7619.19
7619.57
7619.92
7620.28
7620.59
7620.94
7621.21
7621.54
7621.81
7622.11
7622.32
7622.65
7622.69
7623.07
7623.35
7623.51
7623.63
7623.79
7623.94
7624.08
7624.21
7624.33
7624.46
7624.58
7624.7
7624.82
7624.93
7625.04
7625.15
7625.26
7625.36
7625.46
7625.55
7625.64
7625.72
7625.81
7625.88
7625.96
7626.02
7626.09
7626.15
7626.2
7626.26
7626.3
7626.35
7626.38
7626.42
7626.45
7626.47
7626.5
7626.51
7626.53
7626.53
7626.54
7626.54
7626.53
7626.53
7626.51
7626.5
7626.48
7626.45
7626.42
7626.39
7626.35
7626.31
7626.26
7626.21
7626.16
7626.1
7626.04
7625.97
7625.9
7625.83
7625.75
7625.67
7625.58
7625.49
7625.4
7625.3
7625.2
7625.1
7624.99
7624.87
7624.76
7624.63
7624.51
7624.38
7624.25
7624.11
7623.97
7623.83
7623.68
7623.53
7623.37
7623.21
7623.03
7622.92
7622.59
7011.53
6997.9
6990.83
6981.94
6973.26
6964.64
6956.12
6947.67
6939.32
6931.06
6922.82
6914.6
6906.47
6898.48
6890.84
6883.72
6877.04
6870.48
6863.96
6857.52
6851.09
6844.69
6838.26
6831.87
6825.6
6819.46
6813.44
6807.56
6801.83
6796.25
6790.82
6785.54
6780.38
6775.38
6770.54
6765.84
6761.32
6756.97
6752.76
6748.7
6744.81
6741.13
6737.59
6734.18
6731.03
6728
6725.12
6722.42
6719.92
6717.59
6715.42
6713.43
6711.62
6709.96
6708.5
6707.2
6706.08
6705.12
6704.36
6703.72
6703.26
6703.01
6702.86
6702.84
6703.01
6703.3
6703.78
6704.43
6705.23
6706.17
6707.22
6708.39
6709.64
6710.98
6712.37
6713.72
6714.93
6716.05
6717.37
6718.83
6720.21
6722.41
6725.21
6725.16
6720.84
6724.21
6733.03
6736.11
6739.02
6742.68
6746.06
6748.33
6752.13
6756.77
6760.12
6764.19
6767.64
6771.42
6775.37
6779.37
6784.2
6789.08
6792.49
6797.78
6798.73
6805.16
6817.6
6825.26
6833.66
6840.08
6847.76
6854.51
6862.53
6871.4
6879.62
6888.2
6896.72
6905.71
6915.47
6925.44
6934.75
6945.27
6952.25
6963.48
6979.17
6991.44
7004.38
7017.03
7029.62
7042.97
7057.13
7070.92
7085.17
7099.22
7113.57
7127.92
7142.56
7157.4
7172.32
7187.41
7202.58
7217.86
7233.22
7248.67
7264.15
7279.69
7295.24
7310.8
7326.35
7341.9
7357.4
7372.85
7388.22
7403.5
7418.68
7433.76
7448.7
7463.51
7478.15
7492.63
7506.91
7521
7534.9
7548.59
7562.06
7575.3
7588.3
7601.05
7613.54
7625.77
7637.73
7649.42
7660.83
7671.95
7682.78
7693.31
7703.54
7713.48
7723.12
7732.44
7741.46
7750.16
7758.57
7766.67
7774.46
7781.96
7789.16
7796.07
7802.69
7809.02
7815.07
7820.87
7826.4
7831.7
7836.76
7841.59
7846.2
7850.59
7854.8
7858.83
7862.7
7866.41
7869.98
7873.41
7876.73
7879.94
7883.06
7886.06
7888.96
7891.74
7894.38
7896.87
7899.21
7901.39
7903.4
7905.23
7906.86
7908.31
7909.55
7910.6
7911.43
7912.04
7912.44
7912.61
7912.56
7912.29
7911.77
7911.03
7910.05
7908.83
7907.38
7905.7
7903.77
7901.61
7899.22
7896.59
7893.72
7890.62
7887.3
7883.74
7879.97
7875.98
7871.78
7867.36
7862.73
7857.89
7852.87
7847.65
7842.25
7836.67
7830.92
7825
7818.92
7812.7
7806.33
7799.83
7793.2
7786.45
7779.59
7772.63
7765.58
7758.45
7751.24
7743.97
7736.64
7729.26
7721.85
7714.4
7706.94
7699.46
7691.98
7684.51
7677.05
7669.61
7662.21
7654.83
7647.51
7640.23
7633.02
7625.87
7618.79
7611.79
7604.87
7598.04
7591.31
7584.67
7578.13
7571.7
7565.38
7559.18
7553.08
7547.11
7541.26
7535.53
7529.92
7524.44
7519.09
7513.86
7508.75
7503.78
7498.93
7494.21
7489.62
7485.15
7480.8
7476.58
7472.47
7468.49
7464.62
7460.87
7457.23
7453.7
7450.28
7446.97
7443.76
7440.65
7437.64
7434.73
7431.9
7429.17
7426.53
7423.98
7421.51
7419.11
7416.8
7414.56
7412.4
7410.31
7408.29
7406.33
7404.44
7402.61
7400.85
7399.14
7397.49
7395.9
7394.36
7392.87
7391.43
7390.04
7388.7
7387.4
7386.15
7384.94
7383.77
7382.65
7381.57
7380.53
7379.52
7378.57
7377.65
7376.78
7375.95
7375.17
7374.44
7373.76
7373.13
7372.54
7372.01
7371.53
7371.1
7370.72
7370.39
7370.11
7369.89
7369.71
7369.59
7369.51
7369.49
7369.51
7369.58
7369.69
7369.85
7370.06
7370.31
7370.6
7370.93
7371.29
7371.7
7372.14
7372.62
7373.13
7373.67
7374.24
7374.84
7375.47
7376.12
7376.8
7377.5
7378.22
7378.95
7379.71
7380.48
7381.27
7382.07
7382.88
7383.71
7384.54
7385.38
7386.23
7387.09
7387.94
7388.81
7389.67
7390.54
7391.41
7392.27
7393.14
7394.01
7394.87
7395.73
7396.58
7397.43
7398.28
7399.12
7399.96
7400.78
7401.6
7402.41
7403.22
7404.01
7404.81
7405.58
7406.35
7407.1
7407.86
7408.59
7409.32
7410.03
7410.72
7411.41
7412.09
7412.75
7413.4
7414.02
7414.64
7415.25
7415.84
7416.43
7416.98
7417.53
7418
7418.52
7419.07
7419.56
7420.06
7420.52
7420.97
7421.42
7421.85
7422.28
7422.67
7423.07
7423.43
7423.8
7424.12
7424.48
7424.78
7425.12
7425.36
7425.74
7425.79
7426.23
7426.54
7426.73
7426.87
7427.04
7427.21
7427.37
7427.54
7427.7
7427.85
7427.99
7428.12
7428.25
7428.38
7428.51
7428.63
7428.74
7428.86
7428.97
7429.07
7429.17
7429.27
7429.37
7429.46
7429.54
7429.62
7429.7
7429.78
7429.84
7429.91
7429.97
7430.02
7430.08
7430.12
7430.17
7430.21
7430.24
7430.27
7430.29
7430.32
7430.33
7430.35
7430.35
7430.36
7430.36
7430.35
7430.35
7430.33
7430.32
7430.29
7430.27
7430.24
7430.21
7430.17
7430.13
7430.08
7430.03
7429.98
7429.92
7429.86
7429.79
7429.72
7429.65
7429.57
7429.49
7429.4
7429.31
7429.22
7429.12
7429.02
7428.91
7428.8
7428.69
7428.57
7428.45
7428.33
7428.2
7428.07
7427.93
7427.79
7427.64
7427.5
7427.34
7427.19
7427.03
7426.85
7426.74
7426.41
6816.03
6802.65
6794.74
6785.58
6776.66
6767.84
6759.18
6750.67
6742.32
6734.09
6725.93
6717.83
6709.82
6701.97
6694.35
6687.01
6679.91
6673.08
6666.43
6659.93
6653.49
6647.07
6640.67
6634.35
6628.12
6622
6616
6610.14
6604.43
6598.85
6593.42
6588.14
6582.99
6577.99
6573.13
6568.42
6563.9
6559.53
6555.32
6551.27
6547.38
6543.67
6540.13
6536.75
6533.58
6530.55
6527.67
6524.97
6522.45
6520.13
6517.98
6515.99
6514.17
6512.53
6511.06
6509.77
6508.66
6507.73
6506.97
6506.35
6505.93
6505.68
6505.54
6505.52
6505.71
6506.02
6506.52
6507.14
6507.92
6508.84
6509.89
6511.05
6512.31
6513.66
6515.04
6516.4
6517.78
6519.24
6520.68
6522.03
6523.38
6525.17
6527.37
6529.74
6532.72
6535.77
6539.11
6540.27
6537.03
6541.75
6550.71
6552.64
6557.56
6560.4
6563.56
6567.68
6572.73
6576.57
6581.08
6585.08
6589.71
6594.46
6599.67
6605.97
6611.27
6617.8
6622.14
6628.44
6629.86
6637.05
6650.88
6658.95
6667.26
6675.2
6683
6691.57
6701.2
6710.3
6719.94
6729.34
6739.64
6750.48
6761.68
6771.85
6783.37
6790.99
6803.18
6819.97
6833.11
6846.83
6860.29
6873.49
6887.56
6902.3
6916.71
6931.47
6946
6960.83
6975.6
6990.7
7005.93
7021.26
7036.69
7052.17
7067.7
7083.28
7098.89
7114.51
7130.13
7145.73
7161.29
7176.79
7192.21
7207.54
7222.78
7237.9
7252.89
7267.73
7282.41
7296.92
7311.25
7325.38
7339.3
7353.02
7366.52
7379.79
7392.81
7405.58
7418.09
7430.34
7442.32
7454.02
7465.45
7476.58
7487.41
7497.95
7508.18
7518.12
7527.75
7537.07
7546.08
7554.78
7563.18
7571.27
7579.06
7586.55
7593.74
7600.63
7607.24
7613.57
7619.63
7625.42
7630.95
7636.24
7641.3
7646.12
7650.74
7655.14
7659.36
7663.39
7667.27
7670.99
7674.57
7678.02
7681.35
7684.57
7687.68
7690.7
7693.6
7696.37
7699.02
7701.52
7703.87
7706.06
7708.08
7709.92
7711.57
7713.03
7714.29
7715.34
7716.19
7716.81
7717.22
7717.4
7717.36
7717.09
7716.59
7715.85
7714.87
7713.65
7712.2
7710.52
7708.6
7706.44
7704.04
7701.4
7698.53
7695.42
7692.09
7688.53
7684.75
7680.74
7676.52
7672.08
7667.43
7662.59
7657.54
7652.31
7646.89
7641.28
7635.5
7629.56
7623.46
7617.21
7610.81
7604.28
7597.62
7590.84
7583.95
7576.96
7569.88
7562.72
7555.48
7548.17
7540.81
7533.41
7525.96
7518.48
7510.98
7503.47
7495.96
7488.46
7480.97
7473.5
7466.06
7458.66
7451.31
7444
7436.76
7429.58
7422.48
7415.46
7408.52
7401.66
7394.9
7388.24
7381.69
7375.24
7368.91
7362.69
7356.58
7350.59
7344.73
7338.99
7333.37
7327.88
7322.52
7317.28
7312.18
7307.19
7302.34
7297.62
7293.02
7288.55
7284.2
7279.97
7275.87
7271.88
7268.02
7264.26
7260.63
7257.1
7253.68
7250.37
7247.16
7244.05
7241.05
7238.13
7235.32
7232.59
7229.95
7227.4
7224.94
7222.55
7220.24
7218.01
7215.85
7213.76
7211.74
7209.79
7207.91
7206.08
7204.32
7202.62
7200.97
7199.38
7197.84
7196.35
7194.91
7193.52
7192.18
7190.88
7189.63
7188.42
7187.25
7186.13
7185.04
7184
7183
7182.04
7181.12
7180.25
7179.42
7178.64
7177.91
7177.22
7176.59
7176
7175.47
7174.99
7174.56
7174.18
7173.85
7173.58
7173.35
7173.18
7173.06
7172.99
7172.96
7172.99
7173.06
7173.18
7173.35
7173.56
7173.81
7174.11
7174.45
7174.82
7175.24
7175.69
7176.17
7176.69
7177.24
7177.82
7178.43
7179.07
7179.73
7180.42
7181.13
7181.85
7182.6
7183.37
7184.15
7184.95
7185.76
7186.58
7187.41
7188.25
7189.1
7189.96
7190.82
7191.69
7192.56
7193.44
7194.31
7195.19
7196.06
7196.94
7197.8
7198.68
7199.54
7200.4
7201.26
7202.11
7202.96
7203.8
7204.63
7205.46
7206.28
7207.08
7207.88
7208.67
7209.46
7210.23
7210.98
7211.74
7212.47
7213.2
7213.91
7214.62
7215.3
7215.99
7216.63
7217.31
7217.92
7218.58
7219.16
7219.75
7220.27
7220.82
7221.43
7221.94
7222.5
7222.97
7223.48
7223.94
7224.44
7224.87
7225.35
7225.75
7226.2
7226.56
7226.97
7227.36
7227.68
7228.06
7228.33
7228.76
7228.82
7229.31
7229.66
7229.87
7230.03
7230.22
7230.41
7230.6
7230.79
7230.98
7231.16
7231.32
7231.48
7231.64
7231.79
7231.93
7232.06
7232.2
7232.32
7232.45
7232.57
7232.68
7232.79
7232.9
7233
7233.1
7233.2
7233.29
7233.37
7233.46
7233.53
7233.61
7233.68
7233.74
7233.8
7233.86
7233.91
7233.96
7234
7234.04
7234.07
7234.1
7234.13
7234.15
7234.16
7234.18
7234.19
7234.19
7234.19
7234.19
7234.18
7234.16
7234.15
7234.13
7234.1
7234.07
7234.04
7234
7233.96
7233.91
7233.86
7233.81
7233.75
7233.69
7233.62
7233.55
7233.48
7233.4
7233.32
7233.23
7233.14
7233.05
7232.95
7232.85
7232.74
7232.63
7232.52
7232.4
7232.28
7232.16
7232.03
7231.89
7231.76
7231.62
7231.47
7231.32
7231.17
7231.02
7230.86
7230.68
7230.57
7230.24
6620.49
6607.19
6598.43
6588.92
6579.69
6570.65
6561.85
6553.26
6544.87
6536.65
6528.54
6520.53
6512.66
6504.91
6497.33
6489.94
6482.74
6475.75
6468.91
6462.21
6455.65
6449.18
6442.78
6436.47
6430.26
6424.16
6418.17
6412.31
6406.61
6401.04
6395.61
6390.32
6385.16
6380.14
6375.27
6370.57
6366.04
6361.66
6357.44
6353.39
6349.48
6345.76
6342.23
6338.85
6335.66
6332.63
6329.76
6327.06
6324.54
6322.21
6320.05
6318.06
6316.25
6314.63
6313.16
6311.88
6310.8
6309.88
6309.12
6308.54
6308.11
6307.87
6307.76
6307.78
6307.99
6308.36
6308.86
6309.49
6310.26
6311.18
6312.23
6313.41
6314.69
6316.06
6317.49
6318.97
6320.53
6322.12
6323.78
6325.53
6327.4
6329.33
6331.26
6333.28
6335.82
6339.14
6342.52
6345.75
6349.35
6353.19
6354.23
6351.02
6356.17
6366.42
6368.76
6373.6
6377.14
6380.57
6385.24
6391.07
6395.67
6401.11
6405.79
6411.43
6416.8
6423
6430.03
6436.3
6443.62
6448.08
6455.34
6456.79
6464.61
6479.32
6488.04
6496.9
6505.58
6514.27
6523.85
6534.63
6544.7
6555.34
6565.72
6576.98
6588.86
6600.99
6612.02
6624.38
6632.65
6645.56
6663.52
6677.13
6691.95
6705.54
6719.77
6733.48
6748.14
6763.51
6778.51
6793.8
6809.01
6824.34
6839.83
6855.48
6871.09
6886.78
6902.45
6918.14
6933.84
6949.53
6965.17
6980.74
6996.24
7011.65
7026.96
7042.15
7057.2
7072.1
7086.83
7101.4
7115.77
7129.95
7143.92
7157.68
7171.21
7184.51
7197.56
7210.36
7222.91
7235.18
7247.18
7258.9
7270.33
7281.48
7292.32
7302.87
7313.11
7323.05
7332.67
7341.99
7351
7359.7
7368.09
7376.18
7383.96
7391.43
7398.61
7405.5
7412.1
7418.43
7424.49
7430.28
7435.81
7441.1
7446.15
7450.99
7455.62
7460.03
7464.26
7468.31
7472.2
7475.93
7479.53
7482.99
7486.33
7489.56
7492.68
7495.69
7498.59
7501.36
7504.01
7506.52
7508.88
7511.08
7513.11
7514.96
7516.62
7518.09
7519.36
7520.43
7521.29
7521.93
7522.34
7522.53
7522.5
7522.24
7521.75
7521.01
7520.04
7518.83
7517.38
7515.69
7513.77
7511.6
7509.2
7506.56
7503.68
7500.56
7497.22
7493.65
7489.85
7485.82
7481.58
7477.12
7472.45
7467.58
7462.51
7457.25
7451.8
7446.17
7440.35
7434.38
7428.24
7421.95
7415.52
7408.95
7402.25
7395.44
7388.51
7381.48
7374.36
7367.15
7359.86
7352.51
7345.11
7337.66
7330.17
7322.65
7315.11
7307.56
7300
7292.45
7284.92
7277.41
7269.93
7262.49
7255.1
7247.76
7240.48
7233.27
7226.13
7219.08
7212.1
7205.22
7198.43
7191.75
7185.17
7178.7
7172.34
7166.09
7159.97
7153.96
7148.08
7142.33
7136.7
7131.19
7125.82
7120.58
7115.46
7110.47
7105.61
7100.88
7096.28
7091.8
7087.45
7083.22
7079.12
7075.13
7071.27
7067.51
7063.88
7060.35
7056.94
7053.63
7050.42
7047.32
7044.31
7041.41
7038.6
7035.88
7033.24
7030.7
7028.24
7025.85
7023.55
7021.33
7019.17
7017.09
7015.08
7013.13
7011.25
7009.44
7007.68
7005.98
7004.34
7002.75
7001.21
6999.72
6998.29
6996.9
6995.55
6994.25
6993
6991.79
6990.62
6989.49
6988.4
6987.35
6986.35
6985.39
6984.47
6983.59
6982.76
6981.98
6981.25
6980.56
6979.93
6979.35
6978.81
6978.33
6977.9
6977.52
6977.2
6976.92
6976.7
6976.53
6976.41
6976.35
6976.33
6976.36
6976.44
6976.57
6976.74
6976.96
6977.22
6977.53
6977.87
6978.26
6978.68
6979.14
6979.64
6980.17
6980.73
6981.33
6981.95
6982.6
6983.27
6983.97
6984.7
6985.44
6986.2
6986.98
6987.78
6988.59
6989.41
6990.24
6991.09
6991.94
6992.81
6993.68
6994.55
6995.43
6996.31
6997.19
6998.08
6998.97
6999.86
7000.73
7001.62
7002.49
7003.37
7004.24
7005.1
7005.96
7006.81
7007.67
7008.5
7009.33
7010.14
7010.96
7011.77
7012.56
7013.34
7014.11
7014.88
7015.63
7016.38
7017.11
7017.82
7018.53
7019.22
7019.9
7020.58
7021.23
7021.82
7022.44
7023.08
7023.68
7024.27
7024.82
7025.38
7025.89
7026.42
7026.94
7027.43
7027.93
7028.38
7028.86
7029.27
7029.72
7030.15
7030.53
7030.94
7031.3
7031.64
7031.79
7032.31
7032.69
7032.92
7033.11
7033.32
7033.54
7033.75
7033.98
7034.19
7034.39
7034.58
7034.77
7034.95
7035.12
7035.28
7035.44
7035.59
7035.74
7035.88
7036.02
7036.15
7036.27
7036.4
7036.51
7036.63
7036.74
7036.84
7036.94
7037.04
7037.13
7037.21
7037.3
7037.38
7037.45
7037.52
7037.58
7037.64
7037.7
7037.75
7037.8
7037.84
7037.88
7037.91
7037.94
7037.97
7037.99
7038.01
7038.02
7038.03
7038.03
7038.03
7038.03
7038.02
7038
7037.99
7037.97
7037.94
7037.91
7037.88
7037.84
7037.8
7037.75
7037.7
7037.65
7037.59
7037.53
7037.46
7037.39
7037.32
7037.24
7037.16
7037.07
7036.98
7036.89
7036.79
7036.69
7036.58
7036.47
7036.36
7036.24
7036.12
7035.99
7035.87
7035.73
7035.6
7035.46
7035.31
7035.16
7035.01
7034.85
7034.7
7034.52
7034.41
7034.08
6424.14
6410.75
6401.47
6391.63
6382.16
6372.96
6364.03
6355.37
6346.92
6338.69
6330.61
6322.65
6314.82
6307.12
6299.57
6292.19
6284.96
6277.89
6270.99
6264.23
6257.58
6251.05
6244.62
6238.29
6232.06
6225.94
6219.96
6214.11
6208.4
6202.81
6197.38
6192.08
6186.91
6181.86
6177
6172.3
6167.74
6163.36
6159.15
6155.08
6151.14
6147.42
6143.87
6140.5
6137.3
6134.26
6131.4
6128.73
6126.18
6123.83
6121.67
6119.72
6117.93
6116.29
6114.83
6113.57
6112.5
6111.59
6110.85
6110.29
6109.88
6109.64
6109.55
6109.62
6109.86
6110.26
6110.8
6111.47
6112.25
6113.18
6114.26
6115.48
6116.81
6118.24
6119.73
6121.34
6123.01
6124.76
6126.61
6128.57
6130.66
6132.88
6135.2
6137.72
6140.4
6143.17
6146.03
6148.95
6152.21
6155.87
6159.41
6163.6
6168.11
6169.43
6166.17
6172.3
6183.71
6186.51
6191.92
6196.15
6200.06
6205.76
6212.39
6218.15
6223.94
6230.21
6235.65
6242.43
6248.5
6255.57
6263.06
6270.56
6276.21
6283.94
6285.91
6294.3
6310.25
6319.74
6329.48
6339.04
6348.67
6359.18
6371.01
6381.96
6393.51
6404.75
6416.87
6429.61
6442.6
6454.26
6467.48
6476.1
6489.95
6508.27
6522.85
6538.07
6552.16
6566.97
6581.04
6596.26
6612.04
6627.5
6643.14
6658.75
6674.38
6690.14
6705.98
6721.77
6737.59
6753.36
6769.08
6784.75
6800.35
6815.84
6831.25
6846.51
6861.63
6876.59
6891.38
6906.01
6920.45
6934.7
6948.73
6962.53
6976.11
6989.45
7002.54
7015.39
7027.97
7040.28
7052.31
7064.05
7075.5
7086.66
7097.53
7108.09
7118.34
7128.28
7137.91
7147.22
7156.23
7164.93
7173.33
7181.41
7189.18
7196.65
7203.82
7210.7
7217.31
7223.64
7229.7
7235.49
7241.04
7246.32
7251.39
7256.23
7260.87
7265.31
7269.56
7273.63
7277.53
7281.29
7284.9
7288.38
7291.73
7294.97
7298.09
7301.1
7303.99
7306.76
7309.4
7311.91
7314.27
7316.47
7318.51
7320.36
7322.03
7323.52
7324.8
7325.88
7326.75
7327.4
7327.83
7328.03
7328.01
7327.75
7327.26
7326.54
7325.57
7324.37
7322.92
7321.23
7319.3
7317.13
7314.72
7312.07
7309.17
7306.05
7302.69
7299.1
7295.28
7291.24
7286.97
7282.48
7277.79
7272.89
7267.79
7262.49
7257
7251.33
7245.48
7239.46
7233.28
7226.95
7220.47
7213.85
7207.11
7200.24
7193.26
7186.18
7179
7171.74
7164.4
7156.99
7149.53
7142.03
7134.48
7126.91
7119.31
7111.7
7104.09
7096.49
7088.91
7081.34
7073.81
7066.32
7058.88
7051.49
7044.17
7036.91
7029.73
7022.63
7015.62
7008.7
7001.88
6995.15
6988.54
6982.04
6975.65
6969.38
6963.23
6957.21
6951.31
6945.53
6939.88
6934.37
6928.98
6923.72
6918.6
6913.6
6908.73
6904
6899.39
6894.91
6890.55
6886.32
6882.22
6878.23
6874.36
6870.61
6866.98
6863.46
6860.04
6856.74
6853.54
6850.44
6847.44
6844.54
6841.74
6839.02
6836.4
6833.86
6831.41
6829.04
6826.74
6824.52
6822.38
6820.3
6818.3
6816.36
6814.48
6812.67
6810.92
6809.22
6807.58
6806
6804.46
6802.98
6801.54
6800.15
6798.81
6797.5
6796.25
6795.03
6793.86
6792.73
6791.64
6790.59
6789.58
6788.62
6787.7
6786.82
6785.99
6785.21
6784.47
6783.79
6783.15
6782.57
6782.03
6781.55
6781.12
6780.75
6780.42
6780.15
6779.93
6779.77
6779.65
6779.59
6779.58
6779.62
6779.71
6779.84
6780.03
6780.25
6780.53
6780.84
6781.2
6781.6
6782.04
6782.52
6783.03
6783.57
6784.15
6784.76
6785.4
6786.06
6786.76
6787.47
6788.21
6788.97
6789.75
6790.54
6791.35
6792.18
6793.02
6793.87
6794.73
6795.61
6796.48
6797.37
6798.25
6799.15
6800.04
6800.95
6801.84
6802.74
6803.63
6804.53
6805.42
6806.31
6807.19
6808.08
6808.96
6809.82
6810.68
6811.53
6812.37
6813.21
6814.03
6814.85
6815.66
6816.47
6817.26
6818.05
6818.81
6819.58
6820.31
6821.06
6821.78
6822.51
6823.19
6823.84
6824.49
6825.2
6825.81
6826.46
6827.05
6827.64
6828.21
6828.77
6829.34
6829.86
6830.43
6830.9
6831.44
6831.86
6832.39
6832.81
6833.31
6833.66
6834.22
6834.34
6834.95
6835.38
6835.61
6835.85
6836.09
6836.33
6836.58
6836.83
6837.08
6837.32
6837.55
6837.77
6837.98
6838.18
6838.38
6838.57
6838.75
6838.93
6839.1
6839.26
6839.42
6839.57
6839.71
6839.85
6839.99
6840.11
6840.24
6840.36
6840.47
6840.58
6840.69
6840.79
6840.89
6840.98
6841.07
6841.15
6841.23
6841.3
6841.37
6841.44
6841.5
6841.55
6841.6
6841.65
6841.69
6841.73
6841.77
6841.8
6841.82
6841.84
6841.86
6841.87
6841.88
6841.88
6841.88
6841.88
6841.87
6841.86
6841.84
6841.82
6841.79
6841.76
6841.73
6841.69
6841.65
6841.6
6841.55
6841.5
6841.44
6841.38
6841.31
6841.24
6841.17
6841.09
6841
6840.92
6840.83
6840.73
6840.64
6840.53
6840.43
6840.32
6840.21
6840.09
6839.97
6839.84
6839.71
6839.58
6839.44
6839.3
6839.16
6839.01
6838.86
6838.7
6838.55
6838.36
6838.26
6837.92
6226.97
6213.42
6203.63
6193.53
6183.9
6174.61
6165.63
6156.94
6148.5
6140.28
6132.24
6124.33
6116.55
6108.9
6101.38
6093.98
6086.75
6079.65
6072.69
6065.88
6059.19
6052.62
6046.17
6039.81
6033.53
6027.4
6021.41
6015.54
6009.79
6004.2
5998.76
5993.46
5988.24
5983.19
5978.33
5973.59
5969.04
5964.66
5960.44
5956.35
5952.39
5948.67
5945.08
5941.69
5938.52
5935.48
5932.61
5929.94
5927.42
5925.05
5922.92
5920.95
5919.19
5917.56
5916.09
5914.82
5913.76
5912.86
5912.13
5911.6
5911.22
5910.99
5910.94
5911.04
5911.31
5911.74
5912.32
5913.03
5913.87
5914.85
5915.96
5917.22
5918.62
5920.13
5921.71
5923.46
5925.28
5927.15
5929.17
5931.31
5933.58
5935.97
5938.5
5941.24
5944.08
5947.06
5950.18
5953.36
5956.55
5959.78
5963.15
5966.89
5971
5975.03
5979.87
5985.01
5986.63
5983.51
5990.82
6003.08
6006.65
6012.93
6017.76
6022.25
6028.97
6036.62
6043.03
6049.79
6056.4
6062.88
6069.61
6076.55
6084
6092.2
6100.28
6106.76
6115.21
6117.5
6126.76
6144.16
6154.59
6165.32
6175.8
6186.35
6197.75
6210.59
6222.4
6234.82
6246.93
6259.58
6273.42
6286.33
6300.28
6312.6
6326.14
6335.62
6349.8
6369.17
6384.22
6399.82
6414.99
6429.84
6445.46
6461.8
6477.61
6493.58
6509.44
6525.27
6541.18
6557.14
6572.97
6588.77
6604.48
6620.09
6635.6
6650.99
6666.19
6681.27
6696.12
6710.84
6725.34
6739.67
6753.75
6767.62
6781.24
6794.63
6807.78
6820.68
6833.3
6845.65
6857.71
6869.49
6880.96
6892.15
6903.03
6913.61
6923.88
6933.83
6943.47
6952.8
6961.81
6970.51
6978.9
6986.98
6994.76
7002.23
7009.41
7016.3
7022.9
7029.24
7035.31
7041.11
7046.67
7051.98
7057.06
7061.92
7066.58
7071.04
7075.31
7079.4
7083.33
7087.1
7090.73
7094.22
7097.59
7100.83
7103.95
7106.95
7109.83
7112.6
7115.23
7117.73
7120.09
7122.28
7124.32
7126.17
7127.86
7129.34
7130.64
7131.72
7132.6
7133.26
7133.7
7133.91
7133.9
7133.64
7133.16
7132.43
7131.47
7130.27
7128.83
7127.14
7125.2
7123.02
7120.6
7117.93
7115.03
7111.89
7108.51
7104.9
7101.06
7096.98
7092.69
7088.18
7083.45
7078.51
7073.37
7068.03
7062.49
7056.77
7050.88
7044.81
7038.58
7032.19
7025.65
7018.98
7012.17
7005.25
6998.2
6991.05
6983.81
6976.48
6969.08
6961.6
6954.08
6946.5
6938.89
6931.25
6923.58
6915.91
6908.23
6900.57
6892.92
6885.29
6877.7
6870.14
6862.64
6855.2
6847.82
6840.51
6833.27
6826.13
6819.07
6812.1
6805.24
6798.47
6791.82
6785.29
6778.86
6772.56
6766.38
6760.33
6754.4
6748.6
6742.94
6737.4
6732
6726.73
6721.59
6716.58
6711.7
6706.96
6702.35
6697.86
6693.5
6689.27
6685.16
6681.17
6677.31
6673.56
6669.93
6666.41
6663
6659.7
6656.51
6653.42
6650.43
6647.53
6644.74
6642.03
6639.42
6636.89
6634.44
6632.08
6629.8
6627.59
6625.45
6623.39
6621.39
6619.46
6617.59
6615.78
6614.03
6612.34
6610.71
6609.12
6607.59
6606.1
6604.67
6603.28
6601.93
6600.63
6599.37
6598.15
6596.98
6595.84
6594.75
6593.7
6592.69
6591.72
6590.8
6589.92
6589.09
6588.3
6587.57
6586.88
6586.24
6585.66
6585.13
6584.65
6584.22
6583.84
6583.52
6583.26
6583.04
6582.88
6582.77
6582.72
6582.71
6582.76
6582.86
6583.01
6583.2
6583.44
6583.73
6584.06
6584.43
6584.85
6585.3
6585.8
6586.32
6586.89
6587.48
6588.11
6588.77
6589.46
6590.17
6590.91
6591.66
6592.45
6593.24
6594.06
6594.89
6595.74
6596.6
6597.47
6598.36
6599.24
6600.14
6601.04
6601.96
6602.86
6603.78
6604.69