/*--------------------------------*- C++ -*----------------------------------*\
| =========                 |                                                 |
| \\      /  F ield         | OpenFOAM: The Open Source CFD Toolbox           |
|  \\    /   O peration     | Version:  v2006                                 |
|   \\  /    A nd           | Website:  www.openfoam.com                      |
|    \\/     M anipulation  |                                                 |
\*---------------------------------------------------------------------------*/
FoamFile
{
    version     2.0;
    format      ascii;
    class       volScalarField;
    location    "6";
    object      p_rgh;
}
// * * * * * * * * * * * * * * * * * * * * * * * * * * * * * * * * * * * * * //

dimensions      [1 -1 -2 0 0 0 0];


internalField   nonuniform List<scalar> 
33000
(
7503.5
7488.16
7481.32
7472.93
7464.65
7456.2
7447.71
7439.23
7430.83
7422.46
7414.13
7405.77
7397.52
7389.54
7381.98
7374.95
7368.56
7362.61
7356.72
7350.7
7344.1
7337.1
7330.49
7323.96
7317.54
7311.3
7305.23
7299.31
7293.54
7287.92
7282.41
7277.09
7271.98
7266.98
7262.12
7257.45
7252.95
7248.59
7244.4
7240.34
7236.43
7232.72
7229.2
7225.89
7222.67
7219.66
7216.82
7214.13
7211.58
7209.21
7207.06
7205.12
7203.32
7201.69
7200.23
7198.92
7197.76
7196.78
7195.95
7195.29
7194.77
7194.44
7194.33
7194.38
7194.58
7194.92
7195.39
7196.1
7196.96
7197.97
7199.12
7200.4
7201.79
7203.28
7204.83
7206.58
7208.69
7209.06
7205.15
7206
7211.52
7210.8
7213.97
7215.67
7217.87
7220.21
7223.69
7226.57
7229.79
7233.13
7236.46
7239.81
7243.16
7246.91
7250.02
7253.84
7256.19
7259.66
7259.93
7263.1
7271.53
7276.22
7281.9
7288.04
7294.02
7300.79
7308.43
7315.6
7323.26
7330.56
7338.33
7345.99
7353.78
7362.08
7369.49
7377.75
7383.35
7391.65
7404.13
7413.59
7424.4
7435.36
7446.23
7457.9
7470.25
7482.53
7495.31
7508.19
7521.31
7534.68
7548.34
7562.13
7576.2
7590.33
7604.67
7619.15
7633.77
7648.55
7663.43
7678.46
7693.57
7708.8
7724.07
7739.44
7754.87
7770.35
7785.87
7801.39
7816.88
7832.35
7847.77
7863.16
7878.51
7893.76
7908.89
7923.91
7938.79
7953.55
7968.15
7982.6
7996.86
8010.93
8024.8
8038.46
8051.89
8065.1
8078.08
8090.81
8103.28
8115.48
8127.44
8139.13
8150.52
8161.62
8172.43
8182.96
8193.21
8203.15
8212.78
8222.1
8231.12
8239.83
8248.24
8256.34
8264.16
8271.68
8278.9
8285.81
8292.43
8298.77
8304.85
8310.66
8316.21
8321.51
8326.55
8331.37
8335.98
8340.4
8344.62
8348.65
8352.51
8356.21
8359.75
8363.18
8366.49
8369.7
8372.81
8375.82
8378.7
8381.46
8384.09
8386.57
8388.89
8391.04
8393.03
8394.85
8396.47
8397.9
8399.12
8400.14
8400.96
8401.58
8401.97
8402.13
8402.07
8401.76
8401.25
8400.5
8399.53
8398.31
8396.86
8395.16
8393.23
8391.08
8388.69
8386.06
8383.21
8380.12
8376.8
8373.26
8369.5
8365.51
8361.32
8356.91
8352.31
8347.5
8342.49
8337.29
8331.91
8326.36
8320.63
8314.74
8308.69
8302.48
8296.14
8289.67
8283.07
8276.35
8269.52
8262.59
8255.57
8248.47
8241.3
8234.06
8226.76
8219.41
8212.02
8204.61
8197.19
8189.75
8182.3
8174.86
8167.42
8160.01
8152.64
8145.3
8138
8130.76
8123.57
8116.45
8109.39
8102.41
8095.52
8088.71
8082
8075.38
8068.86
8062.45
8056.14
8049.95
8043.88
8037.92
8032.08
8026.36
8020.76
8015.29
8009.94
8004.72
7999.63
7994.66
7989.82
7985.1
7980.51
7976.04
7971.7
7967.47
7963.37
7959.39
7955.52
7951.77
7948.13
7944.6
7941.18
7937.86
7934.65
7931.54
7928.53
7925.61
7922.79
7920.06
7917.41
7914.85
7912.37
7909.98
7907.66
7905.42
7903.25
7901.16
7899.13
7897.17
7895.28
7893.44
7891.67
7889.96
7888.31
7886.71
7885.17
7883.68
7882.23
7880.84
7879.5
7878.21
7876.96
7875.75
7874.58
7873.46
7872.38
7871.34
7870.34
7869.39
7868.47
7867.6
7866.78
7866
7865.28
7864.6
7863.96
7863.38
7862.85
7862.37
7861.94
7861.56
7861.23
7860.95
7860.72
7860.55
7860.42
7860.34
7860.31
7860.33
7860.39
7860.5
7860.66
7860.86
7861.1
7861.38
7861.7
7862.06
7862.46
7862.9
7863.37
7863.87
7864.4
7864.96
7865.55
7866.17
7866.81
7867.48
7868.17
7868.88
7869.61
7870.35
7871.12
7871.89
7872.68
7873.49
7874.3
7875.12
7875.96
7876.8
7877.64
7878.49
7879.35
7880.2
7881.06
7881.92
7882.78
7883.64
7884.5
7885.36
7886.21
7887.06
7887.9
7888.75
7889.58
7890.41
7891.23
7892.05
7892.86
7893.66
7894.45
7895.24
7896.01
7896.78
7897.53
7898.28
7899.01
7899.74
7900.44
7901.14
7901.83
7902.51
7903.16
7903.81
7904.44
7905.06
7905.66
7906.25
7906.82
7907.37
7907.92
7908.44
7908.96
7909.46
7909.95
7910.42
7910.9
7911.3
7911.76
7912.22
7912.65
7913.06
7913.45
7913.83
7914.19
7914.54
7914.87
7915.2
7915.51
7915.79
7916.09
7916.34
7916.62
7916.87
7917.11
7917.31
7917.59
7917.64
7917.96
7918.2
7918.32
7918.41
7918.52
7918.64
7918.76
7918.88
7919
7919.11
7919.22
7919.34
7919.44
7919.55
7919.65
7919.74
7919.84
7919.93
7920.01
7920.09
7920.17
7920.24
7920.31
7920.38
7920.44
7920.49
7920.54
7920.59
7920.63
7920.67
7920.71
7920.74
7920.76
7920.78
7920.8
7920.81
7920.82
7920.83
7920.83
7920.82
7920.82
7920.8
7920.79
7920.77
7920.74
7920.71
7920.68
7920.64
7920.6
7920.55
7920.5
7920.45
7920.39
7920.33
7920.26
7920.19
7920.12
7920.04
7919.96
7919.87
7919.78
7919.69
7919.59
7919.49
7919.39
7919.28
7919.16
7919.05
7918.92
7918.8
7918.67
7918.54
7918.4
7918.26
7918.12
7917.97
7917.82
7917.66
7917.5
7917.32
7917.21
7916.88
7502.18
7487.77
7481.21
7472.51
7464.09
7455.58
7447.08
7438.62
7430.27
7421.96
7413.64
7405.29
7396.96
7388.88
7381.22
7374.14
7367.43
7360.82
7354.69
7348.84
7342.62
7336.16
7329.69
7323.25
7317.01
7310.84
7304.79
7298.89
7293.09
7287.36
7281.88
7276.61
7271.56
7266.49
7261.62
7256.95
7252.57
7248.25
7244.02
7239.85
7235.89
7232.22
7228.66
7225.44
7222.3
7219.3
7216.39
7213.61
7211.09
7208.74
7206.58
7204.72
7202.93
7201.29
7199.82
7198.53
7197.37
7196.36
7195.45
7194.76
7194.28
7194.01
7193.88
7193.98
7194.12
7194.36
7194.83
7195.64
7196.51
7197.48
7198.58
7199.72
7200.91
7202.29
7203.8
7205.32
7206.61
7207.39
7208.86
7211.25
7211.05
7206.73
7208.72
7216.69
7217.51
7221.41
7223.29
7227.31
7228.49
7232.32
7236.41
7239.71
7243.3
7246.87
7250.37
7254.07
7257.55
7260.9
7264.15
7266.65
7271.46
7271.71
7277.05
7288.5
7294.71
7302.12
7308.38
7315.45
7321.93
7329.44
7337.84
7345.72
7353.83
7361.9
7369.96
7378.21
7386.54
7394.71
7404.44
7410.51
7420.87
7435.12
7446.3
7458.22
7470.04
7481.82
7494.48
7507.81
7520.98
7534.48
7548.02
7561.78
7575.85
7590.07
7604.42
7618.97
7633.6
7648.4
7663.25
7678.29
7693.43
7708.65
7723.93
7739.32
7754.76
7770.25
7785.79
7801.35
7816.87
7832.32
7847.76
7863.17
7878.54
7893.84
7908.98
7924.01
7938.9
7953.67
7968.29
7982.73
7997.02
8011.11
8025
8038.66
8052.08
8065.3
8078.32
8091.05
8103.51
8115.7
8127.69
8139.39
8150.79
8161.87
8172.68
8183.22
8193.48
8203.42
8213.03
8222.35
8231.38
8240.1
8248.49
8256.58
8264.38
8271.92
8279.15
8286.06
8292.66
8299
8305.06
8310.88
8316.43
8321.73
8326.77
8331.58
8336.18
8340.58
8344.82
8348.86
8352.72
8356.4
8359.95
8363.38
8366.7
8369.93
8373.04
8376.04
8378.92
8381.69
8384.33
8386.83
8389.15
8391.29
8393.29
8395.13
8396.77
8398.2
8399.42
8400.43
8401.25
8401.88
8402.29
8402.46
8402.39
8402.09
8401.57
8400.82
8399.85
8398.65
8397.2
8395.5
8393.56
8391.4
8389.01
8386.39
8383.54
8380.46
8377.13
8373.58
8369.81
8365.81
8361.62
8357.21
8352.6
8347.8
8342.78
8337.57
8332.17
8326.62
8320.89
8314.99
8308.93
8302.71
8296.36
8289.88
8283.26
8276.54
8269.71
8262.77
8255.74
8248.62
8241.44
8234.19
8226.88
8219.52
8212.12
8204.7
8197.27
8189.82
8182.36
8174.91
8167.46
8160.04
8152.65
8145.3
8138
8130.75
8123.55
8116.42
8109.36
8102.37
8095.46
8088.65
8081.93
8075.31
8068.79
8062.37
8056.06
8049.86
8043.78
8037.81
8031.97
8026.25
8020.65
8015.17
8009.82
8004.6
7999.5
7994.53
7989.69
7984.97
7980.38
7975.91
7971.56
7967.34
7963.24
7959.25
7955.39
7951.64
7947.99
7944.46
7941.04
7937.73
7934.52
7931.41
7928.4
7925.48
7922.66
7919.93
7917.29
7914.73
7912.25
7909.86
7907.54
7905.3
7903.14
7901.04
7899.02
7897.06
7895.17
7893.33
7891.57
7889.86
7888.2
7886.61
7885.07
7883.57
7882.13
7880.74
7879.4
7878.11
7876.85
7875.65
7874.48
7873.36
7872.28
7871.24
7870.24
7869.28
7868.37
7867.5
7866.67
7865.9
7865.16
7864.48
7863.85
7863.27
7862.74
7862.26
7861.82
7861.44
7861.12
7860.84
7860.61
7860.43
7860.31
7860.23
7860.2
7860.22
7860.29
7860.4
7860.56
7860.76
7861
7861.29
7861.61
7861.97
7862.38
7862.81
7863.28
7863.79
7864.32
7864.89
7865.48
7866.1
7866.75
7867.42
7868.11
7868.82
7869.55
7870.3
7871.07
7871.85
7872.65
7873.45
7874.27
7875.09
7875.93
7876.77
7877.62
7878.47
7879.33
7880.19
7881.05
7881.92
7882.78
7883.64
7884.5
7885.36
7886.21
7887.07
7887.91
7888.76
7889.59
7890.42
7891.25
7892.07
7892.88
7893.68
7894.47
7895.26
7896.03
7896.8
7897.56
7898.3
7899.03
7899.76
7900.47
7901.18
7901.85
7902.54
7903.19
7903.85
7904.47
7905.1
7905.69
7906.28
7906.84
7907.4
7907.96
7908.47
7909.01
7909.49
7909.94
7910.4
7910.93
7911.36
7911.84
7912.27
7912.69
7913.1
7913.49
7913.87
7914.22
7914.58
7914.89
7915.24
7915.51
7915.84
7916.11
7916.41
7916.62
7916.95
7916.99
7917.37
7917.65
7917.82
7917.94
7918.09
7918.25
7918.39
7918.52
7918.65
7918.77
7918.89
7919.01
7919.13
7919.24
7919.36
7919.46
7919.57
7919.67
7919.76
7919.86
7919.95
7920.03
7920.11
7920.19
7920.26
7920.33
7920.39
7920.45
7920.5
7920.56
7920.6
7920.65
7920.68
7920.72
7920.75
7920.77
7920.8
7920.81
7920.83
7920.84
7920.84
7920.84
7920.84
7920.83
7920.82
7920.8
7920.78
7920.75
7920.72
7920.69
7920.65
7920.61
7920.56
7920.51
7920.46
7920.4
7920.34
7920.27
7920.2
7920.13
7920.05
7919.97
7919.88
7919.79
7919.7
7919.6
7919.5
7919.4
7919.29
7919.17
7919.06
7918.93
7918.81
7918.68
7918.55
7918.41
7918.27
7918.13
7917.98
7917.83
7917.67
7917.51
7917.33
7917.22
7916.89
7502.03
7488.4
7481.34
7472.44
7463.76
7455.14
7446.62
7438.17
7429.82
7421.56
7413.32
7405.1
7396.97
7388.97
7381.33
7374.2
7367.52
7360.97
7354.46
7348.02
7341.58
7335.15
7328.65
7322.2
7315.93
7309.84
7303.92
7298.05
7292.23
7286.41
7280.94
7275.66
7270.5
7265.51
7260.89
7256.32
7251.81
7247.46
7243.26
7239.17
7235.12
7231.24
7227.77
7224.63
7221.52
7218.5
7215.6
7212.78
7210.15
7207.82
7205.65
7203.82
7202.11
7200.46
7199
7197.7
7196.57
7195.55
7194.59
7193.9
7193.44
7193.38
7193.27
7193.05
7193.18
7193.48
7193.96
7194.62
7195.65
7196.66
7197.72
7198.8
7199.91
7201.24
7202.63
7204.07
7205.42
7206.55
7207.87
7209.33
7210.71
7212.91
7215.71
7215.65
7211.31
7214.69
7223.5
7226.5
7229.28
7232.94
7236.46
7238.78
7242.57
7247.15
7250.59
7254.68
7258.12
7261.86
7265.79
7269.8
7274.67
7279.57
7282.98
7288.24
7289.12
7295.54
7307.98
7315.7
7324.14
7330.54
7338.12
7344.84
7352.86
7361.82
7370.11
7378.7
7387.21
7396.16
7405.89
7415.89
7425.25
7435.76
7442.67
7453.83
7469.53
7481.82
7494.86
7507.51
7520.07
7533.35
7547.51
7561.31
7575.55
7589.66
7604.04
7618.39
7632.96
7647.79
7662.73
7677.89
7693.06
7708.32
7723.61
7739.05
7754.53
7770.09
7785.71
7801.27
7816.74
7832.26
7847.76
7863.26
7878.69
7893.97
7909.08
7924.13
7939.11
7953.99
7968.64
7983.05
7997.31
8011.43
8025.37
8039.05
8052.48
8065.73
8078.78
8091.53
8103.96
8116.18
8128.17
8139.91
8151.3
8162.37
8173.2
8183.73
8194
8203.96
8213.57
8222.89
8231.94
8240.62
8248.98
8257.08
8264.87
8272.41
8279.65
8286.56
8293.18
8299.47
8305.49
8311.28
8316.85
8322.19
8327.25
8332.06
8336.62
8341.02
8345.25
8349.32
8353.19
8356.86
8360.41
8363.86
8367.22
8370.43
8373.54
8376.52
8379.42
8382.21
8384.87
8387.36
8389.65
8391.83
8393.87
8395.72
8397.36
8398.81
8400.04
8401.04
8401.87
8402.51
8402.93
8403.11
8403.05
8402.74
8402.22
8401.48
8400.53
8399.33
8397.87
8396.17
8394.23
8392.07
8389.7
8387.08
8384.22
8381.12
8377.78
8374.2
8370.43
8366.44
8362.24
8357.85
8353.22
8348.39
8343.36
8338.13
8332.71
8327.14
8321.41
8315.49
8309.41
8303.17
8296.81
8290.32
8283.7
8276.94
8270.07
8263.09
8256.06
8248.95
8241.74
8234.47
8227.13
8219.73
8212.32
8204.88
8197.43
8189.96
8182.48
8175.01
8167.55
8160.1
8152.68
8145.31
8137.99
8130.73
8123.52
8116.37
8109.29
8102.27
8095.35
8088.54
8081.8
8075.17
8068.63
8062.2
8055.88
8049.67
8043.58
8037.61
8031.76
8026.03
8020.42
8014.94
8009.58
8004.35
7999.25
7994.28
7989.43
7984.71
7980.12
7975.64
7971.29
7967.07
7962.97
7958.99
7955.12
7951.37
7947.73
7944.2
7940.78
7937.47
7934.26
7931.15
7928.14
7925.23
7922.4
7919.67
7917.03
7914.48
7912.01
7909.61
7907.3
7905.06
7902.9
7900.81
7898.79
7896.83
7894.94
7893.11
7891.35
7889.64
7887.99
7886.4
7884.86
7883.37
7881.93
7880.54
7879.19
7877.9
7876.65
7875.44
7874.27
7873.15
7872.07
7871.03
7870.03
7869.07
7868.15
7867.28
7866.45
7865.67
7864.94
7864.26
7863.63
7863.04
7862.51
7862.03
7861.6
7861.22
7860.89
7860.61
7860.39
7860.21
7860.09
7860.01
7859.99
7860.01
7860.08
7860.19
7860.35
7860.56
7860.81
7861.1
7861.42
7861.79
7862.2
7862.64
7863.12
7863.63
7864.17
7864.74
7865.34
7865.97
7866.62
7867.3
7868
7868.72
7869.45
7870.21
7870.98
7871.77
7872.57
7873.38
7874.21
7875.04
7875.88
7876.73
7877.58
7878.44
7879.31
7880.17
7881.04
7881.9
7882.77
7883.64
7884.51
7885.37
7886.23
7887.08
7887.93
7888.78
7889.62
7890.46
7891.28
7892.1
7892.91
7893.72
7894.51
7895.31
7896.08
7896.85
7897.6
7898.36
7899.09
7899.82
7900.53
7901.22
7901.91
7902.59
7903.25
7903.9
7904.52
7905.14
7905.75
7906.34
7906.93
7907.48
7908.03
7908.5
7909.02
7909.57
7910.06
7910.56
7911.02
7911.47
7911.92
7912.35
7912.78
7913.17
7913.57
7913.93
7914.3
7914.62
7914.98
7915.28
7915.62
7915.86
7916.24
7916.29
7916.73
7917.04
7917.23
7917.37
7917.54
7917.7
7917.85
7918.02
7918.18
7918.34
7918.48
7918.61
7918.74
7918.87
7918.99
7919.11
7919.23
7919.35
7919.46
7919.56
7919.67
7919.77
7919.86
7919.95
7920.04
7920.12
7920.2
7920.27
7920.34
7920.41
7920.47
7920.52
7920.58
7920.62
7920.67
7920.7
7920.74
7920.77
7920.79
7920.81
7920.83
7920.84
7920.85
7920.86
7920.86
7920.85
7920.84
7920.83
7920.82
7920.79
7920.77
7920.74
7920.71
7920.67
7920.63
7920.58
7920.53
7920.48
7920.42
7920.36
7920.29
7920.22
7920.15
7920.07
7919.99
7919.9
7919.81
7919.72
7919.62
7919.52
7919.41
7919.31
7919.19
7919.07
7918.95
7918.83
7918.7
7918.57
7918.43
7918.29
7918.14
7918
7917.84
7917.69
7917.53
7917.35
7917.24
7916.91
7502.73
7489.34
7481.44
7472.27
7463.35
7454.53
7445.87
7437.37
7429.03
7420.8
7412.64
7404.54
7396.53
7388.67
7381.05
7373.71
7366.61
7359.78
7353.12
7346.63
7340.19
7333.77
7327.34
7320.91
7314.59
7308.56
7302.68
7296.84
7291.1
7285.34
7279.6
7274.31
7269.22
7264.59
7259.82
7255.12
7250.59
7246.23
7242.02
7237.95
7234.01
7230.25
7226.74
7223.43
7220.27
7217.24
7214.37
7211.64
7208.96
7206.45
7204.42
7202.66
7200.87
7199.23
7197.76
7196.47
7195.36
7194.38
7193.5
7192.82
7192.57
7192.37
7192.2
7191.98
7191.95
7192.27
7192.76
7193.39
7194.35
7195.52
7196.59
7197.75
7198.94
7200.1
7201.4
7202.84
7204.44
7205.93
7207.38
7208.73
7210.07
7211.86
7214.03
7216.32
7219.14
7222.13
7225.46
7226.62
7223.39
7228.11
7237.09
7239.27
7244.25
7247.09
7250.21
7254.2
7259.23
7263.09
7267.75
7271.76
7276.39
7281.15
7286.35
7292.64
7297.92
7304.45
7308.79
7315.05
7316.47
7323.67
7337.52
7345.59
7353.86
7361.8
7369.68
7378.26
7387.9
7396.98
7406.62
7416.03
7426.33
7437.17
7448.31
7458.36
7469.89
7477.66
7489.87
7506.62
7519.66
7533.37
7546.82
7560.02
7574.13
7588.97
7603.38
7618.14
7632.62
7647.38
7662.15
7677.24
7692.56
7707.92
7723.32
7738.7
7754.23
7769.89
7785.55
7801.14
7816.64
7832.24
7847.81
7863.44
7878.87
7894.14
7909.31
7924.43
7939.43
7954.39
7969.1
7983.57
7997.82
8011.95
8025.87
8039.6
8053.11
8066.42
8079.49
8092.23
8104.67
8116.92
8128.9
8140.67
8152.11
8163.17
8174
8184.53
8194.77
8204.71
8214.43
8223.76
8232.76
8241.39
8249.76
8257.85
8265.64
8273.21
8280.43
8287.33
8293.93
8300.19
8306.21
8312
8317.53
8322.9
8327.98
8332.81
8337.38
8341.74
8345.97
8350.06
8353.96
8357.65
8361.19
8364.67
8368.02
8371.24
8374.34
8377.33
8380.24
8383.06
8385.7
8388.19
8390.48
8392.67
8394.7
8396.6
8398.27
8399.72
8400.93
8401.96
8402.8
8403.46
8403.9
8404.09
8404.05
8403.77
8403.22
8402.48
8401.5
8400.31
8398.89
8397.2
8395.25
8393.08
8390.68
8388.08
8385.22
8382.1
8378.72
8375.16
8371.38
8367.41
8363.21
8358.77
8354.13
8349.25
8344.18
8338.95
8333.53
8327.97
8322.2
8316.24
8310.1
8303.87
8297.5
8290.98
8284.32
8277.52
8270.6
8263.62
8256.55
8249.41
8242.18
8234.87
8227.51
8220.08
8212.62
8205.15
8197.67
8190.17
8182.66
8175.13
8167.64
8160.19
8152.76
8145.35
8137.98
8130.68
8123.45
8116.28
8109.17
8102.13
8095.19
8088.35
8081.6
8074.94
8068.37
8061.92
8055.6
8049.38
8043.28
8037.29
8031.41
8025.67
8020.07
8014.58
8009.22
8003.97
7998.86
7993.88
7989.04
7984.31
7979.71
7975.23
7970.89
7966.67
7962.56
7958.57
7954.71
7950.96
7947.32
7943.8
7940.37
7937.06
7933.86
7930.75
7927.75
7924.83
7922.01
7919.29
7916.65
7914.1
7911.64
7909.25
7906.93
7904.7
7902.54
7900.46
7898.44
7896.49
7894.6
7892.78
7891.02
7889.31
7887.67
7886.07
7884.54
7883.05
7881.61
7880.22
7878.88
7877.58
7876.33
7875.12
7873.95
7872.83
7871.74
7870.7
7869.69
7868.73
7867.82
7866.94
7866.12
7865.34
7864.6
7863.92
7863.28
7862.7
7862.17
7861.69
7861.26
7860.88
7860.55
7860.28
7860.05
7859.88
7859.76
7859.68
7859.66
7859.69
7859.76
7859.88
7860.05
7860.26
7860.51
7860.81
7861.15
7861.52
7861.94
7862.39
7862.87
7863.39
7863.94
7864.52
7865.13
7865.77
7866.43
7867.12
7867.82
7868.55
7869.3
7870.07
7870.85
7871.65
7872.45
7873.28
7874.11
7874.95
7875.8
7876.66
7877.52
7878.39
7879.26
7880.14
7881.01
7881.89
7882.76
7883.63
7884.5
7885.38
7886.24
7887.1
7887.96
7888.81
7889.66
7890.5
7891.33
7892.16
7892.98
7893.78
7894.58
7895.37
7896.16
7896.93
7897.68
7898.44
7899.17
7899.9
7900.61
7901.32
7902
7902.69
7903.33
7904.01
7904.62
7905.28
7905.86
7906.45
7906.97
7907.52
7908.13
7908.64
7909.2
7909.67
7910.18
7910.64
7911.14
7911.57
7912.05
7912.45
7912.9
7913.26
7913.67
7914.06
7914.38
7914.76
7915.03
7915.46
7915.51
7916.01
7916.36
7916.57
7916.73
7916.92
7917.11
7917.3
7917.5
7917.69
7917.87
7918.03
7918.19
7918.34
7918.49
7918.63
7918.77
7918.9
7919.03
7919.15
7919.27
7919.39
7919.5
7919.6
7919.7
7919.8
7919.9
7919.99
7920.07
7920.16
7920.23
7920.31
7920.38
7920.44
7920.5
7920.56
7920.61
7920.66
7920.7
7920.74
7920.77
7920.8
7920.83
7920.85
7920.87
7920.88
7920.89
7920.89
7920.89
7920.89
7920.88
7920.86
7920.85
7920.83
7920.8
7920.77
7920.74
7920.7
7920.66
7920.61
7920.56
7920.51
7920.45
7920.39
7920.32
7920.25
7920.18
7920.1
7920.02
7919.93
7919.84
7919.75
7919.65
7919.55
7919.44
7919.33
7919.22
7919.1
7918.98
7918.86
7918.73
7918.6
7918.46
7918.32
7918.17
7918.02
7917.87
7917.72
7917.56
7917.38
7917.27
7916.94
7503.38
7490.09
7481.33
7471.79
7462.45
7453.34
7444.65
7436.15
7427.77
7419.56
7411.45
7403.45
7395.57
7387.82
7380.24
7372.85
7365.65
7358.65
7351.81
7345.11
7338.55
7332.08
7325.67
7319.33
7313.1
7307.01
7301.06
7295.21
7289.5
7283.87
7278.29
7272.92
7267.94
7263.02
7258.17
7253.47
7248.93
7244.56
7240.34
7236.28
7232.35
7228.64
7225.1
7221.74
7218.55
7215.52
7212.65
7209.95
7207.4
7205
7202.77
7200.88
7199.11
7197.5
7196.05
7194.78
7193.69
7192.76
7191.99
7191.41
7191
7190.77
7190.65
7190.64
7190.64
7190.68
7191.17
7191.81
7193
7194.07
7195.13
7196.3
7197.59
7198.92
7200.23
7201.62
7203.27
7204.96
7206.63
7208.42
7210.29
7212.2
7213.95
7215.74
7218.27
7221.59
7224.98
7228.21
7231.96
7236
7237.1
7233.9
7239.07
7249.32
7251.65
7256.44
7259.81
7263.16
7267.88
7273.93
7278.55
7283.99
7288.63
7294.17
7299.52
7305.83
7312.91
7319.19
7326.47
7330.88
7338.14
7339.63
7347.47
7362.18
7370.9
7379.75
7388.44
7397.16
7406.74
7417.52
7427.6
7438.22
7448.51
7459.65
7471.67
7483.88
7494.91
7507.24
7515.39
7528.24
7546.23
7559.96
7574.77
7588.34
7602.52
7616.33
7631.03
7646.35
7661.24
7676.5
7691.71
7707.14
7722.71
7738.33
7753.87
7769.56
7785.3
7800.89
7816.49
7832.19
7847.94
7863.62
7879.08
7894.35
7909.64
7924.83
7939.93
7954.97
7969.71
7984.28
7998.58
8012.69
8026.65
8040.41
8054.01
8067.39
8080.44
8093.19
8105.65
8117.92
8129.92
8141.69
8153.21
8164.33
8175.08
8185.62
8195.86
8205.86
8215.56
8224.88
8233.84
8242.44
8250.83
8258.92
8266.79
8274.32
8281.5
8288.39
8294.98
8301.24
8307.24
8313.03
8318.56
8323.92
8329.04
8333.87
8338.49
8342.82
8347.04
8351.13
8355.08
8358.82
8362.41
8365.79
8369.11
8372.34
8375.48
8378.57
8381.48
8384.25
8386.89
8389.32
8391.66
8393.86
8395.92
8397.83
8399.5
8400.95
8402.16
8403.23
8404.1
8404.79
8405.2
8405.35
8405.31
8405.1
8404.64
8403.89
8402.85
8401.63
8400.18
8398.49
8396.57
8394.46
8392.08
8389.45
8386.56
8383.4
8380.03
8376.46
8372.67
8368.7
8364.47
8360
8355.28
8350.4
8345.34
8340.08
8334.66
8329.06
8323.24
8317.22
8311.07
8304.78
8298.38
8291.85
8285.14
8278.28
8271.35
8264.32
8257.22
8250.04
8242.76
8235.41
8228.01
8220.55
8213.02
8205.51
8197.99
8190.45
8182.88
8175.31
8167.78
8160.3
8152.83
8145.39
8137.97
8130.62
8123.34
8116.15
8109.01
8101.95
8094.99
8088.11
8081.3
8074.61
8068.03
8061.57
8055.23
8048.99
8042.86
8036.84
8030.95
8025.2
8019.58
8014.09
8008.72
8003.46
7998.33
7993.35
7988.5
7983.76
7979.15
7974.68
7970.34
7966.12
7962.01
7958.01
7954.15
7950.41
7946.77
7943.23
7939.82
7936.51
7933.31
7930.22
7927.21
7924.29
7921.48
7918.76
7916.14
7913.59
7911.13
7908.75
7906.44
7904.21
7902.06
7899.98
7897.98
7896.03
7894.14
7892.32
7890.57
7888.87
7887.23
7885.64
7884.11
7882.62
7881.18
7879.79
7878.44
7877.14
7875.89
7874.68
7873.51
7872.39
7871.3
7870.25
7869.25
7868.28
7867.36
7866.49
7865.66
7864.88
7864.15
7863.46
7862.83
7862.24
7861.71
7861.23
7860.8
7860.42
7860.1
7859.82
7859.6
7859.43
7859.31
7859.24
7859.23
7859.26
7859.34
7859.46
7859.64
7859.86
7860.12
7860.42
7860.77
7861.16
7861.58
7862.04
7862.54
7863.07
7863.63
7864.23
7864.85
7865.5
7866.17
7866.87
7867.59
7868.34
7869.1
7869.88
7870.67
7871.48
7872.31
7873.14
7873.99
7874.84
7875.71
7876.57
7877.45
7878.33
7879.21
7880.09
7880.98
7881.87
7882.75
7883.63
7884.52
7885.39
7886.27
7887.14
7888
7888.86
7889.71
7890.57
7891.4
7892.23
7893.04
7893.86
7894.67
7895.46
7896.24
7897.01
7897.78
7898.53
7899.28
7900.01
7900.72
7901.43
7902.12
7902.8
7903.48
7904.13
7904.72
7905.34
7905.98
7906.58
7907.17
7907.72
7908.27
7908.79
7909.32
7909.84
7910.32
7910.83
7911.28
7911.76
7912.17
7912.62
7913.04
7913.43
7913.84
7914.2
7914.54
7914.69
7915.21
7915.59
7915.82
7916.01
7916.22
7916.43
7916.65
7916.86
7917.07
7917.28
7917.48
7917.66
7917.84
7918.01
7918.18
7918.34
7918.49
7918.63
7918.78
7918.91
7919.04
7919.17
7919.29
7919.41
7919.52
7919.63
7919.74
7919.84
7919.94
7920.03
7920.11
7920.2
7920.27
7920.35
7920.42
7920.48
7920.54
7920.6
7920.65
7920.7
7920.74
7920.78
7920.81
7920.84
7920.87
7920.89
7920.91
7920.92
7920.93
7920.93
7920.93
7920.93
7920.92
7920.91
7920.89
7920.87
7920.84
7920.81
7920.78
7920.74
7920.7
7920.65
7920.6
7920.55
7920.49
7920.43
7920.36
7920.29
7920.22
7920.14
7920.06
7919.97
7919.88
7919.79
7919.69
7919.59
7919.48
7919.37
7919.26
7919.14
7919.02
7918.89
7918.77
7918.63
7918.5
7918.36
7918.21
7918.06
7917.91
7917.75
7917.6
7917.42
7917.31
7916.98
7503.24
7489.84
7480.56
7470.64
7460.73
7450.98
7442.67
7434.44
7426.02
7417.79
7409.71
7401.76
7393.93
7386.23
7378.68
7371.29
7364.07
7357
7350.09
7343.33
7336.68
7330.15
7323.72
7317.38
7311.15
7305.04
7299.05
7293.21
7287.49
7281.9
7276.44
7271.14
7265.99
7260.96
7256.1
7251.38
7246.78
7242.36
7238.16
7234.16
7230.23
7226.52
7222.96
7219.52
7216.22
7213.18
7210.43
7207.81
7205.27
7202.92
7200.69
7198.34
7196.06
7194.94
7193.89
7192.66
7191.59
7190.68
7189.94
7189.37
7188.98
7188.73
7188.65
7188.72
7188.94
7189.17
7189.33
7189.87
7191.19
7192.25
7193.34
7194.57
7195.91
7197.33
7198.82
7200.42
7201.99
7203.49
7205.27
7207.59
7209.75
7211.96
7214.24
7216.5
7218.96
7221.73
7224.68
7227.99
7231.3
7234.96
7238.5
7242.69
7247.2
7248.53
7245.27
7251.4
7262.73
7265.3
7270.6
7274.88
7279.1
7284.83
7291.44
7297.08
7302.82
7309.09
7314.64
7321.51
7327.59
7334.65
7342.08
7349.54
7355.2
7362.98
7364.98
7373.37
7389.24
7398.71
7408.46
7418.11
7427.76
7438.22
7449.95
7460.89
7472.58
7483.84
7495.96
7508.7
7521.62
7533.15
7546.35
7555.07
7568.95
7587.13
7601.81
7617.15
7631.25
7646.06
7660.07
7675.16
7690.9
7706.51
7722.23
7737.84
7753.47
7769.21
7784.93
7800.57
7816.39
7832.3
7848.16
7863.82
7879.41
7894.77
7910.08
7925.38
7940.68
7955.67
7970.46
7985.09
7999.52
8013.66
8027.62
8041.5
8055.19
8068.53
8081.62
8094.45
8106.93
8119.19
8131.27
8143.12
8154.58
8165.74
8176.52
8187
8197.32
8207.36
8216.99
8226.3
8235.22
8243.84
8252.25
8260.46
8268.26
8275.74
8282.9
8289.76
8296.34
8302.67
8308.7
8314.43
8320.02
8325.35
8330.42
8335.31
8339.95
8344.37
8348.55
8352.66
8356.59
8360.36
8363.98
8367.38
8370.69
8373.92
8377.1
8380.17
8383.07
8385.83
8388.39
8390.86
8393.23
8395.52
8397.59
8399.45
8401.05
8402.49
8403.78
8404.93
8405.82
8406.47
8406.82
8407.02
8407
8406.8
8406.35
8405.62
8404.65
8403.36
8401.9
8400.21
8398.28
8396.19
8393.81
8391.16
8388.27
8385.1
8381.69
8378.11
8374.35
8370.33
8366.03
8361.49
8356.8
8351.89
8346.81
8341.57
8336.1
8330.42
8324.54
8318.47
8312.3
8305.97
8299.54
8292.95
8286.18
8279.27
8272.28
8265.24
8258.09
8250.83
8243.48
8236.05
8228.61
8221.11
8213.56
8205.99
8198.4
8190.79
8183.15
8175.54
8167.98
8160.44
8152.91
8145.42
8137.97
8130.55
8123.22
8115.97
8108.82
8101.73
8094.72
8087.79
8080.93
8074.21
8067.62
8061.14
8054.75
8048.47
8042.3
8036.27
8030.38
8024.62
8018.98
8013.46
8008.07
8002.8
7997.68
7992.69
7987.83
7983.09
7978.46
7973.99
7969.65
7965.42
7961.31
7957.31
7953.45
7949.71
7946.08
7942.55
7939.12
7935.83
7932.64
7929.54
7926.53
7923.63
7920.83
7918.12
7915.49
7912.95
7910.5
7908.13
7905.84
7903.62
7901.46
7899.39
7897.39
7895.45
7893.58
7891.76
7890.01
7888.32
7886.68
7885.09
7883.55
7882.07
7880.63
7879.24
7877.9
7876.6
7875.34
7874.13
7872.96
7871.83
7870.74
7869.69
7868.68
7867.71
7866.79
7865.92
7865.09
7864.31
7863.57
7862.88
7862.25
7861.66
7861.13
7860.65
7860.22
7859.84
7859.52
7859.25
7859.03
7858.87
7858.75
7858.69
7858.68
7858.72
7858.8
7858.94
7859.12
7859.35
7859.63
7859.94
7860.3
7860.7
7861.14
7861.62
7862.13
7862.67
7863.25
7863.86
7864.5
7865.16
7865.85
7866.57
7867.31
7868.07
7868.85
7869.64
7870.45
7871.28
7872.12
7872.97
7873.83
7874.7
7875.58
7876.47
7877.35
7878.25
7879.14
7880.04
7880.94
7881.84
7882.73
7883.63
7884.51
7885.41
7886.29
7887.18
7888.06
7888.92
7889.78
7890.63
7891.47
7892.31
7893.13
7893.95
7894.76
7895.57
7896.36
7897.15
7897.91
7898.68
7899.41
7900.16
7900.88
7901.61
7902.29
7902.94
7903.59
7904.3
7904.91
7905.56
7906.15
7906.74
7907.31
7907.87
7908.44
7908.96
7909.53
7910
7910.54
7910.96
7911.49
7911.9
7912.41
7912.76
7913.32
7913.44
7914.05
7914.48
7914.71
7914.94
7915.19
7915.43
7915.68
7915.93
7916.18
7916.42
7916.65
7916.87
7917.08
7917.28
7917.48
7917.67
7917.85
7918.03
7918.2
7918.36
7918.51
7918.67
7918.81
7918.95
7919.08
7919.21
7919.34
7919.46
7919.57
7919.68
7919.79
7919.89
7919.98
7920.08
7920.16
7920.25
7920.33
7920.4
7920.47
7920.54
7920.6
7920.65
7920.7
7920.75
7920.8
7920.83
7920.87
7920.9
7920.92
7920.94
7920.96
7920.97
7920.98
7920.98
7920.98
7920.98
7920.97
7920.96
7920.94
7920.92
7920.89
7920.86
7920.83
7920.79
7920.75
7920.7
7920.65
7920.6
7920.54
7920.48
7920.41
7920.34
7920.27
7920.19
7920.11
7920.02
7919.93
7919.83
7919.74
7919.63
7919.53
7919.42
7919.31
7919.19
7919.07
7918.94
7918.81
7918.68
7918.54
7918.4
7918.26
7918.11
7917.96
7917.8
7917.65
7917.46
7917.36
7917.02
7502.27
7488.72
7478.91
7468.53
7458.07
7448.53
7439.8
7432.1
7423.79
7415.58
7407.53
7399.62
7391.84
7384.2
7376.68
7369.29
7362.05
7354.94
7347.98
7341.15
7334.45
7327.89
7321.46
7315.11
7308.83
7302.7
7296.71
7290.81
7285.01
7279.39
7273.97
7268.73
7263.53
7258.49
7253.63
7248.83
7243.94
7239.13
7235.3
7231.62
7227.69
7223.96
7220.37
7216.8
7212.99
7209.44
7207.54
7205.21
7202.71
7200.31
7197.79
7195.12
7193.33
7191.7
7190.62
7190.02
7189.04
7188.15
7187.43
7186.89
7186.51
7186.29
7186.23
7186.34
7186.61
7187.03
7187.58
7188.16
7188.68
7189.57
7190.93
7192.47
7193.91
7195.42
7197.01
7198.75
7200.45
7201.99
7203.93
7206.11
7208.76
7211.24
7213.78
7216.5
7219.15
7221.83
7225.08
7228.62
7231.84
7235.07
7238.4
7242.08
7246.22
7250.31
7255.17
7260.31
7261.9
7258.59
7265.63
7277.9
7281.61
7288.19
7293.04
7297.5
7304.08
7311.67
7318.08
7324.98
7331.69
7338.17
7344.89
7351.77
7359.17
7367.37
7375.49
7382.04
7390.48
7392.68
7401.89
7419.28
7429.8
7440.58
7451.05
7461.56
7472.84
7485.82
7497.69
7510.11
7522.22
7534.84
7548.57
7561.28
7575.21
7587.53
7601.31
7610.89
7625.09
7644.47
7659.5
7675.03
7690.12
7705.04
7720.74
7737.08
7752.9
7768.84
7784.55
7800.21
7816.21
7832.4
7848.24
7864.04
7879.73
7895.26
7910.72
7926.25
7941.47
7956.53
7971.33
7986.03
8000.58
8014.93
8028.99
8042.87
8056.51
8069.89
8083.03
8095.94
8108.55
8120.89
8132.99
8144.77
8156.24
8167.38
8178.21
8188.82
8199.16
8209.12
8218.75
8227.99
8236.89
8245.62
8254.17
8262.27
8270.05
8277.52
8284.65
8291.4
8297.97
8304.45
8310.59
8316.39
8321.93
8327.1
8332.14
8337.06
8341.84
8346.32
8350.59
8354.63
8358.44
8362.25
8365.94
8369.43
8372.72
8376.01
8379.21
8382.23
8385.1
8387.77
8390.36
8392.86
8395.3
8397.56
8399.6
8401.46
8403.09
8404.5
8405.79
8406.94
8407.86
8408.52
8408.91
8409.08
8409.1
8408.91
8408.44
8407.71
8406.75
8405.54
8404
8402.29
8400.36
8398.26
8395.88
8393.23
8390.32
8387.16
8383.69
8380.14
8376.34
8372.27
8367.97
8363.39
8358.64
8353.7
8348.63
8343.32
8337.79
8332.07
8326.11
8320.01
8313.78
8307.44
8300.95
8294.27
8287.46
8280.47
8273.43
8266.33
8259.1
8251.78
8244.36
8236.83
8229.32
8221.78
8214.19
8206.54
8198.88
8191.19
8183.47
8175.82
8168.2
8160.59
8152.99
8145.44
8137.94
8130.48
8123.07
8115.78
8108.57
8101.42
8094.36
8087.4
8080.52
8073.73
8067.11
8060.58
8054.16
8047.85
8041.65
8035.61
8029.7
8023.9
8018.23
8012.7
8007.28
8002.01
7996.88
7991.88
7987
7982.26
7977.64
7973.15
7968.8
7964.57
7960.46
7956.46
7952.6
7948.86
7945.23
7941.7
7938.29
7935
7931.81
7928.72
7925.72
7922.83
7920.04
7917.33
7914.72
7912.18
7909.74
7907.38
7905.1
7902.89
7900.75
7898.68
7896.68
7894.75
7892.88
7891.08
7889.33
7887.64
7886
7884.42
7882.88
7881.4
7879.97
7878.57
7877.23
7875.93
7874.67
7873.45
7872.28
7871.14
7870.05
7869
7867.99
7867.02
7866.1
7865.22
7864.39
7863.6
7862.87
7862.18
7861.54
7860.96
7860.43
7859.95
7859.52
7859.14
7858.82
7858.56
7858.34
7858.18
7858.08
7858.02
7858.01
7858.06
7858.16
7858.3
7858.5
7858.74
7859.03
7859.36
7859.73
7860.15
7860.6
7861.09
7861.62
7862.19
7862.78
7863.41
7864.07
7864.76
7865.47
7866.21
7866.96
7867.74
7868.54
7869.36
7870.19
7871.04
7871.9
7872.77
7873.65