/*--------------------------------*- C++ -*----------------------------------*\
| =========                 |                                                 |
| \\      /  F ield         | OpenFOAM: The Open Source CFD Toolbox           |
|  \\    /   O peration     | Version:  v2006                                 |
|   \\  /    A nd           | Website:  www.openfoam.com                      |
|    \\/     M anipulation  |                                                 |
\*---------------------------------------------------------------------------*/
FoamFile
{
    version     2.0;
    format      ascii;
    class       surfaceScalarField;
    location    "6";
    object      phi;
}
// * * * * * * * * * * * * * * * * * * * * * * * * * * * * * * * * * * * * * //

dimensions      [0 3 -1 0 0 0 0];
oriented        oriented;


internalField   nonuniform List<scalar> 
65390
(
-4.77493e-05
6.9691e-06
-4.60948e-05
-1.65495e-06
-4.29588e-05
-3.13642e-06
-3.78121e-05
-5.14698e-06
-3.29509e-05
-4.86148e-06
-2.80548e-05
-4.89629e-06
-2.40207e-05
-4.03421e-06
-2.06286e-05
-3.39228e-06
-1.73557e-05
-3.27297e-06
-1.39005e-05
-3.45525e-06
-1.01625e-05
-3.73809e-06
-6.59394e-06
-3.5686e-06
-3.8263e-06
-2.76767e-06
-2.67398e-06
-1.15234e-06
-3.4016e-06
7.27604e-07
-6.29032e-06
2.88871e-06
-1.10846e-05
4.79425e-06
-1.72961e-05
6.21154e-06
-2.53147e-05
8.01857e-06
-3.50871e-05
9.77247e-06
-4.33952e-05
8.30804e-06
-4.75986e-05
4.20338e-06
-5.01956e-05
2.5971e-06
-5.26952e-05
2.49957e-06
-5.4781e-05
2.08581e-06
-5.60369e-05
1.25592e-06
-5.71411e-05
1.10424e-06
-5.84489e-05
1.30775e-06
-5.99416e-05
1.4927e-06
-6.16321e-05
1.69056e-06
-6.33795e-05
1.74742e-06
-6.49087e-05
1.5292e-06
-6.62441e-05
1.33538e-06
-6.76013e-05
1.35723e-06
-6.90501e-05
1.44884e-06
-7.02054e-05
1.15533e-06
-7.06657e-05
4.60319e-07
-7.08194e-05
1.53716e-07
-7.10242e-05
2.04761e-07
-7.16558e-05
6.31692e-07
-7.29199e-05
1.26412e-06
-7.43029e-05
1.38302e-06
-7.54114e-05
1.10846e-06
-7.59138e-05
5.02476e-07
-7.59428e-05
2.89436e-08
-7.58906e-05
-5.21328e-08
-7.60428e-05
1.5219e-07
-7.66584e-05
6.1565e-07
-7.74636e-05
8.05225e-07
-7.81958e-05
7.32258e-07
-7.86767e-05
4.80925e-07
-7.87734e-05
9.66962e-08
-7.86525e-05
-1.20931e-07
-7.8495e-05
-1.57418e-07
-7.8273e-05
-2.22025e-07
-7.78195e-05
-4.53459e-07
-7.71756e-05
-6.4389e-07
-7.65848e-05
-5.90716e-07
-7.63453e-05
-2.39476e-07
-7.65271e-05
1.8183e-07
-7.68413e-05
3.14181e-07
-7.70107e-05
1.69467e-07
-7.67268e-05
-2.83908e-07
-7.62198e-05
-5.06919e-07
-7.59273e-05
-2.92542e-07
-7.58287e-05
-9.85307e-08
-7.56711e-05
-1.57605e-07
-7.49866e-05
-6.84498e-07
-7.35569e-05
-1.42966e-06
-7.16098e-05
-1.9471e-06
-6.92624e-05
-2.34734e-06
-6.65008e-05
-2.76154e-06
-6.33712e-05
-3.12959e-06
-5.96017e-05
-3.76946e-06
-5.49514e-05
-4.65025e-06
-4.91294e-05
-5.82203e-06
-4.21996e-05
-6.92975e-06
-3.35945e-05
-8.60506e-06
-2.65839e-05
-7.01057e-06
-2.30959e-05
-3.48797e-06
-2.15353e-05
-1.56059e-06
-2.27177e-05
1.18245e-06
-2.42431e-05
1.52532e-06
-2.58673e-05
1.62429e-06
-2.82744e-05
2.40706e-06
-2.97534e-05
1.47899e-06
-3.0376e-05
6.22615e-07
-3.08303e-05
4.54357e-07
-3.121e-05
3.79711e-07
-3.13116e-05
1.01553e-07
-3.12338e-05
-7.7733e-08
-3.11515e-05
-8.23118e-08
-3.08281e-05
-3.23382e-07
-3.03299e-05
-4.98162e-07
-2.95928e-05
-7.37152e-07
-2.85103e-05
-1.08245e-06
-2.66518e-05
-1.85848e-06
-2.43145e-05
-2.33727e-06
-2.14268e-05
-2.88777e-06
-1.95979e-05
-1.82883e-06
-1.91996e-05
-3.98351e-07
-1.91442e-05
-5.53922e-08
-1.959e-05
4.45837e-07
-1.99158e-05
3.25806e-07
-2.0544e-05
6.28205e-07
-2.0945e-05
4.01015e-07
-2.10164e-05
7.1391e-08
-2.10541e-05
3.77081e-08
-2.1079e-05
2.49814e-08
-2.11698e-05
9.07796e-08
-2.12009e-05
3.1082e-08
-2.12402e-05
3.93457e-08
-2.11397e-05
-1.0056e-07
-2.08068e-05
-3.32844e-07
-2.00628e-05
-7.43972e-07
-1.9003e-05
-1.05983e-06
-1.74317e-05
-1.57132e-06
-1.63743e-05
-1.05733e-06
-1.61918e-05
-1.82498e-07
-1.6267e-05
7.51195e-08
-1.65298e-05
2.62835e-07
-1.66801e-05
1.50304e-07
-1.70703e-05
3.90182e-07
-1.73709e-05
3.0063e-07
-1.74984e-05
1.27508e-07
-1.76617e-05
1.63339e-07
-1.78004e-05
1.38702e-07
-1.79262e-05
1.25758e-07
-1.80828e-05
1.5661e-07
-1.82142e-05
1.3147e-07
-1.83168e-05
1.02533e-07
-1.84168e-05
1.0005e-07
-1.84942e-05
7.73771e-08
-1.857e-05
7.58532e-08
-1.86431e-05
7.30503e-08
-1.87129e-05
6.98495e-08
-1.8777e-05
6.40378e-08
-1.88305e-05
5.35506e-08
-1.88819e-05
5.14343e-08
-1.89224e-05
4.04884e-08
-1.8954e-05
3.16295e-08
-1.89766e-05
2.25756e-08
-1.89936e-05
1.70624e-08
-1.90041e-05
1.05025e-08
-1.90058e-05
1.64974e-09
-1.89957e-05
-1.01022e-08
-1.89711e-05
-2.45269e-08
-1.89333e-05
-3.78614e-08
-1.88871e-05
-4.62052e-08
-1.88352e-05
-5.18149e-08
-1.87783e-05
-5.69389e-08
-1.87101e-05
-6.82003e-08
-1.86242e-05
-8.58253e-08
-1.85246e-05
-9.96341e-08
-1.84175e-05
-1.07056e-07
-1.83035e-05
-1.14005e-07
-1.8182e-05
-1.21475e-07
-1.80491e-05
-1.3297e-07
-1.79048e-05
-1.44207e-07
-1.7751e-05
-1.53854e-07
-1.75875e-05
-1.63432e-07
-1.74135e-05
-1.74067e-07
-1.72288e-05
-1.84638e-07
-1.70351e-05
-1.9368e-07
-1.68363e-05
-1.98785e-07
-1.66285e-05
-2.07795e-07
-1.64049e-05
-2.23599e-07
-1.61694e-05
-2.35483e-07
-1.59292e-05
-2.40202e-07
-1.56847e-05
-2.44455e-07
-1.54267e-05
-2.58041e-07
-1.51506e-05
-2.76102e-07
-1.48629e-05
-2.87626e-07
-1.45705e-05
-2.9241e-07
-1.42734e-05
-2.97081e-07
-1.39639e-05
-3.09481e-07
-1.36341e-05
-3.2982e-07
-1.32906e-05
-3.43496e-07
-1.29393e-05
-3.51249e-07
-1.25782e-05
-3.61029e-07
-1.22016e-05
-3.76592e-07
-1.18103e-05
-3.91358e-07
-1.14134e-05
-3.96881e-07
-1.10087e-05
-4.04604e-07
-1.05878e-05
-4.20874e-07
-1.01454e-05
-4.42385e-07
-9.68402e-06
-4.61404e-07
-9.21454e-06
-4.69456e-07
-8.73967e-06
-4.74849e-07
-8.25714e-06
-4.82518e-07
-7.76386e-06
-4.93255e-07
-7.2568e-06
-5.07047e-07
-6.73685e-06
-5.19926e-07
-6.20866e-06
-5.28173e-07
-5.68229e-06
-5.26351e-07
-5.15597e-06
-5.26312e-07
-4.62783e-06
-5.28116e-07
-4.09561e-06
-5.32204e-07
-3.55486e-06
-5.40738e-07
-3.00869e-06
-5.4615e-07
-2.46656e-06
-5.42121e-07
-1.9393e-06
-5.27248e-07
-1.42624e-06
-5.1304e-07
-9.21156e-07
-5.05078e-07
-4.20201e-07
-5.00945e-07
7.616e-08
-4.96353e-07
5.60299e-07
-4.84132e-07
1.02717e-06
-4.66865e-07
1.47736e-06
-4.5018e-07
1.91739e-06
-4.40033e-07
2.35216e-06
-4.34761e-07
2.77676e-06
-4.24598e-07
3.18462e-06
-4.07861e-07
3.57763e-06
-3.9301e-07
3.96561e-06
-3.8798e-07
4.35037e-06
-3.84755e-07
4.72867e-06
-3.78306e-07
5.09651e-06
-3.6783e-07
5.44869e-06
-3.52177e-07
5.78852e-06
-3.39827e-07
6.122e-06
-3.33477e-07
6.45268e-06
-3.3067e-07
6.77906e-06
-3.26371e-07
7.09763e-06
-3.1856e-07
7.40484e-06
-3.07207e-07
7.6997e-06
-2.94841e-07
7.98681e-06
-2.87099e-07
8.26801e-06
-2.81183e-07
8.54433e-06
-2.76303e-07
8.81564e-06
-2.71296e-07
9.07888e-06
-2.6323e-07
9.33082e-06
-2.51923e-07
9.57343e-06
-2.42593e-07
9.81014e-06
-2.36691e-07
1.00408e-05
-2.30688e-07
1.02654e-05
-2.245e-07
1.04835e-05
-2.18103e-07
1.06935e-05
-2.1001e-07
1.08949e-05
-2.01413e-07
1.10887e-05
-1.9375e-07
1.12748e-05
-1.86127e-07
1.14525e-05
-1.77664e-07
1.16222e-05
-1.69713e-07
1.17853e-05
-1.63042e-07
1.19424e-05
-1.57078e-07
1.20929e-05
-1.50467e-07
1.22353e-05
-1.42402e-07
1.23665e-05
-1.31179e-07
1.24887e-05
-1.22173e-07
1.26058e-05
-1.17089e-07
1.27168e-05
-1.10964e-07
1.28197e-05
-1.02868e-07
1.29137e-05
-9.39739e-08
1.29979e-05
-8.42675e-08
1.30739e-05
-7.59976e-08
1.31426e-05
-6.85964e-08
1.32035e-05
-6.096e-08
1.32568e-05
-5.33306e-08
1.33017e-05
-4.48767e-08
1.33376e-05
-3.59012e-08
1.33649e-05
-2.73028e-08
1.33844e-05
-1.9522e-08
1.3397e-05
-1.25522e-08
1.34022e-05
-5.2592e-09
1.33986e-05
3.57244e-09
1.33849e-05
1.36527e-08
1.33615e-05
2.33886e-08
1.33313e-05
3.02144e-08
1.32955e-05
3.57541e-08
1.32526e-05
4.28882e-08
1.3202e-05
5.0557e-08
1.31433e-05
5.87332e-08
1.30751e-05
6.8161e-08
1.29987e-05
7.63986e-08
1.2916e-05
8.26935e-08
1.28268e-05
8.91152e-08
1.27309e-05
9.58926e-08
1.26283e-05
1.02573e-07
1.25193e-05
1.08999e-07
1.24045e-05
1.14755e-07
1.22831e-05
1.21423e-07
1.21531e-05
1.29979e-07
1.20166e-05
1.3645e-07
1.18761e-05
1.40506e-07
1.17311e-05
1.44938e-07
1.15809e-05
1.50242e-07
1.14253e-05
1.55484e-07
1.12646e-05
1.60691e-07
1.10979e-05
1.66681e-07
1.0926e-05
1.71909e-07
1.07505e-05
1.755e-07
1.05719e-05
1.78571e-07
1.03898e-05
1.82099e-07
1.02042e-05
1.85502e-07
1.00145e-05
1.89743e-07
9.81997e-06
1.94468e-07
9.62302e-06
1.96931e-07
9.42393e-06
1.99058e-07
9.2226e-06
2.01298e-07
9.01985e-06
2.02727e-07
8.8144e-06
2.0542e-07
8.60578e-06
2.08588e-07
8.39633e-06
2.09427e-07
8.18636e-06
2.09951e-07
7.97592e-06
2.10416e-07
7.76419e-06
2.11712e-07
7.55184e-06
2.12326e-07
7.33987e-06
2.11945e-07
7.12911e-06
2.10734e-07
6.91973e-06
2.09355e-07
6.71022e-06
2.09472e-07
6.50035e-06
2.09841e-07
6.29169e-06
2.0863e-07
6.08609e-06
2.05571e-07
5.8834e-06
2.02662e-07
5.68198e-06
2.01401e-07
5.48165e-06
2.00306e-07
5.28385e-06
1.97787e-07
5.08852e-06
1.95311e-07
4.89564e-06
1.92863e-07
4.70422e-06
1.91394e-07
4.51335e-06
1.90858e-07
4.32431e-06
1.89011e-07
4.13764e-06
1.86661e-07
3.9522e-06
1.85423e-07
3.76632e-06
1.85875e-07
3.57959e-06
1.86734e-07
3.39362e-06
1.85971e-07
3.20883e-06
1.8481e-07
3.02429e-06
1.84562e-07
2.83848e-06
1.85826e-07
2.65034e-06
1.88169e-07
2.46172e-06
1.88637e-07
2.27451e-06
1.87225e-07
2.08935e-06
1.85173e-07
1.90587e-06
1.83486e-07
1.72366e-06
1.82219e-07
1.54269e-06
1.80976e-07
1.36311e-06
1.79593e-07
1.18629e-06
1.76825e-07
1.01317e-06
1.73122e-07
8.43754e-07
1.69421e-07
6.78022e-07
1.65737e-07
5.15277e-07
1.62752e-07
3.55873e-07
1.5941e-07
2.0142e-07
1.54458e-07
5.25151e-08
1.48909e-07
-9.10471e-08
1.43566e-07
-2.3006e-07
1.39016e-07
-3.64965e-07
1.34908e-07
-4.95222e-07
1.30258e-07
-6.19816e-07
1.24596e-07
-7.38843e-07
1.19028e-07
-8.53499e-07
1.14657e-07
-9.63683e-07
1.10183e-07
-1.06865e-06
1.0497e-07
-1.16846e-06
9.98078e-08
-1.26335e-06
9.48818e-08
-1.35338e-06
9.00216e-08
-1.43845e-06
8.50633e-08
-1.51859e-06
8.01364e-08
-1.59386e-06
7.52607e-08
-1.66429e-06
7.0411e-08
-1.73014e-06
6.58463e-08
-1.79146e-06
6.13078e-08
-1.84814e-06
5.66619e-08
-1.89984e-06
5.16885e-08
-1.94663e-06
4.67874e-08
-1.98868e-06
4.20369e-08
-2.02635e-06
3.76657e-08
-2.05969e-06
3.33312e-08
-2.08846e-06
2.8758e-08
-2.11241e-06
2.39461e-08
-2.13172e-06
1.93057e-08
-2.14677e-06
1.50506e-08
-2.15769e-06
1.09155e-08
-2.16441e-06
6.71706e-09
-2.16707e-06
2.65405e-09
-2.16597e-06
-1.1036e-09
-2.16126e-06
-4.70418e-09
-2.15259e-06
-8.67314e-09
-2.13987e-06
-1.27252e-08
-2.1232e-06
-1.66675e-08
-2.10308e-06
-2.01229e-08
-2.07967e-06
-2.34095e-08
-2.05314e-06
-2.65315e-08
-2.02378e-06
-2.936e-08
-1.99132e-06
-3.24701e-08
-1.95571e-06
-3.56107e-08
-1.91732e-06
-3.83902e-08
-1.87679e-06
-4.0523e-08
-1.83395e-06
-4.28471e-08
-1.78859e-06
-4.53604e-08
-1.74087e-06
-4.7723e-08
-1.69129e-06
-4.95758e-08
-1.63977e-06
-5.15212e-08
-1.58664e-06
-5.31338e-08
-1.53236e-06
-5.42826e-08
-1.4769e-06
-5.54593e-08
-1.42024e-06
-5.66673e-08
-1.36213e-06
-5.8108e-08
-1.30267e-06
-5.94648e-08
-1.24222e-06
-6.04496e-08
-1.18134e-06
-6.08795e-08
-1.11955e-06
-6.17967e-08
-1.05783e-06
-6.17186e-08
-9.9462e-07
-6.32134e-08
-9.31061e-07
-6.35605e-08
-8.66259e-07
-6.48045e-08
-8.01485e-07
-6.47759e-08
-7.37104e-07
-6.4383e-08
-6.72701e-07
-6.44054e-08
-6.0991e-07
-6.27925e-08
-5.4535e-07
-6.45624e-08
-4.81938e-07
-6.34144e-08
-4.1955e-07
-6.23892e-08
-3.57534e-07
-6.20186e-08
-2.99985e-07
-5.75504e-08
-2.46524e-07
-5.3463e-08
-1.85779e-07
-6.07477e-08
-1.2772e-07
-5.80614e-08
-7.05197e-08
-5.7202e-08
-7.75456e-09
-6.27672e-08
2.3429e-08
-3.11855e-08
4.38414e-08
-2.04142e-08
1.03135e-07
-5.9295e-08
1.40275e-07
-3.71416e-08
2.19575e-07
-7.93016e-08
3.27506e-07
-1.07933e-07
5.55665e-07
-2.28159e-07
8.4682e-07
-2.91157e-07
1.05017e-06
-2.03346e-07
1.21209e-06
-1.61929e-07
1.32834e-06
-1.16252e-07
1.41999e-06
-9.16424e-08
1.49517e-06
-7.5186e-08
1.56908e-06
-7.39098e-08
1.6383e-06
-6.92218e-08
1.70426e-06
-6.59574e-08
1.76073e-06
-5.64713e-08
1.82265e-06
-6.19185e-08
1.83649e-06
-1.3847e-08
1.82988e-06
6.61058e-09
1.87129e-06
-4.1404e-08
1.8889e-06
-1.76139e-08
1.96492e-06
-7.60238e-08
2.08408e-06
-1.19153e-07
2.38007e-06
-2.95991e-07
2.76929e-06
-3.89216e-07
3.04456e-06
-2.75269e-07
3.27343e-06
-2.2887e-07
3.42164e-06
-1.48216e-07
3.54848e-06
-1.2684e-07
3.64665e-06
-9.81668e-08
3.72997e-06
-8.3317e-08
3.79197e-06
-6.19978e-08
3.82909e-06
-3.71175e-08
3.86606e-06
-3.69745e-08
3.90053e-06
-3.44676e-08
3.92262e-06
-2.20865e-08
3.9741e-06
-5.14771e-08
3.98069e-06
-6.58882e-09
3.87913e-06
1.01567e-07
3.82271e-06
5.64124e-08
3.75883e-06
6.3888e-08
3.73423e-06
2.45977e-08
3.9553e-06
-2.21066e-07
4.38519e-06
-4.29891e-07
5.31463e-06
-9.29439e-07
6.46317e-06
-1.14854e-06
7.44042e-06
-9.77243e-07
8.18889e-06
-7.48466e-07
8.73511e-06
-5.46214e-07
9.14187e-06
-4.06757e-07
9.45879e-06
-3.1692e-07
9.7168e-06
-2.58003e-07
9.92872e-06
-2.11922e-07
1.01062e-05
-1.77465e-07
1.02584e-05
-1.52219e-07
1.03946e-05
-1.36211e-07
1.05147e-05
-1.20093e-07
1.06202e-05
-1.05475e-07
1.07173e-05
-9.70845e-08
1.08049e-05
-8.76323e-08
1.08836e-05
-7.86622e-08
1.09584e-05
-7.48398e-08
1.10262e-05
-6.77692e-08
1.10875e-05
-6.12675e-08
1.11442e-05
-5.66937e-08
1.12003e-05
-5.61374e-08
1.12516e-05
-5.12617e-08
1.12969e-05
-4.52737e-08
1.13384e-05
-4.15839e-08
1.13779e-05
-3.94466e-08
1.14155e-05
-3.7606e-08
1.14509e-05
-3.53749e-08
1.14838e-05
-3.29447e-08
1.15149e-05
-3.10397e-08
1.15434e-05
-2.85207e-08
1.15701e-05
-2.66805e-08
1.15924e-05
-2.2374e-08
1.16152e-05
-2.27335e-08
1.16396e-05
-2.44315e-08
1.16641e-05
-2.44618e-08
1.16875e-05
-2.34276e-08
1.17092e-05
-2.17452e-08
1.17292e-05
-1.99643e-08
1.17475e-05
-1.82893e-08
1.17647e-05
-1.71487e-08
1.17809e-05
-1.62846e-08
1.17961e-05
-1.51741e-08
1.18101e-05
-1.3955e-08
1.18226e-05
-1.25235e-08
1.18366e-05
-1.3969e-08
1.18483e-05
-1.16828e-08
1.18562e-05
-7.92343e-09
1.18625e-05
-6.29485e-09
1.18683e-05
-5.84701e-09
1.18739e-05
-5.60676e-09
1.18796e-05
-5.62436e-09
1.18852e-05
-5.61105e-09
1.18906e-05
-5.39915e-09
1.18955e-05
-4.96344e-09
1.18998e-05
-4.23762e-09
1.19031e-05
-3.32806e-09
1.19056e-05
-2.51069e-09
1.19077e-05
-2.05833e-09
1.19097e-05
-2.06046e-09
1.19118e-05
-2.0284e-09
1.19133e-05
-1.55772e-09
1.19138e-05
-5.07633e-10
1.19131e-05
6.96992e-10
1.19119e-05
1.2182e-09
1.1911e-05
8.8089e-10
1.19105e-05
5.1679e-10
1.19094e-05
1.10699e-09
1.19069e-05
2.52324e-09
1.19039e-05
2.94642e-09
1.19014e-05
2.51808e-09
1.18996e-05
1.87542e-09
1.1895e-05
4.59508e-09
1.18926e-05
2.3529e-09
1.18931e-05
-5.41513e-10
1.18969e-05
-3.74777e-09
1.1898e-05
-1.10626e-09
1.18966e-05
1.43774e-09
1.1894e-05
2.59894e-09
1.18912e-05
2.74032e-09
1.18889e-05
2.32605e-09
1.2609e-09
-4.06906e-05
6.88047e-06
-3.87374e-05
-3.60748e-06
-3.64953e-05
-5.37793e-06
-3.4652e-05
-6.9898e-06
-3.25144e-05
-6.99874e-06
-3.09618e-05
-6.44855e-06
-2.96119e-05
-5.38393e-06
-2.86741e-05
-4.32984e-06
-2.82586e-05
-3.68828e-06
-2.82399e-05
-3.47385e-06
-2.86586e-05
-3.31919e-06
-2.93016e-05
-2.92549e-06
-3.01723e-05
-1.89697e-06
-3.14064e-05
8.18451e-08
-3.36341e-05
2.95537e-06
-3.72731e-05
6.52783e-06
-4.16248e-05
9.14595e-06
-4.52831e-05
9.86991e-06
-4.71995e-05
9.93497e-06
-4.73231e-05
9.89609e-06
-4.72697e-05
8.2547e-06
-4.88625e-05
5.79627e-06
-5.11923e-05
4.92695e-06
-5.33402e-05
4.64747e-06
-5.50926e-05
3.83827e-06
-5.67176e-05
2.88086e-06
-5.81977e-05
2.5844e-06
-5.95156e-05
2.62573e-06
-6.07878e-05
2.76492e-06
-6.21636e-05
3.06637e-06
-6.37312e-05
3.31505e-06
-6.53964e-05
3.19445e-06
-6.68907e-05
2.82969e-06
-6.81604e-05
2.62691e-06
-6.91158e-05
2.40436e-06
-6.98272e-05
1.86671e-06
-7.04615e-05
1.09461e-06
-7.10414e-05
7.33666e-07
-7.1681e-05
8.44389e-07
-7.23132e-05
1.26399e-06
-7.29602e-05
1.91108e-06
-7.36836e-05
2.10652e-06
-7.4472e-05
1.89691e-06
-7.50721e-05
1.10254e-06
-7.54094e-05
3.66288e-07
-7.57145e-05
2.5299e-07
-7.60205e-05
4.58307e-07
-7.63999e-05
9.95041e-07
-7.6957e-05
1.36233e-06
-7.75782e-05
1.35357e-06
-7.81866e-05
1.08931e-06
-7.86315e-05
5.4166e-07
-7.87808e-05
2.84453e-08
-7.87025e-05
-2.35678e-07
-7.852e-05
-4.04571e-07
-7.82857e-05
-6.87683e-07
-7.80673e-05
-8.62251e-07
-7.78617e-05
-7.96246e-07
-7.7725e-05
-3.76113e-07
-7.76134e-05
7.0187e-08
-7.73941e-05
9.49957e-08
-7.68715e-05
-3.53138e-07
-7.62559e-05
-8.99436e-07
-7.58547e-05
-9.08068e-07
-7.57151e-05
-4.32113e-07
-7.56301e-05
-1.8342e-07
-7.54504e-05
-3.37304e-07
-7.50018e-05
-1.13307e-06
-7.42313e-05
-2.20012e-06
-7.31185e-05
-3.05986e-06
-7.16467e-05
-3.81901e-06
-7.01132e-05
-4.29506e-06
-6.87326e-05
-4.5101e-06
-6.75598e-05
-4.94224e-06
-6.64164e-05
-5.79355e-06
-6.49756e-05
-7.26281e-06
-6.25682e-05
-9.33707e-06
-6.00494e-05
-1.11238e-05
-5.5661e-05
-1.1399e-05
-4.91226e-05
-1.00264e-05
-4.02013e-05
-1.04818e-05
-3.1355e-05
-7.66379e-06
-2.62561e-05
-3.57357e-06
-2.39091e-05
-7.22713e-07
-2.38079e-05
2.30589e-06
-2.48284e-05
2.49956e-06
-2.63982e-05
2.19236e-06
-2.87204e-05
2.77658e-06
-3.08607e-05
2.5201e-06
-3.15588e-05
7.99675e-07
-3.15818e-05
-5.47297e-08
-3.15689e-05
-9.52484e-08
-3.13977e-05
-4.94566e-07
-3.11966e-05
-6.99215e-07
-3.10261e-05
-9.07641e-07
-3.07643e-05
-1.34421e-06
-3.07218e-05
-1.90094e-06
-3.08664e-05
-2.19266e-06
-3.10699e-05
-2.68433e-06
-2.98933e-05
-3.00532e-06
-2.74608e-05
-2.83084e-06
-2.4347e-05
-3.16924e-06
-2.20518e-05
-1.84931e-06
-2.10977e-05
-6.28286e-07
-2.03706e-05
-9.89303e-08
-2.02135e-05
2.43942e-07
-2.02896e-05
1.47475e-07
-2.06276e-05
3.75719e-07
-2.12395e-05
6.36902e-07
-2.16416e-05
4.92941e-07
-2.15887e-05
-2.18651e-08
-2.15404e-05
-8.93919e-09
-2.14926e-05
-1.4828e-07
-2.14754e-05
-3.5004e-07
-2.15853e-05
-6.34064e-07
-2.16607e-05
-9.84413e-07
-2.17981e-05
-1.43392e-06
-2.13824e-05
-1.47304e-06
-2.03236e-05
-1.24132e-06
-1.87641e-05
-1.48439e-06
-1.75919e-05
-9.0933e-07
-1.72286e-05
-2.13001e-07
-1.70336e-05
1.95231e-07
-1.7112e-05
3.79004e-07
-1.72684e-05
2.83896e-07
-1.76554e-05
5.50348e-07
-1.79378e-05
4.21153e-07
-1.8018e-05
2.05923e-07
-1.81057e-05
2.44347e-07
-1.81972e-05
2.22971e-07
-1.8299e-05
2.04404e-07
-1.84324e-05
2.33448e-07
-1.85349e-05
1.79849e-07
-1.86053e-05
1.46323e-07
-1.86647e-05
1.32447e-07
-1.87165e-05
1.21628e-07
-1.87751e-05
1.22676e-07
-1.88304e-05
1.08882e-07
-1.88891e-05
1.10121e-07
-1.89348e-05
8.6227e-08
-1.89686e-05
6.54264e-08
-1.89935e-05
4.74722e-08
-1.90091e-05
3.26831e-08
-1.90173e-05
1.87153e-08
-1.90171e-05
1.43119e-09
-1.90053e-05
-2.18328e-08
-1.89801e-05
-4.97859e-08
-1.89446e-05
-7.32638e-08
-1.8903e-05
-8.78319e-08
-1.88536e-05
-1.01213e-07
-1.87924e-05
-1.18144e-07
-1.87173e-05
-1.43215e-07
-1.86294e-05
-1.73744e-07
-1.85318e-05
-1.97194e-07
-1.84284e-05
-2.10461e-07
-1.83173e-05
-2.25102e-07
-1.81946e-05
-2.44203e-07
-1.80568e-05
-2.70723e-07
-1.79076e-05
-2.9338e-07
-1.77516e-05
-3.09849e-07
-1.75893e-05
-3.25735e-07
-1.74172e-05
-3.46079e-07
-1.72335e-05
-3.68339e-07
-1.704e-05
-3.87129e-07
-1.68396e-05
-3.99229e-07
-1.66287e-05
-4.18665e-07
-1.6404e-05
-4.48205e-07
-1.6169e-05
-4.70479e-07
-1.59287e-05
-4.80519e-07
-1.56806e-05
-4.92479e-07
-1.54201e-05
-5.18565e-07
-1.5145e-05
-5.51115e-07
-1.48587e-05
-5.73945e-07
-1.45659e-05
-5.85128e-07
-1.42637e-05
-5.99319e-07
-1.39491e-05
-6.24014e-07
-1.3622e-05
-6.56894e-07
-1.32819e-05
-6.83593e-07
-1.29298e-05
-7.0327e-07
-1.25643e-05
-7.2656e-07
-1.21834e-05
-7.57377e-07
-1.17939e-05
-7.80889e-07
-1.13972e-05
-7.93527e-07
-1.09883e-05
-8.13501e-07
-1.05663e-05
-8.428e-07
-1.01278e-05
-8.80872e-07
-9.67177e-06
-9.17394e-07
-9.20273e-06
-9.38471e-07
-8.72273e-06
-9.54814e-07
-8.23729e-06
-9.67926e-07
-7.74915e-06
-9.81369e-07
-7.25228e-06
-1.00388e-06
-6.74396e-06
-1.02822e-06
-6.22276e-06
-1.04934e-06
-5.69194e-06
-1.05715e-06
-5.15891e-06
-1.05931e-06
-4.62959e-06
-1.05741e-06
-4.10241e-06
-1.05936e-06
-3.57162e-06
-1.0715e-06
-3.0359e-06
-1.08185e-06
-2.50333e-06
-1.07467e-06
-1.98088e-06
-1.04968e-06
-1.46608e-06
-1.02782e-06
-9.56778e-07
-1.01437e-06
-4.53958e-07
-1.00375e-06
3.82338e-08
-9.88532e-07
5.17485e-07
-9.63373e-07
9.83768e-07
-9.33139e-07
1.4395e-06
-9.05904e-07
1.88611e-06
-8.86641e-07
2.32276e-06
-8.71402e-07
2.74635e-06
-8.48191e-07
3.15512e-06
-8.16628e-07
3.55439e-06
-7.92269e-07
3.94717e-06
-7.80757e-07
4.3327e-06
-7.70282e-07
4.70935e-06
-7.54955e-07
5.07671e-06
-7.3518e-07
5.43299e-06
-7.0845e-07
5.77834e-06
-6.85163e-07
6.11492e-06
-6.70042e-07
6.4457e-06
-6.61435e-07
6.77052e-06
-6.51169e-07
7.08748e-06
-6.355e-07
7.39601e-06
-6.15715e-07
7.69523e-06
-5.9404e-07
7.98548e-06
-5.77318e-07
8.26797e-06
-5.63647e-07
8.54404e-06
-5.52353e-07
8.81372e-06
-5.40945e-07
9.07615e-06
-5.25635e-07
9.33007e-06
-5.05809e-07
9.57519e-06
-4.87682e-07
9.813e-06
-4.74476e-07
1.00448e-05
-4.62447e-07
1.02704e-05
-4.50066e-07
1.0489e-05
-4.36713e-07
1.06995e-05
-4.20496e-07
1.09011e-05
-4.02979e-07
1.10939e-05
-3.86535e-07
1.12794e-05
-3.71523e-07
1.14581e-05
-3.56402e-07
1.16306e-05
-3.42112e-07
1.17958e-05
-3.2822e-07
1.19529e-05
-3.14147e-07
1.21019e-05
-2.99442e-07
1.22429e-05
-2.83368e-07
1.23753e-05
-2.63536e-07
1.25e-05
-2.46871e-07
1.26178e-05
-2.34842e-07
1.27284e-05
-2.2152e-07
1.28303e-05
-2.04819e-07
1.29232e-05
-1.86834e-07
1.3008e-05
-1.68985e-07
1.30856e-05
-1.53657e-07
1.31558e-05
-1.38765e-07
1.32176e-05
-1.22741e-07
1.32705e-05
-1.06211e-07
1.33137e-05
-8.81673e-08
1.33485e-05
-7.06727e-08
1.33766e-05
-5.54192e-08
1.33975e-05
-4.04225e-08
1.34102e-05
-2.5289e-08
1.34145e-05
-9.64824e-09
1.34099e-05
8.20392e-09
1.33959e-05
2.75415e-08
1.33738e-05
4.55333e-08
1.33443e-05
5.95828e-08
1.33081e-05
7.20025e-08
1.32642e-05
8.6671e-08
1.32123e-05
1.02481e-07
1.31521e-05
1.18872e-07
1.30843e-05
1.359e-07
1.30092e-05
1.51504e-07
1.29266e-05
1.6524e-07
1.28365e-05
1.79145e-07
1.27396e-05
1.92781e-07
1.26363e-05
2.0588e-07
1.25267e-05
2.18558e-07
1.2411e-05
2.30374e-07
1.22884e-05
2.43961e-07
1.21585e-05
2.59909e-07
1.20225e-05
2.72339e-07
1.18819e-05
2.81164e-07
1.1736e-05
2.90733e-07
1.15844e-05
3.01779e-07
1.14273e-05
3.12617e-07
1.12654e-05
3.22546e-07
1.10988e-05
3.33224e-07
1.09276e-05
3.43091e-07
1.07522e-05
3.50799e-07
1.05727e-05
3.58035e-07
1.03889e-05
3.65893e-07
1.02017e-05
3.72699e-07
1.00115e-05
3.79921e-07
9.81822e-06
3.87673e-07
9.62202e-06
3.9308e-07
9.42194e-06
3.99095e-07
9.21877e-06
4.04431e-07
9.01439e-06
4.07068e-07
8.80919e-06
4.10576e-07
8.60242e-06
4.15313e-07
8.39302e-06
4.18788e-07
8.18119e-06
4.21748e-07
7.96981e-06
4.21753e-07
7.75915e-06
4.22337e-07
7.54782e-06
4.23611e-07
7.33536e-06
4.24362e-07
7.12328e-06
4.22769e-07
6.91262e-06
4.19968e-07
6.70322e-06
4.18829e-07
6.49472e-06
4.18294e-07
6.28623e-06
4.1708e-07
6.07928e-06
4.12478e-07
5.87521e-06
4.06695e-07
5.67362e-06
4.02952e-07
5.47398e-06
3.99912e-07
5.27553e-06
3.96207e-07
5.07815e-06
3.92667e-07
4.8829e-06
3.88079e-07
4.69023e-06
3.84046e-07
4.49964e-06
3.8142e-07
4.31046e-06
3.78174e-07
4.12201e-06
3.75103e-07
3.93373e-06
3.73697e-07
3.74608e-06
3.73522e-07
3.55938e-06
3.73447e-07
3.37332e-06
3.72054e-07
3.18743e-06
3.70725e-07
3.001e-06
3.71011e-07
2.81425e-06
3.72612e-07
2.62748e-06
3.74966e-07
2.44077e-06
3.75365e-07
2.2548e-06
3.73223e-07
2.06985e-06
3.70144e-07
1.886e-06
3.67346e-07
1.70389e-06
3.64343e-07
1.52405e-06
3.6083e-07
1.34644e-06
3.57209e-07
1.17105e-06
3.52227e-07
9.98243e-07
3.45941e-07
8.28864e-07
3.3881e-07
6.63129e-07
3.31482e-07
5.0087e-07
3.25019e-07
3.43124e-07
3.17163e-07
1.90133e-07
3.07456e-07
4.15536e-08
2.97494e-07
-1.02455e-07
2.8758e-07
-2.41748e-07
2.78313e-07
-3.761e-07
2.69264e-07
-5.05458e-07
2.59619e-07
-6.29901e-07
2.49042e-07
-7.49434e-07
2.38561e-07
-8.63966e-07
2.29189e-07
-9.7359e-07
2.19804e-07
-1.07858e-06
2.09955e-07
-1.17892e-06
2.00138e-07
-1.27419e-06
1.90138e-07
-1.36428e-06
1.801e-07
-1.4494e-06
1.70174e-07
-1.52973e-06
1.60444e-07
-1.60529e-06
1.50807e-07
-1.67592e-06
1.41017e-07
-1.74168e-06
1.31581e-07
-1.80259e-06
1.22206e-07
-1.85875e-06
1.12797e-07
-1.91026e-06
1.03185e-07
-1.95709e-06
9.35964e-08
-1.99929e-06
8.42246e-08
-2.03689e-06
7.52563e-08
-2.06993e-06
6.63548e-08
-2.09844e-06
5.72577e-08
-2.12231e-06
4.78071e-08
-2.14159e-06
3.85753e-08
-2.15649e-06
2.99485e-08
-2.16723e-06
2.16489e-08
-2.17396e-06
1.34467e-08
-2.17654e-06
5.22318e-09
-2.17488e-06
-2.76317e-09
-2.16924e-06
-1.03507e-08
-2.15986e-06
-1.80573e-08
-2.14687e-06
-2.57162e-08
-2.1301e-06
-3.34405e-08
-2.10989e-06
-4.0337e-08
-2.08634e-06
-4.69627e-08
-2.05962e-06
-5.32526e-08
-2.02969e-06
-5.92845e-08
-1.99667e-06
-6.54971e-08
-1.96084e-06
-7.14404e-08
-1.92245e-06
-7.67887e-08
-1.88133e-06
-8.16424e-08
-1.83761e-06
-8.65672e-08
-1.79171e-06
-9.12678e-08
-1.74398e-06
-9.54511e-08
-1.69439e-06
-9.91735e-08
-1.64282e-06
-1.03091e-07
-1.58946e-06
-1.06495e-07
-1.53448e-06
-1.09266e-07
-1.47812e-06
-1.11822e-07
-1.4211e-06
-1.1369e-07
-1.36278e-06
-1.16434e-07
-1.30354e-06
-1.18704e-07
-1.24325e-06
-1.20746e-07
-1.18225e-06
-1.21882e-07
-1.11999e-06
-1.24066e-07
-1.05789e-06
-1.2382e-07
-9.9485e-07
-1.26253e-07
-9.32375e-07
-1.26038e-07
-8.6929e-07
-1.27892e-07
-8.04228e-07
-1.29841e-07
-7.39272e-07
-1.29342e-07
-6.72161e-07
-1.31519e-07
-6.07445e-07
-1.27511e-07
-5.42169e-07
-1.29841e-07
-4.82661e-07
-1.22925e-07
-4.25744e-07
-1.19309e-07
-3.61505e-07
-1.26261e-07
-2.95839e-07
-1.23219e-07
-2.28483e-07
-1.20822e-07
-1.61692e-07
-1.27542e-07
-1.29726e-07
-9.00305e-08
-1.10185e-07
-7.6746e-08
-5.03587e-08
-1.22596e-07
2.09871e-08
-1.02534e-07
1.44306e-07
-1.43735e-07
2.78006e-07
-1.92998e-07
5.18738e-07
-2.77875e-07
8.01001e-07
-3.61567e-07
1.00225e-06
-3.09188e-07
1.1218e-06
-3.47702e-07
1.16751e-06
-3.36875e-07
1.23453e-06
-2.70363e-07
1.29587e-06
-2.23272e-07
1.37709e-06
-1.97473e-07
1.45359e-06
-1.6814e-07
1.54001e-06
-1.61615e-07
1.61968e-06
-1.53572e-07
1.69335e-06
-1.42899e-07
1.71876e-06
-9.13703e-08
1.71715e-06
-5.48599e-08
1.76956e-06
-1.14325e-07
1.8382e-06
-8.24945e-08
1.98756e-06
-1.42749e-07
2.15429e-06
-2.08126e-07
2.47726e-06
-3.4059e-07
2.86114e-06
-4.59896e-07
3.14326e-06
-4.01279e-07
3.30266e-06
-4.55391e-07
3.35072e-06
-4.37276e-07
3.42672e-06
-3.51268e-07
3.49922e-06
-3.01366e-07
3.57362e-06
-2.22607e-07
3.62528e-06
-1.78499e-07
3.68059e-06
-1.53479e-07
3.73843e-06
-1.41159e-07
3.80541e-06
-1.28967e-07
3.87323e-06
-1.04936e-07
3.96627e-06
-1.30016e-07
4.00083e-06
-6.90182e-08
3.91269e-06
6.60516e-08
3.84504e-06
1.6178e-08
3.81446e-06
2.39933e-08
3.91347e-06
2.55487e-09
4.26258e-06
-2.92689e-07
4.90387e-06
-5.77397e-07
5.98915e-06
-1.06068e-06
7.05751e-06
-1.28942e-06
7.91994e-06
-1.29232e-06
8.438e-06
-1.44749e-06
8.65369e-06
-1.36422e-06
8.87246e-06
-1.196e-06
9.08935e-06
-9.65351e-07
9.30969e-06
-7.66547e-07
9.5196e-06
-6.16661e-07
9.71298e-06
-5.10299e-07
9.89004e-06
-4.35051e-07
1.00515e-05
-3.73331e-07
1.0197e-05
-3.23001e-07
1.03303e-05
-2.85562e-07
1.04522e-05
-2.58072e-07
1.05623e-05
-2.30146e-07
1.06622e-05
-2.05427e-07
1.07542e-05
-1.89021e-07
1.08387e-05
-1.72126e-07
1.09164e-05
-1.56359e-07
1.09887e-05
-1.47198e-07
1.10558e-05
-1.34845e-07
1.11182e-05
-1.23649e-07
1.11763e-05
-1.14817e-07
1.1231e-05
-1.10767e-07
1.12817e-05
-1.01946e-07
1.13285e-05
-9.2158e-08
1.13721e-05
-8.51609e-08
1.1413e-05
-8.03061e-08
1.14509e-05
-7.55304e-08
1.14864e-05
-7.08337e-08
1.15197e-05
-6.62708e-08
1.15511e-05
-6.2429e-08
1.15798e-05
-5.72229e-08
1.16065e-05
-5.34241e-08
1.16318e-05
-4.76063e-08
1.16558e-05
-4.67543e-08
1.16787e-05
-4.73458e-08
1.17005e-05
-4.62449e-08
1.17211e-05
-4.39881e-08
1.17406e-05
-4.12634e-08
1.17592e-05
-3.85792e-08
1.17766e-05
-3.57121e-08
1.1793e-05
-3.35128e-08
1.18084e-05
-3.16443e-08
1.18227e-05
-2.94529e-08
1.18355e-05
-2.68302e-08
1.18474e-05
-2.44365e-08
1.18583e-05
-2.48437e-08
1.18679e-05
-2.12974e-08
1.18767e-05
-1.66383e-08
1.18846e-05
-1.42547e-08
1.18918e-05
-1.30592e-08
1.18984e-05
-1.2157e-08
1.19042e-05
-1.14838e-08
1.19095e-05
-1.08981e-08
1.19144e-05
-1.02552e-08
1.19188e-05
-9.38335e-09
1.19227e-05
-8.10365e-09
1.19259e-05
-6.52184e-09
1.19284e-05
-5.0477e-09
1.19305e-05
-4.13742e-09
1.19322e-05
-3.75933e-09
1.19335e-05
-3.37494e-09
1.19342e-05
-2.21541e-09
1.19338e-05
-1.31455e-10
1.1933e-05
1.53986e-09
1.19324e-05
1.81728e-09
1.19318e-05
1.42993e-09
1.19306e-05
1.74055e-09
1.19285e-05
3.20144e-09
1.19262e-05
4.8315e-09
1.19247e-05
4.46834e-09
1.1923e-05
4.19786e-09
1.19206e-05
4.32741e-09
1.19175e-05
7.659e-09
1.1915e-05
4.87278e-09
1.19133e-05
1.14131e-09
1.19111e-05
-1.52805e-09
1.1908e-05
1.94552e-09
1.19045e-05
4.97286e-09
1.19009e-05
6.16595e-09
1.18974e-05
6.24145e-09
1.18936e-05
6.15431e-09
7.23017e-09
-3.60834e-05
2.18405e-06
-3.50811e-05
-4.61016e-06
-3.40614e-05
-6.3978e-06
-3.3715e-05
-7.33645e-06
-3.3503e-05
-7.21085e-06
-3.34401e-05
-6.51152e-06
-3.37034e-05
-5.12078e-06
-3.46524e-05
-3.38088e-06
-3.66402e-05
-1.70051e-06
-3.95973e-05
-5.1677e-07
-4.30847e-05
1.68227e-07
-4.64573e-05
4.47034e-07
-4.91996e-05
8.45314e-07
-5.10759e-05
1.95815e-06
-5.23526e-05
4.23212e-06
-5.28026e-05
6.97786e-06
-5.25021e-05
8.84543e-06
-5.2236e-05
9.60377e-06
-5.21296e-05
9.8286e-06
-5.17285e-05
9.49502e-06
-5.16756e-05
8.20189e-06
-5.27875e-05
6.90819e-06
-5.43157e-05
6.4551e-06
-5.57155e-05
6.04737e-06
-5.7206e-05
5.32873e-06
-5.88603e-05
4.53524e-06
-6.02208e-05
3.94494e-06
-6.12718e-05
3.6768e-06
-6.23221e-05
3.81519e-06
-6.34386e-05
4.18291e-06
-6.47103e-05
4.58679e-06
-6.61328e-05
4.61698e-06
-6.75144e-05
4.21136e-06
-6.85409e-05
3.65342e-06
-6.90944e-05
2.95796e-06
-6.95732e-05
2.34552e-06
-7.04025e-05
1.92398e-06
-7.13593e-05
1.69046e-06
-7.22265e-05
1.7116e-06
-7.28721e-05
1.90967e-06
-7.32195e-05
2.25854e-06
-7.34992e-05
2.38621e-06
-7.38859e-05
2.28369e-06
-7.44512e-05
1.66784e-06
-7.51049e-05
1.02007e-06
-7.57252e-05
8.73332e-07
-7.63038e-05
1.03691e-06
-7.66719e-05
1.36318e-06
-7.70092e-05
1.69963e-06
-7.74372e-05
1.7816e-06
-7.79681e-05
1.62029e-06
-7.85324e-05
1.10598e-06
-7.89695e-05
4.65652e-07
-7.92062e-05
1.04731e-09
-7.93256e-05
-2.85128e-07
-7.93751e-05
-6.38215e-07
-7.94295e-05
-8.07831e-07
-7.94269e-05
-7.98813e-07
-7.92436e-05
-5.59334e-07
-7.88088e-05
-3.6459e-07
-7.81112e-05
-6.02539e-07
-7.71853e-05
-1.27898e-06
-7.64342e-05
-1.65052e-06
-7.59429e-05
-1.39936e-06
-7.57215e-05
-6.53489e-07
-7.5496e-05
-4.08821e-07
-7.51513e-05
-6.82008e-07
-7.48153e-05
-1.46899e-06
-7.4458e-05
-2.55743e-06
-7.38235e-05
-3.69432e-06