/*--------------------------------*- C++ -*----------------------------------*\
| =========                 |                                                 |
| \\      /  F ield         | OpenFOAM: The Open Source CFD Toolbox           |
|  \\    /   O peration     | Version:  v2006                                 |
|   \\  /    A nd           | Website:  www.openfoam.com                      |
|    \\/     M anipulation  |                                                 |
\*---------------------------------------------------------------------------*/
FoamFile
{
    version     2.0;
    format      ascii;
    class       volVectorField;
    location    "6";
    object      U;
}
// * * * * * * * * * * * * * * * * * * * * * * * * * * * * * * * * * * * * * //

dimensions      [0 1 -1 0 0 0 0];


internalField   nonuniform List<vector> 
33000
(
(-0.155358 0 0.0190005)
(-0.101041 0 -0.00454733)
(-0.118703 0 -0.00887955)
(-0.0994048 0 -0.0167079)
(-0.0890562 0 -0.0137978)
(-0.0755303 0 -0.0157957)
(-0.0646675 0 -0.0124334)
(-0.0559661 0 -0.0102455)
(-0.0472507 0 -0.00954666)
(-0.0391726 0 -0.0101262)
(-0.0296168 0 -0.012389)
(-0.0209577 0 -0.0133926)
(-0.012429 0 -0.0132772)
(-0.00715291 0 -0.00960773)
(-0.00665253 0 -0.0073823)
(-0.0110031 0 -0.00624087)
(-0.0203622 0 -0.00472866)
(-0.0340655 0 0.00256159)
(-0.0515555 0 0.0171057)
(-0.073578 0 0.0317235)
(-0.100521 0 0.0292476)
(-0.117443 0 0.0115577)
(-0.12168 0 0.0043113)
(-0.128496 0 0.00414543)
(-0.135494 0 0.00439408)
(-0.139023 0 0.00234012)
(-0.141354 0 0.00164816)
(-0.144486 0 0.00258624)
(-0.147911 0 0.00330888)
(-0.151751 0 0.0039603)
(-0.156282 0 0.00378428)
(-0.160565 0 0.00285853)
(-0.163947 0 0.00262191)
(-0.167271 0 0.00284901)
(-0.1708 0 0.00340751)
(-0.174465 0 0.00272127)
(-0.176427 0 0.000875868)
(-0.176898 0 -6.89634e-05)
(-0.177278 0 -2.79782e-05)
(-0.17783 0 0.00129056)
(-0.180315 0 0.00326755)
(-0.184027 0 0.00346676)
(-0.187386 0 0.00245869)
(-0.189578 0 0.000969202)
(-0.190007 0 -0.000140843)
(-0.18992 0 -0.000385376)
(-0.189507 0 0.000344743)
(-0.190565 0 0.00161611)
(-0.192543 0 0.00190241)
(-0.194607 0 0.00153268)
(-0.196446 0 0.000781522)
(-0.197014 0 -1.63008e-05)
(-0.196951 0 -0.000366013)
(-0.196309 0 -0.000156823)
(-0.195972 0 -0.00021239)
(-0.195228 0 -0.000880109)
(-0.193729 0 -0.00155243)
(-0.192049 0 -0.00141997)
(-0.190753 0 -0.000416723)
(-0.190823 0 0.000705583)
(-0.19178 0 0.0012176)
(-0.192538 0 0.000904172)
(-0.192581 0 -0.000118038)
(-0.191134 0 -0.00115876)
(-0.189777 0 -0.000722663)
(-0.189596 0 -0.000162171)
(-0.189705 0 -0.000234674)
(-0.188791 0 -0.00160378)
(-0.186006 0 -0.00342022)
(-0.181541 0 -0.00463212)
(-0.176127 0 -0.00547321)
(-0.169649 0 -0.00680924)
(-0.162393 0 -0.00832772)
(-0.153928 0 -0.0108453)
(-0.143989 0 -0.0139517)
(-0.130868 0 -0.0178246)
(-0.109428 0 -0.0214591)
(-0.0964987 0 -0.0273503)
(-0.0725969 0 -0.00849495)
(-0.0603166 0 0.00579357)
(-0.0547862 0 0.0111091)
(-0.0532406 0 0.0121673)
(-0.0601633 0 0.00288462)
(-0.0611191 0 -0.00093374)
(-0.0682058 0 0.00213936)
(-0.0732008 0 0.00191115)
(-0.0755055 0 0.000633088)
(-0.0764057 0 -4.88254e-05)
(-0.0777398 0 0.00107321)
(-0.0783051 0 0.000443889)
(-0.0782546 0 -1.28913e-05)
(-0.077913 0 -0.000201731)
(-0.0778579 0 -0.000434394)
(-0.0762463 0 -0.000853584)
(-0.0754512 0 -0.00147022)
(-0.0724368 0 -0.00273235)
(-0.070205 0 -0.00584799)
(-0.0629024 0 -0.00814615)
(-0.0588838 0 -0.0107105)
(-0.0483287 0 -0.00360415)
(-0.0493561 0 0.00355938)
(-0.0468009 0 0.00643499)
(-0.0489028 0 0.00435006)
(-0.0490256 0 -0.000824856)
(-0.0505857 0 -0.00155156)
(-0.0521364 0 -0.00162708)
(-0.0525437 0 -3.582e-05)
(-0.0525707 0 0.000538246)
(-0.0526705 0 0.00140969)
(-0.0527539 0 0.00103491)
(-0.0530741 0 0.000250664)
(-0.0529387 0 -0.000209582)
(-0.0532751 0 -0.000599718)
(-0.052377 0 -0.0010467)
(-0.0517158 0 -0.00239827)
(-0.0484788 0 -0.00316559)
(-0.0467185 0 -0.00540044)
(-0.0404889 0 -0.002203)
(-0.0411414 0 0.00146681)
(-0.0399642 0 0.00324697)
(-0.0413309 0 0.00240496)
(-0.0413096 0 -1.89152e-05)
(-0.0421216 0 -0.000275902)
(-0.0432249 0 -0.000234255)
(-0.0436037 0 0.00042227)
(-0.0439082 0 0.000717089)
(-0.0443876 0 0.000644183)
(-0.0446184 0 0.000251729)
(-0.0450136 0 0.000248743)
(-0.045401 0 0.000160025)
(-0.0456643 0 0.000277493)
(-0.045925 0 0.000268605)
(-0.0461526 0 0.000247699)
(-0.0463223 0 0.000148971)
(-0.0465255 0 0.000145028)
(-0.0466909 0 6.64566e-05)
(-0.0468735 0 8.43882e-05)
(-0.0470095 0 6.49104e-05)
(-0.0471445 0 8.26368e-05)
(-0.0472629 0 6.35259e-05)
(-0.04735 0 4.81516e-05)
(-0.0474185 0 3.01253e-05)
(-0.0474651 0 2.37457e-05)
(-0.0475022 0 1.72341e-05)
(-0.0475183 0 1.6485e-06)
(-0.04751 0 -2.1169e-05)
(-0.0474675 0 -5.11407e-05)
(-0.0473872 0 -7.85387e-05)
(-0.047279 0 -9.65189e-05)
(-0.0471557 0 -0.000106755)
(-0.0470204 0 -0.000110318)
(-0.0468706 0 -0.000130045)
(-0.0466786 0 -0.000168949)
(-0.0464417 0 -0.000198386)
(-0.0461814 0 -0.000213531)
(-0.0459053 0 -0.000227875)
(-0.0456126 0 -0.000238579)
(-0.0452965 0 -0.000256872)
(-0.0449487 0 -0.000278421)
(-0.044575 0 -0.000301059)
(-0.0441795 0 -0.000322971)
(-0.0437577 0 -0.000344287)
(-0.0433093 0 -0.000363232)
(-0.0428343 0 -0.000380379)
(-0.0423414 0 -0.00038993)
(-0.04184 0 -0.000406665)
(-0.0413018 0 -0.000438928)
(-0.0407226 0 -0.000463154)
(-0.0401245 0 -0.000472605)
(-0.0395219 0 -0.000478669)
(-0.0389012 0 -0.000505446)
(-0.0382318 0 -0.000543094)
(-0.0375208 0 -0.00056668)
(-0.0367941 0 -0.000575733)
(-0.0360583 0 -0.000580586)
(-0.0353088 0 -0.000603871)
(-0.0345098 0 -0.000650235)
(-0.0336606 0 -0.000677251)
(-0.0327923 0 -0.000690932)
(-0.0319042 0 -0.000707417)
(-0.0309869 0 -0.000735111)
(-0.0300211 0 -0.000768613)
(-0.0290306 0 -0.000779173)
(-0.0280363 0 -0.000791801)
(-0.0270074 0 -0.00082792)
(-0.0259316 0 -0.000874077)
(-0.0247954 0 -0.000910673)
(-0.0236251 0 -0.000920158)
(-0.022448 0 -0.000925767)
(-0.0212507 0 -0.000943398)
(-0.0200354 0 -0.000974413)
(-0.0187839 0 -0.00100589)
(-0.0175007 0 -0.00103039)
(-0.0161835 0 -0.00104149)
(-0.0148607 0 -0.00102643)
(-0.013551 0 -0.00102541)
(-0.0122294 0 -0.00103659)
(-0.0109102 0 -0.00105143)
(-0.00956815 0 -0.00107078)
(-0.00820647 0 -0.00108044)
(-0.00683742 0 -0.00107306)
(-0.00549593 0 -0.00104089)
(-0.00420117 0 -0.00100558)
(-0.00293032 0 -0.000988047)
(-0.00167603 0 -0.00098293)
(-0.000425005 0 -0.000979585)
(0.000805987 0 -0.000956188)
(0.00199591 0 -0.000919044)
(0.00314023 0 -0.000880538)
(0.00424684 0 -0.000859863)
(0.00534067 0 -0.000853195)
(0.00642033 0 -0.000835844)
(0.00746378 0 -0.000801699)
(0.00845919 0 -0.00076724)
(0.00942949 0 -0.000758724)
(0.010399 0 -0.000756329)
(0.011353 0 -0.000745579)
(0.0122907 0 -0.000723364)
(0.0131916 0 -0.000688018)
(0.014052 0 -0.000663172)
(0.0148907 0 -0.000653714)
(0.0157196 0 -0.000650684)
(0.016544 0 -0.000642925)
(0.0173513 0 -0.000627624)
(0.018137 0 -0.000602735)
(0.0188868 0 -0.000575656)
(0.0196119 0 -0.000561746)
(0.0203221 0 -0.000552105)
(0.0210181 0 -0.00054335)
(0.0217036 0 -0.000534591)
(0.0223746 0 -0.000518149)
(0.0230196 0 -0.000493578)
(0.0236344 0 -0.00047462)
(0.0242329 0 -0.000464387)
(0.0248178 0 -0.000452754)
(0.0253863 0 -0.000440831)
(0.0259405 0 -0.000428156)
(0.0264767 0 -0.000411582)
(0.0269907 0 -0.000395095)
(0.0274838 0 -0.000381758)
(0.0279596 0 -0.000366976)
(0.0284143 0 -0.000349028)
(0.0288482 0 -0.000331321)
(0.0292629 0 -0.000318736)
(0.0296637 0 -0.000308942)
(0.0300481 0 -0.000296672)
(0.0304163 0 -0.000280704)
(0.0307598 0 -0.000256818)
(0.0310725 0 -0.000238268)
(0.031371 0 -0.000230117)
(0.0316579 0 -0.000218603)
(0.0319257 0 -0.000202641)
(0.0321725 0 -0.000185297)
(0.0323954 0 -0.000165411)
(0.0325941 0 -0.000147937)
(0.0327754 0 -0.000133527)
(0.0329371 0 -0.00011945)
(0.0330802 0 -0.000105298)
(0.0332037 0 -8.96309e-05)
(0.0333045 0 -7.13556e-05)
(0.0333832 0 -5.25494e-05)
(0.0334411 0 -3.69736e-05)
(0.0334808 0 -2.43938e-05)
(0.0335038 0 -1.09046e-05)
(0.0335068 0 6.0447e-06)
(0.0334859 0 2.65673e-05)
(0.0334384 0 4.7388e-05)
(0.033369 0 6.03572e-05)
(0.0332873 0 6.99796e-05)
(0.03319 0 8.35902e-05)
(0.0330728 0 9.85627e-05)
(0.0329371 0 0.000115462)
(0.0327789 0 0.000135412)
(0.0325962 0 0.000151421)
(0.032397 0 0.00016227)
(0.0321826 0 0.000174393)
(0.0319513 0 0.0001884)
(0.031703 0 0.000201948)
(0.0314383 0 0.000214398)
(0.031158 0 0.000225334)
(0.0308645 0 0.000238786)
(0.0305506 0 0.000256519)
(0.0302147 0 0.000269146)
(0.0298683 0 0.000276303)
(0.029512 0 0.000284565)
(0.0291434 0 0.00029473)
(0.0287607 0 0.000305294)
(0.028366 0 0.000316671)
(0.027957 0 0.000328962)
(0.0275325 0 0.000339139)
(0.0270974 0 0.000345493)
(0.0266549 0 0.000350735)
(0.0262044 0 0.000357297)
(0.0257444 0 0.00036457)
(0.0252768 0 0.000374707)
(0.0247953 0 0.000384393)
(0.0243046 0 0.000388169)
(0.0238104 0 0.000390751)
(0.0233093 0 0.000394718)
(0.0228037 0 0.000398916)
(0.0222956 0 0.000406337)
(0.0217763 0 0.000412667)
(0.0212528 0 0.000412397)
(0.0207288 0 0.000411654)
(0.0202031 0 0.000414182)
(0.0196764 0 0.000418348)
(0.0191446 0 0.000418906)
(0.0186146 0 0.000416793)
(0.0180848 0 0.000413692)
(0.0175608 0 0.000411227)
(0.0170379 0 0.000412896)
(0.0165133 0 0.000414627)
(0.0159885 0 0.00041088)
(0.0154701 0 0.000403533)
(0.0149605 0 0.000398214)
(0.0144566 0 0.000397261)
(0.0139533 0 0.000395499)
(0.0134551 0 0.000388996)
(0.0129642 0 0.000383408)
(0.0124785 0 0.000378794)
(0.0119998 0 0.000377223)
(0.0115214 0 0.000377718)
(0.0110455 0 0.000373266)
(0.0105762 0 0.000367005)
(0.0101121 0 0.000363943)
(0.00964903 0 0.000365929)
(0.00918262 0 0.000369112)
(0.00871541 0 0.000367344)
(0.00825279 0 0.000363939)
(0.00779141 0 0.000362514)
(0.00733009 0 0.000365698)
(0.00686235 0 0.000372184)
(0.00638941 0 0.000373063)
(0.00591924 0 0.000369263)
(0.00545339 0 0.000364437)
(0.00499342 0 0.000360701)
(0.00453601 0 0.000358519)
(0.00408236 0 0.000356874)
(0.00363115 0 0.00035455)
(0.00318443 0 0.000348516)
(0.00274705 0 0.000340101)
(0.00231883 0 0.000332709)
(0.00189998 0 0.000325537)
(0.00149016 0 0.000320132)
(0.00108624 0 0.000314771)
(0.000693165 0 0.000304797)
(0.000313962 0 0.000292908)
(-5.13925e-05 0 0.000281936)
(-0.00040389 0 0.000273048)
(-0.000746459 0 0.000265718)
(-0.00107841 0 0.000257076)
(-0.00139773 0 0.000245348)
(-0.00170137 0 0.000233713)
(-0.00199288 0 0.000225717)
(-0.00227464 0 0.000217311)
(-0.00254379 0 0.000206461)
(-0.00279949 0 0.000195907)
(-0.00304285 0 0.000186273)
(-0.00327391 0 0.000177035)
(-0.003493 0 0.000167137)
(-0.00369923 0 0.000157467)
(-0.00389375 0 0.000147527)
(-0.00407555 0 0.000138166)
(-0.00424589 0 0.000129029)
(-0.00440479 0 0.000120544)
(-0.00455253 0 0.000111215)
(-0.0046881 0 0.000101572)
(-0.00481108 0 9.11801e-05)
(-0.00492203 0 8.17409e-05)
(-0.00502136 0 7.26749e-05)
(-0.00511035 0 6.48679e-05)
(-0.00518809 0 5.53053e-05)
(-0.00525413 0 4.59564e-05)
(-0.00530788 0 3.6168e-05)
(-0.00535065 0 2.82313e-05)
(-0.00538319 0 1.96525e-05)
(-0.00540522 0 1.14555e-05)
(-0.00541681 0 3.26018e-06)
(-0.00541847 0 -3.68935e-06)
(-0.00541134 0 -1.02205e-05)
(-0.00539492 0 -1.85964e-05)
(-0.005368 0 -2.62877e-05)
(-0.00533128 0 -3.48422e-05)
(-0.00528469 0 -4.02708e-05)
(-0.00523067 0 -4.77954e-05)
(-0.00516765 0 -5.18079e-05)
(-0.00509802 0 -5.90176e-05)
(-0.00502084 0 -6.21734e-05)
(-0.00493568 0 -7.09518e-05)
(-0.0048428 0 -7.29012e-05)
(-0.00474373 0 -7.94966e-05)
(-0.00464021 0 -7.96349e-05)
(-0.00452946 0 -8.81872e-05)
(-0.00441346 0 -8.87762e-05)
(-0.00429079 0 -9.57798e-05)
(-0.00416568 0 -9.49929e-05)
(-0.00403309 0 -0.000101428)
(-0.00390016 0 -9.8863e-05)
(-0.00376153 0 -0.000103783)
(-0.00362304 0 -0.000103043)
(-0.00347803 0 -0.000107245)
(-0.00333268 0 -0.000108057)
(-0.00318055 0 -0.000109274)
(-0.0030306 0 -0.000111269)
(-0.00287603 0 -0.000108288)
(-0.00272173 0 -0.000113829)
(-0.0025674 0 -0.000106195)
(-0.00240564 0 -0.000119973)
(-0.00224971 0 -0.000108389)
(-0.00208144 0 -0.000130954)
(-0.00192613 0 -0.000114286)
(-0.00175917 0 -0.000138386)
(-0.00160456 0 -0.000116774)
(-0.0014447 0 -0.000134655)
(-0.00128232 0 -0.00011257)
(-0.00112706 0 -0.000128528)
(-0.000970983 0 -0.00012508)
(-0.000816358 0 -0.000146781)
(-0.000683868 0 -0.000126706)
(-0.000548416 0 -0.000123488)
(-0.000380791 0 -6.62419e-05)
(-0.000257474 0 -6.64005e-05)
(-9.54231e-05 0 -0.000126289)
(5.69733e-05 0 -0.000209521)
(5.98275e-05 0 -0.000211927)
(0.000159853 0 -0.000148657)
(0.00035529 0 0.000219293)
(0.000346678 0 0.00030024)
(0.000750852 0 -3.62433e-06)
(0.000886769 0 -0.000519324)
(0.00189123 0 -0.000941412)
(0.0023438 0 -0.000557241)
(0.00290596 0 -0.000442513)
(0.00315556 0 -0.000322278)
(0.00348513 0 -0.00024516)
(0.00361565 0 -0.000254692)
(0.00385968 0 -0.000144489)
(0.00398595 0 -0.000155167)
(0.00420567 0 -2.32908e-05)
(0.00431518 0 -4.62622e-05)
(0.00448921 0 -7.36072e-05)
(0.00462302 0 -0.000189321)
(0.00456002 0 -0.00016487)
(0.00458926 0 -9.89371e-05)
(0.00476742 0 0.00039348)
(0.00467622 0 0.000519189)
(0.00515136 0 0.00015504)
(0.00526399 0 -0.000584336)
(0.00663874 0 -0.00120622)
(0.00720892 0 -0.000699135)
(0.00801297 0 -0.000602167)
(0.00835456 0 -0.000319148)
(0.00875324 0 -0.000253058)
(0.00898948 0 -0.000162385)
(0.00924347 0 -0.000154279)
(0.00940655 0 -0.000160316)
(0.00955313 0 -0.000142477)
(0.00959226 0 -0.000145955)
(0.00973874 0 -2.87739e-05)
(0.00976232 0 6.40318e-05)
(0.00985325 0 6.12947e-05)
(0.0100144 0 -0.000124726)
(0.00989066 0 -0.000209706)
(0.00950487 0 -0.000390544)
(0.0096094 0 0.000177735)
(0.00918066 0 0.00115237)
(0.00950108 0 0.00108113)
(0.0102586 0 0.000434735)
(0.0116791 0 -0.00147987)
(0.0149112 0 -0.00356334)
(0.0170484 0 -0.00272985)
(0.0198126 0 -0.00201433)
(0.0212746 0 -0.00142367)
(0.0223758 0 -0.00101229)
(0.0232762 0 -0.000750796)
(0.0239893 0 -0.000585469)
(0.0245704 0 -0.000462742)
(0.0250542 0 -0.000376951)
(0.025463 0 -0.000315135)
(0.0258205 0 -0.000278194)
(0.0261409 0 -0.000242499)
(0.0264231 0 -0.000210452)
(0.0266744 0 -0.000193155)
(0.0269055 0 -0.000173578)
(0.0271138 0 -0.000154584)
(0.027304 0 -0.000147681)
(0.0274827 0 -0.000133277)
(0.0276452 0 -0.000119675)
(0.0277918 0 -0.000110187)
(0.0279308 0 -0.000110758)
(0.0280661 0 -0.000100953)
(0.0281881 0 -8.83284e-05)
(0.0282963 0 -8.08389e-05)
(0.0283968 0 -7.67096e-05)
(0.0284928 0 -7.41014e-05)
(0.0285842 0 -7.00129e-05)
(0.0286696 0 -6.48621e-05)
(0.0287495 0 -6.10156e-05)
(0.0288238 0 -5.62246e-05)
(0.0288932 0 -5.27814e-05)
(0.0289555 0 -4.26965e-05)
(0.0290109 0 -4.40886e-05)
(0.0290684 0 -4.91356e-05)
(0.0291299 0 -4.95868e-05)
(0.0291903 0 -4.74795e-05)
(0.0292469 0 -4.40788e-05)
(0.0292993 0 -3.92969e-05)
(0.0293471 0 -3.56204e-05)
(0.0293912 0 -3.35511e-05)
(0.0294329 0 -3.19623e-05)
(0.0294722 0 -2.9746e-05)
(0.0295091 0 -2.78467e-05)
(0.0295418 0 -2.4442e-05)
(0.0295736 0 -2.93645e-05)
(0.0296067 0 -2.36572e-05)
(0.0296325 0 -1.45277e-05)
(0.0296497 0 -1.06813e-05)
(0.0296643 0 -1.00444e-05)
(0.0296786 0 -9.74394e-06)
(0.0296925 0 -1.03588e-05)
(0.0297064 0 -1.08213e-05)
(0.0297202 0 -1.05569e-05)
(0.0297332 0 -9.66211e-06)
(0.0297448 0 -8.08052e-06)
(0.0297544 0 -6.20645e-06)
(0.0297617 0 -4.47329e-06)
(0.0297672 0 -3.41371e-06)
(0.0297722 0 -3.61766e-06)
(0.0297772 0 -3.68218e-06)
(0.0297818 0 -2.99039e-06)
(0.0297847 0 -1.53521e-06)
(0.0297846 0 1.60503e-06)
(0.0297819 0 3.71335e-06)
(0.0297788 0 3.16438e-06)
(0.029777 0 1.51645e-06)
(0.0297753 0 2.04875e-06)
(0.0297712 0 5.23967e-06)
(0.0297639 0 7.40825e-06)
(0.0297564 0 6.61567e-06)
(0.0297513 0 3.98704e-06)
(0.0297455 0 1.03743e-05)
(0.029733 0 4.4438e-06)
(0.0297372 0 -1.94927e-06)
(0.0297304 0 -1.07414e-05)
(0.0297684 0 -4.87949e-06)
(0.0296337 0 1.90981e-06)
(0.0301222 0 5.4649e-06)
(0.0287745 0 6.36662e-06)
(0.0316638 0 4.90848e-06)
(0.0263918 0 -2.49152e-06)
(-0.134551 0 0.0334539)
(-0.0848063 0 -0.00916012)
(-0.099042 0 -0.0162613)
(-0.087377 0 -0.0247488)
(-0.0844807 0 -0.0254939)
(-0.078543 0 -0.0238033)
(-0.0759487 0 -0.0202763)
(-0.0726136 0 -0.0173114)
(-0.0707107 0 -0.0169668)
(-0.0701231 0 -0.017786)
(-0.0707462 0 -0.0178297)
(-0.0725053 0 -0.0155573)
(-0.0744849 0 -0.00943422)
(-0.0770771 0 -0.00019966)
(-0.0809436 0 0.0125622)
(-0.0877619 0 0.0278099)
(-0.0980374 0 0.040622)
(-0.110969 0 0.0437203)
(-0.116348 0 0.042984)
(-0.11765 0 0.0422126)
(-0.117538 0 0.0338625)
(-0.118956 0 0.0204282)
(-0.124705 0 0.0155102)
(-0.131648 0 0.0149616)
(-0.135994 0 0.0116993)
(-0.140165 0 0.00743257)
(-0.14412 0 0.00698355)
(-0.147289 0 0.00775102)
(-0.150589 0 0.00847002)
(-0.153545 0 0.00934342)
(-0.15729 0 0.00991305)
(-0.161311 0 0.00904781)
(-0.165533 0 0.00788086)
(-0.169023 0 0.00787144)
(-0.171837 0 0.00794808)
(-0.173604 0 0.00619742)
(-0.175579 0 0.00268278)
(-0.176685 0 0.0013313)
(-0.178381 0 0.00167941)
(-0.18014 0 0.00367407)
(-0.181512 0 0.00656164)
(-0.183025 0 0.00729191)
(-0.185278 0 0.00616186)
(-0.187221 0 0.00294928)
(-0.18814 0 0.000372164)
(-0.188827 0 2.09487e-05)
(-0.189811 0 0.000863506)
(-0.190382 0 0.00318847)
(-0.191466 0 0.00438253)
(-0.193163 0 0.00415467)
(-0.194763 0 0.00295005)
(-0.196254 0 0.000803613)
(-0.19687 0 -0.000538601)
(-0.197048 0 -0.00104701)
(-0.196462 0 -0.00153548)
(-0.195983 0 -0.00264015)
(-0.195404 0 -0.00351955)
(-0.194754 0 -0.00323309)
(-0.194323 0 -0.00145626)
(-0.194138 0 0.000712551)
(-0.194059 0 0.00119037)
(-0.192979 0 0.000355434)
(-0.191153 0 -0.00213299)
(-0.19007 0 -0.00276533)
(-0.189145 0 -0.0015646)
(-0.189177 0 -0.000610115)
(-0.189183 0 -0.00104302)
(-0.188169 0 -0.00384078)
(-0.186697 0 -0.0079284)
(-0.184314 0 -0.0108814)
(-0.180907 0 -0.0132901)
(-0.176872 0 -0.0153632)
(-0.17334 0 -0.0169407)
(-0.170179 0 -0.0196578)
(-0.166896 0 -0.0236185)
(-0.163509 0 -0.0292728)
(-0.160099 0 -0.0353731)
(-0.156892 0 -0.0425522)
(-0.143456 0 -0.0458909)
(-0.127679 0 -0.032213)
(-0.114437 0 -0.0234251)
(-0.087768 0 -0.00318873)
(-0.0689954 0 0.00872027)
(-0.0618293 0 0.0137641)
(-0.0580694 0 0.0168941)
(-0.0607951 0 0.009909)
(-0.0634904 0 0.00423671)
(-0.0683273 0 0.00366834)
(-0.0754609 0 0.00183754)
(-0.0787663 0 0.000303488)
(-0.0789917 0 -0.000602021)
(-0.0789513 0 -0.000427066)
(-0.0788824 0 -0.00208203)
(-0.0781028 0 -0.00306757)
(-0.0778936 0 -0.00431112)
(-0.0772213 0 -0.00577577)
(-0.0766031 0 -0.00870645)
(-0.0770062 0 -0.010184)
(-0.0773033 0 -0.0118294)
(-0.0781521 0 -0.0106795)
(-0.0710768 0 -0.00676187)
(-0.0665628 0 -0.00714198)
(-0.0552035 0 -0.00116688)
(-0.054671 0 0.0034115)
(-0.0510352 0 0.00663567)
(-0.0507392 0 0.00496929)
(-0.0503955 0 0.000601346)
(-0.0510035 0 -0.000253787)
(-0.0521906 0 -0.00129698)
(-0.054002 0 -0.000388701)
(-0.0541556 0 -3.08145e-05)
(-0.0538144 0 0.000526185)
(-0.0538787 0 -0.000167159)
(-0.0535827 0 -0.0015708)
(-0.0538062 0 -0.00342965)
(-0.0541152 0 -0.00515235)
(-0.0541802 0 -0.00682299)
(-0.0548674 0 -0.00600448)
(-0.0518677 0 -0.00291863)
(-0.0500198 0 -0.00286331)
(-0.0437889 0 -0.000570348)
(-0.0439358 0 0.00117711)
(-0.042333 0 0.00342379)
(-0.0428077 0 0.00270215)
(-0.0427547 0 0.000581055)
(-0.0436165 0 0.000537171)
(-0.0446554 0 0.000403897)
(-0.0450059 0 0.000726259)
(-0.0450998 0 0.00098673)
(-0.0454193 0 0.000887157)
(-0.0455706 0 0.00052546)
(-0.0459275 0 0.000513089)
(-0.0462335 0 0.000350282)
(-0.0464361 0 0.00044579)
(-0.046594 0 0.00042793)
(-0.0467249 0 0.000489272)
(-0.0468625 0 0.000424047)
(-0.0470086 0 0.000360728)
(-0.0471478 0 0.000323921)
(-0.0472943 0 0.000256273)
(-0.0473808 0 0.000202007)
(-0.0474608 0 0.000148793)
(-0.0475068 0 0.000111483)
(-0.0475381 0 6.58365e-05)
(-0.0475482 0 1.17745e-05)
(-0.0475365 0 -5.79675e-05)
(-0.0474894 0 -0.000141146)
(-0.0474103 0 -0.000218569)
(-0.0473127 0 -0.000265852)
(-0.0472017 0 -0.000299962)
(-0.0470658 0 -0.000337139)
(-0.0468952 0 -0.000406132)
(-0.046691 0 -0.000505256)
(-0.0464553 0 -0.000584309)
(-0.0462039 0 -0.000627324)
(-0.0459375 0 -0.00066769)
(-0.0456487 0 -0.000716045)
(-0.045323 0 -0.000788316)
(-0.0449606 0 -0.000855002)
(-0.0445772 0 -0.00090791)
(-0.0441806 0 -0.000961093)
(-0.0437652 0 -0.00102339)
(-0.0433206 0 -0.00108757)
(-0.0428465 0 -0.00114148)
(-0.0423537 0 -0.00117209)
(-0.0418438 0 -0.00122619)
(-0.0412991 0 -0.00131799)
(-0.0407207 0 -0.00138708)
(-0.0401246 0 -0.00141472)
(-0.0395186 0 -0.00144224)
(-0.0388844 0 -0.00152207)
(-0.0382155 0 -0.0016263)
(-0.0375093 0 -0.00169321)
(-0.0367844 0 -0.00172177)
(-0.036045 0 -0.00175382)
(-0.0352734 0 -0.00182793)
(-0.034472 0 -0.0019412)
(-0.0336379 0 -0.00202165)
(-0.0327715 0 -0.0020689)
(-0.0318777 0 -0.00212939)
(-0.0309433 0 -0.00222407)
(-0.0299741 0 -0.00230652)
(-0.0289956 0 -0.00233935)
(-0.0279903 0 -0.00238741)
(-0.0269514 0 -0.00247909)
(-0.02588 0 -0.00260192)
(-0.0247589 0 -0.00271481)
(-0.0236001 0 -0.00276878)
(-0.0224138 0 -0.00280565)
(-0.0212002 0 -0.00284827)
(-0.0199869 0 -0.00290144)
(-0.0187589 0 -0.0029783)
(-0.0175029 0 -0.00305502)
(-0.016217 0 -0.00310885)
(-0.0148972 0 -0.00310991)
(-0.0135628 0 -0.00311072)
(-0.0122323 0 -0.00311361)
(-0.0109161 0 -0.00313081)
(-0.00959632 0 -0.00317855)
(-0.00826205 0 -0.00321155)
(-0.00691781 0 -0.00318734)
(-0.00559942 0 -0.00310277)
(-0.00430536 0 -0.00302678)
(-0.00302555 0 -0.00298191)
(-0.00175861 0 -0.0029545)
(-0.000511522 0 -0.00292149)
(0.000702945 0 -0.00284869)
(0.00188474 0 -0.00275013)
(0.00303455 0 -0.00265756)
(0.00416339 0 -0.00259841)
(0.00526747 0 -0.00256342)
(0.00634674 0 -0.0025007)
(0.00738501 0 -0.00240324)
(0.0083911 0 -0.00232121)
(0.00938098 0 -0.00229009)
(0.0103553 0 -0.00226694)
(0.0113082 0 -0.00222692)
(0.0122389 0 -0.00216682)
(0.0131446 0 -0.00207936)
(0.0140205 0 -0.00200723)
(0.0148713 0 -0.00196666)
(0.0157036 0 -0.00194748)
(0.0165251 0 -0.00192142)
(0.0173275 0 -0.00187534)
(0.0181101 0 -0.00181108)
(0.01887 0 -0.00174118)
(0.0196063 0 -0.00169422)
(0.0203211 0 -0.00165724)
(0.0210189 0 -0.00162763)
(0.0217014 0 -0.001597)
(0.0223672 0 -0.00155003)
(0.0230135 0 -0.0014859)
(0.0236368 0 -0.00143162)
(0.0242391 0 -0.0013954)
(0.0248259 0 -0.00135984)
(0.025398 0 -0.00132316)
(0.0259539 0 -0.00128555)
(0.0264911 0 -0.00123856)
(0.0270065 0 -0.00118751)
(0.0274988 0 -0.0011405)
(0.0279708 0 -0.00109537)
(0.0284258 0 -0.0010469)
(0.0288648 0 -0.00100224)
(0.0292878 0 -0.000962426)
(0.029691 0 -0.000925226)
(0.0300732 0 -0.000885502)
(0.0304362 0 -0.000838123)
(0.0307779 0 -0.000773861)
(0.0310984 0 -0.000721791)
(0.0314015 0 -0.000689885)
(0.0316874 0 -0.000653211)
(0.0319542 0 -0.000605589)
(0.0321973 0 -0.000553043)
(0.0324186 0 -0.000496691)
(0.0326211 0 -0.000449276)
(0.0328068 0 -0.000405554)
(0.0329719 0 -0.000359572)
(0.0331157 0 -0.000313744)
(0.0332362 0 -0.000262947)
(0.0333321 0 -0.000210677)
(0.0334102 0 -0.000162041)
(0.0334725 0 -0.000116533)
(0.0335145 0 -7.43051e-05)
(0.033536 0 -3.04195e-05)
(0.0335363 0 2.20435e-05)
(0.0335127 0 8.07011e-05)
(0.0334668 0 0.000136275)
(0.0334017 0 0.000176954)
(0.0333198 0 0.000210926)
(0.0332201 0 0.000253388)
(0.0331008 0 0.000298684)
(0.0329602 0 0.000346019)
(0.0328 0 0.000400106)
(0.0326213 0 0.000448768)
(0.0324243 0 0.00048744)
(0.0322084 0 0.000525806)
(0.031974 0 0.000565039)
(0.0317238 0 0.000603962)
(0.0314573 0 0.000642002)
(0.0311759 0 0.000676299)
(0.030879 0 0.000715238)
(0.0305629 0 0.000764713)
(0.0302293 0 0.000802911)
(0.0298834 0 0.000827641)
(0.0295257 0 0.000854224)
(0.0291542 0 0.000885743)
(0.0287678 0 0.000916364)
(0.0283685 0 0.000945898)
(0.0279583 0 0.000980649)
(0.0275356 0 0.00101153)
(0.0271022 0 0.0010334)
(0.026659 0 0.00105232)
(0.0262047 0 0.00107349)
(0.0257399 0 0.00109296)
(0.0252685 0 0.00111616)
(0.0247887 0 0.00114353)
(0.0243024 0 0.00115913)
(0.0238076 0 0.00117331)
(0.0233021 0 0.00118696)
(0.0227917 0 0.001194)
(0.0222803 0 0.00120775)
(0.0217656 0 0.00122625)
(0.0212466 0 0.00123313)
(0.0207185 0 0.00123802)
(0.0201876 0 0.00123915)
(0.0196614 0 0.00124514)
(0.0191344 0 0.00124938)
(0.0186048 0 0.00124852)
(0.0180721 0 0.00124212)
(0.0175444 0 0.00123376)
(0.0170188 0 0.00123301)
(0.0164974 0 0.00123416)
(0.0159762 0 0.0012284)
(0.015455 0 0.00121173)
(0.0149415 0 0.00119421)
(0.0144347 0 0.00118525)
(0.0139335 0 0.00117841)
(0.0134365 0 0.00116513)
(0.0129412 0 0.00115128)
(0.0124496 0 0.00113667)
(0.011965 0 0.0011267)
(0.0114863 0 0.00112199)
(0.011012 0 0.00111194)
(0.0105404 0 0.00109976)
(0.0100697 0 0.00109311)
(0.00959901 0 0.00109467)
(0.00913149 0 0.00109823)
(0.0086655 0 0.00109401)
(0.00820117 0 0.00108829)
(0.00773604 0 0.00108777)
(0.00726906 0 0.00109452)
(0.00680225 0 0.00110643)
(0.00633519 0 0.00110923)
(0.00586875 0 0.00110194)
(0.00540529 0 0.00109064)
(0.00494399 0 0.00108111)
(0.00448607 0 0.00107332)
(0.00403344 0 0.00106518)
(0.00358685 0 0.00105663)
(0.00314541 0 0.00104091)
(0.00270989 0 0.00102024)
(0.00228136 0 0.000998557)
(0.001863 0 0.000976793)
(0.00145267 0 0.000958744)
(0.00105173 0 0.00093784)
(0.000663921 0 0.000908908)
(0.000286765 0 0.000877204)
(-7.90097e-05 0 0.000846196)
(-0.000433306 0 0.000819326)
(-0.000775479 0 0.00079436)
(-0.00110506 0 0.000766449)
(-0.00142226 0 0.000733684)
(-0.00172728 0 0.000701567)
(-0.00201992 0 0.000675202)
(-0.00229994 0 0.00064844)
(-0.00256804 0 0.000618328)
(-0.00282489 0 0.000588321)
(-0.00306972 0 0.000559245)
(-0.00330122 0 0.000530284)
(-0.00352018 0 0.000501224)
(-0.00372684 0 0.000472175)
(-0.00392181 0 0.000443811)
(-0.00410465 0 0.00041506)
(-0.00427495 0 0.000388337)
(-0.00443342 0 0.000361151)
(-0.00457954 0 0.000333984)
(-0.00471418 0 0.000304546)
(-0.00483711 0 0.000276444)
(-0.0049483 0 0.000248557)
(-0.00504813 0 0.000223289)
(-0.0051363 0 0.00019703)
(-0.00521333 0 0.00017067)
(-0.00527882 0 0.000142212)
(-0.0053327 0 0.000115547)
(-0.00537517 0 9.00507e-05)
(-0.00540726 0 6.61398e-05)
(-0.00542882 0 4.13583e-05)
(-0.00544098 0 1.76239e-05)
(-0.00544162 0 -4.94659e-06)
(-0.00543277 0 -2.6726e-05)
(-0.00541332 0 -4.95128e-05)
(-0.00538596 0 -7.36773e-05)
(-0.00534828 0 -9.60736e-05)
(-0.00530222 0 -0.000117826)
(-0.00524711 0 -0.0001361)
(-0.00518457 0 -0.000156654)
(-0.00511342 0 -0.000171642)
(-0.00503505 0 -0.000192961)
(-0.0049482 0 -0.000208834)
(-0.004856 0 -0.000228755)
(-0.00475614 0 -0.000238908)
(-0.00465049 0 -0.00025706)
(-0.00453749 0 -0.00026825)
(-0.00442103 0 -0.000286226)
(-0.00429882 0 -0.000293797)
(-0.00417308 0 -0.000309856)
(-0.00404097 0 -0.000316133)
(-0.00390629 0 -0.000327689)
(-0.0037661 0 -0.000332088)
(-0.00362445 0 -0.000342238)
(-0.00348109 0 -0.000349458)
(-0.00333269 0 -0.000359198)
(-0.00318511 0 -0.000365848)
(-0.00303096 0 -0.000367096)
(-0.00288044 0 -0.000377443)
(-0.00271925 0 -0.000371136)
(-0.00257039 0 -0.000390672)
(-0.00240356 0 -0.000379459)
(-0.00225857 0 -0.000400937)
(-0.00208755 0 -0.000378017)
(-0.00193388 0 -0.000391678)
(-0.00176216 0 -0.000367706)
(-0.00159891 0 -0.000376667)
(-0.00143804 0 -0.000372716)
(-0.001273 0 -0.00038571)
(-0.00114011 0 -0.000361757)
(-0.000988723 0 -0.000362157)
(-0.000818688 0 -0.000305478)
(-0.000660572 0 -0.000293304)
(-0.000481777 0 -0.000353946)
(-0.000326727 0 -0.000389925)
(-0.000321833 0 -0.000383186)
(-0.00022912 0 -0.000366793)
(-2.2656e-05 0 -3.54684e-05)
(0.000127663 0 5.18448e-05)
(0.000594079 0 -0.000317225)
(0.000795455 0 -0.000511277)
(0.00179852 0 -0.000923545)
(0.00220653 0 -0.000844249)
(0.00280508 0 -0.00127294)
(0.00280296 0 -0.00134631)
(0.00303602 0 -0.0010403)
(0.00313489 0 -0.000830119)
(0.00334636 0 -0.000590853)
(0.00353729 0 -0.00047483)
(0.00373228 0 -0.00033552)
(0.0039666 0 -0.000436258)
(0.00413248 0 -0.000388756)
(0.00433395 0 -0.00049562)
(0.00425914 0 -0.00039826)
(0.00432826 0 -0.000412918)
(0.00451767 0 8.15135e-05)
(0.00467533 0 0.000218656)
(0.00526226 0 -0.000226749)
(0.00550751 0 -0.000534855)
(0.00687643 0 -0.00112115)
(0.00743572 0 -0.00109171)
(0.00827497 0 -0.00174081)
(0.00824227 0 -0.00184992)
(0.00850915 0 -0.00146351)
(0.00862536 0 -0.00119589)
(0.00887055 0 -0.000845427)
(0.00899712 0 -0.000743773)
(0.00913042 0 -0.000608423)
(0.00927062 0 -0.000500803)
(0.00942407 0 -0.000325592)
(0.0095997 0 -0.000150053)
(0.00977053 0 -0.000143417)
(0.010056 0 -0.000244385)
(0.00995233 0 -0.000235917)
(0.00960813 0 -0.000467915)
(0.00962081 0 7.81824e-05)
(0.0094448 0 0.00100559)
(0.0101364 0 0.000835082)
(0.0111545 0 0.000313477)
(0.0133804 0 -0.000956638)
(0.0165796 0 -0.00279715)
(0.0184697 0 -0.00377379)
(0.0206875 0 -0.00581901)
(0.0216911 0 -0.00566821)
(0.0218221 0 -0.00510831)
(0.0223827 0 -0.00393738)
(0.0229911 0 -0.00291039)
(0.0235365 0 -0.00220671)
(0.0240403 0 -0.00174508)
(0.0245051 0 -0.00144114)
(0.0249297 0 -0.00120092)
(0.0253143 0 -0.00101588)
(0.0256622 0 -0.000879486)
(0.0259808 0 -0.00079071)
(0.0262712 0 -0.000700136)
(0.0265336 0 -0.000617702)
(0.0267729 0 -0.000569236)
(0.0269934 0 -0.000515668)
(0.0271961 0 -0.000463539)
(0.0273833 0 -0.000439641)
(0.0275576 0 -0.000400098)
(0.0277194 0 -0.000362905)
(0.0278699 0 -0.00033513)
(0.0280105 0 -0.000329169)
(0.0281424 0 -0.000301915)
(0.0282645 0 -0.000268394)
(0.0283774 0 -0.000246455)
(0.0284828 0 -0.000233139)
(0.0285814 0 -0.00022079)
(0.028673 0 -0.000207473)
(0.0287588 0 -0.0001938)
(0.0288397 0 -0.000182733)
(0.0289149 0 -0.000167234)
(0.0289844 0 -0.000156497)
(0.029049 0 -0.000133791)
(0.0291108 0 -0.000134741)
(0.0291691 0 -0.000142402)
(0.029225 0 -0.000141916)
(0.0292781 0 -0.00013585)
(0.0293282 0 -0.00012695)
(0.0293756 0 -0.000117595)
(0.0294208 0 -0.000108212)
(0.0294631 0 -0.00010144)
(0.0295026 0 -9.59186e-05)
(0.0295397 0 -8.92604e-05)
(0.0295738 0 -8.16175e-05)
(0.0296047 0 -7.38243e-05)
(0.0296327 0 -7.98597e-05)
(0.0296591 0 -6.77661e-05)
(0.0296816 0 -4.7768e-05)
(0.0297024 0 -3.88966e-05)
(0.0297214 0 -3.60355e-05)
(0.0297385 0 -3.42485e-05)
(0.0297541 0 -3.3611e-05)
(0.029768 0 -3.29638e-05)
(0.0297806 0 -3.1573e-05)
(0.0297921 0 -2.90598e-05)
(0.0298025 0 -2.48992e-05)
(0.0298114 0 -1.96739e-05)
(0.0298186 0 -1.50192e-05)
(0.0298243 0 -1.25411e-05)
(0.0298289 0 -1.23176e-05)
(0.0298326 0 -1.20178e-05)
(0.0298354 0 -8.91141e-06)
(0.0298358 0 -2.2918e-06)
(0.0298341 0 4.3945e-06)
(0.0298319 0 6.3625e-06)
(0.0298305 0 4.24373e-06)
(0.0298287 0 2.99301e-06)
(0.0298247 0 7.10047e-06)
(0.0298188 0 1.4671e-05)
(0.0298134 0 1.54372e-05)
(0.02981 0 1.31059e-05)
(0.0298049 0 1.06058e-05)