/*--------------------------------*- C++ -*----------------------------------*\
| =========                 |                                                 |
| \\      /  F ield         | OpenFOAM: The Open Source CFD Toolbox           |
|  \\    /   O peration     | Version:  v2006                                 |
|   \\  /    A nd           | Website:  www.openfoam.com                      |
|    \\/     M anipulation  |                                                 |
\*---------------------------------------------------------------------------*/
FoamFile
{
    version     2.0;
    format      ascii;
    class       volScalarField;
    location    "2.3";
    object      p;
}
// * * * * * * * * * * * * * * * * * * * * * * * * * * * * * * * * * * * * * //

dimensions      [1 -1 -2 0 0 0 0];


internalField   nonuniform List<scalar> 
33000
(
8118.26
8106.73
8096.19
8087.9
8079.71
8071.11
8062.52
8053.96
8045.41
8036.89
8028.39
8019.93
8011.51
8003.13
7994.8
7986.53
7978.31
7970.15
7962.06
7954.05
7946.12
7938.26
7930.48
7922.78
7915.18
7907.68
7900.28
7892.98
7885.78
7878.7
7871.73
7864.87
7858.12
7851.49
7844.99
7838.62
7832.37
7826.23
7820.22
7814.34
7808.6
7802.99
7797.51
7792.14
7786.91
7781.83
7776.87
7772.05
7767.35
7762.79
7758.37
7754.07
7749.9
7745.86
7741.96
7738.18
7734.53
7731.01
7727.63
7724.38
7721.26
7718.25
7715.37
7712.62
7709.99
7707.47
7705.05
7702.77
7700.6
7698.52
7696.56
7694.72
7692.99
7691.37
7689.87
7688.5
7687.29
7686.22
7685
7683.31
7682.11
7680.91
7679.74
7678.66
7677.64
7676.7
7675.83
7675.05
7674.32
7673.67
7673.08
7672.55
7672.07
7671.64
7671.27
7670.95
7670.66
7670.42
7670.19
7670.02
7669.92
7669.82
7669.74
7669.7
7669.66
7669.64
7669.64
7669.65
7669.66
7669.67
7669.69
7669.72
7669.74
7669.77
7669.79
7669.8
7669.81
7669.81
7669.8
7669.78
7669.75
7669.7
7669.64
7669.57
7669.49
7669.39
7669.28
7669.15
7669
7668.84
7668.67
7668.47
7668.26
7668.03
7667.79
7667.54
7667.26
7666.98
7666.67
7666.36
7666.03
7665.68
7665.33
7664.96
7664.58
7664.19
7663.79
7663.38
7662.96
7662.53
7662.09
7661.65
7661.21
7660.76
7660.3
7659.84
7659.38
7658.92
7658.46
7658.01
7657.55
7657.1
7656.65
7656.21
7655.77
7655.34
7654.92
7654.5
7654.09
7653.69
7653.31
7652.94
7652.57
7652.23
7651.89
7651.58
7651.28
7651
7650.74
7650.49
7650.27
7650.08
7649.9
7649.75
7649.63
7649.53
7649.46
7649.41
7649.39
7649.4
7649.44
7649.51
7649.6
7649.73
7649.88
7650.06
7650.27
7650.5
7650.77
7651.06
7651.38
7651.73
7652.1
7652.5
7652.92
7653.37
7653.84
7654.33
7654.85
7655.39
7655.95
7656.53
7657.13
7657.76
7658.4
7659.05
7659.73
7660.42
7661.12
7661.84
7662.58
7663.33
7664.08
7664.85
7665.63
7666.42
7667.21
7668.02
7668.83
7669.64
7670.46
7671.29
7672.11
7672.94
7673.77
7674.61
7675.44
7676.27
7677.1
7677.93
7678.76
7679.59
7680.41
7681.23
7682.04
7682.85
7683.65
7684.45
7685.25
7686.04
7686.82
7687.59
7688.36
7689.12
7689.88
7690.62
7691.36
7692.09
7692.82
7693.53
7694.24
7694.94
7695.63
7696.32
7697
7697.66
7698.32
7698.98
7699.62
7700.26
7700.88
7701.5
7702.12
7702.72
7703.32
7703.91
7704.49
7705.06
7705.63
7706.18
7706.73
7707.28
7707.81
7708.34
7708.87
7709.38
7709.89
7710.39
7710.88
7711.37
7711.85
7712.33
7712.79
7713.25
7713.71
7714.16
7714.6
7715.04
7715.47
7715.89
7716.31
7716.72
7717.13
7717.53
7717.93
7718.32
7718.71
7719.09
7719.47
7719.84
7720.2
7720.56
7720.92
7721.27
7721.62
7721.97
7722.3
7722.64
7722.97
7723.3
7723.62
7723.94
7724.25
7724.56
7724.86
7725.17
7725.47
7725.76
7726.05
7726.34
7726.62
7726.9
7727.18
7727.45
7727.72
7727.98
7728.25
7728.51
7728.76
7729.01
7729.26
7729.51
7729.75
7729.99
7730.22
7730.46
7730.69
7730.91
7731.14
7731.35
7731.57
7731.78
7731.99
7732.2
7732.41
7732.61
7732.81
7733
7733.19
7733.38
7733.57
7733.75
7733.93
7734.11
7734.28
7734.45
7734.62
7734.79
7734.95
7735.11
7735.27
7735.42
7735.57
7735.72
7735.87
7736.01
7736.15
7736.29
7736.43
7736.56
7736.69
7736.82
7736.95
7737.07
7737.19
7737.31
7737.43
7737.54
7737.65
7737.76
7737.87
7737.98
7738.08
7738.18
7738.28
7738.37
7738.47
7738.56
7738.65
7738.74
7738.83
7738.91
7738.99
7739.07
7739.15
7739.23
7739.3
7739.38
7739.45
7739.52
7739.59
7739.65
7739.72
7739.78
7739.85
7739.91
7739.96
7740.02
7740.08
7740.13
7740.19
7740.24
7740.29
7740.34
7740.39
7740.43
7740.48
7740.52
7740.57
7740.61
7740.65
7740.69
7740.72
7740.76
7740.8
7740.83
7740.87
7740.9
7740.93
7740.96
7740.99
7741.02
7741.05
7741.08
7741.11
7741.13
7741.16
7741.19
7741.21
7741.23
7741.26
7741.28
7741.3
7741.32
7741.34
7741.36
7741.38
7741.39
7741.41
7741.43
7741.45
7741.46
7741.48
7741.49
7741.5
7741.52
7741.53
7741.55
7741.56
7741.57
7741.58
7741.59
7741.6
7741.61
7741.62
7741.63
7741.63
7741.64
7741.65
7741.66
7741.67
7741.68
7741.68
7741.69
7741.7
7741.71
7741.72
7741.72
7741.73
7741.74
7741.75
7741.75
7741.76
7741.77
7741.77
7741.78
7741.79
7741.8
7741.8
7741.81
7741.82
7741.82
7741.83
7741.83
7741.84
7741.85
7741.85
7741.86
7741.86
7741.87
7741.87
7741.88
7741.88
7741.89
7741.89
7741.9
7741.9
7741.91
7741.91
7741.92
7741.92
7741.93
7741.93
7741.93
7741.94
7741.94
7741.94
7741.95
7741.95
7741.95
7741.96
7741.96
7741.96
7741.97
7741.97
7741.97
7741.97
7741.98
7741.98
7741.98
7741.98
7741.98
7741.99
7741.99
7741.99
7741.99
7741.99
7741.99
7742
7742
7922.07
7910.52
7899.96
7891.66
7883.44
7874.83
7866.21
7857.63
7849.06
7840.52
7832.01
7823.53
7815.09
7806.7
7798.36
7790.07
7781.85
7773.7
7765.61
7757.6
7749.66
7741.79
7734.01
7726.33
7718.74
7711.24
7703.84
7696.54
7689.35
7682.26
7675.3
7668.44
7661.71
7655.08
7648.58
7642.2
7635.94
7629.81
7623.8
7617.92
7612.16
7606.54
7601.05
7595.68
7590.45
7585.34
7580.38
7575.55
7570.86
7566.29
7561.86
7557.56
7553.4
7549.37
7545.47
7541.7
7538.06
7534.55
7531.17
7527.92
7524.79
7521.79
7518.9
7516.16
7513.53
7511.01
7508.61
7506.33
7504.16
7502.1
7500.13
7498.29
7496.55
7494.92
7493.4
7491.97
7490.64
7489.38
7488.12
7486.94
7485.9
7484.73
7483.28
7482.32
7481.36
7480.37
7479.5
7478.71
7477.98
7477.35
7476.76
7476.24
7475.77
7475.35
7474.99
7474.67
7474.39
7474.16
7473.96
7473.79
7473.67
7473.55
7473.49
7473.47
7473.45
7473.44
7473.44
7473.45
7473.47
7473.49
7473.52
7473.54
7473.57
7473.59
7473.62
7473.64
7473.65
7473.65
7473.65
7473.63
7473.6
7473.56
7473.51
7473.44
7473.36
7473.26
7473.14
7473.02
7472.87
7472.71
7472.53
7472.34
7472.13
7471.9
7471.66
7471.41
7471.13
7470.84
7470.54
7470.23
7469.89
7469.55
7469.19
7468.82
7468.44
7468.05
7467.65
7467.23
7466.81
7466.38
7465.94
7465.5
7465.05
7464.59
7464.13
7463.67
7463.21
7462.75
7462.29
7461.83
7461.37
7460.91
7460.47
7460.02
7459.58
7459.14
7458.72
7458.3
7457.89
7457.49
7457.11
7456.73
7456.37
7456.02
7455.68
7455.36
7455.06
7454.78
7454.52
7454.27
7454.05
7453.85
7453.67
7453.52
7453.4
7453.3
7453.22
7453.17
7453.16
7453.16
7453.2
7453.27
7453.36
7453.49
7453.64
7453.82
7454.03
7454.26
7454.53
7454.82
7455.14
7455.49
7455.86
7456.26
7456.68
7457.13
7457.6
7458.1
7458.62
7459.16
7459.72
7460.3
7460.91
7461.53
7462.17
7462.83
7463.5
7464.2
7464.9
7465.62
7466.36
7467.11
7467.87
7468.64
7469.42
7470.21
7471
7471.81
7472.62
7473.44
7474.26
7475.08
7475.91
7476.74
7477.57
7478.41
7479.24
7480.07
7480.91
7481.74
7482.57
7483.39
7484.22
7485.03
7485.85
7486.66
7487.46
7488.26
7489.06
7489.85
7490.63
7491.41
7492.17
7492.94
7493.69
7494.44
7495.18
7495.91
7496.63
7497.35
7498.06
7498.76
7499.45
7500.13
7500.81
7501.48
7502.14
7502.79
7503.43
7504.07
7504.7
7505.32
7505.93
7506.54
7507.13
7507.72
7508.3
7508.87
7509.44
7510
7510.55
7511.09
7511.63
7512.16
7512.68
7513.19
7513.7
7514.2
7514.7
7515.18
7515.66
7516.14
7516.61
7517.07
7517.52
7517.97
7518.41
7518.85
7519.28
7519.7
7520.12
7520.54
7520.94
7521.34
7521.74
7522.13
7522.52
7522.9
7523.28
7523.65
7524.01
7524.38
7524.73
7525.08
7525.43
7525.78
7526.11
7526.45
7526.78
7527.1
7527.43
7527.74
7528.06
7528.37
7528.67
7528.98
7529.27
7529.57
7529.86
7530.15
7530.43
7530.71
7530.99
7531.26
7531.53
7531.79
7532.06
7532.31
7532.57
7532.82
7533.07
7533.32
7533.56
7533.8
7534.03
7534.27
7534.49
7534.72
7534.94
7535.16
7535.38
7535.59
7535.8
7536.01
7536.21
7536.42
7536.61
7536.81
7537
7537.19
7537.37
7537.56
7537.74
7537.92
7538.09
7538.26
7538.43
7538.59
7538.76
7538.92
7539.07
7539.23
7539.38
7539.53
7539.68
7539.82
7539.96
7540.1
7540.24
7540.37
7540.5
7540.63
7540.75
7540.88
7541
7541.12
7541.23
7541.35
7541.46
7541.57
7541.68
7541.78
7541.88
7541.98
7542.08
7542.18
7542.27
7542.37
7542.46
7542.55
7542.63
7542.72
7542.8
7542.88
7542.96
7543.03
7543.11
7543.18
7543.25
7543.32
7543.39
7543.46
7543.52
7543.59
7543.65
7543.71
7543.77
7543.83
7543.88
7543.94
7543.99
7544.04
7544.09
7544.14
7544.19
7544.24
7544.28
7544.33
7544.37
7544.41
7544.45
7544.49
7544.53
7544.56
7544.6
7544.63
7544.67
7544.7
7544.73
7544.77
7544.8
7544.83
7544.86
7544.88
7544.91
7544.94
7544.96
7544.99
7545.01
7545.04
7545.06
7545.08
7545.1
7545.12
7545.14
7545.16
7545.18
7545.2
7545.21
7545.23
7545.25
7545.26
7545.28
7545.29
7545.3
7545.32
7545.33
7545.34
7545.35
7545.36
7545.36
7545.37
7545.38
7545.39
7545.4
7545.41
7545.42
7545.43
7545.44
7545.45
7545.46
7545.47
7545.48
7545.49
7545.5
7545.5
7545.51
7545.52
7545.53
7545.54
7545.54
7545.55
7545.56
7545.57
7545.57
7545.58
7545.59
7545.59
7545.6
7545.61
7545.61
7545.62
7545.63
7545.63
7545.64
7545.65
7545.65
7545.66
7545.66
7545.67
7545.67
7545.68
7545.68
7545.69
7545.69
7545.7
7545.7
7545.71
7545.71
7545.72
7545.72
7545.72
7545.73
7545.73
7545.74
7545.74
7545.74
7545.75
7545.75
7545.75
7545.76
7545.76
7545.76
7545.77
7545.77
7545.77
7545.77
7545.78
7545.78
7545.78
7545.78
7545.78
7545.79
7545.79
7545.79
7545.79
7545.79
7545.79
7545.8
7545.8
7725.79
7714.21
7703.62
7695.29
7687.06
7678.41
7669.77
7661.16
7652.57
7644
7635.47
7626.97
7618.52
7610.12
7601.77
7593.48
7585.25
7577.08
7568.99
7560.97
7553.01
7545.14
7537.35
7529.66
7522.05
7514.54
7507.12
7499.8
7492.6
7485.5
7478.51
7471.65
7464.9
7458.26
7451.75
7445.35
7439.09
7432.95
7426.94
7421.06
7415.3
7409.66
7404.17
7398.81
7393.58
7388.48
7383.51
7378.68
7373.99
7369.44
7365.01
7360.73
7356.58
7352.56
7348.67
7344.91
7341.28
7337.78
7334.41
7331.16
7328.03
7325.03
7322.16
7319.42
7316.79
7314.27
7311.88
7309.6
7307.42
7305.36
7303.41
7301.57
7299.83
7298.19
7296.65
7295.19
7293.82
7292.51
7291.27
7290.08
7288.95
7287.84
7286.8
7285.89
7284.85
7283.66
7282.86
7282.19
7281.56
7280.91
7280.31
7279.78
7279.33
7278.93
7278.58
7278.28
7278
7277.79
7277.61
7277.46
7277.36
7277.28
7277.22
7277.19
7277.15
7277.16
7277.2
7277.22
7277.26
7277.29
7277.33
7277.36
7277.4
7277.43
7277.46
7277.49
7277.5
7277.52
7277.51
7277.51
7277.48
7277.45
7277.4
7277.34
7277.27
7277.17
7277.06
7276.93
7276.79
7276.62
7276.45
7276.25
7276.05
7275.82
7275.58
7275.32
7275.05
7274.76
7274.45
7274.13
7273.8
7273.46
7273.1
7272.72
7272.34
7271.94
7271.54
7271.12
7270.69
7270.26
7269.82
7269.37
7268.91
7268.45
7267.99
7267.52
7267.06
7266.59
7266.12
7265.66
7265.19
7264.73
7264.28
7263.83
7263.38
7262.95
7262.51
7262.09
7261.68
7261.28
7260.88
7260.5
7260.14
7259.78
7259.44
7259.12
7258.81
7258.53
7258.26
7258.01
7257.79
7257.59
7257.41
7257.25
7257.12
7257.02
7256.94
7256.89
7256.87
7256.88
7256.92
7256.98
7257.08
7257.2
7257.35
7257.53
7257.74
7257.98
7258.24
7258.53
7258.85
7259.2
7259.57
7259.97
7260.4
7260.85
7261.32
7261.82
7262.34
7262.88
7263.45
7264.03
7264.64
7265.26
7265.91
7266.57
7267.25
7267.94
7268.65
7269.38
7270.11
7270.86
7271.63
7272.4
7273.18
7273.97
7274.77
7275.58
7276.39
7277.21
7278.04
7278.86
7279.7
7280.53
7281.36
7282.2
7283.04
7283.87
7284.71
7285.54
7286.37
7287.2
7288.02
7288.84
7289.66
7290.47
7291.28
7292.08
7292.88
7293.66
7294.45
7295.22
7295.99
7296.76
7297.51
7298.26
7299
7299.73
7300.45
7301.17
7301.88
7302.58
7303.27
7303.96
7304.63
7305.3
7305.96
7306.62
7307.26
7307.9
7308.52
7309.14
7309.76
7310.36
7310.96
7311.54
7312.13
7312.7
7313.26
7313.82
7314.37
7314.92
7315.45
7315.98
7316.5
7317.02
7317.52
7318.02
7318.52
7319
7319.49
7319.96
7320.43
7320.89
7321.34
7321.79
7322.23
7322.67
7323.1
7323.52
7323.94
7324.36
7324.76
7325.16
7325.56
7325.95
7326.34
7326.72
7327.09
7327.47
7327.83
7328.19
7328.55
7328.9
7329.25
7329.59
7329.93
7330.27
7330.6
7330.92
7331.24
7331.56
7331.87
7332.18
7332.49
7332.79
7333.09
7333.38
7333.67
7333.96
7334.24
7334.52
7334.8
7335.07
7335.34
7335.61
7335.87
7336.13
7336.38
7336.64
7336.89
7337.13
7337.37
7337.61
7337.85
7338.08
7338.31
7338.53
7338.76
7338.98
7339.19
7339.41
7339.62
7339.82
7340.03
7340.23
7340.43
7340.62
7340.81
7341
7341.19
7341.37
7341.55
7341.73
7341.9
7342.07
7342.24
7342.41
7342.57
7342.73
7342.89
7343.04
7343.19
7343.34
7343.49
7343.63
7343.77
7343.91
7344.05
7344.18
7344.31
7344.44
7344.57
7344.69
7344.81
7344.93
7345.05
7345.16
7345.27
7345.38
7345.49
7345.59
7345.69
7345.8
7345.89
7345.99
7346.08
7346.18
7346.27
7346.35
7346.44
7346.53
7346.61
7346.69
7346.77
7346.84
7346.92
7346.99
7347.06
7347.13
7347.2
7347.27
7347.33
7347.4
7347.46
7347.52
7347.58
7347.63
7347.69
7347.74
7347.8
7347.85
7347.9
7347.95
7348
7348.04
7348.09
7348.13
7348.17
7348.21
7348.25
7348.29
7348.33
7348.37
7348.4
7348.44
7348.47
7348.51
7348.54
7348.57
7348.6
7348.63
7348.66
7348.69
7348.71
7348.74
7348.77
7348.79
7348.82
7348.84
7348.86
7348.88
7348.9
7348.92
7348.94
7348.96
7348.98
7349
7349.02
7349.03
7349.05
7349.07
7349.09
7349.1
7349.11
7349.12
7349.13
7349.14
7349.15
7349.16
7349.17
7349.18
7349.19
7349.2
7349.21
7349.22
7349.23
7349.24
7349.25
7349.25
7349.26
7349.27
7349.28
7349.29
7349.3
7349.31
7349.31
7349.32
7349.33
7349.34
7349.35
7349.35
7349.36
7349.37
7349.37
7349.38
7349.39
7349.4
7349.4
7349.41
7349.42
7349.42
7349.43
7349.43
7349.44
7349.45
7349.45
7349.46
7349.46
7349.47
7349.47
7349.48
7349.48
7349.49
7349.49
7349.5
7349.5
7349.51
7349.51
7349.52
7349.52
7349.53
7349.53
7349.53
7349.54
7349.54
7349.54
7349.55
7349.55
7349.55
7349.56
7349.56
7349.56
7349.57
7349.57
7349.57
7349.57
7349.58
7349.58
7349.58
7349.58
7349.58
7349.59
7349.59
7349.59
7349.59
7349.59
7349.59
7349.6
7349.6
7529.53
7517.91
7507.27
7498.9
7490.62
7481.92
7473.22
7464.57
7455.93
7447.33
7438.76
7430.23
7421.75
7413.32
7404.94
7396.62
7388.37
7380.19
7372.08
7364.03
7356.06
7348.17
7340.37
7332.66
7325.03
7317.5
7310.07
7302.75
7295.53
7288.41
7281.4
7274.51
7267.74
7261.09
7254.57
7248.16
7241.88
7235.73
7229.71
7223.82
7218.06
7212.42
7206.92
7201.56
7196.34
7191.25
7186.29
7181.46
7176.77
7172.22
7167.8
7163.53
7159.39
7155.38
7151.5
7147.75
7144.14
7140.67
7137.31
7134.07
7130.96
7127.98
7125.13
7122.39
7119.77
7117.27
7114.88
7112.61
7110.44
7108.38
7106.43
7104.6
7102.86
7101.23
7099.68
7098.22
7096.85
7095.53
7094.28
7093.1
7091.98
7090.91
7089.9
7088.94
7087.98
7087.09
7086.33
7085.67
7084.9
7084.16
7083.68
7083.25
7082.78
7082.38
7082.03
7081.75
7081.52
7081.32
7081.16
7081.03
7080.94
7080.88
7080.84
7080.84
7080.84
7080.87
7080.9
7080.94
7080.97
7081.03
7081.1
7081.16
7081.21
7081.25
7081.29
7081.32
7081.36
7081.38
7081.39
7081.38
7081.37
7081.34
7081.31
7081.25
7081.18
7081.09
7080.98
7080.86
7080.72
7080.57
7080.39
7080.2
7079.99
7079.76
7079.52
7079.26
7078.99
7078.7
7078.39
7078.07
7077.74
7077.39
7077.03
7076.65
7076.27
7075.87
7075.45
7075.03
7074.6
7074.16
7073.71
7073.26
7072.8
7072.33
7071.86
7071.39
7070.92
7070.44
7069.97
7069.5
7069.03
7068.56
7068.09
7067.64
7067.19
7066.74
7066.3
7065.87
7065.45
7065.04
7064.64
7064.25
7063.88
7063.52
7063.17
7062.85
7062.53
7062.24
7061.97
7061.72
7061.49
7061.28
7061.1
7060.94
7060.81
7060.7
7060.62
7060.57
7060.54
7060.55
7060.58
7060.65
7060.74
7060.86
7061.01
7061.19
7061.4
7061.64
7061.9
7062.2
7062.52
7062.87
7063.24
7063.64
7064.07
7064.52
7065
7065.5
7066.02
7066.57
7067.14
7067.72
7068.33
7068.96
7069.61
7070.28
7070.96
7071.66
7072.37
7073.1
7073.84
7074.59
7075.36
7076.14
7076.93
7077.72
7078.52
7079.33
7080.15
7080.97
7081.8
7082.63
7083.47
7084.31
7085.14
7085.98
7086.82
7087.66
7088.5
7089.34
7090.17
7091
7091.83
7092.65
7093.47
7094.28
7095.09
7095.9
7096.69
7097.48
7098.27
7099.05
7099.82
7100.58
7101.34
7102.08
7102.82
7103.56
7104.28
7105
7105.71
7106.41
7107.1
7107.79
7108.47
7109.13
7109.79
7110.45
7111.09
7111.73
7112.35
7112.98
7113.59
7114.19
7114.79
7115.38
7115.96
7116.53
7117.1
7117.65
7118.2
7118.75
7119.28
7119.81
7120.33
7120.85
7121.35
7121.85
7122.35
7122.83
7123.31
7123.79
7124.25
7124.71
7125.17
7125.62
7126.06
7126.5
7126.93
7127.35
7127.77
7128.18
7128.59
7128.99
7129.39
7129.78
7130.16
7130.54
7130.92
7131.29
7131.66
7132.02
7132.37
7132.72
7133.07
7133.41
7133.75
7134.09
7134.42
7134.74
7135.06
7135.38
7135.7
7136
7136.31
7136.61
7136.91
7137.2
7137.5
7137.78
7138.07
7138.34
7138.62
7138.89
7139.16
7139.43
7139.69
7139.95
7140.2
7140.46
7140.71
7140.95
7141.19
7141.43
7141.67
7141.9
7142.13
7142.35
7142.58
7142.8
7143.01
7143.23
7143.44
7143.64
7143.85
7144.05
7144.25
7144.44
7144.63
7144.82
7145.01
7145.19
7145.37
7145.55
7145.72
7145.89
7146.06
7146.23
7146.39
7146.55
7146.71
7146.86
7147.01
7147.16
7147.31
7147.45
7147.59
7147.73
7147.87
7148
7148.13
7148.26
7148.38
7148.51
7148.63
7148.75
7148.86
7148.98
7149.09
7149.2
7149.3
7149.41
7149.51
7149.61
7149.71
7149.8
7149.9
7149.99
7150.08
7150.17
7150.25
7150.34
7150.42
7150.5
7150.58
7150.66
7150.73
7150.8
7150.88
7150.94
7151.01
7151.08
7151.14
7151.21
7151.27
7151.33
7151.39
7151.44
7151.5
7151.55
7151.61
7151.66
7151.71
7151.76
7151.8
7151.85
7151.89
7151.94
7151.98
7152.02
7152.06
7152.1
7152.14
7152.18
7152.21
7152.25
7152.28
7152.31
7152.35
7152.38
7152.41
7152.44
7152.47
7152.49
7152.52
7152.55
7152.57
7152.6
7152.62
7152.64
7152.67
7152.69
7152.71
7152.73
7152.75
7152.77
7152.79
7152.8
7152.82
7152.84
7152.86
7152.87
7152.88
7152.89
7152.9
7152.91
7152.92
7152.94
7152.95
7152.96
7152.97
7152.98
7152.99
7153
7153.01
7153.02
7153.03
7153.04
7153.05
7153.05
7153.06
7153.07
7153.08
7153.09
7153.1
7153.11
7153.11
7153.12
7153.13
7153.14
7153.15
7153.15
7153.16
7153.17
7153.18
7153.18
7153.19
7153.2
7153.2
7153.21
7153.22
7153.22
7153.23
7153.23
7153.24
7153.25
7153.25
7153.26
7153.26
7153.27
7153.27
7153.28
7153.28
7153.29
7153.29
7153.3
7153.3
7153.31
7153.31
7153.32
7153.32
7153.33
7153.33
7153.33
7153.34
7153.34
7153.34
7153.35
7153.35
7153.35
7153.36
7153.36
7153.36
7153.37
7153.37
7153.37
7153.37
7153.38
7153.38
7153.38
7153.38
7153.39
7153.39
7153.39
7153.39
7153.39
7153.39
7153.4
7153.4
7153.4
7333.25
7321.57
7310.88
7302.46
7294.12
7285.36
7276.61
7267.9
7259.22
7250.56
7241.95
7233.38
7224.85
7216.38
7207.96
7199.6
7191.31
7183.08
7174.92
7166.84
7158.83
7150.9
7143.06
7135.31
7127.66
7120.1
7112.64
7105.28
7098.04
7090.9
7083.87
7076.96
7070.17
7063.5
7056.95
7050.53
7044.24
7038.07
7032.04
7026.14
7020.37
7014.74
7009.24
7003.88
6998.66
6993.58
6988.63
6983.82
6979.15
6974.61
6970.21
6965.95
6961.82
6957.83
6953.97
6950.25
6946.66
6943.2
6939.86
6936.64
6933.56
6930.59
6927.76
6925.03
6922.43
6919.96
6917.59
6915.34
6913.19
6911.15
6909.22
6907.39
6905.67
6904.04
6902.51
6901.06
6899.7
6898.39
6897.16
6896.01
6894.92
6893.88
6892.88
6891.94
6891.07
6890.27
6889.53
6888.84
6888.17
6887.58
6887.06
6886.46
6885.97
6885.69
6885.44
6885.16
6884.91
6884.74
6884.61
6884.52
6884.45
6884.42
6884.4
6884.41
6884.44
6884.49
6884.55
6884.62
6884.7
6884.76
6884.85
6884.9
6884.98
6885.06
6885.12
6885.17
6885.21
6885.25
6885.27
6885.28
6885.28
6885.27
6885.24
6885.19
6885.13
6885.05
6884.95
6884.84
6884.7
6884.55
6884.39
6884.19
6883.99
6883.76
6883.52
6883.26
6882.99
6882.69
6882.38
6882.06
6881.73
6881.38
6881.01
6880.63
6880.23
6879.83
6879.41
6878.98
6878.54
6878.1
6877.64
6877.18
6876.7
6876.23
6875.75
6875.27
6874.79
6874.3
6873.82
6873.34
6872.86
6872.38
6871.91
6871.44
6870.98
6870.52
6870.07
6869.64
6869.21
6868.79
6868.38
6867.98
6867.6
6867.23
6866.88
6866.54
6866.22
6865.92
6865.64
6865.38
6865.15
6864.93
6864.75
6864.58
6864.45
6864.33
6864.25
6864.2
6864.17
6864.17
6864.2
6864.26
6864.36
6864.48
6864.62
6864.8
6865.01
6865.25
6865.52
6865.81
6866.13
6866.48
6866.86
6867.26
6867.69
6868.15
6868.63
6869.14
6869.66
6870.21
6870.78
6871.38
6871.99
6872.63
6873.28
6873.95
6874.64
6875.34
6876.06
6876.79
6877.54
6878.3
6879.07
6879.85
6880.65
6881.45
6882.26
6883.07
6883.9
6884.72
6885.56
6886.39
6887.23
6888.08
6888.92
6889.76
6890.61
6891.45
6892.29
6893.13
6893.97
6894.8
6895.63
6896.46
6897.28
6898.1
6898.91
6899.72
6900.52
6901.31
6902.09
6902.87
6903.65
6904.41
6905.17
6905.92
6906.66
6907.4
6908.12
6908.84
6909.55
6910.25
6910.94
6911.63
6912.31
6912.98
6913.64
6914.29
6914.93
6915.57
6916.2
6916.82
6917.43
6918.03
6918.63
6919.22
6919.8
6920.37
6920.94
6921.49
6922.04
6922.59
6923.12
6923.65
6924.17
6924.69
6925.19
6925.69
6926.19
6926.67
6927.15
6927.63
6928.09
6928.55
6929.01
6929.45
6929.9
6930.33
6930.76
6931.19
6931.6
6932.02
6932.42
6932.82
6933.22
6933.61
6934
6934.38
6934.75
6935.12
6935.49
6935.85
6936.21
6936.56
6936.9
6937.25
6937.58
6937.92
6938.25
6938.57
6938.89
6939.21
6939.53
6939.83
6940.14
6940.44
6940.74
6941.03
6941.32
6941.61
6941.89
6942.17
6942.45
6942.72
6942.99
6943.26
6943.52
6943.78
6944.03
6944.28
6944.53
6944.78
6945.02
6945.26
6945.49
6945.73
6945.96
6946.18
6946.4
6946.62
6946.84
6947.05
6947.26
6947.47
6947.68
6947.88
6948.07
6948.27
6948.46
6948.65
6948.84
6949.02
6949.2
6949.38
6949.55
6949.72
6949.89
6950.05
6950.22
6950.38
6950.53
6950.69
6950.84
6950.99
6951.13
6951.28
6951.42
6951.55
6951.69
6951.82
6951.95
6952.08
6952.21
6952.33
6952.45
6952.57
6952.68
6952.8
6952.91
6953.02
6953.12
6953.23
6953.33
6953.43
6953.53
6953.62
6953.72
6953.81
6953.9
6953.99
6954.07
6954.16
6954.24
6954.32
6954.4
6954.47
6954.55
6954.62
6954.69
6954.76
6954.83
6954.9
6954.96
6955.02
6955.08
6955.14
6955.2
6955.26
6955.32
6955.37
6955.42
6955.47
6955.52
6955.57
6955.61
6955.66
6955.7
6955.75
6955.79
6955.83
6955.87
6955.91
6955.95
6955.99
6956.02
6956.06
6956.09
6956.12
6956.15
6956.19
6956.22
6956.25
6956.27
6956.3
6956.33
6956.35
6956.38
6956.41
6956.43
6956.45
6956.47
6956.49
6956.52
6956.54
6956.56
6956.57
6956.6
6956.61
6956.62
6956.64
6956.65
6956.66
6956.68
6956.69
6956.7
6956.71
6956.73
6956.74
6956.75
6956.76
6956.77
6956.78
6956.79
6956.8
6956.81
6956.82
6956.83
6956.84
6956.85
6956.86
6956.87
6956.87
6956.88
6956.89
6956.9
6956.91
6956.92
6956.92
6956.93
6956.94
6956.95
6956.96
6956.96
6956.97
6956.98
6956.98
6956.99
6957
6957
6957.01
6957.02
6957.02
6957.03
6957.04
6957.04
6957.05
6957.05
6957.06
6957.06
6957.07
6957.08
6957.08
6957.09
6957.09
6957.1
6957.1
6957.11
6957.11
6957.11
6957.12
6957.12
6957.13
6957.13
6957.13
6957.14
6957.14
6957.15
6957.15
6957.15
6957.15
6957.16
6957.16
6957.16
6957.17
6957.17
6957.17
6957.17
6957.18
6957.18
6957.18
6957.18
6957.19
6957.19
6957.19
6957.19
6957.19
6957.19
6957.2
6957.2
6957.2
7136.95
7125.19
7114.42
7105.94
7097.53
7088.7
7079.89
7071.11
7062.37
7053.66
7044.99
7036.35
7027.77
7019.24
7010.77
7002.36
6994.01
6985.72
6977.51
6969.38
6961.32
6953.35
6945.47
6937.67
6929.98
6922.38
6914.89
6907.5
6900.23
6893.06
6886.01
6879.07
6872.26
6865.56
6859
6852.56
6846.25
6840.07
6834.02
6828.11
6822.34
6816.71
6811.21
6805.85
6800.64
6795.56
6790.62
6785.81
6781.15
6776.63
6772.24
6767.99
6763.88
6759.91
6756.07
6752.37
6748.8
6745.36
6742.04
6738.85
6735.79
6732.85
6730.04
6727.34
6724.76
6722.31
6719.98
6717.74
6715.63
6713.62
6711.72
6709.92
6708.21
6706.61
6705.1
6703.68
6702.34
6701.06
6699.87
6698.75
6697.69
6696.69
6695.74
6694.85
6694.04
6693.28
6692.57
6691.91
6691.31
6690.76
6690.26
6689.78
6689.36
6688.99
6688.56
6688.32
6688.23
6688.13
6688.01
6687.9
6687.87
6687.87
6687.9
6687.94
6688.01
6688.08
6688.17
6688.26
6688.36
6688.47
6688.57
6688.68
6688.77
6688.86
6688.93
6689.01
6689.09
6689.14
6689.18
6689.21
6689.22
6689.22
6689.2
6689.16
6689.12
6689.04
6688.96
6688.85
6688.73
6688.58
6688.42
6688.23
6688.03
6687.81
6687.57
6687.31
6687.03
6686.74
6686.43
6686.1
6685.76
6685.4
6685.03
6684.64
6684.24
6683.83
6683.4
6682.96
6682.51
6682.06
6681.59
6681.12
6680.64
6680.15
6679.66
6679.17
6678.67
6678.18
6677.68
6677.19
6676.7
6676.21
6675.72
6675.24
6674.77
6674.3
6673.84
6673.39
6672.94
6672.51
6672.09
6671.68
6671.29
6670.91
6670.55
6670.2
6669.87
6669.56
6669.28
6669.01
6668.77
6668.55
6668.35
6668.18
6668.04
6667.92
6667.83
6667.77
6667.74
6667.74
6667.77
6667.83
6667.92
6668.04
6668.18
6668.36
6668.57
6668.81
6669.08
6669.37
6669.7
6670.05
6670.43
6670.84
6671.27
6671.73
6672.21
6672.72
6673.25
6673.81
6674.39
6674.99
6675.61
6676.25
6676.91
6677.58
6678.28
6678.99
6679.72
6680.46
6681.21
6681.98
6682.76
6683.55
6684.35
6685.15
6685.97
6686.79
6687.62
6688.46
6689.3
6690.14
6690.99
6691.83
6692.68
6693.53
6694.38
6695.23
6696.08
6696.92
6697.77
6698.6
6699.44
6700.27
6701.1
6701.92
6702.73
6703.54
6704.34
6705.14
6705.93
6706.71
6707.48
6708.25
6709.01
6709.76
6710.51
6711.24
6711.97
6712.69
6713.4
6714.1
6714.79
6715.48
6716.16
6716.83
6717.49
6718.14
6718.79
6719.42
6720.05
6720.67
6721.28
6721.89
6722.48
6723.07
6723.65
6724.22
6724.79
6725.35
6725.9
6726.44
6726.97
6727.5
6728.02
6728.54
6729.04
6729.54
6730.04
6730.52
6731
6731.47
6731.94
6732.4
6732.85
6733.3
6733.74
6734.18
6734.61
6735.03
6735.45
6735.86
6736.27
6736.67
6737.06
6737.45
6737.84
6738.22
6738.59
6738.96
6739.33
6739.69
6740.05
6740.4
6740.74
6741.09
6741.42
6741.76
6742.09
6742.41
6742.73
6743.05
6743.36
6743.67
6743.98
6744.28
6744.58
6744.87
6745.16
6745.45
6745.73
6746.01
6746.29
6746.56
6746.83
6747.09
6747.35
6747.61
6747.87
6748.12
6748.37
6748.61
6748.86
6749.09
6749.33
6749.56
6749.79
6750.02
6750.24
6750.46
6750.68
6750.89
6751.1
6751.31
6751.51
6751.71
6751.91
6752.1
6752.3
6752.48
6752.67
6752.85
6753.03
6753.21
6753.38
6753.55
6753.72
6753.89
6754.05
6754.21
6754.37
6754.52
6754.67
6754.82
6754.96
6755.11
6755.25
6755.39
6755.52
6755.65
6755.78
6755.91
6756.04
6756.16
6756.28
6756.4
6756.51
6756.62
6756.74
6756.84
6756.95
6757.05
6757.16
6757.26
6757.35
6757.45
6757.54
6757.63
6757.72
6757.81
6757.9
6757.98
6758.06
6758.14
6758.22
6758.3
6758.37
6758.44
6758.51
6758.58
6758.65
6758.72
6758.78
6758.84
6758.9
6758.96
6759.02
6759.08
6759.13
6759.18
6759.23
6759.29
6759.33
6759.38
6759.43
6759.47
6759.52
6759.56
6759.6
6759.64
6759.68
6759.72
6759.76
6759.8
6759.83
6759.87
6759.9
6759.93
6759.97
6760
6760.03
6760.06
6760.08
6760.11
6760.14
6760.17
6760.19
6760.21
6760.24
6760.26
6760.28
6760.3
6760.33
6760.35
6760.36
6760.37
6760.39
6760.4
6760.42
6760.43
6760.45
6760.46
6760.47
6760.49
6760.5
6760.51
6760.52
6760.54
6760.55
6760.56
6760.57
6760.58
6760.59
6760.6
6760.61
6760.62
6760.63
6760.64
6760.65
6760.66
6760.67
6760.68
6760.68
6760.69
6760.7
6760.71
6760.72
6760.73
6760.73
6760.74
6760.75
6760.76
6760.76
6760.77
6760.78
6760.79
6760.79
6760.8
6760.81
6760.81
6760.82
6760.83
6760.83
6760.84
6760.84
6760.85
6760.86
6760.86
6760.87
6760.87
6760.88
6760.88
6760.89
6760.89
6760.9
6760.9
6760.91
6760.91
6760.92
6760.92
6760.92
6760.93
6760.93
6760.94
6760.94
6760.94
6760.95
6760.95
6760.95
6760.96
6760.96
6760.96
6760.97
6760.97
6760.97
6760.97
6760.98
6760.98
6760.98
6760.98
6760.98
6760.99
6760.99
6760.99
6760.99
6760.99
6761
6761
6761
6761
6940.61
6928.75
6917.89
6909.33
6900.84
6891.93
6883.04
6874.2
6865.38
6856.61
6847.87
6839.16
6830.52
6821.93
6813.39
6804.91
6796.49
6788.14
6779.88
6771.69
6763.58
6755.55
6747.62
6739.77
6732.03
6724.38
6716.85
6709.42
6702.12
6694.92
6687.85
6680.89
6674.04
6667.32
6660.73
6654.28
6647.95
6641.76
6635.7
6629.79
6624.01
6618.37
6612.87
6607.51
6602.3
6597.23
6592.29
6587.5
6582.83
6578.31
6573.93
6569.7
6565.6
6561.65
6557.83
6554.15
6550.6
6547.19
6543.9
6540.73
6537.7
6534.79
6532
6529.33
6526.79
6524.36
6522.06
6519.87
6517.78
6515.81
6513.94
6512.17
6510.51
6508.93
6507.46
6506.07
6504.77
6503.53
6502.38
6501.3
6500.29
6499.33
6498.43
6497.6
6496.84
6496.14
6495.48
6494.87
6494.32
6493.82
6493.37
6492.95
6492.59
6492.26
6491.95
6491.71
6491.5
6491.22
6491.19
6491.25
6491.27
6491.3
6491.31
6491.4
6491.51
6491.63
6491.75
6491.88
6492.01
6492.15
6492.29
6492.42
6492.55
6492.66
6492.78
6492.88
6492.98
6493.04
6493.1
6493.16
6493.19
6493.21
6493.2
6493.18
6493.14
6493.09
6493
6492.91
6492.78
6492.65
6492.49
6492.3
6492.11
6491.88
6491.64
6491.38
6491.11
6490.81
6490.49
6490.17
6489.82
6489.46
6489.07
6488.68
6488.27
6487.85
6487.41
6486.96
6486.51
6486.04
6485.56
6485.08
6484.58
6484.09
6483.58
6483.08
6482.57
6482.06
6481.55
6481.04
6480.53
6480.03
6479.52
6479.03
6478.54
6478.05
6477.58
6477.11
6476.66
6476.21
6475.78
6475.35
6474.95
6474.56
6474.18
6473.82
6473.48
6473.16
6472.86
6472.59
6472.33
6472.11
6471.9
6471.72
6471.57
6471.45
6471.36
6471.29
6471.26
6471.25
6471.28
6471.33
6471.42
6471.54
6471.68
6471.86
6472.07
6472.31
6472.58
6472.88
6473.2
6473.56
6473.94
6474.35
6474.79
6475.26
6475.75
6476.26
6476.8
6477.36
6477.95
6478.55
6479.18
6479.83
6480.5
6481.18
6481.88
6482.6
6483.34
6484.09
6484.85
6485.63
6486.41
6487.21
6488.02
6488.84
6489.66
6490.49
6491.33
6492.17
6493.02
6493.87
6494.73
6495.58
6496.44
6497.29
6498.15
6499.01
6499.86
6500.71
6501.56
6502.4
6503.24
6504.08
6504.91
6505.73
6506.55
6507.36
6508.17
6508.97
6509.76
6510.55
6511.32
6512.09
6512.86
6513.61
6514.35
6515.09
6515.82
6516.54
6517.25
6517.96
6518.65
6519.34
6520.02
6520.69
6521.35
6522
6522.65
6523.28
6523.91
6524.53
6525.14
6525.75
6526.34
6526.93
6527.51
6528.08
6528.65
6529.2
6529.75
6530.3
6530.83
6531.36
6531.88
6532.39
6532.9
6533.4
6533.89
6534.38
6534.86
6535.33
6535.79
6536.25
6536.71
6537.15
6537.59
6538.03
6538.46
6538.88
6539.3
6539.71
6540.12
6540.52
6540.91
6541.3
6541.69
6542.07
6542.44
6542.81
6543.18
6543.54
6543.89
6544.24
6544.59
6544.93
6545.27
6545.6
6545.93
6546.26
6546.58
6546.89
6547.21
6547.51
6547.82
6548.12
6548.42
6548.71
6549
6549.29
6549.57
6549.85
6550.13
6550.4
6550.67
6550.93
6551.19
6551.45
6551.71
6551.96
6552.21
6552.45
6552.7
6552.93
6553.17
6553.4
6553.63
6553.86
6554.08
6554.3
6554.52
6554.73
6554.94
6555.15
6555.35
6555.55
6555.75
6555.94
6556.14
6556.32
6556.51
6556.69
6556.87
6557.05
6557.22
6557.39
6557.56
6557.73
6557.89
6558.05
6558.2
6558.36
6558.51
6558.66
6558.8
6558.94
6559.08
6559.22
6559.36
6559.49
6559.62
6559.74
6559.87
6559.99
6560.11
6560.23
6560.34
6560.46
6560.57
6560.68
6560.78
6560.89
6560.99
6561.09
6561.18
6561.28
6561.37