/*--------------------------------*- C++ -*----------------------------------*\
| =========                 |                                                 |
| \\      /  F ield         | OpenFOAM: The Open Source CFD Toolbox           |
|  \\    /   O peration     | Version:  v2006                                 |
|   \\  /    A nd           | Website:  www.openfoam.com                      |
|    \\/     M anipulation  |                                                 |
\*---------------------------------------------------------------------------*/
FoamFile
{
    version     2.0;
    format      ascii;
    class       volScalarField;
    location    "2.3";
    object      p_rgh;
}
// * * * * * * * * * * * * * * * * * * * * * * * * * * * * * * * * * * * * * //

dimensions      [1 -1 -2 0 0 0 0];


internalField   nonuniform List<scalar> 
33000
(
8216.35
8204.76
8194.22
8185.96
8177.8
8169.19
8160.59
8152.04
8143.51
8134.98
8126.48
8118.01
8109.59
8101.22
8092.91
8084.63
8076.41
8068.23
8060.12
8052.12
8044.21
8036.36
8028.58
8020.86
8013.24
8005.76
7998.37
7991.06
7983.84
7976.77
7969.81
7962.95
7956.2
7949.54
7943.03
7936.7
7930.45
7924.31
7918.29
7912.39
7906.67
7901.08
7895.6
7890.21
7884.99
7879.92
7874.96
7870.14
7865.44
7860.89
7856.46
7852.16
7847.99
7843.95
7840.05
7836.27
7832.61
7829.09
7825.71
7822.47
7819.34
7816.33
7813.46
7810.7
7808.07
7805.55
7803.14
7800.85
7798.68
7796.61
7794.64
7792.79
7791.07
7789.46
7787.96
7786.59
7785.36
7784.29
7783.06
7781.39
7780.2
7779
7777.82
7776.74
7775.72
7774.79
7773.92
7773.14
7772.41
7771.74
7771.17
7770.64
7770.16
7769.72
7769.36
7769.04
7768.75
7768.51
7768.28
7768.11
7768.01
7767.91
7767.83
7767.78
7767.75
7767.73
7767.73
7767.74
7767.75
7767.76
7767.78
7767.81
7767.83
7767.86
7767.88
7767.89
7767.9
7767.9
7767.89
7767.87
7767.84
7767.79
7767.73
7767.66
7767.58
7767.48
7767.37
7767.24
7767.09
7766.93
7766.76
7766.56
7766.35
7766.12
7765.88
7765.63
7765.35
7765.07
7764.76
7764.45
7764.12
7763.77
7763.42
7763.05
7762.67
7762.28
7761.88
7761.47
7761.05
7760.62
7760.18
7759.74
7759.3
7758.85
7758.39
7757.93
7757.47
7757.02
7756.56
7756.1
7755.64
7755.19
7754.75
7754.3
7753.86
7753.43
7753.01
7752.59
7752.19
7751.79
7751.4
7751.03
7750.67
7750.32
7749.99
7749.67
7749.37
7749.09
7748.83
7748.59
7748.37
7748.17
7748
7747.85
7747.72
7747.62
7747.55
7747.51
7747.49
7747.5
7747.54
7747.6
7747.7
7747.82
7747.97
7748.15
7748.36
7748.6
7748.87
7749.16
7749.48
7749.82
7750.19
7750.59
7751.01
7751.46
7751.93
7752.43
7752.95
7753.48
7754.05
7754.63
7755.23
7755.85
7756.49
7757.15
7757.82
7758.51
7759.22
7759.94
7760.67
7761.42
7762.18
7762.95
7763.72
7764.51
7765.31
7766.11
7766.92
7767.74
7768.56
7769.38
7770.21
7771.04
7771.87
7772.7
7773.54
7774.37
7775.2
7776.03
7776.86
7777.68
7778.5
7779.32
7780.14
7780.95
7781.75
7782.55
7783.34
7784.13
7784.91
7785.69
7786.46
7787.22
7787.97
7788.72
7789.46
7790.19
7790.91
7791.63
7792.34
7793.04
7793.73
7794.42
7795.09
7795.76
7796.42
7797.07
7797.72
7798.35
7798.98
7799.6
7800.21
7800.82
7801.42
7802
7802.59
7803.16
7803.72
7804.28
7804.83
7805.38
7805.91
7806.44
7806.96
7807.48
7807.99
7808.49
7808.98
7809.47
7809.95
7810.42
7810.89
7811.35
7811.81
7812.26
7812.7
7813.14
7813.57
7813.99
7814.41
7814.82
7815.23
7815.63
7816.03
7816.42
7816.81
7817.19
7817.56
7817.94
7818.3
7818.66
7819.02
7819.37
7819.72
7820.06
7820.4
7820.74
7821.07
7821.39
7821.72
7822.03
7822.35
7822.66
7822.96
7823.27
7823.56
7823.86
7824.15
7824.44
7824.72
7825
7825.28
7825.55
7825.82
7826.08
7826.35
7826.61
7826.86
7827.11
7827.36
7827.61
7827.85
7828.09
7828.32
7828.56
7828.79
7829.01
7829.23
7829.45
7829.67
7829.88
7830.09
7830.3
7830.51
7830.71
7830.91
7831.1
7831.29
7831.48
7831.67
7831.85
7832.03
7832.21
7832.38
7832.55
7832.72
7832.89
7833.05
7833.21
7833.37
7833.52
7833.67
7833.82
7833.97
7834.11
7834.25
7834.39
7834.53
7834.66
7834.79
7834.92
7835.05
7835.17
7835.29
7835.41
7835.53
7835.64
7835.75
7835.86
7835.97
7836.08
7836.18
7836.28
7836.38
7836.47
7836.57
7836.66
7836.75
7836.84
7836.93
7837.01
7837.09
7837.17
7837.25
7837.33
7837.4
7837.48
7837.55
7837.62
7837.69
7837.75
7837.82
7837.88
7837.95
7838.01
7838.06
7838.12
7838.18
7838.23
7838.29
7838.34
7838.39
7838.44
7838.49
7838.53
7838.58
7838.62
7838.66
7838.71
7838.75
7838.79
7838.82
7838.86
7838.9
7838.93
7838.97
7839
7839.03
7839.06
7839.09
7839.12
7839.15
7839.18
7839.21
7839.23
7839.26
7839.29
7839.31
7839.33
7839.36
7839.38
7839.4
7839.42
7839.44
7839.46
7839.48
7839.49
7839.51
7839.53
7839.55
7839.56
7839.58
7839.59
7839.6
7839.62
7839.63
7839.64
7839.66
7839.67
7839.68
7839.69
7839.7
7839.71
7839.71
7839.72
7839.73
7839.74
7839.75
7839.76
7839.77
7839.77
7839.78
7839.79
7839.8
7839.81
7839.81
7839.82
7839.83
7839.84
7839.84
7839.85
7839.86
7839.87
7839.87
7839.88
7839.89
7839.89
7839.9
7839.91
7839.91
7839.92
7839.93
7839.93
7839.94
7839.95
7839.95
7839.96
7839.96
7839.97
7839.97
7839.98
7839.98
7839.99
7839.99
7840
7840
7840.01
7840.01
7840.02
7840.02
7840.03
7840.03
7840.03
7840.04
7840.04
7840.04
7840.05
7840.05
7840.05
7840.06
7840.06
7840.06
7840.07
7840.07
7840.07
7840.07
7840.08
7840.08
7840.08
7840.08
7840.08
7840.09
7840.09
7840.09
7840.09
7840.09
7840.09
7840.1
7840.1
8216.42
8204.9
8194.36
8186.05
8177.82
8169.19
8160.56
8151.96
8143.38
8134.83
8126.31
8117.82
8109.38
8100.98
8092.64
8084.35
8076.13
8067.96
8059.79
8051.78
8043.9
8036.08
8028.27
8020.47
8012.87
8005.39
7998.09
7990.78
7983.47
7976.42
7969.55
7962.64
7955.81
7949.19
7942.71
7936.45
7930.19
7923.93
7917.9
7912.01
7906.33
7900.81
7895.33
7889.87
7884.63
7879.55
7874.66
7869.8
7865.05
7860.49
7856.13
7851.83
7847.59
7843.55
7839.7
7835.92
7832.18
7828.67
7825.29
7822.1
7819.04
7816.02
7813.04
7810.3
7807.73
7805.28
7802.88
7800.53
7798.36
7796.33
7794.33
7792.49
7790.81
7789.19
7787.61
7786.19
7784.92
7783.66
7782.4
7781.18
7780.11
7778.94
7777.52
7776.6
7775.64
7774.65
7773.75
7772.91
7772.18
7771.55
7771.02
7770.52
7770.04
7769.59
7769.22
7768.91
7768.67
7768.44
7768.21
7768.05
7767.93
7767.79
7767.72
7767.71
7767.71
7767.68
7767.67
7767.71
7767.69
7767.71
7767.73
7767.76
7767.8
7767.84
7767.88
7767.9
7767.89
7767.89
7767.91
7767.89
7767.85
7767.81
7767.75
7767.68
7767.59
7767.51
7767.41
7767.26
7767.11
7766.97
7766.8
7766.59
7766.38
7766.15
7765.93
7765.68
7765.38
7765.1
7764.8
7764.5
7764.14
7763.8
7763.44
7763.08
7762.69
7762.3
7761.9
7761.5
7761.06
7760.63
7760.19
7759.75
7759.32
7758.87
7758.39
7757.93
7757.47
7757.03
7756.57
7756.09
7755.63
7755.19
7754.75
7754.29
7753.84
7753.42
7753
7752.57
7752.16
7751.76
7751.38
7751.01
7750.64
7750.28
7749.95
7749.64
7749.34
7749.05
7748.78
7748.54
7748.32
7748.13
7747.95
7747.79
7747.67
7747.57
7747.51
7747.45
7747.43
7747.44
7747.49
7747.55
7747.64
7747.76
7747.91
7748.1
7748.31
7748.54
7748.81
7749.11
7749.42
7749.77
7750.14
7750.54
7750.96
7751.42
7751.89
7752.37
7752.89
7753.44
7754.01
7754.58
7755.18
7755.81
7756.45
7757.11
7757.78
7758.48
7759.18
7759.9
7760.64
7761.4
7762.15
7762.92
7763.7
7764.48
7765.28
7766.09
7766.91
7767.72
7768.54
7769.36
7770.19
7771.02
7771.86
7772.69
7773.52
7774.36
7775.19
7776.02
7776.85
7777.68
7778.5
7779.32
7780.13
7780.94
7781.75
7782.55
7783.35
7784.13
7784.91
7785.69
7786.46
7787.22
7787.97
7788.72
7789.46
7790.2
7790.92
7791.64
7792.34
7793.05
7793.74
7794.42
7795.1
7795.77
7796.43
7797.08
7797.73
7798.36
7798.99
7799.61
7800.22
7800.83
7801.42
7802.01
7802.59
7803.17
7803.73
7804.29
7804.84
7805.38
7805.92
7806.45
7806.97
7807.49
7807.99
7808.5
7808.99
7809.48
7809.96
7810.43
7810.9
7811.36
7811.82
7812.26
7812.71
7813.14
7813.57
7814
7814.42
7814.83
7815.24
7815.64
7816.04
7816.43
7816.81
7817.2
7817.57
7817.94
7818.31
7818.67
7819.03
7819.38
7819.73
7820.07
7820.41
7820.75
7821.08
7821.4
7821.72
7822.04
7822.36
7822.67
7822.97
7823.27
7823.57
7823.87
7824.16
7824.44
7824.73
7825.01
7825.28
7825.56
7825.83
7826.09
7826.35
7826.61
7826.87
7827.12
7827.37
7827.61
7827.86
7828.1
7828.33
7828.56
7828.79
7829.02
7829.24
7829.46
7829.68
7829.89
7830.1
7830.31
7830.51
7830.71
7830.91
7831.11
7831.3
7831.49
7831.67
7831.86
7832.04
7832.21
7832.39
7832.56
7832.73
7832.89
7833.06
7833.22
7833.37
7833.53
7833.68
7833.83
7833.98
7834.12
7834.26
7834.4
7834.53
7834.67
7834.8
7834.93
7835.05
7835.18
7835.3
7835.42
7835.53
7835.65
7835.76
7835.87
7835.98
7836.08
7836.18
7836.28
7836.38
7836.48
7836.57
7836.67
7836.76
7836.84
7836.93
7837.02
7837.1
7837.18
7837.26
7837.33
7837.41
7837.48
7837.55
7837.62
7837.69
7837.76
7837.82
7837.89
7837.95
7838.01
7838.07
7838.13
7838.18
7838.24
7838.29
7838.34
7838.39
7838.44
7838.49
7838.54
7838.58
7838.63
7838.67
7838.71
7838.75
7838.79
7838.83
7838.86
7838.9
7838.93
7838.97
7839
7839.03
7839.07
7839.1
7839.13
7839.15
7839.18
7839.21
7839.24
7839.26
7839.29
7839.31
7839.33
7839.36
7839.38
7839.4
7839.42
7839.44
7839.46
7839.48
7839.5
7839.51
7839.53
7839.55
7839.56
7839.58
7839.59
7839.61
7839.63
7839.64
7839.65
7839.66
7839.67
7839.68
7839.69
7839.7
7839.71
7839.72
7839.73
7839.73
7839.74
7839.75
7839.76
7839.77
7839.78
7839.78
7839.79
7839.8
7839.81
7839.82
7839.82
7839.83
7839.84
7839.85
7839.85
7839.86
7839.87
7839.88
7839.88
7839.89
7839.9
7839.9
7839.91
7839.92
7839.92
7839.93
7839.93
7839.94
7839.95
7839.95
7839.96
7839.96
7839.97
7839.97
7839.98
7839.99
7839.99
7840
7840
7840
7840.01
7840.01
7840.02
7840.02
7840.03
7840.03
7840.03
7840.04
7840.04
7840.04
7840.05
7840.05
7840.05
7840.06
7840.06
7840.06
7840.07
7840.07
7840.07
7840.07
7840.08
7840.08
7840.08
7840.08
7840.09
7840.09
7840.09
7840.09
7840.09
7840.09
7840.1
7840.1
7840.1
8216.27
8204.71
8194.15
8185.83
8177.6
8168.97
8160.33
8151.72
8143.13
8134.57
8126.01
8117.48
8109.02
8100.62
8092.28
8083.98
8075.72
8067.47
8059.3
8051.32
8043.46
8035.56
8027.66
8019.9
8012.29
8004.9
7997.51
7990.03
7982.73
7975.64
7968.81
7962.08
7955.34
7948.57
7941.95
7935.58
7929.47
7923.39
7917.32
7911.3
7905.52
7900.07
7894.62
7889.21
7883.87
7878.74
7873.78
7869.05
7864.38
7859.83
7855.38
7851.02
7846.86
7842.88
7839.09
7835.34
7831.64
7827.99
7824.62
7821.53
7818.45
7815.37
7812.39
7809.67
7807.21
7804.71
7802.32
7800.01
7797.78
7795.72
7793.83
7792.03
7790.29
7788.65
7787.11
7785.62
7784.17
7782.89
7781.74
7780.55
7779.42
7778.26
7777.18
7776.34
7775.33
7774.12
7773.27
7772.58
7772.03
7771.37
7770.75
7770.24
7769.78
7769.36
7769.06
7768.75
7768.48
7768.25
7768.04
7767.93
7767.82
7767.73
7767.64
7767.64
7767.62
7767.59
7767.6
7767.64
7767.69
7767.72
7767.76
7767.8
7767.83
7767.85
7767.9
7767.93
7767.94
7767.93
7767.93
7767.95
7767.94
7767.89
7767.82
7767.78
7767.7
7767.6
7767.5
7767.37
7767.22
7767.06
7766.9
7766.71
7766.49
7766.27
7766.04
7765.77
7765.47
7765.2
7764.91
7764.58
7764.22
7763.9
7763.55
7763.15
7762.76
7762.39
7761.99
7761.55
7761.11
7760.7
7760.26
7759.79
7759.36
7758.92
7758.42
7757.95
7757.51
7757.05
7756.57
7756.1
7755.63
7755.2
7754.75
7754.29
7753.82
7753.39
7752.98
7752.56
7752.13
7751.71
7751.34
7750.97
7750.59
7750.22
7749.9
7749.58
7749.27
7748.99
7748.73
7748.48
7748.25
7748.04
7747.86
7747.71
7747.59
7747.49
7747.42
7747.37
7747.35
7747.35
7747.38
7747.44
7747.54
7747.67
7747.83
7748
7748.2
7748.44
7748.72
7749.01
7749.33
7749.68
7750.04
7750.45
7750.88
7751.33
7751.79
7752.28
7752.82
7753.36
7753.92
7754.5
7755.12
7755.75
7756.39
7757.05
7757.72
7758.42
7759.13
7759.84
7760.6
7761.34
7762.11
7762.88
7763.65
7764.45
7765.26
7766.06
7766.88
7767.7
7768.52
7769.34
7770.18
7771.02
7771.85
7772.69
7773.52
7774.35
7775.18
7776.01
7776.85
7777.68
7778.5
7779.33
7780.14
7780.96
7781.76
7782.55
7783.35
7784.15
7784.93
7785.71
7786.48
7787.24
7787.99
7788.74
7789.48
7790.21
7790.93
7791.65
7792.36
7793.07
7793.76
7794.44
7795.12
7795.79
7796.45
7797.1
7797.75
7798.38
7799.01
7799.63
7800.24
7800.85
7801.44
7802.03
7802.61
7803.19
7803.75
7804.31
7804.86
7805.41
7805.94
7806.47
7806.99
7807.51
7808.02
7808.52
7809.01
7809.5
7809.98
7810.45
7810.92
7811.38
7811.84
7812.28
7812.73
7813.16
7813.59
7814.02
7814.44
7814.85
7815.26
7815.66
7816.06
7816.45
7816.83
7817.21
7817.59
7817.96
7818.33
7818.69
7819.05
7819.4
7819.75
7820.09
7820.43
7820.76
7821.09
7821.42
7821.74
7822.06
7822.37
7822.68
7822.99
7823.29
7823.59
7823.88
7824.17
7824.46
7824.74
7825.02
7825.3
7825.57
7825.84
7826.11
7826.37
7826.63
7826.88
7827.14
7827.38
7827.63
7827.87
7828.11
7828.35
7828.58
7828.81
7829.03
7829.26
7829.48
7829.69
7829.91
7830.12
7830.32
7830.53
7830.73
7830.93
7831.12
7831.31
7831.5
7831.69
7831.87
7832.05
7832.23
7832.4
7832.57
7832.74
7832.91
7833.07
7833.23
7833.39
7833.54
7833.69
7833.84
7833.99
7834.13
7834.27
7834.41
7834.55
7834.68
7834.81
7834.94
7835.07
7835.19
7835.31
7835.43
7835.54
7835.66
7835.77
7835.88
7835.99
7836.09
7836.19
7836.29
7836.39
7836.49
7836.58
7836.68
7836.77
7836.85
7836.94
7837.02
7837.11
7837.19
7837.27
7837.34
7837.42
7837.49
7837.56
7837.63
7837.7
7837.77
7837.83
7837.9
7837.96
7838.02
7838.08
7838.13
7838.19
7838.24
7838.3
7838.35
7838.4
7838.45
7838.5
7838.54
7838.59
7838.63
7838.67
7838.71
7838.75
7838.79
7838.83
7838.87
7838.9
7838.94
7838.97
7839.01
7839.04
7839.07
7839.1
7839.13
7839.16
7839.19
7839.21
7839.24
7839.27
7839.29
7839.32
7839.34
7839.36
7839.38
7839.4
7839.42
7839.44
7839.46
7839.48
7839.5
7839.52
7839.53
7839.55
7839.56
7839.58
7839.6
7839.6
7839.61
7839.61
7839.62
7839.63
7839.64
7839.65
7839.66
7839.68
7839.69
7839.7
7839.71
7839.72
7839.73
7839.74
7839.75
7839.76
7839.77
7839.77
7839.78
7839.79
7839.8
7839.81
7839.82
7839.83
7839.83
7839.84
7839.85
7839.86
7839.86
7839.87
7839.88
7839.89
7839.89
7839.9
7839.91
7839.91
7839.92
7839.93
7839.93
7839.94
7839.95
7839.95
7839.96
7839.96
7839.97
7839.97
7839.98
7839.98
7839.99
7839.99
7840
7840
7840.01
7840.01
7840.02
7840.02
7840.03
7840.03
7840.03
7840.04
7840.04
7840.04
7840.05
7840.05
7840.05
7840.06
7840.06
7840.06
7840.07
7840.07
7840.07
7840.07
7840.08
7840.08
7840.08
7840.08
7840.08
7840.09
7840.09
7840.09
7840.09
7840.09
7840.1
7840.1
7840.1
8216.25
8204.7
8194.1
8185.73
8177.45
8168.74
8160.04
8151.37
8142.73
8134.1
8125.51
8116.96
8108.46
8100.02
8091.63
8083.3
8075.03
8066.83
8058.7
8050.66
8042.69
8034.79
8026.96
8019.23
8011.61
8004.09
7996.64
7989.28
7982.01
7974.85
7967.89
7961.12
7954.4
7947.74
7941.18
7934.79
7928.55
7922.42
7916.4
7910.5
7904.73
7899.12
7893.63
7888.24
7882.98
7877.89
7872.93
7868.05
7863.32
7858.76
7854.4
7850.18
7846
7841.95
7838.14
7834.35
7830.58
7827.01
7823.84
7820.68
7817.36
7814.32
7811.47
7808.85
7806.32
7803.64
7801.26
7799.17
7797.09
7794.9
7792.89
7791.06
7789.41
7787.86
7786.26
7784.69
7783.31
7782.01
7780.88
7779.57
7778.39
7777.37
7776.52
7775.56
7774.59
7773.58
7772.81
7772.15
7771.52
7770.8
7770.29
7769.86
7769.42
7769.02
7768.67
7768.35
7768.1
7767.94
7767.83
7767.69
7767.59
7767.46
7767.5
7767.5
7767.49
7767.48
7767.48
7767.6
7767.63
7767.65
7767.7
7767.82
7767.87
7767.89
7767.91
7767.97
7768.02
7768.04
7768.03
7768.01
7768.03
7767.99
7767.93
7767.9
7767.83
7767.71
7767.6
7767.49
7767.36
7767.2
7767.01
7766.82
7766.62
7766.4
7766.16
7765.88
7765.6
7765.33
7765.03
7764.71
7764.34
7764.02
7763.65
7763.25
7762.89
7762.49
7762.08
7761.63
7761.18
7760.78
7760.34
7759.89
7759.42
7758.93
7758.48
7758.02
7757.56
7757.09
7756.62
7756.13
7755.64
7755.19
7754.76
7754.27
7753.8
7753.38
7752.95
7752.52
7752.07
7751.65
7751.29
7750.91
7750.51
7750.14
7749.82
7749.49
7749.17
7748.87
7748.61
7748.37
7748.11
7747.93
7747.74
7747.58
7747.44
7747.34
7747.28
7747.21
7747.17
7747.19
7747.23
7747.3
7747.38
7747.5
7747.67
7747.85
7748.04
7748.27
7748.55
7748.86
7749.17
7749.51
7749.89
7750.3
7750.73
7751.18
7751.64
7752.14
7752.67
7753.23
7753.79
7754.37
7754.99
7755.62
7756.26
7756.93
7757.62
7758.31
7759.02
7759.75
7760.5
7761.25
7762.02
7762.8
7763.59
7764.38
7765.18
7765.99
7766.81
7767.64
7768.47
7769.3
7770.13
7770.97
7771.81
7772.65
7773.49
7774.32
7775.16
7776
7776.84
7777.67
7778.5
7779.31
7780.14
7780.95
7781.75
7782.56
7783.37
7784.16
7784.94
7785.72
7786.49
7787.25
7788.01
7788.76
7789.5
7790.23
7790.95
7791.68
7792.39
7793.09
7793.78
7794.47
7795.14
7795.81
7796.47
7797.13
7797.77
7798.41
7799.03
7799.65
7800.27
7800.87
7801.47
7802.06
7802.64
7803.21
7803.78
7804.34
7804.89
7805.43
7805.96
7806.49
7807.02
7807.53
7808.04
7808.54
7809.03
7809.52
7810
7810.47
7810.94
7811.4
7811.86
7812.31
7812.75
7813.18
7813.61
7814.04
7814.46
7814.87
7815.28
7815.68
7816.08
7816.47
7816.85
7817.23
7817.61
7817.98
7818.35
7818.71
7819.07
7819.42
7819.77
7820.11
7820.45
7820.78
7821.11
7821.44
7821.76
7822.08
7822.39
7822.7
7823.01
7823.31
7823.61
7823.9
7824.19
7824.48
7824.76
7825.04
7825.32
7825.59
7825.86
7826.12
7826.39
7826.65
7826.9
7827.15
7827.4
7827.65
7827.89
7828.13
7828.36
7828.6
7828.83
7829.05
7829.28
7829.49
7829.71
7829.92
7830.14
7830.34
7830.55
7830.75
7830.95
7831.14
7831.33
7831.52
7831.71
7831.89
7832.07
7832.25
7832.42
7832.59
7832.76
7832.93
7833.09
7833.25
7833.41
7833.56
7833.71
7833.86
7834.01
7834.15
7834.29
7834.43
7834.56
7834.7
7834.83
7834.96
7835.08
7835.21
7835.33
7835.44
7835.56
7835.67
7835.79
7835.89
7836
7836.11
7836.21
7836.31
7836.41
7836.5
7836.6
7836.69
7836.78
7836.87
7836.95
7837.04
7837.12
7837.2
7837.28
7837.36
7837.43
7837.5
7837.57
7837.64
7837.71
7837.78
7837.84
7837.91
7837.97
7838.03
7838.09
7838.14
7838.2
7838.25
7838.31
7838.36
7838.41
7838.46
7838.5
7838.55
7838.59
7838.64
7838.68
7838.72
7838.76
7838.8
7838.84
7838.87
7838.91
7838.95
7838.98
7839.01
7839.05
7839.08
7839.11
7839.14
7839.17
7839.19
7839.22
7839.25
7839.27
7839.3
7839.32
7839.34
7839.37
7839.39
7839.41
7839.43
7839.45
7839.47
7839.48
7839.5
7839.52
7839.54
7839.56
7839.57
7839.58
7839.6
7839.62
7839.63
7839.64
7839.65
7839.66
7839.67
7839.68
7839.69
7839.7
7839.7
7839.71
7839.72
7839.73
7839.74
7839.75
7839.76
7839.77
7839.77
7839.78
7839.79
7839.8
7839.81
7839.82
7839.82
7839.83
7839.84
7839.85
7839.85
7839.86
7839.87
7839.88
7839.88
7839.89
7839.9
7839.9
7839.91
7839.92
7839.92
7839.93
7839.94
7839.94
7839.95
7839.95
7839.96
7839.97
7839.97
7839.98
7839.98
7839.99
7839.99
7840
7840
7840.01
7840.01
7840.01
7840.02
7840.02
7840.03
7840.03
7840.04
7840.04
7840.04
7840.05
7840.05
7840.05
7840.06
7840.06
7840.06
7840.06
7840.07
7840.07
7840.07
7840.08
7840.08
7840.08
7840.08
7840.08
7840.09
7840.09
7840.09
7840.09
7840.09
7840.09
7840.1
7840.1
7840.1
8216.23
8204.66
8194.01
8185.59
8177.24
8168.48
8159.71
8150.99
8142.28
8133.6
8124.97
8116.38
8107.84
8099.35
8090.91
8082.54
8074.24
8066.01
8057.84
8049.75
8041.73
8033.8
8025.97
8018.22
8010.56
8003
7995.53
7988.16
7980.9
7973.75
7966.72
7959.81
7953.04
7946.4
7939.88
7933.48
7927.21
7921.06
7915.04
7909.14
7903.36
7897.72
7892.21
7886.84
7881.6
7876.51
7871.55
7866.72
7862
7857.44
7853.12
7848.86
7844.72
7840.72
7836.86
7833.11
7829.46
7825.94
7822.64
7819.48
7816.33
7813.18
7810.2
7807.76
7805.24
7802.64
7800.17
7798.07
7796.03
7793.95
7791.86
7789.98
7788.26
7786.78
7785.32
7783.87
7782.49
7781.16
7779.74
7778.54
7777.45
7776.47
7775.64
7774.74
7773.73
7772.9
7772.26
7771.66
7770.96
7770.24
7769.67
7769.08
7768.66
7768.48
7768.26
7767.94
7767.66
7767.45
7767.32
7767.31
7767.26
7767.17
7767.17
7767.22
7767.16
7767.21
7767.34
7767.46
7767.51
7767.51
7767.6
7767.71
7767.84
7767.89
7767.9
7767.95
7768
7768.1
7768.11
7768.07
7768.06
7768.05
7768.08
7768.03
7767.92
7767.85
7767.76
7767.62
7767.48
7767.33
7767.19
7767.01
7766.79
7766.54
7766.3
7766.09
7765.82
7765.5
7765.16
7764.84
7764.51
7764.19
7763.83
7763.42
7763
7762.6
7762.18
7761.79
7761.35
7760.89
7760.4
7759.94
7759.5
7758.99
7758.52
7758.06
7757.61
7757.14
7756.62
7756.14
7755.69
7755.18
7754.7
7754.24
7753.79
7753.35
7752.88
7752.44
7752.01
7751.6
7751.18
7750.78
7750.44
7750.03
7749.67
7749.34
7749.04
7748.76
7748.45
7748.19
7747.95
7747.75
7747.54
7747.38
7747.27
7747.17
7747.06
7747
7746.97
7746.98
7747.01
7747.07
7747.16
7747.29
7747.47
7747.65
7747.83
7748.07
7748.33
7748.63
7748.98
7749.3
7749.68
7750.08
7750.51
7750.97
7751.45
7751.98
7752.51
7753.03
7753.61
7754.2
7754.81
7755.45
7756.1
7756.79
7757.46
7758.17
7758.88
7759.62
7760.38
7761.13
7761.9
7762.68
7763.48
7764.29
7765.09
7765.91
7766.73
7767.56
7768.39
7769.23
7770.07
7770.91
7771.77
7772.6
7773.45
7774.29
7775.13
7775.97
7776.83
7777.65
7778.48
7779.31
7780.13
7780.94
7781.76
7782.57
7783.38
7784.16
7784.95
7785.73
7786.5
7787.27
7788.02
7788.77
7789.52
7790.25
7790.98
7791.7
7792.41
7793.12
7793.81
7794.49
7795.17
7795.85
7796.5
7797.16
7797.8
7798.44
7799.06
7799.69
7800.3
7800.91
7801.5
7802.09
7802.67
7803.24
7803.81
7804.37
7804.92
7805.46
7806
7806.52
7807.05
7807.56
7808.07
7808.57
7809.06
7809.55
7810.03
7810.5
7810.97
7811.43
7811.89
7812.33
7812.78
7813.21
7813.64
7814.07
7814.49
7814.9
7815.31
7815.71
7816.1
7816.49
7816.88
7817.26
7817.64
7818.01
7818.37
7818.74
7819.09
7819.44
7819.79
7820.13
7820.47
7820.81
7821.14
7821.46
7821.78
7822.1
7822.42
7822.73
7823.03
7823.33
7823.63
7823.92
7824.22
7824.5
7824.79
7825.07
7825.34
7825.61
7825.88
7826.15
7826.41
7826.67
7826.93
7827.18
7827.43
7827.67
7827.91
7828.15
7828.39
7828.62
7828.85
7829.08
7829.3
7829.52
7829.74
7829.95
7830.16
7830.37
7830.57
7830.77
7830.97
7831.17
7831.36
7831.55
7831.73
7831.92
7832.1
7832.27
7832.45
7832.62
7832.79
7832.95
7833.11
7833.27
7833.43
7833.58
7833.74
7833.88
7834.03
7834.17
7834.31
7834.45
7834.59
7834.72
7834.85
7834.98
7835.1
7835.23
7835.35
7835.47
7835.58
7835.7
7835.81
7835.92
7836.02
7836.13
7836.23
7836.33
7836.43
7836.52
7836.62
7836.71
7836.8
7836.89
7836.97
7837.06
7837.14
7837.22
7837.3
7837.37
7837.45
7837.52
7837.59
7837.66
7837.73
7837.79
7837.86
7837.92
7837.98
7838.04
7838.1
7838.16
7838.21
7838.27
7838.32
7838.37
7838.42
7838.47
7838.51
7838.56
7838.6
7838.65
7838.69
7838.73
7838.77
7838.81
7838.85
7838.88
7838.92
7838.96
7838.99
7839.02
7839.05
7839.09
7839.12
7839.14
7839.17
7839.2
7839.23
7839.25
7839.28
7839.3
7839.33
7839.35
7839.37
7839.39
7839.42
7839.44
7839.45
7839.47
7839.5
7839.51
7839.52
7839.53
7839.54
7839.55
7839.56
7839.58
7839.59
7839.6
7839.61
7839.63
7839.64
7839.65
7839.66
7839.67
7839.68
7839.69
7839.7
7839.71
7839.72
7839.73
7839.74
7839.75
7839.76
7839.77
7839.78
7839.79
7839.8
7839.81
7839.81
7839.82
7839.83
7839.84
7839.85
7839.85
7839.86
7839.87
7839.88
7839.88
7839.89
7839.9
7839.9
7839.91
7839.92
7839.92
7839.93
7839.94
7839.94
7839.95
7839.95
7839.96
7839.97
7839.97
7839.98
7839.98
7839.99
7839.99
7840
7840
7840.01
7840.01
7840.01
7840.02
7840.02
7840.03
7840.03
7840.04
7840.04
7840.04
7840.05
7840.05
7840.05
7840.06
7840.06
7840.06
7840.06
7840.07
7840.07
7840.07
7840.08
7840.08
7840.08
7840.08
7840.08
7840.09
7840.09
7840.09
7840.09
7840.09
7840.1
7840.1
7840.1
7840.1
8216.12
8204.43
8193.69
8185.21
8176.79
8167.95
8159.12
8150.34
8141.58
8132.86
8124.19
8115.56
8106.98
8098.45
8089.98
8081.58
8073.25
8064.98
8056.77
8048.63
8040.57
8032.59
8024.72
8016.92
8009.22
8001.61
7994.11
7986.71
7979.42
7972.24
7965.17
7958.2
7951.36
7944.65
7938.07
7931.63
7925.32
7919.14
7913.08
7907.16
7901.39
7895.74
7890.21
7884.83
7879.62
7874.56
7869.56
7864.67
7860
7855.6
7851.28
7847.02
7842.89
7838.94
7835.13
7831.43
7827.85
7824.38
7821.11
7817.92
7814.81
7811.79
7808.98
7806.36
7803.8
7801.35
7799
7796.79
7794.7
7792.7
7790.79
7788.94
7787.17
7785.63
7784.17
7782.75
7781.41
7780.09
7778.78
7777.67
7776.73
7775.73
7774.73
7773.73
7772.85
7772.22
7771.56
7770.93
7770.33
7769.79
7769.29
7768.77
7768.32
7767.94
7767.51
7767.33
7767.25
7767.14
7766.98
7766.85
7766.84
7766.89
7766.93
7766.95
7766.96
7767.07
7767.2
7767.3
7767.36
7767.4
7767.59
7767.72
7767.8
7767.84
7767.89
7768.03
7768.11
7768.13
7768.16
7768.2
7768.23
7768.2
7768.19
7768.16
7768.13
7768.03
7767.93
7767.83
7767.73
7767.56
7767.39
7767.21
7767.04
7766.81
7766.55
7766.31
7766.06
7765.75
7765.43
7765.1
7764.78
7764.43
7764.04
7763.62
7763.22
7762.81
7762.4
7761.96
7761.49
7761.03
7760.58
7760.1
7759.61
7759.13
7758.65
7758.17
7757.69
7757.17
7756.66
7756.19
7755.71
7755.21
7754.72
7754.25
7753.78
7753.3
7752.82
7752.39
7751.97
7751.53
7751.1
7750.7
7750.31
7749.92
7749.56
7749.22
7748.9
7748.58
7748.29
7748.02
7747.78
7747.56
7747.37
7747.2
7747.06
7746.94
7746.85
7746.79
7746.77
7746.76
7746.79
7746.86
7746.94
7747.06
7747.2
7747.4
7747.61
7747.84
7748.11
7748.41
7748.73
7749.08
7749.46
7749.87
7750.3
7750.77
7751.25
7751.76
7752.29
7752.85
7753.42
7754.02
7754.65
7755.29
7755.94
7756.61
7757.3
7758.02
7758.75
7759.5
7760.24
7761
7761.79
7762.59
7763.39
7764.2
7765.01
7765.83
7766.66
7767.48
7768.33
7769.19
7770.03
7770.88
7771.73
7772.58
7773.43
7774.27
7775.12
7775.97
7776.8
7777.64
7778.48
7779.32
7780.14
7780.97
7781.79
7782.6
7783.39
7784.19
7784.98
7785.76
7786.53
7787.3
7788.07
7788.82
7789.56
7790.3
7791.03
7791.75
7792.46
7793.16
7793.86
7794.55
7795.22
7795.89
7796.55
7797.21
7797.85
7798.49
7799.12
7799.74
7800.35
7800.96
7801.55
7802.14
7802.72
7803.3
7803.86
7804.42
7804.97
7805.51
7806.05
7806.58
7807.1
7807.61
7808.12
7808.62
7809.11
7809.6
7810.08
7810.55
7811.02
7811.48
7811.93
7812.38
7812.82
7813.26
7813.69
7814.11
7814.53
7814.94
7815.35
7815.75
7816.15
7816.54
7816.92
7817.3
7817.68
7818.05
7818.42
7818.78
7819.13
7819.48
7819.83
7820.17
7820.51
7820.85
7821.18
7821.5
7821.82
7822.14
7822.45
7822.76
7823.07
7823.37
7823.67
7823.96
7824.25
7824.54
7824.82
7825.1
7825.38
7825.65
7825.92
7826.18
7826.45
7826.71
7826.96
7827.21
7827.46
7827.71
7827.95
7828.19
7828.42
7828.66
7828.89
7829.11
7829.34
7829.55
7829.77
7829.98
7830.2
7830.4
7830.61
7830.81
7831.01
7831.2
7831.39
7831.58
7831.77
7831.95
7832.13
7832.31
7832.48
7832.65
7832.82
7832.98
7833.15
7833.31
7833.46
7833.62
7833.77
7833.92
7834.06
7834.2
7834.35
7834.48
7834.62
7834.75
7834.88
7835.01
7835.13
7835.26
7835.38
7835.49
7835.61
7835.72
7835.83
7835.94
7836.05
7836.15
7836.25
7836.35
7836.45
7836.55
7836.64
7836.73
7836.82
7836.91
7837
7837.08
7837.16
7837.24
7837.32
7837.39
7837.47
7837.54
7837.61
7837.68
7837.75
7837.81
7837.88
7837.94
7838
7838.06
7838.12
7838.17
7838.23
7838.28
7838.33
7838.38
7838.43
7838.48
7838.53
7838.57
7838.62
7838.66
7838.7
7838.74
7838.78
7838.82
7838.86
7838.9
7838.93
7838.97
7839
7839.03
7839.07
7839.1
7839.13
7839.16
7839.18
7839.21
7839.24
7839.26
7839.29
7839.31
7839.34
7839.36
7839.38
7839.4
7839.43
7839.45
7839.46
7839.48
7839.49
7839.51
7839.52
7839.54
7839.55
7839.57
7839.58
7839.59
7839.61
7839.62
7839.63
7839.64
7839.65
7839.66
7839.67
7839.68
7839.69
7839.7
7839.71
7839.72
7839.73
7839.74
7839.75
7839.76
7839.77
7839.78
7839.78
7839.79
7839.8
7839.81
7839.82
7839.83
7839.83
7839.84
7839.85
7839.86
7839.86
7839.87
7839.88
7839.89
7839.89
7839.9
7839.91
7839.91
7839.92
7839.93
7839.93
7839.94
7839.94
7839.95
7839.96
7839.96
7839.97
7839.97
7839.98
7839.98
7839.99
7839.99
7840
7840
7840.01
7840.01
7840.02
7840.02
7840.03
7840.03
7840.03
7840.04
7840.04
7840.04
7840.05
7840.05
7840.05
7840.06
7840.06
7840.06
7840.07
7840.07
7840.07
7840.08
7840.08
7840.08
7840.08
7840.08
7840.09
7840.09
7840.09
7840.09
7840.09
7840.1
7840.1
7840.1
7840.1
7840.1
8215.96
8204.12
8193.27
8184.7
8176.19
8167.28
8158.38
8149.54
8140.72
8131.94
8123.2
8114.51
8105.88
8097.3
8088.78
8080.31
8071.9
8063.56
8055.3
8047.11
8039
8030.98
8023.05
8015.19
8007.41
7999.73
7992.18
7984.77
7977.47
7970.28
7963.19
7956.18
7949.22
7942.41
7935.78
7929.35
7923.07
7916.74
7910.35
7904.21
7898.85
7893.39
7887.55
7881.9
7877.14
7872.3
7867.12
7862.01
7857.36
7853.19
7848.92
7844.59
7840.55
7836.74
7832.93
7829.2
7825.69
7822.44
7819.18
7815.99
7812.91
7809.99
7807.16
7804.38
7801.87
7799.58
7797.28
7795.08
7792.92
7791.03
7789.21
7787.39
7785.61
7783.98
7782.66
7781.33
7780.03
7778.73
7777.46
7776.53
7775.54
7774.58
7773.54
7772.65
7772.08
7771.38
7770.72
7769.99
7769.36
7768.93
7768.57
7768.2
7767.83
7767.47
7767.15
7766.89
7766.71
7766.45
7766.41
7766.4
7766.47
7766.52
7766.52
7766.64
7766.75
7766.84
7766.93
7767.1
7767.23
7767.37
7767.47
7767.65
7767.78
7767.85
7767.95
7768.12
7768.22
7768.25
7768.26
7768.38
7768.42
7768.43
7768.4
7768.36
7768.34
7768.29
7768.21
7768.1
7767.97
7767.83
7767.66
7767.48
7767.31
7767.08
7766.85
7766.6
7766.33
7766.05
7765.73
7765.4
7765.03
7764.7
7764.31
7763.92
7763.5
7763.07
7762.63
7762.16
7761.66
7761.26
7760.78
7760.29
7759.74
7759.31
7758.81
7758.31
7757.79
7757.23
7756.77
7756.27
7755.76
7755.27
7754.77
7754.27
7753.78
7753.29
7752.8
7752.36
7751.9
7751.45
7751.03
7750.61
7750.2
7749.81
7749.42
7749.08
7748.74
7748.42
7748.11
7747.81
7747.58
7747.36
7747.14
7746.98
7746.83
7746.71
7746.59
7746.53
7746.51
7746.51
7746.53
7746.59
7746.68
7746.78
7746.9
7747.12
7747.34
7747.58
7747.84
7748.14
7748.45
7748.82
7749.21
7749.61
7750.02
7750.52
7751.01
7751.52
7752.05
7752.62
7753.21
7753.79
7754.44
7755.09
7755.76
7756.44
7757.13
7757.83
7758.6
7759.35
7760.11
7760.88
7761.64
7762.47
7763.28
7764.1
7764.92
7765.74
7766.59
7767.43
7768.26
7769.12
7769.99
7770.84
7771.7
7772.55
7773.41
7774.25
7775.12
7775.97
7776.82
7777.64
7778.51
7779.34
7780.17
7780.98
7781.82
7782.63
7783.43
7784.22
7785.03
7785.81
7786.59
7787.36
7788.12
7788.88
7789.62
7790.35
7791.09
7791.81
7792.52
7793.22
7793.91
7794.6
7795.28
7795.96
7796.62
7797.27
7797.92
7798.55
7799.18
7799.8
7800.42
7801.02
7801.62
7802.21
7802.79
7803.36
7803.93
7804.48
7805.03
7805.58
7806.11
7806.64
7807.16
7807.67
7808.18
7808.68
7809.17
7809.66
7810.14
7810.61
7811.08
7811.54
7811.99
7812.44
7812.88
7813.32
7813.74
7814.17
7814.59
7815
7815.41
7815.81
7816.2
7816.59
7816.98
7817.36
7817.73
7818.1
7818.47
7818.83
7819.18
7819.53
7819.88
7820.22
7820.56
7820.89
7821.22
7821.55
7821.87
7822.19
7822.5
7822.81
7823.11
7823.42
7823.71
7824.01
7824.3
7824.58
7824.87
7825.15
7825.42
7825.69
7825.96
7826.23
7826.49
7826.75
7827
7827.26
7827.51
7827.75
7827.99
7828.23
7828.47
7828.7
7828.93
7829.16
7829.38
7829.6
7829.81
7830.03
7830.24
7830.44
7830.65
7830.85
7831.05
7831.24
7831.43
7831.62
7831.81
7831.99
7832.17
7832.35
7832.52
7832.69
7832.86
7833.02
7833.19
7833.35
7833.5
7833.66
7833.81
7833.95
7834.1
7834.24
7834.38
7834.52
7834.65
7834.79
7834.92
7835.04
7835.17
7835.29
7835.41
7835.53
7835.64
7835.76
7835.87
7835.97
7836.08
7836.18
7836.29
7836.39
7836.48
7836.58
7836.67