/*--------------------------------*- C++ -*----------------------------------*\
| =========                 |                                                 |
| \\      /  F ield         | OpenFOAM: The Open Source CFD Toolbox           |
|  \\    /   O peration     | Version:  v2006                                 |
|   \\  /    A nd           | Website:  www.openfoam.com                      |
|    \\/     M anipulation  |                                                 |
\*---------------------------------------------------------------------------*/
FoamFile
{
    version     2.0;
    format      ascii;
    class       surfaceScalarField;
    location    "2.3";
    object      phi;
}
// * * * * * * * * * * * * * * * * * * * * * * * * * * * * * * * * * * * * * //

dimensions      [0 3 -1 0 0 0 0];
oriented        oriented;


internalField   nonuniform List<scalar> 
65390
(
5.42015e-05
1.17935e-06
5.29382e-05
1.25694e-06
5.15883e-05
1.34438e-06
5.02618e-05
1.32355e-06
4.88529e-05
1.40781e-06
4.74343e-05
1.42069e-06
4.60098e-05
1.43098e-06
4.46022e-05
1.41514e-06
4.32176e-05
1.3937e-06
4.18315e-05
1.39796e-06
4.04176e-05
1.42582e-06
3.89924e-05
1.43589e-06
3.75664e-05
1.43708e-06
3.61645e-05
1.41306e-06
3.48357e-05
1.33791e-06
3.35416e-05
1.30143e-06
3.22367e-05
1.31135e-06
3.08616e-05
1.38006e-06
2.93773e-05
1.48729e-06
2.7889e-05
1.48961e-06
2.66187e-05
1.27043e-06
2.5486e-05
1.13137e-06
2.42979e-05
1.18513e-06
2.29288e-05
1.36468e-06
2.15219e-05
1.40177e-06
2.02572e-05
1.25872e-06
1.91548e-05
1.09548e-06
1.80439e-05
1.103e-06
1.67039e-05
1.3317e-06
1.544e-05
1.25539e-06
1.44395e-05
9.9173e-07
1.34667e-05
9.63846e-07
1.23728e-05
1.08478e-06
1.11686e-05
1.19541e-06
9.99084e-06
1.17004e-06
9.1472e-06
8.37079e-07
8.36047e-06
7.81171e-07
7.4064e-06
9.48984e-07
6.37367e-06
1.02738e-06
5.33082e-06
1.03659e-06
4.37338e-06
9.4984e-07
3.73245e-06
6.31979e-07
3.13803e-06
5.84453e-07
2.326e-06
8.01699e-07
1.47409e-06
8.4194e-07
7.8426e-07
6.80917e-07
2.1943e-07
5.57416e-07
-3.95254e-07
6.08999e-07
-1.07634e-06
6.77142e-07
-1.65547e-06
5.76787e-07
-2.10216e-06
4.45673e-07
-2.51181e-06
4.09555e-07
-2.99946e-06
4.88082e-07
-3.4581e-06
4.59221e-07
-3.84405e-06
3.86444e-07
-4.17939e-06
3.35708e-07
-4.61548e-06
4.36427e-07
-5.09395e-06
4.78981e-07
-5.53192e-06
4.38839e-07
-5.83362e-06
3.02998e-07
-6.03747e-06
2.05523e-07
-6.30544e-06
2.69881e-07
-6.69719e-06
3.93686e-07
-7.00626e-06
3.10859e-07
-7.18296e-06
1.78164e-07
-7.23524e-06
5.33937e-08
-7.28847e-06
5.39002e-08
-7.42061e-06
1.32296e-07
-7.47982e-06
5.88422e-08
-7.48472e-06
4.05026e-09
-7.51146e-06
2.54598e-08
-7.47516e-06
-3.80409e-08
-7.31206e-06
-1.65186e-07
-6.94044e-06
-3.73903e-07
-6.61748e-06
-3.25386e-07
-6.08683e-06
-5.33072e-07
-5.33987e-06
-7.49272e-07
-4.48269e-06
-8.59512e-07
-3.7012e-06
-7.82907e-07
-3.34903e-06
-3.5201e-07
-3.20022e-06
-1.4904e-07
-3.24539e-06
4.46072e-08
-3.32037e-06
7.5086e-08
-3.35649e-06
3.5462e-08
-3.41334e-06
5.64131e-08
-3.36034e-06
-5.33052e-08
-3.3027e-06
-5.82229e-08
-3.28609e-06
-1.71352e-08
-3.28324e-06
-3.27998e-09
-3.27564e-06
-8.03157e-09
-3.22128e-06
-5.46943e-08
-3.14312e-06
-7.86131e-08
-3.04932e-06
-9.43343e-08
-2.96772e-06
-8.21015e-08
-2.85667e-06
-1.11462e-07
-2.70772e-06
-1.49333e-07
-2.47414e-06
-2.34017e-07
-2.19944e-06
-2.75162e-07
-1.87311e-06
-3.26777e-07
-1.60952e-06
-2.63977e-07
-1.46961e-06
-1.40259e-07
-1.3938e-06
-7.61086e-08
-1.35941e-06
-3.4631e-08
-1.29001e-06
-6.9507e-08
-1.2489e-06
-4.11042e-08
-1.21073e-06
-3.81168e-08
-1.13961e-06
-7.10222e-08
-1.05202e-06
-8.73788e-08
-9.79729e-07
-7.2042e-08
-9.19134e-07
-6.03852e-08
-8.50815e-07
-6.81554e-08
-7.84146e-07
-6.65413e-08
-6.97306e-07
-8.68045e-08
-5.90533e-07
-1.06879e-07
-4.40525e-07
-1.50188e-07
-2.57985e-07
-1.8271e-07
-2.20803e-08
-2.36061e-07
1.64234e-07
-1.86482e-07
2.63783e-07
-9.97149e-08
3.29296e-07
-6.56403e-08
3.47816e-07
-1.86609e-08
3.78271e-07
-3.07015e-08
3.6782e-07
1.00977e-08
3.62311e-07
5.10204e-09
3.7945e-07
-1.7593e-08
3.95582e-07
-1.66666e-08
4.14939e-07
-1.99598e-08
4.19806e-07
-5.49151e-09
4.13568e-07
5.5943e-09
4.16267e-07
-3.38306e-09
4.28162e-07
-1.26164e-08
4.23731e-07
3.6852e-09
4.13664e-07
9.29311e-09
4.02276e-07
1.05905e-08
3.96929e-07
4.55188e-09
3.90221e-07
5.93716e-09
3.6687e-07
2.26096e-08
3.42405e-07
2.37494e-08
3.18599e-07
2.31231e-08
2.99053e-07
1.88928e-08
2.63462e-07
3.49516e-08
2.26752e-07
3.6077e-08
1.90059e-07
3.6071e-08
1.50564e-07
3.88868e-08
1.04209e-07
4.57568e-08
5.77799e-08
4.58389e-08
1.3791e-08
4.3415e-08
-3.07177e-08
4.39592e-08
-8.65939e-08
5.53515e-08
-1.42564e-07
5.54653e-08
-2.00846e-07
5.77944e-08
-2.61508e-07
6.01929e-08
-3.14013e-07
5.20513e-08
-3.66504e-07
5.20498e-08
-4.30784e-07
6.38496e-08
-4.98367e-07
6.71635e-08
-5.63541e-07
6.47707e-08
-6.23535e-07
5.96103e-08
-6.85515e-07
6.16261e-08
-7.55977e-07
7.01416e-08
-8.27444e-07
7.11837e-08
-8.94855e-07
6.71661e-08
-9.59738e-07
6.46738e-08
-1.03184e-06
7.1926e-08
-1.10713e-06
7.51458e-08
-1.18028e-06
7.30326e-08
-1.24951e-06
6.91356e-08
-1.32251e-06
7.29262e-08
-1.39917e-06
7.66047e-08
-1.47677e-06
7.75719e-08
-1.55091e-06
7.41239e-08
-1.62152e-06
7.06065e-08
-1.69698e-06
7.54706e-08
-1.77489e-06
7.79473e-08
-1.85063e-06
7.57809e-08
-1.92456e-06
7.39779e-08
-1.99722e-06
7.27068e-08
-2.07166e-06
7.4484e-08
-2.14568e-06
7.40542e-08
-2.21927e-06
7.3611e-08
-2.29249e-06
7.32304e-08
-2.36359e-06
7.10798e-08
-2.43415e-06
7.05239e-08
-2.50538e-06
7.11614e-08
-2.57539e-06
6.99269e-08
-2.64325e-06
6.77368e-08
-2.70825e-06
6.48673e-08
-2.77496e-06
6.65621e-08
-2.841e-06
6.58721e-08
-2.90551e-06
6.43395e-08
-2.96619e-06
6.05133e-08
-3.02736e-06
6.101e-08
-3.08753e-06
6.00155e-08
-3.14565e-06
5.79889e-08
-3.20207e-06
5.62908e-08
-3.2564e-06
5.42296e-08
-3.30982e-06
5.3338e-08
-3.36179e-06
5.18991e-08
-3.41135e-06
4.95057e-08
-3.45794e-06
4.65561e-08
-3.50402e-06
4.60595e-08
-3.5485e-06
4.44804e-08
-3.59154e-06
4.3044e-08
-3.63209e-06
4.05694e-08
-3.67078e-06
3.8712e-08
-3.70634e-06
3.55823e-08
-3.73993e-06
3.36252e-08
-3.77402e-06
3.41254e-08
-3.8051e-06
3.11226e-08
-3.83382e-06
2.87627e-08
-3.85962e-06
2.5832e-08
-3.88522e-06
2.5643e-08
-3.90827e-06
2.30722e-08
-3.92921e-06
2.09731e-08
-3.94797e-06
1.87899e-08
-3.96408e-06
1.61535e-08
-3.97954e-06
1.55036e-08
-3.99287e-06
1.33881e-08
-4.00425e-06
1.14504e-08
-4.01419e-06
1.00145e-08
-4.02127e-06
7.16872e-09
-4.02511e-06
3.924e-09
-4.02876e-06
3.73691e-09
-4.03068e-06
2.00771e-09
-4.03114e-06
5.29437e-10
-4.02942e-06
-1.65358e-09
-4.02592e-06
-3.44343e-09
-4.02055e-06
-5.3138e-09
-4.01263e-06
-7.86426e-09
-4.00399e-06
-8.58592e-09
-3.99375e-06
-1.01954e-08
-3.98204e-06
-1.16617e-08
-3.96859e-06
-1.33999e-08
-3.95346e-06
-1.50953e-08
-3.9365e-06
-1.69259e-08
-3.91878e-06
-1.76918e-08
-3.89999e-06
-1.87626e-08
-3.87997e-06
-2.00125e-08
-3.85805e-06
-2.19054e-08
-3.83516e-06
-2.2879e-08
-3.81129e-06
-2.38619e-08
-3.78624e-06
-2.50468e-08
-3.76025e-06
-2.59855e-08
-3.73319e-06
-2.70785e-08
-3.70516e-06
-2.80442e-08
-3.67628e-06
-2.8903e-08
-3.64683e-06
-2.94822e-08
-3.61666e-06
-3.02054e-08
-3.5854e-06
-3.12875e-08
-3.55355e-06
-3.18848e-08
-3.52114e-06
-3.24447e-08
-3.48817e-06
-3.30036e-08
-3.45469e-06
-3.35236e-08
-3.4208e-06
-3.39247e-08
-3.38662e-06
-3.42265e-08
-3.352e-06
-3.46633e-08
-3.3167e-06
-3.53519e-08
-3.28094e-06
-3.58117e-08
-3.24522e-06
-3.57697e-08
-3.20918e-06
-3.61004e-08
-3.17289e-06
-3.63553e-08
-3.13634e-06
-3.66189e-08
-3.09978e-06
-3.66357e-08
-3.06316e-06
-3.66946e-08
-3.02646e-06
-3.67728e-08
-2.98968e-06
-3.68453e-08
-2.9528e-06
-3.69356e-08
-2.91588e-06
-3.69708e-08
-2.87895e-06
-3.69866e-08
-2.84201e-06
-3.70079e-08
-2.80518e-06
-3.69092e-08
-2.76852e-06
-3.67352e-08
-2.73207e-06
-3.65229e-08
-2.69578e-06
-3.63581e-08
-2.65963e-06
-3.62165e-08
-2.62361e-06
-3.60911e-08
-2.58776e-06
-3.59117e-08
-2.55212e-06
-3.57094e-08
-2.51671e-06
-3.54748e-08
-2.48156e-06
-3.52182e-08
-2.44667e-06
-3.49586e-08
-2.41202e-06
-3.47075e-08
-2.37762e-06
-3.44621e-08
-2.34342e-06
-3.42573e-08
-2.30945e-06
-3.40273e-08
-2.27574e-06
-3.3776e-08
-2.2423e-06
-3.35109e-08
-2.20913e-06
-3.32413e-08
-2.17622e-06
-3.2984e-08
-2.14357e-06
-3.27251e-08
-2.11119e-06
-3.2449e-08
-2.0791e-06
-3.21585e-08
-2.04733e-06
-3.18411e-08
-2.0159e-06
-3.14932e-08
-1.98483e-06
-3.11399e-08
-1.95411e-06
-3.07789e-08
-1.92377e-06
-3.04064e-08
-1.89381e-06
-3.00251e-08
-1.86422e-06
-2.96464e-08
-1.83502e-06
-2.92675e-08
-1.80619e-06
-2.88842e-08
-1.77776e-06
-2.85023e-08
-1.74969e-06
-2.81269e-08
-1.722e-06
-2.77603e-08
-1.69466e-06
-2.74047e-08
-1.66766e-06
-2.70634e-08
-1.64101e-06
-2.67227e-08
-1.6147e-06
-2.6379e-08
-1.58873e-06
-2.60416e-08
-1.56308e-06
-2.57132e-08
-1.53778e-06
-2.53764e-08
-1.51281e-06
-2.50356e-08
-1.48819e-06
-2.4693e-08
-1.46391e-06
-2.43476e-08
-1.43997e-06
-2.40013e-08
-1.41638e-06
-2.36573e-08
-1.39313e-06
-2.33146e-08
-1.37022e-06
-2.2972e-08
-1.34765e-06
-2.26342e-08
-1.32541e-06
-2.22993e-08
-1.3035e-06
-2.19665e-08
-1.28192e-06
-2.16344e-08
-1.26068e-06
-2.13048e-08
-1.23975e-06
-2.09809e-08
-1.21915e-06
-2.06571e-08
-1.19888e-06
-2.03307e-08
-1.17893e-06
-1.99987e-08
-1.15932e-06
-1.96648e-08
-1.14004e-06
-1.93395e-08
-1.12106e-06
-1.90305e-08
-1.10237e-06
-1.87372e-08
-1.08397e-06
-1.84562e-08
-1.06583e-06
-1.81855e-08
-1.04795e-06
-1.79311e-08
-1.03029e-06
-1.76983e-08
-1.01286e-06
-1.74746e-08
-9.95661e-07
-1.72456e-08
-9.78699e-07
-1.70073e-08
-9.6198e-07
-1.67647e-08
-9.45501e-07
-1.65253e-08
-9.29258e-07
-1.6287e-08
-9.13255e-07
-1.60443e-08
-8.97492e-07
-1.58013e-08
-8.81959e-07
-1.55682e-08
-8.66643e-07
-1.53508e-08
-8.51534e-07
-1.5146e-08
-8.36624e-07
-1.495e-08
-8.21903e-07
-1.47629e-08
-8.0736e-07
-1.45842e-08
-7.92992e-07
-1.44074e-08
-7.78802e-07
-1.42267e-08
-7.64794e-07
-1.40416e-08
-7.50973e-07
-1.38533e-08
-7.37345e-07
-1.36605e-08
-7.23912e-07
-1.34644e-08
-7.10669e-07
-1.32729e-08
-6.97603e-07
-1.30936e-08
-6.84703e-07
-1.29267e-08
-6.71959e-07
-1.27683e-08
-6.59367e-07
-1.26176e-08
-6.46918e-07
-1.24744e-08
-6.34613e-07
-1.23325e-08
-6.22458e-07
-1.21826e-08
-6.10467e-07
-1.20204e-08
-5.98644e-07
-1.18502e-08
-5.86991e-07
-1.16797e-08
-5.75501e-07
-1.15146e-08
-5.64167e-07
-1.13574e-08
-5.5298e-07
-1.12098e-08
-5.41927e-07
-1.10744e-08
-5.30998e-07
-1.09485e-08
-5.20191e-07
-1.08263e-08
-5.0951e-07
-1.07002e-08
-4.98961e-07
-1.05666e-08
-4.88551e-07
-1.04278e-08
-4.78281e-07
-1.02879e-08
-4.68151e-07
-1.01481e-08
-4.58162e-07
-1.00074e-08
-4.48311e-07
-9.86886e-09
-4.3859e-07
-9.73973e-09
-4.28985e-07
-9.622e-09
-4.19494e-07
-9.50793e-09
-4.10123e-07
-9.38673e-09
-4.00885e-07
-9.25289e-09
-3.91793e-07
-9.10698e-09
-3.82854e-07
-8.9539e-09
-3.74068e-07
-8.80262e-09
-3.65423e-07
-8.66097e-09
-3.56907e-07
-8.53152e-09
-3.48512e-07
-8.41059e-09
-3.40233e-07
-8.29321e-09
-3.32073e-07
-8.17243e-09
-3.24043e-07
-8.04157e-09
-3.16155e-07
-7.89939e-09
-3.08416e-07
-7.7496e-09
-3.00827e-07
-7.59896e-09
-2.93383e-07
-7.45466e-09
-2.86067e-07
-7.32466e-09
-2.78864e-07
-7.21271e-09
-2.7176e-07
-7.11248e-09
-2.64759e-07
-7.00944e-09
-2.57874e-07
-6.89373e-09
-2.51115e-07
-6.76784e-09
-2.44483e-07
-6.64119e-09
-2.37976e-07
-6.51554e-09
-2.31593e-07
-6.39254e-09
-2.2532e-07
-6.2818e-09
-2.1915e-07
-6.17903e-09
-2.13088e-07
-6.0716e-09
-2.07146e-07
-5.95169e-09
-2.0133e-07
-5.8256e-09
-1.95638e-07
-5.70325e-09
-1.90055e-07
-5.59424e-09
-1.84571e-07
-5.497e-09
-1.79182e-07
-5.40284e-09
-1.73889e-07
-5.30798e-09
-1.68699e-07
-5.20634e-09
-1.63607e-07
-5.1086e-09
-1.5862e-07
-5.00446e-09
-1.53744e-07
-4.89281e-09
-1.48949e-07
-4.81281e-09
-1.4425e-07
-4.71625e-09
-1.39704e-07
-4.56389e-09
-1.35168e-07
-4.55411e-09
-1.30745e-07
-4.44146e-09
-1.26563e-07
-4.20179e-09
-1.22347e-07
-4.23597e-09
-1.18239e-07
-4.12822e-09
-1.14552e-07
-3.70681e-09
-1.11313e-07
-3.25912e-09
-1.08128e-07
-3.20532e-09
-1.04674e-07
-3.4733e-09
-1.01163e-07
-3.53029e-09
-9.76472e-08
-3.53502e-09
-9.41607e-08
-3.50511e-09
-9.07682e-08
-3.41093e-09
-8.74501e-08
-3.33641e-09
-8.41884e-08
-3.27997e-09
-8.0988e-08
-3.21844e-09
-7.77982e-08
-3.20804e-09
-7.47207e-08
-3.09631e-09
-7.17623e-08
-2.97831e-09
-6.88649e-08
-2.9189e-09
-6.60751e-08
-2.81259e-09
-6.32684e-08
-2.83079e-09
-6.05671e-08
-2.72672e-09
-5.79966e-08
-2.59763e-09
-5.55377e-08
-2.48793e-09
-5.30994e-08
-2.46962e-09
-5.05988e-08
-2.53443e-09
-4.82195e-08
-2.41587e-09
-4.5852e-08
-2.40697e-09
-4.36289e-08
-2.26562e-09
-4.14926e-08
-2.18236e-09
-3.95275e-08
-2.01488e-09
-3.75844e-08
-1.99784e-09
-3.55906e-08
-2.05336e-09
-3.37763e-08
-1.88055e-09
-3.19865e-08
-1.86289e-09
-3.01452e-08
-1.92097e-09
-2.83992e-08
-1.83398e-09
-2.70034e-08
-1.48979e-09
-2.50916e-08
-2.00789e-09
-2.33934e-08
-1.7847e-09
-2.2573e-08
-8.7286e-10
-2.10053e-08
-1.507e-09
-2.07846e-08
7.36695e-11
-2.17709e-08
1.86004e-09
-2.66681e-08
6.27878e-09
-3.10485e-08
6.89644e-09
-3.37405e-08
7.17223e-09
-3.47492e-08
5.10932e-09
-3.52753e-08
4.24737e-09
-3.5467e-08
3.56501e-09
-3.54217e-08
3.01449e-09
-3.52913e-08
2.64882e-09
-3.51426e-08
2.37988e-09
-3.4961e-08
2.12169e-09
-3.47456e-08
1.8846e-09
-3.4513e-08
1.68278e-09
-3.42295e-08
1.46366e-09
-3.38408e-08
1.20426e-09
-3.33767e-08
9.87263e-10
-3.28633e-08
8.07713e-10
-3.23436e-08
6.81487e-10
-3.18187e-08
5.66035e-10
-3.12525e-08
4.23636e-10
-3.0614e-08
2.59087e-10
-2.99065e-08
1.06286e-10
-2.91602e-08
-8.12006e-12
-2.84144e-08
-7.5377e-11
-2.77031e-08
-1.01316e-10
-2.70447e-08
-1.01908e-10
-2.64409e-08
-9.4496e-11
-2.58778e-08
-9.50592e-11
-2.53364e-08
-1.09238e-10
-2.47957e-08
-1.39731e-10
-2.42317e-08
-1.90091e-10
-2.36122e-08
-2.68885e-10
-2.29096e-08
-3.72486e-10
-2.2089e-08
-5.08286e-10
-2.11412e-08
-6.51304e-10
-2.00617e-08
-7.97228e-10
-1.88647e-08
-9.2753e-10
-1.75723e-08
-1.03476e-09
-1.62173e-08
-1.10848e-09
-1.48342e-08
-1.14694e-09
-1.34527e-08
-1.15538e-09
-1.20946e-08
-1.14144e-09
-1.07794e-08
-1.10772e-09
-9.53006e-09
-1.0506e-09
-8.3742e-09
-9.65453e-10
-7.33335e-09
-8.58462e-10
-6.40907e-09
-7.49565e-10
-5.57867e-09
-6.63071e-10
-4.80022e-09
-6.18219e-10
-4.02521e-09
-6.21621e-10
-3.20988e-09
-6.68532e-10
-2.31864e-09
-7.50704e-10
-1.32547e-09
-8.58597e-10
-2.25753e-10
-9.70781e-10
9.34613e-10
-1.03682e-09
2.04658e-09
-9.93664e-10
2.99043e-09
-8.30711e-10
3.73964e-09
-6.41227e-10
4.40083e-09
-5.5829e-10
5.16618e-09
-6.67429e-10
6.14452e-09
-8.85211e-10
7.17804e-09
-9.45004e-10
7.96119e-09
-6.99098e-10
8.29149e-09
-2.5065e-10
8.32531e-09
4.14676e-11
8.48395e-09
-8.76157e-11
9.0478e-09
-4.96877e-10
9.6667e-09
-5.55641e-10
9.93434e-09
-2.07693e-10
9.87174e-09
1.19659e-10
1.00123e-08
-8.59925e-11
1.07409e-08
-6.76177e-10
1.15871e-08
-7.95434e-10
1.21444e-08
-5.08051e-10
1.26865e-08
-4.93882e-10
1.36886e-08
-9.54728e-10
1.49023e-08
-1.16678e-09
1.55858e-08
-6.36888e-10
1.58703e-08
-2.38195e-10
1.63248e-08
-4.09065e-10
1.6417e-08
-4.93601e-11
1.6641e-08
-1.86024e-10
1.24755e-09
5.39875e-05
2.60047e-06
5.27051e-05
2.5511e-06
5.13875e-05
2.66943e-06
4.99601e-05
2.7557e-06
4.85285e-05
2.8427e-06
4.71259e-05
2.82215e-06
4.5735e-05
2.81951e-06
4.43183e-05
2.82718e-06
4.29019e-05
2.80204e-06
4.15006e-05
2.78952e-06
4.0091e-05
2.82465e-06
3.86786e-05
2.83624e-06
3.72801e-05
2.82336e-06
3.59017e-05
2.77978e-06
3.45195e-05
2.7093e-06
3.3125e-05
2.68674e-06
3.1756e-05
2.6731e-06
3.04114e-05
2.7194e-06
2.90555e-05
2.83997e-06
2.77433e-05
2.80068e-06
2.64594e-05
2.55487e-06
2.51869e-05
2.40613e-06
2.38916e-05
2.48431e-06
2.2601e-05
2.66087e-06
2.13836e-05
2.62648e-06
2.01811e-05
2.46982e-06
1.90298e-05
2.25679e-06
1.78169e-05
2.32725e-06
1.65586e-05
2.6027e-06
1.52636e-05
2.56432e-06
1.40944e-05
2.17624e-06
1.31013e-05
1.97372e-06
1.21601e-05
2.04421e-06
1.11809e-05
2.19414e-06
1.01238e-05
2.24732e-06
9.02406e-06
1.95712e-06
8.07795e-06
1.74728e-06
7.21679e-06
1.82964e-06
6.3698e-06
1.89326e-06
5.46434e-06
1.96015e-06
4.52286e-06
1.90843e-06
3.76217e-06
1.40859e-06
3.04727e-06
1.31405e-06
2.36695e-06
1.49556e-06
1.63352e-06
1.58783e-06
8.59674e-07
1.46618e-06
1.38893e-07
1.28852e-06
-5.21749e-07
1.2788e-06
-1.12732e-06
1.29069e-06
-1.70198e-06
1.15825e-06
-2.23367e-06
9.83074e-07
-2.75095e-06
9.31537e-07
-3.24495e-06
9.85817e-07
-3.70055e-06
9.17645e-07
-4.07726e-06
7.65145e-07
-4.4295e-06
6.89183e-07
-4.80528e-06
8.12809e-07
-5.23537e-06
9.09164e-07
-5.64397e-06
8.47092e-07
-5.90738e-06
5.65635e-07
-6.15568e-06
4.52658e-07
-6.46543e-06
5.78127e-07
-6.81615e-06
7.42685e-07
-7.11494e-06
6.07842e-07
-7.26126e-06
3.22843e-07
-7.38803e-06
1.78818e-07
-7.49988e-06
1.64784e-07
-7.55659e-06
1.88452e-07
-7.61342e-06
1.15577e-07
-7.71403e-06
1.05006e-07
-7.76373e-06
7.57904e-08
-7.68825e-06
-1.12568e-07
-7.59306e-06
-2.59232e-07
-7.51166e-06
-4.54145e-07
-7.40278e-06
-4.33177e-07
-7.3087e-06
-6.26202e-07
-7.22432e-06
-8.3296e-07
-7.06485e-06
-1.01895e-06
-6.63875e-06
-1.20973e-06
-5.93512e-06
-1.05678e-06
-5.13788e-06
-9.47544e-07
-4.25682e-06
-8.3765e-07
-3.74582e-06
-4.36612e-07
-3.40806e-06
-3.03112e-07
-3.24009e-06
-1.12625e-07
-3.22883e-06
-6.52602e-08
-3.26651e-06
-2.10258e-08
-3.33867e-06
5.44611e-08
-3.39031e-06
4.77348e-08
-3.32732e-06
-7.18216e-08
-3.23845e-06
-1.44227e-07
-3.17704e-06
-1.40674e-07
-3.1061e-06
-1.6593e-07
-3.03514e-06
-1.53745e-07
-2.95904e-06
-1.88261e-07
-2.869e-06
-2.40038e-07
-2.78229e-06
-3.21432e-07
-2.69656e-06
-3.61589e-07
-2.62412e-06
-3.99886e-07
-2.45336e-06
-4.35397e-07
-2.19081e-06
-4.03423e-07
-1.86211e-06
-4.05299e-07
-1.58142e-06
-3.15701e-07
-1.41046e-06
-2.40741e-07
-1.26227e-06
-1.89441e-07
-1.16788e-06
-1.32485e-07
-1.09001e-06
-1.48745e-07
-1.0276e-06
-1.49599e-07
-9.96211e-07
-1.03233e-07
-9.6076e-07
-9.56902e-08
-8.84035e-07
-1.44806e-07
-8.04399e-07
-1.46191e-07
-7.24203e-07
-1.67101e-07
-6.50337e-07
-1.80907e-07
-5.88523e-07
-2.12165e-07
-5.22028e-07
-2.49342e-07
-4.74045e-07
-2.84158e-07
-3.79345e-07
-2.81294e-07
-2.24901e-07
-2.54291e-07
8.12375e-10
-2.91515e-07
1.99643e-07
-2.17705e-07
2.96808e-07
-1.28168e-07
3.68969e-07
-6.24477e-08
4.09091e-07
-3.54478e-08
4.36476e-07
-4.5446e-08
4.18884e-07
4.00332e-10
4.06481e-07
-8.11667e-09
4.19278e-07
-1.88505e-08
4.27611e-07
-3.31229e-09
4.35014e-07
-1.13908e-08
4.38451e-07
-1.66888e-08
4.32852e-07
8.64084e-09
4.24029e-07
1.74748e-08
4.16165e-07
1.78152e-08
4.07489e-07
1.26088e-08
3.94297e-07
1.85412e-08
3.72621e-07
4.37226e-08
3.52917e-07
4.29031e-08
3.30324e-07
4.51747e-08
3.03101e-07
4.55781e-08
2.67621e-07
6.98796e-08
2.35238e-07
6.78806e-08
2.01117e-07
6.95841e-08
1.58404e-07
8.09698e-08
1.13039e-07
9.04727e-08
7.05497e-08
8.76648e-08
2.65248e-08
8.67677e-08
-2.44428e-08
9.42512e-08
-8.05838e-08
1.10813e-07
-1.32931e-07
1.07126e-07
-1.87344e-07
1.11513e-07
-2.46163e-07
1.18308e-07
-3.02793e-07
1.07967e-07
-3.60746e-07
1.09281e-07
-4.23765e-07
1.26145e-07
-4.88918e-07
1.31602e-07
-5.51948e-07
1.2711e-07
-6.14396e-07
1.21402e-07
-6.80185e-07
1.26804e-07
-7.49545e-07
1.38939e-07
-8.20314e-07
1.41442e-07
-8.88965e-07
1.3536e-07
-9.56353e-07
1.31653e-07
-1.02735e-06
1.42567e-07
-1.10233e-06
1.4981e-07
-1.17665e-06
1.47079e-07
-1.24841e-06
1.40668e-07
-1.32042e-06
1.44749e-07
-1.39623e-06
1.52265e-07
-1.47393e-06
1.55157e-07
-1.54802e-06
1.48131e-07
-1.62042e-06
1.42962e-07
-1.69647e-06
1.51504e-07
-1.77442e-06
1.55915e-07
-1.84839e-06
1.49773e-07
-1.92228e-06
1.47898e-07
-1.99778e-06
1.48245e-07
-2.07204e-06
1.48764e-07
-2.14507e-06
1.47077e-07
-2.21764e-06
1.46147e-07
-2.29053e-06
1.46055e-07
-2.36273e-06
1.43164e-07
-2.43473e-06
1.42375e-07
-2.5061e-06
1.42324e-07
-2.57593e-06
1.39526e-07
-2.64374e-06
1.35275e-07
-2.71012e-06
1.30946e-07
-2.77614e-06
1.32275e-07
-2.8414e-06
1.30807e-07
-2.90555e-06
1.28166e-07
-2.96857e-06
1.23221e-07
-3.03042e-06
1.22568e-07
-3.09061e-06
1.19933e-07
-3.14842e-06
1.15556e-07
-3.20418e-06
1.1185e-07
-3.25875e-06
1.08621e-07
-3.31306e-06
1.07499e-07
-3.3653e-06
1.04029e-07
-3.41472e-06
9.88434e-08
-3.46221e-06
9.39788e-08
-3.5079e-06
9.17082e-08
-3.55226e-06
8.88138e-08
-3.59576e-06
8.653e-08
-3.63587e-06
8.06739e-08
-3.67391e-06
7.67507e-08
-3.70997e-06
7.16572e-08
-3.74521e-06
6.88771e-08
-3.77929e-06
6.82137e-08
-3.80962e-06
6.14594e-08
-3.83816e-06
5.73107e-08
-3.86508e-06
5.2758e-08
-3.89086e-06
5.14212e-08
-3.91349e-06
4.5708e-08
-3.93415e-06
4.16364e-08
-3.95287e-06
3.75179e-08
-3.96948e-06
3.27803e-08
-3.98446e-06
3.05093e-08
-3.99737e-06
2.63182e-08
-4.0085e-06
2.25958e-08
-4.01841e-06
1.99351e-08
-4.02527e-06
1.4041e-08
-4.03039e-06
9.04575e-09
-4.0337e-06
7.04033e-09
-4.03516e-06
3.46504e-09
-4.03566e-06
1.03803e-09
-4.0336e-06
-3.70806e-09
-4.02978e-06
-7.2559e-09
-4.0242e-06
-1.08739e-08
-4.01695e-06
-1.50826e-08
-4.00807e-06
-1.7445e-08
-3.9976e-06
-2.06406e-08
-3.98584e-06
-2.33871e-08
-3.97216e-06
-2.70645e-08
-3.95686e-06
-3.03765e-08
-3.94007e-06
-3.36959e-08
-3.92197e-06
-3.57636e-08
-3.90258e-06
-3.81287e-08
-3.88207e-06
-4.04997e-08
-3.8609e-06
-4.30423e-08
-3.83844e-06
-4.5302e-08
-3.81434e-06
-4.79349e-08
-3.78897e-06
-5.03949e-08
-3.76295e-06
-5.19723e-08
-3.73581e-06
-5.41977e-08
-3.70753e-06
-5.63074e-08
-3.67836e-06
-5.80565e-08
-3.64885e-06
-5.89705e-08
-3.61871e-06
-6.03228e-08
-3.58758e-06
-6.24023e-08
-3.55555e-06
-6.39013e-08
-3.52292e-06
-6.50575e-08
-3.48973e-06
-6.61761e-08
-3.456e-06
-6.7241e-08
-3.42185e-06
-6.80676e-08
-3.3873e-06
-6.87592e-08
-3.35226e-06
-6.97019e-08
-3.31686e-06
-7.07487e-08
-3.2813e-06
-7.13778e-08
-3.24578e-06
-7.13021e-08
-3.20969e-06
-7.21976e-08
-3.17334e-06
-7.27176e-08
-3.13681e-06
-7.31637e-08
-3.10013e-06
-7.3313e-08
-3.06339e-06
-7.34446e-08
-3.02656e-06
-7.36169e-08
-2.98968e-06
-7.3748e-08
-2.95278e-06
-7.38595e-08
-2.91588e-06
-7.38989e-08
-2.87898e-06
-7.39046e-08
-2.84211e-06
-7.38938e-08
-2.80531e-06
-7.37188e-08
-2.7686e-06
-7.34417e-08
-2.73214e-06
-7.29871e-08
-2.69587e-06
-7.26341e-08
-2.65976e-06
-7.23271e-08
-2.62376e-06
-7.21092e-08
-2.58791e-06
-7.17625e-08
-2.55224e-06
-7.13904e-08
-2.51674e-06
-7.09811e-08
-2.48144e-06
-7.052e-08
-2.44639e-06
-7.0013e-08
-2.41162e-06
-6.94755e-08
-2.37712e-06
-6.89592e-08
-2.34286e-06
-6.85179e-08
-2.30886e-06
-6.80314e-08
-2.27511e-06
-6.75176e-08
-2.24164e-06
-6.6981e-08
-2.20844e-06
-6.64333e-08
-2.17552e-06
-6.58894e-08
-2.1429e-06
-6.53342e-08
-2.11058e-06
-6.47527e-08
-2.07856e-06
-6.4153e-08
-2.04686e-06
-6.35172e-08
-2.01548e-06
-6.28421e-08
-1.98444e-06
-6.2153e-08
-1.95375e-06
-6.14432e-08
-1.92341e-06
-6.07096e-08
-1.89344e-06
-5.99641e-08
-1.86383e-06
-5.92201e-08
-1.8346e-06
-5.84723e-08
-1.80573e-06
-5.7721e-08
-1.77723e-06
-5.69752e-08
-1.74909e-06
-5.6235e-08
-1.72132e-06
-5.55072e-08
-1.69391e-06
-5.47957e-08
-1.66685e-06
-5.40993e-08
-1.64015e-06
-5.34047e-08
-1.6138e-06
-5.27095e-08
-1.5878e-06
-5.20212e-08
-1.56215e-06
-5.13422e-08
-1.53685e-06
-5.06557e-08
-1.5119e-06
-4.99664e-08
-1.4873e-06
-4.92763e-08
-1.46304e-06
-4.85837e-08
-1.43913e-06
-4.78902e-08
-1.41556e-06
-4.71999e-08
-1.39233e-06
-4.65128e-08
-1.36945e-06
-4.58283e-08
-1.3469e-06
-4.51518e-08
-1.32469e-06
-4.44812e-08
-1.30281e-06
-4.38143e-08
-1.28127e-06
-4.3147e-08
-1.26006e-06
-4.24801e-08
-1.23919e-06
-4.18204e-08
-1.21864e-06
-4.11662e-08
-1.19842e-06
-4.0517e-08
-1.17852e-06
-3.98681e-08
-1.15893e-06
-3.92207e-08
-1.13965e-06
-3.85865e-08
-1.12067e-06
-3.79789e-08
-1.10197e-06
-3.74008e-08
-1.08354e-06
-3.68462e-08
-1.06538e-06
-3.63069e-08
-1.04749e-06
-3.57879e-08
-1.02985e-06
-3.52989e-08
-1.01246e-06
-3.48289e-08
-9.95307e-07
-3.43579e-08
-9.78398e-07
-3.38743e-08
-9.61735e-07
-3.33846e-08
-9.45312e-07
-3.29047e-08
-9.29121e-07
-3.24369e-08
-9.13155e-07
-3.19722e-08
-8.97411e-07
-3.15098e-08
-8.81884e-07
-3.10599e-08
-8.66565e-07
-3.0631e-08
-8.51451e-07
-3.02194e-08
-8.36537e-07
-2.98193e-08
-8.21821e-07
-2.94329e-08
-8.07299e-07
-2.90619e-08
-7.92966e-07
-2.86982e-08
-7.78819e-07
-2.83334e-08
-7.64856e-07
-2.79676e-08
-7.51071e-07
-2.76028e-08
-7.37461e-07
-2.72351e-08
-7.24026e-07
-2.68644e-08
-7.10761e-07
-2.65013e-08
-6.97663e-07
-2.61564e-08
-6.84726e-07
-2.58281e-08
-6.71951e-07
-2.55085e-08
-6.59339e-07
-2.51949e-08
-6.4689e-07
-2.48902e-08
-6.34601e-07
-2.459e-08
-6.22468e-07
-2.42839e-08
-6.10492e-07
-2.39655e-08
-5.98672e-07
-2.36392e-08
-5.87007e-07
-2.33156e-08
-5.75491e-07
-2.3002e-08
-5.6412e-07
-2.2701e-08
-5.52891e-07
-2.24133e-08
-5.418e-07
-2.21409e-08
-5.30845e-07
-2.18807e-08
-5.20025e-07
-2.16254e-08
-5.0934e-07
-2.13648e-08
-4.98795e-07
-2.10936e-08
-4.8839e-07
-2.08154e-08
-4.78123e-07
-2.05386e-08
-4.67989e-07
-2.0267e-08
-4.57985e-07
-1.99966e-08
-4.48113e-07
-1.97262e-08
-4.38375e-07
-1.94636e-08
-4.28771e-07
-1.92127e-08
-4.19302e-07
-1.8964e-08
-4.09971e-07
-1.87041e-08
-4.00782e-07
-1.84292e-08
-3.91732e-07
-1.81441e-08
-3.82815e-07
-1.78565e-08
-3.74027e-07
-1.75758e-08
-3.65361e-07
-1.731e-08
-3.56817e-07
-1.70569e-08
-3.48399e-07
-1.68096e-08
-3.40112e-07
-1.65597e-08
-3.31964e-07
-1.63004e-08
-3.23959e-07
-1.60281e-08
-3.16093e-07
-1.57466e-08
-3.08362e-07
-1.54634e-08
-3.00759e-07
-1.51849e-08
-2.93279e-07
-1.49181e-08
-2.85919e-07
-1.46679e-08
-2.78681e-07
-1.44347e-08
-2.71567e-07
-1.4211e-08
-2.64578e-07
-1.39828e-08
-2.57715e-07
-1.37419e-08
-2.50972e-07
-1.34958e-08
-2.4434e-07
-1.32581e-08
-2.37816e-07
-1.3025e-08
-2.31406e-07
-1.27875e-08
-2.25118e-07
-1.25559e-08
-2.18957e-07
-1.2328e-08
-2.1292e-07
-1.20971e-08
-2.07002e-07
-1.18593e-08
-2.01196e-07
-1.16215e-08
-1.95496e-07
-1.13946e-08
-1.89896e-07
-1.11856e-08
-1.84398e-07
-1.09877e-08
-1.79e-07
-1.07946e-08
-1.73711e-07
-1.05919e-08
-1.68547e-07
-1.03657e-08
-1.6348e-07
-1.01697e-08
-1.58496e-07
-9.98358e-09
-1.5364e-07
-9.74313e-09
-1.48773e-07
-9.67387e-09
-1.44027e-07
-9.45596e-09
-1.39569e-07
-9.0161e-09
-1.3519e-07
-8.92774e-09
-1.30899e-07
-8.7264e-09
-1.26962e-07
-8.13238e-09
-1.2359e-07
-7.6008e-09
-1.20259e-07
-7.451e-09
-1.16511e-07
-7.44489e-09
-1.12568e-07
-7.19161e-09
-1.08643e-07
-7.11899e-09
-1.04914e-07
-7.18958e-09
-1.01249e-07
-7.18092e-09
-9.76813e-08
-7.08787e-09
-9.41807e-08
-6.98974e-09
-9.07624e-08
-6.81223e-09
-8.74215e-08
-6.65926e-09
-8.41559e-08
-6.52676e-09
-8.09296e-08
-6.42524e-09
-7.77567e-08
-6.36055e-09
-7.47279e-08
-6.10358e-09
-7.1794e-08
-5.88944e-09
-6.89053e-08
-5.78323e-09
-6.61382e-08
-5.55304e-09
-6.35189e-08
-5.42076e-09
-6.09637e-08
-5.24878e-09
-5.83496e-08
-5.17489e-09
-5.5708e-08
-5.088e-09
-5.31175e-08
-5.01348e-09
-5.06467e-08
-4.95338e-09
-4.82574e-08
-4.74777e-09
-4.58729e-08
-4.72808e-09
-4.35602e-08
-4.50833e-09
-4.14319e-08
-4.23398e-09
-3.94217e-08
-3.9406e-09
-3.7512e-08
-3.81542e-09
-3.56551e-08
-3.80724e-09
-3.36587e-08
-3.76375e-09
-3.19877e-08
-3.40878e-09
-2.97355e-08
-4.03335e-09
-2.77719e-08
-3.65192e-09
-2.66717e-08
-2.44596e-09
-2.54916e-08
-3.08509e-09
-2.41051e-08
-3.16844e-09
-2.4682e-08
-5.71911e-10
-3.01075e-08
3.30264e-09
-3.62884e-08
4.58233e-09
-4.02161e-08
2.42208e-09
-4.14502e-08
3.02961e-09
-4.09104e-08
-3.87327e-10
-3.90016e-08
-1.2073e-09
-3.83217e-08
-1.65461e-09
-3.79058e-08
-1.81908e-09
-3.74836e-08
-2.06303e-09
-3.71508e-08
-2.09144e-09
-3.68646e-08
-2.00184e-09
-3.6509e-08
-1.96071e-09
-3.6051e-08
-1.97208e-09
-3.55462e-08
-1.93563e-09
-3.50247e-08
-1.86051e-09
-3.44816e-08
-1.83209e-09
-3.39282e-08
-1.85543e-09
-3.33627e-08
-1.85882e-09
-3.28124e-08
-1.8169e-09
-3.22477e-08
-1.76915e-09
-3.16231e-08
-1.77287e-09
-3.09233e-08
-1.83471e-09
-3.01637e-08
-1.91806e-09
-2.93726e-08
-1.97567e-09
-2.8581e-08
-1.97703e-09
-2.78165e-08
-1.91599e-09
-2.70943e-08
-1.80987e-09
-2.64115e-08
-1.69172e-09
-2.57468e-08
-1.59625e-09
-2.50743e-08
-1.54316e-09
-2.43989e-08
-1.50599e-09
-2.36994e-08
-1.513e-09
-2.29566e-08
-1.5645e-09
-2.21659e-08
-1.65385e-09
-2.13192e-08
-1.78001e-09
-2.04223e-08
-1.93592e-09
-1.94648e-08
-2.11212e-09
-1.84531e-08
-2.28715e-09
-1.73902e-08
-2.44534e-09
-1.62831e-08
-2.57502e-09
-1.51367e-08
-2.66763e-09
-1.39555e-08
-2.72153e-09
-1.27493e-08
-2.73658e-09
-1.15357e-08
-2.71274e-09
-1.03415e-08
-2.64289e-09
-9.1991e-09
-2.5183e-09
-8.13422e-09
-2.34066e-09
-7.15436e-09
-2.13448e-09
-6.24306e-09
-1.94357e-09
-5.37004e-09
-1.80601e-09
-4.50465e-09
-1.74136e-09
-3.63323e-09
-1.73922e-09
-2.752e-09
-1.78493e-09
-1.85035e-09
-1.87709e-09
-9.05332e-10
-2.01846e-09
9.88331e-11
-2.18039e-09
1.14002e-09
-2.27445e-09
2.15255e-09
-2.1939e-09
3.06997e-09
-1.92726e-09
3.88225e-09
-1.62416e-09
4.66459e-09
-1.5029e-09
5.49082e-09
-1.64766e-09
6.32228e-09
-1.86257e-09
7.01635e-09
-1.77707e-09
7.46148e-09
-1.27456e-09
7.7504e-09
-6.62458e-10
8.18628e-09
-5.10165e-10
8.84557e-09
-8.55846e-10
9.48015e-09
-1.23405e-09
9.84589e-09
-1.01814e-09
9.98219e-09
-4.35497e-10
1.03211e-08
-3.06141e-10
1.10321e-08
-8.79824e-10
1.16874e-08
-1.41104e-09
1.2034e-08
-1.21905e-09
1.23608e-08
-9.09915e-10
1.30943e-08
-1.30127e-09
1.37704e-08
-1.70375e-09
1.40028e-08
-1.47126e-09
1.42405e-08
-9.45413e-10
1.46024e-08
-6.69442e-10
1.4892e-08
-7.65851e-10
1.53175e-08
-5.37092e-10
1.60545e-08
-9.75398e-10
1.8802e-09
5.39785e-05
4.01371e-06
5.25569e-05
3.96505e-06
5.11091e-05
4.11467e-06
4.96464e-05
4.21824e-06
4.82368e-05
4.25535e-06
4.68313e-05
4.23358e-06
4.5434e-05
4.22569e-06
4.40309e-05
4.23894e-06
4.26187e-05
4.22327e-06
4.11972e-05
4.22167e-06
3.97775e-05
4.25425e-06
3.83648e-05
4.25702e-06
3.69625e-05
4.23383e-06
3.55667e-05
4.18363e-06
3.41557e-05
4.12683e-06
3.27504e-05
4.09769e-06
3.13552e-05
4.07388e-06
2.99868e-05
4.09305e-06
2.87124e-05
4.11834e-06
2.74767e-05
4.03959e-06
2.61546e-05
3.87983e-06
2.47854e-05
3.7777e-06
2.34687e-05
3.80244e-06
2.22928e-05
3.83725e-06
2.11553e-05
3.76383e-06
2.0003e-05
3.62128e-06
1.87579e-05
3.50025e-06
1.75067e-05
3.57584e-06
1.64025e-05
3.70324e-06
1.52749e-05
3.68735e-06
1.40134e-05
3.43216e-06
1.28891e-05
3.09101e-06
1.19376e-05
2.98676e-06
1.10412e-05
3.0794e-06
1.00931e-05
3.18245e-06
8.99746e-06
3.0393e-06
7.95633e-06
2.77573e-06
7.09924e-06
2.67619e-06
6.31968e-06
2.66519e-06
5.52821e-06
2.74699e-06
4.72615e-06
2.70836e-06
3.83062e-06
2.30379e-06
2.97149e-06
2.17395e-06
2.25775e-06
2.21057e-06
1.57369e-06
2.27316e-06
8.47919e-07
2.19281e-06
8.84473e-08
2.04813e-06
-6.18165e-07
1.98473e-06
-1.23116e-06
1.90232e-06
-1.836e-06
1.7614e-06
-2.44146e-06
1.58694e-06
-2.9931e-06
1.48203e-06
-3.43874e-06
1.43089e-06
-3.87268e-06
1.35145e-06
-4.27488e-06
1.16735e-06
-4.66284e-06
1.0769e-06
-5.03405e-06
1.18318e-06