/*--------------------------------*- C++ -*----------------------------------*\
| =========                 |                                                 |
| \\      /  F ield         | OpenFOAM: The Open Source CFD Toolbox           |
|  \\    /   O peration     | Version:  v2006                                 |
|   \\  /    A nd           | Website:  www.openfoam.com                      |
|    \\/     M anipulation  |                                                 |
\*---------------------------------------------------------------------------*/
FoamFile
{
    version     2.0;
    format      ascii;
    class       volVectorField;
    location    "2.3";
    object      U;
}
// * * * * * * * * * * * * * * * * * * * * * * * * * * * * * * * * * * * * * //

dimensions      [0 1 -1 0 0 0 0];


internalField   nonuniform List<vector> 
33000
(
(0.107977 0 0.00225439)
(0.132866 0 0.00248075)
(0.135716 0 0.00281692)
(0.127596 0 0.00269047)
(0.1232 0 0.00290128)
(0.120322 0 0.00290748)
(0.116844 0 0.00292731)
(0.113261 0 0.00289607)
(0.109771 0 0.00283338)
(0.106317 0 0.00283571)
(0.102818 0 0.00289497)
(0.0992703 0 0.00291609)
(0.0957028 0 0.00292133)
(0.092156 0 0.00287559)
(0.0887444 0 0.00269537)
(0.0854738 0 0.0026103)
(0.0822339 0 0.0026409)
(0.0789038 0 0.00278432)
(0.0753024 0 0.00303184)
(0.0715612 0 0.0030573)
(0.0680626 0 0.00256027)
(0.0651576 0 0.00221372)
(0.0622954 0 0.00233384)
(0.059046 0 0.00277051)
(0.0555356 0 0.00285183)
(0.0521796 0 0.00251716)
(0.0492696 0 0.00216156)
(0.0465651 0 0.00215949)
(0.0434208 0 0.00263629)
(0.0400861 0 0.00245242)
(0.0373258 0 0.00192346)
(0.0349613 0 0.00190566)
(0.0323424 0 0.00227629)
(0.0293875 0 0.00246566)
(0.0263414 0 0.00231086)
(0.0239066 0 0.00152954)
(0.0219915 0 0.00142707)
(0.0197429 0 0.00195625)
(0.0171971 0 0.00214274)
(0.0145704 0 0.00208269)
(0.0120255 0 0.00187136)
(0.0101434 0 0.00122986)
(0.00870642 0 0.00109873)
(0.0068412 0 0.00164471)
(0.00466954 0 0.00172615)
(0.00277472 0 0.00128242)
(0.00132982 0 0.000989654)
(-0.000199277 0 0.00118713)
(-0.00187481 0 0.00136893)
(-0.0034622 0 0.00114283)
(-0.0046818 0 0.000823966)
(-0.0057306 0 0.000732122)
(-0.00688946 0 0.000957993)
(-0.00808397 0 0.000913032)
(-0.00913975 0 0.000766657)
(-0.00999847 0 0.000653304)
(-0.0109719 0 0.000890251)
(-0.012168 0 0.000968016)
(-0.0133242 0 0.000860263)
(-0.0142185 0 0.00063941)
(-0.0147775 0 0.000380962)
(-0.015406 0 0.000499917)
(-0.0162977 0 0.000789361)
(-0.0171647 0 0.000602412)
(-0.017745 0 0.000382986)
(-0.0179889 0 7.61815e-05)
(-0.0181407 0 7.81214e-05)
(-0.0184058 0 0.000299569)
(-0.0186278 0 9.34801e-05)
(-0.0187038 0 -6.56156e-05)
(-0.0187663 0 4.48274e-05)
(-0.0187716 0 -7.48856e-05)
(-0.018503 0 -0.000429336)
(-0.0178384 0 -0.000980968)
(-0.0170022 0 -0.000893397)
(-0.0158278 0 -0.00152563)
(-0.0138325 0 -0.00228997)
(-0.012256 0 -0.0027008)
(-0.0102844 0 -0.00130182)
(-0.00852444 0 0.000435204)
(-0.00805491 0 0.000993709)
(-0.00795755 0 0.00118673)
(-0.00829535 0 0.000107186)
(-0.0082894 0 -0.000391374)
(-0.00850678 0 -0.000354136)
(-0.00854788 0 -0.00025054)
(-0.00826676 0 -2.16394e-05)
(-0.00823323 0 0.00016669)
(-0.00820077 0 0.000215892)
(-0.00821763 0 8.32479e-05)
(-0.00815201 0 -0.0001177)
(-0.0079585 0 -0.000205888)
(-0.00775056 0 -0.000209824)
(-0.00750273 0 -0.00016173)
(-0.00732985 0 -0.0002408)
(-0.0069515 0 -0.000364808)
(-0.00658788 0 -0.000627374)
(-0.00577163 0 -0.00073967)
(-0.00524357 0 -0.000958707)
(-0.0041256 0 -0.000533465)
(-0.00389349 0 8.49542e-06)
(-0.0034689 0 0.000311805)
(-0.00349898 0 0.000247167)
(-0.00329363 0 -0.000192439)
(-0.00315513 0 -0.000240684)
(-0.0030914 0 -0.000240279)
(-0.0029597 0 -0.000140675)
(-0.00273538 0 -0.00016798)
(-0.00252579 0 -5.28594e-05)
(-0.00237318 0 -5.55946e-05)
(-0.00222147 0 -0.000112624)
(-0.0020312 0 -0.000138297)
(-0.00189092 0 -0.000209388)
(-0.00159125 0 -0.000252417)
(-0.00136408 0 -0.00039656)
(-0.000834945 0 -0.000473931)
(-0.000456034 0 -0.000711705)
(0.000343292 0 -0.000421789)
(0.00048213 0 -4.79918e-05)
(0.000837712 0 0.000221455)
(0.00080613 0 0.000244695)
(0.000934712 0 -5.6729e-05)
(0.000955383 0 -7.87224e-05)
(0.000884627 0 -0.000103482)
(0.000927591 0 -2.80334e-05)
(0.00096888 0 -1.22156e-05)
(0.00101199 0 4.427e-06)
(0.00105909 0 -6.81352e-07)
(0.00104183 0 1.40792e-05)
(0.00102466 0 -2.49607e-05)
(0.00106041 0 -2.98694e-05)
(0.00107618 0 1.06526e-05)
(0.00104456 0 2.9912e-05)
(0.00102218 0 2.49388e-05)
(0.000990521 0 8.91731e-06)
(0.000995383 0 3.08444e-06)
(0.000951708 0 3.95196e-05)
(0.000886254 0 4.57839e-05)
(0.000821987 0 4.42233e-05)
(0.000776187 0 3.0861e-05)
(0.000712881 0 6.70976e-05)
(0.000608265 0 7.33185e-05)
(0.000523009 0 7.27212e-05)
(0.000429005 0 7.39681e-05)
(0.000321282 0 8.86334e-05)
(0.000201193 0 9.2997e-05)
(8.643e-05 0 8.64303e-05)
(-1.55716e-05 0 8.25252e-05)
(-0.000141751 0 0.00010846)
(-0.000289359 0 0.000111782)
(-0.000424673 0 0.000116294)
(-0.000580567 0 0.000119036)
(-0.000725583 0 0.000101013)
(-0.000844321 0 0.000100514)
(-0.000990998 0 0.000125834)
(-0.00116259 0 0.000133039)
(-0.00132986 0 0.000129508)
(-0.00148691 0 0.000116776)
(-0.00163107 0 0.000118723)
(-0.00179867 0 0.000137904)
(-0.00198091 0 0.00014082)
(-0.00215664 0 0.000132389)
(-0.0023162 0 0.000125929)
(-0.0024852 0 0.000142296)
(-0.00267397 0 0.000148007)
(-0.00286219 0 0.000142545)
(-0.00303785 0 0.000134411)
(-0.00321165 0 0.000144364)
(-0.00340127 0 0.000151251)
(-0.00359538 0 0.000152129)
(-0.00378828 0 0.000145761)
(-0.00396522 0 0.000138105)
(-0.00414461 0 0.000148051)
(-0.0043408 0 0.000152884)
(-0.00453346 0 0.000150024)
(-0.00472013 0 0.000145529)
(-0.00490219 0 0.000141043)
(-0.00508552 0 0.000146797)
(-0.00527264 0 0.000146282)
(-0.00545621 0 0.000145291)
(-0.00564075 0 0.000144451)
(-0.00582135 0 0.000138994)
(-0.00599692 0 0.000137241)
(-0.00617475 0 0.000139367)
(-0.00635198 0 0.000137834)
(-0.00652546 0 0.000133314)
(-0.00668956 0 0.000126446)
(-0.00685352 0 0.000131262)
(-0.00702073 0 0.000130394)
(-0.00718519 0 0.000126894)
(-0.0073408 0 0.00011711)
(-0.00749149 0 0.000119026)
(-0.00764506 0 0.000117834)
(-0.00779245 0 0.000114558)
(-0.00793592 0 0.000110942)
(-0.00807396 0 0.000106197)
(-0.00820835 0 0.000104009)
(-0.00834065 0 0.000101886)
(-0.00846824 0 9.73411e-05)
(-0.00858756 0 9.08808e-05)
(-0.0087029 0 9.07715e-05)
(-0.00881665 0 8.75942e-05)
(-0.00892615 0 8.40732e-05)
(-0.00903085 0 8.00499e-05)
(-0.00912982 0 7.64078e-05)
(-0.00922338 0 6.97998e-05)
(-0.0093077 0 6.49676e-05)
(-0.0093931 0 6.66515e-05)
(-0.0094757 0 6.17542e-05)
(-0.00955014 0 5.64617e-05)
(-0.00961758 0 5.00089e-05)
(-0.0096816 0 5.00309e-05)
(-0.00974348 0 4.55761e-05)
(-0.00979772 0 4.13567e-05)
(-0.00984812 0 3.68367e-05)
(-0.00989078 0 3.1417e-05)
(-0.00993012 0 3.068e-05)
(-0.00996689 0 2.65501e-05)
(-0.00999715 0 2.25963e-05)
(-0.010024 0 1.94334e-05)
(-0.0100465 0 1.42455e-05)
(-0.0100587 0 6.86468e-06)
(-0.0100676 0 7.51613e-06)
(-0.0100754 0 4.20444e-06)
(-0.0100781 0 6.46437e-07)
(-0.0100769 0 -3.09146e-06)
(-0.01007 0 -6.60606e-06)
(-0.0100594 0 -1.04053e-05)
(-0.0100423 0 -1.59219e-05)
(-0.0100213 0 -1.68113e-05)
(-0.00999811 0 -1.99907e-05)
(-0.00997052 0 -2.30875e-05)
(-0.00993922 0 -2.62985e-05)
(-0.00990355 0 -2.96319e-05)
(-0.0098631 0 -3.34161e-05)
(-0.00981955 0 -3.4528e-05)
(-0.00977406 0 -3.64955e-05)
(-0.00972588 0 -3.90062e-05)
(-0.00967332 0 -4.35378e-05)
(-0.00961691 0 -4.55012e-05)
(-0.00955871 0 -4.69976e-05)
(-0.00949746 0 -4.91727e-05)
(-0.00943363 0 -5.12244e-05)
(-0.00936738 0 -5.31775e-05)
(-0.00929841 0 -5.50124e-05)
(-0.0092272 0 -5.66498e-05)
(-0.0091542 0 -5.79414e-05)
(-0.00907989 0 -5.95516e-05)
(-0.00900306 0 -6.16721e-05)
(-0.00892396 0 -6.26158e-05)
(-0.00884369 0 -6.36781e-05)
(-0.00876194 0 -6.47878e-05)
(-0.00867884 0 -6.57824e-05)
(-0.00859455 0 -6.65458e-05)
(-0.00850945 0 -6.70797e-05)
(-0.00842362 0 -6.785e-05)
(-0.00833622 0 -6.94071e-05)
(-0.00824711 0 -7.04818e-05)
(-0.00815778 0 -7.04872e-05)
(-0.00806818 0 -7.0971e-05)
(-0.00797772 0 -7.14794e-05)
(-0.0078866 0 -7.20216e-05)
(-0.00779516 0 -7.19805e-05)
(-0.00770372 0 -7.20845e-05)
(-0.00761206 0 -7.22275e-05)
(-0.00752022 0 -7.23593e-05)
(-0.00742813 0 -7.25695e-05)
(-0.00733586 0 -7.26657e-05)
(-0.00724356 0 -7.27113e-05)
(-0.00715119 0 -7.27674e-05)
(-0.00705891 0 -7.25615e-05)
(-0.00696701 0 -7.21741e-05)
(-0.00687563 0 -7.18152e-05)
(-0.00678474 0 -7.15337e-05)
(-0.0066942 0 -7.12652e-05)
(-0.00660397 0 -7.09866e-05)
(-0.0065141 0 -7.06301e-05)
(-0.00642473 0 -7.02084e-05)
(-0.00633591 0 -6.96938e-05)
(-0.0062477 0 -6.91378e-05)
(-0.00616014 0 -6.86042e-05)
(-0.00607322 0 -6.81227e-05)
(-0.00598692 0 -6.76656e-05)
(-0.00590117 0 -6.72922e-05)
(-0.00581595 0 -6.68609e-05)
(-0.00573135 0 -6.63716e-05)
(-0.0056474 0 -6.585e-05)
(-0.00556414 0 -6.532e-05)
(-0.00548154 0 -6.48268e-05)
(-0.00539958 0 -6.43389e-05)
(-0.00531828 0 -6.38158e-05)
(-0.00523769 0 -6.32582e-05)
(-0.00515784 0 -6.26364e-05)
(-0.00507884 0 -6.19435e-05)
(-0.00500071 0 -6.12384e-05)
(-0.00492346 0 -6.05173e-05)
(-0.00484713 0 -5.97757e-05)
(-0.00477175 0 -5.90168e-05)
(-0.00469732 0 -5.82648e-05)
(-0.00462383 0 -5.75152e-05)
(-0.00455129 0 -5.67532e-05)
(-0.00447972 0 -5.59895e-05)
(-0.0044091 0 -5.52423e-05)
(-0.00433941 0 -5.45159e-05)
(-0.00427062 0 -5.38153e-05)
(-0.00420271 0 -5.31522e-05)
(-0.00413564 0 -5.24912e-05)
(-0.00406944 0 -5.18217e-05)
(-0.00400409 0 -5.11689e-05)
(-0.00393957 0 -5.05388e-05)
(-0.00387588 0 -4.98865e-05)
(-0.00381304 0 -4.9223e-05)
(-0.00375105 0 -4.85537e-05)
(-0.00368991 0 -4.78762e-05)
(-0.00362964 0 -4.71969e-05)
(-0.00357024 0 -4.65231e-05)
(-0.00351168 0 -4.58519e-05)
(-0.00345399 0 -4.51783e-05)
(-0.00339713 0 -4.45132e-05)
(-0.00334112 0 -4.38523e-05)
(-0.00328594 0 -4.3197e-05)
(-0.00323159 0 -4.25474e-05)
(-0.00317806 0 -4.19096e-05)
(-0.00312535 0 -4.12871e-05)
(-0.00307344 0 -4.06578e-05)
(-0.00302234 0 -4.00129e-05)
(-0.00297206 0 -3.93477e-05)
(-0.00292262 0 -3.86778e-05)
(-0.00287401 0 -3.80302e-05)
(-0.00282619 0 -3.74183e-05)
(-0.00277911 0 -3.68342e-05)
(-0.00273276 0 -3.62713e-05)
(-0.00268708 0 -3.57337e-05)
(-0.00264207 0 -3.52408e-05)
(-0.00259766 0 -3.48016e-05)
(-0.00255381 0 -3.43788e-05)
(-0.00251051 0 -3.39377e-05)
(-0.0024678 0 -3.34744e-05)
(-0.0024257 0 -3.30047e-05)
(-0.00238421 0 -3.25401e-05)
(-0.00234331 0 -3.20697e-05)
(-0.002303 0 -3.15795e-05)
(-0.00226329 0 -3.10853e-05)
(-0.00222418 0 -3.06161e-05)
(-0.00218562 0 -3.01841e-05)
(-0.0021476 0 -2.97799e-05)
(-0.00211008 0 -2.93955e-05)
(-0.00207305 0 -2.90335e-05)
(-0.00203647 0 -2.86929e-05)
(-0.00200033 0 -2.83568e-05)
(-0.00196463 0 -2.80093e-05)
(-0.00192938 0 -2.76471e-05)
(-0.00189459 0 -2.72713e-05)
(-0.00186028 0 -2.68796e-05)
(-0.00182645 0 -2.64776e-05)
(-0.00179311 0 -2.6085e-05)
(-0.00176024 0 -2.57204e-05)
(-0.00172779 0 -2.53849e-05)
(-0.00169573 0 -2.50724e-05)
(-0.00166407 0 -2.47848e-05)
(-0.00163277 0 -2.45204e-05)
(-0.00160183 0 -2.42584e-05)
(-0.00157125 0 -2.39721e-05)
(-0.00154106 0 -2.36507e-05)
(-0.00151129 0 -2.33073e-05)
(-0.00148194 0 -2.29626e-05)
(-0.00145302 0 -2.26287e-05)
(-0.0014245 0 -2.23101e-05)
(-0.00139635 0 -2.2012e-05)
(-0.00136856 0 -2.17436e-05)
(-0.00134108 0 -2.15017e-05)
(-0.00131392 0 -2.12712e-05)
(-0.00128705 0 -2.10322e-05)
(-0.00126051 0 -2.07755e-05)
(-0.00123431 0 -2.05055e-05)
(-0.00120846 0 -2.02306e-05)
(-0.00118296 0 -1.99523e-05)
(-0.00115781 0 -1.96689e-05)
(-0.00113301 0 -1.939e-05)
(-0.00110856 0 -1.91359e-05)
(-0.0010844 0 -1.89128e-05)
(-0.00106053 0 -1.87041e-05)
(-0.00103695 0 -1.84837e-05)
(-0.00101368 0 -1.82334e-05)
(-0.000990757 0 -1.79472e-05)
(-0.000968217 0 -1.76335e-05)
(-0.000946065 0 -1.73164e-05)
(-0.000924284 0 -1.70186e-05)
(-0.000902841 0 -1.67524e-05)
(-0.000881706 0 -1.65126e-05)
(-0.000860863 0 -1.62901e-05)
(-0.00084031 0 -1.60672e-05)
(-0.000820065 0 -1.58236e-05)
(-0.000800161 0 -1.55503e-05)
(-0.000780625 0 -1.52509e-05)
(-0.000761467 0 -1.49399e-05)
(-0.000742681 0 -1.46362e-05)
(-0.000724242 0 -1.43665e-05)
(-0.000706104 0 -1.41485e-05)
(-0.000688223 0 -1.39667e-05)
(-0.000670587 0 -1.3782e-05)
(-0.000653221 0 -1.35655e-05)
(-0.000636162 0 -1.33205e-05)
(-0.000619426 0 -1.30634e-05)
(-0.000603 0 -1.28016e-05)
(-0.000586893 0 -1.25468e-05)
(-0.000571082 0 -1.23328e-05)
(-0.00055553 0 -1.21486e-05)
(-0.000540233 0 -1.19521e-05)
(-0.000525219 0 -1.17232e-05)
(-0.000510521 0 -1.1465e-05)
(-0.000496142 0 -1.12172e-05)
(-0.000482057 0 -1.0989e-05)
(-0.000468231 0 -1.08028e-05)
(-0.000454635 0 -1.06132e-05)
(-0.000441284 0 -1.04387e-05)
(-0.000428176 0 -1.02339e-05)
(-0.000415326 0 -1.00472e-05)
(-0.000402715 0 -9.85061e-06)
(-0.000390402 0 -9.68403e-06)
(-0.000378326 0 -9.53573e-06)
(-0.000366405 0 -9.26919e-06)
(-0.000354897 0 -8.87302e-06)
(-0.000343577 0 -8.65615e-06)
(-0.000332257 0 -8.63081e-06)
(-0.000321578 0 -8.57982e-06)
(-0.000311199 0 -9.31835e-06)
(-0.000300426 0 -8.7304e-06)
(-0.000291215 0 -7.15076e-06)
(-0.000280828 0 -5.72133e-06)
(-0.000275786 0 -5.78609e-06)
(-0.000265555 0 -6.62402e-06)
(-0.000257482 0 -6.86043e-06)
(-0.000248453 0 -6.92587e-06)
(-0.000239727 0 -6.90113e-06)
(-0.000231094 0 -6.71196e-06)
(-0.000222746 0 -6.57344e-06)
(-0.000214505 0 -6.47236e-06)
(-0.000206444 0 -6.35644e-06)
(-0.000198491 0 -6.34881e-06)
(-0.000190513 0 -6.09549e-06)
(-0.000183088 0 -5.77837e-06)
(-0.000175718 0 -5.71113e-06)
(-0.000168641 0 -5.62022e-06)
(-0.000161722 0 -5.83201e-06)
(-0.000154601 0 -5.52457e-06)
(-0.000148336 0 -5.05512e-06)
(-0.000141485 0 -4.69865e-06)
(-0.000136229 0 -4.71866e-06)
(-0.000129396 0 -5.05052e-06)
(-0.000123557 0 -4.82382e-06)
(-0.000117547 0 -4.75188e-06)
(-0.000111735 0 -4.46146e-06)
(-0.000106393 0 -4.1823e-06)
(-0.000101103 0 -3.81619e-06)
(-9.65332e-05 0 -3.77606e-06)
(-9.13831e-05 0 -4.12388e-06)
(-8.65654e-05 0 -3.73189e-06)
(-8.23637e-05 0 -4.07343e-06)
(-7.7563e-05 0 -4.21217e-06)
(-7.30705e-05 0 -3.30286e-06)
(-6.92057e-05 0 -2.44406e-06)
(-6.54112e-05 0 -2.16054e-06)
(-6.01318e-05 0 -2.74084e-06)
(-5.72747e-05 0 -1.87357e-06)
(-5.51331e-05 0 -6.98752e-06)
(-5.02664e-05 0 -3.1205e-06)
(-5.54325e-05 0 2.36384e-06)
(-4.89277e-05 0 1.01039e-05)
(-8.55786e-05 0 1.94514e-05)
(-8.00105e-05 0 2.02662e-05)
(-8.56255e-05 0 1.41521e-05)
(-8.75378e-05 0 1.17853e-05)
(-8.84231e-05 0 9.91168e-06)
(-8.86037e-05 0 8.52535e-06)
(-8.83791e-05 0 7.54903e-06)
(-8.80336e-05 0 6.89737e-06)
(-8.7626e-05 0 6.34165e-06)
(-8.71301e-05 0 5.75018e-06)
(-8.65722e-05 0 5.15872e-06)
(-8.59382e-05 0 4.54823e-06)
(-8.51032e-05 0 3.87176e-06)
(-8.40291e-05 0 3.19285e-06)
(-8.28011e-05 0 2.67098e-06)
(-8.15083e-05 0 2.31278e-06)
(-8.02039e-05 0 2.00916e-06)
(-7.88455e-05 0 1.679e-06)
(-7.7346e-05 0 1.32948e-06)
(-7.56587e-05 0 1.01159e-06)
(-7.38332e-05 0 7.59617e-07)
(-7.19659e-05 0 5.88148e-07)
(-7.01408e-05 0 4.85609e-07)
(-6.84273e-05 0 4.31484e-07)
(-6.68508e-05 0 4.04289e-07)
(-6.53936e-05 0 3.82622e-07)
(-6.40163e-05 0 3.62272e-07)
(-6.26665e-05 0 3.2648e-07)
(-6.1289e-05 0 2.63167e-07)
(-5.9815e-05 0 1.44765e-07)
(-5.81694e-05 0 -5.1169e-08)
(-5.62782e-05 0 -3.48123e-07)
(-5.4097e-05 0 -7.38252e-07)
(-5.15612e-05 0 -1.1614e-06)
(-4.86873e-05 0 -1.57682e-06)
(-4.55628e-05 0 -1.90736e-06)
(-4.22433e-05 0 -2.12094e-06)
(-3.88164e-05 0 -2.22081e-06)
(-3.53588e-05 0 -2.23402e-06)
(-3.19315e-05 0 -2.19091e-06)
(-2.85854e-05 0 -2.11004e-06)
(-2.5374e-05 0 -1.98782e-06)
(-2.23568e-05 0 -1.81004e-06)
(-1.96044e-05 0 -1.57443e-06)
(-1.71528e-05 0 -1.31803e-06)
(-1.49714e-05 0 -1.09469e-06)
(-1.2971e-05 0 -9.59212e-07)
(-1.10356e-05 0 -9.51827e-07)
(-9.0576e-06 0 -1.07063e-06)
(-6.93845e-06 0 -1.29005e-06)
(-4.58281e-06 0 -1.57183e-06)
(-1.95257e-06 0 -1.85805e-06)
(8.84325e-07 0 -2.02963e-06)
(3.73661e-06 0 -1.94284e-06)
(6.32571e-06 0 -1.56076e-06)
(8.43139e-06 0 -1.07489e-06)
(1.0169e-05 0 -7.9744e-07)
(1.19296e-05 0 -1.03113e-06)
(1.41158e-05 0 -1.64885e-06)
(1.6673e-05 0 -1.96573e-06)
(1.89975e-05 0 -1.54448e-06)
(2.04049e-05 0 -4.28404e-07)
(2.07832e-05 0 4.3521e-07)
(2.0939e-05 0 4.14838e-07)
(2.18509e-05 0 -5.25089e-07)
(2.3426e-05 0 -1.02406e-06)
(2.45908e-05 0 -4.57916e-07)
(2.47872e-05 0 5.07869e-07)
(2.47175e-05 0 4.42518e-07)
(2.58007e-05 0 -9.92712e-07)
(2.79531e-05 0 -1.71546e-06)
(2.97305e-05 0 -1.072e-06)
(3.09518e-05 0 -5.86759e-07)
(3.28422e-05 0 -1.8347e-06)
(3.58086e-05 0 -2.95676e-06)
(3.82664e-05 0 -1.61525e-06)
(3.93369e-05 0 -1.96342e-07)
(4.04262e-05 0 -6.54204e-07)
(3.90762e-05 0 2.11896e-07)
(4.81474e-05 0 3.52036e-07)
(3.00407e-05 0 2.5931e-06)
(0.107332 0 0.00723159)
(0.132427 0 0.0072782)
(0.135144 0 0.00775747)
(0.126907 0 0.0078823)
(0.12246 0 0.00830108)
(0.119527 0 0.00826685)
(0.116103 0 0.00828494)
(0.112566 0 0.00826934)
(0.109032 0 0.00816746)
(0.105507 0 0.00814879)
(0.101994 0 0.00828121)
(0.0984649 0 0.00833156)
(0.0949503 0 0.00831666)
(0.0914765 0 0.00819061)
(0.0880232 0 0.00788201)
(0.0845533 0 0.0077662)
(0.0810913 0 0.00777303)
(0.0777122 0 0.00800973)
(0.0743429 0 0.00849226)
(0.071003 0 0.00845975)
(0.0677385 0 0.00747776)
(0.0645584 0 0.00686986)
(0.0613338 0 0.00714839)
(0.0581171 0 0.00793533)
(0.054987 0 0.00797178)
(0.0519584 0 0.00732396)
(0.0490017 0 0.00653573)
(0.0460783 0 0.00669961)
(0.0430025 0 0.00777132)
(0.0397568 0 0.00749982)
(0.0365592 0 0.00608611)
(0.0340054 0 0.00576257)
(0.0316129 0 0.00621416)
(0.0292326 0 0.00679152)
(0.0266515 0 0.00676267)
(0.0238259 0 0.00534489)
(0.0213656 0 0.00490496)
(0.0191164 0 0.00553785)
(0.0170585 0 0.00588276)
(0.0147917 0 0.00594672)
(0.0124263 0 0.0056337)
(0.0103174 0 0.00390387)
(0.00853261 0 0.00361869)
(0.00681048 0 0.00459964)
(0.00501253 0 0.00482986)
(0.00307751 0 0.0041467)
(0.00124793 0 0.00352627)
(-0.000511193 0 0.00368123)
(-0.00203909 0 0.00390274)
(-0.00354506 0 0.00339342)
(-0.00491445 0 0.00271898)
(-0.00623957 0 0.00258299)
(-0.00749804 0 0.00291493)
(-0.00867407 0 0.00270594)
(-0.0097358 0 0.0022591)
(-0.0106122 0 0.00200874)
(-0.0115259 0 0.00246972)
(-0.0125696 0 0.00278037)
(-0.0136226 0 0.00260781)
(-0.0144482 0 0.00171616)
(-0.0150298 0 0.00121633)
(-0.0157663 0 0.00161996)
(-0.0166454 0 0.00228292)
(-0.0174337 0 0.00186937)
(-0.0179734 0 0.000974576)
(-0.0182951 0 0.000350263)
(-0.0186098 0 0.000371163)
(-0.0188124 0 0.000700649)
(-0.018947 0 0.000379695)
(-0.0191931 0 0.000196516)
(-0.0193684 0 0.000188112)
(-0.0192919 0 -0.000338174)
(-0.0190733 0 -0.000960697)
(-0.018892 0 -0.00181332)
(-0.0185853 0 -0.00172109)
(-0.0183139 0 -0.00277337)
(-0.0182899 0 -0.00372334)
(-0.0181627 0 -0.0043452)
(-0.0169575 0 -0.00499248)
(-0.0154292 0 -0.00287228)
(-0.0140804 0 -0.00171965)
(-0.011785 0 -0.000716504)
(-0.00973432 0 0.000423757)
(-0.00883207 0 0.000655561)
(-0.00819929 0 0.000830655)
(-0.00805153 0 -0.000117662)
(-0.0080807 0 -0.000400859)
(-0.00824433 0 -0.00030402)
(-0.00846545 0 -0.000274203)
(-0.00846234 0 -0.000166745)
(-0.00818464 0 -0.000317012)
(-0.00800166 0 -0.000404552)
(-0.00788008 0 -0.000529122)
(-0.00765707 0 -0.000488738)
(-0.0075115 0 -0.000636805)
(-0.00728477 0 -0.000810925)
(-0.00705911 0 -0.0012071)
(-0.00685061 0 -0.00141827)
(-0.00662938 0 -0.00159555)
(-0.00649755 0 -0.00153244)
(-0.00575171 0 -0.00111434)
(-0.0052247 0 -0.000932742)
(-0.00408297 0 -0.000536942)
(-0.00380059 0 -0.000351911)
(-0.00326228 0 -7.27954e-05)
(-0.00304592 0 -5.05166e-05)
(-0.00279778 0 -0.000418682)
(-0.00264539 0 -0.000517772)
(-0.0024959 0 -0.000518632)
(-0.00248394 0 -0.00042168)
(-0.00231798 0 -0.000425826)
(-0.00210182 0 -0.00038681)
(-0.00191898 0 -0.0004731)
(-0.00170343 0 -0.000589515)
(-0.00154547 0 -0.000783588)
(-0.00139941 0 -0.000965163)
(-0.00120595 0 -0.00114472)
(-0.0011697 0 -0.00104654)
(-0.000720012 0 -0.000734282)
(-0.000410072 0 -0.000739729)
(0.000417596 0 -0.000391977)
(0.000581065 0 -0.000183882)
(0.000901577 0 0.000160346)
(0.000945503 0 0.000144132)
(0.00109803 0 -0.000112335)
(0.00108547 0 -0.000118539)
(0.00100766 0 -0.000162576)
(0.00102721 0 -4.25286e-05)
(0.00106696 0 2.78317e-05)
(0.00107301 0 -3.48009e-07)
(0.00110062 0 -6.91383e-05)
(0.00109266 0 1.84537e-05)
(0.00107058 0 4.17063e-05)
(0.00105037 0 5.84738e-05)
(0.0010298 0 2.70532e-05)
(0.00100873 0 4.5224e-05)
(0.000960107 0 0.000139201)
(0.00090568 0 0.000141033)
(0.000856887 0 0.000137988)
(0.000796372 0 0.000119327)
(0.000716215 0 0.000208369)
(0.000624102 0 0.000209784)
(0.000551171 0 0.000210583)
(0.000453777 0 0.000232499)
(0.000337702 0 0.000271613)
(0.000228175 0 0.000266626)
(0.000124175 0 0.000254583)
(7.94141e-06 0 0.000263875)
(-0.000131806 0 0.000326818)
(-0.00026963 0 0.000323238)
(-0.00039591 0 0.000337042)
(-0.00054196 0 0.000353652)
(-0.000688058 0 0.000308294)
(-0.000826687 0 0.00030846)
(-0.000977919 0 0.000375553)
(-0.00114146 0 0.000394069)
(-0.00130282 0 0.00037857)
(-0.00145704 0 0.000351424)
(-0.00161591 0 0.000366082)
(-0.00178551 0 0.000413006)
(-0.00196285 0 0.000418069)
(-0.00213842 0 0.000395118)
(-0.00230629 0 0.000382224)
(-0.00247658 0 0.000422542)
(-0.00266106 0 0.000442181)
(-0.00285055 0 0.000431748)
(-0.00303262 0 0.000409144)
(-0.00320978 0 0.000428303)
(-0.00339323 0 0.000450267)
(-0.00358891 0 0.000457431)
(-0.00378014 0 0.000436846)
(-0.00395994 0 0.000416871)
(-0.00414337 0 0.000445114)
(-0.00434008 0 0.000459652)
(-0.00453099 0 0.000444993)
(-0.00471174 0 0.000435783)
(-0.00490046 0 0.000431093)
(-0.00508844 0 0.00043828)
(-0.00527213 0 0.000435149)
(-0.00545339 0 0.000432645)
(-0.00563554 0 0.000430416)
(-0.00581715 0 0.00041979)
(-0.00599707 0 0.000417381)
(-0.00617685 0 0.000419709)
(-0.00635377 0 0.000411016)
(-0.00652587 0 0.000398379)
(-0.00669287 0 0.000383438)
(-0.00685818 0 0.000391245)
(-0.00702267 0 0.000386264)
(-0.00718447 0 0.000378103)
(-0.00734336 0 0.000358865)
(-0.00749954 0 0.000360422)
(-0.00765265 0 0.000353405)
(-0.00780011 0 0.000340501)
(-0.00794185 0 0.000330849)
(-0.00807892 0 0.000319834)
(-0.00821533 0 0.000315289)
(-0.0083497 0 0.000305824)
(-0.0084763 0 0.000291354)
(-0.00859721 0 0.000275101)
(-0.00871374 0 0.000270839)
(-0.00882552 0 0.000261661)
(-0.00893634 0 0.00025435)
(-0.0090413 0 0.00023843)
(-0.00913819 0 0.000227304)
(-0.00923089 0 0.000209774)
(-0.00931901 0 0.000199675)
(-0.00940736 0 0.000201539)
(-0.00948789 0 0.000182256)
(-0.00956042 0 0.000169234)
(-0.00962981 0 0.000153222)
(-0.00969613 0 0.00015156)
(-0.00975702 0 0.000135289)
(-0.00981043 0 0.000123144)
(-0.00986 0 0.000110618)
(-0.00990387 0 9.55414e-05)
(-0.00994341 0 9.08905e-05)
(-0.00997849 0 7.83881e-05)
(-0.0100079 0 6.71321e-05)
(-0.0100348 0 5.92248e-05)
(-0.0100562 0 4.16596e-05)
(-0.0100702 0 2.41188e-05)
(-0.0100814 0 2.15631e-05)
(-0.0100866 0 1.12589e-05)
(-0.0100895 0 3.5431e-06)
(-0.0100879 0 -1.01428e-05)
(-0.01008 0 -2.08027e-05)
(-0.0100684 0 -3.16411e-05)
(-0.0100523 0 -4.56874e-05)
(-0.0100322 0 -5.08772e-05)
(-0.0100078 0 -6.03318e-05)
(-0.00998015 0 -6.85754e-05)
(-0.00994851 0 -7.92518e-05)
(-0.00991208 0 -8.92176e-05)
(-0.00987188 0 -9.95221e-05)
(-0.00982823 0 -0.000104723)
(-0.00978138 0 -0.000111331)
(-0.00973131 0 -0.000118538)
(-0.00967908 0 -0.000128215)
(-0.00962503 0 -0.000134045)
(-0.0095669 0 -0.00014051)
(-0.00950452 0 -0.00014773)
(-0.00944034 0 -0.000152932)
(-0.00937415 0 -0.000159698)
(-0.00930474 0 -0.00016543)
(-0.00923269 0 -0.000170522)
(-0.00915919 0 -0.00017368)
(-0.00908493 0 -0.000177672)
(-0.00900843 0 -0.000183957)
(-0.00892929 0 -0.000187939)
(-0.00884839 0 -0.000191284)
(-0.00876612 0 -0.000194521)
(-0.00868245 0 -0.000197581)
(-0.00859751 0 -0.000199953)
(-0.00851168 0 -0.000201876)
(-0.00842472 0 -0.00020463)
(-0.00833655 0 -0.000208382)
(-0.00824769 0 -0.00021074)
(-0.00815902 0 -0.000210363)
(-0.0080696 0 -0.000212668)
(-0.0079789 0 -0.000214179)
(-0.00788779 0 -0.000215589)
(-0.00779624 0 -0.00021579)
(-0.00770445 0 -0.000216132)
(-0.00761248 0 -0.000216648)
(-0.00752032 0 -0.00021712)
(-0.00742807 0 -0.000217587)
(-0.00733581 0 -0.000217767)
(-0.00724356 0 -0.000217843)
(-0.00715133 0 -0.000217909)
(-0.00705923 0 -0.000217346)
(-0.00696729 0 -0.000216394)
(-0.0068758 0 -0.000215014)
(-0.00678492 0 -0.000213986)
(-0.00669448 0 -0.000213137)
(-0.00660433 0 -0.000212487)
(-0.00651449 0 -0.000211441)
(-0.0064251 0 -0.00021028)
(-0.00633613 0 -0.000208981)
(-0.00624761 0 -0.000207542)
(-0.00615964 0 -0.000206028)
(-0.00607236 0 -0.000204504)
(-0.00598579 0 -0.000203018)
(-0.00589985 0 -0.000201777)
(-0.0058145 0 -0.000200386)
(-0.00572981 0 -0.000198898)
(-0.00564578 0 -0.000197334)
(-0.00556243 0 -0.000195739)
(-0.00547978 0 -0.000194197)
(-0.00539785 0 -0.000192634)
(-0.00531667 0 -0.000190976)
(-0.00523624 0 -0.000189241)
(-0.00515659 0 -0.000187364)
(-0.00507774 0 -0.000185333)
(-0.00499971 0 -0.000183267)
(-0.00492253 0 -0.000181145)
(-0.00484624 0 -0.000178957)
(-0.00477086 0 -0.000176724)
(-0.00469638 0 -0.000174502)
(-0.00462283 0 -0.000172275)
(-0.0045502 0 -0.000170029)
(-0.00447849 0 -0.000167798)
(-0.00440769 0 -0.000165598)
(-0.00433781 0 -0.000163448)
(-0.00426883 0 -0.000161358)
(-0.00420074 0 -0.000159337)
(-0.00413354 0 -0.000157321)
(-0.00406723 0 -0.000155292)
(-0.00400179 0 -0.000153294)
(-0.00393723 0 -0.000151341)
(-0.00387355 0 -0.000149346)
(-0.00381074 0 -0.000147332)
(-0.0037488 0 -0.000145309)
(-0.00368772 0 -0.000143272)
(-0.0036275 0 -0.00014123)
(-0.00356815 0 -0.000139199)
(-0.00350966 0 -0.000137178)
(-0.00345203 0 -0.000135161)
(-0.00339524 0 -0.000133172)
(-0.00333929 0 -0.000131202)
(-0.00328418 0 -0.000129244)
(-0.0032299 0 -0.000127285)
(-0.00317645 0 -0.000125334)
(-0.00312386 0 -0.000123413)
(-0.00307209 0 -0.000121499)
(-0.00302115 0 -0.000119581)
(-0.002971 0 -0.000117639)
(-0.00292163 0 -0.000115687)
(-0.00287305 0 -0.000113779)
(-0.00282522 0 -0.000111964)
(-0.00277813 0 -0.000110245)
(-0.00273172 0 -0.000108601)
(-0.00268599 0 -0.000107014)
(-0.00264093 0 -0.00010551)
(-0.00259653 0 -0.00010412)
(-0.00255274 0 -0.000102784)
(-0.00250956 0 -0.000101425)
(-0.00246698 0 -0.000100011)
(-0.00242502 0 -9.85728e-05)
(-0.00238367 0 -9.71575e-05)
(-0.00234291 0 -9.57624e-05)
(-0.00230271 0 -9.4356e-05)
(-0.00226307 0 -9.29499e-05)
(-0.00222399 0 -9.15927e-05)
(-0.00218544 0 -9.03148e-05)
(-0.0021474 0 -8.91029e-05)
(-0.00210986 0 -8.7938e-05)
(-0.00207283 0 -8.68244e-05)
(-0.00203629 0 -8.57614e-05)
(-0.00200022 0 -8.47146e-05)
(-0.00196462 0 -8.36508e-05)
(-0.00192949 0 -8.25677e-05)
(-0.0018948 0 -8.14706e-05)
(-0.00186056 0 -8.03502e-05)
(-0.00182675 0 -7.92124e-05)
(-0.00179338 0 -7.81001e-05)
(-0.00176043 0 -7.70556e-05)
(-0.00172789 0 -7.60789e-05)
(-0.00169575 0 -7.51471e-05)
(-0.00166401 0 -7.42509e-05)
(-0.00163269 0 -7.33908e-05)
(-0.00160177 0 -7.25387e-05)
(-0.00157124 0 -7.16499e-05)
(-0.0015411 0 -7.07008e-05)
(-0.00151136 0 -6.97109e-05)
(-0.00148201 0 -6.87211e-05)
(-0.00145303 0 -6.77624e-05)
(-0.00142443 0 -6.68506e-05)
(-0.00139618 0 -6.59943e-05)
(-0.00136828 0 -6.52028e-05)
(-0.00134073 0 -6.446e-05)
(-0.00131351 0 -6.37332e-05)
(-0.00128663 0 -6.29832e-05)
(-0.00126009 0 -6.21926e-05)
(-0.0012339 0 -6.13736e-05)
(-0.00120806 0 -6.05501e-05)
(-0.00118256 0 -5.97308e-05)
(-0.00115739 0 -5.89103e-05)
(-0.00113254 0 -5.81017e-05)
(-0.00110803 0 -5.73423e-05)
(-0.00108385 0 -5.66419e-05)
(-0.00106001 0 -5.59557e-05)
(-0.00103651 0 -5.52254e-05)
(-0.00101336 0 -5.44257e-05)
(-0.000990562 0 -5.35663e-05)
(-0.000968107 0 -5.26775e-05)
(-0.00094598 0 -5.18053e-05)
(-0.000924164 0 -5.09894e-05)
(-0.000902651 0 -5.0235e-05)
(-0.000881444 0 -4.95224e-05)
(-0.000860559 0 -4.88208e-05)
(-0.000840013 0 -4.80941e-05)
(-0.000819821 0 -4.73098e-05)
(-0.000799985 0 -4.64674e-05)
(-0.000780492 0 -4.55931e-05)
(-0.000761328 0 -4.47234e-05)
(-0.000742477 0 -4.38961e-05)
(-0.000723927 0 -4.31464e-05)
(-0.000705679 0 -4.24854e-05)
(-0.000687737 0 -4.18793e-05)
(-0.000670108 0 -4.12539e-05)
(-0.000652795 0 -4.05615e-05)
(-0.000635792 0 -3.98179e-05)
(-0.00061908 0 -3.90813e-05)
(-0.000602631 0 -3.83572e-05)
(-0.000586458 0 -3.76466e-05)
(-0.000570584 0 -3.69914e-05)
(-0.00055502 0 -3.63686e-05)
(-0.000539778 0 -3.5723e-05)
(-0.000524833 0 -3.5012e-05)
(-0.000510187 0 -3.42821e-05)
(-0.000495804 0 -3.3569e-05)
(-0.000481683 0 -3.29389e-05)
(-0.00046781 0 -3.23575e-05)
(-0.000454191 0 -3.1806e-05)
(-0.000440818 0 -3.1244e-05)
(-0.000427756 0 -3.06526e-05)
(-0.000414989 0 -3.0084e-05)
(-0.000402397 0 -2.94304e-05)
(-0.000390132 0 -2.86862e-05)
(-0.000378013 0 -2.816e-05)
(-0.000365858 0 -2.7754e-05)
(-0.000354365 0 -2.7016e-05)
(-0.000343507 0 -2.74117e-05)
(-0.000332296 0 -2.6348e-05)
(-0.00032264 0 -2.41444e-05)
(-0.000311412 0 -2.2979e-05)
(-0.00030656 0 -2.27901e-05)
(-0.000295523 0 -2.181e-05)
(-0.000286592 0 -2.02338e-05)
(-0.000276377 0 -1.98977e-05)
(-0.000266868 0 -2.07972e-05)
(-0.000257678 0 -2.0978e-05)
(-0.000248602 0 -2.0868e-05)
(-0.000239794 0 -2.06367e-05)
(-0.000231123 0 -2.006e-05)
(-0.000222688 0 -1.95905e-05)
(-0.000214431 0 -1.92378e-05)
(-0.000206339 0 -1.88545e-05)
(-0.000198313 0 -1.8797e-05)
(-0.000190489 0 -1.81831e-05)
(-0.000183166 0 -1.7627e-05)
(-0.000175766 0 -1.71791e-05)
(-0.000168865 0 -1.63509e-05)
(-0.000161661 0 -1.61241e-05)
(-0.000155939 0 -1.56227e-05)
(-0.000149054 0 -1.52305e-05)
(-0.000142591 0 -1.48261e-05)
(-0.000135994 0 -1.46726e-05)
(-0.000129594 0 -1.47583e-05)
(-0.000123632 0 -1.40079e-05)
(-0.000117682 0 -1.3983e-05)
(-0.000111649 0 -1.31201e-05)
(-0.00010619 0 -1.27913e-05)
(-0.000100993 0 -1.18714e-05)
(-9.61192e-05 0 -1.17709e-05)
(-9.15057e-05 0 -1.19627e-05)
(-8.65974e-05 0 -1.07936e-05)
(-8.20113e-05 0 -1.02468e-05)
(-7.74225e-05 0 -1.01928e-05)
(-7.15149e-05 0 -1.09214e-05)
(-6.74459e-05 0 -9.1291e-06)
(-6.61717e-05 0 -1.51943e-05)
(-6.03032e-05 0 -1.18915e-05)
(-6.30572e-05 0 -5.14862e-06)
(-5.52066e-05 0 -2.00448e-06)
(-9.81161e-05 0 4.19257e-06)
(-9.48899e-05 0 8.11449e-06)
(-0.000101982 0 2.44398e-05)
(-0.000102937 0 1.13788e-05)
(-9.99615e-05 0 1.02028e-05)
(-9.65863e-05 0 5.05607e-06)
(-9.5248e-05 0 3.30911e-06)
(-9.42289e-05 0 1.74394e-06)
(-9.32821e-05 0 6.69279e-07)
(-9.25123e-05 0 2.79728e-07)
(-9.17198e-05 0 1.86802e-08)
(-9.07044e-05 0 -3.1122e-07)
(-8.94956e-05 0 -5.1117e-07)
(-8.82123e-05 0 -6.06516e-07)
(-8.6884e-05 0 -8.93792e-07)
(-8.55122e-05 0 -1.43818e-06)