/*--------------------------------*- C++ -*----------------------------------*\
| =========                 |                                                 |
| \\      /  F ield         | OpenFOAM: The Open Source CFD Toolbox           |
|  \\    /   O peration     | Version:  v2006                                 |
|   \\  /    A nd           | Website:  www.openfoam.com                      |
|    \\/     M anipulation  |                                                 |
\*---------------------------------------------------------------------------*/
FoamFile
{
    version     2.0;
    format      ascii;
    class       surfaceScalarField;
    location    "7.3";
    object      alphaPhi0.water;
}
// * * * * * * * * * * * * * * * * * * * * * * * * * * * * * * * * * * * * * //

dimensions      [0 3 -1 0 0 0 0];
oriented        oriented;


internalField   nonuniform List<scalar> 
65390
(
3.1211e-05
-5.14276e-07
3.17212e-05
-5.11694e-07
3.20568e-05
-3.368e-07
3.22e-05
-1.44256e-07
3.19927e-05
2.06504e-07
3.17451e-05
2.47001e-07
3.1864e-05
-1.19346e-07
3.35891e-05
-1.72544e-06
3.9679e-05
-6.09018e-06
5.02844e-05
-1.06055e-05
6.30473e-05
-1.27629e-05
7.42925e-05
-1.12452e-05
8.05341e-05
-6.24151e-06
8.19399e-05
-1.40577e-06
8.08706e-05
1.06932e-06
7.90975e-05
1.77325e-06
7.7992e-05
1.10552e-06
7.83238e-05
-3.31751e-07
7.9778e-05
-1.45411e-06
8.20022e-05
-2.2241e-06
8.49366e-05
-2.93432e-06
8.85722e-05
-3.63559e-06
9.23978e-05
-3.82554e-06
9.54274e-05
-3.02951e-06
9.71569e-05
-1.72946e-06
9.76998e-05
-5.42891e-07
9.69227e-05
7.77007e-07
9.43563e-05
2.56612e-06
8.949e-05
4.86591e-06
8.31373e-05
6.34862e-06
7.76181e-05
5.51798e-06
7.37521e-05
3.86851e-06
7.1e-05
2.75254e-06
6.90201e-05
1.97987e-06
6.74204e-05
1.59443e-06
6.55874e-05
1.79762e-06
6.36601e-05
1.9273e-06
6.23071e-05
1.3785e-06
6.1841e-05
4.77786e-07
6.19609e-05
-1.19708e-07
6.22152e-05
-2.54239e-07
6.22866e-05
-7.69837e-08
6.16825e-05
5.7768e-07
6.08573e-05
8.42197e-07
6.02994e-05
5.70318e-07
6.04109e-05
-1.10275e-07
6.08739e-05
-4.62814e-07
6.12688e-05
-3.95954e-07
6.11577e-05
8.94832e-08
6.06766e-05
4.81063e-07
6.02945e-05
3.9743e-07
6.02851e-05
1.62102e-08
6.06859e-05
-4.00286e-07
6.12909e-05
-6.05177e-07
6.20313e-05
-7.40862e-07
6.28579e-05
-8.26778e-07
6.36668e-05
-8.0921e-07
6.42204e-05
-5.53669e-07
6.41551e-05
6.43902e-08
6.35222e-05
6.12682e-07
6.27435e-05
7.78727e-07
6.21226e-05
6.27656e-07
6.16751e-05
4.59195e-07
6.12078e-05
4.69465e-07
6.05949e-05
6.12986e-07
6.00318e-05
5.63148e-07
5.99316e-05
1.00642e-07
6.03788e-05
-4.46888e-07
6.10941e-05
-7.15264e-07
6.17738e-05
-6.79784e-07
6.21988e-05
-4.25203e-07
6.21122e-05
8.54336e-08
6.14625e-05
6.34117e-07
6.04597e-05
9.91018e-07
5.90101e-05
1.44963e-06
5.67781e-05
2.23203e-06
5.31418e-05
3.63656e-06
4.69507e-05
6.19129e-06
4.12682e-05
5.68265e-06
3.92207e-05
2.0557e-06
3.76166e-05
1.61282e-06
3.68016e-05
8.16644e-07
3.50239e-05
1.77772e-06
3.38256e-05
1.19834e-06
3.34029e-05
4.22801e-07
3.22949e-05
1.108e-06
3.12553e-05
1.03965e-06
3.07744e-05
4.80854e-07
3.0801e-05
-2.65957e-08
3.07329e-05
6.77616e-08
3.07148e-05
1.35208e-08
3.07115e-05
-7.69545e-10
3.05012e-05
2.10305e-07
3.02347e-05
2.66511e-07
2.98e-05
4.40002e-07
2.92356e-05
5.66676e-07
2.81336e-05
1.1025e-06
2.67233e-05
1.4101e-06
2.38856e-05
2.83793e-06
2.002e-05
3.86593e-06
1.68139e-05
3.2061e-06
1.51138e-05
1.70008e-06
1.48915e-05
2.21389e-07
1.46962e-05
1.92635e-07
1.52116e-05
-5.15429e-07
1.59168e-05
-7.05141e-07
1.62214e-05
-3.04623e-07
1.61665e-05
5.4936e-08
1.60982e-05
7.02009e-08
1.62654e-05
-1.65253e-07
1.63871e-05
-1.21658e-07
1.66324e-05
-2.45391e-07
1.68281e-05
-1.97989e-07
1.69167e-05
-9.00185e-08
1.67554e-05
1.63183e-07
1.64468e-05
3.10623e-07
1.54051e-05
1.04194e-06
1.40826e-05
1.32259e-06
1.32968e-05
7.8416e-07
1.32091e-05
8.72775e-08
1.35498e-05
-3.40655e-07
1.37157e-05
-1.64586e-07
1.41568e-05
-4.4043e-07
1.46774e-05
-5.20436e-07
1.49562e-05
-2.80345e-07
1.52091e-05
-2.53301e-07
1.54656e-05
-2.55583e-07
1.56836e-05
-2.16622e-07
1.59482e-05
-2.64661e-07
1.62285e-05
-2.8031e-07
1.6467e-05
-2.3851e-07
1.66916e-05
-2.25352e-07
1.68836e-05
-1.94471e-07
1.70726e-05
-1.87189e-07
1.72593e-05
-1.85237e-07
1.74463e-05
-1.87007e-07
1.76317e-05
-1.85446e-07
1.78036e-05
-1.7187e-07
1.79645e-05
-1.60969e-07
1.81122e-05
-1.47768e-07
1.82469e-05
-1.34643e-07
1.83644e-05
-1.17538e-07
1.84562e-05
-9.50723e-08
1.85313e-05
-7.51469e-08
1.85873e-05
-5.59504e-08
1.86301e-05
-3.99311e-08
1.86543e-05
-2.42397e-08
1.86581e-05
-3.77227e-09
1.86364e-05
2.16783e-08
1.85858e-05
4.92452e-08
1.85199e-05
6.69209e-08
1.84397e-05
8.12693e-08
1.83379e-05
1.018e-07
1.82118e-05
1.2611e-07
1.80595e-05
1.50702e-07
1.78866e-05
1.72973e-07
1.7694e-05
1.93661e-07
1.74811e-05
2.14209e-07
1.72457e-05
2.35699e-07
1.69893e-05
2.56577e-07
1.67115e-05
2.77773e-07
1.64072e-05
3.03994e-07
1.60773e-05
3.29672e-07
1.57294e-05
3.48498e-07
1.5359e-05
3.70405e-07
1.49572e-05
4.01531e-07
1.45255e-05
4.31849e-07
1.4072e-05
4.53804e-07
1.35943e-05
4.7765e-07
1.30831e-05
5.11127e-07
1.25316e-05
5.50983e-07
1.19447e-05
5.86607e-07
1.13339e-05
6.11075e-07
1.06973e-05
6.36638e-07
1.00301e-05
6.67038e-07
9.32498e-06
7.042e-07
8.57878e-06
7.45868e-07
7.8067e-06
7.72306e-07
7.02021e-06
7.87137e-07
6.22288e-06
7.97338e-07
5.42847e-06
7.94401e-07
4.63873e-06
7.89502e-07
3.85042e-06
7.88197e-07
3.06803e-06
7.82427e-07
2.29304e-06
7.75118e-07
1.53889e-06
7.54311e-07
8.18398e-07
7.20569e-07
1.32234e-07
6.8623e-07
-5.24187e-07
6.56552e-07
-1.15936e-06
6.35245e-07
-1.77143e-06
6.12176e-07
-2.35851e-06
5.86972e-07
-2.91793e-06
5.59494e-07
-3.44892e-06
5.31115e-07
-3.95499e-06
5.06136e-07
-4.44e-06
4.85178e-07
-4.90976e-06
4.70145e-07
-5.36595e-06
4.56554e-07
-5.80507e-06
4.39084e-07
-6.22378e-06
4.1832e-07
-6.61816e-06
3.94102e-07
-6.99355e-06
3.75374e-07
-7.35481e-06
3.61246e-07
-7.70254e-06
3.47881e-07
-8.03574e-06
3.33419e-07
-8.35331e-06
3.17307e-07
-8.65237e-06
2.98953e-07
-8.93623e-06
2.83845e-07
-9.20838e-06
2.72431e-07
-9.47075e-06
2.62756e-07
-9.71918e-06
2.47625e-07
-9.947e-06
2.27723e-07
-1.01599e-05
2.12924e-07
-1.03609e-05
2.01141e-07
-1.05515e-05
1.91617e-07
-1.07355e-05
1.84047e-07
-1.09086e-05
1.72909e-07
-1.10686e-05
1.58841e-07
-1.12114e-05
1.42755e-07
-1.13416e-05
1.30084e-07
-1.14614e-05
1.19883e-07
-1.15726e-05
1.11583e-07
-1.16773e-05
1.04978e-07
-1.17733e-05
9.59797e-08
-1.18591e-05
8.50818e-08
-1.19322e-05
7.31568e-08
-1.19944e-05
6.21651e-08
-1.20476e-05
5.32057e-08
-1.20931e-05
4.60171e-08
-1.21341e-05
4.13908e-08
-1.21688e-05
3.47094e-08
-1.2195e-05
2.56475e-08
-1.2211e-05
1.617e-08
-1.22184e-05
7.43686e-09
-1.22189e-05
5.35503e-10
-1.2214e-05
-4.96067e-09
-1.22043e-05
-1.01445e-08
-1.21887e-05
-1.55929e-08
-1.21686e-05
-2.00655e-08
-1.21435e-05
-2.4795e-08
-1.21133e-05
-2.98772e-08
-1.20788e-05
-3.51593e-08
-1.2037e-05
-4.19562e-08
-1.19901e-05
-4.68824e-08
-1.19399e-05
-5.02514e-08
-1.18871e-05
-5.25634e-08
-1.18332e-05
-5.31813e-08
-1.17782e-05
-5.58062e-08
-1.17155e-05
-6.27831e-08
-1.16482e-05
-6.73477e-08
-1.15791e-05
-6.90355e-08
-1.15087e-05
-7.01269e-08
-1.14381e-05
-7.04628e-08
-1.13655e-05
-7.25212e-08
-1.12902e-05
-7.57728e-08
-1.12117e-05
-7.85007e-08
-1.11311e-05
-8.06201e-08
-1.10494e-05
-8.17457e-08
-1.09667e-05
-8.23202e-08
-1.08833e-05
-8.34495e-08
-1.07977e-05
-8.55771e-08
-1.071e-05
-8.7986e-08
-1.06195e-05
-9.05068e-08
-1.05281e-05
-9.14948e-08
-1.0437e-05
-9.09766e-08
-1.03462e-05
-9.06191e-08
-1.02548e-05
-9.15557e-08
-1.01594e-05
-9.55267e-08
-1.00605e-05
-9.89727e-08
-9.96024e-06
-1.00229e-07
-9.85908e-06
-1.0117e-07
-9.75694e-06
-1.02038e-07
-9.65449e-06
-1.02176e-07
-9.55158e-06
-1.02918e-07
-9.4471e-06
-1.04748e-07
-9.33967e-06
-1.07525e-07
-9.22969e-06
-1.1e-07
-9.11789e-06
-1.11806e-07
-9.00438e-06
-1.13528e-07
-8.88896e-06
-1.1543e-07
-8.77229e-06
-1.16606e-07
-8.65558e-06
-1.16619e-07
-8.53832e-06
-1.1737e-07
-8.41806e-06
-1.20332e-07
-8.29422e-06
-1.23844e-07
-8.16878e-06
-1.25446e-07
-8.0422e-06
-1.26591e-07
-7.91392e-06
-1.28238e-07
-7.78423e-06
-1.29567e-07
-7.65366e-06
-1.30569e-07
-7.52152e-06
-1.32173e-07
-7.38709e-06
-1.34538e-07
-7.25012e-06
-1.36977e-07
-7.11115e-06
-1.38971e-07
-6.97034e-06
-1.40796e-07
-6.82783e-06
-1.42421e-07
-6.68419e-06
-1.43642e-07
-6.53882e-06
-1.45442e-07
-6.3911e-06
-1.47758e-07
-6.24083e-06
-1.50286e-07
-6.08785e-06
-1.52988e-07
-5.93235e-06
-1.55464e-07
-5.77553e-06
-1.56823e-07
-5.6167e-06
-1.58853e-07
-5.45484e-06
-1.61922e-07
-5.2901e-06
-1.64757e-07
-5.1226e-06
-1.67512e-07
-4.95286e-06
-1.69754e-07
-4.781e-06
-1.71912e-07
-4.60659e-06
-1.74437e-07
-4.42951e-06
-1.77103e-07
-4.25041e-06
-1.79111e-07
-4.0708e-06
-1.79602e-07
-3.89134e-06
-1.79466e-07
-3.71141e-06
-1.79949e-07
-3.53097e-06
-1.80442e-07
-3.35124e-06
-1.79734e-07
-3.17337e-06
-1.77868e-07
-2.99826e-06
-1.75107e-07
-2.8266e-06
-1.71673e-07
-2.65906e-06
-1.67541e-07
-2.49639e-06
-1.62667e-07
-2.33939e-06
-1.56994e-07
-2.189e-06
-1.50387e-07
-2.0453e-06
-1.43695e-07
-1.90807e-06
-1.37232e-07
-1.77761e-06
-1.30455e-07
-1.65454e-06
-1.23061e-07
-1.53899e-06
-1.15537e-07
-1.43035e-06
-1.08642e-07
-1.32806e-06
-1.02294e-07
-1.23186e-06
-9.61999e-08
-1.14195e-06
-8.99249e-08
-1.05873e-06
-8.32262e-08
-9.81781e-07
-7.69611e-08
-9.09856e-07
-7.19431e-08
-8.42045e-07
-6.78239e-08
-7.78187e-07
-6.38672e-08
-7.18219e-07
-5.99745e-08
-6.61898e-07
-5.63247e-08
-6.08859e-07
-5.30431e-08
-5.58606e-07
-5.02555e-08
-5.10633e-07
-4.79762e-08
-4.64481e-07
-4.61555e-08
-4.20012e-07
-4.44748e-08
-3.76933e-07
-4.30872e-08
-3.34822e-07
-4.21205e-08
-2.93246e-07
-4.15867e-08
-2.51843e-07
-4.14148e-08
-2.10369e-07
-4.14865e-08
-1.68731e-07
-4.16488e-08
-1.26828e-07
-4.19145e-08
-8.42608e-08
-4.25778e-08
-4.06092e-08
-4.36624e-08
4.27449e-09
-4.48943e-08
5.04408e-08
-4.61763e-08
9.80373e-08
-4.7605e-08
1.47176e-07
-4.91448e-08
1.97968e-07
-5.07956e-08
2.50638e-07
-5.26694e-08
3.0529e-07
-5.46503e-08
3.61929e-07
-5.66348e-08
4.20553e-07
-5.86189e-08
4.81269e-07
-6.07136e-08
5.44018e-07
-6.27494e-08
6.08559e-07
-6.4545e-08
6.7489e-07
-6.6342e-08
7.43145e-07
-6.82666e-08
8.13597e-07
-7.04647e-08
8.86121e-07
-7.25377e-08
9.60349e-07
-7.42426e-08
1.036e-06
-7.56697e-08
1.11318e-06
-7.71944e-08
1.19209e-06
-7.89198e-08
1.27266e-06
-8.05919e-08
1.35458e-06
-8.19362e-08
1.43756e-06
-8.29974e-08
1.52151e-06
-8.39606e-08
1.60634e-06
-8.48276e-08
1.69158e-06
-8.52366e-08
1.77709e-06
-8.55099e-08
1.86321e-06
-8.61085e-08
1.94997e-06
-8.6756e-08
2.03696e-06
-8.69955e-08
2.1238e-06
-8.68497e-08
2.21039e-06
-8.65945e-08
2.29642e-06
-8.60408e-08
2.38182e-06
-8.54038e-08
2.46657e-06
-8.47532e-08
2.55064e-06
-8.4081e-08
2.63353e-06
-8.29028e-08
2.71492e-06
-8.14204e-08
2.79483e-06
-7.99166e-08
2.87346e-06
-7.86411e-08
2.95047e-06
-7.70284e-08
3.02575e-06
-7.52931e-08
3.09912e-06
-7.33823e-08
3.17029e-06
-7.11929e-08
3.23887e-06
-6.86083e-08
3.30504e-06
-6.61845e-08
3.36907e-06
-6.40455e-08
3.43102e-06
-6.19661e-08
3.49075e-06
-5.97393e-08
3.54801e-06
-5.72686e-08
3.60287e-06
-5.488e-08
3.6545e-06
-5.16674e-08
3.70446e-06
-4.99507e-08
3.75216e-06
-4.77086e-08
3.79835e-06
-4.62168e-08
3.84205e-06
-4.37318e-08
3.88303e-06
-4.10111e-08
3.92118e-06
-3.82077e-08
3.95619e-06
-3.50173e-08
3.99027e-06
-3.41122e-08
4.02184e-06
-3.1604e-08
4.04911e-06
-2.73005e-08
4.07492e-06
-2.58416e-08
4.09363e-06
-1.87399e-08
4.10767e-06
-1.40703e-08
4.12798e-06
-2.033e-08
4.14445e-06
-1.65012e-08
4.15568e-06
-1.12628e-08
4.173e-06
-1.73523e-08
4.1529e-06
2.00686e-08
4.12344e-06
2.94281e-08
4.14392e-06
-2.05036e-08
4.13634e-06
7.56666e-09
4.16621e-06
-2.9892e-08
4.2438e-06
-7.76125e-08
4.44484e-06
-2.0105e-07
4.68828e-06
-2.43444e-07
4.83011e-06
-1.4183e-07
4.93256e-06
-1.02436e-07
4.98587e-06
-5.32852e-08
5.01344e-06
-2.7535e-08
5.02289e-06
-9.41322e-09
5.02966e-06
-6.72923e-09
5.03136e-06
-1.67369e-09
5.02555e-06
5.82125e-09
5.01004e-06
1.5525e-08
4.99775e-06
1.23029e-08
4.93104e-06
6.67246e-08
4.8501e-06
8.09546e-08
4.81009e-06
4.0035e-08
4.7449e-06
6.52065e-08
4.74036e-06
4.55215e-09
4.79205e-06
-5.16943e-08
5.01398e-06
-2.21941e-07
5.33413e-06
-3.2017e-07
5.56253e-06
-2.28433e-07
5.73137e-06
-1.68874e-07
5.81161e-06
-8.02689e-08
5.85191e-06
-4.03393e-08
5.86136e-06
-9.47402e-09
5.84764e-06
1.369e-08
5.81652e-06
3.10915e-08
5.7461e-06
7.03972e-08
5.67804e-06
6.80221e-08
5.60906e-06
6.89417e-08
5.52456e-06
8.44747e-08
5.45466e-06
6.98623e-08
5.3592e-06
9.5434e-08
5.11349e-06
2.45687e-07
4.93404e-06
1.7942e-07
4.79629e-06
1.37729e-07
4.62074e-06
1.75532e-07
4.73678e-06
-1.16079e-07
5.08206e-06
-3.45339e-07
6.09541e-06
-1.0134e-06
7.1907e-06
-1.09536e-06
8.1492e-06
-9.58563e-07
8.87349e-06
-7.24438e-07
9.39798e-06
-5.24754e-07
9.71286e-06
-3.14857e-07
9.89958e-06
-1.86689e-07
1.00034e-05
-1.03696e-07
1.00496e-05
-4.60743e-08
1.00489e-05
7.41098e-10
1.00106e-05
3.8314e-08
9.94639e-06
6.42677e-08
9.86507e-06
8.14392e-08
9.7653e-06
9.98281e-08
9.6498e-06
1.15502e-07
9.52129e-06
1.28505e-07
9.37923e-06
1.42097e-07
9.2311e-06
1.48159e-07
9.07701e-06
1.54056e-07
8.91411e-06
1.62852e-07
8.74171e-06
1.72377e-07
8.56762e-06
1.74077e-07
8.39319e-06
1.74406e-07
8.21249e-06
1.80664e-07
8.02456e-06
1.87918e-07
7.83138e-06
1.93178e-07
7.63763e-06
1.93778e-07
7.44432e-06
1.93336e-07
7.24909e-06
1.9523e-07
7.05298e-06
1.96118e-07
6.85515e-06
1.97832e-07
6.65702e-06
1.9813e-07
6.45553e-06
2.01471e-07
6.25081e-06
2.04714e-07
6.04884e-06
2.01968e-07
5.85148e-06
1.97355e-07
5.65802e-06
1.93463e-07
5.4665e-06
1.91508e-07
5.27506e-06
1.91435e-07
5.08324e-06
1.91808e-07
4.89176e-06
1.91474e-07
4.70097e-06
1.90782e-07
4.51147e-06
1.89496e-07
4.3244e-06
1.87075e-07
4.13702e-06
1.87374e-07
3.95234e-06
1.84687e-07
3.77144e-06
1.80897e-07
3.5903e-06
1.81148e-07
3.4072e-06
1.83093e-07
3.22338e-06
1.83826e-07
3.04045e-06
1.82927e-07
2.85951e-06
1.80935e-07
2.6813e-06
1.78197e-07
2.50611e-06
1.75183e-07
2.33336e-06
1.72745e-07
2.1626e-06
1.70747e-07
1.99351e-06
1.69075e-07
1.8259e-06
1.67599e-07
1.65943e-06
1.66455e-07
1.49463e-06
1.64785e-07
1.33182e-06
1.62805e-07
1.17101e-06
1.60791e-07
1.01195e-06
1.59049e-07
8.5376e-07
1.58181e-07
6.96189e-07
1.57558e-07
5.39624e-07
1.56553e-07
3.84843e-07
1.54769e-07
2.32202e-07
1.52629e-07
8.03783e-08
1.51812e-07
-7.09113e-08
1.51279e-07
-2.22637e-07
1.51716e-07
-3.71878e-07
1.49231e-07
-5.21549e-07
1.49663e-07
-6.69843e-07
1.48287e-07
-8.19868e-07
1.5002e-07
-9.59262e-07
1.39391e-07
-1.0981e-06
1.38837e-07
-1.23154e-06
1.33439e-07
-1.37031e-06
1.3878e-07
-1.50513e-06
1.34814e-07
-1.64392e-06
1.38798e-07
1.27038e-07
3.13216e-05
-1.08271e-06
3.18409e-05
-1.02874e-06
3.22905e-05
-7.84524e-07
3.26271e-05
-4.79252e-07
3.2997e-05
-1.62187e-07
3.3712e-05
-4.66879e-07
3.5986e-05
-2.39253e-06
4.33764e-05
-9.11513e-06
5.36293e-05
-1.63425e-05
6.30579e-05
-2.00338e-05
7.14074e-05
-2.11121e-05
7.9597e-05
-1.94342e-05
8.64964e-05
-1.31406e-05
8.95795e-05
-4.48847e-06
8.88188e-05
1.8304e-06
8.6286e-05
4.3064e-06
8.32233e-05
4.16859e-06
8.02869e-05
2.60492e-06
7.86956e-05
1.37399e-07
7.90599e-05
-2.58834e-06
8.08883e-05
-4.76255e-06
8.31253e-05
-5.87255e-06
8.52652e-05
-5.96537e-06
8.73121e-05
-5.07627e-06
8.85629e-05
-2.98022e-06
8.83579e-05
-3.37834e-07
8.6283e-05
2.85182e-06
8.26925e-05
6.15644e-06
7.90073e-05
8.55e-06
7.61173e-05
9.22856e-06
7.35232e-05
8.116e-06
7.15618e-05
5.83397e-06
6.98698e-05
4.44469e-06
6.82326e-05
3.61662e-06
6.65496e-05
3.27009e-06
6.49393e-05
3.37256e-06
6.35382e-05
3.32846e-06
6.24771e-05
2.45402e-06
6.20298e-05
9.4509e-07
6.19411e-05
-2.60742e-08
6.19328e-05
-2.46875e-07
6.19278e-05
-8.71069e-08
6.17318e-05
7.45471e-07
6.1523e-05
1.05205e-06
6.12516e-05
8.6634e-07
6.11759e-05
-1.8543e-08
6.12481e-05
-5.34665e-07
6.13673e-05
-5.2071e-07
6.14502e-05
-1.56498e-08
6.13434e-05
5.87909e-07
6.11171e-05
6.36979e-07
6.0851e-05
2.95205e-07
6.09773e-05
-5.24536e-07
6.14148e-05
-1.04266e-06
6.19619e-05
-1.28795e-06
6.2497e-05
-1.36193e-06
6.28915e-05
-1.20397e-06
6.29054e-05
-5.71014e-07
6.26857e-05
2.51664e-07
6.26648e-05
6.28079e-07
6.27725e-05
6.7107e-07
6.27647e-05
6.35427e-07
6.25783e-05
6.62903e-07
6.21518e-05
9.11592e-07
6.15206e-05
1.24432e-06
6.08883e-05
1.19717e-06
6.04771e-05
5.1601e-07
6.05143e-05
-4.82743e-07
6.06101e-05
-8.11226e-07
6.06845e-05
-7.57268e-07
6.05574e-05
-3.24349e-07
6.00407e-05
6.02161e-07
5.93335e-05
1.34136e-06
5.8649e-05
1.68226e-06
5.83587e-05
1.75793e-06
5.85371e-05
2.05795e-06
5.95842e-05
2.5905e-06
6.18147e-05
3.96127e-06
6.08512e-05
6.6484e-06
5.71022e-05
5.80795e-06
5.08957e-05
7.82148e-06
4.44767e-05
7.23598e-06
4.19864e-05
4.26816e-06
3.92555e-05
3.92926e-06
3.73813e-05
2.29714e-06
3.51863e-05
3.30307e-06
3.29169e-05
3.30916e-06
3.2037e-05
1.36078e-06
3.22144e-05
-2.04049e-07
3.15594e-05
7.21718e-07
3.11959e-05
3.68487e-07
3.11282e-05
6.69634e-08
3.10891e-05
2.49557e-07
3.10829e-05
2.75084e-07
3.11093e-05
4.19995e-07
3.08384e-05
8.37744e-07
3.06013e-05
1.33889e-06
3.01683e-05
1.84174e-06
3.03783e-05
2.62748e-06
3.01185e-05
4.12692e-06
2.90906e-05
4.23511e-06
2.63464e-05
4.44429e-06
2.22e-05
4.36782e-06
1.88055e-05
3.58373e-06
1.64635e-05
1.82539e-06
1.5384e-05
3.74369e-07
1.50671e-05
1.22662e-08
1.4853e-05
2.69129e-07
1.54402e-05
-5.13772e-07
1.64753e-05
-1.19976e-06
1.69807e-05
-6.27132e-07
1.71492e-05
-4.1402e-07
1.72262e-05
-2.78856e-07
1.71969e-05
-6.22194e-08
1.73785e-05
-1.8345e-08
1.75968e-05
9.2248e-08
1.80657e-05
5.77037e-07
1.82827e-05
1.10775e-06
1.80851e-05
9.81245e-07
1.70161e-05
1.1544e-06
1.55601e-05
1.11537e-06
1.4703e-05
6.93896e-07
1.43916e-05
-1.28724e-07
1.44595e-05
-5.88709e-07
1.45492e-05
-3.73192e-07
1.49821e-05
-6.862e-07
1.55206e-05
-7.94171e-07
1.58201e-05
-5.16111e-07
1.6053e-05
-4.93622e-07
1.62519e-05
-4.78976e-07
1.64213e-05
-4.07963e-07
1.66427e-05
-4.48719e-07
1.68798e-05
-4.33983e-07
1.70952e-05
-4.03087e-07
1.7294e-05
-3.80658e-07
1.74724e-05
-3.63892e-07
1.76459e-05
-3.58974e-07
1.78049e-05
-3.30977e-07
1.79633e-05
-3.19304e-07
1.81159e-05
-3.00399e-07
1.82567e-05
-2.75422e-07
1.8376e-05
-2.38498e-07
1.84722e-05
-1.93861e-07
1.85506e-05
-1.53488e-07
1.86104e-05
-1.15767e-07
1.86532e-05
-8.26007e-08
1.86801e-05
-4.76386e-08
1.86799e-05
-3.59742e-09
1.86522e-05
4.65521e-08
1.86071e-05
9.43982e-08
1.85457e-05
1.30217e-07
1.84653e-05
1.64008e-07
1.83592e-05
2.08061e-07
1.8227e-05
2.58337e-07
1.80718e-05
3.03824e-07
1.79013e-05
3.4346e-07
1.77099e-05
3.85152e-07
1.74948e-05
4.31444e-07
1.72543e-05
4.77409e-07
1.69921e-05
5.18935e-07
1.67085e-05
5.6145e-07
1.64e-05
6.11491e-07
1.60692e-05
6.6022e-07
1.57177e-05
7.01042e-07
1.53403e-05
7.47815e-07
1.4932e-05
8.08716e-07
1.44961e-05
8.67951e-07
1.40365e-05
9.14343e-07
1.35503e-05
9.63745e-07
1.30298e-05
1.03106e-06
1.24744e-05
1.1048e-06
1.18901e-05
1.17187e-06
1.12759e-05
1.22611e-06
1.06327e-05
1.27974e-06
9.96125e-06
1.33845e-06
9.26082e-06
1.40363e-06
8.53064e-06
1.47571e-06
7.77693e-06
1.52602e-06
7.00434e-06
1.5598e-06
6.21956e-06
1.58267e-06
5.43454e-06
1.57978e-06
4.65374e-06
1.57056e-06
3.8789e-06
1.56317e-06
3.11202e-06
1.54914e-06
2.35265e-06
1.53453e-06
1.60636e-06
1.50064e-06
8.82476e-07
1.44463e-06
1.87843e-07
1.38095e-06
-4.74705e-07
1.31925e-06
-1.10894e-06
1.26971e-06
-1.71933e-06
1.22267e-06
-2.30865e-06
1.1764e-06
-2.87701e-06
1.12759e-06
-3.41999e-06
1.07406e-06
-3.93553e-06
1.02174e-06
-4.4276e-06
9.77487e-07
-4.90102e-06
9.43955e-07
-5.35737e-06
9.12873e-07
-5.79577e-06
8.7753e-07
-6.21498e-06
8.37043e-07
-6.61371e-06
7.9265e-07
-6.99447e-06
7.56112e-07
-7.35976e-06
7.26795e-07
-7.7098e-06
6.98138e-07
-8.04301e-06
6.66542e-07
-8.35925e-06
6.33272e-07
-8.6602e-06
5.99796e-07
-8.94767e-06
5.71321e-07
-9.22204e-06
5.47575e-07
-9.48338e-06
5.24108e-07
-9.72934e-06
4.92805e-07
-9.95879e-06
4.56816e-07
-1.01746e-05
4.28714e-07
-1.03781e-05
4.04796e-07
-1.05696e-05
3.83894e-07
-1.07512e-05
3.65726e-07
-1.09214e-05
3.43117e-07
-1.10804e-05
3.16993e-07
-1.12253e-05
2.87214e-07
-1.13576e-05
2.62276e-07
-1.1479e-05
2.4165e-07
-1.15899e-05
2.23341e-07
-1.16924e-05
2.07437e-07
-1.17857e-05
1.89333e-07
-1.18698e-05
1.692e-07
-1.19448e-05
1.4716e-07
-1.20087e-05
1.25993e-07
-1.20633e-05
1.0785e-07
-1.21088e-05
9.25032e-08
-1.21484e-05
8.10513e-08
-1.21811e-05
6.74336e-08
-1.22055e-05
5.0064e-08
-1.22213e-05
3.12452e-08
-1.22288e-05
1.44598e-08
-1.22293e-05
9.43098e-10
-1.22242e-05
-1.0025e-08
-1.22147e-05
-1.96456e-08
-1.22002e-05
-2.95922e-08
-1.21799e-05
-3.97535e-08
-1.21539e-05
-5.0791e-08
-1.21212e-05
-6.25369e-08
-1.20836e-05
-7.33299e-08
-1.20423e-05
-8.38449e-08
-1.19969e-05
-9.22334e-08
-1.19481e-05
-9.91185e-08
-1.18957e-05
-1.0434e-07
-1.18397e-05
-1.08194e-07
-1.17815e-05
-1.15101e-07
-1.17187e-05
-1.26015e-07
-1.16526e-05
-1.33542e-07
-1.15847e-05
-1.36845e-07
-1.15148e-05
-1.39453e-07
-1.14433e-05
-1.41987e-07
-1.13687e-05
-1.47109e-07
-1.12912e-05
-1.53269e-07
-1.12125e-05
-1.5766e-07
-1.11327e-05
-1.60586e-07
-1.10524e-05
-1.62045e-07
-1.09709e-05
-1.63632e-07
-1.08865e-05
-1.67738e-07
-1.07992e-05
-1.729e-07
-1.07107e-05
-1.76729e-07
-1.06211e-05
-1.802e-07
-1.05304e-05
-1.8196e-07
-1.04393e-05
-1.81744e-07
-1.03476e-05
-1.82356e-07
-1.02542e-05
-1.85046e-07
-1.01587e-05
-1.91501e-07
-1.00605e-05
-1.97224e-07
-9.96098e-06
-1.99747e-07
-9.86059e-06
-2.01517e-07
-9.75889e-06
-2.03389e-07
-9.65601e-06
-2.05062e-07
-9.55107e-06
-2.07849e-07
-9.44448e-06
-2.11342e-07
-9.33724e-06
-2.15132e-07
-9.22819e-06
-2.1911e-07
-9.11692e-06
-2.2309e-07
-9.0035e-06
-2.26954e-07
-8.88811e-06
-2.30817e-07
-8.77135e-06
-2.33236e-07
-8.65369e-06
-2.34177e-07
-8.53454e-06
-2.3651e-07
-8.41345e-06
-2.4167e-07
-8.28963e-06
-2.4774e-07
-8.16432e-06
-2.5077e-07
-8.03803e-06
-2.52899e-07
-7.91001e-06
-2.56222e-07
-7.77971e-06
-2.59774e-07
-7.64757e-06
-2.62705e-07
-7.51371e-06
-2.66037e-07
-7.37809e-06
-2.70224e-07
-7.24106e-06
-2.74088e-07
-7.10247e-06
-2.77563e-07
-6.9618e-06
-2.81448e-07
-6.81841e-06
-2.85754e-07
-6.6727e-06
-2.8935e-07
-6.52529e-06
-2.92849e-07
-6.37703e-06
-2.96122e-07
-6.22712e-06
-3.00245e-07
-6.07429e-06
-3.05851e-07
-5.91802e-06
-3.11712e-07
-5.75932e-06
-3.15523e-07
-5.59908e-06
-3.19174e-07
-5.43749e-06
-3.23573e-07
-5.2731e-06
-3.29161e-07
-5.10484e-06
-3.35819e-07
-4.93403e-06
-3.40542e-07
-4.76205e-06
-3.43954e-07
-4.58864e-06
-3.47892e-07
-4.41277e-06
-3.52994e-07
-4.23471e-06
-3.5717e-07
-4.0556e-06
-3.58714e-07
-3.87649e-06
-3.58572e-07
-3.69819e-06
-3.58276e-07
-3.52007e-06
-3.58573e-07
-3.3424e-06
-3.57412e-07
-3.16629e-06
-3.53973e-07
-2.99288e-06
-3.48524e-07
-2.82323e-06
-3.41316e-07
-2.65801e-06
-3.3276e-07
-2.49751e-06
-3.23159e-07
-2.3421e-06
-3.12392e-07
-2.19236e-06
-3.00115e-07
-2.04891e-06
-2.8714e-07
-1.91222e-06
-2.73914e-07
-1.78261e-06
-2.60048e-07
-1.66014e-06
-2.45508e-07
-1.54449e-06
-2.31172e-07
-1.43549e-06
-2.17641e-07
-1.33302e-06
-2.04764e-07
-1.23708e-06
-1.92153e-07
-1.14749e-06
-1.79529e-07
-1.06399e-06
-1.66742e-07
-9.86164e-07
-1.54808e-07
-9.13747e-07
-1.4438e-07
-8.46013e-07
-1.3557e-07
-7.8246e-07
-1.27426e-07
-7.22794e-07
-1.19638e-07
-6.66473e-07
-1.12642e-07
-6.13252e-07
-1.06262e-07
-5.62983e-07
-1.00525e-07
-5.15221e-07
-9.57429e-08
-4.69469e-07
-9.19159e-08
-4.25561e-07
-8.83954e-08
-3.82902e-07
-8.57602e-08
-3.40877e-07
-8.41605e-08
-2.99277e-07
-8.32007e-08
-2.58003e-07
-8.27036e-08
-2.16847e-07
-8.26553e-08
-1.75519e-07
-8.29904e-08
-1.33751e-07
-8.36971e-08
-9.1255e-08
-8.50882e-08
-4.77823e-08
-8.71495e-08
-3.08511e-09
-8.96042e-08
4.29906e-08
-9.22616e-08
9.05096e-08
-9.51289e-08
1.39441e-07
-9.8076e-08
1.89925e-07
-1.01274e-07
2.42369e-07
-1.05103e-07
2.96938e-07
-1.09208e-07
3.53542e-07
-1.13229e-07
4.12114e-07
-1.17185e-07
4.72752e-07
-1.2135e-07
5.3545e-07
-1.25451e-07
6.00177e-07
-1.29281e-07
6.66981e-07
-1.33159e-07
7.35791e-07
-1.37092e-07
8.06506e-07
-1.41199e-07
8.79096e-07
-1.4515e-07
9.53391e-07
-1.48563e-07
1.02928e-06
-1.51584e-07
1.10674e-06
-1.54681e-07
1.18592e-06
-1.58122e-07
1.26672e-06
-1.6141e-07
1.3489e-06
-1.64133e-07
1.43208e-06
-1.66191e-07
1.51613e-06
-1.68014e-07
1.60102e-06
-1.69728e-07
1.6868e-06
-1.71021e-07
1.77324e-06
-1.71958e-07
1.86006e-06
-1.7293e-07
1.94714e-06
-1.73836e-07
2.03439e-06
-1.74245e-07
2.12145e-06
-1.73929e-07
2.20824e-06
-1.73399e-07
2.29467e-06
-1.72481e-07
2.38058e-06
-1.71334e-07
2.46579e-06
-1.69991e-07
2.55002e-06
-1.68329e-07
2.63316e-06
-1.66076e-07
2.71512e-06
-1.63414e-07
2.79589e-06
-1.60692e-07
2.87489e-06
-1.57662e-07
2.95209e-06
-1.54249e-07
3.0273e-06
-1.50516e-07
3.10081e-06
-1.469e-07
3.17217e-06
-1.42571e-07
3.24168e-06
-1.38141e-07
3.30828e-06
-1.32798e-07
3.37264e-06
-1.28416e-07
3.43428e-06
-1.23616e-07
3.49394e-06
-1.194e-07
3.55088e-06
-1.14233e-07
3.60613e-06
-1.10166e-07
3.65787e-06
-1.0346e-07
3.70783e-06
-9.98957e-08
3.75417e-06
-9.40926e-08
3.79885e-06
-9.09234e-08
3.84323e-06
-8.81609e-08
3.88523e-06
-8.30677e-08
3.927e-06
-7.99855e-08
3.96328e-06
-7.13142e-08
3.99777e-06
-6.86267e-08
4.024e-06
-5.78491e-08
4.04662e-06
-4.99313e-08
4.07618e-06
-5.5422e-08
4.10593e-06
-4.84978e-08
4.13109e-06
-3.92494e-08
4.15498e-06
-4.42262e-08
4.13696e-06
1.50764e-09
4.10924e-06
1.64346e-08
4.13683e-06
-4.49582e-08
4.17128e-06
-1.43965e-08
4.24977e-06
-4.90851e-08
4.34631e-06
-1.17053e-07
4.57201e-06
-2.18155e-07
4.82295e-06
-2.80837e-07
4.96422e-06
-2.18883e-07
5.01973e-06
-2.56554e-07
5.01009e-06
-2.33783e-07
5.01913e-06
-1.50848e-07
5.01933e-06
-1.0261e-07
5.03751e-06
-7.14401e-08
5.05092e-06
-4.09216e-08
5.07122e-06
-2.9698e-08
5.0855e-06
-2.10011e-08
5.09071e-06
-6.87253e-09
5.03889e-06
5.76448e-08
4.96549e-06
8.89345e-08
4.94221e-06
3.55867e-08
4.93807e-06
7.08714e-08
5.00587e-06
1.3157e-08
5.10974e-06
-6.38227e-08
5.38104e-06
-2.06116e-07
5.72451e-06
-3.3895e-07
5.96341e-06
-2.90661e-07
6.07596e-06
-3.34531e-07
6.05348e-06
-2.97746e-07
6.03813e-06
-2.13125e-07
6.01138e-06
-1.42171e-07
5.99268e-06
-6.16189e-08
5.94112e-06
1.11557e-08
5.90283e-06
2.87711e-08
5.86537e-06
5.1122e-08
5.83878e-06
5.7661e-08
5.81253e-06
9.66191e-08
5.79679e-06
8.37312e-08
5.73329e-06
1.32398e-07
5.49772e-06
3.19987e-07
5.30742e-06
2.60134e-07
5.21637e-06
1.86458e-07
5.20264e-06
2.59398e-07
5.44907e-06
-6.70432e-08
5.96497e-06
-3.78194e-07
7.28271e-06
-1.14224e-06
8.49987e-06
-1.33329e-06
9.47987e-06
-1.32536e-06
9.90437e-06
-1.43793e-06
9.98683e-06
-1.17778e-06
1.00072e-05
-9.78785e-07
1.00627e-05
-7.79835e-07
1.0131e-05
-5.92817e-07
1.0202e-05
-3.85761e-07
1.02388e-05
-2.23398e-07
1.02465e-05
-1.11284e-07
1.02294e-05
-2.8891e-08
1.01895e-05
4.07639e-08
1.01282e-05
9.96417e-08
1.00492e-05
1.43295e-07
9.95567e-06
1.74991e-07
9.84638e-06
2.09136e-07
9.7231e-06
2.38772e-07
9.58879e-06
2.62801e-07
9.44512e-06
2.85723e-07
9.29399e-06
2.99246e-07
9.13589e-06
3.12094e-07
8.97168e-06
3.27004e-07
8.80212e-06
3.41877e-07
8.62843e-06
3.47722e-07
8.45049e-06
3.52313e-07
8.26849e-06
3.62631e-07
8.08251e-06
3.73874e-07
7.89373e-06
3.8195e-07
7.70222e-06
3.85287e-07
7.50851e-06
3.87052e-07
7.31366e-06
3.9008e-07
7.11848e-06
3.91302e-07
6.92194e-06
3.94378e-07
6.72231e-06
3.97761e-07
6.5216e-06
4.02181e-07
6.32205e-06
4.04284e-07
6.12297e-06
4.0106e-07
5.92509e-06
3.95259e-07
5.7281e-06
3.90473e-07
5.5316e-06
3.88016e-07
5.3365e-06
3.86548e-07
5.14277e-06
3.85541e-07
4.94999e-06
3.84258e-07
4.75879e-06
3.81986e-07
4.56932e-06
3.78969e-07
4.38046e-06
3.7594e-07
4.19233e-06
3.75516e-07
4.00569e-06
3.71328e-07
3.81999e-06
3.66609e-07
3.63541e-06
3.65729e-07
3.45229e-06
3.6621e-07
3.27093e-06
3.6518e-07
3.09125e-06
3.62595e-07
2.91316e-06
3.59012e-07
2.73666e-06
3.54682e-07
2.56176e-06
3.50059e-07
2.38879e-06
3.45697e-07
2.21783e-06
3.41686e-07
2.04882e-06
3.38069e-07
1.88123e-06
3.35162e-07
1.71536e-06
3.3231e-07
1.55098e-06
3.29147e-07
1.38828e-06
3.2548e-07
1.22742e-06
3.2163e-07
1.0678e-06
3.18651e-07
9.09146e-07
3.1681e-07
7.5161e-07
3.15072e-07
5.95918e-07
3.12222e-07
4.4202e-07
3.08644e-07
2.89258e-07
3.0537e-07
1.36974e-07
3.04074e-07
-1.41994e-08
3.02433e-07
-1.63546e-07
3.01044e-07
-3.11328e-07
2.96995e-07
-4.58509e-07
2.96828e-07
-6.06686e-07
2.9645e-07
-7.51656e-07
2.94979e-07
-8.97342e-07
2.85071e-07
-1.04017e-06
2.81663e-07
-1.18553e-06
2.78803e-07
-1.32886e-06
2.82108e-07
-1.47539e-06
2.8134e-07
-1.61996e-06
2.83362e-07
2.7805e-07
3.1469e-05
-1.69211e-06
3.20172e-05
-1.57797e-06
3.26801e-05
-1.44817e-06
3.33743e-05
-1.174e-06
3.43189e-05
-1.1072e-06
3.59345e-05
-2.08277e-06
4.08587e-05
-7.31693e-06
4.98672e-05
-1.81239e-05
5.82945e-05
-2.47702e-05
6.49092e-05
-2.66481e-05
7.02755e-05
-2.6477e-05
7.43838e-05
-2.35414e-05
7.71353e-05
-1.58918e-05
7.87127e-05
-6.06578e-06
7.90567e-05
1.48656e-06
7.83045e-05
5.05875e-06
7.68793e-05
5.59398e-06
7.46955e-05
4.78877e-06
7.24578e-05
2.37514e-06
7.07092e-05
-8.39674e-07
6.93361e-05
-3.38948e-06
6.81029e-05
-4.63941e-06
6.68347e-05
-4.6972e-06
6.55343e-05
-3.77586e-06
6.40841e-05
-1.53003e-06
6.2458e-05
1.28826e-06
6.10829e-05
4.22678e-06
6.05103e-05
6.72732e-06
6.09135e-05
8.12644e-06
6.19032e-05
8.24565e-06
6.30225e-05
7.00584e-06
6.38055e-05
5.05299e-06
6.40721e-05
4.17815e-06
6.37527e-05
3.93309e-06
6.2889e-05
4.09592e-06
6.20979e-05
4.15479e-06
6.15627e-05
3.86374e-06
6.12873e-05
2.74924e-06
6.12182e-05
1.0367e-06
6.11957e-05
1.67727e-09
6.1214e-05
-2.65721e-07
6.12362e-05
-1.19598e-07
6.13784e-05
5.73903e-07
6.15272e-05
9.02166e-07
6.16495e-05
7.65684e-07
6.16968e-05
-4.80264e-08
6.17369e-05
-5.73627e-07
6.1772e-05
-5.58857e-07
6.1754e-05
-2.74408e-08
6.16686e-05
6.73235e-07
6.15207e-05
7.8498e-07
6.12821e-05
5.58533e-07
6.11006e-05
-3.34775e-07
6.11833e-05
-1.12481e-06
6.13239e-05
-1.42852e-06
6.13918e-05
-1.42995e-06
6.14227e-05
-1.23814e-06
6.13358e-05
-5.21176e-07
6.15138e-05
7.37158e-08
6.198e-05
1.61911e-07
6.27022e-05
-2.48631e-08
6.33316e-05
5.14495e-09
6.34586e-05
5.08651e-07
6.30823e-05
1.28796e-06
6.25838e-05
1.74291e-06
6.20359e-05
1.74509e-06
6.14074e-05
1.17895e-06
6.10249e-05
-9.39627e-08
6.08688e-05
-6.55123e-07
6.07724e-05
-6.6461e-07
6.07355e-05
-3.1298e-07
6.0612e-05
7.25719e-07
6.03541e-05
1.59939e-06
6.00369e-05
2.01887e-06
5.97023e-05
2.10221e-06
5.96812e-05
2.07979e-06
6.00825e-05
2.18947e-06
6.16652e-05
2.37867e-06
6.51706e-05
3.14302e-06
6.70161e-05
3.96203e-06
6.86153e-05
6.22207e-06
6.59946e-05
9.85452e-06
6.08984e-05
9.34882e-06
5.32512e-05
1.15796e-05
4.57914e-05
9.76113e-06