/*--------------------------------*- C++ -*----------------------------------*\
| =========                 |                                                 |
| \\      /  F ield         | OpenFOAM: The Open Source CFD Toolbox           |
|  \\    /   O peration     | Version:  v2006                                 |
|   \\  /    A nd           | Website:  www.openfoam.com                      |
|    \\/     M anipulation  |                                                 |
\*---------------------------------------------------------------------------*/
FoamFile
{
    version     2.0;
    format      ascii;
    class       volScalarField;
    location    "7.3";
    object      k;
}
// * * * * * * * * * * * * * * * * * * * * * * * * * * * * * * * * * * * * * //

dimensions      [0 2 -2 0 0 0 0];


internalField   nonuniform List<scalar> 
33000
(
1.09338e-08
1.18936e-08
1.31554e-08
1.50717e-08
1.7883e-08
2.13886e-08
2.46311e-08
2.63022e-08
2.633e-08
2.6215e-08
2.71346e-08
2.96798e-08
3.40603e-08
3.97016e-08
4.55199e-08
5.12333e-08
5.68611e-08
6.25556e-08
6.89662e-08
7.6846e-08
8.65798e-08
9.7811e-08
1.08932e-07
1.17784e-07
1.2393e-07
1.29582e-07
1.39494e-07
1.58952e-07
1.94457e-07
2.52163e-07
3.31122e-07
4.19578e-07
5.02408e-07
5.69678e-07
6.18107e-07
6.49215e-07
6.66635e-07
6.74276e-07
6.75543e-07
6.72471e-07
6.68954e-07
6.67023e-07
6.64359e-07
6.60455e-07
6.5481e-07
6.46358e-07
6.38611e-07
6.35554e-07
6.34723e-07
6.31602e-07
6.25589e-07
6.15585e-07
6.02814e-07
5.91589e-07
5.83301e-07
5.79212e-07
5.80712e-07
5.88109e-07
5.97042e-07
6.02004e-07
6.02695e-07
5.98827e-07
5.90159e-07
5.76335e-07
5.5649e-07
5.29407e-07
4.94738e-07
4.56029e-07
4.21261e-07
3.93862e-07
3.73213e-07
3.56245e-07
3.38912e-07
3.2057e-07
3.01959e-07
2.84817e-07
2.70986e-07
2.61955e-07
2.59571e-07
2.67115e-07
2.85631e-07
3.13554e-07
3.45788e-07
3.77566e-07
4.03773e-07
4.23088e-07
4.36492e-07
4.4433e-07
4.45512e-07
4.42729e-07
4.34514e-07
4.20855e-07
4.03428e-07
3.82496e-07
3.59368e-07
3.35275e-07
3.12189e-07
2.91871e-07
2.764e-07
2.67853e-07
2.69274e-07
2.8081e-07
2.95662e-07
3.07945e-07
3.10612e-07
3.10212e-07
3.13598e-07
3.18262e-07
3.19977e-07
3.17362e-07
3.14602e-07
3.09743e-07
3.0507e-07
2.99866e-07
2.92763e-07
2.83343e-07
2.73358e-07
2.65466e-07
2.6295e-07
2.65689e-07
2.66473e-07
2.70107e-07
2.69287e-07
2.68215e-07
2.70892e-07
2.73289e-07
2.74889e-07
2.76231e-07
2.76588e-07
2.76815e-07
2.77441e-07
2.78021e-07
2.78535e-07
2.78738e-07
2.78755e-07
2.78652e-07
2.78494e-07
2.78379e-07
2.78266e-07
2.78154e-07
2.7802e-07
2.77858e-07
2.77637e-07
2.77324e-07
2.76907e-07
2.76369e-07
2.75725e-07
2.75006e-07
2.74234e-07
2.73418e-07
2.72534e-07
2.7156e-07
2.70504e-07
2.69392e-07
2.68241e-07
2.67035e-07
2.65753e-07
2.6438e-07
2.62916e-07
2.61363e-07
2.59729e-07
2.58008e-07
2.5619e-07
2.54267e-07
2.52227e-07
2.50072e-07
2.47807e-07
2.45446e-07
2.42988e-07
2.40454e-07
2.37913e-07
2.35413e-07
2.32975e-07
2.30618e-07
2.28382e-07
2.26475e-07
2.24986e-07
2.23906e-07
2.2323e-07
2.22949e-07
2.23038e-07
2.23429e-07
2.24082e-07
2.25027e-07
2.26301e-07
2.27885e-07
2.29655e-07
2.31493e-07
2.33333e-07
2.35096e-07
2.36723e-07
2.38172e-07
2.39398e-07
2.40337e-07
2.40959e-07
2.41293e-07
2.41411e-07
2.41406e-07
2.41305e-07
2.4106e-07
2.40575e-07
2.39804e-07
2.38806e-07
2.37682e-07
2.36504e-07
2.35274e-07
2.33944e-07
2.32497e-07
2.30995e-07
2.29532e-07
2.28147e-07
2.26768e-07
2.25325e-07
2.2386e-07
2.22515e-07
2.21378e-07
2.20439e-07
2.19604e-07
2.18769e-07
2.17905e-07
2.17094e-07
2.16445e-07
2.15987e-07
2.15663e-07
2.15364e-07
2.15e-07
2.14568e-07
2.14142e-07
2.13795e-07
2.13558e-07
2.13397e-07
2.13198e-07
2.12887e-07
2.12492e-07
2.12086e-07
2.11707e-07
2.11349e-07
2.10998e-07
2.10631e-07
2.10233e-07
2.09797e-07
2.09302e-07
2.08717e-07
2.08061e-07
2.07398e-07
2.06771e-07
2.06182e-07
2.05553e-07
2.04784e-07
2.03894e-07
2.0301e-07
2.02175e-07
2.01351e-07
2.00484e-07
1.99539e-07
1.98519e-07
1.9746e-07
1.96392e-07
1.95313e-07
1.94207e-07
1.93047e-07
1.91819e-07
1.90542e-07
1.89257e-07
1.87996e-07
1.86744e-07
1.85441e-07
1.84031e-07
1.82529e-07
1.81017e-07
1.79531e-07
1.78053e-07
1.76568e-07
1.75057e-07
1.73489e-07
1.71851e-07
1.70175e-07
1.68482e-07
1.66773e-07
1.65046e-07
1.63306e-07
1.61561e-07
1.59786e-07
1.57934e-07
1.56001e-07
1.54048e-07
1.52088e-07
1.50097e-07
1.48068e-07
1.46e-07
1.43874e-07
1.4167e-07
1.39389e-07
1.37013e-07
1.34497e-07
1.31918e-07
1.29347e-07
1.26774e-07
1.2419e-07
1.21602e-07
1.19012e-07
1.16426e-07
1.13844e-07
1.11247e-07
1.08612e-07
1.05953e-07
1.03306e-07
1.0072e-07
9.82317e-08
9.58588e-08
9.36184e-08
9.15234e-08
8.95792e-08
8.77763e-08
8.61053e-08
8.4573e-08
8.31895e-08
8.19522e-08
8.08583e-08
7.99086e-08
7.9106e-08
7.84476e-08
7.79225e-08
7.75191e-08
7.72265e-08
7.70387e-08
7.69483e-08
7.69416e-08
7.70033e-08
7.71212e-08
7.72876e-08
7.74941e-08
7.77335e-08
7.79976e-08
7.82757e-08
7.85587e-08
7.88376e-08
7.91019e-08
7.93383e-08
7.9536e-08
7.9689e-08
7.97972e-08
7.98636e-08
7.98935e-08
7.9889e-08
7.98481e-08
7.97709e-08
7.96603e-08
7.95215e-08
7.93567e-08
7.91664e-08
7.89477e-08
7.87001e-08
7.84272e-08
7.81318e-08
7.78133e-08
7.74721e-08
7.71101e-08
7.67283e-08
7.63277e-08
7.59098e-08
7.54758e-08
7.50262e-08
7.45619e-08
7.40847e-08
7.35954e-08
7.30941e-08
7.25816e-08
7.20602e-08
7.15324e-08
7.09985e-08
7.04574e-08
6.99068e-08
6.93476e-08
6.87807e-08
6.82063e-08
6.76225e-08
6.70286e-08
6.64248e-08
6.58118e-08
6.51863e-08
6.45483e-08
6.3899e-08
6.32406e-08
6.25728e-08
6.1896e-08
6.1212e-08
6.05208e-08
5.98236e-08
5.91227e-08
5.84195e-08
5.77128e-08
5.70022e-08
5.62906e-08
5.55805e-08
5.48726e-08
5.41685e-08
5.34703e-08
5.27768e-08
5.20881e-08
5.14051e-08
5.07306e-08
5.00663e-08
4.94123e-08
4.87693e-08
4.81379e-08
4.75171e-08
4.69109e-08
4.63206e-08
4.5746e-08
4.51883e-08
4.46416e-08
4.41097e-08
4.35812e-08
4.30718e-08
4.25694e-08
4.2072e-08
4.15889e-08
4.10951e-08
4.05921e-08
4.01317e-08
3.96643e-08
3.92084e-08
3.87897e-08
3.82078e-08
3.76277e-08
3.72797e-08
3.67079e-08
3.63963e-08
3.60406e-08
3.65758e-08
3.70116e-08
3.74602e-08
3.76612e-08
3.77629e-08
3.77064e-08
3.75776e-08
3.74088e-08
3.72331e-08
3.70422e-08
3.68179e-08
3.66692e-08
3.63649e-08
3.59931e-08
3.58279e-08
3.54112e-08
3.49076e-08
3.40958e-08
3.42169e-08
3.44494e-08
3.48689e-08
3.52546e-08
3.54354e-08
3.55304e-08
3.55228e-08
3.55162e-08
3.54248e-08
3.52196e-08
3.50189e-08
3.48208e-08
3.4496e-08
3.4471e-08
3.41364e-08
3.32354e-08
3.29138e-08
3.2177e-08
3.15561e-08
3.15958e-08
3.27261e-08
3.58136e-08
3.8294e-08
4.20544e-08
4.58831e-08
4.96296e-08
5.28679e-08
5.54702e-08
5.75351e-08
5.91628e-08
6.04365e-08
6.141e-08
6.21701e-08
6.27943e-08
6.32848e-08
6.36761e-08
6.40013e-08
6.42396e-08
6.44355e-08
6.46082e-08
6.47446e-08
6.48145e-08
6.487e-08
6.49371e-08
6.49857e-08
6.49953e-08
6.49706e-08
6.49339e-08
6.48958e-08
6.48448e-08
6.47861e-08
6.47105e-08
6.46435e-08
6.45476e-08
6.44053e-08
6.42521e-08
6.41079e-08
6.39744e-08
6.38447e-08
6.3711e-08
6.35751e-08
6.34362e-08
6.32961e-08
6.31614e-08
6.30446e-08
6.29102e-08
6.27865e-08
6.26994e-08
6.26208e-08
6.253e-08
6.24315e-08
6.233e-08
6.22305e-08
6.21395e-08
6.2058e-08
6.19865e-08
6.19252e-08
6.1874e-08
6.18318e-08
6.17957e-08
6.17662e-08
6.17468e-08
6.17418e-08
6.17559e-08
6.17853e-08
6.18221e-08
6.18649e-08
6.19193e-08
6.19971e-08
6.20943e-08
6.22052e-08
6.23007e-08
6.24095e-08
6.24553e-08
6.27718e-08
6.22555e-08
6.33218e-08
6.2011e-08
6.39516e-08
6.25109e-08
6.37651e-08
5.97311e-08
1.00109e-08
1.00708e-08
1.02596e-08
1.06525e-08
1.13018e-08
1.21943e-08
1.32937e-08
1.37948e-08
1.38676e-08
1.39877e-08
1.43973e-08
1.53402e-08
1.71662e-08
2.02091e-08
2.45047e-08
3.0192e-08
3.76969e-08
4.86063e-08
6.46678e-08
8.72196e-08
1.16747e-07
1.52428e-07
1.92131e-07
2.32098e-07
2.68118e-07
2.97814e-07
3.19521e-07
3.33967e-07
3.47414e-07
3.65941e-07
3.85206e-07
3.93287e-07
3.83507e-07
3.60248e-07
3.33611e-07
3.07882e-07
2.79228e-07
2.41104e-07
1.97384e-07
1.61843e-07
1.42283e-07
1.38677e-07
1.44679e-07
1.4529e-07
1.34699e-07
1.1886e-07
1.08073e-07
1.05516e-07
1.09839e-07
1.12721e-07
1.0724e-07
9.50386e-08
8.20905e-08
7.12775e-08
6.39008e-08
6.06822e-08
6.2286e-08
6.9368e-08
8.19314e-08
9.56776e-08
1.02773e-07
1.02356e-07
9.87579e-08
9.49137e-08
8.92304e-08
7.89864e-08
6.57176e-08
5.49753e-08
4.81535e-08
4.54133e-08
4.66396e-08
5.15619e-08
5.9659e-08
6.7738e-08
7.52057e-08
8.40593e-08
9.89532e-08
1.22055e-07
1.44706e-07
1.64936e-07
1.90322e-07
2.2162e-07
2.63038e-07
3.04841e-07
3.1679e-07
3.11873e-07
2.56169e-07
1.80701e-07
1.23908e-07
8.66669e-08
6.15637e-08
4.64382e-08
3.91744e-08
3.6353e-08
3.78381e-08
4.21206e-08
5.02692e-08
5.98362e-08
7.71232e-08
9.62234e-08
1.0497e-07
1.05334e-07
9.77325e-08
8.93424e-08
7.7535e-08
6.23637e-08
4.97995e-08
3.94405e-08
3.21054e-08
2.77561e-08
2.55967e-08
2.45855e-08
2.40586e-08
2.41253e-08
2.6382e-08
2.9484e-08
3.81268e-08
4.50631e-08
4.39729e-08
3.73534e-08
3.23771e-08
2.92353e-08
2.78142e-08
2.69602e-08
2.65472e-08
2.57425e-08
2.50668e-08
2.4672e-08
2.45685e-08
2.46372e-08
2.48331e-08
2.49929e-08
2.5087e-08
2.51992e-08
2.54147e-08
2.57205e-08
2.60348e-08
2.63192e-08
2.65795e-08
2.68697e-08
2.72171e-08
2.75869e-08
2.79192e-08
2.81655e-08
2.83336e-08
2.85124e-08
2.88016e-08
2.92232e-08
2.96836e-08
2.99835e-08
3.01161e-08
3.02813e-08
3.05856e-08
3.09471e-08
3.12553e-08
3.14798e-08
3.16538e-08
3.18225e-08
3.19814e-08
3.21115e-08
3.22789e-08
3.24995e-08
3.26001e-08
3.25622e-08
3.25939e-08
3.27611e-08
3.28168e-08
3.26385e-08
3.24766e-08
3.24784e-08
3.25152e-08
3.23875e-08
3.20039e-08
3.15955e-08
3.12729e-08
3.10653e-08
3.09001e-08
3.05499e-08
3.00559e-08
2.95292e-08
2.89075e-08
2.82773e-08
2.7763e-08
2.73061e-08
2.69023e-08
2.64389e-08
2.58544e-08
2.52499e-08
2.47036e-08
2.42604e-08
2.3851e-08
2.34187e-08
2.29495e-08
2.24445e-08
2.19367e-08
2.14695e-08
2.10798e-08
2.07518e-08
2.04107e-08
2.00234e-08
1.95829e-08
1.91573e-08
1.87976e-08
1.84849e-08
1.81808e-08
1.78677e-08
1.75351e-08
1.72184e-08
1.69525e-08
1.67274e-08
1.64811e-08
1.6176e-08
1.58783e-08
1.56348e-08
1.54417e-08
1.52864e-08
1.51242e-08
1.49256e-08
1.46987e-08
1.44852e-08
1.43148e-08
1.41812e-08
1.40749e-08
1.39642e-08
1.38351e-08
1.36976e-08
1.35682e-08
1.34635e-08
1.33822e-08
1.33212e-08
1.32593e-08
1.31885e-08
1.31199e-08
1.30621e-08
1.30184e-08
1.2986e-08
1.29593e-08
1.29351e-08
1.29121e-08
1.28906e-08
1.28709e-08
1.2851e-08
1.283e-08
1.28105e-08
1.2797e-08
1.279e-08
1.27847e-08
1.27743e-08
1.27579e-08
1.27411e-08
1.27298e-08
1.2723e-08
1.27169e-08
1.27081e-08
1.26959e-08
1.26816e-08
1.26676e-08
1.26551e-08
1.26438e-08
1.26318e-08
1.26182e-08
1.26037e-08
1.25915e-08
1.25847e-08
1.25822e-08
1.25779e-08
1.25668e-08
1.25493e-08
1.25317e-08
1.25202e-08
1.25159e-08
1.25164e-08
1.25166e-08
1.25123e-08
1.25029e-08
1.24914e-08
1.24808e-08
1.2472e-08
1.24652e-08
1.24616e-08
1.24616e-08
1.2462e-08
1.24572e-08
1.24461e-08
1.24336e-08
1.24238e-08
1.24176e-08
1.24143e-08
1.24121e-08
1.24071e-08
1.23967e-08
1.23825e-08
1.23683e-08
1.23563e-08
1.23473e-08
1.23388e-08
1.23265e-08
1.23095e-08
1.22892e-08
1.22679e-08
1.22487e-08
1.22306e-08
1.22089e-08
1.2182e-08
1.21516e-08
1.21211e-08
1.20906e-08
1.20573e-08
1.20209e-08
1.19839e-08
1.19501e-08
1.19199e-08
1.18898e-08
1.18562e-08
1.18201e-08
1.17863e-08
1.17563e-08
1.17276e-08
1.1699e-08
1.16707e-08
1.16446e-08
1.1622e-08
1.16012e-08
1.15806e-08
1.1561e-08
1.15448e-08
1.1533e-08
1.15232e-08
1.15133e-08
1.15043e-08
1.14987e-08
1.14984e-08
1.15014e-08
1.15034e-08
1.15023e-08
1.14997e-08
1.1498e-08
1.14983e-08
1.15004e-08
1.15025e-08
1.15024e-08
1.14999e-08
1.14967e-08
1.14948e-08
1.14948e-08
1.1494e-08
1.14904e-08
1.14846e-08
1.14793e-08
1.14764e-08
1.1475e-08
1.14721e-08
1.14665e-08
1.14612e-08
1.1458e-08
1.1455e-08
1.1451e-08
1.14467e-08
1.14425e-08
1.14383e-08
1.14341e-08
1.14298e-08
1.14252e-08
1.14209e-08
1.14169e-08
1.14126e-08
1.14069e-08
1.13996e-08
1.13914e-08
1.13836e-08
1.13762e-08
1.1368e-08
1.13576e-08
1.13455e-08
1.13336e-08
1.1322e-08
1.13101e-08
1.12975e-08
1.1285e-08
1.12728e-08
1.1259e-08
1.12425e-08
1.12248e-08
1.12077e-08
1.11914e-08
1.1175e-08
1.11589e-08
1.11414e-08
1.11224e-08
1.11034e-08
1.1086e-08
1.10686e-08
1.10496e-08
1.10298e-08
1.10109e-08
1.09916e-08
1.0973e-08
1.09557e-08
1.09388e-08
1.09209e-08
1.09012e-08
1.08806e-08
1.08615e-08
1.08432e-08
1.08257e-08
1.08084e-08
1.07889e-08
1.07677e-08
1.07473e-08
1.07279e-08
1.07109e-08
1.06934e-08
1.06772e-08
1.06566e-08
1.06388e-08
1.06249e-08
1.06096e-08
1.06018e-08
1.05939e-08
1.0573e-08
1.05599e-08
1.05579e-08
1.05763e-08
1.06298e-08
1.06673e-08
1.06433e-08
1.07296e-08
1.07272e-08
1.06575e-08
1.05422e-08
1.0464e-08
1.04549e-08
1.04554e-08
1.04565e-08
1.04645e-08
1.0453e-08
1.0437e-08
1.04221e-08
1.04271e-08
1.04445e-08
1.05035e-08
1.06568e-08
1.07461e-08
1.06874e-08
1.07825e-08
1.07073e-08
1.06085e-08
1.05042e-08
1.04583e-08
1.04441e-08
1.03908e-08
1.03257e-08
1.02877e-08
1.02959e-08
1.03143e-08
1.03439e-08
1.03644e-08
1.03616e-08
1.03654e-08
1.04513e-08
1.04952e-08
1.06778e-08
1.09641e-08
1.10287e-08
1.12929e-08
1.11255e-08
1.10783e-08
1.10318e-08
1.13942e-08
1.16235e-08
1.12065e-08
1.10926e-08
1.10317e-08
1.0941e-08
1.08096e-08
1.0707e-08
1.06616e-08
1.06718e-08
1.07079e-08
1.07282e-08
1.07365e-08
1.07557e-08
1.07724e-08
1.0786e-08
1.08041e-08
1.08043e-08
1.08056e-08
1.08173e-08
1.08324e-08
1.08256e-08
1.08159e-08
1.08246e-08
1.0838e-08
1.08453e-08
1.08395e-08
1.08305e-08
1.08283e-08
1.08244e-08
1.08233e-08
1.0819e-08
1.08241e-08
1.08273e-08
1.08125e-08
1.07916e-08
1.07738e-08
1.07626e-08
1.07576e-08
1.07544e-08
1.07499e-08
1.07442e-08
1.07373e-08
1.07283e-08
1.0726e-08
1.07157e-08
1.07035e-08
1.07032e-08
1.07081e-08
1.07092e-08
1.07053e-08
1.06978e-08
1.06878e-08
1.06775e-08
1.06688e-08
1.06619e-08
1.06564e-08
1.06519e-08
1.0648e-08
1.06426e-08
1.06362e-08
1.06299e-08
1.06248e-08
1.06221e-08
1.06206e-08
1.06179e-08
1.06128e-08
1.06067e-08
1.06037e-08
1.06021e-08
1.06023e-08
1.0596e-08
1.05929e-08
1.05979e-08
1.05851e-08
1.05787e-08
1.05608e-08
1.05738e-08
1.06063e-08
1.06429e-08
1.07383e-08
1.06702e-08
1.00041e-08
1.00262e-08
1.0103e-08
1.02865e-08
1.05941e-08
1.0941e-08
1.11699e-08
1.12745e-08
1.13951e-08
1.16183e-08
1.19972e-08
1.25718e-08
1.34001e-08
1.47001e-08
1.7392e-08
2.20394e-08
2.96247e-08
4.23347e-08
6.30481e-08
9.34144e-08
1.33756e-07
1.83755e-07
2.4082e-07
2.99208e-07
3.49831e-07
3.80849e-07
3.90579e-07
3.86913e-07
3.7566e-07
3.57356e-07
3.29122e-07
2.91467e-07
2.50479e-07
2.12136e-07
1.82396e-07
1.58481e-07
1.3697e-07
1.14057e-07
9.06778e-08
7.15088e-08
6.00315e-08
5.55743e-08
5.50733e-08
5.41192e-08
5.09018e-08
4.58528e-08
4.17955e-08
4.02851e-08
4.06778e-08
4.08744e-08
3.94185e-08
3.61964e-08
3.19669e-08
2.79162e-08
2.49604e-08
2.34165e-08
2.34106e-08
2.49293e-08
2.75348e-08
3.01332e-08
3.16133e-08
3.20592e-08
3.22882e-08
3.26857e-08
3.22745e-08
3.05184e-08
2.77314e-08
2.48014e-08
2.27348e-08
2.2104e-08
2.27822e-08
2.44984e-08
2.67493e-08
2.90464e-08
3.11358e-08
3.35376e-08
3.7459e-08
4.54486e-08
6.03441e-08
7.70663e-08
9.99938e-08
1.2535e-07
1.50694e-07
1.79284e-07
2.04661e-07
2.24952e-07
2.28088e-07
2.12111e-07
1.79338e-07
1.36668e-07
9.34973e-08
6.50622e-08
4.62039e-08
3.3935e-08
2.75656e-08
2.52906e-08
2.55526e-08
2.72148e-08
3.0266e-08
3.53458e-08
3.86509e-08
4.02674e-08
4.0177e-08
3.79498e-08
3.32889e-08
2.79986e-08
2.39656e-08
2.11861e-08
1.88964e-08
1.69731e-08
1.54752e-08
1.42338e-08
1.33283e-08
1.26704e-08
1.22911e-08
1.22546e-08
1.2926e-08
1.40665e-08
1.4473e-08
1.45481e-08
1.43712e-08
1.39386e-08
1.33042e-08
1.28934e-08
1.26047e-08
1.23657e-08
1.21409e-08
1.19927e-08
1.18773e-08
1.1806e-08
1.1774e-08
1.17474e-08
1.17238e-08
1.17415e-08
1.17804e-08
1.18295e-08
1.18739e-08
1.19083e-08
1.19398e-08
1.19805e-08
1.2034e-08
1.20917e-08
1.21416e-08
1.21782e-08
1.22046e-08
1.22366e-08
1.22879e-08
1.23568e-08
1.24245e-08
1.24677e-08
1.24938e-08
1.25312e-08
1.25895e-08
1.26512e-08
1.26994e-08
1.27381e-08
1.2777e-08
1.28178e-08
1.28525e-08
1.28792e-08
1.29111e-08
1.29496e-08
1.29693e-08
1.2968e-08
1.29785e-08
1.30097e-08
1.3021e-08
1.29905e-08
1.29604e-08
1.29588e-08
1.29592e-08
1.29305e-08
1.28594e-08
1.27784e-08
1.27079e-08
1.26529e-08
1.26056e-08
1.25304e-08
1.24327e-08
1.2328e-08
1.22076e-08
1.2086e-08
1.1982e-08
1.18899e-08
1.181e-08
1.17277e-08
1.16328e-08
1.15358e-08
1.14456e-08
1.13688e-08
1.13011e-08
1.12366e-08
1.11724e-08
1.11062e-08
1.10401e-08
1.09793e-08
1.09278e-08
1.0884e-08
1.08422e-08
1.07987e-08
1.07524e-08
1.07081e-08
1.06696e-08
1.06359e-08
1.06041e-08
1.0573e-08
1.05423e-08
1.05138e-08
1.0489e-08
1.0467e-08
1.04446e-08
1.042e-08
1.03962e-08
1.03755e-08
1.03585e-08
1.03446e-08
1.03314e-08
1.03172e-08
1.03019e-08
1.02869e-08
1.02741e-08
1.02638e-08
1.02555e-08
1.02479e-08
1.02401e-08
1.0232e-08
1.02242e-08
1.02173e-08
1.02117e-08
1.02074e-08
1.02037e-08
1.01999e-08
1.01957e-08
1.01919e-08
1.01889e-08
1.0187e-08
1.01858e-08
1.01849e-08
1.0184e-08
1.01827e-08
1.01814e-08
1.01802e-08
1.01792e-08
1.01786e-08
1.01784e-08
1.01785e-08
1.01787e-08
1.01785e-08
1.01779e-08
1.01774e-08
1.01774e-08
1.01776e-08
1.01777e-08
1.01776e-08
1.01772e-08
1.01768e-08
1.01766e-08
1.01764e-08
1.01761e-08
1.01755e-08
1.01746e-08
1.01738e-08
1.01733e-08
1.01732e-08
1.01733e-08
1.01731e-08
1.01724e-08
1.01711e-08
1.01698e-08
1.0169e-08
1.01687e-08
1.01687e-08
1.01686e-08
1.01682e-08
1.01675e-08
1.01667e-08
1.01659e-08
1.01651e-08
1.01645e-08
1.01642e-08
1.01642e-08
1.01642e-08
1.01638e-08
1.0163e-08
1.0162e-08
1.01614e-08
1.01611e-08
1.01609e-08
1.01608e-08
1.01605e-08
1.01599e-08
1.01591e-08
1.01584e-08
1.01579e-08
1.01575e-08
1.01572e-08
1.01566e-08
1.0156e-08
1.01552e-08
1.01543e-08
1.01533e-08
1.01525e-08
1.01516e-08
1.01505e-08
1.01492e-08
1.01478e-08
1.01464e-08
1.0145e-08
1.01434e-08
1.01417e-08
1.01402e-08
1.01388e-08
1.01375e-08
1.01359e-08
1.01341e-08
1.01324e-08
1.01309e-08
1.01295e-08
1.01282e-08
1.01269e-08
1.01258e-08
1.01247e-08
1.01238e-08
1.01229e-08
1.01221e-08
1.01216e-08
1.01213e-08
1.01211e-08
1.01208e-08
1.01206e-08
1.01206e-08
1.0121e-08
1.01215e-08
1.01218e-08
1.01219e-08
1.01218e-08
1.01217e-08
1.01218e-08
1.01218e-08
1.01219e-08
1.01218e-08
1.01216e-08
1.01213e-08
1.01211e-08
1.0121e-08
1.01208e-08
1.01204e-08
1.01199e-08
1.01194e-08
1.01191e-08
1.01189e-08
1.01186e-08
1.01181e-08
1.01176e-08
1.01173e-08
1.0117e-08
1.01166e-08
1.01162e-08
1.01159e-08
1.01155e-08
1.01151e-08
1.01148e-08
1.01145e-08
1.01142e-08
1.01139e-08
1.01136e-08
1.01133e-08
1.01128e-08
1.01124e-08
1.0112e-08
1.01116e-08
1.01112e-08
1.01105e-08
1.01099e-08
1.01092e-08
1.01086e-08
1.0108e-08
1.01073e-08
1.01067e-08
1.0106e-08
1.01052e-08
1.01043e-08
1.01034e-08
1.01024e-08
1.01015e-08
1.01007e-08
1.00998e-08
1.00988e-08
1.00977e-08
1.00966e-08
1.00956e-08
1.00946e-08
1.00935e-08
1.00924e-08
1.00914e-08
1.00903e-08
1.00892e-08
1.00882e-08
1.00872e-08
1.00862e-08
1.00851e-08
1.00838e-08
1.00827e-08
1.00816e-08
1.00806e-08
1.00796e-08
1.00783e-08
1.00771e-08
1.00759e-08
1.00747e-08
1.00736e-08
1.00728e-08
1.00723e-08
1.00717e-08
1.00711e-08
1.00704e-08
1.00698e-08
1.00691e-08
1.00689e-08
1.0069e-08
1.007e-08
1.00707e-08
1.00694e-08
1.00703e-08
1.00705e-08
1.00691e-08
1.00683e-08
1.00676e-08
1.00674e-08
1.00668e-08
1.00662e-08
1.00653e-08
1.00636e-08
1.00616e-08
1.00603e-08
1.00595e-08
1.00591e-08
1.00594e-08
1.0061e-08
1.00625e-08
1.00624e-08
1.00662e-08
1.00649e-08
1.0061e-08
1.00567e-08
1.00554e-08
1.00555e-08
1.00554e-08
1.00557e-08
1.00553e-08
1.00543e-08
1.00541e-08
1.00535e-08
1.00537e-08
1.00538e-08
1.00536e-08
1.00545e-08
1.00553e-08
1.00582e-08
1.00679e-08
1.00756e-08
1.00877e-08
1.00991e-08
1.01021e-08
1.0095e-08
1.00986e-08
1.01063e-08
1.0098e-08
1.01121e-08
1.01221e-08
1.01194e-08
1.01145e-08
1.01048e-08
1.00929e-08
1.00812e-08
1.00722e-08
1.00662e-08
1.00627e-08
1.00606e-08
1.0059e-08
1.00576e-08
1.0057e-08
1.00566e-08
1.00563e-08
1.00562e-08
1.0056e-08
1.00559e-08
1.00561e-08
1.00566e-08
1.00566e-08
1.00566e-08
1.00569e-08
1.00574e-08
1.00578e-08
1.00579e-08
1.00579e-08
1.00579e-08
1.00579e-08
1.0058e-08
1.0058e-08
1.00582e-08
1.00583e-08
1.00578e-08
1.00573e-08
1.00568e-08
1.00565e-08
1.00564e-08
1.00564e-08
1.00563e-08
1.00563e-08
1.00563e-08
1.00562e-08
1.00562e-08
1.0056e-08
1.00558e-08
1.00559e-08
1.0056e-08
1.0056e-08
1.00559e-08
1.00557e-08
1.00555e-08
1.00552e-08
1.0055e-08
1.00549e-08
1.00548e-08
1.00547e-08
1.00546e-08
1.00544e-08
1.00541e-08
1.00539e-08
1.00537e-08
1.00537e-08
1.00538e-08
1.00538e-08
1.00536e-08
1.00534e-08
1.00534e-08
1.00534e-08
1.00533e-08
1.00531e-08
1.00529e-08
1.0053e-08
1.0053e-08
1.00525e-08
1.00523e-08
1.00528e-08
1.00543e-08
1.00564e-08
1.00601e-08
1.00575e-08
1.00034e-08
1.00193e-08
1.00743e-08
1.01963e-08
1.03804e-08
1.05708e-08
1.07107e-08
1.08397e-08
1.10432e-08
1.1401e-08
1.20005e-08
1.29178e-08
1.42202e-08
1.60688e-08
1.88604e-08
2.33107e-08
3.02636e-08
4.07847e-08
5.60831e-08
7.7519e-08
1.05416e-07
1.37844e-07
1.69971e-07
1.95012e-07
2.09407e-07
2.27491e-07
2.48649e-07
2.62498e-07
2.62591e-07
2.41416e-07
2.05793e-07
1.67001e-07
1.32606e-07
1.06492e-07
8.87836e-08
7.60243e-08
6.49894e-08
5.33613e-08
4.27185e-08
3.45254e-08
2.94024e-08
2.69934e-08
2.62377e-08
2.56388e-08
2.45689e-08
2.29499e-08
2.14622e-08
2.0781e-08
2.07542e-08
2.06711e-08
2.01962e-08
1.92672e-08
1.79411e-08
1.66344e-08
1.55637e-08
1.48481e-08
1.45825e-08
1.47652e-08
1.5125e-08
1.53815e-08
1.55804e-08
1.59329e-08
1.6549e-08
1.71484e-08
1.73569e-08
1.71274e-08
1.64983e-08
1.56627e-08
1.49643e-08
1.47087e-08
1.49177e-08
1.55651e-08
1.65175e-08
1.76669e-08
1.89932e-08
2.04904e-08
2.21219e-08
2.41689e-08
2.81338e-08
3.45767e-08
4.55869e-08
6.29625e-08
8.16798e-08
1.04102e-07
1.23991e-07
1.38096e-07
1.48162e-07
1.48743e-07
1.39392e-07
1.22448e-07
1.02026e-07
8.11884e-08
6.19216e-08
4.60606e-08
3.45193e-08
2.69712e-08
2.24037e-08
2.00329e-08
1.91817e-08
1.92452e-08
1.9363e-08
1.9455e-08
1.9725e-08
1.94383e-08
1.87085e-08
1.77734e-08
1.67077e-08
1.57999e-08
1.49313e-08
1.43054e-08
1.38664e-08
1.34441e-08
1.29422e-08
1.24069e-08
1.18911e-08
1.14633e-08
1.11421e-08
1.09414e-08
1.08043e-08
1.07787e-08
1.07968e-08
1.07746e-08
1.07509e-08
1.07273e-08
1.06781e-08
1.06025e-08
1.05471e-08
1.04971e-08
1.04487e-08
1.04044e-08
1.0373e-08
1.0349e-08
1.03328e-08
1.03237e-08
1.03219e-08
1.03252e-08
1.03299e-08
1.03362e-08
1.03425e-08
1.03489e-08
1.03563e-08
1.03644e-08
1.03721e-08
1.03783e-08
1.03836e-08
1.03897e-08
1.03985e-08
1.04092e-08
1.0419e-08
1.04257e-08
1.04312e-08
1.04389e-08
1.04493e-08
1.04594e-08
1.04669e-08
1.04734e-08
1.04812e-08
1.04898e-08
1.04971e-08
1.05027e-08
1.05084e-08
1.05141e-08
1.05172e-08
1.05181e-08
1.05207e-08
1.05252e-08
1.05265e-08
1.05212e-08
1.05151e-08
1.0513e-08
1.05108e-08
1.05042e-08
1.04914e-08
1.04759e-08
1.04612e-08
1.04485e-08
1.04373e-08
1.04226e-08
1.04047e-08
1.03854e-08
1.0364e-08
1.03426e-08
1.03237e-08
1.03068e-08
1.02921e-08
1.0278e-08
1.02629e-08
1.02476e-08
1.0233e-08
1.02201e-08
1.02089e-08
1.01987e-08
1.01892e-08
1.01799e-08
1.01707e-08
1.01621e-08
1.01546e-08
1.01482e-08
1.01424e-08
1.01367e-08
1.0131e-08
1.01255e-08
1.01206e-08
1.01163e-08
1.01123e-08
1.01085e-08
1.0105e-08
1.01017e-08
1.00988e-08
1.00961e-08
1.00935e-08
1.00908e-08
1.00883e-08
1.00861e-08
1.00842e-08
1.00825e-08
1.0081e-08
1.00794e-08
1.00778e-08
1.00763e-08
1.0075e-08
1.00738e-08
1.00728e-08
1.00718e-08
1.00709e-08
1.00701e-08
1.00692e-08
1.00685e-08
1.00678e-08
1.00672e-08
1.00667e-08
1.00661e-08
1.00656e-08
1.00652e-08
1.00648e-08
1.00644e-08
1.00641e-08
1.00638e-08
1.00636e-08
1.00633e-08
1.00631e-08
1.00628e-08
1.00626e-08
1.00624e-08
1.00622e-08
1.00621e-08
1.0062e-08
1.00618e-08
1.00617e-08
1.00616e-08
1.00615e-08
1.00614e-08
1.00613e-08
1.00613e-08
1.00612e-08
1.00611e-08
1.00611e-08
1.0061e-08
1.00609e-08
1.00608e-08
1.00607e-08
1.00606e-08
1.00605e-08
1.00604e-08
1.00604e-08
1.00604e-08
1.00603e-08
1.00602e-08
1.006e-08
1.00599e-08
1.00599e-08
1.00598e-08
1.00598e-08
1.00597e-08
1.00596e-08
1.00595e-08
1.00595e-08
1.00594e-08
1.00593e-08
1.00592e-08
1.00592e-08
1.00591e-08
1.00591e-08
1.0059e-08
1.00589e-08
1.00589e-08
1.00588e-08
1.00588e-08
1.00587e-08
1.00587e-08
1.00586e-08
1.00586e-08
1.00585e-08
1.00584e-08
1.00583e-08
1.00582e-08
1.00581e-08
1.0058e-08
1.00579e-08
1.00578e-08
1.00577e-08
1.00575e-08
1.00574e-08
1.00573e-08
1.00571e-08
1.00569e-08
1.00567e-08
1.00566e-08
1.00564e-08
1.00562e-08
1.0056e-08
1.00558e-08
1.00556e-08
1.00554e-08
1.00552e-08
1.00549e-08
1.00547e-08
1.00545e-08
1.00543e-08
1.00541e-08
1.00539e-08
1.00536e-08
1.00534e-08
1.00532e-08
1.0053e-08
1.00528e-08
1.00526e-08
1.00525e-08
1.00523e-08
1.00522e-08
1.0052e-08
1.00519e-08
1.00517e-08
1.00516e-08
1.00515e-08
1.00513e-08
1.00512e-08
1.0051e-08
1.00509e-08
1.00508e-08
1.00507e-08
1.00505e-08
1.00504e-08
1.00503e-08
1.00502e-08
1.005e-08
1.00499e-08
1.00498e-08
1.00496e-08
1.00495e-08
1.00494e-08
1.00493e-08
1.00492e-08
1.00491e-08
1.00489e-08
1.00488e-08
1.00488e-08
1.00487e-08
1.00486e-08
1.00485e-08
1.00484e-08
1.00483e-08
1.00483e-08
1.00482e-08
1.00481e-08
1.0048e-08
1.00479e-08
1.00479e-08
1.00478e-08
1.00477e-08
1.00476e-08
1.00475e-08
1.00474e-08
1.00473e-08
1.00472e-08
1.00471e-08
1.0047e-08
1.00469e-08
1.00468e-08
1.00466e-08
1.00465e-08
1.00464e-08
1.00462e-08
1.00461e-08
1.0046e-08
1.00459e-08
1.00457e-08
1.00456e-08
1.00455e-08
1.00453e-08
1.00452e-08
1.00451e-08
1.00449e-08
1.00448e-08
1.00447e-08
1.00445e-08
1.00444e-08
1.00443e-08
1.00441e-08
1.0044e-08
1.00438e-08
1.00437e-08
1.00436e-08
1.00434e-08
1.00432e-08
1.0043e-08
1.00428e-08
1.00427e-08
1.00427e-08
1.00427e-08
1.00427e-08
1.00426e-08
1.00426e-08
1.00427e-08
1.00425e-08
1.00428e-08
1.00431e-08
1.00434e-08
1.00437e-08
1.00438e-08
1.00445e-08
1.00448e-08
1.00442e-08
1.00436e-08
1.0043e-08
1.00429e-08
1.00424e-08
1.00422e-08
1.00419e-08
1.00412e-08
1.00414e-08
1.00416e-08
1.00416e-08
1.0042e-08
1.00424e-08
1.00426e-08
1.00428e-08
1.00432e-08
1.00441e-08
1.00448e-08
1.0044e-08
1.0043e-08
1.0042e-08
1.00416e-08
1.0041e-08
1.00407e-08
1.00403e-08
1.00398e-08
1.004e-08
1.004e-08
1.00402e-08
1.00402e-08
1.00409e-08
1.00413e-08
1.00416e-08
1.00427e-08
1.00457e-08
1.00508e-08
1.00582e-08
1.00667e-08
1.00719e-08
1.00719e-08
1.00687e-08
1.00641e-08
1.00582e-08
1.00542e-08
1.00512e-08
1.00487e-08
1.0047e-08
1.00458e-08
1.00452e-08
1.00445e-08
1.00438e-08
1.00428e-08
1.00418e-08
1.00409e-08
1.00401e-08
1.00394e-08
1.00388e-08
1.00382e-08
1.00377e-08
1.00372e-08
1.00369e-08
1.00366e-08
1.00363e-08
1.00361e-08
1.00359e-08
1.00359e-08
1.00359e-08
1.00358e-08
1.00358e-08
1.00358e-08
1.00358e-08
1.00358e-08
1.00359e-08
1.00359e-08
1.0036e-08
1.00361e-08
1.00362e-08
1.00363e-08
1.00363e-08
1.00363e-08
1.00363e-08
1.00362e-08
1.00361e-08
1.00361e-08
1.00361e-08
1.00362e-08
1.00362e-08
1.00363e-08
1.00363e-08
1.00364e-08
1.00364e-08
1.00364e-08
1.00364e-08
1.00364e-08
1.00364e-08
1.00363e-08
1.00362e-08
1.00361e-08
1.00361e-08
1.0036e-08
1.0036e-08
1.0036e-08
1.0036e-08
1.0036e-08
1.00358e-08
1.00357e-08
1.00355e-08
1.00354e-08
1.00354e-08
1.00354e-08
1.00354e-08
1.00353e-08
1.00353e-08
1.00353e-08
1.00353e-08
1.00352e-08
1.00352e-08
1.00351e-08
1.0035e-08
1.0035e-08
1.00349e-08
1.00349e-08
1.00349e-08
1.00352e-08
1.00358e-08
1.00368e-08
1.00386e-08
1.00371e-08
1.00029e-08
1.00159e-08
1.00563e-08
1.01417e-08
1.02676e-08
1.04017e-08
1.0519e-08
1.06546e-08
1.08734e-08
1.12591e-08
1.19462e-08
1.31221e-08
1.49304e-08
1.74144e-08
2.06554e-08
2.4917e-08
3.07033e-08
3.8564e-08
4.89215e-08
6.21001e-08
7.79408e-08
9.4152e-08
1.06653e-07
1.15742e-07
1.26056e-07
1.40016e-07
1.53685e-07
1.58219e-07
1.49395e-07
1.28802e-07
1.03856e-07
8.13409e-08
6.41386e-08
5.22447e-08
4.44194e-08
3.85012e-08
3.30309e-08
2.78137e-08
2.34257e-08
2.0233e-08
1.80876e-08
1.68329e-08
1.62654e-08
1.59235e-08
1.54858e-08
1.49748e-08
1.45644e-08
1.43024e-08
1.42419e-08
1.41848e-08
1.39662e-08
1.36567e-08
1.32123e-08
1.27635e-08
1.23755e-08
1.20834e-08
1.18972e-08
1.18458e-08
1.18397e-08
1.18531e-08
1.19108e-08
1.20529e-08
1.23161e-08
1.263e-08
1.28231e-08
1.28087e-08
1.26945e-08
1.24748e-08
1.22821e-08
1.21864e-08
1.22226e-08
1.24191e-08
1.27826e-08
1.32944e-08
1.39442e-08
1.47246e-08
1.55425e-08
1.65675e-08
1.81108e-08
2.0217e-08
2.30871e-08
2.81117e-08
3.48591e-08
4.52931e-08
5.81825e-08
6.93e-08
7.91611e-08
8.60803e-08
8.6541e-08
8.11424e-08
7.26972e-08
6.21451e-08
5.15315e-08
4.20942e-08
3.42569e-08
2.80339e-08
2.32452e-08
1.97762e-08
1.74402e-08
1.59198e-08
1.4958e-08
1.43812e-08
1.4047e-08
1.37188e-08
1.34378e-08
1.32265e-08
1.30092e-08
1.27994e-08
1.26075e-08
1.24828e-08
1.24038e-08
1.23183e-08
1.22437e-08
1.21696e-08
1.20364e-08
1.1819e-08
1.15438e-08
1.12474e-08
1.09754e-08
1.07355e-08
1.05491e-08
1.04105e-08
1.03312e-08
1.02908e-08
1.02664e-08
1.02538e-08
1.02481e-08
1.02427e-08
1.02378e-08
1.02339e-08
1.02222e-08
1.02037e-08
1.01838e-08
1.01666e-08
1.01534e-08
1.01445e-08
1.01382e-08
1.01335e-08
1.01302e-08
1.01279e-08
1.01267e-08
1.01265e-08
1.01269e-08
1.01274e-08
1.0128e-08
1.01291e-08
1.01305e-08
1.01323e-08
1.01338e-08
1.0135e-08
1.01363e-08
1.0138e-08
1.014e-08
1.01418e-08
1.01432e-08
1.01445e-08
1.01462e-08
1.0148e-08
1.01496e-08
1.01508e-08
1.01519e-08
1.01528e-08
1.01532e-08
1.01535e-08
1.0154e-08
1.01545e-08
1.01545e-08
1.01534e-08
1.01519e-08
1.0151e-08
1.015e-08
1.01484e-08
1.01458e-08
1.01426e-08
1.01394e-08
1.01365e-08
1.01338e-08
1.01307e-08
1.01271e-08
1.01233e-08
1.01192e-08
1.01153e-08
1.01117e-08
1.01084e-08
1.01055e-08
1.01027e-08
1.01e-08
1.00974e-08
1.00948e-08
1.00924e-08
1.00904e-08
1.00885e-08
1.00868e-08
1.00852e-08
1.00836e-08
1.00822e-08
1.00809e-08
1.00797e-08
1.00786e-08
1.00776e-08
1.00767e-08
1.00757e-08
1.00748e-08
1.0074e-08
1.00732e-08
1.00725e-08
1.00718e-08
1.00711e-08
1.00704e-08
1.00698e-08
1.00692e-08
1.00687e-08
1.00681e-08
1.00675e-08
1.0067e-08
1.00665e-08
1.0066e-08
1.00655e-08
1.00651e-08
1.00646e-08
1.00642e-08
1.00637e-08
1.00633e-08
1.00629e-08
1.00625e-08
1.00622e-08
1.00618e-08
1.00615e-08
1.00611e-08
1.00608e-08
1.00605e-08
1.00602e-08
1.00599e-08
1.00597e-08
1.00594e-08
1.00592e-08
1.00589e-08
1.00587e-08
1.00585e-08
1.00583e-08
1.00581e-08
1.00579e-08
1.00577e-08
1.00575e-08
1.00573e-08
1.00572e-08
1.00571e-08
1.00569e-08
1.00568e-08
1.00566e-08
1.00565e-08