/*--------------------------------*- C++ -*----------------------------------*\
| =========                 |                                                 |
| \\      /  F ield         | OpenFOAM: The Open Source CFD Toolbox           |
|  \\    /   O peration     | Version:  v2006                                 |
|   \\  /    A nd           | Website:  www.openfoam.com                      |
|    \\/     M anipulation  |                                                 |
\*---------------------------------------------------------------------------*/
FoamFile
{
    version     2.0;
    format      ascii;
    class       volScalarField;
    location    "7.3";
    object      nut;
}
// * * * * * * * * * * * * * * * * * * * * * * * * * * * * * * * * * * * * * //

dimensions      [0 2 -1 0 0 0 0];


internalField   nonuniform List<scalar> 
33000
(
7.93242e-10
9.33285e-10
1.03127e-09
1.14739e-09
1.34916e-09
1.63859e-09
1.90071e-09
1.96167e-09
1.59e-09
1.15908e-09
9.27271e-10
8.6624e-10
9.43143e-10
1.10809e-09
1.30407e-09
1.53066e-09
1.78377e-09
1.99046e-09
2.17071e-09
2.37542e-09
2.64237e-09
2.90506e-09
3.05509e-09
3.11765e-09
3.20246e-09
3.38271e-09
3.71414e-09
4.24289e-09
5.19259e-09
7.22153e-09
1.06341e-08
1.44519e-08
1.77992e-08
2.05699e-08
2.25623e-08
2.40789e-08
2.56557e-08
2.70383e-08
2.75294e-08
2.71804e-08
2.66675e-08
2.62326e-08
2.61619e-08
2.66575e-08
2.70286e-08
2.6753e-08
2.60318e-08
2.54067e-08
2.52334e-08
2.54924e-08
2.57072e-08
2.54314e-08
2.4745e-08
2.40627e-08
2.34885e-08
2.30372e-08
2.27904e-08
2.27399e-08
2.28534e-08
2.32106e-08
2.37209e-08
2.38754e-08
2.35242e-08
2.29637e-08
2.24172e-08
2.17418e-08
2.06154e-08
1.89831e-08
1.72966e-08
1.59295e-08
1.4952e-08
1.42364e-08
1.36579e-08
1.30736e-08
1.2322e-08
1.16338e-08
1.05635e-08
1.0707e-08
1.31734e-08
1.38358e-08
1.52655e-08
1.81825e-08
1.99682e-08
2.56704e-08
2.88643e-08
3.09722e-08
3.34499e-08
3.52542e-08
3.47889e-08
3.44031e-08
3.46708e-08
3.3532e-08
3.23017e-08
3.06237e-08
2.8786e-08
2.68443e-08
2.50935e-08
2.32136e-08
2.18154e-08
2.4197e-08
3.05143e-08
3.74683e-08
3.8248e-08
3.79738e-08
4.26673e-08
4.69487e-08
5.14864e-08
5.41187e-08
5.52457e-08
5.00494e-08
4.62415e-08
4.46951e-08
4.33958e-08
4.29243e-08
4.18281e-08
3.94713e-08
3.73808e-08
4.09329e-08
4.64432e-08
4.74577e-08
4.47062e-08
4.34933e-08
4.54417e-08
4.52706e-08
4.67976e-08
4.69397e-08
4.498e-08
4.36451e-08
4.30482e-08
4.24472e-08
4.22384e-08
4.18976e-08
4.13527e-08
4.0837e-08
4.03193e-08
3.98568e-08
3.94336e-08
3.90567e-08
3.87148e-08
3.83552e-08
3.80122e-08
3.76898e-08
3.74299e-08
3.72174e-08
3.70323e-08
3.68618e-08
3.66966e-08
3.65532e-08
3.64498e-08
3.64134e-08
3.64234e-08
3.64245e-08
3.64388e-08
3.64997e-08
3.66147e-08
3.67742e-08
3.69643e-08
3.71809e-08
3.74359e-08
3.77366e-08
3.80716e-08
3.84568e-08
3.89218e-08
3.94362e-08
3.99712e-08
4.05848e-08
4.13305e-08
4.21775e-08
4.30826e-08
4.40983e-08
4.53275e-08
4.68524e-08
4.86481e-08
5.06788e-08
5.30526e-08
5.59098e-08
5.95261e-08
6.41671e-08
6.98633e-08
7.69403e-08
8.58659e-08
9.67828e-08
1.10492e-07
1.28127e-07
1.50822e-07
1.80919e-07
2.18231e-07
2.56039e-07
2.78772e-07
2.72984e-07
2.48025e-07
2.18275e-07
1.91291e-07
1.69099e-07
1.50993e-07
1.36258e-07
1.24058e-07
1.13777e-07
1.0521e-07
9.80246e-08
9.20256e-08
8.68722e-08
8.22367e-08
7.80808e-08
7.43888e-08
7.11e-08
6.81932e-08
6.5599e-08
6.32211e-08
6.10163e-08
5.89988e-08
5.72468e-08
5.56825e-08
5.42238e-08
5.29032e-08
5.1695e-08
5.06039e-08
4.96392e-08
4.87896e-08
4.80277e-08
4.73314e-08
4.67239e-08
4.6187e-08
4.57071e-08
4.5286e-08
4.49081e-08
4.45697e-08
4.42724e-08
4.4028e-08
4.38199e-08
4.36346e-08
4.3478e-08
4.33413e-08
4.32253e-08
4.31349e-08
4.30665e-08
4.30149e-08
4.29866e-08
4.29745e-08
4.29703e-08
4.29778e-08
4.29855e-08
4.30013e-08
4.30334e-08
4.30727e-08
4.31329e-08
4.32021e-08
4.32497e-08
4.32992e-08
4.3367e-08
4.34394e-08
4.35225e-08
4.36075e-08
4.36838e-08
4.37621e-08
4.38405e-08
4.39214e-08
4.40059e-08
4.40894e-08
4.41669e-08
4.42412e-08
4.43127e-08
4.43891e-08
4.44784e-08
4.45709e-08
4.46583e-08
4.47244e-08
4.47805e-08
4.48517e-08
4.49301e-08
4.5012e-08
4.51053e-08
4.51998e-08
4.52864e-08
4.53641e-08
4.54417e-08
4.55285e-08
4.56198e-08
4.57137e-08
4.58179e-08
4.59377e-08
4.60567e-08
4.61577e-08
4.62479e-08
4.63533e-08
4.64738e-08
4.65899e-08
4.67084e-08
4.68334e-08
4.69545e-08
4.70625e-08
4.71628e-08
4.72605e-08
4.73434e-08
4.73898e-08
4.74324e-08
4.74863e-08
4.75439e-08
4.76183e-08
4.77129e-08
4.78301e-08
4.79835e-08
4.81617e-08
4.83361e-08
4.85302e-08
4.87577e-08
4.90327e-08
4.93784e-08
4.98082e-08
5.03488e-08
5.10337e-08
5.19e-08
5.2947e-08
5.41541e-08
5.55413e-08
5.71811e-08
5.91128e-08
6.13366e-08
6.3878e-08
6.67714e-08
7.00663e-08
7.38056e-08
7.80389e-08
8.27757e-08
8.80148e-08
9.38516e-08
9.50592e-08
9.5051e-08
9.51264e-08
9.52702e-08
9.54734e-08
9.57255e-08
9.60176e-08
9.634e-08
9.66793e-08
9.70247e-08
9.7365e-08
9.76875e-08
9.7976e-08
9.82172e-08
9.84038e-08
9.85358e-08
9.86168e-08
9.86533e-08
9.86478e-08
9.85979e-08
9.85036e-08
9.83688e-08
9.81993e-08
9.79983e-08
9.77661e-08
9.74992e-08
9.7197e-08
9.6864e-08
9.65035e-08
9.61147e-08
9.56982e-08
9.52562e-08
9.47901e-08
9.43009e-08
9.37906e-08
9.32604e-08
9.27112e-08
9.2144e-08
9.1561e-08
9.09629e-08
9.03502e-08
8.97238e-08
8.90862e-08
8.84408e-08
8.77879e-08
8.7126e-08
8.64524e-08
8.57681e-08
8.50743e-08
8.43712e-08
8.36565e-08
8.29292e-08
8.21898e-08
8.14389e-08
8.06726e-08
7.98907e-08
7.9095e-08
7.82878e-08
7.56917e-08
7.1838e-08
6.82795e-08
6.50096e-08
6.1971e-08
5.91532e-08
5.65257e-08
5.41077e-08
5.18565e-08
4.97602e-08
4.77902e-08
4.59674e-08
4.42526e-08
4.26587e-08
4.11681e-08
3.97893e-08
3.84884e-08
3.72695e-08
3.61238e-08
3.5047e-08
3.40361e-08
3.30862e-08
3.22263e-08
3.13793e-08
3.06326e-08
2.98627e-08
2.91791e-08
2.84903e-08
2.78708e-08
2.72838e-08
2.67408e-08
2.6296e-08
2.58391e-08
2.52972e-08
2.48435e-08
2.43295e-08
2.3967e-08
2.40315e-08
2.38407e-08
2.32015e-08
2.27173e-08
2.13976e-08
2.11217e-08
2.10533e-08
2.11266e-08
2.01657e-08
1.84702e-08
1.81748e-08
1.83861e-08
1.84833e-08
1.8524e-08
1.84317e-08
1.82847e-08
1.81477e-08
1.80755e-08
1.83957e-08
1.85242e-08
1.83904e-08
1.82222e-08
1.72499e-08
1.71677e-08
1.72282e-08
1.74173e-08
1.66631e-08
1.49457e-08
1.42647e-08
1.43039e-08
1.44362e-08
1.46307e-08
1.48278e-08
1.48935e-08
1.50029e-08
1.4962e-08
1.50139e-08
1.48325e-08
1.52073e-08
1.58988e-08
1.61825e-08
1.60754e-08
1.56058e-08
1.38054e-08
1.38401e-08
1.2663e-08
1.24351e-08
1.13554e-08
9.95513e-09
9.91716e-09
1.03648e-08
1.11218e-08
1.19968e-08
1.27447e-08
1.33627e-08
1.38505e-08
1.42662e-08
1.46435e-08
1.49904e-08
1.53018e-08
1.56019e-08
1.5905e-08
1.62072e-08
1.65276e-08
1.68542e-08
1.71757e-08
1.75119e-08
1.78833e-08
1.82683e-08
1.86449e-08
1.90421e-08
1.94775e-08
1.99456e-08
2.04344e-08
2.09315e-08
2.14546e-08
2.20099e-08
2.25997e-08
2.32145e-08
2.38647e-08
2.45805e-08
2.53393e-08
2.61136e-08
2.69173e-08
2.77618e-08
2.86655e-08
2.96416e-08
3.06918e-08
3.18162e-08
3.30305e-08
3.43163e-08
3.57197e-08
3.72728e-08
3.88984e-08
4.0643e-08
4.26059e-08
4.4806e-08
4.72402e-08
4.99333e-08
5.29158e-08
5.62199e-08
5.99156e-08
6.40885e-08
6.88358e-08
7.42846e-08
7.65601e-08
7.65159e-08
7.64796e-08
7.64558e-08
7.64497e-08
7.64669e-08
7.65029e-08
7.6548e-08
7.66004e-08
7.66672e-08
7.67625e-08
7.68817e-08
7.70177e-08
7.71349e-08
7.72684e-08
7.73245e-08
7.77128e-08
7.70796e-08
7.83872e-08
7.67797e-08
7.91595e-08
7.73927e-08
5.96195e-08
7.39819e-08
5.35411e-09
8.99552e-09
1.63006e-08
1.3484e-08
1.4014e-08
1.28992e-08
5.98744e-09
2.73658e-09
2.15399e-09
2.35847e-09
2.65072e-09
2.80342e-09
3.72659e-09
8.35086e-09
2.48653e-08
2.93963e-08
3.51417e-08
4.26629e-08
5.92231e-08
7.89681e-08
1.02386e-07
1.26335e-07
1.48218e-07
1.66545e-07
1.81374e-07
1.94789e-07
2.09593e-07
2.27851e-07
2.52259e-07
2.82909e-07
3.13715e-07
3.36259e-07
3.46637e-07
3.46615e-07
3.42105e-07
3.36704e-07
3.26754e-07
2.9314e-07
2.73825e-07
2.44861e-07
2.2904e-07
2.30126e-07
2.42827e-07
2.47797e-07
2.37335e-07
2.18959e-07
2.06328e-07
2.04211e-07
2.11962e-07
2.18143e-07
2.12548e-07
1.97468e-07
1.81237e-07
1.28457e-07
9.05739e-08
8.68811e-08
1.32625e-07
1.67637e-07
1.89116e-07
2.11031e-07
2.19612e-07
2.14141e-07
2.02127e-07
1.51749e-07
1.14287e-07
1.19683e-07
1.27813e-07
1.07193e-07
9.22971e-08
8.29472e-08
7.8544e-08
7.86953e-08
8.27116e-08
8.68564e-08
9.11014e-08
9.72046e-08
1.08563e-07
8.81136e-08
1.3341e-07
1.53637e-07
8.06011e-08
1.19096e-07
1.99274e-07
2.15989e-07
2.15815e-07
2.11915e-07
1.90913e-07
1.59363e-07
1.30996e-07
1.10991e-07
9.6715e-08
8.8382e-08
6.32561e-08
8.65861e-08
7.82652e-08
5.3756e-08
6.06817e-08
5.03146e-08
5.67153e-08
7.25146e-08
9.80236e-08
7.81805e-08
6.29197e-08
7.43821e-08
7.21931e-08
6.53943e-08
3.93571e-08
4.19952e-08
4.05827e-08
2.03077e-08
3.1599e-08
4.22093e-08
1.21306e-07
6.60733e-08
5.18224e-08
3.33988e-08
3.34834e-08
4.61192e-08
5.78594e-08
2.31174e-08
1.57287e-08
2.49804e-08
3.92279e-08
4.6064e-08
3.82099e-08
4.24374e-08
3.55007e-08
5.99705e-08
7.20355e-08
1.0067e-07
1.0902e-07
8.55125e-08
8.00234e-08
9.09219e-08
1.01626e-07
1.13699e-07
1.19518e-07
1.2908e-07
1.30506e-07
1.34903e-07
1.47919e-07
1.69856e-07
1.70391e-07
1.70845e-07
1.71173e-07
1.71454e-07
1.71879e-07
1.72583e-07
1.73475e-07
1.74049e-07
1.74145e-07
1.7415e-07
1.74373e-07
1.74782e-07
1.61729e-07
1.46918e-07
1.31711e-07
1.16938e-07
1.0579e-07
9.79164e-08
9.09703e-08
8.44988e-08
7.88993e-08
7.3908e-08
6.90237e-08
6.42805e-08
6.01271e-08
5.6637e-08
5.33543e-08
4.98616e-08
4.68343e-08
4.41361e-08
4.14944e-08
3.91484e-08
3.70978e-08
3.53332e-08
3.36564e-08
3.21875e-08
3.08606e-08
2.98059e-08
2.91504e-08
2.86486e-08
2.83222e-08
2.81242e-08
2.79464e-08
2.79126e-08
2.81121e-08
2.85926e-08
2.93093e-08
3.00515e-08
3.06873e-08
3.12042e-08
3.17164e-08
3.24554e-08
3.33976e-08
3.42331e-08
3.49228e-08
3.56829e-08
3.65139e-08
3.74808e-08
3.85085e-08
3.94388e-08
4.03014e-08
4.13435e-08
4.27252e-08
4.42327e-08
4.55829e-08
4.68427e-08
4.81876e-08
4.99956e-08
5.23959e-08
5.49881e-08
5.73498e-08
5.98291e-08
6.25583e-08
6.54755e-08
6.89287e-08
7.30285e-08
7.85433e-08
8.46283e-08
9.07555e-08
9.7842e-08
1.05657e-07
1.14378e-07
1.2499e-07
1.39545e-07
1.59124e-07
1.83368e-07
2.13025e-07
2.22466e-07
2.23635e-07
2.24892e-07
2.26259e-07
2.27576e-07
2.28662e-07
2.2946e-07
2.30028e-07
2.30479e-07
2.30895e-07
2.31275e-07
2.31601e-07
2.31894e-07
2.32163e-07
2.22602e-07
2.07071e-07
1.95723e-07
1.83932e-07
1.69893e-07
1.59076e-07
1.52416e-07
1.48745e-07
1.45424e-07
1.40697e-07
1.34724e-07
1.29595e-07
1.2676e-07
1.25392e-07
1.24713e-07
1.22939e-07
1.18489e-07
1.14259e-07
1.12291e-07
1.11013e-07
1.10037e-07
1.0961e-07
1.08446e-07
1.0626e-07
1.03344e-07
1.00859e-07
9.95066e-08
9.86606e-08
9.7692e-08
9.62321e-08
9.43333e-08
9.27987e-08
9.18347e-08
9.05176e-08
8.87003e-08
8.69825e-08
8.54958e-08
8.46004e-08
8.39356e-08
8.28137e-08
8.12283e-08
7.95085e-08
7.85423e-08
7.7907e-08
7.68738e-08
7.55589e-08
7.44344e-08
7.34244e-08
7.23726e-08
7.1541e-08
7.07241e-08
6.96378e-08
6.83071e-08
6.71268e-08
6.62806e-08
6.57418e-08
6.49491e-08
6.36205e-08
6.21569e-08
6.10845e-08
6.03524e-08
5.97117e-08
5.8568e-08
5.70711e-08
5.60796e-08
5.55079e-08
5.48893e-08
5.3981e-08
5.31799e-08
5.27238e-08
5.2582e-08
5.26553e-08
5.25668e-08
5.25582e-08
5.28922e-08
5.35757e-08
5.4633e-08
5.59703e-08
5.75057e-08
5.92813e-08
6.14142e-08
6.40009e-08
6.70762e-08
7.06739e-08
7.4736e-08
7.91027e-08
8.38835e-08
8.92268e-08
9.53044e-08
1.02115e-07
1.09613e-07
1.17701e-07
1.26584e-07
1.35449e-07
1.44469e-07
1.54036e-07
1.63354e-07
1.72995e-07
1.83274e-07
1.92942e-07
2.01486e-07
2.09968e-07
2.16037e-07
2.19046e-07
2.20982e-07
2.22408e-07
2.22778e-07
2.21602e-07
2.18879e-07
2.14621e-07
2.09349e-07
2.03348e-07
1.97052e-07
1.9086e-07
1.85152e-07
1.79201e-07
1.72292e-07
1.65446e-07
1.59405e-07
1.53917e-07
1.48562e-07
1.43618e-07
1.3905e-07
1.34621e-07
1.30574e-07
1.26923e-07
1.23567e-07
1.20649e-07
1.18018e-07
1.15459e-07
1.12801e-07
1.104e-07
1.0843e-07
1.06987e-07
1.0574e-07
1.04538e-07
1.03329e-07
1.02376e-07
1.01744e-07
1.01246e-07
1.0087e-07
1.0088e-07
1.01011e-07
1.0125e-07
1.01644e-07
1.02256e-07
1.03222e-07
1.04352e-07
1.05605e-07
1.06988e-07
1.09046e-07
1.11375e-07
1.13973e-07
1.16429e-07
1.19499e-07
1.22525e-07
1.27381e-07
1.3169e-07
1.36868e-07
1.41304e-07
1.47309e-07
1.51677e-07
1.61244e-07
1.67059e-07
1.79054e-07
1.84443e-07
1.85296e-07
1.9344e-07
1.95859e-07
2.23411e-07
2.37702e-07
2.58053e-07
2.59312e-07
2.47544e-07
2.49665e-07
2.62233e-07
2.66818e-07
2.6923e-07
2.70457e-07
1.0992e-07
1.01861e-07
7.52947e-08
7.42855e-08
3.38081e-08
2.9247e-08
4.7297e-08
6.8359e-08
7.35443e-08
6.80792e-08
1.11019e-07
1.18868e-07
1.6949e-07
2.97602e-07
3.00738e-07
3.03115e-07
1.58439e-07
1.07731e-07
7.97531e-08
7.04179e-08
5.54671e-08
5.35423e-08
2.65497e-08
2.06268e-08
2.62852e-08
3.53105e-08
4.05001e-08
4.2055e-08
5.74395e-08
7.27247e-08
1.00654e-07
1.04521e-07
1.20543e-07
9.18027e-08
1.6158e-07
3.18934e-07
1.14019e-07
3.48556e-08
4.06731e-08
2.70301e-08
2.62362e-08
1.41672e-08
1.1274e-08
5.9157e-09
5.8997e-09
8.84055e-09
9.40813e-09
1.03075e-08
1.26904e-08
1.58208e-08
2.00709e-08
2.52223e-08
3.76409e-08
5.33639e-08
7.0913e-08
8.27677e-08
8.87235e-08
8.78305e-08
8.08996e-08
7.26339e-08
6.64118e-08
6.17416e-08
5.84352e-08
5.5916e-08
5.35488e-08
5.15774e-08
5.01315e-08
4.89926e-08
4.78041e-08
4.66746e-08
4.57762e-08
4.5108e-08
4.44884e-08
4.39881e-08
4.36643e-08
4.35139e-08
4.31908e-08
4.25787e-08
4.23584e-08
4.25187e-08
4.26081e-08
4.27401e-08
4.28628e-08
4.29335e-08
4.3163e-08
4.34316e-08
4.36668e-08
4.39953e-08
4.43225e-08
4.44767e-08
4.46657e-08
4.49428e-08
4.51673e-08
4.54076e-08
4.57555e-08
4.61687e-08
4.65947e-08
4.70089e-08
4.73688e-08
4.77396e-08
4.82152e-08
4.87338e-08
4.92284e-08
4.96615e-08
5.01005e-08
5.05542e-08
5.10411e-08
5.15585e-08
5.19354e-08
5.22069e-08
5.2585e-08
5.31673e-08
5.37545e-08
5.41282e-08
5.42497e-08
5.46377e-08
5.51972e-08
5.48891e-08
6.08572e-08
4.64692e-08
7.3785e-08
3.97609e-08
8.13201e-08
3.45853e-08
7.8543e-08
3.09678e-08
8.0531e-08
4.38834e-08
5.24413e-09
9.42048e-09
1.15947e-08
8.27345e-09
7.79961e-09
5.87364e-09
2.70676e-09
1.96564e-09
2.12994e-09
2.61902e-09
3.23297e-09
4.75874e-09
8.26185e-09
1.92291e-08
4.02998e-08
3.1833e-08
4.15233e-08
5.84785e-08
9.42384e-08
1.24754e-07
1.54813e-07
1.8156e-07
2.04495e-07
2.2393e-07
2.39761e-07
2.51061e-07
2.59012e-07
2.67094e-07
2.76383e-07
2.84632e-07
2.87647e-07
2.82978e-07
2.71943e-07
2.57322e-07
2.44112e-07
2.32227e-07
2.19694e-07
2.02814e-07
1.81565e-07
1.60946e-07
1.47358e-07
1.42876e-07
1.44374e-07
1.44663e-07
1.40576e-07
1.32932e-07
1.26553e-07
1.24415e-07
1.25748e-07
1.26809e-07
1.2475e-07
1.19597e-07
9.19476e-08
9.93255e-08
1.02476e-07
1.00469e-07
1.01669e-07
1.06199e-07
1.12856e-07
9.14739e-08
6.63951e-08
8.08286e-08
1.14432e-07
9.52468e-08
9.57557e-08
9.91046e-08
7.11766e-08
7.79877e-08
8.33833e-08
8.16811e-08
5.43206e-08
5.11778e-08
7.38327e-08
8.34931e-08
8.53072e-08
8.78361e-08
9.2027e-08
9.89522e-08
1.11842e-07
1.23246e-07
1.36176e-07
1.48356e-07
1.59184e-07
1.69709e-07
1.75836e-07
1.77463e-07
1.71849e-07
1.59909e-07
1.44185e-07
1.26698e-07
1.0779e-07
9.40597e-08
8.41008e-08
7.71186e-08
7.19261e-08
5.21659e-08
6.41193e-08
7.55953e-08
7.62831e-08
8.28187e-08
8.31696e-08
8.08969e-08
7.62431e-08
7.09562e-08
4.47695e-08
2.74645e-08
2.43598e-08
2.27479e-08
2.44402e-08
2.02587e-08
1.35578e-08
1.40489e-08
9.41679e-09
1.64898e-08
3.01487e-08
6.16525e-08
1.9018e-08
1.50341e-08
1.49771e-08
1.62678e-08
1.71125e-08
2.10438e-08
8.03432e-09
5.77318e-09
9.6924e-09
1.46152e-08
1.91321e-08
1.70231e-08
2.0832e-08
1.71717e-08
3.14227e-08
4.07696e-08
6.60653e-08
5.88913e-08
5.38291e-08
4.3578e-08
3.89284e-08
4.50071e-08
5.34248e-08
6.42482e-08
7.15076e-08
7.23385e-08
7.76533e-08
9.20862e-08
1.1562e-07
1.40447e-07
1.56674e-07
1.53879e-07
1.47636e-07
1.43861e-07
1.27058e-07
9.97111e-08
7.98463e-08
6.86703e-08
6.20881e-08
5.68846e-08
5.11567e-08
4.54452e-08
4.10408e-08
3.76342e-08
3.46832e-08
3.25006e-08
3.07591e-08
2.86128e-08
2.64168e-08
2.47408e-08
2.33102e-08
2.18601e-08
2.0635e-08
1.94388e-08
1.84341e-08
1.74961e-08
1.64926e-08
1.57091e-08
1.50665e-08
1.45362e-08
1.40735e-08
1.35948e-08
1.31887e-08
1.29109e-08
1.27024e-08
1.25359e-08
1.24871e-08
1.25132e-08
1.25749e-08
1.26718e-08
1.27657e-08
1.29822e-08
1.34261e-08
1.39423e-08
1.44277e-08
1.48724e-08
1.52525e-08
1.56914e-08
1.63373e-08
1.7097e-08
1.78567e-08
1.85901e-08
1.92128e-08
1.98761e-08
2.06783e-08
2.16027e-08
2.25709e-08
2.3589e-08
2.47491e-08
2.59052e-08
2.69214e-08
2.80224e-08
2.94497e-08
3.12358e-08
3.30505e-08
3.48588e-08
3.68505e-08
3.89238e-08
4.12066e-08
4.39569e-08
4.69757e-08
5.02563e-08
5.39919e-08
5.81842e-08
6.28426e-08
6.9034e-08
7.66161e-08
8.37333e-08
9.14719e-08
9.99846e-08
1.11441e-07
1.28662e-07
1.51073e-07
1.77225e-07
2.01694e-07
2.31689e-07
2.79015e-07
3.43776e-07
4.13654e-07
4.50943e-07
4.25765e-07
3.6061e-07
2.90927e-07
2.38794e-07
2.09867e-07
1.94438e-07
1.86881e-07
1.77825e-07
1.65613e-07
1.52392e-07
1.37831e-07
1.26871e-07
1.237e-07
1.22618e-07
1.20845e-07
1.17103e-07
1.10124e-07
1.04363e-07
1.01805e-07
1.01009e-07
1.01527e-07
1.00871e-07
9.81515e-08
9.42389e-08
9.13763e-08
9.05349e-08
9.03056e-08
8.92068e-08
8.76171e-08
8.63323e-08
8.49351e-08
8.338e-08
8.20148e-08
8.11721e-08
8.08414e-08
7.99314e-08
7.76496e-08
7.52725e-08
7.40635e-08
7.38931e-08
7.3762e-08
7.27484e-08
7.11828e-08
6.9773e-08
6.85987e-08
6.74179e-08
6.62341e-08
6.54141e-08
6.48562e-08
6.42926e-08
6.37488e-08
6.27186e-08
6.1143e-08
5.99062e-08
5.92184e-08
5.87523e-08
5.84535e-08
5.79437e-08
5.69347e-08
5.56081e-08
5.45755e-08
5.39018e-08
5.35544e-08
5.32154e-08
5.23195e-08
5.11146e-08
5.03081e-08
4.99945e-08
4.96799e-08
4.87677e-08
4.76354e-08
4.70346e-08
4.69036e-08
4.66639e-08
4.61088e-08
4.55858e-08
4.53436e-08
4.54888e-08
4.59164e-08
4.61074e-08
4.61693e-08
4.65252e-08
4.72756e-08
4.84206e-08
4.97483e-08
5.11269e-08
5.26084e-08
5.4341e-08
5.65416e-08
5.92292e-08
6.24481e-08
6.61062e-08
6.99117e-08
7.40291e-08
7.8573e-08
8.37566e-08
8.97123e-08
9.63001e-08
1.0305e-07
1.10671e-07
1.19011e-07
1.27342e-07
1.36038e-07
1.44287e-07
1.52525e-07
1.62032e-07
1.71676e-07
1.80265e-07
1.88181e-07
1.91987e-07
1.93042e-07
1.94613e-07
1.96295e-07
1.96897e-07
1.95751e-07
1.93133e-07
1.89143e-07
1.84072e-07
1.78007e-07
1.71905e-07
1.66661e-07
1.62079e-07
1.56635e-07
1.50135e-07
1.44133e-07
1.39096e-07
1.34529e-07
1.30006e-07
1.25559e-07
1.21215e-07
1.17291e-07
1.14203e-07
1.11479e-07
1.08485e-07
1.05672e-07
1.03533e-07
1.01592e-07
9.95506e-08
9.74895e-08
9.58879e-08
9.47254e-08
9.3819e-08
9.27239e-08
9.164e-08
9.07322e-08
9.04237e-08
9.02657e-08
9.0236e-08
9.0456e-08
9.07735e-08
9.09234e-08
9.09835e-08
9.17838e-08
9.29294e-08
9.434e-08
9.52009e-08
9.66578e-08
9.84856e-08
1.01273e-07
1.03736e-07
1.06677e-07
1.09026e-07
1.12235e-07
1.15554e-07
1.20346e-07
1.24732e-07
1.31636e-07
1.36107e-07
1.42642e-07
1.47339e-07
1.47656e-07
1.53942e-07
1.60339e-07
1.76324e-07
1.85045e-07
2.17702e-07
2.33962e-07
1.82662e-07
1.78353e-07
2.12604e-07
2.25625e-07
5.61604e-07
3.09001e-07
9.46884e-08
8.17209e-08
6.10782e-08
6.22679e-08
2.89404e-08
2.57336e-08
4.39122e-08
5.90872e-08
7.63184e-08
6.93654e-08
1.07424e-07
8.71228e-08
1.10457e-07
2.68139e-07
3.52953e-07
1.7443e-07
1.26269e-07
1.88495e-07
6.28177e-08
5.43793e-08
4.18336e-08
4.02967e-08
2.13766e-08
1.77899e-08
2.35818e-08
3.15328e-08
4.24791e-08
4.04283e-08
5.23737e-08
4.58803e-08
4.64681e-08
5.98862e-08
6.31135e-08
1.01826e-07
5.81994e-07
4.86821e-07
1.49592e-07
3.48788e-08
3.97457e-08
2.22153e-08
2.03809e-08
1.14584e-08
8.70552e-09
4.79846e-09
4.97484e-09
7.96621e-09
8.19072e-09
8.92248e-09
1.1492e-08
1.40856e-08
1.74385e-08
1.81691e-08
2.1601e-08
2.61005e-08
3.06094e-08
3.79868e-08
4.74393e-08
5.46701e-08
5.97041e-08
6.46337e-08
6.6163e-08
6.24275e-08
5.8595e-08
5.56461e-08
5.31095e-08
5.17715e-08
4.98668e-08
4.77826e-08
4.65614e-08
4.5981e-08
4.4831e-08
4.34516e-08
4.2727e-08
4.24799e-08
4.21551e-08
4.149e-08
4.0858e-08
4.05208e-08
4.03759e-08
4.03346e-08
4.00613e-08
4.01969e-08
4.04405e-08
4.01823e-08
3.97535e-08
3.95312e-08
3.95457e-08
3.9741e-08
4.00366e-08
4.03687e-08
4.07037e-08
4.0982e-08
4.11982e-08
4.16086e-08
4.17209e-08
4.17234e-08
4.22039e-08
4.29801e-08
4.36384e-08
4.41118e-08
4.44754e-08
4.47682e-08
4.50949e-08
4.55075e-08
4.59764e-08
4.64754e-08
4.69613e-08
4.74212e-08
4.78499e-08
4.82469e-08
4.86248e-08
4.90117e-08
4.94991e-08
5.00955e-08
5.07085e-08
5.10868e-08
5.12195e-08
5.15494e-08
5.22733e-08
5.30062e-08
5.22359e-08
5.81948e-08
4.47415e-08
7.14376e-08
3.74619e-08
7.50821e-08
3.24552e-08
7.37716e-08
2.93592e-08
7.53761e-08
4.21376e-08
5.09625e-09
9.5479e-09
1.05077e-08
7.55585e-09
6.96025e-09
4.04132e-09
2.51177e-09
2.46543e-09
3.59212e-09
5.26085e-09
8.37142e-09
2.64109e-08
4.18901e-08
5.15753e-08
4.31591e-08
5.43056e-08
7.13204e-08
8.81523e-08
1.09734e-07
1.32197e-07
1.52266e-07
1.68689e-07
1.81336e-07
1.90163e-07
1.96049e-07
2.07068e-07
2.22415e-07
2.37222e-07
2.4837e-07
2.50308e-07
2.43016e-07
2.29192e-07
2.11865e-07
1.95039e-07
1.81953e-07
1.71953e-07
1.62752e-07
1.51231e-07
1.38765e-07
1.27571e-07
1.19913e-07
1.16706e-07
1.16599e-07
1.16709e-07
1.15861e-07
1.13798e-07
1.11629e-07
1.10995e-07
1.11482e-07
1.11494e-07
1.10712e-07
1.09187e-07
5.45971e-08
4.70438e-08
5.84082e-08
7.99613e-08
1.1284e-07
1.0089e-07
4.31359e-08
2.82083e-08
2.88765e-08
4.05552e-08
4.75026e-08
6.17762e-08
1.02656e-07
9.92659e-08
5.61669e-08
3.97646e-08
7.72923e-08
7.85114e-08
4.3308e-08
3.18961e-08
3.8104e-08
5.81685e-08
8.79117e-08
9.69468e-08
9.71247e-08
9.72509e-08
9.92272e-08
1.03245e-07
1.1083e-07
1.2206e-07
1.31902e-07
1.42115e-07
1.48902e-07
1.51486e-07
1.51175e-07
1.46779e-07
1.38851e-07
1.28144e-07
1.16599e-07
1.05252e-07
9.50493e-08
8.6924e-08
8.15713e-08
7.91246e-08
7.9217e-08
6.66511e-08
5.37093e-08
7.3161e-08
8.38262e-08
8.25362e-08
7.95165e-08
6.47469e-08
5.26216e-08
3.7744e-08
2.96022e-08
2.42472e-08
1.60447e-08
1.141e-08
1.32742e-08
1.39163e-08
1.50842e-08
1.18086e-08
1.40369e-08
8.91908e-09
1.3471e-08
1.99881e-08
5.6854e-08
2.08751e-08
1.19696e-08
1.11358e-08
1.25369e-08
1.1788e-08
1.44573e-08
5.85716e-09
4.42113e-09
7.56201e-09
1.12717e-08
1.47807e-08
1.39815e-08
1.87611e-08
1.57485e-08
2.90331e-08
4.41523e-08
4.68263e-08
6.07959e-08
4.82367e-08
3.88621e-08
3.76503e-08
4.61996e-08
5.79319e-08
6.70635e-08
7.14744e-08
7.52159e-08
8.36722e-08
9.40712e-08
9.73368e-08
9.50739e-08
9.33489e-08
8.45973e-08
6.88749e-08
5.77613e-08
5.21935e-08
4.79235e-08
4.3312e-08
3.8857e-08
3.51917e-08
3.21104e-08
2.92984e-08
2.6967e-08
2.53741e-08
2.39754e-08
2.22103e-08
2.04981e-08
1.93057e-08
1.82667e-08
1.71642e-08
1.62495e-08
1.54681e-08
1.4738e-08
1.40566e-08
1.34066e-08
1.29196e-08
1.25151e-08
1.21659e-08
1.18948e-08
1.16315e-08
1.14484e-08
1.13666e-08
1.12174e-08
1.10761e-08
1.10585e-08
1.11089e-08
1.12343e-08
1.13862e-08
1.14835e-08
1.16098e-08
1.19208e-08
1.23447e-08
1.2803e-08
1.33173e-08
1.3774e-08
1.41765e-08
1.46799e-08
1.53578e-08
1.61759e-08
1.70016e-08
1.76616e-08
1.82632e-08
1.89799e-08
1.99344e-08
2.11e-08
2.21806e-08
2.31796e-08
2.41703e-08
2.51606e-08
2.64045e-08
2.80455e-08
2.9853e-08
3.14759e-08
3.30368e-08
3.49634e-08
3.69306e-08
3.91725e-08
4.20702e-08
4.52459e-08
4.85741e-08
5.16685e-08
5.50464e-08
5.91198e-08
6.48412e-08
7.28309e-08
8.0504e-08
8.78155e-08
9.47936e-08
1.03144e-07
1.1584e-07
1.34089e-07
1.56052e-07
1.75473e-07
1.92589e-07
2.15895e-07
2.52053e-07
2.9463e-07
3.2073e-07
3.04292e-07
2.63104e-07
2.2369e-07
1.9952e-07
1.91255e-07
1.86724e-07
1.79306e-07
1.67707e-07
1.54512e-07
1.40389e-07
1.27589e-07
1.20766e-07
1.20297e-07
1.20852e-07
1.18325e-07
1.13085e-07
1.06398e-07
1.01473e-07
9.99655e-08
9.99159e-08
9.99946e-08
9.78432e-08
9.42937e-08
9.16922e-08
9.05915e-08
8.99365e-08
8.95917e-08
8.83044e-08
8.57096e-08
8.39985e-08
8.29556e-08
8.19325e-08
8.11162e-08
8.06419e-08
8.01453e-08
7.86246e-08
7.60141e-08
7.39218e-08
7.28827e-08
7.22715e-08
7.20485e-08
7.15575e-08
7.04777e-08
6.91254e-08
6.71728e-08
6.54061e-08
6.42954e-08
6.39462e-08
6.41016e-08
6.3541e-08
6.23867e-08
6.09234e-08
5.94855e-08
5.84752e-08
5.79541e-08
5.77504e-08
5.72966e-08
5.63056e-08
5.52954e-08
5.43335e-08
5.3498e-08
5.27499e-08
5.21313e-08
5.16393e-08
5.08672e-08
5.00823e-08
4.96346e-08
4.92262e-08
4.85733e-08
4.77664e-08
4.71294e-08
4.67479e-08
4.65814e-08
4.63594e-08
4.60361e-08
4.57885e-08
4.57765e-08
4.60234e-08
4.63981e-08
4.66991e-08
4.69391e-08
4.7422e-08
4.82985e-08
4.944e-08
5.06054e-08
5.19184e-08
5.34169e-08
5.51357e-08
5.72403e-08
5.9658e-08
6.25529e-08
6.60765e-08
7.00447e-08
7.41821e-08
7.83232e-08
8.29747e-08
8.87761e-08
9.58689e-08
1.02809e-07
1.09821e-07
1.17783e-07
1.25969e-07
1.34779e-07
1.44104e-07
1.53517e-07
1.63615e-07
1.74116e-07
1.82954e-07
1.89443e-07
1.92136e-07
1.93742e-07
1.95982e-07
1.96965e-07
1.96106e-07
1.94288e-07
1.92258e-07
1.88317e-07
1.81964e-07
1.74735e-07
1.68483e-07
1.63494e-07
1.58651e-07
1.52325e-07
1.45789e-07
1.40401e-07
1.35681e-07
1.31246e-07
1.26731e-07
1.22306e-07
1.18112e-07
1.14507e-07
1.11485e-07
1.08699e-07
1.05603e-07
1.0292e-07
1.0083e-07
9.91932e-08
9.72981e-08
9.54159e-08
9.37979e-08
9.26534e-08
9.15627e-08
9.05458e-08
8.95689e-08
8.89359e-08
8.85172e-08
8.83842e-08
8.83547e-08
8.85467e-08
8.89264e-08
8.91119e-08
8.92398e-08
8.99096e-08
9.1283e-08
9.25152e-08
9.37423e-08
9.48007e-08
9.69841e-08
9.92179e-08
1.02293e-07
1.04516e-07
1.07169e-07
1.09448e-07
1.14216e-07
1.18299e-07
1.25305e-07
1.29547e-07
1.32929e-07
1.34509e-07
1.49504e-07
1.53811e-07
1.9232e-07
1.92424e-07
1.6109e-07
1.45298e-07
1.34433e-07
1.66167e-07
1.75617e-07
6.91518e-07
3.38311e-07
8.31451e-08
7.13896e-08
5.43089e-08
5.59752e-08
2.65032e-08
2.34109e-08
3.96145e-08
5.16147e-08
6.88173e-08
6.25831e-08
1.05494e-07
9.13376e-08
1.7105e-07
6.1408e-07
4.44721e-07
1.21518e-07
9.6457e-08
5.6329e-08
4.84226e-08
4.17642e-08
3.36301e-08
2.6084e-08
1.87108e-08
1.53984e-08
2.07896e-08
2.60714e-08
3.60651e-08
3.52087e-08
5.07396e-08
4.39146e-08
4.99443e-08
6.05916e-08
5.70527e-08
8.55516e-08
3.76748e-07
1.31558e-07
3.25116e-08
4.24471e-08
5.15554e-08
1.87499e-08
1.62476e-08
9.94037e-09
7.77861e-09
4.34252e-09
4.47159e-09
7.15847e-09
7.32232e-09
7.95176e-09
1.07827e-08
1.37821e-08
1.7698e-08
1.91183e-08
2.10041e-08
2.44293e-08
2.72971e-08
2.84922e-08
2.94329e-08
3.14794e-08
3.63079e-08
4.15057e-08
4.53646e-08
4.88664e-08
5.21126e-08
5.32309e-08
5.19518e-08
5.08595e-08
5.00877e-08
4.92665e-08
4.85755e-08
4.69938e-08
4.53552e-08
4.44663e-08
4.38785e-08
4.29189e-08
4.19717e-08
4.1533e-08
4.13363e-08
4.09489e-08
4.02964e-08
3.97425e-08
3.95151e-08
3.94648e-08
3.9661e-08
3.98384e-08
3.99316e-08
3.99253e-08
3.97098e-08
3.94373e-08
3.93531e-08
3.94839e-08
3.96848e-08
3.99446e-08
4.02251e-08
4.04417e-08
4.05881e-08
4.08293e-08
4.12591e-08
4.14717e-08
4.16878e-08
4.21875e-08
4.28021e-08
4.33214e-08
4.37241e-08
4.40963e-08
4.4493e-08
4.49371e-08
4.54229e-08
4.59147e-08
4.63807e-08
4.68265e-08
4.72572e-08
4.77117e-08
4.81298e-08
4.84885e-08
4.89578e-08
4.95953e-08
5.0255e-08
5.07158e-08
5.09502e-08
5.12354e-08
5.18641e-08
5.25867e-08
5.28889e-08
5.1995e-08
5.8148e-08
4.47485e-08
7.06311e-08
3.75011e-08
7.52128e-08
3.27042e-08
7.39513e-08
2.94281e-08
7.56837e-08
4.29833e-08
4.87413e-09
9.68692e-09
9.07771e-09
6.65003e-09
5.83219e-09
3.56111e-09
2.76619e-09
3.49535e-09
7.54213e-09
2.24908e-08
1.77773e-08
1.81958e-08
3.89796e-08
5.98284e-08
7.79595e-08
8.29758e-08
9.27813e-08
1.063e-07
1.2117e-07
1.34869e-07
1.4607e-07
1.54177e-07
1.58643e-07
1.62413e-07
1.6993e-07
1.82548e-07
1.97134e-07
2.07862e-07
2.11758e-07
2.0764e-07
1.97322e-07
1.83711e-07
1.69567e-07
1.57241e-07
1.48358e-07
1.41847e-07
1.35993e-07
1.30332e-07
1.25648e-07
1.22703e-07
1.21172e-07
1.21069e-07
1.22203e-07
1.23618e-07
1.24694e-07
1.25723e-07
1.27172e-07
1.28701e-07
1.29983e-07
1.15572e-07
1.30051e-07
1.29789e-07
4.15197e-08
2.76997e-08
3.37914e-08
5.29672e-08
1.14859e-07
6.66357e-08
2.74305e-08
2.15445e-08
2.68828e-08
3.24611e-08
2.28422e-08
2.62066e-08
5.50103e-08
1.30171e-07
1.08424e-07
3.55002e-08
4.00125e-08
5.73677e-08
4.67821e-08
3.36104e-08
2.98928e-08
4.52654e-08
8.86104e-08
1.19537e-07
1.16193e-07
1.13226e-07
1.10644e-07
1.07797e-07
1.05975e-07
1.07263e-07
1.10778e-07
1.17343e-07
1.24138e-07
1.27958e-07
1.29867e-07
1.29443e-07
1.25951e-07
1.20187e-07
1.13179e-07
1.05384e-07
9.73385e-08
9.04232e-08
8.51333e-08
8.19175e-08
8.13257e-08
8.34649e-08
8.76859e-08
8.80259e-08
6.56967e-08
4.60675e-08
6.02874e-08
7.83922e-08
7.55468e-08
4.71915e-08
4.99805e-08
3.66376e-08
2.59789e-08
1.60423e-08
1.70258e-08
1.17479e-08
9.51541e-09
1.17195e-08
1.3117e-08
1.51631e-08
1.21267e-08
1.41777e-08
9.08717e-09
1.26613e-08
1.70011e-08
5.3733e-08
2.41583e-08
1.19752e-08
1.06178e-08
1.19085e-08
1.07284e-08
1.26009e-08
5.20093e-09
3.98022e-09
6.79468e-09
1.00572e-08
1.4089e-08
1.28208e-08
3.24101e-08
1.97393e-08
1.49707e-08
2.74686e-08
4.32911e-08
6.9699e-08
5.35173e-08
4.28338e-08
4.19896e-08
5.36223e-08
7.56685e-08
7.74321e-08
6.80259e-08
6.82913e-08
7.32929e-08
7.50332e-08
6.68588e-08
5.55634e-08
4.89162e-08
4.57944e-08
4.26811e-08
3.82593e-08
3.42887e-08
3.13837e-08
2.9013e-08
2.66237e-08
2.47908e-08
2.33068e-08
2.17766e-08
2.02085e-08
1.88787e-08
1.7815e-08
1.69201e-08
1.6043e-08
1.51902e-08
1.45322e-08
1.39374e-08
1.3399e-08
1.29784e-08
1.25912e-08
1.22436e-08
1.19663e-08
1.1781e-08
1.16503e-08
1.15751e-08
1.15163e-08
1.13407e-08
1.12128e-08
1.11692e-08
1.11793e-08
1.13336e-08
1.14786e-08
1.15432e-08
1.16112e-08
1.17547e-08
1.2062e-08
1.24552e-08
1.29335e-08
1.34577e-08
1.39158e-08
1.43048e-08
1.47696e-08
1.55035e-08
1.63474e-08
1.71254e-08
1.78239e-08
1.85024e-08
1.93778e-08
2.04975e-08
2.1546e-08
2.24275e-08
2.33511e-08
2.44622e-08
2.58837e-08
2.75676e-08
2.92185e-08
3.05981e-08
3.20628e-08
3.39566e-08
3.59394e-08
3.82732e-08
4.10428e-08
4.40352e-08
4.70707e-08
4.99608e-08
5.33448e-08
5.72261e-08
6.20541e-08
6.89195e-08
7.6145e-08
8.27824e-08
9.01936e-08
9.84111e-08
1.07973e-07
1.21425e-07
1.36838e-07
1.49451e-07
1.62427e-07
1.78903e-07
2.00391e-07
2.27864e-07
2.44572e-07
2.33141e-07
2.06081e-07
1.83397e-07
1.77261e-07
1.78347e-07
1.75523e-07
1.66171e-07
1.53575e-07
1.40822e-07
1.29192e-07
1.21951e-07
1.19209e-07