/*--------------------------------*- C++ -*----------------------------------*\
| =========                 |                                                 |
| \\      /  F ield         | OpenFOAM: The Open Source CFD Toolbox           |
|  \\    /   O peration     | Version:  v2006                                 |
|   \\  /    A nd           | Website:  www.openfoam.com                      |
|    \\/     M anipulation  |                                                 |
\*---------------------------------------------------------------------------*/
FoamFile
{
    version     2.0;
    format      ascii;
    class       volScalarField;
    location    "7.3";
    object      omega;
}
// * * * * * * * * * * * * * * * * * * * * * * * * * * * * * * * * * * * * * //

dimensions      [0 0 -1 0 0 0 0];


internalField   nonuniform List<scalar> 
33000
(
0.801353
0.801472
0.801629
0.801866
0.802215
0.802649
0.803048
0.803252
0.803256
0.803245
0.803363
0.803683
0.804229
0.804927
0.805641
0.806342
0.807032
0.80773
0.808519
0.809489
0.810684
0.812057
0.813406
0.814471
0.815209
0.815902
0.817135
0.819543
0.823906
0.830916
0.840351
0.850721
0.86026
0.867889
0.873314
0.876766
0.878681
0.879502
0.879618
0.87926
0.878867
0.878651
0.878351
0.877906
0.87726
0.876298
0.875436
0.875105
0.875008
0.874651
0.873958
0.872809
0.871361
0.870096
0.869167
0.868718
0.868908
0.869764
0.870769
0.87132
0.871388
0.870931
0.869926
0.868333
0.866048
0.862923
0.858913
0.854438
0.850419
0.847247
0.844849
0.842864
0.840826
0.838665
0.836466
0.834442
0.832813
0.831757
0.831494
0.832416
0.834636
0.837958
0.841764
0.845488
0.848537
0.850773
0.852319
0.853218
0.853343
0.853013
0.852051
0.850456
0.848419
0.845968
0.843253
0.840418
0.837697
0.835299
0.833473
0.832469
0.832652
0.834032
0.835794
0.837247
0.837561
0.837515
0.837913
0.83846
0.83866
0.838348
0.83802
0.837446
0.836894
0.836279
0.835434
0.834313
0.833126
0.83219
0.831897
0.832228
0.832324
0.832756
0.832658
0.832531
0.832849
0.833136
0.833325
0.833482
0.833523
0.833551
0.833625
0.833693
0.833757
0.83378
0.83378
0.833767
0.833748
0.833734
0.833721
0.833707
0.833691
0.833672
0.833646
0.83361
0.83356
0.833494
0.833417
0.833331
0.833239
0.833144
0.833038
0.832921
0.832795
0.832663
0.832527
0.832384
0.832232
0.832067
0.831892
0.831708
0.831513
0.831308
0.831092
0.830863
0.83062
0.830363
0.830093
0.829811
0.829518
0.829215
0.828912
0.828615
0.828323
0.828041
0.827775
0.827551
0.827377
0.827252
0.827173
0.827143
0.827157
0.827208
0.827291
0.827408
0.827564
0.827757
0.827972
0.828195
0.828417
0.828627
0.828819
0.828989
0.829132
0.829241
0.829313
0.829351
0.829363
0.829361
0.829347
0.829315
0.829255
0.829161
0.82904
0.828904
0.828762
0.828613
0.828452
0.828278
0.828097
0.827921
0.827754
0.827587
0.827413
0.827237
0.827075
0.826939
0.826827
0.826726
0.826625
0.826522
0.826425
0.826347
0.826293
0.826254
0.826218
0.826174
0.826122
0.826071
0.82603
0.826002
0.825983
0.825958
0.825921
0.825874
0.825825
0.82578
0.825737
0.825694
0.825651
0.825603
0.825551
0.825492
0.825421
0.825343
0.825263
0.825188
0.825118
0.825043
0.82495
0.824843
0.824737
0.824637
0.824538
0.824435
0.824321
0.824198
0.824071
0.823943
0.823813
0.823681
0.823541
0.823394
0.82324
0.823085
0.822934
0.822783
0.822627
0.822457
0.822276
0.822094
0.821915
0.821737
0.821558
0.821376
0.821187
0.82099
0.820788
0.820583
0.820377
0.820169
0.819959
0.819749
0.819535
0.819311
0.819078
0.818842
0.818606
0.818365
0.81812
0.81787
0.817613
0.817346
0.81707
0.816783
0.816478
0.816165
0.815854
0.815542
0.815228
0.814914
0.814599
0.814285
0.813972
0.813656
0.813335
0.813012
0.812689
0.812375
0.812071
0.811782
0.811509
0.811254
0.811017
0.810797
0.810593
0.810406
0.810237
0.810086
0.809953
0.809837
0.809739
0.809659
0.809595
0.809546
0.809511
0.809488
0.809477
0.809477
0.809485
0.809499
0.80952
0.809546
0.809575
0.809608
0.809642
0.809677
0.809711
0.809744
0.809773
0.809797
0.809816
0.809829
0.809838
0.809842
0.809841
0.809836
0.809827
0.809813
0.809797
0.809777
0.809753
0.809727
0.809696
0.809663
0.809627
0.809588
0.809546
0.809502
0.809455
0.809406
0.809354
0.809301
0.809246
0.809189
0.80913
0.80907
0.809008
0.808945
0.808881
0.808816
0.808751
0.808684
0.808617
0.808548
0.808478
0.808407
0.808335
0.808262
0.808188
0.808113
0.808036
0.807957
0.807877
0.807796
0.807714
0.807631
0.807547
0.807462
0.807376
0.807289
0.807203
0.807116
0.807028
0.806941
0.806853
0.806766
0.806679
0.806594
0.806508
0.806423
0.806339
0.806256
0.806174
0.806094
0.806015
0.805937
0.80586
0.805786
0.805713
0.805642
0.805574
0.805506
0.805441
0.805376
0.805313
0.805251
0.80519
0.80513
0.805069
0.805007
0.804951
0.804893
0.804837
0.804785
0.804714
0.804642
0.804599
0.804529
0.804491
0.804447
0.804513
0.804567
0.804622
0.804647
0.804659
0.804652
0.804636
0.804615
0.804594
0.80457
0.804543
0.804524
0.804487
0.804441
0.804421
0.80437
0.804308
0.804208
0.804223
0.804252
0.804303
0.804351
0.804373
0.804384
0.804383
0.804383
0.804371
0.804346
0.804321
0.804297
0.804257
0.804254
0.804213
0.804102
0.804062
0.803971
0.803895
0.8039
0.804041
0.804422
0.804727
0.80519
0.805661
0.806121
0.806518
0.806836
0.807089
0.807288
0.807444
0.807564
0.807657
0.807733
0.807793
0.807841
0.807881
0.80791
0.807934
0.807955
0.807972
0.80798
0.807987
0.807995
0.808001
0.808002
0.807999
0.807994
0.80799
0.807984
0.807976
0.807967
0.807959
0.807947
0.80793
0.807911
0.807893
0.807877
0.807861
0.807845
0.807829
0.807813
0.807796
0.80778
0.807766
0.80775
0.807735
0.807725
0.807716
0.807705
0.807694
0.807682
0.80767
0.807659
0.80765
0.807641
0.807634
0.807628
0.807624
0.80762
0.807616
0.807614
0.807614
0.807616
0.80762
0.807625
0.807631
0.807638
0.807648
0.80766
0.807674
0.807685
0.807698
0.807703
0.807741
0.807678
0.807808
0.807648
0.807883
0.80771
0.807859
0.807374
0.00281936
0.0100763
0.0317238
0.0826569
0.177089
0.326952
0.549419
0.724408
0.772799
0.757533
0.755381
0.796071
0.866354
0.935658
0.985498
1.02707
1.05961
1.0808
1.09193
1.10449
1.14026
1.20654
1.29627
1.3936
1.47826
1.5289
1.52448
1.46573
1.37721
1.29349
1.22788
1.1696
1.10637
1.03933
0.975169
0.914399
0.854551
0.789869
0.720842
0.660957
0.621215
0.602612
0.595812
0.586329
0.567549
0.542839
0.52379
0.516701
0.518201
0.516727
0.504545
0.481286
0.452946
0.427444
0.40916
0.400068
0.401462
0.413798
0.433234
0.453381
0.467975
0.477984
0.488593
0.501777
0.512775
0.516509
0.514169
0.512862
0.521723
0.547497
0.593802
0.655209
0.721289
0.779885
0.825516
0.864767
0.911481
0.970246
1.01126
1.06009
1.15726
1.24888
1.31998
1.41137
1.46788
1.47169
1.34181
1.13389
0.945887
0.780845
0.636547
0.525426
0.453183
0.419848
0.427842
0.472085
0.543896
0.636978
0.746273
0.842557
0.903003
0.977727
1.05824
1.06393
0.995187
0.850067
0.704858
0.545014
0.418297
0.336385
0.270615
0.225345
0.198329
0.189875
0.19997
0.224066
0.268397
0.302955
0.310281
0.323142
0.345957
0.316232
0.273613
0.234585
0.209915
0.188539
0.174273
0.163386
0.156621
0.15271
0.151099
0.15045
0.150302
0.150617
0.151631
0.153182
0.154797
0.156291
0.157651
0.159105
0.160742
0.162413
0.163853
0.16486
0.165526
0.166298
0.167569
0.169328
0.171112
0.172271
0.172937
0.173881
0.175404
0.177061
0.178453
0.17965
0.180852
0.182091
0.183193
0.184121
0.185202
0.186483
0.187308
0.187613
0.188229
0.189358
0.189959
0.189469
0.188993
0.189239
0.18948
0.188913
0.187177
0.185087
0.183188
0.181653
0.180269
0.178007
0.174985
0.171623
0.167628
0.163503
0.159861
0.156536
0.153567
0.150426
0.146732
0.142862
0.139191
0.136032
0.133197
0.130408
0.127509
0.124407
0.12123
0.118247
0.115679
0.113463
0.111271
0.108894
0.106265
0.103652
0.101292
0.0991561
0.0971032
0.0950506
0.0929337
0.090863
0.0889809
0.0872621
0.085459
0.0833989
0.0813363
0.0795082
0.0779509
0.0766151
0.0752654
0.073712
0.0719703
0.0702687
0.068817
0.067628
0.0666329
0.0656401
0.0645396
0.0633658
0.0622318
0.061266
0.060493
0.0598799
0.0592899
0.0586439
0.0579861
0.0573966
0.0569332
0.0565937
0.0563379
0.0561228
0.0559217
0.0557373
0.0555737
0.0554176
0.0552628
0.0551397
0.0550942
0.0551317
0.0551968
0.0552071
0.0551402
0.0550664
0.0550652
0.0551332
0.0552124
0.0552525
0.0552423
0.0552042
0.0551718
0.0551616
0.0551604
0.0551396
0.0550843
0.0550145
0.0549775
0.0550082
0.0550856
0.0551345
0.0550836
0.0549355
0.054778
0.0547049
0.0547378
0.0548337
0.0549235
0.0549511
0.0549098
0.0548379
0.0547788
0.0547506
0.0547577
0.0548119
0.0549166
0.0550268
0.0550681
0.0550245
0.0549597
0.0549441
0.0549945
0.0550964
0.0552171
0.0552999
0.0553073
0.0552684
0.0552429
0.0552664
0.0553454
0.055439
0.0554826
0.0554581
0.0553891
0.0553172
0.0552904
0.055288
0.0552355
0.0551051
0.0549307
0.0547758
0.0546256
0.0544159
0.0541366
0.0538365
0.0535817
0.0533671
0.0531225
0.0527855
0.0523813
0.0520067
0.0516852
0.051363
0.0510213
0.0506743
0.0503604
0.0501044
0.0498671
0.0496171
0.0493843
0.0492244
0.049147
0.0490945
0.0490298
0.0489787
0.0489974
0.0491223
0.0492999
0.0494327
0.0494783
0.0494747
0.0494837
0.049535
0.0496265
0.0497145
0.0497557
0.0497572
0.0497522
0.0497865
0.0498643
0.0499192
0.0499088
0.0498586
0.0498308
0.0498614
0.0499236
0.0499529
0.0499342
0.0499357
0.049987
0.050039
0.050072
0.0501054
0.0501475
0.0501873
0.0502243
0.0502664
0.0503141
0.0503744
0.0504454
0.0505104
0.0505501
0.0505645
0.0505698
0.0505894
0.0506178
0.050622
0.0505781
0.050503
0.0504362
0.0503806
0.0503237
0.0502588
0.0502033
0.0501541
0.0500624
0.0499032
0.0497168
0.049551
0.0494115
0.0492766
0.0491446
0.048972
0.0487548
0.0485405
0.0483703
0.0481898
0.0479529
0.0476992
0.0474725
0.0472302
0.0470021
0.0468075
0.0466131
0.0463732
0.0460683
0.0457255
0.0454239
0.0451487
0.0448854
0.0446221
0.0442615
0.0438397
0.0434227
0.0430411
0.042731
0.0423903
0.0420866
0.0416078
0.0412273
0.0409735
0.0406109
0.0405595
0.0403987
0.0396262
0.0392225
0.0390373
0.038619
0.0403867
0.0411857
0.0390659
0.0394435
0.0386155
0.0377233
0.0369513
0.0361086
0.0353201
0.0353044
0.0349283
0.035266
0.0351241
0.0347046
0.0343834
0.0346904
0.0348901
0.0349114
0.0394556
0.0417815
0.0386
0.0401214
0.0368339
0.0333912
0.0308158
0.0304563
0.0304015
0.0293219
0.0282356
0.0279593
0.0287981
0.0295347
0.0304678
0.0319607
0.0319858
0.0324649
0.0333033
0.0328002
0.0374696
0.0507667
0.0548072
0.065162
0.0632776
0.0643499
0.0614522
0.0771461
0.0854132
0.0714951
0.0662848
0.0610862
0.054158
0.0466971
0.0407974
0.0371355
0.0354182
0.0348227
0.0343955
0.0340574
0.0341092
0.0342413
0.0343996
0.0346923
0.0347294
0.0348142
0.035082
0.0354102
0.0353757
0.0352909
0.0355122
0.0358219
0.0360339
0.0360282
0.0359592
0.035985
0.0359738
0.0360084
0.0359878
0.0361092
0.0361783
0.0359279
0.0355531
0.0352273
0.0350283
0.0349521
0.0349313
0.0349028
0.0348601
0.034801
0.0347177
0.0347505
0.034648
0.0345232
0.0346122
0.0347957
0.0349034
0.0348972
0.0348003
0.034642
0.0344661
0.0343196
0.0342177
0.0341641
0.0341466
0.0341388
0.03409
0.0340019
0.0339132
0.0338724
0.0339129
0.0339865
0.0340114
0.0339526
0.0338619
0.0338461
0.033867
0.0338953
0.0337783
0.0337264
0.0337358
0.0335562
0.0332763
0.0329568
0.0331292
0.0337325
0.0344731
0.0371104
0.0333269
0.00154637
0.00471761
0.0167496
0.0495474
0.112831
0.201736
0.276483
0.295597
0.281022
0.265095
0.259777
0.269572
0.299316
0.349291
0.431565
0.516537
0.578505
0.621129
0.669029
0.748788
0.863983
1.01209
1.17763
1.33617
1.45908
1.51696
1.50796
1.4486
1.3592
1.2555
1.14419
1.03
0.921075
0.824399
0.747183
0.682438
0.623458
0.562372
0.499425
0.444303
0.407385
0.38897
0.381463
0.374105
0.362096
0.344935
0.330261
0.323796
0.323486
0.32233
0.315981
0.302654
0.2827
0.260945
0.243573
0.233071
0.230263
0.234742
0.243983
0.254926
0.264285
0.271994
0.28216
0.29558
0.305773
0.307941
0.300095
0.284993
0.272654
0.270613
0.280959
0.301452
0.325634
0.34789
0.364985
0.38182
0.407044
0.456387
0.539549
0.625306
0.734298
0.844929
0.94666
1.05642
1.16393
1.2676
1.32726
1.32645
1.24381
1.07869
0.867405
0.691711
0.549387
0.440037
0.371934
0.340978
0.335626
0.349459
0.379573
0.426785
0.464724
0.497762
0.526959
0.534834
0.517966
0.493815
0.467272
0.43261
0.382241
0.326977
0.278705
0.222254
0.174819
0.124455
0.0887261
0.0701917
0.0710713
0.0820283
0.0889104
0.0946493
0.098322
0.0936892
0.0917182
0.0932685
0.0828464
0.0689362
0.0561761
0.0477532
0.0408901
0.0366096
0.0332815
0.0312176
0.0300666
0.0298417
0.0301119
0.0306539
0.0312256
0.031676
0.0320871
0.032546
0.0331026
0.0337045
0.0342439
0.0346662
0.035012
0.0354244
0.0360046
0.0366948
0.0373196
0.0377562
0.0381271
0.0386406
0.0393119
0.039943
0.0404196
0.0408602
0.0413892
0.0419639
0.0424463
0.0428223
0.043192
0.0435611
0.043793
0.0439088
0.0441139
0.0444109
0.0445187
0.0442662
0.0439576
0.0438638
0.0437496
0.0433816
0.0426615
0.0417556
0.0408656
0.0400786
0.0393652
0.0384328
0.0372695
0.0359843
0.0345256
0.0330334
0.0316691
0.030415
0.0293018
0.0282034
0.0270002
0.0257478
0.0245157
0.0234064
0.0224223
0.0215118
0.0206282
0.019722
0.0187921
0.0179019
0.0171192
0.016441
0.0158067
0.0151619
0.0144792
0.0138069
0.0131966
0.0126465
0.0121268
0.0116234
0.011131
0.0106639
0.0102381
0.00984447
0.00944721
0.00902569
0.00861438
0.00824737
0.0079336
0.00766515
0.0074087
0.00713628
0.00684432
0.00655786
0.00630807
0.00609984
0.00592633
0.00576679
0.00560321
0.00543256
0.00526501
0.00511781
0.00499737
0.00490163
0.00481548
0.00472666
0.00463727
0.00455719
0.00449353
0.00444631
0.00441052
0.00438098
0.00435411
0.00432941
0.00430727
0.00428697
0.00426831
0.00425418
0.00424904
0.00425352
0.00426234
0.00426716
0.00426462
0.0042606
0.00426268
0.00427115
0.00428166
0.00429031
0.00429554
0.0042984
0.00430099
0.00430409
0.0043062
0.00430569
0.00430275
0.00430021
0.00430253
0.00431245
0.00432691
0.00433696
0.00433499
0.00432288
0.00431089
0.00430824
0.00431643
0.00433084
0.00434544
0.00435555
0.00435915
0.00435756
0.00435444
0.00435336
0.00435729
0.00436841
0.00438609
0.00440423
0.00441412
0.00441345
0.00440941
0.00441107
0.00442042
0.00443475
0.00445085
0.00446333
0.00446801
0.00446761
0.00446802
0.00447242
0.00448155
0.00449218
0.00449922
0.00450153
0.00449893
0.00449177
0.00448537
0.0044818
0.00447655
0.00446523
0.00444704
0.00442711
0.00440723
0.00438422
0.0043551
0.00432218
0.00429142
0.00426427
0.0042365
0.00420061
0.00415621
0.00411224
0.00407339
0.00403688
0.00400086
0.00396429
0.00392876
0.00389674
0.00386686
0.00383834
0.00381403
0.00379652
0.00378436
0.00377321
0.00376183
0.00375376
0.00375313
0.00376113
0.00377267
0.00377993
0.00377978
0.00377552
0.003772
0.00377123
0.0037732
0.00377564
0.00377545
0.00377196
0.00376754
0.00376668
0.00376878
0.00376804
0.00376236
0.00375478
0.0037501
0.00375036
0.003753
0.00375339
0.0037509
0.00375067
0.00375487
0.00376028
0.0037657
0.00377138
0.00377713
0.00378276
0.00378912
0.00379688
0.0038051
0.00381407
0.00382376
0.0038331
0.00384085
0.00384664
0.00385131
0.0038566
0.00386209
0.00386513
0.00386319
0.00385771
0.00385264
0.00384863
0.00384501
0.00383981
0.00383372
0.00382714
0.00381776
0.00380306
0.00378517
0.0037683
0.00375368
0.00373877
0.00372303
0.00370304
0.00368004
0.00365764
0.00363717
0.00361461
0.00358855
0.00356315
0.00353948
0.00351282
0.00348604
0.00346174
0.00343784
0.00341344
0.00338237
0.00334788
0.00331567
0.00328502
0.0032531
0.00322431
0.00318832
0.00314914
0.00310814
0.00306373
0.00302672
0.00298415
0.00295491
0.00291226
0.00288852
0.00286819
0.00281795
0.00279681
0.00278416
0.00276428
0.00283616
0.00289411
0.00277998
0.00289092
0.00288735
0.00268532
0.00248463
0.00236587
0.00238293
0.00243322
0.00245669
0.00243004
0.00238334
0.00232377
0.00233086
0.00230064
0.00227298
0.0023537
0.00255103
0.00268772
0.00258425
0.00286105
0.00281301
0.00249001
0.00210405
0.00194503
0.00193803
0.00190613
0.00193456
0.00190563
0.00185514
0.00189835
0.00192937
0.00197239
0.00198736
0.00198727
0.00209701
0.00213646
0.00241954
0.00301821
0.00352394
0.00444752
0.0055449
0.00581374
0.00511518
0.00519789
0.00541586
0.00448027
0.00501528
0.00522565
0.00492288
0.00459116
0.00411072
0.00356134
0.00306687
0.00271443
0.00249392
0.00238054
0.00231815
0.00227162
0.00223681
0.0022301
0.00223081
0.00223342
0.00224395
0.00224322
0.00224622
0.00225866
0.00227462
0.0022725
0.00226929
0.00228234
0.00230111
0.0023141
0.00231641
0.00231494
0.00231627
0.00231434
0.00231638
0.0023182
0.00232413
0.00232408
0.00230845
0.00228538
0.00226538
0.00225268
0.00224503
0.00224047
0.00223657
0.00223181
0.00222655
0.00222232
0.00222423
0.0022188
0.00221286
0.00221695
0.00222531
0.00222939
0.00222751
0.00222098
0.00221131
0.00220039
0.00219046
0.00218279
0.00217831
0.0021769
0.00217621
0.00217383
0.0021691
0.00216419
0.00216306
0.00216673
0.00217109
0.0021712
0.00216672
0.00216196
0.00216215
0.00216293
0.00216205
0.00215458
0.00215014
0.0021579
0.00214281
0.0021421
0.00212066
0.00215527
0.00220951
0.00232499
0.00258191
0.00241872
0.00150427
0.00430377
0.0145918
0.040133
0.0823506
0.128968
0.153481
0.151384
0.142512
0.142076
0.153376
0.177508
0.216435
0.268838
0.329247
0.382429
0.424333
0.462661
0.51108
0.58639
0.692313
0.817153
0.937327
1.0255
1.06814
1.09863
1.11795
1.10655
1.05726
0.964475
0.84683
0.728651
0.625897
0.546003
0.487948
0.442124
0.399314
0.352847
0.307847
0.270636
0.245198
0.231293
0.225024
0.219681
0.212056
0.201671
0.192263
0.187225
0.186166
0.185401
0.182422
0.176461
0.167333
0.155893
0.144171
0.134595
0.129231
0.128808
0.131682
0.134629
0.137285
0.142241
0.151197
0.161275
0.169077
0.17254
0.170104
0.16189
0.152371
0.147468
0.149211
0.15743
0.169071
0.182331
0.196416
0.211357
0.227768
0.248521
0.283529
0.3349
0.411325
0.515831
0.619247
0.73252
0.832706
0.911609
0.980065
1.01338
1.0039
0.955556
0.875014
0.771372
0.651468
0.529895
0.423179
0.340871
0.282814
0.248184
0.232911
0.229855
0.23099
0.235714
0.248061
0.256317
0.260533
0.263204
0.258972
0.252924
0.243812
0.240896
0.23311
0.216666
0.190086
0.162527
0.130147
0.10248
0.0729793
0.0505266
0.035854
0.0296932
0.0281999
0.0271736
0.026911
0.0274333
0.0265874
0.0277903
0.0299171
0.0266406
0.0216972
0.0171853
0.0140522
0.0115994
0.0100701
0.00887951
0.00824112
0.00803784
0.00799327
0.00809756
0.0081982
0.00827218
0.00834286
0.00844489
0.00857183
0.00869768
0.00881616
0.00895219
0.00912044
0.00929815
0.0094527
0.00958121
0.00972217
0.00990302
0.010103
0.0102759
0.0104101
0.0105455
0.0107131
0.0108981
0.0110621
0.0111952
0.0113036
0.0113881
0.0114496
0.0115068
0.0115791
0.0116433
0.0116584
0.0115918
0.0114914
0.0114284
0.0113617
0.011239
0.0110368
0.0107677
0.0104885
0.0102288
0.00998883
0.00970953
0.00937351
0.00900266
0.00860461
0.00820655
0.00782876
0.00747376
0.00715384
0.00684988
0.00654241
0.00623323
0.00592365
0.0056355
0.00537977
0.00514997
0.00493939
0.00473752
0.00453574
0.00433899
0.00416021
0.00400347
0.00386477
0.00373319
0.0035985
0.00346444
0.00333997
0.00322899
0.00312831
0.00303376
0.00294274
0.00285515
0.00277259
0.00269596
0.00262366
0.00255238
0.00248197
0.00241545
0.00235553
0.00230195
0.00225248
0.00220484
0.00215693
0.00210849
0.00206171
0.00201901
0.00198192
0.00195009
0.00192054
0.00189014
0.00185819
0.00182646
0.00179757
0.00177324
0.001753
0.00173451
0.00171599
0.00169743
0.00167988
0.00166384
0.00164935
0.00163669
0.00162636
0.00161799
0.00160981
0.00160077
0.00159107
0.0015819
0.00157477
0.00157031
0.00156802
0.0015663
0.00156333
0.00155874
0.00155403
0.00155081
0.00154961
0.00154979
0.00154998
0.00154921
0.00154757
0.00154621
0.0015461
0.00154688
0.00154733
0.0015473
0.00154745
0.00154853
0.00155104
0.00155412
0.00155625
0.00155737
0.00155839
0.00155978
0.00156171
0.00156455
0.00156869
0.00157358
0.00157807
0.00158163
0.00158435
0.00158671
0.00158965
0.00159391
0.00159957
0.00160593
0.00161168
0.00161576
0.0016184
0.00162128
0.00162566
0.00163125
0.00163717
0.00164262
0.00164693
0.00165015
0.00165311
0.00165663
0.00166055
0.00166432
0.00166778
0.00167073
0.00167275
0.00167362
0.00167419
0.00167462
0.00167415
0.00167279
0.00167083
0.00166838
0.00166525
0.00166109
0.00165555
0.00164925
0.00164277
0.00163606
0.00162855
0.00161962
0.00160947
0.00159902
0.00158878
0.00157831
0.00156724
0.00155568
0.00154398
0.00153221
0.00152049
0.00150895
0.00149774
0.00148696
0.0014763
0.00146557
0.00145499
0.00144513
0.00143628
0.0014281
0.00142006
0.00141193
0.00140399
0.00139629
0.00138894
0.00138202
0.00137548
0.0013694
0.00136359
0.00135783
0.00135226
0.00134715
0.00134242
0.00133787
0.00133344
0.0013293
0.00132571
0.00132271
0.00132006
0.00131744
0.00131488
0.00131277
0.00131126
0.00131017
0.0013094
0.00130874
0.00130821
0.00130788
0.00130784
0.0013081
0.00130845
0.00130883
0.00130931
0.00130991
0.00131058
0.00131112
0.00131144
0.00131178
0.00131225
0.00131261
0.00131251
0.001312
0.00131144
0.00131099
0.00131054
0.00130983
0.00130889
0.00130785
0.00130669
0.00130524
0.00130345
0.00130159
0.0012998
0.00129784
0.0012956
0.00129303
0.00129047
0.00128788
0.00128515
0.00128212
0.001279
0.00127605
0.00127323
0.00127005
0.00126664
0.00126328
0.00125996
0.00125681
0.00125341
0.00124971
0.00124598
0.00124207
0.00123809
0.00123461
0.00123076
0.00122666
0.00122255
0.00121743
0.00121326
0.00120991
0.00120864
0.00120728
0.00120648
0.0012104
0.00122751
0.00124438
0.00127387
0.00129322
0.00138938
0.00144129
0.00136922
0.00130362
0.00125713
0.00124067
0.00120664
0.00119231
0.00117451
0.00116467
0.00116579
0.00117921
0.00119146
0.0012366
0.00127381
0.00130611
0.00134781
0.00141759
0.00154395
0.00165516
0.00156083
0.0014315
0.00132219
0.00128819
0.00122695
0.00120706
0.00117289
0.00115024
0.00116076
0.00115631
0.00116774
0.00116309
0.00122043
0.00124356
0.00129522
0.00141858
0.00164481
0.0020424
0.00269688
0.00359384
0.00400954
0.00384577
0.00356726
0.00312593
0.00252121
0.00218029
0.00191318
0.00171283
0.00155916
0.00146111
0.00142419
0.00140719
0.00139293
0.0013719
0.00134327
0.00131339
0.00128693
0.00126439
0.00124536
0.00122968
0.00121703
0.00120699
0.00119852
0.0011914
0.00118576
0.00118085
0.00117683
0.00117368
0.00117129
0.00116884
0.00116669
0.00116547
0.00116471
0.00116383
0.00116278
0.00116168
0.00116087
0.0011601
0.00115957
0.00115908
0.00115877
0.00115821
0.00115706
0.00115559
0.00115423
0.00115327
0.00115253
0.00115196
0.00115142
0.0011508
0.0011501
0.00114951
0.00114926
0.00114872
0.00114809
0.0011479
0.00114792
0.00114773
0.00114724
0.00114658
0.00114585
0.00114512
0.00114442
0.00114381
0.0011433
0.00114292
0.0011426
0.00114227
0.00114187
0.00114142
0.00114115
0.00114116
0.00114122
0.00114099
0.00114045
0.00114002
0.00114004
0.00114008
0.00113973
0.00113926
0.00113782
0.00114387
0.00113895
0.00115046
0.00114487
0.00116813
0.00119789
0.0012697
0.0014261
0.00138691
0.00145781
0.00372368
0.0114471
0.0293865
0.0564586
0.0824488
0.0931979
0.0909639
0.0892892
0.0974484
0.118337
0.148837
0.185978
0.226166
0.26495
0.300292
0.330921
0.362783
0.403741
0.460447
0.533584
0.610674
0.672285
0.712636
0.741811
0.767009
0.779596
0.761173
0.705499
0.620314
0.526327
0.442766
0.37825
0.332259
0.299406
0.271428
0.242887
0.213406
0.186439
0.164895
0.149272
0.139036
0.133101
0.128813
0.12419
0.11911
0.114525
0.111129
0.109567
0.108801
0.107391
0.105222
0.101685
0.0962917
0.089099
0.0819245
0.076562
0.0741413
0.0735945
0.0735987
0.074324
0.0773223
0.0833157
0.0901136
0.0953425
0.0983986
0.0991619
0.0971032
0.0933562
0.0901257
0.0892238
0.0916202
0.0969231
0.104215
0.113156
0.123181
0.133765
0.146323
0.163685
0.187548
0.217854
0.262083
0.314676
0.385987
0.468693
0.541583
0.609555
0.665004
0.687099
0.675137
0.642322
0.589704
0.529405
0.465524
0.402391
0.342221
0.285828
0.23694
0.198894
0.170874
0.152112
0.141091
0.13484
0.129624
0.127236
0.129299
0.131446
0.133074
0.134688
0.139199
0.142478
0.1446
0.147164
0.145118
0.136701
0.121796
0.105727
0.0865642
0.0695757
0.0505466
0.0346643
0.0232315
0.0170141
0.0142486
0.0129027
0.012473
0.0128712
0.0130961
0.0149116
0.0170163
0.0155273
0.0127612
0.0100903
0.00812513
0.00646679
0.00551517
0.00496408
0.00445983
0.00413632
0.00395146
0.00386851
0.00381667
0.00378183
0.00376819
0.0037828
0.0038203
0.00386306
0.00389954
0.00393435
0.003976
0.00402951
0.00409049
0.00414924
0.00420035
0.00424837
0.00430028
0.00435634
0.00441458
0.00447051
0.00451942
0.00455605
0.0045831
0.00460609
0.00462844
0.00464988
0.00466377
0.00466402
0.00464679
0.00461887
0.00459097
0.00456202
0.00452135
0.00446146
0.00438487
0.00430387
0.00422406
0.00414579
0.00405913
0.00396057
0.00385683
0.00375433
0.00365244
0.00355082
0.00345147
0.00335571
0.00326591
0.0031843
0.00310757
0.00303076
0.0029539
0.0028809
0.00281325
0.00275183
0.00269727
0.00264707
0.00259761
0.00254702
0.00249801
0.00245469
0.00241627
0.00237889
0.00234027
0.00230154
0.00226624
0.00223464
0.00220374
0.00217163
0.00213873
0.00210716
0.0020789
0.00205364
0.00202825
0.002
0.00197013
0.00194133
0.00191508
0.00189172
0.00187009
0.00184783
0.00182334
0.00179773
0.00177349
0.00175165
0.00173207
0.00171384
0.00169562
0.00167661
0.00165682
0.00163688
0.00161839
0.00160276
0.0015891
0.00157553
0.00156132
0.00154701
0.00153354
0.00152129
0.0015104
0.00150126
0.00149313
0.00148435
0.00147453
0.00146467
0.00145603
0.00144945
0.001445
0.00144179
0.00143836
0.00143362
0.00142788
0.0014228
0.0014195
0.00141774
0.00141656
0.00141521
0.00141347
0.00141157
0.00141043
0.00141082
0.00141199
0.00141236
0.00141172
0.00141087
0.00141074
0.00141235
0.00141558
0.00141883
0.00142095
0.00142203
0.00142284
0.00142434
0.00142732
0.00143152
0.00143542
0.00143859
0.00144186
0.00144543
0.00144875
0.00145171
0.00145513
0.00145974
0.00146501
0.00146994
0.00147388
0.0014768
0.00147979
0.00148421
0.00148972
0.00149449
0.0014982
0.00150158
0.00150466
0.00150813
0.00151245
0.00151622
0.00151883
0.00152116
0.00152346
0.00152564
0.0015276
0.00152885
0.00152905
0.00152875
0.00152833
0.0015278
0.00152654
0.00152407
0.00152121
0.00151791
0.0015138
0.00150909
0.00150379
0.00149805
0.0014918
0.00148492
0.00147751
0.00146954
0.00146099
0.00145206
0.00144303
0.00143387
0.00142424
0.00141415
0.00140389
0.00139357
0.00138332
0.00137322
0.001363
0.00135254
0.00134231
0.00133251
0.00132305
0.00131372
0.0013045
0.00129578
0.00128757
0.00127967
0.00127208
0.00126485
0.00125795
0.00125138
0.00124522
0.00123945
0.001234
0.00122892
0.00122417
0.00121973
0.00121562
0.00121186
0.00120848
0.00120547
0.00120265
0.00119998
0.00119766
0.00119564
0.0011939
0.0011924
0.00119109
0.00118999
0.00118906
0.00118829
0.00118771
0.00118725
0.00118686
0.00118654
0.00118629
0.00118608
0.00118593
0.00118579
0.00118563
0.0011855
0.00118541
0.00118528
0.00118502
0.00118471
0.00118435
0.00118398
0.00118352
0.00118302
0.00118242
0.00118178
0.00118108
0.00118033
0.00117943
0.00117847
0.00117746
0.00117638
0.00117522
0.00117401
0.0011727
0.00117134
0.00116994
0.0011685
0.00116702
0.00116554
0.00116399
0.00116245
0.00116082
0.0011592
0.00115743
0.00115571
0.00115392
0.00115237
0.00115078
0.00114932
0.00114767
0.00114598
0.00114449
0.0011479
0.0011487
0.0011472
0.00114646
0.00115085
0.00116897
0.00118606
0.00121681
0.0012425
0.00134097
0.00139878
0.00133392
0.00127409
0.00122954
0.00121076
0.00117724
0.00115986
0.00114077
0.00113057
0.00112796
0.0011398
0.00115695
0.00120453
0.00124657
0.0013117
0.00135355
0.001519
0.00163689
0.00161037
0.00150492
0.00136429
0.0012843
0.00126691
0.0012153
0.00119644
0.0011625
0.0011382
0.00113885
0.00114009
0.00114142
0.00115532
0.00121388
0.00129015
0.00141794
0.00159594
0.0020071
0.00238426
0.00311592
0.00395956
0.00426006
0.00398643
0.00369354
0.00326822
0.00264479
0.00225496
0.00192661
0.00166663
0.00148105
0.00136268
0.00131063
0.0012912
0.00128688
0.00128826
0.00128537
0.00127941
0.00126957
0.00125722
0.00124402
0.00123073
0.00121764
0.00120526
0.00119435
0.001185
0.00117672
0.00116926
0.00116264
0.00115692
0.00115192
0.00114762
0.00114395
0.00114087
0.00113822
0.00113583
0.00113373
0.00113194
0.00113036
0.00112903
0.00112785
0.00112677
0.00112581
0.00112494
0.00112418
0.00112356
0.00112291
0.00112218
0.00112144
0.00112071
0.00112007
0.00111955
0.00111911
0.00111871
0.00111829
0.00111782
0.00111734
0.00111692
0.00111648
0.00111602
0.00111564
0.00111533
0.001115
0.0011146
0.00111417
0.00111377
0.00111343
0.00111312
0.00111279
0.00111242
0.00111203
0.00111166
0.00111136
0.00111108
0.00111076
0.00111048
0.00111029
0.0011101
0.00110976
0.00110942
0.00110933
0.00110938
0.00110918
0.00110865
0.0011086
0.00110745
0.00111304
0.0011083
0.00112037
0.00111582
0.00113812
0.00116751
0.00123764
0.00139148
0.00135558
0.00137434
0.00301878
0.00854549
0.0207477
0.0383496
0.0546326
0.0612944
0.0604638
0.0611231
0.0694028
0.0839232
0.101891
0.122542
0.145812
0.170793
0.196876
0.223392
0.250155
0.280814
0.319618
0.363256
0.403226
0.436093
0.458903
0.472151
0.478161
0.47132
0.44665
0.403046
0.347358
0.292212
0.24684
0.214053
0.191817
0.175171
0.159837
0.14397
0.128233
0.114307
0.103025
0.0942889
0.0876989
0.0832122
0.080075
0.0775884
0.0753928
0.0730664
0.0705312
0.0687661
0.0680573
0.0678145
0.0678217
0.06702
0.0643417
0.059677
0.0543349
0.0500401
0.0474206
0.0459382
0.0451212
0.0452479
0.0470034
0.0505362
0.0548356
0.0582602
0.0605843
0.0620048
0.0625845
0.0618073
0.0600534
0.0587704
0.0591307
0.061762
0.0661528
0.0715554
0.0773645
0.0830014
0.0887836
0.0962438
0.106853
0.119995
0.136515
0.155195
0.177371
0.208143
0.241598
0.27971
0.321633
0.358028
0.376793
0.38775
0.384254
0.368051
0.34666
0.318967
0.289224
0.258751
0.228153
0.198714
0.169787
0.14388
0.122932
0.106015
0.0933938
0.0849731
0.0791209
0.0753495
0.0733157
0.0735721
0.0777219
0.0828336
0.0883609
0.0942281
0.0980593
0.100637
0.103063
0.102094
0.0966132
0.0865379
0.0754095
0.0622783
0.0508052
0.0379712
0.0268205
0.0183869
0.0136021
0.0113151
0.0103001
0.0101127
0.0107554
0.0113618
0.0136766
0.0160501
0.015292
0.0126952
0.0100312
0.00808157
0.00663417
0.00543433
0.00458671
0.0038863
0.00346937
0.00325431
0.0031362
0.00305031
0.00299181
0.00295906
0.002948
0.00295246
0.00296642
0.00298432
0.00300394
0.00302387
0.00304586
0.00307196
0.00310076
0.00312583
0.00314666
0.00316741
0.00318825
0.00320709
0.00322408
0.00323785
0.00324506
0.00324778
0.00324861
0.00324743
0.00324486
0.00323937
0.00322639
0.00320877
0.00318847
0.00316703
0.00314496
0.00311968
0.00309042
0.00305655
0.00301976
0.00298366
0.002951
0.00291962
0.0028851
0.00284827
0.0028091
0.0027661
0.00272435
0.00268917
0.00265928
0.00263153
0.00259973