/*--------------------------------*- C++ -*----------------------------------*\
| =========                 |                                                 |
| \\      /  F ield         | OpenFOAM: The Open Source CFD Toolbox           |
|  \\    /   O peration     | Version:  v2006                                 |
|   \\  /    A nd           | Website:  www.openfoam.com                      |
|    \\/     M anipulation  |                                                 |
\*---------------------------------------------------------------------------*/
FoamFile
{
    version     2.0;
    format      ascii;
    class       volScalarField;
    location    "7.3";
    object      p;
}
// * * * * * * * * * * * * * * * * * * * * * * * * * * * * * * * * * * * * * //

dimensions      [1 -1 -2 0 0 0 0];


internalField   nonuniform List<scalar> 
33000
(
8237.56
8240.38
8242.27
8243.8
8245.32
8246.89
8248.49
8250.11
8251.76
8253.14
8253.99
8253.87
8252.84
8251.72
8250.89
8250.66
8250.81
8250.87
8251.01
8250.99
8250.77
8250.48
8249.96
8249.27
8248.63
8248.17
8247.79
8247.41
8247.78
8248.12
8247.84
8247.26
8246.56
8245.78
8244.94
8244.03
8243.08
8242.11
8241.1
8240.06
8238.99
8237.89
8236.78
8235.64
8234.47
8233.26
8232.08
8230.88
8229.68
8228.4
8227.14
8225.89
8224.66
8223.41
8222.14
8220.87
8219.6
8218.33
8217.05
8215.8
8214.6
8213.39
8212.2
8211.06
8209.97
8208.9
8207.85
8206.89
8205.98
8205.12
8204.38
8203.73
8203.21
8202.92
8202.93
8203.19
8203.86
8204.32
8198.8
8186.41
8193.92
8191.42
8189.2
8188.93
8187.17
8184.82
8184.63
8183.04
8182.51
8181.06
8180.35
8179.35
8178.59
8178.1
8177.98
8177.72
8178.62
8178.45
8181.67
8180.14
8173.79
8172.56
8170.28
8168.27
8166.94
8164.61
8162.03
8159.4
8157.16
8155.2
8152.8
8150.61
8148.19
8145.57
8143.21
8140.35
8139.21
8135.58
8129.02
8125.17
8120.06
8114.7
8109.46
8103.48
8096.74
8090
8082.81
8075.31
8067.6
8059.47
8050.91
8042.09
8032.85
8023.37
8013.56
8003.45
7993.01
7982.23
7971.14
7959.73
7948.03
7936.05
7923.8
7911.34
7898.66
7885.8
7872.79
7859.63
7846.35
7833
7819.61
7806.21
7792.81
7779.43
7766.11
7752.89
7739.79
7726.83
7714.04
7701.43
7689.05
7676.89
7664.99
7653.37
7642.04
7631.02
7620.31
7609.96
7599.95
7590.3
7581.01
7572.09
7563.57
7555.41
7547.63
7540.2
7533.13
7526.42
7520.05
7514
7508.25
7502.77
7497.54
7492.54
7487.74
7483.12
7478.68
7474.37
7470.18
7466.11
7462.2
7458.46
7454.92
7451.6
7448.51
7445.66
7443.06
7440.73
7438.68
7436.91
7435.43
7434.23
7433.31
7432.69
7432.36
7432.32
7432.57
7433.1
7433.9
7434.98
7436.34
7437.95
7439.82
7441.92
7444.26
7446.82
7449.6
7452.6
7455.8
7459.18
7462.74
7466.46
7470.33
7474.36
7478.53
7482.84
7487.26
7491.78
7496.4
7501.1
7505.88
7510.74
7515.66
7520.63
7525.64
7530.68
7535.74
7540.83
7545.92
7551.02
7556.12
7561.21
7566.3
7571.36
7576.39
7581.39
7586.36
7591.29
7596.18
7601.03
7605.82
7610.56
7615.24
7619.87
7624.44
7628.95
7633.39
7637.77
7642.08
7646.31
7650.49
7654.59
7658.62
7662.57
7666.45
7670.25
7673.99
7677.65
7681.23
7684.74
7688.18
7691.53
7694.81
7698.02
7701.15
7704.2
7707.18
7710.09
7712.92
7715.67
7718.35
7720.96
7723.49
7725.96
7728.35
7730.67
7732.92
7735.1
7737.21
7739.26
7741.25
7743.17
7745.03
7746.82
7748.56
7750.24
7751.87
7753.44
7754.96
7756.43
7757.86
7759.23
7760.56
7761.85
7763.11
7764.32
7765.5
7766.64
7767.75
7768.83
7769.89
7770.92
7771.93
7772.91
7773.88
7774.84
7775.78
7776.72
7777.64
7778.56
7779.48
7780.39
7781.31
7782.23
7783.16
7784.1
7785.04
7786
7786.97
7787.96
7788.96
7789.97
7791.01
7792.06
7793.13
7794.22
7795.33
7796.47
7797.62
7798.8
7800
7801.22
7802.47
7803.74
7805.03
7806.34
7807.68
7809.04
7810.42
7811.82
7813.24
7814.69
7816.16
7817.64
7819.15
7820.68
7822.22
7823.79
7825.37
7826.96
7828.57
7830.2
7831.84
7833.48
7835.14
7836.81
7838.48
7840.16
7841.84
7843.52
7845.2
7846.88
7848.56
7850.23
7851.89
7853.54
7855.18
7856.8
7858.41
7860
7861.57
7863.11
7864.63
7866.13
7867.59
7869.02
7870.41
7871.77
7873.09
7874.38
7875.62
7876.82
7877.97
7879.08
7880.14
7881.15
7882.11
7883.02
7883.88
7884.69
7885.45
7886.16
7886.81
7887.4
7887.95
7888.44
7888.88
7889.27
7889.61
7889.89
7890.12
7890.3
7890.42
7890.51
7890.54
7890.52
7890.46
7890.35
7890.21
7890.02
7889.8
7889.52
7889.23
7888.87
7888.51
7888.15
7887.72
7887.25
7886.85
7886.13
7885.7
7885.45
7884.94
7884.48
7883.89
7883.31
7882.66
7881.98
7881.27
7880.51
7879.74
7878.91
7878.09
7877.27
7876.41
7875.51
7874.67
7873.57
7872.71
7872.04
7871.12
7870.27
7869.27
7868.31
7867.24
7866.21
7865.08
7864
7862.84
7861.69
7860.5
7859.33
7858.08
7856.95
7855.77
7854.6
7853.42
7852.3
7850.59
7849.88
7849.12
7848.19
7847.2
7846.17
7845.09
7843.99
7842.86
7841.71
7840.55
7839.37
7838.18
7836.98
7835.77
7834.56
7833.33
7832.11
7830.87
7829.64
7828.4
7827.17
7825.93
7824.7
7823.46
7822.23
7821.01
7819.79
7818.58
7817.38
7816.18
7814.99
7813.81
7812.64
7811.48
7810.34
7809.2
7808.08
7806.96
7805.87
7804.78
7803.72
7802.66
7801.62
7800.6
7799.6
7798.61
7797.64
7796.69
7795.75
7794.84
7793.94
7793.07
7792.21
7791.37
7790.56
7789.76
7788.98
7788.23
7787.5
7786.79
7786.1
7785.43
7784.78
7784.16
7783.56
7782.98
7782.43
7781.9
7781.39
7780.9
7780.44
7780
7779.6
7779.18
7778.85
7778.46
7778.2
7777.83
7777.65
7777.3
7777.13
8041.44
8044.24
8046.11
8047.61
8049.09
8050.61
8052.14
8053.63
8054.8
8055.57
8055.99
8055.64
8054.71
8053.75
8053.62
8053.97
8054.42
8054.71
8054.92
8054.93
8054.71
8054.25
8053.46
8052.52
8051.74
8051.15
8050.85
8050.88
8051.19
8051.67
8051.67
8051.2
8050.53
8049.74
8048.88
8047.97
8047.06
8046.06
8045.05
8044.01
8042.91
8041.81
8040.7
8039.54
8038.33
8037.13
8035.96
8034.75
8033.55
8032.28
8031
8029.72
8028.47
8027.22
8025.94
8024.65
8023.38
8022.14
8020.86
8019.61
8018.42
8017.21
8015.99
8014.82
8013.7
8012.62
8011.52
8010.53
8009.59
8008.69
8007.88
8007.13
8006.46
8005.87
8005.35
8004.86
8004.37
8003.74
8002.99
8003.8
8004.6
7997.69
7983.12
7992.76
7991.31
7989.16
7989.55
7987.15
7986.27
7983.32
7983.61
7982.3
7981.9
7981.16
7980.83
7980.1
7980.18
7979.75
7979.92
7979.04
7977.99
7980.81
7978.45
7970.41
7968.92
7966.16
7965.27
7963.12
7962.44
7960.32
7957.1
7954.54
7951.72
7949.02
7946.5
7943.68
7940.7
7937.44
7933.34
7931.43
7926.62
7918.35
7913.1
7906.81
7900.64
7894.47
7887.53
7879.73
7871.87
7863.58
7855.05
7846.32
7837.18
7827.67
7817.85
7807.68
7797.23
7786.42
7775.35
7763.95
7752.26
7740.27
7728.02
7715.53
7702.83
7689.95
7676.9
7663.71
7650.4
7637.03
7623.62
7610.18
7596.74
7583.32
7569.98
7556.74
7543.61
7530.62
7517.79
7505.16
7492.75
7480.58
7468.66
7457.02
7445.68
7434.63
7423.92
7413.55
7403.54
7393.88
7384.58
7375.67
7367.13
7358.97
7351.19
7343.77
7336.7
7329.98
7323.6
7317.54
7311.78
7306.29
7301.05
7296.04
7291.23
7286.6
7282.14
7277.82
7273.62
7269.55
7265.63
7261.88
7258.32
7254.99
7251.88
7249.02
7246.42
7244.08
7242.02
7240.25
7238.76
7237.56
7236.65
7236.03
7235.71
7235.67
7235.93
7236.46
7237.28
7238.37
7239.74
7241.36
7243.24
7245.35
7247.71
7250.28
7253.08
7256.09
7259.3
7262.7
7266.27
7270.01
7273.9
7277.95
7282.13
7286.45
7290.88
7295.41
7300.05
7304.77
7309.57
7314.44
7319.37
7324.35
7329.37
7334.41
7339.49
7344.58
7349.69
7354.8
7359.92
7365.02
7370.1
7375.17
7380.21
7385.22
7390.19
7395.13
7400.03
7404.88
7409.67
7414.42
7419.11
7423.74
7428.31
7432.82
7437.27
7441.64
7445.95
7450.2
7454.37
7458.47
7462.5
7466.45
7470.33
7474.14
7477.88
7481.54
7485.12
7488.63
7492.06
7495.42
7498.7
7501.9
7505.03
7508.09
7511.07
7513.97
7516.8
7519.55
7522.23
7524.84
7527.37
7529.83
7532.22
7534.54
7536.78
7538.96
7541.08
7543.12
7545.1
7547.02
7548.87
7550.67
7552.4
7554.08
7555.7
7557.27
7558.79
7560.25
7561.67
7563.05
7564.37
7565.66
7566.91
7568.11
7569.29
7570.43
7571.53
7572.61
7573.66
7574.69
7575.69
7576.68
7577.65
7578.6
7579.54
7580.47
7581.39
7582.31
7583.23
7584.14
7585.06
7585.98
7586.91
7587.85
7588.79
7589.75
7590.72
7591.7
7592.7
7593.72
7594.75
7595.8
7596.87
7597.96
7599.08
7600.21
7601.36
7602.54
7603.74
7604.96
7606.21
7607.48
7608.77
7610.08
7611.42
7612.78
7614.16
7615.56
7616.99
7618.44
7619.91
7621.39
7622.9
7624.43
7625.98
7627.54
7629.12
7630.72
7632.34
7633.96
7635.6
7637.26
7638.92
7640.59
7642.26
7643.94
7645.63
7647.31
7649
7650.68
7652.36
7654.04
7655.7
7657.36
7659
7660.63
7662.24
7663.84
7665.41
7666.96
7668.48
7669.98
7671.45
7672.88
7674.28
7675.64
7676.97
7678.26
7679.5
7680.7
7681.86
7682.97
7684.03
7685.04
7686.01
7686.92
7687.79
7688.6
7689.36
7690.06
7690.72
7691.31
7691.86
7692.35
7692.79
7693.18
7693.51
7693.8
7694.02
7694.21
7694.33
7694.41
7694.43
7694.42
7694.36
7694.26
7694.1
7693.91
7693.65
7693.39
7693.13
7692.81
7692.42
7692.04
7691.37
7690.93
7690.79
7690.29
7689.91
7689.45
7688.94
7688.43
7687.83
7687.24
7686.56
7685.88
7685.11
7684.38
7683.62
7682.83
7681.97
7681.15
7680.02
7679.17
7678.56
7677.68
7676.87
7676.02
7675.08
7674.16
7673.16
7672.17
7671.13
7670.07
7668.97
7667.83
7666.69
7665.44
7664.36
7663.16
7662.06
7660.8
7659.55
7657.73
7656.94
7656.18
7655.19
7654.19
7653.2
7652.19
7651.14
7650.07
7648.97
7647.86
7646.72
7645.56
7644.39
7643.21
7642.01
7640.8
7639.59
7638.37
7637.14
7635.91
7634.68
7633.44
7632.2
7630.96
7629.72
7628.49
7627.25
7626.02
7624.8
7623.58
7622.36
7621.16
7619.96
7618.77
7617.59
7616.41
7615.25
7614.1
7612.97
7611.84
7610.73
7609.63
7608.55
7607.48
7606.42
7605.38
7604.36
7603.35
7602.37
7601.39
7600.44
7599.51
7598.59
7597.69
7596.82
7595.96
7595.12
7594.3
7593.51
7592.73
7591.98
7591.24
7590.53
7589.84
7589.17
7588.53
7587.9
7587.3
7586.73
7586.17
7585.64
7585.13
7584.65
7584.18
7583.74
7583.34
7582.92
7582.59
7582.2
7581.94
7581.57
7581.39
7581.04
7580.87
7845.49
7848.25
7850.1
7851.55
7852.99
7854.51
7855.91
7857.23
7857.86
7857.7
7856.84
7855.55
7854.32
7854.02
7855.04
7856.55
7857.68
7858.51
7859.07
7859.23
7858.98
7858.45
7857.64
7856.72
7855.91
7855.2
7854.75
7854.68
7854.87
7855.2
7855.18
7854.74
7854.16
7853.47
7852.7
7851.87
7850.95
7849.96
7848.98
7847.91
7846.85
7845.76
7844.63
7843.48
7842.31
7841.1
7839.88
7838.66
7837.42
7836.16
7834.87
7833.6
7832.31
7831.04
7829.75
7828.46
7827.19
7825.91
7824.64
7823.44
7822.2
7820.95
7819.76
7818.56
7817.39
7816.23
7815.12
7814.08
7813.1
7812.14
7811.24
7810.43
7809.62
7808.82
7808.06
7807.35
7806.54
7805.59
7804.18
7802.46
7801.45
7800.97
7802.17
7803.6
7796.39
7780.53
7790.46
7791.2
7791
7788.67
7787.93
7787.02
7783.88
7784.34
7783.65
7783.16
7782.81
7782.18
7781.61
7780.86
7779.14
7778.37
7777.09
7776.17
7780
7776.71
7767.86
7765.14
7762.44
7761.54
7759.55
7759.01
7756.55
7753.31
7750.17
7746.92
7743.86
7740.47
7736.49
7732.17
7727.91
7722.98
7720.49
7714.67
7704.86
7698.51
7691.04
7683.85
7676.74
7668.8
7659.91
7651.07
7641.69
7632.3
7622.52
7612.55
7602.16
7591.34
7580.2
7568.71
7556.96
7544.94
7532.66
7520.13
7507.38
7494.43
7481.31
7468.05
7454.7
7441.27
7427.79
7414.28
7400.77
7387.3
7373.91
7360.61
7347.42
7334.37
7321.49
7308.81
7296.35
7284.13
7272.18
7260.49
7249.11
7238.03
7227.29
7216.89
7206.86
7197.18
7187.87
7178.94
7170.38
7162.22
7154.42
7147
7139.93
7133.2
7126.81
7120.72
7114.94
7109.42
7104.16
7099.12
7094.29
7089.64
7085.14
7080.8
7076.59
7072.52
7068.59
7064.83
7061.26
7057.9
7054.78
7051.9
7049.28
7046.94
7044.87
7043.09
7041.6
7040.4
7039.5
7038.9
7038.59
7038.57
7038.83
7039.39
7040.22
7041.34
7042.73
7044.37
7046.27
7048.41
7050.79
7053.4
7056.23
7059.27
7062.5
7065.93
7069.53
7073.3
7077.23
7081.31
7085.52
7089.86
7094.31
7098.88
7103.54
7108.29
7113.12
7118.01
7122.97
7127.97
7133.01
7138.08
7143.18
7148.29
7153.43
7158.56
7163.69
7168.81
7173.9
7178.98
7184.04
7189.07
7194.06
7199.01
7203.91
7208.77
7213.58
7218.33
7223.03
7227.67
7232.25
7236.76
7241.21
7245.59
7249.91
7254.16
7258.33
7262.44
7266.47
7270.42
7274.31
7278.12
7281.85
7285.51
7289.09
7292.6
7296.03
7299.39
7302.67
7305.88
7309
7312.05
7315.03
7317.93
7320.76
7323.51
7326.19
7328.79
7331.32
7333.77
7336.16
7338.47
7340.71
7342.89
7345
7347.04
7349.01
7350.92
7352.77
7354.55
7356.28
7357.95
7359.57
7361.13
7362.64
7364.1
7365.51
7366.87
7368.19
7369.47
7370.7
7371.9
7373.07
7374.2
7375.3
7376.37
7377.41
7378.43
7379.43
7380.41
7381.37
7382.32
7383.26
7384.18
7385.1
7386.02
7386.93
7387.85
7388.76
7389.68
7390.61
7391.54
7392.48
7393.44
7394.41
7395.39
7396.39
7397.4
7398.44
7399.49
7400.56
7401.65
7402.76
7403.89
7405.05
7406.22
7407.42
7408.64
7409.89
7411.16
7412.45
7413.76
7415.1
7416.46
7417.85
7419.25
7420.68
7422.13
7423.6
7425.09
7426.6
7428.14
7429.69
7431.26
7432.84
7434.45
7436.06
7437.7
7439.34
7441
7442.67
7444.34
7446.03
7447.71
7449.41
7451.1
7452.79
7454.49
7456.17
7457.86
7459.53
7461.2
7462.85
7464.49
7466.11
7467.71
7469.29
7470.85
7472.39
7473.89
7475.37
7476.81
7478.22
7479.59
7480.92
7482.22
7483.47
7484.68
7485.84
7486.96
7488.02
7489.04
7490.01
7490.93
7491.8
7492.61
7493.38
7494.08
7494.74
7495.34
7495.89
7496.38
7496.82
7497.2
7497.54
7497.81
7498.04
7498.21
7498.34
7498.41
7498.44
7498.41
7498.35
7498.21
7498.07
7497.91
7497.7
7497.4
7497.11
7496.52
7496.17
7496.09
7495.69
7495.35
7494.91
7494.45
7493.97
7493.5
7492.96
7492.42
7491.79
7491.17
7490.57
7489.87
7489.21
7488.37
7487.63
7486.51
7485.74
7485.17
7484.37
7483.59
7482.75
7481.85
7480.96
7480.07
7479.12
7478.2
7477.17
7476.21
7475.06
7474.01
7472.77
7471.77
7470.58
7469.51
7468.27
7466.99
7465.14
7464.38
7463.59
7462.58
7461.52
7460.45
7459.36
7458.3
7457.26
7456.2
7455.12
7454.02
7452.9
7451.76
7450.61
7449.44
7448.26
7447.06
7445.86
7444.64
7443.42
7442.19
7440.96
7439.72
7438.48
7437.24
7436
7434.75
7433.51
7432.27
7431.03
7429.8
7428.57
7427.34
7426.13
7424.92
7423.71
7422.52
7421.33
7420.16
7418.99
7417.84
7416.7
7415.57
7414.46
7413.36
7412.27
7411.2
7410.14
7409.1
7408.07
7407.07
7406.08
7405.1
7404.15
7403.21
7402.29
7401.39
7400.52
7399.66
7398.82
7398
7397.2
7396.42
7395.67
7394.93
7394.22
7393.53
7392.86
7392.21
7391.59
7390.99
7390.41
7389.86
7389.32
7388.81
7388.33
7387.87
7387.43
7387.02
7386.6
7386.28
7385.88
7385.62
7385.25
7385.07
7384.72
7384.55
7649.64
7652.38
7654.18
7655.58
7656.98
7658.38
7659.58
7660.65
7661.11
7661.02
7660.36
7659
7657.47
7657.1
7658.1
7659.74
7661.31
7662.58
7663.29
7663.42
7663.22
7662.77
7662.17
7661.47
7660.79
7660.36
7660.04
7659.87
7659.79
7659.71
7659.49
7658.98
7658.32
7657.6
7656.78
7655.95
7655.05
7654.1
7653.09
7652.05
7650.94
7649.81
7648.66
7647.5
7646.33
7645.13
7643.86
7642.61
7641.36
7640.08
7638.78
7637.49
7636.19
7634.89
7633.59
7632.28
7630.97
7629.69
7628.46
7627.19
7625.91
7624.68
7623.47
7622.2
7621
7619.8
7618.66
7617.53
7616.51
7615.48
7614.48
7613.54
7612.6
7611.67
7610.75
7609.82
7608.85
7607.79
7606.7
7605.58
7604.4
7602.77
7600.82
7599.25
7597.98
7598.62
7601.32
7602.14
7594.71
7577.8
7590.5
7589.24
7587.97
7587.48
7586.53
7583.74
7584.37
7583.46
7582.77
7581.9
7580.7
7579.73
7578.43
7575.89
7574.73
7572.29
7572.42
7571.6
7575.72
7573.48
7563.17
7561.09
7557.88
7555.89
7554.54
7551.66
7547.53
7543.69
7539.49
7535.62
7531.21
7526.31
7520.85
7515.74
7509.8
7506.74
7499.91
7488.66
7481.28
7472.67
7464.43
7456.4
7447.43
7437.62
7427.7
7417.41
7407.03
7396.2
7385.25
7373.84
7362.08
7349.99
7337.63
7325.03
7312.23
7299.22
7286.01
7272.67
7259.23
7245.71
7232.14
7218.54
7204.93
7191.38
7177.9
7164.51
7151.23
7138.11
7125.15
7112.39
7099.85
7087.57
7075.55
7063.81
7052.37
7041.25
7030.47
7020.03
7009.96
7000.25
6990.92
6981.96
6973.38
6965.19
6957.37
6949.92
6942.82
6936.06
6929.62
6923.5
6917.66
6912.09
6906.78
6901.69
6896.81
6892.12
6887.59
6883.22
6878.99
6874.9
6870.97
6867.21
6863.64
6860.27
6857.14
6854.25
6851.63
6849.28
6847.21
6845.42
6843.94
6842.75
6841.86
6841.27
6840.98
6840.98
6841.27
6841.86
6842.73
6843.88
6845.3
6846.97
6848.91
6851.09
6853.51
6856.16
6859.04
6862.12
6865.4
6868.86
6872.51
6876.33
6880.31
6884.43
6888.69
6893.07
6897.56
6902.17
6906.87
6911.67
6916.54
6921.47
6926.46
6931.49
6936.57
6941.68
6946.81
6951.96
6957.12
6962.29
6967.44
6972.58
6977.71
6982.81
6987.89
6992.94
6997.95
7002.92
7007.84
7012.71
7017.53
7022.3
7027.01
7031.67
7036.25
7040.77
7045.23
7049.62
7053.94
7058.19
7062.37
7066.48
7070.51
7074.47
7078.36
7082.17
7085.91
7089.57
7093.15
7096.66
7100.09
7103.44
7106.72
7109.93
7113.06
7116.1
7119.08
7121.97
7124.79
7127.54
7130.22
7132.82
7135.34
7137.79
7140.16
7142.47
7144.71
7146.87
7148.97
7151
7152.97
7154.87
7156.71
7158.49
7160.2
7161.86
7163.47
7165.02
7166.51
7167.96
7169.36
7170.71
7172.01
7173.28
7174.5
7175.69
7176.84
7177.96
7179.05
7180.11
7181.14
7182.15
7183.14
7184.11
7185.07
7186.01
7186.94
7187.86
7188.77
7189.68
7190.59
7191.5
7192.41
7193.33
7194.25
7195.19
7196.13
7197.08
7198.04
7199.02
7200.02
7201.03
7202.06
7203.11
7204.18
7205.27
7206.38
7207.52
7208.67
7209.85
7211.04
7212.27
7213.51
7214.78
7216.07
7217.39
7218.73
7220.09
7221.48
7222.89
7224.32
7225.77
7227.25
7228.74
7230.26
7231.8
7233.35
7234.93
7236.52
7238.13
7239.76
7241.4
7243.05
7244.72
7246.4
7248.08
7249.77
7251.47
7253.18
7254.88
7256.59
7258.29
7259.99
7261.69
7263.38
7265.06
7266.72
7268.37
7270.01
7271.63
7273.22
7274.79
7276.34
7277.86
7279.35
7280.8
7282.22
7283.61
7284.96
7286.26
7287.52
7288.74
7289.91
7291.04
7292.11
7293.14
7294.12
7295.04
7295.91
7296.73
7297.5
7298.2
7298.86
7299.46
7300.01
7300.5
7300.94
7301.32
7301.65
7301.95
7302.16
7302.36
7302.45
7302.54
7302.52
7302.51
7302.47
7302.38
7302.19
7302.01
7301.52
7301.26
7301.27
7300.95
7300.7
7300.32
7299.93
7299.5
7299.12
7298.64
7298.18
7297.64
7297.1
7296.6
7295.97
7295.41
7294.65
7293.97
7292.91
7292.19
7291.71
7290.96
7290.24
7289.44
7288.57
7287.74
7286.86
7286
7285.08
7284.17
7283.19
7282.19
7281.1
7280.13
7279.11
7278.05
7276.98
7275.82
7274.49
7272.65
7271.93
7271.14
7270.11
7269.01
7267.91
7266.78
7265.68
7264.61
7263.54
7262.45
7261.36
7260.26
7259.15
7258.02
7256.87
7255.71
7254.54
7253.35
7252.16
7250.95
7249.73
7248.5
7247.27
7246.03
7244.79
7243.54
7242.29
7241.04
7239.79
7238.54
7237.29
7236.05
7234.8
7233.56
7232.32
7231.09
7229.87
7228.65
7227.44
7226.25
7225.06
7223.88
7222.71
7221.55
7220.4
7219.27
7218.15
7217.05
7215.96
7214.88
7213.82
7212.77
7211.75
7210.73
7209.74
7208.76
7207.81
7206.87
7205.95
7205.05
7204.16
7203.3
7202.46
7201.64
7200.84
7200.06
7199.3
7198.57
7197.85
7197.16
7196.49
7195.85
7195.22
7194.62
7194.04
7193.48
7192.95
7192.44
7191.95
7191.49
7191.05
7190.64
7190.23
7189.9
7189.5
7189.24
7188.87
7188.69
7188.34
7188.17
7453.96
7456.68
7458.45
7459.78
7461.08
7462.35
7463.53
7464.35
7464.8
7464.9
7464.89
7464.65
7464.5
7464.72
7465.24
7466.01
7466.7
7467.29
7467.72
7467.8
7467.63
7467.28
7466.86
7466.38
7465.91
7465.46
7465.09
7464.78
7464.51
7464.19
7463.75
7463.16
7462.51
7461.77
7460.94
7460.11
7459.24
7458.28
7457.21
7456.13
7455.02
7453.88
7452.7
7451.53
7450.32
7449.12
7447.84
7446.54
7445.21
7443.97
7442.67
7441.34
7440.04
7438.71
7437.39
7436.07
7434.75
7433.45
7432.18
7430.87
7429.55
7428.3
7427.02
7425.77
7424.52
7423.3
7422.12
7420.95
7419.81
7418.73
7417.63
7416.56
7415.55
7414.54
7413.48
7412.4
7411.34
7410.25
7409.1
7407.89
7406.65
7405.38
7404.16
7403.04
7401.75
7400.31
7399.12
7398.02
7397.21
7399.65
7402.76
7394.8
7375.11
7389.88
7389.64
7387.43
7387.34
7385.96
7383.04
7383.49
7382.23
7381.12
7380.08
7378.57
7377.57
7376.21
7373.69
7372.55
7370.56
7370.29
7368.78
7374.28
7370.64
7358.84
7356.22
7352.53
7350.01
7348.07
7344.3
7339.26
7334.36
7329.23
7324.44
7319.13
7313.23
7306.77
7300.74
7293.79
7290.13
7282.32
7269.62
7261.45
7251.54
7242.69
7233.17
7223.95
7213.77
7202.46
7191.21
7179.47
7167.59
7155.55
7143.16
7130.47
7117.5
7104.33
7091
7077.57
7064.02
7050.38
7036.67
7022.93
7009.2
6995.53
6981.92
6968.4
6955.01
6941.76
6928.7
6915.84
6903.21
6890.83
6878.73
6866.91
6855.39
6844.21
6833.37
6822.88
6812.75
6803.01
6793.63
6784.63
6776.01
6767.77
6759.9
6752.39
6745.24
6738.41
6731.91
6725.72
6719.8
6714.17
6708.78
6703.62
6698.68
6693.93
6689.36
6684.95
6680.7
6676.61
6672.68
6668.93
6665.36
6662.01
6658.88
6656
6653.38
6651.04
6648.98
6647.21
6645.73
6644.56
6643.7
6643.13
6642.86
6642.9
6643.23
6643.86
6644.77
6645.97
6647.43
6649.15
6651.14
6653.38
6655.86
6658.57
6661.5
6664.64
6667.98
6671.5
6675.21
6679.1
6683.14
6687.32
6691.64
6696.08
6700.63
6705.29
6710.05
6714.9
6719.82
6724.81
6729.84
6734.93
6740.06
6745.21
6750.39
6755.58
6760.79
6765.99
6771.18
6776.35
6781.52
6786.65
6791.77
6796.84
6801.88
6806.87
6811.81
6816.7
6821.54
6826.33
6831.06
6835.72
6840.32
6844.86
6849.33
6853.72
6858.05
6862.31
6866.5
6870.61
6874.64
6878.61
6882.5
6886.31
6890.05
6893.71
6897.29
6900.8
6904.23
6907.59
6910.87
6914.07
6917.19
6920.24
6923.21
6926.1
6928.92
6931.66
6934.33
6936.92
6939.43
6941.87
6944.24
6946.54
6948.77
6950.92
6953.01
6955.03
6956.98
6958.87
6960.7
6962.46
6964.16
6965.81
6967.4
6968.93
6970.41
6971.84
6973.22
6974.55
6975.84
6977.09
6978.3
6979.47
6980.61
6981.71
6982.79
6983.83
6984.85
6985.85
6986.83
6987.79
6988.73
6989.66
6990.58
6991.5
6992.41
6993.31
6994.21
6995.12
6996.02
6996.93
6997.85
6998.78
6999.72
7000.67
7001.63
7002.6
7003.6
7004.61
7005.64
7006.69
7007.75
7008.84
7009.95
7011.08
7012.23
7013.41
7014.61
7015.83
7017.08
7018.35
7019.64
7020.96
7022.3
7023.67
7025.05
7026.47
7027.9
7029.36
7030.84
7032.34
7033.87
7035.41
7036.98
7038.56
7040.16
7041.78
7043.42
7045.07
7046.74
7048.41
7050.1
7051.8
7053.51
7055.22
7056.94
7058.66
7060.38
7062.1
7063.82
7065.53
7067.24
7068.93
7070.62
7072.29
7073.94
7075.58
7077.19
7078.78
7080.35
7081.88
7083.39
7084.86
7086.3
7087.71
7089.07
7090.39
7091.66
7092.9
7094.08
7095.22
7096.31
7097.35
7098.33
7099.27
7100.14
7100.97
7101.74
7102.46
7103.12
7103.72
7104.27
7104.76
7105.22
7105.59
7105.95
7106.19
7106.42
7106.55
7106.67
7106.78
7106.81
7106.76
7106.69
7106.31
7106.17
7106.28
7106.06
7105.89
7105.59
7105.29
7104.94
7104.63
7104.22
7103.84
7103.34
7102.88
7102.41
7101.91
7101.33
7100.76
7099.84
7099.21
7098.88
7098.19
7097.63
7096.85
7096.17
7095.3
7094.55
7093.71
7092.92
7092.05
7091.19
7090.27
7089.32
7088.31
7087.42
7086.47
7085.48
7084.58
7083.29
7081.98
7080.18
7079.54
7078.75
7077.71
7076.61
7075.49
7074.35
7073.24
7072.15
7071.06
7069.95
7068.84
7067.73
7066.61
7065.48
7064.34
7063.2
7062.04
7060.87
7059.69
7058.5
7057.29
7056.08
7054.85
7053.62
7052.38
7051.13
7049.88
7048.63
7047.37
7046.11
7044.85
7043.59
7042.33
7041.07
7039.81
7038.56
7037.31
7036.07
7034.83
7033.59
7032.37
7031.15
7029.95
7028.75
7027.56
7026.39
7025.22
7024.07
7022.93
7021.81
7020.7
7019.6
7018.52
7017.46
7016.41
7015.37
7014.36
7013.36
7012.38
7011.42
7010.48
7009.55
7008.65
7007.76
7006.9
7006.05
7005.23
7004.43
7003.65
7002.89
7002.15
7001.43
7000.74
7000.07
6999.42
6998.79
6998.19
6997.61
6997.05
6996.52
6996.01
6995.52
6995.05
6994.61
6994.21
6993.79
6993.46
6993.06
6992.81
6992.43
6992.25
6991.9
6991.73
7258.49
7261.2
7262.93
7264.23
7265.49
7266.71
7267.75
7268.53
7269.16
7269.65
7270.1
7270.24
7270.39
7270.61
7270.93
7271.36
7271.78
7272.11
7272.3
7272.33
7272.2
7271.93
7271.62
7271.25
7270.81
7270.43
7270.04
7269.67
7269.27
7268.8
7268.24
7267.6
7266.91
7266.13
7265.3
7264.45
7263.53
7262.51
7261.44
7260.34
7259.2
7258.03
7256.86
7255.64
7254.39
7253.11
7251.82
7250.54
7249.21
7247.91
7246.6
7245.23
7243.85
7242.52
7241.17
7239.82
7238.49
7237.17
7235.83
7234.5
7233.17
7231.89
7230.59
7229.31
7228.01
7226.73
7225.49
7224.3
7223.06
7221.87
7220.72
7219.57
7218.46
7217.37
7216.22
7215.04
7213.89
7212.72
7211.54
7210.32
7209.12
7207.92
7206.67
7205.42
7204.18
7202.96
7201.89
7200.97
7199.85
7198.51
7197.35
7196.55
7198.85
7202.09
7193.75
7173.08
7188.79
7189.23
7185.92
7185.39
7184.22
7180.29
7180.75
7179.09
7177.92
7176.27
7175.27
7173.67
7173.02
7171.71
7169.46
7167.73
7166.07
7164.53
7170.28
7165.96
7152.37
7149.13
7144.83
7141.6
7139.1
7134.43
7128.38
7122.46
7116.39
7110.65
7104.47
7097.52
7090.11
7083.11
7075.2
7070.95
7061.98
7048.34
7038.66
7028.32
7018.28
7007.59
6997.44
6986.09
6973.84
6961.47
6948.8
6935.98
6923.06
6909.85
6896.39
6882.75
6869.03
6855.23
6841.38
6827.49
6813.61
6799.76
6786
6772.32
6758.78
6745.39
6732.2
6719.21
6706.46
6693.96
6681.73
6669.81
6658.21
6646.94
6636.01
6625.45
6615.24
6605.42
6595.97
6586.9
6578.21
6569.89
6561.93
6554.33
6547.08
6540.16
6533.56
6527.26
6521.25
6515.52
6510.04
6504.8
6499.79
6494.98
6490.36
6485.93
6481.66
6477.56
6473.64
6469.91
6466.36
6463.03
6459.93
6457.06
6454.47
6452.15
6450.11
6448.38
6446.93
6445.79
6444.95
6444.42
6444.2
6444.28
6444.67
6445.36
6446.33
6447.58
6449.1
6450.9
6452.95
6455.26
6457.82
6460.6
6463.61
6466.83
6470.24
6473.85
6477.64
6481.59
6485.71
6489.97
6494.36
6498.88
6503.52
6508.25
6513.08
6517.99
6522.97
6528.02
6533.13
6538.28
6543.46
6548.68
6553.91
6559.16
6564.41
6569.66
6574.9
6580.13
6585.33
6590.51
6595.66
6600.77
6605.84
6610.86
6615.83
6620.75
6625.61
6630.42
6635.17
6639.85
6644.46
6649.01
6653.5
6657.9
6662.24
6666.51
6670.7
6674.82
6678.86
6682.83
6686.72
6690.54
6694.28
6697.94
6701.53
6705.03
6708.46
6711.82
6715.1
6718.29
6721.41
6724.45
6727.42
6730.31
6733.12
6735.85
6738.51
6741.09
6743.6
6746.03
6748.39
6750.68
6752.89
6755.03
6757.11
6759.11
6761.05
6762.92
6764.73
6766.48
6768.16
6769.79
6771.36
6772.87
6774.33
6775.74
6777.1
6778.41
6779.68
6780.91
6782.1
6783.25
6784.37
6785.45
6786.51
6787.54
6788.54
6789.52
6790.49
6791.43
6792.36
6793.28
6794.2
6795.1
6796
6796.89
6797.79
6798.68
6799.58
6800.49
6801.4
6802.32
6803.26
6804.2
6805.16
6806.13
6807.12
6808.13
6809.15
6810.2
6811.26
6812.35
6813.46
6814.58
6815.74
6816.91
6818.11
6819.33
6820.58
6821.85
6823.15
6824.47
6825.81
6827.18
6828.57
6829.99
6831.43
6832.9
6834.39
6835.9
6837.43
6838.98
6840.56
6842.15
6843.76
6845.4
6847.04
6848.71
6850.39
6852.08
6853.78
6855.5
6857.22
6858.95
6860.69
6862.43
6864.17
6865.91
6867.65
6869.39
6871.11
6872.83
6874.54
6876.23
6877.91
6879.57
6881.21
6882.82
6884.41
6885.97
6887.5
6888.99
6890.46
6891.88
6893.26
6894.6
6895.89
6897.14
6898.34
6899.49
6900.6
6901.64
6902.65
6903.58
6904.48
6905.3
6906.08
6906.8
6907.47
6908.07
6908.63
6909.12
6909.56
6909.91
6910.24
6910.57
6910.79
6911.01
6911.07
6911.16
6910.9
6910.89
6911.11
6911
6910.94
6910.74
6910.53
6910.28
6910.06
6909.73
6909.44
6909.01
6908.63
6908.24
6907.81
6907.32
6906.81
6905.95
6905.38
6905.18
6904.53
6904.08
6903.36
6902.73
6901.95
6901.25
6900.48
6899.75
6898.93
6898.13
6897.26
6896.36
6895.36
6894.56
6893.59
6892.69
6891.75
6890.45
6888.79
6888.24
6887.47
6886.48
6885.42
6884.28
6883.16
6882.02
6880.9
6879.81
6878.7
6877.59
6876.47
6875.34
6874.21
6873.07
6871.93
6870.78
6869.62
6868.45
6867.28
6866.09
6864.9
6863.69
6862.47
6861.25
6860.02
6858.78
6857.53
6856.27
6855.01
6853.74
6852.47
6851.2
6849.93
6848.65
6847.38
6846.11
6844.84
6843.57
6842.3
6841.05
6839.79
6838.54
6837.3
6836.07
6834.84
6833.62
6832.42
6831.22
6830.04
6828.87
6827.71
6826.56
6825.43
6824.31
6823.21
6822.13
6821.05
6820
6818.96
6817.94
6816.94
6815.95
6814.98
6814.04
6813.11
6812.2
6811.31
6810.44
6809.6
6808.77
6807.96
6807.18
6806.42
6805.68
6804.96
6804.26
6803.59
6802.94
6802.31
6801.7
6801.12
6800.56
6800.03
6799.51
6799.03
6798.56
6798.12
6797.71
6797.29
6796.96
6796.56
6796.31
6795.93
6795.75
6795.41
6795.23
7063.25
7065.94
7067.67
7068.95
7070.18
7071.39
7072.43
7073.26
7074.01
7074.63
7075.13
7075.48
7075.82
7076.15
7076.47
7076.75
7076.99
7077.15
7077.24
7077.21
7077.08
7076.87
7076.57
7076.23
7075.84
7075.43
7075
7074.54
7074.04
7073.48
7072.85
7072.15
7071.4
7070.61
7069.77
7068.84
7067.86
7066.81
7065.71
7064.58
7063.42
7062.22
7061
7059.75
7058.5
7057.18
7055.86
7054.52
7053.2
7051.86
7050.51
7049.14
7047.7
7046.3
7044.92
7043.55
7042.19
7040.83
7039.48
7038.12
7036.76
7035.42
7034.1
7032.76
7031.45
7030.13
7028.81
7027.52
7026.23
7024.97
7023.77
7022.54
7021.34
7020.15
7018.97
7017.75
7016.49
7015.27
7014.06
7012.83
7011.61
7010.37
7009.11
7007.85
7006.62
7005.44
7004.28
7003.22
7002.1
7000.87
6999.79
6998.59
6997.02
6995.71
6994.79
6997.24
7000.82
6992.15
6969.86
6986.75
6987.79
6983.64
6983.13
6981.77
6977.43
6977.86
6976.32
6975.07
6973.78
6972.34
6970.76
6969.48
6967.79
6964.86
6962.69
6960.44
6958.5
6964.69
6959.4
6943.75
6939.63
6934.51
6930.45
6927.31
6921.73
6914.46
6907.69
6900.32
6894.02
6886.9
6879.09
6871.33
6862.54
6854.67
6845.91
6840.34
6830.37
6814.64
6803.73
6791.5
6779.72
6768.31
6755.8
6742.45
6729.08
6715.51
6701.88
6688.24
6674.4
6660.36
6646.25
6632.15
6618.07
6604.05
6590.08
6576.2
6562.47
6548.9
6535.55
6522.41
6509.51
6496.87
6484.51
6472.46
6460.74
6449.35
6438.31
6427.63
6417.31
6407.37
6397.82
6388.64
6379.83
6371.38
6363.31
6355.58
6348.2
6341.15
6334.43
6328.01
6321.88
6316.03
6310.45
6305.13
6300.03
6295.16
6290.5
6286.04
6281.75
6277.67
6273.76
6270.06
6266.55
6263.26
6260.2
6257.38
6254.83
6252.55
6250.56
6248.87
6247.47
6246.38
6245.59
6245.12
6244.96
6245.11
6245.57
6246.33
6247.37
6248.69
6250.3
6252.19
6254.33
6256.74
6259.38
6262.26
6265.35
6268.67
6272.18
6275.89
6279.77
6283.82
6288.02
6292.38
6296.87
6301.48
6306.21
6311.03
6315.94
6320.94
6326
6331.13
6336.31
6341.54
6346.79
6352.08
6357.38
6362.7
6368.01
6373.32
6378.62
6383.9
6389.16
6394.38
6399.57
6404.72
6409.83
6414.89
6419.9
6424.85
6429.74
6434.57
6439.34
6444.04
6448.68
6453.25
6457.74
6462.16
6466.51
6470.79
6474.99
6479.11
6483.16
6487.14
6491.03
6494.86
6498.6
6502.26
6505.85
6509.36
6512.79
6516.14
6519.41
6522.6
6525.72
6528.76
6531.72
6534.6
6537.4
6540.13
6542.78
6545.35
6547.84
6550.26
6552.61
6554.88
6557.08
6559.21
6561.26
6563.25
6565.17
6567.02
6568.81
6570.53
6572.2
6573.8
6575.35
6576.84
6578.28
6579.66
6581
6582.29
6583.53
6584.74
6585.9
6587.03
6588.12
6589.19
6590.22
6591.23
6592.21
6593.18
6594.12
6595.05
6595.97
6596.87
6597.77
6598.66
6599.55
6600.43
6601.32
6602.21
6603.1
6604
6604.9
6605.82
6606.74
6607.68
6608.64
6609.6
6610.59
6611.59
6612.61
6613.65
6614.71
6615.8
6616.9
6618.03
6619.18
6620.35
6621.55
6622.78
6624.02
6625.3
6626.59
6627.92
6629.26
6630.64
6632.04
6633.46
6634.91
6636.38
6637.87
6639.39
6640.94
6642.5
6644.09
6645.69
6647.32
6648.97
6650.63
6652.31
6654.01
6655.72
6657.44
6659.17
6660.92
6662.67
6664.43
6666.19
6667.96
6669.72
6671.49
6673.25
6675
6676.75
6678.48
6680.2
6681.91
6683.6
6685.26
6686.91
6688.52
6690.11
6691.67
6693.19
6694.67
6696.12
6697.53
6698.89
6700.21
6701.48
6702.7
6703.88
6704.99
6706.07
6707.07
6708.03
6708.92
6709.77