/*--------------------------------*- C++ -*----------------------------------*\
| =========                 |                                                 |
| \\      /  F ield         | OpenFOAM: The Open Source CFD Toolbox           |
|  \\    /   O peration     | Version:  v2006                                 |
|   \\  /    A nd           | Website:  www.openfoam.com                      |
|    \\/     M anipulation  |                                                 |
\*---------------------------------------------------------------------------*/
FoamFile
{
    version     2.0;
    format      ascii;
    class       volVectorField;
    location    "7.3";
    object      U;
}
// * * * * * * * * * * * * * * * * * * * * * * * * * * * * * * * * * * * * * //

dimensions      [0 1 -1 0 0 0 0];


internalField   nonuniform List<vector> 
33000
(
(0.0840907 0 -0.00100036)
(0.0782875 0 -0.000974541)
(0.0783652 0 -0.000720247)
(0.0798537 0 -0.00031522)
(0.0801531 0 0.000943252)
(0.0794599 0 0.0011728)
(0.0789832 0 0.000505483)
(0.0803807 0 -0.0012067)
(0.0879196 0 -0.00623907)
(0.109813 0 -0.0183176)
(0.139373 0 -0.0252251)
(0.170928 0 -0.0188171)
(0.196178 0 -0.0067956)
(0.2052 0 0.000892339)
(0.204858 0 0.00227932)
(0.200856 0 0.00198471)
(0.195166 0 -0.00171676)
(0.19464 0 -0.00594097)
(0.196689 0 -0.00743324)
(0.201502 0 -0.00629907)
(0.207919 0 -0.00594297)
(0.215587 0 -0.00830006)
(0.225469 0 -0.00990075)
(0.235173 0 -0.00695977)
(0.241625 0 -0.00089233)
(0.244133 0 0.00349687)
(0.243986 0 0.00419745)
(0.241104 0 0.00431473)
(0.232824 0 0.0100397)
(0.215482 0 0.0186246)
(0.200095 0 0.0176286)
(0.188736 0 0.0120249)
(0.180804 0 0.00790261)
(0.174889 0 0.00530667)
(0.170768 0 0.00418897)
(0.166909 0 0.00484261)
(0.161871 0 0.00513711)
(0.157181 0 0.00356219)
(0.15485 0 0.00120175)
(0.154741 0 -0.000357927)
(0.155441 0 -0.000706484)
(0.156101 0 -2.6918e-05)
(0.155704 0 0.00186454)
(0.15346 0 0.00264036)
(0.15135 0 0.001285)
(0.150789 0 -0.000509677)
(0.151694 0 -0.00146225)
(0.153129 0 -0.00103738)
(0.153628 0 0.000781392)
(0.152685 0 0.00179383)
(0.151402 0 0.00116291)
(0.150717 0 -0.00026974)
(0.151177 0 -0.000894309)
(0.152533 0 -0.00113558)
(0.154196 0 -0.00141429)
(0.156215 0 -0.00162234)
(0.158386 0 -0.00180278)
(0.160281 0 -0.00155275)
(0.161212 0 -0.000113429)
(0.160228 0 0.00190017)
(0.158013 0 0.00260825)
(0.156126 0 0.00170651)
(0.15504 0 0.000970084)
(0.154003 0 0.00100282)
(0.152473 0 0.00136151)
(0.150773 0 0.00121471)
(0.149659 0 5.7981e-05)
(0.150122 0 -0.00116688)
(0.151617 0 -0.00218285)
(0.153723 0 -0.00207864)
(0.155155 0 -0.00160319)
(0.15555 0 -0.000601786)
(0.15477 0 0.000577474)
(0.152097 0 0.0014122)
(0.149927 0 0.00322767)
(0.143863 0 0.00551346)
(0.143667 0 0.011616)
(0.132641 0 0.0200299)
(0.101028 0 0.0115498)
(0.103756 0 0.00167681)
(0.0939592 0 -0.00139686)
(0.0935076 0 -0.00314822)
(0.0904451 0 0.00538332)
(0.0849622 0 0.00418656)
(0.0842133 0 0.00268148)
(0.0827058 0 0.000422446)
(0.0790112 0 -0.00114124)
(0.0771245 0 -0.001293)
(0.0768179 0 -0.0016997)
(0.0770249 0 -0.000410298)
(0.0766266 0 -0.00019387)
(0.0768486 0 0.000174598)
(0.0766457 0 0.000341129)
(0.0757786 0 0.000483363)
(0.0753276 0 0.00125308)
(0.0734486 0 0.00148466)
(0.0726794 0 0.00354249)
(0.0675275 0 0.00404582)
(0.0663271 0 0.0103529)
(0.0528548 0 0.0101993)
(0.0464115 0 0.00573943)
(0.0377095 0 -0.00358318)
(0.0374573 0 -0.00814439)
(0.0366376 0 -0.00385763)
(0.0366015 0 -0.000103043)
(0.0390674 0 0.00275587)
(0.0401537 0 0.00190973)
(0.0405644 0 0.00109271)
(0.0398976 0 -0.00102295)
(0.0402313 0 -0.00219766)
(0.0406383 0 -0.00186599)
(0.0408925 0 -0.00122205)
(0.0418346 0 -0.000214719)
(0.0418565 0 0.000276035)
(0.0423558 0 0.00104042)
(0.0408723 0 0.00128058)
(0.0411723 0 0.00383061)
(0.0354656 0 0.0038733)
(0.0342394 0 0.00136624)
(0.0320978 0 -0.00234226)
(0.033522 0 -0.00384276)
(0.0338328 0 -0.00170276)
(0.0344102 0 -0.000469726)
(0.0359849 0 0.000346154)
(0.0369619 0 0.000190711)
(0.0374541 0 -0.000455539)
(0.0381947 0 -0.000982501)
(0.0387343 0 -0.000820947)
(0.0392943 0 -0.000630176)
(0.0400492 0 -0.000409815)
(0.0406865 0 -0.000335886)
(0.0412632 0 -0.000379416)
(0.0417997 0 -0.000433854)
(0.0422562 0 -0.000422719)
(0.0427334 0 -0.00041421)
(0.0431934 0 -0.000343864)
(0.0436744 0 -0.000306028)
(0.0441268 0 -0.000263298)
(0.0445462 0 -0.000263318)
(0.0449395 0 -0.000259565)
(0.0452972 0 -0.000254034)
(0.0456239 0 -0.000223716)
(0.045896 0 -0.000178065)
(0.0461146 0 -0.000137413)
(0.0462851 0 -0.00010517)
(0.0464099 0 -7.90642e-05)
(0.0465 0 -5.37731e-05)
(0.0465462 0 -1.54637e-05)
(0.0465362 0 3.29176e-05)
(0.0464547 0 9.41118e-05)
(0.046311 0 0.000126725)
(0.0461383 0 0.000150241)
(0.0459231 0 0.000187299)
(0.0456496 0 0.000234532)
(0.0453135 0 0.000286187)
(0.0449181 0 0.00033363)
(0.0444708 0 0.000371159)
(0.0439723 0 0.000406451)
(0.0434226 0 0.000448389)
(0.0428174 0 0.000492916)
(0.042164 0 0.000537843)
(0.0414527 0 0.000592498)
(0.0406693 0 0.000644333)
(0.0398314 0 0.000679611)
(0.0389523 0 0.00072287)
(0.0380056 0 0.000785685)
(0.0369725 0 0.000846238)
(0.0358757 0 0.000889204)
(0.0347318 0 0.000935382)
(0.0335164 0 0.000999981)
(0.0322067 0 0.00108279)
(0.0307931 0 0.00115572)
(0.0293063 0 0.00119808)
(0.0277683 0 0.00124412)
(0.0261545 0 0.00130367)
(0.0244646 0 0.00138295)
(0.0226629 0 0.00146939)
(0.0207654 0 0.00152323)
(0.0188274 0 0.00154611)
(0.0168523 0 0.00156297)
(0.0148611 0 0.0015582)
(0.0128955 0 0.00155292)
(0.0109244 0 0.00156012)
(0.0089619 0 0.00155347)
(0.00701358 0 0.00153908)
(0.00508401 0 0.00148953)
(0.00323593 0 0.00141741)
(0.00147048 0 0.00135008)
(-0.000209072 0 0.0012947)
(-0.00182871 0 0.00125897)
(-0.00339927 0 0.00121245)
(-0.00490447 0 0.00115743)
(-0.00634694 0 0.00109671)
(-0.00771437 0 0.00103975)
(-0.00901413 0 0.000993909)
(-0.0102561 0 0.000953668)
(-0.0114512 0 0.000925654)
(-0.0126179 0 0.000902283)
(-0.0137444 0 0.000869237)
(-0.0148246 0 0.000828168)
(-0.0158452 0 0.000776204)
(-0.0168063 0 0.000737668)
(-0.0177314 0 0.000710562)
(-0.0186231 0 0.000685534)
(-0.0194802 0 0.000659332)
(-0.0203004 0 0.000629114)
(-0.0210755 0 0.000590207)
(-0.0218052 0 0.000559002)
(-0.0225037 0 0.000536747)
(-0.0231772 0 0.000520659)
(-0.0238259 0 0.000492385)
(-0.0244233 0 0.000449709)
(-0.0249736 0 0.000419119)
(-0.0254957 0 0.000396335)
(-0.0259877 0 0.000379523)
(-0.0264623 0 0.000367331)
(-0.026915 0 0.000345221)
(-0.027335 0 0.000315117)
(-0.0277156 0 0.00028141)
(-0.0280568 0 0.000256704)
(-0.0283726 0 0.000236759)
(-0.0286635 0 0.000221537)
(-0.0289378 0 0.00021077)
(-0.0291946 0 0.000193362)
(-0.0294242 0 0.0001699)
(-0.0296256 0 0.000144935)
(-0.0297959 0 0.000123301)
(-0.0299422 0 0.000105388)
(-0.0300671 0 9.18837e-05)
(-0.0301784 0 8.45944e-05)
(-0.0302786 0 7.17001e-05)
(-0.0303569 0 5.29099e-05)
(-0.0304114 0 3.38605e-05)
(-0.0304421 0 1.66656e-05)
(-0.0304531 0 3.20427e-06)
(-0.030449 0 -7.30388e-06)
(-0.0304326 0 -1.82656e-05)
(-0.030402 0 -3.075e-05)
(-0.0303587 0 -3.91578e-05)
(-0.0303051 0 -4.75595e-05)
(-0.0302381 0 -5.56707e-05)
(-0.0301593 0 -6.51757e-05)
(-0.0300646 0 -8.13997e-05)
(-0.029953 0 -9.20839e-05)
(-0.0298328 0 -9.83474e-05)
(-0.0297045 0 -0.00010293)
(-0.0295727 0 -0.000102312)
(-0.0294412 0 -0.000106128)
(-0.0292949 0 -0.000122599)
(-0.02913 0 -0.000132558)
(-0.0289601 0 -0.000135555)
(-0.0287866 0 -0.000137298)
(-0.0286117 0 -0.00013696)
(-0.0284356 0 -0.000140457)
(-0.0282506 0 -0.000146937)
(-0.0280581 0 -0.000153324)
(-0.0278593 0 -0.000158192)
(-0.0276565 0 -0.000161011)
(-0.0274518 0 -0.000162092)
(-0.0272461 0 -0.000162644)
(-0.0270355 0 -0.000165945)
(-0.0268193 0 -0.000171557)
(-0.0265965 0 -0.00017787)
(-0.0263679 0 -0.000180129)
(-0.0261402 0 -0.000178809)
(-0.025914 0 -0.000176765)
(-0.0256885 0 -0.000177545)
(-0.0254566 0 -0.000186792)
(-0.0252122 0 -0.000194598)
(-0.0249628 0 -0.00019695)
(-0.0247123 0 -0.000198711)
(-0.0244582 0 -0.000200186)
(-0.0242035 0 -0.000199496)
(-0.0239485 0 -0.000200025)
(-0.0236903 0 -0.000203921)
(-0.023426 0 -0.000211012)
(-0.0231543 0 -0.000216201)
(-0.0228775 0 -0.000219008)
(-0.0225969 0 -0.000222258)
(-0.0223117 0 -0.0002262)
(-0.0220216 0 -0.00022846)
(-0.0217308 0 -0.000227651)
(-0.0214406 0 -0.000228451)
(-0.021146 0 -0.000235115)
(-0.020841 0 -0.000242594)
(-0.0205294 0 -0.000245666)
(-0.0202163 0 -0.000247839)
(-0.0198991 0 -0.00025102)
(-0.0195779 0 -0.000253085)
(-0.0192543 0 -0.000254395)
(-0.0189281 0 -0.00025734)
(-0.0185966 0 -0.000262397)
(-0.0182588 0 -0.000267923)
(-0.0179153 0 -0.000271974)
(-0.0175677 0 -0.000275388)
(-0.0172152 0 -0.000277832)
(-0.0168598 0 -0.000278988)
(-0.0165012 0 -0.000282602)
(-0.0161371 0 -0.000288638)
(-0.015767 0 -0.000294191)
(-0.0153906 0 -0.000299015)
(-0.015007 0 -0.000303052)
(-0.0146186 0 -0.000304751)
(-0.0142282 0 -0.000308711)
(-0.0138299 0 -0.000316168)
(-0.0134244 0 -0.000322089)
(-0.013012 0 -0.000326333)
(-0.012593 0 -0.000330294)
(-0.0121695 0 -0.00033511)
(-0.0117398 0 -0.000341001)
(-0.0113037 0 -0.000346451)
(-0.0108608 0 -0.000350167)
(-0.0104148 0 -0.000350539)
(-0.00996947 0 -0.000349905)
(-0.0095241 0 -0.000351761)
(-0.00907631 0 -0.000353427)
(-0.00862847 0 -0.000351918)
(-0.00818412 0 -0.000347993)
(-0.00774552 0 -0.000342562)
(-0.00731485 0 -0.000336172)
(-0.00689327 0 -0.000328392)
(-0.00648313 0 -0.000318849)
(-0.00608572 0 -0.000307314)
(-0.0057038 0 -0.000293565)
(-0.0053392 0 -0.000280233)
(-0.00499057 0 -0.000268038)
(-0.00465811 0 -0.000255148)
(-0.00434322 0 -0.000240438)
(-0.00404756 0 -0.000224939)
(-0.00377014 0 -0.000211204)
(-0.00350882 0 -0.000199033)
(-0.00326303 0 -0.000187655)
(-0.00303209 0 -0.000175476)
(-0.00281761 0 -0.000161713)
(-0.00262012 0 -0.000148968)
(-0.00243689 0 -0.000139664)
(-0.00226449 0 -0.000131966)
(-0.0021018 0 -0.000124229)
(-0.00194915 0 -0.000116533)
(-0.00180585 0 -0.00010911)
(-0.00167142 0 -0.000102582)
(-0.00154443 0 -9.7289e-05)
(-0.00142393 0 -9.30565e-05)
(-0.00130825 0 -8.96065e-05)
(-0.00119685 0 -8.63611e-05)
(-0.0010895 0 -8.3548e-05)
(-0.000985035 0 -8.14573e-05)
(-0.000882459 0 -8.03619e-05)
(-0.000780623 0 -8.01622e-05)
(-0.000678841 0 -8.04173e-05)
(-0.000576582 0 -8.07446e-05)
(-0.000473918 0 -8.1166e-05)
(-0.000370245 0 -8.24713e-05)
(-0.000264179 0 -8.4733e-05)
(-0.000154986 0 -8.72426e-05)
(-4.26661e-05 0 -8.97791e-05)
(7.30328e-05 0 -9.26669e-05)
(0.000192595 0 -9.58332e-05)
(0.000316083 0 -9.92259e-05)
(0.000444028 0 -0.000102963)
(0.000576999 0 -0.000106832)
(0.000714991 0 -0.000110781)
(0.000858026 0 -0.000114716)
(0.00100608 0 -0.000118958)
(0.00115975 0 -0.000123004)
(0.00131808 0 -0.000126592)
(0.00148094 0 -0.00012986)
(0.00164832 0 -0.00013364)
(0.00182101 0 -0.000138128)
(0.00199949 0 -0.000142723)
(0.00218273 0 -0.000146143)
(0.00236988 0 -0.000149055)
(0.00256047 0 -0.000151814)
(0.0027554 0 -0.000155515)
(0.00295484 0 -0.000158675)
(0.00315831 0 -0.000161627)
(0.00336471 0 -0.000163529)
(0.00357367 0 -0.000165856)
(0.00378514 0 -0.000167342)
(0.00399864 0 -0.000167997)
(0.0042124 0 -0.000167994)
(0.00442753 0 -0.000169677)
(0.00464448 0 -0.000171143)
(0.0048631 0 -0.000171513)
(0.00508141 0 -0.000171209)
(0.00529959 0 -0.000170196)
(0.00551671 0 -0.000169358)
(0.00573243 0 -0.000167227)
(0.00594642 0 -0.000166856)
(0.00615925 0 -0.00016438)
(0.00636987 0 -0.000163342)
(0.00657719 0 -0.000158283)
(0.00678038 0 -0.00015712)
(0.00698054 0 -0.000152664)
(0.0071773 0 -0.000152149)
(0.00736974 0 -0.000145893)
(0.00755783 0 -0.000145178)
(0.00774098 0 -0.000137181)
(0.00791817 0 -0.000135079)
(0.00808857 0 -0.000126468)
(0.00825381 0 -0.000126313)
(0.00841343 0 -0.000117766)
(0.0085687 0 -0.000117336)
(0.00871674 0 -0.000108596)
(0.00886052 0 -0.000106453)
(0.00899563 0 -9.68552e-05)
(0.00912475 0 -9.31762e-05)
(0.00924985 0 -9.06898e-05)
(0.00936923 0 -8.56854e-05)
(0.00948554 0 -9.20003e-05)
(0.00959358 0 -8.11959e-05)
(0.00969549 0 -8.94505e-05)
(0.00978995 0 -7.03208e-05)
(0.00987561 0 -7.61171e-05)
(0.00996588 0 -5.33292e-05)
(0.010038 0 -6.35058e-05)
(0.0101085 0 -5.63569e-05)
(0.010171 0 -7.62543e-05)
(0.0102078 0 -4.24842e-05)
(0.010246 0 -4.12594e-05)
(0.010315 0 2.90509e-05)
(0.0103303 0 1.1163e-05)
(0.0103814 0 -4.18438e-05)
(0.0104145 0 -0.000130416)
(0.0102887 0 -8.74317e-05)
(0.0102756 0 -3.0788e-05)
(0.0103899 0 0.000371833)
(0.0102364 0 0.000380092)
(0.0105738 0 -4.95489e-06)
(0.0105739 0 -0.00051104)
(0.0116286 0 -0.000813836)
(0.0118252 0 -0.000422543)
(0.0123003 0 -0.000324901)
(0.0123772 0 -0.000182229)
(0.0125522 0 -0.000134624)
(0.0125355 0 -0.000115582)
(0.0125974 0 -2.53909e-05)
(0.0125776 0 -5.66807e-06)
(0.0126122 0 0.00012414)
(0.0125496 0 0.000120458)
(0.0125476 0 6.99633e-05)
(0.0124829 0 -5.03952e-05)
(0.0122259 0 -4.09891e-05)
(0.0120808 0 4.25746e-05)
(0.0120294 0 0.000607686)
(0.0117534 0 0.00068684)
(0.0120353 0 0.000330682)
(0.011972 0 -0.000440741)
(0.0131877 0 -0.0010548)
(0.0136109 0 -0.000716371)
(0.0142942 0 -0.000476916)
(0.0144983 0 -0.000260999)
(0.0146782 0 -5.73568e-05)
(0.0147277 0 -3.70446e-05)
(0.0147131 0 2.52205e-05)
(0.0146811 0 1.62104e-06)
(0.0145464 0 2.14316e-05)
(0.014348 0 7.74576e-05)
(0.0141967 0 0.000133438)
(0.0140161 0 0.000363583)
(0.0137688 0 0.000221935)
(0.01368 0 0.000139939)
(0.0132768 0 -0.000116858)
(0.0124694 0 -3.32289e-05)
(0.0123655 0 0.000296663)
(0.0117844 0 0.00173835)
(0.011483 0 0.00113149)
(0.0124174 0 0.000567864)
(0.0130982 0 -0.00142635)
(0.0177507 0 -0.0029745)
(0.0192142 0 -0.00281853)
(0.0213217 0 -0.00191092)
(0.0232576 0 -0.00135316)
(0.0240668 0 -0.000778154)
(0.0247901 0 -0.000475075)
(0.0250998 0 -0.000279711)
(0.0253008 0 -0.000143569)
(0.0253598 0 -3.60932e-05)
(0.0253099 0 5.39721e-05)
(0.0251797 0 0.000113318)
(0.025001 0 0.000151585)
(0.0247791 0 0.000190202)
(0.0245086 0 0.000222829)
(0.0242055 0 0.000250441)
(0.023869 0 0.000279971)
(0.0235044 0 0.000290758)
(0.0231282 0 0.000301756)
(0.0227354 0 0.000320659)
(0.022314 0 0.000341684)
(0.0218765 0 0.000343375)
(0.0214435 0 0.00034185)
(0.0210022 0 0.000355254)
(0.0205406 0 0.000371269)
(0.0200616 0 0.000383249)
(0.019576 0 0.000383052)
(0.019091 0 0.000380256)
(0.0186044 0 0.000384386)
(0.0181145 0 0.000387096)
(0.01762 0 0.000390762)
(0.0171233 0 0.000389153)
(0.0166242 0 0.000397137)
(0.0161132 0 0.000406654)
(0.0155991 0 0.000400152)
(0.0150972 0 0.000389399)
(0.0146069 0 0.000380132)
(0.0141246 0 0.000375478)
(0.0136443 0 0.000376614)
(0.0131625 0 0.000378734)
(0.0126806 0 0.000378906)
(0.0121993 0 0.000377898)
(0.0117198 0 0.000375804)
(0.0112471 0 0.000369469)
(0.0107761 0 0.000371344)
(0.0103054 0 0.000364814)
(0.00984562 0 0.000355581)
(0.00939239 0 0.000357208)
(0.00893383 0 0.000363194)
(0.0084701 0 0.000366216)
(0.00800773 0 0.000365145)
(0.00754806 0 0.000361031)
(0.007095 0 0.000354519)
(0.00665015 0 0.000347752)
(0.00621097 0 0.000342638)
(0.00577782 0 0.000338859)
(0.0053496 0 0.000335745)
(0.00492414 0 0.000332934)
(0.00450239 0 0.000331061)
(0.00408441 0 0.000327756)
(0.00367013 0 0.000323809)
(0.00326125 0 0.00032009)
(0.00285707 0 0.00031617)
(0.00245668 0 0.000313883)
(0.00205823 0 0.000313109)
(0.00166063 0 0.000312234)
(0.00126617 0 0.000309028)
(0.00087709 0 0.000304419)
(0.000492807 0 0.000301839)
(0.000110198 0 0.000301184)
(-0.000273008 0 0.000304243)
(-0.000657512 0 0.000298594)
(-0.00105048 0 0.000300373)
(-0.00129359 0 0.000296322)
(-0.00208263 0 0.000302866)
(-0.00162076 0 0.000271961)
(-0.00335675 0 0.000277778)
(-0.00163049 0 0.000254472)
(-0.00485373 0 0.000275815)
(-0.00138437 0 0.00025411)
(-0.00657922 0 0.00027089)
(-0.00119042 0 0.000216921)
(0.0842725 0 -0.00314314)
(0.0786757 0 -0.00312752)
(0.0786941 0 -0.00200455)
(0.0803568 0 -0.000913801)
(0.0818543 0 0.000539525)
(0.0830452 0 0.000618931)
(0.0854272 0 -0.00149029)
(0.0941266 0 -0.0126136)
(0.120947 0 -0.0426019)
(0.146795 0 -0.0658035)
(0.166733 0 -0.0747725)
(0.186088 0 -0.0694736)
(0.208523 0 -0.0428068)
(0.224086 0 -0.0126508)
(0.225987 0 0.00614544)
(0.219408 0 0.0124195)
(0.212104 0 0.0109536)
(0.204018 0 0.00359529)
(0.197205 0 -0.00407574)
(0.195735 0 -0.0114791)
(0.198941 0 -0.0176313)
(0.204204 0 -0.0212086)
(0.210136 0 -0.0216745)
(0.216359 0 -0.0186227)
(0.220915 0 -0.0142338)
(0.222789 0 -0.0087116)
(0.220342 0 0.000687031)
(0.212835 0 0.0144405)
(0.202539 0 0.0271531)
(0.19345 0 0.0317038)
(0.186532 0 0.0269638)
(0.181173 0 0.01965)
(0.17694 0 0.0146848)
(0.172865 0 0.010939)
(0.168708 0 0.00877245)
(0.164726 0 0.00950793)
(0.160867 0 0.0103644)
(0.157428 0 0.00770487)
(0.155491 0 0.00285805)
(0.155042 0 -0.000411595)
(0.155066 0 -0.00120975)
(0.155155 0 -0.000632269)
(0.154878 0 0.00244813)
(0.154378 0 0.00384737)
(0.153883 0 0.00319654)
(0.153112 0 -0.000195533)
(0.153246 0 -0.00208862)
(0.153473 0 -0.00206331)
(0.153831 0 -0.000221359)
(0.153856 0 0.00187346)
(0.153532 0 0.00198895)
(0.152666 0 0.00049851)
(0.152201 0 -0.00220918)
(0.152995 0 -0.00359525)
(0.154284 0 -0.00445641)
(0.155883 0 -0.00495961)
(0.157207 0 -0.00452891)
(0.157638 0 -0.00279533)
(0.157309 0 0.000510332)
(0.156965 0 0.0027139)
(0.157101 0 0.00338754)
(0.157308 0 0.00322526)
(0.15707 0 0.00267456)
(0.156497 0 0.00272769)
(0.154853 0 0.00355073)
(0.153078 0 0.00333468)
(0.151658 0 0.000873556)
(0.151209 0 -0.00237609)
(0.151605 0 -0.0035389)
(0.151762 0 -0.00338095)
(0.151971 0 -0.00192069)
(0.151314 0 0.00112457)
(0.149598 0 0.004052)
(0.14743 0 0.00581487)
(0.146587 0 0.00722762)
(0.145368 0 0.0104666)
(0.148517 0 0.0142926)
(0.148723 0 0.0244119)
(0.15473 0 0.0336492)
(0.153912 0 0.0175754)
(0.143565 0 0.0162088)
(0.109334 0 0.00963037)
(0.111162 0 0.00731781)
(0.100677 0 0.00497033)
(0.0950237 0 0.00067168)
(0.0917881 0 0.00880942)
(0.0845791 0 0.00954824)
(0.079866 0 0.00515952)
(0.080591 0 0.00149244)
(0.0801814 0 0.000811575)
(0.0778577 0 0.000279669)
(0.0779412 0 -0.000218912)
(0.0777007 0 0.00136299)
(0.0776111 0 0.00160707)
(0.0777378 0 0.0022061)
(0.0775874 0 0.00292465)
(0.0765232 0 0.00503521)
(0.0762593 0 0.00693727)
(0.0745066 0 0.0116497)
(0.0771461 0 0.0199238)
(0.072991 0 0.0196258)
(0.0727188 0 0.0175242)
(0.0587473 0 0.0103439)
(0.0512466 0 0.00521225)
(0.0428976 0 -0.00431358)
(0.0388894 0 -0.00867986)
(0.0378388 0 -0.00428374)
(0.0369604 0 -0.000585708)
(0.0370802 0 0.0017981)
(0.0396887 0 0.00108925)
(0.0421699 0 0.00100168)
(0.0423617 0 -0.000712372)
(0.0429265 0 -0.00139784)
(0.0427823 0 -0.00102754)
(0.0428103 0 0.000204231)
(0.0436513 0 0.00113789)
(0.0439145 0 0.00418577)
(0.0459942 0 0.00637368)
(0.0447803 0 0.00483705)
(0.0454779 0 0.00326669)
(0.0392051 0 0.0014447)
(0.0378264 0 0.000372401)
(0.0355205 0 -0.00312114)
(0.0359766 0 -0.00460325)
(0.035934 0 -0.00240063)
(0.036479 0 -0.00149692)
(0.0380577 0 -0.000952051)
(0.0391183 0 -0.000850694)
(0.0396222 0 -0.00145619)
(0.0402326 0 -0.00182557)
(0.0406261 0 -0.00155706)
(0.041098 0 -0.00140104)
(0.0417327 0 -0.00109141)
(0.0422995 0 -0.00105191)
(0.0428222 0 -0.00104843)
(0.0432781 0 -0.00114626)
(0.0437225 0 -0.0011762)
(0.0441451 0 -0.00111353)
(0.0445372 0 -0.00102479)
(0.0449404 0 -0.000922566)
(0.0453143 0 -0.000823735)
(0.045653 0 -0.00072154)
(0.0459327 0 -0.000592108)
(0.0461608 0 -0.000477261)
(0.046339 0 -0.000358725)
(0.0464751 0 -0.000258638)
(0.0465679 0 -0.0001612)
(0.0466083 0 -4.01343e-05)
(0.0465841 0 0.000110052)
(0.0465033 0 0.000263966)
(0.0463771 0 0.000370665)
(0.0462058 0 0.000459121)
(0.0459832 0 0.00058203)
(0.045695 0 0.000724873)
(0.0453445 0 0.000865385)
(0.0449517 0 0.000991654)
(0.0445142 0 0.00111571)
(0.0440168 0 0.00124158)
(0.043452 0 0.001368)
(0.042833 0 0.00148655)
(0.0421649 0 0.00160694)
(0.0414392 0 0.001757)
(0.0406534 0 0.00190656)
(0.0398124 0 0.00201898)
(0.0389172 0 0.00214647)
(0.0379519 0 0.00232663)
(0.0369098 0 0.00250399)
(0.0357996 0 0.00263316)
(0.0346363 0 0.00277304)
(0.0333976 0 0.00296995)
(0.0320676 0 0.00319931)
(0.0306593 0 0.00340679)
(0.0291719 0 0.00355707)
(0.0276159 0 0.00371231)
(0.0259866 0 0.00389229)
(0.02429 0 0.00410611)
(0.0225175 0 0.00434955)
(0.0206688 0 0.00450762)
(0.0187732 0 0.00460601)
(0.0168265 0 0.00467518)
(0.0148648 0 0.00466335)
(0.0129141 0 0.00463677)
(0.0109707 0 0.00462647)
(0.00904701 0 0.00459502)
(0.00714029 0 0.00456008)
(0.00524915 0 0.00445238)
(0.00340281 0 0.004265)
(0.00162052 0 0.00406655)
(-8.17372e-05 0 0.00389061)
(-0.00170535 0 0.00375884)
(-0.00326667 0 0.00362265)
(-0.00477159 0 0.00347827)
(-0.00622703 0 0.00332134)
(-0.00762552 0 0.00315386)
(-0.00895392 0 0.00300241)
(-0.0102155 0 0.00287753)
(-0.0114272 0 0.00278746)
(-0.0125959 0 0.00270381)
(-0.0137205 0 0.00259911)
(-0.0147989 0 0.00247618)
(-0.0158251 0 0.0023375)
(-0.0168021 0 0.00222878)
(-0.0177392 0 0.00214465)
(-0.0186401 0 0.00206423)
(-0.0195005 0 0.0019762)
(-0.0203156 0 0.00187914)
(-0.0210902 0 0.0017736)
(-0.0218292 0 0.00168608)
(-0.0225371 0 0.00161868)
(-0.0232141 0 0.00155823)
(-0.0238528 0 0.00146659)
(-0.0244485 0 0.00135272)
(-0.025007 0 0.0012671)
(-0.0255355 0 0.0011971)
(-0.0260335 0 0.00113894)
(-0.0265053 0 0.00109124)
(-0.0269496 0 0.00102531)
(-0.0273647 0 0.000944528)
(-0.0277472 0 0.000851476)
(-0.0280947 0 0.000776575)
(-0.0284151 0 0.00071609)
(-0.0287104 0 0.000665834)
(-0.0289808 0 0.000624176)
(-0.029229 0 0.000570359)
(-0.0294542 0 0.000507988)
(-0.0296554 0 0.000438851)
(-0.02983 0 0.000374035)
(-0.0299801 0 0.000321379)
(-0.0301085 0 0.000278201)
(-0.0302181 0 0.000248744)
(-0.0303118 0 0.000208571)
(-0.0303867 0 0.000155849)
(-0.0304383 0 0.000100198)
(-0.0304668 0 4.86419e-05)
(-0.0304777 0 7.74525e-06)
(-0.0304733 0 -2.51936e-05)
(-0.0304566 0 -5.51317e-05)
(-0.0304298 0 -8.559e-05)
(-0.0303902 0 -0.000112634)
(-0.030335 0 -0.000141823)
(-0.0302634 0 -0.000174255)
(-0.0301751 0 -0.000206597)
(-0.0300757 0 -0.000243763)
(-0.0299685 0 -0.000271823)
(-0.0298518 0 -0.000292242)
(-0.0297269 0 -0.000305889)
(-0.0295955 0 -0.000311867)
(-0.029454 0 -0.00032931)
(-0.0293013 0 -0.000367723)
(-0.0291399 0 -0.000393434)
(-0.0289726 0 -0.000403818)
(-0.0288026 0 -0.000410829)
(-0.0286278 0 -0.000414127)
(-0.0284464 0 -0.000427167)
(-0.0282563 0 -0.000446365)
(-0.0280605 0 -0.000461374)
(-0.0278618 0 -0.000473168)
(-0.027662 0 -0.000479141)
(-0.0274616 0 -0.000482695)
(-0.0272563 0 -0.000491422)
(-0.0270413 0 -0.000504965)
(-0.0268209 0 -0.000518236)
(-0.0265986 0 -0.000531603)
(-0.0263735 0 -0.000536959)
(-0.0261475 0 -0.000534185)
(-0.0259206 0 -0.000533636)
(-0.02569 0 -0.000540421)
(-0.025454 0 -0.000562321)
(-0.0252112 0 -0.000581288)
(-0.024964 0 -0.000588662)
(-0.0247148 0 -0.000594239)
(-0.0244635 0 -0.000599495)
(-0.0242093 0 -0.000601253)
(-0.0239503 0 -0.000606607)
(-0.0236861 0 -0.000616998)
(-0.0234188 0 -0.000631497)
(-0.0231494 0 -0.000645607)
(-0.0228749 0 -0.000656883)
(-0.0225947 0 -0.000667052)
(-0.0223095 0 -0.0006779)
(-0.0220197 0 -0.00068466)
(-0.0217284 0 -0.000685494)
(-0.0214339 0 -0.000690587)
(-0.021135 0 -0.000707053)
(-0.0208294 0 -0.00072685)
(-0.0205181 0 -0.000736106)
(-0.0202053 0 -0.000742731)
(-0.0198893 0 -0.000752288)
(-0.0195682 0 -0.000760441)
(-0.0192413 0 -0.000766826)
(-0.0189106 0 -0.0007763)
(-0.0185752 0 -0.000789535)
(-0.0182357 0 -0.000802847)
(-0.0178932 0 -0.000814174)
(-0.0175466 0 -0.000824838)
(-0.0171938 0 -0.00083493)
(-0.0168342 0 -0.000843165)
(-0.0164695 0 -0.0008534)
(-0.0161019 0 -0.000865185)
(-0.0157323 0 -0.000879182)
(-0.015357 0 -0.000895319)
(-0.014973 0 -0.000910448)
(-0.0145812 0 -0.000919176)
(-0.0141849 0 -0.000930912)
(-0.0137853 0 -0.000947215)
(-0.0133825 0 -0.000963282)
(-0.0129692 0 -0.000980447)
(-0.0125471 0 -0.000993858)
(-0.0121215 0 -0.00100575)
(-0.0116933 0 -0.00101948)
(-0.0112606 0 -0.00103485)
(-0.0108204 0 -0.0010468)
(-0.0103768 0 -0.00105026)
(-0.00993138 0 -0.00104986)
(-0.00948795 0 -0.00105183)
(-0.0090462 0 -0.0010541)
(-0.00860383 0 -0.00105017)
(-0.00816423 0 -0.0010396)
(-0.00772965 0 -0.00102354)
(-0.00730337 0 -0.00100316)
(-0.00688751 0 -0.000978726)
(-0.0064832 0 -0.000950242)
(-0.0060908 0 -0.000917492)
(-0.0057118 0 -0.000879631)
(-0.00534756 0 -0.000840666)
(-0.00499982 0 -0.000802335)
(-0.00466918 0 -0.000762203)
(-0.00435677 0 -0.000719036)
(-0.00406163 0 -0.000675631)
(-0.00378323 0 -0.000635385)
(-0.00352108 0 -0.000597848)
(-0.00327532 0 -0.000561479)
(-0.00304559 0 -0.00052448)
(-0.00283161 0 -0.000485732)
(-0.0026322 0 -0.00044936)
(-0.00244658 0 -0.000419316)
(-0.0022741 0 -0.000394731)
(-0.00211191 0 -0.000371463)
(-0.00196029 0 -0.000348641)
(-0.00181749 0 -0.000327452)
(-0.00168257 0 -0.000308252)
(-0.00155518 0 -0.000291688)
(-0.001435 0 -0.000278051)
(-0.00132006 0 -0.000267242)
(-0.00120995 0 -0.000257325)
(-0.00110414 0 -0.000249286)
(-0.00100025 0 -0.000243849)
(-0.000897555 0 -0.000240833)
(-0.000795745 0 -0.000239774)
(-0.000694608 0 -0.000240188)
(-0.000593319 0 -0.000241255)
(-0.000491258 0 -0.00024305)
(-0.000387669 0 -0.000247095)
(-0.0002819 0 -0.000253503)
(-0.000173323 0 -0.000260826)
(-6.13521e-05 0 -0.000268517)
(5.42112e-05 0 -0.000277006)
(0.000173491 0 -0.000286091)
(0.000296195 0 -0.000295828)
(0.000423363 0 -0.000306992)
(0.000555951 0 -0.000318883)
(0.000693893 0 -0.000330728)
(0.000836778 0 -0.000342598)
(0.000984728 0 -0.000355033)
(0.00113807 0 -0.000367218)
(0.0012965 0 -0.000377972)
(0.00146012 0 -0.000389091)
(0.00162912 0 -0.00040071)
(0.00180289 0 -0.000413789)
(0.00198164 0 -0.000425766)
(0.00216488 0 -0.000436041)
(0.00235242 0 -0.000444628)
(0.00254372 0 -0.000454167)
(0.0027394 0 -0.000464323)
(0.00293939 0 -0.00047464)
(0.00314347 0 -0.000482566)
(0.00335049 0 -0.000489356)
(0.00355987 0 -0.000494918)
(0.00377136 0 -0.000500604)
(0.00398524 0 -0.000503496)
(0.00420133 0 -0.000506)
(0.00441878 0 -0.000509325)
(0.00463695 0 -0.000513265)
(0.00485591 0 -0.000515118)
(0.00507515 0 -0.000514599)
(0.00529344 0 -0.000513974)
(0.00551157 0 -0.000510769)
(0.00572813 0 -0.000508277)
(0.00594404 0 -0.00050379)
(0.00615714 0 -0.000501371)
(0.00636851 0 -0.000493367)
(0.00657612 0 -0.000487182)
(0.00678216 0 -0.000476708)
(0.00698338 0 -0.000471533)
(0.0071814 0 -0.000459494)
(0.00737312 0 -0.000452505)
(0.00756209 0 -0.000438275)
(0.00774452 0 -0.000429467)
(0.00792398 0 -0.00041132)
(0.00809614 0 -0.000401275)
(0.00826244 0 -0.000384659)
(0.00842211 0 -0.000377238)
(0.00857633 0 -0.000360232)
(0.00872466 0 -0.000349804)
(0.00886695 0 -0.000333289)
(0.00900547 0 -0.000317704)
(0.00913162 0 -0.000308171)
(0.00926006 0 -0.000292727)
(0.00936855 0 -0.000286406)
(0.00948963 0 -0.000259658)
(0.00959435 0 -0.000249554)
(0.00970726 0 -0.000218171)
(0.00980578 0 -0.000213011)
(0.00989685 0 -0.000199514)
(0.00998059 0 -0.00020366)
(0.0100356 0 -0.000158327)
(0.0100972 0 -0.000154259)
(0.0101906 0 -7.61101e-05)
(0.0102474 0 -7.47876e-05)
(0.0103274 0 -0.00012638)
(0.0103641 0 -0.000170797)
(0.0102464 0 -0.000109164)
(0.0102322 0 -0.0001012)
(0.0103859 0 0.000294425)
(0.0104052 0 0.000322471)
(0.0108057 0 -0.000140388)
(0.0108501 0 -0.00034248)
(0.0119687 0 -0.000652282)
(0.0121576 0 -0.000616349)
(0.0126204 0 -0.00107206)
(0.0124794 0 -0.0010978)
(0.0125638 0 -0.000701601)
(0.0125302 0 -0.000486342)
(0.0125763 0 -0.000244082)
(0.0126173 0 -8.7165e-05)
(0.0126595 0 3.70305e-05)
(0.0127133 0 -3.76048e-05)
(0.0127481 0 -1.59835e-05)
(0.0127317 0 -9.44892e-05)
(0.0125036 0 -8.75972e-06)
(0.0123658 0 1.59148e-05)
(0.0123944 0 0.000581665)
(0.0123414 0 0.000679059)
(0.012766 0 0.000261498)
(0.0128172 0 -0.00013351)
(0.0141691 0 -0.000683938)
(0.0145766 0 -0.000754984)
(0.0153263 0 -0.00131141)
(0.0151728 0 -0.00146648)
(0.0152164 0 -0.00109165)
(0.015094 0 -0.000862163)
(0.0150986 0 -0.000383794)
(0.0149947 0 -0.000270989)
(0.0148551 0 -5.05561e-05)
(0.0148011 0 7.61138e-05)
(0.0146751 0 0.000234609)
(0.0146734 0 0.000533631)
(0.014544 0 0.000449417)
(0.0146104 0 0.000403839)
(0.014207 0 0.000281934)
(0.0134658 0 0.000322397)
(0.0132223 0 0.000607738)
(0.01304 0 0.00209037)
(0.0131338 0 0.00145915)
(0.0143358 0 0.00077275)
(0.0156073 0 -0.000442433)
(0.021186 0 -0.00222841)
(0.0226503 0 -0.00337734)
(0.0242753 0 -0.00647779)
(0.0253552 0 -0.00511671)
(0.0252197 0 -0.00439029)
(0.0252676 0 -0.00357259)
(0.0254376 0 -0.00264706)
(0.025624 0 -0.00163514)
(0.025773 0 -0.000962619)
(0.025828 0 -0.000524985)
(0.0258202 0 -0.000221237)
(0.0257533 0 3.33244e-05)
(0.0256293 0 0.000247014)
(0.0254554 0 0.000392647)
(0.0252426 0 0.000488967)
(0.0249919 0 0.000595966)
(0.0247021 0 0.00068676)
(0.0243811 0 0.000760523)
(0.024034 0 0.000837747)
(0.0236662 0 0.000875674)
(0.023281 0 0.000912048)
(0.0228785 0 0.000961383)
(0.0224615 0 0.00101443)
(0.0220321 0 0.00102764)
(0.0215926 0 0.00103405)
(0.0211422 0 0.00106831)
(0.0206816 0 0.00110881)
(0.0202128 0 0.00113719)
(0.0197359 0 0.00114457)
(0.019253 0 0.00114565)
(0.0187661 0 0.00115557)
(0.0182768 0 0.00115967)
(0.0177865 0 0.00117006)
(0.0172897 0 0.00117613)
(0.016786 0 0.00119454)
(0.0162839 0 0.00120816)
(0.0157833 0 0.00119417)
(0.0152844 0 0.00117011)
(0.0147887 0 0.00114989)
(0.0142946 0 0.00114033)
(0.0138019 0 0.00113777)
(0.0133133 0 0.00113754)
(0.0128271 0 0.00113546)
(0.0123441 0 0.00113059)
(0.0118659 0 0.00112265)
(0.0113897 0 0.00111147)
(0.0109153 0 0.00111303)
(0.010443 0 0.00109867)
(0.00997463 0 0.00107886)
(0.00950855 0 0.00107921)
(0.00904496 0 0.0010874)
(0.00858536 0 0.00108933)
(0.00812976 0 0.00108351)
(0.00767919 0 0.00107215)
(0.00723277 0 0.00105738)
(0.00678956 0 0.00104164)
(0.00635048 0 0.00102765)
(0.00591654 0 0.00101583)
(0.00548742 0 0.00100559)
(0.00506272 0 0.000997414)
(0.00464161 0 0.000989911)
(0.0042245 0 0.000980505)
(0.0038116 0 0.00096901)
(0.00340279 0 0.000956935)
(0.00299829 0 0.000947329)
(0.00259612 0 0.000942565)
(0.00219604 0 0.000938938)
(0.00179968 0 0.00093192)
(0.00140834 0 0.000921293)
(0.00102116 0 0.000909139)
(0.000635791 0 0.000905055)
(0.000250665 0 0.000902)
(-0.000129044 0 0.000901869)
(-0.000507837 0 0.000887497)
(-0.000901727 0 0.000888639)
(-0.00112679 0 0.000886466)
(-0.001929 0 0.000890042)
(-0.00144147 0 0.000837876)
(-0.00321727 0 0.000832055)
(-0.0014901 0 0.000807898)
(-0.00475555 0 0.000833903)
(-0.00128377 0 0.000819758)
(-0.00652453 0 0.000837653)
(-0.00113049 0 0.000793231)
(0.0846162 0 -0.00549587)
(0.078875 0 -0.00505973)