/*--------------------------------*- C++ -*----------------------------------*\
| =========                 |                                                 |
| \\      /  F ield         | OpenFOAM: The Open Source CFD Toolbox           |
|  \\    /   O peration     | Version:  v2006                                 |
|   \\  /    A nd           | Website:  www.openfoam.com                      |
|    \\/     M anipulation  |                                                 |
\*---------------------------------------------------------------------------*/
FoamFile
{
    version     2.0;
    format      ascii;
    class       surfaceScalarField;
    location    "1.5";
    object      alphaPhi0.water;
}
// * * * * * * * * * * * * * * * * * * * * * * * * * * * * * * * * * * * * * //

dimensions      [0 3 -1 0 0 0 0];
oriented        oriented;


internalField   nonuniform List<scalar> 
65390
(
-6.23563e-06
-6.61834e-07
-5.87261e-06
-3.30872e-07
-5.55101e-06
-2.91864e-07
-5.18747e-06
-3.40608e-07
-4.86335e-06
-3.05154e-07
-4.57579e-06
-2.72565e-07
-4.29876e-06
-2.65088e-07
-4.0329e-06
-2.56326e-07
-3.77706e-06
-2.48341e-07
-3.52755e-06
-2.43549e-07
-3.29262e-06
-2.30092e-07
-3.07697e-06
-2.11755e-07
-2.87872e-06
-1.95088e-07
-2.70825e-06
-1.67774e-07
-2.54868e-06
-1.57726e-07
-2.39612e-06
-1.50825e-07
-2.25473e-06
-1.40022e-07
-2.12737e-06
-1.26175e-07
-2.01349e-06
-1.12891e-07
-1.91808e-06
-9.44197e-08
-1.85791e-06
-5.92596e-08
-1.80802e-06
-4.91492e-08
-1.75331e-06
-5.40804e-08
-1.69397e-06
-5.88575e-08
-1.66331e-06
-3.01089e-08
-1.6549e-06
-7.8539e-09
-1.66122e-06
6.87047e-09
-1.67253e-06
1.18497e-08
-1.6811e-06
9.09412e-09
-1.72121e-06
4.06633e-08
-1.78185e-06
6.12005e-08
-1.84055e-06
5.92301e-08
-1.87122e-06
3.12107e-08
-1.9287e-06
5.81568e-08
-2.01393e-06
8.6063e-08
-2.12512e-06
1.12253e-07
-2.21429e-06
8.98597e-08
-2.26097e-06
4.71463e-08
-2.36153e-06
1.01243e-07
-2.48274e-06
1.22188e-07
-2.6241e-06
1.42612e-07
-2.77267e-06
1.50177e-07
-2.87505e-06
1.0402e-07
-2.95563e-06
8.23128e-08
-3.08141e-06
1.27978e-07
-3.23635e-06
1.5764e-07
-3.35165e-06
1.17923e-07
-3.45098e-06
1.01914e-07
-3.56711e-06
1.18886e-07
-3.70546e-06
1.41296e-07
-3.83226e-06
1.29788e-07
-3.9373e-06
1.07977e-07
-4.03662e-06
1.02209e-07
-4.13571e-06
1.01977e-07
-4.24878e-06
1.15949e-07
-4.3669e-06
1.20962e-07
-4.47815e-06
1.14132e-07
-4.59429e-06
1.19122e-07
-4.73171e-06
1.40441e-07
-4.87016e-06
1.41451e-07
-4.98769e-06
1.20569e-07
-5.09567e-06
1.11299e-07
-5.21992e-06
1.27578e-07
-5.34278e-06
1.26102e-07
-5.45262e-06
1.13088e-07
-5.54124e-06
9.18327e-08
-5.61124e-06
7.3337e-08
-5.67501e-06
6.71867e-08
-5.72395e-06
5.21813e-08
-5.75311e-06
3.20085e-08
-5.76658e-06
1.60989e-08
-5.75187e-06
-1.18067e-08
-5.69068e-06
-5.76112e-08
-5.54653e-06
-1.42173e-07
-5.32625e-06
-2.18523e-07
-4.98008e-06
-3.44672e-07
-4.42026e-06
-5.57617e-07
-3.73745e-06
-6.79909e-07
-3.14339e-06
-5.9274e-07
-2.91677e-06
-2.25709e-07
-2.82332e-06
-9.3106e-08
-2.87153e-06
4.85445e-08
-2.98212e-06
1.10977e-07
-3.10768e-06
1.25949e-07
-3.24006e-06
1.33133e-07
-3.29351e-06
5.38536e-08
-3.32196e-06
2.87439e-08
-3.3712e-06
4.96454e-08
-3.43226e-06
6.17132e-08
-3.49436e-06
6.28616e-08
-3.55547e-06
6.13857e-08
-3.60793e-06
5.249e-08
-3.63992e-06
3.18753e-08
-3.66211e-06
2.20673e-08
-3.67039e-06
8.17716e-09
-3.65554e-06
-1.4861e-08
-3.60296e-06
-5.26284e-08
-3.50862e-06
-9.47116e-08
-3.33795e-06
-1.70808e-07
-3.19866e-06
-1.39298e-07
-3.16527e-06
-3.33504e-08
-3.19552e-06
3.0283e-08
-3.25251e-06
5.70894e-08
-3.28471e-06
3.22843e-08
-3.34113e-06
5.64235e-08
-3.39353e-06
5.24365e-08
-3.4172e-06
2.36388e-08
-3.43605e-06
1.88051e-08
-3.45662e-06
2.04632e-08
-3.4777e-06
2.09387e-08
-3.49116e-06
1.32531e-08
-3.49954e-06
8.17249e-09
-3.4959e-06
-3.88172e-09
-3.47479e-06
-2.14786e-08
-3.42771e-06
-4.73389e-08
-3.34893e-06
-7.90285e-08
-3.19676e-06
-1.52397e-07
-3.06819e-06
-1.28764e-07
-3.03041e-06
-3.80288e-08
-3.04155e-06
1.09631e-08
-3.07957e-06
3.78738e-08
-3.09668e-06
1.69644e-08
-3.13589e-06
3.91105e-08
-3.17136e-06
3.53902e-08
-3.18515e-06
1.37286e-08
-3.20034e-06
1.51464e-08
-3.21394e-06
1.3547e-08
-3.22383e-06
9.85917e-09
-3.23349e-06
9.68064e-09
-3.2402e-06
6.74386e-09
-3.24261e-06
2.3651e-09
-3.2448e-06
2.17199e-09
-3.2451e-06
3.19701e-10
-3.24336e-06
-1.71679e-09
-3.2399e-06
-3.41889e-09
-3.23452e-06
-5.34319e-09
-3.22869e-06
-5.79207e-09
-3.22169e-06
-6.97188e-09
-3.21344e-06
-8.21613e-09
-3.20384e-06
-9.54327e-09
-3.19298e-06
-1.07927e-08
-3.18104e-06
-1.1868e-08
-3.168e-06
-1.29703e-08
-3.15389e-06
-1.40396e-08
-3.13861e-06
-1.52036e-08
-3.1221e-06
-1.6435e-08
-3.10425e-06
-1.7761e-08
-3.08555e-06
-1.86126e-08
-3.06588e-06
-1.95897e-08
-3.04526e-06
-2.05465e-08
-3.02368e-06
-2.15037e-08
-3.00096e-06
-2.26396e-08
-2.97727e-06
-2.36187e-08
-2.95269e-06
-2.44974e-08
-2.92738e-06
-2.52326e-08
-2.90125e-06
-2.6036e-08
-2.87429e-06
-2.68478e-08
-2.8466e-06
-2.75854e-08
-2.81824e-06
-2.82409e-08
-2.78927e-06
-2.88412e-08
-2.75967e-06
-2.94627e-08
-2.72948e-06
-3.00475e-08
-2.69877e-06
-3.05608e-08
-2.66759e-06
-3.10211e-08
-2.63598e-06
-3.14417e-08
-2.60397e-06
-3.18324e-08
-2.57158e-06
-3.22124e-08
-2.53881e-06
-3.25724e-08
-2.50574e-06
-3.28727e-08
-2.47241e-06
-3.31221e-08
-2.43882e-06
-3.3378e-08
-2.40496e-06
-3.36412e-08
-2.37087e-06
-3.38566e-08
-2.33663e-06
-3.40141e-08
-2.30221e-06
-3.41797e-08
-2.26764e-06
-3.43322e-08
-2.23296e-06
-3.44468e-08
-2.1982e-06
-3.45292e-08
-2.16336e-06
-3.46065e-08
-2.12847e-06
-3.4665e-08
-2.09356e-06
-3.46952e-08
-2.05865e-06
-3.46965e-08
-2.02375e-06
-3.46905e-08
-1.98887e-06
-3.46737e-08
-1.95404e-06
-3.46295e-08
-1.91929e-06
-3.45476e-08
-1.88464e-06
-3.44531e-08
-1.8501e-06
-3.43439e-08
-1.8157e-06
-3.4209e-08
-1.78146e-06
-3.40399e-08
-1.74742e-06
-3.38499e-08
-1.71357e-06
-3.36486e-08
-1.67994e-06
-3.34303e-08
-1.64655e-06
-3.31896e-08
-1.61343e-06
-3.29273e-08
-1.58058e-06
-3.26495e-08
-1.54802e-06
-3.23548e-08
-1.51577e-06
-3.20413e-08
-1.48385e-06
-3.17132e-08
-1.45226e-06
-3.13799e-08
-1.42101e-06
-3.10395e-08
-1.39011e-06
-3.06906e-08
-1.35957e-06
-3.03305e-08
-1.3294e-06
-2.99566e-08
-1.29962e-06
-2.95667e-08
-1.27024e-06
-2.91666e-08
-1.24127e-06
-2.87625e-08
-1.21271e-06
-2.83581e-08
-1.18455e-06
-2.79584e-08
-1.15678e-06
-2.75672e-08
-1.12941e-06
-2.71739e-08
-1.10245e-06
-2.67632e-08
-1.07592e-06
-2.63294e-08
-1.04984e-06
-2.58899e-08
-1.02421e-06
-2.54396e-08
-9.99041e-07
-2.49802e-08
-9.74338e-07
-2.45159e-08
-9.50085e-07
-2.40664e-08
-9.26266e-07
-2.36332e-08
-9.02878e-07
-2.32021e-08
-8.79927e-07
-2.27666e-08
-8.57409e-07
-2.23335e-08
-8.35321e-07
-2.19051e-08
-8.13665e-07
-2.14741e-08
-7.92448e-07
-2.10364e-08
-7.71667e-07
-2.06032e-08
-7.51308e-07
-2.01834e-08
-7.31357e-07
-1.9779e-08
-7.11806e-07
-1.93822e-08
-6.92651e-07
-1.89913e-08
-6.73886e-07
-1.86075e-08
-6.55505e-07
-1.82304e-08
-6.37505e-07
-1.78554e-08
-6.19883e-07
-1.74819e-08
-6.02639e-07
-1.71079e-08
-5.85775e-07
-1.67285e-08
-5.69297e-07
-1.63408e-08
-5.532e-07
-1.59556e-08
-5.37467e-07
-1.55846e-08
-5.22079e-07
-1.52344e-08
-5.07016e-07
-1.49033e-08
-4.9227e-07
-1.45835e-08
-4.77836e-07
-1.42691e-08
-4.63719e-07
-1.39531e-08
-4.49927e-07
-1.36338e-08
-4.36461e-07
-1.33139e-08
-4.23319e-07
-1.30006e-08
-4.10492e-07
-1.26952e-08
-3.97979e-07
-1.23929e-08
-3.85776e-07
-1.20908e-08
-3.73878e-07
-1.17941e-08
-3.62268e-07
-1.15101e-08
-3.5093e-07
-1.12384e-08
-3.39859e-07
-1.09699e-08
-3.29052e-07
-1.07007e-08
-3.18503e-07
-1.04387e-08
-3.08189e-07
-1.01966e-08
-2.98092e-07
-9.97385e-09
-2.88209e-07
-9.75705e-09
-2.78548e-07
-9.53209e-09
-2.69124e-07
-9.29681e-09
-2.59942e-07
-9.05791e-09
-2.51004e-07
-8.82028e-09
-2.42308e-07
-8.58521e-09
-2.33851e-07
-8.35467e-09
-2.25626e-07
-8.1319e-09
-2.17625e-07
-7.9166e-09
-2.09841e-07
-7.70633e-09
-2.02268e-07
-7.50207e-09
-1.94894e-07
-7.30763e-09
-1.87709e-07
-7.12213e-09
-1.80709e-07
-6.93931e-09
-1.73894e-07
-6.75514e-09
-1.67264e-07
-6.57092e-09
-1.60816e-07
-6.38852e-09
-1.54552e-07
-6.20673e-09
-1.4847e-07
-6.02394e-09
-1.42573e-07
-5.84075e-09
-1.36861e-07
-5.65762e-09
-1.31333e-07
-5.4743e-09
-1.25988e-07
-5.29339e-09
-1.20816e-07
-5.12183e-09
-1.15802e-07
-4.96622e-09
-1.10928e-07
-4.82718e-09
-1.06183e-07
-4.70035e-09
-1.01558e-07
-4.58146e-09
-9.70483e-08
-4.46911e-09
-9.2646e-08
-4.36316e-09
-8.83471e-08
-4.26184e-09
-8.41507e-08
-4.16151e-09
-8.00593e-08
-4.05837e-09
-7.60776e-08
-3.9506e-09
-7.22106e-08
-3.83764e-09
-6.84649e-08
-3.71774e-09
-6.48475e-08
-3.59066e-09
-6.13627e-08
-3.45894e-09
-5.80104e-08
-3.32716e-09
-5.47863e-08
-3.19943e-09
-5.16846e-08
-3.07729e-09
-4.87e-08
-2.96033e-09
-4.58275e-08
-2.84825e-09
-4.30608e-08
-2.7424e-09
-4.03914e-08
-2.64507e-09
-3.78089e-08
-2.55801e-09
-3.53032e-08
-2.48127e-09
-3.28658e-08
-2.41287e-09
-3.04914e-08
-2.3499e-09
-2.81774e-08
-2.28969e-09
-2.59229e-08
-2.23024e-09
-2.37287e-08
-2.1701e-09
-2.15967e-08
-2.10812e-09
-1.95293e-08
-2.04385e-09
-1.75286e-08
-1.97737e-09
-1.5596e-08
-1.90963e-09
-1.37312e-08
-1.84217e-09
-1.19323e-08
-1.77667e-09
-1.01958e-08
-1.71451e-09
-8.5179e-09
-1.65636e-09
-6.89483e-09
-1.60184e-09
-5.32427e-09
-1.54967e-09
-3.80517e-09
-1.49855e-09
-2.33678e-09
-1.44816e-09
-9.17741e-10
-1.39912e-09
4.53284e-10
-1.35141e-09
1.77511e-09
-1.30252e-09
3.04171e-09
-1.24758e-09
4.24397e-09
-1.18353e-09
5.37607e-09
-1.11366e-09
6.44028e-09
-1.04604e-09
7.44538e-09
-9.87198e-10
8.39996e-09
-9.3693e-10
9.30876e-09
-8.91409e-10
1.01764e-08
-8.50467e-10
1.10122e-08
-8.18918e-10
1.18279e-08
-7.9898e-10
1.2628e-08
-7.83584e-10
1.3405e-08
-7.60725e-10
1.4147e-08
-7.25885e-10
1.48481e-08
-6.85286e-10
1.55084e-08
-6.44662e-10
1.61257e-08
-6.0193e-10
1.66937e-08
-5.52801e-10
1.72086e-08
-4.99903e-10
1.76753e-08
-4.51915e-10
1.81035e-08
-4.13745e-10
1.85005e-08
-3.82717e-10
1.88703e-08
-3.55676e-10
1.92179e-08
-3.33798e-10
1.95487e-08
-3.17202e-10
1.9863e-08
-3.0088e-10
2.0156e-08
-2.79947e-10
2.04229e-08
-2.54086e-10
2.06594e-08
-2.23899e-10
2.08599e-08
-1.88271e-10
2.10207e-08
-1.4882e-10
2.11447e-08
-1.12342e-10
2.1241e-08
-8.48357e-11
2.13182e-08
-6.59364e-11
2.13815e-08
-5.23674e-11
2.14349e-08
-4.26324e-11
2.14823e-08
-3.67798e-11
2.1524e-08
-3.11946e-11
2.15539e-08
-1.96642e-11
2.15632e-08
8.69999e-13
2.15455e-08
2.75816e-11
2.15001e-08
5.51676e-11
2.14296e-08
7.9993e-11
2.13387e-08
1.00274e-10
2.12336e-08
1.1413e-10
2.11226e-08
1.19853e-10
2.10128e-08
1.18396e-10
2.09069e-08
1.14332e-10
2.08019e-08
1.13235e-10
2.06921e-08
1.17825e-10
2.05735e-08
1.26502e-10
2.04453e-08
1.35913e-10
2.0308e-08
1.44856e-10
2.01615e-08
1.53983e-10
2.00075e-08
1.61271e-10
1.9853e-08
1.61693e-10
1.97063e-08
1.5374e-10
1.95699e-08
1.43185e-10
1.94389e-08
1.37757e-10
1.93041e-08
1.41322e-10
1.91566e-08
1.53833e-10
1.89908e-08
1.71906e-10
1.88076e-08
1.8914e-10
1.86138e-08
1.99552e-10
1.84177e-08
2.01669e-10
1.82254e-08
1.977e-10
1.80391e-08
1.91516e-10
1.78557e-08
1.88453e-10
1.76674e-08
1.93266e-10
1.74654e-08
2.06736e-10
1.7244e-08
2.25977e-10
1.7002e-08
2.46452e-10
1.67436e-08
2.62652e-10
1.64787e-08
2.69031e-10
1.62195e-08
2.63016e-10
1.5974e-08
2.49205e-10
1.57397e-08
2.37715e-10
1.55072e-08
2.3553e-10
1.52694e-08
2.40618e-10
1.50259e-08
2.45992e-10
1.4777e-08
2.51026e-10
1.45242e-08
2.54601e-10
1.42756e-08
2.5015e-10
1.40367e-08
2.4028e-10
1.38033e-08
2.34434e-10
1.35673e-08
2.36996e-10
1.33227e-08
2.454e-10
1.30706e-08
2.52862e-10
1.28189e-08
2.52324e-10
1.2576e-08
2.43432e-10
1.23414e-08
2.35232e-10
1.21121e-08
2.29707e-10
1.1888e-08
2.24569e-10
1.16621e-08
2.26283e-10
1.14343e-08
2.28023e-10
1.12132e-08
2.21292e-10
1.09974e-08
2.15965e-10
1.07702e-08
2.27172e-10
1.05357e-08
2.34408e-10
1.02746e-08
2.60928e-10
1.00112e-08
2.63128e-10
9.79948e-09
2.11365e-10
9.58253e-09
2.16569e-10
9.39565e-09
1.86448e-10
9.26318e-09
1.31997e-10
9.20357e-09
5.91171e-11
9.16361e-09
3.94415e-11
9.07787e-09
8.52087e-11
9.01659e-09
6.07332e-11
8.94427e-09
7.17667e-11
8.86455e-09
7.91688e-11
8.7546e-09
1.09405e-10
8.63273e-09
1.21338e-10
8.5178e-09
1.1443e-10
8.40096e-09
1.16369e-10
8.31782e-09
8.27332e-11
8.21144e-09
1.06043e-10
8.04857e-09
1.62614e-10
7.89136e-09
1.57062e-10
7.7457e-09
1.45625e-10
7.63106e-09
1.14713e-10
7.50398e-09
1.27254e-10
7.39323e-09
1.11033e-10
7.33095e-09
6.26136e-11
7.29747e-09
3.3858e-11
7.28689e-09
1.09582e-11
7.22733e-09
5.98698e-11
7.20294e-09
2.46056e-11
7.12673e-09
7.62668e-11
7.03769e-09
8.88927e-11
6.9112e-09
1.26116e-10
6.82275e-09
8.78318e-11
6.7812e-09
4.07111e-11
6.66496e-09
1.15194e-10
6.63035e-09
3.34169e-11
6.61062e-09
1.84563e-11
6.5179e-09
9.14449e-11
6.42262e-09
9.40536e-11
6.12196e-09
2.99543e-10
5.96134e-09
1.59624e-10
5.81008e-09
1.50368e-10
5.58728e-09
2.2195e-10
5.81674e-09
-2.30325e-10
6.0317e-09
-2.16406e-10
7.45741e-09
-1.42719e-09
8.85139e-09
-1.39613e-09
9.45044e-09
-6.02435e-10
9.85982e-09
-4.12586e-10
1.00006e-08
-1.43888e-10
1.00046e-08
-7.0913e-12
9.94224e-09
5.94147e-11
9.7927e-09
1.4661e-10
9.55572e-09
2.34064e-10
9.25483e-09
2.97935e-10
8.91633e-09
3.35465e-10
8.54945e-09
3.63754e-10
8.18233e-09
3.63888e-10
7.85173e-09
3.27285e-10
7.56554e-09
2.82808e-10
7.29771e-09
2.64416e-10
7.01911e-09
2.75183e-10
6.73227e-09
2.83453e-10
6.46289e-09
2.66059e-10
6.22953e-09
2.30104e-10
6.03075e-09
1.9562e-10
5.85149e-09
1.76181e-10
5.67055e-09
1.77964e-10
5.46887e-09
1.98774e-10
5.23571e-09
2.30318e-10
4.97062e-09
2.62316e-10
4.68232e-09
2.85572e-10
4.38391e-09
2.9572e-10
4.08892e-09
2.9233e-10
3.81097e-09
2.75311e-10
3.567e-09
2.41339e-10
3.3756e-09
1.88773e-10
3.25832e-09
1.14661e-10
3.23082e-09
2.48697e-11
3.29913e-09
-7.09419e-11
3.45669e-09
-1.60201e-10
3.68573e-09
-2.3169e-10
3.96141e-09
-2.78351e-10
4.26016e-09
-3.01435e-10
4.5625e-09
-3.05031e-10
4.85441e-09
-2.94625e-10
5.12407e-09
-2.72373e-10
5.35714e-09
-2.35791e-10
5.53602e-09
-1.8161e-10
5.64583e-09
-1.12528e-10
5.68447e-09
-4.13495e-11
5.66641e-09
1.53499e-11
5.61964e-09
4.4081e-11
5.5772e-09
3.97674e-11
5.57014e-09
4.3906e-12
5.61665e-09
-4.91686e-11
5.74098e-09
-1.26986e-10
5.94368e-09
-2.05343e-10
6.19394e-09
-2.52911e-10
6.4191e-09
-2.27802e-10
6.53823e-09
-1.21773e-10
6.53036e-09
5.24213e-12
6.46512e-09
6.26069e-11
6.47989e-09
-1.73992e-11
6.65051e-09
-1.73233e-10
6.87274e-09
-2.24853e-10
6.92633e-09
-5.62075e-11
6.6893e-09
2.34415e-10
6.25729e-09
4.29394e-10
5.91583e-09
3.38832e-10
5.83651e-09
7.6685e-11
5.81049e-09
2.33892e-11
5.56425e-09
2.43595e-10
5.09549e-09
4.6611e-10
4.76017e-09
3.32668e-10
4.80892e-09
-5.14017e-11
4.95977e-09
-1.5349e-10
4.89903e-09
5.81057e-11
4.81609e-09
8.03258e-11
5.05985e-09
-2.46349e-10
5.46292e-09
-4.05618e-10
5.48301e-09
-2.26001e-11
5.23447e-09
2.46073e-10
5.08905e-09
1.43015e-10
4.68798e-09
3.98708e-10
4.3188e-09
3.66873e-10
8.64426e-10
-6.54509e-06
-1.02963e-06
-6.17232e-06
-7.42008e-07
-5.74557e-06
-7.50416e-07
-5.39213e-06
-7.20321e-07
-5.06691e-06
-6.51453e-07
-4.75508e-06
-6.01352e-07
-4.45849e-06
-5.75012e-07
-4.17968e-06
-5.45421e-07
-3.91327e-06
-5.22605e-07
-3.66255e-06
-5.00161e-07
-3.42701e-06
-4.69979e-07
-3.20893e-06
-4.32946e-07
-3.01031e-06
-3.96017e-07
-2.82686e-06
-3.52753e-07
-2.6592e-06
-3.26269e-07
-2.50864e-06
-3.0184e-07
-2.37165e-06
-2.77123e-07
-2.24483e-06
-2.52836e-07
-2.13362e-06
-2.2374e-07
-2.03743e-06
-1.89856e-07
-1.95149e-06
-1.4383e-07
-1.87798e-06
-1.21966e-07
-1.82172e-06
-1.10168e-07
-1.77495e-06
-1.04829e-07
-1.73721e-06
-6.61638e-08
-1.70806e-06
-3.6069e-08
-1.6877e-06
-1.25455e-08
-1.6907e-06
1.5795e-08
-1.70061e-06
2.00518e-08
-1.72734e-06
6.84319e-08
-1.80279e-06
1.37684e-07
-1.89347e-06
1.51094e-07
-1.9655e-06
1.04644e-07
-1.97433e-06
6.83557e-08
-1.99228e-06
1.05418e-07
-2.07758e-06
1.98963e-07
-2.18432e-06
1.98264e-07
-2.30181e-06
1.65859e-07
-2.38866e-06
1.90804e-07
-2.45121e-06
1.86918e-07
-2.56526e-06
2.59027e-07
-2.69665e-06
2.84871e-07
-2.81199e-06
2.21923e-07
-2.91004e-06
1.83347e-07
-3.00521e-06
2.26677e-07
-3.13707e-06
2.92836e-07
-3.27023e-06
2.55234e-07
-3.40765e-06
2.42809e-07
-3.5464e-06
2.61795e-07
-3.68755e-06
2.86932e-07
-3.8208e-06
2.66977e-07
-3.94992e-06
2.40857e-07
-4.07708e-06
2.33129e-07
-4.19721e-06
2.26145e-07
-4.31347e-06
2.36493e-07
-4.43558e-06
2.47396e-07
-4.55394e-06
2.36098e-07
-4.66356e-06
2.34132e-07
-4.79238e-06
2.73637e-07
-4.92472e-06
2.77962e-07
-5.03957e-06
2.4071e-07
-5.14212e-06
2.17169e-07
-5.2712e-06
2.61846e-07
-5.40056e-06
2.61348e-07
-5.52182e-06
2.39529e-07
-5.60693e-06
1.8285e-07
-5.68426e-06
1.54205e-07
-5.74858e-06
1.36196e-07
-5.80141e-06
1.09333e-07
-5.85092e-06
8.60329e-08
-5.89614e-06
6.53165e-08
-5.91804e-06
1.37635e-08
-5.91505e-06
-5.76631e-08
-5.90225e-06
-1.51161e-07
-5.8851e-06
-2.32523e-07
-5.86272e-06
-3.6427e-07
-5.84476e-06
-5.72435e-07
-5.78053e-06
-7.42711e-07
-5.57159e-06
-8.00059e-07
-5.04562e-06
-7.49796e-07
-4.43417e-06
-7.03289e-07
-3.74736e-06
-6.37544e-07
-3.38823e-06
-2.47592e-07
-3.18932e-06
-7.15926e-08
-3.09814e-06
4.21969e-08
-3.13245e-06
8.83064e-08
-3.21111e-06
1.08398e-07
-3.36802e-06
2.07803e-07
-3.52046e-06
2.14556e-07
-3.57319e-06
1.15898e-07
-3.59828e-06
8.69103e-08
-3.62656e-06
8.02554e-08
-3.66414e-06
6.86651e-08
-3.70505e-06
6.30234e-08
-3.74606e-06
4.91304e-08
-3.77141e-06
1.04325e-08
-3.79926e-06
-2.55463e-08
-3.8255e-06
-6.87584e-08
-3.87395e-06
-1.2244e-07
-3.87365e-06
-1.39516e-07
-3.78674e-06
-1.20061e-07
-3.60635e-06
-1.50095e-07
-3.44269e-06
-1.06553e-07
-3.38701e-06
-2.33291e-08
-3.37076e-06
3.98171e-08
-3.38671e-06
6.82556e-08
-3.39898e-06
3.60375e-08
-3.42261e-06
4.16327e-08
-3.46765e-06
6.50963e-08
-3.5086e-06
6.1875e-08
-3.52188e-06
2.66418e-08
-3.53421e-06
2.0388e-08
-3.54371e-06
5.00894e-09
-3.5507e-06
-1.50925e-08
-3.56163e-06
-3.70053e-08
-3.5732e-06
-6.87122e-08
-3.60558e-06
-1.19985e-07
-3.60288e-06
-1.3153e-07
-3.52898e-06
-1.12647e-07
-3.37096e-06
-1.47902e-07
-3.22167e-06
-1.11429e-07
-3.16727e-06
-3.75509e-08
-3.14914e-06
2.08551e-08
-3.16048e-06
4.66169e-08
-3.16903e-06
2.24762e-08
-3.19833e-06
4.42333e-08
-3.22514e-06
3.98857e-08
-3.23125e-06
1.60211e-08
-3.23773e-06
1.61094e-08
-3.24284e-06
1.2066e-08
-3.24588e-06
5.17913e-09
-3.24845e-06
4.77926e-09
-3.24894e-06
8.51112e-10
-3.24652e-06
-4.09744e-09
-3.24236e-06
-7.30364e-09
-3.23759e-06
-1.02841e-08
-3.23157e-06
-1.17253e-08
-3.2242e-06
-1.4259e-08
-3.21577e-06
-1.65605e-08
-3.20619e-06
-1.90623e-08
-3.19538e-06
-2.15341e-08
-3.18319e-06
-2.38671e-08
-3.16985e-06
-2.6198e-08
-3.15548e-06
-2.82731e-08
-3.13994e-06
-3.06125e-08
-3.12315e-06
-3.29964e-08
-3.10539e-06
-3.53925e-08
-3.08663e-06
-3.73188e-08
-3.06676e-06
-3.92998e-08
-3.04592e-06
-4.12268e-08
-3.02404e-06
-4.31646e-08
-3.00109e-06
-4.52666e-08
-2.97746e-06
-4.71605e-08
-2.95289e-06
-4.89173e-08
-2.92741e-06
-5.04999e-08
-2.90105e-06
-5.21004e-08
-2.87405e-06
-5.3659e-08
-2.84634e-06
-5.50915e-08
-2.81793e-06
-5.64036e-08
-2.78885e-06
-5.76311e-08
-2.75923e-06
-5.88262e-08
-2.72909e-06
-5.99294e-08
-2.69843e-06
-6.0939e-08
-2.66729e-06
-6.18805e-08
-2.63566e-06
-6.27276e-08
-2.60363e-06
-6.3509e-08
-2.57119e-06
-6.42772e-08
-2.53837e-06
-6.4992e-08
-2.50527e-06
-6.55757e-08
-2.47189e-06
-6.60866e-08
-2.43825e-06
-6.65995e-08
-2.40435e-06
-6.71054e-08
-2.37025e-06
-6.75302e-08
-2.33595e-06
-6.78741e-08
-2.30148e-06
-6.82217e-08
-2.26685e-06
-6.85334e-08
-2.2321e-06
-6.87786e-08
-2.19725e-06
-6.89596e-08
-2.16232e-06
-6.91208e-08
-2.12733e-06
-6.92486e-08
-2.0923e-06
-6.93149e-08
-2.05728e-06
-6.93227e-08
-2.02227e-06
-6.93019e-08
-1.9873e-06
-6.9246e-08
-1.95237e-06
-6.91326e-08
-1.91756e-06
-6.89628e-08
-1.88286e-06
-6.87671e-08
-1.84827e-06
-6.85441e-08
-1.81382e-06
-6.82687e-08
-1.77955e-06
-6.79278e-08
-1.74548e-06
-6.75354e-08
-1.71163e-06
-6.71121e-08
-1.67802e-06
-6.66528e-08
-1.64466e-06
-6.61573e-08
-1.61158e-06
-6.5632e-08
-1.57875e-06
-6.50841e-08
-1.5462e-06
-6.45066e-08
-1.51395e-06
-6.38864e-08
-1.48203e-06
-6.32325e-08
-1.45044e-06
-6.25637e-08
-1.4192e-06
-6.18816e-08
-1.3883e-06
-6.11869e-08
-1.35776e-06
-6.04751e-08
-1.32757e-06
-5.97409e-08
-1.29777e-06
-5.8977e-08
-1.26837e-06
-5.81817e-08
-1.23938e-06
-5.73599e-08
-1.21084e-06
-5.65224e-08
-1.18273e-06
-5.5684e-08
-1.15507e-06
-5.4861e-08
-1.12782e-06
-5.40445e-08
-1.101e-06
-5.32223e-08
-1.07458e-06
-5.23814e-08
-1.04857e-06
-5.15378e-08
-1.02298e-06
-5.06795e-08
-9.97797e-07
-4.98031e-08
-9.73052e-07
-4.89079e-08
-9.48754e-07
-4.80139e-08
-9.2491e-07
-4.71283e-08
-9.01528e-07
-4.62364e-08
-8.78612e-07
-4.53373e-08
-8.56154e-07
-4.44465e-08
-8.3414e-07
-4.35774e-08
-8.12552e-07
-4.27232e-08
-7.91378e-07
-4.18765e-08
-7.70606e-07
-4.10464e-08
-7.50229e-07
-4.0236e-08
-7.30247e-07
-3.94419e-08
-7.10671e-07
-3.8645e-08
-6.91515e-07
-3.78395e-08
-6.72782e-07
-3.70368e-08
-6.54469e-07
-3.62455e-08
-6.36562e-07
-3.54702e-08
-6.19035e-07
-3.47196e-08
-6.01858e-07
-3.39982e-08
-5.85014e-07
-3.32884e-08
-5.68501e-07
-3.25703e-08
-5.52329e-07
-3.1843e-08
-5.36516e-07
-3.11121e-08
-5.21075e-07
-3.0391e-08
-5.06005e-07
-2.96895e-08
-4.91292e-07
-2.9015e-08
-4.76918e-07
-2.83691e-08
-4.62866e-07
-2.77411e-08
-4.49125e-07
-2.71217e-08
-4.35695e-07
-2.65025e-08
-4.22575e-07
-2.5891e-08
-4.09762e-07
-2.52908e-08
-3.97247e-07
-2.46986e-08
-3.85028e-07
-2.41084e-08
-3.73099e-07
-2.35239e-08
-3.61454e-07
-2.2956e-08
-3.50083e-07
-2.24078e-08
-3.38977e-07
-2.18689e-08
-3.28135e-07
-2.13298e-08
-3.17559e-07
-2.07963e-08
-3.07247e-07
-2.02865e-08
-2.97188e-07
-1.98076e-08
-2.87373e-07
-1.9348e-08
-2.77794e-07
-1.889e-08
-2.68449e-07
-1.84288e-08
-2.59333e-07
-1.79713e-08
-2.50441e-07
-1.7521e-08
-2.41773e-07
-1.70753e-08
-2.3333e-07
-1.66341e-08
-2.25109e-07
-1.62029e-08
-2.17104e-07
-1.57841e-08
-2.09309e-07
-1.53741e-08
-2.0172e-07
-1.49717e-08
-1.94335e-07
-1.45803e-08
-1.8715e-07
-1.41989e-08
-1.80164e-07
-1.38201e-08
-1.73375e-07
-1.34399e-08
-1.66782e-07
-1.30622e-08
-1.60378e-07
-1.2691e-08
-1.5416e-07
-1.23248e-08
-1.48122e-07
-1.19622e-08
-1.4226e-07
-1.16056e-08
-1.36566e-07
-1.12566e-08
-1.31034e-07
-1.09135e-08
-1.25661e-07
-1.05761e-08
-1.20445e-07
-1.02508e-08
-1.1538e-07
-9.94643e-09
-1.10461e-07
-9.66558e-09
-1.05681e-07
-9.40356e-09
-1.01034e-07
-9.15469e-09
-9.65163e-08
-8.91712e-09
-9.21224e-08
-8.69085e-09
-8.78482e-08
-8.47327e-09
-8.36918e-08
-8.25868e-09
-7.96528e-08
-8.04135e-09
-7.57314e-08
-7.81876e-09
-7.19278e-08
-7.59059e-09
-6.82411e-08
-7.35585e-09
-6.46705e-08
-7.11425e-09
-6.12157e-08
-6.86795e-09
-5.78763e-08
-6.62169e-09
-5.46508e-08
-6.38056e-09
-5.15365e-08
-6.14753e-09
-4.85295e-08
-5.92335e-09
-4.56253e-08
-5.70854e-09
-4.28188e-08
-5.5049e-09
-4.01046e-08
-5.31516e-09
-3.74773e-08
-5.14119e-09
-3.49319e-08
-4.98259e-09
-3.24642e-08
-4.83658e-09
-3.0071e-08
-4.69928e-09
-2.775e-08
-4.56705e-09
-2.54998e-08
-4.43721e-09
-2.3319e-08
-4.30801e-09
-2.12064e-08
-4.17827e-09
-1.91608e-08
-4.04758e-09
-1.71807e-08
-3.91612e-09
-1.52647e-08
-3.78477e-09
-1.34118e-08
-3.65492e-09
-1.16207e-08
-3.52824e-09
-9.88976e-09
-3.40652e-09
-8.21672e-09
-3.29109e-09
-6.59893e-09
-3.18194e-09
-5.03438e-09
-3.07714e-09
-3.52304e-09
-2.97339e-09
-2.06731e-09
-2.86798e-09
-6.70431e-10
-2.76065e-09
6.66165e-10
-2.65321e-09
1.94425e-09
-2.54634e-09
3.16718e-09
-2.43678e-09
4.33665e-09
-2.31979e-09
5.45157e-09
-2.19584e-09
6.51115e-09
-2.07336e-09
7.51885e-09
-1.96311e-09
8.48168e-09
-1.86841e-09
9.40493e-09
-1.78374e-09
1.02891e-08
-1.70418e-09
1.11335e-08
-1.63321e-09
1.19407e-08
-1.57639e-09
1.27147e-08
-1.52831e-09
1.34558e-08
-1.47289e-09
1.41586e-08
-1.40013e-09
1.48182e-08
-1.31674e-09
1.54358e-08
-1.23442e-09
1.60157e-08
-1.15451e-09
1.656e-08
-1.07015e-09
1.70675e-08
-9.80769e-10
1.75382e-08
-8.96437e-10
1.79754e-08
-8.25207e-10
1.8382e-08
-7.64032e-10
1.87586e-08
-7.07416e-10
1.91058e-08
-6.56564e-10
1.94253e-08
-6.12669e-10
1.97177e-08
-5.69717e-10
1.99824e-08
-5.2159e-10
2.022e-08
-4.69074e-10
2.04321e-08
-4.13756e-10
2.06187e-08
-3.53153e-10
2.07793e-08
-2.88188e-10
2.09163e-08
-2.28494e-10
2.10351e-08
-1.83157e-10
2.11398e-08
-1.50656e-10
2.12303e-08
-1.23186e-10
2.1304e-08
-9.70063e-11
2.1359e-08
-7.29248e-11
2.13952e-08
-4.87424e-11
2.14118e-08
-1.80363e-11
2.14078e-08
2.27129e-11
2.13834e-08
6.94862e-11
2.13408e-08
1.14802e-10
2.12837e-08
1.53883e-10
2.12149e-08
1.85412e-10
2.11365e-08
2.08414e-10
2.10503e-08
2.21558e-10
2.09579e-08
2.25939e-10
2.08602e-08
2.26869e-10
2.07563e-08
2.31573e-10
2.06442e-08
2.44172e-10
2.05224e-08
2.62126e-10
2.0393e-08
2.78845e-10
2.026e-08
2.91148e-10
2.01253e-08
3.01619e-10
1.99881e-08
3.11191e-10
1.98473e-08
3.14841e-10
1.97031e-08
3.10085e-10
1.9554e-08
3.04098e-10
1.93967e-08
3.06563e-10
1.92291e-08
3.20099e-10
1.90525e-08
3.41296e-10
1.88701e-08
3.64867e-10
1.86856e-08
3.83915e-10
1.85024e-08
3.92678e-10
1.83219e-08
3.91871e-10
1.81416e-08
3.87325e-10
1.79568e-08
3.85373e-10
1.77624e-08
3.9161e-10
1.75552e-08
4.08865e-10
1.73357e-08
4.34394e-10
1.71068e-08
4.62698e-10
1.68727e-08
4.88134e-10
1.66372e-08
5.05252e-10
1.64025e-08
5.10471e-10
1.61679e-08
5.03929e-10
1.59313e-08
4.91643e-10
1.56905e-08
4.83908e-10
1.54443e-08
4.86719e-10
1.51951e-08
4.94233e-10
1.49498e-08
4.95184e-10
1.47111e-08
4.93149e-10
1.44748e-08
4.93945e-10
1.42361e-08
4.91388e-10
1.39919e-08
4.86821e-10
1.37428e-08
4.85431e-10
1.34932e-08
4.88324e-10
1.3246e-08
4.94124e-10
1.30031e-08
4.97033e-10
1.27656e-08
4.91012e-10
1.25353e-08
4.74682e-10
1.23057e-08
4.65755e-10
1.20746e-08
4.61446e-10
1.18449e-08
4.54929e-10
1.16144e-08
4.5713e-10
1.13803e-08
4.62394e-10
1.1152e-08
4.49666e-10
1.09089e-08
4.5904e-10
1.06711e-08
4.64719e-10
1.04715e-08
4.33698e-10
1.02679e-08
4.64088e-10
1.00739e-08
4.56536e-10
9.92127e-09
3.63319e-10
9.87075e-09
2.66352e-10
9.83094e-09
2.2546e-10
9.70634e-09
2.55737e-10
9.53335e-09
2.31216e-10
9.34793e-09
2.23925e-10
9.20375e-09
2.28427e-10
9.07441e-09
1.891e-10
8.94933e-09
1.95869e-10
8.8336e-09
1.93921e-10
8.70988e-09
2.32186e-10
8.58938e-09
2.40942e-10
8.46704e-09
2.35951e-10
8.34355e-09
2.39149e-10
8.23317e-09
1.92536e-10
8.11774e-09
2.21065e-10
7.9792e-09
3.00918e-10
7.85995e-09
2.76274e-10
7.74689e-09
2.5884e-10
7.67956e-09
1.82366e-10
7.60675e-09
2.0055e-10
7.51814e-09
2.00223e-10
7.43743e-09
1.43946e-10
7.35892e-09
1.12968e-10
7.26808e-09
1.02265e-10
7.15165e-09
1.76572e-10
7.1021e-09
7.4141e-11
7.02778e-09
1.50206e-10
6.9288e-09
1.87098e-10
6.87603e-09
1.77706e-10
6.84925e-09
1.13031e-10
6.79413e-09
9.39247e-11
6.75657e-09
1.50623e-10
6.67611e-09
1.11623e-10
6.38844e-09
3.03866e-10
6.25323e-09
2.2449e-10
6.17184e-09
1.73463e-10
6.02574e-09
4.4384e-10
6.39324e-09
-2.09519e-10
6.78974e-09
-2.48169e-10
8.44806e-09
-1.43839e-09
1.00343e-08
-1.81972e-09
1.10365e-08
-1.22271e-09
1.11641e-08
-1.55941e-09
1.06271e-08
-8.65055e-10
1.05647e-08
-5.45614e-10
1.05368e-08
-3.90243e-10
1.0466e-08
-7.83748e-11
1.03546e-08
9.89461e-11
1.01726e-08
2.36286e-10
9.91426e-09
3.99701e-10
9.65158e-09
4.91439e-10
9.42352e-09
5.20568e-10
9.18623e-09
5.67146e-10
8.91818e-09
6.26028e-10
8.63814e-09
6.37998e-10
8.35639e-09
6.02987e-10
8.06262e-09
5.70484e-10
7.74825e-09
5.72687e-10
7.43329e-09
5.84097e-10
7.14731e-09
5.63488e-10
6.90399e-09
5.03561e-10
6.70106e-09
4.27375e-10
6.52457e-09
3.66601e-10
6.35391e-09
3.41495e-10
6.16934e-09
3.57324e-10
5.95781e-09
4.05221e-10
5.71947e-09
4.6369e-10
5.46444e-09
5.12454e-10
5.21104e-09
5.34156e-10
4.97594e-09
5.26042e-10
4.77052e-09
4.92997e-10
4.60308e-09
4.38021e-10
4.47531e-09
3.64393e-10
4.39009e-09
2.69258e-10
4.34619e-09
1.53826e-10
4.33678e-09
2.95234e-11
4.36429e-09
-1.03226e-10
4.42417e-09
-2.2487e-10
4.51617e-09
-3.28507e-10
4.63994e-09
-4.06959e-10
4.79434e-09
-4.60684e-10
4.9731e-09
-4.88657e-10
5.16497e-09
-4.91362e-10
5.35187e-09
-4.64145e-10
5.512e-09
-4.00791e-10
5.62738e-09
-3.01852e-10
5.69397e-09
-1.83962e-10
5.72065e-09
-7.28484e-11
5.73475e-09
-3.55737e-12
5.75182e-09
2.22449e-11
5.77907e-09
7.77006e-12
5.8171e-09
-3.83563e-11
5.87912e-09
-1.15896e-10
5.97179e-09
-2.24331e-10
6.10609e-09
-3.44297e-10
6.2678e-09
-4.19272e-10
6.41392e-09
-3.78557e-10
6.50484e-09
-2.17311e-10
6.54419e-09
-3.87229e-11
6.57887e-09
2.3325e-11
6.6488e-09
-9.19335e-11
6.72231e-09
-2.51339e-10
6.70156e-09
-2.08714e-10
6.52927e-09
1.11471e-10
6.26428e-09
4.94781e-10
6.09371e-09
5.9533e-10
6.09304e-09
3.34852e-10
6.08298e-09
8.20842e-11
5.89193e-09
2.0976e-10
5.5337e-09
5.97128e-10
5.31756e-09
6.77554e-10
5.37384e-09
2.71686e-10
5.39678e-09
-7.90366e-11
5.18218e-09
5.64451e-11
4.99276e-09
2.42883e-10
5.08698e-09
-1.84997e-11
5.12559e-09
-2.89501e-10
4.83448e-09
-1.18987e-10
4.59229e-09
2.15188e-10
4.45351e-09
3.80521e-10
4.25919e-09
3.33088e-10
4.11706e-09
5.36631e-10
4.17699e-09
3.02779e-10
1.58739e-09
-6.34211e-06
-1.4586e-06
-6.06983e-06
-9.8786e-07
-5.74613e-06
-1.0555e-06
-5.45435e-06
-9.97337e-07
-5.15185e-06
-9.41989e-07
-4.8413e-06
-9.02169e-07
-4.53652e-06
-8.71764e-07
-4.24624e-06
-8.29091e-07
-3.9752e-06
-7.88186e-07
-3.72572e-06
-7.44704e-07
-3.49719e-06
-6.94241e-07
-3.28688e-06
-6.39466e-07
-3.09203e-06
-5.87506e-07
-2.90346e-06
-5.38275e-07
-2.73442e-06
-4.92538e-07
-2.58439e-06
-4.49405e-07
-2.4464e-06
-4.12776e-07
-2.32256e-06
-3.74478e-07
-2.21409e-06
-3.30118e-07
-2.11946e-06
-2.8253e-07
-2.02336e-06
-2.38121e-07
-1.93974e-06
-2.03867e-07
-1.87463e-06
-1.73715e-07
-1.83397e-06
-1.43988e-07
-1.79026e-06
-1.08423e-07
-1.74819e-06
-7.67488e-08
-1.7192e-06
-4.01666e-08
-1.70704e-06
4.8589e-09
-1.71923e-06
3.33308e-08
-1.7318e-06
8.23971e-08
-1.76333e-06
1.70817e-07
-1.81808e-06
2.07684e-07
-1.90387e-06
1.91121e-07
-1.95502e-06
1.20582e-07
-1.99829e-06
1.50321e-07
-2.04437e-06
2.47014e-07
-2.12468e-06
2.79904e-07
-2.24632e-06
2.88658e-07
-2.32447e-06
2.69978e-07
-2.39861e-06
2.6195e-07
-2.47585e-06
3.37407e-07
-2.55952e-06
3.70099e-07
-2.68458e-06
3.47151e-07
-2.82164e-06
3.20217e-07
-2.93509e-06
3.40215e-07
-3.04098e-06
3.99293e-07
-3.18456e-06
3.99238e-07
-3.34547e-06
4.04796e-07
-3.49878e-06
4.15567e-07
-3.63662e-06
4.25041e-07
-3.78194e-06
4.12169e-07
-3.93667e-06
3.95788e-07
-4.07954e-06
3.76515e-07
-4.21029e-06
3.57405e-07
-4.34325e-06
3.70422e-07
-4.46136e-06
3.66303e-07
-4.56872e-06
3.44287e-07
-4.70551e-06
3.72472e-07
-4.82944e-06
3.97775e-07
-4.94107e-06
3.93341e-07
-5.0502e-06
3.49833e-07
-5.18271e-06
3.51991e-07
-5.3053e-06
3.86352e-07
-5.41766e-06
3.75545e-07
-5.51984e-06
3.44373e-07
-5.62558e-06
2.901e-07
-5.72718e-06