/*--------------------------------*- C++ -*----------------------------------*\
| =========                 |                                                 |
| \\      /  F ield         | OpenFOAM: The Open Source CFD Toolbox           |
|  \\    /   O peration     | Version:  v2006                                 |
|   \\  /    A nd           | Website:  www.openfoam.com                      |
|    \\/     M anipulation  |                                                 |
\*---------------------------------------------------------------------------*/
FoamFile
{
    version     2.0;
    format      ascii;
    class       volScalarField;
    location    "1.5";
    object      k;
}
// * * * * * * * * * * * * * * * * * * * * * * * * * * * * * * * * * * * * * //

dimensions      [0 2 -2 0 0 0 0];


internalField   nonuniform List<scalar> 
33000
(
2.28592e-08
2.11985e-08
2.16571e-08
2.15508e-08
2.14592e-08
2.14488e-08
2.14123e-08
2.13832e-08
2.13642e-08
2.13587e-08
2.13635e-08
2.13821e-08
2.14007e-08
2.14337e-08
2.14444e-08
2.14508e-08
2.14464e-08
2.14473e-08
2.14469e-08
2.14653e-08
2.14971e-08
2.15382e-08
2.15799e-08
2.16159e-08
2.16657e-08
2.17201e-08
2.17783e-08
2.18403e-08
2.18992e-08
2.19573e-08
2.20171e-08
2.20767e-08
2.21217e-08
2.21532e-08
2.22081e-08
2.22814e-08
2.23336e-08
2.23586e-08
2.23857e-08
2.24126e-08
2.24422e-08
2.24501e-08
2.24317e-08
2.23823e-08
2.23252e-08
2.22612e-08
2.21681e-08
2.20648e-08
2.19598e-08
2.18527e-08
2.17408e-08
2.16264e-08
2.15159e-08
2.14117e-08
2.13123e-08
2.12144e-08
2.11164e-08
2.10174e-08
2.0915e-08
2.08066e-08
2.06945e-08
2.0583e-08
2.04723e-08
2.03607e-08
2.02463e-08
2.01275e-08
2.00042e-08
1.98782e-08
1.97489e-08
1.96114e-08
1.94593e-08
1.9282e-08
1.90655e-08
1.87987e-08
1.84823e-08
1.80898e-08
1.75947e-08
1.70013e-08
1.63549e-08
1.65632e-08
1.63807e-08
1.64484e-08
1.64023e-08
1.63448e-08
1.63263e-08
1.62638e-08
1.61818e-08
1.61212e-08
1.60683e-08
1.60122e-08
1.59567e-08
1.59027e-08
1.58494e-08
1.57943e-08
1.57365e-08
1.56699e-08
1.55978e-08
1.55226e-08
1.54413e-08
1.53653e-08
1.53312e-08
1.52769e-08
1.52195e-08
1.51605e-08
1.51033e-08
1.50436e-08
1.49808e-08
1.49188e-08
1.48584e-08
1.47988e-08
1.47384e-08
1.4676e-08
1.46133e-08
1.45497e-08
1.4483e-08
1.44138e-08
1.43385e-08
1.42426e-08
1.42062e-08
1.4149e-08
1.40947e-08
1.40386e-08
1.39832e-08
1.39287e-08
1.38722e-08
1.3815e-08
1.37587e-08
1.37026e-08
1.36473e-08
1.35927e-08
1.35373e-08
1.34818e-08
1.34271e-08
1.33728e-08
1.33178e-08
1.32617e-08
1.32064e-08
1.31519e-08
1.30984e-08
1.30459e-08
1.29924e-08
1.29397e-08
1.28875e-08
1.28354e-08
1.27817e-08
1.27287e-08
1.26768e-08
1.2626e-08
1.25738e-08
1.25222e-08
1.2471e-08
1.24184e-08
1.23667e-08
1.23161e-08
1.22649e-08
1.22145e-08
1.21646e-08
1.21137e-08
1.2063e-08
1.20132e-08
1.19635e-08
1.19141e-08
1.18654e-08
1.18165e-08
1.17668e-08
1.17176e-08
1.16689e-08
1.16188e-08
1.15695e-08
1.15212e-08
1.14728e-08
1.14244e-08
1.13767e-08
1.13284e-08
1.12798e-08
1.1232e-08
1.11851e-08
1.11374e-08
1.10903e-08
1.10439e-08
1.09961e-08
1.09488e-08
1.0902e-08
1.08561e-08
1.08113e-08
1.07676e-08
1.07247e-08
1.06824e-08
1.06407e-08
1.05996e-08
1.05594e-08
1.05205e-08
1.04825e-08
1.04452e-08
1.04085e-08
1.03724e-08
1.03369e-08
1.03022e-08
1.02688e-08
1.02363e-08
1.02044e-08
1.01732e-08
1.01425e-08
1.01123e-08
1.00828e-08
1.00542e-08
1.00268e-08
1e-08
9.97378e-09
9.94807e-09
9.92287e-09
9.89818e-09
9.87409e-09
9.85095e-09
9.82868e-09
9.80694e-09
9.78568e-09
9.76486e-09
9.7445e-09
9.72461e-09
9.70539e-09
9.68705e-09
9.66923e-09
9.6518e-09
9.63473e-09
9.61802e-09
9.60167e-09
9.58569e-09
9.57015e-09
9.55533e-09
9.54109e-09
9.52718e-09
9.51357e-09
9.50024e-09
9.48718e-09
9.47439e-09
9.46188e-09
9.44968e-09
9.43791e-09
9.42674e-09
9.41592e-09
9.40533e-09
9.39495e-09
9.38477e-09
9.37479e-09
9.365e-09
9.35544e-09
9.34621e-09
9.33736e-09
9.32872e-09
9.32025e-09
9.31194e-09
9.30381e-09
9.29587e-09
9.28818e-09
9.28082e-09
9.27367e-09
9.26667e-09
9.25982e-09
9.25311e-09
9.24653e-09
9.24006e-09
9.23371e-09
9.22754e-09
9.22163e-09
9.21592e-09
9.21033e-09
9.20485e-09
9.19947e-09
9.1942e-09
9.18907e-09
9.18415e-09
9.17947e-09
9.17491e-09
9.17045e-09
9.16607e-09
9.16177e-09
9.1576e-09
9.1536e-09
9.1497e-09
9.14585e-09
9.14206e-09
9.13833e-09
9.13472e-09
9.13129e-09
9.12796e-09
9.12472e-09
9.12156e-09
9.1185e-09
9.11558e-09
9.11284e-09
9.11018e-09
9.10759e-09
9.10506e-09
9.10256e-09
9.10013e-09
9.0978e-09
9.09553e-09
9.09329e-09
9.09106e-09
9.08887e-09
9.0867e-09
9.08458e-09
9.08258e-09
9.08068e-09
9.07885e-09
9.07708e-09
9.07538e-09
9.07377e-09
9.07228e-09
9.07087e-09
9.0695e-09
9.06814e-09
9.06682e-09
9.06559e-09
9.0644e-09
9.06323e-09
9.06208e-09
9.06098e-09
9.05997e-09
9.05906e-09
9.05818e-09
9.05734e-09
9.05655e-09
9.05588e-09
9.05526e-09
9.05464e-09
9.05399e-09
9.05332e-09
9.05269e-09
9.05207e-09
9.05145e-09
9.05082e-09
9.0502e-09
9.04962e-09
9.04909e-09
9.04862e-09
9.04817e-09
9.0477e-09
9.04721e-09
9.04671e-09
9.04617e-09
9.04558e-09
9.04494e-09
9.04426e-09
9.04357e-09
9.04287e-09
9.04218e-09
9.04151e-09
9.04087e-09
9.04024e-09
9.03961e-09
9.03897e-09
9.0383e-09
9.03759e-09
9.03683e-09
9.03604e-09
9.03524e-09
9.03445e-09
9.03368e-09
9.03293e-09
9.03222e-09
9.03152e-09
9.03083e-09
9.03011e-09
9.02936e-09
9.02857e-09
9.02777e-09
9.02696e-09
9.02615e-09
9.02536e-09
9.02462e-09
9.0239e-09
9.02321e-09
9.02252e-09
9.02183e-09
9.02114e-09
9.02045e-09
9.01975e-09
9.01907e-09
9.01841e-09
9.01779e-09
9.01722e-09
9.01667e-09
9.01611e-09
9.01553e-09
9.01491e-09
9.01427e-09
9.01363e-09
9.01301e-09
9.01241e-09
9.01184e-09
9.01128e-09
9.01071e-09
9.01011e-09
9.00947e-09
9.0088e-09
9.0081e-09
9.00741e-09
9.00676e-09
9.00615e-09
9.00558e-09
9.005e-09
9.00442e-09
9.00383e-09
9.00324e-09
9.00265e-09
9.00209e-09
9.00156e-09
9.00105e-09
9.00052e-09
8.99997e-09
8.99942e-09
8.9989e-09
8.9984e-09
8.99793e-09
8.99748e-09
8.99704e-09
8.9966e-09
8.99616e-09
8.99574e-09
8.99533e-09
8.99487e-09
8.9944e-09
8.99389e-09
8.99341e-09
8.99301e-09
8.99259e-09
8.99231e-09
8.9919e-09
8.99189e-09
8.99153e-09
8.99141e-09
8.99127e-09
8.99114e-09
8.99097e-09
8.99072e-09
8.99052e-09
8.9903e-09
8.99012e-09
8.99005e-09
8.98978e-09
8.9895e-09
8.98923e-09
8.98902e-09
8.98886e-09
8.98863e-09
8.98851e-09
8.98847e-09
8.98854e-09
8.98853e-09
8.98851e-09
8.98854e-09
8.98839e-09
8.9883e-09
8.98803e-09
8.98811e-09
8.98805e-09
8.98786e-09
8.98808e-09
8.98799e-09
8.98795e-09
8.98761e-09
8.98735e-09
8.98727e-09
8.98686e-09
8.98679e-09
8.9876e-09
8.98681e-09
8.99204e-09
8.99079e-09
8.99128e-09
8.99139e-09
8.99122e-09
8.99096e-09
8.99061e-09
8.99012e-09
8.98952e-09
8.98886e-09
8.98821e-09
8.9876e-09
8.9871e-09
8.98672e-09
8.98643e-09
8.98617e-09
8.98593e-09
8.98571e-09
8.98553e-09
8.9854e-09
8.98529e-09
8.9852e-09
8.98511e-09
8.98504e-09
8.98497e-09
8.98492e-09
8.9849e-09
8.98491e-09
8.98495e-09
8.98499e-09
8.98503e-09
8.98505e-09
8.98501e-09
8.98494e-09
8.98483e-09
8.98469e-09
8.98455e-09
8.98444e-09
8.98438e-09
8.98438e-09
8.98445e-09
8.98459e-09
8.98476e-09
8.98492e-09
8.98502e-09
8.98504e-09
8.98499e-09
8.98491e-09
8.98486e-09
8.98493e-09
8.98517e-09
8.9856e-09
8.98616e-09
8.98673e-09
8.98714e-09
8.98727e-09
8.9872e-09
8.98718e-09
8.98747e-09
8.98802e-09
8.98839e-09
8.98825e-09
8.98753e-09
8.98664e-09
8.98616e-09
8.98618e-09
8.98601e-09
8.98537e-09
8.9845e-09
8.98416e-09
8.98466e-09
8.98477e-09
8.98457e-09
8.9849e-09
8.98604e-09
8.98651e-09
8.98621e-09
8.98584e-09
8.98537e-09
8.98493e-09
8.98938e-09
1.01283e-08
1.01947e-08
1.01824e-08
1.01702e-08
1.01798e-08
1.01866e-08
1.01827e-08
1.01791e-08
1.01771e-08
1.01751e-08
1.01754e-08
1.01781e-08
1.01827e-08
1.0195e-08
1.01964e-08
1.01966e-08
1.01982e-08
1.02007e-08
1.02026e-08
1.0207e-08
1.02166e-08
1.02186e-08
1.02145e-08
1.02086e-08
1.02135e-08
1.02195e-08
1.02224e-08
1.02204e-08
1.02162e-08
1.02264e-08
1.02344e-08
1.02289e-08
1.02088e-08
1.02106e-08
1.02237e-08
1.02319e-08
1.02183e-08
1.01949e-08
1.0212e-08
1.02202e-08
1.02268e-08
1.02227e-08
1.0194e-08
1.01807e-08
1.01961e-08
1.02034e-08
1.01785e-08
1.01639e-08
1.01665e-08
1.0171e-08
1.01594e-08
1.01427e-08
1.01342e-08
1.01295e-08
1.01312e-08
1.01294e-08
1.01235e-08
1.01218e-08
1.01256e-08
1.01221e-08
1.01113e-08
1.01048e-08
1.01062e-08
1.01031e-08
1.00963e-08
1.00877e-08
1.00804e-08
1.00766e-08
1.00722e-08
1.00678e-08
1.0066e-08
1.00667e-08
1.00706e-08
1.00767e-08
1.00856e-08
1.00962e-08
1.01032e-08
1.00967e-08
1.00746e-08
1.0055e-08
1.00534e-08
1.00677e-08
1.00712e-08
1.00853e-08
1.00892e-08
1.00508e-08
1.00447e-08
1.00468e-08
1.00503e-08
1.00493e-08
1.00445e-08
1.00412e-08
1.00411e-08
1.0037e-08
1.00364e-08
1.00376e-08
1.00382e-08
1.0038e-08
1.00379e-08
1.00375e-08
1.00371e-08
1.004e-08
1.00441e-08
1.00399e-08
1.00433e-08
1.00421e-08
1.00371e-08
1.00309e-08
1.00312e-08
1.00307e-08
1.00283e-08
1.00285e-08
1.00306e-08
1.0033e-08
1.00341e-08
1.0034e-08
1.00341e-08
1.00332e-08
1.00323e-08
1.00324e-08
1.00346e-08
1.00325e-08
1.00343e-08
1.00323e-08
1.00301e-08
1.00245e-08
1.00238e-08
1.00225e-08
1.00223e-08
1.00222e-08
1.0022e-08
1.00218e-08
1.00216e-08
1.00215e-08
1.00214e-08
1.00212e-08
1.0021e-08
1.00209e-08
1.00207e-08
1.00206e-08
1.00204e-08
1.00203e-08
1.00201e-08
1.002e-08
1.00199e-08
1.00197e-08
1.00196e-08
1.00195e-08
1.00193e-08
1.00192e-08
1.0019e-08
1.00189e-08
1.00187e-08
1.00186e-08
1.00184e-08
1.00182e-08
1.00181e-08
1.00179e-08
1.00177e-08
1.00175e-08
1.00172e-08
1.0017e-08
1.00167e-08
1.00165e-08
1.00162e-08
1.0016e-08
1.00157e-08
1.00154e-08
1.00151e-08
1.00148e-08
1.00145e-08
1.00142e-08
1.00139e-08
1.00136e-08
1.00133e-08
1.00131e-08
1.00128e-08
1.00125e-08
1.00122e-08
1.00119e-08
1.00116e-08
1.00113e-08
1.0011e-08
1.00107e-08
1.00104e-08
1.001e-08
1.00097e-08
1.00094e-08
1.00091e-08
1.00088e-08
1.00085e-08
1.00081e-08
1.00078e-08
1.00075e-08
1.00072e-08
1.00068e-08
1.00065e-08
1.00062e-08
1.00059e-08
1.00056e-08
1.00053e-08
1.0005e-08
1.00047e-08
1.00044e-08
1.00041e-08
1.00038e-08
1.00035e-08
1.00032e-08
1.00028e-08
1.00025e-08
1.00023e-08
1.0002e-08
1.00017e-08
1.00014e-08
1.00012e-08
1.00009e-08
1.00006e-08
1.00004e-08
1.00001e-08
9.99983e-09
9.99957e-09
9.99931e-09
9.99907e-09
9.99883e-09
9.9986e-09
9.99838e-09
9.99817e-09
9.99796e-09
9.99776e-09
9.99754e-09
9.99734e-09
9.99714e-09
9.99695e-09
9.99676e-09
9.99659e-09
9.99642e-09
9.99626e-09
9.9961e-09
9.99594e-09
9.99578e-09
9.99563e-09
9.99548e-09
9.99533e-09
9.99519e-09
9.99505e-09
9.99492e-09
9.99479e-09
9.99466e-09
9.99453e-09
9.99441e-09
9.9943e-09
9.99418e-09
9.99407e-09
9.99397e-09
9.99386e-09
9.99376e-09
9.99366e-09
9.99357e-09
9.99348e-09
9.9934e-09
9.99331e-09
9.99323e-09
9.99314e-09
9.99306e-09
9.99298e-09
9.99291e-09
9.99283e-09
9.99276e-09
9.99269e-09
9.99262e-09
9.99255e-09
9.99248e-09
9.99241e-09
9.99235e-09
9.99228e-09
9.99222e-09
9.99215e-09
9.99209e-09
9.99204e-09
9.99198e-09
9.99193e-09
9.99188e-09
9.99183e-09
9.99178e-09
9.99174e-09
9.99169e-09
9.99166e-09
9.99162e-09
9.99158e-09
9.99155e-09
9.99152e-09
9.99149e-09
9.99146e-09
9.99143e-09
9.9914e-09
9.99137e-09
9.99134e-09
9.99131e-09
9.99128e-09
9.99126e-09
9.99124e-09
9.99122e-09
9.9912e-09
9.99118e-09
9.99116e-09
9.99115e-09
9.99114e-09
9.99113e-09
9.99112e-09
9.99111e-09
9.9911e-09
9.99109e-09
9.99108e-09
9.99107e-09
9.99106e-09
9.99105e-09
9.99104e-09
9.99103e-09
9.99103e-09
9.99102e-09
9.99101e-09
9.99101e-09
9.991e-09
9.991e-09
9.99099e-09
9.99099e-09
9.99098e-09
9.99097e-09
9.99096e-09
9.99096e-09
9.99095e-09
9.99095e-09
9.99094e-09
9.99094e-09
9.99094e-09
9.99094e-09
9.99094e-09
9.99093e-09
9.99093e-09
9.99093e-09
9.99092e-09
9.99092e-09
9.99091e-09
9.99091e-09
9.9909e-09
9.9909e-09
9.99089e-09
9.99089e-09
9.99089e-09
9.99089e-09
9.99089e-09
9.99088e-09
9.99088e-09
9.99088e-09
9.99087e-09
9.99086e-09
9.99086e-09
9.99086e-09
9.99085e-09
9.99085e-09
9.99085e-09
9.99085e-09
9.99085e-09
9.99084e-09
9.99084e-09
9.99084e-09
9.99083e-09
9.99083e-09
9.99082e-09
9.99082e-09
9.99082e-09
9.99082e-09
9.99082e-09
9.99082e-09
9.99082e-09
9.99081e-09
9.99081e-09
9.99081e-09
9.99081e-09
9.99081e-09
9.99081e-09
9.99081e-09
9.99081e-09
9.99081e-09
9.9908e-09
9.9908e-09
9.9908e-09
9.99079e-09
9.99079e-09
9.99079e-09
9.99079e-09
9.99079e-09
9.99079e-09
9.99078e-09
9.99078e-09
9.99078e-09
9.99077e-09
9.99077e-09
9.99077e-09
9.99077e-09
9.99077e-09
9.99077e-09
9.99077e-09
9.99076e-09
9.99076e-09
9.99076e-09
9.99076e-09
9.99076e-09
9.99076e-09
9.99076e-09
9.99075e-09
9.99075e-09
9.99075e-09
9.99075e-09
9.99075e-09
9.99075e-09
9.99075e-09
9.99075e-09
9.99075e-09
9.99075e-09
9.99075e-09
9.99074e-09
9.99074e-09
9.99074e-09
9.99074e-09
9.99074e-09
9.99074e-09
9.99074e-09
9.99074e-09
9.99075e-09
9.99075e-09
9.99075e-09
9.99075e-09
9.99075e-09
9.99075e-09
9.99074e-09
9.99074e-09
9.99074e-09
9.99074e-09
9.99075e-09
9.99074e-09
9.99074e-09
9.99073e-09
9.99074e-09
9.99074e-09
9.99074e-09
9.99074e-09
9.99074e-09
9.99075e-09
9.99075e-09
9.99074e-09
9.99075e-09
9.99074e-09
9.99074e-09
9.99073e-09
9.99074e-09
9.99074e-09
9.99073e-09
9.99074e-09
9.99075e-09
9.99074e-09
9.99074e-09
9.99072e-09
9.99077e-09
9.99076e-09
9.99092e-09
9.99094e-09
9.99075e-09
9.99076e-09
9.99077e-09
9.99074e-09
9.99073e-09
9.99072e-09
9.99071e-09
9.99071e-09
9.9907e-09
9.99069e-09
9.99068e-09
9.99068e-09
9.99068e-09
9.99068e-09
9.99069e-09
9.9907e-09
9.9907e-09
9.9907e-09
9.9907e-09
9.9907e-09
9.99071e-09
9.99071e-09
9.99072e-09
9.99072e-09
9.99072e-09
9.99072e-09
9.99072e-09
9.99072e-09
9.99072e-09
9.99072e-09
9.99073e-09
9.99074e-09
9.99075e-09
9.99076e-09
9.99077e-09
9.99078e-09
9.99078e-09
9.99078e-09
9.99078e-09
9.99079e-09
9.99079e-09
9.99079e-09
9.99079e-09
9.99079e-09
9.99079e-09
9.99078e-09
9.99078e-09
9.99078e-09
9.99078e-09
9.99078e-09
9.99078e-09
9.99079e-09
9.99079e-09
9.99079e-09
9.9908e-09
9.9908e-09
9.9908e-09
9.99079e-09
9.99079e-09
9.9908e-09
9.9908e-09
9.9908e-09
9.9908e-09
9.99077e-09
9.99074e-09
9.99075e-09
9.99078e-09
9.9908e-09
9.99078e-09
9.99073e-09
9.99075e-09
9.99079e-09
9.9908e-09
9.99079e-09
9.99079e-09
9.9908e-09
9.9908e-09
9.9908e-09
9.99076e-09
9.99078e-09
9.99073e-09
9.99074e-09
9.99081e-09
1.00032e-08
1.00069e-08
1.00075e-08
1.00083e-08
1.00101e-08
1.00117e-08
1.00128e-08
1.00136e-08
1.00143e-08
1.00149e-08
1.00153e-08
1.00154e-08
1.00155e-08
1.00158e-08
1.00157e-08
1.00154e-08
1.00152e-08
1.00148e-08
1.00145e-08
1.00143e-08
1.00141e-08
1.00135e-08
1.00132e-08
1.00126e-08
1.00123e-08
1.00119e-08
1.00116e-08
1.00112e-08
1.00108e-08
1.00109e-08
1.00113e-08
1.00111e-08
1.00103e-08
1.00097e-08
1.00098e-08
1.00102e-08
1.00098e-08
1.00091e-08
1.00092e-08
1.00092e-08
1.00098e-08
1.001e-08
1.00094e-08
1.00093e-08
1.00097e-08
1.00102e-08
1.00097e-08
1.00094e-08
1.00094e-08
1.00094e-08
1.00091e-08
1.00087e-08
1.00085e-08
1.00083e-08
1.00083e-08
1.00083e-08
1.00081e-08
1.00081e-08
1.00082e-08
1.00081e-08
1.00079e-08
1.00078e-08
1.00079e-08
1.0008e-08
1.0008e-08
1.00081e-08
1.00082e-08
1.00085e-08
1.00087e-08
1.0009e-08
1.00092e-08
1.00094e-08
1.00096e-08
1.00099e-08
1.00101e-08
1.00102e-08
1.00103e-08
1.00102e-08
1.00101e-08
1.00103e-08
1.00108e-08
1.00114e-08
1.00119e-08
1.00128e-08
1.0013e-08
1.00122e-08
1.0012e-08
1.00119e-08
1.00113e-08
1.00106e-08
1.00091e-08
1.00098e-08
1.00101e-08
1.00098e-08
1.00099e-08
1.001e-08
1.00097e-08
1.00096e-08
1.00096e-08
1.00097e-08
1.00097e-08
1.00097e-08
1.00097e-08
1.00098e-08
1.001e-08
1.00099e-08
1.00096e-08
1.00095e-08
1.00093e-08
1.00092e-08
1.00091e-08
1.0009e-08
1.00089e-08
1.00089e-08
1.00088e-08
1.00087e-08
1.00087e-08
1.00086e-08
1.00087e-08
1.00086e-08
1.00088e-08
1.00089e-08
1.00095e-08
1.00093e-08
1.00086e-08
1.00086e-08
1.00083e-08
1.00082e-08
1.00079e-08
1.00079e-08
1.00076e-08
1.00076e-08
1.00079e-08
1.00079e-08
1.00077e-08
1.00075e-08
1.00075e-08
1.00075e-08
1.00074e-08
1.00074e-08
1.00073e-08
1.00073e-08
1.00073e-08
1.00072e-08
1.00071e-08
1.00071e-08
1.0007e-08
1.0007e-08
1.00069e-08
1.00069e-08
1.00069e-08
1.00068e-08
1.00068e-08
1.00068e-08
1.00067e-08
1.00067e-08
1.00067e-08
1.00067e-08
1.00066e-08
1.00066e-08
1.00066e-08
1.00065e-08
1.00065e-08
1.00064e-08
1.00064e-08
1.00063e-08
1.00063e-08
1.00062e-08
1.00062e-08
1.00061e-08
1.0006e-08
1.0006e-08
1.00059e-08
1.00059e-08
1.00058e-08
1.00058e-08
1.00057e-08
1.00057e-08
1.00056e-08
1.00056e-08
1.00055e-08
1.00055e-08
1.00054e-08
1.00054e-08
1.00053e-08
1.00053e-08
1.00052e-08
1.00052e-08
1.00052e-08
1.00051e-08
1.00051e-08
1.0005e-08
1.0005e-08
1.00049e-08
1.00049e-08
1.00048e-08
1.00048e-08
1.00047e-08
1.00047e-08
1.00046e-08
1.00046e-08
1.00045e-08
1.00045e-08
1.00044e-08
1.00044e-08
1.00043e-08
1.00043e-08
1.00042e-08
1.00042e-08
1.00041e-08
1.00041e-08
1.0004e-08
1.0004e-08
1.00039e-08
1.00039e-08
1.00038e-08
1.00038e-08
1.00037e-08
1.00036e-08
1.00036e-08
1.00035e-08
1.00035e-08
1.00034e-08
1.00033e-08
1.00033e-08
1.00032e-08
1.00032e-08
1.00031e-08
1.00031e-08
1.0003e-08
1.0003e-08
1.00029e-08
1.00029e-08
1.00028e-08
1.00027e-08
1.00027e-08
1.00026e-08
1.00026e-08
1.00025e-08
1.00025e-08
1.00024e-08
1.00023e-08
1.00023e-08
1.00022e-08
1.00022e-08
1.00021e-08
1.00021e-08
1.0002e-08
1.0002e-08
1.00019e-08
1.00019e-08
1.00018e-08
1.00018e-08
1.00017e-08
1.00016e-08
1.00016e-08
1.00015e-08
1.00015e-08
1.00014e-08
1.00014e-08
1.00013e-08
1.00013e-08
1.00012e-08
1.00012e-08
1.00011e-08
1.00011e-08
1.0001e-08
1.0001e-08
1.00009e-08
1.00009e-08
1.00008e-08
1.00008e-08
1.00007e-08
1.00007e-08
1.00006e-08
1.00006e-08
1.00005e-08
1.00005e-08
1.00004e-08
1.00004e-08
1.00003e-08
1.00003e-08
1.00002e-08
1.00002e-08
1.00001e-08
1.00001e-08
1.00001e-08
1e-08
9.99998e-09
9.99994e-09
9.9999e-09
9.99986e-09
9.99983e-09
9.99979e-09
9.99975e-09
9.99971e-09
9.99967e-09
9.99963e-09
9.9996e-09
9.99956e-09
9.99953e-09
9.99949e-09
9.99946e-09
9.99943e-09
9.9994e-09
9.99938e-09
9.99935e-09
9.99933e-09
9.9993e-09
9.99928e-09
9.99926e-09
9.99923e-09
9.9992e-09
9.99918e-09
9.99915e-09
9.99913e-09
9.99911e-09
9.99909e-09
9.99907e-09
9.99905e-09
9.99903e-09
9.99901e-09
9.999e-09
9.99898e-09
9.99897e-09
9.99896e-09
9.99894e-09
9.99892e-09
9.9989e-09
9.99888e-09
9.99887e-09
9.99885e-09
9.99884e-09
9.99883e-09
9.99882e-09
9.99882e-09
9.99881e-09
9.9988e-09
9.99879e-09
9.99878e-09
9.99877e-09
9.99876e-09
9.99875e-09
9.99874e-09
9.99874e-09
9.99873e-09
9.99873e-09
9.99873e-09
9.99873e-09
9.99873e-09
9.99873e-09
9.99873e-09
9.99872e-09
9.99872e-09
9.99871e-09
9.9987e-09
9.9987e-09
9.99869e-09
9.99869e-09
9.99869e-09
9.9987e-09
9.9987e-09
9.9987e-09
9.9987e-09
9.99869e-09
9.99869e-09
9.99868e-09
9.99868e-09
9.99868e-09
9.99868e-09
9.99868e-09
9.99868e-09
9.99868e-09
9.99867e-09
9.99867e-09
9.99867e-09
9.99866e-09
9.99866e-09
9.99865e-09
9.99865e-09
9.99866e-09
9.99866e-09
9.99866e-09
9.99866e-09
9.99866e-09
9.99865e-09
9.99864e-09
9.99864e-09
9.99864e-09
9.99864e-09
9.99864e-09
9.99865e-09
9.99865e-09
9.99865e-09
9.99864e-09
9.99863e-09
9.99863e-09
9.99863e-09
9.99863e-09
9.99864e-09
9.99864e-09
9.99864e-09
9.99863e-09
9.99863e-09
9.99862e-09
9.99862e-09
9.99862e-09
9.99863e-09
9.99863e-09
9.99862e-09
9.99862e-09
9.99861e-09
9.99861e-09
9.99861e-09
9.99861e-09
9.99861e-09
9.99861e-09
9.99861e-09
9.99861e-09
9.9986e-09
9.99859e-09
9.99859e-09
9.99858e-09
9.99857e-09
9.99857e-09
9.99858e-09
9.99858e-09
9.99858e-09
9.99858e-09
9.99859e-09
9.99859e-09
9.99859e-09
9.99858e-09
9.99858e-09
9.99857e-09
9.99857e-09
9.99857e-09
9.99857e-09
9.99857e-09
9.99857e-09
9.99857e-09
9.99856e-09
9.99856e-09
9.99856e-09
9.99856e-09
9.99856e-09
9.99856e-09
9.99857e-09
9.99857e-09
9.99857e-09
9.99856e-09
9.99856e-09
9.99856e-09
9.99856e-09
9.99856e-09
9.99856e-09
9.99858e-09
9.99856e-09
9.9986e-09
9.99857e-09
9.99884e-09
9.99882e-09
9.99927e-09
9.99939e-09
9.99871e-09
9.99869e-09
9.99865e-09
9.99864e-09
9.99866e-09
9.99862e-09
9.99856e-09
9.99857e-09
9.99857e-09
9.99856e-09
9.99857e-09
9.99856e-09
9.99856e-09
9.99856e-09
9.99856e-09
9.99856e-09
9.99856e-09
9.99858e-09
9.9986e-09
9.99861e-09
9.9986e-09
9.99858e-09
9.99857e-09
9.99856e-09
9.99857e-09
9.99858e-09
9.9986e-09
9.99861e-09
9.99861e-09
9.9986e-09
9.99859e-09
9.99858e-09
9.99858e-09
9.99858e-09
9.99859e-09
9.99859e-09
9.9986e-09
9.9986e-09
9.9986e-09
9.99859e-09
9.99859e-09
9.99859e-09
9.9986e-09
9.99861e-09
9.99861e-09
9.99862e-09
9.99862e-09
9.99861e-09
9.99861e-09
9.9986e-09
9.9986e-09
9.9986e-09
9.9986e-09
9.9986e-09
9.9986e-09
9.9986e-09
9.99861e-09
9.99862e-09
9.99863e-09
9.99864e-09
9.99862e-09
9.9986e-09
9.9986e-09
9.99861e-09
9.99863e-09
9.99864e-09
9.9986e-09
9.99862e-09
9.99862e-09
9.99861e-09
9.99868e-09
9.99861e-09
9.99864e-09
9.99863e-09
9.99865e-09
9.99873e-09
9.99862e-09
9.99863e-09
9.99869e-09
9.99879e-09
9.99861e-09
9.9986e-09
9.99862e-09
9.99865e-09
9.99876e-09
9.99882e-09
1.00226e-08
1.00204e-08
1.00174e-08
1.00166e-08
1.00164e-08
1.00162e-08
1.00163e-08
1.00164e-08
1.00164e-08
1.00163e-08
1.00162e-08
1.00159e-08
1.00157e-08
1.00155e-08
1.00152e-08
1.00148e-08
1.00146e-08
1.00143e-08
1.00139e-08
1.00135e-08
1.00132e-08
1.00129e-08
1.00126e-08
1.00124e-08
1.00121e-08
1.00118e-08
1.00114e-08
1.00109e-08
1.00105e-08
1.00102e-08
1.001e-08
1.00099e-08
1.00099e-08
1.001e-08
1.00101e-08
1.00102e-08
1.00102e-08
1.00101e-08
1.00101e-08
1.001e-08
1.00099e-08
1.00097e-08
1.00096e-08
1.00094e-08
1.00092e-08
1.0009e-08
1.00087e-08
1.00085e-08
1.00083e-08
1.00081e-08
1.0008e-08
1.0008e-08
1.00079e-08
1.00079e-08
1.00078e-08
1.00077e-08
1.00076e-08
1.00074e-08
1.00073e-08
1.00072e-08
1.00071e-08
1.0007e-08
1.0007e-08
1.00071e-08
1.00072e-08
1.00074e-08
1.00077e-08
1.00079e-08
1.00082e-08
1.00084e-08
1.00086e-08
1.00087e-08
1.00088e-08
1.0009e-08
1.0009e-08
1.00089e-08
1.00088e-08
1.00086e-08
1.00084e-08
1.00082e-08
1.00083e-08
1.00088e-08
1.00094e-08
1.00097e-08
1.00099e-08
1.00105e-08
1.00112e-08
1.00121e-08
1.0012e-08
1.00116e-08
1.00112e-08
1.00107e-08
1.00103e-08
1.00088e-08
1.00092e-08
1.00094e-08
1.00096e-08
1.00095e-08
1.00095e-08
1.00092e-08
1.00091e-08
1.00091e-08
1.00091e-08
1.00092e-08
1.00092e-08
1.00093e-08
1.00093e-08
1.00094e-08
1.00096e-08
1.00094e-08
1.00091e-08
1.0009e-08
1.00088e-08
1.00087e-08
1.00086e-08
1.00085e-08
1.00085e-08
1.00084e-08
1.00083e-08
1.00083e-08
1.00083e-08
1.00084e-08
1.00084e-08
1.00086e-08
1.00087e-08
1.00093e-08
1.00091e-08
1.00084e-08
1.00083e-08
1.0008e-08
1.0008e-08
1.00078e-08
1.00077e-08
1.00076e-08
1.00075e-08
1.00075e-08
1.00075e-08
1.00075e-08
1.00073e-08
1.00073e-08
1.00073e-08
1.00072e-08
1.00071e-08
1.00071e-08
1.0007e-08
1.0007e-08
1.00069e-08
1.00068e-08
1.00068e-08
1.00068e-08
1.00067e-08
1.00067e-08
1.00067e-08
1.00067e-08
1.00066e-08
1.00066e-08
1.00066e-08
1.00066e-08
1.00065e-08
1.00065e-08
1.00065e-08
1.00064e-08
1.00064e-08
1.00063e-08
1.00063e-08
1.00062e-08
1.00062e-08
1.00061e-08
1.00061e-08
1.0006e-08
1.0006e-08
1.00059e-08
1.00058e-08
1.00058e-08
1.00057e-08
1.00057e-08
1.00057e-08
1.00056e-08
1.00056e-08
1.00055e-08
1.00055e-08
1.00054e-08
1.00054e-08
1.00053e-08
1.00053e-08
1.00052e-08
1.00052e-08
1.00051e-08
1.00051e-08
1.00051e-08
1.0005e-08
1.0005e-08
1.00049e-08
1.00049e-08
1.00048e-08
1.00048e-08
1.00047e-08
1.00047e-08
1.00047e-08
1.00046e-08
1.00046e-08
1.00045e-08
1.00045e-08
1.00044e-08
1.00044e-08
1.00043e-08
1.00043e-08
1.00042e-08
1.00042e-08
1.00041e-08
1.00041e-08
1.0004e-08
1.0004e-08
1.00039e-08
1.00039e-08
1.00038e-08
1.00038e-08
1.00037e-08
1.00036e-08
1.00036e-08
1.00035e-08
1.00035e-08
1.00034e-08
1.00034e-08
1.00033e-08
1.00033e-08
1.00032e-08
1.00032e-08
1.00031e-08
1.0003e-08
1.0003e-08
1.00029e-08
1.00029e-08
1.00028e-08
1.00028e-08
1.00027e-08
1.00026e-08
1.00026e-08
1.00025e-08
1.00025e-08
1.00024e-08
1.00024e-08
1.00023e-08
1.00023e-08
1.00022e-08
1.00022e-08
1.00021e-08
1.00021e-08
1.0002e-08
1.0002e-08
1.00019e-08
1.00019e-08
1.00018e-08
1.00018e-08
1.00017e-08
1.00017e-08
1.00016e-08
1.00015e-08
1.00015e-08
1.00014e-08
1.00014e-08
1.00013e-08
1.00013e-08
1.00012e-08
1.00012e-08
1.00011e-08
1.00011e-08
1.00011e-08
1.0001e-08
1.0001e-08
1.00009e-08
1.00009e-08
1.00008e-08
1.00008e-08
1.00007e-08
1.00007e-08
1.00006e-08
1.00006e-08
1.00005e-08
1.00005e-08
1.00004e-08
1.00004e-08
1.00003e-08
1.00003e-08
1.00002e-08
1.00002e-08
1.00001e-08
1.00001e-08
1.00001e-08
1e-08
9.99999e-09
9.99995e-09
9.99991e-09
9.99988e-09
9.99984e-09
9.9998e-09
9.99976e-09
9.99972e-09
9.99968e-09
9.99965e-09
9.99961e-09
9.99958e-09
9.99955e-09
9.99952e-09
9.9995e-09
9.99948e-09
9.99945e-09
9.99943e-09
9.99941e-09
9.99938e-09
9.99936e-09
9.99933e-09
9.9993e-09
9.99927e-09
9.99924e-09
9.99922e-09
9.9992e-09
9.99918e-09
9.99916e-09
9.99914e-09
9.99913e-09
9.99911e-09
9.9991e-09
9.99908e-09
9.99907e-09
9.99906e-09
9.99904e-09
9.99902e-09
9.99899e-09
9.99898e-09
9.99896e-09
9.99895e-09
9.99894e-09
9.99893e-09
9.99892e-09
9.99892e-09
9.99891e-09
9.9989e-09
9.99889e-09
9.99888e-09
9.99887e-09
9.99885e-09
9.99884e-09
9.99883e-09
9.99882e-09
9.99882e-09
9.99882e-09
9.99882e-09
9.99882e-09
9.99882e-09
9.99882e-09
9.99882e-09
9.99881e-09
9.9988e-09
9.99879e-09
9.99879e-09
9.99879e-09
9.99879e-09
9.99879e-09
9.99879e-09
9.99879e-09
9.99879e-09
9.99879e-09
9.99879e-09
9.99878e-09
9.99877e-09
9.99876e-09
9.99876e-09
9.99876e-09
9.99876e-09
9.99876e-09
9.99877e-09
9.99877e-09
9.99876e-09
9.99876e-09
9.99875e-09
9.99875e-09
9.99875e-09
9.99875e-09
9.99875e-09
9.99875e-09
9.99875e-09
9.99875e-09
9.99875e-09
9.99874e-09
9.99874e-09
9.99873e-09
9.99873e-09
9.99874e-09
9.99874e-09
9.99874e-09
9.99874e-09
9.99874e-09
9.99873e-09
9.99872e-09
9.99872e-09
9.99872e-09
9.99872e-09
9.99873e-09
9.99873e-09
9.99873e-09
9.99872e-09
9.99872e-09
9.99871e-09
9.99871e-09
9.99872e-09
9.99872e-09
9.99872e-09
9.99872e-09
9.99871e-09
9.9987e-09
9.9987e-09
9.9987e-09
9.9987e-09
9.99871e-09
9.99871e-09
9.9987e-09
9.99869e-09
9.99868e-09
9.99868e-09
9.99866e-09
9.99866e-09
9.99868e-09
9.99867e-09
9.99868e-09
9.99867e-09
9.99868e-09
9.99868e-09
9.99868e-09
9.99868e-09
9.99868e-09
9.99868e-09
9.99868e-09
9.99867e-09
9.99867e-09
9.99866e-09
9.99866e-09
9.99866e-09
9.99866e-09
9.99866e-09
9.99866e-09
9.99865e-09
9.99865e-09
9.99865e-09
9.99865e-09
9.99866e-09
9.99866e-09
9.99865e-09
9.99866e-09
9.99866e-09
9.99866e-09
9.99866e-09
9.99866e-09
9.99866e-09
9.99865e-09
9.99868e-09
9.99867e-09
9.99895e-09
9.99892e-09
9.9995e-09
9.99955e-09
9.99889e-09
9.9988e-09
9.99874e-09
9.99877e-09
9.99873e-09
9.99868e-09
9.99865e-09
9.99865e-09
9.99868e-09
9.99867e-09
9.99867e-09
9.99866e-09
9.99866e-09
9.99865e-09
9.99863e-09
9.99863e-09
9.99864e-09
9.99864e-09
9.99865e-09
9.99865e-09
9.99867e-09
9.99868e-09
9.99868e-09
9.99866e-09
9.99865e-09
9.99865e-09
9.99865e-09
9.99867e-09
9.99869e-09
9.9987e-09
9.99871e-09
9.9987e-09
9.99868e-09
9.99866e-09
9.99865e-09
9.99866e-09
9.99866e-09
9.99867e-09
9.99867e-09
9.99867e-09
9.99867e-09
9.99868e-09
9.99867e-09
9.99867e-09
9.99867e-09
9.99868e-09
9.99868e-09
9.99869e-09
9.9987e-09
9.99871e-09
9.99871e-09
9.9987e-09
9.9987e-09
9.9987e-09
9.99869e-09
9.99869e-09
9.99868e-09
9.99868e-09
9.99869e-09
9.9987e-09
9.99871e-09
9.99873e-09
9.99874e-09
9.99871e-09
9.99869e-09
9.9987e-09
9.99871e-09
9.99872e-09
9.9987e-09
9.99869e-09
9.9987e-09
9.99869e-09
9.99872e-09
9.9987e-09
9.99872e-09
9.99875e-09
9.9987e-09
9.9988e-09
9.99871e-09
9.99874e-09
9.99882e-09
9.99888e-09
9.99873e-09
9.99869e-09
9.9987e-09
9.9987e-09
9.99874e-09
9.9991e-09
9.99893e-09
1.00156e-08
1.00168e-08
1.00152e-08
1.00152e-08
1.00158e-08
1.00162e-08
1.00166e-08
1.00168e-08
1.0017e-08
1.00171e-08
1.00171e-08
1.00169e-08
1.00168e-08
1.00167e-08
1.00165e-08
1.00164e-08
1.00164e-08
1.00163e-08
1.00162e-08
1.00161e-08
1.00159e-08
1.00159e-08
1.00159e-08
1.00159e-08
1.00159e-08
1.00158e-08
1.00157e-08
1.00155e-08
1.00152e-08
1.00149e-08
1.00145e-08
1.00143e-08
1.00143e-08
1.00143e-08
1.00145e-08
1.00146e-08
1.00147e-08
1.00147e-08
1.00145e-08
1.00142e-08
1.00139e-08
1.00135e-08
1.00131e-08
1.00127e-08
1.00123e-08
1.0012e-08
1.00116e-08
1.00113e-08
1.00111e-08
1.00109e-08
1.00107e-08
1.00106e-08
1.00104e-08
1.00102e-08
1.001e-08
1.00098e-08
1.00095e-08
1.00093e-08
1.0009e-08
1.00087e-08
1.00085e-08
1.00083e-08
1.00082e-08
1.00081e-08
1.00081e-08
1.00082e-08
1.00083e-08
1.00084e-08
1.00085e-08
1.00086e-08
1.00086e-08
1.00087e-08
1.00087e-08
1.00087e-08
1.00088e-08
1.00087e-08
1.00087e-08
1.00086e-08
1.00083e-08
1.0008e-08
1.00078e-08
1.00077e-08
1.00079e-08
1.00083e-08
1.00086e-08
1.00091e-08
1.00095e-08
1.00099e-08
1.00104e-08
1.00113e-08
1.00122e-08
1.0012e-08
1.00114e-08
1.00109e-08
1.00103e-08
1.00101e-08
1.00086e-08
1.00089e-08
1.00092e-08
1.00092e-08
1.00092e-08
1.00092e-08
1.00088e-08
1.00088e-08
1.00089e-08
1.00089e-08
1.0009e-08
1.00091e-08
1.00091e-08
1.00091e-08
1.00091e-08
1.00093e-08
1.00092e-08
1.00088e-08
1.00087e-08
1.00084e-08
1.00084e-08
1.00083e-08
1.00082e-08
1.00081e-08
1.0008e-08
1.00081e-08
1.00081e-08
1.00081e-08
1.00082e-08
1.00082e-08
1.00084e-08
1.00085e-08
1.00092e-08
1.0009e-08
1.00082e-08
1.00082e-08
1.00078e-08
1.00077e-08
1.00075e-08
1.00072e-08
1.00071e-08
1.00073e-08
1.00072e-08
1.00072e-08
1.00072e-08
1.00071e-08
1.0007e-08
1.0007e-08
1.00069e-08
1.00069e-08
1.00068e-08
1.00068e-08
1.00067e-08
1.00067e-08
1.00067e-08
1.00066e-08
1.00066e-08
1.00066e-08
1.00065e-08
1.00065e-08
1.00065e-08
1.00065e-08
1.00064e-08
1.00064e-08
1.00064e-08
1.00063e-08
1.00063e-08
1.00062e-08
1.00062e-08
1.00061e-08
1.00061e-08
1.0006e-08
1.0006e-08
1.00059e-08
1.00059e-08
1.00058e-08
1.00058e-08
1.00057e-08
1.00057e-08
1.00057e-08
1.00056e-08
1.00056e-08
1.00055e-08
1.00055e-08
1.00054e-08
1.00054e-08
1.00053e-08
1.00053e-08
1.00052e-08
1.00052e-08
1.00052e-08
1.00051e-08
1.00051e-08
1.0005e-08
1.0005e-08
1.00049e-08
1.00049e-08
1.00049e-08
1.00048e-08
1.00048e-08
1.00047e-08
1.00047e-08
1.00046e-08
1.00046e-08
1.00045e-08
1.00045e-08
1.00044e-08
1.00044e-08
1.00043e-08
1.00043e-08
1.00043e-08
1.00042e-08
1.00042e-08
1.00041e-08
1.00041e-08
1.0004e-08
1.0004e-08
1.00039e-08
1.00039e-08
1.00038e-08
1.00038e-08
1.00037e-08
1.00036e-08
1.00036e-08
1.00035e-08
1.00035e-08
1.00034e-08
1.00034e-08
1.00033e-08
1.00033e-08
1.00032e-08
1.00032e-08
1.00031e-08
1.00031e-08
1.0003e-08
1.00029e-08
1.00029e-08
1.00028e-08
1.00028e-08
1.00027e-08
1.00027e-08
1.00026e-08
1.00026e-08
1.00025e-08
1.00025e-08
1.00024e-08
1.00024e-08
1.00023e-08
1.00022e-08
1.00022e-08
1.00021e-08
1.00021e-08
1.0002e-08
1.0002e-08
1.00019e-08