/*--------------------------------*- C++ -*----------------------------------*\
| =========                 |                                                 |
| \\      /  F ield         | OpenFOAM: The Open Source CFD Toolbox           |
|  \\    /   O peration     | Version:  v2006                                 |
|   \\  /    A nd           | Website:  www.openfoam.com                      |
|    \\/     M anipulation  |                                                 |
\*---------------------------------------------------------------------------*/
FoamFile
{
    version     2.0;
    format      ascii;
    class       volScalarField;
    location    "1.5";
    object      nut;
}
// * * * * * * * * * * * * * * * * * * * * * * * * * * * * * * * * * * * * * //

dimensions      [0 2 -1 0 0 0 0];


internalField   nonuniform List<scalar> 
33000
(
7.25826e-09
7.1048e-09
6.9858e-09
7.49892e-09
8.03529e-09
8.44077e-09
8.8696e-09
9.3588e-09
9.87854e-09
1.04573e-08
1.11088e-08
1.18045e-08
1.25579e-08
1.33086e-08
1.40107e-08
1.48024e-08
1.5654e-08
1.65333e-08
1.74519e-08
1.85017e-08
1.94073e-08
2.00211e-08
2.07413e-08
2.18094e-08
2.28867e-08
2.35432e-08
2.40197e-08
2.43874e-08
2.50277e-08
2.54561e-08
2.50496e-08
2.43723e-08
2.44446e-08
2.48174e-08
2.45809e-08
2.37555e-08
2.2762e-08
2.28763e-08
2.27637e-08
2.18453e-08
2.10392e-08
1.99159e-08
1.91824e-08
1.91158e-08
1.87273e-08
1.76335e-08
1.68593e-08
1.65119e-08
1.60402e-08
1.53179e-08
1.46414e-08
1.41991e-08
1.3829e-08
1.3478e-08
1.30902e-08
1.26523e-08
1.22905e-08
1.19919e-08
1.16039e-08
1.1158e-08
1.08172e-08
1.05899e-08
1.02989e-08
9.95344e-09
9.65502e-09
9.41944e-09
9.24807e-09
9.08127e-09
8.91013e-09
8.77264e-09
8.64448e-09
8.50219e-09
8.33998e-09
8.22224e-09
8.09982e-09
7.87449e-09
7.68587e-09
8.42344e-09
1.03972e-08
1.21333e-08
1.17688e-08
1.14354e-08
1.18144e-08
1.26924e-08
1.32794e-08
1.34607e-08
1.31965e-08
1.27492e-08
1.18346e-08
1.14259e-08
1.13048e-08
1.11527e-08
1.1064e-08
1.09062e-08
1.07097e-08
1.05402e-08
1.04046e-08
1.03837e-08
1.04672e-08
1.16553e-08
1.19414e-08
1.14861e-08
1.13246e-08
1.11079e-08
1.14423e-08
1.12851e-08
1.11953e-08
1.10982e-08
1.09334e-08
1.06903e-08
1.05507e-08
1.04657e-08
1.03601e-08
1.02793e-08
1.01783e-08
1.01173e-08
1.0146e-08
1.12079e-08
1.14498e-08
1.10915e-08
1.10653e-08
1.0873e-08
1.11515e-08
1.1021e-08
1.09646e-08
1.08364e-08
1.06491e-08
1.05443e-08
1.04762e-08
1.03916e-08
1.03343e-08
1.02753e-08
1.02087e-08
1.01576e-08
1.01124e-08
1.00752e-08
1.00408e-08
1.00052e-08
9.97625e-09
9.9523e-09
9.93254e-09
9.91682e-09
9.90487e-09
9.89651e-09
9.89019e-09
9.88826e-09
9.89284e-09
9.90193e-09
9.912e-09
9.92638e-09
9.94405e-09
9.96479e-09
9.99094e-09
1.00217e-08
1.0055e-08
1.00918e-08
1.01332e-08
1.01777e-08
1.02259e-08
1.02778e-08
1.03334e-08
1.0393e-08
1.04568e-08
1.0524e-08
1.05938e-08
1.06676e-08
1.07452e-08
1.08256e-08
1.09104e-08
1.09995e-08
1.1092e-08
1.11887e-08
1.12901e-08
1.13949e-08
1.15031e-08
1.16166e-08
1.17354e-08
1.18576e-08
1.19848e-08
1.21174e-08
1.22533e-08
1.23943e-08
1.25408e-08
1.26933e-08
1.28526e-08
1.30186e-08
1.31909e-08
1.33312e-08
1.32792e-08
1.32281e-08
1.3178e-08
1.31294e-08
1.30821e-08
1.30356e-08
1.29899e-08
1.29449e-08
1.29007e-08
1.28575e-08
1.28158e-08
1.27753e-08
1.27356e-08
1.26966e-08
1.26584e-08
1.26208e-08
1.2584e-08
1.25484e-08
1.25142e-08
1.24808e-08
1.24481e-08
1.24161e-08
1.23847e-08
1.23539e-08
1.23239e-08
1.2295e-08
1.22673e-08
1.22402e-08
1.22137e-08
1.21878e-08
1.21624e-08
1.21376e-08
1.21136e-08
1.20908e-08
1.20686e-08
1.20468e-08
1.20256e-08
1.20047e-08
1.19843e-08
1.19644e-08
1.19451e-08
1.19266e-08
1.19088e-08
1.18915e-08
1.18745e-08
1.18579e-08
1.18416e-08
1.18257e-08
1.18101e-08
1.17949e-08
1.17802e-08
1.17663e-08
1.17528e-08
1.17396e-08
1.17267e-08
1.1714e-08
1.17015e-08
1.16893e-08
1.16774e-08
1.16659e-08
1.16549e-08
1.16441e-08
1.16335e-08
1.16232e-08
1.16131e-08
1.16032e-08
1.15936e-08
1.15844e-08
1.15755e-08
1.15668e-08
1.15582e-08
1.15499e-08
1.15416e-08
1.15336e-08
1.15257e-08
1.1518e-08
1.15106e-08
1.15035e-08
1.14965e-08
1.14897e-08
1.1483e-08
1.14764e-08
1.147e-08
1.14639e-08
1.14581e-08
1.14524e-08
1.14468e-08
1.14414e-08
1.1436e-08
1.14308e-08
1.14258e-08
1.14209e-08
1.14161e-08
1.14114e-08
1.14068e-08
1.14023e-08
1.1398e-08
1.13938e-08
1.13898e-08
1.13859e-08
1.1382e-08
1.13784e-08
1.1375e-08
1.13717e-08
1.13685e-08
1.13653e-08
1.13622e-08
1.13591e-08
1.13562e-08
1.13534e-08
1.13506e-08
1.13478e-08
1.13451e-08
1.13424e-08
1.13398e-08
1.13373e-08
1.13349e-08
1.13326e-08
1.13304e-08
1.13283e-08
1.13263e-08
1.13244e-08
1.13227e-08
1.1321e-08
1.13193e-08
1.13176e-08
1.13161e-08
1.13146e-08
1.13131e-08
1.13117e-08
1.13103e-08
1.13091e-08
1.13079e-08
1.13068e-08
1.13058e-08
1.13048e-08
1.1304e-08
1.13032e-08
1.13024e-08
1.13016e-08
1.13008e-08
1.13e-08
1.12992e-08
1.12985e-08
1.12977e-08
1.12969e-08
1.12962e-08
1.12955e-08
1.12949e-08
1.12944e-08
1.12938e-08
1.12932e-08
1.12926e-08
1.12919e-08
1.12911e-08
1.12903e-08
1.12895e-08
1.12886e-08
1.12878e-08
1.12869e-08
1.12861e-08
1.12853e-08
1.12845e-08
1.12837e-08
1.12829e-08
1.12821e-08
1.12812e-08
1.12802e-08
1.12793e-08
1.12783e-08
1.12773e-08
1.12763e-08
1.12754e-08
1.12745e-08
1.12736e-08
1.12728e-08
1.12719e-08
1.12709e-08
1.12699e-08
1.12689e-08
1.12679e-08
1.12669e-08
1.12659e-08
1.1265e-08
1.12641e-08
1.12633e-08
1.12624e-08
1.12615e-08
1.12607e-08
1.12598e-08
1.1259e-08
1.12581e-08
1.12573e-08
1.12565e-08
1.12558e-08
1.12551e-08
1.12544e-08
1.12537e-08
1.12529e-08
1.12521e-08
1.12513e-08
1.12505e-08
1.12498e-08
1.12491e-08
1.12484e-08
1.12477e-08
1.12469e-08
1.12461e-08
1.12453e-08
1.12444e-08
1.12436e-08
1.12428e-08
1.1242e-08
1.12413e-08
1.12406e-08
1.12398e-08
1.12391e-08
1.12384e-08
1.12376e-08
1.12369e-08
1.12363e-08
1.12356e-08
1.1235e-08
1.12343e-08
1.12336e-08
1.12329e-08
1.12323e-08
1.12317e-08
1.12312e-08
1.12306e-08
1.12301e-08
1.12295e-08
1.1229e-08
1.12285e-08
1.12279e-08
1.12273e-08
1.12267e-08
1.12261e-08
1.12256e-08
1.12251e-08
1.12247e-08
1.12242e-08
1.12242e-08
1.12238e-08
1.12236e-08
1.12234e-08
1.12233e-08
1.12231e-08
1.12228e-08
1.12225e-08
1.12222e-08
1.1222e-08
1.12219e-08
1.12216e-08
1.12212e-08
1.12209e-08
1.12206e-08
1.12204e-08
1.12202e-08
1.122e-08
1.122e-08
1.122e-08
1.122e-08
1.122e-08
1.122e-08
1.12199e-08
1.12197e-08
1.12194e-08
1.12195e-08
1.12194e-08
1.12192e-08
1.12195e-08
1.12194e-08
1.12193e-08
1.12189e-08
1.12186e-08
1.12185e-08
1.12179e-08
1.12179e-08
1.12189e-08
1.12179e-08
1.12244e-08
1.12228e-08
1.12235e-08
1.12236e-08
1.12234e-08
1.12231e-08
1.12226e-08
1.1222e-08
1.12213e-08
1.12204e-08
1.12196e-08
1.12189e-08
1.12182e-08
1.12178e-08
1.12174e-08
1.12171e-08
1.12168e-08
1.12165e-08
1.12163e-08
1.12161e-08
1.1216e-08
1.12159e-08
1.12158e-08
1.12157e-08
1.12156e-08
1.12155e-08
1.12155e-08
1.12155e-08
1.12156e-08
1.12156e-08
1.12157e-08
1.12157e-08
1.12156e-08
1.12156e-08
1.12154e-08
1.12152e-08
1.12151e-08
1.12149e-08
1.12149e-08
1.12149e-08
1.12149e-08
1.12151e-08
1.12153e-08
1.12155e-08
1.12157e-08
1.12157e-08
1.12156e-08
1.12155e-08
1.12155e-08
1.12155e-08
1.12158e-08
1.12164e-08
1.12171e-08
1.12178e-08
1.12183e-08
1.12185e-08
1.12184e-08
1.12183e-08
1.12187e-08
1.12194e-08
1.12199e-08
1.12197e-08
1.12188e-08
1.12177e-08
1.12171e-08
1.12171e-08
1.12169e-08
1.12161e-08
1.1215e-08
1.12146e-08
1.12152e-08
1.12153e-08
1.12151e-08
1.12155e-08
1.12169e-08
1.12175e-08
1.12171e-08
1.12167e-08
1.12161e-08
1.12155e-08
1.12211e-08
6.1181e-09
1.16461e-08
2.30262e-08
1.77387e-08
2.2269e-08
2.29796e-08
2.3753e-08
2.49813e-08
2.60712e-08
2.74008e-08
2.9163e-08
3.12305e-08
3.34955e-08
3.58706e-08
3.85033e-08
4.16095e-08
4.46483e-08
4.78814e-08
5.25777e-08
5.85346e-08
6.44934e-08
7.07361e-08
7.98094e-08
9.14111e-08
1.03638e-07
1.18324e-07
1.45483e-07
2.12368e-07
2.75407e-07
2.44857e-07
2.0992e-07
1.71224e-07
2.57727e-07
5.34906e-07
2.08698e-07
1.44447e-07
1.12631e-07
1.06149e-07
1.27286e-07
1.31951e-07
8.49982e-08
8.06047e-08
9.09968e-08
9.64008e-08
7.78827e-08
7.28551e-08
7.13532e-08
6.76401e-08
6.44651e-08
6.54929e-08
6.82274e-08
7.02206e-08
7.25703e-08
7.60722e-08
7.50703e-08
7.33955e-08
7.60311e-08
7.37446e-08
6.66201e-08
6.4622e-08
7.17124e-08
7.54131e-08
6.51422e-08
6.33685e-08
6.81431e-08
8.2425e-08
9.69657e-08
1.10303e-07
1.19558e-07
1.24743e-07
1.18971e-07
1.01317e-07
7.17864e-08
5.49123e-08
3.88451e-08
2.335e-08
1.87796e-08
1.81766e-08
1.85767e-08
1.27333e-08
1.04991e-08
1.09453e-08
1.68922e-08
2.47099e-08
2.8053e-08
4.21427e-08
7.24762e-08
5.14796e-08
5.03883e-08
1.12449e-07
2.31247e-07
2.17275e-07
1.49017e-07
1.49691e-07
1.44451e-07
1.42764e-07
1.09474e-07
6.81263e-08
7.10986e-08
7.13718e-08
6.68782e-08
3.60884e-08
4.08423e-08
9.59074e-08
9.0013e-08
1.29644e-07
1.20297e-07
2.44501e-07
1.44244e-07
1.59472e-07
3.8249e-07
4.21562e-07
2.68515e-07
1.98139e-07
1.54268e-07
8.80925e-08
9.7796e-08
9.49645e-08
8.72633e-08
4.22355e-08
4.6924e-08
1.2151e-07
1.12256e-07
1.81496e-07
1.7329e-07
2.15373e-07
2.29286e-07
6.49077e-07
8.3227e-07
7.21627e-07
8.69656e-07
1.0433e-06
1.24387e-06
1.73288e-06
1.7346e-06
1.73431e-06
1.73339e-06
1.71652e-06
1.43495e-06
1.19933e-06
1.01837e-06
8.75574e-07
7.70631e-07
6.993e-07
6.29545e-07
5.73316e-07
5.3023e-07
4.93354e-07
4.61919e-07
4.35185e-07
4.10664e-07
3.89113e-07
3.70808e-07
3.54655e-07
3.40221e-07
3.27552e-07
3.16523e-07
3.06823e-07
2.98106e-07
2.9019e-07
2.83241e-07
2.77152e-07
2.7149e-07
2.66251e-07
2.61703e-07
2.57576e-07
2.53568e-07
2.49997e-07
2.47124e-07
2.44518e-07
2.41927e-07
2.39539e-07
2.37494e-07
2.35652e-07
2.33877e-07
2.3229e-07
2.30963e-07
2.29865e-07
2.28872e-07
2.27996e-07
2.27345e-07
2.26898e-07
2.26593e-07
2.26452e-07
2.26502e-07
2.26693e-07
2.26978e-07
2.27359e-07
2.27928e-07
2.28723e-07
2.29728e-07
2.30886e-07
2.32191e-07
2.33621e-07
2.35141e-07
2.36737e-07
2.3847e-07
2.40415e-07
2.42553e-07
2.44821e-07
2.47195e-07
2.49667e-07
2.52255e-07
2.54983e-07
2.57903e-07
2.61091e-07
2.64578e-07
2.68317e-07
2.72225e-07
2.76197e-07
2.802e-07
2.84224e-07
2.88324e-07
2.9253e-07
2.96906e-07
3.01535e-07
3.06492e-07
3.11787e-07
3.17381e-07
3.23292e-07
3.2948e-07
3.35824e-07
3.42201e-07
3.48579e-07
3.55007e-07
3.61502e-07
3.68148e-07
3.75046e-07
3.82401e-07
3.90316e-07
3.98672e-07
4.07299e-07
4.16008e-07
4.24553e-07
4.32742e-07
4.40807e-07
4.49152e-07
4.58138e-07
4.67989e-07
4.78644e-07
4.89836e-07
5.01149e-07
5.12332e-07
5.23425e-07
5.34674e-07
5.46405e-07
5.58638e-07
5.71248e-07
5.84153e-07
5.97478e-07
6.11316e-07
6.25539e-07
6.39976e-07
6.54717e-07
6.70126e-07
6.86449e-07
7.03459e-07
7.20695e-07
7.37986e-07
7.55565e-07
7.73643e-07
7.92206e-07
8.11295e-07
8.31197e-07
8.52096e-07
8.73793e-07
8.96017e-07
9.1887e-07
9.42628e-07
9.67397e-07
9.93247e-07
1.02044e-06
1.04912e-06
1.0791e-06
1.11014e-06
1.14228e-06
1.17553e-06
1.20961e-06
1.24421e-06
1.27958e-06
1.31631e-06
1.35461e-06
1.39399e-06
1.43386e-06
1.47417e-06
1.51524e-06
1.55721e-06
1.56906e-06
1.56963e-06
1.57019e-06
1.57068e-06
1.57109e-06
1.57142e-06
1.57161e-06
1.57167e-06
1.57163e-06
1.57156e-06
1.57153e-06
1.57155e-06
1.57159e-06
1.57166e-06
1.57177e-06
1.57198e-06
1.5723e-06
1.57275e-06
1.57328e-06
1.57382e-06
1.57434e-06
1.57481e-06
1.57519e-06
1.57549e-06
1.5757e-06
1.57583e-06
1.57591e-06
1.57599e-06
1.5761e-06
1.57627e-06
1.57652e-06
1.57683e-06
1.57719e-06
1.57756e-06
1.57794e-06
1.57832e-06
1.57871e-06
1.57905e-06
1.57923e-06
1.57916e-06
1.57893e-06
1.57871e-06
1.57863e-06
1.57868e-06
1.5788e-06
1.57898e-06
1.57933e-06
1.5799e-06
1.58054e-06
1.58099e-06
1.58115e-06
1.58115e-06
1.58114e-06
1.58105e-06
1.58077e-06
1.58038e-06
1.58006e-06
1.57995e-06
1.57999e-06
1.58009e-06
1.58029e-06
1.58058e-06
1.58086e-06
1.58099e-06
1.58099e-06
1.58086e-06
1.58058e-06
1.58017e-06
1.5798e-06
1.57964e-06
1.57967e-06
1.57982e-06
1.58004e-06
1.58036e-06
1.58066e-06
1.58079e-06
1.58066e-06
1.58033e-06
1.57996e-06
1.57963e-06
1.5794e-06
1.57935e-06
1.57951e-06
1.57986e-06
1.58027e-06
1.5806e-06
1.58075e-06
1.58077e-06
1.58077e-06
1.58076e-06
1.58075e-06
1.58077e-06
1.58099e-06
1.58143e-06
1.58194e-06
1.58231e-06
1.58241e-06
1.58224e-06
1.58191e-06
1.58159e-06
1.58146e-06
1.58156e-06
1.58184e-06
1.58217e-06
1.58241e-06
1.58243e-06
1.58219e-06
1.58179e-06
1.58134e-06
1.581e-06
1.58094e-06
1.58122e-06
1.58173e-06
1.58217e-06
1.58234e-06
1.5823e-06
1.58225e-06
1.58219e-06
1.58217e-06
1.58238e-06
1.58274e-06
1.58298e-06
1.58297e-06
1.5828e-06
1.58265e-06
1.58272e-06
1.58302e-06
1.58331e-06
1.58352e-06
1.5837e-06
1.58371e-06
1.5837e-06
1.58385e-06
1.58405e-06
1.5838e-06
1.58349e-06
1.58314e-06
1.58308e-06
1.58388e-06
1.58412e-06
1.58458e-06
1.58538e-06
1.58622e-06
1.58668e-06
1.58651e-06
1.58728e-06
1.5873e-06
1.58721e-06
1.58658e-06
1.58627e-06
1.58657e-06
1.58652e-06
1.58744e-06
1.58688e-06
1.58545e-06
1.58561e-06
1.58584e-06
1.58676e-06
1.58638e-06
1.58667e-06
1.58782e-06
1.58834e-06
1.58879e-06
1.58799e-06
1.58864e-06
1.58773e-06
1.58743e-06
1.58649e-06
1.58744e-06
1.58857e-06
1.58702e-06
1.5886e-06
1.58884e-06
1.58765e-06
1.58741e-06
1.58371e-06
1.58629e-06
1.58558e-06
1.58617e-06
1.58909e-06
1.58889e-06
1.58885e-06
1.58861e-06
1.58817e-06
1.5887e-06
1.58752e-06
1.58653e-06
1.58568e-06
1.58409e-06
1.58226e-06
1.58105e-06
1.58038e-06
1.5799e-06
1.58011e-06
1.58126e-06
1.58258e-06
1.58315e-06
1.58291e-06
1.58274e-06
1.58325e-06
1.58426e-06
1.58519e-06
1.5857e-06
1.58565e-06
1.58506e-06
1.58417e-06
1.58329e-06
1.58262e-06
1.58228e-06
1.5823e-06
1.58269e-06
1.58354e-06
1.58492e-06
1.58691e-06
1.58883e-06
1.58901e-06
1.58903e-06
1.58904e-06
1.58905e-06
1.58906e-06
1.58906e-06
1.58906e-06
1.58906e-06
1.58905e-06
1.58903e-06
1.589e-06
1.58896e-06
1.5888e-06
1.58834e-06
1.58845e-06
1.58887e-06
1.58895e-06
1.58899e-06
1.58902e-06
1.58903e-06
1.58902e-06
1.58898e-06
1.58888e-06
1.58792e-06
1.58892e-06
1.58899e-06
1.589e-06
1.5889e-06
1.5835e-06
1.57834e-06
1.5806e-06
1.5877e-06
1.58874e-06
1.58346e-06
1.57762e-06
1.58095e-06
1.58889e-06
1.58895e-06
1.58832e-06
1.58785e-06
1.58901e-06
1.58902e-06
1.58889e-06
1.58329e-06
1.58597e-06
1.57907e-06
1.57953e-06
1.57727e-06
5.73245e-09
1.03385e-08
2.77484e-08
1.88255e-08
2.31097e-08
2.26449e-08
2.29942e-08
2.40589e-08
2.5439e-08
2.72041e-08
2.9128e-08
3.12307e-08
3.31771e-08
3.47966e-08
3.78926e-08
4.13321e-08
4.4317e-08
4.78934e-08
5.2453e-08
5.65849e-08
5.83298e-08
6.41141e-08
7.63404e-08
9.17313e-08
9.37907e-08
9.88796e-08
1.15021e-07
1.56396e-07
2.10828e-07
1.42581e-07
1.57403e-07
3.03361e-07
2.14233e-07
2.84615e-07
1.14328e-07
1.31213e-07
1.46727e-07
1.00384e-07
1.27166e-07
1.08938e-07
9.27558e-08
1.10561e-07
8.24868e-08
7.28013e-08
7.21187e-08
7.85725e-08
6.49473e-08
5.74666e-08
5.89068e-08
6.29646e-08
6.03922e-08
5.86417e-08
6.26582e-08
6.60124e-08
6.68878e-08
7.25402e-08
7.41562e-08
6.50694e-08
6.84528e-08
7.10726e-08
7.07691e-08
6.50102e-08
6.66278e-08
7.0051e-08
7.21148e-08
7.30851e-08
7.85124e-08
9.12741e-08
1.04322e-07
1.18305e-07
1.11163e-07
8.76991e-08
7.20654e-08
6.18568e-08
5.33357e-08
4.21344e-08
2.86888e-08
2.40791e-08
1.93213e-08
1.89243e-08
1.72221e-08
1.77329e-08
1.23709e-08
9.02702e-09
9.06371e-09
1.24118e-08
1.89788e-08
2.43843e-08
2.72184e-08
3.87018e-08
4.91417e-08
5.23239e-08
1.27586e-07
3.58639e-07
1.69621e-07
1.0859e-07
1.03888e-07
8.51902e-08
7.78496e-08
9.20441e-08
8.17499e-08
9.75197e-08
7.42916e-08
6.47134e-08
3.37923e-08
3.6946e-08
5.92672e-08
8.0944e-08
8.77987e-08
1.17439e-07
1.09576e-07
1.52206e-07
1.62658e-07
2.94022e-07
2.31903e-07
1.47693e-07
1.13179e-07
1.35889e-07
1.12761e-07
1.39475e-07
9.99909e-08
9.12923e-08
4.14695e-08
4.44662e-08
1.0803e-07
1.03377e-07
1.78781e-07
1.74747e-07
2.76936e-07
2.92446e-07
1.38858e-06
2.73941e-06
9.32805e-07
9.41592e-07
1.47119e-06
2.06009e-06
2.12736e-06
1.50886e-06
1.29679e-06
1.08848e-06
9.31028e-07
8.06643e-07
7.15046e-07
6.64516e-07
6.00344e-07
5.53383e-07
5.18427e-07
4.79979e-07
4.50179e-07
4.25046e-07
4.01565e-07
3.83188e-07
3.66775e-07
3.50882e-07
3.36084e-07
3.23932e-07
3.14015e-07
3.04929e-07
2.96421e-07
2.88671e-07
2.8232e-07
2.76592e-07
2.70842e-07
2.65577e-07
2.61051e-07
2.56902e-07
2.52834e-07
2.49284e-07
2.46441e-07
2.43736e-07
2.4098e-07
2.38597e-07
2.36578e-07
2.34643e-07
2.32824e-07
2.31239e-07
2.29972e-07
2.28944e-07
2.28032e-07
2.27223e-07
2.26594e-07
2.26101e-07
2.25717e-07
2.25539e-07
2.25597e-07
2.25835e-07
2.26263e-07
2.26843e-07
2.27621e-07
2.28542e-07
2.29564e-07
2.30656e-07
2.31863e-07
2.3321e-07
2.34656e-07
2.36196e-07
2.37902e-07
2.39872e-07
2.42078e-07
2.44443e-07
2.46948e-07
2.49538e-07
2.52184e-07
2.5487e-07
2.57652e-07
2.60702e-07
2.64124e-07
2.67884e-07
2.71937e-07
2.7617e-07
2.80416e-07
2.84551e-07
2.88616e-07
2.92767e-07
2.97047e-07
3.01597e-07
3.06509e-07
3.11853e-07
3.17527e-07
3.23416e-07
3.29431e-07
3.35512e-07
3.41615e-07
3.47771e-07
3.54108e-07
3.60776e-07
3.6779e-07
3.75106e-07
3.82683e-07
3.90502e-07
3.98529e-07
4.06776e-07
4.15204e-07
4.23679e-07
4.32039e-07
4.40337e-07
4.4882e-07
4.57773e-07
4.67455e-07
4.77929e-07
4.89105e-07
5.00696e-07
5.12358e-07
5.23932e-07
5.35503e-07
5.4728e-07
5.59282e-07
5.71385e-07
5.83539e-07
5.95985e-07
6.09037e-07
6.22775e-07
6.37048e-07
6.51871e-07
6.67722e-07
6.85115e-07
7.03897e-07
7.23091e-07
7.41749e-07
7.59781e-07
7.7769e-07
7.9582e-07
8.14177e-07
8.32937e-07
8.52515e-07
8.73142e-07
8.94818e-07
9.1772e-07
9.42152e-07
9.68106e-07
9.95272e-07
1.02349e-06
1.05279e-06
1.08308e-06
1.11414e-06
1.1457e-06
1.17749e-06
1.20914e-06
1.24054e-06
1.27225e-06
1.30544e-06
1.34105e-06
1.37936e-06
1.42014e-06
1.46316e-06
1.50836e-06
1.55558e-06
1.60451e-06
1.65496e-06
1.70683e-06
1.7598e-06
1.81327e-06
1.86661e-06
1.91972e-06
1.97354e-06
2.02952e-06
2.08868e-06
2.15106e-06
2.21604e-06
2.28324e-06
2.35299e-06
2.42621e-06
2.50371e-06
2.58581e-06
2.67245e-06
2.76339e-06
2.85836e-06
2.9571e-06
3.05906e-06
3.16332e-06
3.26893e-06
3.37529e-06
3.48225e-06
3.59042e-06
3.70118e-06
3.81694e-06
3.94079e-06
4.07536e-06
4.22163e-06
4.37895e-06
4.54762e-06
4.73224e-06
4.9404e-06
5.17476e-06
5.42388e-06
5.66438e-06
5.88217e-06
6.0917e-06
6.32224e-06
6.58372e-06
6.85705e-06
7.1321e-06
7.44574e-06
7.85316e-06
8.35626e-06
8.88573e-06
9.38318e-06
9.56384e-06
9.56383e-06
9.56382e-06
9.56378e-06
9.56368e-06
9.56353e-06
9.56341e-06
9.56337e-06
9.56339e-06
9.56344e-06
9.56353e-06
9.56365e-06
9.56376e-06
9.56381e-06
9.5638e-06
9.56375e-06
9.56364e-06
9.56347e-06
9.56333e-06
9.56329e-06
9.56334e-06
9.56342e-06
9.56352e-06
9.56364e-06
9.56375e-06
9.56378e-06
9.56371e-06
9.56357e-06
9.56341e-06
9.56329e-06
9.56322e-06
9.56322e-06
9.5633e-06
9.56346e-06
9.56364e-06
9.56378e-06
9.56385e-06
9.56386e-06
9.56387e-06
9.5639e-06
9.56393e-06
9.56398e-06
9.56408e-06
9.56427e-06
9.56447e-06
9.5646e-06
9.56462e-06
9.56455e-06
9.56443e-06
9.56434e-06
9.56434e-06
9.56442e-06
9.56455e-06
9.56468e-06
9.56475e-06
9.56472e-06
9.56459e-06
9.56443e-06
9.56426e-06
9.56416e-06
9.56417e-06
9.5643e-06
9.56449e-06
9.56465e-06
9.5647e-06
9.56469e-06
9.56471e-06
9.56474e-06
9.56477e-06
9.56485e-06
9.56496e-06
9.56504e-06
9.56504e-06
9.56501e-06
9.56499e-06
9.56506e-06
9.56521e-06
9.56533e-06
9.56541e-06
9.56547e-06
9.56548e-06
9.56547e-06
9.56554e-06
9.5656e-06
9.56554e-06
9.56551e-06
9.56537e-06
9.56535e-06
9.56578e-06
9.56619e-06
9.5664e-06
9.56642e-06
9.56652e-06
9.56668e-06
9.5668e-06
9.56717e-06
9.56719e-06
9.56721e-06
9.56696e-06
9.56688e-06
9.56698e-06
9.56697e-06
9.56735e-06
9.56711e-06
9.5665e-06
9.56664e-06
9.56675e-06
9.56727e-06
9.56712e-06
9.56717e-06
9.56761e-06
9.56779e-06
9.56791e-06
9.56753e-06
9.568e-06
9.56766e-06
9.56742e-06
9.56733e-06
9.56771e-06
9.56797e-06
9.56756e-06
9.56788e-06
9.56715e-06
8.48686e-06
8.77518e-06
4.20189e-06
3.78465e-06
9.56803e-06
9.5681e-06
9.56827e-06
9.56819e-06
9.56817e-06
9.56794e-06
9.56782e-06
9.56803e-06
9.56721e-06
9.56655e-06
9.56602e-06
9.56515e-06
9.56458e-06
9.56439e-06
9.56417e-06
9.56388e-06
9.56393e-06
9.56437e-06
9.56481e-06
9.56492e-06
9.56484e-06
9.56494e-06
9.56533e-06
9.5659e-06
9.56637e-06
9.56658e-06
9.5665e-06
9.56615e-06
9.56569e-06
9.56528e-06
9.56504e-06
9.56499e-06
9.56514e-06
9.56547e-06
9.56597e-06
9.56667e-06
9.56757e-06
9.56824e-06
9.56829e-06
9.56829e-06
9.5683e-06
9.5683e-06
9.56831e-06
9.56831e-06
9.56832e-06
9.56832e-06
9.56831e-06
9.5683e-06
9.56828e-06
9.56825e-06
9.56821e-06
9.56812e-06
9.56815e-06
9.56821e-06
9.56824e-06
9.56826e-06
9.56828e-06
9.56829e-06
9.56829e-06
9.56827e-06
9.56823e-06
9.56806e-06
9.56822e-06
9.56826e-06
9.56826e-06
9.56794e-06
9.56516e-06
9.56385e-06
9.56556e-06
9.56788e-06
9.56749e-06
9.5647e-06
9.56338e-06
9.56599e-06
9.56822e-06
9.56821e-06
9.56733e-06
9.56813e-06
9.5683e-06
9.56834e-06
9.56747e-06
9.56584e-06
9.56639e-06
9.56428e-06
9.56557e-06
9.56279e-06
5.48858e-09
1.02474e-08
2.91495e-08
1.76106e-08
2.27928e-08
2.27734e-08
2.35276e-08
2.47795e-08
2.64092e-08
2.81127e-08
2.97889e-08
3.19067e-08
3.42904e-08
3.65406e-08
3.92182e-08
4.19623e-08
4.47886e-08
4.78445e-08
5.09598e-08
5.43525e-08
5.76402e-08
6.34177e-08
7.24484e-08
8.32267e-08
9.01994e-08
9.94778e-08
1.0823e-07
1.21852e-07
1.43847e-07
1.13889e-07
1.04969e-07
1.61318e-07
3.90224e-07
1.26834e-07
8.87111e-08
1.03716e-07
1.44568e-07
1.33141e-07
1.04804e-07
8.1367e-08
9.20888e-08
1.12349e-07
8.19704e-08
6.51609e-08
6.45006e-08
7.46224e-08
6.80878e-08
6.31006e-08
6.22261e-08
6.06858e-08
5.69061e-08
5.85545e-08
6.21367e-08
6.1209e-08
6.21575e-08
6.55911e-08
6.57141e-08
6.41519e-08
7.22091e-08
7.30845e-08
6.811e-08
6.61676e-08
7.42233e-08
7.47322e-08
7.41968e-08
7.09561e-08
7.19237e-08
7.48667e-08
8.11638e-08
9.48648e-08
9.7641e-08
7.5049e-08
5.9239e-08
5.03775e-08
4.56721e-08
4.59526e-08
4.34391e-08
4.41272e-08
3.90301e-08
2.51048e-08
2.20407e-08
1.74686e-08
1.78452e-08
1.66224e-08
2.02099e-08
1.45808e-08
1.00445e-08
7.9164e-09
7.88988e-09
1.3302e-08
1.85804e-08
2.50212e-08
3.54107e-08
4.99959e-08
5.80319e-08
1.62477e-07
3.1879e-07
1.32437e-07
9.97921e-08
1.09361e-07
1.00534e-07
8.4434e-08
9.71583e-08
8.07146e-08
1.00724e-07
8.49916e-08
6.56816e-08
4.7561e-08
3.24528e-08
3.54962e-08
7.4424e-08
7.01963e-08
1.01203e-07
1.02845e-07
1.43267e-07
1.37393e-07
2.26578e-07
2.65552e-07
2.09728e-07
1.33419e-07
1.60009e-07
1.2162e-07
1.43219e-07
9.16173e-08
8.59795e-08
4.05634e-08
4.34451e-08
9.96999e-08
9.5699e-08
1.68775e-07
1.7059e-07
3.53268e-07
3.85866e-07
1.51173e-06
1.41336e-06
1.44703e-06
9.6701e-07
8.70951e-07
1.12566e-06
9.99596e-07
8.25656e-07
7.25387e-07
6.53637e-07
6.16439e-07
5.70031e-07
5.3055e-07
4.93756e-07
4.59765e-07
4.33531e-07
4.11091e-07
3.91761e-07
3.75244e-07
3.59487e-07
3.44857e-07
3.31876e-07
3.20407e-07
3.10779e-07
3.02287e-07
2.94538e-07
2.87336e-07
2.80897e-07
2.75002e-07
2.69593e-07
2.64732e-07
2.6016e-07
2.55978e-07
2.52373e-07
2.49047e-07
2.45685e-07
2.42552e-07
2.39926e-07
2.37706e-07
2.35628e-07
2.33712e-07
2.3207e-07
2.30631e-07
2.29394e-07
2.28358e-07
2.27501e-07
2.26802e-07
2.26213e-07
2.2574e-07
2.25384e-07
2.25206e-07
2.25241e-07
2.25541e-07
2.26111e-07
2.26831e-07
2.27647e-07
2.2853e-07
2.29449e-07
2.3043e-07
2.31544e-07
2.32881e-07
2.34397e-07
2.36004e-07
2.37684e-07
2.39597e-07
2.41757e-07
2.44112e-07
2.46701e-07
2.49496e-07
2.52361e-07
2.55204e-07
2.58035e-07
2.60962e-07
2.64076e-07
2.67476e-07
2.71257e-07
2.75443e-07
2.79843e-07
2.84276e-07
2.88683e-07
2.93199e-07
2.97822e-07
3.02573e-07
3.07465e-07
3.12608e-07
3.17978e-07
3.23488e-07
3.29091e-07
3.34877e-07
3.40908e-07
3.47194e-07
3.53817e-07
3.60882e-07
3.68311e-07
3.75969e-07
3.83576e-07
3.91055e-07
3.98506e-07
4.06124e-07
4.14106e-07
4.22564e-07
4.31451e-07
4.40467e-07
4.49444e-07
4.58384e-07
4.67454e-07
4.771e-07
4.87681e-07
4.99216e-07
5.11323e-07
5.23493e-07
5.35425e-07
5.47075e-07
5.58677e-07
5.70439e-07
5.82419e-07
5.94727e-07
6.07664e-07
6.21493e-07
6.3616e-07
6.51473e-07
6.67568e-07
6.84883e-07
7.03525e-07
7.22769e-07
7.41665e-07
7.60039e-07
7.78455e-07
7.97185e-07
8.15827e-07
8.34219e-07
8.53065e-07
8.73251e-07
8.95128e-07
9.18698e-07
9.43876e-07
9.70315e-07
9.97488e-07
1.02516e-06
1.05345e-06
1.08243e-06
1.1119e-06
1.14168e-06
1.17176e-06
1.20208e-06
1.23264e-06
1.26382e-06
1.29654e-06
1.33183e-06
1.37035e-06
1.41219e-06
1.45724e-06
1.50536e-06
1.55634e-06
1.60967e-06
1.66451e-06
1.71979e-06
1.77443e-06
1.82769e-06
1.87945e-06
1.93024e-06
1.98103e-06
2.03281e-06
2.08618e-06
2.14147e-06
2.19899e-06
2.25946e-06
2.32404e-06
2.39392e-06
2.46997e-06
2.5526e-06
2.64178e-06
2.73715e-06
2.83789e-06
2.94272e-06
3.05007e-06
3.15839e-06
3.2665e-06
3.37379e-06
3.48021e-06
3.58633e-06
3.69368e-06
3.80567e-06
3.92787e-06
4.06672e-06
4.22598e-06
4.40361e-06
4.5924e-06
4.78664e-06
4.99006e-06
5.21342e-06
5.45852e-06
5.70431e-06
5.9204e-06
6.10443e-06
6.29532e-06
6.53352e-06
6.81492e-06
7.10797e-06
7.42609e-06
7.84872e-06
8.4313e-06
9.1029e-06
9.7075e-06
9.99597e-06
9.99597e-06
9.99596e-06
9.99596e-06
9.99595e-06
9.99594e-06
9.99594e-06
9.99594e-06
9.99594e-06
9.99594e-06
9.99594e-06
9.99594e-06
9.99594e-06
9.99594e-06
9.99594e-06
9.99594e-06
9.99593e-06
9.99593e-06
9.99592e-06
9.99592e-06
9.99592e-06
9.99592e-06
9.99593e-06
9.99593e-06
9.99593e-06
9.99593e-06
9.99593e-06
9.99592e-06
9.99592e-06
9.99591e-06
9.99591e-06
9.99591e-06
9.99591e-06
9.99592e-06
9.99592e-06
9.99592e-06
9.99592e-06
9.99592e-06
9.99592e-06
9.99592e-06
9.99592e-06
9.99592e-06
9.99592e-06
9.99592e-06
9.99593e-06
9.99593e-06
9.99592e-06
9.99592e-06
9.99592e-06
9.99592e-06
9.99592e-06
9.99592e-06
9.99592e-06
9.99593e-06
9.99593e-06
9.99592e-06
9.99592e-06
9.99592e-06
9.99591e-06
9.99591e-06
9.99591e-06
9.99592e-06
9.99592e-06
9.99592e-06
9.99592e-06
9.99592e-06
9.99592e-06
9.99592e-06
9.99592e-06
9.99592e-06
9.99592e-06
9.99592e-06
9.99592e-06
9.99592e-06
9.99591e-06
9.99592e-06
9.99592e-06
9.99592e-06
9.99592e-06
9.99592e-06
9.99592e-06
9.99591e-06
9.99592e-06
9.99591e-06
9.99591e-06
9.99591e-06
9.99591e-06
9.99591e-06
9.99592e-06
9.99592e-06
9.99593e-06
9.99592e-06
9.99592e-06
9.99593e-06
9.99593e-06
9.99593e-06
9.99593e-06
9.99593e-06
9.99593e-06
9.99593e-06
9.99593e-06
9.99593e-06
9.99593e-06
9.99593e-06
9.99592e-06
9.99592e-06
9.99592e-06
9.99593e-06
9.99593e-06
9.99593e-06
9.99593e-06
9.99593e-06
9.99593e-06
9.99593e-06
9.99594e-06
9.99594e-06
9.99593e-06
9.99593e-06
9.99595e-06
9.99594e-06
8.22655e-06
8.5232e-06
3.72723e-06
3.52542e-06
8.91946e-06
9.99629e-06
9.99636e-06
9.996e-06
9.99598e-06
9.99596e-06
9.99595e-06
9.99595e-06
9.99595e-06
9.99595e-06
9.99595e-06
9.99594e-06
9.99593e-06
9.99591e-06
9.9959e-06
9.99589e-06
9.99589e-06
9.99589e-06
9.99589e-06
9.99589e-06
9.9959e-06
9.99591e-06
9.99591e-06
9.9959e-06
9.9959e-06
9.99591e-06
9.99592e-06
9.99593e-06
9.99594e-06
9.99594e-06
9.99594e-06
9.99593e-06
9.99591e-06
9.99591e-06
9.9959e-06
9.99591e-06
9.99591e-06
9.99592e-06
9.99593e-06
9.99594e-06
9.99595e-06
9.99595e-06
9.99595e-06
9.99595e-06
9.99595e-06
9.99595e-06
9.99595e-06
9.99595e-06
9.99596e-06
9.99596e-06
9.99596e-06
9.99596e-06
9.99595e-06
9.99595e-06
9.99595e-06
9.99595e-06
9.99595e-06
9.99595e-06
9.99595e-06
9.99595e-06
9.99596e-06
9.99596e-06
9.99597e-06
9.99596e-06
9.99595e-06
9.99595e-06
9.99595e-06
9.99596e-06
9.99594e-06
9.99591e-06
9.99591e-06
9.99593e-06
9.99595e-06
9.99593e-06
9.99592e-06
9.99593e-06
9.99594e-06
9.99599e-06
9.99594e-06
9.99595e-06
9.99601e-06
9.99603e-06
9.99595e-06
9.99594e-06
9.99593e-06
9.99592e-06
9.99594e-06
8.09807e-06
9.99599e-06
5.55852e-09
9.63476e-09
2.49701e-08
1.56802e-08
2.22086e-08
2.22358e-08
2.36354e-08
2.52194e-08
2.71328e-08
2.87925e-08
3.01981e-08
3.21828e-08
3.45722e-08
3.69177e-08
3.90459e-08
4.09603e-08
4.29464e-08
4.51252e-08
4.76618e-08
5.07713e-08
5.4716e-08
5.89002e-08
6.38279e-08
7.04332e-08
7.82693e-08
8.70415e-08
9.39945e-08
1.00686e-07
1.06694e-07
1.01449e-07
9.89156e-08
1.19404e-07
1.8094e-07
1.5165e-07
1.03511e-07
9.9055e-08
1.04095e-07
1.0255e-07
8.91267e-08
7.60072e-08
7.65963e-08
7.83858e-08
7.14861e-08
6.35508e-08
6.22384e-08
6.76639e-08
6.7369e-08
6.535e-08
6.2846e-08
6.08769e-08
5.95152e-08
6.01932e-08
5.81058e-08
5.69375e-08
6.13416e-08
6.00373e-08
5.87734e-08
6.84355e-08
7.63858e-08
7.38362e-08
6.90408e-08
7.39718e-08
7.77515e-08
7.4104e-08
7.08306e-08
7.12336e-08
7.1687e-08
6.74341e-08
6.52704e-08
6.78866e-08
7.32172e-08
6.89067e-08
5.66093e-08
4.63764e-08
4.12673e-08
4.4229e-08
4.40197e-08
4.06961e-08
4.323e-08
4.06936e-08
4.54843e-08
4.62506e-08
3.02931e-08
2.72566e-08
2.62697e-08
2.29366e-08
1.54788e-08
1.30756e-08
1.43283e-08
1.09749e-08
7.42558e-09
7.56968e-09
1.23378e-08
1.67085e-08
2.33799e-08
3.32851e-08
4.8947e-08
5.53599e-08
1.44333e-07
2.75618e-07
1.53971e-07
1.2863e-07
1.45889e-07
1.19281e-07
1.05544e-07
1.4015e-07
1.57323e-07
8.04551e-08
9.58449e-08
6.66267e-08
6.06806e-08
3.27142e-08
3.58886e-08
7.38204e-08
7.18234e-08
1.00623e-07
1.01201e-07
1.44945e-07
1.59527e-07
3.26509e-07
4.06192e-07
2.79589e-07
1.66679e-07
1.99773e-07
1.272e-07
1.43024e-07
8.74638e-08
8.14687e-08
4.00079e-08
4.2657e-08
9.31063e-08
8.97914e-08
1.58706e-07
1.55631e-07
6.49167e-07
4.94243e-07
5.6724e-07
1.33888e-06
1.03312e-06
7.02145e-07
6.06858e-07
6.69577e-07
6.42754e-07
5.67411e-07
5.26554e-07
4.93543e-07
4.59592e-07
4.3799e-07
4.17078e-07
3.94924e-07
3.77701e-07
3.62711e-07
3.48535e-07
3.36246e-07
3.25323e-07
3.15123e-07
3.05885e-07
2.97842e-07
2.90777e-07
2.84209e-07
2.77838e-07
2.72059e-07
2.67189e-07
2.62728e-07
2.5823e-07
2.54108e-07
2.50837e-07
2.47749e-07
2.44191e-07
2.40875e-07
2.38425e-07
2.36358e-07
2.34269e-07
2.32373e-07
2.30872e-07
2.29542e-07
2.28231e-07
2.27117e-07
2.26322e-07
2.25777e-07
2.25333e-07
2.25064e-07
2.2499e-07
2.24969e-07
2.25007e-07
2.25232e-07
2.2567e-07
2.26262e-07
2.26927e-07
2.27725e-07
2.28718e-07
2.29868e-07
2.31151e-07
2.32641e-07
2.34292e-07
2.35993e-07
2.37633e-07
2.39328e-07
2.4123e-07
2.43391e-07
2.45861e-07
2.48725e-07
2.51842e-07
2.55027e-07
2.58153e-07
2.61198e-07
2.64169e-07
2.67276e-07
2.7071e-07
2.74666e-07
2.79131e-07
2.83909e-07
2.88698e-07
2.93519e-07
2.98409e-07
3.0326e-07
3.08031e-07
3.12892e-07
3.18027e-07
3.23476e-07
3.29155e-07
3.35118e-07
3.4137e-07
3.47776e-07
3.54344e-07
3.61157e-07
3.68337e-07
3.75964e-07
3.83765e-07
3.91578e-07
3.9932e-07
4.07012e-07
4.14877e-07
4.23166e-07
4.31968e-07
4.41072e-07
4.50185e-07
4.59193e-07
4.68131e-07
4.77386e-07
4.87404e-07
4.98342e-07
5.10011e-07
5.21933e-07
5.3368e-07
5.45219e-07
5.56942e-07
5.69201e-07