/*--------------------------------*- C++ -*----------------------------------*\
| =========                 |                                                 |
| \\      /  F ield         | OpenFOAM: The Open Source CFD Toolbox           |
|  \\    /   O peration     | Version:  v2006                                 |
|   \\  /    A nd           | Website:  www.openfoam.com                      |
|    \\/     M anipulation  |                                                 |
\*---------------------------------------------------------------------------*/
FoamFile
{
    version     2.0;
    format      ascii;
    class       volScalarField;
    location    "1.5";
    object      omega;
}
// * * * * * * * * * * * * * * * * * * * * * * * * * * * * * * * * * * * * * //

dimensions      [0 0 -1 0 0 0 0];


internalField   nonuniform List<scalar> 
33000
(
0.802806
0.802601
0.802658
0.802643
0.80263
0.802627
0.802622
0.802617
0.802614
0.802613
0.802613
0.802615
0.802617
0.802621
0.802622
0.802623
0.802622
0.802623
0.802625
0.802629
0.802634
0.80264
0.802646
0.802652
0.802659
0.802667
0.802675
0.802682
0.80269
0.802697
0.802704
0.802712
0.802717
0.802721
0.802728
0.802736
0.802741
0.802743
0.802746
0.802748
0.802751
0.80275
0.802747
0.802739
0.802731
0.802722
0.80271
0.802697
0.802684
0.802671
0.802657
0.802643
0.80263
0.802617
0.802605
0.802593
0.802581
0.802569
0.802557
0.802544
0.80253
0.802517
0.802503
0.80249
0.802476
0.802461
0.802446
0.802431
0.802415
0.802399
0.80238
0.802359
0.802333
0.802301
0.802262
0.802215
0.802155
0.802084
0.802003
0.802028
0.802004
0.802012
0.802006
0.801999
0.801997
0.801989
0.801979
0.801971
0.801965
0.801959
0.801952
0.801945
0.801938
0.801932
0.801925
0.801916
0.801908
0.801898
0.801889
0.801879
0.801875
0.801868
0.801861
0.801854
0.801847
0.80184
0.801832
0.801825
0.801817
0.80181
0.801803
0.801795
0.801787
0.80178
0.801771
0.801763
0.801754
0.801742
0.801738
0.80173
0.801724
0.801717
0.80171
0.801704
0.801697
0.80169
0.801683
0.801676
0.801669
0.801662
0.801656
0.801649
0.801642
0.801636
0.801629
0.801622
0.801615
0.801609
0.801602
0.801596
0.801589
0.801583
0.801576
0.80157
0.801563
0.801557
0.801551
0.801544
0.801538
0.801532
0.801525
0.801519
0.801513
0.801506
0.8015
0.801494
0.801488
0.801482
0.801475
0.801469
0.801463
0.801457
0.801451
0.801445
0.801439
0.801433
0.801427
0.801421
0.801415
0.801409
0.801403
0.801397
0.801391
0.801385
0.801379
0.801374
0.801368
0.801362
0.801356
0.801351
0.801345
0.801339
0.801334
0.801329
0.801323
0.801318
0.801313
0.801308
0.801304
0.801299
0.801294
0.80129
0.801285
0.801281
0.801277
0.801272
0.801268
0.801264
0.80126
0.801257
0.801253
0.801249
0.801246
0.801242
0.801239
0.801236
0.801233
0.801229
0.801226
0.801224
0.801221
0.801218
0.801215
0.801212
0.80121
0.801207
0.801205
0.801203
0.8012
0.801198
0.801196
0.801194
0.801192
0.80119
0.801188
0.801186
0.801184
0.801182
0.801181
0.801179
0.801177
0.801176
0.801174
0.801173
0.801171
0.80117
0.801168
0.801167
0.801166
0.801164
0.801163
0.801162
0.801161
0.80116
0.801159
0.801158
0.801156
0.801155
0.801154
0.801153
0.801153
0.801152
0.801151
0.80115
0.801149
0.801148
0.801147
0.801147
0.801146
0.801145
0.801144
0.801144
0.801143
0.801142
0.801142
0.801141
0.80114
0.80114
0.801139
0.801138
0.801138
0.801137
0.801137
0.801136
0.801136
0.801135
0.801135
0.801134
0.801134
0.801134
0.801133
0.801133
0.801132
0.801132
0.801131
0.801131
0.801131
0.80113
0.80113
0.80113
0.801129
0.801129
0.801129
0.801129
0.801128
0.801128
0.801128
0.801127
0.801127
0.801127
0.801127
0.801127
0.801126
0.801126
0.801126
0.801126
0.801125
0.801125
0.801125
0.801125
0.801125
0.801125
0.801124
0.801124
0.801124
0.801124
0.801124
0.801124
0.801124
0.801124
0.801123
0.801123
0.801123
0.801123
0.801123
0.801123
0.801123
0.801123
0.801123
0.801123
0.801123
0.801123
0.801122
0.801122
0.801122
0.801122
0.801122
0.801122
0.801122
0.801122
0.801122
0.801122
0.801122
0.801122
0.801122
0.801122
0.801121
0.801121
0.801121
0.801121
0.801121
0.801121
0.801121
0.801121
0.801121
0.801121
0.801121
0.80112
0.80112
0.80112
0.80112
0.80112
0.80112
0.80112
0.80112
0.80112
0.80112
0.80112
0.801119
0.801119
0.801119
0.801119
0.801119
0.801119
0.801119
0.801119
0.801119
0.801119
0.801119
0.801118
0.801118
0.801118
0.801118
0.801118
0.801118
0.801118
0.801118
0.801118
0.801118
0.801118
0.801118
0.801118
0.801117
0.801117
0.801117
0.801117
0.801117
0.801117
0.801117
0.801117
0.801117
0.801117
0.801117
0.801117
0.801117
0.801117
0.801116
0.801116
0.801116
0.801116
0.801116
0.801116
0.801116
0.801116
0.801116
0.801116
0.801116
0.801116
0.801116
0.801116
0.801116
0.801116
0.801116
0.801115
0.801115
0.801115
0.801115
0.801115
0.801115
0.801115
0.801115
0.801115
0.801115
0.801115
0.801115
0.801115
0.801115
0.801115
0.801115
0.801115
0.801115
0.801115
0.801115
0.801115
0.801115
0.801115
0.801115
0.801115
0.801115
0.801115
0.801115
0.801115
0.801115
0.801115
0.801115
0.801115
0.801115
0.801115
0.801115
0.801115
0.801115
0.801115
0.801115
0.801115
0.801115
0.801115
0.801115
0.801115
0.801115
0.801115
0.801115
0.801115
0.801115
0.801115
0.801115
0.801115
0.801115
0.801115
0.801115
0.801115
0.801115
0.801115
0.801115
0.801114
0.801114
0.801114
0.801114
0.801114
0.801114
0.801114
0.801114
0.801114
0.801114
0.801114
0.801114
0.801114
0.801114
0.801114
0.801114
0.801114
0.801114
0.801114
0.801114
0.801114
0.801114
0.801114
0.801114
0.801114
0.801114
0.801114
0.801114
0.801114
0.801114
0.801114
0.801114
0.801114
0.801114
0.801114
0.801114
0.801114
0.801114
0.801114
0.801115
0.801115
0.801115
0.801115
0.801115
0.801115
0.801115
0.801115
0.801115
0.801115
0.801115
0.801114
0.801114
0.801114
0.801114
0.801114
0.801114
0.801114
0.801114
0.801114
0.801114
0.801114
0.801115
0.801114
0.801114
0.801114
0.801114
0.801115
0.0105734
0.0152052
0.0140163
0.0130677
0.0139407
0.014683
0.0146235
0.0145349
0.0145352
0.014486
0.0145892
0.014848
0.0152253
0.016178
0.016285
0.0163218
0.0164781
0.0166434
0.0168329
0.0172266
0.0179042
0.018114
0.0178532
0.0174506
0.0178257
0.0183132
0.0185712
0.0184783
0.0182421
0.0189283
0.0193977
0.0189793
0.0176504
0.0179401
0.0187609
0.0191607
0.0181363
0.0164879
0.0176847
0.0183035
0.0186381
0.0183181
0.0163422
0.0154378
0.0165137
0.0170511
0.0152998
0.0142582
0.0144613
0.0148156
0.0140355
0.0128502
0.0122634
0.0119696
0.0121526
0.0120565
0.0116658
0.0116139
0.0119784
0.0117578
0.0109813
0.0105517
0.0107115
0.0104638
0.00990077
0.00920638
0.00864066
0.00835418
0.00800594
0.00767711
0.00757689
0.00771539
0.00817795
0.00891951
0.010079
0.0116508
0.0128818
0.0123385
0.00983719
0.0077602
0.00811129
0.00999996
0.00965745
0.0116082
0.0119576
0.00669682
0.00624143
0.00690576
0.00730098
0.00712777
0.007154
0.00688152
0.00620042
0.006004
0.00572034
0.00561137
0.00560046
0.00560367
0.00561858
0.00558198
0.00555341
0.00604944
0.00673158
0.00610439
0.00667887
0.00654689
0.00589651
0.00585373
0.00591025
0.00591264
0.00581006
0.00571499
0.00561381
0.00561617
0.00562876
0.00564666
0.00572052
0.0056506
0.00554901
0.00558695
0.00608542
0.00577187
0.00620093
0.00616368
0.00579408
0.00590761
0.00589192
0.0058811
0.00587529
0.00581689
0.00578577
0.00581315
0.00579849
0.00578317
0.00577735
0.0057782
0.00578117
0.00578447
0.0057889
0.00579333
0.00579888
0.00580557
0.00581341
0.00582193
0.00583102
0.00583924
0.00584645
0.00585444
0.00586354
0.00587326
0.00588264
0.00589208
0.00590111
0.00590966
0.00591825
0.00592766
0.00593777
0.00594768
0.00595753
0.00596643
0.00597462
0.00598286
0.00599108
0.00599946
0.00600858
0.00601796
0.00602512
0.00603128
0.0060381
0.00604401
0.00604856
0.00605221
0.0060545
0.00605712
0.00605957
0.00606169
0.00606443
0.00606702
0.00606861
0.00607023
0.00607242
0.0060749
0.00607726
0.00608001
0.00608335
0.00608594
0.00608851
0.00609114
0.00609429
0.00609798
0.00610115
0.00610372
0.00610655
0.0061098
0.00611359
0.00611766
0.00612192
0.00612539
0.0061296
0.00613413
0.0061389
0.0061439
0.00614795
0.0061517
0.00615588
0.0061604
0.00616503
0.00616962
0.00617315
0.0061767
0.00618046
0.00618494
0.00619011
0.00619451
0.00619873
0.00620341
0.00620861
0.00621384
0.00621833
0.00622261
0.00622745
0.00623242
0.00623724
0.00624109
0.00624523
0.00624987
0.00625421
0.00625845
0.00626226
0.00626578
0.0062694
0.00627344
0.00627761
0.00628141
0.00628459
0.00628798
0.00629172
0.00629595
0.00629961
0.00630273
0.00630589
0.00630929
0.00631242
0.00631544
0.00631907
0.00632282
0.00632613
0.00632879
0.00633168
0.00633498
0.00633823
0.00634062
0.00634243
0.00634435
0.0063466
0.006349
0.00635088
0.00635179
0.00635226
0.00635337
0.0063554
0.00635732
0.00635925
0.00636128
0.00636334
0.00636485
0.00636604
0.00636721
0.00636843
0.00636897
0.00636905
0.00636929
0.00636992
0.00637039
0.006371
0.00637179
0.00637257
0.00637323
0.00637411
0.00637526
0.00637607
0.00637661
0.00637648
0.00637538
0.00637377
0.00637199
0.00637006
0.00636791
0.00636558
0.0063633
0.00636128
0.00635959
0.00635823
0.00635743
0.00635718
0.00635735
0.00635761
0.00635771
0.0063576
0.00635741
0.00635711
0.00635665
0.00635582
0.00635449
0.00635267
0.00635054
0.00634833
0.00634622
0.00634435
0.00634278
0.00634157
0.00634073
0.00634021
0.00633987
0.00633955
0.0063391
0.0063384
0.0063374
0.00633614
0.0063347
0.00633321
0.00633169
0.00633013
0.00632857
0.00632721
0.0063265
0.00632678
0.00632768
0.00632856
0.00632889
0.00632866
0.0063282
0.00632748
0.00632607
0.00632377
0.0063212
0.00631941
0.00631878
0.00631876
0.00631882
0.00631919
0.00632029
0.00632184
0.0063231
0.00632354
0.00632341
0.00632299
0.00632219
0.00632102
0.00631992
0.00631937
0.00631938
0.00631988
0.00632103
0.00632266
0.00632413
0.00632477
0.00632463
0.00632406
0.00632314
0.00632188
0.00632067
0.00632016
0.00632068
0.006322
0.00632349
0.0063248
0.00632569
0.00632592
0.00632528
0.00632387
0.00632221
0.00632092
0.00632031
0.0063202
0.00632023
0.00632024
0.00632031
0.0063202
0.00631935
0.00631759
0.00631552
0.00631406
0.00631367
0.00631434
0.00631567
0.00631693
0.00631745
0.00631704
0.00631595
0.00631462
0.00631365
0.00631358
0.00631452
0.00631614
0.00631793
0.00631927
0.00631953
0.00631838
0.00631636
0.0063146
0.00631391
0.00631406
0.00631429
0.00631451
0.00631458
0.00631376
0.00631232
0.00631136
0.00631138
0.00631207
0.00631267
0.00631238
0.0063112
0.00631004
0.00630919
0.00630848
0.00630843
0.00630848
0.00630791
0.00630711
0.00630809
0.00630932
0.00631071
0.00631097
0.00630777
0.00630679
0.00630496
0.0063018
0.00629848
0.00629663
0.0062973
0.00629426
0.00629417
0.00629454
0.00629703
0.00629826
0.00629708
0.00629728
0.00629363
0.00629585
0.00630152
0.00630086
0.00629995
0.00629632
0.00629783
0.00629667
0.00629211
0.00629005
0.00628828
0.00629143
0.00628888
0.00629247
0.00629364
0.00629736
0.00629362
0.00628915
0.00629528
0.00628904
0.00628806
0.00629279
0.00629373
0.00630843
0.0062982
0.00630102
0.00629875
0.00628721
0.00628789
0.00628805
0.00628899
0.00629071
0.00628861
0.00629327
0.00629719
0.00630059
0.00630689
0.0063142
0.00631901
0.00632167
0.00632361
0.00632276
0.00631817
0.0063129
0.00631064
0.00631161
0.00631226
0.00631025
0.00630625
0.00630254
0.0063005
0.00630072
0.00630305
0.00630659
0.0063101
0.00631279
0.00631415
0.00631406
0.00631251
0.00630911
0.00630361
0.00629574
0.00628814
0.00628744
0.00628736
0.00628731
0.00628726
0.00628724
0.00628723
0.00628723
0.00628724
0.00628728
0.00628735
0.00628746
0.00628764
0.00628825
0.00629007
0.00628965
0.00628796
0.00628766
0.00628753
0.00628741
0.00628735
0.00628739
0.00628756
0.00628794
0.00629175
0.0062878
0.00628753
0.00628749
0.00628787
0.00630931
0.0063299
0.00632087
0.0062926
0.00628852
0.00630945
0.00633279
0.00631944
0.00628789
0.00628767
0.00629017
0.00629203
0.00628743
0.00628741
0.00628792
0.00631014
0.00629949
0.00632697
0.00632513
0.00633425
0.00191373
0.00172652
0.00133702
0.00126334
0.00126943
0.0012829
0.00128071
0.00128001
0.00128216
0.00128399
0.0012912
0.0013026
0.00131675
0.00134245
0.00135004
0.0013568
0.00136432
0.00136985
0.00137966
0.0013935
0.00141004
0.00141807
0.00141718
0.00140976
0.00141832
0.00142944
0.00143621
0.00144387
0.00144031
0.00146403
0.0015052
0.00149972
0.00144493
0.00139866
0.00142007
0.00146628
0.0014492
0.00140887
0.00140843
0.00140428
0.00143554
0.00143105
0.00136796
0.0013346
0.0013528
0.00137534
0.00133195
0.00130613
0.00130475
0.00130675
0.001282
0.00125133
0.00123348
0.00122023
0.0012181
0.00121361
0.00120191
0.00119776
0.00120494
0.00119953
0.0011805
0.00116915
0.00117559
0.00117139
0.00116024
0.00114353
0.00113438
0.0011295
0.00112547
0.00112403
0.00112626
0.00113027
0.00114064
0.00115398
0.00117012
0.00118977
0.00121464
0.0012335
0.00125553
0.00128688
0.00133279
0.00141468
0.00156976
0.00180354
0.00171813
0.00144109
0.00134609
0.00127448
0.00117079
0.00111598
0.00106419
0.0010636
0.00104318
0.00104068
0.00104076
0.00103983
0.00103655
0.00103767
0.00103824
0.00103704
0.00104104
0.00104067
0.0010481
0.00105323
0.00107731
0.0010757
0.00105377
0.00105028
0.00104898
0.0010428
0.00103896
0.00103365
0.00103248
0.00103183
0.00103203
0.00103295
0.00103363
0.00103241
0.00103515
0.00103423
0.00103969
0.00104292
0.00106095
0.00106002
0.00104065
0.00104289
0.00103607
0.00103391
0.00103083
0.00103031
0.00103026
0.00103051
0.00103042
0.00103047
0.00103036
0.00103028
0.00103027
0.00103038
0.00103044
0.00103051
0.00103061
0.00103074
0.00103089
0.00103103
0.00103114
0.0010312
0.00103125
0.00103133
0.00103142
0.00103153
0.00103165
0.00103177
0.00103186
0.00103194
0.00103202
0.00103208
0.00103214
0.00103222
0.0010323
0.00103239
0.00103246
0.0010325
0.00103254
0.00103259
0.00103262
0.00103268
0.00103272
0.00103277
0.00103283
0.00103286
0.00103286
0.00103287
0.00103287
0.00103286
0.00103287
0.00103289
0.00103291
0.0010329
0.00103287
0.00103286
0.00103286
0.00103289
0.00103292
0.00103298
0.00103299
0.00103296
0.00103293
0.00103291
0.00103291
0.00103293
0.00103297
0.00103297
0.00103296
0.00103294
0.00103296
0.001033
0.00103305
0.00103305
0.00103303
0.00103303
0.00103305
0.00103307
0.0010331
0.00103316
0.00103324
0.00103325
0.00103326
0.00103329
0.00103332
0.00103334
0.00103338
0.00103339
0.00103344
0.00103351
0.0010336
0.00103369
0.00103379
0.00103384
0.00103387
0.00103392
0.001034
0.00103413
0.00103426
0.00103433
0.0010344
0.00103449
0.00103459
0.00103471
0.00103481
0.00103486
0.00103493
0.00103499
0.00103509
0.00103523
0.00103537
0.00103548
0.0010356
0.00103572
0.00103584
0.00103594
0.00103605
0.00103613
0.00103619
0.00103627
0.00103638
0.00103651
0.00103664
0.00103673
0.00103686
0.00103699
0.00103711
0.00103723
0.00103737
0.00103753
0.00103767
0.0010377
0.00103771
0.00103775
0.00103783
0.00103796
0.00103813
0.0010383
0.00103845
0.00103861
0.00103877
0.00103893
0.00103907
0.00103921
0.00103934
0.00103945
0.00103952
0.0010396
0.0010397
0.00103983
0.00103997
0.00104012
0.00104026
0.00104042
0.0010406
0.00104078
0.00104097
0.00104116
0.00104133
0.00104148
0.0010416
0.00104172
0.00104184
0.00104197
0.00104211
0.00104223
0.00104235
0.00104249
0.00104265
0.00104282
0.00104301
0.00104317
0.00104332
0.00104347
0.00104362
0.00104376
0.00104388
0.00104395
0.00104402
0.00104408
0.00104415
0.00104421
0.00104426
0.00104431
0.00104437
0.00104443
0.0010445
0.00104455
0.0010446
0.00104465
0.00104471
0.00104476
0.00104482
0.00104488
0.00104492
0.00104497
0.00104502
0.00104508
0.00104514
0.0010452
0.00104526
0.00104532
0.00104536
0.0010454
0.00104545
0.0010455
0.00104553
0.00104554
0.00104555
0.00104557
0.00104555
0.00104551
0.00104549
0.00104548
0.00104548
0.00104548
0.00104548
0.00104549
0.00104551
0.00104552
0.00104552
0.00104552
0.00104552
0.00104551
0.00104549
0.00104548
0.00104548
0.00104548
0.00104548
0.00104549
0.00104551
0.00104552
0.00104553
0.00104552
0.00104551
0.0010455
0.00104549
0.00104548
0.00104548
0.00104548
0.0010455
0.00104551
0.00104553
0.00104553
0.00104553
0.00104553
0.00104551
0.00104549
0.00104547
0.00104547
0.00104546
0.00104546
0.00104546
0.00104545
0.00104545
0.00104544
0.00104542
0.0010454
0.00104538
0.00104538
0.00104539
0.0010454
0.00104541
0.00104541
0.0010454
0.00104539
0.00104537
0.00104536
0.00104537
0.00104538
0.0010454
0.00104542
0.00104543
0.00104543
0.00104541
0.00104539
0.00104537
0.00104537
0.00104537
0.00104537
0.00104536
0.00104536
0.00104535
0.00104534
0.00104533
0.00104533
0.00104533
0.00104533
0.00104533
0.00104531
0.0010453
0.00104529
0.00104528
0.00104528
0.00104528
0.00104527
0.00104526
0.00104527
0.00104527
0.00104529
0.00104529
0.00104525
0.0010452
0.00104518
0.00104517
0.00104516
0.00104515
0.00104513
0.00104509
0.00104509
0.00104509
0.00104511
0.00104512
0.00104511
0.00104511
0.00104507
0.0010451
0.00104516
0.00104515
0.00104514
0.00104508
0.0010451
0.00104509
0.00104504
0.00104502
0.00104501
0.00104505
0.001045
0.00104504
0.00104506
0.00104507
0.00104503
0.001045
0.00104505
0.00104502
0.00104509
0.00104502
0.00104503
0.0010422
0.00104117
0.00104501
0.001045
0.00104498
0.00104499
0.00104499
0.00104501
0.00104502
0.001045
0.00104509
0.00104516
0.00104522
0.00104531
0.00104537
0.00104539
0.00104542
0.00104545
0.00104544
0.0010454
0.00104535
0.00104534
0.00104535
0.00104534
0.00104529
0.00104523
0.00104518
0.00104516
0.00104517
0.00104521
0.00104526
0.0010453
0.00104533
0.00104533
0.00104531
0.00104528
0.00104523
0.00104515
0.00104505
0.00104498
0.00104497
0.00104497
0.00104497
0.00104497
0.00104497
0.00104497
0.00104497
0.00104497
0.00104497
0.00104497
0.00104497
0.00104498
0.00104498
0.00104499
0.00104499
0.00104498
0.00104498
0.00104498
0.00104497
0.00104497
0.00104498
0.00104498
0.00104498
0.001045
0.00104498
0.00104498
0.00104498
0.00104502
0.00104531
0.00104546
0.00104527
0.00104502
0.00104507
0.00104537
0.00104551
0.00104523
0.00104499
0.001045
0.00104508
0.00104499
0.00104498
0.00104499
0.00104506
0.00104524
0.00104518
0.00104542
0.00104529
0.0010456
0.00192213
0.00157511
0.00117354
0.00111441
0.00109976
0.0011002
0.00109977
0.0011
0.00109974
0.00110009
0.00110082
0.00110128
0.00110167
0.00110208
0.0011025
0.0011028
0.0011033
0.00110409
0.00110488
0.0011054
0.0011055
0.00110564
0.00110625
0.00110707
0.00110755
0.00110776
0.00110774
0.00110748
0.001108
0.00110844
0.00110745
0.00110718
0.00111047
0.00111434
0.00111294
0.00110814
0.00110549
0.00110645
0.00110811
0.00110802
0.00110514
0.00110408
0.00110609
0.00110669
0.00110483
0.00110229
0.00110202
0.00110126
0.00109975
0.00109883
0.00109845
0.00109637
0.00109356
0.00109175
0.00109009
0.00108842
0.00108684
0.00108561
0.00108404
0.00108368
0.00108356
0.00108258
0.00108143
0.00108233
0.00108361
0.00108448
0.00108491
0.0010856
0.00108638
0.00108712
0.00108871
0.00109212
0.00109596
0.00109942
0.00110051
0.00109652
0.00109022
0.00108179
0.00108088
0.00110172
0.00113106
0.00118026
0.00123096
0.00127728
0.00133587
0.00145053
0.00162464
0.0017945
0.00168756
0.00136405
0.00126789
0.00111525
0.00108863
0.00103482
0.00103401
0.00102152
0.00102111
0.00102374
0.00102536
0.00102099
0.00102094
0.00102226
0.00102258
0.00102766
0.00102701
0.00103221
0.0010375
0.0010449
0.00105924
0.00105367
0.00103311
0.00103237
0.00102402
0.00102281
0.00101753
0.00101738
0.00101603
0.00101486
0.00101512
0.00101605
0.00101605
0.00102001
0.0010204
0.00102628
0.00102849
0.00104413
0.00104065
0.00102424
0.00102377
0.00101691
0.00101625
0.0010124
0.00101225
0.00101294
0.00101305
0.00101276
0.00101257
0.00101257
0.00101237
0.00101233
0.00101238
0.00101238
0.00101235
0.00101229
0.00101223
0.00101218
0.00101212
0.00101208
0.00101202
0.00101196
0.00101189
0.00101183
0.00101177
0.0010117
0.00101164
0.00101156
0.00101148
0.0010114
0.00101131
0.00101122
0.00101113
0.00101103
0.00101093
0.00101083
0.00101072
0.00101062
0.00101051
0.0010104
0.00101029
0.00101018
0.00101006
0.00100994
0.00100982
0.0010097
0.00100958
0.00100946
0.00100933
0.0010092
0.00100907
0.00100894
0.00100882
0.00100869
0.00100856
0.00100843
0.0010083
0.00100816
0.00100802
0.00100787
0.00100773
0.00100759
0.00100745
0.00100731
0.00100717
0.00100704
0.00100689
0.00100676
0.00100662
0.00100648
0.00100634
0.0010062
0.00100606
0.00100592
0.00100578
0.00100565
0.00100552
0.00100539
0.00100526
0.00100513
0.00100499
0.00100486
0.00100472
0.00100459
0.00100447
0.00100435
0.00100423
0.00100412
0.001004
0.00100389
0.00100378
0.00100367
0.00100357
0.00100347
0.00100337
0.00100327
0.00100317
0.00100307
0.00100297
0.00100288
0.00100279
0.00100271
0.00100262
0.00100254
0.00100246
0.00100239
0.00100231
0.00100224
0.00100218
0.00100212
0.00100205
0.00100199
0.00100192
0.00100185
0.00100179
0.00100173
0.00100167
0.00100162
0.00100157
0.00100152
0.00100147
0.00100143
0.00100139
0.00100134
0.0010013
0.00100125
0.00100121
0.00100117
0.00100112
0.00100108
0.00100104
0.001001
0.00100097
0.00100094
0.00100091
0.00100089
0.00100086
0.00100084
0.00100081
0.00100078
0.00100075
0.00100073
0.0010007
0.00100067
0.00100065
0.00100062
0.0010006
0.00100058
0.00100056
0.00100054
0.00100053
0.00100051
0.0010005
0.00100049
0.00100047
0.00100046
0.00100045
0.00100043
0.00100042
0.00100041
0.0010004
0.00100039
0.00100038
0.00100038
0.00100037
0.00100037
0.00100036
0.00100036
0.00100036
0.00100035
0.00100035
0.00100035
0.00100034
0.00100034
0.00100033
0.00100033
0.00100033
0.00100032
0.00100032
0.00100032
0.00100032
0.00100031
0.00100031
0.00100031
0.00100031
0.00100031
0.00100031
0.0010003
0.0010003
0.0010003
0.0010003
0.0010003
0.0010003
0.0010003
0.0010003
0.0010003
0.0010003
0.0010003
0.0010003
0.0010003
0.0010003
0.0010003
0.0010003
0.0010003
0.0010003
0.0010003
0.00100029
0.00100029
0.00100029
0.00100029
0.00100029
0.00100029
0.00100029
0.00100029
0.00100029
0.00100029
0.00100029
0.00100029
0.00100029
0.00100029
0.00100029
0.00100029
0.00100029
0.00100029
0.00100029
0.00100029
0.00100029
0.00100029
0.00100029
0.00100029
0.00100029
0.00100029
0.00100029
0.00100029
0.00100029
0.00100029
0.00100029
0.00100029
0.00100029
0.00100029
0.00100028
0.00100028
0.00100028
0.00100028
0.00100028
0.00100028
0.00100028
0.00100028
0.00100028
0.00100028
0.00100028
0.00100028
0.00100028
0.00100028
0.00100028
0.00100028
0.00100028
0.00100028
0.00100028
0.00100028
0.00100028
0.00100028
0.00100028
0.00100028
0.00100028
0.00100028
0.00100028
0.00100028
0.00100028
0.00100028
0.00100028
0.00100028
0.00100028
0.00100028
0.00100028
0.00100028
0.00100028
0.00100028
0.00100028
0.00100028
0.00100028
0.00100028
0.00100028
0.00100028
0.00100028
0.00100028
0.00100028
0.00100028
0.00100028
0.00100028
0.00100028
0.00100028
0.00100028
0.00100028
0.00100028
0.00100028
0.00100028
0.00100028
0.00100028
0.00100028
0.00100028
0.00100028
0.00100028
0.00100028
0.00100027
0.00100027
0.00100027
0.00100027
0.00100027
0.00100027
0.00100027
0.00100027
0.00100027
0.00100027
0.00100027
0.00100027
0.00100027
0.00100027
0.00100027
0.00100027
0.00100027
0.00100027
0.00100027
0.00100027
0.00100027
0.00100027
0.00100027
0.00100027
0.00100027
0.00100029
0.00100029
0.00100032
0.00100032
0.00100028
0.00100025
0.00100024
0.00100028
0.00100028
0.00100027
0.00100027
0.00100027
0.00100027
0.00100027
0.00100027
0.00100027
0.00100027
0.00100027
0.00100027
0.00100027
0.00100027
0.00100028
0.00100028
0.00100028
0.00100028
0.00100028
0.00100028
0.00100028
0.00100028
0.00100027
0.00100027
0.00100027
0.00100028
0.00100028
0.00100028
0.00100028
0.00100028
0.00100028
0.00100028
0.00100028
0.00100027
0.00100027
0.00100027
0.00100027
0.00100027
0.00100027
0.00100027
0.00100027
0.00100027
0.00100027
0.00100027
0.00100027
0.00100027
0.00100028
0.00100028
0.00100027
0.00100027
0.00100027
0.00100027
0.00100027
0.00100027
0.00100027
0.00100027
0.00100027
0.00100028
0.00100028
0.00100028
0.00100028
0.00100027
0.00100027
0.00100028
0.00100028
0.00100028
0.00100028
0.00100028
0.00100028
0.00100028
0.00100028
0.00100028
0.00100028
0.00100028
0.00100028
0.00100028
0.00100028
0.00100028
0.00100028
0.00100028
0.00100028
0.00100028
0.00100028
0.00100028
0.0010003
0.00100029
0.00199802
0.00159324
0.00117414
0.00111962
0.00110239
0.00110358
0.00110322
0.0011039
0.00110368
0.00110384
0.00110447
0.00110472
0.00110455
0.00110433
0.00110402
0.00110376
0.00110401
0.00110456
0.00110496
0.00110488
0.00110453
0.00110435
0.00110454
0.00110509
0.00110572
0.00110624
0.00110618
0.00110537
0.00110473
0.00110363
0.00110132
0.00110041
0.00110225
0.00110662
0.00110774
0.00110577
0.00110473
0.00110513
0.0011063
0.00110656
0.00110485
0.00110423
0.00110512
0.0011054
0.00110394
0.00110148
0.00110045
0.00109966
0.00109887
0.00109821
0.00109787
0.00109674
0.00109549
0.00109402
0.00109171
0.00109089
0.0010897
0.0010867
0.00108508
0.00108504
0.00108489
0.00108331
0.00108269
0.00108392
0.00108517
0.0010854
0.00108556
0.00108649
0.00108733
0.00108752
0.00108696
0.0010873
0.00108923
0.00109156
0.00109171
0.0010868
0.00108256
0.00107867
0.0010709
0.00106478
0.00105836
0.00105958
0.00107995
0.00110315
0.00112908
0.00118399
0.00126661
0.00133487
0.00141651
0.00156275
0.00179453
0.0016813
0.00137185
0.00127755
0.00111603
0.00108853
0.00103416
0.00103366
0.00102232
0.00102105
0.00102218
0.00102338
0.0010195
0.00101965
0.00102018
0.00102
0.00102351
0.00102937
0.00102903
0.00103618
0.00103931
0.00105679
0.00105139
0.0010321
0.00103097
0.00102283
0.00102157
0.00101639
0.00101578
0.00101482
0.0010141
0.00101438
0.00101496
0.00101525
0.00101946
0.00102009
0.00102622
0.00102825
0.00104285
0.00103967
0.00102432
0.00102385
0.00101701
0.00101684
0.00101342
0.00101166
0.0010115
0.0010125
0.00101256
0.00101246
0.00101254
0.0010124
0.00101233
0.00101233
0.00101227
0.00101221
0.00101217
0.0010121
0.00101203
0.00101198
0.00101191
0.00101183
0.00101176
0.00101169
0.00101161
0.00101153
0.00101145
0.00101137
0.00101127
0.00101118
0.0010111
0.001011
0.0010109
0.00101078
0.00101068
0.00101057
0.00101046
0.00101035
0.00101024
0.00101014
0.00101002
0.00100989
0.00100977
0.00100965
0.00100953
0.0010094
0.00100927
0.00100914
0.00100901
0.00100888
0.00100874
0.00100861
0.00100846
0.00100832
0.00100819
0.00100805
0.00100792
0.00100778
0.00100764
0.0010075
0.00100736
0.00100722
0.00100708
0.00100693
0.00100679
0.00100664
0.00100651
0.00100638
0.00100625
0.00100611
0.00100596
0.00100582
0.00100567
0.00100553
0.00100539
0.00100526
0.00100513
0.001005
0.00100488
0.00100475
0.00100461
0.00100447
0.00100433
0.0010042
0.00100408
0.00100396
0.00100385
0.00100374
0.00100363
0.00100352
0.00100342
0.00100331
0.00100321
0.0010031
0.001003
0.0010029
0.0010028
0.00100271
0.00100262
0.00100253
0.00100245
0.00100237
0.00100228
0.0010022
0.00100212
0.00100205
0.00100198
0.00100192
0.00100185
0.00100179
0.00100173
0.00100166
0.00100159
0.00100153
0.00100147
0.00100141
0.00100136
0.00100131
0.00100126
0.00100121
0.00100116
0.00100111
0.00100106
0.00100102
0.00100098
0.00100093
0.00100089
0.00100085
0.00100081
0.00100077
0.00100073
0.0010007
0.00100066
0.00100063
0.0010006
0.00100057
0.00100054
0.00100051
0.00100048
0.00100046
0.00100043
0.0010004
0.00100037
0.00100035
0.00100032
0.0010003
0.00100028
0.00100026
0.00100024
0.00100022
0.0010002
0.00100019
0.00100017
0.00100015
0.00100014
0.00100012
0.00100011
0.00100009
0.00100008
0.00100007
0.00100006
0.00100005
0.00100004
0.00100003
0.00100003
0.00100002
0.00100001
0.00100001
0.001
0.000999995
0.000999989
0.000999984
0.000999979
0.000999974
0.000999969
0.000999965
0.00099996
0.000999956
0.000999953
0.000999949
0.000999946
0.000999943
0.00099994
0.000999937
0.000999934
0.000999932
0.00099993
0.000999928
0.000999926
0.000999924
0.000999922
0.000999921
0.000999919
0.000999918
0.000999917
0.000999915
0.000999914
0.000999913
0.000999911
0.00099991
0.000999909
0.000999908
0.000999908
0.000999907
0.000999907
0.000999906
0.000999906
0.000999905
0.000999905
0.000999904
0.000999903
0.000999903
0.000999902
0.000999901
0.000999901
0.000999901
0.000999901
0.000999901
0.000999901
0.000999901
0.0009999
0.0009999
0.0009999
0.000999899
0.000999899
0.000999899
0.000999899
0.000999899
0.000999899
0.000999899
0.000999899
0.000999899
0.000999898
0.000999898
0.000999898
0.000999897
0.000999897
0.000999897
0.000999897
0.000999897
0.000999897
0.000999897
0.000999897
0.000999897
0.000999896
0.000999896
0.000999896
0.000999896
0.000999896
0.000999896
0.000999896
0.000999896
0.000999896
0.000999896
0.000999895
0.000999895
0.000999895
0.000999896
0.000999896
0.000999896
0.000999896
0.000999895
0.000999895
0.000999895
0.000999894
0.000999894
0.000999894
0.000999894
0.000999894
0.000999894
0.000999894
0.000999894
0.000999894
0.000999894
0.000999894
0.000999894
0.000999894
0.000999894
0.000999894
0.000999893
0.000999893
0.000999893
0.000999893
0.000999893
0.000999893
0.000999892
0.000999892
0.000999891
0.000999891
0.000999892
0.000999892
0.000999892
0.000999892
0.000999892
0.000999892
0.000999892
0.000999892
0.000999892
0.000999892
0.000999892
0.000999892
0.000999892
0.000999892
0.000999892
0.000999891
0.000999891
0.000999891
0.000999891
0.000999891
0.000999891
0.00099989
0.00099989
0.00099989
0.00099989
0.00099989
0.00099989
0.000999891
0.000999891
0.00099989
0.000999892
0.000999891
0.000999891
0.000999891
0.000999906
0.000999906
0.000999915
0.000999997
0.000999982
0.000999907
0.000999903
0.000999898
0.000999899
0.000999893
0.000999892
0.00099989
0.000999889
0.00099989
0.000999891
0.000999891
0.000999891
0.00099989
0.000999889
0.00099989
0.000999889
0.000999889
0.000999888
0.000999888
0.000999888
0.000999888
0.000999889
0.000999889
0.00099989
0.00099989
0.000999889
0.000999889
0.000999889
0.000999889
0.00099989
0.000999891
0.000999893
0.000999893
0.000999893
0.000999892
0.00099989
0.00099989
0.00099989
0.00099989
0.00099989
0.000999891
0.000999891
0.000999891
0.000999891
0.000999891
0.000999891
0.000999891
0.000999891
0.000999892
0.000999892
0.000999893
0.000999894
0.000999894
0.000999894
0.000999893
0.000999893
0.000999893
0.000999893
0.000999893
0.000999893
0.000999893
0.000999894
0.000999894
0.000999894
0.000999895
0.000999896
0.000999895
0.000999893
0.000999893
0.000999893
0.000999894
0.000999893
0.000999893
0.000999893
0.000999894
0.000999893
0.000999894
0.000999896
0.000999893
0.0009999
0.000999895
0.000999893
0.000999895
0.000999908
0.000999895
0.000999893
0.000999894
0.000999894
0.000999893
0.000999894
0.000999918
0.000999905
0.00209957
0.00162427
0.0011806
0.00113015
0.00111196
0.00111227
0.0011107
0.00111183
0.00111143
0.00111094