/*--------------------------------*- C++ -*----------------------------------*\
| =========                 |                                                 |
| \\      /  F ield         | OpenFOAM: The Open Source CFD Toolbox           |
|  \\    /   O peration     | Version:  v2006                                 |
|   \\  /    A nd           | Website:  www.openfoam.com                      |
|    \\/     M anipulation  |                                                 |
\*---------------------------------------------------------------------------*/
FoamFile
{
    version     2.0;
    format      ascii;
    class       volScalarField;
    location    "1.5";
    object      p_rgh;
}
// * * * * * * * * * * * * * * * * * * * * * * * * * * * * * * * * * * * * * //

dimensions      [1 -1 -2 0 0 0 0];


internalField   nonuniform List<scalar> 
33000
(
7725.88
7728.63
7731.08
7733.53
7735.91
7738.23
7740.49
7742.68
7744.81
7746.88
7748.88
7750.81
7752.67
7754.47
7756.2
7757.86
7759.46
7760.99
7762.45
7763.85
7765.18
7766.45
7767.65
7768.79
7769.87
7770.88
7771.83
7772.72
7773.54
7774.31
7775.02
7775.68
7776.27
7776.81
7777.3
7777.73
7778.12
7778.46
7778.75
7778.98
7779.18
7779.32
7779.44
7779.51
7779.53
7779.51
7779.47
7779.39
7779.27
7779.13
7778.95
7778.75
7778.51
7778.26
7777.97
7777.67
7777.34
7777
7776.63
7776.26
7775.87
7775.48
7775.07
7774.66
7774.24
7773.82
7773.4
7772.97
7772.54
7772.11
7771.69
7771.27
7770.86
7770.46
7770.08
7769.71
7769.37
7769.04
7768.65
7768
7767.63
7767.16
7766.69
7766.25
7765.78
7765.33
7764.9
7764.47
7764.04
7763.62
7763.22
7762.83
7762.44
7762.06
7761.69
7761.32
7760.95
7760.62
7760.2
7759.91
7759.73
7759.48
7759.28
7759.11
7758.95
7758.81
7758.71
7758.63
7758.57
7758.52
7758.5
7758.49
7758.5
7758.54
7758.56
7758.63
7758.6
7758.73
7759.01
7759.21
7759.45
7759.73
7760.01
7760.34
7760.71
7761.09
7761.5
7761.93
7762.38
7762.85
7763.35
7763.87
7764.4
7764.96
7765.53
7766.11
7766.72
7767.33
7767.97
7768.61
7769.27
7769.94
7770.63
7771.32
7772.02
7772.74
7773.46
7774.19
7774.93
7775.68
7776.43
7777.18
7777.95
7778.71
7779.48
7780.26
7781.03
7781.81
7782.59
7783.37
7784.15
7784.93
7785.71
7786.49
7787.27
7788.05
7788.82
7789.6
7790.37
7791.13
7791.9
7792.65
7793.41
7794.16
7794.91
7795.65
7796.39
7797.12
7797.85
7798.57
7799.29
7799.99
7800.7
7801.4
7802.09
7802.77
7803.45
7804.12
7804.78
7805.44
7806.09
7806.73
7807.36
7807.99
7808.61
7809.22
7809.83
7810.43
7811.01
7811.6
7812.17
7812.74
7813.3
7813.85
7814.39
7814.93
7815.45
7815.97
7816.49
7816.99
7817.49
7817.98
7818.46
7818.93
7819.4
7819.86
7820.31
7820.76
7821.19
7821.62
7822.05
7822.46
7822.87
7823.27
7823.67
7824.06
7824.44
7824.81
7825.18
7825.54
7825.9
7826.24
7826.59
7826.92
7827.25
7827.57
7827.89
7828.2
7828.5
7828.8
7829.1
7829.38
7829.66
7829.94
7830.21
7830.47
7830.73
7830.98
7831.23
7831.48
7831.71
7831.94
7832.17
7832.39
7832.61
7832.82
7833.03
7833.23
7833.43
7833.62
7833.81
7834
7834.18
7834.35
7834.53
7834.69
7834.86
7835.02
7835.17
7835.32
7835.47
7835.62
7835.76
7835.89
7836.03
7836.16
7836.28
7836.41
7836.53
7836.64
7836.76
7836.87
7836.97
7837.08
7837.18
7837.28
7837.37
7837.47
7837.56
7837.65
7837.73
7837.82
7837.9
7837.97
7838.05
7838.12
7838.2
7838.27
7838.33
7838.4
7838.46
7838.52
7838.58
7838.64
7838.7
7838.75
7838.81
7838.86
7838.91
7838.95
7839
7839.05
7839.09
7839.13
7839.17
7839.21
7839.25
7839.29
7839.32
7839.36
7839.39
7839.43
7839.46
7839.49
7839.52
7839.55
7839.57
7839.6
7839.63
7839.65
7839.67
7839.7
7839.72
7839.74
7839.76
7839.78
7839.8
7839.82
7839.84
7839.86
7839.87
7839.89
7839.9
7839.92
7839.93
7839.95
7839.96
7839.98
7839.99
7840
7840.01
7840.02
7840.03
7840.04
7840.05
7840.06
7840.07
7840.08
7840.09
7840.1
7840.11
7840.12
7840.12
7840.13
7840.14
7840.14
7840.15
7840.16
7840.16
7840.17
7840.17
7840.18
7840.18
7840.19
7840.19
7840.2
7840.2
7840.21
7840.21
7840.22
7840.22
7840.22
7840.23
7840.23
7840.23
7840.24
7840.24
7840.24
7840.24
7840.25
7840.25
7840.25
7840.25
7840.25
7840.26
7840.26
7840.26
7840.26
7840.26
7840.26
7840.26
7840.27
7840.27
7840.27
7840.27
7840.27
7840.27
7840.27
7840.27
7840.27
7840.27
7840.27
7840.27
7840.27
7840.27
7840.27
7840.27
7840.27
7840.27
7840.27
7840.27
7840.27
7840.27
7840.27
7840.27
7840.27
7840.27
7840.27
7840.27
7840.27
7840.27
7840.27
7840.27
7840.27
7840.27
7840.27
7840.27
7840.27
7840.27
7840.27
7840.27
7840.27
7840.26
7840.26
7840.26
7840.26
7840.26
7840.26
7840.26
7840.26
7840.26
7840.26
7840.26
7840.26
7840.25
7840.25
7840.25
7840.25
7840.25
7840.25
7840.25
7840.25
7840.25
7840.25
7840.25
7840.24
7840.24
7840.24
7840.24
7840.24
7840.24
7840.24
7840.24
7840.24
7840.24
7840.24
7840.24
7840.24
7840.24
7840.23
7840.23
7840.23
7840.23
7840.23
7840.23
7840.23
7840.23
7840.23
7840.23
7840.23
7840.23
7840.23
7840.23
7840.23
7840.22
7840.22
7840.22
7840.22
7840.22
7840.22
7840.22
7840.22
7840.22
7840.22
7840.22
7840.22
7840.22
7840.22
7840.22
7840.22
7840.22
7840.22
7840.22
7840.21
7840.21
7840.21
7840.21
7840.21
7840.21
7840.21
7840.21
7840.21
7840.21
7840.21
7840.21
7840.21
7840.21
7840.21
7840.21
7840.21
7840.21
7840.21
7840.21
7840.2
7840.2
7840.2
7840.2
7840.2
7840.2
7840.2
7840.2
7840.2
7840.2
7840.2
7840.2
7840.2
7840.2
7840.2
7840.2
7840.2
7726.38
7729.26
7731.68
7734.07
7736.39
7738.64
7740.85
7743
7745.1
7747.13
7749.11
7751.02
7752.87
7754.65
7756.37
7758.03
7759.62
7761.14
7762.6
7763.99
7765.3
7766.57
7767.78
7768.92
7769.97
7770.97
7771.92
7772.81
7773.65
7774.4
7775.11
7775.77
7776.38
7776.89
7777.37
7777.8
7778.21
7778.58
7778.8
7779.03
7779.22
7779.37
7779.52
7779.6
7779.59
7779.57
7779.55
7779.47
7779.34
7779.17
7779
7778.81
7778.57
7778.31
7778.01
7777.7
7777.37
7777.02
7776.64
7776.26
7775.89
7775.5
7775.07
7774.65
7774.23
7773.81
7773.39
7772.95
7772.52
7772.1
7771.66
7771.24
7770.82
7770.43
7770.01
7769.61
7769.23
7768.89
7768.49
7768.09
7767.7
7767.26
7766.58
7766.21
7765.79
7765.33
7764.91
7764.43
7763.99
7763.57
7763.18
7762.81
7762.43
7762.05
7761.66
7761.3
7760.97
7760.65
7760.29
7759.97
7759.72
7759.33
7759.12
7759.05
7758.92
7758.77
7758.66
7758.59
7758.49
7758.44
7758.43
7758.43
7758.46
7758.5
7758.56
7758.63
7758.71
7758.82
7758.98
7759.05
7759.27
7759.65
7759.95
7760.29
7760.65
7761.02
7761.43
7761.86
7762.32
7762.8
7763.31
7763.81
7764.35
7764.9
7765.48
7766.07
7766.67
7767.29
7767.92
7768.57
7769.23
7769.9
7770.58
7771.28
7771.98
7772.7
7773.42
7774.16
7774.9
7775.64
7776.39
7777.15
7777.92
7778.69
7779.46
7780.23
7781.01
7781.79
7782.57
7783.35
7784.14
7784.92
7785.7
7786.48
7787.26
7788.04
7788.81
7789.59
7790.36
7791.12
7791.89
7792.65
7793.41
7794.16
7794.91
7795.65
7796.39
7797.12
7797.85
7798.57
7799.29
7800
7800.7
7801.4
7802.09
7802.77
7803.45
7804.12
7804.79
7805.44
7806.09
7806.74
7807.37
7808
7808.62
7809.23
7809.84
7810.44
7811.02
7811.61
7812.18
7812.75
7813.31
7813.86
7814.4
7814.94
7815.46
7815.98
7816.5
7817
7817.5
7817.99
7818.47
7818.94
7819.41
7819.87
7820.32
7820.77
7821.21
7821.64
7822.06
7822.47
7822.88
7823.28
7823.68
7824.07
7824.45
7824.82
7825.19
7825.55
7825.91
7826.26
7826.6
7826.93
7827.26
7827.58
7827.9
7828.21
7828.52
7828.82
7829.11
7829.39
7829.68
7829.95
7830.22
7830.48
7830.74
7831
7831.24
7831.49
7831.72
7831.96
7832.18
7832.4
7832.62
7832.83
7833.04
7833.24
7833.44
7833.63
7833.82
7834.01
7834.19
7834.36
7834.54
7834.7
7834.87
7835.03
7835.18
7835.33
7835.48
7835.63
7835.77
7835.9
7836.04
7836.17
7836.29
7836.41
7836.53
7836.65
7836.76
7836.87
7836.98
7837.08
7837.19
7837.28
7837.38
7837.47
7837.56
7837.65
7837.74
7837.82
7837.9
7837.98
7838.06
7838.13
7838.2
7838.27
7838.34
7838.4
7838.47
7838.53
7838.59
7838.65
7838.7
7838.76
7838.81
7838.86
7838.91
7838.96
7839.01
7839.05
7839.09
7839.14
7839.18
7839.22
7839.26
7839.29
7839.33
7839.36
7839.4
7839.43
7839.46
7839.49
7839.52
7839.55
7839.58
7839.6
7839.63
7839.65
7839.68
7839.7
7839.72
7839.74
7839.76
7839.78
7839.8
7839.82
7839.84
7839.86
7839.87
7839.89
7839.91
7839.92
7839.94
7839.95
7839.96
7839.98
7839.99
7840
7840.01
7840.02
7840.04
7840.05
7840.06
7840.07
7840.07
7840.08
7840.09
7840.1
7840.11
7840.12
7840.12
7840.13
7840.14
7840.15
7840.15
7840.16
7840.16
7840.17
7840.18
7840.18
7840.19
7840.19
7840.2
7840.2
7840.2
7840.21
7840.21
7840.22
7840.22
7840.22
7840.23
7840.23
7840.23
7840.24
7840.24
7840.24
7840.24
7840.25
7840.25
7840.25
7840.25
7840.25
7840.26
7840.26
7840.26
7840.26
7840.26
7840.26
7840.26
7840.27
7840.27
7840.27
7840.27
7840.27
7840.27
7840.27
7840.27
7840.27
7840.27
7840.27
7840.27
7840.27
7840.27
7840.27
7840.27
7840.27
7840.27
7840.27
7840.27
7840.27
7840.27
7840.27
7840.27
7840.27
7840.27
7840.27
7840.27
7840.27
7840.27
7840.27
7840.27
7840.27
7840.27
7840.27
7840.27
7840.27
7840.27
7840.27
7840.27
7840.27
7840.26
7840.26
7840.26
7840.26
7840.26
7840.26
7840.26
7840.26
7840.26
7840.26
7840.26
7840.26
7840.25
7840.25
7840.25
7840.25
7840.25
7840.25
7840.25
7840.25
7840.25
7840.25
7840.25
7840.24
7840.24
7840.24
7840.24
7840.24
7840.24
7840.24
7840.24
7840.24
7840.24
7840.24
7840.24
7840.24
7840.23
7840.23
7840.23
7840.23
7840.23
7840.23
7840.23
7840.23
7840.23
7840.23
7840.23
7840.23
7840.23
7840.23
7840.23
7840.23
7840.22
7840.22
7840.22
7840.22
7840.22
7840.22
7840.22
7840.22
7840.22
7840.22
7840.22
7840.22
7840.22
7840.22
7840.22
7840.22
7840.22
7840.22
7840.22
7840.21
7840.21
7840.21
7840.21
7840.21
7840.21
7840.21
7840.21
7840.21
7840.21
7840.21
7840.21
7840.21
7840.21
7840.21
7840.21
7840.21
7840.21
7840.21
7840.21
7840.2
7840.2
7840.2
7840.2
7840.2
7840.2
7840.2
7840.2
7840.2
7840.2
7840.2
7840.2
7840.2
7840.2
7840.2
7840.2
7840.2
7725.75
7728.75
7731.35
7733.82
7736.25
7738.62
7740.91
7743.14
7745.3
7747.38
7749.4
7751.34
7753.21
7755.02
7756.76
7758.42
7760.02
7761.55
7763.01
7764.41
7765.73
7766.99
7768.19
7769.32
7770.39
7771.39
7772.32
7773.19
7774.02
7774.75
7775.39
7776.04
7776.68
7777.3
7777.76
7778.09
7778.44
7778.76
7779.1
7779.36
7779.47
7779.58
7779.71
7779.83
7779.86
7779.77
7779.7
7779.61
7779.49
7779.33
7779.15
7778.93
7778.69
7778.42
7778.14
7777.82
7777.49
7777.15
7776.74
7776.34
7775.99
7775.6
7775.12
7774.69
7774.26
7773.9
7773.48
7773.04
7772.6
7772.13
7771.67
7771.29
7770.88
7770.45
7770.03
7769.61
7769.18
7768.73
7768.32
7767.97
7767.56
7767.14
7766.72
7766.31
7765.89
7765.21
7764.85
7764.38
7764.06
7763.61
7763.22
7762.79
7762.4
7762.01
7761.67
7761.31
7760.96
7760.62
7760.3
7760.01
7759.75
7759.49
7759.24
7759.02
7758.73
7758.59
7758.59
7758.5
7758.46
7758.41
7758.39
7758.38
7758.4
7758.45
7758.51
7758.6
7758.71
7758.84
7759.01
7759.2
7759.4
7759.63
7759.78
7760.09
7760.57
7760.95
7761.37
7761.8
7762.24
7762.72
7763.23
7763.75
7764.29
7764.85
7765.42
7766.01
7766.61
7767.23
7767.87
7768.52
7769.18
7769.85
7770.54
7771.23
7771.94
7772.66
7773.39
7774.12
7774.86
7775.61
7776.37
7777.13
7777.9
7778.67
7779.44
7780.22
7781
7781.78
7782.56
7783.35
7784.13
7784.91
7785.7
7786.48
7787.26
7788.04
7788.82
7789.59
7790.36
7791.13
7791.9
7792.66
7793.42
7794.17
7794.92
7795.67
7796.41
7797.14
7797.87
7798.59
7799.31
7800.02
7800.72
7801.42
7802.12
7802.8
7803.48
7804.15
7804.82
7805.47
7806.12
7806.77
7807.4
7808.03
7808.65
7809.26
7809.87
7810.47
7811.06
7811.64
7812.21
7812.78
7813.34
7813.89
7814.43
7814.97
7815.5
7816.02
7816.53
7817.03
7817.53
7818.02
7818.5
7818.98
7819.44
7819.9
7820.36
7820.8
7821.24
7821.67
7822.09
7822.51
7822.91
7823.32
7823.71
7824.1
7824.48
7824.85
7825.22
7825.58
7825.94
7826.28
7826.62
7826.96
7827.29
7827.61
7827.93
7828.24
7828.54
7828.84
7829.13
7829.42
7829.7
7829.98
7830.25
7830.51
7830.77
7831.02
7831.27
7831.51
7831.75
7831.98
7832.21
7832.43
7832.64
7832.86
7833.06
7833.27
7833.46
7833.66
7833.85
7834.03
7834.21
7834.38
7834.56
7834.72
7834.89
7835.05
7835.2
7835.35
7835.5
7835.64
7835.78
7835.92
7836.05
7836.18
7836.31
7836.43
7836.55
7836.66
7836.78
7836.89
7836.99
7837.1
7837.2
7837.3
7837.39
7837.49
7837.58
7837.66
7837.75
7837.83
7837.91
7837.99
7838.07
7838.14
7838.21
7838.28
7838.35
7838.41
7838.48
7838.54
7838.6
7838.65
7838.71
7838.76
7838.82
7838.87
7838.92
7838.97
7839.01
7839.06
7839.1
7839.14
7839.18
7839.22
7839.26
7839.3
7839.33
7839.37
7839.4
7839.43
7839.47
7839.5
7839.52
7839.55
7839.58
7839.61
7839.63
7839.66
7839.68
7839.7
7839.73
7839.75
7839.77
7839.79
7839.81
7839.83
7839.84
7839.86
7839.88
7839.89
7839.91
7839.92
7839.94
7839.95
7839.97
7839.98
7839.99
7840
7840.02
7840.03
7840.04
7840.05
7840.06
7840.07
7840.08
7840.09
7840.09
7840.1
7840.11
7840.12
7840.13
7840.13
7840.14
7840.15
7840.15
7840.16
7840.17
7840.17
7840.18
7840.18
7840.19
7840.19
7840.2
7840.2
7840.2
7840.21
7840.21
7840.22
7840.22
7840.22
7840.23
7840.23
7840.23
7840.24
7840.24
7840.24
7840.24
7840.25
7840.25
7840.25
7840.25
7840.25
7840.26
7840.26
7840.26
7840.26
7840.26
7840.26
7840.27
7840.27
7840.27
7840.27
7840.27
7840.27
7840.27
7840.27
7840.27
7840.27
7840.27
7840.27
7840.27
7840.27
7840.27
7840.27
7840.27
7840.27
7840.27
7840.27
7840.27
7840.27
7840.27
7840.27
7840.27
7840.27
7840.27
7840.27
7840.27
7840.27
7840.27
7840.27
7840.27
7840.27
7840.27
7840.27
7840.27
7840.27
7840.27
7840.27
7840.27
7840.27
7840.26
7840.26
7840.26
7840.26
7840.26
7840.26
7840.26
7840.26
7840.26
7840.26
7840.26
7840.26
7840.25
7840.25
7840.25
7840.25
7840.25
7840.25
7840.25
7840.25
7840.25
7840.25
7840.25
7840.24
7840.24
7840.24
7840.24
7840.24
7840.24
7840.24
7840.24
7840.24
7840.24
7840.24
7840.24
7840.24
7840.23
7840.23
7840.23
7840.23
7840.23
7840.23
7840.23
7840.23
7840.23
7840.23
7840.23
7840.23
7840.23
7840.23
7840.23
7840.23
7840.22
7840.22
7840.22
7840.22
7840.22
7840.22
7840.22
7840.22
7840.22
7840.22
7840.22
7840.22
7840.22
7840.22
7840.22
7840.22
7840.22
7840.22
7840.22
7840.21
7840.21
7840.21
7840.21
7840.21
7840.21
7840.21
7840.21
7840.21
7840.21
7840.21
7840.21
7840.21
7840.21
7840.21
7840.21
7840.21
7840.21
7840.21
7840.21
7840.2
7840.2
7840.2
7840.2
7840.2
7840.2
7840.2
7840.2
7840.2
7840.2
7840.2
7840.2
7840.2
7840.2
7840.2
7840.2
7840.2
7726.87
7729.71
7732.16
7734.59
7736.98
7739.31
7741.58
7743.79
7745.93
7748
7750.01
7751.94
7753.81
7755.61
7757.35
7759.01
7760.61
7762.15
7763.61
7765
7766.33
7767.6
7768.8
7769.93
7771
7772
7772.93
7773.79
7774.6
7775.34
7776.01
7776.63
7777.21
7777.77
7778.27
7778.68
7779.04
7779.35
7779.61
7779.83
7779.99
7780.1
7780.18
7780.22
7780.2
7780.14
7780.06
7779.93
7779.77
7779.59
7779.38
7779.15
7778.93
7778.67
7778.33
7778.03
7777.7
7777.24
7776.86
7776.49
7776.14
7775.63
7775.19
7774.77
7774.36
7773.87
7773.42
7773.02
7772.62
7772.19
7771.72
7771.23
7770.8
7770.4
7769.97
7769.53
7769.02
7768.58
7768.16
7767.8
7767.29
7766.81
7766.48
7766.11
7765.67
7765.23
7764.77
7764.39
7763.93
7763.41
7763.09
7762.7
7762.31
7761.95
7761.55
7761.17
7760.84
7760.52
7760.23
7759.95
7759.67
7759.38
7759.15
7759.01
7758.83
7758.65
7758.46
7758.38
7758.2
7758.11
7758.2
7758.24
7758.29
7758.35
7758.37
7758.48
7758.63
7758.77
7758.93
7759.1
7759.35
7759.62
7759.87
7760.17
7760.48
7760.71
7761.09
7761.65
7762.12
7762.61
7763.1
7763.6
7764.15
7764.73
7765.31
7765.89
7766.5
7767.13
7767.77
7768.42
7769.08
7769.76
7770.45
7771.14
7771.86
7772.58
7773.31
7774.05
7774.79
7775.55
7776.31
7777.08
7777.84
7778.62
7779.4
7780.18
7780.96
7781.75
7782.53
7783.32
7784.11
7784.89
7785.68
7786.47
7787.25
7788.03
7788.81
7789.59
7790.37
7791.14
7791.91
7792.67
7793.43
7794.19
7794.94
7795.69
7796.43
7797.16
7797.89
7798.62
7799.34
7800.05
7800.76
7801.46
7802.15
7802.84
7803.52
7804.19
7804.86
7805.52
7806.17
7806.81
7807.45
7808.08
7808.7
7809.31
7809.92
7810.52
7811.11
7811.69
7812.26
7812.83
7813.39
7813.94
7814.49
7815.02
7815.55
7816.07
7816.58
7817.08
7817.58
7818.07
7818.55
7819.03
7819.5
7819.95
7820.41
7820.85
7821.29
7821.72
7822.14
7822.56
7822.96
7823.37
7823.76
7824.15
7824.53
7824.9
7825.27
7825.63
7825.98
7826.33
7826.67
7827.01
7827.33
7827.66
7827.97
7828.28
7828.59
7828.89
7829.18
7829.46
7829.74
7830.02
7830.29
7830.55
7830.81
7831.06
7831.31
7831.55
7831.79
7832.02
7832.24
7832.46
7832.68
7832.89
7833.1
7833.3
7833.5
7833.69
7833.88
7834.06
7834.24
7834.42
7834.59
7834.75
7834.92
7835.07
7835.23
7835.38
7835.53
7835.67
7835.81
7835.94
7836.08
7836.2
7836.33
7836.45
7836.57
7836.69
7836.8
7836.91
7837.01
7837.12
7837.22
7837.32
7837.41
7837.5
7837.59
7837.68
7837.77
7837.85
7837.93
7838.01
7838.08
7838.15
7838.23
7838.29
7838.36
7838.43
7838.49
7838.55
7838.61
7838.67
7838.72
7838.78
7838.83
7838.88
7838.93
7838.98
7839.02
7839.07
7839.11
7839.15
7839.19
7839.23
7839.27
7839.31
7839.34
7839.38
7839.41
7839.44
7839.47
7839.5
7839.53
7839.56
7839.59
7839.61
7839.64
7839.66
7839.69
7839.71
7839.73
7839.75
7839.77
7839.79
7839.81
7839.83
7839.85
7839.87
7839.88
7839.9
7839.91
7839.93
7839.94
7839.96
7839.97
7839.98
7839.99
7840.01
7840.02
7840.03
7840.04
7840.05
7840.06
7840.07
7840.08
7840.09
7840.1
7840.11
7840.11
7840.12
7840.13
7840.14
7840.14
7840.15
7840.16
7840.16
7840.17
7840.17
7840.18
7840.18
7840.19
7840.19
7840.2
7840.2
7840.21
7840.21
7840.21
7840.22
7840.22
7840.23
7840.23
7840.23
7840.23
7840.24
7840.24
7840.24
7840.25
7840.25
7840.25
7840.25
7840.25
7840.26
7840.26
7840.26
7840.26
7840.26
7840.26
7840.26
7840.27
7840.27
7840.27
7840.27
7840.27
7840.27
7840.27
7840.27
7840.27
7840.27
7840.27
7840.27
7840.27
7840.27
7840.27
7840.28
7840.28
7840.28
7840.28
7840.28
7840.28
7840.28
7840.28
7840.27
7840.27
7840.27
7840.27
7840.27
7840.27
7840.27
7840.27
7840.27
7840.27
7840.27
7840.27
7840.27
7840.27
7840.27
7840.27
7840.27
7840.27
7840.27
7840.26
7840.26
7840.26
7840.26
7840.26
7840.26
7840.26
7840.26
7840.26
7840.26
7840.26
7840.26
7840.25
7840.25
7840.25
7840.25
7840.25
7840.25
7840.25
7840.25
7840.25
7840.25
7840.25
7840.24
7840.24
7840.24
7840.24
7840.24
7840.24
7840.24
7840.24
7840.24
7840.24
7840.24
7840.24
7840.24
7840.23
7840.23
7840.23
7840.23
7840.23
7840.23
7840.23
7840.23
7840.23
7840.23
7840.23
7840.23
7840.23
7840.23
7840.23
7840.23
7840.22
7840.22
7840.22
7840.22
7840.22
7840.22
7840.22
7840.22
7840.22
7840.22
7840.22
7840.22
7840.22
7840.22
7840.22
7840.22
7840.22
7840.22
7840.22
7840.21
7840.21
7840.21
7840.21
7840.21
7840.21
7840.21
7840.21
7840.21
7840.21
7840.21
7840.21
7840.21
7840.21
7840.21
7840.21
7840.21
7840.21
7840.21
7840.21
7840.2
7840.2
7840.2
7840.2
7840.2
7840.2
7840.2
7840.2
7840.2
7840.2
7840.2
7840.2
7840.2
7840.2
7840.2
7840.2
7840.2
7727.02
7730.08
7732.63
7735.13
7737.56
7739.93
7742.22
7744.45
7746.6
7748.69
7750.71
7752.65
7754.53
7756.34
7758.08
7759.76
7761.37
7762.92
7764.39
7765.79
7767.13
7768.4
7769.6
7770.74
7771.81
7772.82
7773.76
7774.63
7775.43
7776.17
7776.84
7777.45
7778.01
7778.52
7778.99
7779.41
7779.76
7780.05
7780.29
7780.48
7780.61
7780.7
7780.74
7780.74
7780.71
7780.63
7780.52
7780.38
7780.21
7779.99
7779.75
7779.53
7779.28
7778.97
7778.63
7778.29
7777.92
7777.52
7777.1
7776.69
7776.27
7775.83
7775.34
7774.84
7774.42
7774
7773.53
7773.05
7772.6
7772.17
7771.69
7771.16
7770.69
7770.22
7769.81
7769.42
7768.91
7768.53
7768.05
7767.46
7767.02
7766.58
7766.16
7765.84
7765.43
7764.94
7764.55
7764.26
7763.85
7763.44
7762.98
7762.51
7761.95
7761.74
7761.45
7761.08
7760.75
7760.34
7760.03
7759.77
7759.58
7759.27
7759.04
7758.88
7758.64
7758.49
7758.38
7758.3
7758.26
7758.1
7758.06
7757.92
7757.97
7758.19
7758.22
7758.34
7758.46
7758.62
7758.83
7759
7759.23
7759.48
7759.77
7760.11
7760.42
7760.77
7761.13
7761.51
7761.81
7762.28
7762.91
7763.45
7764.01
7764.56
7765.13
7765.72
7766.35
7766.97
7767.61
7768.26
7768.93
7769.62
7770.34
7771.02
7771.74
7772.46
7773.2
7773.95
7774.7
7775.46
7776.22
7776.99
7777.76
7778.54
7779.33
7780.12
7780.91
7781.69
7782.48
7783.28
7784.07
7784.86
7785.65
7786.44
7787.23
7788.02
7788.8
7789.58
7790.36
7791.14
7791.91
7792.68
7793.44
7794.2
7794.95
7795.7
7796.45
7797.19
7797.92
7798.65
7799.37
7800.08
7800.79
7801.5
7802.19
7802.88
7803.56
7804.24
7804.9
7805.57
7806.22
7806.86
7807.5
7808.13
7808.76
7809.37
7809.98
7810.58
7811.17
7811.75
7812.33
7812.89
7813.45
7814
7814.55
7815.08
7815.61
7816.13
7816.65
7817.15
7817.65
7818.14
7818.62
7819.09
7819.56
7820.02
7820.47
7820.91
7821.35
7821.78
7822.2
7822.62
7823.03
7823.43
7823.82
7824.21
7824.59
7824.96
7825.33
7825.69
7826.04
7826.39
7826.73
7827.07
7827.39
7827.72
7828.03
7828.34
7828.64
7828.94
7829.23
7829.52
7829.8
7830.07
7830.34
7830.6
7830.86
7831.11
7831.36
7831.6
7831.84
7832.07
7832.29
7832.51
7832.73
7832.94
7833.14
7833.34
7833.54
7833.73
7833.92
7834.1
7834.28
7834.46
7834.63
7834.79
7834.95
7835.11
7835.26
7835.41
7835.56
7835.7
7835.84
7835.98
7836.11
7836.24
7836.36
7836.48
7836.6
7836.71
7836.83
7836.93
7837.04
7837.14
7837.24
7837.34
7837.44
7837.53
7837.62
7837.7
7837.79
7837.87
7837.95
7838.03
7838.1
7838.17
7838.24
7838.31
7838.38
7838.44
7838.51
7838.57
7838.63
7838.68
7838.74
7838.79
7838.84
7838.89
7838.94
7838.99
7839.04
7839.08
7839.12
7839.16
7839.2
7839.24
7839.28
7839.32
7839.35
7839.39
7839.42
7839.45
7839.48
7839.51
7839.54
7839.57
7839.6
7839.62
7839.65
7839.67
7839.69
7839.72
7839.74
7839.76
7839.78
7839.8
7839.82
7839.84
7839.85
7839.87
7839.89
7839.9
7839.92
7839.93
7839.95
7839.96
7839.97
7839.99
7840
7840.01
7840.02
7840.03
7840.04
7840.05
7840.06
7840.07
7840.08
7840.09
7840.1
7840.11
7840.12
7840.12
7840.13
7840.14
7840.15
7840.15
7840.16
7840.16
7840.17
7840.18
7840.18
7840.19
7840.19
7840.2
7840.2
7840.2
7840.21
7840.21
7840.22
7840.22
7840.22
7840.23
7840.23
7840.23
7840.24
7840.24
7840.24
7840.24
7840.25
7840.25
7840.25
7840.25
7840.26
7840.26
7840.26
7840.26
7840.26
7840.26
7840.26
7840.27
7840.27
7840.27
7840.27
7840.27
7840.27
7840.27
7840.27
7840.27
7840.27
7840.27
7840.27
7840.27
7840.28
7840.28
7840.28
7840.28
7840.28
7840.28
7840.28
7840.28
7840.28
7840.28
7840.28
7840.28
7840.28
7840.27
7840.27
7840.27
7840.27
7840.27
7840.27
7840.27
7840.27
7840.27
7840.27
7840.27
7840.27
7840.27
7840.27
7840.27
7840.27
7840.27
7840.27
7840.26
7840.26
7840.26
7840.26
7840.26
7840.26
7840.26
7840.26
7840.26
7840.26
7840.26
7840.25
7840.25
7840.25
7840.25
7840.25
7840.25
7840.25
7840.25
7840.25
7840.25
7840.25
7840.25
7840.24
7840.24
7840.24
7840.24
7840.24
7840.24
7840.24
7840.24
7840.24
7840.24
7840.24
7840.24
7840.24
7840.23
7840.23
7840.23
7840.23
7840.23
7840.23
7840.23
7840.23
7840.23
7840.23
7840.23
7840.23
7840.23
7840.23
7840.23
7840.22
7840.22
7840.22
7840.22
7840.22
7840.22
7840.22
7840.22
7840.22
7840.22
7840.22
7840.22
7840.22
7840.22
7840.22
7840.22
7840.22
7840.22
7840.22
7840.21
7840.21
7840.21
7840.21
7840.21
7840.21
7840.21
7840.21
7840.21
7840.21
7840.21
7840.21
7840.21
7840.21
7840.21
7840.21
7840.21
7840.21
7840.21
7840.2
7840.2
7840.2
7840.2
7840.2
7840.2
7840.2
7840.2
7840.2
7840.2
7840.2
7840.2
7840.2
7840.2
7840.2
7840.2
7840.2
7840.2
7727.75
7730.78
7733.4
7735.9
7738.32
7740.67
7742.96
7745.18
7747.34
7749.43
7751.44
7753.39
7755.27
7757.09
7758.85
7760.54
7762.16
7763.72
7765.21
7766.62
7767.96
7769.24
7770.45
7771.58
7772.65
7773.66
7774.6
7775.48
7776.28
7777.01
7777.67
7778.26
7778.78
7779.25
7779.67
7780.03
7780.34
7780.6
7780.81
7780.98
7781.09
7781.15
7781.18
7781.17
7781.12
7781.04
7780.93
7780.78
7780.6
7780.38
7780.14
7779.91
7779.62
7779.31
7778.97
7778.61
7778.22
7777.82
7777.4
7776.97
7776.53
7776.05
7775.56
7775.08
7774.63
7774.16
7773.67
7773.17
7772.69
7772.23
7771.74
7771.25
7770.72
7770.18
7769.77
7769.33
7768.87
7768.4
7767.9
7767.34
7766.96
7766.58
7766.14
7765.65
7765.17
7764.77
7764.42
7764.01
7763.6
7763.27
7762.89
7762.51
7762.12
7761.71
7761.25
7760.78
7760.61
7760.34
7759.98
7759.69
7759.39
7759.17
7758.97
7758.78
7758.59
7758.43
7758.31
7758.22
7758.13
7758.04
7758.02
7758.03
7758.03
7758.02
7757.93
7758.05
7758.34
7758.5
7758.69
7758.9
7759.14
7759.4
7759.69
7760
7760.34
7760.69
7761.06
7761.47
7761.9
7762.34
7762.79
7763.15
7763.69
7764.39
7764.98
7765.6
7766.2
7766.83
7767.46
7768.12
7768.8
7769.49
7770.19
7770.9
7771.62
7772.36
7773.1
7773.85
7774.6
7775.37
7776.14
7776.92
7777.7
7778.48
7779.27
7780.06
7780.86
7781.65
7782.45
7783.24
7784.04
7784.84
7785.63
7786.43
7787.22
7788.01
7788.8
7789.59
7790.37
7791.15
7791.92
7792.7
7793.46
7794.22
7794.98
7795.74
7796.48
7797.23
7797.96
7798.69
7799.42
7800.13
7800.84
7801.55
7802.25
7802.94
7803.62
7804.3
7804.97
7805.63
7806.29
7806.93
7807.57
7808.2
7808.83
7809.44
7810.05
7810.65
7811.24
7811.83
7812.4
7812.97
7813.53
7814.08
7814.63
7815.16
7815.69
7816.21
7816.72
7817.23
7817.73
7818.21
7818.7
7819.17
7819.64
7820.1
7820.55
7820.99
7821.43
7821.86
7822.28
7822.69
7823.1
7823.5
7823.9
7824.28
7824.66
7825.04
7825.4
7825.76
7826.12
7826.46
7826.8
7827.14
7827.47
7827.79
7828.1
7828.41
7828.71
7829.01
7829.3
7829.58
7829.86
7830.13
7830.4
7830.67
7830.92
7831.17
7831.42
7831.66
7831.9
7832.13
7832.35
7832.57
7832.78
7832.99
7833.2
7833.4
7833.59
7833.78
7833.97
7834.15
7834.33
7834.5
7834.67
7834.84
7835
7835.15
7835.31
7835.46
7835.6
7835.74
7835.88
7836.02
7836.15
7836.27
7836.4
7836.52
7836.64
7836.75
7836.86
7836.97
7837.07
7837.18
7837.27
7837.37
7837.46
7837.56
7837.64
7837.73
7837.81
7837.89
7837.97
7838.05
7838.12
7838.2
7838.27
7838.34
7838.4
7838.47
7838.53
7838.59
7838.65
7838.7
7838.76
7838.81
7838.86
7838.91
7838.96
7839.01
7839.05
7839.1
7839.14
7839.18
7839.22
7839.26
7839.3
7839.33
7839.37
7839.4
7839.43
7839.46
7839.49
7839.52
7839.55
7839.58
7839.61
7839.63
7839.66
7839.68
7839.7
7839.73
7839.75
7839.77
7839.79
7839.81
7839.83
7839.84
7839.86
7839.88
7839.89
7839.91
7839.93
7839.94
7839.95
7839.97
7839.98
7839.99
7840.01
7840.02
7840.03
7840.04
7840.05
7840.06
7840.07
7840.08
7840.09
7840.1
7840.1
7840.11
7840.12
7840.13
7840.14
7840.14
7840.15
7840.16
7840.16
7840.17
7840.17
7840.18
7840.18
7840.19
7840.19
7840.2
7840.2
7840.21
7840.21
7840.22
7840.22
7840.22
7840.23
7840.23
7840.23
7840.24
7840.24
7840.24
7840.24
7840.25
7840.25
7840.25
7840.25
7840.25
7840.26
7840.26
7840.26
7840.26
7840.26
7840.26
7840.27
7840.27
7840.27
7840.27
7840.27
7840.27
7840.27
7840.27
7840.27
7840.27
7840.27
7840.27
7840.28
7840.28
7840.28
7840.28
7840.28
7840.28
7840.28
7840.28
7840.28
7840.28
7840.28
7840.28
7840.28
7840.28
7840.28
7840.28
7840.28
7840.28
7840.27
7840.27
7840.27
7840.27
7840.27
7840.27
7840.27
7840.27
7840.27
7840.27
7840.27
7840.27
7840.27
7840.27
7840.27
7840.26
7840.26
7840.26
7840.26
7840.26
7840.26
7840.26
7840.26
7840.26
7840.26
7840.26
7840.25
7840.25
7840.25
7840.25
7840.25
7840.25
7840.25
7840.25
7840.25
7840.25
7840.25
7840.25
7840.24
7840.24
7840.24
7840.24
7840.24
7840.24
7840.24
7840.24
7840.24
7840.24
7840.24
7840.24
7840.24
7840.23
7840.23
7840.23
7840.23
7840.23
7840.23
7840.23
7840.23
7840.23
7840.23
7840.23
7840.23
7840.23
7840.23
7840.23
7840.22
7840.22
7840.22
7840.22
7840.22
7840.22
7840.22
7840.22
7840.22
7840.22
7840.22
7840.22
7840.22
7840.22
7840.22
7840.22
7840.22
7840.22
7840.22
7840.21
7840.21
7840.21
7840.21
7840.21
7840.21
7840.21
7840.21
7840.21
7840.21
7840.21
7840.21
7840.21
7840.21
7840.21
7840.21
7840.21
7840.21
7840.21
7840.2
7840.2
7840.2
7840.2
7840.2
7840.2
7840.2
7840.2
7840.2
7840.2
7840.2
7840.2
7840.2
7840.2
7840.2
7840.2
7840.2
7840.2
7728.49
7731.43
7734.19
7736.72
7739.1
7741.42
7743.73
7745.95
7748.09
7750.19
7752.2
7754.15
7756.04
7757.86
7759.63
7761.32
7762.95
7764.5
7765.98
7767.38
7768.72
7769.99
7771.18
7772.29
7773.33
7774.31
7775.23
7776.09
7776.89
7777.62
7778.28
7778.86
7779.37
7779.8
7780.17
7780.49
7780.75
7780.99
7781.2
7781.31
7781.34
7781.39
7781.44
7781.43
7781.34
7781.27
7781.19
7781.03
7780.79
7780.56
7780.38
7780.14
7779.84
7779.52
7779.2
7778.84
7778.42
7778.03
7777.64
7777.21
7776.76
7776.28
7775.8
7775.28
7774.74
7774.24
7773.75
7773.24
7772.73
7772.22
7771.71
7771.21
7770.69
7770.13
7769.6
7769.17
7768.71
7768.23
7767.71
7767.2
7766.82
7766.37
7765.9
7765.39
7764.94
7764.6
7764.18
7763.74
7763.31
7762.91
7762.52
7762.16
7761.88
7761.53
7761.17
7760.82
7760.45
7760.09
7759.68
7759.49
7759.27
7758.99
7758.81
7758.59
7758.44
7758.3
7758.16
7758.09
7758.01
7757.94
7757.87
7757.89
7757.91
7757.96
7757.99
7758.1
7758.2
7758.21
7758.38
7758.74
7759
7759.28
7759.57
7759.87
7760.22
7760.59
7760.98
7761.38
7761.81
7762.26
7762.75
7763.24
7763.76
7764.29
7764.82
7765.27
7765.88
7766.64
7767.3
7767.97
7768.65
7769.34
7770.05
7770.78
7771.51
7772.24
7772.99
7773.75
7774.5
7775.28
7776.06
7776.85
7777.63
7778.43
7779.22
7780.02
7780.82
7781.62
7782.42
7783.22
7784.03
7784.83
7785.63
7786.43
7787.23
7788.02
7788.82
7789.61
7790.4
7791.18
7791.96
7792.74
7793.51
7794.28
7795.04
7795.79
7796.55
7797.29
7798.03
7798.76
7799.49
7800.21
7800.92
7801.63
7802.33
7803.03
7803.71
7804.39
7805.06
7805.73
7806.38
7807.03
7807.67
7808.3
7808.93
7809.54
7810.15
7810.75
7811.35
7811.93
7812.51
7813.08
7813.64
7814.19
7814.73
7815.27
7815.8
7816.32
7816.83
7817.33
7817.83
7818.31
7818.8
7819.27
7819.74
7820.19
7820.65
7821.09
7821.53
7821.95
7822.38
7822.79
7823.2
7823.6
7823.99
7824.38
7824.76
7825.13
7825.49
7825.85
7826.2
7826.55
7826.89
7827.22
7827.55
7827.87
7828.18
7828.49
7828.79
7829.09
7829.38
7829.66
7829.94
7830.21
7830.48
7830.74
7831
7831.25
7831.49
7831.73
7831.97
7832.2
7832.42
7832.64
7832.85
7833.06
7833.26
7833.46
7833.66
7833.85
7834.03
7834.21
7834.39
7834.56
7834.73
7834.89
7835.05
7835.21
7835.36
7835.51
7835.65
7835.79
7835.93
7836.06
7836.19
7836.32
7836.44
7836.56
7836.68
7836.79
7836.9
7837.01
7837.11
7837.21
7837.31
7837.41
7837.5
7837.59
7837.68
7837.76
7837.85
7837.93
7838
7838.08
7838.15
7838.23
7838.29
7838.36
7838.43
7838.49
7838.55
7838.61
7838.67
7838.73
7838.78
7838.83
7838.88
7838.93
7838.98
7839.03
7839.07
7839.12
7839.16
7839.2
7839.24
7839.28
7839.31
7839.35
7839.38
7839.42
7839.45
7839.48
7839.51
7839.54
7839.57
7839.59
7839.62
7839.64
7839.67
7839.69
7839.71
7839.74
7839.76
7839.78
7839.8
7839.82
7839.84
7839.85
7839.87
7839.89
7839.9
7839.92
7839.93
7839.95
7839.96
7839.97
7839.99
7840
7840.01
7840.02
7840.03
7840.04
7840.06
7840.07
7840.07
7840.08
7840.09
7840.1
7840.11
7840.12
7840.13
7840.13
7840.14
7840.15
7840.15
7840.16
7840.17
7840.17
7840.18
7840.18
7840.19
7840.19
7840.2
7840.2
7840.21
7840.21
7840.21
7840.22
7840.22
7840.23
7840.23
7840.23
7840.24
7840.24
7840.24
7840.24
7840.25
7840.25
7840.25
7840.25
7840.25
7840.26
7840.26
7840.26
7840.26
7840.26
7840.26
7840.27