/*--------------------------------*- C++ -*----------------------------------*\
| =========                 |                                                 |
| \\      /  F ield         | OpenFOAM: The Open Source CFD Toolbox           |
|  \\    /   O peration     | Version:  v2006                                 |
|   \\  /    A nd           | Website:  www.openfoam.com                      |
|    \\/     M anipulation  |                                                 |
\*---------------------------------------------------------------------------*/
FoamFile
{
    version     2.0;
    format      ascii;
    class       surfaceScalarField;
    location    "1.5";
    object      phi;
}
// * * * * * * * * * * * * * * * * * * * * * * * * * * * * * * * * * * * * * //

dimensions      [0 3 -1 0 0 0 0];
oriented        oriented;


internalField   nonuniform List<scalar> 
65390
(
-7.80916e-06
-7.13469e-07
-7.42553e-06
-3.7376e-07
-7.07309e-06
-3.43543e-07
-6.67319e-06
-3.92614e-07
-6.3122e-06
-3.55234e-07
-5.9867e-06
-3.21058e-07
-5.67049e-06
-3.12707e-07
-5.36498e-06
-3.02952e-07
-5.06881e-06
-2.94249e-07
-4.77828e-06
-2.89009e-07
-4.50218e-06
-2.74959e-07
-4.24538e-06
-2.56003e-07
-4.00598e-06
-2.38798e-07
-3.7945e-06
-2.10994e-07
-3.59328e-06
-2.00864e-07
-3.39895e-06
-1.94104e-07
-3.21561e-06
-1.83177e-07
-3.04649e-06
-1.68955e-07
-2.89093e-06
-1.55409e-07
-2.75448e-06
-1.3635e-07
-2.65495e-06
-9.94795e-08
-2.56533e-06
-8.95677e-08
-2.4697e-06
-9.55045e-08
-2.36938e-06
-1.00147e-07
-2.30003e-06
-6.91438e-08
-2.25299e-06
-4.68268e-08
-2.2192e-06
-3.3553e-08
-2.19316e-06
-2.57276e-08
-2.16385e-06
-2.8864e-08
-2.16783e-06
4.53715e-09
-2.1934e-06
2.62199e-08
-2.21708e-06
2.44259e-08
-2.21259e-06
-3.65593e-09
-2.23574e-06
2.4114e-08
-2.28818e-06
5.35722e-08
-2.36938e-06
8.25502e-08
-2.42649e-06
5.86901e-08
-2.44066e-06
1.59276e-08
-2.5116e-06
7.2797e-08
-2.60409e-06
9.43737e-08
-2.71913e-06
1.16831e-07
-2.84292e-06
1.25389e-07
-2.91827e-06
7.66862e-08
-2.97145e-06
5.41817e-08
-3.07396e-06
1.03172e-07
-3.20805e-06
1.34416e-07
-3.30109e-06
9.30655e-08
-3.37871e-06
7.74192e-08
-3.47536e-06
9.6304e-08
-3.59624e-06
1.20469e-07
-3.70549e-06
1.08855e-07
-3.79312e-06
8.73144e-08
-3.87595e-06
8.26213e-08
-3.95975e-06
8.36841e-08
-4.05918e-06
9.93983e-08
-4.16478e-06
1.05609e-07
-4.26389e-06
9.91301e-08
-4.36983e-06
1.05936e-07
-4.49958e-06
1.29699e-07
-4.63102e-06
1.31356e-07
-4.74122e-06
1.10084e-07
-4.84253e-06
1.01191e-07
-4.96313e-06
1.20511e-07
-5.0832e-06
1.20035e-07
-5.1907e-06
1.07524e-07
-5.27678e-06
8.61595e-08
-5.34449e-06
6.78087e-08
-5.40821e-06
6.38228e-08
-5.45764e-06
4.95049e-08
-5.48751e-06
2.98958e-08
-5.50382e-06
1.62892e-08
-5.49371e-06
-1.01337e-08
-5.43917e-06
-5.45507e-08
-5.30021e-06
-1.38916e-07
-5.08936e-06
-2.10773e-07
-4.75758e-06
-3.31699e-07
-4.22256e-06
-5.34972e-07
-3.58179e-06
-6.40787e-07
-3.02159e-06
-5.60137e-07
-2.8022e-06
-2.19199e-07
-2.71537e-06
-8.66618e-08
-2.76189e-06
4.66476e-08
-2.87484e-06
1.13092e-07
-3.00032e-06
1.2563e-07
-3.13163e-06
1.31488e-07
-3.18798e-06
5.63912e-08
-3.21774e-06
2.97324e-08
-3.26934e-06
5.16703e-08
-3.33194e-06
6.27808e-08
-3.39686e-06
6.51293e-08
-3.45968e-06
6.29888e-08
-3.51352e-06
5.39464e-08
-3.54664e-06
3.31809e-08
-3.56994e-06
2.33196e-08
-3.57937e-06
9.36648e-09
-3.56545e-06
-1.40562e-08
-3.51195e-06
-5.36621e-08
-3.41532e-06
-9.67954e-08
-3.24162e-06
-1.7385e-07
-3.10115e-06
-1.40587e-07
-3.06962e-06
-3.16099e-08
-3.10328e-06
3.36213e-08
-3.16423e-06
6.09496e-08
-3.20009e-06
3.58589e-08
-3.26126e-06
6.11474e-08
-3.3184e-06
5.70945e-08
-3.34584e-06
2.73662e-08
-3.36823e-06
2.22821e-08
-3.3927e-06
2.43422e-08
-3.41788e-06
2.50277e-08
-3.43511e-06
1.70772e-08
-3.44718e-06
1.19265e-08
-3.44671e-06
-5.78865e-10
-3.42781e-06
-1.89884e-08
-3.38181e-06
-4.60578e-08
-3.3027e-06
-7.91395e-08
-3.14813e-06
-1.54583e-07
-3.01859e-06
-1.2955e-07
-2.98288e-06
-3.57286e-08
-2.99744e-06
1.45251e-08
-3.03988e-06
4.23783e-08
-3.06102e-06
2.10493e-08
-3.10564e-06
4.44867e-08
-3.14615e-06
4.03348e-08
-3.1642e-06
1.78279e-08
-3.18381e-06
1.93593e-08
-3.20183e-06
1.77308e-08
-3.21614e-06
1.40035e-08
-3.2304e-06
1.39359e-08
-3.24158e-06
1.0844e-08
-3.2481e-06
6.17396e-09
-3.25449e-06
6.05544e-09
-3.25891e-06
4.10043e-09
-3.26121e-06
1.9954e-09
-3.26175e-06
2.5202e-10
-3.26018e-06
-1.83952e-09
-3.25824e-06
-2.17898e-09
-3.25502e-06
-3.4267e-09
-3.25046e-06
-4.73073e-09
-3.24446e-06
-6.13419e-09
-3.2371e-06
-7.46629e-09
-3.22862e-06
-8.5608e-09
-3.21892e-06
-9.74437e-09
-3.20806e-06
-1.08896e-08
-3.19595e-06
-1.21236e-08
-3.18251e-06
-1.34381e-08
-3.16763e-06
-1.48818e-08
-3.1518e-06
-1.58168e-08
-3.13492e-06
-1.68506e-08
-3.117e-06
-1.7883e-08
-3.09804e-06
-1.89144e-08
-3.07783e-06
-2.01596e-08
-3.05652e-06
-2.12556e-08
-3.03424e-06
-2.22144e-08
-3.01115e-06
-2.30256e-08
-2.98716e-06
-2.39273e-08
-2.96225e-06
-2.48516e-08
-2.9365e-06
-2.56909e-08
-2.91001e-06
-2.64342e-08
-2.88282e-06
-2.71234e-08
-2.85491e-06
-2.7844e-08
-2.82631e-06
-2.85237e-08
-2.79711e-06
-2.91213e-08
-2.76736e-06
-2.96672e-08
-2.7371e-06
-3.01678e-08
-2.70636e-06
-3.06377e-08
-2.67515e-06
-3.10999e-08
-2.64348e-06
-3.15404e-08
-2.61144e-06
-3.19129e-08
-2.57906e-06
-3.22342e-08
-2.54634e-06
-3.25664e-08
-2.51327e-06
-3.29066e-08
-2.47991e-06
-3.31965e-08
-2.44631e-06
-3.34267e-08
-2.41248e-06
-3.36661e-08
-2.37842e-06
-3.38908e-08
-2.34418e-06
-3.40758e-08
-2.30979e-06
-3.42257e-08
-2.27527e-06
-3.43689e-08
-2.24063e-06
-3.44912e-08
-2.2059e-06
-3.45845e-08
-2.17111e-06
-3.46452e-08
-2.13627e-06
-3.46972e-08
-2.10139e-06
-3.47358e-08
-2.0665e-06
-3.47471e-08
-2.03163e-06
-3.47226e-08
-1.9968e-06
-3.46812e-08
-1.96203e-06
-3.4624e-08
-1.92734e-06
-3.45436e-08
-1.89277e-06
-3.44258e-08
-1.85834e-06
-3.42859e-08
-1.82407e-06
-3.41333e-08
-1.78997e-06
-3.39615e-08
-1.75606e-06
-3.37657e-08
-1.72238e-06
-3.35464e-08
-1.68892e-06
-3.33074e-08
-1.65573e-06
-3.30498e-08
-1.6228e-06
-3.27708e-08
-1.59017e-06
-3.24748e-08
-1.55784e-06
-3.21727e-08
-1.52581e-06
-3.18618e-08
-1.49409e-06
-3.15404e-08
-1.46271e-06
-3.1206e-08
-1.43167e-06
-3.08559e-08
-1.40099e-06
-3.04881e-08
-1.37069e-06
-3.01085e-08
-1.34077e-06
-2.97237e-08
-1.31123e-06
-2.93378e-08
-1.28207e-06
-2.89559e-08
-1.25329e-06
-2.85817e-08
-1.22488e-06
-2.82038e-08
-1.19687e-06
-2.78062e-08
-1.16928e-06
-2.73835e-08
-1.14212e-06
-2.6954e-08
-1.1154e-06
-2.65125e-08
-1.08912e-06
-2.6061e-08
-1.06331e-06
-2.56048e-08
-1.03793e-06
-2.5164e-08
-1.01297e-06
-2.47394e-08
-9.88448e-07
-2.43161e-08
-9.64354e-07
-2.38871e-08
-9.40691e-07
-2.34592e-08
-9.17454e-07
-2.30345e-08
-8.94648e-07
-2.26057e-08
-8.72277e-07
-2.21689e-08
-8.50339e-07
-2.17357e-08
-8.28822e-07
-2.13149e-08
-8.0771e-07
-2.0908e-08
-7.86999e-07
-2.05067e-08
-7.66684e-07
-2.01079e-08
-7.46759e-07
-1.97132e-08
-7.27214e-07
-1.93233e-08
-7.08047e-07
-1.89356e-08
-6.89254e-07
-1.85519e-08
-6.70833e-07
-1.81726e-08
-6.52792e-07
-1.77939e-08
-6.3514e-07
-1.74127e-08
-6.17879e-07
-1.70394e-08
-6.00997e-07
-1.66831e-08
-5.84477e-07
-1.63483e-08
-5.68299e-07
-1.60308e-08
-5.5245e-07
-1.57201e-08
-5.36924e-07
-1.54092e-08
-5.21721e-07
-1.50903e-08
-5.06843e-07
-1.47619e-08
-4.92293e-07
-1.4428e-08
-4.78066e-07
-1.4097e-08
-4.64155e-07
-1.37719e-08
-4.50562e-07
-1.34495e-08
-4.37286e-07
-1.31277e-08
-4.24325e-07
-1.28126e-08
-4.11663e-07
-1.2512e-08
-3.99288e-07
-1.22257e-08
-3.87195e-07
-1.1945e-08
-3.75383e-07
-1.16659e-08
-3.63843e-07
-1.13958e-08
-3.52555e-07
-1.11475e-08
-3.41498e-07
-1.0919e-08
-3.30669e-07
-1.06961e-08
-3.20077e-07
-1.04638e-08
-3.09734e-07
-1.02194e-08
-2.99645e-07
-9.96954e-09
-2.89811e-07
-9.71921e-09
-2.80231e-07
-9.47017e-09
-2.70899e-07
-9.22486e-09
-2.61808e-07
-8.98709e-09
-2.52951e-07
-8.75695e-09
-2.44321e-07
-8.53223e-09
-2.35914e-07
-8.31404e-09
-2.27717e-07
-8.10611e-09
-2.19722e-07
-7.90735e-09
-2.11925e-07
-7.71111e-09
-2.04328e-07
-7.513e-09
-1.96928e-07
-7.31409e-09
-1.89726e-07
-7.11614e-09
-1.82718e-07
-6.91799e-09
-1.75908e-07
-6.71829e-09
-1.69295e-07
-6.51796e-09
-1.6288e-07
-6.31789e-09
-1.56664e-07
-6.11825e-09
-1.50645e-07
-5.92194e-09
-1.44816e-07
-5.73607e-09
-1.39159e-07
-5.56723e-09
-1.3366e-07
-5.41585e-09
-1.28305e-07
-5.27727e-09
-1.23086e-07
-5.14692e-09
-1.17995e-07
-5.0232e-09
-1.13025e-07
-4.90589e-09
-1.0817e-07
-4.79316e-09
-1.03428e-07
-4.6814e-09
-9.88011e-08
-4.56683e-09
-9.42936e-08
-4.44768e-09
-8.99105e-08
-4.32341e-09
-8.56588e-08
-4.19228e-09
-8.15458e-08
-4.05405e-09
-7.75762e-08
-3.91126e-09
-7.37501e-08
-3.76853e-09
-7.00635e-08
-3.62998e-09
-6.65108e-08
-3.49717e-09
-6.30867e-08
-3.36971e-09
-5.97863e-08
-3.2473e-09
-5.66032e-08
-3.13134e-09
-5.35289e-08
-3.0242e-09
-5.05527e-08
-2.9277e-09
-4.76642e-08
-2.8419e-09
-4.48547e-08
-2.76483e-09
-4.21186e-08
-2.69355e-09
-3.94527e-08
-2.62534e-09
-3.6856e-08
-2.55815e-09
-3.43289e-08
-2.49046e-09
-3.18728e-08
-2.42107e-09
-2.949e-08
-2.34947e-09
-2.71822e-08
-2.2757e-09
-2.49507e-08
-2.20072e-09
-2.27948e-08
-2.12605e-09
-2.07124e-08
-2.0534e-09
-1.87e-08
-1.98418e-09
-1.67534e-08
-1.91906e-09
-1.48687e-08
-1.85767e-09
-1.30435e-08
-1.79872e-09
-1.12767e-08
-1.74091e-09
-9.56746e-09
-1.68392e-09
-7.91426e-09
-1.62839e-09
-6.31569e-09
-1.57431e-09
-4.77285e-09
-1.51914e-09
-3.29175e-09
-1.45798e-09
-1.88146e-09
-1.38773e-09
-5.47758e-10
-1.31171e-09
7.11768e-10
-1.23812e-09
1.90612e-09
-1.17355e-09
3.04411e-09
-1.11779e-09
4.13068e-09
-1.06699e-09
5.17057e-09
-1.02096e-09
6.17344e-09
-9.84563e-10
7.15113e-09
-9.6003e-10
8.10837e-09
-9.4021e-10
9.03775e-09
-9.12966e-10
9.92728e-09
-8.73718e-10
1.07712e-08
-8.28737e-10
1.15697e-08
-7.83827e-10
1.23207e-08
-7.36884e-10
1.30179e-08
-6.83574e-10
1.36576e-08
-6.26555e-10
1.42448e-08
-5.74602e-10
1.47895e-08
-5.32676e-10
1.52992e-08
-4.98074e-10
1.5778e-08
-4.67606e-10
1.62311e-08
-4.42463e-10
1.6664e-08
-4.22739e-10
1.70771e-08
-4.03378e-10
1.74658e-08
-3.79423e-10
1.78252e-08
-3.50547e-10
1.81512e-08
-3.17353e-10
1.84381e-08
-2.78722e-10
1.86824e-08
-2.36295e-10
1.8887e-08
-1.96972e-10
1.90613e-08
-1.66857e-10
1.92139e-08
-1.45598e-10
1.93503e-08
-1.2973e-10
1.94745e-08
-1.17942e-10
1.95905e-08
-1.10178e-10
1.96986e-08
-1.02765e-10
1.97929e-08
-8.94026e-11
1.98639e-08
-6.65244e-11
1.99063e-08
-3.82311e-11
1.99189e-08
-8.61963e-12
1.99045e-08
1.81557e-11
1.98678e-08
4.02883e-11
1.98153e-08
5.58686e-11
1.97555e-08
6.3163e-11
1.96954e-08
6.31295e-11
1.96379e-08
6.03916e-11
1.958e-08
6.05864e-11
1.95158e-08
6.6473e-11
1.94415e-08
7.64432e-11
1.93562e-08
8.7115e-11
1.92605e-08
9.72849e-11
1.91542e-08
1.07624e-10
1.90394e-08
1.16096e-10
1.89229e-08
1.1762e-10
1.88133e-08
1.10674e-10
1.87133e-08
1.0112e-10
1.86176e-08
9.67265e-11
1.85172e-08
1.01403e-10
1.84031e-08
1.15115e-10
1.82697e-08
1.34441e-10
1.81178e-08
1.52907e-10
1.79543e-08
1.6446e-10
1.77877e-08
1.67604e-10
1.76241e-08
1.64566e-10
1.74658e-08
1.5925e-10
1.73097e-08
1.57053e-10
1.71479e-08
1.6278e-10
1.69716e-08
1.77221e-10
1.67749e-08
1.97468e-10
1.65566e-08
2.18939e-10
1.63211e-08
2.36069e-10
1.60783e-08
2.43265e-10
1.58407e-08
2.37937e-10
1.56163e-08
2.24743e-10
1.54026e-08
2.13918e-10
1.51902e-08
2.12512e-10
1.49719e-08
2.18463e-10
1.47474e-08
2.24699e-10
1.4517e-08
2.30573e-10
1.42822e-08
2.34946e-10
1.40512e-08
2.31168e-10
1.38295e-08
2.21881e-10
1.36131e-08
2.16604e-10
1.33934e-08
2.1978e-10
1.31646e-08
2.28827e-10
1.29277e-08
2.3688e-10
1.26907e-08
2.36823e-10
1.24622e-08
2.28263e-10
1.22415e-08
2.20423e-10
1.20257e-08
2.15309e-10
1.18146e-08
2.10516e-10
1.16012e-08
2.12758e-10
1.13855e-08
2.14954e-10
1.11762e-08
2.08376e-10
1.09719e-08
2.03476e-10
1.07556e-08
2.15375e-10
1.05317e-08
2.22868e-10
1.02796e-08
2.51118e-10
1.00249e-08
2.53779e-10
9.82371e-09
2.00177e-10
9.61594e-09
2.0681e-10
9.43951e-09
1.75517e-10
9.3192e-09
1.19458e-10
9.27511e-09
4.32851e-11
9.25087e-09
2.35247e-11
9.17732e-09
7.28941e-11
9.12805e-09
4.86945e-11
9.06626e-09
6.12672e-11
8.99633e-09
6.94245e-11
8.89492e-09
1.00904e-10
8.78083e-09
1.13542e-10
8.67296e-09
1.07217e-10
8.56252e-09
1.09645e-10
8.48539e-09
7.6157e-11
8.3841e-09
1.00132e-10
8.22475e-09
1.58012e-10
8.07049e-09
1.52756e-10
7.92765e-09
1.41244e-10
7.81567e-09
1.10328e-10
7.69089e-09
1.23142e-10
7.58253e-09
1.06801e-10
7.52327e-09
5.78315e-11
7.4933e-09
2.86779e-11
7.48578e-09
6.37326e-12
7.42883e-09
5.59148e-11
7.40728e-09
2.05935e-11
7.33315e-09
7.31799e-11
7.24605e-09
8.60978e-11
7.12058e-09
1.24369e-10
7.03383e-09
8.55417e-11
6.99348e-09
3.90264e-11
6.87755e-09
1.14537e-10
6.84482e-09
3.13245e-11
6.82643e-09
1.70527e-11
6.73407e-09
9.11164e-11
6.63981e-09
9.31329e-11
6.33113e-09
3.07618e-10
6.16502e-09
1.65096e-10
6.01382e-09
1.50148e-10
5.78516e-09
2.27566e-10
6.02732e-09
-2.43263e-10
6.25304e-09
-2.274e-10
7.73402e-09
-1.48261e-09
9.18776e-09
-1.4559e-09
9.82134e-09
-6.36694e-10
1.02545e-08
-4.36087e-10
1.04102e-08
-1.58611e-10
1.04245e-08
-1.72479e-11
1.03675e-08
5.40379e-11
1.02213e-08
1.43374e-10
9.98579e-09
2.32731e-10
9.68462e-09
2.98449e-10
9.34471e-09
3.37206e-10
8.97552e-09
3.66487e-10
8.60564e-09
3.67141e-10
8.27234e-09
3.30508e-10
7.98363e-09
2.85874e-10
7.71316e-09
2.67614e-10
7.43144e-09
2.7884e-10
7.14101e-09
2.87546e-10
6.86792e-09
2.70206e-10
6.63101e-09
2.3403e-10
6.4288e-09
1.99304e-10
6.24605e-09
1.79826e-10
6.06124e-09
1.8183e-10
5.85514e-09
2.03081e-10
5.61687e-09
2.35195e-10
5.34599e-09
2.67754e-10
5.05141e-09
2.9141e-10
4.74647e-09
3.01742e-10
4.44492e-09
2.98331e-10
4.16062e-09
2.81086e-10
3.91072e-09
2.46689e-10
3.71412e-09
1.93395e-10
3.59268e-09
1.18274e-10
3.56228e-09
2.72627e-11
3.62904e-09
-6.98724e-11
3.78627e-09
-1.60304e-10
4.01596e-09
-2.32736e-10
4.29296e-09
-2.80014e-10
4.59337e-09
-3.03393e-10
4.89743e-09
-3.07018e-10
5.19095e-09
-2.96444e-10
5.46189e-09
-2.7384e-10
5.69572e-09
-2.36691e-10
5.87459e-09
-1.81695e-10
5.9834e-09
-1.11617e-10
6.02003e-09
-3.94328e-11
5.99919e-09
1.80337e-11
5.94907e-09
4.72966e-11
5.90324e-09
4.29789e-11
5.89308e-09
7.2739e-12
5.93733e-09
-4.71577e-11
6.06028e-09
-1.25869e-10
6.26254e-09
-2.05178e-10
6.51294e-09
-2.53292e-10
6.73783e-09
-2.27764e-10
6.85527e-09
-1.20274e-10
6.84388e-09
8.57265e-12
6.77433e-09
6.67462e-11
6.78602e-09
-1.44842e-11
6.95523e-09
-1.72016e-10
7.1765e-09
-2.24094e-10
7.22681e-09
-5.31622e-11
6.98262e-09
2.41319e-10
6.54095e-09
4.38774e-10
6.19107e-09
3.46974e-10
6.10649e-09
8.16727e-11
6.07598e-09
2.75802e-11
5.822e-09
2.51053e-10
5.34254e-09
4.76529e-10
4.99851e-09
3.41091e-10
5.04371e-09
-4.81461e-11
5.19187e-09
-1.51104e-10
5.12596e-09
6.29603e-11
5.0375e-09
8.55443e-11
5.28005e-09
-2.45441e-10
5.68369e-09
-4.0647e-10
5.69939e-09
-1.84679e-11
5.44327e-09
2.53399e-10
5.2916e-09
1.4898e-10
4.88112e-09
4.07766e-10
4.50304e-09
3.75274e-10
8.85187e-10
-8.13796e-06
-1.09065e-06
-7.72185e-06
-8.02182e-07
-7.25886e-06
-8.16625e-07
-6.8699e-06
-7.89703e-07
-6.50904e-06
-7.22593e-07
-6.16065e-06
-6.74708e-07
-5.82666e-06
-6.50678e-07
-5.50963e-06
-6.22921e-07
-5.20413e-06
-6.01876e-07
-4.91366e-06
-5.80967e-07
-4.63793e-06
-5.51622e-07
-4.37935e-06
-5.15091e-07
-4.13972e-06
-4.78634e-07
-3.91494e-06
-4.35797e-07
-3.70584e-06
-4.09861e-07
-3.51384e-06
-3.85891e-07
-3.33533e-06
-3.61401e-07
-3.16685e-06
-3.37138e-07
-3.01414e-06
-3.07868e-07
-2.87694e-06
-2.7336e-07
-2.75063e-06
-2.25607e-07
-2.63598e-06
-2.03998e-07
-2.53864e-06
-1.92604e-07
-2.45133e-06
-1.87242e-07
-2.37402e-06
-1.46281e-07
-2.30545e-06
-1.15219e-07
-2.24776e-06
-9.09796e-08
-2.2116e-06
-6.14646e-08
-2.18325e-06
-5.66143e-08
-2.17321e-06
-4.72591e-09
-2.21388e-06
6.78168e-08
-2.27044e-06
8.20364e-08
-2.30655e-06
3.36363e-08
-2.28038e-06
-7.20359e-10
-2.26393e-06
3.86065e-08
-2.31712e-06
1.37351e-07
-2.39332e-06
1.36584e-07
-2.47925e-06
1.03556e-07
-2.53688e-06
1.32072e-07
-2.5694e-06
1.2843e-07
-2.65657e-06
2.0538e-07
-2.76294e-06
2.32971e-07
-2.85225e-06
1.67033e-07
-2.92422e-06
1.27033e-07
-2.99418e-06
1.73859e-07
-3.10365e-06
2.44493e-07
-3.21597e-06
2.05908e-07
-3.33287e-06
1.94799e-07
-3.45278e-06
2.16702e-07
-3.57644e-06
2.4467e-07
-3.69205e-06
2.25094e-07
-3.80435e-06
2.00322e-07
-3.91553e-06
1.9459e-07
-4.02096e-06
1.89951e-07
-4.12362e-06
2.02914e-07
-4.2334e-06
2.16246e-07
-4.33962e-06
2.06179e-07
-4.43945e-06
2.06571e-07
-4.55991e-06
2.50932e-07
-4.6849e-06
2.57133e-07
-4.79259e-06
2.18607e-07
-4.88696e-06
1.96466e-07
-5.01285e-06
2.47413e-07
-5.14042e-06
2.48724e-07
-5.26007e-06
2.28397e-07
-5.34321e-06
1.70604e-07
-5.41759e-06
1.43514e-07
-5.48066e-06
1.2821e-07
-5.53298e-06
1.03117e-07
-5.58466e-06
8.28328e-08
-5.63341e-06
6.62934e-08
-5.6577e-06
1.54359e-08
-5.6575e-06
-5.34032e-08
-5.64986e-06
-1.45162e-07
-5.63823e-06
-2.21005e-07
-5.6199e-06
-3.48714e-07
-5.60294e-06
-5.50767e-07
-5.53032e-06
-7.12059e-07
-5.32181e-06
-7.66502e-07
-4.82973e-06
-7.0947e-07
-4.26582e-06
-6.49174e-07
-3.61763e-06
-5.9997e-07
-3.2692e-06
-2.34713e-07
-3.08175e-06
-6.08192e-08
-2.98964e-06
4.04965e-08
-3.02653e-06
9.37562e-08
-3.10859e-06
1.1238e-07
-3.26742e-06
2.11269e-07
-3.41973e-06
2.15907e-07
-3.47543e-06
1.21616e-07
-3.50252e-06
9.0652e-08
-3.53191e-06
8.38018e-08
-3.5711e-06
7.2741e-08
-3.61436e-06
6.68307e-08
-3.65794e-06
5.30988e-08
-3.68594e-06
1.4043e-08
-3.71589e-06
-2.3627e-08
-3.74461e-06
-6.79643e-08
-3.79573e-06
-1.22591e-07
-3.7961e-06
-1.40018e-07
-3.70803e-06
-1.19442e-07
-3.52478e-06
-1.49381e-07
-3.35978e-06
-1.03827e-07
-3.30557e-06
-1.81577e-08
-3.29132e-06
4.70338e-08
-3.31024e-06
7.60827e-08
-3.32627e-06
4.33957e-08
-3.35363e-06
4.95894e-08
-3.40389e-06
7.45135e-08
-3.45024e-06
7.12755e-08
-3.46776e-06
3.45047e-08
-3.48416e-06
2.82566e-08
-3.49709e-06
1.23239e-08
-3.50738e-06
-8.69459e-09
-3.52201e-06
-3.13878e-08
-3.53649e-06
-6.46098e-08
-3.57312e-06
-1.17898e-07
-3.57293e-06
-1.29698e-07
-3.49867e-06
-1.09981e-07
-3.33756e-06
-1.46633e-07
-3.18682e-06
-1.08458e-07
-3.13402e-06
-3.1933e-08
-3.11958e-06
2.97986e-08
-3.13464e-06
5.50812e-08
-3.14767e-06
3.04761e-08
-3.18233e-06
5.35801e-08
-3.21387e-06
4.87932e-08
-3.22431e-06
2.3925e-08
-3.23503e-06
2.41143e-08
-3.24461e-06
1.98842e-08
-3.25158e-06
1.26097e-08
-3.25843e-06
1.23837e-08
-3.26312e-06
8.29155e-09
-3.26469e-06
3.10196e-09
-3.26472e-06
-1.32674e-10
-3.26365e-06
-3.27254e-09
-3.26153e-06
-4.61909e-09
-3.25794e-06
-7.28799e-09
-3.25321e-06
-9.68113e-09
-3.24723e-06
-1.23039e-08
-3.23993e-06
-1.49072e-08
-3.23125e-06
-1.73378e-08
-3.22122e-06
-1.98355e-08
-3.21014e-06
-2.20058e-08
-3.19775e-06
-2.45184e-08
-3.1841e-06
-2.70684e-08
-3.16928e-06
-2.9658e-08
-3.1533e-06
-3.17307e-08
-3.13622e-06
-3.38566e-08
-3.11807e-06
-3.59446e-08
-3.09883e-06
-3.80612e-08
-3.07853e-06
-4.03775e-08
-3.05721e-06
-4.24912e-08
-3.03491e-06
-4.44381e-08
-3.01165e-06
-4.62078e-08
-2.9875e-06
-4.80104e-08
-2.9625e-06
-4.97805e-08
-2.93671e-06
-5.14111e-08
-2.91016e-06
-5.29077e-08
-2.88288e-06
-5.43188e-08
-2.85493e-06
-5.57023e-08
-2.82635e-06
-5.69869e-08
-2.79718e-06
-5.81728e-08
-2.76742e-06
-5.92884e-08
-2.73714e-06
-6.02931e-08
-2.70637e-06
-6.12345e-08
-2.67511e-06
-6.21738e-08
-2.6434e-06
-6.30529e-08
-2.61132e-06
-6.37829e-08
-2.57889e-06
-6.44416e-08
-2.54611e-06
-6.51158e-08
-2.513e-06
-6.57806e-08
-2.47962e-06
-6.63536e-08
-2.44597e-06
-6.68426e-08
-2.41207e-06
-6.73391e-08
-2.37794e-06
-6.77954e-08
-2.34361e-06
-6.81783e-08
-2.30913e-06
-6.84915e-08
-2.2745e-06
-6.87845e-08
-2.23974e-06
-6.90414e-08
-2.20489e-06
-6.92329e-08
-2.16997e-06
-6.93609e-08
-2.13501e-06
-6.94585e-08
-2.10004e-06
-6.95171e-08
-2.06507e-06
-6.95183e-08
-2.03014e-06
-6.94627e-08
-1.99526e-06
-6.93765e-08
-1.96043e-06
-6.92608e-08
-1.92569e-06
-6.90923e-08
-1.89108e-06
-6.88528e-08
-1.85661e-06
-6.85588e-08
-1.82232e-06
-6.823e-08
-1.78823e-06
-6.78605e-08
-1.75434e-06
-6.74513e-08
-1.72068e-06
-6.70079e-08
-1.68724e-06
-6.65369e-08
-1.65404e-06
-6.60312e-08
-1.62111e-06
-6.54775e-08
-1.58846e-06
-6.48855e-08
-1.55612e-06
-6.42753e-08
-1.52409e-06
-6.36483e-08
-1.49237e-06
-6.30047e-08
-1.46098e-06
-6.234e-08
-1.42992e-06
-6.16493e-08
-1.39921e-06
-6.09253e-08
-1.36887e-06
-6.0166e-08
-1.33893e-06
-5.93771e-08
-1.30941e-06
-5.85706e-08
-1.28031e-06
-5.77621e-08
-1.25163e-06
-5.6968e-08
-1.22335e-06
-5.61782e-08
-1.19547e-06
-5.53792e-08
-1.16799e-06
-5.45592e-08
-1.1409e-06
-5.3735e-08
-1.11421e-06
-5.28943e-08
-1.08792e-06
-5.20343e-08
-1.06206e-06
-5.11554e-08
-1.03663e-06
-5.0278e-08
-1.01165e-06
-4.94079e-08
-9.87125e-07
-4.85293e-08
-9.63063e-07
-4.76409e-08
-9.39456e-07
-4.6759e-08
-9.16289e-07
-4.58943e-08
-8.93546e-07
-4.50412e-08
-8.71214e-07
-4.41916e-08
-8.49279e-07
-4.33577e-08
-8.27737e-07
-4.25404e-08
-8.06588e-07
-4.1737e-08
-7.85843e-07
-4.09274e-08
-7.65519e-07
-4.01049e-08
-7.45622e-07
-3.92813e-08
-7.26147e-07
-3.84688e-08
-7.07081e-07
-3.76752e-08
-6.88396e-07
-3.69133e-08
-6.7006e-07
-3.61923e-08
-6.52055e-07
-3.54928e-08
-6.3438e-07
-3.47947e-08
-6.1705e-07
-3.40925e-08
-6.00086e-07
-3.33857e-08
-5.83504e-07
-3.26835e-08
-5.67306e-07
-3.19923e-08
-5.51478e-07
-3.13172e-08
-5.35998e-07
-3.06591e-08
-5.20846e-07
-3.00088e-08
-5.0601e-07
-2.93589e-08
-4.91488e-07
-2.87043e-08
-4.77279e-07
-2.80548e-08
-4.63381e-07
-2.7417e-08
-4.49789e-07
-2.67896e-08
-4.365e-07
-2.61678e-08
-4.23513e-07
-2.55561e-08
-4.10822e-07
-2.49652e-08
-3.98417e-07
-2.43975e-08
-3.86292e-07
-2.38421e-08
-3.74445e-07
-2.32885e-08
-3.62878e-07
-2.27413e-08
-3.51588e-07
-2.22181e-08
-3.40567e-07
-2.17244e-08
-3.29802e-07
-2.12476e-08
-3.19289e-07
-2.07692e-08
-3.09021e-07
-2.02839e-08
-2.98994e-07
-1.97988e-08
-2.89204e-07
-1.93184e-08
-2.7965e-07
-1.88409e-08
-2.70331e-07
-1.83672e-08
-2.61246e-07
-1.79037e-08
-2.52386e-07
-1.74535e-08
-2.43748e-07
-1.7013e-08
-2.35327e-07
-1.65809e-08
-2.27122e-07
-1.61603e-08
-2.19128e-07
-1.57497e-08
-2.11345e-07
-1.5341e-08
-2.03774e-07
-1.49298e-08
-1.96409e-07
-1.45201e-08
-1.89248e-07
-1.41159e-08
-1.82286e-07
-1.37163e-08
-1.75518e-07
-1.33205e-08
-1.6894e-07
-1.29314e-08
-1.62544e-07
-1.25513e-08
-1.56324e-07
-1.21789e-08
-1.5028e-07
-1.18141e-08
-1.44408e-07
-1.14631e-08
-1.38703e-07
-1.11346e-08
-1.3316e-07
-1.08304e-08
-1.2777e-07
-1.05454e-08
-1.22528e-07
-1.02733e-08
-1.17429e-07
-1.0012e-08
-1.12467e-07
-9.76165e-09
-1.07637e-07
-9.51968e-09
-1.02935e-07
-9.28065e-09
-9.83614e-08
-9.03907e-09
-9.39155e-08
-8.79262e-09
-8.95974e-08
-8.54112e-09
-8.54064e-08
-8.28363e-09
-8.13418e-08
-8.01981e-09
-7.74036e-08
-7.75179e-09
-7.35917e-08
-7.48429e-09
-6.99047e-08
-7.22241e-09
-6.63401e-08
-6.96913e-09
-6.28941e-08
-6.72522e-09
-5.95622e-08
-6.49121e-09
-5.63393e-08
-6.26898e-09
-5.32198e-08
-6.0613e-09
-5.01982e-08
-5.87009e-09
-4.72694e-08
-5.6949e-09
-4.44289e-08
-5.53291e-09
-4.16732e-08
-5.38015e-09
-3.9e-08
-5.23287e-09
-3.64072e-08
-5.0883e-09
-3.38934e-08
-4.94456e-09
-3.1457e-08
-4.80043e-09
-2.90962e-08
-4.65541e-09
-2.68095e-08
-4.50965e-09
-2.45951e-08
-4.36402e-09
-2.24517e-08
-4.21993e-09
-2.03778e-08
-4.07908e-09
-1.83716e-08
-3.94331e-09
-1.64306e-08
-3.814e-09
-1.4552e-08
-3.69117e-09
-1.27336e-08
-3.5729e-09
-1.09753e-08
-3.45587e-09
-9.27945e-09
-3.33735e-09
-7.64919e-09
-3.2171e-09
-6.08589e-09
-3.09697e-09
-4.58767e-09
-2.97764e-09
-3.15105e-09
-2.85584e-09
-1.77419e-09
-2.7268e-09
-4.58114e-10
-2.59101e-09
7.96497e-10
-2.45699e-09
1.99327e-09
-2.33563e-09
3.13938e-09
-2.2303e-09
4.24032e-09
-2.1354e-09
5.29675e-09
-2.04595e-09
6.30801e-09
-1.96547e-09
7.27678e-09
-1.89952e-09
8.20744e-09
-1.84264e-09
9.10022e-09
-1.77854e-09
9.94983e-09
-1.69712e-09
1.07515e-08
-1.60515e-09
1.15064e-08
-1.51444e-09
1.22192e-08
-1.42636e-09
1.28921e-08
-1.33398e-09
1.35239e-08
-1.23671e-09
1.41148e-08
-1.14474e-09
1.46683e-08
-1.0662e-09
1.51874e-08
-9.98006e-10
1.56728e-08
-9.34599e-10
1.61252e-08
-8.77197e-10
1.65463e-08
-8.27001e-10
1.69371e-08
-7.77925e-10
1.72969e-08
-7.23775e-10
1.76266e-08
-6.65335e-10
1.79276e-08
-6.0421e-10
1.82003e-08
-5.37885e-10
1.84443e-08
-4.67312e-10
1.86618e-08
-4.02251e-10
1.88586e-08
-3.51913e-10
1.90388e-08
-3.14759e-10
1.92024e-08
-2.82896e-10
1.93468e-08
-2.52537e-10
1.94704e-08
-2.24462e-10
1.95727e-08
-1.96401e-10
1.96533e-08
-1.61808e-10
1.97115e-08
-1.17072e-10
1.97469e-08
-6.63721e-11
1.97624e-08
-1.71517e-11
1.97613e-08
2.57135e-11
1.97469e-08
6.0853e-11
1.97213e-08
8.72506e-11
1.96864e-08
1.03542e-10
1.96438e-08
1.10829e-10
1.95944e-08
1.14492e-10
1.95374e-08
1.21857e-10
1.94708e-08
1.37117e-10
1.93932e-08
1.57727e-10
1.93066e-08
1.77044e-10
1.92152e-08
1.91868e-10
1.91209e-08
2.04822e-10
1.9023e-08
2.16858e-10
1.89204e-08
2.22896e-10
1.88132e-08
2.20418e-10
1.87001e-08
2.1668e-10
1.85778e-08
2.21443e-10
1.84441e-08
2.37346e-10
1.83005e-08
2.60949e-10
1.81502e-08
2.86917e-10
1.79968e-08
3.08282e-10
1.7844e-08
3.1922e-10
1.7693e-08
3.20446e-10
1.75415e-08
3.17841e-10
1.73846e-08
3.17792e-10
1.72173e-08
3.25952e-10
1.70364e-08
3.45183e-10
1.68423e-08
3.72721e-10
1.6638e-08
4.03027e-10
1.64277e-08
4.3042e-10
1.62154e-08
4.49404e-10
1.60032e-08
4.56375e-10
1.57904e-08
4.51479e-10
1.55751e-08
4.40807e-10
1.53549e-08
4.3476e-10
1.51286e-08
4.39376e-10
1.48988e-08
4.48733e-10
1.46725e-08
4.51416e-10
1.44524e-08
4.51022e-10
1.42342e-08
4.53424e-10
1.40132e-08
4.52326e-10
1.3786e-08
4.49124e-10
1.35535e-08
4.49002e-10
1.332e-08
4.53112e-10
1.30884e-08
4.60106e-10
1.28609e-08
4.64095e-10
1.26381e-08
4.59097e-10
1.24223e-08
4.43512e-10
1.22065e-08
4.35547e-10
1.19889e-08
4.3212e-10
1.17722e-08
4.26241e-10
1.15545e-08
4.2943e-10
1.13325e-08
4.35866e-10
1.1116e-08
4.23589e-10
1.08831e-08
4.35064e-10
1.06553e-08
4.41698e-10
1.04674e-08
4.09258e-10
1.02752e-08
4.41804e-10
1.00935e-08
4.33964e-10
9.95367e-09
3.38574e-10
9.91979e-09
2.3931e-10
9.89629e-09
1.9775e-10
9.7839e-09
2.3071e-10
9.621e-09
2.05178e-10
9.44423e-09
1.9941e-10
9.30986e-09
2.06467e-10
9.1898e-09
1.67998e-10
9.0739e-09
1.76397e-10
8.96685e-09
1.7562e-10
8.85121e-09
2.15544e-10
8.73814e-09
2.25395e-10
8.62258e-09
2.2131e-10
8.50501e-09
2.2546e-10
8.40006e-09
1.79065e-10
8.28953e-09
2.08352e-10
8.15505e-09
2.89976e-10
8.0397e-09
2.65458e-10
7.93003e-09
2.48216e-10
7.86647e-09
1.71244e-10
7.79703e-09
1.90062e-10
7.71101e-09
1.90496e-10
7.63275e-09
1.34002e-10
7.5565e-09
1.03042e-10
7.46785e-09
9.332e-11
7.35292e-09
1.69252e-10
7.30593e-09
6.59996e-11
7.23277e-09
1.44678e-10
7.13527e-09
1.81805e-10
7.08462e-09
1.73059e-10
7.06084e-09
1.07204e-10
7.00827e-09
8.93805e-11
6.97296e-09
1.47612e-10
6.89474e-09
1.0737e-10
6.5998e-09
3.09963e-10
6.46032e-09
2.28675e-10
6.38057e-09
1.7107e-10
6.23601e-09
4.50285e-10
6.62405e-09
-2.24853e-10
7.03645e-09
-2.6488e-10
8.75612e-09
-1.49472e-09
1.03997e-08
-1.8905e-09
1.1444e-08
-1.27612e-09
1.15862e-08
-1.6294e-09
1.1042e-08
-9.17003e-10
1.09826e-08
-5.82397e-10
1.09598e-08
-4.18355e-10
1.08932e-08
-9.70182e-11
1.07853e-08
8.56591e-11
1.06062e-08
2.28253e-10
1.03488e-08
3.95947e-10
1.00862e-08
4.90689e-10
9.85818e-09
5.21727e-10
9.62045e-09
5.70196e-10
9.35123e-09
6.30917e-10
9.0695e-09
6.44004e-10
8.78564e-09
6.0944e-10
8.48924e-09
5.77298e-10
8.17164e-09
5.80221e-10
7.85309e-09
5.92399e-10
7.56359e-09
5.72067e-10
7.31699e-09
5.11835e-10
7.11096e-09
4.35079e-10
6.93138e-09
3.73867e-10
6.75739e-09
3.48741e-10
6.56898e-09
3.65081e-10
6.35294e-09
4.13859e-10
6.10945e-09
4.73322e-10
5.84884e-09
5.22911e-10
5.5897e-09
5.45023e-10
5.34895e-09
5.36892e-10
5.13821e-09
5.03452e-10
4.96587e-09
4.4779e-10
4.83377e-09
3.73169e-10
4.7448e-09
2.76789e-10
4.69773e-09
1.59818e-10
4.68581e-09
3.37239e-11
4.71104e-09
-1.00491e-10
4.76922e-09
-2.23787e-10
4.86004e-09
-3.28789e-10
4.98313e-09
-4.08263e-10
5.13727e-09
-4.62627e-10
5.3161e-09
-4.90895e-10
5.50817e-09
-4.93527e-10
5.69515e-09
-4.65808e-10
5.85495e-09
-4.01467e-10
5.96936e-09
-3.01074e-10
6.03424e-09
-1.81484e-10
6.05865e-09
-6.8844e-11
6.0705e-09
1.16576e-12
6.08486e-09
2.78869e-11
6.10955e-09
1.32182e-11
6.14524e-09
-3.35057e-11
6.20493e-09
-1.11951e-10
6.29567e-09
-2.2171e-10
6.42856e-09
-3.43156e-10
6.5892e-09
-4.18999e-10
6.73396e-09
-3.77578e-10
6.82272e-09
-2.1407e-10
6.85934e-09
-3.30758e-11
6.89092e-09
3.01252e-11
6.95777e-09
-8.63883e-11
7.02834e-09
-2.47665e-10
7.00339e-09
-2.0425e-10
6.82507e-09
1.19997e-10
6.55287e-09
5.08331e-10
6.3761e-09
6.10315e-10
6.371e-09
3.46811e-10
6.35668e-09
9.07016e-11
6.1586e-09
2.2033e-10
5.79163e-09
6.12655e-10
5.5687e-09
6.94064e-10
5.62115e-09
2.83213e-10
5.63901e-09
-7.14637e-11
5.41755e-09
6.48952e-11
5.22094e-09
2.54111e-10
5.3122e-09
-1.11445e-11
5.34617e-09
-2.84796e-10
5.04663e-09
-1.12269e-10
4.797e-09
2.25853e-10
4.65167e-09
3.93421e-10
4.45053e-09
3.44778e-10
4.30225e-09
5.50594e-10
4.3571e-09
3.14861e-10
1.62484e-09
-7.9474e-06
-1.56419e-06
-7.64274e-06
-1.09842e-06
-7.28159e-06
-1.17129e-06
-6.95253e-06
-1.11367e-06
-6.61134e-06
-1.05991e-06
-6.26113e-06
-1.02188e-06
-5.91625e-06
-9.93144e-07
-5.58559e-06
-9.51768e-07
-5.27377e-06
-9.12225e-07
-4.9835e-06
-8.69971e-07
-4.71392e-06
-8.20135e-07
-4.46241e-06
-7.6578e-07
-4.22603e-06
-7.14337e-07
-3.99556e-06
-6.65639e-07
-3.7847e-06
-6.20147e-07
-3.59294e-06
-5.77191e-07
-3.41326e-06
-5.40763e-07
-3.24776e-06
-5.02422e-07
-3.09786e-06
-4.5761e-07
-2.96192e-06
-4.09183e-07
-2.82359e-06
-3.63853e-07
-2.69849e-06
-3.29062e-07
-2.59268e-06
-2.98449e-07
-2.51215e-06
-2.67903e-07
-2.42767e-06
-2.30958e-07
-2.3452e-06
-1.97933e-07
-2.27698e-06
-1.59459e-07
-2.22599e-06
-1.12683e-07
-2.20009e-06
-8.27533e-08
-2.17497e-06
-3.01206e-08
-2.17021e-06
6.26963e-08
-2.18993e-06
1.01271e-07
-2.24124e-06
8.43001e-08
-2.25651e-06
1.36983e-08
-2.26561e-06
4.66788e-08
-2.27846e-06
1.49002e-07
-2.32771e-06
1.84564e-07
-2.42053e-06
1.95159e-07
-2.46765e-06
1.78155e-07
-2.51222e-06
1.72333e-07
-2.56101e-06
2.54008e-07
-2.618e-06
2.90421e-07
-2.71796e-06
2.68115e-07
-2.83054e-06
2.41393e-07
-2.91917e-06
2.64848e-07
-3.00185e-06
3.30004e-07
-3.12482e-06
3.32049e-07
-3.26706e-06
3.4042e-07
-3.40134e-06
3.54476e-07
-3.52032e-06
3.67181e-07
-3.64816e-06
3.56456e-07
-3.78705e-06
3.42696e-07
-3.91446e-06
3.25456e-07
-4.03046e-06
3.094e-07
-4.15024e-06
3.26161e-07
-4.25513e-06
3.24636e-07
-4.35023e-06
3.04843e-07
-4.47834e-06
3.38319e-07
-4.59187e-06
3.68199e-07
-4.69713e-06
3.66231e-07
-4.7962e-06
3.21623e-07
-4.92509e-06
3.2943e-07
-5.0434e-06
3.69919e-07
-5.15165e-06
3.61307e-07
-5.25067e-06
3.31853e-07
-5.35449e-06
2.78967e-07
-5.4551e-06
2.48715e-07