/*--------------------------------*- C++ -*----------------------------------*\
| =========                 |                                                 |
| \\      /  F ield         | OpenFOAM: The Open Source CFD Toolbox           |
|  \\    /   O peration     | Version:  v2006                                 |
|   \\  /    A nd           | Website:  www.openfoam.com                      |
|    \\/     M anipulation  |                                                 |
\*---------------------------------------------------------------------------*/
FoamFile
{
    version     2.0;
    format      ascii;
    class       volScalarField;
    location    "9.7";
    object      nut;
}
// * * * * * * * * * * * * * * * * * * * * * * * * * * * * * * * * * * * * * //

dimensions      [0 2 -1 0 0 0 0];


internalField   nonuniform List<scalar> 
33000
(
3.24761e-09
8.59003e-09
1.11336e-08
1.1077e-08
5.303e-09
3.33951e-09
2.84353e-09
2.54569e-09
2.209e-09
2.01409e-09
1.918e-09
1.9867e-09
2.10263e-09
2.21778e-09
2.29462e-09
2.31202e-09
2.38552e-09
2.46005e-09
2.44353e-09
2.39237e-09
2.41977e-09
2.58765e-09
2.89799e-09
3.24064e-09
4.05402e-09
6.39472e-09
1.11303e-08
1.77908e-08
2.62137e-08
3.31144e-08
3.68691e-08
3.88732e-08
4.26208e-08
4.88586e-08
5.28272e-08
5.96737e-08
8.60413e-08
1.50911e-07
2.43037e-07
4.03177e-07
8.41377e-07
1.272e-06
1.10105e-06
7.07052e-07
5.77269e-07
6.40229e-07
7.5472e-07
9.10013e-07
9.6442e-07
5.95526e-07
4.44796e-07
4.05704e-07
3.95464e-07
4.015e-07
4.11708e-07
4.43477e-07
5.07332e-07
6.19163e-07
7.98559e-07
1.20395e-06
1.22078e-06
9.0998e-07
7.37315e-07
6.75098e-07
6.47579e-07
5.8858e-07
5.01459e-07
4.11959e-07
3.57931e-07
3.35311e-07
3.26557e-07
3.59359e-07
4.26729e-07
4.6322e-07
5.00815e-07
3.62673e-07
2.73216e-07
3.07426e-07
3.06685e-07
2.5681e-07
2.52666e-07
2.58991e-07
2.83654e-07
3.14872e-07
3.30697e-07
3.55797e-07
3.93563e-07
4.43234e-07
4.53508e-07
4.64471e-07
4.78797e-07
4.53121e-07
4.32549e-07
4.08749e-07
3.90626e-07
3.72581e-07
3.49358e-07
3.02283e-07
2.6658e-07
2.68588e-07
3.63059e-07
6.57543e-07
6.1663e-07
5.03648e-07
5.69086e-07
6.82956e-07
9.11966e-07
9.8193e-07
9.87858e-07
7.02536e-07
5.45026e-07
4.81718e-07
4.40685e-07
4.14098e-07
3.9277e-07
3.49755e-07
3.13518e-07
3.50296e-07
4.58358e-07
4.3738e-07
3.43354e-07
3.13585e-07
3.20366e-07
3.09602e-07
3.23347e-07
3.15707e-07
2.86921e-07
2.66336e-07
2.53313e-07
2.41742e-07
2.34432e-07
2.26897e-07
2.18716e-07
2.11149e-07
2.03657e-07
1.96547e-07
1.90019e-07
1.84341e-07
1.79217e-07
1.74243e-07
1.69501e-07
1.65039e-07
1.61152e-07
1.57698e-07
1.5439e-07
1.51129e-07
1.47897e-07
1.44826e-07
1.42162e-07
1.39854e-07
1.3749e-07
1.34998e-07
1.32625e-07
1.30469e-07
1.285e-07
1.26642e-07
1.24827e-07
1.23064e-07
1.21405e-07
1.19895e-07
1.18507e-07
1.1721e-07
1.15986e-07
1.1481e-07
1.13804e-07
1.13033e-07
1.12382e-07
1.11743e-07
1.11149e-07
1.10897e-07
1.11069e-07
1.1138e-07
1.1177e-07
1.1236e-07
1.13226e-07
1.14758e-07
1.17112e-07
1.20015e-07
1.23417e-07
1.27203e-07
1.3158e-07
1.36969e-07
1.43407e-07
1.51476e-07
1.61893e-07
1.74401e-07
1.88665e-07
2.05304e-07
2.26273e-07
2.53447e-07
2.88652e-07
3.34067e-07
3.91364e-07
4.62889e-07
5.10897e-07
5.10941e-07
5.11998e-07
5.13737e-07
5.15536e-07
5.17009e-07
4.88728e-07
4.2786e-07
3.79024e-07
3.40243e-07
3.09507e-07
2.8522e-07
2.65285e-07
2.48272e-07
2.33371e-07
2.20538e-07
2.10377e-07
2.01745e-07
1.93917e-07
1.8724e-07
1.81274e-07
1.75773e-07
1.70901e-07
1.66724e-07
1.63132e-07
1.59877e-07
1.57002e-07
1.54513e-07
1.52166e-07
1.49985e-07
1.48004e-07
1.46245e-07
1.44689e-07
1.43301e-07
1.42121e-07
1.40988e-07
1.39881e-07
1.3884e-07
1.37868e-07
1.37044e-07
1.36301e-07
1.35598e-07
1.34943e-07
1.34345e-07
1.33791e-07
1.33251e-07
1.32708e-07
1.3212e-07
1.31572e-07
1.311e-07
1.30653e-07
1.30285e-07
1.29929e-07
1.29436e-07
1.28918e-07
1.28502e-07
1.2813e-07
1.27781e-07
1.27467e-07
1.27111e-07
1.26706e-07
1.26307e-07
1.25953e-07
1.25626e-07
1.25295e-07
1.24947e-07
1.24596e-07
1.2424e-07
1.23899e-07
1.23625e-07
1.2341e-07
1.23187e-07
1.22875e-07
1.22467e-07
1.22127e-07
1.21901e-07
1.21674e-07
1.21472e-07
1.2132e-07
1.21178e-07
1.20974e-07
1.20709e-07
1.20496e-07
1.20358e-07
1.20234e-07
1.20136e-07
1.20109e-07
1.20172e-07
1.20217e-07
1.20129e-07
1.20058e-07
1.20179e-07
1.20367e-07
1.20542e-07
1.20782e-07
1.21136e-07
1.21516e-07
1.21829e-07
1.22212e-07
1.22718e-07
1.23315e-07
1.23992e-07
1.24853e-07
1.25811e-07
1.26816e-07
1.28013e-07
1.29428e-07
1.3111e-07
1.33186e-07
1.35552e-07
1.38054e-07
1.40856e-07
1.44152e-07
1.48129e-07
1.5267e-07
1.57771e-07
1.63626e-07
1.70531e-07
1.78721e-07
1.88169e-07
1.95627e-07
1.92468e-07
1.89609e-07
1.87055e-07
1.848e-07
1.82831e-07
1.81136e-07
1.79708e-07
1.78535e-07
1.77608e-07
1.76912e-07
1.76427e-07
1.76142e-07
1.76046e-07
1.76121e-07
1.76337e-07
1.76671e-07
1.77108e-07
1.77641e-07
1.78258e-07
1.7894e-07
1.79656e-07
1.80381e-07
1.81101e-07
1.81806e-07
1.82482e-07
1.83112e-07
1.83686e-07
1.84202e-07
1.84658e-07
1.85052e-07
1.85382e-07
1.85647e-07
1.85845e-07
1.85978e-07
1.86045e-07
1.86045e-07
1.85973e-07
1.85827e-07
1.85603e-07
1.85305e-07
1.84933e-07
1.84488e-07
1.83972e-07
1.83384e-07
1.82726e-07
1.82001e-07
1.81211e-07
1.80358e-07
1.79445e-07
1.78474e-07
1.77448e-07
1.76366e-07
1.7523e-07
1.74046e-07
1.72821e-07
1.71556e-07
1.70247e-07
1.68892e-07
1.67497e-07
1.66064e-07
1.64595e-07
1.63089e-07
1.59675e-07
1.5421e-07
1.4907e-07
1.44233e-07
1.39552e-07
1.35023e-07
1.30719e-07
1.26657e-07
1.22786e-07
1.19108e-07
1.15604e-07
1.12223e-07
1.08979e-07
1.0591e-07
1.03005e-07
1.00214e-07
9.75204e-08
9.49498e-08
9.25056e-08
9.01512e-08
8.79096e-08
8.57949e-08
8.37758e-08
8.18359e-08
7.99923e-08
7.82082e-08
7.65018e-08
7.48444e-08
7.33734e-08
7.19544e-08
7.05733e-08
6.91768e-08
6.79385e-08
6.67555e-08
6.57169e-08
6.47084e-08
6.37034e-08
6.27569e-08
6.17625e-08
6.09485e-08
6.01507e-08
5.94386e-08
5.88972e-08
5.82152e-08
5.72628e-08
5.66496e-08
5.56312e-08
5.50471e-08
5.50553e-08
5.53713e-08
5.42567e-08
5.43401e-08
5.52616e-08
5.8583e-08
6.15055e-08
6.28955e-08
6.40724e-08
6.47494e-08
6.53776e-08
6.57697e-08
6.60964e-08
6.67919e-08
6.68192e-08
6.79814e-08
6.85965e-08
6.82909e-08
6.94637e-08
6.84982e-08
6.54091e-08
6.53494e-08
6.6975e-08
6.82889e-08
6.27979e-08
6.17011e-08
6.24315e-08
6.36699e-08
6.50731e-08
6.60128e-08
6.70632e-08
6.71011e-08
6.76701e-08
6.68628e-08
6.89171e-08
7.32087e-08
7.58649e-08
7.37285e-08
7.48426e-08
6.30567e-08
6.93257e-08
5.56021e-08
5.70699e-08
6.5578e-08
5.23795e-08
4.92709e-08
4.62338e-08
4.61377e-08
4.6984e-08
4.87147e-08
5.15124e-08
5.39752e-08
5.59401e-08
5.72908e-08
5.85126e-08
5.9967e-08
6.12129e-08
6.22507e-08
6.30888e-08
6.3682e-08
6.43992e-08
6.53247e-08
6.61678e-08
6.68592e-08
6.75393e-08
6.83078e-08
6.90501e-08
6.96049e-08
7.01296e-08
7.08759e-08
7.17336e-08
7.25714e-08
7.33027e-08
7.39348e-08
7.46127e-08
7.52558e-08
7.582e-08
7.64438e-08
7.72036e-08
7.80035e-08
7.86667e-08
7.91239e-08
7.94056e-08
7.96589e-08
7.99413e-08
8.02775e-08
8.05965e-08
8.07732e-08
8.09207e-08
8.10598e-08
8.10847e-08
8.0997e-08
8.08827e-08
8.07851e-08
8.07013e-08
8.06192e-08
8.04821e-08
8.02615e-08
7.9945e-08
7.95332e-08
7.90616e-08
7.85552e-08
7.80184e-08
7.74504e-08
7.68572e-08
7.62259e-08
7.55449e-08
7.4834e-08
7.40915e-08
7.3385e-08
7.26215e-08
7.19522e-08
7.108e-08
7.04093e-08
6.94811e-08
6.89376e-08
6.80331e-08
6.71526e-08
6.67636e-08
6.59904e-08
6.46533e-08
6.22327e-08
6.29758e-08
4.39236e-08
4.1955e-08
8.45954e-09
2.88173e-08
2.02904e-08
1.73042e-08
1.27534e-08
6.23199e-09
5.86979e-09
6.11343e-09
6.16328e-09
7.96775e-09
1.34873e-08
2.0669e-08
1.55529e-08
1.63137e-08
1.91355e-08
2.35205e-08
2.92548e-08
3.76754e-08
5.04734e-08
6.60617e-08
6.63343e-08
5.70047e-08
6.17295e-08
7.22907e-08
9.94487e-08
1.49e-07
2.34789e-07
3.49611e-07
4.46385e-07
5.09729e-07
5.31319e-07
5.26455e-07
5.39956e-07
6.10333e-07
7.24358e-07
8.56717e-07
9.81267e-07
1.00218e-06
9.54464e-07
9.13269e-07
9.22143e-07
8.45473e-07
7.71355e-07
6.99007e-07
6.67537e-07
5.82382e-07
5.70116e-07
5.41131e-07
6.04853e-07
7.03484e-07
6.35432e-07
3.68556e-07
3.32637e-07
2.25583e-07
1.40075e-07
1.21147e-07
1.65854e-07
2.86898e-07
3.69666e-07
4.80781e-07
6.00171e-07
6.35283e-07
7.1923e-07
6.59928e-07
5.55866e-07
4.21702e-07
3.43979e-07
2.60755e-07
1.58568e-07
9.80481e-08
9.14308e-08
1.14898e-07
1.97008e-07
2.1216e-07
2.31109e-07
2.52908e-07
2.77711e-07
3.57202e-07
4.39141e-07
4.37248e-07
4.38936e-07
4.52122e-07
4.66638e-07
4.69642e-07
4.49047e-07
4.29548e-07
4.01557e-07
3.65359e-07
3.32514e-07
3.00339e-07
2.67753e-07
2.39115e-07
2.18346e-07
2.08165e-07
2.10369e-07
2.18878e-07
2.34015e-07
2.49941e-07
2.95287e-07
3.34323e-07
3.30983e-07
3.05379e-07
2.85107e-07
2.54141e-07
2.24402e-07
1.9897e-07
1.80792e-07
1.63704e-07
1.53169e-07
7.5062e-08
8.33891e-08
1.04348e-07
1.51641e-07
1.76525e-07
1.27075e-07
1.03246e-07
1.04563e-07
1.52372e-07
2.05249e-07
1.03513e-07
6.62192e-08
1.17233e-07
1.77521e-07
1.27261e-07
1.0214e-07
8.33015e-08
7.1749e-08
9.45548e-08
1.03975e-07
1.17547e-07
1.27988e-07
1.19207e-07
1.14147e-07
1.18074e-07
1.23047e-07
1.27608e-07
1.32064e-07
1.39658e-07
1.4311e-07
1.45835e-07
1.52093e-07
1.62016e-07
1.75003e-07
1.87682e-07
1.98742e-07
2.10044e-07
2.27132e-07
2.54685e-07
2.87005e-07
2.94583e-07
2.93169e-07
2.92678e-07
2.93423e-07
2.94399e-07
2.94746e-07
2.94179e-07
2.93288e-07
2.92757e-07
2.92521e-07
2.9214e-07
2.91396e-07
2.90306e-07
2.88991e-07
2.88024e-07
2.87482e-07
2.86054e-07
2.83699e-07
2.81498e-07
2.55831e-07
2.27383e-07
2.05845e-07
1.8833e-07
1.72858e-07
1.58764e-07
1.46753e-07
1.35038e-07
1.24603e-07
1.15088e-07
1.07379e-07
1.01665e-07
9.60802e-08
9.0953e-08
8.60803e-08
8.12328e-08
7.73649e-08
7.43878e-08
7.23647e-08
7.08451e-08
6.94186e-08
6.78345e-08
6.61772e-08
6.49337e-08
6.46299e-08
6.4838e-08
6.49355e-08
6.52527e-08
6.58157e-08
6.65101e-08
6.7497e-08
6.82823e-08
6.90745e-08
6.97875e-08
7.07694e-08
7.22249e-08
7.36328e-08
7.44033e-08
7.49545e-08
7.58403e-08
7.76175e-08
7.97346e-08
8.14451e-08
8.27358e-08
8.41557e-08
8.59033e-08
8.77954e-08
9.00409e-08
9.24814e-08
9.53528e-08
9.90159e-08
1.02237e-07
1.05829e-07
1.10178e-07
1.14581e-07
1.18885e-07
1.23348e-07
1.30329e-07
1.39505e-07
1.48775e-07
1.57968e-07
1.6638e-07
1.77098e-07
1.94385e-07
2.19007e-07
2.31247e-07
2.30515e-07
2.29945e-07
2.29343e-07
2.28705e-07
2.28127e-07
2.27585e-07
2.2703e-07
2.26532e-07
2.26235e-07
2.26218e-07
2.2632e-07
2.26458e-07
2.26506e-07
2.26439e-07
2.26443e-07
2.26637e-07
2.26913e-07
2.27216e-07
2.27499e-07
2.27705e-07
2.27881e-07
2.28113e-07
2.28406e-07
2.2873e-07
2.29039e-07
2.23548e-07
2.06412e-07
1.98114e-07
1.93015e-07
1.88206e-07
1.85712e-07
1.83872e-07
1.78558e-07
1.70284e-07
1.6215e-07
1.57545e-07
1.55112e-07
1.53093e-07
1.50219e-07
1.46249e-07
1.42799e-07
1.39978e-07
1.37323e-07
1.33935e-07
1.30412e-07
1.26924e-07
1.24079e-07
1.22807e-07
1.21703e-07
1.18913e-07
1.15117e-07
1.11819e-07
1.10349e-07
1.09071e-07
1.06647e-07
1.03885e-07
1.01834e-07
9.9557e-08
9.73337e-08
9.58789e-08
9.42312e-08
9.18725e-08
8.91803e-08
8.69657e-08
8.55352e-08
8.49132e-08
8.37342e-08
8.15405e-08
7.93015e-08
7.79972e-08
7.75993e-08
7.74091e-08
7.62454e-08
7.4781e-08
7.42686e-08
7.46469e-08
7.52855e-08
7.5469e-08
7.58349e-08
7.69063e-08
7.87938e-08
8.13848e-08
8.36979e-08
8.57203e-08
8.83836e-08
9.18735e-08
9.60104e-08
1.00763e-07
1.0579e-07
1.1117e-07
1.17012e-07
1.23488e-07
1.30666e-07
1.38629e-07
1.47439e-07
1.56666e-07
1.66105e-07
1.75653e-07
1.8582e-07
1.88169e-07
1.87713e-07
1.87426e-07
1.8731e-07
1.87252e-07
1.87178e-07
1.87089e-07
1.87023e-07
1.87006e-07
1.8703e-07
1.87059e-07
1.87081e-07
1.87141e-07
1.87272e-07
1.87462e-07
1.87663e-07
1.87828e-07
1.87956e-07
1.88083e-07
1.88244e-07
1.88423e-07
1.8858e-07
1.88708e-07
1.88818e-07
1.88911e-07
1.89004e-07
1.89107e-07
1.89205e-07
1.89282e-07
1.89332e-07
1.89345e-07
1.89312e-07
1.89259e-07
1.89233e-07
1.89263e-07
1.89321e-07
1.89333e-07
1.89287e-07
1.89277e-07
1.89368e-07
1.89518e-07
1.8965e-07
1.89728e-07
1.89769e-07
1.89799e-07
1.89797e-07
1.89808e-07
1.8994e-07
1.9022e-07
1.90492e-07
1.90682e-07
1.90821e-07
1.90955e-07
1.91126e-07
1.91384e-07
1.91709e-07
1.91986e-07
1.92219e-07
1.92519e-07
1.92964e-07
1.93439e-07
1.93885e-07
1.94325e-07
1.94753e-07
1.95084e-07
1.95466e-07
1.96029e-07
1.9674e-07
1.97557e-07
1.98288e-07
1.98945e-07
1.99283e-07
1.99814e-07
2.00635e-07
2.02018e-07
2.02856e-07
2.03703e-07
2.04452e-07
2.05462e-07
2.07096e-07
2.08107e-07
2.0974e-07
2.10788e-07
2.11924e-07
2.14398e-07
2.15741e-07
2.14825e-07
2.18596e-07
2.17746e-07
2.1623e-07
2.24725e-07
2.20697e-07
2.03113e-07
2.00398e-07
1.82438e-07
1.65861e-07
1.51814e-07
1.59319e-07
1.83133e-07
1.92649e-07
2.06591e-07
2.12131e-07
2.17904e-07
2.21135e-07
2.24566e-07
2.27451e-07
2.28374e-07
2.15221e-07
2.19756e-07
2.05477e-07
1.94916e-07
1.64169e-07
2.07411e-07
1.10171e-07
1.80995e-07
2.65436e-07
2.25995e-07
1.79121e-07
2.11159e-07
2.24265e-07
2.4674e-07
2.7858e-07
2.43647e-07
2.61129e-07
2.59957e-07
2.24137e-07
7.11436e-08
7.61611e-08
5.83403e-08
7.90742e-08
3.2729e-08
3.37557e-08
1.52481e-08
1.18359e-08
1.91582e-08
2.16878e-08
2.51083e-08
1.93487e-08
2.09062e-08
2.56816e-08
2.96625e-08
3.4392e-08
4.24773e-08
6.0338e-08
8.5979e-08
1.10654e-07
1.29853e-07
1.69281e-07
2.23361e-07
2.43674e-07
2.44071e-07
2.43097e-07
2.41086e-07
2.39163e-07
2.37927e-07
2.36608e-07
2.34995e-07
2.3357e-07
2.32676e-07
2.3178e-07
2.30362e-07
2.28631e-07
2.27256e-07
2.26326e-07
2.25744e-07
2.25191e-07
2.24607e-07
2.24039e-07
2.23315e-07
2.22475e-07
2.21819e-07
2.21662e-07
2.21969e-07
2.22483e-07
2.22861e-07
2.22894e-07
2.22679e-07
2.2229e-07
2.21952e-07
2.21634e-07
2.21262e-07
2.20945e-07
2.20686e-07
2.20332e-07
2.19761e-07
2.19008e-07
2.18213e-07
2.17526e-07
2.17046e-07
2.16778e-07
2.16659e-07
2.166e-07
2.12014e-07
1.94127e-07
1.80301e-07
1.69021e-07
1.592e-07
1.49783e-07
1.41243e-07
1.34311e-07
1.29602e-07
1.24245e-07
1.20637e-07
1.13454e-07
1.11361e-07
1.06922e-07
1.0698e-07
1.05218e-07
9.30424e-08
1.01241e-07
1.04258e-07
8.73597e-08
6.55625e-08
5.9145e-08
2.09384e-08
3.91091e-08
5.34213e-08
2.63912e-08
4.22148e-08
4.22112e-08
1.58864e-08
1.17498e-08
9.08272e-09
5.91171e-09
5.6232e-09
7.229e-09
1.73205e-08
2.03232e-08
1.81501e-08
1.87467e-08
2.54578e-08
4.01093e-08
7.51029e-08
1.33011e-07
1.37761e-07
1.3745e-07
1.26054e-07
1.11323e-07
1.10822e-07
1.26894e-07
1.62163e-07
2.3222e-07
3.82462e-07
6.36607e-07
8.74031e-07
9.51619e-07
9.8404e-07
9.69853e-07
9.49555e-07
9.46964e-07
9.67719e-07
9.97428e-07
1.05314e-06
1.19778e-06
1.29768e-06
1.30142e-06
1.16168e-06
8.61533e-07
5.85471e-07
5.02547e-07
5.26703e-07
5.17488e-07
4.32872e-07
3.25319e-07
2.81998e-07
3.01101e-07
3.34211e-07
3.18173e-07
2.71041e-07
1.81415e-07
1.51544e-07
1.36772e-07
1.34019e-07
1.37405e-07
1.54261e-07
1.83543e-07
1.87716e-07
1.54364e-07
1.53221e-07
1.75488e-07
2.70296e-07
2.5767e-07
2.2672e-07
1.92615e-07
1.67498e-07
1.44321e-07
1.33667e-07
1.28228e-07
1.23883e-07
1.42965e-07
1.68485e-07
1.79329e-07
1.90567e-07
2.04887e-07
2.28979e-07
2.68784e-07
2.98866e-07
3.34936e-07
3.62004e-07
3.54184e-07
3.66587e-07
3.92419e-07
4.12932e-07
4.232e-07
4.0276e-07
3.61954e-07
3.18143e-07
2.72352e-07
2.36532e-07
2.03748e-07
1.76844e-07
1.58837e-07
1.49101e-07
1.47401e-07
1.51834e-07
1.61495e-07
1.78837e-07
1.83829e-07
1.85767e-07
1.85402e-07
1.73746e-07
1.62693e-07
1.49285e-07
1.3336e-07
1.16366e-07
1.00005e-07
9.01933e-08
8.51697e-08
7.52909e-08
4.32736e-08
4.11276e-08
4.2832e-08
5.20806e-08
3.3997e-08
2.86244e-08
3.07339e-08
3.29578e-08
4.43987e-08
6.47201e-08
2.87497e-08
1.97525e-08
3.16937e-08
4.2887e-08
3.70469e-08
3.04535e-08
2.41187e-08
2.04632e-08
2.80135e-08
3.24329e-08
3.75026e-08
3.80465e-08
3.70168e-08
3.35597e-08
3.18027e-08
3.41529e-08
3.68736e-08
3.956e-08
4.2077e-08
4.32952e-08
4.47871e-08
4.75976e-08
5.0712e-08
5.46412e-08
6.05149e-08
6.68881e-08
7.23846e-08
7.89779e-08
8.73701e-08
9.8744e-08
1.15507e-07
1.39859e-07
1.6612e-07
1.903e-07
2.19383e-07
2.4757e-07
2.57695e-07
2.49387e-07
2.19037e-07
1.87502e-07
1.54846e-07
1.25518e-07
1.06461e-07
9.41408e-08
8.37468e-08
7.54797e-08
6.73898e-08
6.15227e-08
5.62561e-08
5.1091e-08
4.71553e-08
4.36079e-08
4.06728e-08
3.81894e-08
3.56573e-08
3.33664e-08
3.1368e-08
2.96231e-08
2.80618e-08
2.67298e-08
2.55226e-08
2.45182e-08
2.36194e-08
2.25936e-08
2.19427e-08
2.1683e-08
2.1535e-08
2.13131e-08
2.09381e-08
2.0487e-08
2.02762e-08
2.04725e-08
2.07609e-08
2.11714e-08
2.1542e-08
2.17377e-08
2.19764e-08
2.23375e-08
2.3037e-08
2.38008e-08
2.44808e-08
2.52227e-08
2.58887e-08
2.63586e-08
2.69397e-08
2.7933e-08
2.92816e-08
3.04362e-08
3.13087e-08
3.23955e-08
3.35285e-08
3.46613e-08
3.61785e-08
3.79882e-08
3.98113e-08
4.15727e-08
4.34579e-08
4.55237e-08
4.80559e-08
5.15831e-08
5.52528e-08
5.81502e-08
6.10518e-08
6.41877e-08
6.90745e-08
7.52571e-08
8.2017e-08
8.91073e-08
9.66059e-08
1.06985e-07
1.2013e-07
1.34357e-07
1.52132e-07
1.69461e-07
1.84854e-07
2.07746e-07
2.50432e-07
3.17122e-07
3.92237e-07
4.62217e-07
5.23591e-07
5.75996e-07
5.69708e-07
4.90986e-07
3.58822e-07
2.7389e-07
2.54611e-07
2.55829e-07
2.48548e-07
2.32171e-07
2.0006e-07
1.69215e-07
1.55867e-07
1.51586e-07
1.51526e-07
1.50049e-07
1.41773e-07
1.29223e-07
1.19685e-07
1.1581e-07
1.14303e-07
1.11724e-07
1.0776e-07
1.03925e-07
1.00755e-07
9.71675e-08
9.40837e-08
9.19919e-08
9.08448e-08
9.00655e-08
8.74021e-08
8.2736e-08
7.96111e-08
7.84489e-08
7.84447e-08
7.83696e-08
7.68917e-08
7.44262e-08
7.23166e-08
7.06356e-08
6.89719e-08
6.73862e-08
6.65608e-08
6.60686e-08
6.56547e-08
6.49811e-08
6.32316e-08
6.08127e-08
5.9204e-08
5.83589e-08
5.80585e-08
5.82086e-08
5.75524e-08
5.60762e-08
5.43463e-08
5.31231e-08
5.24917e-08
5.24519e-08
5.25282e-08
5.17139e-08
5.04957e-08
4.99641e-08
5.03887e-08
5.08606e-08
5.04758e-08
4.96916e-08
4.96203e-08
5.05491e-08
5.16455e-08
5.21847e-08
5.25857e-08
5.34553e-08
5.51575e-08
5.74733e-08
5.93518e-08
6.07956e-08
6.27937e-08
6.54587e-08
6.86515e-08
7.24054e-08
7.61966e-08
8.00809e-08
8.41909e-08
8.88024e-08
9.40009e-08
9.97877e-08
1.06515e-07
1.13644e-07
1.2058e-07
1.27084e-07
1.33707e-07
1.41427e-07
1.5018e-07
1.58838e-07
1.6739e-07
1.7621e-07
1.8166e-07
1.86146e-07
1.91669e-07
1.96843e-07
2.02168e-07
2.08586e-07
2.13885e-07
2.13627e-07
2.09468e-07
2.06693e-07
2.04888e-07
2.02836e-07
2.00503e-07
1.98342e-07
1.96075e-07
1.91915e-07
1.87323e-07
1.83191e-07
1.79639e-07
1.77398e-07
1.74702e-07
1.70695e-07
1.67076e-07
1.64234e-07
1.61966e-07
1.59948e-07
1.57865e-07
1.55467e-07
1.53767e-07
1.53203e-07
1.52486e-07
1.51707e-07
1.51696e-07
1.52605e-07
1.52979e-07
1.51977e-07
1.51448e-07
1.5245e-07
1.54784e-07
1.57038e-07
1.578e-07
1.58144e-07
1.59936e-07
1.63221e-07
1.66727e-07
1.7085e-07
1.75797e-07
1.79158e-07
1.8152e-07
1.85563e-07
1.91514e-07
1.98571e-07
2.0388e-07
2.09194e-07
2.16714e-07
2.26841e-07
2.39064e-07
2.49546e-07
2.57309e-07
2.64644e-07
2.74733e-07
2.90702e-07
3.18934e-07
3.44518e-07
3.61239e-07
3.71093e-07
3.82486e-07
3.95494e-07
4.4908e-07
5.06855e-07
6.01401e-07
6.41008e-07
6.40499e-07
6.20654e-07
6.58583e-07
8.34884e-07
8.74427e-07
2.06326e-06
2.38323e-06
6.38174e-07
6.31726e-07
3.88657e-07
3.38922e-07
1.29487e-06
1.93592e-07
2.26118e-07
2.56867e-07
2.00741e-07
2.03866e-07
2.50794e-07
1.32259e-06
9.22164e-07
9.6407e-07
6.11716e-07
5.29532e-07
6.40722e-07
2.15661e-06
4.56327e-07
2.02194e-07
1.9955e-07
3.92627e-07
2.33027e-07
1.82479e-07
1.60876e-07
1.56286e-07
9.5466e-08
2.19874e-07
5.78917e-07
3.06858e-07
1.50328e-07
3.46115e-07
1.07533e-07
1.58389e-07
1.80981e-07
4.03718e-07
2.86777e-07
3.26699e-07
2.42425e-07
6.71528e-08
7.83575e-08
4.32809e-08
6.17228e-08
2.3186e-08
2.12006e-08
9.84598e-09
7.6498e-09
1.24537e-08
1.26924e-08
1.5158e-08
1.36062e-08
2.2186e-08
3.22225e-08
2.57701e-08
2.90929e-08
3.74081e-08
4.59281e-08
5.06513e-08
5.57864e-08
7.06022e-08
9.44114e-08
1.14891e-07
1.29508e-07
1.57218e-07
2.01399e-07
2.68034e-07
2.89324e-07
2.39516e-07
2.59432e-07
3.24937e-07
3.28276e-07
2.90271e-07
2.66455e-07
2.70119e-07
2.61698e-07
2.43711e-07
2.40904e-07
2.54643e-07
2.64089e-07
2.62424e-07
2.42316e-07
2.40492e-07
2.52854e-07
2.614e-07
2.76277e-07
3.07107e-07
3.39795e-07
3.40128e-07
3.16404e-07
3.08e-07
3.27934e-07
3.70661e-07
4.33256e-07
5.17051e-07
5.5537e-07
6.31019e-07
6.50865e-07
5.41925e-07
4.72219e-07
4.41878e-07
3.95457e-07
3.28885e-07
2.69516e-07
2.27428e-07
2.0014e-07
1.81476e-07
1.67666e-07
1.5547e-07
1.4412e-07
1.34076e-07
1.25464e-07
1.17708e-07
1.10808e-07
1.04917e-07
1.00178e-07
9.58488e-08
9.2454e-08
8.71837e-08
8.41928e-08
7.94543e-08
7.89403e-08
7.6033e-08
7.56359e-08
7.40947e-08
6.56266e-08
7.09697e-08
7.28523e-08
6.12491e-08
4.66309e-08
4.24631e-08
1.51743e-08
2.94053e-08
4.36099e-08
3.58022e-08
5.05104e-08
4.42424e-08
1.28252e-08
9.25295e-09
1.60122e-08
1.31267e-08
1.38236e-08
1.54625e-08
9.37846e-09
1.76778e-08
4.08355e-08
5.76452e-08
1.0579e-07
1.54382e-07
1.58921e-07
1.63275e-07
1.73306e-07
1.91729e-07
2.08632e-07
2.25969e-07
2.60115e-07
3.18795e-07
4.10905e-07
5.53065e-07
7.59043e-07
9.70407e-07
1.0482e-06
9.70088e-07
8.9496e-07
8.66656e-07
8.63847e-07
8.94319e-07
9.43122e-07
9.90666e-07
1.03796e-06
1.09862e-06
1.1221e-06
1.08306e-06
8.5817e-07
5.79314e-07
4.03807e-07
3.36889e-07
3.38629e-07
3.29648e-07
2.70041e-07
2.14995e-07
1.8932e-07
1.91895e-07
2.02249e-07
1.95886e-07
1.7735e-07
1.01576e-07
7.42175e-08
6.57725e-08
7.26863e-08
1.21843e-07
1.24704e-07
6.86517e-08
5.1892e-08
4.98773e-08
5.80329e-08
7.2586e-08
9.62973e-08
1.57014e-07
1.52061e-07
1.39919e-07
1.32561e-07
7.1854e-08
7.60475e-08
1.26057e-07
1.0635e-07
6.18637e-08
6.83881e-08
1.17118e-07
1.6117e-07
1.67945e-07
1.78768e-07
1.9916e-07
2.21447e-07
2.45139e-07
2.77837e-07
3.05379e-07
3.3597e-07
3.54222e-07
3.46817e-07
3.49984e-07
3.60322e-07
3.77538e-07
3.85352e-07
3.81598e-07
3.51288e-07
3.09918e-07
2.58167e-07
2.14483e-07
1.81209e-07
1.56761e-07
1.43174e-07
1.37658e-07
1.35768e-07
1.33686e-07
1.32047e-07
1.33852e-07
1.31669e-07
1.27047e-07
1.20907e-07
1.12163e-07
1.03096e-07
9.48808e-08
8.80395e-08
8.31931e-08
8.06216e-08
8.01044e-08
6.00691e-08
5.69764e-08
3.57653e-08
3.52864e-08
3.2792e-08
3.73998e-08
2.61829e-08
1.6805e-08
1.6555e-08
1.84415e-08
2.36895e-08
3.56814e-08
1.45041e-08
1.03828e-08
1.77884e-08
2.59684e-08
2.42985e-08
2.05219e-08
1.77552e-08
1.51187e-08
2.05385e-08
2.54211e-08
2.62519e-08
2.75426e-08
2.81223e-08
2.58544e-08
2.51047e-08
2.72445e-08
2.92788e-08
3.07638e-08
3.27392e-08
3.42481e-08
3.64264e-08
4.02443e-08
4.39707e-08
4.71218e-08
5.09171e-08
5.61621e-08
6.27144e-08
7.02956e-08
8.17273e-08
9.70415e-08
1.0927e-07
1.14346e-07
1.17179e-07
1.22189e-07
1.23208e-07
1.14401e-07
1.00597e-07
8.44435e-08
7.01565e-08
6.15643e-08
5.60517e-08
5.0087e-08
4.4978e-08
4.07524e-08
3.73736e-08
3.42271e-08
3.13015e-08
2.9091e-08
2.71115e-08
2.53285e-08
2.39044e-08
2.25234e-08
2.14912e-08
2.06267e-08
1.95104e-08
1.85693e-08
1.78632e-08
1.73033e-08
1.69424e-08
1.65573e-08
1.60329e-08
1.56023e-08
1.55109e-08
1.55423e-08
1.56038e-08
1.56437e-08
1.55271e-08
1.54018e-08
1.55134e-08
1.57896e-08
1.62283e-08
1.67411e-08
1.70452e-08
1.72676e-08
1.76665e-08
1.83765e-08
1.92495e-08
2.00084e-08
2.06623e-08
2.12158e-08
2.18165e-08
2.26993e-08
2.39217e-08
2.52734e-08
2.63074e-08
2.71021e-08
2.82587e-08
2.93943e-08
3.05601e-08
3.22714e-08
3.42812e-08
3.63607e-08
3.79792e-08
3.9326e-08
4.11652e-08
4.36047e-08
4.71519e-08
5.13542e-08
5.47442e-08
5.78844e-08
6.0511e-08
6.36932e-08
6.87037e-08
7.53857e-08
8.32703e-08
9.18199e-08
1.0019e-07
1.09075e-07
1.21739e-07
1.38152e-07
1.53738e-07
1.68679e-07
1.87884e-07
2.17091e-07
2.5527e-07
2.98055e-07
3.42449e-07
3.78685e-07
3.98817e-07
3.79836e-07
3.27253e-07
2.66177e-07
2.33261e-07
2.31809e-07
2.43721e-07
2.38299e-07
2.12335e-07
1.80293e-07
1.56143e-07
1.48224e-07
1.46912e-07
1.46624e-07
1.41286e-07
1.29923e-07
1.20261e-07
1.15753e-07
1.12806e-07
1.10729e-07
1.08521e-07
1.0354e-07
9.7831e-08
9.45977e-08
9.20228e-08
9.02289e-08
8.91237e-08
8.82823e-08
8.66171e-08
8.30558e-08
7.87507e-08
7.6107e-08
7.48125e-08
7.41562e-08
7.43125e-08
7.37677e-08
7.21454e-08
6.98416e-08
6.68473e-08
6.45443e-08
6.33472e-08
6.34731e-08
6.41753e-08
6.34811e-08
6.16052e-08
5.9538e-08
5.7654e-08
5.63631e-08
5.58441e-08
5.60817e-08
5.59211e-08
5.45458e-08
5.32435e-08
5.22287e-08
5.14659e-08
5.0768e-08
5.03174e-08
5.01854e-08
4.95762e-08
4.91119e-08
4.91572e-08
4.94093e-08
4.92899e-08
4.90923e-08
4.88955e-08
4.9094e-08
4.99461e-08
5.07478e-08
5.1419e-08
5.20448e-08
5.29942e-08
5.45214e-08
5.62856e-08
5.79534e-08
5.95419e-08
6.15605e-08
6.40503e-08
6.70037e-08
7.05766e-08
7.41605e-08
7.78488e-08
8.18115e-08
8.62739e-08
9.11857e-08
9.65185e-08
1.03199e-07
1.10853e-07
1.18022e-07
1.23908e-07
1.29546e-07
1.36873e-07
1.46789e-07
1.57365e-07
1.649e-07
1.71225e-07
1.767e-07
1.82702e-07
1.89037e-07
1.93964e-07
2.00221e-07
2.08151e-07
2.12084e-07
2.09378e-07
2.03922e-07
2.01281e-07
1.99811e-07
1.97422e-07
1.9447e-07
1.9255e-07
1.9112e-07
1.86273e-07
1.80553e-07
1.76154e-07
1.72829e-07
1.70689e-07
1.67699e-07
1.63499e-07
1.60185e-07
1.57803e-07
1.55853e-07
1.53991e-07
1.51841e-07
1.49435e-07
1.48006e-07
1.47631e-07
1.47099e-07
1.46188e-07
1.45469e-07
1.46255e-07
1.47376e-07
1.46928e-07
1.46899e-07
1.47855e-07
1.49348e-07
1.50872e-07
1.52068e-07
1.53623e-07
1.5622e-07
1.58991e-07
1.621e-07
1.66111e-07
1.71588e-07
1.74915e-07
1.7697e-07
1.80203e-07
1.86306e-07
1.94384e-07
1.99904e-07
2.04169e-07
2.10598e-07
2.2198e-07
2.34577e-07
2.45009e-07
2.50331e-07
2.60119e-07
2.69994e-07
2.85336e-07
3.06823e-07
3.33281e-07
3.50198e-07
3.69628e-07
3.79697e-07
4.15662e-07
4.51841e-07
4.80793e-07
4.8692e-07
4.93386e-07
4.83568e-07
5.26501e-07
1.13404e-06
1.63796e-06
5.36641e-07
4.59799e-07
2.77942e-07
2.66282e-07
6.95495e-07
2.14261e-07
3.06483e-07
2.37955e-07
1.93259e-07
1.78683e-07
2.32142e-07
9.12387e-07
7.15064e-07
6.55026e-07
5.70207e-07
7.19008e-07
9.6719e-07
2.89911e-06
4.25852e-07
2.94489e-07
1.25231e-06
2.81011e-07
1.77333e-07
1.68862e-07
1.29178e-07
1.33817e-07
9.09896e-08
2.10142e-07
2.86151e-07
2.33638e-07
1.30476e-07
1.59572e-07
1.0252e-07
1.63064e-07
2.15434e-07
3.43763e-07
2.21602e-07
2.33483e-07
6.48341e-08
9.52879e-08
1.69876e-07
3.67661e-08
5.17315e-08
1.97814e-08
1.77755e-08
8.88249e-09
7.06583e-09
1.15696e-08
1.10124e-08
1.30671e-08
1.17541e-08
1.95884e-08
3.04131e-08
3.20853e-08
4.19208e-08
4.09772e-08
4.16076e-08
5.21019e-08
6.15411e-08
6.11723e-08
6.07915e-08
6.49989e-08
7.7622e-08
9.29476e-08
1.0631e-07
1.21106e-07
1.4352e-07
1.67721e-07
1.88927e-07
1.91976e-07
1.93574e-07
2.24719e-07
2.62936e-07
2.60262e-07
2.29149e-07
2.1715e-07
2.20754e-07
2.16322e-07
2.07646e-07
2.08624e-07
2.22269e-07
2.2785e-07
2.21688e-07
2.09944e-07
2.03683e-07
2.09107e-07
2.24987e-07
2.4903e-07
2.89899e-07
3.28996e-07
3.13939e-07
2.88235e-07
2.69088e-07
2.83749e-07
3.22028e-07
3.6005e-07
3.85301e-07
3.92192e-07
4.10258e-07
4.25258e-07
4.06052e-07
3.79275e-07
3.56408e-07
3.23317e-07
2.82139e-07
2.44617e-07
2.14574e-07
1.917e-07
1.73819e-07
1.5869e-07
1.45775e-07
1.34952e-07
1.25926e-07
1.18103e-07
1.11078e-07
1.05051e-07
1.00021e-07
9.58178e-08
9.15279e-08
8.80674e-08
8.27705e-08
8.00677e-08
7.65488e-08
7.62605e-08
7.27822e-08
7.22153e-08
7.10239e-08
6.34742e-08
6.89369e-08
7.09197e-08
6.01414e-08
4.55873e-08
4.15764e-08
1.48275e-08
2.91423e-08
4.09044e-08
3.52481e-08
3.68755e-08
3.16268e-08
1.12677e-08
9.80705e-09
2.19619e-08
9.82903e-08
2.2451e-08
9.00701e-09
1.04634e-08
3.17785e-08
1.00129e-07
1.61314e-07
1.65769e-07
1.70919e-07
1.77378e-07
1.87609e-07
2.05682e-07
2.32407e-07
2.66214e-07
3.05331e-07
3.53301e-07
4.1438e-07
4.86512e-07
5.7113e-07
6.71089e-07
7.25559e-07
6.80321e-07
6.21401e-07
6.167e-07
6.59028e-07
7.12633e-07
7.65324e-07
8.12661e-07
8.50918e-07
8.82134e-07
9.07331e-07
9.1204e-07
8.06771e-07
5.69657e-07
3.76851e-07
2.83134e-07
2.41449e-07
2.33477e-07
2.19832e-07
1.88898e-07
1.66594e-07
1.56516e-07
1.54574e-07
1.5676e-07
1.54509e-07
1.36861e-07
6.94124e-08
4.84298e-08
4.46514e-08
5.35228e-08
8.28591e-08
5.74035e-08
3.57537e-08
3.17245e-08
3.47707e-08
4.04591e-08
4.93949e-08
4.46998e-08
5.92185e-08
1.23433e-07
1.32177e-07
1.24433e-07
5.68803e-08
4.89681e-08
8.51596e-08
1.43534e-07
9.01311e-08
4.80271e-08
5.73573e-08
1.39299e-07
1.61539e-07
1.68574e-07
1.78516e-07
1.8818e-07
1.97227e-07
2.13091e-07
2.29801e-07
2.50669e-07
2.75961e-07
2.95359e-07
3.12188e-07
3.27459e-07
3.3446e-07
3.21716e-07
3.29473e-07
3.33558e-07
3.24304e-07
3.09029e-07
2.81057e-07
2.53431e-07
2.17515e-07
1.85889e-07
1.61391e-07
1.41683e-07
1.30263e-07
1.23911e-07
1.19282e-07
1.14593e-07
1.10894e-07
1.09242e-07
1.0659e-07
1.03743e-07
1.00966e-07
9.77388e-08
9.47697e-08
7.94143e-08
5.09964e-08
5.76703e-08
6.05021e-08
6.11346e-08
4.84153e-08
4.65305e-08
3.04749e-08
3.15794e-08
3.02805e-08
3.47317e-08
2.47504e-08
1.43361e-08
1.36903e-08
1.53564e-08
1.92059e-08
3.22321e-08
1.10384e-08
7.91517e-09
1.3782e-08
2.00004e-08
2.24511e-08
1.81482e-08
2.67141e-08
1.66325e-08
1.39401e-08
1.90395e-08
2.33155e-08
2.80052e-08
3.05169e-08
2.71094e-08
2.54349e-08
2.7474e-08
3.06995e-08
3.38057e-08
3.6879e-08
3.86721e-08
4.05242e-08
4.38982e-08
4.88115e-08
5.3126e-08
5.82827e-08
6.62157e-08
7.64758e-08
8.44082e-08
8.55598e-08
8.4298e-08
8.58746e-08
8.73247e-08
8.47218e-08
7.57821e-08
6.45173e-08
5.54542e-08
4.98192e-08
4.59702e-08
4.20434e-08
3.76825e-08
3.41672e-08
3.15212e-08
2.91229e-08
2.70878e-08
2.52383e-08
2.35299e-08
2.20564e-08
2.0907e-08
1.99957e-08
1.94146e-08
1.87194e-08
1.77271e-08
1.69956e-08
1.6432e-08
1.60762e-08
1.59525e-08
1.56824e-08
1.53339e-08
1.49147e-08
1.47403e-08
1.47839e-08
1.48696e-08
1.50132e-08
1.51123e-08
1.51026e-08
1.50057e-08
1.50426e-08
1.53537e-08
1.58825e-08
1.63705e-08
1.67081e-08
1.71076e-08
1.76215e-08
1.82936e-08
1.90262e-08
1.9611e-08
2.01584e-08
2.09476e-08
2.20175e-08
2.32405e-08
2.43731e-08
2.51993e-08
2.60276e-08
2.72461e-08
2.84679e-08
2.97838e-08
3.14606e-08
3.32615e-08
3.5168e-08
3.67913e-08
3.8305e-08
4.0267e-08
4.24786e-08
4.5393e-08
4.92646e-08
5.26937e-08
5.59421e-08
5.97685e-08
6.30023e-08
6.68237e-08
7.25381e-08
7.93557e-08
8.66264e-08
9.44071e-08
1.02288e-07
1.13542e-07
1.29341e-07
1.46919e-07
1.59026e-07
1.67288e-07
1.82458e-07
2.08345e-07
2.4369e-07
2.80392e-07
3.03223e-07
3.00307e-07
2.73377e-07
2.43952e-07
2.2628e-07
2.20145e-07
2.2279e-07
2.29455e-07
2.15617e-07