/*--------------------------------*- C++ -*----------------------------------*\
| =========                 |                                                 |
| \\      /  F ield         | OpenFOAM: The Open Source CFD Toolbox           |
|  \\    /   O peration     | Version:  v2006                                 |
|   \\  /    A nd           | Website:  www.openfoam.com                      |
|    \\/     M anipulation  |                                                 |
\*---------------------------------------------------------------------------*/
FoamFile
{
    version     2.0;
    format      ascii;
    class       volScalarField;
    location    "9.7";
    object      p_rgh;
}
// * * * * * * * * * * * * * * * * * * * * * * * * * * * * * * * * * * * * * //

dimensions      [1 -1 -2 0 0 0 0];


internalField   nonuniform List<scalar> 
33000
(
8060.85
8053.36
8048.73
8043.43
8039.24
8034.4
8029.57
8024.63
8019.52
8014.3
8008.99
8003.64
7998.37
7993.17
7988
7982.84
7977.64
7972.5
7967.41
7962.41
7957.66
7953.33
7949.21
7945.17
7941.26
7937.32
7933.2
7928.96
7924.76
7920.65
7916.69
7912.96
7909.44
7906.12
7902.97
7899.93
7896.91
7893.79
7890.58
7887.35
7884.22
7881.19
7878.28
7875.46
7872.77
7870.25
7867.83
7865.53
7863.35
7861.28
7859.4
7857.65
7856.01
7854.49
7853.09
7851.8
7850.63
7849.57
7848.63
7847.82
7847.14
7846.56
7846.09
7845.83
7845.66
7845.61
7845.67
7845.85
7846.15
7846.54
7847.02
7847.57
7848.15
7848.84
7849.62
7850.42
7851.28
7852.12
7852.66
7854.44
7856.16
7857.89
7859.78
7861.75
7863.86
7866.27
7868.86
7871.53
7874.39
7877.31
7880.41
7883.59
7886.98
7890.47
7894.1
7897.81
7901.83
7905.75
7910.13
7914.17
7918.08
7922.31
7926.59
7930.97
7935.49
7939.91
7944.42
7948.93
7953.54
7958.23
7962.83
7967.5
7972.07
7976.58
7981.05
7985.45
7990.01
7994.27
7998.04
8002.22
8006
8009.72
8013.35
8016.72
8019.75
8022.63
8025.27
8027.7
8029.92
8031.84
8033.43
8034.75
8035.71
8036.4
8036.81
8036.89
8036.61
8035.97
8034.97
8033.61
8031.89
8029.8
8027.33
8024.54
8021.41
8017.97
8014.2
8010.09
8005.65
8000.93
7995.97
7990.74
7985.24
7979.5
7973.52
7967.37
7961.04
7954.54
7947.89
7941.11
7934.21
7927.23
7920.16
7913.05
7905.9
7898.73
7891.58
7884.45
7877.35
7870.29
7863.32
7856.46
7849.7
7843.06
7836.53
7830.13
7823.91
7817.88
7812.03
7806.35
7800.83
7795.5
7790.35
7785.37
7780.59
7775.98
7771.54
7767.23
7763.08
7759.08
7755.21
7751.47
7747.82
7744.28
7740.81
7737.42
7734.09
7730.85
7727.71
7724.67
7721.74
7718.94
7716.27
7713.75
7711.39
7709.2
7707.16
7705.3
7703.61
7702.12
7700.81
7699.68
7698.72
7697.94
7697.34
7696.92
7696.69
7696.65
7696.76
7697.04
7697.47
7698.05
7698.78
7699.68
7700.72
7701.9
7703.19
7704.61
7706.14
7707.77
7709.52
7711.37
7713.33
7715.36
7717.46
7719.63
7721.87
7724.18
7726.53
7728.94
7731.39
7733.89
7736.43
7738.99
7741.58
7744.18
7746.8
7749.43
7752.09
7754.74
7757.39
7760.05
7762.69
7765.32
7767.96
7770.58
7773.19
7775.78
7778.35
7780.9
7783.43
7785.94
7788.42
7790.87
7793.29
7795.68
7798.04
7800.38
7802.68
7804.95
7807.18
7809.37
7811.53
7813.64
7815.72
7817.78
7819.79
7821.76
7823.7
7825.59
7827.44
7829.26
7831.03
7832.77
7834.48
7836.14
7837.77
7839.35
7840.9
7842.41
7843.89
7845.33
7846.73
7848.11
7849.44
7850.75
7852.02
7853.26
7854.47
7855.65
7856.8
7857.92
7859.02
7860.09
7861.13
7862.16
7863.16
7864.14
7865.1
7866.05
7866.98
7867.89
7868.79
7869.67
7870.55
7871.41
7872.27
7873.12
7873.96
7874.8
7875.64
7876.47
7877.3
7878.13
7878.96
7879.79
7880.62
7881.46
7882.29
7883.13
7883.97
7884.81
7885.66
7886.51
7887.36
7888.22
7889.09
7889.96
7890.83
7891.7
7892.58
7893.47
7894.35
7895.24
7896.14
7897.03
7897.93
7898.83
7899.73
7900.64
7901.54
7902.44
7903.34
7904.24
7905.14
7906.04
7906.93
7907.81
7908.69
7909.57
7910.43
7911.28
7912.13
7912.96
7913.78
7914.58
7915.37
7916.15
7916.9
7917.64
7918.36
7919.05
7919.73
7920.38
7921.01
7921.61
7922.19
7922.74
7923.26
7923.75
7924.22
7924.65
7925.06
7925.44
7925.78
7926.09
7926.38
7926.63
7926.85
7927.04
7927.19
7927.31
7927.41
7927.47
7927.5
7927.5
7927.47
7927.41
7927.32
7927.2
7927.06
7926.88
7926.68
7926.45
7926.2
7925.92
7925.61
7925.29
7924.94
7924.57
7924.17
7923.76
7923.33
7922.87
7922.41
7921.92
7921.42
7920.9
7920.37
7919.83
7919.27
7918.71
7918.14
7917.55
7916.96
7916.38
7915.79
7915.17
7914.61
7913.9
7913.35
7912.93
7912.38
7911.85
7911.28
7910.7
7910.11
7909.5
7908.89
7908.26
7907.64
7907
7906.36
7905.73
7905.1
7904.45
7903.82
7903.14
7902.52
7901.99
7901.37
7900.79
7900.17
7899.57
7898.93
7898.32
7897.69
7897.08
7896.45
7895.84
7895.21
7894.62
7893.98
7893.41
7892.85
7892.27
7891.7
7891.23
7890.4
7890.05
7889.72
7889.31
7888.89
7888.44
7887.98
7887.51
7887.03
7886.55
7886.07
7885.58
7885.09
7884.6
7884.12
7883.63
7883.15
7882.67
7882.19
7881.72
7881.25
7880.79
7880.33
7879.88
7879.44
7879
7878.57
7878.15
7877.75
7877.35
7876.96
7876.59
7876.22
7875.87
7875.54
7875.22
7874.91
7874.62
7874.35
7874.1
7873.86
7873.64
7873.44
7873.27
7873.11
7872.98
7872.87
7872.78
7872.71
7872.67
7872.66
7872.67
7872.7
7872.76
7872.85
7872.97
7873.11
7873.28
7873.48
7873.7
7873.95
7874.24
7874.55
7874.88
7875.25
7875.65
7876.07
7876.53
7877.01
7877.52
7878.06
7878.63
7879.22
7879.85
7880.5
7881.19
7881.9
7882.63
7883.41
7884.16
7885.07
7885.88
8060.23
8052.67
8048.03
8042.95
8038.51
8033.87
8029.05
8024.09
8018.97
8013.74
8008.46
8003.18
7998.03
7992.83
7987.71
7982.51
7977.32
7972.17
7966.95
7961.76
7956.91
7952.6
7948.58
7944.66
7940.96
7937.25
7933.2
7928.92
7924.66
7920.42
7916.35
7912.44
7908.85
7905.57
7902.43
7899.42
7896.43
7893.34
7890.17
7886.93
7883.86
7880.86
7877.93
7875.05
7872.28
7869.9
7867.52
7865.23
7863.01
7860.88
7859
7857.32
7855.7
7854.18
7852.77
7851.48
7850.3
7849.24
7848.31
7847.49
7846.72
7846.17
7845.74
7845.41
7845.32
7845.3
7845.36
7845.54
7845.84
7846.24
7846.73
7847.28
7847.81
7848.51
7849.34
7850.27
7851.37
7852.41
7853.34
7854.65
7855.79
7856.71
7859.29
7861.45
7863.83
7866.16
7868.7
7871.14
7873.83
7876.79
7879.95
7883.23
7886.66
7890.13
7893.73
7897.4
7901.39
7905.44
7909.59
7913.67
7917.9
7922.36
7926.66
7930.56
7935.08
7939.4
7944.24
7948.78
7953.72
7958.4
7962.95
7967.53
7972.07
7976.58
7981.05
7985.52
7989.91
7994.27
7998.39
8002.73
8006.59
8009.73
8013.45
8016.7
8019.92
8022.94
8025.7
8028.05
8030.28
8032.19
8033.8
8035.15
8036.13
8036.84
8037.26
8037.38
8037.11
8036.46
8035.48
8034.13
8032.42
8030.34
8027.85
8025.05
8021.92
8018.46
8014.72
8010.6
8006.13
8001.38
7996.41
7991.2
7985.69
7979.93
7973.93
7967.75
7961.4
7954.89
7948.23
7941.42
7934.5
7927.5
7920.43
7913.3
7906.11
7898.9
7891.74
7884.6
7877.49
7870.39
7863.4
7856.55
7849.78
7843.12
7836.59
7830.15
7823.91
7817.85
7812
7806.33
7800.82
7795.47
7790.31
7785.29
7780.48
7775.89
7771.44
7767.14
7762.95
7758.93
7755.04
7751.3
7747.66
7744.1
7740.62
7737.2
7733.86
7730.62
7727.48
7724.44
7721.5
7718.67
7715.98
7713.46
7711.1
7708.91
7706.87
7704.99
7703.29
7701.81
7700.52
7699.39
7698.43
7697.65
7697.04
7696.62
7696.39
7696.37
7696.5
7696.78
7697.22
7697.8
7698.54
7699.43
7700.48
7701.68
7702.99
7704.42
7705.95
7707.59
7709.35
7711.2
7713.17
7715.22
7717.34
7719.52
7721.76
7724.07
7726.42
7728.83
7731.29
7733.8
7736.36
7738.93
7741.52
7744.12
7746.73
7749.37
7752.05
7754.71
7757.37
7760.02
7762.66
7765.3
7767.94
7770.56
7773.18
7775.78
7778.35
7780.9
7783.43
7785.94
7788.42
7790.88
7793.29
7795.68
7798.04
7800.38
7802.69
7804.96
7807.19
7809.38
7811.54
7813.65
7815.73
7817.78
7819.8
7821.78
7823.71
7825.6
7827.46
7829.27
7831.04
7832.78
7834.49
7836.15
7837.77
7839.36
7840.91
7842.42
7843.89
7845.33
7846.73
7848.11
7849.45
7850.75
7852.02
7853.25
7854.46
7855.64
7856.79
7857.92
7859.01
7860.08
7861.13
7862.15
7863.15
7864.13
7865.09
7866.04
7866.97
7867.88
7868.78
7869.66
7870.54
7871.4
7872.26
7873.11
7873.95
7874.79
7875.63
7876.46
7877.29
7878.12
7878.95
7879.78
7880.61
7881.45
7882.28
7883.12
7883.96
7884.8
7885.65
7886.5
7887.35
7888.21
7889.08
7889.94
7890.82
7891.69
7892.57
7893.46
7894.34
7895.23
7896.13
7897.02
7897.92
7898.82
7899.73
7900.63
7901.54
7902.44
7903.34
7904.25
7905.15
7906.04
7906.94
7907.82
7908.71
7909.58
7910.45
7911.3
7912.15
7912.98
7913.81
7914.61
7915.41
7916.18
7916.94
7917.68
7918.4
7919.1
7919.78
7920.43
7921.06
7921.66
7922.24
7922.79
7923.32
7923.81
7924.28
7924.72
7925.12
7925.5
7925.85
7926.16
7926.44
7926.69
7926.91
7927.1
7927.26
7927.38
7927.47
7927.54
7927.57
7927.57
7927.54
7927.47
7927.38
7927.26
7927.12
7926.94
7926.74
7926.51
7926.25
7925.97
7925.67
7925.34
7924.99
7924.62
7924.22
7923.8
7923.37
7922.92
7922.44
7921.96
7921.45
7920.94
7920.4
7919.85
7919.29
7918.73
7918.17
7917.59
7916.98
7916.39
7915.67
7915.1
7914.68
7914.1
7913.59
7913.04
7912.48
7911.92
7911.33
7910.74
7910.14
7909.53
7908.9
7908.28
7907.65
7907.02
7906.37
7905.74
7905.03
7904.41
7903.85
7903.23
7902.63
7902.03
7901.41
7900.81
7900.18
7899.57
7898.95
7898.32
7897.71
7897.06
7896.46
7895.78
7895.21
7894.6
7894.04
7893.41
7892.87
7891.95
7891.53
7891.18
7890.73
7890.28
7889.85
7889.4
7888.94
7888.48
7888.01
7887.53
7887.05
7886.57
7886.08
7885.59
7885.1
7884.61
7884.12
7883.64
7883.15
7882.67
7882.19
7881.71
7881.24
7880.78
7880.32
7879.87
7879.42
7878.98
7878.55
7878.13
7877.72
7877.32
7876.93
7876.55
7876.19
7875.84
7875.5
7875.18
7874.87
7874.58
7874.31
7874.05
7873.81
7873.59
7873.39
7873.21
7873.06
7872.92
7872.81
7872.72
7872.66
7872.61
7872.6
7872.6
7872.64
7872.7
7872.78
7872.9
7873.04
7873.21
7873.4
7873.63
7873.88
7874.16
7874.47
7874.81
7875.18
7875.57
7876
7876.45
7876.93
7877.44
7877.98
7878.55
7879.15
7879.77
7880.42
7881.11
7881.82
7882.56
7883.33
7884.09
7885
7885.81
8060.08
8052.68
8047.93
8042.95
8038.21
8033.51
8028.63
8023.6
8018.47
8013.25
8007.83
8002.62
7997.6
7992.75
7987.76
7982.54
7977.22
7971.81
7966.43
7961.21
7956.38
7952.06
7948.01
7944.12
7940.37
7936.57
7932.53
7928.26
7923.75
7919.33
7915.06
7911.06
7907.46
7904.29
7901.26
7898.29
7895.37
7892.39
7889.17
7886.13
7883.17
7880.15
7877.14
7874.14
7871.48
7869.13
7866.88
7864.61
7862.36
7860.16
7858.25
7856.59
7855.08
7853.57
7852.17
7850.88
7849.68
7848.5
7847.55
7846.8
7846.27
7845.83
7845.37
7844.85
7844.51
7844.42
7844.58
7844.93
7845.29
7845.71
7846.22
7846.79
7847.33
7848.06
7848.96
7850.07
7851.16
7852.32
7853.46
7854.72
7856.16
7857.6
7859.25
7860.65
7861.82
7864.88
7867.64
7870.62
7873.68
7876.42
7879.43
7882.52
7885.89
7889.49
7893.09
7896.93
7900.94
7904.95
7909.05
7913.25
7917.37
7921.79
7926.2
7930.75
7935.73
7940
7943.81
7948.33
7952.88
7957.75
7962.5
7967.53
7972.22
7976.74
7981.09
7985.54
7989.99
7994.45
7998.7
8002.73
8006.7
8010.46
8014.62
8018.05
8020.37
8023.38
8025.91
8028.5
8031.04
8033.12
8034.68
8035.94
8036.89
8037.67
8038.21
8038.41
8038.19
8037.5
8036.5
8035.19
8033.51
8031.44
8028.92
8026.11
8022.97
8019.53
8015.77
8011.59
8007.06
8002.32
7997.36
7992.14
7986.57
7980.68
7974.73
7968.59
7962.2
7955.6
7948.81
7941.96
7935.06
7928.06
7920.95
7913.77
7906.53
7899.23
7892.06
7884.91
7877.74
7870.58
7863.56
7856.69
7849.91
7843.23
7836.67
7830.21
7823.91
7817.82
7811.92
7806.26
7800.74
7795.38
7790.18
7785.11
7780.26
7775.64
7771.2
7766.89
7762.7
7758.61
7754.68
7750.88
7747.24
7743.68
7740.18
7736.73
7733.36
7730.1
7726.97
7723.92
7720.96
7718.1
7715.41
7712.88
7710.53
7708.32
7706.26
7704.35
7702.67
7701.19
7699.92
7698.79
7697.84
7697.07
7696.46
7696.04
7695.82
7695.81
7695.97
7696.26
7696.72
7697.31
7698.05
7698.96
7700.02
7701.26
7702.59
7704.04
7705.59
7707.23
7709
7710.9
7712.9
7714.95
7717.08
7719.27
7721.51
7723.81
7726.2
7728.64
7731.15
7733.68
7736.23
7738.8
7741.4
7743.99
7746.62
7749.28
7751.97
7754.65
7757.31
7759.97
7762.61
7765.26
7767.92
7770.56
7773.17
7775.74
7778.31
7780.89
7783.44
7785.95
7788.43
7790.89
7793.3
7795.69
7798.05
7800.4
7802.72
7804.98
7807.21
7809.41
7811.57
7813.68
7815.76
7817.8
7819.81
7821.8
7823.73
7825.63
7827.48
7829.29
7831.06
7832.79
7834.51
7836.17
7837.79
7839.37
7840.92
7842.43
7843.9
7845.34
7846.75
7848.12
7849.45
7850.75
7852.02
7853.26
7854.46
7855.63
7856.78
7857.9
7859.01
7860.07
7861.12
7862.13
7863.14
7864.12
7865.08
7866.02
7866.95
7867.86
7868.76
7869.65
7870.52
7871.38
7872.24
7873.09
7873.94
7874.78
7875.61
7876.45
7877.28
7878.11
7878.94
7879.77
7880.6
7881.43
7882.26
7883.1
7883.94
7884.78
7885.63
7886.48
7887.33
7888.19
7889.05
7889.92
7890.79
7891.67
7892.55
7893.43
7894.32
7895.21
7896.11
7897.01
7897.91
7898.81
7899.72
7900.62
7901.53
7902.44
7903.34
7904.25
7905.15
7906.05
7906.95
7907.84
7908.73
7909.61
7910.48
7911.34
7912.19
7913.03
7913.86
7914.67
7915.47
7916.25
7917.02
7917.76
7918.48
7919.19
7919.87
7920.53
7921.16
7921.77
7922.35
7922.91
7923.43
7923.93
7924.4
7924.84
7925.25
7925.63
7925.98
7926.29
7926.58
7926.83
7927.05
7927.24
7927.39
7927.52
7927.61
7927.67
7927.7
7927.7
7927.67
7927.6
7927.51
7927.39
7927.24
7927.06
7926.85
7926.62
7926.36
7926.08
7925.77
7925.44
7925.09
7924.71
7924.31
7923.89
7923.46
7923
7922.53
7922.03
7921.52
7920.98
7920.46
7919.92
7919.37
7918.78
7918.2
7917.49
7916.93
7916.52
7915.95
7915.42
7914.86
7914.29
7913.71
7913.15
7912.57
7911.99
7911.39
7910.8
7910.2
7909.58
7908.96
7908.32
7907.69
7906.98
7906.36
7905.8
7905.18
7904.57
7903.95
7903.32
7902.7
7902.08
7901.46
7900.85
7900.21
7899.62
7898.94
7898.35
7897.64
7897.08
7896.43
7895.87
7895.2
7894.62
7893.65
7893.21
7892.84
7892.37
7891.88
7891.4
7890.9
7890.41
7889.94
7889.46
7888.99
7888.52
7888.04
7887.55
7887.06
7886.57
7886.08
7885.58
7885.09
7884.59
7884.1
7883.61
7883.13
7882.64
7882.16
7881.68
7881.21
7880.74
7880.28
7879.83
7879.38
7878.94
7878.51
7878.08
7877.67
7877.27
7876.87
7876.49
7876.13
7875.77
7875.43
7875.1
7874.79
7874.49
7874.22
7873.96
7873.72
7873.5
7873.29
7873.11
7872.95
7872.81
7872.7
7872.6
7872.54
7872.49
7872.47
7872.48
7872.51
7872.57
7872.65
7872.77
7872.91
7873.07
7873.27
7873.49
7873.74
7874.03
7874.34
7874.67
7875.04
7875.44
7875.86
7876.31
7876.8
7877.31
7877.85
7878.42
7879.01
7879.64
7880.29
7880.98
7881.69
7882.42
7883.2
7883.95
7884.86
7885.68
8060.3
8052.93
8048.04
8043.07
8038.17
8033.35
8028.38
8023.32
8018.18
8012.89
8007.44
8002.4
7997.66
7992.76
7987.67
7982.43
7977.12
7971.82
7966.56
7961.44
7956.63
7952.19
7948
7943.97
7940.04
7936.15
7932.04
7927.56
7923.09
7918.71
7914.33
7910.19
7906.42
7903.23
7900.08
7897.09
7894.1
7890.9
7887.89
7885.01
7882.07
7879.1
7876.06
7873
7870.39
7868.19
7865.95
7863.68
7861.41
7859.14
7857.23
7855.58
7854.16
7852.67
7851.27
7849.99
7848.78
7847.6
7846.61
7846.09
7845.53
7845
7844.56
7844.16
7843.6
7843.48
7843.53
7843.79
7844.38
7844.93
7845.49
7846.13
7846.85
7847.47
7848.41
7849.56
7850.7
7851.94
7853.31
7854.34
7856.05
7857.61
7859.34
7861.26
7863.23
7865.09
7867.13
7869
7870.45
7874.26
7878.25
7881.77
7885.22
7888.59
7892.02
7895.63
7899.86
7904.05
7908.24
7912.38
7916.66
7921.02
7925.62
7929.86
7934.58
7938.98
7943.82
7948.57
7954.23
7959
7962.58
7967.26
7971.7
7976.41
7981.24
7985.88
7990.4
7994.76
7998.93
8003.12
8007.13
8010.97
8014.56
8018.22
8021.49
8025.19
8027.97
8029.54
8032.11
8033.87
8035.58
8037.17
8038.38
8039.2
8039.74
8039.87
8039.63
8038.92
8037.99
8036.69
8035.1
8033.07
8030.57
8027.69
8024.59
8021.21
8017.34
8013.05
8008.54
8003.77
7998.81
7993.55
7987.86
7981.95
7975.94
7969.78
7963.35
7956.67
7949.8
7942.89
7935.88
7928.86
7921.73
7914.48
7907.13
7899.79
7892.51
7885.36
7878.14
7870.91
7863.84
7856.87
7850.09
7843.39
7836.78
7830.3
7823.89
7817.76
7811.83
7806.15
7800.59
7795.19
7789.94
7784.79
7779.9
7775.2
7770.76
7766.42
7762.2
7758.1
7754.07
7750.21
7746.48
7742.94
7739.43
7735.98
7732.58
7729.25
7726.06
7723.01
7720.08
7717.25
7714.54
7712
7709.62
7707.38
7705.27
7703.4
7701.72
7700.29
7699.01
7697.88
7696.93
7696.14
7695.53
7695.15
7694.96
7695
7695.16
7695.47
7695.95
7696.59
7697.35
7698.26
7699.34
7700.56
7701.96
7703.45
7705.03
7706.69
7708.48
7710.43
7712.45
7714.53
7716.68
7718.86
7721.12
7723.47
7725.9
7728.41
7730.92
7733.45
7736.01
7738.56
7741.16
7743.81
7746.48
7749.2
7751.87
7754.54
7757.18
7759.84
7762.54
7765.24
7767.89
7770.52
7773.12
7775.7
7778.28
7780.87
7783.44
7785.96
7788.44
7790.91
7793.33
7795.71
7798.07
7800.42
7802.75
7805.02
7807.24
7809.42
7811.58
7813.73
7815.83
7817.87
7819.86
7821.81
7823.74
7825.66
7827.52
7829.32
7831.09
7832.83
7834.54
7836.2
7837.8
7839.37
7840.93
7842.46
7843.93
7845.37
7846.76
7848.11
7849.44
7850.75
7852.03
7853.26
7854.46
7855.63
7856.77
7857.89
7858.99
7860.06
7861.09
7862.1
7863.11
7864.1
7865.06
7866
7866.91
7867.83
7868.74
7869.62
7870.5
7871.35
7872.21
7873.07
7873.92
7874.76
7875.59
7876.42
7877.25
7878.08
7878.91
7879.74
7880.57
7881.4
7882.23
7883.07
7883.91
7884.75
7885.59
7886.44
7887.3
7888.16
7889.02
7889.88
7890.75
7891.63
7892.52
7893.4
7894.29
7895.18
7896.07
7896.97
7897.88
7898.79
7899.7
7900.61
7901.52
7902.43
7903.34
7904.25
7905.16
7906.07
7906.97
7907.87
7908.76
7909.65
7910.53
7911.4
7912.26
7913.11
7913.94
7914.76
7915.57
7916.36
7917.13
7917.88
7918.61
7919.32
7920.01
7920.67
7921.32
7921.93
7922.52
7923.08
7923.61
7924.12
7924.59
7925.03
7925.45
7925.83
7926.17
7926.49
7926.78
7927.03
7927.25
7927.44
7927.6
7927.72
7927.81
7927.87
7927.9
7927.89
7927.86
7927.8
7927.7
7927.58
7927.42
7927.23
7927.03
7926.79
7926.54
7926.25
7925.93
7925.6
7925.24
7924.86
7924.46
7924.04
7923.58
7923.13
7922.63
7922.14
7921.64
7921.12
7920.55
7920
7919.31
7918.77
7918.37
7917.82
7917.3
7916.74
7916.17
7915.6
7915.04
7914.46
7913.88
7913.29
7912.71
7912.12
7911.52
7910.91
7910.27
7909.64
7908.95
7908.32
7907.78
7907.16
7906.54
7905.92
7905.27
7904.65
7904
7903.4
7902.75
7902.14
7901.47
7900.86
7900.18
7899.58
7898.98
7898.36
7897.77
7897.08
7896.47
7895.46
7895.01
7894.63
7894.12
7893.6
7893.08
7892.54
7892.02
7891.53
7891.03
7890.54
7890.05
7889.56
7889.07
7888.58
7888.08
7887.59
7887.09
7886.59
7886.09
7885.59
7885.09
7884.59
7884.1
7883.6
7883.11
7882.62
7882.13
7881.65
7881.17
7880.7
7880.23
7879.77
7879.32
7878.88
7878.44
7878.01
7877.59
7877.18
7876.79
7876.4
7876.03
7875.67
7875.32
7874.99
7874.67
7874.37
7874.09
7873.82
7873.57
7873.35
7873.14
7872.95
7872.79
7872.64
7872.52
7872.43
7872.35
7872.31
7872.28
7872.29
7872.31
7872.37
7872.45
7872.56
7872.7
7872.86
7873.06
7873.28
7873.53
7873.81
7874.12
7874.46
7874.82
7875.22
7875.64
7876.1
7876.58
7877.09
7877.63
7878.2
7878.79
7879.42
7880.08
7880.76
7881.47
7882.21
7882.98
7883.74
7884.65
7885.47
8060.91
8053.52
8048.47
8043.46
8038.41
8033.46
8028.39
8023.28
8018.12
8012.82
8007.38
8002.55
7997.67
7992.61
7987.49
7982.32
7977.11
7971.92
7966.78
7961.77
7956.95
7952.33
7947.89
7943.59
7939.34
7935.01
7930.82
7926.39
7922.21
7917.94
7913.73
7909.73
7905.96
7902.45
7899.09
7895.72
7892.45
7889.35
7886.44
7883.7
7880.7
7877.75
7874.79
7871.83
7869.21
7867.03
7864.7
7862.43
7860.19
7857.9
7855.88
7854.44
7852.95
7851.44
7850.04
7848.76
7847.61
7846.58
7845.72
7844.98
7844.34
7843.81
7843.39
7843.06
7842.55
7842.26
7842.33
7842.52
7843.15
7843.88
7844.5
7845.18
7845.95
7846.82
7847.73
7848.73
7849.87
7851.21
7852.64
7854.07
7855.66
7857.34
7858.76
7860.69
7862.71
7864.89
7867.28
7869.85
7872.34
7874.94
7877.24
7878.76
7882.67
7887.32
7891.3
7894.81
7898.55
7902.76
7906.99
7911.54
7915.8
7920.23
7924.83
7929.46
7934.14
7938.9
7943.19
7948.12
7952.88
7958.06
7962.94
7968.93
7973.54
7976.79
7981.26
7985.57
7990.29
7995.2
7999.58
8003.68
8007.67
8011.49
8015.31
8018.94
8022.3
8025.3
8028.27
8031.11
8034.65
8036.83
8037.19
8038.76
8039.56
8040.78
8041.57
8042.11
8042.08
8041.39
8040.29
8038.85
8037.12
8035.13
8032.85
8030.11
8026.94
8023.39
8019.36
8015.05
8010.55
8005.79
8000.84
7995.4
7989.58
7983.67
7977.57
7971.37
7964.89
7958.15
7951.15
7944.15
7937.05
7929.95
7922.77
7915.43
7907.94
7900.55
7893.19
7885.93
7878.72
7871.4
7864.2
7857.14
7850.29
7843.56
7836.89
7830.32
7823.83
7817.63
7811.71
7805.96
7800.31
7794.84
7789.53
7784.31
7779.32
7774.55
7770
7765.66
7761.39
7757.24
7753.2
7749.22
7745.42
7741.82
7738.29
7734.81
7731.4
7728.02
7724.81
7721.72
7718.81
7716.02
7713.31
7710.76
7708.32
7706.02
7703.97
7702.1
7700.5
7699.06
7697.75
7696.63
7695.64
7694.85
7694.31
7693.98
7693.88
7693.88
7694.01
7694.32
7694.84
7695.58
7696.43
7697.41
7698.51
7699.71
7701.06
7702.56
7704.19
7705.95
7707.88
7709.83
7711.86
7713.97
7716.14
7718.33
7720.64
7723.03
7725.54
7728.06
7730.58
7733.12
7735.66
7738.27
7740.92
7743.61
7746.35
7749.04
7751.73
7754.39
7757.03
7759.72
7762.42
7765.16
7767.83
7770.47
7773.06
7775.66
7778.26
7780.88
7783.44
7785.96
7788.46
7790.92
7793.36
7795.75
7798.1
7800.47
7802.79
7805.06
7807.26
7809.46
7811.63
7813.79
7815.88
7817.93
7819.93
7821.86
7823.79
7825.68
7827.55
7829.39
7831.17
7832.9
7834.58
7836.2
7837.82
7839.4
7840.97
7842.49
7843.96
7845.39
7846.77
7848.11
7849.45
7850.76
7852.03
7853.26
7854.46
7855.62
7856.75
7857.88
7858.98
7860.03
7861.06
7862.07
7863.08
7864.07
7865.04
7865.96
7866.89
7867.8
7868.71
7869.6
7870.47
7871.33
7872.18
7873.04
7873.9
7874.74
7875.57
7876.39
7877.22
7878.05
7878.88
7879.71
7880.54
7881.37
7882.2
7883.02
7883.86
7884.71
7885.56
7886.41
7887.25
7888.1
7888.96
7889.83
7890.71
7891.59
7892.47
7893.36
7894.25
7895.13
7896.02
7896.93
7897.84
7898.76
7899.67
7900.59
7901.5
7902.42
7903.34
7904.25
7905.18
7906.09
7907
7907.91
7908.81
7909.71
7910.6
7911.48
7912.35
7913.21
7914.05
7914.88
7915.7
7916.5
7917.28
7918.04
7918.78
7919.5
7920.19
7920.87
7921.52
7922.15
7922.74
7923.31
7923.85
7924.36
7924.84
7925.29
7925.7
7926.09
7926.43
7926.76
7927.05
7927.31
7927.53
7927.71
7927.87
7927.99
7928.08
7928.14
7928.16
7928.15
7928.12
7928.06
7927.96
7927.83
7927.67
7927.48
7927.26
7927.03
7926.76
7926.47
7926.16
7925.81
7925.45
7925.05
7924.65
7924.2
7923.76
7923.31
7922.82
7922.29
7921.77
7921.11
7920.59
7920.22
7919.69
7919.19
7918.64
7918.08
7917.52
7916.97
7916.4
7915.83
7915.24
7914.65
7914.06
7913.47
7912.85
7912.24
7911.55
7910.94
7910.41
7909.79
7909.2
7908.57
7907.95
7907.3
7906.68
7906.03
7905.41
7904.75
7904.13
7903.47
7902.84
7902.16
7901.54
7900.95
7900.31
7899.77
7899.02
7898.41
7897.36
7896.91
7896.5
7895.97
7895.43
7894.88
7894.31
7893.77
7893.24
7892.72
7892.19
7891.67
7891.16
7890.66
7890.15
7889.65
7889.14
7888.63
7888.12
7887.62
7887.11
7886.61
7886.1
7885.59
7885.09
7884.58
7884.08
7883.58
7883.08
7882.58
7882.09
7881.61
7881.12
7880.64
7880.17
7879.71
7879.25
7878.8
7878.35
7877.92
7877.49
7877.08
7876.67
7876.28
7875.9
7875.53
7875.18
7874.84
7874.51
7874.21
7873.92
7873.64
7873.39
7873.16
7872.94
7872.75
7872.57
7872.42
7872.3
7872.2
7872.12
7872.06
7872.03
7872.03
7872.06
7872.11
7872.19
7872.29
7872.43
7872.59
7872.78
7873
7873.25
7873.53
7873.84
7874.17
7874.54
7874.93
7875.36
7875.81
7876.3
7876.81
7877.35
7877.92
7878.52
7879.14
7879.8
7880.48
7881.19
7881.93
7882.7
7883.46
7884.37
7885.19
8061.77
8054.35
8049.12
8043.95
8038.79
8033.73
8028.58
8023.38
8018.18
8012.92
8007.67
8002.58
7997.52
7992.4
7987.26
7982.08
7976.89
7971.72
7966.61
7961.57
7956.81
7952.08
7947.46
7942.86
7938.24
7933.89
7929.65
7925.54
7921.25
7916.97
7912.81
7908.81
7904.96
7901.14
7897.3
7893.82
7890.6
7887.94
7885.08
7882.08
7879.06
7876.13
7873.26
7870.51
7867.92
7865.48
7863.12
7860.84
7858.66
7856.5
7854.52
7852.94
7851.37
7849.86
7848.48
7847.2
7846.07
7845.07
7844.2
7843.45
7842.82
7842.31
7841.93
7841.67
7841.42
7840.88
7840.86
7841.07
7841.77
7842.6
7843.25
7843.95
7844.76
7845.68
7846.69
7847.73
7848.57
7850
7851.71
7853.38
7855.08
7856.87
7858.55
7860.53
7862.8
7865.14
7867.45
7869.83
7872.31
7874.96
7877.74
7880.53
7883.36
7885.75
7887.49
7891.87
7897.11
7901.77
7906.25
7910.43
7914.67
7918.86
7923.7
7928.4
7933.2
7937.86
7942.58
7947.26
7952.52
7957.49
7962.32
7967.33
7972.35
7977.41
7983.56
7987.97
7990.66
7994.99
7999.07
8003.6
8008.49
8012.65
8016.33
8019.83
8023.18
8026.49
8029.51
8032.37
8034.9
8037.53
8039.55
8042.27
8043.52
8043.12
8043.95
8044.2
8044.02
8043.58
8043.08
8041.75
8039.99
8037.93
8035.58
8032.8
8029.68
8026.13
8022.01
8017.65
8013.09
8008.39
8003.32
7997.78
7991.84
7985.84
7979.7
7973.42
7966.83
7960.02
7952.91
7945.76
7938.57
7931.41
7924.1
7916.65
7909.04
7901.52
7894.05
7886.74
7879.41
7872.02
7864.64
7857.5
7850.58
7843.74
7836.97
7830.28
7823.68
7817.45
7811.48
7805.59
7799.84
7794.27
7788.88
7783.64
7778.47
7773.6
7768.9
7764.5
7760.2
7755.98
7751.89
7747.9
7744.03
7740.27
7736.58
7733.06
7729.72
7726.4
7723.12
7720.12
7717.19
7714.35
7711.63
7709.03
7706.55
7704.32
7702.28
7700.52
7698.9
7697.42
7696.13
7695
7694.01
7693.28
7692.76
7692.51
7692.41
7692.45
7692.59
7692.96
7693.51
7694.29
7695.21
7696.23
7697.4
7698.68
7700.04
7701.56
7703.24
7705.03
7707.02
7709.03
7711.11
7713.27
7715.5
7717.76
7720.05
7722.51
7725.07
7727.6
7730.14
7732.67
7735.28
7737.94
7740.67
7743.42
7746.12
7748.83
7751.53
7754.19
7756.88
7759.59
7762.35
7765.08
7767.76
7770.41
7773.01
7775.62
7778.26
7780.89
7783.44
7785.97
7788.45
7790.89
7793.36
7795.81
7798.2
7800.54
7802.84
7805.09
7807.31
7809.52
7811.72
7813.86
7815.95
7818
7820
7821.94
7823.85
7825.74
7827.63
7829.46
7831.24
7832.97
7834.64
7836.26
7837.86
7839.47
7841.03
7842.54
7844
7845.41
7846.77
7848.13
7849.49
7850.78
7852.04
7853.27
7854.46
7855.62
7856.75
7857.88
7858.97
7860.02
7861.05
7862.06
7863.08
7864.06
7865.01
7865.95
7866.86
7867.79
7868.69
7869.58
7870.45
7871.3
7872.17
7873.03
7873.87
7874.71
7875.54
7876.37
7877.19
7878.03
7878.85
7879.68
7880.51
7881.34
7882.16
7882.99
7883.82
7884.66
7885.51
7886.36
7887.2
7888.05
7888.91
7889.79
7890.66
7891.54
7892.42
7893.3
7894.18
7895.07
7895.97
7896.88
7897.8
7898.72
7899.64
7900.56
7901.49
7902.41
7903.33
7904.26
7905.19
7906.12
7907.04
7907.96
7908.87
7909.78
7910.68
7911.57
7912.46
7913.33
7914.18
7915.03
7915.86
7916.67
7917.47
7918.24
7919
7919.73
7920.44
7921.12
7921.79
7922.42
7923.02
7923.6
7924.14
7924.66
7925.15
7925.6
7926.03
7926.42
7926.77
7927.09
7927.39
7927.65
7927.87
7928.05
7928.21
7928.34
7928.43
7928.47
7928.49
7928.49
7928.45
7928.38
7928.28
7928.14
7927.97
7927.78
7927.56
7927.32
7927.05
7926.74
7926.42
7926.05
7925.69
7925.32
7924.91
7924.48
7923.99
7923.52
7922.89
7922.41
7922.05
7921.55
7921.08
7920.56
7920.02
7919.47
7918.94
7918.37
7917.81
7917.23
7916.65
7916.07
7915.48
7914.87
7914.26
7913.57
7912.97
7912.46
7911.84
7911.26
7910.63
7910.02
7909.36
7908.74
7908.09
7907.46
7906.8
7906.18
7905.49
7904.87
7904.15
7903.56
7902.89
7902.29
7901.59
7900.96
7899.92
7899.46
7899.05
7898.52
7897.96
7897.37
7896.79
7896.19
7895.62
7895.06
7894.51
7893.96
7893.42
7892.89
7892.35
7891.82
7891.29
7890.77
7890.25
7889.73
7889.21
7888.69
7888.17
7887.66
7887.14
7886.63
7886.11
7885.6
7885.08
7884.57
7884.06
7883.55
7883.05
7882.54
7882.04
7881.55
7881.06
7880.57
7880.09
7879.62
7879.15
7878.69
7878.24
7877.8
7877.36
7876.94
7876.53
7876.13
7875.74
7875.36
7875
7874.65
7874.32
7874
7873.7
7873.42
7873.15
7872.91
7872.69
7872.48
7872.3
7872.15
7872.01
7871.9
7871.81
7871.75
7871.72
7871.71
7871.73
7871.78
7871.85
7871.95
7872.08
7872.24
7872.43
7872.65
7872.9
7873.17
7873.48
7873.82
7874.18
7874.58
7875
7875.45
7875.94
7876.45
7876.99
7877.56
7878.16
7878.79
7879.44
7880.13
7880.84
7881.58
7882.35
7883.11
7884.03
7884.84
8062.8
8055.35
8049.94
8044.61
8039.3
8034.09
8028.82
8023.52
8018.25
8012.96
8007.67
8002.44
7997.28
7992.1
7986.9
7981.71
7976.51
7971.34
7966.23
7961.2
7956.3
7951.49
7946.76
7942.03
7937.25
7932.72
7928.65
7924.38
7920.05
7915.79
7911.57
7907.29
7902.99
7899.12
7895.57
7892.21
7889.46
7886.45
7883.32
7880.2
7877.18
7874.24
7871.4
7868.68
7866.07
7863.59
7861.21
7858.94
7856.77
7854.73
7852.76
7850.91
7849.32
7847.88
7846.52
7845.28
7844.16
7843.17
7842.31
7841.58
7840.97
7840.49
7840.14
7839.92
7839.82
7839.7
7839.27
7839.3
7840.18
7841
7841.7
7842.45
7843.3
7844.27
7845.33
7846.33
7847.26
7848.67
7850.42
7852.33
7854.16
7856.05
7858.05
7860.14
7862.33
7864.57
7866.86
7869
7871.66
7874.71
7877.75
7880.64
7883.55
7886.51
7889.72
7893.43
7896.67
7898.58
7903
7909.04
7913.73
7918.28
7922.72
7927.39
7931.87
7937.02
7941.55
7946.35
7951.56
7956.85
7961.9
7966.96
7972.07
7976.77
7981.71
7986.7
7991.88
7998.51
8002.83
8004.67
8008.55
8012.27
8016.49
8021.01
8024.58
8027.71
8030.79
8033.56
8036.44
8038.92
8041.1
8043.02
8044.38
8045.9
8046.91
8049.2
8049.51
8047.21
8046.52
8044.75
8042.95
8041.48
8039.28
8036.37
8033.09
8029.39
8025.15
8020.79
8016.32
8011.57
8006.31
8000.71
7994.65
7988.49
7982.35
7975.91
7969.17
7962.25
7955.09
7947.7
7940.49
7933.18
7925.7
7918.13
7910.45
7902.67
7895.19
7887.72
7880.19
7872.71
7865.18
7857.94
7850.88
7843.87
7836.97
7830.16
7823.4
7817.14
7811.03
7804.99
7799.11
7793.35
7787.85
7782.55
7777.4
7772.36
7767.45
7762.83
7758.5
7754.25
7750.08
7746.04
7742.11
7738.2
7734.45
7730.89
7727.44
7724.2
7721.07
7718
7715.03
7712.19
7709.45
7706.79
7704.38
7702.17
7700.24
7698.48
7696.83
7695.37
7694.11
7693.04
7692.13
7691.36
7690.85
7690.56
7690.57
7690.7
7690.97
7691.36
7691.93
7692.75
7693.68
7694.68
7695.91
7697.38
7698.89
7700.46
7702.1
7703.93
7705.91
7708.06
7710.21
7712.42
7714.68
7716.96
7719.34
7721.9
7724.49
7727.06
7729.66
7732.26
7734.85
7737.55
7740.36
7743.11
7745.85
7748.59
7751.31
7753.99
7756.7
7759.45
7762.25
7764.98
7767.68
7770.36
7772.98
7775.57
7778.26
7780.88
7783.45
7785.97
7788.43
7790.9
7793.38
7795.86
7798.25
7800.6
7802.91
7805.15
7807.38
7809.6
7811.81
7813.94
7816.03
7818.08
7820.08
7822.03
7823.93
7825.86
7827.73
7829.54
7831.31
7833.04
7834.72
7836.33
7837.92
7839.54
7841.09
7842.59
7844.04
7845.45
7846.81
7848.14
7849.49
7850.8
7852.06
7853.27
7854.46
7855.63
7856.77
7857.88
7858.95
7859.99
7861.04
7862.07
7863.07
7864.04
7865
7865.94
7866.86
7867.77
7868.66
7869.54
7870.41
7871.3
7872.16
7873.01
7873.85
7874.67
7875.51
7876.35
7877.18
7878
7878.82
7879.64
7880.46
7881.29
7882.12
7882.95
7883.79
7884.62
7885.45
7886.3
7887.14
7888
7888.86
7889.73
7890.59
7891.47
7892.34
7893.22
7894.12
7895.02
7895.92
7896.83
7897.75
7898.67
7899.6
7900.53
7901.46
7902.39
7903.33
7904.26
7905.2
7906.14
7907.08
7908.01
7908.93
7909.86
7910.78
7911.69
7912.58
7913.46
7914.34
7915.21
7916.06
7916.89
7917.7
7918.49
7919.26
7920
7920.72
7921.42
7922.1
7922.75
7923.36
7923.95
7924.51
7925.04
7925.53
7925.99
7926.42
7926.82
7927.17
7927.51
7927.8
7928.06
7928.28
7928.47
7928.63
7928.75
7928.83
7928.88
7928.9
7928.9
7928.85
7928.77
7928.65