/*--------------------------------*- C++ -*----------------------------------*\
| =========                 |                                                 |
| \\      /  F ield         | OpenFOAM: The Open Source CFD Toolbox           |
|  \\    /   O peration     | Version:  v2006                                 |
|   \\  /    A nd           | Website:  www.openfoam.com                      |
|    \\/     M anipulation  |                                                 |
\*---------------------------------------------------------------------------*/
FoamFile
{
    version     2.0;
    format      ascii;
    class       surfaceScalarField;
    location    "9.7";
    object      phi;
}
// * * * * * * * * * * * * * * * * * * * * * * * * * * * * * * * * * * * * * //

dimensions      [0 3 -1 0 0 0 0];
oriented        oriented;


internalField   nonuniform List<scalar> 
65390
(
1.11933e-05
8.26496e-06
7.05239e-06
4.13688e-06
4.48612e-06
2.56259e-06
6.1414e-06
-1.65828e-06
1.05598e-05
-4.42075e-06
1.58815e-05
-5.32356e-06
2.11399e-05
-5.25998e-06
2.6104e-05
-4.96526e-06
3.10748e-05
-4.97172e-06
3.60137e-05
-4.93955e-06
3.9929e-05
-3.91593e-06
4.26761e-05
-2.74751e-06
4.47734e-05
-2.09777e-06
4.653e-05
-1.75683e-06
4.85507e-05
-2.02103e-06
5.05554e-05
-2.00493e-06
5.24574e-05
-1.90231e-06
5.45806e-05
-2.12332e-06
5.66229e-05
-2.0425e-06
5.75473e-05
-9.24634e-07
5.67593e-05
7.87833e-07
5.50027e-05
1.75642e-06
5.26441e-05
2.35842e-06
4.93901e-05
3.25379e-06
4.49172e-05
4.47274e-06
4.01022e-05
4.81482e-06
3.65259e-05
3.57617e-06
3.45825e-05
1.94322e-06
3.4114e-05
4.68295e-07
3.44272e-05
-3.13315e-07
3.45906e-05
-1.63532e-07
3.39815e-05
6.08942e-07
3.20517e-05
1.92965e-06
2.93683e-05
2.68317e-06
2.63032e-05
3.065e-06
2.13289e-05
4.97423e-06
1.5506e-05
5.8227e-06
1.07573e-05
4.74867e-06
6.84625e-06
3.91093e-06
3.83237e-06
3.01378e-06
2.32522e-06
1.50705e-06
1.39635e-06
9.2877e-07
3.00311e-07
1.09593e-06
-1.70435e-06
2.00456e-06
-3.91877e-06
2.21432e-06
-4.89659e-06
9.77739e-07
-5.03963e-06
1.42955e-07
-5.08819e-06
4.8478e-08
-5.68701e-06
5.98729e-07
-7.13309e-06
1.44599e-06
-8.41041e-06
1.27721e-06
-8.8637e-06
4.53189e-07
-8.45612e-06
-4.07685e-07
-7.67866e-06
-7.77564e-07
-6.70014e-06
-9.78598e-07
-5.62852e-06
-1.0717e-06
-4.56033e-06
-1.06825e-06
-3.67629e-06
-8.84095e-07
-3.05753e-06
-6.18807e-07
-2.97166e-06
-8.59127e-08
-3.45907e-06
4.87373e-07
-4.35718e-06
8.98067e-07
-5.3697e-06
1.01249e-06
-6.19476e-06
8.25027e-07
-6.71475e-06
5.19964e-07
-6.99062e-06
2.75836e-07
-6.94956e-06
-4.10918e-08
-6.39501e-06
-5.54587e-07
-5.21664e-06
-1.17842e-06
-3.56975e-06
-1.64694e-06
-1.64188e-06
-1.92792e-06
2.38868e-07
-1.88078e-06
1.84241e-06
-1.60357e-06
3.23024e-06
-1.38784e-06
4.58319e-06
-1.35294e-06
6.12434e-06
-1.54114e-06
7.82877e-06
-1.70442e-06
8.81831e-06
-9.89522e-07
9.11709e-06
-2.98758e-07
9.28244e-06
-1.65328e-07
8.8603e-06
4.22157e-07
8.25366e-06
6.06654e-07
7.68418e-06
5.69491e-07
7.31014e-06
3.74038e-07
7.02855e-06
2.81581e-07
6.67988e-06
3.48664e-07
6.37958e-06
3.00283e-07
6.29334e-06
8.62258e-08
6.3686e-06
-7.52772e-08
6.44618e-06
-7.7602e-08
6.57593e-06
-1.29783e-07
6.73592e-06
-1.60003e-07
6.80322e-06
-6.73221e-08
6.82905e-06
-2.58344e-08
6.71743e-06
1.11612e-07
6.56413e-06
1.53293e-07
6.29186e-06
2.72266e-07
5.96802e-06
3.23857e-07
4.99258e-06
9.75441e-07
3.27535e-06
1.71723e-06
1.74257e-06
1.53277e-06
1.0157e-06
7.26851e-07
1.08103e-06
-6.53492e-08
1.18594e-06
-1.04948e-07
1.68685e-06
-5.00936e-07
2.29177e-06
-6.04947e-07
2.69706e-06
-4.05326e-07
2.86273e-06
-1.65706e-07
3.05108e-06
-1.88391e-07
3.41748e-06
-3.66453e-07
3.74812e-06
-3.30689e-07
4.14136e-06
-3.93305e-07
4.51036e-06
-3.69066e-07
4.82001e-06
-3.09723e-07
4.91592e-06
-9.59795e-08
4.92797e-06
-1.2113e-08
4.47525e-06
4.52651e-07
3.81402e-06
6.61159e-07
3.49482e-06
3.19132e-07
3.64172e-06
-1.46971e-07
4.05752e-06
-4.1588e-07
4.37558e-06
-3.18132e-07
4.88982e-06
-5.14317e-07
5.46489e-06
-5.75152e-07
5.87921e-06
-4.1442e-07
6.25842e-06
-3.79307e-07
6.63624e-06
-3.77934e-07
6.99009e-06
-3.53983e-07
7.38084e-06
-3.90896e-07
7.7883e-06
-4.07624e-07
8.16988e-06
-3.8175e-07
8.53556e-06
-3.6587e-07
8.87383e-06
-3.38471e-07
9.20444e-06
-3.30824e-07
9.53874e-06
-3.34528e-07
9.87891e-06
-3.40398e-07
1.02176e-05
-3.38866e-07
1.05433e-05
-3.25928e-07
1.08591e-05
-3.16054e-07
1.11664e-05
-3.0737e-07
1.1464e-05
-2.97774e-07
1.17473e-05
-2.8338e-07
1.20076e-05
-2.6029e-07
1.2251e-05
-2.43441e-07
1.2481e-05
-2.29976e-07
1.27024e-05
-2.21294e-07
1.29135e-05
-2.10918e-07
1.3106e-05
-1.92369e-07
1.32711e-05
-1.64877e-07
1.34162e-05
-1.44788e-07
1.35534e-05
-1.36928e-07
1.36798e-05
-1.26141e-07
1.37875e-05
-1.07329e-07
1.38736e-05
-8.57995e-08
1.3939e-05
-6.50637e-08
1.39875e-05
-4.81091e-08
1.402e-05
-3.22547e-08
1.40359e-05
-1.55922e-08
1.40323e-05
3.90817e-09
1.40092e-05
2.32461e-08
1.39682e-05
4.12526e-08
1.39093e-05
5.89742e-08
1.38332e-05
7.62244e-08
1.37378e-05
9.54048e-08
1.36172e-05
1.20647e-07
1.3474e-05
1.43183e-07
1.33145e-05
1.59377e-07
1.3139e-05
1.75414e-07
1.29404e-05
1.98484e-07
1.27089e-05
2.31284e-07
1.24532e-05
2.55514e-07
1.21828e-05
2.70093e-07
1.18946e-05
2.87859e-07
1.15853e-05
3.08997e-07
1.12471e-05
3.37836e-07
1.08691e-05
3.77709e-07
1.04609e-05
4.07915e-07
1.00308e-05
4.29712e-07
9.58592e-06
4.44651e-07
9.12746e-06
4.582e-07
8.64708e-06
4.80134e-07
8.14379e-06
5.03023e-07
7.61769e-06
5.25824e-07
7.06312e-06
5.54278e-07
6.49337e-06
5.69452e-07
5.92398e-06
5.69086e-07
5.35562e-06
5.68079e-07
4.77867e-06
5.76693e-07
4.18977e-06
5.8867e-07
3.59702e-06
5.9253e-07
3.01029e-06
5.8654e-07
2.43977e-06
5.70332e-07
1.88696e-06
5.52623e-07
1.34961e-06
5.37182e-07
8.25173e-07
5.24279e-07
3.0754e-07
5.17486e-07
-1.99969e-07
5.07373e-07
-6.89782e-07
4.89685e-07
-1.15468e-06
4.64775e-07
-1.59255e-06
4.37749e-07
-2.0133e-06
4.20635e-07
-2.42245e-06
4.09032e-07
-2.82057e-06
3.98021e-07
-3.20588e-06
3.85232e-07
-3.57459e-06
3.68662e-07
-3.92458e-06
3.4997e-07
-4.26102e-06
3.36453e-07
-4.58898e-06
3.27993e-07
-4.91052e-06
3.21587e-07
-5.21644e-06
3.05955e-07
-5.49908e-06
2.82663e-07
-5.76785e-06
2.68786e-07
-6.02601e-06
2.58162e-07
-6.27474e-06
2.48714e-07
-6.51844e-06
2.43682e-07
-6.7547e-06
2.36217e-07
-6.97755e-06
2.22802e-07
-7.18259e-06
2.04967e-07
-7.37229e-06
1.8962e-07
-7.55173e-06
1.79359e-07
-7.72192e-06
1.70105e-07
-7.88599e-06
1.64004e-07
-8.04479e-06
1.58754e-07
-8.19419e-06
1.49396e-07
-8.33129e-06
1.37113e-07
-8.45428e-06
1.23029e-07
-8.56641e-06
1.12167e-07
-8.66995e-06
1.03567e-07
-8.76764e-06
9.76813e-08
-8.86217e-06
9.44895e-08
-8.94948e-06
8.72427e-08
-9.02702e-06
7.74584e-08
-9.09257e-06
6.54792e-08
-9.14788e-06
5.52405e-08
-9.19665e-06
4.87147e-08
-9.2401e-06
4.3404e-08
-9.27815e-06
3.79983e-08
-9.3103e-06
3.20944e-08
-9.33741e-06
2.70649e-08
-9.35968e-06
2.22137e-08
-9.37625e-06
1.65281e-08
-9.38573e-06
9.43328e-09
-9.38595e-06
1.78363e-10
-9.38039e-06
-5.614e-09
-9.37088e-06
-9.55045e-09
-9.35864e-06
-1.22924e-08
-9.34583e-06
-1.28466e-08
-9.33016e-06
-1.56959e-08
-9.30461e-06
-2.55674e-08
-9.27158e-06
-3.30381e-08
-9.23587e-06
-3.57186e-08
-9.19778e-06
-3.81011e-08
-9.15835e-06
-3.94546e-08
-9.11764e-06
-4.07311e-08
-9.07246e-06
-4.52048e-08
-9.02173e-06
-5.07504e-08
-8.96649e-06
-5.52563e-08
-8.90891e-06
-5.75944e-08
-8.84988e-06
-5.90505e-08
-8.78863e-06
-6.12813e-08
-8.72393e-06
-6.47206e-08
-8.6557e-06
-6.82736e-08
-8.58305e-06
-7.26897e-08
-8.50716e-06
-7.59261e-08
-8.43047e-06
-7.67316e-08
-8.3545e-06
-7.60112e-08
-8.2778e-06
-7.67408e-08
-8.19661e-06
-8.12274e-08
-8.10864e-06
-8.8007e-08
-8.01781e-06
-9.0856e-08
-7.92542e-06
-9.24254e-08
-7.83096e-06
-9.4506e-08
-7.73515e-06
-9.58448e-08
-7.63944e-06
-9.575e-08
-7.543e-06
-9.64864e-08
-7.44313e-06
-9.99096e-08
-7.3385e-06
-1.04669e-07
-7.2307e-06
-1.07845e-07
-7.12083e-06
-1.09908e-07
-7.00854e-06
-1.12335e-07
-6.89372e-06
-1.14861e-07
-6.77789e-06
-1.15869e-07
-6.66304e-06
-1.14896e-07
-6.54678e-06
-1.16304e-07
-6.42482e-06
-1.22e-07
-6.29863e-06
-1.2624e-07
-6.17101e-06
-1.27658e-07
-6.04158e-06
-1.29469e-07
-5.90966e-06
-1.31951e-07
-5.7761e-06
-1.33593e-07
-5.64232e-06
-1.33801e-07
-5.50637e-06
-1.35984e-07
-5.36649e-06
-1.39909e-07
-5.22282e-06
-1.43691e-07
-5.07652e-06
-1.46313e-07
-4.9276e-06
-1.48936e-07
-4.77672e-06
-1.50886e-07
-4.62525e-06
-1.51473e-07
-4.47191e-06
-1.53355e-07
-4.31587e-06
-1.56058e-07
-4.15677e-06
-1.59117e-07
-3.99448e-06
-1.62321e-07
-3.83017e-06
-1.6434e-07
-3.66619e-06
-1.64013e-07
-3.50181e-06
-1.64417e-07
-3.33594e-06
-1.65896e-07
-3.16826e-06
-1.67717e-07
-3.00017e-06
-1.68108e-07
-2.83353e-06
-1.66659e-07
-2.66834e-06
-1.65206e-07
-2.50423e-06
-1.64112e-07
-2.34146e-06
-1.62762e-07
-2.18154e-06
-1.59917e-07
-2.02601e-06
-1.55516e-07
-1.87538e-06
-1.50617e-07
-1.72961e-06
-1.45773e-07
-1.58847e-06
-1.41141e-07
-1.45218e-06
-1.36299e-07
-1.32125e-06
-1.30934e-07
-1.19612e-06
-1.25138e-07
-1.0769e-06
-1.19227e-07
-9.63605e-07
-1.13284e-07
-8.56e-07
-1.07588e-07
-7.53984e-07
-1.01994e-07
-6.57535e-07
-9.64258e-08
-5.66432e-07
-9.10805e-08
-4.80298e-07
-8.61146e-08
-3.98864e-07
-8.14146e-08
-3.22184e-07
-7.66582e-08
-2.50125e-07
-7.20315e-08
-1.82133e-07
-6.79582e-08
-1.17673e-07
-6.44212e-08
-5.64089e-08
-6.1226e-08
1.65996e-09
-5.80373e-08
5.65174e-08
-5.48366e-08
1.08255e-07
-5.17284e-08
1.5744e-07
-4.9183e-08
2.04654e-07
-4.72153e-08
2.50397e-07
-4.57403e-08
2.94726e-07
-4.43203e-08
3.37752e-07
-4.30109e-08
3.79661e-07
-4.18898e-08
4.2065e-07
-4.09695e-08
4.60905e-07
-4.02386e-08
5.00637e-07
-3.97216e-08
5.40149e-07
-3.95063e-08
5.79697e-07
-3.95456e-08
6.19366e-07
-3.96686e-08
6.59256e-07
-3.98896e-08
6.99454e-07
-4.01972e-08
7.40039e-07
-4.05862e-08
7.8107e-07
-4.10344e-08
8.22621e-07
-4.15591e-08
8.64922e-07
-4.23115e-08
9.08086e-07
-4.3177e-08
9.52129e-07
-4.40575e-08
9.9704e-07
-4.49252e-08
1.04272e-06
-4.56945e-08
1.08918e-06
-4.64683e-08
1.13649e-06
-4.73169e-08
1.18466e-06
-4.81751e-08
1.23366e-06
-4.90018e-08
1.28344e-06
-4.9788e-08
1.33397e-06
-5.05438e-08
1.38506e-06
-5.11133e-08
1.43638e-06
-5.13439e-08
1.48793e-06
-5.1566e-08
1.53994e-06
-5.2024e-08
1.59263e-06
-5.27018e-08
1.6458e-06
-5.31726e-08
1.69886e-06
-5.30629e-08
1.75154e-06
-5.26773e-08
1.80421e-06
-5.26703e-08
1.85702e-06
-5.28166e-08
1.90991e-06
-5.28972e-08
1.96259e-06
-5.26915e-08
2.01473e-06
-5.2149e-08
2.06636e-06
-5.16325e-08
2.11721e-06
-5.0847e-08
2.16695e-06
-4.97478e-08
2.21596e-06
-4.90059e-08
2.26477e-06
-4.88154e-08
2.3131e-06
-4.83473e-08
2.36046e-06
-4.73724e-08
2.40669e-06
-4.62423e-08
2.45178e-06
-4.51038e-08
2.49558e-06
-4.38076e-08
2.53832e-06
-4.27534e-08
2.58017e-06
-4.18604e-08
2.62074e-06
-4.05763e-08
2.65972e-06
-3.89878e-08
2.69726e-06
-3.75656e-08
2.73375e-06
-3.65124e-08
2.76913e-06
-3.54018e-08
2.80313e-06
-3.40315e-08
2.83581e-06
-3.26941e-08
2.86719e-06
-3.13841e-08
2.89684e-06
-2.96362e-08
2.92476e-06
-2.78944e-08
2.95127e-06
-2.64915e-08
2.97643e-06
-2.51374e-08
3.00061e-06
-2.41557e-08
3.02366e-06
-2.30319e-08
3.04569e-06
-2.20177e-08
3.06547e-06
-1.97558e-08
3.08288e-06
-1.73893e-08
3.09916e-06
-1.62495e-08
3.11556e-06
-1.63664e-08
3.13049e-06
-1.49037e-08
3.14365e-06
-1.31436e-08
3.15463e-06
-1.09761e-08
3.16394e-06
-9.31163e-09
3.17337e-06
-9.43929e-09
3.18135e-06
-7.99252e-09
3.18871e-06
-7.37376e-09
3.19384e-06
-5.12936e-09
3.1976e-06
-3.75562e-09
3.20159e-06
-3.98814e-09
3.2046e-06
-3.00518e-09
3.20501e-06
-4.1056e-10
3.20709e-06
-2.07493e-09
3.20273e-06
4.3516e-09
3.19684e-06
5.87705e-09
3.19328e-06
3.55355e-09
3.18731e-06
5.96523e-09
3.18869e-06
-1.38702e-09
3.19306e-06
-4.38605e-09
3.17783e-06
1.52245e-08
3.14837e-06
2.9448e-08
3.10189e-06
4.64615e-08
3.05779e-06
4.40794e-08
3.02983e-06
2.79327e-08
3.00833e-06
2.14816e-08
2.99301e-06
1.52912e-08
2.97893e-06
1.40619e-08
2.96241e-06
1.65021e-08
2.94329e-06
1.9102e-08
2.92318e-06
2.00849e-08
2.90599e-06
1.71754e-08
2.88973e-06
1.62509e-08
2.87514e-06
1.45704e-08
2.8757e-06
-5.78563e-10
2.85863e-06
1.70533e-08
2.82186e-06
3.67594e-08
2.81207e-06
9.78591e-09
2.77419e-06
3.78673e-08
2.71178e-06
6.24048e-08
2.63054e-06
8.12243e-08
2.62487e-06
5.65524e-09
2.6902e-06
-6.53496e-08
2.71698e-06
-2.68016e-08
2.73545e-06
-1.84886e-08
2.7285e-06
6.9235e-09
2.72011e-06
8.36133e-09
2.69405e-06
2.60369e-08
2.66868e-06
2.5346e-08
2.62198e-06
4.66761e-08
2.5842e-06
3.77582e-08
2.55174e-06
3.24309e-08
2.5149e-06
3.68111e-08
2.4792e-06
3.56787e-08
2.45285e-06
2.63319e-08
2.33414e-06
1.18695e-07
2.23123e-06
1.02885e-07
2.15372e-06
7.7497e-08
1.998e-06
1.55699e-07
2.02041e-06
-2.24352e-08
1.94936e-06
7.1025e-08
2.30548e-06
-3.56135e-07
2.97352e-06
-6.68047e-07
3.653e-06
-6.79479e-07
4.26081e-06
-6.07803e-07
4.81244e-06
-5.51621e-07
5.25821e-06
-4.45767e-07
5.58817e-06
-3.29964e-07
5.80601e-06
-2.17854e-07
5.95776e-06
-1.51776e-07
6.07359e-06
-1.15856e-07
6.17125e-06
-9.76966e-08
6.23462e-06
-6.34039e-08
6.26749e-06
-3.29109e-08
6.28814e-06
-2.07011e-08
6.29947e-06
-1.13788e-08
6.31179e-06
-1.23718e-08
6.31999e-06
-8.25727e-09
6.31266e-06
7.29075e-09
6.2938e-06
1.88158e-08
6.2732e-06
2.05619e-08
6.25175e-06
2.14153e-08
6.22727e-06
2.44419e-08
6.19869e-06
2.85396e-08
6.17258e-06
2.60514e-08
6.14973e-06
2.28042e-08
6.12283e-06
2.68364e-08
6.08677e-06
3.60049e-08
6.0469e-06
3.98111e-08
6.0064e-06
4.04546e-08
5.96991e-06
3.64365e-08
5.93563e-06
3.42332e-08
5.90204e-06
3.35426e-08
5.87109e-06
3.08877e-08
5.84019e-06
3.08391e-08
5.8055e-06
3.46261e-08
5.7663e-06
3.9137e-08
5.72888e-06
3.73611e-08
5.69904e-06
2.97791e-08
5.67935e-06
1.96325e-08
5.6678e-06
1.14965e-08
5.65917e-06
8.58584e-09
5.6518e-06
7.31031e-09
5.6443e-06
7.45849e-09
5.64036e-06
3.889e-09
5.6409e-06
-5.78907e-10
5.6441e-06
-3.23908e-09
5.65193e-06
-7.86367e-09
5.66604e-06
-1.41368e-08
5.68583e-06
-1.98142e-08
5.70869e-06
-2.28974e-08
5.73264e-06
-2.40026e-08
5.7569e-06
-2.43184e-08
5.78226e-06
-2.54219e-08
5.81094e-06
-2.87444e-08
5.84453e-06
-3.36622e-08
5.88452e-06
-4.00608e-08
5.93078e-06
-4.633e-08
5.98229e-06
-5.1587e-08
6.03853e-06
-5.63236e-08
6.0992e-06
-6.0754e-08
6.16385e-06
-6.47342e-08
6.23261e-06
-6.88456e-08
6.30625e-06
-7.37246e-08
6.38499e-06
-7.88407e-08
6.46807e-06
-8.31742e-08
6.55495e-06
-8.69684e-08
6.64427e-06
-8.94198e-08
6.73704e-06
-9.2874e-08
6.83265e-06
-9.57094e-08
6.93338e-06
-1.00835e-07
7.03792e-06
-1.04631e-07
7.14443e-06
-1.06591e-07
7.25354e-06
-1.09188e-07
7.36433e-06
-1.10877e-07
7.47704e-06
-1.12798e-07
7.59218e-06
-1.15244e-07
7.71006e-06
-1.17992e-07
7.83646e-06
-1.26513e-07
7.97062e-06
-1.34273e-07
8.11394e-06
-1.4341e-07
8.26314e-06
-1.49295e-07
-1.67626e-07
1.67934e-05
1.09406e-05
1.47363e-05
6.20017e-06
1.32658e-05
4.03824e-06
1.34628e-05
-1.85114e-06
1.63464e-05
-7.30091e-06
2.04548e-05
-9.42923e-06
2.44325e-05
-9.23555e-06
2.82552e-05
-8.78623e-06
3.18327e-05
-8.54798e-06
3.46163e-05
-7.72218e-06
3.60339e-05
-5.33276e-06
3.65973e-05
-3.31037e-06
3.71842e-05
-2.68438e-06
3.81637e-05
-2.73601e-06
3.98942e-05
-3.75143e-06
4.24409e-05
-4.5516e-06
4.52469e-05
-4.70826e-06
4.7791e-05
-4.66748e-06
4.96513e-05
-3.90295e-06
5.05879e-05
-1.86142e-06
5.00144e-05
1.36122e-06
4.81903e-05
3.58031e-06
4.53835e-05
5.16496e-06
4.1776e-05
6.86107e-06
3.83624e-05
7.88612e-06
3.56757e-05
7.50134e-06
3.45964e-05
4.65526e-06
3.49486e-05
1.59081e-06
3.54333e-05
-1.66294e-08
3.55178e-05
-3.98077e-07
3.5337e-05
1.71229e-08
3.39965e-05
1.94932e-06
3.1475e-05
4.45094e-06
2.79096e-05
6.24844e-06
2.35011e-05
7.47341e-06
1.9231e-05
9.24411e-06
1.51666e-05
9.88704e-06
1.13813e-05
8.53379e-06
7.64748e-06
7.64466e-06
4.8043e-06
5.85685e-06
3.01045e-06
3.30079e-06
1.53142e-06
2.40769e-06
3.60675e-09
2.62365e-06
-1.64451e-06
3.65258e-06
-3.14226e-06
3.71198e-06
-4.3282e-06
2.16358e-06
-4.86032e-06
6.7496e-07
-5.258e-06
4.4604e-07
-5.72751e-06
1.0681e-06
-6.40696e-06
2.12529e-06
-7.22757e-06
2.09768e-06
-7.95707e-06
1.18256e-06
-8.02944e-06
-3.35439e-07
-7.52586e-06
-1.28127e-06
-6.83341e-06
-1.67116e-06
-6.14276e-06
-1.76245e-06
-5.6609e-06
-1.55021e-06
-5.67604e-06
-8.69067e-07
-5.88824e-06
-4.06708e-07
-5.9445e-06
-2.97651e-08
-5.61271e-06
1.5548e-07
-4.85164e-06
1.36884e-07
-4.15973e-06
3.2048e-07
-4.15673e-06
8.21921e-07
-4.70686e-06
1.06999e-06
-5.37871e-06
9.47581e-07
-5.93828e-06
5.18377e-07
-6.05339e-06
-4.39585e-07
-5.48382e-06
-1.74808e-06
-4.47783e-06
-2.65301e-06
-3.29286e-06
-3.11295e-06
-2.13951e-06
-3.03418e-06
-1.4578e-06
-2.28532e-06
-1.06667e-06
-1.77899e-06
-6.40237e-07
-1.77938e-06
1.19746e-07
-2.30112e-06
1.25652e-06
-2.84118e-06
3.09462e-06
-2.82761e-06
4.981e-06
-2.1851e-06
6.99519e-06
-2.17948e-06
8.58192e-06
-1.16455e-06
9.41774e-06
-2.29133e-07
9.81921e-06
1.68026e-07
9.47562e-06
7.1762e-07
8.97183e-06
7.85369e-07
8.42853e-06
8.9195e-07
7.82591e-06
9.02889e-07
7.40538e-06
5.06736e-07
7.23741e-06
9.26726e-08
6.9941e-06
1.65682e-07
6.87905e-06
-1.47534e-08
6.96275e-06
-2.43705e-07
7.0499e-06
-1.5448e-07
7.09378e-06
-6.97143e-08
7.19144e-06
1.39633e-08
7.20616e-06
1.3859e-07
7.2857e-06
1.92749e-07
7.31199e-06
2.9758e-07
7.66704e-06
6.20403e-07
7.87386e-06
1.51041e-06
7.85681e-06
1.54982e-06
6.96809e-06
1.61556e-06
5.15604e-06
1.74668e-06
3.62146e-06
1.42962e-06
2.53206e-06
5.88443e-07
2.029e-06
-1.01905e-07
1.9671e-06
-3.43457e-07
2.04072e-06
-2.39355e-07
2.61093e-06
-7.58631e-07
3.45653e-06
-1.21209e-06
4.04125e-06
-9.15451e-07
4.41612e-06
-7.68225e-07
4.72032e-06
-6.73313e-07
4.9304e-06
-5.19849e-07
5.25889e-06
-4.24507e-07
5.61825e-06
-3.71513e-07
6.13781e-06
-6.69416e-08
6.49956e-06
2.99378e-07
6.63632e-06
1.82338e-07
6.18703e-06
3.02278e-07
5.44307e-06
3.2803e-07
5.0743e-06
5.05847e-08
5.06748e-06
-5.07565e-07
5.28561e-06
-7.93363e-07
5.54747e-06
-6.76364e-07
6.0522e-06
-8.84143e-07
6.63261e-06
-9.58479e-07
7.05586e-06
-7.77376e-07
7.43692e-06
-7.72127e-07
7.79263e-06
-7.63525e-07
8.1215e-06
-7.10839e-07
8.4772e-06
-7.21816e-07
8.84716e-06
-7.08685e-07
9.20537e-06
-6.893e-07
9.55029e-06
-6.79714e-07
9.88774e-06
-6.78095e-07
1.02209e-05
-6.72249e-07
1.05383e-05
-6.43497e-07
1.08508e-05
-6.28805e-07
1.11595e-05
-6.16194e-07
1.14594e-05
-5.97677e-07
1.17448e-05
-5.68818e-07
1.20119e-05
-5.27256e-07
1.22623e-05
-4.93738e-07
1.24986e-05
-4.66101e-07
1.27223e-05
-4.44778e-07
1.29306e-05
-4.1892e-07
1.31179e-05
-3.79318e-07
1.32858e-05
-3.32447e-07
1.34381e-05
-2.96675e-07
1.3578e-05
-2.76438e-07
1.37029e-05
-2.50556e-07
1.3806e-05
-2.10069e-07
1.38873e-05
-1.66773e-07
1.39551e-05
-1.3243e-07
1.40093e-05
-1.02002e-07
1.40454e-05
-6.80986e-08
1.40592e-05
-2.91252e-08
1.40508e-05
1.25675e-08
1.40236e-05
5.05974e-08
1.39805e-05
8.43916e-08
1.39219e-05
1.17656e-07
1.38456e-05
1.52507e-07
1.37492e-05
1.91757e-07
1.36274e-05
2.42303e-07
1.34817e-05
2.88724e-07
1.33187e-05
3.22056e-07
1.31392e-05
3.54597e-07
1.29354e-05
4.01926e-07
1.27045e-05
4.61804e-07
1.24496e-05
5.09953e-07
1.21746e-05
5.44662e-07
1.18795e-05
5.8255e-07
1.15617e-05
6.26426e-07
1.122e-05
6.79104e-07
1.08482e-05
7.49163e-07
1.04471e-05
8.08582e-07
1.00185e-05
8.5795e-07
9.56828e-06
8.94496e-07
9.10435e-06
9.21749e-07
8.62306e-06
9.61063e-07
8.1231e-06
1.00264e-06
7.60283e-06
1.04575e-06
7.05689e-06
1.09991e-06
6.49266e-06
1.13339e-06
5.92048e-06
1.14098e-06
5.34886e-06
1.13943e-06
4.77836e-06
1.14693e-06
4.20626e-06
1.16051e-06
3.63092e-06
1.16761e-06
3.05337e-06
1.16384e-06
2.48016e-06
1.14331e-06
1.92129e-06
1.11127e-06
1.38016e-06
1.07812e-06
8.53395e-07
1.05086e-06
3.39086e-07
1.03163e-06
-1.62615e-07
1.00893e-06
-6.49534e-07
9.76468e-07
-1.11668e-06
9.31794e-07
-1.56415e-06
8.85104e-07
-1.99365e-06
8.50033e-07
-2.40898e-06
8.24278e-07
-2.81019e-06
7.99162e-07
-3.19508e-06
7.70073e-07
-3.5633e-06
7.36862e-07
-3.91787e-06
7.0454e-07
-4.26089e-06
6.79493e-07
-4.59317e-06
6.60294e-07
-4.91185e-06
6.40291e-07
-5.21444e-06
6.0856e-07
-5.50077e-06
5.68989e-07
-5.77415e-06
5.4213e-07
-6.03627e-06
5.20227e-07
-6.28793e-06
5.00289e-07
-6.5302e-06
4.85849e-07
-6.76238e-06
4.68285e-07
-6.98282e-06
4.43136e-07
-7.19004e-06
4.12076e-07
-7.3833e-06
3.82792e-07
-7.56598e-06
3.61972e-07
-7.73883e-06
3.42897e-07
-7.90222e-06
3.27347e-07
-8.05687e-06
3.13358e-07
-8.20275e-06
2.95228e-07
-8.33981e-06
2.74106e-07
-8.46573e-06
2.48869e-07
-8.5806e-06
2.2696e-07
-8.68643e-06
2.09304e-07
-8.78472e-06
1.95883e-07
-8.87685e-06
1.8654e-07
-8.96147e-06
1.71794e-07
-9.03642e-06
1.52332e-07
-9.10106e-06
1.30043e-07
-9.1575e-06
1.11611e-07
-9.20681e-06
9.79557e-08
-9.25013e-06
8.66502e-08
-9.28911e-06
7.69046e-08
-9.32369e-06
6.65859e-08
-9.35186e-06
5.51513e-08
-9.37245e-06
4.27264e-08
-9.38453e-06
2.85162e-08
-9.39004e-06
1.48584e-08
-9.39123e-06
1.28467e-09
-9.38822e-06
-8.70314e-09
-9.38103e-06
-1.67979e-08
-9.37019e-06
-2.31824e-08
-9.35505e-06
-2.80243e-08
-9.33408e-06
-3.66956e-08
-9.3078e-06
-5.18709e-08
-9.27661e-06
-6.42561e-08
-9.24265e-06
-6.96976e-08
-9.20649e-06
-7.42937e-08
-9.16711e-06
-7.88732e-08
-9.12335e-06
-8.45183e-08
-9.07474e-06
-9.38461e-08
-9.02256e-06
-1.02964e-07
-8.96817e-06
-1.09678e-07
-8.91266e-06
-1.13147e-07
-8.8556e-06
-1.16161e-07
-8.79391e-06
-1.2303e-07
-8.72685e-06
-1.31846e-07
-8.65683e-06
-1.38367e-07
-8.58473e-06
-1.44863e-07
-8.51036e-06
-1.50365e-07
-8.43452e-06
-1.52647e-07
-8.35757e-06
-1.53026e-07
-8.27815e-06
-1.56231e-07
-8.19511e-06
-1.64342e-07
-8.10783e-06
-1.7536e-07
-8.01793e-06
-1.80831e-07
-7.92642e-06
-1.8402e-07
-7.83342e-06
-1.87579e-07
-7.73833e-06
-1.91021e-07
-7.64037e-06
-1.93783e-07
-7.54006e-06
-1.96871e-07
-7.43793e-06
-2.02117e-07
-7.3341e-06
-2.08567e-07
-7.22775e-06
-2.14262e-07
-7.11873e-06
-2.18999e-07
-7.00675e-06
-2.24383e-07
-6.89216e-06
-2.29525e-07
-6.77627e-06
-2.31828e-07
-6.65943e-06
-2.31814e-07
-6.5402e-06
-2.35602e-07
-6.4176e-06
-2.44674e-07
-6.29176e-06
-2.52145e-07
-6.16464e-06
-2.54837e-07
-6.0363e-06
-2.57872e-07
-5.90529e-06
-2.63011e-07
-5.77105e-06
-2.67886e-07
-5.63456e-06
-2.70332e-07
-5.49555e-06
-2.7503e-07
-5.35412e-06
-2.81378e-07
-5.21133e-06
-2.86517e-07
-5.06676e-06
-2.90928e-07
-4.91916e-06
-2.9657e-07
-4.76772e-06
-3.02362e-07
-4.61325e-06
-3.05995e-07
-4.45708e-06
-3.09567e-07
-4.30092e-06
-3.12262e-07
-4.14364e-06
-3.16441e-07
-3.98321e-06
-3.2279e-07
-3.81924e-06
-3.28354e-07
-3.65363e-06
-3.29657e-07
-3.48836e-06
-3.2971e-07
-3.32408e-06
-3.30207e-07
-3.15866e-06
-3.33159e-07
-2.99135e-06
-3.3543e-07
-2.82428e-06
-3.33746e-07
-2.65943e-06
-3.3007e-07
-2.4974e-06
-3.26152e-07
-2.33706e-06
-3.23111e-07
-2.17866e-06
-3.18318e-07
-2.02351e-06
-3.10665e-07
-1.87311e-06
-3.01019e-07
-1.72854e-06
-2.90339e-07
-1.58891e-06
-2.80765e-07
-1.45341e-06
-2.7179e-07
-1.32271e-06
-2.61612e-07
-1.19762e-06
-2.50218e-07
-1.07843e-06
-2.38401e-07
-9.65292e-07
-2.26399e-07
-8.57853e-07
-2.15005e-07
-7.55863e-07
-2.03959e-07
-6.59133e-07
-1.93126e-07
-5.67613e-07
-1.82569e-07
-4.81196e-07
-1.72496e-07
-3.99762e-07
-1.62811e-07
-3.23159e-07
-1.53224e-07
-2.50996e-07
-1.4416e-07
-1.82855e-07
-1.36067e-07
-1.18335e-07
-1.28914e-07
-5.72374e-08
-1.22299e-07
5.53403e-10
-1.15805e-07
5.52418e-08
-1.09502e-07
1.07047e-07
-1.0351e-07
1.56272e-07
-9.83831e-08
2.03244e-07
-9.41613e-08
2.48744e-07
-9.12148e-08
2.93018e-07
-8.85725e-08
3.3607e-07
-8.60456e-08
3.77963e-07
-8.37713e-08
4.18815e-07
-8.18163e-08
4.58738e-07
-8.01604e-08
4.97917e-07
-7.89041e-08
5.36876e-07
-7.84697e-08
5.76086e-07
-7.87605e-08
6.15585e-07
-7.91734e-08
6.55402e-07
-7.97132e-08
6.95585e-07
-8.03885e-08
7.36178e-07
-8.11909e-08
7.77234e-07
-8.2104e-08
8.18826e-07
-8.31682e-08
8.61182e-07
-8.46845e-08
9.04396e-07
-8.64073e-08
9.48485e-07
-8.81616e-08
9.93445e-07
-8.98971e-08
1.03911e-06
-9.13681e-08
1.08549e-06
-9.28588e-08
1.13278e-06
-9.46163e-08
1.18102e-06
-9.64194e-08
1.23013e-06
-9.81304e-08
1.28003e-06
-9.96929e-08
1.33061e-06
-1.01138e-07
1.38178e-06
-1.0229e-07
1.43344e-06
-1.03014e-07
1.4856e-06
-1.03738e-07
1.53819e-06
-1.04629e-07
1.59122e-06
-1.0575e-07
1.64447e-06
-1.06434e-07
1.69749e-06
-1.06102e-07
1.75022e-06
-1.05431e-07
1.80308e-06
-1.05544e-07
1.85621e-06
-1.05958e-07
1.90941e-06
-1.06106e-07
1.96229e-06
-1.05584e-07
2.01441e-06
-1.04272e-07
2.0658e-06
-1.0303e-07
2.11666e-06
-1.01714e-07
2.16721e-06
-1.00314e-07
2.2172e-06
-9.90179e-08
2.26638e-06
-9.80147e-08
2.31463e-06
-9.66102e-08
2.36181e-06
-9.45789e-08
2.40782e-06
-9.22661e-08
2.45286e-06
-9.01604e-08
2.49691e-06
-8.78676e-08
2.53989e-06
-8.57466e-08
2.58168e-06
-8.3668e-08
2.62216e-06
-8.10611e-08
2.66142e-06
-7.82616e-08
2.69946e-06
-7.5612e-08
2.73622e-06
-7.32705e-08
2.77146e-06
-7.06388e-08
2.80523e-06
-6.77745e-08
2.83759e-06
-6.50301e-08
2.8688e-06
-6.25726e-08
2.89876e-06
-5.95676e-08
2.92737e-06
-5.64734e-08
2.95408e-06
-5.3182e-08
2.97893e-06
-4.99729e-08
3.00255e-06
-4.77706e-08
3.02527e-06
-4.57442e-08
3.04677e-06
-4.35177e-08
3.06658e-06
-3.95585e-08
3.08499e-06
-3.58034e-08
3.10195e-06
-3.32015e-08
3.11826e-06
-3.26811e-08
3.133e-06
-2.96527e-08
3.14598e-06
-2.61272e-08
3.1575e-06
-2.25013e-08
3.16779e-06
-1.9602e-08
3.17663e-06
-1.82838e-08
3.18444e-06
-1.57962e-08
3.19248e-06
-1.54108e-08
3.19961e-06
-1.22563e-08
3.20402e-06
-8.15844e-09
3.20827e-06
-8.23966e-09
3.20587e-06
-6.08512e-10
3.20381e-06
1.6453e-09
3.20202e-06
-2.98027e-10
3.2029e-06
3.46668e-09
3.21469e-06
-5.92935e-09
3.22768e-06
-9.44848e-09
3.22089e-06
1.27339e-08
3.18574e-06
3.3742e-08
3.14618e-06
3.51544e-08
3.11765e-06
4.37269e-08
3.08642e-06
6.06456e-08
3.05789e-06
7.49512e-08
3.04639e-06
5.55411e-08
3.03381e-06
4.04804e-08
3.01881e-06
3.64441e-08
2.99883e-06
3.52376e-08
2.98183e-06
3.1033e-08
2.96386e-06
3.44396e-08
2.94765e-06
3.52842e-08
2.9309e-06
3.68e-08
2.92369e-06
2.4359e-08
2.90378e-06
3.61374e-08
2.86337e-06
5.49564e-08
2.83957e-06
2.31915e-08
2.79838e-06
5.82226e-08
2.75588e-06
7.92456e-08
2.70069e-06
6.49625e-08
2.72567e-06
1.28644e-08
2.80002e-06
-1.19679e-08
2.84574e-06
3.54846e-08
2.85068e-06
6.77798e-10
2.81721e-06
-3.1908e-08
2.79135e-06
-9.86053e-10
2.76232e-06
1.05042e-08
2.72734e-06
4.18684e-08
2.70263e-06
3.30254e-08
2.68159e-06
4.70452e-08
2.66772e-06
3.91768e-08
2.65717e-06
5.71768e-08
2.64677e-06
4.81181e-08
2.62881e-06
5.03526e-08
2.50603e-06
1.59552e-07
2.39342e-06
1.48243e-07
2.32457e-06
9.51434e-08
2.22792e-06
2.15311e-07
2.33715e-06
-6.37401e-09
2.41287e-06
1.72586e-09
3.05353e-06
-4.85002e-07
3.87249e-06
-8.4146e-07
4.62081e-06
-6.77401e-07
5.12735e-06
-8.62795e-07
5.39395e-06
-9.34798e-07
5.58038e-06
-8.66048e-07
5.70639e-06
-7.33952e-07
5.79103e-06
-6.36402e-07
5.89767e-06
-5.52533e-07
6.02132e-06
-4.53753e-07
6.13444e-06
-3.31102e-07
6.21989e-06
-2.37343e-07
6.28418e-06
-1.8027e-07
6.32907e-06
-1.42714e-07
6.36419e-06
-9.8634e-08
6.39312e-06
-6.19633e-08
6.4136e-06
-4.13024e-08
6.42722e-06
-2.51136e-08
6.43381e-06
-1.90885e-08
6.42883e-06
-3.39503e-09
6.4153e-06
2.06958e-08
6.39847e-06
3.55086e-08
6.37936e-06
3.95477e-08
6.35908e-06
4.15653e-08
6.33449e-06
4.89141e-08
6.30804e-06
5.48639e-08
6.28106e-06
5.2922e-08
6.2521e-06
5.16588e-08
6.22126e-06
5.75639e-08
6.18889e-06
6.82739e-08
6.15574e-06
7.28706e-08
6.12213e-06
7.39605e-08
6.08739e-06
7.1076e-08
6.05424e-06
6.72881e-08
6.02331e-06
6.43689e-08
5.99283e-06
6.12723e-08
5.96169e-06
6.1879e-08
5.92912e-06
6.71059e-08
5.89617e-06
7.19943e-08
5.86609e-06
6.73469e-08
5.8394e-06
5.63693e-08
5.81826e-06
4.068e-08
5.80015e-06
2.95254e-08
5.78443e-06
2.42206e-08
5.7719e-06
1.97521e-08
5.76375e-06
1.55386e-08
5.76025e-06
7.30996e-09
5.76149e-06
-1.88747e-09
5.7657e-06
-7.51156e-09
5.77228e-06
-1.45109e-08
5.78214e-06
-2.40637e-08
5.7955e-06
-3.32518e-08
5.81245e-06
-3.99163e-08
5.8331e-06
-4.47354e-08
5.85818e-06
-4.94875e-08
5.88802e-06
-5.53489e-08
5.92217e-06
-6.29791e-08
5.9608e-06
-7.23803e-08
6.00327e-06
-8.26219e-08
6.05001e-06
-9.31666e-08
6.1019e-06
-1.03566e-07
6.15865e-06
-1.13167e-07
6.21976e-06
-1.21963e-07
6.28508e-06
-1.30143e-07
6.35488e-06
-1.38745e-07
6.42924e-06
-1.48193e-07
6.50819e-06
-1.57895e-07
6.59112e-06
-1.66208e-07
6.67752e-06
-1.7349e-07
6.76716e-06
-1.79174e-07
6.8608e-06
-1.86619e-07
6.9592e-06
-1.9422e-07
7.06113e-06
-2.02875e-07
7.16554e-06
-2.09135e-07
7.27234e-06
-2.13478e-07
7.38117e-06
-2.18123e-07
7.49367e-06
-2.23482e-07
7.60833e-06
-2.27594e-07
7.72493e-06
-2.31982e-07
7.84388e-06
-2.37083e-07
7.96326e-06
-2.46009e-07
8.08391e-06
-2.55029e-07
8.20314e-06
-2.62754e-07
8.32268e-06
-2.68956e-07
-2.75647e-07
1.87632e-05
1.16527e-05
1.82979e-05
6.66214e-06
1.81908e-05
4.14287e-06
1.88564e-05
-2.51861e-06
2.05841e-05
-9.03012e-06
2.25035e-05
-1.13498e-05
2.49559e-05
-1.16888e-05
2.75182e-05
-1.13493e-05
2.94725e-05
-1.05028e-05
3.00259e-05
-8.27614e-06
2.92825e-05
-4.58971e-06
2.8633e-05
-2.6612e-06
2.84806e-05
-2.53221e-06
2.89858e-05
-3.24144e-06
2.97233e-05
-4.48906e-06
3.03256e-05
-5.15405e-06
3.04477e-05
-4.83055e-06
2.9786e-05
-4.00583e-06
2.86277e-05
-2.74475e-06
2.722e-05
-4.53836e-07
2.60805e-05
2.50061e-06
2.46434e-05
5.01742e-06
2.32276e-05
6.58069e-06
2.24547e-05
7.63393e-06
2.29246e-05
7.41616e-06
2.46363e-05
5.78963e-06
2.65635e-05
2.72808e-06
2.75472e-05
6.07197e-07
2.74016e-05
1.28945e-07
2.65046e-05
4.99099e-07
2.48071e-05
1.71467e-06
2.26258e-05
4.13078e-06
1.99967e-05
7.08011e-06
1.67712e-05
9.47408e-06
1.31338e-05
1.11109e-05
1.02819e-05
1.20961e-05
8.10149e-06
1.20675e-05
5.53674e-06
1.10987e-05
3.09555e-06
1.0086e-05
1.82563e-06
7.12691e-06
7.92066e-07
4.33451e-06
-3.82406e-07
3.58231e-06
-1.58815e-06
3.82953e-06
-2.65365e-06
4.71819e-06
-3.50465e-06
4.56308e-06
-4.22372e-06
2.88273e-06
-4.72385e-06
1.17515e-06
-5.17394e-06
8.96191e-07
-5.56252e-06
1.45673e-06
-6.08582e-06
2.64864e-06
-6.71825e-06
2.73014e-06
-7.43903e-06
1.90335e-06
-7.91247e-06
1.37992e-07
-8.05026e-06
-1.14351e-06
-8.1147e-06
-1.60678e-06
-8.18388e-06
-1.69336e-06
-8.34635e-06
-1.38783e-06
-8.59255e-06
-6.22994e-07
-8.58433e-06
-4.1505e-07
-7.87406e-06
-7.4017e-07
-6.6098e-06
-1.10891e-06
-5.077e-06
-1.39606e-06
-3.55854e-06
-1.19812e-06
-2.76591e-06
2.91529e-08
-2.93552e-06
1.23947e-06
-3.50898e-06
1.52092e-06
-4.25178e-06
1.26107e-06
-5.03291e-06
3.41451e-07
-5.25704e-06
-1.52403e-06
-4.85156e-06
-3.05855e-06
-4.25925e-06
-3.70531e-06
-3.49951e-06
-3.79396e-06
-2.64785e-06
-3.13699e-06
-2.03545e-06
-2.3914e-06
-1.49724e-06
-2.31759e-06
-1.04536e-06
-2.75298e-06
-6.03564e-07
-3.28295e-06
2.97199e-07
-3.72832e-06
1.97977e-06
-3.86761e-06
3.90639e-06
-4.10602e-06