/*--------------------------------*- C++ -*----------------------------------*\
| =========                 |                                                 |
| \\      /  F ield         | OpenFOAM: The Open Source CFD Toolbox           |
|  \\    /   O peration     | Version:  v2006                                 |
|   \\  /    A nd           | Website:  www.openfoam.com                      |
|    \\/     M anipulation  |                                                 |
\*---------------------------------------------------------------------------*/
FoamFile
{
    version     2.0;
    format      ascii;
    class       surfaceScalarField;
    location    "7.4";
    object      alphaPhi0.water;
}
// * * * * * * * * * * * * * * * * * * * * * * * * * * * * * * * * * * * * * //

dimensions      [0 3 -1 0 0 0 0];
oriented        oriented;


internalField   nonuniform List<scalar> 
65390
(
1.86093e-05
-7.88136e-07
1.93166e-05
-7.07231e-07
1.99206e-05
-6.03773e-07
2.03412e-05
-4.20424e-07
2.03554e-05
-1.39747e-08
2.01556e-05
1.99867e-07
2.00648e-05
9.10346e-08
2.07406e-05
-6.75667e-07
2.4385e-05
-3.64424e-06
3.26044e-05
-8.21928e-06
4.42526e-05
-1.16481e-05
5.73153e-05
-1.30625e-05
6.88549e-05
-1.15393e-05
7.55927e-05
-6.7376e-06
7.73279e-05
-1.73494e-06
7.63325e-05
9.95543e-07
7.41739e-05
2.15879e-06
7.25154e-05
1.65863e-06
7.22848e-05
2.30834e-07
7.33586e-05
-1.07365e-06
7.54437e-05
-2.08504e-06
7.8374e-05
-2.93017e-06
8.21231e-05
-3.74895e-06
8.62097e-05
-4.0865e-06
8.97944e-05
-3.58458e-06
9.22337e-05
-2.43916e-06
9.3383e-05
-1.14925e-06
9.33691e-05
1.39023e-08
9.17899e-05
1.57914e-06
8.81327e-05
3.65685e-06
8.2575e-05
5.55693e-06
7.71447e-05
5.42621e-06
7.29387e-05
4.20805e-06
6.99436e-05
2.996e-06
6.79851e-05
1.95864e-06
6.64765e-05
1.50491e-06
6.46909e-05
1.75322e-06
6.28259e-05
1.86564e-06
6.15405e-05
1.30503e-06
6.11467e-05
4.06316e-07
6.13624e-05
-2.14851e-07
6.17426e-05
-3.81016e-07
6.19605e-05
-2.22849e-07
6.1545e-05
3.84697e-07
6.09033e-05
6.5983e-07
6.04737e-05
4.45126e-07
6.0629e-05
-1.5393e-07
6.11697e-05
-5.40429e-07
6.16581e-05
-4.89703e-07
6.16822e-05
-4.61941e-08
6.13489e-05
3.33313e-07
6.10741e-05
2.91013e-07
6.10744e-05
6.58207e-09
6.14569e-05
-3.82071e-07
6.20877e-05
-6.30936e-07
6.28758e-05
-7.88444e-07
6.37609e-05
-8.85199e-07
6.4678e-05
-9.17222e-07
6.53517e-05
-6.73898e-07
6.53919e-05
-4.11684e-08
6.48196e-05
5.52248e-07
6.40691e-05
7.50547e-07
6.3428e-05
6.47117e-07
6.29032e-05
5.36006e-07
6.23551e-05
5.5067e-07
6.16467e-05
7.08444e-07
6.09887e-05
6.5802e-07
6.0727e-05
2.62068e-07
6.09912e-05
-2.64038e-07
6.14542e-05
-4.63023e-07
6.19006e-05
-4.46479e-07
6.2081e-05
-1.80518e-07
6.15809e-05
4.99323e-07
6.04287e-05
1.14242e-06
5.85158e-05
1.89487e-06
5.57455e-05
2.77026e-06
5.14273e-05
4.31825e-06
4.47802e-05
6.64712e-06
3.92754e-05
5.50479e-06
3.7457e-05
1.81836e-06
3.63657e-05
1.09131e-06
3.61185e-05
2.59552e-07
3.48087e-05
1.31456e-06
3.38118e-05
9.97174e-07
3.32324e-05
5.79394e-07
3.19339e-05
1.29849e-06
3.06914e-05
1.24253e-06
2.98692e-05
8.22174e-07
2.96625e-05
2.06755e-07
2.95108e-05
1.51664e-07
2.93771e-05
1.3359e-07
2.92674e-05
1.0668e-07
2.89555e-05
3.06769e-07
2.85644e-05
3.91116e-07
2.79582e-05
6.06224e-07
2.72509e-05
7.11741e-07
2.60148e-05
1.23943e-06
2.44817e-05
1.53297e-06
2.15622e-05
2.91878e-06
1.76252e-05
3.93716e-06
1.42504e-05
3.37489e-06
1.23738e-05
1.87665e-06
1.20482e-05
3.25335e-07
1.17571e-05
2.88866e-07
1.21885e-05
-4.32033e-07
1.28286e-05
-6.39968e-07
1.30356e-05
-2.06928e-07
1.28702e-05
1.65377e-07
1.26759e-05
1.94463e-07
1.27556e-05
-7.75394e-08
1.2815e-05
-5.83944e-08
1.30007e-05
-1.85625e-07
1.31775e-05
-1.77695e-07
1.32535e-05
-7.87352e-08
1.30954e-05
1.58282e-07
1.28159e-05
2.81928e-07
1.19073e-05
9.09551e-07
1.07489e-05
1.15869e-06
1.00454e-05
7.03199e-07
9.94488e-06
9.95819e-08
1.02275e-05
-2.82564e-07
1.03568e-05
-1.29314e-07
1.07395e-05
-3.81228e-07
1.11974e-05
-4.58104e-07
1.14471e-05
-2.49919e-07
1.16717e-05
-2.2669e-07
1.19019e-05
-2.30136e-07
1.21015e-05
-1.97569e-07
1.23515e-05
-2.49044e-07
1.26264e-05
-2.75003e-07
1.28668e-05
-2.40858e-07
1.31058e-05
-2.3892e-07
1.33183e-05
-2.1484e-07
1.35261e-05
-2.07815e-07
1.37401e-05
-2.11606e-07
1.39657e-05
-2.24843e-07
1.4199e-05
-2.33336e-07
1.44236e-05
-2.24709e-07
1.4643e-05
-2.19524e-07
1.48544e-05
-2.11402e-07
1.5059e-05
-2.0465e-07
1.52558e-05
-1.96784e-07
1.5437e-05
-1.82424e-07
1.56001e-05
-1.65153e-07
1.57517e-05
-1.51639e-07
1.58926e-05
-1.39349e-07
1.60243e-05
-1.30432e-07
1.61439e-05
-1.19513e-07
1.62462e-05
-1.02347e-07
1.63222e-05
-7.94766e-08
1.63859e-05
-6.17503e-08
1.64407e-05
-5.28263e-08
1.64824e-05
-4.16072e-08
1.65065e-05
-2.4197e-08
1.65105e-05
-4.97669e-09
1.6495e-05
1.40935e-08
1.64647e-05
3.03846e-08
1.64199e-05
4.6381e-08
1.63584e-05
6.2394e-08
1.62793e-05
7.89936e-08
1.61842e-05
9.50546e-08
1.60702e-05
1.13908e-07
1.59328e-05
1.36237e-07
1.57805e-05
1.52975e-07
1.56128e-05
1.67929e-07
1.54228e-05
1.90031e-07
1.52064e-05
2.1613e-07
1.49713e-05
2.35514e-07
1.47195e-05
2.52045e-07
1.44444e-05
2.75146e-07
1.41388e-05
3.05616e-07
1.38008e-05
3.3723e-07
1.34418e-05
3.59617e-07
1.30617e-05
3.80619e-07
1.26553e-05
4.0639e-07
1.22158e-05
4.38372e-07
1.17343e-05
4.80555e-07
1.12179e-05
5.16401e-07
1.06754e-05
5.43914e-07
1.01051e-05
5.70551e-07
9.51621e-06
5.88833e-07
8.90955e-06
6.06351e-07
8.27926e-06
6.2973e-07
7.62757e-06
6.51526e-07
6.95242e-06
6.7544e-07
6.26493e-06
6.87794e-07
5.57924e-06
6.85643e-07
4.8986e-06
6.80599e-07
4.21965e-06
6.78352e-07
3.53752e-06
6.82027e-07
2.85945e-06
6.78081e-07
2.19364e-06
6.65987e-07
1.54859e-06
6.45172e-07
9.29606e-07
6.18971e-07
3.35262e-07
5.94333e-07
-2.37187e-07
5.72429e-07
-7.94201e-07
5.5701e-07
-1.33577e-06
5.41556e-07
-1.85693e-06
5.21165e-07
-2.35313e-06
4.96005e-07
-2.82184e-06
4.68656e-07
-3.27114e-06
4.49307e-07
-3.70612e-06
4.34987e-07
-4.12658e-06
4.20647e-07
-4.53137e-06
4.04889e-07
-4.91819e-06
3.86617e-07
-5.28503e-06
3.66822e-07
-5.63659e-06
3.51621e-07
-5.97723e-06
3.40824e-07
-6.30686e-06
3.29938e-07
-6.6179e-06
3.10335e-07
-6.90766e-06
2.89674e-07
-7.1828e-06
2.75159e-07
-7.44549e-06
2.63007e-07
-7.69899e-06
2.54064e-07
-7.94401e-06
2.45067e-07
-8.17592e-06
2.31402e-07
-8.39056e-06
2.14382e-07
-8.58772e-06
1.97173e-07
-8.77229e-06
1.8457e-07
-8.94578e-06
1.73727e-07
-9.11066e-06
1.65523e-07
-9.26797e-06
1.57309e-07
-9.41455e-06
1.46014e-07
-9.54783e-06
1.32949e-07
-9.66696e-06
1.19093e-07
-9.77468e-06
1.077e-07
-9.87256e-06
9.79475e-08
-9.96251e-06
9.07438e-08
-1.00472e-05
8.47564e-08
-1.01227e-05
7.54374e-08
-1.01876e-05
6.435e-08
-1.0241e-05
5.34173e-08
-1.02845e-05
4.36907e-08
-1.03209e-05
3.63623e-08
-1.03507e-05
2.98327e-08
-1.03742e-05
2.30514e-08
-1.03908e-05
1.66057e-08
-1.04017e-05
1.09704e-08
-1.0406e-05
4.55515e-09
-1.0404e-05
-1.89378e-09
-1.03953e-05
-9.19548e-09
-1.03783e-05
-1.70141e-08
-1.03561e-05
-2.21921e-08
-1.03297e-05
-2.6431e-08
-1.03001e-05
-2.90207e-08
-1.02685e-05
-3.09483e-08
-1.02332e-05
-3.64664e-08
-1.01886e-05
-4.46395e-08
-1.014e-05
-4.85967e-08
-1.00891e-05
-5.08974e-08
-1.00362e-05
-5.2388e-08
-9.98234e-06
-5.3854e-08
-9.92517e-06
-5.72922e-08
-9.86429e-06
-6.12505e-08
-9.79992e-06
-6.43723e-08
-9.73316e-06
-6.67561e-08
-9.66508e-06
-6.79502e-08
-9.59592e-06
-6.89606e-08
-9.525e-06
-7.09329e-08
-9.45179e-06
-7.33444e-08
-9.37564e-06
-7.62936e-08
-9.29718e-06
-7.84669e-08
-9.21833e-06
-7.8842e-08
-9.14e-06
-7.81293e-08
-9.06157e-06
-7.80896e-08
-8.98231e-06
-7.97682e-08
-8.89804e-06
-8.43163e-08
-8.81147e-06
-8.65606e-08
-8.72425e-06
-8.72259e-08
-8.63627e-06
-8.7946e-08
-8.54807e-06
-8.80657e-08
-8.46016e-06
-8.7759e-08
-8.37173e-06
-8.84331e-08
-8.28184e-06
-9.01078e-08
-8.18936e-06
-9.25001e-08
-8.09519e-06
-9.41901e-08
-7.99998e-06
-9.52096e-08
-7.90365e-06
-9.63495e-08
-7.80618e-06
-9.74634e-08
-7.70866e-06
-9.74316e-08
-7.61197e-06
-9.65747e-08
-7.51506e-06
-9.71124e-08
-7.41527e-06
-9.98149e-08
-7.31331e-06
-1.0196e-07
-7.21096e-06
-1.02354e-07
-7.10832e-06
-1.02639e-07
-7.00492e-06
-1.03337e-07
-6.90144e-06
-1.03408e-07
-6.79793e-06
-1.03513e-07
-6.69374e-06
-1.04266e-07
-6.58816e-06
-1.0563e-07
-6.48129e-06
-1.06868e-07
-6.37369e-06
-1.07595e-07
-6.26543e-06
-1.08246e-07
-6.15685e-06
-1.08519e-07
-6.04822e-06
-1.08636e-07
-5.93899e-06
-1.09319e-07
-5.82858e-06
-1.10434e-07
-5.71688e-06
-1.11718e-07
-5.60373e-06
-1.13165e-07
-5.48954e-06
-1.14157e-07
-5.37528e-06
-1.14262e-07
-5.26011e-06
-1.15212e-07
-5.14305e-06
-1.1709e-07
-5.0243e-06
-1.18756e-07
-4.90399e-06
-1.20311e-07
-4.78251e-06
-1.21482e-07
-4.65981e-06
-1.22731e-07
-4.53537e-06
-1.2445e-07
-4.40898e-06
-1.26397e-07
-4.28124e-06
-1.27738e-07
-4.15344e-06
-1.27795e-07
-4.0259e-06
-1.27534e-07
-3.89783e-06
-1.28087e-07
-3.76911e-06
-1.28731e-07
-3.64076e-06
-1.28353e-07
-3.51373e-06
-1.27036e-07
-3.3887e-06
-1.25029e-07
-3.26623e-06
-1.22487e-07
-3.14684e-06
-1.19386e-07
-3.03117e-06
-1.15654e-07
-2.91995e-06
-1.11205e-07
-2.81407e-06
-1.05864e-07
-2.71362e-06
-1.00441e-07
-2.61839e-06
-9.52161e-08
-2.5288e-06
-8.95904e-08
-2.44553e-06
-8.32519e-08
-2.36879e-06
-7.67336e-08
-2.29802e-06
-7.07825e-08
-2.23272e-06
-6.53049e-08
-2.17277e-06
-5.99715e-08
-2.11843e-06
-5.43427e-08
-2.07025e-06
-4.81644e-08
-2.0279e-06
-4.23331e-08
-1.99012e-06
-3.7775e-08
-1.95601e-06
-3.40885e-08
-1.9255e-06
-3.04974e-08
-1.89858e-06
-2.69069e-08
-1.87504e-06
-2.35282e-08
-1.85455e-06
-2.04965e-08
-1.83661e-06
-1.79496e-08
-1.82072e-06
-1.59046e-08
-1.80641e-06
-1.43319e-08
-1.79354e-06
-1.28799e-08
-1.78183e-06
-1.17298e-08
-1.77082e-06
-1.10286e-08
-1.76005e-06
-1.07837e-08
-1.74913e-06
-1.09242e-08
-1.7378e-06
-1.13284e-08
-1.72595e-06
-1.18435e-08
-1.71347e-06
-1.24813e-08
-1.69992e-06
-1.35642e-08
-1.6848e-06
-1.5127e-08
-1.66793e-06
-1.68866e-08
-1.64922e-06
-1.8724e-08
-1.62848e-06
-2.07449e-08
-1.60557e-06
-2.29196e-08
-1.58033e-06
-2.52461e-08
-1.55246e-06
-2.78741e-08
-1.5218e-06
-3.06667e-08
-1.48829e-06
-3.35135e-08
-1.4519e-06
-3.64045e-08
-1.41242e-06
-3.94793e-08
-1.36989e-06
-4.25377e-08
-1.32452e-06
-4.53637e-08
-1.27625e-06
-4.82587e-08
-1.22488e-06
-5.13588e-08
-1.17001e-06
-5.48693e-08
-1.11169e-06
-5.83217e-08
-1.05032e-06
-6.13721e-08
-9.8616e-07
-6.41678e-08
-9.19037e-07
-6.71249e-08
-8.48633e-07
-7.04004e-08
-7.7494e-07
-7.36868e-08
-6.98289e-07
-7.66443e-08
-6.18964e-07
-7.93214e-08
-5.37054e-07
-8.19099e-08
-4.52603e-07
-8.44493e-08
-3.66116e-07
-8.64792e-08
-2.77741e-07
-8.83589e-08
-1.87065e-07
-9.06538e-08
-9.39624e-08
-9.30758e-08
1.08208e-09
-9.50196e-08
9.76397e-08
-9.65403e-08
1.9558e-07
-9.79335e-08
2.94615e-07
-9.90377e-08
3.94633e-07
-1.00026e-07
4.95655e-07
-1.01034e-07
5.97691e-07
-1.02046e-07
7.00172e-07
-1.02491e-07
8.02737e-07
-1.02576e-07
9.05331e-07
-1.02596e-07
1.00822e-06
-1.02892e-07
1.11105e-06
-1.02839e-07
1.21361e-06
-1.02566e-07
1.3157e-06
-1.02088e-07
1.41698e-06
-1.01282e-07
1.51694e-06
-9.99541e-08
1.61568e-06
-9.87358e-08
1.71349e-06
-9.78041e-08
1.81032e-06
-9.68301e-08
1.90605e-06
-9.57397e-08
2.00025e-06
-9.4209e-08
2.09307e-06
-9.28366e-08
2.18325e-06
-9.02143e-08
2.27258e-06
-8.93239e-08
2.36011e-06
-8.75403e-08
2.44698e-06
-8.68906e-08
2.53167e-06
-8.47219e-08
2.61397e-06
-8.23237e-08
2.6936e-06
-7.96471e-08
2.76996e-06
-7.63531e-08
2.84585e-06
-7.58729e-08
2.91904e-06
-7.3182e-08
2.98805e-06
-6.90087e-08
3.05561e-06
-6.75716e-08
3.11513e-06
-5.95495e-08
3.16906e-06
-5.39603e-08
3.23044e-06
-6.14275e-08
3.28665e-06
-5.62459e-08
3.3384e-06
-5.1782e-08
3.39686e-06
-5.84812e-08
3.41212e-06
-1.52856e-08
3.41502e-06
-2.91992e-09
3.47336e-06
-5.83683e-08
3.49832e-06
-2.49857e-08
3.57109e-06
-7.28013e-08
3.69398e-06
-1.22922e-07
3.96696e-06
-2.73009e-07
4.29635e-06
-3.2943e-07
4.50572e-06
-2.09398e-07
4.66997e-06
-1.64296e-07
4.77594e-06
-1.06009e-07
4.85203e-06
-7.61289e-08
4.90603e-06
-5.40295e-08
4.95789e-06
-5.18782e-08
5.00317e-06
-4.5306e-08
5.04078e-06
-3.76483e-08
5.06651e-06
-2.57928e-08
5.09655e-06
-3.01141e-08
5.06358e-06
3.29028e-08
5.00969e-06
5.38258e-08
5.00955e-06
9.55435e-11
4.97638e-06
3.31754e-08
5.01465e-06
-3.82709e-08
5.12205e-06
-1.07387e-07
5.44186e-06
-3.19813e-07
5.88119e-06
-4.39352e-07
6.20459e-06
-3.23424e-07
6.46224e-06
-2.57679e-07
6.6122e-06
-1.49993e-07
6.71475e-06
-1.02572e-07
6.77862e-06
-6.38961e-08
6.81354e-06
-3.49331e-08
6.82578e-06
-1.22527e-08
6.79085e-06
3.49315e-08
6.75665e-06
3.42108e-08
6.71992e-06
3.67461e-08
6.665e-06
5.49465e-08
6.63264e-06
3.23861e-08
6.56135e-06
7.13026e-08
6.30975e-06
2.51604e-07
6.12286e-06
1.86881e-07
5.9951e-06
1.27759e-07
5.82308e-06
1.72006e-07
6.03978e-06
-2.16717e-07
6.5271e-06
-4.87388e-07
7.91696e-06
-1.38991e-06
9.46535e-06
-1.54847e-06
1.07098e-05
-1.24452e-06
1.16673e-05
-9.57718e-07
1.23842e-05
-7.17352e-07
1.28565e-05
-4.72311e-07
1.31675e-05
-3.10977e-07
1.33733e-05
-2.05673e-07
1.35068e-05
-1.33483e-07
1.35824e-05
-7.57443e-08
1.36097e-05
-2.73087e-08
1.36031e-05
6.55518e-09
1.35736e-05
2.95193e-08
1.35212e-05
5.24095e-08
1.34482e-05
7.29633e-08
1.33578e-05
9.03647e-08
1.32491e-05
1.08619e-07
1.31302e-05
1.18983e-07
1.30024e-05
1.27872e-07
1.28627e-05
1.39689e-07
1.27096e-05
1.53178e-07
1.25509e-05
1.5881e-07
1.23893e-05
1.61566e-07
1.22192e-05
1.70081e-07
1.20388e-05
1.80412e-07
1.18496e-05
1.89187e-07
1.16567e-05
1.92977e-07
1.14617e-05
1.94971e-07
1.12623e-05
1.99352e-07
1.10594e-05
2.02818e-07
1.08523e-05
2.07049e-07
1.06426e-05
2.09698e-07
1.04273e-05
2.15257e-07
1.02057e-05
2.21478e-07
9.98422e-06
2.21525e-07
9.7651e-06
2.19118e-07
9.54808e-06
2.17043e-07
9.33123e-06
2.16852e-07
9.11254e-06
2.18698e-07
8.8914e-06
2.21145e-07
8.66855e-06
2.22839e-07
8.44438e-06
2.24164e-07
8.21952e-06
2.24837e-07
7.99549e-06
2.24022e-07
7.76942e-06
2.26046e-07
7.54412e-06
2.25268e-07
7.32118e-06
2.22932e-07
7.09667e-06
2.24488e-07
6.86864e-06
2.28014e-07
6.63817e-06
2.3046e-07
6.40701e-06
2.31157e-07
6.17636e-06
2.3064e-07
5.94716e-06
2.292e-07
5.7198e-06
2.2736e-07
5.49372e-06
2.26069e-07
5.26852e-06
2.25189e-07
5.04392e-06
2.24593e-07
4.81976e-06
2.24148e-07
4.59574e-06
2.24002e-07
4.37243e-06
2.23298e-07
4.15019e-06
2.22229e-07
3.92911e-06
2.21063e-07
3.709e-06
2.20104e-07
3.48903e-06
2.19969e-07
3.26896e-06
2.2006e-07
3.04922e-06
2.19747e-07
2.8306e-06
2.1861e-07
2.61356e-06
2.17043e-07
2.39683e-06
2.16733e-07
2.18016e-06
2.16667e-07
1.96261e-06
2.17542e-07
1.74719e-06
2.15423e-07
1.53065e-06
2.16527e-07
1.31428e-06
2.16377e-07
1.09885e-06
2.15429e-07
8.89214e-07
2.09637e-07
6.85976e-07
2.03242e-07
4.8113e-07
2.04849e-07
2.77349e-07
2.03785e-07
7.17908e-08
2.05565e-07
-1.33635e-07
2.05435e-07
1.96303e-07
1.87222e-05
-1.63717e-06
1.94723e-05
-1.45715e-06
2.01698e-05
-1.30118e-06
2.07293e-05
-9.79932e-07
2.118e-05
-4.64568e-07
2.17919e-05
-4.11893e-07
2.30703e-05
-1.18734e-06
2.75046e-05
-5.10988e-06
3.6632e-05
-1.27715e-05
4.68264e-05
-1.84136e-05
5.58194e-05
-2.06409e-05
6.40589e-05
-2.13018e-05
7.21429e-05
-1.9623e-05
7.91122e-05
-1.37067e-05
8.27808e-05
-5.40324e-06
8.27632e-05
1.01343e-06
8.07824e-05
4.13982e-06
7.81355e-05
4.30581e-06
7.52173e-05
3.14933e-06
7.33242e-05
8.19673e-07
7.35175e-05
-2.27813e-06
7.52565e-05
-4.669e-06
7.76379e-05
-6.13023e-06
8.0056e-05
-6.50448e-06
8.24176e-05
-5.94605e-06
8.43149e-05
-4.3363e-06
8.49718e-05
-1.80609e-06
8.38883e-05
1.09745e-06
8.11526e-05
4.31462e-06
7.76421e-05
7.16702e-06
7.4746e-05
8.44781e-06
7.22274e-05
7.94481e-06
7.02437e-05
6.19425e-06
6.86567e-05
4.58379e-06
6.71415e-05
3.47381e-06
6.55816e-05
3.06067e-06
6.4088e-05
3.21114e-06
6.27793e-05
3.1743e-06
6.17593e-05
2.3372e-06
6.14006e-05
7.83742e-07
6.14049e-05
-2.1326e-07
6.15038e-05
-4.80537e-07
6.16381e-05
-3.67858e-07
6.16338e-05
3.59081e-07
6.15845e-05
7.08239e-07
6.14652e-05
5.86357e-07
6.14754e-05
-1.4658e-07
6.16088e-05
-6.72848e-07
6.18059e-05
-6.90583e-07
6.20288e-05
-2.91842e-07
6.20399e-05
3.2211e-07
6.19285e-05
4.14125e-07
6.1751e-05
1.97501e-07
6.18771e-05
-5.05468e-07
6.23355e-05
-1.08927e-06
6.29376e-05
-1.39052e-06
6.35323e-05
-1.47984e-06
6.39676e-05
-1.35279e-06
6.40626e-05
-7.70665e-07
6.39181e-05
8.38533e-08
6.38971e-05
5.52244e-07
6.39971e-05
6.50484e-07
6.40057e-05
6.38564e-07
6.3822e-05
7.19638e-07
6.33919e-05
1.00432e-06
6.27376e-05
1.375e-06
6.20121e-05
1.38497e-06
6.14826e-05
7.93329e-07
6.13252e-05
-1.05557e-07
6.12597e-05
-3.97534e-07
6.1157e-05
-3.4563e-07
6.09103e-05
4.46041e-08
6.02872e-05
1.11592e-06
5.93326e-05
2.09696e-06
5.8621e-05
2.60652e-06
5.82193e-05
3.19379e-06
5.87354e-05
3.80851e-06
6.03528e-05
5.03114e-06
5.88196e-05
7.03798e-06
5.47728e-05
5.8673e-06
4.86292e-05
7.23835e-06
4.26031e-05
6.28746e-06
4.05139e-05
3.40453e-06
3.83794e-05
3.1317e-06
3.70537e-05
1.90515e-06
3.52929e-05
3.05939e-06
3.31377e-05
3.39776e-06
3.19526e-05
2.00733e-06
3.17274e-05
4.31888e-07
3.0716e-05
1.16304e-06
2.99234e-05
9.25669e-07
2.96224e-05
4.00934e-07
2.94186e-05
5.0882e-07
2.9309e-05
5.00744e-07
2.92614e-05
6.53846e-07
2.89534e-05
1.02724e-06
2.86798e-05
1.51349e-06
2.81566e-05
2.05603e-06
2.82282e-05
2.84584e-06
2.77945e-05
4.36998e-06
2.65785e-05
4.59232e-06
2.36676e-05
4.78823e-06
1.94045e-05
4.58843e-06
1.58585e-05
3.83438e-06
1.33413e-05
2.08201e-06
1.21648e-05
5.36701e-07
1.1788e-05
1.69842e-07
1.15113e-05
4.42193e-07
1.20151e-05
-3.07567e-07
1.30045e-05
-1.06545e-06
1.34325e-05
-4.86372e-07
1.35078e-05
-2.60908e-07
1.35324e-05
-2.02994e-07
1.34518e-05
-1.85393e-09
1.35766e-05
3.36051e-08
1.37593e-05
9.92126e-08
1.4152e-05
5.18798e-07
1.43287e-05
9.8422e-07
1.41597e-05
8.72474e-07
1.32489e-05
1.00934e-06
1.19846e-05
9.81678e-07
1.12224e-05
6.33356e-07
1.0933e-05
-9.09833e-08
1.09868e-05
-5.12156e-07
1.10679e-05
-3.32891e-07
1.14562e-05
-6.1588e-07
1.19427e-05
-7.16607e-07
1.22175e-05
-4.7237e-07
1.24394e-05
-4.69144e-07
1.26403e-05
-4.74134e-07
1.28157e-05
-4.16727e-07
1.30475e-05
-4.70817e-07
1.32981e-05
-4.67913e-07
1.35342e-05
-4.43848e-07
1.376e-05
-4.36191e-07
1.39795e-05
-4.42597e-07
1.42022e-05
-4.55642e-07
1.44147e-05
-4.37324e-07
1.46303e-05
-4.35118e-07
1.48459e-05
-4.26943e-07
1.50562e-05
-4.14928e-07
1.52564e-05
-3.96991e-07
1.5438e-05
-3.67218e-07
1.56067e-05
-3.34093e-07
1.57629e-05
-3.07902e-07
1.5907e-05
-2.83427e-07
1.60418e-05
-2.63332e-07
1.61604e-05
-2.36952e-07
1.62586e-05
-2.00528e-07
1.63366e-05
-1.60679e-07
1.64041e-05
-1.29239e-07
1.64614e-05
-1.08125e-07
1.65029e-05
-8.15704e-08
1.65229e-05
-4.42896e-08
1.65238e-05
-5.83127e-09
1.6509e-05
2.66564e-08
1.64833e-05
5.60143e-08
1.64394e-05
9.0323e-08
1.63764e-05
1.27308e-07
1.62939e-05
1.61825e-07
1.61952e-05
1.93765e-07
1.60781e-05
2.30739e-07
1.59409e-05
2.72047e-07
1.57886e-05
3.06004e-07
1.56179e-05
3.39033e-07
1.54241e-05
3.83722e-07
1.52054e-05
4.34282e-07
1.49674e-05
4.74223e-07
1.47112e-05
5.09086e-07
1.44293e-05
5.56916e-07
1.41174e-05
6.16057e-07
1.37804e-05
6.74237e-07
1.34186e-05
7.22695e-07
1.30307e-05
7.68916e-07
1.26159e-05
8.21253e-07
1.21721e-05
8.81627e-07
1.16941e-05
9.56809e-07
1.11848e-05
1.02569e-06
1.06447e-05
1.08398e-06
1.00766e-05
1.13935e-06
9.48841e-06
1.17775e-06
8.88228e-06
1.21248e-06
8.25824e-06
1.25363e-06
7.61637e-06
1.29283e-06
6.95372e-06
1.33698e-06
6.27652e-06
1.36555e-06
5.5926e-06
1.37002e-06
4.91038e-06
1.36276e-06
4.23572e-06
1.35286e-06
3.56834e-06
1.34914e-06
2.90727e-06
1.33914e-06
2.25222e-06
1.32106e-06
1.60765e-06
1.28977e-06
9.82517e-07
1.24414e-06
3.82258e-07
1.19458e-06
-1.9615e-07
1.15081e-06
-7.56308e-07
1.11717e-06
-1.29786e-06
1.08311e-06
-1.81967e-06
1.04297e-06
-2.31893e-06
9.95076e-07
-2.79572e-06
9.45431e-07
-3.25327e-06
9.06863e-07
-3.69455e-06
8.76425e-07
-4.11892e-06
8.45078e-07
-4.52411e-06
8.10168e-07
-4.91126e-06
7.73445e-07
-5.2823e-06
7.37861e-07
-5.63933e-06
7.08719e-07
-5.98275e-06
6.84555e-07
-6.31092e-06
6.58089e-07
-6.62116e-06
6.20028e-07
-6.91428e-06
5.82747e-07
-7.19348e-06
5.54392e-07
-7.45929e-06
5.29204e-07
-7.71281e-06
5.08213e-07
-7.95518e-06
4.87471e-07
-8.18444e-06
4.60706e-07
-8.4007e-06
4.29754e-07
-8.60074e-06
3.97119e-07
-8.78803e-06
3.71866e-07
-8.96341e-06
3.49475e-07
-9.12771e-06
3.30258e-07
-9.28211e-06
3.11709e-07
-9.42595e-06
2.89859e-07
-9.55966e-06
2.65976e-07
-9.68096e-06
2.40095e-07
-9.79069e-06
2.17408e-07
-9.88994e-06
1.97488e-07
-9.9798e-06
1.81247e-07
-1.00624e-05
1.67371e-07
-1.0136e-05
1.49052e-07
-1.01992e-05
1.27585e-07
-1.02527e-05
1.06062e-07
-1.02966e-05
8.75626e-08
-1.03329e-05
7.26464e-08
-1.03629e-05
5.98303e-08
-1.03872e-05
4.7469e-08
-1.04046e-05
3.45614e-08
-1.04148e-05
2.15169e-08
-1.04174e-05
7.13152e-09
-1.04121e-05
-7.21713e-09
-1.04018e-05
-2.02989e-08
-1.0386e-05
-3.28935e-08
-1.03654e-05
-4.2757e-08
-1.034e-05
-5.15932e-08
-1.03105e-05
-5.80786e-08
-1.02764e-05
-6.49983e-08
-1.02376e-05
-7.5873e-08
-1.01936e-05
-8.8786e-08
-1.01463e-05
-9.59468e-08
-1.00964e-05
-1.00606e-07
-1.00438e-05
-1.04619e-07
-9.98813e-06
-1.09569e-07
-9.92852e-06
-1.16889e-07
-9.86578e-06
-1.23981e-07
-9.80166e-06
-1.28944e-07
-9.73601e-06
-1.32414e-07
-9.66952e-06
-1.34432e-07
-9.60062e-06
-1.37565e-07
-9.52808e-06
-1.43456e-07
-9.45309e-06
-1.48468e-07
-9.37685e-06
-1.5268e-07
-9.29936e-06
-1.55953e-07
-9.22103e-06
-1.56909e-07
-9.14244e-06
-1.56546e-07
-9.06276e-06
-1.57767e-07
-8.9814e-06
-1.61433e-07
-8.89741e-06
-1.68459e-07
-8.81165e-06
-1.72313e-07
-8.72511e-06
-1.73757e-07
-8.63795e-06
-1.7497e-07
-8.54993e-06
-1.75834e-07
-8.46084e-06
-1.76846e-07
-8.37015e-06
-1.7912e-07
-8.27871e-06
-1.81688e-07
-8.18689e-06
-1.84502e-07
-8.09365e-06
-1.87448e-07
-7.99886e-06
-1.89999e-07
-7.9026e-06
-1.92617e-07
-7.80522e-06
-1.94808e-07
-7.70741e-06
-1.9499e-07
-7.60954e-06
-1.94449e-07
-7.51076e-06
-1.959e-07
-7.41063e-06
-2.00217e-07
-7.30888e-06
-2.0374e-07
-7.20682e-06
-2.04416e-07
-7.10468e-06
-2.04783e-07
-7.0015e-06
-2.06473e-07
-6.89714e-06
-2.07691e-07
-6.79209e-06
-2.08567e-07
-6.68633e-06
-2.10027e-07
-6.58008e-06
-2.11995e-07
-6.47351e-06
-2.13474e-07
-6.36649e-06
-2.14618e-07
-6.25835e-06
-2.16368e-07
-6.14872e-06
-2.18118e-07
-6.03809e-06
-2.19254e-07
-5.92725e-06
-2.20175e-07
-5.81679e-06
-2.21014e-07
-5.70563e-06
-2.22913e-07
-5.59261e-06
-2.26198e-07
-5.47757e-06
-2.29191e-07
-5.36154e-06
-2.30294e-07
-5.24531e-06
-2.3153e-07
-5.12868e-06
-2.33727e-07
-5.01014e-06
-2.37308e-07
-4.88887e-06
-2.41581e-07
-4.76629e-06
-2.44062e-07
-4.64345e-06
-2.456e-07
-4.51984e-06
-2.48091e-07
-4.3943e-06
-2.51957e-07
-4.26716e-06
-2.5487e-07
-4.1394e-06
-2.55555e-07
-4.01189e-06
-2.55045e-07
-3.88513e-06
-2.54877e-07
-3.75823e-06
-2.55643e-07
-3.63141e-06
-2.5518e-07
-3.50566e-06
-2.52779e-07
-3.38193e-06
-2.4876e-07
-3.26114e-06
-2.43272e-07
-3.14378e-06
-2.36735e-07
-3.03004e-06
-2.29373e-07
-2.92024e-06
-2.20987e-07
-2.81493e-06
-2.11154e-07
-2.71473e-06
-2.00637e-07
-2.62012e-06
-1.89825e-07
-2.53148e-06
-1.78238e-07
-2.44894e-06
-1.65808e-07
-2.37221e-06
-1.53475e-07
-2.3012e-06
-1.41806e-07
-2.23588e-06
-1.30641e-07
-2.17632e-06
-1.19529e-07
-2.12246e-06
-1.08188e-07
-2.07413e-06
-9.64791e-08
-2.03096e-06
-8.54775e-08
-1.99279e-06
-7.59357e-08
-1.9589e-06
-6.79669e-08
-1.92883e-06
-6.05688e-08
-1.90234e-06
-5.34048e-08
-1.87889e-06
-4.69906e-08
-1.85828e-06
-4.11284e-08
-1.84041e-06
-3.58591e-08
-1.82483e-06
-3.15165e-08
-1.81103e-06
-2.81575e-08
-1.79886e-06
-2.50688e-08
-1.78768e-06
-2.29218e-08
-1.77682e-06
-2.18943e-08
-1.76609e-06
-2.1529e-08
-1.75537e-06
-2.16436e-08
-1.74447e-06
-2.22407e-08
-1.73304e-06
-2.32783e-08
-1.7208e-06
-2.47381e-08
-1.70741e-06
-2.69715e-08
-1.69257e-06
-2.99756e-08
-1.676e-06
-3.34754e-08
-1.6575e-06
-3.72414e-08
-1.63697e-06
-4.12907e-08
-1.61442e-06
-4.54848e-08
-1.58967e-06
-5.00066e-08
-1.56221e-06
-5.53513e-08
-1.53179e-06
-6.10963e-08
-1.49847e-06
-6.68337e-08
-1.46229e-06
-7.25899e-08
-1.42307e-06
-7.86932e-08
-1.38077e-06
-8.48338e-08
-1.33537e-06
-9.07641e-08
-1.28674e-06
-9.68875e-08
-1.23489e-06
-1.03203e-07
-1.1799e-06
-1.09864e-07
-1.12172e-06
-1.16494e-07
-1.0605e-06
-1.22579e-07
-9.96301e-07
-1.28365e-07
-9.2908e-07
-1.34344e-07
-8.58595e-07
-1.40892e-07
-7.84883e-07
-1.47403e-07
-7.08174e-07
-1.5335e-07
-6.28862e-07
-1.58621e-07
-5.47081e-07
-1.63669e-07
-4.62787e-07
-1.68711e-07
-3.75903e-07
-1.73328e-07
-2.86606e-07
-1.77622e-07
-1.95253e-07
-1.8198e-07
-1.01937e-07
-1.86373e-07
-6.75511e-09
-1.9019e-07
8.99563e-08
-1.93248e-07
1.88041e-07
-1.9602e-07
2.87484e-07
-1.98486e-07
3.88083e-07
-2.00634e-07
4.89662e-07
-2.02626e-07
5.91894e-07
-2.04297e-07
6.94683e-07
-2.05302e-07
7.97907e-07
-2.05825e-07
9.01537e-07
-2.06244e-07
1.00498e-06
-2.06347e-07
1.10814e-06
-2.05999e-07
1.21075e-06
-2.05178e-07
1.31309e-06
-2.0443e-07
1.4147e-06
-2.02898e-07
1.51582e-06
-2.01083e-07
1.61529e-06
-1.98216e-07
1.71368e-06
-1.96203e-07
1.8104e-06
-1.9356e-07
1.90622e-06
-1.91564e-07
2.00031e-06
-1.88307e-07
2.09368e-06
-1.86229e-07
2.18431e-06
-1.80875e-07
2.27392e-06
-1.78933e-07
2.36031e-06
-1.73956e-07
2.44557e-06
-1.7216e-07
2.53104e-06
-1.70208e-07
2.61443e-06
-1.65742e-07
2.69805e-06
-1.6328e-07
2.77641e-06
-1.54729e-07
2.85329e-06
-1.52762e-07
2.92092e-06
-1.40836e-07
2.9843e-06
-1.32418e-07
3.05567e-06
-1.38965e-07
3.12669e-06
-1.30606e-07
3.19507e-06
-1.22364e-07
3.2619e-06
-1.28283e-07
3.2816e-06
-7.59801e-08
3.28807e-06
-5.82783e-08
3.35302e-06
-1.23465e-07
3.42621e-06
-8.85056e-08
3.55719e-06
-1.33926e-07
3.70582e-06
-2.07016e-07
4.00256e-06
-3.21749e-07
4.33342e-06
-4.03676e-07
4.54316e-06
-3.32678e-07
4.65174e-06
-3.8161e-07
4.67973e-06
-3.5745e-07
4.73271e-06
-2.62401e-07
4.77404e-06
-2.05644e-07
4.83774e-06
-1.69733e-07
4.89555e-06
-1.33971e-07
4.96257e-06
-1.21077e-07
5.02343e-06
-1.1278e-07
5.07461e-06
-9.65188e-08
5.05828e-06
-2.13445e-08
5.01337e-06
1.90863e-08
5.03068e-06
-4.74524e-08
5.06954e-06
-5.99858e-09
5.19748e-06
-7.41367e-08
5.36591e-06
-1.68376e-07
5.74076e-06
-3.41718e-07
6.20375e-06
-5.013e-07
6.54169e-06
-4.45394e-07
6.7293e-06
-5.07453e-07
6.75505e-06
-4.65143e-07
6.79091e-06
-3.59292e-07
6.81096e-06
-2.77749e-07
6.83899e-06
-1.78049e-07
6.82823e-06
-9.18633e-08
6.83016e-06
-6.58873e-08
6.83447e-06
-3.92558e-08
6.84982e-06
-2.76017e-08
6.8666e-06
1.81445e-08
6.90397e-06
-3.14666e-09
6.8764e-06
6.43345e-08
6.64148e-06
2.89843e-07
6.44362e-06
2.30222e-07
6.37005e-06
1.44851e-07
6.40092e-06
2.20718e-07
6.79634e-06
-2.08547e-07
7.50894e-06
-5.84837e-07
9.22535e-06
-1.54441e-06
1.08749e-05
-1.86633e-06
1.21362e-05
-1.74866e-06
1.27233e-05
-1.97708e-06
1.28789e-05
-1.70404e-06
1.30041e-05
-1.36961e-06
1.31497e-05
-1.10321e-06
1.33059e-05
-8.73345e-07
1.34662e-05
-6.32388e-07
1.35889e-05
-4.3362e-07
1.36753e-05
-2.91981e-07
1.37301e-05
-1.88203e-07
1.37547e-05
-1.0037e-07
1.37531e-05
-2.5761e-08
1.37286e-05
3.10079e-08
1.36849e-05
7.32042e-08
1.36212e-05
1.16021e-07
1.3539e-05
1.5516e-07
1.34413e-05
1.87958e-07
1.33303e-05
2.19576e-07
1.32081e-05
2.41126e-07
1.30755e-05
2.60455e-07
1.29335e-05
2.81708e-07
1.27828e-05
3.03844e-07
1.26248e-05
3.16829e-07
1.24595e-05
3.26831e-07
1.22872e-05
3.42303e-07
1.2108e-05
3.59536e-07
1.19231e-05
3.74016e-07
1.17327e-05
3.83393e-07
1.15372e-05
3.90388e-07
1.13379e-05
3.98587e-07
1.11357e-05
4.04917e-07
1.09299e-05
4.12802e-07
1.07185e-05
4.21115e-07
1.05031e-05
4.30625e-07
1.02865e-05
4.38024e-07
1.00682e-05
4.39911e-07
9.84884e-06
4.38487e-07
9.62831e-06
4.37622e-07
9.40612e-06
4.39082e-07
9.18321e-06
4.41637e-07
8.95971e-06
4.44655e-07
8.73518e-06
4.47361e-07
8.51034e-06
4.48984e-07
8.28545e-06
4.49694e-07
8.05936e-06
4.50081e-07
7.8322e-06
4.53178e-07
7.60485e-06
4.52599e-07
7.3768e-06
4.50965e-07
7.14827e-06
4.53e-07
6.91964e-06
4.56625e-07
6.6913e-06
4.58779e-07
6.46324e-06
4.59205e-07
6.23544e-06
4.58435e-07
6.00789e-06
4.56735e-07
5.78065e-06
4.54583e-07
5.55414e-06
4.52572e-07
5.3285e-06
4.50807e-07
5.10374e-06
4.49339e-07
4.87937e-06
4.48493e-07
4.65572e-06
4.47634e-07
4.43261e-06
4.46387e-07
4.21028e-06
4.44534e-07
3.98896e-06
4.42372e-07
3.76809e-06
4.40958e-07
3.54744e-06
4.40609e-07
3.32717e-06
4.40321e-07
3.10806e-06
4.38847e-07
2.89012e-06
4.36532e-07
2.67277e-06
4.34389e-07
2.45534e-06
4.34144e-07
2.23848e-06
4.33508e-07
2.02293e-06
4.33069e-07
1.80845e-06
4.2989e-07
1.59427e-06
4.30683e-07
1.38001e-06
4.30629e-07
1.16573e-06
4.29692e-07
9.54598e-07
4.20762e-07
7.41056e-07
4.16774e-07
5.30634e-07
4.15259e-07
3.16124e-07
4.18287e-07
1.03606e-07
4.18081e-07
-1.11213e-07
4.20246e-07
4.15041e-07
1.88648e-05
-2.52501e-06
1.96812e-05
-2.27333e-06
2.05281e-05
-2.14786e-06
2.13744e-05
-1.82604e-06
2.23518e-05
-1.44182e-06
2.36845e-05
-1.74443e-06
2.6315e-05
-3.81775e-06
3.30857e-05
-1.18805e-05
4.14826e-05
-2.11684e-05
4.84799e-05
-2.54113e-05
5.4423e-05
-2.65821e-05
5.94835e-05
-2.6359e-05
6.34246e-05
-2.35612e-05
6.63741e-05
-1.66552e-05
6.86764e-05
-7.70535e-06
6.99937e-05
-3.03788e-07
7.03959e-05
3.73789e-06
6.99815e-05
4.72038e-06
6.87746e-05
4.3563e-06
6.7273e-05
2.3214e-06
6.59548e-05
-9.59848e-07
6.49161e-05
-3.63035e-06
6.39036e-05
-5.11771e-06
6.28968e-05
-5.49771e-06
6.19847e-05
-5.03395e-06
6.10119e-05
-3.36347e-06
5.96568e-05
-4.51e-07
5.82984e-05
2.45572e-06
5.74962e-05
5.11561e-06
5.77729e-05
6.87574e-06
5.88464e-05
7.37621e-06
6.02057e-05
6.59296e-06
6.14383e-05
4.96359e-06
6.21526e-05
3.87017e-06
6.20974e-05
3.52769e-06
6.14904e-05
3.64667e-06
6.09553e-05
3.72216e-06
6.06207e-05
3.50897e-06
6.03966e-05
2.56131e-06
6.04548e-05
7.60598e-07
6.06072e-05
-3.57003e-07
6.07799e-05
-6.53651e-07
6.0967e-05
-5.63012e-07
6.12559e-05
3.92487e-08
6.15266e-05
4.38454e-07
6.17766e-05
3.54029e-07
6.19851e-05
-3.36561e-07
6.21427e-05
-8.28538e-07
6.22857e-05
-8.35072e-07
6.23905e-05
-4.27923e-07
6.24124e-05
3.0017e-07
6.23565e-05
4.70061e-07
6.22384e-05
3.37612e-07
6.21231e-05
-3.78914e-07
6.22461e-05
-1.21142e-06
6.24118e-05
-1.55617e-06
6.2511e-05
-1.57912e-06
6.25812e-05
-1.42509e-06
6.25267e-05
-7.50335e-07
6.26698e-05
-6.40705e-08
6.31327e-05
8.91866e-08
6.38679e-05
-5.74908e-08
6.45301e-05
-2.31617e-08
6.47271e-05
4.93097e-07
6.43943e-05
1.33723e-06
6.38874e-05
1.88182e-06
6.33101e-05
1.96231e-06
6.25854e-05
1.548e-06
6.20433e-05
4.47095e-07
6.17618e-05
-1.1576e-07
6.15513e-05
-1.37421e-07
6.13649e-05
2.03779e-07
6.11824e-05
1.2984e-06
6.08666e-05
2.41276e-06
6.04657e-05
3.02468e-06
6.03329e-05
3.33835e-06
6.05619e-05
3.58073e-06
6.1808e-05
3.78513e-06
6.4612e-05
4.23405e-06
6.59398e-05
4.5395e-06
6.69369e-05