/*--------------------------------*- C++ -*----------------------------------*\
| =========                 |                                                 |
| \\      /  F ield         | OpenFOAM: The Open Source CFD Toolbox           |
|  \\    /   O peration     | Version:  v2006                                 |
|   \\  /    A nd           | Website:  www.openfoam.com                      |
|    \\/     M anipulation  |                                                 |
\*---------------------------------------------------------------------------*/
FoamFile
{
    version     2.0;
    format      ascii;
    class       volScalarField;
    location    "7.4";
    object      k;
}
// * * * * * * * * * * * * * * * * * * * * * * * * * * * * * * * * * * * * * //

dimensions      [0 2 -2 0 0 0 0];


internalField   nonuniform List<scalar> 
33000
(
1.1146e-08
1.2164e-08
1.33659e-08
1.50895e-08
1.7642e-08
2.09844e-08
2.44788e-08
2.67407e-08
2.68648e-08
2.60167e-08
2.57042e-08
2.65443e-08
2.89484e-08
3.31917e-08
3.89028e-08
4.50425e-08
5.12566e-08
5.75275e-08
6.38973e-08
7.08195e-08
7.91735e-08
8.94874e-08
1.01572e-07
1.13943e-07
1.24413e-07
1.31814e-07
1.37343e-07
1.45018e-07
1.6083e-07
1.90463e-07
2.40522e-07
3.1351e-07
4.02066e-07
4.92221e-07
5.71389e-07
6.32816e-07
6.75649e-07
7.02344e-07
7.16434e-07
7.21417e-07
7.19578e-07
7.16445e-07
7.15063e-07
7.13048e-07
7.09062e-07
7.02859e-07
6.93241e-07
6.84167e-07
6.80429e-07
6.7998e-07
6.7704e-07
6.70725e-07
6.60036e-07
6.45671e-07
6.32126e-07
6.21775e-07
6.162e-07
6.16853e-07
6.24658e-07
6.35345e-07
6.41912e-07
6.43823e-07
6.40776e-07
6.32463e-07
6.18391e-07
5.97684e-07
5.69455e-07
5.34029e-07
4.94271e-07
4.5761e-07
4.27829e-07
4.05308e-07
3.85812e-07
3.66519e-07
3.46744e-07
3.26949e-07
3.0851e-07
2.93212e-07
2.83354e-07
2.82836e-07
2.93982e-07
3.16465e-07
3.46755e-07
3.8071e-07
4.12385e-07
4.37981e-07
4.57065e-07
4.69668e-07
4.75257e-07
4.75241e-07
4.69706e-07
4.58425e-07
4.42315e-07
4.22033e-07
3.98632e-07
3.7334e-07
3.47969e-07
3.24341e-07
3.04768e-07
2.91518e-07
2.88347e-07
2.97182e-07
3.12173e-07
3.25605e-07
3.28741e-07
3.28562e-07
3.33034e-07
3.38975e-07
3.41621e-07
3.39474e-07
3.36828e-07
3.31577e-07
3.26692e-07
3.21828e-07
3.15267e-07
3.05913e-07
2.95405e-07
2.85974e-07
2.81482e-07
2.82326e-07
2.82575e-07
2.86388e-07
2.85465e-07
2.84395e-07
2.87466e-07
2.9024e-07
2.92199e-07
2.93903e-07
2.94347e-07
2.9453e-07
2.95261e-07
2.95929e-07
2.96628e-07
2.96981e-07
2.97061e-07
2.96956e-07
2.96788e-07
2.96705e-07
2.96626e-07
2.96561e-07
2.96477e-07
2.96376e-07
2.96252e-07
2.96046e-07
2.95724e-07
2.95267e-07
2.94682e-07
2.94021e-07
2.93318e-07
2.92567e-07
2.91708e-07
2.90727e-07
2.89653e-07
2.8851e-07
2.87306e-07
2.86033e-07
2.84683e-07
2.8324e-07
2.817e-07
2.80063e-07
2.78336e-07
2.76515e-07
2.74593e-07
2.72558e-07
2.70401e-07
2.68118e-07
2.65714e-07
2.632e-07
2.60579e-07
2.57869e-07
2.55131e-07
2.5242e-07
2.49767e-07
2.47196e-07
2.44742e-07
2.42481e-07
2.40439e-07
2.38593e-07
2.36935e-07
2.35491e-07
2.34392e-07
2.33616e-07
2.33101e-07
2.32867e-07
2.32953e-07
2.33342e-07
2.33956e-07
2.34686e-07
2.35487e-07
2.36377e-07
2.37387e-07
2.38502e-07
2.39666e-07
2.40801e-07
2.41851e-07
2.42817e-07
2.43711e-07
2.44518e-07
2.45209e-07
2.45716e-07
2.45932e-07
2.45823e-07
2.45469e-07
2.44969e-07
2.44389e-07
2.43719e-07
2.42912e-07
2.41962e-07
2.40947e-07
2.39958e-07
2.39015e-07
2.38029e-07
2.36955e-07
2.35863e-07
2.34887e-07
2.34107e-07
2.33473e-07
2.32885e-07
2.32249e-07
2.31563e-07
2.30926e-07
2.30438e-07
2.30118e-07
2.29896e-07
2.29664e-07
2.29347e-07
2.28958e-07
2.28579e-07
2.28279e-07
2.28081e-07
2.2793e-07
2.27717e-07
2.27386e-07
2.26977e-07
2.26561e-07
2.26167e-07
2.25787e-07
2.25403e-07
2.24995e-07
2.24546e-07
2.24045e-07
2.23469e-07
2.22798e-07
2.22076e-07
2.21359e-07
2.20685e-07
2.20034e-07
2.1931e-07
2.1843e-07
2.17461e-07
2.16513e-07
2.1561e-07
2.14706e-07
2.13742e-07
2.12693e-07
2.11572e-07
2.10417e-07
2.09254e-07
2.08074e-07
2.06856e-07
2.05575e-07
2.04222e-07
2.02825e-07
2.01428e-07
2.00055e-07
1.98676e-07
1.97228e-07
1.95657e-07
1.94006e-07
1.92354e-07
1.90723e-07
1.89096e-07
1.87456e-07
1.8578e-07
1.84036e-07
1.82218e-07
1.80359e-07
1.78482e-07
1.76583e-07
1.74663e-07
1.72734e-07
1.70799e-07
1.68826e-07
1.66766e-07
1.64632e-07
1.62482e-07
1.60323e-07
1.58131e-07
1.55903e-07
1.53632e-07
1.513e-07
1.48887e-07
1.46392e-07
1.43798e-07
1.41072e-07
1.38293e-07
1.35523e-07
1.3275e-07
1.29966e-07
1.27179e-07
1.24391e-07
1.21607e-07
1.1883e-07
1.16035e-07
1.13202e-07
1.10349e-07
1.07515e-07
1.04748e-07
1.02083e-07
9.95365e-08
9.71255e-08
9.48634e-08
9.27565e-08
9.0795e-08
8.89683e-08
8.72834e-08
8.57516e-08
8.4371e-08
8.31392e-08
8.20572e-08
8.11275e-08
8.03476e-08
7.97064e-08
7.91936e-08
7.87977e-08
7.85117e-08
7.83286e-08
7.82355e-08
7.82171e-08
7.82601e-08
7.83561e-08
7.84969e-08
7.86757e-08
7.88852e-08
7.91138e-08
7.93504e-08
7.95852e-08
7.98083e-08
8.00067e-08
8.01694e-08
8.02901e-08
8.03683e-08
8.04065e-08
8.04094e-08
8.03793e-08
8.03138e-08
8.02124e-08
8.0078e-08
7.99151e-08
7.97259e-08
7.95106e-08
7.92666e-08
7.89929e-08
7.86923e-08
7.83679e-08
7.8019e-08
7.76464e-08
7.72527e-08
7.68397e-08
7.64084e-08
7.59606e-08
7.54976e-08
7.50203e-08
7.45299e-08
7.40282e-08
7.35167e-08
7.29957e-08
7.2466e-08
7.19298e-08
7.13903e-08
7.08488e-08
7.03041e-08
6.9754e-08
6.91994e-08
6.8642e-08
6.80827e-08
6.75196e-08
6.69524e-08
6.63813e-08
6.58077e-08
6.52279e-08
6.46419e-08
6.40515e-08
6.34593e-08
6.28647e-08
6.2266e-08
6.16615e-08
6.10497e-08
6.04314e-08
5.98088e-08
5.91836e-08
5.85539e-08
5.79187e-08
5.7281e-08
5.66436e-08
5.60068e-08
5.53721e-08
5.47415e-08
5.41139e-08
5.34882e-08
5.28661e-08
5.225e-08
5.16425e-08
5.10428e-08
5.04524e-08
4.98711e-08
4.92971e-08
4.87364e-08
4.81886e-08
4.76564e-08
4.71382e-08
4.66295e-08
4.61328e-08
4.56355e-08
4.51585e-08
4.46849e-08
4.42138e-08
4.37577e-08
4.32823e-08
4.27902e-08
4.23525e-08
4.18962e-08
4.14546e-08
4.10669e-08
4.0463e-08
3.98541e-08
3.95404e-08
3.89201e-08
3.86514e-08
3.82342e-08
3.88215e-08
3.93495e-08
3.98496e-08
4.01172e-08
4.02529e-08
4.02206e-08
4.0093e-08
3.99206e-08
3.97384e-08
3.95417e-08
3.93048e-08
3.91449e-08
3.88356e-08
3.84459e-08
3.82491e-08
3.78187e-08
3.72595e-08
3.63336e-08
3.63134e-08
3.65888e-08
3.70428e-08
3.75041e-08
3.7746e-08
3.78781e-08
3.78972e-08
3.78975e-08
3.78117e-08
3.76072e-08
3.73935e-08
3.71819e-08
3.68505e-08
3.67881e-08
3.64655e-08
3.55699e-08
3.51622e-08
3.44166e-08
3.36711e-08
3.35362e-08
3.4262e-08
3.71095e-08
3.97932e-08
4.35974e-08
4.76741e-08
5.1765e-08
5.54024e-08
5.83905e-08
6.07806e-08
6.26781e-08
6.41635e-08
6.52893e-08
6.61582e-08
6.68621e-08
6.74205e-08
6.78648e-08
6.82301e-08
6.85061e-08
6.87273e-08
6.89184e-08
6.90728e-08
6.91625e-08
6.92265e-08
6.92964e-08
6.9352e-08
6.93703e-08
6.93513e-08
6.93149e-08
6.92746e-08
6.92223e-08
6.91609e-08
6.9083e-08
6.90099e-08
6.89119e-08
6.87673e-08
6.86055e-08
6.84495e-08
6.83046e-08
6.81649e-08
6.80182e-08
6.78601e-08
6.7689e-08
6.75064e-08
6.73191e-08
6.71393e-08
6.69352e-08
6.67304e-08
6.65519e-08
6.6374e-08
6.6174e-08
6.59548e-08
6.57209e-08
6.5479e-08
6.52367e-08
6.49944e-08
6.47533e-08
6.4519e-08
6.4296e-08
6.40835e-08
6.38787e-08
6.36818e-08
6.34967e-08
6.33276e-08
6.31789e-08
6.30466e-08
6.29225e-08
6.28054e-08
6.27018e-08
6.26235e-08
6.25673e-08
6.25327e-08
6.25054e-08
6.24944e-08
6.25181e-08
6.27294e-08
6.22553e-08
6.33873e-08
6.19775e-08
6.44442e-08
6.24179e-08
6.47437e-08
5.83781e-08
1.00086e-08
1.00522e-08
1.01962e-08
1.05235e-08
1.10743e-08
1.18595e-08
1.28978e-08
1.38301e-08
1.39665e-08
1.39304e-08
1.40505e-08
1.44717e-08
1.53915e-08
1.71211e-08
2.00338e-08
2.39855e-08
2.98493e-08
3.78179e-08
4.88494e-08
6.50286e-08
8.77576e-08
1.17667e-07
1.54267e-07
1.95729e-07
2.38624e-07
2.78391e-07
3.11779e-07
3.37163e-07
3.54835e-07
3.67937e-07
3.84292e-07
4.04857e-07
4.19397e-07
4.17259e-07
3.95361e-07
3.66275e-07
3.38272e-07
3.07198e-07
2.65761e-07
2.1767e-07
1.78083e-07
1.54381e-07
1.4617e-07
1.48379e-07
1.47609e-07
1.37709e-07
1.23308e-07
1.12875e-07
1.09172e-07
1.11261e-07
1.1304e-07
1.07888e-07
9.68908e-08
8.4906e-08
7.44214e-08
6.68661e-08
6.3121e-08
6.39089e-08
6.99699e-08
8.15701e-08
9.5655e-08
1.0424e-07
1.05921e-07
1.03982e-07
1.00844e-07
9.55004e-08
8.51843e-08
7.11267e-08
5.91155e-08
5.13534e-08
4.77996e-08
4.84567e-08
5.5001e-08
6.44014e-08
7.45317e-08
8.58623e-08
1.01844e-07
1.24516e-07
1.4457e-07
1.6119e-07
1.83791e-07
2.14146e-07
2.57027e-07
3.04527e-07
3.24917e-07
3.44188e-07
3.08493e-07
2.34399e-07
1.64022e-07
1.15512e-07
8.0913e-08
5.8384e-08
4.69531e-08
4.14042e-08
4.11896e-08
4.42316e-08
5.24211e-08
6.26531e-08
8.21051e-08
1.04766e-07
1.17724e-07
1.19833e-07
1.11738e-07
1.02433e-07
8.87524e-08
7.07361e-08
5.55041e-08
4.35306e-08
3.50357e-08
2.92148e-08
2.64036e-08
2.50355e-08
2.42488e-08
2.42253e-08
2.66849e-08
3.02453e-08
4.0297e-08
4.85437e-08
4.77759e-08
4.04627e-08
3.45603e-08
3.04942e-08
2.83916e-08
2.72011e-08
2.67329e-08
2.59314e-08
2.52361e-08
2.47844e-08
2.45986e-08
2.45981e-08
2.47628e-08
2.49286e-08
2.50459e-08
2.51559e-08
2.53419e-08
2.56152e-08
2.59176e-08
2.62085e-08
2.64757e-08
2.67593e-08
2.70892e-08
2.74501e-08
2.77929e-08
2.80664e-08
2.82621e-08
2.8443e-08
2.87006e-08
2.90801e-08
2.953e-08
2.9901e-08
3.01246e-08
3.03231e-08
3.06371e-08
3.10517e-08
3.14665e-08
3.18188e-08
3.21043e-08
3.2369e-08
3.26242e-08
3.28541e-08
3.31003e-08
3.34059e-08
3.36468e-08
3.37349e-08
3.38323e-08
3.40697e-08
3.42682e-08
3.4242e-08
3.41618e-08
3.42286e-08
3.43856e-08
3.44263e-08
3.4198e-08
3.38863e-08
3.36462e-08
3.35387e-08
3.35223e-08
3.33339e-08
3.29598e-08
3.25208e-08
3.19562e-08
3.13635e-08
3.08884e-08
3.04723e-08
3.01166e-08
2.96673e-08
2.90442e-08
2.83774e-08
2.77728e-08
2.72941e-08
2.683e-08
2.63193e-08
2.57444e-08
2.51172e-08
2.44976e-08
2.39372e-08
2.34827e-08
2.30879e-08
2.26566e-08
2.21582e-08
2.15988e-08
2.10874e-08
2.06595e-08
2.02752e-08
1.98913e-08
1.94883e-08
1.90641e-08
1.86782e-08
1.83584e-08
1.8072e-08
1.77301e-08
1.73314e-08
1.6972e-08
1.66781e-08
1.64446e-08
1.62447e-08
1.60165e-08
1.57421e-08
1.54447e-08
1.51833e-08
1.49728e-08
1.48068e-08
1.46649e-08
1.45053e-08
1.43227e-08
1.41322e-08
1.39607e-08
1.38214e-08
1.37138e-08
1.36285e-08
1.35295e-08
1.34164e-08
1.3307e-08
1.32135e-08
1.31426e-08
1.30873e-08
1.30407e-08
1.30008e-08
1.29678e-08
1.29393e-08
1.29172e-08
1.28972e-08
1.28767e-08
1.28587e-08
1.28467e-08
1.284e-08
1.28338e-08
1.28223e-08
1.28055e-08
1.27896e-08
1.27788e-08
1.27719e-08
1.27651e-08
1.27554e-08
1.27426e-08
1.27281e-08
1.27141e-08
1.27016e-08
1.26899e-08
1.26775e-08
1.26636e-08
1.26493e-08
1.26378e-08
1.26314e-08
1.26281e-08
1.26224e-08
1.261e-08
1.25922e-08
1.25755e-08
1.25649e-08
1.2561e-08
1.2561e-08
1.25601e-08
1.25547e-08
1.25446e-08
1.25328e-08
1.25221e-08
1.25133e-08
1.25067e-08
1.25032e-08
1.25028e-08
1.25019e-08
1.24957e-08
1.24841e-08
1.24716e-08
1.24619e-08
1.24556e-08
1.24519e-08
1.24488e-08
1.24426e-08
1.24312e-08
1.24166e-08
1.24022e-08
1.239e-08
1.23804e-08
1.23709e-08
1.23576e-08
1.23396e-08
1.23186e-08
1.22971e-08
1.22775e-08
1.22586e-08
1.2236e-08
1.22082e-08
1.21773e-08
1.21464e-08
1.21154e-08
1.20815e-08
1.20447e-08
1.20077e-08
1.1974e-08
1.19436e-08
1.1913e-08
1.1879e-08
1.18429e-08
1.18092e-08
1.17792e-08
1.17504e-08
1.17216e-08
1.16932e-08
1.16669e-08
1.16441e-08
1.16231e-08
1.16022e-08
1.15824e-08
1.1566e-08
1.15539e-08
1.15436e-08
1.15334e-08
1.15241e-08
1.15183e-08
1.15177e-08
1.15203e-08
1.15218e-08
1.15205e-08
1.15176e-08
1.15157e-08
1.15158e-08
1.15176e-08
1.15193e-08
1.15188e-08
1.15161e-08
1.15126e-08
1.15106e-08
1.15104e-08
1.15094e-08
1.15057e-08
1.14999e-08
1.14946e-08
1.14916e-08
1.14902e-08
1.14873e-08
1.14817e-08
1.14766e-08
1.14735e-08
1.14706e-08
1.14667e-08
1.14625e-08
1.14585e-08
1.14544e-08
1.14504e-08
1.14462e-08
1.14417e-08
1.14374e-08
1.14335e-08
1.14292e-08
1.14236e-08
1.14163e-08
1.14082e-08
1.14004e-08
1.13932e-08
1.1385e-08
1.13747e-08
1.13627e-08
1.13509e-08
1.13394e-08
1.13275e-08
1.1315e-08
1.13025e-08
1.12903e-08
1.12766e-08
1.12602e-08
1.12426e-08
1.12255e-08
1.12092e-08
1.11928e-08
1.11766e-08
1.11591e-08
1.11401e-08
1.1121e-08
1.11035e-08
1.1086e-08
1.10669e-08
1.1047e-08
1.10279e-08
1.10085e-08
1.09897e-08
1.09721e-08
1.0955e-08
1.09369e-08
1.09171e-08
1.08962e-08
1.08768e-08
1.08582e-08
1.08405e-08
1.08229e-08
1.08033e-08
1.07818e-08
1.07612e-08
1.07417e-08
1.07243e-08
1.07068e-08
1.06899e-08
1.06694e-08
1.06506e-08
1.06359e-08
1.06216e-08
1.06133e-08
1.06049e-08
1.05847e-08
1.05661e-08
1.0564e-08
1.05896e-08
1.06448e-08
1.06914e-08
1.06652e-08
1.07592e-08
1.07631e-08
1.06916e-08
1.05721e-08
1.04888e-08
1.04756e-08
1.04694e-08
1.04704e-08
1.04757e-08
1.0464e-08
1.04479e-08
1.04317e-08
1.04352e-08
1.04559e-08
1.05163e-08
1.06871e-08
1.07973e-08
1.07296e-08
1.08348e-08
1.07497e-08
1.06515e-08
1.05461e-08
1.0493e-08
1.04749e-08
1.04197e-08
1.03531e-08
1.03068e-08
1.03092e-08
1.03257e-08
1.03611e-08
1.03984e-08
1.03959e-08
1.04024e-08
1.05077e-08
1.05458e-08
1.07362e-08
1.10976e-08
1.11607e-08
1.13772e-08
1.12576e-08
1.11265e-08
1.10737e-08
1.13577e-08
1.16115e-08
1.13322e-08
1.11743e-08
1.10979e-08
1.10095e-08
1.08775e-08
1.07626e-08
1.06998e-08
1.06944e-08
1.07314e-08
1.07774e-08
1.0812e-08
1.08536e-08
1.0893e-08
1.09267e-08
1.09636e-08
1.09792e-08
1.09909e-08
1.10133e-08
1.10416e-08
1.10452e-08
1.10395e-08
1.10535e-08
1.10762e-08
1.10933e-08
1.10936e-08
1.10869e-08
1.10871e-08
1.10861e-08
1.10879e-08
1.10862e-08
1.10946e-08
1.11029e-08
1.10895e-08
1.10656e-08
1.10435e-08
1.10295e-08
1.10238e-08
1.10212e-08
1.1017e-08
1.10111e-08
1.10033e-08
1.09921e-08
1.09894e-08
1.09775e-08
1.09616e-08
1.09601e-08
1.09664e-08
1.09687e-08
1.09644e-08
1.09551e-08
1.09424e-08
1.09287e-08
1.0917e-08
1.09076e-08
1.09e-08
1.08938e-08
1.08885e-08
1.08814e-08
1.08729e-08
1.08644e-08
1.08573e-08
1.08536e-08
1.08515e-08
1.08478e-08
1.0841e-08
1.08328e-08
1.08291e-08
1.08271e-08
1.08277e-08
1.08203e-08
1.08152e-08
1.08251e-08
1.08056e-08
1.07989e-08
1.07698e-08
1.07894e-08
1.08169e-08
1.08634e-08
1.09541e-08
1.08418e-08
1.00035e-08
1.00198e-08
1.00792e-08
1.02316e-08
1.05143e-08
1.08868e-08
1.12022e-08
1.13343e-08
1.14009e-08
1.15411e-08
1.18219e-08
1.22938e-08
1.29878e-08
1.3912e-08
1.53013e-08
1.79517e-08
2.26727e-08
3.02886e-08
4.27766e-08
6.28862e-08
9.25939e-08
1.32553e-07
1.82774e-07
2.41458e-07
3.03995e-07
3.62032e-07
4.04246e-07
4.2426e-07
4.24061e-07
4.12949e-07
3.95249e-07
3.6941e-07
3.34035e-07
2.92103e-07
2.47853e-07
2.10561e-07
1.81189e-07
1.55934e-07
1.3003e-07
1.03219e-07
8.07258e-08
6.6382e-08
5.94175e-08
5.70519e-08
5.51677e-08
5.18924e-08
4.7281e-08
4.34246e-08
4.15662e-08
4.12892e-08
4.10305e-08
3.95522e-08
3.67021e-08
3.29607e-08
2.91268e-08
2.61047e-08
2.43337e-08
2.4006e-08
2.51733e-08
2.74837e-08
3.01603e-08
3.20343e-08
3.29513e-08
3.35238e-08
3.40819e-08
3.38024e-08
3.208e-08
2.92101e-08
2.6116e-08
2.38823e-08
2.30753e-08
2.37271e-08
2.56417e-08
2.82647e-08
3.09519e-08
3.39572e-08
3.79231e-08
4.51205e-08
5.77545e-08
7.15023e-08
9.10976e-08
1.13924e-07
1.3812e-07
1.6803e-07
1.98942e-07
2.30964e-07
2.48199e-07
2.44065e-07
2.18159e-07
1.7856e-07
1.25962e-07
8.72895e-08
6.20911e-08
4.45521e-08
3.3847e-08
2.86197e-08
2.72894e-08
2.84407e-08
3.18947e-08
3.84556e-08
4.37224e-08
4.68782e-08
4.73835e-08
4.51969e-08
3.97038e-08
3.27908e-08
2.71173e-08
2.33171e-08
2.03298e-08
1.80094e-08
1.6266e-08
1.48382e-08
1.3793e-08
1.29697e-08
1.24693e-08
1.23277e-08
1.30595e-08
1.44333e-08
1.49907e-08
1.51288e-08
1.49206e-08
1.43803e-08
1.36432e-08
1.31434e-08
1.27895e-08
1.25023e-08
1.22418e-08
1.20701e-08
1.19299e-08
1.18397e-08
1.18004e-08
1.17701e-08
1.17375e-08
1.17454e-08
1.17793e-08
1.18281e-08
1.18729e-08
1.1911e-08
1.19424e-08
1.19778e-08
1.20255e-08
1.20815e-08
1.21337e-08
1.21738e-08
1.22026e-08
1.22326e-08
1.22773e-08
1.23402e-08
1.24083e-08
1.24615e-08
1.24979e-08
1.25386e-08
1.26e-08
1.26735e-08
1.27409e-08
1.27984e-08
1.28536e-08
1.29126e-08
1.29688e-08
1.30168e-08
1.30662e-08
1.31239e-08
1.31699e-08
1.31935e-08
1.3221e-08
1.32711e-08
1.33124e-08
1.33124e-08
1.33003e-08
1.3315e-08
1.33422e-08
1.33456e-08
1.33013e-08
1.32367e-08
1.31798e-08
1.31419e-08
1.3119e-08
1.30675e-08
1.29833e-08
1.2884e-08
1.27593e-08
1.26278e-08
1.25146e-08
1.24143e-08
1.23282e-08
1.22337e-08
1.2116e-08
1.19911e-08
1.18739e-08
1.17755e-08
1.16868e-08
1.15998e-08
1.15106e-08
1.14171e-08
1.13249e-08
1.12423e-08
1.11742e-08
1.11158e-08
1.10579e-08
1.09965e-08
1.09321e-08
1.08731e-08
1.0823e-08
1.07785e-08
1.07357e-08
1.06935e-08
1.06524e-08
1.06153e-08
1.05835e-08
1.05545e-08
1.05234e-08
1.04903e-08
1.04601e-08
1.04344e-08
1.04134e-08
1.03957e-08
1.03778e-08
1.03585e-08
1.03382e-08
1.03196e-08
1.0304e-08
1.02915e-08
1.02811e-08
1.0271e-08
1.02606e-08
1.025e-08
1.02401e-08
1.02317e-08
1.0225e-08
1.02196e-08
1.02146e-08
1.02092e-08
1.02036e-08
1.01986e-08
1.01946e-08
1.01918e-08
1.01899e-08
1.01885e-08
1.01872e-08
1.0186e-08
1.01848e-08
1.01837e-08
1.01829e-08
1.01824e-08
1.01824e-08
1.01825e-08
1.01826e-08
1.01823e-08
1.01817e-08
1.01813e-08
1.01812e-08
1.01814e-08
1.01815e-08
1.01813e-08
1.01809e-08
1.01805e-08
1.01803e-08
1.01801e-08
1.01797e-08
1.0179e-08
1.01781e-08
1.01773e-08
1.01769e-08
1.01768e-08
1.01769e-08
1.01766e-08
1.01758e-08
1.01744e-08
1.01732e-08
1.01725e-08
1.01723e-08
1.01723e-08
1.01721e-08
1.01716e-08
1.01709e-08
1.01701e-08
1.01693e-08
1.01686e-08
1.0168e-08
1.01677e-08
1.01677e-08
1.01677e-08
1.01673e-08
1.01664e-08
1.01655e-08
1.01649e-08
1.01646e-08
1.01644e-08
1.01643e-08
1.01639e-08
1.01633e-08
1.01626e-08
1.01619e-08
1.01614e-08
1.0161e-08
1.01606e-08
1.01601e-08
1.01594e-08
1.01586e-08
1.01577e-08
1.01567e-08
1.01559e-08
1.01549e-08
1.01538e-08
1.01525e-08
1.01511e-08
1.01496e-08
1.01482e-08
1.01466e-08
1.01449e-08
1.01433e-08
1.01419e-08
1.01405e-08
1.0139e-08
1.01372e-08
1.01354e-08
1.01339e-08
1.01325e-08
1.01312e-08
1.01299e-08
1.01287e-08
1.01277e-08
1.01268e-08
1.01258e-08
1.01251e-08
1.01246e-08
1.01243e-08
1.01241e-08
1.01238e-08
1.01237e-08
1.01237e-08
1.01241e-08
1.01246e-08
1.0125e-08
1.01251e-08
1.01251e-08
1.0125e-08
1.0125e-08
1.01251e-08
1.01251e-08
1.0125e-08
1.01247e-08
1.01243e-08
1.0124e-08
1.01238e-08
1.01235e-08
1.01231e-08
1.01226e-08
1.01221e-08
1.01219e-08
1.01217e-08
1.01214e-08
1.0121e-08
1.01206e-08
1.01204e-08
1.01202e-08
1.01199e-08
1.01195e-08
1.01192e-08
1.01188e-08
1.01184e-08
1.01181e-08
1.01178e-08
1.01175e-08
1.01172e-08
1.01169e-08
1.01165e-08
1.01161e-08
1.01156e-08
1.01152e-08
1.01148e-08
1.01144e-08
1.01138e-08
1.01131e-08
1.01124e-08
1.01118e-08
1.01112e-08
1.01105e-08
1.01098e-08
1.01091e-08
1.01084e-08
1.01075e-08
1.01065e-08
1.01055e-08
1.01046e-08
1.01037e-08
1.01028e-08
1.01018e-08
1.01007e-08
1.00996e-08
1.00986e-08
1.00976e-08
1.00965e-08
1.00954e-08
1.00943e-08
1.00932e-08
1.00921e-08
1.00911e-08
1.00901e-08
1.00891e-08
1.00879e-08
1.00867e-08
1.00855e-08
1.00844e-08
1.00833e-08
1.00823e-08
1.0081e-08
1.00798e-08
1.00786e-08
1.00773e-08
1.00762e-08
1.00753e-08
1.00748e-08
1.00741e-08
1.00736e-08
1.00729e-08
1.00723e-08
1.00706e-08
1.00708e-08
1.00713e-08
1.00723e-08
1.00731e-08
1.00718e-08
1.00726e-08
1.00727e-08
1.00714e-08
1.00704e-08
1.00695e-08
1.00694e-08
1.00688e-08
1.00682e-08
1.00673e-08
1.00658e-08
1.00638e-08
1.00623e-08
1.00616e-08
1.00611e-08
1.00613e-08
1.00632e-08
1.0065e-08
1.00647e-08
1.00685e-08
1.00673e-08
1.00635e-08
1.0059e-08
1.00572e-08
1.00571e-08
1.0057e-08
1.00572e-08
1.00569e-08
1.0056e-08
1.00557e-08
1.00552e-08
1.00553e-08
1.00555e-08
1.00555e-08
1.00566e-08
1.00573e-08
1.00606e-08
1.00718e-08
1.00799e-08
1.00918e-08
1.01058e-08
1.01058e-08
1.00997e-08
1.01008e-08
1.01072e-08
1.0102e-08
1.01116e-08
1.01222e-08
1.01225e-08
1.01185e-08
1.01098e-08
1.00984e-08
1.00866e-08
1.00768e-08
1.00699e-08
1.00658e-08
1.00637e-08
1.00626e-08
1.00617e-08
1.00616e-08
1.00617e-08
1.0062e-08
1.00625e-08
1.00626e-08
1.00628e-08
1.00634e-08
1.00643e-08
1.00646e-08
1.00646e-08
1.00652e-08
1.00661e-08
1.00668e-08
1.00671e-08
1.00671e-08
1.00672e-08
1.00673e-08
1.00674e-08
1.00676e-08
1.00679e-08
1.00681e-08
1.00676e-08
1.00668e-08
1.00661e-08
1.00657e-08
1.00655e-08
1.00654e-08
1.00654e-08
1.00653e-08
1.00652e-08
1.0065e-08
1.0065e-08
1.00647e-08
1.00643e-08
1.00644e-08
1.00646e-08
1.00646e-08
1.00645e-08
1.00642e-08
1.00638e-08
1.00634e-08
1.00631e-08
1.00628e-08
1.00626e-08
1.00624e-08
1.00622e-08
1.00619e-08
1.00616e-08
1.00613e-08
1.0061e-08
1.0061e-08
1.0061e-08
1.00609e-08
1.00607e-08
1.00604e-08
1.00603e-08
1.00603e-08
1.00602e-08
1.00599e-08
1.00597e-08
1.00598e-08
1.00597e-08
1.00591e-08
1.00586e-08
1.00592e-08
1.0061e-08
1.00635e-08
1.0068e-08
1.00632e-08
1.0003e-08
1.00152e-08
1.00584e-08
1.01623e-08
1.03371e-08
1.05447e-08
1.07107e-08
1.08157e-08
1.09429e-08
1.1179e-08
1.16114e-08
1.23494e-08
1.35009e-08
1.51314e-08
1.73402e-08
2.04618e-08
2.52377e-08
3.26847e-08
4.38615e-08
5.98568e-08
8.1559e-08
1.09447e-07
1.4196e-07
1.74636e-07
2.00945e-07
2.16159e-07
2.33781e-07
2.57968e-07
2.77845e-07
2.8579e-07
2.70611e-07
2.3713e-07
1.97101e-07
1.5884e-07
1.26987e-07
1.0441e-07
8.80635e-08
7.46688e-08
6.10718e-08
4.84114e-08
3.85398e-08
3.20869e-08
2.86953e-08
2.72736e-08
2.6321e-08
2.51496e-08
2.35699e-08
2.20861e-08
2.12717e-08
2.10542e-08
2.08485e-08
2.03412e-08
1.95292e-08
1.83887e-08
1.71418e-08
1.60309e-08
1.52276e-08
1.4845e-08
1.49029e-08
1.51853e-08
1.54472e-08
1.57004e-08
1.61221e-08
1.68029e-08
1.74829e-08
1.781e-08
1.76274e-08
1.70238e-08
1.61677e-08
1.54687e-08
1.51613e-08
1.53284e-08
1.60142e-08
1.70725e-08
1.83432e-08
1.97834e-08
2.14262e-08
2.33643e-08
2.65131e-08
3.16918e-08
4.08073e-08
5.58173e-08
7.29544e-08
9.48289e-08
1.16446e-07
1.35197e-07
1.52647e-07
1.6174e-07
1.59954e-07
1.47778e-07
1.27555e-07
1.0439e-07
8.13529e-08
6.11379e-08
4.53638e-08
3.42401e-08
2.69876e-08
2.2834e-08
2.09947e-08
2.08048e-08
2.11467e-08
2.162e-08
2.2282e-08
2.22379e-08
2.14507e-08
2.01434e-08
1.85885e-08
1.72615e-08
1.60094e-08
1.50395e-08
1.43872e-08
1.38678e-08
1.33193e-08
1.2744e-08
1.21796e-08
1.17081e-08
1.13396e-08
1.10938e-08
1.09054e-08
1.08776e-08
1.09005e-08
1.08716e-08
1.08373e-08
1.0803e-08
1.07423e-08
1.06567e-08
1.05941e-08
1.05377e-08
1.04815e-08
1.04302e-08
1.03933e-08
1.0364e-08
1.03439e-08
1.03321e-08
1.03277e-08
1.03288e-08
1.03325e-08
1.03383e-08
1.03443e-08
1.03507e-08
1.0358e-08
1.03661e-08
1.03741e-08
1.03812e-08
1.03871e-08
1.03934e-08
1.04018e-08
1.04124e-08
1.04229e-08
1.04315e-08
1.04385e-08
1.04469e-08
1.04584e-08
1.04708e-08
1.04815e-08
1.0491e-08
1.05014e-08
1.05132e-08
1.05244e-08
1.05339e-08
1.05429e-08
1.05522e-08
1.05596e-08
1.05644e-08
1.05702e-08
1.05786e-08
1.05851e-08
1.05851e-08
1.05823e-08
1.05835e-08
1.05862e-08
1.0585e-08
1.05767e-08
1.0564e-08
1.05512e-08
1.05409e-08
1.05328e-08
1.05209e-08
1.05039e-08
1.04839e-08
1.04599e-08
1.0435e-08
1.04126e-08
1.03924e-08
1.03748e-08
1.03571e-08
1.03371e-08
1.03163e-08
1.0296e-08
1.02783e-08
1.02627e-08
1.02484e-08
1.02348e-08
1.02212e-08
1.02078e-08
1.01955e-08
1.01852e-08
1.01764e-08
1.01682e-08
1.01601e-08
1.0152e-08
1.01444e-08
1.01379e-08
1.01321e-08
1.01267e-08
1.01216e-08
1.01168e-08
1.01126e-08
1.01088e-08
1.01052e-08
1.01017e-08
1.00982e-08
1.0095e-08
1.00922e-08
1.00899e-08
1.00878e-08
1.00858e-08
1.00838e-08
1.00818e-08
1.008e-08
1.00784e-08
1.0077e-08
1.00757e-08
1.00746e-08
1.00735e-08
1.00725e-08
1.00715e-08
1.00706e-08
1.00698e-08
1.00691e-08
1.00685e-08
1.00678e-08
1.00672e-08
1.00667e-08
1.00662e-08
1.00658e-08
1.00655e-08
1.00652e-08
1.00649e-08
1.00646e-08
1.00643e-08
1.00641e-08
1.00639e-08
1.00637e-08
1.00635e-08
1.00634e-08
1.00632e-08
1.00631e-08
1.0063e-08
1.00629e-08
1.00628e-08
1.00627e-08
1.00626e-08
1.00625e-08
1.00624e-08
1.00624e-08
1.00623e-08
1.00622e-08
1.00621e-08
1.0062e-08
1.00619e-08
1.00618e-08
1.00618e-08
1.00617e-08
1.00617e-08
1.00616e-08
1.00615e-08
1.00614e-08
1.00613e-08
1.00612e-08
1.00611e-08
1.00611e-08
1.0061e-08
1.0061e-08
1.00609e-08
1.00608e-08
1.00607e-08
1.00607e-08
1.00606e-08
1.00605e-08
1.00605e-08
1.00604e-08
1.00604e-08
1.00603e-08
1.00602e-08
1.00602e-08
1.00601e-08
1.00601e-08
1.006e-08
1.006e-08
1.00599e-08
1.00599e-08
1.00598e-08
1.00597e-08
1.00596e-08
1.00595e-08
1.00594e-08
1.00594e-08
1.00593e-08
1.00591e-08
1.0059e-08
1.00589e-08
1.00587e-08
1.00586e-08
1.00584e-08
1.00583e-08
1.00581e-08
1.00579e-08
1.00577e-08
1.00575e-08
1.00573e-08
1.00571e-08
1.00569e-08
1.00567e-08
1.00564e-08
1.00562e-08
1.00559e-08
1.00557e-08
1.00555e-08
1.00553e-08
1.00551e-08
1.00549e-08
1.00546e-08
1.00544e-08
1.00542e-08
1.0054e-08
1.00538e-08
1.00537e-08
1.00535e-08
1.00533e-08
1.00532e-08
1.0053e-08
1.00529e-08
1.00527e-08
1.00526e-08
1.00525e-08
1.00523e-08
1.00522e-08
1.0052e-08
1.00519e-08
1.00518e-08
1.00516e-08
1.00515e-08
1.00514e-08
1.00513e-08
1.00511e-08
1.0051e-08
1.00509e-08
1.00507e-08
1.00506e-08
1.00505e-08
1.00504e-08
1.00503e-08
1.00501e-08
1.005e-08
1.00499e-08
1.00498e-08
1.00497e-08
1.00496e-08
1.00496e-08
1.00495e-08
1.00494e-08
1.00493e-08
1.00493e-08
1.00492e-08
1.00491e-08
1.0049e-08
1.00489e-08
1.00488e-08
1.00488e-08
1.00487e-08
1.00486e-08
1.00485e-08
1.00484e-08
1.00483e-08
1.00482e-08
1.00481e-08
1.00479e-08
1.00478e-08
1.00477e-08
1.00476e-08
1.00474e-08
1.00473e-08
1.00472e-08
1.00471e-08
1.00469e-08
1.00468e-08
1.00466e-08
1.00465e-08
1.00464e-08
1.00462e-08
1.00461e-08
1.0046e-08
1.00458e-08
1.00457e-08
1.00456e-08
1.00454e-08
1.00453e-08
1.00452e-08
1.0045e-08
1.00448e-08
1.00447e-08
1.00446e-08
1.00444e-08
1.00442e-08
1.0044e-08
1.00438e-08
1.00437e-08
1.00437e-08
1.00437e-08
1.00437e-08
1.00436e-08
1.00436e-08
1.00436e-08
1.00435e-08
1.00438e-08
1.00441e-08
1.00444e-08
1.00447e-08
1.00449e-08
1.00456e-08
1.0046e-08
1.00454e-08
1.00447e-08
1.00441e-08
1.00439e-08
1.00434e-08
1.00432e-08
1.00428e-08
1.00423e-08
1.00423e-08
1.00425e-08
1.00426e-08
1.0043e-08
1.00434e-08
1.00437e-08
1.00439e-08
1.00444e-08
1.00453e-08
1.0046e-08
1.00454e-08
1.00443e-08
1.00432e-08
1.00427e-08
1.00421e-08
1.00417e-08
1.00413e-08
1.00409e-08
1.00409e-08
1.0041e-08
1.00411e-08
1.00411e-08
1.00418e-08
1.00423e-08
1.00427e-08
1.00438e-08
1.00467e-08
1.0052e-08
1.00596e-08
1.00685e-08
1.0074e-08
1.00746e-08
1.00718e-08
1.00674e-08
1.00616e-08
1.00569e-08
1.00535e-08
1.00507e-08
1.00486e-08
1.00473e-08
1.00465e-08
1.00458e-08
1.00451e-08
1.00441e-08
1.00432e-08
1.00422e-08
1.00414e-08
1.00406e-08
1.004e-08
1.00394e-08
1.00389e-08
1.00385e-08
1.00381e-08
1.00378e-08
1.00375e-08
1.00373e-08
1.00372e-08
1.00371e-08
1.00371e-08
1.0037e-08
1.0037e-08
1.0037e-08
1.0037e-08
1.00371e-08
1.00371e-08
1.00372e-08
1.00373e-08
1.00374e-08
1.00375e-08
1.00375e-08
1.00376e-08
1.00376e-08
1.00375e-08
1.00375e-08
1.00374e-08
1.00374e-08
1.00374e-08
1.00374e-08
1.00375e-08
1.00375e-08
1.00376e-08
1.00376e-08
1.00376e-08
1.00376e-08
1.00376e-08
1.00376e-08
1.00376e-08
1.00376e-08
1.00375e-08
1.00374e-08
1.00373e-08
1.00373e-08
1.00373e-08
1.00373e-08
1.00372e-08
1.00372e-08
1.0037e-08
1.00369e-08
1.00367e-08
1.00366e-08
1.00366e-08
1.00366e-08
1.00366e-08
1.00365e-08
1.00365e-08
1.00364e-08
1.00364e-08
1.00364e-08
1.00364e-08
1.00363e-08
1.00361e-08
1.00361e-08
1.00361e-08
1.0036e-08
1.0036e-08
1.00364e-08
1.0037e-08
1.00382e-08
1.004e-08
1.00376e-08
1.00027e-08
1.00125e-08
1.00444e-08
1.0117e-08
1.02344e-08
1.03725e-08
1.04907e-08
1.05881e-08
1.07207e-08
1.09546e-08
1.13772e-08
1.21635e-08
1.35182e-08
1.56152e-08
1.85233e-08
2.23188e-08
2.72247e-08
3.36974e-08
4.21947e-08
5.2852e-08
6.60789e-08
8.14555e-08
9.66078e-08
1.07769e-07
1.16605e-07
1.27772e-07
1.44245e-07
1.61164e-07
1.69482e-07
1.6387e-07
1.44715e-07
1.19404e-07
9.51819e-08
7.57959e-08
6.17297e-08
5.17606e-08
4.40699e-08
3.73149e-08
3.10481e-08
2.57562e-08
2.18281e-08
1.91217e-08
1.75254e-08
1.67396e-08
1.62267e-08
1.57293e-08
1.52433e-08
1.47836e-08
1.44898e-08
1.44015e-08
1.43131e-08
1.40888e-08
1.37791e-08
1.33961e-08
1.29687e-08
1.25712e-08
1.22482e-08
1.20137e-08
1.19297e-08
1.19079e-08
1.19184e-08
1.19804e-08
1.21269e-08
1.23946e-08
1.27279e-08
1.2955e-08
1.29836e-08
1.28757e-08
1.26777e-08
1.24762e-08
1.23661e-08
1.23942e-08
1.26048e-08
1.30042e-08
1.35659e-08
1.4268e-08
1.50712e-08
1.59586e-08
1.71807e-08
1.90437e-08
2.17538e-08
2.63477e-08
3.28399e-08
4.29329e-08
5.61433e-08
6.90665e-08
8.21881e-08
9.38105e-08
9.90436e-08
9.71364e-08
9.02858e-08
7.8929e-08
6.61501e-08
5.38673e-08
4.3195e-08
3.4672e-08
2.80661e-08
2.32174e-08
1.98755e-08
1.76658e-08
1.62745e-08
1.54542e-08
1.50411e-08
1.46967e-08
1.43988e-08
1.41306e-08
1.38128e-08
1.34992e-08
1.31918e-08
1.29423e-08
1.27589e-08
1.2593e-08
1.24555e-08
1.23579e-08
1.22269e-08
1.20138e-08
1.17347e-08
1.14245e-08
1.11372e-08
1.08727e-08
1.0657e-08
1.04881e-08
1.03864e-08
1.03309e-08
1.02965e-08
1.02774e-08
1.02673e-08
1.02587e-08
1.02526e-08
1.02498e-08
1.02394e-08
1.02204e-08
1.0199e-08
1.01796e-08
1.01638e-08
1.01527e-08
1.01449e-08
1.0139e-08
1.01348e-08
1.01318e-08
1.01301e-08
1.01295e-08
1.01295e-08
1.01299e-08
1.01306e-08
1.01315e-08
1.0133e-08
1.01347e-08
1.01363e-08
1.01378e-08
1.01393e-08
1.01412e-08
1.01435e-08
1.01459e-08
1.01479e-08
1.01499e-08
1.0152e-08
1.01544e-08
1.01568e-08
1.01589e-08
1.01607e-08
1.01624e-08
1.01637e-08
1.01647e-08
1.01659e-08
1.01673e-08
1.01683e-08
1.01682e-08
1.01675e-08
1.01672e-08
1.01672e-08
1.01665e-08
1.01647e-08
1.01619e-08
1.01589e-08
1.01563e-08
1.01539e-08
1.01511e-08
1.01474e-08
1.01431e-08
1.01384e-08
1.01335e-08
1.0129e-08
1.01248e-08
1.01211e-08
1.01175e-08
1.01138e-08
1.01101e-08
1.01064e-08
1.0103e-08
1.01001e-08
1.00974e-08
1.0095e-08
1.00927e-08
1.00904e-08
1.00884e-08
1.00865e-08
1.00849e-08
1.00835e-08
1.00821e-08
1.00808e-08
1.00795e-08
1.00783e-08
1.00773e-08
1.00763e-08
1.00754e-08
1.00745e-08
1.00737e-08
1.00729e-08
1.00721e-08
1.00714e-08
1.00708e-08
1.00701e-08
1.00694e-08
1.00688e-08
1.00683e-08
1.00677e-08
1.00672e-08
1.00667e-08
1.00662e-08
1.00657e-08
1.00652e-08
1.00648e-08
1.00643e-08
1.0064e-08
1.00636e-08
1.00632e-08
1.00628e-08
1.00625e-08
1.00621e-08
1.00618e-08
1.00615e-08
1.00612e-08
1.00609e-08
1.00606e-08
1.00604e-08
1.00601e-08
1.00599e-08
1.00597e-08
1.00595e-08
1.00593e-08
1.00591e-08
1.00589e-08
1.00587e-08
1.00585e-08
1.00583e-08
1.00582e-08
1.00581e-08
1.00579e-08