/*--------------------------------*- C++ -*----------------------------------*\
| =========                 |                                                 |
| \\      /  F ield         | OpenFOAM: The Open Source CFD Toolbox           |
|  \\    /   O peration     | Version:  v2006                                 |
|   \\  /    A nd           | Website:  www.openfoam.com                      |
|    \\/     M anipulation  |                                                 |
\*---------------------------------------------------------------------------*/
FoamFile
{
    version     2.0;
    format      ascii;
    class       volScalarField;
    location    "7.4";
    object      p;
}
// * * * * * * * * * * * * * * * * * * * * * * * * * * * * * * * * * * * * * //

dimensions      [1 -1 -2 0 0 0 0];


internalField   nonuniform List<scalar> 
33000
(
8209.46
8213.07
8213.87
8214.69
8215.66
8216.68
8217.76
8218.91
8220.19
8221.42
8222.33
8222.64
8221.77
8220.1
8218.5
8217.29
8216.67
8216.5
8216.31
8216.22
8216.06
8215.71
8215.28
8214.65
8213.85
8213.07
8212.45
8212.01
8211.4
8211.19
8211.47
8211.49
8210.97
8210.32
8209.59
8208.8
8207.96
8207.09
8206.19
8205.26
8204.32
8203.34
8202.34
8201.33
8200.26
8199.2
8198.1
8197.03
8195.93
8194.84
8193.67
8192.52
8191.4
8190.28
8189.15
8188
8186.85
8185.7
8184.55
8183.39
8182.27
8181.18
8180.09
8179.03
8178.02
8177.06
8176.11
8175.2
8174.38
8173.61
8172.91
8172.35
8171.91
8171.64
8171.66
8171.93
8172.47
8172.84
8167.97
8156.38
8163.67
8160.56
8159.5
8159.17
8157.03
8155.31
8155.15
8153.85
8153.41
8152.21
8151.71
8150.86
8150.41
8150.09
8150.12
8150.11
8150.99
8151.1
8153.84
8152.78
8147.77
8147.11
8145.61
8144.45
8143.89
8142.62
8141.19
8139.83
8138.87
8138.24
8137.32
8136.65
8135.86
8134.96
8134.26
8133.31
8133.46
8132.16
8129.1
8127.84
8125.77
8123.64
8121.63
8119.18
8116.27
8113.41
8110.28
8106.98
8103.57
8099.91
8095.94
8091.82
8087.39
8082.79
8077.93
8072.86
8067.51
8061.86
8055.94
8049.72
8043.22
8036.43
8029.36
8022
8014.4
8006.54
7998.45
7990.12
7981.56
7972.79
7963.84
7954.72
7945.45
7936.01
7926.45
7916.77
7907
7897.16
7887.27
7877.33
7867.38
7857.42
7847.47
7837.56
7827.71
7817.93
7808.24
7798.66
7789.23
7779.93
7770.79
7761.84
7753.09
7744.56
7736.25
7728.16
7720.31
7712.73
7705.41
7698.36
7691.58
7685.06
7678.79
7672.77
7667
7661.46
7656.16
7651.06
7646.16
7641.43
7636.88
7632.47
7628.2
7624.05
7620
7616.04
7612.17
7608.39
7604.74
7601.23
7597.88
7594.69
7591.67
7588.85
7586.22
7583.81
7581.6
7579.61
7577.83
7576.28
7574.95
7573.85
7572.96
7572.29
7571.83
7571.6
7571.58
7571.78
7572.17
7572.76
7573.53
7574.48
7575.61
7576.91
7578.37
7579.99
7581.74
7583.63
7585.63
7587.76
7590
7592.35
7594.79
7597.32
7599.92
7602.58
7605.3
7608.08
7610.9
7613.76
7616.65
7619.56
7622.5
7625.44
7628.39
7631.34
7634.29
7637.24
7640.17
7643.08
7645.98
7648.84
7651.68
7654.49
7657.27
7660.02
7662.73
7665.39
7668.02
7670.61
7673.15
7675.65
7678.11
7680.51
7682.86
7685.17
7687.44
7689.66
7691.82
7693.94
7696.01
7698.03
7700
7701.93
7703.81
7705.64
7707.43
7709.17
7710.86
7712.5
7714.1
7715.66
7717.17
7718.64
7720.07
7721.46
7722.81
7724.12
7725.39
7726.62
7727.82
7728.98
7730.11
7731.21
7732.28
7733.33
7734.34
7735.33
7736.29
7737.23
7738.15
7739.05
7739.93
7740.79
7741.63
7742.46
7743.27
7744.08
7744.87
7745.65
7746.42
7747.19
7747.94
7748.7
7749.45
7750.19
7750.94
7751.69
7752.43
7753.18
7753.94
7754.7
7755.47
7756.25
7757.03
7757.83
7758.65
7759.47
7760.31
7761.17
7762.04
7762.93
7763.84
7764.77
7765.72
7766.69
7767.69
7768.71
7769.75
7770.82
7771.91
7773.03
7774.17
7775.33
7776.52
7777.74
7778.98
7780.25
7781.54
7782.86
7784.21
7785.58
7786.97
7788.39
7789.84
7791.31
7792.8
7794.31
7795.85
7797.41
7799
7800.6
7802.23
7803.87
7805.54
7807.22
7808.92
7810.64
7812.37
7814.12
7815.89
7817.66
7819.45
7821.25
7823.06
7824.87
7826.7
7828.53
7830.37
7832.21
7834.05
7835.9
7837.74
7839.59
7841.44
7843.28
7845.12
7846.95
7848.77
7850.58
7852.37
7854.15
7855.9
7857.64
7859.35
7861.03
7862.69
7864.31
7865.91
7867.47
7868.99
7870.47
7871.92
7873.32
7874.68
7875.99
7877.26
7878.48
7879.65
7880.77
7881.84
7882.86
7883.82
7884.73
7885.59
7886.4
7887.15
7887.85
7888.5
7889.1
7889.65
7890.14
7890.59
7890.97
7891.32
7891.66
7891.92
7892.14
7892.38
7892.34
7892.52
7892.83
7892.9
7893.01
7892.98
7892.96
7892.86
7892.72
7892.55
7892.3
7892.06
7891.72
7891.4
7891.07
7890.69
7890.26
7889.89
7889.2
7888.81
7888.62
7888.13
7887.73
7887.15
7886.61
7885.95
7885.31
7884.56
7883.85
7883.05
7882.26
7881.42
7880.55
7879.63
7878.81
7877.91
7877
7876.14
7875.12
7873.79
7873.32
7872.69
7871.89
7871.03
7870.12
7869.18
7868.2
7867.19
7866.16
7865.11
7864.03
7862.93
7861.81
7860.68
7859.52
7858.35
7857.16
7855.96
7854.74
7853.51
7852.27
7851.02
7849.76
7848.5
7847.22
7845.94
7844.64
7843.35
7842.04
7840.74
7839.43
7838.11
7836.79
7835.47
7834.16
7832.84
7831.52
7830.21
7828.89
7827.58
7826.28
7824.98
7823.68
7822.39
7821.11
7819.83
7818.56
7817.3
7816.05
7814.8
7813.57
7812.35
7811.14
7809.94
7808.75
7807.57
7806.41
7805.26
7804.13
7803.01
7801.9
7800.81
7799.73
7798.67
7797.62
7796.59
7795.58
7794.58
7793.6
7792.64
7791.69
7790.76
7789.85
7788.94
7788.09
7787.19
7786.41
7785.5
7784.78
7783.98
7782.72
8013.23
8016.84
8017.64
8018.43
8019.36
8020.34
8021.36
8022.41
8023.44
8024.16
8024.57
8024.34
8023.26
8021.73
8020.39
8019.9
8019.84
8019.97
8020.07
8020.04
8019.9
8019.59
8019
8018.12
8017.09
8016.14
8015.28
8014.7
8014.57
8014.69
8015.02
8015.2
8014.85
8014.27
8013.54
8012.72
8011.88
8011.05
8010.13
8009.19
8008.23
8007.24
8006.25
8005.23
8004.16
8003.07
8001.96
8000.89
7999.8
7998.71
7997.54
7996.39
7995.24
7994.09
7992.96
7991.8
7990.62
7989.48
7988.36
7987.2
7986.07
7985
7983.92
7982.82
7981.77
7980.78
7979.82
7978.86
7977.99
7977.19
7976.42
7975.76
7975.19
7974.65
7974.18
7973.72
7973.23
7972.7
7971.96
7972.67
7973.59
7967.28
7953.79
7962.63
7961.12
7959.68
7959.92
7957.94
7957
7954.59
7954.83
7953.96
7953.67
7953.25
7953.09
7952.64
7952.98
7952.72
7953.22
7952.46
7951.76
7954.35
7952.63
7946.53
7946
7944.52
7944.54
7943.58
7943.79
7943
7941.37
7940.42
7939.34
7938.42
7937.68
7936.81
7935.84
7934.76
7933.18
7933.05
7931.16
7927.18
7925.21
7922.55
7920.06
7917.57
7914.63
7911.11
7907.63
7903.85
7899.92
7895.87
7891.53
7886.92
7882.08
7876.97
7871.62
7865.97
7860.07
7853.87
7847.39
7840.61
7833.55
7826.2
7818.6
7810.74
7802.64
7794.29
7785.72
7776.95
7767.99
7758.86
7749.56
7740.1
7730.52
7720.83
7711.05
7701.19
7691.27
7681.31
7671.34
7661.36
7651.4
7641.48
7631.61
7621.81
7612.1
7602.52
7593.06
7583.75
7574.61
7565.65
7556.88
7548.34
7540.01
7531.92
7524.07
7516.48
7509.14
7502.07
7495.28
7488.75
7482.47
7476.45
7470.67
7465.12
7459.8
7454.69
7449.78
7445.05
7440.48
7436.06
7431.77
7427.61
7423.55
7419.58
7415.7
7411.92
7408.26
7404.74
7401.37
7398.17
7395.14
7392.31
7389.69
7387.26
7385.05
7383.05
7381.28
7379.73
7378.4
7377.3
7376.41
7375.75
7375.31
7375.08
7375.07
7375.27
7375.67
7376.27
7377.06
7378.02
7379.16
7380.47
7381.94
7383.56
7385.33
7387.22
7389.25
7391.39
7393.65
7396.01
7398.46
7400.99
7403.6
7406.27
7409.01
7411.79
7414.62
7417.49
7420.4
7423.32
7426.26
7429.21
7432.17
7435.13
7438.09
7441.04
7443.98
7446.89
7449.79
7452.66
7455.51
7458.32
7461.1
7463.85
7466.56
7469.23
7471.86
7474.45
7477
7479.5
7481.95
7484.35
7486.71
7489.02
7491.28
7493.5
7495.67
7497.78
7499.85
7501.87
7503.85
7505.77
7507.65
7509.48
7511.27
7513
7514.69
7516.34
7517.94
7519.49
7521
7522.47
7523.9
7525.28
7526.63
7527.93
7529.2
7530.43
7531.63
7532.79
7533.92
7535.02
7536.09
7537.12
7538.14
7539.12
7540.08
7541.02
7541.93
7542.83
7543.71
7544.56
7545.4
7546.23
7547.04
7547.84
7548.63
7549.41
7550.18
7550.94
7551.7
7552.45
7553.2
7553.94
7554.69
7555.43
7556.18
7556.93
7557.68
7558.45
7559.21
7559.99
7560.78
7561.58
7562.39
7563.22
7564.06
7564.91
7565.78
7566.67
7567.58
7568.51
7569.46
7570.43
7571.43
7572.45
7573.49
7574.55
7575.65
7576.76
7577.9
7579.07
7580.26
7581.47
7582.71
7583.98
7585.28
7586.6
7587.94
7589.31
7590.71
7592.13
7593.57
7595.04
7596.54
7598.05
7599.59
7601.15
7602.74
7604.34
7605.97
7607.62
7609.28
7610.97
7612.67
7614.39
7616.13
7617.88
7619.65
7621.43
7623.22
7625.02
7626.83
7628.65
7630.48
7632.31
7634.15
7636
7637.84
7639.69
7641.55
7643.4
7645.25
7647.1
7648.94
7650.77
7652.6
7654.41
7656.21
7657.99
7659.75
7661.49
7663.2
7664.89
7666.55
7668.18
7669.78
7671.34
7672.87
7674.35
7675.8
7677.2
7678.57
7679.88
7681.15
7682.38
7683.55
7684.67
7685.74
7686.77
7687.73
7688.64
7689.5
7690.31
7691.06
7691.76
7692.41
7693
7693.53
7694.03
7694.5
7694.91
7695.25
7695.57
7695.64
7695.87
7696.31
7696.44
7696.66
7696.8
7696.87
7696.95
7696.91
7696.89
7696.76
7696.62
7696.39
7696.17
7695.94
7695.65
7695.3
7694.96
7694.28
7693.9
7693.79
7693.36
7693.03
7692.61
7692.14
7691.64
7691.07
7690.5
7689.86
7689.2
7688.47
7687.73
7686.92
7686.05
7685.31
7684.45
7683.63
7682.74
7681.61
7680.22
7679.75
7679.15
7678.34
7677.52
7676.7
7675.84
7674.95
7674.02
7673.06
7672.07
7671.06
7670.02
7668.96
7667.88
7666.78
7665.66
7664.52
7663.36
7662.19
7661
7659.79
7658.57
7657.34
7656.1
7654.85
7653.59
7652.32
7651.04
7649.75
7648.46
7647.16
7645.85
7644.54
7643.23
7641.91
7640.59
7639.27
7637.95
7636.63
7635.31
7634
7632.68
7631.37
7630.07
7628.76
7627.47
7626.17
7624.89
7623.61
7622.34
7621.08
7619.82
7618.58
7617.34
7616.12
7614.91
7613.71
7612.52
7611.34
7610.18
7609.03
7607.89
7606.77
7605.66
7604.57
7603.49
7602.43
7601.38
7600.35
7599.34
7598.34
7597.36
7596.4
7595.45
7594.52
7593.61
7592.7
7591.85
7590.95
7590.17
7589.27
7588.54
7587.76
7586.44
7817
7820.6
7821.39
7822.14
7823.02
7823.99
7824.98
7825.84
7826.56
7826.74
7826.24
7825.06
7823.27
7821.41
7820.47
7820.82
7822.03
7823.06
7823.68
7824.07
7824.14
7823.74
7823.08
7822.19
7821.16
7820.15
7819.27
7818.57
7818.3
7818.35
7818.63
7818.73
7818.39
7817.85
7817.24
7816.49
7815.72
7814.93
7814.02
7813.12
7812.16
7811.18
7810.19
7809.13
7808.08
7807.03
7805.93
7804.8
7803.7
7802.58
7801.42
7800.26
7799.11
7797.93
7796.78
7795.61
7794.44
7793.28
7792.13
7790.98
7789.89
7788.78
7787.66
7786.59
7785.5
7784.45
7783.42
7782.42
7781.5
7780.66
7779.82
7779.04
7778.36
7777.67
7776.97
7776.28
7775.54
7774.7
7773.45
7771.88
7771.03
7770.74
7771.74
7772.95
7766.38
7751.72
7761.02
7762.11
7762.13
7759.77
7759.18
7758.32
7755.94
7756.35
7756.02
7755.72
7755.73
7755.35
7755.12
7754.82
7753.57
7753.3
7752.45
7751.93
7755.66
7753.28
7746.76
7745.44
7744.15
7744.52
7743.86
7744.61
7743.73
7742.39
7741.19
7740.04
7739.06
7737.96
7736.53
7734.89
7733.35
7731.41
7731.08
7728.72
7723.86
7721.34
7718.02
7714.99
7712.01
7708.52
7704.34
7700.27
7695.76
7691.29
7686.5
7681.57
7676.3
7670.65
7664.74
7658.5
7651.99
7645.22
7638.16
7630.82
7623.21
7615.33
7607.2
7598.83
7590.24
7581.45
7572.47
7563.3
7553.96
7544.46
7534.85
7525.13
7515.32
7505.43
7495.46
7485.46
7475.45
7465.44
7455.45
7445.5
7435.6
7425.77
7416.03
7406.41
7396.93
7387.59
7378.41
7369.42
7360.62
7352.04
7343.69
7335.58
7327.71
7320.1
7312.74
7305.66
7298.84
7292.29
7285.99
7279.95
7274.14
7268.57
7263.22
7258.08
7253.15
7248.39
7243.8
7239.35
7235.04
7230.84
7226.76
7222.77
7218.88
7215.1
7211.43
7207.89
7204.51
7201.29
7198.26
7195.42
7192.78
7190.35
7188.13
7186.12
7184.35
7182.81
7181.49
7180.39
7179.51
7178.86
7178.44
7178.23
7178.24
7178.45
7178.87
7179.48
7180.29
7181.28
7182.44
7183.77
7185.26
7186.9
7188.69
7190.62
7192.67
7194.84
7197.12
7199.5
7201.97
7204.53
7207.16
7209.85
7212.61
7215.42
7218.27
7221.16
7224.08
7227.02
7229.98
7232.94
7235.92
7238.9
7241.87
7244.83
7247.78
7250.7
7253.61
7256.49
7259.35
7262.17
7264.96
7267.71
7270.43
7273.1
7275.74
7278.33
7280.88
7283.38
7285.83
7288.24
7290.6
7292.91
7295.17
7297.39
7299.55
7301.67
7303.74
7305.76
7307.73
7309.66
7311.53
7313.36
7315.14
7316.87
7318.56
7320.21
7321.8
7323.36
7324.86
7326.33
7327.75
7329.13
7330.47
7331.77
7333.04
7334.26
7335.45
7336.61
7337.73
7338.82
7339.89
7340.92
7341.93
7342.9
7343.86
7344.79
7345.7
7346.59
7347.46
7348.31
7349.15
7349.97
7350.78
7351.58
7352.36
7353.13
7353.9
7354.66
7355.41
7356.15
7356.9
7357.64
7358.38
7359.13
7359.87
7360.62
7361.38
7362.14
7362.9
7363.68
7364.47
7365.27
7366.08
7366.9
7367.74
7368.59
7369.46
7370.35
7371.26
7372.19
7373.14
7374.11
7375.1
7376.12
7377.16
7378.22
7379.31
7380.43
7381.57
7382.73
7383.92
7385.14
7386.38
7387.65
7388.94
7390.26
7391.61
7392.98
7394.37
7395.8
7397.24
7398.72
7400.21
7401.73
7403.27
7404.84
7406.42
7408.03
7409.66
7411.31
7412.98
7414.67
7416.38
7418.1
7419.85
7421.6
7423.37
7425.16
7426.95
7428.76
7430.58
7432.4
7434.24
7436.08
7437.92
7439.78
7441.63
7443.49
7445.35
7447.21
7449.07
7450.92
7452.77
7454.62
7456.45
7458.27
7460.07
7461.86
7463.63
7465.38
7467.11
7468.8
7470.47
7472.11
7473.72
7475.29
7476.82
7478.32
7479.77
7481.19
7482.56
7483.88
7485.16
7486.38
7487.56
7488.68
7489.76
7490.77
7491.74
7492.66
7493.52
7494.32
7495.07
7495.75
7496.4
7497.02
7497.58
7498.06
7498.51
7498.72
7499.08
7499.61
7499.89
7500.19
7500.39
7500.55
7500.69
7500.83
7500.88
7500.93
7500.87
7500.82
7500.77
7500.62
7500.49
7500.19
7499.97
7499.33
7499.05
7499
7498.67
7498.4
7498.01
7497.58
7497.15
7496.71
7496.22
7495.72
7495.14
7494.57
7493.85
7493.16
7492.34
7491.71
7490.9
7490.16
7489.34
7488.19
7486.84
7486.44
7485.85
7485.04
7484.18
7483.33
7482.45
7481.58
7480.72
7479.84
7478.92
7477.98
7477.01
7476.01
7474.98
7473.94
7472.87
7471.78
7470.67
7469.54
7468.4
7467.24
7466.06
7464.86
7463.66
7462.44
7461.2
7459.95
7458.7
7457.43
7456.15
7454.87
7453.58
7452.28
7450.98
7449.67
7448.35
7447.04
7445.72
7444.39
7443.07
7441.75
7440.42
7439.1
7437.78
7436.46
7435.15
7433.84
7432.53
7431.23
7429.94
7428.65
7427.37
7426.09
7424.83
7423.57
7422.32
7421.09
7419.86
7418.65
7417.44
7416.25
7415.07
7413.91
7412.76
7411.62
7410.49
7409.38
7408.29
7407.21
7406.15
7405.1
7404.07
7403.05
7402.05
7401.07
7400.11
7399.16
7398.23
7397.32
7396.41
7395.56
7394.65
7393.88
7392.98
7392.25
7391.46
7390.14
7620.77
7624.37
7625.15
7625.86
7626.67
7627.54
7628.31
7629.09
7629.44
7629.43
7628.94
7628.01
7626.54
7625.01
7624.27
7624.63
7625.55
7626.68
7627.59
7628.17
7628.14
7627.77
7627.17
7626.45
7625.64
7624.78
7624.14
7623.74
7623.49
7623.35
7623.25
7623.02
7622.62
7622.01
7621.31
7620.54
7619.78
7618.98
7618.12
7617.18
7616.2
7615.21
7614.21
7613.16
7612.08
7611.01
7609.92
7608.76
7607.63
7606.48
7605.33
7604.16
7602.99
7601.82
7600.62
7599.44
7598.26
7597.07
7595.9
7594.78
7593.63
7592.48
7591.37
7590.28
7589.14
7588.05
7586.97
7585.93
7584.93
7584.03
7583.11
7582.21
7581.38
7580.56
7579.71
7578.84
7577.95
7577
7575.99
7575
7574.04
7572.55
7570.64
7569.27
7568.26
7568.82
7571.29
7572.14
7565.18
7549.87
7561.66
7561.14
7559.69
7559.62
7558.76
7556.69
7557.43
7556.94
7556.58
7556.14
7555.36
7554.9
7554.32
7552.55
7552.09
7550.42
7551.22
7551.33
7555.1
7554.07
7546.87
7546.45
7545.19
7544.9
7545.23
7544.29
7542.54
7541.09
7539.46
7538.21
7536.61
7534.83
7532.59
7530.7
7528.27
7527.75
7524.86
7519.16
7516.1
7512.11
7508.46
7504.95
7500.8
7496.05
7491.24
7486.11
7480.87
7475.26
7469.54
7463.41
7456.94
7450.17
7443.1
7435.76
7428.15
7420.27
7412.13
7403.72
7395.1
7386.28
7377.26
7368.05
7358.66
7349.12
7339.46
7329.69
7319.83
7309.88
7299.87
7289.82
7279.76
7269.69
7259.66
7249.65
7239.69
7229.81
7220.03
7210.35
7200.81
7191.43
7182.21
7173.17
7164.33
7155.71
7147.32
7139.16
7131.26
7123.61
7116.23
7109.1
7102.25
7095.65
7089.31
7083.23
7077.38
7071.77
7066.38
7061.19
7056.21
7051.4
7046.77
7042.28
7037.92
7033.69
7029.57
7025.56
7021.65
7017.85
7014.17
7010.63
7007.24
7004.01
7000.97
6998.12
6995.47
6993.03
6990.8
6988.81
6987.04
6985.5
6984.19
6983.1
6982.25
6981.61
6981.21
6981.03
6981.06
6981.3
6981.74
6982.38
6983.22
6984.25
6985.45
6986.82
6988.34
6990.02
6991.84
6993.8
6995.89
6998.1
7000.42
7002.84
7005.34
7007.93
7010.59
7013.32
7016.11
7018.96
7021.84
7024.76
7027.71
7030.67
7033.65
7036.65
7039.65
7042.65
7045.64
7048.62
7051.58
7054.52
7057.44
7060.34
7063.21
7066.05
7068.85
7071.61
7074.33
7077.01
7079.65
7082.25
7084.8
7087.3
7089.76
7092.17
7094.53
7096.84
7099.11
7101.32
7103.49
7105.6
7107.67
7109.69
7111.66
7113.58
7115.46
7117.28
7119.06
7120.79
7122.47
7124.11
7125.7
7127.25
7128.75
7130.21
7131.62
7133
7134.33
7135.63
7136.88
7138.1
7139.28
7140.43
7141.55
7142.63
7143.69
7144.71
7145.71
7146.68
7147.63
7148.55
7149.45
7150.33
7151.19
7152.04
7152.87
7153.68
7154.48
7155.27
7156.05
7156.82
7157.57
7158.33
7159.07
7159.82
7160.55
7161.29
7162.03
7162.77
7163.51
7164.26
7165.01
7165.77
7166.54
7167.31
7168.1
7168.89
7169.7
7170.52
7171.36
7172.21
7173.08
7173.97
7174.88
7175.8
7176.75
7177.72
7178.71
7179.72
7180.76
7181.82
7182.91
7184.02
7185.16
7186.33
7187.52
7188.73
7189.97
7191.24
7192.54
7193.86
7195.21
7196.58
7197.98
7199.4
7200.85
7202.32
7203.82
7205.34
7206.89
7208.46
7210.05
7211.67
7213.3
7214.95
7216.63
7218.33
7220.04
7221.77
7223.52
7225.28
7227.06
7228.85
7230.65
7232.47
7234.3
7236.13
7237.98
7239.83
7241.69
7243.55
7245.42
7247.29
7249.16
7251.03
7252.9
7254.77
7256.63
7258.48
7260.33
7262.16
7263.98
7265.78
7267.56
7269.32
7271.06
7272.77
7274.45
7276.1
7277.72
7279.31
7280.85
7282.36
7283.83
7285.25
7286.63
7287.96
7289.24
7290.47
7291.65
7292.8
7293.87
7294.91
7295.87
7296.8
7297.63
7298.44
7299.22
7299.93
7300.57
7301.17
7301.53
7302.02
7302.69
7303.09
7303.52
7303.82
7304.1
7304.34
7304.59
7304.76
7304.91
7304.99
7305.03
7305.14
7305.08
7305.12
7304.9
7304.76
7304.23
7304.02
7304.08
7303.81
7303.63
7303.3
7302.92
7302.56
7302.18
7301.78
7301.35
7300.87
7300.37
7299.77
7299.14
7298.59
7297.97
7297.31
7296.61
7295.91
7294.73
7293.46
7293.13
7292.56
7291.76
7290.9
7290.06
7289.18
7288.32
7287.47
7286.61
7285.73
7284.83
7283.91
7282.97
7282.01
7281.02
7280.01
7278.97
7277.91
7276.83
7275.73
7274.61
7273.48
7272.32
7271.16
7269.97
7268.77
7267.56
7266.33
7265.09
7263.83
7262.57
7261.29
7260.01
7258.72
7257.42
7256.12
7254.81
7253.49
7252.17
7250.85
7249.52
7248.2
7246.87
7245.54
7244.21
7242.88
7241.55
7240.23
7238.91
7237.6
7236.29
7234.98
7233.68
7232.39
7231.1
7229.83
7228.56
7227.3
7226.05
7224.81
7223.58
7222.36
7221.15
7219.96
7218.77
7217.61
7216.45
7215.31
7214.18
7213.07
7211.97
7210.89
7209.83
7208.78
7207.75
7206.73
7205.73
7204.74
7203.78
7202.83
7201.9
7200.99
7200.08
7199.22
7198.32
7197.54
7196.64
7195.91
7195.12
7193.8
7424.58
7428.19
7428.95
7429.62
7430.38
7431.16
7431.84
7432.47
7432.71
7432.67
7432.47
7432.15
7431.61
7431.21
7431.07
7431.24
7431.67
7431.97
7432.21
7432.34
7432.23
7431.9
7431.39
7430.84
7430.25
7429.64
7429.1
7428.64
7428.29
7427.99
7427.65
7427.24
7426.71
7426.09
7425.39
7424.65
7423.89
7423.09
7422.23
7421.24
7420.26
7419.26
7418.23
7417.17
7416.09
7414.99
7413.89
7412.73
7411.57
7410.39
7409.24
7408.06
7406.85
7405.65
7404.44
7403.25
7402.05
7400.85
7399.66
7398.5
7397.32
7396.12
7394.98
7393.8
7392.68
7391.55
7390.44
7389.36
7388.32
7387.28
7386.3
7385.31
7384.33
7383.41
7382.48
7381.48
7380.48
7379.47
7378.42
7377.33
7376.2
7375.06
7373.93
7372.92
7371.77
7370.45
7369.3
7368.5
7367.94
7369.83
7372.77
7365.87
7348.19
7361.87
7361.95
7360.31
7360.51
7359.11
7357.31
7357.92
7357.13
7356.7
7356.14
7355.34
7355.06
7354.36
7353.09
7352.8
7351.81
7352.41
7352.16
7357.46
7355.42
7347.28
7346.65
7345.4
7344.92
7345.11
7343.78
7341.57
7339.62
7337.61
7335.94
7333.95
7331.71
7328.95
7326.65
7323.7
7322.94
7319.57
7312.96
7309.57
7304.7
7300.76
7296.23
7291.91
7286.89
7281
7275.13
7268.78
7262.29
7255.6
7248.57
7241.21
7233.56
7225.61
7217.41
7208.99
7200.34
7191.47
7182.39
7173.12
7163.66
7154.07
7144.35
7134.51
7124.57
7114.55
7104.48
7094.37
7084.23
7074.09
7063.98
7053.89
7043.86
7033.9
7024.04
7014.29
7004.68
6995.22
6985.93
6976.83
6967.93
6959.25
6950.81
6942.6
6934.65
6926.95
6919.52
6912.34
6905.43
6898.77
6892.37
6886.22
6880.31
6874.63
6869.17
6863.91
6858.85
6853.98
6849.28
6844.73
6840.33
6836.05
6831.89
6827.85
6823.92
6820.11
6816.43
6812.89
6809.49
6806.27
6803.22
6800.37
6797.71
6795.27
6793.06
6791.07
6789.32
6787.79
6786.49
6785.43
6784.59
6783.99
6783.62
6783.47
6783.53
6783.81
6784.29
6784.97
6785.85
6786.92
6788.17
6789.59
6791.17
6792.9
6794.77
6796.78
6798.92
6801.18
6803.55
6806.01
6808.56
6811.2
6813.91
6816.69
6819.52
6822.4
6825.33
6828.29
6831.27
6834.27
6837.29
6840.32
6843.35
6846.38
6849.4
6852.4
6855.39
6858.35
6861.3
6864.21
6867.1
6869.95
6872.76
6875.53
6878.27
6880.96
6883.6
6886.2
6888.76
6891.27
6893.73
6896.14
6898.51
6900.82
6903.09
6905.3
6907.46
6909.58
6911.64
6913.66
6915.63
6917.55
6919.42
6921.24
6923.01
6924.74
6926.41
6928.05
6929.63
6931.17
6932.67
6934.12
6935.52
6936.89
6938.21
6939.5
6940.75
6941.95
6943.13
6944.26
6945.37
6946.44
6947.49
6948.5
6949.49
6950.45
6951.38
6952.3
6953.19
6954.05
6954.91
6955.74
6956.56
6957.36
6958.15
6958.93
6959.7
6960.46
6961.21
6961.95
6962.7
6963.43
6964.17
6964.9
6965.63
6966.37
6967.1
6967.85
6968.6
6969.35
6970.11
6970.89
6971.67
6972.46
6973.27
6974.09
6974.92
6975.77
6976.64
6977.53
6978.43
6979.36
6980.3
6981.27
6982.25
6983.26
6984.3
6985.36
6986.44
6987.56
6988.69
6989.86
6991.05
6992.26
6993.5
6994.77
6996.07
6997.39
6998.74
7000.11
7001.51
7002.94
7004.39
7005.87
7007.37
7008.9
7010.45
7012.02
7013.62
7015.24
7016.88
7018.54
7020.23
7021.93
7023.65
7025.39
7027.15
7028.92
7030.71
7032.51
7034.32
7036.15
7037.99
7039.84
7041.7
7043.56
7045.43
7047.31
7049.19
7051.08
7052.97
7054.85
7056.74
7058.62
7060.5
7062.37
7064.23
7066.08
7067.92
7069.74
7071.54
7073.32
7075.08
7076.81
7078.51
7080.18
7081.81
7083.41
7084.98
7086.5
7087.98
7089.42
7090.81
7092.15
7093.46
7094.69
7095.91
7097.02
7098.12
7099.12
7100.1
7101.04
7101.91
7102.73
7103.48
7104.01
7104.65
7105.45
7105.99
7106.55
7106.99
7107.39
7107.77
7108.13
7108.42
7108.69
7108.85
7109.03
7109.19
7109.29
7109.34
7109.35
7109
7108.94
7109.16
7109.02
7109
7108.74
7108.58
7108.22
7107.96
7107.64
7107.33
7106.97
7106.57
7106.15
7105.64
7105.1
7104.69
7104.14
7103.67
7103.11
7102.25
7101.13
7099.95
7099.74
7099.22
7098.44
7097.61
7096.79
7095.94
7095.1
7094.28
7093.44
7092.58
7091.7
7090.81
7089.9
7088.98
7088.04
7087.08
7086.09
7085.09
7084.06
7083.01
7081.94
7080.84
7079.73
7078.6
7077.46
7076.29
7075.11
7073.92
7072.71
7071.48
7070.24
7068.99
7067.73
7066.46
7065.18
7063.89
7062.59
7061.28
7059.97
7058.65
7057.33
7056
7054.67
7053.33
7052
7050.66
7049.33
7047.99
7046.65
7045.32
7043.99
7042.66
7041.34
7040.02
7038.71
7037.41
7036.11
7034.82
7033.54
7032.26
7031
7029.74
7028.49
7027.26
7026.04
7024.83
7023.63
7022.44
7021.27
7020.11
7018.96
7017.83
7016.72
7015.62
7014.53
7013.47
7012.41
7011.38
7010.36
7009.36
7008.37
7007.4
7006.45
7005.51
7004.6
7003.69
7002.84
7001.93
7001.16
7000.25
6999.52
6998.73
6997.42
7228.45
7232.06
7232.82
7233.48
7234.23
7234.98
7235.6
7236.07
7236.38
7236.55
7236.62
7236.58
7236.41
7236.3
7236.26
7236.31
7236.43
7236.56
7236.63
7236.59
7236.43
7236.14
7235.76
7235.32
7234.85
7234.36
7233.89
7233.45
7233.04
7232.62
7232.15
7231.63
7231.04
7230.38
7229.66
7228.93
7228.15
7227.29
7226.38
7225.4
7224.39
7223.35
7222.31
7221.24
7220.14
7219.02
7217.87
7216.7
7215.53
7214.35
7213.17
7211.97
7210.74
7209.47
7208.26
7207.03
7205.8
7204.59
7203.39
7202.17
7200.95
7199.74
7198.57
7197.38
7196.21
7195.03
7193.86
7192.72
7191.62
7190.49
7189.4
7188.34
7187.27
7186.25
7185.25
7184.17
7183.08
7181.99
7180.88
7179.78
7178.66
7177.58
7176.47
7175.33
7174.22
7173.14
7172.22
7171.39
7170.44
7169.25
7168.08
7167.13
7169.62
7172.74
7165.37
7147.24
7161.67
7162.91
7160
7159.99
7158.99
7156.36
7157.16
7156.09
7155.88
7155.05
7154.82
7154.28
7154.49
7154.26
7153.28
7153.08
7152.47
7152.45
7158.4
7155.93
7146.74
7145.92
7144.5
7143.79
7143.9
7142.21
7139.52
7137.07
7134.65
7132.5
7130.14
7127.35
7124.11
7121.32
7117.83
7116.84
7112.75
7105.57
7101.13
7096.1
7091.17
7085.8
7080.79
7074.87
7068.2
7061.39
7054.19
7046.8
7039.25
7031.35
7023.13
7014.64
7005.92
6996.98
6987.85
6978.52
6969
6959.33
6949.53
6939.62
6929.59
6919.49
6909.33
6899.13
6888.9
6878.66
6868.44
6858.25
6848.11
6838.05
6828.09
6818.25
6808.54
6798.98
6789.61
6780.42
6771.45
6762.69
6754.17
6745.89
6737.86
6730.09
6722.57
6715.32
6708.31
6701.56
6695.07
6688.82
6682.82
6677.04
6671.49
6666.14
6660.99
6656.03
6651.25
6646.63
6642.17
6637.84
6633.64
6629.57
6625.63
6621.81
6618.13
6614.59
6611.21
6607.99
6604.95
6602.1
6599.46
6597.04
6594.84
6592.88
6591.14
6589.63
6588.36
6587.33
6586.53
6585.97
6585.64
6585.53
6585.64
6585.96
6586.5
6587.24
6588.18
6589.3
6590.61
6592.09
6593.73
6595.53
6597.47
6599.55
6601.75
6604.07
6606.49
6609.02
6611.63
6614.33
6617.1
6619.93
6622.82
6625.76
6628.74
6631.75
6634.78
6637.83
6640.9
6643.97
6647.04
6650.1
6653.15
6656.18
6659.2
6662.19
6665.16
6668.1
6671.01
6673.87
6676.7
6679.49
6682.24
6684.94
6687.59
6690.2
6692.76
6695.27
6697.74
6700.16
6702.53
6704.84
6707.11
6709.32
6711.49
6713.6
6715.66
6717.68
6719.64
6721.56
6723.42
6725.24
6727
6728.72
6730.39
6732.02
6733.59
6735.12
6736.61
6738.05
6739.45
6740.8
6742.11
6743.39
6744.62
6745.82
6746.98
6748.1
6749.2
6750.26
6751.29
6752.29
6753.26
6754.2
6755.13
6756.03
6756.9
6757.76
6758.6
6759.42
6760.22
6761.01
6761.79
6762.55
6763.31
6764.06
6764.8
6765.54
6766.27
6767
6767.73
6768.46
6769.18
6769.91
6770.64
6771.38
6772.13
6772.88
6773.64
6774.4
6775.18
6775.97
6776.78
6777.59
6778.43
6779.27
6780.14
6781.02
6781.92
6782.84
6783.78
6784.75
6785.73
6786.74
6787.77
6788.83
6789.91
6791.02
6792.16
6793.32
6794.51
6795.72
6796.96
6798.23
6799.53
6800.85
6802.2
6803.58
6804.98
6806.41
6807.87
6809.35
6810.86
6812.39
6813.95
6815.53
6817.13
6818.76
6820.41
6822.08
6823.77
6825.48
6827.21
6828.96
6830.73
6832.51
6834.31
6836.13
6837.96
6839.8
6841.66
6843.52
6845.4
6847.28
6849.17
6851.07
6852.97
6854.87
6856.78
6858.69
6860.59
6862.5
6864.4
6866.29
6868.17
6870.04
6871.9
6873.74
6875.57
6877.37
6879.15
6880.9
6882.62
6884.31
6885.97
6887.59
6889.17
6890.71
6892.21
6893.66
6895.07
6896.43
6897.74
6898.98
6900.18
6901.36
6902.45
6903.53
6904.49
6905.44
6906.14
6906.95
6907.9
6908.6
6909.3
6909.88
6910.43
6910.94
6911.45
6911.86
6912.26
6912.55
6912.85
6913.13
6913.35
6913.54
6913.65
6913.42
6913.44
6913.8
6913.73
6913.84
6913.67
6913.59
6913.35
6913.18
6912.94
6912.71
6912.43
6912.11
6911.77
6911.32
6910.85
6910.51
6910.04
6909.58
6909.19
6908.1
6907.1
6906.99
6906.53
6905.83
6905.09
6904.28
6903.49
6902.67
6901.87
6901.07
6900.26
6899.44
6898.59
6897.73
6896.85
6895.96
6895.05
6894.12
6893.18
6892.21
6891.23
6890.23
6889.21
6888.16
6887.09
6886.01
6884.9
6883.78
6882.64
6881.48
6880.3
6879.11
6877.9
6876.68
6875.44
6874.19
6872.93
6871.66
6870.38
6869.08
6867.78
6866.47
6865.15
6863.83
6862.5
6861.17
6859.83
6858.49
6857.15
6855.8
6854.46
6853.11
6851.76
6850.42
6849.08
6847.74
6846.4
6845.07
6843.75
6842.43
6841.12
6839.81
6838.51
6837.22
6835.94
6834.67
6833.41
6832.16
6830.92
6829.69
6828.47
6827.27
6826.07
6824.9
6823.73
6822.58
6821.45
6820.33
6819.22
6818.14
6817.06
6816.01
6814.97
6813.95
6812.94
6811.95
6810.98
6810.03
6809.09
6808.18
6807.26
6806.41
6805.5
6804.72
6803.82
6803.09
6802.3
6800.99
7032.39
7036.01
7036.8
7037.45
7038.2
7038.95
7039.58
7040.04
7040.4
7040.71
7040.96
7041.04
7041.05
7041.08
7041.13
7041.19
7041.23
7041.24
7041.2
7041.09
7040.9
7040.63
7040.31
7039.92
7039.5
7039.06
7038.61
7038.16
7037.7
7037.21
7036.66
7036.07
7035.42
7034.73
7034.01
7033.25
7032.42
7031.53
7030.58
7029.58
7028.55
7027.51
7026.44
7025.34
7024.22
7023.09
7021.91
7020.71
7019.49
7018.31
7017.11
7015.88
7014.65
7013.34
7012.06
7010.8
7009.54
7008.3
7007.06
7005.82
7004.58
7003.33
7002.11
7000.9
6999.67
6998.46
6997.25
6996.03
6994.82
6993.62
6992.46
6991.33
6990.2
6989.08
6987.96
6986.88
6985.73
6984.55
6983.4
6982.27
6981.14
6980.02
6978.91
6977.76
6976.66
6975.61
6974.59
6973.58
6972.63
6971.63
6970.71
6969.65
6968.47
6967.47
6966.74
6968.93
6972.31
6964.77
6945.61
6961.13
6963.27
6959.43
6959.47
6958.59
6955.73
6956.73
6956.13
6955.86
6955.74
6955.26
6954.96
6954.98
6954.64
6953.34
6953.06
6952.2
6952.16
6958.77
6955.83
6945.28
6944.16
6942.42
6941.41
6941.34
6939.3
6935.89
6933.18
6929.96
6927.73
6924.91
6921.7
6918.6
6914.68
6911.53
6907.52
6905.77
6900.94
6892.16
6886.8
6880.11
6873.91
6867.84
6860.95
6853.28
6845.49
6837.37
6829.08
6820.67
6811.94
6802.95
6793.68
6784.24
6774.63
6764.89
6755
6744.97
6734.84
6724.61
6714.35
6704.04
6693.7
6683.35
6672.99
6662.67
6652.42
6642.24
6632.16
6622.19
6612.36
6602.69
6593.2
6583.91
6574.83
6565.97
6557.33
6548.94
6540.8
6532.92
6525.28
6517.9
6510.78
6503.91
6497.29
6490.92
6484.79
6478.9
6473.22
6467.77
6462.51
6457.45
6452.58
6447.89
6443.36
6438.98
6434.75
6430.65
6426.69
6422.87
6419.19
6415.67
6412.3
6409.1
6406.09
6403.27
6400.66
6398.27
6396.1
6394.17
6392.46
6390.99
6389.76
6388.77
6388.03
6387.52
6387.24
6387.19
6387.36
6387.75
6388.35
6389.16
6390.17
6391.37
6392.75
6394.31
6396.03
6397.91
6399.94
6402.09
6404.37
6406.76
6409.26
6411.86
6414.56
6417.33
6420.17
6423.07
6426.03
6429.03
6432.08
6435.15
6438.24
6441.35
6444.46
6447.58
6450.69
6453.8
6456.89
6459.97
6463.02
6466.05
6469.05
6472.01
6474.94
6477.83
6480.68
6483.49
6486.25
6488.96
6491.62
6494.24
6496.81
6499.33
6501.8
6504.22
6506.59
6508.91
6511.18
6513.39
6515.56
6517.67
6519.73
6521.74
6523.7
6525.61
6527.46
6529.27
6531.03
6532.75
6534.41
6536.02
6537.59
6539.11
6540.58
6542.01
6543.39
6544.73
6546.03
6547.29
6548.51
6549.7
6550.84
6551.95
6553.02
6554.07
6555.08
6556.06
6557.02
6557.95
6558.86
6559.74
6560.6
6561.44
6562.26
6563.06
6563.85
6564.63
6565.39
6566.15
6566.89
6567.63
6568.35
6569.08
6569.8
6570.52
6571.24
6571.96
6572.68
6573.41
6574.13
6574.87
6575.6
6576.35
6577.11
6577.87
6578.65
6579.43
6580.23
6581.04
6581.87
6582.72
6583.58
6584.45
6585.35
6586.27
6587.2
6588.16
6589.14
6590.15
6591.18
6592.23
6593.31
6594.42
6595.55
6596.71
6597.9
6599.11
6600.36
6601.62
6602.92
6604.24
6605.59
6606.97
6608.38
6609.82
6611.28
6612.76
6614.28
6615.82
6617.38
6618.97
6620.58
6622.22
6623.88
6625.56
6627.26
6628.98
6630.72
6632.49
6634.27
6636.07
6637.88
6639.71
6641.56
6643.42
6645.29
6647.18
6649.07
6650.98
6652.89
6654.81
6656.73
6658.66
6660.59
6662.53
6664.46
6666.39
6668.31
6670.23
6672.14
6674.05
6675.93
6677.8
6679.65
6681.48
6683.29
6685.07