/*--------------------------------*- C++ -*----------------------------------*\
| =========                 |                                                 |
| \\      /  F ield         | OpenFOAM: The Open Source CFD Toolbox           |
|  \\    /   O peration     | Version:  v2006                                 |
|   \\  /    A nd           | Website:  www.openfoam.com                      |
|    \\/     M anipulation  |                                                 |
\*---------------------------------------------------------------------------*/
FoamFile
{
    version     2.0;
    format      ascii;
    class       volVectorField;
    location    "7.4";
    object      U;
}
// * * * * * * * * * * * * * * * * * * * * * * * * * * * * * * * * * * * * * //

dimensions      [0 1 -1 0 0 0 0];


internalField   nonuniform List<vector> 
33000
(
(0.0569943 0 -0.00153073)
(0.0447207 0 -0.00134797)
(0.0474733 0 -0.0011705)
(0.0500732 0 -0.000960683)
(0.0509927 0 0.000405613)
(0.050571 0 0.00110425)
(0.0499827 0 0.000875578)
(0.0501692 0 9.15072e-05)
(0.0542261 0 -0.00250956)
(0.0680521 0 -0.0110114)
(0.0946292 0 -0.0241244)
(0.12431 0 -0.0289641)
(0.156921 0 -0.0217713)
(0.18331 0 -0.0083454)
(0.193665 0 0.00122427)
(0.193508 0 0.00372382)
(0.189667 0 0.00390777)
(0.182367 0 3.87723e-05)
(0.180243 0 -0.00482707)
(0.181454 0 -0.00698168)
(0.185005 0 -0.0065925)
(0.191351 0 -0.00634871)
(0.199194 0 -0.00836797)
(0.209587 0 -0.0102915)
(0.220195 0 -0.00888022)
(0.228269 0 -0.00348078)
(0.232768 0 0.00237833)
(0.233905 0 0.00467676)
(0.232713 0 0.00457387)
(0.228047 0 0.00697521)
(0.214009 0 0.0151549)
(0.19893 0 0.0171582)
(0.187266 0 0.0133642)
(0.178271 0 0.0089577)
(0.172084 0 0.00541197)
(0.168336 0 0.00407103)
(0.164587 0 0.00484289)
(0.159624 0 0.0050207)
(0.155191 0 0.00340301)
(0.153049 0 0.00105305)
(0.153086 0 -0.00057717)
(0.154054 0 -0.00105465)
(0.155083 0 -0.000343848)
(0.155032 0 0.00151397)
(0.153414 0 0.00232085)
(0.151663 0 0.00114925)
(0.151247 0 -0.000662611)
(0.152344 0 -0.00174011)
(0.153916 0 -0.00131951)
(0.154703 0 0.000554554)
(0.154142 0 0.00146632)
(0.153308 0 0.00104178)
(0.152665 0 -0.000241423)
(0.153094 0 -0.000842205)
(0.154417 0 -0.00124476)
(0.156248 0 -0.00149648)
(0.158389 0 -0.0016532)
(0.160674 0 -0.00211137)
(0.162985 0 -0.00188349)
(0.164166 0 -0.000339634)
(0.163309 0 0.00174968)
(0.161263 0 0.00247313)
(0.159548 0 0.00178518)
(0.158249 0 0.00115511)
(0.156842 0 0.00119854)
(0.155222 0 0.0016342)
(0.153207 0 0.00130813)
(0.151899 0 0.000526536)
(0.151766 0 -0.00086258)
(0.152935 0 -0.00156685)
(0.154253 0 -0.00166769)
(0.155064 0 -0.000918187)
(0.154804 0 0.000577752)
(0.152475 0 0.00140305)
(0.1497 0 0.00423384)
(0.141882 0 0.005895)
(0.140367 0 0.012696)
(0.127263 0 0.020745)
(0.0957681 0 0.0107097)
(0.0990566 0 0.000967282)
(0.0898881 0 -0.0032897)
(0.0911843 0 -0.00432136)
(0.0894652 0 0.00462985)
(0.0847538 0 0.00501105)
(0.0842261 0 0.00388715)
(0.08192 0 0.00193496)
(0.0779499 0 -0.00107212)
(0.0753946 0 -0.00140997)
(0.0740217 0 -0.00139592)
(0.0741359 0 -0.000246543)
(0.0733987 0 0.000121258)
(0.0733456 0 0.000616149)
(0.0729116 0 0.00072426)
(0.0717683 0 0.000720497)
(0.0709789 0 0.00161377)
(0.068635 0 0.00176227)
(0.067561 0 0.00405803)
(0.0621128 0 0.0044786)
(0.0604799 0 0.0108036)
(0.0471309 0 0.0104266)
(0.0402882 0 0.0058987)
(0.0310524 0 -0.00355287)
(0.0304992 0 -0.00817863)
(0.0294675 0 -0.00369878)
(0.0291368 0 0.000179814)
(0.031502 0 0.00298936)
(0.0323463 0 0.00221561)
(0.032515 0 0.00127641)
(0.0315264 0 -0.000949441)
(0.0315589 0 -0.0022308)
(0.0318289 0 -0.00187492)
(0.0318944 0 -0.00120379)
(0.0327239 0 -0.000219241)
(0.0327572 0 0.000266949)
(0.0331603 0 0.000986835)
(0.031853 0 0.00114816)
(0.031985 0 0.0033357)
(0.0271849 0 0.00337823)
(0.0259785 0 0.00122763)
(0.0240461 0 -0.00200182)
(0.0252743 0 -0.00336995)
(0.0254819 0 -0.00147318)
(0.0259567 0 -0.000416774)
(0.0273459 0 0.00034592)
(0.0282026 0 0.000174694)
(0.0286377 0 -0.000383929)
(0.0293026 0 -0.000896476)
(0.0297862 0 -0.00074963)
(0.0302938 0 -0.000606289)
(0.0310222 0 -0.000399916)
(0.0316507 0 -0.000345354)
(0.0322415 0 -0.000392639)
(0.0328249 0 -0.00046601)
(0.0333273 0 -0.000444078)
(0.0338563 0 -0.000457367)
(0.0343896 0 -0.000413823)
(0.0349791 0 -0.000395528)
(0.0355547 0 -0.000361447)
(0.0361086 0 -0.000369301)
(0.0366528 0 -0.00037626)
(0.0371712 0 -0.000384157)
(0.03768 0 -0.000375755)
(0.0381607 0 -0.000348578)
(0.0385976 0 -0.000310458)
(0.0389961 0 -0.000287778)
(0.0393627 0 -0.000268661)
(0.0397031 0 -0.000257607)
(0.0400236 0 -0.000239786)
(0.0403113 0 -0.000208659)
(0.0405461 0 -0.000158783)
(0.0407223 0 -0.000121957)
(0.0408696 0 -0.000108044)
(0.0409993 0 -8.99768e-05)
(0.0410917 0 -5.79461e-05)
(0.0411367 0 -2.07812e-05)
(0.041133 0 2.17005e-05)
(0.0410848 0 5.53405e-05)
(0.0409985 0 8.29756e-05)
(0.0408723 0 0.000110179)
(0.0407056 0 0.00014303)
(0.040498 0 0.000176778)
(0.0402516 0 0.000215147)
(0.0399493 0 0.000260829)
(0.0395944 0 0.000292715)
(0.0392075 0 0.000321407)
(0.038778 0 0.000365835)
(0.0382816 0 0.000418357)
(0.0377243 0 0.000456801)
(0.0371305 0 0.000489384)
(0.0364903 0 0.000533337)
(0.0357831 0 0.000594538)
(0.0349913 0 0.00066166)
(0.0341291 0 0.000703338)
(0.033224 0 0.000740857)
(0.0322572 0 0.000790464)
(0.0312257 0 0.000857162)
(0.0300979 0 0.000946858)
(0.0288593 0 0.00101661)
(0.0275515 0 0.00106046)
(0.026174 0 0.00110614)
(0.0247341 0 0.00114061)
(0.0232634 0 0.00117747)
(0.0217334 0 0.00123177)
(0.0201463 0 0.00127999)
(0.0185029 0 0.00132876)
(0.0167953 0 0.00134628)
(0.0150868 0 0.00133708)
(0.0133852 0 0.00132927)
(0.0116994 0 0.00133243)
(0.0100038 0 0.00135264)
(0.00829789 0 0.0013474)
(0.00661625 0 0.00131799)
(0.0049683 0 0.00126838)
(0.00338712 0 0.00121537)
(0.00186724 0 0.00117039)
(0.000406105 0 0.00112668)
(-0.00100688 0 0.00109709)
(-0.00239032 0 0.00106988)
(-0.00372577 0 0.00103047)
(-0.00500688 0 0.000979546)
(-0.00621506 0 0.00091963)
(-0.00736011 0 0.000880483)
(-0.00847003 0 0.000853688)
(-0.00954425 0 0.000827296)
(-0.0105816 0 0.000799478)
(-0.0115775 0 0.00076437)
(-0.0125224 0 0.000721713)
(-0.0134204 0 0.000690777)
(-0.0142881 0 0.000670762)
(-0.0151336 0 0.000653303)
(-0.0159445 0 0.000614283)
(-0.0166936 0 0.00056977)
(-0.0174006 0 0.000540481)
(-0.0180768 0 0.00051759)
(-0.018724 0 0.000503027)
(-0.019355 0 0.000487497)
(-0.0199569 0 0.000459498)
(-0.0205196 0 0.000422535)
(-0.0210356 0 0.000387686)
(-0.0215134 0 0.000363326)
(-0.0219648 0 0.000342376)
(-0.02239 0 0.000328314)
(-0.0227993 0 0.000314304)
(-0.0231834 0 0.000291424)
(-0.0235363 0 0.000263098)
(-0.0238542 0 0.00023501)
(-0.0241388 0 0.000212612)
(-0.0243987 0 0.000193263)
(-0.0246352 0 0.00018057)
(-0.0248587 0 0.000170512)
(-0.0250646 0 0.000151854)
(-0.0252417 0 0.00012893)
(-0.0253917 0 0.000107067)
(-0.025514 0 8.77063e-05)
(-0.0256154 0 7.39611e-05)
(-0.0257006 0 6.11291e-05)
(-0.0257693 0 4.61376e-05)
(-0.0258203 0 3.26424e-05)
(-0.025857 0 2.23486e-05)
(-0.025879 0 1.11359e-05)
(-0.025884 0 5.7979e-07)
(-0.0258734 0 -1.48983e-05)
(-0.0258414 0 -3.30229e-05)
(-0.0257925 0 -4.32306e-05)
(-0.0257335 0 -5.13784e-05)
(-0.0256643 0 -5.60966e-05)
(-0.0255916 0 -5.74101e-05)
(-0.0255126 0 -6.84624e-05)
(-0.0254115 0 -8.73642e-05)
(-0.0252932 0 -9.54154e-05)
(-0.0251708 0 -9.95359e-05)
(-0.0250418 0 -0.000101819)
(-0.0249114 0 -0.000103615)
(-0.0247751 0 -0.000109961)
(-0.0246273 0 -0.000118385)
(-0.0244712 0 -0.000125601)
(-0.0243078 0 -0.000130905)
(-0.0241398 0 -0.000133778)
(-0.0239703 0 -0.000135014)
(-0.0237969 0 -0.000137039)
(-0.0236179 0 -0.00014155)
(-0.0234319 0 -0.000148827)
(-0.0232387 0 -0.000154007)
(-0.0230416 0 -0.000154842)
(-0.0228469 0 -0.000152824)
(-0.0226528 0 -0.000151205)
(-0.0224589 0 -0.000153954)
(-0.0222553 0 -0.000164937)
(-0.0220402 0 -0.000169865)
(-0.0218244 0 -0.000170928)
(-0.0216066 0 -0.000172324)
(-0.0213871 0 -0.000172037)
(-0.0211689 0 -0.000170361)
(-0.0209506 0 -0.000170995)
(-0.0207293 0 -0.000175149)
(-0.0205025 0 -0.000181458)
(-0.0202696 0 -0.000184554)
(-0.0200342 0 -0.000185866)
(-0.0197964 0 -0.000188154)
(-0.0195553 0 -0.000190535)
(-0.0193121 0 -0.000190238)
(-0.0190712 0 -0.000187504)
(-0.0188324 0 -0.000188288)
(-0.0185886 0 -0.000194674)
(-0.0183367 0 -0.000199279)
(-0.0180822 0 -0.000199898)
(-0.0178285 0 -0.000200457)
(-0.0175725 0 -0.000201683)
(-0.0173156 0 -0.000201162)
(-0.0170592 0 -0.000200837)
(-0.016802 0 -0.000202231)
(-0.0165418 0 -0.000205572)
(-0.0162779 0 -0.000208639)
(-0.0160118 0 -0.000210113)
(-0.0157443 0 -0.000211145)
(-0.0154752 0 -0.000210737)
(-0.0152064 0 -0.000209946)
(-0.0149368 0 -0.000211779)
(-0.0146647 0 -0.000215427)
(-0.0143896 0 -0.000218291)
(-0.0141112 0 -0.000220521)
(-0.013829 0 -0.00022164)
(-0.0135459 0 -0.000221033)
(-0.0132632 0 -0.000223117)
(-0.0129754 0 -0.00022822)
(-0.0126834 0 -0.000231575)
(-0.0123874 0 -0.000233472)
(-0.0120879 0 -0.000235477)
(-0.0117861 0 -0.00023862)
(-0.0114804 0 -0.000242807)
(-0.01117 0 -0.00024667)
(-0.0108547 0 -0.000249024)
(-0.0105377 0 -0.000248527)
(-0.0102221 0 -0.000247718)
(-0.00990645 0 -0.000249719)
(-0.00958814 0 -0.000251556)
(-0.00926927 0 -0.000250622)
(-0.00895281 0 -0.000247779)
(-0.00864046 0 -0.000243856)
(-0.00833396 0 -0.000239234)
(-0.00803421 0 -0.000233489)
(-0.00774315 0 -0.000226212)
(-0.00746189 0 -0.000217117)
(-0.007193 0 -0.000205908)
(-0.00693825 0 -0.000195112)
(-0.00669634 0 -0.000185377)
(-0.00646757 0 -0.000174748)
(-0.00625366 0 -0.000162083)
(-0.00605642 0 -0.000148537)
(-0.00587495 0 -0.000136661)
(-0.00570736 0 -0.000126215)
(-0.00555321 0 -0.000116353)
(-0.00541222 0 -0.000105454)
(-0.00528615 0 -9.26784e-05)
(-0.00517601 0 -8.07412e-05)
(-0.00507899 0 -7.24027e-05)
(-0.00499163 0 -6.55783e-05)
(-0.004913 0 -5.85312e-05)
(-0.00484358 0 -5.1414e-05)
(-0.00478281 0 -4.44836e-05)
(-0.00473027 0 -3.84268e-05)
(-0.00468458 0 -3.36018e-05)
(-0.0046448 0 -2.98414e-05)
(-0.00460928 0 -2.68719e-05)
(-0.00457743 0 -2.40669e-05)
(-0.00454912 0 -2.16978e-05)
(-0.00452303 0 -2.00969e-05)
(-0.00449818 0 -1.95412e-05)
(-0.00447331 0 -1.99547e-05)
(-0.00444773 0 -2.08489e-05)
(-0.00442083 0 -2.18474e-05)
(-0.00439267 0 -2.29565e-05)
(-0.00436255 0 -2.50463e-05)
(-0.00432895 0 -2.82244e-05)
(-0.004291 0 -3.17612e-05)
(-0.0042486 0 -3.53666e-05)
(-0.00420144 0 -3.94015e-05)
(-0.0041489 0 -4.38084e-05)
(-0.00409085 0 -4.85282e-05)
(-0.00402663 0 -5.37435e-05)
(-0.00395544 0 -5.91742e-05)
(-0.00387723 0 -6.48071e-05)
(-0.00379178 0 -7.04896e-05)
(-0.00369906 0 -7.66738e-05)
(-0.00359812 0 -8.2704e-05)
(-0.00349006 0 -8.83296e-05)
(-0.00337483 0 -9.3656e-05)
(-0.00325226 0 -9.97121e-05)
(-0.00312136 0 -0.00010675)
(-0.00298116 0 -0.000114197)
(-0.00283283 0 -0.000120258)
(-0.00267725 0 -0.000125924)
(-0.00251477 0 -0.000131397)
(-0.00234426 0 -0.000138231)
(-0.0021652 0 -0.000144508)
(-0.00197808 0 -0.000150732)
(-0.00178399 0 -0.000155742)
(-0.00158332 0 -0.000161382)
(-0.00137604 0 -0.000166137)
(-0.0011625 0 -0.000169992)
(-0.000944809 0 -0.000172998)
(-0.000721596 0 -0.000178088)
(-0.000492151 0 -0.000183202)
(-0.000256533 0 -0.000186867)
(-1.71183e-05 0 -0.000189931)
(0.000226372 0 -0.00019193)
(0.000472853 0 -0.000194482)
(0.000722137 0 -0.000195172)
(0.000973652 0 -0.000198324)
(0.00122836 0 -0.000198748)
(0.00148501 0 -0.000201245)
(0.00174235 0 -0.000198719)
(0.00199942 0 -0.000200868)
(0.00225725 0 -0.000198944)
(0.00251582 0 -0.000202012)
(0.00277373 0 -0.000198052)
(0.00303106 0 -0.000200644)
(0.00328682 0 -0.000194795)
(0.00354033 0 -0.000195496)
(0.00378957 0 -0.000188689)
(0.00403747 0 -0.000191196)
(0.00428181 0 -0.000184511)
(0.00452564 0 -0.00018623)
(0.00476377 0 -0.000179507)
(0.00500126 0 -0.000178832)
(0.00523121 0 -0.000171163)
(0.0054575 0 -0.000167482)
(0.00568129 0 -0.000167656)
(0.00590064 0 -0.000161899)
(0.00611957 0 -0.000172066)
(0.00632959 0 -0.000159662)
(0.00653571 0 -0.000171895)
(0.00673298 0 -0.00015038)
(0.0069226 0 -0.000159386)
(0.00711754 0 -0.000132962)
(0.00729335 0 -0.000145464)
(0.00746847 0 -0.00013727)
(0.00763554 0 -0.000161285)
(0.00777191 0 -0.000124958)
(0.00791063 0 -0.00012495)
(0.00808432 0 -4.23519e-05)
(0.00819537 0 -5.87486e-05)
(0.00835227 0 -0.000119659)
(0.00848778 0 -0.000221009)
(0.00843588 0 -0.000182477)
(0.00851224 0 -0.000120122)
(0.00872585 0 0.000353852)
(0.00863975 0 0.000383539)
(0.00911827 0 -4.16985e-05)
(0.00921133 0 -0.000656738)
(0.0105258 0 -0.00105958)
(0.0108849 0 -0.000577557)
(0.0115418 0 -0.000473182)
(0.0117416 0 -0.000300852)
(0.0120583 0 -0.000244438)
(0.0121425 0 -0.00022344)
(0.0123261 0 -0.000119625)
(0.0124105 0 -9.86475e-05)
(0.0125595 0 5.76238e-05)
(0.0125988 0 4.89034e-05)
(0.0127031 0 5.38943e-06)
(0.0127426 0 -0.000150603)
(0.0125514 0 -0.000126379)
(0.0124778 0 -5.38675e-05)
(0.0125532 0 0.000630728)
(0.0123108 0 0.000738143)
(0.0127792 0 0.000314515)
(0.0127961 0 -0.000612668)
(0.0144323 0 -0.00137162)
(0.0150353 0 -0.00094158)
(0.0160088 0 -0.000695148)
(0.0163749 0 -0.000402568)
(0.0167397 0 -0.000186097)
(0.0169205 0 -0.000120051)
(0.017047 0 -7.75113e-05)
(0.0171205 0 -7.30609e-05)
(0.0170975 0 -8.33424e-05)
(0.016968 0 5.96845e-06)
(0.0169191 0 5.72366e-05)
(0.0167965 0 0.000354072)
(0.0166467 0 0.000182127)
(0.0166424 0 9.67734e-05)
(0.0162836 0 -0.000248786)
(0.0154056 0 -0.000159847)
(0.015335 0 0.000264293)
(0.0147679 0 0.00210007)
(0.0144954 0 0.0014332)
(0.0158596 0 0.000654863)
(0.0168706 0 -0.00203907)
(0.023078 0 -0.00413533)
(0.0251181 0 -0.00359314)
(0.0280226 0 -0.00254448)
(0.030463 0 -0.00183335)
(0.0317279 0 -0.00114621)
(0.0327885 0 -0.00074887)
(0.0333893 0 -0.000497798)
(0.0338213 0 -0.000326179)
(0.0340882 0 -0.000193429)
(0.0342181 0 -8.31192e-05)
(0.0342432 0 -5.58812e-06)
(0.0342021 0 4.60497e-05)
(0.0341067 0 9.40875e-05)
(0.033951 0 0.000136493)
(0.0337507 0 0.000172823)
(0.0335065 0 0.000211957)
(0.0332224 0 0.000231611)
(0.0329169 0 0.000248072)
(0.0325887 0 0.000272547)
(0.0322236 0 0.000301754)
(0.0318312 0 0.000311773)
(0.0314348 0 0.000314626)
(0.0310256 0 0.000332057)
(0.0305898 0 0.000354088)
(0.0301278 0 0.000373391)
(0.0296503 0 0.00037996)
(0.0291666 0 0.000381743)
(0.0286753 0 0.000390486)
(0.0281744 0 0.000398307)
(0.0276625 0 0.000407262)
(0.0271419 0 0.000410194)
(0.0266137 0 0.000421956)
(0.0260673 0 0.000437534)
(0.0255099 0 0.000437047)
(0.0249582 0 0.00043072)
(0.0244133 0 0.000424973)
(0.023872 0 0.000423528)
(0.0233283 0 0.000428266)
(0.0227779 0 0.000434553)
(0.0222221 0 0.000438823)
(0.0216621 0 0.000441832)
(0.0210987 0 0.000443785)
(0.0205374 0 0.000440623)
(0.0199741 0 0.000445842)
(0.0194062 0 0.00044328)
(0.0188447 0 0.000436808)
(0.0182866 0 0.000440765)
(0.0177197 0 0.000449837)
(0.0171432 0 0.000456327)
(0.0165639 0 0.000458516)
(0.0159834 0 0.000457415)
(0.0154059 0 0.000453523)
(0.0148336 0 0.000449054)
(0.0142641 0 0.000446162)
(0.0136977 0 0.000444579)
(0.0131335 0 0.000443605)
(0.0125693 0 0.00044283)
(0.0120063 0 0.000442935)
(0.0114446 0 0.000441563)
(0.0108842 0 0.000439413)
(0.0103269 0 0.000437382)
(0.00977225 0 0.000435029)
(0.00921949 0 0.000434166)
(0.00866684 0 0.00043476)
(0.00811327 0 0.000435245)
(0.00756113 0 0.00043334)
(0.00701284 0 0.000429881)
(0.006468 0 0.000428289)
(0.00592363 0 0.000428511)
(0.00537695 0 0.000432431)
(0.00484721 0 0.000427536)
(0.00419212 0 0.000430697)
(0.003982 0 0.000429084)
(0.00275987 0 0.000430379)
(0.00334944 0 0.000409225)
(0.00116147 0 0.000403144)
(0.00292545 0 0.000393872)
(-0.000461314 0 0.000402314)
(0.00239468 0 0.000391694)
(-0.0016829 0 0.000399527)
(0.000996818 0 0.000355211)
(0.0571911 0 -0.0047466)
(0.0451075 0 -0.00427192)
(0.0479217 0 -0.00363554)
(0.0506776 0 -0.00244943)
(0.0523605 0 -0.000532605)
(0.0536074 0 0.00036815)
(0.0554604 0 -0.000194175)
(0.0601008 0 -0.00553671)
(0.0769701 0 -0.0267204)
(0.105699 0 -0.055092)
(0.128306 0 -0.06862)
(0.147951 0 -0.074549)
(0.168094 0 -0.0696918)
(0.189806 0 -0.0456055)
(0.206208 0 -0.0157043)
(0.209788 0 0.00421803)
(0.20507 0 0.0134859)
(0.199291 0 0.0135211)
(0.191483 0 0.00711475)
(0.18454 0 -0.0015248)
(0.182152 0 -0.0101186)
(0.184753 0 -0.0171302)
(0.190222 0 -0.0219966)
(0.197074 0 -0.0232958)
(0.203308 0 -0.0210823)
(0.209013 0 -0.0173947)
(0.213041 0 -0.0127431)
(0.212941 0 -0.00518014)
(0.208193 0 0.00658197)
(0.199391 0 0.0206748)
(0.190259 0 0.0284899)
(0.183189 0 0.0264781)
(0.17781 0 0.0209995)
(0.173615 0 0.0156887)
(0.169899 0 0.0107503)
(0.166218 0 0.00820926)
(0.162486 0 0.0092128)
(0.158738 0 0.0100317)
(0.155562 0 0.00729287)
(0.153842 0 0.00243699)
(0.15356 0 -0.000919653)
(0.153858 0 -0.00185279)
(0.15415 0 -0.00144379)
(0.154372 0 0.00128527)
(0.15436 0 0.0027584)
(0.154189 0 0.00235645)
(0.153787 0 -0.000386681)
(0.154057 0 -0.00241207)
(0.154438 0 -0.00252678)
(0.155036 0 -0.00105427)
(0.155477 0 0.00105597)
(0.155362 0 0.00129575)
(0.154845 0 0.000379349)
(0.154441 0 -0.00209883)
(0.155189 0 -0.00370296)
(0.156709 0 -0.00477836)
(0.158408 0 -0.00537851)
(0.159746 0 -0.00505989)
(0.160419 0 -0.00340746)
(0.160311 0 -0.000119568)
(0.160013 0 0.00236715)
(0.160178 0 0.00329088)
(0.160353 0 0.00328553)
(0.160215 0 0.00305473)
(0.159616 0 0.00315358)
(0.157931 0 0.0040401)
(0.15599 0 0.00400334)
(0.154361 0 0.00165621)
(0.153576 0 -0.00121138)
(0.153338 0 -0.00215255)
(0.153186 0 -0.00197449)
(0.15298 0 -0.000655547)
(0.15221 0 0.00297153)
(0.149515 0 0.00689504)
(0.148273 0 0.00949892)
(0.145187 0 0.01399)
(0.147164 0 0.0182835)
(0.146344 0 0.0274255)
(0.14968 0 0.0331438)
(0.148875 0 0.0163242)
(0.137356 0 0.0137778)
(0.104226 0 0.00646756)
(0.106919 0 0.00442829)
(0.097435 0 0.00249187)
(0.0937656 0 0.000636973)
(0.091396 0 0.00878394)
(0.085362 0 0.0110497)
(0.0802208 0 0.00794228)
(0.0797673 0 0.00301099)
(0.0786424 0 0.00131118)
(0.0751462 0 0.000880259)
(0.0742919 0 0.000174481)
(0.0737846 0 0.00172249)
(0.0731889 0 0.00234882)
(0.0732797 0 0.00314781)
(0.0728371 0 0.00378583)
(0.0718457 0 0.00560501)
(0.0712929 0 0.00746264)
(0.0694272 0 0.0118697)
(0.0714355 0 0.0202539)
(0.0671257 0 0.0207311)
(0.0659837 0 0.018777)
(0.0520932 0 0.0111222)
(0.0440632 0 0.00580438)
(0.0353411 0 -0.00389235)
(0.0309326 0 -0.00832596)
(0.0297399 0 -0.00379524)
(0.0287624 0 0.000114887)
(0.0286074 0 0.00270659)
(0.0311172 0 0.00178253)
(0.0334575 0 0.00149617)
(0.0333815 0 -0.000255185)
(0.0337532 0 -0.00121419)
(0.0335129 0 -0.000912454)
(0.0333802 0 0.000240055)
(0.034105 0 0.00106358)
(0.0342889 0 0.00370244)
(0.0360667 0 0.00562858)
(0.0350114 0 0.00432385)
(0.0355296 0 0.00295344)
(0.0303074 0 0.00133848)
(0.0289652 0 0.000432209)
(0.0269111 0 -0.00265519)
(0.0272994 0 -0.00404701)
(0.0272365 0 -0.00212773)
(0.0277278 0 -0.00135938)
(0.0291526 0 -0.000846526)
(0.0301078 0 -0.000772227)
(0.0305748 0 -0.00134407)
(0.0311743 0 -0.00177621)
(0.0315749 0 -0.00155123)
(0.032061 0 -0.00148457)
(0.0327204 0 -0.00121075)
(0.0333241 0 -0.00118543)
(0.0339027 0 -0.0012028)
(0.034443 0 -0.00136119)
(0.0349986 0 -0.0014504)
(0.0355476 0 -0.00141786)
(0.0360727 0 -0.00136731)
(0.0366237 0 -0.00129446)
(0.0371567 0 -0.00123292)
(0.0376782 0 -0.00118064)
(0.0381635 0 -0.00109716)
(0.0386083 0 -0.00100105)
(0.0390173 0 -0.000918351)
(0.0393967 0 -0.000841373)
(0.0397479 0 -0.000782676)
(0.0400702 0 -0.000716116)
(0.0403454 0 -0.000614131)
(0.0405736 0 -0.000486164)
(0.0407643 0 -0.000384597)
(0.0409249 0 -0.000328602)
(0.0410541 0 -0.000259847)
(0.0411395 0 -0.000156544)
(0.0411704 0 -4.35853e-05)
(0.0411615 0 6.20255e-05)
(0.0411247 0 0.000155092)
(0.0410509 0 0.000252377)
(0.0409239 0 0.000350471)
(0.0407465 0 0.000447085)
(0.0405309 0 0.000538089)
(0.0402737 0 0.000646146)
(0.0399688 0 0.000774697)
(0.039618 0 0.000873567)
(0.0392272 0 0.000961032)
(0.0387866 0 0.00108835)
(0.0382843 0 0.00123977)
(0.0377225 0 0.00135288)
(0.0371179 0 0.00144878)
(0.0364645 0 0.00158432)
(0.0357375 0 0.00176058)
(0.034943 0 0.00194066)
(0.0340822 0 0.00207437)
(0.0331594 0 0.00220075)
(0.0321724 0 0.00235227)
(0.0311182 0 0.00253521)
(0.0299893 0 0.00277546)
(0.0287709 0 0.00298795)
(0.0274775 0 0.00316074)
(0.0261036 0 0.00332529)
(0.0246669 0 0.00343627)
(0.0231908 0 0.0035389)
(0.0216667 0 0.00367077)
(0.0201011 0 0.00379704)
(0.018487 0 0.00394032)
(0.0168179 0 0.00402549)
(0.0151191 0 0.00402363)
(0.0134139 0 0.00399749)
(0.0117233 0 0.00398241)
(0.0100526 0 0.00399695)
(0.00839558 0 0.00397765)
(0.00675131 0 0.00391831)
(0.00512116 0 0.00380975)
(0.00352577 0 0.00366151)
(0.00199041 0 0.00351659)
(0.000516991 0 0.00339087)
(-0.000910877 0 0.0033003)
(-0.00229355 0 0.0032056)
(-0.00362948 0 0.00308346)
(-0.00491225 0 0.00293494)
(-0.00613525 0 0.00277884)
(-0.00730524 0 0.00266537)
(-0.00843261 0 0.00257928)
(-0.00952142 0 0.00249262)
(-0.0105639 0 0.00239616)
(-0.0115565 0 0.00228716)
(-0.0125067 0 0.00217417)
(-0.0134201 0 0.00208578)
(-0.0143006 0 0.00202112)
(-0.0151473 0 0.00195275)
(-0.0159492 0 0.00183673)
(-0.0167041 0 0.0017189)
(-0.0174222 0 0.00163412)
(-0.0181079 0 0.00156136)
(-0.0187609 0 0.00150551)
(-0.0193867 0 0.00144994)
(-0.0199805 0 0.00137014)
(-0.0205415 0 0.00127298)
(-0.0210643 0 0.00117249)
(-0.0215495 0 0.00109783)
(-0.0220076 0 0.00103353)
(-0.0224358 0 0.000983046)
(-0.0228385 0 0.000932097)
(-0.0232148 0 0.000865982)
(-0.023565 0 0.000791504)
(-0.0238863 0 0.000710491)
(-0.0241767 0 0.000643287)
(-0.0244411 0 0.000585832)
(-0.0246806 0 0.000541694)
(-0.0248999 0 0.000504178)
(-0.0250992 0 0.000449131)
(-0.0252738 0 0.000384619)
(-0.0254206 0 0.000320364)
(-0.0255425 0 0.000263227)
(-0.0256447 0 0.00021919)
(-0.0257289 0 0.000180511)
(-0.0257995 0 0.000142172)
(-0.0258555 0 0.000104857)
(-0.0258936 0 7.05592e-05)
(-0.0259124 0 3.09468e-05)
(-0.0259102 0 -9.72878e-06)
(-0.02589 0 -5.18051e-05)
(-0.0258581 0 -9.5115e-05)
(-0.0258145 0 -0.000125773)
(-0.0257585 0 -0.000151058)
(-0.0256925 0 -0.0001668)
(-0.0256161 0 -0.000181215)
(-0.0255256 0 -0.000213896)
(-0.0254218 0 -0.000259069)
(-0.0253081 0 -0.000281984)
(-0.0251878 0 -0.000296067)
(-0.0250624 0 -0.000305637)
(-0.0249292 0 -0.00031573)
(-0.0247863 0 -0.000336705)
(-0.0246336 0 -0.000359368)
(-0.024475 0 -0.000376673)
(-0.0243131 0 -0.000390025)
(-0.024149 0 -0.000396479)
(-0.0239828 0 -0.000403417)
(-0.0238077 0 -0.000417165)
(-0.0236226 0 -0.000431613)
(-0.023434 0 -0.000447376)
(-0.0232427 0 -0.000459111)
(-0.0230487 0 -0.000461055)
(-0.0228546 0 -0.000457512)
(-0.0226585 0 -0.000458997)
(-0.0224584 0 -0.000469634)
(-0.0222521 0 -0.000494178)
(-0.02204 0 -0.000506626)
(-0.0218256 0 -0.000510708)
(-0.0216098 0 -0.000514911)
(-0.0213928 0 -0.000516067)
(-0.0211734 0 -0.000515371)
(-0.0209498 0 -0.000520064)
(-0.0207225 0 -0.000528924)
(-0.0204946 0 -0.000541194)
(-0.020265 0 -0.000551262)
(-0.0200311 0 -0.000557837)
(-0.0197938 0 -0.000564375)
(-0.0195527 0 -0.000570566)
(-0.0193101 0 -0.000570407)
(-0.0190678 0 -0.00056639)
(-0.018824 0 -0.000569801)
(-0.0185769 0 -0.000584533)
(-0.0183253 0 -0.000596501)
(-0.0180715 0 -0.000598795)
(-0.0178186 0 -0.000600325)
(-0.0175643 0 -0.00060442)
(-0.0173067 0 -0.000605325)
(-0.0170467 0 -0.000606346)
(-0.0167854 0 -0.000610737)
(-0.0165219 0 -0.00061787)
(-0.0162578 0 -0.000624297)
(-0.0159933 0 -0.000628328)
(-0.0157271 0 -0.000632229)
(-0.0154572 0 -0.000634631)
(-0.0151839 0 -0.000636186)
(-0.0149089 0 -0.000639459)
(-0.0146347 0 -0.000644293)
(-0.014361 0 -0.0006513)
(-0.0140839 0 -0.000660266)
(-0.0138011 0 -0.00066675)
(-0.0135143 0 -0.00066805)
(-0.0132265 0 -0.000673287)
(-0.0129385 0 -0.000682732)
(-0.012649 0 -0.000692355)
(-0.0123516 0 -0.000702572)
(-0.0120486 0 -0.000709639)
(-0.0117448 0 -0.000716127)
(-0.0114405 0 -0.000725275)
(-0.0111327 0 -0.000736573)
(-0.010819 0 -0.000744621)
(-0.0105034 0 -0.000745492)
(-0.0101866 0 -0.000744213)
(-0.00987228 0 -0.000746513)
(-0.00955898 0 -0.000749722)
(-0.00924418 0 -0.000747724)
(-0.00893121 0 -0.000740308)
(-0.00862178 0 -0.000728604)
(-0.0083188 0 -0.000713428)
(-0.00802397 0 -0.000695013)
(-0.00773806 0 -0.000673207)
(-0.00746125 0 -0.000647598)
(-0.00719494 0 -0.000617105)
(-0.00694045 0 -0.000585526)
(-0.00669952 0 -0.000554408)
(-0.0064728 0 -0.000521004)
(-0.00626162 0 -0.000484032)
(-0.00606514 0 -0.000446534)
(-0.00588301 0 -0.000411801)
(-0.00571491 0 -0.000379343)
(-0.00556118 0 -0.000347414)
(-0.0054218 0 -0.000314204)
(-0.00529663 0 -0.00027857)
(-0.00518475 0 -0.000244827)
(-0.00508548 0 -0.000217451)
(-0.00499841 0 -0.000195392)
(-0.00492057 0 -0.000174284)
(-0.00485252 0 -0.00015322)
(-0.00479249 0 -0.000133623)
(-0.00473964 0 -0.000115864)
(-0.0046937 0 -0.00010067)
(-0.00465447 0 -8.83401e-05)
(-0.00461995 0 -7.8929e-05)
(-0.0045897 0 -7.03e-05)
(-0.00456328 0 -6.36272e-05)
(-0.00453801 0 -5.97419e-05)
(-0.00451317 0 -5.84161e-05)
(-0.00448848 0 -5.91525e-05)
(-0.00446376 0 -6.14785e-05)
(-0.00443809 0 -6.45612e-05)
(-0.00441078 0 -6.84915e-05)
(-0.00438098 0 -7.49371e-05)
(-0.00434791 0 -8.40691e-05)
(-0.00431085 0 -9.44022e-05)
(-0.00426906 0 -0.00010529)
(-0.00422234 0 -0.000117199)
(-0.0041704 0 -0.000129947)
(-0.0041136 0 -0.000143584)
(-0.00405063 0 -0.000159107)
(-0.00398024 0 -0.000175717)
(-0.00390243 0 -0.000192541)
(-0.00381755 0 -0.00020967)
(-0.00372532 0 -0.000227749)
(-0.00362525 0 -0.000245882)
(-0.00351749 0 -0.000262604)
(-0.00340183 0 -0.000280206)
(-0.00327779 0 -0.000298678)
(-0.00314601 0 -0.00031941)
(-0.00300602 0 -0.000339259)
(-0.0028583 0 -0.00035738)
(-0.00270286 0 -0.000373911)
(-0.00254014 0 -0.000391964)
(-0.00236933 0 -0.000411139)
(-0.00219019 0 -0.00043099)
(-0.00200299 0 -0.000448279)
(-0.00180877 0 -0.000464621)
(-0.00160831 0 -0.000479627)
(-0.00140156 0 -0.000495201)
(-0.00118831 0 -0.000507699)
(-0.000968366 0 -0.000519931)
(-0.00074285 0 -0.000533338)
(-0.000512306 0 -0.000547712)
(-0.000276798 0 -0.000559781)
(-3.65734e-05 0 -0.000569018)
(0.000206712 0 -0.00057832)
(0.000454233 0 -0.000584689)
(0.000704341 0 -0.000592107)
(0.00095812 0 -0.000597098)
(0.00121308 0 -0.000605032)
(0.00147069 0 -0.000606271)
(0.00172831 0 -0.000609925)
(0.00198875 0 -0.000608178)
(0.00224803 0 -0.000612884)
(0.00250834 0 -0.000609615)
(0.00276567 0 -0.00061193)
(0.00302427 0 -0.000605809)
(0.00327955 0 -0.000605843)
(0.00353576 0 -0.000594912)
(0.00378762 0 -0.000592598)
(0.00403706 0 -0.000582944)
(0.00428234 0 -0.000582397)
(0.00452507 0 -0.000572369)
(0.00476452 0 -0.000567378)
(0.00500024 0 -0.00055763)
(0.00523495 0 -0.000544814)
(0.00545827 0 -0.00054206)
(0.00568719 0 -0.000527653)
(0.00589463 0 -0.000529046)
(0.00611908 0 -0.000501123)
(0.00632535 0 -0.000495411)
(0.00654316 0 -0.00046131)
(0.00674599 0 -0.000457811)
(0.0069429 0 -0.000444634)
(0.00713271 0 -0.000450863)
(0.00728866 0 -0.000404783)
(0.00745338 0 -0.000401739)
(0.00765218 0 -0.000312828)
(0.00781166 0 -0.000306041)
(0.00800292 0 -0.00036589)
(0.00814635 0 -0.000410625)
(0.00810929 0 -0.000358303)
(0.00818744 0 -0.000347255)
(0.00843462 0 0.000103354)
(0.00855791 0 0.000159725)
(0.00911007 0 -0.000347353)
(0.00927226 0 -0.000577963)
(0.0106194 0 -0.000988563)
(0.0109716 0 -0.000933158)
(0.0116219 0 -0.0014888)
(0.011553 0 -0.00152678)
(0.0117579 0 -0.00107581)
(0.0118196 0 -0.00082398)
(0.0119813 0 -0.000538543)
(0.0121295 0 -0.000358915)
(0.0122918 0 -0.000204416)
(0.0124556 0 -0.000297431)
(0.0126158 0 -0.000265268)
(0.0127045 0 -0.000369721)
(0.0125477 0 -0.000262552)
(0.0124842 0 -0.000253014)
(0.0126397 0 0.000418)
(0.0126754 0 0.000553501)
(0.013316 0 4.51623e-05)
(0.0134657 0 -0.000411886)
(0.015244 0 -0.0010849)
(0.0158317 0 -0.00117819)
(0.0168856 0 -0.00190893)
(0.0168179 0 -0.00208525)
(0.0170079 0 -0.0016165)
(0.0170033 0 -0.00134416)
(0.017122 0 -0.000793099)
(0.017141 0 -0.000634744)
(0.0170844 0 -0.000397334)
(0.0171483 0 -0.000206542)
(0.0171194 0 -3.18313e-05)
(0.0172247 0 0.000355726)
(0.0172162 0 0.000253953)
(0.0174155 0 0.000221834)
(0.0170715 0 5.6922e-05)
(0.0162724 0 6.08372e-05)
(0.0160543 0 0.000466233)
(0.0159263 0 0.00226162)
(0.0162175 0 0.00163992)
(0.0179145 0 0.000713014)
(0.0197313 0 -0.00083519)
(0.0267674 0 -0.00331402)
(0.0287673 0 -0.00452796)
(0.0312252 0 -0.0088018)
(0.0324494 0 -0.00746176)
(0.0326079 0 -0.00586622)
(0.0328412 0 -0.00476553)
(0.0332368 0 -0.0036737)
(0.0336491 0 -0.00250009)
(0.0340213 0 -0.00166209)
(0.0342861 0 -0.00110544)
(0.0344679 0 -0.000721885)
(0.0345735 0 -0.000410482)
(0.0346069 0 -0.000145901)
(0.0345777 0 4.74491e-05)
(0.0344972 0 0.000178489)
(0.0343682 0 0.000311848)
(0.0341893 0 0.000431734)
(0.0339678 0 0.000531303)
(0.0337097 0 0.000635042)
(0.0334212 0 0.000697909)
(0.0331065 0 0.000752452)
(0.032766 0 0.000819554)
(0.0324027 0 0.000895185)
(0.0320187 0 0.000931262)
(0.0316171 0 0.000952759)
(0.0311972 0 0.00100088)
(0.0307597 0 0.00105921)
(0.0303067 0 0.00110779)
(0.0298386 0 0.00113392)
(0.0293573 0 0.00115004)
(0.0288653 0 0.00117492)
(0.028364 0 0.00119409)
(0.027856 0 0.00121897)
(0.0273356 0 0.00123912)
(0.0268012 0 0.00127145)
(0.0262617 0 0.00130183)
(0.0257181 0 0.00130411)
(0.0251705 0 0.00129314)
(0.0246207 0 0.00128397)
(0.0240673 0 0.00128528)
(0.0235098 0 0.00129429)
(0.0229512 0 0.00130613)
(0.0223902 0 0.00131602)
(0.0218276 0 0.00132292)
(0.0212651 0 0.00132639)
(0.0207001 0 0.00132513)
(0.0201325 0 0.00133707)
(0.0195624 0 0.00133393)
(0.0189921 0 0.00132297)
(0.01842 0 0.00133126)
(0.0178464 0 0.00134874)
(0.0172729 0 0.00136052)
(0.0166997 0 0.001364)
(0.0161281 0 0.00136126)
(0.0155574 0 0.00135434)
(0.0149865 0 0.00134584)
(0.0144165 0 0.00133876)
(0.0138488 0 0.00133362)
(0.013283 0 0.00132979)
(0.0127191 0 0.00132776)
(0.0121561 0 0.00132623)
(0.0115947 0 0.00132259)
(0.0110351 0 0.00131655)
(0.0104774 0 0.00130953)
(0.00992194 0 0.00130457)
(0.00936688 0 0.0013042)
(0.00881202 0 0.00130488)
(0.00825907 0 0.00130201)
(0.00770948 0 0.00129524)
(0.0071626 0 0.00128649)
(0.00661616 0 0.00128547)
(0.00606859 0 0.00128533)
(0.0055245 0 0.00128801)
(0.00500131 0 0.00127614)
(0.00434786 0 0.00128049)
(0.00414586 0 0.00128129)
(0.00292169 0 0.00128039)
(0.00352672 0 0.00124003)
(0.00130356 0 0.00122061)
(0.00306845 0 0.00121364)
(-0.000370154 0 0.00122525)
(0.00250017 0 0.00122443)
(-0.00163183 0 0.00123295)
(0.00106938 0 0.00119942)
(0.0575406 0 -0.00818089)