0 	1.000003
0.006666667 	1.000003
0.01333333 	1.000003
0.02 	1.000003
0.02666667 	1.000004
0.03333333 	1.000004
0.04 	1.000004
0.04666667 	1.000004
0.05333333 	1.000004
0.06 	1.000004
0.06666667 	1.000004
0.07333333 	1.000004
0.08 	1.000004
0.08666667 	1.000004
0.09333333 	1.000004
0.1 	1.000004
0.1066667 	1.000004
0.1133333 	1.000004
0.12 	1.000004
0.1266667 	1.000004
0.1333333 	1.000004
0.14 	1.000004
0.1466667 	1.000004
0.1533333 	1.000004
0.16 	1.000004
0.1666667 	1.000004
0.1733333 	1.000004
0.18 	1.000004
0.1866667 	1.000003
0.1933333 	1.000003
0.2 	1.000003
0.2066667 	1.000003
0.2133333 	1.000003
0.22 	1.000003
0.2266667 	1.000003
0.2333333 	1.000003
0.24 	1.000004
0.2466667 	1.000004
0.2533333 	1.000004
0.26 	1.000004
0.2666667 	1.000004
0.2733333 	1.000004
0.28 	1.000004
0.2866667 	1.000004
0.2933333 	1.000004
0.3 	1.000004
0.3066667 	1.000003
0.3133333 	1.000003
0.32 	1.000003
0.3266667 	1.000003
0.3333333 	1.000003
0.34 	1.000003
0.3466667 	1.000003
0.3533333 	1.000003
0.36 	1.000004
0.3666667 	1.000004
0.3733333 	1.000004
0.38 	1.000004
0.3866667 	1.000003
0.3933333 	1.000003
0.4 	1.000003
0.4066667 	1.000003
0.4133333 	1.000003
0.42 	1.000003
0.4266667 	1.000003
0.4333333 	1.000003
0.44 	1.000003
0.4466667 	1.000003
0.4533333 	1.000003
0.46 	1.000003
0.4666667 	1.000003
0.4733333 	1.000002
0.48 	1.000002
0.4866667 	1.000002
0.4933333 	1.000002
0.5 	1.000002
0.5066667 	1.000002
0.5133333 	1.000002
0.52 	1.000002
0.5266667 	1.000002
0.5333333 	1.000002
0.54 	1.000002
0.5466667 	1.000002
0.5533333 	1.000002
0.56 	1.000002
0.5666667 	1.000002
0.5733333 	1.000002
0.58 	1.000002
0.5866667 	1.000002
0.5933333 	1.000002
0.6 	1.000002
0.6066667 	1.000002
0.6133333 	1.000002
0.62 	1.000002
0.6266667 	1.000001
0.6333333 	1.000001
0.64 	1.000001
0.6466667 	1.000001
0.6533333 	1.000001
0.66 	1.000001
0.6666667 	1.000001
0.6733333 	1.000001
0.68 	1.000001
0.6866667 	1.000001
0.6933333 	1.000001
0.7 	1.000001
0.7066667 	1.000001
0.7133333 	1.000001
0.72 	1.000001
0.7266667 	1.000001
0.7333333 	1.000001
0.74 	1.000001
0.7466667 	1.000001
0.7533333 	1.000001
0.76 	1.000001
0.7666667 	1.000001
0.7733333 	1.000001
0.78 	1
0.7866667 	0.9999999
0.7933333 	0.9999996
0.8 	0.9999993
0.8066667 	0.9982541
0.8133333 	0.9965089
0.82 	0.9947637
0.8266667 	0.9930185
0.8333333 	0.9912733
0.84 	0.8912739
0.8466667 	0.7912744
0.8533333 	0.691275
0.86 	0.5912755
0.8666667 	0.4912761
0.8733333 	0.3930212
0.88 	0.2947664
0.8866667 	0.1965116
0.8933333 	0.09825675
0.9 	1.921559e-06
0.9066667 	1.537247e-06
0.9133333 	1.152935e-06
0.92 	7.686235e-07
0.9266667 	3.843119e-07
0.9333333 	2.041331e-13
0.94 	1.633065e-13
0.9466667 	1.224799e-13
0.9533333 	8.165325e-14
0.96 	4.082663e-14
0.9666667 	2.138883e-21
0.9733333 	1.547812e-21
0.98 	1.160859e-21
0.9866667 	7.739058e-22
0.9933333 	3.869529e-22
1 	5.885783e-31
1.006667 	4.708626e-31
1.013333 	3.53147e-31
1.02 	2.354313e-31
1.026667 	1.177156e-31
1.033333 	1.482684e-40
1.04 	1.186147e-40
1.046667 	8.896106e-41
1.053333 	5.930737e-41
1.06 	2.965369e-41
1.066667 	1.483264e-48
1.073333 	4.695969e-52
1.08 	3.521977e-52
1.086667 	2.347985e-52
1.093333 	1.173992e-52
1.1 	8.86762e-62
1.106667 	7.094096e-62
1.113333 	5.320572e-62
1.12 	3.547048e-62
1.126667 	1.773524e-62
1.133333 	2.253934e-70
1.14 	1.803147e-70
1.146667 	1.352361e-70
1.153333 	9.015737e-71
1.16 	4.507869e-71
1.166667 	2.40383e-78
1.173333 	1.199203e-79
1.18 	8.994023e-80
1.186667 	5.996016e-80
1.193333 	2.998008e-80
1.2 	2.479761e-88
1.206667 	1.983809e-88
1.213333 	1.487857e-88
1.22 	9.919045e-89
1.226667 	4.959522e-89
1.233333 	3.264959e-97
1.24 	2.611967e-97
1.246667 	1.958975e-97
1.253333 	1.305983e-97
1.26 	6.529918e-98
1.266667 	3.264963e-105
1.273333 	-1.052653e-148
1.28 	-7.894898e-149
1.286667 	-5.263265e-149
1.293333 	-2.631632e-149
1.3 	1.830451e-155
1.306667 	1.464361e-155
1.313333 	1.098271e-155
1.32 	7.321804e-156
1.326667 	3.660902e-156
1.333333 	2.813093e-166
1.34 	2.250475e-166
1.346667 	1.687856e-166
1.353333 	1.125237e-166
1.36 	5.626187e-167
1.366667 	2.813105e-174
1.373333 	9.748306e-189
1.38 	7.311229e-189
1.386667 	4.874153e-189
1.393333 	2.437076e-189
1.4 	5.683888e-202
1.406667 	1.5375e-205
1.413333 	1.153125e-205
1.42 	7.687502e-206
1.426667 	3.843752e-206
1.433333 	1.238003e-212
1.44 	9.904023e-213
1.446667 	7.428017e-213
1.453333 	4.952011e-213
1.46 	2.476006e-213
1.466667 	1.238011e-220
1.473333 	3.334219e-285
1.48 	2.500665e-285
1.486667 	1.66711e-285
1.493333 	8.33555e-286
1.5 	2.270279e-292
1.506667 	1.816221e-292
1.513333 	1.362166e-292
1.52 	9.081105e-293
1.526667 	4.540553e-293
1.533333 	1.317003e-299
1.54 	1.053602e-299
1.546667 	7.902016e-300
1.553333 	5.268011e-300
1.56 	2.634006e-300
1.566667 	5.255227e-307
1.573333 	3.150569e-307
1.58 	2.362927e-307
1.586667 	1.575284e-307
1.593333 	7.876422e-308
1.6 	2.618588e-315
1.606667 	2.094834e-315
1.613333 	1.571126e-315
1.62 	1.047417e-315
1.626667 	5.237086e-316
1.633333 	3.952525e-323
1.64 	3.45846e-323
1.646667 	2.470328e-323
1.653333 	1.976263e-323
1.66 	9.881313e-324
1.666667 	0
1.673333 	0
1.68 	0
1.686667 	0
1.693333 	0
1.7 	0
1.706667 	0
1.713333 	0
1.72 	0
1.726667 	0
1.733333 	0
1.74 	0
1.746667 	0
1.753333 	0
1.76 	0
1.766667 	0
1.773333 	0
1.78 	0
1.786667 	0
1.793333 	0
1.8 	0
1.806667 	0
1.813333 	0
1.82 	0
1.826667 	0
1.833333 	0
1.84 	0
1.846667 	0
1.853333 	0
1.86 	0
1.866667 	0
1.873333 	0
1.88 	0
1.886667 	0
1.893333 	0
1.9 	0
1.906667 	0
1.913333 	0
1.92 	0
1.926667 	0
1.933333 	0
1.94 	0
1.946667 	0
1.953333 	0
1.96 	0
1.966667 	0
1.973333 	0
1.98 	0
1.986667 	0
1.993333 	0
2 	0
