/*--------------------------------*- C++ -*----------------------------------*\
| =========                 |                                                 |
| \\      /  F ield         | OpenFOAM: The Open Source CFD Toolbox           |
|  \\    /   O peration     | Version:  v2006                                 |
|   \\  /    A nd           | Website:  www.openfoam.com                      |
|    \\/     M anipulation  |                                                 |
\*---------------------------------------------------------------------------*/
FoamFile
{
    version     2.0;
    format      ascii;
    class       surfaceScalarField;
    location    "3.9";
    object      alphaPhi0.water;
}
// * * * * * * * * * * * * * * * * * * * * * * * * * * * * * * * * * * * * * //

dimensions      [0 3 -1 0 0 0 0];
oriented        oriented;


internalField   nonuniform List<scalar> 
65390
(
-4.92768e-05
-9.59175e-06
-4.98925e-05
6.05825e-07
-5.10655e-05
1.15774e-06
-5.25343e-05
1.46583e-06
-5.41535e-05
1.61884e-06
-5.5967e-05
1.81356e-06
-5.79317e-05
1.96465e-06
-5.99849e-05
2.05832e-06
-6.21156e-05
2.13844e-06
-6.42869e-05
2.17134e-06
-6.64516e-05
2.16467e-06
-6.85485e-05
2.08526e-06
-7.05387e-05
1.98553e-06
-7.23893e-05
1.85017e-06
-7.41779e-05
1.79251e-06
-7.59868e-05
1.82715e-06
-7.79601e-05
1.97981e-06
-8.00626e-05
2.10255e-06
-8.20952e-05
2.0105e-06
-8.3844e-05
1.73905e-06
-8.52905e-05
1.44633e-06
-8.66549e-05
1.36425e-06
-8.81059e-05
1.45076e-06
-8.96526e-05
1.54718e-06
-9.12441e-05
1.6045e-06
-9.2786e-05
1.58866e-06
-9.4446e-05
1.6606e-06
-9.6124e-05
1.65779e-06
-9.76755e-05
1.5156e-06
-9.88816e-05
1.20592e-06
-9.99652e-05
1.08346e-06
-0.000101109
1.19662e-06
-0.000102456
1.34741e-06
-0.000103781
1.30871e-06
-0.000104906
1.08162e-06
-0.000105684
7.7901e-07
-0.000106377
6.919e-07
-0.000107213
8.59931e-07
-0.000108315
1.14869e-06
-0.000109636
1.3204e-06
-0.0001108
1.10624e-06
-0.000111468
6.50697e-07
-0.000111854
3.86208e-07
-0.000112168
3.25589e-07
-0.000112615
4.54263e-07
-0.000113249
6.52168e-07
-0.000114038
7.50251e-07
-0.000114667
6.28377e-07
-0.000115092
4.25168e-07
-0.000115248
1.5589e-07
-0.000115306
5.83305e-08
-0.000115376
8.12154e-08
-0.000115524
1.521e-07
-0.000115659
1.19891e-07
-0.000115526
-1.33509e-07
-0.000115149
-3.7716e-07
-0.000114794
-3.54954e-07
-0.000114693
-9.1225e-08
-0.000114704
6.74255e-08
-0.000114744
4.03492e-08
-0.000114535
-2.45105e-07
-0.000113894
-6.60169e-07
-0.000113102
-7.91502e-07
-0.000112449
-6.50916e-07
-0.000111869
-5.80002e-07
-0.000111031
-8.46445e-07
-0.000109595
-1.43641e-06
-0.000107554
-2.04128e-06
-0.000105003
-2.54841e-06
-0.000102061
-2.90373e-06
-9.86362e-05
-3.42443e-06
-9.44156e-05
-4.22039e-06
-8.91198e-05
-5.29572e-06
-8.25684e-05
-6.57848e-06
-7.51146e-05
-7.45944e-06
-6.75644e-05
-7.55012e-06
-5.97718e-05
-7.7927e-06
-5.04066e-05
-9.35698e-06
-4.32358e-05
-7.1635e-06
-3.94915e-05
-3.74428e-06
-3.88932e-05
-5.9834e-07
-4.06597e-05
1.76649e-06
-4.15083e-05
8.36307e-07
-4.23808e-05
8.71001e-07
-4.34374e-05
1.0566e-06
-4.30483e-05
-3.8904e-07
-4.24193e-05
-6.29002e-07
-4.19458e-05
-4.68682e-07
-4.18525e-05
-8.42326e-08
-4.16e-05
-2.52456e-07
-4.13695e-05
-2.3377e-07
-4.09268e-05
-4.51316e-07
-3.99893e-05
-9.37567e-07
-3.87805e-05
-1.20245e-06
-3.70682e-05
-1.7126e-06
-3.46648e-05
-2.40596e-06
-3.12315e-05
-3.43728e-06
-2.72071e-05
-4.02444e-06
-2.30506e-05
-4.15648e-06
-2.06665e-05
-2.38191e-06
-2.0084e-05
-5.80717e-07
-2.0205e-05
1.21023e-07
-2.0802e-05
5.96952e-07
-2.12713e-05
4.68384e-07
-2.19848e-05
7.12646e-07
-2.23931e-05
4.07573e-07
-2.24463e-05
5.22084e-08
-2.24922e-05
4.58988e-08
-2.26202e-05
1.28075e-07
-2.27877e-05
1.69933e-07
-2.28741e-05
9.199e-08
-2.29556e-05
7.26862e-08
-2.2849e-05
-1.06711e-07
-2.2475e-05
-3.74027e-07
-2.17046e-05
-7.70399e-07
-2.05095e-05
-1.19484e-06
-1.87933e-05
-1.71457e-06
-1.76442e-05
-1.14916e-06
-1.74298e-05
-2.15966e-07
-1.75739e-05
1.44124e-07
-1.78825e-05
3.08592e-07
-1.80955e-05
2.13014e-07
-1.85095e-05
4.14551e-07
-1.88278e-05
3.19918e-07
-1.89713e-05
1.435e-07
-1.91437e-05
1.71167e-07
-1.92972e-05
1.53498e-07
-1.9429e-05
1.32031e-07
-1.95785e-05
1.48599e-07
-1.96957e-05
1.17123e-07
-1.97721e-05
7.64699e-08
-1.98385e-05
6.63519e-08
-1.9888e-05
5.02718e-08
-1.99188e-05
3.25192e-08
-1.99418e-05
2.1112e-08
-1.99521e-05
1.03135e-08
-1.99511e-05
-1.02833e-09
-1.99346e-05
-1.65924e-08
-1.99059e-05
-2.88884e-08
-1.98624e-05
-4.35172e-08
-1.98064e-05
-5.57737e-08
-1.97355e-05
-6.93491e-08
-1.96482e-05
-8.87757e-08
-1.9538e-05
-1.10212e-07
-1.94149e-05
-1.23137e-07
-1.92781e-05
-1.3641e-07
-1.9123e-05
-1.5357e-07
-1.89516e-05
-1.7352e-07
-1.87549e-05
-1.96812e-07
-1.85417e-05
-2.13211e-07
-1.83156e-05
-2.25809e-07
-1.80743e-05
-2.39504e-07
-1.78181e-05
-2.58828e-07
-1.7534e-05
-2.84196e-07
-1.72277e-05
-3.06403e-07
-1.6905e-05
-3.22814e-07
-1.65703e-05
-3.34374e-07
-1.62207e-05
-3.50197e-07
-1.58448e-05
-3.75974e-07
-1.54462e-05
-3.98667e-07
-1.50293e-05
-4.16694e-07
-1.46026e-05
-4.26702e-07
-1.41587e-05
-4.44668e-07
-1.36883e-05
-4.704e-07
-1.31975e-05
-4.90818e-07
-1.26945e-05
-5.02431e-07
-1.21829e-05
-5.1174e-07
-1.16488e-05
-5.3431e-07
-1.10918e-05
-5.56822e-07
-1.05218e-05
-5.69864e-07
-9.94666e-06
-5.74731e-07
-9.36245e-06
-5.84113e-07
-8.75848e-06
-6.04002e-07
-8.13801e-06
-6.20281e-07
-7.51227e-06
-6.25508e-07
-6.88681e-06
-6.25032e-07
-6.25706e-06
-6.29277e-07
-5.62043e-06
-6.3661e-07
-4.97759e-06
-6.42742e-07
-4.33418e-06
-6.43265e-07
-3.69721e-06
-6.36238e-07
-3.06785e-06
-6.29112e-07
-2.44264e-06
-6.2497e-07
-1.82132e-06
-6.21117e-07
-1.21099e-06
-6.10043e-07
-6.21361e-07
-5.8929e-07
-4.56837e-08
-5.75366e-07
5.23893e-07
-5.69291e-07
1.08096e-06
-5.56861e-07
1.61856e-06
-5.37362e-07
2.13961e-06
-5.20888e-07
2.64688e-06
-5.07092e-07
3.14129e-06
-4.93959e-07
3.62323e-06
-4.81896e-07
4.09062e-06
-4.67324e-07
4.54529e-06
-4.54881e-07
4.9888e-06
-4.43494e-07
5.41772e-06
-4.2895e-07
5.83241e-06
-4.14253e-07
6.23435e-06
-4.01846e-07
6.62691e-06
-3.92603e-07
7.00983e-06
-3.8297e-07
7.37909e-06
-3.69307e-07
7.7316e-06
-3.53014e-07
8.07058e-06
-3.38929e-07
8.39816e-06
-3.27385e-07
8.71603e-06
-3.17601e-07
9.02363e-06
-3.07594e-07
9.31765e-06
-2.94029e-07
9.59669e-06
-2.79213e-07
9.86364e-06
-2.66811e-07
1.01205e-05
-2.56787e-07
1.03659e-05
-2.45299e-07
1.05956e-05
-2.30452e-07
1.08137e-05
-2.17294e-07
1.10206e-05
-2.06478e-07
1.12163e-05
-1.9576e-07
1.14022e-05
-1.8583e-07
1.15756e-05
-1.73704e-07
1.17332e-05
-1.58045e-07
1.18781e-05
-1.44882e-07
1.20139e-05
-1.34884e-07
1.21397e-05
-1.25806e-07
1.22558e-05
-1.16129e-07
1.23596e-05
-1.04177e-07
1.24486e-05
-9.02298e-08
1.25292e-05
-7.93816e-08
1.25993e-05
-6.97642e-08
1.26587e-05
-5.94429e-08
1.2709e-05
-5.02502e-08
1.27501e-05
-4.1511e-08
1.27794e-05
-2.95553e-08
1.27985e-05
-1.90954e-08
1.28097e-05
-1.05605e-08
1.2812e-05
-2.33633e-09
1.28068e-05
5.16813e-09
1.27928e-05
1.3701e-08
1.27698e-05
2.29812e-08
1.27387e-05
3.11445e-08
1.27011e-05
3.79155e-08
1.26563e-05
4.47132e-08
1.26041e-05
5.21849e-08
1.25453e-05
5.85727e-08
1.24807e-05
6.47006e-08
1.24102e-05
7.03868e-08
1.23357e-05
7.44797e-08
1.22546e-05
8.07934e-08
1.21673e-05
8.74129e-08
1.20762e-05
9.1145e-08
1.19822e-05
9.38784e-08
1.18842e-05
9.7954e-08
1.17814e-05
1.02688e-07
1.16747e-05
1.06657e-07
1.15662e-05
1.08455e-07
1.14544e-05
1.1183e-07
1.13395e-05
1.1491e-07
1.12226e-05
1.16971e-07
1.11043e-05
1.18274e-07
1.09837e-05
1.20538e-07
1.08607e-05
1.22995e-07
1.07362e-05
1.24522e-07
1.06117e-05
1.24761e-07
1.04866e-05
1.25088e-07
1.036e-05
1.26617e-07
1.02316e-05
1.28408e-07
1.01021e-05
1.29479e-07
9.97174e-06
1.30394e-07
9.84225e-06
1.29618e-07
9.71374e-06
1.28573e-07
9.58513e-06
1.28602e-07
9.45595e-06
1.29189e-07
9.32541e-06
1.3047e-07
9.19463e-06
1.30938e-07
9.06437e-06
1.30333e-07
8.93496e-06
1.2941e-07
8.80629e-06
1.28672e-07
8.67766e-06
1.28656e-07
8.54887e-06
1.28832e-07
8.42035e-06
1.28515e-07
8.29322e-06
1.27138e-07
8.16581e-06
1.2742e-07
8.03754e-06
1.28349e-07
7.91013e-06
1.27486e-07
7.78408e-06
1.26046e-07
7.65926e-06
1.24818e-07
7.53479e-06
1.24484e-07
7.41038e-06
1.24417e-07
7.28542e-06
1.24985e-07
7.16093e-06
1.24532e-07
7.03706e-06
1.23906e-07
6.91462e-06
1.22471e-07
6.79336e-06
1.21254e-07
6.67201e-06
1.21336e-07
6.55008e-06
1.21929e-07
6.4288e-06
1.21346e-07
6.30805e-06
1.20779e-07
6.1881e-06
1.19938e-07
6.06903e-06
1.19082e-07
5.9502e-06
1.18827e-07
5.83151e-06
1.18711e-07
5.71318e-06
1.18333e-07
5.59551e-06
1.17677e-07
5.47911e-06
1.16401e-07
5.36292e-06
1.16187e-07
5.24702e-06
1.15889e-07
5.13174e-06
1.15309e-07
5.01771e-06
1.1404e-07
4.90512e-06
1.12579e-07
4.79231e-06
1.12801e-07
4.68007e-06
1.12234e-07
4.5687e-06
1.11384e-07
4.45871e-06
1.09991e-07
4.34994e-06
1.08756e-07
4.24192e-06
1.08018e-07
4.1347e-06
1.07201e-07
4.02855e-06
1.06154e-07
3.92394e-06
1.04602e-07
3.82059e-06
1.03323e-07
3.71803e-06
1.02541e-07
3.61659e-06
1.0144e-07
3.51646e-06
1.00125e-07
3.41824e-06
9.82129e-08
3.32164e-06
9.65844e-08
3.22558e-06
9.60364e-08
3.13088e-06
9.47002e-08
3.03808e-06
9.27924e-08
2.94739e-06
9.06742e-08
2.85775e-06
8.96255e-08
2.7692e-06
8.85328e-08
2.68224e-06
8.69525e-08
2.59682e-06
8.54071e-08
2.51324e-06
8.35776e-08
2.43149e-06
8.17369e-08
2.35139e-06
8.00842e-08
2.2729e-06
7.84858e-08
2.19593e-06
7.69602e-08
2.12047e-06
7.5455e-08
2.0466e-06
7.38598e-08
1.97455e-06
7.20447e-08
1.90428e-06
7.02581e-08
1.83522e-06
6.90571e-08
1.76742e-06
6.77972e-08
1.70109e-06
6.63195e-08
1.63631e-06
6.47811e-08
1.57328e-06
6.30289e-08
1.5119e-06
6.1373e-08
1.4517e-06
6.01959e-08
1.39271e-06
5.89801e-08
1.33503e-06
5.76825e-08
1.27909e-06
5.59447e-08
1.22461e-06
5.44785e-08
1.17101e-06
5.35949e-08
1.11857e-06
5.24334e-08
1.0674e-06
5.11695e-08
1.01764e-06
4.97595e-08
9.69087e-07
4.85493e-08
9.21383e-07
4.77031e-08
8.74777e-07
4.6605e-08
8.29428e-07
4.53485e-08
7.85276e-07
4.41488e-08
7.42004e-07
4.32701e-08
6.99623e-07
4.23796e-08
6.58235e-07
4.13857e-08
6.17789e-07
4.04436e-08
5.78461e-07
3.93254e-08
5.40033e-07
3.84243e-08
5.02295e-07
3.77356e-08
4.65377e-07
3.69148e-08
4.29273e-07
3.61e-08
3.94037e-07
3.5234e-08
3.59791e-07
3.42423e-08
3.26355e-07
3.34335e-08
2.93635e-07
3.27174e-08
2.61645e-07
3.19863e-08
2.30497e-07
3.11455e-08
2.00079e-07
3.04143e-08
1.70237e-07
2.98387e-08
1.41022e-07
2.9212e-08
1.12427e-07
2.85914e-08
8.45306e-08
2.78934e-08
5.74303e-08
2.70974e-08
3.09965e-08
2.6431e-08
5.10153e-09
2.58923e-08
-2.02897e-08
2.53884e-08
-4.51801e-08
2.48875e-08
-6.94876e-08
2.43043e-08
-9.32326e-08
2.37417e-08
-1.16374e-07
2.31382e-08
-1.38953e-07
2.2576e-08
-1.61136e-07
2.21802e-08
-1.82785e-07
2.1647e-08
-2.03721e-07
2.09334e-08
-2.24078e-07
2.03552e-08
-2.44189e-07
2.01086e-08
-2.63731e-07
1.954e-08
-2.82704e-07
1.89722e-08
-3.01308e-07
1.8602e-08
-3.19465e-07
1.81559e-08
-3.37085e-07
1.76185e-08
-3.54152e-07
1.70659e-08
-3.70739e-07
1.65859e-08
-3.86829e-07
1.6089e-08
-4.02557e-07
1.57277e-08
-4.17905e-07
1.53479e-08
-4.32964e-07
1.50584e-08
-4.47561e-07
1.45971e-08
-4.61965e-07
1.44025e-08
-4.75762e-07
1.37964e-08
-4.89375e-07
1.36137e-08
-5.02622e-07
1.32469e-08
-5.15541e-07
1.29187e-08
-5.28004e-07
1.24624e-08
-5.39873e-07
1.18685e-08
-5.5169e-07
1.18169e-08
-5.62793e-07
1.11013e-08
-5.73121e-07
1.03269e-08
-5.83152e-07
1.00303e-08
-5.91591e-07
8.43706e-09
-5.9953e-07
7.93745e-09
-6.09619e-07
1.00878e-08
-6.17918e-07
8.29834e-09
-6.25627e-07
7.70738e-09
-6.34091e-07
8.46261e-09
-6.31055e-07
-3.03733e-09
-6.28879e-07
-2.17725e-09
-6.42676e-07
1.37956e-08
-6.45205e-07
2.5279e-09
-6.6401e-07
1.88035e-08
-7.00564e-07
3.65528e-08
-7.70541e-07
6.99758e-08
-8.40036e-07
6.94946e-08
-8.759e-07
3.58631e-08
-9.0867e-07
3.27691e-08
-9.29254e-07
2.05834e-08
-9.46869e-07
1.76154e-08
-9.60196e-07
1.33266e-08
-9.72907e-07
1.2711e-08
-9.83317e-07
1.04109e-08
-9.92485e-07
9.16743e-09
-9.98788e-07
6.30289e-09
-1.00517e-06
6.38049e-09
-1.0034e-06
-1.76668e-09
-1.00162e-06
-1.77957e-09
-1.00859e-06
6.96234e-09
-1.00861e-06
1.87515e-11
-1.01698e-06
8.36841e-09
-1.03559e-06
1.86162e-08
-1.07167e-06
3.60747e-08
-1.10706e-06
3.53925e-08
-1.12323e-06
1.61707e-08
-1.13749e-06
1.42556e-08
-1.14602e-06
8.53014e-09
-1.15171e-06
5.69401e-09
-1.15699e-06
5.28455e-09
-1.15909e-06
2.09917e-09
-1.16067e-06
1.58402e-09
-1.15683e-06
-3.84158e-09
-1.15151e-06
-5.31925e-09
-1.15041e-06
-1.09825e-09
-1.14553e-06
-4.88189e-09
-1.14229e-06
-3.23648e-09
-1.14178e-06
-5.10433e-10
-1.10399e-06
-3.77937e-08
-1.06881e-06
-3.51797e-08
-1.07411e-06
5.30708e-09
-1.04752e-06
-2.65852e-08
-1.11521e-06
6.76965e-08
-1.21608e-06
1.00873e-07
-1.52341e-06
3.07317e-07
-1.83693e-06
3.13546e-07
-2.0451e-06
2.08149e-07
-2.19306e-06
1.47955e-07
-2.29721e-06
1.04133e-07
-2.37449e-06
7.72677e-08
-2.43378e-06
5.92726e-08
-2.48086e-06
4.70698e-08
-2.51926e-06
3.83914e-08
-2.55123e-06
3.19611e-08
-2.57829e-06
2.70571e-08
-2.6015e-06
2.32025e-08
-2.62151e-06
2.00064e-08
-2.63881e-06
1.72858e-08
-2.65381e-06
1.49938e-08
-2.66692e-06
1.30985e-08
-2.67842e-06
1.14937e-08
-2.68847e-06
1.00469e-08
-2.69716e-06
8.68458e-09
-2.70455e-06
7.38233e-09
-2.71075e-06
6.19566e-09
-2.7159e-06
5.1403e-09
-2.72014e-06
4.23561e-09
-2.72355e-06
3.40213e-09
-2.72619e-06
2.64459e-09
-2.72812e-06
1.92711e-09
-2.72928e-06
1.15103e-09
-2.72971e-06
4.31047e-10
-2.7295e-06
-2.11183e-10
-2.72859e-06
-9.06207e-10
-2.72698e-06
-1.61607e-09
-2.72464e-06
-2.33876e-09
-2.72155e-06
-3.08375e-09
-2.71772e-06
-3.82859e-09
-2.71318e-06
-4.53827e-09
-2.708e-06
-5.18263e-09
-2.70226e-06
-5.74191e-09
-2.69605e-06
-6.20828e-09
-2.68959e-06
-6.4626e-09
-2.68273e-06
-6.8573e-09
-2.67557e-06
-7.15999e-09
-2.6682e-06
-7.366e-09
-2.66069e-06
-7.51613e-09
-2.65308e-06
-7.61124e-09
-2.64541e-06
-7.66464e-09
-2.6377e-06
-7.7137e-09
-2.62989e-06
-7.80351e-09
-2.62193e-06
-7.96704e-09
-2.61372e-06
-8.21074e-09
-2.60519e-06
-8.52187e-09
-2.59631e-06
-8.88224e-09
-2.58704e-06
-9.26993e-09
-2.5774e-06
-9.63645e-09
-2.56751e-06
-9.89248e-09
-2.55756e-06
-9.9486e-09
-2.54775e-06
-9.81385e-09
-2.53808e-06
-9.67067e-09
-2.52834e-06
-9.73918e-09
-2.5182e-06
-1.01362e-08
-2.50755e-06
-1.06491e-08
-2.49677e-06
-1.07791e-08
-2.48639e-06
-1.03781e-08
-2.47653e-06
-9.85432e-09
-2.46705e-06
-9.48156e-09
-2.45709e-06
-9.953e-09
-2.44643e-06
-1.06622e-08
-2.43566e-06
-1.0762e-08
-2.42542e-06
-1.02433e-08
-2.41559e-06
-9.82222e-09
-2.40517e-06
-1.04234e-08
-2.39378e-06
-1.13914e-08
-2.38223e-06
-1.15454e-08
-2.37112e-06
-1.11122e-08
-2.35989e-06
-1.12257e-08
-2.34774e-06
-1.21494e-08
-2.33548e-06
-1.22524e-08
-2.32408e-06
-1.14039e-08
-2.31326e-06
-1.08205e-08
-2.30231e-06
-1.09484e-08
-2.29172e-06
-1.05818e-08
-2.2817e-06
-1.00208e-08
-5.41889e-09
-4.84155e-05
-2.01165e-05
-4.90175e-05
1.20846e-06
-5.02267e-05
2.36728e-06
-5.18953e-05
3.13462e-06
-5.38815e-05
3.6053e-06
-5.6028e-05
3.96089e-06
-5.8261e-05
4.19852e-06
-6.04967e-05
4.29513e-06
-6.27135e-05
4.35683e-06
-6.48878e-05
4.34682e-06
-6.70157e-05
4.29356e-06
-6.90877e-05
4.15826e-06
-7.11185e-05
4.01707e-06
-7.31042e-05
3.8365e-06
-7.50562e-05
3.74553e-06
-7.69507e-05
3.73469e-06
-7.87968e-05
3.8449e-06
-8.05958e-05
3.90157e-06
-8.23313e-05
3.73419e-06
-8.40142e-05
3.40043e-06
-8.56635e-05
3.09455e-06
-8.73134e-05
3.01418e-06
-8.89476e-05
3.09426e-06
-9.04797e-05
3.12975e-06
-9.19238e-05
3.04803e-06
-9.32699e-05
2.93533e-06
-9.46303e-05
3.02038e-06
-9.61414e-05
3.13039e-06
-9.77571e-05
3.11694e-06
-9.93361e-05
2.79207e-06
-0.000100653
2.44264e-06
-0.000101719
2.2626e-06
-0.000102673
2.30154e-06
-0.000103697
2.3003e-06
-0.000104798
2.15768e-06
-0.000105886
1.86575e-06
-0.000106816
1.64944e-06
-0.000107613
1.70721e-06
-0.000108442
1.97693e-06
-0.000109283
2.16212e-06
-0.000110237
1.99529e-06
-0.000111082
1.47675e-06
-0.000111671
9.73761e-07
-0.00011215
8.11819e-07
-0.000112635
9.67178e-07
-0.000113176
1.2145e-06
-0.000113799
1.37367e-06
-0.000114467
1.26269e-06
-0.000115015
9.52834e-07
-0.000115359
4.996e-07
-0.000115577
2.8011e-07
-0.000115737
2.84948e-07
-0.000115904
3.16111e-07
-0.000116031
2.22968e-07
-0.000115993
-1.91843e-07
-0.000115789
-5.50823e-07
-0.000115531
-5.67711e-07
-0.000115337
-2.84811e-07
-0.000115219
-5.05732e-08
-0.000114985
-1.93221e-07
-0.000114481
-8.04155e-07
-0.000113867
-1.28031e-06
-0.000113307
-1.32367e-06
-0.00011289
-1.04464e-06
-0.00011246
-1.00938e-06
-0.000111755
-1.59822e-06
-0.000110652
-2.5509e-06
-0.000109337
-3.35612e-06
-0.00010792
-3.95472e-06
-0.000106417
-4.37583e-06
-0.000104881
-4.9602e-06
-0.00010329
-5.81081e-06
-0.000101585
-7.00777e-06
-9.96314e-05
-8.56408e-06
-9.69727e-05
-1.01181e-05
-9.29912e-05
-1.15317e-05
-8.72652e-05
-1.35186e-05
-8.23391e-05
-1.42741e-05
-7.63683e-05
-1.31248e-05
-6.97775e-05
-1.03351e-05
-5.89693e-05
-1.14128e-05
-4.86405e-05
-8.56275e-06
-4.31598e-05
-4.63335e-06
-4.11452e-05
-1.15839e-06
-4.1266e-05
1.17481e-06
-4.13785e-05
-2.76602e-07
-4.17586e-05
-2.44156e-07
-4.24699e-05
2.5138e-07
-4.31873e-05
6.3317e-07
-4.26911e-05
-7.48686e-07
-4.19676e-05
-9.5988e-07
-4.1566e-05
-8.62992e-07
-4.11451e-05
-1.35853e-06
-4.0829e-05
-1.51551e-06
-4.04922e-05
-2.04588e-06
-3.99764e-05
-2.92418e-06
-3.96686e-05
-3.74973e-06
-3.91968e-05
-4.49683e-06
-3.81313e-05
-5.22198e-06
-3.53296e-05
-5.18119e-06
-3.12863e-05
-4.62144e-06
-2.67692e-05
-4.39609e-06
-2.3684e-05
-2.48831e-06
-2.23894e-05
-8.2614e-07
-2.16569e-05
-2.28817e-08
-2.16061e-05
3.5631e-07
-2.17644e-05
2.10966e-07
-2.21824e-05
4.65826e-07
-2.28628e-05
8.11184e-07
-2.32505e-05
5.57577e-07
-2.32138e-05
5.53294e-08
-2.32035e-05
6.23025e-08
-2.32313e-05
-8.55154e-08
-2.32586e-05
-3.46737e-07
-2.33816e-05
-6.47489e-07
-2.34903e-05
-1.08486e-06
-2.36829e-05
-1.52074e-06
-2.32971e-05
-1.5349e-06
-2.21266e-05
-1.38862e-06
-2.03787e-05
-1.60373e-06
-1.90224e-05
-1.0459e-06
-1.85982e-05
-2.09328e-07
-1.84714e-05
2.87741e-07
-1.85906e-05
4.39096e-07
-1.87807e-05
3.33543e-07
-1.91598e-05
5.4736e-07
-1.94286e-05
4.22344e-07
-1.95063e-05
2.11393e-07
-1.95963e-05
2.38642e-07
-1.96876e-05
2.07118e-07
-1.97691e-05
1.56769e-07
-1.98594e-05
1.59506e-07
-1.99223e-05
1.13166e-07
-1.99443e-05
5.45246e-08
-1.99541e-05
3.09511e-08
-1.99581e-05
1.14126e-08
-1.9958e-05
-1.17505e-09
-1.99427e-05
-3.18924e-08
-1.99181e-05
-5.34977e-08
-1.98754e-05
-8.37039e-08
-1.98194e-05
-1.11717e-07
-1.97479e-05
-1.40906e-07
-1.9658e-05
-1.80252e-07
-1.95498e-05
-2.18446e-07
-1.94271e-05
-2.43992e-07
-1.92897e-05
-2.73881e-07
-1.91308e-05
-3.12299e-07
-1.89547e-05
-3.52591e-07
-1.87596e-05
-3.91942e-07
-1.85496e-05
-4.22359e-07
-1.83226e-05
-4.50681e-07
-1.80779e-05
-4.84207e-07
-1.78104e-05
-5.26193e-07
-1.75266e-05
-5.71899e-07
-1.72221e-05
-6.10996e-07
-1.69036e-05
-6.41396e-07
-1.65668e-05
-6.69385e-07
-1.62102e-05
-7.07106e-07
-1.58313e-05
-7.55689e-07
-1.54332e-05
-7.9763e-07
-1.50177e-05
-8.32048e-07
-1.45869e-05
-8.56565e-07
-1.41407e-05
-8.92184e-07
-1.36729e-05
-9.38532e-07
-1.31849e-05
-9.78717e-07
-1.26818e-05
-1.00444e-06
-1.21665e-05
-1.02679e-06
-1.16342e-05
-1.06731e-06
-1.10812e-05
-1.10983e-06
-1.05146e-05
-1.13579e-06
-9.93967e-06
-1.14847e-06
-9.35351e-06
-1.17035e-06
-8.75223e-06
-1.20562e-06
-8.13854e-06
-1.23392e-06
-7.51969e-06
-1.24356e-06
-6.89566e-06
-1.24836e-06
-6.26471e-06
-1.26e-06
-5.62997e-06
-1.27113e-06
-4.99503e-06
-1.27765e-06
-4.36153e-06
-1.27634e-06
-3.7293e-06
-1.26786e-06
-3.09694e-06
-1.26122e-06
-2.47102e-06
-1.25065e-06
-1.85484e-06
-1.23701e-06
-1.25167e-06
-1.21286e-06
-6.61095e-07
-1.1794e-06
-8.26085e-08
-1.15354e-06
4.85636e-07
-1.13717e-06
1.04232e-06
-1.11327e-06
1.58486e-06
-1.0797e-06
2.11294e-06
-1.0488e-06
2.62669e-06
-1.02067e-06
3.12269e-06
-9.89677e-07
3.60317e-06
-9.62147e-07
4.0712e-06
-9.35368e-07
4.52947e-06
-9.1314e-07
4.97721e-06
-8.91211e-07
5.41127e-06
-8.6316e-07
5.82906e-06
-8.31891e-07
6.23237e-06
-8.04987e-07
6.62581e-06
-7.85651e-07
7.00864e-06
-7.65802e-07
7.3781e-06
-7.38914e-07
7.73228e-06
-7.07533e-07
8.07455e-06
-6.81104e-07
8.40594e-06
-6.58722e-07
8.72585e-06
-6.37125e-07
9.0333e-06
-6.1461e-07
9.32616e-06
-5.87119e-07
9.6062e-06
-5.59523e-07
9.87519e-06
-5.35857e-07
1.01335e-05
-5.14581e-07
1.03781e-05
-4.89939e-07
1.06086e-05
-4.61635e-07
1.08278e-05
-4.36289e-07
1.10358e-05
-4.14211e-07
1.12324e-05
-3.92104e-07
1.14176e-05
-3.70455e-07
1.15901e-05
-3.46592e-07
1.17493e-05
-3.1793e-07
1.1896e-05
-2.91565e-07
1.20316e-05
-2.70423e-07
1.21577e-05
-2.51279e-07
1.22722e-05
-2.30482e-07
1.2375e-05
-2.07162e-07
1.24661e-05
-1.81592e-07
1.25465e-05
-1.59731e-07
1.26164e-05
-1.3957e-07
1.26757e-05
-1.18673e-07
1.27254e-05
-9.94814e-08
1.27653e-05
-8.1265e-08
1.27946e-05
-5.92613e-08
1.28145e-05
-3.89041e-08
1.28248e-05
-2.07953e-08
1.28264e-05
-3.92976e-09
1.28208e-05
1.1366e-08
1.28066e-05
2.78075e-08
1.27838e-05
4.55747e-08
1.27525e-05
6.2417e-08
1.27132e-05
7.75499e-08
1.26666e-05
9.10313e-08
1.26136e-05
1.04816e-07
1.25552e-05
1.16959e-07
1.24904e-05
1.29506e-07
1.24195e-05
1.41393e-07
1.23435e-05
1.50367e-07
1.22622e-05
1.61914e-07
1.21746e-05
1.74671e-07
1.20828e-05
1.83075e-07
1.19878e-05
1.88979e-07
1.18886e-05
1.96745e-07
1.17857e-05
2.05534e-07
1.16786e-05
2.13665e-07
1.15687e-05
2.1839e-07
1.14569e-05
2.23627e-07
1.13425e-05
2.29223e-07
1.12255e-05
2.34024e-07
1.11063e-05
2.3776e-07
1.09839e-05
2.42976e-07
1.08601e-05
2.46732e-07
1.07364e-05
2.4826e-07
1.06117e-05
2.49493e-07
1.04859e-05
2.51132e-07
1.03585e-05
2.54073e-07
1.02295e-05
2.572e-07
1.00999e-05
2.59171e-07
9.97004e-06
2.60339e-07
9.84079e-06
2.59194e-07
9.71167e-06
2.57853e-07
9.58214e-06
2.58148e-07
9.45202e-06
2.59306e-07
9.32155e-06
2.60819e-07
9.1913e-06
2.61298e-07
9.06142e-06
2.60328e-07
8.93162e-06
2.59346e-07
8.80194e-06
2.58351e-07
8.67274e-06
2.57856e-07
8.54433e-06
2.57253e-07
8.41617e-06
2.56679e-07
8.28856e-06
2.54803e-07
8.16106e-06
2.54924e-07
8.03303e-06
2.5641e-07
7.90592e-06
2.54632e-07
7.7802e-06
2.5194e-07
7.65486e-06
2.50233e-07
7.52962e-06
2.4972e-07
7.40484e-06
2.49183e-07
7.28009e-06
2.49703e-07
7.15611e-06
2.4853e-07
7.0328e-06
2.47231e-07
6.91013e-06
2.45302e-07
6.78793e-06
2.43454e-07
6.66603e-06
2.4324e-07
6.54425e-06
2.43699e-07
6.42342e-06
2.4219e-07
6.30313e-06
2.4108e-07
6.18301e-06
2.40136e-07
6.06319e-06
2.38899e-07
5.94411e-06
2.3791e-07
5.82565e-06
2.37131e-07
5.70776e-06
2.36213e-07
5.59041e-06
2.35035e-07
5.47351e-06
2.33322e-07
5.357e-06
2.32687e-07
5.24156e-06
2.31329e-07
5.12684e-06
2.30032e-07
5.01268e-06
2.2823e-07
4.89944e-06
2.25811e-07
4.78647e-06
2.25737e-07
4.67461e-06
2.24102e-07
4.56368e-06
2.22307e-07
4.45363e-06
2.20031e-07
4.34439e-06
2.17997e-07
4.2363e-06
2.16069e-07
4.12934e-06
2.14149e-07
4.02343e-06
2.12041e-07
3.91862e-06
2.09392e-07
3.81485e-06
2.07081e-07
3.71237e-06
2.04969e-07
3.61131e-06
2.0248e-07
3.51156e-06
1.9986e-07
3.41316e-06
1.96597e-07
3.316e-06
1.9372e-07
3.21995e-06
1.92052e-07
3.12574e-06
1.88886e-07
3.03312e-06
1.85393e-07
2.94195e-06
1.81827e-07
2.85219e-06
1.79346e-07
2.76388e-06
1.76813e-07
2.67718e-06
1.73637e-07
2.59218e-06
1.70396e-07
2.50878e-06
1.66961e-07
2.42694e-06
1.63552e-07
2.34676e-06
1.60242e-07
2.26826e-06
1.56966e-07
2.19137e-06
1.53831e-07
2.11604e-06
1.50775e-07
2.04229e-06
1.47589e-07
1.97013e-06
1.442e-07
1.89952e-06
1.40848e-07
1.83051e-06
1.38051e-07
1.76298e-06
1.35319e-07
1.69686e-06
1.3243e-07
1.63234e-06
1.293e-07
1.56935e-06
1.26011e-07
1.50779e-06
1.22919e-07
1.44759e-06
1.20384e-07
1.38882e-06
1.17747e-07
1.33144e-06
1.1506e-07
1.27541e-06
1.11974e-07
1.22065e-06
1.09234e-07
1.16709e-06
1.07143e-07
1.11488e-06
1.04647e-07
1.06388e-06
1.0216e-07
1.01406e-06
9.95727e-08
9.65431e-07
9.71762e-08
9.17952e-07
9.5178e-08
8.71648e-07
9.29035e-08
8.2632e-07
9.06729e-08
7.81889e-07
8.85753e-08
7.38482e-07
8.667e-08
6.96313e-07
8.45433e-08
6.55142e-07
8.2552e-08
6.14808e-07
8.07722e-08
5.75444e-07
7.86841e-08
5.36889e-07
7.69736e-08
4.99189e-07
7.5428e-08
4.62479e-07
7.36199e-08
4.26578e-07
7.19961e-08
3.91488e-07
7.032e-08
3.57252e-07
6.84725e-08
3.23814e-07
6.68667e-08
2.91153e-07
6.53725e-08
2.59179e-07
6.39557e-08
2.27939e-07
6.23801e-08
1.97398e-07
6.09503e-08
1.67571e-07
5.96601e-08
1.38524e-07
5.8254e-08
1.10102e-07
5.7008e-08
8.22721e-08
5.57179e-08
5.50811e-08
5.42833e-08
2.85271e-08
5.298e-08
2.57977e-09
5.18348e-08
-2.28316e-08
5.07952e-08
-4.77335e-08
4.9785e-08
-7.19564e-08
4.85233e-08
-9.56175e-08
4.73992e-08
-1.18754e-07
4.62716e-08
-1.41342e-07
4.51604e-08
-1.63384e-07
4.42198e-08
-1.84906e-07
4.31659e-08
-2.0591e-07
4.19346e-08
-2.26472e-07
4.09154e-08
-2.46545e-07
4.01789e-08
-2.66062e-07
3.90553e-08
-2.85036e-07
3.79439e-08
-3.03569e-07
3.71341e-08
-3.21557e-07
3.61421e-08
-3.39177e-07
3.52381e-08
-3.56211e-07
3.40986e-08
-3.72882e-07
3.3256e-08
-3.88961e-07
3.21677e-08
-4.04746e-07
3.15123e-08
-4.19945e-07
3.05465e-08
-4.34925e-07
3.00385e-08
-4.49198e-07
2.88707e-08
-4.63395e-07
2.85994e-08
-4.76918e-07
2.73192e-08
-4.90407e-07
2.71033e-08
-5.04051e-07
2.68912e-08
-5.17181e-07
2.60492e-08
-5.3042e-07
2.57021e-08
-5.42145e-07
2.35919e-08
-5.53826e-07
2.34967e-08
-5.63455e-07
2.07283e-08
-5.73296e-07
2.0167e-08
-5.85324e-07
2.20559e-08
-5.96752e-07
1.98628e-08
-6.06948e-07
1.81322e-08
-6.15794e-07
1.89313e-08
-6.12707e-07
5.2101e-09
-6.11577e-07
6.57586e-09
-6.2836e-07
2.52443e-08
-6.44484e-07
1.30843e-08
-6.76166e-07
2.9503e-08
-7.15089e-07
5.2716e-08
-7.89322e-07
7.67589e-08
-8.56787e-07
8.62666e-08
-8.88635e-07
6.83979e-08
-9.05029e-07
8.63686e-08
-9.08333e-07
7.27976e-08
-9.23231e-07
5.07599e-08
-9.33847e-07
4.33849e-08
-9.48772e-07
3.5508e-08
-9.60858e-07
2.97026e-08
-9.73937e-07
2.64062e-08
-9.84058e-07
2.28318e-08
-9.93085e-07
1.94372e-08
-9.93617e-07
9.69862e-09
-9.94672e-07
7.35743e-09
-1.00564e-06
1.73447e-08
-1.01597e-06
8.56838e-09
-1.034e-06
1.62499e-08
-1.05581e-06
2.87681e-08
-1.09603e-06
4.02362e-08
-1.1326e-06
4.49404e-08
-1.14688e-06
3.28974e-08
-1.15302e-06
4.22128e-08
-1.15088e-06
3.32502e-08
-1.15724e-06
2.25343e-08
-1.15764e-06
1.46518e-08
-1.1618e-06
1.26945e-08
-1.15712e-06
1.01339e-09
-1.15711e-06
5.27552e-09
-1.15768e-06
2.67961e-09
-1.16265e-06
6.54482e-09
-1.1673e-06
8.11732e-10
-1.17239e-06
-2.25122e-10
-1.17456e-06
1.0782e-09
-1.13608e-06
-4.33599e-08
-1.10044e-06
-3.88743e-08
-1.10849e-06
7.53233e-09
-1.11877e-06
-2.7516e-08
-1.21833e-06
6.43761e-08
-1.33762e-06
1.24583e-07
-1.67604e-06
3.11826e-07
-1.99591e-06
3.87542e-07
-2.21289e-06
3.17848e-07
-2.31575e-06
4.10188e-07
-2.31209e-06
3.09957e-07
-2.33381e-06
2.29922e-07
-2.36938e-06
1.83574e-07
-2.41032e-06
1.45106e-07
-2.45082e-06
1.17798e-07
-2.48885e-06
9.73254e-08
-2.52342e-06
8.16493e-08
-2.55409e-06
6.9078e-08
-2.58102e-06
5.89047e-08
-2.60462e-06
5.06759e-08
-2.6253e-06
4.38967e-08
-2.64338e-06
3.80967e-08
-2.65917e-06
3.30865e-08
-2.67297e-06
2.88045e-08
-2.685e-06
2.51353e-08
-2.6954e-06
2.18978e-08
-2.70429e-06
1.89448e-08
-2.71173e-06
1.61394e-08
-2.71802e-06
1.36751e-08
-2.72323e-06
1.14108e-08
-2.72749e-06
9.40772e-09
-2.7309e-06
7.64628e-09
-2.73357e-06
6.06766e-09
-2.73552e-06
4.60413e-09
-2.73677e-06
3.17251e-09
-2.7374e-06
1.78102e-09
-2.73738e-06
4.14917e-10
-2.73662e-06
-9.77995e-10
-2.7352e-06
-2.32687e-09
-2.73316e-06
-3.65813e-09
-2.73051e-06
-4.98759e-09
-2.72728e-06
-6.31919e-09
-2.72348e-06
-7.63015e-09
-2.71915e-06
-8.86377e-09
-2.71434e-06
-9.99234e-09
-2.70906e-06
-1.10241e-08
-2.70332e-06
-1.1944e-08
-2.69692e-06
-1.28671e-08
-2.6903e-06
-1.34749e-08
-2.68343e-06
-1.40209e-08
-2.67629e-06
-1.45078e-08
-2.66893e-06
-1.48782e-08
-2.6614e-06
-1.51365e-08
-2.65372e-06
-1.53355e-08
-2.64588e-06
-1.55515e-08
-2.63784e-06
-1.58495e-08
-2.62955e-06
-1.62529e-08
-2.62101e-06
-1.67443e-08
-2.61223e-06
-1.7299e-08
-2.6032e-06
-1.79116e-08
-2.59389e-06
-1.85769e-08
-2.58429e-06
-1.9231e-08
-2.57446e-06
-1.97207e-08
-2.56453e-06
-1.98807e-08
-2.55461e-06
-1.97331e-08
-2.5447e-06
-1.95813e-08
-2.53463e-06
-1.98031e-08
-2.52432e-06
-2.04431e-08
-2.51392e-06
-2.10484e-08
-2.50361e-06
-2.10904e-08
-2.49355e-06
-2.04308e-08
-2.48382e-06
-1.95812e-08
-2.47348e-06
-1.98185e-08
-2.46265e-06
-2.07862e-08
-2.45182e-06
-2.14914e-08
-2.44139e-06
-2.1181e-08
-2.4313e-06
-2.03294e-08
-2.42069e-06
-2.04364e-08
-2.40934e-06
-2.1769e-08
-2.39809e-06
-2.26409e-08
-2.3873e-06
-2.23285e-08
-2.37652e-06
-2.18909e-08
-2.365e-06
-2.27489e-08
-2.35364e-06
-2.35001e-08
-2.34275e-06
-2.31442e-08
-2.33216e-06
-2.19831e-08
-2.32134e-06
-2.16461e-08
-2.31037e-06
-2.19107e-08
-2.29864e-06
-2.23051e-08
-2.28653e-06
-2.21274e-08
-1.566e-08
-4.47782e-05
-3.4307e-05
-4.64243e-05
2.85381e-06
-4.84655e-05
4.40819e-06
-5.08486e-05
5.5178e-06
-5.33872e-05
6.14396e-06
-5.59505e-05
6.52417e-06
-5.84587e-05
6.70675e-06
-6.08958e-05
6.73218e-06
-6.32457e-05
6.70693e-06
-6.5513e-05
6.61436e-06
-6.77145e-05
6.49509e-06
-6.98629e-05
6.3067e-06
-7.19674e-05
6.12172e-06
-7.40286e-05
5.89783e-06
-7.60365e-05
5.75401e-06
-7.7951e-05
5.65412e-06
-7.97298e-05
5.63055e-06
-8.13981e-05
5.56821e-06
-8.3023e-05
5.35505e-06
-8.46832e-05
5.07233e-06
-8.64064e-05
4.83345e-06
-8.81436e-05
4.75245e-06
-8.97773e-05
4.72694e-06
-9.13037e-05
4.62933e-06
-9.26557e-05
4.39727e-06
-9.39142e-05
4.21722e-06
-9.51122e-05
4.26233e-06
-9.64542e-05
4.47245e-06
-9.79319e-05
4.59464e-06
-9.95194e-05
4.35282e-06
-0.000100973
3.85779e-06
-0.000102075
3.36413e-06
-0.000102902
3.15405e-06
-0.000103785
3.19124e-06
-0.000104834
3.21394e-06
-0.000106018
3.0062e-06
-0.000107116
2.74545e-06
-0.000107988
2.58556e-06
-0.000108618
2.65009e-06
-0.000109202
2.77978e-06
-0.000109931
2.65791e-06
-0.000110732
2.26118e-06
-0.000111582
1.82339e-06
-0.000112365
1.59951e-06
-0.000113033
1.6637e-06
-0.00011357
1.77781e-06
-0.000114014
1.81804e-06
-0.000114464
1.71284e-06
-0.000115042
1.48242e-06
-0.000115626
1.08057e-06
-0.000116062
7.26535e-07
-0.000116323
5.7231e-07
-0.000116462
4.58079e-07
-0.000116533
2.67231e-07
-0.000116554
-1.91694e-07
-0.000116511
-5.64743e-07
-0.000116407
-6.26648e-07
-0.000116145
-5.46658e-07
-0.000115737
-4.57805e-07
-0.000115236
-7.5044e-07
-0.000114612
-1.41472e-06
-0.000114163
-1.69008e-06
-0.000113864
-1.62217e-06
-0.000113481
-1.42748e-06
-0.000112834
-1.65683e-06
-0.000111987
-2.49604e-06
-0.000111113
-3.439e-06
-0.000110365
-4.10377e-06
-0.000109616
-4.69186e-06
-0.000108567
-5.39474e-06
-0.000107407
-6.11927e-06
-0.000106427
-6.79083e-06
-0.000105733
-7.73724e-06
-0.000105224