/*--------------------------------*- C++ -*----------------------------------*\
| =========                 |                                                 |
| \\      /  F ield         | OpenFOAM: The Open Source CFD Toolbox           |
|  \\    /   O peration     | Version:  v2006                                 |
|   \\  /    A nd           | Website:  www.openfoam.com                      |
|    \\/     M anipulation  |                                                 |
\*---------------------------------------------------------------------------*/
FoamFile
{
    version     2.0;
    format      ascii;
    class       volScalarField;
    location    "3.9";
    object      k;
}
// * * * * * * * * * * * * * * * * * * * * * * * * * * * * * * * * * * * * * //

dimensions      [0 2 -2 0 0 0 0];


internalField   nonuniform List<scalar> 
33000
(
5.52389e-08
6.33533e-08
6.66765e-08
6.96503e-08
7.22525e-08
7.44902e-08
7.63815e-08
7.79481e-08
7.92149e-08
8.02107e-08
8.09742e-08
8.15556e-08
8.20133e-08
8.24035e-08
8.27665e-08
8.31161e-08
8.34395e-08
8.37125e-08
8.39232e-08
8.40895e-08
8.42545e-08
8.44644e-08
8.47435e-08
8.50837e-08
8.54517e-08
8.58064e-08
8.61148e-08
8.63591e-08
8.65416e-08
8.66831e-08
8.68109e-08
8.694e-08
8.70633e-08
8.71646e-08
8.72444e-08
8.73298e-08
8.74528e-08
8.76082e-08
8.77316e-08
8.77278e-08
8.75405e-08
8.72052e-08
8.68322e-08
8.65389e-08
8.6375e-08
8.62785e-08
8.6118e-08
8.58031e-08
8.53312e-08
8.47716e-08
8.42395e-08
8.38377e-08
8.35353e-08
8.31906e-08
8.27633e-08
8.24109e-08
8.23975e-08
8.26337e-08
8.27436e-08
8.24398e-08
8.16875e-08
8.07066e-08
7.98178e-08
7.89929e-08
7.78965e-08
7.62404e-08
7.40691e-08
7.16711e-08
6.92745e-08
6.69568e-08
6.46242e-08
6.22908e-08
6.00907e-08
5.82548e-08
5.71183e-08
5.68618e-08
5.73794e-08
5.87759e-08
6.20905e-08
6.48966e-08
6.55081e-08
6.43117e-08
6.2986e-08
6.20244e-08
6.11025e-08
6.00819e-08
5.95199e-08
5.95634e-08
5.97775e-08
5.95797e-08
5.92496e-08
5.84983e-08
5.73484e-08
5.61397e-08
5.4584e-08
5.2659e-08
5.03963e-08
4.83251e-08
4.68387e-08
4.67616e-08
4.67183e-08
4.58594e-08
4.47787e-08
4.40925e-08
4.38938e-08
4.39394e-08
4.38629e-08
4.35378e-08
4.30945e-08
4.26842e-08
4.22771e-08
4.18436e-08
4.12859e-08
4.05419e-08
3.96104e-08
3.86624e-08
3.7964e-08
3.82354e-08
3.8818e-08
3.89293e-08
3.88309e-08
3.87297e-08
3.87207e-08
3.88064e-08
3.89148e-08
3.89966e-08
3.90361e-08
3.90526e-08
3.90682e-08
3.90829e-08
3.90946e-08
3.91066e-08
3.91109e-08
3.90956e-08
3.90672e-08
3.90342e-08
3.90064e-08
3.89786e-08
3.89479e-08
3.89155e-08
3.88911e-08
3.88608e-08
3.88111e-08
3.87514e-08
3.87022e-08
3.86558e-08
3.85993e-08
3.85354e-08
3.84665e-08
3.84031e-08
3.83484e-08
3.82895e-08
3.82174e-08
3.8136e-08
3.80615e-08
3.80001e-08
3.7948e-08
3.78849e-08
3.78082e-08
3.77387e-08
3.76807e-08
3.76351e-08
3.75787e-08
3.75136e-08
3.74589e-08
3.74155e-08
3.73718e-08
3.73111e-08
3.72509e-08
3.72059e-08
3.71681e-08
3.71216e-08
3.70673e-08
3.70216e-08
3.6987e-08
3.69565e-08
3.6919e-08
3.68826e-08
3.68501e-08
3.68248e-08
3.68042e-08
3.67878e-08
3.6803e-08
3.68568e-08
3.6957e-08
3.71001e-08
3.72683e-08
3.74648e-08
3.76847e-08
3.78911e-08
3.80661e-08
3.82095e-08
3.83247e-08
3.84116e-08
3.84694e-08
3.84954e-08
3.84921e-08
3.84848e-08
3.84735e-08
3.8453e-08
3.84239e-08
3.83924e-08
3.83613e-08
3.83257e-08
3.8282e-08
3.82302e-08
3.81713e-08
3.81105e-08
3.80503e-08
3.7986e-08
3.79137e-08
3.78356e-08
3.77557e-08
3.76739e-08
3.75862e-08
3.74924e-08
3.73945e-08
3.7294e-08
3.71921e-08
3.70883e-08
3.69787e-08
3.68629e-08
3.67435e-08
3.66227e-08
3.65004e-08
3.63753e-08
3.6245e-08
3.6111e-08
3.59739e-08
3.58337e-08
3.56917e-08
3.5548e-08
3.54013e-08
3.5251e-08
3.50977e-08
3.49423e-08
3.47855e-08
3.4627e-08
3.44663e-08
3.43042e-08
3.41409e-08
3.39761e-08
3.38096e-08
3.36414e-08
3.34713e-08
3.32996e-08
3.31278e-08
3.29545e-08
3.27794e-08
3.26037e-08
3.24271e-08
3.22496e-08
3.20709e-08
3.18914e-08
3.17116e-08
3.15308e-08
3.13489e-08
3.11661e-08
3.09831e-08
3.07996e-08
3.06146e-08
3.04283e-08
3.0242e-08
3.00558e-08
2.98689e-08
2.96816e-08
2.94938e-08
2.93052e-08
2.91163e-08
2.89273e-08
2.87388e-08
2.85499e-08
2.83605e-08
2.81706e-08
2.79806e-08
2.77909e-08
2.76008e-08
2.74108e-08
2.7221e-08
2.70318e-08
2.68434e-08
2.66546e-08
2.64658e-08
2.62767e-08
2.60885e-08
2.59005e-08
2.57127e-08
2.55249e-08
2.53372e-08
2.51499e-08
2.49631e-08
2.47773e-08
2.45927e-08
2.44089e-08
2.42259e-08
2.40445e-08
2.38642e-08
2.36859e-08
2.35095e-08
2.33343e-08
2.3161e-08
2.29894e-08
2.282e-08
2.26529e-08
2.24875e-08
2.23241e-08
2.2162e-08
2.20028e-08
2.18455e-08
2.16898e-08
2.15358e-08
2.1383e-08
2.12323e-08
2.10841e-08
2.09387e-08
2.07954e-08
2.06548e-08
2.05167e-08
2.0381e-08
2.02469e-08
2.01147e-08
1.99838e-08
1.98552e-08
1.97279e-08
1.96017e-08
1.94766e-08
1.93521e-08
1.92294e-08
1.91099e-08
1.89942e-08
1.88818e-08
1.87725e-08
1.86658e-08
1.85616e-08
1.84594e-08
1.83592e-08
1.82607e-08
1.81636e-08
1.80678e-08
1.79731e-08
1.78794e-08
1.77868e-08
1.76951e-08
1.76039e-08
1.75131e-08
1.74224e-08
1.73321e-08
1.7242e-08
1.7152e-08
1.7062e-08
1.69715e-08
1.68813e-08
1.67913e-08
1.67011e-08
1.66109e-08
1.65205e-08
1.64303e-08
1.63402e-08
1.62499e-08
1.61593e-08
1.60687e-08
1.59783e-08
1.58879e-08
1.57976e-08
1.57075e-08
1.56174e-08
1.55278e-08
1.54388e-08
1.53498e-08
1.52614e-08
1.51729e-08
1.50846e-08
1.49969e-08
1.49096e-08
1.48228e-08
1.47364e-08
1.46507e-08
1.4566e-08
1.4482e-08
1.43988e-08
1.43162e-08
1.4234e-08
1.41528e-08
1.40727e-08
1.39936e-08
1.39153e-08
1.38371e-08
1.37593e-08
1.36815e-08
1.36042e-08
1.35271e-08
1.34503e-08
1.33732e-08
1.3297e-08
1.32216e-08
1.3146e-08
1.30713e-08
1.29971e-08
1.29234e-08
1.28498e-08
1.27768e-08
1.27041e-08
1.26321e-08
1.25606e-08
1.24904e-08
1.24205e-08
1.23518e-08
1.22837e-08
1.22161e-08
1.21498e-08
1.2084e-08
1.20193e-08
1.19548e-08
1.18908e-08
1.18288e-08
1.17644e-08
1.17019e-08
1.16388e-08
1.15728e-08
1.15112e-08
1.14569e-08
1.139e-08
1.13357e-08
1.12715e-08
1.11732e-08
1.11204e-08
1.10942e-08
1.0998e-08
1.10417e-08
1.10225e-08
1.12285e-08
1.11918e-08
1.12458e-08
1.1211e-08
1.12077e-08
1.11669e-08
1.11438e-08
1.11028e-08
1.10712e-08
1.10261e-08
1.09862e-08
1.09405e-08
1.08776e-08
1.08335e-08
1.07998e-08
1.07345e-08
1.0728e-08
1.06927e-08
1.07482e-08
1.07088e-08
1.06981e-08
1.06628e-08
1.0631e-08
1.05946e-08
1.05593e-08
1.05202e-08
1.04806e-08
1.0425e-08
1.03809e-08
1.03509e-08
1.02857e-08
1.02692e-08
1.02113e-08
1.0035e-08
1.00052e-08
1.00339e-08
9.85643e-09
1.0285e-08
1.03684e-08
1.18841e-08
1.19669e-08
1.24881e-08
1.27116e-08
1.29026e-08
1.30355e-08
1.31328e-08
1.31968e-08
1.32365e-08
1.32617e-08
1.32768e-08
1.32842e-08
1.32854e-08
1.32817e-08
1.3274e-08
1.32631e-08
1.32496e-08
1.32337e-08
1.32153e-08
1.31948e-08
1.31725e-08
1.31486e-08
1.31234e-08
1.30971e-08
1.30699e-08
1.30418e-08
1.30127e-08
1.29828e-08
1.29518e-08
1.29197e-08
1.28864e-08
1.28519e-08
1.2816e-08
1.27786e-08
1.274e-08
1.27004e-08
1.266e-08
1.26192e-08
1.25782e-08
1.2537e-08
1.24958e-08
1.24548e-08
1.24141e-08
1.23738e-08
1.23338e-08
1.22941e-08
1.22546e-08
1.22149e-08
1.21751e-08
1.21349e-08
1.20943e-08
1.20532e-08
1.20118e-08
1.19702e-08
1.19289e-08
1.18881e-08
1.18477e-08
1.18072e-08
1.17661e-08
1.17245e-08
1.16831e-08
1.16428e-08
1.16034e-08
1.15643e-08
1.15244e-08
1.14837e-08
1.14434e-08
1.14043e-08
1.13653e-08
1.1325e-08
1.12837e-08
1.12425e-08
1.1202e-08
1.11611e-08
1.11193e-08
1.10772e-08
1.10397e-08
1.10034e-08
1.08549e-08
1.12109e-08
1.01847e-08
1.30366e-08
1.44973e-08
1.51485e-08
1.56741e-08
1.61145e-08
1.65836e-08
1.70382e-08
1.74382e-08
1.77763e-08
1.80111e-08
1.81254e-08
1.8107e-08
1.80179e-08
1.79213e-08
1.79437e-08
1.81165e-08
1.83757e-08
1.85104e-08
1.83347e-08
1.79118e-08
1.74851e-08
1.73114e-08
1.73867e-08
1.75376e-08
1.76433e-08
1.76904e-08
1.77365e-08
1.76655e-08
1.74002e-08
1.69962e-08
1.67403e-08
1.67078e-08
1.67406e-08
1.66137e-08
1.62923e-08
1.59375e-08
1.58135e-08
1.59825e-08
1.62564e-08
1.63251e-08
1.60024e-08
1.54348e-08
1.49746e-08
1.4804e-08
1.48735e-08
1.50041e-08
1.50412e-08
1.4903e-08
1.46686e-08
1.443e-08
1.43232e-08
1.43309e-08
1.43783e-08
1.4423e-08
1.44571e-08
1.45293e-08
1.46375e-08
1.47902e-08
1.49773e-08
1.51634e-08
1.5347e-08
1.55529e-08
1.58193e-08
1.61803e-08
1.66479e-08
1.72113e-08
1.7866e-08
1.86532e-08
1.96158e-08
2.07641e-08
2.20353e-08
2.33081e-08
2.43784e-08
2.51594e-08
2.57221e-08
2.61236e-08
2.63958e-08
2.66647e-08
2.68489e-08
2.67129e-08
2.59253e-08
2.50903e-08
2.18773e-08
1.83381e-08
1.50683e-08
1.2517e-08
1.18347e-08
1.15498e-08
1.14357e-08
1.14379e-08
1.15665e-08
1.18415e-08
1.22952e-08
1.29903e-08
1.3891e-08
1.48571e-08
1.56329e-08
1.58788e-08
1.53978e-08
1.43696e-08
1.31295e-08
1.21722e-08
1.18198e-08
1.14696e-08
1.14737e-08
1.10976e-08
1.07574e-08
1.07278e-08
1.07399e-08
1.07529e-08
1.07193e-08
1.07923e-08
1.09405e-08
1.11522e-08
1.14099e-08
1.16104e-08
1.16066e-08
1.13642e-08
1.10444e-08
1.08779e-08
1.08616e-08
1.07766e-08
1.08758e-08
1.0762e-08
1.06184e-08
1.06019e-08
1.05731e-08
1.05434e-08
1.05439e-08
1.05324e-08
1.05158e-08
1.05137e-08
1.0515e-08
1.05146e-08
1.05135e-08
1.05147e-08
1.05202e-08
1.05264e-08
1.05295e-08
1.05329e-08
1.05401e-08
1.05479e-08
1.05537e-08
1.05587e-08
1.05644e-08
1.05683e-08
1.05692e-08
1.05708e-08
1.05768e-08
1.05844e-08
1.05905e-08
1.0593e-08
1.05885e-08
1.05823e-08
1.05846e-08
1.0594e-08
1.05997e-08
1.05965e-08
1.05916e-08
1.05945e-08
1.06027e-08
1.06059e-08
1.06015e-08
1.06002e-08
1.06078e-08
1.06151e-08
1.06142e-08
1.06104e-08
1.06134e-08
1.06227e-08
1.06269e-08
1.06211e-08
1.06171e-08
1.06233e-08
1.06311e-08
1.06321e-08
1.06289e-08
1.06271e-08
1.06284e-08
1.0631e-08
1.0634e-08
1.0634e-08
1.06323e-08
1.06332e-08
1.06365e-08
1.06364e-08
1.063e-08
1.06254e-08
1.06274e-08
1.0631e-08
1.06305e-08
1.06275e-08
1.06261e-08
1.06251e-08
1.06224e-08
1.06181e-08
1.06154e-08
1.06153e-08
1.06128e-08
1.06052e-08
1.05977e-08
1.05952e-08
1.05971e-08
1.05961e-08
1.05894e-08
1.05794e-08
1.05718e-08
1.05705e-08
1.05703e-08
1.0565e-08
1.05561e-08
1.05509e-08
1.05483e-08
1.05444e-08
1.05377e-08
1.05276e-08
1.05205e-08
1.05181e-08
1.05176e-08
1.05173e-08
1.05109e-08
1.05e-08
1.04925e-08
1.04914e-08
1.04928e-08
1.04917e-08
1.04891e-08
1.04861e-08
1.04804e-08
1.04762e-08
1.04785e-08
1.04825e-08
1.04836e-08
1.0482e-08
1.04773e-08
1.04767e-08
1.04822e-08
1.04883e-08
1.04901e-08
1.04897e-08
1.04896e-08
1.0489e-08
1.04878e-08
1.04879e-08
1.04874e-08
1.04842e-08
1.04874e-08
1.04903e-08
1.04849e-08
1.04798e-08
1.04789e-08
1.04784e-08
1.04776e-08
1.04733e-08
1.0471e-08
1.04694e-08
1.04645e-08
1.04598e-08
1.04589e-08
1.04563e-08
1.04508e-08
1.04432e-08
1.04396e-08
1.04383e-08
1.0436e-08
1.0432e-08
1.04272e-08
1.0419e-08
1.04112e-08
1.04069e-08
1.04048e-08
1.04025e-08
1.03981e-08
1.03922e-08
1.03865e-08
1.03801e-08
1.03752e-08
1.03705e-08
1.03656e-08
1.03598e-08
1.03564e-08
1.03537e-08
1.03471e-08
1.03397e-08
1.03334e-08
1.03286e-08
1.0325e-08
1.03215e-08
1.03161e-08
1.03105e-08
1.03038e-08
1.02977e-08
1.0294e-08
1.02902e-08
1.02848e-08
1.02797e-08
1.02744e-08
1.0269e-08
1.02643e-08
1.02594e-08
1.02544e-08
1.02492e-08
1.02437e-08
1.02392e-08
1.0234e-08
1.02289e-08
1.02233e-08
1.02175e-08
1.02137e-08
1.02085e-08
1.02033e-08
1.01977e-08
1.01924e-08
1.01875e-08
1.01824e-08
1.01773e-08
1.0172e-08
1.0167e-08
1.01623e-08
1.01573e-08
1.01523e-08
1.01471e-08
1.01421e-08
1.01381e-08
1.01332e-08
1.01282e-08
1.01232e-08
1.01191e-08
1.0115e-08
1.01106e-08
1.01063e-08
1.0102e-08
1.00978e-08
1.00938e-08
1.009e-08
1.00863e-08
1.00828e-08
1.00793e-08
1.00758e-08
1.00724e-08
1.00694e-08
1.00665e-08
1.00637e-08
1.00609e-08
1.00581e-08
1.00554e-08
1.00531e-08
1.00509e-08
1.00488e-08
1.00465e-08
1.00445e-08
1.00428e-08
1.0041e-08
1.00393e-08
1.00376e-08
1.0036e-08
1.00347e-08
1.00333e-08
1.00319e-08
1.00306e-08
1.00294e-08
1.00282e-08
1.00271e-08
1.0026e-08
1.00249e-08
1.00239e-08
1.0023e-08
1.0022e-08
1.00211e-08
1.00203e-08
1.00194e-08
1.00185e-08
1.00177e-08
1.00169e-08
1.00161e-08
1.00153e-08
1.00146e-08
1.00138e-08
1.00131e-08
1.00124e-08
1.00116e-08
1.00109e-08
1.00102e-08
1.00095e-08
1.00088e-08
1.00081e-08
1.00074e-08
1.00067e-08
1.0006e-08
1.00054e-08
1.00047e-08
1.0004e-08
1.00033e-08
1.00026e-08
1.00019e-08
1.00013e-08
1.00007e-08
1e-08
9.9994e-09
9.99877e-09
9.99814e-09
9.99751e-09
9.9969e-09
9.9963e-09
9.99571e-09
9.99512e-09
9.99448e-09
9.99385e-09
9.99314e-09
9.9924e-09
9.99179e-09
9.99117e-09
9.99088e-09
9.99036e-09
9.99038e-09
9.98948e-09
9.98823e-09
9.9876e-09
9.98855e-09
9.98863e-09
9.99524e-09
9.99285e-09
9.99207e-09
9.98981e-09
9.9896e-09
9.9917e-09
1.00122e-08
1.00112e-08
9.99454e-09
9.99511e-09
1.00012e-08
9.99568e-09
9.98669e-09
9.98437e-09
9.98093e-09
9.97844e-09
9.97814e-09
9.9782e-09
9.98176e-09
9.9814e-09
9.9819e-09
9.98072e-09
9.97958e-09
9.97919e-09
9.98499e-09
9.98496e-09
9.98159e-09
9.98258e-09
9.98515e-09
9.98191e-09
9.97843e-09
9.97764e-09
9.98124e-09
9.97813e-09
9.97473e-09
9.97571e-09
9.97193e-09
9.97414e-09
9.97879e-09
1.00086e-08
1.00052e-08
1.00259e-08
1.00224e-08
1.00638e-08
1.00675e-08
1.00937e-08
1.01016e-08
1.00894e-08
1.00763e-08
1.01095e-08
1.00818e-08
1.00444e-08
1.0026e-08
1.00117e-08
1.00017e-08
9.99425e-09
9.98848e-09
9.98391e-09
9.98032e-09
9.97754e-09
9.97545e-09
9.97383e-09
9.97253e-09
9.97154e-09
9.97085e-09
9.97045e-09
9.97024e-09
9.97021e-09
9.97027e-09
9.97038e-09
9.97051e-09
9.97066e-09
9.97088e-09
9.97116e-09
9.97149e-09
9.97193e-09
9.97247e-09
9.97299e-09
9.9735e-09
9.97401e-09
9.97449e-09
9.97493e-09
9.97531e-09
9.97566e-09
9.97599e-09
9.9763e-09
9.97657e-09
9.97672e-09
9.97678e-09
9.97678e-09
9.97669e-09
9.97653e-09
9.97636e-09
9.97624e-09
9.97618e-09
9.97618e-09
9.97622e-09
9.97627e-09
9.97636e-09
9.97648e-09
9.97661e-09
9.97666e-09
9.97653e-09
9.97625e-09
9.97599e-09
9.97591e-09
9.97597e-09
9.97586e-09
9.97545e-09
9.97486e-09
9.9744e-09
9.9746e-09
9.97509e-09
9.97503e-09
9.9744e-09
9.97387e-09
9.97414e-09
9.9749e-09
9.97484e-09
9.97427e-09
9.97426e-09
9.97486e-09
9.97461e-09
9.9738e-09
9.97326e-09
9.97284e-09
9.98702e-09
9.99084e-09
1.00336e-08
9.99441e-09
1.03564e-08
1.057e-08
1.06779e-08
1.07782e-08
1.08663e-08
1.09509e-08
1.10287e-08
1.10938e-08
1.11472e-08
1.11831e-08
1.12002e-08
1.11975e-08
1.11856e-08
1.11733e-08
1.11771e-08
1.11988e-08
1.12289e-08
1.12386e-08
1.12057e-08
1.11436e-08
1.10878e-08
1.10657e-08
1.1071e-08
1.10799e-08
1.10799e-08
1.10776e-08
1.1084e-08
1.10836e-08
1.1058e-08
1.10022e-08
1.09456e-08
1.09082e-08
1.08888e-08
1.0868e-08
1.08359e-08
1.07985e-08
1.07746e-08
1.07747e-08
1.07884e-08
1.07893e-08
1.07569e-08
1.06996e-08
1.06463e-08
1.06194e-08
1.06172e-08
1.06235e-08
1.06241e-08
1.06098e-08
1.05838e-08
1.05552e-08
1.05384e-08
1.05346e-08
1.05349e-08
1.05367e-08
1.05409e-08
1.05531e-08
1.05726e-08
1.05989e-08
1.06295e-08
1.06629e-08
1.07012e-08
1.0751e-08
1.08174e-08
1.09023e-08
1.10076e-08
1.11402e-08
1.13162e-08
1.15526e-08
1.18586e-08
1.22341e-08
1.26702e-08
1.31427e-08
1.36062e-08
1.4009e-08
1.43137e-08
1.45047e-08
1.45767e-08
1.45382e-08
1.44038e-08
1.42067e-08
1.39742e-08
1.37112e-08
1.33788e-08
1.29289e-08
1.24751e-08
1.18268e-08
1.11975e-08
1.06852e-08
1.0348e-08
1.01924e-08
1.01441e-08
1.01438e-08
1.01774e-08
1.02522e-08
1.03822e-08
1.05649e-08
1.07736e-08
1.09336e-08
1.09598e-08
1.0836e-08
1.06273e-08
1.04279e-08
1.02844e-08
1.0188e-08
1.01296e-08
1.0099e-08
1.00773e-08
1.00714e-08
1.00695e-08
1.00626e-08
1.00551e-08
1.0056e-08
1.00594e-08
1.00668e-08
1.0079e-08
1.00933e-08
1.01029e-08
1.01017e-08
1.0092e-08
1.00804e-08
1.00701e-08
1.00621e-08
1.00589e-08
1.00563e-08
1.00514e-08
1.00511e-08
1.00478e-08
1.0045e-08
1.00446e-08
1.00439e-08
1.00431e-08
1.0043e-08
1.0043e-08
1.00428e-08
1.00427e-08
1.00428e-08
1.0043e-08
1.00432e-08
1.00432e-08
1.00433e-08
1.00437e-08
1.0044e-08
1.00442e-08
1.00444e-08
1.00446e-08
1.00448e-08
1.00447e-08
1.00447e-08
1.00451e-08
1.00456e-08
1.00459e-08
1.0046e-08
1.00457e-08
1.00454e-08
1.00456e-08
1.00463e-08
1.00466e-08
1.00464e-08
1.00461e-08
1.00463e-08
1.00469e-08
1.00471e-08
1.00468e-08
1.00467e-08
1.00472e-08
1.00477e-08
1.00477e-08
1.00474e-08
1.00476e-08
1.00482e-08
1.00485e-08
1.00481e-08
1.00478e-08
1.00482e-08
1.00487e-08
1.00488e-08
1.00485e-08
1.00484e-08
1.00485e-08
1.00486e-08
1.00488e-08
1.00487e-08
1.00487e-08
1.00487e-08
1.00489e-08
1.00488e-08
1.00483e-08
1.00479e-08
1.00479e-08
1.00481e-08
1.0048e-08
1.00478e-08
1.00476e-08
1.00475e-08
1.00471e-08
1.00467e-08
1.00464e-08
1.00463e-08
1.00461e-08
1.00456e-08
1.0045e-08
1.00447e-08
1.00448e-08
1.00446e-08
1.00441e-08
1.00435e-08
1.00429e-08
1.00428e-08
1.00427e-08
1.00423e-08
1.00417e-08
1.00414e-08
1.00412e-08
1.00409e-08
1.00404e-08
1.00398e-08
1.00394e-08
1.00392e-08
1.0039e-08
1.00389e-08
1.00385e-08
1.00379e-08
1.00374e-08
1.00372e-08
1.00372e-08
1.0037e-08
1.00368e-08
1.00365e-08
1.00361e-08
1.00358e-08
1.00358e-08
1.00358e-08
1.00357e-08
1.00355e-08
1.00351e-08
1.00349e-08
1.00349e-08
1.0035e-08
1.0035e-08
1.00349e-08
1.00347e-08
1.00345e-08
1.00343e-08
1.00342e-08
1.00341e-08
1.00339e-08
1.00339e-08
1.00341e-08
1.00338e-08
1.00335e-08
1.00333e-08
1.00333e-08
1.00332e-08
1.0033e-08
1.00329e-08
1.00328e-08
1.00326e-08
1.00324e-08
1.00324e-08
1.00323e-08
1.0032e-08
1.00317e-08
1.00315e-08
1.00315e-08
1.00314e-08
1.00313e-08
1.00311e-08
1.00307e-08
1.00304e-08
1.00302e-08
1.00302e-08
1.00301e-08
1.00299e-08
1.00297e-08
1.00294e-08
1.00292e-08
1.0029e-08
1.00288e-08
1.00286e-08
1.00284e-08
1.00283e-08
1.00282e-08
1.00279e-08
1.00276e-08
1.00274e-08
1.00272e-08
1.0027e-08
1.00269e-08
1.00266e-08
1.00264e-08
1.00262e-08
1.00259e-08
1.00258e-08
1.00256e-08
1.00254e-08
1.00252e-08
1.0025e-08
1.00248e-08
1.00246e-08
1.00244e-08
1.00241e-08
1.00239e-08
1.00237e-08
1.00235e-08
1.00233e-08
1.00231e-08
1.00229e-08
1.00227e-08
1.00225e-08
1.00223e-08
1.00221e-08
1.00219e-08
1.00217e-08
1.00215e-08
1.00213e-08
1.00211e-08
1.00209e-08
1.00207e-08
1.00205e-08
1.00203e-08
1.00201e-08
1.00199e-08
1.00197e-08
1.00196e-08
1.00194e-08
1.00193e-08
1.00191e-08
1.00189e-08
1.00188e-08
1.00186e-08
1.00185e-08
1.00184e-08
1.00182e-08
1.00181e-08
1.0018e-08
1.00178e-08
1.00177e-08
1.00176e-08
1.00175e-08
1.00174e-08
1.00173e-08
1.00172e-08
1.00171e-08
1.0017e-08
1.00169e-08
1.00168e-08
1.00167e-08
1.00166e-08
1.00165e-08
1.00165e-08
1.00164e-08
1.00163e-08
1.00162e-08
1.00161e-08
1.00161e-08
1.0016e-08
1.00159e-08
1.00158e-08
1.00157e-08
1.00157e-08
1.00156e-08
1.00155e-08
1.00155e-08
1.00154e-08
1.00153e-08
1.00153e-08
1.00152e-08
1.00151e-08
1.00151e-08
1.0015e-08
1.0015e-08
1.00149e-08
1.00148e-08
1.00148e-08
1.00147e-08
1.00147e-08
1.00146e-08
1.00145e-08
1.00145e-08
1.00144e-08
1.00144e-08
1.00143e-08
1.00142e-08
1.00142e-08
1.00141e-08
1.00141e-08
1.0014e-08
1.00139e-08
1.00139e-08
1.00138e-08
1.00137e-08
1.00137e-08
1.00136e-08
1.00135e-08
1.00135e-08
1.00134e-08
1.00134e-08
1.00133e-08
1.00132e-08
1.00132e-08
1.00131e-08
1.0013e-08
1.00129e-08
1.00129e-08
1.00128e-08
1.00127e-08
1.00126e-08
1.00125e-08
1.00125e-08
1.00124e-08
1.00123e-08
1.00124e-08
1.00123e-08
1.00123e-08
1.00121e-08
1.00126e-08
1.00123e-08
1.0013e-08
1.00128e-08
1.0013e-08
1.00129e-08
1.00128e-08
1.00123e-08
1.0011e-08
1.00112e-08
1.00125e-08
1.00125e-08
1.00126e-08
1.00125e-08
1.00126e-08
1.00125e-08
1.00123e-08
1.00119e-08
1.00116e-08
1.00116e-08
1.00119e-08
1.00113e-08
1.00117e-08
1.00116e-08
1.00115e-08
1.00111e-08
1.00105e-08
1.00105e-08
1.00113e-08
1.00112e-08
1.00112e-08
1.00112e-08
1.00112e-08
1.00111e-08
1.00111e-08
1.00109e-08
1.00106e-08
1.00104e-08
1.00107e-08
1.00102e-08
1.00102e-08
1.00114e-08
1.0011e-08
1.00109e-08
1.00107e-08
1.00133e-08
1.00136e-08
1.00157e-08
1.00152e-08
1.00134e-08
1.00158e-08
1.00163e-08
1.0015e-08
1.00155e-08
1.00138e-08
1.00112e-08
1.00096e-08
1.00089e-08
1.00082e-08
1.00075e-08
1.0007e-08
1.00065e-08
1.0006e-08
1.00056e-08
1.00052e-08
1.00049e-08
1.00045e-08
1.00043e-08
1.00041e-08
1.00042e-08
1.00044e-08
1.00046e-08
1.00048e-08
1.0005e-08
1.00053e-08
1.00055e-08
1.00057e-08
1.0006e-08
1.00063e-08
1.00065e-08
1.00068e-08
1.00071e-08
1.00074e-08
1.00076e-08
1.00077e-08
1.00077e-08
1.00077e-08
1.00077e-08
1.00078e-08
1.00079e-08
1.0008e-08
1.00082e-08
1.00083e-08
1.00084e-08
1.00084e-08
1.00084e-08
1.00083e-08
1.00082e-08
1.00082e-08
1.00082e-08
1.00082e-08
1.00082e-08
1.00081e-08
1.00081e-08
1.00081e-08
1.00082e-08
1.00083e-08
1.00083e-08
1.00083e-08
1.00081e-08
1.00079e-08
1.00077e-08
1.00075e-08
1.00075e-08
1.00076e-08
1.00077e-08
1.00079e-08
1.00078e-08
1.00074e-08
1.00074e-08
1.00076e-08
1.0008e-08
1.00078e-08
1.00072e-08
1.00072e-08
1.00074e-08
1.00075e-08
1.0007e-08
1.00071e-08
1.00073e-08
1.00072e-08
1.00075e-08
1.00072e-08
1.00103e-08
1.0007e-08
1.01025e-08
1.01343e-08
1.01522e-08
1.01724e-08
1.019e-08
1.02058e-08
1.02192e-08
1.02299e-08
1.02382e-08
1.02435e-08
1.02459e-08
1.02453e-08
1.02433e-08
1.02409e-08
1.02403e-08
1.02414e-08
1.02429e-08
1.02417e-08
1.02358e-08
1.02272e-08
1.02198e-08
1.0216e-08
1.02144e-08
1.02124e-08
1.02094e-08
1.02073e-08
1.02078e-08
1.0209e-08
1.02067e-08
1.01984e-08
1.01867e-08
1.01759e-08
1.01688e-08
1.01648e-08
1.01611e-08
1.01561e-08
1.01513e-08
1.01481e-08
1.01466e-08
1.0145e-08
1.01407e-08
1.01341e-08
1.01277e-08
1.01236e-08
1.01218e-08
1.01209e-08
1.01195e-08
1.0117e-08
1.01135e-08
1.01096e-08
1.01065e-08
1.01047e-08
1.01038e-08
1.01034e-08
1.01037e-08
1.01053e-08
1.01078e-08
1.01112e-08
1.01156e-08
1.01208e-08
1.01273e-08
1.01359e-08
1.01471e-08
1.01618e-08
1.01809e-08
1.02068e-08
1.0243e-08
1.02935e-08
1.03615e-08
1.045e-08
1.05624e-08
1.06999e-08
1.08576e-08
1.10243e-08
1.11834e-08
1.1318e-08
1.14105e-08
1.14509e-08
1.14422e-08
1.13965e-08
1.13242e-08
1.12352e-08
1.11381e-08
1.10406e-08
1.09487e-08
1.08573e-08
1.07557e-08
1.06571e-08
1.05605e-08
1.04321e-08
1.02843e-08
1.01638e-08
1.01084e-08
1.00813e-08
1.00731e-08
1.00782e-08
1.00899e-08
1.01063e-08
1.01197e-08
1.01238e-08
1.01169e-08
1.01017e-08
1.00837e-08
1.00682e-08
1.0058e-08
1.00528e-08
1.00504e-08
1.00495e-08
1.00488e-08
1.00465e-08
1.00429e-08
1.00399e-08
1.00375e-08
1.00358e-08
1.00345e-08
1.00337e-08
1.00334e-08
1.00333e-08
1.00334e-08
1.00334e-08
1.00334e-08
1.00333e-08
1.00334e-08
1.00337e-08
1.00341e-08
1.00344e-08
1.0034e-08
1.0033e-08
1.00322e-08
1.00313e-08
1.00306e-08
1.00301e-08
1.00296e-08
1.00292e-08
1.0029e-08
1.00288e-08
1.00287e-08
1.00286e-08
1.00286e-08
1.00286e-08
1.00286e-08
1.00285e-08
1.00284e-08
1.00284e-08
1.00283e-08
1.00283e-08
1.00282e-08
1.00281e-08
1.00281e-08
1.0028e-08
1.0028e-08
1.0028e-08
1.00279e-08
1.00279e-08
1.00279e-08
1.00279e-08
1.00278e-08
1.00278e-08
1.00277e-08
1.00277e-08
1.00277e-08
1.00276e-08
1.00276e-08
1.00275e-08
1.00275e-08
1.00275e-08
1.00274e-08
1.00273e-08
1.00273e-08
1.00272e-08
1.00272e-08
1.00271e-08
1.0027e-08
1.0027e-08
1.0027e-08
1.00269e-08
1.00269e-08
1.00268e-08
1.00268e-08
1.00267e-08
1.00267e-08
1.00266e-08
1.00266e-08
1.00265e-08
1.00265e-08
1.00264e-08
1.00264e-08
1.00263e-08
1.00263e-08
1.00262e-08
1.00262e-08
1.00261e-08
1.00261e-08
1.0026e-08
1.00259e-08
1.00258e-08
1.00258e-08
1.00257e-08
1.00256e-08
1.00255e-08
1.00255e-08
1.00254e-08
1.00253e-08
1.00252e-08
1.00252e-08
1.00251e-08
1.0025e-08
1.00249e-08
1.00248e-08
1.00247e-08
1.00247e-08
1.00246e-08
1.00245e-08
1.00244e-08
1.00244e-08
1.00243e-08
1.00242e-08
1.00241e-08
1.00241e-08
1.0024e-08
1.00239e-08
1.00239e-08
1.00238e-08
1.00237e-08
1.00237e-08
1.00236e-08
1.00235e-08
1.00235e-08
1.00234e-08
1.00233e-08
1.00232e-08
1.00232e-08
1.00231e-08
1.0023e-08
1.0023e-08
1.00229e-08
1.00228e-08
1.00227e-08
1.00227e-08
1.00226e-08
1.00225e-08
1.00224e-08
1.00223e-08
1.00222e-08
1.00222e-08
1.0022e-08
1.00219e-08
1.00219e-08
1.00218e-08
1.00217e-08
1.00216e-08
1.00215e-08
1.00215e-08
1.00214e-08
1.00213e-08
1.00213e-08
1.00212e-08
1.00211e-08
1.00211e-08
1.00211e-08
1.0021e-08
1.00209e-08
1.00208e-08
1.00208e-08
1.00207e-08
1.00207e-08
1.00207e-08
1.00206e-08
1.00205e-08
1.00205e-08
1.00204e-08
1.00204e-08
1.00203e-08
1.00203e-08
1.00202e-08
1.00201e-08
1.00201e-08
1.002e-08
1.00199e-08
1.00199e-08
1.00198e-08
1.00198e-08
1.00197e-08
1.00197e-08
1.00196e-08
1.00195e-08
1.00195e-08
1.00194e-08
1.00194e-08
1.00193e-08
1.00192e-08
1.00192e-08
1.00191e-08
1.00191e-08
1.0019e-08
1.00189e-08
1.00189e-08
1.00188e-08
1.00187e-08
1.00187e-08
1.00186e-08
1.00185e-08
1.00185e-08
1.00184e-08
1.00183e-08
1.00183e-08
1.00182e-08
1.00181e-08
1.00181e-08
1.0018e-08
1.00179e-08
1.00179e-08
1.00178e-08
1.00177e-08
1.00177e-08
1.00176e-08
1.00175e-08
1.00175e-08
1.00174e-08
1.00173e-08
1.00173e-08
1.00172e-08
1.00172e-08
1.00171e-08
1.0017e-08
1.0017e-08
1.00169e-08
1.00169e-08
1.00168e-08
1.00168e-08
1.00167e-08
1.00167e-08
1.00166e-08
1.00165e-08
1.00165e-08
1.00164e-08
1.00164e-08
1.00163e-08
1.00163e-08
1.00162e-08
1.00161e-08
1.00161e-08
1.0016e-08
1.0016e-08
1.00159e-08
1.00158e-08
1.00158e-08
1.00157e-08
1.00156e-08
1.00156e-08
1.00155e-08
1.00154e-08
1.00153e-08
1.00153e-08
1.00152e-08
1.00151e-08
1.00151e-08
1.0015e-08
1.00149e-08
1.00148e-08
1.00148e-08
1.00147e-08
1.00146e-08
1.00146e-08
1.00145e-08
1.00145e-08
1.00144e-08
1.00143e-08
1.00143e-08
1.00142e-08
1.00141e-08
1.00141e-08
1.0014e-08
1.0014e-08
1.00139e-08
1.00139e-08
1.00138e-08
1.00137e-08
1.00137e-08
1.00136e-08
1.00136e-08
1.00135e-08
1.00134e-08
1.00134e-08
1.00133e-08
1.00133e-08
1.00132e-08
1.00132e-08
1.00131e-08
1.0013e-08
1.0013e-08
1.00129e-08
1.00129e-08
1.00128e-08
1.00128e-08
1.00127e-08
1.00127e-08
1.00126e-08
1.00125e-08
1.00125e-08
1.00124e-08
1.00124e-08
1.00123e-08
1.00122e-08
1.00122e-08
1.00121e-08
1.0012e-08
1.0012e-08
1.0012e-08
1.00119e-08
1.00119e-08
1.00117e-08
1.00122e-08
1.00119e-08
1.00124e-08
1.00123e-08
1.00123e-08
1.00122e-08
1.00122e-08
1.00118e-08
1.00107e-08
1.00109e-08
1.0012e-08
1.00119e-08
1.00119e-08
1.00119e-08
1.00119e-08
1.00119e-08
1.00113e-08
1.00109e-08
1.00116e-08
1.00115e-08
1.00114e-08
1.00113e-08
1.00112e-08
1.00112e-08
1.0011e-08
1.00109e-08
1.00105e-08
1.00106e-08
1.00108e-08
1.00108e-08
1.00108e-08
1.00107e-08
1.00108e-08
1.00107e-08
1.00106e-08
1.00105e-08
1.00102e-08
1.00102e-08
1.00106e-08
1.00102e-08
1.00112e-08
1.00106e-08
1.00093e-08
1.00102e-08
1.001e-08
1.00126e-08
1.0013e-08
1.00151e-08
1.00145e-08
1.00122e-08
1.00127e-08
1.00125e-08
1.00123e-08
1.00122e-08
1.0012e-08
1.00114e-08
1.00111e-08
1.00106e-08
1.00101e-08
1.00097e-08
1.00093e-08
1.00088e-08
1.00084e-08
1.0008e-08
1.00077e-08
1.00073e-08
1.00071e-08
1.00068e-08
1.00066e-08
1.00063e-08
1.00061e-08
1.0006e-08
1.0006e-08
1.00061e-08
1.00061e-08
1.00062e-08
1.00062e-08
1.00062e-08
1.00063e-08
1.00064e-08
1.00065e-08
1.00067e-08
1.0007e-08
1.00072e-08
1.00074e-08
1.00076e-08
1.00077e-08
1.00077e-08
1.00076e-08
1.00076e-08
1.00076e-08
1.00076e-08
1.00077e-08
1.00078e-08
1.00079e-08
1.0008e-08
1.00081e-08
1.00081e-08
1.0008e-08
1.0008e-08
1.00079e-08
1.00079e-08
1.00079e-08
1.00079e-08
1.00078e-08
1.00077e-08
1.00076e-08
1.00077e-08
1.00078e-08
1.00079e-08
1.0008e-08
1.00079e-08
1.00076e-08
1.00074e-08
1.00072e-08
1.00072e-08
1.00072e-08
1.00074e-08
1.00075e-08
1.00075e-08
1.00072e-08
1.00071e-08
1.00073e-08
1.00077e-08
1.00077e-08
1.00071e-08
1.00069e-08
1.00069e-08
1.00071e-08
1.00069e-08
1.00069e-08
1.00069e-08
1.00072e-08
1.00073e-08
1.00072e-08
1.00069e-08
1.00101e-08
1.00069e-08
1.00859e-08
1.00754e-08
1.00763e-08
1.0081e-08
1.00847e-08
1.00877e-08
1.00899e-08
1.00914e-08
1.00924e-08
1.00929e-08
1.00929e-08
1.00923e-08
1.00915e-08
1.00905e-08
1.00898e-08
1.00893e-08
1.00889e-08
1.00881e-08
1.00868e-08
1.00852e-08
1.00837e-08
1.00826e-08
1.00816e-08
1.00807e-08
1.00797e-08
1.0079e-08
1.00786e-08
1.00783e-08
1.00775e-08
1.00759e-08
1.00737e-08
1.00715e-08
1.00698e-08
1.00687e-08
1.00677e-08
1.00667e-08
1.00656e-08
1.00646e-08
1.00638e-08
1.0063e-08
1.0062e-08
1.0061e-08
1.00601e-08
1.00592e-08
1.00585e-08
1.00578e-08
1.00572e-08
1.00566e-08
1.00559e-08
1.00553e-08
1.00546e-08
1.00541e-08
1.00537e-08
1.00535e-08
1.00534e-08
1.00536e-08
1.00538e-08
1.00543e-08
1.00548e-08
1.00555e-08
1.00563e-08
1.00574e-08
1.00589e-08
1.0061e-08
1.00638e-08
1.00678e-08
1.00738e-08
1.00824e-08
1.00948e-08
1.01118e-08
1.0135e-08
1.01653e-08
1.02031e-08
1.02472e-08
1.0295e-08
1.03427e-08
1.03858e-08
1.04204e-08
1.04448e-08
1.04573e-08
1.04568e-08
1.04444e-08
1.0424e-08
1.04016e-08
1.03819e-08
1.03681e-08
1.03609e-08
1.03608e-08
1.03644e-08
1.03642e-08
1.0353e-08
1.03337e-08
1.02879e-08
1.02182e-08
1.01449e-08
1.01016e-08
1.00749e-08
1.00596e-08
1.00526e-08
1.00468e-08
1.00432e-08
1.00411e-08
1.00393e-08
1.0038e-08
1.00373e-08
1.00371e-08
1.00376e-08
1.00389e-08
1.00409e-08
1.00431e-08
1.0045e-08
1.00457e-08
1.00445e-08
1.00417e-08
1.0039e-08
1.00367e-08
1.00349e-08
1.00332e-08
1.00321e-08
1.00313e-08
1.00309e-08
1.00308e-08
1.00308e-08
1.0031e-08
1.00313e-08
1.00317e-08
1.00324e-08
1.00331e-08
1.00336e-08
1.00334e-08
1.00326e-08
1.00318e-08
1.0031e-08
1.00303e-08
1.00297e-08
1.00293e-08
1.0029e-08
1.00287e-08
1.00285e-08
1.00284e-08
1.00283e-08
1.00282e-08
1.00281e-08
1.0028e-08
1.00279e-08
1.00278e-08
1.00278e-08
1.00277e-08
1.00276e-08
1.00276e-08
1.00275e-08
1.00275e-08
1.00275e-08
1.00274e-08
1.00274e-08
1.00274e-08
1.00274e-08
1.00274e-08
1.00274e-08
1.00273e-08
1.00273e-08
1.00272e-08
1.00272e-08
1.00272e-08
1.00271e-08
1.0027e-08
1.0027e-08
1.00269e-08
1.00268e-08
1.00268e-08
1.00267e-08
1.00266e-08
1.00265e-08
1.00264e-08
1.00264e-08
1.00263e-08
1.00262e-08
1.00262e-08
1.00261e-08
1.0026e-08
1.0026e-08
1.00259e-08
1.00259e-08
1.00258e-08
1.00257e-08
1.00257e-08
1.00257e-08
1.00256e-08
1.00256e-08
1.00255e-08
1.00255e-08
1.00254e-08
1.00254e-08
1.00254e-08
1.00253e-08
1.00253e-08
1.00252e-08
1.00252e-08
1.00251e-08
1.0025e-08
1.0025e-08
1.00249e-08
1.00248e-08
1.00247e-08
1.00247e-08
1.00246e-08
1.00245e-08
1.00244e-08
1.00244e-08
1.00243e-08
1.00242e-08
1.00241e-08
1.0024e-08
1.0024e-08
1.00239e-08
1.00238e-08
1.00237e-08
1.00237e-08
1.00236e-08
1.00235e-08
1.00235e-08
1.00234e-08
1.00233e-08
1.00233e-08
1.00232e-08
1.00231e-08
1.0023e-08
1.0023e-08
1.00229e-08
1.00229e-08
1.00228e-08
1.00227e-08
1.00227e-08
1.00226e-08
1.00225e-08
1.00225e-08
1.00224e-08
1.00224e-08
1.00223e-08
1.00223e-08
1.00222e-08
1.00221e-08
1.00221e-08
1.0022e-08
1.00219e-08
1.00218e-08
1.00217e-08
1.00217e-08
1.00216e-08
1.00214e-08