/*--------------------------------*- C++ -*----------------------------------*\
| =========                 |                                                 |
| \\      /  F ield         | OpenFOAM: The Open Source CFD Toolbox           |
|  \\    /   O peration     | Version:  v2006                                 |
|   \\  /    A nd           | Website:  www.openfoam.com                      |
|    \\/     M anipulation  |                                                 |
\*---------------------------------------------------------------------------*/
FoamFile
{
    version     2.0;
    format      ascii;
    class       volScalarField;
    location    "3.9";
    object      omega;
}
// * * * * * * * * * * * * * * * * * * * * * * * * * * * * * * * * * * * * * //

dimensions      [0 0 -1 0 0 0 0];


internalField   nonuniform List<scalar> 
33000
(
0.806807
0.807783
0.808189
0.808551
0.80887
0.809145
0.809378
0.809571
0.809728
0.809852
0.809946
0.810017
0.810072
0.810119
0.810164
0.810208
0.810251
0.810284
0.81031
0.810327
0.810346
0.810371
0.810404
0.810446
0.810491
0.810538
0.81058
0.810609
0.810627
0.810644
0.810659
0.810677
0.810696
0.810708
0.810713
0.810722
0.810737
0.810757
0.810778
0.810782
0.810758
0.810712
0.810665
0.81063
0.810611
0.810602
0.81058
0.810542
0.810485
0.810417
0.810351
0.810301
0.810266
0.810223
0.810171
0.810125
0.810121
0.810149
0.81017
0.810142
0.810051
0.80993
0.809821
0.809722
0.809594
0.809398
0.809138
0.808847
0.808554
0.808273
0.80799
0.807704
0.807433
0.807202
0.807055
0.807018
0.807077
0.807246
0.807655
0.807997
0.808067
0.807919
0.807754
0.807634
0.807522
0.807397
0.807327
0.807331
0.807359
0.807337
0.807298
0.807206
0.807067
0.806922
0.806735
0.806502
0.806224
0.805968
0.805782
0.805768
0.80576
0.805653
0.80552
0.805435
0.805408
0.805414
0.805405
0.805366
0.805311
0.805261
0.805213
0.80516
0.80509
0.804999
0.804886
0.80477
0.804684
0.804716
0.804785
0.804798
0.804786
0.804774
0.804772
0.804784
0.804799
0.804807
0.804812
0.804814
0.804817
0.804817
0.804819
0.80482
0.804821
0.80482
0.804816
0.804811
0.804808
0.804805
0.804801
0.804797
0.804794
0.804791
0.804785
0.804777
0.804771
0.804765
0.80476
0.804752
0.804742
0.804734
0.804728
0.804722
0.804713
0.804702
0.804692
0.804685
0.804679
0.804672
0.804661
0.804653
0.804646
0.804641
0.804633
0.804625
0.804618
0.804613
0.804608
0.8046
0.804593
0.804588
0.804583
0.804578
0.804571
0.804565
0.804561
0.804557
0.804553
0.804548
0.804544
0.804541
0.804539
0.804539
0.804542
0.80455
0.804565
0.804585
0.804607
0.804632
0.804658
0.804682
0.804702
0.804718
0.80473
0.804739
0.804745
0.804746
0.804746
0.804745
0.804744
0.804741
0.804737
0.804733
0.804729
0.804725
0.80472
0.804714
0.804706
0.804698
0.804691
0.804683
0.804674
0.804664
0.804654
0.804644
0.804634
0.804622
0.80461
0.804597
0.804585
0.804572
0.804559
0.804544
0.804529
0.804515
0.8045
0.804485
0.804469
0.804452
0.804435
0.804417
0.8044
0.804383
0.804365
0.804346
0.804327
0.804308
0.804289
0.804269
0.80425
0.804229
0.804209
0.804189
0.804169
0.804148
0.804127
0.804106
0.804085
0.804063
0.804042
0.80402
0.803998
0.803977
0.803955
0.803932
0.803911
0.803888
0.803866
0.803843
0.803821
0.803798
0.803776
0.803752
0.803729
0.803707
0.803684
0.803661
0.803638
0.803614
0.803591
0.803568
0.803544
0.803521
0.803498
0.803475
0.803451
0.803428
0.803404
0.803381
0.803358
0.803334
0.803311
0.803288
0.803265
0.803241
0.803218
0.803195
0.803172
0.803149
0.803126
0.803103
0.80308
0.803057
0.803034
0.803012
0.802989
0.802967
0.802944
0.802922
0.802901
0.802879
0.802858
0.802837
0.802816
0.802795
0.802775
0.802755
0.802735
0.802715
0.802696
0.802677
0.802658
0.802639
0.80262
0.802602
0.802584
0.802566
0.802549
0.802532
0.802515
0.802499
0.802483
0.802466
0.802451
0.802435
0.802419
0.802404
0.802389
0.802374
0.802359
0.802345
0.802331
0.802318
0.802305
0.802292
0.80228
0.802268
0.802256
0.802244
0.802232
0.802221
0.802209
0.802198
0.802187
0.802176
0.802165
0.802153
0.802142
0.802131
0.802121
0.802109
0.802098
0.802087
0.802076
0.802065
0.802054
0.802043
0.802032
0.802021
0.80201
0.801999
0.801988
0.801977
0.801966
0.801955
0.801944
0.801933
0.801922
0.801911
0.8019
0.801889
0.801878
0.801867
0.801856
0.801846
0.801835
0.801824
0.801814
0.801803
0.801793
0.801783
0.801773
0.801763
0.801753
0.801743
0.801733
0.801723
0.801713
0.801704
0.801694
0.801685
0.801675
0.801665
0.801656
0.801646
0.801637
0.801628
0.801618
0.801609
0.8016
0.801591
0.801582
0.801573
0.801564
0.801555
0.801546
0.801538
0.801529
0.801521
0.801512
0.801504
0.801496
0.801488
0.80148
0.801472
0.801464
0.801456
0.801448
0.801441
0.801432
0.801425
0.801418
0.80141
0.801403
0.801395
0.801383
0.801376
0.801373
0.801361
0.801366
0.801364
0.801389
0.801385
0.801391
0.801387
0.801387
0.801382
0.801379
0.801374
0.80137
0.801364
0.801359
0.801353
0.801346
0.80134
0.801336
0.801328
0.801327
0.801323
0.801329
0.801325
0.801323
0.801319
0.801315
0.80131
0.801306
0.801301
0.801296
0.801289
0.801284
0.80128
0.801272
0.80127
0.801263
0.801241
0.801238
0.801241
0.801219
0.801272
0.801282
0.801469
0.801479
0.801543
0.801571
0.801594
0.80161
0.801622
0.80163
0.801635
0.801638
0.80164
0.801641
0.801641
0.80164
0.801639
0.801638
0.801636
0.801634
0.801632
0.801629
0.801627
0.801624
0.801621
0.801617
0.801614
0.801611
0.801607
0.801603
0.801599
0.801595
0.801591
0.801587
0.801583
0.801578
0.801573
0.801568
0.801563
0.801558
0.801553
0.801548
0.801543
0.801538
0.801533
0.801528
0.801523
0.801518
0.801513
0.801509
0.801504
0.801499
0.801494
0.801489
0.801483
0.801478
0.801473
0.801468
0.801463
0.801458
0.801453
0.801448
0.801443
0.801438
0.801433
0.801428
0.801423
0.801418
0.801413
0.801408
0.801404
0.801399
0.801394
0.801389
0.801384
0.801378
0.801373
0.801368
0.801363
0.801359
0.801341
0.801385
0.801259
0.176583
0.195823
0.17907
0.188725
0.198947
0.207771
0.215598
0.221712
0.226455
0.229561
0.231117
0.231104
0.230191
0.229014
0.228867
0.230075
0.232018
0.232546
0.229909
0.224753
0.21955
0.216747
0.21624
0.215988
0.214613
0.213231
0.21306
0.212871
0.210764
0.205559
0.199794
0.195691
0.194061
0.192507
0.189302
0.185047
0.182004
0.181792
0.183143
0.182587
0.17843
0.171381
0.164554
0.161042
0.160302
0.160185
0.159256
0.156717
0.153246
0.149974
0.148507
0.148775
0.150001
0.151642
0.153402
0.155558
0.158542
0.162714
0.167932
0.173841
0.180309
0.187395
0.196525
0.210223
0.230687
0.258972
0.294804
0.338571
0.392195
0.457586
0.532332
0.608423
0.676571
0.734217
0.786756
0.837985
0.882646
0.915616
0.94102
0.952492
0.940638
0.895068
0.75322
0.57209
0.350084
0.178091
0.100823
0.0745869
0.0617646
0.0565882
0.0590179
0.066863
0.0818198
0.106121
0.142444
0.187653
0.231663
0.262452
0.266589
0.256974
0.219304
0.167044
0.114708
0.0784333
0.0692551
0.0528119
0.0409418
0.0377238
0.0378816
0.0373111
0.0363191
0.0394176
0.0460428
0.0566489
0.0698167
0.0808198
0.0815391
0.0734263
0.0613091
0.0529025
0.0463073
0.039252
0.0415906
0.0373218
0.0328576
0.032112
0.031125
0.0304429
0.0306387
0.0302017
0.0297679
0.0298956
0.0301089
0.0301842
0.0301214
0.0301356
0.030399
0.0307042
0.0308403
0.0309244
0.0312252
0.0316148
0.0318929
0.0321047
0.0323634
0.0325496
0.0325748
0.0326148
0.0329017
0.0333334
0.0337101
0.0338785
0.0336469
0.0333034
0.0334216
0.0339471
0.0343076
0.0341846
0.0339311
0.034078
0.0345062
0.0346785
0.0344672
0.0344234
0.0348269
0.0351886
0.0351191
0.0349579
0.0351588
0.0356371
0.0358254
0.0355204
0.0353065
0.0355996
0.0359944
0.0360506
0.0358316
0.035683
0.0357355
0.0358783
0.036011
0.0359445
0.0357549
0.0357158
0.0358308
0.0358043
0.0354563
0.0351962
0.0352686
0.0354002
0.0352895
0.0350643
0.0349527
0.0349037
0.0347909
0.0345755
0.0343947
0.0343245
0.0341859
0.0338328
0.0334974
0.0333863
0.0334628
0.0334219
0.0331417
0.0326923
0.0323118
0.0322481
0.0322923
0.0321139
0.0317238
0.0314889
0.0314139
0.031306
0.0310474
0.030614
0.0303447
0.0302947
0.0303077
0.0303212
0.0300539
0.0295613
0.0292538
0.0292597
0.0293379
0.0292912
0.0291875
0.0290353
0.0287456
0.0285618
0.0286554
0.0287936
0.0288111
0.0286888
0.0284145
0.0283765
0.0286092
0.028801
0.0287701
0.0287198
0.0287385
0.0287434
0.0286934
0.0286981
0.0287036
0.0285906
0.0287725
0.028926
0.0287241
0.0285732
0.0286164
0.0286707
0.0287061
0.0285983
0.0286171
0.0286558
0.0284904
0.0283315
0.0284092
0.02846
0.0283526
0.0280902
0.0280394
0.0281238
0.0281487
0.0281025
0.0280296
0.027766
0.027509
0.0274491
0.0275119
0.0275648
0.0275114
0.0273722
0.0272166
0.0270413
0.0269722
0.0269168
0.0268209
0.0266702
0.0266689
0.0266827
0.0264948
0.0262575
0.026058
0.0259498
0.0259344
0.0259117
0.0257791
0.0256235
0.0253757
0.0251794
0.0251507
0.0251058
0.0249624
0.0248267
0.0246526
0.0244843
0.0243815
0.0242542
0.0241102
0.0239455
0.0237396
0.0236108
0.0234553
0.0232798
0.0230455
0.0228128
0.022718
0.0225345
0.0223301
0.0220938
0.0218719
0.021687
0.0214881
0.0212732
0.0210323
0.0208128
0.0206247
0.0204093
0.020181
0.0199187
0.0196817
0.0195226
0.0193009
0.0190456
0.0187827
0.0186078
0.0184181
0.0182012
0.0179895
0.0177641
0.0175387
0.0173295
0.0171282
0.0169357
0.016749
0.0165625
0.0163698
0.0161823
0.016033
0.0158882
0.0157342
0.0155781
0.0154154
0.0152609
0.0151372
0.0150154
0.014892
0.01475
0.0146263
0.014539
0.0144401
0.0143391
0.014235
0.0141435
0.0140715
0.0139895
0.0139025
0.01382
0.0137557
0.0136924
0.0136269
0.0135673
0.0135027
0.0134485
0.0134061
0.0133572
0.0133096
0.0132609
0.0132076
0.0131634
0.0131243
0.0130864
0.0130457
0.0130102
0.012982
0.0129518
0.0129225
0.012891
0.0128559
0.0128263
0.0128027
0.012782
0.0127629
0.0127415
0.0127207
0.0126985
0.0126773
0.012661
0.0126412
0.0126165
0.0125975
0.0125901
0.0125732
0.0125565
0.0125455
0.012531
0.012513
0.0124943
0.0124788
0.0124639
0.0124535
0.0124432
0.0124355
0.0124225
0.0124175
0.0124005
0.0123981
0.0123911
0.0123838
0.0123747
0.0123538
0.012351
0.012321
0.0123068
0.0123138
0.0122777
0.0122499
0.012286
0.0121399
0.0121514
0.0121647
0.012085
0.0121388
0.0124183
0.0121937
0.0126658
0.0138431
0.0164245
0.0162463
0.0136217
0.0134514
0.0127506
0.0126536
0.0124819
0.0124524
0.0123633
0.0122764
0.012206
0.0122066
0.0121531
0.0121729
0.0122634
0.0121655
0.0122764
0.012614
0.0134207
0.0133234
0.0124517
0.0124143
0.012267
0.0121311
0.0121868
0.0121827
0.012181
0.0122185
0.0121885
0.0121341
0.0118975
0.0119395
0.0121059
0.0121027
0.0125031
0.0127401
0.0142323
0.0205986
0.0254833
0.045093
0.0437766
0.0331128
0.0259888
0.0215266
0.018742
0.0169358
0.0157464
0.0149255
0.0143286
0.0138874
0.0135523
0.0132837
0.0130703
0.0129135
0.0128014
0.012719
0.0126506
0.0125859
0.0125269
0.0124812
0.0124484
0.0124274
0.0124144
0.0124069
0.0124021
0.0123974
0.0123922
0.0123839
0.0123724
0.0123569
0.0123377
0.0123163
0.0122973
0.0122857
0.012276
0.0122666
0.0122576
0.0122491
0.0122426
0.0122374
0.0122329
0.0122295
0.0122274
0.0122258
0.0122241
0.0122225
0.01222
0.0122137
0.0122055
0.0121986
0.0121917
0.0121851
0.0121804
0.0121791
0.0121808
0.0121833
0.0121829
0.0121713
0.0121671
0.0121708
0.012188
0.0122316
0.0122509
0.0122147
0.0121709
0.0121805
0.0122262
0.0122497
0.0121999
0.0121476
0.0121529
0.0121594
0.0121478
0.0121359
0.0121449
0.012166
0.0122062
0.0120658
0.0121103
0.012175
0.0101559
0.0457329
0.044578
0.036713
0.0399898
0.0431845
0.0458433
0.0481036
0.0498234
0.0511223
0.0519262
0.0522829
0.0521885
0.0518528
0.0514471
0.0513238
0.0515069
0.0518223
0.0517284
0.0508235
0.0493275
0.0478946
0.0470805
0.0467567
0.0464251
0.0458367
0.0452966
0.0451769
0.0451794
0.0446227
0.0430046
0.0408676
0.0389367
0.0377088
0.0369493
0.0360906
0.0349484
0.0339302
0.0333953
0.0333157
0.0330521
0.0319988
0.0302042
0.028286
0.0270385
0.0266122
0.0265192
0.0263578
0.0258591
0.0250207
0.0240397
0.023376
0.0232378
0.0234259
0.0237913
0.024194
0.02475
0.0256072
0.0269301
0.0285418
0.0301973
0.0317618
0.0335194
0.0360933
0.0399151
0.0451151
0.0516463
0.0597261
0.0703339
0.0846731
0.103256
0.12562
0.150881
0.177935
0.204672
0.229368
0.252425
0.275155
0.298914
0.321712
0.340064
0.35309
0.361651
0.363231
0.356224
0.336109
0.279166
0.207013
0.125202
0.0469639
0.01987
0.0108615
0.00858187
0.00886712
0.0114252
0.0167402
0.0249037
0.0349693
0.0445664
0.0491059
0.0474777
0.042229
0.0345902
0.0289805
0.0227869
0.0171804
0.0112381
0.00730609
0.0057195
0.00490013
0.00411666
0.00339661
0.00310749
0.00305397
0.00329026
0.00395493
0.00483639
0.00548715
0.00556969
0.005256
0.0046862
0.00431113
0.00407316
0.00404783
0.00357803
0.00291339
0.00281666
0.00252293
0.00232399
0.00226042
0.0021906
0.00212613
0.00211528
0.00211705
0.00211721
0.00211694
0.00212512
0.0021432
0.00215991
0.0021665
0.00217279
0.00219364
0.00221888
0.00223756
0.0022548
0.00227496
0.00228725
0.00228997
0.00229786
0.00232104
0.00234809
0.00236962
0.00238087
0.00237152
0.00235616
0.00236559
0.00239787
0.00241882
0.00240993
0.00239687
0.00241095
0.00244062
0.0024527
0.00243847
0.0024343
0.00246204
0.00248921
0.00248709
0.0024742
0.00248527
0.00251921
0.0025341
0.00251231
0.00249621
0.00251772
0.00254367
0.0025442
0.00252978
0.002521
0.00252142
0.00252535
0.00253043
0.00252677
0.00251731
0.00251579
0.00252025
0.00251274
0.00248384
0.0024618
0.00246317
0.00246969
0.00246213
0.00244755
0.0024386
0.00242941
0.00241236
0.00239003
0.00237664
0.00237392
0.00236262
0.00233306
0.00230421
0.00229195
0.0022952
0.00228912
0.00226435
0.00223067
0.00220564
0.00220093
0.00219827
0.00217943
0.00215147
0.00213631
0.0021283
0.00211526
0.00209461
0.00206563
0.00204647
0.00203974
0.00203746
0.00203557
0.00201641
0.00198612
0.00196629
0.00196277
0.001964
0.00195875
0.00195067
0.001941
0.00192485
0.00191383
0.00191731
0.00192392
0.00192455
0.00191843
0.00190389
0.00190076
0.0019133
0.00192843
0.00193268
0.00193196
0.00193003
0.00192753
0.00192615
0.00192852
0.00192864
0.00192376
0.00193601
0.00194593
0.00193478
0.00192552
0.00192799
0.00193087
0.00193369
0.00192873
0.0019277
0.00192851
0.00192167
0.00191708
0.00192225
0.0019201
0.00191019
0.001897
0.00189607
0.0019006
0.00190206
0.00189867
0.00189276
0.00187718
0.00186304
0.0018601
0.00186338
0.0018644
0.00185915
0.00185081
0.00184419
0.00183502
0.00182882
0.00182263
0.00181668
0.00180931
0.00180832
0.00180845
0.00179656
0.00178283
0.00177296
0.00176721
0.00176406
0.00176068
0.00175222
0.00174359
0.00173128
0.0017208
0.0017175
0.00171311
0.00170384
0.0016961
0.00168774
0.00167874
0.00167132
0.001663
0.00165437
0.00164516
0.00163487
0.00162683
0.00161656
0.0016067
0.00159519
0.001583
0.00157638
0.00156555
0.00155443
0.00154252
0.0015312
0.00152054
0.00150963
0.00149843
0.00148661
0.00147557
0.00146512
0.00145387
0.00144253
0.00143063
0.00141963
0.0014109
0.00139971
0.00138823
0.00137696
0.00136815
0.00135902
0.00134924
0.00133961
0.00133004
0.00132074
0.00131185
0.00130331
0.00129532
0.00128768
0.00128017
0.00127277
0.00126567
0.00125947
0.00125367
0.00124789
0.00124208
0.00123636
0.00123108
0.00122662
0.00122221
0.00121795
0.00121352
0.00120959
0.00120646
0.00120313
0.00119996
0.00119688
0.00119408
0.00119167
0.00118918
0.00118691
0.00118482
0.00118291
0.00118091
0.00117919
0.00117768
0.00117602
0.0011747
0.00117349
0.00117214
0.00117101
0.00116983
0.00116858
0.00116757
0.00116665
0.0011658
0.0011649
0.00116413
0.0011634
0.00116267
0.00116211
0.00116146
0.00116075
0.0011602
0.00115979
0.00115943
0.00115895
0.00115841
0.00115802
0.00115761
0.00115719
0.00115687
0.00115643
0.00115606
0.00115579
0.00115559
0.00115512
0.00115488
0.00115465
0.00115439
0.00115407
0.00115379
0.00115356
0.00115332
0.00115321
0.00115295
0.00115278
0.00115251
0.00115268
0.00115234
0.00115179
0.00115267
0.00115245
0.00115118
0.00115026
0.00114963
0.0011492
0.00114852
0.00115008
0.00115146
0.00114967
0.0011499
0.00114497
0.00114679
0.0011539
0.0011639
0.00116826
0.00117304
0.00119381
0.00120393
0.00119179
0.00121951
0.00120281
0.00117066
0.00116517
0.00115871
0.00115661
0.00115479
0.00115271
0.00115251
0.00114865
0.00114846
0.00115149
0.00115363
0.00115506
0.00115719
0.00116291
0.00116643
0.00115947
0.00116654
0.00116022
0.00115563
0.00115215
0.00115162
0.00114784
0.0011497
0.00115041
0.00115267
0.00116403
0.00116365
0.00118145
0.00117796
0.00121399
0.00123098
0.00133275
0.0013789
0.00139952
0.00170243
0.00194107
0.00196843
0.00259901
0.00218556
0.00175783
0.00153945
0.00141229
0.00133693
0.0012892
0.00125723
0.00123405
0.00121681
0.00120394
0.0011941
0.00118651
0.00118091
0.00117669
0.00117328
0.00117028
0.00116761
0.00116534
0.00116368
0.00116262
0.0011621
0.00116194
0.00116194
0.0011619
0.00116167
0.00116121
0.00116054
0.00115982
0.00115911
0.0011585
0.00115804
0.00115777
0.00115766
0.0011577
0.00115765
0.00115744
0.00115709
0.00115668
0.00115637
0.00115624
0.00115633
0.00115661
0.00115693
0.00115718
0.00115729
0.00115732
0.0011574
0.00115754
0.00115774
0.00115785
0.0011577
0.00115735
0.00115704
0.00115695
0.00115721
0.00115781
0.00115848
0.00115903
0.00115985
0.00116045
0.00116059
0.00116067
0.00116018
0.00116005
0.00116095
0.00116171
0.00116142
0.00115999
0.00115986
0.00116168
0.00116239
0.00116088
0.00116023
0.00116253
0.00116319
0.00116141
0.00116166
0.0011681
0.0011719
0.00118929
0.00114041
0.0371754
0.0201837
0.0121203
0.0129315
0.0136305
0.014183
0.01459
0.0148711
0.015054
0.015138
0.0151327
0.0150284
0.0148624
0.0146699
0.0145258
0.014431
0.014359
0.0142369
0.0140037
0.0136787
0.0133366
0.0130611
0.0128472
0.0126555
0.0124574
0.0122861
0.0121869
0.0121298
0.0119796
0.0116274
0.0110987
0.0105228
0.0100575
0.0097538
0.00952468
0.00927862
0.00902313
0.0087908
0.00861093
0.00844846
0.00824221
0.00797028
0.00768183
0.00744897
0.00728066
0.00715857
0.00706737
0.00696191
0.00682682
0.00668284
0.00655534
0.0064856
0.00649483
0.00657316
0.00667861
0.00679975
0.00698997
0.00730062
0.00769367
0.00807158
0.00839703
0.00877459
0.00935962
0.0102263
0.0113576
0.0127248
0.0144988
0.0170494
0.0206719
0.0254916
0.031597
0.0391603
0.0482546
0.0587695
0.0702896
0.0821705
0.0936476
0.104323
0.114606
0.125392
0.136924
0.148258
0.157554
0.163753
0.168299
0.171418
0.168955
0.161508
0.147883
0.114118
0.0708416
0.0293018
0.0150343
0.00857677
0.0059726
0.00523869
0.00520642
0.00573316
0.00647462
0.00704147
0.00727191
0.00688098
0.00611287
0.00549691
0.00511116
0.00541403
0.00596911
0.00636641
0.00635148
0.00524762
0.00386225
0.00318326
0.00258582
0.00221363
0.0018864
0.00169236
0.00156501
0.00155041
0.0015977
0.00165147
0.00167805
0.00172843
0.00177845
0.00192358
0.00209396
0.00224982
0.00208114
0.00178809
0.00168119
0.00155371
0.00147862
0.00140721
0.00136925
0.0013463
0.0013326
0.00132297
0.00131873
0.00131822
0.00131775
0.00131844
0.00131863
0.00131821
0.001318
0.00131936
0.00132181
0.00132306
0.0013225
0.00132173
0.00132175
0.00132264
0.00132363
0.00132441
0.00132515
0.00132456
0.00132281
0.00132219
0.00132245
0.00132151
0.00132016
0.00131946
0.00131901
0.00131896
0.0013178
0.00131534
0.00131293
0.00131174
0.00131102
0.0013087
0.00130567
0.00130367
0.00130233
0.00129918
0.0012947
0.00129227
0.00129123
0.00128847
0.00128396
0.00127978
0.00127692
0.00127433
0.00127098
0.00126728
0.00126351
0.00125972
0.00125585
0.00125174
0.00124735
0.00124334
0.00123998
0.00123638
0.00123205
0.00122801
0.00122476
0.00122092
0.00121572
0.00121016
0.00120601
0.00120341
0.00120056
0.00119598
0.00119082
0.00118674
0.0011838
0.00118072
0.00117692
0.00117296
0.00116901
0.00116469
0.0011607
0.00115754
0.00115469
0.0011516
0.00114836
0.00114529
0.00114225
0.00113871
0.00113549
0.00113315
0.00113109
0.00112863
0.0011256
0.00112334
0.00112191
0.00112013
0.00111776
0.00111543
0.00111408
0.00111354
0.00111301
0.00111227
0.0011111
0.00111018
0.00111014
0.00111016
0.00110915
0.00110871
0.0011097
0.0011109
0.00111126
0.00111077
0.00111017
0.0011105
0.00111146
0.00111205
0.00111231
0.0011125
0.00111264
0.0011123
0.00111195
0.00111234
0.00111303
0.00111343
0.00111328
0.0011125
0.00111216
0.00111246
0.00111282
0.00111279
0.00111225
0.00111145
0.00111079
0.00111039
0.00111031
0.00110983
0.00110923
0.00110879
0.00110855
0.00110782
0.001107
0.00110667
0.00110642
0.00110552
0.00110387
0.00110254
0.00110245
0.00110256
0.00110183
0.00110051
0.00109956
0.00109903
0.00109822
0.00109685
0.00109606
0.00109557
0.00109483
0.00109396
0.00109248
0.00109108
0.00109053
0.00109002
0.00108899
0.00108802
0.00108702
0.00108568
0.00108445
0.00108375
0.00108287
0.00108168
0.00108062
0.00107961
0.00107848
0.00107733
0.00107612
0.00107472
0.00107362
0.00107255
0.0010713
0.00106978
0.00106847
0.00106736
0.00106613
0.00106478
0.00106329
0.00106188
0.00106065
0.00105932
0.0010579
0.0010564
0.00105514
0.00105383
0.00105232
0.00105106
0.00104975
0.00104835
0.00104712
0.00104581
0.00104447
0.00104328
0.0010421
0.00104091
0.00103972
0.0010386
0.00103755
0.00103645
0.00103539
0.00103444
0.00103354
0.00103266
0.00103183
0.00103102
0.00103021
0.00102948
0.0010288
0.00102816
0.00102754
0.00102694
0.00102645
0.00102595
0.00102546
0.00102504
0.00102457
0.00102414
0.00102384
0.00102355
0.00102327
0.00102297
0.00102268
0.00102241
0.00102218
0.00102199
0.0010218
0.00102158
0.00102136
0.00102122
0.00102109
0.00102093
0.00102078
0.00102062
0.00102048
0.00102035
0.0010202
0.00102005
0.0010199
0.00101977
0.00101966
0.00101954
0.0010194
0.00101926
0.00101912
0.00101898
0.00101883
0.00101868
0.00101853
0.0010184
0.00101826
0.00101811
0.00101795
0.00101779
0.00101763
0.00101746
0.00101729
0.00101714
0.00101699
0.00101686
0.00101671
0.00101656
0.00101639
0.00101622
0.00101605
0.0010159
0.00101573
0.0010156
0.00101542
0.00101523
0.00101508
0.00101507
0.00101483
0.00101491
0.00101439
0.00101373
0.00101347
0.00101324
0.00101409
0.00101409
0.00101761
0.00101598
0.0010162
0.00101539
0.00101604
0.00101773
0.00103074
0.00102783
0.00101615
0.00101687
0.00101824
0.00101847
0.00101897
0.001018
0.00101284
0.00101288
0.00101334
0.00101481
0.00101397
0.00101437
0.00101344
0.00101312
0.0010129
0.00101516
0.0010169
0.00101637
0.00101223
0.00101247
0.00101328
0.0010129
0.00101365
0.00101307
0.00101329
0.00101226
0.00101147
0.00101051
0.0010118
0.00101164
0.00103074
0.00102217
0.00101106
0.00104108
0.00104236
0.00108811
0.00110451
0.00120911
0.00119392
0.00109632
0.00110294
0.00109618
0.00108276
0.00107675
0.00107226
0.00104926
0.00105429
0.00104645
0.00103744
0.00103102
0.00102575
0.00102152
0.00101814
0.00101539
0.00101316
0.00101136
0.00100991
0.00100875
0.00100781
0.00100705
0.00100648
0.0010061
0.00100588
0.00100576
0.00100569
0.00100567
0.00100569
0.00100575
0.00100586
0.00100602
0.00100625
0.00100652
0.00100681
0.00100709
0.00100732
0.00100751
0.00100764
0.00100771
0.00100775
0.00100778
0.00100784
0.00100795
0.00100809
0.00100826
0.00100841
0.00100855
0.00100864
0.00100868
0.0010087
0.00100873
0.0010088
0.00100889
0.00100896
0.00100899
0.00100896
0.00100892
0.00100894
0.00100905
0.00100918
0.00100927
0.00100927
0.00100919
0.00100906
0.00100894
0.00100884
0.00100879
0.00100885
0.00100905
0.00100927
0.00100924
0.00100897
0.00100881
0.00100904
0.00100947
0.0010094
0.00100883
0.00100858
0.00100878
0.00100883
0.00100841
0.00100842
0.00100887
0.00100915
0.0010094
0.00101912
0.00102832
0.00105567
0.00102545
0.0605231
0.0217078
0.00812097
0.00816983
0.00806953
0.00798517
0.00785325
0.00772961
0.00762327
0.00753081
0.00743673
0.00731895
0.00717705
0.0070307
0.00690502
0.00681219
0.00674794
0.00668946
0.00661397
0.00651255
0.00638484
0.00625215
0.00613673
0.00604918
0.00598622
0.00593369
0.00587907
0.00582091
0.00575245
0.00566006
0.00553586
0.00538563
0.00523279
0.00510059
0.00499309
0.00490458
0.00481908
0.00472816
0.00463233
0.0045392
0.0044634
0.00440954
0.00436809
0.0043296
0.0042817
0.00422538
0.00417128
0.00412488
0.00408718
0.00405806
0.0040377
0.00402627
0.00402978
0.00405695
0.00410115
0.00415605
0.00423184
0.00434069
0.00446135
0.00455482
0.00461798
0.0046884
0.00480286
0.00496157
0.00513584
0.00533883
0.00565387
0.00617958
0.00696807
0.00803789
0.00944677
0.0113211
0.0137499
0.0167309
0.0201117
0.0237806
0.0276903
0.0316917
0.0358133
0.0402973
0.0454202
0.0513229
0.0579182
0.0651071
0.0724037
0.0794346
0.086311
0.0918936
0.0968018
0.0997039
0.0999639
0.0948609
0.0772094
0.0542491
0.0276443
0.0153579
0.00903971
0.00587443
0.00426395
0.0032798
0.00268167
0.00240373
0.00225925
0.00220946
0.0022411
0.00239567
0.0027094
0.00317915
0.00384363
0.00475281
0.00551962
0.00584236
0.00497827
0.00381232
0.00318319
0.00259914
0.00221675
0.00186951
0.00164222
0.00148789
0.0014407
0.00145299
0.00149554
0.00153654
0.00161011
0.00168517
0.00184471
0.00202457
0.00220015
0.00206788
0.00179692
0.00169083
0.00156362
0.00149214
0.00140538
0.00138209
0.00135778
0.00134206
0.00132363
0.00130987
0.00130341
0.00129986
0.00129993
0.00130016
0.00129979
0.0012989
0.00129738
0.00129605
0.00129564
0.00129572
0.00129631
0.00129616
0.00129528
0.00129357
0.00129187
0.00129138
0.00129179
0.00129208
0.00129045
0.00128733
0.0012852
0.00128459
0.00128393
0.00128148
0.00127758
0.00127545
0.00127469
0.0012723
0.00126798
0.00126437
0.00126253
0.00126024
0.00125629
0.00125237
0.00125003
0.00124732
0.00124289
0.00123869
0.00123616
0.00123389
0.00122984
0.00122516
0.00122165
0.00121811
0.00121388
0.00121014
0.00120757
0.00120445
0.00119984
0.00119527
0.00119127
0.00118769
0.00118437
0.00118093
0.00117736
0.0011735
0.00116947
0.00116571
0.00116259
0.00115948
0.00115601
0.0011524
0.00114892
0.00114609
0.00114355
0.00114057
0.0011369
0.00113283
0.0011296
0.00112761
0.00112563
0.00112266
0.00111937
0.00111665
0.00111445
0.00111245
0.00111044
0.0011083
0.00110547
0.00110274
0.00110113
0.00110015
0.00109919
0.00109749
0.00109525
0.00109324
0.00109182
0.00109128
0.00109123
0.00109107
0.00109039
0.00108921
0.0010884
0.00108827
0.00108814
0.00108793
0.00108813
0.00108832
0.00108809
0.00108784
0.00108822
0.00108908
0.0010893
0.00108899
0.00108946
0.00108973
0.00108888
0.00108839
0.00108913
0.0010901
0.0010902
0.00109009
0.00109007
0.00108969
0.0010892
0.00108927
0.00108961
0.00108927
0.00108849
0.00108843
0.00108866
0.00108871
0.00108858
0.00108771
0.00108679
0.00108641
0.00108626
0.00108612
0.00108604
0.0010857
0.00108498
0.00108405
0.00108336
0.00108273
0.00108217
0.00108192
0.00108165
0.00108121
0.00108039
0.00107963
0.0010787
0.00107771
0.00107754
0.00107749
0.00107683
0.00107564
0.00107464
0.00107403
0.00107372
0.0010732
0.00107224
0.00107146
0.00107074
0.00106992
0.00106921
0.00106853
0.00106762
0.00106681
0.0010661
0.00106534
0.00106454
0.00106367
0.00106274
0.00106177
0.00106104
0.00106016
0.00105925
0.00105824
0.00105713
0.00105626
0.00105537
0.00105434
0.00105328
0.00105227
0.00105127
0.00105024
0.00104916
0.00104805
0.00104706
0.00104612
0.00104504
0.00104388
0.00104282
0.00104178
0.00104085
0.00103988
0.00103881
0.00103777
0.00103685
0.00103595
0.00103504
0.00103411
0.00103321
0.00103241
0.00103161
0.00103073
0.00102997
0.00102927
0.00102858
0.00102794
0.0010273
0.0010267
0.00102612
0.0010256
0.00102509
0.00102456
0.0010241
0.00102371
0.0010233
0.00102294
0.00102258
0.0010222
0.0010219
0.00102164
0.00102141
0.00102116
0.00102092
0.00102067
0.00102042
0.00102025
0.00102013
0.00101996
0.00101975
0.0010196
0.00101948
0.00101934
0.00101921
0.00101906
0.00101891
0.00101879
0.00101866
0.00101852
0.00101839
0.00101826
0.00101814
0.00101801
0.00101788
0.00101773
0.00101759
0.00101745
0.00101733
0.00101718
0.00101704
0.00101689
0.00101676
0.0010166
0.00101643
0.00101626
0.00101609
0.00101593
0.00101578
0.00101562
0.00101548
0.00101534
0.00101519
0.00101503
0.00101489
0.00101471
0.00101458
0.00101439
0.00101421
0.00101405
0.00101402
0.00101381
0.00101397
0.00101344
0.00101279
0.00101259
0.00101381
0.00101311
0.00101299
0.00101655
0.00101509
0.00101524
0.00101476
0.00101524
0.00101729
0.00103155
0.00102818
0.00101497
0.00101551
0.0010165
0.00101673
0.00101713
0.00101589
0.00101084
0.00101092
0.00101144
0.00101391
0.00101364
0.00101378
0.00101283
0.00101254
0.00101263
0.00101773
0.0010164
0.00101378
0.00101144
0.00101184
0.00101215
0.00101204
0.00101229
0.00101188
0.00101181
0.00101062
0.00101044
0.00100917
0.00100888
0.00101021
0.00103018
0.00102455
0.00104025
0.00103959
0.00107444
0.00109562
0.00113584
0.00122483
0.00120647
0.00109954
0.00110168
0.00109094
0.00107304
0.00105458
0.00103956
0.00101779
0.00101504
0.00102139
0.0010235
0.00102433
0.00102349
0.00102148
0.00101922
0.00101707
0.00101511
0.00101333
0.00101169
0.00101024
0.00100902
0.00100799
0.00100709
0.00100635
0.00100578
0.00100539
0.00100514
0.00100498
0.00100485
0.0010047
0.00100452
0.00100437
0.00100428
0.00100431
0.00100444
0.00100465
0.00100489
0.00100514
0.00100537
0.00100555
0.00100567
0.00100574
0.00100577
0.0010058
0.00100584
0.00100592
0.00100604
0.00100618
0.00100632
0.00100645
0.00100655
0.00100661
0.00100664
0.00100668
0.00100674
0.00100683
0.00100692
0.00100698
0.00100697
0.00100693
0.00100692
0.00100699
0.00100713
0.00100724
0.00100724
0.00100713
0.00100699
0.00100687
0.0010068
0.00100679
0.00100682
0.00100691
0.00100701
0.00100701
0.00100686
0.00100679
0.00100703
0.00100742
0.00100737
0.00100673
0.00100638
0.00100672
0.00100702
0.00100643
0.00100603
0.00100658
0.00100693
0.00100657
0.001007
0.00101715
0.00102655
0.00105446
0.00102382
0.0653073
0.0398351
0.00817232
0.00800232
0.00750108
0.00715672
0.00679677
0.00651751
0.00632652
0.00620709
0.00611555
0.00599465
0.00583009
0.00566296
0.00553428
0.00546146
0.00543116
0.00541712
0.00538926
0.0053299
0.00524243
0.00514215
0.00505231
0.00498453
0.00494476
0.00492533
0.0049108
0.00490039
0.00488361
0.00484425
0.00477744
0.00469178
0.00460752
0.00454028
0.00448786
0.00443848
0.00437954
0.00430637
0.00422245
0.00414245
0.00407849
0.0040404
0.00402611
0.00402334
0.00402115
0.00400286
0.00396183
0.00391533
0.0038753
0.00384382
0.00382874
0.00383035
0.00383809
0.00385275
0.00388791
0.00394776
0.00402357
0.00409871
0.00415784
0.00419517
0.00422024
0.00424719
0.00427955
0.00429604
0.0042814
0.00426044
0.00427656
0.00435315
0.00447633
0.00462878
0.00483848
0.00515249
0.00560168
0.00620415
0.00696925
0.00791565
0.00899107
0.0100421
0.0110534
0.0121508
0.0133961
0.0148576
0.0166943
0.0192368
0.0229078
0.028024
0.0344373
0.0419311
0.0496238
0.0563927
0.062068
0.0665207
0.0694254
0.0706312
0.0684888
0.0584112
0.0448461
0.0275062
0.015814
0.00956683
0.00625775
0.00433946
0.00317997
0.00245053
0.0020733
0.00186037
0.00181319