/*--------------------------------*- C++ -*----------------------------------*\
| =========                 |                                                 |
| \\      /  F ield         | OpenFOAM: The Open Source CFD Toolbox           |
|  \\    /   O peration     | Version:  v2006                                 |
|   \\  /    A nd           | Website:  www.openfoam.com                      |
|    \\/     M anipulation  |                                                 |
\*---------------------------------------------------------------------------*/
FoamFile
{
    version     2.0;
    format      ascii;
    class       volScalarField;
    location    "3.9";
    object      p;
}
// * * * * * * * * * * * * * * * * * * * * * * * * * * * * * * * * * * * * * //

dimensions      [1 -1 -2 0 0 0 0];


internalField   nonuniform List<scalar> 
33000
(
7602.8
7588.78
7575.96
7563.24
7550.76
7538.54
7526.65
7515.06
7503.77
7492.75
7481.99
7471.46
7461.14
7451.02
7441.07
7431.3
7421.68
7412.22
7402.93
7393.79
7384.78
7375.9
7367.17
7358.59
7350.17
7341.88
7333.75
7325.78
7317.99
7310.35
7302.84
7295.49
7288.31
7281.31
7274.51
7267.87
7261.39
7255.06
7248.91
7242.98
7237.23
7231.67
7226.29
7221.08
7216.05
7211.23
7206.61
7202.19
7197.96
7193.9
7190.06
7186.39
7182.91
7179.68
7176.65
7173.7
7171
7168.52
7166.24
7164.18
7162.31
7160.58
7159.06
7157.76
7156.67
7155.8
7155.12
7154.62
7154.35
7154.28
7154.43
7154.76
7155.16
7155.58
7156.19
7157.41
7159.02
7156.44
7147.24
7145.71
7151.36
7148.38
7151.3
7150.67
7150.86
7152.86
7154.74
7157.18
7158.55
7160.62
7162.3
7164.31
7166.35
7168.65
7170.51
7172.79
7173.74
7175.23
7173.23
7174.46
7181.3
7184.33
7188.74
7193.44
7198.41
7204.24
7210.79
7217.23
7223.84
7230.57
7237.64
7244.81
7252.22
7259.94
7267.12
7274.88
7280.05
7288.44
7300.94
7310.9
7322.03
7333.55
7345.21
7357.77
7371.04
7384.45
7398.33
7412.52
7426.99
7441.85
7457.02
7472.41
7488.04
7503.87
7519.87
7536.03
7552.35
7568.81
7585.38
7602.05
7618.79
7635.59
7652.42
7669.28
7686.1
7702.89
7719.63
7736.28
7752.82
7769.23
7785.47
7801.54
7817.43
7833.1
7848.53
7863.7
7878.59
7893.2
7907.52
7921.52
7935.19
7948.51
7961.49
7974.13
7986.41
7998.32
8009.85
8021.03
8031.84
8042.28
8052.35
8062.07
8071.44
8080.46
8089.14
8097.49
8105.52
8113.25
8120.69
8127.84
8134.73
8141.37
8147.78
8153.97
8159.94
8165.73
8171.34
8176.79
8182.07
8187.16
8192.04
8196.71
8201.13
8205.31
8209.22
8212.85
8216.2
8219.25
8221.99
8224.42
8226.54
8228.33
8229.79
8230.91
8231.7
8232.16
8232.28
8232.08
8231.54
8230.67
8229.48
8227.98
8226.16
8224.02
8221.6
8218.88
8215.88
8212.6
8209.06
8205.25
8201.2
8196.92
8192.43
8187.72
8182.8
8177.7
8172.43
8166.99
8161.41
8155.69
8149.85
8143.9
8137.84
8131.71
8125.5
8119.23
8112.91
8106.55
8100.16
8093.75
8087.33
8080.92
8074.51
8068.12
8061.76
8055.43
8049.14
8042.9
8036.7
8030.57
8024.51
8018.5
8012.58
8006.73
8000.95
7995.27
7989.67
7984.15
7978.73
7973.4
7968.16
7963.02
7957.97
7953.01
7948.15
7943.39
7938.71
7934.14
7929.65
7925.26
7920.96
7916.75
7912.64
7908.61
7904.67
7900.81
7897.05
7893.36
7889.76
7886.24
7882.8
7879.44
7876.15
7872.94
7869.8
7866.74
7863.74
7860.81
7857.95
7855.15
7852.41
7849.74
7847.13
7844.57
7842.08
7839.64
7837.25
7834.92
7832.64
7830.41
7828.23
7826.1
7824.02
7821.98
7819.98
7818.03
7816.12
7814.25
7812.42
7810.63
7808.87
7807.15
7805.47
7803.82
7802.21
7800.62
7799.07
7797.55
7796.05
7794.59
7793.15
7791.74
7790.36
7789
7787.67
7786.36
7785.07
7783.81
7782.57
7781.35
7780.15
7778.97
7777.81
7776.67
7775.55
7774.45
7773.37
7772.3
7771.25
7770.22
7769.2
7768.2
7767.21
7766.24
7765.29
7764.35
7763.42
7762.51
7761.61
7760.73
7759.86
7759
7758.16
7757.33
7756.51
7755.71
7754.92
7754.14
7753.37
7752.62
7751.87
7751.14
7750.42
7749.72
7749.02
7748.34
7747.66
7747
7746.35
7745.71
7745.08
7744.46
7743.85
7743.25
7742.67
7742.09
7741.52
7740.96
7740.42
7739.88
7739.35
7738.83
7738.33
7737.83
7737.34
7736.86
7736.39
7735.92
7735.47
7735.03
7734.6
7734.17
7733.76
7733.35
7732.95
7732.57
7732.19
7731.82
7731.46
7731.1
7730.76
7730.43
7730.1
7729.78
7729.47
7729.17
7728.88
7728.59
7728.32
7728.05
7727.79
7727.53
7727.29
7727.05
7726.82
7726.59
7726.38
7726.17
7725.96
7725.77
7725.58
7725.4
7725.22
7725.05
7724.89
7724.73
7724.57
7724.43
7724.28
7724.16
7724.02
7723.88
7723.76
7723.64
7723.52
7723.41
7723.31
7723.21
7723.12
7723.04
7722.95
7722.88
7722.81
7722.74
7722.67
7722.61
7722.55
7722.51
7722.46
7722.4
7722.36
7722.31
7722.28
7722.24
7722.21
7722.19
7722.17
7722.15
7722.14
7722.12
7722.12
7722.11
7722.11
7722.11
7722.12
7722.12
7722.13
7722.13
7722.16
7722.18
7722.19
7722.2
7722.21
7722.23
7722.24
7722.26
7722.28
7722.3
7722.32
7722.35
7722.38
7722.4
7722.43
7722.46
7722.49
7722.53
7722.56
7722.6
7722.63
7722.67
7722.71
7722.75
7722.8
7722.84
7722.88
7722.93
7722.98
7723.03
7723.08
7723.13
7723.18
7723.23
7723.29
7723.34
7723.4
7723.46
7723.51
7723.57
7723.63
7723.7
7723.76
7723.82
7723.89
7723.95
7724.02
7724.09
7724.15
7724.22
7724.29
7724.36
7724.44
7724.51
7724.58
7724.66
7724.73
7724.81
7724.89
7724.96
7725.04
7725.12
7725.2
7725.28
7725.36
7725.45
7725.53
7725.61
7725.7
7725.78
7725.87
7725.96
7726.04
7726.13
7726.22
7726.31
7726.4
7726.49
7726.58
7726.68
7726.75
7726.9
7407.62
7393.01
7379.61
7366.5
7353.8
7341.49
7329.57
7318
7306.76
7295.8
7285.1
7274.63
7264.36
7254.28
7244.37
7234.63
7225.05
7215.61
7206.33
7197.18
7188.17
7179.3
7170.58
7162.02
7153.6
7145.33
7137.2
7129.22
7121.41
7113.76
7106.26
7098.91
7091.75
7084.75
7077.91
7071.25
7064.77
7058.46
7052.33
7046.39
7040.64
7035.03
7029.64
7024.47
7019.44
7014.61
7009.98
7005.55
7001.29
6997.26
6993.42
6989.74
6986.28
6983.04
6980.01
6977.09
6974.38
6971.91
6969.65
6967.59
6965.69
6963.92
6962.41
6961.12
6959.99
6959.07
6958.34
6957.79
6957.43
6957.23
6957.2
6957.3
6957.58
6958.03
6958.46
6958.53
6958.17
6957.73
6958.45
6959.96
6956.24
6945.32
6946.8
6956.25
6955.68
6958.62
6959.08
6960.86
6960.32
6963.32
6965.64
6967.86
6969.95
6971.98
6973.91
6976.23
6977.93
6980
6981.32
6981.37
6983.98
6983.05
6987.16
6997.78
7003.16
7009.11
7014.56
7020.54
7026.31
7033.2
7040.94
7048.33
7055.88
7063.56
7071.21
7079.2
7087.22
7095.57
7104.96
7111.3
7122.01
7136.88
7148.96
7161.67
7174.46
7187.42
7201.24
7215.76
7230.34
7245.26
7260.39
7275.75
7291.41
7307.31
7323.35
7339.55
7355.88
7372.34
7388.9
7405.59
7422.35
7439.18
7456.05
7472.92
7489.77
7506.59
7523.35
7540.03
7556.59
7573.02
7589.29
7605.39
7621.3
7636.98
7652.42
7667.61
7682.52
7697.15
7711.48
7725.49
7739.17
7752.5
7765.49
7778.14
7790.42
7802.34
7813.89
7825.07
7835.89
7846.34
7856.42
7866.14
7875.52
7884.55
7893.23
7901.59
7909.63
7917.37
7924.81
7931.98
7938.88
7945.53
7951.94
7958.14
7964.12
7969.92
7975.55
7981
7986.29
7991.39
7996.29
8000.97
8005.4
8009.59
8013.51
8017.15
8020.51
8023.57
8026.31
8028.75
8030.87
8032.66
8034.12
8035.24
8036.04
8036.5
8036.62
8036.41
8035.86
8034.99
8033.8
8032.29
8030.46
8028.32
8025.88
8023.15
8020.14
8016.85
8013.29
8009.47
8005.41
8001.12
7996.6
7991.87
7986.94
7981.83
7976.53
7971.08
7965.48
7959.74
7953.88
7947.91
7941.84
7935.69
7929.46
7923.17
7916.83
7910.46
7904.05
7897.62
7891.19
7884.76
7878.35
7871.94
7865.57
7859.23
7852.93
7846.68
7840.48
7834.34
7828.26
7822.25
7816.32
7810.46
7804.69
7799
7793.39
7787.87
7782.45
7777.11
7771.87
7766.73
7761.67
7756.72
7751.85
7747.09
7742.42
7737.84
7733.36
7728.97
7724.67
7720.46
7716.34
7712.32
7708.38
7704.52
7700.76
7697.08
7693.48
7689.96
7686.52
7683.16
7679.87
7676.66
7673.53
7670.46
7667.47
7664.54
7661.68
7658.88
7656.15
7653.48
7650.87
7648.31
7645.82
7643.38
7641
7638.67
7636.39
7634.16
7631.98
7629.85
7627.77
7625.73
7623.74
7621.79
7619.88
7618.01
7616.18
7614.39
7612.63
7610.92
7609.23
7607.59
7605.97
7604.39
7602.84
7601.31
7599.82
7598.36
7596.92
7595.51
7594.13
7592.77
7591.44
7590.13
7588.84
7587.58
7586.34
7585.12
7583.92
7582.74
7581.59
7580.45
7579.33
7578.22
7577.14
7576.07
7575.02
7573.99
7572.97
7571.97
7570.99
7570.02
7569.06
7568.12
7567.2
7566.28
7565.39
7564.5
7563.63
7562.78
7561.93
7561.1
7560.29
7559.48
7558.69
7557.91
7557.15
7556.39
7555.65
7554.92
7554.2
7553.49
7552.8
7552.11
7551.44
7550.78
7550.12
7549.48
7548.85
7548.24
7547.63
7547.03
7546.44
7545.86
7545.3
7544.74
7544.19
7543.66
7543.13
7542.61
7542.1
7541.6
7541.11
7540.63
7540.16
7539.7
7539.25
7538.81
7538.37
7537.95
7537.53
7537.13
7536.73
7536.34
7535.97
7535.6
7535.24
7534.88
7534.54
7534.21
7533.88
7533.56
7533.25
7532.95
7532.66
7532.37
7532.1
7531.83
7531.57
7531.31
7531.07
7530.83
7530.6
7530.38
7530.16
7529.95
7529.75
7529.55
7529.36
7529.18
7529
7528.83
7528.67
7528.51
7528.37
7528.22
7528.07
7527.93
7527.79
7527.66
7527.54
7527.42
7527.31
7527.2
7527.1
7527
7526.91
7526.82
7526.74
7526.66
7526.6
7526.52
7526.47
7526.41
7526.34
7526.29
7526.24
7526.18
7526.14
7526.1
7526.07
7526.03
7526
7525.98
7525.96
7525.94
7525.92
7525.92
7525.91
7525.91
7525.9
7525.91
7525.9
7525.92
7525.94
7525.94
7525.95
7525.96
7525.97
7525.99
7526
7526.02
7526.04
7526.05
7526.07
7526.1
7526.12
7526.14
7526.17
7526.2
7526.23
7526.26
7526.29
7526.32
7526.36
7526.39
7526.43
7526.47
7526.51
7526.55
7526.59
7526.64
7526.68
7526.73
7526.77
7526.82
7526.87
7526.92
7526.98
7527.03
7527.08
7527.14
7527.2
7527.25
7527.31
7527.37
7527.43
7527.49
7527.56
7527.62
7527.68
7527.75
7527.82
7527.88
7527.95
7528.02
7528.09
7528.16
7528.23
7528.31
7528.38
7528.45
7528.53
7528.61
7528.68
7528.76
7528.84
7528.92
7529
7529.08
7529.16
7529.24
7529.33
7529.41
7529.5
7529.58
7529.67
7529.75
7529.84
7529.93
7530.02
7530.11
7530.2
7530.29
7530.38
7530.48
7530.55
7530.7
7212.94
7197.46
7182.75
7168.83
7155.75
7143.31
7131.42
7119.97
7108.85
7098.04
7087.47
7077.12
7066.95
7056.95
7047.11
7037.43
7027.89
7018.49
7009.23
7000.1
6991.11
6982.26
6973.56
6965
6956.58
6948.31
6940.18
6932.21
6924.38
6916.73
6909.23
6901.87
6894.7
6887.7
6880.84
6874.18
6867.68
6861.38
6855.26
6849.31
6843.53
6837.92
6832.53
6827.35
6822.34
6817.5
6812.87
6808.43
6804.16
6800.12
6796.29
6792.64
6789.18
6785.91
6782.85
6780.01
6777.32
6774.88
6772.58
6770.5
6768.6
6766.84
6765.3
6763.99
6762.84
6761.87
6761.09
6760.5
6760.06
6759.78
6759.64
6759.61
6759.72
6759.93
6760.07
6759.93
6759.55
6759.24
6759.11
6759.13
6759.63
6761.67
6764.43
6760.54
6747.9
6749.4
6763.19
6767.04
6767.27
6769.25
6769.47
6769.94
6772.89
6775.65
6777.8
6780.04
6781.91
6783.94
6786.25
6788.81
6792.35
6795.63
6796.96
6800.48
6799.87
6805.58
6817.74
6825.04
6831.77
6837.89
6844.46
6850.96
6858.53
6866.92
6874.9
6883.13
6891.55
6900.56
6910.49
6920.51
6930.32
6940.97
6948.51
6960.66
6977.29
6990.79
7004.8
7018.79
7032.85
7047.74
7063.31
7078.82
7094.56
7110.42
7126.42
7142.55
7158.89
7175.45
7192.08
7208.82
7225.65
7242.53
7259.45
7276.38
7293.29
7310.16
7326.97
7343.7
7360.31
7376.78
7393.11
7409.25
7425.2
7440.92
7456.39
7471.61
7486.57
7501.23
7515.59
7529.62
7543.32
7556.69
7569.7
7582.35
7594.66
7606.6
7618.17
7629.37
7640.2
7650.67
7660.77
7670.51
7679.9
7688.94
7697.65
7706.03
7714.09
7721.85
7729.31
7736.5
7743.42
7750.1
7756.53
7762.75
7768.76
7774.58
7780.23
7785.7
7791
7796.11
7801.02
7805.71
7810.16
7814.36
7818.3
7821.96
7825.33
7828.4
7831.16
7833.6
7835.73
7837.52
7838.99
7840.12
7840.92
7841.37
7841.49
7841.27
7840.72
7839.85
7838.64
7837.11
7835.26
7833.11
7830.65
7827.9
7824.86
7821.54
7817.95
7814.11
7810.02
7805.69
7801.14
7796.37
7791.41
7786.26
7780.93
7775.44
7769.8
7764.03
7758.13
7752.12
7746.02
7739.83
7733.57
7727.25
7720.88
7714.46
7708.03
7701.57
7695.11
7688.65
7682.21
7675.78
7669.38
7663.02
7656.7
7650.43
7644.21
7638.05
7631.96
7625.94
7620
7614.13
7608.35
7602.65
7597.03
7591.5
7586.07
7580.73
7575.49
7570.33
7565.28
7560.32
7555.45
7550.69
7546.01
7541.44
7536.96
7532.57
7528.27
7524.06
7519.95
7515.93
7511.99
7508.14
7504.38
7500.7
7497.1
7493.59
7490.15
7486.79
7483.51
7480.31
7477.17
7474.11
7471.12
7468.19
7465.34
7462.54
7459.81
7457.15
7454.54
7451.99
7449.5
7447.06
7444.68
7442.36
7440.08
7437.86
7435.68
7433.55
7431.47
7429.44
7427.44
7425.5
7423.59
7421.72
7419.89
7418.11
7416.35
7414.64
7412.96
7411.31
7409.7
7408.12
7406.56
7405.04
7403.55
7402.09
7400.66
7399.25
7397.87
7396.51
7395.18
7393.87
7392.58
7391.32
7390.08
7388.86
7387.66
7386.49
7385.33
7384.19
7383.07
7381.97
7380.88
7379.82
7378.77
7377.73
7376.72
7375.72
7374.73
7373.76
7372.81
7371.87
7370.94
7370.03
7369.13
7368.25
7367.38
7366.52
7365.68
7364.85
7364.03
7363.23
7362.44
7361.66
7360.89
7360.14
7359.4
7358.66
7357.95
7357.24
7356.54
7355.86
7355.19
7354.52
7353.87
7353.23
7352.6
7351.98
7351.38
7350.78
7350.19
7349.61
7349.05
7348.49
7347.94
7347.41
7346.88
7346.36
7345.85
7345.35
7344.87
7344.39
7343.92
7343.45
7343
7342.56
7342.13
7341.7
7341.29
7340.88
7340.49
7340.1
7339.72
7339.35
7338.99
7338.64
7338.3
7337.96
7337.64
7337.32
7337.01
7336.71
7336.42
7336.14
7335.86
7335.59
7335.33
7335.08
7334.83
7334.6
7334.36
7334.14
7333.93
7333.72
7333.52
7333.32
7333.13
7332.95
7332.77
7332.62
7332.45
7332.28
7332.13
7331.97
7331.83
7331.7
7331.56
7331.43
7331.31
7331.19
7331.08
7330.98
7330.87
7330.78
7330.68
7330.6
7330.52
7330.45
7330.38
7330.3
7330.23
7330.17
7330.11
7330.06
7330.01
7329.96
7329.92
7329.87
7329.85
7329.81
7329.79
7329.76
7329.74
7329.72
7329.72
7329.7
7329.7
7329.68
7329.69
7329.71
7329.71
7329.71
7329.72
7329.73
7329.74
7329.75
7329.76
7329.78
7329.79
7329.81
7329.82
7329.84
7329.86
7329.89
7329.91
7329.94
7329.96
7329.99
7330.02
7330.05
7330.08
7330.12
7330.15
7330.19
7330.22
7330.26
7330.3
7330.34
7330.39
7330.43
7330.48
7330.52
7330.57
7330.62
7330.67
7330.72
7330.77
7330.82
7330.88
7330.93
7330.99
7331.05
7331.11
7331.17
7331.23
7331.29
7331.35
7331.41
7331.48
7331.54
7331.61
7331.68
7331.75
7331.82
7331.89
7331.96
7332.03
7332.1
7332.18
7332.25
7332.33
7332.4
7332.48
7332.56
7332.64
7332.72
7332.8
7332.88
7332.96
7333.04
7333.12
7333.21
7333.29
7333.38
7333.46
7333.55
7333.64
7333.73
7333.82
7333.9
7334
7334.09
7334.18
7334.28
7334.35
7334.5
7017.22
7000.28
6983.8
6969.15
6955.9
6943.62
6932.01
6920.87
6910.07
6899.52
6889.18
6879.01
6869
6859.12
6849.38
6839.77
6830.28
6820.93
6811.71
6802.6
6793.64
6784.81
6776.11
6767.55
6759.12
6750.83
6742.72
6734.75
6726.92
6719.25
6711.73
6704.36
6697.18
6690.17
6683.31
6676.62
6670.12
6663.8
6657.67
6651.72
6645.94
6640.32
6634.92
6629.74
6624.73
6619.91
6615.27
6610.81
6606.56
6602.5
6598.67
6595.04
6591.59
6588.31
6585.24
6582.43
6579.78
6577.32
6575.02
6572.93
6571.02
6569.31
6567.77
6566.42
6565.24
6564.23
6563.43
6562.79
6562.3
6561.97
6561.76
6561.68
6561.7
6561.76
6561.76
6561.72
6561.69
6561.58
6561.34
6561.04
6561.12
6561.9
6562.88
6563.84
6565.81
6569.16
6572.56
6569.36
6557.63
6561.63
6575.13
6575.17
6578.19
6578.68
6579.76
6583.23
6586.44
6588.99
6591.46
6594.1
6597.13
6600.17
6604.39
6609.68
6614.13
6618.72
6622.39
6626.59
6627.2
6633.88
6647.59
6655.19
6662.75
6670.27
6677.76
6686.28
6695.67
6704.9
6714.46
6724.3
6734.88
6746.4
6757.96
6769.08
6781.06
6789.65
6803.09
6821.19
6835.86
6850.94
6865.96
6880.92
6896.71
6913.07
6929.3
6945.64
6961.95
6978.46
6995.02
7011.8
7028.71
7045.66
7062.66
7079.67
7096.66
7113.6
7130.49
7147.29
7163.98
7180.54
7196.93
7213.14
7229.15
7244.93
7260.46
7275.74
7290.75
7305.46
7319.85
7333.93
7347.68
7361.08
7374.13
7386.82
7399.15
7411.12
7422.72
7433.95
7444.8
7455.3
7465.43
7475.2
7484.61
7493.69
7502.43
7510.84
7518.93
7526.72
7534.22
7541.45
7548.41
7555.12
7561.59
7567.85
7573.9
7579.75
7585.43
7590.92
7596.23
7601.36
7606.28
7610.99
7615.46
7619.68
7623.64
7627.31
7630.7
7633.79
7636.57
7639.03
7641.16
7642.96
7644.44
7645.57
7646.37
7646.82
7646.93
7646.7
7646.14
7645.25
7644.02
7642.46
7640.58
7638.4
7635.9
7633.11
7630.03
7626.67
7623.04
7619.15
7615.01
7610.64
7606.03
7601.22
7596.2
7591
7585.62
7580.08
7574.38
7568.56
7562.6
7556.55
7550.39
7544.15
7537.83
7531.46
7525.04
7518.58
7512.09
7505.59
7499.09
7492.59
7486.1
7479.63
7473.19
7466.79
7460.44
7454.15
7447.9
7441.72
7435.61
7429.57
7423.61
7417.72
7411.92
7406.21
7400.58
7395.04
7389.6
7384.25
7379
7373.84
7368.78
7363.82
7358.95
7354.18
7349.51
7344.93
7340.45
7336.06
7331.77
7327.57
7323.46
7319.44
7315.51
7311.67
7307.91
7304.23
7300.64
7297.13
7293.7
7290.35
7287.07
7283.87
7280.74
7277.68
7274.7
7271.78
7268.93
7266.14
7263.41
7260.75
7258.15
7255.6
7253.12
7250.69
7248.31
7245.99
7243.72
7241.5
7239.33
7237.2
7235.13
7233.09
7231.11
7229.16
7227.26
7225.39
7223.57
7221.78
7220.03
7218.32
7216.64
7215
7213.39
7211.81
7210.26
7208.74
7207.25
7205.79
7204.36
7202.95
7201.57
7200.21
7198.88
7197.58
7196.29
7195.03
7193.79
7192.57
7191.38
7190.2
7189.04
7187.9
7186.78
7185.68
7184.6
7183.53
7182.48
7181.45
7180.43
7179.43
7178.45
7177.48
7176.52
7175.58
7174.66
7173.75
7172.85
7171.97
7171.1
7170.24
7169.4
7168.57
7167.75
7166.95
7166.16
7165.38
7164.61
7163.86
7163.12
7162.39
7161.67
7160.96
7160.26
7159.58
7158.91
7158.25
7157.59
7156.95
7156.33
7155.71
7155.1
7154.5
7153.92
7153.34
7152.77
7152.22
7151.67
7151.13
7150.61
7150.09
7149.58
7149.08
7148.59
7148.11
7147.65
7147.19
7146.73
7146.29
7145.86
7145.44
7145.02
7144.62
7144.22
7143.84
7143.46
7143.09
7142.73
7142.38
7142.04
7141.7
7141.38
7141.06
7140.75
7140.45
7140.16
7139.88
7139.6
7139.33
7139.08
7138.82
7138.58
7138.34
7138.12
7137.89
7137.68
7137.47
7137.27
7137.07
7136.89
7136.71
7136.52
7136.35
7136.19
7136.03
7135.88
7135.73
7135.58
7135.45
7135.31
7135.19
7135.07
7134.95
7134.84
7134.73
7134.64
7134.54
7134.46
7134.37
7134.28
7134.2
7134.13
7134.06
7134
7133.93
7133.88
7133.82
7133.77
7133.72
7133.69
7133.64
7133.61
7133.59
7133.56
7133.54
7133.51
7133.5
7133.47
7133.48
7133.49
7133.48
7133.48
7133.48
7133.49
7133.5
7133.51
7133.52
7133.53
7133.54
7133.55
7133.56
7133.58
7133.6
7133.61
7133.63
7133.65
7133.68
7133.7
7133.73
7133.75
7133.78
7133.81
7133.84
7133.87
7133.91
7133.94
7133.98
7134.01
7134.05
7134.09
7134.14
7134.18
7134.22
7134.27
7134.31
7134.36
7134.41
7134.46
7134.51
7134.56
7134.62
7134.67
7134.73
7134.78
7134.84
7134.9
7134.96
7135.02
7135.08
7135.14
7135.21
7135.27
7135.34
7135.4
7135.47
7135.54
7135.61
7135.68
7135.75
7135.82
7135.9
7135.97
7136.04
7136.12
7136.2
7136.27
7136.35
7136.43
7136.51
7136.59
7136.67
7136.75
7136.83
7136.92
7137
7137.09
7137.17
7137.26
7137.35
7137.43
7137.52
7137.61
7137.7
7137.79
7137.88
7137.97
7138.07
7138.14
7138.29
6813.4
6796.21
6779.22
6765.39
6753.17
6741.9
6731.15
6720.7
6710.43
6700.3
6690.29
6680.37
6670.56
6660.83
6651.2
6641.67
6632.25
6622.95
6613.76
6604.69
6595.74
6586.92
6578.22
6569.66
6561.22
6552.93
6544.8
6536.83
6529
6521.31
6513.77
6506.39
6499.19
6492.16
6485.3
6478.59
6472.06
6465.74
6459.61
6453.65
6447.84
6442.21
6436.81
6431.62
6426.62
6421.8
6417.12
6412.67
6408.42
6404.37
6400.53
6396.9
6393.47
6390.21
6387.14
6384.32
6381.69
6379.22
6376.93
6374.83
6372.96
6371.26
6369.71
6368.35
6367.16
6366.14
6365.3
6364.62
6364.12
6363.75
6363.49
6363.37
6363.35
6363.36
6363.39
6363.47
6363.62
6363.77
6363.98
6364.28
6364.64
6364.93
6365.2
6365.97
6367.63
6369.82
6371.56
6373.26
6376.83
6380.65
6377.67
6365.92
6370.94
6386.07
6386.27
6389.12
6390.1
6391.49
6395.67
6399.86
6403.29
6406.71
6410.53
6414.56
6418.68
6424.17
6430.26
6435.68
6441.85
6445.45
6450.81
6451.58
6459.09
6474.05
6482.5
6490.96
6499.48
6508.17
6518.05
6528.91
6539.52
6550.44
6561.65
6573.6
6586.49
6599.33
6611.67
6624.85
6634.41
6648.98
6668.36
6684.04
6700.04
6715.79
6731.57
6747.24
6763.68
6780.76
6797.57
6814.48
6831.49
6848.49
6865.6
6882.76
6899.87
6916.94
6933.93
6950.83
6967.62
6984.29
7000.78
7017.08
7033.17
7049.04
7064.66
7080.02
7095.09
7109.86
7124.31
7138.44
7152.24
7165.7
7178.8
7191.54
7203.91
7215.93
7227.57
7238.83
7249.73
7260.27
7270.44
7280.26
7289.71
7298.83
7307.62
7316.08
7324.22
7332.06
7339.62
7346.89
7353.91
7360.67
7367.19
7373.5
7379.6
7385.5
7391.21
7396.74
7402.07
7407.21
7412.16
7416.88
7421.37
7425.61
7429.59
7433.28
7436.69
7439.79
7442.59
7445.06
7447.2
7449.01
7450.49
7451.62
7452.41
7452.85
7452.95
7452.71
7452.12
7451.2
7449.94
7448.35
7446.43
7444.21
7441.67
7438.83
7435.69
7432.27
7428.58
7424.63
7420.43
7415.99
7411.31
7406.42
7401.34
7396.06
7390.61
7385
7379.23
7373.33
7367.3
7361.17
7354.94
7348.63
7342.25
7335.81
7329.32
7322.79
7316.24
7309.68
7303.12
7296.56
7290.02
7283.5
7277.02
7270.58
7264.18
7257.84
7251.56
7245.35
7239.2
7233.13
7227.14
7221.24
7215.42
7209.68
7204.04
7198.49
7193.03
7187.68
7182.41
7177.25
7172.18
7167.21
7162.34
7157.57
7152.9
7148.32
7143.84
7139.46
7135.17
7130.98
7126.87
7122.86
7118.93
7115.1
7111.34
7107.68
7104.09
7100.59
7097.16
7093.82
7090.55
7087.35
7084.23
7081.18
7078.2
7075.29
7072.44
7069.66
7066.94
7064.29
7061.69
7059.16
7056.68
7054.25
7051.88
7049.57
7047.3
7045.09
7042.92
7040.8
7038.73
7036.7
7034.72
7032.78
7030.88
7029.02
7027.2
7025.42
7023.67
7021.96
7020.29
7018.65
7017.04
7015.46
7013.92
7012.4
7010.91
7009.46
7008.02
7006.62
7005.24
7003.89
7002.56
7001.25
6999.97
6998.71
6997.47
6996.26
6995.06
6993.88
6992.73
6991.59
6990.47
6989.37
6988.29
6987.22
6986.17
6985.14
6984.12
6983.12
6982.14
6981.17
6980.21
6979.27
6978.35
6977.44
6976.54
6975.66
6974.79
6973.93
6973.09
6972.26
6971.45
6970.64
6969.85
6969.07
6968.31
6967.55
6966.81
6966.08
6965.36
6964.65
6963.96
6963.28
6962.6
6961.94
6961.29
6960.65
6960.02
6959.4
6958.8
6958.2
6957.61
6957.04
6956.47
6955.92
6955.37
6954.83
6954.31
6953.79
6953.28
6952.79
6952.3
6951.82
6951.35
6950.89
6950.44
6950
6949.57
6949.15
6948.73
6948.33
6947.94
6947.55
6947.17
6946.8
6946.45
6946.1
6945.76
6945.42
6945.1
6944.78
6944.47
6944.18
6943.88
6943.6
6943.33
6943.06
6942.8
6942.55
6942.31
6942.07
6941.84
6941.62
6941.41
6941.21
6941.01
6940.8
6940.62
6940.43
6940.26
6940.09
6939.93
6939.76
6939.61
6939.46
6939.33
6939.19
6939.06
6938.93
6938.81
6938.7
6938.6
6938.49
6938.38
6938.29
6938.19
6938.11
6938.02
6937.95
6937.87
6937.81
6937.74
6937.68
6937.62
6937.57
6937.52
6937.48
6937.44
6937.4
6937.38
6937.33
6937.32
6937.28
6937.28
6937.29
6937.27
6937.27
6937.27
6937.26
6937.27
6937.27
6937.28
6937.28
6937.29
6937.3
6937.31
6937.32
6937.33
6937.35
6937.36
6937.38
6937.4
6937.42
6937.44
6937.46
6937.49
6937.51
6937.54
6937.57
6937.6
6937.63
6937.66
6937.69
6937.73
6937.76
6937.8
6937.84
6937.88
6937.92
6937.97
6938.01
6938.05
6938.1
6938.15
6938.2
6938.25
6938.3
6938.35
6938.4
6938.46
6938.51
6938.57
6938.63
6938.69
6938.75
6938.81
6938.87
6938.93
6939
6939.06
6939.13
6939.19
6939.26
6939.33
6939.4
6939.47
6939.54
6939.61
6939.69
6939.76
6939.84
6939.91
6939.99
6940.07
6940.14
6940.22
6940.3
6940.38
6940.46
6940.54
6940.63
6940.71
6940.79
6940.88
6940.97
6941.05
6941.14
6941.23
6941.31
6941.4
6941.49
6941.58
6941.67
6941.77
6941.86
6941.94
6942.08
6576.06
6572.72
6564.49
6556.29
6547.52
6538.51
6529.26
6519.83
6510.27
6500.65
6491.01
6481.37
6471.76
6462.19
6452.66
6443.21
6433.85
6424.59
6415.44
6406.39
6397.45
6388.64
6379.94
6371.36
6362.91
6354.61
6346.46
6338.46
6330.62
6322.93
6315.37
6307.97
6300.74
6293.69
6286.81
6280.1
6273.57
6267.23
6261.08
6255.08
6249.25
6243.62
6238.21
6233.02
6228.02
6223.18
6218.51
6214.07
6209.82
6205.77
6201.93
6198.29
6194.87
6191.62
6188.57
6185.73
6183.09
6180.63
6178.34
6176.26
6174.39
6172.69
6171.15
6169.79
6168.61
6167.6
6166.75
6166.06
6165.54
6165.16
6164.9
6164.76
6164.72
6164.75
6164.84
6165.01
6165.25
6165.56
6166
6166.59
6167.26
6167.97
6168.8
6169.83
6171.06
6172.28
6173.49
6175.11
6177.11
6179.24
6181.53
6185.85
6190.37
6187.5
6175.45
6181.79
6199.17
6199.65
6202.37
6204.13
6206.18
6211.41
6216.7
6221.39
6225.82
6230.72
6235.46
6240.98
6246.27
6252.69
6259.71
6266.34
6271.13
6277.36
6278.67
6287.05
6303.59
6313.22
6322.84
6332.7
6342.73
6353.97
6366.21
6378.14
6390.36
6402.84
6416
6430.15
6444.08
6457.46
6471.61
6481.91
6497.61
6517.59
6534.43
6550.99
6566.92
6583.41
6599.59
6616.57
6634.03
6651.23
6668.45
6685.73
6702.91
6720.12
6737.29
6754.32
6771.23
6788.02
6804.64
6821.06
6837.26
6853.23
6868.96
6884.42
6899.58
6914.44
6928.97
6943.18
6957.04
6970.57
6983.74
6996.55
7008.98
7021.05
7032.74
7044.07
7055.02
7065.62
7075.86
7085.73
7095.26
7104.44
7113.29
7121.82
7130.03
7137.94
7145.57
7152.92
7160
7166.83
7173.43
7179.8
7185.96
7191.91
7197.66
7203.22
7208.58
7213.75
7218.7
7223.44
7227.95
7232.21
7236.2
7239.91
7243.32
7246.44
7249.25
7251.73
7253.89
7255.7
7257.17
7258.3
7259.08
7259.51
7259.59
7259.32
7258.7
7257.74
7256.43
7254.8
7252.83
7250.55
7247.95
7245.04
7241.84
7238.34
7234.57
7230.55
7226.26
7221.73
7216.97
7212
7206.82
7201.46
7195.91
7190.2
7184.35
7178.35
7172.23
7166.01
7159.69
7153.29
7146.82
7140.29
7133.71
7127.11
7120.48
7113.85
7107.21
7100.58
7093.97
7087.39
7080.85
7074.35
7067.9
7061.51
7055.18
7048.92
7042.73
7036.63
7030.61
7024.67
7018.82
7013.07
7007.41
7001.84
6996.37
6991
6985.72
6980.55
6975.47
6970.5
6965.63
6960.86
6956.19
6951.61
6947.13
6942.75
6938.47
6934.28
6930.18
6926.18
6922.26
6918.43
6914.69
6911.03
6907.45
6903.96
6900.54
6897.2
6893.94
6890.76
6887.64
6884.6
6881.63
6878.73
6875.89
6873.12
6870.41
6867.76
6865.17
6862.65
6860.17
6857.76
6855.4
6853.09
6850.83
6848.62
6846.46
6844.35
6842.29
6840.26
6838.29
6836.35
6834.46
6832.6
6830.79
6829.01
6827.27
6825.57
6823.9
6822.26
6820.65
6819.08
6817.54
6816.03
6814.54
6813.09
6811.66
6810.26
6808.88
6807.53
6806.2
6804.9
6803.62
6802.36
6801.13
6799.91
6798.71
6797.54
6796.38
6795.25
6794.13
6793.03
6791.95
6790.88
6789.83
6788.8
6787.78
6786.78
6785.8
6784.83
6783.88
6782.94
6782.01
6781.1
6780.21
6779.32
6778.45
6777.6
6776.76
6775.93
6775.11
6774.31
6773.52
6772.74
6771.97
6771.22
6770.48
6769.75
6769.03
6768.32
6767.63
6766.94
6766.27
6765.61
6764.96
6764.32
6763.69
6763.08
6762.47
6761.87
6761.29
6760.71
6760.14
6759.59
6759.04
6758.51
6757.98
6757.47
6756.96
6756.47
6755.98
6755.5
6755.03
6754.57
6754.13
6753.69
6753.26
6752.83
6752.42
6752.02
6751.63
6751.24
6750.87
6750.5
6750.14
6749.79
6749.45
6749.12
6748.8
6748.48
6748.18
6747.88
6747.59
6747.31
6747.04
6746.77
6746.51
6746.26
6746.02
6745.78
6745.57
6745.35
6745.12
6744.91
6744.71
6744.52
6744.33
6744.15
6743.97
6743.81
6743.64
6743.49
6743.33
6743.19
6743.04
6742.91
6742.78
6742.67
6742.55
6742.42
6742.32
6742.2
6742.11
6742.01
6741.93
6741.84
6741.76
6741.68
6741.61
6741.54
6741.48
6741.42
6741.37
6741.32
6741.27
6741.23
6741.18
6741.14
6741.12
6741.11
6741.1
6741.08
6741.07
6741.06
6741.05
6741.05
6741.05
6741.05
6741.05
6741.05
6741.06
6741.06
6741.07
6741.08
6741.09
6741.1
6741.11
6741.13
6741.14
6741.16
6741.18
6741.2
6741.22
6741.24
6741.27
6741.29
6741.32
6741.35
6741.38
6741.41
6741.44
6741.48
6741.51
6741.55
6741.59
6741.63
6741.67
6741.71
6741.75
6741.79
6741.84
6741.89
6741.93
6741.98
6742.03
6742.09
6742.14
6742.19
6742.25
6742.3
6742.36
6742.42
6742.48
6742.54
6742.6
6742.66
6742.72
6742.79
6742.85
6742.92
6742.98
6743.05
6743.12
6743.19
6743.26
6743.33
6743.4
6743.48
6743.55
6743.63
6743.7
6743.78
6743.86
6743.93
6744.01
6744.09
6744.17
6744.25
6744.34
6744.42
6744.5
6744.59
6744.67
6744.76
6744.84
6744.93
6745.02
6745.11
6745.19
6745.28
6745.37
6745.47
6745.56
6745.65
6745.73
6745.88
6332.96
6343.37
6347.86
6346.61
6341.85
6335.27
6327.49
6319.02
6310.09
6300.91
6291.58
6282.18
6272.75
6263.3
6253.85
6244.46
6235.13
6225.9
6216.76
6207.72
6198.8
6189.99
6181.28
6172.68
6164.21
6155.87
6147.69
6139.67
6131.81
6124.12
6116.54
6109.1
6101.85
6094.77
6087.87
6081.16
6074.64
6068.28
6062.06
6056.05
6050.23
6044.6
6039.17
6033.97
6028.95
6024.08
6019.45
6015.01
6010.77
6006.73
6002.89
5999.23
5995.79
5992.56
5989.51
5986.66
5984.02
5981.56
5979.28
5977.21
5975.34
5973.66
5972.13
5970.77
5969.6
5968.62
5967.78
5967.09
5966.56
5966.2
5965.96
5965.83
5965.82
5965.9
5966.09
5966.37
5966.71
5967.15
5967.73
5968.44
5969.25
5970.19
5971.34
5972.69
5974.09
5975.51
5977.06
5978.69
5980.26
5981.84
5983.96
5986.51
5989.16
5991.89
5996.99
6002.26
5999.5
5986.87
5994.91
6014.19
6015.44
6018.48
6021.28
6024.02
6030.52
6036.98
6042.55
6048.12
6053.85
6059.39
6065.47
6071.46
6078.58
6086.49
6094
6099.81
6107.07
6108.97
6118.64
6136.93
6147.93
6158.83
6170.07
6181.36
6193.96
6207.55
6220.74
6234.16
6247.81
6262
6277.2
6291.9
6307.11
6321.63
6336.46
6347.74
6364
6385.16
6402.24
6419.39
6436.47
6453.26
6470.66
6488.47
6505.89
6523.25
6540.57
6557.72
6574.8
6591.77
6608.54
6625.1
6641.46
6657.56
6673.42
6689
6704.28
6719.25
6733.88
6748.18
6762.13
6775.74
6788.99
6801.88
6814.4
6826.54
6838.31
6849.72
6860.75
6871.43
6881.75
6891.71
6901.32
6910.59
6919.52
6928.14
6936.45
6944.45
6952.16
6959.6
6966.77
6973.69
6980.36
6986.8
6993.03
6999.04
7004.84
7010.44
7015.84
7021.02
7026
7030.75
7035.27
7039.53
7043.53
7047.25
7050.68
7053.8
7056.61
7059.1
7061.25
7063.05
7064.51
7065.63
7066.39
7066.79
7066.84
7066.54
7065.87
7064.86
7063.51
7061.81
7059.79
7057.43
7054.76
7051.77
7048.48
7044.9
7041.04
7036.91
7032.52
7027.89
7023.03
7017.95
7012.66
7007.18
7001.52
6995.7
6989.73
6983.62
6977.39
6971.05
6964.62
6958.11
6951.53
6944.9
6938.22
6931.52
6924.8
6918.07
6911.34
6904.63
6897.94
6891.28
6884.66
6878.09
6871.58
6865.12
6858.74
6852.43
6846.2
6840.05
6833.98
6828.01
6822.13
6816.35
6810.67
6805.08
6799.59
6794.21
6788.92
6783.74
6778.66
6773.68
6768.81
6764.04
6759.37
6754.79
6750.32
6745.94
6741.67
6737.48
6733.39
6729.39
6725.49
6721.67
6717.93
6714.28
6710.72
6707.23
6703.83
6700.5
6697.25
6694.08
6690.98
6687.95
6684.99
6682.09
6679.27
6676.5
6673.81
6671.17
6668.59
6666.07
6663.61
6661.21
6658.85
6656.55
6654.3
6652.1
6649.95
6647.85
6645.79
6643.78
6641.81
6639.88
6637.99
6636.14
6634.34
6632.56
6630.83
6629.13
6627.46
6625.83
6624.23
6622.66
6621.13
6619.62
6618.14
6616.69
6615.26
6613.86
6612.49
6611.14
6609.82
6608.52
6607.24
6605.98
6604.75
6603.53
6602.34
6601.16
6600.01
6598.87
6597.76
6596.66
6595.58
6594.51
6593.46
6592.43
6591.42
6590.42
6589.43
6588.47
6587.51
6586.57
6585.65
6584.74
6583.84
6582.96
6582.09
6581.23
6580.39
6579.56
6578.75
6577.94
6577.15
6576.38
6575.61
6574.86
6574.12
6573.39
6572.67
6571.96
6571.27
6570.58
6569.91
6569.25
6568.6
6567.96
6567.34
6566.72
6566.11
6565.52
6564.93
6564.36
6563.79
6563.24
6562.69
6562.16
6561.63
6561.12
6560.61
6560.12
6559.63
6559.16
6558.69
6558.23
6557.79
6557.35
6556.92
6556.5
6556.09
6555.69
6555.29
6554.91
6554.54