/*--------------------------------*- C++ -*----------------------------------*\
| =========                 |                                                 |
| \\      /  F ield         | OpenFOAM: The Open Source CFD Toolbox           |
|  \\    /   O peration     | Version:  v2006                                 |
|   \\  /    A nd           | Website:  www.openfoam.com                      |
|    \\/     M anipulation  |                                                 |
\*---------------------------------------------------------------------------*/
FoamFile
{
    version     2.0;
    format      ascii;
    class       volScalarField;
    location    "3.9";
    object      p_rgh;
}
// * * * * * * * * * * * * * * * * * * * * * * * * * * * * * * * * * * * * * //

dimensions      [1 -1 -2 0 0 0 0];


internalField   nonuniform List<scalar> 
33000
(
7700.85
7686.83
7674.03
7661.34
7648.86
7636.64
7624.75
7613.16
7601.85
7590.83
7580.07
7569.54
7559.24
7549.12
7539.17
7529.38
7519.74
7510.28
7501
7491.89
7482.88
7474
7465.27
7456.69
7448.26
7439.95
7431.78
7423.82
7416.08
7408.44
7400.93
7393.56
7386.34
7379.36
7372.6
7365.97
7359.48
7353.15
7346.95
7341
7335.28
7329.76
7324.39
7319.17
7314.12
7309.27
7304.7
7300.29
7296.06
7292
7288.15
7284.48
7280.99
7277.77
7274.75
7271.8
7269.1
7266.61
7264.32
7262.22
7260.37
7258.67
7257.15
7255.85
7254.76
7253.89
7253.21
7252.72
7252.44
7252.35
7252.49
7252.82
7253.21
7253.65
7254.28
7255.5
7257.11
7254.53
7245.31
7243.77
7249.43
7246.44
7249.38
7248.77
7248.95
7250.96
7252.84
7255.28
7256.62
7258.68
7260.37
7262.4
7264.45
7266.74
7268.59
7270.87
7271.84
7273.33
7271.33
7272.56
7279.38
7282.41
7286.82
7291.52
7296.5
7302.33
7308.88
7315.32
7321.94
7328.66
7335.72
7342.89
7350.31
7358.04
7365.22
7372.98
7378.14
7386.52
7399.03
7409
7420.13
7431.65
7443.31
7455.85
7469.11
7482.54
7496.42
7510.61
7525.07
7539.94
7555.12
7570.5
7586.13
7601.95
7617.96
7634.13
7650.44
7666.9
7683.47
7700.14
7716.88
7733.67
7750.51
7767.37
7784.2
7800.99
7817.71
7834.36
7850.92
7867.32
7883.56
7899.63
7915.51
7931.2
7946.63
7961.8
7976.69
7991.29
8005.62
8019.62
8033.28
8046.6
8059.59
8072.23
8084.51
8096.41
8107.94
8119.13
8129.94
8140.38
8150.45
8160.16
8169.54
8178.56
8187.24
8195.58
8203.61
8211.34
8218.78
8225.94
8232.83
8239.46
8245.87
8252.06
8258.04
8263.82
8269.43
8274.88
8280.17
8285.25
8290.13
8294.79
8299.23
8303.41
8307.31
8310.95
8314.29
8317.34
8320.08
8322.52
8324.64
8326.43
8327.88
8329
8329.79
8330.25
8330.38
8330.18
8329.64
8328.77
8327.58
8326.07
8324.25
8322.12
8319.69
8316.98
8313.98
8310.7
8307.15
8303.34
8299.29
8295.02
8290.52
8285.81
8280.9
8275.79
8270.52
8265.09
8259.51
8253.79
8247.95
8241.99
8235.94
8229.81
8223.6
8217.33
8211
8204.64
8198.25
8191.85
8185.43
8179.01
8172.61
8166.22
8159.86
8153.53
8147.24
8140.99
8134.8
8128.67
8122.6
8116.6
8110.67
8104.82
8099.05
8093.36
8087.77
8082.25
8076.83
8071.5
8066.26
8061.12
8056.07
8051.11
8046.25
8041.48
8036.81
8032.24
8027.75
8023.36
8019.06
8014.85
8010.73
8006.71
8002.77
7998.91
7995.15
7991.46
7987.86
7984.34
7980.9
7977.53
7974.25
7971.04
7967.9
7964.83
7961.84
7958.91
7956.04
7953.25
7950.51
7947.84
7945.23
7942.67
7940.18
7937.74
7935.35
7933.02
7930.74
7928.51
7926.33
7924.2
7922.12
7920.08
7918.08
7916.13
7914.22
7912.35
7910.52
7908.73
7906.97
7905.25
7903.57
7901.92
7900.31
7898.72
7897.17
7895.65
7894.15
7892.69
7891.25
7889.84
7888.46
7887.1
7885.77
7884.46
7883.17
7881.91
7880.67
7879.45
7878.25
7877.07
7875.91
7874.77
7873.65
7872.55
7871.47
7870.4
7869.35
7868.32
7867.3
7866.3
7865.31
7864.34
7863.39
7862.45
7861.52
7860.61
7859.71
7858.83
7857.96
7857.1
7856.26
7855.43
7854.61
7853.81
7853.02
7852.24
7851.47
7850.72
7849.97
7849.24
7848.52
7847.82
7847.12
7846.44
7845.76
7845.1
7844.45
7843.81
7843.18
7842.56
7841.95
7841.35
7840.77
7840.19
7839.62
7839.06
7838.52
7837.98
7837.45
7836.93
7836.43
7835.93
7835.44
7834.96
7834.49
7834.02
7833.57
7833.13
7832.7
7832.27
7831.86
7831.45
7831.05
7830.67
7830.29
7829.92
7829.56
7829.2
7828.86
7828.53
7828.2
7827.88
7827.57
7827.27
7826.98
7826.69
7826.42
7826.15
7825.88
7825.63
7825.39
7825.15
7824.92
7824.69
7824.48
7824.27
7824.06
7823.87
7823.68
7823.5
7823.32
7823.15
7822.99
7822.83
7822.67
7822.53
7822.38
7822.26
7822.12
7821.98
7821.86
7821.74
7821.62
7821.51
7821.41
7821.31
7821.22
7821.14
7821.05
7820.98
7820.91
7820.84
7820.77
7820.71
7820.65
7820.61
7820.56
7820.5
7820.46
7820.41
7820.38
7820.34
7820.31
7820.29
7820.27
7820.25
7820.24
7820.22
7820.22
7820.21
7820.21
7820.21
7820.22
7820.22
7820.23
7820.23
7820.26
7820.28
7820.28
7820.29
7820.31
7820.32
7820.34
7820.36
7820.38
7820.4
7820.42
7820.45
7820.47
7820.5
7820.53
7820.56
7820.59
7820.63
7820.66
7820.7
7820.73
7820.77
7820.81
7820.85
7820.9
7820.94
7820.98
7821.03
7821.08
7821.13
7821.18
7821.23
7821.28
7821.33
7821.39
7821.44
7821.5
7821.56
7821.61
7821.67
7821.73
7821.8
7821.86
7821.92
7821.99
7822.05
7822.12
7822.19
7822.25
7822.32
7822.39
7822.46
7822.54
7822.61
7822.68
7822.76
7822.83
7822.91
7822.99
7823.06
7823.14
7823.22
7823.3
7823.38
7823.46
7823.55
7823.63
7823.71
7823.8
7823.88
7823.97
7824.06
7824.14
7824.23
7824.32
7824.41
7824.5
7824.59
7824.68
7824.78
7824.85
7825
7701.93
7687.33
7673.93
7660.82
7648.12
7635.81
7623.89
7612.32
7601.07
7590.11
7579.41
7568.93
7558.66
7548.58
7538.67
7528.91
7519.25
7509.79
7500.51
7491.45
7482.47
7473.6
7464.87
7456.22
7447.7
7439.43
7431.3
7423.35
7415.67
7408.03
7400.43
7393.03
7385.86
7378.88
7372.18
7365.54
7359.03
7352.59
7346.39
7340.45
7334.76
7329.31
7323.94
7318.76
7313.67
7308.75
7304.13
7299.71
7295.57
7291.55
7287.71
7283.98
7280.45
7277.22
7274.28
7271.36
7268.53
7266.01
7263.75
7261.69
7259.88
7258.18
7256.66
7255.25
7254.1
7253.23
7252.62
7252.07
7251.71
7251.44
7251.38
7251.48
7251.75
7252.29
7252.74
7252.82
7252.45
7252
7252.67
7254.16
7250.49
7239.56
7241.01
7250.49
7249.97
7252.92
7253.36
7255.09
7254.52
7257.52
7259.84
7262.13
7264.24
7266.26
7268.15
7270.47
7272.2
7274.3
7275.62
7275.66
7278.22
7277.28
7281.4
7292.02
7297.4
7303.39
7308.84
7314.81
7320.52
7327.4
7335.14
7342.53
7350.13
7357.85
7365.5
7373.49
7381.47
7389.82
7399.22
7405.59
7416.29
7431.11
7443.18
7455.9
7468.68
7481.68
7495.52
7510.03
7524.58
7539.5
7554.67
7570.01
7585.64
7601.55
7617.59
7633.82
7650.16
7666.62
7683.19
7699.85
7716.6
7733.42
7750.3
7767.2
7784.02
7800.82
7817.59
7834.28
7850.87
7867.29
7883.53
7899.62
7915.52
7931.23
7946.71
7961.89
7976.78
7991.4
8005.73
8019.77
8033.45
8046.77
8059.75
8072.43
8084.72
8096.62
8108.15
8119.36
8130.19
8140.63
8150.69
8160.4
8169.8
8178.84
8187.52
8195.86
8203.89
8211.63
8219.09
8226.26
8233.15
8239.79
8246.2
8252.41
8258.41
8264.18
8269.8
8275.28
8280.58
8285.67
8290.56
8295.23
8299.67
8303.87
8307.78
8311.42
8314.79
8317.84
8320.58
8323.01
8325.14
8326.95
8328.41
8329.52
8330.31
8330.77
8330.89
8330.7
8330.16
8329.27
8328.07
8326.56
8324.75
8322.6
8320.16
8317.43
8314.41
8311.14
8307.58
8303.75
8299.68
8295.39
8290.88
8286.17
8281.24
8276.1
8270.81
8265.36
8259.75
8254.02
8248.17
8242.19
8236.12
8229.96
8223.74
8217.45
8211.12
8204.74
8198.33
8191.91
8185.49
8179.05
8172.63
8166.23
8159.85
8153.52
8147.22
8140.96
8134.76
8128.63
8122.55
8116.54
8110.61
8104.76
8098.98
8093.28
8087.68
8082.16
8076.74
8071.4
8066.16
8061.02
8055.97
8051.01
8046.15
8041.38
8036.7
8032.13
8027.65
8023.26
8018.96
8014.75
8010.63
8006.61
8002.67
7998.82
7995.05
7991.37
7987.77
7984.25
7980.81
7977.45
7974.17
7970.96
7967.83
7964.76
7961.77
7958.83
7955.97
7953.17
7950.44
7947.78
7945.17
7942.61
7940.12
7937.68
7935.3
7932.97
7930.69
7928.46
7926.28
7924.15
7922.07
7920.03
7918.03
7916.08
7914.17
7912.31
7910.48
7908.68
7906.93
7905.22
7903.53
7901.88
7900.27
7898.69
7897.14
7895.61
7894.12
7892.66
7891.22
7889.81
7888.43
7887.07
7885.74
7884.43
7883.14
7881.88
7880.64
7879.42
7878.22
7877.04
7875.88
7874.75
7873.62
7872.52
7871.44
7870.37
7869.32
7868.29
7867.27
7866.27
7865.28
7864.31
7863.36
7862.42
7861.49
7860.58
7859.69
7858.8
7857.93
7857.08
7856.23
7855.4
7854.59
7853.78
7852.99
7852.21
7851.45
7850.69
7849.95
7849.22
7848.5
7847.79
7847.09
7846.41
7845.74
7845.07
7844.42
7843.78
7843.15
7842.53
7841.93
7841.33
7840.74
7840.16
7839.6
7839.04
7838.49
7837.95
7837.43
7836.91
7836.4
7835.9
7835.41
7834.93
7834.46
7834
7833.55
7833.11
7832.67
7832.25
7831.83
7831.43
7831.03
7830.64
7830.27
7829.9
7829.53
7829.18
7828.84
7828.51
7828.18
7827.86
7827.55
7827.25
7826.96
7826.67
7826.4
7826.13
7825.87
7825.61
7825.37
7825.13
7824.9
7824.67
7824.46
7824.25
7824.05
7823.85
7823.66
7823.48
7823.3
7823.13
7822.97
7822.81
7822.67
7822.52
7822.37
7822.23
7822.09
7821.96
7821.84
7821.72
7821.61
7821.5
7821.4
7821.3
7821.21
7821.12
7821.04
7820.96
7820.9
7820.82
7820.77
7820.71
7820.64
7820.59
7820.53
7820.48
7820.44
7820.4
7820.36
7820.33
7820.3
7820.28
7820.26
7820.24
7820.22
7820.22
7820.21
7820.21
7820.2
7820.21
7820.2
7820.22
7820.25
7820.25
7820.26
7820.28
7820.29
7820.31
7820.32
7820.34
7820.35
7820.37
7820.39
7820.41
7820.43
7820.46
7820.48
7820.51
7820.54
7820.57
7820.6
7820.63
7820.66
7820.7
7820.73
7820.77
7820.81
7820.85
7820.89
7820.94
7820.98
7821.03
7821.08
7821.12
7821.17
7821.23
7821.28
7821.33
7821.39
7821.44
7821.5
7821.55
7821.61
7821.67
7821.73
7821.79
7821.86
7821.92
7821.99
7822.05
7822.12
7822.18
7822.25
7822.32
7822.39
7822.46
7822.53
7822.61
7822.68
7822.76
7822.83
7822.91
7822.98
7823.06
7823.14
7823.22
7823.3
7823.38
7823.46
7823.55
7823.63
7823.71
7823.8
7823.88
7823.97
7824.06
7824.14
7824.23
7824.32
7824.41
7824.5
7824.59
7824.68
7824.78
7824.85
7825
7703.46
7687.98
7673.27
7659.35
7646.27
7633.83
7621.94
7610.48
7599.37
7588.54
7577.98
7567.62
7557.45
7547.45
7537.61
7527.91
7518.32
7508.9
7499.69
7490.55
7481.44
7472.56
7463.86
7455.38
7447.05
7438.75
7430.42
7422.33
7414.5
7406.87
7399.64
7392.34
7385.1
7377.98
7371.13
7364.56
7358.17
7351.87
7345.64
7339.49
7333.74
7328.4
7323.03
7317.85
7312.76
7307.76
7303.11
7298.67
7294.49
7290.59
7286.76
7282.99
7279.46
7276.22
7273.31
7270.46
7267.58
7265.05
7262.75
7260.77
7259.01
7257.19
7255.49
7254.18
7253.03
7252.13
7251.56
7250.98
7250.53
7250.12
7249.93
7249.9
7250.09
7250.4
7250.54
7250.36
7249.95
7249.65
7249.57
7249.6
7250.09
7252.01
7254.7
7250.96
7238.4
7239.89
7253.69
7257.51
7257.66
7259.58
7259.93
7260.43
7263.38
7266.11
7268.2
7270.44
7272.38
7274.43
7276.74
7279.3
7282.84
7286.06
7287.36
7290.9
7290.34
7296.05
7308.13
7315.43
7322.17
7328.35
7334.93
7341.35
7348.93
7357.38
7365.38
7373.61
7382
7390.98
7400.9
7410.96
7420.79
7431.43
7438.89
7451.03
7467.67
7481.24
7495.26
7509.23
7523.26
7538.15
7553.72
7569.22
7584.99
7600.89
7616.89
7632.99
7649.31
7665.87
7682.53
7699.28
7716.09
7732.93
7749.91
7766.8
7783.68
7800.55
7817.43
7834.16
7850.76
7867.17
7883.49
7899.63
7915.64
7931.4
7946.86
7962.02
7976.96
7991.66
8006.07
8020.1
8033.77
8047.11
8060.12
8072.83
8085.15
8097.04
8108.59
8119.81
8130.69
8141.14
8151.19
8160.94
8170.36
8179.43
8188.1
8196.46
8204.54
8212.3
8219.76
8226.94
8233.86
8240.57
8247.01
8253.23
8259.21
8265.01
8270.65
8276.16
8281.48
8286.6
8291.51
8296.2
8300.61
8304.79
8308.74
8312.44
8315.82
8318.89
8321.61
8324.04
8326.19
8328.01
8329.47
8330.57
8331.36
8331.85
8331.98
8331.76
8331.19
8330.3
8329.1
8327.6
8325.74
8323.56
8321.11
8318.38
8315.35
8312.03
8308.45
8304.59
8300.47
8296.15
8291.62
8286.86
8281.9
8276.73
8271.39
8265.91
8260.29
8254.52
8248.62
8242.61
8236.49
8230.31
8224.06
8217.74
8211.37
8204.96
8198.52
8192.04
8185.57
8179.12
8172.68
8166.27
8159.87
8153.51
8147.19
8140.9
8134.68
8128.53
8122.45
8116.43
8110.48
8104.61
8098.83
8093.14
8087.52
8082
8076.55
8071.21
8065.98
8060.83
8055.77
8050.8
8045.94
8041.17
8036.5
8031.93
8027.45
8023.06
8018.77
8014.56
8010.44
8006.41
8002.47
7998.63
7994.87
7991.19
7987.6
7984.08
7980.65
7977.28
7974
7970.8
7967.67
7964.61
7961.61
7958.68
7955.83
7953.04
7950.31
7947.64
7945.04
7942.48
7939.99
7937.56
7935.18
7932.85
7930.58
7928.35
7926.18
7924.05
7921.97
7919.93
7917.94
7915.99
7914.09
7912.22
7910.39
7908.6
7906.85
7905.14
7903.45
7901.81
7900.2
7898.61
7897.06
7895.54
7894.05
7892.59
7891.16
7889.75
7888.37
7887.01
7885.68
7884.37
7883.08
7881.82
7880.58
7879.36
7878.16
7876.99
7875.83
7874.69
7873.57
7872.47
7871.38
7870.32
7869.27
7868.23
7867.22
7866.22
7865.23
7864.26
7863.31
7862.37
7861.44
7860.53
7859.63
7858.75
7857.88
7857.02
7856.18
7855.35
7854.53
7853.73
7852.94
7852.16
7851.39
7850.64
7849.89
7849.16
7848.45
7847.74
7847.04
7846.36
7845.68
7845.02
7844.37
7843.73
7843.1
7842.48
7841.88
7841.28
7840.69
7840.11
7839.55
7838.99
7838.44
7837.91
7837.38
7836.86
7836.35
7835.85
7835.36
7834.89
7834.42
7833.95
7833.5
7833.06
7832.63
7832.2
7831.79
7831.38
7830.99
7830.6
7830.22
7829.85
7829.49
7829.14
7828.8
7828.46
7828.14
7827.82
7827.51
7827.21
7826.92
7826.64
7826.36
7826.09
7825.83
7825.58
7825.33
7825.1
7824.86
7824.64
7824.43
7824.22
7824.02
7823.82
7823.63
7823.45
7823.27
7823.12
7822.95
7822.78
7822.63
7822.47
7822.33
7822.19
7822.06
7821.93
7821.81
7821.69
7821.58
7821.48
7821.37
7821.28
7821.18
7821.1
7821.02
7820.95
7820.88
7820.8
7820.73
7820.67
7820.61
7820.56
7820.51
7820.46
7820.42
7820.38
7820.35
7820.31
7820.29
7820.26
7820.24
7820.22
7820.22
7820.2
7820.2
7820.17
7820.19
7820.21
7820.2
7820.2
7820.19
7820.2
7820.21
7820.23
7820.24
7820.26
7820.27
7820.29
7820.31
7820.33
7820.35
7820.37
7820.4
7820.42
7820.45
7820.48
7820.51
7820.54
7820.58
7820.61
7820.65
7820.68
7820.72
7820.76
7820.8
7820.84
7820.88
7820.93
7820.97
7821.02
7821.07
7821.12
7821.17
7821.22
7821.27
7821.32
7821.38
7821.43
7821.49
7821.55
7821.6
7821.66
7821.72
7821.79
7821.85
7821.91
7821.98
7822.04
7822.11
7822.18
7822.25
7822.32
7822.39
7822.46
7822.53
7822.6
7822.68
7822.75
7822.83
7822.9
7822.98
7823.06
7823.14
7823.21
7823.29
7823.38
7823.46
7823.54
7823.62
7823.71
7823.79
7823.88
7823.96
7824.05
7824.14
7824.23
7824.31
7824.4
7824.49
7824.59
7824.68
7824.78
7824.85
7825
7703.95
7687.02
7670.55
7655.9
7642.66
7630.38
7618.77
7607.63
7596.81
7586.26
7575.91
7565.74
7555.72
7545.84
7536.09
7526.47
7516.98
7507.63
7498.4
7489.29
7480.29
7471.41
7462.72
7454.22
7445.81
7437.53
7429.38
7421.25
7413.23
7405.68
7398.4
7391.06
7383.87
7376.83
7369.96
7363.29
7356.81
7350.49
7344.36
7338.4
7332.61
7327
7321.62
7316.43
7311.43
7306.59
7301.87
7297.32
7293.09
7289.17
7285.34
7281.71
7278.25
7274.98
7271.93
7269.11
7266.38
7263.81
7261.54
7259.57
7257.57
7255.59
7254.03
7252.68
7251.5
7250.72
7250.09
7249.45
7248.97
7248.52
7248.16
7248.09
7248.3
7248.41
7248.29
7248.21
7248.29
7248.27
7248.03
7247.65
7247.54
7248.28
7249.26
7250.28
7252.47
7255.85
7259.24
7255.95
7244.09
7248.1
7261.64
7261.83
7264.86
7265.34
7266.41
7269.91
7273.12
7275.61
7278.01
7280.75
7283.8
7286.83
7291.03
7296.35
7300.82
7305.4
7309.03
7313.15
7313.76
7320.52
7334.25
7341.86
7349.39
7356.89
7364.42
7372.96
7382.35
7391.58
7401.13
7410.95
7421.51
7433.02
7444.53
7455.74
7467.75
7476.33
7489.72
7507.77
7522.42
7537.56
7552.58
7567.49
7583.28
7599.72
7615.95
7632.24
7648.53
7665.06
7681.63
7698.36
7715.27
7732.29
7749.32
7766.3
7783.2
7800.15
7817.11
7833.94
7850.59
7867.07
7883.46
7899.72
7915.82
7931.6
7947.04
7962.29
7977.3
7992.02
8006.52
8020.61
8034.34
8047.67
8060.72
8073.41
8085.79
8097.71
8109.31
8120.55
8131.48
8141.94
8152.02
8161.79
8171.23
8180.35
8189.04
8197.45
8205.54
8213.36
8220.84
8228.06
8235.02
8241.78
8248.26
8254.51
8260.5
8266.35
8272.02
8277.54
8282.91
8288.04
8292.95
8297.65
8302.07
8306.29
8310.24
8313.96
8317.39
8320.48
8323.23
8325.64
8327.8
8329.64
8331.11
8332.21
8332.99
8333.47
8333.61
8333.38
8332.79
8331.89
8330.66
8329.14
8327.26
8325.04
8322.54
8319.75
8316.71
8313.36
8309.73
8305.81
8301.65
8297.28
8292.71
8287.9
8282.88
8277.68
8272.3
8266.74
8261.04
8255.21
8249.29
8243.24
8237.08
8230.8
8224.49
8218.15
8211.73
8205.26
8198.74
8192.24
8185.75
8179.27
8172.78
8166.3
8159.85
8153.48
8147.12
8140.8
8134.56
8128.41
8122.29
8116.23
8110.27
8104.41
8098.61
8092.9
8087.27
8081.71
8076.26
8070.91
8065.68
8060.53
8055.47
8050.51
8045.64
8040.86
8036.18
8031.61
8027.15
8022.76
8018.45
8014.24
8010.15
8006.14
8002.2
7998.34
7994.58
7990.92
7987.33
7983.82
7980.38
7977.03
7973.76
7970.56
7967.43
7964.37
7961.38
7958.47
7955.62
7952.83
7950.1
7947.44
7944.84
7942.3
7939.81
7937.38
7935
7932.68
7930.41
7928.19
7926.02
7923.9
7921.82
7919.79
7917.8
7915.86
7913.95
7912.09
7910.26
7908.48
7906.73
7905.02
7903.34
7901.7
7900.08
7898.5
7896.96
7895.44
7893.95
7892.49
7891.06
7889.65
7888.27
7886.91
7885.58
7884.27
7882.99
7881.73
7880.49
7879.27
7878.08
7876.9
7875.74
7874.6
7873.48
7872.38
7871.3
7870.23
7869.18
7868.15
7867.13
7866.13
7865.15
7864.18
7863.22
7862.28
7861.36
7860.45
7859.55
7858.67
7857.8
7856.94
7856.1
7855.27
7854.45
7853.65
7852.86
7852.08
7851.31
7850.56
7849.81
7849.08
7848.37
7847.66
7846.96
7846.28
7845.61
7844.94
7844.29
7843.65
7843.02
7842.41
7841.8
7841.2
7840.61
7840.04
7839.47
7838.91
7838.37
7837.83
7837.3
7836.79
7836.28
7835.78
7835.29
7834.81
7834.34
7833.88
7833.43
7832.99
7832.56
7832.14
7831.72
7831.32
7830.92
7830.54
7830.16
7829.79
7829.43
7829.08
7828.74
7828.4
7828.08
7827.76
7827.45
7827.15
7826.86
7826.58
7826.3
7826.03
7825.78
7825.52
7825.28
7825.04
7824.81
7824.59
7824.37
7824.16
7823.96
7823.77
7823.59
7823.41
7823.22
7823.05
7822.88
7822.73
7822.57
7822.43
7822.28
7822.15
7822.01
7821.89
7821.77
7821.65
7821.54
7821.43
7821.34
7821.23
7821.16
7821.07
7820.98
7820.9
7820.83
7820.76
7820.7
7820.63
7820.58
7820.52
7820.47
7820.42
7820.38
7820.34
7820.31
7820.28
7820.26
7820.24
7820.21
7820.2
7820.17
7820.18
7820.19
7820.19
7820.19
7820.2
7820.21
7820.22
7820.23
7820.23
7820.24
7820.25
7820.26
7820.27
7820.29
7820.31
7820.32
7820.34
7820.36
7820.38
7820.41
7820.43
7820.46
7820.48
7820.51
7820.54
7820.57
7820.61
7820.64
7820.68
7820.71
7820.75
7820.79
7820.83
7820.88
7820.92
7820.97
7821.01
7821.06
7821.11
7821.16
7821.21
7821.26
7821.32
7821.37
7821.43
7821.48
7821.54
7821.6
7821.66
7821.72
7821.78
7821.84
7821.91
7821.97
7822.04
7822.1
7822.17
7822.24
7822.31
7822.38
7822.45
7822.52
7822.6
7822.67
7822.75
7822.82
7822.9
7822.97
7823.05
7823.13
7823.21
7823.29
7823.37
7823.45
7823.54
7823.62
7823.7
7823.79
7823.87
7823.96
7824.05
7824.13
7824.22
7824.31
7824.4
7824.49
7824.58
7824.67
7824.77
7824.84
7824.99
7696.31
7679.14
7662.15
7648.32
7636.11
7624.85
7614.09
7603.64
7593.37
7583.24
7573.22
7563.31
7553.49
7543.76
7534.12
7524.59
7515.16
7505.86
7496.67
7487.59
7478.64
7469.81
7461.12
7452.56
7444.12
7435.83
7427.7
7419.71
7411.85
7404.15
7396.64
7389.29
7382.09
7375.06
7368.19
7361.47
7354.93
7348.61
7342.49
7336.54
7330.73
7325.09
7319.69
7314.5
7309.51
7304.69
7300.01
7295.55
7291.22
7287.09
7283.3
7279.78
7276.36
7273.1
7270.03
7267.21
7264.52
7262.04
7259.81
7257.73
7255.85
7254.07
7252.3
7250.71
7249.77
7248.88
7248.02
7247.19
7246.94
7246.63
7246.38
7246.25
7246.08
7245.94
7245.97
7246.12
7246.5
7246.66
7246.87
7247.13
7247.25
7247.42
7247.69
7248.46
7250.43
7252.7
7254.45
7256.06
7259.46
7263.26
7260.48
7248.77
7253.63
7268.73
7268.96
7271.98
7272.97
7274.3
7278.39
7282.57
7286.02
7289.57
7293.43
7297.45
7301.58
7307.01
7312.98
7318.4
7324.6
7328.31
7333.67
7334.43
7341.9
7356.85
7365.35
7373.78
7382.3
7391.03
7400.92
7411.73
7422.3
7433.22
7444.5
7456.48
7469.37
7482.21
7494.52
7507.6
7517.13
7531.72
7551.2
7566.89
7582.88
7598.55
7614.32
7629.99
7646.53
7663.64
7680.37
7697.2
7714.21
7731.22
7748.46
7765.64
7782.69
7799.64
7816.63
7833.54
7850.45
7867.09
7883.46
7899.82
7916.03
7931.87
7947.37
7962.72
7977.79
7992.64
8007.17
8021.31
8035.11
8048.55
8061.61
8074.3
8086.67
8098.69
8110.4
8121.7
8132.59
8143.08
8153.21
8163.02
8172.48
8181.63
8190.49
8198.89
8206.99
8214.83
8222.41
8229.72
8236.7
8243.51
8249.99
8256.27
8262.37
8268.27
8274
8279.58
8284.94
8290.08
8294.99
8299.67
8304.15
8308.39
8312.37
8316.08
8319.55
8322.68
8325.47
8327.88
8330.01
8331.83
8333.36
8334.51
8335.29
8335.66
8335.75
8335.51
8334.94
8334.07
8332.83
8331.23
8329.26
8327.02
8324.48
8321.64
8318.51
8315.14
8311.45
8307.45
8303.24
8298.81
8294.18
8289.28
8284.16
8278.88
8273.46
8267.88
8262.08
8256.15
8250.13
8244.04
8237.79
8231.46
8225.08
8218.66
8212.2
8205.63
8199.07
8192.51
8185.95
8179.44
8172.9
8166.37
8159.86
8153.42
8147.02
8140.69
8134.41
8128.23
8122.08
8115.98
8109.99
8104.08
8098.3
8092.56
8086.89
8081.34
8075.88
8070.53
8065.29
8060.14
8055.07
8050.1
8045.22
8040.44
8035.76
8031.19
8026.73
8022.34
8018.04
8013.84
8009.74
8005.75
8001.83
7997.97
7994.21
7990.56
7986.97
7983.46
7980.04
7976.7
7973.44
7970.23
7967.1
7964.05
7961.08
7958.18
7955.33
7952.55
7949.82
7947.17
7944.57
7942.04
7939.57
7937.14
7934.77
7932.45
7930.18
7927.97
7925.8
7923.68
7921.62
7919.6
7917.61
7915.67
7913.77
7911.91
7910.09
7908.3
7906.56
7904.85
7903.18
7901.54
7899.93
7898.35
7896.81
7895.3
7893.81
7892.35
7890.92
7889.51
7888.13
7886.78
7885.45
7884.15
7882.87
7881.6
7880.37
7879.15
7877.95
7876.78
7875.62
7874.49
7873.37
7872.26
7871.18
7870.11
7869.06
7868.03
7867.02
7866.02
7865.03
7864.07
7863.11
7862.17
7861.24
7860.33
7859.44
7858.55
7857.69
7856.83
7855.99
7855.16
7854.34
7853.54
7852.75
7851.97
7851.2
7850.45
7849.71
7848.98
7848.26
7847.55
7846.86
7846.17
7845.5
7844.84
7844.19
7843.55
7842.92
7842.3
7841.7
7841.1
7840.51
7839.94
7839.37
7838.81
7838.27
7837.73
7837.21
7836.69
7836.18
7835.68
7835.2
7834.72
7834.25
7833.79
7833.34
7832.9
7832.47
7832.05
7831.63
7831.23
7830.83
7830.45
7830.07
7829.7
7829.34
7828.99
7828.65
7828.32
7828
7827.68
7827.37
7827.07
7826.78
7826.5
7826.22
7825.96
7825.7
7825.45
7825.21
7824.97
7824.74
7824.52
7824.31
7824.11
7823.91
7823.7
7823.52
7823.33
7823.16
7822.99
7822.83
7822.66
7822.51
7822.36
7822.22
7822.09
7821.96
7821.83
7821.71
7821.6
7821.5
7821.39
7821.28
7821.19
7821.09
7821.01
7820.92
7820.85
7820.77
7820.71
7820.64
7820.58
7820.52
7820.47
7820.42
7820.38
7820.34
7820.3
7820.28
7820.23
7820.21
7820.18
7820.18
7820.18
7820.17
7820.16
7820.15
7820.15
7820.15
7820.16
7820.16
7820.17
7820.18
7820.19
7820.2
7820.21
7820.22
7820.24
7820.26
7820.27
7820.29
7820.31
7820.33
7820.36
7820.38
7820.41
7820.43
7820.46
7820.49
7820.52
7820.56
7820.59
7820.63
7820.66
7820.7
7820.74
7820.78
7820.82
7820.86
7820.91
7820.95
7821
7821.05
7821.1
7821.15
7821.2
7821.25
7821.3
7821.36
7821.41
7821.47
7821.53
7821.59
7821.65
7821.71
7821.77
7821.83
7821.9
7821.96
7822.03
7822.09
7822.16
7822.23
7822.3
7822.37
7822.44
7822.51
7822.59
7822.66
7822.74
7822.81
7822.89
7822.97
7823.04
7823.12
7823.2
7823.28
7823.36
7823.44
7823.53
7823.61
7823.69
7823.78
7823.87
7823.95
7824.04
7824.13
7824.21
7824.3
7824.39
7824.48
7824.57
7824.67
7824.76
7824.84
7824.98
7655.15
7651.83
7643.59
7635.4
7626.63
7617.63
7608.37
7598.94
7589.38
7579.76
7570.11
7560.48
7550.87
7541.29
7531.77
7522.32
7512.95
7503.69
7494.54
7485.49
7476.56
7467.74
7459.05
7450.46
7442.01
7433.71
7425.55
7417.53
7409.69
7402.01
7394.47
7387.07
7379.84
7372.79
7365.88
7359.05
7352.39
7346.13
7340.15
7334.17
7328.34
7322.59
7316.91
7311.64
7307.01
7302.27
7297.6
7293.12
7288.56
7284.02
7280.14
7277.05
7273.93
7270.71
7267.65
7264.77
7262.12
7259.69
7257.44
7255.35
7253.48
7251.77
7250.24
7248.88
7247.63
7246.37
7245.4
7244.77
7244.58
7244.25
7243.99
7243.85
7243.79
7243.67
7243.55
7243.86
7244.3
7244.64
7245.09
7245.68
7246.27
7246.71
7247.39
7248.56
7250.1
7251.35
7252.5
7254.02
7255.96
7258.28
7260.6
7264.92
7269.36
7266.31
7254.26
7260.7
7278.24
7278.73
7281.39
7283.02
7285.06
7290.36
7295.79
7300.48
7304.91
7309.78
7314.44
7319.95
7325.33
7331.73
7338.69
7345.32
7350.16
7356.44
7357.76
7366.08
7382.6
7392.28
7401.9
7411.73
7421.68
7432.92
7445.22
7457.21
7469.44
7481.92
7495.08
7509.17
7522.99
7536.36
7550.56
7560.94
7576.64
7596.59
7613.34
7630
7645.99
7662.49
7678.65
7695.51
7712.91
7730.23
7747.53
7764.8
7781.98
7799.08
7816.15
7833.31
7850.24
7867.03
7883.6
7900.06
7916.31
7932.27
7947.89
7963.32
7978.64
7993.52
8008.03
8022.17
8036.06
8049.65
8062.82
8075.58
8087.97
8100.11
8111.82
8123.15
8134.06
8144.64
8154.93
8164.78
8174.26
8183.49
8192.37
8200.88
8209.02
8216.92
8224.63
8231.99
8239.03
8245.83
8252.46
8258.84
8264.92
8270.9
8276.72
8282.29
8287.6
8292.73
8297.69
8302.48
8307.02
8311.27
8315.17
8318.87
8322.35
8325.52
8328.33
8330.78
8332.87
8334.74
8336.25
8337.38
8338.14
8338.5
8338.56
8338.31
8337.76
8336.82
8335.52
8333.85
8331.81
8329.55
8327.01
8324.12
8320.89
8317.35
8313.59
8309.56
8305.33
8300.81
8296
8291
8285.83
8280.49
8275
8269.29
8263.42
8257.36
8251.24
8245.01
8238.72
8232.34
8225.87
8219.37
8212.8
8206.16
8199.5
8192.87
8186.28
8179.65
8173
8166.42
8159.88
8153.37
8146.96
8140.59
8134.26
8128
8121.77
8115.66
8109.64
8103.71
8097.9
8092.15
8086.46
8080.88
8075.42
8070.08
8064.81
8059.62
8054.54
8049.57
8044.72
8039.94
8035.24
8030.68
8026.22
8021.82
8017.53
8013.34
8009.27
8005.27
8001.35
7997.5
7993.75
7990.1
7986.53
7983.04
7979.62
7976.29
7973.03
7969.83
7966.71
7963.68
7960.72
7957.82
7954.97
7952.19
7949.49
7946.85
7944.26
7941.73
7939.27
7936.84
7934.48
7932.17
7929.92
7927.71
7925.55
7923.44
7921.37
7919.36
7917.38
7915.44
7913.54
7911.7
7909.88
7908.1
7906.36
7904.66
7902.99
7901.35
7899.75
7898.17
7896.63
7895.12
7893.64
7892.18
7890.75
7889.36
7887.98
7886.63
7885.3
7883.99
7882.72
7881.46
7880.22
7879
7877.81
7876.63
7875.48
7874.34
7873.22
7872.13
7871.04
7869.98
7868.93
7867.9
7866.88
7865.88
7864.9
7863.93
7862.97
7862.04
7861.11
7860.2
7859.3
7858.42
7857.55
7856.7
7855.85
7855.02
7854.21
7853.41
7852.61
7851.84
7851.07
7850.31
7849.57
7848.84
7848.13
7847.42
7846.72
7846.04
7845.37
7844.71
7844.06
7843.42
7842.79
7842.17
7841.57
7840.97
7840.38
7839.81
7839.24
7838.69
7838.14
7837.61
7837.08
7836.57
7836.06
7835.56
7835.08
7834.6
7834.13
7833.67
7833.22
7832.78
7832.35
7831.93
7831.52
7831.12
7830.72
7830.34
7829.96
7829.6
7829.24
7828.89
7828.55
7828.22
7827.9
7827.58
7827.28
7826.98
7826.69
7826.41
7826.14
7825.87
7825.61
7825.36
7825.12
7824.88
7824.67
7824.45
7824.22
7824.01
7823.81
7823.62
7823.43
7823.25
7823.07
7822.91
7822.74
7822.58
7822.43
7822.29
7822.14
7822.01
7821.88
7821.77
7821.65
7821.52
7821.42
7821.3
7821.21
7821.11
7821.03
7820.94
7820.86
7820.78
7820.71
7820.64
7820.58
7820.52
7820.47
7820.42
7820.37
7820.33
7820.28
7820.23
7820.21
7820.21
7820.2
7820.18
7820.17
7820.16
7820.16
7820.16
7820.16
7820.16
7820.16
7820.16
7820.16
7820.17
7820.17
7820.18
7820.19
7820.2
7820.22
7820.23
7820.25
7820.26
7820.28
7820.3
7820.32
7820.34
7820.37
7820.39
7820.42
7820.45
7820.48
7820.51
7820.54
7820.57
7820.61
7820.65
7820.68
7820.72
7820.76
7820.81
7820.85
7820.89
7820.94
7820.99
7821.03
7821.08
7821.13
7821.19
7821.24
7821.29
7821.35
7821.4
7821.46
7821.52
7821.58
7821.64
7821.7
7821.76
7821.82
7821.89
7821.95
7822.02
7822.08
7822.15
7822.22
7822.29
7822.36
7822.43
7822.5
7822.58
7822.65
7822.73
7822.8
7822.88
7822.96
7823.03
7823.11
7823.19
7823.27
7823.35
7823.44
7823.52
7823.6
7823.69
7823.77
7823.86
7823.94
7824.03
7824.12
7824.21
7824.3
7824.38
7824.48
7824.57
7824.66
7824.76
7824.83
7824.98
7608.25
7618.67
7623.14
7621.84
7617.05
7610.5
7602.79
7594.32
7585.35
7576.02
7566.57
7557.32
7548.03
7538.6
7529.15
7519.75
7510.29
7500.76
7491.57
7482.94
7474.1
7465.29
7456.58
7447.98
7439.51
7431.14
7422.75
7414.43
7406.68
7399.37
7391.84
7384.4
7377.15
7370.04
7362.87
7355.65
7349.12
7343.09
7337.32
7331.32
7325.19
7318.84
7313.25
7308.05
7303.56
7299.3
7294.72
7289.99
7285.11
7280.98
7277.14
7273.49
7270.07
7267.54
7264.78
7261.96
7259.31
7256.85
7254.57
7252.49
7250.62
7248.95
7247.42
7246.06
7244.74
7243.43
7242.55
7241.86
7241.68
7241.47
7241.25
7241.12
7241.11
7241.19
7241.24
7241.23
7241.5
7242.22
7243
7243.72
7244.52
7245.38
7246.48
7247.87
7249.25
7250.46
7251.9
7253.79
7255.52
7257.1
7259.22
7261.75
7264.32
7266.92
7272.06
7277.52
7274.78
7262.15
7270.19
7289.4
7290.51
7293.58
7296.53
7299.31
7305.81
7312.26
7317.83
7323.4
7329.13
7334.64
7340.66
7346.65
7353.85
7361.77
7369.29
7375.1
7382.34
7384.13
7393.69
7412.12
7423.17
7434.07
7445.22
7456.45
7469.16
7482.83
7496.01
7509.43
7523.02
7537.09
7552.28
7566.98
7582.19
7596.77
7611.68
7622.97
7639.25
7660.43
7677.51
7694.6
7711.54
7728.45
7745.93
7763.74
7781.15
7798.49
7815.81
7832.9
7849.84
7866.87
7883.79
7900.36
7916.7
7932.68
7948.53
7964.27
7979.56
7994.52
8009.12
8023.33
8037.27
8051
8064.27
8077.16
8089.68
8101.82
8113.58
8124.96
8135.98
8146.7
8157.03
8166.99
8176.6
8185.86
8194.8
8203.42
8211.7
8219.7
8227.44
8234.88
8242.05
8248.91
8255.56
8262.07
8268.29
8274.3
8280.11
8285.71
8291.07
8296.21
8301.22
8306
8310.54
8314.8
8318.8
8322.43
8325.84
8329.03
8331.88
8334.37
8336.52
8338.31
8339.72
8340.87
8341.65
8342.04
8342
8341.76
8341.15
8340.15
8338.79
8337.08
8334.94
8332.65
8330.03
8327.05
8323.76
8320.18
8316.24
8312.14
8307.8
8303.17
8298.31
8293.16
8287.89
8282.46
8276.81
8270.99
8265.01
8258.9
8252.64
8246.26
8239.88
8233.39
8226.81
8220.18
8213.51
8206.8
8200.04
8193.33
8186.62
8179.91
8173.17
8166.53
8159.93
8153.34
8146.84
8140.4
8134.02
8127.71
8121.43
8115.28
8109.25
8103.29
8097.41
8091.63
8085.95
8080.32
8074.85
8069.49
8064.2
8059.02
8053.92
8048.94
8044.09
8039.32
8034.65
8030.08
8025.6
8021.23
8016.93
8012.75
8008.68
8004.69
8000.78
7996.96
7993.22
7989.55
7986
7982.52
7979.12
7975.79
7972.54
7969.37
7966.26
7963.24
7960.28
7957.38
7954.56
7951.78
7949.09
7946.46
7943.88
7941.37
7938.9
7936.49
7934.14
7931.85
7929.6
7927.4
7925.25
7923.14
7921.08
7919.07
7917.1
7915.17
7913.28
7911.44
7909.63
7907.86
7906.12
7904.43
7902.76
7901.13
7899.53
7897.96
7896.42
7894.92
7893.44
7891.98
7890.56
7889.16
7887.79
7886.44
7885.12
7883.81
7882.54
7881.28
7880.04
7878.83
7877.64
7876.46
7875.31
7874.17
7873.05
7871.96
7870.87
7869.81
7868.76
7867.73
7866.72
7865.71
7864.73
7863.76
7862.81
7861.87
7860.95
7860.04
7859.14
7858.26
7857.39
7856.53
7855.69
7854.86
7854.05
7853.24
7852.45
7851.67
7850.91
7850.15
7849.41
7848.68
7847.97
7847.26
7846.57
7845.88
7845.21
7844.55
7843.9
7843.26
7842.63
7842.02
7841.41
7840.82
7840.23
7839.66
7839.09
7838.54
7837.99
7837.46
7836.93
7836.42
7835.91
7835.42
7834.93
7834.46
7833.99
7833.53
7833.08
7832.65
7832.22
7831.8
7831.39
7830.98