/*--------------------------------*- C++ -*----------------------------------*\
| =========                 |                                                 |
| \\      /  F ield         | OpenFOAM: The Open Source CFD Toolbox           |
|  \\    /   O peration     | Version:  v2006                                 |
|   \\  /    A nd           | Website:  www.openfoam.com                      |
|    \\/     M anipulation  |                                                 |
\*---------------------------------------------------------------------------*/
FoamFile
{
    version     2.0;
    format      ascii;
    class       surfaceScalarField;
    location    "8.6";
    object      alphaPhi0.water;
}
// * * * * * * * * * * * * * * * * * * * * * * * * * * * * * * * * * * * * * //

dimensions      [0 3 -1 0 0 0 0];
oriented        oriented;


internalField   nonuniform List<scalar> 
65390
(
3.03261e-05
5.20949e-06
2.44013e-05
5.92523e-06
2.0762e-05
3.63952e-06
2.1027e-05
-2.64897e-07
2.59029e-05
-4.87585e-06
3.23311e-05
-6.42821e-06
3.91755e-05
-6.84447e-06
4.54109e-05
-6.236e-06
5.03685e-05
-4.95905e-06
5.39576e-05
-3.59284e-06
5.6862e-05
-2.91754e-06
6.00825e-05
-3.21016e-06
6.3434e-05
-3.3399e-06
6.63256e-05
-2.88728e-06
6.783e-05
-1.50387e-06
6.75238e-05
3.06178e-07
6.4525e-05
2.99866e-06
5.81123e-05
6.41258e-06
4.9475e-05
8.63729e-06
4.20002e-05
7.47482e-06
3.7451e-05
4.54919e-06
3.52209e-05
2.2301e-06
3.47931e-05
4.27691e-07
3.54708e-05
-6.77724e-07
3.64887e-05
-1.01796e-06
3.73157e-05
-8.27053e-07
3.7394e-05
-7.84009e-08
3.61411e-05
1.25286e-06
3.36132e-05
2.52791e-06
2.97833e-05
3.8299e-06
2.42674e-05
5.5159e-06
1.74993e-05
6.76805e-06
1.06193e-05
6.87983e-06
3.81599e-06
6.80329e-06
-2.12869e-06
5.94464e-06
-6.47051e-06
4.34208e-06
-1.05499e-05
4.08167e-06
-1.47842e-05
4.23563e-06
-1.77937e-05
3.00093e-06
-1.96039e-05
1.80977e-06
-2.12672e-05
1.66398e-06
-2.33982e-05
2.13242e-06
-2.60758e-05
2.68411e-06
-2.90553e-05
2.98076e-06
-3.15241e-05
2.45592e-06
-3.30066e-05
1.48218e-06
-3.4177e-05
1.1706e-06
-3.55341e-05
1.35832e-06
-3.73616e-05
1.83685e-06
-3.96443e-05
2.30228e-06
-4.19325e-05
2.25854e-06
-4.34895e-05
1.55414e-06
-4.44339e-05
9.4439e-07
-4.50539e-05
6.20091e-07
-4.5408e-05
3.54236e-07
-4.56376e-05
2.29759e-07
-4.5802e-05
1.64493e-07
-4.6077e-05
2.75137e-07
-4.66762e-05
5.99395e-07
-4.78339e-05
1.15947e-06
-4.93679e-05
1.54319e-06
-5.09692e-05
1.60722e-06
-5.2464e-05
1.49476e-06
-5.37971e-05
1.31654e-06
-5.49595e-05
1.16178e-06
-5.59428e-05
9.83098e-07
-5.65944e-05
6.51033e-07
-5.66683e-05
7.37092e-08
-5.59962e-05
-6.7218e-07
-5.469e-05
-1.3063e-06
-5.2886e-05
-1.80408e-06
-5.05823e-05
-2.30322e-06
-4.77927e-05
-2.78808e-06
-4.44763e-05
-3.31372e-06
-4.05573e-05
-3.91068e-06
-3.62581e-05
-4.28646e-06
-3.16057e-05
-4.65408e-06
-2.61397e-05
-5.46873e-06
-2.16745e-05
-4.4703e-06
-1.91572e-05
-2.5147e-06
-1.8629e-05
-5.28248e-07
-1.99433e-05
1.31437e-06
-2.10753e-05
1.13191e-06
-2.23682e-05
1.28334e-06
-2.41309e-05
1.76142e-06
-2.48905e-05
7.59487e-07
-2.53146e-05
4.24101e-07
-2.56838e-05
3.69195e-07
-2.61072e-05
4.23445e-07
-2.62755e-05
1.68325e-07
-2.63296e-05
5.4187e-08
-2.63566e-05
2.83774e-08
-2.60595e-05
-2.9182e-07
-2.55531e-05
-4.98409e-07
-2.4698e-05
-8.62049e-07
-2.32319e-05
-1.47269e-06
-2.08687e-05
-2.36359e-06
-1.80864e-05
-2.78234e-06
-1.50977e-05
-2.98864e-06
-1.33962e-05
-1.70094e-06
-1.30602e-05
-3.33011e-07
-1.3134e-05
7.37608e-08
-1.36456e-05
5.11625e-07
-1.40652e-05
4.19591e-07
-1.47157e-05
6.50529e-07
-1.51111e-05
3.93274e-07
-1.51969e-05
8.36935e-08
-1.52622e-05
6.52472e-08
-1.53764e-05
1.14021e-07
-1.55321e-05
1.56283e-07
-1.56525e-05
1.22143e-07
-1.57698e-05
1.19917e-07
-1.57505e-05
-1.98825e-08
-1.5507e-05
-2.47411e-07
-1.49148e-05
-5.92536e-07
-1.40189e-05
-8.95482e-07
-1.27292e-05
-1.28835e-06
-1.19267e-05
-8.02506e-07
-1.18322e-05
-9.44592e-08
-1.19675e-05
1.33658e-07
-1.22384e-05
2.70762e-07
-1.24329e-05
1.94365e-07
-1.28103e-05
3.7859e-07
-1.31139e-05
3.04202e-07
-1.32775e-05
1.63631e-07
-1.34674e-05
1.87846e-07
-1.36322e-05
1.64716e-07
-1.37852e-05
1.52931e-07
-1.39603e-05
1.7509e-07
-1.41151e-05
1.55587e-07
-1.42482e-05
1.35716e-07
-1.43847e-05
1.36211e-07
-1.45024e-05
1.14666e-07
-1.46021e-05
9.93705e-08
-1.46978e-05
9.56765e-08
-1.47952e-05
9.73315e-08
-1.48897e-05
9.47056e-08
-1.49747e-05
8.48937e-08
-1.50523e-05
7.71338e-08
-1.51173e-05
6.52069e-08
-1.51752e-05
5.98812e-08
-1.52313e-05
5.77598e-08
-1.52805e-05
4.92024e-08
-1.53199e-05
3.77606e-08
-1.5345e-05
2.3391e-08
-1.53526e-05
7.62679e-09
-1.53504e-05
-2.26081e-09
-1.5343e-05
-7.2749e-09
-1.5331e-05
-1.06319e-08
-1.53123e-05
-1.93449e-08
-1.52738e-05
-3.99186e-08
-1.52168e-05
-5.70428e-08
-1.51526e-05
-6.41815e-08
-1.50811e-05
-6.96576e-08
-1.50045e-05
-7.66555e-08
-1.49157e-05
-8.87566e-08
-1.48169e-05
-1.0046e-07
-1.47053e-05
-1.12205e-07
-1.45837e-05
-1.21605e-07
-1.44542e-05
-1.29563e-07
-1.43164e-05
-1.37775e-07
-1.41692e-05
-1.46968e-07
-1.40127e-05
-1.56396e-07
-1.38445e-05
-1.68035e-07
-1.36655e-05
-1.79237e-07
-1.34808e-05
-1.84604e-07
-1.32937e-05
-1.8715e-07
-1.30968e-05
-1.97367e-07
-1.28833e-05
-2.13519e-07
-1.26583e-05
-2.24995e-07
-1.24291e-05
-2.28694e-07
-1.21992e-05
-2.294e-07
-1.19629e-05
-2.36871e-07
-1.17083e-05
-2.54899e-07
-1.14376e-05
-2.70725e-07
-1.11554e-05
-2.8204e-07
-1.08644e-05
-2.90051e-07
-1.05731e-05
-2.90689e-07
-1.02828e-05
-2.90341e-07
-9.98295e-06
-3.01084e-07
-9.66651e-06
-3.16449e-07
-9.3335e-06
-3.32997e-07
-8.9787e-06
-3.54637e-07
-8.61027e-06
-3.67848e-07
-8.23372e-06
-3.76541e-07
-7.8518e-06
-3.81929e-07
-7.46981e-06
-3.82648e-07
-7.07152e-06
-3.98281e-07
-6.64835e-06
-4.23174e-07
-6.20462e-06
-4.43553e-07
-5.75121e-06
-4.52812e-07
-5.2984e-06
-4.52801e-07
-4.84042e-06
-4.57984e-07
-4.37273e-06
-4.68155e-07
-3.88748e-06
-4.85382e-07
-3.3845e-06
-5.02982e-07
-2.87175e-06
-5.12751e-07
-2.3632e-06
-5.08493e-07
-1.87736e-06
-4.85537e-07
-1.41381e-06
-4.63558e-07
-9.61659e-07
-4.52145e-07
-5.12227e-07
-4.49459e-07
-6.81226e-08
-4.44137e-07
3.57382e-07
-4.25524e-07
7.57119e-07
-3.99757e-07
1.13152e-06
-3.74473e-07
1.48781e-06
-3.56309e-07
1.83519e-06
-3.47377e-07
2.1723e-06
-3.37131e-07
2.48945e-06
-3.17169e-07
2.77835e-06
-2.89204e-07
3.05596e-06
-2.77421e-07
3.33254e-06
-2.76442e-07
3.60122e-06
-2.68666e-07
3.85863e-06
-2.57409e-07
4.10253e-06
-2.4397e-07
4.32589e-06
-2.23688e-07
4.53059e-06
-2.0478e-07
4.72635e-06
-1.95572e-07
4.91909e-06
-1.9253e-07
5.10734e-06
-1.88242e-07
5.28699e-06
-1.79671e-07
5.45652e-06
-1.69589e-07
5.61039e-06
-1.54264e-07
5.74963e-06
-1.39255e-07
5.88033e-06
-1.30539e-07
6.00576e-06
-1.25205e-07
6.12757e-06
-1.21792e-07
6.24392e-06
-1.16362e-07
6.35288e-06
-1.08968e-07
6.4496e-06
-9.73605e-08
6.53447e-06
-8.49352e-08
6.61337e-06
-7.88844e-08
6.69007e-06
-7.61033e-08
6.76337e-06
-7.34539e-08
6.83299e-06
-6.97665e-08
6.89698e-06
-6.40003e-08
6.95493e-06
-5.79396e-08
7.00818e-06
-5.30376e-08
7.05691e-06
-4.86923e-08
7.1001e-06
-4.31883e-08
7.13853e-06
-3.88937e-08
7.17589e-06
-3.7069e-08
7.21378e-06
-3.76557e-08
7.25164e-06
-3.77917e-08
7.28822e-06
-3.65787e-08
7.32269e-06
-3.44682e-08
7.35046e-06
-2.8363e-08
7.37633e-06
-2.56788e-08
7.40607e-06
-2.94674e-08
7.43844e-06
-3.23455e-08
7.47086e-06
-3.24307e-08
7.50294e-06
-3.20919e-08
7.53276e-06
-3.00931e-08
7.56116e-06
-2.84637e-08
7.59136e-06
-3.00461e-08
7.62374e-06
-3.21767e-08
7.65775e-06
-3.39664e-08
7.69209e-06
-3.43111e-08
7.72617e-06
-3.41162e-08
7.76032e-06
-3.42688e-08
7.79516e-06
-3.48279e-08
7.83158e-06
-3.63005e-08
7.86988e-06
-3.81511e-08
7.90855e-06
-3.87008e-08
7.94529e-06
-3.674e-08
7.97872e-06
-3.38053e-08
8.01267e-06
-3.37478e-08
8.04902e-06
-3.61871e-08
8.08617e-06
-3.71253e-08
8.12253e-06
-3.63616e-08
8.15792e-06
-3.53908e-08
8.19195e-06
-3.40292e-08
8.22261e-06
-3.08544e-08
8.25028e-06
-2.7643e-08
8.27688e-06
-2.64921e-08
8.30312e-06
-2.61203e-08
8.32814e-06
-2.50105e-08
8.35101e-06
-2.28761e-08
8.37174e-06
-2.074e-08
8.39039e-06
-1.86443e-08
8.40517e-06
-1.48009e-08
8.41456e-06
-9.52292e-09
8.4215e-06
-6.81853e-09
8.42725e-06
-5.63548e-09
8.43025e-06
-3.00051e-09
8.42963e-06
6.15653e-10
8.42558e-06
4.04887e-09
8.41805e-06
7.54153e-09
8.40575e-06
1.22883e-08
8.38902e-06
1.67479e-08
8.36911e-06
2.00693e-08
8.3462e-06
2.30174e-08
8.31961e-06
2.65826e-08
8.28937e-06
3.0203e-08
8.25516e-06
3.41262e-08
8.21595e-06
3.90365e-08
8.17258e-06
4.33581e-08
8.12548e-06
4.71815e-08
8.07465e-06
5.082e-08
8.02047e-06
5.4158e-08
7.96257e-06
5.78411e-08
7.89979e-06
6.26671e-08
7.83274e-06
6.705e-08
7.76198e-06
7.07622e-08
7.6881e-06
7.39174e-08
7.61061e-06
7.74668e-08
7.52912e-06
8.15134e-08
7.44381e-06
8.54115e-08
7.35512e-06
8.87687e-08
7.26344e-06
9.17074e-08
7.16854e-06
9.49098e-08
7.06967e-06
9.88645e-08
6.96677e-06
1.02895e-07
6.86079e-06
1.06023e-07
6.7523e-06
1.08554e-07
6.64101e-06
1.11352e-07
6.52669e-06
1.14364e-07
6.40928e-06
1.17415e-07
6.2888e-06
1.2044e-07
6.16536e-06
1.23361e-07
6.0391e-06
1.26164e-07
5.91002e-06
1.28984e-07
5.77789e-06
1.32071e-07
5.64296e-06
1.34914e-07
5.50575e-06
1.37248e-07
5.36602e-06
1.39782e-07
5.22343e-06
1.42649e-07
5.07815e-06
1.45316e-07
4.93086e-06
1.47315e-07
4.7821e-06
1.48777e-07
4.63182e-06
1.50264e-07
4.47968e-06
1.52102e-07
4.32518e-06
1.54439e-07
4.16894e-06
1.56204e-07
4.0123e-06
1.56628e-07
3.85596e-06
1.56346e-07
3.69951e-06
1.56472e-07
3.54308e-06
1.56457e-07
3.38686e-06
1.56245e-07
3.23111e-06
1.55765e-07
3.07619e-06
1.5493e-07
2.92244e-06
1.53753e-07
2.77005e-06
1.52392e-07
2.61917e-06
1.50887e-07
2.47013e-06
1.49037e-07
2.32312e-06
1.47007e-07
2.17834e-06
1.44786e-07
2.03587e-06
1.42464e-07
1.89573e-06
1.40128e-07
1.75795e-06
1.37767e-07
1.62272e-06
1.35229e-07
1.49028e-06
1.32439e-07
1.36076e-06
1.29516e-07
1.23409e-06
1.2667e-07
1.11021e-06
1.23885e-07
9.89103e-07
1.21102e-07
8.70786e-07
1.18311e-07
7.55477e-07
1.15302e-07
6.43226e-07
1.12242e-07
5.33967e-07
1.09251e-07
4.27675e-07
1.06286e-07
3.24355e-07
1.03318e-07
2.23786e-07
1.00569e-07
1.25779e-07
9.80112e-08
3.04452e-08
9.53429e-08
-6.19444e-08
9.24019e-08
-1.51105e-07
8.91758e-08
-2.3728e-07
8.61916e-08
-3.21031e-07
8.37699e-08
-4.02591e-07
8.15779e-08
-4.81451e-07
7.88761e-08
-5.57356e-07
7.59186e-08
-6.30519e-07
7.3172e-08
-7.01288e-07
7.07744e-08
-7.69832e-07
6.85444e-08
-8.36169e-07
6.63336e-08
-9.00383e-07
6.42075e-08
-9.62716e-07
6.23277e-08
-1.02306e-06
6.03384e-08
-1.08099e-06
5.79191e-08
-1.13626e-06
5.52709e-08
-1.18956e-06
5.3295e-08
-1.24108e-06
5.15243e-08
-1.2908e-06
4.97208e-08
-1.3387e-06
4.79022e-08
-1.38475e-06
4.60508e-08
-1.42883e-06
4.40812e-08
-1.47097e-06
4.21391e-08
-1.51151e-06
4.05382e-08
-1.55052e-06
3.90087e-08
-1.58781e-06
3.72893e-08
-1.62308e-06
3.52696e-08
-1.65658e-06
3.34975e-08
-1.68843e-06
3.18544e-08
-1.71868e-06
3.02574e-08
-1.74735e-06
2.86779e-08
-1.77484e-06
2.75112e-08
-1.80106e-06
2.62105e-08
-1.82571e-06
2.46544e-08
-1.84884e-06
2.31255e-08
-1.87037e-06
2.15304e-08
-1.89065e-06
2.02774e-08
-1.90984e-06
1.91871e-08
-1.92898e-06
1.91442e-08
-1.94742e-06
1.84363e-08
-1.96543e-06
1.80005e-08
-1.98139e-06
1.59564e-08
-1.99755e-06
1.61632e-08
-2.01294e-06
1.54022e-08
-2.02792e-06
1.49845e-08
-2.04169e-06
1.37879e-08
-2.05385e-06
1.21668e-08
-2.06635e-06
1.2501e-08
-2.07646e-06
1.01253e-08
-2.08523e-06
8.77628e-09
-2.09302e-06
7.7903e-09
-2.09462e-06
1.59724e-09
-2.09787e-06
3.24848e-09
-2.10979e-06
1.1913e-08
-2.11379e-06
3.99823e-09
-2.11982e-06
6.03024e-09
-2.12527e-06
5.44388e-09
-2.08484e-06
-4.04291e-08
-2.05787e-06
-2.69674e-08
-2.08808e-06
3.02049e-08
-2.07413e-06
-1.39436e-08
-2.13927e-06
6.51428e-08
-2.30222e-06
1.62956e-07
-2.58771e-06
2.85493e-07
-2.84043e-06
2.52727e-07
-2.9649e-06
1.24484e-07
-3.08199e-06
1.17092e-07
-3.1545e-06
7.2527e-08
-3.22045e-06
6.5963e-08
-3.27253e-06
5.20855e-08
-3.32094e-06
4.84283e-08
-3.36322e-06
4.22894e-08
-3.4005e-06
3.72966e-08
-3.42378e-06
2.32859e-08
-3.45625e-06
3.24715e-08
-3.46393e-06
7.68872e-09
-3.48394e-06
2.00244e-08
-3.55795e-06
7.40071e-08
-3.567e-06
9.05919e-09
-3.57141e-06
4.40714e-09
-3.59623e-06
2.48295e-08
-3.59785e-06
1.63523e-09
-3.48208e-06
-1.1577e-07
-3.29448e-06
-1.87597e-07
-3.16984e-06
-1.24635e-07
-3.08808e-06
-8.17465e-08
-3.03487e-06
-5.32005e-08
-3.00833e-06
-2.65299e-08
-2.9905e-06
-1.78296e-08
-2.98806e-06
-2.42219e-09
-2.98741e-06
-6.45702e-10
-2.97747e-06
-9.9232e-09
-2.99442e-06
1.69572e-08
-2.99288e-06
-1.52084e-09
-2.99542e-06
2.55335e-09
-3.045e-06
4.9583e-08
-2.95288e-06
-9.21066e-08
-2.84763e-06
-1.05238e-07
-3.0002e-06
1.5257e-07
-2.92941e-06
-7.08057e-08
-3.20379e-06
2.74346e-07
-3.46339e-06
2.59488e-07
-4.67023e-06
1.20668e-06
-5.92061e-06
1.25008e-06
-6.29771e-06
3.76559e-07
-6.4377e-06
1.39499e-07
-6.38265e-06
-5.54746e-08
-6.30539e-06
-7.76415e-08
-6.25442e-06
-5.12278e-08
-6.25477e-06
6.75033e-11
-6.29012e-06
3.51382e-08
-6.34025e-06
4.98061e-08
-6.39335e-06
5.28199e-08
-6.45828e-06
6.47189e-08
-6.53299e-06
7.45571e-08
-6.60811e-06
7.49827e-08
-6.68224e-06
7.40199e-08
-6.74988e-06
6.74215e-08
-6.8132e-06
6.31692e-08
-6.87913e-06
6.58142e-08
-6.9469e-06
6.76994e-08
-7.00811e-06
6.11358e-08
-7.0628e-06
5.46098e-08
-7.11582e-06
5.29344e-08
-7.16732e-06
5.14342e-08
-7.21162e-06
4.4223e-08
-7.24624e-06
3.45512e-08
-7.27619e-06
2.99117e-08
-7.30767e-06
3.147e-08
-7.33783e-06
3.01354e-08
-7.36415e-06
2.62974e-08
-7.38321e-06
1.90034e-08
-7.39601e-06
1.276e-08
-7.40398e-06
7.93534e-09
-7.40506e-06
1.05154e-09
-7.40084e-06
-4.2313e-09
-7.39531e-06
-5.53649e-09
-7.38975e-06
-5.52742e-09
-7.38106e-06
-8.68364e-09
-7.36423e-06
-1.68227e-08
-7.33728e-06
-2.69429e-08
-7.30045e-06
-3.68431e-08
-7.25771e-06
-4.27298e-08
-7.21003e-06
-4.76506e-08
-7.1607e-06
-4.93025e-08
-7.10788e-06
-5.27976e-08
-7.04937e-06
-5.84858e-08
-6.98739e-06
-6.19613e-08
-6.9222e-06
-6.51979e-08
-6.85155e-06
-7.06666e-08
-6.77471e-06
-7.68364e-08
-6.69381e-06
-8.09041e-08
-6.61121e-06
-8.2611e-08
-6.52833e-06
-8.2883e-08
-6.44524e-06
-8.30958e-08
-6.36057e-06
-8.46816e-08
-6.27284e-06
-8.77243e-08
-6.18105e-06
-9.17868e-08
-6.08488e-06
-9.6159e-08
-5.9847e-06
-1.0016e-07
-5.88116e-06
-1.03513e-07
-5.77487e-06
-1.06256e-07
-5.66625e-06
-1.08586e-07
-5.55555e-06
-1.10667e-07
-5.44274e-06
-1.12786e-07
-5.32716e-06
-1.15548e-07
-5.20905e-06
-1.18082e-07
-5.08835e-06
-1.20667e-07
-4.96676e-06
-1.21565e-07
-4.84373e-06
-1.23004e-07
-4.72024e-06
-1.23469e-07
-4.59335e-06
-1.26865e-07
-4.46496e-06
-1.28381e-07
-4.33536e-06
-1.29592e-07
-4.20524e-06
-1.30105e-07
-4.07359e-06
-1.31642e-07
-3.94116e-06
-1.32406e-07
-3.80724e-06
-1.33882e-07
-3.67738e-06
-1.29812e-07
-3.53007e-06
-1.47257e-07
-3.39521e-06
-1.34804e-07
-3.22417e-06
-1.70987e-07
-3.07442e-06
-1.49702e-07
-2.03323e-07
3.29448e-05
7.86978e-06
3.05919e-05
8.2777e-06
2.97586e-05
4.4725e-06
3.13529e-05
-1.85921e-06
3.43397e-05
-7.86265e-06
3.75828e-05
-9.67163e-06
4.08745e-05
-1.01368e-05
4.4412e-05
-9.77677e-06
4.76256e-05
-8.18382e-06
5.03713e-05
-6.35491e-06
5.32177e-05
-5.76951e-06
5.61355e-05
-6.10769e-06
5.89117e-05
-6.09292e-06
6.10184e-05
-4.98891e-06
6.15109e-05
-1.99603e-06
5.92593e-05
2.55779e-06
5.50998e-05
7.15815e-06
5.02125e-05
1.12998e-05
4.56682e-05
1.31816e-05
4.09634e-05
1.21796e-05
3.73298e-05
8.1826e-06
3.51436e-05
4.41611e-06
3.45543e-05
1.01682e-06
3.46853e-05
-8.09e-07
3.47243e-05
-1.05718e-06
3.44603e-05
-5.6336e-07
3.32805e-05
1.10119e-06
3.07028e-05
3.83034e-06
2.68311e-05
6.39941e-06
2.24407e-05
8.22016e-06
1.80108e-05
9.94565e-06
1.31346e-05
1.1644e-05
7.47159e-06
1.25428e-05
2.22444e-06
1.20504e-05
-2.03786e-06
1.02069e-05
-6.4579e-06
8.76237e-06
-1.08881e-05
8.51376e-06
-1.46133e-05
7.95735e-06
-1.7422e-05
5.80417e-06
-1.96429e-05
4.03006e-06
-2.17867e-05
3.80839e-06
-2.39359e-05
4.2876e-06
-2.61687e-05
4.92328e-06
-2.8429e-05
5.241e-06
-3.0584e-05
4.59452e-06
-3.24868e-05
3.38235e-06
-3.40447e-05
2.72878e-06
-3.55592e-05
2.87929e-06
-3.72156e-05
3.50537e-06
-3.89969e-05
4.08363e-06
-4.08627e-05
4.112e-06
-4.26796e-05
3.36206e-06
-4.40594e-05
2.32395e-06
-4.49665e-05
1.52736e-06
-4.55684e-05
9.56299e-07
-4.61939e-05
8.55388e-07
-4.7018e-05
9.88795e-07
-4.8019e-05
1.27656e-06
-4.91962e-05
1.78222e-06
-5.01808e-05
2.17106e-06
-5.08621e-05
2.22451e-06
-5.12845e-05
2.0296e-06
-5.17456e-05
1.9559e-06
-5.2489e-05
2.05993e-06
-5.36456e-05
2.29232e-06
-5.4836e-05
2.16179e-06
-5.58829e-05
1.69672e-06
-5.66531e-05
8.43576e-07
-5.69429e-05
-3.82629e-07
-5.66565e-05
-1.5926e-06
-5.59553e-05
-2.50426e-06
-5.52151e-05
-3.03299e-06
-5.46653e-05
-3.3209e-06
-5.43917e-05
-3.58706e-06
-5.40966e-05
-4.20594e-06
-5.3131e-05
-5.26071e-06
-5.08006e-05
-7.00381e-06
-4.77665e-05
-8.5049e-06
-4.36444e-05
-8.59279e-06
-3.90129e-05
-7.14489e-06
-3.2748e-05
-6.78505e-06
-2.61369e-05
-5.29412e-06
-2.22678e-05
-2.7447e-06
-2.0996e-05
8.57446e-09
-2.12344e-05
1.99944e-06
-2.20066e-05
1.53167e-06
-2.31772e-05
1.59463e-06
-2.48537e-05
2.04576e-06
-2.63323e-05
1.90206e-06
-2.6724e-05
5.60043e-07
-2.67601e-05
9.02902e-08
-2.69581e-05
2.27836e-07
-2.69839e-05
-2.57849e-07
-2.70132e-05
-4.69415e-07
-2.70124e-05
-8.65867e-07
-2.68363e-05
-1.65501e-06
-2.68243e-05
-2.37592e-06
-2.67365e-05
-2.86992e-06
-2.626e-05
-3.46475e-06
-2.43391e-05
-3.62146e-06
-2.1427e-05
-3.24275e-06
-1.81359e-05
-3.21529e-06
-1.58698e-05
-1.75446e-06
-1.49632e-05
-4.8697e-07
-1.43821e-05
6.94421e-08
-1.43794e-05
3.87007e-07
-1.45791e-05
2.8289e-07
-1.49829e-05
4.69032e-07
-1.5602e-05
7.33221e-07
-1.59511e-05
5.07769e-07
-1.59362e-05
1.09995e-07
-1.59562e-05
1.39964e-07
-1.60065e-05
3.03566e-08
-1.60841e-05
-1.73403e-07
-1.62555e-05
-4.23085e-07
-1.63761e-05
-7.74923e-07
-1.65307e-05
-1.13299e-06
-1.62066e-05
-1.12562e-06
-1.5324e-05
-9.77182e-07
-1.40442e-05
-1.14773e-06
-1.31083e-05
-6.65228e-07
-1.28558e-05
-5.64464e-08
-1.2773e-05
2.97385e-07
-1.29012e-05
4.32321e-07
-1.31004e-05
3.62911e-07
-1.34692e-05
5.54326e-07
-1.37421e-05
4.35829e-07
-1.38561e-05
2.6687e-07
-1.39786e-05
2.97782e-07
-1.41058e-05
2.84859e-07
-1.42435e-05
2.74623e-07
-1.43971e-05
2.90108e-07
-1.45239e-05
2.38441e-07
-1.46215e-05
1.95655e-07
-1.47117e-05
1.85883e-07
-1.47999e-05
1.85596e-07
-1.48926e-05
1.87434e-07
-1.49807e-05
1.72703e-07
-1.50647e-05
1.61263e-07
-1.51353e-05
1.36506e-07
-1.51939e-05
1.21072e-07
-1.52483e-05
1.12235e-07
-1.52933e-05
9.42017e-08
-1.53279e-05
7.23484e-08
-1.53526e-05
4.58613e-08
-1.53638e-05
1.79018e-08
-1.53667e-05
5.90868e-10
-1.53623e-05
-9.90406e-09
-1.53472e-05
-2.43198e-08
-1.53185e-05
-4.74539e-08
-1.52805e-05
-8.27206e-08
-1.52265e-05
-1.10995e-07
-1.51669e-05
-1.23824e-07
-1.50999e-05
-1.35766e-07
-1.50204e-05
-1.55144e-07
-1.49257e-05
-1.83536e-07
-1.48193e-05
-2.06871e-07
-1.47081e-05
-2.25596e-07
-1.45897e-05
-2.40211e-07
-1.4463e-05
-2.56267e-07
-1.4326e-05
-2.74162e-07
-1.41784e-05
-2.94684e-07
-1.40191e-05
-3.15784e-07
-1.38489e-05
-3.3879e-07
-1.36688e-05
-3.58872e-07
-1.34839e-05
-3.68964e-07
-1.3294e-05
-3.76597e-07
-1.30965e-05
-3.96499e-07
-1.28838e-05
-4.26475e-07
-1.2659e-05
-4.49326e-07
-1.24287e-05
-4.57439e-07
-1.21944e-05
-4.63731e-07
-1.19519e-05
-4.80703e-07
-1.1698e-05
-5.09299e-07
-1.14305e-05
-5.38297e-07
-1.11506e-05
-5.6195e-07
-1.08598e-05
-5.79912e-07
-1.05613e-05
-5.8793e-07
-1.02607e-05
-5.90969e-07
-9.95316e-06
-6.08637e-07
-9.63552e-06
-6.34427e-07
-9.30434e-06
-6.65448e-07
-8.95202e-06
-7.07183e-07
-8.58427e-06
-7.35659e-07
-8.2042e-06
-7.56342e-07
-7.81586e-06
-7.69632e-07
-7.42561e-06
-7.7241e-07
-7.02856e-06
-7.96219e-07
-6.61529e-06
-8.36682e-07
-6.18242e-06
-8.7631e-07
-5.73106e-06
-9.0399e-07
-5.26665e-06
-9.16881e-07
-4.79751e-06
-9.2711e-07
-4.32852e-06
-9.37144e-07
-3.85692e-06
-9.57365e-07
-3.37558e-06
-9.84468e-07
-2.88483e-06
-1.0035e-06
-2.39507e-06
-9.98102e-07
-1.91442e-06
-9.66022e-07
-1.44587e-06
-9.32096e-07
-9.88493e-07
-9.09532e-07
-5.39745e-07
-8.98388e-07
-1.03664e-07
-8.80301e-07
3.15257e-07
-8.44491e-07
7.13276e-07
-7.9786e-07
1.09482e-06
-7.56104e-07
1.4623e-06
-7.23773e-07
1.81478e-06
-6.99904e-07
2.15016e-06
-6.7253e-07
2.46577e-06
-6.32881e-07
2.76362e-06
-5.875e-07
3.04998e-06
-5.63419e-07
3.32805e-06
-5.54321e-07
3.59582e-06
-5.36431e-07
3.85088e-06
-5.12466e-07
4.09275e-06
-4.85909e-07
4.31949e-06
-4.50948e-07
4.53197e-06
-4.17383e-07
4.73324e-06
-3.96817e-07
4.92646e-06
-3.85412e-07
5.11249e-06
-3.74123e-07
5.28892e-06
-3.56123e-07
5.45559e-06
-3.36343e-07
5.61145e-06
-3.10756e-07
5.75649e-06
-2.84319e-07
5.89095e-06
-2.65e-07
6.01678e-06
-2.5078e-07
6.1364e-06
-2.41085e-07
6.24963e-06
-2.29559e-07
6.35555e-06
-2.14904e-07
6.45228e-06
-1.94494e-07
6.53967e-06
-1.72566e-07
6.62109e-06
-1.60289e-07
6.69847e-06
-1.53469e-07
6.77227e-06
-1.4689e-07
6.84114e-06
-1.38345e-07
6.90458e-06
-1.27409e-07
6.96165e-06
-1.14998e-07
7.01209e-06
-1.03478e-07
7.05728e-06
-9.40077e-08
7.09921e-06
-8.56642e-08
7.14063e-06
-8.03028e-08
7.18117e-06
-7.75997e-08
7.21977e-06
-7.57885e-08
7.2556e-06
-7.33587e-08
7.2888e-06
-6.97842e-08
7.31987e-06
-6.56076e-08
7.34853e-06
-5.75282e-08
7.37779e-06
-5.49349e-08
7.40823e-06
-5.96041e-08
7.43933e-06
-6.32936e-08
7.46955e-06
-6.26583e-08
7.49891e-06
-6.1473e-08
7.52817e-06
-5.96964e-08
7.55874e-06
-5.91032e-08
7.59102e-06
-6.23103e-08
7.62442e-06
-6.55377e-08
7.65824e-06
-6.73509e-08
7.69057e-06
-6.65399e-08
7.72271e-06
-6.62139e-08
7.75721e-06
-6.89271e-08
7.79392e-06
-7.15513e-08
7.83141e-06
-7.36921e-08
7.86921e-06
-7.58366e-08
7.90683e-06
-7.63859e-08
7.94286e-06
-7.31095e-08
7.97815e-06
-6.9179e-08
8.01375e-06
-6.93557e-08
8.0507e-06
-7.276e-08
8.08765e-06
-7.39612e-08
8.12362e-06
-7.232e-08
8.1581e-06
-6.98763e-08
8.19107e-06
-6.70668e-08
8.22263e-06
-6.27114e-08
8.253e-06
-5.80338e-08
8.28146e-06
-5.49265e-08
8.30778e-06
-5.21788e-08
8.33203e-06
-4.91586e-08
8.35438e-06
-4.51892e-08
8.37493e-06
-4.12756e-08
8.39324e-06
-3.69591e-08
8.40792e-06
-2.96025e-08
8.41867e-06
-2.05451e-08
8.42672e-06
-1.48671e-08
8.43276e-06
-1.14084e-08
8.43556e-06
-5.72997e-09
8.43447e-06
1.7594e-09
8.42959e-06
8.96391e-09
8.42146e-06
1.56829e-08
8.40952e-06
2.40364e-08
8.39411e-06
3.21486e-08
8.37502e-06
3.9172e-08
8.3519e-06
4.62408e-08
8.32433e-06
5.4147e-08
8.29296e-06
6.15309e-08
8.25822e-06
6.87877e-08
8.21994e-06
7.71378e-08
8.17774e-06
8.55673e-08
8.13043e-06
9.44748e-08
8.07851e-06
1.02758e-07
8.02315e-06
1.09486e-07
7.96479e-06
1.16166e-07
7.90269e-06
1.2473e-07
7.83594e-06
1.33802e-07
7.76441e-06
1.42382e-07
7.68948e-06
1.4889e-07
7.61192e-06
1.55028e-07
7.53087e-06
1.62583e-07
7.44521e-06
1.71117e-07
7.35563e-06
1.7839e-07
7.26322e-06
1.84144e-07
7.1678e-06
1.90349e-07
7.06902e-06
1.97649e-07
6.96622e-06
2.05719e-07
6.85949e-06
2.12778e-07
6.75013e-06
2.1792e-07
6.63831e-06
2.23165e-07
6.52364e-06
2.29014e-07
6.40592e-06
2.35103e-07
6.28487e-06
2.41463e-07
6.16066e-06
2.47553e-07
6.03372e-06
2.53102e-07
5.90422e-06
2.58494e-07
5.77207e-06
2.64255e-07
5.63723e-06
2.69801e-07
5.49969e-06
2.74852e-07
5.35938e-06
2.80164e-07
5.21645e-06
2.85636e-07
5.07132e-06
2.90484e-07
4.92432e-06
2.94332e-07
4.77549e-06
2.9761e-07
4.62486e-06
3.00885e-07
4.47249e-06
3.04456e-07
4.31859e-06
3.08316e-07
4.16343e-06
3.11373e-07
4.00711e-06
3.12976e-07
3.85065e-06
3.12838e-07
3.69419e-06
3.12958e-07
3.53802e-06
3.12649e-07
3.38233e-06
3.11949e-07
3.22708e-06
3.11029e-07
3.07242e-06
3.09598e-07
2.91866e-06
3.07514e-07
2.76607e-06
3.04989e-07
2.61509e-06
3.01863e-07
2.46634e-06
2.97792e-07
2.31977e-06
2.93561e-07
2.17532e-06
2.89228e-07
2.03301e-06
2.84765e-07
1.89293e-06
2.80196e-07
1.75526e-06
2.7543e-07
1.6202e-06
2.70292e-07
1.48789e-06
2.6474e-07
1.35846e-06
2.58953e-07
1.23184e-06
2.53289e-07
1.10796e-06
2.47762e-07
9.86688e-07
2.42365e-07
8.68068e-07
2.36921e-07
7.52573e-07
2.30786e-07
6.40268e-07
2.24537e-07
5.30953e-07
2.1856e-07
4.24525e-07
2.12713e-07
3.20991e-07
2.06857e-07
2.20334e-07
2.01239e-07
1.22551e-07
1.95812e-07
2.77058e-08
1.90213e-07
-6.42704e-08
1.84408e-07
-1.5343e-07
1.78369e-07
-2.39958e-07
1.72754e-07
-3.24119e-07
1.67965e-07
-4.05889e-07
1.63379e-07
-4.84834e-07
1.57846e-07
-5.60902e-07
1.52004e-07
-6.34194e-07
1.46474e-07
-7.05109e-07
1.41691e-07
-7.73969e-07
1.37398e-07
-8.407e-07
1.33056e-07
-9.05123e-07
1.28622e-07
-9.67165e-07
1.24363e-07
-1.02679e-06
1.19956e-07
-1.08435e-06
1.15476e-07
-1.13992e-06
1.10843e-07
-1.19355e-06
1.06928e-07
-1.24533e-06
1.03301e-07
-1.29527e-06
9.96592e-08
-1.34314e-06
9.57719e-08
-1.38911e-06
9.20213e-08
-1.43322e-06
8.81896e-08
-1.47562e-06
8.45263e-08
-1.5162e-06
8.11174e-08
-1.55496e-06
7.77739e-08
-1.59187e-06
7.41966e-08
-1.62718e-06
7.05814e-08
-1.66089e-06
6.72192e-08
-1.69309e-06
6.40669e-08
-1.72349e-06
6.06677e-08
-1.75222e-06
5.7416e-08
-1.77924e-06
5.45427e-08
-1.80503e-06
5.20006e-08
-1.82958e-06
4.92004e-08
-1.85312e-06
4.66605e-08
-1.87473e-06
4.31355e-08
-1.89526e-06
4.08054e-08
-1.91436e-06
3.82913e-08
-1.93294e-06
3.77194e-08
-1.94975e-06
3.52498e-08
-1.96644e-06
3.46833e-08
-1.98112e-06
3.06384e-08
-1.99699e-06
3.20519e-08
-2.01402e-06
3.24533e-08
-2.03012e-06
3.10962e-08
-2.04636e-06
3.00494e-08
-2.0582e-06
2.40064e-08
-2.06932e-06
2.36361e-08
-2.0727e-06
1.35099e-08
-2.08026e-06
1.63426e-08
-2.09714e-06
2.46672e-08
-2.11151e-06
1.59672e-08
-2.12401e-06
1.5742e-08
-2.12654e-06
1.44349e-08
-2.08276e-06
-3.97955e-08
-2.05597e-06
-2.07622e-08
-2.09547e-06
4.49346e-08
-2.13513e-06
-7.64022e-10
-2.24459e-06
8.24903e-08
-2.41407e-06
1.99694e-07
-2.71055e-06
2.82545e-07
-2.9513e-06
3.05902e-07
-3.04782e-06
2.59484e-07
-3.08654e-06
3.24222e-07
-3.08969e-06
2.55899e-07
-3.14316e-06
1.77967e-07
-3.17954e-06
1.5349e-07
-3.23234e-06
1.25346e-07
-3.26835e-06
1.02001e-07
-3.30099e-06
8.47403e-08
-3.32575e-06
7.32107e-08
-3.36616e-06
8.27052e-08
-3.38909e-06
6.02408e-08
-3.42733e-06
6.15311e-08
-3.5083e-06
1.13455e-07
-3.53164e-06
3.10273e-08
-3.53185e-06
2.02344e-08
-3.51491e-06
5.70626e-08
-3.48526e-06
-2.06007e-08
-3.36044e-06
-1.20412e-07
-3.16606e-06
-1.69552e-07
-3.0404e-06
-1.24013e-07
-3.0019e-06
-1.54272e-07
-3.02233e-06
-1.67164e-07
-3.00555e-06
-1.41431e-07
-3.00994e-06
-7.73657e-08
-2.9809e-06
-8.22435e-08
-2.96688e-06
-4.05418e-08
-2.95512e-06
-2.95836e-08
-2.96901e-06
1.14753e-08
-2.97507e-06
5.40214e-09
-2.98295e-06
-2.06462e-09
-3.02871e-06
6.27007e-08
-2.93928e-06
-9.09653e-08
-2.83804e-06
-9.86995e-08
-2.94036e-06
1.51885e-07
-2.99656e-06
-3.59113e-08
-3.41379e-06
3.11994e-07
-3.65415e-06
3.92952e-07
-4.8013e-06
1.0764e-06
-5.75997e-06
1.23322e-06
-6.08819e-06
5.88091e-07
-6.01384e-06
1.13285e-06
-5.52356e-06
7.60587e-07
-5.45228e-06
3.06031e-07
-5.51762e-06
2.05546e-07
-5.66964e-06
9.71632e-08
-5.80148e-06
5.47796e-08
-5.90246e-06
5.03047e-08
-5.99125e-06
8.93623e-08
-6.07949e-06
1.23853e-07
-6.16825e-06
1.38991e-07
-6.25709e-06
1.42045e-07
-6.34327e-06
1.51256e-07
-6.42494e-06
1.5656e-07
-6.50196e-06
1.52304e-07
-6.57538e-06
1.47724e-07
-6.6451e-06
1.37397e-07
-6.71496e-06
1.33272e-07
-6.78395e-06
1.35028e-07
-6.84936e-06
1.33316e-07
-6.90975e-06
1.21722e-07
-6.96534e-06
1.10372e-07
-7.01733e-06
1.05085e-07
-7.06452e-06
9.8772e-08
-7.10595e-06
8.57856e-08
-7.14302e-06
7.17324e-08
-7.17622e-06
6.32123e-08
-7.2051e-06
6.04251e-08
-7.22938e-06
5.44871e-08
-7.24914e-06
4.61137e-08
-7.26524e-06
3.5165e-08
-7.27608e-06
2.36398e-08
-7.28024e-06
1.21366e-08
-7.27951e-06
3.64831e-10
-7.27529e-06
-8.42413e-09
-7.2679e-06
-1.28955e-08
-7.25753e-06
-1.58865e-08
-7.24148e-06
-2.47176e-08
-7.21966e-06
-3.86208e-08
-7.19176e-06
-5.48297e-08
-7.15816e-06
-7.04298e-08
-7.11978e-06
-8.10895e-08
-7.07672e-06
-9.07057e-08
-7.02845e-06
-9.75607e-08
-6.97495e-06
-1.06284e-07
-6.91633e-06
-1.17103e-07
-6.85354e-06
-1.24752e-07
-6.78743e-06
-1.31312e-07
-6.71789e-06
-1.40215e-07
-6.64494e-06
-1.49807e-07
-6.56867e-06
-1.57189e-07
-6.48945e-06
-1.61858e-07
-6.40687e-06
-1.65483e-07
-6.32067e-06
-1.69337e-07
-6.23116e-06
-1.74223e-07
-6.13868e-06
-1.80237e-07
-6.04345e-06
-1.87045e-07
-5.94548e-06
-1.94156e-07
-5.84452e-06
-2.01157e-07
-5.7404e-06
-2.0766e-07
-5.63341e-06
-2.13292e-07
-5.52408e-06
-2.17955e-07
-5.41254e-06
-2.22253e-07
-5.29857e-06
-2.26796e-07
-5.18217e-06
-2.32e-07
-5.06353e-06
-2.36772e-07
-4.94314e-06
-2.41106e-07
-4.82164e-06
-2.43126e-07
-4.69849e-06
-2.46219e-07
-4.57329e-06
-2.4874e-07
-4.44607e-06
-2.54153e-07
-4.31708e-06
-2.57449e-07
-4.18777e-06
-2.58962e-07
-4.05713e-06
-2.60795e-07
-3.92474e-06
-2.64075e-07
-3.79089e-06
-2.66281e-07
-3.65761e-06
-2.67162e-07
-3.51776e-06
-2.6966e-07
-3.3894e-06
-2.75607e-07
-3.24377e-06
-2.80415e-07
-3.12056e-06
-2.94184e-07
-2.97522e-06
-2.95015e-07
-3.07502e-07
3.34472e-05
1.01684e-05
3.2112e-05
9.61308e-06
3.23397e-05
4.24494e-06
3.47864e-05
-4.30598e-06
3.63289e-05
-9.4052e-06
3.76826e-05
-1.10255e-05
3.89304e-05
-1.13855e-05
4.01046e-05
-1.096e-05
4.08292e-05
-8.93343e-06
4.05877e-05
-6.11267e-06
4.00825e-05
-5.25248e-06
3.98417e-05
-5.85236e-06
3.97898e-05
-6.03842e-06
3.93714e-05
-4.57037e-06
3.78334e-05
-4.5805e-07
3.52659e-05
5.12523e-06
3.29484e-05
9.4757e-06
3.18445e-05
1.24038e-05
3.17732e-05
1.3253e-05
3.1747e-05
1.22058e-05
3.0695e-05
9.23469e-06
2.87225e-05
6.3887e-06
2.58692e-05
3.87021e-06
2.25201e-05
2.54017e-06
1.93431e-05
2.11991e-06
1.6213e-05
2.56672e-06
1.29742e-05
4.34002e-06
9.72575e-06
7.07856e-06
6.27139e-06
9.85341e-06
2.81967e-06
1.16715e-05
-2.03468e-07
1.29685e-05
-2.4904e-06
1.39309e-05
-4.14074e-06
1.41931e-05
-5.61532e-06
1.35249e-05
-7.9109e-06
1.25022e-05
-1.139e-05
1.22403e-05
-1.46547e-05
1.17782e-05
-1.70864e-05
1.03921e-05
-1.91399e-05
7.84629e-06
-2.11425e-05
6.03228e-06
-2.31108e-05
5.77763e-06
-2.49926e-05
6.17757e-06
-2.67662e-05
6.70382e-06
-2.84989e-05
6.97385e-06
-3.03029e-05
6.38381e-06
-3.20889e-05
5.16384e-06
-3.37418e-05
4.3814e-06
-3.5366e-05
4.50863e-06
-3.70425e-05
5.19352e-06
-3.86957e-05
5.7368e-06
-4.04561e-05
5.87243e-06
-4.23056e-05
5.1945e-06
-4.40036e-05
4.01847e-06
-4.54443e-05
2.96771e-06
-4.67329e-05
2.24482e-06
-4.80135e-05
2.13656e-06
-4.9329e-05
2.31242e-06
-5.05513e-05
2.51386e-06
-5.1516e-05
2.74619e-06
-5.20145e-05
2.67023e-06
-5.20476e-05
2.24072e-06
-5.18817e-05
1.86086e-06
-5.17705e-05
1.85687e-06
-5.20597e-05
2.37027e-06
-5.28791e-05
3.11233e-06
-5.39407e-05
3.22386e-06
-5.51245e-05
2.88127e-06
-5.63391e-05
2.02016e-06
-5.72789e-05
5.51918e-07
-5.77303e-05
-1.14177e-06
-5.77695e-05
-2.46309e-06
-5.76927e-05