/*--------------------------------*- C++ -*----------------------------------*\
| =========                 |                                                 |
| \\      /  F ield         | OpenFOAM: The Open Source CFD Toolbox           |
|  \\    /   O peration     | Version:  v2006                                 |
|   \\  /    A nd           | Website:  www.openfoam.com                      |
|    \\/     M anipulation  |                                                 |
\*---------------------------------------------------------------------------*/
FoamFile
{
    version     2.0;
    format      ascii;
    class       volScalarField;
    location    "8.6";
    object      nut;
}
// * * * * * * * * * * * * * * * * * * * * * * * * * * * * * * * * * * * * * //

dimensions      [0 2 -1 0 0 0 0];


internalField   nonuniform List<scalar> 
33000
(
1.42878e-09
2.50475e-09
4.04347e-09
4.29379e-09
2.7374e-09
1.75351e-09
1.43161e-09
1.30239e-09
1.23683e-09
1.22937e-09
1.25175e-09
1.24101e-09
1.20324e-09
1.17389e-09
1.1778e-09
1.24663e-09
1.3607e-09
1.63636e-09
2.5312e-09
4.67889e-09
7.64494e-09
1.02999e-08
1.27762e-08
1.53159e-08
1.78601e-08
1.99763e-08
2.15937e-08
2.3186e-08
2.41041e-08
2.46221e-08
2.64408e-08
3.33607e-08
5.019e-08
7.85553e-08
1.2637e-07
1.95209e-07
2.14691e-07
1.86997e-07
1.76203e-07
1.78362e-07
1.78531e-07
1.65445e-07
1.46059e-07
1.26375e-07
1.119e-07
1.06494e-07
1.04551e-07
1.01317e-07
9.59951e-08
8.8253e-08
7.97026e-08
7.38988e-08
7.0382e-08
6.69295e-08
6.40496e-08
6.2295e-08
6.19656e-08
6.28903e-08
6.45946e-08
6.58649e-08
6.55666e-08
6.40721e-08
6.22106e-08
5.98913e-08
5.66412e-08
5.25442e-08
4.78469e-08
4.31138e-08
3.88624e-08
3.54868e-08
3.27792e-08
3.05913e-08
2.89157e-08
2.77138e-08
2.71386e-08
2.72631e-08
2.8875e-08
3.43495e-08
4.3445e-08
5.2615e-08
5.66695e-08
5.86528e-08
6.56495e-08
8.06034e-08
8.62828e-08
8.6623e-08
8.92438e-08
8.8946e-08
8.65387e-08
8.38995e-08
8.39521e-08
8.15055e-08
7.74719e-08
7.38454e-08
6.78728e-08
6.24837e-08
5.78749e-08
5.84178e-08
6.47185e-08
8.52166e-08
8.95419e-08
8.34144e-08
8.33032e-08
8.84999e-08
1.00522e-07
1.04491e-07
1.05209e-07
1.01356e-07
9.56586e-08
8.94933e-08
8.75708e-08
8.64624e-08
8.32207e-08
7.90201e-08
7.42991e-08
7.14507e-08
7.4133e-08
9.05635e-08
9.45577e-08
8.95634e-08
8.81364e-08
8.89764e-08
9.43396e-08
9.48423e-08
9.5353e-08
9.27622e-08
9.00979e-08
8.94702e-08
8.92646e-08
8.86462e-08
8.81986e-08
8.72365e-08
8.63078e-08
8.56522e-08
8.50265e-08
8.43672e-08
8.37516e-08
8.31528e-08
8.25728e-08
8.20064e-08
8.15508e-08
8.10864e-08
8.06494e-08
8.02335e-08
7.97926e-08
7.93594e-08
7.89676e-08
7.86274e-08
7.833e-08
7.79903e-08
7.76368e-08
7.73334e-08
7.70419e-08
7.67748e-08
7.65269e-08
7.62989e-08
7.60943e-08
7.59064e-08
7.57444e-08
7.55948e-08
7.54638e-08
7.53685e-08
7.53057e-08
7.52505e-08
7.52328e-08
7.52842e-08
7.53371e-08
7.53439e-08
7.53729e-08
7.55204e-08
7.57955e-08
7.61142e-08
7.6381e-08
7.66787e-08
7.71553e-08
7.78494e-08
7.87948e-08
7.99707e-08
8.12029e-08
8.24526e-08
8.39155e-08
8.55961e-08
8.76036e-08
9.01526e-08
9.31288e-08
9.66479e-08
1.00508e-07
1.04546e-07
1.09413e-07
1.15562e-07
1.23257e-07
1.32228e-07
1.42366e-07
1.54279e-07
1.68534e-07
1.86588e-07
2.10155e-07
2.42471e-07
2.8633e-07
3.4032e-07
3.69325e-07
3.7129e-07
3.73728e-07
3.7665e-07
3.79719e-07
3.82618e-07
3.85175e-07
3.87502e-07
3.64814e-07
3.26098e-07
2.98846e-07
2.76557e-07
2.55342e-07
2.37318e-07
2.22838e-07
2.10643e-07
2.00853e-07
1.93246e-07
1.86596e-07
1.80228e-07
1.74261e-07
1.69123e-07
1.64639e-07
1.60845e-07
1.57865e-07
1.55242e-07
1.52733e-07
1.50312e-07
1.48073e-07
1.46043e-07
1.44285e-07
1.4296e-07
1.41813e-07
1.40575e-07
1.3931e-07
1.38091e-07
1.36984e-07
1.36034e-07
1.35169e-07
1.34297e-07
1.33461e-07
1.32694e-07
1.31928e-07
1.31074e-07
1.3012e-07
1.2918e-07
1.28204e-07
1.27306e-07
1.26546e-07
1.25625e-07
1.24494e-07
1.23359e-07
1.22229e-07
1.21085e-07
1.19977e-07
1.18813e-07
1.17542e-07
1.16203e-07
1.14838e-07
1.13472e-07
1.12084e-07
1.10668e-07
1.09211e-07
1.07701e-07
1.06147e-07
1.04597e-07
1.03112e-07
1.01654e-07
1.00109e-07
9.84964e-08
9.69037e-08
9.53416e-08
9.37806e-08
9.22372e-08
9.07446e-08
8.92607e-08
8.77488e-08
8.62316e-08
8.47412e-08
8.3281e-08
8.18265e-08
8.03852e-08
7.90077e-08
7.76698e-08
7.63031e-08
7.49299e-08
7.35937e-08
7.22922e-08
7.09989e-08
6.97248e-08
6.84842e-08
6.72499e-08
6.60036e-08
6.47535e-08
6.35019e-08
6.22418e-08
6.10059e-08
5.98024e-08
5.86146e-08
5.74497e-08
5.63084e-08
5.51812e-08
5.40806e-08
5.30072e-08
5.19454e-08
5.08903e-08
4.98503e-08
4.88492e-08
4.79015e-08
4.70157e-08
4.61921e-08
4.54349e-08
4.47575e-08
4.41675e-08
4.36602e-08
4.32276e-08
4.2875e-08
4.26152e-08
4.2452e-08
4.23909e-08
4.24384e-08
4.25984e-08
4.28715e-08
4.32664e-08
4.3791e-08
4.44397e-08
4.5214e-08
4.61308e-08
4.72002e-08
4.84209e-08
4.97844e-08
5.12968e-08
5.29702e-08
5.48404e-08
5.69318e-08
5.92325e-08
6.17236e-08
6.44297e-08
6.73886e-08
7.06036e-08
7.41147e-08
7.79452e-08
8.21349e-08
8.67165e-08
9.17578e-08
9.73018e-08
1.03409e-07
1.10167e-07
1.17668e-07
1.26038e-07
1.29039e-07
1.29374e-07
1.29677e-07
1.29944e-07
1.30176e-07
1.30371e-07
1.3053e-07
1.30653e-07
1.30739e-07
1.30787e-07
1.30797e-07
1.3077e-07
1.30706e-07
1.30605e-07
1.30471e-07
1.30307e-07
1.30109e-07
1.29872e-07
1.29588e-07
1.2926e-07
1.28893e-07
1.28484e-07
1.28028e-07
1.27522e-07
1.26972e-07
1.26382e-07
1.25751e-07
1.25081e-07
1.24372e-07
1.23626e-07
1.2284e-07
1.22007e-07
1.21133e-07
1.20229e-07
1.19294e-07
1.18331e-07
1.17342e-07
1.16326e-07
1.15285e-07
1.14225e-07
1.13149e-07
1.12059e-07
1.1095e-07
1.09826e-07
1.08693e-07
1.07555e-07
1.06415e-07
1.05275e-07
1.04139e-07
1.03e-07
1.01861e-07
1.00726e-07
9.9598e-08
9.8482e-08
9.7385e-08
9.63061e-08
9.52414e-08
9.41852e-08
9.31521e-08
9.21506e-08
9.11726e-08
8.94295e-08
8.79378e-08
8.64269e-08
8.52449e-08
8.43138e-08
8.28343e-08
8.098e-08
7.97631e-08
7.8064e-08
7.81552e-08
8.04332e-08
7.86889e-08
7.44595e-08
7.20103e-08
6.48044e-08
6.50193e-08
6.75016e-08
6.52372e-08
5.55693e-08
4.96018e-08
5.00273e-08
5.09247e-08
5.05237e-08
5.05125e-08
5.0029e-08
4.98356e-08
4.92054e-08
4.84089e-08
4.76848e-08
4.65824e-08
4.55405e-08
4.65947e-08
4.55132e-08
4.59593e-08
4.60372e-08
4.39791e-08
4.03335e-08
3.97726e-08
4.36046e-08
4.63726e-08
4.79967e-08
4.82711e-08
4.98127e-08
4.93246e-08
5.05191e-08
4.93291e-08
5.04274e-08
4.90359e-08
4.88848e-08
5.09042e-08
5.16294e-08
4.76999e-08
4.98577e-08
3.75821e-08
3.8246e-08
3.33808e-08
3.56196e-08
2.56827e-08
1.99637e-08
2.17588e-08
2.54688e-08
2.88059e-08
3.21118e-08
3.50669e-08
3.73904e-08
3.92491e-08
4.07998e-08
4.21464e-08
4.3241e-08
4.39141e-08
4.43331e-08
4.45976e-08
4.47468e-08
4.48978e-08
4.49736e-08
4.48813e-08
4.47313e-08
4.46545e-08
4.4588e-08
4.44407e-08
4.42609e-08
4.41543e-08
4.41327e-08
4.40903e-08
4.39843e-08
4.38702e-08
4.37823e-08
4.37459e-08
4.37098e-08
4.36855e-08
4.37317e-08
4.38033e-08
4.38402e-08
4.38328e-08
4.38297e-08
4.38783e-08
4.40033e-08
4.4179e-08
4.43881e-08
4.46252e-08
4.48423e-08
4.50982e-08
4.5406e-08
4.57097e-08
4.60237e-08
4.63988e-08
4.68388e-08
4.73179e-08
4.78166e-08
4.83174e-08
4.88211e-08
4.93424e-08
4.98992e-08
5.05057e-08
5.11656e-08
5.18808e-08
5.26478e-08
5.3464e-08
5.433e-08
5.52447e-08
5.62189e-08
5.72528e-08
5.84027e-08
5.95677e-08
6.09465e-08
6.20967e-08
6.38377e-08
6.49453e-08
6.72308e-08
6.83797e-08
7.0846e-08
7.24192e-08
7.66552e-08
6.75927e-08
9.9561e-08
5.50121e-08
1.47966e-07
4.30836e-08
1.48601e-07
3.45097e-09
2.40814e-08
2.46297e-08
1.35855e-08
8.69422e-09
6.0052e-09
5.91551e-09
5.61339e-09
6.19864e-09
7.89764e-09
7.92731e-09
8.1444e-09
9.41983e-09
1.28546e-08
2.02509e-08
2.30404e-08
2.13156e-08
2.46097e-08
3.64692e-08
5.72202e-08
1.11726e-07
1.48741e-07
1.86926e-07
2.36826e-07
2.92081e-07
3.40095e-07
3.83613e-07
4.40888e-07
5.1563e-07
5.58811e-07
5.67216e-07
5.8397e-07
5.69689e-07
5.13253e-07
5.23408e-07
4.86183e-07
4.30097e-07
3.9733e-07
3.69006e-07
3.00134e-07
2.27555e-07
1.9702e-07
1.89802e-07
1.77609e-07
1.48144e-07
1.22987e-07
1.25224e-07
1.2005e-07
1.14678e-07
1.1734e-07
1.03596e-07
8.14515e-08
7.57812e-08
8.49071e-08
9.57719e-08
8.71226e-08
7.03168e-08
6.64894e-08
7.3256e-08
1.07931e-07
1.67877e-07
2.6952e-07
3.08561e-07
1.87558e-07
1.21227e-07
1.06087e-07
1.01381e-07
9.8669e-08
1.01743e-07
9.311e-08
8.54751e-08
9.72499e-08
1.1801e-07
1.32235e-07
1.41303e-07
1.35187e-07
1.1442e-07
1.12961e-07
1.30419e-07
1.73909e-07
1.99005e-07
2.26165e-07
3.01625e-07
3.0473e-07
2.99591e-07
2.91306e-07
2.90393e-07
2.88693e-07
2.65534e-07
2.27996e-07
1.99803e-07
1.84521e-07
1.82798e-07
1.93435e-07
1.79545e-07
1.50978e-07
1.90727e-07
2.15527e-07
2.39095e-07
2.30272e-07
2.11955e-07
1.86562e-07
1.59469e-07
1.31188e-07
1.2268e-07
1.03095e-07
6.91499e-08
8.41366e-08
4.37174e-08
5.65768e-08
1.18966e-07
1.36177e-07
9.03575e-08
7.80432e-08
7.94208e-08
6.51209e-08
7.44255e-08
5.6361e-08
3.33681e-08
2.18644e-08
2.85044e-08
6.79195e-08
6.33385e-08
6.78269e-08
6.48073e-08
6.00104e-08
7.65117e-08
1.48679e-07
1.74495e-07
1.50519e-07
1.41577e-07
1.33563e-07
1.62728e-07
1.76922e-07
1.7712e-07
1.77576e-07
1.77717e-07
1.7754e-07
1.77501e-07
1.77411e-07
1.77626e-07
1.77962e-07
1.78096e-07
1.78146e-07
1.78264e-07
1.78553e-07
1.79054e-07
1.79589e-07
1.80061e-07
1.80447e-07
1.80791e-07
1.81153e-07
1.81539e-07
1.8192e-07
1.82252e-07
1.82483e-07
1.82599e-07
1.82667e-07
1.82755e-07
1.82877e-07
1.83006e-07
1.7771e-07
1.65644e-07
1.55483e-07
1.48861e-07
1.4595e-07
1.42598e-07
1.35798e-07
1.27301e-07
1.21512e-07
1.1967e-07
1.17249e-07
1.12623e-07
1.07553e-07
1.02094e-07
9.76368e-08
9.45757e-08
9.25118e-08
9.13978e-08
8.89778e-08
8.53672e-08
8.08538e-08
7.57039e-08
7.21815e-08
6.97224e-08
6.81236e-08
6.73324e-08
6.52608e-08
6.20642e-08
5.8803e-08
5.6092e-08
5.42298e-08
5.31925e-08
5.25279e-08
5.13832e-08
4.96022e-08
4.80992e-08
4.78284e-08
4.83729e-08
4.90711e-08
4.93942e-08
4.93543e-08
4.99024e-08
5.12299e-08
5.31974e-08
5.47195e-08
5.58379e-08
5.71394e-08
5.91021e-08
6.19642e-08
6.46146e-08
6.6063e-08
6.64933e-08
6.75923e-08
6.985e-08
7.27276e-08
7.64475e-08
8.03995e-08
8.3294e-08
8.4974e-08
8.64771e-08
8.96528e-08
9.37043e-08
9.85468e-08
1.04738e-07
1.11163e-07
1.1679e-07
1.20876e-07
1.25582e-07
1.32484e-07
1.42642e-07
1.56338e-07
1.6669e-07
1.72649e-07
1.79297e-07
1.89304e-07
2.0252e-07
2.23392e-07
2.30113e-07
2.30036e-07
2.29919e-07
2.29676e-07
2.29372e-07
2.29161e-07
2.29107e-07
2.29286e-07
2.29624e-07
2.297e-07
2.29496e-07
2.29341e-07
2.2938e-07
2.29621e-07
2.29969e-07
2.30218e-07
2.30316e-07
2.30341e-07
2.30409e-07
2.30613e-07
2.30893e-07
2.31163e-07
2.31357e-07
2.31394e-07
2.31333e-07
2.31307e-07
2.3139e-07
2.31568e-07
2.31581e-07
2.31332e-07
2.31064e-07
2.30865e-07
2.30625e-07
2.30317e-07
2.30011e-07
2.29702e-07
2.29267e-07
2.28712e-07
2.28138e-07
2.27583e-07
2.26992e-07
2.26296e-07
2.2554e-07
2.24827e-07
2.24091e-07
2.23265e-07
2.22431e-07
2.21606e-07
2.20717e-07
2.19732e-07
2.18694e-07
2.17659e-07
2.16628e-07
2.15589e-07
2.14517e-07
2.13379e-07
2.12153e-07
2.10861e-07
2.09567e-07
2.08305e-07
2.07096e-07
2.05933e-07
2.04775e-07
2.03568e-07
2.02342e-07
1.92017e-07
1.77416e-07
1.67714e-07
1.60465e-07
1.51984e-07
1.42383e-07
1.34803e-07
1.29353e-07
1.24124e-07
1.18957e-07
1.13407e-07
1.08302e-07
1.04767e-07
1.01675e-07
9.84753e-08
9.53321e-08
9.21835e-08
8.93742e-08
8.7052e-08
8.50026e-08
8.30375e-08
8.11491e-08
7.93394e-08
7.76328e-08
7.61488e-08
7.49411e-08
7.39201e-08
7.29449e-08
7.20625e-08
7.12815e-08
7.06684e-08
7.0113e-08
6.95454e-08
6.93869e-08
6.93518e-08
6.94348e-08
6.95974e-08
6.97068e-08
6.98571e-08
7.01172e-08
7.04904e-08
7.10739e-08
7.19212e-08
7.27569e-08
7.35504e-08
7.43792e-08
7.52882e-08
7.63197e-08
7.74731e-08
7.87345e-08
8.01047e-08
8.15194e-08
8.29519e-08
8.43544e-08
8.58448e-08
8.77381e-08
8.97898e-08
9.17998e-08
9.38421e-08
9.60095e-08
9.83037e-08
1.00755e-07
1.03404e-07
1.06125e-07
1.08925e-07
1.11724e-07
1.14382e-07
1.17252e-07
1.20866e-07
1.2484e-07
1.28956e-07
1.32739e-07
1.36139e-07
1.39927e-07
1.44339e-07
1.49335e-07
1.54731e-07
1.59621e-07
1.64569e-07
1.69926e-07
1.75314e-07
1.81118e-07
1.88133e-07
1.95228e-07
2.0258e-07
2.10125e-07
2.15337e-07
2.16036e-07
2.16855e-07
2.1783e-07
2.18798e-07
2.19703e-07
2.20598e-07
2.21453e-07
2.22224e-07
2.2309e-07
2.24189e-07
2.25441e-07
2.26697e-07
2.27806e-07
2.28833e-07
2.29795e-07
2.30954e-07
2.32384e-07
2.34149e-07
2.35535e-07
2.36979e-07
2.38254e-07
2.39694e-07
2.41402e-07
2.43034e-07
2.44749e-07
2.4589e-07
2.4694e-07
2.47987e-07
2.49806e-07
2.51372e-07
1.90938e-07
2.44398e-07
8.705e-08
9.27609e-08
6.52339e-08
4.7223e-08
2.74421e-08
3.2532e-08
6.588e-08
7.13655e-08
6.49438e-08
7.1022e-08
1.4582e-07
1.33815e-07
2.07384e-07
2.61895e-07
2.67392e-07
1.96345e-07
2.1169e-07
2.24752e-07
1.05953e-07
2.36628e-07
1.62096e-07
1.81943e-07
2.21254e-07
6.3211e-08
3.81325e-08
5.78554e-08
1.15943e-07
1.42155e-07
7.70796e-08
1.48359e-07
1.38289e-07
3.25479e-07
3.06289e-07
3.08168e-07
2.97602e-07
2.86238e-07
1.50473e-07
9.49967e-08
8.11598e-08
3.47354e-08
4.90467e-08
1.74809e-08
2.64106e-08
8.19991e-09
9.11045e-09
4.17339e-08
9.77256e-08
1.9459e-08
3.46095e-08
9.98404e-08
5.53226e-08
4.94761e-08
5.76341e-08
6.5555e-08
7.89802e-08
8.87493e-08
9.27275e-08
9.66611e-08
1.03686e-07
1.11099e-07
1.17912e-07
1.23628e-07
1.23867e-07
1.25957e-07
1.33759e-07
1.44909e-07
1.5687e-07
1.67931e-07
1.85456e-07
2.0984e-07
2.34079e-07
2.50573e-07
2.48312e-07
2.4626e-07
2.44597e-07
2.43321e-07
2.42151e-07
2.41002e-07
2.39943e-07
2.38819e-07
2.37595e-07
2.36521e-07
2.35884e-07
2.35746e-07
2.35937e-07
2.36144e-07
2.36111e-07
2.20613e-07
2.00462e-07
1.83216e-07
1.67538e-07
1.5615e-07
1.48267e-07
1.41332e-07
1.34997e-07
1.29148e-07
1.23813e-07
1.18957e-07
1.14256e-07
1.10174e-07
1.06684e-07
1.03525e-07
1.00407e-07
9.72222e-08
9.42446e-08
9.16067e-08
8.94776e-08
8.77212e-08
8.59449e-08
8.41299e-08
8.22896e-08
8.155e-08
7.97596e-08
8.04224e-08
7.6524e-08
7.80806e-08
7.47792e-08
7.57235e-08
7.55814e-08
7.23085e-08
6.41188e-08
9.01634e-08
2.44161e-08
3.0256e-08
1.68639e-08
2.08086e-08
1.24343e-08
2.99972e-08
6.9035e-09
3.25366e-08
1.8755e-08
7.80933e-09
7.32142e-09
7.42717e-09
8.68776e-09
9.48649e-09
1.50703e-08
1.48134e-08
1.00428e-08
1.26588e-08
1.92015e-08
3.21387e-08
6.22082e-08
5.56044e-08
5.35418e-08
6.06007e-08
7.68558e-08
1.04153e-07
1.48423e-07
2.16874e-07
3.12008e-07
4.06439e-07
4.91377e-07
5.66374e-07
6.1217e-07
6.17193e-07
6.36072e-07
6.53818e-07
6.4243e-07
6.3476e-07
6.49215e-07
6.4933e-07
6.20281e-07
5.70223e-07
5.19211e-07
4.61795e-07
3.8504e-07
3.10261e-07
2.63409e-07
2.44157e-07
2.38806e-07
2.15183e-07
1.5125e-07
1.10966e-07
1.04253e-07
9.20066e-08
8.44707e-08
8.76363e-08
7.43096e-08
5.26591e-08
4.06651e-08
3.56814e-08
3.31463e-08
3.13093e-08
3.07113e-08
3.47108e-08
5.141e-08
8.9097e-08
1.21012e-07
1.32403e-07
1.32899e-07
1.3398e-07
1.09169e-07
8.31885e-08
6.7721e-08
5.581e-08
5.19266e-08
6.05214e-08
8.59587e-08
1.25723e-07
1.35783e-07
1.46512e-07
1.56587e-07
1.54413e-07
1.74242e-07
1.827e-07
1.91906e-07
2.024e-07
2.14574e-07
2.28162e-07
2.42875e-07
2.57718e-07
2.72583e-07
2.82043e-07
2.79761e-07
2.59855e-07
2.33846e-07
2.1228e-07
1.92571e-07
1.71648e-07
1.48674e-07
1.34946e-07
1.28237e-07
1.29959e-07
1.38703e-07
1.50085e-07
1.56937e-07
1.56785e-07
1.52275e-07
1.41949e-07
1.30448e-07
1.14918e-07
9.81823e-08
8.29658e-08
7.14181e-08
6.08665e-08
4.8802e-08
3.94127e-08
3.03512e-08
2.47685e-08
3.40396e-08
1.20431e-07
4.61763e-08
2.43812e-08
2.23259e-08
2.80929e-08
2.34688e-08
2.81308e-08
1.78891e-08
1.19124e-08
7.63953e-09
9.61156e-09
2.23999e-08
2.0322e-08
2.61178e-08
2.97436e-08
2.74803e-08
3.5526e-08
8.57767e-08
1.25496e-07
8.65983e-08
8.59375e-08
8.1162e-08
7.23522e-08
7.99081e-08
1.06691e-07
1.11194e-07
1.19962e-07
1.37807e-07
1.54012e-07
1.77028e-07
2.13685e-07
2.41945e-07
2.85597e-07
3.44559e-07
3.41484e-07
2.74982e-07
1.98593e-07
1.75937e-07
1.80016e-07
1.70429e-07
1.43621e-07
1.1725e-07
1.00636e-07
9.28665e-08
8.9092e-08
8.60143e-08
8.06206e-08
7.49546e-08
6.98323e-08
6.4663e-08
6.07713e-08
5.88423e-08
5.73764e-08
5.48767e-08
5.2362e-08
5.01203e-08
4.78168e-08
4.61891e-08
4.46194e-08
4.30073e-08
4.18779e-08
4.01165e-08
3.81956e-08
3.68699e-08
3.56802e-08
3.48263e-08
3.39001e-08
3.24973e-08
3.09172e-08
2.95522e-08
2.8492e-08
2.75018e-08
2.65987e-08
2.58736e-08
2.52421e-08
2.46824e-08
2.38132e-08
2.26325e-08
2.1672e-08
2.11458e-08
2.09979e-08
2.10929e-08
2.10112e-08
2.06548e-08
2.0375e-08
2.01108e-08
2.02422e-08
2.07019e-08
2.11524e-08
2.16565e-08
2.21098e-08
2.26346e-08
2.31607e-08
2.38592e-08
2.50071e-08
2.64831e-08
2.77817e-08
2.85034e-08
2.9517e-08
3.07923e-08
3.20503e-08
3.36148e-08
3.54596e-08
3.72153e-08
3.88484e-08
4.06703e-08
4.27901e-08
4.5198e-08
4.80686e-08
5.06578e-08
5.23523e-08
5.49666e-08
5.91394e-08
6.39754e-08
6.96796e-08
7.44301e-08
7.87317e-08
8.35193e-08
9.02077e-08
9.72783e-08
1.03153e-07
1.10451e-07
1.1945e-07
1.30611e-07
1.48391e-07
1.67841e-07
1.82038e-07
1.84304e-07
1.85353e-07
1.96655e-07
2.20457e-07
2.51243e-07
2.81137e-07
2.92823e-07
2.74064e-07
2.54532e-07
2.57307e-07
2.74155e-07
2.98252e-07
3.13381e-07
2.833e-07
2.49021e-07
2.36431e-07
2.35806e-07
2.48184e-07
2.60058e-07
2.50439e-07
2.27434e-07
2.13638e-07
2.12816e-07
2.16319e-07
2.16191e-07
2.14255e-07
2.15221e-07
2.15305e-07
2.14578e-07
2.15432e-07
2.21264e-07
2.35431e-07
2.4663e-07
2.42282e-07
2.40019e-07
2.52315e-07
2.80514e-07
3.17977e-07
3.49908e-07
3.72965e-07
4.00103e-07
4.33755e-07
4.90107e-07
6.10181e-07
7.50129e-07
8.18244e-07
8.51556e-07
8.31423e-07
7.26015e-07
6.12065e-07
5.2238e-07
4.27201e-07
3.42175e-07
2.87696e-07
2.58168e-07
2.37237e-07
2.18441e-07
1.98874e-07
1.77459e-07
1.60112e-07
1.49434e-07
1.42087e-07
1.33801e-07
1.23642e-07
1.15268e-07
1.10533e-07
1.07173e-07
1.0241e-07
9.63862e-08
9.18802e-08
8.90757e-08
8.63491e-08
8.34861e-08
7.99519e-08
7.65339e-08
7.47047e-08
7.32933e-08
7.14755e-08
6.94924e-08
6.73496e-08
6.55103e-08
6.41769e-08
6.304e-08
6.18505e-08
6.06549e-08
5.94262e-08
5.81473e-08
5.70057e-08
5.61689e-08
5.55537e-08
5.4964e-08
5.43466e-08
5.3699e-08
5.31961e-08
5.28761e-08
5.25176e-08
5.23374e-08
5.22916e-08
5.24098e-08
5.26049e-08
5.27089e-08
5.27682e-08
5.29188e-08
5.32219e-08
5.38899e-08
5.4837e-08
5.56031e-08
5.63015e-08
5.70453e-08
5.78189e-08
5.86917e-08
5.97193e-08
6.09463e-08
6.23179e-08
6.36709e-08
6.49863e-08
6.61958e-08
6.75722e-08
6.94879e-08
7.14041e-08
7.31939e-08
7.50515e-08
7.70418e-08
7.9331e-08
8.17846e-08
8.42133e-08
8.64963e-08
8.88416e-08
9.17196e-08
9.46724e-08
9.7273e-08
1.00082e-07
1.03552e-07
1.0778e-07
1.11534e-07
1.14742e-07
1.18309e-07
1.22891e-07
1.28057e-07
1.33042e-07
1.37378e-07
1.41696e-07
1.46509e-07
1.51347e-07
1.56712e-07
1.63951e-07
1.71385e-07
1.77733e-07
1.84201e-07
1.91309e-07
2.01764e-07
2.11548e-07
2.20882e-07
2.28558e-07
2.39169e-07
2.51775e-07
2.71466e-07
2.88406e-07
3.06793e-07
3.15608e-07
3.26176e-07
3.41549e-07
3.8058e-07
4.06994e-07
4.4919e-07
4.42382e-07
4.00434e-07
4.18226e-07
3.89873e-07
4.96533e-07
5.91097e-07
8.37867e-07
5.98249e-07
3.22492e-07
4.12328e-07
2.93027e-07
5.86301e-07
1.86801e-07
2.55584e-07
7.75087e-08
7.83189e-08
5.48398e-08
4.01641e-08
2.37038e-08
2.91813e-08
5.83674e-08
5.56082e-08
6.49713e-08
8.53899e-08
1.2453e-07
1.28575e-07
1.79859e-07
2.75361e-07
1.79717e-07
2.03548e-07
1.97882e-07
1.11437e-07
1.07333e-07
2.05054e-07
1.44738e-07
1.43155e-07
2.35434e-07
5.68237e-08
3.59558e-08
6.497e-08
1.18789e-07
1.31941e-07
9.10651e-08
1.66001e-07
1.6032e-07
2.24804e-07
3.21821e-07
6.93775e-07
1.39666e-07
1.49422e-07
1.17687e-07
9.82406e-08
7.48845e-08
3.61424e-08
4.43383e-08
1.41683e-08
2.09915e-08
6.93168e-09
7.68635e-09
3.22405e-08
4.06094e-08
2.22414e-08
2.31754e-08
1.38875e-08
2.16464e-08
3.63742e-07
6.44051e-08
4.23725e-08
4.02509e-08
4.54796e-08
5.49223e-08
6.60889e-08
7.34723e-08
7.73118e-08
8.52356e-08
9.45018e-08
9.96716e-08
1.02571e-07
1.01256e-07
1.00984e-07
1.0712e-07
1.15906e-07
1.20473e-07
1.26601e-07
1.38897e-07
1.52339e-07
1.61824e-07
1.72717e-07
1.9626e-07
2.33166e-07
2.6697e-07
2.97978e-07
3.10066e-07
3.2767e-07
3.56352e-07
3.93825e-07
4.41485e-07
4.34649e-07
3.48801e-07
2.85282e-07
2.57574e-07
2.43965e-07
2.3584e-07
2.18534e-07
1.98999e-07
1.75258e-07
1.56412e-07
1.45665e-07
1.34991e-07
1.2465e-07
1.18621e-07
1.15244e-07
1.10775e-07
1.04688e-07
9.83717e-08
9.28984e-08
8.87882e-08
8.58221e-08
8.35592e-08
8.15386e-08
7.95252e-08
7.75532e-08
7.56747e-08
7.39796e-08
7.24165e-08
7.09622e-08
6.98384e-08
6.86283e-08
6.83013e-08
6.62176e-08
6.64987e-08
6.30771e-08
6.49653e-08
6.24681e-08
6.2965e-08
6.26281e-08
6.01345e-08
5.32227e-08
7.59646e-08
2.00817e-08
2.51762e-08
1.39712e-08
1.72823e-08
1.03026e-08
2.56454e-08
9.74471e-09
4.09866e-08
1.44894e-08
6.77439e-09
8.12014e-09
1.23164e-08
3.57434e-08
2.02746e-08
1.06579e-08
1.50243e-08
2.09806e-08
3.66781e-08
8.34309e-08
1.05181e-07
1.00247e-07
8.78733e-08
9.10241e-08
1.03517e-07
1.26795e-07
1.65021e-07
2.17763e-07
2.75948e-07
3.27233e-07
3.68823e-07
4.12515e-07
4.63114e-07
5.07037e-07
5.13481e-07
5.25827e-07
5.38957e-07
5.37118e-07
5.33605e-07
5.30136e-07
5.17874e-07
4.88572e-07
4.40416e-07
3.92564e-07
3.41184e-07
2.82369e-07
2.28651e-07
1.93824e-07
1.75985e-07
1.67834e-07
1.61737e-07
1.04549e-07
6.88176e-08
5.77235e-08
5.36259e-08
5.44326e-08
5.99879e-08
5.34435e-08
3.74081e-08
2.67222e-08
2.11239e-08
1.81963e-08
1.85222e-08
2.2077e-08
2.86395e-08
4.12258e-08
4.22667e-08
4.48165e-08
6.55528e-08
1.10482e-07
1.11491e-07
1.12558e-07
7.5328e-08
5.17711e-08
3.67867e-08
2.89736e-08
2.81254e-08
3.59144e-08
5.79474e-08
8.49548e-08
1.06536e-07
1.28028e-07
1.30696e-07
1.3105e-07
1.53715e-07
1.64217e-07
1.75713e-07
1.87817e-07
1.99987e-07
2.11764e-07
2.22989e-07
2.3322e-07
2.42027e-07
2.48234e-07
2.51056e-07
2.48918e-07
2.39296e-07
2.17592e-07
1.89546e-07
1.71042e-07
1.55555e-07
1.40737e-07
1.23966e-07
1.16502e-07
1.14556e-07
1.17157e-07
1.20844e-07
1.21387e-07
1.1736e-07
1.10045e-07
1.01977e-07
9.27281e-08
8.48039e-08
7.5199e-08
4.85845e-08
3.40719e-08
3.27046e-08
4.44137e-08
3.25996e-08
3.26353e-08
2.81598e-08
2.41575e-08
2.66257e-08
7.37868e-08
4.60188e-08
2.06007e-08
1.48832e-08
1.89049e-08
1.54772e-08
1.87309e-08
1.17979e-08
8.17199e-09
5.37384e-09
6.99867e-09
1.65916e-08
1.5903e-08
2.1544e-08
2.49578e-08
2.59841e-08
3.58926e-08
9.61269e-08
1.06307e-07
1.52782e-07
8.01298e-08
7.01524e-08
6.56607e-08
7.60995e-08
1.18989e-07
1.34115e-07
1.32275e-07
1.39395e-07
1.53407e-07
1.81766e-07
2.2067e-07
1.98003e-07
1.54271e-07
1.31075e-07
1.31916e-07
1.40622e-07
1.2637e-07
1.03081e-07
8.68788e-08
7.90832e-08
7.50537e-08
7.06509e-08
6.61682e-08
6.21058e-08
5.83441e-08
5.45347e-08
5.06347e-08
4.81179e-08
4.66187e-08
4.47842e-08
4.23207e-08
4.03858e-08
3.90009e-08
3.72902e-08
3.5433e-08
3.41622e-08
3.31543e-08
3.21377e-08
3.08655e-08
2.96239e-08
2.87111e-08
2.78505e-08
2.69898e-08
2.60324e-08
2.47871e-08
2.37326e-08
2.3335e-08
2.28926e-08
2.22402e-08
2.14887e-08
2.06796e-08
2.01876e-08
2.00109e-08
1.9784e-08
1.91838e-08
1.86339e-08
1.81816e-08
1.78789e-08
1.80171e-08
1.82993e-08
1.83791e-08
1.8269e-08
1.79573e-08
1.78687e-08
1.83112e-08
1.89583e-08
1.94455e-08
1.96034e-08
1.97291e-08
2.02535e-08
2.11124e-08
2.232e-08
2.36212e-08
2.4482e-08
2.5028e-08
2.60153e-08
2.75292e-08
2.90072e-08
3.06428e-08
3.26265e-08
3.41832e-08
3.53512e-08
3.67385e-08
3.8958e-08
4.20488e-08
4.54158e-08
4.82511e-08
4.97048e-08
5.12655e-08
5.43813e-08
5.86663e-08
6.50237e-08
7.16914e-08
7.70128e-08
8.12137e-08
8.55214e-08
9.09821e-08
9.89671e-08
1.08307e-07
1.16954e-07
1.28513e-07
1.47145e-07
1.63275e-07
1.71326e-07
1.73786e-07
1.8254e-07
2.04498e-07
2.38244e-07
2.732e-07
2.94427e-07
2.90209e-07
2.60968e-07
2.46086e-07
2.57881e-07
2.87084e-07
3.1547e-07
3.15455e-07
2.76833e-07
2.40798e-07
2.30952e-07
2.36091e-07
2.49758e-07
2.4651e-07
2.26206e-07
2.12428e-07
2.07746e-07
2.08008e-07
2.12159e-07
2.11194e-07
2.01628e-07
1.97989e-07
1.99407e-07
2.01503e-07
2.05588e-07
2.1425e-07
2.26286e-07
2.31816e-07
2.27672e-07
2.2641e-07
2.34452e-07
2.51182e-07
2.83628e-07
3.24881e-07
3.6059e-07
3.77793e-07
3.76207e-07
3.98349e-07
4.7066e-07
5.60749e-07
5.8386e-07
5.88205e-07
6.18718e-07
5.82764e-07
4.99249e-07
4.26518e-07
3.49354e-07
2.91731e-07
2.62295e-07
2.41955e-07
2.20762e-07
2.00352e-07
1.82231e-07
1.65731e-07
1.52641e-07
1.43502e-07
1.34903e-07
1.24826e-07
1.15976e-07
1.10781e-07
1.06827e-07
1.02463e-07
9.7276e-08
9.21857e-08
8.85651e-08
8.57835e-08
8.30477e-08
8.00496e-08
7.67896e-08
7.41384e-08
7.24289e-08
7.09827e-08
6.92328e-08
6.71484e-08
6.51226e-08
6.36514e-08
6.24738e-08
6.13844e-08
6.02193e-08
5.90997e-08
5.80305e-08
5.69002e-08
5.58015e-08
5.48779e-08
5.43548e-08
5.4027e-08
5.35529e-08
5.28043e-08
5.21172e-08
5.19323e-08
5.1877e-08
5.18279e-08
5.1766e-08
5.17478e-08
5.18494e-08
5.18737e-08
5.18528e-08
5.20206e-08
5.24924e-08
5.3302e-08
5.41407e-08
5.47985e-08
5.54881e-08
5.62829e-08
5.70646e-08
5.7751e-08
5.85694e-08
5.9821e-08
6.13441e-08
6.27192e-08
6.39593e-08
6.51444e-08
6.65711e-08
6.84565e-08
7.02464e-08
7.19386e-08
7.37294e-08
7.56866e-08
7.79389e-08
8.03102e-08
8.26517e-08
8.48995e-08
8.71883e-08
9.0132e-08
9.33804e-08
9.6017e-08
9.82702e-08
1.01381e-07
1.05503e-07
1.09479e-07
1.13104e-07
1.16841e-07
1.2123e-07
1.2594e-07
1.3033e-07
1.34831e-07
1.39513e-07
1.44215e-07
1.48742e-07
1.53634e-07
1.6091e-07
1.68699e-07
1.75814e-07
1.8112e-07
1.87892e-07
1.97616e-07
2.08975e-07
2.176e-07
2.25972e-07
2.3457e-07
2.48468e-07
2.64299e-07
2.81193e-07
2.98557e-07
3.21243e-07
3.31497e-07
3.55611e-07
3.64429e-07
3.84265e-07
4.20657e-07
5.21935e-07
5.67824e-07
1.20266e-06
5.38973e-07
3.20997e-07
2.76726e-07
2.75959e-07
2.81143e-07
4.97186e-07
1.92732e-07
2.79815e-07
7.37979e-08
7.37326e-08
5.16123e-08
3.75893e-08
2.25815e-08
2.77979e-08
5.50082e-08
5.03417e-08
6.26621e-08
8.53266e-08
1.24333e-07
1.87959e-07
1.01302e-06
4.07651e-07
1.58997e-07
1.28074e-07
2.25639e-07
1.02148e-07
4.43524e-07
1.48924e-07
1.05469e-07
2.29321e-07
2.12315e-07
6.40428e-08
3.66093e-08
6.86672e-08
1.12331e-07
1.313e-07
1.00572e-07
1.16699e-07
1.3238e-07
2.73509e-07
1.76247e-07
2.35893e-07
1.08638e-07
1.13778e-07
5.90486e-08
7.14178e-08
1.02539e-07
5.15849e-08
5.83842e-08
1.46762e-08
2.23634e-08
6.93818e-09
7.51734e-09
2.65653e-08
3.43988e-08
2.41532e-08
2.75689e-08
1.33115e-08
1.83263e-08
4.25259e-08
6.30871e-08
6.21417e-08
5.10334e-08
5.696e-08
5.93106e-08
5.85125e-08
5.62303e-08
6.0926e-08
6.94798e-08
7.59963e-08
7.90152e-08
8.40215e-08
8.97792e-08
9.32766e-08
9.53836e-08
9.46293e-08
9.7943e-08
1.07306e-07
1.16082e-07
1.19887e-07
1.24155e-07
1.33114e-07
1.41921e-07
1.48798e-07
1.59811e-07
1.80991e-07
2.1065e-07
2.32064e-07
2.50224e-07
2.59867e-07
2.61627e-07
2.72825e-07
2.9754e-07
3.174e-07
3.07663e-07
2.65936e-07
2.31517e-07
2.12576e-07
2.02209e-07
1.95638e-07
1.84745e-07
1.70731e-07
1.55388e-07
1.44775e-07
1.37894e-07
1.29803e-07
1.21602e-07
1.15791e-07
1.11376e-07
1.0641e-07
1.00853e-07
9.57053e-08
9.13889e-08
8.79066e-08
8.50431e-08
8.2465e-08
8.00905e-08
7.78684e-08
7.58906e-08
7.42254e-08
7.26237e-08
7.11089e-08
6.97604e-08
6.88424e-08
6.76879e-08
6.71778e-08
6.48717e-08
6.50063e-08
6.21742e-08
6.43641e-08
6.14565e-08
6.15304e-08
6.16183e-08
5.94776e-08
5.2877e-08
7.51394e-08
1.99475e-08
2.48664e-08
1.38551e-08
1.7104e-08
1.01932e-08
2.56242e-08
1.02953e-08
3.46678e-08
1.1521e-08
6.71965e-09
1.0013e-08
1.76481e-08
2.73325e-08
1.10755e-08
9.11346e-09
1.75499e-08
3.95499e-08
7.37383e-08
1.36124e-07
1.37509e-07
1.33287e-07
1.253e-07
1.26432e-07
1.42714e-07
1.69873e-07
2.01708e-07
2.34986e-07
2.63963e-07
2.8739e-07
3.10789e-07
3.41028e-07
3.76735e-07
4.06917e-07
4.15358e-07
4.22993e-07
4.33021e-07
4.3424e-07
4.30149e-07
4.2274e-07
4.08141e-07
3.79006e-07
3.41433e-07
3.03167e-07
2.62261e-07
2.19278e-07
1.83536e-07
1.22386e-07
9.91096e-08
9.45523e-08
8.70946e-08
5.98e-08
3.97235e-08
3.17463e-08
3.24803e-08
3.90698e-08
4.31014e-08
3.92157e-08
2.74328e-08
1.87621e-08
1.46951e-08
1.32036e-08
1.42575e-08
1.72607e-08
2.1219e-08
2.4142e-08
2.32186e-08
2.49012e-08
3.05644e-08
4.57408e-08
1.33544e-07
1.30645e-07
8.99465e-08
4.97948e-08
2.99663e-08
2.08421e-08
1.81452e-08
2.00319e-08
2.49756e-08
3.35757e-08
4.25971e-08
4.9015e-08
6.03831e-08
6.9916e-08
8.18627e-08
1.21608e-07
1.58201e-07
1.66561e-07
1.75308e-07
1.83908e-07
1.91869e-07
1.98726e-07
2.0418e-07
2.08159e-07
2.10657e-07
2.11779e-07
2.11142e-07
2.07629e-07
2.01115e-07
1.89732e-07
1.72624e-07
1.54583e-07
1.41514e-07
1.29483e-07
1.18157e-07
1.08754e-07
1.05173e-07
1.04263e-07
1.04317e-07
1.02941e-07
9.94247e-08
9.4958e-08
9.07446e-08
8.77095e-08
8.51325e-08
7.53084e-08
4.26709e-08
3.01459e-08
2.27406e-08
2.54708e-08
3.57037e-08
2.90655e-08
3.14268e-08
2.82243e-08
2.39916e-08
2.93883e-08
7.33107e-08
5.04832e-08
2.104e-08
1.45302e-08
1.83365e-08
1.36277e-08
1.55589e-08
1.01982e-08
7.38886e-09
4.92331e-09
6.36281e-09
1.48617e-08
1.39277e-08
1.912e-08
2.37345e-08
5.24816e-08
2.5938e-08
3.36806e-08
1.07011e-07
1.66133e-07
7.16045e-08
7.58468e-08
8.16148e-08
1.04417e-07
1.56115e-07
1.46418e-07
1.34436e-07
1.44348e-07
1.36605e-07
1.16787e-07
1.116e-07
1.1782e-07
1.1738e-07
1.03835e-07
8.80328e-08
7.6054e-08
7.20835e-08
7.01483e-08
6.54808e-08
6.03401e-08
5.66466e-08
5.3552e-08
4.97955e-08
4.71638e-08
4.57599e-08
4.40261e-08
4.16009e-08
3.93931e-08
3.75117e-08
3.60193e-08
3.49028e-08
3.33854e-08
3.20045e-08
3.09368e-08
2.96382e-08
2.85146e-08
2.78499e-08
2.71863e-08
2.63888e-08
2.536e-08
2.4108e-08
2.2953e-08
2.23867e-08
2.23017e-08
2.19446e-08
2.15018e-08
2.08063e-08
1.98517e-08
1.93946e-08
1.92737e-08
1.9284e-08
1.91524e-08
1.88354e-08
1.84768e-08
1.80917e-08
1.79569e-08
1.81762e-08
1.8588e-08
1.88122e-08
1.86705e-08
1.84218e-08
1.84481e-08
1.8844e-08
1.92502e-08
1.94132e-08
1.95484e-08
2.00461e-08
2.09439e-08
2.19891e-08
2.28345e-08
2.33865e-08
2.39684e-08
2.50674e-08
2.66531e-08
2.81047e-08
2.96958e-08
3.15266e-08
3.2896e-08
3.40947e-08
3.55747e-08
3.78171e-08
4.07418e-08
4.37745e-08
4.6675e-08
4.88978e-08
5.07397e-08
5.35697e-08
5.71478e-08
6.15506e-08
6.79944e-08
7.46923e-08
8.00879e-08
8.48512e-08
9.02331e-08
9.87361e-08
1.08721e-07
1.17067e-07
1.2595e-07
1.4248e-07
1.60053e-07
1.68873e-07
1.78704e-07
1.95761e-07
2.21203e-07
2.60189e-07
2.93302e-07
2.96056e-07
2.79333e-07
2.65445e-07
2.68715e-07
2.88765e-07
3.19138e-07
3.28016e-07