/*--------------------------------*- C++ -*----------------------------------*\
| =========                 |                                                 |
| \\      /  F ield         | OpenFOAM: The Open Source CFD Toolbox           |
|  \\    /   O peration     | Version:  v2006                                 |
|   \\  /    A nd           | Website:  www.openfoam.com                      |
|    \\/     M anipulation  |                                                 |
\*---------------------------------------------------------------------------*/
FoamFile
{
    version     2.0;
    format      ascii;
    class       volScalarField;
    location    "8.6";
    object      omega;
}
// * * * * * * * * * * * * * * * * * * * * * * * * * * * * * * * * * * * * * //

dimensions      [0 0 -1 0 0 0 0];


internalField   nonuniform List<scalar> 
33000
(
0.802871
0.804348
0.804575
0.804081
0.803532
0.803263
0.803162
0.803171
0.803248
0.803354
0.803454
0.80354
0.803634
0.80376
0.803939
0.804192
0.804611
0.805518
0.807476
0.810641
0.814272
0.817804
0.821541
0.826238
0.831377
0.836149
0.839503
0.841709
0.842358
0.841635
0.841145
0.844773
0.858289
0.883488
0.911847
0.933489
0.948443
0.957977
0.962518
0.963845
0.964176
0.964636
0.964909
0.964217
0.962159
0.959372
0.957
0.955523
0.954605
0.953268
0.950614
0.946526
0.941631
0.936818
0.932959
0.930767
0.930746
0.933062
0.937216
0.942013
0.945955
0.947932
0.947519
0.944788
0.939982
0.933305
0.92497
0.915318
0.904833
0.895095
0.886852
0.879971
0.874325
0.869765
0.866215
0.863797
0.862503
0.862664
0.865525
0.869064
0.871276
0.874099
0.877573
0.882835
0.888851
0.89452
0.899337
0.902874
0.904901
0.905398
0.904428
0.902017
0.898074
0.893287
0.887644
0.88133
0.874956
0.869922
0.866489
0.865489
0.866301
0.866771
0.867453
0.868048
0.869109
0.870174
0.870616
0.870293
0.869462
0.868348
0.86708
0.865726
0.863992
0.861596
0.858717
0.856055
0.854299
0.85468
0.856311
0.856679
0.856918
0.857035
0.857426
0.858071
0.858652
0.859053
0.85929
0.859387
0.859469
0.859596
0.859756
0.859906
0.859977
0.859927
0.859796
0.859672
0.859607
0.859567
0.859511
0.85942
0.859316
0.859228
0.859147
0.859036
0.858853
0.858597
0.858312
0.858045
0.857815
0.857574
0.857244
0.856819
0.856375
0.85596
0.85555
0.855115
0.854641
0.854133
0.853606
0.853068
0.852522
0.851969
0.851409
0.850817
0.850185
0.84956
0.848956
0.848328
0.847637
0.846929
0.846264
0.845644
0.845019
0.844341
0.843652
0.843016
0.842444
0.841944
0.841492
0.841026
0.840538
0.84006
0.839585
0.839156
0.838796
0.838488
0.838227
0.837947
0.837661
0.837421
0.837249
0.837131
0.837024
0.83692
0.836828
0.836772
0.836786
0.836887
0.837068
0.837269
0.837467
0.837674
0.837929
0.838232
0.838549
0.838847
0.83911
0.839349
0.839598
0.839873
0.840133
0.840342
0.840543
0.840763
0.841
0.841258
0.841528
0.841778
0.842003
0.84222
0.842449
0.842693
0.842953
0.843219
0.843466
0.843688
0.84389
0.844084
0.84428
0.84448
0.844677
0.84485
0.84499
0.845106
0.845208
0.845302
0.845386
0.845453
0.845502
0.845533
0.845544
0.845528
0.845484
0.845417
0.845335
0.845243
0.84514
0.845022
0.844871
0.844692
0.844502
0.844304
0.844097
0.843876
0.843636
0.843374
0.843097
0.84281
0.842513
0.842203
0.841879
0.84154
0.841189
0.840829
0.840464
0.840092
0.839707
0.839305
0.838889
0.838465
0.838037
0.837605
0.837168
0.836724
0.836268
0.8358
0.835325
0.834843
0.834357
0.833866
0.833374
0.832878
0.832373
0.83186
0.83134
0.830815
0.830287
0.829756
0.829222
0.828682
0.828135
0.827579
0.827015
0.826441
0.825856
0.825262
0.824665
0.824069
0.823475
0.822883
0.822295
0.821712
0.821133
0.820554
0.819976
0.8194
0.818831
0.818273
0.817731
0.81721
0.816712
0.816239
0.815794
0.815373
0.814977
0.814606
0.814262
0.813945
0.813656
0.813393
0.813158
0.812951
0.81277
0.812614
0.812482
0.812373
0.812287
0.81222
0.812172
0.812139
0.812122
0.812117
0.812125
0.812144
0.812172
0.812208
0.81225
0.812295
0.812343
0.812392
0.812442
0.812491
0.81254
0.812589
0.812637
0.812684
0.812729
0.812773
0.812814
0.812854
0.812891
0.812925
0.812957
0.812984
0.813008
0.813028
0.813045
0.813058
0.813067
0.813072
0.813074
0.813071
0.813065
0.813056
0.813043
0.813027
0.813007
0.812983
0.812954
0.812921
0.812883
0.812842
0.812795
0.812744
0.812688
0.812629
0.812565
0.812497
0.812425
0.81235
0.812271
0.812187
0.812098
0.812007
0.811913
0.811816
0.811716
0.811614
0.811509
0.811402
0.811294
0.811184
0.811072
0.810959
0.810845
0.810731
0.810616
0.810502
0.810387
0.810273
0.810159
0.810044
0.809931
0.809819
0.809709
0.809601
0.809494
0.809388
0.809284
0.809184
0.809086
0.808989
0.808893
0.808798
0.808706
0.808613
0.808522
0.808429
0.808334
0.808244
0.808159
0.808065
0.807985
0.80787
0.807742
0.807663
0.80759
0.807463
0.807482
0.807508
0.807775
0.807859
0.808021
0.808079
0.80814
0.808145
0.808138
0.808115
0.808095
0.808067
0.808043
0.808046
0.807996
0.807931
0.807883
0.807693
0.80749
0.807211
0.807053
0.806969
0.807015
0.807109
0.807186
0.80725
0.8073
0.80734
0.807374
0.80736
0.807346
0.807343
0.807271
0.807337
0.807276
0.807091
0.807095
0.806968
0.806656
0.80668
0.806591
0.807347
0.80764
0.808256
0.808823
0.809563
0.810343
0.811143
0.811886
0.812539
0.813098
0.81358
0.813983
0.81431
0.814578
0.814797
0.814982
0.815145
0.815283
0.815394
0.815488
0.815576
0.815652
0.81571
0.815757
0.815804
0.815854
0.815895
0.815926
0.815946
0.815962
0.815976
0.815984
0.81599
0.816
0.816006
0.816002
0.815987
0.815964
0.81594
0.815919
0.8159
0.815883
0.815863
0.815838
0.815813
0.815786
0.815755
0.815722
0.815692
0.815666
0.815641
0.815615
0.815584
0.815549
0.81551
0.81547
0.815429
0.815389
0.815349
0.815311
0.815272
0.815233
0.815194
0.815154
0.815116
0.81508
0.815045
0.81501
0.814974
0.814938
0.814907
0.814875
0.814847
0.814818
0.81479
0.814798
0.814684
0.814798
0.814804
0.814662
0.814898
0.560752
0.814324
0.861524
0.837105
0.697565
0.64519
0.610938
0.614001
0.63484
0.670581
0.718813
0.762446
0.797376
0.827837
0.871573
0.932472
0.996609
1.04617
1.09071
1.15923
1.27674
1.44058
1.52804
1.5475
1.59552
1.68217
1.81036
1.98275
2.17529
2.18782
1.97266
1.70207
1.515
1.40427
1.31397
1.22772
1.12036
1.01175
0.907044
0.80264
0.727995
0.69618
0.679147
0.66144
0.631757
0.591269
0.557731
0.546981
0.549003
0.546959
0.534294
0.507895
0.472507
0.442406
0.423648
0.415878
0.416622
0.425217
0.441299
0.461054
0.479926
0.494063
0.503654
0.511123
0.517844
0.522421
0.526392
0.534781
0.553649
0.584614
0.630678
0.688859
0.756616
0.832237
0.906689
0.974562
1.03804
1.0936
1.1491
1.2043
1.25401
1.30613
1.34691
1.36298
1.30604
1.27873
1.25436
1.21855
1.10889
0.962825
0.832768
0.718856
0.638644
0.60005
0.608268
0.659789
0.740867
0.847609
0.958196
1.07648
1.16019
1.18247
1.1287
0.99309
0.855235
0.694239
0.550736
0.43389
0.353933
0.292657
0.251527
0.233565
0.235699
0.254572
0.281371
0.30792
0.326215
0.345525
0.363117
0.364805
0.32663
0.279448
0.252045
0.219939
0.195351
0.180706
0.16899
0.1608
0.15632
0.153065
0.151442
0.151105
0.150791
0.150775
0.151236
0.152085
0.153132
0.154181
0.155251
0.156209
0.157247
0.158337
0.15931
0.160128
0.160833
0.161572
0.162534
0.163708
0.164971
0.166141
0.167114
0.168018
0.169112
0.170448
0.171854
0.17319
0.174444
0.175629
0.176764
0.177904
0.179092
0.180298
0.181446
0.182467
0.183436
0.184476
0.185475
0.18619
0.186664
0.187227
0.187943
0.188509
0.188546
0.187999
0.187327
0.186969
0.186871
0.18672
0.186096
0.184712
0.182689
0.180384
0.178166
0.176344
0.174882
0.173407
0.171438
0.168819
0.166032
0.163653
0.16177
0.160016
0.157889
0.15523
0.152249
0.149375
0.146967
0.145027
0.143248
0.141081
0.138328
0.135359
0.132644
0.130285
0.128085
0.125813
0.123308
0.120743
0.118476
0.116537
0.114377
0.11174
0.108992
0.106491
0.104432
0.102742
0.101074
0.0990322
0.0966308
0.0941902
0.0920059
0.0902359
0.0887924
0.0874121
0.0858321
0.0840299
0.0821904
0.0805251
0.0792081
0.0781897
0.0772462
0.0761562
0.0748947
0.073642
0.0725801
0.0717582
0.071121
0.0706227
0.0702099
0.069826
0.0694444
0.0689955
0.0685339
0.0681946
0.0680632
0.0682081
0.0685477
0.0687337
0.068655
0.0685534
0.0686348
0.0689554
0.0694102
0.0698079
0.0700597
0.0702196
0.0704167
0.0707437
0.0711395
0.0715036
0.071783
0.0719559
0.0721255
0.072453
0.0729931
0.0736358
0.0740244
0.0740524
0.0740123
0.0741151
0.0743748
0.0747857
0.0753102
0.0758073
0.0760912
0.0761669
0.0761979
0.0762946
0.0764425
0.0766356
0.076997
0.0775307
0.0778974
0.0779034
0.0778244
0.0778969
0.0780699
0.0782866
0.0785909
0.0789031
0.0790517
0.0790343
0.078997
0.0790191
0.079076
0.079224
0.07939
0.0794351
0.0793588
0.0792124
0.0790368
0.0789641
0.0789665
0.0788399
0.0785673
0.0782004
0.0778851
0.0775907
0.0772218
0.0767502
0.0762385
0.0758171
0.0755027
0.0751356
0.0745786
0.0739573
0.0734364
0.0729839
0.0725619
0.0721581
0.0717886
0.0714666
0.0711987
0.0709932
0.0707953
0.0706173
0.0705544
0.0705807
0.0705945
0.0705634
0.0705519
0.0706424
0.0708313
0.0710501
0.0711357
0.0710307
0.0708566
0.0707692
0.0707084
0.0706183
0.0704683
0.0702562
0.0700105
0.0697725
0.0695385
0.069228
0.0688501
0.0684431
0.0680577
0.0677102
0.0673684
0.0669832
0.0665518
0.0661269
0.0657348
0.065352
0.0649665
0.0645849
0.0641894
0.0637824
0.0633917
0.0630186
0.0626594
0.062325
0.0620185
0.0617023
0.0613468
0.060952
0.0605711
0.0602462
0.059946
0.059592
0.0591747
0.0587592
0.0583878
0.0580504
0.0577246
0.057406
0.0571062
0.0567932
0.0564052
0.0559605
0.0555663
0.0552262
0.0549021
0.054576
0.0542332
0.0538579
0.0534718
0.0531263
0.052805
0.0524512
0.0520521
0.0516633
0.0513051
0.050958
0.0506295
0.0503382
0.0500268
0.0496553
0.049253
0.0488588
0.048516
0.0482021
0.0479193
0.0475898
0.0472056
0.0467354
0.0463838
0.0460187
0.0456994
0.0453406
0.0449269
0.0445477
0.0441464
0.0438817
0.0436612
0.0434201
0.0430851
0.0427927
0.0421049
0.0422454
0.0431021
0.0441801
0.0449247
0.0465324
0.0473551
0.0494778
0.0526037
0.0570377
0.0529724
0.0454773
0.0447282
0.0424182
0.0421674
0.0411254
0.0404527
0.0398389
0.0398082
0.0400537
0.0430383
0.0469934
0.0500977
0.0515761
0.050834
0.0483614
0.0443965
0.038337
0.0351017
0.0344684
0.0338128
0.0328914
0.0322045
0.032568
0.0333491
0.0344953
0.035811
0.0368309
0.0371378
0.0383777
0.0401571
0.0497928
0.0669144
0.0854279
0.106781
0.124659
0.129829
0.112861
0.146461
0.151146
0.100875
0.0880788
0.0794061
0.0734525
0.0673158
0.0610758
0.0551928
0.0502035
0.0464301
0.0440745
0.0427337
0.0420135
0.0417952
0.0418439
0.0421789
0.0427514
0.0433591
0.0438603
0.0443941
0.0450168
0.0455987
0.0460484
0.0464619
0.0469756
0.0475851
0.0481445
0.0486013
0.0489524
0.0492826
0.0496159
0.0499334
0.0502828
0.0506697
0.0510157
0.0512316
0.0512939
0.0512551
0.0512109
0.051237
0.0513406
0.0515156
0.0517148
0.0519068
0.0520941
0.0522616
0.052397
0.0525349
0.0527355
0.0530232
0.0533653
0.0536991
0.053961
0.0541235
0.0542001
0.0542291
0.0542493
0.0542866
0.0543529
0.05444
0.0545302
0.054612
0.054683
0.0547578
0.0548373
0.0549602
0.0550541
0.0552038
0.0552345
0.055343
0.0553882
0.0554501
0.0555487
0.0555851
0.0556834
0.0559259
0.0554645
0.0579091
0.0580982
0.0685571
0.0635344
0.371851
0.56586
0.504274
0.376374
0.268736
0.207531
0.175256
0.168805
0.178572
0.221522
0.28136
0.338664
0.392192
0.450835
0.537547
0.699929
0.872471
0.999448
1.08658
1.1549
1.21289
1.26018
1.33051
1.50448
1.74576
1.99734
2.18584
2.25396
2.3042
2.24903
2.02739
1.78072
1.59477
1.42538
1.25353
1.08719
0.940592
0.811037
0.688521
0.58298
0.511205
0.470524
0.44832
0.431423
0.41102
0.386845
0.365937
0.355341
0.351766
0.34735
0.338275
0.322665
0.302124
0.281555
0.265425
0.25703
0.256559
0.262366
0.272592
0.285325
0.299143
0.30924
0.314293
0.317475
0.321883
0.324392
0.323919
0.321424
0.318713
0.318597
0.323685
0.339204
0.366181
0.402528
0.442292
0.48052
0.515411
0.551426
0.593534
0.644725
0.70991
0.791373
0.890645
1.00151
1.13912
1.27007
1.34807
1.33174
1.26768
1.19923
1.09707
0.95635
0.799597
0.677992
0.590621
0.546444
0.544661
0.580843
0.635056
0.691333
0.741992
0.762048
0.756221
0.710455
0.64221
0.57214
0.500001
0.43202
0.370944
0.313049
0.254381
0.196994
0.150504
0.120692
0.109959
0.111455
0.116216
0.119766
0.124292
0.127065
0.135302
0.14126
0.137291
0.113844
0.0860731
0.0717199
0.057137
0.0471694
0.0408454
0.0363981
0.0333376
0.0319163
0.0312293
0.0310896
0.0313563
0.0317737
0.032125
0.0323995
0.0327129
0.0330332
0.0334522
0.0339374
0.0344068
0.0348353
0.0352281
0.035614
0.0360311
0.0364939
0.037047
0.0376822
0.038295
0.0388182
0.0393063
0.039858
0.0405223
0.0412572
0.0419956
0.0426636
0.0432186
0.0437167
0.044242
0.0448232
0.0454385
0.0460307
0.0465442
0.0469998
0.0474286
0.0477796
0.048041
0.0483312
0.048679
0.0489424
0.0489849
0.0487457
0.0484352
0.0482715
0.0481674
0.048019
0.0476755
0.0470107
0.0460996
0.0450372
0.043932
0.042946
0.0421235
0.0413576
0.040453
0.0392742
0.0379463
0.0367322
0.0357307
0.0348403
0.0339029
0.0328071
0.0315585
0.0303183
0.0292434
0.0283613
0.0275773
0.0266882
0.025643
0.0245539
0.0235558
0.0226744
0.0218423
0.0210027
0.0201401
0.0192944
0.0185339
0.0178569
0.0171433
0.0163438
0.015542
0.0148146
0.0141927
0.0136604
0.013157
0.0126075
0.0120061
0.0114064
0.0108606
0.0103978
0.0100088
0.00965358
0.00928621
0.00889527
0.0085031
0.00814255
0.00784227
0.0075968
0.00737209
0.00713451
0.00688277
0.00664198
0.00643676
0.00627529
0.00614829
0.0060422
0.00594517
0.00585005
0.0057598
0.00567644
0.00560744
0.00556107
0.00554311
0.00555729
0.00559033
0.00560967
0.0056089
0.00561463
0.00564652
0.0057035
0.00577078
0.00583042
0.00588004
0.0059301
0.00599387
0.00607511
0.00615374
0.00621465
0.00626429
0.00631135
0.00636692
0.00644567
0.00655098
0.00666416
0.00673954
0.00676769
0.00678759
0.00682906
0.00689561
0.00698109
0.00707329
0.00715806
0.00722332
0.00727014
0.00730841
0.0073464
0.00738517
0.00743184
0.00750737
0.00760658
0.00768132
0.00770677
0.00771922
0.00775536
0.00780692
0.00785809
0.00791476
0.00797226
0.00801107
0.00803439
0.0080583
0.00808416
0.0081032
0.0081278
0.00815747
0.00818443
0.0082029
0.00819993
0.00817475
0.00815685
0.00815826
0.00815535
0.00812829
0.00806719
0.00800541
0.00795837
0.00791231
0.00784296
0.00775511
0.00768014
0.0076237
0.00756797
0.0074857
0.0073801
0.00728621
0.00720822
0.00713983
0.00707771
0.00701733
0.00695836
0.00690557
0.00686407
0.00682882
0.00680074
0.00678793
0.00678359
0.0067755
0.00676358
0.00675825
0.00676832
0.00679026
0.00681202
0.00681574
0.00679842
0.00676696
0.00674355
0.00672187
0.00669555
0.00666411
0.00662564
0.0065808
0.00653486
0.00648513
0.00641958
0.00634722
0.00627537
0.00620818
0.00614566
0.00608278
0.00601435
0.00594064
0.00586823
0.00580115
0.00573785
0.00567703
0.00561711
0.00555293
0.00548713
0.00542641
0.00537004
0.00531591
0.00526428
0.0052159
0.00516728
0.00511637
0.00506335
0.00501229
0.00496699
0.00492441
0.00487547
0.00481875
0.0047613
0.00471087
0.00466699
0.00462488
0.00458165
0.00453862
0.00449504
0.00444775
0.00439718
0.00435027
0.00430887
0.0042695
0.00422869
0.0041867
0.0041431
0.00409946
0.00405895
0.00402003
0.00397934
0.00393753
0.00389725
0.00385911
0.003821
0.00378704
0.00375491
0.00372068
0.00368168
0.00363989
0.00359652
0.00355894
0.0035227
0.00349105
0.00345573
0.00341612
0.00336694
0.00331488
0.00328513
0.00324629
0.00319322
0.0031537
0.00312104
0.0030894
0.00306699
0.00303525
0.00301368
0.00302306
0.00313879
0.00321657
0.00332519
0.00350409
0.00363516
0.00370604
0.00372503
0.00379551
0.00369929
0.00354448
0.00373521
0.00343441
0.00311235
0.00300593
0.00286697
0.00277233
0.00270783
0.0027922
0.00305488
0.00332331
0.00359209
0.0038347
0.00404531
0.00400028
0.0035952
0.00287745
0.00246077
0.00231227
0.00217187
0.00213827
0.00210341
0.00209579
0.00213721
0.00217294
0.00226308
0.00229655
0.00229193
0.00246098
0.00273467
0.00340085
0.00473452
0.00675631
0.00954751
0.0137019
0.0151932
0.0134149
0.0161859
0.0161245
0.0100903
0.0130324
0.00989593
0.00616308
0.00561112
0.00517427
0.00483327
0.00448347
0.00413603
0.00378835
0.00346426
0.00320008
0.00302021
0.00290328
0.00282881
0.00279297
0.00278234
0.00279938
0.0028375
0.00288168
0.0029217
0.00296619
0.00301985
0.00307275
0.003118
0.00316293
0.00321689
0.00327967
0.0033405
0.00339434
0.00343985
0.00348152
0.00352273
0.00356487
0.00361118
0.0036603
0.00370388
0.0037327
0.0037456
0.00374898
0.00375155
0.00375999
0.00377522
0.00379655
0.0038196
0.00384254
0.00386728
0.00389221
0.00391459
0.00393713
0.00396534
0.00400094
0.00404045
0.00407802
0.00410853
0.00412981
0.00414281
0.00415056
0.00415662
0.00416395
0.00417411
0.0041868
0.00420029
0.00421285
0.00422406
0.00423606
0.00424958
0.00426735
0.00428232
0.00429938
0.00430679
0.00431935
0.00432818
0.00433679
0.00434626
0.00435189
0.00435913
0.00438263
0.00436432
0.00450735
0.0046148
0.00542426
0.00523568
0.250604
0.354168
0.284497
0.2003
0.141382
0.105472
0.0905286
0.0987604
0.122869
0.15979
0.211925
0.275551
0.355517
0.463265
0.579781
0.688797
0.830645
0.932293
0.99514
1.03198
1.05901
1.09857
1.16602
1.2649
1.38337
1.52333
1.65262
1.6779
1.68747
1.6522
1.54161
1.40488
1.26348
1.12456
0.983937
0.836807
0.705252
0.582832
0.46849
0.377792
0.322199
0.292571
0.276309
0.263859
0.249784
0.233865
0.220579
0.213738
0.211537
0.209407
0.20491
0.196381
0.184555
0.172128
0.161606
0.154426
0.150781
0.150597
0.153221
0.157356
0.161027
0.163589
0.167158
0.173325
0.180996
0.186307
0.187831
0.185924
0.181882
0.178604
0.177381
0.181201
0.191582
0.208033
0.229279
0.254633
0.28381
0.316714
0.355408
0.402118
0.458947
0.525727
0.601885
0.687979
0.782407
0.88399
0.983657
1.08143
1.17201
1.21726
1.16974
1.05083
0.936528
0.81441
0.688979
0.567502
0.490502
0.446222
0.434
0.446342
0.466646
0.477648
0.473096
0.456082
0.425925
0.393997
0.359431
0.328086
0.301877
0.275103
0.245446
0.216122
0.183383
0.151032
0.119058
0.0905942
0.069247
0.0572798
0.0518907
0.048801
0.0461453
0.0456928
0.0462301
0.0499816
0.0531641
0.0529124
0.0428591
0.0311073
0.0245458
0.0188336
0.0150326
0.0124872
0.0108545
0.00980628
0.00926305
0.00893785
0.00885962
0.00885196
0.00888001
0.0088923
0.00890901
0.00898618
0.00910644
0.00923613
0.00935693
0.00946511
0.00957731
0.00972037
0.00990344
0.0101007
0.01028
0.0104383
0.0106025
0.0107945
0.0110041
0.0112099
0.0114125
0.0116233
0.0118349
0.0120297
0.0122004
0.0123629
0.0125329
0.0126936
0.0128398
0.0129878
0.0131276
0.0132268
0.0132797
0.013333
0.0134138
0.0134732
0.0134547
0.013365
0.0132468
0.0131382
0.0130457
0.0129472
0.0128098
0.0126017
0.0123288
0.012012
0.0116607
0.0113287
0.0110444
0.0107896
0.0105272
0.0102066
0.00983288
0.00946037
0.00913355
0.0088468
0.00858438
0.00831446
0.00800465
0.00768021
0.00738151
0.00712482
0.00690455
0.00667863
0.00642072
0.00614909
0.005895
0.00566806
0.0054523
0.00523618
0.00502305
0.00481752
0.00462749
0.00445412
0.00428126
0.00410209
0.00392755
0.00376766
0.00362287
0.00349144
0.00336986
0.00325003
0.00312961
0.00301136
0.0028991
0.00279648
0.00270596
0.00262569
0.00254992
0.00247519
0.00240094
0.00232927
0.00226404
0.00220607
0.00215359
0.00210395
0.00205617
0.00201142
0.00197173
0.00193707
0.00190544
0.00187578
0.00184858
0.00182466
0.00180431
0.0017867
0.00177116
0.00175755
0.00174633
0.00173805
0.00173273
0.00172951
0.00172776
0.00172771
0.00172922
0.00173111
0.00173306
0.00173614
0.0017411
0.0017483
0.00175741
0.00176685
0.00177487
0.00178153
0.0017885
0.00179684
0.00180659
0.00181769
0.00183084
0.00184533
0.00185714
0.00186531
0.00187307
0.00188328
0.00189586
0.00190887
0.00192109
0.00193312
0.00194548
0.00195829
0.00197086
0.00198211
0.00199182
0.00200148
0.00201397
0.00202904
0.00204287
0.00205382
0.00206396
0.00207542
0.00208686
0.00209681
0.00210685
0.00211787
0.00212861
0.00213901
0.00214857
0.00215635
0.00216179
0.00216725
0.00217351
0.00218029
0.00218711
0.00219055
0.00218926
0.00218758
0.00218865
0.00218947
0.00218597
0.00217686
0.00216691
0.0021593
0.00215192
0.00214036
0.00212496
0.00211031
0.00209762
0.00208518
0.00206915
0.00204839
0.00202798
0.0020098
0.00199304
0.00197658
0.00195914
0.00194101
0.00192324
0.00190699
0.00189175
0.00187757
0.00186509
0.00185321
0.00184076
0.00182788
0.00181604
0.00180662
0.00179921
0.0017917
0.00178196
0.00177093
0.00175899
0.00174801
0.00173743
0.00172662
0.0017161
0.00170561
0.00169441
0.00168265
0.00167001
0.00165583
0.00164209
0.00162925
0.00161723
0.00160598
0.00159506
0.00158385
0.001572
0.00156026
0.00154956
0.00154002
0.00153132
0.0015228
0.00151367
0.00150471
0.0014968
0.0014896
0.00148272
0.00147599
0.00146962
0.00146362
0.00145785
0.00145217
0.00144642
0.00144098
0.00143623
0.00143143
0.0014259
0.00141988
0.00141448
0.00140992
0.00140561
0.00140108
0.00139643
0.00139193
0.00138745
0.00138287
0.00137841
0.00137433
0.00137041
0.00136608
0.00136153
0.00135705
0.00135277
0.00134857
0.00134414
0.00133955
0.00133527
0.00133129
0.00132743
0.00132341
0.00131957
0.00131615
0.00131296
0.0013095
0.0013055
0.00130094
0.00129756
0.00129418
0.00129014
0.00128576
0.00128134
0.00127707
0.00127289
0.00127337
0.00127399
0.00127222
0.00127428
0.00127043
0.00128215
0.00129933
0.00136736
0.00141656
0.0014984
0.00160384
0.00175951
0.001717
0.00157253
0.001508
0.00143758
0.00138173
0.00133725
0.00130341
0.00127746
0.00128853
0.00129169
0.00129898
0.00134188
0.00146361
0.00157415
0.00172789
0.00187399
0.00202714
0.0022514
0.00239686
0.00225579
0.0019526
0.00168739
0.00156263
0.00141484
0.00133796
0.0012722
0.00125269
0.00127757
0.00130714
0.00137251
0.00136896
0.00152969
0.00170212
0.00190596
0.00226237
0.00310692
0.00447762
0.00637153
0.00925035
0.010086
0.00893845
0.0083445
0.00768004
0.00596127
0.00548108
0.00422534
0.00291545
0.00246231
0.00214346
0.00196939
0.00187772
0.00181553
0.00176126
0.00171976
0.00168639
0.00165273
0.00161585
0.00157824
0.00154434
0.00151485
0.00148896
0.00146697
0.00144864
0.00143491
0.00142545
0.00141805
0.00141118
0.00140579
0.00140282
0.00140118
0.00139981
0.00139919
0.00140023
0.00140277
0.00140532
0.00140729
0.00140887
0.00141068
0.00141317
0.00141644
0.00142039
0.00142472
0.00142857
0.00143089
0.00143187
0.00143227
0.00143288
0.00143422
0.00143618
0.00143857
0.00144062
0.00144242
0.00144468
0.00144714
0.00144926
0.00145131
0.00145389
0.00145704
0.00146034
0.00146335
0.00146577
0.00146757
0.0014689
0.00146994
0.00147091
0.00147192
0.00147301
0.00147428
0.00147563
0.00147689
0.00147792
0.00147914
0.00148031
0.00148251
0.00148343
0.00148576
0.00148507
0.00148734
0.00148796
0.00148828
0.00148952
0.00148968
0.00149189
0.00150444
0.00150349
0.00157657
0.00163783
0.00202311
0.00196906
0.166749
0.223344
0.174814
0.123149
0.0894444
0.0706265
0.0671706
0.0779962
0.0999754
0.129219
0.166222
0.215786
0.28174
0.372223
0.47809
0.574853
0.659344
0.733434
0.788944
0.807954
0.820041
0.83962
0.867671
0.90983
0.972332
1.05007
1.11017
1.11186
1.09558
1.06739
1.00936
0.934007
0.852672
0.76638
0.667787
0.566367
0.468096
0.373225
0.289283
0.229582
0.196358
0.17841
0.167353
0.159053
0.150926
0.142622
0.135811
0.131656
0.129611
0.128095
0.125942
0.122038
0.116332
0.109707
0.103161
0.0974698
0.0932998
0.0910625
0.0905608
0.0910134
0.0917462
0.0932455
0.0961524
0.100536
0.106016
0.110024
0.111703
0.111193
0.109001
0.106403
0.105227
0.105671
0.108967
0.115368
0.124842
0.137424
0.153569
0.173804
0.199021
0.230873
0.271039
0.32002
0.377202
0.440084
0.504765
0.56803
0.629151
0.688476
0.748805
0.807955
0.853723
0.892085
0.880688
0.816164
0.714311
0.612304
0.513276
0.425615
0.357807
0.31886
0.29913
0.292107
0.289049
0.282948
0.271732
0.257489
0.242088
0.225989
0.21174
0.2007
0.19111
0.180988
0.168963
0.153542
0.136999
0.117834
0.0986158
0.0794376
0.0615769
0.046215
0.0359148
0.0296257
0.0258863
0.0235419
0.0232746
0.0240216
0.0267304
0.0295189
0.0304369
0.0254707
0.0189825
0.015247
0.0119219
0.00956129
0.00777275
0.00691987
0.00608775
0.00541042
0.00493082
0.00464084
0.00444283
0.00433036
0.00427884
0.00425725
0.0042503
0.00425359
0.00426984
0.00431025
0.00437549
0.00444547
0.00450393
0.00455515
0.00461453
0.00469008
0.00477392
0.00485382
0.00492702
0.00500176
0.0050835
0.00516454
0.0052344
0.00529878
0.00536421
0.0054215
0.00547185
0.00552686
0.00558059
0.00562054
0.00564582
0.00566593
0.00568995
0.00571082
0.00570969
0.00569035
0.00566292
0.00562543
0.00558557
0.00554579
0.00550083
0.00544522
0.0053739
0.00528279
0.00517237
0.00506484
0.00496665
0.00488045
0.00480341
0.00470862
0.00459515
0.00447574
0.00436562
0.00426786
0.00417904
0.00409546
0.00400355
0.00390144
0.00379799
0.00370438
0.00362458
0.00355027
0.00346937
0.00338121
0.00329644
0.00322053
0.00314901
0.0030761
0.0030012
0.00292712
0.0028579
0.00279478
0.00273398
0.00267203
0.00261059
0.00255093
0.00249137
0.00243398
0.00238135
0.00233236
0.00228491
0.002237
0.00218851
0.00214077
0.00209599
0.00205534
0.00201749
0.00198101
0.00194546
0.00191004
0.00187463
0.00184035
0.00180859
0.00177984
0.0017531
0.00172744
0.00170331
0.00168075
0.00165873
0.00163726
0.00161814
0.00160203
0.00158789
0.00157458
0.00156131
0.00154824
0.00153654
0.00152727
0.00152052
0.00151565
0.00151184
0.00150821
0.00150422
0.00150031
0.00149735
0.00149607
0.00149629
0.00149751
0.00149906
0.00150006
0.00150123
0.00150356
0.00150666
0.00151025
0.00151393
0.00151695
0.00151987
0.00152388
0.00152894
0.00153439
0.00154007
0.00154572
0.00155061
0.00155495
0.00155994
0.00156606
0.00157259
0.00157906
0.00158572
0.00159253
0.00159883
0.00160446
0.00161018
0.00161657
0.00162364
0.00163129
0.00163897
0.00164566
0.00165095
0.00165649
0.0016629
0.00166938
0.00167616
0.00168281
0.00168773
0.00169201
0.00169678
0.00170141
0.00170545
0.00170902
0.00171214
0.00171439
0.0017161
0.00171753
0.00171833
0.00171781
0.00171598
0.00171386
0.00171109
0.00170751
0.00170318
0.00169771
0.00169138
0.00168449
0.00167699
0.00166846
0.00165897
0.00164889
0.0016383
0.00162739
0.00161624
0.0016043
0.00159162
0.001579
0.00156633
0.0015535
0.00154044
0.00152733
0.00151434
0.0015015
0.00148887
0.00147615
0.0014636
0.00145186
0.00144091
0.00142997
0.00141858
0.00140776
0.0013977
0.00138816
0.00137915
0.00137041
0.00136198
0.00135375
0.00134577
0.00133792
0.0013303
0.00132321
0.00131638
0.0013098
0.00130361
0.00129781
0.00129253
0.0012877
0.00128285
0.00127788
0.00127323
0.00126914
0.00126552
0.00126217
0.00125896
0.0012559
0.00125313
0.00125068
0.00124842
0.00124621
0.0012441
0.00124216
0.00124036
0.00123877
0.00123728
0.00123569
0.00123418
0.00123304
0.00123203
0.00123075
0.00122929
0.00122787
0.00122669
0.00122566
0.00122458
0.00122341
0.00122228
0.00122113
0.00121998
0.00121881
0.00121784
0.00121683
0.00121562
0.00121428
0.00121297
0.0012118
0.00121038
0.0012088
0.00120708
0.00120568
0.00120436
0.00120302
0.00120136
0.00119981
0.00119836
0.00119712
0.00119629
0.00119482
0.00119304
0.00119182
0.00119259
0.0011917
0.00119633
0.00119981
0.00121201
0.00120675
0.00120269
0.0012193
0.00123945
0.00130804
0.00136178
0.0014457
0.00155185
0.00171276
0.00165771
0.00149938
0.00142844
0.00135729
0.00130293
0.001252
0.00122429
0.00120866
0.00121906
0.00122633
0.00124363
0.00129608
0.00143696
0.00159726
0.00181449
0.00198079
0.00224874
0.00241338
0.00235334
0.00212372
0.00179785
0.00156681
0.00147905
0.00136436
0.00130455
0.00125487
0.00124046
0.00125966
0.00129163
0.00135503
0.00140637
0.00162351
0.00192096
0.0023887
0.00325843
0.00474566
0.00573776
0.00796065
0.0103919
0.0109175
0.00936536
0.00845833
0.00750138
0.00589673
0.00522227
0.00399238
0.00289002
0.00236996
0.00202076
0.00182721
0.00170585
0.00164143
0.00160625
0.00159096
0.00158237
0.00157286
0.0015616
0.00154911
0.00153419
0.00151613
0.001496
0.00147555
0.00145561
0.00143705
0.00142053
0.00140641
0.00139455
0.00138422
0.00137442
0.00136504
0.00135716
0.00135129
0.00134662
0.00134247
0.00133879
0.00133579
0.00133345
0.00133158
0.00133023
0.0013295
0.00132882
0.00132806
0.00132766
0.0013278
0.00132832
0.00132887
0.00132907
0.00132892
0.00132857
0.00132834
0.00132842
0.00132878
0.0013293
0.00132973
0.00133003
0.00133041
0.00133083
0.00133116
0.0013315
0.00133193
0.00133246
0.00133303
0.00133353
0.00133385
0.00133407
0.0013343
0.00133458
0.00133488
0.00133513
0.00133528
0.00133539
0.00133552
0.00133569
0.00133576
0.00133595
0.00133601
0.00133671
0.00133611
0.00133698
0.00133579
0.00133742
0.0013372
0.00133649
0.00133701
0.00133679
0.00133845
0.00134989
0.00134983
0.00141717
0.0014737
0.0018244
0.0017794
0.108951
0.144812
0.115361
0.0829108
0.0629262
0.0532542
0.053891
0.0634866
0.0786131
0.0957279
0.118713
0.149726
0.194954
0.259479
0.332924
0.404781
0.46836
0.510066
0.542006
0.558188
0.563573
0.568411
0.575967
0.593168
0.62165
0.653199
0.668672
0.658189
0.634385
0.605962
0.573783
0.539969
0.501929
0.455618
0.40078
0.339496
0.276383
0.217563
0.170854
0.140706
0.123014
0.112339
0.105317
0.100318
0.0961816
0.0924111
0.0890805
0.0863958
0.0844772
0.0831692
0.08214
0.0806997
0.0783914
0.0750609
0.0709698
0.0668593
0.0633471
0.0608492
0.0594588
0.0588874
0.0589732
0.0597364
0.0613172
0.0638774
0.0671904
0.0701619
0.0716044
0.0718086
0.0711047
0.0699594
0.0691932
0.0691238
0.0700988
0.0724923
0.0766239
0.0828247
0.0912159
0.10186
0.114933
0.131023
0.151526
0.178335
0.211905
0.251357
0.294886
0.339888
0.383424
0.4239
0.459628
0.488923
0.512256
0.529918
0.541713
0.54237
0.542207
0.516503
0.470252
0.408416
0.345341
0.292243
0.250338
0.219032
0.197339
0.182587
0.171749
0.163592
0.156364
0.149724
0.144046
0.139127
0.135326
0.13222
0.130089
0.127215
0.122875
0.116313
0.106875
0.0961569
0.0833937
0.0706231
0.057778
0.0457914
0.0352974
0.027654
0.0227672
0.0199805
0.0184686
0.018801
0.0202759
0.0236824
0.0272433
0.0290839
0.0254293
0.0201092
0.0161852
0.0131238
0.0107978
0.00884642
0.0071823
0.00600666
0.00510763
0.00447796
0.00408595
0.0038177
0.00363929
0.00353142
0.0034656
0.00343759
0.0034431
0.00345783
0.00346938
0.00348597
0.00351551
0.00355704
0.00360264
0.00364263
0.00367404
0.00370552
0.00374624
0.00379288
0.00383483
0.00386981
0.00389856
0.00391917
0.00393881
0.00396602
0.00399511
0.00401804
0.00403312
0.0040389
0.00404053
0.00404868
0.00405802
0.00406068
0.00405478
0.00403675
0.00401419
0.00399457
0.00398308
0.00397493
0.0039556
0.00392083
0.00387913
0.00383541
0.00378772
0.00375025
0.00372651
0.00369437
0.00365042
0.00359745
0.00354129
0.00349279
0.0034495
0.0034096
0.00337191
0.00332672
0.0032694
0.00321349
0.00316374
0.00311802
0.00307658
0.00303241
0.00298403
0.00293528
0.00288734
0.00283674
0.0027834
0.00273242