/*--------------------------------*- C++ -*----------------------------------*\
| =========                 |                                                 |
| \\      /  F ield         | OpenFOAM: The Open Source CFD Toolbox           |
|  \\    /   O peration     | Version:  v2006                                 |
|   \\  /    A nd           | Website:  www.openfoam.com                      |
|    \\/     M anipulation  |                                                 |
\*---------------------------------------------------------------------------*/
FoamFile
{
    version     2.0;
    format      ascii;
    class       surfaceScalarField;
    location    "5.3";
    object      alphaPhi0.water;
}
// * * * * * * * * * * * * * * * * * * * * * * * * * * * * * * * * * * * * * //

dimensions      [0 3 -1 0 0 0 0];
oriented        oriented;


internalField   nonuniform List<scalar> 
65390
(
-5.46268e-05
-1.32272e-06
-5.32798e-05
-1.34885e-06
-5.20496e-05
-1.23193e-06
-5.09148e-05
-1.13622e-06
-4.98073e-05
-1.10858e-06
-4.89307e-05
-8.77598e-07
-4.85328e-05
-3.98578e-07
-4.85941e-05
6.0706e-08
-4.8946e-05
3.51417e-07
-4.92693e-05
3.22821e-07
-4.89348e-05
-3.34928e-07
-4.65633e-05
-2.37179e-06
-4.08115e-05
-5.75208e-06
-3.29781e-05
-7.83358e-06
-2.43345e-05
-8.64377e-06
-1.49988e-05
-9.33583e-06
-4.9915e-06
-1.00074e-05
5.09414e-06
-1.00858e-05
1.43333e-05
-9.23923e-06
2.20641e-05
-7.73089e-06
2.77443e-05
-5.68027e-06
3.0583e-05
-2.83876e-06
2.98512e-05
7.3167e-07
2.48807e-05
4.97035e-06
1.78099e-05
7.06962e-06
1.12961e-05
6.51438e-06
6.88212e-06
4.41408e-06
4.4219e-06
2.46004e-06
3.04147e-06
1.37939e-06
2.33327e-06
7.08231e-07
2.22536e-06
1.07952e-07
2.74787e-06
-5.21861e-07
3.75536e-06
-1.00719e-06
5.01362e-06
-1.25826e-06
6.22307e-06
-1.20945e-06
7.15401e-06
-9.3316e-07
7.96509e-06
-8.09506e-07
8.88272e-06
-9.17097e-07
9.96021e-06
-1.07737e-06
1.09996e-05
-1.04207e-06
1.17826e-05
-7.92972e-07
1.2506e-05
-7.13011e-07
1.3502e-05
-9.91265e-07
1.49604e-05
-1.45759e-06
1.66363e-05
-1.6754e-06
1.81619e-05
-1.52826e-06
1.92478e-05
-1.09377e-06
1.99841e-05
-7.36372e-07
2.07658e-05
-7.74017e-07
2.18887e-05
-1.11761e-06
2.33527e-05
-1.46392e-06
2.4859e-05
-1.50684e-06
2.61034e-05
-1.24614e-06
2.70807e-05
-9.8346e-07
2.80513e-05
-9.66428e-07
2.91513e-05
-1.097e-06
3.03332e-05
-1.18139e-06
3.15471e-05
-1.21449e-06
3.27206e-05
-1.17402e-06
3.39202e-05
-1.19662e-06
3.53572e-05
-1.43645e-06
3.68866e-05
-1.52938e-06
3.81188e-05
-1.23215e-06
3.88595e-05
-7.51741e-07
3.92971e-05
-4.40266e-07
3.97469e-05
-4.39971e-07
4.03165e-05
-5.68366e-07
4.08089e-05
-4.92264e-07
4.10242e-05
-2.15425e-07
4.11127e-05
-8.80634e-08
4.12405e-05
-1.26285e-07
4.1485e-05
-2.42864e-07
4.17088e-05
-2.23851e-07
4.18301e-05
-1.21337e-07
4.15345e-05
2.95633e-07
4.04397e-05
1.09008e-06
3.80281e-05
2.39704e-06
3.34475e-05
4.58068e-06
2.98292e-05
3.61841e-06
2.88494e-05
9.79825e-07
2.82712e-05
5.83433e-07
2.84621e-05
-1.8422e-07
2.81153e-05
3.48401e-07
2.77398e-05
3.75456e-07
2.71231e-05
6.16733e-07
2.54932e-05
1.62994e-06
2.3707e-05
1.78544e-06
2.22521e-05
1.45023e-06
2.1374e-05
8.80226e-07
2.09191e-05
4.57056e-07
2.08158e-05
1.03895e-07
2.08977e-05
-8.1932e-08
2.07548e-05
1.42937e-07
2.05194e-05
2.30653e-07
2.00095e-05
5.07909e-07
1.93459e-05
6.63646e-07
1.80318e-05
1.31932e-06
1.63699e-05
1.66215e-06
1.31677e-05
3.20187e-06
8.85723e-06
4.30919e-06
4.84258e-06
4.01491e-06
2.3947e-06
2.44818e-06
1.94442e-06
4.50266e-07
1.66891e-06
2.75478e-07
2.30201e-06
-6.33295e-07
3.28265e-06
-9.81095e-07
3.68898e-06
-4.06294e-07
3.5109e-06
1.78113e-07
3.28201e-06
2.28932e-07
3.51039e-06
-2.28346e-07
3.70281e-06
-1.91785e-07
4.08754e-06
-3.84775e-07
4.5508e-06
-4.63224e-07
4.91918e-06
-3.68847e-07
5.04538e-06
-1.26395e-07
5.06888e-06
-2.29102e-08
4.52843e-06
5.41023e-07
3.72809e-06
8.00401e-07
3.31056e-06
4.17586e-07
3.41294e-06
-1.02846e-07
3.85398e-06
-4.40987e-07
4.16586e-06
-3.11825e-07
4.71182e-06
-5.4528e-07
5.32924e-06
-6.17339e-07
5.76019e-06
-4.30894e-07
6.16975e-06
-4.09867e-07
6.57316e-06
-4.03666e-07
6.94571e-06
-3.72026e-07
7.36593e-06
-4.20012e-07
7.81715e-06
-4.51029e-07
8.23628e-06
-4.19749e-07
8.6551e-06
-4.18414e-07
9.06183e-06
-4.0643e-07
9.47308e-06
-4.11141e-07
9.88067e-06
-4.08099e-07
1.02951e-05
-4.14734e-07
1.07234e-05
-4.27601e-07
1.11478e-05
-4.24078e-07
1.15722e-05
-4.24386e-07
1.1989e-05
-4.16858e-07
1.2398e-05
-4.08984e-07
1.27963e-05
-3.98692e-07
1.3186e-05
-3.90238e-07
1.35683e-05
-3.82883e-07
1.39366e-05
-3.69024e-07
1.42891e-05
-3.52476e-07
1.46293e-05
-3.40116e-07
1.49626e-05
-3.31359e-07
1.52855e-05
-3.22877e-07
1.55952e-05
-3.09736e-07
1.58877e-05
-2.92446e-07
1.61606e-05
-2.73707e-07
1.64237e-05
-2.6228e-07
1.66778e-05
-2.53503e-07
1.69188e-05
-2.41018e-07
1.71435e-05
-2.24683e-07
1.73504e-05
-2.08263e-07
1.75424e-05
-1.92548e-07
1.77205e-05
-1.78142e-07
1.78853e-05
-1.62806e-07
1.80332e-05
-1.47332e-07
1.8165e-05
-1.31811e-07
1.82819e-05
-1.16856e-07
1.83808e-05
-9.90508e-08
1.84581e-05
-7.79966e-08
1.85193e-05
-6.05511e-08
1.85651e-05
-4.56093e-08
1.85914e-05
-2.62245e-08
1.85933e-05
-2.52364e-09
1.85762e-05
1.75469e-08
1.85425e-05
3.40953e-08
1.84896e-05
5.29528e-08
1.8413e-05
7.65185e-08
1.83089e-05
1.02728e-07
1.81854e-05
1.24211e-07
1.80442e-05
1.41886e-07
1.78808e-05
1.63408e-07
1.76913e-05
1.89496e-07
1.74741e-05
2.15914e-07
1.72342e-05
2.39814e-07
1.69735e-05
2.61484e-07
1.66864e-05
2.87353e-07
1.63681e-05
3.18207e-07
1.60275e-05
3.4065e-07
1.567e-05
3.58033e-07
1.52868e-05
3.82518e-07
1.48744e-05
4.12074e-07
1.44351e-05
4.39217e-07
1.39751e-05
4.61421e-07
1.34948e-05
4.80339e-07
1.29967e-05
4.98114e-07
1.24802e-05
5.1603e-07
1.19395e-05
5.39828e-07
1.13815e-05
5.58038e-07
1.081e-05
5.72428e-07
1.02274e-05
5.83115e-07
9.63958e-06
5.87792e-07
9.04874e-06
5.90838e-07
8.45252e-06
5.9611e-07
7.84611e-06
6.05863e-07
7.2334e-06
6.12587e-07
6.62246e-06
6.10936e-07
6.02195e-06
6.01093e-07
5.43368e-06
5.88489e-07
4.85268e-06
5.80989e-07
4.277e-06
5.75686e-07
3.70978e-06
5.67058e-07
3.15565e-06
5.54258e-07
2.62023e-06
5.35457e-07
2.10304e-06
5.17192e-07
1.59824e-06
5.04777e-07
1.1044e-06
4.93833e-07
6.30551e-07
4.73851e-07
1.82811e-07
4.47806e-07
-2.43223e-07
4.26064e-07
-6.53219e-07
4.10056e-07
-1.05257e-06
3.99422e-07
-1.43868e-06
3.86155e-07
-1.80642e-06
3.67679e-07
-2.1525e-06
3.46114e-07
-2.47883e-06
3.26378e-07
-2.79062e-06
3.11835e-07
-3.09152e-06
3.01141e-07
-3.3831e-06
2.91757e-07
-3.66192e-06
2.78571e-07
-3.92522e-06
2.63143e-07
-4.17355e-06
2.48331e-07
-4.40756e-06
2.34008e-07
-4.62934e-06
2.21876e-07
-4.8429e-06
2.13748e-07
-5.04885e-06
2.05965e-07
-5.24367e-06
1.94626e-07
-5.42585e-06
1.82182e-07
-5.5975e-06
1.7165e-07
-5.75808e-06
1.60798e-07
-5.90999e-06
1.51934e-07
-6.05502e-06
1.44994e-07
-6.19334e-06
1.38193e-07
-6.32295e-06
1.29603e-07
-6.44423e-06
1.21289e-07
-6.55958e-06
1.15519e-07
-6.66843e-06
1.08871e-07
-6.76982e-06
1.01197e-07
-6.86278e-06
9.29604e-08
-6.94959e-06
8.68024e-08
-7.03171e-06
8.21741e-08
-7.11182e-06
8.02037e-08
-7.18762e-06
7.56557e-08
-7.25414e-06
6.65127e-08
-7.31476e-06
6.06216e-08
-7.37178e-06
5.70265e-08
-7.42546e-06
5.37227e-08
-7.47627e-06
5.1021e-08
-7.52308e-06
4.68147e-08
-7.56525e-06
4.19106e-08
-7.60284e-06
3.75837e-08
-7.63642e-06
3.35772e-08
-7.6665e-06
3.0076e-08
-7.69375e-06
2.73118e-08
-7.71821e-06
2.44801e-08
-7.73853e-06
2.03122e-08
-7.75422e-06
1.55509e-08
-7.76522e-06
1.09977e-08
-7.77338e-06
8.15906e-09
-7.77999e-06
6.6514e-09
-7.78475e-06
4.86564e-09
-7.78662e-06
1.75552e-09
-7.78239e-06
-4.34107e-09
-7.77241e-06
-9.98974e-09
-7.75892e-06
-1.35081e-08
-7.74247e-06
-1.6416e-08
-7.72372e-06
-1.86405e-08
-7.70287e-06
-2.07136e-08
-7.67824e-06
-2.48561e-08
-7.6482e-06
-3.00491e-08
-7.61391e-06
-3.42909e-08
-7.57584e-06
-3.8088e-08
-7.5337e-06
-4.21745e-08
-7.48697e-06
-4.67373e-08
-7.43562e-06
-5.13575e-08
-7.3808e-06
-5.47549e-08
-7.3239e-06
-5.68837e-08
-7.2629e-06
-6.11427e-08
-7.19544e-06
-6.74747e-08
-7.12208e-06
-7.3372e-08
-7.04394e-06
-7.81573e-08
-6.96127e-06
-8.26534e-08
-6.87415e-06
-8.69962e-08
-6.78342e-06
-9.07517e-08
-6.68813e-06
-9.53903e-08
-6.58634e-06
-1.01857e-07
-6.478e-06
-1.08361e-07
-6.36361e-06
-1.1442e-07
-6.24347e-06
-1.20131e-07
-6.11891e-06
-1.24538e-07
-5.98967e-06
-1.29283e-07
-5.85298e-06
-1.36721e-07
-5.7099e-06
-1.43104e-07
-5.56023e-06
-1.49689e-07
-5.40329e-06
-1.56946e-07
-5.24094e-06
-1.62343e-07
-5.07285e-06
-1.68094e-07
-4.89755e-06
-1.75357e-07
-4.71509e-06
-1.82462e-07
-4.52574e-06
-1.89341e-07
-4.33104e-06
-1.94714e-07
-4.13033e-06
-2.00748e-07
-3.92316e-06
-2.07199e-07
-3.70953e-06
-2.13645e-07
-3.49022e-06
-2.19328e-07
-3.26744e-06
-2.22766e-07
-3.04176e-06
-2.25671e-07
-2.81286e-06
-2.28944e-07
-2.58003e-06
-2.32841e-07
-2.34447e-06
-2.35569e-07
-2.10859e-06
-2.3588e-07
-1.8733e-06
-2.35308e-07
-1.63847e-06
-2.34842e-07
-1.40496e-06
-2.33523e-07
-1.17377e-06
-2.31205e-07
-9.46714e-07
-2.27061e-07
-7.24867e-07
-2.2187e-07
-5.07921e-07
-2.16967e-07
-2.96343e-07
-2.11602e-07
-9.14144e-08
-2.04955e-07
1.05579e-07
-1.97021e-07
2.94801e-07
-1.89248e-07
4.77424e-07
-1.82647e-07
6.53802e-07
-1.76401e-07
8.23577e-07
-1.69799e-07
9.8631e-07
-1.62756e-07
1.14187e-06
-1.55582e-07
1.29128e-06
-1.49424e-07
1.43534e-06
-1.44067e-07
1.57422e-06
-1.38905e-07
1.70773e-06
-1.33525e-07
1.83565e-06
-1.27935e-07
1.95792e-06
-1.22294e-07
2.07464e-06
-1.16731e-07
2.18639e-06
-1.11754e-07
2.29346e-06
-1.07078e-07
2.39586e-06
-1.02411e-07
2.4935e-06
-9.76462e-08
2.58597e-06
-9.24804e-08
2.67357e-06
-8.7609e-08
2.75696e-06
-8.33946e-08
2.83637e-06
-7.94148e-08
2.9117e-06
-7.53244e-08
2.98257e-06
-7.0878e-08
3.04904e-06
-6.64846e-08
3.11148e-06
-6.24428e-08
3.17039e-06
-5.8905e-08
3.22573e-06
-5.53394e-08
3.27712e-06
-5.13952e-08
3.32481e-06
-4.76862e-08
3.36919e-06
-4.43785e-08
3.4104e-06
-4.12128e-08
3.44836e-06
-3.79624e-08
3.48312e-06
-3.47634e-08
3.51493e-06
-3.1824e-08
3.54389e-06
-2.89643e-08
3.57005e-06
-2.61676e-08
3.59352e-06
-2.34789e-08
3.61424e-06
-2.07306e-08
3.6324e-06
-1.81733e-08
3.64815e-06
-1.57704e-08
3.66174e-06
-1.36065e-08
3.67323e-06
-1.15045e-08
3.6826e-06
-9.39932e-09
3.68986e-06
-7.29112e-09
3.69512e-06
-5.28983e-09
3.69864e-06
-3.54334e-09
3.70063e-06
-1.99494e-09
3.70106e-06
-4.33965e-10
3.69989e-06
1.16997e-09
3.69724e-06
2.6679e-09
3.69321e-06
4.04761e-09
3.68787e-06
5.35191e-09
3.68118e-06
6.70697e-09
3.67325e-06
7.96202e-09
3.66433e-06
8.94871e-09
3.65456e-06
9.79493e-09
3.64398e-06
1.06012e-08
3.63252e-06
1.14662e-08
3.6202e-06
1.23269e-08
3.60705e-06
1.31532e-08
3.59312e-06
1.3934e-08
3.5786e-06
1.45135e-08
3.56364e-06
1.49498e-08
3.54814e-06
1.54901e-08
3.53182e-06
1.62961e-08
3.51508e-06
1.67419e-08
3.49808e-06
1.6999e-08
3.48062e-06
1.74513e-08
3.46265e-06
1.79646e-08
3.44437e-06
1.82772e-08
3.4257e-06
1.86822e-08
3.40648e-06
1.92237e-08
3.38683e-06
1.96602e-08
3.36693e-06
1.99121e-08
3.34694e-06
2.00063e-08
3.32684e-06
2.00977e-08
3.30653e-06
2.03121e-08
3.2859e-06
2.06324e-08
3.26542e-06
2.04808e-08
3.24454e-06
2.08869e-08
3.22441e-06
2.01319e-08
3.20427e-06
2.01371e-08
3.18477e-06
1.95052e-08
3.16511e-06
1.96626e-08
3.14548e-06
1.9636e-08
3.12581e-06
1.96822e-08
3.10542e-06
2.03861e-08
3.0863e-06
1.91225e-08
3.06699e-06
1.93108e-08
3.04598e-06
2.10077e-08
3.02577e-06
2.02013e-08
3.00197e-06
2.37976e-08
2.97565e-06
2.63098e-08
2.95742e-06
1.8228e-08
2.93753e-06
1.98874e-08
2.91446e-06
2.30588e-08
2.89848e-06
1.59783e-08
2.85346e-06
4.50251e-08
2.79989e-06
5.35769e-08
2.79196e-06
7.9268e-09
2.76209e-06
2.98793e-08
2.76558e-06
-3.48661e-09
2.80891e-06
-4.33207e-08
2.95615e-06
-1.47235e-07
3.13275e-06
-1.76596e-07
3.22333e-06
-9.05861e-08
3.29128e-06
-6.79465e-08
3.32399e-06
-3.27041e-08
3.34397e-06
-1.99773e-08
3.35131e-06
-7.33796e-09
3.35677e-06
-5.46606e-09
3.35757e-06
-7.98098e-10
3.3555e-06
2.06963e-09
3.34502e-06
1.04806e-08
3.33714e-06
7.88838e-09
3.30429e-06
3.28479e-08
3.2642e-06
4.00978e-08
3.25671e-06
7.48786e-09
3.23164e-06
2.50768e-08
3.22697e-06
4.6774e-09
3.25013e-06
-2.31523e-08
3.33705e-06
-8.69176e-08
3.43661e-06
-9.95572e-08
3.47573e-06
-3.91169e-08
3.50358e-06
-2.78422e-08
3.51027e-06
-6.69701e-09
3.50862e-06
1.66137e-09
3.50269e-06
5.9318e-09
3.48864e-06
1.40527e-08
3.47058e-06
1.80584e-08
3.4398e-06
3.07798e-08
3.40584e-06
3.39657e-08
3.38037e-06
2.5464e-08
3.34671e-06
3.36649e-08
3.31802e-06
2.86846e-08
3.28763e-06
3.03969e-08
3.16349e-06
1.24139e-07
3.04927e-06
1.14219e-07
3.02222e-06
2.70509e-08
2.9303e-06
9.19073e-08
3.05807e-06
-1.27799e-07
3.2698e-06
-2.11778e-07
4.01425e-06
-7.44516e-07
4.94151e-06
-9.27448e-07
5.5527e-06
-6.11307e-07
5.9604e-06
-4.07787e-07
6.24541e-06
-2.85014e-07
6.44802e-06
-2.02604e-07
6.59523e-06
-1.47234e-07
6.7045e-06
-1.09279e-07
6.78417e-06
-7.96644e-08
6.84358e-06
-5.93996e-08
6.88756e-06
-4.39727e-08
6.92002e-06
-3.24498e-08
6.941e-06
-2.09694e-08
6.95423e-06
-1.32098e-08
6.96162e-06
-7.38003e-09
6.96194e-06
-2.93876e-10
6.9576e-06
4.3462e-09
6.94984e-06
7.77619e-09
6.93657e-06
1.32817e-08
6.92041e-06
1.61725e-08
6.90189e-06
1.8525e-08
6.88152e-06
2.03716e-08
6.85662e-06
2.49109e-08
6.82957e-06
2.70618e-08
6.8008e-06
2.87665e-08
6.77042e-06
3.03814e-08
6.73859e-06
3.1824e-08
6.70516e-06
3.34297e-08
6.67028e-06
3.48732e-08
6.63415e-06
3.61216e-08
6.59662e-06
3.75235e-08
6.55798e-06
3.86405e-08
6.51807e-06
3.99083e-08
6.4798e-06
3.82722e-08
6.44094e-06
3.88511e-08
6.4011e-06
3.98419e-08
6.36064e-06
4.04591e-08
6.31919e-06
4.14483e-08
6.27669e-06
4.24932e-08
6.23374e-06
4.29599e-08
6.19011e-06
4.36391e-08
6.14569e-06
4.44169e-08
6.10053e-06
4.51606e-08
6.0547e-06
4.58309e-08
6.00844e-06
4.62651e-08
5.96217e-06
4.62713e-08
5.91299e-06
4.91811e-08
5.86341e-06
4.95694e-08
5.81394e-06
4.94834e-08
5.76435e-06
4.95884e-08
5.71465e-06
4.96976e-08
5.66511e-06
4.95476e-08
5.61547e-06
4.96356e-08
5.56559e-06
4.98832e-08
5.51523e-06
5.03619e-08
5.46421e-06
5.10123e-08
5.41265e-06
5.15604e-08
5.36088e-06
5.1772e-08
5.30928e-06
5.15998e-08
5.25789e-06
5.13941e-08
5.20617e-06
5.17207e-08
5.15362e-06
5.25485e-08
5.10008e-06
5.3536e-08
5.04602e-06
5.40643e-08
4.99244e-06
5.35793e-08
4.93941e-06
5.30256e-08
4.88612e-06
5.3293e-08
4.83173e-06
5.43827e-08
4.77683e-06
5.49001e-08
4.72274e-06
5.40916e-08
4.66934e-06
5.33993e-08
4.6155e-06
5.38439e-08
4.56065e-06
5.48416e-08
4.50853e-06
5.21243e-08
4.45713e-06
5.13992e-08
4.40583e-06
5.12979e-08
4.35109e-06
5.47332e-08
4.29518e-06
5.59154e-08
4.24008e-06
5.50945e-08
4.18308e-06
5.70023e-08
4.12491e-06
5.81768e-08
6.34795e-08
-5.46162e-05
-2.69092e-06
-5.32383e-05
-2.72377e-06
-5.19362e-05
-2.53176e-06
-5.07367e-05
-2.33364e-06
-4.95945e-05
-2.24938e-06
-4.84823e-05
-1.98867e-06
-4.7436e-05
-1.44391e-06
-4.64656e-05
-9.08993e-07
-4.55272e-05
-5.86461e-07
-4.43323e-05
-8.71681e-07
-4.22419e-05
-2.42486e-06
-3.83421e-05
-6.27124e-06
-3.34129e-05
-1.0681e-05
-2.84293e-05
-1.2817e-05
-2.32806e-05
-1.37922e-05
-1.82662e-05
-1.43501e-05
-1.34955e-05
-1.47779e-05
-9.2276e-06
-1.43535e-05
-5.66932e-06
-1.27974e-05
-2.92182e-06
-1.04782e-05
-1.66311e-06
-6.93881e-06
-1.9121e-06
-2.58966e-06
-2.45166e-06
1.27136e-06
-1.44712e-06
3.96582e-06
2.33463e-07
5.38905e-06
1.28773e-06
5.46019e-06
1.61723e-06
4.08467e-06
1.68558e-06
2.3918e-06
1.79857e-06
1.2664e-06
2.06939e-06
4.37162e-07
2.51122e-06
-3.33846e-07
3.01105e-06
-1.02084e-06
3.6544e-06
-1.64977e-06
4.5069e-06
-2.11025e-06
5.61658e-06
-2.31988e-06
6.85221e-06
-2.17056e-06
7.95242e-06
-1.91095e-06
8.86936e-06
-1.83203e-06
9.73721e-06
-1.94429e-06
1.06147e-05
-1.92024e-06
1.16024e-05
-1.78349e-06
1.27158e-05
-1.8265e-06
1.39132e-05
-2.1845e-06
1.51854e-05
-2.72501e-06
1.65721e-05
-3.06128e-06
1.80005e-05
-2.95737e-06
1.93084e-05
-2.41499e-06
2.04777e-05
-1.90564e-06
2.15624e-05
-1.85872e-06
2.2727e-05
-2.27377e-06
2.40221e-05
-2.75141e-06
2.53944e-05
-2.8787e-06
2.67224e-05
-2.57783e-06
2.78929e-05
-2.15999e-06
2.88981e-05
-1.97549e-06
2.98445e-05
-2.03355e-06
3.08215e-05
-2.15508e-06
3.1876e-05
-2.268e-06
3.30112e-05
-2.31018e-06
3.42293e-05
-2.4152e-06
3.54489e-05
-2.65373e-06
3.65767e-05
-2.65647e-06
3.75857e-05
-2.24245e-06
3.8452e-05
-1.641e-06
3.92601e-05
-1.24838e-06
4.0081e-05
-1.26091e-06
4.08838e-05
-1.35069e-06
4.14333e-05
-1.05114e-06
4.17657e-05
-5.56928e-07
4.19768e-05
-2.99116e-07
4.21609e-05
-2.93432e-07
4.23764e-05
-4.49624e-07
4.26687e-05
-5.15714e-07
4.29715e-05
-4.24219e-07
4.32203e-05
4.23376e-08
4.32074e-05
1.08597e-06
4.34286e-05
2.17593e-06
4.41234e-05
3.88592e-06
4.26259e-05
5.11597e-06
3.98656e-05
3.75523e-06
3.57314e-05
4.72265e-06
3.20238e-05
3.52368e-06
3.11029e-05
1.2693e-06
3.03168e-05
1.1616e-06
3.00239e-05
9.09559e-07
2.95065e-05
2.1474e-06
2.86076e-05
2.68417e-06
2.74125e-05
2.64308e-06
2.63846e-05
1.89366e-06
2.46852e-05
2.16347e-06
2.30969e-05
1.69831e-06
2.21613e-05
8.55239e-07
2.15873e-05
7.16527e-07
2.13104e-05
5.00933e-07
2.12707e-05
5.47648e-07
2.10397e-05
8.94638e-07
2.09368e-05
1.42826e-06
2.05997e-05
1.99959e-06
2.08907e-05
2.9099e-06
2.05123e-05
4.686e-06
1.91402e-05
5.38645e-06
1.58597e-05
5.7297e-06
1.09575e-05
5.35355e-06
6.70665e-06
4.52625e-06
3.52122e-06
2.55201e-06
2.01394e-06
5.25512e-07
1.62772e-06
-2.00302e-08
1.50912e-06
2.96741e-07
2.36222e-06
-6.24136e-07
3.82238e-06
-1.68746e-06
4.46923e-06
-8.38417e-07
4.67615e-06
-5.9165e-07
4.91855e-06
-7.0567e-07
4.9909e-06
-4.41994e-07
5.32514e-06
-4.60822e-07
5.76548e-06
-4.63179e-07
6.36204e-06
-5.54509e-08
6.75805e-06
4.05583e-07
6.888e-06
2.8859e-07
6.34797e-06
4.369e-07
5.45098e-06
4.55482e-07
4.97722e-06
1.61995e-07
4.89467e-06
-4.62004e-07
5.10613e-06
-8.28713e-07
5.36724e-06
-6.92267e-07
5.92474e-06
-9.68242e-07
6.57099e-06
-1.04986e-06
7.02404e-06
-8.25017e-07
7.43373e-06
-8.28734e-07
7.8145e-06
-8.3065e-07
8.1711e-06
-7.76878e-07
8.5818e-06
-8.30251e-07
9.02028e-06
-8.44103e-07
9.44879e-06
-8.39044e-07
9.86513e-06
-8.25205e-07
1.02815e-05
-8.3137e-07
1.0706e-05
-8.52134e-07
1.11217e-05
-8.39721e-07
1.15431e-05
-8.44344e-07
1.19616e-05
-8.35397e-07
1.23746e-05
-8.2238e-07
1.278e-05
-8.05081e-07
1.31755e-05
-7.86046e-07
1.35585e-05
-7.66128e-07
1.39269e-05
-7.38564e-07
1.42843e-05
-7.09862e-07
1.46306e-05
-6.86399e-07
1.49664e-05
-6.67143e-07
1.52919e-05
-6.45993e-07
1.55989e-05
-6.16718e-07
1.58878e-05
-5.83967e-07
1.61668e-05
-5.52753e-07
1.64342e-05
-5.29601e-07
1.6692e-05
-5.08657e-07
1.69328e-05
-4.80665e-07
1.71545e-05
-4.46443e-07
1.73604e-05
-4.15321e-07
1.75557e-05
-3.88617e-07
1.77387e-05
-3.61137e-07
1.7904e-05
-3.28086e-07
1.80527e-05
-2.93865e-07
1.81836e-05
-2.62308e-07
1.82998e-05
-2.33078e-07
1.83986e-05
-1.98047e-07
1.84766e-05
-1.57196e-07
1.85385e-05
-1.21707e-07
1.85846e-05
-9.06225e-08
1.86097e-05
-5.17189e-08
1.86105e-05
-5.18367e-09
1.85943e-05
3.52035e-08
1.856e-05
6.96423e-08
1.85046e-05
1.08295e-07
1.84247e-05
1.55626e-07
1.8321e-05
2.05164e-07
1.81978e-05
2.48805e-07
1.8053e-05
2.8757e-07
1.7885e-05
3.31359e-07
1.76911e-05
3.82085e-07
1.7475e-05
4.31894e-07
1.72359e-05
4.79029e-07
1.69705e-05
5.27361e-07
1.66771e-05
5.80625e-07
1.63587e-05
6.36615e-07
1.60187e-05
6.81409e-07
1.56568e-05
7.20999e-07
1.52696e-05
7.69139e-07
1.48587e-05
8.22099e-07
1.44225e-05
8.75421e-07
1.39599e-05
9.24586e-07
1.34748e-05
9.66e-07
1.29713e-05
1.00167e-06
1.24523e-05
1.03464e-06
1.19175e-05
1.07376e-06
1.13678e-05
1.10776e-06
1.08001e-05
1.14007e-06
1.02179e-05
1.16598e-06
9.62773e-06
1.17853e-06
9.0344e-06
1.18417e-06
8.4369e-06
1.19332e-06
7.83308e-06
1.2093e-06
7.22668e-06
1.21899e-06
6.62386e-06
1.21376e-06
6.02837e-06
1.19714e-06
5.43813e-06
1.17901e-06
4.85375e-06
1.16528e-06
4.27691e-06
1.15224e-06
3.71217e-06
1.13182e-06
3.16331e-06
1.10315e-06
2.62997e-06
1.06898e-06
2.10978e-06
1.03739e-06
1.60173e-06
1.01268e-06
1.11051e-06
9.85019e-07
6.411e-07
9.43269e-07
1.9155e-07
8.97407e-07
-2.40361e-07
8.58015e-07
-6.54778e-07
8.24542e-07
-1.05366e-06
7.98397e-07
-1.43748e-06
7.70026e-07
-1.80528e-06
7.35537e-07
-2.15478e-06
6.95444e-07
-2.48567e-06
6.57268e-07
-2.80146e-06
6.27764e-07
-3.10343e-06
6.03329e-07
-3.39285e-06
5.81202e-07
-3.66965e-06
5.55385e-07
-3.93322e-06
5.26736e-07
-4.18314e-06
4.97953e-07
-4.42001e-06
4.70821e-07
-4.64449e-06
4.46366e-07
-4.85748e-06
4.27023e-07
-5.06113e-06
4.09627e-07
-5.25482e-06
3.88328e-07
-5.43711e-06
3.64487e-07
-5.60853e-06
3.42842e-07
-5.7694e-06
3.21562e-07
-5.9214e-06
3.03938e-07
-6.06618e-06
2.89923e-07
-6.20468e-06
2.76736e-07
-6.33557e-06
2.60476e-07
-6.4575e-06
2.43529e-07
-6.57153e-06
2.29542e-07
-6.6773e-06
2.14652e-07
-6.7773e-06
2.00884e-07
-6.8716e-06
1.87156e-07
-6.96022e-06
1.75413e-07
-7.04315e-06
1.65225e-07
-7.12132e-06
1.58493e-07
-7.19412e-06
1.48466e-07
-7.26124e-06
1.33359e-07
-7.32268e-06
1.22063e-07
-7.38049e-06
1.14838e-07
-7.43485e-06
1.08392e-07
-7.48528e-06
1.01456e-07
-7.53022e-06
9.17636e-08
-7.57043e-06
8.21281e-08
-7.60743e-06
7.45244e-08
-7.64177e-06
6.76339e-08
-7.6733e-06
6.16065e-08
-7.70189e-06
5.59433e-08
-7.72557e-06
4.82336e-08
-7.74399e-06
3.87402e-08
-7.75915e-06
3.04915e-08
-7.77106e-06
2.29061e-08
-7.78011e-06
1.73349e-08
-7.78675e-06
1.34739e-08
-7.79049e-06
8.60789e-09
-7.79037e-06
1.61022e-09
-7.78602e-06
-9.0833e-09
-7.77684e-06
-1.92144e-08
-7.76422e-06
-2.61418e-08
-7.74869e-06
-3.18599e-08
-7.7299e-06
-3.72436e-08
-7.70742e-06
-4.31799e-08
-7.68093e-06
-5.13592e-08
-7.65106e-06
-6.01977e-08
-7.61742e-06
-6.79383e-08
-7.57954e-06
-7.59696e-08
-7.53712e-06
-8.46256e-08
-7.49012e-06
-9.37599e-08
-7.4389e-06
-1.02582e-07
-7.38423e-06
-1.09318e-07
-7.32611e-06
-1.14934e-07
-7.26353e-06
-1.23821e-07
-7.19533e-06
-1.35856e-07
-7.12194e-06
-1.46823e-07
-7.04425e-06
-1.55867e-07
-6.96228e-06
-1.64623e-07
-6.87523e-06
-1.74021e-07
-6.78277e-06
-1.83158e-07
-6.68526e-06
-1.92947e-07
-6.58229e-06
-2.04921e-07
-6.47388e-06
-2.1689e-07
-6.36017e-06
-2.28162e-07
-6.2407e-06
-2.39603e-07
-6.11492e-06
-2.50254e-07
-5.98301e-06
-2.61199e-07
-5.8448e-06
-2.74944e-07
-5.70165e-06
-2.86435e-07
-5.55281e-06
-2.98574e-07
-5.39652e-06
-3.13243e-07
-5.23259e-06
-3.26271e-07
-5.062e-06
-3.38675e-07
-4.88609e-06
-3.51369e-07
-4.70492e-06
-3.63688e-07
-4.5164e-06
-3.77888e-07
-4.32032e-06
-3.90804e-07
-4.11854e-06
-4.02544e-07
-3.91202e-06
-4.13785e-07
-3.70012e-06
-4.25581e-07
-3.48276e-06
-4.36702e-07
-3.26072e-06
-4.44798e-07
-3.03478e-06
-4.51633e-07
-2.8065e-06
-4.57252e-07
-2.57597e-06
-4.63418e-07
-2.34291e-06
-4.68657e-07
-2.10833e-06
-4.70477e-07
-1.87371e-06
-4.6994e-07
-1.64055e-06
-4.68047e-07
-1.40977e-06
-4.64339e-07
-1.1814e-06
-4.59609e-07
-9.55901e-07
-4.52596e-07
-7.34301e-07
-4.43508e-07
-5.17845e-07
-4.33467e-07
-3.07433e-07
-4.22063e-07
-1.03639e-07
-4.08791e-07
9.37379e-08
-3.9444e-07
2.84699e-07
-3.80252e-07
4.69013e-07
-3.67e-07
6.46474e-07
-3.53897e-07
8.16926e-07
-3.40284e-07
9.80679e-07
-3.26547e-07
1.13805e-06
-3.12987e-07
1.2892e-06
-3.00598e-07
1.43446e-06
-2.89346e-07
1.57397e-06
-2.78441e-07
1.7078e-06
-2.67379e-07
1.83619e-06
-2.56341e-07
1.95932e-06
-2.45446e-07
2.07712e-06
-2.34556e-07
2.1896e-06
-2.24255e-07
2.29693e-06
-2.14427e-07
2.39939e-06
-2.04884e-07
2.49705e-06
-1.9532e-07
2.58984e-06
-1.85297e-07
2.67816e-06
-1.75938e-07
2.7621e-06
-1.67343e-07
2.84161e-06
-1.58921e-07
2.91676e-06
-1.5048e-07
2.98764e-06
-1.41776e-07
3.05448e-06
-1.33328e-07
3.11734e-06
-1.25307e-07
3.17632e-06
-1.1788e-07
3.23149e-06
-1.10512e-07
3.283e-06
-1.02916e-07
3.33093e-06
-9.56183e-08
3.37529e-06
-8.87431e-08
3.41624e-06
-8.21669e-08
3.45402e-06
-7.57376e-08
3.48874e-06
-6.94959e-08
3.52048e-06
-6.35633e-08
3.54923e-06
-5.77232e-08
3.57511e-06
-5.206e-08
3.59837e-06
-4.67532e-08
3.61907e-06
-4.14567e-08
3.6373e-06
-3.64246e-08
3.6531e-06
-3.16e-08
3.66658e-06
-2.7099e-08
3.67787e-06
-2.28114e-08
3.68703e-06
-1.85832e-08
3.69418e-06
-1.44686e-08
3.69944e-06
-1.05421e-08
3.70287e-06
-6.98204e-09
3.70467e-06
-3.78242e-09
3.7049e-06
-6.56336e-10
3.70357e-06
2.51865e-09
3.70072e-06
5.54312e-09
3.69642e-06
8.37587e-09
3.69088e-06
1.09099e-08
3.68422e-06
1.34047e-08
3.67642e-06
1.57867e-08
3.6675e-06
1.79085e-08
3.65755e-06
1.97696e-08
3.64675e-06
2.14164e-08
3.6351e-06
2.31288e-08
3.62258e-06
2.48499e-08
3.6093e-06
2.64274e-08
3.59541e-06
2.78131e-08
3.5809e-06
2.90142e-08
3.56577e-06
3.00688e-08
3.55006e-06
3.1184e-08
3.53393e-06
3.24089e-08
3.51731e-06
3.33555e-08
3.50025e-06
3.40591e-08
3.48253e-06
3.51717e-08
3.4645e-06
3.59866e-08
3.44603e-06
3.67554e-08
3.42736e-06
3.73644e-08
3.40825e-06
3.83466e-08
3.3889e-06
3.90269e-08
3.36884e-06
3.99895e-08
3.34882e-06
4.00429e-08
3.3283e-06
4.06228e-08
3.30794e-06
4.06717e-08
3.28711e-06
4.14598e-08
3.26691e-06
4.06895e-08
3.24561e-06
4.21881e-08
3.22502e-06
4.07301e-08
3.2036e-06
4.15685e-08
3.18282e-06
4.02842e-08
3.16384e-06
3.86511e-08
3.14502e-06
3.8468e-08
3.12811e-06
3.65906e-08
3.10828e-06
4.02269e-08
3.08939e-06
3.80063e-08
3.06583e-06
4.28716e-08
3.0411e-06
4.57223e-08
3.02449e-06
3.67997e-08
3.01008e-06
3.82048e-08
2.99267e-06
4.37052e-08
2.97627e-06
3.46205e-08
2.92795e-06
6.8199e-08
2.87196e-06
7.9046e-08
2.86472e-06
2.32211e-08
2.86531e-06
4.44376e-08
2.90524e-06
1.36534e-08
2.95982e-06
-4.66372e-08
3.11804e-06
-1.2834e-07
3.29386e-06
-1.79293e-07
3.37876e-06
-1.28215e-07
3.40022e-06
-1.68687e-07
3.37552e-06
-1.51889e-07
3.37628e-06
-9.13508e-08
3.37103e-06
-6.26932e-08
3.37885e-06
-4.05236e-08
3.382e-06
-2.31209e-08
3.38775e-06
-1.30861e-08
3.38684e-06
-4.55951e-09
3.38493e-06
1.11587e-09
3.35665e-06
3.03506e-08
3.32244e-06
4.47004e-08
3.32321e-06
7.12198e-09
3.32665e-06
2.94079e-08
3.35437e-06
1.23885e-08
3.38921e-06
-2.73455e-08
3.48887e-06
-7.45808e-08
3.59331e-06
-9.97534e-08
3.62931e-06
-5.91437e-08
3.62794e-06
-8.55441e-08
3.59697e-06
-6.85857e-08
3.58889e-06
-3.10215e-08
3.56855e-06
-7.50309e-09
3.55523e-06
6.62472e-09
3.52341e-06
3.34843e-08
3.49867e-06
3.06693e-08
3.47873e-06
3.4003e-08
3.47128e-06
2.55252e-08
3.46451e-06
3.75307e-08
3.46132e-06
3.71576e-08
3.44362e-06
4.31614e-08
3.32185e-06
1.55434e-07
3.20215e-06
1.48381e-07
3.18144e-06
5.11104e-08
3.19324e-06
1.12348e-07
3.43918e-06
-1.31721e-07
3.74612e-06
-2.79857e-07
4.59975e-06
-7.61696e-07
5.456e-06
-9.83941e-07
6.03686e-06
-7.92495e-07
6.26815e-06
-9.75631e-07
6.25777e-06
-9.16858e-07
6.33716e-06
-6.9057e-07
6.4361e-06
-5.06579e-07
6.53482e-06
-3.83687e-07
6.62565e-06
-2.93403e-07
6.70589e-06
-2.2743e-07
6.77322e-06
-1.76591e-07
6.82773e-06
-1.34209e-07
6.87071e-06
-1.02375e-07
6.90452e-06
-7.77869e-08
6.92896e-06
-5.68847e-08
6.94556e-06
-3.76161e-08
6.95566e-06
-2.3335e-08
6.96007e-06
-1.17935e-08
6.95931e-06
4.14847e-10
6.9542e-06
9.43822e-09
6.94534e-06
1.66269e-08
6.93286e-06
2.57068e-08
6.91726e-06
3.17518e-08
6.89892e-06
3.68592e-08
6.8779e-06
4.13946e-08
6.85404e-06
4.87185e-08
6.8279e-06
5.31855e-08
6.79981e-06
5.68487e-08
6.76974e-06
6.04531e-08
6.73779e-06
6.37701e-08
6.70461e-06
6.66087e-08
6.66998e-06
6.9506e-08
6.63394e-06
7.21655e-08
6.59678e-06
7.46899e-08
6.55856e-06
7.68633e-08
6.51945e-06
7.90214e-08
6.47977e-06
7.80024e-08
6.43922e-06
7.94155e-08
6.39815e-06
8.09176e-08
6.35605e-06
8.25603e-08
6.31357e-06
8.39227e-08
6.27081e-06
8.52511e-08
6.22696e-06
8.68082e-08
6.1826e-06
8.79982e-08
6.13758e-06
8.94247e-08
6.09181e-06
9.09346e-08
6.04519e-06
9.2447e-08
5.99822e-06
9.3238e-08
5.95046e-06
9.40283e-08
5.90206e-06
9.75415e-08
5.8535e-06
9.81127e-08
5.80447e-06
9.8512e-08
5.75514e-06
9.8921e-08
5.70558e-06
9.92547e-08
5.65567e-06
9.94583e-08
5.60561e-06
9.96948e-08
5.55536e-06
1.00127e-07
5.50478e-06
1.00942e-07
5.45374e-06
1.02055e-07
5.40227e-06
1.03023e-07
5.3506e-06
1.03442e-07
5.29884e-06
1.03354e-07
5.24684e-06
1.03397e-07
5.19441e-06
1.04151e-07
5.14109e-06
1.05859e-07
5.08741e-06
1.07219e-07
5.03426e-06
1.07214e-07
4.98141e-06
1.06424e-07
4.92809e-06
1.06352e-07
4.87387e-06
1.07512e-07
4.81951e-06
1.08735e-07
4.76576e-06
1.08655e-07
4.71255e-06
1.07295e-07
4.65861e-06
1.07345e-07
4.60409e-06
1.08359e-07
4.5498e-06
1.09132e-07
4.49623e-06
1.05722e-07
4.44255e-06
1.05087e-07
4.38764e-06
1.06212e-07
4.33239e-06
1.09953e-07
4.27773e-06
1.10563e-07
4.22342e-06
1.09406e-07
4.17022e-06
1.10204e-07
4.11597e-06
1.12421e-07
1.18027e-07
-5.46607e-05
-4.0933e-06
-5.32477e-05
-4.13819e-06
-5.18933e-05
-3.88726e-06
-5.06064e-05
-3.62137e-06
-4.93565e-05
-3.50003e-06
-4.80588e-05
-3.28688e-06
-4.66315e-05
-2.87161e-06
-4.5086e-05
-2.4548e-06
-4.34319e-05
-2.24092e-06
-4.15767e-05
-2.72708e-06
-3.9288e-05
-4.71376e-06
-3.64551e-05
-9.10426e-06
-3.3809e-05
-1.33271e-05
-3.10562e-05
-1.55699e-05
-2.83307e-05
-1.65177e-05
-2.60649e-05
-1.66159e-05
-2.48171e-05
-1.60257e-05
-2.4864e-05
-1.43066e-05
-2.56333e-05
-1.2028e-05
-2.63316e-05
-9.77985e-06
-2.60951e-05
-7.17535e-06
-2.43095e-05
-4.37516e-06
-2.12727e-05
-1.76531e-06
-1.77145e-05
4.07809e-07
-1.39286e-05
1.60342e-06
-1.02527e-05
1.78416e-06
-7.32784e-06
1.15979e-06
-5.1571e-06
2.21084e-07
-3.30442e-06
-5.86214e-07
-1.67355e-06
-1.19356e-06
-3.09163e-07
-1.69814e-06
7.62968e-07
-2.09297e-06
1.69943e-06
-2.58629e-06
2.73517e-06
-3.14558e-06
4.03188e-06
-3.61599e-06
5.52519e-06
-3.66407e-06
6.94717e-06
-3.33444e-06
8.0796e-06
-2.9684e-06
8.98862e-06
-2.85339e-06
9.95478e-06
-2.88632e-06
1.11677e-05
-2.99653e-06
1.25793e-05
-3.23796e-06
1.39836e-05
-3.5852e-06
1.52454e-05
-3.98426e-06
1.64722e-05
-4.28794e-06
1.77512e-05
-4.2366e-06
1.91192e-05
-3.78939e-06
2.05634e-05
-3.36003e-06
2.20057e-05
-3.301e-06
2.33534e-05
-3.60889e-06
2.45739e-05
-3.9689e-06
2.57712e-05
-4.07594e-06
2.70017e-05
-3.80883e-06
2.81912e-05
-3.35909e-06
2.92668e-05
-3.05516e-06
3.02144e-05
-2.98107e-06
3.1119e-05
-3.05975e-06
3.20608e-05
-3.19912e-06
3.30573e-05
-3.30207e-06
3.41193e-05
-3.47684e-06
3.51597e-05
-3.69421e-06
3.61248e-05
-3.62216e-06
3.70077e-05
-3.13582e-06
3.79381e-05
-2.58528e-06
3.90928e-05
-2.40301e-06
4.03434e-05
-2.49816e-06
4.13307e-05
-2.34679e-06
4.20262e-05
-1.75281e-06
4.25622e-05
-1.09293e-06
4.29693e-05
-7.0618e-07
4.32762e-05
-6.00327e-07
4.35632e-05
-7.16231e-07
4.38785e-05
-8.22971e-07
4.42164e-05
-7.63978e-07
4.45866e-05
-3.47296e-07
4.49298e-05
7.42898e-07
4.52775e-05
1.82828e-06
4.66474e-05
2.52684e-06
4.87425e-05
3.03181e-06
4.90443e-05
3.45632e-06
4.89655e-05
4.80169e-06
4.65041e-05
5.98502e-06
4.31206e-05
4.65282e-06
3.83739e-05
5.9082e-06
3.43223e-05
4.96119e-06
3.32662e-05
3.20339e-06
3.19539e-05
3.99559e-06