/*--------------------------------*- C++ -*----------------------------------*\
| =========                 |                                                 |
| \\      /  F ield         | OpenFOAM: The Open Source CFD Toolbox           |
|  \\    /   O peration     | Version:  v2006                                 |
|   \\  /    A nd           | Website:  www.openfoam.com                      |
|    \\/     M anipulation  |                                                 |
\*---------------------------------------------------------------------------*/
FoamFile
{
    version     2.0;
    format      ascii;
    class       volScalarField;
    location    "5.3";
    object      k;
}
// * * * * * * * * * * * * * * * * * * * * * * * * * * * * * * * * * * * * * //

dimensions      [0 2 -2 0 0 0 0];


internalField   nonuniform List<scalar> 
33000
(
1.27326e-08
1.32718e-08
1.37628e-08
1.42532e-08
1.477e-08
1.54005e-08
1.61824e-08
1.71104e-08
1.81211e-08
1.91542e-08
2.00822e-08
2.07745e-08
2.14294e-08
2.23673e-08
2.3784e-08
2.5637e-08
2.80052e-08
3.09751e-08
3.43017e-08
3.78574e-08
4.14415e-08
4.48688e-08
4.93848e-08
5.80982e-08
7.30039e-08
9.46733e-08
1.20024e-07
1.43728e-07
1.62691e-07
1.76915e-07
1.86856e-07
1.91696e-07
1.93995e-07
1.95935e-07
1.9869e-07
2.01889e-07
2.04024e-07
2.04764e-07
2.05068e-07
2.06091e-07
2.07601e-07
2.08091e-07
2.06625e-07
2.04314e-07
2.03369e-07
2.04542e-07
2.07051e-07
2.08937e-07
2.08695e-07
2.06662e-07
2.04563e-07
2.0389e-07
2.04582e-07
2.05234e-07
2.04802e-07
2.03562e-07
2.02245e-07
2.01085e-07
2.001e-07
1.98854e-07
1.97227e-07
1.96527e-07
1.975e-07
1.99193e-07
2.00084e-07
1.99475e-07
1.9779e-07
1.95857e-07
1.9357e-07
1.90207e-07
1.85757e-07
1.80481e-07
1.74852e-07
1.68851e-07
1.62372e-07
1.55396e-07
1.47953e-07
1.40041e-07
1.31707e-07
1.24163e-07
1.19207e-07
1.17549e-07
1.19532e-07
1.24224e-07
1.30231e-07
1.35827e-07
1.39898e-07
1.42118e-07
1.42813e-07
1.42614e-07
1.41935e-07
1.40761e-07
1.39428e-07
1.37091e-07
1.33568e-07
1.2882e-07
1.22994e-07
1.16294e-07
1.09224e-07
1.02289e-07
9.68999e-08
9.43116e-08
9.7353e-08
9.97523e-08
9.90154e-08
9.81481e-08
9.95638e-08
1.01894e-07
1.02545e-07
1.01785e-07
1.01273e-07
9.97499e-08
9.86903e-08
9.80404e-08
9.77551e-08
9.62099e-08
9.40415e-08
9.12296e-08
8.93524e-08
8.864e-08
8.78868e-08
8.86995e-08
8.83408e-08
8.79999e-08
8.88321e-08
8.95201e-08
9.00099e-08
9.04646e-08
9.05714e-08
9.06007e-08
9.08023e-08
9.09696e-08
9.11367e-08
9.12576e-08
9.13484e-08
9.13661e-08
9.13329e-08
9.13148e-08
9.12962e-08
9.12878e-08
9.1281e-08
9.12646e-08
9.1223e-08
9.11604e-08
9.1092e-08
9.10059e-08
9.08894e-08
9.07493e-08
9.06028e-08
9.04621e-08
9.03264e-08
9.01808e-08
9.00153e-08
8.9841e-08
8.96704e-08
8.95015e-08
8.93241e-08
8.9131e-08
8.89245e-08
8.87111e-08
8.84931e-08
8.82692e-08
8.80399e-08
8.78101e-08
8.75788e-08
8.73387e-08
8.70889e-08
8.68323e-08
8.65668e-08
8.62879e-08
8.59949e-08
8.56923e-08
8.53891e-08
8.50895e-08
8.4791e-08
8.44969e-08
8.4216e-08
8.39574e-08
8.37241e-08
8.35113e-08
8.33182e-08
8.31462e-08
8.29952e-08
8.28565e-08
8.27248e-08
8.26045e-08
8.25016e-08
8.24153e-08
8.2335e-08
8.22514e-08
8.2159e-08
8.2061e-08
8.19542e-08
8.18325e-08
8.16978e-08
8.15547e-08
8.14013e-08
8.12327e-08
8.10508e-08
8.08689e-08
8.06965e-08
8.05278e-08
8.0351e-08
8.01579e-08
7.99908e-08
7.98713e-08
7.98061e-08
7.97887e-08
7.9802e-08
7.98358e-08
7.98989e-08
8.0003e-08
8.01366e-08
8.02732e-08
8.04035e-08
8.05328e-08
8.06526e-08
8.07558e-08
8.08242e-08
8.08367e-08
8.0782e-08
8.06786e-08
8.05526e-08
8.04176e-08
8.02689e-08
8.00889e-08
7.98706e-08
7.9624e-08
7.93638e-08
7.90982e-08
7.8833e-08
7.85643e-08
7.82746e-08
7.79613e-08
7.76375e-08
7.73124e-08
7.69864e-08
7.66593e-08
7.63222e-08
7.59757e-08
7.56297e-08
7.52864e-08
7.49358e-08
7.45712e-08
7.42003e-08
7.38378e-08
7.34866e-08
7.31309e-08
7.27496e-08
7.23568e-08
7.19733e-08
7.15957e-08
7.12139e-08
7.08235e-08
7.04281e-08
7.00271e-08
6.96194e-08
6.92118e-08
6.88044e-08
6.83955e-08
6.79795e-08
6.75502e-08
6.71153e-08
6.66857e-08
6.62654e-08
6.58487e-08
6.5422e-08
6.49764e-08
6.45177e-08
6.40631e-08
6.36194e-08
6.31832e-08
6.27478e-08
6.22996e-08
6.1836e-08
6.13704e-08
6.09064e-08
6.04407e-08
5.99688e-08
5.94931e-08
5.90228e-08
5.85589e-08
5.80857e-08
5.75952e-08
5.71009e-08
5.66079e-08
5.61175e-08
5.56282e-08
5.51379e-08
5.46417e-08
5.41319e-08
5.3616e-08
5.30983e-08
5.25812e-08
5.20667e-08
5.15476e-08
5.1013e-08
5.04739e-08
4.99287e-08
4.93732e-08
4.88137e-08
4.82446e-08
4.7661e-08
4.70655e-08
4.64434e-08
4.57454e-08
4.50757e-08
4.44433e-08
4.38542e-08
4.33091e-08
4.28135e-08
4.23643e-08
4.19591e-08
4.15975e-08
4.12845e-08
4.10241e-08
4.08133e-08
4.06499e-08
4.05346e-08
4.04686e-08
4.04519e-08
4.04831e-08
4.05614e-08
4.06889e-08
4.08651e-08
4.10805e-08
4.13049e-08
4.151e-08
4.16919e-08
4.18493e-08
4.19811e-08
4.20859e-08
4.21631e-08
4.22159e-08
4.22463e-08
4.2256e-08
4.22445e-08
4.22126e-08
4.21599e-08
4.20872e-08
4.19968e-08
4.18897e-08
4.17668e-08
4.16287e-08
4.14742e-08
4.13048e-08
4.11222e-08
4.0928e-08
4.07221e-08
4.05043e-08
4.02751e-08
4.00355e-08
3.97874e-08
3.95311e-08
3.92664e-08
3.89943e-08
3.8716e-08
3.84322e-08
3.81428e-08
3.78486e-08
3.75503e-08
3.72482e-08
3.69427e-08
3.66345e-08
3.63239e-08
3.60114e-08
3.56976e-08
3.53828e-08
3.5067e-08
3.47505e-08
3.44332e-08
3.41157e-08
3.37983e-08
3.34812e-08
3.31646e-08
3.28487e-08
3.25338e-08
3.222e-08
3.19074e-08
3.15961e-08
3.12861e-08
3.09777e-08
3.06707e-08
3.03654e-08
3.00618e-08
2.97599e-08
2.94597e-08
2.91615e-08
2.88652e-08
2.85709e-08
2.82782e-08
2.79875e-08
2.7699e-08
2.74128e-08
2.71286e-08
2.68467e-08
2.65671e-08
2.62895e-08
2.60137e-08
2.57398e-08
2.54679e-08
2.51982e-08
2.49306e-08
2.46651e-08
2.4402e-08
2.4141e-08
2.38825e-08
2.36265e-08
2.33733e-08
2.31224e-08
2.28739e-08
2.26276e-08
2.23838e-08
2.21416e-08
2.19031e-08
2.16647e-08
2.14276e-08
2.11923e-08
2.09539e-08
2.0719e-08
2.04971e-08
2.0264e-08
2.00405e-08
1.98155e-08
1.95217e-08
1.92674e-08
1.91169e-08
1.88051e-08
1.87607e-08
1.85937e-08
1.87683e-08
1.87172e-08
1.86906e-08
1.85921e-08
1.8498e-08
1.8373e-08
1.82488e-08
1.81161e-08
1.79837e-08
1.78455e-08
1.77063e-08
1.75645e-08
1.74014e-08
1.72513e-08
1.71233e-08
1.69639e-08
1.68635e-08
1.67521e-08
1.67625e-08
1.66776e-08
1.66022e-08
1.65076e-08
1.64071e-08
1.63081e-08
1.62062e-08
1.61025e-08
1.5995e-08
1.58522e-08
1.57246e-08
1.56418e-08
1.54775e-08
1.54149e-08
1.52655e-08
1.47971e-08
1.46349e-08
1.47007e-08
1.42236e-08
1.52434e-08
1.55198e-08
1.87928e-08
2.0092e-08
2.15025e-08
2.24604e-08
2.31838e-08
2.37359e-08
2.41559e-08
2.44719e-08
2.47038e-08
2.48764e-08
2.50072e-08
2.51077e-08
2.51833e-08
2.52382e-08
2.52752e-08
2.52986e-08
2.53119e-08
2.5317e-08
2.53143e-08
2.53051e-08
2.529e-08
2.52699e-08
2.52454e-08
2.52171e-08
2.51856e-08
2.51508e-08
2.51129e-08
2.50721e-08
2.50282e-08
2.49811e-08
2.49306e-08
2.48767e-08
2.48193e-08
2.47584e-08
2.46943e-08
2.46276e-08
2.45589e-08
2.44887e-08
2.44174e-08
2.43454e-08
2.4273e-08
2.42005e-08
2.41283e-08
2.40564e-08
2.39851e-08
2.39139e-08
2.38424e-08
2.37704e-08
2.36973e-08
2.36228e-08
2.35469e-08
2.34696e-08
2.33914e-08
2.33129e-08
2.32347e-08
2.31572e-08
2.308e-08
2.30023e-08
2.29237e-08
2.2845e-08
2.27677e-08
2.26927e-08
2.26196e-08
2.2547e-08
2.24737e-08
2.24006e-08
2.23298e-08
2.22609e-08
2.21922e-08
2.2122e-08
2.20515e-08
2.19821e-08
2.19139e-08
2.18456e-08
2.17761e-08
2.17167e-08
2.16053e-08
2.17214e-08
2.10746e-08
2.13637e-08
1.79368e-08
1.0011e-08
1.00209e-08
1.0045e-08
1.01e-08
1.02135e-08
1.04205e-08
1.07545e-08
1.12179e-08
1.18237e-08
1.26969e-08
1.39641e-08
1.53713e-08
1.62104e-08
1.73656e-08
1.9127e-08
2.16786e-08
2.52907e-08
3.03986e-08
3.72489e-08
4.57323e-08
5.55995e-08
6.63842e-08
7.60026e-08
8.40543e-08
9.35712e-08
1.02885e-07
1.07887e-07
1.05864e-07
9.59366e-08
8.34375e-08
7.16947e-08
6.22975e-08
5.54162e-08
5.07036e-08
4.77773e-08
4.59934e-08
4.47027e-08
4.36077e-08
4.26901e-08
4.19947e-08
4.14538e-08
4.08568e-08
4.00444e-08
3.92007e-08
3.86765e-08
3.85237e-08
3.85411e-08
3.84342e-08
3.80103e-08
3.73347e-08
3.6668e-08
3.61939e-08
3.58643e-08
3.54783e-08
3.49201e-08
3.4237e-08
3.35321e-08
3.28634e-08
3.22928e-08
3.18376e-08
3.15497e-08
3.16299e-08
3.21533e-08
3.29123e-08
3.36049e-08
3.40564e-08
3.43096e-08
3.45341e-08
3.46717e-08
3.4249e-08
3.29926e-08
3.14865e-08
3.0482e-08
3.06593e-08
3.32191e-08
3.85343e-08
4.6585e-08
5.68979e-08
6.27737e-08
6.52642e-08
6.78529e-08
7.15079e-08
7.84982e-08
8.67879e-08
9.02926e-08
9.58418e-08
9.07861e-08
7.77142e-08
5.94399e-08
4.42113e-08
3.16317e-08
2.35366e-08
1.95997e-08
1.79581e-08
1.83485e-08
1.95122e-08
2.2458e-08
2.55823e-08
3.1724e-08
3.84106e-08
4.2122e-08
4.20797e-08
3.77952e-08
3.29637e-08
2.75869e-08
2.29359e-08
2.01765e-08
1.84657e-08
1.70697e-08
1.559e-08
1.50028e-08
1.46977e-08
1.4349e-08
1.43156e-08
1.4732e-08
1.58152e-08
1.94194e-08
2.21673e-08
2.18799e-08
1.9722e-08
1.79621e-08
1.6351e-08
1.53343e-08
1.4825e-08
1.46939e-08
1.45294e-08
1.43984e-08
1.42476e-08
1.41528e-08
1.40998e-08
1.41058e-08
1.41531e-08
1.42106e-08
1.42591e-08
1.43077e-08
1.43626e-08
1.44239e-08
1.44905e-08
1.45604e-08
1.463e-08
1.46937e-08
1.47488e-08
1.47994e-08
1.48554e-08
1.49174e-08
1.49727e-08
1.50187e-08
1.50686e-08
1.51341e-08
1.52111e-08
1.52801e-08
1.53296e-08
1.53718e-08
1.54263e-08
1.54968e-08
1.55701e-08
1.56308e-08
1.56809e-08
1.57354e-08
1.57931e-08
1.58411e-08
1.58785e-08
1.59225e-08
1.59784e-08
1.60222e-08
1.60418e-08
1.60644e-08
1.61127e-08
1.61546e-08
1.61595e-08
1.61496e-08
1.616e-08
1.61908e-08
1.62075e-08
1.6176e-08
1.61254e-08
1.60981e-08
1.60877e-08
1.60644e-08
1.60108e-08
1.59449e-08
1.58945e-08
1.58488e-08
1.57513e-08
1.562e-08
1.55244e-08
1.5457e-08
1.53762e-08
1.52643e-08
1.51329e-08
1.49976e-08
1.48695e-08
1.47648e-08
1.46473e-08
1.45181e-08
1.43815e-08
1.42285e-08
1.40721e-08
1.39335e-08
1.38253e-08
1.37233e-08
1.35998e-08
1.34529e-08
1.33005e-08
1.31724e-08
1.30663e-08
1.29633e-08
1.28529e-08
1.27301e-08
1.26102e-08
1.25163e-08
1.24373e-08
1.23386e-08
1.22177e-08
1.21088e-08
1.20239e-08
1.19599e-08
1.18975e-08
1.18194e-08
1.17277e-08
1.16363e-08
1.15635e-08
1.15082e-08
1.14625e-08
1.1411e-08
1.13515e-08
1.12924e-08
1.12379e-08
1.11915e-08
1.11575e-08
1.11305e-08
1.10972e-08
1.10594e-08
1.10266e-08
1.0998e-08
1.09758e-08
1.09601e-08
1.09463e-08
1.09291e-08
1.09124e-08
1.09016e-08
1.08912e-08
1.08804e-08
1.08695e-08
1.08621e-08
1.08586e-08
1.0859e-08
1.08559e-08
1.08467e-08
1.08415e-08
1.08402e-08
1.08393e-08
1.08385e-08
1.08365e-08
1.08342e-08
1.08317e-08
1.08287e-08
1.08259e-08
1.08237e-08
1.08215e-08
1.08184e-08
1.0815e-08
1.08119e-08
1.08101e-08
1.08086e-08
1.08062e-08
1.08024e-08
1.07975e-08
1.07927e-08
1.07891e-08
1.07865e-08
1.07845e-08
1.07819e-08
1.07778e-08
1.07722e-08
1.07664e-08
1.07615e-08
1.07573e-08
1.07528e-08
1.07481e-08
1.07441e-08
1.07403e-08
1.07349e-08
1.07284e-08
1.07217e-08
1.07158e-08
1.07109e-08
1.0707e-08
1.07026e-08
1.06968e-08
1.06897e-08
1.06825e-08
1.06763e-08
1.06716e-08
1.06669e-08
1.06611e-08
1.06546e-08
1.06476e-08
1.06407e-08
1.06348e-08
1.0629e-08
1.06225e-08
1.0615e-08
1.06074e-08
1.06007e-08
1.05941e-08
1.05864e-08
1.05777e-08
1.057e-08
1.05631e-08
1.05559e-08
1.0548e-08
1.05394e-08
1.05309e-08
1.05229e-08
1.05152e-08
1.0507e-08
1.04984e-08
1.04901e-08
1.04821e-08
1.04743e-08
1.04656e-08
1.04561e-08
1.0447e-08
1.04377e-08
1.04278e-08
1.04174e-08
1.04073e-08
1.03979e-08
1.03888e-08
1.038e-08
1.03712e-08
1.03622e-08
1.03535e-08
1.03453e-08
1.03374e-08
1.03302e-08
1.03234e-08
1.03167e-08
1.031e-08
1.03038e-08
1.02985e-08
1.02939e-08
1.02896e-08
1.02854e-08
1.02812e-08
1.02775e-08
1.02747e-08
1.02726e-08
1.02705e-08
1.02684e-08
1.02668e-08
1.02659e-08
1.02654e-08
1.02648e-08
1.02641e-08
1.02637e-08
1.02637e-08
1.02637e-08
1.02634e-08
1.02633e-08
1.02631e-08
1.0263e-08
1.02629e-08
1.02626e-08
1.0262e-08
1.02616e-08
1.02613e-08
1.02609e-08
1.02605e-08
1.02598e-08
1.02584e-08
1.02569e-08
1.02555e-08
1.0254e-08
1.02521e-08
1.025e-08
1.02477e-08
1.02453e-08
1.02427e-08
1.02396e-08
1.0236e-08
1.02324e-08
1.0229e-08
1.02255e-08
1.02218e-08
1.02179e-08
1.02138e-08
1.02095e-08
1.02054e-08
1.02015e-08
1.01972e-08
1.01926e-08
1.01885e-08
1.01843e-08
1.01799e-08
1.01756e-08
1.01716e-08
1.01675e-08
1.01632e-08
1.01587e-08
1.01543e-08
1.01499e-08
1.01458e-08
1.01413e-08
1.01375e-08
1.01327e-08
1.01283e-08
1.01236e-08
1.01189e-08
1.01148e-08
1.01104e-08
1.01076e-08
1.01033e-08
1.01008e-08
1.00983e-08
1.0092e-08
1.00892e-08
1.00904e-08
1.00842e-08
1.00921e-08
1.00942e-08
1.00874e-08
1.00972e-08
1.01057e-08
1.00903e-08
1.01628e-08
1.01697e-08
1.01156e-08
1.00871e-08
1.00911e-08
1.00884e-08
1.00644e-08
1.00555e-08
1.00465e-08
1.00397e-08
1.00375e-08
1.00368e-08
1.0041e-08
1.00435e-08
1.00499e-08
1.00552e-08
1.00619e-08
1.00593e-08
1.00935e-08
1.00969e-08
1.0069e-08
1.00566e-08
1.00573e-08
1.00548e-08
1.00425e-08
1.00384e-08
1.00423e-08
1.00382e-08
1.0032e-08
1.00308e-08
1.00264e-08
1.00285e-08
1.00316e-08
1.00982e-08
1.01039e-08
1.01506e-08
1.01847e-08
1.02468e-08
1.02502e-08
1.03215e-08
1.03756e-08
1.03751e-08
1.03596e-08
1.04235e-08
1.04133e-08
1.0314e-08
1.02354e-08
1.01847e-08
1.015e-08
1.01267e-08
1.01108e-08
1.00998e-08
1.00929e-08
1.00892e-08
1.00877e-08
1.00877e-08
1.00895e-08
1.00931e-08
1.00967e-08
1.00998e-08
1.01035e-08
1.01058e-08
1.01077e-08
1.01094e-08
1.01121e-08
1.01138e-08
1.01151e-08
1.01163e-08
1.01171e-08
1.0118e-08
1.01187e-08
1.01192e-08
1.01197e-08
1.01197e-08
1.01195e-08
1.01182e-08
1.01176e-08
1.01173e-08
1.01169e-08
1.01167e-08
1.01167e-08
1.01164e-08
1.01161e-08
1.01161e-08
1.0116e-08
1.0116e-08
1.01159e-08
1.01156e-08
1.01163e-08
1.01158e-08
1.01151e-08
1.01143e-08
1.01132e-08
1.01121e-08
1.01111e-08
1.01103e-08
1.01099e-08
1.01098e-08
1.01097e-08
1.0109e-08
1.01078e-08
1.01063e-08
1.01057e-08
1.0106e-08
1.01066e-08
1.01064e-08
1.01049e-08
1.01034e-08
1.0103e-08
1.01033e-08
1.01032e-08
1.01014e-08
1.00998e-08
1.00994e-08
1.00996e-08
1.00976e-08
1.0096e-08
1.00945e-08
1.0105e-08
1.01007e-08
1.01457e-08
1.0162e-08
1.02333e-08
1.01231e-08
1.00061e-08
1.00102e-08
1.00205e-08
1.00449e-08
1.00978e-08
1.01998e-08
1.03778e-08
1.06573e-08
1.10497e-08
1.15272e-08
1.20146e-08
1.24424e-08
1.29446e-08
1.37707e-08
1.51369e-08
1.73313e-08
2.0828e-08
2.63628e-08
3.43051e-08
4.41567e-08
5.47533e-08
6.43382e-08
7.1531e-08
7.53726e-08
7.61382e-08
7.38636e-08
6.77934e-08
5.96081e-08
5.11188e-08
4.33933e-08
3.71344e-08
3.2482e-08
2.88565e-08
2.61195e-08
2.41847e-08
2.29233e-08
2.20894e-08
2.14195e-08
2.07797e-08
2.02911e-08
1.99179e-08
1.94925e-08
1.90292e-08
1.85808e-08
1.82408e-08
1.80461e-08
1.79461e-08
1.78345e-08
1.76377e-08
1.73587e-08
1.70755e-08
1.68588e-08
1.67058e-08
1.65596e-08
1.63629e-08
1.61073e-08
1.58375e-08
1.55841e-08
1.53614e-08
1.517e-08
1.5039e-08
1.50171e-08
1.51121e-08
1.52823e-08
1.54674e-08
1.56356e-08
1.58101e-08
1.60174e-08
1.61978e-08
1.62419e-08
1.61314e-08
1.59895e-08
1.5984e-08
1.63042e-08
1.70588e-08
1.8364e-08
2.0295e-08
2.34106e-08
2.74459e-08
3.04981e-08
3.43769e-08
3.79275e-08
4.10394e-08
4.56197e-08
5.11548e-08
5.75377e-08
6.04813e-08
5.76667e-08
4.96271e-08
4.02419e-08
3.08204e-08
2.35225e-08
1.85149e-08
1.51629e-08
1.3175e-08
1.22142e-08
1.20417e-08
1.2436e-08
1.35802e-08
1.59492e-08
1.81584e-08
1.97004e-08
1.99413e-08
1.91461e-08
1.74219e-08
1.53419e-08
1.3607e-08
1.25107e-08
1.16703e-08
1.11228e-08
1.08261e-08
1.0649e-08
1.05493e-08
1.04984e-08
1.04825e-08
1.0499e-08
1.06699e-08
1.11304e-08
1.13212e-08
1.14306e-08
1.13889e-08
1.11988e-08
1.09608e-08
1.0787e-08
1.06638e-08
1.05706e-08
1.05048e-08
1.04697e-08
1.04458e-08
1.04336e-08
1.04322e-08
1.04323e-08
1.04338e-08
1.04382e-08
1.04456e-08
1.0454e-08
1.04622e-08
1.04709e-08
1.04791e-08
1.04876e-08
1.04965e-08
1.05049e-08
1.05128e-08
1.0521e-08
1.0529e-08
1.05355e-08
1.05411e-08
1.05479e-08
1.05571e-08
1.05672e-08
1.05751e-08
1.05803e-08
1.05851e-08
1.05925e-08
1.06019e-08
1.06107e-08
1.06171e-08
1.06227e-08
1.063e-08
1.06379e-08
1.06436e-08
1.06471e-08
1.06518e-08
1.06585e-08
1.06632e-08
1.06638e-08
1.06653e-08
1.06712e-08
1.06757e-08
1.0674e-08
1.06699e-08
1.06691e-08
1.06713e-08
1.06705e-08
1.06623e-08
1.06507e-08
1.06424e-08
1.06362e-08
1.06276e-08
1.06152e-08
1.06019e-08
1.05901e-08
1.05776e-08
1.05581e-08
1.05349e-08
1.05162e-08
1.05015e-08
1.04866e-08
1.04686e-08
1.04481e-08
1.04267e-08
1.04062e-08
1.03887e-08
1.03712e-08
1.03541e-08
1.03367e-08
1.03176e-08
1.02982e-08
1.02814e-08
1.02684e-08
1.02565e-08
1.0243e-08
1.0228e-08
1.02134e-08
1.02012e-08
1.01911e-08
1.01815e-08
1.01717e-08
1.01616e-08
1.01525e-08
1.01452e-08
1.01389e-08
1.01316e-08
1.01237e-08
1.01169e-08
1.01116e-08
1.01075e-08
1.01037e-08
1.00995e-08
1.00947e-08
1.00902e-08
1.00866e-08
1.00839e-08
1.00818e-08
1.00796e-08
1.00772e-08
1.00748e-08
1.00727e-08
1.00709e-08
1.00697e-08
1.00687e-08
1.00675e-08
1.00663e-08
1.00651e-08
1.00642e-08
1.00636e-08
1.00633e-08
1.00631e-08
1.00627e-08
1.00622e-08
1.00619e-08
1.00616e-08
1.00613e-08
1.00612e-08
1.00611e-08
1.00611e-08
1.00613e-08
1.00615e-08
1.00613e-08
1.00612e-08
1.00612e-08
1.00614e-08
1.00616e-08
1.00617e-08
1.00617e-08
1.00617e-08
1.00617e-08
1.00618e-08
1.00618e-08
1.00619e-08
1.00617e-08
1.00615e-08
1.00614e-08
1.00614e-08
1.00615e-08
1.00615e-08
1.00615e-08
1.00612e-08
1.00609e-08
1.00607e-08
1.00607e-08
1.00607e-08
1.00605e-08
1.00602e-08
1.00599e-08
1.00597e-08
1.00593e-08
1.0059e-08
1.00587e-08
1.00585e-08
1.00583e-08
1.00581e-08
1.00577e-08
1.00573e-08
1.00568e-08
1.00565e-08
1.00562e-08
1.00559e-08
1.00557e-08
1.00553e-08
1.00548e-08
1.00544e-08
1.00541e-08
1.00538e-08
1.00535e-08
1.00531e-08
1.00527e-08
1.00524e-08
1.0052e-08
1.00516e-08
1.00513e-08
1.00509e-08
1.00506e-08
1.00501e-08
1.00497e-08
1.00494e-08
1.00489e-08
1.00485e-08
1.00482e-08
1.00479e-08
1.00475e-08
1.00471e-08
1.00467e-08
1.00463e-08
1.00459e-08
1.00454e-08
1.00451e-08
1.00447e-08
1.00443e-08
1.0044e-08
1.00437e-08
1.00432e-08
1.00428e-08
1.00425e-08
1.00422e-08
1.00419e-08
1.00415e-08
1.00411e-08
1.00408e-08
1.00405e-08
1.00402e-08
1.00399e-08
1.00396e-08
1.00393e-08
1.0039e-08
1.00388e-08
1.00386e-08
1.00383e-08
1.00381e-08
1.00378e-08
1.00376e-08
1.00374e-08
1.00373e-08
1.00371e-08
1.0037e-08
1.00368e-08
1.00366e-08
1.00365e-08
1.00364e-08
1.00363e-08
1.00362e-08
1.0036e-08
1.0036e-08
1.00359e-08
1.00358e-08
1.00356e-08
1.00356e-08
1.00355e-08
1.00353e-08
1.00352e-08
1.00351e-08
1.0035e-08
1.00349e-08
1.00347e-08
1.00346e-08
1.00345e-08
1.00343e-08
1.00341e-08
1.0034e-08
1.0034e-08
1.00339e-08
1.00339e-08
1.00338e-08
1.00338e-08
1.00339e-08
1.00338e-08
1.00338e-08
1.00338e-08
1.00336e-08
1.00336e-08
1.00335e-08
1.00334e-08
1.00332e-08
1.00331e-08
1.0033e-08
1.00328e-08
1.00326e-08
1.00325e-08
1.00323e-08
1.00322e-08
1.0032e-08
1.00318e-08
1.00316e-08
1.00314e-08
1.00313e-08
1.00311e-08
1.0031e-08
1.00308e-08
1.00306e-08
1.00304e-08
1.00302e-08
1.003e-08
1.00299e-08
1.00297e-08
1.00295e-08
1.00294e-08
1.00292e-08
1.0029e-08
1.00289e-08
1.00286e-08
1.00285e-08
1.00283e-08
1.00282e-08
1.00282e-08
1.0028e-08
1.00281e-08
1.0028e-08
1.00279e-08
1.0028e-08
1.00282e-08
1.00283e-08
1.00283e-08
1.00279e-08
1.00271e-08
1.00271e-08
1.00279e-08
1.00291e-08
1.00298e-08
1.00296e-08
1.00301e-08
1.00302e-08
1.0029e-08
1.00279e-08
1.00272e-08
1.00267e-08
1.00267e-08
1.00263e-08
1.00263e-08
1.00262e-08
1.00261e-08
1.00259e-08
1.00255e-08
1.00256e-08
1.00263e-08
1.00269e-08
1.00271e-08
1.00268e-08
1.00271e-08
1.00269e-08
1.00264e-08
1.00259e-08
1.00253e-08
1.0025e-08
1.00251e-08
1.00246e-08
1.00246e-08
1.00249e-08
1.00252e-08
1.00255e-08
1.00267e-08
1.00292e-08
1.00306e-08
1.00345e-08
1.00351e-08
1.0036e-08
1.00416e-08
1.00493e-08
1.00543e-08
1.0064e-08
1.0062e-08
1.00503e-08
1.00401e-08
1.00336e-08
1.00296e-08
1.0027e-08
1.00252e-08
1.00239e-08
1.00228e-08
1.0022e-08
1.00214e-08
1.00208e-08
1.00203e-08
1.002e-08
1.00198e-08
1.00197e-08
1.00198e-08
1.002e-08
1.00201e-08
1.00202e-08
1.00203e-08
1.00204e-08
1.00206e-08
1.00207e-08
1.00209e-08
1.0021e-08
1.00211e-08
1.00212e-08
1.00213e-08
1.00214e-08
1.00214e-08
1.00214e-08
1.00213e-08
1.00213e-08
1.00213e-08
1.00213e-08
1.00215e-08
1.00216e-08
1.00217e-08
1.00219e-08
1.00219e-08
1.00219e-08
1.00218e-08
1.00218e-08
1.00218e-08
1.00218e-08
1.00218e-08
1.00217e-08
1.00217e-08
1.00217e-08
1.00217e-08
1.00216e-08
1.00217e-08
1.00217e-08
1.00217e-08
1.00215e-08
1.00213e-08
1.00211e-08
1.00209e-08
1.00209e-08
1.00209e-08
1.00211e-08
1.00211e-08
1.0021e-08
1.00208e-08
1.00207e-08
1.00209e-08
1.0021e-08
1.00207e-08
1.00204e-08
1.00205e-08
1.00205e-08
1.00205e-08
1.00203e-08
1.00203e-08
1.00206e-08
1.00212e-08
1.00229e-08
1.00242e-08
1.0025e-08
1.00178e-08
1.00052e-08
1.00075e-08
1.00126e-08
1.00244e-08
1.00495e-08
1.00971e-08
1.01786e-08
1.03045e-08
1.04775e-08
1.06819e-08
1.08806e-08
1.10453e-08
1.12402e-08
1.1565e-08
1.21199e-08
1.3051e-08
1.46073e-08
1.71092e-08
2.04284e-08
2.41469e-08
2.78702e-08
3.11567e-08
3.3702e-08
3.54445e-08
3.53733e-08
3.3065e-08
2.9215e-08
2.50834e-08
2.1954e-08
1.97316e-08
1.80446e-08
1.67421e-08
1.57271e-08
1.49487e-08
1.43813e-08
1.40031e-08
1.37656e-08
1.35982e-08
1.34418e-08
1.32738e-08
1.30988e-08
1.29219e-08
1.27525e-08
1.25987e-08
1.24703e-08
1.23744e-08
1.23037e-08
1.22396e-08
1.21683e-08
1.20892e-08
1.20118e-08
1.19475e-08
1.18985e-08
1.18555e-08
1.18058e-08
1.17436e-08
1.16692e-08
1.15874e-08
1.15055e-08
1.14318e-08
1.1377e-08
1.13503e-08
1.13529e-08
1.13764e-08
1.14128e-08
1.14672e-08
1.1549e-08
1.16548e-08
1.17634e-08
1.18461e-08
1.18913e-08
1.19207e-08
1.19813e-08
1.21022e-08
1.2333e-08
1.2726e-08
1.32469e-08
1.39089e-08
1.47989e-08
1.59231e-08
1.7688e-08
2.01866e-08
2.27502e-08
2.64482e-08
3.03838e-08
3.39921e-08
3.75044e-08
3.93581e-08
3.85906e-08
3.5389e-08
3.05847e-08
2.54528e-08
2.09239e-08
1.74206e-08
1.49512e-08
1.32876e-08
1.21883e-08
1.15118e-08
1.11961e-08
1.12776e-08
1.15981e-08
1.20419e-08
1.2501e-08
1.26848e-08
1.25807e-08
1.22242e-08
1.17673e-08
1.13815e-08
1.10482e-08
1.08175e-08
1.06754e-08
1.05653e-08
1.04348e-08
1.03153e-08
1.02326e-08
1.0185e-08
1.01504e-08
1.01378e-08
1.01353e-08
1.01511e-08
1.01811e-08
1.01847e-08
1.01849e-08
1.0181e-08
1.01677e-08
1.01532e-08
1.01402e-08
1.01269e-08
1.01138e-08
1.01033e-08
1.00962e-08
1.00911e-08
1.00879e-08
1.00862e-08
1.00854e-08
1.00853e-08
1.00856e-08
1.00864e-08
1.00873e-08
1.00883e-08
1.00892e-08
1.00901e-08
1.0091e-08
1.0092e-08
1.0093e-08
1.00938e-08
1.00946e-08
1.00955e-08
1.00967e-08
1.00979e-08
1.00989e-08
1.00996e-08
1.01003e-08
1.01014e-08
1.01026e-08
1.01038e-08
1.01046e-08
1.01053e-08
1.01063e-08
1.01074e-08
1.01083e-08
1.01088e-08
1.01094e-08
1.01102e-08
1.01107e-08
1.01107e-08
1.01108e-08
1.01113e-08
1.01117e-08
1.01112e-08
1.01103e-08
1.01099e-08
1.01097e-08
1.01093e-08
1.0108e-08
1.01062e-08
1.01047e-08
1.01033e-08
1.01018e-08
1.00999e-08
1.00979e-08
1.00959e-08
1.00938e-08
1.00909e-08
1.00878e-08
1.00851e-08
1.00828e-08
1.00807e-08
1.00784e-08
1.00758e-08
1.00732e-08
1.00705e-08
1.00682e-08
1.00661e-08
1.00641e-08
1.00622e-08
1.00602e-08
1.00581e-08
1.00564e-08
1.0055e-08
1.00538e-08
1.00525e-08
1.00511e-08
1.00498e-08
1.00487e-08
1.00477e-08
1.00469e-08
1.00461e-08
1.00453e-08
1.00445e-08
1.00439e-08
1.00433e-08
1.00427e-08
1.00421e-08
1.00416e-08
1.00411e-08
1.00408e-08
1.00405e-08
1.00401e-08
1.00398e-08
1.00394e-08
1.00391e-08
1.00389e-08
1.00387e-08
1.00384e-08
1.00382e-08
1.0038e-08
1.00378e-08
1.00376e-08
1.00374e-08
1.00373e-08
1.00372e-08
1.00371e-08
1.00369e-08
1.00367e-08
1.00367e-08
1.00365e-08
1.00364e-08
1.00363e-08
1.00363e-08
1.00361e-08
1.0036e-08
1.00359e-08
1.00358e-08
1.00357e-08
1.00356e-08
1.00355e-08
1.00355e-08
1.00354e-08
1.00353e-08
1.00352e-08
1.00352e-08
1.00351e-08
1.00351e-08
1.0035e-08
1.0035e-08
1.00349e-08
1.00348e-08
1.00348e-08
1.00347e-08
1.00346e-08
1.00346e-08
1.00345e-08
1.00345e-08
1.00344e-08
1.00344e-08
1.00343e-08
1.00343e-08
1.00342e-08
1.00341e-08
1.00341e-08
1.0034e-08
1.00339e-08
1.00339e-08
1.00338e-08
1.00337e-08
1.00337e-08
1.00336e-08
1.00335e-08
1.00334e-08
1.00333e-08
1.00333e-08
1.00332e-08
1.00331e-08
1.00331e-08
1.0033e-08
1.00329e-08
1.00328e-08
1.00328e-08
1.00327e-08
1.00326e-08
1.00326e-08
1.00325e-08
1.00324e-08
1.00323e-08
1.00322e-08
1.00322e-08
1.00321e-08
1.0032e-08
1.00319e-08
1.00318e-08
1.00317e-08
1.00316e-08
1.00315e-08
1.00314e-08
1.00313e-08
1.00312e-08
1.00311e-08
1.00311e-08
1.0031e-08
1.00309e-08
1.00308e-08
1.00307e-08
1.00306e-08
1.00306e-08
1.00305e-08
1.00304e-08
1.00302e-08
1.00302e-08
1.00301e-08
1.003e-08
1.00299e-08
1.00298e-08
1.00297e-08
1.00297e-08
1.00296e-08
1.00295e-08
1.00294e-08
1.00293e-08
1.00292e-08
1.00291e-08
1.0029e-08
1.0029e-08
1.00289e-08
1.00288e-08
1.00288e-08
1.00287e-08
1.00286e-08
1.00286e-08
1.00285e-08
1.00284e-08
1.00284e-08
1.00283e-08
1.00282e-08
1.00281e-08
1.00281e-08
1.0028e-08
1.00279e-08
1.00278e-08
1.00278e-08
1.00277e-08
1.00276e-08
1.00275e-08
1.00274e-08
1.00273e-08
1.00273e-08
1.00272e-08
1.00271e-08
1.00271e-08
1.0027e-08
1.0027e-08
1.00269e-08
1.00269e-08
1.00268e-08
1.00267e-08
1.00266e-08
1.00266e-08
1.00265e-08
1.00264e-08
1.00264e-08
1.00263e-08
1.00262e-08
1.00261e-08
1.0026e-08
1.0026e-08
1.0026e-08
1.0026e-08
1.00259e-08
1.00258e-08
1.00258e-08
1.00257e-08
1.00256e-08
1.00256e-08
1.00255e-08
1.00255e-08
1.00254e-08
1.00253e-08
1.00253e-08
1.00252e-08
1.00251e-08
1.0025e-08
1.0025e-08
1.00249e-08
1.00248e-08
1.00248e-08
1.00247e-08
1.00247e-08
1.00246e-08
1.00245e-08
1.00244e-08
1.00243e-08
1.00243e-08
1.00242e-08
1.00241e-08
1.00241e-08
1.0024e-08
1.00239e-08
1.00238e-08
1.00238e-08
1.00237e-08
1.00237e-08
1.00236e-08
1.00238e-08
1.00238e-08
1.0024e-08
1.00241e-08
1.00242e-08
1.00241e-08
1.00241e-08
1.00239e-08
1.00234e-08
1.00233e-08
1.00236e-08
1.00238e-08
1.00238e-08
1.00238e-08
1.00238e-08
1.00238e-08
1.00234e-08
1.00229e-08
1.00232e-08
1.00233e-08
1.00233e-08
1.00232e-08
1.00231e-08
1.0023e-08
1.00229e-08
1.00228e-08
1.00227e-08
1.00226e-08
1.00227e-08
1.00226e-08
1.00226e-08
1.00226e-08
1.00226e-08
1.00225e-08
1.00224e-08
1.00222e-08
1.0022e-08
1.0022e-08
1.00222e-08
1.00221e-08
1.00228e-08
1.00221e-08
1.00213e-08
1.00221e-08
1.00226e-08
1.00252e-08
1.00266e-08
1.00295e-08
1.00294e-08
1.00271e-08
1.00263e-08
1.0026e-08
1.00257e-08
1.00255e-08
1.00253e-08
1.00247e-08
1.00246e-08
1.0024e-08
1.0023e-08
1.00223e-08
1.00216e-08
1.0021e-08
1.00205e-08
1.002e-08
1.00195e-08
1.00192e-08
1.00189e-08
1.00186e-08
1.00182e-08
1.0018e-08
1.00178e-08
1.00177e-08
1.00176e-08
1.00177e-08
1.00177e-08
1.00177e-08
1.00177e-08
1.00177e-08
1.00177e-08
1.00178e-08
1.00178e-08
1.00179e-08
1.00181e-08
1.00182e-08
1.00183e-08
1.00184e-08
1.00184e-08
1.00184e-08
1.00183e-08
1.00182e-08
1.00182e-08
1.00182e-08
1.00182e-08
1.00183e-08
1.00184e-08
1.00185e-08
1.00186e-08
1.00186e-08
1.00187e-08
1.00187e-08
1.00187e-08
1.00187e-08
1.00187e-08
1.00187e-08
1.00186e-08
1.00185e-08
1.00185e-08
1.00185e-08
1.00186e-08
1.00186e-08
1.00186e-08
1.00185e-08
1.00183e-08
1.00181e-08
1.0018e-08
1.00179e-08
1.00179e-08
1.0018e-08
1.00181e-08
1.00181e-08
1.00179e-08
1.00178e-08
1.0018e-08
1.00181e-08
1.00181e-08
1.00177e-08
1.00176e-08
1.00176e-08
1.00176e-08
1.00176e-08
1.00175e-08
1.00175e-08
1.00179e-08
1.00183e-08
1.00192e-08
1.002e-08
1.00204e-08
1.00151e-08
1.0005e-08
1.00064e-08
1.00093e-08
1.00156e-08
1.00286e-08
1.00524e-08
1.00918e-08
1.01505e-08
1.02287e-08
1.0318e-08
1.04007e-08
1.04618e-08
1.05227e-08
1.0615e-08
1.0765e-08
1.101e-08
1.14176e-08
1.20496e-08
1.28287e-08
1.36391e-08
1.43656e-08
1.49107e-08
1.52089e-08
1.52326e-08
1.50113e-08
1.46047e-08
1.40867e-08
1.35428e-08
1.3043e-08
1.26155e-08
1.22607e-08
1.19691e-08
1.17323e-08
1.15445e-08
1.1402e-08
1.13018e-08
1.12342e-08
1.11845e-08
1.1137e-08
1.10848e-08
1.10303e-08
1.09754e-08
1.09226e-08
1.08748e-08
1.08328e-08
1.0797e-08
1.07664e-08
1.07392e-08
1.07135e-08
1.0689e-08
1.06665e-08
1.06462e-08
1.06284e-08
1.06128e-08
1.05975e-08
1.05803e-08
1.05597e-08
1.05354e-08
1.05087e-08
1.04823e-08
1.04598e-08
1.04438e-08
1.04352e-08
1.04334e-08
1.04382e-08
1.04515e-08
1.04761e-08
1.05112e-08
1.05527e-08
1.05941e-08
1.06304e-08
1.0662e-08
1.06963e-08
1.07448e-08
1.08206e-08
1.09428e-08
1.11136e-08
1.13201e-08
1.15576e-08
1.18598e-08
1.2293e-08
1.29764e-08
1.4007e-08
1.57735e-08
1.82861e-08
2.08713e-08
2.36546e-08
2.62323e-08
2.74646e-08
2.72644e-08
2.59697e-08
2.3654e-08
2.08018e-08
1.80897e-08
1.58389e-08
1.41598e-08
1.29758e-08
1.21543e-08
1.15785e-08
1.1173e-08
1.0907e-08
1.07604e-08
1.0713e-08
1.06944e-08
1.06878e-08
1.06642e-08
1.06029e-08
1.05336e-08
1.04647e-08
1.04114e-08
1.03777e-08
1.03587e-08
1.03653e-08
1.03878e-08
1.03871e-08
1.03321e-08
1.02527e-08
1.01869e-08
1.01462e-08
1.01106e-08
1.00876e-08
1.00749e-08
1.00694e-08
1.00695e-08
1.00698e-08
1.00707e-08
1.00717e-08
1.00717e-08
1.00725e-08
1.0074e-08
1.00733e-08
1.00701e-08
1.0066e-08
1.00621e-08
1.00585e-08
1.00559e-08
1.00542e-08
1.00529e-08
1.00519e-08
1.00512e-08
1.00508e-08
1.00505e-08
1.00504e-08
1.00503e-08
1.00503e-08
1.00503e-08
1.00503e-08
1.00503e-08
1.00503e-08
1.00504e-08
1.00504e-08
1.00505e-08
1.00505e-08
1.00506e-08
1.00508e-08
1.00509e-08
1.00509e-08
1.0051e-08
1.00511e-08
1.00512e-08
1.00513e-08
1.00513e-08
1.00514e-08
1.00514e-08
1.00514e-08
1.00513e-08
1.00513e-08
1.00512e-08
1.00512e-08
1.0051e-08
1.00508e-08
1.00506e-08
1.00504e-08
1.00502e-08
1.00499e-08
1.00496e-08
1.00493e-08
1.0049e-08
1.00487e-08
1.00483e-08
1.0048e-08
1.00476e-08
1.00472e-08
1.00468e-08
1.00463e-08
1.00459e-08
1.00455e-08
1.00451e-08
1.00448e-08
1.00444e-08
1.0044e-08
1.00437e-08
1.00433e-08
1.00429e-08
1.00426e-08
1.00423e-08
1.0042e-08
1.00417e-08
1.00415e-08
1.00412e-08
1.0041e-08
1.00408e-08
1.00406e-08
1.00404e-08
1.00402e-08
1.00399e-08
1.00397e-08
1.00396e-08
1.00394e-08
1.00392e-08
1.0039e-08
1.00388e-08
1.00387e-08
1.00386e-08
1.00384e-08
1.00382e-08
1.0038e-08
1.00379e-08
1.00378e-08
1.00376e-08
1.00375e-08
1.00374e-08
1.00373e-08
1.00371e-08
1.0037e-08
1.00369e-08
1.00368e-08
1.00367e-08
1.00366e-08
1.00364e-08
1.00363e-08
1.00362e-08
1.00361e-08
1.0036e-08
1.0036e-08
1.00359e-08
1.00358e-08
1.00357e-08
1.00356e-08
1.00356e-08
1.00355e-08
1.00353e-08
1.00352e-08
1.00352e-08
1.00351e-08
1.0035e-08
1.00349e-08
1.00348e-08
1.00347e-08
1.00346e-08
1.00345e-08