/*--------------------------------*- C++ -*----------------------------------*\
| =========                 |                                                 |
| \\      /  F ield         | OpenFOAM: The Open Source CFD Toolbox           |
|  \\    /   O peration     | Version:  v2006                                 |
|   \\  /    A nd           | Website:  www.openfoam.com                      |
|    \\/     M anipulation  |                                                 |
\*---------------------------------------------------------------------------*/
FoamFile
{
    version     2.0;
    format      ascii;
    class       volScalarField;
    location    "5.3";
    object      nut;
}
// * * * * * * * * * * * * * * * * * * * * * * * * * * * * * * * * * * * * * //

dimensions      [0 2 -1 0 0 0 0];


internalField   nonuniform List<scalar> 
33000
(
7.53682e-10
5.22793e-10
6.57814e-10
6.64377e-10
7.2297e-10
7.69682e-10
8.33957e-10
8.84734e-10
9.3557e-10
9.85554e-10
1.01573e-09
1.01842e-09
1.05703e-09
1.21305e-09
1.46304e-09
1.70874e-09
1.98042e-09
2.34772e-09
2.86677e-09
3.61332e-09
4.57354e-09
5.17196e-09
4.93032e-09
5.14923e-09
6.95333e-09
1.12767e-08
2.13716e-08
4.55887e-08
9.35388e-08
1.95445e-07
2.27088e-07
2.32805e-07
1.32527e-07
9.45909e-08
7.88994e-08
7.43045e-08
7.16989e-08
6.51733e-08
5.61729e-08
4.92043e-08
4.60914e-08
4.52109e-08
4.25664e-08
3.69151e-08
3.17436e-08
2.84453e-08
2.70615e-08
2.67959e-08
2.62811e-08
2.4832e-08
2.26578e-08
2.07521e-08
1.96838e-08
1.91467e-08
1.86378e-08
1.78797e-08
1.70301e-08
1.6228e-08
1.55618e-08
1.50684e-08
1.44289e-08
1.36168e-08
1.30495e-08
1.28685e-08
1.28506e-08
1.27537e-08
1.24156e-08
1.19975e-08
1.17301e-08
1.15357e-08
1.12746e-08
1.08774e-08
1.04104e-08
9.91356e-09
9.33828e-09
8.82608e-09
7.98104e-09
8.08907e-09
9.78433e-09
9.28157e-09
9.24258e-09
9.33186e-09
9.01905e-09
1.02992e-08
1.10934e-08
1.22276e-08
1.37929e-08
1.4756e-08
1.46889e-08
1.49129e-08
1.57459e-08
1.58743e-08
1.60915e-08
1.61494e-08
1.57649e-08
1.51794e-08
1.44147e-08
1.31813e-08
1.20097e-08
1.30223e-08
1.63351e-08
2.57533e-08
3.22513e-08
2.85764e-08
4.03788e-08
5.63759e-08
1.13838e-07
1.25404e-07
1.26193e-07
9.36158e-08
5.78097e-08
5.2448e-08
4.70021e-08
4.68718e-08
4.66592e-08
4.17564e-08
3.74538e-08
4.29076e-08
6.03794e-08
6.13887e-08
4.4993e-08
4.08855e-08
4.20445e-08
4.01181e-08
4.25007e-08
4.09179e-08
3.61076e-08
3.29823e-08
3.10883e-08
2.92697e-08
2.82751e-08
2.71769e-08
2.5914e-08
2.46781e-08
2.35774e-08
2.26158e-08
2.17004e-08
2.08726e-08
2.01138e-08
1.93856e-08
1.87171e-08
1.81001e-08
1.75395e-08
1.70122e-08
1.65264e-08
1.60905e-08
1.56889e-08
1.53074e-08
1.49449e-08
1.46081e-08
1.43021e-08
1.40292e-08
1.37773e-08
1.35314e-08
1.32997e-08
1.3089e-08
1.28973e-08
1.27202e-08
1.25547e-08
1.24007e-08
1.22598e-08
1.21317e-08
1.2014e-08
1.19063e-08
1.1815e-08
1.17383e-08
1.16669e-08
1.16024e-08
1.15542e-08
1.15214e-08
1.14953e-08
1.14748e-08
1.14666e-08
1.14786e-08
1.15091e-08
1.15489e-08
1.15994e-08
1.16701e-08
1.17663e-08
1.18862e-08
1.20242e-08
1.21804e-08
1.23727e-08
1.26021e-08
1.28458e-08
1.31116e-08
1.34224e-08
1.37843e-08
1.41909e-08
1.46403e-08
1.51397e-08
1.56872e-08
1.63032e-08
1.70089e-08
1.77974e-08
1.86912e-08
1.96976e-08
2.082e-08
2.20705e-08
2.34996e-08
2.51906e-08
2.7194e-08
2.95303e-08
3.22038e-08
3.53111e-08
3.90796e-08
4.37353e-08
4.95581e-08
5.69062e-08
6.5983e-08
7.71809e-08
9.14944e-08
9.89499e-08
9.91165e-08
9.92753e-08
9.9433e-08
9.95791e-08
9.97051e-08
9.97887e-08
9.27321e-08
8.24938e-08
7.40664e-08
6.70951e-08
6.12618e-08
5.64415e-08
5.25173e-08
4.92228e-08
4.64159e-08
4.40191e-08
4.18992e-08
3.99697e-08
3.82681e-08
3.68005e-08
3.54879e-08
3.43126e-08
3.3266e-08
3.22985e-08
3.13997e-08
3.05777e-08
2.9846e-08
2.91681e-08
2.85293e-08
2.79403e-08
2.74075e-08
2.69188e-08
2.64659e-08
2.60308e-08
2.55932e-08
2.52026e-08
2.48592e-08
2.45264e-08
2.42095e-08
2.39033e-08
2.36074e-08
2.33334e-08
2.30769e-08
2.28328e-08
2.26012e-08
2.23808e-08
2.21654e-08
2.19582e-08
2.17644e-08
2.15873e-08
2.14252e-08
2.12684e-08
2.11134e-08
2.09552e-08
2.0807e-08
2.06823e-08
2.05698e-08
2.04651e-08
2.03696e-08
2.02738e-08
2.01797e-08
2.01001e-08
2.00338e-08
1.99737e-08
1.99208e-08
1.98779e-08
1.98493e-08
1.98365e-08
1.98259e-08
1.9813e-08
1.98147e-08
1.98386e-08
1.98763e-08
1.99266e-08
1.99922e-08
2.00705e-08
2.01547e-08
2.02548e-08
2.03806e-08
2.05284e-08
2.07023e-08
2.09029e-08
2.11123e-08
2.13478e-08
2.16265e-08
2.19309e-08
2.22816e-08
2.26799e-08
2.31064e-08
2.35839e-08
2.41278e-08
2.47397e-08
2.53909e-08
2.61312e-08
2.70067e-08
2.80401e-08
2.92797e-08
3.07467e-08
3.24486e-08
3.44359e-08
3.6805e-08
3.9699e-08
4.32201e-08
4.74585e-08
5.04956e-08
5.03532e-08
5.02717e-08
5.0251e-08
5.02895e-08
5.03862e-08
5.05434e-08
5.07609e-08
5.10269e-08
5.13038e-08
5.1557e-08
5.17815e-08
5.19757e-08
5.21384e-08
5.22677e-08
5.23631e-08
5.24282e-08
5.24657e-08
5.24777e-08
5.24636e-08
5.24242e-08
5.13893e-08
4.86858e-08
4.6298e-08
4.41835e-08
4.22975e-08
4.06204e-08
3.91284e-08
3.77723e-08
3.65283e-08
3.53861e-08
3.43444e-08
3.33953e-08
3.25249e-08
3.17153e-08
3.09548e-08
3.02522e-08
2.96054e-08
2.90004e-08
2.84304e-08
2.78961e-08
2.73976e-08
2.69293e-08
2.64867e-08
2.60704e-08
2.56764e-08
2.53052e-08
2.49558e-08
2.46255e-08
2.43129e-08
2.40145e-08
2.37308e-08
2.34615e-08
2.32076e-08
2.29667e-08
2.2735e-08
2.25119e-08
2.22996e-08
2.20979e-08
2.1905e-08
2.17194e-08
2.15417e-08
2.13736e-08
2.12121e-08
2.10555e-08
2.09028e-08
2.07557e-08
2.06139e-08
2.04778e-08
2.03464e-08
2.02205e-08
2.00956e-08
1.9973e-08
1.98551e-08
1.97451e-08
1.96326e-08
1.9524e-08
1.94185e-08
1.93181e-08
1.92154e-08
1.91198e-08
1.90251e-08
1.89361e-08
1.88453e-08
1.87577e-08
1.86694e-08
1.85851e-08
1.85023e-08
1.84153e-08
1.83478e-08
1.82552e-08
1.81974e-08
1.80938e-08
1.80223e-08
1.79106e-08
1.78267e-08
1.77421e-08
1.76629e-08
1.76252e-08
1.75696e-08
1.74139e-08
1.73317e-08
1.72039e-08
1.71418e-08
1.74298e-08
1.74944e-08
1.70923e-08
1.68984e-08
1.60148e-08
1.59189e-08
1.61006e-08
1.64503e-08
1.55925e-08
1.39966e-08
1.36511e-08
1.36955e-08
1.36141e-08
1.35621e-08
1.34359e-08
1.33458e-08
1.32474e-08
1.3185e-08
1.32682e-08
1.32601e-08
1.30355e-08
1.29883e-08
1.25707e-08
1.25394e-08
1.26463e-08
1.27778e-08
1.23884e-08
1.1623e-08
1.14679e-08
1.14749e-08
1.14677e-08
1.14371e-08
1.15294e-08
1.14618e-08
1.15134e-08
1.13573e-08
1.13638e-08
1.11893e-08
1.13592e-08
1.18154e-08
1.20323e-08
1.17152e-08
1.1407e-08
9.75512e-09
9.93627e-09
9.06702e-09
9.65396e-09
8.53236e-09
7.54257e-09
7.67467e-09
8.1487e-09
8.48831e-09
8.66649e-09
8.77163e-09
8.8347e-09
8.87317e-09
8.89735e-09
8.91143e-09
8.91945e-09
8.92831e-09
8.94078e-09
8.94938e-09
8.9593e-09
8.97373e-09
8.98578e-09
9.0011e-09
9.02118e-09
9.04088e-09
9.05876e-09
9.08019e-09
9.1071e-09
9.13359e-09
9.16148e-09
9.19035e-09
9.22016e-09
9.25182e-09
9.28439e-09
9.31788e-09
9.35207e-09
9.38953e-09
9.42482e-09
9.45583e-09
9.48957e-09
9.52395e-09
9.55839e-09
9.5952e-09
9.63309e-09
9.67111e-09
9.71094e-09
9.75271e-09
9.7966e-09
9.84276e-09
9.88705e-09
9.93573e-09
9.99097e-09
1.00444e-08
1.00981e-08
1.01529e-08
1.0208e-08
1.02631e-08
1.03191e-08
1.03763e-08
1.04362e-08
1.04991e-08
1.05646e-08
1.06311e-08
1.0697e-08
1.07636e-08
1.08338e-08
1.0909e-08
1.09898e-08
1.10728e-08
1.11535e-08
1.12343e-08
1.13209e-08
1.14152e-08
1.15115e-08
1.16038e-08
1.16962e-08
1.18007e-08
1.19067e-08
1.20043e-08
1.21044e-08
1.21588e-08
1.24877e-08
1.20084e-08
1.33893e-08
1.04486e-08
1.54839e-08
1.78016e-09
1.91747e-09
2.50586e-09
9.10905e-09
5.98169e-09
7.29951e-09
6.63194e-09
7.3264e-09
7.47353e-09
8.24351e-09
7.01705e-09
5.11407e-09
4.55475e-09
4.80543e-09
5.04617e-09
5.73746e-09
6.93581e-09
9.3538e-09
1.36207e-08
2.08756e-08
3.26498e-08
4.18787e-08
4.53642e-08
4.73584e-08
5.43791e-08
6.60963e-08
7.76285e-08
9.32692e-08
1.02758e-07
9.92671e-08
9.47311e-08
8.17072e-08
6.83658e-08
5.42803e-08
4.15936e-08
3.5911e-08
3.77028e-08
4.178e-08
4.21764e-08
4.15133e-08
3.70047e-08
3.09451e-08
2.76912e-08
2.56973e-08
2.30133e-08
2.19727e-08
2.36532e-08
2.64081e-08
2.80666e-08
2.62158e-08
2.29228e-08
2.08156e-08
2.08705e-08
2.33436e-08
2.68431e-08
2.84784e-08
2.68866e-08
2.47355e-08
2.25338e-08
2.06446e-08
2.0515e-08
2.18622e-08
2.41329e-08
2.83263e-08
3.29031e-08
3.27248e-08
3.39887e-08
4.02149e-08
4.87506e-08
6.60989e-08
8.11219e-08
7.39201e-08
5.6953e-08
4.11814e-08
3.48383e-08
3.00743e-08
3.25677e-08
3.97197e-08
7.20249e-08
6.28521e-08
3.57649e-08
5.9267e-08
6.27901e-08
6.61554e-08
6.75187e-08
7.02905e-08
6.84893e-08
6.37827e-08
5.74757e-08
4.55611e-08
2.17345e-08
1.47817e-08
1.23553e-08
1.57432e-08
1.84749e-08
1.66331e-08
1.84751e-08
1.31816e-08
1.17468e-08
1.3839e-08
1.86431e-08
1.80576e-08
1.59681e-08
1.78764e-08
1.72431e-08
1.4325e-08
9.20803e-09
1.1284e-08
1.48485e-08
8.01933e-09
1.32127e-08
1.48968e-08
3.39059e-08
4.67985e-08
2.63961e-08
1.8633e-08
1.7939e-08
2.73048e-08
4.00633e-08
2.06879e-08
1.34462e-08
2.28132e-08
4.19353e-08
2.87213e-08
2.3922e-08
1.96962e-08
1.74164e-08
2.39876e-08
2.55422e-08
2.91506e-08
3.11803e-08
2.71766e-08
2.55191e-08
2.62232e-08
2.69332e-08
2.70053e-08
2.68499e-08
2.75027e-08
2.74156e-08
2.75188e-08
2.79995e-08
2.85584e-08
2.94085e-08
3.04591e-08
3.16687e-08
3.28416e-08
3.39755e-08
3.51271e-08
3.66175e-08
3.86555e-08
4.0796e-08
4.27532e-08
4.4706e-08
4.69197e-08
5.00041e-08
5.40679e-08
5.80026e-08
6.13785e-08
6.57078e-08
7.24169e-08
8.12344e-08
9.07285e-08
1.01049e-07
1.15995e-07
1.34184e-07
1.34274e-07
1.34332e-07
1.3419e-07
1.34131e-07
1.34404e-07
1.34812e-07
1.35036e-07
1.35087e-07
1.2606e-07
1.05184e-07
8.98887e-08
7.75692e-08
6.75372e-08
6.01753e-08
5.41353e-08
4.84637e-08
4.3725e-08
4.01441e-08
3.72934e-08
3.46841e-08
3.2321e-08
3.02977e-08
2.83102e-08
2.64527e-08
2.49941e-08
2.38737e-08
2.29544e-08
2.21184e-08
2.12881e-08
2.0418e-08
1.96776e-08
1.91918e-08
1.88805e-08
1.85555e-08
1.82026e-08
1.79608e-08
1.78861e-08
1.78746e-08
1.78238e-08
1.78225e-08
1.78967e-08
1.81066e-08
1.84498e-08
1.8783e-08
1.90677e-08
1.93667e-08
1.98749e-08
2.06007e-08
2.12832e-08
2.19518e-08
2.27095e-08
2.3457e-08
2.42309e-08
2.50982e-08
2.62058e-08
2.74514e-08
2.85816e-08
2.97267e-08
3.08951e-08
3.21192e-08
3.35351e-08
3.51977e-08
3.69174e-08
3.87782e-08
4.06899e-08
4.24567e-08
4.44451e-08
4.70079e-08
4.98875e-08
5.29444e-08
5.58967e-08
5.85107e-08
6.10497e-08
6.44058e-08
6.87736e-08
7.36444e-08
7.90603e-08
8.37645e-08
8.84282e-08
9.39717e-08
1.00191e-07
1.06203e-07
1.13348e-07
1.2295e-07
1.33909e-07
1.42425e-07
1.5031e-07
1.62118e-07
1.80222e-07
2.00517e-07
2.18062e-07
2.35579e-07
2.53601e-07
2.77077e-07
3.04068e-07
3.03861e-07
3.03807e-07
3.035e-07
3.02815e-07
3.02046e-07
3.01594e-07
3.017e-07
3.02319e-07
3.0295e-07
3.03011e-07
3.02498e-07
3.0182e-07
3.01434e-07
3.01619e-07
2.86196e-07
2.57104e-07
2.28176e-07
2.03028e-07
1.8299e-07
1.68192e-07
1.58014e-07
1.4831e-07
1.36789e-07
1.25236e-07
1.16596e-07
1.10192e-07
1.04359e-07
9.82324e-08
9.245e-08
8.74558e-08
8.26998e-08
7.84703e-08
7.48321e-08
7.11954e-08
6.76327e-08
6.43818e-08
6.14095e-08
5.91712e-08
5.69113e-08
5.41728e-08
5.16223e-08
4.95674e-08
4.80003e-08
4.6567e-08
4.47251e-08
4.297e-08
4.1716e-08
4.07064e-08
3.96369e-08
3.86137e-08
3.77662e-08
3.70765e-08
3.66526e-08
3.62535e-08
3.58247e-08
3.55598e-08
3.55155e-08
3.56956e-08
3.60244e-08
3.63687e-08
3.67914e-08
3.73995e-08
3.8241e-08
3.92962e-08
4.05248e-08
4.17961e-08
4.31523e-08
4.46635e-08
4.63406e-08
4.8197e-08
5.01165e-08
5.21025e-08
5.41992e-08
5.63461e-08
5.86033e-08
6.1026e-08
6.35482e-08
6.61931e-08
6.9117e-08
7.23205e-08
7.57154e-08
7.92356e-08
8.30375e-08
8.72821e-08
9.16501e-08
9.63453e-08
1.01606e-07
1.07344e-07
1.13631e-07
1.20409e-07
1.27917e-07
1.36203e-07
1.45318e-07
1.55343e-07
1.66747e-07
1.79882e-07
1.94452e-07
2.10318e-07
2.28216e-07
2.49042e-07
2.73868e-07
3.02963e-07
3.35472e-07
3.74336e-07
3.85401e-07
3.84812e-07
3.84077e-07
3.83211e-07
3.82338e-07
3.8159e-07
3.81143e-07
3.80987e-07
3.80819e-07
3.80508e-07
3.8029e-07
3.80253e-07
3.80184e-07
3.80079e-07
3.79957e-07
3.80072e-07
3.80636e-07
3.81403e-07
3.82063e-07
3.82535e-07
3.82911e-07
3.83409e-07
3.84096e-07
3.8505e-07
3.86219e-07
3.87042e-07
3.87684e-07
3.88984e-07
3.90611e-07
3.915e-07
3.9244e-07
3.93823e-07
3.94933e-07
3.95885e-07
3.97132e-07
3.98776e-07
4.00542e-07
3.95818e-07
3.96549e-07
3.8946e-07
3.98847e-07
3.79493e-07
3.9089e-07
3.75858e-07
3.88262e-07
4.16112e-07
4.17703e-07
4.19481e-07
4.10035e-07
4.19543e-07
3.40772e-07
3.21351e-07
4.29331e-07
4.29592e-07
3.9385e-07
3.36402e-07
1.63943e-07
1.41062e-07
1.4867e-07
1.39621e-07
1.16401e-07
1.13974e-07
4.52097e-08
3.87522e-08
6.72126e-08
9.70482e-08
8.60338e-08
8.48188e-08
1.49171e-07
1.83852e-07
2.92595e-07
4.57741e-07
4.59842e-07
4.60588e-07
2.61719e-07
2.12148e-07
1.72598e-07
1.70181e-07
1.51641e-07
1.62719e-07
6.75535e-08
6.06674e-08
1.13208e-07
1.35011e-07
1.1436e-07
1.22119e-07
2.45331e-07
2.73942e-07
2.44234e-07
2.41236e-07
2.91949e-07
2.28575e-07
3.88254e-07
4.07709e-07
2.35528e-07
6.51903e-08
6.51791e-08
4.11563e-08
3.98964e-08
1.9459e-08
1.71964e-08
8.67429e-09
8.07701e-09
1.39331e-08
1.76044e-08
1.69697e-08
1.70466e-08
2.55484e-08
3.6581e-08
4.92922e-08
6.53151e-08
8.43328e-08
1.08881e-07
1.42338e-07
1.85102e-07
2.44157e-07
3.34112e-07
4.50245e-07
4.51377e-07
4.50341e-07
4.48955e-07
4.48036e-07
4.46515e-07
4.46304e-07
4.33204e-07
3.76422e-07
3.34635e-07
3.071e-07
2.85054e-07
2.66791e-07
2.5189e-07
2.41003e-07
2.31433e-07
2.22736e-07
2.15542e-07
2.09593e-07
2.05222e-07
2.01562e-07
1.97692e-07
1.944e-07
1.90863e-07
1.88466e-07
1.86436e-07
1.82991e-07
1.80359e-07
1.77781e-07
1.74914e-07
1.7213e-07
1.70067e-07
1.67782e-07
1.65743e-07
1.64484e-07
1.63217e-07
1.62133e-07
1.61258e-07
1.60414e-07
1.59794e-07
1.59126e-07
1.58062e-07
1.56691e-07
1.55471e-07
1.54761e-07
1.54305e-07
1.53555e-07
1.52158e-07
1.50186e-07
1.49302e-07
1.50219e-07
1.50733e-07
1.49588e-07
1.47666e-07
1.47186e-07
1.48509e-07
1.49483e-07
1.48029e-07
1.46682e-07
1.47199e-07
1.48717e-07
1.46794e-07
1.56511e-07
1.11352e-07
1.93804e-07
5.18223e-08
4.65888e-08
2.19659e-08
4.89584e-08
1.76543e-09
1.92179e-09
2.46215e-09
8.32146e-09
5.46301e-09
6.18079e-09
5.17858e-09
5.26238e-09
5.31104e-09
6.13064e-09
5.13813e-09
4.29286e-09
4.71588e-09
5.54262e-09
6.6782e-09
1.01838e-08
2.31249e-08
6.01639e-08
7.17225e-08
7.30886e-08
7.49431e-08
7.67495e-08
7.83218e-08
8.09543e-08
8.43791e-08
8.72736e-08
8.85992e-08
8.85242e-08
8.77208e-08
8.67148e-08
7.19453e-08
5.98456e-08
4.94403e-08
3.91138e-08
2.9592e-08
2.42631e-08
2.31872e-08
2.50313e-08
2.75389e-08
2.5389e-08
1.963e-08
1.57049e-08
1.47209e-08
1.50914e-08
1.46468e-08
1.35535e-08
1.24199e-08
1.1641e-08
1.13992e-08
1.19014e-08
1.23613e-08
1.1951e-08
1.13808e-08
1.14365e-08
1.24114e-08
1.40017e-08
1.44407e-08
1.35571e-08
1.23379e-08
1.13935e-08
1.1545e-08
1.22009e-08
1.26828e-08
1.25581e-08
1.08968e-08
1.03919e-08
1.25312e-08
1.48174e-08
1.75434e-08
2.36627e-08
3.30035e-08
3.61171e-08
3.14777e-08
2.47395e-08
2.09245e-08
2.24917e-08
3.28539e-08
4.00976e-08
5.61754e-08
5.86658e-08
5.79903e-08
5.74486e-08
5.76105e-08
5.87727e-08
6.02452e-08
6.14562e-08
6.08333e-08
5.81322e-08
5.39197e-08
4.97839e-08
4.61397e-08
4.45865e-08
3.23194e-08
1.58089e-08
9.11936e-09
6.1043e-09
7.14183e-09
7.44139e-09
6.97073e-09
9.96841e-09
1.46109e-08
1.92317e-08
1.8314e-08
1.83858e-08
1.18223e-08
7.86266e-09
6.57034e-09
5.87984e-09
5.18407e-09
3.8926e-09
3.57643e-09
5.20063e-09
4.50295e-09
8.87711e-09
1.41752e-08
3.55177e-08
1.72976e-08
1.21464e-08
1.11108e-08
1.24918e-08
1.92502e-08
3.00848e-08
1.15987e-08
7.44382e-09
1.31333e-08
2.28262e-08
2.04416e-08
1.83801e-08
1.48115e-08
1.25688e-08
1.74612e-08
1.85133e-08
2.24603e-08
2.27055e-08
2.14337e-08
1.86944e-08
1.7029e-08
1.79657e-08
1.83709e-08
1.95231e-08
2.05182e-08
2.06062e-08
2.0694e-08
2.11696e-08
2.18666e-08
2.27625e-08
2.35913e-08
2.43356e-08
2.53917e-08
2.67065e-08
2.78922e-08
2.89397e-08
3.0101e-08
3.17813e-08
3.39823e-08
3.63788e-08
3.88024e-08
4.09409e-08
4.33373e-08
4.69981e-08
5.22885e-08
5.86917e-08
6.54676e-08
7.31683e-08
8.3937e-08
1.00781e-07
1.20025e-07
1.33733e-07
1.4837e-07
1.61087e-07
1.42475e-07
1.12031e-07
8.91452e-08
7.5508e-08
6.45374e-08
5.48097e-08
4.78328e-08
4.28867e-08
3.86721e-08
3.46277e-08
3.09588e-08
2.82422e-08
2.63945e-08
2.47182e-08
2.29352e-08
2.14721e-08
2.03281e-08
1.9166e-08
1.81158e-08
1.72165e-08
1.64782e-08
1.59736e-08
1.5591e-08
1.51696e-08
1.47183e-08
1.42876e-08
1.39588e-08
1.37983e-08
1.37159e-08
1.3657e-08
1.36013e-08
1.36051e-08
1.36488e-08
1.36776e-08
1.38131e-08
1.40516e-08
1.43566e-08
1.47043e-08
1.49873e-08
1.52706e-08
1.56876e-08
1.62643e-08
1.68901e-08
1.75293e-08
1.81458e-08
1.8833e-08
1.96393e-08
2.04998e-08
2.13705e-08
2.23557e-08
2.3379e-08
2.44236e-08
2.57232e-08
2.71242e-08
2.83925e-08
2.96743e-08
3.09919e-08
3.24458e-08
3.42862e-08
3.64322e-08
3.85654e-08
4.03386e-08
4.23718e-08
4.5195e-08
4.8052e-08
5.04653e-08
5.28793e-08
5.58535e-08
5.90768e-08
6.35389e-08
6.88105e-08
7.32126e-08
7.69024e-08
8.02598e-08
8.46803e-08
9.11776e-08
9.95154e-08
1.0781e-07
1.14209e-07
1.21624e-07
1.28316e-07
1.36196e-07
1.50656e-07
1.68416e-07
1.85749e-07
2.00566e-07
2.10787e-07
2.25648e-07
2.50352e-07
2.88813e-07
3.47572e-07
4.0584e-07
4.63778e-07
5.78468e-07
7.32178e-07
7.94369e-07
7.02902e-07
6.18821e-07
6.05142e-07
5.70843e-07
5.09604e-07
4.14687e-07
3.21521e-07
2.69482e-07
2.47926e-07
2.32609e-07
2.10998e-07
1.87602e-07
1.67952e-07
1.55528e-07
1.46279e-07
1.33891e-07
1.22248e-07
1.14392e-07
1.08973e-07
1.03651e-07
9.80017e-08
9.12392e-08
8.45295e-08
7.9875e-08
7.65006e-08
7.34314e-08
7.04458e-08
6.68834e-08
6.28588e-08
5.953e-08
5.7221e-08
5.53461e-08
5.3352e-08
5.10169e-08
4.85253e-08
4.66585e-08
4.53939e-08
4.40931e-08
4.23093e-08
4.06893e-08
3.973e-08
3.89388e-08
3.79791e-08
3.70052e-08
3.62243e-08
3.56729e-08
3.53363e-08
3.50748e-08
3.47259e-08
3.44257e-08
3.44177e-08
3.46613e-08
3.49955e-08
3.53499e-08
3.56997e-08
3.61798e-08
3.69385e-08
3.79595e-08
3.91206e-08
4.02003e-08
4.13463e-08
4.26951e-08
4.42619e-08
4.60722e-08
4.78855e-08
4.96481e-08
5.1628e-08
5.3817e-08
5.61441e-08
5.85828e-08
6.10511e-08
6.35584e-08
6.63377e-08
6.95468e-08
7.29423e-08
7.64875e-08
8.02096e-08
8.40711e-08
8.81833e-08
9.2772e-08
9.81024e-08
1.03874e-07
1.09873e-07
1.16299e-07
1.23596e-07
1.3179e-07
1.40477e-07
1.49721e-07
1.60519e-07
1.7351e-07
1.8799e-07
2.03012e-07
2.19547e-07
2.39378e-07
2.6333e-07
2.91429e-07
3.21797e-07
3.5547e-07
3.97623e-07
4.537e-07
5.26728e-07
6.09144e-07
7.04099e-07
8.31115e-07
1.01481e-06
1.26295e-06
1.5253e-06
1.68402e-06
1.68205e-06
1.54136e-06
1.37108e-06
1.21348e-06
1.08117e-06
9.60291e-07
8.53461e-07
7.7042e-07
7.18173e-07
6.66181e-07
6.22849e-07
5.97594e-07
5.77634e-07
5.56261e-07
5.25449e-07
5.0973e-07
4.97647e-07
4.88598e-07
4.66585e-07
4.5367e-07
4.40946e-07
4.35112e-07
4.22209e-07
4.22024e-07
4.08697e-07
4.04416e-07
3.93912e-07
3.97816e-07
3.79748e-07
3.8641e-07
3.768e-07
3.82398e-07
4.17826e-07
4.25735e-07
4.30415e-07
3.9588e-07
4.04981e-07
3.46121e-07
3.29641e-07
4.99238e-07
5.68788e-07
4.18013e-07
3.3761e-07
1.61493e-07
1.40457e-07
1.48907e-07
1.30766e-07
1.03755e-07
1.05463e-07
4.163e-08
3.68353e-08
7.00688e-08
9.73242e-08
1.05583e-07
9.54296e-08
1.2408e-07
1.07698e-07
1.71161e-07
3.3973e-07
5.32383e-07
2.23649e-07
1.97777e-07
3.72553e-07
1.39987e-07
1.32791e-07
1.16788e-07
1.28134e-07
5.82092e-08
5.49832e-08
1.11251e-07
1.35473e-07
1.27321e-07
1.26783e-07
1.39078e-07
1.25722e-07
1.42192e-07
1.66593e-07
1.82513e-07
2.61082e-07
3.33668e-07
2.79112e-07
2.58214e-07
6.73381e-08
6.8568e-08
3.77977e-08
3.45732e-08
1.73729e-08
1.52073e-08
7.94919e-09
7.41068e-09
1.25545e-08
1.48574e-08
1.67032e-08
1.72709e-08
2.63617e-08
2.84164e-08
3.55013e-08
4.41372e-08
5.34392e-08
6.39953e-08
7.69416e-08
9.22967e-08
1.10947e-07
1.36067e-07
1.65418e-07
2.01114e-07
2.46833e-07
3.05611e-07
3.51435e-07
3.91063e-07
4.28724e-07
4.16257e-07
4.09676e-07
3.94381e-07
3.60455e-07
3.26017e-07
3.09576e-07
2.9396e-07
2.75459e-07
2.59947e-07
2.47745e-07
2.3819e-07
2.30015e-07
2.22326e-07
2.15734e-07
2.10065e-07
2.04919e-07
1.94704e-07
1.88963e-07
1.85829e-07
1.83406e-07
1.81245e-07
1.79151e-07
1.77041e-07
1.74971e-07
1.72736e-07
1.70429e-07
1.68087e-07
1.65387e-07
1.63248e-07
1.65044e-07
1.6421e-07
1.62092e-07
1.60384e-07
1.59161e-07
1.58226e-07
1.57651e-07
1.57113e-07
1.56353e-07
1.55394e-07
1.54306e-07
1.53083e-07
1.51646e-07
1.50143e-07
1.4916e-07
1.49338e-07
1.50316e-07
1.50551e-07
1.48958e-07
1.46785e-07
1.46307e-07
1.48438e-07
1.49908e-07
1.47662e-07
1.44804e-07
1.45365e-07
1.47574e-07
1.44225e-07
1.39291e-07
1.51098e-07
1.11717e-07
1.94121e-07
5.10716e-08
4.61159e-08
2.15321e-08
4.80689e-08
1.74669e-09
1.92645e-09
2.42649e-09
7.67078e-09
5.00911e-09
5.59846e-09
4.72587e-09
4.70171e-09
4.41906e-09
4.65421e-09
4.05074e-09
3.67515e-09
4.32761e-09
5.611e-09
7.20841e-09
1.08208e-08
2.04539e-08
3.0873e-08
5.26203e-08
8.00287e-08
7.92341e-08
7.92837e-08
7.99029e-08
8.09455e-08
8.2372e-08
8.39037e-08
8.14224e-08
5.56339e-08
4.06912e-08
3.19439e-08
2.62082e-08
2.17964e-08
1.83186e-08
1.55999e-08
1.36978e-08
1.23397e-08
1.15206e-08
1.13252e-08
1.12767e-08
1.02598e-08
8.89219e-09
8.07248e-09
8.22833e-09
8.93598e-09
9.5268e-09
8.98213e-09
7.48418e-09
6.61253e-09
6.56769e-09
7.40796e-09
8.5869e-09
9.02265e-09
8.45739e-09
7.69232e-09
7.6309e-09
8.4973e-09
9.74468e-09
1.03798e-08
1.00517e-08
9.73327e-09
1.01062e-08
9.9716e-09
8.87158e-09
7.95321e-09
6.87523e-09
6.81477e-09
7.56874e-09
8.04201e-09
8.94523e-09
1.15022e-08
1.54672e-08
1.90795e-08
1.82318e-08
1.67709e-08
1.20648e-08
1.17884e-08
1.42082e-08
2.37659e-08
3.82857e-08
5.21934e-08
5.14061e-08
6.258e-08
6.09757e-08
6.02077e-08
6.00867e-08
6.00231e-08
5.95302e-08
5.82201e-08
5.6081e-08
5.31378e-08
5.01328e-08
4.76397e-08
4.62126e-08
4.66751e-08
4.98273e-08
2.86327e-08
1.64658e-08
9.63096e-09
6.27878e-09
6.70233e-09
7.52844e-09
9.34659e-09
1.09973e-08
1.11047e-08
1.15142e-08
8.98068e-09
6.3545e-09
5.17495e-09
3.86037e-09
3.19747e-09
3.7332e-09
3.71851e-09
3.25125e-09
2.91205e-09
4.97376e-09
4.37626e-09
8.3495e-09
1.20185e-08
2.55195e-08
2.04987e-08
1.13944e-08
9.85829e-09
1.18411e-08
1.81808e-08
2.8996e-08
9.66723e-09
6.43498e-09
1.15927e-08
2.12369e-08
1.99028e-08
1.88213e-08
1.48159e-08
1.22545e-08
1.63792e-08
1.88881e-08
1.83188e-08
1.97387e-08
2.06594e-08
1.80756e-08
1.68069e-08
1.79261e-08
1.86002e-08
1.97544e-08
2.05992e-08
2.07439e-08
2.1178e-08
2.18938e-08
2.27365e-08
2.39354e-08
2.51902e-08
2.6134e-08
2.70239e-08
2.81319e-08
2.98093e-08
3.18006e-08
3.35742e-08
3.56192e-08
3.79675e-08
4.03319e-08
4.28522e-08
4.64847e-08
5.19524e-08
5.84416e-08
6.43785e-08
7.09405e-08
8.10993e-08
9.22123e-08
9.74716e-08
1.02096e-07
1.07341e-07
1.00258e-07
8.47745e-08
7.17805e-08
6.2662e-08
5.48431e-08
4.77228e-08
4.24338e-08
3.85607e-08
3.47171e-08
3.09887e-08
2.81892e-08
2.6231e-08
2.47109e-08
2.31135e-08
2.14735e-08
2.01711e-08
1.90762e-08
1.81045e-08
1.73628e-08
1.66565e-08
1.59677e-08
1.54332e-08
1.50185e-08
1.46694e-08
1.43965e-08
1.409e-08
1.37616e-08
1.35437e-08
1.34816e-08
1.35177e-08
1.35293e-08
1.34496e-08
1.34079e-08
1.34845e-08
1.37317e-08
1.40379e-08
1.42962e-08
1.45324e-08
1.47434e-08
1.50569e-08
1.56059e-08
1.61785e-08
1.66388e-08
1.71973e-08
1.78099e-08
1.84368e-08
1.92487e-08
2.02027e-08
2.11092e-08
2.19891e-08
2.2827e-08
2.377e-08
2.50533e-08
2.66414e-08
2.81659e-08
2.94431e-08
3.0536e-08
3.18151e-08
3.34926e-08
3.55759e-08
3.80223e-08
4.01438e-08
4.18901e-08
4.44128e-08
4.72287e-08
4.96427e-08
5.21685e-08
5.5439e-08
5.90989e-08
6.35819e-08
6.81285e-08
7.13655e-08
7.47715e-08
7.89251e-08
8.39944e-08
9.07946e-08
9.9533e-08
1.07665e-07
1.13265e-07
1.18801e-07
1.25647e-07
1.34754e-07
1.46967e-07
1.62563e-07
1.79205e-07
1.92989e-07
2.0371e-07
2.22044e-07
2.49004e-07
2.74146e-07
3.09196e-07
3.55888e-07
3.97774e-07
4.72667e-07
5.74568e-07
5.91675e-07
5.1085e-07
4.60744e-07
4.80577e-07
4.98725e-07
4.52521e-07
3.57733e-07
2.83787e-07
2.48583e-07
2.3186e-07
2.16691e-07
1.99918e-07
1.81121e-07
1.6444e-07
1.52095e-07
1.40466e-07
1.26844e-07
1.16553e-07
1.12266e-07
1.08631e-07
1.02161e-07
9.48305e-08
8.7977e-08
8.22759e-08
7.84415e-08
7.56642e-08
7.2473e-08
6.87814e-08
6.52943e-08
6.1817e-08
5.87302e-08
5.65996e-08
5.44848e-08
5.22286e-08
5.02114e-08
4.83001e-08
4.67309e-08
4.52716e-08
4.36197e-08
4.20209e-08
4.08401e-08
4.00268e-08
3.91433e-08
3.81448e-08
3.72682e-08
3.668e-08
3.62792e-08
3.58663e-08
3.55195e-08
3.5234e-08
3.50674e-08
3.5145e-08
3.52856e-08
3.54144e-08
3.57579e-08
3.61889e-08
3.66487e-08
3.72829e-08
3.80753e-08
3.89805e-08
4.00049e-08
4.11947e-08
4.23825e-08
4.36551e-08
4.52443e-08
4.70207e-08
4.88067e-08
5.06966e-08
5.27776e-08
5.49734e-08
5.73374e-08
5.98299e-08
6.23913e-08
6.52212e-08
6.83765e-08
7.15862e-08
7.50658e-08
7.87749e-08
8.24941e-08
8.66289e-08
9.12275e-08
9.62451e-08
1.01749e-07
1.07792e-07
1.14481e-07
1.21846e-07
1.29549e-07
1.37591e-07
1.46616e-07
1.57282e-07
1.69853e-07
1.83563e-07
1.97994e-07
2.1411e-07
2.3275e-07
2.54756e-07
2.8162e-07
3.11089e-07
3.42235e-07
3.7968e-07
4.27824e-07
4.90071e-07
5.60134e-07
6.32758e-07
7.19713e-07
8.38461e-07
9.95011e-07
1.14202e-06
1.21023e-06
1.19857e-06
1.1593e-06
1.11178e-06
1.04315e-06
9.49466e-07
8.64386e-07
7.85328e-07
7.28995e-07
6.87517e-07
6.42595e-07
6.09061e-07
5.83876e-07
5.66056e-07
5.40806e-07
5.17773e-07
4.99331e-07
4.91491e-07
4.76833e-07
4.65165e-07
4.46251e-07
4.38854e-07
4.24279e-07
4.2289e-07
4.15988e-07
4.17962e-07
3.93894e-07
3.91915e-07
3.71221e-07
3.76002e-07
3.85947e-07
4.16188e-07
3.4735e-07
3.6621e-07
2.86409e-07
3.04862e-07
4.42292e-07
5.78827e-07
8.84614e-07
4.47538e-07
3.45748e-07
1.63035e-07
1.40796e-07
1.44588e-07
1.24019e-07
9.74746e-08
9.97458e-08
3.9088e-08
3.41273e-08
6.53284e-08
8.83793e-08
1.05395e-07
9.0635e-08
1.19921e-07
1.07505e-07
2.2899e-07
2.66061e-07
3.07396e-07
1.44155e-07
1.42117e-07
1.09098e-07
1.08513e-07
1.1218e-07
1.04632e-07
7.43129e-08
4.9966e-08
4.59306e-08
9.16292e-08
1.07057e-07
1.17572e-07
1.14205e-07
1.43279e-07
1.24927e-07
1.55282e-07
1.64251e-07
1.56879e-07
2.02568e-07
4.79783e-07
2.9878e-07
5.78783e-08
6.83587e-08
1.45572e-07
3.46993e-08
3.13995e-08
1.60447e-08
1.3831e-08
7.48096e-09
6.98115e-09
1.18197e-08
1.4001e-08
1.66376e-08
1.7289e-08
2.47036e-08
2.92842e-08
5.43587e-08
8.74572e-08
6.13711e-08
5.18112e-08
5.49539e-08
6.17475e-08
7.06399e-08
8.18185e-08
9.5001e-08
1.10782e-07
1.30606e-07
1.50875e-07
1.74306e-07
2.05175e-07
2.34533e-07
2.60014e-07
2.82634e-07
2.99152e-07
3.04905e-07
3.07776e-07
3.02538e-07
2.92252e-07
2.77982e-07
2.66675e-07
2.57605e-07
2.47905e-07
2.39424e-07
2.32403e-07
2.27151e-07
2.22298e-07
2.16392e-07
2.10825e-07
2.05299e-07
1.99928e-07
1.92434e-07
1.87596e-07
1.84299e-07
1.82194e-07
1.79918e-07
1.77607e-07
1.75629e-07
1.73023e-07
1.70589e-07
1.68511e-07
1.6673e-07
1.64784e-07
1.63432e-07
1.63782e-07
1.62299e-07
1.60468e-07
1.58921e-07
1.57905e-07
1.57421e-07
1.57146e-07
1.56562e-07
1.555e-07
1.54169e-07
1.52849e-07
1.5162e-07
1.50421e-07
1.49432e-07
1.4916e-07
1.49985e-07
1.50718e-07
1.49755e-07
1.4772e-07
1.46727e-07
1.4811e-07
1.49936e-07
1.48797e-07
1.45482e-07
1.4459e-07
1.45859e-07
1.45528e-07
1.42115e-07
1.40789e-07
1.55453e-07
1.13068e-07
1.95124e-07
5.11614e-08
4.6134e-08
2.14754e-08
4.83167e-08
1.72406e-09
1.9309e-09
2.39059e-09
7.29262e-09
4.78749e-09
5.31358e-09
4.57538e-09
4.57027e-09
4.12081e-09
3.99047e-09
3.38422e-09
3.13228e-09
3.6509e-09
4.58216e-09
5.75679e-09
7.59367e-09
8.55031e-09
1.07394e-08
1.71583e-08
2.47541e-08
2.94407e-08
3.00087e-08
2.89005e-08
2.60623e-08
2.22975e-08
1.91499e-08
1.6519e-08
1.4571e-08
1.30759e-08
1.15767e-08
1.00562e-08
8.74939e-09
7.91219e-09
7.52075e-09
7.80855e-09
7.96636e-09
7.18777e-09
6.41576e-09
6.04175e-09
5.74716e-09
5.59534e-09
5.69924e-09
5.95651e-09
6.69071e-09
7.66903e-09
7.48864e-09
6.39336e-09
5.69245e-09
5.71188e-09
6.71438e-09
8.76668e-09
9.48175e-09
7.74051e-09
6.43334e-09
6.14073e-09
6.80121e-09
8.60901e-09
1.03894e-08
1.04337e-08
1.01558e-08
1.02292e-08
9.46663e-09
7.87399e-09
6.95503e-09
6.80336e-09
6.868e-09
6.43062e-09
5.81128e-09
5.87609e-09
6.93774e-09
9.02067e-09
1.13829e-08
1.30119e-08
1.23575e-08
1.06214e-08
7.9264e-09
8.68847e-09
1.05998e-08
1.67382e-08
2.28074e-08
3.70863e-08
4.78275e-08
7.16641e-08
7.10755e-08
7.12041e-08
6.73762e-08
6.43634e-08
6.17336e-08
5.9501e-08
5.73952e-08
5.5216e-08
5.32811e-08
5.15499e-08
5.08164e-08
5.15972e-08
5.41848e-08
5.94236e-08
5.57939e-08
2.4257e-08
1.67248e-08
1.16878e-08
7.86749e-09
8.83688e-09
9.6074e-09
1.03259e-08
8.4197e-09
9.39164e-09
6.67377e-09
5.14923e-09
3.26251e-09
3.08015e-09
2.57975e-09
2.66609e-09
3.63516e-09
4.23598e-09
4.12612e-09
3.22991e-09
4.74963e-09
4.15774e-09
7.85923e-09
1.09676e-08
2.28743e-08
2.38408e-08
1.17431e-08
9.85241e-09
1.1884e-08
1.71847e-08
2.9218e-08
8.64111e-09
5.77922e-09
1.05021e-08
1.97325e-08
2.06527e-08
1.68025e-08
2.17473e-08
1.32762e-08
1.09475e-08
1.48069e-08
1.61009e-08
1.92705e-08
2.14931e-08
1.91018e-08
1.8008e-08
1.89595e-08
1.95567e-08
2.07906e-08
2.21647e-08
2.27311e-08
2.3267e-08
2.40584e-08
2.50224e-08
2.62118e-08
2.77083e-08
2.91612e-08
3.06656e-08
3.22412e-08
3.40503e-08
3.64984e-08
3.90741e-08
4.12761e-08
4.36503e-08
4.76757e-08
5.30021e-08
5.77794e-08
6.27178e-08
6.91697e-08
7.45821e-08
7.69545e-08
7.93345e-08
8.11557e-08
7.77125e-08
6.85543e-08
6.00395e-08
5.36806e-08
4.82237e-08
4.33956e-08
3.9157e-08
3.53731e-08
3.18176e-08
2.88181e-08
2.67804e-08
2.52201e-08
2.37879e-08
2.22026e-08
2.07307e-08
1.94993e-08
1.84528e-08
1.77614e-08
1.71845e-08
1.65706e-08
1.59802e-08
1.5339e-08
1.48602e-08
1.45797e-08
1.43883e-08
1.4197e-08
1.39255e-08
1.36691e-08
1.35438e-08
1.35641e-08
1.36401e-08
1.3579e-08
1.35021e-08
1.35839e-08
1.38535e-08
1.41297e-08
1.43245e-08
1.44827e-08
1.46767e-08
1.50495e-08
1.56397e-08
1.61936e-08
1.65744e-08
1.69721e-08
1.75143e-08
1.81724e-08
1.90136e-08
1.99844e-08
2.08495e-08
2.15818e-08
2.23615e-08
2.33513e-08
2.45642e-08
2.60899e-08
2.75881e-08
2.89604e-08
3.03199e-08
3.15706e-08
3.29775e-08
3.47557e-08
3.69726e-08
3.96032e-08
4.17491e-08
4.3709e-08
4.62284e-08
4.9249e-08
5.20356e-08
5.48543e-08
5.86605e-08
6.26498e-08
6.64193e-08
6.98918e-08
7.37381e-08
7.83511e-08
8.41794e-08
9.14313e-08
9.88041e-08
1.04887e-07
1.10522e-07