/*--------------------------------*- C++ -*----------------------------------*\
| =========                 |                                                 |
| \\      /  F ield         | OpenFOAM: The Open Source CFD Toolbox           |
|  \\    /   O peration     | Version:  v2006                                 |
|   \\  /    A nd           | Website:  www.openfoam.com                      |
|    \\/     M anipulation  |                                                 |
\*---------------------------------------------------------------------------*/
FoamFile
{
    version     2.0;
    format      ascii;
    class       volScalarField;
    location    "5.3";
    object      p;
}
// * * * * * * * * * * * * * * * * * * * * * * * * * * * * * * * * * * * * * //

dimensions      [1 -1 -2 0 0 0 0];


internalField   nonuniform List<scalar> 
33000
(
7454.17
7471.3
7481.22
7492.05
7503
7513.92
7524.92
7535.95
7547.03
7558.2
7569.47
7580.9
7592.53
7604.14
7615.45
7626.35
7636.78
7646.66
7655.9
7665
7674.24
7683.99
7694.65
7705.78
7717.01
7728.02
7738.76
7749.32
7759.79
7770.2
7780.57
7790.9
7801.19
7811.43
7821.59
7831.69
7841.74
7851.74
7861.69
7871.59
7881.42
7891.21
7900.96
7910.67
7920.3
7929.83
7939.26
7948.63
7957.95
7967.22
7976.44
7985.57
7994.6
8003.55
8012.43
8021.24
8030
8038.67
8047.27
8055.78
8064.21
8072.54
8080.77
8088.9
8096.93
8104.9
8112.79
8120.59
8128.27
8135.85
8143.35
8150.74
8158.01
8165.15
8172.12
8178.89
8185.48
8191.24
8194.21
8198.78
8211.02
8216.86
8225
8232.59
8239.51
8246.91
8255.2
8262.61
8270.21
8277.38
8285.16
8292.59
8300.16
8307.84
8315.55
8323.22
8331.26
8338.88
8347.32
8354.31
8359.1
8365.75
8372.02
8378.3
8384.83
8391.11
8397.16
8403.44
8409.65
8416.27
8422.32
8428.72
8434.83
8440.9
8446.84
8452.72
8458.57
8464.2
8469.35
8474.88
8479.96
8485
8489.91
8494.61
8498.93
8503.19
8507.12
8510.87
8514.38
8517.64
8520.52
8523.17
8525.43
8527.41
8528.99
8530.23
8531.06
8531.47
8531.45
8530.96
8530.03
8528.61
8526.72
8524.34
8521.46
8518.09
8514.23
8509.88
8505.04
8499.7
8493.86
8487.53
8480.74
8473.47
8465.74
8457.54
8448.89
8439.81
8430.31
8420.4
8410.1
8399.43
8388.39
8377.01
8365.31
8353.32
8341.06
8328.55
8315.81
8302.87
8289.78
8276.53
8263.17
8249.72
8236.21
8222.69
8209.16
8195.65
8182.19
8168.82
8155.55
8142.42
8129.44
8116.64
8104.05
8091.67
8079.52
8067.62
8055.99
8044.64
8033.58
8022.81
8012.33
8002.16
7992.29
7982.72
7973.46
7964.48
7955.79
7947.37
7939.22
7931.33
7923.69
7916.28
7909.1
7902.12
7895.34
7888.75
7882.34
7876.1
7870
7864.06
7858.25
7852.57
7847
7841.56
7836.23
7831.05
7826.01
7821.12
7816.4
7811.83
7807.43
7803.19
7799.14
7795.26
7791.55
7788.01
7784.65
7781.46
7778.44
7775.59
7772.91
7770.39
7768.03
7765.83
7763.78
7761.88
7760.13
7758.52
7757.05
7755.72
7754.52
7753.45
7752.5
7751.67
7750.96
7750.36
7749.87
7749.48
7749.19
7749
7748.91
7748.9
7748.98
7749.15
7749.39
7749.71
7750.11
7750.57
7751.1
7751.69
7752.34
7753.05
7753.81
7754.62
7755.47
7756.38
7757.32
7758.3
7759.31
7760.35
7761.42
7762.52
7763.64
7764.78
7765.93
7767.1
7768.28
7769.47
7770.66
7771.85
7773.05
7774.25
7775.44
7776.62
7777.8
7778.96
7780.11
7781.25
7782.38
7783.48
7784.57
7785.63
7786.68
7787.7
7788.7
7789.67
7790.62
7791.55
7792.45
7793.32
7794.17
7795
7795.8
7796.57
7797.32
7798.05
7798.76
7799.45
7800.12
7800.77
7801.4
7802.03
7802.64
7803.24
7803.84
7804.43
7805.01
7805.6
7806.19
7806.78
7807.37
7807.98
7808.59
7809.21
7809.84
7810.48
7811.13
7811.78
7812.43
7813.07
7813.72
7814.36
7814.99
7815.61
7816.22
7816.82
7817.41
7817.98
7818.54
7819.08
7819.6
7820.11
7820.59
7821.06
7821.5
7821.93
7822.33
7822.71
7823.07
7823.41
7823.73
7824.03
7824.3
7824.56
7824.79
7825
7825.19
7825.36
7825.51
7825.65
7825.76
7825.85
7825.93
7825.98
7826.02
7826.05
7826.06
7826.05
7826.02
7825.98
7825.93
7825.87
7825.79
7825.69
7825.59
7825.47
7825.35
7825.21
7825.06
7824.9
7824.74
7824.56
7824.37
7824.18
7823.98
7823.77
7823.56
7823.34
7823.11
7822.87
7822.63
7822.38
7822.13
7821.88
7821.62
7821.35
7821.08
7820.81
7820.53
7820.25
7819.97
7819.69
7819.4
7819.11
7818.82
7818.52
7818.22
7817.92
7817.62
7817.32
7817.01
7816.71
7816.4
7816.09
7815.78
7815.47
7815.15
7814.85
7814.54
7814.22
7813.92
7813.6
7813.29
7813.01
7812.71
7812.4
7812.15
7811.75
7811.5
7811.36
7811.1
7810.88
7810.61
7810.35
7810.07
7809.79
7809.5
7809.2
7808.91
7808.6
7808.3
7808.02
7807.72
7807.4
7807.14
7806.75
7806.49
7806.33
7806.05
7805.82
7805.53
7805.27
7804.96
7804.67
7804.36
7804.06
7803.74
7803.43
7803.1
7802.78
7802.44
7802.14
7801.83
7801.52
7801.21
7800.89
7800.45
7800.28
7800.08
7799.83
7799.57
7799.29
7799
7798.71
7798.41
7798.1
7797.79
7797.47
7797.15
7796.82
7796.49
7796.16
7795.82
7795.48
7795.14
7794.8
7794.45
7794.1
7793.74
7793.39
7793.03
7792.67
7792.31
7791.94
7791.57
7791.21
7790.83
7790.46
7790.09
7789.71
7789.33
7788.95
7788.57
7788.19
7787.8
7787.41
7787.03
7786.64
7786.25
7785.85
7785.46
7785.06
7784.66
7784.27
7783.87
7783.47
7783.06
7782.66
7782.26
7781.85
7781.44
7781.03
7780.62
7780.21
7779.8
7779.39
7778.98
7778.56
7778.15
7777.73
7777.31
7776.89
7776.47
7776.05
7775.63
7775.21
7774.79
7774.36
7773.94
7773.51
7773.08
7772.66
7772.23
7771.8
7771.37
7770.91
7770.57
7769.9
7257.82
7274.96
7284.88
7295.72
7306.67
7317.57
7328.57
7339.61
7350.66
7361.76
7372.91
7384.17
7395.49
7406.73
7417.74
7428.43
7438.68
7448.44
7457.77
7466.87
7476.01
7485.67
7496.06
7507.78
7520.16
7531.67
7542.56
7553.23
7563.75
7574.19
7584.55
7594.86
7605.13
7615.36
7625.53
7635.65
7645.71
7655.7
7665.65
7675.55
7685.41
7695.21
7704.96
7714.64
7724.26
7733.8
7743.27
7752.65
7761.97
7771.22
7780.42
7789.54
7798.59
7807.55
7816.42
7825.23
7833.97
7842.65
7851.25
7859.77
7868.2
7876.54
7884.78
7892.93
7901.01
7908.99
7916.88
7924.67
7932.37
7939.96
7947.45
7954.85
7962.13
7969.28
7976.24
7983.09
7989.77
7996.36
8002.95
8009.81
8016.22
8019.1
8023.21
8036.62
8043.83
8051.76
8059.65
8066.33
8073.23
8080.49
8088.7
8095.91
8103.95
8111.34
8119.15
8126.47
8134.36
8141.72
8149.43
8156.13
8163.14
8170.3
8176.56
8180.89
8187.88
8194.17
8201.06
8207.39
8214.2
8220.53
8226.35
8232.66
8238.75
8244.8
8250.86
8256.79
8262.55
8268.16
8273.59
8279.15
8284.38
8288.83
8293.88
8298.39
8302.98
8307.33
8311.43
8315.06
8318.61
8321.75
8324.7
8327.37
8329.7
8331.68
8333.3
8334.54
8335.39
8335.8
8335.81
8335.35
8334.45
8333.06
8331.18
8328.82
8325.96
8322.61
8318.77
8314.42
8309.58
8304.23
8298.4
8292.08
8285.28
8278.01
8270.27
8262.06
8253.41
8244.33
8234.82
8224.89
8214.57
8203.87
8192.82
8181.42
8169.7
8157.69
8145.4
8132.86
8120.09
8107.13
8094
8080.73
8067.34
8053.86
8040.33
8026.77
8013.21
7999.67
7986.19
7972.8
7959.5
7946.34
7933.34
7920.52
7907.91
7895.5
7883.34
7871.42
7859.76
7848.39
7837.31
7826.53
7816.05
7805.86
7795.97
7786.39
7777.1
7768.11
7759.41
7750.98
7742.82
7734.92
7727.26
7719.84
7712.65
7705.66
7698.88
7692.29
7685.87
7679.62
7673.52
7667.56
7661.75
7656.06
7650.49
7645.04
7639.72
7634.53
7629.49
7624.6
7619.87
7615.3
7610.9
7606.67
7602.61
7598.73
7595.02
7591.49
7588.13
7584.95
7581.93
7579.09
7576.41
7573.89
7571.54
7569.34
7567.3
7565.41
7563.66
7562.06
7560.6
7559.28
7558.08
7557.02
7556.07
7555.25
7554.54
7553.95
7553.46
7553.08
7552.8
7552.62
7552.53
7552.53
7552.62
7552.79
7553.04
7553.36
7553.76
7554.23
7554.76
7555.36
7556.02
7556.73
7557.49
7558.31
7559.17
7560.08
7561.02
7562.01
7563.02
7564.07
7565.15
7566.25
7567.37
7568.51
7569.67
7570.84
7572.03
7573.22
7574.41
7575.61
7576.81
7578.01
7579.2
7580.39
7581.57
7582.73
7583.89
7585.03
7586.15
7587.26
7588.34
7589.41
7590.45
7591.48
7592.47
7593.45
7594.4
7595.32
7596.22
7597.1
7597.94
7598.77
7599.56
7600.34
7601.09
7601.82
7602.52
7603.21
7603.88
7604.53
7605.16
7605.79
7606.4
7607
7607.6
7608.19
7608.77
7609.36
7609.95
7610.54
7611.14
7611.74
7612.36
7612.98
7613.62
7614.26
7614.91
7615.56
7616.21
7616.86
7617.51
7618.15
7618.79
7619.41
7620.03
7620.63
7621.22
7621.8
7622.35
7622.9
7623.42
7623.93
7624.42
7624.88
7625.33
7625.76
7626.16
7626.55
7626.91
7627.25
7627.57
7627.86
7628.14
7628.39
7628.63
7628.84
7629.03
7629.2
7629.35
7629.48
7629.6
7629.69
7629.76
7629.82
7629.86
7629.88
7629.89
7629.88
7629.86
7629.82
7629.76
7629.7
7629.62
7629.52
7629.42
7629.3
7629.18
7629.04
7628.89
7628.73
7628.56
7628.38
7628.2
7628.01
7627.8
7627.6
7627.38
7627.16
7626.93
7626.69
7626.45
7626.2
7625.95
7625.69
7625.43
7625.17
7624.9
7624.62
7624.35
7624.07
7623.78
7623.5
7623.21
7622.92
7622.63
7622.33
7622.03
7621.74
7621.43
7621.13
7620.82
7620.52
7620.21
7619.9
7619.59
7619.28
7618.96
7618.65
7618.33
7618.02
7617.73
7617.43
7617.11
7616.82
7616.4
7616.11
7615.98
7615.69
7615.47
7615.22
7614.96
7614.72
7614.44
7614.18
7613.88
7613.61
7613.3
7613.01
7612.72
7612.43
7612.11
7611.82
7611.41
7611.13
7610.97
7610.68
7610.44
7610.19
7609.92
7609.65
7609.36
7609.08
7608.78
7608.49
7608.18
7607.87
7607.55
7607.21
7606.92
7606.59
7606.29
7605.96
7605.6
7605.12
7604.93
7604.74
7604.47
7604.2
7603.95
7603.68
7603.4
7603.12
7602.82
7602.53
7602.22
7601.91
7601.6
7601.28
7600.96
7600.63
7600.3
7599.97
7599.63
7599.29
7598.95
7598.6
7598.25
7597.9
7597.55
7597.19
7596.84
7596.47
7596.11
7595.75
7595.38
7595.01
7594.64
7594.27
7593.89
7593.51
7593.14
7592.76
7592.37
7591.99
7591.6
7591.22
7590.83
7590.44
7590.05
7589.66
7589.26
7588.87
7588.47
7588.07
7587.67
7587.27
7586.87
7586.46
7586.06
7585.65
7585.24
7584.84
7584.43
7584.02
7583.61
7583.19
7582.78
7582.36
7581.95
7581.53
7581.11
7580.7
7580.28
7579.86
7579.43
7579.01
7578.59
7578.16
7577.74
7577.31
7576.89
7576.46
7576.03
7575.6
7575.17
7574.71
7574.38
7573.71
7061.31
7078.49
7088.42
7099.25
7110.21
7121.11
7132.12
7143.15
7154.18
7165.25
7176.34
7187.45
7198.54
7209.54
7220.34
7230.9
7241.23
7251.36
7261.35
7271.32
7281.47
7291.93
7302.74
7313.69
7324.76
7335.76
7346.59
7357.23
7367.76
7378.21
7388.58
7398.89
7409.16
7419.38
7429.56
7439.69
7449.77
7459.78
7469.73
7479.65
7489.52
7499.34
7509.08
7518.75
7528.35
7537.9
7547.38
7556.79
7566.12
7575.37
7584.55
7593.66
7602.7
7611.68
7620.57
7629.38
7638.13
7646.8
7655.4
7663.93
7672.37
7680.73
7689
7697.19
7705.3
7713.32
7721.22
7729.03
7736.74
7744.35
7751.87
7759.3
7766.63
7773.89
7781.03
7787.99
7794.82
7801.44
7807.86
7814.4
7821.31
7828.46
7836.13
7842.88
7845.42
7848.45
7862.83
7871
7880.31
7885.57
7893.15
7899.96
7907.06
7915.33
7922.65
7930.54
7938.02
7945.45
7952.72
7959.95
7966.49
7973.25
7979.63
7986.24
7994.99
8000.16
8003.98
8010.47
8016.39
8023.46
8029.66
8036.94
8043.03
8049.09
8054.87
8060.85
8066.56
8072.36
8077.89
8083.21
8088.45
8093.49
8098.77
8103.51
8107.13
8111.65
8115.42
8119.4
8123.11
8126.55
8129.36
8132.16
8134.35
8136.47
8138.13
8139.53
8140.47
8140.91
8140.96
8140.48
8139.58
8138.21
8136.37
8134.03
8131.19
8127.85
8124.02
8119.68
8114.84
8109.5
8103.67
8097.36
8090.56
8083.28
8075.52
8067.3
8058.63
8049.53
8040.01
8030.06
8019.7
8008.97
7997.87
7986.44
7974.68
7962.62
7950.28
7937.68
7924.86
7911.84
7898.65
7885.32
7871.87
7858.33
7844.74
7831.11
7817.49
7803.91
7790.37
7776.92
7763.56
7750.35
7737.3
7724.44
7711.77
7699.33
7687.12
7675.16
7663.47
7652.07
7640.95
7630.14
7619.63
7609.41
7599.5
7589.88
7580.56
7571.55
7562.82
7554.37
7546.18
7538.25
7530.57
7523.13
7515.91
7508.91
7502.11
7495.5
7489.07
7482.8
7476.69
7470.72
7464.89
7459.2
7453.62
7448.17
7442.84
7437.65
7432.61
7427.72
7422.99
7418.42
7414.02
7409.79
7405.74
7401.86
7398.16
7394.63
7391.28
7388.1
7385.1
7382.27
7379.6
7377.09
7374.75
7372.56
7370.53
7368.66
7366.92
7365.34
7363.89
7362.58
7361.4
7360.34
7359.41
7358.6
7357.91
7357.33
7356.85
7356.48
7356.21
7356.04
7355.97
7355.98
7356.08
7356.26
7356.52
7356.85
7357.26
7357.74
7358.29
7358.9
7359.56
7360.29
7361.06
7361.89
7362.76
7363.68
7364.63
7365.62
7366.65
7367.71
7368.79
7369.9
7371.03
7372.18
7373.35
7374.53
7375.72
7376.92
7378.12
7379.32
7380.53
7381.73
7382.93
7384.12
7385.3
7386.47
7387.63
7388.77
7389.9
7391
7392.09
7393.16
7394.21
7395.23
7396.23
7397.2
7398.15
7399.07
7399.97
7400.84
7401.68
7402.5
7403.3
7404.07
7404.82
7405.54
7406.25
7406.93
7407.6
7408.25
7408.88
7409.51
7410.12
7410.72
7411.32
7411.91
7412.5
7413.09
7413.68
7414.28
7414.88
7415.49
7416.1
7416.73
7417.37
7418.02
7418.67
7419.33
7419.99
7420.64
7421.3
7421.94
7422.59
7423.22
7423.84
7424.45
7425.04
7425.62
7426.19
7426.73
7427.26
7427.77
7428.26
7428.74
7429.19
7429.62
7430.02
7430.41
7430.77
7431.12
7431.44
7431.74
7432.01
7432.27
7432.5
7432.71
7432.91
7433.08
7433.23
7433.36
7433.47
7433.56
7433.64
7433.69
7433.73
7433.76
7433.76
7433.75
7433.73
7433.69
7433.63
7433.56
7433.48
7433.39
7433.28
7433.16
7433.03
7432.89
7432.74
7432.58
7432.41
7432.24
7432.05
7431.85
7431.65
7431.44
7431.22
7431
7430.77
7430.53
7430.29
7430.04
7429.79
7429.53
7429.27
7429
7428.73
7428.46
7428.18
7427.9
7427.62
7427.33
7427.04
7426.75
7426.46
7426.16
7425.86
7425.56
7425.26
7424.95
7424.64
7424.34
7424.03
7423.71
7423.4
7423.07
7422.77
7422.47
7422.17
7421.85
7421.54
7421.11
7420.81
7420.68
7420.39
7420.15
7419.87
7419.6
7419.33
7419.08
7418.8
7418.55
7418.26
7417.99
7417.73
7417.44
7417.18
7416.84
7416.57
7416.13
7415.86
7415.69
7415.41
7415.16
7414.89
7414.61
7414.33
7414.07
7413.78
7413.52
7413.22
7412.94
7412.61
7412.32
7411.97
7411.7
7411.37
7411.08
7410.74
7410.37
7409.87
7409.69
7409.49
7409.22
7408.93
7408.65
7408.36
7408.08
7407.81
7407.53
7407.24
7406.95
7406.66
7406.35
7406.05
7405.74
7405.42
7405.1
7404.78
7404.45
7404.12
7403.78
7403.45
7403.11
7402.76
7402.42
7402.07
7401.72
7401.36
7401.01
7400.65
7400.29
7399.92
7399.56
7399.19
7398.82
7398.45
7398.08
7397.7
7397.32
7396.94
7396.56
7396.18
7395.8
7395.41
7395.02
7394.64
7394.25
7393.85
7393.46
7393.07
7392.67
7392.27
7391.88
7391.48
7391.07
7390.67
7390.27
7389.86
7389.46
7389.05
7388.64
7388.23
7387.82
7387.41
7387
7386.58
7386.17
7385.75
7385.34
7384.92
7384.5
7384.08
7383.66
7383.24
7382.82
7382.39
7381.97
7381.54
7381.12
7380.69
7380.26
7379.83
7379.4
7378.98
7378.52
7378.18
7377.51
6864.63
6881.85
6891.8
6902.63
6913.6
6924.53
6935.53
6946.56
6957.58
6968.63
6979.66
6990.69
7001.67
7012.57
7023.33
7033.94
7044.4
7054.78
7065.13
7075.47
7085.88
7096.44
7107.18
7118.08
7129.04
7139.9
7150.64
7161.26
7171.78
7182.23
7192.62
7202.96
7213.25
7223.48
7233.66
7243.8
7253.9
7263.95
7273.93
7283.86
7293.74
7303.54
7313.27
7322.93
7332.54
7342.09
7351.58
7361.01
7370.35
7379.6
7388.78
7397.9
7406.95
7415.94
7424.86
7433.69
7442.44
7451.11
7459.71
7468.25
7476.71
7485.09
7493.4
7501.63
7509.77
7517.81
7525.75
7533.59
7541.34
7548.98
7556.53
7564
7571.38
7578.67
7585.88
7592.95
7599.94
7606.88
7613.74
7620.55
7627.23
7633.76
7640.29
7647.34
7654.77
7662.52
7670.57
7677.03
7678.97
7681.13
7696.93
7704.92
7711.62
7719.12
7726.06
7732.93
7741.33
7748.38
7756.01
7762.92
7769.94
7776.45
7783.54
7789.2
7795.98
7801.36
7808.82
7815.83
7824.23
7830.59
7833.58
7840.28
7846.13
7852.66
7859.45
7865.56
7871.04
7876.61
7882.09
7887.53
7892.88
7898.08
7902.82
7907.73
7912.23
7917.23
7921.38
7924.08
7927.97
7930.91
7934.12
7937.14
7939.69
7941.69
7943.44
7944.76
7945.73
7946.22
7946.43
7946.09
7945.27
7943.97
7942.15
7939.85
7937.06
7933.77
7929.96
7925.65
7920.82
7915.49
7909.68
7903.37
7896.57
7889.27
7881.5
7873.27
7864.59
7855.46
7845.9
7835.91
7825.52
7814.73
7803.58
7792.08
7780.25
7768.12
7755.7
7743.03
7730.12
7717.02
7703.73
7690.31
7676.77
7663.14
7649.46
7635.74
7622.03
7608.35
7594.73
7581.19
7567.76
7554.47
7541.35
7528.41
7515.67
7503.16
7490.89
7478.87
7467.13
7455.67
7444.5
7433.62
7423.06
7412.79
7402.84
7393.17
7383.81
7374.74
7365.97
7357.48
7349.25
7341.29
7333.57
7326.09
7318.85
7311.82
7304.99
7298.35
7291.89
7285.59
7279.46
7273.48
7267.64
7261.93
7256.34
7250.88
7245.56
7240.38
7235.34
7230.45
7225.72
7221.16
7216.76
7212.55
7208.51
7204.64
7200.94
7197.43
7194.09
7190.93
7187.94
7185.12
7182.47
7179.98
7177.66
7175.49
7173.48
7171.62
7169.91
7168.35
7166.92
7165.62
7164.46
7163.42
7162.51
7161.72
7161.05
7160.49
7160.03
7159.68
7159.43
7159.27
7159.22
7159.25
7159.36
7159.56
7159.84
7160.19
7160.62
7161.11
7161.68
7162.3
7162.98
7163.72
7164.51
7165.35
7166.24
7167.17
7168.14
7169.15
7170.19
7171.26
7172.36
7173.48
7174.63
7175.79
7176.96
7178.16
7179.36
7180.57
7181.78
7182.99
7184.21
7185.42
7186.62
7187.82
7189
7190.18
7191.34
7192.49
7193.62
7194.73
7195.82
7196.89
7197.93
7198.96
7199.95
7200.92
7201.87
7202.79
7203.69
7204.55
7205.4
7206.21
7207.01
7207.77
7208.52
7209.24
7209.94
7210.62
7211.29
7211.94
7212.57
7213.19
7213.8
7214.41
7215.01
7215.6
7216.2
7216.79
7217.39
7217.99
7218.6
7219.21
7219.84
7220.47
7221.11
7221.77
7222.43
7223.09
7223.76
7224.42
7225.08
7225.74
7226.39
7227.03
7227.66
7228.27
7228.88
7229.46
7230.04
7230.59
7231.13
7231.64
7232.14
7232.62
7233.07
7233.51
7233.92
7234.31
7234.68
7235.02
7235.34
7235.64
7235.92
7236.18
7236.41
7236.63
7236.82
7236.99
7237.14
7237.27
7237.38
7237.48
7237.55
7237.6
7237.64
7237.66
7237.67
7237.66
7237.63
7237.59
7237.53
7237.46
7237.38
7237.28
7237.17
7237.05
7236.92
7236.78
7236.63
7236.47
7236.29
7236.11
7235.92
7235.73
7235.52
7235.31
7235.09
7234.86
7234.63
7234.39
7234.15
7233.9
7233.64
7233.38
7233.12
7232.85
7232.58
7232.3
7232.02
7231.74
7231.45
7231.16
7230.88
7230.58
7230.29
7229.99
7229.69
7229.4
7229.09
7228.8
7228.47
7228.18
7227.84
7227.54
7227.24
7226.94
7226.61
7226.31
7225.86
7225.56
7225.43
7225.13
7224.89
7224.59
7224.32
7224.03
7223.78
7223.5
7223.24
7222.96
7222.69
7222.45
7222.15
7221.91
7221.57
7221.3
7220.87
7220.59
7220.43
7220.15
7219.9
7219.63
7219.33
7219.06
7218.78
7218.51
7218.23
7217.94
7217.65
7217.36
7217.05
7216.77
7216.48
7216.18
7215.88
7215.56
7215.16
7214.67
7214.49
7214.29
7214
7213.71
7213.42
7213.12
7212.83
7212.55
7212.26
7211.98
7211.69
7211.4
7211.1
7210.81
7210.5
7210.2
7209.89
7209.57
7209.25
7208.93
7208.61
7208.28
7207.94
7207.61
7207.27
7206.93
7206.58
7206.24
7205.89
7205.53
7205.18
7204.82
7204.46
7204.1
7203.74
7203.37
7203
7202.63
7202.26
7201.89
7201.51
7201.14
7200.76
7200.38
7199.99
7199.61
7199.22
7198.84
7198.45
7198.06
7197.67
7197.27
7196.88
7196.48
7196.08
7195.69
7195.28
7194.88
7194.48
7194.08
7193.67
7193.27
7192.86
7192.45
7192.04
7191.63
7191.22
7190.81
7190.39
7189.98
7189.56
7189.14
7188.73
7188.31
7187.89
7187.47
7187.04
7186.62
7186.2
7185.77
7185.35
7184.92
7184.5
7184.07
7183.64
7183.21
7182.78
7182.32
7181.99
7181.32
6667.79
6685.07
6695.04
6705.88
6716.88
6727.82
6738.84
6749.87
6760.91
6771.95
6782.97
6793.96
6804.87
6815.7
6826.44
6837.1
6847.7
6858.28
6868.85
6879.44
6890.08
6900.79
6911.54
6922.35
6933.16
6943.93
6954.62
6965.23
6975.77
6986.24
6996.66
7007.03
7017.35
7027.61
7037.81
7047.97
7058.08
7068.15
7078.17
7088.12
7097.99
7107.8
7117.53
7127.2
7136.82
7146.38
7155.88
7165.31
7174.67
7183.93
7193.12
7202.25
7211.32
7220.33
7229.27
7238.12
7246.87
7255.55
7264.16
7272.72
7281.21
7289.62
7297.95
7306.21
7314.38
7322.45
7330.43
7338.32
7346.12
7353.81
7361.4
7368.91
7376.34
7383.69
7390.98
7398.19
7405.32
7412.35
7419.29
7426.18
7433.11
7440.06
7447.03
7453.92
7460.6
7467.16
7473.97
7481.05
7488.18
7496.52
7504.15
7505.5
7505.75
7523.17
7531.48
7538.05
7545.71
7551.79
7558.51
7566.77
7573.58
7580.7
7587.53
7594.06
7600.84
7607.37
7613.52
7620.15
7626.17
7633.04
7639.57
7649.69
7654.82
7656.56
7662.86
7668.5
7674.66
7681.45
7687.15
7692.18
7697.28
7702.32
7707.33
7712.26
7716.99
7721.14
7725.67
7729.55
7734.24
7737.79
7739.45
7742.84
7744.73
7747.34
7749.27
7751.16
7752.36
7752.78
7753
7752.51
7751.72
7750.48
7748.76
7746.49
7743.75
7740.45
7736.66
7732.36
7727.55
7722.25
7716.44
7710.13
7703.31
7696.01
7688.22
7679.97
7671.26
7662.1
7652.48
7642.45
7632
7621.15
7609.92
7598.34
7586.43
7574.2
7561.68
7548.89
7535.87
7522.65
7509.25
7495.7
7482.04
7468.28
7454.47
7440.63
7426.8
7412.99
7399.25
7385.59
7372.05
7358.66
7345.44
7332.4
7319.56
7306.95
7294.59
7282.49
7270.67
7259.13
7247.88
7236.93
7226.29
7215.95
7205.93
7196.2
7186.78
7177.65
7168.81
7160.26
7151.98
7143.96
7136.19
7128.66
7121.38
7114.3
7107.43
7100.76
7094.27
7087.95
7081.8
7075.79
7069.93
7064.21
7058.62
7053.16
7047.85
7042.67
7037.64
7032.76
7028.04
7023.49
7019.12
7014.92
7010.89
7007.03
7003.36
6999.86
6996.54
6993.4
6990.44
6987.65
6985.02
6982.56
6980.26
6978.12
6976.13
6974.3
6972.62
6971.08
6969.67
6968.4
6967.27
6966.26
6965.38
6964.62
6963.97
6963.43
6963
6962.67
6962.45
6962.32
6962.28
6962.34
6962.48
6962.7
6963
6963.37
6963.82
6964.34
6964.92
6965.57
6966.27
6967.03
6967.85
6968.71
6969.62
6970.56
6971.55
6972.58
6973.64
6974.73
6975.85
6976.99
6978.15
6979.33
6980.52
6981.73
6982.94
6984.16
6985.39
6986.62
6987.84
6989.06
6990.28
6991.48
6992.68
6993.86
6995.03
6996.18
6997.31
6998.43
6999.52
7000.59
7001.64
7002.66
7003.66
7004.63
7005.58
7006.49
7007.38
7008.25
7009.09
7009.9
7010.69
7011.45
7012.19
7012.91
7013.61
7014.29
7014.95
7015.6
7016.23
7016.86
7017.47
7018.08
7018.68
7019.28
7019.88
7020.48
7021.08
7021.69
7022.3
7022.93
7023.56
7024.2
7024.85
7025.51
7026.18
7026.85
7027.53
7028.2
7028.87
7029.54
7030.2
7030.85
7031.49
7032.11
7032.73
7033.32
7033.9
7034.47
7035.01
7035.54
7036.04
7036.53
7036.99
7037.43
7037.84
7038.24
7038.61
7038.96
7039.29
7039.59
7039.87
7040.13
7040.37
7040.58
7040.77
7040.95
7041.1
7041.23
7041.34
7041.43
7041.5
7041.55
7041.59
7041.61
7041.61
7041.6
7041.57
7041.52
7041.46
7041.39
7041.31
7041.21
7041.1
7040.97
7040.84
7040.69
7040.54
7040.37
7040.2
7040.01
7039.82
7039.62
7039.42
7039.2
7038.98
7038.75
7038.52
7038.28
7038.03
7037.78
7037.52
7037.26
7036.99
7036.72
7036.44
7036.17
7035.89
7035.6
7035.31
7035.02
7034.73
7034.44
7034.15
7033.85
7033.56
7033.24
7032.94
7032.61
7032.31
7032.02
7031.72
7031.38
7031.08
7030.62
7030.32
7030.19
7029.89
7029.65
7029.35
7029.07
7028.77
7028.52
7028.23
7027.97
7027.67
7027.4
7027.13
7026.87
7026.57
7026.3
7025.89
7025.61
7025.48
7025.19
7024.98
7024.68
7024.43
7024.11
7023.85
7023.56
7023.29
7023.01
7022.72
7022.43
7022.14
7021.83
7021.56
7021.28
7021
7020.73
7020.37
7019.97
7019.48
7019.31
7019.11
7018.82
7018.52
7018.22
7017.91
7017.62
7017.33
7017.04
7016.75
7016.46
7016.16
7015.87
7015.57
7015.27
7014.97
7014.67
7014.36
7014.05
7013.74
7013.42
7013.1
7012.77
7012.44
7012.11
7011.78
7011.44
7011.1
7010.76
7010.41
7010.06
7009.71
7009.36
7009
7008.65
7008.29
7007.92
7007.56
7007.19
7006.82
7006.45
7006.08
7005.71
7005.33
7004.95
7004.57
7004.19
7003.81
7003.43
7003.04
7002.65
7002.26
7001.87
7001.48
7001.09
7000.69
7000.29
6999.9
6999.5
6999.1
6998.7
6998.29
6997.89
6997.48
6997.08
6996.67
6996.26
6995.85
6995.44
6995.03
6994.62
6994.2
6993.79
6993.37
6992.95
6992.53
6992.12
6991.7
6991.27
6990.85
6990.43
6990.01
6989.58
6989.16
6988.73
6988.3
6987.88
6987.45
6987.02
6986.59
6986.13
6985.79
6985.12
6470.79
6488.15
6498.14
6509
6520.02
6530.98
6542.02
6553.07
6564.11
6575.16
6586.18
6597.17
6608.06
6618.86
6629.62
6640.33
6651.02
6661.76
6672.49
6683.24
6694
6704.78
6715.58
6726.39
6737.19
6747.93
6758.61
6769.23
6779.78
6790.27
6800.72
6811.13
6821.47
6831.76
6841.99
6852.17
6862.3
6872.39
6882.42
6892.4
6902.29
6912.12
6921.87
6931.56
6941.19
6950.77
6960.29
6969.73
6979.1
6988.38
6997.58
7006.72
7015.82
7024.85
7033.8
7042.67
7051.45
7060.14
7068.77
7077.34
7085.85
7094.3
7102.66
7110.95
7119.15
7127.25
7135.27
7143.21
7151.07
7158.81
7166.45
7174
7181.47
7188.88
7196.23
7203.53
7210.74
7217.9
7224.96
7231.95
7238.95
7245.93
7252.85
7259.78
7266.69
7273.71
7280.69
7287.52
7294.09
7300.5
7307.22
7314.11
7322.98
7331.14
7331.93
7330.12
7349.11
7357.72
7363.46
7370.8
7376.9
7382.69
7391
7397.14
7404.43
7410.8
7417.62
7424.04
7431.13
7437.78
7443.77
7450.58
7456.23
7462.91
7473.44
7478.07
7478.61
7484.73
7489.99
7495.92
7502.65
7507.97
7512.5
7517.07
7521.66
7526.13
7530.58
7534.71
7538.24
7542.24
7545.42
7549.81
7552.45
7553.24
7555.44
7556.91
7558
7558.78
7559.59
7559.59
7558.81
7557.69
7555.85
7553.64
7551.01
7547.83
7544.09
7539.84
7535.02
7529.73
7523.94
7517.64
7510.82
7503.51
7495.71
7487.44
7478.7
7469.49
7459.83
7449.73
7439.21
7428.28
7416.96
7405.27
7393.23
7380.87
7368.22
7355.3
7342.14
7328.77
7315.21
7301.5
7287.68
7273.76
7259.79
7245.8
7231.8
7217.84
7203.94
7190.14
7176.46
7162.93
7149.57
7136.39
7123.42
7110.69
7098.21
7086
7074.07
7062.43
7051.07
7040.02
7029.27
7018.84
7008.72
6998.91
6989.4
6980.19
6971.27
6962.64
6954.28
6946.2
6938.37
6930.78
6923.43
6916.31
6909.39
6902.67
6896.15
6889.8
6883.62
6877.59
6871.72
6865.99
6860.4
6854.95
6849.65
6844.49
6839.48
6834.62
6829.92
6825.4
6821.04
6816.86
6812.86
6809.03
6805.39
6801.92
6798.63
6795.52
6792.58
6789.82
6787.23
6784.8
6782.54
6780.43
6778.48
6776.69
6775.04
6773.53
6772.16
6770.93
6769.83
6768.86
6768.01
6767.28
6766.66
6766.16
6765.76
6765.46
6765.27
6765.17
6765.16
6765.25
6765.41
6765.67
6766
6766.4
6766.88
6767.42
6768.03
6768.7
6769.43
6770.22
6771.06
6771.95
6772.88
6773.86
6774.87
6775.92
6777
6778.12
6779.26
6780.42
6781.6
6782.8
6784.02
6785.24
6786.47
6787.71
6788.96
6790.2
6791.44
6792.67
6793.9
6795.12
6796.33
6797.52
6798.69
6799.85
6800.99
6802.11
6803.21
6804.28
6805.33
6806.35
6807.35
6808.32
6809.26
6810.18
6811.06
6811.92
6812.76
6813.57
6814.35
6815.11
6815.85
6816.56
6817.26
6817.94
6818.6
6819.25
6819.88
6820.51
6821.12
6821.73
6822.34
6822.94
6823.55
6824.16
6824.77
6825.39
6826.01
6826.64
6827.28
6827.94
6828.6
6829.26
6829.94
6830.62
6831.3
6831.99
6832.67
6833.35
6834.02
6834.68
6835.33
6835.97
6836.6
6837.21
6837.8
6838.37
6838.93
6839.46
6839.98
6840.47
6840.94
6841.38
6841.81
6842.21
6842.59
6842.94
6843.27
6843.58
6843.86
6844.12
6844.36
6844.57
6844.77
6844.94
6845.09
6845.22
6845.33
6845.42
6845.49
6845.54
6845.58
6845.59
6845.59
6845.57
6845.54
6845.49
6845.43
6845.36
6845.27
6845.16
6845.05
6844.92
6844.79
6844.64
6844.48
6844.31
6844.13
6843.94
6843.75
6843.54
6843.33
6843.11
6842.89
6842.66
6842.42
6842.17
6841.93
6841.67
6841.41
6841.14
6840.88
6840.6
6840.32
6840.04
6839.76
6839.46
6839.18
6838.88
6838.59
6838.29
6837.99
6837.67
6837.37
6837.11
6836.8
6836.54
6836.18
6835.89
6835.42
6835.13
6835
6834.7
6834.46
6834.15
6833.87
6833.57
6833.32
6833.02
6832.76
6832.45
6832.18
6831.91
6831.64
6831.34
6831.06
6830.66
6830.37
6830.27
6829.97
6829.77
6829.47
6829.22
6828.9
6828.64
6828.35
6828.09
6827.8
6827.51
6827.22
6826.93
6826.61
6826.35
6826.05
6825.77
6825.49
6825.09
6824.61
6824.46
6824.25
6823.97
6823.68
6823.36
6823.06
6822.75
6822.45
6822.15
6821.85
6821.56
6821.26
6820.96
6820.66
6820.36
6820.07
6819.76
6819.46
6819.16
6818.85
6818.54
6818.23
6817.91
6817.59
6817.27
6816.95
6816.62
6816.29
6815.96
6815.62
6815.28
6814.94
6814.59
6814.25
6813.9
6813.54
6813.19
6812.83
6812.47
6812.11
6811.75
6811.39
6811.02
6810.65
6810.28
6809.91
6809.53
6809.15
6808.78
6808.4
6808.01
6807.63
6807.24
6806.86
6806.47
6806.08
6805.69
6805.3
6804.9
6804.51
6804.11
6803.71
6803.31
6802.91
6802.51
6802.11
6801.7
6801.3
6800.89
6800.48
6800.07
6799.66
6799.25
6798.84
6798.43
6798.01
6797.6
6797.18
6796.76
6796.35
6795.93
6795.51
6795.09
6794.66
6794.24
6793.82
6793.39
6792.97
6792.54
6792.11
6791.69
6791.26
6790.83
6790.4
6789.94
6789.6
6788.93
6273.63
6291.07
6301.1
6311.99
6323.04
6334.03
6345.09
6356.17
6367.23
6378.3
6389.35
6400.36
6411.26
6422.09
6432.88
6443.65
6454.45
6465.3
6476.15
6487
6497.85
6508.68
6519.52
6530.35
6541.16
6551.92
6562.61
6573.24
6583.81
6594.33
6604.81
6615.25
6625.63
6635.96
6646.23
6656.43
6666.57
6676.67
6686.73
6696.73
6706.66
6716.52
6726.3
6736.01
6745.66
6755.27
6764.82
6774.29
6783.67
6792.97
6802.19
6811.34
6820.44
6829.5
6838.49
6847.4
6856.21
6864.94
6873.58
6882.15
6890.67
6899.13
6907.53
6915.84
6924.07
6932.21
6940.27
6948.25
6956.15
6963.95
6971.64
6979.23
6986.75
6994.2
7001.61
7008.97
7016.27
7023.51
7030.67
7037.76
7044.82
7051.83
7058.84
7065.84
7072.83
7079.82
7086.67
7093.46
7100.29
7107.16
7113.93
7120.4
7126.73
7133.41
7140.22
7149.43
7157.92
7158.07
7154.47
7174.7
7183.94
7188.38
7195.7
7201.75
7207.13
7215.27
7221.71
7228.69
7235.59
7241.9
7248.36
7254.96
7261.52
7267
7273.59
7278.9
7285.39
7296.68
7300.78
7299.81
7305.59
7310.38
7315.95
7322.55
7327.55
7331.29
7335.58
7339.25
7343.64
7347.45
7351.07
7354.65
7357.59
7360.82
7363.02
7366.56
7368.11
7366.74
7367.56
7366.61
7366.22
7365.58
7364.2
7361.91
7359.29
7355.94
7352.21
7348.05
7343.33
7338.06
7332.28
7325.94
7319.09
7311.77
7303.96
7295.66
7286.88
7277.6
7267.87
7257.69
7247.09
7236.07
7224.64
7212.83
7200.65
7188.14
7175.33
7162.24
7148.91
7135.36
7121.62
7107.71
7093.69
7079.58
7065.41
7051.22
7037.03
7022.88
7008.79
6994.8
6980.94
6967.23
6953.69
6940.35
6927.22
6914.33
6901.7
6889.34
6877.27
6865.48
6854
6842.81
6831.94
6821.38
6811.15
6801.22
6791.6
6782.28
6773.26
6764.53
6756.09
6747.92
6740.02
6732.36
6724.94
6717.75
6710.78
6704.02
6697.46
6691.08
6684.87
6678.83
6672.95
6667.22
6661.64
6656.21
6650.92
6645.78
6640.8
6635.98
6631.32
6626.83
6622.51
6618.36
6614.39
6610.61
6607
6603.58
6600.33
6597.26
6594.37
6591.64
6589.09
6586.71
6584.49
6582.43
6580.52
6578.77
6577.16
6575.7
6574.38
6573.19
6572.13
6571.2
6570.39
6569.7
6569.12
6568.66
6568.3
6568.04
6567.89
6567.82
6567.85
6567.97
6568.18
6568.46
6568.83
6569.27
6569.77
6570.35
6571
6571.7
6572.46
6573.28
6574.15
6575.07
6576.04
6577.04
6578.09
6579.17
6580.28
6581.42
6582.59
6583.78
6584.98
6586.21
6587.45
6588.7
6589.96
6591.22
6592.48
6593.74
6595
6596.25
6597.49
6598.72
6599.94
6601.15
6602.33
6603.5
6604.65
6605.77
6606.87
6607.95
6609
6610.02
6611.02
6611.99
6612.93
6613.84
6614.73
6615.59
6616.42
6617.22
6618
6618.76
6619.49
6620.2
6620.9
6621.57
6622.24
6622.88
6623.52
6624.15
6624.77
6625.38
6626
6626.61
6627.22
6627.84
6628.46
6629.08
6629.72
6630.36
6631.01
6631.67
6632.35
6633.02
6633.71
6634.4
6635.09
6635.79
6636.48
6637.17
6637.86
6638.53
6639.2
6639.85
6640.49
6641.11
6641.72
6642.3
6642.87
6643.42
6643.94
6644.44
6644.92
6645.38
6645.81
6646.22
6646.6
6646.96
6647.29
6647.61
6647.89
6648.16
6648.4
6648.61
6648.81
6648.98
6649.13
6649.26
6649.36
6649.45
6649.52
6649.57
6649.6
6649.61
6649.61
6649.59
6649.55
6649.5
6649.43
6649.35
6649.26
6649.15
6649.03
6648.9
6648.76
6648.6
6648.44
6648.27
6648.09
6647.9
6647.7
6647.49
6647.27
6647.06
6646.82
6646.59
6646.35
6646.1
6645.84
6645.59
6645.32
6645.06
6644.78
6644.51
6644.22
6643.94