/*--------------------------------*- C++ -*----------------------------------*\
| =========                 |                                                 |
| \\      /  F ield         | OpenFOAM: The Open Source CFD Toolbox           |
|  \\    /   O peration     | Version:  v2006                                 |
|   \\  /    A nd           | Website:  www.openfoam.com                      |
|    \\/     M anipulation  |                                                 |
\*---------------------------------------------------------------------------*/
FoamFile
{
    version     2.0;
    format      ascii;
    class       volScalarField;
    location    "5.3";
    object      p_rgh;
}
// * * * * * * * * * * * * * * * * * * * * * * * * * * * * * * * * * * * * * //

dimensions      [1 -1 -2 0 0 0 0];


internalField   nonuniform List<scalar> 
33000
(
7552.27
7569.4
7579.32
7590.15
7601.1
7612.02
7623.02
7634.05
7645.14
7656.3
7667.57
7679
7690.64
7702.25
7713.55
7724.45
7734.89
7744.76
7754
7763.1
7772.34
7782.09
7792.75
7803.88
7815.1
7826.12
7836.86
7847.42
7857.87
7868.27
7878.64
7888.98
7899.29
7909.52
7919.69
7929.78
7939.8
7949.82
7959.78
7969.67
7979.45
7989.24
7999.03
8008.76
8018.39
8027.92
8037.33
8046.65
8056
8065.31
8074.54
8083.67
8092.69
8101.62
8110.49
8119.33
8128.09
8136.76
8145.36
8153.87
8162.31
8170.64
8178.87
8186.98
8194.97
8202.97
8210.88
8218.68
8226.36
8233.94
8241.44
8248.83
8256.11
8263.25
8270.22
8276.98
8283.55
8289.29
8292.26
8296.84
8309.07
8314.95
8323.09
8330.68
8337.61
8345.01
8353.3
8360.7
8368.29
8375.47
8383.26
8390.68
8398.25
8405.93
8413.62
8421.29
8429.34
8436.98
8445.41
8452.4
8457.18
8463.85
8470.12
8476.4
8482.93
8489.19
8495.24
8501.51
8507.72
8514.34
8520.41
8526.82
8532.92
8538.99
8544.9
8550.79
8556.66
8562.3
8567.45
8572.97
8578.04
8583.09
8588
8592.7
8597.03
8601.29
8605.19
8608.95
8612.47
8615.73
8618.62
8621.26
8623.52
8625.5
8627.09
8628.31
8629.15
8629.56
8629.55
8629.06
8628.12
8626.7
8624.81
8622.43
8619.55
8616.17
8612.31
8607.97
8603.14
8597.79
8591.95
8585.6
8578.82
8571.57
8563.83
8555.64
8546.99
8537.9
8528.4
8518.49
8508.2
8497.53
8486.49
8475.11
8463.41
8451.42
8439.16
8426.65
8413.9
8400.97
8387.87
8374.63
8361.27
8347.81
8334.3
8320.79
8307.26
8293.75
8280.28
8266.9
8253.65
8240.51
8227.52
8214.74
8202.15
8189.77
8177.61
8165.71
8154.08
8142.74
8131.67
8120.91
8110.42
8100.24
8090.38
8080.82
8071.56
8062.58
8053.89
8045.46
8037.3
8029.41
8021.78
8014.38
8007.2
8000.22
7993.44
7986.85
7980.44
7974.2
7968.1
7962.15
7956.34
7950.67
7945.1
7939.65
7934.32
7929.13
7924.1
7919.22
7914.5
7909.93
7905.52
7901.29
7897.23
7893.35
7889.65
7886.11
7882.75
7879.55
7876.53
7873.68
7871
7868.48
7866.12
7863.92
7861.87
7859.98
7858.23
7856.62
7855.15
7853.82
7852.62
7851.55
7850.6
7849.77
7849.05
7848.45
7847.97
7847.58
7847.29
7847.1
7847
7847
7847.08
7847.25
7847.49
7847.81
7848.21
7848.67
7849.19
7849.79
7850.44
7851.15
7851.91
7852.71
7853.57
7854.48
7855.42
7856.4
7857.41
7858.45
7859.52
7860.62
7861.74
7862.88
7864.03
7865.2
7866.38
7867.57
7868.76
7869.95
7871.15
7872.35
7873.54
7874.72
7875.9
7877.06
7878.21
7879.35
7880.48
7881.58
7882.67
7883.73
7884.78
7885.8
7886.8
7887.77
7888.72
7889.65
7890.55
7891.42
7892.27
7893.1
7893.9
7894.67
7895.42
7896.15
7896.86
7897.55
7898.22
7898.87
7899.5
7900.13
7900.74
7901.34
7901.94
7902.53
7903.11
7903.7
7904.29
7904.88
7905.47
7906.08
7906.69
7907.31
7907.94
7908.58
7909.23
7909.88
7910.53
7911.17
7911.82
7912.46
7913.09
7913.71
7914.32
7914.92
7915.51
7916.08
7916.64
7917.18
7917.7
7918.21
7918.69
7919.16
7919.6
7920.03
7920.43
7920.81
7921.17
7921.51
7921.83
7922.13
7922.4
7922.66
7922.89
7923.1
7923.29
7923.46
7923.61
7923.75
7923.86
7923.95
7924.03
7924.08
7924.12
7924.15
7924.16
7924.15
7924.12
7924.08
7924.03
7923.97
7923.89
7923.79
7923.69
7923.57
7923.45
7923.31
7923.16
7923
7922.84
7922.66
7922.47
7922.28
7922.08
7921.87
7921.66
7921.44
7921.21
7920.97
7920.73
7920.48
7920.23
7919.98
7919.72
7919.45
7919.18
7918.91
7918.63
7918.35
7918.07
7917.79
7917.5
7917.21
7916.92
7916.62
7916.32
7916.02
7915.72
7915.42
7915.11
7914.81
7914.5
7914.19
7913.88
7913.57
7913.25
7912.95
7912.64
7912.32
7912.02
7911.7
7911.39
7911.11
7910.81
7910.5
7910.25
7909.85
7909.6
7909.46
7909.2
7908.98
7908.71
7908.45
7908.17
7907.89
7907.6
7907.3
7907.01
7906.7
7906.4
7906.12
7905.81
7905.5
7905.24
7904.85
7904.59
7904.43
7904.15
7903.92
7903.63
7903.37
7903.06
7902.77
7902.46
7902.16
7901.84
7901.53
7901.2
7900.88
7900.54
7900.24
7899.93
7899.61
7899.31
7898.99
7898.54
7898.38
7898.18
7897.93
7897.66
7897.39
7897.1
7896.81
7896.5
7896.2
7895.88
7895.57
7895.25
7894.92
7894.59
7894.26
7893.92
7893.58
7893.24
7892.9
7892.55
7892.2
7891.84
7891.49
7891.13
7890.77
7890.41
7890.04
7889.67
7889.31
7888.93
7888.56
7888.19
7887.81
7887.43
7887.05
7886.67
7886.29
7885.9
7885.51
7885.13
7884.74
7884.34
7883.95
7883.56
7883.16
7882.76
7882.37
7881.97
7881.57
7881.16
7880.76
7880.36
7879.95
7879.54
7879.13
7878.72
7878.31
7877.9
7877.49
7877.08
7876.66
7876.25
7875.83
7875.41
7874.99
7874.57
7874.15
7873.73
7873.31
7872.89
7872.46
7872.04
7871.61
7871.18
7870.76
7870.33
7869.9
7869.47
7869.01
7868.67
7868
7552.12
7569.26
7579.18
7590.02
7600.97
7611.87
7622.87
7633.91
7644.96
7656.07
7667.22
7678.47
7689.79
7701.03
7712.04
7722.73
7732.99
7742.75
7752.08
7761.18
7770.32
7779.97
7790.37
7802.07
7814.45
7825.96
7836.86
7847.52
7858.03
7868.39
7878.74
7889.1
7899.42
7909.65
7919.81
7929.83
7939.88
7949.89
7959.89
7969.79
7979.51
7989.29
7999.04
8008.86
8018.56
8028.09
8037.48
8046.72
8056.04
8065.32
8074.66
8083.84
8092.87
8101.74
8110.56
8119.41
8128.24
8136.92
8145.51
8154.03
8162.47
8170.84
8179.07
8187.15
8195.11
8203.09
8211.07
8218.9
8226.49
8234.06
8241.62
8249.12
8256.43
8263.58
8270.53
8277.29
8283.92
8290.51
8297.1
8304.03
8310.5
8313.4
8317.5
8330.92
8338.13
8346.06
8353.95
8360.62
8367.44
8374.65
8382.94
8390.2
8398.24
8405.6
8413.35
8420.67
8428.61
8436.02
8443.71
8450.38
8457.38
8464.55
8470.84
8475.19
8482.18
8488.43
8495.29
8501.61
8508.43
8514.79
8520.64
8526.95
8533.03
8539.07
8545.06
8550.99
8556.75
8562.39
8567.87
8573.44
8578.64
8583.08
8588.14
8592.69
8597.26
8601.56
8605.65
8609.28
8612.83
8616.02
8618.98
8621.62
8623.95
8625.96
8627.58
8628.78
8629.64
8630.05
8630.09
8629.64
8628.73
8627.32
8625.44
8623.1
8620.23
8616.84
8612.99
8608.65
8603.84
8598.52
8592.66
8586.3
8579.51
8572.25
8564.55
8556.35
8547.69
8538.58
8529.07
8519.15
8508.85
8498.17
8487.12
8475.72
8463.98
8451.96
8439.69
8427.15
8414.37
8401.39
8388.29
8375.03
8361.63
8348.11
8334.59
8321.06
8307.5
8293.94
8280.45
8267.06
8253.78
8240.62
8227.59
8214.78
8202.19
8189.8
8177.61
8165.68
8154.03
8142.68
8131.61
8120.82
8110.31
8100.12
8090.23
8080.65
8071.39
8062.41
8053.7
8045.25
8037.08
8029.18
8021.54
8014.14
8006.94
7999.95
7993.15
7986.56
7980.16
7973.91
7967.8
7961.83
7956.02
7950.35
7944.79
7939.33
7933.99
7928.8
7923.75
7918.88
7914.17
7909.6
7905.18
7900.94
7896.88
7893
7889.3
7885.79
7882.43
7879.23
7876.2
7873.36
7870.68
7868.17
7865.84
7863.64
7861.59
7859.69
7857.95
7856.35
7854.88
7853.55
7852.36
7851.31
7850.37
7849.54
7848.82
7848.23
7847.76
7847.38
7847.1
7846.91
7846.81
7846.82
7846.9
7847.07
7847.33
7847.66
7848.06
7848.52
7849.05
7849.65
7850.32
7851.03
7851.78
7852.59
7853.45
7854.37
7855.32
7856.31
7857.32
7858.36
7859.43
7860.54
7861.67
7862.81
7863.97
7865.14
7866.33
7867.52
7868.71
7869.9
7871.1
7872.3
7873.5
7874.69
7875.87
7877.03
7878.18
7879.32
7880.44
7881.55
7882.64
7883.71
7884.75
7885.77
7886.77
7887.74
7888.7
7889.62
7890.52
7891.39
7892.24
7893.06
7893.86
7894.63
7895.38
7896.11
7896.82
7897.51
7898.17
7898.82
7899.46
7900.08
7900.7
7901.3
7901.89
7902.48
7903.07
7903.66
7904.25
7904.84
7905.44
7906.04
7906.66
7907.28
7907.91
7908.56
7909.21
7909.86
7910.51
7911.16
7911.81
7912.45
7913.09
7913.71
7914.33
7914.93
7915.52
7916.09
7916.65
7917.2
7917.72
7918.23
7918.71
7919.18
7919.63
7920.06
7920.46
7920.84
7921.21
7921.55
7921.87
7922.16
7922.44
7922.69
7922.93
7923.14
7923.33
7923.5
7923.65
7923.78
7923.9
7923.99
7924.06
7924.12
7924.16
7924.18
7924.19
7924.18
7924.16
7924.12
7924.06
7924
7923.92
7923.82
7923.72
7923.6
7923.47
7923.34
7923.19
7923.03
7922.86
7922.68
7922.5
7922.31
7922.1
7921.89
7921.68
7921.46
7921.23
7920.99
7920.75
7920.5
7920.25
7919.99
7919.73
7919.47
7919.2
7918.92
7918.65
7918.37
7918.08
7917.8
7917.51
7917.22
7916.93
7916.63
7916.33
7916.04
7915.73
7915.43
7915.12
7914.82
7914.51
7914.2
7913.89
7913.58
7913.26
7912.95
7912.63
7912.32
7912.03
7911.73
7911.41
7911.12
7910.7
7910.41
7910.28
7909.99
7909.77
7909.52
7909.26
7909.02
7908.74
7908.48
7908.18
7907.91
7907.6
7907.31
7907.02
7906.73
7906.41
7906.12
7905.71
7905.43
7905.27
7904.98
7904.74
7904.49
7904.22
7903.95
7903.66
7903.38
7903.08
7902.79
7902.48
7902.16
7901.85
7901.5
7901.21
7900.89
7900.59
7900.26
7899.9
7899.42
7899.23
7899.05
7898.78
7898.52
7898.26
7898
7897.72
7897.43
7897.14
7896.84
7896.54
7896.23
7895.91
7895.59
7895.27
7894.94
7894.61
7894.27
7893.94
7893.6
7893.25
7892.91
7892.56
7892.21
7891.85
7891.49
7891.14
7890.77
7890.41
7890.05
7889.68
7889.31
7888.94
7888.57
7888.19
7887.82
7887.44
7887.06
7886.68
7886.29
7885.91
7885.52
7885.13
7884.74
7884.35
7883.96
7883.56
7883.17
7882.77
7882.37
7881.97
7881.57
7881.17
7880.76
7880.36
7879.95
7879.55
7879.14
7878.73
7878.32
7877.91
7877.49
7877.08
7876.66
7876.25
7875.83
7875.41
7875
7874.58
7874.16
7873.73
7873.31
7872.89
7872.46
7872.04
7871.61
7871.19
7870.76
7870.33
7869.9
7869.47
7869.01
7868.68
7868.01
7551.81
7568.99
7578.92
7589.75
7600.71
7611.61
7622.62
7633.65
7644.69
7655.75
7666.84
7677.95
7689.05
7700.04
7710.84
7721.41
7731.74
7741.87
7751.86
7761.83
7771.97
7782.43
7793.24
7804.18
7815.24
7826.25
7837.09
7847.73
7858.26
7868.7
7879.05
7889.25
7899.5
7909.73
7920.01
7930.18
7940.22
7949.98
7959.86
7969.78
7979.65
7989.47
7999.34
8009.19
8018.85
8028.39
8037.82
8046.97
8056.23
8065.69
8075.02
8084.16
8093.2
8102.11
8110.81
8119.61
8128.36
8137.13
8145.87
8154.43
8162.87
8171.22
8179.45
8187.39
8195.46
8203.56
8211.6
8219.21
8226.91
8234.53
8242.05
8249.6
8257.1
8264.38
8271.44
8278.26
8285.08
8291.72
8298.27
8304.88
8311.81
8318.96
8326.63
8333.38
8335.91
8338.95
8353.32
8361.43
8370.57
8375.83
8383.41
8390.3
8397.53
8405.81
8413.02
8420.9
8428.48
8435.94
8443.21
8450.42
8456.9
8463.65
8470.06
8476.73
8485.48
8490.65
8494.43
8500.91
8506.85
8513.86
8520.05
8527.37
8533.51
8539.52
8545.2
8551.18
8556.89
8562.79
8568.38
8573.7
8578.92
8583.9
8589.19
8593.99
8597.62
8602.08
8605.78
8609.77
8613.51
8617.02
8619.85
8622.6
8624.74
8626.86
8628.51
8629.92
8630.93
8631.38
8631.37
8630.88
8630.01
8628.68
8626.84
8624.49
8621.59
8618.23
8614.4
8610.11
8605.3
8599.95
8594.05
8587.73
8580.95
8573.74
8565.99
8557.71
8549.01
8539.98
8530.49
8520.52
8510.12
8499.39
8488.35
8476.92
8465.11
8453.04
8440.75
8428.16
8415.29
8402.27
8389.12
8375.81
8362.31
8348.75
8335.16
8321.58
8307.98
8294.36
8280.8
8267.39
8254.03
8240.77
8227.72
8214.87
8202.25
8189.82
8177.61
8165.64
8153.9
8142.49
8131.4
8120.62
8110.11
8099.89
8089.93
8080.31
8071.01
8062.03
8053.31
8044.82
8036.62
8028.71
8021.06
8013.62
8006.39
7999.37
7992.57
7985.97
7979.56
7973.28
7967.14
7961.16
7955.38
7949.69
7944.11
7938.66
7933.31
7928.1
7923.05
7918.19
7913.48
7908.91
7904.5
7900.25
7896.19
7892.33
7888.65
7885.12
7881.77
7878.58
7875.56
7872.73
7870.09
7867.59
7865.25
7863.06
7861.02
7859.11
7857.38
7855.8
7854.36
7853.07
7851.89
7850.83
7849.9
7849.09
7848.37
7847.79
7847.33
7846.98
7846.71
7846.53
7846.44
7846.47
7846.57
7846.75
7847.01
7847.33
7847.73
7848.23
7848.79
7849.4
7850.06
7850.77
7851.54
7852.36
7853.24
7854.17
7855.13
7856.12
7857.15
7858.2
7859.28
7860.38
7861.51
7862.67
7863.84
7865.03
7866.22
7867.41
7868.61
7869.81
7871.01
7872.23
7873.43
7874.62
7875.8
7876.97
7878.12
7879.26
7880.4
7881.5
7882.59
7883.66
7884.7
7885.72
7886.72
7887.69
7888.63
7889.57
7890.47
7891.34
7892.18
7892.99
7893.79
7894.57
7895.32
7896.04
7896.74
7897.43
7898.1
7898.75
7899.38
7900
7900.62
7901.22
7901.82
7902.41
7902.99
7903.58
7904.18
7904.78
7905.38
7905.99
7906.6
7907.23
7907.87
7908.52
7909.17
7909.83
7910.49
7911.14
7911.79
7912.44
7913.08
7913.72
7914.34
7914.95
7915.54
7916.12
7916.68
7917.23
7917.76
7918.27
7918.76
7919.24
7919.69
7920.12
7920.52
7920.91
7921.28
7921.62
7921.94
7922.24
7922.51
7922.77
7923
7923.21
7923.41
7923.58
7923.73
7923.86
7923.97
7924.06
7924.14
7924.19
7924.23
7924.25
7924.26
7924.25
7924.22
7924.18
7924.13
7924.06
7923.98
7923.89
7923.78
7923.66
7923.53
7923.39
7923.24
7923.08
7922.91
7922.74
7922.55
7922.35
7922.15
7921.94
7921.72
7921.5
7921.27
7921.03
7920.79
7920.54
7920.29
7920.03
7919.77
7919.5
7919.23
7918.96
7918.68
7918.4
7918.11
7917.83
7917.54
7917.25
7916.96
7916.66
7916.36
7916.06
7915.76
7915.45
7915.14
7914.84
7914.53
7914.21
7913.9
7913.57
7913.27
7912.97
7912.67
7912.35
7912.04
7911.61
7911.31
7911.18
7910.89
7910.65
7910.37
7910.1
7909.83
7909.58
7909.3
7909.05
7908.76
7908.49
7908.23
7907.94
7907.68
7907.34
7907.07
7906.63
7906.36
7906.19
7905.91
7905.66
7905.39
7905.11
7904.83
7904.57
7904.28
7904.02
7903.72
7903.44
7903.12
7902.82
7902.47
7902.2
7901.87
7901.58
7901.24
7900.87
7900.37
7900.19
7899.99
7899.71
7899.41
7899.13
7898.84
7898.57
7898.29
7898.01
7897.73
7897.44
7897.14
7896.84
7896.53
7896.22
7895.91
7895.59
7895.27
7894.94
7894.61
7894.28
7893.94
7893.6
7893.26
7892.91
7892.56
7892.21
7891.86
7891.5
7891.15
7890.78
7890.42
7890.06
7889.69
7889.32
7888.95
7888.57
7888.2
7887.82
7887.44
7887.06
7886.68
7886.3
7885.91
7885.52
7885.14
7884.75
7884.35
7883.96
7883.57
7883.17
7882.77
7882.38
7881.98
7881.57
7881.17
7880.77
7880.36
7879.96
7879.55
7879.14
7878.73
7878.32
7877.91
7877.5
7877.08
7876.67
7876.25
7875.84
7875.42
7875
7874.58
7874.16
7873.74
7873.32
7872.89
7872.47
7872.04
7871.62
7871.19
7870.76
7870.33
7869.9
7869.48
7869.02
7868.68
7868.01
7551.33
7568.55
7578.5
7589.33
7600.3
7611.23
7622.24
7633.26
7644.29
7655.33
7666.37
7677.39
7688.38
7699.27
7710.04
7720.65
7731.11
7741.5
7751.85
7762.19
7772.6
7783.16
7793.89
7804.79
7815.75
7826.61
7837.35
7847.97
7858.49
7868.93
7879.31
7889.56
7899.72
7910.02
7920.32
7930.5
7940.58
7950.46
7960.11
7970.04
7980.01
7990.09
7999.93
8009.62
8019.24
8028.79
8038.27
8047.62
8056.86
8066.18
8075.45
8084.59
8093.64
8102.58
8111.23
8120.01
8128.94
8137.77
8146.41
8154.94
8163.41
8171.79
8180.03
8187.97
8196.23
8204.46
8212.39
8219.99
8227.59
8235.23
8242.78
8250.28
8257.93
8265.36
8272.55
8279.43
8286.31
8293.25
8300.26
8307.22
8313.93
8320.46
8326.98
8334.04
8341.47
8349.17
8357
8363.39
8365.33
8367.49
8383.29
8391.42
8398.29
8405.81
8412.75
8419.61
8427.89
8434.83
8442.53
8449.55
8456.61
8463.12
8470.22
8475.85
8482.58
8487.99
8495.49
8502.52
8510.92
8517.27
8520.17
8526.84
8532.72
8539.33
8546.13
8552.18
8557.6
8563.24
8568.78
8574.22
8579.57
8584.74
8589.49
8594.42
8598.92
8603.88
8607.89
8610.65
8614.63
8617.61
8620.78
8623.68
8626.23
8628.23
8629.98
8631.34
8632.39
8632.88
8633.08
8632.65
8631.82
8630.52
8628.78
8626.5
8623.65
8620.3
8616.52
8612.3
8607.47
8602.05
8596.2
8589.89
8583.16
8575.94
8568.13
8559.8
8551.12
8542.03
8532.57
8522.57
8512.1
8501.31
8490.19
8478.72
8466.84
8454.72
8442.35
8429.7
8416.73
8403.6
8390.33
8376.98
8363.4
8349.73
8336.05
8322.33
8308.63
8295.01
8281.42
8267.86
8254.37
8241.05
8227.93
8215.02
8202.35
8189.85
8177.58
8165.52
8153.72
8142.26
8131.09
8120.28
8109.75
8099.48
8089.49
8079.78
8070.42
8061.41
8052.66
8044.14
8035.87
8027.94
8020.25
8012.78
8005.49
7998.45
7991.63
7985.03
7978.57
7972.26
7966.08
7960.09
7954.28
7948.62
7943.04
7937.57
7932.2
7927
7921.96
7917.12
7912.41
7907.85
7903.46
7899.21
7895.14
7891.27
7887.57
7884.09
7880.77
7877.61
7874.61
7871.76
7869.11
7866.66
7864.35
7862.16
7860.12
7858.26
7856.55
7855.03
7853.61
7852.31
7851.15
7850.08
7849.16
7848.37
7847.7
7847.17
7846.72
7846.37
7846.09
7845.93
7845.9
7845.94
7846.06
7846.25
7846.5
7846.85
7847.27
7847.79
7848.37
7849
7849.68
7850.42
7851.19
7852.02
7852.91
7853.86
7854.84
7855.84
7856.86
7857.93
7859.05
7860.18
7861.32
7862.46
7863.64
7864.84
7866.05
7867.26
7868.45
7869.67
7870.88
7872.11
7873.31
7874.5
7875.68
7876.87
7878.04
7879.19
7880.31
7881.41
7882.49
7883.57
7884.63
7885.65
7886.65
7887.61
7888.55
7889.48
7890.38
7891.25
7892.08
7892.89
7893.7
7894.47
7895.21
7895.92
7896.63
7897.32
7897.98
7898.63
7899.26
7899.88
7900.5
7901.11
7901.71
7902.3
7902.89
7903.48
7904.08
7904.69
7905.29
7905.91
7906.53
7907.16
7907.81
7908.47
7909.13
7909.79
7910.45
7911.12
7911.78
7912.43
7913.08
7913.72
7914.35
7914.97
7915.57
7916.16
7916.73
7917.29
7917.82
7918.34
7918.84
7919.31
7919.77
7920.2
7920.61
7921.01
7921.37
7921.72
7922.04
7922.34
7922.62
7922.88
7923.11
7923.33
7923.52
7923.69
7923.84
7923.97
7924.08
7924.18
7924.25
7924.3
7924.34
7924.36
7924.37
7924.36
7924.33
7924.28
7924.23
7924.16
7924.08
7923.98
7923.87
7923.75
7923.62
7923.48
7923.33
7923.16
7922.99
7922.81
7922.62
7922.43
7922.22
7922.01
7921.79
7921.56
7921.33
7921.09
7920.85
7920.6
7920.34
7920.08
7919.82
7919.55
7919.28
7919
7918.72
7918.43
7918.15
7917.86
7917.57
7917.28
7916.98
7916.69
7916.39
7916.1
7915.79
7915.5
7915.17
7914.88
7914.54
7914.24
7913.94
7913.64
7913.31
7913.01
7912.56
7912.26
7912.13
7911.83
7911.59
7911.29
7911.02
7910.73
7910.48
7910.2
7909.94
7909.66
7909.39
7909.15
7908.85
7908.6
7908.27
7908
7907.57
7907.29
7907.13
7906.85
7906.6
7906.32
7906.03
7905.76
7905.48
7905.2
7904.92
7904.64
7904.35
7904.06
7903.74
7903.47
7903.18
7902.88
7902.57
7902.26
7901.86
7901.37
7901.19
7900.99
7900.71
7900.41
7900.13
7899.83
7899.54
7899.26
7898.97
7898.68
7898.4
7898.11
7897.81
7897.51
7897.21
7896.91
7896.59
7896.28
7895.96
7895.63
7895.31
7894.98
7894.64
7894.31
7893.97
7893.63
7893.28
7892.94
7892.59
7892.23
7891.88
7891.52
7891.16
7890.8
7890.44
7890.07
7889.71
7889.34
7888.96
7888.59
7888.21
7887.84
7887.46
7887.08
7886.69
7886.31
7885.92
7885.54
7885.15
7884.76
7884.37
7883.97
7883.58
7883.18
7882.78
7882.39
7881.99
7881.58
7881.18
7880.78
7880.37
7879.97
7879.56
7879.15
7878.74
7878.33
7877.92
7877.51
7877.09
7876.68
7876.26
7875.84
7875.43
7875.01
7874.59
7874.17
7873.74
7873.32
7872.9
7872.47
7872.05
7871.62
7871.2
7870.77
7870.34
7869.91
7869.48
7869.02
7868.69
7868.02
7550.69
7567.98
7577.94
7588.78
7599.78
7610.72
7621.74
7632.78
7643.81
7654.85
7665.87
7676.86
7687.78
7698.6
7709.34
7720
7730.6
7741.19
7751.77
7762.36
7773.01
7783.72
7794.48
7805.28
7816.09
7826.86
7837.54
7848.15
7858.68
7869.15
7879.56
7889.92
7900.21
7910.46
7920.68
7930.86
7940.97
7951
7960.77
7970.71
7980.77
7990.67
8000.43
8010.1
8019.72
8029.27
8038.77
8048.19
8057.53
8066.8
8076.01
8085.15
8094.22
8103.22
8112.07
8120.86
8129.68
8138.43
8147.05
8155.61
8164.1
8172.51
8180.82
8189.02
8197.2
8205.33
8213.32
8221.18
8228.65
8236.13
8243.72
8251.29
8259.07
8266.57
8273.87
8281.07
8287.97
8294.83
8301.92
8309.03
8316.01
8322.95
8329.93
8336.81
8343.4
8349.65
8356.43
8363.52
8370.65
8379.05
8386.93
8388.37
8388.65
8406.06
8414.38
8420.94
8428.52
8434.38
8441.09
8449.36
8456.33
8463.56
8470.42
8476.88
8483.56
8490.09
8496.28
8503.01
8509.06
8515.94
8522.46
8532.47
8537.56
8539.33
8545.73
8551.38
8557.5
8564.26
8569.99
8575.05
8580.17
8585.22
8590.23
8595.16
8599.88
8603.97
8608.34
8612.33
8617.12
8620.69
8622.28
8625.54
8627.43
8630.16
8632.1
8633.95
8635.12
8635.55
8635.86
8635.36
8634.44
8633.18
8631.46
8629.3
8626.62
8623.18
8619.4
8615.19
8610.38
8604.96
8599.11
8592.8
8586.13
8578.87
8570.95
8562.66
8553.95
8544.83
8535.34
8525.33
8514.84
8503.89
8492.66
8481.08
8469.18
8457.05
8444.56
8431.71
8418.62
8405.4
8392
8378.53
8364.9
8351.05
8337.23
8323.39
8309.58
8295.86
8282.13
8268.41
8254.8
8241.41
8228.19
8215.23
8202.45
8189.84
8177.48
8165.3
8153.43
8141.89
8130.64
8119.75
8109.17
8098.84
8088.81
8079.01
8069.56
8060.46
8051.69
8043.14
8034.84
8026.75
8018.97
8011.46
8004.23
7997.18
7990.32
7983.64
7977.13
7970.74
7964.58
7958.58
7952.76
7947.1
7941.51
7936
7930.65
7925.47
7920.46
7915.63
7910.91
7906.31
7901.93
7897.77
7893.77
7889.9
7886.17
7882.67
7879.35
7876.22
7873.29
7870.5
7867.85
7865.44
7863.14
7860.95
7858.95
7857.12
7855.45
7853.96
7852.56
7851.28
7850.1
7849.09
7848.21
7847.45
7846.83
7846.32
7845.89
7845.54
7845.28
7845.15
7845.12
7845.22
7845.37
7845.55
7845.84
7846.22
7846.67
7847.22
7847.82
7848.46
7849.17
7849.93
7850.73
7851.56
7852.47
7853.45
7854.45
7855.46
7856.5
7857.59
7858.73
7859.89
7861.05
7862.2
7863.38
7864.59
7865.82
7867.05
7868.26
7869.5
7870.74
7871.93
7873.14
7874.34
7875.54
7876.75
7877.93
7879.08
7880.19
7881.3
7882.39
7883.46
7884.53
7885.56
7886.55
7887.51
7888.45
7889.37
7890.27
7891.12
7891.96
7892.77
7893.58
7894.35
7895.07
7895.79
7896.49
7897.19
7897.84
7898.48
7899.11
7899.74
7900.36
7900.97
7901.57
7902.16
7902.76
7903.36
7903.97
7904.58
7905.2
7905.82
7906.45
7907.09
7907.74
7908.4
7909.08
7909.75
7910.42
7911.09
7911.76
7912.43
7913.09
7913.74
7914.38
7915.01
7915.62
7916.21
7916.8
7917.36
7917.9
7918.43
7918.94
7919.42
7919.89
7920.33
7920.74
7921.13
7921.51
7921.86
7922.19
7922.49
7922.77
7923.03
7923.26
7923.48
7923.67
7923.85
7924
7924.12
7924.23
7924.33
7924.4
7924.45
7924.49
7924.51
7924.51
7924.5
7924.46
7924.42
7924.36
7924.29
7924.2
7924.1
7923.99
7923.87
7923.74
7923.59
7923.44
7923.27
7923.1
7922.91
7922.72
7922.52
7922.31
7922.1
7921.88
7921.65
7921.41
7921.18
7920.93
7920.68
7920.42
7920.16
7919.89
7919.62
7919.34
7919.07
7918.78
7918.5
7918.21
7917.92
7917.63
7917.34
7917.05
7916.74
7916.45
7916.13
7915.84
7915.51
7915.21
7914.92
7914.62
7914.28
7913.98
7913.52
7913.22
7913.09
7912.79
7912.55
7912.25
7911.97
7911.67
7911.42
7911.13
7910.87
7910.57
7910.3
7910.03
7909.77
7909.47
7909.19
7908.79
7908.51
7908.38
7908.09
7907.88
7907.58
7907.33
7907.01
7906.74
7906.46
7906.19
7905.91
7905.62
7905.33
7905.03
7904.73
7904.46
7904.18
7903.9
7903.63
7903.27
7902.87
7902.38
7902.21
7902.01
7901.71
7901.41
7901.11
7900.8
7900.5
7900.22
7899.93
7899.64
7899.35
7899.06
7898.76
7898.46
7898.17
7897.87
7897.56
7897.26
7896.94
7896.63
7896.31
7895.99
7895.67
7895.34
7895.01
7894.68
7894.34
7894
7893.66
7893.31
7892.96
7892.61
7892.26
7891.9
7891.54
7891.18
7890.82
7890.46
7890.09
7889.72
7889.35
7888.98
7888.61
7888.23
7887.85
7887.47
7887.09
7886.71
7886.33
7885.94
7885.55
7885.16
7884.77
7884.38
7883.99
7883.59
7883.19
7882.8
7882.4
7882
7881.6
7881.19
7880.79
7880.38
7879.98
7879.57
7879.16
7878.75
7878.34
7877.93
7877.52
7877.1
7876.69
7876.27
7875.85
7875.44
7875.02
7874.6
7874.18
7873.75
7873.33
7872.91
7872.48
7872.06
7871.63
7871.2
7870.78
7870.35
7869.92
7869.49
7869.03
7868.69
7868.02
7549.89
7567.25
7577.24
7588.1
7599.12
7610.09
7621.13
7632.18
7643.22
7654.27
7665.29
7676.27
7687.15
7697.95
7708.69
7719.39
7730.12
7740.86
7751.6
7762.36
7773.12
7783.91
7794.71
7805.52
7816.31
7827.06
7837.74
7848.34
7858.89
7869.38
7879.83
7890.23
7900.58
7910.86
7921.09
7931.27
7941.4
7951.48
7961.5
7971.46
7981.36
7991.21
8000.97
8010.66
8020.28
8029.85
8039.36
8048.82
8058.19
8067.46
8076.66
8085.8
8094.9
8103.94
8112.89
8121.75
8130.42
8138.91
8147.63
8156.37
8164.95
8173.39
8181.75
8189.99
8198.2
8206.34
8214.37
8222.31
8230.04
8237.28
8244.84
8252.8
8260.53
8267.98
8275.33
8282.63
8289.83
8296.96
8303.93
8310.75
8317.86
8324.99
8331.95
8338.86
8345.64
8352.28
8359.25
8366.08
8372.93
8379.54
8386.32
8393.21
8402.08
8410.24
8411.03
8409.22
8428.16
8436.49
8442.17
8449.52
8455.64
8461.66
8470.09
8476.21
8483.36
8489.68
8496.5
8503
8510.2
8516.87
8522.87
8529.67
8535.18
8541.82
8552.4
8557.14
8557.71
8563.82
8569.07
8574.91
8581.62
8586.97
8591.58
8596.15
8600.65
8605.08
8609.55
8613.77
8617.34
8621.33
8624.5
8628.76
8631.31
8632.18
8634.46
8635.9
8636.92
8637.74
8638.65
8638.68
8637.84
8636.55
8634.72
8632.64
8630.09
8626.89
8623.07
8618.85
8614
8608.55
8602.76
8596.59
8589.89
8582.57
8574.62
8566.28
8557.55
8548.49
8538.9
8528.81
8518.29
8507.27
8495.86
8484.18
8472.25
8459.96
8447.3
8434.33
8421.05
8407.68
8394.17
8380.57
8366.76
8352.77
8338.72
8324.73
8310.84
8296.93
8283.02
8269.12
8255.37
8241.85
8228.59
8215.47
8202.51
8189.77
8177.27
8165.01
8153.05
8141.42
8130.07
8119.01
8108.29
8097.91
8087.8
8077.97
8068.38
8059.21
8050.35
8041.72
8033.36
8025.18
8017.33
8009.74
8002.48
7995.39
7988.48
7981.74
7975.13
7968.76
7962.62
7956.66
7950.8
7945.05
7939.4
7933.94
7928.65
7923.56
7918.55
7913.67
7908.91
7904.39
7900.05
7895.95
7891.95
7888.12
7884.44
7880.91
7877.62
7874.51
7871.59
7868.91
7866.32
7863.89
7861.63
7859.5
7857.5
7855.69
7854.11
7852.62
7851.22
7849.94
7848.84
7847.87
7847.05
7846.37
7845.75
7845.25
7844.83
7844.49
7844.29
7844.19
7844.21
7844.34
7844.51
7844.74
7845.03
7845.43
7845.96
7846.51
7847.12
7847.77
7848.48
7849.3
7850.15
7851.03
7851.96
7852.95
7853.96
7854.98
7856.05
7857.19
7858.35
7859.52
7860.7
7861.89
7863.08
7864.3
7865.53
7866.8
7868.05
7869.3
7870.53
7871.75
7872.95
7874.18
7875.42
7876.61
7877.79
7878.92
7880.06
7881.18
7882.29
7883.37
7884.42
7885.44
7886.43
7887.39
7888.34
7889.27
7890.16
7891.01
7891.83
7892.65
7893.45
7894.21
7894.94
7895.64
7896.35
7897.03
7897.7
7898.34
7898.96
7899.59
7900.22
7900.82
7901.43
7902.03
7902.64
7903.25
7903.86
7904.47
7905.1
7905.74
7906.38
7907.03
7907.68
7908.35
7909.03
7909.72
7910.4
7911.08
7911.76
7912.45
7913.11
7913.77
7914.42
7915.07
7915.69
7916.3
7916.89
7917.47
7918.02
7918.55
7919.07
7919.57
7920.04
7920.48
7920.91
7921.31
7921.68
7922.04
7922.37
7922.68
7922.96
7923.22
7923.46
7923.67
7923.87
7924.04
7924.19
7924.32
7924.43
7924.52
7924.59
7924.64
7924.67
7924.69
7924.69
7924.67
7924.64
7924.59
7924.53
7924.46
7924.37
7924.26
7924.15
7924.02
7923.88
7923.74
7923.58
7923.41
7923.23
7923.04
7922.85
7922.64
7922.43
7922.21
7921.99
7921.76
7921.52
7921.27
7921.03
7920.76
7920.51
7920.24
7919.97
7919.7
7919.42
7919.13
7918.85
7918.56
7918.27
7917.98
7917.69
7917.38
7917.09
7916.77
7916.47
7916.21
7915.9
7915.64
7915.28
7914.99
7914.52
7914.23
7914.1
7913.8
7913.56
7913.25
7912.97
7912.67
7912.42
7912.12
7911.86
7911.55
7911.28
7911.01
7910.74
7910.44
7910.16
7909.76
7909.47
7909.37
7909.07
7908.87
7908.57
7908.32
7908
7907.74
7907.45
7907.18
7906.9
7906.61
7906.32
7906.02
7905.71
7905.45
7905.15
7904.87
7904.59
7904.19
7903.71
7903.56
7903.35
7903.07
7902.78
7902.46
7902.16
7901.85
7901.55
7901.25
7900.96
7900.66
7900.36
7900.06
7899.76
7899.46
7899.17
7898.86
7898.56
7898.26
7897.95
7897.64
7897.33
7897.01
7896.69
7896.37
7896.05
7895.72
7895.39
7895.05
7894.72
7894.38
7894.04
7893.69
7893.35
7893
7892.64
7892.29
7891.93
7891.57
7891.21
7890.85
7890.49
7890.12
7889.75
7889.38
7889.01
7888.63
7888.25
7887.88
7887.5
7887.11
7886.73
7886.34
7885.96
7885.57
7885.18
7884.79
7884.4
7884
7883.61
7883.21
7882.81
7882.41
7882.01
7881.61
7881.21
7880.8
7880.4
7879.99
7879.58
7879.17
7878.76
7878.35
7877.94
7877.53
7877.11
7876.7
7876.28
7875.86
7875.45
7875.03
7874.61
7874.19
7873.76
7873.34
7872.92
7872.49
7872.07
7871.64
7871.21
7870.79
7870.36
7869.93
7869.5
7869.04
7868.7
7868.03
7548.93
7566.37
7576.4
7587.29
7598.34
7609.33
7620.39
7631.47
7642.53
7653.61
7664.65
7675.65
7686.56
7697.32
7707.84
7718.43
7729.62
7740.59
7751.45
7762.31
7773.15
7783.99
7794.83
7805.66
7816.47
7827.22
7837.92
7848.54
7859.11
7869.62
7880.1
7890.54
7900.93
7911.26
7921.53
7931.73
7941.87
7951.96
7962.01
7972.02
7981.96
7991.82
8001.6
8011.28
8020.76
8030.34
8040
8049.57
8058.96
8068.23
8077.2
8086.23
8095.53
8104.77
8113.78
8122.66
8131.11
8139.17
8148
8157.12
8165.91
8174.43
8182.82
8191.13
8199.36
8207.51
8215.57
8223.55
8231.44
8239.1
8246.23
8254.11
8261.93
8269.48
8276.91
8284.27
8291.57
8298.8
8305.91
8312.74
8319.62
8326.91
8334.11
8341.12
8348.1
8355.05
8361.56
8368.12
8375.3
8382.4
8389.22
8395.7
8402.03
8408.7
8415.52
8424.73
8433.14
8432.99
8429.32
8449.54
8459
8463.64
8470.99
8477.04
8482.4
8490.37
8496.75
8503.77
8510.82
8517.19
8523.66
8530.26
8536.77
8542.21
8548.82
8554.11
8560.6
8571.94
8576.07
8575.1
8580.77
8585.45
8591.07
8597.8
8602.82
8606.56
8610.69
8614.38
8618.88
8622.74
8626.36
8629.93
8632.78
8635.85
8638.03
8641.57
8643.23
8641.99
8642.85
8641.9
8641.5
8640.73
8639.32
8637.13
8634.58
8631.23
8627.49
8623.28
8618.27
8613.1
8607.48
8601.2
8594.36
8587.03
8579.13
8570.75
8562.06
8552.86
8543.14
8532.96
8522.36
8511.31
8499.78
8488.01
8475.92
8463.42
8450.61
8437.51
8424.07
8410.53
8396.86
8382.99
8368.97
8354.84
8340.57
8326.43
8312.31
8298.16
8284.06
8269.89
8256.11
8242.48
8228.98
8215.64
8202.51
8189.58
8176.77
8164.52
8152.54
8140.76
8129.27
8118.01
8107.03
8096.57
8086.42
8076.5
8066.87
8057.51
8048.42
8039.71
8031.34
8023.17
8015.17
8007.51
8000.2
7993.04
7986.06
7979.2
7972.59
7966.22
7960.13
7954.12
7948.23
7942.5
7936.85
7931.38
7926.09
7921.04
7916.07
7911.25
7906.52
7902
7897.73
7893.65
7889.68
7885.89
7882.29
7878.83
7875.51
7872.43
7869.55
7866.92
7864.38
7862
7859.78
7857.71
7855.77
7853.97
7852.44
7850.99
7849.67
7848.44
7847.33
7846.4
7845.65
7844.99
7844.41
7843.95
7843.57
7843.26
7843.09
7843.06
7843.14
7843.26
7843.47
7843.75
7844.07
7844.49
7845.06
7845.64
7846.29
7846.98
7847.7
7848.51
7849.44
7850.37
7851.34
7852.34
7853.37
7854.42
7855.52
7856.7
7857.89
7859.08
7860.28
7861.51
7862.74
7863.96
7865.21
7866.51
7867.77
7869.03
7870.29
7871.54
7872.76
7873.98
7875.24
7876.44
7877.63
7878.77
7879.91
7881.07
7882.17
7883.24
7884.29
7885.31
7886.3
7887.28
7888.23
7889.14
7890.02
7890.88
7891.71
7892.51
7893.3
7894.06
7894.79
7895.49
7896.19
7896.87
7897.53
7898.18
7898.81
7899.44
7900.07
7900.68
7901.29
7901.9
7902.52
7903.14
7903.75
7904.37
7905.01
7905.66
7906.31
7906.97
7907.64
7908.32
7909
7909.69
7910.39
7911.09
7911.78
7912.47
7913.16
7913.83
7914.49
7915.15
7915.79
7916.41
7917.01
7917.6
7918.17
7918.71
7919.24
7919.74
7920.22
7920.68
7921.11
7921.52
7921.9
7922.26
7922.59
7922.9
7923.19
7923.46
7923.69
7923.91
7924.1
7924.28
7924.43
7924.55
7924.66
7924.75
7924.82
7924.87
7924.9
7924.91
7924.91
7924.89
7924.85
7924.8
7924.73
7924.65
7924.56
7924.45
7924.33
7924.2
7924.06
7923.9
7923.74
7923.57
7923.39
7923.19
7923
7922.79
7922.57
7922.35
7922.12
7921.89
7921.64
7921.4
7921.14
7920.89
7920.62
7920.36