/*--------------------------------*- C++ -*----------------------------------*\
| =========                 |                                                 |
| \\      /  F ield         | OpenFOAM: The Open Source CFD Toolbox           |
|  \\    /   O peration     | Version:  v2006                                 |
|   \\  /    A nd           | Website:  www.openfoam.com                      |
|    \\/     M anipulation  |                                                 |
\*---------------------------------------------------------------------------*/
FoamFile
{
    version     2.0;
    format      ascii;
    class       volVectorField;
    location    "5.3";
    object      U;
}
// * * * * * * * * * * * * * * * * * * * * * * * * * * * * * * * * * * * * * //

dimensions      [0 1 -1 0 0 0 0];


internalField   nonuniform List<vector> 
33000
(
(-0.0994052 0 -0.00255856)
(-0.154174 0 -0.00260606)
(-0.127865 0 -0.00235044)
(-0.133172 0 -0.0021508)
(-0.126965 0 -0.0022089)
(-0.125748 0 -0.00157521)
(-0.123476 0 -0.000154609)
(-0.123503 0 0.00128205)
(-0.124222 0 0.00197011)
(-0.125287 0 0.0021675)
(-0.125801 0 0.00140045)
(-0.123573 0 -0.00287179)
(-0.112845 0 -0.012648)
(-0.0939141 0 -0.0215665)
(-0.074005 0 -0.024187)
(-0.0513857 0 -0.0258961)
(-0.0271913 0 -0.0273624)
(-0.00210097 0 -0.0282649)
(0.0219733 0 -0.0275062)
(0.0435158 0 -0.0268319)
(0.0610327 0 -0.0278244)
(0.0737435 0 -0.0242962)
(0.0777671 0 -0.0110647)
(0.0693318 0 0.0103757)
(0.0517477 0 0.0242652)
(0.0327323 0 0.02342)
(0.0187541 0 0.0152449)
(0.0108673 0 0.00842561)
(0.00664478 0 0.00453745)
(0.00426159 0 0.0023769)
(0.0031678 0 0.000781491)
(0.00381319 0 -0.00104551)
(0.00582489 0 -0.00232861)
(0.00872953 0 -0.00272218)
(0.012023 0 -0.0022404)
(0.0148723 0 -0.00128184)
(0.0168948 0 -0.00111287)
(0.0188601 0 -0.00165728)
(0.0213746 0 -0.00213631)
(0.0242704 0 -0.00203284)
(0.0267306 0 -0.00120499)
(0.0283805 0 -0.000793695)
(0.0302313 0 -0.00167017)
(0.0333049 0 -0.00299575)
(0.037378 0 -0.00345804)
(0.0416688 0 -0.0029361)
(0.0451963 0 -0.00169866)
(0.0472516 0 -0.000885681)
(0.0488936 0 -0.00114144)
(0.0511538 0 -0.00210826)
(0.0544808 0 -0.00296013)
(0.0584462 0 -0.00292413)
(0.0619916 0 -0.00220899)
(0.0646976 0 -0.00163663)
(0.0670161 0 -0.00170957)
(0.0695883 0 -0.00218848)
(0.0725127 0 -0.00240773)
(0.075526 0 -0.00244903)
(0.0785923 0 -0.00216992)
(0.0813886 0 -0.00209499)
(0.0845744 0 -0.0028768)
(0.0884976 0 -0.00331454)
(0.092181 0 -0.00247056)
(0.0947792 0 -0.00116003)
(0.096185 0 -0.000376089)
(0.0971106 0 -0.000410452)
(0.0983479 0 -0.000875195)
(0.0998811 0 -0.000856727)
(0.100789 0 -0.000254506)
(0.10114 0 -2.53509e-05)
(0.101311 0 -0.000210221)
(0.101806 0 -0.000532045)
(0.102547 0 -0.000348295)
(0.10286 0 -8.14836e-05)
(0.103511 0 0.00149081)
(0.100725 0 0.00298462)
(0.102158 0 0.00813227)
(0.0920573 0 0.0146966)
(0.0723445 0 0.0075117)
(0.0749576 0 0.000682589)
(0.0687788 0 -0.0030966)
(0.0707559 0 -0.00382678)
(0.0703832 0 0.001875)
(0.0689037 0 0.00476745)
(0.0684709 0 0.00572223)
(0.0658877 0 0.00575319)
(0.0605051 0 0.0031144)
(0.0568049 0 -0.0010679)
(0.0533571 0 -0.00231321)
(0.052269 0 -0.00140383)
(0.0511602 0 -0.00088592)
(0.0516355 0 -9.48536e-05)
(0.0515964 0 0.000809652)
(0.0509261 0 0.00104697)
(0.0504465 0 0.0018734)
(0.0483681 0 0.00201629)
(0.0472135 0 0.00447364)
(0.0416724 0 0.0050484)
(0.0391486 0 0.0127894)
(0.0256241 0 0.0124504)
(0.0173906 0 0.00731895)
(0.00597373 0 -0.00464168)
(0.00500673 0 -0.0107824)
(0.00373134 0 -0.00485369)
(0.00367362 0 0.000672781)
(0.00686683 0 0.00384167)
(0.0085533 0 0.00255983)
(0.00893527 0 0.00145037)
(0.00761121 0 -0.00166258)
(0.0078721 0 -0.00344879)
(0.00864525 0 -0.00302745)
(0.00892512 0 -0.00210667)
(0.0105171 0 -0.000968664)
(0.0112677 0 -0.000363351)
(0.0123586 0 0.000384701)
(0.0119115 0 0.000550767)
(0.0125021 0 0.00235951)
(0.00923757 0 0.00256667)
(0.00846216 0 0.000697777)
(0.0072724 0 -0.00221077)
(0.00890958 0 -0.0035533)
(0.00951019 0 -0.00176291)
(0.0104713 0 -0.000855775)
(0.0122423 0 -2.68642e-05)
(0.0135284 0 -0.000230954)
(0.0144329 0 -0.000682946)
(0.0155554 0 -0.00121997)
(0.0164666 0 -0.00107114)
(0.0174147 0 -0.000989028)
(0.0185751 0 -0.000762712)
(0.0196577 0 -0.000700401)
(0.0206939 0 -0.000715993)
(0.0217375 0 -0.000824401)
(0.0227442 0 -0.000839991)
(0.0237875 0 -0.000838988)
(0.0247951 0 -0.000786105)
(0.0258664 0 -0.000771454)
(0.0269349 0 -0.000750957)
(0.0279975 0 -0.000763382)
(0.0290585 0 -0.000773518)
(0.0300919 0 -0.000778705)
(0.0311085 0 -0.000766686)
(0.0320947 0 -0.00075382)
(0.0330685 0 -0.000742857)
(0.0340178 0 -0.000718053)
(0.0349237 0 -0.0006856)
(0.0357923 0 -0.000665205)
(0.0366362 0 -0.000651886)
(0.0374622 0 -0.000638972)
(0.0382633 0 -0.00061525)
(0.0390259 0 -0.000581004)
(0.0397401 0 -0.000539156)
(0.0404132 0 -0.000518786)
(0.0410682 0 -0.000504808)
(0.0416987 0 -0.000482816)
(0.0422917 0 -0.000452786)
(0.0428426 0 -0.000419157)
(0.0433535 0 -0.00038447)
(0.0438278 0 -0.000355795)
(0.0442659 0 -0.000328903)
(0.0446655 0 -0.000301576)
(0.0450262 0 -0.000270974)
(0.0453497 0 -0.000240412)
(0.0456357 0 -0.000205131)
(0.0458705 0 -0.000163225)
(0.0460538 0 -0.000129344)
(0.0462012 0 -0.000100355)
(0.0463097 0 -6.22586e-05)
(0.0463608 0 -1.57521e-05)
(0.0463533 0 2.39416e-05)
(0.046304 0 5.61852e-05)
(0.0462133 0 9.22886e-05)
(0.0460709 0 0.000138453)
(0.0458627 0 0.000192337)
(0.0455915 0 0.000234202)
(0.0452759 0 0.000267499)
(0.0449155 0 0.000309352)
(0.0444937 0 0.000360802)
(0.0440042 0 0.000416047)
(0.0434512 0 0.000463721)
(0.0428429 0 0.000502167)
(0.0421815 0 0.00055219)
(0.0414442 0 0.000618209)
(0.0406317 0 0.000660423)
(0.0397809 0 0.000690214)
(0.0388812 0 0.000740441)
(0.0379088 0 0.000803495)
(0.0368631 0 0.000853828)
(0.0357538 0 0.000889103)
(0.0345975 0 0.000924794)
(0.0333916 0 0.00096231)
(0.0321475 0 0.0010016)
(0.0308483 0 0.00105492)
(0.0294875 0 0.0010909)
(0.0280931 0 0.00111465)
(0.0266596 0 0.00113098)
(0.0252095 0 0.00113999)
(0.0237498 0 0.00114852)
(0.0222821 0 0.00116038)
(0.0207929 0 0.00118261)
(0.0192746 0 0.00120194)
(0.0177483 0 0.00120245)
(0.016235 0 0.00118104)
(0.0147546 0 0.00115071)
(0.0133011 0 0.00113644)
(0.0118556 0 0.00112869)
(0.010426 0 0.00111527)
(0.00901996 0 0.00109525)
(0.00765236 0 0.00105718)
(0.00633682 0 0.00101759)
(0.00505894 0 0.000993578)
(0.00380272 0 0.000978618)
(0.00257802 0 0.000942712)
(0.00141959 0 0.00088495)
(0.000323234 0 0.000839114)
(-0.000726229 0 0.000809499)
(-0.00174344 0 0.000793168)
(-0.00273824 0 0.000768163)
(-0.00368992 0 0.000728306)
(-0.004591 0 0.000682515)
(-0.00543485 0 0.000643534)
(-0.00623665 0 0.000615303)
(-0.00700765 0 0.000596347)
(-0.00775626 0 0.000580817)
(-0.00847967 0 0.000554609)
(-0.00916272 0 0.000521466)
(-0.00980845 0 0.000491935)
(-0.0104172 0 0.000462826)
(-0.010991 0 0.000438708)
(-0.0115395 0 0.000425341)
(-0.0120719 0 0.000411358)
(-0.0125816 0 0.000387739)
(-0.0130569 0 0.000362239)
(-0.0135047 0 0.000341894)
(-0.0139262 0 0.00032049)
(-0.0143205 0 0.000303652)
(-0.014697 0 0.000290281)
(-0.0150567 0 0.000275382)
(-0.0153988 0 0.000257276)
(-0.0157154 0 0.000240898)
(-0.0160164 0 0.000231364)
(-0.0163032 0 0.000220676)
(-0.0165716 0 0.000203972)
(-0.0168189 0 0.000185524)
(-0.0170471 0 0.000173353)
(-0.0172624 0 0.000164815)
(-0.0174683 0 0.000162943)
(-0.0176729 0 0.000154364)
(-0.0178555 0 0.000133315)
(-0.0180154 0 0.000121936)
(-0.0181675 0 0.000115217)
(-0.0183094 0 0.000108421)
(-0.0184451 0 0.0001037)
(-0.0185729 0 9.66085e-05)
(-0.0186876 0 8.70483e-05)
(-0.0187908 0 7.71812e-05)
(-0.0188836 0 6.86742e-05)
(-0.0189668 0 6.11075e-05)
(-0.0190417 0 5.53599e-05)
(-0.0191111 0 5.16788e-05)
(-0.0191715 0 4.45958e-05)
(-0.0192201 0 3.38986e-05)
(-0.0192563 0 2.36612e-05)
(-0.0192823 0 1.76806e-05)
(-0.0193042 0 1.50034e-05)
(-0.0193222 0 1.28941e-05)
(-0.0193355 0 7.82361e-06)
(-0.0193369 0 -5.82469e-06)
(-0.0193204 0 -1.80319e-05)
(-0.0192932 0 -2.4923e-05)
(-0.0192591 0 -3.04918e-05)
(-0.0192173 0 -3.39467e-05)
(-0.0191719 0 -3.68504e-05)
(-0.0191195 0 -4.57664e-05)
(-0.0190534 0 -5.75149e-05)
(-0.018975 0 -6.58461e-05)
(-0.0188875 0 -7.24998e-05)
(-0.0187903 0 -8.02022e-05)
(-0.0186821 0 -8.95704e-05)
(-0.0185621 0 -9.90658e-05)
(-0.0184308 0 -0.000105628)
(-0.0182942 0 -0.000108757)
(-0.0181517 0 -0.000117177)
(-0.017994 0 -0.000130274)
(-0.0178197 0 -0.000142186)
(-0.0176328 0 -0.000151718)
(-0.0174345 0 -0.000160526)
(-0.0172252 0 -0.000168576)
(-0.0170054 0 -0.000174922)
(-0.0167773 0 -0.000183733)
(-0.0165342 0 -0.000197319)
(-0.0162741 0 -0.000210697)
(-0.0159986 0 -0.00022281)
(-0.0157084 0 -0.000234111)
(-0.0154043 0 -0.000241519)
(-0.0150924 0 -0.000249441)
(-0.0147641 0 -0.000265013)
(-0.014416 0 -0.000278651)
(-0.0140553 0 -0.000292393)
(-0.0136747 0 -0.000306316)
(-0.0132779 0 -0.00031483)
(-0.0128705 0 -0.000325139)
(-0.0124447 0 -0.000341037)
(-0.0120015 0 -0.000356771)
(-0.0115399 0 -0.000369974)
(-0.0110628 0 -0.0003782)
(-0.010574 0 -0.000390134)
(-0.0100669 0 -0.000404338)
(-0.00954573 0 -0.000418026)
(-0.00900644 0 -0.00042969)
(-0.00845688 0 -0.000435393)
(-0.0079001 0 -0.000439694)
(-0.00733592 0 -0.000446981)
(-0.00676243 0 -0.000456348)
(-0.00617866 0 -0.000461978)
(-0.00559117 0 -0.000461536)
(-0.0050056 0 -0.000459963)
(-0.00442046 0 -0.000460264)
(-0.00383703 0 -0.000458962)
(-0.00325796 0 -0.000454795)
(-0.00268582 0 -0.000445682)
(-0.00212704 0 -0.000434422)
(-0.00158039 0 -0.000425581)
(-0.00104579 0 -0.000416077)
(-0.000525571 0 -0.00040302)
(-2.37606e-05 0 -0.000386026)
(0.000457085 0 -0.000369584)
(0.000920034 0 -0.000356763)
(0.0013679 0 -0.000345101)
(0.00179964 0 -0.000332543)
(0.00221463 0 -0.0003185)
(0.00261114 0 -0.000303769)
(0.00299048 0 -0.000291834)
(0.00335621 0 -0.000281828)
(0.00370896 0 -0.000272028)
(0.00404897 0 -0.000261651)
(0.00437498 0 -0.000250549)
(0.0046872 0 -0.000239171)
(0.00498513 0 -0.000228142)
(0.00526972 0 -0.000218756)
(0.0055429 0 -0.000210064)
(0.00580427 0 -0.000201094)
(0.0060543 0 -0.000191773)
(0.00629198 0 -0.000181396)
(0.00651636 0 -0.000171482)
(0.00672987 0 -0.000163485)
(0.00693328 0 -0.000156073)
(0.00712709 0 -0.00014826)
(0.00731014 0 -0.000139451)
(0.00748192 0 -0.000130551)
(0.0076431 0 -0.000122543)
(0.00779482 0 -0.000115937)
(0.00793842 0 -0.000109234)
(0.00807239 0 -0.000101256)
(0.00819645 0 -9.38993e-05)
(0.00831194 0 -8.76703e-05)
(0.00841957 0 -8.16858e-05)
(0.00851929 0 -7.52532e-05)
(0.00861076 0 -6.88908e-05)
(0.00869456 0 -6.31982e-05)
(0.0087714 0 -5.76926e-05)
(0.00884092 0 -5.23016e-05)
(0.00890389 0 -4.69968e-05)
(0.00895996 0 -4.14942e-05)
(0.00900932 0 -3.64202e-05)
(0.00905256 0 -3.16611e-05)
(0.00909 0 -2.74961e-05)
(0.00912236 0 -2.35075e-05)
(0.00914934 0 -1.95089e-05)
(0.00917113 0 -1.53354e-05)
(0.00918761 0 -1.12339e-05)
(0.00919939 0 -7.9034e-06)
(0.00920719 0 -4.97406e-06)
(0.00921127 0 -1.98942e-06)
(0.00921132 0 1.22624e-06)
(0.00920743 0 4.1085e-06)
(0.0092 0 6.81938e-06)
(0.00918923 0 9.3784e-06)
(0.00917527 0 1.23196e-05)
(0.00915774 0 1.48466e-05)
(0.0091375 0 1.67376e-05)
(0.009115 0 1.82773e-05)
(0.00909051 0 1.9936e-05)
(0.00906394 0 2.17938e-05)
(0.00903509 0 2.35701e-05)
(0.00900419 0 2.54665e-05)
(0.00897112 0 2.70356e-05)
(0.00893632 0 2.85687e-05)
(0.00890025 0 2.90102e-05)
(0.00886331 0 3.07568e-05)
(0.00882441 0 3.21014e-05)
(0.00878352 0 3.37961e-05)
(0.00874227 0 3.32638e-05)
(0.00870011 0 3.52813e-05)
(0.00865654 0 3.5192e-05)
(0.00861183 0 3.73522e-05)
(0.00856668 0 3.66222e-05)
(0.00851988 0 3.99453e-05)
(0.00847212 0 3.88468e-05)
(0.00842296 0 4.1703e-05)
(0.00837414 0 3.98133e-05)
(0.00832417 0 4.2709e-05)
(0.00827527 0 4.10254e-05)
(0.00822362 0 4.39184e-05)
(0.00817383 0 4.259e-05)
(0.00812196 0 4.4369e-05)
(0.00807121 0 4.46054e-05)
(0.00802191 0 4.10385e-05)
(0.00797227 0 4.36057e-05)
(0.00792507 0 3.25086e-05)
(0.00787547 0 4.03838e-05)
(0.0078278 0 2.58941e-05)
(0.00777825 0 4.21695e-05)
(0.00772694 0 2.84904e-05)
(0.00768376 0 4.75783e-05)
(0.00763108 0 2.9567e-05)
(0.00758018 0 3.83977e-05)
(0.00753048 0 1.38062e-05)
(0.00746223 0 4.72801e-05)
(0.00740008 0 3.50177e-05)
(0.00737179 0 9.29809e-05)
(0.00730026 0 6.52031e-05)
(0.00726028 0 2.34618e-05)
(0.00721717 0 -5.22766e-05)
(0.00703754 0 -3.83898e-06)
(0.00695283 0 3.33671e-05)
(0.00699457 0 0.00035871)
(0.00680224 0 0.000357583)
(0.00702703 0 2.69889e-05)
(0.0069924 0 -0.000396129)
(0.00778524 0 -0.000602789)
(0.00789063 0 -0.000273213)
(0.00821735 0 -0.000229944)
(0.00824929 0 -0.000111763)
(0.00837113 0 -8.34317e-05)
(0.00835839 0 -5.52067e-05)
(0.00840422 0 -2.8065e-06)
(0.00838905 0 -5.17343e-06)
(0.0084091 0 5.62517e-05)
(0.00837788 0 2.53453e-05)
(0.0083613 0 2.99164e-05)
(0.00833454 0 -2.95599e-05)
(0.00820054 0 4.14205e-05)
(0.0081348 0 3.7666e-05)
(0.00816215 0 0.000283379)
(0.0080071 0 0.000240113)
(0.0081526 0 3.31276e-05)
(0.00810167 0 -0.000258069)
(0.00860708 0 -0.000329684)
(0.00861787 0 -0.000128692)
(0.00878304 0 -8.39841e-05)
(0.00877751 0 -7.64319e-06)
(0.00880574 0 1.12293e-05)
(0.0087818 0 5.03501e-05)
(0.00876855 0 4.16673e-06)
(0.00872079 0 4.90466e-05)
(0.00867211 0 -2.97963e-05)
(0.00857434 0 8.57617e-05)
(0.00849737 0 1.79171e-05)
(0.00845235 0 0.00021947)
(0.00832547 0 6.1341e-05)
(0.00831432 0 9.05468e-05)
(0.00816631 0 -0.000177392)
(0.00770203 0 -3.67776e-07)
(0.00758881 0 2.49961e-06)
(0.00756749 0 0.00111664)
(0.00713122 0 0.000772922)
(0.00821497 0 0.000235927)
(0.008165 0 -0.00123742)
(0.0120181 0 -0.0026476)
(0.0130144 0 -0.00163562)
(0.0145403 0 -0.0010563)
(0.0153498 0 -0.000709955)
(0.0159281 0 -0.000483626)
(0.0163725 0 -0.000338484)
(0.0166908 0 -0.000244341)
(0.0169269 0 -0.000173572)
(0.0171013 0 -0.00012731)
(0.0172307 0 -9.2583e-05)
(0.0173269 0 -6.83474e-05)
(0.0173945 0 -4.37889e-05)
(0.0174379 0 -2.76429e-05)
(0.0174642 0 -1.60022e-05)
(0.0174747 0 -1.24135e-06)
(0.0174701 0 8.34254e-06)
(0.0174555 0 1.49818e-05)
(0.0174299 0 2.64268e-05)
(0.0173936 0 3.22171e-05)
(0.0173506 0 3.67762e-05)
(0.0173025 0 4.00285e-05)
(0.0172466 0 4.92697e-05)
(0.0171821 0 5.35616e-05)
(0.0171127 0 5.68968e-05)
(0.0170391 0 6.01012e-05)
(0.0169618 0 6.25174e-05)
(0.0168807 0 6.57725e-05)
(0.0167957 0 6.8886e-05)
(0.0167073 0 7.13211e-05)
(0.0166156 0 7.40606e-05)
(0.0165208 0 7.62491e-05)
(0.016423 0 7.88469e-05)
(0.0163254 0 7.52038e-05)
(0.0162294 0 7.6156e-05)
(0.0161315 0 7.81867e-05)
(0.0160315 0 7.92209e-05)
(0.0159294 0 8.13405e-05)
(0.0158248 0 8.38973e-05)
(0.0157183 0 8.44439e-05)
(0.0156104 0 8.57163e-05)
(0.0155006 0 8.73276e-05)
(0.0153889 0 8.88628e-05)
(0.0152755 0 9.02017e-05)
(0.0151606 0 9.11348e-05)
(0.0150452 0 9.09777e-05)
(0.0149262 0 9.70773e-05)
(0.014803 0 9.80027e-05)
(0.0146793 0 9.78212e-05)
(0.0145557 0 9.79504e-05)
(0.0144318 0 9.80949e-05)
(0.014308 0 9.76646e-05)
(0.0141843 0 9.7739e-05)
(0.0140602 0 9.82014e-05)
(0.0139351 0 9.919e-05)
(0.0138086 0 0.000100581)
(0.0136805 0 0.000101798)
(0.0135515 0 0.000102344)
(0.0134224 0 0.000101911)
(0.013294 0 0.000101159)
(0.0131654 0 0.00010164)
(0.0130353 0 0.00010313)
(0.0129028 0 0.000105299)
(0.0127682 0 0.00010734)
(0.0126338 0 0.000106532)
(0.0125009 0 0.000104757)
(0.0123684 0 0.0001047)
(0.0122338 0 0.000106906)
(0.0120971 0 0.000108776)
(0.0119608 0 0.000107533)
(0.0118269 0 0.000105201)
(0.0116933 0 0.000105502)
(0.0115573 0 0.000107843)
(0.0114234 0 0.000102753)
(0.0112948 0 0.000100579)
(0.0111635 0 9.933e-05)
(0.0110735 0 0.000107062)
(0.0107435 0 0.000110772)
(0.0111648 0 0.000109737)
(0.00967927 0 0.000115648)
(0.0123353 0 0.000119686)
(0.00707164 0 0.000133235)
(-0.0993463 0 -0.00780192)
(-0.154163 0 -0.00792549)
(-0.127685 0 -0.00730455)
(-0.132771 0 -0.006721)
(-0.126429 0 -0.00648264)
(-0.125277 0 -0.0053239)
(-0.121537 0 -0.002949)
(-0.119639 0 -0.000706983)
(-0.117282 0 0.000766591)
(-0.114763 0 0.000200511)
(-0.111376 0 -0.00440837)
(-0.104092 0 -0.016884)
(-0.091044 0 -0.0344579)
(-0.079368 0 -0.0424167)
(-0.0664976 0 -0.0465348)
(-0.0535711 0 -0.0505897)
(-0.0416655 0 -0.0547452)
(-0.0303154 0 -0.054687)
(-0.0205088 0 -0.0490534)
(-0.0125695 0 -0.0380396)
(-0.00694109 0 -0.0208524)
(-0.00578763 0 -0.00118175)
(-0.00855009 0 0.0148553)
(-0.00755797 0 0.0247893)
(-0.00340809 0 0.0286263)
(-0.000223469 0 0.027202)
(0.00131043 0 0.0199421)
(0.0017458 0 0.0114034)
(0.00202481 0 0.0066191)
(0.00250412 0 0.00334736)
(0.00343939 0 0.000100083)
(0.00479818 0 -0.00295131)
(0.00628831 0 -0.0054256)
(0.00787756 0 -0.00701395)
(0.010426 0 -0.00719468)
(0.0134918 0 -0.00612486)
(0.0166197 0 -0.00530828)
(0.0190412 0 -0.00546632)
(0.021221 0 -0.00623572)
(0.0234803 0 -0.00614468)
(0.0256747 0 -0.00518672)
(0.0283122 0 -0.00491272)
(0.03139 0 -0.00609502)
(0.0343152 0 -0.00835048)
(0.0375151 0 -0.00962896)
(0.0413435 0 -0.00912195)
(0.0448196 0 -0.00707029)
(0.0478432 0 -0.00505522)
(0.050734 0 -0.00493757)
(0.0534103 0 -0.00659315)
(0.0563887 0 -0.00846911)
(0.0598861 0 -0.00892391)
(0.0633446 0 -0.0076939)
(0.0664947 0 -0.00623843)
(0.0692476 0 -0.00590113)
(0.071632 0 -0.00637312)
(0.0739803 0 -0.00683667)
(0.0765549 0 -0.00713483)
(0.0792158 0 -0.00713761)
(0.0822733 0 -0.00734695)
(0.0853456 0 -0.00837475)
(0.0882186 0 -0.00869455)
(0.0910736 0 -0.00729257)
(0.0934719 0 -0.00491189)
(0.0955687 0 -0.00324545)
(0.0974921 0 -0.00312085)
(0.0996977 0 -0.00359435)
(0.101424 0 -0.00305042)
(0.102494 0 -0.00154411)
(0.103241 0 -0.00075067)
(0.103774 0 -0.000854266)
(0.104116 0 -0.00148986)
(0.104983 0 -0.00157735)
(0.105434 0 -0.00105678)
(0.107211 0 0.000385192)
(0.106865 0 0.00472381)
(0.107177 0 0.00925846)
(0.107039 0 0.0202547)
(0.106959 0 0.0214698)
(0.10693 0 0.00815751)
(0.0978301 0 0.00772863)
(0.0775686 0 0.00208509)
(0.0803773 0 0.000116574)
(0.0745005 0 -0.0019624)
(0.0752284 0 -0.000791757)
(0.0735522 0 0.00732374)
(0.0727482 0 0.0109587)
(0.068995 0 0.0124268)
(0.0669243 0 0.00909587)
(0.063864 0 0.00494667)
(0.0585426 0 0.00169842)
(0.0556452 0 -0.000583179)
(0.054028 0 0.000335504)
(0.0526036 0 0.000728907)
(0.0527848 0 0.00209507)
(0.0522811 0 0.00312202)
(0.0517602 0 0.0058035)
(0.0516199 0 0.00789168)
(0.0502168 0 0.0121651)
(0.0529212 0 0.0211357)
(0.04843 0 0.0241895)
(0.0461284 0 0.023942)
(0.0320676 0 0.0144074)
(0.0213566 0 0.00687326)
(0.0113467 0 -0.00583134)
(0.00517549 0 -0.0116905)
(0.00396432 0 -0.00570246)
(0.00311527 0 -5.22099e-06)
(0.00350321 0 0.00358134)
(0.00732882 0 0.00171363)
(0.0107415 0 0.00155537)
(0.0106535 0 -0.000926474)
(0.011724 0 -0.00268906)
(0.0118821 0 -0.00255726)
(0.0121059 0 -0.00138718)
(0.0135527 0 -0.00074299)
(0.0143064 0 0.00185237)
(0.0165403 0 0.00367054)
(0.01626 0 0.00256619)
(0.0172494 0 0.00141595)
(0.0135899 0 0.000121435)
(0.0126943 0 -0.000724889)
(0.0113917 0 -0.00345826)
(0.0121863 0 -0.00487104)
(0.0125051 0 -0.00315281)
(0.0134832 0 -0.00253599)
(0.0153082 0 -0.0019253)
(0.0166762 0 -0.00184787)
(0.0176161 0 -0.00230948)
(0.0186942 0 -0.00279876)
(0.019533 0 -0.00260796)
(0.0204843 0 -0.00258632)
(0.021592 0 -0.00237126)
(0.0226756 0 -0.00239911)
(0.0237372 0 -0.00237574)
(0.0247648 0 -0.00248846)
(0.0258305 0 -0.00260695)
(0.0268854 0 -0.00260054)
(0.0279224 0 -0.00258959)
(0.0289856 0 -0.00251784)
(0.0300256 0 -0.00245029)
(0.0310579 0 -0.00238177)
(0.0320652 0 -0.00232906)
(0.0330452 0 -0.00228284)
(0.0339905 0 -0.00220001)
(0.0349041 0 -0.00210361)
(0.0357888 0 -0.00202743)
(0.0366477 0 -0.00197252)
(0.0374805 0 -0.00191969)
(0.0382766 0 -0.00184164)
(0.0390303 0 -0.00174162)
(0.0397509 0 -0.00163833)
(0.0404419 0 -0.00156943)
(0.0411053 0 -0.00151542)
(0.0417354 0 -0.00144074)
(0.0423223 0 -0.0013436)
(0.0428651 0 -0.00124955)
(0.0433793 0 -0.00116286)
(0.0438668 0 -0.00107984)
(0.044316 0 -0.000987143)
(0.0447169 0 -0.000893359)
(0.0450733 0 -0.000803141)
(0.045395 0 -0.000717677)
(0.0456796 0 -0.000614681)
(0.0459165 0 -0.000492281)
(0.0461036 0 -0.000389629)
(0.0462508 0 -0.000302239)
(0.0463571 0 -0.00018952)
(0.0464075 0 -5.1028e-05)
(0.0464019 0 6.65821e-05)
(0.0463502 0 0.000163659)
(0.0462558 0 0.000274406)
(0.0461049 0 0.00041198)
(0.045894 0 0.000562973)
(0.0456265 0 0.000689525)
(0.0453052 0 0.000794398)
(0.0449328 0 0.000920095)
(0.0445008 0 0.00107217)
(0.0440065 0 0.00122341)
(0.0434582 0 0.00136246)
(0.0428475 0 0.00149366)
(0.0421674 0 0.0016456)
(0.0414209 0 0.00182082)
(0.0406151 0 0.00195488)
(0.0397572 0 0.00206131)
(0.0388402 0 0.00220219)
(0.0378656 0 0.0023704)
(0.0368308 0 0.00253346)
(0.0357252 0 0.00267381)
(0.0345559 0 0.00278784)
(0.0333368 0 0.00289116)
(0.032078 0 0.00299381)
(0.0307811 0 0.00312874)
(0.0294451 0 0.00323838)
(0.0280669 0 0.00333087)
(0.0266404 0 0.00340207)
(0.0251836 0 0.00343377)
(0.0237157 0 0.00345305)
(0.0222431 0 0.00348658)
(0.0207532 0 0.00354536)
(0.0192468 0 0.00358382)
(0.017739 0 0.00357546)
(0.0162476 0 0.00352455)
(0.0147702 0 0.00346068)
(0.0133042 0 0.00342067)
(0.0118545 0 0.00339152)
(0.0104241 0 0.00334182)
(0.00903053 0 0.00326569)
(0.00767675 0 0.00315997)
(0.00635798 0 0.00305992)
(0.00506832 0 0.00299018)
(0.00380874 0 0.00292266)
(0.00260083 0 0.00280385)
(0.00144821 0 0.00265886)
(0.000338592 0 0.00253497)
(-0.000726212 0 0.00243878)
(-0.00174901 0 0.00237128)
(-0.00273603 0 0.00229145)
(-0.00368375 0 0.00218536)
(-0.00459008 0 0.00206056)
(-0.00544507 0 0.00194374)
(-0.00625882 0 0.00185723)
(-0.00703829 0 0.00179197)
(-0.00778385 0 0.00173345)
(-0.00849887 0 0.00165559)
(-0.00918178 0 0.00156705)
(-0.00982995 0 0.00147975)
(-0.0104434 0 0.00139598)
(-0.0110266 0 0.00132456)
(-0.0115786 0 0.00127391)
(-0.0121054 0 0.00122646)
(-0.0126094 0 0.00116057)
(-0.0130858 0 0.00108796)
(-0.013533 0 0.00102527)
(-0.0139532 0 0.000961076)
(-0.0143484 0 0.000908072)
(-0.0147244 0 0.000866718)
(-0.0150843 0 0.000828111)
(-0.0154282 0 0.000778406)
(-0.0157495 0 0.000729248)
(-0.0160505 0 0.00069305)
(-0.0163298 0 0.000650989)
(-0.0165904 0 0.000607251)
(-0.0168382 0 0.000560816)
(-0.0170719 0 0.0005244)
(-0.017291 0 0.000496405)
(-0.0174974 0 0.000482506)
(-0.0176918 0 0.000454868)
(-0.0178712 0 0.00040381)
(-0.0180352 0 0.000368768)
(-0.0181877 0 0.000347001)
(-0.0183331 0 0.000327663)
(-0.0184698 0 0.000310811)
(-0.0185937 0 0.000284391)
(-0.018703 0 0.000255157)
(-0.0188032 0 0.000230895)
(-0.0188959 0 0.000207664)
(-0.0189816 0 0.000187606)
(-0.0190615 0 0.000171416)
(-0.0191323 0 0.000152324)
(-0.0191877 0 0.000126313)
(-0.019232 0 9.94476e-05)
(-0.0192695 0 7.37975e-05)
(-0.0192988 0 5.7398e-05)
(-0.0193224 0 4.80382e-05)
(-0.0193397 0 3.57374e-05)
(-0.0193478 0 1.59861e-05)
(-0.0193454 0 -1.85028e-05)
(-0.0193306 0 -5.06786e-05)
(-0.0193056 0 -7.15208e-05)
(-0.0192737 0 -8.8952e-05)
(-0.0192345 0 -0.000103154)
(-0.0191866 0 -0.000116795)
(-0.0191281 0 -0.000140569)
(-0.0190598 0 -0.00016966)
(-0.0189832 0 -0.000194705)
(-0.0188971 0 -0.000218058)
(-0.0187995 0 -0.000242544)
(-0.0186904 0 -0.000269059)
(-0.0185699 0 -0.000295852)
(-0.01844 0 -0.000315911)
(-0.0183026 0 -0.000329612)
(-0.0181554 0 -0.000354771)
(-0.0179945 0 -0.00039139)
(-0.0178192 0 -0.000425663)
(-0.0176329 0 -0.000453599)
(-0.0174364 0 -0.000480024)
(-0.0172288 0 -0.000506009)
(-0.0170071 0 -0.000529107)
(-0.0167727 0 -0.000556686)
(-0.0165253 0 -0.000593725)
(-0.0162636 0 -0.00063121)
(-0.0159888 0 -0.000666463)
(-0.0157013 0 -0.000699802)
(-0.0153978 0 -0.000726878)
(-0.0150794 0 -0.000756183)
(-0.0147448 0 -0.000798742)
(-0.0143954 0 -0.000834964)
(-0.0140351 0 -0.000872714)
(-0.0136581 0 -0.000915593)
(-0.0132609 0 -0.000949346)
(-0.0128459 0 -0.000984121)
(-0.0124155 0 -0.00102505)
(-0.0119737 0 -0.00106493)
(-0.0115169 0 -0.00110566)
(-0.0110388 0 -0.00113968)
(-0.0105443 0 -0.00117514)
(-0.0100376 0 -0.00121161)
(-0.00951925 0 -0.00124862)
(-0.0089856 0 -0.00128174)
(-0.00844009 0 -0.00130329)
(-0.00788285 0 -0.00132216)
(-0.00731775 0 -0.0013409)
(-0.00674837 0 -0.00136253)
(-0.00617179 0 -0.00137879)
(-0.00558952 0 -0.00138222)
(-0.0050052 0 -0.00137988)
(-0.00442233 0 -0.00137651)
(-0.0038449 0 -0.00136805)
(-0.00327347 0 -0.00135467)
(-0.00270787 0 -0.00133192)
(-0.00215029 0 -0.00130311)
(-0.00160391 0 -0.0012741)
(-0.00107155 0 -0.00124205)
(-0.000555141 0 -0.00120342)
(-5.54383e-05 0 -0.00115847)
(0.000429058 0 -0.00111402)
(0.000896886 0 -0.00107502)
(0.00134822 0 -0.00103763)
(0.0017819 0 -0.000998352)
(0.00219828 0 -0.000957138)
(0.00259862 0 -0.000915623)
(0.00298314 0 -0.000879303)
(0.00335248 0 -0.000847389)
(0.00370761 0 -0.000816827)
(0.0040484 0 -0.000785139)
(0.00437524 0 -0.000752544)
(0.00468896 0 -0.000719843)
(0.00498966 0 -0.000687393)
(0.00527693 0 -0.000657905)
(0.00555115 0 -0.000630081)
(0.00581283 0 -0.000602635)
(0.00606285 0 -0.000574768)
(0.00630065 0 -0.000544799)
(0.00652662 0 -0.000516688)
(0.00674209 0 -0.000491801)
(0.00694632 0 -0.000468162)
(0.00713976 0 -0.000444064)
(0.00732236 0 -0.000418159)
(0.0074947 0 -0.000392753)
(0.00765712 0 -0.000369201)
(0.00780972 0 -0.000348191)
(0.00795279 0 -0.000327057)
(0.00808652 0 -0.000304224)
(0.00821141 0 -0.000282594)
(0.00832731 0 -0.000262967)
(0.00843445 0 -0.000244207)
(0.00853339 0 -0.000225235)
(0.00862471 0 -0.000206588)
(0.00870852 0 -0.000189292)
(0.00878496 0 -0.000172428)
(0.00885391 0 -0.000155933)
(0.00891608 0 -0.000140195)
(0.00897194 0 -0.000124176)
(0.00902141 0 -0.000109216)
(0.00906492 0 -9.51429e-05)
(0.0091023 0 -8.23455e-05)
(0.00913416 0 -6.98482e-05)
(0.00916063 0 -5.73321e-05)
(0.00918194 0 -4.49625e-05)
(0.0091984 0 -3.33682e-05)
(0.00921015 0 -2.2984e-05)
(0.00921756 0 -1.37621e-05)
(0.00922111 0 -4.49276e-06)
(0.0092207 0 4.88125e-06)
(0.00921645 0 1.37777e-05)
(0.00920839 0 2.19127e-05)
(0.00919693 0 2.96177e-05)
(0.00918269 0 3.73294e-05)
(0.00916554 0 4.46906e-05)
(0.00914563 0 5.05867e-05)
(0.00912277 0 5.57325e-05)
(0.00909777 0 6.04424e-05)
(0.00907062 0 6.54059e-05)
(0.00904139 0 7.04363e-05)
(0.00900982 0 7.5045e-05)
(0.00897686 0 7.96725e-05)
(0.00894212 0 8.26874e-05)
(0.00890614 0 8.57536e-05)
(0.0088681 0 8.82244e-05)
(0.00882944 0 9.32997e-05)
(0.00878899 0 9.5068e-05)
(0.00874816 0 9.77477e-05)
(0.00870503 0 9.92186e-05)
(0.0086614 0 0.00010348)
(0.00861616 0 0.000103693)
(0.00857093 0 0.000107768)
(0.00852388 0 0.000108585)
(0.00847732 0 0.000113298)
(0.00842801 0 0.000112308)
(0.00837901 0 0.000115116)
(0.0083286 0 0.000112813)
(0.00827843 0 0.000116347)
(0.00822745 0 0.000115905)
(0.00817626 0 0.00011611)
(0.00812705 0 0.000117567)
(0.00807145 0 0.000111269)
(0.00802512 0 0.000115194)
(0.00796523 0 0.000107385)
(0.00792324 0 0.000120468)
(0.00787006 0 0.000111924)
(0.00783212 0 0.000127642)
(0.00778431 0 0.000116176)
(0.0077365 0 0.000120482)
(0.00768841 0 0.000102116)
(0.00762181 0 0.000134467)
(0.00756413 0 0.000119015)
(0.00754141 0 0.000173286)
(0.00749039 0 0.000158504)
(0.00745901 0 0.00010672)
(0.00740469 0 5.94555e-05)
(0.00722097 0 0.000113673)
(0.0071267 0 0.000101445)
(0.00718373 0 0.000412297)
(0.00712815 0 0.000429569)
(0.00739528 0 2.64284e-05)
(0.00738003 0 -0.000138878)
(0.00820171 0 -0.000398933)
(0.00828424 0 -0.000370076)
(0.00859656 0 -0.00075929)
(0.00841228 0 -0.000781034)
(0.00846795 0 -0.00044113)
(0.00841587 0 -0.000304188)
(0.00844715 0 -0.000146004)
(0.00844982 0 -7.35327e-05)
(0.00847104 0 -1.97219e-06)
(0.00847235 0 -4.26016e-05)
(0.00847535 0 -2.39555e-06)
(0.00845587 0 -4.48487e-05)
(0.00834067 0 5.52896e-05)
(0.00828232 0 2.9753e-05)
(0.00834764 0 0.00029362)
(0.008295 0 0.000276432)
(0.00850165 0 1.80699e-05)
(0.00844829 0 -0.000101569)
(0.00901964 0 -0.000217861)
(0.00899164 0 -0.00022085)
(0.00917775 0 -0.00042766)
(0.00900146 0 -0.000453184)
(0.0090195 0 -0.000183285)
(0.00896109 0 -0.000137347)
(0.00892221 0 -4.86189e-05)
(0.00889154 0 -8.53484e-07)
(0.00876855 0 -6.99064e-06)
(0.00876507 0 0.000104868)
(0.0086726 0 9.13303e-05)
(0.00872725 0 0.000272675)
(0.00864003 0 0.000179096)
(0.00871418 0 0.000181219)
(0.00854624 0 3.98321e-05)
(0.00811445 0 0.000162959)
(0.00793915 0 0.000150163)
(0.00801618 0 0.0011656)
(0.00799834 0 0.000902793)
(0.00925397 0 0.000205518)
(0.00951307 0 -0.000421929)
(0.0135929 0 -0.00183913)
(0.0142421 0 -0.00191874)
(0.0155879 0 -0.00458567)
(0.0158004 0 -0.0043858)
(0.0157692 0 -0.00303894)
(0.0160093 0 -0.00206075)
(0.0162694 0 -0.00147534)
(0.0165081 0 -0.0010744)
(0.0167244 0 -0.000797795)
(0.0169107 0 -0.000601663)
(0.0170645 0 -0.000445664)
(0.0171876 0 -0.00033559)
(0.0172844 0 -0.000251729)
(0.0173582 0 -0.000186243)
(0.0174104 0 -0.000122363)
(0.0174446 0 -7.79384e-05)
(0.0174635 0 -4.38741e-05)
(0.0174688 0 -3.26874e-06)
(0.0174621 0 2.46141e-05)
(0.0174453 0 4.54775e-05)
(0.0174193 0 7.57582e-05)
(0.0173849 0 9.36987e-05)
(0.017343 0 0.000108286)
(0.0172943 0 0.000120343)
(0.0172388 0 0.000144225)
(0.0171769 0 0.000157443)
(0.0171095 0 0.000167961)
(0.0170373 0 0.000178153)
(0.0169602 0 0.000187351)
(0.0168791 0 0.000196151)
(0.0167948 0 0.000204596)
(0.0167069 0 0.000212192)
(0.0166157 0 0.00021983)
(0.0165218 0 0.000226119)
(0.0164255 0 0.000232896)
(0.0163273 0 0.0002269)
(0.0162273 0 0.000230442)
(0.0161256 0 0.000235342)
(0.016022 0 0.000239671)
(0.0159165 0 0.000244473)
(0.0158103 0 0.000249251)
(0.0157024 0 0.000253329)
(0.0155925 0 0.000257092)
(0.015481 0 0.000261493)
(0.0153679 0 0.000265994)
(0.0152527 0 0.000270377)
(0.015136 0 0.000272905)
(0.0150178 0 0.000274252)
(0.0148979 0 0.000287415)
(0.014777 0 0.00028951)
(0.0146553 0 0.000290063)
(0.0145326 0 0.000290951)
(0.0144092 0 0.000291718)
(0.0142851 0 0.000291706)
(0.0141604 0 0.000292293)
(0.0140352 0 0.000293648)
(0.0139094 0 0.0002963)
(0.0137826 0 0.000299948)
(0.0136546 0 0.00030308)
(0.0135259 0 0.000304248)
(0.0133968 0 0.000303411)
(0.0132674 0 0.000302673)
(0.0131371 0 0.000304729)
(0.013005 0 0.000310133)
(0.0128712 0 0.000315624)
(0.0127379 0 0.000317001)
(0.0126057 0 0.000313964)
(0.0124733 0 0.00031192)
(0.012339 0 0.000314671)
(0.0122032 0 0.00032024)
(0.0120681 0 0.000321814)
(0.0119348 0 0.000316612)
(0.0118012 0 0.0003141)
(0.0116656 0 0.000317046)
(0.0115295 0 0.0003218)
(0.0113949 0 0.000309039)
(0.0112617 0 0.000304805)
(0.0111214 0 0.000306432)
(0.0110279 0 0.000322701)
(0.010696 0 0.000326575)
(0.011124 0 0.000322686)
(0.00963813 0 0.000329513)
(0.012311 0 0.000338197)
(0.00705285 0 0.000364088)