/*--------------------------------*- C++ -*----------------------------------*\
| =========                 |                                                 |
| \\      /  F ield         | OpenFOAM: The Open Source CFD Toolbox           |
|  \\    /   O peration     | Version:  v2006                                 |
|   \\  /    A nd           | Website:  www.openfoam.com                      |
|    \\/     M anipulation  |                                                 |
\*---------------------------------------------------------------------------*/
FoamFile
{
    version     2.0;
    format      ascii;
    class       volScalarField;
    location    "4.9";
    object      k;
}
// * * * * * * * * * * * * * * * * * * * * * * * * * * * * * * * * * * * * * //

dimensions      [0 2 -2 0 0 0 0];


internalField   nonuniform List<scalar> 
33000
(
1.04422e-08
1.08548e-08
1.12606e-08
1.16795e-08
1.21455e-08
1.27039e-08
1.33845e-08
1.42071e-08
1.5153e-08
1.61997e-08
1.74234e-08
1.89808e-08
2.09895e-08
2.35188e-08
2.66048e-08
3.0307e-08
3.50153e-08
4.1943e-08
5.25209e-08
6.72134e-08
8.49269e-08
1.032e-07
1.19521e-07
1.32565e-07
1.42202e-07
1.48932e-07
1.53453e-07
1.56424e-07
1.58266e-07
1.59541e-07
1.60638e-07
1.61572e-07
1.62329e-07
1.62997e-07
1.63539e-07
1.6409e-07
1.64622e-07
1.65049e-07
1.6522e-07
1.65172e-07
1.65295e-07
1.65673e-07
1.65895e-07
1.65855e-07
1.65527e-07
1.64905e-07
1.64412e-07
1.64139e-07
1.63801e-07
1.63255e-07
1.62478e-07
1.61629e-07
1.60879e-07
1.60173e-07
1.59417e-07
1.58636e-07
1.57923e-07
1.57291e-07
1.56503e-07
1.55462e-07
1.54116e-07
1.52386e-07
1.50185e-07
1.47423e-07
1.44026e-07
1.39938e-07
1.35143e-07
1.29934e-07
1.24726e-07
1.19508e-07
1.14005e-07
1.08238e-07
1.02436e-07
9.69839e-08
9.22542e-08
8.85275e-08
8.60155e-08
8.49723e-08
8.5967e-08
8.98164e-08
9.61371e-08
1.03307e-07
1.08925e-07
1.11796e-07
1.11044e-07
1.10418e-07
1.10046e-07
1.09805e-07
1.09223e-07
1.08611e-07
1.07201e-07
1.04662e-07
1.01128e-07
9.67044e-08
9.16166e-08
8.61702e-08
8.08668e-08
7.61526e-08
7.26049e-08
7.09101e-08
7.19021e-08
7.52659e-08
7.8925e-08
8.1176e-08
8.09985e-08
8.00154e-08
7.98952e-08
8.0222e-08
8.01205e-08
7.94848e-08
7.88434e-08
7.79399e-08
7.69699e-08
7.57309e-08
7.4032e-08
7.19829e-08
6.99377e-08
6.85631e-08
6.85145e-08
6.94366e-08
6.99957e-08
7.06582e-08
7.05123e-08
7.03418e-08
7.07159e-08
7.10177e-08
7.11938e-08
7.13203e-08
7.13714e-08
7.14051e-08
7.14574e-08
7.15014e-08
7.1521e-08
7.15071e-08
7.14683e-08
7.14151e-08
7.13558e-08
7.12936e-08
7.12277e-08
7.11561e-08
7.10722e-08
7.0972e-08
7.08536e-08
7.07226e-08
7.05798e-08
7.04259e-08
7.02643e-08
7.01026e-08
6.99469e-08
6.97964e-08
6.96413e-08
6.94801e-08
6.93166e-08
6.91582e-08
6.90044e-08
6.8845e-08
6.86696e-08
6.84867e-08
6.83055e-08
6.81271e-08
6.79457e-08
6.77592e-08
6.75749e-08
6.73947e-08
6.72101e-08
6.70165e-08
6.68193e-08
6.66202e-08
6.64144e-08
6.61958e-08
6.60008e-08
6.59131e-08
6.59452e-08
6.60902e-08
6.63326e-08
6.66667e-08
6.70655e-08
6.74496e-08
6.77779e-08
6.80351e-08
6.82208e-08
6.83422e-08
6.84057e-08
6.8404e-08
6.83304e-08
6.82247e-08
6.81256e-08
6.80398e-08
6.79558e-08
6.78629e-08
6.77621e-08
6.76575e-08
6.75493e-08
6.74352e-08
6.7316e-08
6.71946e-08
6.70692e-08
6.69327e-08
6.67834e-08
6.66306e-08
6.64885e-08
6.63603e-08
6.62331e-08
6.60922e-08
6.59377e-08
6.57815e-08
6.5637e-08
6.55067e-08
6.53792e-08
6.52411e-08
6.50942e-08
6.49538e-08
6.48262e-08
6.46951e-08
6.45407e-08
6.43689e-08
6.41986e-08
6.40362e-08
6.38821e-08
6.37211e-08
6.35271e-08
6.32984e-08
6.30567e-08
6.28211e-08
6.25993e-08
6.23803e-08
6.21434e-08
6.18867e-08
6.16272e-08
6.13694e-08
6.1116e-08
6.08774e-08
6.06451e-08
6.03954e-08
6.01342e-08
5.98786e-08
5.96247e-08
5.93763e-08
5.91322e-08
5.88794e-08
5.86182e-08
5.8361e-08
5.81086e-08
5.78476e-08
5.75715e-08
5.72918e-08
5.70199e-08
5.67613e-08
5.64908e-08
5.61989e-08
5.5904e-08
5.56179e-08
5.53328e-08
5.50383e-08
5.47412e-08
5.44459e-08
5.41387e-08
5.38297e-08
5.35207e-08
5.32094e-08
5.29004e-08
5.25835e-08
5.22567e-08
5.19286e-08
5.16026e-08
5.12835e-08
5.0965e-08
5.06387e-08
5.03015e-08
4.99566e-08
4.9616e-08
4.92811e-08
4.895e-08
4.86175e-08
4.82734e-08
4.79234e-08
4.75721e-08
4.72224e-08
4.68692e-08
4.651e-08
4.61506e-08
4.57956e-08
4.54405e-08
4.50751e-08
4.47049e-08
4.43324e-08
4.39594e-08
4.35865e-08
4.32116e-08
4.28348e-08
4.24509e-08
4.20778e-08
4.17273e-08
4.14024e-08
4.11054e-08
4.08347e-08
4.05861e-08
4.03653e-08
4.01727e-08
4.00094e-08
3.98784e-08
3.97773e-08
3.97076e-08
3.96711e-08
3.96682e-08
3.96904e-08
3.97096e-08
3.97165e-08
3.97095e-08
3.96898e-08
3.96548e-08
3.96025e-08
3.95324e-08
3.94457e-08
3.93459e-08
3.92329e-08
3.91049e-08
3.89629e-08
3.88079e-08
3.86408e-08
3.84607e-08
3.82669e-08
3.80599e-08
3.78411e-08
3.76117e-08
3.73799e-08
3.71488e-08
3.69188e-08
3.66907e-08
3.64641e-08
3.62382e-08
3.60124e-08
3.57862e-08
3.55594e-08
3.53321e-08
3.51044e-08
3.4876e-08
3.46465e-08
3.44156e-08
3.41835e-08
3.39501e-08
3.37156e-08
3.34798e-08
3.32427e-08
3.3004e-08
3.27638e-08
3.25223e-08
3.22794e-08
3.2035e-08
3.17889e-08
3.15417e-08
3.12936e-08
3.10447e-08
3.0795e-08
3.05446e-08
3.02938e-08
3.00426e-08
2.9791e-08
2.95389e-08
2.92865e-08
2.90339e-08
2.87811e-08
2.85282e-08
2.82752e-08
2.80224e-08
2.77702e-08
2.75185e-08
2.72673e-08
2.70165e-08
2.67663e-08
2.65165e-08
2.62675e-08
2.60192e-08
2.57718e-08
2.55253e-08
2.52798e-08
2.50356e-08
2.47925e-08
2.45507e-08
2.43102e-08
2.40709e-08
2.38329e-08
2.35963e-08
2.33611e-08
2.31273e-08
2.28949e-08
2.26641e-08
2.24347e-08
2.2207e-08
2.19807e-08
2.17559e-08
2.15325e-08
2.13111e-08
2.10914e-08
2.08732e-08
2.06571e-08
2.04425e-08
2.02296e-08
2.0018e-08
1.9808e-08
1.95995e-08
1.93929e-08
1.91878e-08
1.89845e-08
1.87829e-08
1.85832e-08
1.83853e-08
1.81894e-08
1.79957e-08
1.78036e-08
1.76136e-08
1.7425e-08
1.72385e-08
1.70534e-08
1.68707e-08
1.66885e-08
1.65077e-08
1.63281e-08
1.61474e-08
1.59703e-08
1.57996e-08
1.56239e-08
1.54541e-08
1.52818e-08
1.50773e-08
1.49011e-08
1.47773e-08
1.45753e-08
1.45111e-08
1.44104e-08
1.45656e-08
1.44469e-08
1.44351e-08
1.43322e-08
1.42611e-08
1.4156e-08
1.40615e-08
1.39581e-08
1.38575e-08
1.37524e-08
1.36485e-08
1.35433e-08
1.34194e-08
1.33136e-08
1.32241e-08
1.31049e-08
1.30485e-08
1.29836e-08
1.3018e-08
1.29367e-08
1.28943e-08
1.28286e-08
1.27653e-08
1.27026e-08
1.26401e-08
1.25748e-08
1.25089e-08
1.24137e-08
1.23396e-08
1.22951e-08
1.2186e-08
1.21653e-08
1.20616e-08
1.17388e-08
1.16823e-08
1.17522e-08
1.14634e-08
1.23117e-08
1.2675e-08
1.55508e-08
1.60275e-08
1.71624e-08
1.77152e-08
1.81934e-08
1.85505e-08
1.88228e-08
1.90256e-08
1.91741e-08
1.92874e-08
1.93762e-08
1.94463e-08
1.95014e-08
1.95433e-08
1.95732e-08
1.95957e-08
1.96121e-08
1.96234e-08
1.963e-08
1.96326e-08
1.96319e-08
1.96285e-08
1.9623e-08
1.96158e-08
1.96072e-08
1.95971e-08
1.95856e-08
1.95727e-08
1.95584e-08
1.95425e-08
1.95248e-08
1.95051e-08
1.94834e-08
1.94596e-08
1.94341e-08
1.94075e-08
1.93803e-08
1.9353e-08
1.93258e-08
1.92991e-08
1.92731e-08
1.92482e-08
1.92248e-08
1.92028e-08
1.91824e-08
1.91632e-08
1.9145e-08
1.9127e-08
1.9109e-08
1.90906e-08
1.90718e-08
1.90526e-08
1.90334e-08
1.90152e-08
1.89986e-08
1.89839e-08
1.89704e-08
1.8957e-08
1.89432e-08
1.89303e-08
1.89203e-08
1.89144e-08
1.89117e-08
1.89096e-08
1.89068e-08
1.89053e-08
1.89076e-08
1.89133e-08
1.8919e-08
1.8922e-08
1.89234e-08
1.89253e-08
1.89265e-08
1.89246e-08
1.89197e-08
1.89144e-08
1.89288e-08
1.89282e-08
1.86952e-08
1.84639e-08
1.61191e-08
1.00011e-08
1.00047e-08
1.00186e-08
1.00603e-08
1.016e-08
1.03523e-08
1.06574e-08
1.11706e-08
1.20558e-08
1.32066e-08
1.46474e-08
1.66596e-08
1.95344e-08
2.35162e-08
2.87805e-08
3.5439e-08
4.34331e-08
5.21452e-08
6.10938e-08
6.96781e-08
7.64053e-08
7.97148e-08
7.92009e-08
7.55119e-08
6.97874e-08
6.37973e-08
5.81588e-08
5.30793e-08
4.90842e-08
4.64399e-08
4.51382e-08
4.48282e-08
4.45948e-08
4.39656e-08
4.31752e-08
4.25225e-08
4.20313e-08
4.13223e-08
4.03444e-08
3.95108e-08
3.92043e-08
3.95222e-08
3.99626e-08
3.9624e-08
3.85264e-08
3.74092e-08
3.67335e-08
3.65612e-08
3.65063e-08
3.59749e-08
3.50142e-08
3.39835e-08
3.31077e-08
3.23841e-08
3.1806e-08
3.14966e-08
3.16912e-08
3.25886e-08
3.39617e-08
3.4811e-08
3.46971e-08
3.40473e-08
3.35309e-08
3.30878e-08
3.20296e-08
3.00669e-08
2.78759e-08
2.63134e-08
2.56565e-08
2.59847e-08
2.72025e-08
2.87004e-08
3.00784e-08
3.12276e-08
3.23843e-08
3.43506e-08
3.8734e-08
4.52263e-08
5.18447e-08
5.77745e-08
6.46686e-08
6.99003e-08
7.0902e-08
6.40958e-08
5.08275e-08
3.82226e-08
2.88425e-08
2.17652e-08
1.7816e-08
1.57372e-08
1.4528e-08
1.3883e-08
1.40272e-08
1.44217e-08
1.50889e-08
1.57581e-08
1.66874e-08
1.75702e-08
1.99327e-08
2.28714e-08
2.38911e-08
2.29568e-08
2.0544e-08
1.89974e-08
1.80797e-08
1.73421e-08
1.64985e-08
1.55163e-08
1.47345e-08
1.43452e-08
1.42255e-08
1.41643e-08
1.4127e-08
1.42454e-08
1.47367e-08
1.52636e-08
1.67374e-08
1.77848e-08
1.7279e-08
1.58275e-08
1.481e-08
1.449e-08
1.44955e-08
1.44068e-08
1.43556e-08
1.41771e-08
1.4053e-08
1.401e-08
1.40476e-08
1.40717e-08
1.41226e-08
1.41785e-08
1.42251e-08
1.42817e-08
1.43484e-08
1.44234e-08
1.44872e-08
1.45473e-08
1.46008e-08
1.46426e-08
1.4666e-08
1.46754e-08
1.46964e-08
1.4723e-08
1.47238e-08
1.46954e-08
1.46808e-08
1.46911e-08
1.47044e-08
1.46877e-08
1.46275e-08
1.45755e-08
1.45509e-08
1.45368e-08
1.45109e-08
1.4459e-08
1.43859e-08
1.43343e-08
1.42942e-08
1.42246e-08
1.41387e-08
1.40655e-08
1.40099e-08
1.39338e-08
1.38245e-08
1.37239e-08
1.36517e-08
1.35759e-08
1.34587e-08
1.33337e-08
1.32325e-08
1.31501e-08
1.30639e-08
1.29568e-08
1.28317e-08
1.27258e-08
1.26418e-08
1.25598e-08
1.24701e-08
1.23767e-08
1.22886e-08
1.22134e-08
1.21413e-08
1.20546e-08
1.19618e-08
1.18893e-08
1.18335e-08
1.17753e-08
1.17138e-08
1.16496e-08
1.15877e-08
1.15303e-08
1.14784e-08
1.14298e-08
1.13825e-08
1.13377e-08
1.12929e-08
1.12455e-08
1.11996e-08
1.11629e-08
1.11359e-08
1.111e-08
1.10787e-08
1.10433e-08
1.10084e-08
1.09811e-08
1.09605e-08
1.09416e-08
1.09203e-08
1.08967e-08
1.08749e-08
1.08596e-08
1.08473e-08
1.08311e-08
1.08108e-08
1.07943e-08
1.07836e-08
1.07769e-08
1.07714e-08
1.07627e-08
1.07515e-08
1.07419e-08
1.07373e-08
1.07359e-08
1.07351e-08
1.07334e-08
1.07302e-08
1.07259e-08
1.07219e-08
1.07196e-08
1.07194e-08
1.07194e-08
1.07177e-08
1.07144e-08
1.07115e-08
1.0711e-08
1.07132e-08
1.07157e-08
1.07169e-08
1.0717e-08
1.07173e-08
1.07184e-08
1.07201e-08
1.07221e-08
1.07237e-08
1.07259e-08
1.07302e-08
1.07345e-08
1.07358e-08
1.07362e-08
1.07384e-08
1.07416e-08
1.0744e-08
1.07452e-08
1.07469e-08
1.07486e-08
1.07487e-08
1.0748e-08
1.07477e-08
1.07472e-08
1.07459e-08
1.07435e-08
1.07408e-08
1.07391e-08
1.07384e-08
1.0737e-08
1.07341e-08
1.07288e-08
1.07217e-08
1.07156e-08
1.07117e-08
1.07092e-08
1.07066e-08
1.07022e-08
1.06957e-08
1.06883e-08
1.06813e-08
1.06755e-08
1.06697e-08
1.06626e-08
1.06565e-08
1.06524e-08
1.06465e-08
1.0638e-08
1.06287e-08
1.06202e-08
1.06134e-08
1.0608e-08
1.06026e-08
1.05958e-08
1.05875e-08
1.05782e-08
1.05701e-08
1.0564e-08
1.05583e-08
1.05515e-08
1.05441e-08
1.05362e-08
1.05283e-08
1.05213e-08
1.05147e-08
1.05077e-08
1.04998e-08
1.04918e-08
1.04846e-08
1.04777e-08
1.04701e-08
1.04612e-08
1.04533e-08
1.04464e-08
1.04392e-08
1.04314e-08
1.04228e-08
1.04143e-08
1.04064e-08
1.03988e-08
1.03906e-08
1.03822e-08
1.03743e-08
1.03668e-08
1.03594e-08
1.03516e-08
1.03434e-08
1.03362e-08
1.03295e-08
1.03225e-08
1.03149e-08
1.03077e-08
1.03014e-08
1.02956e-08
1.02898e-08
1.02839e-08
1.02778e-08
1.02721e-08
1.02668e-08
1.02619e-08
1.02577e-08
1.02538e-08
1.02499e-08
1.0246e-08
1.02427e-08
1.02402e-08
1.02384e-08
1.02367e-08
1.02348e-08
1.02329e-08
1.02318e-08
1.02316e-08
1.0232e-08
1.02321e-08
1.02319e-08
1.02321e-08
1.02325e-08
1.02327e-08
1.02323e-08
1.02313e-08
1.02306e-08
1.023e-08
1.02289e-08
1.02274e-08
1.02261e-08
1.02245e-08
1.02228e-08
1.0221e-08
1.02188e-08
1.02165e-08
1.02143e-08
1.0212e-08
1.02096e-08
1.02071e-08
1.02042e-08
1.02011e-08
1.0198e-08
1.01951e-08
1.0192e-08
1.01887e-08
1.01855e-08
1.01822e-08
1.0179e-08
1.01757e-08
1.01721e-08
1.01685e-08
1.01649e-08
1.01615e-08
1.01581e-08
1.01546e-08
1.0151e-08
1.01473e-08
1.01436e-08
1.01402e-08
1.01367e-08
1.0133e-08
1.01293e-08
1.01261e-08
1.01226e-08
1.0119e-08
1.01156e-08
1.01123e-08
1.0109e-08
1.01055e-08
1.01021e-08
1.00987e-08
1.00955e-08
1.00923e-08
1.00892e-08
1.0086e-08
1.0083e-08
1.00796e-08
1.00765e-08
1.00735e-08
1.00706e-08
1.00678e-08
1.0065e-08
1.00623e-08
1.00594e-08
1.00567e-08
1.00541e-08
1.00513e-08
1.0051e-08
1.00483e-08
1.00477e-08
1.00458e-08
1.00491e-08
1.00477e-08
1.00544e-08
1.00604e-08
1.00989e-08
1.01036e-08
1.00702e-08
1.00565e-08
1.00601e-08
1.0056e-08
1.00411e-08
1.00376e-08
1.00314e-08
1.00284e-08
1.00253e-08
1.0023e-08
1.00187e-08
1.00178e-08
1.00288e-08
1.00269e-08
1.00341e-08
1.00406e-08
1.00638e-08
1.00637e-08
1.00427e-08
1.0036e-08
1.00349e-08
1.00321e-08
1.0021e-08
1.00186e-08
1.0017e-08
1.00135e-08
1.00078e-08
1.00082e-08
1.00034e-08
1.00057e-08
1.00088e-08
1.00473e-08
1.00458e-08
1.00874e-08
1.00977e-08
1.01617e-08
1.01818e-08
1.0231e-08
1.02857e-08
1.0243e-08
1.0224e-08
1.02996e-08
1.02547e-08
1.01849e-08
1.01454e-08
1.01192e-08
1.01013e-08
1.00899e-08
1.00822e-08
1.00769e-08
1.0073e-08
1.00699e-08
1.00673e-08
1.00651e-08
1.00633e-08
1.00618e-08
1.00607e-08
1.00596e-08
1.00586e-08
1.00576e-08
1.00568e-08
1.0056e-08
1.00554e-08
1.00548e-08
1.00543e-08
1.00537e-08
1.0053e-08
1.00525e-08
1.00519e-08
1.00514e-08
1.00507e-08
1.005e-08
1.00491e-08
1.00483e-08
1.00475e-08
1.00467e-08
1.0046e-08
1.00454e-08
1.0045e-08
1.00444e-08
1.00439e-08
1.00434e-08
1.00429e-08
1.00425e-08
1.00421e-08
1.00417e-08
1.00412e-08
1.00407e-08
1.004e-08
1.00393e-08
1.00386e-08
1.00378e-08
1.00371e-08
1.00364e-08
1.0036e-08
1.00357e-08
1.00353e-08
1.00348e-08
1.00339e-08
1.00329e-08
1.00323e-08
1.00322e-08
1.00323e-08
1.00321e-08
1.00313e-08
1.00302e-08
1.00298e-08
1.00298e-08
1.00298e-08
1.00288e-08
1.00277e-08
1.00274e-08
1.00274e-08
1.00268e-08
1.00255e-08
1.00251e-08
1.00293e-08
1.00413e-08
1.00564e-08
1.01008e-08
1.01296e-08
1.00546e-08
1.00007e-08
1.00024e-08
1.00084e-08
1.00277e-08
1.00782e-08
1.01882e-08
1.0396e-08
1.07445e-08
1.12748e-08
1.20493e-08
1.32577e-08
1.52182e-08
1.8293e-08
2.28072e-08
2.88454e-08
3.57179e-08
4.30678e-08
4.91721e-08
5.30644e-08
5.46691e-08
5.37881e-08
5.06183e-08
4.61193e-08
4.129e-08
3.67416e-08
3.27927e-08
2.94773e-08
2.67378e-08
2.45409e-08
2.29302e-08
2.18917e-08
2.13481e-08
2.10591e-08
2.0779e-08
2.04319e-08
2.00096e-08
1.95754e-08
1.91291e-08
1.86774e-08
1.82982e-08
1.80934e-08
1.80632e-08
1.80548e-08
1.78855e-08
1.75332e-08
1.71461e-08
1.68767e-08
1.67669e-08
1.67039e-08
1.65336e-08
1.62345e-08
1.58798e-08
1.55401e-08
1.52358e-08
1.49878e-08
1.48441e-08
1.48775e-08
1.51008e-08
1.53922e-08
1.55694e-08
1.56105e-08
1.56267e-08
1.57051e-08
1.57566e-08
1.56092e-08
1.52622e-08
1.4877e-08
1.46731e-08
1.47216e-08
1.49549e-08
1.52387e-08
1.54862e-08
1.56328e-08
1.57328e-08
1.58294e-08
1.60553e-08
1.68202e-08
1.92047e-08
2.44604e-08
3.07311e-08
3.80711e-08
4.36604e-08
4.58924e-08
4.45462e-08
3.90972e-08
3.16691e-08
2.46785e-08
1.91361e-08
1.53835e-08
1.31009e-08
1.1764e-08
1.10557e-08
1.07505e-08
1.06704e-08
1.07202e-08
1.08472e-08
1.09983e-08
1.1127e-08
1.13564e-08
1.18871e-08
1.21819e-08
1.22877e-08
1.22187e-08
1.20018e-08
1.16315e-08
1.12271e-08
1.09396e-08
1.07681e-08
1.06253e-08
1.05315e-08
1.04752e-08
1.04367e-08
1.04156e-08
1.04164e-08
1.04371e-08
1.04682e-08
1.05799e-08
1.07376e-08
1.07578e-08
1.07442e-08
1.07159e-08
1.06663e-08
1.05749e-08
1.05109e-08
1.04716e-08
1.04396e-08
1.04128e-08
1.04068e-08
1.04098e-08
1.04087e-08
1.04076e-08
1.04109e-08
1.04148e-08
1.04218e-08
1.04309e-08
1.0441e-08
1.04473e-08
1.04545e-08
1.04602e-08
1.04639e-08
1.04658e-08
1.04662e-08
1.04674e-08
1.04683e-08
1.04656e-08
1.04601e-08
1.04568e-08
1.04568e-08
1.04562e-08
1.04509e-08
1.04409e-08
1.04325e-08
1.04279e-08
1.04245e-08
1.04181e-08
1.0409e-08
1.03985e-08
1.03909e-08
1.03844e-08
1.03741e-08
1.03616e-08
1.03508e-08
1.03424e-08
1.03318e-08
1.03172e-08
1.03037e-08
1.02939e-08
1.02837e-08
1.02695e-08
1.02544e-08
1.02422e-08
1.02323e-08
1.02223e-08
1.02107e-08
1.01981e-08
1.01873e-08
1.01788e-08
1.01709e-08
1.01626e-08
1.01548e-08
1.01478e-08
1.01416e-08
1.01357e-08
1.01291e-08
1.01226e-08
1.01174e-08
1.01133e-08
1.01096e-08
1.01058e-08
1.0102e-08
1.00983e-08
1.00948e-08
1.00917e-08
1.00888e-08
1.00863e-08
1.0084e-08
1.00817e-08
1.00793e-08
1.0077e-08
1.00751e-08
1.00738e-08
1.00725e-08
1.0071e-08
1.00693e-08
1.00677e-08
1.00664e-08
1.00654e-08
1.00645e-08
1.00634e-08
1.00623e-08
1.00614e-08
1.00606e-08
1.00599e-08
1.0059e-08
1.0058e-08
1.00572e-08
1.00567e-08
1.00563e-08
1.00559e-08
1.00554e-08
1.00547e-08
1.00541e-08
1.00537e-08
1.00535e-08
1.00533e-08
1.0053e-08
1.00527e-08
1.00524e-08
1.00521e-08
1.00518e-08
1.00517e-08
1.00517e-08
1.00516e-08
1.00513e-08
1.00511e-08
1.0051e-08
1.0051e-08
1.00512e-08
1.00513e-08
1.00513e-08
1.00513e-08
1.00513e-08
1.00513e-08
1.00514e-08
1.00515e-08
1.00517e-08
1.0052e-08
1.00523e-08
1.00524e-08
1.00524e-08
1.00525e-08
1.00528e-08
1.0053e-08
1.00532e-08
1.00533e-08
1.00535e-08
1.00536e-08
1.00537e-08
1.00538e-08
1.00539e-08
1.00538e-08
1.00537e-08
1.00536e-08
1.00536e-08
1.00537e-08
1.00538e-08
1.00537e-08
1.00534e-08
1.0053e-08
1.00528e-08
1.00527e-08
1.00528e-08
1.00527e-08
1.00525e-08
1.00522e-08
1.0052e-08
1.00517e-08
1.00514e-08
1.00511e-08
1.00509e-08
1.00507e-08
1.00506e-08
1.00504e-08
1.00499e-08
1.00495e-08
1.00492e-08
1.00489e-08
1.00487e-08
1.00485e-08
1.00482e-08
1.00478e-08
1.00474e-08
1.00471e-08
1.00468e-08
1.00466e-08
1.00462e-08
1.00459e-08
1.00456e-08
1.00453e-08
1.0045e-08
1.00446e-08
1.00443e-08
1.0044e-08
1.00436e-08
1.00433e-08
1.00429e-08
1.00426e-08
1.00422e-08
1.00418e-08
1.00415e-08
1.00412e-08
1.00408e-08
1.00404e-08
1.004e-08
1.00396e-08
1.00393e-08
1.00389e-08
1.00386e-08
1.00382e-08
1.00379e-08
1.00375e-08
1.00372e-08
1.00368e-08
1.00365e-08
1.00362e-08
1.00359e-08
1.00355e-08
1.00352e-08
1.00349e-08
1.00347e-08
1.00344e-08
1.00341e-08
1.00338e-08
1.00335e-08
1.00333e-08
1.00331e-08
1.00328e-08
1.00326e-08
1.00324e-08
1.00322e-08
1.0032e-08
1.00318e-08
1.00317e-08
1.00315e-08
1.00313e-08
1.00312e-08
1.0031e-08
1.00309e-08
1.00308e-08
1.00306e-08
1.00305e-08
1.00304e-08
1.00303e-08
1.00302e-08
1.00301e-08
1.00299e-08
1.00298e-08
1.00297e-08
1.00296e-08
1.00295e-08
1.00294e-08
1.00292e-08
1.00291e-08
1.0029e-08
1.00289e-08
1.00288e-08
1.00286e-08
1.00285e-08
1.00284e-08
1.00283e-08
1.00282e-08
1.0028e-08
1.00279e-08
1.00278e-08
1.00276e-08
1.00275e-08
1.00274e-08
1.00273e-08
1.00271e-08
1.0027e-08
1.00269e-08
1.00267e-08
1.00266e-08
1.00265e-08
1.00263e-08
1.00262e-08
1.00261e-08
1.00259e-08
1.00258e-08
1.00257e-08
1.00255e-08
1.00254e-08
1.00253e-08
1.00251e-08
1.0025e-08
1.00249e-08
1.00248e-08
1.00246e-08
1.00245e-08
1.00244e-08
1.00242e-08
1.00241e-08
1.0024e-08
1.00238e-08
1.00237e-08
1.00236e-08
1.00234e-08
1.00233e-08
1.00232e-08
1.00231e-08
1.00229e-08
1.00229e-08
1.00228e-08
1.00228e-08
1.00226e-08
1.00228e-08
1.00227e-08
1.00227e-08
1.00229e-08
1.00231e-08
1.0023e-08
1.00229e-08
1.00228e-08
1.00217e-08
1.00219e-08
1.00232e-08
1.00243e-08
1.00248e-08
1.00242e-08
1.00246e-08
1.00245e-08
1.00235e-08
1.00226e-08
1.0022e-08
1.00217e-08
1.00219e-08
1.00214e-08
1.00216e-08
1.00214e-08
1.00213e-08
1.00211e-08
1.00206e-08
1.00207e-08
1.00215e-08
1.00219e-08
1.0022e-08
1.00216e-08
1.00218e-08
1.00216e-08
1.00212e-08
1.00208e-08
1.00204e-08
1.00202e-08
1.00203e-08
1.00199e-08
1.002e-08
1.00203e-08
1.00206e-08
1.00209e-08
1.00213e-08
1.00239e-08
1.00253e-08
1.00282e-08
1.00293e-08
1.00301e-08
1.0037e-08
1.00434e-08
1.0045e-08
1.00534e-08
1.00473e-08
1.00357e-08
1.00288e-08
1.00248e-08
1.00223e-08
1.00205e-08
1.00192e-08
1.00182e-08
1.00174e-08
1.00167e-08
1.00161e-08
1.00156e-08
1.00151e-08
1.00148e-08
1.00146e-08
1.00146e-08
1.00147e-08
1.00149e-08
1.0015e-08
1.00151e-08
1.00152e-08
1.00153e-08
1.00154e-08
1.00155e-08
1.00156e-08
1.00158e-08
1.00159e-08
1.0016e-08
1.00161e-08
1.00162e-08
1.00162e-08
1.00162e-08
1.00161e-08
1.00161e-08
1.00161e-08
1.00162e-08
1.00164e-08
1.00165e-08
1.00166e-08
1.00167e-08
1.00167e-08
1.00167e-08
1.00166e-08
1.00166e-08
1.00166e-08
1.00166e-08
1.00166e-08
1.00166e-08
1.00165e-08
1.00165e-08
1.00165e-08
1.00166e-08
1.00166e-08
1.00166e-08
1.00165e-08
1.00163e-08
1.00162e-08
1.0016e-08
1.00158e-08
1.00158e-08
1.00159e-08
1.0016e-08
1.00161e-08
1.00159e-08
1.00156e-08
1.00157e-08
1.00159e-08
1.0016e-08
1.00157e-08
1.00154e-08
1.00154e-08
1.00155e-08
1.00154e-08
1.00152e-08
1.00153e-08
1.00156e-08
1.00162e-08
1.00177e-08
1.00186e-08
1.00187e-08
1.0012e-08
1.00006e-08
1.00017e-08
1.0005e-08
1.00152e-08
1.00417e-08
1.00998e-08
1.02094e-08
1.03913e-08
1.06618e-08
1.10493e-08
1.16523e-08
1.26337e-08
1.4176e-08
1.64476e-08
1.94597e-08
2.28309e-08
2.60942e-08
2.88642e-08
3.04829e-08
3.04113e-08
2.89324e-08
2.66053e-08
2.40548e-08
2.16532e-08
1.9573e-08
1.78938e-08
1.66e-08
1.56164e-08
1.48619e-08
1.43077e-08
1.39211e-08
1.36867e-08
1.35664e-08
1.347e-08
1.33439e-08
1.31804e-08
1.30001e-08
1.28131e-08
1.26326e-08
1.2486e-08
1.23924e-08
1.23453e-08
1.23065e-08
1.2236e-08
1.21319e-08
1.20207e-08
1.19393e-08
1.19035e-08
1.18763e-08
1.18221e-08
1.17389e-08
1.16403e-08
1.15323e-08
1.14266e-08
1.1332e-08
1.12666e-08
1.12546e-08
1.12879e-08
1.13354e-08
1.13742e-08
1.14071e-08
1.14618e-08
1.15381e-08
1.15983e-08
1.15982e-08
1.15523e-08
1.14962e-08
1.14848e-08
1.15353e-08
1.16363e-08
1.17547e-08
1.18613e-08
1.19412e-08
1.19903e-08
1.20178e-08
1.20611e-08
1.22043e-08
1.26407e-08
1.3941e-08
1.62134e-08
1.97712e-08
2.39273e-08
2.68635e-08
2.82048e-08
2.72102e-08
2.47321e-08
2.17563e-08
1.8777e-08
1.61692e-08
1.41554e-08
1.28508e-08
1.19797e-08
1.1341e-08
1.08691e-08
1.0554e-08
1.03775e-08
1.02905e-08
1.02531e-08
1.02478e-08
1.02741e-08
1.02916e-08
1.03111e-08
1.03523e-08
1.03636e-08
1.03562e-08
1.03397e-08
1.031e-08
1.02875e-08
1.02628e-08
1.02463e-08
1.02219e-08
1.01858e-08
1.01478e-08
1.01188e-08
1.0102e-08
1.00945e-08
1.00938e-08
1.00977e-08
1.0099e-08
1.01045e-08
1.01128e-08
1.01158e-08
1.01196e-08
1.01209e-08
1.01157e-08
1.0105e-08
1.00961e-08
1.00896e-08
1.00842e-08
1.00797e-08
1.00778e-08
1.00774e-08
1.00769e-08
1.00768e-08
1.00772e-08
1.0078e-08
1.00786e-08
1.00795e-08
1.00802e-08
1.00805e-08
1.00805e-08
1.00806e-08
1.00806e-08
1.00805e-08
1.008e-08
1.00792e-08
1.00788e-08
1.00786e-08
1.00783e-08
1.00773e-08
1.00761e-08
1.0075e-08
1.00744e-08
1.00737e-08
1.00727e-08
1.00714e-08
1.00701e-08
1.00692e-08
1.00682e-08
1.0067e-08
1.00654e-08
1.00641e-08
1.00629e-08
1.00616e-08
1.006e-08
1.00585e-08
1.00573e-08
1.00561e-08
1.00546e-08
1.0053e-08
1.00517e-08
1.00507e-08
1.00497e-08
1.00486e-08
1.00474e-08
1.00464e-08
1.00456e-08
1.00449e-08
1.00442e-08
1.00435e-08
1.00429e-08
1.00424e-08
1.00419e-08
1.00413e-08
1.00409e-08
1.00404e-08
1.00401e-08
1.00398e-08
1.00395e-08
1.00392e-08
1.00389e-08
1.00386e-08
1.00383e-08
1.00381e-08
1.00378e-08
1.00376e-08
1.00374e-08
1.00372e-08
1.0037e-08
1.00368e-08
1.00367e-08
1.00365e-08
1.00364e-08
1.00362e-08
1.0036e-08
1.00359e-08
1.00357e-08
1.00356e-08
1.00354e-08
1.00353e-08
1.00351e-08
1.0035e-08
1.00348e-08
1.00347e-08
1.00346e-08
1.00344e-08
1.00343e-08
1.00342e-08
1.00341e-08
1.0034e-08
1.00339e-08
1.00338e-08
1.00336e-08
1.00335e-08
1.00334e-08
1.00333e-08
1.00332e-08
1.00331e-08
1.0033e-08
1.00329e-08
1.00328e-08
1.00327e-08
1.00326e-08
1.00325e-08
1.00324e-08
1.00324e-08
1.00323e-08
1.00322e-08
1.00321e-08
1.00321e-08
1.0032e-08
1.00319e-08
1.00318e-08
1.00317e-08
1.00316e-08
1.00315e-08
1.00315e-08
1.00314e-08
1.00313e-08
1.00312e-08
1.00311e-08
1.00311e-08
1.0031e-08
1.0031e-08
1.00309e-08
1.00309e-08
1.00308e-08
1.00307e-08
1.00307e-08
1.00307e-08
1.00306e-08
1.00305e-08
1.00305e-08
1.00304e-08
1.00304e-08
1.00303e-08
1.00303e-08
1.00302e-08
1.00302e-08
1.00301e-08
1.003e-08
1.003e-08
1.00299e-08
1.00299e-08
1.00298e-08
1.00297e-08
1.00296e-08
1.00296e-08
1.00295e-08
1.00294e-08
1.00294e-08
1.00293e-08
1.00292e-08
1.00292e-08
1.00291e-08
1.0029e-08
1.00289e-08
1.00289e-08
1.00288e-08
1.00287e-08
1.00287e-08
1.00286e-08
1.00285e-08
1.00284e-08
1.00284e-08
1.00283e-08
1.00282e-08
1.00281e-08
1.0028e-08
1.0028e-08
1.00279e-08
1.00278e-08
1.00277e-08
1.00276e-08
1.00275e-08
1.00275e-08
1.00274e-08
1.00273e-08
1.00272e-08
1.00271e-08
1.00271e-08
1.0027e-08
1.00269e-08
1.00268e-08
1.00267e-08
1.00267e-08
1.00266e-08
1.00265e-08
1.00264e-08
1.00264e-08
1.00263e-08
1.00262e-08
1.00261e-08
1.0026e-08
1.0026e-08
1.00259e-08
1.00258e-08
1.00258e-08
1.00257e-08
1.00256e-08
1.00255e-08
1.00255e-08
1.00254e-08
1.00253e-08
1.00252e-08
1.00252e-08
1.00251e-08
1.0025e-08
1.0025e-08
1.00249e-08
1.00248e-08
1.00248e-08
1.00247e-08
1.00246e-08
1.00246e-08
1.00245e-08
1.00244e-08
1.00244e-08
1.00243e-08
1.00242e-08
1.00242e-08
1.00241e-08
1.0024e-08
1.00239e-08
1.00239e-08
1.00238e-08
1.00237e-08
1.00236e-08
1.00236e-08
1.00235e-08
1.00234e-08
1.00234e-08
1.00233e-08
1.00232e-08
1.00231e-08
1.00231e-08
1.0023e-08
1.00229e-08
1.00229e-08
1.00228e-08
1.00227e-08
1.00227e-08
1.00226e-08
1.00225e-08
1.00225e-08
1.00224e-08
1.00224e-08
1.00223e-08
1.00222e-08
1.00222e-08
1.00221e-08
1.00221e-08
1.0022e-08
1.00219e-08
1.00219e-08
1.00218e-08
1.00217e-08
1.00217e-08
1.00216e-08
1.00216e-08
1.00215e-08
1.00214e-08
1.00214e-08
1.00213e-08
1.00213e-08
1.00212e-08
1.00211e-08
1.00211e-08
1.0021e-08
1.00209e-08
1.00209e-08
1.00208e-08
1.00207e-08
1.00207e-08
1.00206e-08
1.00205e-08
1.00204e-08
1.00204e-08
1.00204e-08
1.00203e-08
1.00203e-08
1.00202e-08
1.00204e-08
1.00204e-08
1.00205e-08
1.00206e-08
1.00207e-08
1.00206e-08
1.00206e-08
1.00204e-08
1.00196e-08
1.00196e-08
1.00202e-08
1.00203e-08
1.00204e-08
1.00204e-08
1.00204e-08
1.00203e-08
1.00198e-08
1.00194e-08
1.00199e-08
1.00199e-08
1.00198e-08
1.00197e-08
1.00196e-08
1.00196e-08
1.00194e-08
1.00193e-08
1.00191e-08
1.00191e-08
1.00192e-08
1.00192e-08
1.00192e-08
1.00191e-08
1.00191e-08
1.0019e-08
1.00189e-08
1.00188e-08
1.00185e-08
1.00185e-08
1.00189e-08
1.00186e-08
1.00195e-08
1.00184e-08
1.00178e-08
1.00187e-08
1.0019e-08
1.00217e-08
1.00227e-08
1.00254e-08
1.00245e-08
1.00221e-08
1.00222e-08
1.0022e-08
1.00216e-08
1.00216e-08
1.00213e-08
1.00208e-08
1.00207e-08
1.00199e-08
1.0019e-08
1.00183e-08
1.00178e-08
1.00172e-08
1.00168e-08
1.00163e-08
1.0016e-08
1.00156e-08
1.00153e-08
1.0015e-08
1.00148e-08
1.00145e-08
1.00143e-08
1.00143e-08
1.00143e-08
1.00143e-08
1.00144e-08
1.00144e-08
1.00144e-08
1.00144e-08
1.00144e-08
1.00144e-08
1.00145e-08
1.00146e-08
1.00147e-08
1.00149e-08
1.0015e-08
1.0015e-08
1.0015e-08
1.00149e-08
1.00149e-08
1.00148e-08
1.00148e-08
1.00148e-08
1.00149e-08
1.0015e-08
1.00151e-08
1.00152e-08
1.00152e-08
1.00152e-08
1.00152e-08
1.00152e-08
1.00152e-08
1.00153e-08
1.00153e-08
1.00152e-08
1.00152e-08
1.00151e-08
1.00151e-08
1.00152e-08
1.00153e-08
1.00153e-08
1.00153e-08
1.00151e-08
1.00149e-08
1.00147e-08
1.00146e-08
1.00146e-08
1.00146e-08
1.00147e-08
1.00148e-08
1.00147e-08
1.00145e-08
1.00145e-08
1.00146e-08
1.00148e-08
1.00146e-08
1.00143e-08
1.00142e-08
1.00142e-08
1.00143e-08
1.00142e-08
1.00142e-08
1.00142e-08
1.00146e-08
1.00149e-08
1.00158e-08
1.00165e-08
1.00167e-08
1.0011e-08
1.00006e-08
1.00014e-08
1.00035e-08
1.00091e-08
1.00231e-08
1.00519e-08
1.01022e-08
1.01784e-08
1.02804e-08
1.04105e-08
1.05914e-08
1.08694e-08
1.12952e-08
1.19221e-08
1.2759e-08
1.37022e-08
1.46192e-08
1.53959e-08
1.59246e-08
1.60307e-08
1.56771e-08
1.5039e-08
1.43138e-08
1.36141e-08
1.29998e-08
1.25007e-08
1.21204e-08
1.18355e-08
1.16161e-08
1.14484e-08
1.13258e-08
1.12482e-08
1.12056e-08
1.11764e-08
1.1138e-08
1.10819e-08
1.10147e-08
1.09457e-08
1.0882e-08
1.08297e-08
1.07933e-08
1.07693e-08
1.07451e-08
1.07161e-08
1.06828e-08
1.06502e-08
1.06281e-08
1.06148e-08
1.06023e-08
1.05843e-08
1.05582e-08
1.05308e-08
1.0497e-08
1.04609e-08
1.04278e-08
1.04025e-08
1.03908e-08
1.0389e-08
1.03933e-08
1.04009e-08
1.04154e-08
1.04396e-08
1.04719e-08
1.04999e-08
1.05139e-08
1.05147e-08
1.05134e-08
1.05216e-08
1.05442e-08
1.05828e-08
1.0636e-08
1.06956e-08
1.07504e-08
1.07909e-08
1.08187e-08
1.0845e-08
1.08929e-08
1.0992e-08
1.12335e-08
1.17416e-08
1.25715e-08
1.38259e-08
1.49847e-08
1.60067e-08
1.65162e-08
1.63362e-08
1.57657e-08
1.49903e-08
1.40972e-08
1.32596e-08
1.2571e-08
1.20337e-08
1.16194e-08
1.13137e-08
1.10593e-08
1.08048e-08
1.05731e-08
1.03916e-08
1.02684e-08
1.01916e-08
1.0146e-08
1.01204e-08
1.01088e-08
1.01028e-08
1.01031e-08
1.011e-08
1.01177e-08
1.01266e-08
1.01387e-08
1.01553e-08
1.017e-08
1.0181e-08
1.01858e-08
1.01715e-08
1.01422e-08
1.01106e-08
1.00864e-08
1.00709e-08
1.00616e-08
1.00562e-08
1.00535e-08
1.00525e-08
1.00535e-08
1.00553e-08
1.00563e-08
1.00574e-08
1.00582e-08
1.00585e-08
1.00585e-08
1.00575e-08
1.00551e-08
1.00521e-08
1.00494e-08
1.00476e-08
1.00464e-08
1.00457e-08
1.00452e-08
1.00448e-08
1.00445e-08
1.00442e-08
1.0044e-08
1.00439e-08
1.00438e-08
1.00437e-08
1.00435e-08
1.00433e-08
1.00432e-08
1.0043e-08
1.00429e-08
1.00427e-08
1.00425e-08
1.00424e-08
1.00422e-08
1.00421e-08
1.00419e-08
1.00418e-08
1.00416e-08
1.00414e-08
1.00413e-08
1.00411e-08
1.00409e-08
1.00407e-08
1.00405e-08
1.00402e-08
1.004e-08
1.00398e-08
1.00396e-08
1.00394e-08
1.00391e-08
1.00389e-08
1.00387e-08
1.00385e-08
1.00383e-08
1.00382e-08
1.0038e-08
1.00378e-08
1.00377e-08
1.00376e-08
1.00375e-08
1.00373e-08
1.00372e-08
1.00371e-08
1.0037e-08
1.00369e-08
1.00368e-08
1.00368e-08
1.00367e-08
1.00366e-08
1.00365e-08
1.00364e-08
1.00364e-08
1.00363e-08
1.00362e-08
1.00361e-08
1.0036e-08
1.00359e-08
1.00359e-08
1.00358e-08
1.00357e-08
1.00356e-08
1.00355e-08
1.00354e-08
1.00353e-08
1.00352e-08
1.00351e-08
1.00349e-08
1.00348e-08
1.00347e-08
1.00346e-08
1.00345e-08
1.00344e-08
1.00342e-08
1.00341e-08
1.0034e-08
1.00339e-08
1.00338e-08
1.00337e-08
1.00336e-08
1.00335e-08
1.00334e-08
1.00333e-08
1.00332e-08
1.00331e-08
1.0033e-08
1.00328e-08
1.00327e-08
1.00326e-08
1.00326e-08
1.00325e-08
1.00324e-08
1.00323e-08
1.00322e-08
1.00321e-08
1.0032e-08
1.0032e-08
1.00319e-08
1.00318e-08
1.00317e-08
1.00317e-08
1.00316e-08
1.00315e-08
1.00314e-08
1.00314e-08
1.00313e-08
1.00312e-08
1.00311e-08
1.0031e-08
1.00309e-08
1.00308e-08
1.00307e-08