/*--------------------------------*- C++ -*----------------------------------*\
| =========                 |                                                 |
| \\      /  F ield         | OpenFOAM: The Open Source CFD Toolbox           |
|  \\    /   O peration     | Version:  v2006                                 |
|   \\  /    A nd           | Website:  www.openfoam.com                      |
|    \\/     M anipulation  |                                                 |
\*---------------------------------------------------------------------------*/
FoamFile
{
    version     2.0;
    format      ascii;
    class       volScalarField;
    location    "4.9";
    object      nut;
}
// * * * * * * * * * * * * * * * * * * * * * * * * * * * * * * * * * * * * * //

dimensions      [0 2 -1 0 0 0 0];


internalField   nonuniform List<scalar> 
33000
(
3.58149e-10
3.85856e-10
4.02154e-10
4.14021e-10
4.20379e-10
4.31921e-10
4.56052e-10
4.85741e-10
5.20069e-10
5.63471e-10
5.7891e-10
5.47906e-10
5.28148e-10
5.32314e-10
5.48526e-10
5.75838e-10
6.28993e-10
7.43203e-10
9.71179e-10
1.35952e-09
1.88835e-09
2.43587e-09
2.88448e-09
3.21501e-09
3.46605e-09
3.6621e-09
3.80854e-09
3.89829e-09
3.93429e-09
3.94392e-09
3.94815e-09
3.97122e-09
4.01221e-09
4.04148e-09
4.04626e-09
4.0437e-09
4.05563e-09
4.0767e-09
4.09112e-09
4.07607e-09
4.04004e-09
4.02139e-09
4.03473e-09
4.05771e-09
4.06082e-09
4.03011e-09
3.98636e-09
3.96014e-09
3.95589e-09
3.95538e-09
3.94096e-09
3.90838e-09
3.87834e-09
3.85591e-09
3.83645e-09
3.81145e-09
3.78007e-09
3.74809e-09
3.72824e-09
3.73169e-09
3.7314e-09
3.69942e-09
3.63946e-09
3.58252e-09
3.53612e-09
3.47086e-09
3.36627e-09
3.22729e-09
3.08735e-09
2.96426e-09
2.84137e-09
2.72055e-09
2.59079e-09
2.45845e-09
2.31499e-09
2.2039e-09
2.0279e-09
2.06905e-09
2.62485e-09
2.83525e-09
3.29381e-09
4.34525e-09
4.43563e-09
5.44815e-09
5.70652e-09
5.68059e-09
5.95713e-09
6.07576e-09
5.91917e-09
5.8057e-09
5.84603e-09
5.70503e-09
5.51364e-09
5.28425e-09
5.02069e-09
4.73422e-09
4.44884e-09
4.15957e-09
3.92286e-09
4.36769e-09
5.4575e-09
6.44782e-09
6.74057e-09
6.58219e-09
7.12592e-09
7.60742e-09
7.9814e-09
8.25195e-09
8.28376e-09
7.77021e-09
7.31783e-09
7.10867e-09
6.97342e-09
6.8682e-09
6.69836e-09
6.41257e-09
6.13149e-09
6.75571e-09
7.57094e-09
7.70776e-09
7.56196e-09
7.36783e-09
7.67834e-09
7.73889e-09
7.89913e-09
7.92515e-09
7.71145e-09
7.56565e-09
7.52544e-09
7.51061e-09
7.51446e-09
7.5091e-09
7.4854e-09
7.46821e-09
7.46485e-09
7.47479e-09
7.49108e-09
7.51107e-09
7.53652e-09
7.56762e-09
7.60818e-09
7.65628e-09
7.70995e-09
7.77614e-09
7.85792e-09
7.94702e-09
8.04504e-09
8.15864e-09
8.29261e-09
8.45053e-09
8.62533e-09
8.81341e-09
9.0249e-09
9.26853e-09
9.54926e-09
9.86785e-09
1.02185e-08
1.06084e-08
1.1064e-08
1.15925e-08
1.21907e-08
1.28704e-08
1.36695e-08
1.46312e-08
1.57587e-08
1.70633e-08
1.86264e-08
2.05927e-08
2.30587e-08
2.60509e-08
2.97621e-08
3.45459e-08
4.07899e-08
4.87783e-08
5.77852e-08
6.47088e-08
6.6054e-08
6.18334e-08
5.50072e-08
4.8209e-08
4.23447e-08
3.74922e-08
3.35309e-08
3.03853e-08
2.78803e-08
2.5777e-08
2.39665e-08
2.24374e-08
2.11453e-08
2.00426e-08
1.90863e-08
1.82529e-08
1.7517e-08
1.68544e-08
1.62649e-08
1.57398e-08
1.52651e-08
1.48386e-08
1.44571e-08
1.41123e-08
1.37946e-08
1.35015e-08
1.32345e-08
1.2992e-08
1.2774e-08
1.25757e-08
1.2392e-08
1.22238e-08
1.20693e-08
1.19285e-08
1.18031e-08
1.16905e-08
1.15833e-08
1.14806e-08
1.13892e-08
1.13095e-08
1.12384e-08
1.11745e-08
1.11135e-08
1.10547e-08
1.09992e-08
1.09483e-08
1.09038e-08
1.08659e-08
1.08328e-08
1.0801e-08
1.07713e-08
1.07456e-08
1.07243e-08
1.07084e-08
1.06999e-08
1.06954e-08
1.06908e-08
1.06882e-08
1.06906e-08
1.06973e-08
1.07087e-08
1.07255e-08
1.07421e-08
1.07594e-08
1.07814e-08
1.08081e-08
1.0836e-08
1.08632e-08
1.08927e-08
1.0928e-08
1.09703e-08
1.10137e-08
1.10509e-08
1.10915e-08
1.11411e-08
1.11953e-08
1.12499e-08
1.13058e-08
1.13668e-08
1.14301e-08
1.14965e-08
1.15703e-08
1.16472e-08
1.17306e-08
1.18184e-08
1.1907e-08
1.20032e-08
1.211e-08
1.22283e-08
1.23569e-08
1.24888e-08
1.26233e-08
1.2765e-08
1.29247e-08
1.31057e-08
1.33027e-08
1.35155e-08
1.37346e-08
1.39668e-08
1.42267e-08
1.45127e-08
1.48234e-08
1.51568e-08
1.55227e-08
1.59345e-08
1.63943e-08
1.68818e-08
1.7408e-08
1.8003e-08
1.86711e-08
1.94293e-08
2.02798e-08
2.12424e-08
2.23199e-08
2.35258e-08
2.49318e-08
2.6586e-08
2.85497e-08
3.09225e-08
3.37326e-08
3.70739e-08
4.12412e-08
4.64127e-08
4.97047e-08
4.95429e-08
4.9418e-08
4.9332e-08
4.92869e-08
4.92833e-08
4.93106e-08
4.93344e-08
4.9343e-08
4.93343e-08
4.93101e-08
4.92669e-08
4.92024e-08
4.65779e-08
4.22534e-08
3.86551e-08
3.56695e-08
3.31564e-08
3.09996e-08
2.91281e-08
2.74914e-08
2.60592e-08
2.47976e-08
2.36698e-08
2.26524e-08
2.17362e-08
2.09178e-08
2.0183e-08
1.95149e-08
1.89062e-08
1.83542e-08
1.78531e-08
1.73978e-08
1.69816e-08
1.65979e-08
1.62438e-08
1.59178e-08
1.56179e-08
1.53424e-08
1.5089e-08
1.48543e-08
1.46362e-08
1.44339e-08
1.42466e-08
1.40747e-08
1.39166e-08
1.3769e-08
1.36309e-08
1.35026e-08
1.33848e-08
1.32767e-08
1.31766e-08
1.30829e-08
1.29961e-08
1.29171e-08
1.28452e-08
1.27788e-08
1.2717e-08
1.2661e-08
1.26109e-08
1.2565e-08
1.2523e-08
1.24852e-08
1.24515e-08
1.24218e-08
1.23959e-08
1.23731e-08
1.23534e-08
1.23367e-08
1.23229e-08
1.23122e-08
1.23044e-08
1.22988e-08
1.22947e-08
1.2293e-08
1.22939e-08
1.22967e-08
1.23013e-08
1.23077e-08
1.23164e-08
1.23272e-08
1.23394e-08
1.23525e-08
1.23668e-08
1.23824e-08
1.23997e-08
1.24187e-08
1.24389e-08
1.24603e-08
1.24819e-08
1.25041e-08
1.25288e-08
1.25552e-08
1.25801e-08
1.26064e-08
1.26354e-08
1.26645e-08
1.26936e-08
1.27253e-08
1.27575e-08
1.27912e-08
1.28242e-08
1.28588e-08
1.28925e-08
1.29289e-08
1.29647e-08
1.3002e-08
1.30424e-08
1.30785e-08
1.31196e-08
1.31515e-08
1.31909e-08
1.32209e-08
1.32597e-08
1.3298e-08
1.33396e-08
1.33872e-08
1.34336e-08
1.34423e-08
1.34887e-08
1.3523e-08
1.35763e-08
1.37455e-08
1.38192e-08
1.36853e-08
1.37167e-08
1.34677e-08
1.35665e-08
1.37388e-08
1.39455e-08
1.36722e-08
1.32425e-08
1.32653e-08
1.3434e-08
1.34775e-08
1.35558e-08
1.36184e-08
1.37064e-08
1.37697e-08
1.38684e-08
1.39477e-08
1.40569e-08
1.40947e-08
1.42232e-08
1.43036e-08
1.44895e-08
1.45627e-08
1.47834e-08
1.49215e-08
1.5241e-08
1.55056e-08
1.57712e-08
1.6004e-08
1.59252e-08
1.58471e-08
1.57693e-08
1.56881e-08
1.5606e-08
1.54874e-08
1.53952e-08
1.53397e-08
1.52039e-08
1.51781e-08
1.50489e-08
1.46469e-08
1.45766e-08
1.46636e-08
1.43039e-08
1.53604e-08
1.58128e-08
1.43251e-08
1.47509e-08
1.60372e-08
1.6597e-08
1.69902e-08
1.72831e-08
1.75362e-08
1.77596e-08
1.79702e-08
1.81848e-08
1.84084e-08
1.86435e-08
1.88906e-08
1.91494e-08
1.94206e-08
1.97089e-08
2.00149e-08
2.03379e-08
2.06774e-08
2.10341e-08
2.14095e-08
2.18057e-08
2.22244e-08
2.26673e-08
2.31376e-08
2.36292e-08
2.41438e-08
2.43922e-08
2.43744e-08
2.43546e-08
2.43326e-08
2.43081e-08
2.42811e-08
2.42516e-08
2.422e-08
2.41869e-08
2.4153e-08
2.41191e-08
2.40853e-08
2.40521e-08
2.40198e-08
2.39889e-08
2.39598e-08
2.39325e-08
2.39071e-08
2.38833e-08
2.38606e-08
2.38383e-08
2.38159e-08
2.37931e-08
2.37696e-08
2.37458e-08
2.3722e-08
2.36993e-08
2.36787e-08
2.36604e-08
2.36436e-08
2.3627e-08
2.36099e-08
2.35938e-08
2.35814e-08
2.35741e-08
2.35707e-08
2.3568e-08
2.35645e-08
2.35627e-08
2.35655e-08
2.35727e-08
2.35798e-08
2.35834e-08
2.35852e-08
2.35876e-08
2.3589e-08
2.35868e-08
2.35807e-08
2.3574e-08
2.35919e-08
2.35912e-08
2.33016e-08
2.30141e-08
2.00988e-08
2.81492e-09
6.91591e-09
1.11345e-08
8.59176e-09
7.33663e-09
7.62063e-09
8.85262e-09
9.2304e-09
5.2328e-09
2.84814e-09
2.69811e-09
3.36257e-09
4.32297e-09
6.16209e-09
1.09531e-08
1.89122e-08
2.27716e-08
2.47869e-08
2.77081e-08
3.36287e-08
4.1022e-08
4.51896e-08
5.19976e-08
6.29582e-08
7.27781e-08
8.29555e-08
8.01168e-08
7.62779e-08
8.4946e-08
8.52014e-08
8.63154e-08
8.79918e-08
8.92169e-08
8.96212e-08
8.98641e-08
9.05301e-08
9.15918e-08
9.23742e-08
9.27027e-08
9.30572e-08
9.38878e-08
9.24858e-08
9.58841e-08
9.77086e-08
9.72718e-08
9.67923e-08
9.67087e-08
7.25983e-08
8.99934e-08
9.76734e-08
9.72492e-08
9.69328e-08
9.69037e-08
9.70394e-08
9.71764e-08
9.72985e-08
9.76528e-08
9.86188e-08
8.82985e-08
1.00257e-07
9.83142e-08
9.47211e-08
5.99214e-08
3.95557e-08
4.16897e-08
4.52723e-08
5.90599e-08
5.74084e-08
5.09845e-08
3.22757e-08
3.08773e-08
3.79898e-08
3.90741e-08
3.78522e-08
3.72359e-08
3.78246e-08
3.40275e-08
2.1966e-08
2.57173e-08
2.88547e-08
1.47861e-08
2.01316e-08
3.15905e-08
3.3505e-08
4.28395e-08
2.10241e-08
1.44957e-08
2.7124e-08
1.37209e-08
1.82457e-08
2.7582e-08
2.60928e-08
1.79023e-08
2.43902e-08
2.37436e-08
1.38214e-08
1.31143e-08
7.76787e-09
6.22319e-09
6.54947e-09
8.34898e-09
5.64791e-09
4.12533e-09
4.53661e-09
4.50398e-09
6.04372e-09
5.83601e-09
1.04229e-08
1.42058e-08
8.90215e-09
1.38787e-08
2.41361e-08
1.36472e-07
3.05185e-08
2.22185e-08
1.27404e-08
1.14701e-08
1.27593e-08
1.58664e-08
6.58409e-09
4.96556e-09
8.70818e-09
1.27897e-08
1.9056e-08
1.62812e-08
2.35426e-08
2.08345e-08
4.41149e-08
7.72295e-08
1.42666e-07
1.08838e-07
9.93741e-08
1.2325e-07
1.42549e-07
1.42006e-07
1.41273e-07
1.33064e-07
1.06428e-07
9.28887e-08
8.05823e-08
6.77772e-08
5.7285e-08
4.97464e-08
4.42191e-08
4.00414e-08
3.63023e-08
3.28711e-08
2.99309e-08
2.76431e-08
2.58554e-08
2.41978e-08
2.25505e-08
2.10309e-08
1.97299e-08
1.87902e-08
1.79055e-08
1.69359e-08
1.60171e-08
1.5263e-08
1.46409e-08
1.40846e-08
1.35476e-08
1.30418e-08
1.26295e-08
1.23258e-08
1.2037e-08
1.17502e-08
1.15613e-08
1.14648e-08
1.14324e-08
1.14047e-08
1.14375e-08
1.15831e-08
1.17849e-08
1.20524e-08
1.23838e-08
1.27383e-08
1.31836e-08
1.36999e-08
1.41575e-08
1.46202e-08
1.5177e-08
1.58212e-08
1.65301e-08
1.71859e-08
1.78728e-08
1.86165e-08
1.93059e-08
2.00077e-08
2.08567e-08
2.18184e-08
2.2953e-08
2.41484e-08
2.53084e-08
2.64394e-08
2.75422e-08
2.88865e-08
3.06135e-08
3.25366e-08
3.43671e-08
3.61245e-08
3.8183e-08
4.07535e-08
4.36576e-08
4.66271e-08
4.9781e-08
5.32614e-08
5.74892e-08
6.27939e-08
6.86875e-08
7.47776e-08
8.09874e-08
8.88739e-08
9.99862e-08
1.14474e-07
1.32568e-07
1.54637e-07
1.81666e-07
2.11797e-07
2.49645e-07
3.09214e-07
3.23524e-07
3.25157e-07
3.2582e-07
3.26375e-07
3.27322e-07
3.28801e-07
2.78692e-07
2.34033e-07
2.03162e-07
1.80817e-07
1.64961e-07
1.52953e-07
1.40525e-07
1.285e-07
1.18963e-07
1.11727e-07
1.07185e-07
1.03894e-07
1.00699e-07
9.67848e-08
9.23554e-08
8.82834e-08
8.48901e-08
8.26948e-08
8.06132e-08
7.84889e-08
7.68855e-08
7.53595e-08
7.29532e-08
7.03532e-08
6.88795e-08
6.81244e-08
6.68088e-08
6.46527e-08
6.26047e-08
6.10454e-08
5.99053e-08
5.89107e-08
5.8033e-08
5.65312e-08
5.42495e-08
5.25303e-08
5.13462e-08
5.02344e-08
4.93791e-08
4.83407e-08
4.70305e-08
4.55875e-08
4.39715e-08
4.27965e-08
4.19322e-08
4.09799e-08
3.99148e-08
3.88795e-08
3.79122e-08
3.70642e-08
3.61382e-08
3.51248e-08
3.41988e-08
3.34261e-08
3.28476e-08
3.23103e-08
3.15811e-08
3.07737e-08
3.01205e-08
2.96467e-08
2.92407e-08
2.877e-08
2.83534e-08
2.79917e-08
2.7642e-08
2.7396e-08
2.72145e-08
2.70426e-08
2.69302e-08
2.68333e-08
2.68969e-08
2.70903e-08
2.72015e-08
2.72996e-08
2.7524e-08
2.79395e-08
2.85011e-08
2.89688e-08
2.94309e-08
3.00614e-08
3.08247e-08
3.15871e-08
3.23678e-08
3.32129e-08
3.41129e-08
3.51685e-08
3.62372e-08
3.72836e-08
3.84359e-08
3.97443e-08
4.12069e-08
4.2772e-08
4.43832e-08
4.60938e-08
4.79871e-08
5.01042e-08
5.24542e-08
5.50445e-08
5.77784e-08
6.07343e-08
6.40274e-08
6.7755e-08
7.19679e-08
7.66169e-08
8.17643e-08
8.75893e-08
9.41587e-08
1.01614e-07
1.10178e-07
1.2e-07
1.31556e-07
1.45419e-07
1.61994e-07
1.81816e-07
2.06067e-07
2.36662e-07
2.76341e-07
3.29334e-07
4.01599e-07
4.124e-07
4.12427e-07
4.12125e-07
4.12277e-07
4.1281e-07
4.12776e-07
4.1228e-07
4.11883e-07
4.12023e-07
3.98657e-07
3.52734e-07
3.18202e-07
2.91086e-07
2.68586e-07
2.49601e-07
2.34949e-07
2.2334e-07
2.12952e-07
2.03768e-07
1.95834e-07
1.89109e-07
1.8349e-07
1.7854e-07
1.74121e-07
1.70295e-07
1.67085e-07
1.64363e-07
1.6179e-07
1.59413e-07
1.57413e-07
1.55748e-07
1.5458e-07
1.53542e-07
1.52466e-07
1.51527e-07
1.50995e-07
1.5072e-07
1.50387e-07
1.50031e-07
1.50104e-07
1.50333e-07
1.50436e-07
1.50686e-07
1.51122e-07
1.51688e-07
1.52107e-07
1.52608e-07
1.52913e-07
1.53788e-07
1.54521e-07
1.55483e-07
1.56196e-07
1.56923e-07
1.57504e-07
1.58881e-07
1.59744e-07
1.61328e-07
1.62326e-07
1.64518e-07
1.64688e-07
1.67238e-07
1.68422e-07
1.71577e-07
1.76784e-07
1.78905e-07
1.83477e-07
1.79413e-07
1.82307e-07
1.77096e-07
1.79047e-07
1.98615e-07
2.04134e-07
1.86749e-07
1.90634e-07
1.41123e-07
1.39553e-07
2.19164e-07
2.48001e-07
3.65542e-07
4.34756e-07
1.53669e-07
1.33741e-07
2.21112e-07
1.87331e-07
1.49149e-07
1.78245e-07
2.23807e-07
2.47591e-07
2.53363e-07
2.47199e-07
2.39698e-07
2.40332e-07
2.16385e-07
2.19735e-07
2.48722e-07
2.52454e-07
2.22768e-07
2.00816e-07
2.11609e-07
2.1241e-07
1.74747e-07
1.89494e-07
1.88856e-07
1.99302e-07
1.78677e-07
1.94706e-07
1.58253e-07
1.79321e-07
2.02808e-07
2.33976e-07
2.52461e-07
2.23515e-07
2.29831e-07
8.81508e-08
9.7432e-08
8.29368e-08
1.16695e-07
4.38221e-08
4.78197e-08
1.83132e-08
1.78183e-08
4.4275e-08
4.74587e-08
3.64354e-08
3.79135e-08
6.7072e-08
1.02275e-07
1.47321e-07
2.26627e-07
3.31199e-07
4.32108e-07
4.48503e-07
4.01529e-07
3.50753e-07
3.10978e-07
2.81323e-07
2.58803e-07
2.41783e-07
2.28969e-07
2.19162e-07
2.11277e-07
2.04607e-07
1.9878e-07
1.93547e-07
1.88751e-07
1.84744e-07
1.8151e-07
1.78719e-07
1.76055e-07
1.74521e-07
1.73291e-07
1.71824e-07
1.70574e-07
1.69899e-07
1.69478e-07
1.69027e-07
1.6847e-07
1.67928e-07
1.6769e-07
1.67825e-07
1.679e-07
1.67002e-07
1.66342e-07
1.65768e-07
1.65044e-07
1.64262e-07
1.63579e-07
1.63115e-07
1.62896e-07
1.62846e-07
1.62876e-07
1.62975e-07
1.63204e-07
1.63565e-07
1.63929e-07
1.6406e-07
1.63732e-07
1.63133e-07
1.62761e-07
1.62893e-07
1.63125e-07
1.62881e-07
1.61894e-07
1.60452e-07
1.60412e-07
1.62128e-07
1.62984e-07
1.62029e-07
1.60448e-07
1.605e-07
1.62521e-07
1.63809e-07
1.62596e-07
1.61557e-07
1.626e-07
1.63881e-07
1.62951e-07
1.63486e-07
1.58583e-07
1.4056e-07
1.4229e-07
1.43812e-07
4.5519e-08
1.38199e-07
2.78319e-09
6.8807e-09
1.01304e-08
7.98122e-09
6.49415e-09
6.284e-09
6.86599e-09
6.40129e-09
3.75591e-09
3.05178e-09
4.14667e-09
7.63326e-09
1.42157e-08
3.18152e-08
5.77824e-08
5.87123e-08
6.05539e-08
6.27102e-08
6.53761e-08
6.83909e-08
7.11678e-08
7.33609e-08
7.50264e-08
7.63318e-08
7.73923e-08
7.4262e-08
6.76979e-08
6.27889e-08
5.77817e-08
6.34943e-08
7.62818e-08
6.72332e-08
6.67853e-08
8.61963e-08
8.72178e-08
8.84883e-08
9.00794e-08
6.78855e-08
5.39517e-08
6.24487e-08
7.81569e-08
4.431e-08
3.6242e-08
5.19347e-08
5.55177e-08
6.07001e-08
8.04368e-08
4.19216e-08
4.26865e-08
1.09001e-07
1.10633e-07
1.06347e-07
1.15793e-07
1.18914e-07
1.02602e-07
1.11593e-07
1.2492e-07
4.35601e-08
5.62174e-08
1.09545e-07
1.16768e-07
6.17201e-08
2.29895e-08
1.97301e-08
2.96592e-08
2.70672e-08
2.55036e-08
2.55006e-08
1.86681e-08
1.77063e-08
2.30663e-08
2.2867e-08
2.1237e-08
2.23198e-08
3.04637e-08
4.0138e-08
4.67089e-08
2.67084e-08
3.17836e-08
4.93536e-08
5.1905e-08
5.28922e-08
5.20537e-08
4.42191e-08
4.1022e-08
3.71007e-08
2.30559e-08
1.80681e-08
1.48841e-08
6.00795e-09
7.00046e-09
6.3841e-09
6.14809e-09
8.92376e-09
7.98129e-09
6.86949e-09
8.88781e-09
9.12252e-09
6.54616e-09
5.90767e-09
5.40472e-09
4.35923e-09
3.23867e-09
3.37039e-09
1.88666e-09
1.40596e-09
1.60986e-09
1.95204e-09
2.90113e-09
3.79818e-09
3.61382e-09
5.55397e-09
5.64505e-09
1.09423e-08
3.18976e-08
3.16616e-08
1.17641e-08
9.47268e-09
9.27726e-09
9.96439e-09
8.30549e-09
1.00619e-08
4.21076e-09
3.30956e-09
5.77125e-09
7.9244e-09
1.20766e-08
1.10401e-08
1.92744e-08
1.78309e-08
5.08397e-08
1.14331e-07
1.06515e-07
5.73155e-08
6.06881e-08
9.71088e-08
1.38575e-07
9.43637e-08
6.45214e-08
5.24673e-08
4.44988e-08
3.90294e-08
3.41027e-08
3.03117e-08
2.74272e-08
2.48886e-08
2.25047e-08
2.0597e-08
1.91879e-08
1.81269e-08
1.6925e-08
1.56862e-08
1.46524e-08
1.38587e-08
1.3275e-08
1.27121e-08
1.20644e-08
1.14711e-08
1.10141e-08
1.05959e-08
1.02238e-08
9.93067e-09
9.68317e-09
9.45563e-09
9.26201e-09
9.09298e-09
8.98699e-09
8.94532e-09
8.88453e-09
8.91525e-09
9.00493e-09
9.09669e-09
9.24915e-09
9.41131e-09
9.59815e-09
9.91084e-09
1.02881e-08
1.06515e-08
1.10336e-08
1.14269e-08
1.18922e-08
1.24636e-08
1.30891e-08
1.36953e-08
1.42748e-08
1.49649e-08
1.57144e-08
1.63896e-08
1.71058e-08
1.78939e-08
1.87516e-08
1.97846e-08
2.09777e-08
2.21386e-08
2.32939e-08
2.44265e-08
2.558e-08
2.69714e-08
2.87339e-08
3.06582e-08
3.26095e-08
3.45126e-08
3.66671e-08
3.91465e-08
4.1711e-08
4.47417e-08
4.84661e-08
5.26286e-08
5.7289e-08
6.19702e-08
6.69864e-08
7.33098e-08
8.15442e-08
9.04408e-08
1.01854e-07
1.1652e-07
1.34125e-07
1.56356e-07
1.83686e-07
2.11496e-07
2.40936e-07
2.88412e-07
3.58888e-07
4.03577e-07
3.69863e-07
3.01306e-07
2.56293e-07
2.2821e-07
2.06859e-07
1.85246e-07
1.65074e-07
1.47206e-07
1.35088e-07
1.27011e-07
1.1799e-07
1.08867e-07
1.03494e-07
1.00525e-07
9.72921e-08
9.38735e-08
8.96089e-08
8.42566e-08
8.03507e-08
7.85411e-08
7.76374e-08
7.63213e-08
7.40861e-08
7.14853e-08
6.92547e-08
6.72323e-08
6.56825e-08
6.47805e-08
6.4038e-08
6.24435e-08
5.99529e-08
5.79e-08
5.67967e-08
5.61091e-08
5.547e-08
5.43648e-08
5.25069e-08
5.05546e-08
4.91296e-08
4.82432e-08
4.72424e-08
4.59639e-08
4.48797e-08
4.37723e-08
4.24795e-08
4.12319e-08
4.0345e-08
3.97064e-08
3.87397e-08
3.73619e-08
3.61214e-08
3.53604e-08
3.48726e-08
3.41172e-08
3.31684e-08
3.22859e-08
3.16891e-08
3.10854e-08
3.03179e-08
2.96116e-08
2.90473e-08
2.86527e-08
2.83142e-08
2.79637e-08
2.73711e-08
2.67897e-08
2.65055e-08
2.6334e-08
2.62584e-08
2.61767e-08
2.59267e-08
2.56779e-08
2.56349e-08
2.57541e-08
2.59744e-08
2.61581e-08
2.62343e-08
2.64078e-08
2.68071e-08
2.73234e-08
2.77271e-08
2.80843e-08
2.8678e-08
2.94278e-08
3.0149e-08
3.08494e-08
3.16321e-08
3.25153e-08
3.35381e-08
3.46267e-08
3.56541e-08
3.67189e-08
3.79963e-08
3.94377e-08
4.09828e-08
4.25665e-08
4.41779e-08
4.59655e-08
4.8045e-08
5.04129e-08
5.29207e-08
5.55324e-08
5.83867e-08
6.15613e-08
6.52054e-08
6.92879e-08
7.36175e-08
7.84283e-08
8.39976e-08
9.03508e-08
9.75729e-08
1.05732e-07
1.14871e-07
1.25486e-07
1.38292e-07
1.53689e-07
1.71902e-07
1.93458e-07
2.19418e-07
2.51421e-07
2.92715e-07
3.4606e-07
4.12376e-07
4.89335e-07
5.71215e-07
6.35487e-07
6.4327e-07
5.92515e-07
5.2438e-07
4.60556e-07
4.04834e-07
3.58781e-07
3.2392e-07
2.97564e-07
2.74977e-07
2.54547e-07
2.37293e-07
2.24588e-07
2.14923e-07
2.05883e-07
1.96983e-07
1.88956e-07
1.82883e-07
1.78413e-07
1.74103e-07
1.69687e-07
1.65892e-07
1.62768e-07
1.60363e-07
1.582e-07
1.55795e-07
1.53669e-07
1.52322e-07
1.51551e-07
1.50741e-07
1.49679e-07
1.48605e-07
1.48058e-07
1.47935e-07
1.47574e-07
1.47473e-07
1.4788e-07
1.48308e-07
1.48447e-07
1.48386e-07
1.49079e-07
1.50012e-07
1.50504e-07
1.50508e-07
1.51302e-07
1.52016e-07
1.52822e-07
1.53642e-07
1.55007e-07
1.55419e-07
1.56373e-07
1.57015e-07
1.58571e-07
1.58771e-07
1.61081e-07
1.62449e-07
1.648e-07
1.68741e-07
1.71068e-07
1.7199e-07
1.72057e-07
1.74998e-07
1.71806e-07
1.75174e-07
1.96369e-07
2.04098e-07
1.81447e-07
1.84276e-07
1.34709e-07
1.34222e-07
2.22703e-07
2.59074e-07
3.74108e-07
4.33565e-07
1.307e-07
1.21945e-07
2.70257e-07
2.60041e-07
1.81218e-07
1.75501e-07
1.49983e-07
1.45159e-07
1.96431e-07
2.00539e-07
2.18069e-07
2.01606e-07
2.04676e-07
2.57158e-07
2.66996e-07
2.85384e-07
2.37505e-07
2.07041e-07
2.33017e-07
2.35285e-07
1.74448e-07
1.8542e-07
1.85966e-07
2.04209e-07
1.85176e-07
1.9842e-07
1.5681e-07
1.77512e-07
1.99781e-07
2.42218e-07
2.03831e-07
2.13264e-07
2.25624e-07
8.67319e-08
9.85136e-08
7.67357e-08
1.04657e-07
3.97834e-08
4.30147e-08
1.6199e-08
1.55684e-08
3.87716e-08
3.86695e-08
3.7732e-08
3.75743e-08
5.10259e-08
5.23511e-08
6.99518e-08
9.10898e-08
1.17525e-07
1.46577e-07
1.805e-07
2.15386e-07
2.4614e-07
2.64028e-07
2.68168e-07
2.63877e-07
2.54487e-07
2.43113e-07
2.3251e-07
2.23912e-07
2.1711e-07
2.11445e-07
2.06317e-07
2.01573e-07
1.97361e-07
1.93169e-07
1.88234e-07
1.84914e-07
1.82295e-07
1.79843e-07
1.77751e-07
1.76225e-07
1.74874e-07
1.7343e-07
1.71853e-07
1.70157e-07
1.68469e-07
1.66994e-07
1.65902e-07
1.65219e-07
1.64839e-07
1.6465e-07
1.64617e-07
1.64575e-07
1.64323e-07
1.63848e-07
1.63303e-07
1.62875e-07
1.62713e-07
1.62787e-07
1.62922e-07
1.62921e-07
1.62736e-07
1.62533e-07
1.62563e-07
1.62933e-07
1.63467e-07
1.63831e-07
1.63802e-07
1.63519e-07
1.63145e-07
1.62615e-07
1.61765e-07
1.60796e-07
1.60515e-07
1.61636e-07
1.6343e-07
1.63954e-07
1.6232e-07
1.60462e-07
1.60927e-07
1.63951e-07
1.65497e-07
1.62625e-07
1.59583e-07
1.60458e-07
1.63145e-07
1.61685e-07
1.58841e-07
1.62564e-07
1.60961e-07
1.4095e-07
1.4097e-07
1.43719e-07
4.50166e-08
1.37423e-07
2.75396e-09
6.85016e-09
9.40802e-09
7.38613e-09
5.97351e-09
5.90182e-09
6.43911e-09
5.76527e-09
3.55451e-09
3.26977e-09
5.64968e-09
1.76897e-08
5.37855e-08
3.18516e-08
3.46107e-08
5.71042e-08
6.77378e-08
6.83398e-08
6.96544e-08
7.16048e-08
7.39822e-08
7.67392e-08
7.61687e-08
6.01341e-08
4.87842e-08
4.0609e-08
3.68545e-08
3.57901e-08
3.09052e-08
2.89407e-08
3.17507e-08
3.42366e-08
2.9056e-08
3.40917e-08
4.53839e-08
4.02103e-08
3.08024e-08
2.88434e-08
3.45337e-08
4.43436e-08
4.73624e-08
3.0832e-08
2.25864e-08
2.48375e-08
3.27353e-08
5.659e-08
1.34057e-07
4.09539e-08
3.27568e-08
7.30652e-08
1.6554e-07
5.61312e-08
5.19678e-08
4.96579e-08
5.582e-08
1.03031e-07
9.56056e-08
4.00838e-08
4.20356e-08
3.78135e-08
4.71398e-08
3.60639e-08
1.65296e-08
1.72596e-08
3.17015e-08
2.14349e-08
1.42302e-08
1.27045e-08
1.42764e-08
1.65392e-08
1.55784e-08
1.40517e-08
1.23738e-08
1.36604e-08
1.48356e-08
1.62626e-08
1.72304e-08
2.34035e-08
3.72896e-08
5.85092e-08
4.65028e-08
5.32406e-08
5.13208e-08
4.89169e-08
4.62827e-08
4.38627e-08
4.17455e-08
1.78393e-08
1.35153e-08
1.2338e-08
1.00348e-08
1.24707e-08
6.26539e-09
6.70823e-09
6.3859e-09
4.64537e-09
6.52595e-09
5.91851e-09
5.04349e-09
7.29669e-09
1.12143e-08
8.81321e-09
5.84423e-09
4.61254e-09
3.85998e-09
2.75242e-09
2.43413e-09
2.22218e-09
1.52061e-09
1.14204e-09
1.53108e-09
1.90248e-09
2.85371e-09
3.07151e-09
5.25739e-09
5.53094e-09
1.0139e-08
2.12126e-08
5.06811e-08
1.55684e-08
1.02509e-08
9.30424e-09
9.75071e-09
7.21125e-09
8.49761e-09
3.72872e-09
3.00616e-09
5.15459e-09
6.79186e-09
1.04955e-08
9.978e-09
1.94583e-08
2.09577e-08
1.07936e-07
7.41183e-08
4.85678e-08
5.1592e-08
3.94921e-08
4.75672e-08
5.2964e-08
4.22152e-08
3.47058e-08
3.03215e-08
2.72172e-08
2.49603e-08
2.27924e-08
2.07641e-08
1.91127e-08
1.79344e-08
1.68811e-08
1.57143e-08
1.45907e-08
1.37766e-08
1.31703e-08
1.25952e-08
1.19796e-08
1.14289e-08
1.09906e-08
1.06017e-08
1.0211e-08
9.86045e-09
9.62901e-09
9.48509e-09
9.32233e-09
9.12367e-09
8.96878e-09
8.9372e-09
8.9401e-09
8.89479e-09
8.92134e-09
9.03136e-09
9.13813e-09
9.25315e-09
9.38983e-09
9.5511e-09
9.81735e-09
1.01581e-08
1.04572e-08
1.07357e-08
1.11346e-08
1.16475e-08
1.22056e-08
1.27805e-08
1.33001e-08
1.38674e-08
1.45213e-08
1.52288e-08
1.59934e-08
1.68085e-08
1.76231e-08
1.84496e-08
1.93143e-08
2.03538e-08
2.15274e-08
2.28115e-08
2.41342e-08
2.52881e-08
2.64383e-08
2.79927e-08
2.9975e-08
3.21392e-08
3.41152e-08
3.58324e-08
3.78993e-08
4.05176e-08
4.39054e-08
4.78947e-08
5.16914e-08
5.54738e-08
5.94539e-08
6.42892e-08
7.13367e-08
7.94734e-08
8.63517e-08
9.54457e-08
1.08248e-07
1.23092e-07
1.40951e-07
1.62777e-07
1.81901e-07
1.98802e-07
2.25409e-07
2.62666e-07
2.78463e-07
2.61235e-07
2.30468e-07
2.08732e-07
1.9719e-07
1.85693e-07
1.705e-07
1.55787e-07
1.40373e-07
1.28156e-07
1.20227e-07
1.1284e-07
1.05679e-07
1.01824e-07
9.95256e-08
9.58372e-08
9.07916e-08
8.57572e-08
8.17261e-08
7.95206e-08
7.87063e-08
7.76031e-08
7.58765e-08
7.35039e-08
7.04022e-08
6.75914e-08
6.60035e-08
6.54714e-08
6.496e-08
6.35583e-08
6.16187e-08
5.96553e-08
5.77186e-08
5.6762e-08
5.63699e-08
5.52498e-08
5.33926e-08
5.15346e-08
5.03474e-08
4.93683e-08
4.84143e-08
4.71658e-08
4.55573e-08
4.44395e-08
4.34326e-08
4.21786e-08
4.11434e-08
4.04185e-08
3.9751e-08
3.86365e-08
3.72051e-08
3.5954e-08
3.51655e-08
3.45937e-08
3.39493e-08
3.31653e-08
3.23946e-08
3.17866e-08
3.10081e-08
3.00737e-08
2.9407e-08
2.91508e-08
2.89026e-08
2.84454e-08
2.79041e-08
2.73241e-08
2.6854e-08
2.66387e-08
2.65379e-08
2.63937e-08
2.62418e-08
2.6049e-08
2.58262e-08
2.58138e-08
2.59006e-08
2.59935e-08
2.61594e-08
2.63396e-08
2.65788e-08
2.691e-08
2.72201e-08
2.75369e-08
2.79381e-08
2.85321e-08
2.91806e-08
2.97952e-08
3.04235e-08
3.12101e-08
3.21293e-08
3.30624e-08
3.40665e-08
3.50786e-08
3.6173e-08
3.74656e-08
3.88127e-08
4.02247e-08
4.18206e-08
4.34912e-08
4.52617e-08
4.726e-08
4.94848e-08
5.18498e-08
5.45326e-08
5.74498e-08
6.04446e-08
6.38202e-08
6.77288e-08
7.20441e-08
7.67742e-08
8.20874e-08
8.80237e-08
9.47574e-08
1.02438e-07
1.11096e-07
1.21129e-07
1.32966e-07
1.46771e-07
1.62792e-07
1.81484e-07
2.03207e-07
2.29182e-07
2.60742e-07
2.97115e-07
3.37366e-07
3.80238e-07
4.21687e-07
4.51704e-07
4.60783e-07
4.48116e-07
4.19989e-07
3.85172e-07
3.51247e-07
3.22038e-07
2.98184e-07
2.77798e-07
2.59177e-07
2.4246e-07
2.2825e-07
2.17014e-07
2.08193e-07
2.00025e-07
1.91966e-07
1.84937e-07
1.79714e-07
1.75631e-07
1.71445e-07
1.67236e-07
1.63636e-07
1.60633e-07
1.58389e-07
1.56553e-07
1.54358e-07
1.52361e-07
1.51194e-07
1.50407e-07
1.49384e-07
1.48359e-07
1.47467e-07
1.47112e-07
1.46989e-07
1.46801e-07
1.46801e-07
1.4708e-07
1.47429e-07
1.47618e-07
1.47789e-07
1.4839e-07
1.49386e-07
1.49798e-07
1.50365e-07
1.50839e-07
1.51715e-07
1.52122e-07
1.5362e-07
1.54406e-07
1.55771e-07
1.55029e-07
1.56368e-07
1.56462e-07
1.5882e-07
1.60841e-07
1.64746e-07
1.58585e-07
1.62524e-07
1.55593e-07
1.6249e-07
1.83876e-07
1.98875e-07
2.16218e-07
1.79414e-07
1.81008e-07
1.3034e-07
1.29292e-07
2.24059e-07
2.64316e-07
3.78148e-07
4.67787e-07
1.12522e-07
1.03454e-07
2.83842e-07
2.71597e-07
1.87741e-07
1.71375e-07
1.40972e-07
1.34592e-07
1.80358e-07
1.71014e-07
1.83647e-07
1.69943e-07
1.78375e-07
2.36819e-07
2.70476e-07
2.1837e-07
2.3863e-07
2.22531e-07
2.5423e-07
2.54093e-07
1.77928e-07
1.87673e-07
1.90302e-07
2.12649e-07
1.89517e-07
1.98028e-07
1.6252e-07
1.74277e-07
2.04754e-07
2.24546e-07
1.72955e-07
2.03971e-07
7.42715e-08
9.18521e-08
2.52319e-07
7.65132e-08
1.03071e-07
3.67274e-08
3.90024e-08
1.48656e-08
1.43712e-08
3.74266e-08
3.83731e-08
3.77408e-08
3.51094e-08
4.62863e-08
5.47174e-08
1.09098e-07
1.31788e-07
9.7251e-08
9.29596e-08
1.0829e-07
1.24263e-07
1.4238e-07
1.62277e-07
1.81996e-07
1.99275e-07
2.1193e-07
2.19714e-07
2.22582e-07
2.20956e-07
2.16779e-07
2.1206e-07
2.07576e-07
2.03436e-07
1.99673e-07
1.95575e-07
1.91676e-07
1.88869e-07
1.85563e-07
1.80891e-07
1.78598e-07
1.77066e-07
1.75543e-07
1.74537e-07
1.74024e-07
1.73393e-07
1.72295e-07
1.70961e-07
1.69252e-07
1.67505e-07
1.6602e-07
1.65069e-07
1.64599e-07
1.64325e-07
1.64151e-07
1.64005e-07
1.64018e-07
1.63661e-07
1.63109e-07
1.62605e-07
1.62331e-07
1.62365e-07
1.62544e-07
1.62603e-07
1.62362e-07
1.61909e-07
1.6159e-07
1.6174e-07
1.62381e-07
1.63117e-07
1.63416e-07
1.63145e-07
1.62522e-07
1.61839e-07
1.61213e-07
1.60661e-07
1.60434e-07
1.61036e-07
1.62663e-07
1.63794e-07
1.62938e-07
1.61223e-07
1.60988e-07
1.63341e-07
1.65606e-07
1.641e-07
1.60526e-07
1.59905e-07
1.61626e-07
1.61192e-07
1.586e-07
1.60063e-07
1.66731e-07
1.64176e-07
1.43393e-07
1.42134e-07
1.43316e-07
4.47599e-08
1.38057e-07
2.72204e-09
6.79519e-09
9.1043e-09
7.18985e-09
5.77625e-09
5.78901e-09
6.24681e-09
5.35053e-09
3.15142e-09
2.88245e-09
5.15159e-09
2.15685e-08
2.08024e-08
1.06691e-08
1.03506e-08
1.52995e-08
2.31405e-08
3.19994e-08
3.9396e-08
4.1701e-08
3.94553e-08
3.48462e-08
2.9123e-08
2.41553e-08
2.15602e-08
1.99468e-08
1.88833e-08
1.73241e-08
1.56223e-08
1.61314e-08
1.92749e-08
2.26057e-08
1.8241e-08
1.57168e-08
1.56259e-08
1.55932e-08
1.82206e-08
2.03564e-08
2.59258e-08
3.56103e-08
4.10528e-08
3.2281e-08
2.49035e-08
2.3959e-08
3.82393e-08
3.62547e-07
1.30213e-07
4.8764e-08
2.77726e-08
3.20978e-08
1.516e-07
3.5167e-08
3.07227e-08
3.4157e-08
3.95229e-08
7.48858e-08
7.51502e-08
5.3428e-08
4.64265e-08
3.69236e-08
3.95845e-08
2.338e-08
1.50952e-08
1.93765e-08
3.60281e-08
2.12374e-08
1.19772e-08
1.16415e-08
1.33555e-08
1.43466e-08
1.11562e-08
9.93116e-09
1.10341e-08
1.26405e-08
1.38247e-08
1.36313e-08
1.2531e-08
1.43103e-08
1.62371e-08
2.57027e-08
4.40718e-08
3.85712e-08
4.71636e-08
4.72981e-08
5.56273e-08
5.25005e-08
5.03491e-08
4.90207e-08
3.30015e-08
2.19621e-08
8.37041e-09
7.79413e-09
8.74719e-09
7.88124e-09
1.14661e-08
6.429e-09
8.10763e-09
7.71915e-09
5.22441e-09
8.95093e-09
8.06415e-09
6.22708e-09
9.51942e-09
1.67332e-08
1.29647e-08
6.48436e-09
7.27615e-09
6.35007e-09
4.18617e-09
2.24566e-09
2.38212e-09
1.44892e-09
1.15224e-09
1.51381e-09
1.86205e-09
2.85224e-09
3.04382e-09
5.05182e-09
5.40001e-09
1.03427e-08
2.34318e-08
1.31985e-07
1.9338e-08
1.15909e-08
9.93712e-09
9.73563e-09
6.62062e-09
7.40853e-09
3.44268e-09
2.85796e-09
4.85785e-09
6.1783e-09
9.59618e-09
9.31138e-09
1.96735e-08
3.6526e-08
3.06012e-08
4.54096e-07
4.4252e-08
3.249e-08
2.78876e-08
3.09925e-08
3.10682e-08
2.60512e-08
2.27003e-08
2.08772e-08
1.94101e-08
1.82528e-08
1.71473e-08
1.60128e-08
1.48777e-08
1.39771e-08
1.33073e-08
1.27794e-08
1.21881e-08
1.15812e-08
1.10893e-08
1.0747e-08
1.044e-08
1.0112e-08
9.81796e-09
9.61303e-09
9.49307e-09
9.35922e-09
9.19927e-09
9.0997e-09
9.09717e-09
9.11122e-09
9.10693e-09
9.10432e-09
9.17231e-09
9.29828e-09
9.39462e-09
9.51857e-09
9.68425e-09
9.86639e-09
1.01069e-08
1.03748e-08
1.06395e-08
1.10252e-08
1.15201e-08
1.20242e-08
1.25183e-08
1.30042e-08
1.35617e-08
1.4135e-08
1.48072e-08
1.56908e-08
1.6547e-08
1.7356e-08
1.82077e-08
1.89534e-08
1.97701e-08
2.09219e-08
2.22797e-08
2.36968e-08
2.49903e-08
2.61039e-08
2.74125e-08
2.91744e-08
3.1272e-08
3.34379e-08
3.52299e-08
3.70922e-08
3.9597e-08
4.30126e-08
4.66963e-08
5.00759e-08
5.33375e-08
5.70463e-08
6.18932e-08
6.87285e-08
7.64546e-08
8.27927e-08
8.93658e-08
9.94496e-08
1.1217e-07
1.26901e-07
1.4227e-07
1.54663e-07
1.66302e-07
1.85498e-07
2.07246e-07
2.10006e-07
1.98121e-07
1.86868e-07
1.80453e-07
1.73388e-07
1.62011e-07
1.51882e-07
1.43406e-07
1.34047e-07
1.22858e-07
1.12283e-07
1.06303e-07
1.03065e-07
1.00173e-07
9.65488e-08
9.25584e-08
8.75123e-08
8.2755e-08
8.0854e-08
7.97438e-08
7.84356e-08
7.65537e-08
7.4558e-08
7.19456e-08
6.87135e-08
6.6577e-08
6.5942e-08
6.5724e-08
6.48769e-08