/*--------------------------------*- C++ -*----------------------------------*\
| =========                 |                                                 |
| \\      /  F ield         | OpenFOAM: The Open Source CFD Toolbox           |
|  \\    /   O peration     | Version:  v2006                                 |
|   \\  /    A nd           | Website:  www.openfoam.com                      |
|    \\/     M anipulation  |                                                 |
\*---------------------------------------------------------------------------*/
FoamFile
{
    version     2.0;
    format      ascii;
    class       volScalarField;
    location    "4.9";
    object      omega;
}
// * * * * * * * * * * * * * * * * * * * * * * * * * * * * * * * * * * * * * //

dimensions      [0 0 -1 0 0 0 0];


internalField   nonuniform List<scalar> 
33000
(
0.801293
0.801344
0.801394
0.801445
0.801503
0.801573
0.801657
0.80176
0.801877
0.802008
0.802161
0.802356
0.802608
0.802925
0.803311
0.803775
0.80437
0.805254
0.806595
0.808436
0.810622
0.812842
0.814797
0.816345
0.817482
0.81827
0.818796
0.819139
0.819352
0.819502
0.819632
0.819745
0.819835
0.819913
0.819978
0.820046
0.820113
0.820162
0.820178
0.820172
0.820189
0.820237
0.820265
0.820255
0.820209
0.820134
0.820076
0.820045
0.820005
0.819934
0.819837
0.819736
0.819646
0.819562
0.81947
0.819375
0.81929
0.819213
0.819116
0.818994
0.818826
0.81861
0.81834
0.818001
0.817585
0.817084
0.816497
0.815864
0.815232
0.814598
0.81393
0.813228
0.812522
0.811861
0.81129
0.810842
0.810545
0.810431
0.810566
0.811051
0.811832
0.812707
0.813384
0.813719
0.813612
0.813535
0.813491
0.813462
0.813393
0.813319
0.813145
0.81283
0.812394
0.811852
0.81123
0.810566
0.809919
0.809346
0.808916
0.808715
0.808844
0.80926
0.809708
0.809982
0.809959
0.809838
0.809823
0.809861
0.809846
0.809768
0.80969
0.80958
0.809463
0.809309
0.809098
0.808847
0.808597
0.808431
0.808429
0.808543
0.808612
0.808691
0.808673
0.808653
0.808701
0.808737
0.808757
0.808772
0.808779
0.808783
0.808788
0.808793
0.808795
0.808795
0.808789
0.808782
0.808775
0.808767
0.808759
0.808751
0.808741
0.808728
0.808714
0.808699
0.808681
0.808661
0.808641
0.808622
0.808603
0.808586
0.808566
0.808545
0.808525
0.808506
0.808488
0.808469
0.808447
0.808424
0.808401
0.80838
0.808357
0.808335
0.808312
0.80829
0.808267
0.808244
0.80822
0.808196
0.80817
0.808143
0.808123
0.808116
0.808124
0.808145
0.808177
0.80822
0.808268
0.808314
0.808352
0.80838
0.8084
0.808413
0.808419
0.808416
0.808405
0.808393
0.808381
0.80837
0.808359
0.808348
0.808335
0.808323
0.80831
0.808297
0.808282
0.808266
0.80825
0.808234
0.808216
0.808197
0.80818
0.808165
0.808149
0.808131
0.808112
0.808093
0.808075
0.808059
0.808044
0.808027
0.808009
0.807992
0.807977
0.807961
0.807941
0.80792
0.807899
0.80788
0.807861
0.807841
0.807817
0.807789
0.807759
0.807731
0.807704
0.807677
0.807648
0.807616
0.807585
0.807553
0.807522
0.807493
0.807465
0.807434
0.807402
0.807371
0.80734
0.807309
0.807279
0.807248
0.807216
0.807185
0.807154
0.807122
0.807088
0.807054
0.80702
0.806989
0.806956
0.80692
0.806884
0.806849
0.806814
0.806777
0.806741
0.806705
0.806667
0.806629
0.806591
0.806553
0.806516
0.806477
0.806436
0.806396
0.806356
0.806317
0.806278
0.806238
0.806197
0.806154
0.806112
0.806071
0.806031
0.80599
0.805948
0.805905
0.805862
0.805819
0.805775
0.805731
0.805687
0.805644
0.8056
0.805555
0.80551
0.805464
0.805418
0.805372
0.805326
0.80528
0.805233
0.805188
0.805146
0.805107
0.805071
0.805039
0.805009
0.804983
0.80496
0.804941
0.804925
0.804914
0.804906
0.804902
0.804903
0.804905
0.804907
0.804907
0.804905
0.804902
0.804897
0.80489
0.804881
0.804869
0.804856
0.804842
0.804825
0.804807
0.804788
0.804766
0.804744
0.804719
0.804693
0.804666
0.804637
0.804609
0.80458
0.804552
0.804524
0.804496
0.804468
0.804441
0.804413
0.804385
0.804357
0.804329
0.804301
0.804273
0.804244
0.804216
0.804187
0.804158
0.804129
0.8041
0.80407
0.804041
0.804011
0.803981
0.803951
0.803921
0.80389
0.80386
0.803829
0.803799
0.803768
0.803737
0.803706
0.803675
0.803644
0.803613
0.803582
0.803551
0.80352
0.803488
0.803457
0.803426
0.803395
0.803364
0.803333
0.803303
0.803272
0.803241
0.803211
0.80318
0.80315
0.80312
0.803089
0.80306
0.80303
0.803
0.802971
0.802941
0.802912
0.802883
0.802854
0.802826
0.802797
0.802769
0.802741
0.802713
0.802685
0.802658
0.802631
0.802604
0.802577
0.80255
0.802524
0.802497
0.802471
0.802445
0.80242
0.802394
0.802369
0.802344
0.802319
0.802294
0.80227
0.802246
0.802222
0.802198
0.802175
0.802152
0.802129
0.802106
0.802083
0.802061
0.802038
0.802016
0.801994
0.801972
0.801951
0.801929
0.801909
0.801887
0.801862
0.80184
0.801825
0.8018
0.801792
0.80178
0.801799
0.801784
0.801783
0.80177
0.801761
0.801748
0.801737
0.801724
0.801712
0.801699
0.801686
0.801673
0.801658
0.801645
0.801634
0.801619
0.801612
0.801604
0.801609
0.801599
0.801593
0.801585
0.801578
0.80157
0.801562
0.801554
0.801546
0.801535
0.801525
0.80152
0.801507
0.801504
0.801491
0.801452
0.801445
0.801453
0.801418
0.801523
0.801568
0.801922
0.801981
0.802121
0.802189
0.802248
0.802292
0.802325
0.80235
0.802368
0.802382
0.802393
0.802402
0.802409
0.802414
0.802418
0.802421
0.802423
0.802424
0.802425
0.802425
0.802425
0.802425
0.802424
0.802424
0.802423
0.802421
0.80242
0.802419
0.802417
0.802415
0.802413
0.802411
0.802408
0.802405
0.802402
0.802399
0.802396
0.802392
0.802389
0.802386
0.802383
0.80238
0.802377
0.802375
0.802372
0.80237
0.802368
0.802366
0.802363
0.802361
0.802359
0.802357
0.802354
0.802352
0.80235
0.802349
0.802347
0.802345
0.802344
0.802342
0.802341
0.802341
0.80234
0.80234
0.80234
0.80234
0.80234
0.802341
0.802342
0.802342
0.802342
0.802342
0.802342
0.802342
0.802341
0.802341
0.802342
0.802342
0.802313
0.802285
0.801994
0.00133153
0.00222662
0.00569249
0.0165291
0.0431026
0.0941442
0.174311
0.288988
0.441917
0.576738
0.645261
0.675665
0.700998
0.736027
0.791092
0.872538
0.964144
1.02806
1.05711
1.06245
1.05136
1.02187
0.968265
0.895461
0.814312
0.739117
0.675025
0.621305
0.577828
0.545059
0.522944
0.509458
0.499847
0.490571
0.480449
0.469706
0.458898
0.447336
0.435202
0.424586
0.417565
0.414259
0.411632
0.405533
0.39607
0.386489
0.379837
0.376474
0.373757
0.368319
0.360046
0.350588
0.341656
0.333721
0.327302
0.323711
0.324529
0.330451
0.339416
0.347219
0.35292
0.359447
0.37034
0.384519
0.398053
0.411097
0.428901
0.458355
0.503222
0.563312
0.633171
0.704268
0.769777
0.824989
0.869707
0.908155
0.948286
0.989007
1.01883
1.0526
1.14602
1.23918
1.28453
1.29349
1.18646
1.01621
0.769673
0.484955
0.301941
0.193997
0.140497
0.121813
0.128658
0.149419
0.182431
0.225126
0.275611
0.335366
0.419573
0.508198
0.543093
0.593267
0.637053
0.582971
0.472671
0.344498
0.255727
0.184392
0.140862
0.122252
0.111114
0.104793
0.103515
0.108098
0.120213
0.137375
0.165945
0.184299
0.175621
0.165737
0.159814
0.145091
0.134025
0.121816
0.115266
0.10682
0.101926
0.0993909
0.098976
0.0986339
0.0986623
0.099083
0.099534
0.100188
0.101041
0.102096
0.102982
0.103806
0.104525
0.105041
0.105299
0.105374
0.105613
0.105876
0.105697
0.105105
0.104805
0.104964
0.105145
0.104756
0.103638
0.102651
0.102157
0.101879
0.101345
0.10038
0.0990978
0.0981779
0.0974479
0.0962163
0.0946536
0.093305
0.0923066
0.0909873
0.0890536
0.0872389
0.0859557
0.0846297
0.082579
0.0803087
0.0784479
0.0769694
0.0754465
0.0735549
0.071332
0.0694126
0.0679166
0.0665013
0.0649616
0.0633709
0.0618551
0.0605359
0.0592773
0.0577896
0.0561994
0.0549344
0.0539758
0.0530151
0.0519854
0.0508775
0.0497995
0.0488058
0.0479052
0.0470564
0.0462264
0.0454312
0.0446216
0.0437552
0.0429167
0.0422571
0.0417867
0.041333
0.0407482
0.0400506
0.039348
0.0387938
0.0383916
0.0380293
0.0375994
0.0371041
0.0366462
0.0363065
0.0360036
0.0356086
0.0351332
0.0347428
0.0344959
0.034336
0.0341717
0.033898
0.0335316
0.0332029
0.0330218
0.0329504
0.0328921
0.0327916
0.0326342
0.032438
0.0322606
0.0321676
0.0321582
0.0321617
0.0321073
0.0319872
0.0318799
0.0318809
0.031977
0.0320779
0.0321298
0.0321563
0.0321976
0.0322672
0.0323523
0.032443
0.032531
0.0326393
0.032826
0.0330182
0.0331096
0.0331656
0.0332889
0.0334643
0.0336254
0.0337477
0.0338893
0.0340307
0.0341046
0.0341518
0.0342461
0.0343662
0.034447
0.0344598
0.0344733
0.0345489
0.0346694
0.0347753
0.034826
0.0347691
0.0346343
0.0345503
0.0345736
0.0346682
0.0347611
0.0347734
0.0346955
0.0345778
0.0344933
0.0344659
0.0344348
0.0343521
0.0343106
0.0343498
0.0343186
0.0341711
0.0339748
0.0338134
0.0337365
0.0337274
0.0337101
0.0336321
0.0334636
0.0332463
0.0330952
0.0330426
0.0330055
0.0329185
0.0327838
0.0326216
0.0324726
0.0323605
0.0322642
0.0321436
0.0319706
0.0317951
0.0316552
0.0315266
0.0313513
0.0311122
0.0309258
0.0307892
0.0306428
0.0304513
0.0302213
0.0300007
0.0298092
0.0296271
0.0294155
0.0291826
0.0289737
0.028789
0.0286034
0.0283777
0.0281248
0.0279273
0.0277643
0.0275734
0.0273308
0.0271099
0.0269439
0.0267938
0.0266376
0.0264617
0.0262669
0.0260769
0.0259062
0.0257578
0.0256312
0.0255153
0.0253906
0.0252543
0.0251496
0.0250898
0.0250488
0.0250059
0.02494
0.0248577
0.0248103
0.0248083
0.0248274
0.0248185
0.024786
0.0247884
0.0248193
0.0248437
0.0248342
0.0248064
0.0248111
0.0248276
0.0248165
0.024781
0.0247624
0.0247575
0.0247478
0.0247314
0.0246926
0.0246499
0.0246274
0.0246086
0.0245836
0.0245468
0.0244856
0.0244161
0.0243604
0.024312
0.0242494
0.0241807
0.0241259
0.0240749
0.0240227
0.0239554
0.0238647
0.0237721
0.0236955
0.0236308
0.0235715
0.0235001
0.0234197
0.0233284
0.0232317
0.0231628
0.023089
0.0229759
0.0228605
0.0228005
0.0227179
0.0226132
0.0225343
0.0224559
0.0223592
0.0222458
0.0221371
0.0220275
0.0219398
0.021854
0.0217722
0.021676
0.0215869
0.0214586
0.0213719
0.021285
0.0212001
0.0210982
0.0209758
0.0208954
0.0207614
0.0206678
0.0205521
0.0203896
0.020249
0.0202752
0.0200718
0.0200901
0.0198945
0.0192704
0.0192246
0.0198095
0.0194532
0.0209432
0.0229056
0.0275611
0.0283776
0.0241656
0.0228352
0.021332
0.0207207
0.0202516
0.0201126
0.0198714
0.0196666
0.0193629
0.0192138
0.0182567
0.0181835
0.0192229
0.0185373
0.0199164
0.0216229
0.024795
0.0248308
0.0216087
0.021088
0.0198878
0.0195292
0.0191184
0.0188901
0.0183929
0.0182956
0.0179143
0.0177927
0.0175458
0.0177072
0.0173972
0.0182644
0.0183399
0.0184529
0.0235877
0.0345334
0.0447431
0.067552
0.0654626
0.0509872
0.0404303
0.0331207
0.0287822
0.0260029
0.024245
0.0230994
0.022315
0.0217375
0.0212927
0.0209251
0.0206226
0.0203912
0.0202231
0.0200932
0.019973
0.0198494
0.0197263
0.0196172
0.0195273
0.0194568
0.0193947
0.0193373
0.0192763
0.0191894
0.0191268
0.0190558
0.01897
0.0188774
0.0187747
0.0186657
0.0185618
0.0184711
0.018393
0.0183257
0.0182779
0.0182497
0.0182006
0.0181699
0.0181511
0.0181389
0.0181341
0.018133
0.0181283
0.0181143
0.0180885
0.0180466
0.017995
0.0179374
0.0178791
0.0178284
0.0177989
0.017799
0.0178183
0.0178254
0.017793
0.0177205
0.0176631
0.0176788
0.0177595
0.0178522
0.0178587
0.0177382
0.0176441
0.0176793
0.0177733
0.0177783
0.0176198
0.0174936
0.0175067
0.0175396
0.0174698
0.0173801
0.0174193
0.017534
0.0175162
0.0173378
0.0173895
0.0165764
0.0119491
0.00113451
0.00142482
0.00274906
0.00720906
0.0186438
0.0414989
0.0787643
0.130489
0.187158
0.228255
0.253606
0.282351
0.329204
0.400822
0.499207
0.608354
0.71123
0.784116
0.81168
0.799362
0.755793
0.68999
0.614708
0.540928
0.474744
0.418877
0.372744
0.33481
0.303793
0.279742
0.262995
0.252888
0.246698
0.241066
0.234263
0.226127
0.217313
0.208244
0.199263
0.191352
0.185641
0.182244
0.179445
0.175156
0.169166
0.163077
0.158686
0.156425
0.154718
0.151683
0.146741
0.14058
0.134206
0.128124
0.122918
0.119589
0.119096
0.121468
0.125316
0.12923
0.133688
0.140416
0.150021
0.159377
0.165804
0.169832
0.173781
0.182343
0.197453
0.217288
0.238463
0.259201
0.277439
0.293455
0.307752
0.327095
0.359414
0.421933
0.523161
0.622672
0.733477
0.825459
0.881635
0.907626
0.872957
0.790003
0.679092
0.555533
0.428585
0.317773
0.202814
0.119215
0.0694216
0.0457247
0.0396303
0.0438446
0.0521942
0.0617029
0.0767541
0.105254
0.125198
0.144776
0.164158
0.159851
0.148852
0.142883
0.122322
0.0905421
0.0595936
0.0400245
0.0292789
0.0219077
0.0179375
0.0158397
0.0155073
0.0166813
0.0204251
0.0248144
0.0254945
0.0258246
0.0260368
0.024143
0.0224373
0.021642
0.0191714
0.0169422
0.0149708
0.0140606
0.0132764
0.0127761
0.0124574
0.0124627
0.0125299
0.0126882
0.0128972
0.013124
0.01329
0.0134674
0.0136168
0.0137024
0.0137539
0.0137854
0.0138277
0.0138436
0.0137693
0.0136382
0.0135706
0.0135738
0.0135522
0.0134114
0.0131683
0.0129655
0.0128451
0.0127471
0.0125732
0.0123391
0.0120851
0.0118978
0.0117312
0.0114783
0.0111645
0.0108828
0.0106628
0.0103985
0.0100346
0.00969017
0.0094347
0.00917303
0.00881293
0.0084177
0.00808779
0.007824
0.00755679
0.00724988
0.00691002
0.00660873
0.00636597
0.00614156
0.00590926
0.00568784
0.00548318
0.0052962
0.00511404
0.00491503
0.00471721
0.00455406
0.00442336
0.00430352
0.00418477
0.00405983
0.00393683
0.00381993
0.00371072
0.00361135
0.00352165
0.00344142
0.00336137
0.00327404
0.00318696
0.00311643
0.00306444
0.00301634
0.00295865
0.00289254
0.00282899
0.00277751
0.0027372
0.00269948
0.00265742
0.00261267
0.0025722
0.00253925
0.00250815
0.00247198
0.00243257
0.00239894
0.00237514
0.00235746
0.00234057
0.00231844
0.00229124
0.00226565
0.00224849
0.00223843
0.00223092
0.00222264
0.00221106
0.00219602
0.0021813
0.00217188
0.00216848
0.00216704
0.0021624
0.00215264
0.00214338
0.00214211
0.00214788
0.00215474
0.00215882
0.00216049
0.00216218
0.00216619
0.00217244
0.00217874
0.00218452
0.00219267
0.00220716
0.00222273
0.00223167
0.00223746
0.00224698
0.00226018
0.00227334
0.00228408
0.00229548
0.00230705
0.00231517
0.00232257
0.00233233
0.00234126
0.00234563
0.00234606
0.00234895
0.00235661
0.00236692
0.00237597
0.00237934
0.00237424
0.00236464
0.00235928
0.00236147
0.00236738
0.00237214
0.0023726
0.00236884
0.00236206
0.00235514
0.00235033
0.0023461
0.00234045
0.00233768
0.00234024
0.0023377
0.00232645
0.00231229
0.00230122
0.00229519
0.00229251
0.00228947
0.002283
0.00227096
0.00225619
0.00224524
0.00223965
0.0022344
0.00222639
0.00221657
0.00220587
0.00219495
0.00218467
0.00217525
0.00216503
0.00215272
0.00214031
0.00212852
0.00211677
0.00210329
0.00208675
0.00207313
0.0020617
0.00204919
0.00203454
0.00201857
0.00200263
0.00198779
0.0019735
0.00195812
0.0019421
0.00192694
0.00191248
0.0018979
0.00188191
0.00186532
0.0018515
0.00183858
0.00182414
0.00180795
0.00179332
0.0017813
0.00176999
0.0017583
0.00174602
0.00173354
0.00172157
0.00171054
0.00170064
0.00169209
0.0016844
0.00167677
0.00166915
0.00166294
0.00165875
0.00165587
0.00165314
0.00164981
0.00164647
0.00164506
0.00164557
0.00164693
0.00164761
0.00164779
0.00164934
0.00165169
0.00165372
0.00165467
0.00165491
0.00165598
0.00165719
0.0016577
0.00165778
0.00165834
0.00165844
0.00165802
0.00165787
0.00165702
0.001656
0.00165542
0.00165448
0.00165341
0.00165203
0.00164952
0.00164657
0.00164397
0.00164179
0.00163915
0.00163617
0.00163336
0.00163032
0.00162749
0.00162437
0.00162033
0.00161593
0.00161206
0.0016088
0.00160569
0.00160163
0.00159732
0.0015929
0.00158821
0.00158429
0.00158005
0.00157478
0.00156961
0.0015662
0.00156152
0.0015563
0.00155189
0.00154756
0.00154286
0.00153753
0.00153226
0.00152693
0.00152235
0.00151764
0.00151313
0.00150823
0.00150409
0.00149802
0.00149349
0.0014894
0.00148521
0.00147919
0.00147279
0.00146794
0.00146107
0.00145673
0.00145307
0.00144711
0.00144317
0.00144154
0.00142709
0.00143142
0.0014369
0.00144364
0.00146775
0.00149316
0.00151892
0.00157161
0.00159506
0.00172222
0.00170638
0.00156649
0.00151678
0.00147393
0.00144823
0.00143652
0.00142967
0.0014216
0.00139961
0.00139431
0.00141504
0.00140457
0.00142522
0.00145516
0.00147706
0.00150798
0.00150713
0.00157192
0.00154557
0.00146381
0.00144136
0.00140756
0.00139139
0.00138112
0.00137077
0.00135632
0.00136897
0.0013632
0.00138235
0.00139981
0.00146983
0.00150172
0.00172733
0.00181786
0.00191262
0.0024056
0.0031143
0.0035939
0.00501336
0.00413493
0.00299244
0.00238867
0.0020249
0.00182132
0.00169775
0.00162027
0.00156862
0.00153097
0.00150293
0.00148131
0.0014638
0.00144979
0.00143887
0.0014301
0.00142245
0.00141532
0.00140855
0.00140281
0.00139806
0.00139446
0.00139186
0.00138953
0.00138711
0.0013843
0.00138117
0.00137768
0.00137403
0.0013705
0.00136696
0.0013632
0.00135941
0.00135595
0.00135291
0.00135007
0.00134724
0.00134457
0.00134232
0.00134073
0.00133941
0.00133861
0.0013382
0.00133793
0.00133751
0.00133676
0.00133565
0.00133434
0.00133286
0.00133115
0.0013291
0.00132677
0.00132463
0.00132332
0.00132325
0.00132411
0.00132477
0.00132421
0.00132277
0.00132217
0.00132319
0.00132562
0.00132713
0.00132543
0.00132258
0.001322
0.00132384
0.00132499
0.00132284
0.00131916
0.0013186
0.0013195
0.0013186
0.00131636
0.00131658
0.00131834
0.00132083
0.00132741
0.001339
0.00136848
0.0013655
0.0012099
0.00111822
0.00126353
0.00190578
0.00406973
0.00961073
0.0206545
0.0387733
0.0642217
0.0923365
0.113674
0.129313
0.149382
0.181277
0.226648
0.281184
0.33625
0.385223
0.422363
0.43763
0.424711
0.391073
0.346698
0.301167
0.259549
0.22367
0.194356
0.171203
0.153075
0.138675
0.127333
0.118699
0.112956
0.109548
0.106657
0.103217
0.0989449
0.0942576
0.089413
0.0846962
0.0805936
0.0774093
0.0751261
0.0731773
0.0708713
0.0682366
0.0656691
0.0636872
0.0624595
0.0614085
0.0600237
0.0581622
0.0558009
0.0529666
0.0499784
0.0471309
0.0449574
0.0439364
0.044
0.0447453
0.0460117
0.0481428
0.0518815
0.0569531
0.0617485
0.0654955
0.0688047
0.0720167
0.0760381
0.0814383
0.0891647
0.0994257
0.111356
0.123402
0.133882
0.142666
0.151318
0.162969
0.181885
0.220429
0.277109
0.357683
0.449418
0.523443
0.576586
0.587913
0.563854
0.521165
0.468269
0.409678
0.350314
0.299759
0.246514
0.192619
0.132344
0.0809237
0.0479175
0.0293944
0.0211566
0.0187764
0.0194207
0.0203233
0.0227613
0.0289555
0.0331231
0.0366941
0.0413126
0.0424176
0.0425128
0.0456197
0.0518879
0.0451298
0.0326564
0.0204054
0.0127891
0.00831975
0.00612324
0.00495983
0.00449756
0.0042898
0.00449805
0.00487769
0.00503143
0.00526922
0.00560083
0.00554586
0.00579556
0.00595892
0.00522812
0.00448256
0.00381187
0.00345587
0.003175
0.00301415
0.00293122
0.00294718
0.0029858
0.00300138
0.00302665
0.00304488
0.00304986
0.00305593
0.00306302
0.00306853
0.00306964
0.00305806
0.00303738
0.0030243
0.0030195
0.00300786
0.00297996
0.00294432
0.00291579
0.00289277
0.00286816
0.00283254
0.00279243
0.002752
0.00271829
0.0026863
0.00264575
0.00259664
0.00254692
0.00250272
0.00245679
0.00240248
0.0023497
0.00230439
0.00225865
0.00220663
0.00215023
0.00209907
0.00205712
0.00201746
0.00197549
0.00193134
0.00188974
0.00185388
0.00182293
0.00179376
0.00176544
0.00173817
0.00171288
0.0016894
0.00166682
0.00164534
0.00162581
0.0016085
0.001593
0.00157859
0.00156479
0.00155175
0.00153909
0.00152628
0.00151394
0.00150302
0.00149404
0.00148616
0.00147775
0.00146816
0.00145875
0.00145121
0.00144533
0.00143934
0.00143181
0.00142331
0.00141542
0.00140896
0.00140373
0.00139846
0.00139209
0.00138486
0.00137805
0.00137262
0.00136772
0.00136164
0.00135471
0.00134821
0.00134244
0.0013374
0.00133309
0.00132862
0.00132298
0.00131642
0.00131024
0.00130552
0.00130228
0.00129918
0.00129487
0.00128938
0.00128381
0.0012791
0.00127563
0.00127259
0.00126866
0.00126454
0.0012614
0.00125876
0.00125565
0.00125212
0.0012492
0.00124728
0.00124597
0.0012447
0.00124262
0.00124008
0.00123799
0.00123686
0.00123661
0.00123647
0.00123598
0.0012353
0.00123451
0.00123377
0.00123312
0.00123299
0.00123366
0.00123374
0.00123294
0.00123227
0.00123211
0.00123199
0.00123141
0.00123088
0.00123037
0.00123011
0.00123036
0.00122994
0.00122884
0.00122787
0.00122713
0.00122628
0.00122502
0.00122371
0.00122274
0.00122226
0.00122166
0.00122034
0.00121851
0.00121686
0.00121554
0.00121415
0.00121283
0.00121169
0.00121023
0.00120809
0.00120593
0.00120393
0.00120185
0.00120025
0.00119886
0.00119683
0.0011944
0.00119211
0.00118973
0.00118735
0.00118534
0.00118317
0.00118077
0.00117824
0.00117565
0.00117317
0.00117065
0.00116793
0.00116507
0.00116235
0.00115978
0.001157
0.00115391
0.00115092
0.00114823
0.00114548
0.00114259
0.00113955
0.00113639
0.00113348
0.00113068
0.00112772
0.00112466
0.00112171
0.00111885
0.00111594
0.00111306
0.00111027
0.00110751
0.00110482
0.00110209
0.00109934
0.00109682
0.00109446
0.0010921
0.00108976
0.00108751
0.0010854
0.00108338
0.00108144
0.00107965
0.00107807
0.00107664
0.00107529
0.00107404
0.00107289
0.0010719
0.00107105
0.00107032
0.00106969
0.00106922
0.00106899
0.0010689
0.00106885
0.00106887
0.00106887
0.00106883
0.00106894
0.00106919
0.00106946
0.00106962
0.00106965
0.00106967
0.00106978
0.00106998
0.00107017
0.0010702
0.0010701
0.0010701
0.0010702
0.00107022
0.00107009
0.00106989
0.0010698
0.00106973
0.0010696
0.00106938
0.00106908
0.0010688
0.0010686
0.00106836
0.00106798
0.00106755
0.00106722
0.00106689
0.00106652
0.00106604
0.00106557
0.00106513
0.00106465
0.00106413
0.0010636
0.00106309
0.00106258
0.00106199
0.00106135
0.00106078
0.00106024
0.00105966
0.00105907
0.00105848
0.0010578
0.00105716
0.00105656
0.00105599
0.00105537
0.00105471
0.00105404
0.00105335
0.00105266
0.00105221
0.00105157
0.00105085
0.00104996
0.00104894
0.00104812
0.00104748
0.00104824
0.00104772
0.0010484
0.00104754
0.00104892
0.00104886
0.00105431
0.00106036
0.00108301
0.00108437
0.00106491
0.00106068
0.00105832
0.00105576
0.0010498
0.00104935
0.00104606
0.00104724
0.00104733
0.00104373
0.00104267
0.00104693
0.00104653
0.001049
0.00105258
0.00105868
0.00106888
0.00106725
0.00105408
0.00105156
0.00104792
0.00104474
0.00103861
0.00103711
0.00103919
0.00103815
0.00103808
0.00103628
0.00103902
0.00103792
0.00106189
0.00104907
0.00103797
0.00108351
0.00109807
0.00118399
0.00123357
0.00141331
0.00139269
0.00122515
0.00121732
0.00120753
0.00118559
0.00118039
0.00118459
0.00115124
0.00118612
0.00115548
0.00111672
0.00109161
0.00107535
0.00106426
0.00105619
0.00105023
0.00104572
0.0010422
0.00103939
0.00103713
0.00103534
0.00103391
0.00103275
0.00103179
0.00103099
0.00103029
0.00102972
0.00102926
0.00102884
0.00102853
0.00102846
0.00102833
0.00102817
0.00102804
0.0010279
0.00102772
0.00102754
0.00102739
0.00102724
0.00102711
0.001027
0.00102689
0.00102677
0.00102666
0.00102656
0.00102646
0.00102638
0.00102628
0.00102619
0.00102612
0.00102606
0.001026
0.00102594
0.00102587
0.00102578
0.00102568
0.00102557
0.00102547
0.00102537
0.00102527
0.00102516
0.00102505
0.00102496
0.00102488
0.0010248
0.0010247
0.00102461
0.00102456
0.00102456
0.00102456
0.00102454
0.00102444
0.00102433
0.00102431
0.00102434
0.00102431
0.00102414
0.00102399
0.00102396
0.0010239
0.0010238
0.00102377
0.0010238
0.00102393
0.0010267
0.00103719
0.00105864
0.00109497
0.00111635
0.00105086
0.00111153
0.00119219
0.00153468
0.00269997
0.00568847
0.011643
0.0215063
0.0356242
0.0514486
0.0629386
0.069965
0.078421
0.0922108
0.110177
0.129144
0.145662
0.158577
0.167341
0.171128
0.167481
0.156204
0.14064
0.124289
0.108937
0.0953794
0.0841015
0.0752426
0.0683799
0.0627912
0.058072
0.0541851
0.0513845
0.0496655
0.0483306
0.04676
0.04473
0.0424189
0.0401472
0.0380427
0.0362346
0.0347817
0.0336087
0.0325046
0.0314014
0.0303228
0.0293761
0.0285161
0.0277484
0.0270618
0.0263789
0.0257208
0.0250074
0.0239113
0.0225549
0.0211638
0.0199616
0.0191341
0.0186508
0.0185017
0.0187134
0.0194694
0.0209966
0.0230958
0.0252103
0.0272476
0.0293559
0.0314391
0.0335125
0.0359966
0.0396532
0.0450705
0.0517556
0.0586154
0.0648213
0.0703024
0.0756436
0.0819156
0.0896247
0.101165
0.119576
0.146089
0.185109
0.224548
0.265261
0.296909
0.311162
0.313128
0.305795
0.288387
0.26523
0.245169
0.224279
0.200651
0.177027
0.149308
0.119265
0.0850315
0.0554073
0.0346274
0.0211853
0.0139155
0.0103752
0.00885026
0.00827779
0.00886361
0.0110533
0.0134289
0.0158384
0.0196265
0.0258518
0.0299187
0.0360878
0.0430191
0.038089
0.0276127
0.0170576
0.0104353
0.00642797
0.00440929
0.00327055
0.00270122
0.00248308
0.00253436
0.00268952
0.00283934
0.00302439
0.00330573
0.00347381
0.00393552
0.00419305
0.00367653
0.00313177
0.00262596
0.00231727
0.00210048
0.00197824
0.00192479
0.00189555
0.00189117
0.00187244
0.00185961
0.00185329
0.00185083
0.0018516
0.00185126
0.00184493
0.00183831
0.00183368
0.0018298
0.00182535
0.00182014
0.0018134
0.00180538
0.00179697
0.00179027
0.00178426
0.00177611
0.00176532
0.00175459
0.00174536
0.00173583
0.00172421
0.00171093
0.0016984
0.00168685
0.0016743
0.00166023
0.0016467
0.00163467
0.00162291
0.00160997
0.00159677
0.00158541
0.0015748
0.0015637
0.00155292
0.0015428
0.00153344
0.00152477
0.00151545
0.00150588
0.0014977
0.001491
0.00148488
0.00147835
0.00147134
0.0014641
0.00145678
0.00145068
0.0014461
0.00144185
0.00143754
0.00143289
0.0014272
0.00142129
0.0014164
0.00141271
0.00140954
0.00140567
0.00140067
0.00139572
0.00139173
0.00138837
0.00138443
0.00137936
0.00137424
0.00137014
0.0013667
0.00136272
0.00135761
0.00135192
0.00134692
0.00134337
0.00134021
0.00133571
0.00132981
0.00132365
0.00131816
0.001314
0.00131089
0.00130717
0.0013017
0.00129533
0.00128973
0.00128544
0.00128188
0.00127822
0.00127419
0.00126982
0.00126485
0.00125953
0.00125488
0.00125142
0.00124855
0.00124517
0.00124114
0.00123726
0.00123378
0.00123044
0.00122767
0.00122577
0.00122353
0.00122063
0.00121778
0.00121523
0.00121285
0.00121095
0.00121023
0.00120979
0.00120843
0.00120651
0.00120486
0.00120385
0.00120283
0.00120161
0.00120103
0.00120058
0.00119946
0.00119827
0.00119799
0.00119807
0.00119731
0.00119604
0.00119466
0.00119358
0.00119337
0.00119312
0.00119241
0.0011917
0.00119068
0.00118926
0.00118788
0.00118705
0.00118628
0.00118518
0.00118425
0.00118346
0.0011822
0.00118053
0.00117899
0.0011777
0.00117641
0.00117541
0.00117431
0.00117256
0.0011704
0.00116865
0.00116735
0.00116593
0.00116427
0.00116232
0.00116041
0.00115869
0.00115677
0.00115475
0.00115291
0.00115081
0.00114868
0.00114672
0.00114463
0.0011425
0.00114031
0.00113797
0.00113568
0.00113348
0.00113133
0.00112903
0.00112657
0.00112407
0.00112175
0.0011195
0.00111706
0.00111457
0.00111211
0.00110975
0.00110737
0.0011049
0.00110244
0.0011001
0.00109779
0.00109544
0.00109305
0.00109071
0.00108843
0.00108626
0.00108408
0.00108187
0.00107977
0.00107781
0.00107589
0.001074
0.00107218
0.00107042
0.00106879
0.00106732
0.00106586
0.00106449
0.00106324
0.00106209
0.00106104
0.00106013
0.00105933
0.00105859
0.00105793
0.0010574
0.00105697
0.00105666
0.00105646
0.00105631
0.00105621
0.00105615
0.00105608
0.00105608
0.00105614
0.00105626
0.00105635
0.00105639
0.00105641
0.00105641
0.00105645
0.00105655
0.00105661
0.00105659
0.00105656
0.00105655
0.00105651
0.00105644
0.00105638
0.00105627
0.00105614
0.00105603
0.00105592
0.00105574
0.00105551
0.0010553
0.0010551
0.00105486
0.0010546
0.00105433
0.00105401
0.0010537
0.00105337
0.00105303
0.00105265
0.00105227
0.00105191
0.0010515
0.00105108
0.00105063
0.00105019
0.00104974
0.00104931
0.00104885
0.00104838
0.00104794
0.00104749
0.00104704
0.00104654
0.00104603
0.00104552
0.00104504
0.00104453
0.00104421
0.00104366
0.00104318
0.00104246
0.00104162
0.00104088
0.00104268
0.00104213
0.00104096
0.00104201
0.00104137
0.001042
0.00104223
0.00104794
0.00105492
0.00107926
0.00108082
0.00105946
0.00105518
0.0010514
0.00104699
0.0010399
0.00103801
0.00103529
0.00103486
0.00103494
0.00103468
0.00103443
0.00104013
0.00104071
0.00104677
0.00105115
0.00106563
0.0010646
0.00105363
0.00104744
0.00104409
0.00104157
0.00103683
0.00103024
0.00102801
0.00103086
0.00102883
0.0010299
0.00102857
0.00102949
0.00103034
0.00105625
0.00105095
0.00107864
0.00108533
0.00115598
0.00119781
0.00128649
0.00143829
0.00141512
0.0012324
0.00121615
0.0011939
0.00115479
0.00111382
0.00108527
0.00105015
0.00104336
0.00105075
0.00105404
0.00105517
0.00105455
0.00105166
0.00104817
0.00104489
0.00104182
0.00103893
0.00103625
0.00103388
0.00103185
0.00103014
0.00102867
0.00102743
0.00102639
0.00102556
0.00102492
0.0010244
0.00102389
0.00102338
0.00102294
0.00102262
0.00102232
0.00102209
0.00102195
0.00102185
0.00102174
0.00102165
0.00102157
0.00102147
0.00102136
0.00102125
0.00102117
0.0010211
0.00102104
0.00102099
0.00102094
0.0010209
0.00102086
0.00102081
0.00102074
0.00102067
0.0010206
0.00102054
0.00102049
0.00102046
0.00102042
0.00102035
0.00102027
0.00102019
0.00102014
0.00102011
0.00102007
0.00101999
0.00101987
0.00101974
0.00101962
0.00101952
0.00101944
0.00101938
0.00101933
0.00101929
0.00101924
0.00101919
0.00101913
0.0010191
0.00101911
0.0010191
0.001019
0.00101883
0.00101875
0.00101869
0.00101865
0.0010186
0.00101858
0.0010185
0.00101867
0.00102154
0.00103211
0.00105397
0.00109064
0.00111263
0.0010483
0.00110957
0.00116516
0.00138662
0.00214627
0.00409201
0.00796415
0.0144149
0.0237439
0.0342017
0.0415949
0.0456759
0.0498117
0.0558414
0.0628477
0.0684339
0.0712686
0.0718152
0.0706733
0.0682344
0.0647129
0.0603354
0.0554345
0.0504695
0.0457739
0.0415208
0.0378478
0.034869
0.0324148
0.0302451
0.0282939
0.0266386
0.0253877
0.0245025
0.0237794
0.0230198
0.0221045
0.0211189
0.0201922
0.0193474
0.0186054
0.0179877
0.0174829
0.0170729
0.016745
0.0164478
0.0161276
0.0156512
0.0150716
0.0146679
0.0144377
0.0142932
0.0141156
0.0137372
0.0131348
0.0124119
0.0117097
0.0111304
0.0107128
0.0104632
0.0104071
0.0106139
0.0111612
0.0119828
0.0129007
0.0139298
0.0150818
0.0161762
0.0171663
0.018286
0.0198487
0.0222145
0.0253972
0.028924
0.0323038
0.0352634
0.0380846
0.0414443
0.0453436
0.0498305
0.0559044
0.0637563
0.0745199
0.088412
0.104778
0.122981
0.136876
0.147416
0.156732
0.163712
0.166273
0.166662
0.163474
0.156933
0.151362
0.143121
0.130959
0.117333
0.100058
0.0810688
0.0591539
0.0401562
0.0261723
0.0164919
0.0109826
0.00814749
0.00678778
0.00642062
0.00686365
0.0081577
0.011274
0.0151835
0.0204408
0.0268003
0.0303407
0.035341
0.0401105
0.035475
0.0258106
0.0158002
0.009512
0.00579179
0.00394921
0.00295611
0.00248729
0.0023344
0.00237398
0.00249176
0.00264904
0.00284682
0.00314665
0.00336021
0.00386054
0.00410533
0.00364024
0.00308185
0.00268209
0.00233633
0.00211437
0.00193117
0.00182834
0.00179096
0.00177524
0.0017496
0.00173486
0.00173075
0.00172951
0.0017252
0.00171853
0.00171176
0.00171032
0.00170931
0.00170421
0.00169729
0.00169268