/*--------------------------------*- C++ -*----------------------------------*\
| =========                 |                                                 |
| \\      /  F ield         | OpenFOAM: The Open Source CFD Toolbox           |
|  \\    /   O peration     | Version:  v2006                                 |
|   \\  /    A nd           | Website:  www.openfoam.com                      |
|    \\/     M anipulation  |                                                 |
\*---------------------------------------------------------------------------*/
FoamFile
{
    version     2.0;
    format      ascii;
    class       volScalarField;
    location    "4.9";
    object      p;
}
// * * * * * * * * * * * * * * * * * * * * * * * * * * * * * * * * * * * * * //

dimensions      [1 -1 -2 0 0 0 0];


internalField   nonuniform List<scalar> 
33000
(
8599.26
8602.03
8604.07
8605.16
8606.01
8606.98
8608.05
8609.22
8610.48
8611.83
8613.17
8614.42
8615.34
8615.3
8614.22
8612.6
8611.43
8612.04
8613.46
8615.13
8616.45
8617.12
8617.75
8618.23
8618.62
8618.96
8619.25
8619.52
8619.75
8619.93
8620.08
8620.21
8620.26
8620.27
8620.28
8620.26
8620.2
8620.08
8619.91
8619.73
8619.47
8619.2
8618.82
8618.41
8617.97
8617.51
8616.99
8616.42
8615.77
8615.08
8614.36
8613.61
8612.79
8611.92
8610.99
8610.01
8608.99
8607.93
8606.83
8605.7
8604.54
8603.33
8602.12
8600.92
8599.68
8598.41
8597.18
8595.96
8594.78
8593.7
8592.66
8591.88
8591.42
8591.26
8591.62
8592.74
8594.92
8595.8
8583.51
8552.59
8568.88
8567.76
8556.61
8555.07
8551.5
8543.48
8540.71
8537.16
8532.76
8527.91
8523.61
8519.08
8514.47
8510.36
8506.6
8502.82
8500.65
8497.24
8499.58
8492.51
8475.18
8466.72
8457.4
8447.76
8439.18
8428.85
8417.54
8406.01
8394.93
8384.03
8372.42
8360.85
8348.88
8336.58
8324.55
8311.81
8302.52
8287.59
8266.22
8249.92
8231.86
8212.86
8194.12
8174.15
8152.9
8131.52
8109.63
8087.26
8064.62
8041.54
8018.09
7994.36
7970.4
7946.29
7922.08
7897.8
7873.49
7849.16
7824.86
7800.65
7776.57
7752.67
7729
7705.59
7682.52
7659.83
7637.54
7615.72
7594.4
7573.62
7553.45
7533.87
7514.93
7496.65
7479.06
7462.18
7446.01
7430.57
7415.84
7401.85
7388.58
7376.02
7364.15
7352.96
7342.43
7332.53
7323.22
7314.47
7306.26
7298.54
7291.28
7284.42
7277.95
7271.83
7266.01
7260.46
7255.16
7250.14
7245.43
7241.06
7237.04
7233.41
7230.16
7227.33
7224.92
7222.92
7221.34
7220.21
7219.5
7219.24
7219.4
7219.98
7220.99
7222.41
7224.24
7226.47
7229.08
7232.08
7235.44
7239.16
7243.21
7247.6
7252.3
7257.32
7262.63
7268.21
7274.05
7280.15
7286.48
7293.04
7299.81
7306.77
7313.91
7321.23
7328.72
7336.34
7344.09
7351.96
7359.93
7368.01
7376.17
7384.41
7392.71
7401.06
7409.44
7417.87
7426.32
7434.78
7443.26
7451.73
7460.19
7468.62
7477.04
7485.42
7493.78
7502.08
7510.34
7518.54
7526.68
7534.76
7542.77
7550.71
7558.57
7566.35
7574.05
7581.66
7589.18
7596.6
7603.94
7611.18
7618.32
7625.37
7632.31
7639.15
7645.89
7652.52
7659.05
7665.48
7671.8
7678.02
7684.12
7690.13
7696.02
7701.81
7707.48
7713.05
7718.51
7723.86
7729.1
7734.24
7739.27
7744.18
7748.98
7753.68
7758.26
7762.73
7767.1
7771.35
7775.5
7779.54
7783.46
7787.28
7790.99
7794.59
7798.09
7801.48
7804.77
7807.95
7811.04
7814.02
7816.91
7819.71
7822.41
7825.03
7827.56
7830
7832.36
7834.64
7836.85
7838.98
7841.05
7843.05
7844.99
7846.86
7848.68
7850.44
7852.15
7853.79
7855.37
7856.87
7858.3
7859.65
7860.91
7862.1
7863.19
7864.2
7865.12
7865.95
7866.69
7867.33
7867.89
7868.35
7868.72
7869.01
7869.2
7869.3
7869.32
7869.26
7869.11
7868.89
7868.59
7868.21
7867.76
7867.25
7866.67
7866.03
7865.33
7864.58
7863.77
7862.91
7862.01
7861.07
7860.09
7859.07
7858.02
7856.93
7855.83
7854.69
7853.54
7852.37
7851.18
7849.97
7848.76
7847.53
7846.3
7845.06
7843.82
7842.58
7841.34
7840.1
7838.86
7837.63
7836.41
7835.2
7833.99
7832.79
7831.6
7830.43
7829.27
7828.12
7826.98
7825.86
7824.75
7823.66
7822.58
7821.51
7820.46
7819.43
7818.41
7817.41
7816.42
7815.45
7814.5
7813.56
7812.64
7811.73
7810.84
7809.96
7809.1
7808.25
7807.42
7806.6
7805.8
7805.01
7804.24
7803.47
7802.72
7801.99
7801.26
7800.55
7799.85
7799.17
7798.49
7797.83
7797.17
7796.53
7795.9
7795.28
7794.67
7794.06
7793.47
7792.89
7792.31
7791.74
7791.18
7790.63
7790.09
7789.55
7789.02
7788.5
7787.99
7787.48
7786.99
7786.5
7786.02
7785.56
7785.1
7784.63
7784.22
7783.69
7783.29
7782.99
7782.59
7782.22
7781.82
7781.43
7781.02
7780.62
7780.21
7779.8
7779.39
7778.97
7778.56
7778.16
7777.75
7777.34
7776.95
7776.51
7776.12
7775.79
7775.39
7775.03
7774.63
7774.26
7773.86
7773.47
7773.07
7772.68
7772.28
7771.9
7771.49
7771.12
7770.7
7770.34
7769.97
7769.6
7769.23
7768.92
7768.4
7768.16
7767.95
7767.68
7767.4
7767.1
7766.79
7766.47
7766.15
7765.83
7765.5
7765.16
7764.83
7764.49
7764.15
7763.81
7763.47
7763.13
7762.78
7762.44
7762.1
7761.75
7761.41
7761.06
7760.72
7760.38
7760.04
7759.69
7759.35
7759.01
7758.67
7758.33
7757.99
7757.66
7757.32
7756.99
7756.65
7756.32
7755.99
7755.66
7755.34
7755.01
7754.68
7754.36
7754.04
7753.72
7753.4
7753.09
7752.77
7752.46
7752.15
7751.84
7751.54
7751.24
7750.93
7750.63
7750.34
7750.04
7749.75
7749.46
7749.17
7748.89
7748.6
7748.32
7748.04
7747.77
7747.49
7747.22
7746.95
7746.69
7746.42
7746.16
7745.9
7745.65
7745.39
7745.14
7744.9
7744.65
7744.4
7744.15
7744.03
7743.6
8402.99
8405.77
8407.82
8408.91
8409.74
8410.66
8411.68
8412.84
8414.07
8414.98
8415.98
8416.57
8416.53
8415.85
8414.56
8412.69
8411.69
8412.16
8414.86
8417.7
8419.69
8420.96
8421.76
8422.23
8422.63
8422.97
8423.25
8423.51
8423.73
8423.89
8424.06
8424.19
8424.24
8424.27
8424.27
8424.25
8424.17
8424.06
8423.93
8423.7
8423.46
8423.2
8422.85
8422.41
8421.97
8421.46
8420.94
8420.4
8419.76
8419.04
8418.31
8417.55
8416.74
8415.87
8414.94
8413.95
8412.94
8411.93
8410.8
8409.65
8408.44
8407.24
8406.01
8404.8
8403.55
8402.22
8400.96
8399.67
8398.39
8397.2
8396.09
8395.03
8394.06
8393.1
8392.14
8391.04
8389.55
8387.6
8385.43
8386.61
8388.46
8374.81
8340.01
8357.85
8356.59
8348.18
8347.28
8342.31
8337.63
8329.69
8326.75
8322.09
8317.49
8313.19
8308.74
8304.06
8300.07
8295.63
8291.58
8285.83
8279.58
8280.56
8271.08
8250.11
8239.77
8228.88
8219.84
8209.78
8201.22
8190.49
8177.64
8165.18
8152.48
8139.65
8127.16
8114
8100.65
8086.35
8070.64
8059.19
8041.64
8016.95
7997.6
7977.28
7956.67
7936.42
7914.82
7892.01
7869.02
7845.74
7822.23
7798.58
7774.65
7750.5
7726.17
7701.8
7677.42
7653.04
7628.73
7604.48
7580.35
7556.39
7532.66
7509.2
7486.07
7463.32
7440.98
7419.1
7397.74
7376.93
7356.71
7337.09
7318.12
7299.81
7282.2
7265.3
7249.12
7233.65
7218.92
7204.92
7191.64
7179.08
7167.21
7156.03
7145.5
7135.6
7126.29
7117.55
7109.34
7101.63
7094.36
7087.51
7081.04
7074.91
7069.09
7063.53
7058.24
7053.22
7048.51
7044.13
7040.11
7036.47
7033.23
7030.4
7027.98
7025.98
7024.42
7023.29
7022.59
7022.33
7022.5
7023.1
7024.13
7025.56
7027.41
7029.65
7032.28
7035.29
7038.67
7042.41
7046.49
7050.9
7055.62
7060.66
7065.98
7071.58
7077.45
7083.57
7089.92
7096.5
7103.28
7110.27
7117.43
7124.77
7132.27
7139.91
7147.68
7155.57
7163.56
7171.66
7179.83
7188.09
7196.4
7204.76
7213.17
7221.6
7230.06
7238.54
7247.02
7255.5
7263.97
7272.42
7280.85
7289.24
7297.6
7305.92
7314.18
7322.39
7330.54
7338.62
7346.64
7354.58
7362.44
7370.23
7377.93
7385.54
7393.06
7400.49
7407.83
7415.07
7422.21
7429.26
7436.2
7443.04
7449.78
7456.42
7462.95
7469.37
7475.69
7481.9
7488.01
7494.01
7499.91
7505.69
7511.37
7516.94
7522.4
7527.75
7532.99
7538.13
7543.15
7548.06
7552.87
7557.56
7562.14
7566.62
7570.98
7575.24
7579.38
7583.42
7587.34
7591.16
7594.87
7598.47
7601.97
7605.36
7608.65
7611.84
7614.93
7617.92
7620.81
7623.61
7626.31
7628.93
7631.46
7633.9
7636.27
7638.55
7640.76
7642.9
7644.97
7646.97
7648.91
7650.79
7652.61
7654.38
7656.09
7657.73
7659.31
7660.82
7662.25
7663.6
7664.87
7666.05
7667.15
7668.16
7669.08
7669.91
7670.65
7671.29
7671.85
7672.31
7672.68
7672.96
7673.15
7673.25
7673.27
7673.2
7673.05
7672.82
7672.51
7672.13
7671.68
7671.17
7670.58
7669.94
7669.23
7668.47
7667.66
7666.8
7665.89
7664.94
7663.96
7662.93
7661.88
7660.79
7659.68
7658.54
7657.38
7656.2
7655.01
7653.8
7652.58
7651.36
7650.12
7648.88
7647.64
7646.39
7645.15
7643.91
7642.67
7641.44
7640.21
7639
7637.79
7636.59
7635.4
7634.22
7633.06
7631.91
7630.77
7629.65
7628.54
7627.45
7626.37
7625.3
7624.25
7623.22
7622.2
7621.2
7620.21
7619.24
7618.29
7617.35
7616.42
7615.52
7614.63
7613.75
7612.89
7612.04
7611.21
7610.39
7609.59
7608.8
7608.02
7607.26
7606.51
7605.78
7605.05
7604.34
7603.64
7602.96
7602.28
7601.62
7600.97
7600.32
7599.69
7599.07
7598.46
7597.86
7597.26
7596.68
7596.1
7595.54
7594.97
7594.42
7593.88
7593.35
7592.81
7592.3
7591.77
7591.28
7590.8
7590.31
7589.82
7589.36
7588.8
7588.35
7588.04
7587.61
7587.24
7586.84
7586.45
7586.05
7585.65
7585.25
7584.84
7584.43
7584.01
7583.6
7583.19
7582.79
7582.36
7581.96
7581.5
7581.11
7580.76
7580.37
7579.99
7579.61
7579.22
7578.84
7578.44
7578.06
7577.67
7577.28
7576.89
7576.48
7576.1
7575.67
7575.3
7574.91
7574.55
7574.14
7573.79
7573.21
7572.92
7572.69
7572.39
7572.09
7571.8
7571.5
7571.2
7570.89
7570.58
7570.26
7569.94
7569.61
7569.28
7568.95
7568.62
7568.28
7567.94
7567.6
7567.26
7566.92
7566.57
7566.23
7565.89
7565.54
7565.2
7564.86
7564.51
7564.17
7563.83
7563.49
7563.15
7562.81
7562.47
7562.13
7561.79
7561.45
7561.12
7560.78
7560.45
7560.12
7559.79
7559.46
7559.13
7558.8
7558.48
7558.16
7557.84
7557.52
7557.2
7556.88
7556.57
7556.26
7555.95
7555.64
7555.33
7555.03
7554.73
7554.43
7554.13
7553.84
7553.54
7553.25
7552.97
7552.68
7552.4
7552.12
7551.84
7551.56
7551.29
7551.02
7550.75
7550.48
7550.22
7549.96
7549.7
7549.44
7549.19
7548.94
7548.69
7548.44
7548.2
7547.95
7547.82
7547.4
8206.67
8209.46
8211.52
8212.61
8213.42
8214.3
8215.26
8216.33
8217.38
8218.26
8219.01
8219.66
8219.81
8219.44
8219
8218.46
8218.38
8219.18
8220.47
8222.07
8223.46
8224.7
8225.44
8225.97
8226.43
8226.81
8227.14
8227.41
8227.64
8227.85
8228.05
8228.2
8228.27
8228.28
8228.32
8228.31
8228.26
8228.15
8228.01
8227.78
8227.54
8227.25
8226.87
8226.48
8226.08
8225.56
8225.01
8224.47
8223.84
8223.12
8222.41
8221.63
8220.79
8219.91
8218.99
8218.01
8216.99
8215.93
8214.8
8213.67
8212.5
8211.24
8209.98
8208.71
8207.37
8205.99
8204.71
8203.33
8201.94
8200.62
8199.31
8197.97
8196.6
8195.19
8193.74
8192.12
8190.26
8187.95
8184.85
8180.72
8176.92
8173.8
8175.32
8178.67
8165.6
8128.46
8145.5
8146.67
8142.64
8136.01
8132.48
8127.9
8119.21
8115.91
8111.42
8106.42
8102.07
8096.81
8091.49
8085.4
8077.69
8070.99
8063.66
8056.64
8058.6
8047.37
8024.06
8011.04
7999.8
7990.07
7979.47
7970.18
7958.38
7944.83
7930.94
7916.97
7903
7888.35
7872.4
7855.91
7839.24
7821.59
7808.71
7789.04
7761.84
7740.45
7718.26
7696
7674.3
7651.32
7627.26
7603.2
7578.92
7554.68
7530.41
7506.13
7481.74
7457.23
7432.75
7408.37
7384.11
7360.04
7336.18
7312.6
7289.35
7266.48
7244.03
7222.05
7200.59
7179.7
7159.39
7139.68
7120.64
7102.27
7084.62
7067.67
7051.45
7035.96
7021.21
7007.19
6993.9
6981.34
6969.48
6958.29
6947.76
6937.86
6928.55
6919.81
6911.59
6903.87
6896.6
6889.74
6883.25
6877.11
6871.27
6865.72
6860.44
6855.44
6850.75
6846.38
6842.37
6838.73
6835.5
6832.67
6830.25
6828.27
6826.72
6825.6
6824.93
6824.69
6824.89
6825.52
6826.57
6828.04
6829.92
6832.19
6834.86
6837.91
6841.33
6845.1
6849.22
6853.67
6858.44
6863.51
6868.88
6874.52
6880.43
6886.59
6892.99
6899.6
6906.43
6913.45
6920.66
6928.04
6935.57
6943.25
6951.05
6958.98
6967.01
6975.14
6983.35
6991.63
6999.97
7008.36
7016.8
7025.26
7033.75
7042.25
7050.75
7059.25
7067.74
7076.22
7084.66
7093.07
7101.45
7109.78
7118.06
7126.28
7134.44
7142.53
7150.56
7158.51
7166.39
7174.18
7181.88
7189.5
7197.03
7204.46
7211.8
7219.05
7226.19
7233.23
7240.18
7247.02
7253.76
7260.4
7266.93
7273.35
7279.67
7285.88
7291.99
7297.99
7303.88
7309.66
7315.34
7320.91
7326.37
7331.72
7336.96
7342.09
7347.11
7352.03
7356.83
7361.53
7366.11
7370.58
7374.95
7379.2
7383.34
7387.38
7391.31
7395.13
7398.84
7402.44
7405.94
7409.34
7412.63
7415.82
7418.91
7421.9
7424.8
7427.6
7430.31
7432.93
7435.47
7437.92
7440.29
7442.58
7444.8
7446.94
7449.01
7451.02
7452.97
7454.86
7456.69
7458.46
7460.17
7461.82
7463.41
7464.92
7466.35
7467.71
7468.99
7470.17
7471.28
7472.29
7473.21
7474.04
7474.77
7475.42
7475.97
7476.43
7476.79
7477.06
7477.25
7477.34
7477.35
7477.28
7477.12
7476.88
7476.57
7476.18
7475.72
7475.19
7474.6
7473.94
7473.23
7472.46
7471.64
7470.77
7469.85
7468.89
7467.9
7466.86
7465.8
7464.7
7463.58
7462.43
7461.27
7460.08
7458.88
7457.66
7456.44
7455.2
7453.96
7452.72
7451.47
7450.22
7448.97
7447.72
7446.48
7445.25
7444.02
7442.8
7441.59
7440.38
7439.19
7438.01
7436.85
7435.7
7434.56
7433.43
7432.32
7431.22
7430.14
7429.08
7428.03
7426.99
7425.98
7424.97
7423.99
7423.02
7422.06
7421.12
7420.2
7419.29
7418.4
7417.53
7416.67
7415.82
7414.99
7414.17
7413.37
7412.58
7411.8
7411.04
7410.29
7409.56
7408.83
7408.12
7407.42
7406.74
7406.06
7405.4
7404.75
7404.11
7403.48
7402.86
7402.25
7401.64
7401.05
7400.46
7399.89
7399.32
7398.77
7398.21
7397.67
7397.12
7396.6
7396.09
7395.59
7395.07
7394.58
7393.99
7393.53
7393.2
7392.76
7392.36
7391.93
7391.51
7391.09
7390.7
7390.28
7389.88
7389.47
7389.06
7388.67
7388.25
7387.85
7387.42
7387.01
7386.54
7386.15
7385.8
7385.4
7385.02
7384.63
7384.23
7383.84
7383.45
7383.05
7382.68
7382.27
7381.9
7381.47
7381.09
7380.65
7380.29
7379.88
7379.52
7379.09
7378.73
7378.12
7377.83
7377.59
7377.29
7376.97
7376.65
7376.32
7376
7375.69
7375.38
7375.06
7374.75
7374.42
7374.1
7373.77
7373.44
7373.11
7372.77
7372.43
7372.1
7371.75
7371.41
7371.07
7370.73
7370.38
7370.04
7369.69
7369.35
7369
7368.66
7368.32
7367.97
7367.63
7367.29
7366.94
7366.6
7366.26
7365.92
7365.59
7365.25
7364.91
7364.58
7364.24
7363.91
7363.58
7363.25
7362.92
7362.6
7362.27
7361.95
7361.63
7361.31
7360.99
7360.67
7360.36
7360.05
7359.74
7359.43
7359.12
7358.82
7358.52
7358.22
7357.92
7357.62
7357.33
7357.04
7356.75
7356.47
7356.18
7355.9
7355.62
7355.35
7355.07
7354.8
7354.53
7354.27
7354
7353.74
7353.48
7353.23
7352.97
7352.72
7352.48
7352.23
7351.98
7351.73
7351.61
7351.18
8010.31
8013.11
8015.19
8016.28
8017.07
8017.93
8018.86
8019.87
8020.81
8021.61
8022.25
8022.87
8023.25
8023.59
8023.78
8024.01
8024.35
8025.07
8026.04
8027.05
8027.99
8028.81
8029.48
8030.03
8030.5
8030.91
8031.26
8031.56
8031.81
8032.01
8032.17
8032.36
8032.46
8032.5
8032.54
8032.55
8032.47
8032.34
8032.19
8031.98
8031.72
8031.44
8031.09
8030.69
8030.26
8029.77
8029.22
8028.66
8028.03
8027.34
8026.63
8025.83
8024.99
8024.09
8023.18
8022.19
8021.17
8020.1
8018.99
8017.82
8016.6
8015.33
8014.06
8012.7
8011.26
8009.87
8008.49
8007.03
8005.51
8003.99
8002.47
8000.87
7999.22
7997.49
7995.64
7993.61
7991.29
7988.65
7985.73
7982.48
7979.12
7975.48
7970.86
7965.88
7960.71
7960.36
7965.42
7966.57
7952.48
7914.49
7933.2
7931.36
7923.05
7920.01
7914.72
7905.81
7901.99
7896.52
7890.43
7884.53
7877.4
7870.56
7862.78
7852.99
7844.51
7834.24
7827.37
7820.51
7821.85
7811.37
7785.34
7772.38
7758.95
7746.65
7735.69
7722.09
7706.68
7690.83
7674.66
7658.59
7641.65
7623.53
7604.77
7586.14
7566.58
7552.4
7530.93
7501.61
7478.58
7454.99
7431.44
7408.68
7384.68
7359.82
7334.97
7310.26
7285.74
7261.15
7236.72
7212.26
7187.81
7163.54
7139.51
7115.75
7092.33
7069.28
7046.67
7024.54
7002.94
6981.9
6961.46
6941.64
6922.5
6904.05
6886.31
6869.29
6853.01
6837.48
6822.69
6808.64
6795.32
6782.74
6770.86
6759.65
6749.1
6739.18
6729.86
6721.1
6712.86
6705.12
6697.83
6690.95
6684.45
6678.29
6672.45
6666.91
6661.65
6656.68
6652.02
6647.69
6643.71
6640.1
6636.89
6634.07
6631.69
6629.73
6628.21
6627.13
6626.49
6626.3
6626.53
6627.21
6628.31
6629.83
6631.76
6634.09
6636.82
6639.92
6643.4
6647.23
6651.41
6655.93
6660.75
6665.89
6671.32
6677.03
6683
6689.22
6695.68
6702.36
6709.24
6716.33
6723.6
6731.03
6738.62
6746.35
6754.21
6762.19
6770.28
6778.46
6786.71
6795.04
6803.42
6811.86
6820.34
6828.85
6837.37
6845.91
6854.44
6862.97
6871.5
6880
6888.48
6896.92
6905.32
6913.67
6921.97
6930.21
6938.39
6946.5
6954.55
6962.51
6970.4
6978.19
6985.91
6993.53
7001.07
7008.51
7015.86
7023.11
7030.25
7037.3
7044.24
7051.08
7057.82
7064.46
7070.99
7077.41
7083.73
7089.94
7096.05
7102.04
7107.93
7113.72
7119.39
7124.96
7130.42
7135.77
7141.01
7146.14
7151.16
7156.07
7160.88
7165.57
7170.16
7174.63
7178.99
7183.25
7187.39
7191.43
7195.36
7199.18
7202.9
7206.5
7210.01
7213.4
7216.7
7219.9
7222.99
7225.99
7228.9
7231.71
7234.43
7237.06
7239.6
7242.06
7244.44
7246.74
7248.97
7251.13
7253.21
7255.23
7257.19
7259.09
7260.93
7262.71
7264.43
7266.09
7267.68
7269.19
7270.63
7272
7273.27
7274.47
7275.57
7276.58
7277.5
7278.33
7279.07
7279.71
7280.25
7280.7
7281.06
7281.33
7281.5
7281.59
7281.59
7281.5
7281.33
7281.08
7280.75
7280.35
7279.88
7279.34
7278.73
7278.06
7277.33
7276.55
7275.71
7274.83
7273.89
7272.92
7271.91
7270.86
7269.78
7268.67
7267.53
7266.37
7265.19
7263.99
7262.78
7261.55
7260.32
7259.07
7257.82
7256.57
7255.31
7254.06
7252.8
7251.55
7250.3
7249.06
7247.83
7246.6
7245.38
7244.18
7242.98
7241.8
7240.63
7239.47
7238.33
7237.2
7236.09
7234.99
7233.91
7232.84
7231.79
7230.76
7229.74
7228.74
7227.75
7226.78
7225.82
7224.89
7223.96
7223.06
7222.17
7221.29
7220.43
7219.58
7218.75
7217.93
7217.13
7216.34
7215.57
7214.8
7214.06
7213.32
7212.6
7211.89
7211.19
7210.5
7209.83
7209.17
7208.52
7207.88
7207.25
7206.63
7206.02
7205.43
7204.83
7204.26
7203.67
7203.11
7202.53
7201.99
7201.46
7200.94
7200.39
7199.88
7199.26
7198.77
7198.44
7197.97
7197.56
7197.11
7196.67
7196.23
7195.82
7195.39
7194.98
7194.56
7194.14
7193.75
7193.33
7192.92
7192.49
7192.08
7191.6
7191.21
7190.86
7190.46
7190.07
7189.67
7189.26
7188.87
7188.46
7188.08
7187.67
7187.29
7186.87
7186.49
7186.06
7185.68
7185.3
7184.91
7184.53
7184.1
7183.73
7183.09
7182.79
7182.54
7182.21
7181.87
7181.53
7181.19
7180.85
7180.53
7180.2
7179.88
7179.56
7179.24
7178.91
7178.59
7178.26
7177.93
7177.6
7177.26
7176.92
7176.59
7176.25
7175.9
7175.56
7175.22
7174.87
7174.53
7174.18
7173.84
7173.49
7173.15
7172.8
7172.46
7172.11
7171.77
7171.42
7171.08
7170.74
7170.4
7170.06
7169.72
7169.38
7169.04
7168.7
7168.37
7168.03
7167.7
7167.37
7167.04
7166.71
7166.38
7166.06
7165.73
7165.41
7165.09
7164.77
7164.46
7164.14
7163.83
7163.52
7163.21
7162.91
7162.6
7162.3
7162
7161.7
7161.41
7161.11
7160.82
7160.54
7160.25
7159.97
7159.68
7159.41
7159.13
7158.86
7158.58
7158.31
7158.05
7157.78
7157.52
7157.26
7157.01
7156.75
7156.5
7156.26
7156.01
7155.76
7155.51
7155.39
7154.96
7813.93
7816.74
7818.83
7819.93
7820.72
7821.57
7822.5
7823.49
7824.42
7825.2
7825.87
7826.54
7827.15
7827.75
7828.17
7828.71
7829.25
7829.86
7830.53
7831.32
7832.09
7832.8
7833.44
7833.99
7834.46
7834.9
7835.28
7835.63
7835.94
7836.17
7836.36
7836.54
7836.66
7836.74
7836.79
7836.79
7836.71
7836.6
7836.45
7836.25
7835.99
7835.71
7835.37
7834.99
7834.55
7834.04
7833.52
7832.94
7832.31
7831.63
7830.86
7830.08
7829.25
7828.38
7827.45
7826.47
7825.43
7824.33
7823.22
7822.03
7820.77
7819.49
7818.16
7816.74
7815.25
7813.78
7812.29
7810.72
7809.08
7807.41
7805.69
7803.9
7801.99
7799.98
7797.85
7795.56
7793.08
7790.42
7787.49
7784.32
7780.94
7777.42
7773.54
7769.88
7766.45
7762.86
7758.94
7754.52
7750.37
7752.44
7756.69
7742.29
7699.71
7720.72
7719.93
7709.16
7705.74
7699.61
7689.48
7684.56
7677.71
7669.92
7662.7
7654.37
7646.61
7638.16
7627.43
7618.44
7608.66
7600.38
7591.2
7593.63
7580.48
7551.52
7536.86
7522.06
7508.16
7495.44
7479.67
7462
7443.87
7425.6
7407.49
7388.66
7368.53
7347.96
7327.49
7306.26
7290.84
7267.85
7236.81
7212.64
7187.69
7163.59
7139.47
7115.96
7091.53
7066.07
7040.98
7016.16
6991.44
6967.03
6942.76
6918.7
6895
6871.71
6848.87
6826.54
6804.73
6783.49
6762.87
6742.9
6723.61
6705.03
6687.17
6670.05
6653.68
6638.08
6623.22
6609.12
6595.75
6583.12
6571.2
6559.96
6549.37
6539.41
6530.06
6521.26
6512.98
6505.2
6497.88
6490.98
6484.46
6478.29
6472.46
6466.94
6461.73
6456.81
6452.21
6447.94
6444.02
6440.47
6437.31
6434.55
6432.21
6430.3
6428.84
6427.82
6427.24
6427.1
6427.41
6428.14
6429.3
6430.89
6432.9
6435.31
6438.12
6441.3
6444.86
6448.78
6453.04
6457.64
6462.55
6467.77
6473.29
6479.09
6485.15
6491.45
6497.99
6504.75
6511.73
6518.9
6526.25
6533.76
6541.42
6549.23
6557.16
6565.21
6573.37
6581.61
6589.93
6598.32
6606.77
6615.26
6623.8
6632.36
6640.94
6649.52
6658.11
6666.68
6675.24
6683.79
6692.3
6700.78
6709.21
6717.6
6725.92
6734.19
6742.4
6750.53
6758.59
6766.57
6774.47
6782.28
6790.01
6797.65
6805.19
6812.65
6820
6827.25
6834.4
6841.45
6848.39
6855.24
6861.98
6868.61
6875.14
6881.56
6887.88
6894.09
6900.19
6906.19
6912.07
6917.85
6923.53
6929.09
6934.55
6939.9
6945.14
6950.27
6955.29
6960.2
6965
6969.7
6974.28
6978.76
6983.12
6987.38
6991.53
6995.57
6999.5
7003.33
7007.05
7010.66
7014.17
7017.57
7020.88
7024.09
7027.19
7030.2
7033.12
7035.94
7038.67
7041.32
7043.87
7046.35
7048.74
7051.06
7053.31
7055.48
7057.58
7059.62
7061.59
7063.51
7065.36
7067.15
7068.88
7070.54
7072.13
7073.66
7075.1
7076.47
7077.75
7078.94
7080.05
7081.06
7081.98
7082.81
7083.54
7084.17
7084.71
7085.15
7085.5
7085.76
7085.92
7085.99
7085.98
7085.88
7085.69
7085.42
7085.08
7084.66
7084.16
7083.6
7082.97
7082.28
7081.54
7080.73
7079.87
7078.97
7078.02
7077.02
7075.99
7074.92
7073.82
7072.69
7071.54
7070.36
7069.16
7067.95
7066.72
7065.48
7064.23
7062.97
7061.71
7060.44
7059.17
7057.91
7056.64
7055.38
7054.13
7052.88
7051.63
7050.4
7049.18
7047.97
7046.77
7045.58
7044.4
7043.24
7042.1
7040.97
7039.85
7038.75
7037.67
7036.6
7035.55
7034.51
7033.49
7032.49
7031.5
7030.53
7029.57
7028.64
7027.71
7026.81
7025.92
7025.04
7024.18
7023.34
7022.5
7021.69
7020.88
7020.1
7019.32
7018.56
7017.81
7017.08
7016.35
7015.65
7014.95
7014.27
7013.59
7012.93
7012.28
7011.64
7011.02
7010.4
7009.8
7009.19
7008.6
7008.01
7007.44
7006.89
7006.35
7005.77
7005.24
7004.58
7004.08
7003.73
7003.25
7002.82
7002.35
7001.9
7001.44
7001.01
7000.56
7000.14
6999.69
6999.27
6998.85
6998.43
6998
6997.58
6997.1
6996.69
6996.37
6995.95
6995.58
6995.16
6994.77
6994.35
6993.96
6993.54
6993.15
6992.74
6992.34
6991.92
6991.54
6991.11
6990.72
6990.35
6989.94
6989.59
6989.13
6988.75
6988.1
6987.8
6987.54
6987.2
6986.85
6986.5
6986.14
6985.8
6985.46
6985.12
6984.78
6984.44
6984.11
6983.77
6983.44
6983.11
6982.77
6982.44
6982.11
6981.77
6981.43
6981.09
6980.75
6980.41
6980.07
6979.72
6979.38
6979.03
6978.68
6978.34
6977.99
6977.64
6977.3
6976.95
6976.6
6976.26
6975.91
6975.56
6975.22
6974.88
6974.53
6974.19
6973.85
6973.51
6973.17
6972.83
6972.49
6972.15
6971.82
6971.49
6971.15
6970.82
6970.49
6970.17
6969.84
6969.52
6969.19
6968.87
6968.56
6968.24
6967.92
6967.61
6967.3
6966.99
6966.68
6966.38
6966.08
6965.78
6965.48
6965.18
6964.89
6964.6
6964.31
6964.03
6963.74
6963.46
6963.18
6962.9
6962.63
6962.36
6962.09
6961.82
6961.56
6961.3
6961.04
6960.78
6960.53
6960.28
6960.03
6959.78
6959.54
6959.29
6959.16
6958.74
7617.53
7620.36
7622.46
7623.58
7624.37
7625.22
7626.16
7627.18
7628.11
7628.88
7629.59
7630.33
7631.16
7631.89
7632.31
7632.97
7633.63
7634.29
7634.97
7635.68
7636.37
7637.03
7637.63
7638.16
7638.64
7639.08
7639.49
7639.84
7640.15
7640.41
7640.63
7640.82
7640.95
7641.05
7641.11
7641.11
7641.04
7640.95
7640.82
7640.61
7640.36
7640.08
7639.76
7639.39
7638.96
7638.45
7637.92
7637.34
7636.72
7636.07
7635.39
7634.55
7633.66
7632.75
7631.83
7630.86
7629.8
7628.7
7627.56
7626.35
7625.07
7623.75
7622.35
7620.91
7619.38
7617.78
7616.17
7614.52
7612.77
7610.97
7609.06
7607.11
7605.04
7602.83
7600.49
7598.03
7595.39
7592.59
7589.61
7586.43
7583.02
7579.49
7575.88
7572.21
7568.37
7564.22
7560.26
7556.53
7552.5
7548.07
7543.14
7538.31
7539.16
7543.27
7528.45
7483.77
7504.86
7503.99
7491.36
7486.72
7479.63
7467.55
7461.52
7453.54
7444.48
7435.9
7427.2
7418.05
7409.38
7400.35
7389.2
7378.16
7367.57
7357.1
7358.69
7343.78
7312.12
7295.42
7279.04
7263.21
7248.61
7230.87
7210.89
7190.73
7170.57
7150.59
7130.05
7108.11
7086.04
7063.97
7041.4
7025
7000.9
6968.83
6943.46
6918.2
6893.98
6869.34
6845.52
6820.66
6795.22
6770.17
6745.61
6721.28
6697.37
6673.79
6650.61
6627.97
6605.92
6584.43
6563.58
6543.4
6523.92
6505.16
6487.15
6469.87
6453.38
6437.65
6422.7
6408.51
6395.06
6382.35
6370.35
6359.04
6348.39
6338.37
6328.95
6320.1
6311.78
6303.95
6296.59
6289.66
6283.14
6276.98
6271.17
6265.7
6260.54
6255.7
6251.19
6247.01
6243.19
6239.73
6236.65
6233.98
6231.73
6229.9
6228.52
6227.59
6227.1
6227.05
6227.44
6228.26
6229.52
6231.21
6233.31
6235.83
6238.74
6242.03
6245.69
6249.72
6254.09
6258.8
6263.83
6269.17
6274.79
6280.7
6286.86
6293.27
6299.92
6306.79
6313.87
6321.15
6328.6
6336.21
6343.97
6351.87
6359.89
6368.03
6376.27
6384.6
6393.01
6401.48
6410
6418.57
6427.17
6435.8
6444.44
6453.09
6461.74
6470.37
6478.99
6487.58
6496.14
6504.66
6513.13
6521.55
6529.92
6538.22
6546.45
6554.61
6562.7
6570.7
6578.62
6586.45
6594.2
6601.85
6609.4
6616.86
6624.22
6631.48
6638.63
6645.69
6652.64
6659.48
6666.22
6672.85
6679.38
6685.8
6692.12
6698.33
6704.43
6710.42
6716.3
6722.08
6727.75
6733.31
6738.77
6744.12
6749.35
6754.48
6759.5
6764.41
6769.22
6773.91
6778.5
6782.97
6787.34
6791.6
6795.76
6799.8
6803.74
6807.57
6811.3
6814.92
6818.44
6821.86
6825.18
6828.4
6831.52
6834.54
6837.47
6840.31
6843.06
6845.73
6848.31
6850.8
6853.22
6855.56
6857.83
6860.02
6862.14
6864.2
6866.19
6868.12
6869.99
6871.79
6873.53
6875.19
6876.8
6878.32
6879.77
6881.14
6882.42
6883.62
6884.72
6885.73
6886.65
6887.47
6888.19
6888.82
6889.35
6889.78
6890.12
6890.36
6890.51
6890.56
6890.53
6890.4
6890.19
6889.91
6889.54
6889.09
6888.57
6887.99
6887.33
6886.62
6885.84
6885.01
6884.12
6883.19
6882.21
6881.19
6880.14
6879.05
6877.92
6876.77
6875.59
6874.4
6873.18
6871.94
6870.69
6869.43
6868.16
6866.89
6865.61
6864.33
6863.05
6861.77
6860.49
6859.22
6857.96
6856.7
6855.44
6854.2
6852.97
6851.75
6850.54
6849.35
6848.17
6847.01
6845.85
6844.72
6843.6
6842.5
6841.41
6840.34
6839.28
6838.25
6837.23
6836.22
6835.23
6834.26
6833.31
6832.37
6831.45
6830.54
6829.65
6828.78
6827.92
6827.07
6826.24
6825.43
6824.63
6823.84
6823.06
6822.3
6821.56
6820.82
6820.1
6819.39
6818.7
6818.01
6817.34
6816.68
6816.04
6815.39
6814.76
6814.14
6813.54
6812.98
6812.39
6811.84
6811.22
6810.68
6809.98
6809.46
6809.1
6808.6
6808.16
6807.67
6807.19
6806.72
6806.27
6805.8
6805.37
6804.9
6804.47
6804.03
6803.61
6803.15
6802.73
6802.24
6801.82
6801.5
6801.08
6800.71
6800.28
6799.89
6799.46
6799.06
6798.64
6798.25
6797.83
6797.43
6797
6796.61
6796.16
6795.78
6795.36
6794.99
6794.55
6794.17
6793.52
6793.22
6792.96
6792.62
6792.27
6791.89
6791.52
6791.14
6790.78
6790.43
6790.07
6789.72
6789.38
6789.03
6788.68
6788.34
6788
6787.66
6787.31
6786.97
6786.63
6786.29
6785.95
6785.61
6785.27
6784.92
6784.58
6784.23
6783.89
6783.54
6783.19
6782.84
6782.49
6782.14
6781.8
6781.45
6781.1
6780.75
6780.4
6780.05
6779.71
6779.36
6779.01
6778.67
6778.32
6777.98
6777.64
6777.29
6776.95
6776.61
6776.27
6775.94
6775.6
6775.27
6774.93
6774.6
6774.27
6773.95
6773.62
6773.29
6772.97
6772.65
6772.33
6772.01
6771.7
6771.38
6771.07
6770.76
6770.46
6770.15
6769.85
6769.55
6769.25
6768.96
6768.66
6768.37
6768.08
6767.79
6767.51
6767.23
6766.95
6766.67
6766.4
6766.13
6765.86
6765.59
6765.33
6765.06
6764.81
6764.55
6764.3
6764.04
6763.8
6763.55
6763.3
6763.05
6762.93
6762.5
7421.12
7423.97
7426.09
7427.23
7428.04
7428.91
7429.87
7430.9
7431.85
7432.64
7433.39
7434.2
7435.11
7435.86
7436.38
7437.1
7437.82
7438.52
7439.23
7439.92
7440.6
7441.25
7441.84
7442.38
7442.87
7443.33
7443.74
7444.12
7444.45
7444.74
7444.99
7445.18
7445.31
7445.43
7445.51
7445.51
7445.48
7445.41
7445.28
7445.08
7444.85
7444.59
7444.27
7443.9
7443.5
7443
7442.44
7441.84
7441.26
7440.61
7439.9
7439.11
7438.19
7437.29
7436.35
7435.37
7434.31
7433.2
7432.01
7430.77
7429.49
7428.11
7426.65
7425.18
7423.61
7421.94
7420.22
7418.44
7416.59
7414.66
7412.63
7410.52
7408.32
7405.98
7403.48
7400.86
7398.11
7395.18
7392.08
7388.82
7385.44
7381.87
7378.13
7374.24
7370.27
7366.24
7362.19
7358.05
7353.71
7349.03
7344.39
7339.74
7334.51
7328.75
7322.84
7323.23
7327.29
7311.67
7264.35
7285.69
7284.65
7269.75
7264.02
7256.46
7243.01
7235.86
7227.04
7217.35
7208.09
7198.41
7188.12
7178.14
7167.53
7154.64
7141.97
7129.45
7117.58
7118.62
7101.46
7066.64
7047.59
7029.32
7011.66
6995.13
6975.43
6953.55
6931.51
6909.55
6888.07
6865.95
6842.6
6819.45
6795.07
6772.11
6749.46
6731.38
6706.94
6674.42
6648.72
6623.36
6598.17
6573.89
6548.97
6523.77
6499.2
6475.28
6451.8
6428.88
6406.47
6384.63
6363.46
6343.03
6323.29
6304.3
6286.06
6268.6
6251.92
6236.03
6220.94
6206.61
6193.05
6180.22
6168.11
6156.69
6145.95
6135.85
6126.36
6117.44
6109.05
6101.18
6093.79
6086.85
6080.32
6074.19
6068.43
6063.02
6057.96
6053.22
6048.83
6044.78
6041.09
6037.76
6034.82
6032.27
6030.15
6028.45
6027.19
6026.38
6026.01
6026.08
6026.59
6027.54
6028.93
6030.74
6032.98
6035.62
6038.66
6042.09
6045.89
6050.05
6054.56
6059.41
6064.58
6070.05
6075.82
6081.85
6088.14
6094.69
6101.47
6108.48
6115.68
6123.08
6130.65
6138.38
6146.25
6154.27
6162.41
6170.66
6179
6187.43
6195.93
6204.5
6213.12
6221.78
6230.46
6239.17
6247.89
6256.61
6265.33
6274.04
6282.72
6291.37
6299.99
6308.56
6317.08
6325.55
6333.96
6342.3
6350.57
6358.76
6366.87
6374.91
6382.85
6390.71
6398.47
6406.13
6413.7
6421.17
6428.54
6435.8
6442.96
6450.02
6456.97
6463.82
6470.56
6477.19
6483.72
6490.14
6496.45
6502.65
6508.75
6514.74
6520.62
6526.39
6532.06
6537.62
6543.07
6548.42
6553.66
6558.78
6563.8
6568.72
6573.52
6578.22
6582.8
6587.28
6591.66
6595.92
6600.08
6604.14
6608.09
6611.93
6615.67
6619.3
6622.84
6626.27
6629.61
6632.84
6635.98
6639.03
6641.98
6644.85
6647.62
6650.31
6652.92
6655.44
6657.88
6660.25
6662.54
6664.76
6666.91
6668.99
6671
6672.95
6674.83
6676.65
6678.39
6680.07
6681.68
6683.21
6684.66
6686.03
6687.31
6688.51
6689.61
6690.61
6691.52
6692.34
6693.05
6693.67
6694.18
6694.6
6694.92
6695.14
6695.26
6695.29
6695.24
6695.09
6694.85
6694.53
6694.13
6693.66
6693.11
6692.49
6691.8
6691.05
6690.25
6689.38
6688.47
6687.5
6686.49
6685.44
6684.36
6683.24
6682.08
6680.9
6679.7
6678.47
6677.23
6675.97
6674.7
6673.42
6672.13
6670.83
6669.54
6668.24
6666.94
6665.64
6664.35
6663.07
6661.79
6660.52
6659.25
6658
6656.76
6655.53
6654.32
6653.12
6651.93
6650.76
6649.6
6648.46
6647.34
6646.23
6645.14
6644.06
6643.01
6641.97
6640.95
6639.94
6638.95
6637.98
6637.03
6636.09
6635.17
6634.26
6633.37
6632.5
6631.64
6630.8
6629.97
6629.16
6628.35
6627.57
6626.79
6626.04
6625.29
6624.56
6623.83