/*--------------------------------*- C++ -*----------------------------------*\
| =========                 |                                                 |
| \\      /  F ield         | OpenFOAM: The Open Source CFD Toolbox           |
|  \\    /   O peration     | Version:  v2006                                 |
|   \\  /    A nd           | Website:  www.openfoam.com                      |
|    \\/     M anipulation  |                                                 |
\*---------------------------------------------------------------------------*/
FoamFile
{
    version     2.0;
    format      ascii;
    class       surfaceScalarField;
    location    "4.9";
    object      phi;
}
// * * * * * * * * * * * * * * * * * * * * * * * * * * * * * * * * * * * * * //

dimensions      [0 3 -1 0 0 0 0];
oriented        oriented;


internalField   nonuniform List<scalar> 
65390
(
6.78733e-05
-1.11563e-06
6.89541e-05
-1.08077e-06
6.98163e-05
-8.6221e-07
7.0634e-05
-8.177e-07
7.13551e-05
-7.211e-07
7.15802e-05
-2.25028e-07
7.14361e-05
1.4419e-07
7.13387e-05
9.74733e-08
7.16735e-05
-3.34657e-07
7.38924e-05
-2.21883e-06
8.00868e-05
-6.19423e-06
8.97215e-05
-9.63454e-06
0.000101335
-1.16138e-05
0.000114054
-1.27182e-05
0.000126561
-1.25068e-05
0.000136454
-9.89287e-06
0.000141018
-4.56362e-06
0.000139063
1.95526e-06
0.000132041
7.02174e-06
0.000123344
8.69706e-06
0.000115383
7.96133e-06
0.000109623
5.7601e-06
0.000106137
3.48621e-06
0.000103945
2.19219e-06
0.000102416
1.52831e-06
0.000101231
1.18514e-06
0.000100458
7.73832e-07
0.000100219
2.38944e-07
0.000100365
-1.46874e-07
0.000100637
-2.71328e-07
0.000100821
-1.84461e-07
0.000100707
1.14167e-07
0.000100477
2.29884e-07
0.00010038
9.68654e-08
0.000100484
-1.03491e-07
0.00010059
-1.06729e-07
0.000100566
2.44049e-08
0.000100514
5.14776e-08
0.000100604
-8.98909e-08
0.00010099
-3.86032e-07
0.00010145
-4.60125e-07
0.000101677
-2.26748e-07
0.000101507
1.69481e-07
0.000101311
1.96122e-07
0.00010132
-8.69552e-09
0.000101646
-3.26595e-07
0.000102053
-4.07055e-07
0.0001023
-2.46878e-07
0.000102275
2.44735e-08
0.000102231
4.43226e-08
0.000102335
-1.04216e-07
0.00010259
-2.55074e-07
0.000102839
-2.48817e-07
0.000103039
-2.00248e-07
0.000103245
-2.0601e-07
0.000103503
-2.57679e-07
0.000103762
-2.59446e-07
0.000103881
-1.18202e-07
0.000103568
3.12808e-07
0.000102954
6.14315e-07
0.000102419
5.34241e-07
0.000102139
2.806e-07
0.000101871
2.67723e-07
0.00010137
5.01726e-07
0.000100716
6.53634e-07
0.000100284
4.32081e-07
0.000100303
-1.87734e-08
0.000100518
-2.14749e-07
0.000100708
-1.90461e-07
0.000100702
6.01779e-09
0.000100378
3.24684e-07
9.99407e-05
4.36961e-07
9.94183e-05
5.22445e-07
9.8517e-05
9.01357e-07
9.67202e-05
1.79674e-06
9.3271e-05
3.44924e-06
8.66394e-05
6.63155e-06
7.53644e-05
1.12749e-05
6.46197e-05
1.07446e-05
5.93677e-05
5.25194e-06
5.45636e-05
4.80399e-06
5.192e-05
2.64351e-06
4.83292e-05
3.59076e-06
4.59994e-05
2.32973e-06
4.62275e-05
-2.28197e-07
4.56416e-05
5.85847e-07
4.49496e-05
6.91855e-07
4.48322e-05
1.1733e-07
4.50662e-05
-2.33998e-07
4.50329e-05
3.31715e-08
4.5006e-05
2.68661e-08
4.50326e-05
-2.67064e-08
4.48125e-05
2.20124e-07
4.44741e-05
3.384e-07
4.38451e-05
6.28876e-07
4.30336e-05
8.11572e-07
4.15497e-05
1.48381e-06
3.96113e-05
1.93845e-06
3.57668e-05
3.84453e-06
3.05209e-05
5.24591e-06
2.62799e-05
4.24105e-06
2.4145e-05
2.13491e-06
2.38817e-05
2.63285e-07
2.37478e-05
1.3392e-07
2.43664e-05
-6.18568e-07
2.52942e-05
-9.27838e-07
2.57858e-05
-4.91584e-07
2.57901e-05
-4.29781e-09
2.57899e-05
1.04892e-10
2.6005e-05
-2.15138e-07
2.61606e-05
-1.55586e-07
2.64019e-05
-2.41347e-07
2.65636e-05
-1.61719e-07
2.65962e-05
-3.26131e-08
2.62999e-05
2.96333e-07
2.57594e-05
5.40562e-07
2.42079e-05
1.55153e-06
2.23125e-05
1.89535e-06
2.11564e-05
1.1562e-06
2.09974e-05
1.59043e-07
2.13688e-05
-3.71362e-07
2.15136e-05
-1.44652e-07
2.19362e-05
-4.22455e-07
2.24546e-05
-5.18275e-07
2.27031e-05
-2.48383e-07
2.28913e-05
-1.88078e-07
2.30768e-05
-1.85355e-07
2.3214e-05
-1.37115e-07
2.33607e-05
-1.46633e-07
2.3497e-05
-1.36285e-07
2.35961e-05
-9.90573e-08
2.36556e-05
-5.95072e-08
2.36815e-05
-2.59437e-08
2.36791e-05
2.42775e-09
2.36524e-05
2.66072e-08
2.36062e-05
4.607e-08
2.3542e-05
6.4103e-08
2.34535e-05
8.84162e-08
2.33394e-05
1.13989e-07
2.31978e-05
1.41427e-07
2.30286e-05
1.69071e-07
2.2834e-05
1.94493e-07
2.26113e-05
2.22615e-07
2.23533e-05
2.57907e-07
2.20647e-05
2.88569e-07
2.17508e-05
3.13915e-07
2.14074e-05
3.43441e-07
2.10301e-05
3.77358e-07
2.06162e-05
4.13993e-07
2.0168e-05
4.48362e-07
1.96941e-05
4.7405e-07
1.91927e-05
5.01581e-07
1.86573e-05
5.35619e-07
1.80855e-05
5.71921e-07
1.74781e-05
6.07513e-07
1.68393e-05
6.38948e-07
1.61732e-05
6.66113e-07
1.54745e-05
6.98774e-07
1.47396e-05
7.34957e-07
1.39766e-05
7.63058e-07
1.31886e-05
7.8809e-07
1.23718e-05
8.16844e-07
1.15219e-05
8.49902e-07
1.06481e-05
8.73868e-07
9.76131e-06
8.86856e-07
8.85933e-06
9.02049e-07
7.9355e-06
9.23911e-07
6.99645e-06
9.39148e-07
6.06249e-06
9.34056e-07
5.13566e-06
9.26945e-07
4.21153e-06
9.24248e-07
3.29196e-06
9.19702e-07
2.38599e-06
9.06108e-07
1.50783e-06
8.78288e-07
6.67225e-07
8.40706e-07
-1.41455e-07
8.08739e-07
-9.22286e-07
7.8086e-07
-1.67228e-06
7.50008e-07
-2.38922e-06
7.16947e-07
-3.07197e-06
6.8275e-07
-3.72505e-06
6.53061e-07
-4.35351e-06
6.28443e-07
-4.95717e-06
6.03667e-07
-5.52892e-06
5.71793e-07
-6.07005e-06
5.41188e-07
-6.59026e-06
5.2021e-07
-7.09244e-06
5.02142e-07
-7.57323e-06
4.80754e-07
-8.03129e-06
4.58097e-07
-8.46576e-06
4.34581e-07
-8.8788e-06
4.13145e-07
-9.27105e-06
3.92277e-07
-9.64639e-06
3.75276e-07
-1.00047e-05
3.58246e-07
-1.0345e-05
3.40331e-07
-1.06676e-05
3.22828e-07
-1.09727e-05
3.05287e-07
-1.12585e-05
2.85947e-07
-1.15269e-05
2.68367e-07
-1.1781e-05
2.5402e-07
-1.2024e-05
2.42896e-07
-1.22541e-05
2.30164e-07
-1.24693e-05
2.15286e-07
-1.26681e-05
1.98957e-07
-1.28511e-05
1.83081e-07
-1.30217e-05
1.70726e-07
-1.31819e-05
1.60239e-07
-1.33314e-05
1.49499e-07
-1.3469e-05
1.37649e-07
-1.3593e-05
1.24093e-07
-1.37046e-05
1.11748e-07
-1.38076e-05
1.03107e-07
-1.39039e-05
9.6324e-08
-1.39896e-05
8.56991e-08
-1.40616e-05
7.19255e-08
-1.4122e-05
6.03368e-08
-1.41735e-05
5.15138e-08
-1.42186e-05
4.52016e-08
-1.42586e-05
4.01893e-08
-1.42908e-05
3.22487e-08
-1.43128e-05
2.20846e-08
-1.43239e-05
1.10616e-08
-1.43265e-05
2.5512e-09
-1.43228e-05
-3.76113e-09
-1.4315e-05
-7.79777e-09
-1.43022e-05
-1.28182e-08
-1.4282e-05
-2.01488e-08
-1.42542e-05
-2.77278e-08
-1.42196e-05
-3.45823e-08
-1.41782e-05
-4.14185e-08
-1.41315e-05
-4.66708e-08
-1.40824e-05
-4.91022e-08
-1.40297e-05
-5.2728e-08
-1.39705e-05
-5.91223e-08
-1.39056e-05
-6.49575e-08
-1.38357e-05
-6.98381e-08
-1.37608e-05
-7.48964e-08
-1.36828e-05
-7.80336e-08
-1.36026e-05
-8.02567e-08
-1.35179e-05
-8.4658e-08
-1.3429e-05
-8.8936e-08
-1.33375e-05
-9.15148e-08
-1.32441e-05
-9.34535e-08
-1.3147e-05
-9.71196e-08
-1.3045e-05
-1.01997e-07
-1.29385e-05
-1.06504e-07
-1.28296e-05
-1.08919e-07
-1.27212e-05
-1.08422e-07
-1.26108e-05
-1.10436e-07
-1.24945e-05
-1.16309e-07
-1.23736e-05
-1.20826e-07
-1.22505e-05
-1.23104e-07
-1.21256e-05
-1.24821e-07
-1.19979e-05
-1.27724e-07
-1.18674e-05
-1.30465e-07
-1.17342e-05
-1.33229e-07
-1.15964e-05
-1.37863e-07
-1.14552e-05
-1.4125e-07
-1.13104e-05
-1.44743e-07
-1.11623e-05
-1.48114e-07
-1.10122e-05
-1.50145e-07
-1.08578e-05
-1.54331e-07
-1.06979e-05
-1.59939e-07
-1.05325e-05
-1.65438e-07
-1.03625e-05
-1.70052e-07
-1.01902e-05
-1.72332e-07
-1.0016e-05
-1.74221e-07
-9.83819e-06
-1.77887e-07
-9.65403e-06
-1.84235e-07
-9.46155e-06
-1.9253e-07
-9.26288e-06
-1.98713e-07
-9.05954e-06
-2.03376e-07
-8.85317e-06
-2.06389e-07
-8.6441e-06
-2.0908e-07
-8.42874e-06
-2.15367e-07
-8.20646e-06
-2.2229e-07
-7.97797e-06
-2.28516e-07
-7.7444e-06
-2.3359e-07
-7.50527e-06
-2.3917e-07
-7.25934e-06
-2.45963e-07
-7.00684e-06
-2.52536e-07
-6.75063e-06
-2.56249e-07
-6.49211e-06
-2.58564e-07
-6.22735e-06
-2.64814e-07
-5.95571e-06
-2.71693e-07
-5.67713e-06
-2.78635e-07
-5.39296e-06
-2.84227e-07
-5.1046e-06
-2.88399e-07
-4.8131e-06
-2.91533e-07
-4.51991e-06
-2.93226e-07
-4.2227e-06
-2.97229e-07
-3.92082e-06
-3.01894e-07
-3.61479e-06
-3.06019e-07
-3.30555e-06
-3.09218e-07
-2.99572e-06
-3.098e-07
-2.68747e-06
-3.08205e-07
-2.37808e-06
-3.09356e-07
-2.06839e-06
-3.09646e-07
-1.75952e-06
-3.08844e-07
-1.45131e-06
-3.08184e-07
-1.14649e-06
-3.04799e-07
-8.46207e-07
-3.00281e-07
-5.49758e-07
-2.96456e-07
-2.5797e-07
-2.91802e-07
2.891e-08
-2.86899e-07
3.08487e-07
-2.79593e-07
5.81209e-07
-2.72734e-07
8.47704e-07
-2.66506e-07
1.10829e-06
-2.60597e-07
1.36249e-06
-2.54218e-07
1.60916e-06
-2.46691e-07
1.84831e-06
-2.39174e-07
2.08047e-06
-2.32183e-07
2.30652e-06
-2.26081e-07
2.52609e-06
-2.19605e-07
2.73812e-06
-2.12067e-07
2.94279e-06
-2.04702e-07
3.14048e-06
-1.97712e-07
3.33136e-06
-1.90872e-07
3.51512e-06
-1.83745e-07
3.69124e-06
-1.76086e-07
3.85991e-06
-1.6863e-07
4.02166e-06
-1.61711e-07
4.17654e-06
-1.54836e-07
4.32405e-06
-1.47473e-07
4.46396e-06
-1.39872e-07
4.59675e-06
-1.32764e-07
4.72292e-06
-1.26136e-07
4.84228e-06
-1.19338e-07
4.95452e-06
-1.12224e-07
5.05957e-06
-1.05021e-07
5.15756e-06
-9.79518e-08
5.24898e-06
-9.13733e-08
5.33419e-06
-8.51599e-08
5.41324e-06
-7.9007e-08
5.48605e-06
-7.27775e-08
5.55259e-06
-6.65123e-08
5.61289e-06
-6.02892e-08
5.66728e-06
-5.4377e-08
5.71614e-06
-4.88537e-08
5.75967e-06
-4.35037e-08
5.79787e-06
-3.81691e-08
5.83074e-06
-3.28226e-08
5.85824e-06
-2.74384e-08
5.8809e-06
-2.25827e-08
5.89916e-06
-1.81801e-08
5.91314e-06
-1.39082e-08
5.92271e-06
-9.51215e-09
5.92785e-06
-5.12845e-09
5.9289e-06
-1.05774e-09
5.92628e-06
2.5902e-09
5.92021e-06
6.0308e-09
5.91061e-06
9.57212e-09
5.89752e-06
1.3064e-08
5.88127e-06
1.62232e-08
5.86222e-06
1.90306e-08
5.84042e-06
2.17846e-08
5.81582e-06
2.45989e-08
5.78866e-06
2.7173e-08
5.75927e-06
2.94217e-08
5.72769e-06
3.16107e-08
5.694e-06
3.37203e-08
5.65828e-06
3.5735e-08
5.62064e-06
3.76279e-08
5.58131e-06
3.92894e-08
5.54049e-06
4.07693e-08
5.49824e-06
4.21936e-08
5.45462e-06
4.35781e-08
5.40968e-06
4.49171e-08
5.36356e-06
4.61196e-08
5.3164e-06
4.71848e-08
5.26844e-06
4.79869e-08
5.21972e-06
4.8756e-08
5.17019e-06
4.95577e-08
5.11995e-06
5.02404e-08
5.06914e-06
5.07946e-08
5.01778e-06
5.1323e-08
4.96593e-06
5.18184e-08
4.91357e-06
5.23159e-08
4.86089e-06
5.26574e-08
4.80805e-06
5.28305e-08
4.75514e-06
5.2918e-08
4.70214e-06
5.30277e-08
4.64901e-06
5.31535e-08
4.59575e-06
5.32788e-08
4.54242e-06
5.33394e-08
4.48913e-06
5.33004e-08
4.43595e-06
5.31669e-08
4.38302e-06
5.29164e-08
4.33014e-06
5.28617e-08
4.27723e-06
5.28898e-08
4.22463e-06
5.25764e-08
4.17246e-06
5.21508e-08
4.12036e-06
5.20936e-08
4.06845e-06
5.19019e-08
4.01691e-06
5.15333e-08
3.96555e-06
5.13499e-08
3.91435e-06
5.11992e-08
3.86343e-06
5.09159e-08
3.81292e-06
5.05062e-08
3.76286e-06
5.00546e-08
3.71325e-06
4.96084e-08
3.66401e-06
4.92439e-08
3.61507e-06
4.89291e-08
3.56664e-06
4.84198e-08
3.51857e-06
4.80591e-08
3.47127e-06
4.72913e-08
3.42465e-06
4.66084e-08
3.3787e-06
4.59366e-08
3.33322e-06
4.54751e-08
3.28817e-06
4.50509e-08
3.24362e-06
4.45451e-08
3.1994e-06
4.42264e-08
3.15602e-06
4.33803e-08
3.11314e-06
4.28902e-08
3.06963e-06
4.35148e-08
3.02703e-06
4.25954e-08
2.98336e-06
4.36679e-08
2.93946e-06
4.39044e-08
2.89961e-06
3.98445e-08
2.85946e-06
4.01396e-08
2.81683e-06
4.2623e-08
2.77878e-06
3.80533e-08
2.72669e-06
5.20814e-08
2.67205e-06
5.46296e-08
2.64427e-06
2.77743e-08
2.60404e-06
4.02292e-08
2.57547e-06
2.85576e-08
2.56819e-06
7.27406e-09
2.5982e-06
-3.00202e-08
2.6316e-06
-3.34088e-08
2.62738e-06
4.20124e-09
2.62012e-06
7.2559e-09
2.60051e-06
1.95965e-08
2.57789e-06
2.25998e-08
2.55017e-06
2.77171e-08
2.5215e-06
2.86555e-08
2.4904e-06
3.10931e-08
2.4586e-06
3.17877e-08
2.42413e-06
3.44698e-08
2.3901e-06
3.40261e-08
2.3533e-06
3.67931e-08
2.31582e-06
3.74692e-08
2.28173e-06
3.40859e-08
2.24622e-06
3.55049e-08
2.20693e-06
3.92862e-08
2.16853e-06
3.83897e-08
2.12835e-06
4.01652e-08
2.08667e-06
4.16742e-08
2.04407e-06
4.25864e-08
2.00094e-06
4.31248e-08
1.96094e-06
3.99873e-08
1.91866e-06
4.22744e-08
1.88031e-06
3.83432e-08
1.83882e-06
4.14811e-08
1.80139e-06
3.74209e-08
1.75649e-06
4.4892e-08
1.71274e-06
4.37444e-08
1.67635e-06
3.63819e-08
1.63452e-06
4.18219e-08
1.59345e-06
4.10571e-08
1.56239e-06
3.105e-08
1.47497e-06
8.74154e-08
1.40091e-06
7.40475e-08
1.38277e-06
1.81371e-08
1.30161e-06
8.11696e-08
1.32829e-06
-2.66362e-08
1.36007e-06
-3.1673e-08
1.68978e-06
-3.29542e-07
2.09667e-06
-4.06578e-07
2.31569e-06
-2.1846e-07
2.45267e-06
-1.36482e-07
2.54214e-06
-8.9007e-08
2.59562e-06
-5.30759e-08
2.62573e-06
-2.97392e-08
2.63912e-06
-1.30554e-08
2.64009e-06
-6.6442e-10
2.63298e-06
7.37668e-09
2.61916e-06
1.40642e-08
2.59995e-06
1.94396e-08
2.57645e-06
2.37e-08
2.54949e-06
2.71412e-08
2.5196e-06
3.00517e-08
2.48714e-06
3.26161e-08
2.45241e-06
3.48626e-08
2.41578e-06
3.67548e-08
2.37758e-06
3.83119e-08
2.33808e-06
3.96041e-08
2.29743e-06
4.07341e-08
2.25575e-06
4.17722e-08
2.21307e-06
4.275e-08
2.16951e-06
4.36262e-08
2.12518e-06
4.44003e-08
2.08019e-06
4.50454e-08
2.03491e-06
4.53263e-08
1.98905e-06
4.59068e-08
1.9428e-06
4.6291e-08
1.89629e-06
4.65503e-08
1.84961e-06
4.67148e-08
1.80291e-06
4.67296e-08
1.75631e-06
4.6639e-08
1.70981e-06
4.6519e-08
1.66341e-06
4.64281e-08
1.61705e-06
4.63864e-08
1.57069e-06
4.63788e-08
1.52418e-06
4.65259e-08
1.47738e-06
4.68218e-08
1.43054e-06
4.68506e-08
1.38352e-06
4.70394e-08
1.33623e-06
4.73037e-08
1.28864e-06
4.75986e-08
1.24072e-06
4.79318e-08
1.19245e-06
4.8278e-08
1.14389e-06
4.8576e-08
1.09512e-06
4.87736e-08
1.04627e-06
4.88627e-08
9.97456e-07
4.88184e-08
9.48782e-07
4.8679e-08
9.00322e-07
4.8465e-08
8.52097e-07
4.82291e-08
8.04058e-07
4.80422e-08
7.56043e-07
4.80177e-08
7.07812e-07
4.82331e-08
6.5921e-07
4.86043e-08
6.10352e-07
4.88584e-08
5.61578e-07
4.87756e-08
5.13236e-07
4.83421e-08
4.65278e-07
4.79578e-08
4.17102e-07
4.81758e-08
3.6825e-07
4.88512e-08
3.18633e-07
4.96168e-08
2.68809e-07
4.98239e-08
2.19716e-07
4.90928e-08
1.71212e-07
4.85031e-08
1.22437e-07
4.87763e-08
7.29204e-08
4.95171e-08
2.3187e-08
4.97346e-08
-2.55114e-08
4.86995e-08
-7.33718e-08
4.78612e-08
-1.21426e-07
4.80549e-08
-1.69933e-07
4.85084e-08
-2.17899e-07
4.79678e-08
-2.65115e-07
4.72192e-08
-3.12579e-07
4.74682e-08
-3.61353e-07
4.8777e-08
-4.10744e-07
4.93946e-08
-4.60134e-07
4.9394e-08
-5.10672e-07
5.05416e-08
-5.64494e-07
5.38245e-08
5.87083e-08
6.79547e-05
-2.26368e-06
6.90493e-05
-2.17538e-06
6.99919e-05
-1.80473e-06
7.08945e-05
-1.72034e-06
7.17428e-05
-1.56937e-06
7.25541e-05
-1.03627e-06
7.33859e-05
-6.87581e-07
7.43807e-05
-8.97277e-07
7.61739e-05
-2.1279e-06
8.06425e-05
-6.68745e-06
8.72177e-05
-1.27694e-05
9.38365e-05
-1.62534e-05
0.000100025
-1.78026e-05
0.000105312
-1.80045e-05
0.000108359
-1.55543e-05
0.000108656
-1.01903e-05
0.000107226
-3.13317e-06
0.000106484
2.697e-06
0.000106579
6.92702e-06
0.000106584
8.69156e-06
0.000106053
8.49288e-06
0.000104982
6.83103e-06
0.000103673
4.79531e-06
0.000102452
3.4127e-06
0.000101564
2.41698e-06
0.000100978
1.77111e-06
0.00010054
1.21153e-06
0.000100204
5.75243e-07
0.000100054
3.542e-09
0.000100044
-2.61822e-07
0.000100169
-3.08668e-07
0.000100398
-1.1507e-07
0.000100478
1.5014e-07
0.000100395
1.79754e-07
0.000100285
6.42463e-09
0.000100302
-1.23235e-07
0.000100449
-1.22368e-07
0.000100614
-1.14286e-07
0.000100824
-2.99024e-07
0.000101071
-6.33399e-07
0.000101311
-7.00258e-07
0.000101603
-5.1928e-07
0.00010181
-3.68096e-08
0.000101926
7.94556e-08
0.000102015
-9.77161e-08
0.000102229
-5.40124e-07
0.000102471
-6.49004e-07
0.00010274
-5.16308e-07
0.000102826
-6.17162e-08
0.000102805
6.54915e-08
0.000102773
-7.2333e-08
0.000102841
-3.22615e-07
0.000102924
-3.32399e-07
0.000103027
-3.0246e-07
0.000103166
-3.44792e-07
0.000103305
-3.96922e-07
0.000103402
-3.56556e-07
0.000103349
-6.51146e-08
0.00010311
5.52507e-07
0.000102964
7.59796e-07
0.000102794
7.04287e-07
0.000102527
5.47579e-07
0.000102168
6.27432e-07
0.000101565
1.10465e-06
0.000100908
1.31032e-06
0.000100358
9.8189e-07
0.000100056
2.83313e-07
9.9757e-05
8.4605e-08
9.93056e-05
2.60786e-07
9.84526e-05
8.58989e-07
9.74264e-05
1.35067e-06
9.6415e-05
1.44825e-06
9.55303e-05
1.40695e-06
9.48094e-05
1.62198e-06
9.45775e-05
2.02846e-06
9.49347e-05
3.09176e-06
9.69712e-05
4.5948e-06
0.000101032
7.21396e-06
9.88874e-05
1.28888e-05
9.06534e-05
1.34857e-05
7.84637e-05
1.69934e-05
6.64051e-05
1.47019e-05
6.0613e-05
9.38276e-06
5.53643e-05
7.57823e-06
5.22301e-05
2.90589e-06
4.89037e-05
3.91217e-06
4.60178e-05
3.57766e-06
4.53971e-05
7.37918e-07
4.63119e-05
-1.14892e-06
4.59532e-05
3.91777e-07
4.56536e-05
3.26348e-07
4.56306e-05
-3.67702e-09
4.5462e-05
3.88642e-07
4.53037e-05
4.96615e-07
4.52e-05
7.32607e-07
4.47511e-05
1.26047e-06
4.43686e-05
1.86631e-06
4.39112e-05
2.39589e-06
4.43309e-05
3.42489e-06
4.41224e-05
5.45451e-06
4.28024e-05
5.56111e-06
3.9012e-05
5.92531e-06
3.34104e-05
5.86497e-06
2.89666e-05
4.57769e-06
2.61933e-05
2.15478e-06
2.49411e-05
3.24327e-07
2.45678e-05
-1.18318e-07
2.43071e-05
2.5634e-07
2.49778e-05
-6.70571e-07
2.61427e-05
-1.38007e-06
2.68186e-05
-8.3153e-07
2.70588e-05
-4.81558e-07
2.71394e-05
-2.4234e-07
2.71044e-05
2.34805e-09
2.72565e-05
1.44276e-07
2.74412e-05
3.55926e-07
2.79727e-05
1.02004e-06
2.8171e-05
1.697e-06
2.77404e-05
1.58688e-06
2.60977e-05
1.80183e-06
2.40044e-05
1.72207e-06
2.27415e-05
1.11827e-06
2.22662e-05
5.30298e-08
2.22763e-05
-5.28268e-07
2.22897e-05
-2.6171e-07
2.26717e-05
-5.70054e-07
2.31592e-05
-6.72769e-07
2.33805e-05
-3.58407e-07
2.34838e-05
-2.49925e-07
2.35496e-05
-2.02063e-07
2.35879e-05
-1.37405e-07
2.3648e-05
-1.197e-07
2.37056e-05
-8.35801e-08
2.37265e-05
-1.85918e-08
2.36999e-05
5.31622e-08
2.36403e-05
1.05623e-07
2.35645e-05
1.39855e-07
2.34687e-05
1.84151e-07
2.33549e-05
2.2772e-07
2.32194e-05
2.7696e-07
2.30548e-05
3.33607e-07
2.28577e-05
3.91602e-07
2.26299e-05
4.50523e-07
2.23717e-05
5.16118e-07
2.2085e-05
5.75426e-07
2.17684e-05
6.30697e-07
2.14188e-05
6.93184e-07
2.1034e-05
7.62391e-07
2.06164e-05
8.31913e-07
2.01696e-05
8.95421e-07
1.96939e-05
9.5e-07
1.91848e-05
1.0108e-06
1.864e-05
1.08062e-06
1.8059e-05
1.15304e-06
1.74501e-05
1.21656e-06
1.68132e-05
1.27593e-06
1.61432e-05
1.33616e-06
1.54372e-05
1.40485e-06
1.46982e-05
1.47395e-06
1.39315e-05
1.5298e-06
1.31395e-05
1.58021e-06
1.23204e-05
1.63603e-06
1.14728e-05
1.69759e-06
1.06023e-05
1.74453e-06
9.71745e-06
1.77188e-06
8.81806e-06
1.8016e-06
7.90141e-06
1.84074e-06
6.97498e-06
1.86575e-06
6.04889e-06
1.86033e-06
5.12882e-06
1.84719e-06
4.21335e-06
1.83989e-06
3.30611e-06
1.8271e-06
2.41631e-06
1.79603e-06
1.54906e-06
1.74564e-06
7.09435e-07
1.68041e-06
-1.01059e-07
1.6193e-06
-8.83988e-07
1.56383e-06
-1.63543e-06
1.50148e-06
-2.35316e-06
1.43471e-06
-3.04249e-06
1.37212e-06
-3.70536e-06
1.31597e-06
-4.33988e-06
1.263e-06
-4.94479e-06
1.20858e-06
-5.51925e-06
1.14626e-06
-6.06782e-06
1.08982e-06
-6.59209e-06
1.04458e-06
-7.09299e-06
1.00311e-06
-7.57347e-06
9.61251e-07
-8.03471e-06
9.1929e-07
-8.47446e-06
8.74291e-07
-8.89258e-06
8.31298e-07
-9.28782e-06
7.87632e-07
-9.66184e-06
7.49425e-07
-1.00171e-05
7.13619e-07
-1.03558e-05
6.7896e-07
-1.06797e-05
6.46619e-07
-1.0987e-05
6.12481e-07
-1.12754e-05
5.74316e-07
-1.15456e-05
5.38682e-07
-1.18008e-05
5.09316e-07
-1.2043e-05
4.85233e-07
-1.22713e-05
4.586e-07
-1.24842e-05
4.28306e-07
-1.26822e-05
3.96937e-07
-1.2867e-05
3.67867e-07
-1.30398e-05
3.43424e-07
-1.32008e-05
3.21283e-07
-1.33495e-05
2.98193e-07
-1.34848e-05
2.73048e-07
-1.36081e-05
2.47421e-07
-1.37212e-05
2.24866e-07
-1.38257e-05
2.0756e-07
-1.39203e-05
1.90896e-07
-1.40033e-05
1.68564e-07
-1.40749e-05
1.43594e-07
-1.41366e-05
1.22069e-07
-1.41894e-05
1.04395e-07
-1.42341e-05
8.99497e-08
-1.42717e-05
7.78501e-08
-1.43018e-05
6.2316e-08
-1.43234e-05
4.36828e-08
-1.43351e-05
2.26286e-08
-1.43388e-05
6.30073e-09
-1.4336e-05
-6.61355e-09
-1.43268e-05
-1.69446e-08
-1.43114e-05
-2.81428e-08
-1.429e-05
-4.15539e-08
-1.42619e-05
-5.58018e-08
-1.42274e-05
-6.90139e-08
-1.41871e-05
-8.17412e-08
-1.4141e-05
-9.2719e-08
-1.40902e-05
-9.98811e-08
-1.40356e-05
-1.0737e-07
-1.39761e-05
-1.18573e-07
-1.39109e-05
-1.30217e-07
-1.38403e-05
-1.40459e-07
-1.37648e-05
-1.5035e-07
-1.3686e-05
-1.56812e-07
-1.36048e-05
-1.61537e-07
-1.35211e-05
-1.68396e-07
-1.34339e-05
-1.76137e-07
-1.33424e-05
-1.82986e-07
-1.32467e-05
-1.89184e-07
-1.31471e-05
-1.96744e-07
-1.3045e-05
-2.04208e-07
-1.29401e-05
-2.11443e-07
-1.28322e-05
-2.1679e-07
-1.2722e-05
-2.18589e-07
-1.26097e-05
-2.22742e-07
-1.24937e-05
-2.32268e-07
-1.23732e-05
-2.41231e-07
-1.22502e-05
-2.46128e-07
-1.21257e-05
-2.49257e-07
-1.19989e-05
-2.54562e-07
-1.18678e-05
-2.61624e-07
-1.17323e-05
-2.68692e-07
-1.15934e-05
-2.76798e-07
-1.14519e-05
-2.82803e-07
-1.13079e-05
-2.887e-07
-1.11618e-05
-2.94213e-07
-1.10119e-05
-3.00068e-07
-1.08557e-05
-3.10586e-07
-1.06944e-05
-3.21235e-07
-1.05294e-05
-3.30455e-07
-1.03608e-05
-3.38772e-07
-1.01893e-05
-3.43943e-07
-1.00142e-05
-3.49469e-07
-9.8342e-06
-3.57947e-07
-9.64879e-06
-3.69728e-07
-9.45657e-06
-3.84817e-07
-9.25913e-06
-3.96196e-07
-9.05764e-06
-4.049e-07
-8.8515e-06
-4.12542e-07
-8.63994e-06
-4.20654e-07
-8.42297e-06
-4.32368e-07
-8.20057e-06
-4.44731e-07
-7.97324e-06
-4.55889e-07
-7.74019e-06
-4.667e-07
-7.50058e-06
-4.78856e-07
-7.25465e-06
-4.91972e-07
-7.00314e-06
-5.04119e-07
-6.74729e-06
-5.12182e-07
-6.48734e-06
-5.18593e-07
-6.22165e-06
-5.3058e-07
-5.94918e-06
-5.44229e-07
-5.67104e-06
-5.56849e-07
-5.38859e-06
-5.66746e-07
-5.10239e-06
-5.74655e-07
-4.81161e-06
-5.82355e-07
-4.51676e-06
-5.88096e-07
-4.21833e-06
-5.95652e-07
-3.91639e-06
-6.03809e-07
-3.61195e-06
-6.10426e-07
-3.30567e-06
-6.15452e-07
-2.99756e-06
-6.17864e-07
-2.68841e-06
-6.17314e-07
-2.37832e-06
-6.19405e-07
-2.06922e-06
-6.18718e-07
-1.76255e-06
-6.1549e-07
-1.45736e-06
-6.13369e-07
-1.15342e-06
-6.08736e-07
-8.52176e-07
-6.01532e-07
-5.55618e-07
-5.93026e-07
-2.6519e-07
-5.82247e-07
2.03594e-08
-5.7247e-07
3.01226e-07
-5.60488e-07
5.76014e-07
-5.47555e-07
8.43747e-07
-5.34278e-07
1.1048e-06
-5.21697e-07
1.35937e-06
-5.08834e-07
1.60724e-06
-4.94613e-07
1.8484e-06
-4.80386e-07
2.08209e-06
-4.65932e-07
2.30871e-06
-4.52747e-07
2.52875e-06
-4.39688e-07
2.742e-06
-4.25343e-07
2.94804e-06
-4.10745e-07
3.14658e-06
-3.96245e-07
3.33766e-06
-3.8193e-07
3.52164e-06
-3.67685e-07
3.6986e-06
-3.53011e-07
3.86843e-06
-3.38421e-07
4.03089e-06
-3.2414e-07
4.1859e-06
-3.09819e-07
4.33343e-06
-2.94977e-07
4.47384e-06
-2.80264e-07
4.60728e-06
-2.66189e-07
4.73371e-06
-2.52547e-07
4.853e-06
-2.3861e-07
4.96514e-06
-2.24337e-07
5.07033e-06
-2.10175e-07
5.16877e-06
-1.96349e-07
5.26054e-06
-1.83094e-07
5.34576e-06
-1.70336e-07
5.42455e-06
-1.57769e-07
5.49704e-06
-1.45244e-07
5.56341e-06
-1.32877e-07
5.62376e-06
-1.20657e-07
5.67818e-06
-1.08828e-07
5.72683e-06
-9.75474e-08
5.76994e-06
-8.66557e-08
5.80768e-06
-7.59512e-08
5.84018e-06
-6.5362e-08
5.86765e-06
-5.49288e-08
5.89029e-06
-4.52417e-08
5.90828e-06
-3.6174e-08
5.92175e-06
-2.73603e-08
5.93082e-06
-1.85637e-08
5.93572e-06
-9.99731e-09
5.93666e-06
-1.95717e-09
5.9338e-06
5.49941e-09
5.92729e-06
1.25976e-08
5.9173e-06
1.96065e-08
5.90404e-06
2.63683e-08
5.88761e-06
3.26919e-08
5.86817e-06
3.85093e-08
5.84594e-06
4.40558e-08
5.8211e-06
4.94762e-08
5.79379e-06
5.45282e-08
5.76407e-06
5.91673e-08
5.732e-06
6.36842e-08
5.69785e-06
6.78378e-08
5.66189e-06
7.16496e-08
5.62412e-06
7.5318e-08
5.58463e-06
7.87044e-08
5.54353e-06
8.18067e-08
5.50096e-06
8.47172e-08
5.45709e-06
8.74269e-08
5.41201e-06
9.00042e-08
5.3658e-06
9.23616e-08
5.31855e-06
9.44698e-08
5.27041e-06
9.6169e-08
5.22146e-06
9.77157e-08
5.17175e-06
9.92675e-08
5.12129e-06
1.00668e-07
5.0702e-06
1.01835e-07
5.01858e-06
1.02896e-07
4.96658e-06
1.03766e-07
4.91426e-06
1.04611e-07
4.86159e-06
1.05317e-07
4.80863e-06
1.05812e-07
4.7555e-06
1.06073e-07
4.70229e-06
1.06263e-07
4.64899e-06
1.06484e-07
4.59557e-06
1.0671e-07
4.5422e-06
1.06715e-07
4.48892e-06
1.06563e-07
4.43569e-06
1.06369e-07
4.38257e-06
1.06003e-07
4.32961e-06
1.05784e-07
4.27689e-06
1.05586e-07
4.22432e-06
1.05119e-07
4.17195e-06
1.04491e-07
4.1197e-06
1.04335e-07
4.06778e-06
1.03806e-07
4.01611e-06
1.03196e-07
3.9648e-06
1.02654e-07
3.91371e-06
1.02279e-07
3.86292e-06
1.01706e-07
3.8123e-06
1.01127e-07
3.76218e-06
1.00167e-07
3.7123e-06
9.94812e-08
3.66298e-06
9.85518e-08
3.61393e-06
9.797e-08
3.56561e-06
9.67225e-08
3.51731e-06
9.63381e-08
3.4698e-06
9.47773e-08
3.42264e-06
9.3756e-08
3.37628e-06
9.22923e-08
3.33137e-06
9.03784e-08
3.28682e-06
8.96092e-08
3.24361e-06
8.77622e-08
3.19921e-06
8.8632e-08
3.15587e-06
8.67294e-08
3.11099e-06
8.77789e-08
3.0667e-06
8.7803e-08
3.02652e-06
8.2773e-08
2.98761e-06
8.25808e-08
2.94545e-06
8.6058e-08
2.90541e-06
7.9874e-08
2.84979e-06
9.57527e-08
2.79329e-06
9.91136e-08
2.7666e-06
6.47328e-08
2.74178e-06
7.68957e-08
2.72886e-06
6.75353e-08
2.72092e-06
3.57071e-08
2.75752e-06
3.61269e-09
2.79362e-06
-7.55822e-09
2.78464e-06
1.62393e-08
2.75371e-06
8.88754e-10
2.71122e-06
9.0634e-09
2.68339e-06
3.20105e-08
2.65136e-06
3.92695e-08
2.62268e-06
4.82606e-08
2.59188e-06
5.33782e-08
2.56028e-06
5.93049e-08
2.52715e-06
6.17711e-08
2.49475e-06
6.34811e-08
2.45874e-06
6.7795e-08
2.42319e-06
7.00161e-08
2.39153e-06
6.56746e-08
2.35982e-06
6.85006e-08
2.32277e-06
7.4519e-08
2.28509e-06
7.17563e-08
2.2481e-06
7.24891e-08
2.21158e-06
7.58013e-08
2.16786e-06
8.21092e-08
2.12535e-06
8.26677e-08
2.08297e-06
8.40449e-08
2.04366e-06
8.18927e-08
1.99919e-06
8.75971e-08
1.95939e-06
7.97866e-08
1.90928e-06
9.23897e-08
1.86614e-06
8.14866e-08
1.82694e-06
8.06916e-08
1.79513e-06
6.9234e-08
1.76413e-06
7.59057e-08
1.73173e-06
7.61673e-08
1.70353e-06
6.46005e-08
1.61365e-06
1.31721e-07
1.53378e-06
1.20947e-07
1.5133e-06
5.15574e-08
1.48295e-06
1.17779e-07
1.56678e-06
-9.77304e-09
1.62556e-06
-4.06767e-08
2.02531e-06
-3.18644e-07
2.39003e-06
-3.91562e-07
2.60471e-06
-2.46764e-07
2.66124e-06
-3.86616e-07
2.59967e-06
-3.45837e-07
2.6092e-06
-2.2879e-07
2.62466e-06
-1.52693e-07
2.63808e-06
-1.03132e-07
2.64766e-06
-6.32988e-08
2.65117e-06
-3.38316e-08
2.64813e-06
-1.05508e-08
2.63999e-06
6.9907e-09
2.62623e-06
2.0686e-08
2.60799e-06
3.19088e-08
2.5859e-06
4.1159e-08
2.56058e-06
4.86968e-08
2.53245e-06
5.49676e-08
2.50183e-06
6.04018e-08
2.46904e-06
6.51623e-08
2.43442e-06
6.92593e-08
2.39826e-06
7.2715e-08
2.36078e-06
7.56118e-08
2.32203e-06
7.81903e-08
2.28211e-06
8.04975e-08
2.2411e-06
8.26519e-08
2.19904e-06
8.46906e-08
2.15603e-06
8.65153e-08
2.11226e-06
8.80753e-08
2.06789e-06
8.93205e-08
2.02265e-06
9.04876e-08
1.97718e-06
9.12976e-08
1.93139e-06
9.20181e-08
1.88517e-06
9.27098e-08
1.83857e-06
9.32594e-08
1.79183e-06
9.34132e-08
1.74503e-06
9.33963e-08
1.69813e-06
9.33843e-08
1.65107e-06
9.34505e-08
1.60384e-06
9.35842e-08
1.55654e-06
9.3656e-08
1.50934e-06
9.37068e-08
1.46229e-06
9.38452e-08
1.41484e-06
9.42805e-08
1.36723e-06
9.46419e-08
1.31947e-06
9.50507e-08
1.27151e-06
9.55472e-08
1.22332e-06
9.61075e-08
1.17494e-06
9.66505e-08
1.12643e-06
9.70841e-08
1.07785e-06
9.73453e-08
1.02928e-06
9.74303e-08
9.8072e-07
9.73707e-08
9.322e-07
9.7195e-08
8.83748e-07
9.69133e-08
8.35407e-07
9.65665e-08
7.87168e-07
9.62792e-08
7.38968e-07
9.62156e-08
6.90658e-07
9.65413e-08
6.42153e-07
9.71075e-08
5.93527e-07
9.74823e-08
5.44983e-07
9.7317e-08
4.96568e-07
9.67555e-08
4.48056e-07
9.6467e-08
3.99294e-07
9.69353e-08
3.49887e-07
9.82555e-08
3.00443e-07
9.90577e-08
2.51738e-07
9.85258e-08
2.03387e-07
9.74407e-08
1.54667e-07
9.72195e-08
1.05299e-07
9.81408e-08
5.58918e-08
9.89203e-08
7.2644e-09
9.83575e-08
-4.08188e-08
9.67772e-08
-8.93884e-08
9.64244e-08
-1.38406e-07
9.70666e-08
-1.87092e-07
9.71882e-08
-2.35166e-07
9.60372e-08
-2.83576e-07
9.56256e-08
-3.32945e-07
9.68312e-08
-3.82252e-07
9.80784e-08
-4.31154e-07
9.82904e-08
-4.79541e-07
9.77757e-08
-5.27257e-07
9.82522e-08
-5.74869e-07
1.01438e-07
1.07026e-07
6.8064e-05
-3.42308e-06
6.91619e-05
-3.27322e-06
7.01594e-05
-2.80224e-06
7.11383e-05
-2.6991e-06
7.21227e-05
-2.55369e-06
7.32118e-05
-2.1252e-06
7.44212e-05
-1.8969e-06
7.57736e-05
-2.24948e-06
7.74086e-05
-3.76272e-06
7.95788e-05
-8.85751e-06
8.11791e-05
-1.43695e-05
8.21176e-05
-1.71918e-05
8.21801e-05
-1.78648e-05
8.14214e-05
-1.72457e-05
7.95251e-05
-1.36578e-05
7.79719e-05
-8.63691e-06
7.86784e-05
-3.83948e-06
8.09886e-05
3.86944e-07
8.44501e-05
3.46575e-06
8.82251e-05
4.91673e-06
9.17209e-05
4.9972e-06
9.43282e-05
4.2239e-06
9.57578e-05
3.3658e-06
9.65972e-05
2.57343e-06
9.72529e-05
1.7614e-06
9.79041e-05
1.11997e-06
9.84099e-05
7.05884e-07
9.85751e-05
4.10167e-07
9.85411e-05
3.75963e-08
9.8654e-05
-3.74623e-07
9.89126e-05
-5.67159e-07
9.93581e-05
-5.60376e-07
9.97621e-05
-2.53744e-07
9.99292e-05
1.27119e-08
9.99016e-05
3.41522e-08
9.99309e-05
-1.52364e-07
0.000100149
-3.40839e-07
0.000100445
-4.09967e-07
0.000100779
-6.32245e-07
0.000101024
-8.78995e-07
0.000101256
-9.3159e-07
0.000101546
-8.0935e-07
0.000101921
-4.11884e-07
0.000102248
-2.47696e-07
0.000102516
-3.64869e-07
0.000102715
-7.38947e-07
0.000102882
-8.15661e-07
0.000103048
-6.82366e-07
0.000103141
-1.55004e-07
0.000103146
6.10808e-08
0.000103076
-2.71424e-09
0.000102985
-2.31609e-07
0.000102907
-2.54454e-07
0.000102877
-2.72397e-07
0.000102934
-4.01087e-07
0.000102987
-4.4997e-07
0.000103016
-3.86246e-07
0.000102929
2.22536e-08
0.000102969
5.132e-07
0.000103076
6.52231e-07
0.000103119
6.6153e-07
0.000102964
7.02812e-07
0.00010257
1.02146e-06
0.000102059
1.61677e-06
0.000101613
1.7565e-06
0.000101136
1.45835e-06
0.000100657
7.62524e-07
0.000100126
6.16412e-07
9.94839e-05
9.02646e-07
9.8789e-05
1.55397e-06
9.80661e-05
2.07371e-06
9.71271e-05
2.38727e-06
9.59037e-05
2.63037e-06
9.469e-05
2.83567e-06
9.37391e-05
2.97935e-06
9.34595e-05
3.37124e-06
9.36339e-05
4.4203e-06
9.50901e-05
5.75761e-06
9.98363e-05
8.14239e-06
0.000103756
9.56611e-06
0.000107218
1.35309e-05
0.000103045
1.88746e-05
9.25875e-05
1.98402e-05
7.86879e-05
2.14776e-05
6.59176e-05
1.56761e-05
6.03536e-05
9.47607e-06
5.52531e-05
8.67816e-06
5.14525e-05
4.53835e-06
4.93626e-05
9.40904e-07
4.73473e-05
2.40693e-06
4.65527e-05
1.12084e-06
4.72412e-05
-6.92204e-07
4.66493e-05
9.80454e-07
4.61121e-05
1.03372e-06
4.5926e-05
9.18704e-07
4.56256e-05
1.56089e-06