/*--------------------------------*- C++ -*----------------------------------*\
| =========                 |                                                 |
| \\      /  F ield         | OpenFOAM: The Open Source CFD Toolbox           |
|  \\    /   O peration     | Version:  v2006                                 |
|   \\  /    A nd           | Website:  www.openfoam.com                      |
|    \\/     M anipulation  |                                                 |
\*---------------------------------------------------------------------------*/
FoamFile
{
    version     2.0;
    format      ascii;
    class       surfaceScalarField;
    location    "8.5";
    object      alphaPhi0.water;
}
// * * * * * * * * * * * * * * * * * * * * * * * * * * * * * * * * * * * * * //

dimensions      [0 3 -1 0 0 0 0];
oriented        oriented;


internalField   nonuniform List<scalar> 
65390
(
1.556e-05
9.09056e-06
1.01832e-05
5.37705e-06
8.01028e-06
2.17302e-06
1.09189e-05
-2.90853e-06
1.697e-05
-6.05091e-06
2.37973e-05
-6.8272e-06
3.02781e-05
-6.48092e-06
3.5611e-05
-5.33348e-06
3.95505e-05
-3.94164e-06
4.25674e-05
-3.02146e-06
4.55725e-05
-3.00148e-06
4.90083e-05
-3.4279e-06
5.21632e-05
-3.15087e-06
5.43411e-05
-2.1768e-06
5.47316e-05
-3.90167e-07
5.25904e-05
2.14142e-06
4.69376e-05
5.65298e-06
3.83005e-05
8.63726e-06
2.96491e-05
8.65159e-06
2.35018e-05
6.14752e-06
2.02768e-05
3.22512e-06
1.88879e-05
1.38894e-06
1.89761e-05
-8.81948e-08
1.99118e-05
-9.35724e-07
2.09955e-05
-1.08363e-06
2.17549e-05
-7.59447e-07
2.1693e-05
6.18383e-08
2.03751e-05
1.31795e-06
1.77641e-05
2.61103e-06
1.38494e-05
3.91465e-06
8.41804e-06
5.4314e-06
1.85423e-06
6.56382e-06
-4.93459e-06
6.78885e-06
-1.16626e-05
6.72808e-06
-1.75683e-05
5.90569e-06
-2.18607e-05
4.29296e-06
-2.57057e-05
3.85025e-06
-2.98384e-05
4.13967e-06
-3.31484e-05
3.29365e-06
-3.50494e-05
1.90046e-06
-3.6416e-05
1.36634e-06
-3.80022e-05
1.58725e-06
-4.00617e-05
2.06656e-06
-4.26349e-05
2.58269e-06
-4.52449e-05
2.59491e-06
-4.70153e-05
1.76544e-06
-4.80872e-05
1.07188e-06
-4.89944e-05
9.07289e-07
-5.01511e-05
1.1613e-06
-5.17974e-05
1.66338e-06
-5.38579e-05
2.06066e-06
-5.56876e-05
1.80731e-06
-5.68653e-05
1.17558e-06
-5.75486e-05
6.83171e-07
-5.78355e-05
2.86793e-07
-5.79014e-05
6.58242e-08
-5.77985e-05
-1.03044e-07
-5.76197e-05
-1.789e-07
-5.75044e-05
-1.1548e-07
-5.77477e-05
2.43151e-07
-5.85561e-05
8.10937e-07
-5.96718e-05
1.12603e-06
-6.08216e-05
1.15556e-06
-6.18622e-05
1.03845e-06
-6.27527e-05
8.73478e-07
-6.35069e-05
7.5349e-07
-6.41245e-05
6.17268e-07
-6.4422e-05
2.96509e-07
-6.4094e-05
-3.28508e-07
-6.30241e-05
-1.07009e-06
-6.13247e-05
-1.69955e-06
-5.90251e-05
-2.29972e-06
-5.61128e-05
-2.91204e-06
-5.25809e-05
-3.53029e-06
-4.82948e-05
-4.28276e-06
-4.33573e-05
-4.92902e-06
-3.77823e-05
-5.5623e-06
-3.08565e-05
-6.9278e-06
-2.51901e-05
-5.66767e-06
-2.23976e-05
-2.79525e-06
-2.122e-05
-1.17685e-06
-2.22565e-05
1.03648e-06
-2.33246e-05
1.06817e-06
-2.44326e-05
1.10798e-06
-2.61069e-05
1.66281e-06
-2.69467e-05
8.38579e-07
-2.74081e-05
4.61276e-07
-2.78279e-05
4.19744e-07
-2.82767e-05
4.48703e-07
-2.85393e-05
2.62575e-07
-2.8578e-05
3.86418e-08
-2.86003e-05
2.23917e-08
-2.83893e-05
-2.09122e-07
-2.79902e-05
-3.91385e-07
-2.73768e-05
-6.1421e-07
-2.63715e-05
-1.00762e-06
-2.45425e-05
-1.8345e-06
-2.21489e-05
-2.39398e-06
-1.92711e-05
-2.87789e-06
-1.74705e-05
-1.80067e-06
-1.70592e-05
-4.09495e-07
-1.70263e-05
-3.02283e-08
-1.74275e-05
4.01273e-07
-1.7736e-05
3.08471e-07
-1.82996e-05
5.63648e-07
-1.86532e-05
3.53597e-07
-1.87024e-05
4.50235e-08
-1.87176e-05
1.40211e-08
-1.87328e-05
1.50926e-08
-1.87978e-05
6.49789e-08
-1.88075e-05
1.19743e-08
-1.88228e-05
1.86596e-08
-1.87137e-05
-1.09083e-07
-1.83928e-05
-3.24818e-07
-1.77126e-05
-6.81075e-07
-1.66975e-05
-1.01591e-06
-1.52174e-05
-1.47865e-06
-1.4233e-05
-9.83501e-07
-1.40353e-05
-1.97765e-07
-1.40944e-05
5.81344e-08
-1.43155e-05
2.1994e-07
-1.444e-05
1.24621e-07
-1.47574e-05
3.18023e-07
-1.50011e-05
2.46465e-07
-1.50959e-05
9.48697e-08
-1.52226e-05
1.23567e-07
-1.53284e-05
1.05176e-07
-1.54166e-05
8.81667e-08
-1.55231e-05
1.06442e-07
-1.56088e-05
8.56943e-08
-1.56726e-05
6.51526e-08
-1.57387e-05
6.69582e-08
-1.57917e-05
5.23328e-08
-1.58287e-05
3.53199e-08
-1.5855e-05
2.63556e-08
-1.58814e-05
2.63674e-08
-1.59066e-05
2.51438e-08
-1.5924e-05
1.74987e-08
-1.59359e-05
1.19089e-08
-1.59358e-05
-8.47742e-11
-1.59267e-05
-8.45317e-09
-1.59131e-05
-1.10191e-08
-1.58982e-05
-1.49057e-08
-1.58739e-05
-2.43067e-08
-1.58409e-05
-3.57132e-08
-1.57897e-05
-5.12058e-08
-1.57254e-05
-6.42393e-08
-1.56547e-05
-7.071e-08
-1.55797e-05
-7.29819e-08
-1.55001e-05
-7.65303e-08
-1.54157e-05
-8.98288e-08
-1.53039e-05
-1.11803e-07
-1.51812e-05
-1.22718e-07
-1.50537e-05
-1.26975e-07
-1.49203e-05
-1.31885e-07
-1.47799e-05
-1.40479e-07
-1.46276e-05
-1.52272e-07
-1.44667e-05
-1.63193e-07
-1.42931e-05
-1.73752e-07
-1.41117e-05
-1.81494e-07
-1.39226e-05
-1.89084e-07
-1.37249e-05
-1.97405e-07
-1.352e-05
-2.04531e-07
-1.33053e-05
-2.1507e-07
-1.30772e-05
-2.28148e-07
-1.28414e-05
-2.35675e-07
-1.26047e-05
-2.36656e-07
-1.23636e-05
-2.41684e-07
-1.21057e-05
-2.57846e-07
-1.18332e-05
-2.72562e-07
-1.15542e-05
-2.78927e-07
-1.12756e-05
-2.77983e-07
-1.09944e-05
-2.80815e-07
-1.06985e-05
-2.9706e-07
-1.03816e-05
-3.16946e-07
-1.00511e-05
-3.30489e-07
-9.70978e-06
-3.40584e-07
-9.36584e-06
-3.43062e-07
-9.02677e-06
-3.39022e-07
-8.68112e-06
-3.46674e-07
-8.31762e-06
-3.63847e-07
-7.93748e-06
-3.80204e-07
-7.53286e-06
-4.04684e-07
-7.11136e-06
-4.20932e-07
-6.68205e-06
-4.29281e-07
-6.24781e-06
-4.34267e-07
-5.81654e-06
-4.31603e-07
-5.37307e-06
-4.4364e-07
-4.90559e-06
-4.67471e-07
-4.41891e-06
-4.86638e-07
-3.92599e-06
-4.92484e-07
-3.43996e-06
-4.85997e-07
-2.95595e-06
-4.84044e-07
-2.46914e-06
-4.8694e-07
-1.97286e-06
-4.96376e-07
-1.46769e-06
-5.05163e-07
-9.62795e-07
-5.049e-07
-4.72436e-07
-4.90349e-07
-1.34364e-08
-4.5896e-07
4.17222e-07
-4.30662e-07
8.31998e-07
-4.14764e-07
1.24179e-06
-4.09701e-07
1.64598e-06
-4.04136e-07
2.03487e-06
-3.88886e-07
2.40329e-06
-3.68424e-07
2.75169e-06
-3.48523e-07
3.0866e-06
-3.34915e-07
3.41565e-06
-3.28916e-07
3.73611e-06
-3.20464e-07
4.03912e-06
-3.03009e-07
4.31849e-06
-2.79663e-07
4.5907e-06
-2.72011e-07
4.86229e-06
-2.71441e-07
5.12667e-06
-2.64394e-07
5.38144e-06
-2.54791e-07
5.6236e-06
-2.42316e-07
5.84645e-06
-2.23318e-07
6.05501e-06
-2.08567e-07
6.25711e-06
-2.01763e-07
6.45723e-06
-1.99814e-07
6.65227e-06
-1.94991e-07
6.83927e-06
-1.8701e-07
7.01632e-06
-1.77106e-07
7.17793e-06
-1.62117e-07
7.32802e-06
-1.50051e-07
7.47134e-06
-1.42949e-07
7.61039e-06
-1.3869e-07
7.74547e-06
-1.35046e-07
7.87473e-06
-1.29259e-07
7.99626e-06
-1.21575e-07
8.10517e-06
-1.09413e-07
8.20466e-06
-9.9494e-08
8.29924e-06
-9.43943e-08
8.39088e-06
-9.14706e-08
8.47951e-06
-8.85528e-08
8.56312e-06
-8.37981e-08
8.64056e-06
-7.74393e-08
8.71192e-06
-7.13571e-08
8.77836e-06
-6.61919e-08
8.83945e-06
-6.10836e-08
8.89471e-06
-5.52701e-08
8.94517e-06
-5.08071e-08
8.99398e-06
-4.85667e-08
9.04237e-06
-4.8085e-08
9.08862e-06
-4.61923e-08
9.13218e-06
-4.357e-08
9.17146e-06
-3.92858e-08
9.20221e-06
-3.18287e-08
9.23303e-06
-3.00592e-08
9.2656e-06
-3.21602e-08
9.29754e-06
-3.18753e-08
9.32739e-06
-2.98586e-08
9.35466e-06
-2.73162e-08
9.37733e-06
-2.30272e-08
9.39808e-06
-2.07358e-08
9.41878e-06
-2.04305e-08
9.43923e-06
-2.02328e-08
9.45863e-06
-1.93996e-08
9.47575e-06
-1.71256e-08
9.49056e-06
-1.50317e-08
9.50347e-06
-1.30218e-08
9.51513e-06
-1.16587e-08
9.52647e-06
-1.118e-08
9.53703e-06
-1.0504e-08
9.54539e-06
-8.37955e-09
9.54915e-06
-3.85339e-09
9.54839e-06
4.00935e-10
9.54726e-06
1.30563e-09
9.54638e-06
9.79461e-10
9.54378e-06
2.57164e-09
9.53861e-06
5.14107e-09
9.53082e-06
7.74868e-09
9.51967e-06
1.10774e-08
9.50329e-06
1.60247e-08
9.48361e-06
1.97114e-08
9.46211e-06
2.17264e-08
9.43883e-06
2.33976e-08
9.4129e-06
2.59537e-08
9.3838e-06
2.91225e-08
9.35188e-06
3.19642e-08
9.3169e-06
3.5032e-08
9.27661e-06
4.02757e-08
9.23102e-06
4.5619e-08
9.18331e-06
4.7916e-08
9.1338e-06
4.96499e-08
9.08092e-06
5.29512e-08
9.02418e-06
5.67918e-08
8.96406e-06
6.01611e-08
8.90005e-06
6.40012e-08
8.83112e-06
6.88748e-08
8.75832e-06
7.28027e-08
8.68283e-06
7.56743e-08
8.60445e-06
7.84942e-08
8.5226e-06
8.18888e-08
8.43752e-06
8.51161e-08
8.34855e-06
8.89361e-08
8.25505e-06
9.34642e-08
8.15807e-06
9.71175e-08
8.05792e-06
1.00289e-07
7.95472e-06
1.03297e-07
7.84881e-06
1.05991e-07
7.73954e-06
1.09319e-07
7.62594e-06
1.13665e-07
7.50883e-06
1.17189e-07
7.38897e-06
1.20013e-07
7.26669e-06
1.22333e-07
7.14148e-06
1.25267e-07
7.01296e-06
1.28562e-07
6.88149e-06
1.31546e-07
6.7476e-06
1.33923e-07
6.61168e-06
1.35908e-07
6.47333e-06
1.38322e-07
6.33164e-06
1.41619e-07
6.18682e-06
1.44754e-07
6.04008e-06
1.46683e-07
5.89189e-06
1.48124e-07
5.74177e-06
1.50029e-07
5.58957e-06
1.52123e-07
5.43524e-06
1.54251e-07
5.27889e-06
1.56303e-07
5.12063e-06
1.58237e-07
4.96058e-06
1.60048e-07
4.79869e-06
1.6191e-07
4.6347e-06
1.64029e-07
4.46901e-06
1.65743e-07
4.30221e-06
1.66858e-07
4.13397e-06
1.68273e-07
3.96397e-06
1.70006e-07
3.79257e-06
1.71383e-07
3.62059e-06
1.71959e-07
3.44861e-06
1.71959e-07
3.27659e-06
1.72003e-07
3.10415e-06
1.72422e-07
2.93086e-06
1.73267e-07
2.75757e-06
1.73298e-07
2.58577e-06
1.71824e-07
2.41609e-06
1.69703e-07
2.24806e-06
1.68056e-07
2.08187e-06
1.66227e-07
1.9177e-06
1.64192e-07
1.75585e-06
1.61878e-07
1.59666e-06
1.59205e-07
1.44046e-06
1.5621e-07
1.28739e-06
1.53069e-07
1.13755e-06
1.49829e-07
9.91229e-07
1.4629e-07
8.48557e-07
1.4264e-07
7.09654e-07
1.38866e-07
5.74552e-07
1.35068e-07
4.43195e-07
1.31326e-07
3.15543e-07
1.27631e-07
1.91694e-07
1.23838e-07
7.18101e-08
1.19883e-07
-4.40813e-08
1.159e-07
-1.56178e-07
1.12113e-07
-2.64672e-07
1.08515e-07
-3.69694e-07
1.05047e-07
-4.71351e-07
1.01682e-07
-5.69558e-07
9.82317e-08
-6.64362e-07
9.48254e-08
-7.55925e-07
9.15815e-08
-8.44352e-07
8.84423e-08
-9.29711e-07
8.53706e-08
-1.01224e-06
8.25408e-08
-1.09218e-06
7.99457e-08
-1.16949e-06
7.73136e-08
-1.24399e-06
7.45037e-08
-1.31543e-06
7.14411e-08
-1.38402e-06
6.85864e-08
-1.45023e-06
6.62143e-08
-1.51432e-06
6.40861e-08
-1.57587e-06
6.15404e-08
-1.63461e-06
5.87342e-08
-1.69072e-06
5.60984e-08
-1.74452e-06
5.37853e-08
-1.79617e-06
5.16386e-08
-1.84571e-06
4.95249e-08
-1.89319e-06
4.74768e-08
-1.93885e-06
4.56537e-08
-1.98263e-06
4.3782e-08
-2.02419e-06
4.15532e-08
-2.06325e-06
3.90584e-08
-2.10042e-06
3.71707e-08
-2.13592e-06
3.55074e-08
-2.16973e-06
3.38197e-08
-2.20184e-06
3.21233e-08
-2.23225e-06
3.04111e-08
-2.26084e-06
2.86038e-08
-2.28762e-06
2.68003e-08
-2.31291e-06
2.53027e-08
-2.33682e-06
2.39166e-08
-2.35918e-06
2.23737e-08
-2.37973e-06
2.05499e-08
-2.39864e-06
1.89167e-08
-2.41609e-06
1.74447e-08
-2.43211e-06
1.60211e-08
-2.44672e-06
1.46096e-08
-2.4603e-06
1.3585e-08
-2.47282e-06
1.24973e-08
-2.48399e-06
1.11567e-08
-2.49385e-06
9.85606e-09
-2.50237e-06
8.51043e-09
-2.50987e-06
7.49158e-09
-2.5165e-06
6.62445e-09
-2.52321e-06
6.70354e-09
-2.52953e-06
6.3155e-09
-2.53575e-06
6.20097e-09
-2.54027e-06
4.51394e-09
-2.54519e-06
4.91502e-09
-2.54964e-06
4.43944e-09
-2.55402e-06
4.37905e-09
-2.55757e-06
3.54954e-09
-2.56e-06
2.41921e-09
-2.56298e-06
2.97479e-09
-2.56408e-06
1.09172e-09
-2.56402e-06
-6.98412e-11
-2.56359e-06
-4.3049e-10
-2.55743e-06
-6.17268e-09
-2.55324e-06
-4.19503e-09
-2.55825e-06
4.99783e-09
-2.5558e-06
-2.45335e-09
-2.55515e-06
-6.66623e-10
-2.55493e-06
-2.2599e-10
-2.50882e-06
-4.61141e-08
-2.47673e-06
-3.2104e-08
-2.50425e-06
2.75191e-08
-2.48716e-06
-1.70905e-08
-2.54763e-06
6.04647e-08
-2.70388e-06
1.56252e-07
-2.98481e-06
2.80938e-07
-3.2345e-06
2.49691e-07
-3.35565e-06
1.21152e-07
-3.47186e-06
1.16206e-07
-3.54426e-06
7.24053e-08
-3.61167e-06
6.74082e-08
-3.66431e-06
5.26367e-08
-3.71281e-06
4.85036e-08
-3.75478e-06
4.1969e-08
-3.79349e-06
3.8697e-08
-3.81686e-06
2.33671e-08
-3.85128e-06
3.44247e-08
-3.8685e-06
1.72154e-08
-3.89249e-06
2.39982e-08
-3.96933e-06
7.68612e-08
-3.98724e-06
1.78935e-08
-3.97881e-06
-8.43431e-09
-3.98555e-06
6.73913e-09
-3.94152e-06
-4.40136e-08
-3.7699e-06
-1.71614e-07
-3.54499e-06
-2.24898e-07
-3.38108e-06
-1.63896e-07
-3.27458e-06
-1.06475e-07
-3.19697e-06
-7.76e-08
-3.15213e-06
-4.48147e-08
-3.11585e-06
-3.62606e-08
-3.09736e-06
-1.84669e-08
-3.08132e-06
-1.60209e-08
-3.05494e-06
-2.63575e-08
-3.0571e-06
2.18808e-09
-3.04099e-06
-1.60807e-08
-3.02172e-06
-1.92424e-08
-3.06113e-06
3.94402e-08
-2.95159e-06
-1.09513e-07
-2.81328e-06
-1.38286e-07
-2.96476e-06
1.51488e-07
-2.85501e-06
-1.09767e-07
-3.11432e-06
2.59239e-07
-3.26827e-06
1.53739e-07
-4.42002e-06
1.15143e-06
-5.66765e-06
1.24705e-06
-5.98361e-06
3.14935e-07
-6.05602e-06
7.14658e-08
-5.93028e-06
-1.26579e-07
-5.78034e-06
-1.50707e-07
-5.65411e-06
-1.26821e-07
-5.57984e-06
-7.48939e-08
-5.53967e-06
-4.06956e-08
-5.5144e-06
-2.58307e-08
-5.49203e-06
-2.28925e-08
-5.4795e-06
-1.29619e-08
-5.47505e-06
-4.8088e-09
-5.46999e-06
-5.37863e-09
-5.46275e-06
-7.52114e-09
-5.4481e-06
-1.4985e-08
-5.42737e-06
-2.10308e-08
-5.40713e-06
-2.04794e-08
-5.38774e-06
-1.95887e-08
-5.36114e-06
-2.6797e-08
-5.3265e-06
-3.48184e-08
-5.28898e-06
-3.77074e-08
-5.24964e-06
-3.95063e-08
-5.20272e-06
-4.70855e-08
-5.14543e-06
-5.74709e-08
-5.08232e-06
-6.32619e-08
-5.02012e-06
-6.23462e-08
-4.95648e-06
-6.37918e-08
-4.88911e-06
-6.75104e-08
-4.81458e-06
-7.46914e-08
-4.73358e-06
-8.11692e-08
-4.64796e-06
-8.57756e-08
-4.55561e-06
-9.25134e-08
-4.45782e-06
-9.79569e-08
-4.3586e-06
-9.93775e-08
-4.25964e-06
-9.91081e-08
-4.15816e-06
-1.01646e-07
-4.04931e-06
-1.09002e-07
-3.93096e-06
-1.18531e-07
-3.80306e-06
-1.28078e-07
-3.66955e-06
-1.33701e-07
-3.53128e-06
-1.38443e-07
-3.39162e-06
-1.39854e-07
-3.24907e-06
-1.42739e-07
-3.10129e-06
-1.47973e-07
-2.95028e-06
-1.51209e-07
-2.79658e-06
-1.53919e-07
-2.63806e-06
-1.58746e-07
-2.47369e-06
-1.64595e-07
-2.30536e-06
-1.6857e-07
-2.13545e-06
-1.70167e-07
-1.96546e-06
-1.70247e-07
-1.79553e-06
-1.70209e-07
-1.62433e-06
-1.71487e-07
-1.45039e-06
-1.74244e-07
-1.27259e-06
-1.78116e-07
-1.09064e-06
-1.82283e-07
-9.04816e-07
-1.86161e-07
-7.15675e-07
-1.8949e-07
-5.23809e-07
-1.92227e-07
-3.29639e-07
-1.94544e-07
-1.33425e-07
-1.96601e-07
6.48428e-08
-1.9867e-07
2.65857e-07
-2.01432e-07
4.6943e-07
-2.04007e-07
6.75667e-07
-2.06689e-07
8.82893e-07
-2.07694e-07
1.0916e-06
-2.09195e-07
1.30084e-06
-2.09747e-07
1.51311e-06
-2.1279e-07
1.72743e-06
-2.14862e-07
1.94285e-06
-2.1598e-07
2.15878e-06
-2.16512e-07
2.37615e-06
-2.1796e-07
2.59469e-06
-2.1912e-07
2.81327e-06
-2.19168e-07
3.03439e-06
-2.217e-07
3.25886e-06
-2.25046e-07
3.49277e-06
-2.34474e-07
3.73588e-06
-2.43644e-07
3.98425e-06
-2.48842e-07
-2.85719e-07
1.98153e-05
1.39689e-05
1.77432e-05
7.44925e-06
1.86907e-05
1.22573e-06
2.12352e-05
-5.45303e-06
2.42967e-05
-9.11253e-06
2.73182e-05
-9.84899e-06
3.05699e-05
-9.7343e-06
3.38706e-05
-8.64094e-06
3.66065e-05
-6.69086e-06
3.91473e-05
-5.56214e-06
4.17333e-05
-5.57358e-06
4.42715e-05
-5.9516e-06
4.64165e-05
-5.29192e-06
4.719e-05
-2.95024e-06
4.58378e-05
9.6187e-07
4.19639e-05
6.01518e-06
3.71202e-05
1.04965e-05
3.24277e-05
1.33297e-05
2.76389e-05
1.34404e-05
2.34361e-05
1.03503e-05
2.03775e-05
6.28385e-06
1.86268e-05
3.13966e-06
1.8237e-05
3.01684e-07
1.82613e-05
-9.5986e-07
1.81186e-05
-9.40821e-07
1.76307e-05
-2.71337e-07
1.62336e-05
1.45909e-06
1.35701e-05
3.98152e-06
9.743e-06
6.4382e-06
5.4518e-06
8.20592e-06
1.0874e-06
9.7958e-06
-3.75887e-06
1.141e-05
-9.08123e-06
1.21111e-05
-1.39247e-05
1.15714e-05
-1.78381e-05
9.81876e-06
-2.19485e-05
8.40438e-06
-2.6168e-05
8.07743e-06
-2.98347e-05
7.82265e-06
-3.27801e-05
6.21355e-06
-3.48889e-05
4.00072e-06
-3.67719e-05
3.24863e-06
-3.86032e-05
3.42186e-06
-4.0468e-05
3.94232e-06
-4.24045e-05
4.53323e-06
-4.43149e-05
4.50167e-06
-4.61847e-05
3.60422e-06
-4.76568e-05
2.54211e-06
-4.89051e-05
2.15609e-06
-5.01738e-05
2.4407e-06
-5.15307e-05
3.03194e-06
-5.30101e-05
3.5403e-06
-5.4635e-05
3.41254e-06
-5.61027e-05
2.63426e-06
-5.71545e-05
1.73433e-06
-5.77195e-05
8.51691e-07
-5.80063e-05
3.52516e-07
-5.83552e-05
2.4594e-07
-5.88134e-05
2.79473e-07
-5.94756e-05
5.47132e-07
-6.02689e-05
1.04188e-06
-6.0843e-05
1.41833e-06
-6.11515e-05
1.43677e-06
-6.11935e-05
1.19764e-06
-6.12086e-05
1.05347e-06
-6.15583e-05
1.22322e-06
-6.22414e-05
1.41519e-06
-6.29857e-05
1.34154e-06
-6.36275e-05
9.36179e-07
-6.40278e-05
7.12658e-08
-6.39577e-05
-1.14081e-06
-6.33106e-05
-2.34674e-06
-6.22199e-05
-3.38985e-06
-6.10326e-05
-4.09025e-06
-6.00575e-05
-4.48425e-06
-5.94066e-05
-4.93337e-06
-5.8628e-05
-5.70705e-06
-5.69944e-05
-7.19559e-06
-5.51375e-05
-8.81297e-06
-5.13284e-05
-9.48091e-06
-4.58646e-05
-8.25971e-06
-3.8011e-05
-9.02768e-06
-3.00572e-05
-6.91186e-06
-2.54861e-05
-3.4976e-06
-2.32963e-05
-1.09112e-06
-2.30358e-05
1.39944e-06
-2.36387e-05
1.44096e-06
-2.45795e-05
1.40205e-06
-2.62819e-05
2.12203e-06
-2.80607e-05
2.22752e-06
-2.87032e-05
9.05021e-07
-2.8826e-05
1.61373e-07
-2.90432e-05
2.39762e-07
-2.90916e-05
-1.58942e-07
-2.90768e-05
-3.98646e-07
-2.90756e-05
-6.14628e-07
-2.8887e-05
-1.19844e-06
-2.88268e-05
-1.90264e-06
-2.88533e-05
-2.36804e-06
-2.88575e-05
-2.87356e-06
-2.75933e-05
-3.06456e-06
-2.51278e-05
-2.87416e-06
-2.20485e-05
-3.10673e-06
-1.97576e-05
-1.8877e-06
-1.87899e-05
-6.59165e-07
-1.81202e-05
-1.06121e-07
-1.79886e-05
2.20404e-07
-1.80628e-05
1.16028e-07
-1.83607e-05
3.11733e-07
-1.89055e-05
5.59792e-07
-1.92213e-05
3.81416e-07
-1.9141e-05
-6.50671e-08
-1.90728e-05
-4.68174e-08
-1.90327e-05
-1.49179e-07
-1.90104e-05
-3.47159e-07
-1.90923e-05
-6.04739e-07
-1.91422e-05
-9.66852e-07
-1.92561e-05
-1.36476e-06
-1.88592e-05
-1.37894e-06
-1.78501e-05
-1.20463e-06
-1.63943e-05
-1.39981e-06
-1.52811e-05
-8.94931e-07
-1.49082e-05
-2.46654e-07
-1.4721e-05
1.33667e-07
-1.478e-05
3.05524e-07
-1.49123e-05
2.27122e-07
-1.52257e-05
4.36975e-07
-1.54475e-05
3.23181e-07
-1.54909e-05
1.31033e-07
-1.55415e-05
1.57079e-07
-1.55995e-05
1.44962e-07
-1.56669e-05
1.3577e-07
-1.57559e-05
1.55981e-07
-1.58156e-05
1.12024e-07
-1.58486e-05
6.36459e-08
-1.58686e-05
4.59682e-08
-1.58856e-05
4.3323e-08
-1.59074e-05
4.7143e-08
-1.5927e-05
3.69415e-08
-1.59459e-05
3.02936e-08
-1.59514e-05
5.4559e-09
-1.59442e-05
-1.37455e-08
-1.59307e-05
-2.2528e-08
-1.59114e-05
-3.41391e-08
-1.58834e-05
-5.23324e-08
-1.58449e-05
-7.4263e-08
-1.5797e-05
-1.02404e-07
-1.57365e-05
-1.24726e-07
-1.56706e-05
-1.35423e-07
-1.5597e-05
-1.44436e-07
-1.55134e-05
-1.60143e-07
-1.54182e-05
-1.87778e-07
-1.53086e-05
-2.22832e-07
-1.51899e-05
-2.41382e-07
-1.50674e-05
-2.49233e-07
-1.49355e-05
-2.62168e-07
-1.47904e-05
-2.85548e-07
-1.46309e-05
-3.11758e-07
-1.44641e-05
-3.31388e-07
-1.42924e-05
-3.46325e-07
-1.41146e-05
-3.59484e-07
-1.39275e-05
-3.75804e-07
-1.37301e-05
-3.94353e-07
-1.35237e-05
-4.11371e-07
-1.33052e-05
-4.34138e-07
-1.30753e-05
-4.57892e-07
-1.28396e-05
-4.71024e-07
-1.26007e-05
-4.74791e-07
-1.23568e-05
-4.86669e-07
-1.20993e-05
-5.15773e-07
-1.18276e-05
-5.44308e-07
-1.15488e-05
-5.56981e-07
-1.12673e-05
-5.58906e-07
-1.09778e-05
-5.70309e-07
-1.06793e-05
-5.97053e-07
-1.03665e-05
-6.29734e-07
-1.00395e-05
-6.57506e-07
-9.70097e-06
-6.78865e-07
-9.35239e-06
-6.90293e-07
-9.00138e-06
-6.90001e-07
-8.64557e-06
-7.02437e-07
-8.27997e-06
-7.29427e-07
-7.90227e-06
-7.59178e-07
-7.50268e-06
-8.04597e-07
-7.08526e-06
-8.38474e-07
-6.65474e-06
-8.59679e-07
-6.21603e-06
-8.72423e-07
-5.77802e-06
-8.69267e-07
-5.33688e-06
-8.85156e-07
-4.88326e-06
-9.21411e-07
-4.41263e-06
-9.57224e-07
-3.92652e-06
-9.78461e-07
-3.43166e-06
-9.8063e-07
-2.93819e-06
-9.77477e-07
-2.45255e-06
-9.72609e-07
-1.97187e-06
-9.77183e-07
-1.48922e-06
-9.87887e-07
-1.00484e-06
-9.89286e-07
-5.28822e-07
-9.66307e-07
-6.91604e-08
-9.18572e-07
3.72416e-07
-8.72227e-07
7.98762e-07
-8.411e-07
1.21435e-06
-8.25246e-07
1.61675e-06
-8.06467e-07
2.00277e-06
-7.74917e-07
2.37059e-06
-7.36378e-07
2.72536e-06
-7.03304e-07
3.06912e-06
-6.78661e-07
3.40128e-06
-6.60962e-07
3.7194e-06
-6.38573e-07
4.02083e-06
-6.04604e-07
4.30808e-06
-5.67321e-07
4.58682e-06
-5.50408e-07
4.85896e-06
-5.43363e-07
5.12209e-06
-5.2754e-07
5.37431e-06
-5.07037e-07
5.61503e-06
-4.83151e-07
5.84196e-06
-4.50923e-07
6.05729e-06
-4.23888e-07
6.26311e-06
-4.07567e-07
6.46291e-06
-3.99027e-07
6.65571e-06
-3.87596e-07
6.83967e-06
-3.70966e-07
7.0148e-06
-3.52308e-07
7.1796e-06
-3.27558e-07
7.33475e-06
-3.05166e-07
7.48056e-06
-2.88729e-07
7.61924e-06
-2.76909e-07
7.75222e-06
-2.6762e-07
7.87869e-06
-2.55733e-07
7.99792e-06
-2.4084e-07
8.10757e-06
-2.19818e-07
8.20962e-06
-2.01545e-07
8.30625e-06
-1.9102e-07
8.39882e-06
-1.84047e-07
8.48747e-06
-1.76643e-07
8.57062e-06
-1.66727e-07
8.64775e-06
-1.54582e-07
8.71813e-06
-1.41759e-07
8.7817e-06
-1.29807e-07
8.84009e-06
-1.19857e-07
8.89526e-06
-1.10907e-07
8.94912e-06
-1.04672e-07
9.00047e-06
-9.99073e-08
9.04877e-06
-9.5684e-08
9.09298e-06
-9.019e-08
9.13352e-06
-8.41057e-08
9.17031e-06
-7.6226e-08
9.20398e-06
-6.60577e-08
9.23684e-06
-6.29195e-08
9.26963e-06
-6.42144e-08
9.30031e-06
-6.24287e-08
9.32803e-06
-5.75777e-08
9.35331e-06
-5.2635e-08
9.37654e-06
-4.67131e-08
9.39953e-06
-4.3716e-08
9.42184e-06
-4.27271e-08
9.44303e-06
-4.11281e-08
9.46171e-06
-3.77824e-08
9.47681e-06
-3.22189e-08
9.4905e-06
-2.87757e-08
9.50434e-06
-2.71084e-08
9.51769e-06
-2.50101e-08
9.5295e-06
-2.28392e-08
9.53928e-06
-2.0279e-08
9.5466e-06
-1.57619e-08
9.55001e-06
-7.68745e-09
9.55139e-06
-9.74831e-10
9.55147e-06
1.34227e-09
9.55059e-06
2.06084e-09
9.54761e-06
5.58779e-09
9.54179e-06
1.09507e-08
9.53279e-06
1.67358e-08
9.5208e-06
2.29173e-08
9.50601e-06
3.0568e-08
9.48868e-06
3.70787e-08
9.46818e-06
4.24436e-08
9.44433e-06
4.75041e-08
9.41742e-06
5.2988e-08
9.38771e-06
5.8914e-08
9.35537e-06
6.43991e-08
9.31976e-06
7.07165e-08
9.27949e-06
8.04157e-08
9.23532e-06
8.98037e-08
9.18823e-06
9.52154e-08
9.13845e-06
9.9599e-08
9.08501e-06
1.06454e-07
9.02738e-06
1.14463e-07
8.96615e-06
1.21429e-07
8.90157e-06
1.28583e-07
8.83332e-06
1.37045e-07
8.76168e-06
1.44446e-07
8.68653e-06
1.5095e-07
8.60737e-06
1.57778e-07
8.52419e-06
1.65127e-07
8.43781e-06
1.71543e-07
8.3485e-06
1.78216e-07
8.25621e-06
1.85787e-07
8.15998e-06
1.93434e-07
8.05916e-06
2.01312e-07
7.95457e-06
2.08057e-07
7.84741e-06
2.13238e-07
7.73788e-06
2.18915e-07
7.62506e-06
2.26529e-07
7.50805e-06
2.34325e-07
7.38699e-06
2.41189e-07
7.26369e-06
2.45693e-07
7.13863e-06
2.50383e-07
7.0106e-06
2.56633e-07
6.87856e-06
2.63637e-07
6.74363e-06
2.68874e-07
6.60692e-06
2.72591e-07
6.46806e-06
2.77127e-07
6.32662e-06
2.8296e-07
6.18191e-06
2.89393e-07
6.03428e-06
2.94248e-07
5.88523e-06
2.97106e-07
5.73472e-06
3.00489e-07
5.58229e-06
3.04508e-07
5.42774e-06
3.08782e-07
5.27077e-06
3.13273e-07
5.11169e-06
3.17347e-07
4.95098e-06
3.20789e-07
4.78881e-06
3.24124e-07
4.62503e-06
3.27839e-07
4.45964e-06
3.3116e-07
4.29262e-06
3.33891e-07
4.12394e-06
3.3694e-07
3.9539e-06
3.40014e-07
3.78302e-06
3.4223e-07
3.61165e-06
3.43287e-07
3.43984e-06
3.4372e-07
3.26769e-06
3.44119e-07
3.09532e-06
3.44771e-07
2.92305e-06
3.45517e-07
2.7512e-06
3.4516e-07
2.57992e-06
3.43118e-07
2.41032e-06
3.39337e-07
2.24251e-06
3.35898e-07
2.07681e-06
3.31963e-07
1.9134e-06
3.27623e-07
1.75221e-06
3.23076e-07
1.5934e-06
3.18004e-07
1.4373e-06
3.12292e-07
1.28413e-06
3.06198e-07
1.1343e-06
2.99601e-07
9.88359e-07
2.9217e-07
8.46193e-07
2.84742e-07
7.07654e-07
2.77344e-07
5.72718e-07
2.69955e-07
4.41412e-07
2.62596e-07
3.13835e-07
2.55189e-07
1.90089e-07
2.4758e-07
7.02366e-08
2.39748e-07
-4.57304e-08
2.31892e-07
-1.57967e-07
2.24382e-07
-2.66657e-07
2.17243e-07
-3.72024e-07
2.10453e-07
-4.74136e-07
2.03832e-07
-5.7268e-07
1.96811e-07
-6.67685e-07
1.89861e-07
-7.59438e-07
1.83359e-07
-8.48109e-07
1.77135e-07
-9.33766e-07
1.71045e-07
-1.01648e-06
1.65267e-07
-1.09631e-06
1.5979e-07
-1.17325e-06
1.54262e-07
-1.24739e-06
1.48647e-07
-1.3188e-06
1.42852e-07
-1.38766e-06
1.37436e-07
-1.45418e-06
1.3273e-07
-1.5184e-06
1.28293e-07
-1.57996e-06
1.23088e-07
-1.63879e-06
1.17549e-07
-1.69497e-06
1.12251e-07
-1.74884e-06
1.07637e-07
-1.80071e-06
1.03488e-07
-1.85054e-06
9.93441e-08
-1.89818e-06
9.51131e-08
-1.94358e-06
9.10446e-08
-1.9867e-06
8.68995e-08
-2.02785e-06
8.26981e-08
-2.06712e-06
7.83345e-08
-2.10455e-06
7.46122e-08
-2.14024e-06
7.12081e-08
-2.17422e-06
6.7819e-08
-2.20629e-06
6.42125e-08
-2.23658e-06
6.07217e-08
-2.26515e-06
5.71935e-08
-2.29213e-06
5.3799e-08
-2.31745e-06
5.06497e-08
-2.34113e-06
4.76094e-08
-2.3631e-06
4.43514e-08
-2.38362e-06
4.10734e-08
-2.4027e-06
3.79989e-08
-2.42045e-06
3.51925e-08
-2.43659e-06
3.21574e-08
-2.45125e-06
2.92604e-08
-2.46439e-06
2.67123e-08
-2.47645e-06
2.45409e-08
-2.48744e-06
2.21258e-08
-2.49763e-06
2.00305e-08
-2.50618e-06
1.70362e-08
-2.51387e-06
1.51643e-08
-2.52036e-06
1.31035e-08
-2.52653e-06
1.28571e-08
-2.53122e-06
1.10053e-08
-2.53609e-06
1.10396e-08
-2.53931e-06
7.71799e-09
-2.54396e-06
9.55491e-09
-2.55007e-06
1.05429e-08
-2.55554e-06
9.84841e-09
-2.56153e-06
9.54084e-09
-2.56342e-06
4.28523e-09
-2.56513e-06
4.68077e-09
-2.55956e-06
-4.49037e-09
-2.55843e-06
-1.2106e-09
-2.567e-06
8.12923e-09
-2.57352e-06
3.45388e-10
-2.57793e-06
1.97255e-10
-2.57358e-06
6.38175e-10
-2.52284e-06
-5.32072e-08
-2.49018e-06
-3.33395e-08
-2.52621e-06
3.57946e-08
-2.56175e-06
-1.05866e-08
-2.66579e-06
7.19353e-08
-2.82624e-06
1.87961e-07
-3.11829e-06
2.7496e-07
-3.35628e-06
2.98459e-07
-3.44876e-06
2.48728e-07
-3.48452e-06
3.16694e-07
-3.48577e-06
2.50938e-07
-3.53936e-06
1.74741e-07
-3.57479e-06
1.51629e-07
-3.62575e-06
1.23357e-07
-3.66073e-06
1.02374e-07
-3.69065e-06
8.25424e-08
-3.71262e-06
7.04609e-08
-3.75387e-06
8.32032e-08
-3.7841e-06
6.89128e-08
-3.82686e-06
6.61178e-08
-3.90844e-06
1.16004e-07
-3.93124e-06
4.00199e-08
-3.91098e-06
3.72966e-09
-3.8703e-06
3.61755e-08
-3.79285e-06
-5.95754e-08
-3.62145e-06
-1.79837e-07
-3.39317e-06
-2.21532e-07
-3.24313e-06
-1.94033e-07
-3.19846e-06
-2.16277e-07
-3.20749e-06
-2.1585e-07
-3.17953e-06
-1.91862e-07
-3.17205e-06
-1.13948e-07
-3.12915e-06
-1.20492e-07
-3.102e-06
-7.19632e-08
-3.07589e-06
-6.23615e-08
-3.07708e-06
-1.72717e-08
-3.0704e-06
-2.2708e-08
-3.05863e-06
-3.81449e-08
-3.09551e-06
3.9054e-08
-2.98805e-06
-1.23552e-07
-2.85861e-06
-1.48704e-07
-2.95431e-06
1.35109e-07
-2.96779e-06
-9.60453e-08
-3.3831e-06
2.77011e-07
-3.51649e-06
2.84917e-07
-4.64828e-06
1.02215e-06
-5.62426e-06
1.23558e-06
-5.9083e-06
4.38538e-07
-5.77242e-06
1.01654e-06
-5.18874e-06
6.64876e-07
-5.05904e-06
1.86689e-07
-5.07305e-06
8.68298e-08
-5.16802e-06
-3.03785e-08
-5.23681e-06
-8.07813e-08
-5.27291e-06
-8.96662e-08
-5.29423e-06
-5.25973e-08
-5.31515e-06
-1.88763e-08
-5.33448e-06
-5.67762e-09
-5.35059e-06
-6.02714e-09
-5.36169e-06
-1.16956e-09
-5.36651e-06
6.61542e-10
-5.36456e-06
-6.72903e-09
-5.35686e-06
-1.46606e-08
-5.34352e-06
-2.77927e-08
-5.32882e-06
-3.52262e-08
-5.31188e-06
-3.69407e-08
-5.29005e-06
-4.09669e-08
-5.26209e-06
-5.43232e-08
-5.22817e-06
-6.83343e-08
-5.18982e-06
-7.56771e-08
-5.14563e-06
-8.33294e-08
-5.09503e-06
-9.73424e-08
-5.03974e-06
-1.12434e-07
-4.97986e-06
-1.22837e-07
-4.91516e-06
-1.2675e-07
-4.84566e-06
-1.33012e-07
-4.77138e-06
-1.41518e-07
-4.69338e-06
-1.52436e-07
-4.61043e-06
-1.63867e-07
-4.52085e-06
-1.75111e-07
-4.42633e-06
-1.86781e-07
-4.32839e-06
-1.95642e-07
-4.22758e-06
-1.99935e-07
-4.12402e-06
-2.02424e-07
-4.01526e-06
-2.10139e-07
-3.90114e-06
-2.22862e-07
-3.78139e-06
-2.38005e-07
-3.65647e-06
-2.52717e-07
-3.52709e-06
-2.62781e-07
-3.39341e-06
-2.71811e-07
-3.25507e-06
-2.77883e-07
-3.11199e-06
-2.85482e-07
-2.96421e-06
-2.95414e-07
-2.81266e-06
-3.02411e-07
-2.65814e-06
-3.0808e-07
-2.50048e-06
-3.16031e-07
-2.33976e-06
-3.24941e-07
-2.17609e-06
-3.31854e-07
-2.0098e-06
-3.36056e-07
-1.84048e-06
-3.3916e-07
-1.6678e-06
-3.4246e-07
-1.49205e-06
-3.46801e-07
-1.31351e-06
-3.52322e-07
-1.13243e-06
-3.58708e-07
-9.4873e-07
-3.65469e-07
-7.62136e-07
-3.72212e-07
-5.72525e-07
-3.78528e-07
-3.80102e-07
-3.84044e-07
-1.8535e-07
-3.88657e-07
1.15896e-08
-3.92869e-07
2.109e-07
-3.97277e-07
4.12662e-07
-4.02456e-07
6.16709e-07
-4.07282e-07
8.22553e-07
-4.11727e-07
1.02957e-06
-4.13878e-07
1.23827e-06
-4.17024e-07
1.44926e-06
-4.19839e-07
1.66238e-06
-4.24973e-07
1.87668e-06
-4.28208e-07
2.09173e-06
-4.30045e-07
2.30829e-06
-4.32044e-07
2.52687e-06
-4.35471e-07
2.74675e-06
-4.37896e-07
2.96761e-06
-4.38894e-07
3.18919e-06
-4.42126e-07
3.41148e-06
-4.46174e-07
3.63333e-06
-4.55207e-07
3.85508e-06
-4.64342e-07
4.07745e-06
-4.70273e-07
-4.78032e-07
2.07367e-05
1.80121e-05
2.03825e-05
7.8037e-06
2.22738e-05
-6.65391e-07
2.41128e-05
-7.29188e-06
2.51134e-05
-1.01128e-05
2.60602e-05
-1.07959e-05
2.70307e-05
-1.0708e-05
2.78289e-05
-9.46051e-06
2.78771e-05
-6.73905e-06
2.7039e-05
-4.72412e-06
2.60544e-05
-4.57278e-06
2.52514e-05
-5.14302e-06
2.45145e-05
-4.55465e-06
2.32319e-05
-1.66747e-06
2.11388e-05
3.05506e-06
1.85895e-05
8.56464e-06
1.71858e-05
1.19003e-05
1.70001e-05
1.35155e-05
1.70335e-05
1.3407e-05
1.62354e-05
1.11483e-05
1.41994e-05
8.31982e-06
1.15068e-05
5.83215e-06
8.13204e-06
3.67633e-06
4.4624e-06
2.70964e-06
1.05785e-06
2.46359e-06
-2.17029e-06
2.95665e-06
-5.39828e-06
4.68692e-06
-8.65218e-06
7.23515e-06
-1.20093e-05
9.79508e-06
-1.51644e-05
1.13605e-05
-1.77909e-05
1.24215e-05
-1.95678e-05
1.31864e-05
-2.07392e-05
1.32826e-05
-2.18938e-05
1.27261e-05
-2.38591e-05
1.1785e-05
-2.69827e-05
1.15337e-05
-3.01397e-05
1.12413e-05
-3.25801e-05
1.02568e-05
-3.45472e-05
8.16631e-06
-3.63409e-05
5.7911e-06
-3.81001e-05
5.00796e-06
-3.97897e-05
5.11892e-06
-4.13506e-05
5.5264e-06
-4.28182e-05
6.00104e-06
-4.42864e-05
5.97e-06
-4.58469e-05
5.1356e-06
-4.73151e-05
4.0084e-06
-4.86701e-05
3.51156e-06
-5.00663e-05
3.84684e-06
-5.13919e-05
4.37614e-06
-5.27502e-05
4.89881e-06
-5.42138e-05
4.87635e-06
-5.57527e-05
4.14607e-06
-5.71045e-05
3.08261e-06
-5.82267e-05
1.97372e-06
-5.92083e-05
1.33416e-06
-6.0182e-05
1.22032e-06
-6.11385e-05
1.24557e-06
-6.20174e-05
1.44594e-06
-6.26288e-05
1.65192e-06
-6.28081e-05
1.59898e-06
-6.2502e-05
1.10889e-06
-6.18852e-05
5.77229e-07
-6.13368e-05
5.16086e-07
-6.11868e-05
1.10028e-06
-6.15907e-05
1.81962e-06
-6.21914e-05
1.9426e-06
-6.29406e-05
1.68594e-06
-6.37651e-05
8.59972e-07