/*--------------------------------*- C++ -*----------------------------------*\
| =========                 |                                                 |
| \\      /  F ield         | OpenFOAM: The Open Source CFD Toolbox           |
|  \\    /   O peration     | Version:  v2006                                 |
|   \\  /    A nd           | Website:  www.openfoam.com                      |
|    \\/     M anipulation  |                                                 |
\*---------------------------------------------------------------------------*/
FoamFile
{
    version     2.0;
    format      ascii;
    class       volScalarField;
    location    "8.5";
    object      k;
}
// * * * * * * * * * * * * * * * * * * * * * * * * * * * * * * * * * * * * * //

dimensions      [0 2 -2 0 0 0 0];


internalField   nonuniform List<scalar> 
33000
(
3.16453e-08
3.74597e-08
3.45999e-08
3.00897e-08
2.67132e-08
2.52682e-08
2.49021e-08
2.52532e-08
2.59632e-08
2.67049e-08
2.72985e-08
2.78998e-08
2.87722e-08
3.00145e-08
3.18421e-08
3.45147e-08
3.97765e-08
5.1851e-08
7.41463e-08
1.01185e-07
1.26236e-07
1.50959e-07
1.80628e-07
2.1923e-07
2.59639e-07
2.96108e-07
3.20257e-07
3.31709e-07
3.29094e-07
3.18367e-07
3.17452e-07
3.60066e-07
4.9024e-07
6.9311e-07
9.1256e-07
1.09663e-06
1.23198e-06
1.31837e-06
1.35875e-06
1.36973e-06
1.36928e-06
1.36922e-06
1.37175e-06
1.3699e-06
1.3559e-06
1.3308e-06
1.30383e-06
1.2846e-06
1.27641e-06
1.27331e-06
1.26351e-06
1.23858e-06
1.19939e-06
1.15292e-06
1.10784e-06
1.07188e-06
1.0511e-06
1.05163e-06
1.07498e-06
1.11782e-06
1.16586e-06
1.20401e-06
1.22286e-06
1.22005e-06
1.19749e-06
1.15763e-06
1.10162e-06
1.03022e-06
9.45887e-07
8.57736e-07
7.78853e-07
7.11475e-07
6.55114e-07
6.08567e-07
5.70277e-07
5.4097e-07
5.20864e-07
5.12719e-07
5.29406e-07
5.52815e-07
5.57959e-07
5.74288e-07
5.95341e-07
6.3412e-07
6.82908e-07
7.32271e-07
7.77293e-07
8.13204e-07
8.36882e-07
8.47598e-07
8.45707e-07
8.31989e-07
8.06032e-07
7.71472e-07
7.29637e-07
6.81471e-07
6.28854e-07
5.81447e-07
5.43958e-07
5.27455e-07
5.25471e-07
5.28598e-07
5.33026e-07
5.36776e-07
5.44077e-07
5.53398e-07
5.59031e-07
5.57789e-07
5.51522e-07
5.42514e-07
5.31858e-07
5.21413e-07
5.08982e-07
4.9272e-07
4.71281e-07
4.50123e-07
4.3396e-07
4.35592e-07
4.45502e-07
4.48534e-07
4.49839e-07
4.50284e-07
4.52311e-07
4.56895e-07
4.61841e-07
4.65358e-07
4.67316e-07
4.67981e-07
4.68256e-07
4.68913e-07
4.7002e-07
4.71208e-07
4.71904e-07
4.71552e-07
4.7031e-07
4.68982e-07
4.68207e-07
4.67778e-07
4.67289e-07
4.66485e-07
4.65514e-07
4.64668e-07
4.64002e-07
4.63231e-07
4.61939e-07
4.59985e-07
4.57696e-07
4.55466e-07
4.53601e-07
4.51883e-07
4.49622e-07
4.46439e-07
4.42892e-07
4.39598e-07
4.36447e-07
4.33176e-07
4.29609e-07
4.25761e-07
4.21721e-07
4.17579e-07
4.13384e-07
4.09144e-07
4.04911e-07
4.00478e-07
3.95644e-07
3.90787e-07
3.86181e-07
3.81506e-07
3.76293e-07
3.70825e-07
3.65661e-07
3.60937e-07
3.56289e-07
3.51237e-07
3.46009e-07
3.41189e-07
3.36896e-07
3.33188e-07
3.29971e-07
3.26723e-07
3.23306e-07
3.20003e-07
3.16724e-07
3.13798e-07
3.11452e-07
3.0956e-07
3.08095e-07
3.06545e-07
3.04982e-07
3.03807e-07
3.03179e-07
3.02993e-07
3.02925e-07
3.02928e-07
3.0306e-07
3.03528e-07
3.04556e-07
3.06267e-07
3.0854e-07
3.10861e-07
3.12933e-07
3.14767e-07
3.16653e-07
3.18616e-07
3.20547e-07
3.22322e-07
3.23849e-07
3.25228e-07
3.26709e-07
3.28368e-07
3.29888e-07
3.31088e-07
3.32289e-07
3.33638e-07
3.35119e-07
3.36786e-07
3.38535e-07
3.40137e-07
3.41609e-07
3.43073e-07
3.4464e-07
3.46322e-07
3.48134e-07
3.49981e-07
3.51685e-07
3.53226e-07
3.54643e-07
3.56013e-07
3.57399e-07
3.58815e-07
3.60188e-07
3.61356e-07
3.62301e-07
3.63077e-07
3.63752e-07
3.64357e-07
3.64864e-07
3.65247e-07
3.65491e-07
3.65589e-07
3.65515e-07
3.6523e-07
3.64727e-07
3.64055e-07
3.63263e-07
3.62375e-07
3.61404e-07
3.60271e-07
3.58885e-07
3.57316e-07
3.55653e-07
3.53913e-07
3.52087e-07
3.5014e-07
3.48025e-07
3.4576e-07
3.4338e-07
3.40908e-07
3.38345e-07
3.35677e-07
3.32892e-07
3.29989e-07
3.26992e-07
3.23932e-07
3.20825e-07
3.17647e-07
3.14353e-07
3.10944e-07
3.0744e-07
3.03867e-07
3.00257e-07
2.96624e-07
2.92956e-07
2.89221e-07
2.854e-07
2.81503e-07
2.77548e-07
2.73552e-07
2.69522e-07
2.6547e-07
2.6141e-07
2.57321e-07
2.53175e-07
2.48971e-07
2.44719e-07
2.4044e-07
2.36145e-07
2.31838e-07
2.2751e-07
2.23142e-07
2.18723e-07
2.14248e-07
2.09712e-07
2.05096e-07
2.00393e-07
1.95639e-07
1.90877e-07
1.86133e-07
1.81414e-07
1.76728e-07
1.7208e-07
1.67477e-07
1.62908e-07
1.58358e-07
1.53815e-07
1.49297e-07
1.44841e-07
1.40489e-07
1.36283e-07
1.32248e-07
1.28406e-07
1.24776e-07
1.21362e-07
1.18154e-07
1.15143e-07
1.12339e-07
1.09751e-07
1.07381e-07
1.05229e-07
1.03296e-07
1.01585e-07
1.00093e-07
9.88132e-08
9.77365e-08
9.68513e-08
9.61483e-08
9.56213e-08
9.52574e-08
9.50398e-08
9.49501e-08
9.49762e-08
9.51084e-08
9.53397e-08
9.56631e-08
9.60646e-08
9.65248e-08
9.70285e-08
9.75642e-08
9.81199e-08
9.86832e-08
9.92482e-08
9.98113e-08
1.00372e-07
1.00927e-07
1.01476e-07
1.02012e-07
1.02532e-07
1.03035e-07
1.03521e-07
1.03989e-07
1.04434e-07
1.04853e-07
1.05241e-07
1.05597e-07
1.05914e-07
1.06184e-07
1.06403e-07
1.06571e-07
1.0669e-07
1.06757e-07
1.06776e-07
1.06746e-07
1.06671e-07
1.06551e-07
1.06389e-07
1.06189e-07
1.0595e-07
1.05671e-07
1.05352e-07
1.04999e-07
1.04616e-07
1.04201e-07
1.0375e-07
1.03262e-07
1.0274e-07
1.02188e-07
1.01605e-07
1.00992e-07
1.00349e-07
9.96789e-08
9.89783e-08
9.82423e-08
9.74753e-08
9.66851e-08
9.58728e-08
9.50393e-08
9.41863e-08
9.33145e-08
9.24245e-08
9.15201e-08
9.06059e-08
8.96811e-08
8.87441e-08
8.77966e-08
8.68439e-08
8.58896e-08
8.49344e-08
8.39823e-08
8.30336e-08
8.2086e-08
8.11388e-08
8.01972e-08
7.92627e-08
7.834e-08
7.74327e-08
7.65418e-08
7.56624e-08
7.47916e-08
7.39407e-08
7.31153e-08
7.23111e-08
7.152e-08
7.07381e-08
6.99604e-08
6.92053e-08
6.84461e-08
6.771e-08
6.6956e-08
6.61869e-08
6.54539e-08
6.47564e-08
6.40021e-08
6.33561e-08
6.24856e-08
6.147e-08
6.0789e-08
6.01967e-08
5.91682e-08
5.91623e-08
5.91739e-08
6.10264e-08
6.16414e-08
6.28344e-08
6.32723e-08
6.37041e-08
6.37245e-08
6.36184e-08
6.34134e-08
6.32065e-08
6.29642e-08
6.27301e-08
6.27559e-08
6.23725e-08
6.17929e-08
6.14178e-08
5.99612e-08
5.83137e-08
5.60786e-08
5.48363e-08
5.43838e-08
5.47708e-08
5.5605e-08
5.62473e-08
5.67969e-08
5.71968e-08
5.75391e-08
5.78213e-08
5.77323e-08
5.76117e-08
5.75902e-08
5.70003e-08
5.75355e-08
5.71569e-08
5.57841e-08
5.57808e-08
5.4624e-08
5.23309e-08
5.17909e-08
5.09253e-08
5.56915e-08
5.76003e-08
6.23603e-08
6.66245e-08
7.23038e-08
7.83624e-08
8.47603e-08
9.07539e-08
9.60388e-08
1.00568e-07
1.0447e-07
1.07731e-07
1.10367e-07
1.12525e-07
1.14273e-07
1.15752e-07
1.17055e-07
1.18163e-07
1.1904e-07
1.19785e-07
1.2049e-07
1.21106e-07
1.21582e-07
1.21973e-07
1.22369e-07
1.22785e-07
1.23139e-07
1.23418e-07
1.2362e-07
1.23794e-07
1.23952e-07
1.2407e-07
1.24187e-07
1.24321e-07
1.24437e-07
1.24478e-07
1.24437e-07
1.24347e-07
1.24253e-07
1.24191e-07
1.24143e-07
1.24115e-07
1.24065e-07
1.23982e-07
1.23902e-07
1.23813e-07
1.23696e-07
1.23571e-07
1.23468e-07
1.23396e-07
1.23335e-07
1.23262e-07
1.23158e-07
1.23021e-07
1.22859e-07
1.22688e-07
1.22518e-07
1.22355e-07
1.22201e-07
1.22055e-07
1.21911e-07
1.21767e-07
1.21619e-07
1.21473e-07
1.21328e-07
1.21183e-07
1.21041e-07
1.2087e-07
1.20713e-07
1.20503e-07
1.20371e-07
1.20163e-07
1.20022e-07
1.19833e-07
1.19683e-07
1.1954e-07
1.19296e-07
1.1903e-07
1.19675e-07
1.17022e-07
1.19629e-07
2.48742e-08
2.44212e-08
2.00554e-08
1.74269e-08
1.5711e-08
1.53844e-08
1.53563e-08
1.58302e-08
1.66048e-08
1.77224e-08
1.91575e-08
2.10295e-08
2.31886e-08
2.51742e-08
2.71098e-08
3.06559e-08
3.82154e-08
5.28051e-08
7.62301e-08
1.10071e-07
1.6148e-07
2.32723e-07
2.98176e-07
3.84525e-07
4.89087e-07
5.96991e-07
7.19078e-07
8.85758e-07
1.07833e-06
1.10775e-06
1.00067e-06
9.19707e-07
9.12714e-07
9.16518e-07
8.95502e-07
8.25996e-07
7.27953e-07
6.27158e-07
5.0584e-07
3.74969e-07
2.82236e-07
2.48874e-07
2.47284e-07
2.51018e-07
2.36842e-07
1.99231e-07
1.62093e-07
1.44717e-07
1.47654e-07
1.59065e-07
1.63855e-07
1.50192e-07
1.23649e-07
9.79661e-08
7.97597e-08
7.12944e-08
6.98777e-08
7.20105e-08
7.81642e-08
9.00648e-08
1.08579e-07
1.25553e-07
1.34615e-07
1.35774e-07
1.31857e-07
1.25667e-07
1.16207e-07
1.03054e-07
9.08284e-08
8.47187e-08
8.43391e-08
9.14007e-08
1.06342e-07
1.28589e-07
1.55367e-07
1.81384e-07
2.04063e-07
2.24002e-07
2.43718e-07
2.6582e-07
2.89273e-07
3.26471e-07
3.63906e-07
3.81917e-07
3.67407e-07
3.63282e-07
3.62771e-07
3.61618e-07
3.20426e-07
2.48917e-07
1.8807e-07
1.4388e-07
1.18883e-07
1.10818e-07
1.16906e-07
1.34233e-07
1.59845e-07
1.90345e-07
2.16838e-07
2.36322e-07
2.41657e-07
2.22347e-07
1.81179e-07
1.3409e-07
1.0494e-07
7.85403e-08
5.93283e-08
4.59083e-08
3.62826e-08
3.0724e-08
2.85679e-08
2.95188e-08
3.35717e-08
4.03424e-08
4.83007e-08
5.46054e-08
5.59189e-08
5.20565e-08
4.55683e-08
3.97143e-08
3.65524e-08
3.27236e-08
3.33675e-08
3.04506e-08
2.75193e-08
2.71998e-08
2.65123e-08
2.5969e-08
2.59641e-08
2.57218e-08
2.56463e-08
2.57942e-08
2.58403e-08
2.59002e-08
2.60432e-08
2.62535e-08
2.64855e-08
2.67187e-08
2.69719e-08
2.72279e-08
2.75031e-08
2.77776e-08
2.80366e-08
2.82676e-08
2.84766e-08
2.86928e-08
2.89489e-08
2.92478e-08
2.95648e-08
2.98577e-08
3.01036e-08
3.03258e-08
3.05805e-08
3.08891e-08
3.12141e-08
3.15118e-08
3.1773e-08
3.20099e-08
3.22379e-08
3.24702e-08
3.27162e-08
3.29678e-08
3.3201e-08
3.33919e-08
3.35638e-08
3.37652e-08
3.39727e-08
3.41174e-08
3.41982e-08
3.43033e-08
3.44728e-08
3.46377e-08
3.46884e-08
3.46111e-08
3.45148e-08
3.45111e-08
3.46093e-08
3.47252e-08
3.4756e-08
3.46445e-08
3.4397e-08
3.40865e-08
3.38021e-08
3.36164e-08
3.35341e-08
3.34683e-08
3.32926e-08
3.29579e-08
3.25747e-08
3.22908e-08
3.21151e-08
3.19548e-08
3.17037e-08
3.13201e-08
3.08495e-08
3.03828e-08
3.00257e-08
2.97974e-08
2.95931e-08
2.9268e-08
2.87664e-08
2.82039e-08
2.77186e-08
2.73282e-08
2.69733e-08
2.65737e-08
2.60924e-08
2.55966e-08
2.5191e-08
2.48776e-08
2.44827e-08
2.39557e-08
2.3408e-08
2.29341e-08
2.25865e-08
2.23291e-08
2.20542e-08
2.16632e-08
2.11823e-08
2.07075e-08
2.03088e-08
2.00191e-08
1.97981e-08
1.95648e-08
1.92575e-08
1.88874e-08
1.85137e-08
1.81908e-08
1.796e-08
1.77926e-08
1.7617e-08
1.73802e-08
1.70901e-08
1.68065e-08
1.65767e-08
1.64024e-08
1.62619e-08
1.61486e-08
1.60521e-08
1.59585e-08
1.58618e-08
1.57372e-08
1.56093e-08
1.55236e-08
1.54999e-08
1.55588e-08
1.56692e-08
1.57073e-08
1.56622e-08
1.56297e-08
1.56615e-08
1.57639e-08
1.58994e-08
1.60049e-08
1.60628e-08
1.60982e-08
1.61518e-08
1.62498e-08
1.63655e-08
1.64681e-08
1.65432e-08
1.65805e-08
1.66155e-08
1.6698e-08
1.68402e-08
1.70081e-08
1.70864e-08
1.70573e-08
1.70277e-08
1.70451e-08
1.70933e-08
1.717e-08
1.72709e-08
1.73554e-08
1.73717e-08
1.73346e-08
1.72949e-08
1.72744e-08
1.72585e-08
1.72438e-08
1.72674e-08
1.73265e-08
1.73263e-08
1.72406e-08
1.71521e-08
1.71003e-08
1.70582e-08
1.70168e-08
1.6992e-08
1.69612e-08
1.68919e-08
1.67915e-08
1.6691e-08
1.65983e-08
1.65058e-08
1.6429e-08
1.63506e-08
1.62485e-08
1.61282e-08
1.60004e-08
1.587e-08
1.57599e-08
1.56597e-08
1.55369e-08
1.53958e-08
1.52461e-08
1.51098e-08
1.49793e-08
1.48432e-08
1.47011e-08
1.45613e-08
1.44399e-08
1.43385e-08
1.42368e-08
1.41202e-08
1.40053e-08
1.39081e-08
1.38226e-08
1.37453e-08
1.36744e-08
1.36107e-08
1.35552e-08
1.35091e-08
1.3473e-08
1.34393e-08
1.34083e-08
1.33899e-08
1.33822e-08
1.33755e-08
1.33657e-08
1.33575e-08
1.33584e-08
1.337e-08
1.33887e-08
1.33989e-08
1.33935e-08
1.33823e-08
1.33788e-08
1.33762e-08
1.33709e-08
1.33605e-08
1.33439e-08
1.33224e-08
1.32991e-08
1.32751e-08
1.32443e-08
1.3208e-08
1.31683e-08
1.31281e-08
1.3089e-08
1.30497e-08
1.30065e-08
1.29582e-08
1.29084e-08
1.28602e-08
1.28127e-08
1.27649e-08
1.27167e-08
1.26668e-08
1.26155e-08
1.25654e-08
1.25164e-08
1.24679e-08
1.24211e-08
1.23771e-08
1.23326e-08
1.22848e-08
1.22336e-08
1.21836e-08
1.21391e-08
1.20982e-08
1.20542e-08
1.20056e-08
1.19575e-08
1.19135e-08
1.18729e-08
1.18336e-08
1.17949e-08
1.17583e-08
1.17225e-08
1.16826e-08
1.16394e-08
1.16006e-08
1.1566e-08
1.15325e-08
1.14994e-08
1.14663e-08
1.14323e-08
1.13981e-08
1.1367e-08
1.13382e-08
1.13085e-08
1.12767e-08
1.12455e-08
1.12168e-08
1.11893e-08
1.11631e-08
1.11399e-08
1.11166e-08
1.10911e-08
1.10651e-08
1.10402e-08
1.10184e-08
1.09983e-08
1.09802e-08
1.0961e-08
1.09407e-08
1.09166e-08
1.08984e-08
1.08799e-08
1.08633e-08
1.08448e-08
1.08244e-08
1.08054e-08
1.07862e-08
1.07728e-08
1.07647e-08
1.07551e-08
1.07485e-08
1.07357e-08
1.07234e-08
1.074e-08
1.08189e-08
1.08753e-08
1.09518e-08
1.10845e-08
1.11423e-08
1.12548e-08
1.13841e-08
1.15489e-08
1.13552e-08
1.09998e-08
1.09646e-08
1.08598e-08
1.08428e-08
1.07904e-08
1.07535e-08
1.07054e-08
1.06792e-08
1.06993e-08
1.08994e-08
1.10812e-08
1.12277e-08
1.12925e-08
1.12258e-08
1.11247e-08
1.103e-08
1.08952e-08
1.0804e-08
1.07654e-08
1.07356e-08
1.06658e-08
1.06087e-08
1.05858e-08
1.05961e-08
1.06177e-08
1.06445e-08
1.0676e-08
1.06395e-08
1.07323e-08
1.08375e-08
1.11262e-08
1.16696e-08
1.19607e-08
1.23921e-08
1.21425e-08
1.22518e-08
1.18846e-08
1.33592e-08
1.37692e-08
1.19954e-08
1.17244e-08
1.16296e-08
1.15808e-08
1.15095e-08
1.14236e-08
1.13255e-08
1.12385e-08
1.11797e-08
1.11542e-08
1.11555e-08
1.11764e-08
1.1211e-08
1.12545e-08
1.13046e-08
1.13586e-08
1.14113e-08
1.14604e-08
1.15088e-08
1.15582e-08
1.16039e-08
1.16433e-08
1.16801e-08
1.17202e-08
1.17644e-08
1.18067e-08
1.18427e-08
1.18719e-08
1.18981e-08
1.19236e-08
1.19486e-08
1.19758e-08
1.20062e-08
1.20345e-08
1.2054e-08
1.20624e-08
1.2063e-08
1.20625e-08
1.20663e-08
1.20751e-08
1.20883e-08
1.21025e-08
1.21155e-08
1.21273e-08
1.2137e-08
1.21438e-08
1.21499e-08
1.21598e-08
1.21756e-08
1.21957e-08
1.22156e-08
1.22311e-08
1.224e-08
1.22431e-08
1.22427e-08
1.22414e-08
1.22408e-08
1.22416e-08
1.22436e-08
1.22456e-08
1.22468e-08
1.2247e-08
1.22471e-08
1.22474e-08
1.22495e-08
1.22506e-08
1.22531e-08
1.2251e-08
1.22516e-08
1.22507e-08
1.22507e-08
1.22525e-08
1.22523e-08
1.22567e-08
1.22423e-08
1.22319e-08
1.22406e-08
1.22146e-08
1.22846e-08
1.22974e-08
1.89877e-08
1.6654e-08
1.3769e-08
1.26006e-08
1.21241e-08
1.2101e-08
1.23423e-08
1.30152e-08
1.42026e-08
1.6188e-08
1.91616e-08
2.33087e-08
2.79784e-08
3.13997e-08
3.49474e-08
4.02962e-08
5.00606e-08
6.68273e-08
9.28105e-08
1.33415e-07
1.97671e-07
2.93394e-07
4.30536e-07
6.04182e-07
8.06257e-07
1.01518e-06
1.17753e-06
1.23879e-06
1.28757e-06
1.27915e-06
1.16147e-06
1.03167e-06
9.44984e-07
8.44255e-07
7.07955e-07
5.66578e-07
4.48833e-07
3.52185e-07
2.61938e-07
1.83563e-07
1.31446e-07
1.03806e-07
9.15414e-08
8.57816e-08
7.89667e-08
6.88596e-08
5.91104e-08
5.30875e-08
5.08592e-08
5.05847e-08
4.9844e-08
4.65465e-08
4.10869e-08
3.56078e-08
3.13022e-08
2.86144e-08
2.73597e-08
2.72346e-08
2.81853e-08
3.01143e-08
3.26773e-08
3.51449e-08
3.69205e-08
3.80982e-08
3.91839e-08
3.99352e-08
3.95734e-08
3.80919e-08
3.60318e-08
3.45548e-08
3.41782e-08
3.58811e-08
4.02659e-08
4.75425e-08
5.72951e-08
6.84501e-08
7.97265e-08
9.04006e-08
1.01267e-07
1.14014e-07
1.3069e-07
1.52617e-07
1.81407e-07
2.16713e-07
2.65893e-07
3.1872e-07
3.50209e-07
3.41133e-07
2.99332e-07
2.68093e-07
2.30087e-07
1.85868e-07
1.36824e-07
1.02632e-07
7.94864e-08
6.8561e-08
6.85113e-08
7.83392e-08
9.28507e-08
1.05884e-07
1.14084e-07
1.12306e-07
1.05235e-07
8.87194e-08
6.82766e-08
5.02503e-08
3.70336e-08
2.87855e-08
2.36046e-08
2.02049e-08
1.7521e-08
1.54831e-08
1.44129e-08
1.42464e-08
1.50033e-08
1.61978e-08
1.71574e-08
1.73518e-08
1.69372e-08
1.61836e-08
1.55025e-08
1.47899e-08
1.41497e-08
1.36726e-08
1.31795e-08
1.29234e-08
1.25385e-08
1.22246e-08
1.20627e-08
1.19606e-08
1.18894e-08
1.18663e-08
1.18715e-08
1.18931e-08
1.19251e-08
1.19626e-08
1.19977e-08
1.20307e-08
1.20653e-08
1.21038e-08
1.21475e-08
1.21945e-08
1.22408e-08
1.22821e-08
1.23193e-08
1.23568e-08
1.23979e-08
1.24436e-08
1.2495e-08
1.25495e-08
1.26007e-08
1.26464e-08
1.26926e-08
1.27454e-08
1.28046e-08
1.28649e-08
1.29231e-08
1.29778e-08
1.30277e-08
1.30752e-08
1.31245e-08
1.31765e-08
1.32279e-08
1.32745e-08
1.33175e-08
1.33631e-08
1.34085e-08
1.34429e-08
1.34659e-08
1.34932e-08
1.35314e-08
1.35656e-08
1.35763e-08
1.35604e-08
1.35373e-08
1.3527e-08
1.3531e-08
1.3536e-08
1.35241e-08
1.34847e-08
1.34148e-08
1.33269e-08
1.32386e-08
1.31669e-08
1.31162e-08
1.30733e-08
1.30152e-08
1.29287e-08
1.28277e-08
1.27367e-08
1.26631e-08
1.26e-08
1.25334e-08
1.24518e-08
1.23545e-08
1.22544e-08
1.21702e-08
1.21068e-08
1.20503e-08
1.19817e-08
1.18937e-08
1.17999e-08
1.17174e-08
1.16475e-08
1.15817e-08
1.15121e-08
1.1438e-08
1.1367e-08
1.13072e-08
1.12554e-08
1.11958e-08
1.11263e-08
1.10574e-08
1.09971e-08
1.09494e-08
1.0911e-08
1.08733e-08
1.08283e-08
1.07776e-08
1.07282e-08
1.06856e-08
1.06519e-08
1.06245e-08
1.05986e-08
1.05702e-08
1.05391e-08
1.05085e-08
1.04816e-08
1.04607e-08
1.04443e-08
1.04287e-08
1.04109e-08
1.03915e-08
1.03733e-08
1.03585e-08
1.03474e-08
1.03389e-08
1.03319e-08
1.03253e-08
1.03185e-08
1.03118e-08
1.03053e-08
1.03e-08
1.02967e-08
1.02958e-08
1.02977e-08
1.03007e-08
1.03014e-08
1.02994e-08
1.02982e-08
1.02994e-08
1.03031e-08
1.03078e-08
1.03117e-08
1.03143e-08
1.03169e-08
1.03211e-08
1.03272e-08
1.03332e-08
1.03376e-08
1.0341e-08
1.03439e-08
1.03476e-08
1.03537e-08
1.03625e-08
1.03719e-08
1.03767e-08
1.03769e-08
1.03772e-08
1.038e-08
1.03848e-08
1.03913e-08
1.03983e-08
1.04041e-08
1.04073e-08
1.04085e-08
1.04092e-08
1.04103e-08
1.04114e-08
1.0413e-08
1.04174e-08
1.04235e-08
1.04261e-08
1.04238e-08
1.04213e-08
1.04211e-08
1.04216e-08
1.0422e-08
1.04231e-08
1.04239e-08
1.04225e-08
1.04196e-08
1.04168e-08
1.04143e-08
1.04114e-08
1.04093e-08
1.04073e-08
1.04046e-08
1.04008e-08
1.03957e-08
1.03897e-08
1.03849e-08
1.03811e-08
1.03764e-08
1.03702e-08
1.03623e-08
1.03551e-08
1.03488e-08
1.03423e-08
1.03348e-08
1.03268e-08
1.03201e-08
1.03148e-08
1.03094e-08
1.03026e-08
1.02954e-08
1.02892e-08
1.0284e-08
1.02794e-08
1.02752e-08
1.02713e-08
1.02677e-08
1.02647e-08
1.02622e-08
1.026e-08
1.02583e-08
1.02573e-08
1.02568e-08
1.02562e-08
1.02554e-08
1.0255e-08
1.02554e-08
1.02564e-08
1.02575e-08
1.02577e-08
1.0257e-08
1.02558e-08
1.02551e-08
1.02544e-08
1.02535e-08
1.02523e-08
1.02506e-08
1.02487e-08
1.02468e-08
1.02448e-08
1.02421e-08
1.0239e-08
1.02359e-08
1.0233e-08
1.02302e-08
1.02275e-08
1.02245e-08
1.02212e-08
1.02179e-08
1.02148e-08
1.02119e-08
1.0209e-08
1.02061e-08
1.02032e-08
1.02002e-08
1.01973e-08
1.01946e-08
1.0192e-08
1.01895e-08
1.01872e-08
1.01848e-08
1.01823e-08
1.01797e-08
1.01772e-08
1.01749e-08
1.01727e-08
1.01703e-08
1.01675e-08
1.01642e-08
1.01611e-08
1.01583e-08
1.01557e-08
1.0153e-08
1.01502e-08
1.01475e-08
1.01448e-08
1.01422e-08
1.01396e-08
1.01372e-08
1.0135e-08
1.01326e-08
1.01301e-08
1.01278e-08
1.01256e-08
1.01236e-08
1.01215e-08
1.01193e-08
1.01174e-08
1.01156e-08
1.01139e-08
1.01122e-08
1.01104e-08
1.01086e-08
1.0107e-08
1.01055e-08
1.01042e-08
1.01028e-08
1.01014e-08
1.01002e-08
1.00995e-08
1.00982e-08
1.00971e-08
1.00964e-08
1.00967e-08
1.00943e-08
1.00934e-08
1.00943e-08
1.00926e-08
1.00943e-08
1.00924e-08
1.00981e-08
1.00949e-08
1.00975e-08
1.00979e-08
1.00988e-08
1.01001e-08
1.01007e-08
1.0102e-08
1.01017e-08
1.01044e-08
1.01087e-08
1.01121e-08
1.01113e-08
1.01081e-08
1.01114e-08
1.01037e-08
1.00964e-08
1.00933e-08
1.00896e-08
1.00874e-08
1.00859e-08
1.00858e-08
1.00882e-08
1.00916e-08
1.00941e-08
1.0097e-08
1.00983e-08
1.00952e-08
1.00899e-08
1.00822e-08
1.00774e-08
1.00755e-08
1.00742e-08
1.00742e-08
1.0074e-08
1.00734e-08
1.00734e-08
1.00727e-08
1.00737e-08
1.00743e-08
1.0075e-08
1.00771e-08
1.00801e-08
1.00879e-08
1.01066e-08
1.01257e-08
1.01523e-08
1.01782e-08
1.01991e-08
1.01957e-08
1.02388e-08
1.02408e-08
1.01632e-08
1.02144e-08
1.0186e-08
1.01445e-08
1.01429e-08
1.01422e-08
1.01383e-08
1.01313e-08
1.01224e-08
1.01123e-08
1.01033e-08
1.0096e-08
1.00907e-08
1.00873e-08
1.00854e-08
1.00845e-08
1.00845e-08
1.00852e-08
1.00864e-08
1.00879e-08
1.00895e-08
1.00912e-08
1.00932e-08
1.00951e-08
1.0097e-08
1.00989e-08
1.0101e-08
1.01033e-08
1.01057e-08
1.01078e-08
1.01097e-08
1.01113e-08
1.01129e-08
1.01145e-08
1.01162e-08
1.01181e-08
1.01198e-08
1.01209e-08
1.01215e-08
1.01216e-08
1.01217e-08
1.0122e-08
1.01226e-08
1.01234e-08
1.01242e-08
1.01251e-08
1.01259e-08
1.01268e-08
1.01275e-08
1.01282e-08
1.01291e-08
1.01302e-08
1.01315e-08
1.01327e-08
1.01337e-08
1.01344e-08
1.01347e-08
1.01349e-08
1.0135e-08
1.01351e-08
1.01353e-08
1.01355e-08
1.01358e-08
1.0136e-08
1.01361e-08
1.01363e-08
1.01365e-08
1.01369e-08
1.01372e-08
1.01375e-08
1.01376e-08
1.01378e-08
1.0138e-08
1.01381e-08
1.01382e-08
1.01384e-08
1.01384e-08
1.01382e-08
1.01377e-08
1.0137e-08
1.01371e-08
1.01392e-08
1.01422e-08
1.52085e-08
1.31995e-08
1.18455e-08
1.14102e-08
1.1302e-08
1.13532e-08
1.17757e-08
1.26876e-08
1.44294e-08
1.75677e-08
2.27388e-08
3.02894e-08
4.00364e-08
5.06553e-08
5.8292e-08
6.30182e-08
8.13267e-08
1.02697e-07
1.33755e-07
1.77664e-07
2.32872e-07
2.9371e-07
3.54234e-07
4.17402e-07
4.93719e-07
5.88854e-07
6.85444e-07
7.31842e-07
7.60467e-07
7.72357e-07
7.33585e-07
6.69918e-07
5.90905e-07
5.03619e-07
4.14791e-07
3.2368e-07
2.48481e-07
1.85491e-07
1.30311e-07
8.68597e-08
6.05345e-08
4.72286e-08
4.08989e-08
3.74874e-08
3.44994e-08
3.10623e-08
2.78059e-08
2.56657e-08
2.47411e-08
2.43877e-08
2.4017e-08
2.31066e-08
2.15807e-08
1.98384e-08
1.82692e-08
1.71358e-08
1.64472e-08
1.60859e-08
1.59961e-08
1.61047e-08
1.63059e-08
1.65282e-08
1.68583e-08
1.74981e-08
1.8405e-08
1.9315e-08
1.99405e-08
2.00646e-08
1.96615e-08
1.91068e-08
1.88129e-08
1.90479e-08
2.00625e-08
2.19862e-08
2.48668e-08
2.87348e-08
3.3654e-08
3.96818e-08
4.70704e-08
5.63285e-08
6.81689e-08
8.32569e-08
1.0215e-07
1.25474e-07
1.52676e-07
1.83127e-07
2.14339e-07
2.45816e-07
2.73746e-07
2.84864e-07
2.58242e-07
2.04908e-07
1.71303e-07
1.3967e-07
1.09716e-07
7.92171e-08
6.15757e-08
5.17396e-08
4.89968e-08
5.10709e-08
5.51437e-08
5.74009e-08
5.54471e-08
5.09267e-08
4.33878e-08
3.66729e-08
3.03671e-08
2.5272e-08
2.14956e-08
1.88488e-08
1.70251e-08
1.57705e-08
1.47169e-08
1.37579e-08
1.2901e-08
1.21947e-08
1.17569e-08
1.16156e-08
1.15942e-08
1.15655e-08
1.14644e-08
1.13329e-08
1.12014e-08
1.10937e-08
1.0996e-08
1.09087e-08
1.08226e-08
1.07182e-08
1.06343e-08
1.05522e-08
1.04868e-08
1.04454e-08
1.04212e-08
1.04081e-08
1.04005e-08
1.03969e-08
1.03995e-08
1.0402e-08
1.04041e-08
1.041e-08
1.04162e-08
1.04234e-08
1.04312e-08
1.04378e-08
1.04443e-08
1.04515e-08
1.04598e-08
1.04692e-08
1.04784e-08
1.04866e-08
1.04944e-08
1.05029e-08
1.05128e-08
1.05236e-08
1.05339e-08
1.05432e-08
1.05525e-08
1.05625e-08
1.05732e-08
1.05837e-08
1.05936e-08
1.06026e-08
1.06105e-08
1.06178e-08
1.06255e-08
1.06345e-08
1.0643e-08
1.06486e-08
1.06516e-08
1.06551e-08
1.066e-08
1.06642e-08
1.06643e-08
1.06598e-08
1.06534e-08
1.06478e-08
1.06445e-08
1.06416e-08
1.0636e-08
1.06255e-08
1.06094e-08
1.05899e-08
1.05704e-08
1.05533e-08
1.05395e-08
1.05272e-08
1.05133e-08
1.04957e-08
1.04755e-08
1.04557e-08
1.04382e-08
1.04231e-08
1.0409e-08
1.0394e-08
1.03771e-08
1.03595e-08
1.03436e-08
1.03305e-08
1.03188e-08
1.03067e-08
1.0293e-08
1.02788e-08
1.02659e-08
1.02544e-08
1.02435e-08
1.02327e-08
1.02223e-08
1.02125e-08
1.02039e-08
1.01959e-08
1.01874e-08
1.01785e-08
1.01701e-08
1.01626e-08
1.01563e-08
1.01509e-08
1.01458e-08
1.01404e-08
1.01348e-08
1.01295e-08
1.01248e-08
1.01208e-08
1.01173e-08
1.01141e-08
1.01111e-08
1.01081e-08
1.01052e-08
1.01025e-08
1.01002e-08
1.00982e-08
1.00965e-08
1.00947e-08
1.00929e-08
1.00913e-08
1.00899e-08
1.00888e-08
1.00878e-08
1.0087e-08
1.00862e-08
1.00854e-08
1.00847e-08
1.00841e-08
1.00836e-08
1.00832e-08
1.00829e-08
1.00828e-08
1.00827e-08
1.00825e-08
1.00824e-08
1.00824e-08
1.00824e-08
1.00826e-08
1.00828e-08
1.00829e-08
1.0083e-08
1.00831e-08
1.00833e-08
1.00837e-08
1.00839e-08
1.00839e-08
1.0084e-08
1.00841e-08
1.00843e-08
1.00847e-08
1.00852e-08
1.00858e-08
1.0086e-08
1.0086e-08
1.00862e-08
1.00865e-08
1.00869e-08
1.00873e-08
1.00877e-08
1.0088e-08
1.00883e-08
1.00885e-08
1.00886e-08
1.00888e-08
1.00888e-08
1.0089e-08
1.00893e-08
1.00897e-08
1.00899e-08
1.00899e-08
1.00899e-08
1.009e-08
1.00901e-08
1.00902e-08
1.00903e-08
1.00904e-08
1.00904e-08
1.00904e-08
1.00903e-08
1.00902e-08
1.009e-08
1.00899e-08
1.00898e-08
1.00897e-08
1.00895e-08
1.00892e-08
1.00888e-08
1.00884e-08
1.00881e-08
1.00878e-08
1.00873e-08
1.00867e-08
1.0086e-08
1.00855e-08
1.0085e-08
1.00844e-08
1.00836e-08
1.0083e-08
1.00824e-08
1.00819e-08
1.00812e-08
1.00804e-08
1.00798e-08
1.00792e-08
1.00787e-08
1.00782e-08
1.00777e-08
1.00772e-08
1.00767e-08
1.00763e-08
1.0076e-08
1.00757e-08
1.00754e-08
1.00751e-08
1.00748e-08
1.00745e-08
1.00743e-08
1.00741e-08
1.00739e-08
1.00738e-08
1.00735e-08
1.00732e-08
1.00729e-08
1.00726e-08
1.00723e-08
1.00719e-08
1.00716e-08
1.00713e-08
1.00709e-08
1.00707e-08
1.00704e-08
1.00701e-08
1.00697e-08
1.00693e-08
1.0069e-08
1.00687e-08
1.00683e-08
1.0068e-08
1.00676e-08
1.00672e-08
1.00669e-08
1.00665e-08
1.00662e-08
1.00659e-08
1.00656e-08
1.00653e-08
1.0065e-08
1.00648e-08
1.00645e-08
1.00642e-08
1.0064e-08
1.00638e-08
1.00635e-08
1.00633e-08
1.0063e-08
1.00628e-08
1.00626e-08
1.00624e-08
1.00621e-08
1.00619e-08
1.00616e-08
1.00614e-08
1.00612e-08
1.0061e-08
1.00608e-08
1.00606e-08
1.00603e-08
1.00601e-08
1.00599e-08
1.00597e-08
1.00595e-08
1.00593e-08
1.0059e-08
1.00587e-08
1.00583e-08
1.00579e-08
1.00574e-08
1.00567e-08
1.0056e-08
1.00556e-08
1.00552e-08
1.00548e-08
1.00542e-08
1.00534e-08
1.00528e-08
1.00522e-08
1.00521e-08
1.00521e-08
1.00518e-08
1.00514e-08
1.00517e-08
1.00535e-08
1.00524e-08
1.00542e-08
1.00519e-08
1.00538e-08
1.00547e-08
1.00545e-08
1.00549e-08
1.00549e-08
1.0055e-08
1.00555e-08
1.00561e-08
1.00568e-08
1.00576e-08
1.00586e-08
1.00597e-08
1.00597e-08
1.00586e-08
1.00576e-08
1.00567e-08
1.0056e-08
1.00555e-08
1.00549e-08
1.0054e-08
1.0054e-08
1.0054e-08
1.00542e-08
1.00547e-08
1.00558e-08
1.00569e-08
1.00581e-08
1.00593e-08
1.00608e-08
1.00626e-08
1.00634e-08
1.0062e-08
1.00595e-08
1.00571e-08
1.00557e-08
1.00542e-08
1.00533e-08
1.00525e-08
1.00519e-08
1.00519e-08
1.00523e-08
1.00529e-08
1.00533e-08
1.00549e-08
1.00572e-08
1.00596e-08
1.00631e-08
1.00715e-08
1.00834e-08
1.01012e-08
1.0119e-08
1.01299e-08
1.01313e-08
1.01274e-08
1.01201e-08
1.01063e-08
1.00988e-08
1.00882e-08
1.00772e-08
1.00712e-08
1.00666e-08
1.00636e-08
1.00617e-08
1.00604e-08
1.00593e-08
1.00584e-08
1.00574e-08
1.00564e-08
1.00554e-08
1.00544e-08
1.00535e-08
1.00526e-08
1.00519e-08
1.00513e-08
1.00507e-08
1.00503e-08
1.00499e-08
1.00496e-08
1.00493e-08
1.00492e-08
1.00491e-08
1.0049e-08
1.0049e-08
1.0049e-08
1.00491e-08
1.00491e-08
1.00492e-08
1.00493e-08
1.00494e-08
1.00495e-08
1.00497e-08
1.00498e-08
1.00499e-08
1.00501e-08
1.00502e-08
1.00502e-08
1.00503e-08
1.00503e-08
1.00503e-08
1.00503e-08
1.00503e-08
1.00504e-08
1.00505e-08
1.00506e-08
1.00507e-08
1.00508e-08
1.00508e-08
1.00509e-08
1.0051e-08
1.0051e-08
1.00511e-08
1.00511e-08
1.00511e-08
1.00511e-08
1.00511e-08
1.00511e-08
1.0051e-08
1.0051e-08
1.0051e-08
1.0051e-08
1.00509e-08
1.00508e-08
1.00508e-08
1.00507e-08
1.00507e-08
1.00506e-08
1.00506e-08
1.00506e-08
1.00506e-08
1.00506e-08
1.00506e-08
1.00505e-08
1.00505e-08
1.00505e-08
1.00504e-08
1.00504e-08
1.00503e-08
1.00503e-08
1.00507e-08
1.00517e-08
1.00531e-08
1.29828e-08
1.17568e-08
1.11129e-08
1.0934e-08
1.09289e-08
1.10578e-08
1.14227e-08
1.22428e-08
1.40315e-08
1.73614e-08
2.26172e-08
3.03736e-08
4.0771e-08
5.24791e-08
6.33302e-08
7.17874e-08
8.58451e-08
1.06312e-07
1.29156e-07
1.51393e-07
1.73028e-07
1.92926e-07
2.12274e-07
2.36414e-07
2.70141e-07
3.13085e-07
3.52765e-07
3.70499e-07
3.74409e-07
3.73989e-07
3.56324e-07
3.25707e-07
2.87954e-07
2.47072e-07
2.02805e-07
1.59617e-07
1.21478e-07
8.80166e-08
6.01747e-08
4.06335e-08
2.99571e-08
2.48025e-08
2.21286e-08
2.05234e-08
1.92764e-08
1.80795e-08
1.70195e-08
1.63077e-08
1.59618e-08
1.57766e-08
1.561e-08
1.53218e-08
1.48455e-08
1.42569e-08
1.36817e-08
1.32158e-08
1.28736e-08
1.26374e-08
1.24942e-08
1.24201e-08
1.23991e-08
1.24321e-08
1.25442e-08
1.27505e-08
1.30452e-08
1.34084e-08
1.37302e-08
1.39089e-08
1.39166e-08
1.38109e-08
1.37381e-08
1.376e-08
1.39819e-08
1.44701e-08
1.52712e-08
1.64513e-08
1.8119e-08
2.04284e-08
2.36274e-08
2.8065e-08
3.41673e-08
4.24007e-08
5.32275e-08
6.67531e-08
8.26025e-08
9.99079e-08
1.17799e-07
1.35125e-07
1.51357e-07
1.6563e-07
1.7472e-07
1.81377e-07
1.73164e-07
1.47765e-07
1.15999e-07
9.29211e-08
7.30217e-08
5.57739e-08
4.26093e-08
3.53423e-08
3.18387e-08
3.06829e-08
3.03373e-08
2.9371e-08
2.74186e-08
2.47914e-08
2.26189e-08
2.03881e-08
1.84173e-08
1.69059e-08
1.57623e-08
1.49081e-08
1.4284e-08
1.37878e-08
1.33349e-08
1.28561e-08
1.2369e-08
1.18932e-08
1.14456e-08
1.10464e-08
1.08335e-08
1.07064e-08
1.06161e-08
1.05407e-08
1.04886e-08
1.04569e-08
1.04405e-08
1.04329e-08
1.04241e-08
1.0401e-08
1.03612e-08
1.03197e-08
1.028e-08
1.02473e-08
1.02229e-08
1.02072e-08
1.01944e-08
1.01841e-08
1.01755e-08
1.01697e-08
1.0166e-08
1.01638e-08
1.01626e-08
1.01622e-08
1.01624e-08
1.01631e-08
1.01642e-08
1.01656e-08
1.01672e-08
1.01688e-08
1.01704e-08
1.01723e-08
1.01744e-08
1.01767e-08
1.01789e-08
1.01811e-08
1.01832e-08
1.01855e-08
1.01879e-08
1.01903e-08
1.01925e-08
1.01945e-08
1.01962e-08
1.01977e-08
1.01993e-08
1.02011e-08
1.02027e-08
1.02037e-08
1.02043e-08
1.02047e-08
1.02052e-08
1.02056e-08
1.02054e-08
1.02043e-08
1.02026e-08
1.02009e-08
1.01995e-08
1.01981e-08
1.01962e-08
1.01935e-08
1.01898e-08
1.01856e-08
1.01814e-08
1.01774e-08
1.01738e-08
1.01705e-08
1.01671e-08
1.01633e-08
1.01591e-08
1.01549e-08
1.01509e-08
1.01473e-08
1.01439e-08
1.01407e-08
1.01374e-08
1.0134e-08
1.01308e-08
1.01278e-08
1.01252e-08
1.01227e-08
1.01201e-08
1.01175e-08
1.01149e-08
1.01126e-08
1.01104e-08
1.01083e-08
1.01063e-08
1.01044e-08
1.01026e-08
1.01009e-08
1.00992e-08
1.00976e-08
1.0096e-08
1.00945e-08
1.00932e-08
1.00919e-08
1.00906e-08
1.00895e-08
1.00883e-08
1.00872e-08
1.00862e-08
1.00851e-08
1.00842e-08
1.00833e-08
1.00825e-08
1.00817e-08
1.0081e-08
1.00802e-08
1.00795e-08
1.00788e-08
1.00782e-08
1.00776e-08
1.0077e-08
1.00765e-08
1.0076e-08
1.00755e-08
1.00751e-08
1.00747e-08
1.00743e-08
1.00739e-08
1.00736e-08
1.00733e-08
1.00729e-08
1.00727e-08
1.00724e-08
1.00722e-08
1.00719e-08
1.00718e-08