/*--------------------------------*- C++ -*----------------------------------*\
| =========                 |                                                 |
| \\      /  F ield         | OpenFOAM: The Open Source CFD Toolbox           |
|  \\    /   O peration     | Version:  v2006                                 |
|   \\  /    A nd           | Website:  www.openfoam.com                      |
|    \\/     M anipulation  |                                                 |
\*---------------------------------------------------------------------------*/
FoamFile
{
    version     2.0;
    format      ascii;
    class       volScalarField;
    location    "8.5";
    object      omega;
}
// * * * * * * * * * * * * * * * * * * * * * * * * * * * * * * * * * * * * * //

dimensions      [0 0 -1 0 0 0 0];


internalField   nonuniform List<scalar> 
33000
(
0.803944
0.804627
0.804266
0.803713
0.803299
0.803123
0.803078
0.803122
0.80321
0.803302
0.803377
0.80345
0.803557
0.80371
0.803937
0.804269
0.804925
0.806429
0.809181
0.812478
0.815508
0.818496
0.822078
0.826714
0.831534
0.835861
0.838713
0.840043
0.839713
0.838439
0.838344
0.843413
0.858537
0.881496
0.905728
0.925615
0.94
0.949076
0.953304
0.954461
0.954412
0.954401
0.954674
0.954516
0.953098
0.950493
0.947662
0.945621
0.94475
0.94445
0.943476
0.940908
0.936805
0.931884
0.927055
0.923156
0.920856
0.920836
0.923267
0.92782
0.93296
0.937065
0.939134
0.938915
0.936597
0.932443
0.926547
0.918947
0.909857
0.900214
0.891473
0.883929
0.877563
0.872267
0.86788
0.864498
0.862158
0.861185
0.863069
0.865726
0.866266
0.8681
0.870467
0.874844
0.880334
0.885866
0.890894
0.894893
0.897529
0.898732
0.898546
0.897057
0.894215
0.890406
0.885765
0.880385
0.874456
0.869058
0.864747
0.86281
0.862549
0.862903
0.86341
0.863835
0.864668
0.865738
0.866389
0.866252
0.865539
0.864511
0.863291
0.862098
0.860679
0.858819
0.856352
0.853904
0.852021
0.8522
0.853336
0.853687
0.853835
0.853885
0.854116
0.854645
0.85522
0.855627
0.855852
0.855929
0.85596
0.856034
0.856162
0.856301
0.856384
0.856341
0.856196
0.856042
0.855953
0.855903
0.855847
0.855754
0.855642
0.855545
0.85547
0.855381
0.855232
0.855005
0.854741
0.854482
0.854267
0.85407
0.853808
0.853439
0.853028
0.852646
0.852282
0.851904
0.851491
0.851044
0.850574
0.850093
0.849605
0.849112
0.848621
0.848105
0.847542
0.846975
0.846438
0.845893
0.845284
0.844644
0.84404
0.843488
0.842944
0.842352
0.841738
0.841172
0.840669
0.840235
0.839858
0.839476
0.839074
0.838686
0.838302
0.837959
0.837684
0.837463
0.837292
0.837111
0.836929
0.836793
0.836722
0.836704
0.836699
0.836702
0.83672
0.836778
0.836903
0.837109
0.837381
0.837657
0.8379
0.838114
0.838334
0.838563
0.838788
0.838996
0.839174
0.839335
0.839507
0.839701
0.839878
0.840018
0.840157
0.840314
0.840487
0.840682
0.840887
0.841075
0.841246
0.841417
0.841599
0.841796
0.842008
0.842225
0.842424
0.842604
0.842769
0.842929
0.843091
0.843256
0.843417
0.843554
0.843664
0.843754
0.843832
0.843902
0.843961
0.844006
0.844033
0.844044
0.844035
0.844001
0.843941
0.843862
0.843768
0.843663
0.843549
0.843416
0.843253
0.843067
0.842871
0.842666
0.842451
0.842222
0.841973
0.841706
0.841426
0.841134
0.840832
0.840517
0.840189
0.839846
0.839492
0.839131
0.838763
0.838388
0.837999
0.837595
0.83718
0.836757
0.836329
0.835899
0.835464
0.835021
0.834568
0.834105
0.833635
0.83316
0.832681
0.832199
0.831715
0.831228
0.830734
0.830233
0.829726
0.829215
0.828702
0.828187
0.827669
0.827147
0.826618
0.826082
0.825538
0.824984
0.824419
0.823848
0.823276
0.822705
0.822137
0.821573
0.821013
0.820458
0.819906
0.819357
0.818808
0.818262
0.817723
0.817196
0.816686
0.816197
0.815732
0.815291
0.814877
0.814488
0.814122
0.813781
0.813467
0.813179
0.812917
0.812682
0.812474
0.812293
0.812138
0.812007
0.8119
0.811814
0.811751
0.811707
0.811681
0.811671
0.811675
0.811692
0.81172
0.811761
0.81181
0.811867
0.811929
0.811995
0.812064
0.812133
0.812203
0.812272
0.812341
0.812409
0.812477
0.812543
0.812607
0.812669
0.812729
0.812786
0.812841
0.812893
0.812941
0.812984
0.813023
0.813055
0.813082
0.813102
0.813116
0.813124
0.813126
0.813122
0.813112
0.813097
0.813077
0.813053
0.813023
0.812989
0.81295
0.812906
0.812859
0.812808
0.812753
0.812693
0.81263
0.812562
0.812491
0.812416
0.812337
0.812255
0.812169
0.812079
0.811986
0.811889
0.81179
0.811688
0.811584
0.811477
0.811368
0.811258
0.811146
0.811033
0.810918
0.810802
0.810686
0.810569
0.810452
0.810335
0.810219
0.810103
0.809987
0.809872
0.809758
0.809645
0.809534
0.809424
0.809317
0.80921
0.809106
0.809005
0.808906
0.808809
0.808713
0.808618
0.808525
0.808432
0.808342
0.80825
0.808155
0.808065
0.80798
0.807887
0.807808
0.807701
0.807577
0.807493
0.80742
0.807294
0.807293
0.807293
0.80752
0.807595
0.807741
0.807795
0.807847
0.80785
0.807837
0.807811
0.807786
0.807756
0.807727
0.80773
0.807683
0.807612
0.807566
0.807387
0.807185
0.806911
0.806758
0.806704
0.806751
0.806854
0.806933
0.807001
0.80705
0.807092
0.807127
0.807116
0.807101
0.807099
0.807026
0.807092
0.807046
0.806878
0.806877
0.806735
0.806454
0.806385
0.806278
0.806859
0.807091
0.807675
0.808197
0.808892
0.809634
0.810417
0.81115
0.811796
0.812349
0.812825
0.813222
0.813544
0.813807
0.81402
0.8142
0.814359
0.814494
0.8146
0.814691
0.814777
0.814852
0.81491
0.814958
0.815006
0.815057
0.815101
0.815135
0.81516
0.815181
0.815201
0.815216
0.81523
0.815247
0.815262
0.815267
0.815263
0.815252
0.815241
0.815234
0.815229
0.815226
0.815221
0.815211
0.815202
0.815192
0.815179
0.815164
0.815152
0.815144
0.815138
0.815129
0.815117
0.815101
0.815082
0.815062
0.815043
0.815024
0.815006
0.814989
0.814972
0.814955
0.814938
0.814919
0.814901
0.814883
0.814865
0.814843
0.814823
0.814797
0.81478
0.814753
0.814735
0.814712
0.814692
0.814674
0.814644
0.814612
0.814682
0.814375
0.814666
0.832883
0.914983
0.831878
0.794045
0.648862
0.636565
0.611634
0.631022
0.654232
0.694651
0.737274
0.771883
0.801444
0.834818
0.888123
0.954243
1.01069
1.05524
1.11464
1.20246
1.34614
1.48869
1.51427
1.52285
1.59874
1.70801
1.85183
2.02832
2.18513
2.13682
1.90868
1.67108
1.50557
1.39009
1.29585
1.20518
1.10072
0.998564
0.904358
0.805274
0.717773
0.670339
0.645558
0.629218
0.609613
0.58109
0.548264
0.527405
0.522055
0.52106
0.515953
0.501564
0.47723
0.450473
0.429106
0.416138
0.409911
0.408709
0.413818
0.426478
0.446062
0.466809
0.483139
0.493907
0.500495
0.505726
0.509938
0.514087
0.522627
0.54043
0.57236
0.619597
0.678709
0.748209
0.823406
0.896659
0.968969
1.03643
1.10479
1.17072
1.22329
1.27657
1.31736
1.35213
1.31167
1.29418
1.27598
1.25836
1.17864
1.04221
0.906112
0.773671
0.667956
0.602342
0.583912
0.613253
0.682034
0.78345
0.897453
1.01861
1.12649
1.18146
1.15118
1.03924
0.899014
0.735597
0.586529
0.461258
0.373179
0.305929
0.258077
0.232897
0.229318
0.244817
0.271958
0.301774
0.322889
0.342033
0.359534
0.364807
0.33199
0.284789
0.255327
0.222354
0.197001
0.181005
0.168933
0.160199
0.155044
0.151509
0.14977
0.149345
0.149252
0.149383
0.14983
0.150595
0.151653
0.152824
0.154029
0.155153
0.156282
0.15743
0.158538
0.159523
0.16036
0.161165
0.162125
0.163295
0.164612
0.165891
0.166975
0.167907
0.168967
0.170306
0.171773
0.173193
0.174526
0.175778
0.176959
0.178124
0.179346
0.18061
0.181837
0.182924
0.18392
0.184999
0.186089
0.186905
0.187411
0.187971
0.188737
0.189432
0.189622
0.189147
0.188434
0.188028
0.187947
0.187878
0.18738
0.186115
0.18414
0.181797
0.179489
0.177569
0.176065
0.174622
0.172695
0.170063
0.167186
0.164689
0.162705
0.160889
0.158746
0.156075
0.153049
0.150086
0.147585
0.145589
0.143762
0.141555
0.138761
0.135752
0.133013
0.130628
0.128396
0.126073
0.123511
0.120913
0.118635
0.11668
0.11445
0.111737
0.108944
0.10642
0.104362
0.10267
0.100958
0.0988337
0.0963565
0.0938782
0.0916875
0.0899312
0.0884933
0.0870797
0.0854349
0.0835713
0.0816977
0.08003
0.0787352
0.0777321
0.0767662
0.0756221
0.0743114
0.0730411
0.0719903
0.0711863
0.0705575
0.070062
0.0696462
0.0692529
0.0688585
0.0683878
0.0679175
0.0675949
0.0674946
0.0676833
0.0680527
0.0682024
0.0680782
0.067982
0.0681008
0.0684646
0.0689446
0.0693325
0.0695624
0.0697143
0.0699261
0.0702825
0.0706933
0.0710558
0.0713271
0.0714873
0.0716638
0.072028
0.072612
0.0732738
0.0736151
0.073584
0.0735433
0.0736778
0.0739661
0.0744037
0.0749452
0.0754221
0.0756515
0.0756835
0.0757036
0.0758021
0.0759408
0.0761245
0.0764975
0.0770191
0.0772956
0.0772111
0.077106
0.07717
0.0773096
0.077487
0.0777576
0.0780015
0.0780615
0.0779738
0.0778951
0.0778787
0.0778936
0.0780045
0.0781055
0.0780737
0.0779277
0.0777233
0.0775016
0.077398
0.0773456
0.0771392
0.0767963
0.0763771
0.0760253
0.0756796
0.0752467
0.0747172
0.0741645
0.0737151
0.0733609
0.07293
0.0723067
0.0716477
0.0711046
0.0706202
0.0701603
0.0697171
0.0693122
0.0689587
0.0686593
0.0684186
0.0681838
0.0679783
0.0678936
0.0678902
0.0678689
0.0678112
0.0677875
0.0678722
0.0680492
0.0682439
0.0683032
0.0681892
0.0680271
0.0679563
0.0679106
0.0678355
0.0677026
0.0675132
0.0672974
0.0670942
0.0668977
0.066627
0.0662912
0.06593
0.0655931
0.0652945
0.0650007
0.0646646
0.0642854
0.0639153
0.0635766
0.0632453
0.06291
0.0625783
0.0622353
0.0618808
0.0615405
0.0612166
0.0609056
0.0606156
0.0603506
0.0600769
0.0597667
0.0594202
0.0590835
0.0587954
0.0585299
0.0582177
0.0578448
0.0574697
0.0571337
0.0568296
0.0565369
0.0562501
0.0559795
0.0556986
0.0553476
0.0549402
0.0545739
0.0542598
0.053963
0.0536648
0.0533509
0.0530052
0.0526466
0.0523244
0.0520274
0.0517009
0.051331
0.0509674
0.0506331
0.0503089
0.0500027
0.0497298
0.0494399
0.0490922
0.0487113
0.0483379
0.048012
0.0477129
0.0474328
0.0471149
0.0467381
0.0462915
0.0459356
0.0455787
0.0452663
0.0449255
0.0445313
0.0441444
0.0437704
0.043522
0.0433113
0.043129
0.0427836
0.0423917
0.0418031
0.0418803
0.0426657
0.0438181
0.0444718
0.0455754
0.0463002
0.047616
0.0496129
0.0527413
0.0492853
0.0432903
0.0428044
0.0410187
0.040919
0.0400657
0.0394447
0.038881
0.0388959
0.0391785
0.0418965
0.0462984
0.0493998
0.0501764
0.0505613
0.0483195
0.0439885
0.0381744
0.034905
0.0342964
0.0335734
0.0326519
0.031895
0.0322178
0.0329753
0.0340935
0.0354342
0.0365142
0.0365565
0.038
0.0393459
0.047354
0.065539
0.0817555
0.102591
0.116978
0.121006
0.106023
0.130054
0.137032
0.0963216
0.0870687
0.0797248
0.0737482
0.0676705
0.0614058
0.0552528
0.0499568
0.0459681
0.0433275
0.0417631
0.0409767
0.0407404
0.040857
0.0412316
0.0417768
0.0423783
0.0429668
0.0435784
0.0442323
0.0448505
0.04538
0.0458711
0.0464161
0.0470264
0.0476122
0.0481107
0.0485098
0.0488721
0.0492294
0.0495649
0.0499207
0.0503169
0.0506813
0.0509221
0.0510062
0.0509788
0.0509362
0.0509592
0.0510603
0.0512358
0.0514402
0.0516389
0.0518323
0.0520064
0.0521472
0.0522854
0.0524826
0.052768
0.053113
0.0534549
0.0537278
0.0539004
0.0539838
0.0540161
0.0540368
0.0540732
0.0541391
0.054227
0.054319
0.0544026
0.0544747
0.0545497
0.0546305
0.0547528
0.0548509
0.0549969
0.0550361
0.0551396
0.0551899
0.0552529
0.0553467
0.0553774
0.0555392
0.0552521
0.0552115
0.0560869
0.0567492
0.0658953
0.0643115
0.591747
0.568381
0.393436
0.300428
0.216414
0.184108
0.167099
0.173914
0.195318
0.248829
0.306755
0.358734
0.41013
0.475815
0.590632
0.771021
0.91939
1.01557
1.08542
1.1374
1.17646
1.21482
1.30632
1.49961
1.71892
1.92887
2.08808
2.15601
2.1844
2.1244
1.94664
1.74246
1.57298
1.41091
1.2422
1.08003
0.93825
0.816139
0.702672
0.597558
0.515533
0.462813
0.433267
0.41583
0.399665
0.380208
0.358812
0.342551
0.334936
0.331125
0.32622
0.316822
0.301966
0.283659
0.265185
0.250542
0.24268
0.242009
0.247721
0.259175
0.275345
0.291851
0.303657
0.308365
0.310697
0.313152
0.314209
0.313673
0.311961
0.31068
0.31086
0.31775
0.334888
0.36423
0.404346
0.44951
0.49317
0.53243
0.570967
0.614196
0.668018
0.735535
0.8203
0.918487
1.05364
1.198
1.29886
1.32551
1.27946
1.23916
1.16075
1.03846
0.878513
0.737726
0.622441
0.550472
0.525657
0.548305
0.601901
0.667494
0.731661
0.770092
0.782727
0.74602
0.674623
0.59613
0.51898
0.447712
0.384
0.32656
0.269407
0.211052
0.161154
0.125132
0.109402
0.108105
0.113044
0.117628
0.12263
0.124887
0.131866
0.137147
0.135136
0.114891
0.08786
0.0727629
0.0580617
0.047851
0.0409503
0.0363966
0.0332262
0.0315572
0.0307626
0.0306146
0.0308681
0.0312858
0.0316623
0.0319844
0.0323166
0.0326671
0.0331122
0.0336199
0.0341358
0.0346173
0.0350544
0.0354702
0.0358952
0.0363386
0.0368693
0.0375146
0.0381714
0.0387326
0.0392163
0.0397357
0.0403766
0.0411124
0.0418781
0.0425916
0.043176
0.0436718
0.0441818
0.0447538
0.0453714
0.045984
0.0465215
0.0469877
0.047428
0.0477974
0.0480559
0.048324
0.0486771
0.0489743
0.0490682
0.0488477
0.0484911
0.0482809
0.0481581
0.0480137
0.0476979
0.0470578
0.046149
0.0450804
0.0439584
0.0429442
0.042104
0.0413447
0.0404595
0.0392973
0.0379661
0.0367307
0.0357031
0.0347958
0.0338586
0.0327706
0.0315296
0.0302869
0.0291996
0.0283014
0.0274969
0.0265963
0.0255506
0.024464
0.0234672
0.0225812
0.0217413
0.0208942
0.0200277
0.0191853
0.0184313
0.0177553
0.0170311
0.0162249
0.0154253
0.014703
0.014089
0.0135637
0.0130597
0.0125029
0.0118959
0.0112978
0.010759
0.0103058
0.00992454
0.00957054
0.0092003
0.008807
0.00841609
0.00806138
0.00776967
0.00753126
0.00730826
0.00706833
0.0068151
0.00657668
0.00637751
0.00622297
0.00610134
0.00599873
0.00590318
0.00580818
0.00571821
0.00563584
0.00556973
0.00552814
0.00551601
0.00553619
0.00557191
0.00558743
0.00558299
0.00559109
0.0056284
0.00568999
0.00575877
0.00581605
0.00586323
0.0059136
0.00598027
0.0060651
0.00614306
0.00620043
0.00624781
0.00629437
0.00635179
0.00643487
0.00654455
0.00665814
0.00672576
0.00674541
0.00676459
0.00681012
0.00688062
0.00696824
0.00705982
0.00714047
0.0071994
0.00724078
0.0072753
0.00731022
0.00734512
0.00738923
0.00746527
0.00755973
0.00761921
0.007629
0.00763462
0.00766651
0.0077088
0.00774843
0.00779524
0.00783935
0.00786236
0.00787198
0.00788422
0.00789741
0.00790398
0.00791831
0.00793575
0.00794917
0.00795238
0.00793374
0.00789617
0.00787051
0.0078624
0.00784561
0.00780366
0.00773076
0.0076627
0.00760865
0.00755205
0.00747196
0.00737725
0.00729855
0.00723665
0.00717196
0.00708012
0.00696951
0.00687436
0.00679391
0.00672167
0.00665481
0.00658965
0.00652672
0.00647044
0.00642504
0.00638561
0.00635392
0.00633703
0.00632725
0.00631384
0.00629846
0.00629114
0.0062991
0.00631747
0.0063344
0.00633433
0.00631638
0.00628763
0.00626748
0.00624919
0.00622664
0.00619956
0.00616637
0.00612796
0.00608926
0.00604761
0.00599144
0.00592912
0.00586763
0.00581079
0.00575835
0.0057055
0.0056476
0.00558506
0.00552403
0.00546781
0.00541487
0.00536398
0.00531388
0.00526028
0.00520497
0.00515406
0.00510707
0.00506204
0.00501904
0.00497882
0.00493837
0.00489577
0.00485125
0.00480812
0.00476968
0.00473359
0.00469222
0.00464348
0.00459352
0.00454952
0.00451139
0.00447506
0.00443767
0.00440026
0.00436241
0.00432094
0.00427619
0.00423418
0.00419732
0.00416251
0.00412652
0.00408922
0.00405023
0.00401091
0.00397445
0.00393966
0.00390327
0.00386567
0.00382919
0.0037947
0.00376028
0.00373007
0.0037013
0.00367015
0.00363421
0.00359513
0.00355503
0.00351989
0.00348588
0.00345498
0.00342217
0.00338353
0.00333845
0.00328375
0.00325418
0.00321659
0.00316391
0.00312954
0.00309543
0.00307241
0.00304618
0.0030095
0.00298806
0.00299489
0.0030988
0.00318161
0.00327758
0.00341413
0.00354643
0.00357249
0.00352104
0.0035251
0.00340612
0.00326404
0.00340116
0.00318926
0.00295612
0.00287524
0.00275948
0.00268085
0.00262213
0.00269868
0.00295176
0.00323983
0.00350675
0.00370259
0.00399327
0.00397189
0.00353965
0.00287181
0.00245015
0.00230423
0.00215604
0.00212702
0.00209076
0.00208207
0.00212435
0.00215891
0.00224455
0.00228126
0.00226016
0.00242051
0.00266537
0.00322905
0.00455747
0.00632331
0.00893178
0.012579
0.013972
0.0123414
0.0137974
0.0137608
0.00856397
0.010199
0.0080296
0.00569064
0.00533376
0.00506633
0.00478133
0.00445082
0.00409011
0.00372443
0.00339264
0.00312689
0.00294047
0.00281986
0.00274741
0.00271364
0.00270795
0.0027259
0.00276243
0.00280782
0.00285452
0.00290497
0.00296179
0.00301855
0.00307009
0.0031205
0.00317719
0.00324101
0.00330428
0.00336148
0.00341036
0.00345449
0.00349725
0.00354011
0.00358639
0.00363579
0.00368036
0.00371069
0.00372496
0.00372898
0.00373145
0.00373927
0.00375378
0.00377449
0.00379722
0.00381996
0.00384445
0.00386926
0.00389163
0.00391387
0.00394139
0.00397628
0.00401544
0.00405311
0.00408407
0.00410589
0.00411931
0.00412724
0.00413321
0.00414031
0.00415022
0.00416276
0.0041762
0.00418875
0.00419995
0.00421182
0.00422536
0.00424272
0.00425807
0.00427444
0.00428277
0.00429465
0.00430389
0.00431252
0.0043214
0.0043264
0.00433882
0.00432344
0.00431789
0.00437318
0.00448574
0.00521316
0.00524055
0.396096
0.323917
0.206254
0.152959
0.112836
0.0905059
0.0897576
0.106593
0.135042
0.177711
0.234962
0.302413
0.387669
0.493442
0.600128
0.703738
0.828654
0.900803
0.947655
0.974842
1.00371
1.05204
1.12239
1.20807
1.30369
1.41212
1.51445
1.55911
1.57317
1.55221
1.46784
1.34984
1.21365
1.07433
0.94136
0.809044
0.690219
0.580215
0.475093
0.382767
0.31838
0.281049
0.260966
0.248644
0.23748
0.22454
0.21101
0.20101
0.196451
0.194624
0.192863
0.188694
0.180979
0.170608
0.159668
0.150395
0.143949
0.140879
0.14128
0.144611
0.149586
0.153744
0.156417
0.160521
0.167299
0.174461
0.179306
0.181091
0.179782
0.176765
0.173781
0.173227
0.177928
0.189379
0.207115
0.229745
0.256633
0.286786
0.320513
0.35972
0.406861
0.463829
0.532157
0.613375
0.705113
0.805622
0.908505
1.01718
1.12729
1.20349
1.18347
1.07915
0.98645
0.876437
0.753818
0.619493
0.522893
0.458354
0.430013
0.432783
0.455786
0.480078
0.489019
0.481607
0.453408
0.421507
0.383709
0.346006
0.313486
0.284151
0.2539
0.224048
0.19167
0.159431
0.127008
0.0974972
0.0736139
0.0590581
0.0515984
0.0481894
0.0454265
0.044516
0.0442084
0.0470471
0.0500416
0.05091
0.0429061
0.0318388
0.0251376
0.0193084
0.0153865
0.0126394
0.0109443
0.00986041
0.00923731
0.00886147
0.00871771
0.00871212
0.00874565
0.00878203
0.00881868
0.00889058
0.00901076
0.00915433
0.00929288
0.00941367
0.00952505
0.00965276
0.00982087
0.0100175
0.0102072
0.0103729
0.0105293
0.0107098
0.0109163
0.0111238
0.0113263
0.0115373
0.0117525
0.011954
0.0121277
0.0122875
0.0124583
0.0126242
0.012772
0.0129211
0.0130679
0.0131785
0.0132345
0.0132813
0.0133627
0.0134371
0.0134353
0.0133532
0.0132327
0.0131193
0.0130269
0.0129338
0.0128053
0.0126054
0.0123348
0.0120191
0.0116664
0.0113267
0.0110352
0.0107763
0.0105129
0.0101938
0.00981905
0.00944121
0.00910648
0.00881201
0.00854388
0.00826966
0.00795747
0.00763065
0.00732814
0.00706585
0.00683829
0.00660642
0.00634736
0.00607731
0.00582407
0.00559582
0.00537837
0.00516304
0.00495255
0.00475096
0.00456459
0.00439275
0.00421975
0.00404184
0.00387048
0.0037138
0.00357232
0.00344421
0.00332456
0.00320554
0.00308614
0.00297004
0.00286065
0.002761
0.00267312
0.00259442
0.00251974
0.00244631
0.00237356
0.00230399
0.00224102
0.00218492
0.00213374
0.00208501
0.00203818
0.00199478
0.00195666
0.00192335
0.00189288
0.00186434
0.001838
0.00181478
0.0017951
0.00177824
0.00176359
0.00175087
0.00174043
0.00173281
0.0017279
0.00172473
0.00172319
0.00172372
0.00172584
0.00172802
0.00172999
0.00173298
0.00173798
0.00174557
0.00175515
0.00176485
0.00177256
0.0017788
0.00178578
0.00179438
0.00180445
0.00181593
0.00182941
0.00184392
0.00185523
0.0018629
0.00187075
0.00188149
0.00189452
0.0019076
0.00191958
0.00193132
0.00194345
0.001956
0.00196812
0.00197872
0.00198776
0.00199692
0.00200912
0.00202344
0.00203589
0.0020454
0.00205424
0.00206426
0.00207393
0.00208207
0.0020907
0.00210012
0.00210895
0.00211726
0.00212454
0.00213005
0.00213348
0.00213735
0.0021419
0.00214678
0.00215137
0.00215225
0.00214885
0.00214581
0.00214538
0.002144
0.00213821
0.00212745
0.00211663
0.00210803
0.00209904
0.00208586
0.00206952
0.0020544
0.002041
0.00202734
0.00201006
0.00198874
0.00196841
0.00195015
0.00193299
0.00191588
0.00189787
0.00187941
0.00186144
0.00184492
0.00182932
0.00181477
0.00180175
0.00178917
0.00177614
0.001763
0.00175108
0.00174145
0.00173354
0.00172542
0.00171542
0.00170457
0.00169319
0.00168281
0.00167287
0.00166281
0.00165308
0.00164345
0.00163327
0.0016227
0.0016115
0.00159901
0.00158696
0.00157578
0.00156537
0.00155566
0.00154625
0.00153662
0.00152651
0.00151654
0.00150748
0.00149945
0.00149215
0.00148504
0.00147747
0.00147001
0.00146346
0.00145755
0.00145192
0.00144642
0.00144123
0.00143635
0.00143167
0.00142707
0.0014224
0.00141794
0.00141405
0.00141016
0.00140564
0.00140065
0.00139613
0.00139232
0.00138875
0.00138501
0.00138112
0.00137734
0.00137356
0.00136965
0.00136581
0.00136228
0.00135891
0.00135522
0.00135127
0.00134734
0.00134354
0.00133981
0.00133592
0.00133184
0.001328
0.00132441
0.00132094
0.00131736
0.00131395
0.00131091
0.0013081
0.00130501
0.00130127
0.00129702
0.0012939
0.00129083
0.00128705
0.00128307
0.00127869
0.00127485
0.00127011
0.00126992
0.0012704
0.00126881
0.0012711
0.00126714
0.00127641
0.00129263
0.001355
0.00140306
0.00147899
0.00157327
0.00172281
0.00169219
0.0015546
0.00148529
0.00141529
0.00136267
0.00131614
0.001286
0.00126441
0.00127388
0.00127748
0.00128392
0.00132531
0.00144438
0.0015584
0.00170836
0.00185046
0.00200177
0.00223182
0.00238447
0.00223933
0.00195278
0.00168669
0.001565
0.00141215
0.00133548
0.00126804
0.00124827
0.00127171
0.00129936
0.00136462
0.0013527
0.00149867
0.00166839
0.00187436
0.00219078
0.00299629
0.00419752
0.0060575
0.00850622
0.00953029
0.00885028
0.0082021
0.00754211
0.00581735
0.00516697
0.0040077
0.00286502
0.00238573
0.00209483
0.00193747
0.00184917
0.00179174
0.00174113
0.00170172
0.00167098
0.00164058
0.00160622
0.0015699
0.00153693
0.00150823
0.00148279
0.00146099
0.00144246
0.00142855
0.00141932
0.00141224
0.00140556
0.00140029
0.0013975
0.00139603
0.00139482
0.00139436
0.00139554
0.00139815
0.0014007
0.00140271
0.00140424
0.00140585
0.00140809
0.00141109
0.0014147
0.00141865
0.00142216
0.00142424
0.00142503
0.00142525
0.00142564
0.00142667
0.00142824
0.00143026
0.00143203
0.00143356
0.0014355
0.00143765
0.00143951
0.0014413
0.00144355
0.00144635
0.00144932
0.00145205
0.00145425
0.00145584
0.00145696
0.00145779
0.00145852
0.00145931
0.0014602
0.00146127
0.00146244
0.00146353
0.00146444
0.00146549
0.00146655
0.00146844
0.00146935
0.00147129
0.00147092
0.00147271
0.00147336
0.00147367
0.0014746
0.00147443
0.00147874
0.00147445
0.00147868
0.00151317
0.00157533
0.00191866
0.00194827
0.257243
0.196797
0.126118
0.0938731
0.0734595
0.0629526
0.0680604
0.0840271
0.109339
0.140738
0.180546
0.233143
0.300454
0.387168
0.477077
0.555081
0.628544
0.686931
0.722854
0.737818
0.752755
0.77283
0.797823
0.832408
0.88018
0.937799
0.983898
0.994251
0.980082
0.953976
0.903809
0.837272
0.763061
0.686532
0.605619
0.522812
0.440894
0.359986
0.284777
0.225185
0.188012
0.167253
0.154904
0.146664
0.139883
0.133109
0.126611
0.121619
0.118728
0.117175
0.116076
0.114252
0.110895
0.106041
0.100415
0.0948142
0.0899352
0.0864948
0.0849259
0.0849779
0.0858361
0.0869315
0.0886303
0.0916903
0.0963929
0.101905
0.105645
0.107217
0.106899
0.105238
0.103446
0.102124
0.102856
0.106525
0.113319
0.122947
0.135403
0.150971
0.170482
0.195181
0.226862
0.267018
0.317189
0.376976
0.444168
0.515207
0.587528
0.658091
0.726801
0.792512
0.845524
0.900495
0.906525
0.848662
0.749096
0.652943
0.55612
0.463307
0.385533
0.334734
0.306323
0.295212
0.293349
0.29153
0.284636
0.272073
0.258247
0.241486
0.224809
0.210559
0.19828
0.186447
0.173748
0.158429
0.141787
0.122921
0.103984
0.0847548
0.0665402
0.0499707
0.0380902
0.0302541
0.0258141
0.023013
0.0221819
0.0223129
0.0244715
0.0271818
0.0288996
0.0253103
0.019398
0.0156522
0.0122887
0.00988626
0.00796854
0.00703692
0.00619676
0.0055251
0.0050026
0.00465869
0.004442
0.00431615
0.00426169
0.00424202
0.00423288
0.00423244
0.00424365
0.00427512
0.00433436
0.00440605
0.0044688
0.00451921
0.00457208
0.00464157
0.00472274
0.00480354
0.00487701
0.00494857
0.00502771
0.00510995
0.00518037
0.00524185
0.00530735
0.00536682
0.00541547
0.00546802
0.00552239
0.00556403
0.00558922
0.00560764
0.0056301
0.00565331
0.00565472
0.0056346
0.00560693
0.00556939
0.0055287
0.00548819
0.00544179
0.00538426
0.00531177
0.00522215
0.00511242
0.00500297
0.00490208
0.00481197
0.00473178
0.00463662
0.00452367
0.00440423
0.00429338
0.00419366
0.00410263
0.00401726
0.00392469
0.00382375
0.00372238
0.00362958
0.00354892
0.0034733
0.00339242
0.0033062
0.00322352
0.00314877
0.0030783
0.00300773
0.00293631
0.00286571
0.0027991
0.00273774
0.00267864
0.00261931
0.00256111
0.00250414
0.00244711
0.00239237
0.00234183
0.00229461
0.00224894
0.00220311
0.00215678
0.00211107
0.00206822
0.00202918
0.00199263
0.00195759
0.00192345
0.00188941
0.00185556
0.00182271
0.00179218
0.00176457
0.00173885
0.00171429
0.00169123
0.0016695
0.00164817
0.00162762
0.00160947
0.00159409
0.00158059
0.00156785
0.00155509
0.00154261
0.00153147
0.00152264
0.00151621
0.00151161
0.00150812
0.00150479
0.00150102
0.00149722
0.00149432
0.00149314
0.0014935
0.00149492
0.00149661
0.00149762
0.00149873
0.00150109
0.00150433
0.00150807
0.00151184
0.00151494
0.00151791
0.00152192
0.00152703
0.00153268
0.00153861
0.00154437
0.00154923
0.00155355
0.00155871
0.00156504
0.00157161
0.00157801
0.00158462
0.0015914
0.00159765
0.00160311
0.00160866
0.00161489
0.00162188
0.00162936
0.00163653
0.00164246
0.00164724
0.00165262
0.00165873
0.00166466
0.00167087
0.00167672
0.00168075
0.0016846
0.00168899
0.00169299
0.00169631
0.00169919
0.00170165
0.00170328
0.00170446
0.00170524
0.00170527
0.00170402
0.0017017
0.00169919
0.00169585
0.0016917
0.00168686
0.00168092
0.0016742
0.00166691
0.001659
0.00165009
0.00164034
0.00163008
0.00161929
0.00160817
0.00159678
0.00158463
0.00157187
0.00155923
0.00154647
0.00153354
0.00152042
0.00150728
0.0014943
0.00148145
0.00146879
0.0014561
0.00144367
0.00143206
0.00142115
0.00141023
0.00139901
0.00138846
0.00137866
0.00136934
0.00136056
0.00135206
0.00134389
0.00133596
0.00132833
0.00132088
0.0013137
0.00130704
0.00130064
0.0012945
0.00128874
0.00128337
0.00127848
0.00127401
0.00126959
0.0012651
0.0012609
0.00125721
0.00125395
0.00125098
0.00124817
0.00124549
0.00124307
0.00124095
0.00123903
0.00123716
0.00123539
0.00123376
0.00123227
0.00123096
0.00122976
0.00122847
0.00122724
0.00122633
0.00122557
0.00122457
0.00122337
0.00122221
0.00122126
0.00122045
0.00121959
0.00121864
0.00121771
0.00121677
0.0012158
0.0012148
0.00121399
0.00121317
0.00121215
0.00121097
0.00120981
0.00120877
0.00120755
0.00120614
0.00120457
0.00120326
0.00120209
0.00120092
0.00119947
0.00119804
0.00119673
0.00119554
0.00119475
0.00119345
0.00119204
0.00119082
0.00119176
0.00119048
0.00119432
0.00119765
0.00120923
0.00120484
0.00120093
0.00121483
0.00123359
0.00129663
0.00134834
0.00142662
0.00152255
0.00167671
0.00163711
0.00148965
0.00141654
0.00134734
0.00129713
0.00124655
0.00122076
0.00120658
0.0012168
0.00122192
0.00123529
0.00128508
0.00142111
0.00158051
0.00179675
0.00195598
0.0022338
0.00239987
0.00233623
0.00211692
0.00179809
0.0015692
0.00148196
0.00136293
0.00130219
0.00125065
0.00123589
0.00125329
0.00128401
0.00134563
0.00138462
0.00158528
0.00187053
0.00230844
0.00311341
0.00457868
0.00546319
0.00757409
0.00962645
0.0103742
0.00928876
0.0084006
0.00747585
0.00582319
0.00507314
0.00390616
0.00286065
0.00234031
0.00200531
0.00181569
0.00169649
0.00163075
0.00159537
0.00158062
0.00157199
0.00156234
0.00155137
0.00154033
0.00152715
0.00151038
0.00149103
0.0014711
0.00145141
0.00143299
0.00141665
0.0014027
0.00139108
0.00138103
0.00137138
0.00136189
0.00135389
0.001348
0.00134328
0.00133906
0.00133539
0.0013324
0.00133001
0.00132797
0.00132641
0.00132546
0.00132448
0.00132345
0.00132281
0.00132269
0.00132291
0.0013231
0.00132295
0.00132249
0.00132188
0.00132139
0.00132117
0.00132121
0.00132139
0.00132152
0.00132154
0.00132163
0.00132176
0.00132182
0.00132187
0.00132201
0.00132224
0.00132252
0.00132274
0.00132281
0.00132278
0.00132276
0.00132279
0.00132285
0.00132288
0.00132284
0.00132277
0.00132272
0.0013227
0.00132262
0.00132263
0.00132255
0.00132297
0.00132241
0.00132295
0.00132195
0.00132306
0.00132287
0.00132224
0.00132246
0.00132192
0.0013255
0.00132178
0.00132635
0.00135884
0.00141624
0.00172836
0.00175767
0.164389
0.128153
0.0848837
0.0639038
0.0535946
0.0492693
0.0549206
0.0670871
0.0829045
0.100656
0.124606
0.156504
0.201382
0.259352
0.319544
0.375208
0.423287
0.455827
0.480207
0.490653
0.496589
0.501221
0.507035
0.518251
0.535735
0.554233
0.561752
0.550969
0.527696
0.49982
0.46974
0.439921
0.409871
0.376529
0.338267
0.294166
0.246341
0.199676
0.160325
0.132536
0.114969
0.103965
0.0966443
0.0915913
0.0878333
0.0847031
0.0819163
0.0794644
0.0774986
0.0760477
0.0750887
0.0742296
0.0729996
0.0710956
0.0683434
0.0650528
0.0617401
0.0589324
0.0570376
0.0560183
0.0556141
0.0558434
0.0567435
0.0585058
0.0612321
0.064705
0.0676808
0.0690041
0.0690705
0.0683668
0.0674692
0.066736
0.0667392
0.0679237
0.0704771
0.0745921
0.0805307
0.0884027
0.0983468
0.110701
0.126137
0.146287
0.173323
0.208103
0.250423
0.299403
0.350395
0.400158
0.446668
0.488756
0.525171
0.553542
0.572302
0.576455
0.579252
0.553372
0.502329
0.437294
0.372914
0.316222
0.269267
0.234307
0.208696
0.19096
0.178696
0.169655
0.16246
0.155984
0.150379
0.145343
0.140787
0.136925
0.13389
0.130449
0.12576
0.119281
0.110151
0.0995011
0.087022
0.0744512
0.0615939
0.0493694
0.0381039
0.0294246
0.0233008
0.0198228
0.0178219
0.0175419
0.018342
0.0211668
0.0246725
0.0273339
0.02496
0.0202159
0.0164551
0.0134103
0.0111249
0.00917177
0.00743601
0.00622336
0.00530739
0.00459694
0.00414022
0.0038482
0.0036567
0.00353825
0.00346141
0.00341889
0.00341533
0.00343158
0.00344459
0.00345661
0.00347974
0.00351673
0.00356019
0.00360205
0.00363407
0.00366168
0.00369752
0.00374242
0.00378412
0.00381826
0.00384811
0.00386902
0.00388492
0.00390821
0.00393582
0.003958
0.00397328
0.00397993
0.00397904
0.00398384
0.00399114
0.00399225
0.00398722
0.00397
0.00394623
0.00392336
0.00390715
0.00389578
0.00387653
0.00384294
0.00380143
0.00375781
0.00370876
0.00366743
0.00364042
0.00360735
0.00356403
0.00351264
0.0034581
0.00340949
0.00336506
0.00332394
0.00328558
0.00324134
0.0031868
0.0031332
0.00308417
0.00303862
0.0029967
0.00295266
0.00290603
0.00285977
0.00281428