/*--------------------------------*- C++ -*----------------------------------*\
| =========                 |                                                 |
| \\      /  F ield         | OpenFOAM: The Open Source CFD Toolbox           |
|  \\    /   O peration     | Version:  v2006                                 |
|   \\  /    A nd           | Website:  www.openfoam.com                      |
|    \\/     M anipulation  |                                                 |
\*---------------------------------------------------------------------------*/
FoamFile
{
    version     2.0;
    format      ascii;
    class       surfaceScalarField;
    location    "8.5";
    object      phi;
}
// * * * * * * * * * * * * * * * * * * * * * * * * * * * * * * * * * * * * * //

dimensions      [0 3 -1 0 0 0 0];
oriented        oriented;


internalField   nonuniform List<scalar> 
65390
(
1.63548e-05
8.97183e-06
1.09212e-05
5.43517e-06
8.71078e-06
2.21185e-06
1.15498e-05
-2.83781e-06
1.75739e-05
-6.0231e-06
2.4388e-05
-6.81337e-06
3.08747e-05
-6.48595e-06
3.62253e-05
-5.3501e-06
4.01823e-05
-3.95651e-06
4.32068e-05
-3.02405e-06
4.61962e-05
-2.98907e-06
4.96139e-05
-3.41743e-06
5.27657e-05
-3.15148e-06
5.49553e-05
-2.18938e-06
5.53681e-05
-4.12555e-07
5.3271e-05
2.09729e-06
4.76816e-05
5.58952e-06
3.90756e-05
8.60616e-06
3.04049e-05
8.67094e-06
2.42178e-05
6.18717e-06
2.096e-05
3.25795e-06
1.95495e-05
1.41056e-06
1.96235e-05
-7.38354e-08
2.05478e-05
-9.24253e-07
2.16231e-05
-1.07521e-06
2.23759e-05
-7.52775e-07
2.23032e-05
7.28431e-08
2.09744e-05
1.32885e-06
1.83531e-05
2.6214e-06
1.44268e-05
3.92629e-06
8.97922e-06
5.4477e-06
2.4003e-06
6.579e-06
-4.39911e-06
6.79948e-06
-1.11356e-05
6.73655e-06
-1.7045e-05
5.9095e-06
-2.1342e-05
4.29711e-06
-2.52064e-05
3.86449e-06
-2.93585e-05
4.15209e-06
-3.26477e-05
3.28928e-06
-3.45454e-05
1.89784e-06
-3.59236e-05
1.3783e-06
-3.75331e-05
1.60951e-06
-3.96262e-05
2.0932e-06
-4.22324e-05
2.6062e-06
-4.48341e-05
2.60178e-06
-4.6593e-05
1.75902e-06
-4.76675e-05
1.07454e-06
-4.85902e-05
9.22686e-07
-4.97763e-05
1.18622e-06
-5.14683e-05
1.69205e-06
-5.35473e-05
2.07898e-06
-5.53553e-05
1.80803e-06
-5.65258e-05
1.17057e-06
-5.7208e-05
6.82251e-07
-5.74985e-05
2.90523e-07
-5.75717e-05
7.32228e-08
-5.74782e-05
-9.35596e-08
-5.73128e-05
-1.65322e-07
-5.72194e-05
-9.34101e-08
-5.74946e-05
2.75142e-07
-5.83347e-05
8.40174e-07
-5.94817e-05
1.1469e-06
-6.06514e-05
1.16978e-06
-6.17014e-05
1.04997e-06
-6.25861e-05
8.84655e-07
-6.3351e-05
7.64898e-07
-6.39749e-05
6.23817e-07
-6.42693e-05
2.94432e-07
-6.39319e-05
-3.3747e-07
-6.28534e-05
-1.07847e-06
-6.11491e-05
-1.70439e-06
-5.88468e-05
-2.30234e-06
-5.59353e-05
-2.91146e-06
-5.24074e-05
-3.528e-06
-4.81297e-05
-4.27767e-06
-4.32134e-05
-4.91632e-06
-3.76718e-05
-5.54161e-06
-3.07808e-05
-6.89102e-06
-2.51395e-05
-5.64136e-06
-2.23455e-05
-2.79401e-06
-2.11836e-05
-1.16192e-06
-2.22319e-05
1.04831e-06
-2.33039e-05
1.07199e-06
-2.44186e-05
1.1146e-06
-2.60892e-05
1.67061e-06
-2.69263e-05
8.37101e-07
-2.73862e-05
4.59916e-07
-2.78036e-05
4.1739e-07
-2.82517e-05
4.48119e-07
-2.85102e-05
2.58467e-07
-2.85485e-05
3.83023e-08
-2.85714e-05
2.29122e-08
-2.83596e-05
-2.11798e-07
-2.79643e-05
-3.95304e-07
-2.73426e-05
-6.21721e-07
-2.63198e-05
-1.02281e-06
-2.44646e-05
-1.85522e-06
-2.20527e-05
-2.41194e-06
-1.91639e-05
-2.88876e-06
-1.73624e-05
-1.8015e-06
-1.69541e-05
-4.08313e-07
-1.6926e-05
-2.80825e-08
-1.73311e-05
4.05104e-07
-1.76436e-05
3.12436e-07
-1.82104e-05
5.66852e-07
-1.85655e-05
3.55049e-07
-1.86115e-05
4.60236e-08
-1.86266e-05
1.51322e-08
-1.86449e-05
1.8294e-08
-1.87125e-05
6.76182e-08
-1.8728e-05
1.54342e-08
-1.87497e-05
2.17106e-08
-1.86433e-05
-1.06368e-07
-1.83203e-05
-3.23037e-07
-1.7641e-05
-6.79282e-07
-1.66276e-05
-1.01342e-06
-1.51533e-05
-1.47427e-06
-1.41744e-05
-9.78949e-07
-1.39795e-05
-1.94899e-07
-1.40399e-05
6.03909e-08
-1.42613e-05
2.21433e-07
-1.4388e-05
1.26646e-07
-1.4708e-05
3.20011e-07
-1.49564e-05
2.48361e-07
-1.50533e-05
9.68948e-08
-1.51788e-05
1.25555e-07
-1.52857e-05
1.06927e-07
-1.53758e-05
9.00762e-08
-1.54843e-05
1.08466e-07
-1.5572e-05
8.77956e-08
-1.56392e-05
6.72299e-08
-1.57083e-05
6.90521e-08
-1.57625e-05
5.42415e-08
-1.57997e-05
3.71922e-08
-1.5828e-05
2.83963e-08
-1.58565e-05
2.84939e-08
-1.58837e-05
2.72462e-08
-1.59032e-05
1.95374e-08
-1.5917e-05
1.38364e-08
-1.59189e-05
1.92224e-09
-1.59124e-05
-6.44093e-09
-1.59035e-05
-8.93551e-09
-1.58905e-05
-1.29658e-08
-1.5868e-05
-2.24534e-08
-1.5834e-05
-3.39315e-08
-1.57845e-05
-4.94747e-08
-1.5722e-05
-6.24191e-08
-1.56532e-05
-6.88174e-08
-1.5582e-05
-7.11172e-08
-1.55071e-05
-7.48165e-08
-1.54187e-05
-8.83596e-08
-1.53085e-05
-1.10239e-07
-1.51874e-05
-1.20999e-07
-1.50621e-05
-1.25277e-07
-1.49318e-05
-1.30251e-07
-1.47928e-05
-1.38988e-07
-1.46419e-05
-1.50812e-07
-1.44801e-05
-1.61743e-07
-1.43078e-05
-1.72268e-07
-1.41277e-05
-1.80008e-07
-1.39401e-05
-1.87622e-07
-1.37441e-05
-1.95963e-07
-1.35408e-05
-2.03176e-07
-1.3327e-05
-2.13776e-07
-1.31002e-05
-2.26797e-07
-1.28659e-05
-2.34253e-07
-1.26305e-05
-2.35263e-07
-1.239e-05
-2.40446e-07
-1.21334e-05
-2.56639e-07
-1.1862e-05
-2.71254e-07
-1.15845e-05
-2.77533e-07
-1.13078e-05
-2.76649e-07
-1.10281e-05
-2.79617e-07
-1.07321e-05
-2.95926e-07
-1.04164e-05
-3.15685e-07
-1.00872e-05
-3.29155e-07
-9.74792e-06
-3.39199e-07
-9.4062e-06
-3.41673e-07
-9.0684e-06
-3.37749e-07
-8.72283e-06
-3.45516e-07
-8.36012e-06
-3.62653e-07
-7.98108e-06
-3.78986e-07
-7.57765e-06
-4.03387e-07
-7.15803e-06
-4.19572e-07
-6.73001e-06
-4.27963e-07
-6.29694e-06
-4.33031e-07
-5.86638e-06
-4.30511e-07
-5.42364e-06
-4.42695e-07
-4.957e-06
-4.66596e-07
-4.4711e-06
-4.85857e-07
-3.97917e-06
-4.91886e-07
-3.49346e-06
-4.85672e-07
-3.00943e-06
-4.83984e-07
-2.52227e-06
-4.87119e-07
-2.02544e-06
-4.96791e-07
-1.51955e-06
-5.0585e-07
-1.01362e-06
-5.05894e-07
-5.21949e-07
-4.91625e-07
-6.14874e-08
-4.60421e-07
3.70672e-07
-4.32119e-07
7.86814e-07
-4.16103e-07
1.19776e-06
-4.10911e-07
1.60301e-06
-4.0521e-07
1.99287e-06
-3.89823e-07
2.36211e-06
-3.69214e-07
2.71133e-06
-3.49184e-07
3.04681e-06
-3.35453e-07
3.37619e-06
-3.29353e-07
3.69705e-06
-3.20839e-07
4.00039e-06
-3.03318e-07
4.28026e-06
-2.79855e-07
4.55235e-06
-2.72079e-07
4.82384e-06
-2.71475e-07
5.08824e-06
-2.64391e-07
5.34298e-06
-2.54738e-07
5.58522e-06
-2.4224e-07
5.80843e-06
-2.23218e-07
6.01679e-06
-2.08356e-07
6.21825e-06
-2.01475e-07
6.41773e-06
-1.99481e-07
6.61238e-06
-1.94663e-07
6.79903e-06
-1.86663e-07
6.97579e-06
-1.76763e-07
7.13755e-06
-1.61771e-07
7.28718e-06
-1.49628e-07
7.42966e-06
-1.42478e-07
7.56784e-06
-1.38184e-07
7.70239e-06
-1.34541e-07
7.83116e-06
-1.2876e-07
7.95227e-06
-1.21091e-07
8.06123e-06
-1.08947e-07
8.16022e-06
-9.89617e-08
8.25408e-06
-9.38372e-08
8.34502e-06
-9.09192e-08
8.43306e-06
-8.8013e-08
8.51638e-06
-8.32936e-08
8.59336e-06
-7.69559e-08
8.66427e-06
-7.08836e-08
8.73003e-06
-6.57379e-08
8.79072e-06
-6.06697e-08
8.84562e-06
-5.48792e-08
8.89607e-06
-5.0437e-08
8.9443e-06
-4.82232e-08
8.9921e-06
-4.77887e-08
9.03807e-06
-4.59669e-08
9.08147e-06
-4.33997e-08
9.12066e-06
-3.91996e-08
9.15244e-06
-3.17865e-08
9.18244e-06
-3.00058e-08
9.21461e-06
-3.21782e-08
9.2466e-06
-3.19913e-08
9.27663e-06
-3.00437e-08
9.30421e-06
-2.75789e-08
9.32756e-06
-2.33578e-08
9.34866e-06
-2.10967e-08
9.36951e-06
-2.08529e-08
9.39024e-06
-2.07263e-08
9.41022e-06
-1.99736e-08
9.42801e-06
-1.77733e-08
9.44376e-06
-1.57351e-08
9.45756e-06
-1.37848e-08
9.47005e-06
-1.24726e-08
9.48213e-06
-1.20456e-08
9.4936e-06
-1.14396e-08
9.50302e-06
-9.38989e-09
9.50799e-06
-4.93083e-09
9.50873e-06
-7.03951e-10
9.50859e-06
1.79006e-10
9.50883e-06
-1.99228e-10
9.50755e-06
1.31684e-09
9.50375e-06
3.84326e-09
9.49739e-06
6.40445e-09
9.48776e-06
9.67212e-09
9.47322e-06
1.45744e-08
9.45501e-06
1.82488e-08
9.4348e-06
2.0241e-08
9.41296e-06
2.18748e-08
9.3886e-06
2.43903e-08
9.3611e-06
2.75301e-08
9.33078e-06
3.03497e-08
9.29742e-06
3.3383e-08
9.25887e-06
3.85833e-08
9.21497e-06
4.3935e-08
9.16875e-06
4.62478e-08
9.1208e-06
4.79752e-08
9.06955e-06
5.12721e-08
9.01445e-06
5.51226e-08
8.95595e-06
5.85052e-08
8.89362e-06
6.23426e-08
8.8264e-06
6.72235e-08
8.75523e-06
7.1174e-08
8.68117e-06
7.40661e-08
8.60427e-06
7.68966e-08
8.52397e-06
8.03059e-08
8.44043e-06
8.35516e-08
8.35305e-06
8.73762e-08
8.26113e-06
9.1917e-08
8.16554e-06
9.55813e-08
8.06675e-06
9.87637e-08
7.96494e-06
1.01781e-07
7.86041e-06
1.04489e-07
7.75254e-06
1.07826e-07
7.6403e-06
1.12191e-07
7.52451e-06
1.15748e-07
7.40585e-06
1.18606e-07
7.28484e-06
1.20961e-07
7.16087e-06
1.23923e-07
7.03358e-06
1.27253e-07
6.90325e-06
1.30279e-07
6.77051e-06
1.32701e-07
6.63574e-06
1.34732e-07
6.49852e-06
1.37187e-07
6.35797e-06
1.40523e-07
6.21424e-06
1.43702e-07
6.06854e-06
1.45682e-07
5.92135e-06
1.47168e-07
5.77223e-06
1.49109e-07
5.62098e-06
1.51235e-07
5.46759e-06
1.53388e-07
5.31212e-06
1.55462e-07
5.1547e-06
1.57413e-07
4.99545e-06
1.59239e-07
4.83433e-06
1.61115e-07
4.67106e-06
1.63252e-07
4.50606e-06
1.64994e-07
4.3399e-06
1.66146e-07
4.17229e-06
1.676e-07
4.0029e-06
1.69378e-07
3.83209e-06
1.70806e-07
3.66065e-06
1.71436e-07
3.48917e-06
1.71488e-07
3.3176e-06
1.7158e-07
3.14557e-06
1.72044e-07
2.97265e-06
1.72936e-07
2.79965e-06
1.73017e-07
2.62807e-06
1.71596e-07
2.45856e-06
1.69525e-07
2.29065e-06
1.67927e-07
2.12451e-06
1.66148e-07
1.96035e-06
1.64164e-07
1.79845e-06
1.61901e-07
1.63917e-06
1.59279e-07
1.48284e-06
1.56334e-07
1.32959e-06
1.53241e-07
1.17952e-06
1.5005e-07
1.03295e-06
1.46556e-07
8.89987e-07
1.4295e-07
7.50752e-07
1.39217e-07
6.15276e-07
1.35457e-07
4.83506e-07
1.31749e-07
3.55401e-07
1.28085e-07
2.31061e-07
1.24319e-07
1.10656e-07
1.20386e-07
-5.77827e-09
1.16416e-07
-1.18425e-07
1.1263e-07
-2.27466e-07
1.09026e-07
-3.3303e-07
1.0555e-07
-4.35219e-07
1.02178e-07
-5.3395e-07
9.87205e-08
-6.29267e-07
9.53086e-08
-7.21334e-07
9.20597e-08
-8.10256e-07
8.89162e-08
-8.96101e-07
8.58407e-08
-9.79113e-07
8.30083e-08
-1.05953e-06
8.0411e-08
-1.1373e-06
7.77757e-08
-1.21227e-06
7.49611e-08
-1.28416e-06
7.18932e-08
-1.35319e-06
6.9034e-08
-1.41986e-06
6.66599e-08
-1.48439e-06
6.45293e-08
-1.54637e-06
6.19787e-08
-1.60553e-06
5.91685e-08
-1.66207e-06
5.653e-08
-1.71628e-06
5.42151e-08
-1.76835e-06
5.20666e-08
-1.8183e-06
4.99506e-08
-1.86621e-06
4.79008e-08
-1.91228e-06
4.60765e-08
-1.95649e-06
4.42015e-08
-1.99845e-06
4.19674e-08
-2.03792e-06
3.94683e-08
-2.0755e-06
3.75779e-08
-2.11141e-06
3.59107e-08
-2.14563e-06
3.42186e-08
-2.17815e-06
3.25172e-08
-2.20895e-06
3.07992e-08
-2.23793e-06
2.89854e-08
-2.26511e-06
2.71763e-08
-2.29079e-06
2.5674e-08
-2.31508e-06
2.42822e-08
-2.33781e-06
2.27325e-08
-2.35872e-06
2.09018e-08
-2.37799e-06
1.92635e-08
-2.39579e-06
1.77855e-08
-2.41215e-06
1.63561e-08
-2.4271e-06
1.49392e-08
-2.44102e-06
1.39099e-08
-2.45384e-06
1.28157e-08
-2.46531e-06
1.14684e-08
-2.47548e-06
1.01608e-08
-2.4843e-06
8.80758e-09
-2.49208e-06
7.78148e-09
-2.499e-06
6.90784e-09
-2.50599e-06
6.9837e-09
-2.51258e-06
6.58603e-09
-2.51905e-06
6.46283e-09
-2.52382e-06
4.76802e-09
-2.52899e-06
5.16249e-09
-2.53367e-06
4.67963e-09
-2.53828e-06
4.60856e-09
-2.54205e-06
3.76973e-09
-2.54467e-06
2.62521e-09
-2.54785e-06
3.17587e-09
-2.54912e-06
1.27855e-09
-2.54922e-06
9.73993e-11
-2.54895e-06
-2.67878e-10
-2.54292e-06
-6.02724e-09
-2.53885e-06
-4.06011e-09
-2.54398e-06
5.12306e-09
-2.54163e-06
-2.34179e-09
-2.54109e-06
-5.42911e-10
-2.54096e-06
-1.39055e-10
-2.49492e-06
-4.60361e-08
-2.46289e-06
-3.20365e-08
-2.49042e-06
2.75289e-08
-2.47336e-06
-1.70676e-08
-2.53393e-06
6.05664e-08
-2.69037e-06
1.56443e-07
-2.97149e-06
2.81115e-07
-3.22131e-06
2.49822e-07
-3.34257e-06
1.21259e-07
-3.45881e-06
1.16236e-07
-3.53121e-06
7.23996e-08
-3.59857e-06
6.73537e-08
-3.65119e-06
5.26178e-08
-3.6997e-06
4.85079e-08
-3.7417e-06
4.19997e-08
-3.78039e-06
3.86833e-08
-3.80378e-06
2.33899e-08
-3.83821e-06
3.44291e-08
-3.85515e-06
1.69462e-08
-3.87904e-06
2.38953e-08
-3.95594e-06
7.69015e-08
-3.97359e-06
1.76585e-08
-3.96568e-06
-7.91022e-09
-3.97311e-06
7.43485e-09
-3.93075e-06
-4.23486e-08
-3.76111e-06
-1.69634e-07
-3.53755e-06
-2.23559e-07
-3.37509e-06
-1.6245e-07
-3.26956e-06
-1.05522e-07
-3.19292e-06
-7.66295e-08
-3.14887e-06
-4.40366e-08
-3.11337e-06
-3.54877e-08
-3.0956e-06
-1.77589e-08
-3.08024e-06
-1.53471e-08
-3.05459e-06
-2.56487e-08
-3.05745e-06
2.87593e-09
-3.042e-06
-1.54441e-08
-3.02367e-06
-1.83228e-08
-3.06365e-06
3.99833e-08
-2.95476e-06
-1.0889e-07
-2.81763e-06
-1.37121e-07
-2.96937e-06
1.51739e-07
-2.8609e-06
-1.08468e-07
-3.12118e-06
2.60263e-07
-3.27897e-06
1.57751e-07
-4.43415e-06
1.15511e-06
-5.68379e-06
1.24953e-06
-6.00278e-06
3.1879e-07
-6.07828e-06
7.5327e-08
-5.95548e-06
-1.2295e-07
-5.8085e-06
-1.47122e-07
-5.68535e-06
-1.23269e-07
-5.61407e-06
-7.1388e-08
-5.57684e-06
-3.73221e-08
-5.55437e-06
-2.25582e-08
-5.53475e-06
-1.9693e-08
-5.52498e-06
-9.84609e-09
-5.5233e-06
-1.73886e-09
-5.52112e-06
-2.23403e-09
-5.51682e-06
-4.34987e-09
-5.50506e-06
-1.18088e-08
-5.48725e-06
-1.78431e-08
-5.47e-06
-1.72853e-08
-5.45363e-06
-1.64053e-08
-5.43003e-06
-2.36268e-08
-5.39841e-06
-3.16424e-08
-5.3639e-06
-3.45342e-08
-5.32758e-06
-3.63469e-08
-5.28366e-06
-4.3941e-08
-5.22934e-06
-5.43355e-08
-5.16925e-06
-6.01233e-08
-5.11006e-06
-5.92066e-08
-5.04942e-06
-6.06656e-08
-4.98505e-06
-6.44044e-08
-4.91347e-06
-7.16033e-08
-4.8354e-06
-7.80984e-08
-4.7527e-06
-8.27242e-08
-4.66325e-06
-8.94822e-08
-4.56834e-06
-9.49391e-08
-4.47199e-06
-9.63723e-08
-4.3759e-06
-9.61222e-08
-4.27725e-06
-9.86837e-08
-4.17121e-06
-1.06069e-07
-4.05562e-06
-1.15622e-07
-3.93047e-06
-1.25189e-07
-3.79967e-06
-1.3083e-07
-3.66412e-06
-1.35585e-07
-3.52715e-06
-1.37008e-07
-3.38727e-06
-1.39914e-07
-3.24213e-06
-1.45165e-07
-3.09376e-06
-1.48413e-07
-2.94265e-06
-1.51138e-07
-2.7867e-06
-1.55981e-07
-2.6249e-06
-1.61839e-07
-2.45912e-06
-1.65818e-07
-2.29174e-06
-1.67417e-07
-2.12428e-06
-1.67499e-07
-1.95685e-06
-1.67461e-07
-1.78815e-06
-1.68741e-07
-1.6167e-06
-1.71499e-07
-1.44137e-06
-1.75368e-07
-1.26188e-06
-1.79534e-07
-1.07852e-06
-1.83408e-07
-8.91838e-07
-1.86731e-07
-7.02428e-07
-1.8946e-07
-5.10712e-07
-1.91767e-07
-3.16951e-07
-1.93814e-07
-1.21121e-07
-1.95887e-07
7.74558e-08
-1.98635e-07
2.78591e-07
-2.01196e-07
4.82391e-07
-2.03863e-07
6.8718e-07
-2.04854e-07
8.93455e-07
-2.06342e-07
1.10027e-06
-2.0688e-07
1.31011e-06
-2.0991e-07
1.522e-06
-2.11971e-07
1.73501e-06
-2.13078e-07
1.94854e-06
-2.13598e-07
2.1635e-06
-2.15035e-07
2.37962e-06
-2.16189e-07
2.59577e-06
-2.1623e-07
2.81445e-06
-2.18755e-07
3.03647e-06
-2.221e-07
3.2681e-06
-2.31712e-07
3.50851e-06
-2.40485e-07
3.75471e-06
-2.46271e-07
-2.82919e-07
2.0557e-05
1.37844e-05
1.8452e-05
7.53868e-06
1.93535e-05
1.30905e-06
2.1872e-05
-5.35739e-06
2.4926e-05
-9.0778e-06
2.79419e-05
-9.82988e-06
3.11902e-05
-9.73471e-06
3.45044e-05
-8.66458e-06
3.726e-05
-6.71233e-06
3.98022e-05
-5.56633e-06
4.23796e-05
-5.56656e-06
4.49077e-05
-5.9455e-06
4.7061e-05
-5.30476e-06
4.78649e-05
-2.99317e-06
4.65507e-05
9.01742e-07
4.27032e-05
5.94487e-06
3.78555e-05
1.04373e-05
3.3151e-05
1.33108e-05
2.83599e-05
1.34622e-05
2.41331e-05
1.04141e-05
2.10587e-05
6.33248e-06
1.92961e-05
3.17334e-06
1.88985e-05
3.2393e-07
1.89198e-05
-9.45437e-07
1.87734e-05
-9.28644e-07
1.82823e-05
-2.61565e-07
1.688e-05
1.47527e-06
1.42046e-05
4.00438e-06
1.03644e-05
6.46178e-06
6.0615e-06
8.2293e-06
1.6878e-06
9.82152e-06
-3.17122e-06
1.14381e-05
-8.51328e-06
1.21416e-05
-1.33718e-05
1.15952e-05
-1.72999e-05
9.83771e-06
-2.1429e-05
8.42627e-06
-2.56722e-05
8.10781e-06
-2.93646e-05
7.84457e-06
-3.2285e-05
6.20974e-06
-3.43924e-05
4.00524e-06
-3.62878e-05
3.27372e-06
-3.81381e-05
3.45987e-06
-4.00325e-05
3.9876e-06
-4.20014e-05
4.57518e-06
-4.39236e-05
4.52398e-06
-4.57723e-05
3.6078e-06
-4.72487e-05
2.5509e-06
-4.85094e-05
2.18339e-06
-4.98053e-05
2.48222e-06
-5.11927e-05
3.07946e-06
-5.26913e-05
3.57762e-06
-5.4312e-05
3.42878e-06
-5.5776e-05
2.63459e-06
-5.68257e-05
1.73203e-06
-5.73916e-05
8.56427e-07
-5.76886e-05
3.70244e-07
-5.80544e-05
2.72272e-07
-5.8532e-05
3.12384e-07
-5.92166e-05
5.91246e-07
-6.00288e-05
1.08732e-06
-6.06421e-05
1.45357e-06
-6.09574e-05
1.46217e-06
-6.1008e-05
1.22048e-06
-6.10439e-05
1.08588e-06
-6.14234e-05
1.26416e-06
-6.21067e-05
1.44828e-06
-6.2846e-05
1.36313e-06
-6.34949e-05
9.43407e-07
-6.38964e-05
6.39985e-08
-6.38206e-05
-1.15425e-06
-6.3169e-05
-2.35593e-06
-6.20824e-05
-3.38899e-06
-6.09207e-05
-4.0732e-06
-5.99884e-05
-4.46023e-06
-5.93548e-05
-4.91127e-06
-5.85785e-05
-5.69265e-06
-5.6926e-05
-7.19416e-06
-5.5003e-05
-8.814e-06
-5.11743e-05
-9.47009e-06
-4.57314e-05
-8.23691e-06
-3.79148e-05
-8.97856e-06
-2.99943e-05
-6.87229e-06
-2.54398e-05
-3.48248e-06
-2.32626e-05
-1.06265e-06
-2.30148e-05
1.42285e-06
-2.36243e-05
1.44653e-06
-2.45744e-05
1.41e-06
-2.62794e-05
2.12248e-06
-2.80542e-05
2.22286e-06
-2.86881e-05
8.92356e-07
-2.88046e-05
1.54802e-07
-2.90205e-05
2.38799e-07
-2.90691e-05
-1.63159e-07
-2.90623e-05
-4.02116e-07
-2.9062e-05
-6.21994e-07
-2.8871e-05
-1.2138e-06
-2.88047e-05
-1.92151e-06
-2.88287e-05
-2.38798e-06
-2.88197e-05
-2.89777e-06
-2.7531e-05
-3.09015e-06
-2.50455e-05
-2.8938e-06
-2.19561e-05
-3.11753e-06
-1.96621e-05
-1.88887e-06
-1.8694e-05
-6.55666e-07
-1.8025e-05
-1.02128e-07
-1.78956e-05
2.25652e-07
-1.7971e-05
1.21378e-07
-1.82724e-05
3.16547e-07
-1.88198e-05
5.65719e-07
-1.91376e-05
3.85351e-07
-1.90619e-05
-6.01967e-08
-1.89989e-05
-4.13618e-08
-1.89613e-05
-1.43976e-07
-1.89418e-05
-3.42514e-07
-1.90211e-05
-5.99981e-07
-1.90723e-05
-9.62265e-07
-1.91872e-05
-1.35932e-06
-1.87934e-05
-1.37284e-06
-1.77891e-05
-1.19919e-06
-1.63349e-05
-1.39376e-06
-1.52246e-05
-8.88936e-07
-1.48565e-05
-2.4142e-07
-1.46749e-05
1.38389e-07
-1.47359e-05
3.094e-07
-1.48702e-05
2.31223e-07
-1.51855e-05
4.40847e-07
-1.54053e-05
3.26666e-07
-1.54501e-05
1.34992e-07
-1.55029e-05
1.61197e-07
-1.55642e-05
1.49176e-07
-1.56369e-05
1.39965e-07
-1.5728e-05
1.60185e-07
-1.57896e-05
1.15878e-07
-1.582e-05
6.76182e-08
-1.58417e-05
5.01777e-08
-1.58608e-05
4.7632e-08
-1.5885e-05
5.1455e-08
-1.59065e-05
4.11231e-08
-1.59269e-05
3.42993e-08
-1.59344e-05
9.46193e-09
-1.59311e-05
-9.66375e-09
-1.59216e-05
-1.83865e-08
-1.59043e-05
-3.01955e-08
-1.58782e-05
-4.85272e-08
-1.58415e-05
-7.05827e-08
-1.57921e-05
-9.87749e-08
-1.57335e-05
-1.20955e-07
-1.56706e-05
-1.31593e-07
-1.56009e-05
-1.40788e-07
-1.55189e-05
-1.56728e-07
-1.54226e-05
-1.8463e-07
-1.53132e-05
-2.19529e-07
-1.51963e-05
-2.37865e-07
-1.50756e-05
-2.45833e-07
-1.49469e-05
-2.58947e-07
-1.48032e-05
-2.82531e-07
-1.46453e-05
-3.0867e-07
-1.44787e-05
-3.28291e-07
-1.43076e-05
-3.43248e-07
-1.4131e-05
-3.56519e-07
-1.39456e-05
-3.72907e-07
-1.37501e-05
-3.91436e-07
-1.35446e-05
-4.08592e-07
-1.33268e-05
-4.31424e-07
-1.30985e-05
-4.55067e-07
-1.28645e-05
-4.68103e-07
-1.26277e-05
-4.71985e-07
-1.2384e-05
-4.84124e-07
-1.21272e-05
-5.13272e-07
-1.18568e-05
-5.41644e-07
-1.158e-05
-5.54207e-07
-1.13003e-05
-5.56287e-07
-1.10119e-05
-5.67871e-07
-1.07131e-05
-5.94662e-07
-1.04015e-05
-6.27199e-07
-1.00757e-05
-6.54838e-07
-9.73874e-06
-6.76106e-07
-9.39282e-06
-6.87503e-07
-9.04312e-06
-6.87364e-07
-8.68854e-06
-7.00003e-07
-8.32411e-06
-7.27003e-07
-7.94624e-06
-7.56777e-07
-7.54745e-06
-8.02097e-07
-7.1311e-06
-8.3584e-07
-6.70189e-06
-8.57089e-07
-6.26488e-06
-8.69973e-07
-5.82818e-06
-8.67132e-07
-5.38743e-06
-8.83374e-07
-4.93415e-06
-9.1981e-07
-4.46414e-06
-9.55795e-07
-3.97863e-06
-9.77325e-07
-3.4843e-06
-9.79938e-07
-2.99089e-06
-9.77321e-07
-2.50495e-06
-9.72994e-07
-2.02362e-06
-9.78053e-07
-1.54021e-06
-9.89189e-07
-1.05496e-06
-9.91075e-07
-5.77969e-07
-9.68549e-07
-1.1715e-07
-9.21172e-07
3.25699e-07
-8.74901e-07
7.53317e-07
-8.43656e-07
1.17003e-06
-8.27564e-07
1.57346e-06
-8.08573e-07
1.96047e-06
-7.76778e-07
2.3293e-06
-7.37988e-07
2.68482e-06
-7.04654e-07
3.02919e-06
-6.79773e-07
3.36173e-06
-6.61856e-07
3.68024e-06
-6.3931e-07
3.98214e-06
-6.0519e-07
4.27003e-06
-5.67724e-07
4.54855e-06
-5.50581e-07
4.82053e-06
-5.43439e-07
5.08367e-06
-5.27525e-07
5.33585e-06
-5.06919e-07
5.57658e-06
-4.82966e-07
5.80402e-06
-4.50673e-07
6.01915e-06
-4.23489e-07
6.2247e-06
-4.07041e-07
6.42361e-06
-3.98405e-07
6.61589e-06
-3.86954e-07
6.79949e-06
-3.70275e-07
6.97431e-06
-3.51596e-07
7.13938e-06
-3.26838e-07
7.2941e-06
-3.04345e-07
7.43944e-06
-2.87815e-07
7.57717e-06
-2.75905e-07
7.70924e-06
-2.66589e-07
7.83521e-06
-2.54701e-07
7.95396e-06
-2.39818e-07
8.06387e-06
-2.18816e-07
8.16539e-06
-2.00444e-07
8.26146e-06
-1.89872e-07
8.35348e-06
-1.82901e-07
8.44104e-06
-1.75528e-07
8.52345e-06
-1.65668e-07
8.60011e-06
-1.5358e-07
8.67006e-06
-1.40794e-07
8.73323e-06
-1.28886e-07
8.79158e-06
-1.18992e-07
8.84681e-06
-1.10086e-07
8.90029e-06
-1.03909e-07
8.95131e-06
-9.92295e-08
8.99863e-06
-9.51095e-08
9.0424e-06
-8.97378e-08
9.08275e-06
-8.37584e-08
9.11957e-06
-7.60263e-08
9.15371e-06
-6.59387e-08
9.18654e-06
-6.28476e-08
9.21863e-06
-6.42775e-08
9.2493e-06
-6.26682e-08
9.27721e-06
-5.79541e-08
9.30277e-06
-5.31427e-08
9.32676e-06
-4.73478e-08
9.35011e-06
-4.44387e-08
9.37285e-06
-4.35788e-08
9.39427e-06
-4.21226e-08
9.41325e-06
-3.89297e-08
9.429e-06
-3.34954e-08
9.44344e-06
-3.01376e-08
9.45829e-06
-2.85908e-08
9.47249e-06
-2.66159e-08
9.48505e-06
-2.45568e-08
9.49579e-06
-2.2124e-08
9.50422e-06
-1.77496e-08
9.50915e-06
-9.80056e-09
9.51168e-06
-3.15893e-09
9.51283e-06
-9.08559e-10
9.51301e-06
-3.03241e-10
9.51132e-06
3.07417e-09
9.50689e-06
8.3389e-09
9.49933e-06
1.40273e-08
9.48896e-06
2.0107e-08
9.47592e-06
2.76703e-08
9.4601e-06
3.41282e-08
9.44097e-06
3.94249e-08
9.41849e-06
4.44147e-08
9.39311e-06
4.98203e-08
9.365e-06
5.5688e-08
9.33427e-06
6.11278e-08
9.30031e-06
6.73893e-08
9.2619e-06
7.70381e-08
9.21943e-06
8.64495e-08
9.17382e-06
9.18962e-08
9.12555e-06
9.62774e-08
9.07373e-06
1.03123e-07
9.01774e-06
1.11141e-07
8.95813e-06
1.18131e-07
8.89521e-06
1.25286e-07
8.82868e-06
1.33766e-07
8.75867e-06
1.41205e-07
8.68501e-06
1.47738e-07
8.60733e-06
1.54584e-07
8.52568e-06
1.61955e-07
8.44083e-06
1.68394e-07
8.35312e-06
1.75069e-07
8.26237e-06
1.82647e-07
8.16762e-06
1.90294e-07
8.06814e-06
1.9819e-07
7.9649e-06
2.04967e-07
7.85913e-06
2.10191e-07
7.75098e-06
2.159e-07
7.63955e-06
2.23556e-07
7.52382e-06
2.31403e-07
7.40402e-06
2.38336e-07
7.28199e-06
2.4292e-07
7.15817e-06
2.47681e-07
7.03137e-06
2.54005e-07
6.9005e-06
2.61099e-07
6.76672e-06
2.66436e-07
6.63115e-06
2.70256e-07
6.49342e-06
2.74883e-07
6.35311e-06
2.80796e-07
6.20947e-06
2.8731e-07
6.06287e-06
2.92255e-07
5.91482e-06
2.95195e-07
5.76527e-06
2.98636e-07
5.61378e-06
3.02701e-07
5.46014e-06
3.0701e-07
5.30405e-06
3.1153e-07
5.14581e-06
3.15636e-07
4.9859e-06
3.19116e-07
4.8245e-06
3.22498e-07
4.66145e-06
3.26272e-07
4.49675e-06
3.29672e-07
4.33039e-06
3.32491e-07
4.16234e-06
3.35635e-07
3.9929e-06
3.38809e-07
3.82258e-06
3.41128e-07
3.65174e-06
3.42285e-07
3.48042e-06
3.42814e-07
3.30872e-06
3.43303e-07
3.13674e-06
3.4404e-07
2.96483e-06
3.44875e-07
2.79326e-06
3.44614e-07
2.62221e-06
3.4267e-07
2.45277e-06
3.38986e-07
2.28506e-06
3.35645e-07
2.11941e-06
3.31812e-07
1.956e-06
3.27575e-07
1.79476e-06
3.23133e-07
1.63587e-06
3.18166e-07
1.47963e-06
3.12558e-07
1.32628e-06
3.06566e-07
1.17624e-06
3.00065e-07
1.03004e-06
2.92724e-07
8.87581e-07
2.85377e-07
7.48709e-07
2.78054e-07
6.134e-07
2.7073e-07
4.81682e-07
2.6343e-07
3.53657e-07
2.56075e-07
2.29432e-07
2.48509e-07
1.09075e-07
2.4071e-07
-7.41386e-09
2.32874e-07
-1.20184e-07
2.25372e-07
-2.29413e-07
2.1823e-07
-3.35319e-07
2.11434e-07
-4.37964e-07
2.04805e-07
-5.37033e-07
1.97774e-07
-6.32554e-07
1.90817e-07
-7.24813e-07
1.84308e-07
-8.13982e-07
1.78078e-07
-9.00129e-07
1.71981e-07
-9.83325e-07
1.66199e-07
-1.06363e-06
1.60717e-07
-1.14105e-06
1.55183e-07
-1.21565e-06
1.4956e-07
-1.28751e-06
1.43756e-07
-1.35682e-06
1.38335e-07
-1.42378e-06
1.33627e-07
-1.48845e-06
1.29188e-07
-1.55044e-06
1.23973e-07
-1.6097e-06
1.18426e-07
-1.6663e-06
1.13123e-07
-1.72059e-06
1.08504e-07
-1.77288e-06
1.04352e-07
-1.82313e-06
1.00202e-07
-1.8712e-06
9.59647e-08
-1.91702e-06
9.18895e-08
-1.96055e-06
8.77358e-08
-2.00211e-06
8.35244e-08
-2.04179e-06
7.91506e-08
-2.07964e-06
7.54201e-08
-2.11573e-06
7.20063e-08
-2.15012e-06
6.86063e-08
-2.1826e-06
6.49879e-08
-2.21329e-06
6.14863e-08
-2.24225e-06
5.7946e-08
-2.26962e-06
5.45409e-08
-2.29534e-06
5.13817e-08
-2.3194e-06
4.83307e-08
-2.34174e-06
4.50619e-08
-2.36262e-06
4.1773e-08
-2.38206e-06
3.86895e-08
-2.40016e-06
3.58729e-08
-2.41665e-06
3.28272e-08
-2.43164e-06
2.992e-08
-2.44511e-06
2.73623e-08
-2.45749e-06
2.51799e-08
-2.46878e-06
2.2753e-08
-2.47928e-06
2.06446e-08
-2.48812e-06
1.76343e-08
-2.4961e-06
1.57494e-08
-2.50288e-06
1.36754e-08
-2.50932e-06
1.34216e-08
-2.5143e-06
1.15507e-08
-2.51941e-06
1.15692e-08
-2.52288e-06
8.22844e-09
-2.52777e-06
1.00547e-08
-2.53412e-06
1.10266e-08
-2.53983e-06
1.03123e-08
-2.54604e-06
9.98451e-09
-2.54812e-06
4.70411e-09
-2.55002e-06
5.07636e-09
-2.54461e-06
-4.12745e-09
-2.54365e-06
-8.60433e-10
-2.55237e-06
8.45523e-09
-2.55905e-06
6.54696e-10
-2.56361e-06
4.99996e-10
-2.55937e-06
8.82638e-10
-2.50872e-06
-5.29892e-08
-2.47613e-06
-3.3138e-08
-2.51219e-06
3.5912e-08
-2.54777e-06
-1.04587e-08
-2.65195e-06
7.21327e-08
-2.81265e-06
1.88227e-07
-3.10486e-06
2.75135e-07
-3.34295e-06
2.98652e-07
-3.43553e-06
2.49016e-07
-3.47134e-06
3.16922e-07
-3.47261e-06
2.5108e-07
-3.52616e-06
1.74808e-07
-3.56159e-06
1.51658e-07
-3.61259e-06
1.23403e-07
-3.64759e-06
1.02347e-07
-3.67759e-06
8.26176e-08
-3.69965e-06
7.05622e-08
-3.7409e-06
8.32463e-08
-3.77089e-06
6.86801e-08
-3.81353e-06
6.60249e-08
-3.89518e-06
1.16085e-07
-3.91806e-06
3.983e-08
-3.89855e-06
4.38711e-09
-3.8587e-06
3.70599e-08
-3.78292e-06
-5.81203e-08
-3.61317e-06
-1.77653e-07
-3.3861e-06
-2.19629e-07
-3.23697e-06
-1.91466e-07
-3.19265e-06
-2.13945e-07
-3.20223e-06
-2.13973e-07
-3.17477e-06
-1.89898e-07
-3.16785e-06
-1.12425e-07
-3.12556e-06
-1.18915e-07
-3.09901e-06
-7.0573e-08
-3.07355e-06
-6.09333e-08
-3.07536e-06
-1.59377e-08
-3.06928e-06
-2.14199e-08
-3.05839e-06
-3.6534e-08
-3.09578e-06
4.02701e-08
-2.98904e-06
-1.22194e-07
-2.86063e-06
-1.46734e-07
-2.95672e-06
1.36071e-07
-2.97176e-06
-9.38597e-08
-3.38769e-06
2.78818e-07
-3.5251e-06
2.8916e-07
-4.65902e-06
1.02548e-06
-5.63605e-06
1.23737e-06
-5.92274e-06
4.44606e-07
-5.78939e-06
1.02198e-06
-5.209e-06
6.69465e-07
-5.08156e-06
1.91656e-07
-5.09749e-06
9.15565e-08
-5.19515e-06
-2.50174e-08
-5.26651e-06
-7.55016e-08
-5.30513e-06
-8.44136e-08
-5.32901e-06
-4.72849e-08
-5.35255e-06
-1.35806e-08
-5.37462e-06
-3.01846e-10
-5.39357e-06
-5.74619e-10
-5.40709e-06
3.83137e-09
-5.41444e-06
5.75038e-09
-5.41546e-06
-1.08873e-09
-5.4107e-06
-8.98686e-09
-5.40032e-06
-2.2075e-08
-5.38859e-06
-2.94687e-08
-5.37464e-06
-3.11347e-08
-5.35581e-06
-3.5131e-08
-5.33088e-06
-4.84674e-08
-5.29999e-06
-6.24487e-08
-5.26468e-06
-6.97715e-08
-5.22353e-06
-7.74187e-08
-5.17597e-06
-9.14369e-08
-5.12371e-06
-1.06527e-07
-5.06686e-06
-1.16917e-07
-5.00518e-06
-1.2083e-07
-4.93868e-06
-1.27112e-07
-4.8674e-06
-1.35644e-07
-4.79236e-06
-1.46593e-07
-4.71236e-06
-1.58059e-07
-4.6257e-06
-1.69342e-07
-4.53409e-06
-1.81051e-07
-4.43904e-06
-1.89947e-07
-4.3411e-06
-1.94278e-07
-4.24037e-06
-1.96809e-07
-4.13444e-06
-2.0458e-07
-4.02311e-06
-2.17362e-07
-3.90613e-06
-2.3256e-07
-3.78395e-06
-2.47325e-07
-3.6573e-06
-2.57435e-07
-3.52633e-06
-2.66508e-07
-3.39067e-06
-2.72625e-07
-3.25026e-06
-2.80274e-07
-3.10511e-06
-2.90251e-07
-2.95618e-06
-2.97286e-07
-2.80426e-06
-3.02995e-07
-2.64919e-06
-3.10985e-07
-2.49103e-06
-3.19927e-07
-2.32991e-06
-3.26868e-07
-2.16615e-06
-3.31096e-07
-1.99935e-06
-3.34226e-07
-1.82917e-06
-3.37553e-07
-1.65591e-06
-3.41922e-07
-1.47984e-06
-3.4747e-07
-1.30123e-06
-3.53884e-07
-1.12e-06
-3.60673e-07
-9.3586e-07
-3.67443e-07
-7.487e-07
-3.73784e-07
-5.58725e-07
-3.79325e-07
-3.66421e-07
-3.83957e-07
-1.71937e-07
-3.8818e-07
2.4948e-08
-3.92648e-07
2.24276e-07
-3.97836e-07
4.25887e-07
-4.02674e-07
6.29295e-07
-4.07135e-07
8.33881e-07
-4.09299e-07
1.04015e-06
-4.1246e-07
1.24871e-06
-4.1529e-07
1.45939e-06
-4.20439e-07
1.67128e-06
-4.23694e-07
1.88393e-06
-4.2555e-07
2.09807e-06
-4.27568e-07
2.31423e-06
-4.31015e-07
2.53169e-06
-4.33461e-07
2.75012e-06
-4.34475e-07
2.96926e-06
-4.37709e-07
3.18909e-06
-4.4175e-07
3.4083e-06
-4.50753e-07
3.62773e-06
-4.59752e-07
3.84722e-06
-4.65616e-07
-4.73267e-07
2.14611e-05
1.77831e-05
2.10542e-05
7.94689e-06
2.29174e-05
-5.53064e-07
2.47635e-05
-7.20271e-06
2.57687e-05
-1.00823e-05
2.67198e-05
-1.07804e-05
2.76934e-05
-1.07079e-05
2.85188e-05
-9.48951e-06
2.85769e-05
-6.7701e-06
2.77465e-05
-4.73562e-06
2.67511e-05
-4.57083e-06
2.59521e-05
-5.14625e-06
2.52272e-05
-4.57966e-06
2.39575e-05
-1.72325e-06
2.18655e-05
2.99392e-06
1.92986e-05
8.51186e-06
1.78602e-05
1.18759e-05
1.76491e-05
1.35221e-05
1.76782e-05
1.34331e-05
1.68997e-05
1.11927e-05
1.48785e-05
8.35379e-06
1.21938e-05
5.85805e-06
8.8202e-06
3.69753e-06
5.1493e-06
2.72547e-06
1.74185e-06
2.4788e-06
-1.49372e-06
2.97399e-06
-4.7276e-06
4.70912e-06
-7.98869e-06
7.26545e-06
-1.13566e-05
9.8297e-06
-1.45253e-05
1.13979e-05
-1.71692e-05
1.24655e-05
-1.89636e-05
1.32325e-05
-2.01518e-05
1.33298e-05
-2.13247e-05
1.2768e-05
-2.33125e-05
1.18255e-05
-2.64664e-05
1.15802e-05
-2.96427e-05
1.12841e-05
-3.20827e-05
1.02845e-05
-3.40432e-05
8.17027e-06
-3.58454e-05
5.80736e-06
-3.76169e-05
5.04524e-06
-3.93255e-05
5.16853e-06
-4.09209e-05
5.58307e-06
-4.24022e-05
6.05652e-06
-4.38856e-05
6.0074e-06
-4.54313e-05
5.15353e-06
-4.69084e-05
4.02805e-06
-4.82765e-05
3.55154e-06
-4.96959e-05
3.90164e-06
-5.10528e-05
4.43637e-06
-5.24285e-05
4.95337e-06
-5.39102e-05
4.9105e-06
-5.54354e-05
4.15991e-06
-5.67909e-05
3.08759e-06
-5.79203e-05
1.98587e-06
-5.89133e-05
1.36323e-06
-5.99017e-05
1.26072e-06
-6.0882e-05
1.29269e-06
-6.17893e-05
1.4986e-06
-6.23997e-05
1.69778e-06
-6.25798e-05
1.63365e-06
-6.22472e-05
1.12964e-06
-6.16409e-05
6.14181e-07
-6.1127e-05
5.72024e-07
-6.10384e-05
1.17556e-06
-6.14673e-05
1.8773e-06
-6.20902e-05
1.98598e-06
-6.28594e-05
1.71271e-06
-6.36597e-05
8.64254e-07
-6.42211e-05
-5.92784e-07
-6.43195e-05
-2.25746e-06
-6.40566e-05