/*--------------------------------*- C++ -*----------------------------------*\
| =========                 |                                                 |
| \\      /  F ield         | OpenFOAM: The Open Source CFD Toolbox           |
|  \\    /   O peration     | Version:  v2006                                 |
|   \\  /    A nd           | Website:  www.openfoam.com                      |
|    \\/     M anipulation  |                                                 |
\*---------------------------------------------------------------------------*/
FoamFile
{
    version     2.0;
    format      ascii;
    class       surfaceScalarField;
    location    "1.7";
    object      alphaPhi0.water;
}
// * * * * * * * * * * * * * * * * * * * * * * * * * * * * * * * * * * * * * //

dimensions      [0 3 -1 0 0 0 0];
oriented        oriented;


internalField   nonuniform List<scalar> 
65390
(
-2.19462e-05
-8.37737e-07
-2.15049e-05
-4.33672e-07
-2.10552e-05
-4.42281e-07
-2.05296e-05
-5.22545e-07
-2.00444e-05
-4.81332e-07
-1.95756e-05
-4.63923e-07
-1.90975e-05
-4.72603e-07
-1.86173e-05
-4.73979e-07
-1.81323e-05
-4.78289e-07
-1.76404e-05
-4.84565e-07
-1.71546e-05
-4.78152e-07
-1.66793e-05
-4.67205e-07
-1.62132e-05
-4.57397e-07
-1.57664e-05
-4.3832e-07
-1.53133e-05
-4.43176e-07
-1.48587e-05
-4.47204e-07
-1.4408e-05
-4.44255e-07
-1.39615e-05
-4.37869e-07
-1.35225e-05
-4.30398e-07
-1.31054e-05
-4.07916e-07
-1.27295e-05
-3.67595e-07
-1.23464e-05
-3.76045e-07
-1.1931e-05
-4.10055e-07
-1.15165e-05
-4.0894e-07
-1.11454e-05
-3.65175e-07
-1.07951e-05
-3.44996e-07
-1.0453e-05
-3.37409e-07
-1.01088e-05
-3.40176e-07
-9.75409e-06
-3.5113e-07
-9.45081e-06
-2.99881e-07
-9.17048e-06
-2.77454e-07
-8.87634e-06
-2.9195e-07
-8.53895e-06
-3.35776e-07
-8.24959e-06
-2.87607e-07
-7.9946e-06
-2.52811e-07
-7.77984e-06
-2.12735e-07
-7.52161e-06
-2.59289e-07
-7.20505e-06
-3.15908e-07
-6.98443e-06
-2.20064e-07
-6.77965e-06
-2.03769e-07
-6.61244e-06
-1.65581e-07
-6.46009e-06
-1.50464e-07
-6.2339e-06
-2.25691e-07
-5.98316e-06
-2.49244e-07
-5.81189e-06
-1.69917e-07
-5.67984e-06
-1.3043e-07
-5.49708e-06
-1.82255e-07
-5.30358e-06
-1.93477e-07
-5.14961e-06
-1.53429e-07
-5.02898e-06
-1.20066e-07
-4.89117e-06
-1.37342e-07
-4.7346e-06
-1.56248e-07
-4.5813e-06
-1.53114e-07
-4.43992e-06
-1.41282e-07
-4.3266e-06
-1.13299e-07
-4.22713e-06
-9.97432e-08
-4.12247e-06
-1.05023e-07
-4.04277e-06
-8.01462e-08
-4.0077e-06
-3.56883e-08
-3.97854e-06
-2.9898e-08
-3.92352e-06
-5.58963e-08
-3.86156e-06
-6.26073e-08
-3.85107e-06
-1.13226e-08
-3.85088e-06
-1.10835e-09
-3.84411e-06
-7.69847e-09
-3.81251e-06
-3.24135e-08
-3.76366e-06
-4.97182e-08
-3.73437e-06
-2.9968e-08
-3.70004e-06
-3.51172e-08
-3.65423e-06
-4.65227e-08
-3.61689e-06
-3.80612e-08
-3.56677e-06
-5.06317e-08
-3.49289e-06
-7.39452e-08
-3.33498e-06
-1.59025e-07
-3.15751e-06
-1.77845e-07
-2.90362e-06
-2.5418e-07
-2.53061e-06
-3.73489e-07
-2.17106e-06
-3.59802e-07
-1.88219e-06
-2.88845e-07
-1.70276e-06
-1.80023e-07
-1.64816e-06
-5.52779e-08
-1.66296e-06
1.42064e-08
-1.76844e-06
1.0497e-07
-1.85748e-06
8.87891e-08
-1.9453e-06
8.7275e-08
-1.99942e-06
5.37158e-08
-2.02014e-06
2.04441e-08
-2.07161e-06
5.11912e-08
-2.12483e-06
5.32226e-08
-2.19043e-06
6.56627e-08
-2.24677e-06
5.6139e-08
-2.29282e-06
4.55983e-08
-2.31909e-06
2.61542e-08
-2.33955e-06
2.06918e-08
-2.34641e-06
6.74305e-09
-2.32891e-06
-1.7575e-08
-2.25885e-06
-7.02633e-08
-2.14217e-06
-1.16656e-07
-1.95134e-06
-1.90816e-07
-1.80671e-06
-1.44584e-07
-1.7862e-06
-2.04671e-08
-1.8367e-06
5.05233e-08
-1.91752e-06
8.08771e-08
-1.97367e-06
5.61822e-08
-2.06303e-06
8.94423e-08
-2.14873e-06
8.57619e-08
-2.20007e-06
5.14668e-08
-2.24499e-06
4.51427e-08
-2.2965e-06
5.17574e-08
-2.35105e-06
5.48084e-08
-2.39692e-06
4.61799e-08
-2.43863e-06
4.20346e-08
-2.46485e-06
2.64699e-08
-2.46895e-06
4.31231e-09
-2.43835e-06
-3.04596e-08
-2.3665e-06
-7.17389e-08
-2.2129e-06
-1.53518e-07
-2.0953e-06
-1.17584e-07
-2.08616e-06
-9.17962e-09
-2.13244e-06
4.61719e-08
-2.2099e-06
7.73762e-08
-2.26562e-06
5.5667e-08
-2.35346e-06
8.78023e-08
-2.43492e-06
8.15014e-08
-2.48873e-06
5.38922e-08
-2.54543e-06
5.67927e-08
-2.59915e-06
5.3893e-08
-2.65124e-06
5.23258e-08
-2.70468e-06
5.375e-08
-2.75332e-06
4.89775e-08
-2.79501e-06
4.18919e-08
-2.83902e-06
4.4282e-08
-2.88107e-06
4.23684e-08
-2.92073e-06
3.99664e-08
-2.95777e-06
3.73218e-08
-2.99164e-06
3.41398e-08
-3.02732e-06
3.5923e-08
-3.06144e-06
3.43249e-08
-3.09387e-06
3.25967e-08
-3.12368e-06
2.9959e-08
-3.15267e-06
2.91306e-08
-3.18064e-06
2.80653e-08
-3.20685e-06
2.62772e-08
-3.23148e-06
2.46767e-08
-3.25459e-06
2.31224e-08
-3.27582e-06
2.12161e-08
-3.29473e-06
1.88874e-08
-3.312e-06
1.72476e-08
-3.32817e-06
1.61264e-08
-3.34275e-06
1.45203e-08
-3.35572e-06
1.29054e-08
-3.36671e-06
1.09383e-08
-3.3754e-06
8.65186e-09
-3.38222e-06
6.73563e-09
-3.38813e-06
5.84419e-09
-3.39258e-06
4.41708e-09
-3.39517e-06
2.5641e-09
-3.39588e-06
6.88233e-10
-3.3953e-06
-6.06953e-10
-3.39361e-06
-1.7068e-09
-3.39045e-06
-3.14729e-09
-3.38568e-06
-4.75757e-09
-3.37964e-06
-6.03947e-09
-3.37252e-06
-7.0978e-09
-3.36426e-06
-8.22682e-09
-3.35482e-06
-9.40019e-09
-3.34416e-06
-1.06114e-08
-3.33235e-06
-1.17663e-08
-3.3195e-06
-1.27871e-08
-3.30571e-06
-1.37234e-08
-3.29083e-06
-1.48188e-08
-3.27484e-06
-1.59087e-08
-3.25786e-06
-1.68944e-08
-3.23995e-06
-1.78146e-08
-3.22107e-06
-1.87728e-08
-3.20124e-06
-1.97223e-08
-3.18052e-06
-2.06006e-08
-3.15895e-06
-2.14414e-08
-3.13654e-06
-2.22765e-08
-3.11331e-06
-2.30854e-08
-3.08931e-06
-2.38557e-08
-3.06456e-06
-2.45954e-08
-3.03907e-06
-2.53289e-08
-3.01289e-06
-2.60199e-08
-2.98602e-06
-2.67059e-08
-2.9585e-06
-2.73461e-08
-2.93041e-06
-2.79161e-08
-2.90174e-06
-2.84754e-08
-2.87251e-06
-2.90301e-08
-2.84279e-06
-2.9517e-08
-2.81261e-06
-2.99671e-08
-2.78201e-06
-3.03971e-08
-2.75101e-06
-3.07989e-08
-2.71963e-06
-3.11737e-08
-2.68791e-06
-3.15112e-08
-2.65588e-06
-3.18093e-08
-2.62358e-06
-3.20827e-08
-2.59104e-06
-3.23177e-08
-2.5583e-06
-3.25217e-08
-2.52536e-06
-3.2717e-08
-2.49224e-06
-3.28975e-08
-2.45896e-06
-3.30515e-08
-2.42556e-06
-3.31784e-08
-2.39206e-06
-3.32774e-08
-2.3585e-06
-3.33423e-08
-2.32491e-06
-3.33739e-08
-2.29132e-06
-3.33845e-08
-2.25773e-06
-3.33873e-08
-2.22416e-06
-3.33887e-08
-2.1906e-06
-3.3383e-08
-2.15708e-06
-3.33631e-08
-2.12362e-06
-3.33022e-08
-2.09028e-06
-3.31999e-08
-2.05706e-06
-3.30783e-08
-2.02399e-06
-3.29304e-08
-1.9911e-06
-3.2758e-08
-1.9584e-06
-3.25721e-08
-1.92589e-06
-3.23961e-08
-1.89355e-06
-3.22211e-08
-1.8614e-06
-3.20335e-08
-1.82946e-06
-3.18271e-08
-1.79775e-06
-3.16094e-08
-1.76626e-06
-3.13816e-08
-1.73502e-06
-3.11322e-08
-1.70405e-06
-3.08662e-08
-1.67335e-06
-3.05978e-08
-1.64291e-06
-3.0334e-08
-1.61274e-06
-3.00759e-08
-1.58282e-06
-2.98163e-08
-1.55316e-06
-2.95533e-08
-1.52377e-06
-2.92863e-08
-1.49466e-06
-2.90086e-08
-1.46584e-06
-2.87227e-08
-1.43731e-06
-2.84318e-08
-1.40909e-06
-2.81394e-08
-1.38118e-06
-2.78341e-08
-1.3536e-06
-2.75135e-08
-1.32635e-06
-2.71846e-08
-1.29944e-06
-2.68546e-08
-1.27284e-06
-2.6541e-08
-1.24655e-06
-2.62329e-08
-1.22057e-06
-2.59277e-08
-1.19489e-06
-2.5621e-08
-1.16952e-06
-2.53018e-08
-1.14448e-06
-2.49689e-08
-1.11977e-06
-2.46268e-08
-1.09541e-06
-2.42852e-08
-1.07139e-06
-2.39469e-08
-1.04771e-06
-2.36048e-08
-1.02438e-06
-2.32559e-08
-1.00141e-06
-2.29044e-08
-9.78796e-07
-2.25592e-08
-9.56522e-07
-2.22194e-08
-9.3459e-07
-2.18772e-08
-9.13004e-07
-2.15302e-08
-8.91757e-07
-2.1187e-08
-8.70823e-07
-2.08682e-08
-8.50187e-07
-2.05641e-08
-8.29848e-07
-2.0263e-08
-8.0982e-07
-1.99487e-08
-7.90124e-07
-1.96183e-08
-7.7077e-07
-1.9279e-08
-7.51761e-07
-1.8937e-08
-7.33099e-07
-1.85952e-08
-7.1478e-07
-1.82561e-08
-6.96797e-07
-1.79231e-08
-6.79143e-07
-1.75952e-08
-6.61814e-07
-1.72691e-08
-6.44809e-07
-1.69451e-08
-6.28122e-07
-1.66272e-08
-6.11749e-07
-1.63144e-08
-5.95691e-07
-1.60002e-08
-5.79956e-07
-1.56818e-08
-5.64543e-07
-1.53619e-08
-5.49452e-07
-1.50431e-08
-5.3468e-07
-1.47246e-08
-5.20227e-07
-1.44049e-08
-5.06092e-07
-1.40848e-08
-4.92272e-07
-1.37655e-08
-4.78768e-07
-1.34472e-08
-4.65576e-07
-1.31329e-08
-4.52686e-07
-1.28302e-08
-4.40081e-07
-1.25463e-08
-4.27744e-07
-1.22813e-08
-4.15662e-07
-1.20293e-08
-4.03827e-07
-1.17862e-08
-3.92232e-07
-1.15497e-08
-3.80868e-07
-1.13203e-08
-3.6973e-07
-1.10961e-08
-3.58816e-07
-1.08734e-08
-3.48128e-07
-1.06482e-08
-3.3767e-07
-1.04187e-08
-3.27447e-07
-1.01835e-08
-3.17468e-07
-9.94102e-09
-3.0774e-07
-9.69074e-09
-2.98269e-07
-9.43547e-09
-2.89054e-07
-9.18009e-09
-2.80092e-07
-8.92933e-09
-2.71375e-07
-8.68497e-09
-2.62898e-07
-8.44669e-09
-2.54653e-07
-8.21467e-09
-2.46634e-07
-7.99079e-09
-2.38827e-07
-7.77776e-09
-2.31222e-07
-7.57788e-09
-2.23803e-07
-7.39172e-09
-2.16559e-07
-7.21717e-09
-2.09481e-07
-7.05108e-09
-2.02564e-07
-6.89065e-09
-1.95805e-07
-6.73326e-09
-1.89203e-07
-6.57709e-09
-1.82758e-07
-6.42052e-09
-1.76472e-07
-6.26265e-09
-1.70346e-07
-6.10333e-09
-1.64382e-07
-5.94339e-09
-1.58578e-07
-5.7844e-09
-1.52931e-07
-5.62814e-09
-1.47438e-07
-5.47616e-09
-1.42092e-07
-5.32922e-09
-1.36891e-07
-5.18697e-09
-1.31829e-07
-5.04807e-09
-1.26906e-07
-4.91122e-09
-1.22118e-07
-4.7762e-09
-1.17463e-07
-4.64388e-09
-1.12938e-07
-4.51439e-09
-1.08543e-07
-4.38509e-09
-1.04282e-07
-4.25074e-09
-1.00164e-07
-4.10803e-09
-9.61929e-08
-3.96056e-09
-9.23652e-08
-3.81732e-09
-8.86691e-08
-3.68551e-09
-8.50935e-08
-3.56498e-09
-8.16311e-08
-3.45146e-09
-7.82755e-08
-3.34468e-09
-7.50145e-08
-3.2499e-09
-7.1834e-08
-3.16947e-09
-6.87273e-08
-3.09558e-09
-6.57015e-08
-3.01483e-09
-6.27684e-08
-2.92217e-09
-5.99334e-08
-2.82423e-09
-5.71955e-08
-2.72739e-09
-5.45558e-08
-2.62937e-09
-5.20202e-08
-2.52545e-09
-4.95917e-08
-2.41856e-09
-4.72637e-08
-2.3183e-09
-4.50241e-08
-2.23013e-09
-4.28639e-08
-2.15107e-09
-4.07775e-08
-2.07766e-09
-3.87578e-08
-2.01118e-09
-3.67979e-08
-1.95175e-09
-3.48962e-08
-1.89379e-09
-3.30566e-08
-1.83182e-09
-3.12835e-08
-1.76541e-09
-2.95805e-08
-1.69519e-09
-2.79529e-08
-1.61992e-09
-2.64039e-08
-1.54139e-09
-2.49293e-08
-1.46721e-09
-2.35184e-08
-1.40407e-09
-2.21605e-08
-1.35158e-09
-2.08489e-08
-1.30579e-09
-1.95783e-08
-1.26532e-09
-1.83435e-08
-1.22994e-09
-1.71433e-08
-1.1956e-09
-1.59835e-08
-1.15532e-09
-1.48733e-08
-1.10572e-09
-1.3819e-08
-1.04993e-09
-1.28207e-08
-9.93889e-10
-1.18749e-08
-9.41618e-10
-1.09757e-08
-8.95111e-10
-1.01155e-08
-8.56422e-10
-9.28457e-09
-8.27403e-10
-8.47429e-09
-8.06958e-10
-7.68119e-09
-7.89991e-10
-6.90796e-09
-7.70281e-10
-6.16037e-09
-7.44765e-10
-5.44243e-09
-7.15212e-10
-4.75446e-09
-6.8536e-10
-4.09545e-09
-6.56547e-10
-3.46516e-09
-6.28024e-10
-2.86115e-09
-6.01991e-10
-2.27542e-09
-5.8397e-10
-1.69847e-09
-5.7545e-10
-1.12712e-09
-5.70064e-10
-5.66292e-10
-5.5968e-10
-2.56334e-11
-5.3957e-10
4.85227e-10
-5.09755e-10
9.60382e-10
-4.73983e-10
1.40104e-09
-4.39391e-10
1.81503e-09
-4.1265e-10
2.21183e-09
-3.954e-10
2.59846e-09
-3.85218e-10
2.9777e-09
-3.7783e-10
3.34636e-09
-3.67281e-10
3.696e-09
-3.48283e-10
4.01732e-09
-3.19942e-10
4.30417e-09
-2.85414e-10
4.55545e-09
-2.49744e-10
4.77624e-09
-2.19087e-10
4.97769e-09
-1.99576e-10
5.17379e-09
-1.94065e-10
5.37342e-09
-1.97469e-10
5.57411e-09
-1.98473e-10
5.76574e-09
-1.89431e-10
5.94044e-09
-1.72575e-10
6.09808e-09
-1.55649e-10
6.23925e-09
-1.39329e-10
6.36574e-09
-1.24795e-10
6.48671e-09
-1.19378e-10
6.60826e-09
-1.2003e-10
6.72626e-09
-1.16505e-10
6.83162e-09
-1.03873e-10
6.91795e-09
-8.48436e-11
6.98647e-09
-6.70423e-11
7.04607e-09
-5.81617e-11
7.10645e-09
-5.90012e-11
7.16669e-09
-5.89285e-11
7.22369e-09
-5.57542e-11
7.27791e-09
-5.30062e-11
7.32072e-09
-4.15822e-11
7.3534e-09
-3.14222e-11
7.38727e-09
-3.25381e-11
7.41855e-09
-2.98735e-11
7.42845e-09
-8.4457e-12
7.42469e-09
5.2448e-12
7.37417e-09
5.19967e-11
7.31324e-09
6.23564e-11
7.31766e-09
-3.07429e-12
7.30046e-09
1.8456e-11
7.32381e-09
-2.22049e-11
7.40889e-09
-8.40498e-11
7.59428e-09
-1.84465e-10
7.79933e-09
-2.04256e-10
7.92145e-09
-1.21453e-10
8.06461e-09
-1.42625e-10
8.18007e-09
-1.15072e-10
8.27949e-09
-9.9183e-11
8.33505e-09
-5.54568e-11
8.37019e-09
-3.51726e-11
8.40518e-09
-3.50992e-11
8.43169e-09
-2.66717e-11
8.48889e-09
-5.73492e-11
8.51395e-09
-2.51535e-11
8.46768e-09
4.62831e-11
8.42153e-09
4.6307e-11
8.38419e-09
3.76434e-11
8.37529e-09
9.33513e-12
8.34826e-09
2.75424e-11
8.33462e-09
1.4205e-11
8.37123e-09
-3.60478e-11
8.43742e-09
-6.56512e-11
8.51956e-09
-8.16272e-11
8.54347e-09
-2.34264e-11
8.6018e-09
-5.78516e-11
8.59672e-09
5.58389e-12
8.57464e-09
2.26202e-11
8.50238e-09
7.2858e-11
8.47164e-09
3.13837e-11
8.48042e-09
-8.08279e-12
8.4034e-09
7.77255e-11
8.42025e-09
-1.61226e-11
8.4459e-09
-2.49211e-11
8.38739e-09
5.92267e-11
8.32954e-09
5.85846e-11
7.98197e-09
3.48306e-10
7.79548e-09
1.87217e-10
7.66897e-09
1.27167e-10
7.41014e-09
2.59279e-10
7.7827e-09
-3.72485e-10
8.1303e-09
-3.48123e-10
1.01059e-08
-1.97705e-09
1.20918e-08
-1.98901e-09
1.30396e-08
-9.53668e-10
1.36985e-08
-6.64354e-10
1.40062e-08
-3.12837e-10
1.41333e-08
-1.31725e-10
1.41421e-08
-1.30126e-11
1.4048e-08
9.0283e-11
1.38481e-08
1.96511e-10
1.3566e-08
2.78959e-10
1.32341e-08
3.29124e-10
1.28643e-08
3.6738e-10
1.24893e-08
3.72769e-10
1.21514e-08
3.35877e-10
1.18599e-08
2.89632e-10
1.15854e-08
2.728e-10
1.12957e-08
2.88131e-10
1.09936e-08
3.0059e-10
1.07085e-08
2.83728e-10
1.04618e-08
2.45373e-10
1.02522e-08
2.08229e-10
1.00629e-08
1.88101e-10
9.86987e-09
1.91813e-10
9.65193e-09
2.1682e-10
9.39691e-09
2.53961e-10
9.10435e-09
2.9155e-10
8.78446e-09
3.1892e-10
8.45234e-09
3.31145e-10
8.12342e-09
3.27924e-10
7.81321e-09
3.09155e-10
7.54069e-09
2.71383e-10
7.32737e-09
2.12091e-10
7.19762e-09
1.28425e-10
7.16925e-09
2.69823e-11
7.24943e-09
-8.15997e-11
7.43013e-09
-1.82093e-10
7.69134e-09
-2.62532e-10
8.00505e-09
-3.14903e-10
8.34456e-09
-3.40553e-10
8.68788e-09
-3.44195e-10
9.01916e-09
-3.32005e-10
9.32485e-09
-3.06292e-10
9.58857e-09
-2.64217e-10
9.79021e-09
-2.02081e-10
9.91298e-09
-1.23135e-10
9.95443e-09
-4.17358e-11
9.93143e-09
2.283e-11
9.87481e-09
5.66172e-11
9.82259e-09
5.24391e-11
9.80948e-09
1.3602e-11
9.85834e-09
-4.80417e-11
9.99423e-09
-1.34715e-10
1.02183e-08
-2.22476e-10
1.04955e-08
-2.75339e-10
1.07437e-08
-2.45782e-10
1.08711e-08
-1.24648e-10
1.08534e-08
2.08161e-11
1.07696e-08
8.74447e-11
1.07818e-08
-8.01875e-12
1.09632e-08
-1.76635e-10
1.12019e-08
-2.33294e-10
1.12494e-08
-4.12883e-11
1.09673e-08
2.88974e-10
1.04649e-08
5.10189e-10
1.00652e-08
4.08442e-10
9.96047e-09
1.14347e-10
9.91589e-09
5.51875e-11
9.61946e-09
3.08034e-10
9.06933e-09
5.62756e-10
8.6707e-09
4.12293e-10
8.72272e-09
-3.73091e-11
8.8703e-09
-1.3181e-10
8.78374e-09
1.03341e-10
8.67262e-09
1.28889e-10
8.92944e-09
-2.38126e-10
9.36622e-09
-4.17238e-10
9.37617e-09
1.03039e-11
9.07942e-09
3.17461e-10
8.89989e-09
2.00261e-10
8.43509e-09
4.84689e-10
8.00688e-09
4.4555e-10
1.07086e-09
-2.24969e-05
-1.21674e-06
-2.19207e-05
-9.97505e-07
-2.13143e-05
-1.0377e-06
-2.08107e-05
-1.01571e-06
-2.03156e-05
-9.669e-07
-1.98168e-05
-9.54849e-07
-1.93198e-05
-9.62798e-07
-1.88262e-05
-9.61724e-07
-1.83311e-05
-9.68454e-07
-1.78407e-05
-9.70831e-07
-1.73552e-05
-9.60355e-07
-1.68764e-05
-9.43306e-07
-1.64051e-05
-9.2644e-07
-1.59385e-05
-9.04026e-07
-1.54803e-05
-9.00803e-07
-1.50299e-05
-8.96904e-07
-1.45839e-05
-8.89784e-07
-1.41402e-05
-8.81074e-07
-1.37052e-05
-8.64095e-07
-1.32762e-05
-8.31899e-07
-1.28542e-05
-7.8931e-07
-1.24377e-05
-7.90889e-07
-1.20425e-05
-8.08675e-07
-1.16462e-05
-8.04058e-07
-1.12509e-05
-7.53911e-07
-1.08646e-05
-7.30355e-07
-1.04886e-05
-7.12546e-07
-1.01351e-05
-6.924e-07
-9.78588e-06
-7.01764e-07
-9.46169e-06
-6.20889e-07
-9.19932e-06
-5.36337e-07
-8.9514e-06
-5.41738e-07
-8.65784e-06
-6.27807e-07
-8.29337e-06
-6.49359e-07
-7.9526e-06
-5.92357e-07
-7.70048e-06
-4.63806e-07
-7.47135e-06
-4.87013e-07
-7.25422e-06
-5.3137e-07
-6.99482e-06
-4.76064e-07
-6.71514e-06
-4.81004e-07
-6.5154e-06
-3.62867e-07
-6.33157e-06
-3.30061e-07
-6.13008e-06
-4.25336e-07
-5.90726e-06
-4.70634e-07
-5.6912e-06
-3.83305e-07
-5.53256e-06
-2.86982e-07
-5.38029e-06
-3.31098e-07
-5.24081e-06
-3.31436e-07
-5.10908e-06
-2.8126e-07
-4.98559e-06
-2.40911e-07
-4.85716e-06
-2.62036e-07
-4.7341e-06
-2.77275e-07
-4.61534e-06
-2.69868e-07
-4.49708e-06
-2.56951e-07
-4.38566e-06
-2.21547e-07
-4.28869e-06
-1.94715e-07
-4.19165e-06
-2.00655e-07
-4.10519e-06
-1.63496e-07
-4.05244e-06
-8.65963e-08
-4.0096e-06
-7.09046e-08
-3.94825e-06
-1.15568e-07
-3.89112e-06
-1.19247e-07
-3.88509e-06
-1.55808e-08
-3.88842e-06
4.69965e-09
-3.88996e-06
-4.23028e-09
-3.85475e-06
-6.6919e-08
-3.82333e-06
-8.04026e-08
-3.78448e-06
-6.76571e-08
-3.74583e-06
-7.28523e-08
-3.727e-06
-6.43784e-08
-3.72131e-06
-4.23608e-08
-3.68941e-06
-8.15868e-08
-3.63952e-06
-1.22532e-07
-3.60234e-06
-1.95554e-07
-3.5649e-06
-2.14419e-07
-3.51912e-06
-2.99562e-07
-3.46794e-06
-4.24358e-07
-3.32405e-06
-5.03482e-07
-3.10747e-06
-5.05639e-07
-2.84111e-06
-4.46561e-07
-2.58414e-06
-3.12526e-07
-2.28486e-06
-2.85535e-07
-2.02567e-06
-1.54597e-07
-1.91115e-06
-2.65477e-08
-1.81826e-06
-6.28176e-09
-1.85564e-06
9.08874e-08
-1.93926e-06
1.03902e-07
-2.07725e-06
1.89257e-07
-2.19671e-06
1.72764e-07
-2.25629e-06
1.25162e-07
-2.27789e-06
7.77177e-08
-2.30409e-06
7.13856e-08
-2.34535e-06
6.76509e-08
-2.38933e-06
6.49075e-08
-2.43642e-06
5.39305e-08
-2.47079e-06
1.69165e-08
-2.50924e-06
-3.18013e-08
-2.54659e-06
-7.93115e-08
-2.60399e-06
-1.33094e-07
-2.59715e-06
-1.51502e-07
-2.4954e-06
-1.22148e-07
-2.29978e-06
-1.44813e-07
-2.13541e-06
-8.35209e-08
-2.09339e-06
1.427e-08
-2.09083e-06
8.70585e-08
-2.12594e-06
1.21066e-07
-2.16467e-06
9.0274e-08
-2.22193e-06
1.02663e-07
-2.30826e-06
1.38807e-07
-2.38982e-06
1.36744e-07
-2.43459e-06
9.13068e-08
-2.47954e-06
8.72561e-08
-2.52064e-06
6.80959e-08
-2.56101e-06
4.47243e-08
-2.60948e-06
1.776e-08
-2.65674e-06
-2.48157e-08
-2.72331e-06
-8.70198e-08
-2.74319e-06
-9.76295e-08
-2.68046e-06
-7.25942e-08
-2.5189e-06
-1.15491e-07
-2.37779e-06
-6.4033e-08
-2.35158e-06
2.91603e-08
-2.36679e-06
1.0283e-07
-2.41271e-06
1.27442e-07
-2.46152e-06
1.02676e-07
-2.54093e-06
1.36206e-07
-2.6145e-06
1.27563e-07
-2.66076e-06
9.87941e-08
-2.70835e-06
1.01491e-07
-2.75452e-06
9.54576e-08
-2.79833e-06
8.58519e-08
-2.84304e-06
8.95168e-08
-2.88534e-06
8.49557e-08
-2.9238e-06
7.85959e-08
-2.96052e-06
7.43186e-08
-2.99639e-06
7.01324e-08
-3.03149e-06
7.11094e-08
-3.06486e-06
6.77055e-08
-3.09701e-06
6.47779e-08
-3.12826e-06
6.06952e-08
-3.15756e-06
5.83454e-08
-3.18486e-06
5.52761e-08
-3.21023e-06
5.15657e-08
-3.2352e-06
4.91388e-08
-3.25771e-06
4.54826e-08
-3.27818e-06
4.15477e-08
-3.29744e-06
3.74844e-08
-3.31551e-06
3.44487e-08
-3.33142e-06
3.16147e-08
-3.34527e-06
2.81949e-08
-3.35739e-06
2.48169e-08
-3.3681e-06
2.11134e-08
-3.37722e-06
1.7112e-08
-3.38498e-06
1.35243e-08
-3.39036e-06
1.09929e-08
-3.39424e-06
8.01738e-09
-3.39663e-06
4.65075e-09
-3.39769e-06
1.23405e-09
-3.39753e-06
-1.51937e-09
-3.39536e-06
-4.03536e-09
-3.39206e-06
-6.71699e-09
-3.38766e-06
-9.62657e-09
-3.3822e-06
-1.22604e-08
-3.37496e-06
-1.46248e-08
-3.36652e-06
-1.68266e-08
-3.35723e-06
-1.9046e-08
-3.34657e-06
-2.16827e-08
-3.33471e-06
-2.40229e-08
-3.3218e-06
-2.59797e-08
-3.30804e-06
-2.7721e-08
-3.29298e-06
-3.01024e-08
-3.27687e-06
-3.2306e-08
-3.25987e-06
-3.41851e-08
-3.24198e-06
-3.59306e-08
-3.22289e-06
-3.80299e-08
-3.20286e-06
-3.99262e-08
-3.18201e-06
-4.16367e-08
-3.16034e-06
-4.3263e-08
-3.13773e-06
-4.49929e-08
-3.11428e-06
-4.66231e-08
-3.09009e-06
-4.81371e-08
-3.0652e-06
-4.95982e-08
-3.03958e-06
-5.10422e-08
-3.01325e-06
-5.23992e-08
-2.98631e-06
-5.37139e-08
-2.95876e-06
-5.49694e-08
-2.9305e-06
-5.61457e-08
-2.90169e-06
-5.72669e-08
-2.8724e-06
-5.83347e-08
-2.84265e-06
-5.92897e-08
-2.81246e-06
-6.01745e-08
-2.78185e-06
-6.09987e-08
-2.75084e-06
-6.17743e-08
-2.71945e-06
-6.25046e-08
-2.6877e-06
-6.31847e-08
-2.65562e-06
-6.37994e-08
-2.62327e-06
-6.43469e-08
-2.59067e-06
-6.48136e-08
-2.55786e-06
-6.52238e-08
-2.52485e-06
-6.56031e-08
-2.49168e-06
-6.59504e-08
-2.45835e-06
-6.6256e-08
-2.4249e-06
-6.65222e-08
-2.39134e-06
-6.6728e-08
-2.35772e-06
-6.68699e-08
-2.32407e-06
-6.69354e-08
-2.29045e-06
-6.69213e-08
-2.25689e-06
-6.68715e-08
-2.22336e-06
-6.68326e-08
-2.18989e-06
-6.67734e-08
-2.15648e-06
-6.66952e-08
-2.12313e-06
-6.65726e-08
-2.08985e-06
-6.63985e-08
-2.05666e-06
-6.61936e-08
-2.02359e-06
-6.59463e-08
-1.99066e-06
-6.56424e-08
-1.95786e-06
-6.52976e-08
-1.92519e-06
-6.49332e-08
-1.89279e-06
-6.45472e-08
-1.86063e-06
-6.41266e-08
-1.82872e-06
-6.36778e-08
-1.79705e-06
-6.32161e-08
-1.76562e-06
-6.27493e-08
-1.73441e-06
-6.22628e-08
-1.70343e-06
-6.1755e-08
-1.67269e-06
-6.12465e-08
-1.64214e-06
-6.0732e-08
-1.6119e-06
-6.02317e-08
-1.58191e-06
-5.97049e-08
-1.55223e-06
-5.91497e-08
-1.52286e-06
-5.85794e-08
-1.49379e-06
-5.79948e-08
-1.46504e-06
-5.73963e-08
-1.43658e-06
-5.68075e-08
-1.40839e-06
-5.62494e-08
-1.38047e-06
-5.56779e-08
-1.35283e-06
-5.50816e-08
-1.32548e-06
-5.4455e-08
-1.29849e-06
-5.37791e-08
-1.27184e-06
-5.31091e-08
-1.24555e-06
-5.24422e-08
-1.2196e-06
-5.17832e-08
-1.19397e-06
-5.11441e-08
-1.16865e-06
-5.05077e-08
-1.14365e-06
-4.98635e-08
-1.11897e-06
-4.92004e-08
-1.09462e-06
-4.85348e-08
-1.0706e-06
-4.78666e-08
-1.04692e-06
-4.71892e-08
-1.02358e-06
-4.65042e-08
-1.00057e-06
-4.58157e-08
-9.77894e-07
-4.51333e-08
-9.55548e-07
-4.44584e-08
-9.33534e-07
-4.37793e-08
-9.1184e-07
-4.30869e-08
-8.90518e-07
-4.23885e-08
-8.69553e-07
-4.17125e-08
-8.48937e-07
-4.10582e-08
-8.28661e-07
-4.04186e-08
-8.08717e-07
-3.97736e-08
-7.89101e-07
-3.9117e-08
-7.6981e-07
-3.84554e-08
-7.50843e-07
-3.77926e-08
-7.32201e-07
-3.71272e-08
-7.13888e-07
-3.646e-08
-6.95905e-07
-3.57977e-08
-6.78248e-07
-3.51433e-08
-6.60916e-07
-3.44929e-08
-6.43908e-07
-3.38447e-08
-6.27226e-07
-3.32018e-08
-6.10872e-07
-3.25626e-08
-5.94851e-07
-3.19203e-08
-5.79155e-07
-3.12723e-08
-5.63786e-07
-3.06251e-08
-5.48739e-07
-2.99836e-08
-5.34009e-07
-2.93483e-08
-5.19589e-07
-2.87164e-08
-5.05473e-07
-2.80912e-08
-4.91655e-07
-2.74737e-08
-4.7813e-07
-2.68626e-08
-4.64896e-07
-2.62583e-08
-4.51952e-07
-2.56686e-08
-4.39289e-07
-2.51034e-08
-4.26906e-07
-2.45657e-08
-4.1479e-07
-2.40495e-08
-4.02935e-07
-2.35486e-08
-3.91335e-07
-2.30598e-08
-3.79983e-07
-2.25836e-08
-3.68875e-07
-2.21171e-08
-3.58008e-07
-2.16547e-08
-3.47381e-07
-2.11904e-08
-3.36995e-07
-2.07218e-08
-3.2685e-07
-2.02482e-08
-3.16943e-07
-1.97684e-08
-3.07275e-07
-1.9282e-08
-2.97845e-07
-1.87911e-08
-2.88652e-07
-1.83007e-08
-2.79694e-07
-1.78165e-08
-2.70969e-07
-1.73422e-08
-2.6247e-07
-1.68789e-08
-2.54192e-07
-1.64279e-08
-2.46128e-07
-1.59915e-08
-2.38271e-07
-1.55735e-08
-2.30611e-07
-1.51764e-08
-2.23143e-07
-1.48002e-08
-2.15859e-07
-1.44422e-08
-2.08754e-07
-1.40981e-08
-2.01824e-07
-1.3764e-08
-1.95066e-07
-1.34366e-08
-1.88477e-07
-1.31134e-08
-1.82053e-07
-1.27928e-08
-1.75793e-07
-1.24737e-08
-1.69694e-07
-1.21559e-08
-1.63753e-07
-1.184e-08
-1.57969e-07
-1.15272e-08
-1.52338e-07
-1.12194e-08
-1.4686e-07
-1.09184e-08
-1.41529e-07
-1.06259e-08
-1.36343e-07
-1.03419e-08
-1.31297e-07
-1.00645e-08
-1.2639e-07
-9.79018e-09
-1.21623e-07
-9.51616e-09
-1.16999e-07
-9.24241e-09
-1.12517e-07
-8.97116e-09
-1.08174e-07
-8.70337e-09
-1.03965e-07
-8.43562e-09
-9.98858e-08
-8.16285e-09
-9.59363e-08
-7.88567e-09
-9.21157e-08
-7.61346e-09
-8.84184e-08
-7.35817e-09
-8.48352e-08
-7.1235e-09
-8.13586e-08
-6.90327e-09
-7.79865e-08
-6.69194e-09
-7.47184e-08
-6.49332e-09
-7.155e-08
-6.31337e-09
-6.84752e-08
-6.14606e-09
-6.54926e-08
-5.97337e-09
-6.2607e-08
-5.78415e-09
-5.98224e-08
-5.58561e-09
-5.71363e-08
-5.39072e-09
-5.45425e-08
-5.20094e-09
-5.20376e-08
-5.0087e-09
-4.96216e-08
-4.81334e-09
-4.72933e-08
-4.62597e-09
-4.50478e-08
-4.45548e-09
-4.28808e-08
-4.29842e-09
-4.07906e-08
-4.14872e-09
-3.87753e-08
-4.00775e-09
-3.68318e-08
-3.87693e-09
-3.4958e-08
-3.74965e-09
-3.31534e-08
-3.6191e-09
-3.14159e-08
-3.48602e-09
-2.97427e-08
-3.35199e-09
-2.81327e-08
-3.21408e-09
-2.65857e-08
-3.07316e-09
-2.50983e-08
-2.93984e-09
-2.36639e-08
-2.82419e-09
-2.22771e-08
-2.72454e-09
-2.0937e-08
-2.63228e-09
-1.96459e-08
-2.54327e-09
-1.84045e-08
-2.45833e-09
-1.72123e-08
-2.37495e-09
-1.60692e-08
-2.2859e-09
-1.49754e-08
-2.18721e-09
-1.39302e-08
-2.08327e-09
-1.29302e-08
-1.98235e-09
-1.1971e-08
-1.88973e-09
-1.10486e-08
-1.80684e-09
-1.01601e-08
-1.73475e-09
-9.30287e-09
-1.67487e-09
-8.47448e-09
-1.62593e-09
-7.67339e-09
-1.58199e-09
-6.89992e-09
-1.53496e-09
-6.156e-09
-1.48019e-09
-5.44255e-09
-1.42045e-09
-4.75698e-09
-1.36303e-09
-4.0945e-09
-1.31142e-09
-3.45252e-09
-1.26272e-09
-2.83171e-09
-1.21583e-09
-2.23269e-09
-1.17629e-09
-1.65492e-09
-1.14678e-09
-1.09945e-09
-1.11931e-09
-5.69607e-10
-1.08347e-09
-6.71395e-11
-1.03612e-09
4.0985e-10
-9.8094e-10
8.65245e-10
-9.23666e-10
1.30336e-09
-8.71877e-10
1.72818e-09
-8.3193e-10
2.14129e-09
-8.03046e-10
2.54033e-09
-7.78844e-10
2.92026e-09
-7.52375e-10
3.27583e-09
-7.17446e-10
3.60395e-09
-6.70926e-10
3.90537e-09
-6.15776e-10
4.1837e-09
-5.57991e-10
4.44363e-09
-5.03757e-10
4.68978e-09
-4.59158e-10
4.92462e-09
-4.28197e-10
5.14765e-09
-4.10792e-10
5.35677e-09
-4.00277e-10
5.5498e-09
-3.85248e-10
5.72564e-09
-3.59151e-10
5.88739e-09
-3.28379e-10
6.04283e-09
-3.05351e-10
6.19507e-09
-2.86074e-10
6.33944e-09
-2.63905e-10
6.47111e-09
-2.46028e-10
6.58632e-09
-2.30439e-10
6.68648e-09
-2.12086e-10
6.77645e-09
-1.89479e-10
6.85938e-09
-1.63609e-10
6.93787e-09
-1.41566e-10
7.0123e-09
-1.28793e-10
7.08587e-09
-1.28919e-10
7.15007e-09
-1.19583e-10
7.20441e-09
-1.06594e-10
7.25318e-09
-9.8282e-11
7.29339e-09
-7.82534e-11
7.31949e-09
-5.39085e-11
7.34487e-09
-5.42122e-11
7.33629e-09
-1.75072e-11
7.32706e-09
4.61934e-12
7.36774e-09
-3.16076e-11
7.39805e-09
2.54478e-11
7.44432e-09
1.97191e-11
7.52837e-09
-8.36925e-11
7.74349e-09
-1.93476e-10
7.96129e-09
-2.37118e-10
8.05655e-09
-1.76751e-10
8.08141e-09
-2.07139e-10
8.07465e-09
-1.95665e-10
8.11707e-09
-1.62407e-10
8.16568e-09
-1.90102e-10
8.21527e-09
-1.63805e-10
8.26744e-09
-1.50713e-10
8.30483e-09
-9.2333e-11
8.33828e-09
-6.8155e-11
8.36325e-09
-5.95607e-11
8.37934e-09
-4.21525e-11
8.40396e-09
-8.12072e-11
8.41811e-09
-3.83591e-11
8.40092e-09
6.46002e-11
8.40164e-09
4.68771e-11
8.40208e-09
3.8598e-11
8.44889e-09
-3.60151e-11
8.48443e-09
-6.5245e-12
8.49493e-09
5.14841e-12
8.50926e-09
-4.90019e-11
8.52002e-09
-7.5102e-11
8.51343e-09
-7.37983e-11
8.47052e-09
2.0673e-11
8.50114e-09
-8.73203e-11
8.48969e-09
1.8168e-11
8.45291e-09
6.05026e-11
8.46397e-09
6.28786e-11
8.50509e-09
-8.7163e-12
8.5152e-09
-1.72353e-11
8.5357e-09
5.81218e-11
8.50902e-09
1.14042e-11
8.18584e-09
2.99081e-10
8.03908e-09
2.06791e-10
7.99716e-09
1.01341e-10
7.88531e-09
4.61047e-10
8.47728e-09
-4.03672e-10
9.06321e-09
-4.571e-10
1.13244e-08
-1.99968e-09
1.34787e-08
-2.52205e-09
1.48989e-08
-1.76055e-09
1.5191e-08
-2.25914e-09
1.46095e-08
-1.39315e-09
1.46013e-08
-9.32003e-10
1.46449e-08
-6.95414e-10
1.46387e-08
-2.95162e-10
1.45865e-08
-6.89561e-11
1.44607e-08
1.22519e-10
1.42338e-08
3.26096e-10
1.39924e-08
4.46067e-10
1.3786e-08
4.92888e-10
1.35648e-08
5.57196e-10
1.3305e-08
6.33544e-10
1.30277e-08
6.55942e-10
1.27443e-08
6.24766e-10
1.24435e-08
5.95415e-10
1.21165e-08
6.04487e-10
1.17856e-08
6.23297e-10
1.14849e-08
6.05268e-10
1.12301e-08
5.4217e-10
1.10186e-08
4.60181e-10
1.08348e-08
3.9501e-10
1.0656e-08
3.69759e-10
1.04596e-08
3.90746e-10
1.02311e-08
4.47609e-10
9.97092e-09
5.16291e-10
9.69073e-09
5.73642e-10
9.41137e-09
5.99969e-10
9.15166e-09
5.92343e-10
8.92473e-09
5.56133e-10
8.73988e-09
4.95108e-10
8.59978e-09
4.12429e-10
8.50706e-09
3.05626e-10
8.46057e-09
1.75613e-10
8.45386e-09
3.43223e-11
8.486e-09
-1.13173e-10
8.55504e-09
-2.50608e-10
8.66037e-09
-3.67371e-10
8.80157e-09
-4.55661e-10
8.97703e-09
-5.15636e-10
9.17973e-09
-5.46602e-10
9.39674e-09
-5.48851e-10
9.60754e-09
-5.17063e-10
9.78749e-09
-4.44326e-10
9.91636e-09
-3.31312e-10
9.98943e-09
-1.96805e-10
1.00178e-08
-7.10121e-11
1.00305e-08
8.99011e-12
1.00454e-08
4.03131e-11
1.00715e-08
2.43902e-11
1.01106e-08
-2.7792e-11
1.01745e-08
-1.14773e-10
1.02733e-08
-2.37049e-10
1.04191e-08
-3.7248e-10
1.05957e-08
-4.56882e-10
1.07539e-08
-4.09937e-10
1.08491e-08
-2.26742e-10
1.08877e-08
-2.56432e-11
1.09184e-08
4.76492e-11
1.09805e-08
-8.04708e-11
1.10519e-08
-2.59603e-10
1.10152e-08
-2.0956e-10
1.08092e-08
1.50285e-10
1.0498e-08
5.84275e-10
1.02918e-08
6.98797e-10
1.02757e-08
4.05251e-10
1.02482e-08
1.20752e-10
1.0015e-08
2.6549e-10
9.5968e-09
7.0149e-10
9.34072e-09
7.92258e-10
9.39321e-09
3.3139e-10
9.37769e-09
-5.20012e-11
9.1237e-09
9.0222e-11
8.89769e-09
2.95746e-10
8.98099e-09
1.04693e-11
9.0066e-09
-3.00177e-10
8.65557e-09
-1.03689e-10
8.36327e-09
2.64482e-10
8.18908e-09
4.53484e-10
7.95451e-09
3.97446e-10
7.77677e-09
6.26916e-10
7.81376e-09
3.76053e-10
1.93671e-09
-2.23163e-05
-1.7166e-06
-2.19285e-05
-1.38045e-06
-2.14655e-05
-1.49542e-06
-2.10194e-05
-1.45584e-06
-2.05304e-05
-1.44959e-06
-2.0021e-05
-1.45769e-06
-1.95063e-05
-1.47068e-06
-1.8995e-05
-1.46569e-06
-1.84916e-05
-1.46386e-06
-1.79996e-05
-1.4546e-06
-1.75173e-05
-1.43428e-06
-1.70421e-05
-1.41023e-06
-1.65707e-05
-1.38981e-06
-1.60946e-05
-1.37216e-06
-1.56316e-05
-1.35619e-06
-1.51792e-05
-1.3422e-06
-1.47298e-05
-1.33256e-06
-1.4288e-05
-1.31675e-06
-1.38558e-05
-1.2904e-06
-1.34245e-05
-1.25766e-06
-1.29783e-05
-1.23068e-06
-1.25478e-05
-1.21778e-06
-1.21457e-05
-1.20776e-06
-1.17575e-05
-1.18934e-06
-1.1348e-05
-1.1614e-06
-1.0938e-05
-1.13866e-06
-1.05446e-05
-1.10492e-06
-1.01725e-05
-1.06568e-06
-9.83009e-06
-1.04525e-06
-9.47456e-06
-9.74831e-07
-9.14671e-06
-8.63885e-07
-8.85112e-06
-8.37813e-07
-8.59649e-06
-8.88581e-07
-8.27857e-06
-9.72226e-07
-7.95466e-06
-9.18704e-07
-7.64015e-06
-7.8155e-07
-7.38118e-06
-7.50065e-07
-7.17587e-06
-7.42813e-07
-6.89943e-06
-7.6165e-07
-6.63157e-06
-7.57018e-07
-6.3703e-06
-6.31127e-07
-6.12655e-06
-5.79967e-07
-5.94484e-06
-6.16518e-07
-5.77781e-06
-6.46673e-07
-5.57757e-06
-5.90803e-07
-5.38751e-06
-4.84196e-07
-5.24832e-06
-4.75301e-07
-5.13622e-06
-4.48143e-07
-5.01587e-06
-4.07515e-07
-4.88784e-06
-3.76066e-07
-4.7806e-06
-3.74228e-07
-4.69132e-06
-3.72584e-07
-4.58655e-06