/*--------------------------------*- C++ -*----------------------------------*\
| =========                 |                                                 |
| \\      /  F ield         | OpenFOAM: The Open Source CFD Toolbox           |
|  \\    /   O peration     | Version:  v2006                                 |
|   \\  /    A nd           | Website:  www.openfoam.com                      |
|    \\/     M anipulation  |                                                 |
\*---------------------------------------------------------------------------*/
FoamFile
{
    version     2.0;
    format      ascii;
    class       volScalarField;
    location    "1.7";
    object      nut;
}
// * * * * * * * * * * * * * * * * * * * * * * * * * * * * * * * * * * * * * //

dimensions      [0 2 -1 0 0 0 0];


internalField   nonuniform List<scalar> 
33000
(
3.19487e-09
2.19526e-09
2.48247e-09
2.55261e-09
2.61501e-09
2.66523e-09
2.71993e-09
2.78072e-09
2.84491e-09
2.91607e-09
2.99371e-09
3.07516e-09
3.16087e-09
3.24662e-09
3.33113e-09
3.42421e-09
3.52187e-09
3.6246e-09
3.73593e-09
3.85861e-09
3.97464e-09
4.08255e-09
4.21549e-09
4.37685e-09
4.53745e-09
4.68702e-09
4.8412e-09
5.00363e-09
5.19933e-09
5.3988e-09
5.55344e-09
5.70505e-09
5.92718e-09
6.19347e-09
6.42559e-09
6.61599e-09
6.78028e-09
7.10072e-09
7.44255e-09
7.65913e-09
7.91917e-09
8.07301e-09
8.27057e-09
8.68099e-09
9.06939e-09
9.1983e-09
9.36877e-09
9.73448e-09
1.00796e-08
1.02596e-08
1.04181e-08
1.07026e-08
1.10473e-08
1.14076e-08
1.1725e-08
1.19552e-08
1.22702e-08
1.26548e-08
1.28358e-08
1.28558e-08
1.29927e-08
1.33482e-08
1.35369e-08
1.34521e-08
1.34129e-08
1.3454e-08
1.36736e-08
1.38394e-08
1.38569e-08
1.39901e-08
1.40889e-08
1.40473e-08
1.38627e-08
1.38633e-08
1.39487e-08
1.35932e-08
1.34365e-08
1.61704e-08
1.89312e-08
2.20351e-08
2.23301e-08
1.96126e-08
2.14959e-08
2.1873e-08
2.2585e-08
2.25676e-08
2.24771e-08
2.2437e-08
2.11635e-08
2.02103e-08
1.98224e-08
1.96969e-08
1.96169e-08
1.9276e-08
1.87568e-08
1.82379e-08
1.78588e-08
1.79224e-08
1.83652e-08
2.12071e-08
2.12396e-08
2.11402e-08
2.06362e-08
2.01482e-08
2.10706e-08
2.07422e-08
2.04667e-08
2.00202e-08
1.93419e-08
1.83229e-08
1.77806e-08
1.74185e-08
1.69823e-08
1.66284e-08
1.61954e-08
1.59154e-08
1.60132e-08
1.85215e-08
1.90728e-08
1.78562e-08
1.73135e-08
1.67808e-08
1.73005e-08
1.68024e-08
1.65736e-08
1.60233e-08
1.53964e-08
1.50006e-08
1.46652e-08
1.43117e-08
1.40549e-08
1.37727e-08
1.34608e-08
1.3197e-08
1.29528e-08
1.27465e-08
1.25354e-08
1.23126e-08
1.21128e-08
1.19322e-08
1.17631e-08
1.15937e-08
1.14362e-08
1.12898e-08
1.11486e-08
1.10152e-08
1.0895e-08
1.07861e-08
1.06786e-08
1.05763e-08
1.04812e-08
1.0391e-08
1.03105e-08
1.02412e-08
1.01738e-08
1.01071e-08
1.00474e-08
9.99517e-09
9.94824e-09
9.90307e-09
9.86057e-09
9.82413e-09
9.79329e-09
9.76439e-09
9.7371e-09
9.71351e-09
9.69371e-09
9.67681e-09
9.66358e-09
9.65299e-09
9.64507e-09
9.64134e-09
9.64128e-09
9.64335e-09
9.64808e-09
9.65707e-09
9.66987e-09
9.68494e-09
9.70358e-09
9.72578e-09
9.75006e-09
9.77762e-09
9.80883e-09
9.84364e-09
9.88098e-09
9.92196e-09
9.96643e-09
1.0014e-08
1.00639e-08
1.01166e-08
1.01727e-08
1.02327e-08
1.02948e-08
1.03598e-08
1.04283e-08
1.05003e-08
1.05745e-08
1.06515e-08
1.07324e-08
1.08159e-08
1.09027e-08
1.09933e-08
1.10867e-08
1.11832e-08
1.12837e-08
1.13879e-08
1.14952e-08
1.16066e-08
1.17218e-08
1.18395e-08
1.19617e-08
1.20885e-08
1.22178e-08
1.23522e-08
1.24917e-08
1.26359e-08
1.27846e-08
1.29381e-08
1.30968e-08
1.3234e-08
1.31844e-08
1.31362e-08
1.30889e-08
1.30425e-08
1.2997e-08
1.29522e-08
1.29082e-08
1.28651e-08
1.28229e-08
1.27819e-08
1.27419e-08
1.27027e-08
1.26642e-08
1.26264e-08
1.25892e-08
1.25527e-08
1.2517e-08
1.24819e-08
1.24478e-08
1.24147e-08
1.23824e-08
1.23507e-08
1.23195e-08
1.22889e-08
1.22588e-08
1.22292e-08
1.22003e-08
1.21721e-08
1.21447e-08
1.21179e-08
1.20915e-08
1.20657e-08
1.20404e-08
1.20156e-08
1.19915e-08
1.1968e-08
1.1945e-08
1.19225e-08
1.19004e-08
1.18787e-08
1.18575e-08
1.18366e-08
1.18162e-08
1.17962e-08
1.17769e-08
1.1758e-08
1.17396e-08
1.17215e-08
1.17038e-08
1.16865e-08
1.16696e-08
1.16531e-08
1.16372e-08
1.16217e-08
1.16065e-08
1.15917e-08
1.15772e-08
1.1563e-08
1.15493e-08
1.15359e-08
1.15229e-08
1.15101e-08
1.14976e-08
1.14854e-08
1.14736e-08
1.14622e-08
1.1451e-08
1.144e-08
1.14294e-08
1.1419e-08
1.14091e-08
1.13993e-08
1.13898e-08
1.13806e-08
1.13715e-08
1.13627e-08
1.13542e-08
1.1346e-08
1.13379e-08
1.133e-08
1.13223e-08
1.13148e-08
1.13075e-08
1.13005e-08
1.12937e-08
1.12871e-08
1.12807e-08
1.12745e-08
1.12684e-08
1.12627e-08
1.12571e-08
1.12517e-08
1.12464e-08
1.12412e-08
1.12363e-08
1.12315e-08
1.12268e-08
1.12222e-08
1.12178e-08
1.12136e-08
1.12096e-08
1.12057e-08
1.1202e-08
1.11983e-08
1.1195e-08
1.11917e-08
1.11885e-08
1.11854e-08
1.11824e-08
1.11795e-08
1.11767e-08
1.11739e-08
1.11713e-08
1.11687e-08
1.11662e-08
1.11639e-08
1.11618e-08
1.11598e-08
1.11578e-08
1.11559e-08
1.1154e-08
1.11522e-08
1.11504e-08
1.11487e-08
1.1147e-08
1.11453e-08
1.11436e-08
1.11419e-08
1.11405e-08
1.11391e-08
1.11377e-08
1.11364e-08
1.11351e-08
1.11338e-08
1.11324e-08
1.1131e-08
1.11297e-08
1.11284e-08
1.11271e-08
1.11259e-08
1.11247e-08
1.11236e-08
1.11225e-08
1.11214e-08
1.11204e-08
1.11193e-08
1.11182e-08
1.11171e-08
1.11159e-08
1.11148e-08
1.11137e-08
1.11127e-08
1.11118e-08
1.11109e-08
1.111e-08
1.11091e-08
1.11082e-08
1.11073e-08
1.11065e-08
1.11057e-08
1.11049e-08
1.11041e-08
1.11034e-08
1.11028e-08
1.11021e-08
1.11015e-08
1.11008e-08
1.11001e-08
1.10993e-08
1.10986e-08
1.10979e-08
1.10972e-08
1.10966e-08
1.1096e-08
1.10954e-08
1.10946e-08
1.10938e-08
1.10929e-08
1.10921e-08
1.10913e-08
1.10906e-08
1.10899e-08
1.10892e-08
1.10884e-08
1.10877e-08
1.10869e-08
1.10862e-08
1.10855e-08
1.10848e-08
1.10841e-08
1.10834e-08
1.10827e-08
1.1082e-08
1.10813e-08
1.10806e-08
1.108e-08
1.10794e-08
1.10788e-08
1.10782e-08
1.10776e-08
1.1077e-08
1.10764e-08
1.10758e-08
1.10751e-08
1.10744e-08
1.10737e-08
1.10731e-08
1.10725e-08
1.10722e-08
1.10716e-08
1.10718e-08
1.10713e-08
1.10713e-08
1.10711e-08
1.1071e-08
1.10708e-08
1.10704e-08
1.10702e-08
1.10699e-08
1.10696e-08
1.10695e-08
1.10691e-08
1.10687e-08
1.10683e-08
1.1068e-08
1.10678e-08
1.10674e-08
1.10672e-08
1.10672e-08
1.10673e-08
1.10673e-08
1.10673e-08
1.10673e-08
1.10671e-08
1.10669e-08
1.10665e-08
1.10666e-08
1.10665e-08
1.10662e-08
1.10665e-08
1.10663e-08
1.10663e-08
1.10657e-08
1.1065e-08
1.10649e-08
1.10643e-08
1.1064e-08
1.10658e-08
1.10643e-08
1.10745e-08
1.10725e-08
1.10738e-08
1.10742e-08
1.10741e-08
1.10738e-08
1.10733e-08
1.10726e-08
1.10716e-08
1.10706e-08
1.10695e-08
1.10685e-08
1.10676e-08
1.10668e-08
1.10663e-08
1.10657e-08
1.10652e-08
1.10647e-08
1.10643e-08
1.10639e-08
1.10636e-08
1.10634e-08
1.10631e-08
1.10628e-08
1.10625e-08
1.10623e-08
1.1062e-08
1.10617e-08
1.10615e-08
1.10614e-08
1.10612e-08
1.10611e-08
1.1061e-08
1.10609e-08
1.10609e-08
1.10609e-08
1.1061e-08
1.10611e-08
1.10612e-08
1.10615e-08
1.10618e-08
1.10622e-08
1.10626e-08
1.10629e-08
1.10631e-08
1.10631e-08
1.1063e-08
1.10628e-08
1.10628e-08
1.10628e-08
1.10632e-08
1.10639e-08
1.10648e-08
1.10657e-08
1.10663e-08
1.10665e-08
1.10664e-08
1.10663e-08
1.10667e-08
1.10676e-08
1.10682e-08
1.10679e-08
1.10667e-08
1.10653e-08
1.10645e-08
1.10645e-08
1.10641e-08
1.1063e-08
1.10616e-08
1.1061e-08
1.10618e-08
1.10619e-08
1.10616e-08
1.1062e-08
1.10638e-08
1.10645e-08
1.1064e-08
1.10634e-08
1.10625e-08
1.10622e-08
1.1065e-08
2.81626e-09
2.9621e-09
7.85411e-09
1.53132e-08
1.59038e-08
1.56851e-08
1.56853e-08
1.57241e-08
1.56891e-08
1.57915e-08
1.59899e-08
1.61792e-08
1.6332e-08
1.64512e-08
1.66212e-08
1.68013e-08
1.6892e-08
1.7017e-08
1.73202e-08
1.76461e-08
1.78011e-08
1.79428e-08
1.8309e-08
1.86119e-08
1.88469e-08
1.90727e-08
1.96079e-08
2.03456e-08
2.07872e-08
2.24791e-08
2.59159e-08
2.62644e-08
2.34261e-08
2.058e-08
2.1873e-08
2.65735e-08
2.88547e-08
2.91596e-08
2.6243e-08
2.60587e-08
3.08854e-08
3.47825e-08
3.23009e-08
2.95674e-08
3.00716e-08
3.78067e-08
4.09915e-08
4.20458e-08
4.37238e-08
4.74254e-08
4.79897e-08
4.89949e-08
4.96497e-08
5.03403e-08
5.37787e-08
5.76066e-08
5.88442e-08
6.66356e-08
8.66119e-08
9.67405e-08
8.3292e-08
9.26001e-08
1.37587e-07
2.58555e-07
1.90487e-07
1.30281e-07
1.32736e-07
1.24868e-07
1.24262e-07
1.72207e-07
2.04862e-07
1.18308e-07
8.08392e-08
7.30938e-08
5.78648e-08
3.56515e-08
3.34648e-08
2.80691e-08
2.37108e-08
1.61367e-08
2.06096e-08
2.23669e-08
2.45084e-08
5.43892e-08
3.47288e-08
7.82856e-08
7.89787e-08
6.69136e-08
7.15319e-08
1.25379e-07
3.45833e-07
2.92738e-07
1.69868e-07
1.62724e-07
1.49807e-07
1.24085e-07
9.17732e-08
6.07958e-08
6.0786e-08
6.36877e-08
5.44102e-08
3.29129e-08
3.93718e-08
9.30932e-08
9.02381e-08
1.03968e-07
9.71496e-08
1.29676e-07
8.62658e-08
9.22614e-08
1.64232e-07
1.73902e-07
1.53166e-07
1.27196e-07
1.02378e-07
6.80865e-08
7.11581e-08
8.40541e-08
7.77976e-08
4.03206e-08
4.81893e-08
1.33926e-07
1.11403e-07
1.17475e-07
1.0944e-07
9.34042e-08
9.8678e-08
1.5303e-07
1.60126e-07
1.61147e-07
1.67497e-07
1.63089e-07
1.70304e-07
1.87273e-07
1.95909e-07
2.01421e-07
2.05703e-07
2.13656e-07
2.20394e-07
2.28889e-07
2.39574e-07
2.54619e-07
2.70155e-07
2.7922e-07
3.00096e-07
3.25418e-07
3.50613e-07
3.75338e-07
4.08033e-07
4.50034e-07
5.01208e-07
5.62568e-07
6.40449e-07
7.50387e-07
8.9101e-07
1.05459e-06
1.28213e-06
1.52694e-06
1.52811e-06
1.52931e-06
1.53064e-06
1.53073e-06
1.53147e-06
1.53156e-06
1.37176e-06
1.15867e-06
9.65262e-07
8.47458e-07
7.75271e-07
7.13846e-07
6.36828e-07
5.82684e-07
5.45873e-07
5.13995e-07
4.76091e-07
4.48147e-07
4.26458e-07
4.072e-07
3.87344e-07
3.70648e-07
3.56783e-07
3.44076e-07
3.32336e-07
3.22027e-07
3.12878e-07
3.04391e-07
2.96492e-07
2.89518e-07
2.83469e-07
2.78112e-07
2.73244e-07
2.689e-07
2.64925e-07
2.61213e-07
2.5771e-07
2.54529e-07
2.51796e-07
2.49457e-07
2.47355e-07
2.45453e-07
2.43716e-07
2.42108e-07
2.40662e-07
2.39444e-07
2.38454e-07
2.37803e-07
2.37587e-07
2.37576e-07
2.37472e-07
2.37438e-07
2.37441e-07
2.37463e-07
2.37569e-07
2.37784e-07
2.3814e-07
2.3872e-07
2.39527e-07
2.4055e-07
2.41763e-07
2.43132e-07
2.44581e-07
2.46067e-07
2.47545e-07
2.49033e-07
2.50577e-07
2.52172e-07
2.5386e-07
2.55591e-07
2.57547e-07
2.59765e-07
2.62121e-07
2.64573e-07
2.67135e-07
2.69622e-07
2.7188e-07
2.74163e-07
2.76578e-07
2.79269e-07
2.82462e-07
2.85874e-07
2.89383e-07
2.92924e-07
2.96352e-07
2.99713e-07
3.0314e-07
3.06769e-07
3.10559e-07
3.14534e-07
3.18686e-07
3.22967e-07
3.27387e-07
3.31913e-07
3.3653e-07
3.41307e-07
3.46363e-07
3.51777e-07
3.57445e-07
3.63219e-07
3.69007e-07
3.74862e-07
3.80841e-07
3.86963e-07
3.93276e-07
3.99861e-07
4.06764e-07
4.13935e-07
4.21298e-07
4.28878e-07
4.36752e-07
4.44962e-07
4.53544e-07
4.6253e-07
4.71911e-07
4.8162e-07
4.91589e-07
5.01802e-07
5.12289e-07
5.23008e-07
5.33952e-07
5.45186e-07
5.56827e-07
5.68896e-07
5.81275e-07
5.93832e-07
6.06546e-07
6.19498e-07
6.32727e-07
6.46245e-07
6.60109e-07
6.74455e-07
6.89424e-07
7.0509e-07
7.21455e-07
7.3851e-07
7.56302e-07
7.74928e-07
7.94437e-07
8.14785e-07
8.35864e-07
8.57549e-07
8.79768e-07
9.02462e-07
9.25524e-07
9.48892e-07
9.72576e-07
9.96631e-07
1.02117e-06
1.04634e-06
1.07228e-06
1.09909e-06
1.12681e-06
1.15551e-06
1.18524e-06
1.21606e-06
1.24807e-06
1.28135e-06
1.31586e-06
1.35147e-06
1.38809e-06
1.42587e-06
1.45309e-06
1.4534e-06
1.45373e-06
1.45405e-06
1.45434e-06
1.45449e-06
1.45444e-06
1.45425e-06
1.45408e-06
1.45402e-06
1.45407e-06
1.45418e-06
1.45434e-06
1.45465e-06
1.45516e-06
1.45571e-06
1.45611e-06
1.45626e-06
1.45628e-06
1.45629e-06
1.45623e-06
1.45602e-06
1.45571e-06
1.45547e-06
1.45539e-06
1.45544e-06
1.45555e-06
1.45574e-06
1.456e-06
1.45626e-06
1.45639e-06
1.4564e-06
1.45631e-06
1.45608e-06
1.45576e-06
1.45546e-06
1.45534e-06
1.45538e-06
1.45551e-06
1.45572e-06
1.45599e-06
1.45626e-06
1.45638e-06
1.45628e-06
1.45601e-06
1.4557e-06
1.45544e-06
1.45525e-06
1.45521e-06
1.45534e-06
1.45564e-06
1.45598e-06
1.45625e-06
1.45637e-06
1.45639e-06
1.45637e-06
1.45635e-06
1.45633e-06
1.45634e-06
1.45651e-06
1.45688e-06
1.45731e-06
1.45762e-06
1.45769e-06
1.45754e-06
1.45722e-06
1.45693e-06
1.4568e-06
1.45687e-06
1.45709e-06
1.45737e-06
1.45757e-06
1.45756e-06
1.45732e-06
1.45693e-06
1.45648e-06
1.45613e-06
1.45605e-06
1.45629e-06
1.45674e-06
1.45713e-06
1.45727e-06
1.45721e-06
1.45712e-06
1.45704e-06
1.45699e-06
1.45717e-06
1.45749e-06
1.4577e-06
1.45767e-06
1.45747e-06
1.45729e-06
1.45734e-06
1.45761e-06
1.45787e-06
1.45806e-06
1.45822e-06
1.4582e-06
1.45816e-06
1.4583e-06
1.45847e-06
1.45818e-06
1.45787e-06
1.45735e-06
1.45726e-06
1.45829e-06
1.45841e-06
1.45899e-06
1.45992e-06
1.46084e-06
1.46124e-06
1.46101e-06
1.46169e-06
1.46168e-06
1.46157e-06
1.46092e-06
1.4606e-06
1.46086e-06
1.4608e-06
1.4617e-06
1.46112e-06
1.45956e-06
1.45971e-06
1.45997e-06
1.46091e-06
1.4605e-06
1.46084e-06
1.46205e-06
1.46258e-06
1.46298e-06
1.46218e-06
1.46283e-06
1.46184e-06
1.4615e-06
1.46043e-06
1.46148e-06
1.46267e-06
1.46088e-06
1.46273e-06
1.46299e-06
1.4612e-06
1.46104e-06
1.45572e-06
1.45881e-06
1.45926e-06
1.45914e-06
1.46331e-06
1.46313e-06
1.46313e-06
1.4629e-06
1.46252e-06
1.46293e-06
1.46195e-06
1.46112e-06
1.46028e-06
1.45835e-06
1.45618e-06
1.45468e-06
1.45383e-06
1.45321e-06
1.45336e-06
1.45455e-06
1.45593e-06
1.45652e-06
1.45623e-06
1.45602e-06
1.45655e-06
1.45763e-06
1.45863e-06
1.45919e-06
1.45912e-06
1.45849e-06
1.45752e-06
1.45656e-06
1.45583e-06
1.45548e-06
1.45552e-06
1.45596e-06
1.4569e-06
1.45842e-06
1.46059e-06
1.46281e-06
1.46317e-06
1.46319e-06
1.46321e-06
1.46322e-06
1.46323e-06
1.46323e-06
1.46323e-06
1.46323e-06
1.46322e-06
1.4632e-06
1.46317e-06
1.46312e-06
1.46284e-06
1.46225e-06
1.46236e-06
1.46296e-06
1.46312e-06
1.46316e-06
1.46319e-06
1.4632e-06
1.46319e-06
1.46315e-06
1.46294e-06
1.46173e-06
1.46309e-06
1.46316e-06
1.46316e-06
1.46306e-06
1.45682e-06
1.4512e-06
1.45369e-06
1.4614e-06
1.46263e-06
1.4567e-06
1.45032e-06
1.454e-06
1.46305e-06
1.46312e-06
1.46203e-06
1.46148e-06
1.46318e-06
1.46318e-06
1.46301e-06
1.45655e-06
1.45946e-06
1.452e-06
1.4525e-06
1.44697e-06
2.7019e-09
2.75823e-09
8.44241e-09
1.62315e-08
1.59251e-08
1.52011e-08
1.51537e-08
1.52245e-08
1.5373e-08
1.56143e-08
1.58334e-08
1.59946e-08
1.60186e-08
1.59777e-08
1.62645e-08
1.64746e-08
1.65631e-08
1.6762e-08
1.69777e-08
1.68993e-08
1.66227e-08
1.70353e-08
1.7949e-08
1.82306e-08
1.77474e-08
1.77332e-08
1.82682e-08
1.91707e-08
2.00486e-08
1.99148e-08
2.12225e-08
2.32642e-08
2.43758e-08
2.19909e-08
2.08078e-08
2.21941e-08
2.59588e-08
2.85747e-08
2.50691e-08
2.41959e-08
2.48636e-08
2.80912e-08
3.35131e-08
3.42955e-08
3.03064e-08
3.36929e-08
4.22164e-08
4.61389e-08
4.43661e-08
4.60996e-08
5.26794e-08
5.65497e-08
5.36631e-08
5.28367e-08
5.46599e-08
5.44499e-08
5.83004e-08
6.59393e-08
6.94513e-08
7.53115e-08
8.39438e-08
9.05943e-08
9.40844e-08
1.33678e-07
1.39715e-07
2.01231e-07
2.13322e-07
1.536e-07
1.26138e-07
1.21311e-07
1.71159e-07
1.99116e-07
1.61824e-07
1.52633e-07
1.27095e-07
1.00723e-07
5.14098e-08
4.14738e-08
3.08249e-08
3.45271e-08
2.49645e-08
2.48244e-08
1.61385e-08
1.73517e-08
1.80895e-08
1.9108e-08
4.23299e-08
4.91919e-08
3.46764e-08
6.60702e-08
5.80406e-08
6.8792e-08
1.10629e-07
3.92009e-07
2.07508e-07
1.06955e-07
9.01456e-08
7.22256e-08
6.39636e-08
7.47032e-08
6.96376e-08
8.11292e-08
6.65886e-08
5.26789e-08
3.04289e-08
3.50446e-08
5.33706e-08
8.00266e-08
8.22468e-08
9.19172e-08
8.23268e-08
8.70539e-08
9.5302e-08
1.55317e-07
1.20429e-07
8.87772e-08
7.0188e-08
7.88661e-08
7.95953e-08
1.00024e-07
1.03417e-07
8.68777e-08
3.88855e-08
4.37376e-08
1.18757e-07
1.06943e-07
1.23452e-07
1.15895e-07
1.03488e-07
1.07323e-07
1.70751e-07
1.87076e-07
1.91143e-07
1.99058e-07
1.92921e-07
1.80804e-07
1.9377e-07
2.11407e-07
2.17125e-07
2.21691e-07
2.35098e-07
2.53751e-07
2.7211e-07
2.74656e-07
2.97478e-07
3.21786e-07
3.4055e-07
3.66633e-07
4.06531e-07
4.42587e-07
4.94373e-07
5.51776e-07
5.99952e-07
6.77188e-07
8.24875e-07
9.773e-07
1.11223e-06
1.29727e-06
1.62999e-06
1.92344e-06
1.94577e-06
1.82739e-06
1.62685e-06
1.40877e-06
1.24742e-06
1.06045e-06
8.95401e-07
8.0792e-07
7.54368e-07
6.91125e-07
6.10682e-07
5.63885e-07
5.33703e-07
5.04826e-07
4.64903e-07
4.38781e-07
4.19617e-07
4.01969e-07
3.82225e-07
3.66227e-07
3.53251e-07
3.40698e-07
3.28747e-07
3.18516e-07
3.09959e-07
3.01987e-07
2.94216e-07
2.8767e-07
2.82405e-07
2.77409e-07
2.7229e-07
2.67557e-07
2.63477e-07
2.59839e-07
2.56338e-07
2.53098e-07
2.50422e-07
2.48146e-07
2.46064e-07
2.44297e-07
2.42808e-07
2.41435e-07
2.40175e-07
2.38944e-07
2.3778e-07
2.36922e-07
2.36541e-07
2.36506e-07
2.36566e-07
2.36836e-07
2.37074e-07
2.37165e-07
2.3723e-07
2.37373e-07
2.37628e-07
2.38144e-07
2.38922e-07
2.40016e-07
2.41355e-07
2.42764e-07
2.44114e-07
2.4546e-07
2.46781e-07
2.48094e-07
2.49533e-07
2.51243e-07
2.53202e-07
2.55265e-07
2.57443e-07
2.59696e-07
2.6192e-07
2.64165e-07
2.66547e-07
2.69009e-07
2.7139e-07
2.73818e-07
2.76394e-07
2.79073e-07
2.81995e-07
2.85199e-07
2.88525e-07
2.92075e-07
2.95668e-07
2.99259e-07
3.02902e-07
3.06595e-07
3.10393e-07
3.14313e-07
3.18281e-07
3.22287e-07
3.26446e-07
3.30784e-07
3.35303e-07
3.40063e-07
3.45209e-07
3.50902e-07
3.57075e-07
3.63371e-07
3.69511e-07
3.7548e-07
3.8141e-07
3.87433e-07
3.93605e-07
3.99992e-07
4.06692e-07
4.13757e-07
4.21147e-07
4.28852e-07
4.36926e-07
4.45348e-07
4.54066e-07
4.63052e-07
4.72324e-07
4.81894e-07
4.91714e-07
5.01746e-07
5.11953e-07
5.22259e-07
5.32649e-07
5.43243e-07
5.54267e-07
5.65885e-07
5.78133e-07
5.90949e-07
6.04241e-07
6.18035e-07
6.32285e-07
6.46956e-07
6.62039e-07
6.77543e-07
6.93432e-07
7.09598e-07
7.25927e-07
7.42417e-07
7.59231e-07
7.7661e-07
7.94712e-07
8.13542e-07
8.33005e-07
8.53048e-07
8.73729e-07
8.95184e-07
9.1753e-07
9.40822e-07
9.65065e-07
9.90222e-07
1.01627e-06
1.04317e-06
1.07084e-06
1.09917e-06
1.12805e-06
1.15743e-06
1.18732e-06
1.21783e-06
1.24918e-06
1.28169e-06
1.31574e-06
1.35165e-06
1.38952e-06
1.42925e-06
1.47086e-06
1.51485e-06
1.56199e-06
1.61242e-06
1.66478e-06
1.71664e-06
1.76679e-06
1.81677e-06
1.86944e-06
1.92568e-06
1.98367e-06
2.04256e-06
2.1057e-06
2.17754e-06
2.25743e-06
2.33929e-06
2.41885e-06
2.49922e-06
2.58525e-06
2.67472e-06
2.76062e-06
2.84217e-06
2.92699e-06
3.02143e-06
3.12501e-06
3.23697e-06
3.36048e-06
3.49665e-06
3.64122e-06
3.78975e-06
3.93967e-06
4.08579e-06
4.22204e-06
4.35005e-06
4.47877e-06
4.61495e-06
4.76081e-06
4.92126e-06
5.10593e-06
5.32057e-06
5.55931e-06
5.80763e-06
6.05113e-06
6.28052e-06
6.49204e-06
6.6891e-06
6.88561e-06
7.10242e-06
7.35645e-06
7.65181e-06
7.97772e-06
8.31341e-06
8.64242e-06
8.96561e-06
9.28583e-06
9.47031e-06
9.47033e-06
9.47036e-06
9.4704e-06
9.47051e-06
9.47071e-06
9.47094e-06
9.47108e-06
9.4711e-06
9.471e-06
9.47085e-06
9.47073e-06
9.47071e-06
9.47079e-06
9.47093e-06
9.47107e-06
9.47114e-06
9.47109e-06
9.47093e-06
9.47071e-06
9.47049e-06
9.47034e-06
9.47033e-06
9.47047e-06
9.47069e-06
9.47087e-06
9.47093e-06
9.47089e-06
9.47089e-06
9.47091e-06
9.47093e-06
9.47101e-06
9.47114e-06
9.47122e-06
9.47122e-06
9.47115e-06
9.4711e-06
9.47117e-06
9.47135e-06
9.47149e-06
9.47157e-06
9.47165e-06
9.47164e-06
9.47161e-06
9.4717e-06
9.47173e-06
9.47163e-06
9.47164e-06
9.4714e-06
9.47139e-06
9.47202e-06
9.47257e-06
9.47285e-06
9.47289e-06
9.47308e-06
9.47326e-06
9.47335e-06
9.47379e-06
9.4738e-06
9.47381e-06
9.47347e-06
9.47334e-06
9.47345e-06
9.47344e-06
9.47391e-06
9.4736e-06
9.47276e-06
9.47294e-06
9.47309e-06
9.47377e-06
9.47357e-06
9.47363e-06
9.47422e-06
9.47447e-06
9.47462e-06
9.47408e-06
9.47472e-06
9.47421e-06
9.47388e-06
9.47373e-06
9.47429e-06
9.47465e-06
9.47385e-06
9.47438e-06
9.47303e-06
6.2254e-06
6.50054e-06
3.16601e-06
2.88282e-06
7.03744e-06
7.36968e-06
8.33845e-06
8.81052e-06
9.47503e-06
9.47477e-06
9.47459e-06
9.47481e-06
9.47394e-06
9.4732e-06
9.47234e-06
9.47101e-06
9.47009e-06
9.46974e-06
9.46935e-06
9.4689e-06
9.46893e-06
9.4695e-06
9.47008e-06
9.47022e-06
9.47009e-06
9.4702e-06
9.47074e-06
9.47151e-06
9.47216e-06
9.47245e-06
9.47233e-06
9.47185e-06
9.47122e-06
9.47065e-06
9.47031e-06
9.47026e-06
9.47047e-06
9.47093e-06
9.47164e-06
9.47262e-06
9.47387e-06
9.47492e-06
9.47507e-06
9.47508e-06
9.47509e-06
9.47509e-06
9.4751e-06
9.47511e-06
9.47511e-06
9.47511e-06
9.4751e-06
9.47509e-06
9.47506e-06
9.47503e-06
9.47495e-06
9.47477e-06
9.47484e-06
9.47498e-06
9.47502e-06
9.47504e-06
9.47507e-06
9.47508e-06
9.47508e-06
9.47506e-06
9.475e-06
9.47467e-06
9.475e-06
9.47504e-06
9.47505e-06
9.47442e-06
9.47055e-06
9.46871e-06
9.47106e-06
9.47432e-06
9.47376e-06
9.46988e-06
9.46803e-06
9.47162e-06
9.47498e-06
9.47484e-06
9.47353e-06
9.4748e-06
9.47509e-06
9.47515e-06
9.47376e-06
9.47143e-06
9.47223e-06
9.46932e-06
6.86274e-06
9.17022e-06
2.59681e-09
2.74883e-09
8.20256e-09
1.53777e-08
1.61035e-08
1.56638e-08
1.5789e-08
1.59153e-08
1.60669e-08
1.61633e-08
1.6276e-08
1.64306e-08
1.65274e-08
1.65305e-08
1.65743e-08
1.6591e-08
1.66419e-08
1.67463e-08
1.6803e-08
1.6757e-08
1.66915e-08
1.69971e-08
1.75416e-08
1.7824e-08
1.77739e-08
1.79235e-08
1.81102e-08
1.84741e-08
1.91793e-08
1.85349e-08
1.78961e-08
1.91054e-08
2.26086e-08
2.56922e-08
2.34096e-08
2.10068e-08
2.22235e-08
2.46227e-08
2.6877e-08
2.7736e-08
2.5262e-08
2.67573e-08
3.30422e-08
3.87139e-08
3.61726e-08
3.41805e-08
3.88207e-08
4.17466e-08
4.28434e-08
4.72904e-08
5.46952e-08
5.41712e-08
5.28228e-08
5.48927e-08
5.82033e-08
5.96585e-08
6.17762e-08
6.21375e-08
6.33044e-08
6.99752e-08
8.63438e-08
7.6161e-08
8.00158e-08
1.08165e-07
1.17026e-07
1.64233e-07
2.12441e-07
2.58381e-07
1.95639e-07
1.22709e-07
1.382e-07
6.62509e-07
2.26961e-07
1.32056e-07
1.15141e-07
1.55362e-07
1.43926e-07
1.4714e-07
7.03203e-08
3.50261e-08
3.5627e-08
2.72913e-08
2.94203e-08
2.19674e-08
2.9834e-08
2.12614e-08
1.50614e-08
1.45889e-08
1.57479e-08
1.99522e-08
4.19999e-08
3.12674e-08
5.48766e-08
5.30431e-08
7.31439e-08
1.18998e-07
2.24982e-07
1.31152e-07
8.80454e-08
8.58795e-08
7.41744e-08
6.01727e-08
7.00369e-08
6.47158e-08
8.39945e-08
7.86316e-08
5.60939e-08
3.95656e-08
2.87323e-08
3.31367e-08
7.18585e-08
6.62847e-08
8.05921e-08
8.21648e-08
7.92588e-08
7.95672e-08
1.1845e-07
1.17378e-07
1.00214e-07
7.05713e-08
8.10885e-08
8.4507e-08
1.09515e-07
9.30416e-08
8.23551e-08
3.69598e-08
4.15657e-08
1.08996e-07
9.85442e-08
1.22927e-07
1.16195e-07
1.12154e-07
1.19342e-07
2.10211e-07
2.26005e-07
2.23184e-07
2.14416e-07
2.0899e-07
1.99815e-07
2.06152e-07
2.31235e-07
2.47206e-07
2.71138e-07
2.76998e-07
2.8679e-07
3.07282e-07
3.31179e-07
3.64606e-07
4.04949e-07
4.31534e-07
4.66996e-07
5.16301e-07
5.66282e-07
6.25133e-07
7.1788e-07
8.35031e-07
9.44322e-07
1.03993e-06
1.16349e-06
1.28772e-06
1.35404e-06
1.29588e-06
1.21246e-06
1.16405e-06
1.05293e-06
9.0593e-07
8.24724e-07
7.73665e-07
7.08665e-07
6.31695e-07
5.80486e-07
5.48374e-07
5.15068e-07
4.81316e-07
4.53728e-07
4.32147e-07
4.11119e-07
3.92111e-07
3.76062e-07
3.61887e-07
3.48407e-07
3.36096e-07
3.25007e-07
3.15081e-07
3.0639e-07
2.98919e-07
2.92161e-07
2.86124e-07
2.80699e-07
2.7554e-07
2.70409e-07
2.65595e-07
2.61477e-07
2.5799e-07
2.54874e-07
2.51951e-07
2.49214e-07
2.46778e-07
2.44684e-07
2.43027e-07
2.41773e-07
2.40776e-07
2.39857e-07
2.388e-07
2.37707e-07
2.36668e-07
2.35708e-07
2.35093e-07
2.3507e-07
2.35509e-07
2.3605e-07
2.36501e-07
2.36818e-07
2.3719e-07
2.37648e-07
2.38232e-07
2.38916e-07
2.39808e-07
2.40869e-07
2.4205e-07
2.43269e-07
2.44564e-07
2.45915e-07
2.47317e-07
2.48862e-07
2.50665e-07
2.52763e-07
2.55111e-07
2.57401e-07
2.59558e-07
2.61581e-07
2.63501e-07
2.65525e-07
2.67837e-07
2.70411e-07
2.73029e-07
2.75731e-07
2.78393e-07
2.80892e-07
2.83721e-07
2.86997e-07
2.90674e-07
2.94566e-07
2.98446e-07
3.0222e-07
3.05814e-07
3.09513e-07
3.13306e-07
3.1715e-07
3.21117e-07
3.25309e-07
3.29778e-07
3.345e-07
3.39441e-07
3.44639e-07
3.50213e-07
3.56202e-07
3.62384e-07
3.68544e-07
3.74631e-07
3.80765e-07
3.87041e-07
3.9338e-07
3.99772e-07
4.06393e-07
4.13439e-07
4.20944e-07
4.28812e-07
4.36985e-07
4.4537e-07
4.53858e-07
4.62503e-07
4.71411e-07
4.80653e-07
4.90196e-07
5.00002e-07
5.10023e-07
5.20199e-07
5.30493e-07
5.4098e-07
5.51867e-07
5.63367e-07
5.75611e-07
5.88625e-07
6.02355e-07
6.16756e-07
6.31762e-07
6.47268e-07
6.63141e-07
6.79217e-07
6.95347e-07
7.11418e-07
7.27436e-07
7.43499e-07
7.59766e-07
7.76383e-07
7.93439e-07
8.10996e-07
8.29116e-07
8.47935e-07
8.67641e-07
8.88422e-07
9.10427e-07
9.3372e-07
9.58306e-07
9.84128e-07
1.01107e-06
1.03894e-06
1.06752e-06
1.09661e-06
1.12605e-06
1.15579e-06
1.18584e-06
1.21629e-06
1.24737e-06
1.27951e-06
1.31344e-06
1.34993e-06
1.38938e-06
1.43146e-06
1.47527e-06
1.52014e-06
1.5665e-06
1.61548e-06
1.66714e-06
1.71928e-06
1.76902e-06
1.81636e-06
1.86514e-06
1.91921e-06
1.97806e-06
2.03876e-06
2.1026e-06
2.17617e-06
2.26279e-06
2.35524e-06
2.44203e-06
2.521e-06
2.60015e-06
2.6839e-06
2.76652e-06
2.84368e-06
2.92267e-06
3.01363e-06
3.11785e-06
3.23244e-06
3.35908e-06
3.49963e-06
3.64977e-06
3.80325e-06
3.95594e-06
4.10134e-06
4.2315e-06
4.34801e-06
4.46543e-06
4.59908e-06
4.75487e-06
4.93262e-06
5.13307e-06
5.35635e-06
5.59517e-06
5.83263e-06
6.04962e-06
6.23697e-06
6.40268e-06
6.5678e-06
6.75553e-06
6.98141e-06
7.25126e-06
7.56571e-06
7.91996e-06
8.28928e-06
8.62826e-06
8.91506e-06
9.17992e-06
9.45344e-06
9.72727e-06
9.99443e-06
9.99443e-06
9.99443e-06
9.99443e-06
9.99443e-06
9.99443e-06
9.99443e-06
9.99443e-06
9.99442e-06
9.99442e-06
9.99442e-06
9.99442e-06
9.99442e-06
9.99442e-06
9.99442e-06
9.99442e-06
9.99442e-06
9.99441e-06
9.99441e-06
9.9944e-06
9.99441e-06
9.99441e-06
9.99441e-06
9.99441e-06
9.99441e-06
9.99441e-06
9.99441e-06
9.99441e-06
9.99441e-06
9.99441e-06
9.99442e-06
9.99441e-06
9.99441e-06
9.99441e-06
9.99441e-06
9.99441e-06
9.99441e-06
9.99442e-06
9.99442e-06
9.99441e-06
9.99441e-06
9.99441e-06
9.99441e-06
9.99441e-06
9.99441e-06
9.99441e-06
9.99441e-06
9.99441e-06
9.99441e-06
9.99442e-06
9.99443e-06
9.99442e-06
9.99442e-06
9.99443e-06
9.99443e-06
9.99444e-06
9.99443e-06
9.99443e-06
9.99443e-06
9.99442e-06
9.99443e-06
9.99443e-06
9.99443e-06
9.99443e-06
9.99442e-06
9.99442e-06
9.99442e-06
9.99443e-06
9.99443e-06
9.99443e-06
9.99443e-06
9.99444e-06
9.99444e-06
9.99444e-06
9.99445e-06
9.99445e-06
9.99444e-06
9.99443e-06
9.99447e-06
9.99446e-06
5.97691e-06
6.17828e-06
2.86801e-06
2.72391e-06
6.26039e-06
6.92864e-06
8.41392e-06
8.34503e-06
9.9946e-06
9.99452e-06
9.99447e-06
9.99447e-06
9.99448e-06
9.99447e-06
9.99447e-06
9.99446e-06
9.99444e-06
9.99441e-06
9.99439e-06
9.99438e-06
9.99438e-06
9.99438e-06
9.99437e-06
9.99438e-06
9.99439e-06
9.9944e-06
9.9944e-06
9.99439e-06
9.99439e-06
9.99439e-06
9.99441e-06
9.99443e-06
9.99444e-06
9.99445e-06
9.99444e-06
9.99442e-06
9.9944e-06
9.99439e-06
9.99439e-06
9.99439e-06
9.9944e-06
9.99442e-06
9.99443e-06
9.99445e-06
9.99446e-06
9.99446e-06
9.99446e-06
9.99446e-06
9.99445e-06
9.99446e-06
9.99446e-06
9.99447e-06
9.99447e-06
9.99447e-06
9.99447e-06
9.99447e-06
9.99446e-06
9.99446e-06
9.99446e-06
9.99446e-06
9.99445e-06
9.99445e-06
9.99446e-06
9.99446e-06
9.99447e-06
9.99448e-06
9.99448e-06
9.99447e-06
9.99445e-06
9.99446e-06
9.99447e-06
9.99447e-06
9.99444e-06
9.9944e-06
9.99439e-06
9.99442e-06
9.99446e-06
9.99443e-06
9.9944e-06
9.99441e-06
9.99444e-06
9.99452e-06
9.99445e-06
9.99446e-06
9.99455e-06
9.99458e-06
9.99446e-06
9.99444e-06
9.99442e-06
9.99442e-06
9.99443e-06
5.34591e-06
8.13955e-06
2.62698e-09
2.74481e-09
7.55878e-09
1.41348e-08
1.60497e-08
1.57357e-08
1.61362e-08
1.63808e-08
1.65902e-08
1.65616e-08
1.6584e-08
1.6733e-08
1.68165e-08
1.67822e-08
1.66268e-08
1.64784e-08
1.6468e-08
1.65601e-08
1.66435e-08
1.66722e-08
1.67198e-08
1.68602e-08
1.71257e-08
1.74461e-08
1.7762e-08
1.80917e-08
1.82728e-08
1.83681e-08
1.85023e-08
1.81005e-08
1.75368e-08
1.7969e-08
1.96678e-08
2.24233e-08
2.29814e-08
2.22096e-08
2.31176e-08
2.47405e-08
2.6925e-08
2.84093e-08
2.81764e-08
2.99701e-08
3.38131e-08
3.74462e-08
3.75825e-08
3.5998e-08
3.76346e-08
3.95422e-08
4.19174e-08
4.57004e-08
4.974e-08
5.14094e-08
5.69875e-08
5.85285e-08
5.82235e-08
6.66768e-08
6.7336e-08
5.65862e-08
5.77448e-08
6.81753e-08
8.03669e-08
6.50476e-08
6.968e-08
9.86364e-08
1.26849e-07
1.31392e-07
1.52726e-07
2.73457e-07
5.43222e-07
3.11114e-07
2.03128e-07
4.10096e-07
3.09729e-07
1.11027e-07
9.26467e-08
1.35201e-07
1.335e-07
1.00149e-07
1.00816e-07
6.71322e-08
1.0289e-07
8.95355e-08
4.51255e-08
4.18624e-08
3.8989e-08
3.09166e-08
2.2501e-08
1.74776e-08
2.1029e-08
1.53466e-08
1.5119e-08
1.54585e-08
1.87907e-08
3.58995e-08
2.8527e-08
4.97998e-08
4.80515e-08
6.14953e-08
8.96004e-08
1.51945e-07
1.36849e-07
1.06838e-07
9.93544e-08
7.53088e-08
6.49998e-08
8.80813e-08
1.08174e-07
6.30037e-08
8.06329e-08
6.16043e-08
5.01164e-08
2.81199e-08
3.2642e-08
7.2144e-08
6.80598e-08
7.44258e-08
7.30782e-08
7.48432e-08
8.31463e-08
1.35018e-07
1.29543e-07
1.08372e-07
7.78837e-08
8.77708e-08
8.74245e-08
1.12795e-07
8.84849e-08
7.66536e-08
3.53068e-08
3.93918e-08
1.00473e-07
9.20529e-08
1.24651e-07
1.23989e-07
2.01647e-07
1.16513e-07
1.25411e-07
2.24654e-07
2.35059e-07
2.21325e-07
2.31284e-07
2.26921e-07
2.42973e-07
2.82097e-07
2.8594e-07
2.99583e-07
3.25976e-07
3.51592e-07
3.78888e-07
4.17337e-07
4.44175e-07
4.80659e-07
5.31323e-07
5.83943e-07
6.35898e-07
7.08192e-07
7.9678e-07
8.66942e-07
9.24083e-07
9.76651e-07
1.02549e-06
1.01199e-06
9.71754e-07
9.48997e-07
8.77603e-07
7.94102e-07
7.54491e-07
7.12842e-07
6.47188e-07
5.80635e-07
5.52638e-07
5.27778e-07
4.9331e-07
4.58081e-07
4.40812e-07
4.21739e-07
4.00106e-07
3.81031e-07
3.68192e-07
3.55165e-07
3.42004e-07
3.30847e-07
3.2135e-07
3.12145e-07
3.03396e-07
2.95964e-07
2.8966e-07
2.83684e-07
2.77764e-07
2.72382e-07
2.67892e-07
2.63783e-07
2.59959e-07
2.56741e-07
2.53945e-07
2.51221e-07
2.48378e-07
2.45743e-07
2.43549e-07
2.41765e-07
2.40468e-07
2.39574e-07
2.38883e-07
2.38282e-07
2.37598e-07
2.36715e-07
2.35624e-07
2.34742e-07
2.34476e-07
2.34625e-07
2.35275e-07
2.36234e-07
2.36804e-07
2.37421e-07
2.38119e-07
2.38718e-07
2.39261e-07
2.39863e-07
2.40609e-07
2.41691e-07
2.43066e-07
2.4466e-07
2.46298e-07
2.47802e-07
2.49311e-07
2.50829e-07
2.52539e-07
2.54712e-07
2.57043e-07
2.59481e-07
2.61871e-07
2.63893e-07
2.6583e-07
2.67942e-07
2.70337e-07
2.72847e-07
2.75446e-07
2.78152e-07
2.80815e-07
2.83689e-07
2.86995e-07
2.90556e-07
2.94308e-07
2.97959e-07
3.01453e-07
3.04939e-07
3.08554e-07
3.12339e-07