/*--------------------------------*- C++ -*----------------------------------*\
| =========                 |                                                 |
| \\      /  F ield         | OpenFOAM: The Open Source CFD Toolbox           |
|  \\    /   O peration     | Version:  v2006                                 |
|   \\  /    A nd           | Website:  www.openfoam.com                      |
|    \\/     M anipulation  |                                                 |
\*---------------------------------------------------------------------------*/
FoamFile
{
    version     2.0;
    format      ascii;
    class       volScalarField;
    location    "1.7";
    object      omega;
}
// * * * * * * * * * * * * * * * * * * * * * * * * * * * * * * * * * * * * * //

dimensions      [0 0 -1 0 0 0 0];


internalField   nonuniform List<scalar> 
33000
(
0.803046
0.802954
0.802985
0.802966
0.802959
0.802956
0.802951
0.802947
0.802945
0.802945
0.802946
0.80295
0.802953
0.802958
0.802959
0.80296
0.80296
0.802961
0.802962
0.802967
0.802974
0.802979
0.802984
0.802989
0.802999
0.803007
0.803015
0.803022
0.803029
0.803038
0.803047
0.803054
0.803058
0.803064
0.803075
0.803087
0.803091
0.803091
0.803099
0.803105
0.803111
0.803114
0.803108
0.8031
0.803097
0.80309
0.803074
0.803059
0.803046
0.803032
0.803016
0.803
0.802985
0.802971
0.802958
0.802945
0.802931
0.802918
0.802904
0.802889
0.802874
0.802858
0.802843
0.802828
0.802812
0.802795
0.802777
0.80276
0.802742
0.802722
0.802701
0.802675
0.802643
0.802601
0.802554
0.802494
0.802413
0.802313
0.802241
0.802223
0.802208
0.802213
0.802215
0.802218
0.802227
0.802223
0.802214
0.80221
0.802206
0.802204
0.802199
0.802194
0.802189
0.802183
0.802176
0.802165
0.802154
0.802136
0.802122
0.802092
0.802094
0.802085
0.802085
0.802079
0.802075
0.802073
0.802067
0.80206
0.802054
0.802048
0.802041
0.802034
0.802026
0.802018
0.802008
0.801995
0.801983
0.801957
0.801958
0.801949
0.801947
0.801941
0.801936
0.801931
0.801925
0.801918
0.801911
0.801904
0.801897
0.801889
0.801881
0.801874
0.801866
0.801858
0.801851
0.801843
0.801835
0.801828
0.80182
0.801813
0.801806
0.801798
0.801791
0.801784
0.801776
0.801769
0.801762
0.801755
0.801748
0.80174
0.801733
0.801726
0.801719
0.801712
0.801705
0.801698
0.801691
0.801683
0.801676
0.801669
0.801663
0.801656
0.801649
0.801642
0.801635
0.801628
0.801622
0.801615
0.801608
0.801601
0.801594
0.801588
0.801581
0.801574
0.801568
0.801561
0.801555
0.801548
0.801541
0.801535
0.801528
0.801522
0.801515
0.801509
0.801502
0.801496
0.80149
0.801483
0.801477
0.801471
0.801464
0.801458
0.801452
0.801446
0.80144
0.801434
0.801428
0.801421
0.801415
0.801409
0.801403
0.801398
0.801392
0.801386
0.80138
0.801374
0.801368
0.801362
0.801357
0.801351
0.801345
0.801339
0.801334
0.801329
0.801323
0.801318
0.801313
0.801308
0.801303
0.801299
0.801294
0.80129
0.801285
0.801281
0.801277
0.801272
0.801268
0.801264
0.80126
0.801257
0.801253
0.801249
0.801246
0.801242
0.801239
0.801235
0.801232
0.801229
0.801226
0.801223
0.80122
0.801217
0.801214
0.801211
0.801208
0.801205
0.801203
0.8012
0.801198
0.801195
0.801193
0.80119
0.801188
0.801186
0.801184
0.801181
0.801179
0.801177
0.801175
0.801173
0.801171
0.801169
0.801168
0.801166
0.801164
0.801162
0.801161
0.801159
0.801157
0.801156
0.801154
0.801153
0.801151
0.80115
0.801148
0.801147
0.801146
0.801144
0.801143
0.801142
0.801141
0.80114
0.801139
0.801137
0.801136
0.801135
0.801134
0.801133
0.801132
0.801131
0.801131
0.80113
0.801129
0.801128
0.801127
0.801126
0.801126
0.801125
0.801124
0.801123
0.801123
0.801122
0.801121
0.801121
0.80112
0.80112
0.801119
0.801118
0.801118
0.801117
0.801117
0.801116
0.801116
0.801115
0.801115
0.801115
0.801114
0.801114
0.801113
0.801113
0.801113
0.801112
0.801112
0.801112
0.801111
0.801111
0.801111
0.80111
0.80111
0.80111
0.80111
0.801109
0.801109
0.801109
0.801109
0.801109
0.801108
0.801108
0.801108
0.801108
0.801108
0.801108
0.801107
0.801107
0.801107
0.801107
0.801107
0.801107
0.801107
0.801106
0.801106
0.801106
0.801106
0.801106
0.801106
0.801106
0.801106
0.801105
0.801105
0.801105
0.801105
0.801105
0.801105
0.801105
0.801105
0.801105
0.801105
0.801104
0.801104
0.801104
0.801104
0.801104
0.801104
0.801104
0.801104
0.801104
0.801104
0.801104
0.801103
0.801103
0.801103
0.801103
0.801103
0.801103
0.801103
0.801103
0.801103
0.801103
0.801103
0.801103
0.801103
0.801103
0.801103
0.801102
0.801102
0.801102
0.801102
0.801102
0.801102
0.801102
0.801102
0.801102
0.801102
0.801102
0.801102
0.801102
0.801101
0.801101
0.801101
0.801101
0.801101
0.801101
0.801101
0.801101
0.801101
0.801101
0.801101
0.801101
0.801101
0.801101
0.801101
0.8011
0.8011
0.8011
0.8011
0.8011
0.8011
0.8011
0.8011
0.8011
0.8011
0.8011
0.8011
0.8011
0.8011
0.8011
0.8011
0.8011
0.8011
0.8011
0.8011
0.8011
0.8011
0.8011
0.8011
0.8011
0.8011
0.8011
0.8011
0.8011
0.8011
0.8011
0.8011
0.8011
0.8011
0.801099
0.801099
0.801099
0.801099
0.801099
0.801099
0.801099
0.801099
0.801099
0.801099
0.801099
0.801099
0.801099
0.801099
0.8011
0.8011
0.8011
0.8011
0.8011
0.8011
0.8011
0.8011
0.8011
0.8011
0.8011
0.8011
0.8011
0.801099
0.801099
0.801099
0.801099
0.801099
0.801099
0.801099
0.801099
0.801099
0.801099
0.801099
0.801099
0.801099
0.801099
0.801099
0.801099
0.801099
0.801099
0.801099
0.801099
0.801099
0.801099
0.801099
0.801099
0.801099
0.801099
0.801099
0.801099
0.801099
0.801099
0.801099
0.801099
0.801099
0.801099
0.801099
0.801099
0.801099
0.801099
0.801099
0.801099
0.801099
0.801099
0.801099
0.801099
0.801099
0.801099
0.8011
0.8011
0.8011
0.801099
0.801099
0.801099
0.801099
0.801099
0.801099
0.801099
0.801099
0.801099
0.801099
0.801099
0.801099
0.801099
0.801099
0.801099
0.801099
0.801099
0.801099
0.801099
0.0154209
0.0169623
0.0147251
0.0143278
0.0149961
0.0153968
0.0153292
0.0152694
0.0152613
0.01528
0.01545
0.0157796
0.0162865
0.0169294
0.0170114
0.0170792
0.0172351
0.0174153
0.0176707
0.0181169
0.0186403
0.0187055
0.0184226
0.0182206
0.0186224
0.0190359
0.0191957
0.0190846
0.0190308
0.019631
0.0198596
0.019289
0.0183279
0.018766
0.0195073
0.0196785
0.0184757
0.0173064
0.0185571
0.0192444
0.0196238
0.0190642
0.0169355
0.0163305
0.0176387
0.0180564
0.0160308
0.0151252
0.0155367
0.0159613
0.0149898
0.0137175
0.0131758
0.0130039
0.0133569
0.0133383
0.0129505
0.0131899
0.0140474
0.0137847
0.0126271
0.012216
0.0129843
0.0127848
0.0119338
0.010763
0.00993798
0.00972558
0.00915961
0.00860024
0.00843385
0.00847272
0.00897678
0.00976449
0.0109919
0.0125466
0.0134589
0.0126193
0.0102347
0.00867346
0.00926768
0.0118645
0.0141777
0.0157338
0.0156388
0.00910645
0.00785704
0.00932862
0.00983604
0.00987443
0.00963612
0.00899536
0.00777578
0.0073309
0.00664391
0.00625669
0.00624741
0.00625856
0.00625394
0.00621837
0.00634187
0.00829737
0.00965719
0.00839753
0.00976158
0.00941402
0.00786481
0.00765315
0.00785704
0.00788911
0.00752163
0.00726305
0.00672729
0.00626453
0.00624191
0.00626988
0.00630962
0.00623252
0.00621798
0.00742925
0.00867953
0.00779565
0.00899545
0.00872173
0.00766308
0.0078239
0.00773251
0.00765101
0.00765711
0.00746854
0.00726856
0.00732958
0.00726024
0.00719262
0.00712504
0.00705214
0.00707996
0.00703973
0.00699462
0.00694306
0.00691707
0.00689467
0.00686183
0.00683198
0.00680471
0.00676953
0.00673275
0.00671195
0.00669844
0.0066792
0.00666397
0.00664159
0.00662003
0.00660539
0.00659926
0.00658927
0.00657557
0.00656296
0.00655784
0.00655259
0.00654687
0.0065464
0.0065432
0.00654276
0.00654518
0.0065483
0.00654942
0.00655087
0.0065538
0.0065561
0.00655675
0.00655694
0.00655647
0.00655641
0.00655607
0.00655577
0.00655623
0.00655654
0.00655603
0.0065557
0.00655598
0.00655659
0.00655719
0.00655827
0.00655985
0.00656081
0.0065618
0.00656295
0.00656461
0.00656674
0.00656841
0.00656959
0.00657103
0.00657286
0.00657518
0.0065777
0.00658022
0.00658195
0.00658434
0.00658715
0.00659033
0.00659361
0.00659598
0.00659826
0.00660104
0.00660409
0.00660732
0.00661061
0.00661292
0.00661522
0.00661787
0.00662139
0.00662545
0.00662876
0.00663204
0.00663584
0.00664012
0.00664449
0.00664819
0.00665176
0.00665597
0.00666036
0.0066646
0.00666809
0.00667198
0.00667643
0.0066808
0.00668523
0.0066893
0.00669312
0.00669708
0.00670147
0.00670597
0.00671011
0.00671366
0.00671743
0.00672158
0.0067262
0.00673031
0.00673394
0.00673766
0.00674161
0.0067453
0.00674891
0.00675312
0.00675747
0.00676141
0.00676477
0.00676838
0.0067724
0.0067764
0.00677957
0.0067822
0.00678497
0.00678811
0.00679144
0.00679428
0.00679618
0.00679769
0.00679987
0.00680296
0.00680599
0.00680907
0.00681229
0.00681559
0.0068184
0.00682094
0.00682349
0.00682614
0.00682818
0.00682984
0.00683174
0.00683411
0.0068364
0.00683888
0.00684161
0.0068444
0.00684712
0.00685008
0.00685337
0.0068564
0.00685924
0.00686146
0.00686276
0.00686357
0.00686426
0.00686486
0.0068649
0.00686469
0.00686459
0.00686486
0.00686558
0.00686626
0.00686754
0.00686947
0.00687191
0.00687422
0.00687624
0.00687812
0.00687997
0.00688135
0.00688245
0.00688321
0.0068835
0.00688326
0.0068824
0.00688148
0.00688069
0.00687994
0.00687938
0.0068792
0.00687926
0.00687943
0.00687979
0.00688009
0.00688001
0.00687969
0.00687893
0.00687768
0.00687625
0.00687476
0.00687325
0.00687169
0.00687011
0.00686874
0.006868
0.00686822
0.00686906
0.00686987
0.00687014
0.00686985
0.00686932
0.00686854
0.00686705
0.00686468
0.00686203
0.00686016
0.00685944
0.00685931
0.00685927
0.00685953
0.00686052
0.00686196
0.00686311
0.00686344
0.0068632
0.00686267
0.00686179
0.00686053
0.00685934
0.00685871
0.00685865
0.00685907
0.00686013
0.00686166
0.00686304
0.00686362
0.00686342
0.00686279
0.0068618
0.00686051
0.00685926
0.00685869
0.00685917
0.00686043
0.00686186
0.00686311
0.00686397
0.00686418
0.00686354
0.00686214
0.00686052
0.00685927
0.00685869
0.00685862
0.0068587
0.00685877
0.00685889
0.00685883
0.00685801
0.00685628
0.00685425
0.00685282
0.00685247
0.00685319
0.00685466
0.00685605
0.00685667
0.00685633
0.00685527
0.00685395
0.00685301
0.00685305
0.00685417
0.00685603
0.00685813
0.00685977
0.00686018
0.00685903
0.0068569
0.00685506
0.0068544
0.00685471
0.00685511
0.00685549
0.0068557
0.00685489
0.00685336
0.00685239
0.00685252
0.00685344
0.00685428
0.00685407
0.0068528
0.00685157
0.00685069
0.00684995
0.00685003
0.00685023
0.00684956
0.00684875
0.0068501
0.00685156
0.00685399
0.00685444
0.00684961
0.00684904
0.00684632
0.00684194
0.00683766
0.00683578
0.00683686
0.00683365
0.00683374
0.00683422
0.00683725
0.00683875
0.00683753
0.00683781
0.00683363
0.00683632
0.00684361
0.00684292
0.00684171
0.00683732
0.00683922
0.00683764
0.006832
0.00682952
0.00682765
0.00683138
0.00682835
0.00683296
0.00683454
0.00683954
0.00683466
0.00682909
0.00683745
0.0068288
0.00682761
0.00683593
0.00683673
0.00686167
0.0068472
0.00684505
0.00684588
0.00682638
0.00682697
0.00682699
0.00682808
0.00682983
0.00682785
0.00683244
0.00683631
0.00684024
0.00684928
0.00685949
0.00686652
0.00687054
0.0068735
0.00687278
0.00686718
0.00686064
0.0068579
0.00685926
0.00686023
0.00685774
0.00685269
0.00684796
0.00684535
0.00684566
0.00684865
0.00685319
0.00685771
0.00686112
0.0068628
0.00686262
0.00686055
0.00685611
0.00684899
0.00683884
0.00682845
0.00682679
0.00682669
0.00682661
0.00682655
0.00682651
0.00682649
0.00682649
0.00682651
0.00682657
0.00682666
0.0068268
0.006827
0.00682834
0.00683109
0.00683055
0.00682775
0.006827
0.00682685
0.00682671
0.00682663
0.00682668
0.00682689
0.00682786
0.0068335
0.00682716
0.00682685
0.00682682
0.00682729
0.00685651
0.00688305
0.00687126
0.00683507
0.0068293
0.00685709
0.00688724
0.00686981
0.00682734
0.00682705
0.00683212
0.00683469
0.00682677
0.00682677
0.00682756
0.00685781
0.00684415
0.00687926
0.00687691
0.00690322
0.00231437
0.00188425
0.00140637
0.00134487
0.00134836
0.00135765
0.00135576
0.00135477
0.00135543
0.00135761
0.00136484
0.00137639
0.00139222
0.00141056
0.00141577
0.00142091
0.00142682
0.00143251
0.00144229
0.00145613
0.00147005
0.00147314
0.00146763
0.00146279
0.00147287
0.00148263
0.00148729
0.00149023
0.00149079
0.00151762
0.00154462
0.0015234
0.0014689
0.00144108
0.00147123
0.00150601
0.00147641
0.00143806
0.00144473
0.00145094
0.00148585
0.00146798
0.00139289
0.00136618
0.00139664
0.00141815
0.00136283
0.00133976
0.00134513
0.00134799
0.00131502
0.00128018
0.00126213
0.00125109
0.00125227
0.00124947
0.00123711
0.00123999
0.00126115
0.00125399
0.0012211
0.00121253
0.00123956
0.00123347
0.00121173
0.00117649
0.00116146
0.00115392
0.00114555
0.00114251
0.00114435
0.00114522
0.00115765
0.00117363
0.00119306
0.00121977
0.00125719
0.0012837
0.00131674
0.00134855
0.00141289
0.0015098
0.00171394
0.00192892
0.00182309
0.00155088
0.00141612
0.00136063
0.00126563
0.00117584
0.0011153
0.00110575
0.00107326
0.00106323
0.00106126
0.00105607
0.00105098
0.0010546
0.00105632
0.00105361
0.00105792
0.00105724
0.00106818
0.00108175
0.00113736
0.00113656
0.00109334
0.00108636
0.00109141
0.00108228
0.00106906
0.00106084
0.00105392
0.001045
0.00104322
0.00104572
0.00104869
0.00104641
0.00104903
0.00104705
0.00105423
0.00106491
0.00111228
0.00111127
0.00107127
0.00107974
0.00106858
0.00106078
0.00105807
0.00105547
0.00105042
0.00105083
0.0010496
0.0010482
0.00104724
0.00104654
0.0010463
0.0010454
0.00104471
0.00104398
0.00104342
0.00104283
0.00104225
0.00104192
0.00104136
0.00104072
0.00104018
0.00103982
0.00103951
0.00103923
0.00103899
0.00103875
0.0010385
0.00103833
0.00103824
0.00103813
0.00103802
0.00103794
0.00103795
0.00103799
0.00103801
0.00103808
0.00103816
0.00103826
0.00103836
0.00103849
0.00103863
0.00103875
0.00103887
0.00103897
0.00103907
0.00103916
0.00103922
0.00103928
0.00103938
0.00103947
0.00103955
0.00103959
0.00103963
0.00103968
0.00103975
0.00103983
0.00103992
0.00104002
0.00104007
0.00104008
0.00104009
0.0010401
0.00104013
0.00104018
0.00104024
0.00104026
0.00104027
0.00104027
0.0010403
0.00104036
0.00104041
0.0010404
0.00104038
0.00104038
0.00104039
0.0010404
0.00104043
0.00104048
0.00104054
0.00104053
0.00104052
0.00104052
0.00104052
0.00104052
0.00104052
0.0010405
0.00104053
0.00104058
0.00104064
0.0010407
0.00104076
0.00104077
0.00104076
0.00104077
0.00104082
0.00104091
0.00104101
0.00104104
0.00104108
0.00104113
0.00104119
0.00104127
0.00104133
0.00104134
0.00104137
0.0010414
0.00104147
0.00104158
0.00104168
0.00104176
0.00104185
0.00104193
0.00104202
0.00104209
0.00104216
0.0010422
0.00104223
0.00104228
0.00104235
0.00104245
0.00104255
0.00104262
0.00104271
0.00104281
0.00104291
0.001043
0.00104311
0.00104325
0.00104336
0.00104336
0.00104335
0.00104335
0.00104341
0.00104352
0.00104366
0.00104382
0.00104395
0.00104409
0.00104424
0.00104437
0.0010445
0.00104462
0.00104473
0.00104483
0.00104489
0.00104496
0.00104505
0.00104516
0.0010453
0.00104544
0.00104558
0.00104573
0.00104591
0.00104609
0.00104628
0.00104646
0.00104663
0.00104678
0.0010469
0.00104703
0.00104715
0.00104727
0.00104741
0.00104754
0.00104766
0.00104781
0.00104797
0.00104815
0.00104834
0.00104851
0.00104868
0.00104884
0.001049
0.00104915
0.00104928
0.00104937
0.00104945
0.00104953
0.00104962
0.00104969
0.00104975
0.00104983
0.0010499
0.00104999
0.00105008
0.00105016
0.00105023
0.00105032
0.0010504
0.00105049
0.00105058
0.00105068
0.00105076
0.00105085
0.00105095
0.00105106
0.00105118
0.0010513
0.00105143
0.00105157
0.00105167
0.00105179
0.00105191
0.00105204
0.00105216
0.00105226
0.00105237
0.00105251
0.00105264
0.00105276
0.00105288
0.001053
0.00105312
0.00105325
0.00105338
0.0010535
0.00105361
0.00105373
0.00105385
0.00105398
0.00105411
0.00105422
0.00105434
0.00105446
0.00105456
0.00105465
0.00105474
0.00105483
0.00105492
0.00105502
0.00105508
0.00105515
0.00105523
0.00105532
0.00105538
0.00105545
0.00105552
0.00105557
0.00105563
0.00105569
0.00105574
0.00105577
0.00105579
0.00105581
0.00105582
0.0010558
0.00105578
0.00105578
0.00105577
0.00105577
0.00105577
0.00105577
0.00105576
0.00105575
0.00105573
0.0010557
0.00105568
0.00105568
0.00105569
0.00105571
0.00105572
0.00105572
0.00105571
0.0010557
0.00105568
0.00105568
0.00105568
0.0010557
0.00105572
0.00105575
0.00105576
0.00105576
0.00105575
0.00105572
0.0010557
0.0010557
0.0010557
0.0010557
0.0010557
0.00105569
0.00105569
0.00105567
0.00105566
0.00105566
0.00105567
0.00105567
0.00105567
0.00105565
0.00105563
0.00105562
0.00105561
0.00105561
0.00105562
0.00105561
0.0010556
0.00105561
0.00105561
0.00105564
0.00105564
0.00105557
0.00105551
0.00105548
0.00105547
0.00105545
0.00105543
0.00105542
0.00105537
0.00105537
0.00105537
0.00105541
0.00105542
0.00105541
0.00105541
0.00105536
0.00105539
0.00105548
0.00105546
0.00105545
0.00105537
0.00105539
0.00105539
0.00105532
0.00105529
0.00105528
0.00105534
0.00105527
0.00105532
0.00105536
0.00105538
0.00105531
0.00105528
0.00105536
0.00105531
0.00105546
0.00105389
0.001054
0.00104867
0.00104732
0.00105456
0.00105473
0.00105509
0.0010552
0.00105526
0.00105528
0.00105528
0.00105526
0.00105536
0.00105544
0.00105553
0.00105568
0.00105578
0.00105582
0.00105587
0.00105592
0.00105591
0.00105585
0.00105579
0.00105578
0.00105579
0.00105577
0.00105571
0.00105563
0.00105555
0.00105552
0.00105554
0.00105559
0.00105566
0.00105573
0.00105576
0.00105577
0.00105574
0.00105569
0.00105561
0.00105551
0.00105537
0.00105525
0.00105523
0.00105523
0.00105523
0.00105523
0.00105523
0.00105523
0.00105523
0.00105523
0.00105523
0.00105523
0.00105523
0.00105524
0.00105525
0.00105526
0.00105526
0.00105524
0.00105524
0.00105523
0.00105523
0.00105523
0.00105523
0.00105524
0.00105524
0.00105528
0.00105524
0.00105524
0.00105524
0.00105531
0.00105574
0.00105594
0.00105568
0.00105532
0.00105539
0.00105581
0.00105602
0.00105562
0.00105525
0.00105528
0.00105541
0.00105527
0.00105524
0.00105525
0.00105538
0.00105564
0.00105555
0.00105588
0.00105533
0.00105636
0.00225236
0.00170147
0.00123991
0.00118138
0.00116593
0.00116678
0.00116523
0.00116364
0.00116184
0.00116075
0.00115986
0.00115864
0.00115756
0.00115681
0.00115601
0.00115535
0.0011549
0.00115455
0.00115426
0.0011539
0.00115329
0.00115187
0.00115035
0.00114946
0.00114919
0.00114831
0.0011472
0.00114571
0.00114441
0.00114577
0.00114581
0.00114202
0.00113773
0.00113672
0.00113918
0.00113794
0.00113294
0.00112994
0.00112874
0.00112875
0.00112815
0.00112414
0.0011209
0.00111977
0.0011199
0.0011176
0.00111489
0.00111375
0.00111241
0.00111055
0.00110857
0.00110598
0.00110333
0.00110219
0.00110001
0.00109737
0.0010967
0.00109648
0.00109331
0.00109198
0.00109198
0.00109384
0.00109167
0.00109057
0.00109139
0.00109264
0.00109339
0.0010934
0.00109328
0.00109345
0.00109527
0.00110135
0.00110939
0.00111549
0.00111673
0.00111105
0.00110564
0.00109921
0.00110941
0.00114783
0.00118579
0.00124719
0.00129521
0.00135297
0.00141002
0.00156479
0.00177827
0.00193135
0.00178665
0.00143273
0.00129514
0.00115222
0.00110785
0.00105589
0.00104886
0.00102958
0.0010263
0.0010325
0.00103653
0.00103261
0.0010342
0.00103783
0.00103689
0.00104237
0.00103958
0.00104644
0.00105678
0.00107244
0.0010941
0.00108214
0.00104766
0.00104688
0.00103574
0.00103377
0.00102815
0.00102778
0.00102298
0.00102182
0.00102358
0.00102772
0.00102671
0.00103059
0.00102985
0.00103825
0.00104406
0.00107155
0.00106344
0.00103439
0.00103368
0.00102414
0.00102321
0.00101875
0.00101811
0.00101563
0.00101525
0.00101508
0.00101533
0.00101536
0.00101516
0.00101501
0.00101472
0.00101455
0.00101429
0.00101417
0.00101411
0.00101393
0.00101378
0.00101366
0.00101353
0.00101345
0.00101339
0.0010133
0.00101324
0.00101321
0.00101317
0.00101314
0.00101311
0.00101309
0.00101307
0.00101306
0.00101307
0.00101309
0.0010131
0.00101309
0.0010131
0.00101312
0.00101311
0.00101309
0.00101309
0.0010131
0.00101308
0.00101304
0.00101301
0.00101299
0.00101295
0.0010129
0.00101285
0.0010128
0.00101273
0.00101267
0.00101261
0.00101254
0.00101247
0.00101239
0.0010123
0.00101221
0.0010121
0.00101199
0.00101187
0.00101176
0.00101165
0.00101154
0.00101142
0.0010113
0.00101117
0.00101104
0.00101091
0.00101078
0.00101064
0.00101049
0.00101034
0.00101018
0.00101003
0.00100988
0.00100974
0.0010096
0.00100945
0.0010093
0.00100914
0.00100897
0.0010088
0.00100863
0.00100848
0.00100832
0.00100817
0.00100803
0.00100788
0.00100773
0.00100758
0.00100744
0.00100729
0.00100715
0.00100701
0.00100687
0.00100673
0.00100658
0.00100644
0.0010063
0.00100616
0.00100603
0.00100591
0.00100578
0.00100567
0.00100555
0.00100543
0.00100532
0.00100521
0.0010051
0.001005
0.00100489
0.00100478
0.00100467
0.00100455
0.00100445
0.00100434
0.00100425
0.00100416
0.00100407
0.00100399
0.0010039
0.00100382
0.00100373
0.00100365
0.00100356
0.00100348
0.00100339
0.0010033
0.00100321
0.00100313
0.00100306
0.00100299
0.00100292
0.00100285
0.00100279
0.00100273
0.00100267
0.00100261
0.00100254
0.00100247
0.00100241
0.00100235
0.00100228
0.00100223
0.00100217
0.00100211
0.00100206
0.00100201
0.00100196
0.00100191
0.00100187
0.00100182
0.00100178
0.00100173
0.00100168
0.00100163
0.00100159
0.00100154
0.00100149
0.00100145
0.0010014
0.00100136
0.00100133
0.00100129
0.00100126
0.00100123
0.0010012
0.00100117
0.00100114
0.00100111
0.00100108
0.00100105
0.00100102
0.00100099
0.00100096
0.00100093
0.0010009
0.00100087
0.00100084
0.00100081
0.00100079
0.00100076
0.00100074
0.00100072
0.0010007
0.00100068
0.00100066
0.00100064
0.00100062
0.00100061
0.00100059
0.00100058
0.00100056
0.00100055
0.00100054
0.00100053
0.00100052
0.00100051
0.0010005
0.00100049
0.00100048
0.00100048
0.00100047
0.00100046
0.00100046
0.00100045
0.00100045
0.00100044
0.00100044
0.00100044
0.00100043
0.00100043
0.00100043
0.00100043
0.00100043
0.00100043
0.00100042
0.00100042
0.00100042
0.00100042
0.00100042
0.00100042
0.00100042
0.00100042
0.00100042
0.00100042
0.00100042
0.00100042
0.00100042
0.00100042
0.00100042
0.00100042
0.00100042
0.00100042
0.00100042
0.00100042
0.00100042
0.00100042
0.00100042
0.00100042
0.00100042
0.00100042
0.00100042
0.00100042
0.00100042
0.00100042
0.00100042
0.00100042
0.00100042
0.00100042
0.00100042
0.00100042
0.00100042
0.00100042
0.00100042
0.00100042
0.00100042
0.00100042
0.00100042
0.00100042
0.00100042
0.00100042
0.00100041
0.00100041
0.00100041
0.00100041
0.00100041
0.00100041
0.00100041
0.00100041
0.00100041
0.00100041
0.00100041
0.00100041
0.00100041
0.00100041
0.00100041
0.00100041
0.00100041
0.00100041
0.00100041
0.00100041
0.00100041
0.00100041
0.00100041
0.00100041
0.00100041
0.00100041
0.00100041
0.00100041
0.00100041
0.00100041
0.00100041
0.00100041
0.00100041
0.00100041
0.00100041
0.00100041
0.00100041
0.00100041
0.00100041
0.00100041
0.00100041
0.00100041
0.00100041
0.00100041
0.00100041
0.00100041
0.00100041
0.00100041
0.00100041
0.00100041
0.00100041
0.00100041
0.00100041
0.0010004
0.00100041
0.00100041
0.0010004
0.0010004
0.0010004
0.00100041
0.0010004
0.0010004
0.0010004
0.0010004
0.00100041
0.00100041
0.00100043
0.00100042
0.00100052
0.00100051
0.00100041
0.00100034
0.00100033
0.00100041
0.00100041
0.00100041
0.0010004
0.0010004
0.00100041
0.00100041
0.00100041
0.00100041
0.00100041
0.00100041
0.00100041
0.00100041
0.00100041
0.00100041
0.00100041
0.00100041
0.00100041
0.00100041
0.00100041
0.00100041
0.00100041
0.00100041
0.00100041
0.00100041
0.00100041
0.00100041
0.00100041
0.00100041
0.00100041
0.00100041
0.00100041
0.00100041
0.00100041
0.00100041
0.00100041
0.00100041
0.00100041
0.0010004
0.0010004
0.0010004
0.0010004
0.0010004
0.00100041
0.00100041
0.00100041
0.00100041
0.00100041
0.00100041
0.00100041
0.00100041
0.00100041
0.00100041
0.00100041
0.00100041
0.00100041
0.00100041
0.00100041
0.00100041
0.00100041
0.00100041
0.00100041
0.00100041
0.00100041
0.00100041
0.00100041
0.00100041
0.00100041
0.00100041
0.00100041
0.00100041
0.00100042
0.00100042
0.00100041
0.00100042
0.00100041
0.00100041
0.00100042
0.00100042
0.00100041
0.00100041
0.00100041
0.00100041
0.00100042
0.00100043
0.00100044
0.00231473
0.00172193
0.00125256
0.00119184
0.00117013
0.00117055
0.00116804
0.00116629
0.00116427
0.00116336
0.00116267
0.00116121
0.00115957
0.0011583
0.00115747
0.00115695
0.00115657
0.00115605
0.00115522
0.00115407
0.00115272
0.00115145
0.00115022
0.0011491
0.00114805
0.00114692
0.00114567
0.00114414
0.00114271
0.00114201
0.00114084
0.00113845
0.00113592
0.00113445
0.00113461
0.0011338
0.00113112
0.00112888
0.00112752
0.00112672
0.00112505
0.00112221
0.00112022
0.00111925
0.00111803
0.00111571
0.00111381
0.00111256
0.00111141
0.00110977
0.00110789
0.00110626
0.00110508
0.0011042
0.00110131
0.00109982
0.00109951
0.00109658
0.00109371
0.00109289
0.0010934
0.00109355
0.00109231
0.00109176
0.00109258
0.00109319
0.00109363
0.00109518
0.00109648
0.00109603
0.00109509
0.00109663
0.00110271
0.00110971
0.00111092
0.00110342
0.0010991
0.00109647
0.00108848
0.00108547
0.00107731
0.00108438
0.00111723
0.00114526
0.00118178
0.00125146
0.00135075
0.00143766
0.00152552
0.00171935
0.00193334
0.00178422
0.00144639
0.00130923
0.00115567
0.00110922
0.00105648
0.00105028
0.00103205
0.00102733
0.00103006
0.0010323
0.00102916
0.00103179
0.0010336
0.00103071
0.00103325
0.00104431
0.00104254
0.00105366
0.00106229
0.00109178
0.0010798
0.00104655
0.00104506
0.00103512
0.0010334
0.00102723
0.00102534
0.00102053
0.00101994
0.00102172
0.00102516
0.00102483
0.00102962
0.00102948
0.00103876
0.00104462
0.00107106
0.00106327
0.00103512
0.0010343
0.00102429
0.00102353
0.00101635
0.00101733
0.00101669
0.00101469
0.00101463
0.0010151
0.00101507
0.00101484
0.00101456
0.00101426
0.00101422
0.00101412
0.00101398
0.00101384
0.00101371
0.00101362
0.00101356
0.00101347
0.0010134
0.00101335
0.0010133
0.00101326
0.00101322
0.00101319
0.00101317
0.00101315
0.00101315
0.00101315
0.00101314
0.00101311
0.00101312
0.00101313
0.00101309
0.00101307
0.00101309
0.00101311
0.00101306
0.00101302
0.00101299
0.00101297
0.00101291
0.00101285
0.00101281
0.00101276
0.00101269
0.00101261
0.00101254
0.00101246
0.00101237
0.00101228
0.00101219
0.0010121
0.001012
0.00101189
0.00101179
0.00101168
0.00101156
0.00101144
0.00101132
0.00101118
0.00101104
0.00101091
0.00101079
0.00101066
0.00101053
0.00101039
0.00101024
0.00101007
0.00100991
0.00100974
0.00100959
0.00100944
0.0010093
0.00100915
0.001009
0.00100884
0.00100867
0.00100849
0.00100832
0.00100815
0.00100799
0.00100784
0.00100769
0.00100754
0.0010074
0.00100726
0.00100711
0.00100696
0.00100681
0.00100667
0.00100653
0.00100639
0.00100624
0.0010061
0.00100596
0.00100583
0.0010057
0.00100558
0.00100546
0.00100534
0.00100521
0.0010051
0.00100499
0.00100488
0.00100477
0.00100467
0.00100456
0.00100445
0.00100434
0.00100423
0.00100413
0.00100403
0.00100394
0.00100384
0.00100375
0.00100366
0.00100357
0.00100348
0.00100339
0.0010033
0.00100322
0.00100313
0.00100305
0.00100296
0.00100288
0.0010028
0.00100272
0.00100265
0.00100257
0.00100251
0.00100244
0.00100238
0.00100231
0.00100224
0.00100218
0.00100211
0.00100204
0.00100198
0.00100192
0.00100187
0.00100181
0.00100176
0.0010017
0.00100165
0.0010016
0.00100155
0.0010015
0.00100145
0.0010014
0.00100135
0.00100129
0.00100124
0.00100119
0.00100114
0.00100109
0.00100104
0.001001
0.00100096
0.00100092
0.00100089
0.00100085
0.00100082
0.00100079
0.00100076
0.00100073
0.0010007
0.00100067
0.00100063
0.0010006
0.00100057
0.00100054
0.0010005
0.00100047
0.00100044
0.00100041
0.00100038
0.00100035
0.00100032
0.0010003
0.00100028
0.00100026
0.00100024
0.00100022
0.0010002
0.00100018
0.00100016
0.00100014
0.00100012
0.00100011
0.00100009
0.00100008
0.00100007
0.00100006
0.00100005
0.00100004
0.00100003
0.00100002
0.00100001
0.001
0.000999992
0.000999984
0.000999975
0.000999968
0.000999962
0.000999957
0.000999952
0.000999947
0.000999943
0.000999939
0.000999935
0.000999931
0.000999928
0.000999924
0.000999921
0.000999918
0.000999915
0.000999912
0.00099991
0.000999908
0.000999906
0.000999904
0.000999903
0.000999901
0.0009999
0.000999898
0.000999897
0.000999896
0.000999895
0.000999894
0.000999893
0.000999892
0.000999891
0.00099989
0.00099989
0.000999889
0.000999889
0.000999888
0.000999888
0.000999887
0.000999887
0.000999886
0.000999886
0.000999885
0.000999885
0.000999885
0.000999885
0.000999884
0.000999884
0.000999884
0.000999883
0.000999883
0.000999883
0.000999883
0.000999883
0.000999883
0.000999883
0.000999883
0.000999882
0.000999882
0.000999882
0.000999881
0.000999881
0.000999881
0.000999881
0.000999881
0.000999881
0.000999881
0.000999881
0.00099988
0.000999881
0.000999881
0.000999881
0.000999881
0.00099988
0.00099988
0.00099988
0.00099988
0.00099988
0.00099988
0.000999879
0.000999879
0.000999879
0.000999879
0.000999878
0.000999878
0.000999878
0.000999878
0.000999879
0.000999878
0.000999878
0.000999878
0.000999878
0.000999878
0.000999878
0.000999878
0.000999878
0.000999878
0.000999878
0.000999878
0.000999878
0.000999878
0.000999877
0.000999877
0.000999877
0.000999877
0.000999877
0.000999877
0.000999877
0.000999877
0.000999877
0.000999877
0.000999877
0.000999877
0.000999877
0.000999877
0.00099988
0.000999877
0.000999881
0.000999881
0.000999912
0.000999916
0.000999938
0.00100012
0.00100009
0.000999919
0.000999913
0.000999899
0.000999899
0.000999884
0.000999883
0.000999878
0.000999877
0.000999878
0.00099988
0.00099988
0.000999881
0.000999878
0.000999877
0.000999878
0.000999877
0.000999876
0.000999875
0.000999875
0.000999875
0.000999876
0.000999876
0.000999877
0.000999878
0.000999878
0.000999877
0.000999876
0.000999876
0.000999877
0.000999878
0.000999879
0.000999881
0.000999882
0.000999881
0.00099988
0.000999878
0.000999877
0.000999876
0.000999877
0.000999877
0.000999878
0.000999878
0.000999878
0.000999879
0.000999878
0.000999878
0.000999878
0.000999878
0.000999878
0.000999879
0.00099988
0.000999881
0.000999882
0.000999881
0.00099988
0.00099988
0.00099988
0.00099988
0.00099988
0.000999879
0.000999879
0.00099988
0.000999881
0.000999881
0.000999882
0.000999884
0.000999882
0.00099988
0.00099988
0.00099988
0.00099988
0.00099988
0.000999879
0.00099988
0.000999881
0.00099988
0.000999881
0.000999884
0.00099988
0.00099989
0.000999882
0.00099988
0.000999883
0.000999903
0.000999884
0.00099988
0.000999882
0.000999881
0.000999879
0.000999881
0.000999927
0.000999902
0.00243761
0.0017588
0.0012666
0.00120534
0.00117877
0.0011778
0.0011751
0.00117382
0.00117086
0.00117043
0.00117094
0.00116964
0.00116747
0.00116559
0.00116496
0.00116527
0.00116554
0.00116476
0.00116307