/*--------------------------------*- C++ -*----------------------------------*\
| =========                 |                                                 |
| \\      /  F ield         | OpenFOAM: The Open Source CFD Toolbox           |
|  \\    /   O peration     | Version:  v2006                                 |
|   \\  /    A nd           | Website:  www.openfoam.com                      |
|    \\/     M anipulation  |                                                 |
\*---------------------------------------------------------------------------*/
FoamFile
{
    version     2.0;
    format      ascii;
    class       volScalarField;
    location    "1.7";
    object      p;
}
// * * * * * * * * * * * * * * * * * * * * * * * * * * * * * * * * * * * * * //

dimensions      [1 -1 -2 0 0 0 0];


internalField   nonuniform List<scalar> 
33000
(
7495.41
7500.29
7504.29
7508.33
7512.33
7516.31
7520.28
7524.23
7528.16
7532.06
7535.93
7539.78
7543.59
7547.37
7551.11
7554.81
7558.46
7562.07
7565.63
7569.13
7572.58
7575.99
7579.33
7582.61
7585.83
7588.99
7592.09
7595.12
7598.09
7600.98
7603.81
7606.58
7609.27
7611.89
7614.43
7616.91
7619.32
7621.66
7623.91
7626.1
7628.21
7630.26
7632.24
7634.15
7635.98
7637.74
7639.44
7641.07
7642.62
7644.11
7645.54
7646.9
7648.2
7649.43
7650.6
7651.71
7652.76
7653.74
7654.67
7655.54
7656.35
7657.11
7657.82
7658.47
7659.08
7659.64
7660.15
7660.62
7661.04
7661.42
7661.76
7662.06
7662.33
7662.57
7662.78
7662.95
7663.11
7663.24
7663.33
7663.29
7663.42
7663.41
7663.41
7663.41
7663.35
7663.23
7663.12
7662.95
7662.78
7662.58
7662.36
7662.12
7661.85
7661.57
7661.27
7660.96
7660.61
7660.29
7659.89
7659.53
7659.21
7658.82
7658.45
7658.08
7657.69
7657.32
7656.95
7656.59
7656.23
7655.87
7655.53
7655.2
7654.87
7654.56
7654.25
7653.97
7653.63
7653.37
7653.21
7652.99
7652.82
7652.67
7652.52
7652.42
7652.34
7652.29
7652.26
7652.25
7652.27
7652.32
7652.39
7652.49
7652.61
7652.76
7652.93
7653.13
7653.35
7653.6
7653.87
7654.17
7654.49
7654.83
7655.19
7655.58
7655.99
7656.41
7656.86
7657.32
7657.8
7658.3
7658.82
7659.35
7659.89
7660.45
7661.02
7661.6
7662.19
7662.8
7663.41
7664.04
7664.68
7665.32
7665.98
7666.65
7667.32
7668.01
7668.7
7669.4
7670.12
7670.84
7671.56
7672.3
7673.04
7673.79
7674.55
7675.31
7676.08
7676.85
7677.62
7678.4
7679.18
7679.96
7680.74
7681.52
7682.31
7683.09
7683.87
7684.65
7685.43
7686.2
7686.98
7687.75
7688.52
7689.28
7690.04
7690.8
7691.56
7692.31
7693.06
7693.81
7694.55
7695.29
7696.02
7696.75
7697.48
7698.2
7698.91
7699.62
7700.33
7701.03
7701.72
7702.41
7703.09
7703.76
7704.43
7705.1
7705.75
7706.4
7707.04
7707.68
7708.31
7708.93
7709.54
7710.15
7710.75
7711.34
7711.92
7712.5
7713.07
7713.64
7714.19
7714.74
7715.28
7715.81
7716.34
7716.85
7717.36
7717.87
7718.36
7718.85
7719.33
7719.8
7720.27
7720.73
7721.18
7721.62
7722.06
7722.49
7722.91
7723.32
7723.73
7724.13
7724.53
7724.91
7725.29
7725.67
7726.03
7726.39
7726.75
7727.09
7727.43
7727.77
7728.1
7728.42
7728.73
7729.04
7729.35
7729.64
7729.93
7730.22
7730.5
7730.77
7731.04
7731.31
7731.57
7731.82
7732.07
7732.31
7732.55
7732.78
7733
7733.23
7733.45
7733.66
7733.87
7734.07
7734.27
7734.47
7734.66
7734.84
7735.03
7735.2
7735.38
7735.55
7735.72
7735.88
7736.04
7736.19
7736.35
7736.49
7736.64
7736.78
7736.92
7737.06
7737.19
7737.32
7737.45
7737.57
7737.69
7737.81
7737.92
7738.03
7738.14
7738.25
7738.36
7738.46
7738.56
7738.66
7738.75
7738.84
7738.93
7739.02
7739.11
7739.19
7739.27
7739.35
7739.43
7739.51
7739.58
7739.65
7739.73
7739.79
7739.86
7739.93
7739.99
7740.05
7740.11
7740.17
7740.23
7740.29
7740.34
7740.4
7740.45
7740.5
7740.55
7740.6
7740.64
7740.69
7740.73
7740.78
7740.82
7740.86
7740.9
7740.94
7740.98
7741.02
7741.05
7741.09
7741.12
7741.16
7741.19
7741.22
7741.25
7741.28
7741.31
7741.34
7741.37
7741.4
7741.42
7741.45
7741.47
7741.5
7741.52
7741.54
7741.57
7741.59
7741.61
7741.63
7741.65
7741.67
7741.69
7741.71
7741.72
7741.74
7741.76
7741.77
7741.79
7741.81
7741.82
7741.83
7741.85
7741.86
7741.88
7741.89
7741.9
7741.91
7741.92
7741.93
7741.95
7741.96
7741.97
7741.98
7741.99
7741.99
7742
7742.01
7742.02
7742.03
7742.03
7742.04
7742.05
7742.06
7742.06
7742.07
7742.07
7742.08
7742.08
7742.09
7742.09
7742.1
7742.1
7742.11
7742.11
7742.12
7742.12
7742.12
7742.13
7742.13
7742.13
7742.14
7742.14
7742.14
7742.14
7742.15
7742.15
7742.15
7742.15
7742.15
7742.15
7742.16
7742.16
7742.16
7742.16
7742.16
7742.16
7742.16
7742.16
7742.16
7742.16
7742.16
7742.16
7742.16
7742.16
7742.16
7742.16
7742.16
7742.16
7742.16
7742.16
7742.16
7742.16
7742.16
7742.16
7742.16
7742.16
7742.16
7742.16
7742.16
7742.16
7742.16
7742.16
7742.16
7742.16
7742.16
7742.16
7742.16
7742.16
7742.16
7742.16
7742.16
7742.15
7742.15
7742.15
7742.15
7742.15
7742.15
7742.15
7742.15
7742.15
7742.15
7742.15
7742.15
7742.15
7742.15
7742.15
7742.15
7742.14
7742.14
7742.14
7742.14
7742.14
7742.14
7742.14
7742.14
7742.14
7742.14
7742.14
7742.14
7742.14
7742.14
7742.13
7742.13
7742.13
7742.13
7742.13
7742.13
7742.13
7742.13
7742.13
7742.13
7742.13
7742.13
7742.13
7742.12
7742.12
7742.12
7742.12
7742.12
7742.12
7742.12
7742.12
7742.12
7742.12
7742.12
7742.11
7742.11
7742.11
7742.11
7742.11
7742.11
7742.11
7742.11
7742.11
7742.11
7742.1
7742.1
7742.1
7742.1
7742.1
7742.1
7299.2
7304.08
7308.11
7312.15
7316.16
7320.15
7324.13
7328.09
7332.03
7335.94
7339.82
7343.68
7347.5
7351.29
7355.03
7358.74
7362.4
7366.02
7369.58
7373.1
7376.56
7379.96
7383.31
7386.6
7389.83
7392.99
7396.09
7399.13
7402.1
7405
7407.83
7410.6
7413.3
7415.93
7418.48
7420.95
7423.36
7425.69
7427.96
7430.15
7432.26
7434.31
7436.28
7438.19
7440.02
7441.78
7443.47
7445.1
7446.65
7448.14
7449.57
7450.93
7452.22
7453.45
7454.62
7455.73
7456.77
7457.75
7458.67
7459.54
7460.35
7461.1
7461.8
7462.46
7463.06
7463.61
7464.11
7464.57
7464.99
7465.36
7465.7
7466
7466.27
7466.5
7466.69
7466.86
7466.99
7467.11
7467.23
7467.34
7467.42
7467.44
7467.25
7467.28
7467.18
7467.11
7467
7466.86
7466.68
7466.46
7466.24
7465.99
7465.72
7465.44
7465.13
7464.82
7464.48
7464.14
7463.78
7463.4
7463.04
7462.6
7462.23
7461.91
7461.52
7461.16
7460.78
7460.4
7460.03
7459.68
7459.34
7459.01
7458.69
7458.38
7458.08
7457.79
7457.51
7457.24
7457.01
7456.71
7456.53
7456.45
7456.31
7456.22
7456.13
7456.06
7456.02
7456.03
7456.05
7456.09
7456.16
7456.26
7456.38
7456.53
7456.7
7456.9
7457.13
7457.37
7457.65
7457.94
7458.26
7458.6
7458.97
7459.35
7459.76
7460.19
7460.64
7461.1
7461.58
7462.08
7462.6
7463.13
7463.67
7464.23
7464.8
7465.38
7465.97
7466.58
7467.2
7467.82
7468.46
7469.11
7469.76
7470.43
7471.1
7471.79
7472.49
7473.19
7473.9
7474.62
7475.35
7476.09
7476.83
7477.59
7478.34
7479.11
7479.87
7480.65
7481.42
7482.2
7482.98
7483.76
7484.55
7485.33
7486.11
7486.9
7487.68
7488.46
7489.24
7490.01
7490.79
7491.56
7492.33
7493.09
7493.86
7494.62
7495.37
7496.13
7496.88
7497.62
7498.37
7499.1
7499.84
7500.57
7501.29
7502.01
7502.73
7503.44
7504.15
7504.85
7505.54
7506.23
7506.91
7507.58
7508.25
7508.92
7509.57
7510.22
7510.86
7511.5
7512.13
7512.75
7513.36
7513.97
7514.57
7515.16
7515.75
7516.33
7516.9
7517.46
7518.01
7518.56
7519.1
7519.64
7520.16
7520.68
7521.19
7521.69
7522.19
7522.67
7523.15
7523.63
7524.09
7524.55
7525
7525.44
7525.88
7526.31
7526.73
7527.15
7527.55
7527.95
7528.35
7528.73
7529.11
7529.49
7529.85
7530.21
7530.57
7530.91
7531.25
7531.59
7531.91
7532.24
7532.55
7532.86
7533.16
7533.46
7533.75
7534.04
7534.32
7534.59
7534.86
7535.12
7535.38
7535.63
7535.88
7536.12
7536.36
7536.59
7536.82
7537.04
7537.26
7537.47
7537.68
7537.88
7538.08
7538.28
7538.47
7538.65
7538.84
7539.02
7539.19
7539.36
7539.53
7539.69
7539.85
7540
7540.16
7540.3
7540.45
7540.59
7540.73
7540.87
7541
7541.13
7541.25
7541.38
7541.5
7541.61
7541.73
7541.84
7541.95
7542.06
7542.16
7542.26
7542.36
7542.46
7542.56
7542.65
7542.74
7542.83
7542.91
7543
7543.08
7543.16
7543.24
7543.31
7543.39
7543.46
7543.53
7543.6
7543.67
7543.73
7543.79
7543.86
7543.92
7543.98
7544.03
7544.09
7544.15
7544.2
7544.25
7544.3
7544.35
7544.4
7544.45
7544.49
7544.54
7544.58
7544.62
7544.66
7544.7
7544.74
7544.78
7544.82
7544.85
7544.89
7544.92
7544.96
7544.99
7545.02
7545.05
7545.08
7545.11
7545.14
7545.17
7545.2
7545.22
7545.25
7545.27
7545.3
7545.32
7545.34
7545.37
7545.39
7545.41
7545.43
7545.45
7545.47
7545.49
7545.51
7545.52
7545.54
7545.56
7545.58
7545.59
7545.61
7545.62
7545.64
7545.65
7545.66
7545.68
7545.69
7545.7
7545.71
7545.72
7545.74
7545.75
7545.76
7545.77
7545.78
7545.79
7545.79
7545.8
7545.81
7545.82
7545.83
7545.84
7545.84
7545.85
7545.86
7545.86
7545.87
7545.87
7545.88
7545.88
7545.89
7545.89
7545.9
7545.9
7545.91
7545.91
7545.92
7545.92
7545.92
7545.93
7545.93
7545.93
7545.94
7545.94
7545.94
7545.94
7545.95
7545.95
7545.95
7545.95
7545.95
7545.95
7545.96
7545.96
7545.96
7545.96
7545.96
7545.96
7545.96
7545.96
7545.96
7545.96
7545.96
7545.96
7545.96
7545.96
7545.97
7545.97
7545.97
7545.96
7545.96
7545.96
7545.96
7545.96
7545.96
7545.96
7545.96
7545.96
7545.96
7545.96
7545.96
7545.96
7545.96
7545.96
7545.96
7545.96
7545.96
7545.96
7545.96
7545.96
7545.96
7545.96
7545.96
7545.95
7545.95
7545.95
7545.95
7545.95
7545.95
7545.95
7545.95
7545.95
7545.95
7545.95
7545.95
7545.95
7545.95
7545.95
7545.95
7545.94
7545.94
7545.94
7545.94
7545.94
7545.94
7545.94
7545.94
7545.94
7545.94
7545.94
7545.94
7545.94
7545.94
7545.93
7545.93
7545.93
7545.93
7545.93
7545.93
7545.93
7545.93
7545.93
7545.93
7545.93
7545.93
7545.92
7545.92
7545.92
7545.92
7545.92
7545.92
7545.92
7545.92
7545.92
7545.92
7545.92
7545.91
7545.91
7545.91
7545.91
7545.91
7545.91
7545.91
7545.91
7545.91
7545.91
7545.91
7545.9
7545.9
7545.9
7545.9
7545.9
7545.9
7102.93
7107.83
7111.87
7115.94
7119.98
7124
7128
7131.98
7135.94
7139.87
7143.78
7147.65
7151.49
7155.3
7159.06
7162.79
7166.46
7170.1
7173.68
7177.21
7180.68
7184.1
7187.46
7190.76
7194
7197.18
7200.28
7203.33
7206.3
7209.21
7212.05
7214.81
7217.51
7220.14
7222.7
7225.18
7227.59
7229.93
7232.2
7234.39
7236.51
7238.55
7240.52
7242.42
7244.25
7246.01
7247.7
7249.32
7250.87
7252.36
7253.78
7255.13
7256.42
7257.65
7258.81
7259.91
7260.95
7261.92
7262.84
7263.69
7264.49
7265.23
7265.92
7266.56
7267.15
7267.69
7268.19
7268.64
7269.05
7269.42
7269.75
7270.03
7270.29
7270.5
7270.69
7270.84
7270.97
7271.08
7271.16
7271.21
7271.25
7271.3
7271.34
7271.37
7271.31
7271
7270.95
7270.72
7270.57
7270.36
7270.17
7269.9
7269.61
7269.33
7269.03
7268.7
7268.37
7268.01
7267.66
7267.29
7266.92
7266.54
7266.13
7265.74
7265.28
7264.9
7264.59
7264.22
7263.88
7263.51
7263.16
7262.81
7262.49
7262.18
7261.88
7261.59
7261.32
7261.06
7260.84
7260.62
7260.41
7260.23
7259.98
7259.86
7259.87
7259.8
7259.78
7259.77
7259.77
7259.81
7259.89
7259.99
7260.11
7260.26
7260.43
7260.62
7260.85
7261.1
7261.37
7261.67
7261.99
7262.33
7262.7
7263.08
7263.49
7263.92
7264.37
7264.83
7265.31
7265.81
7266.33
7266.86
7267.4
7267.96
7268.53
7269.12
7269.71
7270.32
7270.94
7271.57
7272.2
7272.85
7273.51
7274.18
7274.86
7275.54
7276.24
7276.95
7277.66
7278.39
7279.12
7279.86
7280.6
7281.36
7282.12
7282.88
7283.65
7284.43
7285.2
7285.98
7286.77
7287.55
7288.34
7289.12
7289.91
7290.69
7291.48
7292.26
7293.04
7293.82
7294.59
7295.37
7296.14
7296.91
7297.67
7298.43
7299.19
7299.94
7300.7
7301.44
7302.19
7302.93
7303.66
7304.39
7305.12
7305.84
7306.56
7307.27
7307.97
7308.67
7309.37
7310.06
7310.74
7311.41
7312.08
7312.75
7313.4
7314.05
7314.7
7315.33
7315.96
7316.58
7317.2
7317.81
7318.41
7319
7319.58
7320.16
7320.73
7321.3
7321.85
7322.4
7322.94
7323.47
7324
7324.52
7325.03
7325.53
7326.02
7326.51
7326.99
7327.46
7327.93
7328.39
7328.84
7329.28
7329.72
7330.15
7330.57
7330.98
7331.39
7331.79
7332.18
7332.57
7332.95
7333.32
7333.69
7334.05
7334.4
7334.75
7335.09
7335.42
7335.75
7336.07
7336.38
7336.69
7336.99
7337.29
7337.58
7337.87
7338.15
7338.42
7338.69
7338.95
7339.21
7339.46
7339.71
7339.95
7340.19
7340.42
7340.64
7340.87
7341.08
7341.3
7341.5
7341.71
7341.91
7342.1
7342.29
7342.48
7342.66
7342.84
7343.01
7343.18
7343.35
7343.51
7343.67
7343.82
7343.97
7344.12
7344.27
7344.41
7344.55
7344.68
7344.81
7344.94
7345.07
7345.19
7345.31
7345.43
7345.54
7345.66
7345.76
7345.87
7345.98
7346.08
7346.18
7346.27
7346.37
7346.46
7346.55
7346.64
7346.72
7346.81
7346.89
7346.97
7347.05
7347.12
7347.19
7347.27
7347.34
7347.41
7347.47
7347.54
7347.6
7347.66
7347.72
7347.78
7347.84
7347.9
7347.95
7348.01
7348.06
7348.11
7348.16
7348.2
7348.25
7348.3
7348.34
7348.38
7348.43
7348.47
7348.51
7348.55
7348.59
7348.62
7348.66
7348.69
7348.73
7348.76
7348.79
7348.83
7348.86
7348.89
7348.92
7348.95
7348.97
7349
7349.03
7349.05
7349.08
7349.1
7349.12
7349.15
7349.17
7349.19
7349.21
7349.23
7349.25
7349.27
7349.29
7349.31
7349.33
7349.34
7349.36
7349.38
7349.39
7349.41
7349.42
7349.44
7349.45
7349.47
7349.48
7349.49
7349.5
7349.51
7349.53
7349.54
7349.55
7349.56
7349.57
7349.58
7349.59
7349.6
7349.6
7349.61
7349.62
7349.63
7349.64
7349.64
7349.65
7349.66
7349.66
7349.67
7349.68
7349.68
7349.69
7349.69
7349.7
7349.7
7349.71
7349.71
7349.71
7349.72
7349.72
7349.72
7349.73
7349.73
7349.73
7349.74
7349.74
7349.74
7349.74
7349.75
7349.75
7349.75
7349.75
7349.75
7349.76
7349.76
7349.76
7349.76
7349.76
7349.76
7349.76
7349.76
7349.76
7349.76
7349.76
7349.76
7349.76
7349.77
7349.77
7349.77
7349.77
7349.77
7349.77
7349.77
7349.76
7349.76
7349.76
7349.76
7349.76
7349.76
7349.76
7349.76
7349.76
7349.76
7349.76
7349.76
7349.76
7349.76
7349.76
7349.76
7349.76
7349.76
7349.76
7349.76
7349.76
7349.76
7349.76
7349.75
7349.75
7349.75
7349.75
7349.75
7349.75
7349.75
7349.75
7349.75
7349.75
7349.75
7349.75
7349.75
7349.75
7349.75
7349.74
7349.74
7349.74
7349.74
7349.74
7349.74
7349.74
7349.74
7349.74
7349.74
7349.74
7349.74
7349.74
7349.74
7349.73
7349.73
7349.73
7349.73
7349.73
7349.73
7349.73
7349.73
7349.73
7349.73
7349.73
7349.73
7349.72
7349.72
7349.72
7349.72
7349.72
7349.72
7349.72
7349.72
7349.72
7349.72
7349.72
7349.71
7349.71
7349.71
7349.71
7349.71
7349.71
7349.71
7349.71
7349.71
7349.71
7349.71
7349.7
7349.7
7349.7
7349.7
7349.7
7349.7
6906.75
6911.68
6915.74
6919.85
6923.9
6927.94
6931.96
6935.96
6939.93
6943.89
6947.81
6951.71
6955.57
6959.39
6963.18
6966.92
6970.62
6974.27
6977.87
6981.41
6984.91
6988.34
6991.72
6995.03
6998.28
7001.47
7004.59
7007.65
7010.63
7013.55
7016.4
7019.17
7021.87
7024.5
7027.06
7029.55
7031.96
7034.3
7036.56
7038.75
7040.87
7042.92
7044.89
7046.79
7048.62
7050.38
7052.07
7053.69
7055.24
7056.72
7058.13
7059.48
7060.76
7061.98
7063.13
7064.22
7065.25
7066.22
7067.13
7067.98
7068.77
7069.5
7070.18
7070.81
7071.39
7071.91
7072.4
7072.83
7073.23
7073.58
7073.9
7074.17
7074.4
7074.6
7074.78
7074.92
7075.04
7075.13
7075.18
7075.22
7075.24
7075.23
7075.2
7075.16
7075.12
7075.07
7075.01
7074.95
7074.77
7074.31
7074.15
7073.85
7073.58
7073.32
7072.99
7072.64
7072.3
7071.95
7071.58
7071.2
7070.81
7070.42
7070.03
7069.65
7069.25
7068.86
7068.43
7068.05
7067.59
7067.22
7066.96
7066.61
7066.3
7065.98
7065.66
7065.37
7065.1
7064.84
7064.61
7064.38
7064.18
7064.02
7063.87
7063.71
7063.6
7063.4
7063.35
7063.45
7063.46
7063.51
7063.57
7063.65
7063.77
7063.93
7064.1
7064.3
7064.52
7064.77
7065.04
7065.33
7065.65
7066
7066.37
7066.75
7067.16
7067.59
7068.04
7068.51
7068.99
7069.49
7070.01
7070.54
7071.09
7071.65
7072.22
7072.81
7073.41
7074.02
7074.64
7075.27
7075.91
7076.56
7077.22
7077.89
7078.57
7079.26
7079.96
7080.67
7081.39
7082.12
7082.85
7083.59
7084.34
7085.1
7085.86
7086.63
7087.41
7088.18
7088.96
7089.75
7090.53
7091.32
7092.11
7092.9
7093.68
7094.47
7095.26
7096.04
7096.83
7097.61
7098.39
7099.16
7099.94
7100.71
7101.48
7102.24
7103
7103.76
7104.51
7105.26
7106.01
7106.75
7107.48
7108.22
7108.94
7109.67
7110.38
7111.1
7111.8
7112.5
7113.2
7113.89
7114.57
7115.25
7115.92
7116.58
7117.24
7117.89
7118.54
7119.17
7119.8
7120.43
7121.04
7121.65
7122.25
7122.84
7123.43
7124.01
7124.58
7125.14
7125.7
7126.25
7126.79
7127.32
7127.85
7128.37
7128.88
7129.38
7129.88
7130.36
7130.84
7131.32
7131.78
7132.24
7132.69
7133.13
7133.57
7134
7134.42
7134.84
7135.24
7135.64
7136.04
7136.42
7136.8
7137.17
7137.54
7137.9
7138.25
7138.6
7138.94
7139.27
7139.59
7139.92
7140.23
7140.54
7140.84
7141.14
7141.43
7141.71
7141.99
7142.26
7142.53
7142.79
7143.05
7143.3
7143.55
7143.79
7144.02
7144.25
7144.48
7144.7
7144.92
7145.13
7145.34
7145.54
7145.74
7145.93
7146.12
7146.31
7146.49
7146.67
7146.84
7147.01
7147.17
7147.34
7147.49
7147.65
7147.8
7147.95
7148.09
7148.23
7148.37
7148.51
7148.64
7148.77
7148.89
7149.01
7149.13
7149.25
7149.36
7149.47
7149.58
7149.69
7149.79
7149.89
7149.99
7150.09
7150.18
7150.28
7150.36
7150.45
7150.54
7150.62
7150.7
7150.78
7150.86
7150.93
7151.01
7151.08
7151.15
7151.22
7151.28
7151.35
7151.41
7151.47
7151.53
7151.59
7151.65
7151.71
7151.76
7151.81
7151.87
7151.92
7151.97
7152.01
7152.06
7152.1
7152.15
7152.19
7152.23
7152.28
7152.32
7152.35
7152.39
7152.43
7152.47
7152.5
7152.53
7152.57
7152.6
7152.63
7152.66
7152.69
7152.72
7152.75
7152.78
7152.81
7152.83
7152.86
7152.88
7152.91
7152.93
7152.95
7152.97
7153
7153.02
7153.04
7153.06
7153.08
7153.09
7153.11
7153.13
7153.15
7153.16
7153.18
7153.2
7153.21
7153.23
7153.24
7153.25
7153.27
7153.28
7153.29
7153.31
7153.32
7153.33
7153.34
7153.35
7153.36
7153.37
7153.38
7153.39
7153.4
7153.41
7153.42
7153.42
7153.43
7153.44
7153.45
7153.45
7153.46
7153.47
7153.47
7153.48
7153.48
7153.49
7153.49
7153.5
7153.5
7153.51
7153.51
7153.51
7153.52
7153.52
7153.53
7153.53
7153.53
7153.53
7153.54
7153.54
7153.54
7153.55
7153.55
7153.55
7153.55
7153.55
7153.55
7153.56
7153.56
7153.56
7153.56
7153.56
7153.56
7153.56
7153.56
7153.56
7153.56
7153.56
7153.57
7153.57
7153.57
7153.57
7153.57
7153.57
7153.57
7153.57
7153.57
7153.57
7153.56
7153.56
7153.56
7153.56
7153.56
7153.56
7153.56
7153.56
7153.56
7153.56
7153.56
7153.56
7153.56
7153.56
7153.56
7153.56
7153.56
7153.56
7153.56
7153.56
7153.56
7153.56
7153.55
7153.55
7153.55
7153.55
7153.55
7153.55
7153.55
7153.55
7153.55
7153.55
7153.55
7153.55
7153.55
7153.55
7153.55
7153.54
7153.54
7153.54
7153.54
7153.54
7153.54
7153.54
7153.54
7153.54
7153.54
7153.54
7153.54
7153.54
7153.54
7153.53
7153.53
7153.53
7153.53
7153.53
7153.53
7153.53
7153.53
7153.53
7153.53
7153.53
7153.53
7153.52
7153.52
7153.52
7153.52
7153.52
7153.52
7153.52
7153.52
7153.52
7153.52
7153.52
7153.51
7153.51
7153.51
7153.51
7153.51
7153.51
7153.51
7153.51
7153.51
7153.51
7153.5
7153.5
7153.5
7153.5
7153.5
7153.5
7153.5
6710.5
6715.47
6719.58
6723.73
6727.81
6731.88
6735.93
6739.96
6743.97
6747.96
6751.91
6755.84
6759.73
6763.58
6767.39
6771.16
6774.88
6778.56
6782.18
6785.75
6789.26
6792.71
6796.1
6799.43
6802.7
6805.91
6809.04
6812.11
6815.11
6818.04
6820.89
6823.67
6826.38
6829.01
6831.57
6834.06
6836.47
6838.81
6841.08
6843.27
6845.39
6847.44
6849.41
6851.31
6853.14
6854.9
6856.59
6858.2
6859.75
6861.22
6862.63
6863.97
6865.24
6866.45
6867.59
6868.67
6869.68
6870.64
6871.54
6872.37
6873.15
6873.88
6874.54
6875.16
6875.72
6876.24
6876.71
6877.13
6877.5
6877.84
6878.14
6878.39
6878.61
6878.8
6878.95
6879.08
6879.18
6879.25
6879.29
6879.31
6879.31
6879.29
6879.24
6879.17
6879.08
6878.97
6878.86
6878.72
6878.6
6878.48
6878.35
6878.11
6877.56
6877.34
6876.98
6876.64
6876.32
6875.93
6875.53
6875.15
6874.76
6874.36
6873.95
6873.54
6873.13
6872.73
6872.34
6871.95
6871.57
6871.15
6870.78
6870.33
6869.99
6869.75
6869.44
6869.16
6868.87
6868.6
6868.36
6868.14
6867.94
6867.76
6867.59
6867.45
6867.35
6867.27
6867.18
6867.13
6867
6867.03
6867.21
6867.29
6867.43
6867.57
6867.73
6867.9
6868.12
6868.38
6868.65
6868.95
6869.27
6869.61
6869.98
6870.37
6870.78
6871.22
6871.67
6872.14
6872.62
6873.13
6873.65
6874.18
6874.73
6875.3
6875.87
6876.46
6877.06
6877.67
6878.3
6878.93
6879.57
6880.23
6880.89
6881.57
6882.25
6882.95
6883.65
6884.37
6885.09
6885.82
6886.56
6887.31
6888.06
6888.82
6889.59
6890.36
6891.14
6891.92
6892.71
6893.5
6894.29
6895.08
6895.87
6896.66
6897.45
6898.25
6899.04
6899.83
6900.61
6901.4
6902.18
6902.96
6903.74
6904.51
6905.28
6906.05
6906.81
6907.57
6908.33
6909.08
6909.83
6910.57
6911.31
6912.05
6912.78
6913.5
6914.22
6914.93
6915.64
6916.35
6917.04
6917.73
6918.42
6919.1
6919.77
6920.43
6921.09
6921.75
6922.39
6923.03
6923.66
6924.28
6924.9
6925.51
6926.11
6926.71
6927.29
6927.87
6928.44
6929.01
6929.56
6930.11
6930.66
6931.19
6931.72
6932.23
6932.74
6933.25
6933.74
6934.23
6934.71
6935.19
6935.65
6936.11
6936.56
6937
6937.44
6937.87
6938.29
6938.7
6939.11
6939.51
6939.9
6940.29
6940.67
6941.04
6941.4
6941.76
6942.11
6942.46
6942.8
6943.13
6943.46
6943.78
6944.09
6944.4
6944.7
6944.99
6945.28
6945.57
6945.85
6946.12
6946.38
6946.65
6946.9
6947.15
6947.4
6947.64
6947.87
6948.1
6948.33
6948.55
6948.77
6948.98
6949.18
6949.38
6949.58
6949.78
6949.96
6950.15
6950.33
6950.51
6950.68
6950.85
6951.01
6951.17
6951.33
6951.48
6951.63
6951.78
6951.93
6952.07
6952.2
6952.34
6952.47
6952.6
6952.72
6952.84
6952.96
6953.08
6953.19
6953.3
6953.41
6953.51
6953.62
6953.72
6953.82
6953.91
6954.01
6954.1
6954.19
6954.27
6954.36
6954.44
6954.52
6954.6
6954.68
6954.75
6954.82
6954.9
6954.97
6955.03
6955.1
6955.16
6955.23
6955.29
6955.35
6955.41
6955.46
6955.52
6955.57
6955.63
6955.68
6955.73
6955.78
6955.82
6955.87
6955.92
6955.96
6956
6956.04
6956.09
6956.12
6956.16
6956.2
6956.24
6956.27
6956.31
6956.34
6956.38
6956.41
6956.44
6956.47
6956.5
6956.53
6956.56
6956.59
6956.61
6956.64
6956.66
6956.69
6956.71
6956.74
6956.76
6956.78
6956.8
6956.82
6956.84
6956.86
6956.88
6956.9
6956.92
6956.94
6956.95
6956.97
6956.99
6957
6957.02
6957.03
6957.04
6957.06
6957.07
6957.08
6957.1
6957.11
6957.12
6957.13
6957.14
6957.15
6957.16
6957.17
6957.18
6957.19
6957.2
6957.21
6957.22
6957.23
6957.23
6957.24
6957.25
6957.25
6957.26
6957.27
6957.27
6957.28
6957.28
6957.29
6957.29
6957.3
6957.3
6957.31
6957.31
6957.32
6957.32
6957.32
6957.33
6957.33
6957.33
6957.34
6957.34
6957.34
6957.34
6957.35
6957.35
6957.35
6957.35
6957.35
6957.36
6957.36
6957.36
6957.36
6957.36
6957.36
6957.36
6957.36
6957.36
6957.36
6957.37
6957.37
6957.37
6957.37
6957.37
6957.37
6957.37
6957.37
6957.37
6957.37
6957.37
6957.37
6957.37
6957.37
6957.36
6957.36
6957.36
6957.36
6957.36
6957.36
6957.36
6957.36
6957.36
6957.36
6957.36
6957.36
6957.36
6957.36
6957.36
6957.36
6957.36
6957.36
6957.36
6957.36
6957.36
6957.35
6957.35
6957.35
6957.35
6957.35
6957.35
6957.35
6957.35
6957.35
6957.35
6957.35
6957.35
6957.35
6957.35
6957.34
6957.34
6957.34
6957.34
6957.34
6957.34
6957.34
6957.34
6957.34
6957.34
6957.34
6957.34
6957.34
6957.33
6957.33
6957.33
6957.33
6957.33
6957.33
6957.33
6957.33
6957.33
6957.33
6957.33
6957.33
6957.32
6957.32
6957.32
6957.32
6957.32
6957.32
6957.32
6957.32
6957.32
6957.32
6957.32
6957.31
6957.31
6957.31
6957.31
6957.31
6957.31
6957.31
6957.31
6957.31
6957.31
6957.31
6957.3
6957.3
6957.3
6957.3
6957.3
6957.3
6957.3
6514.26
6519.3
6523.45
6527.65
6531.77
6535.87
6539.97
6544.04
6548.09
6552.11
6556.1
6560.06
6563.98
6567.87
6571.71
6575.51
6579.26
6582.96
6586.61
6590.2
6593.74
6597.21
6600.63
6603.98
6607.26
6610.48
6613.63
6616.72
6619.73
6622.67
6625.54
6628.33
6631.04
6633.68
6636.25
6638.74
6641.15
6643.5
6645.76
6647.96
6650.08
6652.12
6654.1
6656
6657.82
6659.58
6661.26
6662.87
6664.41
6665.87
6667.27
6668.59
6669.85
6671.05
6672.17
6673.24
6674.24
6675.18
6676.07
6676.89
6677.65
6678.36
6679.02
6679.62
6680.16
6680.66
6681.11
6681.51
6681.87
6682.19
6682.47
6682.71
6682.91
6683.08
6683.21
6683.32
6683.39
6683.44
6683.46
6683.46
6683.44
6683.39
6683.32
6683.23
6683.12
6682.99
6682.84
6682.67
6682.49
6682.29
6682.09
6681.9
6681.71
6681.51
6681.2
6680.58
6680.31
6679.91
6679.51
6679.14
6678.7
6678.28
6677.87
6677.46
6677.04
6676.63
6676.21
6675.81
6675.4
6675.02
6674.65
6674.28
6673.89
6673.53
6673.1
6672.8
6672.61
6672.33
6672.1
6671.86
6671.64
6671.46
6671.3
6671.16
6671.04
6670.94
6670.87
6670.84
6670.83
6670.8
6670.83
6670.76
6670.87
6671.12
6671.3
6671.5
6671.71
6671.95
6672.2
6672.5
6672.83
6673.17
6673.54
6673.94
6674.35
6674.78
6675.24
6675.71
6676.2
6676.71
6677.24
6677.77
6678.33
6678.9
6679.48
6680.07
6680.67
6681.29
6681.92
6682.55
6683.2
6683.86
6684.53
6685.21
6685.9
6686.6
6687.31
6688.03
6688.76
6689.5
6690.24
6691
6691.76
6692.52
6693.3
6694.08
6694.86
6695.65
6696.44
6697.23
6698.02
6698.82
6699.62
6700.42
6701.21
6702.01
6702.81
6703.6
6704.39
6705.18
6705.97
6706.76
6707.54
6708.32
6709.09
6709.86
6710.63
6711.39
6712.15
6712.91
6713.66
6714.41
6715.15
6715.89
6716.62
6717.34
6718.07
6718.78
6719.49
6720.2
6720.9
6721.59
6722.28
6722.96
6723.63
6724.3
6724.96
6725.61
6726.26
6726.9
6727.53
6728.16
6728.78
6729.39
6729.99
6730.58
6731.17
6731.75
6732.33
6732.89
6733.45
6734
6734.54
6735.08
6735.6
6736.12
6736.63
6737.14
6737.63
6738.12
6738.6
6739.07
6739.54
6740
6740.45
6740.89
6741.33
6741.76
6742.18
6742.59
6743
6743.4
6743.79
6744.17
6744.55
6744.92
6745.29
6745.65
6746
6746.34
6746.68
6747.01
6747.34
6747.65
6747.97
6748.27
6748.57
6748.87
6749.16
6749.44
6749.72
6749.99
6750.25
6750.51
6750.77
6751.02
6751.26
6751.5
6751.74
6751.97
6752.19
6752.41
6752.62
6752.83
6753.04
6753.24
6753.44
6753.63
6753.82
6754
6754.18
6754.36
6754.53
6754.7
6754.86
6755.02
6755.18
6755.33
6755.48
6755.63
6755.77
6755.91
6756.04
6756.18
6756.31
6756.43
6756.56
6756.68
6756.8
6756.91
6757.02
6757.13
6757.24
6757.35
6757.45
6757.55
6757.65
6757.74
6757.83
6757.92
6758.01
6758.1
6758.18
6758.27
6758.35
6758.42
6758.5
6758.57
6758.65
6758.72
6758.79
6758.85
6758.92
6758.98
6759.05
6759.11
6759.17
6759.22
6759.28
6759.34
6759.39
6759.44
6759.49
6759.54
6759.59
6759.64
6759.68
6759.73
6759.77
6759.82
6759.86
6759.9
6759.94
6759.98
6760.01
6760.05
6760.09
6760.12
6760.15
6760.19
6760.22
6760.25
6760.28
6760.31
6760.34
6760.37
6760.39
6760.42
6760.45
6760.47
6760.5
6760.52
6760.54
6760.57
6760.59
6760.61
6760.63
6760.65
6760.67
6760.69
6760.71
6760.72
6760.74
6760.76
6760.78
6760.79
6760.81
6760.82
6760.84
6760.85
6760.86
6760.88
6760.89
6760.9
6760.91
6760.93
6760.94
6760.95
6760.96
6760.97
6760.98
6760.99
6761
6761.01
6761.01
6761.02
6761.03
6761.04
6761.04
6761.05
6761.06
6761.06
6761.07
6761.08
6761.08
6761.09
6761.09
6761.1
6761.1
6761.11
6761.11
6761.12
6761.12
6761.12
6761.13
6761.13
6761.13
6761.14
6761.14
6761.14
6761.14
6761.15
6761.15
6761.15
6761.15
6761.15
6761.16
6761.16
6761.16
6761.16
6761.16
6761.16
6761.16
6761.16
6761.16
6761.17
6761.17
6761.17
6761.17
6761.17
6761.17
6761.17
6761.17
6761.17
6761.17
6761.17
6761.17
6761.17
6761.17
6761.17
6761.17
6761.17
6761.16
6761.16
6761.16
6761.16
6761.16
6761.16
6761.16
6761.16
6761.16
6761.16
6761.16
6761.16
6761.16
6761.16
6761.16
6761.16
6761.16
6761.16
6761.16
6761.16
6761.15
6761.15
6761.15
6761.15
6761.15
6761.15
6761.15
6761.15
6761.15
6761.15
6761.15
6761.15
6761.15
6761.15
6761.14
6761.14
6761.14
6761.14
6761.14
6761.14
6761.14
6761.14
6761.14
6761.14
6761.14
6761.14
6761.14
6761.13
6761.13
6761.13
6761.13
6761.13
6761.13
6761.13
6761.13
6761.13
6761.13
6761.13
6761.13
6761.12
6761.12
6761.12
6761.12
6761.12
6761.12
6761.12
6761.12
6761.12
6761.12
6761.12
6761.11
6761.11
6761.11
6761.11
6761.11
6761.11
6761.11
6761.11
6761.11
6761.11
6761.11
6761.1
6761.1
6761.1
6761.1
6761.1
6761.1
6761.1
6318.03
6323.14
6327.35
6331.6
6335.76
6339.92
6344.07
6348.19
6352.28
6356.36
6360.4
6364.4
6368.36
6372.29
6376.17
6380.01
6383.79
6387.52
6391.2
6394.82
6398.38
6401.88
6405.32
6408.69
6412
6415.24
6418.4
6421.5
6424.52
6427.48
6430.36
6433.17
6435.9
6438.55
6441.12
6443.61
6446.03
6448.38
6450.64
6452.84
6454.95
6457
6458.97
6460.86
6462.68
6464.42
6466.1
6467.7
6469.22
6470.67
6472.06
6473.37
6474.62
6475.79
6476.91
6477.96
6478.94
6479.87
6480.73
6481.54
6482.28
6482.97
6483.61
6484.19
6484.72
6485.19
6485.63
6486.01
6486.35
6486.65
6486.91
6487.12
6487.3
6487.45
6487.55
6487.63
6487.68
6487.7
6487.7
6487.67
6487.62
6487.55
6487.45
6487.33
6487.19
6487.04
6486.86
6486.67
6486.45
6486.23
6485.99
6485.75
6485.48
6485.21
6484.95
6484.69
6484.43
6484.06
6483.38
6483.07
6482.64
6482.2
6481.8
6481.34
6480.9
6480.49
6480.08
6479.66
6479.25
6478.84
6478.45
6478.06
6477.69
6477.35
6477
6476.64
6476.33
6475.92
6475.66
6475.53
6475.32
6475.14
6474.97
6474.81
6474.69
6474.6
6474.53
6474.48
6474.45
6474.46
6474.51
6474.57
6474.64
6474.72
6474.84
6474.86
6475.07
6475.44
6475.7
6476.01
6476.33
6476.66
6477.03
6477.44
6477.86
6478.3
6478.75
6479.23
6479.73
6480.24
6480.77
6481.31
6481.87
6482.44
6483.03
6483.63
6484.24
6484.86
6485.49
6486.13
6486.79
6487.45
6488.13
6488.82
6489.51
6490.22
6490.94
6491.66
6492.4
6493.14
6493.9
6494.66
6495.42
6496.2
6496.98
6497.76
6498.55
6499.34
6500.14
6500.94
6501.74
6502.54
6503.35
6504.15
6504.95
6505.76
6506.56
6507.36
6508.16
6508.95
6509.75
6510.54
6511.33
6512.11
6512.89
6513.67
6514.44
6515.21
6515.97
6516.73
6517.49
6518.24
6518.98
6519.72
6520.46
6521.19
6521.91
6522.63
6523.35
6524.05
6524.76
6525.45
6526.14
6526.82
6527.5
6528.17
6528.83
6529.49
6530.14
6530.78
6531.41
6532.04
6532.66
6533.27
6533.88
6534.47
6535.06
6535.65
6536.22
6536.79
6537.34
6537.9
6538.44
6538.97
6539.5
6540.02
6540.53
6541.04
6541.53
6542.02
6542.5
6542.98
6543.44
6543.9
6544.35
6544.79
6545.23
6545.66
6546.08
6546.49
6546.9
6547.3
6547.69
6548.07
6548.45
6548.82
6549.19
6549.54
6549.89
6550.24
6550.57
6550.9
6551.23
6551.55
6551.86
6552.16
6552.46
6552.76
6553.04
6553.32
6553.6
6553.87
6554.14
6554.39
6554.65
6554.9
6555.14
6555.38
6555.61
6555.84
6556.06
6556.28
6556.49
6556.7
6556.91
6557.11
6557.3
6557.49
6557.68
6557.86
6558.04
6558.22
6558.39
6558.55
6558.72
6558.88
6559.03
6559.18
6559.33
6559.48
6559.62
6559.76
6559.89
6560.02
6560.15
6560.28
6560.4
6560.52
6560.64
6560.75
6560.86
6560.97
6561.08
6561.18
6561.29
6561.38
6561.48
6561.58
6561.67
6561.76
6561.84
6561.93
6562.01
6562.09
6562.17
6562.25
6562.33
6562.4
6562.47
6562.54
6562.61
6562.68
6562.74
6562.81
6562.87
6562.93
6562.99
6563.05
6563.1
6563.16
6563.21
6563.26
6563.31
6563.36
6563.41
6563.46
6563.5
6563.55
6563.59
6563.63
6563.67
6563.71
6563.75
6563.79
6563.83
6563.86
6563.9
6563.93
6563.97
6564
6564.03
6564.06
6564.09
6564.12
6564.15
6564.18
6564.2
6564.23
6564.26
6564.28
6564.31
6564.33
6564.35
6564.37
6564.4
6564.42
6564.44
6564.46
6564.48
6564.5
6564.51
6564.53
6564.55
6564.57
6564.58
6564.6
6564.61
6564.63
6564.64
6564.66
6564.67
6564.68
6564.7
6564.71
6564.72
6564.73