/*--------------------------------*- C++ -*----------------------------------*\
| =========                 |                                                 |
| \\      /  F ield         | OpenFOAM: The Open Source CFD Toolbox           |
|  \\    /   O peration     | Version:  v2006                                 |
|   \\  /    A nd           | Website:  www.openfoam.com                      |
|    \\/     M anipulation  |                                                 |
\*---------------------------------------------------------------------------*/
FoamFile
{
    version     2.0;
    format      ascii;
    class       volScalarField;
    location    "1.7";
    object      p_rgh;
}
// * * * * * * * * * * * * * * * * * * * * * * * * * * * * * * * * * * * * * //

dimensions      [1 -1 -2 0 0 0 0];


internalField   nonuniform List<scalar> 
33000
(
7593.46
7598.29
7602.29
7606.36
7610.37
7614.36
7618.34
7622.29
7626.23
7630.13
7634.01
7637.86
7641.67
7645.45
7649.19
7652.89
7656.55
7660.15
7663.71
7667.21
7670.66
7674.06
7677.41
7680.69
7683.91
7687.07
7690.16
7693.2
7696.16
7699.06
7701.89
7704.65
7707.35
7709.96
7712.5
7714.97
7717.39
7719.73
7721.98
7724.17
7726.28
7728.32
7730.31
7732.22
7734.05
7735.81
7737.52
7739.15
7740.7
7742.2
7743.62
7744.99
7746.29
7747.52
7748.69
7749.8
7750.84
7751.82
7752.75
7753.62
7754.43
7755.19
7755.9
7756.55
7757.16
7757.72
7758.23
7758.7
7759.12
7759.5
7759.84
7760.14
7760.41
7760.66
7760.86
7761.04
7761.19
7761.31
7761.41
7761.36
7761.5
7761.5
7761.5
7761.5
7761.43
7761.32
7761.21
7761.04
7760.87
7760.66
7760.45
7760.21
7759.94
7759.65
7759.36
7759.05
7758.7
7758.38
7757.98
7757.62
7757.3
7756.91
7756.54
7756.17
7755.79
7755.41
7755.04
7754.68
7754.32
7753.96
7753.62
7753.29
7752.96
7752.66
7752.34
7752.06
7751.72
7751.46
7751.31
7751.09
7750.91
7750.76
7750.61
7750.51
7750.43
7750.38
7750.35
7750.34
7750.36
7750.41
7750.49
7750.58
7750.7
7750.85
7751.03
7751.23
7751.45
7751.69
7751.97
7752.26
7752.58
7752.92
7753.28
7753.67
7754.08
7754.5
7754.95
7755.41
7755.89
7756.39
7756.91
7757.44
7757.98
7758.54
7759.11
7759.69
7760.29
7760.89
7761.51
7762.13
7762.77
7763.42
7764.07
7764.74
7765.42
7766.1
7766.8
7767.5
7768.21
7768.93
7769.66
7770.39
7771.14
7771.89
7772.64
7773.4
7774.17
7774.94
7775.72
7776.49
7777.27
7778.05
7778.84
7779.62
7780.4
7781.18
7781.96
7782.74
7783.52
7784.3
7785.07
7785.84
7786.61
7787.38
7788.14
7788.9
7789.66
7790.41
7791.16
7791.9
7792.65
7793.38
7794.12
7794.85
7795.57
7796.29
7797.01
7797.72
7798.42
7799.12
7799.82
7800.5
7801.19
7801.86
7802.53
7803.19
7803.85
7804.5
7805.14
7805.78
7806.4
7807.02
7807.64
7808.24
7808.84
7809.44
7810.02
7810.6
7811.17
7811.73
7812.29
7812.84
7813.38
7813.91
7814.43
7814.95
7815.46
7815.96
7816.46
7816.95
7817.43
7817.9
7818.37
7818.83
7819.28
7819.72
7820.16
7820.59
7821.01
7821.42
7821.83
7822.23
7822.63
7823.01
7823.39
7823.77
7824.13
7824.49
7824.85
7825.19
7825.53
7825.87
7826.2
7826.52
7826.83
7827.14
7827.45
7827.74
7828.03
7828.32
7828.6
7828.87
7829.14
7829.41
7829.66
7829.92
7830.16
7830.41
7830.64
7830.88
7831.1
7831.33
7831.54
7831.76
7831.97
7832.17
7832.37
7832.57
7832.76
7832.94
7833.13
7833.3
7833.48
7833.65
7833.82
7833.98
7834.14
7834.29
7834.45
7834.59
7834.74
7834.88
7835.02
7835.16
7835.29
7835.42
7835.54
7835.67
7835.79
7835.91
7836.02
7836.13
7836.24
7836.35
7836.46
7836.56
7836.66
7836.76
7836.85
7836.94
7837.03
7837.12
7837.21
7837.29
7837.37
7837.45
7837.53
7837.61
7837.68
7837.75
7837.83
7837.89
7837.96
7838.03
7838.09
7838.15
7838.21
7838.27
7838.33
7838.39
7838.44
7838.5
7838.55
7838.6
7838.65
7838.7
7838.74
7838.79
7838.83
7838.88
7838.92
7838.96
7839
7839.04
7839.08
7839.12
7839.15
7839.19
7839.22
7839.26
7839.29
7839.32
7839.35
7839.38
7839.41
7839.44
7839.47
7839.5
7839.52
7839.55
7839.57
7839.6
7839.62
7839.64
7839.67
7839.69
7839.71
7839.73
7839.75
7839.77
7839.79
7839.81
7839.82
7839.84
7839.86
7839.87
7839.89
7839.91
7839.92
7839.93
7839.95
7839.96
7839.98
7839.99
7840
7840.01
7840.02
7840.04
7840.05
7840.06
7840.07
7840.08
7840.09
7840.09
7840.1
7840.11
7840.12
7840.13
7840.13
7840.14
7840.15
7840.16
7840.16
7840.17
7840.17
7840.18
7840.18
7840.19
7840.19
7840.2
7840.2
7840.21
7840.21
7840.22
7840.22
7840.22
7840.23
7840.23
7840.23
7840.24
7840.24
7840.24
7840.24
7840.25
7840.25
7840.25
7840.25
7840.25
7840.25
7840.26
7840.26
7840.26
7840.26
7840.26
7840.26
7840.26
7840.26
7840.26
7840.26
7840.26
7840.26
7840.26
7840.26
7840.26
7840.26
7840.26
7840.26
7840.26
7840.26
7840.26
7840.26
7840.26
7840.26
7840.26
7840.26
7840.26
7840.26
7840.26
7840.26
7840.26
7840.26
7840.26
7840.26
7840.26
7840.26
7840.26
7840.26
7840.26
7840.26
7840.26
7840.25
7840.25
7840.25
7840.25
7840.25
7840.25
7840.25
7840.25
7840.25
7840.25
7840.25
7840.25
7840.25
7840.25
7840.25
7840.25
7840.24
7840.24
7840.24
7840.24
7840.24
7840.24
7840.24
7840.24
7840.24
7840.24
7840.24
7840.24
7840.24
7840.24
7840.24
7840.23
7840.23
7840.23
7840.23
7840.23
7840.23
7840.23
7840.23
7840.23
7840.23
7840.23
7840.23
7840.22
7840.22
7840.22
7840.22
7840.22
7840.22
7840.22
7840.22
7840.22
7840.22
7840.22
7840.21
7840.21
7840.21
7840.21
7840.21
7840.21
7840.21
7840.21
7840.21
7840.21
7840.2
7840.2
7840.2
7840.2
7840.2
7840.2
7593.84
7598.74
7602.71
7606.72
7610.68
7614.63
7618.57
7622.49
7626.41
7630.3
7634.16
7638
7641.81
7645.58
7649.31
7653.01
7656.66
7660.26
7663.82
7667.3
7670.74
7674.15
7677.55
7680.79
7683.99
7687.14
7690.24
7693.29
7696.28
7699.14
7701.97
7704.76
7707.47
7710.04
7712.59
7715.07
7717.52
7719.88
7722.07
7724.26
7726.37
7728.42
7730.46
7732.38
7734.18
7735.94
7737.66
7739.3
7740.84
7742.32
7743.76
7745.14
7746.43
7747.66
7748.81
7749.91
7750.97
7751.93
7752.84
7753.7
7754.54
7755.32
7755.99
7756.63
7757.23
7757.8
7758.33
7758.76
7759.18
7759.57
7759.89
7760.19
7760.46
7760.73
7760.89
7761.05
7761.22
7761.37
7761.48
7761.58
7761.63
7761.65
7761.46
7761.52
7761.44
7761.38
7761.27
7761.09
7760.9
7760.67
7760.47
7760.25
7759.99
7759.69
7759.37
7759.06
7758.75
7758.42
7758.03
7757.65
7757.31
7756.84
7756.47
7756.16
7755.8
7755.41
7755.02
7754.67
7754.28
7753.91
7753.58
7753.25
7752.93
7752.63
7752.34
7752.06
7751.76
7751.49
7751.28
7750.98
7750.78
7750.7
7750.57
7750.47
7750.38
7750.32
7750.29
7750.28
7750.3
7750.35
7750.44
7750.52
7750.64
7750.78
7750.97
7751.18
7751.38
7751.63
7751.9
7752.21
7752.52
7752.86
7753.22
7753.61
7754.01
7754.44
7754.89
7755.36
7755.84
7756.34
7756.85
7757.38
7757.93
7758.5
7759.06
7759.64
7760.24
7760.85
7761.47
7762.09
7762.73
7763.38
7764.04
7764.7
7765.38
7766.06
7766.76
7767.46
7768.18
7768.9
7769.63
7770.36
7771.11
7771.86
7772.61
7773.38
7774.15
7774.92
7775.69
7776.47
7777.25
7778.04
7778.82
7779.6
7780.39
7781.17
7781.95
7782.73
7783.51
7784.29
7785.06
7785.84
7786.61
7787.37
7788.14
7788.9
7789.65
7790.41
7791.16
7791.9
7792.65
7793.39
7794.12
7794.85
7795.58
7796.3
7797.01
7797.72
7798.43
7799.13
7799.82
7800.51
7801.19
7801.87
7802.54
7803.2
7803.86
7804.51
7805.15
7805.79
7806.41
7807.04
7807.65
7808.26
7808.86
7809.45
7810.03
7810.61
7811.18
7811.75
7812.3
7812.85
7813.39
7813.92
7814.45
7814.97
7815.48
7815.98
7816.48
7816.96
7817.44
7817.92
7818.38
7818.84
7819.29
7819.74
7820.17
7820.6
7821.02
7821.44
7821.85
7822.25
7822.64
7823.03
7823.41
7823.78
7824.15
7824.51
7824.86
7825.21
7825.55
7825.88
7826.21
7826.53
7826.85
7827.16
7827.46
7827.76
7828.05
7828.33
7828.61
7828.89
7829.16
7829.42
7829.68
7829.93
7830.18
7830.42
7830.66
7830.89
7831.12
7831.34
7831.56
7831.77
7831.98
7832.18
7832.38
7832.58
7832.77
7832.95
7833.14
7833.31
7833.49
7833.66
7833.82
7833.99
7834.15
7834.3
7834.45
7834.6
7834.75
7834.89
7835.03
7835.16
7835.3
7835.43
7835.55
7835.68
7835.8
7835.91
7836.03
7836.14
7836.25
7836.36
7836.46
7836.56
7836.66
7836.76
7836.86
7836.95
7837.04
7837.13
7837.21
7837.3
7837.38
7837.46
7837.54
7837.61
7837.69
7837.76
7837.83
7837.9
7837.97
7838.03
7838.1
7838.16
7838.22
7838.28
7838.34
7838.39
7838.45
7838.5
7838.55
7838.6
7838.65
7838.7
7838.75
7838.79
7838.84
7838.88
7838.92
7838.96
7839
7839.04
7839.08
7839.12
7839.16
7839.19
7839.23
7839.26
7839.29
7839.32
7839.35
7839.38
7839.41
7839.44
7839.47
7839.5
7839.52
7839.55
7839.57
7839.6
7839.62
7839.65
7839.67
7839.69
7839.71
7839.73
7839.75
7839.77
7839.79
7839.81
7839.83
7839.84
7839.86
7839.88
7839.89
7839.91
7839.92
7839.94
7839.95
7839.96
7839.98
7839.99
7840
7840.01
7840.02
7840.04
7840.05
7840.06
7840.07
7840.08
7840.09
7840.1
7840.1
7840.11
7840.12
7840.13
7840.14
7840.14
7840.15
7840.16
7840.16
7840.17
7840.17
7840.18
7840.19
7840.19
7840.2
7840.2
7840.2
7840.21
7840.21
7840.22
7840.22
7840.22
7840.23
7840.23
7840.23
7840.24
7840.24
7840.24
7840.24
7840.25
7840.25
7840.25
7840.25
7840.25
7840.25
7840.26
7840.26
7840.26
7840.26
7840.26
7840.26
7840.26
7840.26
7840.26
7840.26
7840.26
7840.26
7840.26
7840.26
7840.26
7840.26
7840.26
7840.26
7840.26
7840.26
7840.26
7840.26
7840.26
7840.26
7840.26
7840.26
7840.26
7840.26
7840.26
7840.26
7840.26
7840.26
7840.26
7840.26
7840.26
7840.26
7840.26
7840.26
7840.26
7840.26
7840.25
7840.25
7840.25
7840.25
7840.25
7840.25
7840.25
7840.25
7840.25
7840.25
7840.25
7840.25
7840.25
7840.25
7840.25
7840.25
7840.25
7840.24
7840.24
7840.24
7840.24
7840.24
7840.24
7840.24
7840.24
7840.24
7840.24
7840.24
7840.24
7840.24
7840.24
7840.24
7840.23
7840.23
7840.23
7840.23
7840.23
7840.23
7840.23
7840.23
7840.23
7840.23
7840.23
7840.23
7840.22
7840.22
7840.22
7840.22
7840.22
7840.22
7840.22
7840.22
7840.22
7840.22
7840.22
7840.21
7840.21
7840.21
7840.21
7840.21
7840.21
7840.21
7840.21
7840.21
7840.21
7840.21
7840.2
7840.2
7840.2
7840.2
7840.2
7593.01
7598.11
7602.22
7606.3
7610.36
7614.41
7618.44
7622.44
7626.41
7630.35
7634.25
7638.13
7641.97
7645.77
7649.53
7653.25
7656.92
7660.54
7664.11
7667.62
7671.09
7674.5
7677.85
7681.14
7684.37
7687.53
7690.62
7693.65
7696.63
7699.47
7702.26
7705.03
7707.83
7710.53
7713.04
7715.43
7717.84
7720.18
7722.54
7724.76
7726.8
7728.79
7730.84
7732.81
7734.64
7736.32
7738
7739.62
7741.18
7742.69
7744.13
7745.47
7746.75
7747.98
7749.15
7750.24
7751.29
7752.26
7753.13
7753.98
7754.82
7755.59
7756.21
7756.84
7757.44
7758.06
7758.58
7759.03
7759.44
7759.75
7760.07
7760.43
7760.7
7760.91
7761.1
7761.25
7761.37
7761.43
7761.54
7761.65
7761.69
7761.72
7761.74
7761.75
7761.73
7761.44
7761.35
7761.08
7761
7760.8
7760.6
7760.34
7760.04
7759.75
7759.46
7759.14
7758.81
7758.45
7758.08
7757.72
7757.36
7756.98
7756.56
7756.16
7755.72
7755.33
7755.01
7754.64
7754.3
7753.94
7753.59
7753.24
7752.91
7752.6
7752.31
7752.04
7751.76
7751.49
7751.26
7751.06
7750.85
7750.67
7750.41
7750.3
7750.31
7750.24
7750.22
7750.21
7750.21
7750.25
7750.34
7750.44
7750.56
7750.71
7750.88
7751.07
7751.29
7751.54
7751.82
7752.11
7752.42
7752.77
7753.14
7753.52
7753.93
7754.36
7754.81
7755.27
7755.75
7756.26
7756.77
7757.3
7757.85
7758.42
7758.99
7759.57
7760.17
7760.78
7761.4
7762.03
7762.67
7763.32
7763.98
7764.64
7765.32
7766.01
7766.71
7767.41
7768.13
7768.85
7769.58
7770.32
7771.07
7771.82
7772.58
7773.35
7774.12
7774.89
7775.67
7776.45
7777.23
7778.02
7778.8
7779.59
7780.37
7781.16
7781.95
7782.73
7783.51
7784.29
7785.06
7785.84
7786.61
7787.38
7788.14
7788.91
7789.66
7790.42
7791.17
7791.92
7792.66
7793.4
7794.14
7794.87
7795.6
7796.32
7797.03
7797.75
7798.45
7799.15
7799.85
7800.54
7801.22
7801.9
7802.57
7803.23
7803.89
7804.54
7805.18
7805.82
7806.45
7807.07
7807.69
7808.29
7808.89
7809.49
7810.07
7810.65
7811.22
7811.78
7812.34
7812.89
7813.43
7813.96
7814.49
7815.01
7815.52
7816.02
7816.51
7817
7817.48
7817.95
7818.42
7818.88
7819.33
7819.77
7820.21
7820.64
7821.06
7821.47
7821.88
7822.28
7822.68
7823.06
7823.44
7823.82
7824.18
7824.54
7824.89
7825.24
7825.58
7825.91
7826.24
7826.56
7826.88
7827.19
7827.49
7827.79
7828.08
7828.36
7828.64
7828.92
7829.18
7829.45
7829.7
7829.96
7830.2
7830.45
7830.68
7830.91
7831.14
7831.36
7831.58
7831.79
7832
7832.2
7832.4
7832.6
7832.79
7832.97
7833.16
7833.33
7833.51
7833.68
7833.85
7834.01
7834.17
7834.32
7834.47
7834.62
7834.77
7834.91
7835.05
7835.18
7835.31
7835.44
7835.57
7835.69
7835.81
7835.93
7836.04
7836.16
7836.26
7836.37
7836.48
7836.58
7836.68
7836.77
7836.87
7836.96
7837.05
7837.14
7837.22
7837.31
7837.39
7837.47
7837.55
7837.62
7837.7
7837.77
7837.84
7837.91
7837.97
7838.04
7838.1
7838.17
7838.23
7838.29
7838.34
7838.4
7838.45
7838.51
7838.56
7838.61
7838.66
7838.71
7838.75
7838.8
7838.84
7838.89
7838.93
7838.97
7839.01
7839.05
7839.09
7839.12
7839.16
7839.2
7839.23
7839.26
7839.3
7839.33
7839.36
7839.39
7839.42
7839.45
7839.47
7839.5
7839.53
7839.55
7839.58
7839.6
7839.63
7839.65
7839.67
7839.69
7839.71
7839.73
7839.75
7839.77
7839.79
7839.81
7839.83
7839.85
7839.86
7839.88
7839.89
7839.91
7839.92
7839.94
7839.95
7839.97
7839.98
7839.99
7840
7840.02
7840.03
7840.04
7840.05
7840.06
7840.07
7840.08
7840.09
7840.1
7840.11
7840.11
7840.12
7840.13
7840.14
7840.14
7840.15
7840.16
7840.16
7840.17
7840.18
7840.18
7840.19
7840.19
7840.2
7840.2
7840.21
7840.21
7840.21
7840.22
7840.22
7840.22
7840.23
7840.23
7840.23
7840.24
7840.24
7840.24
7840.24
7840.25
7840.25
7840.25
7840.25
7840.25
7840.26
7840.26
7840.26
7840.26
7840.26
7840.26
7840.26
7840.26
7840.26
7840.26
7840.26
7840.26
7840.26
7840.27
7840.27
7840.27
7840.27
7840.27
7840.27
7840.26
7840.26
7840.26
7840.26
7840.26
7840.26
7840.26
7840.26
7840.26
7840.26
7840.26
7840.26
7840.26
7840.26
7840.26
7840.26
7840.26
7840.26
7840.26
7840.26
7840.26
7840.26
7840.26
7840.25
7840.25
7840.25
7840.25
7840.25
7840.25
7840.25
7840.25
7840.25
7840.25
7840.25
7840.25
7840.25
7840.25
7840.25
7840.25
7840.24
7840.24
7840.24
7840.24
7840.24
7840.24
7840.24
7840.24
7840.24
7840.24
7840.24
7840.24
7840.24
7840.24
7840.24
7840.23
7840.23
7840.23
7840.23
7840.23
7840.23
7840.23
7840.23
7840.23
7840.23
7840.23
7840.23
7840.22
7840.22
7840.22
7840.22
7840.22
7840.22
7840.22
7840.22
7840.22
7840.22
7840.22
7840.21
7840.21
7840.21
7840.21
7840.21
7840.21
7840.21
7840.21
7840.21
7840.21
7840.2
7840.2
7840.2
7840.2
7840.2
7840.2
7593.67
7598.57
7602.61
7606.7
7610.75
7614.79
7618.8
7622.79
7626.77
7630.72
7634.63
7638.51
7642.36
7646.17
7649.94
7653.67
7657.35
7660.99
7664.57
7668.1
7671.58
7675
7678.37
7681.67
7684.91
7688.09
7691.19
7694.22
7697.18
7700.08
7702.9
7705.66
7708.36
7711.05
7713.64
7716.12
7718.53
7720.88
7723.15
7725.34
7727.45
7729.49
7731.46
7733.36
7735.17
7736.91
7738.59
7740.19
7741.73
7743.19
7744.6
7745.96
7747.28
7748.5
7749.62
7750.75
7751.77
7752.65
7753.55
7754.43
7755.28
7755.89
7756.57
7757.21
7757.85
7758.32
7758.8
7759.29
7759.77
7760.15
7760.4
7760.65
7760.91
7761.17
7761.35
7761.47
7761.52
7761.61
7761.68
7761.8
7761.7
7761.69
7761.73
7761.76
7761.72
7761.62
7761.49
7761.42
7761.25
7760.87
7760.72
7760.39
7760.18
7759.92
7759.57
7759.2
7758.86
7758.51
7758.19
7757.82
7757.4
7756.99
7756.6
7756.26
7755.86
7755.43
7755
7754.65
7754.22
7753.8
7753.53
7753.22
7752.93
7752.58
7752.25
7751.97
7751.73
7751.47
7751.21
7750.98
7750.81
7750.64
7750.47
7750.34
7750.22
7750.02
7749.96
7750.06
7750.09
7750.14
7750.19
7750.27
7750.4
7750.56
7750.74
7750.92
7751.14
7751.4
7751.67
7751.96
7752.27
7752.63
7752.99
7753.36
7753.78
7754.21
7754.66
7755.12
7755.6
7756.11
7756.63
7757.17
7757.72
7758.28
7758.86
7759.45
7760.05
7760.66
7761.28
7761.91
7762.55
7763.2
7763.87
7764.54
7765.21
7765.9
7766.61
7767.32
7768.03
7768.75
7769.5
7770.24
7770.99
7771.73
7772.51
7773.28
7774.05
7774.82
7775.61
7776.4
7777.18
7777.97
7778.76
7779.55
7780.34
7781.12
7781.91
7782.7
7783.48
7784.26
7785.04
7785.82
7786.59
7787.36
7788.13
7788.9
7789.66
7790.42
7791.17
7791.92
7792.67
7793.41
7794.15
7794.88
7795.61
7796.33
7797.05
7797.76
7798.47
7799.17
7799.87
7800.56
7801.24
7801.92
7802.59
7803.26
7803.91
7804.56
7805.21
7805.85
7806.48
7807.1
7807.72
7808.33
7808.93
7809.52
7810.11
7810.69
7811.26
7811.82
7812.38
7812.93
7813.47
7814
7814.53
7815.04
7815.56
7816.06
7816.56
7817.04
7817.53
7818
7818.47
7818.92
7819.37
7819.82
7820.25
7820.68
7821.1
7821.52
7821.93
7822.33
7822.72
7823.11
7823.49
7823.86
7824.23
7824.59
7824.94
7825.28
7825.62
7825.96
7826.29
7826.61
7826.92
7827.23
7827.53
7827.83
7828.12
7828.4
7828.68
7828.96
7829.22
7829.49
7829.74
7829.99
7830.24
7830.48
7830.72
7830.95
7831.17
7831.4
7831.61
7831.82
7832.03
7832.24
7832.43
7832.63
7832.82
7833
7833.19
7833.36
7833.54
7833.71
7833.87
7834.03
7834.19
7834.35
7834.5
7834.65
7834.79
7834.93
7835.07
7835.2
7835.33
7835.46
7835.59
7835.71
7835.83
7835.95
7836.06
7836.17
7836.28
7836.39
7836.49
7836.59
7836.69
7836.79
7836.88
7836.98
7837.07
7837.15
7837.24
7837.32
7837.4
7837.48
7837.56
7837.64
7837.71
7837.78
7837.85
7837.92
7837.99
7838.05
7838.11
7838.18
7838.24
7838.3
7838.35
7838.41
7838.46
7838.52
7838.57
7838.62
7838.67
7838.71
7838.76
7838.81
7838.85
7838.89
7838.94
7838.98
7839.02
7839.06
7839.09
7839.13
7839.17
7839.2
7839.24
7839.27
7839.3
7839.33
7839.36
7839.39
7839.42
7839.45
7839.48
7839.51
7839.53
7839.56
7839.58
7839.61
7839.63
7839.65
7839.68
7839.7
7839.72
7839.74
7839.76
7839.78
7839.8
7839.81
7839.83
7839.85
7839.87
7839.88
7839.9
7839.91
7839.93
7839.94
7839.96
7839.97
7839.98
7839.99
7840.01
7840.02
7840.03
7840.04
7840.05
7840.06
7840.07
7840.08
7840.09
7840.1
7840.11
7840.12
7840.12
7840.13
7840.14
7840.15
7840.15
7840.16
7840.17
7840.17
7840.18
7840.18
7840.19
7840.19
7840.2
7840.2
7840.21
7840.21
7840.21
7840.22
7840.22
7840.23
7840.23
7840.23
7840.24
7840.24
7840.24
7840.24
7840.25
7840.25
7840.25
7840.25
7840.25
7840.25
7840.26
7840.26
7840.26
7840.26
7840.26
7840.26
7840.26
7840.26
7840.26
7840.26
7840.26
7840.27
7840.27
7840.27
7840.27
7840.27
7840.27
7840.27
7840.27
7840.27
7840.27
7840.26
7840.26
7840.26
7840.26
7840.26
7840.26
7840.26
7840.26
7840.26
7840.26
7840.26
7840.26
7840.26
7840.26
7840.26
7840.26
7840.26
7840.26
7840.26
7840.26
7840.26
7840.25
7840.25
7840.25
7840.25
7840.25
7840.25
7840.25
7840.25
7840.25
7840.25
7840.25
7840.25
7840.25
7840.25
7840.25
7840.25
7840.24
7840.24
7840.24
7840.24
7840.24
7840.24
7840.24
7840.24
7840.24
7840.24
7840.24
7840.24
7840.24
7840.24
7840.24
7840.23
7840.23
7840.23
7840.23
7840.23
7840.23
7840.23
7840.23
7840.23
7840.23
7840.23
7840.23
7840.22
7840.22
7840.22
7840.22
7840.22
7840.22
7840.22
7840.22
7840.22
7840.22
7840.22
7840.21
7840.21
7840.21
7840.21
7840.21
7840.21
7840.21
7840.21
7840.21
7840.21
7840.2
7840.2
7840.2
7840.2
7840.2
7840.2
7593.39
7598.44
7602.59
7606.76
7610.86
7614.94
7619
7623.04
7627.05
7631.03
7634.98
7638.89
7642.77
7646.61
7650.42
7654.18
7657.9
7661.57
7665.19
7668.74
7672.25
7675.7
7679.08
7682.41
7685.68
7688.88
7692.01
7695.06
7698.04
7700.95
7703.78
7706.55
7709.24
7711.87
7714.44
7716.94
7719.36
7721.71
7723.97
7726.17
7728.28
7730.32
7732.28
7734.17
7735.99
7737.73
7739.4
7741
7742.53
7743.97
7745.36
7746.74
7748.03
7749.21
7750.33
7751.42
7752.42
7753.34
7754.21
7755.05
7755.84
7756.55
7757.15
7757.71
7758.35
7758.91
7759.36
7759.76
7760.19
7760.58
7760.82
7761.02
7761.24
7761.42
7761.63
7761.83
7761.88
7762.02
7761.98
7761.89
7761.89
7761.86
7761.85
7761.9
7761.81
7761.62
7761.52
7761.5
7761.4
7761.2
7760.99
7760.75
7760.2
7760.09
7759.77
7759.44
7759.09
7758.66
7758.26
7757.92
7757.57
7757.11
7756.72
7756.36
7755.88
7755.47
7755.1
7754.76
7754.41
7753.92
7753.52
7753.11
7752.81
7752.58
7752.22
7751.93
7751.64
7751.42
7751.18
7750.93
7750.71
7750.53
7750.41
7750.28
7750.15
7750.06
7749.98
7749.92
7749.78
7749.81
7749.99
7750.11
7750.23
7750.35
7750.51
7750.72
7750.95
7751.18
7751.43
7751.73
7752.05
7752.4
7752.8
7753.15
7753.56
7753.99
7754.44
7754.92
7755.43
7755.91
7756.43
7756.97
7757.52
7758.08
7758.66
7759.26
7759.87
7760.48
7761.1
7761.74
7762.39
7763.04
7763.7
7764.38
7765.07
7765.76
7766.46
7767.18
7767.9
7768.63
7769.37
7770.12
7770.88
7771.64
7772.4
7773.18
7773.95
7774.74
7775.52
7776.31
7777.1
7777.89
7778.68
7779.48
7780.27
7781.06
7781.86
7782.65
7783.43
7784.22
7785
7785.79
7786.56
7787.34
7788.11
7788.88
7789.65
7790.41
7791.16
7791.92
7792.67
7793.41
7794.15
7794.88
7795.61
7796.34
7797.06
7797.78
7798.49
7799.19
7799.89
7800.58
7801.26
7801.94
7802.62
7803.28
7803.94
7804.6
7805.24
7805.88
7806.51
7807.14
7807.75
7808.37
7808.97
7809.56
7810.15
7810.73
7811.3
7811.87
7812.43
7812.98
7813.52
7814.05
7814.58
7815.1
7815.61
7816.12
7816.61
7817.1
7817.58
7818.06
7818.52
7818.98
7819.43
7819.88
7820.31
7820.74
7821.17
7821.58
7821.99
7822.39
7822.78
7823.17
7823.55
7823.92
7824.29
7824.65
7825
7825.34
7825.68
7826.02
7826.34
7826.66
7826.98
7827.28
7827.59
7827.88
7828.17
7828.46
7828.73
7829.01
7829.27
7829.54
7829.79
7830.04
7830.29
7830.53
7830.76
7830.99
7831.22
7831.44
7831.66
7831.87
7832.07
7832.28
7832.47
7832.67
7832.86
7833.04
7833.22
7833.4
7833.57
7833.74
7833.91
7834.07
7834.23
7834.38
7834.53
7834.68
7834.82
7834.96
7835.1
7835.23
7835.36
7835.49
7835.62
7835.74
7835.86
7835.97
7836.09
7836.2
7836.31
7836.41
7836.52
7836.62
7836.72
7836.81
7836.91
7837
7837.09
7837.17
7837.26
7837.34
7837.42
7837.5
7837.58
7837.65
7837.73
7837.8
7837.87
7837.94
7838
7838.07
7838.13
7838.19
7838.25
7838.31
7838.37
7838.42
7838.48
7838.53
7838.58
7838.63
7838.68
7838.73
7838.77
7838.82
7838.86
7838.9
7838.95
7838.99
7839.03
7839.07
7839.1
7839.14
7839.18
7839.21
7839.24
7839.28
7839.31
7839.34
7839.37
7839.4
7839.43
7839.46
7839.49
7839.51
7839.54
7839.56
7839.59
7839.61
7839.64
7839.66
7839.68
7839.7
7839.72
7839.74
7839.76
7839.78
7839.8
7839.82
7839.84
7839.85
7839.87
7839.89
7839.9
7839.92
7839.93
7839.95
7839.96
7839.97
7839.99
7840
7840.01
7840.02
7840.03
7840.04
7840.05
7840.06
7840.07
7840.08
7840.09
7840.1
7840.11
7840.12
7840.13
7840.13
7840.14
7840.15
7840.16
7840.16
7840.17
7840.17
7840.18
7840.18
7840.19
7840.19
7840.2
7840.2
7840.21
7840.21
7840.22
7840.22
7840.22
7840.23
7840.23
7840.23
7840.24
7840.24
7840.24
7840.24
7840.25
7840.25
7840.25
7840.25
7840.25
7840.26
7840.26
7840.26
7840.26
7840.26
7840.26
7840.26
7840.26
7840.26
7840.26
7840.27
7840.27
7840.27
7840.27
7840.27
7840.27
7840.27
7840.27
7840.27
7840.27
7840.27
7840.27
7840.27
7840.26
7840.26
7840.26
7840.26
7840.26
7840.26
7840.26
7840.26
7840.26
7840.26
7840.26
7840.26
7840.26
7840.26
7840.26
7840.26
7840.26
7840.26
7840.26
7840.26
7840.25
7840.25
7840.25
7840.25
7840.25
7840.25
7840.25
7840.25
7840.25
7840.25
7840.25
7840.25
7840.25
7840.25
7840.25
7840.25
7840.24
7840.24
7840.24
7840.24
7840.24
7840.24
7840.24
7840.24
7840.24
7840.24
7840.24
7840.24
7840.24
7840.24
7840.24
7840.23
7840.23
7840.23
7840.23
7840.23
7840.23
7840.23
7840.23
7840.23
7840.23
7840.23
7840.23
7840.22
7840.22
7840.22
7840.22
7840.22
7840.22
7840.22
7840.22
7840.22
7840.22
7840.22
7840.21
7840.21
7840.21
7840.21
7840.21
7840.21
7840.21
7840.21
7840.21
7840.21
7840.2
7840.2
7840.2
7840.2
7840.2
7840.2
7593.42
7598.53
7602.73
7606.92
7611.04
7615.15
7619.24
7623.29
7627.33
7631.35
7635.33
7639.28
7643.2
7647.08
7650.92
7654.73
7658.49
7662.19
7665.85
7669.44
7672.98
7676.46
7679.87
7683.22
7686.52
7689.74
7692.9
7695.98
7698.99
7701.91
7704.74
7707.5
7710.18
7712.79
7715.34
7717.81
7720.22
7722.56
7724.83
7727.02
7729.14
7731.18
7733.15
7735.04
7736.87
7738.62
7740.29
7741.9
7743.42
7744.87
7746.26
7747.61
7748.87
7750.06
7751.18
7752.24
7753.23
7754.16
7755.03
7755.85
7756.61
7757.29
7757.91
7758.51
7759.09
7759.61
7760.06
7760.45
7760.83
7761.18
7761.46
7761.69
7761.82
7761.93
7762.17
7762.31
7762.39
7762.43
7762.39
7762.27
7762.39
7762.39
7762.31
7762.14
7762.01
7761.91
7761.82
7761.64
7761.48
7761.31
7761.12
7760.94
7760.71
7760.44
7760.17
7759.6
7759.37
7758.97
7758.54
7758.13
7757.71
7757.33
7756.92
7756.49
7756.05
7755.64
7755.26
7754.87
7754.44
7754.01
7753.67
7753.33
7752.94
7752.55
7752.08
7751.83
7751.65
7751.35
7751.11
7750.88
7750.67
7750.48
7750.31
7750.17
7750.07
7749.95
7749.87
7749.84
7749.84
7749.82
7749.83
7749.76
7749.88
7750.14
7750.31
7750.51
7750.73
7750.97
7751.21
7751.5
7751.84
7752.19
7752.55
7752.93
7753.34
7753.77
7754.23
7754.7
7755.19
7755.7
7756.23
7756.77
7757.33
7757.9
7758.48
7759.08
7759.68
7760.3
7760.93
7761.57
7762.22
7762.88
7763.55
7764.23
7764.93
7765.63
7766.33
7767.05
7767.79
7768.52
7769.27
7770.02
7770.78
7771.55
7772.32
7773.1
7773.88
7774.67
7775.46
7776.25
7777.05
7777.84
7778.64
7779.44
7780.24
7781.04
7781.83
7782.63
7783.42
7784.21
7785
7785.79
7786.57
7787.35
7788.13
7788.9
7789.67
7790.43
7791.2
7791.95
7792.7
7793.45
7794.19
7794.93
7795.66
7796.39
7797.12
7797.83
7798.54
7799.25
7799.95
7800.64
7801.33
7802.01
7802.69
7803.35
7804.02
7804.67
7805.32
7805.96
7806.59
7807.21
7807.83
7808.44
7809.05
7809.64
7810.23
7810.81
7811.39
7811.95
7812.51
7813.06
7813.61
7814.14
7814.67
7815.19
7815.7
7816.21
7816.7
7817.19
7817.67
7818.14
7818.61
7819.07
7819.52
7819.97
7820.4
7820.83
7821.25
7821.67
7822.07
7822.47
7822.87
7823.25
7823.63
7824
7824.37
7824.73
7825.08
7825.43
7825.76
7826.1
7826.42
7826.74
7827.05
7827.36
7827.66
7827.96
7828.24
7828.53
7828.8
7829.08
7829.34
7829.6
7829.86
7830.11
7830.35
7830.59
7830.83
7831.06
7831.28
7831.5
7831.72
7831.93
7832.13
7832.33
7832.53
7832.72
7832.91
7833.09
7833.27
7833.45
7833.62
7833.79
7833.95
7834.11
7834.27
7834.42
7834.57
7834.72
7834.86
7835
7835.14
7835.27
7835.4
7835.53
7835.66
7835.78
7835.89
7836.01
7836.12
7836.23
7836.34
7836.45
7836.55
7836.65
7836.75
7836.84
7836.93
7837.03
7837.11
7837.2
7837.28
7837.37
7837.45
7837.53
7837.6
7837.68
7837.75
7837.82
7837.89
7837.96
7838.02
7838.09
7838.15
7838.21
7838.27
7838.33
7838.38
7838.44
7838.49
7838.54
7838.6
7838.65
7838.69
7838.74
7838.79
7838.83
7838.88
7838.92
7838.96
7839
7839.04
7839.08
7839.11
7839.15
7839.19
7839.22
7839.26
7839.29
7839.32
7839.35
7839.38
7839.41
7839.44
7839.47
7839.5
7839.52
7839.55
7839.57
7839.6
7839.62
7839.64
7839.67
7839.69
7839.71
7839.73
7839.75
7839.77
7839.79
7839.81
7839.83
7839.84
7839.86
7839.88
7839.89
7839.91
7839.92
7839.94
7839.95
7839.96
7839.98
7839.99
7840
7840.02
7840.03
7840.04
7840.05
7840.06
7840.07
7840.08
7840.09
7840.1
7840.11
7840.11
7840.12
7840.13
7840.14
7840.15
7840.15
7840.16
7840.17
7840.17
7840.18
7840.18
7840.19
7840.19
7840.2
7840.2
7840.21
7840.21
7840.22
7840.22
7840.22
7840.23
7840.23
7840.23
7840.24
7840.24
7840.24
7840.24
7840.25
7840.25
7840.25
7840.25
7840.25
7840.26
7840.26
7840.26
7840.26
7840.26
7840.26
7840.26
7840.26
7840.26
7840.27
7840.27
7840.27
7840.27
7840.27
7840.27
7840.27
7840.27
7840.27
7840.27
7840.27
7840.27
7840.27
7840.27
7840.27
7840.27
7840.26
7840.26
7840.26
7840.26
7840.26
7840.26
7840.26
7840.26
7840.26
7840.26
7840.26
7840.26
7840.26
7840.26
7840.26
7840.26
7840.26
7840.26
7840.26
7840.25
7840.25
7840.25
7840.25
7840.25
7840.25
7840.25
7840.25
7840.25
7840.25
7840.25
7840.25
7840.25
7840.25
7840.25
7840.25
7840.25
7840.24
7840.24
7840.24
7840.24
7840.24
7840.24
7840.24
7840.24
7840.24
7840.24
7840.24
7840.24
7840.24
7840.24
7840.23
7840.23
7840.23
7840.23
7840.23
7840.23
7840.23
7840.23
7840.23
7840.23
7840.23
7840.23
7840.22
7840.22
7840.22
7840.22
7840.22
7840.22
7840.22
7840.22
7840.22
7840.22
7840.22
7840.21
7840.21
7840.21
7840.21
7840.21
7840.21
7840.21
7840.21
7840.21
7840.21
7840.2
7840.2
7840.2
7840.2
7840.2
7840.2
7593.28
7598.44
7602.72
7606.98
7611.1
7615.23
7619.37
7623.48
7627.56
7631.62
7635.63
7639.63
7643.59
7647.51
7651.4
7655.25
7659.05
7662.79
7666.46
7670.09
7673.66
7677.17
7680.6
7683.96
7687.26
7690.48
7693.65
7696.75
7699.79
7702.76
7705.64
7708.43
7711.13
7713.73
7716.26
7718.71
7721.08
7723.42
7725.69
7727.82
7729.87
7731.91
7733.93
7735.83
7737.62
7739.41
7741.13
7742.72
7744.2
7745.66
7747.12
7748.47
7749.71
7750.9
7752.04
7753.09
7754.05
7755.01
7755.92
7756.73
7757.48
7758.17
7758.8
7759.35
7759.84
7760.33
7760.79
7761.18
7761.52
7761.81
7762.08
7762.3
7762.46
7762.52
7762.61
7762.77
7762.84
7762.87
7762.79
7762.72
7762.79
7762.72
7762.59
7762.38
7762.27
7762.2
7762.02
7761.78
7761.53
7761.3
7761.07
7760.89
7760.68
7760.41
7760.12
7759.85
7759.58
7759.25
7758.58
7758.23
7757.78
7757.4
7757.02
7756.56
7756.13
7755.71
7755.28
7754.89
7754.49
7754.08
7753.65
7753.3
7752.93
7752.57
7752.2
7751.88
7751.57
7751.15
7750.86
7750.76
7750.55
7750.37
7750.19
7750.02
7749.91
7749.83
7749.75
7749.71
7749.68
7749.69
7749.74
7749.79
7749.87
7749.96
7750.08
7750.11
7750.31
7750.69
7750.95
7751.26
7751.57
7751.91
7752.28
7752.68
7753.09
7753.53
7753.98
7754.46
7754.93
7755.48
7756.01
7756.55
7757.09
7757.68
7758.27
7758.87
7759.48
7760.1
7760.74
7761.38
7762.04
7762.71
7763.39
7764.08
7764.78
7765.48
7766.2
7766.93
7767.66
7768.41
7769.16
7769.92
7770.69
7771.46
7772.24
7773.03
7773.82
7774.61
7775.4
7776.2
7777
7777.8
7778.61
7779.41
7780.22
7781.02
7781.82
7782.62
7783.42
7784.22
7785.01
7785.8
7786.59
7787.38
7788.16
7788.93
7789.71
7790.48
7791.24
7792
7792.76
7793.51
7794.25
7794.99
7795.73
7796.46
7797.18
7797.91
7798.62
7799.33
7800.03
7800.72
7801.41
7802.09
7802.77
7803.44
7804.11
7804.76
7805.41
7806.05
7806.69
7807.31
7807.93
7808.54
7809.15
7809.74
7810.34
7810.92
7811.49
7812.06
7812.61
7813.16
7813.71
7814.24
7814.77
7815.29
7815.81
7816.31
7816.81
7817.3
7817.78
7818.25
7818.72
7819.18
7819.63
7820.07
7820.51
7820.94
7821.36
7821.77
7822.18
7822.58
7822.97
7823.36
7823.73
7824.11
7824.47
7824.83
7825.18
7825.52
7825.86
7826.19
7826.51
7826.83
7827.14
7827.45
7827.75
7828.04
7828.33
7828.61
7828.89
7829.16
7829.42
7829.68
7829.94
7830.19
7830.43
7830.67
7830.9
7831.13
7831.35
7831.57
7831.79
7832
7832.2
7832.4
7832.6
7832.79
7832.97
7833.16
7833.33
7833.51
7833.68
7833.85
7834.01
7834.17
7834.33
7834.48
7834.63
7834.77
7834.91
7835.05
7835.19
7835.32
7835.45
7835.58
7835.7
7835.82
7835.94
7836.05
7836.16
7836.27
7836.38
7836.48
7836.59
7836.68
7836.78
7836.88
7836.97
7837.06
7837.15
7837.23
7837.31
7837.4
7837.48
7837.55
7837.63
7837.7
7837.78
7837.85
7837.91
7837.98
7838.05
7838.11
7838.17
7838.23
7838.29
7838.35
7838.4
7838.46
7838.51
7838.56
7838.61
7838.66
7838.71
7838.76
7838.8
7838.85
7838.89
7838.93
7838.97
7839.01
7839.05
7839.09
7839.13
7839.17
7839.2
7839.23
7839.27
7839.3
7839.33
7839.36
7839.39
7839.42
7839.45
7839.48
7839.51
7839.53
7839.56
7839.58
7839.61
7839.63
7839.65
7839.68
7839.7
7839.72
7839.74
7839.76
7839.78
7839.8
7839.82
7839.83
7839.85
7839.87
7839.88
7839.9
7839.91
7839.93