/*--------------------------------*- C++ -*----------------------------------*\
| =========                 |                                                 |
| \\      /  F ield         | OpenFOAM: The Open Source CFD Toolbox           |
|  \\    /   O peration     | Version:  v2006                                 |
|   \\  /    A nd           | Website:  www.openfoam.com                      |
|    \\/     M anipulation  |                                                 |
\*---------------------------------------------------------------------------*/
FoamFile
{
    version     2.0;
    format      ascii;
    class       surfaceScalarField;
    location    "1.7";
    object      phi;
}
// * * * * * * * * * * * * * * * * * * * * * * * * * * * * * * * * * * * * * //

dimensions      [0 3 -1 0 0 0 0];
oriented        oriented;


internalField   nonuniform List<scalar> 
65390
(
-2.44386e-05
-8.41917e-07
-2.40001e-05
-4.37914e-07
-2.35497e-05
-4.51118e-07
-2.30139e-05
-5.33952e-07
-2.2522e-05
-4.92199e-07
-2.20419e-05
-4.78213e-07
-2.15502e-05
-4.89373e-07
-2.10561e-05
-4.92195e-07
-2.05546e-05
-4.98196e-07
-2.00452e-05
-5.05663e-07
-1.9541e-05
-5.00097e-07
-1.90461e-05
-4.90251e-07
-1.85594e-05
-4.81294e-07
-1.80893e-05
-4.63618e-07
-1.76117e-05
-4.70364e-07
-1.71289e-05
-4.75535e-07
-1.6648e-05
-4.73122e-07
-1.61716e-05
-4.67358e-07
-1.57016e-05
-4.59773e-07
-1.52558e-05
-4.35479e-07
-1.48496e-05
-3.95946e-07
-1.44316e-05
-4.07651e-07
-1.39744e-05
-4.46617e-07
-1.35218e-05
-4.42313e-07
-1.31148e-05
-3.97162e-07
-1.27276e-05
-3.77572e-07
-1.23467e-05
-3.71217e-07
-1.19603e-05
-3.76639e-07
-1.15623e-05
-3.88486e-07
-1.12194e-05
-3.33752e-07
-1.08979e-05
-3.12658e-07
-1.05584e-05
-3.31208e-07
-1.01732e-05
-3.77466e-07
-9.84091e-06
-3.25352e-07
-9.54475e-06
-2.89842e-07
-9.28912e-06
-2.49817e-07
-8.9813e-06
-3.02485e-07
-8.61592e-06
-3.60579e-07
-8.35195e-06
-2.59817e-07
-8.1037e-06
-2.44747e-07
-7.89495e-06
-2.05802e-07
-7.70128e-06
-1.91202e-07
-7.42724e-06
-2.72025e-07
-7.12987e-06
-2.95876e-07
-6.91644e-06
-2.1252e-07
-6.74352e-06
-1.72668e-07
-6.51653e-06
-2.27391e-07
-6.27829e-06
-2.39316e-07
-6.08328e-06
-1.96795e-07
-5.92298e-06
-1.62804e-07
-5.74457e-06
-1.81498e-07
-5.54687e-06
-2.01191e-07
-5.35306e-06
-1.97503e-07
-5.17219e-06
-1.84482e-07
-5.02053e-06
-1.54934e-07
-4.88262e-06
-1.40784e-07
-4.73885e-06
-1.46312e-07
-4.62303e-06
-1.18118e-07
-4.5534e-06
-7.16612e-08
-4.49011e-06
-6.51334e-08
-4.39997e-06
-9.17873e-08
-4.3033e-06
-9.80009e-08
-4.26165e-06
-4.2677e-08
-4.23204e-06
-3.03987e-08
-4.1954e-06
-3.72731e-08
-4.13369e-06
-6.2137e-08
-4.05458e-06
-7.93692e-08
-3.99875e-06
-5.60055e-08
-3.93889e-06
-5.99381e-08
-3.86802e-06
-7.08677e-08
-3.80767e-06
-6.02033e-08
-3.73573e-06
-7.16996e-08
-3.6421e-06
-9.33621e-08
-3.46118e-06
-1.806e-07
-3.26539e-06
-1.95545e-07
-2.99198e-06
-2.7324e-07
-2.59751e-06
-3.9425e-07
-2.21102e-06
-3.86051e-07
-1.90404e-06
-3.06072e-07
-1.7087e-06
-1.94391e-07
-1.65197e-06
-5.54707e-08
-1.66415e-06
1.3596e-08
-1.76385e-06
1.00614e-07
-1.843e-06
8.03499e-08
-1.92067e-06
7.90183e-08
-1.96865e-06
4.95332e-08
-1.98268e-06
1.55115e-08
-2.02909e-06
4.76133e-08
-2.07689e-06
4.90465e-08
-2.13803e-06
6.24909e-08
-2.18872e-06
5.18469e-08
-2.2291e-06
4.12541e-08
-2.25051e-06
2.22255e-08
-2.26708e-06
1.73865e-08
-2.26985e-06
3.61916e-09
-2.24841e-06
-2.05249e-08
-2.17302e-06
-7.45434e-08
-2.05172e-06
-1.20511e-07
-1.85721e-06
-1.93612e-07
-1.70971e-06
-1.46336e-07
-1.68682e-06
-2.16136e-08
-1.73503e-06
4.9451e-08
-1.8141e-06
8.02276e-08
-1.86878e-06
5.57637e-08
-1.95771e-06
8.98183e-08
-2.04331e-06
8.61997e-08
-2.09455e-06
5.16375e-08
-2.13945e-06
4.52266e-08
-2.19155e-06
5.23321e-08
-2.24709e-06
5.56695e-08
-2.29413e-06
4.70981e-08
-2.33729e-06
4.32502e-08
-2.36472e-06
2.75093e-08
-2.36979e-06
5.0702e-09
-2.33969e-06
-3.01727e-08
-2.26818e-06
-7.15683e-08
-2.11533e-06
-1.52875e-07
-1.99944e-06
-1.1592e-07
-1.99218e-06
-7.31848e-09
-2.03982e-06
4.76136e-08
-2.11896e-06
7.92051e-08
-2.17668e-06
5.7825e-08
-2.26753e-06
9.0942e-08
-2.3519e-06
8.44695e-08
-2.4082e-06
5.64331e-08
-2.46753e-06
5.95111e-08
-2.52383e-06
5.64918e-08
-2.57901e-06
5.53608e-08
-2.63586e-06
5.70633e-08
-2.68777e-06
5.21518e-08
-2.73237e-06
4.48662e-08
-2.77973e-06
4.76429e-08
-2.82524e-06
4.58047e-08
-2.86836e-06
4.34272e-08
-2.90878e-06
4.06985e-08
-2.94597e-06
3.74573e-08
-2.98528e-06
3.95759e-08
-3.02295e-06
3.79552e-08
-3.05887e-06
3.62167e-08
-3.09194e-06
3.33946e-08
-3.12435e-06
3.27881e-08
-3.15569e-06
3.17545e-08
-3.18516e-06
2.99273e-08
-3.21294e-06
2.82965e-08
-3.23917e-06
2.67976e-08
-3.26339e-06
2.48594e-08
-3.28514e-06
2.24272e-08
-3.30515e-06
2.07357e-08
-3.3241e-06
1.97073e-08
-3.34139e-06
1.80836e-08
-3.357e-06
1.6442e-08
-3.37054e-06
1.44178e-08
-3.38167e-06
1.20259e-08
-3.39074e-06
9.98098e-09
-3.39905e-06
9.24324e-09
-3.40595e-06
7.81901e-09
-3.41092e-06
5.88479e-09
-3.41395e-06
3.92221e-09
-3.41571e-06
2.61818e-09
-3.41649e-06
1.58982e-09
-3.41587e-06
1.51316e-10
-3.41362e-06
-1.54868e-09
-3.41009e-06
-2.87989e-09
-3.40563e-06
-3.87649e-09
-3.40009e-06
-5.02263e-09
-3.39339e-06
-6.24021e-09
-3.38548e-06
-7.51142e-09
-3.37642e-06
-8.71003e-09
-3.36636e-06
-9.76729e-09
-3.35536e-06
-1.07426e-08
-3.34321e-06
-1.19172e-08
-3.32992e-06
-1.30923e-08
-3.31557e-06
-1.41559e-08
-3.30024e-06
-1.51468e-08
-3.28386e-06
-1.61987e-08
-3.26643e-06
-1.72432e-08
-3.24802e-06
-1.82149e-08
-3.22866e-06
-1.91456e-08
-3.20835e-06
-2.00764e-08
-3.18713e-06
-2.09782e-08
-3.16501e-06
-2.18419e-08
-3.14205e-06
-2.26781e-08
-3.11825e-06
-2.35039e-08
-3.09366e-06
-2.4281e-08
-3.06828e-06
-2.50594e-08
-3.04217e-06
-2.57874e-08
-3.01543e-06
-2.64292e-08
-2.98806e-06
-2.70695e-08
-2.96008e-06
-2.77103e-08
-2.93155e-06
-2.82758e-08
-2.90254e-06
-2.88017e-08
-2.87308e-06
-2.93069e-08
-2.84318e-06
-2.97845e-08
-2.81287e-06
-3.02357e-08
-2.78219e-06
-3.06489e-08
-2.75118e-06
-3.10229e-08
-2.71986e-06
-3.13743e-08
-2.68828e-06
-3.16856e-08
-2.65645e-06
-3.19629e-08
-2.62437e-06
-3.22305e-08
-2.59206e-06
-3.24799e-08
-2.55954e-06
-3.26982e-08
-2.52683e-06
-3.2888e-08
-2.49396e-06
-3.30455e-08
-2.46097e-06
-3.3166e-08
-2.42788e-06
-3.325e-08
-2.39473e-06
-3.33094e-08
-2.36151e-06
-3.33623e-08
-2.32823e-06
-3.34168e-08
-2.2949e-06
-3.34665e-08
-2.26153e-06
-3.3505e-08
-2.22817e-06
-3.35025e-08
-2.19487e-06
-3.34564e-08
-2.16165e-06
-3.33877e-08
-2.12853e-06
-3.32836e-08
-2.09553e-06
-3.31448e-08
-2.06266e-06
-3.29895e-08
-2.02989e-06
-3.28505e-08
-1.99725e-06
-3.27275e-08
-1.96475e-06
-3.26022e-08
-1.93242e-06
-3.24666e-08
-1.90029e-06
-3.23187e-08
-1.86837e-06
-3.21533e-08
-1.83666e-06
-3.19528e-08
-1.80519e-06
-3.1725e-08
-1.77395e-06
-3.14841e-08
-1.74294e-06
-3.12377e-08
-1.71214e-06
-3.09991e-08
-1.68155e-06
-3.07534e-08
-1.65118e-06
-3.05086e-08
-1.62104e-06
-3.02694e-08
-1.59114e-06
-3.00223e-08
-1.56151e-06
-2.9772e-08
-1.53216e-06
-2.95201e-08
-1.5031e-06
-2.92656e-08
-1.47433e-06
-2.89942e-08
-1.44587e-06
-2.87023e-08
-1.41772e-06
-2.83936e-08
-1.3899e-06
-2.80759e-08
-1.36237e-06
-2.77694e-08
-1.33513e-06
-2.74627e-08
-1.30818e-06
-2.71571e-08
-1.28152e-06
-2.685e-08
-1.25515e-06
-2.65297e-08
-1.22909e-06
-2.61983e-08
-1.20336e-06
-2.58593e-08
-1.17796e-06
-2.55225e-08
-1.15288e-06
-2.51905e-08
-1.12814e-06
-2.4854e-08
-1.10375e-06
-2.4508e-08
-1.07971e-06
-2.41573e-08
-1.05602e-06
-2.38089e-08
-1.03266e-06
-2.3465e-08
-1.00964e-06
-2.31178e-08
-9.86967e-07
-2.27666e-08
-9.64633e-07
-2.24219e-08
-9.42614e-07
-2.21037e-08
-9.20896e-07
-2.18005e-08
-8.99475e-07
-2.15009e-08
-8.78368e-07
-2.11882e-08
-8.57594e-07
-2.08583e-08
-8.37166e-07
-2.05169e-08
-8.17088e-07
-2.0169e-08
-7.9736e-07
-1.98173e-08
-7.77975e-07
-1.94659e-08
-7.58926e-07
-1.91209e-08
-7.40207e-07
-1.87839e-08
-7.21822e-07
-1.84523e-08
-7.0377e-07
-1.81252e-08
-6.86051e-07
-1.78034e-08
-6.68656e-07
-1.74834e-08
-6.51586e-07
-1.71573e-08
-6.34844e-07
-1.68218e-08
-6.18429e-07
-1.64834e-08
-6.02341e-07
-1.61464e-08
-5.86581e-07
-1.58111e-08
-5.71151e-07
-1.5476e-08
-5.5605e-07
-1.51417e-08
-5.41276e-07
-1.48089e-08
-5.26827e-07
-1.44773e-08
-5.127e-07
-1.415e-08
-4.98886e-07
-1.3835e-08
-4.85368e-07
-1.35391e-08
-4.72128e-07
-1.3263e-08
-4.59156e-07
-1.29992e-08
-4.46442e-07
-1.27438e-08
-4.33978e-07
-1.24942e-08
-4.21757e-07
-1.22512e-08
-4.09775e-07
-1.20132e-08
-3.9803e-07
-1.17768e-08
-3.86525e-07
-1.1538e-08
-3.75265e-07
-1.12948e-08
-3.64254e-07
-1.10458e-08
-3.53501e-07
-1.07888e-08
-3.43011e-07
-1.05239e-08
-3.3279e-07
-1.02537e-08
-3.22839e-07
-9.9833e-09
-3.13152e-07
-9.7175e-09
-3.03723e-07
-9.45813e-09
-2.94546e-07
-9.20495e-09
-2.85615e-07
-8.95817e-09
-2.7692e-07
-8.71979e-09
-2.68452e-07
-8.49264e-09
-2.60197e-07
-8.27904e-09
-2.5214e-07
-8.07957e-09
-2.4427e-07
-7.89195e-09
-2.36578e-07
-7.71303e-09
-2.29059e-07
-7.53994e-09
-2.21708e-07
-7.37e-09
-2.14525e-07
-7.20143e-09
-2.07509e-07
-7.03266e-09
-2.00663e-07
-6.8628e-09
-1.93988e-07
-6.69165e-09
-1.87484e-07
-6.52002e-09
-1.81151e-07
-6.34939e-09
-1.74984e-07
-6.18151e-09
-1.68981e-07
-6.01789e-09
-1.63135e-07
-5.85931e-09
-1.57442e-07
-5.70542e-09
-1.519e-07
-5.55495e-09
-1.46505e-07
-5.40663e-09
-1.41257e-07
-5.2603e-09
-1.36151e-07
-5.1169e-09
-1.31187e-07
-4.9766e-09
-1.26362e-07
-4.83677e-09
-1.21681e-07
-4.69215e-09
-1.17152e-07
-4.53938e-09
-1.1278e-07
-4.38209e-09
-1.08559e-07
-4.22929e-09
-1.04478e-07
-4.08822e-09
-1.00525e-07
-3.95866e-09
-9.66928e-08
-3.83628e-09
-9.29738e-08
-3.72081e-09
-8.93562e-08
-3.61758e-09
-8.58256e-08
-3.52901e-09
-8.23756e-08
-3.44724e-09
-7.90134e-08
-3.35874e-09
-7.57512e-08
-3.25831e-09
-7.25944e-08
-3.15249e-09
-6.9542e-08
-3.04765e-09
-6.65948e-08
-2.94156e-09
-6.37586e-08
-2.82966e-09
-6.10365e-08
-2.71512e-09
-5.84219e-08
-2.60778e-09
-5.59031e-08
-2.51304e-09
-5.34711e-08
-2.4277e-09
-5.11201e-08
-2.34797e-09
-4.88428e-08
-2.27503e-09
-4.66315e-08
-2.20907e-09
-4.44844e-08
-2.14469e-09
-4.24054e-08
-2.07657e-09
-4.03991e-08
-2.0044e-09
-3.84692e-08
-1.92877e-09
-3.66206e-08
-1.84829e-09
-3.48564e-08
-1.76464e-09
-3.31717e-08
-1.68541e-09
-3.15551e-08
-1.61739e-09
-2.99956e-08
-1.56025e-09
-2.84864e-08
-1.51006e-09
-2.7022e-08
-1.46541e-09
-2.55971e-08
-1.42602e-09
-2.42103e-08
-1.3877e-09
-2.28674e-08
-1.34337e-09
-2.15776e-08
-1.28958e-09
-2.03472e-08
-1.22956e-09
-1.91766e-08
-1.16932e-09
-1.8062e-08
-1.11295e-09
-1.69981e-08
-1.06245e-09
-1.5977e-08
-1.01986e-09
-1.4989e-08
-9.8703e-10
-1.40252e-08
-9.62901e-10
-1.30822e-08
-9.42397e-10
-1.21627e-08
-9.19319e-10
-1.12726e-08
-8.90603e-10
-1.0416e-08
-8.57991e-10
-9.59311e-09
-8.25167e-10
-8.80274e-09
-7.93389e-10
-8.0443e-09
-7.61864e-10
-7.31499e-09
-7.32843e-10
-6.60653e-09
-7.11973e-10
-5.90921e-09
-7.00833e-10
-5.21979e-09
-6.93013e-10
-4.54322e-09
-6.80307e-10
-3.88912e-09
-6.57866e-10
-3.26709e-09
-6.25648e-10
-2.68295e-09
-5.87413e-10
-2.13541e-09
-5.50373e-10
-1.61656e-09
-5.21265e-10
-1.11687e-09
-5.01742e-10
-6.29252e-10
-4.89343e-10
-1.50888e-10
-4.79737e-10
3.15076e-10
-4.66909e-10
7.60144e-10
-4.45555e-10
1.17488e-09
-4.14815e-10
1.553e-09
-3.7791e-10
1.89331e-09
-3.39946e-10
2.20086e-09
-3.07133e-10
2.48693e-09
-2.85635e-10
2.76568e-09
-2.78301e-10
3.04612e-09
-2.79954e-10
3.32588e-09
-2.79194e-10
3.59483e-09
-2.68301e-10
3.84507e-09
-2.49571e-10
4.0765e-09
-2.30837e-10
4.28967e-09
-2.1278e-10
4.48639e-09
-1.96549e-10
4.67593e-09
-1.89518e-10
4.86456e-09
-1.88575e-10
5.0482e-09
-1.834e-10
5.21771e-09
-1.69061e-10
5.36661e-09
-1.48345e-10
5.49601e-09
-1.28957e-10
5.61482e-09
-1.18604e-10
5.73284e-09
-1.18072e-10
5.84922e-09
-1.16536e-10
5.96094e-09
-1.118e-10
6.06856e-09
-1.0753e-10
6.16337e-09
-9.45789e-11
6.24642e-09
-8.2818e-11
6.32934e-09
-8.28183e-11
6.40805e-09
-7.87648e-11
6.46367e-09
-5.5729e-11
6.50437e-09
-4.07342e-11
6.49598e-09
8.4538e-12
6.47587e-09
2.02213e-11
6.52168e-09
-4.58107e-11
6.54467e-09
-2.32075e-11
6.60735e-09
-6.31001e-11
6.73172e-09
-1.24899e-10
6.95784e-09
-2.26601e-10
7.20345e-09
-2.45983e-10
7.36286e-09
-1.59706e-10
7.54306e-09
-1.80523e-10
7.69353e-09
-1.50934e-10
7.82683e-09
-1.33929e-10
7.91446e-09
-8.83635e-11
7.9805e-09
-6.67608e-11
8.0453e-09
-6.54338e-11
8.10063e-09
-5.58815e-11
8.18589e-09
-8.58244e-11
8.23757e-09
-5.23634e-11
8.2159e-09
2.08389e-11
8.19327e-09
2.1747e-11
8.17873e-09
1.37988e-11
8.19224e-09
-1.40382e-11
8.18687e-09
5.07926e-12
8.1941e-09
-7.32992e-12
8.25126e-09
-5.71069e-11
8.33797e-09
-8.65287e-11
8.43999e-09
-1.01689e-10
8.48281e-09
-4.22959e-11
8.55979e-09
-7.62529e-11
8.57193e-09
-1.1246e-11
8.5664e-09
6.54422e-12
8.5087e-09
5.87579e-11
8.4923e-09
1.74531e-11
8.51434e-09
-2.10193e-11
8.44891e-09
6.64782e-11
8.47852e-09
-2.85669e-11
8.51572e-09
-3.61305e-11
8.46798e-09
4.87526e-11
8.42048e-09
4.84493e-11
8.0757e-09
3.45985e-10
7.89273e-09
1.84051e-10
7.7736e-09
1.19758e-10
7.51844e-09
2.5522e-10
7.91293e-09
-3.96039e-10
8.27135e-09
-3.63927e-10
1.02887e-08
-2.02542e-09
1.23175e-08
-2.04437e-09
1.32868e-08
-9.97857e-10
1.39648e-08
-7.04021e-10
1.42875e-08
-3.46064e-10
1.44269e-08
-1.60258e-10
1.44475e-08
-3.91635e-11
1.43614e-08
6.95509e-11
1.41693e-08
1.77383e-10
1.38941e-08
2.62112e-10
1.35683e-08
3.1425e-10
1.32039e-08
3.54204e-10
1.28341e-08
3.60846e-10
1.25019e-08
3.24656e-10
1.22165e-08
2.78879e-10
1.1948e-08
2.62895e-10
1.16638e-08
2.7917e-10
1.13668e-08
2.92429e-10
1.10865e-08
2.7605e-10
1.08447e-08
2.37872e-10
1.06402e-08
2.00902e-10
1.04558e-08
1.81143e-10
1.02675e-08
1.8543e-10
1.00536e-08
2.11157e-10
9.8018e-09
2.49066e-10
9.51158e-09
2.87376e-10
9.19329e-09
3.15334e-10
8.86235e-09
3.28025e-10
8.53452e-09
3.25174e-10
8.22561e-09
3.06645e-10
7.95485e-09
2.68897e-10
7.74396e-09
2.09277e-10
7.61753e-09
1.24923e-10
7.59349e-09
2.25395e-11
7.67917e-09
-8.71081e-11
7.86642e-09
-1.88427e-10
8.13508e-09
-2.69402e-10
8.45682e-09
-3.21955e-10
8.80461e-09
-3.47493e-10
9.1561e-09
-3.50819e-10
9.49521e-09
-3.38173e-10
9.80823e-09
-3.11847e-10
1.00786e-08
-2.68923e-10
1.02861e-08
-2.05629e-10
1.04138e-08
-1.25268e-10
1.04593e-08
-4.23853e-11
1.04396e-08
2.34656e-11
1.03859e-08
5.8166e-11
1.03366e-08
5.43791e-11
1.03269e-08
1.54558e-11
1.03799e-08
-4.65716e-11
1.0521e-08
-1.33825e-10
1.07512e-08
-2.2223e-10
1.10354e-08
-2.75301e-10
1.12902e-08
-2.44974e-10
1.1423e-08
-1.22e-10
1.14092e-08
2.54526e-11
1.13289e-08
9.29553e-11
1.13448e-08
-2.47786e-12
1.15325e-08
-1.73208e-10
1.1778e-08
-2.30178e-10
1.18305e-08
-3.62032e-11
1.15492e-08
2.98535e-10
1.10452e-08
5.22086e-10
1.06452e-08
4.18934e-10
1.05437e-08
1.2133e-10
1.05022e-08
6.20591e-11
1.02062e-08
3.17492e-10
9.65364e-09
5.74942e-10
9.25551e-09
4.21351e-10
9.31057e-09
-3.0976e-11
9.46364e-09
-1.28172e-10
9.38005e-09
1.09203e-10
9.27283e-09
1.33415e-10
9.53525e-09
-2.35721e-10
9.98039e-09
-4.17926e-10
9.99495e-09
1.32129e-11
9.69882e-09
3.24343e-10
9.52089e-09
2.05959e-10
9.05573e-09
4.91723e-10
8.62853e-09
4.50416e-10
1.09434e-09
-2.49547e-05
-1.22735e-06
-2.4375e-05
-1.01113e-06
-2.37724e-05
-1.053e-06
-2.32687e-05
-1.03176e-06
-2.27718e-05
-9.86082e-07
-2.22678e-05
-9.79712e-07
-2.17621e-05
-9.9172e-07
-2.12579e-05
-9.94171e-07
-2.07498e-05
-1.00479e-06
-2.02452e-05
-1.0103e-06
-1.97438e-05
-1.00253e-06
-1.92465e-05
-9.88473e-07
-1.87546e-05
-9.74719e-07
-1.82646e-05
-9.56116e-07
-1.77816e-05
-9.569e-07
-1.7305e-05
-9.56383e-07
-1.68306e-05
-9.52244e-07
-1.63571e-05
-9.46263e-07
-1.58917e-05
-9.31198e-07
-1.54349e-05
-8.99052e-07
-1.49787e-05
-8.58855e-07
-1.45279e-05
-8.64784e-07
-1.40917e-05
-8.88356e-07
-1.36578e-05
-8.81097e-07
-1.32291e-05
-8.30134e-07
-1.28028e-05
-8.0771e-07
-1.23867e-05
-7.90984e-07
-1.19922e-05
-7.74275e-07
-1.15983e-05
-7.84841e-07
-1.12355e-05
-6.97684e-07
-1.09349e-05
-6.13062e-07
-1.06417e-05
-6.23243e-07
-1.03021e-05
-7.15341e-07
-9.89153e-06
-7.33899e-07
-9.50494e-06
-6.74304e-07
-9.20867e-06
-5.43881e-07
-8.93536e-06
-5.73589e-07
-8.67381e-06
-6.2004e-07
-8.36845e-06
-5.63285e-07
-8.04201e-06
-5.69505e-07
-7.79878e-06
-4.47529e-07
-7.57361e-06
-4.14924e-07
-7.32624e-06
-5.18003e-07
-7.05645e-06
-5.64376e-07
-6.79555e-06
-4.72278e-07
-6.59329e-06
-3.73939e-07
-6.39914e-06
-4.20737e-07
-6.2169e-06
-4.20945e-07
-6.04504e-06
-3.68222e-07
-5.8798e-06
-3.2771e-07
-5.71091e-06
-3.50012e-07
-5.54661e-06
-3.6483e-07
-5.38743e-06
-3.55546e-07
-5.22976e-06
-3.40445e-07
-5.07967e-06
-3.02747e-07
-4.94364e-06
-2.74102e-07
-4.80713e-06
-2.79911e-07
-4.68462e-06
-2.3764e-07
-4.59646e-06
-1.56806e-07
-4.51871e-06
-1.39884e-07
-4.42264e-06
-1.85015e-07
-4.33099e-06
-1.86988e-07
-4.29571e-06
-7.54028e-08
-4.26697e-06
-5.68489e-08
-4.23639e-06
-6.59898e-08
-4.1729e-06
-1.24116e-07
-4.11316e-06
-1.37952e-07
-4.04648e-06
-1.21844e-07
-3.98046e-06
-1.25402e-07
-3.93836e-06
-1.12653e-07
-3.91114e-06
-8.72123e-08
-3.8557e-06
-1.27071e-07
-3.78355e-06
-1.65706e-07
-3.72574e-06
-2.38868e-07
-3.66837e-06
-2.53515e-07
-3.60496e-06
-3.37143e-07
-3.54119e-06
-4.5836e-07
-3.39565e-06
-5.32325e-07
-3.17186e-06
-5.3027e-07
-2.88622e-06
-4.80354e-07
-2.59508e-06
-3.46318e-07
-2.27725e-06
-3.0349e-07
-2.00582e-06
-1.69775e-07
-1.89183e-06
-3.22421e-08
-1.79898e-06
-1.24899e-08
-1.82948e-06
8.13453e-08
-1.90551e-06
9.28454e-08
-2.03499e-06
1.78428e-07
-2.14571e-06
1.61037e-07
-2.20144e-06
1.19247e-07
-2.21821e-06
6.9356e-08
-2.23999e-06
6.35444e-08
-2.27759e-06
6.03467e-08
-2.31743e-06
5.78712e-08
-2.36054e-06
4.74208e-08
-2.39141e-06
1.09243e-08
-2.42644e-06
-3.89183e-08
-2.46014e-06
-8.59188e-08
-2.514e-06
-1.3858e-07
-2.50243e-06
-1.5667e-07
-2.39662e-06
-1.26268e-07
-2.1984e-06
-1.47747e-07
-2.03246e-06
-8.48438e-08
-1.98917e-06
1.3104e-08
-1.98466e-06
8.56632e-08
-2.01858e-06
1.20219e-07
-2.05713e-06
9.01497e-08
-2.11515e-06
1.03125e-07
-2.20342e-06
1.40374e-07
-2.28671e-06
1.38612e-07
-2.3325e-06
9.24767e-08
-2.3785e-06
8.87997e-08
-2.42092e-06
6.94512e-08
-2.46266e-06
4.62928e-08
-2.5125e-06
1.91428e-08
-2.56073e-06
-2.38237e-08
-2.62814e-06
-8.59192e-08
-2.64863e-06
-9.58454e-08
-2.58628e-06
-7.00517e-08
-2.42618e-06
-1.12816e-07
-2.28722e-06
-6.00493e-08
-2.26353e-06
3.38471e-08
-2.28033e-06
1.07441e-07
-2.32809e-06
1.31958e-07
-2.37953e-06
1.07638e-07
-2.46262e-06
1.42424e-07
-2.53962e-06
1.33352e-07
-2.58875e-06
1.04359e-07
-2.63929e-06
1.07503e-07
-2.68851e-06
1.0131e-07
-2.73535e-06
9.16506e-08
-2.78374e-06
9.59687e-08
-2.82954e-06
9.15401e-08
-2.87137e-06
8.51825e-08
-2.91161e-06
8.08601e-08
-2.95096e-06
7.67313e-08
-2.98963e-06
7.81984e-08
-3.0265e-06
7.48005e-08
-3.06221e-06
7.19439e-08
-3.09649e-06
6.7761e-08
-3.12931e-06
6.57652e-08
-3.16004e-06
6.27405e-08
-3.1888e-06
5.90295e-08
-3.21681e-06
5.67419e-08
-3.24263e-06
5.31431e-08
-3.26632e-06
4.91662e-08
-3.28819e-06
4.50043e-08
-3.30871e-06
4.2038e-08
-3.32744e-06
3.92974e-08
-3.34424e-06
3.57956e-08
-3.35921e-06
3.23928e-08
-3.37238e-06
2.86178e-08
-3.38376e-06
2.44675e-08
-3.39341e-06
2.07201e-08
-3.40141e-06
1.8332e-08
-3.40783e-06
1.53175e-08
-3.41274e-06
1.18421e-08
-3.41607e-06
8.25626e-09
-3.41797e-06
5.45564e-09
-3.4185e-06
2.96952e-09
-3.41783e-06
2.38332e-10
-3.41591e-06
-2.82301e-09
-3.41267e-06
-5.57542e-09
-3.40816e-06
-7.94159e-09
-3.40264e-06
-1.02038e-08
-3.39612e-06
-1.25127e-08
-3.38814e-06
-1.53164e-08
-3.37899e-06
-1.77661e-08
-3.3689e-06
-1.98179e-08
-3.35802e-06
-2.16308e-08
-3.34576e-06
-2.42095e-08
-3.33232e-06
-2.65721e-08
-3.31792e-06
-2.85976e-08
-3.30265e-06
-3.04459e-08
-3.28609e-06
-3.27613e-08
-3.26849e-06
-3.48147e-08
-3.24994e-06
-3.66827e-08
-3.2305e-06
-3.84555e-08
-3.21002e-06
-4.03797e-08
-3.18859e-06
-4.21727e-08
-3.16631e-06
-4.38466e-08
-3.14318e-06
-4.54795e-08
-3.11922e-06
-4.70988e-08
-3.09449e-06
-4.86225e-08
-3.06902e-06
-5.01131e-08
-3.04285e-06
-5.15506e-08
-3.01599e-06
-5.28995e-08
-2.9885e-06
-5.41973e-08
-2.96043e-06
-5.54466e-08
-2.93185e-06
-5.65741e-08
-2.90279e-06
-5.76376e-08
-2.87329e-06
-5.86381e-08
-2.84337e-06
-5.95943e-08
-2.81306e-06
-6.05078e-08
-2.78237e-06
-6.13677e-08
-2.75131e-06
-6.21521e-08
-2.71993e-06
-6.28597e-08
-2.68828e-06
-6.34776e-08
-2.65637e-06
-6.4032e-08
-2.62423e-06
-6.45496e-08
-2.59186e-06
-6.50281e-08
-2.55929e-06
-6.54594e-08
-2.52651e-06
-6.58415e-08
-2.49357e-06
-6.61529e-08
-2.46049e-06
-6.63974e-08
-2.42732e-06
-6.65602e-08
-2.39412e-06
-6.66354e-08
-2.36092e-06
-6.66741e-08
-2.32769e-06
-6.6739e-08
-2.29445e-06
-6.67802e-08
-2.2612e-06
-6.68035e-08
-2.22794e-06
-6.67824e-08
-2.1947e-06
-6.67071e-08
-2.16149e-06
-6.65943e-08
-2.12832e-06
-6.6437e-08
-2.09524e-06
-6.62204e-08
-2.06227e-06
-6.59621e-08
-2.02944e-06
-6.56892e-08
-1.99676e-06
-6.54037e-08
-1.96426e-06
-6.50894e-08
-1.93194e-06
-6.47519e-08
-1.89983e-06
-6.43981e-08
-1.86791e-06
-6.40329e-08
-1.83618e-06
-6.36376e-08
-1.80467e-06
-6.32113e-08
-1.77336e-06
-6.27744e-08
-1.74228e-06
-6.23229e-08
-1.7114e-06
-6.18825e-08
-1.68076e-06
-6.1408e-08
-1.65038e-06
-6.09073e-08
-1.62026e-06
-6.03971e-08
-1.59042e-06
-5.98694e-08
-1.56087e-06
-5.9325e-08
-1.53158e-06
-5.87886e-08
-1.50254e-06
-5.82795e-08
-1.47374e-06
-5.77535e-08
-1.44519e-06
-5.72019e-08
-1.41693e-06
-5.6618e-08
-1.38899e-06
-5.59765e-08
-1.3614e-06
-5.53411e-08
-1.33414e-06
-5.4705e-08
-1.30723e-06
-5.40745e-08
-1.28062e-06
-5.34618e-08
-1.25432e-06
-5.28477e-08
-1.22831e-06
-5.22223e-08
-1.2026e-06
-5.15749e-08
-1.17721e-06
-5.09224e-08
-1.15214e-06
-5.0264e-08
-1.12739e-06
-4.95927e-08
-1.10297e-06
-4.89115e-08
-1.07888e-06
-4.82255e-08
-1.05512e-06
-4.75466e-08
-1.03169e-06
-4.68779e-08
-1.00859e-06
-4.62066e-08
-9.85828e-07
-4.55236e-08
-9.63418e-07
-4.48336e-08
-9.41366e-07
-4.41641e-08
-9.19665e-07
-4.35105e-08
-8.98305e-07
-4.28671e-08
-8.77277e-07
-4.22137e-08
-8.56577e-07
-4.15454e-08
-8.36203e-07
-4.08699e-08
-8.16156e-07
-4.01922e-08
-7.96441e-07
-3.95121e-08
-7.77062e-07
-3.88309e-08
-7.58019e-07
-3.81552e-08
-7.39307e-07
-3.7487e-08
-7.20924e-07
-3.68215e-08
-7.0287e-07
-3.61553e-08
-6.85147e-07
-3.54906e-08
-6.67761e-07
-3.48263e-08
-6.50714e-07
-3.41568e-08
-6.34007e-07
-3.34813e-08
-6.17637e-07
-3.28082e-08
-6.01598e-07
-3.21421e-08
-5.85884e-07
-3.14828e-08
-5.70489e-07
-3.08269e-08
-5.55408e-07
-3.01767e-08
-5.40634e-07
-2.95331e-08
-5.26163e-07
-2.88952e-08
-5.11993e-07
-2.82638e-08
-4.98123e-07
-2.76465e-08
-4.84549e-07
-2.70534e-08
-4.71262e-07
-2.6488e-08
-4.58253e-07
-2.59435e-08
-4.45516e-07
-2.54145e-08
-4.33046e-07
-2.4898e-08
-4.20837e-07
-2.43949e-08
-4.08885e-07
-2.39021e-08
-3.97187e-07
-2.34137e-08
-3.85744e-07
-2.29232e-08
-3.74556e-07
-2.24279e-08
-3.63623e-07
-2.19268e-08
-3.52942e-07
-2.14188e-08
-3.42512e-07
-2.09038e-08
-3.32334e-07
-2.0384e-08
-3.22404e-07
-1.98644e-08
-3.12723e-07
-1.93511e-08
-3.03286e-07
-1.88479e-08
-2.94089e-07
-1.83562e-08
-2.85124e-07
-1.78772e-08
-2.76385e-07
-1.74135e-08
-2.67864e-07
-1.69687e-08
-2.59554e-07
-1.65453e-08
-2.51447e-07
-1.61433e-08
-2.43536e-07
-1.57597e-08
-2.35816e-07
-1.53902e-08
-2.28283e-07
-1.50311e-08
-2.20932e-07
-1.4679e-08
-2.13761e-07
-1.43314e-08
-2.06767e-07
-1.39868e-08
-1.99947e-07
-1.36439e-08
-1.93298e-07
-1.33024e-08
-1.86819e-07
-1.29628e-08
-1.80505e-07
-1.26265e-08
-1.74356e-07
-1.22951e-08
-1.68368e-07
-1.19707e-08
-1.62538e-07
-1.1655e-08
-1.56861e-07
-1.13482e-08
-1.51335e-07
-1.10484e-08
-1.45959e-07
-1.0752e-08
-1.40733e-07
-1.04564e-08
-1.3566e-07
-1.01615e-08
-1.3074e-07
-9.86953e-09
-1.25969e-07
-9.58145e-09
-1.21341e-07
-9.29376e-09
-1.16852e-07
-9.00132e-09
-1.12502e-07
-8.7047e-09
-1.08288e-07
-8.41339e-09
-1.04206e-07
-8.13942e-09
-1.00245e-07
-7.88655e-09
-9.63978e-08
-7.64854e-09
-9.26622e-08
-7.41981e-09
-8.90375e-08
-7.20419e-09
-8.55195e-08
-7.00771e-09
-8.21019e-08
-6.82427e-09
-7.87835e-08
-6.63576e-09
-7.55691e-08
-6.43092e-09
-7.24631e-08
-6.217e-09
-6.9463e-08
-6.00709e-09
-6.65627e-08
-5.80265e-09
-6.37586e-08
-5.59601e-09
-6.10506e-08
-5.38651e-09
-5.8437e-08
-5.18537e-09
-5.59128e-08
-5.00154e-09
-5.34739e-08
-4.83159e-09
-5.11187e-08
-4.66944e-09
-4.88454e-08
-4.51653e-09
-4.66509e-08
-4.37437e-09
-4.45329e-08
-4.23624e-09
-4.24904e-08
-4.09516e-09
-4.05211e-08
-3.95173e-09
-3.8622e-08
-3.80739e-09
-3.67915e-08
-3.6591e-09
-3.50292e-08
-3.50779e-09
-3.33315e-08
-3.36427e-09
-3.16913e-08
-3.23883e-09
-3.0103e-08
-3.12987e-09
-2.85654e-08
-3.02872e-09
-2.70804e-08
-2.93115e-09
-2.56489e-08
-2.83791e-09
-2.42703e-08
-2.74642e-09
-2.29442e-08
-2.64933e-09
-2.16711e-08
-2.54262e-09
-2.04499e-08
-2.43074e-09
-1.92776e-08
-2.32202e-09
-1.81497e-08
-2.22181e-09
-1.70624e-08
-2.13155e-09
-1.60127e-08
-2.05232e-09
-1.49982e-08
-1.98559e-09
-1.40164e-08
-1.93012e-09
-1.30658e-08
-1.87992e-09
-1.21465e-08
-1.8268e-09
-1.12605e-08
-1.76602e-09
-1.04086e-08
-1.70031e-09
-9.58812e-09
-1.637e-09
-8.79411e-09
-1.57959e-09
-8.02381e-09
-1.52521e-09
-7.27772e-09
-1.47279e-09
-6.55626e-09
-1.42795e-09
-5.85867e-09
-1.39339e-09
-5.18582e-09
-1.361e-09
-4.54094e-09
-1.32024e-09
-3.92566e-09
-1.26789e-09
-3.33797e-09
-1.20763e-09
-2.77386e-09
-1.14528e-09
-2.22893e-09
-1.08851e-09
-1.69913e-09
-1.04374e-09
-1.1829e-09
-1.01019e-09
-6.82686e-10
-9.81423e-10
-2.03592e-10
-9.50446e-10
2.4908e-10
-9.1103e-10
6.72229e-10
-8.60043e-10
1.06664e-09
-8.00483e-10
1.43591e-09
-7.38383e-10
1.78479e-09
-6.79972e-10
2.11792e-09
-6.31361e-10
2.43776e-09
-5.96575e-10
2.74381e-09
-5.75522e-10
3.03396e-09
-5.61466e-10
3.30602e-09
-5.42893e-10
3.55897e-09
-5.13196e-10
3.79601e-09
-4.78835e-10
4.02508e-09
-4.52341e-10
4.24939e-09
-4.2968e-10
4.4642e-09
-4.04113e-10
4.66465e-09
-3.82946e-10
4.84689e-09
-3.64099e-10
5.01242e-09
-3.42582e-10
5.16619e-09
-3.16817e-10
5.31143e-09
-2.87868e-10
5.45078e-09
-2.62803e-10
5.58449e-09
-2.46975e-10
5.71587e-09
-2.44265e-10
5.83621e-09
-2.31828e-10
5.94519e-09
-2.15865e-10
6.04733e-09
-2.04879e-10
6.1394e-09
-1.8197e-10
6.21596e-09
-1.54789e-10
6.29033e-09
-1.52762e-10
6.32779e-09
-1.12015e-10
6.36323e-09
-8.72686e-11
6.44897e-09
-1.22949e-10
6.52416e-09
-6.35735e-11
6.61578e-09
-6.85473e-11
6.7419e-09
-1.69315e-10
6.99974e-09
-2.78583e-10
7.26046e-09
-3.21458e-10
7.39516e-09
-2.5738e-10
7.45819e-09
-2.8759e-10
7.48737e-09
-2.73374e-10
7.56588e-09
-2.36747e-10
7.64922e-09
-2.62692e-10
7.73282e-09
-2.33641e-10
7.81785e-09
-2.18274e-10
7.887e-09
-1.56951e-10
7.95101e-09
-1.30297e-10
8.00541e-09
-1.19409e-10
8.04977e-09
-9.98172e-11
8.10178e-09
-1.37368e-10
8.14213e-09
-9.22177e-11
8.1499e-09
1.35746e-11
8.17504e-09
-2.86319e-12
8.19859e-09
-9.17921e-12
8.26786e-09
-8.2635e-11
8.32509e-09
-5.13306e-11
8.35671e-09
-3.79647e-11
8.39204e-09
-9.1213e-11
8.42307e-09
-1.16084e-10
8.43606e-09
-1.12957e-10
8.41137e-09
-1.56798e-11
8.4607e-09
-1.23517e-10
8.46515e-09
-1.36394e-11
8.44438e-09
2.9253e-11
8.47083e-09
3.40017e-11
8.52768e-09
-3.79799e-11
8.55134e-09
-4.37101e-11
8.58611e-09
3.22974e-11
8.57251e-09
-1.46353e-11
8.25393e-09
2.82717e-10
8.11231e-09
1.90377e-10
8.07898e-09
8.19736e-11
7.97682e-09
4.48555e-10
8.59885e-09
-4.36679e-10
9.20071e-09
-4.79215e-10
1.14996e-08
-2.03841e-09
1.36832e-08
-2.56585e-09
1.51341e-08
-1.79241e-09
1.54498e-08
-2.31077e-09
1.48797e-08
-1.42843e-09
1.48818e-08
-9.57036e-10
1.49345e-08
-7.16329e-10
1.49372e-08
-3.11112e-10
1.48933e-08
-8.15566e-11
1.47746e-08
1.11775e-10
1.45556e-08
3.18357e-10
1.43208e-08
4.40006e-10
1.41213e-08
4.87678e-10
1.39071e-08
5.52935e-10
1.36539e-08
6.30288e-10
1.33829e-08
6.53124e-10
1.31056e-08
6.21815e-10
1.28104e-08
5.9226e-10
1.24886e-08
6.01539e-10
1.21627e-08
6.20648e-10
1.18669e-08
6.0249e-10
1.16174e-08
5.3877e-10
1.14113e-08
4.55936e-10
1.1233e-08
3.90065e-10
1.10592e-08
3.64517e-10
1.08673e-08
3.85691e-10
1.06426e-08
4.43136e-10
1.03855e-08
5.12574e-10
1.01079e-08
5.70584e-10
9.831e-09
5.97263e-10
9.57366e-09
5.89645e-10
9.34925e-09
5.53106e-10
9.16718e-09
4.91454e-10
9.03027e-09
4.07831e-10
8.94118e-09
2.99821e-10
8.89882e-09
1.68353e-10
8.89673e-09
2.54161e-11
8.9338e-09
-1.23636e-10
9.00815e-09
-2.62563e-10
9.11912e-09
-3.80659e-10
9.26628e-09
-4.70051e-10
9.44794e-09
-5.30841e-10
9.65701e-09
-5.62308e-10
9.88041e-09
-5.64671e-10
1.00974e-08
-5.32514e-10
1.02831e-08
-4.58864e-10
1.04171e-08
-3.44455e-10
1.04946e-08
-2.08345e-10
1.0527e-08
-8.11819e-11
1.05433e-08
-2.93285e-13
1.05617e-08
3.12086e-11
1.05916e-08
1.48447e-11
1.06346e-08
-3.82155e-11
1.07026e-08
-1.26358e-10
1.08061e-08
-2.502e-10
1.09572e-08
-3.87331e-10
1.11395e-08
-4.7281e-10
1.13035e-08
-4.25377e-10
1.14037e-08
-2.4001e-10
1.14464e-08
-3.63422e-11
1.14814e-08
3.75455e-11
1.15483e-08
-9.12343e-11
1.16243e-08
-2.72487e-10
1.1591e-08
-2.21724e-10
1.13867e-08
1.41684e-10
1.10763e-08
5.80977e-10
1.08716e-08
6.97085e-10
1.08596e-08
3.99626e-10
1.08348e-08
1.1309e-10
1.06031e-08
2.5924e-10
1.01846e-08
6.99869e-10
9.92949e-09
7.92379e-10
9.98632e-09
3.25359e-10
9.9746e-09
-5.99137e-11
9.72089e-09
8.33213e-11
9.49664e-09
2.89668e-10
9.58411e-09
6.81017e-13
9.61323e-09
-3.1127e-10
9.26119e-09
-1.12979e-10
8.96839e-09
2.58808e-10
8.79585e-09
4.49995e-10
8.56177e-09
3.94064e-10
8.38476e-09
6.25321e-10
8.42605e-09
3.71545e-10
1.96818e-09
-2.48326e-05
-1.72522e-06
-2.44375e-05
-1.40332e-06
-2.39727e-05
-1.51824e-06
-2.35205e-05
-1.48188e-06
-2.3021e-05
-1.4835e-06
-2.24992e-05
-1.49834e-06
-2.1971e-05
-1.5167e-06
-2.14464e-05
-1.5164e-06
-2.09282e-05
-1.51978e-06
-2.04197e-05
-1.5149e-06
-1.99194e-05
-1.49868e-06
-1.94246e-05
-1.47939e-06
-1.89317e-05
-1.46362e-06
-1.84322e-05
-1.45046e-06
-1.79441e-05
-1.43886e-06
-1.7465e-05
-1.4292e-06
-1.69874e-05
-1.4234e-06
-1.65159e-05
-1.41069e-06
-1.60527e-05
-1.38701e-06
-1.55876e-05
-1.35707e-06
-1.51062e-05
-1.3336e-06
-1.46397e-05
-1.32467e-06
-1.42035e-05
-1.31806e-06
-1.37775e-05
-1.30143e-06
-1.33275e-05
-1.27557e-06
-1.28769e-05
-1.25504e-06
-1.24427e-05
-1.22271e-06
-1.20292e-05
-1.18584e-06
-1.16457e-05
-1.16678e-06
-1.12493e-05
-1.09328e-06
-1.08799e-05
-9.82462e-07
-1.05438e-05
-9.60548e-07
-1.02434e-05
-1.01802e-06
-9.87649e-06
-1.10417e-06
-9.50765e-06
-1.04705e-06
-9.14836e-06
-9.07289e-07
-8.84717e-06
-8.78982e-07
-8.59827e-06
-8.73321e-07
-8.27145e-06
-8.94847e-07
-7.95654e-06
-8.89605e-07
-7.65028e-06
-7.59324e-07
-7.36263e-06
-7.08222e-07
-7.13671e-06
-7.49427e-07
-6.9253e-06
-7.80971e-07
-6.68019e-06
-7.22111e-07
-6.44581e-06
-6.12465e-07
-6.26591e-06
-6.04149e-07
-6.11376e-06
-5.75892e-07
-5.95055e-06
-5.33509e-07
-5.77842e-06
-5.0134e-07
-5.63042e-06
-4.99149e-07
-5.49997e-06
-4.96131e-07