/*--------------------------------*- C++ -*----------------------------------*\
| =========                 |                                                 |
| \\      /  F ield         | OpenFOAM: The Open Source CFD Toolbox           |
|  \\    /   O peration     | Version:  v2006                                 |
|   \\  /    A nd           | Website:  www.openfoam.com                      |
|    \\/     M anipulation  |                                                 |
\*---------------------------------------------------------------------------*/
FoamFile
{
    version     2.0;
    format      ascii;
    class       volVectorField;
    location    "1.7";
    object      U;
}
// * * * * * * * * * * * * * * * * * * * * * * * * * * * * * * * * * * * * * //

dimensions      [0 1 -1 0 0 0 0];


internalField   nonuniform List<vector> 
33000
(
(-0.0396153 0 -0.00184988)
(-0.0646251 0 -0.000747559)
(-0.0596562 0 -0.000801772)
(-0.0581873 0 -0.00106882)
(-0.056938 0 -0.000931366)
(-0.0557157 0 -0.000897898)
(-0.0544879 0 -0.000936784)
(-0.0532574 0 -0.000946423)
(-0.0520105 0 -0.000965288)
(-0.0507472 0 -0.000988974)
(-0.0494799 0 -0.000983423)
(-0.0482302 0 -0.000967363)
(-0.0469962 0 -0.000944)
(-0.0458058 0 -0.000905346)
(-0.0446264 0 -0.000924249)
(-0.0434226 0 -0.000935753)
(-0.0422157 0 -0.000928961)
(-0.0410188 0 -0.000917198)
(-0.0398376 0 -0.000903489)
(-0.0386944 0 -0.000850093)
(-0.0376351 0 -0.000763421)
(-0.0366044 0 -0.000792891)
(-0.0355048 0 -0.000881434)
(-0.0343654 0 -0.000869796)
(-0.0332951 0 -0.000772732)
(-0.0323051 0 -0.000729042)
(-0.0313452 0 -0.000715676)
(-0.0303818 0 -0.000741384)
(-0.0293979 0 -0.000762968)
(-0.0284794 0 -0.000653337)
(-0.0276538 0 -0.000626596)
(-0.0268207 0 -0.000671218)
(-0.0259094 0 -0.000757056)
(-0.0250125 0 -0.000592943)
(-0.0242333 0 -0.000522063)
(-0.0235551 0 -0.000478776)
(-0.0228353 0 -0.000611707)
(-0.0219863 0 -0.000757726)
(-0.0212066 0 -0.000489041)
(-0.0205708 0 -0.000436358)
(-0.0200041 0 -0.000389521)
(-0.0195063 0 -0.000368586)
(-0.0189065 0 -0.000537)
(-0.0181848 0 -0.000581073)
(-0.0175583 0 -0.000393112)
(-0.0170864 0 -0.000320616)
(-0.0165756 0 -0.000459443)
(-0.0159862 0 -0.000494776)
(-0.0154487 0 -0.000400243)
(-0.0150142 0 -0.000318668)
(-0.014589 0 -0.000360472)
(-0.0141112 0 -0.000413289)
(-0.0136232 0 -0.000408917)
(-0.013154 0 -0.000376655)
(-0.0127412 0 -0.000305295)
(-0.0123795 0 -0.00027856)
(-0.012025 0 -0.000290636)
(-0.0116987 0 -0.000224622)
(-0.0114735 0 -0.000137159)
(-0.0113095 0 -0.000127069)
(-0.0111122 0 -0.000178405)
(-0.0108743 0 -0.000192037)
(-0.0107071 0 -8.84032e-05)
(-0.0106227 0 -6.72165e-05)
(-0.0105382 0 -7.83597e-05)
(-0.0104111 0 -0.000119319)
(-0.0102336 0 -0.000159663)
(-0.0100689 0 -0.000107599)
(-0.00992408 0 -0.000119764)
(-0.00976099 0 -0.000164643)
(-0.00960074 0 -0.000150705)
(-0.00943995 0 -0.000165903)
(-0.00923724 0 -0.000230125)
(-0.00890762 0 -0.000468539)
(-0.00843552 0 -0.000575385)
(-0.0077687 0 -0.000843061)
(-0.00676934 0 -0.00126861)
(-0.00536056 0 -0.00139897)
(-0.00562371 0 -0.000662445)
(-0.00408032 0 0.000297404)
(-0.00430908 0 0.00057847)
(-0.00401603 0 0.000600583)
(-0.00429837 0 0.000227635)
(-0.00449619 0 -0.000139934)
(-0.00472461 0 -0.000172306)
(-0.00490082 0 -3.02463e-05)
(-0.00492236 0 5.73324e-05)
(-0.00500816 0 0.000243223)
(-0.00512377 0 0.000274421)
(-0.00527323 0 0.000195019)
(-0.00540827 0 0.000121281)
(-0.00553909 0 3.94766e-05)
(-0.00560641 0 3.29894e-05)
(-0.00564675 0 1.88415e-05)
(-0.00569377 0 -3.59944e-06)
(-0.00564361 0 -9.63901e-05)
(-0.00562175 0 -0.000269854)
(-0.00520258 0 -0.000405311)
(-0.00510561 0 -0.000654319)
(-0.00418364 0 -0.000375724)
(-0.00431351 0 0.000173995)
(-0.00416522 0 0.000506186)
(-0.00449091 0 0.000487625)
(-0.00458352 0 0.000100503)
(-0.00476524 0 5.1866e-05)
(-0.00502589 0 3.64532e-05)
(-0.00518565 0 8.48127e-05)
(-0.00528819 0 9.56997e-05)
(-0.00540963 0 0.000155225)
(-0.0055514 0 0.000149748)
(-0.00568126 0 0.00010263)
(-0.00579155 0 7.18045e-05)
(-0.00589648 0 2.50043e-05)
(-0.00591637 0 -3.33793e-05)
(-0.00595427 0 -0.000144541)
(-0.0056946 0 -0.000262637)
(-0.00571974 0 -0.0005353)
(-0.00486212 0 -0.000320491)
(-0.0050583 0 0.00013618)
(-0.00495392 0 0.000430855)
(-0.00523246 0 0.000436552)
(-0.00535742 0 0.000126176)
(-0.00553973 0 9.36688e-05)
(-0.00579553 0 7.38383e-05)
(-0.00595581 0 0.000107575)
(-0.00609076 0 0.000135483)
(-0.00624357 0 0.000134649)
(-0.00637731 0 0.000115535)
(-0.00651898 0 0.000109215)
(-0.00665979 0 9.56325e-05)
(-0.0067759 0 8.5174e-05)
(-0.00688917 0 9.48519e-05)
(-0.00700831 0 9.2459e-05)
(-0.00711801 0 8.66307e-05)
(-0.00722364 0 7.98507e-05)
(-0.00731857 0 7.1479e-05)
(-0.00741364 0 7.73808e-05)
(-0.00751162 0 7.46727e-05)
(-0.00760344 0 7.12075e-05)
(-0.00768959 0 6.51796e-05)
(-0.00777075 0 6.43029e-05)
(-0.0078509 0 6.2786e-05)
(-0.00792705 0 5.93312e-05)
(-0.00799849 0 5.57299e-05)
(-0.00806607 0 5.30045e-05)
(-0.00812948 0 4.92601e-05)
(-0.00818679 0 4.41363e-05)
(-0.00823852 0 4.07484e-05)
(-0.00828736 0 3.90787e-05)
(-0.00833275 0 3.60308e-05)
(-0.00837393 0 3.28606e-05)
(-0.00841068 0 2.86888e-05)
(-0.00844144 0 2.3725e-05)
(-0.00846619 0 1.96228e-05)
(-0.00848784 0 1.85969e-05)
(-0.0085072 0 1.58789e-05)
(-0.00852215 0 1.18372e-05)
(-0.00853188 0 7.82182e-06)
(-0.00853772 0 5.37321e-06)
(-0.00854095 0 3.53218e-06)
(-0.00854132 0 5.8125e-07)
(-0.00853763 0 -2.91866e-06)
(-0.00853024 0 -5.50545e-06)
(-0.00852025 0 -7.34304e-06)
(-0.00850777 0 -9.61942e-06)
(-0.00849249 0 -1.20824e-05)
(-0.00847423 0 -1.44897e-05)
(-0.00845297 0 -1.68382e-05)
(-0.00842899 0 -1.89394e-05)
(-0.00840269 0 -2.09215e-05)
(-0.00837383 0 -2.31688e-05)
(-0.00834198 0 -2.54777e-05)
(-0.00830737 0 -2.7619e-05)
(-0.00827028 0 -2.95981e-05)
(-0.00823066 0 -3.15934e-05)
(-0.00818837 0 -3.3649e-05)
(-0.00814353 0 -3.55668e-05)
(-0.00809631 0 -3.74083e-05)
(-0.00804672 0 -3.92055e-05)
(-0.00799478 0 -4.09559e-05)
(-0.00794058 0 -4.26562e-05)
(-0.00788424 0 -4.4313e-05)
(-0.00782577 0 -4.59666e-05)
(-0.00776526 0 -4.75286e-05)
(-0.00770279 0 -4.91043e-05)
(-0.0076384 0 -5.05548e-05)
(-0.00757232 0 -5.17961e-05)
(-0.00750468 0 -5.30454e-05)
(-0.00743547 0 -5.4314e-05)
(-0.00736479 0 -5.54224e-05)
(-0.00729287 0 -5.6469e-05)
(-0.00721976 0 -5.74999e-05)
(-0.00714553 0 -5.8474e-05)
(-0.00707025 0 -5.93861e-05)
(-0.006994 0 -6.0205e-05)
(-0.00691688 0 -6.09319e-05)
(-0.00683895 0 -6.16153e-05)
(-0.0067603 0 -6.2224e-05)
(-0.00668101 0 -6.27637e-05)
(-0.00660113 0 -6.32927e-05)
(-0.00652064 0 -6.37856e-05)
(-0.00643958 0 -6.42131e-05)
(-0.00635803 0 -6.45767e-05)
(-0.00627604 0 -6.48782e-05)
(-0.0061937 0 -6.51118e-05)
(-0.00611108 0 -6.52838e-05)
(-0.00602827 0 -6.5432e-05)
(-0.0059453 0 -6.5582e-05)
(-0.00586217 0 -6.57302e-05)
(-0.0057789 0 -6.5871e-05)
(-0.0056955 0 -6.59826e-05)
(-0.00561207 0 -6.59824e-05)
(-0.00552873 0 -6.58689e-05)
(-0.00544558 0 -6.57033e-05)
(-0.00536264 0 -6.54607e-05)
(-0.00527997 0 -6.5147e-05)
(-0.00519763 0 -6.48112e-05)
(-0.00511559 0 -6.45425e-05)
(-0.00503383 0 -6.43323e-05)
(-0.00495239 0 -6.41315e-05)
(-0.00487134 0 -6.39087e-05)
(-0.00479077 0 -6.36559e-05)
(-0.00471069 0 -6.33577e-05)
(-0.00463114 0 -6.29628e-05)
(-0.00455217 0 -6.24911e-05)
(-0.00447378 0 -6.19752e-05)
(-0.00439597 0 -6.14562e-05)
(-0.0043187 0 -6.09598e-05)
(-0.00424196 0 -6.04771e-05)
(-0.00416576 0 -6.0028e-05)
(-0.00409012 0 -5.96065e-05)
(-0.00401506 0 -5.91641e-05)
(-0.00394065 0 -5.87034e-05)
(-0.00386693 0 -5.82097e-05)
(-0.0037939 0 -5.76666e-05)
(-0.00372159 0 -5.70705e-05)
(-0.00365005 0 -5.64238e-05)
(-0.00357929 0 -5.5769e-05)
(-0.00350934 0 -5.51526e-05)
(-0.00344016 0 -5.45949e-05)
(-0.0033717 0 -5.40614e-05)
(-0.00330397 0 -5.35192e-05)
(-0.00323695 0 -5.29467e-05)
(-0.00317065 0 -5.23133e-05)
(-0.00310511 0 -5.16339e-05)
(-0.00304037 0 -5.09368e-05)
(-0.00297645 0 -5.02495e-05)
(-0.00291335 0 -4.95827e-05)
(-0.00285108 0 -4.89136e-05)
(-0.00278966 0 -4.82251e-05)
(-0.00272912 0 -4.75306e-05)
(-0.00266946 0 -4.68465e-05)
(-0.00261065 0 -4.61722e-05)
(-0.00255267 0 -4.54857e-05)
(-0.00249556 0 -4.47872e-05)
(-0.00243931 0 -4.411e-05)
(-0.00238388 0 -4.35053e-05)
(-0.00232922 0 -4.29406e-05)
(-0.00227529 0 -4.23805e-05)
(-0.00222212 0 -4.1781e-05)
(-0.00216976 0 -4.11323e-05)
(-0.00211825 0 -4.04488e-05)
(-0.00206762 0 -3.97471e-05)
(-0.00201786 0 -3.90393e-05)
(-0.00196897 0 -3.83388e-05)
(-0.00192093 0 -3.76576e-05)
(-0.00187373 0 -3.69922e-05)
(-0.00182735 0 -3.63337e-05)
(-0.0017818 0 -3.56834e-05)
(-0.00173709 0 -3.50496e-05)
(-0.0016932 0 -3.44283e-05)
(-0.00165012 0 -3.37991e-05)
(-0.00160785 0 -3.31517e-05)
(-0.0015664 0 -3.2497e-05)
(-0.00152578 0 -3.18427e-05)
(-0.00148597 0 -3.11881e-05)
(-0.00144698 0 -3.05296e-05)
(-0.00140882 0 -2.98672e-05)
(-0.00137147 0 -2.92004e-05)
(-0.00133494 0 -2.85284e-05)
(-0.00129923 0 -2.78625e-05)
(-0.00126431 0 -2.72263e-05)
(-0.00123016 0 -2.66387e-05)
(-0.00119672 0 -2.60988e-05)
(-0.00116396 0 -2.55866e-05)
(-0.00113186 0 -2.5092e-05)
(-0.00110039 0 -2.46095e-05)
(-0.00106953 0 -2.41418e-05)
(-0.00103928 0 -2.36852e-05)
(-0.00100962 0 -2.32313e-05)
(-0.00098056 0 -2.2771e-05)
(-0.000952101 0 -2.23002e-05)
(-0.000924259 0 -2.18161e-05)
(-0.000897048 0 -2.13112e-05)
(-0.000870489 0 -2.07831e-05)
(-0.000844599 0 -2.02388e-05)
(-0.000819385 0 -1.96923e-05)
(-0.000794841 0 -1.91573e-05)
(-0.00077095 0 -1.86382e-05)
(-0.000747697 0 -1.81323e-05)
(-0.000725066 0 -1.76385e-05)
(-0.000703039 0 -1.71611e-05)
(-0.000681593 0 -1.67066e-05)
(-0.000660697 0 -1.6282e-05)
(-0.000640315 0 -1.58902e-05)
(-0.000620413 0 -1.55263e-05)
(-0.000600965 0 -1.51823e-05)
(-0.000581953 0 -1.4851e-05)
(-0.000563366 0 -1.45259e-05)
(-0.000545198 0 -1.42022e-05)
(-0.000527449 0 -1.38758e-05)
(-0.000510121 0 -1.35441e-05)
(-0.000493219 0 -1.32064e-05)
(-0.000476745 0 -1.28653e-05)
(-0.000460699 0 -1.25256e-05)
(-0.000445076 0 -1.21921e-05)
(-0.000429867 0 -1.18681e-05)
(-0.000415058 0 -1.15543e-05)
(-0.000400638 0 -1.12487e-05)
(-0.000386595 0 -1.09489e-05)
(-0.000372925 0 -1.0655e-05)
(-0.000359622 0 -1.03703e-05)
(-0.000346683 0 -1.00982e-05)
(-0.000334097 0 -9.83527e-06)
(-0.000321858 0 -9.56892e-06)
(-0.000309971 0 -9.28262e-06)
(-0.000298454 0 -8.9708e-06)
(-0.000287327 0 -8.64881e-06)
(-0.000276592 0 -8.34115e-06)
(-0.000266223 0 -8.06059e-06)
(-0.000256186 0 -7.79999e-06)
(-0.000246457 0 -7.54945e-06)
(-0.000237022 0 -7.31592e-06)
(-0.000227861 0 -7.11764e-06)
(-0.000218934 0 -6.95741e-06)
(-0.000210208 0 -6.81058e-06)
(-0.000201684 0 -6.64352e-06)
(-0.000193397 0 -6.44892e-06)
(-0.000185374 0 -6.24551e-06)
(-0.000177613 0 -6.0437e-06)
(-0.000170111 0 -5.83195e-06)
(-0.000162877 0 -5.59955e-06)
(-0.00015593 0 -5.3594e-06)
(-0.000149267 0 -5.13827e-06)
(-0.000142857 0 -4.94759e-06)
(-0.000136673 0 -4.77778e-06)
(-0.000130697 0 -4.62092e-06)
(-0.000124917 0 -4.4818e-06)
(-0.000119309 0 -4.36083e-06)
(-0.00011386 0 -4.24383e-06)
(-0.000108574 0 -4.11655e-06)
(-0.000103465 0 -3.97667e-06)
(-9.85422e-05 0 -3.82481e-06)
(-9.38154e-05 0 -3.65847e-06)
(-8.9299e-05 0 -3.48309e-06)
(-8.49934e-05 0 -3.31668e-06)
(-8.08745e-05 0 -3.17403e-06)
(-7.69096e-05 0 -3.05431e-06)
(-7.30767e-05 0 -2.95163e-06)
(-6.93632e-05 0 -2.86704e-06)
(-6.57543e-05 0 -2.80067e-06)
(-6.22382e-05 0 -2.73882e-06)
(-5.88204e-05 0 -2.66033e-06)
(-5.55239e-05 0 -2.55582e-06)
(-5.23718e-05 0 -2.43381e-06)
(-4.93719e-05 0 -2.30948e-06)
(-4.65185e-05 0 -2.19155e-06)
(-4.37994e-05 0 -2.08404e-06)
(-4.11987e-05 0 -1.99318e-06)
(-3.86935e-05 0 -1.92637e-06)
(-3.6258e-05 0 -1.88306e-06)
(-3.38746e-05 0 -1.85057e-06)
(-3.15431e-05 0 -1.81234e-06)
(-2.92773e-05 0 -1.76005e-06)
(-2.70926e-05 0 -1.69749e-06)
(-2.49941e-05 0 -1.63248e-06)
(-2.29779e-05 0 -1.56676e-06)
(-2.10418e-05 0 -1.4988e-06)
(-1.91852e-05 0 -1.43615e-06)
(-1.73947e-05 0 -1.39421e-06)
(-1.56424e-05 0 -1.3782e-06)
(-1.3908e-05 0 -1.37443e-06)
(-1.21952e-05 0 -1.36361e-06)
(-1.05254e-05 0 -1.32997e-06)
(-8.9248e-06 0 -1.26753e-06)
(-7.41525e-06 0 -1.18274e-06)
(-6.00397e-06 0 -1.09493e-06)
(-4.67723e-06 0 -1.02374e-06)
(-3.40945e-06 0 -9.76501e-07)
(-2.17856e-06 0 -9.50857e-07)
(-9.71219e-07 0 -9.38509e-07)
(2.13252e-07 0 -9.24258e-07)
(1.35837e-06 0 -8.9243e-07)
(2.43827e-06 0 -8.3671e-07)
(3.43176e-06 0 -7.61141e-07)
(4.32872e-06 0 -6.75425e-07)
(5.13342e-06 0 -5.95349e-07)
(5.86686e-06 0 -5.41487e-07)
(6.56426e-06 0 -5.27242e-07)
(7.26107e-06 0 -5.40905e-07)
(7.96644e-06 0 -5.52121e-07)
(8.65975e-06 0 -5.39638e-07)
(9.31087e-06 0 -5.05553e-07)
(9.91113e-06 0 -4.64057e-07)
(1.0468e-05 0 -4.17186e-07)
(1.09768e-05 0 -3.75011e-07)
(1.14523e-05 0 -3.62938e-07)
(1.19247e-05 0 -3.73649e-07)
(1.23955e-05 0 -3.75335e-07)
(1.28427e-05 0 -3.49889e-07)
(1.32427e-05 0 -3.02205e-07)
(1.35872e-05 0 -2.53284e-07)
(1.38896e-05 0 -2.22229e-07)
(1.41819e-05 0 -2.17949e-07)
(1.44799e-05 0 -2.17479e-07)
(1.47628e-05 0 -2.223e-07)
(1.50404e-05 0 -2.21024e-07)
(1.52985e-05 0 -2.02459e-07)
(1.55159e-05 0 -1.63328e-07)
(1.57135e-05 0 -1.59052e-07)
(1.59327e-05 0 -1.3268e-07)
(1.60998e-05 0 -1.13508e-07)
(1.62222e-05 0 -9.28825e-08)
(1.62904e-05 0 -1.03381e-07)
(1.61839e-05 0 4.04909e-09)
(1.62046e-05 0 6.7296e-09)
(1.64028e-05 0 3.36428e-07)
(1.62956e-05 0 2.11758e-07)
(1.6798e-05 0 -2.11601e-07)
(1.67754e-05 0 -6.03675e-07)
(1.80254e-05 0 -7.1161e-07)
(1.8053e-05 0 -3.81991e-07)
(1.87154e-05 0 -4.41656e-07)
(1.90219e-05 0 -3.572e-07)
(1.94307e-05 0 -3.11324e-07)
(1.97061e-05 0 -1.95156e-07)
(1.98601e-05 0 -1.30902e-07)
(2.00437e-05 0 -1.24775e-07)
(2.01778e-05 0 -9.59076e-08)
(2.03258e-05 0 -1.89023e-07)
(2.0603e-05 0 -1.18172e-07)
(2.05749e-05 0 2.20486e-08)
(2.05103e-05 0 4.45462e-08)
(2.04471e-05 0 5.30453e-08)
(2.04543e-05 0 5.80351e-08)
(2.04966e-05 0 1.02614e-07)
(2.04435e-05 0 1.91282e-08)
(2.05235e-05 0 -1.13016e-07)
(2.07211e-05 0 -2.11939e-07)
(2.09952e-05 0 -2.83865e-07)
(2.11697e-05 0 -1.4412e-07)
(2.12772e-05 0 -1.51784e-07)
(2.14891e-05 0 8.32464e-09)
(2.13939e-05 0 3.43953e-08)
(2.14156e-05 0 1.88403e-07)
(2.11391e-05 0 7.01712e-08)
(2.13181e-05 0 -1.82809e-07)
(2.12464e-05 0 1.8794e-07)
(2.10007e-05 0 -9.38274e-08)
(2.14081e-05 0 5.63802e-08)
(2.11232e-05 0 2.03949e-07)
(2.12908e-05 0 7.15792e-08)
(2.07094e-05 0 -3.50927e-07)
(1.97314e-05 0 3.6663e-08)
(1.97169e-05 0 3.19135e-07)
(1.91678e-05 0 2.75163e-06)
(1.83494e-05 0 1.32388e-06)
(2.14921e-05 0 5.41009e-07)
(1.93872e-05 0 -3.13147e-06)
(3.24628e-05 0 -6.11967e-06)
(3.144e-05 0 -2.52717e-06)
(3.41111e-05 0 -1.72212e-06)
(3.53388e-05 0 -8.91887e-07)
(3.58989e-05 0 -4.59818e-07)
(3.60975e-05 0 -2.19223e-07)
(3.60183e-05 0 2.90987e-08)
(3.56686e-05 0 3.2538e-07)
(3.50813e-05 0 5.54077e-07)
(3.43303e-05 0 6.74451e-07)
(3.34659e-05 0 7.40359e-07)
(3.25384e-05 0 7.4244e-07)
(3.16571e-05 0 6.51255e-07)
(3.08922e-05 0 5.31085e-07)
(3.02045e-05 0 4.85385e-07)
(2.95149e-05 0 5.20903e-07)
(2.87876e-05 0 5.60103e-07)
(2.80611e-05 0 5.42423e-07)
(2.74023e-05 0 4.73012e-07)
(2.68489e-05 0 3.97654e-07)
(2.63703e-05 0 3.52032e-07)
(2.59059e-05 0 3.54266e-07)
(2.54057e-05 0 4.01323e-07)
(2.48243e-05 0 4.75622e-07)
(2.41448e-05 0 5.57408e-07)
(2.33837e-05 0 6.23848e-07)
(2.25707e-05 0 6.64327e-07)
(2.17452e-05 0 6.7608e-07)
(2.09467e-05 0 6.57315e-07)
(2.0218e-05 0 5.93101e-07)
(1.96107e-05 0 4.78913e-07)
(1.91782e-05 0 3.00373e-07)
(1.89888e-05 0 7.407e-08)
(1.90668e-05 0 -1.79969e-07)
(1.9412e-05 0 -4.15815e-07)
(1.99931e-05 0 -6.02126e-07)
(2.07352e-05 0 -7.16979e-07)
(2.15751e-05 0 -7.62055e-07)
(2.24506e-05 0 -7.53823e-07)
(2.33161e-05 0 -7.1178e-07)
(2.41348e-05 0 -6.47816e-07)
(2.48682e-05 0 -5.57076e-07)
(2.5475e-05 0 -4.3064e-07)
(2.59003e-05 0 -2.65545e-07)
(2.61116e-05 0 -8.73712e-08)
(2.61335e-05 0 6.57771e-08)
(2.60337e-05 0 1.59188e-07)
(2.58997e-05 0 1.64892e-07)
(2.5817e-05 0 8.38888e-08)
(2.58641e-05 0 -6.89554e-08)
(2.61078e-05 0 -2.65792e-07)
(2.65795e-05 0 -4.66016e-07)
(2.7232e-05 0 -5.87305e-07)
(2.79133e-05 0 -5.25963e-07)
(2.84127e-05 0 -2.55054e-07)
(2.85529e-05 0 8.30893e-08)
(2.84161e-05 0 2.7398e-07)
(2.83199e-05 0 1.00118e-07)
(2.85804e-05 0 -3.58255e-07)
(2.91533e-05 0 -5.9863e-07)
(2.95625e-05 0 -2.92834e-07)
(2.92908e-05 0 5.33748e-07)
(2.82499e-05 0 1.16806e-06)
(2.70528e-05 0 1.11345e-06)
(2.6434e-05 0 3.98326e-07)
(2.6331e-05 0 1.93801e-08)
(2.59579e-05 0 5.00885e-07)
(2.48496e-05 0 1.23271e-06)
(2.35205e-05 0 1.157e-06)
(2.30863e-05 0 9.92969e-08)
(2.35032e-05 0 -4.54307e-07)
(2.36129e-05 0 5.99715e-08)
(2.32438e-05 0 4.185e-07)
(2.34028e-05 0 -5.0945e-07)
(2.44494e-05 0 -1.34715e-06)
(2.50974e-05 0 -3.14948e-07)
(2.46301e-05 0 7.09953e-07)
(2.40578e-05 0 3.75158e-07)
(2.30524e-05 0 1.09342e-06)
(2.42116e-05 0 1.27181e-06)
(1.31905e-05 0 2.16649e-06)
(-0.0412634 0 -0.00424963)
(-0.0655054 0 -0.00287245)
(-0.060316 0 -0.00293828)
(-0.0588288 0 -0.00312154)
(-0.0575735 0 -0.00289151)
(-0.0563045 0 -0.00283902)
(-0.0550331 0 -0.00289373)
(-0.0537759 0 -0.00290841)
(-0.0525063 0 -0.0029434)
(-0.0512374 0 -0.00297949)
(-0.0499801 0 -0.00295614)
(-0.0487347 0 -0.00290959)
(-0.0474987 0 -0.00285761)
(-0.0462716 0 -0.00278234)
(-0.0450561 0 -0.00280514)
(-0.0438567 0 -0.00281428)
(-0.0426682 0 -0.00280031)
(-0.0414836 0 -0.00277775)
(-0.0403106 0 -0.00273269)
(-0.0391589 0 -0.00261461)
(-0.0380167 0 -0.00244871)
(-0.0368828 0 -0.00249205)
(-0.0357735 0 -0.00262748)
(-0.0346877 0 -0.00260144)
(-0.0336091 0 -0.00240175)
(-0.0325388 0 -0.00231598)
(-0.0314849 0 -0.00227031)
(-0.0304739 0 -0.00226124)
(-0.0294861 0 -0.00230421)
(-0.0285358 0 -0.0020113)
(-0.0277185 0 -0.00181079)
(-0.0269819 0 -0.0018815)
(-0.0261862 0 -0.00217296)
(-0.0252348 0 -0.00206416)
(-0.024225 0 -0.00184597)
(-0.0234011 0 -0.0015341)
(-0.0226807 0 -0.00173739)
(-0.0220211 0 -0.00197114)
(-0.0213005 0 -0.00159663)
(-0.0205033 0 -0.00155559)
(-0.0197981 0 -0.00125026)
(-0.0192258 0 -0.00115904)
(-0.0186249 0 -0.00157541)
(-0.0179803 0 -0.00170868)
(-0.0172992 0 -0.00132167)
(-0.016742 0 -0.00105445)
(-0.0162408 0 -0.00129762)
(-0.015773 0 -0.00133476)
(-0.0153255 0 -0.00112435)
(-0.0149091 0 -0.000959994)
(-0.0144878 0 -0.00105599)
(-0.014072 0 -0.0011392)
(-0.0136682 0 -0.00110766)
(-0.0132717 0 -0.0010475)
(-0.0128852 0 -0.000908075)
(-0.0125285 0 -0.00081358)
(-0.0121884 0 -0.0008405)
(-0.0118613 0 -0.000706669)
(-0.0116019 0 -0.000438638)
(-0.0113986 0 -0.000387305)
(-0.0111744 0 -0.000545215)
(-0.0109378 0 -0.000583938)
(-0.0107829 0 -0.000227833)
(-0.0107107 0 -0.000156945)
(-0.0106354 0 -0.000186341)
(-0.0105094 0 -0.000379766)
(-0.0103549 0 -0.000450771)
(-0.0102008 0 -0.000351782)
(-0.0100327 0 -0.000366025)
(-0.00989831 0 -0.000370204)
(-0.00981508 0 -0.000304073)
(-0.00970967 0 -0.000422826)
(-0.00954353 0 -0.000565066)
(-0.00937829 0 -0.00093747)
(-0.00921555 0 -0.0010524)
(-0.00904835 0 -0.001537)
(-0.0089955 0 -0.00224081)
(-0.00887608 0 -0.00216347)
(-0.00807888 0 -0.00188262)
(-0.00744311 0 -0.00152989)
(-0.00613109 0 -0.000825488)
(-0.00680188 0 -0.000423084)
(-0.00482294 0 0.000495975)
(-0.00502689 0 0.000722246)
(-0.00450417 0 0.000708361)
(-0.00446973 0 0.000433761)
(-0.00466945 0 7.3072e-05)
(-0.00486401 0 0.000167981)
(-0.00529892 0 0.000130618)
(-0.00545915 0 0.000293216)
(-0.00552888 0 0.000279792)
(-0.00556756 0 0.000285007)
(-0.00563768 0 0.000145647)
(-0.00574146 0 0.000121029)
(-0.00585505 0 3.19802e-05)
(-0.00594159 0 -6.2618e-05)
(-0.00602194 0 -0.000305428)
(-0.00610567 0 -0.000535288)
(-0.00619225 0 -0.000841278)
(-0.00640026 0 -0.00076587)
(-0.00606115 0 -0.000352394)
(-0.0059934 0 -0.000171891)
(-0.00499313 0 9.09781e-05)
(-0.00511122 0 0.000340281)
(-0.004876 0 0.000679254)
(-0.00502728 0 0.000676416)
(-0.0050801 0 0.000325924)
(-0.00520057 0 0.000260358)
(-0.00538251 0 0.000238459)
(-0.00563756 0 0.00027039)
(-0.00578576 0 0.000259831)
(-0.00588248 0 0.000267403)
(-0.0060073 0 0.000196654)
(-0.00609717 0 7.74318e-05)
(-0.00622076 0 -8.02466e-05)
(-0.006336 0 -0.000291772)
(-0.00646936 0 -0.000624678)
(-0.00668942 0 -0.000563826)
(-0.0064942 0 -0.000204668)
(-0.00653155 0 -0.000134005)
(-0.00559336 0 0.000104478)
(-0.00576118 0 0.000319003)
(-0.0056058 0 0.000649629)
(-0.00577989 0 0.000629179)
(-0.00586545 0 0.000337698)
(-0.00604153 0 0.000324842)
(-0.00627118 0 0.000295759)
(-0.0064176 0 0.000314177)
(-0.00653105 0 0.000339095)
(-0.00666337 0 0.000317869)
(-0.00677924 0 0.000268849)
(-0.006899 0 0.000278081)
(-0.00701925 0 0.000264736)
(-0.00712766 0 0.000252829)
(-0.00722929 0 0.000239331)
(-0.00732862 0 0.000224047)
(-0.00742657 0 0.000233664)
(-0.00752105 0 0.000223209)
(-0.00761156 0 0.000212994)
(-0.00769922 0 0.000197723)
(-0.00778323 0 0.000193316)
(-0.00786292 0 0.00018635)
(-0.00793669 0 0.000175395)
(-0.00800775 0 0.000166838)
(-0.00807559 0 0.000157581)
(-0.00813718 0 0.000145927)
(-0.00819397 0 0.000132296)
(-0.00824697 0 0.000123039)
(-0.00829618 0 0.000116179)
(-0.00834058 0 0.000106188)
(-0.00838028 0 9.65393e-05)
(-0.00841543 0 8.50369e-05)
(-0.0084461 0 7.15073e-05)
(-0.00847235 0 5.99408e-05)
(-0.00849442 0 5.45496e-05)
(-0.00851237 0 4.59493e-05)
(-0.00852653 0 3.5004e-05)
(-0.00853681 0 2.37591e-05)
(-0.00854334 0 1.59539e-05)
(-0.00854632 0 9.31843e-06)
(-0.0085461 0 8.99425e-07)
(-0.0085429 0 -8.78752e-06)
(-0.00853645 0 -1.65984e-05)
(-0.00852668 0 -2.29858e-05)
(-0.00851404 0 -2.98082e-05)
(-0.00849913 0 -3.6802e-05)
(-0.00848107 0 -4.45109e-05)
(-0.00845949 0 -5.1637e-05)
(-0.0084353 0 -5.79125e-05)
(-0.00840923 0 -6.35189e-05)
(-0.00838042 0 -7.05779e-05)
(-0.00834813 0 -7.74933e-05)
(-0.00831325 0 -8.36532e-05)
(-0.00827628 0 -8.93592e-05)
(-0.00823653 0 -9.57058e-05)
(-0.00819371 0 -0.000101779)
(-0.00814848 0 -0.00010741)
(-0.00810102 0 -0.000112791)
(-0.00805113 0 -0.000118314)
(-0.00799869 0 -0.000123595)
(-0.00794402 0 -0.000128617)
(-0.00788726 0 -0.000133463)
(-0.00782839 0 -0.000138248)
(-0.00776749 0 -0.000142762)
(-0.00770473 0 -0.000147258)
(-0.00764019 0 -0.000151521)
(-0.00757389 0 -0.000155388)
(-0.00750591 0 -0.000159196)
(-0.00743644 0 -0.00016297)
(-0.00736561 0 -0.000166325)
(-0.00729353 0 -0.000169448)
(-0.00722031 0 -0.000172407)
(-0.00714603 0 -0.000175231)
(-0.00707075 0 -0.000177917)
(-0.00699448 0 -0.000180397)
(-0.00691727 0 -0.000182641)
(-0.0068392 0 -0.000184717)
(-0.00676039 0 -0.000186544)
(-0.00668093 0 -0.000188173)
(-0.00660085 0 -0.000189727)
(-0.0065202 0 -0.000191176)
(-0.00643902 0 -0.000192459)
(-0.00635732 0 -0.000193585)
(-0.00627516 0 -0.000194497)
(-0.00619262 0 -0.000195193)
(-0.00610977 0 -0.000195668)
(-0.00602678 0 -0.000195957)
(-0.00594377 0 -0.000196187)
(-0.00586073 0 -0.000196464)
(-0.00577763 0 -0.00019669)
(-0.00569452 0 -0.000196842)
(-0.00561139 0 -0.000196792)
(-0.00552826 0 -0.00019652)
(-0.00544518 0 -0.000196125)
(-0.0053622 0 -0.000195563)
(-0.00527938 0 -0.000194828)
(-0.0051968 0 -0.000193996)
(-0.00511453 0 -0.0001932)
(-0.00503263 0 -0.00019243)
(-0.00495114 0 -0.000191598)
(-0.00487012 0 -0.000190678)
(-0.00478958 0 -0.000189693)
(-0.00470953 0 -0.000188641)
(-0.00462998 0 -0.000187445)
(-0.00455094 0 -0.000186135)
(-0.00447241 0 -0.000184796)
(-0.00439442 0 -0.000183439)
(-0.00431695 0 -0.000182125)
(-0.00424004 0 -0.000180741)
(-0.00416375 0 -0.000179309)
(-0.00408813 0 -0.000177856)
(-0.00401318 0 -0.000176346)
(-0.00393894 0 -0.000174796)
(-0.0038654 0 -0.000173254)
(-0.0037925 0 -0.000171745)
(-0.00372019 0 -0.00017017)
(-0.00364851 0 -0.000168507)
(-0.00357747 0 -0.000166754)
(-0.0035072 0 -0.00016489)
(-0.00343778 0 -0.000163075)
(-0.00336922 0 -0.000161251)
(-0.00330152 0 -0.000159441)
(-0.00323463 0 -0.000157649)
(-0.0031685 0 -0.000155815)
(-0.0031031 0 -0.00015393)
(-0.00303845 0 -0.00015199)
(-0.00297458 0 -0.00015005)
(-0.00291149 0 -0.000148113)
(-0.00284922 0 -0.000146136)
(-0.00278776 0 -0.000144109)
(-0.00272712 0 -0.00014206)
(-0.00266732 0 -0.000140032)
(-0.00260833 0 -0.000138035)
(-0.00255016 0 -0.000136029)
(-0.00249282 0 -0.000133997)
(-0.00243635 0 -0.000131982)
(-0.00238077 0 -0.000130084)
(-0.00232609 0 -0.000128254)
(-0.00227227 0 -0.000126438)
(-0.00221929 0 -0.000124555)
(-0.00216713 0 -0.000122588)
(-0.00211579 0 -0.000120575)
(-0.00206526 0 -0.000118543)
(-0.00201556 0 -0.000116502)
(-0.00196669 0 -0.000114463)
(-0.00191866 0 -0.000112451)
(-0.00187147 0 -0.000110474)
(-0.0018251 0 -0.000108515)
(-0.00177955 0 -0.00010657)
(-0.00173483 0 -0.000104644)
(-0.00169094 0 -0.000102729)
(-0.0016479 0 -0.00010079)
(-0.00160571 0 -9.88166e-05)
(-0.00156437 0 -9.68375e-05)
(-0.00152386 0 -9.48701e-05)
(-0.00148417 0 -9.29137e-05)
(-0.00144529 0 -9.09554e-05)
(-0.0014072 0 -8.90014e-05)
(-0.00136988 0 -8.70562e-05)
(-0.00133332 0 -8.51228e-05)
(-0.00129752 0 -8.32154e-05)
(-0.00126248 0 -8.13706e-05)
(-0.00122818 0 -7.96244e-05)
(-0.0011946 0 -7.79826e-05)
(-0.00116174 0 -7.6412e-05)
(-0.00112956 0 -7.48923e-05)
(-0.00109806 0 -7.34102e-05)
(-0.00106721 0 -7.19679e-05)
(-0.00103701 0 -7.05559e-05)
(-0.00100745 0 -6.91536e-05)
(-0.000978523 0 -6.77391e-05)
(-0.000950234 0 -6.63e-05)
(-0.000922583 0 -6.48289e-05)
(-0.000895565 0 -6.3318e-05)
(-0.000869178 0 -6.17688e-05)
(-0.000843418 0 -6.01956e-05)
(-0.000818283 0 -5.86229e-05)
(-0.000793772 0 -5.70745e-05)
(-0.000769877 0 -5.55605e-05)
(-0.000746587 0 -5.4082e-05)
(-0.000723887 0 -5.2642e-05)
(-0.000701762 0 -5.12517e-05)
(-0.000680192 0 -4.99263e-05)
(-0.000659159 0 -4.86768e-05)
(-0.000638642 0 -4.75042e-05)
(-0.000618623 0 -4.63959e-05)
(-0.000599087 0 -4.53353e-05)
(-0.000580022 0 -4.43073e-05)
(-0.000561418 0 -4.3298e-05)
(-0.000543267 0 -4.22978e-05)
(-0.000525562 0 -4.12987e-05)
(-0.000508296 0 -4.02962e-05)
(-0.000491462 0 -3.92894e-05)
(-0.000475053 0 -3.82819e-05)
(-0.000459063 0 -3.7281e-05)
(-0.000443486 0 -3.62956e-05)
(-0.000428316 0 -3.53346e-05)
(-0.000413546 0 -3.44037e-05)
(-0.000399165 0 -3.35023e-05)
(-0.000385164 0 -3.26227e-05)
(-0.000371536 0 -3.17543e-05)
(-0.000358281 0 -3.08922e-05)
(-0.000345406 0 -3.004e-05)
(-0.000332916 0 -2.92024e-05)
(-0.000320805 0 -2.83718e-05)
(-0.000309059 0 -2.75238e-05)
(-0.000297664 0 -2.66374e-05)
(-0.000286615 0 -2.5725e-05)
(-0.000275911 0 -2.48325e-05)
(-0.000265547 0 -2.40045e-05)
(-0.000255499 0 -2.3247e-05)
(-0.000245742 0 -2.25363e-05)
(-0.000236263 0 -2.18626e-05)
(-0.000227063 0 -2.12488e-05)
(-0.000218139 0 -2.07112e-05)
(-0.000209473 0 -2.02135e-05)
(-0.000201051 0 -1.96836e-05)
(-0.000192881 0 -1.90882e-05)
(-0.00018498 0 -1.84603e-05)
(-0.000177351 0 -1.78399e-05)
(-0.000169979 0 -1.72212e-05)
(-0.000162849 0 -1.65785e-05)
(-0.000155958 0 -1.59222e-05)
(-0.000149308 0 -1.53016e-05)
(-0.00014289 0 -1.47481e-05)
(-0.000136688 0 -1.42471e-05)
(-0.000130695 0 -1.37781e-05)
(-0.000124912 0 -1.33462e-05)
(-0.000119329 0 -1.29521e-05)
(-0.000113939 0 -1.2567e-05)
(-0.000108738 0 -1.21627e-05)
(-0.000103725 0 -1.17384e-05)
(-9.88914e-05 0 -1.12979e-05)
(-9.42292e-05 0 -1.0833e-05)
(-8.97387e-05 0 -1.03518e-05)
(-8.54172e-05 0 -9.89626e-06)
(-8.12495e-05 0 -9.50493e-06)
(-7.72159e-05 0 -9.17607e-06)
(-7.33073e-05 0 -8.8845e-06)
(-6.95277e-05 0 -8.61762e-06)
(-6.58822e-05 0 -8.37333e-06)
(-6.237e-05 0 -8.13308e-06)
(-5.89889e-05 0 -7.86308e-06)
(-5.57396e-05 0 -7.54603e-06)
(-5.26229e-05 0 -7.19804e-06)
(-4.96338e-05 0 -6.85097e-06)
(-4.67614e-05 0 -6.52798e-06)
(-4.39944e-05 0 -6.24073e-06)
(-4.13247e-05 0 -5.99903e-06)
(-3.8746e-05 0 -5.80988e-06)
(-3.6252e-05 0 -5.6652e-06)
(-3.3837e-05 0 -5.53776e-06)
(-3.14987e-05 0 -5.39547e-06)
(-2.92407e-05 0 -5.22259e-06)
(-2.70686e-05 0 -5.02904e-06)
(-2.49809e-05 0 -4.83617e-06)
(-2.29657e-05 0 -4.65256e-06)
(-2.10106e-05 0 -4.47372e-06)
(-1.91141e-05 0 -4.30952e-06)
(-1.72799e-05 0 -4.18841e-06)
(-1.55064e-05 0 -4.11719e-06)
(-1.37916e-05 0 -4.05892e-06)
(-1.21421e-05 0 -3.96836e-06)
(-1.0567e-05 0 -3.82416e-06)
(-9.06553e-06 0 -3.63275e-06)
(-7.62834e-06 0 -3.41736e-06)
(-6.2448e-06 0 -3.21489e-06)
(-4.90354e-06 0 -3.0581e-06)
(-3.59576e-06 0 -2.95233e-06)
(-2.32254e-06 0 -2.88046e-06)
(-1.09488e-06 0 -2.81684e-06)
(7.28201e-08 0 -2.72976e-06)
(1.16841e-06 0 -2.59359e-06)
(2.18864e-06 0 -2.4081e-06)
(3.14057e-06 0 -2.19459e-06)
(4.03515e-06 0 -1.98332e-06)
(4.88512e-06 0 -1.80704e-06)
(5.70084e-06 0 -1.69304e-06)
(6.48431e-06 0 -1.64971e-06)
(7.23104e-06 0 -1.64813e-06)
(7.93501e-06 0 -1.63007e-06)
(8.59147e-06 0 -1.55661e-06)
(9.19987e-06 0 -1.44359e-06)
(9.77712e-06 0 -1.33842e-06)
(1.03455e-05 0 -1.24438e-06)
(1.08982e-05 0 -1.15992e-06)
(1.14198e-05 0 -1.11659e-06)
(1.18999e-05 0 -1.09751e-06)
(1.23313e-05 0 -1.05435e-06)
(1.27282e-05 0 -9.66806e-07)
(1.30995e-05 0 -8.52583e-07)
(1.34558e-05 0 -7.49754e-07)
(1.3794e-05 0 -7.01062e-07)
(1.41272e-05 0 -7.01229e-07)
(1.44478e-05 0 -6.90587e-07)
(1.47314e-05 0 -6.45886e-07)
(1.49911e-05 0 -6.14061e-07)
(1.52457e-05 0 -5.28308e-07)
(1.54431e-05 0 -4.80411e-07)
(1.56414e-05 0 -4.86273e-07)
(1.57974e-05 0 -4.9098e-07)
(1.58417e-05 0 -3.19719e-07)
(1.59751e-05 0 -2.19549e-07)
(1.62792e-05 0 2.09114e-07)
(1.63142e-05 0 1.76524e-07)
(1.68132e-05 0 -3.70397e-07)
(1.68188e-05 0 -5.74839e-07)
(1.81767e-05 0 -7.63251e-07)
(1.82055e-05 0 -7.76851e-07)
(1.87054e-05 0 -1.148e-06)
(1.86143e-05 0 -1.17126e-06)
(1.88106e-05 0 -8.59185e-07)
(1.90202e-05 0 -9.54307e-07)
(1.92225e-05 0 -8.1708e-07)
(1.94418e-05 0 -7.28829e-07)
(1.96427e-05 0 -4.91516e-07)
(1.97926e-05 0 -3.88551e-07)
(1.9958e-05 0 -3.85716e-07)
(2.00688e-05 0 -3.41845e-07)
(2.01757e-05 0 -4.81679e-07)
(2.03352e-05 0 -2.90192e-07)
(2.03679e-05 0 1.47321e-07)
(2.03853e-05 0 1.30054e-07)
(2.04855e-05 0 5.80433e-08)
(2.05068e-05 0 -1.73176e-07)
(2.08253e-05 0 -7.00138e-08)
(2.08092e-05 0 -7.9928e-08)
(2.09672e-05 0 -3.35624e-07)
(2.09915e-05 0 -4.63382e-07)
(2.11306e-05 0 -5.07682e-07)
(2.10308e-05 0 -1.84394e-07)
(2.1049e-05 0 -4.51399e-07)
(2.12279e-05 0 -1.06433e-07)
(2.11125e-05 0 3.96732e-09)
(2.11014e-05 0 2.72054e-07)
(2.12526e-05 0 6.27684e-08)
(2.13976e-05 0 4.72609e-08)
(2.13257e-05 0 3.31695e-07)
(2.16617e-05 0 -1.09323e-07)
(2.11072e-05 0 -3.88827e-07)
(2.02262e-05 0 1.66146e-07)
(2.02988e-05 0 2.72886e-07)
(2.01596e-05 0 3.2568e-06)
(1.96169e-05 0 1.49004e-06)
(2.36831e-05 0 7.08586e-07)
(2.18061e-05 0 -1.04223e-06)
(3.60186e-05 0 -5.10053e-06)
(3.54347e-05 0 -3.83995e-06)
(3.84634e-05 0 -1.21806e-05)
(3.79549e-05 0 -7.92547e-06)