# Probe 0 (0.00132 0.0009 0.005)
#             Probe                   0
#              Time
