/*--------------------------------*- C++ -*----------------------------------*\
| =========                 |                                                 |
| \\      /  F ield         | OpenFOAM: The Open Source CFD Toolbox           |
|  \\    /   O peration     | Version:  v2006                                 |
|   \\  /    A nd           | Website:  www.openfoam.com                      |
|    \\/     M anipulation  |                                                 |
\*---------------------------------------------------------------------------*/
FoamFile
{
    version     2.0;
    format      ascii;
    class       volScalarField;
    location    "3.7";
    object      k;
}
// * * * * * * * * * * * * * * * * * * * * * * * * * * * * * * * * * * * * * //

dimensions      [0 2 -2 0 0 0 0];


internalField   nonuniform List<scalar> 
33000
(
4.17128e-08
4.6075e-08
4.95889e-08
5.29689e-08
5.61206e-08
5.8971e-08
6.14887e-08
6.36776e-08
6.5561e-08
6.71645e-08
6.85083e-08
6.96021e-08
7.04572e-08
7.10916e-08
7.15392e-08
7.1855e-08
7.21114e-08
7.23873e-08
7.27328e-08
7.31254e-08
7.34671e-08
7.367e-08
7.37226e-08
7.37013e-08
7.37347e-08
7.39237e-08
7.42449e-08
7.46081e-08
7.49851e-08
7.5378e-08
7.57283e-08
7.59256e-08
7.59532e-08
7.59133e-08
7.60121e-08
7.63057e-08
7.65738e-08
7.66678e-08
7.65397e-08
7.63487e-08
7.64598e-08
7.69397e-08
7.75057e-08
7.77667e-08
7.75452e-08
7.69311e-08
7.63517e-08
7.60825e-08
7.61218e-08
7.62813e-08
7.63752e-08
7.62275e-08
7.57744e-08
7.52162e-08
7.48117e-08
7.46234e-08
7.45062e-08
7.42312e-08
7.38393e-08
7.36203e-08
7.38094e-08
7.42594e-08
7.45626e-08
7.43837e-08
7.38381e-08
7.33187e-08
7.29756e-08
7.26806e-08
7.20766e-08
7.09503e-08
6.9472e-08
6.78454e-08
6.61523e-08
6.43787e-08
6.24024e-08
6.03134e-08
5.86929e-08
5.82875e-08
6.03406e-08
6.2353e-08
6.08933e-08
5.87675e-08
5.67884e-08
5.55902e-08
5.49331e-08
5.44315e-08
5.36843e-08
5.3113e-08
5.29187e-08
5.29169e-08
5.29184e-08
5.28703e-08
5.26166e-08
5.21574e-08
5.15315e-08
5.07278e-08
4.96936e-08
4.81917e-08
4.62222e-08
4.43196e-08
4.26508e-08
4.12934e-08
4.00772e-08
3.90256e-08
3.84852e-08
3.85369e-08
3.87321e-08
3.86526e-08
3.82402e-08
3.78452e-08
3.75277e-08
3.71792e-08
3.69102e-08
3.6621e-08
3.62091e-08
3.56566e-08
3.50255e-08
3.45938e-08
3.43883e-08
3.42642e-08
3.41922e-08
3.40564e-08
3.39605e-08
3.40023e-08
3.41371e-08
3.42344e-08
3.42956e-08
3.4333e-08
3.43433e-08
3.43657e-08
3.44033e-08
3.44287e-08
3.44604e-08
3.44753e-08
3.44721e-08
3.44565e-08
3.44443e-08
3.444e-08
3.44316e-08
3.44158e-08
3.44092e-08
3.44064e-08
3.439e-08
3.43564e-08
3.43264e-08
3.43018e-08
3.42697e-08
3.42339e-08
3.41943e-08
3.41521e-08
3.41153e-08
3.40769e-08
3.4029e-08
3.39748e-08
3.39236e-08
3.38787e-08
3.38399e-08
3.37932e-08
3.3751e-08
3.3743e-08
3.37724e-08
3.38387e-08
3.39262e-08
3.40376e-08
3.41692e-08
3.42933e-08
3.43895e-08
3.44528e-08
3.4493e-08
3.4516e-08
3.45171e-08
3.44887e-08
3.4446e-08
3.44095e-08
3.43791e-08
3.43496e-08
3.43185e-08
3.42903e-08
3.42665e-08
3.42478e-08
3.42328e-08
3.42174e-08
3.42025e-08
3.41905e-08
3.41848e-08
3.41817e-08
3.4174e-08
3.41664e-08
3.41643e-08
3.41637e-08
3.41603e-08
3.41545e-08
3.41489e-08
3.41431e-08
3.41343e-08
3.41216e-08
3.41041e-08
3.40839e-08
3.40596e-08
3.4028e-08
3.39915e-08
3.3953e-08
3.39117e-08
3.38641e-08
3.38109e-08
3.37524e-08
3.36893e-08
3.36251e-08
3.35591e-08
3.34879e-08
3.34114e-08
3.33318e-08
3.32499e-08
3.3164e-08
3.30745e-08
3.2981e-08
3.28854e-08
3.27879e-08
3.26877e-08
3.25845e-08
3.24783e-08
3.23689e-08
3.22576e-08
3.21453e-08
3.20305e-08
3.1913e-08
3.17925e-08
3.167e-08
3.15448e-08
3.14183e-08
3.12907e-08
3.11612e-08
3.103e-08
3.08959e-08
3.07598e-08
3.06229e-08
3.04848e-08
3.03453e-08
3.02035e-08
3.0061e-08
2.99176e-08
2.97729e-08
2.96263e-08
2.94785e-08
2.93289e-08
2.91782e-08
2.9028e-08
2.88758e-08
2.8722e-08
2.85683e-08
2.84136e-08
2.82581e-08
2.81015e-08
2.79444e-08
2.77872e-08
2.76289e-08
2.74696e-08
2.73096e-08
2.71498e-08
2.69893e-08
2.68271e-08
2.6664e-08
2.65014e-08
2.63388e-08
2.61752e-08
2.60116e-08
2.58474e-08
2.56825e-08
2.55174e-08
2.53523e-08
2.51879e-08
2.50226e-08
2.48571e-08
2.46911e-08
2.45252e-08
2.43595e-08
2.41934e-08
2.40275e-08
2.38617e-08
2.36966e-08
2.35322e-08
2.33672e-08
2.32023e-08
2.3037e-08
2.28728e-08
2.27086e-08
2.25445e-08
2.23805e-08
2.22165e-08
2.2053e-08
2.18898e-08
2.17277e-08
2.15666e-08
2.14062e-08
2.12464e-08
2.10882e-08
2.09308e-08
2.07754e-08
2.06215e-08
2.04687e-08
2.03175e-08
2.01678e-08
2.00201e-08
1.98743e-08
1.973e-08
1.95876e-08
1.94484e-08
1.93164e-08
1.91905e-08
1.90701e-08
1.89553e-08
1.88455e-08
1.87413e-08
1.86431e-08
1.85509e-08
1.84641e-08
1.83826e-08
1.83062e-08
1.82349e-08
1.8168e-08
1.81052e-08
1.80461e-08
1.79903e-08
1.79385e-08
1.78899e-08
1.78436e-08
1.7799e-08
1.77568e-08
1.77174e-08
1.76791e-08
1.76423e-08
1.76062e-08
1.75705e-08
1.75351e-08
1.74998e-08
1.74643e-08
1.74288e-08
1.73928e-08
1.73561e-08
1.73184e-08
1.72797e-08
1.72402e-08
1.71984e-08
1.71535e-08
1.71054e-08
1.70538e-08
1.69993e-08
1.69423e-08
1.68826e-08
1.68202e-08
1.67544e-08
1.66867e-08
1.66171e-08
1.65452e-08
1.64712e-08
1.6395e-08
1.63175e-08
1.62383e-08
1.61575e-08
1.60748e-08
1.59907e-08
1.59056e-08
1.58192e-08
1.57319e-08
1.56436e-08
1.55542e-08
1.54645e-08
1.53742e-08
1.52832e-08
1.51918e-08
1.50997e-08
1.5007e-08
1.49141e-08
1.48209e-08
1.47277e-08
1.46342e-08
1.45409e-08
1.44478e-08
1.43549e-08
1.42623e-08
1.41698e-08
1.40774e-08
1.39854e-08
1.3894e-08
1.38032e-08
1.37131e-08
1.36235e-08
1.35346e-08
1.34463e-08
1.33587e-08
1.32718e-08
1.31855e-08
1.30996e-08
1.30147e-08
1.29309e-08
1.28475e-08
1.27652e-08
1.26837e-08
1.2603e-08
1.2523e-08
1.24437e-08
1.23651e-08
1.22875e-08
1.22107e-08
1.21352e-08
1.20605e-08
1.1987e-08
1.19145e-08
1.18427e-08
1.17723e-08
1.17027e-08
1.16342e-08
1.15665e-08
1.14994e-08
1.14342e-08
1.13678e-08
1.1303e-08
1.12383e-08
1.1172e-08
1.1109e-08
1.10516e-08
1.09857e-08
1.09288e-08
1.08663e-08
1.07793e-08
1.07247e-08
1.069e-08
1.06049e-08
1.06183e-08
1.05834e-08
1.07145e-08
1.06706e-08
1.0694e-08
1.0654e-08
1.06369e-08
1.05941e-08
1.05634e-08
1.0521e-08
1.04847e-08
1.04401e-08
1.03989e-08
1.03547e-08
1.02996e-08
1.02562e-08
1.02204e-08
1.01636e-08
1.0144e-08
1.01043e-08
1.01251e-08
1.00846e-08
1.00636e-08
1.00275e-08
9.99384e-09
9.95826e-09
9.92328e-09
9.88717e-09
9.85045e-09
9.80312e-09
9.76368e-09
9.7361e-09
9.68106e-09
9.66354e-09
9.61868e-09
9.48439e-09
9.45775e-09
9.476e-09
9.33252e-09
9.63785e-09
9.64849e-09
1.07577e-08
1.07793e-08
1.11406e-08
1.12911e-08
1.14157e-08
1.15003e-08
1.15601e-08
1.16024e-08
1.16319e-08
1.16517e-08
1.1664e-08
1.16704e-08
1.16717e-08
1.16688e-08
1.16624e-08
1.16532e-08
1.16415e-08
1.16277e-08
1.16118e-08
1.1594e-08
1.15745e-08
1.15536e-08
1.15315e-08
1.15086e-08
1.14848e-08
1.14602e-08
1.14348e-08
1.14086e-08
1.13815e-08
1.13534e-08
1.13243e-08
1.12941e-08
1.12627e-08
1.12301e-08
1.11963e-08
1.11617e-08
1.11265e-08
1.1091e-08
1.10553e-08
1.10197e-08
1.09841e-08
1.09488e-08
1.09138e-08
1.08793e-08
1.08452e-08
1.08114e-08
1.07779e-08
1.07445e-08
1.0711e-08
1.06774e-08
1.06435e-08
1.06095e-08
1.05752e-08
1.0541e-08
1.0507e-08
1.04735e-08
1.04405e-08
1.04077e-08
1.03746e-08
1.03411e-08
1.03078e-08
1.02753e-08
1.02438e-08
1.02126e-08
1.0181e-08
1.01489e-08
1.0117e-08
1.00861e-08
1.00556e-08
1.00243e-08
9.99239e-09
9.96044e-09
9.92911e-09
9.89795e-09
9.86622e-09
9.83404e-09
9.80435e-09
9.77683e-09
9.67468e-09
9.94639e-09
9.2959e-09
1.16037e-08
1.19549e-08
1.21726e-08
1.24401e-08
1.26859e-08
1.28867e-08
1.3062e-08
1.32281e-08
1.34003e-08
1.35613e-08
1.37214e-08
1.38609e-08
1.39803e-08
1.40635e-08
1.41054e-08
1.4116e-08
1.41039e-08
1.41281e-08
1.42227e-08
1.43735e-08
1.45159e-08
1.45517e-08
1.44751e-08
1.43501e-08
1.43158e-08
1.43603e-08
1.44279e-08
1.44731e-08
1.45127e-08
1.45769e-08
1.46529e-08
1.46674e-08
1.46115e-08
1.45627e-08
1.45695e-08
1.46019e-08
1.46388e-08
1.46399e-08
1.46091e-08
1.45981e-08
1.46095e-08
1.46431e-08
1.46672e-08
1.46703e-08
1.46211e-08
1.45617e-08
1.45047e-08
1.44643e-08
1.44391e-08
1.44219e-08
1.44034e-08
1.43741e-08
1.43294e-08
1.42815e-08
1.42461e-08
1.42309e-08
1.42382e-08
1.42614e-08
1.42978e-08
1.43685e-08
1.45004e-08
1.46738e-08
1.48498e-08
1.50022e-08
1.51465e-08
1.53454e-08
1.56223e-08
1.59673e-08
1.63741e-08
1.68689e-08
1.75492e-08
1.8511e-08
1.98106e-08
2.14393e-08
2.32301e-08
2.49684e-08
2.65106e-08
2.78812e-08
2.90126e-08
2.96182e-08
2.93539e-08
2.87345e-08
2.58131e-08
2.10891e-08
1.63771e-08
1.34506e-08
1.22874e-08
1.16864e-08
1.13974e-08
1.12798e-08
1.12521e-08
1.12988e-08
1.14377e-08
1.17351e-08
1.22841e-08
1.31824e-08
1.44313e-08
1.57809e-08
1.67513e-08
1.64771e-08
1.4911e-08
1.29824e-08
1.16357e-08
1.10194e-08
1.08761e-08
1.07613e-08
1.06791e-08
1.06543e-08
1.06234e-08
1.06041e-08
1.06106e-08
1.06341e-08
1.06921e-08
1.08195e-08
1.10442e-08
1.13799e-08
1.17002e-08
1.16618e-08
1.12419e-08
1.08551e-08
1.06578e-08
1.05723e-08
1.05496e-08
1.05338e-08
1.05203e-08
1.04916e-08
1.04751e-08
1.04716e-08
1.0469e-08
1.04659e-08
1.04631e-08
1.0465e-08
1.0472e-08
1.04771e-08
1.04759e-08
1.04727e-08
1.04765e-08
1.04842e-08
1.04877e-08
1.04864e-08
1.04908e-08
1.0499e-08
1.0504e-08
1.05068e-08
1.05128e-08
1.05185e-08
1.05189e-08
1.05169e-08
1.05212e-08
1.05294e-08
1.05366e-08
1.05431e-08
1.05417e-08
1.05326e-08
1.05309e-08
1.05415e-08
1.05518e-08
1.05507e-08
1.05435e-08
1.05444e-08
1.05543e-08
1.05606e-08
1.05559e-08
1.05522e-08
1.05598e-08
1.05692e-08
1.05689e-08
1.0564e-08
1.05658e-08
1.05757e-08
1.05809e-08
1.05746e-08
1.05696e-08
1.05757e-08
1.05834e-08
1.05839e-08
1.05801e-08
1.05781e-08
1.05791e-08
1.05812e-08
1.05836e-08
1.0583e-08
1.05807e-08
1.05815e-08
1.05844e-08
1.05829e-08
1.05752e-08
1.05709e-08
1.05737e-08
1.05768e-08
1.05748e-08
1.0571e-08
1.05699e-08
1.05688e-08
1.05654e-08
1.05607e-08
1.0559e-08
1.056e-08
1.05569e-08
1.0548e-08
1.05416e-08
1.05419e-08
1.05464e-08
1.05446e-08
1.05363e-08
1.05265e-08
1.05216e-08
1.05249e-08
1.05262e-08
1.05195e-08
1.05107e-08
1.05098e-08
1.05104e-08
1.05074e-08
1.05014e-08
1.04915e-08
1.04885e-08
1.04898e-08
1.04905e-08
1.04905e-08
1.04804e-08
1.04675e-08
1.04623e-08
1.04633e-08
1.04626e-08
1.0457e-08
1.04519e-08
1.04454e-08
1.04348e-08
1.04295e-08
1.04305e-08
1.0428e-08
1.04223e-08
1.04143e-08
1.0403e-08
1.04004e-08
1.04017e-08
1.04007e-08
1.03944e-08
1.03894e-08
1.03848e-08
1.03794e-08
1.03746e-08
1.03716e-08
1.03674e-08
1.03613e-08
1.03641e-08
1.03619e-08
1.0352e-08
1.03474e-08
1.03463e-08
1.03434e-08
1.03409e-08
1.03357e-08
1.03335e-08
1.03309e-08
1.03246e-08
1.0321e-08
1.03208e-08
1.0317e-08
1.03113e-08
1.03048e-08
1.03036e-08
1.03029e-08
1.03001e-08
1.02962e-08
1.02922e-08
1.0285e-08
1.02795e-08
1.02776e-08
1.02765e-08
1.02743e-08
1.02703e-08
1.02659e-08
1.02619e-08
1.0257e-08
1.02538e-08
1.02502e-08
1.02466e-08
1.02426e-08
1.02406e-08
1.02384e-08
1.02327e-08
1.02273e-08
1.02232e-08
1.02199e-08
1.02175e-08
1.02147e-08
1.02103e-08
1.02063e-08
1.02013e-08
1.0197e-08
1.01948e-08
1.01917e-08
1.01874e-08
1.01838e-08
1.01799e-08
1.0176e-08
1.01727e-08
1.01689e-08
1.01652e-08
1.01614e-08
1.01575e-08
1.01542e-08
1.01503e-08
1.01466e-08
1.01425e-08
1.01385e-08
1.01358e-08
1.01319e-08
1.01281e-08
1.01242e-08
1.01205e-08
1.0117e-08
1.01133e-08
1.01097e-08
1.01059e-08
1.01024e-08
1.00991e-08
1.00955e-08
1.0092e-08
1.00883e-08
1.00849e-08
1.0082e-08
1.00786e-08
1.00751e-08
1.00716e-08
1.00688e-08
1.00659e-08
1.00628e-08
1.00599e-08
1.0057e-08
1.00541e-08
1.00514e-08
1.00488e-08
1.00464e-08
1.0044e-08
1.00417e-08
1.00394e-08
1.00372e-08
1.00353e-08
1.00335e-08
1.00317e-08
1.00299e-08
1.00282e-08
1.00266e-08
1.00252e-08
1.00239e-08
1.00227e-08
1.00214e-08
1.00203e-08
1.00193e-08
1.00184e-08
1.00175e-08
1.00166e-08
1.00157e-08
1.0015e-08
1.00144e-08
1.00137e-08
1.0013e-08
1.00124e-08
1.00119e-08
1.00114e-08
1.00109e-08
1.00103e-08
1.00098e-08
1.00094e-08
1.0009e-08
1.00086e-08
1.00082e-08
1.00078e-08
1.00074e-08
1.0007e-08
1.00066e-08
1.00062e-08
1.00058e-08
1.00054e-08
1.0005e-08
1.00046e-08
1.00042e-08
1.00038e-08
1.00034e-08
1.0003e-08
1.00026e-08
1.00022e-08
1.00018e-08
1.00014e-08
1.0001e-08
1.00006e-08
1.00002e-08
9.99982e-09
9.99938e-09
9.99892e-09
9.99848e-09
9.99808e-09
9.99767e-09
9.99726e-09
9.99686e-09
9.99644e-09
9.99605e-09
9.99561e-09
9.99521e-09
9.99477e-09
9.99438e-09
9.99392e-09
9.99358e-09
9.99301e-09
9.99263e-09
9.99197e-09
9.99126e-09
9.99081e-09
9.99025e-09
9.99036e-09
9.9899e-09
9.9903e-09
9.98951e-09
9.98772e-09
9.98741e-09
9.98833e-09
9.98853e-09
9.99438e-09
9.99225e-09
9.98763e-09
9.98591e-09
9.98356e-09
9.98358e-09
9.99615e-09
9.99609e-09
9.98663e-09
9.98807e-09
9.99327e-09
9.98912e-09
9.98349e-09
9.98152e-09
9.97954e-09
9.97794e-09
9.97835e-09
9.97869e-09
9.98218e-09
9.98175e-09
9.97976e-09
9.97904e-09
9.97715e-09
9.97613e-09
9.97776e-09
9.97815e-09
9.97879e-09
9.97994e-09
9.98216e-09
9.97946e-09
9.97908e-09
9.97771e-09
9.98141e-09
9.97823e-09
9.97579e-09
9.9748e-09
9.97233e-09
9.97459e-09
9.97709e-09
1.0001e-08
9.99731e-09
1.00104e-08
1.00056e-08
1.0044e-08
1.00463e-08
1.00714e-08
1.00736e-08
1.00539e-08
1.00381e-08
1.00584e-08
1.00422e-08
1.00161e-08
1.00038e-08
9.99424e-09
9.9876e-09
9.98264e-09
9.97882e-09
9.97581e-09
9.97348e-09
9.97172e-09
9.97049e-09
9.96961e-09
9.96893e-09
9.96853e-09
9.96843e-09
9.96858e-09
9.96891e-09
9.96931e-09
9.96971e-09
9.97007e-09
9.97038e-09
9.97065e-09
9.97093e-09
9.97124e-09
9.97157e-09
9.97198e-09
9.97246e-09
9.9729e-09
9.9733e-09
9.9737e-09
9.97406e-09
9.97437e-09
9.97461e-09
9.97483e-09
9.97504e-09
9.97523e-09
9.97538e-09
9.97547e-09
9.97549e-09
9.97545e-09
9.97533e-09
9.97516e-09
9.97498e-09
9.97484e-09
9.97475e-09
9.97472e-09
9.97472e-09
9.97474e-09
9.97479e-09
9.97488e-09
9.97499e-09
9.97504e-09
9.97493e-09
9.97468e-09
9.97444e-09
9.97434e-09
9.9744e-09
9.97432e-09
9.97398e-09
9.97347e-09
9.97302e-09
9.97314e-09
9.97359e-09
9.9736e-09
9.97308e-09
9.97256e-09
9.97272e-09
9.97343e-09
9.97345e-09
9.97296e-09
9.97289e-09
9.97345e-09
9.9733e-09
9.97258e-09
9.97223e-09
9.97192e-09
9.98042e-09
9.97959e-09
1.00169e-08
9.98507e-09
1.0197e-08
1.02414e-08
1.02704e-08
1.03005e-08
1.03303e-08
1.03574e-08
1.03829e-08
1.04068e-08
1.04294e-08
1.04497e-08
1.04687e-08
1.04854e-08
1.05e-08
1.05117e-08
1.05203e-08
1.05261e-08
1.05298e-08
1.05356e-08
1.05463e-08
1.05602e-08
1.05725e-08
1.05767e-08
1.0573e-08
1.05676e-08
1.057e-08
1.0577e-08
1.05839e-08
1.05872e-08
1.05891e-08
1.05944e-08
1.06027e-08
1.06129e-08
1.06152e-08
1.06087e-08
1.06007e-08
1.05947e-08
1.0591e-08
1.05889e-08
1.0587e-08
1.05838e-08
1.05801e-08
1.05788e-08
1.05782e-08
1.0576e-08
1.05699e-08
1.05602e-08
1.05498e-08
1.05417e-08
1.05367e-08
1.05337e-08
1.05307e-08
1.05261e-08
1.05188e-08
1.051e-08
1.05025e-08
1.04985e-08
1.04979e-08
1.04999e-08
1.05055e-08
1.0518e-08
1.05395e-08
1.05677e-08
1.05982e-08
1.0629e-08
1.06645e-08
1.07115e-08
1.07716e-08
1.08425e-08
1.09269e-08
1.10406e-08
1.12089e-08
1.14626e-08
1.18367e-08
1.23633e-08
1.30464e-08
1.38487e-08
1.46847e-08
1.54312e-08
1.59752e-08
1.62325e-08
1.62299e-08
1.59756e-08
1.54869e-08
1.47552e-08
1.3985e-08
1.29735e-08
1.19163e-08
1.10681e-08
1.05327e-08
1.02693e-08
1.01571e-08
1.0115e-08
1.01035e-08
1.01117e-08
1.01498e-08
1.02388e-08
1.04082e-08
1.06777e-08
1.10023e-08
1.12003e-08
1.10553e-08
1.07521e-08
1.04801e-08
1.02869e-08
1.0168e-08
1.01057e-08
1.00761e-08
1.00619e-08
1.00542e-08
1.00506e-08
1.00491e-08
1.00486e-08
1.00493e-08
1.00521e-08
1.00589e-08
1.00726e-08
1.00922e-08
1.01041e-08
1.00981e-08
1.00877e-08
1.00755e-08
1.00637e-08
1.00549e-08
1.00496e-08
1.00457e-08
1.00429e-08
1.00412e-08
1.00405e-08
1.00401e-08
1.00397e-08
1.00392e-08
1.0039e-08
1.00392e-08
1.00394e-08
1.00393e-08
1.00392e-08
1.00394e-08
1.00397e-08
1.00398e-08
1.00398e-08
1.004e-08
1.00405e-08
1.00407e-08
1.00408e-08
1.00412e-08
1.00415e-08
1.00415e-08
1.00413e-08
1.00416e-08
1.00422e-08
1.00426e-08
1.00429e-08
1.00428e-08
1.00423e-08
1.00423e-08
1.0043e-08
1.00437e-08
1.00436e-08
1.00431e-08
1.00432e-08
1.00439e-08
1.00443e-08
1.0044e-08
1.00438e-08
1.00443e-08
1.00449e-08
1.00449e-08
1.00446e-08
1.00447e-08
1.00454e-08
1.00458e-08
1.00453e-08
1.0045e-08
1.00454e-08
1.00459e-08
1.00459e-08
1.00457e-08
1.00455e-08
1.00456e-08
1.00457e-08
1.00458e-08
1.00457e-08
1.00456e-08
1.00457e-08
1.00458e-08
1.00457e-08
1.00451e-08
1.00447e-08
1.00448e-08
1.0045e-08
1.00448e-08
1.00445e-08
1.00444e-08
1.00442e-08
1.00438e-08
1.00433e-08
1.00431e-08
1.00431e-08
1.00427e-08
1.0042e-08
1.00415e-08
1.00414e-08
1.00415e-08
1.00412e-08
1.00406e-08
1.00398e-08
1.00394e-08
1.00394e-08
1.00393e-08
1.00387e-08
1.00381e-08
1.00379e-08
1.00377e-08
1.00373e-08
1.00368e-08
1.00361e-08
1.00358e-08
1.00357e-08
1.00355e-08
1.00353e-08
1.00347e-08
1.0034e-08
1.00336e-08
1.00335e-08
1.00333e-08
1.0033e-08
1.00326e-08
1.00322e-08
1.00317e-08
1.00313e-08
1.00313e-08
1.00311e-08
1.00308e-08
1.00304e-08
1.00298e-08
1.00295e-08
1.00294e-08
1.00294e-08
1.00291e-08
1.00289e-08
1.00285e-08
1.00282e-08
1.00279e-08
1.00278e-08
1.00276e-08
1.00272e-08
1.00273e-08
1.00273e-08
1.00269e-08
1.00266e-08
1.00265e-08
1.00264e-08
1.00263e-08
1.00261e-08
1.0026e-08
1.00259e-08
1.00256e-08
1.00255e-08
1.00255e-08
1.00254e-08
1.00251e-08
1.00249e-08
1.00248e-08
1.00248e-08
1.00247e-08
1.00245e-08
1.00244e-08
1.00242e-08
1.0024e-08
1.00239e-08
1.00238e-08
1.00238e-08
1.00236e-08
1.00234e-08
1.00233e-08
1.00231e-08
1.0023e-08
1.00229e-08
1.00227e-08
1.00226e-08
1.00225e-08
1.00224e-08
1.00222e-08
1.0022e-08
1.00219e-08
1.00218e-08
1.00217e-08
1.00216e-08
1.00214e-08
1.00213e-08
1.00211e-08
1.00209e-08
1.00208e-08
1.00207e-08
1.00205e-08
1.00204e-08
1.00203e-08
1.00201e-08
1.002e-08
1.00198e-08
1.00197e-08
1.00196e-08
1.00194e-08
1.00193e-08
1.00191e-08
1.0019e-08
1.00188e-08
1.00187e-08
1.00186e-08
1.00184e-08
1.00183e-08
1.00182e-08
1.0018e-08
1.00179e-08
1.00178e-08
1.00176e-08
1.00175e-08
1.00174e-08
1.00173e-08
1.00171e-08
1.0017e-08
1.00169e-08
1.00168e-08
1.00167e-08
1.00166e-08
1.00165e-08
1.00163e-08
1.00162e-08
1.00161e-08
1.0016e-08
1.0016e-08
1.00159e-08
1.00158e-08
1.00157e-08
1.00156e-08
1.00155e-08
1.00154e-08
1.00153e-08
1.00153e-08
1.00152e-08
1.00151e-08
1.0015e-08
1.0015e-08
1.00149e-08
1.00148e-08
1.00147e-08
1.00147e-08
1.00146e-08
1.00145e-08
1.00145e-08
1.00144e-08
1.00143e-08
1.00142e-08
1.00142e-08
1.00141e-08
1.0014e-08
1.0014e-08
1.00139e-08
1.00138e-08
1.00138e-08
1.00137e-08
1.00136e-08
1.00136e-08
1.00135e-08
1.00134e-08
1.00134e-08
1.00133e-08
1.00133e-08
1.00132e-08
1.00132e-08
1.00131e-08
1.0013e-08
1.0013e-08
1.00129e-08
1.00129e-08
1.00128e-08
1.00128e-08
1.00127e-08
1.00126e-08
1.00126e-08
1.00125e-08
1.00125e-08
1.00124e-08
1.00123e-08
1.00123e-08
1.00123e-08
1.00122e-08
1.00122e-08
1.00121e-08
1.00121e-08
1.0012e-08
1.0012e-08
1.00119e-08
1.00119e-08
1.00119e-08
1.00119e-08
1.00118e-08
1.00118e-08
1.00118e-08
1.00117e-08
1.00117e-08
1.00116e-08
1.00116e-08
1.00116e-08
1.00116e-08
1.00115e-08
1.00114e-08
1.00113e-08
1.00113e-08
1.00113e-08
1.00113e-08
1.00114e-08
1.00113e-08
1.00109e-08
1.00108e-08
1.00112e-08
1.00112e-08
1.00115e-08
1.00114e-08
1.00112e-08
1.00111e-08
1.00109e-08
1.00106e-08
1.00091e-08
1.00093e-08
1.00107e-08
1.00106e-08
1.00107e-08
1.00107e-08
1.00107e-08
1.00106e-08
1.00104e-08
1.00102e-08
1.001e-08
1.00103e-08
1.00101e-08
1.00095e-08
1.00099e-08
1.00098e-08
1.00096e-08
1.00093e-08
1.00087e-08
1.00087e-08
1.00095e-08
1.00094e-08
1.00094e-08
1.00094e-08
1.00094e-08
1.00093e-08
1.00093e-08
1.00091e-08
1.00088e-08
1.00086e-08
1.00089e-08
1.00084e-08
1.00083e-08
1.00096e-08
1.00092e-08
1.00091e-08
1.00087e-08
1.00114e-08
1.00115e-08
1.00136e-08
1.00131e-08
1.00108e-08
1.00124e-08
1.00124e-08
1.00113e-08
1.00113e-08
1.001e-08
1.00082e-08
1.00072e-08
1.00068e-08
1.00062e-08
1.00056e-08
1.00051e-08
1.00047e-08
1.00042e-08
1.00038e-08
1.00034e-08
1.00031e-08
1.00027e-08
1.00024e-08
1.00024e-08
1.00026e-08
1.00029e-08
1.00034e-08
1.00038e-08
1.00042e-08
1.00046e-08
1.00049e-08
1.00051e-08
1.00054e-08
1.00056e-08
1.00058e-08
1.0006e-08
1.00062e-08
1.00063e-08
1.00064e-08
1.00065e-08
1.00064e-08
1.00064e-08
1.00063e-08
1.00063e-08
1.00063e-08
1.00064e-08
1.00065e-08
1.00066e-08
1.00066e-08
1.00066e-08
1.00066e-08
1.00065e-08
1.00064e-08
1.00064e-08
1.00064e-08
1.00064e-08
1.00063e-08
1.00063e-08
1.00062e-08
1.00063e-08
1.00063e-08
1.00064e-08
1.00065e-08
1.00064e-08
1.00063e-08
1.00061e-08
1.00059e-08
1.00057e-08
1.00056e-08
1.00057e-08
1.00059e-08
1.00061e-08
1.0006e-08
1.00055e-08
1.00055e-08
1.00057e-08
1.00062e-08
1.0006e-08
1.00053e-08
1.00053e-08
1.00055e-08
1.00057e-08
1.00052e-08
1.00052e-08
1.00054e-08
1.00055e-08
1.00057e-08
1.0005e-08
1.00087e-08
1.00057e-08
1.00589e-08
1.00668e-08
1.00725e-08
1.00782e-08
1.00836e-08
1.00884e-08
1.00927e-08
1.00965e-08
1.00999e-08
1.01027e-08
1.01051e-08
1.01072e-08
1.01089e-08
1.01102e-08
1.01112e-08
1.01118e-08
1.01121e-08
1.01126e-08
1.01135e-08
1.01145e-08
1.01152e-08
1.01154e-08
1.0115e-08
1.01146e-08
1.01148e-08
1.01153e-08
1.01156e-08
1.01157e-08
1.01157e-08
1.01163e-08
1.01175e-08
1.01187e-08
1.0119e-08
1.0118e-08
1.01161e-08
1.01149e-08
1.01139e-08
1.01131e-08
1.01124e-08
1.01117e-08
1.01109e-08
1.01102e-08
1.01096e-08
1.01088e-08
1.01077e-08
1.01065e-08
1.01051e-08
1.01039e-08
1.01028e-08
1.01019e-08
1.0101e-08
1.01e-08
1.00988e-08
1.00974e-08
1.0096e-08
1.00948e-08
1.00941e-08
1.00938e-08
1.00942e-08
1.00956e-08
1.00981e-08
1.01016e-08
1.01058e-08
1.01106e-08
1.01166e-08
1.01245e-08
1.01342e-08
1.01458e-08
1.01601e-08
1.01804e-08
1.02109e-08
1.02577e-08
1.0329e-08
1.04358e-08
1.05894e-08
1.07977e-08
1.10608e-08
1.13655e-08
1.16781e-08
1.19424e-08
1.20955e-08
1.21072e-08
1.20024e-08
1.18289e-08
1.16232e-08
1.13958e-08
1.11475e-08
1.09293e-08
1.07338e-08
1.05397e-08
1.03571e-08
1.02117e-08
1.0131e-08
1.00848e-08
1.00615e-08
1.00535e-08
1.0055e-08
1.00689e-08
1.0095e-08
1.01221e-08
1.01325e-08
1.01313e-08
1.01169e-08
1.00909e-08
1.00694e-08
1.00553e-08
1.00472e-08
1.00438e-08
1.00429e-08
1.00424e-08
1.00397e-08
1.00368e-08
1.00347e-08
1.00332e-08
1.00321e-08
1.00313e-08
1.00308e-08
1.00307e-08
1.00307e-08
1.0031e-08
1.0031e-08
1.00308e-08
1.00307e-08
1.00307e-08
1.00308e-08
1.00313e-08
1.00315e-08
1.00308e-08
1.003e-08
1.00293e-08
1.00286e-08
1.00281e-08
1.00277e-08
1.00272e-08
1.00269e-08
1.00267e-08
1.00266e-08
1.00265e-08
1.00265e-08
1.00265e-08
1.00265e-08
1.00264e-08
1.00264e-08
1.00263e-08
1.00263e-08
1.00262e-08
1.00262e-08
1.00261e-08
1.00261e-08
1.0026e-08
1.0026e-08
1.0026e-08
1.00259e-08
1.00259e-08
1.00259e-08
1.00259e-08
1.00258e-08
1.00258e-08
1.00257e-08
1.00257e-08
1.00257e-08
1.00256e-08
1.00256e-08
1.00255e-08
1.00255e-08
1.00255e-08
1.00254e-08
1.00254e-08
1.00253e-08
1.00253e-08
1.00252e-08
1.00252e-08
1.00251e-08
1.0025e-08
1.0025e-08
1.0025e-08
1.00249e-08
1.00249e-08
1.00248e-08
1.00248e-08
1.00247e-08
1.00247e-08
1.00246e-08
1.00246e-08
1.00245e-08
1.00245e-08
1.00244e-08
1.00244e-08
1.00243e-08
1.00243e-08
1.00242e-08
1.00242e-08
1.00241e-08
1.00241e-08
1.0024e-08
1.00239e-08
1.00238e-08
1.00238e-08
1.00237e-08
1.00236e-08
1.00236e-08
1.00235e-08
1.00234e-08
1.00234e-08
1.00233e-08
1.00232e-08
1.00231e-08
1.0023e-08
1.0023e-08
1.00229e-08
1.00228e-08
1.00227e-08
1.00227e-08
1.00226e-08
1.00225e-08
1.00224e-08
1.00224e-08
1.00223e-08
1.00222e-08
1.00222e-08
1.00221e-08
1.0022e-08
1.0022e-08
1.00219e-08
1.00218e-08
1.00217e-08
1.00217e-08
1.00216e-08
1.00215e-08
1.00214e-08
1.00214e-08
1.00213e-08
1.00212e-08
1.00211e-08
1.0021e-08
1.00209e-08
1.00208e-08
1.00208e-08
1.00207e-08
1.00207e-08
1.00206e-08
1.00204e-08
1.00203e-08
1.00203e-08
1.00202e-08
1.002e-08
1.002e-08
1.002e-08
1.00199e-08
1.00197e-08
1.00196e-08
1.00196e-08
1.00195e-08
1.00195e-08
1.00194e-08
1.00193e-08
1.00192e-08
1.00192e-08
1.00192e-08
1.00192e-08
1.00191e-08
1.0019e-08
1.00189e-08
1.00189e-08
1.00188e-08
1.00188e-08
1.00187e-08
1.00187e-08
1.00186e-08
1.00186e-08
1.00185e-08
1.00185e-08
1.00185e-08
1.00184e-08
1.00183e-08
1.00183e-08
1.00182e-08
1.00181e-08
1.00181e-08
1.0018e-08
1.0018e-08
1.00179e-08
1.00179e-08
1.00178e-08
1.00177e-08
1.00177e-08
1.00176e-08
1.00176e-08
1.00175e-08
1.00175e-08
1.00174e-08
1.00173e-08
1.00173e-08
1.00172e-08
1.00172e-08
1.00171e-08
1.0017e-08
1.0017e-08
1.00169e-08
1.00169e-08
1.00168e-08
1.00167e-08
1.00167e-08
1.00166e-08
1.00165e-08
1.00165e-08
1.00164e-08
1.00163e-08
1.00163e-08
1.00162e-08
1.00162e-08
1.00161e-08
1.0016e-08
1.0016e-08
1.00159e-08
1.00158e-08
1.00158e-08
1.00157e-08
1.00157e-08
1.00156e-08
1.00155e-08
1.00155e-08
1.00154e-08
1.00154e-08
1.00153e-08
1.00153e-08
1.00152e-08
1.00151e-08
1.00151e-08
1.00151e-08
1.0015e-08
1.0015e-08
1.00149e-08
1.00149e-08
1.00148e-08
1.00147e-08
1.00147e-08
1.00146e-08
1.00146e-08
1.00145e-08
1.00145e-08
1.00144e-08
1.00144e-08
1.00143e-08
1.00142e-08
1.00142e-08
1.00141e-08
1.0014e-08
1.0014e-08
1.00139e-08
1.00138e-08
1.00137e-08
1.00137e-08
1.00136e-08
1.00135e-08
1.00135e-08
1.00134e-08
1.00133e-08
1.00132e-08
1.00132e-08
1.00131e-08
1.00131e-08
1.0013e-08
1.00129e-08
1.00129e-08
1.00128e-08
1.00127e-08
1.00127e-08
1.00126e-08
1.00126e-08
1.00125e-08
1.00124e-08
1.00124e-08
1.00123e-08
1.00123e-08
1.00122e-08
1.00122e-08
1.00121e-08
1.0012e-08
1.0012e-08
1.00119e-08
1.00119e-08
1.00118e-08
1.00117e-08
1.00117e-08
1.00117e-08
1.00116e-08
1.00116e-08
1.00115e-08
1.00115e-08
1.00114e-08
1.00114e-08
1.00113e-08
1.00113e-08
1.00113e-08
1.00113e-08
1.00112e-08
1.00112e-08
1.00111e-08
1.00111e-08
1.00111e-08
1.00111e-08
1.0011e-08
1.0011e-08
1.00109e-08
1.0011e-08
1.00109e-08
1.00111e-08
1.00109e-08
1.00105e-08
1.00105e-08
1.00102e-08
1.00108e-08
1.00107e-08
1.00109e-08
1.00108e-08
1.00107e-08
1.00106e-08
1.00105e-08
1.00102e-08
1.0009e-08
1.00092e-08
1.00103e-08
1.00103e-08
1.00103e-08
1.00103e-08
1.00103e-08
1.00102e-08
1.00101e-08
1.001e-08
1.001e-08
1.00099e-08
1.00098e-08
1.00096e-08
1.00096e-08
1.00095e-08
1.00094e-08
1.00093e-08
1.00089e-08
1.00089e-08
1.00092e-08
1.00092e-08
1.00092e-08
1.00091e-08
1.00091e-08
1.0009e-08
1.0009e-08
1.00088e-08
1.00085e-08
1.00085e-08
1.0009e-08
1.00088e-08
1.00095e-08
1.0009e-08
1.00076e-08
1.00085e-08
1.00082e-08
1.00108e-08
1.00111e-08
1.00133e-08
1.00128e-08
1.00104e-08
1.0011e-08
1.00108e-08
1.00106e-08
1.00104e-08
1.00103e-08
1.00097e-08
1.00094e-08
1.00089e-08
1.00085e-08
1.00081e-08
1.00077e-08
1.00072e-08
1.00068e-08
1.00064e-08
1.00061e-08
1.00057e-08
1.00054e-08
1.00052e-08
1.0005e-08
1.00047e-08
1.00045e-08
1.00044e-08
1.00044e-08
1.00046e-08
1.00048e-08
1.0005e-08
1.00052e-08
1.00054e-08
1.00055e-08
1.00056e-08
1.00057e-08
1.00059e-08
1.0006e-08
1.00062e-08
1.00063e-08
1.00064e-08
1.00064e-08
1.00064e-08
1.00063e-08
1.00062e-08
1.00061e-08
1.00061e-08
1.00061e-08
1.00062e-08
1.00063e-08
1.00064e-08
1.00064e-08
1.00064e-08
1.00064e-08
1.00063e-08
1.00063e-08
1.00063e-08
1.00063e-08
1.00063e-08
1.00062e-08
1.0006e-08
1.0006e-08
1.00061e-08
1.00062e-08
1.00063e-08
1.00063e-08
1.00062e-08
1.0006e-08
1.00057e-08
1.00056e-08
1.00055e-08
1.00056e-08
1.00057e-08
1.00059e-08
1.00059e-08
1.00056e-08
1.00054e-08
1.00056e-08
1.00061e-08
1.00061e-08
1.00054e-08
1.00053e-08
1.00053e-08
1.00055e-08
1.00052e-08
1.00052e-08
1.00053e-08
1.00056e-08
1.00057e-08
1.00056e-08
1.0005e-08
1.00087e-08
1.00058e-08
1.00449e-08
1.00477e-08
1.00504e-08
1.00529e-08
1.0055e-08
1.00566e-08
1.00578e-08
1.00587e-08
1.00593e-08
1.00597e-08
1.00599e-08
1.00599e-08
1.00599e-08
1.00598e-08
1.00597e-08
1.00596e-08
1.00594e-08
1.00593e-08
1.00591e-08
1.0059e-08
1.00589e-08
1.00587e-08
1.00585e-08
1.00583e-08
1.00581e-08
1.0058e-08
1.00578e-08
1.00576e-08
1.00573e-08
1.00572e-08
1.0057e-08
1.00569e-08
1.00567e-08
1.00564e-08
1.00559e-08
1.00555e-08
1.00551e-08
1.00547e-08
1.00543e-08
1.0054e-08
1.00536e-08
1.00533e-08
1.0053e-08
1.00527e-08
1.00523e-08
1.00518e-08
1.00514e-08
1.0051e-08
1.00506e-08
1.00502e-08
1.00498e-08
1.00495e-08
1.00491e-08
1.00487e-08
1.00483e-08
1.00479e-08
1.00476e-08
1.00474e-08
1.00473e-08
1.00473e-08
1.00475e-08
1.00479e-08
1.00483e-08
1.00488e-08
1.00496e-08
1.00505e-08
1.00518e-08
1.00532e-08
1.00552e-08
1.0058e-08
1.00624e-08
1.00693e-08
1.00802e-08
1.00974e-08
1.01243e-08
1.01642e-08
1.02204e-08
1.0294e-08
1.03817e-08
1.04745e-08
1.05584e-08
1.06204e-08
1.06599e-08
1.06598e-08
1.06248e-08
1.05649e-08
1.04922e-08
1.0426e-08
1.0378e-08
1.0347e-08
1.03238e-08
1.03078e-08
1.02788e-08
1.02294e-08
1.0165e-08
1.01147e-08
1.00775e-08
1.00563e-08
1.00467e-08
1.00411e-08
1.00388e-08
1.00381e-08
1.00374e-08
1.0036e-08
1.00351e-08
1.00342e-08
1.00334e-08
1.00332e-08
1.00339e-08
1.00354e-08
1.0037e-08
1.0039e-08
1.00401e-08
1.00383e-08
1.00359e-08
1.0034e-08
1.00325e-08
1.00312e-08
1.003e-08
1.00291e-08
1.00286e-08
1.00284e-08
1.00283e-08
1.00284e-08
1.00285e-08
1.00287e-08
1.00291e-08
1.00296e-08
1.00305e-08
1.0031e-08
1.00304e-08
1.00297e-08
1.0029e-08
1.00283e-08
1.00277e-08
1.00273e-08
1.00269e-08
1.00266e-08
1.00264e-08
1.00263e-08
1.00262e-08
1.00261e-08
1.00261e-08
1.0026e-08
1.00259e-08
1.00258e-08
1.00257e-08
1.00257e-08
1.00256e-08
1.00255e-08
1.00255e-08
1.00254e-08
1.00254e-08
1.00254e-08
1.00254e-08
1.00254e-08
1.00253e-08
1.00253e-08
1.00253e-08
1.00253e-08
1.00253e-08
1.00252e-08
1.00252e-08
1.00251e-08
1.00251e-08
1.0025e-08
1.0025e-08
1.00249e-08
1.00248e-08
1.00248e-08
1.00247e-08
1.00246e-08
1.00245e-08
1.00245e-08
1.00244e-08
1.00243e-08
1.00243e-08
1.00242e-08
1.00241e-08
1.00241e-08
1.0024e-08
1.0024e-08
1.00239e-08
1.00239e-08
1.00238e-08
1.00238e-08
1.00237e-08
1.00237e-08
1.00236e-08
1.00236e-08
1.00236e-08
1.00235e-08
1.00235e-08
1.00234e-08
1.00234e-08
1.00234e-08
1.00233e-08
1.00233e-08
1.00232e-08
1.00231e-08
1.00231e-08
1.0023e-08
1.00229e-08
1.00229e-08
1.00228e-08
1.00228e-08
1.00227e-08
1.00226e-08
1.00225e-08
1.00225e-08
1.00224e-08
1.00223e-08
1.00223e-08
1.00222e-08
1.00221e-08
1.0022e-08
1.0022e-08
1.00219e-08
1.00218e-08
1.00217e-08
1.00217e-08
1.00216e-08
1.00215e-08
1.00215e-08
1.00214e-08
1.00213e-08
1.00212e-08
1.00212e-08
1.00211e-08
1.0021e-08
1.0021e-08
1.00209e-08
1.00209e-08
1.00208e-08
1.00207e-08
1.00207e-08
1.00206e-08
1.00206e-08
1.00205e-08
1.00205e-08
1.00204e-08
1.00203e-08
1.00203e-08
1.00202e-08
1.00201e-08
1.002e-08
1.002e-08
1.00199e-08
1.00198e-08
1.00196e-08
1.00196e-08