/*--------------------------------*- C++ -*----------------------------------*\
| =========                 |                                                 |
| \\      /  F ield         | OpenFOAM: The Open Source CFD Toolbox           |
|  \\    /   O peration     | Version:  v2006                                 |
|   \\  /    A nd           | Website:  www.openfoam.com                      |
|    \\/     M anipulation  |                                                 |
\*---------------------------------------------------------------------------*/
FoamFile
{
    version     2.0;
    format      ascii;
    class       volScalarField;
    location    "3.7";
    object      nut;
}
// * * * * * * * * * * * * * * * * * * * * * * * * * * * * * * * * * * * * * //

dimensions      [0 2 -1 0 0 0 0];


internalField   nonuniform List<scalar> 
33000
(
9.28307e-10
1.12292e-09
1.1824e-09
1.25747e-09
1.32364e-09
1.38245e-09
1.43504e-09
1.47923e-09
1.51534e-09
1.54333e-09
1.56504e-09
1.57921e-09
1.58822e-09
1.59027e-09
1.58926e-09
1.58511e-09
1.58238e-09
1.58235e-09
1.58569e-09
1.58713e-09
1.5828e-09
1.57306e-09
1.56266e-09
1.55776e-09
1.5574e-09
1.5592e-09
1.56106e-09
1.56209e-09
1.56779e-09
1.57416e-09
1.57571e-09
1.57001e-09
1.56425e-09
1.56383e-09
1.57075e-09
1.5775e-09
1.58035e-09
1.57708e-09
1.57202e-09
1.57318e-09
1.58834e-09
1.60803e-09
1.6195e-09
1.62059e-09
1.61206e-09
1.60217e-09
1.60191e-09
1.61136e-09
1.62173e-09
1.63374e-09
1.64304e-09
1.64214e-09
1.63602e-09
1.63588e-09
1.6443e-09
1.65762e-09
1.66515e-09
1.66566e-09
1.67068e-09
1.68967e-09
1.72346e-09
1.75447e-09
1.77111e-09
1.77686e-09
1.78495e-09
1.80305e-09
1.82816e-09
1.84636e-09
1.84931e-09
1.84426e-09
1.84035e-09
1.84166e-09
1.84238e-09
1.84035e-09
1.8226e-09
1.81046e-09
1.86804e-09
2.10627e-09
2.86879e-09
3.37992e-09
3.24877e-09
3.32294e-09
3.33021e-09
3.72998e-09
3.83975e-09
3.78582e-09
3.71548e-09
3.6028e-09
3.48481e-09
3.4768e-09
3.57144e-09
3.61888e-09
3.63106e-09
3.63047e-09
3.63164e-09
3.61984e-09
3.54872e-09
3.47353e-09
3.48197e-09
3.99827e-09
4.01507e-09
3.75276e-09
3.62226e-09
3.46785e-09
3.59208e-09
3.62038e-09
3.69996e-09
3.72729e-09
3.69319e-09
3.62271e-09
3.58455e-09
3.57226e-09
3.56381e-09
3.56612e-09
3.54073e-09
3.52899e-09
3.58787e-09
4.10273e-09
4.21917e-09
4.09514e-09
4.14014e-09
4.14394e-09
4.3483e-09
4.37394e-09
4.43159e-09
4.45923e-09
4.45976e-09
4.50932e-09
4.57698e-09
4.63141e-09
4.69705e-09
4.77518e-09
4.86459e-09
4.96153e-09
5.06467e-09
5.17785e-09
5.30646e-09
5.44997e-09
5.60387e-09
5.77648e-09
5.97612e-09
6.19449e-09
6.42491e-09
6.68158e-09
6.98344e-09
7.32457e-09
7.69661e-09
8.11085e-09
8.58067e-09
9.13701e-09
9.79699e-09
1.05554e-08
1.14091e-08
1.2395e-08
1.36002e-08
1.51134e-08
1.70321e-08
1.93163e-08
2.20873e-08
2.56656e-08
3.03262e-08
3.62545e-08
4.21292e-08
4.23243e-08
4.24872e-08
4.1463e-08
3.66633e-08
3.17661e-08
2.75153e-08
2.41634e-08
2.15837e-08
1.95106e-08
1.7751e-08
1.62655e-08
1.50381e-08
1.40327e-08
1.31745e-08
1.24211e-08
1.1758e-08
1.11743e-08
1.06697e-08
1.02276e-08
9.8304e-09
9.4674e-09
9.14036e-09
8.85689e-09
8.6034e-09
8.3614e-09
8.13858e-09
7.94251e-09
7.76579e-09
7.60227e-09
7.4508e-09
7.31274e-09
7.18619e-09
7.07007e-09
6.96125e-09
6.86035e-09
6.77062e-09
6.68729e-09
6.60742e-09
6.53177e-09
6.46451e-09
6.40473e-09
6.34959e-09
6.2986e-09
6.24943e-09
6.20381e-09
6.16471e-09
6.131e-09
6.09975e-09
6.06964e-09
6.04315e-09
6.02206e-09
6.0045e-09
5.98862e-09
5.97383e-09
5.96095e-09
5.95194e-09
5.94825e-09
5.94765e-09
5.94678e-09
5.94669e-09
5.94865e-09
5.95475e-09
5.96435e-09
5.97453e-09
5.98705e-09
6.00185e-09
6.01621e-09
6.03248e-09
6.05363e-09
6.07651e-09
6.10102e-09
6.1257e-09
6.15016e-09
6.17858e-09
6.21047e-09
6.2435e-09
6.2767e-09
6.31238e-09
6.35062e-09
6.38912e-09
6.42923e-09
6.4727e-09
6.51474e-09
6.55885e-09
6.60946e-09
6.65915e-09
6.70727e-09
6.75894e-09
6.81378e-09
6.87089e-09
6.9277e-09
6.98555e-09
7.04913e-09
7.11283e-09
7.17522e-09
7.24152e-09
7.31219e-09
7.38538e-09
7.45703e-09
7.52844e-09
7.60558e-09
7.68632e-09
7.76951e-09
7.85659e-09
7.94524e-09
8.03159e-09
8.12092e-09
8.21575e-09
8.31646e-09
8.42125e-09
8.52749e-09
8.63669e-09
8.74865e-09
8.86454e-09
8.98723e-09
9.11474e-09
9.24381e-09
9.3769e-09
9.52392e-09
9.67598e-09
9.8292e-09
9.98651e-09
1.01505e-08
1.03239e-08
1.05091e-08
1.07027e-08
1.09051e-08
1.11162e-08
1.13297e-08
1.1557e-08
1.18041e-08
1.20633e-08
1.23349e-08
1.26233e-08
1.29227e-08
1.32414e-08
1.35838e-08
1.39461e-08
1.43339e-08
1.47403e-08
1.51714e-08
1.56397e-08
1.61385e-08
1.66786e-08
1.72402e-08
1.78542e-08
1.85349e-08
1.92646e-08
2.00569e-08
2.09018e-08
2.18278e-08
2.2844e-08
2.30145e-08
2.29132e-08
2.28183e-08
2.27295e-08
2.26464e-08
2.25683e-08
2.24949e-08
2.24255e-08
2.23611e-08
2.23006e-08
2.22431e-08
2.21877e-08
2.21352e-08
2.20862e-08
2.20386e-08
2.19929e-08
2.1948e-08
2.19036e-08
2.18595e-08
2.18156e-08
2.17716e-08
2.17274e-08
2.16826e-08
2.1637e-08
2.15901e-08
2.1542e-08
2.14929e-08
2.1441e-08
2.13851e-08
2.13253e-08
2.12612e-08
2.11934e-08
2.11225e-08
2.10483e-08
2.09707e-08
2.08889e-08
2.08046e-08
2.07181e-08
2.06286e-08
2.05367e-08
2.0442e-08
2.03455e-08
2.02471e-08
2.01466e-08
2.00437e-08
1.99391e-08
1.98333e-08
1.97258e-08
1.96171e-08
1.95073e-08
1.93962e-08
1.92845e-08
1.91722e-08
1.9059e-08
1.89453e-08
1.88306e-08
1.87153e-08
1.85997e-08
1.84838e-08
1.83678e-08
1.82514e-08
1.81353e-08
1.80195e-08
1.79039e-08
1.77887e-08
1.76736e-08
1.75585e-08
1.7444e-08
1.73302e-08
1.72172e-08
1.7105e-08
1.69936e-08
1.6883e-08
1.6773e-08
1.6664e-08
1.65558e-08
1.64484e-08
1.63414e-08
1.62358e-08
1.61314e-08
1.60276e-08
1.59251e-08
1.58236e-08
1.57232e-08
1.56235e-08
1.55247e-08
1.54269e-08
1.53302e-08
1.52346e-08
1.51406e-08
1.50476e-08
1.4956e-08
1.48657e-08
1.47763e-08
1.46886e-08
1.46019e-08
1.45167e-08
1.44323e-08
1.43488e-08
1.42675e-08
1.41848e-08
1.41041e-08
1.40235e-08
1.39409e-08
1.38624e-08
1.3791e-08
1.37088e-08
1.3638e-08
1.356e-08
1.34518e-08
1.33836e-08
1.33404e-08
1.32344e-08
1.32511e-08
1.32076e-08
1.3371e-08
1.33163e-08
1.33455e-08
1.32956e-08
1.32744e-08
1.3221e-08
1.31827e-08
1.31299e-08
1.30847e-08
1.30291e-08
1.29777e-08
1.29226e-08
1.28541e-08
1.28e-08
1.27553e-08
1.26845e-08
1.26602e-08
1.26106e-08
1.26366e-08
1.25862e-08
1.256e-08
1.2515e-08
1.2473e-08
1.24287e-08
1.23851e-08
1.23401e-08
1.22943e-08
1.22354e-08
1.21862e-08
1.21518e-08
1.20832e-08
1.20614e-08
1.20055e-08
1.18381e-08
1.18049e-08
1.18277e-08
1.16488e-08
1.20294e-08
1.20426e-08
1.27865e-08
1.25185e-08
1.26721e-08
1.28821e-08
1.28867e-08
1.28386e-08
1.27661e-08
1.26885e-08
1.26138e-08
1.25455e-08
1.24844e-08
1.24303e-08
1.23829e-08
1.23418e-08
1.23062e-08
1.2275e-08
1.22477e-08
1.22246e-08
1.22053e-08
1.21892e-08
1.21761e-08
1.21657e-08
1.21578e-08
1.21519e-08
1.21477e-08
1.21456e-08
1.21464e-08
1.21488e-08
1.21526e-08
1.21586e-08
1.21664e-08
1.21759e-08
1.21872e-08
1.22003e-08
1.22152e-08
1.22318e-08
1.22502e-08
1.22699e-08
1.22908e-08
1.23136e-08
1.23378e-08
1.23631e-08
1.23896e-08
1.24169e-08
1.24449e-08
1.24736e-08
1.25031e-08
1.25339e-08
1.25661e-08
1.25999e-08
1.26357e-08
1.26738e-08
1.27142e-08
1.27563e-08
1.27984e-08
1.28393e-08
1.28791e-08
1.29202e-08
1.29475e-08
1.29058e-08
1.28643e-08
1.28238e-08
1.27845e-08
1.27457e-08
1.27062e-08
1.26662e-08
1.26266e-08
1.2588e-08
1.25499e-08
1.2511e-08
1.24712e-08
1.24314e-08
1.23924e-08
1.23536e-08
1.2314e-08
1.22739e-08
1.22369e-08
1.22026e-08
1.20753e-08
1.24139e-08
1.16032e-08
2.21684e-09
3.31239e-09
3.22484e-08
2.22471e-08
2.1596e-08
2.00584e-08
1.74665e-08
1.57697e-08
1.49224e-08
1.48183e-08
1.50416e-08
1.53265e-08
1.54477e-08
1.56369e-08
1.56064e-08
1.55636e-08
1.55049e-08
1.62535e-08
1.72932e-08
1.83088e-08
1.95299e-08
1.91636e-08
1.94933e-08
2.19354e-08
2.35601e-08
2.36529e-08
2.35689e-08
2.71367e-08
4.27959e-08
7.94939e-08
7.14527e-08
3.25701e-08
2.20915e-08
2.60124e-08
6.03959e-08
5.61661e-08
4.23379e-08
6.49278e-08
4.336e-08
5.35175e-08
4.26708e-08
2.41148e-08
2.85019e-08
4.80985e-08
3.9076e-08
2.90432e-08
2.05271e-08
1.6692e-08
1.6782e-08
1.94427e-08
2.25149e-08
2.25292e-08
1.90005e-08
1.48501e-08
1.24485e-08
1.27288e-08
1.38991e-08
1.19945e-08
9.6335e-09
8.72337e-09
9.30505e-09
1.0886e-08
1.10007e-08
8.62089e-09
7.51508e-09
7.96053e-09
9.31614e-09
9.76033e-09
8.2695e-09
7.03289e-09
6.29885e-09
5.97425e-09
5.83388e-09
6.04428e-09
5.96614e-09
5.98598e-09
5.86824e-09
6.55467e-09
7.04626e-09
7.58093e-09
6.38661e-09
6.14804e-09
8.0716e-09
6.36193e-09
5.35934e-09
4.97632e-09
1.19498e-08
8.94436e-09
7.17735e-09
1.14824e-08
1.2031e-08
1.72176e-08
1.48908e-08
1.84147e-08
1.94992e-08
1.61644e-08
1.50889e-08
1.21459e-08
1.76711e-08
1.13856e-08
6.2811e-09
3.60896e-09
4.43994e-09
1.00431e-08
8.80379e-09
1.34331e-08
1.20963e-08
3.36136e-08
3.11788e-08
4.32974e-08
7.72203e-08
4.32759e-08
2.83483e-08
2.07731e-08
1.62698e-08
1.18622e-08
1.57082e-08
1.15532e-08
8.21952e-09
4.85749e-09
5.59293e-09
1.20295e-08
1.20069e-08
2.09135e-08
2.39095e-08
2.21533e-07
1.34198e-07
3.62268e-08
3.36135e-08
3.27872e-08
2.94713e-08
2.78386e-08
2.5915e-08
2.3499e-08
2.17743e-08
2.03836e-08
1.95624e-08
1.88681e-08
1.79755e-08
1.71197e-08
1.65648e-08
1.60841e-08
1.54952e-08
1.49176e-08
1.4581e-08
1.43758e-08
1.40328e-08
1.35858e-08
1.33137e-08
1.31825e-08
1.31538e-08
1.30529e-08
1.28735e-08
1.27119e-08
1.26409e-08
1.27292e-08
1.29027e-08
1.29507e-08
1.29568e-08
1.30607e-08
1.32877e-08
1.36246e-08
1.39388e-08
1.41962e-08
1.44667e-08
1.4878e-08
1.53967e-08
1.57916e-08
1.60891e-08
1.65579e-08
1.71794e-08
1.76834e-08
1.8059e-08
1.8536e-08
1.91988e-08
1.98262e-08
2.03718e-08
2.09983e-08
2.16971e-08
2.2433e-08
2.31427e-08
2.38178e-08
2.46705e-08
2.56637e-08
2.67677e-08
2.78583e-08
2.88947e-08
2.98597e-08
3.10706e-08
3.25084e-08
3.40369e-08
3.58122e-08
3.79891e-08
4.0081e-08
4.19898e-08
4.40171e-08
4.64743e-08
4.99067e-08
5.41581e-08
5.7982e-08
6.14927e-08
6.59552e-08
7.28437e-08
8.09451e-08
8.86283e-08
9.75674e-08
1.09125e-07
1.25259e-07
1.47367e-07
1.73493e-07
2.05365e-07
2.53044e-07
3.2797e-07
3.41739e-07
3.45359e-07
3.51086e-07
3.52653e-07
3.43618e-07
2.69475e-07
2.19588e-07
1.92647e-07
1.73613e-07
1.54351e-07
1.38623e-07
1.25793e-07
1.16241e-07
1.08897e-07
1.01965e-07
9.65466e-08
9.22836e-08
8.78101e-08
8.37161e-08
8.04719e-08
7.77233e-08
7.58977e-08
7.42048e-08
7.20469e-08
6.94804e-08
6.73665e-08
6.62068e-08
6.5423e-08
6.47821e-08
6.36833e-08
6.25289e-08
6.19282e-08
6.14688e-08
6.03291e-08
5.9365e-08
5.93912e-08
5.93549e-08
5.87867e-08
5.84448e-08
5.78717e-08
5.78411e-08
5.79817e-08
5.76757e-08
5.74457e-08
5.70396e-08
5.6641e-08
5.71926e-08
5.76116e-08
5.75895e-08
5.73355e-08
5.7151e-08
5.69729e-08
5.7102e-08
5.74212e-08
5.78133e-08
5.80552e-08
5.79899e-08
5.78529e-08
5.78599e-08
5.8057e-08
5.82406e-08
5.82305e-08
5.84775e-08
5.87735e-08
5.9119e-08
5.91737e-08
5.93186e-08
5.93047e-08
5.9024e-08
5.96036e-08
6.01607e-08
6.02053e-08
6.02972e-08
6.04588e-08
6.05093e-08
6.09309e-08
6.11879e-08
6.1454e-08
6.18321e-08
6.19367e-08
6.21194e-08
6.26754e-08
6.29565e-08
6.3096e-08
6.34812e-08
6.39898e-08
6.45272e-08
6.49871e-08
6.54718e-08
6.59167e-08
6.64297e-08
6.74107e-08
6.80213e-08
6.86926e-08
6.96139e-08
7.01916e-08
7.13276e-08
7.23587e-08
7.3375e-08
7.44549e-08
7.5791e-08
7.71612e-08
7.85198e-08
7.99765e-08
8.1463e-08
8.32567e-08
8.51666e-08
8.70484e-08
8.90831e-08
9.11243e-08
9.31664e-08
9.59568e-08
9.86276e-08
1.01293e-07
1.04117e-07
1.07049e-07
1.1033e-07
1.13909e-07
1.17553e-07
1.21358e-07
1.2554e-07
1.29975e-07
1.34527e-07
1.39251e-07
1.44323e-07
1.49659e-07
1.55342e-07
1.61441e-07
1.67525e-07
1.73834e-07
1.81019e-07
1.88548e-07
1.96288e-07
2.04213e-07
2.12777e-07
2.21732e-07
2.31202e-07
2.41053e-07
2.51073e-07
2.62486e-07
2.73967e-07
2.86046e-07
2.99157e-07
3.12921e-07
3.27778e-07
3.41776e-07
3.55782e-07
3.72339e-07
3.9327e-07
4.12532e-07
4.30545e-07
4.5228e-07
4.72979e-07
4.95554e-07
5.23883e-07
5.50022e-07
5.77871e-07
6.104e-07
6.44043e-07
6.79612e-07
7.14305e-07
7.54596e-07
7.97146e-07
8.43943e-07
8.46421e-07
8.47327e-07
8.48253e-07
8.49272e-07
8.50154e-07
8.50855e-07
8.51397e-07
8.51828e-07
8.52321e-07
8.52782e-07
8.53269e-07
8.53778e-07
8.54227e-07
8.54683e-07
8.55142e-07
8.55436e-07
8.55528e-07
8.55723e-07
8.55893e-07
8.5601e-07
8.56256e-07
8.56543e-07
8.56909e-07
8.57137e-07
8.57331e-07
8.5737e-07
8.5748e-07
8.57473e-07
8.57675e-07
8.57666e-07
8.57884e-07
8.57691e-07
8.57381e-07
8.57353e-07
8.57191e-07
8.57935e-07
8.58079e-07
8.59217e-07
8.58861e-07
8.57375e-07
8.57637e-07
8.59166e-07
8.59837e-07
5.51884e-07
6.18651e-07
3.95713e-07
4.32335e-07
3.23433e-07
2.76408e-07
1.25316e-07
1.30252e-07
2.67625e-07
3.14972e-07
2.60164e-07
2.87411e-07
5.87704e-07
6.30221e-07
8.48149e-07
8.52124e-07
8.53135e-07
8.54607e-07
8.58714e-07
8.5858e-07
6.48678e-07
7.21133e-07
6.63645e-07
6.28152e-07
2.79013e-07
2.89858e-07
5.74486e-07
5.58761e-07
4.43931e-07
5.31257e-07
8.55119e-07
8.54654e-07
6.5898e-07
7.93533e-07
8.52317e-07
6.9636e-07
8.48534e-07
8.50816e-07
7.4406e-07
1.8552e-07
2.04059e-07
1.14012e-07
1.23107e-07
5.49248e-08
5.20359e-08
2.37824e-08
2.299e-08
4.49599e-08
4.75688e-08
4.6123e-08
5.57326e-08
8.89439e-08
1.15066e-07
1.50765e-07
1.8882e-07
2.31847e-07
2.81531e-07
3.4036e-07
4.09883e-07
4.91392e-07
5.87494e-07
7.03315e-07
8.27535e-07
8.32423e-07
8.35514e-07
8.37662e-07
8.39522e-07
8.4106e-07
8.41945e-07
8.42448e-07
8.42632e-07
8.42553e-07
8.42341e-07
8.42127e-07
8.42022e-07
8.4213e-07
8.4263e-07
8.43425e-07
8.44503e-07
8.4586e-07
8.47407e-07
8.48821e-07
8.49309e-07
8.15097e-07
7.84334e-07
7.55804e-07
7.2917e-07
7.11948e-07
6.9947e-07
6.88543e-07
6.80743e-07
6.75835e-07
6.71861e-07
6.66793e-07
6.59723e-07
6.51251e-07
6.42541e-07
6.34037e-07
6.25134e-07
6.15223e-07
6.05285e-07
5.98138e-07
5.96194e-07
5.98672e-07
6.00572e-07
5.96859e-07
5.90126e-07
5.88068e-07
5.94459e-07
6.07372e-07
6.15146e-07
5.99141e-07
5.82005e-07
5.83482e-07
5.99658e-07
6.10788e-07
5.93649e-07
5.70144e-07
5.73713e-07
5.89947e-07
5.87372e-07
5.65411e-07
5.69781e-07
5.89197e-07
6.12701e-07
7.50822e-07
2.0075e-07
1.2965e-07
6.07104e-08
1.21354e-07
1.39652e-09
1.83926e-09
2.16666e-08
1.47863e-08
1.42576e-08
1.3294e-08
1.19301e-08
1.1039e-08
1.05688e-08
1.0425e-08
1.0619e-08
1.07711e-08
1.08416e-08
1.07647e-08
1.0719e-08
1.057e-08
1.03478e-08
1.06242e-08
1.18159e-08
1.36289e-08
1.60218e-08
1.50977e-08
1.36043e-08
1.29599e-08
1.40966e-08
1.58719e-08
1.71896e-08
1.80971e-08
2.35676e-08
4.58042e-08
9.87457e-08
4.17658e-08
2.0114e-08
1.6483e-08
2.21183e-08
4.0823e-08
2.586e-08
2.91862e-08
3.86045e-08
2.7792e-08
4.73758e-08
3.10618e-08
1.75257e-08
1.42972e-08
1.31061e-08
1.53717e-08
2.09775e-08
2.34397e-08
1.86522e-08
1.4253e-08
1.18573e-08
1.14786e-08
1.22525e-08
1.2929e-08
1.26974e-08
1.07695e-08
8.94697e-09
7.68334e-09
7.36534e-09
7.91636e-09
7.79081e-09
7.11908e-09
5.91444e-09
5.1074e-09
5.43705e-09
6.59052e-09
7.31051e-09
6.00145e-09
4.82971e-09
4.93093e-09
5.2052e-09
5.04965e-09
5.04409e-09
4.94056e-09
5.15834e-09
5.10445e-09
5.62661e-09
7.43746e-09
7.33741e-09
6.50024e-09
6.2923e-09
5.55924e-09
5.31821e-09
3.85544e-09
3.23487e-09
3.45924e-09
3.00571e-09
2.19182e-09
3.19975e-09
4.41173e-09
7.32947e-09
6.63061e-09
1.68104e-08
1.21467e-08
1.7309e-08
1.57926e-08
2.28833e-08
2.43061e-08
2.27859e-08
2.15225e-08
1.12263e-08
2.90056e-08
9.75804e-09
5.35353e-09
3.0289e-09
3.89344e-09
6.99395e-09
8.11178e-09
9.83278e-09
1.32459e-08
1.20739e-08
2.92354e-08
2.93685e-08
3.33185e-08
3.37717e-08
2.68782e-08
2.34826e-08
2.73587e-08
1.30931e-08
1.45679e-08
9.3099e-09
7.77667e-09
4.62686e-09
5.21867e-09
1.02737e-08
1.03402e-08
1.80492e-08
2.02202e-08
6.31402e-08
5.15737e-08
2.50489e-08
2.37382e-08
2.37454e-08
2.16016e-08
2.05125e-08
1.94791e-08
1.87498e-08
1.78796e-08
1.69129e-08
1.6419e-08
1.60081e-08
1.53816e-08
1.47246e-08
1.43259e-08
1.40073e-08
1.37088e-08
1.33773e-08
1.30287e-08
1.28337e-08
1.27659e-08
1.26807e-08
1.24911e-08
1.22566e-08
1.21122e-08
1.22095e-08
1.23963e-08
1.24063e-08
1.23788e-08
1.24409e-08
1.25395e-08
1.27537e-08
1.29522e-08
1.31935e-08
1.35227e-08
1.38154e-08
1.4109e-08
1.44295e-08
1.48294e-08
1.52209e-08
1.56425e-08
1.60863e-08
1.65477e-08
1.70395e-08
1.7529e-08
1.80574e-08
1.85784e-08
1.91311e-08
1.97541e-08
2.04451e-08
2.11204e-08
2.17618e-08
2.23786e-08
2.31955e-08
2.42269e-08
2.52067e-08
2.60625e-08
2.70964e-08
2.82118e-08
2.93265e-08
3.06098e-08
3.20444e-08
3.36048e-08
3.56141e-08
3.7711e-08
3.96271e-08
4.14248e-08
4.36472e-08
4.63657e-08
5.02033e-08
5.44033e-08
5.82487e-08
6.21041e-08
6.70682e-08
7.39833e-08
8.16921e-08
9.02052e-08
1.01246e-07
1.14299e-07
1.29282e-07
1.49203e-07
1.74488e-07
2.03254e-07
2.39044e-07
2.88404e-07
3.31251e-07
3.38321e-07
3.02323e-07
2.53307e-07
2.14045e-07
1.91123e-07
1.76998e-07
1.57606e-07
1.37369e-07
1.24456e-07
1.17068e-07
1.10588e-07
1.03065e-07
9.60248e-08
9.05606e-08
8.5967e-08
8.3342e-08
8.0478e-08
7.66338e-08
7.39822e-08
7.24255e-08
7.07956e-08
6.8633e-08
6.6251e-08
6.44317e-08
6.36025e-08
6.34213e-08
6.261e-08
6.08887e-08
5.97806e-08
5.96725e-08
5.87631e-08
5.7903e-08
5.77726e-08
5.75293e-08
5.70539e-08
5.64509e-08
5.62077e-08
5.61739e-08
5.6007e-08
5.60994e-08
5.60652e-08
5.54351e-08
5.46915e-08
5.48382e-08
5.56915e-08
5.6023e-08
5.56294e-08
5.54302e-08
5.56837e-08
5.56508e-08
5.57072e-08
5.5797e-08
5.60252e-08
5.62427e-08
5.60232e-08
5.58302e-08
5.63683e-08
5.7227e-08
5.75171e-08
5.68209e-08
5.64471e-08
5.70897e-08
5.79126e-08
5.79973e-08
5.76709e-08
5.77912e-08
5.83135e-08
5.87096e-08
5.87924e-08
5.85774e-08
5.84458e-08
5.92551e-08
6.0039e-08
6.01112e-08
5.99652e-08
5.99705e-08
6.01863e-08
6.06522e-08
6.13375e-08
6.19238e-08
6.19965e-08
6.19065e-08
6.23865e-08
6.30774e-08
6.35846e-08
6.41364e-08
6.45574e-08
6.48527e-08
6.57917e-08
6.67128e-08
6.71806e-08
6.76305e-08
6.86467e-08
6.96858e-08
7.05644e-08
7.15497e-08
7.24716e-08
7.36239e-08
7.51306e-08
7.63934e-08
7.77314e-08
7.91227e-08
8.0783e-08
8.26064e-08
8.4483e-08
8.6564e-08
8.81401e-08
9.01213e-08
9.28154e-08
9.53971e-08
9.78538e-08
1.00393e-07
1.03429e-07
1.06605e-07
1.09967e-07
1.13699e-07
1.17116e-07
1.2061e-07
1.24903e-07
1.29471e-07
1.33877e-07
1.38555e-07
1.43633e-07
1.48664e-07
1.5416e-07
1.6076e-07
1.67334e-07
1.73859e-07
1.80957e-07
1.88118e-07
1.954e-07
2.0326e-07
2.12158e-07
2.21244e-07
2.29595e-07
2.39873e-07
2.51698e-07
2.62312e-07
2.73395e-07
2.84691e-07
2.97929e-07
3.14056e-07
3.29327e-07
3.4139e-07
3.53832e-07
3.71975e-07
3.9406e-07
4.13837e-07
4.309e-07
4.49427e-07
4.71553e-07
4.99791e-07
5.28164e-07
5.52015e-07
5.79289e-07
6.08487e-07
6.42658e-07
6.80438e-07
7.15699e-07
7.50368e-07
7.92291e-07
8.5073e-07
9.13248e-07
9.60669e-07
1.00947e-06
1.06213e-06
1.13358e-06
1.21226e-06
1.29408e-06
1.38495e-06
1.49228e-06
1.60233e-06
1.70248e-06
1.83851e-06
2.0104e-06
2.20783e-06
2.33769e-06
2.55986e-06
2.89728e-06
3.26318e-06
3.67509e-06
4.49698e-06
5.18087e-06
5.85712e-06
6.60678e-06
7.96561e-06
8.81572e-06
8.81737e-06
8.81768e-06
8.6964e-06
8.81834e-06
8.81524e-06
8.81567e-06
6.68048e-06
7.11694e-06
6.36449e-06
2.62179e-06
2.82838e-06
3.15022e-06
4.54992e-06
1.75701e-06
1.87673e-06
5.60094e-07
6.6493e-07
3.74001e-07
3.8999e-07
2.93382e-07
2.56153e-07
1.16623e-07
1.27945e-07
2.88519e-07
3.08468e-07
3.14469e-07
3.3227e-07
4.06238e-07
3.85581e-07
6.79285e-07
1.14576e-06
1.33577e-06
8.87436e-07
8.64094e-07
1.12161e-06
5.13881e-07
5.46998e-07
5.0815e-07
4.9341e-07
2.41534e-07
2.66578e-07
5.77215e-07
6.05749e-07
4.92169e-07
5.51154e-07
4.83037e-07
5.39948e-07
4.92105e-07
6.51069e-07
6.35553e-07
9.38954e-07
6.78424e-07
9.31369e-07
7.82565e-07
1.9323e-07
2.19426e-07
1.05153e-07
1.09977e-07
4.9884e-08
4.59067e-08
2.20607e-08
2.23499e-08
4.6223e-08
4.75012e-08
4.98668e-08
5.54079e-08
7.61957e-08
9.64443e-08
1.36957e-07
1.59612e-07
1.7366e-07
1.99404e-07
2.32576e-07
2.7382e-07
3.23761e-07
3.85169e-07
4.60487e-07
5.50801e-07
6.58422e-07
7.90321e-07
9.5567e-07
1.16249e-06
1.41208e-06
1.684e-06
1.91842e-06
2.03467e-06
2.0195e-06
1.92091e-06
1.78934e-06
1.64537e-06
1.50293e-06
1.3753e-06
1.26521e-06
1.1689e-06
1.091e-06
1.02846e-06
9.78699e-07
9.41381e-07
9.132e-07
8.894e-07
8.65859e-07
8.40343e-07
8.12635e-07
7.84752e-07
7.58609e-07
7.35213e-07
7.16728e-07
7.04223e-07
6.95749e-07
6.88285e-07
6.7933e-07
6.68221e-07
6.5652e-07
6.46817e-07
6.40486e-07
6.36269e-07
6.31056e-07
6.2262e-07
6.12049e-07
6.02845e-07
5.97493e-07
5.95821e-07
5.95963e-07
5.97296e-07
6.01861e-07
6.10558e-07
6.17037e-07
6.09841e-07
5.8943e-07
5.7364e-07
5.80314e-07
6.03021e-07
6.11524e-07
5.85949e-07
5.5671e-07
5.67708e-07
6.07348e-07
6.17151e-07
5.83072e-07
5.75857e-07
6.1505e-07
6.23484e-07
5.98186e-07
7.31969e-07
2.01321e-07
1.29205e-07
6.09375e-08
1.24066e-07
9.81009e-10
1.26441e-09
1.84875e-08
1.25099e-08
1.15596e-08
1.08245e-08
9.90306e-09
9.35499e-09
9.09013e-09
9.12324e-09
9.35525e-09
9.42763e-09
9.41314e-09
9.32019e-09
9.3399e-09
9.51256e-09
9.84099e-09
1.05632e-08
1.18215e-08
1.32227e-08
1.40533e-08
1.33967e-08
1.21626e-08
1.17324e-08
1.39979e-08
1.77696e-08
1.99904e-08
1.86337e-08
1.88884e-08
2.4531e-08
4.25682e-08
5.4637e-08
2.87341e-08
1.84471e-08
1.69818e-08
2.89337e-08
5.85383e-08
3.74732e-08
2.52013e-08
2.25158e-08
3.63344e-08
6.27406e-08
2.38941e-08
1.30901e-08
1.10147e-08
1.43776e-08
2.3543e-08
2.83209e-08
1.9615e-08
1.21016e-08
9.65666e-09
9.50851e-09
1.04175e-08
1.21226e-08
1.3772e-08
1.10272e-08
7.82198e-09
6.82327e-09
7.39396e-09
8.47954e-09
7.68045e-09
6.25275e-09
5.13467e-09
4.86018e-09
5.70746e-09
6.5283e-09
6.01717e-09
4.83847e-09
4.48812e-09
5.04458e-09
5.56466e-09
5.23316e-09
4.71301e-09
4.31373e-09
4.46512e-09
5.14496e-09
7.02798e-09
1.03231e-08
9.82852e-09
7.83579e-09
8.02172e-09
6.28787e-09
5.15082e-09
4.63902e-09
4.02812e-09
3.13166e-09
2.50847e-09
1.96273e-09
1.55457e-09
1.81256e-09
1.68417e-09
2.91143e-09
4.14723e-09
7.3505e-09
6.50828e-09
1.83518e-08
1.35403e-08
1.94686e-08
2.38505e-08
5.89546e-08
4.64347e-08
2.7483e-08
2.60581e-08
1.14254e-08
2.90104e-08
1.55103e-08
7.3019e-09
4.931e-09
3.43409e-09
4.49392e-09
1.12162e-08
9.21072e-09
1.38337e-08
1.13273e-08
2.45382e-08
2.57707e-08
4.45614e-08
1.04323e-07
9.14457e-08
4.53954e-08
3.13389e-08
1.31885e-08
1.38428e-08
8.59156e-09
7.60665e-09
4.72291e-09
5.23453e-09
9.46548e-09
9.78696e-09
1.75326e-08
1.79616e-08
3.45774e-08
3.11421e-08
1.95125e-08
1.81283e-08
1.77312e-08
1.84589e-08
1.77491e-08
1.69596e-08
1.64065e-08
1.58798e-08
1.52058e-08
1.47947e-08
1.44479e-08
1.40212e-08
1.36049e-08
1.33959e-08
1.32387e-08
1.30653e-08
1.28556e-08
1.26691e-08
1.2537e-08
1.23714e-08
1.22952e-08
1.24451e-08
1.25408e-08
1.24309e-08
1.24139e-08
1.25617e-08
1.27096e-08
1.28454e-08
1.29257e-08
1.31035e-08
1.34412e-08
1.3812e-08
1.40451e-08
1.42139e-08
1.4575e-08
1.50748e-08
1.54906e-08
1.57882e-08
1.62469e-08
1.68637e-08
1.7337e-08
1.76943e-08
1.82333e-08
1.89251e-08
1.95325e-08
2.00515e-08
2.06742e-08
2.14648e-08
2.21976e-08
2.29701e-08
2.38639e-08
2.47259e-08
2.55584e-08
2.65191e-08
2.77341e-08
2.90017e-08
3.02576e-08
3.17067e-08
3.30874e-08
3.45382e-08
3.65562e-08
3.89826e-08
4.10694e-08
4.30341e-08
4.5126e-08
4.83027e-08
5.27816e-08
5.71442e-08
6.061e-08
6.40459e-08
6.98316e-08
7.82384e-08
8.73018e-08
9.67314e-08
1.05725e-07
1.15527e-07
1.31213e-07
1.51918e-07
1.69499e-07
1.88082e-07
2.12232e-07
2.3256e-07
2.38517e-07
2.23667e-07
1.9682e-07
1.76955e-07
1.71391e-07
1.62622e-07
1.43568e-07
1.26418e-07
1.16382e-07
1.11435e-07
1.07174e-07
1.00324e-07
9.33222e-08
8.76867e-08
8.31307e-08
8.11268e-08
7.8988e-08
7.55498e-08
7.27534e-08
7.12967e-08
6.96534e-08
6.70078e-08
6.51323e-08
6.41874e-08
6.36515e-08
6.31634e-08
6.15873e-08
6.00119e-08
5.94077e-08
5.87487e-08
5.77869e-08
5.76979e-08
5.79905e-08
5.74848e-08
5.64986e-08
5.5941e-08
5.5605e-08
5.56581e-08
5.59532e-08
5.59054e-08
5.54214e-08
5.47852e-08
5.46866e-08
5.53119e-08
5.5575e-08
5.54256e-08
5.51513e-08
5.50762e-08
5.55245e-08
5.58934e-08
5.58746e-08
5.55958e-08
5.56348e-08
5.57817e-08
5.56391e-08
5.56492e-08
5.6268e-08
5.72567e-08
5.7691e-08
5.71059e-08
5.64612e-08
5.68065e-08
5.75389e-08
5.76913e-08
5.74215e-08
5.78851e-08
5.90004e-08
5.86851e-08
5.81618e-08
5.82818e-08
5.85505e-08
5.95369e-08
6.02781e-08
5.98339e-08
5.96384e-08
5.99428e-08
6.00984e-08
6.05567e-08
6.1442e-08
6.18974e-08
6.17783e-08
6.20614e-08
6.26833e-08
6.30857e-08
6.34238e-08
6.39704e-08
6.44804e-08
6.51202e-08
6.615e-08
6.64717e-08
6.69391e-08
6.76975e-08
6.88431e-08
6.98951e-08
7.04077e-08
7.12894e-08
7.23853e-08
7.3815e-08
7.51539e-08
7.6199e-08
7.75399e-08
7.91408e-08
8.10418e-08
8.24418e-08
8.41076e-08
8.6428e-08
8.80855e-08
9.01728e-08
9.2871e-08
9.4949e-08
9.75518e-08
1.00528e-07
1.03357e-07
1.06427e-07
1.09712e-07
1.13327e-07
1.16905e-07
1.20525e-07
1.24819e-07
1.29208e-07
1.33467e-07
1.3802e-07
1.43019e-07
1.48176e-07
1.53822e-07
1.60176e-07
1.66661e-07
1.73441e-07
1.80309e-07
1.87828e-07
1.95424e-07
2.02483e-07
2.10822e-07
2.19825e-07
2.28468e-07
2.39711e-07
2.51798e-07
2.61004e-07
2.71672e-07
2.83452e-07
2.97366e-07
3.13031e-07
3.27997e-07
3.41739e-07
3.55282e-07
3.71834e-07
3.90588e-07
4.11768e-07
4.2966e-07
4.48005e-07
4.72436e-07
5.00982e-07
5.26248e-07
5.49967e-07
5.76922e-07
6.04569e-07
6.38151e-07
6.76866e-07
7.15052e-07
7.49748e-07
7.91569e-07
8.49115e-07
9.02662e-07
9.48356e-07
1.00058e-06
1.05733e-06
1.12938e-06
1.20669e-06
1.28969e-06
1.38599e-06
1.47098e-06
1.57876e-06
1.67975e-06
1.80027e-06
1.95559e-06
2.13837e-06
2.30884e-06
2.51245e-06
2.85131e-06
3.07467e-06
3.45974e-06
3.99101e-06
4.6566e-06
5.21962e-06
6.48643e-06
7.12561e-06
7.04037e-06
7.62583e-06
9.87184e-06
9.87314e-06
5.04533e-06
7.26238e-06
2.61035e-06
3.36555e-06
4.61975e-06
2.60684e-06
2.69286e-06
1.82167e-06
2.19747e-06
5.71336e-07
7.03669e-07
3.46743e-07
3.57009e-07
2.73278e-07
2.36103e-07
1.08376e-07
1.19413e-07
2.7376e-07
2.7922e-07
3.05608e-07
3.17725e-07
3.96372e-07
4.20407e-07
1.19259e-06
1.10201e-06
8.42583e-07
5.30882e-07
5.77577e-07
4.04583e-07
4.37164e-07
4.54758e-07
4.07804e-07
2.91637e-07
2.0841e-07
2.18894e-07
4.8487e-07
4.73581e-07
4.65047e-07
4.9847e-07
5.21844e-07
5.57962e-07
5.57581e-07
6.0635e-07
5.66802e-07
7.05801e-07
7.38961e-07
1.16222e-06
1.60629e-07
2.27971e-07
8.80444e-07
9.73852e-08
9.93789e-08
4.63263e-08
4.27607e-08
2.09388e-08
2.08817e-08
4.19304e-08
4.1121e-08
4.53746e-08
5.45935e-08
7.67443e-08
8.75037e-08
1.74797e-07
1.97188e-07
1.53565e-07
1.55333e-07
1.69959e-07
1.92116e-07
2.21085e-07
2.56655e-07
2.99461e-07
3.49632e-07
4.08329e-07
4.77992e-07
5.61266e-07
6.6033e-07
7.771e-07
9.1317e-07
1.06854e-06
1.2363e-06
1.40211e-06
1.55242e-06
1.66879e-06
1.72221e-06
1.71292e-06
1.65615e-06
1.55025e-06
1.4225e-06
1.30067e-06
1.19192e-06
1.10036e-06
1.03095e-06
9.77108e-07
9.37665e-07
9.09946e-07
8.89571e-07
8.71595e-07
8.51731e-07
8.28046e-07
8.01774e-07
7.74987e-07
7.51228e-07
7.3034e-07
7.14849e-07
7.04554e-07
6.96664e-07
6.88032e-07
6.7679e-07
6.63778e-07
6.52127e-07
6.44817e-07
6.42021e-07
6.40337e-07
6.34914e-07
6.23949e-07
6.11059e-07
6.01653e-07
5.98362e-07
6.00197e-07
6.04542e-07
6.08841e-07
6.12987e-07
6.15941e-07
6.12097e-07
5.97507e-07
5.79359e-07
5.76889e-07
5.9181e-07
6.05258e-07
5.91459e-07
5.60868e-07
5.57674e-07
5.91142e-07
6.14246e-07
5.97968e-07
5.87525e-07
6.16924e-07
6.24266e-07
5.90113e-07
5.75207e-07
6.99199e-07
1.98273e-07
1.29892e-07
6.12583e-08
1.22957e-07
7.3558e-10
9.37544e-10
1.55458e-08
1.09865e-08
9.5944e-09
8.80643e-09
7.98617e-09
7.6817e-09
7.77139e-09
8.16288e-09
8.69022e-09
8.68809e-09
8.44935e-09
8.26259e-09
8.22185e-09
8.66418e-09
9.75396e-09
1.12509e-08
1.21823e-08
1.26402e-08
1.24266e-08
1.17909e-08
1.12151e-08
1.12826e-08
1.26476e-08
1.60871e-08
2.00959e-08
2.05119e-08
1.98259e-08
2.17761e-08
2.73859e-08
3.07904e-08
1.98918e-08
1.3778e-08
1.3513e-08
1.77105e-08
2.69989e-08
2.9939e-08
2.11963e-08
2.05767e-08
2.53527e-08
2.826e-08
2.02575e-08
1.38904e-08
1.26913e-08
1.72777e-08
2.6567e-08
2.36021e-08
1.58871e-08
1.13941e-08
9.6949e-09
8.81268e-09
9.36536e-09
1.1631e-08
1.37311e-08
1.09447e-08
8.03111e-09
7.3021e-09
8.06008e-09
8.29573e-09
7.21699e-09
5.85169e-09
5.22641e-09
5.39308e-09
6.02816e-09
5.82812e-09
5.0606e-09
4.75796e-09
5.1311e-09
5.55444e-09
5.75951e-09
5.40877e-09
4.98722e-09
5.10631e-09
5.41395e-09
5.80092e-09
6.34596e-09
7.84047e-09
1.01065e-08
1.83522e-08
3.58509e-08
7.91198e-08
2.06171e-08
1.17293e-08
6.0313e-09
3.63297e-09
2.4553e-09
2.11211e-09
1.95608e-09
1.9002e-09
1.47826e-09
1.37564e-09
1.77441e-09
1.76086e-09
2.94095e-09
4.02738e-09
6.42553e-09
5.97448e-09
1.69437e-08
1.37913e-08
1.80813e-08
1.99615e-08
2.22842e-08
5.17719e-08
3.81674e-08
1.92043e-08
1.05198e-08
1.25492e-08
1.73147e-08
1.16759e-08
8.01784e-09
4.18047e-09
5.57233e-09
1.60672e-08
1.24415e-08
2.04426e-08
1.47955e-08
3.38427e-08
3.71599e-08
4.39147e-08
4.66631e-08
5.5411e-08
9.54207e-08
3.02548e-08
1.31509e-08
1.3169e-08
8.10222e-09
7.59376e-09
4.99865e-09
5.43935e-09
8.76505e-09
9.10669e-09
1.63902e-08
1.54808e-08
1.82279e-08
2.22758e-08
2.16993e-08
1.68645e-08
1.56628e-08
1.64091e-08
1.59147e-08
1.54096e-08
1.48677e-08
1.44047e-08
1.39907e-08
1.3684e-08
1.35051e-08
1.34006e-08
1.31937e-08
1.3004e-08
1.27756e-08
1.2631e-08
1.25673e-08
1.26047e-08
1.26723e-08
1.26171e-08
1.25158e-08
1.24822e-08
1.26249e-08
1.28855e-08
1.30135e-08
1.30217e-08
1.31079e-08
1.33626e-08
1.37264e-08
1.39361e-08
1.4088e-08
1.4442e-08
1.49474e-08
1.53138e-08
1.55456e-08
1.59731e-08
1.65862e-08
1.70927e-08
1.74361e-08
1.7926e-08
1.86303e-08
1.92386e-08
1.97118e-08
2.02878e-08
2.11031e-08
2.19584e-08
2.26427e-08
2.33974e-08
2.42532e-08
2.50747e-08
2.59893e-08
2.72494e-08
2.86139e-08
2.97916e-08
3.10974e-08
3.24344e-08
3.36308e-08
3.53747e-08
3.79105e-08
4.04268e-08
4.24077e-08
4.41467e-08
4.6595e-08
5.06246e-08
5.49737e-08
5.87271e-08
6.18757e-08
6.64456e-08
7.35215e-08
8.19804e-08
8.98491e-08
9.70422e-08
1.05538e-07
1.16089e-07
1.29201e-07
1.43314e-07
1.57234e-07
1.68714e-07
1.76951e-07
1.82627e-07
1.74695e-07
1.59164e-07
1.52614e-07
1.53055e-07
1.43916e-07
1.27442e-07
1.15829e-07
1.09678e-07
1.06036e-07
1.0129e-07
9.52333e-08
9.00841e-08
8.52884e-08
8.1006e-08
7.79294e-08
7.61185e-08
7.43458e-08
7.1989e-08
6.96632e-08
6.7767e-08
6.58233e-08
6.43857e-08
6.38014e-08
6.31909e-08
6.17182e-08
5.99139e-08
5.93013e-08
5.92113e-08
5.79885e-08
5.72202e-08
5.77705e-08
5.77688e-08
5.65807e-08
5.55182e-08
5.55434e-08
5.54232e-08