/*--------------------------------*- C++ -*----------------------------------*\
| =========                 |                                                 |
| \\      /  F ield         | OpenFOAM: The Open Source CFD Toolbox           |
|  \\    /   O peration     | Version:  v2006                                 |
|   \\  /    A nd           | Website:  www.openfoam.com                      |
|    \\/     M anipulation  |                                                 |
\*---------------------------------------------------------------------------*/
FoamFile
{
    version     2.0;
    format      ascii;
    class       volScalarField;
    location    "3.7";
    object      omega;
}
// * * * * * * * * * * * * * * * * * * * * * * * * * * * * * * * * * * * * * //

dimensions      [0 0 -1 0 0 0 0];


internalField   nonuniform List<scalar> 
33000
(
0.805106
0.80564
0.806077
0.806494
0.806883
0.807232
0.807541
0.807812
0.808046
0.808244
0.808412
0.808549
0.808657
0.808737
0.808793
0.808831
0.808861
0.808894
0.808936
0.808987
0.809032
0.809058
0.809064
0.809058
0.80906
0.809082
0.80912
0.809165
0.809212
0.809265
0.809311
0.809335
0.809335
0.809328
0.809339
0.809378
0.809415
0.809428
0.809409
0.809384
0.809393
0.809451
0.809526
0.809566
0.80954
0.809463
0.80939
0.809356
0.80936
0.80938
0.809391
0.809375
0.809322
0.809254
0.809202
0.809179
0.809166
0.809133
0.809085
0.809055
0.809075
0.80913
0.809173
0.80916
0.809092
0.809025
0.808983
0.808949
0.80888
0.808747
0.80857
0.808373
0.808168
0.807956
0.807718
0.807461
0.807255
0.807197
0.807442
0.807686
0.807504
0.807241
0.806997
0.806848
0.806767
0.806706
0.806613
0.806541
0.806516
0.806515
0.806517
0.806513
0.806484
0.806427
0.806351
0.806254
0.80613
0.805948
0.805706
0.805469
0.805259
0.805092
0.804943
0.804813
0.804745
0.804751
0.804774
0.804766
0.804715
0.804666
0.804627
0.804586
0.804554
0.804517
0.804467
0.8044
0.804323
0.804269
0.804242
0.804225
0.804216
0.804199
0.804187
0.804192
0.80421
0.804223
0.804229
0.804234
0.804235
0.804239
0.804242
0.804245
0.804249
0.804252
0.804252
0.804249
0.804248
0.804247
0.804247
0.804244
0.804244
0.804244
0.804242
0.804238
0.804234
0.804231
0.804227
0.804224
0.804218
0.804212
0.804208
0.804203
0.804199
0.804191
0.804184
0.804179
0.804174
0.80417
0.804166
0.804166
0.804172
0.804182
0.804194
0.804209
0.804224
0.804238
0.804249
0.804255
0.804258
0.804259
0.804258
0.804253
0.804248
0.804243
0.804239
0.804236
0.804232
0.804228
0.804225
0.804223
0.804221
0.80422
0.804218
0.804216
0.804215
0.804215
0.804214
0.804213
0.804213
0.804213
0.804213
0.804212
0.804211
0.80421
0.804209
0.804208
0.804206
0.804203
0.8042
0.804195
0.804191
0.804186
0.804181
0.804176
0.804169
0.804162
0.804154
0.804146
0.804138
0.804129
0.804119
0.80411
0.804099
0.804089
0.804078
0.804066
0.804054
0.804042
0.804031
0.804018
0.804005
0.803991
0.803977
0.803963
0.80395
0.803935
0.80392
0.803905
0.80389
0.803874
0.803859
0.803843
0.803827
0.80381
0.803793
0.803776
0.80376
0.803742
0.803725
0.803707
0.803689
0.803672
0.803654
0.803635
0.803617
0.803598
0.80358
0.803561
0.803542
0.803523
0.803504
0.803485
0.803466
0.803447
0.803427
0.803408
0.803388
0.803368
0.803349
0.803329
0.803309
0.803289
0.803269
0.803249
0.803229
0.803209
0.803189
0.803168
0.803148
0.803127
0.803107
0.803087
0.803066
0.803046
0.803026
0.803005
0.802985
0.802964
0.802944
0.802924
0.802903
0.802883
0.802863
0.802842
0.802822
0.802802
0.802782
0.802762
0.802741
0.802721
0.802701
0.802681
0.802661
0.802641
0.802622
0.802602
0.802583
0.802564
0.802545
0.802526
0.802507
0.802489
0.802471
0.802453
0.802435
0.802418
0.802401
0.802385
0.802369
0.802355
0.802341
0.802328
0.802315
0.802303
0.802292
0.802281
0.802272
0.802262
0.802254
0.802246
0.802238
0.802231
0.802224
0.802218
0.802212
0.802207
0.802202
0.802196
0.802192
0.802187
0.802183
0.802179
0.802174
0.80217
0.802166
0.802162
0.802157
0.802153
0.802149
0.802144
0.802139
0.802134
0.802129
0.802123
0.802117
0.802111
0.802104
0.802097
0.80209
0.802082
0.802074
0.802065
0.802056
0.802047
0.802038
0.802029
0.802019
0.802009
0.801999
0.801989
0.801979
0.801968
0.801957
0.801946
0.801935
0.801924
0.801913
0.801902
0.801891
0.801879
0.801868
0.801857
0.801845
0.801833
0.801822
0.80181
0.801799
0.801787
0.801776
0.801764
0.801753
0.801741
0.80173
0.801719
0.801707
0.801696
0.801685
0.801674
0.801663
0.801652
0.801642
0.801631
0.80162
0.80161
0.8016
0.801589
0.801579
0.801569
0.801559
0.801549
0.801539
0.80153
0.80152
0.80151
0.801501
0.801492
0.801483
0.801474
0.801465
0.801456
0.801448
0.801439
0.801431
0.801423
0.801414
0.801406
0.801398
0.80139
0.801382
0.801374
0.801367
0.801359
0.801352
0.801344
0.801334
0.801327
0.801322
0.801312
0.801314
0.801309
0.801325
0.80132
0.801323
0.801318
0.801316
0.80131
0.801307
0.801301
0.801297
0.801291
0.801286
0.801281
0.801274
0.801269
0.801264
0.801257
0.801255
0.80125
0.801252
0.801247
0.801245
0.80124
0.801236
0.801232
0.801227
0.801223
0.801218
0.801212
0.801208
0.801204
0.801197
0.801195
0.80119
0.801173
0.80117
0.801172
0.801155
0.801192
0.801194
0.80133
0.801333
0.801377
0.801395
0.801411
0.801421
0.801428
0.801433
0.801437
0.801439
0.801441
0.801441
0.801442
0.801441
0.80144
0.801439
0.801438
0.801436
0.801434
0.801432
0.801429
0.801427
0.801424
0.801421
0.801418
0.801415
0.801412
0.801409
0.801406
0.801402
0.801399
0.801395
0.801391
0.801387
0.801383
0.801378
0.801374
0.80137
0.801365
0.801361
0.801357
0.801352
0.801348
0.801344
0.80134
0.801335
0.801331
0.801327
0.801323
0.801319
0.801315
0.801311
0.801306
0.801302
0.801298
0.801294
0.80129
0.801286
0.801282
0.801278
0.801273
0.801269
0.801266
0.801262
0.801258
0.801254
0.80125
0.801246
0.801242
0.801239
0.801235
0.801231
0.801227
0.801223
0.801219
0.801215
0.801212
0.801208
0.801196
0.801229
0.801149
0.0980593
0.107159
0.112264
0.12177
0.130219
0.137074
0.142798
0.147762
0.152284
0.156199
0.159729
0.162698
0.165158
0.166929
0.168009
0.168566
0.168777
0.169364
0.170847
0.173095
0.175232
0.176007
0.175148
0.173351
0.172465
0.172745
0.173617
0.174342
0.174785
0.175069
0.174899
0.173602
0.171719
0.170522
0.170719
0.171811
0.172665
0.172021
0.170295
0.1689
0.168544
0.168967
0.168685
0.167209
0.164812
0.162551
0.160988
0.159808
0.158188
0.15596
0.153594
0.151491
0.149796
0.148763
0.148164
0.147496
0.147313
0.148289
0.150101
0.152173
0.154779
0.158123
0.162446
0.167527
0.172114
0.176686
0.182742
0.192293
0.207046
0.227508
0.256284
0.296841
0.353281
0.428347
0.518756
0.605586
0.682154
0.757075
0.842438
0.916468
0.9571
0.947963
0.851991
0.696407
0.46255
0.280819
0.156228
0.0949306
0.0679747
0.0554689
0.0510027
0.0504662
0.0537803
0.0621713
0.0794457
0.109654
0.155373
0.21226
0.261758
0.271419
0.235397
0.178815
0.115252
0.0716078
0.0543312
0.0446486
0.0393997
0.0364149
0.0351204
0.0340618
0.0333574
0.0339066
0.0363569
0.0422612
0.0534027
0.0701288
0.0855849
0.0852344
0.0677244
0.0511963
0.0401307
0.0333892
0.0318689
0.0308865
0.0304595
0.0294786
0.0287774
0.028573
0.0287502
0.0287575
0.0285998
0.0287154
0.0291509
0.0295232
0.0295154
0.0293127
0.0294939
0.0299506
0.0302102
0.0301016
0.0302639
0.0307236
0.0310603
0.0311968
0.0314674
0.0317748
0.0318167
0.0316468
0.0317964
0.0322396
0.0326864
0.0330848
0.0329706
0.0323717
0.032211
0.0327801
0.0333892
0.033349
0.0329056
0.0328946
0.03341
0.0337393
0.0334791
0.0332795
0.0336799
0.0341598
0.0341172
0.0338786
0.0340208
0.0345564
0.0348287
0.0345017
0.0342278
0.0345364
0.0349815
0.0350467
0.0348084
0.0346637
0.0347442
0.0349093
0.035051
0.0349655
0.0347711
0.0347722
0.0349271
0.0348808
0.0344822
0.0342584
0.0344138
0.0345616
0.0343943
0.0341572
0.0341063
0.0340907
0.0339621
0.0337207
0.033572
0.033562
0.0334113
0.032985
0.0326843
0.0326898
0.0328593
0.0327637
0.0323848
0.0318778
0.0315641
0.0316851
0.03177
0.0314627
0.030984
0.0308799
0.0308882
0.030747
0.0304071
0.0298829
0.0297418
0.029791
0.0297769
0.029731
0.0292281
0.0285883
0.0283821
0.0284803
0.0284354
0.0281806
0.0279645
0.027663
0.0271619
0.0269758
0.0270644
0.0269668
0.026745
0.0263912
0.0258894
0.0258746
0.026007
0.0259275
0.0256059
0.0254518
0.0253462
0.0251778
0.0249813
0.0248898
0.0247668
0.024529
0.0247287
0.024673
0.0242587
0.0241404
0.0241684
0.0241104
0.0240604
0.0238812
0.0238999
0.0238675
0.0235834
0.0234452
0.023569
0.0235399
0.0233571
0.0230693
0.023121
0.0231992
0.0231512
0.0230729
0.0229888
0.0227019
0.0225003
0.0225169
0.0225928
0.0226024
0.0225153
0.022384
0.0222588
0.0221044
0.0220733
0.0220176
0.0219256
0.021808
0.0218357
0.0218202
0.0216142
0.0214246
0.0212735
0.0211982
0.0212033
0.0211587
0.0210232
0.0208904
0.0206724
0.0205296
0.0205306
0.0204651
0.0203303
0.0202192
0.0200699
0.0199358
0.0198563
0.0197366
0.0196118
0.0194741
0.019309
0.0192064
0.0190702
0.018922
0.0187319
0.0185563
0.0184825
0.0183215
0.0181575
0.0179751
0.0178075
0.0176644
0.0175065
0.0173397
0.0171601
0.0169971
0.0168531
0.0166877
0.0165166
0.0163267
0.0161566
0.0160371
0.0158708
0.0156884
0.0155041
0.0153819
0.0152414
0.015087
0.014938
0.0147815
0.0146255
0.014481
0.0143417
0.0142086
0.0140804
0.0139541
0.0138267
0.0137033
0.0136026
0.0135066
0.0134062
0.0133055
0.013203
0.0131057
0.0130261
0.0129486
0.0128711
0.0127858
0.0127115
0.0126577
0.0125986
0.0125399
0.0124814
0.0124297
0.0123877
0.0123416
0.0122942
0.0122496
0.0122142
0.0121794
0.0121451
0.0121148
0.0120836
0.0120571
0.012036
0.0120117
0.0119883
0.0119648
0.0119394
0.0119181
0.0118991
0.0118816
0.0118637
0.0118477
0.0118345
0.0118204
0.0118073
0.0117939
0.0117793
0.0117666
0.0117565
0.0117485
0.011742
0.0117348
0.011728
0.0117208
0.0117134
0.0117068
0.0117
0.0116932
0.0116887
0.0116869
0.0116838
0.011681
0.0116789
0.0116751
0.0116707
0.0116652
0.0116616
0.0116585
0.0116575
0.0116555
0.0116551
0.0116519
0.0116514
0.011648
0.0116498
0.0116532
0.0116531
0.0116546
0.0116447
0.0116422
0.0116272
0.0116311
0.0116492
0.0116453
0.0116256
0.0116168
0.0115209
0.0115402
0.0116022
0.0116153
0.0116784
0.0117153
0.011683
0.0117541
0.0123865
0.0140901
0.0139961
0.0122622
0.0121732
0.0118067
0.0117663
0.0117095
0.0116961
0.0116763
0.0116246
0.0116259
0.0116692
0.0116825
0.0117167
0.0117335
0.0117266
0.0117239
0.0117539
0.0121111
0.0120578
0.0116857
0.0116698
0.0116746
0.0116045
0.0116617
0.0117043
0.0117212
0.0117524
0.0117236
0.0116812
0.0114794
0.0115184
0.0116153
0.0116176
0.0118667
0.0119282
0.0128966
0.0171387
0.0202242
0.0354861
0.0346349
0.0268934
0.0215404
0.0182641
0.0162177
0.0149019
0.0140462
0.0134625
0.0130389
0.0127276
0.0124929
0.0123042
0.0121541
0.0120465
0.0119753
0.0119309
0.0119005
0.0118745
0.0118533
0.0118413
0.0118346
0.0118324
0.0118339
0.0118372
0.0118405
0.0118424
0.0118414
0.0118349
0.0118243
0.0118097
0.0117912
0.0117701
0.0117509
0.0117398
0.0117311
0.0117232
0.0117163
0.0117103
0.0117058
0.0117026
0.0117
0.0116984
0.0116977
0.0116976
0.0116975
0.0116979
0.0116982
0.0116947
0.0116892
0.0116852
0.0116818
0.0116787
0.0116769
0.0116775
0.0116804
0.0116847
0.0116883
0.0116796
0.0116774
0.0116807
0.0116949
0.0117409
0.0117706
0.0117403
0.0116932
0.0116986
0.0117459
0.0117809
0.0117372
0.011681
0.0116853
0.0116955
0.0116893
0.0116768
0.0116845
0.0117004
0.0117419
0.0116374
0.011666
0.0117222
0.0104584
0.0176266
0.0183788
0.0183003
0.0197119
0.0210143
0.0220959
0.0230406
0.0238669
0.0246211
0.0252701
0.0258703
0.0263904
0.0268499
0.0272114
0.0274719
0.0276467
0.027756
0.0279423
0.0283226
0.0288623
0.0293575
0.0295567
0.0293921
0.0290558
0.028976
0.0291648
0.0294608
0.029659
0.0297069
0.0297746
0.0299053
0.0299307
0.0297059
0.0293169
0.028983
0.0288081
0.0287543
0.0285587
0.0281931
0.0277929
0.0274895
0.0274694
0.027567
0.0274747
0.0269902
0.0261584
0.0253033
0.0246885
0.0243776
0.0242417
0.0240717
0.0237188
0.0231841
0.0226384
0.0222773
0.022197
0.0223138
0.0225046
0.022751
0.0232077
0.0240841
0.0253583
0.0268098
0.0281457
0.0293229
0.0307474
0.0328711
0.0358616
0.0395624
0.04412
0.0507146
0.0608486
0.0758412
0.0971042
0.125142
0.160057
0.199725
0.240489
0.281116
0.316513
0.346696
0.371882
0.386431
0.385747
0.367826
0.315544
0.244685
0.160162
0.0730184
0.0328288
0.0155675
0.0092308
0.00662828
0.00591445
0.00686987
0.010188
0.0169989
0.0285948
0.0439575
0.0557281
0.0547472
0.0459477
0.0349308
0.0238333
0.0165314
0.0110858
0.00729465
0.00516328
0.00404227
0.00359081
0.00329514
0.00299841
0.00281528
0.00274293
0.00302068
0.00376949
0.00491712
0.00572112
0.00557795
0.00507587
0.00441878
0.00377757
0.003464
0.00312499
0.00264969
0.002412
0.00224187
0.00219354
0.00216349
0.00212803
0.00206834
0.0020393
0.00203844
0.00205674
0.00206354
0.00206746
0.00208499
0.00210469
0.00211337
0.00210496
0.00211662
0.0021443
0.00216131
0.00217166
0.00219359
0.00221186
0.00221047
0.00220316
0.00222039
0.00224901
0.00227158
0.00229194
0.00228583
0.00225506
0.00224903
0.00228441
0.00231814
0.00231036
0.00228342
0.00228749
0.00232265
0.00234391
0.00232599
0.00231135
0.00233852
0.00237309
0.00237263
0.00235481
0.00236199
0.00240013
0.00242094
0.00239797
0.00237887
0.00240283
0.00243244
0.00243365
0.00241941
0.00241244
0.00241576
0.00242183
0.00242857
0.00242528
0.00241726
0.00242003
0.00242784
0.0024193
0.00238863
0.00237111
0.00237938
0.0023884
0.00237925
0.00236527
0.00236084
0.00235381
0.00233581
0.00231348
0.00230552
0.00230806
0.00229485
0.00226063
0.00223552
0.00223233
0.00224294
0.00223267
0.00220147
0.00216685
0.00214932
0.00215654
0.00215392
0.00212721
0.00209787
0.00209316
0.00208887
0.00207322
0.00205033
0.00201855
0.00200753
0.00200676
0.00200385
0.0019989
0.00196641
0.00193001
0.00191523
0.00191523
0.00190985
0.00189287
0.00187795
0.00185985
0.00183226
0.00181883
0.00181963
0.00181243
0.00179811
0.001778
0.00175068
0.00174525
0.0017499
0.0017498
0.00173609
0.00172495
0.0017136
0.00170231
0.00169464
0.00168938
0.00168064
0.00167033
0.00168069
0.00167717
0.00165613
0.00164886
0.00164979
0.00164606
0.00164395
0.00163564
0.00163385
0.00163116
0.00162112
0.00161817
0.00162186
0.00161469
0.0016047
0.0015944
0.00159748
0.00159997
0.00159814
0.00159342
0.00158803
0.00157475
0.00156621
0.00156713
0.00156981
0.00156858
0.001563
0.00155727
0.00155374
0.00154651
0.00154262
0.00153811
0.00153412
0.00152959
0.00152972
0.00152885
0.00151838
0.00150972
0.00150409
0.00150053
0.00149854
0.00149529
0.00148866
0.00148289
0.00147419
0.00146774
0.00146614
0.00146203
0.00145524
0.00145022
0.00144442
0.00143836
0.00143331
0.00142727
0.00142129
0.00141502
0.00140825
0.00140281
0.00139559
0.001389
0.00138142
0.00137374
0.00136935
0.00136176
0.00135456
0.00134701
0.00133991
0.00133311
0.00132607
0.00131897
0.00131169
0.00130489
0.0012983
0.00129125
0.0012843
0.0012772
0.00127061
0.00126519
0.00125834
0.00125158
0.00124501
0.0012398
0.00123426
0.0012285
0.00122287
0.00121734
0.00121199
0.00120689
0.001202
0.00119745
0.00119311
0.00118888
0.0011848
0.00118091
0.0011775
0.00117433
0.00117122
0.00116814
0.00116519
0.00116249
0.00116019
0.00115796
0.00115584
0.00115371
0.00115186
0.00115039
0.00114885
0.00114743
0.00114611
0.00114493
0.00114394
0.00114294
0.00114208
0.0011413
0.00114061
0.00113992
0.00113939
0.00113892
0.00113843
0.00113809
0.00113778
0.00113742
0.00113716
0.00113686
0.00113656
0.00113636
0.00113621
0.00113606
0.0011359
0.0011358
0.00113569
0.0011356
0.0011356
0.00113552
0.00113542
0.00113543
0.00113551
0.00113559
0.00113553
0.00113548
0.00113554
0.00113557
0.00113557
0.00113562
0.00113557
0.00113565
0.00113575
0.00113578
0.00113568
0.0011358
0.00113577
0.0011358
0.00113572
0.00113576
0.00113566
0.00113566
0.00113544
0.0011354
0.00113519
0.0011353
0.00113569
0.00113563
0.00113548
0.00113545
0.00113546
0.00113532
0.00113519
0.00113516
0.00113534
0.0011353
0.00113593
0.00113843
0.00113726
0.00113551
0.00113368
0.00113396
0.00113586
0.00114467
0.00114447
0.00114406
0.00115609
0.00116279
0.00115423
0.0011691
0.00115984
0.00114353
0.00114121
0.00113893
0.00113885
0.00113843
0.0011375
0.00113798
0.00113717
0.00113715
0.00113793
0.00114003
0.00114019
0.00114007
0.00114199
0.00114402
0.00114084
0.00114379
0.00114128
0.00114157
0.00114066
0.0011406
0.00113887
0.00114014
0.00114124
0.00114277
0.00115184
0.00115122
0.00116334
0.00115928
0.00118221
0.00119104
0.00126356
0.00128646
0.0012911
0.00150226
0.00164487
0.00162585
0.00199621
0.00174465
0.00150422
0.00137679
0.00130167
0.0012561
0.00122697
0.00120735
0.0011929
0.00118208
0.00117404
0.00116791
0.00116327
0.00116006
0.00115773
0.0011559
0.00115425
0.00115277
0.00115156
0.00115072
0.00115029
0.00115017
0.00115029
0.00115055
0.0011508
0.00115087
0.00115072
0.00115035
0.00114984
0.00114927
0.00114876
0.00114837
0.00114814
0.00114806
0.00114814
0.00114814
0.00114797
0.00114765
0.00114727
0.00114695
0.00114681
0.0011469
0.00114718
0.00114752
0.00114779
0.00114791
0.00114794
0.00114802
0.00114819
0.00114843
0.0011486
0.0011485
0.00114818
0.00114787
0.00114776
0.00114799
0.00114859
0.0011493
0.00114989
0.00115076
0.00115142
0.00115152
0.00115158
0.00115108
0.00115095
0.00115195
0.00115279
0.00115251
0.00115095
0.00115078
0.00115281
0.00115371
0.0011521
0.00115125
0.00115378
0.00115463
0.00115259
0.00115249
0.0011561
0.00115495
0.00116612
0.00113676
0.00787921
0.00712687
0.00652788
0.00680406
0.00705065
0.00723291
0.00737196
0.00747282
0.00754674
0.00759604
0.00763604
0.00766965
0.00770353
0.00773481
0.00776021
0.00777874
0.0077882
0.00780329
0.00783657
0.00789074
0.00794205
0.00796816
0.00796043
0.00793816
0.00793549
0.00796259
0.00800038
0.00801454
0.00799375
0.00799448
0.0080473
0.00814037
0.00818582
0.00812174
0.00795574
0.00778255
0.00765416
0.00758194
0.0075145
0.00740714
0.00728033
0.00720751
0.00721182
0.00721038
0.00711017
0.0068947
0.00665794
0.00650633
0.00647093
0.00650095
0.00650799
0.00643832
0.00629606
0.00612946
0.00601074
0.00599018
0.00603618
0.00607424
0.00608981
0.00615439
0.00634237
0.00663777
0.00696466
0.00723622
0.00746255
0.0077827
0.00829001
0.00894236
0.00964247
0.0104715
0.011757
0.0138962
0.0172343
0.0221769
0.0291918
0.0387774
0.0513998
0.0675593
0.0872409
0.10808
0.126304
0.140794
0.150791
0.158294
0.165196
0.16996
0.167847
0.161479
0.146163
0.114039
0.0789005
0.0382
0.0203798
0.0109585
0.00639053
0.0043513
0.00354393
0.00378434
0.0048585
0.00615766
0.007011
0.00769166
0.00767079
0.00653536
0.00527811
0.00449185
0.00406191
0.00409741
0.00452169
0.00456336
0.00373708
0.00302421
0.002541
0.00222708
0.00193963
0.00172945
0.00155111
0.00148214
0.00147898
0.00152101
0.00157005
0.00157697
0.00157032
0.00160704
0.00166351
0.00181855
0.0018536
0.00168141
0.00158857
0.00149488
0.00144362
0.00140278
0.00136475
0.00132274
0.00129709
0.0012894
0.00128246
0.00127746
0.00128083
0.00128139
0.00127683
0.00127344
0.00126918
0.00126661
0.00126699
0.00126657
0.0012638
0.00126049
0.00125752
0.00125547
0.00125389
0.00125175
0.00124994
0.00124826
0.00124552
0.00124274
0.0012403
0.001237
0.00123412
0.00123249
0.0012308
0.00122917
0.00122715
0.00122476
0.00122252
0.00122045
0.00121853
0.00121633
0.00121438
0.00121288
0.00121144
0.00120891
0.00120585
0.0012045
0.00120387
0.00120221
0.00119956
0.0011969
0.00119523
0.00119402
0.00119258
0.00119072
0.00118874
0.00118696
0.00118492
0.00118223
0.00117947
0.00117779
0.00117678
0.00117498
0.00117253
0.00117037
0.00116888
0.00116688
0.0011635
0.0011597
0.00115761
0.00115698
0.00115566
0.00115265
0.00114944
0.0011474
0.0011461
0.00114437
0.00114227
0.00114032
0.00113807
0.00113499
0.00113235
0.00113105
0.00113007
0.00112849
0.00112655
0.00112483
0.00112324
0.00112086
0.001119
0.00111805
0.00111688
0.00111491
0.00111249
0.00111149
0.00111072
0.0011088
0.00110632
0.00110417
0.00110331
0.00110274
0.00110186
0.0011006
0.00109848
0.00109702
0.00109661
0.00109565
0.00109339
0.0010925
0.00109273
0.00109245
0.00109139
0.00108978
0.00108858
0.0010886
0.00108871
0.00108813
0.00108764
0.00108716
0.00108638
0.00108533
0.00108491
0.00108513
0.00108516
0.00108491
0.00108419
0.00108309
0.00108288
0.00108303
0.00108308
0.0010826
0.00108174
0.001081
0.00108053
0.00108028
0.00108007
0.00107937
0.00107881
0.00107849
0.0010783
0.00107768
0.00107718
0.00107692
0.00107651
0.00107555
0.00107414
0.00107332
0.00107361
0.00107363
0.00107281
0.00107176
0.00107112
0.00107076
0.00106993
0.00106877
0.00106845
0.0010681
0.00106743
0.00106669
0.00106539
0.00106438
0.00106413
0.00106365
0.00106278
0.00106207
0.0010612
0.00106011
0.00105926
0.00105874
0.00105799
0.00105706
0.00105625
0.00105546
0.00105457
0.00105368
0.00105276
0.0010517
0.00105089
0.00105006
0.0010491
0.00104797
0.001047
0.00104618
0.00104525
0.00104426
0.00104318
0.00104218
0.00104129
0.00104033
0.0010393
0.00103826
0.00103736
0.00103642
0.00103537
0.0010345
0.00103358
0.0010326
0.00103176
0.00103088
0.00102998
0.00102916
0.00102837
0.00102758
0.0010268
0.00102607
0.00102538
0.00102467
0.00102399
0.00102337
0.0010228
0.00102227
0.00102176
0.00102128
0.00102081
0.00102039
0.00102001
0.00101966
0.00101932
0.00101899
0.00101873
0.00101848
0.00101824
0.00101804
0.00101783
0.00101764
0.00101753
0.00101743
0.00101734
0.00101725
0.00101717
0.00101709
0.00101701
0.00101696
0.00101693
0.00101688
0.00101682
0.0010168
0.0010168
0.00101679
0.00101679
0.00101675
0.00101672
0.0010167
0.00101666
0.00101662
0.00101659
0.00101656
0.00101653
0.00101651
0.00101649
0.00101644
0.00101637
0.0010163
0.00101623
0.00101616
0.0010161
0.00101604
0.00101598
0.0010159
0.00101581
0.00101571
0.00101561
0.00101552
0.00101542
0.00101532
0.00101523
0.00101518
0.00101508
0.001015
0.0010149
0.00101479
0.00101465
0.00101458
0.00101445
0.0010144
0.00101424
0.00101409
0.00101396
0.00101412
0.00101384
0.00101417
0.00101351
0.00101255
0.00101216
0.00101184
0.00101298
0.00101305
0.00101647
0.00101496
0.00101253
0.00101178
0.00101122
0.00101181
0.00102002
0.00101832
0.00101113
0.0010118
0.00101385
0.00101441
0.00101625
0.00101556
0.00101177
0.001012
0.00101164
0.00101279
0.00101201
0.00101119
0.00101042
0.00101013
0.00100931
0.00101057
0.00101068
0.00101059
0.00100918
0.00100933
0.00101045
0.00101024
0.00101171
0.00101123
0.00101168
0.00101075
0.00100951
0.00100872
0.0010105
0.00101
0.00102498
0.00101828
0.00100834
0.0010297
0.00102874
0.00106264
0.00107165
0.00115136
0.00114303
0.00106707
0.00107239
0.00106823
0.00105928
0.00105355
0.00104985
0.00103311
0.00103387
0.00103001
0.00102539
0.00102159
0.00101811
0.0010152
0.00101282
0.00101087
0.00100929
0.00100802
0.00100702
0.00100624
0.00100563
0.00100515
0.00100481
0.00100464
0.00100462
0.00100471
0.00100484
0.00100499
0.00100513
0.00100527
0.00100542
0.00100559
0.0010058
0.00100603
0.00100627
0.00100648
0.00100665
0.00100678
0.00100686
0.00100689
0.00100689
0.00100688
0.0010069
0.00100695
0.00100704
0.00100714
0.00100725
0.00100734
0.00100739
0.00100741
0.0010074
0.00100741
0.00100745
0.0010075
0.00100755
0.00100756
0.00100752
0.00100747
0.00100746
0.00100753
0.00100763
0.00100769
0.00100769
0.00100761
0.0010075
0.00100738
0.00100729
0.00100723
0.00100727
0.00100742
0.0010076
0.00100758
0.00100734
0.00100719
0.00100736
0.00100773
0.0010077
0.0010072
0.00100697
0.00100714
0.0010072
0.00100683
0.00100681
0.00100717
0.00100745
0.00100745
0.00101291
0.00101717
0.00103908
0.0010179
0.00767393
0.00618388
0.00524346
0.00532573
0.00537818
0.00537113
0.00532683
0.00525652
0.00517429
0.00508872
0.00500864
0.00494115
0.00488655
0.00484483
0.00481443
0.00478813
0.00475883
0.00472738
0.00469888
0.00467426
0.00465465
0.00464075
0.00463293
0.00463096
0.00463112
0.00462732
0.00461656
0.00459628
0.00456674
0.00454343
0.00454638
0.00458082
0.00462615
0.00464019
0.00460023
0.00452312
0.0044413
0.00438095
0.0043368
0.00428012
0.00421486
0.0041688
0.00415298
0.00413879
0.00408697
0.0039909
0.00389301
0.00384363
0.00385159
0.00388668
0.00391076
0.00390125
0.00384428
0.00375685
0.00368465
0.00366387
0.00367633
0.00368206
0.00367789
0.00370225
0.00377215
0.00386861
0.00395009
0.00399695
0.00403444
0.00410561
0.00420496
0.0042868
0.00434522
0.00444094
0.00463746
0.00500417
0.00561309
0.00655054
0.00796687
0.0100587
0.0130676
0.0172359
0.022773
0.029467
0.0367884
0.0439784
0.0508456
0.0571482
0.0626722
0.067155
0.0702534
0.0731177
0.0775102
0.0827728
0.0864749
0.0834187
0.0700687
0.0547051
0.0315005
0.0185275
0.0103706
0.00605644
0.00405442
0.00293264
0.00243028
0.00224989
0.00213112
0.00200463
0.00200085
0.0020482
0.00206563
0.00215647
0.00246416
0.00293138
0.00338541
0.00407729
0.00433217
0.00367981
0.00301268
0.00256398
0.00224227
0.00194557
0.00171129
0.00150175
0.00140206
0.00136635
0.00137515
0.00141649
0.00143567
0.00145152
0.00151113
0.00158227
0.00175467
0.00182401
0.00167104
0.0015848
0.00149168
0.00143938
0.00137878
0.00136318
0.00134429
0.00130772
0.00128837
0.00126935
0.00125637
0.00125353
0.00125161
0.00124742
0.00124467
0.00124178
0.00123773
0.00123406
0.00123095
0.00122804
0.00122608
0.00122328
0.00122067
0.00121813
0.0012147
0.00121101
0.00120824
0.00120689
0.00120518
0.00120178
0.00119797
0.00119514
0.00119361
0.00119146
0.0011874
0.001184
0.00118249
0.00118088
0.00117772
0.00117396
0.00117151
0.00116998
0.0011675
0.00116454
0.00116263
0.00116095
0.00115822
0.0011554
0.00115389
0.00115293
0.0011507
0.00114817
0.00114636
0.00114435
0.00114178
0.00113967
0.00113892
0.00113802
0.00113565
0.00113295
0.00113093
0.00112923
0.00112738
0.00112576
0.00112462
0.00112297
0.00112056
0.00111829
0.00111689
0.0011159
0.00111447
0.00111256
0.00111054
0.00110938
0.00110889
0.00110781
0.00110554
0.00110259
0.00110111
0.00110126
0.00110087
0.00109907
0.00109712
0.00109586
0.00109517
0.00109475
0.00109401
0.00109273
0.00109037
0.00108868
0.00108876
0.00108879
0.00108821
0.00108652
0.00108465
0.00108327
0.00108223
0.00108205
0.00108227
0.00108199
0.00108073
0.00107903
0.00107821
0.00107817
0.00107757
0.00107665
0.00107629
0.00107583
0.00107504
0.00107456
0.00107472
0.00107496
0.00107414
0.00107338
0.00107386
0.00107329
0.00107175
0.00107151
0.00107237
0.0010727
0.00107201
0.00107178
0.00107159
0.00107085
0.00107026
0.00107043
0.00107055
0.00106976
0.00106901
0.00106923
0.0010693
0.00106915
0.00106883
0.0010678
0.0010671
0.00106694
0.00106678
0.00106662
0.00106654
0.00106605
0.0010653
0.00106455
0.00106407
0.00106351
0.00106304
0.00106289
0.0010626
0.00106218
0.00106138
0.00106074
0.00105994
0.00105916
0.00105917
0.001059
0.00105825
0.00105721
0.00105646
0.001056
0.0010557
0.00105515
0.00105428
0.00105366
0.00105302
0.00105232
0.00105173
0.0010511
0.00105032
0.00104966
0.00104904
0.00104838
0.00104769
0.00104694
0.00104615
0.00104537
0.00104474
0.00104397
0.00104321
0.00104237
0.00104147
0.00104077
0.00104002
0.00103918
0.00103834
0.00103754
0.00103674
0.00103592
0.00103508
0.00103422
0.00103345
0.00103272
0.00103188
0.00103101
0.00103021
0.00102944
0.00102875
0.00102802
0.00102724
0.0010265
0.00102585
0.00102519
0.00102454
0.00102389
0.00102327
0.00102271
0.00102215
0.00102156
0.00102106
0.0010206
0.00102017
0.00101976
0.00101936
0.001019
0.00101866
0.00101837
0.00101807
0.00101776
0.00101751
0.00101731
0.0010171
0.00101693
0.00101676
0.00101658
0.00101645
0.00101636
0.00101628
0.00101619
0.00101612
0.00101603
0.00101593
0.0010159
0.00101589
0.00101585
0.00101579
0.00101576
0.00101576
0.00101574
0.00101573
0.00101568
0.00101564
0.00101562
0.00101558
0.00101554
0.0010155
0.00101547
0.00101543
0.00101539
0.00101534
0.00101527
0.0010152
0.00101515
0.00101509
0.00101502
0.00101494
0.00101487
0.00101479
0.00101469
0.00101458
0.00101446
0.00101436
0.00101426
0.00101418
0.00101407
0.001014
0.0010139
0.00101382
0.0010137
0.00101365
0.00101351
0.00101346
0.00101328
0.00101313
0.001013
0.00101317
0.00101294
0.00101327
0.00101267
0.00101162
0.00101143
0.00101234
0.00101202
0.00101205
0.00101561
0.001014
0.00101147
0.00101089
0.00101028
0.0010111
0.00102027
0.0010183
0.00100999
0.00101057
0.00101237
0.00101304
0.00101511
0.00101428
0.00101048
0.0010107
0.00101047
0.00101226
0.0010119
0.00101068
0.00100978
0.00100893
0.00100856
0.00101076
0.0010101
0.00100952
0.0010082
0.00100906
0.00100923
0.00100942
0.00101059
0.00101025
0.00101045
0.00100935
0.00100842
0.00100741
0.00100852
0.00100894
0.00102427
0.00101928
0.00102905
0.0010268
0.00105364
0.00106689
0.00109494
0.00116357
0.00115324
0.0010693
0.00107141
0.00106513
0.00105386
0.0010415
0.00103076
0.00101435
0.00101164
0.00101595
0.00101754
0.00101827
0.00101762
0.00101603
0.00101421
0.00101248
0.00101094
0.00100958
0.00100834
0.00100725
0.00100636
0.00100562
0.00100499
0.00100448
0.00100412
0.00100391
0.00100382
0.00100379
0.00100379
0.00100377
0.00100374
0.00100372
0.00100374
0.00100382
0.00100397
0.00100416
0.00100436
0.00100457
0.00100475
0.00100489
0.00100497
0.00100501
0.00100502
0.00100501
0.00100501
0.00100504
0.0010051
0.00100519
0.00100528
0.00100537
0.00100543
0.00100546
0.00100547
0.00100548
0.0010055
0.00100556
0.00100562
0.00100565
0.00100563
0.00100558
0.00100554
0.00100558
0.00100568
0.00100577
0.00100577
0.00100568
0.00100554
0.00100542
0.00100534
0.00100532
0.00100533
0.00100539
0.00100547
0.00100547
0.00100533
0.00100524
0.00100542
0.00100577
0.00100576
0.00100521
0.00100486
0.00100514
0.00100544
0.00100494
0.00100455
0.001005
0.00100532
0.00100503
0.00100517
0.00101099
0.00101543
0.00103791
0.00101626
0.00912398
0.00678012
0.00538544
0.00543402
0.00545413
0.00540851
0.00532242
0.00520891
0.00508857
0.00496944
0.00485853
0.00476894
0.00469875
0.00464642
0.00460668
0.00457181
0.00453546
0.00449055
0.00444257
0.004394
0.0043501
0.00431886
0.00430629
0.00431496
0.0043315
0.00434039
0.00433398
0.00430619
0.00425507
0.00419594
0.0041558
0.00415601
0.00419865
0.00425801
0.00429091
0.00427545
0.0042169
0.00414178
0.00407138
0.00401164
0.0039681
0.00394688
0.00393903
0.00391265
0.00384024
0.00372882
0.00362511
0.00358326
0.00360068
0.00364898
0.00369918
0.00372429
0.00370101
0.00362857
0.00353865
0.00347698
0.0034518
0.00344712
0.00346463
0.00351366
0.00358454
0.003647
0.00367274
0.00367961
0.00370054
0.00374038
0.00376417
0.00372989
0.00366257
0.00362098
0.00361702
0.00364152
0.00369495
0.00380891
0.00403513
0.0043995
0.00491086
0.00563823
0.00670093
0.00818038
0.0100394
0.0122063
0.0145169
0.0167063
0.0182275
0.0190574
0.0202318
0.0225578
0.0263327
0.0314334
0.0383159
0.046457
0.0538347
0.0594829
0.0599992
0.0537965
0.0454498
0.0301156
0.0186229
0.0106672
0.00639462
0.00423451
0.00289349
0.002215