/*--------------------------------*- C++ -*----------------------------------*\
| =========                 |                                                 |
| \\      /  F ield         | OpenFOAM: The Open Source CFD Toolbox           |
|  \\    /   O peration     | Version:  v2006                                 |
|   \\  /    A nd           | Website:  www.openfoam.com                      |
|    \\/     M anipulation  |                                                 |
\*---------------------------------------------------------------------------*/
FoamFile
{
    version     2.0;
    format      ascii;
    class       volScalarField;
    location    "3.7";
    object      p;
}
// * * * * * * * * * * * * * * * * * * * * * * * * * * * * * * * * * * * * * //

dimensions      [1 -1 -2 0 0 0 0];


internalField   nonuniform List<scalar> 
33000
(
7490.38
7478.11
7465.98
7453.92
7442.03
7430.43
7419.11
7408.07
7397.31
7386.85
7376.7
7366.89
7357.41
7348.27
7339.48
7331.02
7322.9
7315.11
7307.67
7300.57
7293.81
7287.39
7281.28
7275.51
7270.09
7264.98
7260.19
7255.69
7251.5
7247.64
7244.13
7240.9
7237.95
7235.27
7232.93
7230.92
7229.17
7227.7
7226.52
7225.54
7224.9
7224.55
7224.39
7224.51
7224.88
7225.53
7226.44
7227.58
7228.93
7230.49
7232.28
7234.3
7236.55
7239.02
7241.71
7244.57
7247.6
7250.82
7254.25
7257.88
7261.64
7265.52
7269.55
7273.79
7278.2
7282.75
7287.41
7292.16
7297.06
7302.14
7307.33
7312.61
7317.95
7323.32
7328.84
7334.52
7339.92
7341.74
7337.83
7344.93
7355.77
7358.53
7366.02
7371.97
7377.81
7385.73
7393.55
7401.46
7408.84
7416.46
7423.96
7431.36
7438.98
7446.54
7453.72
7461.01
7467
7473.86
7476.51
7484.42
7499.09
7509.26
7520.58
7532.68
7544.3
7556.95
7570.45
7583.67
7597.08
7610.33
7623.85
7637.26
7650.72
7664.23
7677.08
7690.36
7700.54
7714.68
7733.45
7748.96
7765.35
7782.08
7798.47
7815.48
7832.95
7850.14
7867.42
7884.67
7901.77
7918.8
7935.71
7952.43
7968.92
7985.16
8001.13
8016.81
8032.16
8047.18
8061.85
8076.17
8090.11
8103.68
8116.86
8129.67
8142.09
8154.12
8165.76
8177.02
8187.9
8198.42
8208.55
8218.33
8227.76
8236.86
8245.64
8254.11
8262.27
8270.15
8277.76
8285.12
8292.24
8299.13
8305.82
8312.31
8318.6
8324.68
8330.52
8336.11
8341.43
8346.47
8351.2
8355.62
8359.73
8363.51
8366.94
8370.02
8372.75
8375.12
8377.13
8378.76
8380.01
8380.89
8381.4
8381.53
8381.29
8380.67
8379.68
8378.34
8376.63
8374.56
8372.14
8369.38
8366.28
8362.86
8359.12
8355.06
8350.71
8346.07
8341.14
8335.95
8330.51
8324.81
8318.87
8312.71
8306.34
8299.77
8293.02
8286.08
8278.99
8271.74
8264.36
8256.85
8249.22
8241.49
8233.68
8225.79
8217.83
8209.81
8201.74
8193.63
8185.51
8177.37
8169.23
8161.09
8152.96
8144.85
8136.78
8128.74
8120.74
8112.8
8104.92
8097.1
8089.35
8081.68
8074.09
8066.58
8059.16
8051.84
8044.62
8037.49
8030.47
8023.56
8016.75
8010.06
8003.48
7997.01
7990.65
7984.42
7978.3
7972.29
7966.4
7960.63
7954.98
7949.44
7944.02
7938.71
7933.52
7928.44
7923.48
7918.63
7913.88
7909.25
7904.73
7900.3
7895.99
7891.77
7887.66
7883.65
7879.73
7875.91
7872.18
7868.54
7865
7861.54
7858.17
7854.88
7851.67
7848.55
7845.5
7842.53
7839.64
7836.82
7834.07
7831.39
7828.78
7826.24
7823.76
7821.34
7818.99
7816.7
7814.46
7812.29
7810.17
7808.1
7806.08
7804.12
7802.2
7800.34
7798.52
7796.74
7795.01
7793.32
7791.68
7790.07
7788.51
7786.98
7785.48
7784.03
7782.6
7781.21
7779.85
7778.53
7777.23
7775.96
7774.72
7773.5
7772.31
7771.15
7770.01
7768.89
7767.8
7766.73
7765.68
7764.65
7763.64
7762.65
7761.67
7760.72
7759.78
7758.86
7757.96
7757.07
7756.2
7755.35
7754.51
7753.68
7752.87
7752.07
7751.28
7750.51
7749.75
7749.01
7748.28
7747.56
7746.85
7746.16
7745.48
7744.81
7744.15
7743.51
7742.88
7742.26
7741.65
7741.06
7740.48
7739.91
7739.35
7738.8
7738.27
7737.74
7737.23
7736.73
7736.24
7735.76
7735.3
7734.84
7734.39
7733.96
7733.53
7733.12
7732.71
7732.32
7731.93
7731.56
7731.19
7730.84
7730.49
7730.15
7729.82
7729.51
7729.19
7728.89
7728.6
7728.32
7728.04
7727.77
7727.51
7727.26
7727.02
7726.78
7726.55
7726.33
7726.12
7725.91
7725.71
7725.52
7725.34
7725.16
7724.99
7724.82
7724.67
7724.51
7724.37
7724.23
7724.1
7723.97
7723.85
7723.73
7723.62
7723.52
7723.42
7723.32
7723.23
7723.15
7723.07
7723
7722.93
7722.86
7722.8
7722.74
7722.69
7722.64
7722.6
7722.56
7722.52
7722.48
7722.45
7722.43
7722.4
7722.39
7722.37
7722.33
7722.31
7722.29
7722.28
7722.27
7722.27
7722.27
7722.27
7722.28
7722.29
7722.31
7722.32
7722.34
7722.36
7722.39
7722.41
7722.45
7722.48
7722.49
7722.53
7722.56
7722.6
7722.63
7722.68
7722.71
7722.77
7722.81
7722.86
7722.91
7722.97
7723.02
7723.08
7723.14
7723.2
7723.25
7723.32
7723.36
7723.46
7723.51
7723.55
7723.59
7723.64
7723.69
7723.75
7723.8
7723.86
7723.92
7723.99
7724.05
7724.11
7724.18
7724.25
7724.32
7724.38
7724.45
7724.53
7724.6
7724.67
7724.74
7724.82
7724.89
7724.97
7725.05
7725.13
7725.2
7725.28
7725.36
7725.44
7725.52
7725.61
7725.69
7725.77
7725.85
7725.94
7726.02
7726.11
7726.19
7726.28
7726.36
7726.45
7726.54
7726.62
7726.71
7726.8
7726.89
7726.98
7727.07
7727.15
7727.24
7727.33
7727.42
7727.51
7727.6
7727.69
7727.79
7727.88
7727.97
7728.06
7728.15
7728.24
7728.34
7728.43
7728.52
7728.61
7728.71
7728.8
7728.89
7728.99
7729.08
7729.17
7729.27
7729.36
7729.45
7729.55
7729.64
7729.74
7729.84
7729.91
7730.06
7293.74
7281.42
7269.23
7257.15
7245.23
7233.58
7222.22
7211.13
7200.34
7189.87
7179.72
7169.9
7160.42
7151.28
7142.48
7134.02
7125.91
7118.13
7110.69
7103.6
7096.85
7090.43
7084.34
7078.58
7073.14
7068.04
7063.26
7058.78
7054.61
7050.77
7047.25
7044.05
7041.08
7038.44
7036.15
7034.1
7032.39
7030.92
7029.71
7028.82
7028.12
7027.75
7027.66
7027.77
7028.14
7028.81
7029.7
7030.83
7032.19
7033.77
7035.58
7037.61
7039.86
7042.32
7045.01
7047.9
7050.95
7054.18
7057.62
7061.24
7065.03
7068.95
7073.01
7077.26
7081.68
7086.21
7090.85
7095.61
7100.53
7105.56
7110.7
7115.93
7121.17
7126.46
7131.78
7136.94
7141.5
7145.46
7150.46
7155.76
7157.41
7153.82
7163.54
7177.72
7183.41
7190.72
7197.8
7204.7
7211.05
7219.27
7227.64
7235.46
7243.11
7250.94
7258.35
7266.18
7273.52
7281.11
7287.99
7295.03
7303.61
7307.05
7318.02
7335.96
7348.72
7361.93
7374.59
7387.2
7399.69
7412.88
7427.03
7440.75
7454.59
7468.36
7481.93
7495.7
7509.17
7522.92
7537.71
7548.98
7565.07
7585.55
7602.49
7619.67
7636.71
7653.5
7670.72
7688.27
7705.46
7722.55
7739.48
7756.2
7772.72
7789.02
7805.02
7820.72
7836.09
7851.12
7865.8
7880.13
7894.09
7907.67
7920.88
7933.7
7946.13
7958.18
7969.83
7981.11
7992.01
8002.53
8012.68
8022.47
8031.92
8041.04
8049.83
8058.3
8066.47
8074.37
8081.99
8089.36
8096.5
8103.4
8110.1
8116.6
8122.91
8129
8134.85
8140.45
8145.78
8150.83
8155.57
8160.01
8164.12
8167.91
8171.34
8174.43
8177.16
8179.53
8181.53
8183.17
8184.42
8185.31
8185.81
8185.94
8185.69
8185.07
8184.09
8182.74
8181.02
8178.95
8176.52
8173.76
8170.65
8167.21
8163.46
8159.4
8155.04
8150.38
8145.44
8140.23
8134.77
8129.05
8123.1
8116.92
8110.53
8103.95
8097.17
8090.22
8083.1
8075.84
8068.44
8060.91
8053.27
8045.52
8037.69
8029.78
8021.8
8013.76
8005.68
7997.56
7989.42
7981.27
7973.11
7964.95
7956.81
7948.69
7940.6
7932.55
7924.54
7916.59
7908.69
7900.86
7893.1
7885.42
7877.82
7870.3
7862.88
7855.55
7848.32
7841.19
7834.16
7827.24
7820.43
7813.74
7807.15
7800.68
7794.32
7788.08
7781.96
7775.95
7770.06
7764.29
7758.64
7753.1
7747.68
7742.37
7737.18
7732.1
7727.14
7722.29
7717.55
7712.92
7708.39
7703.97
7699.66
7695.45
7691.34
7687.33
7683.41
7679.59
7675.86
7672.23
7668.68
7665.23
7661.86
7658.57
7655.37
7652.24
7649.2
7646.23
7643.34
7640.52
7637.78
7635.1
7632.49
7629.95
7627.47
7625.06
7622.71
7620.42
7618.19
7616.01
7613.89
7611.83
7609.81
7607.85
7605.94
7604.07
7602.25
7600.48
7598.75
7597.06
7595.42
7593.82
7592.25
7590.72
7589.23
7587.77
7586.35
7584.96
7583.6
7582.28
7580.98
7579.71
7578.47
7577.26
7576.07
7574.9
7573.77
7572.65
7571.56
7570.49
7569.44
7568.41
7567.4
7566.41
7565.44
7564.48
7563.55
7562.63
7561.72
7560.84
7559.97
7559.11
7558.27
7557.45
7556.63
7555.84
7555.05
7554.28
7553.52
7552.78
7552.05
7551.33
7550.62
7549.93
7549.25
7548.58
7547.92
7547.28
7546.65
7546.03
7545.42
7544.83
7544.25
7543.68
7543.12
7542.58
7542.04
7541.52
7541.01
7540.51
7540.02
7539.54
7539.07
7538.61
7538.17
7537.73
7537.31
7536.89
7536.49
7536.09
7535.71
7535.34
7534.97
7534.61
7534.27
7533.93
7533.6
7533.28
7532.97
7532.67
7532.38
7532.1
7531.82
7531.55
7531.29
7531.04
7530.8
7530.56
7530.34
7530.12
7529.9
7529.7
7529.5
7529.31
7529.12
7528.94
7528.77
7528.61
7528.45
7528.3
7528.15
7528.02
7527.88
7527.75
7527.63
7527.52
7527.41
7527.3
7527.2
7527.11
7527.02
7526.94
7526.86
7526.78
7526.71
7526.65
7526.59
7526.53
7526.48
7526.43
7526.39
7526.34
7526.31
7526.27
7526.26
7526.24
7526.18
7526.16
7526.13
7526.11
7526.09
7526.08
7526.07
7526.06
7526.06
7526.06
7526.07
7526.07
7526.08
7526.1
7526.12
7526.13
7526.17
7526.19
7526.21
7526.23
7526.26
7526.28
7526.32
7526.35
7526.39
7526.43
7526.47
7526.51
7526.56
7526.61
7526.65
7526.72
7526.77
7526.82
7526.87
7526.94
7526.98
7527.08
7527.14
7527.17
7527.22
7527.27
7527.32
7527.38
7527.43
7527.48
7527.54
7527.6
7527.66
7527.72
7527.78
7527.84
7527.91
7527.98
7528.04
7528.11
7528.18
7528.25
7528.32
7528.4
7528.47
7528.54
7528.62
7528.69
7528.77
7528.85
7528.92
7529
7529.08
7529.16
7529.24
7529.32
7529.4
7529.49
7529.57
7529.65
7529.74
7529.82
7529.91
7529.99
7530.08
7530.16
7530.25
7530.34
7530.42
7530.51
7530.6
7530.69
7530.78
7530.86
7530.95
7531.04
7531.13
7531.22
7531.31
7531.4
7531.49
7531.59
7531.68
7531.77
7531.86
7531.95
7532.04
7532.14
7532.23
7532.32
7532.41
7532.51
7532.6
7532.69
7532.79
7532.88
7532.97
7533.07
7533.16
7533.25
7533.35
7533.44
7533.54
7533.63
7533.71
7533.86
7096.51
7084.29
7071.97
7059.76
7047.73
7035.99
7024.54
7013.39
7002.54
6992.02
6981.83
6971.99
6962.49
6953.33
6944.53
6936.07
6927.96
6920.2
6912.78
6905.71
6898.98
6892.58
6886.51
6880.77
6875.37
6870.28
6865.51
6861.07
6856.93
6853.12
6849.61
6846.41
6843.48
6840.88
6838.6
6836.55
6834.84
6833.42
6832.2
6831.32
6830.69
6830.31
6830.24
6830.37
6830.8
6831.45
6832.34
6833.49
6834.87
6836.48
6838.32
6840.38
6842.65
6845.13
6847.81
6850.72
6853.82
6857.1
6860.55
6864.19
6868.01
6871.98
6876.09
6880.37
6884.78
6889.3
6893.94
6898.75
6903.68
6908.68
6913.77
6918.94
6924.16
6929.4
6934.61
6939.63
6944.38
6949.05
6954.06
6959.32
6964.39
6970.64
6976.83
6978.84
6975.14
6985.6
7001.7
7010.9
7018.77
7024.34
7031.95
7038.03
7046.65
7055.1
7063.15
7070.99
7078.88
7086.78
7095
7103.59
7113.23
7122.32
7131.16
7140.83
7145.63
7157.73
7176.67
7190.77
7205.31
7217.92
7231.23
7244.06
7257.67
7271.96
7285.91
7300.07
7314.31
7328.95
7344.39
7359.52
7374.47
7390
7402.22
7418.95
7440.01
7457.4
7474.72
7491.95
7508.79
7525.89
7543.16
7559.98
7576.58
7592.93
7608.97
7624.7
7640.09
7655.17
7669.89
7684.25
7698.24
7711.86
7725.1
7737.96
7750.43
7762.5
7774.19
7785.5
7796.43
7806.98
7817.16
7826.99
7836.47
7845.61
7854.42
7862.92
7871.13
7879.05
7886.7
7894.11
7901.27
7908.21
7914.93
7921.45
7927.77
7933.87
7939.75
7945.36
7950.71
7955.77
7960.54
7964.99
7969.11
7972.91
7976.35
7979.45
7982.19
7984.56
7986.56
7988.2
7989.46
7990.34
7990.84
7990.96
7990.71
7990.09
7989.09
7987.73
7986
7983.92
7981.48
7978.69
7975.56
7972.11
7968.34
7964.26
7959.87
7955.18
7950.21
7944.97
7939.47
7933.73
7927.74
7921.53
7915.11
7908.49
7901.68
7894.69
7887.54
7880.24
7872.8
7865.23
7857.55
7849.77
7841.9
7833.95
7825.94
7817.86
7809.75
7801.6
7793.43
7785.24
7777.05
7768.86
7760.69
7752.55
7744.43
7736.35
7728.32
7720.34
7712.42
7704.57
7696.79
7689.09
7681.47
7673.94
7666.5
7659.15
7651.91
7644.77
7637.73
7630.81
7623.99
7617.28
7610.69
7604.21
7597.84
7591.6
7585.47
7579.47
7573.58
7567.8
7562.15
7556.61
7551.19
7545.89
7540.7
7535.62
7530.66
7525.81
7521.07
7516.44
7511.92
7507.51
7503.19
7498.99
7494.88
7490.87
7486.96
7483.14
7479.42
7475.79
7472.25
7468.8
7465.43
7462.15
7458.95
7455.83
7452.79
7449.83
7446.94
7444.13
7441.39
7438.71
7436.11
7433.57
7431.1
7428.69
7426.35
7424.06
7421.83
7419.66
7417.54
7415.48
7413.47
7411.51
7409.6
7407.74
7405.92
7404.15
7402.43
7400.74
7399.1
7397.5
7395.93
7394.41
7392.92
7391.46
7390.04
7388.66
7387.3
7385.98
7384.68
7383.41
7382.18
7380.96
7379.78
7378.62
7377.48
7376.36
7375.27
7374.2
7373.15
7372.13
7371.12
7370.13
7369.16
7368.21
7367.27
7366.35
7365.45
7364.57
7363.7
7362.84
7362
7361.18
7360.37
7359.57
7358.79
7358.01
7357.26
7356.51
7355.78
7355.06
7354.36
7353.66
7352.98
7352.32
7351.66
7351.02
7350.39
7349.77
7349.17
7348.57
7347.99
7347.42
7346.87
7346.32
7345.79
7345.26
7344.75
7344.25
7343.76
7343.29
7342.82
7342.36
7341.92
7341.48
7341.06
7340.65
7340.24
7339.85
7339.46
7339.09
7338.72
7338.37
7338.02
7337.69
7337.36
7337.04
7336.73
7336.43
7336.14
7335.86
7335.58
7335.31
7335.05
7334.8
7334.56
7334.33
7334.1
7333.88
7333.67
7333.46
7333.26
7333.07
7332.89
7332.71
7332.54
7332.38
7332.22
7332.07
7331.92
7331.78
7331.65
7331.53
7331.4
7331.29
7331.18
7331.08
7330.98
7330.88
7330.79
7330.71
7330.63
7330.56
7330.49
7330.43
7330.37
7330.31
7330.26
7330.21
7330.17
7330.15
7330.11
7330.05
7330.02
7329.98
7329.95
7329.93
7329.91
7329.88
7329.87
7329.86
7329.85
7329.84
7329.84
7329.84
7329.84
7329.86
7329.86
7329.9
7329.91
7329.92
7329.93
7329.96
7329.98
7330.01
7330.03
7330.06
7330.1
7330.13
7330.17
7330.2
7330.26
7330.29
7330.36
7330.4
7330.45
7330.49
7330.56
7330.6
7330.7
7330.76
7330.79
7330.84
7330.89
7330.94
7331
7331.05
7331.1
7331.16
7331.21
7331.27
7331.33
7331.39
7331.45
7331.51
7331.57
7331.64
7331.7
7331.77
7331.84
7331.91
7331.98
7332.05
7332.12
7332.19
7332.26
7332.34
7332.41
7332.49
7332.57
7332.64
7332.72
7332.8
7332.88
7332.96
7333.04
7333.12
7333.2
7333.28
7333.37
7333.45
7333.53
7333.62
7333.7
7333.79
7333.87
7333.96
7334.05
7334.13
7334.22
7334.31
7334.4
7334.48
7334.57
7334.66
7334.75
7334.84
7334.93
7335.02
7335.11
7335.2
7335.29
7335.38
7335.48
7335.57
7335.66
7335.75
7335.84
7335.93
7336.03
7336.12
7336.21
7336.3
7336.4
7336.49
7336.58
7336.68
7336.77
7336.86
7336.96
7337.05
7337.15
7337.24
7337.34
7337.43
7337.51
7337.66
6898.71
6886.67
6874.17
6861.78
6849.6
6837.73
6826.15
6814.89
6803.96
6793.36
6783.11
6773.24
6763.71
6754.55
6745.75
6737.3
6729.2
6721.45
6714.05
6706.99
6700.27
6693.89
6687.86
6682.16
6676.79
6671.72
6666.97
6662.54
6658.47
6654.69
6651.22
6648.01
6645.14
6642.57
6640.29
6638.31
6636.59
6635.16
6634
6633.14
6632.57
6632.21
6632.13
6632.32
6632.78
6633.47
6634.38
6635.53
6636.94
6638.61
6640.5
6642.6
6644.89
6647.39
6650.1
6653.03
6656.18
6659.51
6663
6666.66
6670.52
6674.53
6678.71
6683.02
6687.46
6692.02
6696.71
6701.56
6706.5
6711.51
6716.6
6721.79
6727.05
6732.34
6737.58
6742.73
6747.8
6752.94
6758.13
6763.3
6768.62
6774.49
6780.63
6786.5
6793.57
6801.4
6808.73
6811.68
6808.75
6821.16
6837.38
6844.54
6851.4
6859.58
6866.24
6875.52
6884.65
6893.41
6901.92
6910.87
6919.85
6929.41
6939.87
6951.15
6962.01
6973.32
6983.37
6994.11
7000.59
7013.06
7032.88
7047.46
7061.82
7076.03
7089.84
7104.18
7119.18
7134.03
7149.22
7164.43
7180.16
7196.57
7212.58
7228.31
7244.45
7257.34
7274.42
7295.43
7312.83
7329.94
7346.99
7363.56
7380.23
7396.94
7413.1
7428.95
7444.31
7459.44
7474.18
7488.58
7502.62
7516.29
7529.58
7542.48
7555
7567.14
7578.86
7590.21
7601.18
7611.78
7622.02
7631.89
7641.41
7650.6
7659.46
7668.01
7676.26
7684.23
7691.93
7699.38
7706.59
7713.57
7720.34
7726.89
7733.23
7739.36
7745.25
7750.89
7756.26
7761.34
7766.13
7770.6
7774.75
7778.56
7782.02
7785.13
7787.88
7790.26
7792.27
7793.9
7795.16
7796.03
7796.53
7796.64
7796.37
7795.74
7794.72
7793.33
7791.58
7789.46
7786.99
7784.18
7781.03
7777.54
7773.73
7769.61
7765.18
7760.46
7755.45
7750.17
7744.62
7738.83
7732.8
7726.54
7720.07
7713.39
7706.53
7699.49
7692.29
7684.94
7677.44
7669.81
7662.08
7654.24
7646.32
7638.31
7630.24
7622.12
7613.95
7605.76
7597.53
7589.3
7581.06
7572.83
7564.62
7556.43
7548.27
7540.15
7532.08
7524.07
7516.12
7508.24
7500.43
7492.7
7485.05
7477.49
7470.03
7462.66
7455.4
7448.24
7441.18
7434.24
7427.41
7420.69
7414.08
7407.6
7401.23
7394.98
7388.85
7382.84
7376.94
7371.17
7365.51
7359.98
7354.56
7349.26
7344.07
7339
7334.04
7329.19
7324.46
7319.83
7315.31
7310.9
7306.6
7302.39
7298.29
7294.29
7290.38
7286.57
7282.86
7279.23
7275.7
7272.26
7268.9
7265.62
7262.43
7259.32
7256.29
7253.33
7250.45
7247.64
7244.91
7242.24
7239.64
7237.11
7234.65
7232.24
7229.9
7227.62
7225.39
7223.23
7221.12
7219.06
7217.06
7215.1
7213.19
7211.34
7209.53
7207.76
7206.04
7204.36
7202.72
7201.12
7199.56
7198.04
7196.55
7195.1
7193.69
7192.3
7190.95
7189.63
7188.33
7187.07
7185.83
7184.62
7183.44
7182.28
7181.15
7180.03
7178.95
7177.88
7176.83
7175.8
7174.8
7173.81
7172.84
7171.89
7170.96
7170.04
7169.14
7168.26
7167.39
7166.54
7165.7
7164.87
7164.06
7163.27
7162.49
7161.72
7160.96
7160.22
7159.49
7158.77
7158.06
7157.37
7156.69
7156.03
7155.37
7154.73
7154.1
7153.49
7152.88
7152.29
7151.71
7151.14
7150.58
7150.04
7149.51
7148.98
7148.47
7147.98
7147.49
7147.01
7146.54
7146.09
7145.65
7145.21
7144.79
7144.37
7143.97
7143.58
7143.19
7142.82
7142.46
7142.1
7141.76
7141.42
7141.1
7140.78
7140.47
7140.17
7139.88
7139.6
7139.32
7139.06
7138.8
7138.55
7138.31
7138.07
7137.84
7137.63
7137.41
7137.21
7137.01
7136.82
7136.64
7136.46
7136.29
7136.13
7135.97
7135.82
7135.68
7135.54
7135.41
7135.28
7135.16
7135.05
7134.94
7134.83
7134.74
7134.64
7134.56
7134.47
7134.4
7134.32
7134.25
7134.19
7134.13
7134.07
7134.05
7134
7133.93
7133.89
7133.84
7133.8
7133.77
7133.74
7133.71
7133.69
7133.66
7133.65
7133.63
7133.62
7133.61
7133.6
7133.61
7133.61
7133.64
7133.64
7133.64
7133.65
7133.67
7133.68
7133.71
7133.72
7133.75
7133.78
7133.81
7133.84
7133.88
7133.91
7133.96
7134
7134.04
7134.09
7134.12
7134.18
7134.21
7134.32
7134.37
7134.41
7134.45
7134.5
7134.56
7134.62
7134.67
7134.72
7134.78
7134.83
7134.89
7134.94
7135
7135.06
7135.12
7135.18
7135.24
7135.3
7135.36
7135.43
7135.5
7135.56
7135.63
7135.7
7135.77
7135.84
7135.91
7135.98
7136.06
7136.13
7136.21
7136.28
7136.36
7136.44
7136.52
7136.6
7136.67
7136.75
7136.84
7136.92
7137
7137.08
7137.16
7137.25
7137.33
7137.42
7137.5
7137.59
7137.67
7137.76
7137.84
7137.93
7138.02
7138.11
7138.19
7138.28
7138.37
7138.46
7138.55
7138.64
7138.73
7138.82
7138.91
7139
7139.09
7139.18
7139.27
7139.36
7139.46
7139.55
7139.64
7139.73
7139.83
7139.92
7140.01
7140.1
7140.2
7140.29
7140.38
7140.48
7140.57
7140.66
7140.76
7140.85
7140.95
7141.04
7141.13
7141.23
7141.31
7141.45
6700.41
6688.58
6675.82
6663.17
6650.74
6638.65
6626.91
6615.52
6604.48
6593.79
6583.48
6573.56
6564.01
6554.84
6546.05
6537.61
6529.52
6521.79
6514.42
6507.39
6500.7
6494.35
6488.35
6482.7
6477.35
6472.32
6467.61
6463.24
6459.19
6455.44
6451.98
6448.83
6446
6443.47
6441.23
6439.3
6437.62
6436.21
6435.09
6434.26
6433.72
6433.42
6433.37
6433.59
6434.09
6434.83
6435.81
6436.97
6438.42
6440.13
6442.07
6444.23
6446.57
6449.11
6451.86
6454.82
6458
6461.39
6464.95
6468.66
6472.56
6476.64
6480.88
6485.23
6489.72
6494.34
6499.11
6504
6508.97
6514.04
6519.18
6524.42
6529.74
6535.11
6540.49
6545.85
6551.25
6556.71
6562.23
6567.83
6573.55
6579.38
6585.26
6591.33
6598.18
6605.65
6612.71
6619.33
6627.1
6634.69
6638.1
6636.19
6649.48
6666.34
6673.95
6681.2
6690.05
6697.34
6707.51
6717.64
6727.45
6737.2
6747.39
6757.52
6768.07
6779.76
6791.68
6803.81
6815.66
6826.79
6838.53
6845.58
6858.86
6878.85
6893.99
6908.96
6923.98
6938.74
6954.08
6969.97
6985.7
7001.67
7017.61
7033.97
7050.89
7067.33
7083.55
7099.92
7113.27
7130.32
7150.93
7168.05
7184.67
7201.18
7217.28
7232.92
7248.38
7263.78
7278.63
7293.09
7307.22
7320.95
7334.32
7347.3
7359.9
7372.1
7383.91
7395.31
7406.36
7417.02
7427.32
7437.26
7446.85
7456.1
7465.03
7473.65
7481.97
7490
7497.77
7505.28
7512.54
7519.58
7526.4
7532.99
7539.36
7545.51
7551.42
7557.08
7562.47
7567.58
7572.39
7576.89
7581.05
7584.88
7588.36
7591.49
7594.25
7596.64
7598.65
7600.29
7601.54
7602.4
7602.88
7602.98
7602.7
7602.04
7601
7599.58
7597.78
7595.63
7593.13
7590.27
7587.08
7583.54
7579.68
7575.5
7571.02
7566.24
7561.17
7555.83
7550.22
7544.37
7538.27
7531.95
7525.4
7518.66
7511.72
7504.61
7497.34
7489.91
7482.34
7474.64
7466.84
7458.93
7450.94
7442.86
7434.72
7426.52
7418.29
7410.03
7401.74
7393.44
7385.14
7376.85
7368.58
7360.33
7352.12
7343.95
7335.83
7327.77
7319.78
7311.85
7304
7296.23
7288.55
7280.96
7273.47
7266.07
7258.78
7251.59
7244.51
7237.55
7230.7
7223.96
7217.35
7210.85
7204.47
7198.21
7192.07
7186.06
7180.16
7174.38
7168.73
7163.19
7157.78
7152.48
7147.29
7142.22
7137.27
7132.43
7127.7
7123.08
7118.56
7114.16
7109.86
7105.67
7101.57
7097.58
7093.68
7089.88
7086.17
7082.56
7079.04
7075.6
7072.25
7068.98
7065.8
7062.7
7059.67
7056.73
7053.86
7051.06
7048.33
7045.67
7043.08
7040.56
7038.1
7035.71
7033.37
7031.1
7028.88
7026.72
7024.62
7022.57
7020.57
7018.62
7016.72
7014.87
7013.07
7011.31
7009.59
7007.91
7006.28
7004.69
7003.13
7001.62
7000.13
6998.69
6997.27
6995.89
6994.54
6993.23
6991.94
6990.68
6989.44
6988.24
6987.06
6985.9
6984.77
6983.66
6982.57
6981.51
6980.47
6979.44
6978.44
6977.45
6976.49
6975.54
6974.61
6973.69
6972.8
6971.91
6971.05
6970.2
6969.36
6968.54
6967.73
6966.93
6966.15
6965.38
6964.63
6963.89
6963.16
6962.44
6961.74
6961.05
6960.37
6959.71
6959.05
6958.41
6957.79
6957.17
6956.57
6955.98
6955.4
6954.83
6954.27
6953.73
6953.2
6952.68
6952.17
6951.67
6951.18
6950.71
6950.24
6949.79
6949.35
6948.91
6948.49
6948.08
6947.68
6947.28
6946.9
6946.53
6946.17
6945.81
6945.47
6945.14
6944.81
6944.49
6944.19
6943.89
6943.6
6943.32
6943.04
6942.78
6942.52
6942.27
6942.03
6941.8
6941.57
6941.35
6941.14
6940.94
6940.74
6940.55
6940.37
6940.2
6940.03
6939.87
6939.71
6939.56
6939.42
6939.28
6939.15
6939.03
6938.9
6938.79
6938.68
6938.58
6938.48
6938.4
6938.31
6938.22
6938.14
6938.08
6938.01
6937.97
6937.91
6937.82
6937.77
6937.71
6937.67
6937.63
6937.59
6937.55
6937.52
6937.48
6937.46
6937.44
6937.42
6937.4
6937.39
6937.38
6937.39
6937.39
6937.37
6937.37
6937.37
6937.38
6937.39
6937.41
6937.42
6937.44
6937.46
6937.49
6937.51
6937.54
6937.57
6937.61
6937.65
6937.68
6937.72
6937.75
6937.81
6937.84
6937.94
6937.99
6938.03
6938.07
6938.12
6938.17
6938.23
6938.28
6938.33
6938.39
6938.44
6938.5
6938.55
6938.61
6938.67
6938.72
6938.78
6938.84
6938.9
6938.96
6939.02
6939.09
6939.15
6939.22
6939.28
6939.35
6939.42
6939.49
6939.56
6939.63
6939.7
6939.78
6939.85
6939.93
6940
6940.08
6940.15
6940.23
6940.31
6940.39
6940.47
6940.55
6940.63
6940.71
6940.79
6940.88
6940.96
6941.04
6941.13
6941.21
6941.3
6941.38
6941.47
6941.55
6941.64
6941.73
6941.81
6941.9
6941.99
6942.08
6942.17
6942.26
6942.35
6942.44
6942.53
6942.62
6942.71
6942.8
6942.89
6942.98
6943.07
6943.16
6943.25
6943.35
6943.44
6943.53
6943.62
6943.72
6943.81
6943.9
6944
6944.09
6944.18
6944.28
6944.37
6944.46
6944.56
6944.65
6944.74
6944.84
6944.93
6945.03
6945.11
6945.25
6501.65
6490.02
6476.89
6463.9
6451.15
6438.78
6426.81
6415.25
6404.07
6393.29
6382.91
6372.95
6363.37
6354.2
6345.43
6337.02
6328.96
6321.25
6313.92
6306.93
6300.27
6293.96
6288.02
6282.41
6277.11
6272.12
6267.47
6263.14
6259.11
6255.4
6252
6248.9
6246.11
6243.64
6241.45
6239.56
6237.93
6236.57
6235.5
6234.72
6234.22
6233.98
6233.99
6234.27
6234.8
6235.59
6236.62
6237.83
6239.34
6241.1
6243.1
6245.31
6247.72
6250.33
6253.13
6256.13
6259.35
6262.79
6266.42
6270.2
6274.16
6278.31
6282.59
6287
6291.55
6296.26
6301.12
6306.07
6311.1
6316.24
6321.49
6326.82
6332.24
6337.73
6343.26
6348.85
6354.51
6360.24
6366.04
6371.95
6378.02
6384.2
6390.49
6396.96
6403.72
6410.59
6417.41
6424.3
6431.59
6439.08
6446.15
6454.62
6462.91
6467.01
6465.82
6480.28
6497.77
6506.24
6514.02
6523.87
6532.27
6543.31
6554.69
6565.64
6576.48
6587.86
6598.92
6610.65
6622.14
6634.56
6647.52
6660.18
6672.31
6685.11
6693.26
6707.25
6727.57
6743.46
6759.21
6775.1
6790.7
6806.81
6823.3
6839.64
6856.13
6872.45
6889.16
6906.2
6922.8
6939.17
6955.51
6969.06
6985.87
7005.6
7022.32
7038.51
7053.29
7068.57
7083.22
7097.79
7112.13
7126
7139.41
7152.49
7165.17
7177.47
7189.38
7200.89
7212.01
7222.77
7233.15
7243.19
7252.86
7262.21
7271.22
7279.93
7288.34
7296.46
7304.3
7311.88
7319.22
7326.32
7333.18
7339.82
7346.23
7352.4
7358.34
7364.01
7369.42
7374.54
7379.37
7383.88
7388.06
7391.9
7395.4
7398.53
7401.3
7403.7
7405.72
7407.35
7408.6
7409.45
7409.92
7410.01
7409.7
7409.01
7407.94
7406.48
7404.65
7402.46
7399.91
7397
7393.74
7390.15
7386.22
7381.97
7377.41
7372.55
7367.41
7361.99
7356.3
7350.35
7344.16
7337.75
7331.12
7324.28
7317.26
7310.05
7302.68
7295.16
7287.5
7279.71
7271.82
7263.82
7255.73
7247.57
7239.34
7231.06
7222.74
7214.39
7206.02
7197.65
7189.27
7180.9
7172.56
7164.25
7155.97
7147.73
7139.56
7131.44
7123.38
7115.4
7107.5
7099.69
7091.96
7084.33
7076.8
7069.37
7062.05
7054.83
7047.73
7040.73
7033.86
7027.11
7020.47
7013.96
7007.57
7001.3
6995.15
6989.12
6983.23
6977.45
6971.79
6966.25
6960.84
6955.54
6950.36
6945.3
6940.35
6935.51
6930.79
6926.18
6921.67
6917.28
6912.99
6908.8
6904.72
6900.74
6896.85
6893.06
6889.36
6885.76
6882.25
6878.82
6875.49
6872.23
6869.06
6865.97
6862.96
6860.02
6857.16
6854.37
6851.66
6849.01
6846.43
6843.92
6841.47
6839.08
6836.76
6834.49
6832.29
6830.14
6828.04
6826
6824.01
6822.07
6820.18
6818.33
6816.54
6814.78
6813.07
6811.41
6809.78
6808.19
6806.64
6805.13
6803.65
6802.21
6800.81
6799.43
6798.09
6796.77
6795.49
6794.23
6793
6791.8
6790.63
6789.47
6788.35
6787.24
6786.16
6785.1
6784.06
6783.04
6782.04
6781.05
6780.09
6779.14
6778.22
6777.3
6776.41
6775.53
6774.67
6773.82
6772.98
6772.16
6771.35
6770.56
6769.78
6769.02
6768.26
6767.52
6766.8
6766.08
6765.38
6764.69
6764.02
6763.35
6762.7
6762.06
6761.44
6760.82
6760.22
6759.63
6759.06
6758.49
6757.94
6757.39
6756.86
6756.34
6755.84
6755.34
6754.85
6754.38
6753.92
6753.46
6753.02
6752.59
6752.17
6751.76
6751.36
6750.97
6750.59
6750.22
6749.85
6749.5
6749.16
6748.83
6748.5
6748.19
6747.88
6747.58
6747.29
6747.01
6746.74
6746.48
6746.22
6745.98
6745.74
6745.5
6745.28
6745.06
6744.85
6744.65
6744.46
6744.27
6744.09
6743.92
6743.75
6743.59
6743.43
6743.29
6743.14
6743.01
6742.88
6742.76
6742.64
6742.53
6742.42
6742.31
6742.22
6742.12
6742.04
6741.96
6741.91
6741.83
6741.74
6741.67
6741.61
6741.55
6741.5
6741.45
6741.4
6741.36
6741.31
6741.28
6741.25
6741.22
6741.2
6741.18
6741.16
6741.16
6741.15
6741.12
6741.12
6741.1
6741.11
6741.11
6741.12
6741.13
6741.15
6741.15
6741.18
6741.19
6741.22
6741.24
6741.28
6741.3
6741.34
6741.37
6741.41
6741.43
6741.52
6741.57
6741.6
6741.64
6741.68
6741.73
6741.78
6741.84
6741.89
6741.94
6742
6742.05
6742.1
6742.16
6742.21
6742.27
6742.33
6742.38
6742.44
6742.5
6742.56
6742.62
6742.68
6742.74
6742.81
6742.87
6742.94
6743
6743.07
6743.14
6743.21
6743.28
6743.35
6743.42
6743.49
6743.57
6743.64
6743.72
6743.79
6743.87
6743.95
6744.02
6744.1
6744.18
6744.26
6744.34
6744.42
6744.5
6744.59
6744.67
6744.75
6744.84
6744.92
6745
6745.09
6745.18
6745.26
6745.35
6745.44
6745.52
6745.61
6745.7
6745.79
6745.87
6745.96
6746.05
6746.14
6746.23
6746.32
6746.41
6746.5
6746.59
6746.69
6746.78
6746.87
6746.96
6747.05
6747.14
6747.24
6747.33
6747.42
6747.51
6747.61
6747.7
6747.79
6747.89
6747.98
6748.07
6748.17
6748.26
6748.36
6748.45
6748.54
6748.64
6748.73
6748.83
6748.91
6749.05
6302.46
6290.99
6277.32
6263.83
6250.65
6237.92
6225.68
6213.93
6202.63
6191.77
6181.35
6171.36
6161.77
6152.62
6143.89
6135.52
6127.5
6119.85
6112.57
6105.62
6099.01
6092.76
6086.87
6081.3
6076.07
6071.15
6066.55
6062.25
6058.26
6054.6
6051.28
6048.25
6045.5
6043.09
6040.99
6039.1
6037.52
6036.24
6035.28
6034.54
6034.1
6033.93
6034.01
6034.36
6034.93
6035.78
6036.86
6038.15
6039.72
6041.54
6043.59
6045.88
6048.38
6051.07
6053.94
6057
6060.26
6063.74
6067.43
6071.28
6075.31
6079.52
6083.88
6088.37
6093
6097.79
6102.73
6107.76
6112.9
6118.14
6123.51
6128.97
6134.5
6140.13
6145.85
6151.66
6157.56
6163.53
6169.58
6175.75
6182.07
6188.53
6195.11
6201.88
6208.8
6215.82
6222.95
6230.13
6237.3
6244.57
6252.04
6259.97
6268.07
6275.67
6284.82
6293.86
6298.72
6298.38
6314.02
6332.51
6341.89
6350.22
6361.11
6370.43
6382.4
6394.69
6406.57
6418.39
6430.41
6442.37
6454.65
6467.01
6480.02
6493.89
6507.33
6520.54
6534.24
6543.64
6558.35
6578.94
6595.54
6611.95
6628.56
6644.77
6661.42
6678.19
6694.9
6711.64
6728.16
6744.93
6761.99
6778.47
6795.26
6811.06
6826.63
6839.83
6855.46
6873.44
6888.62
6902.93
6917.36
6931.22
6944.81
6958.12
6970.96
6983.35
6995.39
7007
7018.26
7029.12
7039.63
7049.77
7059.57
7069.02
7078.14
7086.95
7095.46
7103.68
7111.61
7119.28
7126.69
7133.85
7140.77
7147.45
7153.9
7160.09
7166.04
7171.73
7177.15
7182.29
7187.12
7191.64
7195.84
7199.69
7203.19
7206.33
7209.11
7211.5
7213.52
7215.14
7216.38
7217.22
7217.67
7217.73
7217.4
7216.67
7215.56
7214.06
7212.18
7209.93
7207.32
7204.34
7201.01
7197.34
7193.34
7189
7184.35
7179.4
7174.16
7168.63
7162.84
7156.78
7150.49
7143.96
7137.22
7130.28
7123.14
7115.82
7108.33
7100.69
7092.92
7085.02
7077.01
7068.9
7060.71
7052.44
7044.1
7035.72
7027.3
7018.84
7010.38
7001.91
6993.44
6984.98
6976.55
6968.15
6959.79
6951.48
6943.23
6935.04
6926.93
6918.88
6910.92
6903.05
6895.28
6887.6
6880.02
6872.55
6865.19
6857.94
6850.81
6843.79
6836.89
6830.11
6823.45
6816.92
6810.51
6804.23
6798.07
6792.04
6786.13
6780.35
6774.69
6769.15
6763.74
6758.45
6753.28
6748.22
6743.28
6738.45
6733.74
6729.13
6724.64
6720.26
6715.98
6711.8
6707.73
6703.76
6699.89
6696.11
6692.43
6688.84
6685.34
6681.93
6678.61
6675.37
6672.21
6669.13
6666.13
6663.21
6660.36
6657.59
6654.89
6652.25
6649.69
6647.18
6644.75
6642.37
6640.06
6637.81
6635.61
6633.47
6631.39
6629.35
6627.37
6625.44
6623.56
6621.73
6619.94
6618.19
6616.49
6614.83
6613.21
6611.63
6610.09
6608.59
6607.12
6605.68
6604.28
6602.91
6601.57
6600.27
6598.99
6597.74
6596.51
6595.32
6594.15
6593
6591.87
6590.77
6589.7
6588.64
6587.6
6586.59
6585.59
6584.61
6583.65
6582.71
6581.78
6580.88
6579.98
6579.11
6578.24
6577.4
6576.57
6575.75
6574.95
6574.16
6573.38
6572.62
6571.86
6571.13
6570.4
6569.69
6568.99
6568.31
6567.63
6566.97
6566.32
6565.68
6565.06
6564.45
6563.85
6563.26
6562.69
6562.12
6561.57
6561.03
6560.5
6559.98
6559.48
6558.98
6558.5
6558.03
6557.56
6557.11
6556.67
6556.24
6555.82
6555.42
6555.02
6554.63
6554.25
6553.88
6553.52
6553.17
6552.83
6552.5
6552.17
6551.86
6551.56
6551.26
6550.97
6550.69
6550.42
6550.16
6549.91
6549.66
6549.42
6549.19
6548.97
6548.75
6548.55
6548.35
6548.15
6547.97
6547.79
6547.62