/*--------------------------------*- C++ -*----------------------------------*\
| =========                 |                                                 |
| \\      /  F ield         | OpenFOAM: The Open Source CFD Toolbox           |
|  \\    /   O peration     | Version:  v2006                                 |
|   \\  /    A nd           | Website:  www.openfoam.com                      |
|    \\/     M anipulation  |                                                 |
\*---------------------------------------------------------------------------*/
FoamFile
{
    version     2.0;
    format      ascii;
    class       volScalarField;
    location    "3.7";
    object      p_rgh;
}
// * * * * * * * * * * * * * * * * * * * * * * * * * * * * * * * * * * * * * //

dimensions      [1 -1 -2 0 0 0 0];


internalField   nonuniform List<scalar> 
33000
(
7588.47
7576.19
7564.03
7551.96
7540.08
7528.51
7517.21
7506.16
7495.41
7484.95
7474.8
7464.97
7455.49
7446.35
7437.55
7429.11
7421
7413.21
7405.76
7398.64
7391.87
7385.44
7379.35
7373.61
7368.18
7363.08
7358.29
7353.79
7349.58
7345.69
7342.16
7338.95
7336.04
7333.36
7331.02
7328.98
7327.21
7325.75
7324.6
7323.64
7323
7322.64
7322.43
7322.53
7322.94
7323.62
7324.53
7325.66
7326.99
7328.55
7330.36
7332.39
7334.65
7337.12
7339.8
7342.66
7345.69
7348.91
7352.35
7355.97
7359.74
7363.61
7367.63
7371.83
7376.27
7380.84
7385.5
7390.25
7395.15
7400.23
7405.42
7410.71
7416.04
7421.39
7426.89
7432.58
7438
7439.83
7435.93
7443.02
7453.86
7456.6
7464.09
7470.04
7475.88
7483.8
7491.65
7499.55
7506.94
7514.55
7522.05
7529.43
7537.05
7544.62
7551.82
7559.1
7565.07
7571.94
7574.6
7582.51
7597.19
7607.35
7618.66
7630.75
7642.38
7655.03
7668.54
7681.76
7695.17
7708.42
7721.94
7735.34
7748.79
7762.32
7775.18
7788.45
7798.64
7812.77
7831.54
7847.05
7863.44
7880.17
7896.57
7913.57
7931.04
7948.22
7965.51
7982.76
7999.86
8016.88
8033.81
8050.52
8067.01
8083.26
8099.22
8114.9
8130.26
8145.28
8159.95
8174.26
8188.21
8201.77
8214.95
8227.76
8240.19
8252.21
8263.85
8275.1
8285.99
8296.51
8306.65
8316.42
8325.84
8334.95
8343.74
8352.21
8360.37
8368.23
8375.85
8383.22
8390.34
8397.22
8403.91
8410.41
8416.7
8422.78
8428.61
8434.2
8439.53
8444.56
8449.29
8453.72
8457.83
8461.61
8465.04
8468.12
8470.85
8473.22
8475.22
8476.85
8478.11
8478.98
8479.49
8479.63
8479.38
8478.76
8477.78
8476.44
8474.72
8472.65
8470.23
8467.47
8464.38
8460.96
8457.22
8453.16
8448.8
8444.16
8439.24
8434.05
8428.6
8422.91
8416.96
8410.8
8404.43
8397.86
8391.11
8384.18
8377.08
8369.84
8362.45
8354.94
8347.32
8339.59
8331.77
8323.88
8315.92
8307.9
8299.83
8291.73
8283.61
8275.47
8267.33
8259.19
8251.05
8242.95
8234.87
8226.84
8218.84
8210.9
8203.01
8195.19
8187.44
8179.77
8172.18
8164.68
8157.26
8149.94
8142.71
8135.59
8128.57
8121.66
8114.85
8108.16
8101.57
8095.11
8088.75
8082.51
8076.39
8070.39
8064.5
8058.73
8053.07
8047.54
8042.11
8036.81
8031.62
8026.54
8021.58
8016.72
8011.98
8007.35
8002.82
7998.4
7994.09
7989.87
7985.76
7981.75
7977.83
7974.01
7970.28
7966.64
7963.1
7959.64
7956.26
7952.98
7949.77
7946.64
7943.6
7940.63
7937.73
7934.91
7932.17
7929.49
7926.88
7924.34
7921.86
7919.44
7917.09
7914.8
7912.56
7910.39
7908.26
7906.2
7904.18
7902.22
7900.3
7898.44
7896.62
7894.84
7893.11
7891.42
7889.78
7888.17
7886.6
7885.08
7883.58
7882.13
7880.7
7879.31
7877.95
7876.62
7875.33
7874.06
7872.82
7871.6
7870.41
7869.25
7868.11
7866.99
7865.9
7864.83
7863.78
7862.75
7861.74
7860.75
7859.77
7858.82
7857.88
7856.96
7856.06
7855.17
7854.3
7853.45
7852.61
7851.78
7850.97
7850.17
7849.38
7848.61
7847.85
7847.11
7846.38
7845.66
7844.95
7844.26
7843.58
7842.91
7842.25
7841.61
7840.98
7840.36
7839.75
7839.16
7838.58
7838.01
7837.45
7836.9
7836.37
7835.84
7835.33
7834.83
7834.34
7833.86
7833.4
7832.94
7832.49
7832.06
7831.63
7831.22
7830.81
7830.42
7830.03
7829.66
7829.29
7828.94
7828.59
7828.25
7827.92
7827.61
7827.29
7826.99
7826.7
7826.42
7826.14
7825.87
7825.61
7825.36
7825.12
7824.88
7824.65
7824.43
7824.22
7824.01
7823.81
7823.62
7823.44
7823.26
7823.09
7822.92
7822.77
7822.61
7822.47
7822.33
7822.2
7822.07
7821.95
7821.83
7821.72
7821.62
7821.52
7821.42
7821.33
7821.25
7821.17
7821.1
7821.03
7820.96
7820.9
7820.84
7820.79
7820.74
7820.7
7820.66
7820.62
7820.58
7820.55
7820.53
7820.5
7820.49
7820.47
7820.43
7820.41
7820.39
7820.38
7820.37
7820.37
7820.37
7820.37
7820.38
7820.39
7820.41
7820.42
7820.44
7820.46
7820.49
7820.51
7820.55
7820.58
7820.59
7820.63
7820.66
7820.7
7820.73
7820.78
7820.81
7820.87
7820.91
7820.96
7821.01
7821.07
7821.12
7821.18
7821.24
7821.3
7821.35
7821.42
7821.46
7821.56
7821.61
7821.64
7821.69
7821.74
7821.79
7821.84
7821.9
7821.96
7822.02
7822.08
7822.15
7822.21
7822.28
7822.34
7822.41
7822.48
7822.55
7822.62
7822.7
7822.77
7822.84
7822.92
7822.99
7823.07
7823.15
7823.23
7823.3
7823.38
7823.46
7823.54
7823.62
7823.71
7823.79
7823.87
7823.95
7824.04
7824.12
7824.21
7824.29
7824.38
7824.46
7824.55
7824.64
7824.72
7824.81
7824.9
7824.99
7825.08
7825.17
7825.25
7825.34
7825.43
7825.52
7825.61
7825.7
7825.79
7825.89
7825.98
7826.07
7826.16
7826.25
7826.34
7826.44
7826.53
7826.62
7826.71
7826.81
7826.9
7826.99
7827.09
7827.18
7827.27
7827.37
7827.46
7827.55
7827.65
7827.74
7827.84
7827.94
7828.01
7828.16
7588.06
7575.73
7563.55
7551.47
7539.55
7527.91
7516.54
7505.46
7494.67
7484.19
7474.04
7464.22
7454.74
7445.59
7436.79
7428.33
7420.21
7412.43
7404.99
7397.86
7391.04
7384.61
7378.53
7372.86
7367.44
7362.33
7357.54
7352.99
7348.71
7344.88
7341.35
7338.17
7335.33
7332.71
7330.34
7328.21
7326.5
7325.04
7323.94
7323.1
7322.41
7321.94
7321.73
7321.84
7322.21
7323.04
7323.99
7325.13
7326.46
7327.95
7329.73
7331.76
7334.1
7336.62
7339.3
7342.14
7345.12
7348.37
7351.91
7355.54
7359.24
7363.05
7367.11
7371.37
7375.86
7380.48
7385.06
7389.73
7394.64
7399.75
7404.99
7410.21
7415.45
7420.65
7425.96
7431.11
7435.68
7439.73
7444.74
7450.04
7451.66
7448.04
7457.79
7472
7477.62
7484.88
7492.07
7499
7505.34
7513.55
7521.87
7529.65
7537.31
7545.14
7552.62
7560.47
7567.76
7575.34
7582.22
7589.31
7597.91
7601.34
7612.27
7630.2
7642.96
7656.17
7668.84
7681.48
7693.96
7707.13
7721.23
7734.95
7748.79
7762.57
7776.19
7789.99
7803.46
7817.19
7831.96
7843.23
7859.36
7879.84
7896.74
7913.9
7930.94
7947.73
7964.98
7982.54
7999.72
8016.79
8033.72
8050.48
8067
8083.26
8099.27
8114.97
8130.34
8145.39
8160.08
8174.41
8188.36
8201.92
8215.12
8227.96
8240.41
8252.43
8264.07
8275.35
8286.25
8296.81
8306.95
8316.71
8326.15
8335.27
8344.07
8352.59
8360.75
8368.62
8376.24
8383.62
8390.78
8397.67
8404.36
8410.88
8417.2
8423.29
8429.11
8434.72
8440.08
8445.12
8449.85
8454.27
8458.4
8462.2
8465.64
8468.7
8471.43
8473.8
8475.82
8477.45
8478.69
8479.57
8480.07
8480.22
8479.97
8479.33
8478.35
8477.02
8475.3
8473.22
8470.79
8468.03
8464.93
8461.5
8457.73
8453.67
8449.32
8444.65
8439.71
8434.51
8429.06
8423.35
8417.38
8411.19
8404.8
8398.22
8391.46
8384.51
8377.39
8370.12
8362.72
8355.2
8347.55
8339.8
8331.96
8324.05
8316.09
8308.05
8299.96
8291.83
8283.69
8275.54
8267.4
8259.24
8251.09
8242.96
8234.88
8226.82
8218.82
8210.88
8202.98
8195.14
8187.38
8179.7
8172.1
8164.6
8157.17
8149.83
8142.6
8135.48
8128.45
8121.53
8114.72
8108.02
8101.44
8094.97
8088.61
8082.36
8076.25
8070.25
8064.35
8058.58
8052.92
8047.39
8041.96
8036.66
8031.47
8026.4
8021.43
8016.58
8011.84
8007.21
8002.69
7998.27
7993.95
7989.74
7985.63
7981.62
7977.71
7973.89
7970.16
7966.52
7962.97
7959.52
7956.15
7952.87
7949.66
7946.54
7943.49
7940.53
7937.63
7934.81
7932.07
7929.4
7926.79
7924.25
7921.77
7919.35
7917
7914.71
7912.49
7910.31
7908.19
7906.12
7904.11
7902.14
7900.23
7898.37
7896.55
7894.77
7893.05
7891.36
7889.72
7888.11
7886.54
7885.02
7883.53
7882.07
7880.65
7879.26
7877.9
7876.57
7875.28
7874.01
7872.77
7871.55
7870.37
7869.2
7868.06
7866.95
7865.86
7864.79
7863.74
7862.7
7861.7
7860.71
7859.74
7858.78
7857.84
7856.92
7856.02
7855.14
7854.27
7853.41
7852.57
7851.74
7850.93
7850.13
7849.35
7848.58
7847.82
7847.08
7846.34
7845.62
7844.92
7844.23
7843.54
7842.88
7842.22
7841.58
7840.95
7840.33
7839.72
7839.13
7838.55
7837.98
7837.42
7836.87
7836.34
7835.82
7835.31
7834.8
7834.32
7833.84
7833.37
7832.91
7832.47
7832.03
7831.61
7831.19
7830.79
7830.39
7830.01
7829.63
7829.27
7828.91
7828.57
7828.23
7827.9
7827.58
7827.27
7826.97
7826.68
7826.4
7826.12
7825.85
7825.59
7825.34
7825.1
7824.86
7824.63
7824.41
7824.2
7824
7823.8
7823.61
7823.42
7823.24
7823.07
7822.91
7822.75
7822.6
7822.45
7822.31
7822.18
7822.05
7821.93
7821.82
7821.71
7821.6
7821.5
7821.41
7821.32
7821.23
7821.16
7821.08
7821.01
7820.95
7820.89
7820.83
7820.78
7820.73
7820.69
7820.64
7820.61
7820.57
7820.56
7820.53
7820.48
7820.46
7820.43
7820.41
7820.39
7820.38
7820.37
7820.36
7820.36
7820.36
7820.37
7820.37
7820.38
7820.4
7820.42
7820.43
7820.47
7820.49
7820.51
7820.53
7820.56
7820.58
7820.62
7820.65
7820.69
7820.72
7820.77
7820.81
7820.86
7820.91
7820.95
7821.02
7821.06
7821.12
7821.17
7821.24
7821.28
7821.39
7821.44
7821.48
7821.54
7821.59
7821.64
7821.7
7821.75
7821.8
7821.86
7821.91
7821.97
7822.03
7822.09
7822.16
7822.22
7822.29
7822.35
7822.42
7822.49
7822.56
7822.63
7822.7
7822.77
7822.84
7822.92
7822.99
7823.07
7823.15
7823.23
7823.3
7823.38
7823.46
7823.54
7823.62
7823.71
7823.79
7823.87
7823.96
7824.04
7824.12
7824.21
7824.29
7824.38
7824.46
7824.55
7824.64
7824.72
7824.81
7824.9
7824.99
7825.08
7825.17
7825.25
7825.34
7825.43
7825.52
7825.61
7825.7
7825.79
7825.89
7825.98
7826.07
7826.16
7826.25
7826.34
7826.44
7826.53
7826.62
7826.71
7826.81
7826.9
7826.99
7827.09
7827.18
7827.27
7827.37
7827.46
7827.56
7827.65
7827.74
7827.84
7827.94
7828.01
7828.16
7587.02
7574.8
7562.48
7550.28
7538.25
7526.51
7515.06
7503.91
7493.06
7482.53
7472.34
7462.5
7452.99
7443.84
7435.03
7426.57
7418.46
7410.7
7403.27
7396.17
7389.4
7383.02
7376.99
7371.22
7365.69
7360.58
7355.82
7351.45
7347.41
7343.59
7339.91
7336.54
7333.6
7331.01
7328.95
7327.02
7325.27
7323.7
7322.47
7321.67
7321.17
7320.81
7320.66
7320.6
7320.96
7321.9
7322.83
7323.98
7325.35
7326.83
7328.56
7330.62
7332.92
7335.58
7338.29
7341.06
7344.1
7347.39
7351
7354.67
7358.32
7362.15
7366.26
7370.67
7375.21
7379.61
7384.13
7388.94
7393.87
7398.95
7404.23
7409.42
7414.6
7419.7
7424.9
7429.93
7434.82
7439.52
7444.53
7449.73
7454.76
7461.01
7467.29
7469.31
7465.49
7475.88
7492.17
7501.39
7509.26
7514.81
7522.34
7528.36
7537.11
7545.59
7553.63
7561.47
7569.3
7577.17
7585.4
7594.07
7603.72
7612.81
7621.65
7631.28
7636.05
7648.17
7667.13
7681.21
7695.7
7708.31
7721.64
7734.53
7748.11
7762.34
7776.31
7790.54
7804.79
7819.42
7834.82
7849.94
7864.88
7880.46
7892.69
7909.38
7930.39
7947.78
7965.13
7982.4
7999.24
8016.3
8033.57
8050.41
8066.98
8083.33
8099.42
8115.17
8130.54
8145.59
8160.3
8174.7
8188.69
8202.3
8215.51
8228.42
8240.86
8252.89
8264.58
8275.95
8286.89
8297.43
8307.55
8317.37
8326.85
8336.04
8344.89
8353.39
8361.53
8369.45
8377.16
8384.59
8391.74
8398.63
8405.35
8411.9
8418.26
8424.35
8430.17
8435.79
8441.19
8446.25
8450.97
8455.41
8459.58
8463.39
8466.81
8469.88
8472.64
8475.02
8477.02
8478.64
8479.91
8480.82
8481.32
8481.44
8481.15
8480.52
8479.53
8478.2
8476.49
8474.41
8471.97
8469.17
8466
8462.55
8458.81
8454.75
8450.35
8445.65
8440.66
8435.43
8429.96
8424.22
8418.21
8411.98
8405.58
8398.98
8392.17
8385.17
8378
8370.7
8363.28
8355.71
8348.02
8340.23
8332.38
8324.44
8316.43
8308.36
8300.23
8292.05
8283.88
8275.72
8267.54
8259.35
8251.17
8243.01
8234.91
8226.84
8218.81
8210.83
8202.91
8195.04
8187.28
8179.58
8171.96
8164.43
8156.99
8149.65
8142.38
8135.23
8128.2
8121.28
8114.48
8107.77
8101.17
8094.7
8088.33
8082.07
8075.95
8069.95
8064.06
8058.29
8052.63
8047.09
8041.68
8036.38
8031.19
8026.11
8021.13
8016.3
8011.57
8006.94
8002.41
7997.99
7993.68
7989.47
7985.37
7981.37
7977.45
7973.64
7969.92
7966.28
7962.74
7959.28
7955.92
7952.64
7949.45
7946.33
7943.29
7940.33
7937.44
7934.62
7931.88
7929.21
7926.61
7924.07
7921.6
7919.18
7916.84
7914.56
7912.33
7910.15
7908.04
7905.97
7903.96
7902
7900.09
7898.23
7896.42
7894.65
7892.92
7891.24
7889.6
7887.99
7886.43
7884.91
7883.42
7881.96
7880.54
7879.15
7877.8
7876.47
7875.18
7873.91
7872.67
7871.46
7870.27
7869.11
7867.98
7866.86
7865.77
7864.7
7863.65
7862.62
7861.62
7860.63
7859.66
7858.7
7857.77
7856.85
7855.95
7855.06
7854.2
7853.34
7852.5
7851.68
7850.87
7850.07
7849.28
7848.51
7847.76
7847.01
7846.28
7845.56
7844.86
7844.16
7843.48
7842.82
7842.16
7841.52
7840.89
7840.27
7839.67
7839.07
7838.49
7837.92
7837.37
7836.82
7836.29
7835.76
7835.25
7834.75
7834.26
7833.79
7833.32
7832.86
7832.42
7831.98
7831.56
7831.15
7830.74
7830.35
7829.96
7829.59
7829.22
7828.87
7828.52
7828.19
7827.86
7827.54
7827.23
7826.93
7826.64
7826.36
7826.08
7825.81
7825.55
7825.3
7825.06
7824.83
7824.6
7824.38
7824.17
7823.96
7823.76
7823.57
7823.39
7823.21
7823.04
7822.88
7822.72
7822.57
7822.42
7822.28
7822.15
7822.03
7821.9
7821.79
7821.68
7821.58
7821.48
7821.38
7821.29
7821.21
7821.13
7821.06
7820.99
7820.93
7820.87
7820.81
7820.76
7820.71
7820.67
7820.65
7820.61
7820.55
7820.52
7820.48
7820.45
7820.43
7820.41
7820.38
7820.37
7820.35
7820.35
7820.34
7820.34
7820.34
7820.34
7820.36
7820.36
7820.4
7820.41
7820.42
7820.43
7820.46
7820.48
7820.51
7820.53
7820.56
7820.6
7820.63
7820.67
7820.7
7820.76
7820.79
7820.86
7820.9
7820.95
7820.99
7821.06
7821.09
7821.2
7821.25
7821.28
7821.32
7821.37
7821.42
7821.47
7821.53
7821.58
7821.64
7821.69
7821.75
7821.81
7821.87
7821.93
7822
7822.06
7822.12
7822.19
7822.26
7822.33
7822.4
7822.47
7822.54
7822.61
7822.69
7822.76
7822.84
7822.91
7822.99
7823.06
7823.14
7823.22
7823.3
7823.38
7823.46
7823.54
7823.62
7823.7
7823.78
7823.87
7823.95
7824.03
7824.12
7824.2
7824.29
7824.37
7824.46
7824.55
7824.63
7824.72
7824.81
7824.9
7824.98
7825.07
7825.16
7825.25
7825.34
7825.43
7825.52
7825.61
7825.7
7825.79
7825.88
7825.98
7826.07
7826.16
7826.25
7826.34
7826.43
7826.53
7826.62
7826.71
7826.8
7826.9
7826.99
7827.08
7827.18
7827.27
7827.36
7827.46
7827.55
7827.65
7827.74
7827.83
7827.93
7828.01
7828.16
7585.43
7573.4
7560.9
7548.53
7536.35
7524.48
7512.92
7501.66
7490.73
7480.13
7469.88
7459.99
7450.47
7441.3
7432.5
7424.04
7415.93
7408.17
7400.77
7393.71
7386.98
7380.6
7374.56
7368.86
7363.46
7358.37
7353.61
7349.22
7345.17
7341.39
7337.9
7334.58
7331.55
7329.01
7326.96
7325.01
7323.29
7321.85
7320.68
7319.81
7319.26
7318.9
7318.82
7319.01
7319.47
7320.16
7321.08
7322.23
7323.63
7325.3
7327.14
7329.16
7331.43
7334.04
7336.77
7339.69
7342.81
7346.16
7349.68
7353.35
7357.13
7361.02
7365.2
7369.66
7374.05
7378.34
7382.98
7387.82
7392.77
7397.91
7403.24
7408.46
7413.66
7418.78
7423.99
7429.22
7434.44
7439.59
7444.69
7449.81
7455.19
7461.16
7467.31
7473.08
7479.97
7487.78
7495.2
7498.34
7495.44
7507.84
7523.98
7531.02
7537.87
7546.13
7552.91
7562.19
7571.29
7580.07
7588.59
7597.5
7606.46
7616.05
7626.54
7637.83
7648.65
7659.93
7670.02
7680.79
7687.25
7699.66
7719.43
7734.13
7748.48
7762.69
7776.47
7790.81
7805.84
7820.7
7835.89
7851.1
7866.79
7883.2
7899.24
7914.93
7931.04
7944.01
7961.07
7982.04
7999.44
8016.55
8033.62
8050.19
8066.79
8083.5
8099.74
8115.6
8130.92
8146.03
8160.78
8175.22
8189.19
8202.86
8216.21
8229.13
8241.63
8253.68
8265.41
8276.85
8287.83
8298.39
8308.55
8318.42
8327.99
8337.26
8346.12
8354.59
8362.81
8370.78
8378.52
8386.05
8393.26
8400.2
8406.93
8413.48
8419.88
8425.98
8431.84
8437.48
8442.91
8448
8452.73
8457.2
8461.37
8465.22
8468.63
8471.74
8474.49
8476.9
8478.89
8480.53
8481.78
8482.7
8483.2
8483.29
8482.98
8482.34
8481.32
8479.98
8478.26
8476.13
8473.65
8470.84
8467.64
8464.15
8460.35
8456.28
8451.87
8447.14
8442.07
8436.8
8431.3
8425.51
8419.46
8413.18
8406.71
8400.07
8393.21
8386.15
8378.93
8371.58
8364.12
8356.49
8348.74
8340.88
8332.96
8324.99
8316.93
8308.81
8300.63
8292.39
8284.18
8275.98
8267.74
8259.51
8251.29
8243.11
8234.94
8226.81
8218.74
8210.75
8202.81
8194.93
8187.09
8179.35
8171.73
8164.18
8156.71
8149.31
8142.05
8134.9
8127.87
8120.92
8114.09
8107.34
8100.76
8094.28
8087.89
8081.64
8075.53
8069.52
8063.62
8057.84
8052.2
8046.67
8041.25
8035.94
8030.74
8025.66
8020.7
8015.87
8011.15
8006.52
8002
7997.59
7993.27
7989.07
7984.97
7980.97
7977.08
7973.26
7969.53
7965.92
7962.4
7958.95
7955.59
7952.3
7949.11
7946.01
7942.98
7940.02
7937.13
7934.32
7931.6
7928.93
7926.34
7923.79
7921.33
7918.94
7916.6
7914.31
7912.09
7909.92
7907.81
7905.75
7903.75
7901.79
7899.88
7898.03
7896.22
7894.45
7892.73
7891.05
7889.41
7887.82
7886.26
7884.73
7883.25
7881.8
7880.38
7879
7877.64
7876.32
7875.03
7873.77
7872.53
7871.32
7870.14
7868.98
7867.84
7866.73
7865.64
7864.57
7863.53
7862.5
7861.5
7860.51
7859.54
7858.59
7857.65
7856.74
7855.84
7854.96
7854.09
7853.23
7852.4
7851.57
7850.76
7849.97
7849.18
7848.41
7847.66
7846.91
7846.18
7845.47
7844.76
7844.07
7843.39
7842.72
7842.07
7841.43
7840.8
7840.18
7839.58
7838.99
7838.41
7837.84
7837.28
7836.74
7836.2
7835.68
7835.17
7834.67
7834.19
7833.71
7833.24
7832.79
7832.34
7831.91
7831.49
7831.07
7830.67
7830.28
7829.89
7829.52
7829.16
7828.8
7828.46
7828.12
7827.79
7827.48
7827.17
7826.87
7826.58
7826.29
7826.02
7825.75
7825.5
7825.25
7825
7824.77
7824.54
7824.32
7824.11
7823.91
7823.71
7823.52
7823.34
7823.16
7822.99
7822.83
7822.67
7822.52
7822.38
7822.24
7822.11
7821.98
7821.86
7821.75
7821.64
7821.53
7821.44
7821.34
7821.26
7821.17
7821.1
7821.02
7820.95
7820.89
7820.83
7820.77
7820.75
7820.7
7820.63
7820.58
7820.54
7820.5
7820.47
7820.44
7820.41
7820.39
7820.36
7820.35
7820.33
7820.32
7820.31
7820.3
7820.31
7820.31
7820.34
7820.34
7820.34
7820.35
7820.37
7820.38
7820.41
7820.42
7820.45
7820.48
7820.51
7820.54
7820.58
7820.61
7820.66
7820.7
7820.74
7820.78
7820.82
7820.88
7820.91
7821.02
7821.08
7821.11
7821.16
7821.22
7821.27
7821.33
7821.39
7821.44
7821.49
7821.54
7821.6
7821.65
7821.71
7821.77
7821.82
7821.88
7821.94
7822.01
7822.07
7822.13
7822.2
7822.27
7822.33
7822.4
7822.47
7822.54
7822.61
7822.68
7822.76
7822.83
7822.91
7822.98
7823.06
7823.14
7823.22
7823.3
7823.37
7823.46
7823.54
7823.62
7823.7
7823.78
7823.86
7823.95
7824.03
7824.12
7824.2
7824.29
7824.37
7824.46
7824.55
7824.63
7824.72
7824.81
7824.89
7824.98
7825.07
7825.16
7825.25
7825.34
7825.43
7825.52
7825.61
7825.7
7825.79
7825.88
7825.97
7826.07
7826.16
7826.25
7826.34
7826.43
7826.53
7826.62
7826.71
7826.8
7826.9
7826.99
7827.08
7827.18
7827.27
7827.37
7827.46
7827.55
7827.65
7827.74
7827.83
7827.93
7828.01
7828.15
7583.32
7571.5
7558.74
7546.09
7533.67
7521.58
7509.85
7498.46
7487.42
7476.73
7466.42
7456.5
7446.95
7437.78
7428.98
7420.54
7412.45
7404.72
7397.34
7390.31
7383.62
7377.27
7371.27
7365.61
7360.27
7355.23
7350.52
7346.14
7342.1
7338.34
7334.88
7331.72
7328.88
7326.35
7324.1
7322.18
7320.52
7319.1
7317.98
7317.14
7316.59
7316.29
7316.24
7316.48
7316.98
7317.73
7318.69
7319.86
7321.3
7323.02
7324.97
7327.11
7329.41
7331.87
7334.63
7337.69
7340.89
7344.28
7347.84
7351.55
7355.4
7359.47
7363.75
7368.12
7372.59
7377.08
7381.63
7386.49
7391.73
7396.78
7401.73
7406.98
7412.5
7418
7423.38
7428.68
7433.87
7439.28
7444.8
7450.53
7456.43
7462.27
7468.15
7474.11
7480.7
7488.14
7495.2
7501.92
7509.95
7517.56
7520.84
7518.8
7532.15
7549.19
7556.7
7563.83
7572.69
7580.14
7590.38
7600.51
7610.22
7619.91
7630.1
7640.24
7650.91
7662.65
7674.57
7686.68
7698.48
7709.51
7721.24
7728.41
7741.7
7761.63
7776.83
7791.82
7806.79
7821.54
7836.91
7852.83
7868.57
7884.48
7900.39
7916.74
7933.74
7950.21
7966.43
7982.79
7996.08
8013.07
8033.69
8050.83
8067.52
8084.03
8100.08
8115.66
8131.13
8146.57
8161.5
8175.93
8189.95
8203.67
8217.04
8230.12
8242.78
8254.92
8266.62
8278.02
8289.08
8299.84
8310.08
8319.95
8329.61
8338.96
8347.83
8356.35
8364.68
8372.73
8380.53
8388.11
8395.41
8402.43
8409.2
8415.77
8422.12
8428.27
8434.2
8439.92
8445.32
8450.41
8455.17
8459.65
8463.82
8467.67
8471.23
8474.29
8477.02
8479.41
8481.45
8483.1
8484.34
8485.23
8485.67
8485.76
8485.47
8484.81
8483.79
8482.43
8480.65
8478.49
8475.92
8473.06
8469.86
8466.32
8462.46
8458.33
8453.9
8449.12
8444.01
8438.63
8433.03
8427.22
8421.15
8414.82
8408.23
8401.46
8394.53
8387.43
8380.2
8372.8
8365.22
8357.49
8349.66
8341.76
8333.76
8325.68
8317.59
8309.4
8301.12
8292.85
8284.56
8276.31
8268
8259.67
8251.4
8243.17
8235.01
8226.81
8218.66
8210.6
8202.63
8194.7
8186.84
8179.07
8171.4
8163.85
8156.31
8148.9
8141.61
8134.43
8127.38
8120.43
8113.56
8106.81
8100.19
8093.69
8087.32
8081.06
8074.95
8068.94
8063.02
8057.23
8051.58
8046.06
8040.66
8035.33
8030.15
8025.08
8020.12
8015.3
8010.59
8005.97
8001.45
7997.04
7992.74
7988.54
7984.44
7980.45
7976.56
7972.75
7969.04
7965.43
7961.92
7958.49
7955.14
7951.85
7948.67
7945.59
7942.55
7939.6
7936.73
7933.95
7931.22
7928.55
7925.96
7923.43
7920.99
7918.6
7916.26
7913.98
7911.76
7909.6
7907.5
7905.45
7903.46
7901.5
7899.6
7897.76
7895.95
7894.19
7892.47
7890.8
7889.17
7887.58
7886.02
7884.5
7883.02
7881.58
7880.16
7878.78
7877.43
7876.11
7874.83
7873.57
7872.33
7871.13
7869.95
7868.8
7867.66
7866.55
7865.47
7864.4
7863.36
7862.33
7861.33
7860.35
7859.38
7858.43
7857.5
7856.58
7855.69
7854.81
7853.94
7853.09
7852.26
7851.43
7850.62
7849.83
7849.05
7848.28
7847.52
7846.78
7846.05
7845.34
7844.64
7843.95
7843.27
7842.6
7841.95
7841.31
7840.68
7840.07
7839.46
7838.87
7838.29
7837.73
7837.17
7836.63
7836.1
7835.57
7835.07
7834.57
7834.08
7833.61
7833.14
7832.69
7832.24
7831.81
7831.39
7830.98
7830.57
7830.18
7829.8
7829.43
7829.07
7828.71
7828.37
7828.03
7827.71
7827.39
7827.08
7826.79
7826.5
7826.21
7825.94
7825.67
7825.42
7825.17
7824.93
7824.69
7824.47
7824.25
7824.04
7823.84
7823.64
7823.45
7823.27
7823.1
7822.93
7822.76
7822.61
7822.46
7822.32
7822.18
7822.05
7821.92
7821.8
7821.69
7821.58
7821.48
7821.38
7821.3
7821.21
7821.12
7821.04
7820.98
7820.91
7820.87
7820.81
7820.72
7820.67
7820.61
7820.57
7820.52
7820.49
7820.45
7820.42
7820.38
7820.36
7820.34
7820.32
7820.3
7820.29
7820.28
7820.29
7820.29
7820.27
7820.27
7820.27
7820.28
7820.29
7820.31
7820.32
7820.34
7820.36
7820.39
7820.41
7820.44
7820.47
7820.51
7820.55
7820.58
7820.62
7820.65
7820.71
7820.73
7820.84
7820.89
7820.92
7820.96
7821.01
7821.06
7821.11
7821.16
7821.22
7821.27
7821.33
7821.39
7821.44
7821.5
7821.56
7821.61
7821.67
7821.73
7821.79
7821.85
7821.92
7821.98
7822.05
7822.11
7822.18
7822.25
7822.32
7822.39
7822.46
7822.53
7822.6
7822.67
7822.75
7822.82
7822.9
7822.98
7823.05
7823.13
7823.21
7823.29
7823.37
7823.45
7823.53
7823.61
7823.69
7823.77
7823.86
7823.94
7824.03
7824.11
7824.2
7824.28
7824.37
7824.45
7824.54
7824.63
7824.71
7824.8
7824.89
7824.98
7825.07
7825.16
7825.25
7825.34
7825.43
7825.52
7825.61
7825.7
7825.79
7825.88
7825.97
7826.06
7826.15
7826.25
7826.34
7826.43
7826.52
7826.62
7826.71
7826.8
7826.9
7826.99
7827.08
7827.18
7827.27
7827.36
7827.46
7827.55
7827.65
7827.74
7827.83
7827.93
7828.01
7828.15
7580.72
7569.1
7555.99
7543
7530.25
7517.87
7505.9
7494.34
7483.17
7472.39
7462.01
7452.04
7442.46
7433.29
7424.52
7416.11
7408.06
7400.35
7393.02
7386.03
7379.36
7373.04
7367.1
7361.51
7356.22
7351.23
7346.58
7342.25
7338.21
7334.5
7331.09
7327.97
7325.17
7322.7
7320.55
7318.65
7317.02
7315.67
7314.59
7313.73
7313.06
7312.77
7313.01
7313.36
7313.89
7314.61
7315.41
7316.44
7318.16
7320.16
7322.19
7324.39
7326.58
7328.72
7331.36
7334.91
7338.35
7341.82
7345.47
7349.26
7353.19
7357.35
7361.69
7366.1
7370.64
7375.34
7380.2
7385.15
7390.12
7395
7400.14
7405.64
7411.32
7416.82
7422.36
7427.94
7433.49
7439
7444.74
7450.96
7457.11
7463.29
7469.58
7476.01
7482.53
7489.19
7496.01
7502.99
7510.61
7518.14
7525.04
7533.38
7541.84
7546.08
7544.89
7559.21
7576.55
7585.01
7592.95
7602.94
7611.34
7622.28
7633.56
7644.51
7655.43
7666.94
7678.01
7689.73
7701.13
7713.46
7726.52
7739.23
7751.3
7764.06
7772.25
7786.32
7806.64
7822.48
7838.24
7854.16
7869.76
7885.83
7902.25
7918.6
7935.18
7951.51
7968.23
7985.27
8001.87
8018.17
8034.43
8047.98
8064.87
8084.63
8101.34
8117.42
8132.24
8147.64
8162.29
8176.86
8191.09
8204.88
8218.39
8231.56
8244.24
8256.52
8268.32
8279.77
8291.01
8301.77
8312.16
8322.13
8331.84
8341.26
8350.23
8358.83
8367.27
8375.49
8383.38
8390.9
8398.22
8405.34
8412.25
8418.88
8425.2
8431.41
8437.41
8443.09
8448.44
8453.55
8458.41
8462.92
8467.05
8470.93
8474.48
8477.6
8480.27
8482.67
8484.77
8486.42
8487.59
8488.43
8488.96
8489.03
8488.65
8488.01
8487.01
8485.55
8483.64
8481.44
8478.89
8476.04
8472.81
8469.17
8465.18
8460.95
8456.48
8451.63
8446.48
8440.97
8435.32
8429.43
8423.24
8416.82
8410.13
8403.27
8396.25
8389.12
8381.77
8374.25
8366.55
8358.72
8350.83
8342.88
8334.82
8326.63
8318.36
8310.08
8301.76
8293.47
8285.1
8276.67
8268.28
8259.91
8251.6
8243.33
8235.05
8226.8
8218.57
8210.44
8202.39
8194.44
8186.57
8178.73
8171.02
8163.42
8155.86
8148.39
8141.07
8133.9
8126.79
8119.77
8112.89
8106.14
8099.51
8093.02
8086.64
8080.38
8074.23
8068.18
8062.27
8056.49
8050.83
8045.33
8039.92
8034.62
8029.41
8024.35
8019.43
8014.6
8009.87
8005.25
8000.74
7996.36
7992.08
7987.87
7983.79
7979.82
7975.93
7972.12
7968.43
7964.84
7961.34
7957.92
7954.58
7951.3
7948.13
7945.05
7942.05
7939.11
7936.24
7933.47
7930.74
7928.08
7925.51
7923.01
7920.56
7918.17
7915.84
7913.57
7911.37
7909.23
7907.12
7905.08
7903.1
7901.15
7899.26
7897.42
7895.62
7893.87
7892.16
7890.49
7888.87
7887.28
7885.73
7884.22
7882.74
7881.31
7879.9
7878.52
7877.17
7875.86
7874.58
7873.32
7872.1
7870.89
7869.72
7868.57
7867.44
7866.33
7865.25
7864.19
7863.15
7862.13
7861.13
7860.15
7859.18
7858.24
7857.31
7856.4
7855.5
7854.62
7853.76
7852.91
7852.07
7851.26
7850.45
7849.66
7848.88
7848.11
7847.36
7846.62
7845.89
7845.18
7844.48
7843.79
7843.11
7842.45
7841.8
7841.16
7840.53
7839.92
7839.32
7838.73
7838.15
7837.59
7837.03
7836.49
7835.96
7835.44
7834.93
7834.44
7833.95
7833.48
7833.01
7832.56
7832.12
7831.69
7831.27
7830.86
7830.46
7830.07
7829.69
7829.31
7828.95
7828.6
7828.26
7827.93
7827.6
7827.29
7826.98
7826.68
7826.39
7826.11
7825.84
7825.58
7825.32
7825.07
7824.83
7824.6
7824.38
7824.16
7823.95
7823.75
7823.56
7823.37
7823.19
7823.01
7822.85
7822.69
7822.53
7822.39
7822.24
7822.11
7821.98
7821.86
7821.74
7821.63
7821.52
7821.41
7821.32
7821.22
7821.14
7821.05
7821.01
7820.93
7820.84
7820.77
7820.7
7820.65
7820.59
7820.55
7820.5
7820.46
7820.41
7820.38
7820.35
7820.32
7820.29
7820.28
7820.26
7820.26
7820.25
7820.22
7820.22
7820.2
7820.21
7820.21
7820.22
7820.22
7820.24
7820.25
7820.28
7820.29
7820.32
7820.34
7820.38
7820.4
7820.44
7820.46
7820.51
7820.53
7820.62
7820.67
7820.7
7820.74
7820.78
7820.83
7820.89
7820.94
7821
7821.05
7821.1
7821.16
7821.21
7821.26
7821.32
7821.37
7821.43
7821.49
7821.54
7821.6
7821.66
7821.72
7821.78
7821.84
7821.91
7821.97
7822.04
7822.1
7822.17
7822.24
7822.31
7822.38
7822.45
7822.52
7822.59
7822.66
7822.74
7822.81
7822.89
7822.97
7823.04
7823.12
7823.2
7823.28
7823.36
7823.44
7823.52
7823.6
7823.69
7823.77
7823.85
7823.94
7824.02
7824.11
7824.19
7824.28
7824.36
7824.45
7824.54
7824.62
7824.71
7824.8
7824.89
7824.98
7825.06
7825.15
7825.24
7825.33
7825.42
7825.51
7825.61
7825.7
7825.79
7825.88
7825.97
7826.06
7826.15
7826.25
7826.34
7826.43
7826.52
7826.62
7826.71
7826.8
7826.89
7826.99
7827.08
7827.17
7827.27
7827.36
7827.46
7827.55
7827.64
7827.74
7827.83
7827.93
7828.01
7828.15
7577.69
7566.23
7552.59
7539.13
7525.94
7513.13
7500.66
7488.78
7477.73
7467.04
7456.64
7446.62
7436.77
7427.24
7418.57
7410.73
7402.8
7395.14
7387.87
7380.87
7373.96
7367.26
7361.48
7356.51
7351.35
7346.45
7341.84
7337.54
7333.56
7329.86
7326.33
7322.88
7320.07
7318.27
7316.28
7314.4
7312.81
7311.52
7310.39
7309.15
7308.46
7308.55
7309.22
7309.64
7310.11
7310.37
7310.98
7312.26
7313.85
7316.46
7318.81
7321.1
7323.11
7325.34
7328.21
7331.27
7334.53
7338.31
7342.58
7346.54
7350.6
7354.81
7359.17
7363.66
7368.3
7373.09
7378.02
7383.05
7388.07
7393.01
7398.28
7403.88
7409.73
7415.41
7421.14
7426.95
7432.84
7438.76
7444.67
7450.64
7457.24
7463.8
7470.4
7477.16
7483.98
7490.78
7497.85
7505.3
7512.48
7519.62
7526.93
7535.15
7543.33
7550.93
7560.07
7569.07
7573.73
7573.3
7589.2
7607.79
7617.17
7625.49
7636.26
7645.47
7657.6
7669.97
7681.86
7693.69
7705.7
7717.65
7729.94
7742.28
7755.23
7769.08
7782.6
7795.83
7809.53
7818.93
7833.62
7854.12
7870.63
7887.19
7903.81
7920.02
7936.54
7953.29
7970.13
7986.91
8003.43
8020.18
8037.22
8053.61
8070.33
8086.13
8101.74
8115.07
8130.7
8148.67
8163.88
8178.19
8192.58
8206.31
8220.03
8233.37
8246.23
8258.6
8270.61
8282.23
8293.48
8304.22
8314.74
8325.01
8334.82
8344.25
8353.24
8362.17
8370.73
8378.95
8386.89
8394.48
8401.86
8409.09
8416.04
8422.72
8429.16
8435.37
8441.32
8447.01
8452.39
8457.54
8462.4
8466.92
8471.12
8474.97
8478.47
8481.61
8484.37
8486.76
8488.8
8490.43
8491.66
8492.43
8492.9
8493
8492.67
8491.94
8490.83
8489.33
8487.38
8485.17
8482.58
8479.61
8476.28
8472.61
8468.56
8464.17
8459.58
8454.67
8449.43
8443.91
8438.12
8432.02
8425.73
8419.23
8412.49
8405.48
8398.36
8391.09
8383.62
8375.98
8368.2
8360.21
8352.24
8344.17
8335.99
8327.72
8319.38
8310.95
8302.52
8294.12
8285.66
8277.19
8268.68
8260.21
8251.82
8243.44
8235.08
8226.76
8218.51
8210.31
8202.14
8194.13
8186.2
8178.34
8170.56
8162.88
8155.31
8147.81
8140.45
8133.22
8126.09
8119.04
8112.13
8105.38
8098.73
8092.18
8085.79
8079.51
8073.35
8067.3
8061.38
8055.62
8049.97
8044.44
8039.02
8033.73
8028.56
8023.48
8018.55
8013.73
8009.02
8004.42
7999.9
7995.53
7991.26
7987.09
7983.02
7979.05
7975.17
7971.4
7967.69
7964.12
7960.63
7957.22
7953.9
7950.66
7947.5
7944.41
7941.42
7938.5
7935.66
7932.88
7930.18
7927.54
7924.97
7922.48
7920.04
7917.67
7915.35
7913.09
7910.9
7908.76
7906.68
7904.64
7902.66
7900.73
7898.85
7897.02
7895.23
7893.48
7891.78
7890.12
7888.5
7886.93
7885.38
7883.88
7882.41
7880.98
7879.58
7878.21
7876.87
7875.56
7874.28
7873.03
7871.81
7870.61
7869.44
7868.29
7867.17
7866.07
7864.99
7863.93
7862.9
7861.88
7860.89
7859.91
7858.95
7858.01
7857.08
7856.17
7855.28
7854.4
7853.54
7852.69
7851.86
7851.05
7850.24
7849.45
7848.68
7847.91
7847.16
7846.42
7845.7
7844.99
7844.29
7843.6
7842.93
7842.27
7841.62
7840.98
7840.36
7839.75
7839.15
7838.56
7837.98
7837.42
7836.87
7836.33
7835.8
7835.28
7834.77
7834.28
7833.8
7833.32
7832.86
7832.41
7831.97
7831.54
7831.12
7830.71
7830.31
7829.92
7829.55
7829.18
7828.82
7828.47
7828.13
7827.79
7827.47
7827.16
7826.85
7826.56
7826.27
7825.99
7825.72
7825.46
7825.21
7824.96
7824.72
7824.49
7824.27