/*--------------------------------*- C++ -*----------------------------------*\
| =========                 |                                                 |
| \\      /  F ield         | OpenFOAM: The Open Source CFD Toolbox           |
|  \\    /   O peration     | Version:  v2006                                 |
|   \\  /    A nd           | Website:  www.openfoam.com                      |
|    \\/     M anipulation  |                                                 |
\*---------------------------------------------------------------------------*/
FoamFile
{
    version     2.0;
    format      ascii;
    class       surfaceScalarField;
    location    "3.7";
    object      phi;
}
// * * * * * * * * * * * * * * * * * * * * * * * * * * * * * * * * * * * * * //

dimensions      [0 3 -1 0 0 0 0];
oriented        oriented;


internalField   nonuniform List<scalar> 
65390
(
-0.000103248
-3.94968e-06
-0.000103717
4.70066e-07
-0.000104188
4.73322e-07
-0.000104738
5.50197e-07
-0.000105349
6.10912e-07
-0.00010593
5.81171e-07
-0.000106475
5.44057e-07
-0.000106998
5.22544e-07
-0.000107557
5.58617e-07
-0.00010814
5.83095e-07
-0.00010879
6.49931e-07
-0.000109485
6.93195e-07
-0.000110228
7.41865e-07
-0.000110984
7.54251e-07
-0.000111704
7.18872e-07
-0.00011236
6.54066e-07
-0.000112884
5.22319e-07
-0.000113339
4.53438e-07
-0.000113843
5.03546e-07
-0.000114509
6.63867e-07
-0.000115345
8.35319e-07
-0.000116151
8.04859e-07
-0.000116767
6.14021e-07
-0.000117079
3.11455e-07
-0.000117309
2.2873e-07
-0.000117573
2.62558e-07
-0.000117916
3.42422e-07
-0.000118237
3.19958e-07
-0.000118542
3.05272e-07
-0.000118913
3.70259e-07
-0.000119403
4.89569e-07
-0.000119853
4.4949e-07
-0.00012006
2.06241e-07
-0.00012002
-4.07932e-08
-0.000119955
-6.5285e-08
-0.000120027
7.18386e-08
-0.000120192
1.64488e-07
-0.00012035
1.57028e-07
-0.000120242
-1.07772e-07
-0.000119752
-4.91068e-07
-0.000119207
-5.44754e-07
-0.000118901
-3.062e-07
-0.000118908
6.75299e-09
-0.000119028
1.19637e-07
-0.000119002
-2.5954e-08
-0.000118536
-4.66704e-07
-0.000117765
-7.70906e-07
-0.000116964
-8.01479e-07
-0.000116297
-6.67027e-07
-0.000115751
-5.45875e-07
-0.000115317
-4.34016e-07
-0.00011489
-4.27491e-07
-0.000114233
-6.56775e-07
-0.000113304
-9.292e-07
-0.000112278
-1.02535e-06
-0.000111327
-9.51348e-07
-0.000110513
-8.13903e-07
-0.000109603
-9.10148e-07
-0.000108392
-1.21064e-06
-0.000106947
-1.44492e-06
-0.000105605
-1.34187e-06
-0.000104557
-1.0473e-06
-0.000103713
-8.43928e-07
-0.000102713
-9.99976e-07
-0.000101324
-1.38868e-06
-9.97249e-05
-1.59886e-06
-9.81277e-05
-1.59679e-06
-9.66452e-05
-1.4822e-06
-9.50657e-05
-1.57907e-06
-9.30253e-05
-2.04e-06
-9.04188e-05
-2.60612e-06
-8.72312e-05
-3.18726e-06
-8.34064e-05
-3.82442e-06
-7.88887e-05
-4.5174e-06
-7.33364e-05
-5.55196e-06
-6.62623e-05
-7.07373e-06
-5.7578e-05
-8.68406e-06
-4.65297e-05
-1.10481e-05
-3.82556e-05
-8.27404e-06
-3.4976e-05
-3.2795e-06
-3.37795e-05
-1.1965e-06
-3.52578e-05
1.47822e-06
-3.64059e-05
1.14812e-06
-3.7296e-05
8.90048e-07
-3.84104e-05
1.11438e-06
-3.82229e-05
-1.87505e-07
-3.76645e-05
-5.58446e-07
-3.71257e-05
-5.38786e-07
-3.67349e-05
-3.90812e-07
-3.6426e-05
-3.08995e-07
-3.61368e-05
-2.89268e-07
-3.58862e-05
-2.50685e-07
-3.54304e-05
-4.55883e-07
-3.48189e-05
-6.11585e-07
-3.40342e-05
-7.84754e-07
-3.30741e-05
-9.60222e-07
-3.17962e-05
-1.27802e-06
-3.00344e-05
-1.76192e-06
-2.7543e-05
-2.49152e-06
-2.58412e-05
-1.70192e-06
-2.53446e-05
-4.96687e-07
-2.5256e-05
-8.87263e-08
-2.55108e-05
2.54677e-07
-2.5567e-05
5.62e-08
-2.59211e-05
3.53999e-07
-2.61735e-05
2.52397e-07
-2.61276e-05
-4.59162e-08
-2.6047e-05
-8.07221e-08
-2.59018e-05
-1.45273e-07
-2.57686e-05
-1.33306e-07
-2.55759e-05
-1.92765e-07
-2.5331e-05
-2.44953e-07
-2.49865e-05
-3.44555e-07
-2.45004e-05
-4.86085e-07
-2.37463e-05
-7.54143e-07
-2.26659e-05
-1.0805e-06
-2.10361e-05
-1.62977e-06
-1.97772e-05
-1.25894e-06
-1.9326e-05
-4.51274e-07
-1.9219e-05
-1.06997e-07
-1.92823e-05
6.33074e-08
-1.91987e-05
-8.35912e-08
-1.92797e-05
8.09781e-08
-1.93152e-05
3.55504e-08
-1.91646e-05
-1.50617e-07
-1.9028e-05
-1.36598e-07
-1.88722e-05
-1.55838e-07
-1.8671e-05
-2.01186e-07
-1.84598e-05
-2.1122e-07
-1.82272e-05
-2.3258e-07
-1.79575e-05
-2.69749e-07
-1.76574e-05
-3.00018e-07
-1.73355e-05
-3.21958e-07
-1.69906e-05
-3.44886e-07
-1.66234e-05
-3.67107e-07
-1.62278e-05
-3.95646e-07
-1.58079e-05
-4.1987e-07
-1.53678e-05
-4.40058e-07
-1.49085e-05
-4.59308e-07
-1.44244e-05
-4.84116e-07
-1.39216e-05
-5.02899e-07
-1.34084e-05
-5.13227e-07
-1.28794e-05
-5.29125e-07
-1.23251e-05
-5.54363e-07
-1.17505e-05
-5.74719e-07
-1.11681e-05
-5.82531e-07
-1.05771e-05
-5.91125e-07
-9.97367e-06
-6.03552e-07
-9.35265e-06
-6.21151e-07
-8.71385e-06
-6.38941e-07
-8.07014e-06
-6.43862e-07
-7.42865e-06
-6.4166e-07
-6.78878e-06
-6.40045e-07
-6.14004e-06
-6.48937e-07
-5.47998e-06
-6.60266e-07
-4.81445e-06
-6.6575e-07
-4.15964e-06
-6.55037e-07
-3.51805e-06
-6.41818e-07
-2.87722e-06
-6.41071e-07
-2.23827e-06
-6.39182e-07
-1.60545e-06
-6.33058e-07
-9.93549e-07
-6.12135e-07
-3.98319e-07
-5.95458e-07
1.89402e-07
-5.87937e-07
7.66456e-07
-5.7725e-07
1.32457e-06
-5.58276e-07
1.8602e-06
-5.35758e-07
2.38519e-06
-5.25086e-07
2.90239e-06
-5.17239e-07
3.40505e-06
-5.02666e-07
3.88721e-06
-4.82124e-07
4.35426e-06
-4.66973e-07
4.81363e-06
-4.59253e-07
5.26373e-06
-4.4993e-07
5.69886e-06
-4.3492e-07
6.11634e-06
-4.17228e-07
6.52163e-06
-4.05e-07
6.91673e-06
-3.94779e-07
7.30236e-06
-3.85281e-07
7.67567e-06
-3.72969e-07
8.03408e-06
-3.58059e-07
8.37963e-06
-3.4522e-07
8.71476e-06
-3.3482e-07
9.0406e-06
-3.25561e-07
9.35331e-06
-3.12452e-07
9.65003e-06
-2.96504e-07
9.93683e-06
-2.86628e-07
1.0217e-05
-2.80069e-07
1.04851e-05
-2.67939e-07
1.07389e-05
-2.53793e-07
1.09806e-05
-2.41661e-07
1.12116e-05
-2.30991e-07
1.14321e-05
-2.20538e-07
1.1641e-05
-2.09018e-07
1.18388e-05
-1.978e-07
1.20253e-05
-1.8652e-07
1.2202e-05
-1.76803e-07
1.23664e-05
-1.64378e-07
1.25188e-05
-1.52372e-07
1.26621e-05
-1.43271e-07
1.27975e-05
-1.35359e-07
1.29229e-05
-1.25312e-07
1.3035e-05
-1.1204e-07
1.31357e-05
-1.00562e-07
1.32264e-05
-9.0528e-08
1.33088e-05
-8.23021e-08
1.33838e-05
-7.49218e-08
1.34491e-05
-6.51999e-08
1.35031e-05
-5.38047e-08
1.35473e-05
-4.41026e-08
1.35841e-05
-3.66797e-08
1.36135e-05
-2.93229e-08
1.3633e-05
-1.94024e-08
1.36427e-05
-9.66063e-09
1.36449e-05
-2.07133e-09
1.36408e-05
4.17931e-09
1.36309e-05
9.93421e-09
1.36134e-05
1.75413e-08
1.35865e-05
2.70057e-08
1.35504e-05
3.61647e-08
1.35087e-05
4.18321e-08
1.34632e-05
4.55702e-08
1.34129e-05
5.03332e-08
1.33562e-05
5.68021e-08
1.32913e-05
6.50023e-08
1.32207e-05
7.0654e-08
1.31456e-05
7.52041e-08
1.30654e-05
8.03675e-08
1.29815e-05
8.40229e-08
1.28948e-05
8.681e-08
1.28019e-05
9.30021e-08
1.27033e-05
9.86736e-08
1.26013e-05
1.02099e-07
1.24961e-05
1.05358e-07
1.23896e-05
1.06701e-07
1.22799e-05
1.09788e-07
1.21653e-05
1.14766e-07
1.20472e-05
1.18262e-07
1.1927e-05
1.20268e-07
1.18052e-05
1.22017e-07
1.16802e-05
1.25056e-07
1.15534e-05
1.26931e-07
1.14252e-05
1.28285e-07
1.12948e-05
1.30455e-07
1.11626e-05
1.32251e-07
1.10306e-05
1.31978e-07
1.0895e-05
1.35642e-07
1.07572e-05
1.37836e-07
1.06208e-05
1.3646e-07
1.04841e-05
1.3669e-07
1.03453e-05
1.38833e-07
1.02053e-05
1.39983e-07
1.00642e-05
1.4103e-07
9.92437e-06
1.39806e-07
9.78291e-06
1.41401e-07
9.6403e-06
1.42553e-07
9.49891e-06
1.41335e-07
9.35811e-06
1.40761e-07
9.21568e-06
1.4239e-07
9.0726e-06
1.43055e-07
8.93005e-06
1.42534e-07
8.78956e-06
1.40479e-07
8.64868e-06
1.40873e-07
8.50655e-06
1.42139e-07
8.36397e-06
1.42589e-07
8.22156e-06
1.42421e-07
8.07935e-06
1.42232e-07
7.93926e-06
1.40111e-07
7.80052e-06
1.3877e-07
7.66163e-06
1.38924e-07
7.52175e-06
1.39899e-07
7.38111e-06
1.40665e-07
7.24085e-06
1.40276e-07
7.10164e-06
1.39228e-07
6.96344e-06
1.38207e-07
6.82618e-06
1.37269e-07
6.68862e-06
1.37557e-07
6.55102e-06
1.37604e-07
6.41401e-06
1.37022e-07
6.27836e-06
1.35649e-07
6.14177e-06
1.36603e-07
6.00447e-06
1.37307e-07
5.86867e-06
1.35805e-07
5.73451e-06
1.34166e-07
5.60145e-06
1.33064e-07
5.46859e-06
1.32861e-07
5.33521e-06
1.33373e-07
5.20146e-06
1.33747e-07
5.06859e-06
1.32865e-07
4.93657e-06
1.32016e-07
4.80641e-06
1.30153e-07
4.67734e-06
1.29068e-07
4.54771e-06
1.2963e-07
4.41793e-06
1.29771e-07
4.28918e-06
1.28752e-07
4.1611e-06
1.28067e-07
4.03432e-06
1.26776e-07
3.90865e-06
1.25668e-07
3.78322e-06
1.25421e-07
3.65848e-06
1.24726e-07
3.53464e-06
1.23839e-07
3.41195e-06
1.22672e-07
3.29097e-06
1.2097e-07
3.17053e-06
1.20436e-07
3.05113e-06
1.19383e-07
2.93297e-06
1.18157e-07
2.81682e-06
1.16134e-07
2.70262e-06
1.14191e-07
2.58863e-06
1.13982e-07
2.47619e-06
1.12431e-07
2.3654e-06
1.10784e-07
2.25674e-06
1.08653e-07
2.15001e-06
1.06717e-07
2.04471e-06
1.05295e-07
1.9411e-06
1.03596e-07
1.83942e-06
1.01677e-07
1.74003e-06
9.9375e-08
1.64264e-06
9.73881e-08
1.54682e-06
9.58088e-08
1.453e-06
9.38114e-08
1.36133e-06
9.16578e-08
1.27231e-06
8.90119e-08
1.18556e-06
8.67372e-08
1.10016e-06
8.53943e-08
1.01697e-06
8.31806e-08
9.36397e-07
8.05671e-08
8.58522e-07
7.78683e-08
7.82314e-07
7.62016e-08
7.07991e-07
7.43177e-08
6.35916e-07
7.20692e-08
5.66006e-07
6.99066e-08
4.98468e-07
6.75336e-08
4.33294e-07
6.51715e-08
3.70293e-07
6.29986e-08
3.09391e-07
6.09004e-08
2.5051e-07
5.88795e-08
1.93622e-07
5.68876e-08
1.38764e-07
5.48579e-08
8.60625e-08
5.27024e-08
3.54609e-08
5.06029e-08
-1.35205e-08
4.89832e-08
-6.08591e-08
4.73409e-08
-1.06424e-07
4.55679e-08
-1.5019e-07
4.37692e-08
-1.92049e-07
4.18624e-08
-2.32102e-07
4.00575e-08
-2.70742e-07
3.8645e-08
-3.07957e-07
3.72207e-08
-3.43711e-07
3.57595e-08
-3.77714e-07
3.40078e-08
-4.10195e-07
3.24864e-08
-4.4162e-07
3.14302e-08
-4.71793e-07
3.01781e-08
-5.0066e-07
2.88727e-08
-5.28146e-07
2.74923e-08
-5.54416e-07
2.62764e-08
-5.79752e-07
2.53421e-08
-6.0399e-07
2.42432e-08
-6.27039e-07
2.30551e-08
-6.48947e-07
2.19128e-08
-6.69978e-07
2.10356e-08
-6.90136e-07
2.01618e-08
-7.09355e-07
1.92228e-08
-7.27703e-07
1.83508e-08
-7.45066e-07
1.73667e-08
-7.61601e-07
1.65382e-08
-7.77503e-07
1.59048e-08
-7.92661e-07
1.51617e-08
-8.07097e-07
1.44395e-08
-8.20796e-07
1.37014e-08
-8.33668e-07
1.28749e-08
-8.45867e-07
1.22012e-08
-8.57462e-07
1.15977e-08
-8.68462e-07
1.10016e-08
-8.78793e-07
1.03332e-08
-8.88542e-07
9.75081e-09
-8.97844e-07
9.30382e-09
-9.06655e-07
8.81275e-09
-9.14992e-07
8.33897e-09
-9.22822e-07
7.83227e-09
-9.30067e-07
7.24691e-09
-9.36827e-07
6.76077e-09
-9.43211e-07
6.3842e-09
-9.49252e-07
6.04109e-09
-9.54956e-07
5.70403e-09
-9.60269e-07
5.31372e-09
-9.65211e-07
4.94307e-09
-9.6976e-07
4.55128e-09
-9.73941e-07
4.18362e-09
-9.77871e-07
3.93255e-09
-9.81468e-07
3.59972e-09
-9.84599e-07
3.13321e-09
-9.87353e-07
2.75542e-09
-9.89996e-07
2.64446e-09
-9.92291e-07
2.29602e-09
-9.94232e-07
1.94289e-09
-9.95972e-07
1.74125e-09
-9.9745e-07
1.47931e-09
-9.98604e-07
1.15646e-09
-9.99428e-07
8.2551e-10
-9.9998e-07
5.53003e-10
-1.00025e-06
2.74031e-10
-1.00033e-06
8.01702e-11
-1.00023e-06
-9.70693e-11
-1.00002e-06
-2.11734e-10
-9.99571e-07
-4.48751e-10
-9.99103e-07
-4.66509e-10
-9.98297e-07
-8.05026e-10
-9.97456e-07
-8.39604e-10
-9.96474e-07
-9.81769e-10
-9.95356e-07
-1.11703e-09
-9.94016e-07
-1.33877e-09
-9.92325e-07
-1.69045e-09
-9.90726e-07
-1.59827e-09
-9.8869e-07
-2.03447e-09
-9.86055e-07
-2.63478e-09
-9.8337e-07
-2.68314e-09
-9.79424e-07
-3.94549e-09
-9.7519e-07
-4.23331e-09
-9.73052e-07
-2.13747e-09
-9.69567e-07
-3.48398e-09
-9.65412e-07
-4.15446e-09
-9.62367e-07
-3.04513e-09
-9.49069e-07
-1.3298e-08
-9.36614e-07
-1.24546e-08
-9.39156e-07
2.54113e-09
-9.31668e-07
-7.48842e-09
-9.38057e-07
6.38852e-09
-9.60699e-07
2.26416e-08
-1.01313e-06
5.24261e-08
-1.06548e-06
5.23574e-08
-1.08807e-06
2.25851e-08
-1.10792e-06
1.98544e-08
-1.11726e-06
9.33301e-09
-1.12401e-06
6.75262e-09
-1.12702e-06
3.01155e-09
-1.12952e-06
2.49618e-09
-1.13007e-06
5.45275e-10
-1.12967e-06
-3.98038e-10
-1.12684e-06
-2.83281e-09
-1.12427e-06
-2.57017e-09
-1.11528e-06
-8.99293e-09
-1.10616e-06
-9.11453e-09
-1.10419e-06
-1.97221e-09
-1.09662e-06
-7.56499e-09
-1.09511e-06
-1.51884e-09
-1.10153e-06
6.42755e-09
-1.12143e-06
1.98944e-08
-1.14096e-06
1.95274e-08
-1.14562e-06
4.66603e-09
-1.14885e-06
3.22054e-09
-1.14818e-06
-6.67335e-10
-1.1451e-06
-3.07667e-09
-1.14232e-06
-2.78379e-09
-1.13681e-06
-5.51354e-09
-1.13147e-06
-5.33962e-09
-1.1211e-06
-1.03731e-08
-1.11002e-06
-1.10829e-08
-1.10304e-06
-6.98172e-09
-1.0926e-06
-1.04424e-08
-1.08348e-06
-9.12553e-09
-1.07807e-06
-5.40906e-09
-1.03711e-06
-4.0963e-08
-1.00022e-06
-3.68907e-08
-1.0013e-06
1.0775e-09
-9.70295e-07
-3.10045e-08
-1.02589e-06
5.56062e-08
-1.10903e-06
8.31625e-08
-1.38706e-06
2.78076e-07
-1.67183e-06
2.84844e-07
-1.85818e-06
1.86493e-07
-1.98722e-06
1.2917e-07
-2.07635e-06
8.92391e-08
-2.1406e-06
6.43562e-08
-2.18829e-06
4.77862e-08
-2.22479e-06
3.65819e-08
-2.25338e-06
2.86687e-08
-2.27614e-06
2.28197e-08
-2.29443e-06
1.83576e-08
-2.30923e-06
1.48523e-08
-2.32112e-06
1.19489e-08
-2.33055e-06
9.47498e-09
-2.3379e-06
7.39307e-09
-2.34355e-06
5.68207e-09
-2.34776e-06
4.2485e-09
-2.3507e-06
2.97238e-09
-2.35248e-06
1.80437e-09
-2.35305e-06
6.0353e-10
-2.35258e-06
-4.46856e-10
-2.35121e-06
-1.34765e-09
-2.34906e-06
-2.13624e-09
-2.34621e-06
-2.83228e-09
-2.34273e-06
-3.45968e-09
-2.33867e-06
-4.04798e-09
-2.33397e-06
-4.67914e-09
-2.32868e-06
-5.28471e-09
-2.32285e-06
-5.8133e-09
-2.31645e-06
-6.38713e-09
-2.30947e-06
-6.9736e-09
-2.30189e-06
-7.57146e-09
-2.29369e-06
-8.18982e-09
-2.28487e-06
-8.81055e-09
-2.27546e-06
-9.40343e-09
-2.26552e-06
-9.93979e-09
-2.25512e-06
-1.03965e-08
-2.24434e-06
-1.07662e-08
-2.23336e-06
-1.09743e-08
-2.22211e-06
-1.12456e-08
-2.21065e-06
-1.14648e-08
-2.19904e-06
-1.15969e-08
-2.18737e-06
-1.16754e-08
-2.17566e-06
-1.17015e-08
-2.16397e-06
-1.16863e-08
-2.1523e-06
-1.16642e-08
-2.14062e-06
-1.16778e-08
-2.12886e-06
-1.17606e-08
-2.11694e-06
-1.19208e-08
-2.10479e-06
-1.21477e-08
-2.09236e-06
-1.24241e-08
-2.07963e-06
-1.27306e-08
-2.0666e-06
-1.30241e-08
-2.05338e-06
-1.32217e-08
-2.04014e-06
-1.3234e-08
-2.02708e-06
-1.30587e-08
-2.01422e-06
-1.28577e-08
-2.00137e-06
-1.28473e-08
-1.98821e-06
-1.31577e-08
-1.97461e-06
-1.36048e-08
-1.96089e-06
-1.37202e-08
-1.94758e-06
-1.33096e-08
-1.9348e-06
-1.27722e-08
-1.92247e-06
-1.23343e-08
-1.90977e-06
-1.27008e-08
-1.89641e-06
-1.33549e-08
-1.88295e-06
-1.34601e-08
-1.87e-06
-1.29443e-08
-1.85752e-06
-1.24785e-08
-1.84456e-06
-1.29608e-08
-1.83068e-06
-1.38853e-08
-1.81662e-06
-1.40539e-08
-1.803e-06
-1.36236e-08
-1.78934e-06
-1.36612e-08
-1.77482e-06
-1.45156e-08
-1.76015e-06
-1.46699e-08
-1.74625e-06
-1.38996e-08
-1.73296e-06
-1.32889e-08
-1.71948e-06
-1.34856e-08
-1.70632e-06
-1.31573e-08
-1.69337e-06
-1.2952e-08
-8.59365e-09
-0.000103628
-7.57761e-06
-0.000104025
8.65287e-07
-0.000104432
8.79982e-07
-0.00010484
9.5875e-07
-0.000105292
1.06342e-06
-0.000105803
1.09359e-06
-0.000106405
1.14736e-06
-0.000107072
1.19077e-06
-0.000107783
1.27023e-06
-0.000108503
1.30584e-06
-0.000109229
1.37804e-06
-0.000109945
1.41155e-06
-0.000110652
1.45191e-06
-0.000111342
1.44707e-06
-0.000112028
1.40771e-06
-0.000112709
1.33727e-06
-0.000113383
1.20001e-06
-0.000114034
1.10728e-06
-0.00011467
1.14219e-06
-0.000115283
1.27965e-06
-0.00011585
1.40536e-06
-0.000116367
1.32371e-06
-0.00011683
1.07895e-06
-0.00011726
7.43438e-07
-0.000117709
6.80407e-07
-0.00011818
7.35443e-07
-0.000118613
7.76283e-07
-0.000118939
6.4801e-07
-0.000119107
4.74558e-07
-0.000119213
4.77501e-07
-0.00011937
6.47673e-07
-0.000119689
7.69567e-07
-0.000120139
6.56837e-07
-0.000120529
3.50644e-07
-0.000120642
4.81597e-08
-0.000120461
-1.0791e-07
-0.000120204
-9.23031e-08
-0.000120034
-1.19883e-08
-0.00012002
-1.20703e-07
-0.000119965
-5.45182e-07
-0.000119708
-8.01139e-07
-0.000119259
-7.54096e-07
-0.000118871
-3.8056e-07
-0.00011862
-1.30546e-07
-0.000118384
-2.60963e-07
-0.00011804
-8.10642e-07
-0.000117492
-1.31751e-06
-0.000116819
-1.4742e-06
-0.000116142
-1.34308e-06
-0.000115571
-1.11612e-06
-0.000115054
-9.50637e-07
-0.000114546
-9.35651e-07
-0.000113989
-1.2139e-06
-0.000113256
-1.66155e-06
-0.000112376
-1.90493e-06
-0.000111517
-1.81054e-06
-0.000110693
-1.63762e-06
-0.000109799
-1.80457e-06
-0.000108693
-2.3166e-06
-0.000107445
-2.69288e-06
-0.000106234
-2.55353e-06
-0.000105141
-2.14022e-06
-0.000104061
-1.92425e-06
-0.000102773
-2.28865e-06
-0.00010124
-2.92172e-06
-9.97255e-05
-3.11402e-06
-9.83704e-05
-2.95238e-06
-9.70645e-05
-2.78856e-06
-9.55842e-05
-3.0599e-06
-9.38487e-05
-3.77595e-06
-9.18821e-05
-4.57322e-06
-8.97535e-05
-5.31641e-06
-8.74831e-05
-6.09528e-06
-8.53573e-05
-6.64364e-06
-8.32669e-05
-7.64278e-06
-8.1079e-05
-9.26198e-06
-7.82517e-05
-1.15116e-05
-7.6174e-05
-1.3126e-05
-7.16247e-05
-1.28233e-05
-6.38623e-05
-1.10421e-05
-5.25681e-05
-1.24908e-05
-4.21456e-05
-8.94426e-06
-3.69667e-05
-4.03088e-06
-3.44416e-05
-1.63507e-06
-3.44762e-05
1.14901e-06
-3.53547e-05
6.90957e-07
-3.59844e-05
7.12288e-08
-3.6816e-05
2.9289e-07
-3.76445e-05
4.37591e-07
-3.72676e-05
-6.85889e-07
-3.65939e-05
-9.62906e-07
-3.61318e-05
-7.12807e-07
-3.57028e-05
-8.84958e-07
-3.5291e-05
-1.02341e-06
-3.49268e-05
-1.14896e-06
-3.44703e-05
-1.41674e-06
-3.4108e-05
-1.64032e-06
-3.39296e-05
-1.94037e-06
-3.41384e-05
-2.2827e-06
-3.37247e-05
-2.11554e-06
-3.20786e-05
-2.14272e-06
-2.95616e-05
-2.60571e-06
-2.76822e-05
-1.62472e-06
-2.68704e-05
-7.55548e-07
-2.62942e-05
-2.22101e-07
-2.6034e-05
-7.77622e-09
-2.57641e-05
-3.15805e-07
-2.56762e-05
-1.68605e-07
-2.58475e-05
2.60787e-08
-2.60028e-05
2.19853e-08
-2.58601e-05
-3.35435e-07
-2.56818e-05
-4.23196e-07
-2.54535e-05
-5.72721e-07
-2.5208e-05
-7.31508e-07
-2.49796e-05
-9.8249e-07
-2.47842e-05
-1.27588e-06
-2.47889e-05
-1.62497e-06
-2.43994e-05
-1.64836e-06
-2.33613e-05
-1.48933e-06
-2.17521e-05
-1.71609e-06
-2.0362e-05
-1.3267e-06
-1.97121e-05
-7.33399e-07
-1.93236e-05
-3.07367e-07
-1.91821e-05
-1.05885e-07
-1.90383e-05
-2.94294e-07
-1.9021e-05
-1.53837e-07
-1.8955e-05
-2.21805e-07
-1.87164e-05
-4.39745e-07
-1.84785e-05
-4.49179e-07
-1.82372e-05
-4.73815e-07
-1.79632e-05
-5.43846e-07
-1.76675e-05
-5.9569e-07
-1.73495e-05
-6.40025e-07
-1.69984e-05
-6.95936e-07
-1.6621e-05
-7.44613e-07
-1.62172e-05
-7.99495e-07
-1.57961e-05
-8.41028e-07
-1.53584e-05
-8.77862e-07
-1.48988e-05
-9.18991e-07
-1.4416e-05
-9.67074e-07
-1.39166e-05
-1.0024e-06
-1.34019e-05
-1.02808e-06
-1.28676e-05
-1.06363e-06
-1.23123e-05
-1.10987e-06
-1.17435e-05
-1.14364e-06
-1.11663e-05
-1.1599e-06
-1.05752e-05
-1.18232e-06
-9.96433e-06
-1.21459e-06
-9.34118e-06
-1.24444e-06
-8.71084e-06
-1.26941e-06
-8.07898e-06
-1.27586e-06
-7.44167e-06
-1.27911e-06
-6.79566e-06
-1.28619e-06
-6.142e-06
-1.30274e-06
-5.4848e-06
-1.31761e-06
-4.8313e-06
-1.31941e-06
-4.18612e-06
-1.30038e-06
-3.54329e-06
-1.28482e-06
-2.90122e-06
-1.28332e-06
-2.26422e-06
-1.27635e-06
-1.63742e-06
-1.26004e-06
-1.02591e-06
-1.22381e-06
-4.28434e-07
-1.19308e-06
1.57927e-07
-1.17442e-06
7.33902e-07
-1.15332e-06
1.29437e-06
-1.11882e-06
1.83589e-06
-1.07732e-06
2.36364e-06
-1.05285e-06
2.88179e-06
-1.03538e-06
3.38566e-06
-1.00649e-06
3.87137e-06
-9.67761e-07
4.34313e-06
-9.38628e-07
4.8049e-06
-9.20878e-07
5.25506e-06
-8.99918e-07
5.68977e-06
-8.69428e-07
6.11076e-06
-8.37998e-07
6.52051e-06
-8.14515e-07
6.91787e-06
-7.91891e-07
7.30244e-06
-7.69592e-07
7.67437e-06
-7.4465e-07
8.03485e-06
-7.18298e-07
8.3854e-06
-6.95543e-07
8.7235e-06
-6.72701e-07
9.04859e-06
-6.50451e-07
9.35999e-06
-6.23655e-07
9.65934e-06
-5.95675e-07
9.94779e-06
-5.74903e-07
1.02269e-05
-5.58975e-07
1.04947e-05
-5.35662e-07
1.07508e-05
-5.09731e-07
1.09954e-05
-4.86026e-07
1.12277e-05
-4.63145e-07
1.14464e-05
-4.39041e-07
1.16536e-05
-4.16078e-07
1.18514e-05
-3.9535e-07
1.20399e-05
-3.74897e-07
1.22183e-05
-3.54922e-07
1.2384e-05
-3.2989e-07
1.25365e-05
-3.04645e-07
1.2679e-05
-2.85576e-07
1.28132e-05
-2.69352e-07
1.29378e-05
-2.49707e-07
1.30502e-05
-2.24168e-07
1.31511e-05
-2.01338e-07
1.32433e-05
-1.8258e-07
1.33268e-05
-1.65664e-07
1.34009e-05
-1.48852e-07
1.34644e-05
-1.28624e-07
1.35176e-05
-1.06905e-07
1.35625e-05
-8.89301e-08
1.35998e-05
-7.38543e-08
1.36279e-05
-5.74114e-08
1.36462e-05
-3.7578e-08
1.36564e-05
-1.98152e-08
1.36593e-05
-4.81527e-09
1.36549e-05
8.67159e-09
1.36433e-05
2.16331e-08
1.36243e-05
3.65639e-08
1.35979e-05
5.35276e-08
1.35629e-05
7.13638e-08
1.35214e-05
8.34743e-08
1.3475e-05
9.20775e-08
1.34227e-05
1.02728e-07
1.33645e-05
1.15186e-07
1.33e-05
1.29702e-07
1.32297e-05
1.411e-07
1.31546e-05
1.50433e-07
1.30743e-05
1.60823e-07
1.29894e-05
1.69106e-07
1.29007e-05
1.75751e-07
1.28074e-05
1.86405e-07
1.27095e-05
1.96798e-07
1.26076e-05
2.04167e-07
1.2502e-05
2.11112e-07
1.2394e-05
2.14874e-07
1.22836e-05
2.20324e-07
1.21699e-05
2.28624e-07
1.2052e-05
2.36331e-07
1.19303e-05
2.42124e-07
1.18066e-05
2.45873e-07
1.16814e-05
2.50396e-07
1.1555e-05
2.53397e-07
1.14266e-05
2.5685e-07
1.12957e-05
2.61386e-07
1.11636e-05
2.64421e-07
1.10307e-05
2.64995e-07
1.08951e-05
2.71215e-07
1.07574e-05
2.75614e-07
1.06198e-05
2.74033e-07
1.04823e-05
2.74195e-07
1.03433e-05
2.77758e-07
1.02037e-05
2.79552e-07
1.00626e-05
2.82072e-07
9.92161e-06
2.80759e-07
9.78095e-06
2.81998e-07
9.63959e-06
2.83849e-07
9.49772e-06
2.83158e-07
9.35498e-06
2.83458e-07
9.21107e-06
2.86265e-07
9.06877e-06
2.85323e-07
8.92754e-06
2.83758e-07
8.78638e-06
2.81629e-07
8.64454e-06
2.82728e-07
8.5023e-06
2.84396e-07
8.35962e-06
2.85304e-07
8.21737e-06
2.84714e-07
8.07596e-06
2.83684e-07
7.93565e-06
2.80465e-07
7.79595e-06
2.7852e-07
7.65612e-06
2.78788e-07
7.51594e-06
2.80112e-07
7.37586e-06
2.80769e-07
7.23627e-06
2.79882e-07
7.09723e-06
2.78282e-07
6.95817e-06
2.77278e-07
6.81981e-06
2.75637e-07
6.68213e-06
2.75235e-07
6.54536e-06
2.74386e-07
6.40873e-06
2.73651e-07
6.27249e-06
2.71893e-07
6.13625e-06
2.72841e-07
5.99935e-06
2.74203e-07
5.86395e-06
2.71207e-07
5.72982e-06
2.68279e-07
5.59586e-06
2.67009e-07
5.4621e-06
2.66608e-07
5.32878e-06
2.66674e-07
5.19555e-06
2.66966e-07
5.06336e-06
2.65029e-07
4.93176e-06
2.63602e-07
4.80083e-06
2.61068e-07
4.6707e-06
2.59178e-07
4.54083e-06
2.59474e-07
4.41137e-06
2.59211e-07
4.28316e-06
2.56941e-07
4.15554e-06
2.55666e-07
4.02827e-06
2.54022e-07
3.9018e-06
2.52109e-07
3.77638e-06
2.5081e-07
3.65206e-06
2.49022e-07
3.52867e-06
2.47196e-07
3.40624e-06
2.45067e-07
3.28469e-06
2.42488e-07
3.1641e-06
2.40995e-07
3.04533e-06
2.38124e-07
2.92768e-06
2.35768e-07
2.81123e-06
2.3256e-07
2.69638e-06
2.29013e-07
2.58244e-06
2.2789e-07
2.47044e-06
2.24401e-07
2.36005e-06
2.21148e-07
2.25127e-06
2.17405e-07
2.14407e-06
2.1389e-07
2.03882e-06
2.10514e-07
1.93547e-06
2.06917e-07
1.83397e-06
2.03147e-07
1.73436e-06
1.98958e-07
1.63659e-06
1.95131e-07
1.54097e-06
1.914e-07
1.44753e-06
1.87218e-07
1.35617e-06
1.82987e-07
1.26693e-06
1.78231e-07
1.1797e-06
1.73931e-07
1.0944e-06
1.7067e-07
1.01167e-06
1.65884e-07
9.31209e-07
1.61007e-07
8.52883e-07
1.56171e-07
7.76681e-07
1.52382e-07
7.02614e-07
1.48364e-07
6.30781e-07
1.43883e-07
5.61237e-07
1.39433e-07
4.93872e-07
1.34882e-07
4.28642e-07
1.30386e-07
3.65602e-07
1.26024e-07
3.04731e-07
1.21758e-07
2.45938e-07
1.17661e-07
1.8916e-07
1.13655e-07
1.34405e-07
1.09603e-07
8.1625e-08
1.05474e-07
3.07828e-08
1.01438e-07
-1.81342e-08
9.78939e-08
-6.52556e-08
9.44571e-08
-1.10651e-07
9.09587e-08
-1.54219e-07
8.73344e-08
-1.96039e-07
8.36788e-08
-2.3621e-07
8.02266e-08
-2.74825e-07
7.72583e-08
-3.11868e-07
7.42623e-08
-3.47391e-07
7.12824e-08
-3.81447e-07
6.80631e-08
-4.14122e-07
6.51617e-08
-4.45495e-07
6.28039e-08
-4.75483e-07
6.0167e-08
-5.042e-07
5.75904e-08
-5.31701e-07
5.49932e-08
-5.58e-07
5.25751e-08
-5.83144e-07
5.04858e-08
-6.07128e-07
4.82269e-08
-6.30129e-07
4.60563e-08
-6.52226e-07
4.40087e-08
-6.7334e-07
4.21501e-08
-6.93315e-07
4.01369e-08
-7.12358e-07
3.8265e-08
-7.30597e-07
3.65901e-08
-7.47952e-07
3.47214e-08
-7.64558e-07
3.31441e-08
-7.80404e-07
3.17505e-08
-7.95382e-07
3.01398e-08
-8.09648e-07
2.8705e-08
-8.23216e-07
2.72684e-08
-8.36057e-07
2.57155e-08
-8.48233e-07
2.43756e-08
-8.59769e-07
2.31323e-08
-8.70736e-07
2.19676e-08
-8.8111e-07
2.07056e-08
-8.90933e-07
1.95718e-08
-9.00209e-07
1.85782e-08
-9.08879e-07
1.74811e-08
-9.17076e-07
1.65337e-08
-9.24833e-07
1.55872e-08
-9.32124e-07
1.45366e-08
-9.38963e-07
1.35979e-08
-9.45373e-07
1.27928e-08
-9.51415e-07
1.20829e-08
-9.57121e-07
1.14092e-08
-9.62362e-07
1.05547e-08
-9.67223e-07
9.80315e-09
-9.71743e-07
9.0714e-09
-9.75906e-07
8.34546e-09
-9.79723e-07
7.74933e-09
-9.83211e-07
7.0864e-09
-9.86376e-07
6.29712e-09
-9.89277e-07
5.65614e-09
-9.9189e-07
5.25643e-09
-9.9415e-07
4.55527e-09
-9.96079e-07
3.87225e-09
-9.97753e-07
3.41523e-09
-9.99093e-07
2.81957e-09
-1.00023e-06
2.29585e-09
-1.00102e-06
1.61114e-09
-1.00162e-06
1.15584e-09
-1.00187e-06
5.22924e-10
-1.00199e-06
2.01686e-10
-1.00177e-06
-3.21702e-10
-1.00149e-06
-4.93636e-10
-1.00075e-06
-1.18839e-09
-1.0001e-06
-1.1182e-09
-9.99028e-07
-1.87367e-09
-9.98107e-07
-1.76086e-09
-9.97487e-07
-1.60289e-09
-9.96581e-07
-2.02306e-09
-9.95932e-07
-1.98753e-09
-9.94073e-07
-3.54975e-09
-9.9235e-07
-3.32161e-09
-9.88984e-07
-5.40015e-09
-9.85967e-07
-5.65153e-09
-9.85086e-07
-3.56352e-09
-9.83894e-07
-5.13724e-09
-9.8141e-07
-6.7178e-09
-9.78206e-07
-5.34102e-09
-9.64214e-07
-1.74766e-08
-9.52267e-07
-1.61023e-08
-9.57178e-07
1.86518e-09
-9.61541e-07
-8.93625e-09
-9.79064e-07
5.06735e-09
-1.003e-06
2.64792e-08
-1.05938e-06
4.88824e-08
-1.1102e-06
5.72082e-08
-1.12863e-06
4.10711e-08
-1.13328e-06
5.70806e-08
-1.12667e-06
4.57432e-08
-1.1305e-06
2.64135e-08
-1.13075e-06
2.01035e-08
-1.13463e-06
1.3212e-08
-1.13623e-06
8.34723e-09
-1.13857e-06
5.35621e-09
-1.13865e-06
2.56612e-09
-1.13808e-06
-1.96931e-11
-1.13069e-06
-7.78784e-09
-1.1237e-06
-9.82287e-09
-1.12474e-06
-1.53642e-09
-1.12522e-06
-8.51492e-09
-1.13107e-06
-3.26067e-09
-1.13976e-06
6.72377e-09
-1.16304e-06
1.5708e-08
-1.18381e-06
1.92569e-08
-1.18685e-06
9.46777e-09
-1.1839e-06
1.69372e-08
-1.17436e-06
9.99457e-09
-1.17189e-06
2.19033e-09
-1.16423e-06
-4.43597e-09
-1.16012e-06
-4.77263e-09
-1.148e-06
-1.51979e-08
-1.1408e-06
-9.98539e-09
-1.13449e-06
-1.1822e-08
-1.1326e-06
-7.22996e-09
-1.13055e-06
-1.24192e-08
-1.12831e-06
-1.33146e-08
-1.1247e-06
-1.05879e-08
-1.08207e-06
-5.3069e-08
-1.04402e-06
-4.71725e-08
-1.04701e-06
-2.41288e-09
-1.05031e-06
-3.7662e-08
-1.13355e-06
4.63524e-08
-1.23072e-06
9.82376e-08
-1.54187e-06
2.80121e-07
-1.83656e-06
3.50247e-07
-2.0334e-06
2.79897e-07
-2.11883e-06
3.63369e-07
-2.10579e-06
2.71594e-07
-2.11838e-06
1.98885e-07
-2.14496e-06
1.55561e-07
-2.17644e-06
1.2055e-07
-2.20757e-06
9.53272e-08
-2.23623e-06
7.63019e-08
-2.26152e-06
6.17351e-08
-2.28315e-06
5.01781e-08
-2.30131e-06
4.08706e-08
-2.31641e-06
3.33638e-08
-2.32885e-06
2.7203e-08
-2.33894e-06
2.19573e-08
-2.34698e-06
1.7439e-08
-2.35324e-06
1.35848e-08
-2.35792e-06
1.03001e-08
-2.36115e-06
7.42424e-09
-2.36305e-06
4.82339e-09
-2.36362e-06
2.32108e-09
-2.36323e-06
1.71741e-10
-2.36192e-06
-1.7944e-09
-2.35977e-06
-3.53005e-09
-2.3569e-06
-5.03469e-09
-2.3534e-06
-6.36217e-09
-2.3493e-06
-7.57917e-09
-2.34462e-06
-8.75164e-09
-2.33945e-06
-9.8763e-09
-2.33377e-06
-1.09819e-08
-2.32742e-06
-1.21782e-08
-2.32054e-06
-1.32845e-08
-2.31315e-06
-1.43755e-08
-2.30526e-06
-1.54708e-08
-2.2969e-06
-1.65634e-08
-2.28809e-06
-1.76324e-08
-2.27886e-06
-1.86427e-08
-2.26924e-06
-1.95631e-08
-2.25925e-06
-2.03942e-08
-2.24891e-06
-2.11204e-08
-2.23807e-06
-2.18209e-08
-2.22703e-06
-2.22882e-08
-2.21583e-06
-2.26659e-08
-2.20444e-06
-2.29884e-08
-2.19292e-06
-2.32047e-08
-2.18131e-06
-2.33152e-08
-2.16963e-06
-2.33664e-08
-2.15787e-06
-2.34299e-08
-2.14598e-06
-2.35693e-08
-2.13393e-06
-2.38106e-08
-2.12171e-06
-2.41394e-08
-2.10933e-06
-2.45321e-08
-2.09677e-06
-2.49826e-08
-2.08401e-06
-2.5489e-08
-2.07104e-06
-2.59991e-08
-2.05789e-06
-2.63667e-08
-2.04469e-06
-2.64293e-08
-2.03156e-06
-2.61893e-08
-2.0185e-06
-2.59221e-08
-2.00535e-06
-2.59957e-08
-1.99202e-06
-2.64844e-08
-1.97864e-06
-2.69849e-08
-1.96539e-06
-2.69705e-08
-1.9524e-06
-2.62958e-08
-1.93981e-06
-2.53629e-08
-1.92671e-06
-2.54341e-08
-1.91316e-06
-2.62499e-08
-1.89962e-06
-2.68935e-08
-1.88649e-06
-2.65875e-08
-1.87373e-06
-2.56947e-08
-1.86056e-06
-2.56491e-08
-1.84669e-06
-2.68301e-08
-1.8329e-06
-2.76715e-08
-1.81957e-06
-2.73812e-08
-1.80633e-06
-2.68677e-08
-1.79238e-06
-2.76065e-08
-1.77856e-06
-2.83285e-08
-1.76521e-06
-2.80206e-08
-1.75219e-06
-2.69125e-08
-1.73894e-06
-2.65426e-08
-1.72563e-06
-2.67914e-08
-1.71166e-06
-2.71188e-08
-1.69719e-06
-2.74282e-08
-2.09968e-08
-0.000103305
-1.16287e-05
-0.000103749
1.31056e-06
-0.000104216
1.34713e-06
-0.000104707
1.44941e-06
-0.000105247
1.60317e-06
-0.000105858
1.70372e-06
-0.000106541
1.83036e-06
-0.000107282
1.93103e-06
-0.000108046
2.03297e-06
-0.000108816
2.0749e-06
-0.000109586
2.1472e-06
-0.000110345
2.17016e-06
-0.000111097
2.20242e-06
-0.00011185
2.19808e-06
-0.000112595
2.1512e-06
-0.000113338
2.07838e-06
-0.000114082
1.94224e-06
-0.000114824
1.84811e-06
-0.000115503
1.82e-06
-0.000116089
1.86451e-06
-0.000116545
1.86052e-06
-0.000116972
1.74906e-06
-0.000117423
1.52917e-06
-0.000117963
1.28291e-06
-0.000118493
1.20935e-06
-0.000118962
1.20458e-06
-0.000119327
1.13976e-06
-0.000119607
9.27751e-07
-0.00011976
6.27068e-07
-0.000119843
5.61042e-07
-0.000119883
6.87211e-07
-0.00012004
9.25962e-07
-0.000120362
9.78906e-07
-0.000120759
7.47498e-07
-0.000120894
1.83163e-07
-0.000120752
-2.5022e-07
-0.000120459
-3.85491e-07
-0.000120154
-3.17456e-07
-0.000120025
-2.4981e-07
-0.000120018
-5.523e-07
-0.000119899
-9.20273e-07
-0.000119643
-1.01042e-06
-0.000119156
-8.67521e-07
-0.000118568
-7.18761e-07
-0.000118017
-8.1217e-07
-0.000117613
-1.21457e-06
-0.000117295
-1.63534e-06
-0.000116955
-1.81451e-06
-0.000116502
-1.79558e-06
-0.000115926
-1.69224e-06
-0.00011524
-1.63633e-06
-0.000114553
-1.62337e-06
-0.000113965
-1.80156e-06
-0.000113427
-2.19899e-06
-0.000112786
-2.54625e-06
-0.000112033
-2.56296e-06
-0.00011113
-2.53992e-06
-0.000110139
-2.79588e-06
-0.00010912
-3.33438e-06
-0.000108111
-3.70236e-06
-0.000107045
-3.61864e-06
-0.000105853
-3.33178e-06
-0.000104473
-3.30366e-06
-0.000102948
-3.81316e-06
-0.000101473
-4.3962e-06
-0.000100172
-4.41475e-06
-9.89804e-05
-4.1438e-06