/*--------------------------------*- C++ -*----------------------------------*\
| =========                 |                                                 |
| \\      /  F ield         | OpenFOAM: The Open Source CFD Toolbox           |
|  \\    /   O peration     | Version:  v2006                                 |
|   \\  /    A nd           | Website:  www.openfoam.com                      |
|    \\/     M anipulation  |                                                 |
\*---------------------------------------------------------------------------*/
FoamFile
{
    version     2.0;
    format      ascii;
    class       volVectorField;
    location    "3.7";
    object      U;
}
// * * * * * * * * * * * * * * * * * * * * * * * * * * * * * * * * * * * * * //

dimensions      [0 1 -1 0 0 0 0];


internalField   nonuniform List<vector> 
33000
(
(-0.268795 0 -0.00789615)
(-0.260916 0 0.00114828)
(-0.25986 0 0.0011034)
(-0.261234 0 0.00138829)
(-0.262775 0 0.00153052)
(-0.264254 0 0.00133137)
(-0.265533 0 0.00111936)
(-0.266812 0 0.00100719)
(-0.268123 0 0.00106234)
(-0.269641 0 0.00115085)
(-0.27115 0 0.00137062)
(-0.272891 0 0.00154439)
(-0.274563 0 0.00167605)
(-0.27655 0 0.00175175)
(-0.27832 0 0.00160028)
(-0.280157 0 0.00141769)
(-0.281595 0 0.0010369)
(-0.28284 0 0.00086968)
(-0.283938 0 0.00101002)
(-0.285347 0 0.00154462)
(-0.28718 0 0.00203312)
(-0.289363 0 0.00196109)
(-0.291331 0 0.00142322)
(-0.292457 0 0.00066719)
(-0.293045 0 0.000409375)
(-0.293534 0 0.000454231)
(-0.294244 0 0.000732373)
(-0.29524 0 0.000742735)
(-0.295998 0 0.000782814)
(-0.296714 0 0.00109434)
(-0.297755 0 0.00137291)
(-0.299098 0 0.00105887)
(-0.300093 0 0.000175084)
(-0.300287 0 -0.000340799)
(-0.300024 0 -0.000261148)
(-0.299825 0 0.000623276)
(-0.300143 0 0.000828865)
(-0.300703 0 0.00059789)
(-0.300904 0 -0.000341071)
(-0.300321 0 -0.00126381)
(-0.298719 0 -0.00127482)
(-0.297233 0 -0.000158763)
(-0.297047 0 0.000392289)
(-0.297386 0 0.000475061)
(-0.297799 0 -4.78596e-05)
(-0.297384 0 -0.00109086)
(-0.295567 0 -0.00161655)
(-0.293187 0 -0.00151712)
(-0.291381 0 -0.00118877)
(-0.289883 0 -0.001123)
(-0.288681 0 -0.000875448)
(-0.28786 0 -0.000793137)
(-0.286669 0 -0.00135786)
(-0.284629 0 -0.00193711)
(-0.281894 0 -0.00205421)
(-0.279218 0 -0.00187268)
(-0.277184 0 -0.00152838)
(-0.27538 0 -0.00177561)
(-0.272786 0 -0.00233914)
(-0.269143 0 -0.00282351)
(-0.265299 0 -0.00259405)
(-0.262386 0 -0.00188719)
(-0.260433 0 -0.00146758)
(-0.25836 0 -0.00172021)
(-0.255268 0 -0.0024978)
(-0.251289 0 -0.00314077)
(-0.247044 0 -0.00332463)
(-0.243344 0 -0.00311301)
(-0.23994 0 -0.003203)
(-0.235458 0 -0.00421653)
(-0.22954 0 -0.00551048)
(-0.222246 0 -0.00708751)
(-0.213355 0 -0.00869966)
(-0.20334 0 -0.0111995)
(-0.190595 0 -0.0144763)
(-0.172657 0 -0.0198788)
(-0.148394 0 -0.0255385)
(-0.135518 0 -0.03105)
(-0.101932 0 -0.0081111)
(-0.0886394 0 0.00710118)
(-0.0851724 0 0.0115533)
(-0.084884 0 0.0113722)
(-0.0908363 0 -0.0005677)
(-0.091318 0 -0.00424099)
(-0.0953712 0 -0.00349173)
(-0.0964738 0 -0.00189746)
(-0.0946571 0 7.4347e-05)
(-0.0936093 0 0.00133485)
(-0.0920896 0 0.00104527)
(-0.0915532 0 -0.000134714)
(-0.0905773 0 -0.000754204)
(-0.0901377 0 -0.000839539)
(-0.0892646 0 -0.000730556)
(-0.0878591 0 -0.00122317)
(-0.0862796 0 -0.00152921)
(-0.0837556 0 -0.00215649)
(-0.0818276 0 -0.00319873)
(-0.0766593 0 -0.00527767)
(-0.0744174 0 -0.00873402)
(-0.06343 0 -0.00554169)
(-0.0647376 0 0.000684834)
(-0.0625051 0 0.00416047)
(-0.0637411 0 0.00425282)
(-0.0636958 0 0.000862829)
(-0.0642806 0 -6.78124e-05)
(-0.0653057 0 -0.000809316)
(-0.065461 0 -0.000737786)
(-0.0652193 0 -0.0006098)
(-0.064984 0 -0.000234907)
(-0.0645647 0 -2.40689e-05)
(-0.0642432 0 -0.000232673)
(-0.0636497 0 -0.000413124)
(-0.0630072 0 -0.000820754)
(-0.0618567 0 -0.00126278)
(-0.0607482 0 -0.00208192)
(-0.0576515 0 -0.00295425)
(-0.0563372 0 -0.00502987)
(-0.0489029 0 -0.00292372)
(-0.0492587 0 0.00039078)
(-0.0477523 0 0.00205556)
(-0.0482936 0 0.00176525)
(-0.0480551 0 -0.000179566)
(-0.0480239 0 -0.000373854)
(-0.0483626 0 -0.000426588)
(-0.0481431 0 -0.000290192)
(-0.0477157 0 -0.000180214)
(-0.0474114 0 -0.000250918)
(-0.0469405 0 -0.000392069)
(-0.0464193 0 -0.000431296)
(-0.0458765 0 -0.000451232)
(-0.0452518 0 -0.000524563)
(-0.0445328 0 -0.000581784)
(-0.0437528 0 -0.00065037)
(-0.0429208 0 -0.000679927)
(-0.0420316 0 -0.000725466)
(-0.0410819 0 -0.000763248)
(-0.0400567 0 -0.000813949)
(-0.0389806 0 -0.000849863)
(-0.0378587 0 -0.000889998)
(-0.0366819 0 -0.000945107)
(-0.0354398 0 -0.000984748)
(-0.0341686 0 -0.00100465)
(-0.0328736 0 -0.00103133)
(-0.0315223 0 -0.00108383)
(-0.0301023 0 -0.00112941)
(-0.0286519 0 -0.00114813)
(-0.0271888 0 -0.00116108)
(-0.0256973 0 -0.00117739)
(-0.0241716 0 -0.00121717)
(-0.0225908 0 -0.00126031)
(-0.0209806 0 -0.00127465)
(-0.0193709 0 -0.00126523)
(-0.0177748 0 -0.00125171)
(-0.0161693 0 -0.00127257)
(-0.0145319 0 -0.00130058)
(-0.0128688 0 -0.00131717)
(-0.0112049 0 -0.00129637)
(-0.00959625 0 -0.00126034)
(-0.00799387 0 -0.00125977)
(-0.0063945 0 -0.00126098)
(-0.00479684 0 -0.00125196)
(-0.00323317 0 -0.00120596)
(-0.00173528 0 -0.00117179)
(-0.000255188 0 -0.00115888)
(0.00120401 0 -0.00113667)
(0.00263047 0 -0.00109613)
(0.00399254 0 -0.00105024)
(0.00531087 0 -0.0010313)
(0.00661658 0 -0.00101631)
(0.00789688 0 -0.000987455)
(0.00912876 0 -0.000945691)
(0.010308 0 -0.000914973)
(0.0114648 0 -0.000901144)
(0.0126044 0 -0.000884384)
(0.0137151 0 -0.000855297)
(0.0147788 0 -0.000817261)
(0.0158039 0 -0.000792578)
(0.0168045 0 -0.000774702)
(0.01778 0 -0.000758355)
(0.018732 0 -0.000734574)
(0.0196461 0 -0.000702044)
(0.0205244 0 -0.000674094)
(0.0213738 0 -0.000656237)
(0.0222003 0 -0.000640833)
(0.0230024 0 -0.000615506)
(0.023763 0 -0.000580999)
(0.024487 0 -0.000562328)
(0.0251977 0 -0.00055158)
(0.0258865 0 -0.000527022)
(0.0265378 0 -0.000496521)
(0.0271561 0 -0.000472347)
(0.027746 0 -0.000453622)
(0.0283113 0 -0.000435511)
(0.028848 0 -0.000412232)
(0.0293565 0 -0.000388722)
(0.0298361 0 -0.000364716)
(0.0302899 0 -0.00034581)
(0.0307187 0 -0.000322263)
(0.0311123 0 -0.000299825)
(0.0314807 0 -0.000282399)
(0.031829 0 -0.00026693)
(0.0321576 0 -0.000246381)
(0.032455 0 -0.000219848)
(0.0327191 0 -0.000197526)
(0.0329581 0 -0.000176506)
(0.0331728 0 -0.000160993)
(0.0333703 0 -0.000147951)
(0.0335477 0 -0.000129275)
(0.0336965 0 -0.000106206)
(0.0338177 0 -8.61347e-05)
(0.0339176 0 -7.18067e-05)
(0.0340019 0 -5.84885e-05)
(0.034064 0 -3.89947e-05)
(0.0340994 0 -1.8136e-05)
(0.0341134 0 -3.33326e-06)
(0.0341099 0 7.74447e-06)
(0.0340932 0 1.82436e-05)
(0.0340603 0 3.35757e-05)
(0.0340055 0 5.42631e-05)
(0.0339257 0 7.21478e-05)
(0.0338258 0 8.18325e-05)
(0.033717 0 8.8671e-05)
(0.0335981 0 9.77481e-05)
(0.0334659 0 0.000111074)
(0.0333137 0 0.000128193)
(0.0331422 0 0.000138894)
(0.0329609 0 0.000148238)
(0.0327666 0 0.000158025)
(0.0325595 0 0.00016421)
(0.0323477 0 0.000169342)
(0.0321252 0 0.000182953)
(0.0318833 0 0.000194457)
(0.0316332 0 0.000201224)
(0.0313729 0 0.000206608)
(0.0311076 0 0.000208181)
(0.0308399 0 0.0002159)
(0.0305589 0 0.000227032)
(0.0302672 0 0.000232751)
(0.0299682 0 0.000234966)
(0.029667 0 0.000238413)
(0.0293582 0 0.000245928)
(0.0290428 0 0.000250201)
(0.0287237 0 0.000252304)
(0.0284021 0 0.000257258)
(0.0280713 0 0.000259808)
(0.027742 0 0.000258733)
(0.0274104 0 0.000267823)
(0.0270648 0 0.00027052)
(0.0267215 0 0.000267537)
(0.0263827 0 0.000269218)
(0.0260375 0 0.00027414)
(0.0256893 0 0.00027694)
(0.0253367 0 0.000276956)
(0.0249852 0 0.000274575)
(0.0246362 0 0.000280199)
(0.0242787 0 0.000280978)
(0.0239228 0 0.00027696)
(0.0235722 0 0.000276251)
(0.023218 0 0.000279656)
(0.0228607 0 0.000283015)
(0.0225022 0 0.000282038)
(0.0221485 0 0.000276216)
(0.0217991 0 0.00027709)
(0.0214445 0 0.000279825)
(0.0210881 0 0.000280827)
(0.0207321 0 0.000281136)
(0.0203757 0 0.000281434)
(0.0200216 0 0.000275761)
(0.0196748 0 0.000272697)
(0.0193281 0 0.000273598)
(0.0189801 0 0.000276426)
(0.0186288 0 0.000278035)
(0.0182768 0 0.000276534)
(0.0179277 0 0.000273786)
(0.0175805 0 0.00027169)
(0.017237 0 0.000270573)
(0.0168939 0 0.000271561)
(0.0165495 0 0.00027206)
(0.0162056 0 0.000270067)
(0.0158649 0 0.000266988)
(0.0155269 0 0.000270261)
(0.0151821 0 0.000270824)
(0.0148405 0 0.00026753)
(0.0145031 0 0.000264039)
(0.0141696 0 0.000261503)
(0.0138377 0 0.000261857)
(0.0135055 0 0.000263295)
(0.0131705 0 0.000263569)
(0.0128371 0 0.000262074)
(0.0125059 0 0.000260283)
(0.0121772 0 0.0002558)
(0.0118549 0 0.000253726)
(0.011532 0 0.000255438)
(0.0112066 0 0.000255846)
(0.0108833 0 0.00025404)
(0.0105626 0 0.000252471)
(0.0102432 0 0.00024934)
(0.00992855 0 0.000246944)
(0.00961482 0 0.000246989)
(0.00930135 0 0.000245916)
(0.00899124 0 0.000244134)
(0.00868199 0 0.000241605)
(0.00837801 0 0.000237776)
(0.00807686 0 0.000236856)
(0.00777593 0 0.000235332)
(0.00747984 0 0.000232813)
(0.00718507 0 0.000228285)
(0.00689928 0 0.000224201)
(0.00661375 0 0.000224065)
(0.00632965 0 0.000221498)
(0.00605129 0 0.000218122)
(0.0057759 0 0.000213495)
(0.00550783 0 0.000209426)
(0.00524234 0 0.00020705)
(0.00498128 0 0.000203884)
(0.00472433 0 0.000199996)
(0.00447286 0 0.000195146)
(0.0042274 0 0.00019108)
(0.00398584 0 0.000188446)
(0.00374833 0 0.000184736)
(0.00351673 0 0.000180351)
(0.00328997 0 0.000174751)
(0.0030717 0 0.000170077)
(0.00285607 0 0.000167735)
(0.00264488 0 0.000163832)
(0.00243996 0 0.000158466)
(0.00224217 0 0.000152672)
(0.0020504 0 0.000149701)
(0.00186126 0 0.000146164)
(0.00167871 0 0.000141724)
(0.00150093 0 0.000137577)
(0.00132913 0 0.000132801)
(0.00116327 0 0.000128014)
(0.00100323 0 0.000123779)
(0.000848279 0 0.000119681)
(0.000698698 0 0.000115755)
(0.000553881 0 0.000111862)
(0.000414259 0 0.000107851)
(0.000279582 0 0.000103486)
(0.000150772 0 9.9236e-05)
(2.65098e-05 0 9.62991e-05)
(-9.40942e-05 0 9.31501e-05)
(-0.000210212 0 8.9603e-05)
(-0.000321893 0 8.61033e-05)
(-0.000429061 0 8.22704e-05)
(-0.000531151 0 7.86187e-05)
(-0.000629382 0 7.59328e-05)
(-0.000724297 0 7.3246e-05)
(-0.000815507 0 7.04357e-05)
(-0.000903017 0 6.67948e-05)
(-0.000985544 0 6.36583e-05)
(-0.00106544 0 6.17265e-05)
(-0.00114264 0 5.94029e-05)
(-0.00121632 0 5.68089e-05)
(-0.00128696 0 5.39975e-05)
(-0.00135375 0 5.16113e-05)
(-0.00141834 0 4.99094e-05)
(-0.0014804 0 4.78135e-05)
(-0.00153954 0 4.53477e-05)
(-0.00159563 0 4.29103e-05)
(-0.0016491 0 4.12207e-05)
(-0.00170077 0 3.9715e-05)
(-0.00174989 0 3.79003e-05)
(-0.00179688 0 3.61295e-05)
(-0.00184161 0 3.41768e-05)
(-0.00188372 0 3.24569e-05)
(-0.00192428 0 3.12514e-05)
(-0.00196322 0 2.99205e-05)
(-0.00200007 0 2.85302e-05)
(-0.00203541 0 2.70483e-05)
(-0.00206855 0 2.53532e-05)
(-0.00209979 0 2.40148e-05)
(-0.00212953 0 2.28597e-05)
(-0.00215777 0 2.16721e-05)
(-0.00218452 0 2.03146e-05)
(-0.00220944 0 1.91536e-05)
(-0.00223326 0 1.83026e-05)
(-0.00225595 0 1.74352e-05)
(-0.00227732 0 1.65135e-05)
(-0.00229763 0 1.54761e-05)
(-0.00231647 0 1.42292e-05)
(-0.00233386 0 1.32285e-05)
(-0.00235027 0 1.25209e-05)
(-0.00236578 0 1.18232e-05)
(-0.00238047 0 1.11091e-05)
(-0.00239429 0 1.03704e-05)
(-0.00240704 0 9.69427e-06)
(-0.002419 0 8.78905e-06)
(-0.00242978 0 8.12875e-06)
(-0.00243993 0 7.57762e-06)
(-0.0024494 0 7.03873e-06)
(-0.00245794 0 5.83516e-06)
(-0.00246503 0 5.15488e-06)
(-0.00247175 0 4.77125e-06)
(-0.00247821 0 4.38126e-06)
(-0.00248324 0 3.30837e-06)
(-0.00248792 0 3.31362e-06)
(-0.00249192 0 2.37212e-06)
(-0.00249532 0 2.0759e-06)
(-0.00249767 0 7.9365e-07)
(-0.00249948 0 7.21833e-07)
(-0.00250037 0 -4.84e-07)
(-0.00250092 0 -3.14058e-07)
(-0.00250067 0 -1.18528e-06)
(-0.00250055 0 -1.10491e-06)
(-0.00249947 0 -1.78109e-06)
(-0.00249845 0 -2.14846e-06)
(-0.00249697 0 -1.79631e-06)
(-0.00249458 0 -2.81243e-06)
(-0.00249263 0 6.45487e-08)
(-0.00248977 0 -2.71964e-06)
(-0.00248697 0 8.64963e-07)
(-0.00248311 0 -4.59438e-06)
(-0.00247848 0 -5.94449e-07)
(-0.00247517 0 -6.77372e-06)
(-0.00246821 0 -7.06295e-07)
(-0.00246213 0 -4.68071e-06)
(-0.00245462 0 1.39936e-06)
(-0.00244252 0 -1.02123e-05)
(-0.00243342 0 -6.47478e-06)
(-0.00243196 0 -2.31209e-05)
(-0.00241555 0 -8.41139e-06)
(-0.00241199 0 2.51383e-06)
(-0.00239925 0 1.98816e-05)
(-0.00234608 0 -4.06014e-06)
(-0.00233751 0 -1.99717e-05)
(-0.00235827 0 -0.000119599)
(-0.00229879 0 -8.73216e-05)
(-0.00239488 0 4.03188e-05)
(-0.00240393 0 0.000141719)
(-0.0026622 0 0.000177513)
(-0.00266896 0 6.40244e-05)
(-0.00276867 0 6.58302e-05)
(-0.00277264 0 2.90791e-05)
(-0.0028124 0 2.49199e-05)
(-0.00280838 0 1.40225e-05)
(-0.00282632 0 1.9104e-06)
(-0.0028214 0 2.59882e-06)
(-0.00282901 0 -1.39868e-05)
(-0.00281901 0 -3.49756e-06)
(-0.00281559 0 -8.02213e-06)
(-0.00280526 0 7.18795e-06)
(-0.00277124 0 -1.58134e-05)
(-0.00275973 0 -1.37074e-05)
(-0.00276132 0 -7.64373e-05)
(-0.00272099 0 -4.88294e-05)
(-0.0027565 0 1.37916e-06)
(-0.00274852 0 6.23707e-05)
(-0.00285845 0 6.29945e-05)
(-0.00284941 0 1.89933e-05)
(-0.00287614 0 7.69555e-06)
(-0.00287023 0 -4.9451e-06)
(-0.00286858 0 -1.21497e-05)
(-0.00285887 0 -1.91492e-05)
(-0.00285087 0 -4.84601e-07)
(-0.0028349 0 -2.13064e-05)
(-0.00282083 0 1.40753e-05)
(-0.00278605 0 -3.63826e-05)
(-0.00276274 0 5.59387e-06)
(-0.00275386 0 -8.23209e-05)
(-0.0027075 0 -7.69833e-06)
(-0.00271182 0 -3.49307e-05)
(-0.00267663 0 7.34042e-05)
(-0.00250967 0 -2.22644e-05)
(-0.00249138 0 2.13484e-05)
(-0.00251607 0 -0.000399076)
(-0.00233212 0 -0.000236239)
(-0.00280534 0 -5.82835e-05)
(-0.00272948 0 0.000439116)
(-0.00420776 0 0.000851207)
(-0.00432669 0 0.000538375)
(-0.00486298 0 0.0003488)
(-0.00507963 0 0.000225655)
(-0.00527448 0 0.000154069)
(-0.00541195 0 0.00010929)
(-0.00551677 0 8.06926e-05)
(-0.00559791 0 6.17142e-05)
(-0.00566201 0 4.83845e-05)
(-0.00571327 0 3.84997e-05)
(-0.00575461 0 3.08975e-05)
(-0.00578799 0 2.47519e-05)
(-0.00581462 0 1.9625e-05)
(-0.00583558 0 1.52757e-05)
(-0.00585181 0 1.17119e-05)
(-0.00586414 0 8.77451e-06)
(-0.00587309 0 6.20355e-06)
(-0.00587899 0 3.79811e-06)
(-0.00588193 0 1.65286e-06)
(-0.00588205 0 -3.46162e-07)
(-0.00587974 0 -2.17069e-06)
(-0.00587533 0 -3.8014e-06)
(-0.00586907 0 -5.24067e-06)
(-0.00586116 0 -6.51377e-06)
(-0.00585174 0 -7.67806e-06)
(-0.0058408 0 -9.0741e-06)
(-0.00582831 0 -1.03342e-05)
(-0.00581442 0 -1.12304e-05)
(-0.00579914 0 -1.23525e-05)
(-0.00578242 0 -1.35402e-05)
(-0.00576422 0 -1.47382e-05)
(-0.00574451 0 -1.60107e-05)
(-0.00572327 0 -1.73176e-05)
(-0.00570048 0 -1.85794e-05)
(-0.00567625 0 -1.97157e-05)
(-0.0056508 0 -2.06323e-05)
(-0.00562432 0 -2.13654e-05)
(-0.00559713 0 -2.17481e-05)
(-0.00556935 0 -2.22708e-05)
(-0.00554094 0 -2.26773e-05)
(-0.0055121 0 -2.2892e-05)
(-0.00548299 0 -2.30173e-05)
(-0.00545375 0 -2.30488e-05)
(-0.00542451 0 -2.29902e-05)
(-0.00539532 0 -2.29035e-05)
(-0.00536615 0 -2.28772e-05)
(-0.00533686 0 -2.29934e-05)
(-0.00530726 0 -2.32965e-05)
(-0.00527718 0 -2.37734e-05)
(-0.00524647 0 -2.438e-05)
(-0.00521501 0 -2.5054e-05)
(-0.0051828 0 -2.56906e-05)
(-0.00514996 0 -2.61073e-05)
(-0.00511687 0 -2.61125e-05)
(-0.00508398 0 -2.56937e-05)
(-0.00505161 0 -2.51843e-05)
(-0.00501953 0 -2.50474e-05)
(-0.00498704 0 -2.56855e-05)
(-0.00495354 0 -2.67725e-05)
(-0.00491926 0 -2.71914e-05)
(-0.00488539 0 -2.64507e-05)
(-0.00485283 0 -2.52337e-05)
(-0.0048216 0 -2.38084e-05)
(-0.00479043 0 -2.42305e-05)
(-0.00475778 0 -2.58889e-05)
(-0.00472408 0 -2.64968e-05)
(-0.00469104 0 -2.56378e-05)
(-0.00465942 0 -2.4228e-05)
(-0.00462786 0 -2.47151e-05)
(-0.00459422 0 -2.70869e-05)
(-0.00455902 0 -2.79035e-05)
(-0.00452447 0 -2.70838e-05)
(-0.0044906 0 -2.65725e-05)
(-0.00445536 0 -2.8679e-05)
(-0.00441858 0 -2.9754e-05)
(-0.0043823 0 -2.80517e-05)
(-0.00435266 0 -2.60326e-05)
(-0.00434946 0 -2.65306e-05)
(-0.00408306 0 -2.53912e-05)
(-0.00477681 0 -2.43258e-05)
(-0.0031734 0 -1.48912e-05)
(-0.269912 0 -0.0226702)
(-0.261601 0 0.00251085)
(-0.260535 0 0.00255706)
(-0.261691 0 0.0028744)
(-0.262795 0 0.00320673)
(-0.263971 0 0.00316701)
(-0.265208 0 0.00315515)
(-0.266829 0 0.00315246)
(-0.268513 0 0.00337993)
(-0.270399 0 0.00348663)
(-0.27217 0 0.00380641)
(-0.273997 0 0.0039728)
(-0.275733 0 0.00418944)
(-0.277535 0 0.00419347)
(-0.279215 0 0.00405011)
(-0.28097 0 0.00372897)
(-0.282567 0 0.00313732)
(-0.28433 0 0.0027647)
(-0.285832 0 0.00300819)
(-0.287486 0 0.00371311)
(-0.288888 0 0.00452339)
(-0.290257 0 0.00428013)
(-0.291559 0 0.00332833)
(-0.292599 0 0.00181019)
(-0.293686 0 0.00144971)
(-0.29486 0 0.00167656)
(-0.295937 0 0.00202087)
(-0.297059 0 0.00180873)
(-0.297608 0 0.00162275)
(-0.297955 0 0.00178833)
(-0.298082 0 0.00240104)
(-0.29864 0 0.00241406)
(-0.299789 0 0.0014722)
(-0.300962 0 7.25119e-05)
(-0.301555 0 -0.000160297)
(-0.30169 0 -4.69904e-05)
(-0.300636 0 0.000443558)
(-0.300264 0 0.000582798)
(-0.299908 0 -0.0005131)
(-0.299958 0 -0.0024272)
(-0.299864 0 -0.00290199)
(-0.29867 0 -0.00225056)
(-0.297386 0 -0.000360109)
(-0.296954 0 0.000416882)
(-0.29622 0 -0.000204749)
(-0.295517 0 -0.00251702)
(-0.29465 0 -0.00436944)
(-0.292825 0 -0.00483754)
(-0.291181 0 -0.00411954)
(-0.289516 0 -0.0032063)
(-0.288203 0 -0.00261082)
(-0.286948 0 -0.00248742)
(-0.285766 0 -0.00373754)
(-0.284224 0 -0.00535785)
(-0.282132 0 -0.0060809)
(-0.27964 0 -0.00561003)
(-0.277662 0 -0.00477145)
(-0.275783 0 -0.00534657)
(-0.273272 0 -0.00715016)
(-0.270241 0 -0.00851412)
(-0.266794 0 -0.00800144)
(-0.263989 0 -0.006221)
(-0.261703 0 -0.0050544)
(-0.258872 0 -0.00611136)
(-0.254976 0 -0.00845224)
(-0.250995 0 -0.00948765)
(-0.247338 0 -0.00932442)
(-0.244431 0 -0.00854912)
(-0.240986 0 -0.00903269)
(-0.236866 0 -0.0116648)
(-0.23223 0 -0.0148491)
(-0.226764 0 -0.0178325)
(-0.221396 0 -0.0212844)
(-0.215459 0 -0.0243227)
(-0.21015 0 -0.0295708)
(-0.204033 0 -0.0373737)
(-0.201088 0 -0.0460909)
(-0.196786 0 -0.052961)
(-0.180746 0 -0.0533879)
(-0.165556 0 -0.0303586)
(-0.153296 0 -0.0224614)
(-0.114555 0 -0.00143986)
(-0.0953075 0 0.00836016)
(-0.0883227 0 0.0116079)
(-0.0848155 0 0.0131283)
(-0.0874024 0 0.000977947)
(-0.0893692 0 -0.00441522)
(-0.0905219 0 -0.00577764)
(-0.0937822 0 -0.00451449)
(-0.0942806 0 -0.00248082)
(-0.0919909 0 -0.00156481)
(-0.0910152 0 -0.00102551)
(-0.0896765 0 -0.00280151)
(-0.0887806 0 -0.00353396)
(-0.0877544 0 -0.0045974)
(-0.0867911 0 -0.00528289)
(-0.0856334 0 -0.00660831)
(-0.0848154 0 -0.00826511)
(-0.0849149 0 -0.0101306)
(-0.0859048 0 -0.00731348)
(-0.0820826 0 -0.00484016)
(-0.0795086 0 -0.00574549)
(-0.0682394 0 -0.0032531)
(-0.0690524 0 -0.000527292)
(-0.0658187 0 0.00327616)
(-0.065559 0 0.0033115)
(-0.0646581 0 0.000498)
(-0.0641531 0 -4.00329e-05)
(-0.0643061 0 -0.00112976)
(-0.064955 0 -0.00122622)
(-0.0649288 0 -0.00137919)
(-0.0644241 0 -0.00152461)
(-0.0639667 0 -0.00184039)
(-0.0632882 0 -0.00250579)
(-0.0627896 0 -0.00372779)
(-0.0620625 0 -0.00538545)
(-0.0619125 0 -0.00729413)
(-0.0621025 0 -0.00658393)
(-0.0594668 0 -0.00405412)
(-0.0581164 0 -0.00350684)
(-0.0505999 0 -0.00178374)
(-0.0504842 0 -0.00054994)
(-0.0484227 0 0.00122419)
(-0.0481617 0 0.00090462)
(-0.0477381 0 -0.000870918)
(-0.0475161 0 -0.000950941)
(-0.0475786 0 -0.00104291)
(-0.0471341 0 -0.00120634)
(-0.0464719 0 -0.00121655)
(-0.0459144 0 -0.00135819)
(-0.0452676 0 -0.00159339)
(-0.0445483 0 -0.00177798)
(-0.0437876 0 -0.00188201)
(-0.0429527 0 -0.00203079)
(-0.0420391 0 -0.00215848)
(-0.0410621 0 -0.00234373)
(-0.0400248 0 -0.00248356)
(-0.0389539 0 -0.00260737)
(-0.0378373 0 -0.00271875)
(-0.036655 0 -0.00285865)
(-0.0354245 0 -0.00296689)
(-0.0341583 0 -0.00302856)
(-0.0328511 0 -0.00312767)
(-0.0314859 0 -0.00327318)
(-0.0300754 0 -0.0033876)
(-0.0286426 0 -0.00342995)
(-0.0271899 0 -0.00348514)
(-0.025685 0 -0.00356755)
(-0.0241383 0 -0.00366562)
(-0.0225676 0 -0.00376193)
(-0.0209885 0 -0.00378587)
(-0.019407 0 -0.00377851)
(-0.0178026 0 -0.00378051)
(-0.0161764 0 -0.00382941)
(-0.014535 0 -0.00389044)
(-0.0128902 0 -0.00391668)
(-0.0112681 0 -0.0038533)
(-0.00966372 0 -0.00378678)
(-0.00805399 0 -0.00378197)
(-0.00645352 0 -0.00376578)
(-0.00486883 0 -0.00372656)
(-0.00331983 0 -0.00360823)
(-0.00181028 0 -0.00351122)
(-0.000331447 0 -0.00346437)
(0.00112303 0 -0.00340221)
(0.00254817 0 -0.00329332)
(0.00392506 0 -0.00316195)
(0.00525599 0 -0.00309629)
(0.006564 0 -0.00304915)
(0.00784625 0 -0.00296326)
(0.00908262 0 -0.00284342)
(0.0102754 0 -0.0027552)
(0.0114413 0 -0.00270817)
(0.0125843 0 -0.00265136)
(0.0136913 0 -0.00256237)
(0.0147581 0 -0.00246179)
(0.0157965 0 -0.00239076)
(0.0168063 0 -0.00232801)
(0.0177834 0 -0.00226938)
(0.018729 0 -0.00219634)
(0.0196427 0 -0.00211212)
(0.0205323 0 -0.00204003)
(0.0213942 0 -0.00197563)
(0.0222235 0 -0.00191783)
(0.0230186 0 -0.00184)
(0.0237813 0 -0.00174966)
(0.0245148 0 -0.00169049)
(0.0252243 0 -0.00164923)
(0.0259093 0 -0.00157851)
(0.0265639 0 -0.00149821)
(0.0271895 0 -0.00142705)
(0.0277867 0 -0.00136159)
(0.0283503 0 -0.00129678)
(0.0288808 0 -0.00122943)
(0.0293866 0 -0.00116517)
(0.0298696 0 -0.0011008)
(0.0303291 0 -0.0010433)
(0.0307611 0 -0.000969269)
(0.0311573 0 -0.000896991)
(0.0315244 0 -0.000842805)
(0.03187 0 -0.000796165)
(0.0321951 0 -0.000737858)
(0.0324925 0 -0.000660309)
(0.0327569 0 -0.000592558)
(0.0329978 0 -0.000535157)
(0.0332178 0 -0.000485958)
(0.0334152 0 -0.000440578)
(0.0335879 0 -0.000382852)
(0.0337328 0 -0.000316507)
(0.0338543 0 -0.000260606)
(0.0339574 0 -0.000216644)
(0.0340404 0 -0.000171879)
(0.0340977 0 -0.000113336)
(0.0341323 0 -5.80458e-05)
(0.0341488 0 -1.32075e-05)
(0.0341465 0 2.5027e-05)
(0.0341269 0 5.99496e-05)
(0.0340882 0 0.000104462)
(0.0340326 0 0.000157824)
(0.0339557 0 0.000211689)
(0.0338577 0 0.000246866)
(0.0337485 0 0.000269478)
(0.0336255 0 0.000297997)
(0.0334874 0 0.000335505)
(0.0333343 0 0.000382514)
(0.0331647 0 0.000416172)
(0.0329832 0 0.000442776)
(0.0327891 0 0.000473527)
(0.0325819 0 0.000496154)
(0.0323647 0 0.000513117)
(0.032138 0 0.000547933)
(0.0318984 0 0.000580789)
(0.0316486 0 0.000601015)
(0.0313887 0 0.000621384)
(0.0311211 0 0.000630388)
(0.0308485 0 0.000646913)
(0.0305691 0 0.000674706)
(0.0302802 0 0.000696374)
(0.0299793 0 0.000710208)
(0.0296722 0 0.0007206)
(0.0293604 0 0.000736849)
(0.0290464 0 0.000747289)
(0.0287285 0 0.000755646)
(0.028404 0 0.000767872)
(0.0280745 0 0.000779507)
(0.0277437 0 0.000778453)
(0.0274094 0 0.000797941)
(0.0270662 0 0.000812566)
(0.0267208 0 0.000804839)
(0.0263786 0 0.000804885)
(0.0260326 0 0.000816743)
(0.0256844 0 0.000822948)
(0.0253339 0 0.000831276)
(0.0249795 0 0.000824091)
(0.0246286 0 0.000830767)
(0.0242762 0 0.000839092)
(0.0239217 0 0.000833624)
(0.0235672 0 0.000829919)
(0.0232073 0 0.000839366)
(0.0228486 0 0.000841097)
(0.0224953 0 0.000837916)
(0.0221427 0 0.000827692)
(0.0217892 0 0.000829986)
(0.0214338 0 0.000837224)
(0.0210777 0 0.000839711)
(0.0207207 0 0.000838078)
(0.0203663 0 0.000836237)
(0.0200138 0 0.00082533)
(0.0196646 0 0.000817897)
(0.0193154 0 0.000818187)
(0.0189653 0 0.000822982)
(0.0186147 0 0.000827289)
(0.0182647 0 0.000825787)
(0.017917 0 0.000820345)
(0.0175692 0 0.000814425)
(0.0172219 0 0.00080813)
(0.0168772 0 0.000809407)
(0.0165338 0 0.000809249)
(0.0161931 0 0.000806711)
(0.0158507 0 0.00079903)
(0.0155119 0 0.000803167)
(0.0151693 0 0.000808144)
(0.0148278 0 0.000799657)
(0.0144921 0 0.000790278)
(0.0141573 0 0.000784159)
(0.0138221 0 0.000782176)
(0.0134887 0 0.000784748)
(0.0131552 0 0.000787423)
(0.0128229 0 0.000781979)
(0.012494 0 0.000777082)
(0.012165 0 0.000766971)
(0.0118392 0 0.000760539)
(0.0115145 0 0.000763218)
(0.0111897 0 0.000763892)
(0.0108674 0 0.000757678)
(0.0105485 0 0.000753873)
(0.0102294 0 0.000746879)
(0.0099121 0 0.00074058)
(0.00959706 0 0.00073858)
(0.00928497 0 0.000734159)
(0.00897545 0 0.000728965)
(0.00866799 0 0.000722328)
(0.00836336 0 0.000712806)
(0.00806018 0 0.00070952)
(0.00776047 0 0.000702745)
(0.00746628 0 0.000695613)
(0.00717218 0 0.000684262)
(0.00688418 0 0.000673101)
(0.00659766 0 0.000671586)
(0.00631478 0 0.000661934)
(0.00603743 0 0.000652359)
(0.00576301 0 0.000640261)
(0.00549335 0 0.000629132)
(0.00522716 0 0.000620312)
(0.00496699 0 0.000610116)
(0.00471048 0 0.000598919)
(0.00445946 0 0.000585698)
(0.00421242 0 0.000574162)
(0.00397062 0 0.000564361)
(0.00373427 0 0.000552361)
(0.00350348 0 0.000539825)
(0.00327742 0 0.000524654)
(0.00305731 0 0.00051147)
(0.00284121 0 0.000503243)
(0.00263092 0 0.000489725)
(0.00242745 0 0.000474567)
(0.00222868 0 0.000459182)
(0.00203575 0 0.000449047)
(0.00184772 0 0.000437771)
(0.00166538 0 0.000424544)
(0.00148858 0 0.000411695)
(0.00131763 0 0.000397836)
(0.00115178 0 0.000384073)
(0.000991465 0 0.000371237)
(0.000836583 0 0.000358849)
(0.000687103 0 0.000346895)
(0.000542614 0 0.000335137)
(0.000403214 0 0.000323202)
(0.000268833 0 0.00031064)
(0.000139309 0 0.000298398)
(1.46129e-05 0 0.000288588)
(-0.000105276 0 0.000278826)
(-0.00022101 0 0.000268445)
(-0.000332227 0 0.000257804)
(-0.000438872 0 0.000246659)
(-0.000541309 0 0.000236133)
(-0.000639743 0 0.000227713)
(-0.000734368 0 0.000219199)
(-0.000824965 0 0.000210522)
(-0.000911982 0 0.000200415)
(-0.000995242 0 0.000191604)
(-0.00107536 0 0.000185228)
(-0.0011521 0 0.000177705)
(-0.00122531 0 0.000170042)
(-0.00129568 0 0.000162014)
(-0.0013628 0 0.000154844)
(-0.00142719 0 0.000149196)
(-0.0014885 0 0.000142653)
(-0.00154714 0 0.000135793)
(-0.00160349 0 0.000129264)
(-0.00165764 0 0.000124059)
(-0.00170904 0 0.00011869)
(-0.00175753 0 0.000113125)
(-0.00180425 0 0.000108049)
(-0.00184872 0 0.000102272)
(-0.00189103 0 9.74862e-05)
(-0.00193175 0 9.37128e-05)
(-0.00197025 0 8.91983e-05)
(-0.00200666 0 8.49105e-05)
(-0.00204157 0 8.05944e-05)
(-0.0020745 0 7.58012e-05)
(-0.00210578 0 7.18456e-05)
(-0.00213537 0 6.82568e-05)
(-0.00216347 0 6.4761e-05)
(-0.0021902 0 6.08703e-05)
(-0.00221534 0 5.74541e-05)
(-0.00223932 0 5.47918e-05)
(-0.0022617 0 5.17943e-05)
(-0.00228269 0 4.89926e-05)
(-0.00230268 0 4.60521e-05)
(-0.00232148 0 4.27069e-05)
(-0.00233912 0 3.9891e-05)
(-0.00235569 0 3.76393e-05)
(-0.00237115 0 3.56454e-05)
(-0.00238592 0 3.37135e-05)
(-0.00239965 0 3.13883e-05)
(-0.00241216 0 2.91471e-05)
(-0.00242394 0 2.69881e-05)
(-0.00243478 0 2.47496e-05)
(-0.00244473 0 2.33372e-05)
(-0.00245388 0 2.12451e-05)
(-0.00246214 0 1.88124e-05)
(-0.00246974 0 1.65083e-05)
(-0.00247661 0 1.60454e-05)
(-0.00248286 0 1.36684e-05)
(-0.00248784 0 1.20069e-05)
(-0.0024926 0 1.03774e-05)
(-0.00249609 0 9.3049e-06)
(-0.00249944 0 7.02688e-06)
(-0.00250162 0 5.76377e-06)
(-0.00250355 0 3.65175e-06)
(-0.00250444 0 2.71083e-06)
(-0.00250502 0 9.82802e-07)
(-0.00250483 0 4.93449e-07)
(-0.0025041 0 -4.9995e-07)
(-0.00250325 0 -1.6929e-06)
(-0.00250051 0 -1.41449e-06)
(-0.00249998 0 -4.51952e-06)
(-0.00249504 0 -3.66461e-06)
(-0.00249571 0 -7.89201e-06)
(-0.0024914 0 -5.96837e-06)
(-0.00249189 0 -1.15937e-05)
(-0.00248729 0 -8.59274e-06)
(-0.00248355 0 -1.21349e-05)
(-0.00247768 0 -9.04572e-06)
(-0.00246766 0 -2.02156e-05)
(-0.0024618 0 -1.64027e-05)
(-0.0024641 0 -3.28748e-05)
(-0.00245477 0 -2.30664e-05)
(-0.00245297 0 -1.03409e-05)
(-0.00243724 0 -3.57856e-06)
(-0.00238403 0 -2.40783e-05)
(-0.00237767 0 -2.66093e-05)
(-0.0024084 0 -0.000126279)
(-0.00239846 0 -9.50815e-05)
(-0.00249935 0 4.02563e-05)
(-0.00251166 0 6.45988e-05)
(-0.00278472 0 0.00014146)
(-0.00277112 0 0.000137958)
(-0.00286856 0 0.000268531)
(-0.00279933 0 0.000231006)
(-0.00283365 0 0.000112824)
(-0.00281866 0 8.91375e-05)
(-0.00283568 0 4.37855e-05)
(-0.00283668 0 2.76729e-05)
(-0.0028454 0 9.08667e-06)
(-0.00284638 0 1.79195e-05)
(-0.00284796 0 1.45187e-06)
(-0.00284121 0 1.16121e-05)
(-0.00281313 0 -1.89146e-05)
(-0.00280477 0 -1.18135e-05)
(-0.00281989 0 -7.92284e-05)
(-0.00280473 0 -5.60299e-05)
(-0.00285311 0 -1.69594e-06)
(-0.00284218 0 2.00797e-05)
(-0.00297386 0 3.91935e-05)
(-0.00294698 0 5.00203e-05)
(-0.0029865 0 9.27588e-05)
(-0.00293247 0 8.90683e-05)
(-0.0029406 0 1.72046e-05)
(-0.0029173 0 1.72662e-05)
(-0.0029054 0 -1.83235e-07)
(-0.00289382 0 -1.20839e-05)
(-0.00284707 0 -1.9994e-06)
(-0.00285662 0 -4.32077e-05)
(-0.00281552 0 -1.97837e-05)
(-0.00284849 0 -9.66753e-05)
(-0.0028025 0 -4.99965e-05)
(-0.00284158 0 -6.16064e-05)
(-0.00277897 0 2.09101e-06)
(-0.00263362 0 -6.43141e-05)
(-0.00258443 0 -5.56136e-06)
(-0.00265374 0 -0.000398783)
(-0.00259319 0 -0.000269078)
(-0.0030835 0 -1.54815e-05)
(-0.00305926 0 0.000161833)
(-0.00464755 0 0.000697245)
(-0.00476239 0 0.000728155)
(-0.00526598 0 0.00173704)
(-0.00528431 0 0.00127887)
(-0.00527499 0 0.000859363)
(-0.00532982 0 0.000622386)
(-0.00540225 0 0.000449199)
(-0.00548038 0 0.00033571)
(-0.00555497 0 0.000257227)
(-0.00562235 0 0.000201882)
(-0.00568096 0 0.000160846)
(-0.00573065 0 0.000129279)
(-0.0057722 0 0.000104613)
(-0.00580662 0 8.49162e-05)
(-0.00583477 0 6.8365e-05)
(-0.00585743 0 5.41003e-05)
(-0.0058753 0 4.2082e-05)
(-0.00588897 0 3.21656e-05)
(-0.00589886 0 2.3804e-05)
(-0.00590528 0 1.62907e-05)
(-0.00590835 0 9.27243e-06)
(-0.00590856 0 2.70565e-06)
(-0.00590643 0 -3.25589e-06)
(-0.0059021 0 -8.52143e-06)
(-0.00589583 0 -1.31311e-05)
(-0.00588787 0 -1.71944e-05)
(-0.00587838 0 -2.08815e-05)
(-0.00586741 0 -2.43814e-05)
(-0.0058551 0 -2.79007e-05)
(-0.00584154 0 -3.12964e-05)
(-0.0058265 0 -3.47148e-05)
(-0.00580997 0 -3.80783e-05)
(-0.00579213 0 -4.14701e-05)
(-0.00577303 0 -4.49383e-05)
(-0.00575272 0 -4.84819e-05)
(-0.00573124 0 -5.19976e-05)
(-0.00570869 0 -5.53225e-05)
(-0.00568514 0 -5.83109e-05)
(-0.00566063 0 -6.08973e-05)
(-0.00563521 0 -6.30416e-05)
(-0.00560871 0 -6.47729e-05)
(-0.00558136 0 -6.61691e-05)
(-0.00555357 0 -6.73017e-05)
(-0.00552533 0 -6.81629e-05)
(-0.00549668 0 -6.87156e-05)
(-0.00546776 0 -6.89413e-05)
(-0.00543865 0 -6.89374e-05)
(-0.00540936 0 -6.89188e-05)
(-0.0053798 0 -6.9125e-05)
(-0.00534988 0 -6.97141e-05)
(-0.00531955 0 -7.06961e-05)
(-0.0052888 0 -7.19927e-05)
(-0.00525763 0 -7.352e-05)
(-0.00522598 0 -7.51999e-05)
(-0.00519381 0 -7.68249e-05)
(-0.00516115 0 -7.79365e-05)
(-0.00512821 0 -7.80218e-05)
(-0.0050953 0 -7.70837e-05)
(-0.00506257 0 -7.60445e-05)
(-0.00502982 0 -7.61756e-05)
(-0.00499671 0 -7.79648e-05)
(-0.00496329 0 -8.01499e-05)
(-0.00492995 0 -8.0481e-05)