/*--------------------------------*- C++ -*----------------------------------*\
| =========                 |                                                 |
| \\      /  F ield         | OpenFOAM: The Open Source CFD Toolbox           |
|  \\    /   O peration     | Version:  v2006                                 |
|   \\  /    A nd           | Website:  www.openfoam.com                      |
|    \\/     M anipulation  |                                                 |
\*---------------------------------------------------------------------------*/
FoamFile
{
    version     2.0;
    format      ascii;
    class       surfaceScalarField;
    location    "7.7";
    object      alphaPhi0.water;
}
// * * * * * * * * * * * * * * * * * * * * * * * * * * * * * * * * * * * * * //

dimensions      [0 3 -1 0 0 0 0];
oriented        oriented;


internalField   nonuniform List<scalar> 
65390
(
-2.95438e-05
-2.18503e-07
-2.90845e-05
-4.59204e-07
-2.87802e-05
-3.04229e-07
-2.87417e-05
-3.83649e-08
-2.91629e-05
4.2106e-07
-2.98924e-05
7.29481e-07
-3.0679e-05
7.86612e-07
-3.07779e-05
9.89458e-08
-2.81286e-05
-2.64918e-06
-2.05494e-05
-7.57906e-06
-1.00601e-05
-1.04891e-05
1.20841e-06
-1.12684e-05
1.28035e-05
-1.15949e-05
2.48391e-05
-1.20353e-05
3.6024e-05
-1.11846e-05
4.36869e-05
-7.66268e-06
4.64107e-05
-2.72349e-06
4.53264e-05
1.08452e-06
4.22298e-05
3.09682e-06
3.87803e-05
3.44969e-06
3.63873e-05
2.39323e-06
3.57498e-05
6.37723e-07
3.66372e-05
-8.87152e-07
3.87903e-05
-2.15288e-06
4.21532e-05
-3.3626e-06
4.63603e-05
-4.2069e-06
5.09438e-05
-4.58323e-06
5.52461e-05
-4.30197e-06
5.85309e-05
-3.28453e-06
6.05158e-05
-1.98456e-06
6.12714e-05
-7.55307e-07
6.06392e-05
6.32449e-07
5.85206e-05
2.11872e-06
5.49434e-05
3.57727e-06
5.04951e-05
4.4464e-06
4.65356e-05
3.96073e-06
4.39071e-05
2.62911e-06
4.23869e-05
1.52053e-06
4.10866e-05
1.29795e-06
3.95378e-05
1.53027e-06
3.81336e-05
1.40425e-06
3.74607e-05
6.87774e-07
3.76878e-05
-2.2151e-07
3.85359e-05
-8.47875e-07
3.95546e-05
-1.01863e-06
4.02125e-05
-6.60605e-07
4.02901e-05
-9.66905e-08
4.0278e-05
2.53474e-08
4.04532e-05
-1.65941e-07
4.11877e-05
-7.33846e-07
4.22574e-05
-1.06945e-06
4.32e-05
-9.45484e-07
4.36818e-05
-4.97405e-07
4.38948e-05
-2.12913e-07
4.41149e-05
-2.05029e-07
4.45071e-05
-3.88222e-07
4.52178e-05
-7.10595e-07
4.61897e-05
-9.72065e-07
4.73462e-05
-1.15672e-06
4.87045e-05
-1.35842e-06
5.0196e-05
-1.49151e-06
5.14021e-05
-1.20617e-06
5.19401e-05
-5.38876e-07
5.18252e-05
1.00013e-07
5.14744e-05
3.49077e-07
5.1111e-05
3.68559e-07
5.0733e-05
3.86521e-07
5.02159e-05
5.18163e-07
4.955e-05
6.66027e-07
4.88848e-05
6.65086e-07
4.85791e-05
3.05971e-07
4.85448e-05
3.41092e-08
4.84935e-05
5.10632e-08
4.82785e-05
2.14658e-07
4.74298e-05
8.48487e-07
4.5602e-05
1.82716e-06
4.21958e-05
3.40038e-06
3.5924e-05
6.25736e-06
3.0826e-05
5.0979e-06
2.90421e-05
1.784e-06
2.80623e-05
9.79776e-07
2.8282e-05
-2.19089e-07
2.7998e-05
2.83549e-07
2.8058e-05
-5.99758e-08
2.80088e-05
4.92356e-08
2.70933e-05
9.26259e-07
2.58874e-05
1.20798e-06
2.48078e-05
1.0796e-06
2.40387e-05
7.69075e-07
2.33961e-05
6.42531e-07
2.30455e-05
3.50553e-07
2.28277e-05
2.1775e-07
2.23962e-05
4.31442e-07
2.19236e-05
4.72405e-07
2.11904e-05
7.30899e-07
2.03703e-05
8.16218e-07
1.9031e-05
1.33926e-06
1.74829e-05
1.54816e-06
1.47763e-05
2.70935e-06
1.127e-05
3.50769e-06
8.12019e-06
3.14974e-06
6.10188e-06
2.01828e-06
5.62489e-06
4.76975e-07
5.23648e-06
3.88298e-07
5.49507e-06
-2.59529e-07
5.95829e-06
-4.63813e-07
5.94415e-06
1.41771e-08
5.56639e-06
3.77771e-07
5.09899e-06
4.67416e-07
4.96859e-06
1.30441e-07
4.85217e-06
1.17163e-07
4.85694e-06
-4.42862e-09
4.92129e-06
-6.43615e-08
4.90659e-06
1.418e-08
4.69965e-06
2.06016e-07
4.41227e-06
2.87364e-07
3.73061e-06
6.82548e-07
2.87326e-06
8.57522e-07
2.27402e-06
5.99254e-07
2.05606e-06
2.17764e-07
2.11894e-06
-6.29997e-08
2.06261e-06
5.63301e-08
2.17608e-06
-1.13314e-07
2.35377e-06
-1.77585e-07
2.39364e-06
-3.98496e-08
2.4143e-06
-2.09043e-08
2.4269e-06
-1.36215e-08
2.41982e-06
7.90071e-09
2.45584e-06
-3.57028e-08
2.53164e-06
-7.57858e-08
2.59566e-06
-6.40269e-08
2.6737e-06
-7.8045e-08
2.73838e-06
-6.47752e-08
2.79526e-06
-5.74468e-08
2.85333e-06
-5.8052e-08
2.94173e-06
-8.77125e-08
3.06382e-06
-1.21986e-07
3.19167e-06
-1.27827e-07
3.32541e-06
-1.33759e-07
3.45791e-06
-1.32379e-07
3.59718e-06
-1.39271e-07
3.7453e-06
-1.48109e-07
3.90184e-06
-1.56555e-07
4.05598e-06
-1.54356e-07
4.20139e-06
-1.46e-07
4.34874e-06
-1.47333e-07
4.50156e-06
-1.52448e-07
4.66605e-06
-1.6409e-07
4.8405e-06
-1.74451e-07
5.01339e-06
-1.72897e-07
5.17278e-06
-1.60903e-07
5.33289e-06
-1.59033e-07
5.5054e-06
-1.71819e-07
5.68823e-06
-1.82813e-07
5.87175e-06
-1.8353e-07
6.05242e-06
-1.80845e-07
6.22999e-06
-1.78142e-07
6.40855e-06
-1.78499e-07
6.58927e-06
-1.80209e-07
6.772e-06
-1.82176e-07
6.95545e-06
-1.83311e-07
7.14001e-06
-1.84493e-07
7.32155e-06
-1.81476e-07
7.49613e-06
-1.74937e-07
7.67176e-06
-1.75327e-07
7.84876e-06
-1.7685e-07
8.01972e-06
-1.70919e-07
8.17986e-06
-1.6028e-07
8.33734e-06
-1.57334e-07
8.4959e-06
-1.58514e-07
8.6501e-06
-1.54226e-07
8.79217e-06
-1.42232e-07
8.9203e-06
-1.28822e-07
9.04577e-06
-1.25133e-07
9.16994e-06
-1.24017e-07
9.28917e-06
-1.19223e-07
9.3982e-06
-1.0961e-07
9.48916e-06
-9.20102e-08
9.5643e-06
-7.51285e-08
9.63002e-06
-6.47706e-08
9.68654e-06
-5.60488e-08
9.73737e-06
-5.06707e-08
9.77933e-06
-4.20938e-08
9.80744e-06
-2.85646e-08
9.81893e-06
-1.15343e-08
9.80953e-06
9.92933e-09
9.78564e-06
2.45572e-08
9.75213e-06
3.35215e-08
9.70866e-06
4.3455e-08
9.64672e-06
6.09712e-08
9.56396e-06
8.27894e-08
9.46176e-06
1.02241e-07
9.34553e-06
1.17409e-07
9.21831e-06
1.2742e-07
9.08071e-06
1.37592e-07
8.93054e-06
1.50158e-07
8.76062e-06
1.69642e-07
8.56665e-06
1.93215e-07
8.35517e-06
2.11413e-07
8.13484e-06
2.20639e-07
7.91311e-06
2.22226e-07
7.68358e-06
2.29504e-07
7.44024e-06
2.43332e-07
7.18293e-06
2.57132e-07
6.91455e-06
2.68014e-07
6.64371e-06
2.71199e-07
6.37346e-06
2.70354e-07
6.09896e-06
2.74529e-07
5.81191e-06
2.86862e-07
5.51609e-06
2.95893e-07
5.23255e-06
2.83929e-07
4.95785e-06
2.74877e-07
4.68471e-06
2.73215e-07
4.40974e-06
2.74777e-07
4.12681e-06
2.82796e-07
3.8426e-06
2.84304e-07
3.567e-06
2.75923e-07
3.30826e-06
2.58906e-07
3.06051e-06
2.47755e-07
2.81847e-06
2.42034e-07
2.57842e-06
2.39879e-07
2.33664e-06
2.41649e-07
2.0995e-06
2.37164e-07
1.87313e-06
2.26523e-07
1.66164e-06
2.11525e-07
1.46239e-06
1.99256e-07
1.27142e-06
1.90959e-07
1.08529e-06
1.86021e-07
8.99556e-07
1.85679e-07
7.19818e-07
1.79702e-07
5.50634e-07
1.69207e-07
3.94771e-07
1.55859e-07
2.50678e-07
1.44035e-07
1.13266e-07
1.37339e-07
-1.89997e-08
1.32191e-07
-1.45498e-07
1.26437e-07
-2.65947e-07
1.2043e-07
-3.82082e-07
1.16133e-07
-4.92245e-07
1.10185e-07
-5.95975e-07
1.0374e-07
-6.92657e-07
9.66114e-08
-7.78943e-07
8.62404e-08
-8.59562e-07
8.05586e-08
-9.36474e-07
7.68668e-08
-1.01124e-06
7.47552e-08
-1.08679e-06
7.5564e-08
-1.15883e-06
7.19347e-08
-1.21957e-06
6.07208e-08
-1.27464e-06
5.50776e-08
-1.32805e-06
5.34302e-08
-1.38077e-06
5.27982e-08
-1.43423e-06
5.35155e-08
-1.48544e-06
5.12167e-08
-1.53245e-06
4.69637e-08
-1.57579e-06
4.33361e-08
-1.61665e-06
4.08556e-08
-1.65729e-06
4.06497e-08
-1.69821e-06
4.09725e-08
-1.73827e-06
4.00679e-08
-1.7768e-06
3.85404e-08
-1.81287e-06
3.6005e-08
-1.84652e-06
3.36426e-08
-1.8806e-06
3.40608e-08
-1.91732e-06
3.6716e-08
-1.95629e-06
3.89887e-08
-1.99552e-06
3.91918e-08
-2.02987e-06
3.42944e-08
-2.0614e-06
3.15225e-08
-2.09323e-06
3.18531e-08
-2.12549e-06
3.22884e-08
-2.15866e-06
3.32347e-08
-2.194e-06
3.54582e-08
-2.23062e-06
3.66647e-08
-2.26684e-06
3.62022e-08
-2.30086e-06
3.4013e-08
-2.3331e-06
3.22471e-08
-2.36494e-06
3.18482e-08
-2.39661e-06
3.16728e-08
-2.42771e-06
3.10814e-08
-2.45917e-06
3.14558e-08
-2.49295e-06
3.37868e-08
-2.52793e-06
3.49444e-08
-2.56075e-06
3.27851e-08
-2.59046e-06
2.97197e-08
-2.61962e-06
2.91853e-08
-2.6491e-06
2.95081e-08
-2.67822e-06
2.91676e-08
-2.70738e-06
2.92264e-08
-2.73722e-06
2.99014e-08
-2.76669e-06
2.95082e-08
-2.79482e-06
2.81329e-08
-2.82129e-06
2.64928e-08
-2.84678e-06
2.55045e-08
-2.8716e-06
2.48309e-08
-2.89577e-06
2.41887e-08
-2.92007e-06
2.42975e-08
-2.94397e-06
2.38978e-08
-2.96673e-06
2.27078e-08
-2.98793e-06
2.11841e-08
-3.0076e-06
1.96631e-08
-3.02573e-06
1.81337e-08
-3.04337e-06
1.7656e-08
-3.06074e-06
1.73739e-08
-3.07657e-06
1.582e-08
-3.0904e-06
1.38385e-08
-3.10228e-06
1.18923e-08
-3.11291e-06
1.06431e-08
-3.12235e-06
9.43288e-09
-3.13023e-06
7.87417e-09
-3.13608e-06
5.85637e-09
-3.13976e-06
3.69296e-09
-3.14215e-06
2.40076e-09
-3.14417e-06
2.04421e-09
-3.14567e-06
1.4917e-09
-3.14545e-06
-2.15007e-10
-3.14364e-06
-1.8079e-09
-3.14115e-06
-2.47851e-09
-3.13851e-06
-2.62443e-09
-3.13613e-06
-2.37832e-09
-3.13427e-06
-1.85996e-09
-3.13324e-06
-1.02989e-09
-3.13341e-06
1.78915e-10
-3.13531e-06
1.90069e-09
-3.13962e-06
4.31034e-09
-3.1463e-06
6.67271e-09
-3.15517e-06
8.87623e-09
-3.16681e-06
1.16462e-08
-3.18189e-06
1.51016e-08
-3.20047e-06
1.85928e-08
-3.2221e-06
2.1627e-08
-3.24647e-06
2.43679e-08
-3.2737e-06
2.7228e-08
-3.30424e-06
3.05498e-08
-3.33869e-06
3.4457e-08
-3.37668e-06
3.80018e-08
-3.4171e-06
4.04117e-08
-3.45931e-06
4.22096e-08
-3.5035e-06
4.41969e-08
-3.54977e-06
4.6272e-08
-3.59797e-06
4.81993e-08
-3.64788e-06
4.99091e-08
-3.69918e-06
5.12861e-08
-3.75151e-06
5.23215e-08
-3.80456e-06
5.30485e-08
-3.85834e-06
5.37822e-08
-3.91258e-06
5.42367e-08
-3.96695e-06
5.43727e-08
-4.02119e-06
5.42356e-08
-4.07508e-06
5.38836e-08
-4.1285e-06
5.34247e-08
-4.18145e-06
5.29485e-08
-4.23385e-06
5.24027e-08
-4.28535e-06
5.15104e-08
-4.33566e-06
5.03046e-08
-4.38466e-06
4.90055e-08
-4.43238e-06
4.77225e-08
-4.47873e-06
4.63466e-08
-4.52363e-06
4.49052e-08
-4.56698e-06
4.33498e-08
-4.60851e-06
4.15209e-08
-4.64813e-06
3.96176e-08
-4.68583e-06
3.77018e-08
-4.72157e-06
3.57368e-08
-4.75518e-06
3.36121e-08
-4.78674e-06
3.15556e-08
-4.81639e-06
2.96724e-08
-4.844e-06
2.76212e-08
-4.86931e-06
2.53085e-08
-4.8919e-06
2.25737e-08
-4.91183e-06
1.99274e-08
-4.92948e-06
1.7639e-08
-4.94491e-06
1.54281e-08
-4.95777e-06
1.28608e-08
-4.96765e-06
9.8736e-09
-4.97449e-06
6.83639e-09
-4.97852e-06
4.03249e-09
-4.97983e-06
1.30784e-09
-4.97836e-06
-1.47393e-09
-4.97396e-06
-4.3843e-09
-4.967e-06
-6.94298e-09
-4.95733e-06
-9.67737e-09
-4.94428e-06
-1.30579e-08
-4.92757e-06
-1.67105e-08
-4.90762e-06
-1.99543e-08
-4.88455e-06
-2.30631e-08
-4.85833e-06
-2.62208e-08
-4.82895e-06
-2.93716e-08
-4.79638e-06
-3.25752e-08
-4.76026e-06
-3.61166e-08
-4.72048e-06
-3.97644e-08
-4.67747e-06
-4.30087e-08
-4.63136e-06
-4.6092e-08
-4.58196e-06
-4.94073e-08
-4.52875e-06
-5.32218e-08
-4.47187e-06
-5.68911e-08
-4.4115e-06
-6.03671e-08
-4.34757e-06
-6.39295e-08
-4.28036e-06
-6.72071e-08
-4.21024e-06
-7.01254e-08
-4.13698e-06
-7.32754e-08
-4.05997e-06
-7.70175e-08
-3.97935e-06
-8.06167e-08
-3.89491e-06
-8.44464e-08
-3.80731e-06
-8.75994e-08
-3.71606e-06
-9.12432e-08
-3.62296e-06
-9.30957e-08
-3.52592e-06
-9.70294e-08
-3.42584e-06
-1.00086e-07
-3.32109e-06
-1.04755e-07
-3.21383e-06
-1.07258e-07
-3.10423e-06
-1.09594e-07
-2.99249e-06
-1.11732e-07
-2.8795e-06
-1.12982e-07
-2.76182e-06
-1.17688e-07
-2.64276e-06
-1.19067e-07
-2.5222e-06
-1.20581e-07
-2.39934e-06
-1.22864e-07
-2.2795e-06
-1.19847e-07
-2.16107e-06
-1.18433e-07
-2.03179e-06
-1.29279e-07
-1.90504e-06
-1.26764e-07
-1.77595e-06
-1.29097e-07
-1.63747e-06
-1.38483e-07
-1.53845e-06
-9.90194e-08
-1.44799e-06
-9.04637e-08
-1.30652e-06
-1.41471e-07
-1.19406e-06
-1.12467e-07
-1.0229e-06
-1.71179e-07
-8.16575e-07
-2.06331e-07
-4.62835e-07
-3.53736e-07
-3.23181e-08
-4.30503e-07
2.87261e-07
-3.19561e-07
5.59404e-07
-2.72129e-07
7.75343e-07
-2.15936e-07
9.58712e-07
-1.83381e-07
1.12225e-06
-1.6356e-07
1.28579e-06
-1.63574e-07
1.44414e-06
-1.5839e-07
1.59682e-06
-1.52709e-07
1.73909e-06
-1.42307e-07
1.89238e-06
-1.53322e-07
1.971e-06
-7.864e-08
2.01815e-06
-4.71631e-08
2.12818e-06
-1.10048e-07
2.19965e-06
-7.1453e-08
2.37463e-06
-1.74978e-07
2.61346e-06
-2.38825e-07
3.13846e-06
-5.24993e-07
3.86187e-06
-7.23409e-07
4.45313e-06
-5.91268e-07
4.97267e-06
-5.19561e-07
5.34024e-06
-3.67594e-07
5.64829e-06
-3.0809e-07
5.8958e-06
-2.47539e-07
6.10494e-06
-2.09172e-07
6.27789e-06
-1.72962e-07
6.38939e-06
-1.11507e-07
6.50045e-06
-1.11071e-07
6.60795e-06
-1.07507e-07
6.68606e-06
-7.81119e-08
6.82086e-06
-1.34818e-07
6.87983e-06
-5.89847e-08
6.73326e-06
1.4653e-07
6.67037e-06
6.28353e-08
6.5864e-06
8.39379e-08
6.54293e-06
4.34193e-08
6.96132e-06
-4.18472e-07
7.76768e-06
-8.06476e-07
9.53229e-06
-1.7647e-06
1.15865e-05
-2.05435e-06
1.32212e-05
-1.6348e-06
1.46104e-05
-1.3893e-06
1.57782e-05
-1.16796e-06
1.66877e-05
-9.10142e-07
1.73868e-05
-6.9929e-07
1.79374e-05
-5.50761e-07
1.83895e-05
-4.52081e-07
1.87717e-05
-3.82221e-07
1.90941e-05
-3.22621e-07
1.9368e-05
-2.74045e-07
1.96094e-05
-2.41426e-07
1.98247e-05
-2.15282e-07
2.00164e-05
-1.91546e-07
2.01879e-05
-1.71473e-07
2.03366e-05
-1.48695e-07
2.04671e-05
-1.30508e-07
2.05856e-05
-1.18462e-07
2.06932e-05
-1.07506e-07
2.07835e-05
-9.03494e-08
2.08593e-05
-7.58794e-08
2.09286e-05
-6.91933e-08
2.099e-05
-6.14621e-08
2.10391e-05
-4.91582e-08
2.10736e-05
-3.4564e-08
2.10964e-05
-2.28606e-08
2.11126e-05
-1.61566e-08
2.11211e-05
-8.45631e-09
2.11221e-05
-1.08326e-09
2.11143e-05
7.78301e-09
2.10994e-05
1.47732e-08
2.10763e-05
2.31321e-08
2.10406e-05
3.55814e-08
2.0996e-05
4.45869e-08
2.09471e-05
4.89551e-08
2.08959e-05
5.12069e-08
2.08419e-05
5.41169e-08
2.07826e-05
5.94439e-08
2.07159e-05
6.67633e-08
2.0642e-05
7.4083e-08
2.05609e-05
8.11324e-08
2.04728e-05
8.82173e-08
2.03806e-05
9.22071e-08
2.02817e-05
9.89134e-08
2.01765e-05
1.05143e-07
2.00685e-05
1.07949e-07
1.99559e-05
1.12542e-07
1.98354e-05
1.20454e-07
1.97063e-05
1.29061e-07
1.95701e-05
1.36253e-07
1.94282e-05
1.41896e-07
1.92822e-05
1.46028e-07
1.91333e-05
1.49002e-07
1.89811e-05
1.52154e-07
1.88255e-05
1.55664e-07
1.86661e-05
1.59428e-07
1.85028e-05
1.63288e-07
1.83353e-05
1.67495e-07
1.8164e-05
1.71243e-07
1.79895e-05
1.74467e-07
1.78121e-05
1.77294e-07
1.76321e-05
1.79902e-07
1.7449e-05
1.83046e-07
1.72624e-05
1.86544e-07
1.70725e-05
1.89838e-07
1.68802e-05
1.92272e-07
1.66865e-05
1.93616e-07
1.64907e-05
1.95697e-07
1.62928e-05
1.97818e-07
1.60911e-05
2.01575e-07
1.58889e-05
2.02025e-07
1.56842e-05
2.04529e-07
1.54774e-05
2.06685e-07
1.52697e-05
2.07519e-07
1.50653e-05
2.04295e-07
1.48654e-05
1.99689e-07
1.46665e-05
1.98765e-07
1.44671e-05
1.99282e-07
1.42673e-05
1.99604e-07
1.40654e-05
2.01719e-07
1.8941e-07
-2.94198e-05
-5.80711e-07
-2.88386e-05
-1.04008e-06
-2.83431e-05
-7.99428e-07
-2.79862e-05
-3.95125e-07
-2.77488e-05
1.83909e-07
-2.74072e-05
3.88082e-07
-2.65764e-05
-4.40133e-08
-2.37021e-05
-2.77519e-06
-1.61496e-05
-1.02016e-05
-6.99751e-06
-1.67309e-05
1.53391e-06
-1.90202e-05
9.94032e-06
-1.9673e-05
1.80806e-05
-1.97298e-05
2.55437e-05
-1.94952e-05
3.23425e-05
-1.79818e-05
3.83451e-05
-1.36648e-05
4.25899e-05
-6.96809e-06
4.42402e-05
-5.65631e-07
4.35778e-05
3.75936e-06
4.21471e-05
4.88063e-06
4.02525e-05
4.28805e-06
3.81861e-05
2.70429e-06
3.71342e-05
1.64914e-07
3.80697e-05
-3.08819e-06
4.03194e-05
-5.61211e-06
4.31134e-05
-7.00078e-06
4.58772e-05
-7.3469e-06
4.85722e-05
-6.99692e-06
5.10164e-05
-5.72858e-06
5.24616e-05
-3.42965e-06
5.27443e-05
-1.03799e-06
5.16075e-05
1.76927e-06
4.92814e-05
4.44469e-06
4.67837e-05
6.0735e-06
4.48235e-05
6.40617e-06
4.34455e-05
5.3394e-06
4.23592e-05
3.71566e-06
4.12877e-05
2.59205e-06
4.02264e-05
2.35667e-06
3.92465e-05
2.48891e-06
3.84018e-05
2.24903e-06
3.79493e-05
1.14849e-06
3.81533e-05
-4.14383e-07
3.8646e-05
-1.33777e-06
3.92743e-05
-1.64749e-06
4.00267e-05
-1.42074e-06
4.06205e-05
-7.09607e-07
4.10692e-05
-4.23544e-07
4.1528e-05
-6.09302e-07
4.20735e-05
-1.26758e-06
4.27092e-05
-1.70475e-06
4.34876e-05
-1.72672e-06
4.42062e-05
-1.23242e-06
4.4702e-05
-7.08721e-07
4.50677e-05
-5.62692e-07
4.53886e-05
-6.99069e-07
4.58977e-05
-1.21731e-06
4.67482e-05
-1.82258e-06
4.77672e-05
-2.17578e-06
4.87607e-05
-2.35206e-06
4.95736e-05
-2.30455e-06
5.01198e-05
-1.75275e-06
5.04256e-05
-8.47545e-07
5.07404e-05
-2.46347e-07
5.11647e-05
-7.43548e-08
5.15626e-05
-2.96666e-08
5.17147e-05
2.34747e-07
5.15267e-05
7.05899e-07
5.10626e-05
1.15649e-06
5.04951e-05
1.2392e-06
4.99422e-05
8.59512e-07
4.96495e-05
3.26706e-07
4.95031e-05
1.97251e-07
4.93938e-05
3.23223e-07
4.93956e-05
8.40964e-07
4.89232e-05
2.27827e-06
4.86374e-05
3.68611e-06
4.89803e-05
5.91456e-06
4.68888e-05
7.19925e-06
4.28939e-05
5.7894e-06
3.74603e-05
6.41186e-06
3.26444e-05
4.59373e-06
3.11471e-05
1.78111e-06
3.00018e-05
1.088e-06
2.96327e-05
4.20766e-07
2.90924e-05
1.46766e-06
2.84765e-05
1.82401e-06
2.79957e-05
1.56031e-06
2.74493e-05
1.31528e-06
2.60548e-05
2.03698e-06
2.46411e-05
1.76415e-06
2.36352e-05
1.22363e-06
2.28959e-05
1.17057e-06
2.2443e-05
9.24935e-07
2.21743e-05
9.96032e-07
2.17326e-05
1.2545e-06
2.14228e-05
1.64904e-06
2.09074e-05
2.06361e-06
2.08972e-05
2.72375e-06
2.03533e-05
4.05328e-06
1.90273e-05
4.47501e-06
1.61664e-05
4.87831e-06
1.2186e-05
4.45763e-06
8.81528e-06
3.75895e-06
6.24855e-06
2.30717e-06
5.00697e-06
7.76472e-07
4.60947e-06
4.11689e-07
4.28714e-06
7.00115e-07
4.5512e-06
2.0337e-07
5.31385e-06
-6.31456e-07
5.48027e-06
-4.85959e-08
5.28693e-06
1.88939e-07
5.14221e-06
8.03367e-08
4.94988e-06
2.06321e-07
4.89779e-06
2.5667e-07
4.91748e-06
2.67684e-07
5.04494e-06
5.55111e-07
5.01197e-06
8.9102e-07
4.79777e-06
8.14173e-07
4.15514e-06
8.60493e-07
3.26162e-06
8.3024e-07
2.63179e-06
6.86158e-07
2.27565e-06
2.43012e-07
2.18808e-06
-8.99966e-08
2.12041e-06
2.78048e-08
2.26129e-06
-1.62393e-07
2.4623e-06
-2.14629e-07
2.5133e-06
-4.31001e-08
2.52736e-06
-4.97623e-08
2.54654e-06
-9.45865e-08
2.55609e-06
-7.33325e-08
2.61835e-06
-1.40307e-07
2.69811e-06
-1.44622e-07
2.77323e-06
-1.33049e-07
2.85069e-06
-1.35466e-07
2.93953e-06
-1.76195e-07
3.05062e-06
-2.32604e-07
3.16534e-06
-2.42401e-07
3.29167e-06
-2.60086e-07
3.42371e-06
-2.64345e-07
3.56317e-06
-2.78641e-07
3.71301e-06
-2.97962e-07
3.86699e-06
-3.10523e-07
4.02005e-06
-3.07961e-07
4.17208e-06
-2.98346e-07
4.32758e-06
-3.02848e-07
4.48721e-06
-3.12063e-07
4.65555e-06
-3.31999e-07
4.82498e-06
-3.43507e-07
4.98931e-06
-3.37224e-07
5.15248e-06
-3.25037e-07
5.32085e-06
-3.2741e-07
5.49781e-06
-3.48188e-07
5.68017e-06
-3.64466e-07
5.85813e-06
-3.61486e-07
6.03245e-06
-3.55177e-07
6.21112e-06
-3.57501e-07
6.39793e-06
-3.65246e-07
6.58587e-06
-3.6809e-07
6.76995e-06
-3.6539e-07
6.95043e-06
-3.63193e-07
7.13214e-06
-3.66036e-07
7.3117e-06
-3.60975e-07
7.48841e-06
-3.52099e-07
7.66779e-06
-3.54275e-07
7.84556e-06
-3.54486e-07
8.01645e-06
-3.41855e-07
8.17789e-06
-3.221e-07
8.33651e-06
-3.15637e-07
8.49503e-06
-3.16736e-07
8.64767e-06
-3.06904e-07
8.78851e-06
-2.84055e-07
8.92204e-06
-2.62329e-07
9.04903e-06
-2.51684e-07
9.17054e-06
-2.45245e-07
9.28621e-06
-2.34895e-07
9.39354e-06
-2.17054e-07
9.48762e-06
-1.87639e-07
9.56816e-06
-1.55684e-07
9.6357e-06
-1.32204e-07
9.69097e-06
-1.11175e-07
9.73977e-06
-9.76305e-08
9.77931e-06
-8.11751e-08
9.80781e-06
-5.69888e-08
9.82139e-06
-2.56464e-08
9.81386e-06
1.64091e-08
9.79004e-06
4.96739e-08
9.75214e-06
7.23426e-08
9.70284e-06
9.27714e-08
9.64184e-06
1.21704e-07
9.56557e-06
1.5843e-07
9.47092e-06
1.96929e-07
9.35583e-06
2.32502e-07
9.22543e-06
2.58819e-07
9.08332e-06
2.79958e-07
8.92883e-06
3.04463e-07
8.75738e-06
3.40223e-07
8.56918e-06
3.81043e-07
8.36564e-06
4.15033e-07
8.1519e-06
4.34773e-07
7.92925e-06
4.45351e-07
7.69563e-06
4.631e-07
7.44865e-06
4.9009e-07
7.19105e-06
5.14425e-07
6.9287e-06
5.30394e-07
6.66289e-06
5.37339e-07
6.39094e-06
5.42423e-07
6.11113e-06
5.54374e-07
5.82332e-06
5.74371e-07
5.535e-06
5.84194e-07
5.25348e-06
5.66071e-07
4.97389e-06
5.54613e-07
4.69473e-06
5.52407e-07
4.41603e-06
5.53231e-07
4.13676e-06
5.61847e-07
3.85933e-06
5.61833e-07
3.58626e-06
5.49045e-07
3.32293e-06
5.2246e-07
3.06872e-06
5.01924e-07
2.82073e-06
4.8999e-07
2.57809e-06
4.82208e-07
2.34042e-06
4.79304e-07
2.10823e-06
4.69327e-07
1.88281e-06
4.51941e-07
1.667e-06
4.27359e-07
1.46201e-06
4.04223e-07
1.26596e-06
3.86954e-07
1.07735e-06
3.74503e-07
8.94127e-07
3.68803e-07
7.17541e-07
3.56334e-07
5.50637e-07
3.36019e-07
3.95259e-07
3.11116e-07
2.49116e-07
2.90123e-07
1.10437e-07
2.7597e-07
-2.27809e-08
2.6538e-07
-1.5204e-07
2.55674e-07
-2.76259e-07
2.44625e-07
-3.93126e-07
2.32972e-07
-5.01363e-07
2.1842e-07
-6.00169e-07
2.02548e-07
-6.92657e-07
1.89012e-07
-7.81099e-07
1.74648e-07
-8.65351e-07
1.64788e-07
-9.45129e-07
1.56608e-07
-1.02174e-06
1.51364e-07
-1.09372e-06
1.47605e-07
-1.15991e-06
1.37985e-07
-1.22073e-06
1.21482e-07
-1.27838e-06
1.12693e-07
-1.33433e-06
1.09401e-07
-1.38843e-06
1.06962e-07
-1.43964e-06
1.04737e-07
-1.48716e-06
9.87409e-08
-1.53121e-06
9.10237e-08
-1.5741e-06
8.61776e-08
-1.61684e-06
8.36e-08
-1.66021e-06
8.40441e-08
-1.70283e-06
8.36144e-08
-1.74117e-06
7.84334e-08
-1.77672e-06
7.41031e-08
-1.81198e-06
7.11859e-08
-1.8471e-06
6.87518e-08
-1.88271e-06
6.96523e-08
-1.91972e-06
7.37301e-08
-1.95701e-06
7.63e-08
-1.99331e-06
7.53947e-08
-2.0274e-06
6.83291e-08
-2.06038e-06
6.45209e-08
-2.09352e-06
6.50374e-08
-2.12737e-06
6.62148e-08
-2.16182e-06
6.77912e-08
-2.19629e-06
7.00211e-08
-2.22997e-06
7.03836e-08
-2.26337e-06
6.96331e-08
-2.29768e-06
6.82391e-08
-2.33188e-06
6.64397e-08
-2.36512e-06
6.50644e-08
-2.3975e-06
6.4032e-08
-2.42914e-06
6.26928e-08
-2.46104e-06
6.33699e-08
-2.494e-06
6.67698e-08
-2.52681e-06
6.77601e-08
-2.55877e-06
6.46774e-08
-2.58912e-06
6.00828e-08
-2.6192e-06
5.93189e-08
-2.64985e-06
6.02163e-08
-2.68016e-06
5.95518e-08
-2.70934e-06
5.84924e-08
-2.73778e-06
5.84256e-08
-2.76567e-06
5.74466e-08
-2.79288e-06
5.5364e-08
-2.81995e-06
5.35662e-08
-2.84679e-06
5.23599e-08
-2.87274e-06
5.08e-08
-2.89694e-06
4.84075e-08
-2.91967e-06
4.70301e-08
-2.9417e-06
4.59242e-08
-2.96407e-06
4.50153e-08
-2.98635e-06
4.34261e-08
-3.00713e-06
4.04275e-08
-3.02545e-06
3.64523e-08
-3.04197e-06
3.4202e-08
-3.05794e-06
3.3335e-08
-3.07376e-06
3.16252e-08
-3.08853e-06
2.86256e-08
-3.10041e-06
2.37852e-08
-3.10988e-06
2.01233e-08
-3.11843e-06
1.8e-08
-3.12662e-06
1.60505e-08
-3.13325e-06
1.24882e-08
-3.13728e-06
7.7426e-09
-3.13964e-06
4.77569e-09
-3.14104e-06
3.47762e-09
-3.14222e-06
2.66281e-09
-3.14291e-06
4.78122e-10
-3.14194e-06
-2.76747e-09
-3.13985e-06
-4.56544e-09
-3.13748e-06
-4.98153e-09
-3.13546e-06
-4.39766e-09
-3.1344e-06
-2.91529e-09
-3.13441e-06
-1.02303e-09
-3.13548e-06
1.25107e-09
-3.13786e-06
4.27659e-09
-3.14205e-06
8.50801e-09
-3.14853e-06
1.3159e-08
-3.15771e-06
1.80565e-08
-3.16993e-06
2.38798e-08
-3.18532e-06
3.04975e-08
-3.20366e-06
3.69428e-08
-3.22495e-06
4.29196e-08
-3.24924e-06
4.86655e-08
-3.27678e-06
5.47727e-08
-3.30763e-06
6.14143e-08
-3.34172e-06
6.85683e-08
-3.37886e-06
7.51414e-08
-3.41897e-06
8.05171e-08
-3.4614e-06
8.46314e-08
-3.5059e-06
8.86938e-08
-3.55238e-06
9.27507e-08
-3.60046e-06
9.62738e-08
-3.65014e-06
9.95835e-08
-3.70141e-06
1.02543e-07
-3.75393e-06
1.04838e-07
-3.80735e-06
1.06471e-07
-3.86161e-06
1.08039e-07
-3.91609e-06
1.08709e-07
-3.97036e-06
1.08645e-07
-4.02446e-06
1.08328e-07
-4.07839e-06
1.07807e-07
-4.13202e-06
1.07053e-07
-4.18513e-06
1.06066e-07
-4.23757e-06
1.04843e-07
-4.28909e-06
1.03037e-07
-4.3395e-06
1.00723e-07
-4.38862e-06
9.81257e-08
-4.43639e-06
9.55026e-08
-4.48283e-06
9.27839e-08
-4.52799e-06
9.00656e-08
-4.5717e-06
8.70529e-08
-4.61346e-06
8.32783e-08
-4.6532e-06
7.93542e-08
-4.69103e-06
7.55272e-08
-4.72695e-06
7.16491e-08
-4.7608e-06
6.74584e-08
-4.79253e-06
6.32936e-08
-4.82212e-06
5.92522e-08
-4.84939e-06
5.48859e-08
-4.87435e-06
5.02539e-08
-4.89697e-06
4.51827e-08
-4.91719e-06
4.01446e-08
-4.93508e-06
3.55261e-08
-4.95059e-06
3.09376e-08
-4.96353e-06
2.57756e-08
-4.97351e-06
1.98445e-08
-4.98051e-06
1.38222e-08
-4.9847e-06
8.2152e-09
-4.98627e-06
2.8801e-09
-4.98519e-06
-2.55677e-09
-4.98115e-06
-8.42095e-09
-4.97396e-06
-1.41272e-08
-4.96357e-06
-2.00702e-08
-4.95022e-06
-2.64217e-08
-4.9337e-06
-3.32475e-08
-4.91399e-06
-3.96614e-08
-4.89118e-06
-4.58697e-08
-4.86525e-06
-5.21438e-08
-4.83589e-06
-5.87354e-08
-4.80315e-06
-6.53113e-08
-4.76703e-06
-7.22575e-08
-4.72758e-06
-7.9216e-08
-4.68476e-06
-8.58344e-08
-4.63837e-06
-9.24804e-08
-4.58838e-06
-9.94154e-08
-4.53507e-06
-1.06562e-07
-4.47847e-06
-1.13496e-07
-4.41853e-06
-1.20324e-07
-4.35494e-06
-1.27527e-07
-4.28774e-06
-1.34404e-07
-4.21687e-06
-1.41009e-07
-4.14307e-06
-1.47078e-07
-4.06597e-06
-1.54132e-07
-3.98579e-06
-1.60813e-07
-3.90183e-06
-1.68403e-07
-3.81463e-06
-1.74797e-07
-3.72345e-06
-1.82418e-07
-3.62986e-06
-1.86677e-07
-3.53265e-06
-1.94231e-07
-3.43347e-06
-1.99274e-07
-3.33052e-06
-2.07703e-07
-3.22311e-06
-2.14661e-07
-3.11299e-06
-2.19704e-07
-2.99838e-06
-2.26339e-07
-2.88327e-06
-2.28094e-07
-2.76515e-06
-2.35823e-07
-2.65045e-06
-2.33776e-07
-2.53517e-06
-2.35875e-07
-2.40894e-06
-2.49109e-07
-2.28055e-06
-2.48252e-07
-2.14641e-06
-2.52574e-07
-2.01089e-06
-2.64801e-07
-1.91535e-06
-2.22297e-07
-1.82951e-06
-2.1492e-07
-1.69351e-06
-2.74474e-07
-1.5428e-06
-2.49727e-07
-1.31893e-06
-3.14332e-07
-1.08577e-06
-3.74626e-07
-7.21376e-07
-4.76857e-07
-3.10615e-07
-5.81923e-07
-1.1728e-10
-5.16808e-07
2.16891e-07
-5.70722e-07
3.43426e-07
-5.57019e-07
4.97732e-07
-4.73854e-07
6.44005e-07
-4.18399e-07
8.18082e-07
-3.90019e-07
9.84633e-07
-3.49943e-07
1.17039e-06
-3.49329e-07
1.35348e-06
-3.4668e-07
1.52806e-06
-3.32985e-07
1.62235e-06
-2.47007e-07
1.67404e-06
-1.94002e-07
1.7959e-06
-2.75192e-07
1.94509e-06
-2.27832e-07
2.23991e-06
-3.41976e-07
2.56637e-06
-4.36507e-07
3.15195e-06
-6.57e-07
3.87623e-06
-8.99248e-07
4.48514e-06
-8.47721e-07
4.91059e-06
-9.50462e-07
5.10678e-06
-9.19606e-07
5.30278e-06
-7.87275e-07
5.48777e-06
-7.0457e-07
5.67554e-06
-5.55382e-07
5.82127e-06
-4.53846e-07
5.97681e-06
-4.03106e-07
6.13442e-06
-3.66811e-07
6.30141e-06
-3.39963e-07
6.46572e-06
-2.75804e-07
6.68835e-06
-3.33664e-07
6.80336e-06
-2.22511e-07
6.68843e-06
3.68153e-08
6.60676e-06
-5.31706e-08
6.59135e-06
-4.36296e-08
6.7802e-06
-4.23797e-08
7.42274e-06
-5.79773e-07
8.55597e-06
-1.04936e-06
1.06074e-05
-2.00808e-06
1.26371e-05
-2.44821e-06
1.41831e-05
-2.35248e-06
1.51964e-05
-2.77807e-06
1.57827e-05
-2.64071e-06
1.63322e-05
-2.18435e-06
1.67742e-05
-1.83123e-06
1.71863e-05
-1.57999e-06
1.76127e-05
-1.3364e-06
1.80191e-05
-1.10559e-06
1.83876e-05
-9.1925e-07
1.87214e-05
-7.85888e-07
1.90226e-05
-6.83318e-07
1.92953e-05
-5.953e-07
1.95409e-05
-5.19627e-07
1.97637e-05
-4.64263e-07
1.99664e-05
-4.17881e-07
2.01473e-05
-3.72504e-07
2.03085e-05
-3.32597e-07
2.0452e-05
-2.92222e-07
2.05805e-05
-2.59094e-07
2.06956e-05
-2.33667e-07
2.07982e-05
-2.10178e-07
2.08882e-05
-1.80439e-07
2.09671e-05
-1.54937e-07
2.10357e-05
-1.37933e-07
2.10938e-05
-1.19696e-07
2.11412e-05
-9.66199e-08
2.11784e-05
-7.18879e-08
2.12058e-05
-5.03342e-08
2.12237e-05
-3.411e-08
2.12328e-05
-1.76256e-08
2.1234e-05
-2.40704e-09
2.12283e-05
1.34997e-08
2.12132e-05
2.979e-08
2.11877e-05
4.86048e-08
2.11548e-05
6.85079e-08
2.11149e-05
8.44886e-08
2.10688e-05
9.51229e-08
2.1017e-05
1.03118e-07
2.09585e-05
1.12675e-07
2.08937e-05
1.24349e-07
2.08231e-05
1.37448e-07
2.07462e-05
1.51003e-07
2.06635e-05
1.63807e-07
2.05757e-05
1.76015e-07
2.04816e-05
1.86169e-07
2.03809e-05
1.99523e-07
2.02744e-05
2.11574e-07
2.01619e-05
2.20345e-07
2.00436e-05
2.3084e-07
1.99195e-05
2.44432e-07
1.97903e-05
2.58199e-07
1.96562e-05
2.70353e-07
1.95173e-05
2.80792e-07
1.93737e-05
2.89683e-07
1.92252e-05
2.97494e-07
1.90725e-05
3.04973e-07
1.89158e-05
3.12371e-07
1.87555e-05
3.19783e-07
1.85912e-05
3.2763e-07
1.84233e-05
3.35511e-07
1.82515e-05
3.43027e-07
1.80763e-05
3.49722e-07
1.78982e-05
3.55485e-07
1.7717e-05
3.61214e-07
1.75324e-05
3.67748e-07
1.73444e-05
3.74635e-07
1.7154e-05
3.80397e-07
1.69617e-05
3.84788e-07
1.67672e-05
3.88191e-07
1.65701e-05
3.93051e-07
1.63705e-05
3.9759e-07
1.61695e-05
4.02717e-07
1.59677e-05
4.0405e-07
1.57644e-05
4.08057e-07
1.55589e-05
4.12382e-07
1.5352e-05
4.14617e-07
1.51456e-05
4.11025e-07
1.49379e-05
4.07628e-07
1.473e-05
4.06883e-07
1.45201e-05
4.09444e-07
1.43086e-05
4.11341e-07
1.40969e-05
4.13577e-07
4.1035e-07
-2.92872e-05
-1.11081e-06
-2.85363e-05
-1.7907e-06
-2.777e-05
-1.56574e-06
-2.69799e-05
-1.18524e-06
-2.60925e-05
-7.03435e-07
-2.48623e-05
-8.41979e-07
-2.26476e-05
-2.25854e-06
-1.76337e-05
-7.78886e-06
-1.06909e-05
-1.71442e-05
-5.24339e-06
-2.21783e-05
-3.07375e-07
-2.39552e-05
4.17351e-06
-2.4147e-05
8.2668e-06
-2.38083e-05
1.16858e-05
-2.29076e-05
1.42648e-05
-2.05593e-05
1.69577e-05
-1.63574e-05
2.02054e-05
-1.02156e-05
2.33887e-05
-3.74878e-06
2.6328e-05
8.20297e-07
2.83904e-05
2.81848e-06
2.94848e-05
3.19393e-06
3.00168e-05
2.17247e-06
3.03977e-05
-2.15746e-07
3.04306e-05
-3.12079e-06
3.00359e-05
-5.21722e-06
2.94622e-05
-6.42682e-06
2.90462e-05
-6.9307e-06
2.88711e-05
-6.82148e-06
2.88319e-05
-5.68914e-06
2.84264e-05
-3.02392e-06
2.74118e-05
-2.31266e-08
2.68979e-05
2.28199e-06
2.7447e-05
3.8919e-06
2.9038e-05
4.48352e-06
3.13058e-05
4.14112e-06
3.35088e-05
3.13712e-06
3.48973e-05
2.32751e-06
3.54012e-05
2.0878e-06
3.55455e-05
2.20255e-06
3.57398e-05
2.27935e-06
3.59867e-05
2.0023e-06
3.63554e-05
7.79878e-07
3.70018e-05
-1.03907e-06
3.77279e-05
-2.05887e-06
3.8497e-05
-2.41686e-06
3.93452e-05
-2.2761e-06
4.02107e-05
-1.59399e-06
4.09771e-05
-1.18971e-06
4.18185e-05
-1.43685e-06
4.26147e-05
-2.05107e-06
4.33212e-05
-2.409e-06
4.4005e-05
-2.41168e-06
4.46835e-05
-1.92762e-06
4.52176e-05
-1.24862e-06
4.56313e-05
-9.76382e-07
4.60079e-05
-1.06226e-06
4.6394e-05
-1.59274e-06
4.69032e-05
-2.33016e-06
4.74392e-05
-2.71164e-06
4.78986e-05
-2.81142e-06
4.82874e-05
-2.69442e-06
4.85881e-05
-2.07446e-06
4.90016e-05
-1.26679e-06
4.97932e-05
-1.03856e-06
5.09045e-05
-1.16951e-06
5.19951e-05
-1.11723e-06
5.2655e-05
-4.46805e-07
5.27603e-05
5.95245e-07
5.25593e-05
1.35768e-06
5.21828e-05
1.61567e-06
5.15675e-05
1.49232e-06
5.10123e-05
8.95916e-07
5.07479e-05
4.63235e-07
5.05961e-05
4.73963e-07
5.05644e-05
8.5793e-07
5.06985e-05
2.13519e-06
5.06694e-05
3.71525e-06
5.18566e-05
4.72735e-06
5.36715e-05
5.40646e-06
5.39146e-05
5.55052e-06
5.36795e-05
6.64673e-06
5.07012e-05
7.57148e-06
4.62745e-05
6.20786e-06
4.02057e-05
7.15686e-06
3.50204e-05
5.60603e-06