/*--------------------------------*- C++ -*----------------------------------*\
| =========                 |                                                 |
| \\      /  F ield         | OpenFOAM: The Open Source CFD Toolbox           |
|  \\    /   O peration     | Version:  v2006                                 |
|   \\  /    A nd           | Website:  www.openfoam.com                      |
|    \\/     M anipulation  |                                                 |
\*---------------------------------------------------------------------------*/
FoamFile
{
    version     2.0;
    format      ascii;
    class       volScalarField;
    location    "7.7";
    object      k;
}
// * * * * * * * * * * * * * * * * * * * * * * * * * * * * * * * * * * * * * //

dimensions      [0 2 -2 0 0 0 0];


internalField   nonuniform List<scalar> 
33000
(
1.35664e-08
1.48779e-08
1.64407e-08
1.87287e-08
2.18594e-08
2.56787e-08
2.90772e-08
3.05282e-08
2.89086e-08
2.60626e-08
2.42696e-08
2.37196e-08
2.39112e-08
2.47171e-08
2.66096e-08
3.01217e-08
3.55447e-08
4.2183e-08
4.9478e-08
5.7515e-08
6.61076e-08
7.51292e-08
8.51262e-08
9.74336e-08
1.12688e-07
1.30127e-07
1.47813e-07
1.6282e-07
1.72622e-07
1.77523e-07
1.80915e-07
1.9043e-07
2.13329e-07
2.55877e-07
3.23711e-07
4.15815e-07
5.20959e-07
6.23346e-07
7.11613e-07
7.81005e-07
8.30505e-07
8.6079e-07
8.70975e-07
8.68296e-07
8.66943e-07
8.72111e-07
8.77035e-07
8.74572e-07
8.6286e-07
8.44078e-07
8.30346e-07
8.26975e-07
8.30004e-07
8.30054e-07
8.22145e-07
8.0572e-07
7.84091e-07
7.63047e-07
7.45898e-07
7.34686e-07
7.32876e-07
7.43673e-07
7.62304e-07
7.77535e-07
7.84572e-07
7.84338e-07
7.7679e-07
7.6143e-07
7.37672e-07
7.05583e-07
6.66773e-07
6.24991e-07
5.84711e-07
5.4833e-07
5.16016e-07
4.86443e-07
4.58026e-07
4.29509e-07
4.00358e-07
3.75348e-07
3.61366e-07
3.605e-07
3.74515e-07
4.0049e-07
4.34575e-07
4.7164e-07
5.07565e-07
5.38336e-07
5.61129e-07
5.74972e-07
5.80311e-07
5.77779e-07
5.68016e-07
5.51574e-07
5.2929e-07
5.02123e-07
4.71677e-07
4.39589e-07
4.08595e-07
3.80874e-07
3.59225e-07
3.44036e-07
3.52968e-07
3.62486e-07
3.64119e-07
3.66522e-07
3.76365e-07
3.83292e-07
3.85051e-07
3.83923e-07
3.81777e-07
3.7586e-07
3.71027e-07
3.67209e-07
3.61961e-07
3.5146e-07
3.40568e-07
3.22988e-07
3.11915e-07
3.06669e-07
3.06153e-07
3.09912e-07
3.07935e-07
3.07682e-07
3.12914e-07
3.16722e-07
3.19901e-07
3.22653e-07
3.23438e-07
3.24149e-07
3.25861e-07
3.27284e-07
3.29097e-07
3.3042e-07
3.31313e-07
3.31645e-07
3.32012e-07
3.3276e-07
3.3354e-07
3.34393e-07
3.35149e-07
3.35873e-07
3.36611e-07
3.37408e-07
3.38051e-07
3.38457e-07
3.38645e-07
3.38669e-07
3.3868e-07
3.38757e-07
3.38776e-07
3.38473e-07
3.37923e-07
3.37348e-07
3.36785e-07
3.36148e-07
3.35382e-07
3.34451e-07
3.33375e-07
3.32164e-07
3.30825e-07
3.29358e-07
3.27798e-07
3.26083e-07
3.24139e-07
3.2204e-07
3.19829e-07
3.17448e-07
3.1484e-07
3.12073e-07
3.09247e-07
3.06408e-07
3.03539e-07
3.00653e-07
2.9785e-07
2.95212e-07
2.92798e-07
2.90598e-07
2.8856e-07
2.86681e-07
2.84946e-07
2.83303e-07
2.81616e-07
2.79895e-07
2.78316e-07
2.76904e-07
2.75661e-07
2.74542e-07
2.73487e-07
2.72452e-07
2.71418e-07
2.70411e-07
2.69408e-07
2.6839e-07
2.67305e-07
2.66141e-07
2.64934e-07
2.63736e-07
2.62598e-07
2.61495e-07
2.60357e-07
2.59124e-07
2.57803e-07
2.56476e-07
2.55212e-07
2.54008e-07
2.52826e-07
2.51643e-07
2.50518e-07
2.49511e-07
2.4864e-07
2.4783e-07
2.47017e-07
2.46275e-07
2.45718e-07
2.45411e-07
2.45286e-07
2.45226e-07
2.4514e-07
2.45041e-07
2.45031e-07
2.45194e-07
2.45534e-07
2.45948e-07
2.46323e-07
2.46592e-07
2.46793e-07
2.47009e-07
2.47306e-07
2.4769e-07
2.48068e-07
2.48332e-07
2.48446e-07
2.48467e-07
2.48467e-07
2.48465e-07
2.48445e-07
2.48382e-07
2.48261e-07
2.48054e-07
2.4775e-07
2.47315e-07
2.46745e-07
2.46116e-07
2.4548e-07
2.44866e-07
2.4423e-07
2.43437e-07
2.42457e-07
2.41425e-07
2.40414e-07
2.3943e-07
2.38412e-07
2.37292e-07
2.3607e-07
2.34775e-07
2.33455e-07
2.32125e-07
2.30762e-07
2.29336e-07
2.27829e-07
2.26245e-07
2.24635e-07
2.23052e-07
2.21489e-07
2.19891e-07
2.18175e-07
2.16325e-07
2.14433e-07
2.12555e-07
2.10693e-07
2.0884e-07
2.0697e-07
2.05043e-07
2.03033e-07
2.00947e-07
1.9883e-07
1.96695e-07
1.94537e-07
1.92363e-07
1.90195e-07
1.88016e-07
1.85771e-07
1.83422e-07
1.81017e-07
1.7861e-07
1.76187e-07
1.73729e-07
1.71239e-07
1.687e-07
1.66086e-07
1.63384e-07
1.60592e-07
1.57697e-07
1.54688e-07
1.51644e-07
1.48609e-07
1.45566e-07
1.42511e-07
1.3945e-07
1.36388e-07
1.33334e-07
1.30285e-07
1.2721e-07
1.24095e-07
1.20968e-07
1.17871e-07
1.14853e-07
1.11943e-07
1.09154e-07
1.06505e-07
1.04011e-07
1.01682e-07
9.9503e-08
9.74614e-08
9.55664e-08
9.38339e-08
9.22629e-08
9.08517e-08
8.96024e-08
8.85168e-08
8.75926e-08
8.68198e-08
8.61902e-08
8.56912e-08
8.53135e-08
8.50517e-08
8.48948e-08
8.48268e-08
8.48319e-08
8.49004e-08
8.50251e-08
8.52e-08
8.5419e-08
8.5669e-08
8.59346e-08
8.62036e-08
8.64661e-08
8.671e-08
8.69238e-08
8.71016e-08
8.72421e-08
8.73474e-08
8.74201e-08
8.74617e-08
8.74699e-08
8.7443e-08
8.73835e-08
8.72941e-08
8.71765e-08
8.70297e-08
8.68513e-08
8.66398e-08
8.63968e-08
8.61238e-08
8.58205e-08
8.54875e-08
8.51269e-08
8.47402e-08
8.43275e-08
8.38898e-08
8.34288e-08
8.29449e-08
8.24392e-08
8.19132e-08
8.13695e-08
8.08078e-08
8.02286e-08
7.96327e-08
7.90232e-08
7.8403e-08
7.77713e-08
7.7125e-08
7.64637e-08
7.57891e-08
7.51034e-08
7.44055e-08
7.36951e-08
7.29726e-08
7.22405e-08
7.14959e-08
7.07358e-08
6.99626e-08
6.91808e-08
6.83919e-08
6.75953e-08
6.67937e-08
6.59869e-08
6.51761e-08
6.43631e-08
6.35523e-08
6.2742e-08
6.19319e-08
6.11228e-08
6.03195e-08
5.9523e-08
5.87351e-08
5.79582e-08
5.71921e-08
5.64357e-08
5.56879e-08
5.49541e-08
5.42343e-08
5.35324e-08
5.28452e-08
5.21793e-08
5.15245e-08
5.08929e-08
5.02787e-08
4.96927e-08
4.91285e-08
4.85843e-08
4.80589e-08
4.75382e-08
4.70472e-08
4.6573e-08
4.61045e-08
4.56729e-08
4.52157e-08
4.47293e-08
4.43259e-08
4.39057e-08
4.3512e-08
4.32684e-08
4.26941e-08
4.20271e-08
4.18449e-08
4.11579e-08
4.10409e-08
4.05873e-08
4.19282e-08
4.29929e-08
4.4181e-08
4.48901e-08
4.54705e-08
4.56916e-08
4.5828e-08
4.58323e-08
4.58664e-08
4.58157e-08
4.57349e-08
4.58135e-08
4.55368e-08
4.50951e-08
4.50373e-08
4.44396e-08
4.40523e-08
4.27867e-08
4.28708e-08
4.34025e-08
4.40365e-08
4.48028e-08
4.52908e-08
4.56094e-08
4.57607e-08
4.5844e-08
4.58765e-08
4.57005e-08
4.54636e-08
4.5239e-08
4.48358e-08
4.47259e-08
4.44526e-08
4.3616e-08
4.29633e-08
4.21553e-08
4.07818e-08
3.9855e-08
3.8915e-08
4.03478e-08
4.32775e-08
4.70977e-08
5.15752e-08
5.6505e-08
6.13932e-08
6.58139e-08
6.95689e-08
7.266e-08
7.5171e-08
7.71653e-08
7.87123e-08
7.9925e-08
8.08891e-08
8.16567e-08
8.22803e-08
8.27729e-08
8.31557e-08
8.34657e-08
8.37273e-08
8.39243e-08
8.40588e-08
8.41647e-08
8.42568e-08
8.43229e-08
8.43484e-08
8.43365e-08
8.43027e-08
8.42531e-08
8.41901e-08
8.41117e-08
8.40249e-08
8.39239e-08
8.37893e-08
8.362e-08
8.34338e-08
8.32481e-08
8.30691e-08
8.28913e-08
8.27064e-08
8.25089e-08
8.22969e-08
8.20739e-08
8.18494e-08
8.16136e-08
8.13675e-08
8.11308e-08
8.09049e-08
8.06715e-08
8.04189e-08
8.01458e-08
7.98572e-08
7.95612e-08
7.92627e-08
7.89644e-08
7.86671e-08
7.83702e-08
7.8073e-08
7.77734e-08
7.74697e-08
7.71647e-08
7.68625e-08
7.65681e-08
7.62813e-08
7.59952e-08
7.57057e-08
7.54158e-08
7.51365e-08
7.48702e-08
7.46156e-08
7.43677e-08
7.40904e-08
7.39363e-08
7.36863e-08
7.33946e-08
7.3431e-08
7.29506e-08
7.34714e-08
7.30575e-08
7.3629e-08
6.8528e-08
1.00487e-08
1.01474e-08
1.03848e-08
1.08444e-08
1.15841e-08
1.25259e-08
1.37493e-08
1.5098e-08
1.49313e-08
1.42505e-08
1.39936e-08
1.40718e-08
1.43977e-08
1.50171e-08
1.6041e-08
1.76066e-08
1.98711e-08
2.24834e-08
2.75665e-08
3.61449e-08
4.75675e-08
6.34924e-08
8.65091e-08
1.17814e-07
1.57441e-07
2.04579e-07
2.57289e-07
3.11907e-07
3.62611e-07
4.03573e-07
4.25661e-07
4.42551e-07
4.62675e-07
4.78081e-07
4.9776e-07
5.17042e-07
5.14135e-07
4.79311e-07
4.39496e-07
4.0382e-07
3.63348e-07
3.08347e-07
2.50051e-07
2.05288e-07
1.76834e-07
1.62869e-07
1.56334e-07
1.48679e-07
1.37885e-07
1.26949e-07
1.18736e-07
1.14577e-07
1.12878e-07
1.10068e-07
1.04398e-07
9.63595e-08
8.72967e-08
7.87126e-08
7.20002e-08
6.81383e-08
6.80573e-08
7.27685e-08
8.26232e-08
9.67738e-08
1.08778e-07
1.1547e-07
1.18741e-07
1.19942e-07
1.16829e-07
1.06408e-07
8.95868e-08
7.35606e-08
6.3618e-08
6.17141e-08
7.12819e-08
9.08895e-08
1.19682e-07
1.55693e-07
1.77103e-07
1.84017e-07
1.93791e-07
2.11242e-07
2.46739e-07
2.94149e-07
3.17063e-07
3.58231e-07
3.6751e-07
3.44878e-07
2.93051e-07
2.37191e-07
1.79118e-07
1.27895e-07
9.43998e-08
7.32784e-08
6.50298e-08
6.27858e-08
6.97831e-08
7.99503e-08
1.04133e-07
1.35728e-07
1.5831e-07
1.67538e-07
1.61526e-07
1.5144e-07
1.30723e-07
9.69912e-08
7.36536e-08
5.80652e-08
4.68828e-08
3.49882e-08
2.99669e-08
2.6667e-08
2.50718e-08
2.47636e-08
2.90153e-08
3.37838e-08
4.76486e-08
5.87569e-08
5.80074e-08
4.86052e-08
3.95258e-08
3.36293e-08
2.98942e-08
2.78892e-08
2.72419e-08
2.6303e-08
2.5576e-08
2.5079e-08
2.47987e-08
2.46373e-08
2.4727e-08
2.48795e-08
2.50256e-08
2.51438e-08
2.53007e-08
2.55199e-08
2.57712e-08
2.60498e-08
2.63162e-08
2.65897e-08
2.68893e-08
2.72204e-08
2.75555e-08
2.78572e-08
2.80949e-08
2.82909e-08
2.85132e-08
2.88185e-08
2.92081e-08
2.95988e-08
2.99018e-08
3.01309e-08
3.03869e-08
3.07286e-08
3.11208e-08
3.14989e-08
3.18314e-08
3.21305e-08
3.24153e-08
3.26876e-08
3.29643e-08
3.32823e-08
3.36113e-08
3.38576e-08
3.40403e-08
3.42875e-08
3.45957e-08
3.48038e-08
3.48853e-08
3.49948e-08
3.52261e-08
3.54935e-08
3.55935e-08
3.55108e-08
3.53989e-08
3.53901e-08
3.55482e-08
3.57265e-08
3.57404e-08
3.56146e-08
3.5342e-08
3.49698e-08
3.46771e-08
3.44909e-08
3.44286e-08
3.43629e-08
3.40703e-08
3.36124e-08
3.31662e-08
3.28953e-08
3.26891e-08
3.24175e-08
3.20039e-08
3.14436e-08
3.08488e-08
3.03124e-08
2.99413e-08
2.96524e-08
2.92655e-08
2.86895e-08
2.79598e-08
2.73222e-08
2.68305e-08
2.63789e-08
2.5893e-08
2.53149e-08
2.46829e-08
2.41469e-08
2.37542e-08
2.33579e-08
2.27222e-08
2.20675e-08
2.15385e-08
2.11162e-08
2.08149e-08
2.04962e-08
2.00615e-08
1.95157e-08
1.90024e-08
1.85925e-08
1.82689e-08
1.80273e-08
1.77604e-08
1.74223e-08
1.70311e-08
1.66529e-08
1.63398e-08
1.60911e-08
1.59151e-08
1.57203e-08
1.5464e-08
1.51747e-08
1.49063e-08
1.46972e-08
1.45325e-08
1.43823e-08
1.42362e-08
1.41113e-08
1.39851e-08
1.38568e-08
1.37318e-08
1.35901e-08
1.34891e-08
1.3419e-08
1.33705e-08
1.33487e-08
1.33024e-08
1.32083e-08
1.31463e-08
1.31148e-08
1.30946e-08
1.30842e-08
1.30605e-08
1.30267e-08
1.2995e-08
1.29681e-08
1.29504e-08
1.29361e-08
1.29185e-08
1.28982e-08
1.28747e-08
1.28528e-08
1.28415e-08
1.28405e-08
1.284e-08
1.28305e-08
1.28025e-08
1.27766e-08
1.27606e-08
1.2751e-08
1.27481e-08
1.27503e-08
1.27487e-08
1.27388e-08
1.27215e-08
1.27043e-08
1.26913e-08
1.2681e-08
1.26722e-08
1.26681e-08
1.26695e-08
1.26672e-08
1.26534e-08
1.2634e-08
1.26192e-08
1.26088e-08
1.26004e-08
1.25946e-08
1.25895e-08
1.2579e-08
1.25624e-08
1.25431e-08
1.25253e-08
1.25103e-08
1.24973e-08
1.24843e-08
1.24668e-08
1.2444e-08
1.24185e-08
1.23932e-08
1.23698e-08
1.23473e-08
1.23208e-08
1.22885e-08
1.22537e-08
1.22194e-08
1.21851e-08
1.2148e-08
1.21085e-08
1.20697e-08
1.20346e-08
1.20026e-08
1.19699e-08
1.19341e-08
1.18971e-08
1.18633e-08
1.18327e-08
1.18029e-08
1.17733e-08
1.17443e-08
1.17178e-08
1.16944e-08
1.16728e-08
1.16519e-08
1.16327e-08
1.16171e-08
1.1606e-08
1.15978e-08
1.15908e-08
1.15856e-08
1.15845e-08
1.15893e-08
1.15985e-08
1.1609e-08
1.16176e-08
1.16236e-08
1.16298e-08
1.16388e-08
1.165e-08
1.16608e-08
1.16688e-08
1.16739e-08
1.16771e-08
1.16804e-08
1.16848e-08
1.16867e-08
1.16844e-08
1.16789e-08
1.16729e-08
1.16683e-08
1.16642e-08
1.16579e-08
1.16479e-08
1.16372e-08
1.16276e-08
1.16179e-08
1.1607e-08
1.15958e-08
1.15844e-08
1.15723e-08
1.15602e-08
1.15483e-08
1.15366e-08
1.15252e-08
1.15147e-08
1.15045e-08
1.14932e-08
1.14805e-08
1.14671e-08
1.14548e-08
1.14439e-08
1.14325e-08
1.14194e-08
1.14053e-08
1.1392e-08
1.13796e-08
1.13674e-08
1.1355e-08
1.1343e-08
1.13311e-08
1.13175e-08
1.13015e-08
1.12845e-08
1.12682e-08
1.12524e-08
1.12365e-08
1.12207e-08
1.12036e-08
1.11851e-08
1.11667e-08
1.11496e-08
1.11324e-08
1.11137e-08
1.10943e-08
1.10755e-08
1.10565e-08
1.10383e-08
1.10212e-08
1.10043e-08
1.09863e-08
1.09667e-08
1.09463e-08
1.09273e-08
1.0909e-08
1.08917e-08
1.0874e-08
1.08546e-08
1.08331e-08
1.0813e-08
1.07944e-08
1.07771e-08
1.07603e-08
1.07426e-08
1.07223e-08
1.07015e-08
1.06858e-08
1.06751e-08
1.06667e-08
1.06586e-08
1.06391e-08
1.06051e-08
1.0598e-08
1.06484e-08
1.07076e-08
1.07717e-08
1.0753e-08
1.08617e-08
1.08678e-08
1.08053e-08
1.06696e-08
1.05643e-08
1.05509e-08
1.05306e-08
1.05354e-08
1.05359e-08
1.0527e-08
1.05114e-08
1.04921e-08
1.04676e-08
1.04789e-08
1.057e-08
1.07423e-08
1.09066e-08
1.0857e-08
1.09298e-08
1.08666e-08
1.07733e-08
1.06655e-08
1.05977e-08
1.05699e-08
1.05232e-08
1.04597e-08
1.03878e-08
1.03729e-08
1.03819e-08
1.0419e-08
1.04498e-08
1.04633e-08
1.04501e-08
1.0564e-08
1.06169e-08
1.08188e-08
1.14334e-08
1.15242e-08
1.16404e-08
1.15668e-08
1.13317e-08
1.12145e-08
1.12741e-08
1.14686e-08
1.15126e-08
1.14245e-08
1.13201e-08
1.12286e-08
1.1124e-08
1.10057e-08
1.09011e-08
1.08359e-08
1.08169e-08
1.08304e-08
1.08587e-08
1.08987e-08
1.09483e-08
1.10036e-08
1.10658e-08
1.11221e-08
1.11677e-08
1.12144e-08
1.12732e-08
1.13246e-08
1.13553e-08
1.13875e-08
1.14362e-08
1.14953e-08
1.15434e-08
1.15719e-08
1.1597e-08
1.16218e-08
1.16506e-08
1.16761e-08
1.17083e-08
1.17514e-08
1.17782e-08
1.17788e-08
1.17647e-08
1.17526e-08
1.17528e-08
1.17643e-08
1.17788e-08
1.17919e-08
1.18019e-08
1.18031e-08
1.18108e-08
1.1815e-08
1.18073e-08
1.18074e-08
1.18242e-08
1.18464e-08
1.18617e-08
1.18666e-08
1.1862e-08
1.18513e-08
1.18401e-08
1.18314e-08
1.18254e-08
1.18216e-08
1.182e-08
1.18168e-08
1.18108e-08
1.18028e-08
1.17951e-08
1.17914e-08
1.17911e-08
1.17902e-08
1.17847e-08
1.17748e-08
1.17688e-08
1.17664e-08
1.17684e-08
1.17646e-08
1.17526e-08
1.17705e-08
1.17445e-08
1.17363e-08
1.16806e-08
1.16922e-08
1.17283e-08
1.17205e-08
1.18693e-08
1.1675e-08
1.00207e-08
1.00638e-08
1.01764e-08
1.04117e-08
1.0806e-08
1.12952e-08
1.16966e-08
1.17919e-08
1.16208e-08
1.15484e-08
1.16552e-08
1.1966e-08
1.25391e-08
1.34733e-08
1.47969e-08
1.64274e-08
1.82459e-08
2.06683e-08
2.51401e-08
3.25666e-08
4.41252e-08
6.21394e-08
8.92679e-08
1.26744e-07
1.75137e-07
2.3444e-07
3.02178e-07
3.72899e-07
4.38009e-07
4.96548e-07
5.47504e-07
5.60199e-07
5.46809e-07
5.22878e-07
4.9276e-07
4.52398e-07
3.97973e-07
3.31955e-07
2.76109e-07
2.34011e-07
1.99992e-07
1.64105e-07
1.27655e-07
9.85499e-08
7.93533e-08
6.87093e-08
6.24471e-08
5.75083e-08
5.34407e-08
4.93181e-08
4.57582e-08
4.37693e-08
4.26171e-08
4.10965e-08
3.89606e-08
3.64655e-08
3.36545e-08
3.06355e-08
2.79793e-08
2.61461e-08
2.54612e-08
2.61178e-08
2.79079e-08
3.03647e-08
3.27302e-08
3.47887e-08
3.68618e-08
3.86e-08
3.90802e-08
3.75224e-08
3.44478e-08
3.08813e-08
2.82866e-08
2.76297e-08
2.92397e-08
3.37966e-08
4.12847e-08
5.32611e-08
6.70006e-08
7.69512e-08
8.93806e-08
1.01901e-07
1.1467e-07
1.34634e-07
1.63691e-07
2.10376e-07
2.61137e-07
3.00085e-07
2.93941e-07
2.7887e-07
2.29602e-07
1.76031e-07
1.342e-07
9.91641e-08
7.13601e-08
5.21902e-08
4.14372e-08
3.75452e-08
3.99327e-08
4.96907e-08
6.07734e-08
7.00843e-08
7.3832e-08
7.26258e-08
6.48825e-08
5.23281e-08
4.04004e-08
3.19467e-08
2.54901e-08
2.13069e-08
1.86124e-08
1.659e-08
1.5146e-08
1.37986e-08
1.30805e-08
1.27368e-08
1.37559e-08
1.58501e-08
1.66826e-08
1.68226e-08
1.64404e-08
1.56122e-08
1.45972e-08
1.38327e-08
1.33036e-08
1.28505e-08
1.24776e-08
1.22734e-08
1.2059e-08
1.19484e-08
1.18706e-08
1.18286e-08
1.17667e-08
1.17587e-08
1.17876e-08
1.18408e-08
1.18897e-08
1.19277e-08
1.19617e-08
1.19902e-08
1.20275e-08
1.20775e-08
1.21303e-08
1.21762e-08
1.2211e-08
1.22401e-08
1.22764e-08
1.23261e-08
1.23853e-08
1.24426e-08
1.24892e-08
1.25303e-08
1.25792e-08
1.26406e-08
1.27064e-08
1.27681e-08
1.28266e-08
1.28866e-08
1.29471e-08
1.30036e-08
1.30588e-08
1.312e-08
1.3182e-08
1.32311e-08
1.32732e-08
1.33283e-08
1.33927e-08
1.34373e-08
1.34579e-08
1.34852e-08
1.35345e-08
1.35857e-08
1.36053e-08
1.35906e-08
1.35662e-08
1.35556e-08
1.35712e-08
1.35887e-08
1.35768e-08
1.3537e-08
1.34643e-08
1.33671e-08
1.32787e-08
1.32088e-08
1.31633e-08
1.31225e-08
1.30464e-08
1.29387e-08
1.28248e-08
1.27333e-08
1.26582e-08
1.2584e-08
1.24964e-08
1.23867e-08
1.22665e-08
1.21561e-08
1.20717e-08
1.20016e-08
1.19239e-08
1.18247e-08
1.17109e-08
1.16096e-08
1.15282e-08
1.14535e-08
1.1376e-08
1.12934e-08
1.12112e-08
1.1141e-08
1.10849e-08
1.10285e-08
1.09546e-08
1.08823e-08
1.08223e-08
1.07731e-08
1.07351e-08
1.06987e-08
1.06564e-08
1.06079e-08
1.05621e-08
1.05246e-08
1.04943e-08
1.04704e-08
1.04476e-08
1.04228e-08
1.03964e-08
1.0371e-08
1.03497e-08
1.03325e-08
1.03196e-08
1.03072e-08
1.02933e-08
1.02786e-08
1.02651e-08
1.02544e-08
1.02462e-08
1.02397e-08
1.0234e-08
1.02289e-08
1.02236e-08
1.02183e-08
1.02135e-08
1.02092e-08
1.0206e-08
1.02038e-08
1.02024e-08
1.02016e-08
1.02005e-08
1.01983e-08
1.01963e-08
1.01953e-08
1.01951e-08
1.0195e-08
1.01946e-08
1.01937e-08
1.01929e-08
1.01923e-08
1.0192e-08
1.01917e-08
1.01911e-08
1.01901e-08
1.01891e-08
1.01883e-08
1.0188e-08
1.01881e-08
1.01881e-08
1.01877e-08
1.01864e-08
1.0185e-08
1.01839e-08
1.01834e-08
1.01833e-08
1.01833e-08
1.0183e-08
1.01825e-08
1.01817e-08
1.01808e-08
1.018e-08
1.01793e-08
1.01788e-08
1.01787e-08
1.01788e-08
1.01786e-08
1.01779e-08
1.01769e-08
1.01761e-08
1.01756e-08
1.01753e-08
1.01751e-08
1.01749e-08
1.01745e-08
1.01738e-08
1.0173e-08
1.01723e-08
1.01717e-08
1.01713e-08
1.01709e-08
1.01703e-08
1.01695e-08
1.01686e-08
1.01675e-08
1.01665e-08
1.01656e-08
1.01646e-08
1.01634e-08
1.01619e-08
1.01604e-08
1.01589e-08
1.01574e-08
1.01557e-08
1.01539e-08
1.01524e-08
1.0151e-08
1.01496e-08
1.01479e-08
1.01459e-08
1.01442e-08
1.01428e-08
1.01413e-08
1.01399e-08
1.01385e-08
1.01372e-08
1.01361e-08
1.0135e-08
1.0134e-08
1.01332e-08
1.01326e-08
1.01323e-08
1.0132e-08
1.01317e-08
1.01316e-08
1.01319e-08
1.01326e-08
1.01335e-08
1.01342e-08
1.01346e-08
1.01348e-08
1.01351e-08
1.01355e-08
1.0136e-08
1.01364e-08
1.01367e-08
1.01368e-08
1.01368e-08
1.01369e-08
1.01371e-08
1.0137e-08
1.01366e-08
1.01362e-08
1.01358e-08
1.01355e-08
1.01352e-08
1.01348e-08
1.01342e-08
1.01337e-08
1.01331e-08
1.01326e-08
1.0132e-08
1.01314e-08
1.01308e-08
1.01302e-08
1.01295e-08
1.01289e-08
1.01283e-08
1.01277e-08
1.01271e-08
1.01265e-08
1.01258e-08
1.01251e-08
1.01244e-08
1.01237e-08
1.01231e-08
1.01226e-08
1.0122e-08
1.01213e-08
1.01207e-08
1.01201e-08
1.01196e-08
1.01191e-08
1.01186e-08
1.01181e-08
1.01175e-08
1.01167e-08
1.01157e-08
1.01148e-08
1.01139e-08
1.0113e-08
1.0112e-08
1.01109e-08
1.01097e-08
1.01086e-08
1.01075e-08
1.01064e-08
1.01052e-08
1.0104e-08
1.01029e-08
1.01017e-08
1.01005e-08
1.00994e-08
1.00984e-08
1.00973e-08
1.0096e-08
1.00947e-08
1.00934e-08
1.00923e-08
1.00911e-08
1.009e-08
1.00887e-08
1.00874e-08
1.0086e-08
1.00847e-08
1.00835e-08
1.00826e-08
1.00819e-08
1.00812e-08
1.00806e-08
1.00799e-08
1.00791e-08
1.00776e-08
1.00776e-08
1.0078e-08
1.00792e-08
1.008e-08
1.00786e-08
1.00794e-08
1.00795e-08
1.00779e-08
1.00763e-08
1.00751e-08
1.00749e-08
1.00744e-08
1.00739e-08
1.00731e-08
1.00716e-08
1.00697e-08
1.00677e-08
1.00674e-08
1.00668e-08
1.00671e-08
1.00691e-08
1.00714e-08
1.00712e-08
1.00745e-08
1.00743e-08
1.00709e-08
1.0066e-08
1.00629e-08
1.00619e-08
1.00615e-08
1.00617e-08
1.00616e-08
1.00608e-08
1.00605e-08
1.00601e-08
1.00601e-08
1.00603e-08
1.00605e-08
1.00617e-08
1.00627e-08
1.0066e-08
1.008e-08
1.00897e-08
1.01012e-08
1.01181e-08
1.01199e-08
1.01153e-08
1.01108e-08
1.01109e-08
1.011e-08
1.01119e-08
1.01183e-08
1.0124e-08
1.01256e-08
1.01222e-08
1.01146e-08
1.01044e-08
1.00937e-08
1.00844e-08
1.00775e-08
1.0073e-08
1.00704e-08
1.0069e-08
1.00686e-08
1.00689e-08
1.00698e-08
1.00712e-08
1.00726e-08
1.0074e-08
1.00755e-08
1.00775e-08
1.00795e-08
1.0081e-08
1.00825e-08
1.00846e-08
1.00872e-08
1.00894e-08
1.0091e-08
1.00923e-08
1.00936e-08
1.00949e-08
1.00963e-08
1.00981e-08
1.00999e-08
1.01011e-08
1.01012e-08
1.01006e-08
1.01002e-08
1.01002e-08
1.01007e-08
1.01014e-08
1.0102e-08
1.01025e-08
1.01028e-08
1.01034e-08
1.01037e-08
1.01036e-08
1.01038e-08
1.01047e-08
1.01058e-08
1.01066e-08
1.01068e-08
1.01067e-08
1.01063e-08
1.01058e-08
1.01054e-08
1.01052e-08
1.01051e-08
1.01051e-08
1.0105e-08
1.01047e-08
1.01042e-08
1.01039e-08
1.01039e-08
1.0104e-08
1.01041e-08
1.01039e-08
1.01035e-08
1.01033e-08
1.01032e-08
1.01034e-08
1.0103e-08
1.01026e-08
1.01031e-08
1.01025e-08
1.01015e-08
1.00996e-08
1.01e-08
1.01023e-08
1.01055e-08
1.01132e-08
1.01071e-08
1.00166e-08
1.00472e-08
1.01239e-08
1.02731e-08
1.05011e-08
1.07496e-08
1.09336e-08
1.09638e-08
1.0931e-08
1.09744e-08
1.11453e-08
1.15126e-08
1.2219e-08
1.34906e-08
1.55208e-08
1.82918e-08
2.23136e-08
2.70111e-08
3.3074e-08
4.18105e-08
5.4565e-08
7.16535e-08
9.30689e-08
1.1931e-07
1.49979e-07
1.81768e-07
2.09509e-07
2.26487e-07
2.38791e-07
2.64124e-07
3.04627e-07
3.49567e-07
3.72406e-07
3.52719e-07
3.12685e-07
2.64415e-07
2.16339e-07
1.73516e-07
1.41525e-07
1.18155e-07
9.75289e-08
7.63539e-08
5.88116e-08
4.61811e-08
3.78553e-08
3.28225e-08
2.98209e-08
2.77551e-08
2.59924e-08
2.43834e-08
2.30579e-08
2.21942e-08
2.16716e-08
2.12093e-08
2.0605e-08
1.98486e-08
1.89245e-08
1.78481e-08
1.67614e-08
1.5892e-08
1.54316e-08
1.53723e-08
1.54808e-08
1.56869e-08
1.60164e-08
1.65636e-08
1.74236e-08
1.85064e-08
1.92734e-08
1.93644e-08
1.88462e-08
1.80406e-08
1.73039e-08
1.69857e-08
1.73487e-08
1.86211e-08
2.07687e-08
2.37276e-08
2.75259e-08
3.17276e-08
3.7813e-08
4.63268e-08
5.57274e-08
6.98233e-08
8.67809e-08
1.06047e-07
1.3225e-07
1.59618e-07
1.8338e-07
2.00905e-07
2.00915e-07
1.84178e-07
1.57711e-07
1.2097e-07
9.13962e-08
7.03452e-08
5.26493e-08
3.9723e-08
3.19285e-08
2.89102e-08
2.89752e-08
3.07179e-08
3.2956e-08
3.40757e-08
3.35272e-08
3.08932e-08
2.72285e-08
2.38743e-08
2.08253e-08
1.82741e-08
1.64949e-08
1.53353e-08
1.44645e-08
1.36975e-08
1.29632e-08
1.2376e-08
1.18578e-08
1.15392e-08
1.12322e-08
1.12114e-08
1.12646e-08
1.12074e-08
1.11276e-08
1.10499e-08
1.09487e-08
1.08138e-08
1.07279e-08
1.0655e-08
1.05777e-08
1.05046e-08
1.04524e-08
1.04088e-08
1.03789e-08
1.03599e-08
1.03493e-08
1.03451e-08
1.0345e-08
1.03491e-08
1.03538e-08
1.03595e-08
1.03663e-08
1.03737e-08
1.03816e-08
1.03892e-08
1.03959e-08
1.04024e-08
1.04101e-08
1.04197e-08
1.04305e-08
1.04405e-08
1.0449e-08
1.04573e-08
1.04677e-08
1.04799e-08
1.04919e-08
1.05024e-08
1.05128e-08
1.05245e-08
1.0537e-08
1.0549e-08
1.05601e-08
1.05713e-08
1.05819e-08
1.05907e-08
1.05994e-08
1.06105e-08
1.06223e-08
1.06301e-08
1.06335e-08
1.06378e-08
1.06459e-08
1.06536e-08
1.06558e-08
1.06519e-08
1.06453e-08
1.06403e-08
1.06392e-08
1.06385e-08
1.06326e-08
1.06213e-08
1.06042e-08
1.0583e-08
1.05629e-08
1.05455e-08
1.05321e-08
1.05198e-08
1.05032e-08
1.04821e-08
1.04588e-08
1.04377e-08
1.04195e-08
1.0403e-08
1.03863e-08
1.03674e-08
1.03467e-08
1.03271e-08
1.03109e-08
1.02972e-08
1.02838e-08
1.02688e-08
1.02524e-08
1.02374e-08
1.02248e-08
1.02133e-08
1.0202e-08
1.01908e-08
1.01804e-08
1.01714e-08
1.01635e-08
1.01557e-08
1.01471e-08
1.0139e-08
1.01321e-08
1.01263e-08
1.01215e-08
1.01171e-08
1.01125e-08
1.01078e-08
1.01033e-08
1.00995e-08
1.00963e-08
1.00936e-08
1.00912e-08
1.00889e-08
1.00866e-08
1.00844e-08
1.00824e-08
1.00807e-08
1.00794e-08
1.00781e-08
1.00769e-08
1.00756e-08
1.00745e-08
1.00736e-08
1.00728e-08
1.00721e-08
1.00715e-08
1.00709e-08
1.00703e-08
1.00698e-08
1.00693e-08
1.00689e-08
1.00686e-08
1.00683e-08
1.0068e-08
1.00678e-08
1.00676e-08
1.00674e-08
1.00672e-08
1.0067e-08
1.00669e-08
1.00668e-08
1.00667e-08
1.00665e-08
1.00663e-08
1.00662e-08
1.00661e-08
1.00661e-08
1.0066e-08
1.00658e-08
1.00656e-08
1.00655e-08
1.00654e-08
1.00654e-08
1.00653e-08
1.00653e-08
1.00652e-08
1.00651e-08
1.0065e-08
1.00649e-08
1.00648e-08
1.00648e-08
1.00648e-08
1.00647e-08
1.00647e-08
1.00646e-08
1.00645e-08
1.00644e-08
1.00643e-08
1.00643e-08
1.00643e-08
1.00643e-08
1.00642e-08
1.00642e-08
1.00641e-08
1.0064e-08
1.0064e-08
1.00639e-08
1.00639e-08
1.00639e-08
1.00639e-08
1.00638e-08
1.00637e-08
1.00636e-08
1.00635e-08
1.00634e-08
1.00634e-08
1.00633e-08
1.00631e-08
1.0063e-08
1.00628e-08
1.00627e-08
1.00626e-08
1.00624e-08
1.00622e-08
1.0062e-08
1.00618e-08
1.00617e-08
1.00614e-08
1.00612e-08
1.0061e-08
1.00608e-08
1.00606e-08
1.00604e-08
1.00601e-08
1.00598e-08
1.00596e-08
1.00594e-08
1.00591e-08
1.00589e-08
1.00586e-08
1.00584e-08
1.00581e-08
1.00579e-08
1.00577e-08
1.00576e-08
1.00575e-08
1.00573e-08
1.00571e-08
1.00569e-08
1.00568e-08
1.00566e-08
1.00565e-08
1.00564e-08
1.00562e-08
1.0056e-08
1.00559e-08
1.00557e-08
1.00555e-08
1.00553e-08
1.00552e-08
1.0055e-08
1.00549e-08
1.00548e-08
1.00547e-08
1.00547e-08
1.00546e-08
1.00545e-08
1.00544e-08
1.00543e-08
1.00542e-08
1.0054e-08
1.00539e-08
1.00538e-08
1.00536e-08
1.00535e-08
1.00534e-08
1.00533e-08
1.00532e-08
1.00531e-08
1.0053e-08
1.00529e-08
1.00528e-08
1.00527e-08
1.00526e-08
1.00525e-08
1.00524e-08
1.00523e-08
1.00522e-08
1.00521e-08
1.0052e-08
1.00519e-08
1.00518e-08
1.00516e-08
1.00515e-08
1.00514e-08
1.00513e-08
1.00512e-08
1.00511e-08
1.00509e-08
1.00508e-08
1.00507e-08
1.00505e-08
1.00504e-08
1.00503e-08
1.00501e-08
1.005e-08
1.00498e-08
1.00497e-08
1.00495e-08
1.00494e-08
1.00492e-08
1.00491e-08
1.0049e-08
1.00488e-08
1.00487e-08
1.00486e-08
1.00484e-08
1.00483e-08
1.00481e-08
1.00479e-08
1.00478e-08
1.00476e-08
1.00474e-08
1.00473e-08
1.0047e-08
1.00468e-08
1.00467e-08
1.00467e-08
1.00467e-08
1.00467e-08
1.00466e-08
1.00466e-08
1.00466e-08
1.00465e-08
1.00468e-08
1.00472e-08
1.00475e-08
1.00479e-08
1.00481e-08
1.0049e-08
1.00495e-08
1.00489e-08
1.00481e-08
1.00473e-08
1.0047e-08
1.00464e-08
1.00461e-08
1.00458e-08
1.00452e-08
1.00452e-08
1.00454e-08
1.00456e-08
1.00461e-08
1.00466e-08
1.0047e-08
1.00474e-08
1.0048e-08
1.0049e-08
1.005e-08
1.00496e-08
1.00484e-08
1.00471e-08
1.00462e-08
1.00455e-08
1.00449e-08
1.00444e-08
1.00439e-08
1.00438e-08
1.00438e-08
1.0044e-08
1.00441e-08
1.00447e-08
1.00454e-08
1.00461e-08
1.00475e-08
1.00504e-08
1.00566e-08
1.0065e-08
1.00754e-08
1.00822e-08
1.00841e-08
1.00823e-08
1.00784e-08
1.00731e-08
1.00674e-08
1.00622e-08
1.00579e-08
1.00547e-08
1.00524e-08
1.00509e-08
1.00499e-08
1.00492e-08
1.00484e-08
1.00475e-08
1.00465e-08
1.00456e-08
1.00447e-08
1.00439e-08
1.00432e-08
1.00426e-08
1.00421e-08
1.00416e-08
1.00413e-08
1.0041e-08
1.00407e-08
1.00405e-08
1.00404e-08
1.00404e-08
1.00404e-08
1.00404e-08
1.00405e-08
1.00406e-08
1.00407e-08
1.00408e-08
1.00409e-08
1.0041e-08
1.00412e-08
1.00413e-08
1.00415e-08
1.00416e-08
1.00417e-08
1.00418e-08
1.00418e-08
1.00417e-08
1.00417e-08
1.00417e-08
1.00418e-08
1.00418e-08
1.00419e-08
1.0042e-08
1.00421e-08
1.00421e-08
1.00422e-08
1.00422e-08
1.00422e-08
1.00422e-08
1.00422e-08
1.00422e-08
1.00422e-08
1.00421e-08
1.0042e-08
1.0042e-08
1.0042e-08
1.0042e-08
1.00419e-08
1.00419e-08
1.00417e-08
1.00416e-08
1.00415e-08
1.00414e-08
1.00413e-08
1.00413e-08
1.00413e-08
1.00413e-08
1.00412e-08
1.00412e-08
1.00412e-08
1.00412e-08
1.00411e-08
1.0041e-08
1.0041e-08
1.00409e-08
1.00408e-08
1.00408e-08
1.0041e-08
1.00417e-08
1.00429e-08
1.00451e-08
1.00437e-08
1.00134e-08
1.00349e-08
1.00868e-08
1.01831e-08
1.0325e-08
1.04749e-08
1.05887e-08
1.06188e-08
1.06298e-08
1.06916e-08
1.08393e-08
1.11294e-08
1.17101e-08
1.28294e-08
1.4781e-08
1.78431e-08
2.21418e-08
2.76693e-08
3.4442e-08
4.24429e-08
5.1532e-08
6.20283e-08
7.40615e-08
8.68252e-08
9.84976e-08
1.0688e-07
1.12263e-07
1.21879e-07
1.41448e-07
1.67012e-07
1.89417e-07
2.00484e-07
1.89722e-07
1.64696e-07
1.36317e-07
1.11971e-07
9.33545e-08
7.87766e-08
6.6508e-08
5.56469e-08
4.52086e-08
3.60977e-08
2.93541e-08
2.45155e-08
2.12117e-08
1.90636e-08
1.7697e-08
1.67825e-08
1.60934e-08
1.55271e-08
1.50927e-08
1.48024e-08
1.46143e-08
1.44538e-08
1.42522e-08
1.39849e-08
1.36668e-08
1.33069e-08
1.29185e-08
1.25439e-08
1.22983e-08
1.21726e-08
1.21108e-08
1.2106e-08
1.217e-08
1.23281e-08
1.26084e-08
1.30071e-08
1.33918e-08
1.35892e-08
1.35712e-08
1.33992e-08
1.32032e-08
1.30934e-08
1.31695e-08
1.35328e-08
1.42153e-08
1.51822e-08
1.64313e-08
1.79388e-08
1.99309e-08
2.27607e-08
2.68468e-08
3.36673e-08
4.36732e-08
5.54471e-08
7.09356e-08
8.97454e-08
1.06754e-07
1.19404e-07
1.27734e-07
1.27407e-07
1.19002e-07
1.03469e-07
8.51165e-08
6.79493e-08
5.31507e-08
4.14288e-08
3.27831e-08
2.67442e-08
2.29247e-08
2.0813e-08
1.98677e-08
1.94053e-08
1.91559e-08
1.8689e-08
1.78958e-08
1.70085e-08
1.60911e-08
1.52073e-08
1.44698e-08
1.38717e-08
1.33794e-08
1.306e-08
1.28276e-08
1.25714e-08
1.22503e-08
1.1875e-08
1.15449e-08
1.12304e-08
1.09557e-08
1.07026e-08
1.05511e-08
1.04583e-08
1.0395e-08
1.03557e-08
1.03325e-08
1.03137e-08
1.03002e-08
1.03003e-08
1.02915e-08
1.02688e-08
1.02415e-08
1.02161e-08
1.01922e-08
1.01773e-08
1.01659e-08
1.01564e-08
1.01494e-08
1.01442e-08
1.01408e-08
1.01389e-08
1.0138e-08
1.01378e-08
1.01381e-08
1.01388e-08
1.01399e-08
1.01415e-08
1.01432e-08
1.01448e-08
1.01464e-08
1.01482e-08
1.01504e-08
1.01529e-08
1.01553e-08
1.01575e-08
1.01597e-08
1.01622e-08
1.01649e-08
1.01676e-08
1.01702e-08
1.01725e-08
1.01746e-08
1.01764e-08
1.01783e-08
1.01805e-08
1.01826e-08
1.01842e-08
1.01849e-08
1.01856e-08
1.01866e-08
1.01876e-08
1.01878e-08
1.01869e-08
1.01853e-08
1.01837e-08
1.01825e-08
1.01814e-08
1.01796e-08
1.01768e-08
1.01729e-08
1.01683e-08
1.01638e-08
1.01596e-08
1.0156e-08
1.01526e-08
1.01489e-08
1.01446e-08
1.01398e-08
1.01353e-08
1.01312e-08
1.01276e-08
1.01241e-08
1.01205e-08
1.01168e-08
1.01131e-08
1.01099e-08
1.01071e-08
1.01045e-08
1.01019e-08
1.00992e-08
1.00966e-08
1.00943e-08
1.00922e-08
1.00902e-08
1.00884e-08
1.00866e-08
1.0085e-08
1.00835e-08
1.00821e-08
1.00807e-08
1.00794e-08
1.00782e-08
1.00771e-08
1.00761e-08
1.00752e-08
1.00743e-08
1.00735e-08
1.00727e-08
1.00719e-08
1.00712e-08
1.00705e-08
1.00699e-08
1.00693e-08
1.00688e-08
1.00682e-08
1.00677e-08
1.00672e-08
1.00668e-08
1.00663e-08
1.00659e-08
1.00655e-08
1.00652e-08
1.00648e-08
1.00645e-08
1.00642e-08
1.00639e-08
1.00636e-08
1.00634e-08
1.00631e-08
1.00629e-08
1.00626e-08
1.00624e-08
1.00622e-08
1.0062e-08
1.00619e-08
1.00617e-08
1.00616e-08
1.00614e-08
1.00612e-08
1.00611e-08
1.0061e-08