/*--------------------------------*- C++ -*----------------------------------*\
| =========                 |                                                 |
| \\      /  F ield         | OpenFOAM: The Open Source CFD Toolbox           |
|  \\    /   O peration     | Version:  v2006                                 |
|   \\  /    A nd           | Website:  www.openfoam.com                      |
|    \\/     M anipulation  |                                                 |
\*---------------------------------------------------------------------------*/
FoamFile
{
    version     2.0;
    format      ascii;
    class       volScalarField;
    location    "7.7";
    object      p;
}
// * * * * * * * * * * * * * * * * * * * * * * * * * * * * * * * * * * * * * //

dimensions      [1 -1 -2 0 0 0 0];


internalField   nonuniform List<scalar> 
33000
(
7452.76
7463.49
7470.55
7478.41
7486.32
7494.25
7502.25
7510.44
7518.91
7527.59
7536.18
7544.22
7551.35
7557.77
7563.37
7568.51
7573.92
7579.97
7586.66
7593.75
7600.89
7607.91
7615.05
7622.1
7628.9
7635.55
7642.06
7648.37
7654.57
7660.8
7667.19
7673.67
7680.22
7687.18
7694.07
7700.59
7706.91
7713.09
7719.18
7725.17
7731.07
7736.9
7742.69
7748.39
7754.01
7759.53
7764.95
7770.3
7775.61
7780.84
7785.99
7791.05
7796.02
7800.89
7805.73
7810.5
7815.18
7819.79
7824.33
7828.78
7833.13
7837.41
7841.6
7845.71
7849.74
7853.74
7857.69
7861.55
7865.36
7869.1
7872.77
7876.41
7879.99
7883.56
7887.13
7890.65
7894.19
7897.12
7896.67
7894.49
7903.37
7904.64
7908
7911.3
7913.65
7916.38
7919.97
7923
7926.08
7928.65
7931.83
7934.46
7937.44
7940.39
7943.38
7946.46
7949.72
7952.74
7956.75
7959
7959.23
7961.41
7963.2
7965.25
7967.47
7969.43
7971.23
7973.26
7975.27
7977.64
7979.67
7982.02
7984.15
7986.38
7988.53
7990.74
7993.06
7995.27
7997.28
7999.59
8001.76
8004.01
8006.29
8008.59
8010.84
8013.17
8015.48
8017.86
8020.25
8022.71
8025.13
8027.62
8030.07
8032.59
8035.08
8037.64
8040.19
8042.74
8045.29
8047.82
8050.35
8052.86
8055.35
8057.8
8060.22
8062.61
8064.97
8067.29
8069.55
8071.75
8073.87
8075.93
8077.92
8079.83
8081.64
8083.35
8084.95
8086.44
8087.82
8089.08
8090.21
8091.2
8092.05
8092.76
8093.32
8093.73
8093.98
8094.05
8093.98
8093.74
8093.32
8092.72
8091.94
8091
8089.89
8088.6
8087.12
8085.46
8083.63
8081.64
8079.49
8077.19
8074.72
8072.1
8069.33
8066.42
8063.38
8060.22
8056.94
8053.54
8050.03
8046.42
8042.73
8038.96
8035.11
8031.18
8027.19
8023.13
8019.03
8014.89
8010.72
8006.51
8002.27
7998
7993.71
7989.41
7985.1
7980.77
7976.43
7972.08
7967.75
7963.41
7959.06
7954.71
7950.36
7946.01
7941.67
7937.34
7933
7928.67
7924.34
7920.01
7915.7
7911.39
7907.09
7902.8
7898.52
7894.25
7889.99
7885.74
7881.51
7877.31
7873.11
7868.94
7864.78
7860.64
7856.53
7852.44
7848.38
7844.36
7840.37
7836.42
7832.5
7828.62
7824.77
7820.97
7817.22
7813.51
7809.85
7806.23
7802.67
7799.15
7795.69
7792.28
7788.93
7785.63
7782.38
7779.18
7776.05
7772.97
7769.94
7766.98
7764.07
7761.22
7758.43
7755.71
7753.05
7750.45
7747.91
7745.44
7743.03
7740.68
7738.4
7736.18
7734.03
7731.94
7729.92
7727.96
7726.06
7724.22
7722.45
7720.74
7719.09
7717.51
7715.99
7714.54
7713.15
7711.82
7710.55
7709.34
7708.2
7707.11
7706.08
7705.11
7704.19
7703.33
7702.51
7701.76
7701.05
7700.39
7699.78
7699.22
7698.71
7698.24
7697.82
7697.44
7697.1
7696.81
7696.56
7696.34
7696.17
7696.03
7695.93
7695.87
7695.84
7695.85
7695.89
7695.96
7696.06
7696.2
7696.36
7696.55
7696.78
7697.03
7697.31
7697.62
7697.95
7698.32
7698.71
7699.13
7699.57
7700.05
7700.54
7701.07
7701.62
7702.2
7702.81
7703.45
7704.11
7704.79
7705.51
7706.25
7707.02
7707.81
7708.64
7709.49
7710.36
7711.26
7712.19
7713.14
7714.12
7715.13
7716.16
7717.22
7718.3
7719.41
7720.55
7721.71
7722.89
7724.1
7725.33
7726.59
7727.87
7729.17
7730.5
7731.85
7733.22
7734.62
7736.04
7737.48
7738.94
7740.42
7741.92
7743.45
7744.99
7746.56
7748.14
7749.75
7751.37
7753.01
7754.66
7756.34
7758.03
7759.74
7761.47
7763.21
7764.96
7766.73
7768.52
7770.32
7772.13
7773.95
7775.79
7777.63
7779.49
7781.35
7783.22
7785.1
7786.99
7788.88
7790.78
7792.68
7794.59
7796.49
7798.41
7800.32
7802.23
7804.14
7806.05
7807.96
7809.86
7811.76
7813.66
7815.55
7817.44
7819.32
7821.18
7823.05
7824.9
7826.74
7828.57
7830.4
7832.21
7834
7835.78
7837.56
7839.31
7841.06
7842.79
7844.5
7846.2
7847.86
7849.51
7851.16
7852.78
7854.39
7855.97
7857.53
7859.05
7860.55
7862.01
7863.43
7864.83
7866.2
7867.52
7868.82
7870.09
7871.23
7872.44
7873.65
7874.75
7875.84
7876.85
7877.84
7878.75
7879.65
7880.49
7881.31
7882.07
7882.78
7883.49
7884.08
7884.69
7885.29
7885.8
7886.22
7886.84
7886.82
7887.41
7887.95
7888.18
7888.27
7888.39
7888.51
7888.6
7888.68
7888.74
7888.77
7888.78
7888.77
7888.73
7888.66
7888.56
7888.43
7888.28
7888.09
7887.87
7887.62
7887.34
7887.02
7886.67
7886.29
7885.88
7885.43
7884.94
7884.42
7883.87
7883.28
7882.66
7882
7881.3
7880.57
7879.8
7879
7878.16
7877.29
7876.38
7875.43
7874.45
7873.44
7872.39
7871.31
7870.19
7869.03
7867.85
7866.62
7865.37
7864.08
7862.75
7861.4
7860.01
7858.59
7857.13
7855.64
7854.13
7852.58
7851
7849.38
7847.74
7846.07
7844.37
7842.63
7840.87
7839.08
7837.25
7835.4
7833.52
7831.62
7829.68
7827.71
7825.72
7823.7
7821.65
7819.56
7817.46
7815.33
7813.17
7810.95
7808.95
7805.73
7256.35
7267.11
7274.16
7282.03
7289.86
7297.72
7305.68
7313.76
7322.03
7330.33
7338.41
7345.83
7352.61
7358.8
7364.42
7369.79
7375.59
7382.3
7389.65
7397.1
7404.45
7411.77
7418.98
7425.98
7432.75
7439.29
7445.62
7451.73
7457.78
7463.92
7470.32
7477
7483.89
7490.93
7497.97
7504.68
7511.04
7517.19
7523.25
7529.26
7535.17
7540.97
7546.75
7552.43
7558.04
7563.58
7569
7574.34
7579.65
7584.87
7590
7595.08
7600.06
7604.92
7609.74
7614.5
7619.17
7623.76
7628.3
7632.74
7637.09
7641.38
7645.57
7649.71
7653.79
7657.8
7661.72
7665.54
7669.32
7673.03
7676.67
7680.26
7683.79
7687.24
7690.63
7693.91
7696.98
7699.9
7702.76
7706.23
7709.77
7708.89
7705.84
7715.17
7717.6
7721.1
7724.51
7727.16
7729.43
7731.97
7735.51
7738.07
7741.25
7743.91
7746.96
7749.58
7752.85
7755.43
7758.63
7760.74
7763.18
7766.55
7768.32
7768.1
7770.53
7772.59
7775.06
7777.22
7779.61
7781.78
7783.55
7785.74
7787.92
7790.1
7792.37
7794.56
7796.78
7798.93
7801.09
7803.47
7805.67
7807.69
7810
7812.28
7814.58
7816.95
7819.29
7821.62
7824
7826.42
7828.85
7831.34
7833.82
7836.32
7838.85
7841.39
7843.95
7846.49
7849.05
7851.59
7854.13
7856.65
7859.15
7861.63
7864.07
7866.48
7868.84
7871.17
7873.43
7875.64
7877.78
7879.86
7881.86
7883.77
7885.59
7887.31
7888.93
7890.44
7891.83
7893.09
7894.22
7895.22
7896.09
7896.8
7897.38
7897.8
7898.05
7898.14
7898.07
7897.83
7897.42
7896.83
7896.07
7895.13
7894.01
7892.72
7891.25
7889.61
7887.78
7885.79
7883.64
7881.34
7878.88
7876.26
7873.49
7870.58
7867.53
7864.37
7861.09
7857.69
7854.18
7850.57
7846.87
7843.09
7839.23
7835.3
7831.3
7827.24
7823.13
7818.98
7814.79
7810.57
7806.32
7802.04
7797.74
7793.43
7789.1
7784.76
7780.41
7776.06
7771.71
7767.36
7763
7758.64
7754.28
7749.92
7745.56
7741.22
7736.87
7732.53
7728.19
7723.86
7719.53
7715.21
7710.91
7706.61
7702.32
7698.04
7693.78
7689.53
7685.29
7681.08
7676.87
7672.69
7668.52
7664.38
7660.26
7656.17
7652.11
7648.08
7644.09
7640.13
7636.2
7632.32
7628.48
7624.68
7620.92
7617.21
7613.55
7609.93
7606.36
7602.84
7599.38
7595.97
7592.61
7589.3
7586.05
7582.85
7579.72
7576.63
7573.61
7570.64
7567.73
7564.88
7562.09
7559.37
7556.71
7554.1
7551.57
7549.09
7546.68
7544.34
7542.06
7539.84
7537.68
7535.6
7533.57
7531.61
7529.71
7527.87
7526.1
7524.39
7522.75
7521.17
7519.65
7518.2
7516.81
7515.48
7514.21
7513.01
7511.87
7510.78
7509.75
7508.78
7507.87
7507
7506.19
7505.44
7504.73
7504.08
7503.47
7502.91
7502.4
7501.93
7501.51
7501.14
7500.8
7500.51
7500.26
7500.05
7499.88
7499.74
7499.65
7499.58
7499.56
7499.57
7499.61
7499.68
7499.79
7499.92
7500.09
7500.28
7500.51
7500.76
7501.04
7501.35
7501.69
7502.06
7502.45
7502.87
7503.32
7503.79
7504.29
7504.82
7505.37
7505.95
7506.56
7507.19
7507.86
7508.55
7509.26
7510
7510.77
7511.57
7512.39
7513.24
7514.12
7515.02
7515.95
7516.9
7517.88
7518.89
7519.92
7520.98
7522.06
7523.17
7524.31
7525.47
7526.65
7527.86
7529.09
7530.35
7531.63
7532.93
7534.26
7535.61
7536.98
7538.38
7539.79
7541.23
7542.69
7544.18
7545.68
7547.2
7548.75
7550.31
7551.9
7553.5
7555.12
7556.76
7558.42
7560.09
7561.78
7563.49
7565.22
7566.96
7568.71
7570.48
7572.27
7574.07
7575.88
7577.7
7579.54
7581.38
7583.24
7585.1
7586.97
7588.85
7590.74
7592.63
7594.53
7596.44
7598.34
7600.25
7602.17
7604.08
7605.99
7607.9
7609.82
7611.73
7613.63
7615.54
7617.44
7619.33
7621.22
7623.1
7624.98
7626.84
7628.7
7630.54
7632.38
7634.2
7636.01
7637.81
7639.61
7641.38
7643.14
7644.88
7646.58
7648.3
7649.98
7651.68
7653.33
7655
7656.62
7658.25
7659.82
7661.39
7662.9
7664.4
7665.88
7667.31
7668.73
7670.08
7671.34
7672.61
7673.95
7675.14
7676.39
7677.53
7678.64
7679.72
7680.73
7681.73
7682.64
7683.57
7684.37
7685.23
7685.91
7686.69
7687.37
7688.07
7688.58
7689.34
7689.3
7690.08
7690.77
7691.12
7691.33
7691.58
7691.83
7692.02
7692.18
7692.32
7692.43
7692.52
7692.58
7692.62
7692.64
7692.63
7692.59
7692.53
7692.43
7692.31
7692.15
7691.97
7691.75
7691.5
7691.22
7690.91
7690.56
7690.18
7689.76
7689.31
7688.83
7688.31
7687.76
7687.17
7686.54
7685.88
7685.19
7684.46
7683.69
7682.89
7682.05
7681.17
7680.26
7679.32
7678.34
7677.32
7676.28
7675.19
7674.07
7672.92
7671.73
7670.51
7669.25
7667.96
7666.64
7665.28
7663.89
7662.46
7661.01
7659.52
7658
7656.45
7654.87
7653.26
7651.62
7649.94
7648.24
7646.5
7644.74
7642.95
7641.12
7639.27
7637.39
7635.48
7633.55
7631.58
7629.59
7627.56
7625.51
7623.43
7621.32
7619.19
7617.03
7614.82
7612.82
7609.6
7059.75
7070.56
7077.62
7085.46
7093.27
7101.07
7108.96
7116.93
7124.92
7132.77
7140.34
7147.5
7154.18
7160.25
7165.66
7170.99
7176.9
7183.87
7191.86
7200.16
7208.23
7215.98
7223.27
7230.19
7236.88
7243.36
7249.64
7255.75
7261.79
7267.9
7274.21
7280.84
7287.79
7294.85
7301.83
7308.53
7314.94
7321.19
7327.3
7333.36
7339.34
7345.2
7350.97
7356.65
7362.26
7367.8
7373.25
7378.6
7383.89
7389.1
7394.21
7399.28
7404.26
7409.13
7413.93
7418.68
7423.35
7427.93
7432.45
7436.88
7441.25
7445.56
7449.76
7453.92
7458.01
7462.01
7465.93
7469.76
7473.5
7477.15
7480.76
7484.34
7487.87
7491.29
7494.66
7497.95
7501.06
7504
7506.67
7509.21
7512.08
7515.19
7519.39
7523.16
7521.84
7517.36
7527.52
7531.11
7535.41
7536.72
7539.96
7541.95
7544.37
7547.68
7550.44
7553.46
7556.32
7559.08
7561.71
7564.36
7566.29
7568.78
7570.69
7572.98
7577.23
7578.25
7577.94
7580.17
7582.07
7584.99
7586.99
7589.94
7591.93
7593.98
7596
7598.3
7600.45
7602.77
7604.93
7607.1
7609.25
7611.47
7613.9
7616.15
7618.19
7620.58
7622.9
7625.3
7627.74
7630.22
7632.57
7635.11
7637.52
7640.11
7642.61
7645.21
7647.76
7650.32
7652.88
7655.42
7657.97
7660.49
7663.01
7665.5
7667.97
7670.39
7672.78
7675.12
7677.4
7679.62
7681.79
7683.88
7685.91
7687.83
7689.67
7691.41
7693.05
7694.59
7696.01
7697.29
7698.44
7699.47
7700.35
7701.09
7701.69
7702.13
7702.4
7702.51
7702.45
7702.22
7701.82
7701.24
7700.49
7699.56
7698.45
7697.17
7695.71
7694.08
7692.27
7690.29
7688.14
7685.84
7683.38
7680.76
7678
7675.09
7672.04
7668.87
7665.58
7662.18
7658.67
7655.05
7651.34
7647.54
7643.66
7639.71
7635.7
7631.63
7627.51
7623.33
7619.12
7614.88
7610.61
7606.31
7601.99
7597.66
7593.3
7588.94
7584.57
7580.2
7575.82
7571.44
7567.06
7562.67
7558.29
7553.91
7549.54
7545.16
7540.79
7536.43
7532.08
7527.73
7523.39
7519.05
7514.72
7510.41
7506.1
7501.81
7497.54
7493.27
7489.03
7484.79
7480.58
7476.38
7472.2
7468.05
7463.92
7459.83
7455.76
7451.72
7447.71
7443.74
7439.81
7435.92
7432.08
7428.28
7424.52
7420.8
7417.13
7413.51
7409.94
7406.42
7402.95
7399.53
7396.16
7392.85
7389.59
7386.39
7383.25
7380.16
7377.13
7374.16
7371.25
7368.4
7365.61
7362.88
7360.22
7357.62
7355.08
7352.6
7350.19
7347.84
7345.56
7343.34
7341.18
7339.09
7337.07
7335.1
7333.21
7331.37
7329.61
7327.9
7326.26
7324.68
7323.17
7321.72
7320.33
7319.01
7317.75
7316.54
7315.4
7314.32
7313.29
7312.33
7311.41
7310.56
7309.75
7309
7308.3
7307.65
7307.04
7306.49
7305.98
7305.52
7305.11
7304.73
7304.41
7304.12
7303.87
7303.67
7303.5
7303.37
7303.27
7303.22
7303.19
7303.2
7303.25
7303.33
7303.43
7303.57
7303.74
7303.94
7304.17
7304.43
7304.71
7305.03
7305.37
7305.73
7306.13
7306.55
7307
7307.48
7307.98
7308.51
7309.07
7309.65
7310.26
7310.89
7311.56
7312.25
7312.96
7313.71
7314.48
7315.27
7316.1
7316.95
7317.83
7318.73
7319.66
7320.62
7321.6
7322.6
7323.64
7324.7
7325.78
7326.89
7328.02
7329.18
7330.37
7331.58
7332.81
7334.07
7335.35
7336.65
7337.98
7339.33
7340.7
7342.09
7343.51
7344.95
7346.41
7347.89
7349.39
7350.91
7352.46
7354.02
7355.6
7357.21
7358.83
7360.46
7362.12
7363.8
7365.49
7367.19
7368.92
7370.66
7372.41
7374.18
7375.97
7377.77
7379.58
7381.4
7383.24
7385.08
7386.94
7388.81
7390.68
7392.56
7394.45
7396.35
7398.25
7400.15
7402.07
7403.97
7405.89
7407.81
7409.73
7411.64
7413.56
7415.47
7417.38
7419.29
7421.19
7423.1
7424.99
7426.88
7428.75
7430.62
7432.48
7434.33
7436.17
7438.03
7439.83
7441.65
7443.42
7445.16
7446.91
7448.64
7450.38
7452.1
7453.82
7455.51
7457.2
7458.86
7460.5
7462.12
7463.73
7465.29
7466.86
7468.36
7469.85
7471.2
7472.61
7474.03
7475.37
7476.7
7477.96
7479.16
7480.37
7481.52
7482.65
7483.71
7484.75
7485.72
7486.64
7487.5
7488.37
7489.19
7490.02
7490.65
7491.58
7491.59
7492.57
7493.36
7493.81
7494.09
7494.42
7494.74
7495.04
7495.33
7495.59
7495.82
7496.01
7496.16
7496.3
7496.4
7496.48
7496.53
7496.56
7496.55
7496.52
7496.46
7496.37
7496.25
7496.1
7495.92
7495.71
7495.46
7495.18
7494.87
7494.52
7494.14
7493.73
7493.28
7492.8
7492.28
7491.73
7491.14
7490.51
7489.86
7489.16
7488.43
7487.66
7486.86
7486.02
7485.15
7484.24
7483.29
7482.31
7481.3
7480.25
7479.16
7478.04
7476.88
7475.69
7474.47
7473.21
7471.92
7470.6
7469.24
7467.85
7466.42
7464.97
7463.48
7461.96
7460.41
7458.82
7457.21
7455.56
7453.89
7452.18
7450.45
7448.68
7446.89
7445.07
7443.21
7441.33
7439.42
7437.48
7435.52
7433.52
7431.5
7429.45
7427.36
7425.26
7423.12
7420.97
7418.75
7416.75
7413.54
6862.98
6873.86
6880.92
6888.72
6896.51
6904.27
6912.08
6919.95
6927.72
6935.33
6942.64
6949.64
6956.34
6962.79
6969.05
6975.3
6981.88
6989.01
6996.93
7004.7
7012.42
7019.96
7027.23
7034.17
7040.87
7047.4
7053.81
7060.14
7066.46
7072.91
7079.57
7086.34
7093.16
7099.96
7106.66
7113.17
7119.48
7125.66
7131.76
7137.8
7143.79
7149.68
7155.4
7161.06
7166.67
7172.21
7177.67
7183.03
7188.31
7193.49
7198.6
7203.66
7208.64
7213.51
7218.32
7223.05
7227.72
7232.28
7236.79
7241.23
7245.62
7249.91
7254.13
7258.29
7262.36
7266.35
7270.26
7274.1
7277.83
7281.47
7285.05
7288.59
7292.08
7295.48
7298.8
7302.05
7305.19
7308.2
7311.12
7313.96
7316.71
7319.29
7321.69
7324.35
7327.42
7331.26
7335.73
7338.92
7337.47
7332.21
7343.83
7346.62
7348.68
7351.55
7353.79
7356.02
7359.44
7362
7364.83
7367.21
7369.57
7371.76
7374.17
7375.75
7378.14
7379.34
7382.47
7385.1
7388.63
7390.42
7390.23
7392.75
7395.1
7397.53
7400.15
7402.3
7404.19
7406.29
7408.5
7410.72
7413.02
7415.27
7417.41
7419.65
7421.88
7424.42
7426.72
7428.81
7431.24
7433.65
7436.09
7438.65
7441.16
7443.65
7446.22
7448.77
7451.37
7453.93
7456.55
7459.14
7461.71
7464.28
7466.81
7469.34
7471.84
7474.31
7476.72
7479.09
7481.39
7483.66
7485.86
7488
7490.05
7492.02
7493.89
7495.68
7497.35
7498.93
7500.38
7501.71
7502.9
7503.95
7504.87
7505.65
7506.27
7506.73
7507.02
7507.16
7507.12
7506.91
7506.53
7505.98
7505.24
7504.32
7503.22
7501.95
7500.51
7498.88
7497.09
7495.12
7492.99
7490.69
7488.23
7485.62
7482.85
7479.95
7476.9
7473.72
7470.42
7467.01
7463.48
7459.86
7456.13
7452.31
7448.4
7444.43
7440.4
7436.31
7432.15
7427.95
7423.71
7419.44
7415.14
7410.81
7406.46
7402.08
7397.69
7393.3
7388.9
7384.49
7380.07
7375.65
7371.23
7366.81
7362.4
7357.99
7353.58
7349.17
7344.77
7340.38
7335.99
7331.62
7327.25
7322.89
7318.54
7314.2
7309.87
7305.56
7301.26
7296.98
7292.71
7288.46
7284.22
7280.01
7275.82
7271.65
7267.51
7263.4
7259.32
7255.27
7251.25
7247.27
7243.33
7239.44
7235.58
7231.77
7228.01
7224.28
7220.6
7216.97
7213.39
7209.87
7206.39
7202.96
7199.58
7196.26
7193
7189.8
7186.65
7183.56
7180.52
7177.55
7174.63
7171.78
7168.99
7166.26
7163.59
7160.98
7158.44
7155.96
7153.54
7151.19
7148.91
7146.69
7144.53
7142.44
7140.41
7138.45
7136.56
7134.73
7132.96
7131.26
7129.62
7128.05
7126.54
7125.09
7123.71
7122.39
7121.14
7119.94
7118.8
7117.72
7116.7
7115.74
7114.84
7113.99
7113.19
7112.44
7111.75
7111.1
7110.51
7109.96
7109.46
7109
7108.6
7108.23
7107.91
7107.63
7107.39
7107.19
7107.03
7106.9
7106.81
7106.76
7106.74
7106.76
7106.81
7106.89
7107.01
7107.15
7107.33
7107.53
7107.76
7108.03
7108.32
7108.63
7108.98
7109.35
7109.75
7110.17
7110.63
7111.11
7111.61
7112.15
7112.71
7113.29
7113.9
7114.54
7115.21
7115.9
7116.62
7117.37
7118.14
7118.94
7119.76
7120.62
7121.49
7122.4
7123.33
7124.29
7125.27
7126.28
7127.31
7128.37
7129.46
7130.57
7131.7
7132.86
7134.04
7135.25
7136.49
7137.74
7139.02
7140.32
7141.65
7143
7144.37
7145.76
7147.18
7148.62
7150.08
7151.56
7153.06
7154.58
7156.12
7157.68
7159.27
7160.87
7162.49
7164.12
7165.78
7167.45
7169.14
7170.85
7172.57
7174.31
7176.07
7177.84
7179.62
7181.42
7183.23
7185.05
7186.89
7188.73
7190.59
7192.46
7194.33
7196.22
7198.11
7200.01
7201.91
7203.82
7205.74
7207.65
7209.57
7211.5
7213.41
7215.34
7217.26
7219.18
7221.1
7223.01
7224.93
7226.83
7228.74
7230.63
7232.52
7234.39
7236.3
7238.14
7240.01
7241.83
7243.58
7245.38
7247.14
7248.93
7250.7
7252.47
7254.22
7255.98
7257.69
7259.42
7261.1
7262.82
7264.45
7266.15
7267.71
7269.31
7270.77
7272.29
7273.82
7275.27
7276.71
7278.06
7279.4
7280.69
7282
7283.21
7284.46
7285.58
7286.75
7287.75
7288.82
7289.83
7290.72
7291.68
7292.43
7293.55
7293.58
7294.77
7295.67
7296.2
7296.57
7296.98
7297.39
7297.78
7298.17
7298.54
7298.88
7299.18
7299.46
7299.7
7299.91
7300.09
7300.24
7300.36
7300.45
7300.51
7300.55
7300.55
7300.53
7300.48
7300.39
7300.28
7300.13
7299.95
7299.74
7299.5
7299.23
7298.92
7298.57
7298.2
7297.78
7297.34
7296.86
7296.34
7295.79
7295.2
7294.58
7293.92
7293.22
7292.49
7291.73
7290.92
7290.09
7289.21
7288.3
7287.36
7286.37
7285.36
7284.3
7283.21
7282.09
7280.94
7279.74
7278.52
7277.26
7275.97
7274.64
7273.28
7271.89
7270.46
7269
7267.51
7265.99
7264.43
7262.85
7261.23
7259.59
7257.91
7256.2
7254.46
7252.7
7250.9
7249.08
7247.22
7245.34
7243.43
7241.49
7239.52
7237.52
7235.5
7233.44
7231.36
7229.25
7227.12
7224.96
7222.75
7220.75
7217.53
6666.04
6677
6684.08
6691.86
6699.65
6707.43
6715.2
6722.98
6730.62
6738.11
6745.41
6752.53
6759.42
6766.23
6773.07
6779.95
6786.97
6794.19
6801.64
6809.17
6816.64
6823.97
6831.11
6838.07
6844.87
6851.57
6858.17
6864.73
6871.28
6877.87
6884.51
6891.19
6897.91
6904.58
6911.14
6917.57
6923.89
6930.12
6936.27
6942.36
6948.34
6954.22
6959.96
6965.62
6971.23
6976.77
6982.22
6987.59
6992.86
6998.04
7003.16
7008.21
7013.18
7018.07
7022.88
7027.59
7032.24
7036.81
7041.3
7045.75
7050.13
7054.42
7058.65
7062.79
7066.85
7070.83
7074.73
7078.56
7082.3
7085.94
7089.51
7093.04
7096.47
7099.86
7103.15
7106.38
7109.55
7112.6
7115.54
7118.38
7121.18
7123.97
7126.8
7129.66
7132.24
7134.67
7137.32
7140.1
7143.03
7147.39
7151.62
7149.41
7142.9
7155.44
7158.93
7160.55
7163.6
7165.11
7167.37
7170.7
7172.92
7175.44
7177.62
7179.83
7182.07
7184.22
7186.16
7188.28
7190.24
7192.7
7195.09
7199.9
7201.01
7200.47
7202.86
7205.38
7207.71
7210.4
7212.48
7214.28
7216.38
7218.64
7220.93
7223.28
7225.6
7227.78
7230.12
7232.43
7235.06
7237.51
7239.62
7242.32
7244.68
7247.39
7249.89
7252.61
7255.19
7257.76
7260.39
7262.94
7265.56
7268.13
7270.72
7273.25
7275.81
7278.28
7280.74
7283.13
7285.48
7287.78
7290.03
7292.21
7294.3
7296.31
7298.23
7300.07
7301.8
7303.41
7304.91
7306.29
7307.54
7308.64
7309.61
7310.42
7311.08
7311.58
7311.91
7312.08
7312.08
7311.9
7311.54
7311.01
7310.3
7309.4
7308.33
7307.07
7305.64
7304.03
7302.25
7300.3
7298.18
7295.89
7293.44
7290.82
7288.06
7285.15
7282.1
7278.92
7275.6
7272.17
7268.62
7264.98
7261.23
7257.39
7253.46
7249.45
7245.39
7241.26
7237.07
7232.84
7228.56
7224.24
7219.9
7215.52
7211.12
7206.7
7202.27
7197.83
7193.38
7188.92
7184.45
7179.99
7175.52
7171.05
7166.59
7162.14
7157.69
7153.24
7148.79
7144.36
7139.94
7135.53
7131.13
7126.73
7122.35
7117.98
7113.62
7109.27
7104.95
7100.64
7096.35
7092.07
7087.82
7083.58
7079.37
7075.19
7071.03
7066.9
7062.8
7058.74
7054.71
7050.71
7046.76
7042.85
7038.99
7035.16
7031.38
7027.64
7023.95
7020.31
7016.73
7013.19
7009.7
7006.26
7002.88
6999.55
6996.28
6993.07
6989.91
6986.81
6983.77
6980.79
6977.87
6975.01
6972.22
6969.48
6966.81
6964.2
6961.65
6959.16
6956.75
6954.39
6952.1
6949.88
6947.72
6945.63
6943.61
6941.65
6939.75
6937.93
6936.17
6934.47
6932.84
6931.27
6929.77
6928.33
6926.96
6925.64
6924.39
6923.2
6922.07
6921
6919.99
6919.03
6918.13
6917.29
6916.5
6915.76
6915.08
6914.44
6913.86
6913.32
6912.83
6912.38
6911.98
6911.63
6911.31
6911.04
6910.81
6910.62
6910.46
6910.35
6910.27
6910.23
6910.22
6910.24
6910.3
6910.39
6910.51
6910.66
6910.84
6911.05
6911.29
6911.56
6911.85
6912.18
6912.53
6912.91
6913.31
6913.74
6914.2
6914.68
6915.19
6915.73
6916.3
6916.89
6917.5
6918.14
6918.81
6919.51
6920.23
6920.98
6921.75
6922.56
6923.38
6924.24
6925.12
6926.03
6926.96
6927.92
6928.9
6929.91
6930.95
6932.01
6933.09
6934.2
6935.34
6936.5
6937.68
6938.89
6940.12
6941.38
6942.66
6943.96
6945.28
6946.63
6948
6949.39
6950.81
6952.25
6953.7
6955.18
6956.68
6958.2
6959.74
6961.3
6962.88
6964.48
6966.1
6967.73
6969.39
6971.06
6972.75
6974.45
6976.17
6977.91
6979.67
6981.44
6983.22
6985.02
6986.83
6988.65
6990.49
6992.34
6994.2
6996.06
6997.95
6999.83
7001.73
7003.63
7005.54
7007.45
7009.38
7011.3
7013.23
7015.15
7017.09
7019.01
7020.95
7022.87
7024.8
7026.72
7028.64
7030.56
7032.46
7034.41
7036.28
7038.21
7040.06
7041.82
7043.65
7045.44
7047.27
7049.08
7050.9
7052.7
7054.5
7056.29
7058.07
7059.84
7061.6
7063.34
7065.09
7066.78
7068.42
7070.06
7071.73
7073.31
7074.91
7076.39
7077.9
7079.33
7080.77
7082.18
7083.54
7084.89
7086.16
7087.45
7088.59
7089.8
7090.96
7092.02
7093.14
7094.14
7094.97
7095.37
7096.64
7097.67
7098.28
7098.74
7099.25
7099.75
7100.26
7100.75
7101.22
7101.66
7102.07
7102.44
7102.79
7103.11
7103.4
7103.66
7103.88
7104.08
7104.24
7104.38
7104.48
7104.56
7104.6
7104.62
7104.61
7104.56
7104.49
7104.38
7104.24
7104.07
7103.86
7103.63
7103.35
7103.05
7102.71
7102.34
7101.93
7101.48
7101
7100.49
7099.94
7099.35
7098.73
7098.07
7097.37
7096.64
7095.88
7095.07
7094.23
7093.36
7092.45
7091.5
7090.52
7089.5
7088.45
7087.36
7086.23
7085.07
7083.88
7082.65
7081.39
7080.09
7078.76
7077.4
7076.01
7074.58
7073.12
7071.62
7070.1
7068.54
7066.95
7065.33
7063.68
7062
7060.29
7058.55
7056.78
7054.98
7053.16
7051.3
7049.41
7047.5
7045.56
7043.59
7041.59
7039.56
7037.51
7035.42
7033.32
7031.18
7029.03
7026.81
7024.81
7021.59
6468.96
6480.01
6487.12
6494.91
6502.73
6510.52
6518.29
6526.05
6533.64
6541.11
6548.42
6555.62
6562.73
6569.83
6576.95
6584.12
6591.36
6598.68
6606.05
6613.42
6620.75
6627.99
6635.12
6642.14
6649.04
6655.87
6662.63
6669.35
6676.05
6682.75
6689.47
6696.16
6702.82
6709.41
6715.9
6722.32
6728.65
6734.92
6741.11
6747.16
6753.11
6758.94
6764.68
6770.34
6775.95
6781.49
6786.94
6792.3
6797.57
6802.76
6807.87
6812.92
6817.89
6822.79
6827.6
6832.31
6836.93
6841.5
6845.99
6850.42
6854.8
6859.09
6863.3
6867.45
6871.5
6875.48
6879.39
6883.22
6886.96
6890.6
6894.14
6897.63
6901.05
6904.39
6907.67
6910.88
6914.03
6917.1
6920.07
6922.95
6925.78
6928.59
6931.37
6934.11
6936.79
6939.53
6942.28
6945.03
6947.47
6949.58
6951.94
6954.5
6958.94
6963.5
6960.93
6953.76
6966.93
6970.53
6971.59
6974.44
6975.81
6977.44
6980.83
6982.66
6985.18
6986.98
6989.45
6991.47
6994.02
6996.48
6998.38
7000.77
7002.68
7005.27
7010.09
7011.04
7010.31
7012.8
7015.41
7017.78
7020.54
7022.65
7024.44
7026.59
7028.91
7031.25
7033.66
7036.05
7038.24
7040.68
7042.97
7045.83
7048.29
7050.61
7053.27
7055.84
7058.54
7061.16
7063.95
7066.62
7069.24
7071.9
7074.48
7077.09
7079.66
7082.22
7084.71
7087.19
7089.58
7091.96
7094.26
7096.5
7098.65
7100.74
7102.72
7104.62
7106.41
7108.1
7109.66
7111.1
7112.41
7113.58
7114.6
7115.46
7116.17
7116.71
7117.09
7117.3
7117.34
7117.19
7116.87
7116.37
7115.68
7114.82
7113.77
7112.54
7111.13
7109.53
7107.77
7105.84
7103.73
7101.45
7098.99
7096.38
7093.61
7090.7
7087.65
7084.45
7081.12
7077.66
7074.09
7070.42
7066.65
7062.78
7058.82
7054.77
7050.66
7046.49
7042.26
7037.98
7033.65
7029.29
7024.88
7020.45
7015.99
7011.51
7007.02
7002.52
6998.01
6993.49
6988.96
6984.43
6979.91
6975.39
6970.87
6966.35
6961.85
6957.35
6952.86
6948.37
6943.9
6939.44
6934.99
6930.56
6926.13
6921.73
6917.33
6912.95
6908.59
6904.25
6899.93
6895.62
6891.34
6887.08
6882.85
6878.64
6874.46
6870.31
6866.19
6862.11
6858.06
6854.05
6850.09
6846.16
6842.27
6838.43
6834.64
6830.89
6827.19
6823.54
6819.94
6816.39
6812.89
6809.44
6806.05
6802.71
6799.43
6796.2
6793.03
6789.93
6786.88
6783.89
6780.96
6778.1
6775.3
6772.56
6769.87
6767.26
6764.7
6762.21
6759.79
6757.43
6755.14
6752.92
6750.76
6748.67
6746.64
6744.69
6742.8
6740.98
6739.22
6737.53
6735.91
6734.35
6732.85
6731.42
6730.05
6728.75
6727.5
6726.32
6725.2
6724.14
6723.13
6722.19
6721.3
6720.47
6719.69
6718.96
6718.29
6717.67
6717.09
6716.56
6716.09
6715.65
6715.27
6714.92
6714.62
6714.36
6714.14
6713.96
6713.81
6713.71
6713.64
6713.61
6713.61
6713.64
6713.71
6713.8
6713.93
6714.09
6714.28
6714.5
6714.75
6715.03
6715.33
6715.66
6716.02
6716.4
6716.81
6717.25
6717.71
6718.2
6718.72
6719.26
6719.83
6720.43
6721.05
6721.69
6722.37
6723.07
6723.79
6724.54
6725.32
6726.13
6726.96
6727.82
6728.7
6729.61
6730.54
6731.5
6732.49
6733.5
6734.54
6735.6
6736.69
6737.8
6738.93
6740.09
6741.28
6742.49
6743.72
6744.97
6746.25
6747.55
6748.88
6750.22
6751.59
6752.98
6754.4
6755.83
6757.29
6758.76
6760.26
6761.78
6763.32
6764.87
6766.45
6768.05
6769.66
6771.3
6772.95
6774.62
6776.31
6778.01
6779.73
6781.47
6783.22
6784.99
6786.77
6788.57
6790.38
6792.2
6794.04
6795.89
6797.75
6799.62
6801.5
6803.4
6805.29
6807.2
6809.11
6811.04
6812.96
6814.9
6816.83
6818.78
6820.7
6822.65
6824.57
6826.5
6828.44
6830.37
6832.37
6834.27
6836.25
6838.13
6839.89
6841.76
6843.56
6845.43
6847.28
6849.14
6850.98
6852.84
6854.68
6856.52
6858.34
6860.18
6861.98
6863.82
6865.58
6867.32
6869.04
6870.81
6872.48
6874.16
6875.75
6877.37
6878.92
6880.47
6882.02
6883.49
6884.98
6886.34
6887.79
6889.02
6890.43
6891.63
6892.96
6894.03
6895.53
6895.85
6897.45
6898.59
6899.27
6899.88
6900.52
6901.16
6901.78
6902.4
6903
6903.58
6904.14
6904.65
6905.13
6905.58
6906.01
6906.4
6906.76
6907.1
6907.41
6907.68
6907.93
6908.14
6908.32
6908.47
6908.59
6908.68
6908.74
6908.76
6908.76
6908.73
6908.66
6908.56
6908.43
6908.26
6908.06
6907.83
6907.57
6907.27
6906.93
6906.56
6906.15
6905.71
6905.24
6904.73
6904.18
6903.59
6902.97
6902.31
6901.62
6900.89
6900.12
6899.31
6898.47
6897.6
6896.68
6895.74
6894.75
6893.73
6892.68
6891.58
6890.46
6889.29
6888.1
6886.87
6885.6
6884.3
6882.97
6881.6
6880.2
6878.77
6877.31
6875.81
6874.28
6872.72
6871.13
6869.51
6867.85
6866.17
6864.45
6862.71
6860.94
6859.14
6857.31
6855.45
6853.56
6851.64
6849.7
6847.73
6845.73
6843.69
6841.64
6839.55
6837.45
6835.31
6833.15
6830.93
6828.93
6825.72
6271.73
6282.88
6290.03
6297.85
6305.71
6313.56
6321.36
6329.13
6336.71
6344.2
6351.59
6358.89
6366.2
6373.51
6380.84
6388.2
6395.57
6402.94
6410.3
6417.64
6424.94
6432.18
6439.33
6446.41
6453.4
6460.32
6467.18
6474
6480.8
6487.57
6494.32
6501.02
6507.66
6514.21
6520.7
6527.12
6533.47
6539.75
6545.95
6552.01
6557.95
6563.78
6569.53
6575.21
6580.83
6586.38
6591.84
6597.2
6602.47
6607.64
6612.76
6617.81
6622.78
6627.68
6632.49
6637.21
6641.82
6646.36
6650.87
6655.27
6659.63
6663.92
6668.13
6672.27
6676.33
6680.3
6684.2
6688.01
6691.76
6695.4
6698.93
6702.37
6705.75
6709.06
6712.33
6715.52
6718.65
6721.72
6724.74
6727.63
6730.47
6733.27
6736.05
6738.79
6741.5
6744.2
6746.84
6749.43
6751.95
6754.4
6756.84
6759.12
6761.25
6763.45
6765.75
6770.5
6775.12
6772.07
6764.13
6777.8
6782.07
6781.88
6784.61
6786.19
6787.77
6790.75
6793.01
6795.17
6797.65
6799.49
6801.9
6804.02
6806.59
6808.28
6810.64
6812.37
6815.06
6820.14
6820.9
6820.01
6822.56
6825.3
6827.73
6830.57
6832.8
6834.5
6836.86
6839.14
6841.75
6844.27
6846.77
6849.4
6851.73
6854.46
6856.98
6859.88
6862.52
6864.86
6867.66
6870.22
6872.98
6875.71
6878.44
6881.02
6883.68
6886.2
6888.78
6891.29
6893.78
6896.2
6898.58
6900.86
6903.09
6905.23
6907.31
6909.28
6911.15
6912.9
6914.53
6916.04
6917.43
6918.67
6919.76
6920.69
6921.46
6922.07
6922.51
6922.78
6922.87
6922.77
6922.49
6922.03
6921.4
6920.57
6919.56
6918.36
6916.97
6915.4
6913.67
6911.75
6909.64
6907.36
6904.91
6902.29
6899.52
6896.61
6893.54
6890.33
6886.98
6883.5
6879.9
6876.19
6872.39
6868.48
6864.48
6860.39
6856.23
6852
6847.72
6843.38
6838.99
6834.55
6830.08
6825.58
6821.04
6816.5
6811.94
6807.36
6802.77
6798.17
6793.57
6788.97
6784.38
6779.79
6775.2
6770.61
6766.04
6761.48
6756.93
6752.38
6747.86
6743.34
6738.84
6734.35
6729.88
6725.43
6721
6716.58
6712.18
6707.79
6703.43
6699.1
6694.79
6690.5
6686.23
6682
6677.79
6673.62
6669.48
6665.38
6661.31
6657.28
6653.3
6649.35
6645.45
6641.59
6637.78
6634.02
6630.3
6626.64
6623.02
6619.46
6615.95
6612.49
6609.08
6605.73
6602.44
6599.2
6596.02
6592.91
6589.85
6586.85
6583.91
6581.04
6578.23
6575.48
6572.79
6570.16
6567.6
6565.11
6562.68
6560.32
6558.02
6555.79
6553.64
6551.55
6549.53
6547.58
6545.69
6543.87
6542.12
6540.44
6538.82
6537.27
6535.79
6534.36
6533
6531.71
6530.47
6529.3
6528.19
6527.14
6526.15
6525.21
6524.34
6523.52
6522.75
6522.04
6521.38
6520.77
6520.21
6519.7
6519.23
6518.82
6518.44
6518.11
6517.82
6517.58
6517.37
6517.2
6517.07
6516.98
6516.92
6516.9
6516.92
6516.96
6517.04
6517.15
6517.29
6517.46
6517.66
6517.89
6518.15
6518.43
6518.74
6519.08
6519.45
6519.84
6520.26
6520.71
6521.18
6521.67
6522.19
6522.74
6523.32
6523.92
6524.54
6525.2
6525.87
6526.58
6527.31
6528.07
6528.85
6529.66
6530.49
6531.35
6532.24
6533.15
6534.09
6535.05
6536.04
6537.05
6538.09
6539.15
6540.24
6541.35
6542.49
6543.65
6544.83
6546.04
6547.27
6548.53
6549.81
6551.11
6552.43
6553.77
6555.14
6556.53
6557.94
6559.37
6560.83
6562.3
6563.79
6565.31
6566.84
6568.4
6569.97
6571.57
6573.18
6574.81
6576.46
6578.13
6579.81
6581.51
6583.23
6584.97
6586.72
6588.49
6590.27
6592.06
6593.88
6595.7
6597.54
6599.39
6601.26
6603.13
6605.02
6606.91
6608.82
6610.73
6612.66