/*--------------------------------*- C++ -*----------------------------------*\
| =========                 |                                                 |
| \\      /  F ield         | OpenFOAM: The Open Source CFD Toolbox           |
|  \\    /   O peration     | Version:  v2006                                 |
|   \\  /    A nd           | Website:  www.openfoam.com                      |
|    \\/     M anipulation  |                                                 |
\*---------------------------------------------------------------------------*/
FoamFile
{
    version     2.0;
    format      ascii;
    class       volVectorField;
    location    "7.7";
    object      U;
}
// * * * * * * * * * * * * * * * * * * * * * * * * * * * * * * * * * * * * * //

dimensions      [0 1 -1 0 0 0 0];


internalField   nonuniform List<vector> 
33000
(
(-0.0512542 0 -0.000294136)
(-0.0865353 0 -0.000808751)
(-0.0687094 0 -0.000501237)
(-0.0756604 0 8.54421e-05)
(-0.0723788 0 0.00138952)
(-0.0760012 0 0.00245762)
(-0.077579 0 0.00265585)
(-0.079427 0 0.00215525)
(-0.0779691 0 -0.000814797)
(-0.0647538 0 -0.00964588)
(-0.0395162 0 -0.0216828)
(-0.0128293 0 -0.0266863)
(0.0155093 0 -0.0300435)
(0.0444159 0 -0.0320798)
(0.0738369 0 -0.027033)
(0.100006 0 -0.0146197)
(0.11469 0 -0.000369481)
(0.1155 0 0.00706471)
(0.110461 0 0.00945238)
(0.0998295 0 0.00743719)
(0.0913311 0 0.000976389)
(0.0881368 0 -0.00415188)
(0.0884401 0 -0.00579069)
(0.091297 0 -0.00624093)
(0.0987456 0 -0.00737893)
(0.108446 0 -0.00925031)
(0.119537 0 -0.0110582)
(0.13108 0 -0.010785)
(0.141232 0 -0.0066931)
(0.148287 0 -1.16249e-05)
(0.151547 0 0.0049928)
(0.151586 0 0.00606303)
(0.149416 0 0.00608716)
(0.142023 0 0.00949633)
(0.130138 0 0.0139168)
(0.119291 0 0.0126776)
(0.110815 0 0.00810698)
(0.106183 0 0.00452902)
(0.103271 0 0.00377474)
(0.0997244 0 0.00433223)
(0.0956859 0 0.00378792)
(0.0928779 0 0.00184944)
(0.0922502 0 -0.000349469)
(0.0937808 0 -0.00229472)
(0.0965525 0 -0.0026671)
(0.0988464 0 -0.000855886)
(0.0996828 0 0.000745987)
(0.0997471 0 0.00087106)
(0.0996251 0 7.19371e-05)
(0.100551 0 -0.00207402)
(0.103133 0 -0.00295708)
(0.105868 0 -0.00187807)
(0.107797 0 -0.000398908)
(0.108666 0 0.000160278)
(0.109009 0 2.21682e-05)
(0.109478 0 -0.000765242)
(0.11097 0 -0.00162612)
(0.113158 0 -0.00189153)
(0.115778 0 -0.00203726)
(0.118859 0 -0.00264663)
(0.122636 0 -0.00354581)
(0.126311 0 -0.00318436)
(0.128645 0 -0.00130389)
(0.129079 0 0.000858362)
(0.128495 0 0.00141244)
(0.127403 0 0.00119134)
(0.126385 0 0.000987937)
(0.125391 0 0.00137763)
(0.123862 0 0.00147496)
(0.121933 0 0.00149937)
(0.120603 0 0.000580023)
(0.120494 0 -0.000154752)
(0.120576 0 -3.61748e-05)
(0.12014 0 0.000317847)
(0.119743 0 0.00267432)
(0.115408 0 0.00388659)
(0.114505 0 0.00952466)
(0.10268 0 0.0175065)
(0.0753406 0 0.0101199)
(0.0774174 0 0.000970364)
(0.0683126 0 -0.00398461)
(0.0708508 0 -0.00528067)
(0.0700956 0 0.00121839)
(0.0693809 0 0.00278227)
(0.0702869 0 0.00364093)
(0.0692038 0 0.00336275)
(0.0658058 0 0.0024433)
(0.0630711 0 -2.18105e-05)
(0.0604866 0 -0.00138609)
(0.0591281 0 -0.000128308)
(0.0573927 0 -1.23687e-05)
(0.0572416 0 0.000795423)
(0.0563833 0 0.00109237)
(0.0550604 0 0.00118362)
(0.0540267 0 0.00183333)
(0.0514136 0 0.00187907)
(0.0499793 0 0.00414437)
(0.0446264 0 0.0044698)
(0.0424875 0 0.0103851)
(0.0309463 0 0.00981118)
(0.0247335 0 0.00564919)
(0.0155974 0 -0.00323857)
(0.0144745 0 -0.00756358)
(0.0132572 0 -0.00301334)
(0.012557 0 0.000845205)
(0.0145244 0 0.00316769)
(0.0148583 0 0.00240426)
(0.0144895 0 0.00147376)
(0.012931 0 -0.000783179)
(0.0122143 0 -0.0019715)
(0.0121976 0 -0.00160879)
(0.0116973 0 -0.000868605)
(0.0121704 0 -0.000131986)
(0.0120487 0 0.000340073)
(0.0120816 0 0.000817678)
(0.0110277 0 0.000894568)
(0.0106629 0 0.00233816)
(0.00761676 0 0.00240119)
(0.00635029 0 0.00108765)
(0.00468262 0 -0.0010646)
(0.00522282 0 -0.00204383)
(0.00500871 0 -0.000728512)
(0.00493719 0 -1.02228e-05)
(0.00557203 0 0.00055134)
(0.00580907 0 0.000378607)
(0.00578063 0 7.44988e-06)
(0.0058971 0 -0.000372716)
(0.00585338 0 -0.000226098)
(0.00584443 0 -0.000175058)
(0.00603626 0 8.24885e-06)
(0.00620497 0 -1.26199e-05)
(0.00636508 0 -2.24241e-05)
(0.00657769 0 -0.000145151)
(0.00669451 0 -6.51872e-05)
(0.00685149 0 -9.94357e-05)
(0.00698589 0 -9.05305e-05)
(0.00728231 0 -0.000142851)
(0.00759002 0 -0.00013954)
(0.00791926 0 -0.000166327)
(0.00825157 0 -0.000193146)
(0.00858015 0 -0.000225184)
(0.00894146 0 -0.000258948)
(0.00931859 0 -0.000279708)
(0.00972015 0 -0.000280553)
(0.0100863 0 -0.000257584)
(0.010449 0 -0.000265851)
(0.0108188 0 -0.000282574)
(0.0112101 0 -0.000314134)
(0.0116368 0 -0.000341945)
(0.0120811 0 -0.000342728)
(0.0124995 0 -0.000309293)
(0.012886 0 -0.000303056)
(0.0132949 0 -0.000335286)
(0.0137457 0 -0.000361614)
(0.0142087 0 -0.000366736)
(0.0146656 0 -0.000364179)
(0.0151144 0 -0.000351248)
(0.0155594 0 -0.000347292)
(0.0160095 0 -0.00035307)
(0.0164642 0 -0.000364475)
(0.0169239 0 -0.000369395)
(0.0173852 0 -0.000369792)
(0.0178511 0 -0.000363054)
(0.018297 0 -0.000347658)
(0.0187328 0 -0.000346908)
(0.0191794 0 -0.000351676)
(0.0196239 0 -0.000340403)
(0.0200403 0 -0.000318777)
(0.0204343 0 -0.000312571)
(0.0208352 0 -0.000315375)
(0.0212352 0 -0.000307973)
(0.0216159 0 -0.000284326)
(0.0219559 0 -0.000253498)
(0.0222724 0 -0.000248279)
(0.0225927 0 -0.000249261)
(0.0229041 0 -0.000240986)
(0.0232019 0 -0.000220488)
(0.0234657 0 -0.000180772)
(0.0236765 0 -0.000146479)
(0.0238584 0 -0.000130431)
(0.0240157 0 -0.000118466)
(0.0241563 0 -0.000109353)
(0.0242867 0 -9.04826e-05)
(0.0243848 0 -6.02464e-05)
(0.0244501 0 -2.44044e-05)
(0.0244619 0 1.35678e-05)
(0.0244235 0 3.65335e-05)
(0.024361 0 5.15657e-05)
(0.0242789 0 7.31017e-05)
(0.0241669 0 0.000114001)
(0.0239983 0 0.000160868)
(0.023779 0 0.000196972)
(0.0235127 0 0.000220454)
(0.0232189 0 0.000234979)
(0.022902 0 0.000256213)
(0.0225581 0 0.000280866)
(0.0221786 0 0.000320308)
(0.0217374 0 0.000371439)
(0.0212418 0 0.000411299)
(0.0207083 0 0.00043011)
(0.0201674 0 0.000425564)
(0.0196239 0 0.000435903)
(0.0190474 0 0.0004638)
(0.0184344 0 0.000492947)
(0.0177886 0 0.000520603)
(0.0171204 0 0.000528176)
(0.016458 0 0.000520852)
(0.0157921 0 0.000526605)
(0.0151091 0 0.000553244)
(0.0143792 0 0.000579463)
(0.013653 0 0.00055223)
(0.0129779 0 0.000528514)
(0.0122977 0 0.000524684)
(0.0116297 0 0.000531028)
(0.0109394 0 0.0005548)
(0.0102318 0 0.000560587)
(0.00953081 0 0.000539768)
(0.00886545 0 0.000499601)
(0.00824634 0 0.000477951)
(0.00763708 0 0.000467838)
(0.00704486 0 0.000466208)
(0.00644499 0 0.000476042)
(0.00584353 0 0.000469701)
(0.00526402 0 0.000444385)
(0.00471572 0 0.000410663)
(0.00420971 0 0.000386535)
(0.00372232 0 0.000370331)
(0.00325723 0 0.000362779)
(0.00279269 0 0.000367101)
(0.00232985 0 0.000356837)
(0.00189298 0 0.000335447)
(0.00148318 0 0.0003066)
(0.00111191 0 0.000282004)
(0.000761001 0 0.000270948)
(0.000422753 0 0.000262107)
(9.69623e-05 0 0.00024877)
(-0.000212644 0 0.000234608)
(-0.000508882 0 0.000227706)
(-0.000796972 0 0.000217742)
(-0.00106372 0 0.000209743)
(-0.00132031 0 0.000195934)
(-0.00155052 0 0.000169592)
(-0.00175693 0 0.000157992)
(-0.00195737 0 0.000151469)
(-0.00214684 0 0.000147184)
(-0.00233615 0 0.000153103)
(-0.00253081 0 0.000148097)
(-0.00270068 0 0.000121187)
(-0.00284126 0 0.000108337)
(-0.00298135 0 0.000105728)
(-0.0031149 0 0.000105528)
(-0.0032517 0 0.000109071)
(-0.00338908 0 0.000105837)
(-0.00351462 0 9.71301e-05)
(-0.0036309 0 8.77351e-05)
(-0.00373823 0 8.17197e-05)
(-0.00384231 0 8.05317e-05)
(-0.00394869 0 8.18346e-05)
(-0.00405433 0 8.3492e-05)
(-0.00415667 0 8.1684e-05)
(-0.00425437 0 7.47604e-05)
(-0.00434453 0 6.81148e-05)
(-0.00443026 0 6.85828e-05)
(-0.00452315 0 7.42418e-05)
(-0.00462166 0 8.09599e-05)
(-0.00472704 0 8.33438e-05)
(-0.00482523 0 7.12108e-05)
(-0.00490766 0 6.38972e-05)
(-0.0049908 0 6.48065e-05)
(-0.00507555 0 6.57852e-05)
(-0.00516039 0 6.80376e-05)
(-0.00525033 0 7.3737e-05)
(-0.00534583 0 7.77775e-05)
(-0.00544219 0 7.6618e-05)
(-0.00553498 0 6.95244e-05)
(-0.00562065 0 6.53356e-05)
(-0.00570447 0 6.56274e-05)
(-0.00578815 0 6.55021e-05)
(-0.00587118 0 6.40577e-05)
(-0.00595185 0 6.4718e-05)
(-0.00603709 0 7.04431e-05)
(-0.00612919 0 7.3934e-05)
(-0.0062203 0 6.82514e-05)
(-0.00630144 0 6.10113e-05)
(-0.00637738 0 5.99974e-05)
(-0.0064555 0 6.068e-05)
(-0.00653309 0 5.98876e-05)
(-0.00660932 0 6.05631e-05)
(-0.00668725 0 6.28038e-05)
(-0.00676654 0 6.23109e-05)
(-0.00684254 0 5.90157e-05)
(-0.0069147 0 5.45024e-05)
(-0.00698248 0 5.21693e-05)
(-0.00704954 0 5.09189e-05)
(-0.00711377 0 5.02806e-05)
(-0.0071777 0 5.19241e-05)
(-0.00724216 0 5.14222e-05)
(-0.00730414 0 4.73441e-05)
(-0.0073624 0 4.30265e-05)
(-0.00741677 0 4.02455e-05)
(-0.00746715 0 3.81012e-05)
(-0.00751392 0 3.80869e-05)
(-0.00756172 0 3.79387e-05)
(-0.00760685 0 3.38562e-05)
(-0.00764695 0 2.87128e-05)
(-0.00768182 0 2.54587e-05)
(-0.00771236 0 2.41477e-05)
(-0.00774067 0 2.16003e-05)
(-0.00776521 0 1.74678e-05)
(-0.00778559 0 1.30112e-05)
(-0.00779996 0 9.01544e-06)
(-0.00780951 0 6.76771e-06)
(-0.00781728 0 6.65445e-06)
(-0.00782502 0 5.57047e-06)
(-0.00782979 0 1.20199e-06)
(-0.00782902 0 -2.18611e-06)
(-0.0078257 0 -3.15009e-06)
(-0.00782149 0 -3.27027e-06)
(-0.00781735 0 -2.88615e-06)
(-0.00781427 0 -2.25983e-06)
(-0.00781261 0 -8.87899e-07)
(-0.00781359 0 1.47513e-06)
(-0.00781783 0 5.18825e-06)
(-0.00782735 0 1.04471e-05)
(-0.00784344 0 1.50312e-05)
(-0.00786463 0 1.87747e-05)
(-0.00789159 0 2.38776e-05)
(-0.00792649 0 3.09618e-05)
(-0.00797053 0 3.83956e-05)
(-0.00802274 0 4.43688e-05)
(-0.00808178 0 4.93527e-05)
(-0.00814758 0 5.44026e-05)
(-0.00822075 0 6.08483e-05)
(-0.00830305 0 6.91488e-05)
(-0.00839557 0 7.64079e-05)
(-0.00849544 0 8.04067e-05)
(-0.00859986 0 8.36295e-05)
(-0.00870864 0 8.76105e-05)
(-0.00882285 0 9.17302e-05)
(-0.00894188 0 9.57417e-05)
(-0.00906563 0 9.90984e-05)
(-0.00919307 0 0.000101586)
(-0.00932365 0 0.000103352)
(-0.00945612 0 0.000104675)
(-0.00959032 0 0.000106062)
(-0.00972631 0 0.000107075)
(-0.00986276 0 0.00010751)
(-0.00999933 0 0.000107274)
(-0.0101351 0 0.000106433)
(-0.0102698 0 0.000105475)
(-0.0104033 0 0.000104553)
(-0.0105356 0 0.000103588)
(-0.0106663 0 0.000101839)
(-0.0107941 0 9.9386e-05)
(-0.0109188 0 9.67781e-05)
(-0.0110402 0 9.42641e-05)
(-0.0111584 0 9.15037e-05)
(-0.0112729 0 8.85531e-05)
(-0.0113839 0 8.54114e-05)
(-0.0114907 0 8.17905e-05)
(-0.0115927 0 7.81578e-05)
(-0.01169 0 7.43331e-05)
(-0.0117824 0 7.05052e-05)
(-0.01187 0 6.61498e-05)
(-0.0119519 0 6.21726e-05)
(-0.0120292 0 5.84152e-05)
(-0.0121017 0 5.48583e-05)
(-0.012169 0 5.02319e-05)
(-0.0122299 0 4.47764e-05)
(-0.0122837 0 3.88593e-05)
(-0.0123315 0 3.44817e-05)
(-0.0123739 0 2.99715e-05)
(-0.0124107 0 2.53845e-05)
(-0.0124404 0 1.91135e-05)
(-0.0124624 0 1.34207e-05)
(-0.0124771 0 7.54416e-06)
(-0.0124851 0 2.4791e-06)
(-0.0124864 0 -3.43973e-06)
(-0.0124805 0 -8.83769e-06)
(-0.0124675 0 -1.3486e-05)
(-0.0124487 0 -1.81845e-05)
(-0.0124223 0 -2.51774e-05)
(-0.0123867 0 -3.27684e-05)
(-0.0123422 0 -3.8522e-05)
(-0.0122905 0 -4.49054e-05)
(-0.0122307 0 -4.99075e-05)
(-0.0121632 0 -5.67048e-05)
(-0.0120878 0 -6.11796e-05)
(-0.0120043 0 -6.95951e-05)
(-0.0119113 0 -7.45728e-05)
(-0.0118097 0 -8.26903e-05)
(-0.0117006 0 -8.53446e-05)
(-0.0115836 0 -9.39734e-05)
(-0.0114581 0 -9.84242e-05)
(-0.011322 0 -0.000108752)
(-0.0111783 0 -0.000111706)
(-0.0110246 0 -0.000121797)
(-0.0108636 0 -0.000123765)
(-0.010693 0 -0.000131792)
(-0.0105181 0 -0.000134106)
(-0.0103309 0 -0.000144277)
(-0.0101383 0 -0.000148142)
(-0.00993195 0 -0.000156725)
(-0.00972143 0 -0.000162106)
(-0.00949781 0 -0.000166976)
(-0.00927063 0 -0.000172609)
(-0.00903602 0 -0.000172716)
(-0.00879064 0 -0.000188938)
(-0.00853929 0 -0.000187235)
(-0.00827163 0 -0.000212643)
(-0.00800688 0 -0.000203805)
(-0.00772772 0 -0.000229954)
(-0.00745226 0 -0.000214527)
(-0.00716607 0 -0.00023713)
(-0.00686782 0 -0.000219923)
(-0.00657352 0 -0.00024233)
(-0.00626851 0 -0.000244589)
(-0.00596154 0 -0.000273516)
(-0.00567239 0 -0.000254418)
(-0.00537083 0 -0.000256658)
(-0.00502885 0 -0.000190262)
(-0.0047382 0 -0.0002013)
(-0.00438531 0 -0.000277993)
(-0.00404701 0 -0.000373489)
(-0.00389129 0 -0.000378017)
(-0.00359368 0 -0.000308074)
(-0.00318637 0 0.000145107)
(-0.0030291 0 0.000223093)
(-0.00233333 0 -0.000165692)
(-0.00199493 0 -0.000787949)
(-0.000566827 0 -0.00131255)
(0.000155692 0 -0.00082827)
(0.00103182 0 -0.0006902)
(0.00151978 0 -0.00054491)
(0.00210982 0 -0.000456242)
(0.00244197 0 -0.000487837)
(0.00292741 0 -0.000338583)
(0.00326381 0 -0.000352787)
(0.00372185 0 -0.00013355)
(0.00402943 0 -0.000141197)
(0.00443903 0 -0.000188742)
(0.00479588 0 -0.000389455)
(0.00483937 0 -0.000401312)
(0.00503528 0 -0.000338791)
(0.00539182 0 0.000485778)
(0.00539746 0 0.00076586)
(0.00627845 0 0.000331676)
(0.00657507 0 -0.000842726)
(0.00892644 0 -0.00209391)
(0.0101969 0 -0.00155942)
(0.0118803 0 -0.00132542)
(0.0128107 0 -0.000864944)
(0.0137177 0 -0.00061412)
(0.0143661 0 -0.000451076)
(0.014954 0 -0.000405599)
(0.015426 0 -0.000388975)
(0.0158183 0 -0.000389478)
(0.015996 0 -0.000361648)
(0.0163769 0 -0.000201411)
(0.0165375 0 6.64361e-05)
(0.0167822 0 3.85222e-05)
(0.0172054 0 -0.000260406)
(0.0170925 0 -0.000467279)
(0.0164819 0 -0.000751851)
(0.0167851 0 0.000198659)
(0.0160453 0 0.0020275)
(0.0166439 0 0.00179548)
(0.0180131 0 0.000677119)
(0.0207988 0 -0.00255905)
(0.0268795 0 -0.00545592)
(0.0302841 0 -0.00464399)
(0.0347606 0 -0.00381701)
(0.0381795 0 -0.00305987)
(0.04059 0 -0.00223277)
(0.0426317 0 -0.00162806)
(0.0441756 0 -0.00124102)
(0.0454129 0 -0.000993227)
(0.0464569 0 -0.000823252)
(0.0473415 0 -0.000682038)
(0.0480874 0 -0.000570202)
(0.0487322 0 -0.000495872)
(0.0493101 0 -0.000437858)
(0.0498234 0 -0.000389042)
(0.0502817 0 -0.00034848)
(0.0506913 0 -0.000299276)
(0.0510455 0 -0.0002614)
(0.0513591 0 -0.00023929)
(0.0516501 0 -0.00021865)
(0.0519081 0 -0.000182284)
(0.0521185 0 -0.000151544)
(0.0523033 0 -0.000141796)
(0.0524759 0 -0.000128221)
(0.0526245 0 -0.000103672)
(0.052737 0 -7.19879e-05)
(0.0528141 0 -4.71743e-05)
(0.0528681 0 -3.64155e-05)
(0.052906 0 -2.32077e-05)
(0.0529264 0 -8.42887e-06)
(0.0529257 0 1.09856e-05)
(0.052903 0 2.34672e-05)
(0.052865 0 3.72708e-05)
(0.0528017 0 6.43844e-05)
(0.0527059 0 8.40775e-05)
(0.0525933 0 9.21736e-05)
(0.0524747 0 9.50519e-05)
(0.0523515 0 9.82613e-05)
(0.052219 0 0.000108003)
(0.0520698 0 0.000123645)
(0.0519013 0 0.000139389)
(0.051715 0 0.000153525)
(0.0515094 0 0.00016917)
(0.0512908 0 0.000175704)
(0.0510609 0 0.000189258)
(0.0508114 0 0.0002016)
(0.0505501 0 0.000204969)
(0.0502837 0 0.000213047)
(0.0500019 0 0.000229853)
(0.0496962 0 0.000248769)
(0.0493711 0 0.000264421)
(0.0490293 0 0.000276227)
(0.0486753 0 0.000283926)
(0.0483137 0 0.000288792)
(0.0479438 0 0.00029413)
(0.0475656 0 0.000300828)
(0.0471791 0 0.000308436)
(0.0467819 0 0.000316033)
(0.0463748 0 0.000324681)
(0.0459581 0 0.000332252)
(0.0455316 0 0.000338462)
(0.0450978 0 0.000344372)
(0.0446572 0 0.000349336)
(0.04421 0 0.000354816)
(0.0437548 0 0.000361603)
(0.04329 0 0.000369052)
(0.0428172 0 0.000374533)
(0.0423399 0 0.000377231)
(0.0418589 0 0.000380388)
(0.041377 0 0.000384052)
(0.0408695 0 0.00039367)
(0.0404276 0 0.000394179)
(0.0397635 0 0.000400285)
(0.0395625 0 0.000403453)
(0.0385759 0 0.000406717)
(0.0387093 0 0.000395082)
(0.037364 0 0.000386895)
(0.0379671 0 0.000378742)
(0.0362901 0 0.000383578)
(0.0358347 0 0.000376445)
(0.039147 0 0.000385108)
(0.0268966 0 0.000339272)
(-0.0509752 0 -0.00132709)
(-0.0861733 0 -0.00278489)
(-0.0678365 0 -0.0018731)
(-0.0742449 0 -0.000321381)
(-0.0699846 0 0.00188746)
(-0.0714133 0 0.00312432)
(-0.0693898 0 0.00330618)
(-0.0666795 0 -0.00159883)
(-0.0543533 0 -0.0210384)
(-0.028875 0 -0.0518542)
(-0.00827315 0 -0.0630814)
(0.0126106 0 -0.0651513)
(0.0331826 0 -0.0648651)
(0.0526619 0 -0.0665483)
(0.0693494 0 -0.0646983)
(0.0864735 0 -0.0486912)
(0.102206 0 -0.0227844)
(0.110438 0 0.00098297)
(0.109852 0 0.0151753)
(0.105635 0 0.0194048)
(0.102181 0 0.0174654)
(0.0966332 0 0.00918433)
(0.0913982 0 -0.00144148)
(0.0910863 0 -0.01108)
(0.0957811 0 -0.0196453)
(0.102486 0 -0.0247662)
(0.109387 0 -0.0262973)
(0.116231 0 -0.0246639)
(0.123443 0 -0.0207856)
(0.129031 0 -0.0169929)
(0.131503 0 -0.0118277)
(0.130587 0 -0.00192126)
(0.125956 0 0.00995842)
(0.118947 0 0.0185083)
(0.112644 0 0.0216666)
(0.108221 0 0.0195377)
(0.105655 0 0.0134807)
(0.103462 0 0.00798483)
(0.100739 0 0.00681584)
(0.0979697 0 0.00805144)
(0.0957246 0 0.00748422)
(0.0940291 0 0.00374711)
(0.0936262 0 -0.00121707)
(0.094758 0 -0.00424579)
(0.0963157 0 -0.0052881)
(0.0976721 0 -0.00441683)
(0.0998841 0 -0.00164619)
(0.101296 0 -0.000746105)
(0.102069 0 -0.00131633)
(0.103377 0 -0.00359973)
(0.104966 0 -0.00541646)
(0.106504 0 -0.00558266)
(0.108588 0 -0.00366965)
(0.110383 0 -0.00196438)
(0.111385 0 -0.00163995)
(0.111953 0 -0.00224059)
(0.112932 0 -0.00401357)
(0.114721 0 -0.00584966)
(0.117086 0 -0.00715841)
(0.119744 0 -0.0081059)
(0.122152 0 -0.00825391)
(0.123887 0 -0.00639511)
(0.124895 0 -0.00308622)
(0.125595 0 -0.000242108)
(0.126556 0 0.00116203)
(0.127678 0 0.00157087)
(0.12848 0 0.00192443)
(0.128604 0 0.00259278)
(0.127639 0 0.00370616)
(0.126151 0 0.00369011)
(0.124893 0 0.00177453)
(0.123483 0 0.000379798)
(0.123342 0 0.000328616)
(0.122728 0 0.0010893)
(0.1236 0 0.00327924)
(0.12244 0 0.00914011)
(0.121456 0 0.0148668)
(0.121191 0 0.0284698)
(0.118657 0 0.0302821)
(0.117126 0 0.0148279)
(0.105525 0 0.0125131)
(0.0797421 0 0.00351299)
(0.0818699 0 0.000289493)
(0.0742831 0 -0.00342573)
(0.074586 0 -0.00329357)
(0.0729831 0 0.00420195)
(0.0718956 0 0.00709211)
(0.0698913 0 0.0085073)
(0.0695308 0 0.0073126)
(0.0671647 0 0.0051322)
(0.062737 0 0.00274568)
(0.0598831 0 0.000896341)
(0.0578635 0 0.00231759)
(0.0560446 0 0.0024998)
(0.0556969 0 0.00389587)
(0.0545959 0 0.00446715)
(0.0536474 0 0.00632475)
(0.0528884 0 0.00759805)
(0.0512596 0 0.0107509)
(0.0526314 0 0.0175468)
(0.0485899 0 0.0190961)
(0.0462061 0 0.0192446)
(0.034172 0 0.0114593)
(0.0260383 0 0.00594721)
(0.017794 0 -0.00304337)
(0.0129946 0 -0.00693061)
(0.0116853 0 -0.00226086)
(0.0109412 0 0.00153879)
(0.0101361 0 0.00454746)
(0.0122454 0 0.00304251)
(0.0138826 0 0.0025476)
(0.0131453 0 0.000818498)
(0.0128844 0 -0.000385862)
(0.0124192 0 -0.000239158)
(0.0119392 0 0.000804404)
(0.0121517 0 0.00136056)
(0.012048 0 0.0030082)
(0.0127737 0 0.00430613)
(0.0118699 0 0.00361252)
(0.0117357 0 0.00278858)
(0.00864331 0 0.00156822)
(0.00725629 0 0.00116644)
(0.00554546 0 -0.000882839)
(0.00545212 0 -0.00194906)
(0.00510744 0 -0.000682914)
(0.00511928 0 -0.000160266)
(0.00580171 0 0.000279542)
(0.00611558 0 0.000295422)
(0.00605673 0 -9.837e-05)
(0.00617915 0 -0.000602402)
(0.00614357 0 -0.000485351)
(0.00622614 0 -0.000588641)
(0.00644488 0 -0.000356293)
(0.00662139 0 -0.000383498)
(0.00681889 0 -0.00035115)
(0.00700107 0 -0.00059612)
(0.00726 0 -0.000812929)
(0.00754517 0 -0.000863119)
(0.00783307 0 -0.000882121)
(0.00816854 0 -0.00084318)
(0.0084919 0 -0.000865461)
(0.00885959 0 -0.000900867)
(0.00923782 0 -0.000947391)
(0.00962569 0 -0.000929114)
(0.010002 0 -0.000887016)
(0.0103857 0 -0.000889039)
(0.0107758 0 -0.000912971)
(0.0111827 0 -0.000972892)
(0.0116125 0 -0.0010272)
(0.0120266 0 -0.00101455)
(0.0124334 0 -0.000954477)
(0.012847 0 -0.000946398)
(0.0132753 0 -0.0010149)
(0.0137294 0 -0.00107589)
(0.014184 0 -0.00107706)
(0.0146208 0 -0.00105863)
(0.0150585 0 -0.00105157)
(0.0155203 0 -0.00105963)
(0.0159947 0 -0.00106814)
(0.0164634 0 -0.0010723)
(0.0169148 0 -0.00107655)
(0.0173687 0 -0.00108666)
(0.0178267 0 -0.00107085)
(0.0182717 0 -0.00103571)
(0.0187193 0 -0.00104055)
(0.019172 0 -0.00104875)
(0.0196147 0 -0.00101457)
(0.0200334 0 -0.000953099)
(0.0204327 0 -0.000936782)
(0.020833 0 -0.000944292)
(0.0212326 0 -0.000919239)
(0.0216051 0 -0.000849683)
(0.021953 0 -0.00077602)
(0.0222832 0 -0.000752627)
(0.0225976 0 -0.000743744)
(0.0229017 0 -0.000715631)
(0.0231887 0 -0.000662157)
(0.0234535 0 -0.00056572)
(0.0236809 0 -0.000468159)
(0.0238735 0 -0.00040367)
(0.0240342 0 -0.000347905)
(0.0241675 0 -0.000315847)
(0.0242875 0 -0.000269281)
(0.0243818 0 -0.000195264)
(0.0244503 0 -9.91713e-05)
(0.0244727 0 3.00324e-05)
(0.0244408 0 0.00012155)
(0.0243699 0 0.00017606)
(0.0242704 0 0.000231017)
(0.0241469 0 0.000325725)
(0.0239912 0 0.000448672)
(0.0237937 0 0.000564628)
(0.0235436 0 0.000660072)
(0.023245 0 0.000723988)
(0.0229134 0 0.00078191)
(0.0225603 0 0.000855161)
(0.0221688 0 0.000967906)
(0.0217355 0 0.00110167)
(0.0212572 0 0.00120491)
(0.0207459 0 0.00125933)
(0.020214 0 0.00127716)
(0.0196583 0 0.0013244)
(0.0190731 0 0.00140558)
(0.0184519 0 0.00148574)
(0.0178132 0 0.00154474)
(0.0171659 0 0.00156374)
(0.0165075 0 0.00156605)
(0.0158302 0 0.00159446)
(0.0151318 0 0.0016662)
(0.014415 0 0.00171292)
(0.0137117 0 0.00164833)
(0.0130237 0 0.00160277)
(0.0123319 0 0.00159533)
(0.0116454 0 0.00160304)
(0.0109556 0 0.00164424)
(0.0102652 0 0.00165259)
(0.00958097 0 0.00160989)
(0.00891208 0 0.00151821)
(0.00827369 0 0.00145392)
(0.00765107 0 0.00142081)
(0.00704261 0 0.00140727)
(0.00644677 0 0.00141316)
(0.00586084 0 0.0013859)
(0.00529095 0 0.00132922)
(0.00473803 0 0.00124625)
(0.004215 0 0.00117515)
(0.00371564 0 0.00112743)
(0.00323708 0 0.00109744)
(0.00277396 0 0.00109181)
(0.002322 0 0.00105617)
(0.00188987 0 0.000995968)
(0.00148708 0 0.000920647)
(0.00111132 0 0.000853081)
(0.000754871 0 0.000812317)
(0.000415468 0 0.000781494)
(8.63175e-05 0 0.000750365)
(-0.000234082 0 0.000717894)
(-0.000538034 0 0.000691529)
(-0.000822461 0 0.000655085)
(-0.00108297 0 0.00061257)
(-0.00132107 0 0.000570688)
(-0.00154912 0 0.000515925)
(-0.00176798 0 0.000483189)
(-0.00197481 0 0.000461031)
(-0.00217228 0 0.000449162)
(-0.00236296 0 0.000449832)
(-0.00253836 0 0.000426277)
(-0.00269881 0 0.000364974)
(-0.00284828 0 0.000333648)
(-0.00299282 0 0.000323508)
(-0.0031346 0 0.000319054)
(-0.00327 0 0.000321495)
(-0.00339752 0 0.000306883)
(-0.00351424 0 0.000282455)
(-0.00362483 0 0.000263752)
(-0.00373533 0 0.000250621)
(-0.00384564 0 0.000250627)
(-0.00395967 0 0.000252097)
(-0.00406583 0 0.000243269)
(-0.00415931 0 0.00023318)
(-0.00425106 0 0.000220346)
(-0.00434313 0 0.000208579)
(-0.00443446 0 0.000211642)
(-0.00452947 0 0.000227107)
(-0.00462765 0 0.000238313)
(-0.00472464 0 0.000237466)
(-0.00481682 0 0.000211082)
(-0.00490342 0 0.000196743)
(-0.00498994 0 0.000198527)
(-0.00507776 0 0.000201025)
(-0.00516774 0 0.00020632)
(-0.00525887 0 0.000218208)
(-0.00534876 0 0.000223643)
(-0.0054358 0 0.000221225)
(-0.00552434 0 0.000211186)
(-0.00561523 0 0.000201461)
(-0.00570381 0 0.000198002)
(-0.00578972 0 0.000196737)
(-0.00587414 0 0.000193511)
(-0.00595622 0 0.000195823)
(-0.00604237 0 0.000208399)
(-0.00612944 0 0.000213845)
(-0.00621506 0 0.000202366)
(-0.00629708 0 0.00018536)
(-0.00637527 0 0.00018205)
(-0.00645583 0 0.000183759)
(-0.00653687 0 0.000181701)
(-0.00661564 0 0.000181343)
(-0.00669105 0 0.000184243)
(-0.00676597 0 0.00018145)
(-0.00683832 0 0.000173778)
(-0.00690973 0 0.000165279)
(-0.00698103 0 0.000159702)
(-0.0070514 0 0.000155484)
(-0.00711799 0 0.000150881)
(-0.00717973 0 0.000149891)
(-0.00723858 0 0.000147079)
(-0.00729692 0 0.000141701)
(-0.00735686 0 0.000133891)
(-0.00741484 0 0.000124508)
(-0.00746717 0 0.000114424)
(-0.00751288 0 0.000110514)
(-0.00755621 0 0.000108262)
(-0.00759882 0 9.9989e-05)
(-0.00764136 0 8.9422e-05)
(-0.00767852 0 7.71662e-05)
(-0.00770676 0 6.84811e-05)
(-0.0077316 0 6.13662e-05)
(-0.00775532 0 5.3121e-05)
(-0.00777799 0 4.15671e-05)
(-0.00779389 0 2.84106e-05)
(-0.00780368 0 2.03852e-05)
(-0.00781101 0 1.75617e-05)
(-0.0078161 0 1.41582e-05)
(-0.007822 0 4.99269e-06)
(-0.0078245 0 -4.27418e-06)
(-0.00782217 0 -8.73012e-06)
(-0.00781887 0 -9.92507e-06)
(-0.00781514 0 -8.54852e-06)
(-0.00781345 0 -5.27768e-06)
(-0.00781441 0 -3.13105e-07)
(-0.00781795 0 6.62843e-06)
(-0.00782407 0 1.62397e-05)
(-0.00783404 0 2.96921e-05)
(-0.00784907 0 4.34436e-05)
(-0.00787038 0 5.67957e-05)
(-0.00789868 0 7.32369e-05)
(-0.00793516 0 9.30558e-05)
(-0.00797905 0 0.000112793)
(-0.00803022 0 0.000130411)
(-0.00808859 0 0.000146729)
(-0.00815473 0 0.000163927)
(-0.0082291 0 0.000183353)
(-0.00831178 0 0.000205498)
(-0.00840214 0 0.000225839)
(-0.00849994 0 0.000240574)
(-0.00860485 0 0.000251283)
(-0.0087142 0 0.000262737)
(-0.00882932 0 0.00027475)
(-0.00894846 0 0.000285714)
(-0.00907149 0 0.000295639)
(-0.00919849 0 0.000303832)
(-0.00932936 0 0.000310071)
(-0.00946251 0 0.000314337)
(-0.00959791 0 0.000318596)
(-0.00973507 0 0.000321031)
(-0.00987154 0 0.00032156)
(-0.0100076 0 0.000320633)
(-0.0101431 0 0.000318641)
(-0.0102783 0 0.000315937)
(-0.0104123 0 0.000313072)
(-0.0105449 0 0.000309708)
(-0.0106755 0 0.000304425)
(-0.0108035 0 0.000297404)
(-0.0109285 0 0.000289817)
(-0.01105 0 0.000282272)
(-0.0111684 0 0.000274253)
(-0.0112833 0 0.000265926)
(-0.0113952 0 0.000256904)
(-0.0115028 0 0.000246229)
(-0.0116052 0 0.000234989)
(-0.0117027 0 0.000223855)
(-0.0117956 0 0.000212331)
(-0.0118835 0 0.0002001)
(-0.0119662 0 0.000188031)
(-0.0120437 0 0.000177118)
(-0.0121156 0 0.000164677)
(-0.0121816 0 0.000151281)
(-0.0122421 0 0.000135407)
(-0.0122965 0 0.000120726)
(-0.0123451 0 0.000107288)
(-0.012388 0 9.45948e-05)
(-0.0124248 0 7.91573e-05)
(-0.0124548 0 6.21502e-05)
(-0.012477 0 4.41709e-05)
(-0.0124922 0 2.82167e-05)
(-0.0125005 0 1.20617e-05)
(-0.0125028 0 -3.68462e-06)
(-0.0124979 0 -2.09595e-05)
(-0.0124857 0 -3.62454e-05)
(-0.0124649 0 -5.28655e-05)
(-0.012437 0 -7.22456e-05)
(-0.0124013 0 -9.31166e-05)
(-0.0123579 0 -0.00011266)
(-0.0123063 0 -0.000130485)
(-0.0122477 0 -0.000150142)
(-0.0121804 0 -0.000167906)
(-0.012105 0 -0.000188488)
(-0.0120206 0 -0.00020771)
(-0.0119286 0 -0.000231272)
(-0.0118276 0 -0.00024847)
(-0.0117189 0 -0.00026997)
(-0.0115999 0 -0.000287268)
(-0.0114736 0 -0.000312706)
(-0.0113377 0 -0.000331097)
(-0.0111954 0 -0.000355394)
(-0.0110424 0 -0.000373257)
(-0.0108824 0 -0.000396992)
(-0.010711 0 -0.00041196)
(-0.010533 0 -0.000434342)
(-0.0103465 0 -0.000453688)
(-0.0101524 0 -0.000477999)
(-0.00995007 0 -0.000499724)
(-0.00973744 0 -0.000518988)
(-0.00951862 0 -0.00054308)
(-0.00928621 0 -0.000551898)
(-0.00905529 0 -0.000583148)
(-0.00880449 0 -0.000590783)
(-0.00856395 0 -0.000629593)
(-0.00829356 0 -0.000623678)
(-0.00803163 0 -0.000651273)
(-0.00774647 0 -0.000641989)
(-0.00746312 0 -0.000667628)
(-0.00717419 0 -0.000682341)
(-0.00687635 0 -0.000710535)
(-0.00660384 0 -0.000700685)
(-0.0063025 0 -0.000716065)
(-0.00597622 0 -0.000664221)
(-0.00566222 0 -0.000672081)
(-0.00530921 0 -0.000755862)
(-0.00498565 0 -0.000802552)
(-0.00483422 0 -0.000812065)
(-0.00455519 0 -0.000807769)
(-0.00415843 0 -0.000404256)
(-0.00379929 0 -0.000330996)
(-0.00304494 0 -0.000799502)
(-0.00263083 0 -0.00102535)
(-0.0012268 0 -0.00156658)
(-0.00058271 0 -0.00145543)
(0.000329985 0 -0.00199033)
(0.000498436 0 -0.00207093)
(0.000969358 0 -0.00168354)
(0.00126472 0 -0.001451)
(0.00171084 0 -0.00115366)
(0.00212774 0 -0.000988396)
(0.00255586 0 -0.00079939)
(0.00304968 0 -0.000951415)
(0.00348206 0 -0.000895586)
(0.00391944 0 -0.00107354)
(0.0039602 0 -0.000984309)
(0.00418277 0 -0.00102327)
(0.00456814 0 -0.000231943)
(0.00493862 0 2.89179e-05)
(0.00604532 0 -0.00053079)
(0.00656595 0 -0.00106164)
(0.00898063 0 -0.00216044)
(0.0102095 0 -0.00221729)
(0.0120037 0 -0.00328795)
(0.0123699 0 -0.00359427)
(0.0129744 0 -0.00309827)
(0.0133609 0 -0.00277001)
(0.0139066 0 -0.00203645)
(0.0143013 0 -0.00181927)
(0.0146497 0 -0.00150439)
(0.0150737 0 -0.00124886)
(0.0154589 0 -0.000976595)
(0.0158965 0 -0.000497362)
(0.0163087 0 -0.000517824)
(0.0169882 0 -0.000661419)
(0.0169162 0 -0.00068749)
(0.0164044 0 -0.00111809)
(0.0165343 0 -0.000189087)
(0.0162939 0 0.00160614)
(0.0175717 0 0.00124273)
(0.0193466 0 0.000406728)
(0.0233972 0 -0.00170128)
(0.0296325 0 -0.00502663)
(0.0328097 0 -0.00685417)
(0.0368115 0 -0.0112334)
(0.0391018 0 -0.0108442)
(0.0402476 0 -0.00854031)
(0.041297 0 -0.00716553)
(0.0423684 0 -0.00612847)
(0.0434382 0 -0.00494574)
(0.0445023 0 -0.00388963)
(0.045485 0 -0.00310203)
(0.0463693 0 -0.00257256)
(0.0471693 0 -0.00219324)
(0.0478927 0 -0.00187178)
(0.0485455 0 -0.00160457)
(0.0491359 0 -0.00142365)
(0.0496746 0 -0.00127675)
(0.0501609 0 -0.00113787)
(0.050595 0 -0.00102073)
(0.0509815 0 -0.000890809)
(0.0513271 0 -0.000786236)
(0.0516387 0 -0.00071354)
(0.0519179 0 -0.000647381)
(0.0521658 0 -0.000550376)
(0.0523832 0 -0.000466995)
(0.0525747 0 -0.00042394)
(0.0527406 0 -0.000375989)
(0.0528797 0 -0.000304823)
(0.0529932 0 -0.00022339)
(0.0530811 0 -0.000155498)
(0.0531448 0 -0.00011198)
(0.0531863 0 -6.52701e-05)
(0.0532056 0 -2.22136e-05)
(0.0532073 0 2.76981e-05)
(0.0531905 0 7.1379e-05)
(0.053147 0 0.000123931)
(0.0530806 0 0.000191524)
(0.0529967 0 0.000242802)
(0.0528961 0 0.00027063)
(0.0527809 0 0.000286442)
(0.0526512 0 0.000307213)
(0.052504 0 0.000338905)
(0.0523418 0 0.000379214)
(0.0521648 0 0.000421136)
(0.0519723 0 0.000461023)
(0.0517667 0 0.000500364)
(0.0515466 0 0.000527533)
(0.051311 0 0.000568111)
(0.0510585 0 0.000605408)
(0.0507921 0 0.000625003)
(0.0505113 0 0.000652926)
(0.0502151 0 0.000697029)
(0.0499052 0 0.000744168)
(0.0495824 0 0.000784594)
(0.0492482 0 0.000816883)
(0.0489026 0 0.000842227)
(0.0485445 0 0.000862683)
(0.0481743 0 0.000882503)
(0.0477939 0 0.000903611)
(0.0474041 0 0.000925511)
(0.047005 0 0.000948794)
(0.0465961 0 0.000973041)
(0.0461777 0 0.000995554)
(0.0457506 0 0.00101494)
(0.0453151 0 0.00103141)
(0.0448724 0 0.0010472)
(0.0444216 0 0.00106632)
(0.0439618 0 0.00108764)
(0.0434943 0 0.00110629)
(0.0430215 0 0.00112029)
(0.0425445 0 0.00112829)
(0.0420612 0 0.0011414)
(0.0415734 0 0.00115503)
(0.0410638 0 0.00117479)
(0.0406264 0 0.00117735)
(0.0399622 0 0.00119023)
(0.0397652 0 0.00120415)
(0.0387811 0 0.00121201)
(0.0389182 0 0.0011924)
(0.0375552 0 0.00117344)
(0.0381416 0 0.00116559)
(0.0364288 0 0.00117427)
(0.0359646 0 0.00117825)