/*--------------------------------*- C++ -*----------------------------------*\
| =========                 |                                                 |
| \\      /  F ield         | OpenFOAM: The Open Source CFD Toolbox           |
|  \\    /   O peration     | Version:  v2006                                 |
|   \\  /    A nd           | Website:  www.openfoam.com                      |
|    \\/     M anipulation  |                                                 |
\*---------------------------------------------------------------------------*/
FoamFile
{
    version     2.0;
    format      ascii;
    class       volScalarField;
    location    "3.1";
    object      k;
}
// * * * * * * * * * * * * * * * * * * * * * * * * * * * * * * * * * * * * * //

dimensions      [0 2 -2 0 0 0 0];


internalField   nonuniform List<scalar> 
33000
(
1.15654e-08
1.21129e-08
1.2572e-08
1.30736e-08
1.3733e-08
1.47111e-08
1.61499e-08
1.81782e-08
2.08088e-08
2.4013e-08
2.76728e-08
3.15727e-08
3.54788e-08
3.92368e-08
4.26759e-08
4.56249e-08
4.80478e-08
4.99711e-08
5.14557e-08
5.26175e-08
5.35287e-08
5.42151e-08
5.46464e-08
5.47814e-08
5.48069e-08
5.49935e-08
5.54127e-08
5.58341e-08
5.59528e-08
5.59163e-08
5.59845e-08
5.62314e-08
5.64236e-08
5.6554e-08
5.67895e-08
5.71588e-08
5.74874e-08
5.76562e-08
5.76889e-08
5.78096e-08
5.81385e-08
5.8496e-08
5.8698e-08
5.86979e-08
5.87205e-08
5.89532e-08
5.93118e-08
5.95458e-08
5.95687e-08
5.94867e-08
5.94161e-08
5.93353e-08
5.92667e-08
5.9211e-08
5.90943e-08
5.88649e-08
5.856e-08
5.82948e-08
5.80872e-08
5.78606e-08
5.75834e-08
5.73226e-08
5.71343e-08
5.70109e-08
5.68097e-08
5.65274e-08
5.6209e-08
5.58739e-08
5.55145e-08
5.51341e-08
5.47336e-08
5.43112e-08
5.38607e-08
5.33647e-08
5.27876e-08
5.20733e-08
5.11321e-08
4.98129e-08
4.78489e-08
4.52039e-08
4.252e-08
4.04558e-08
3.92756e-08
3.87425e-08
3.80736e-08
3.82346e-08
3.833e-08
3.82713e-08
3.80717e-08
3.79309e-08
3.77565e-08
3.75395e-08
3.72575e-08
3.68929e-08
3.64512e-08
3.59096e-08
3.52277e-08
3.43034e-08
3.31458e-08
3.16787e-08
3.02151e-08
2.91248e-08
2.85022e-08
2.82144e-08
2.78833e-08
2.76937e-08
2.76929e-08
2.76133e-08
2.74257e-08
2.72198e-08
2.70389e-08
2.68515e-08
2.66611e-08
2.64069e-08
2.60979e-08
2.56471e-08
2.52058e-08
2.46941e-08
2.43427e-08
2.4325e-08
2.44096e-08
2.45068e-08
2.45165e-08
2.45185e-08
2.45764e-08
2.46169e-08
2.46598e-08
2.47127e-08
2.4747e-08
2.47604e-08
2.47797e-08
2.48107e-08
2.48275e-08
2.48303e-08
2.48221e-08
2.48274e-08
2.48313e-08
2.48221e-08
2.48048e-08
2.47942e-08
2.47877e-08
2.4763e-08
2.47358e-08
2.47081e-08
2.46762e-08
2.46357e-08
2.45937e-08
2.45598e-08
2.45261e-08
2.44807e-08
2.44367e-08
2.43855e-08
2.43322e-08
2.42941e-08
2.42581e-08
2.42123e-08
2.41618e-08
2.41142e-08
2.4075e-08
2.40361e-08
2.39924e-08
2.39474e-08
2.39096e-08
2.38762e-08
2.38361e-08
2.37915e-08
2.3751e-08
2.37127e-08
2.36745e-08
2.3635e-08
2.35936e-08
2.35574e-08
2.35254e-08
2.34925e-08
2.34586e-08
2.34278e-08
2.34019e-08
2.33797e-08
2.33587e-08
2.33387e-08
2.33202e-08
2.33029e-08
2.32891e-08
2.32782e-08
2.32683e-08
2.3258e-08
2.32467e-08
2.32401e-08
2.32332e-08
2.32252e-08
2.32144e-08
2.32054e-08
2.31977e-08
2.31865e-08
2.31727e-08
2.31558e-08
2.31367e-08
2.31158e-08
2.30918e-08
2.30615e-08
2.30322e-08
2.30016e-08
2.29658e-08
2.29261e-08
2.28851e-08
2.28404e-08
2.27933e-08
2.27491e-08
2.27026e-08
2.26541e-08
2.2606e-08
2.25615e-08
2.25174e-08
2.24718e-08
2.24288e-08
2.23818e-08
2.23394e-08
2.22984e-08
2.22545e-08
2.22136e-08
2.21709e-08
2.21241e-08
2.20811e-08
2.2041e-08
2.1999e-08
2.1956e-08
2.19124e-08
2.18704e-08
2.18227e-08
2.17787e-08
2.17378e-08
2.16946e-08
2.16509e-08
2.16064e-08
2.15578e-08
2.15123e-08
2.14704e-08
2.14276e-08
2.13816e-08
2.1337e-08
2.12948e-08
2.12495e-08
2.12056e-08
2.116e-08
2.1117e-08
2.10698e-08
2.1028e-08
2.09878e-08
2.09378e-08
2.08893e-08
2.08411e-08
2.07902e-08
2.07389e-08
2.0686e-08
2.0632e-08
2.05787e-08
2.05217e-08
2.04608e-08
2.04032e-08
2.03443e-08
2.0283e-08
2.02184e-08
2.01537e-08
2.00915e-08
2.00262e-08
1.99611e-08
1.98946e-08
1.98267e-08
1.97555e-08
1.96848e-08
1.96154e-08
1.95451e-08
1.94741e-08
1.94016e-08
1.93286e-08
1.92543e-08
1.9179e-08
1.91038e-08
1.9028e-08
1.89517e-08
1.88746e-08
1.87981e-08
1.87201e-08
1.86403e-08
1.85603e-08
1.8479e-08
1.83973e-08
1.83154e-08
1.82323e-08
1.81485e-08
1.80638e-08
1.79779e-08
1.7892e-08
1.78061e-08
1.77194e-08
1.76327e-08
1.75456e-08
1.74581e-08
1.73708e-08
1.72832e-08
1.71954e-08
1.71075e-08
1.70194e-08
1.69314e-08
1.68434e-08
1.67552e-08
1.66666e-08
1.6578e-08
1.64896e-08
1.64012e-08
1.63126e-08
1.62236e-08
1.61344e-08
1.60461e-08
1.59588e-08
1.58723e-08
1.57866e-08
1.57018e-08
1.56178e-08
1.55346e-08
1.54522e-08
1.53705e-08
1.52894e-08
1.52091e-08
1.51295e-08
1.50505e-08
1.49719e-08
1.4894e-08
1.48168e-08
1.47401e-08
1.46639e-08
1.4588e-08
1.45123e-08
1.4437e-08
1.43618e-08
1.42869e-08
1.42122e-08
1.41377e-08
1.40633e-08
1.39892e-08
1.39153e-08
1.38417e-08
1.37684e-08
1.36953e-08
1.36224e-08
1.35496e-08
1.3477e-08
1.34045e-08
1.33323e-08
1.32602e-08
1.31882e-08
1.31164e-08
1.30449e-08
1.29736e-08
1.29026e-08
1.28318e-08
1.27614e-08
1.26914e-08
1.26216e-08
1.25521e-08
1.24829e-08
1.2414e-08
1.23454e-08
1.22772e-08
1.22095e-08
1.21423e-08
1.20755e-08
1.20092e-08
1.19433e-08
1.18779e-08
1.18129e-08
1.17484e-08
1.16843e-08
1.16207e-08
1.15576e-08
1.14951e-08
1.14331e-08
1.13717e-08
1.1311e-08
1.12509e-08
1.11913e-08
1.11323e-08
1.10739e-08
1.10161e-08
1.09591e-08
1.09027e-08
1.08471e-08
1.07922e-08
1.07379e-08
1.06843e-08
1.06314e-08
1.05791e-08
1.05275e-08
1.04766e-08
1.04265e-08
1.0377e-08
1.03283e-08
1.02802e-08
1.02329e-08
1.01862e-08
1.01401e-08
1.00947e-08
1.00499e-08
1.00059e-08
9.96253e-09
9.9199e-09
9.87799e-09
9.83675e-09
9.79614e-09
9.75624e-09
9.71702e-09
9.67851e-09
9.64066e-09
9.60337e-09
9.56689e-09
9.53065e-09
9.49512e-09
9.46013e-09
9.42523e-09
9.3913e-09
9.35899e-09
9.32534e-09
9.29391e-09
9.26236e-09
9.22592e-09
9.19569e-09
9.1712e-09
9.13521e-09
9.11947e-09
9.09101e-09
9.10236e-09
9.07518e-09
9.06412e-09
9.03999e-09
9.02084e-09
8.9973e-09
8.97597e-09
8.95318e-09
8.93143e-09
8.90891e-09
8.88691e-09
8.86516e-09
8.84213e-09
8.82073e-09
8.80117e-09
8.77828e-09
8.76109e-09
8.74025e-09
8.72993e-09
8.71023e-09
8.69412e-09
8.67622e-09
8.65904e-09
8.64227e-09
8.62567e-09
8.61014e-09
8.59423e-09
8.57664e-09
8.56086e-09
8.54859e-09
8.5293e-09
8.51961e-09
8.50565e-09
8.46834e-09
8.45795e-09
8.45849e-09
8.41685e-09
8.48879e-09
8.46483e-09
8.7427e-09
8.71901e-09
8.79759e-09
8.82672e-09
8.84819e-09
8.86123e-09
8.86886e-09
8.87283e-09
8.87416e-09
8.87347e-09
8.87121e-09
8.86777e-09
8.86346e-09
8.8584e-09
8.85273e-09
8.84659e-09
8.84005e-09
8.83313e-09
8.82581e-09
8.81812e-09
8.8101e-09
8.80181e-09
8.79334e-09
8.78474e-09
8.77607e-09
8.76735e-09
8.75854e-09
8.74964e-09
8.74062e-09
8.73146e-09
8.72209e-09
8.71248e-09
8.70259e-09
8.6924e-09
8.68191e-09
8.67123e-09
8.66045e-09
8.64966e-09
8.63892e-09
8.62832e-09
8.61788e-09
8.60765e-09
8.59761e-09
8.58777e-09
8.57809e-09
8.56855e-09
8.55911e-09
8.54975e-09
8.5405e-09
8.53136e-09
8.52237e-09
8.51352e-09
8.50476e-09
8.49601e-09
8.48724e-09
8.47842e-09
8.46969e-09
8.46117e-09
8.45296e-09
8.44485e-09
8.43653e-09
8.42796e-09
8.41921e-09
8.41058e-09
8.40231e-09
8.39431e-09
8.38607e-09
8.37764e-09
8.36929e-09
8.36149e-09
8.35422e-09
8.34645e-09
8.33862e-09
8.33167e-09
8.3254e-09
8.31801e-09
8.31037e-09
8.30202e-09
8.28775e-09
8.32012e-09
8.23786e-09
1.00037e-08
1.00067e-08
1.00136e-08
1.00298e-08
1.00635e-08
1.01243e-08
1.02247e-08
1.03755e-08
1.05812e-08
1.08395e-08
1.11411e-08
1.14707e-08
1.18099e-08
1.21462e-08
1.2462e-08
1.27446e-08
1.29928e-08
1.3207e-08
1.33854e-08
1.35368e-08
1.36621e-08
1.37652e-08
1.38397e-08
1.38883e-08
1.39348e-08
1.40073e-08
1.41048e-08
1.41989e-08
1.42513e-08
1.42808e-08
1.43194e-08
1.43752e-08
1.44274e-08
1.44679e-08
1.45178e-08
1.45825e-08
1.46381e-08
1.46636e-08
1.46655e-08
1.46863e-08
1.47318e-08
1.47737e-08
1.4786e-08
1.47719e-08
1.47774e-08
1.48288e-08
1.48903e-08
1.49048e-08
1.48648e-08
1.48065e-08
1.47539e-08
1.47089e-08
1.46766e-08
1.46497e-08
1.46066e-08
1.45457e-08
1.44809e-08
1.44302e-08
1.43884e-08
1.43427e-08
1.4318e-08
1.43644e-08
1.45179e-08
1.47521e-08
1.49384e-08
1.50256e-08
1.513e-08
1.536e-08
1.56558e-08
1.58271e-08
1.598e-08
1.61574e-08
1.6485e-08
1.71548e-08
1.81253e-08
1.9456e-08
2.12456e-08
2.35703e-08
2.493e-08
2.47223e-08
2.3689e-08
2.11378e-08
1.81114e-08
1.49802e-08
1.27039e-08
1.16571e-08
1.13621e-08
1.11372e-08
1.10051e-08
1.09948e-08
1.10261e-08
1.09604e-08
1.09753e-08
1.10054e-08
1.11413e-08
1.12891e-08
1.15754e-08
1.17552e-08
1.23262e-08
1.26974e-08
1.23755e-08
1.15653e-08
1.08624e-08
1.06366e-08
1.05359e-08
1.04971e-08
1.04997e-08
1.05169e-08
1.04949e-08
1.04632e-08
1.04618e-08
1.04634e-08
1.04806e-08
1.05219e-08
1.05971e-08
1.0647e-08
1.0883e-08
1.0989e-08
1.08072e-08
1.05417e-08
1.04069e-08
1.03996e-08
1.03965e-08
1.03899e-08
1.03918e-08
1.03694e-08
1.03448e-08
1.03385e-08
1.03491e-08
1.03472e-08
1.03404e-08
1.03427e-08
1.03546e-08
1.03634e-08
1.03595e-08
1.03535e-08
1.03648e-08
1.03747e-08
1.03735e-08
1.03649e-08
1.03773e-08
1.03867e-08
1.03852e-08
1.03858e-08
1.03955e-08
1.03969e-08
1.03889e-08
1.03843e-08
1.03976e-08
1.04024e-08
1.0402e-08
1.04063e-08
1.03906e-08
1.03763e-08
1.0389e-08
1.0404e-08
1.03996e-08
1.03815e-08
1.03751e-08
1.03891e-08
1.03978e-08
1.03863e-08
1.03701e-08
1.03775e-08
1.03935e-08
1.03884e-08
1.03719e-08
1.03703e-08
1.03822e-08
1.03902e-08
1.03753e-08
1.03583e-08
1.03682e-08
1.03813e-08
1.03727e-08
1.03614e-08
1.03584e-08
1.036e-08
1.03587e-08
1.03565e-08
1.03548e-08
1.03472e-08
1.03457e-08
1.03485e-08
1.03437e-08
1.03327e-08
1.03226e-08
1.03278e-08
1.03298e-08
1.03232e-08
1.03139e-08
1.0313e-08
1.03111e-08
1.03035e-08
1.02962e-08
1.02909e-08
1.0292e-08
1.02868e-08
1.02754e-08
1.02654e-08
1.02658e-08
1.02652e-08
1.02618e-08
1.02492e-08
1.02405e-08
1.02329e-08
1.02326e-08
1.02336e-08
1.02221e-08
1.02114e-08
1.02067e-08
1.02081e-08
1.01981e-08
1.01915e-08
1.01838e-08
1.01752e-08
1.01769e-08
1.01706e-08
1.01656e-08
1.01615e-08
1.01487e-08
1.01429e-08
1.01425e-08
1.014e-08
1.01345e-08
1.01283e-08
1.01246e-08
1.01186e-08
1.01119e-08
1.01119e-08
1.01098e-08
1.01053e-08
1.01011e-08
1.00965e-08
1.00917e-08
1.00926e-08
1.00915e-08
1.00892e-08
1.0085e-08
1.00839e-08
1.00813e-08
1.00793e-08
1.00778e-08
1.00765e-08
1.00746e-08
1.00732e-08
1.00747e-08
1.00722e-08
1.00691e-08
1.00692e-08
1.00686e-08
1.00675e-08
1.00669e-08
1.00657e-08
1.00653e-08
1.00644e-08
1.00626e-08
1.0062e-08
1.00622e-08
1.00609e-08
1.00597e-08
1.00583e-08
1.00585e-08
1.00578e-08
1.00569e-08
1.0056e-08
1.00551e-08
1.00536e-08
1.00525e-08
1.00522e-08
1.00516e-08
1.00507e-08
1.00497e-08
1.00486e-08
1.00478e-08
1.00466e-08
1.00458e-08
1.00449e-08
1.0044e-08
1.00432e-08
1.00424e-08
1.00415e-08
1.00403e-08
1.00393e-08
1.00384e-08
1.00375e-08
1.00368e-08
1.00359e-08
1.0035e-08
1.00341e-08
1.0033e-08
1.00321e-08
1.00314e-08
1.00305e-08
1.00295e-08
1.00286e-08
1.00277e-08
1.00268e-08
1.00259e-08
1.0025e-08
1.00241e-08
1.00233e-08
1.00224e-08
1.00216e-08
1.00208e-08
1.00199e-08
1.00191e-08
1.00183e-08
1.00176e-08
1.00168e-08
1.0016e-08
1.00153e-08
1.00145e-08
1.00138e-08
1.00131e-08
1.00124e-08
1.00117e-08
1.0011e-08
1.00104e-08
1.00097e-08
1.00091e-08
1.00085e-08
1.00079e-08
1.00073e-08
1.00068e-08
1.00063e-08
1.00058e-08
1.00054e-08
1.0005e-08
1.00046e-08
1.00043e-08
1.00041e-08
1.00038e-08
1.00036e-08
1.00034e-08
1.00033e-08
1.00031e-08
1.00029e-08
1.00027e-08
1.00025e-08
1.00024e-08
1.00022e-08
1.0002e-08
1.00018e-08
1.00016e-08
1.00015e-08
1.00013e-08
1.00012e-08
1.0001e-08
1.00009e-08
1.00007e-08
1.00006e-08
1.00004e-08
1.00003e-08
1.00001e-08
9.99997e-09
9.99982e-09
9.99967e-09
9.99951e-09
9.99932e-09
9.99914e-09
9.99898e-09
9.99881e-09
9.99861e-09
9.99841e-09
9.9982e-09
9.998e-09
9.99781e-09
9.99761e-09
9.99741e-09
9.99722e-09
9.99702e-09
9.99681e-09
9.99658e-09
9.99635e-09
9.99611e-09
9.99588e-09
9.99565e-09
9.99541e-09
9.99516e-09
9.9949e-09
9.99464e-09
9.99437e-09
9.99409e-09
9.9938e-09
9.99352e-09
9.99325e-09
9.99298e-09
9.99271e-09
9.99244e-09
9.99215e-09
9.99185e-09
9.99154e-09
9.99123e-09
9.99093e-09
9.99063e-09
9.99034e-09
9.99006e-09
9.98977e-09
9.98949e-09
9.9892e-09
9.98891e-09
9.98861e-09
9.98834e-09
9.98805e-09
9.98777e-09
9.98745e-09
9.98716e-09
9.98682e-09
9.98647e-09
9.98618e-09
9.98587e-09
9.9857e-09
9.98542e-09
9.9853e-09
9.98496e-09
9.98437e-09
9.98413e-09
9.98414e-09
9.98389e-09
9.98511e-09
9.98448e-09
9.98185e-09
9.98141e-09
9.97983e-09
9.97906e-09
9.97614e-09
9.9769e-09
9.97953e-09
9.98061e-09
9.98195e-09
9.98047e-09
9.98008e-09
9.97952e-09
9.97939e-09
9.97919e-09
9.97911e-09
9.97901e-09
9.97936e-09
9.9792e-09
9.97832e-09
9.97809e-09
9.97766e-09
9.97739e-09
9.97601e-09
9.97599e-09
9.97744e-09
9.97759e-09
9.97789e-09
9.97711e-09
9.97744e-09
9.97695e-09
9.97784e-09
9.97665e-09
9.97579e-09
9.97483e-09
9.97433e-09
9.97527e-09
9.97504e-09
9.98211e-09
9.9804e-09
9.98164e-09
9.97886e-09
9.99354e-09
9.99313e-09
1.00173e-08
1.00174e-08
9.99237e-09
9.98711e-09
9.98951e-09
9.98591e-09
9.98058e-09
9.97761e-09
9.97559e-09
9.97416e-09
9.97309e-09
9.9723e-09
9.97184e-09
9.97163e-09
9.97158e-09
9.97163e-09
9.97171e-09
9.97179e-09
9.97185e-09
9.97192e-09
9.97202e-09
9.97214e-09
9.97228e-09
9.97239e-09
9.97246e-09
9.97249e-09
9.9725e-09
9.97249e-09
9.9725e-09
9.97252e-09
9.97257e-09
9.97268e-09
9.97281e-09
9.97295e-09
9.97309e-09
9.97324e-09
9.97337e-09
9.97346e-09
9.97354e-09
9.97363e-09
9.9737e-09
9.97374e-09
9.97376e-09
9.97376e-09
9.97373e-09
9.97365e-09
9.97353e-09
9.97341e-09
9.9733e-09
9.97323e-09
9.97319e-09
9.97318e-09
9.97318e-09
9.97319e-09
9.97323e-09
9.97328e-09
9.97332e-09
9.97327e-09
9.97315e-09
9.973e-09
9.97293e-09
9.97297e-09
9.97296e-09
9.9728e-09
9.97256e-09
9.97227e-09
9.97222e-09
9.97249e-09
9.9726e-09
9.97239e-09
9.97209e-09
9.97202e-09
9.97244e-09
9.97257e-09
9.97235e-09
9.97226e-09
9.97257e-09
9.97257e-09
9.97221e-09
9.97211e-09
9.97211e-09
9.97302e-09
9.97138e-09
9.98074e-09
9.9733e-09
1.00031e-08
1.00039e-08
1.00046e-08
1.00062e-08
1.00096e-08
1.00161e-08
1.00274e-08
1.00449e-08
1.00696e-08
1.01012e-08
1.01389e-08
1.01807e-08
1.02244e-08
1.02683e-08
1.03102e-08
1.03483e-08
1.03826e-08
1.04129e-08
1.04389e-08
1.04613e-08
1.04804e-08
1.04965e-08
1.05091e-08
1.05191e-08
1.05297e-08
1.05431e-08
1.05591e-08
1.0574e-08
1.05837e-08
1.0591e-08
1.05998e-08
1.06108e-08
1.06214e-08
1.06289e-08
1.06373e-08
1.06497e-08
1.06642e-08
1.06757e-08
1.06804e-08
1.06803e-08
1.06803e-08
1.06817e-08
1.06817e-08
1.06792e-08
1.06775e-08
1.06808e-08
1.06871e-08
1.06893e-08
1.06828e-08
1.06703e-08
1.06571e-08
1.06464e-08
1.06398e-08
1.06361e-08
1.06304e-08
1.06198e-08
1.06064e-08
1.05954e-08
1.05864e-08
1.05764e-08
1.05687e-08
1.05731e-08
1.0599e-08
1.06413e-08
1.06779e-08
1.07011e-08
1.07283e-08
1.07783e-08
1.08455e-08
1.0891e-08
1.09231e-08
1.09628e-08
1.10365e-08
1.12012e-08
1.14356e-08
1.17804e-08
1.22619e-08
1.30163e-08
1.40722e-08
1.48587e-08
1.52824e-08
1.49311e-08
1.39957e-08
1.28667e-08
1.1772e-08
1.09639e-08
1.05037e-08
1.02475e-08
1.01297e-08
1.00887e-08
1.00756e-08
1.00651e-08
1.0064e-08
1.0064e-08
1.00685e-08
1.00796e-08
1.00993e-08
1.01165e-08
1.01643e-08
1.02285e-08
1.02254e-08
1.01815e-08
1.01322e-08
1.01016e-08
1.00728e-08
1.00521e-08
1.00447e-08
1.00432e-08
1.00386e-08
1.00358e-08
1.00359e-08
1.00366e-08
1.0037e-08
1.00379e-08
1.00397e-08
1.00415e-08
1.00514e-08
1.00612e-08
1.00565e-08
1.00516e-08
1.00479e-08
1.00439e-08
1.00389e-08
1.00356e-08
1.00344e-08
1.00326e-08
1.00312e-08
1.00311e-08
1.00314e-08
1.00311e-08
1.00305e-08
1.00304e-08
1.00309e-08
1.00312e-08
1.00307e-08
1.00304e-08
1.0031e-08
1.00313e-08
1.00312e-08
1.00308e-08
1.00314e-08
1.00317e-08
1.00315e-08
1.00315e-08
1.00319e-08
1.00319e-08
1.00313e-08
1.0031e-08
1.00317e-08
1.00319e-08
1.00318e-08
1.0032e-08
1.00312e-08
1.00304e-08
1.00311e-08
1.00318e-08
1.00315e-08
1.00306e-08
1.00303e-08
1.0031e-08
1.00314e-08
1.00308e-08
1.00299e-08
1.00302e-08
1.0031e-08
1.00307e-08
1.00298e-08
1.00297e-08
1.00302e-08
1.00306e-08
1.00297e-08
1.00288e-08
1.00292e-08
1.00298e-08
1.00293e-08
1.00287e-08
1.00285e-08
1.00285e-08
1.00284e-08
1.00282e-08
1.0028e-08
1.00277e-08
1.00275e-08
1.00275e-08
1.00272e-08
1.00267e-08
1.00262e-08
1.00263e-08
1.00263e-08
1.00259e-08
1.00255e-08
1.00254e-08
1.00252e-08
1.00248e-08
1.00244e-08
1.00241e-08
1.00241e-08
1.00238e-08
1.00233e-08
1.00229e-08
1.00229e-08
1.00228e-08
1.00226e-08
1.00221e-08
1.00218e-08
1.00215e-08
1.00214e-08
1.00214e-08
1.0021e-08
1.00206e-08
1.00204e-08
1.00204e-08
1.002e-08
1.00198e-08
1.00196e-08
1.00193e-08
1.00192e-08
1.00191e-08
1.00189e-08
1.00188e-08
1.00185e-08
1.00182e-08
1.00181e-08
1.0018e-08
1.00179e-08
1.00178e-08
1.00176e-08
1.00175e-08
1.00173e-08
1.00172e-08
1.00171e-08
1.0017e-08
1.00169e-08
1.00168e-08
1.00166e-08
1.00164e-08
1.00163e-08
1.00163e-08
1.00162e-08
1.00161e-08
1.00159e-08
1.00157e-08
1.00157e-08
1.00157e-08
1.00155e-08
1.00153e-08
1.00153e-08
1.00154e-08
1.00152e-08
1.0015e-08
1.0015e-08
1.00149e-08
1.00149e-08
1.00148e-08
1.00148e-08
1.00147e-08
1.00146e-08
1.00146e-08
1.00146e-08
1.00146e-08
1.00145e-08
1.00144e-08
1.00143e-08
1.00143e-08
1.00142e-08
1.00142e-08
1.00142e-08
1.00141e-08
1.0014e-08
1.0014e-08
1.00139e-08
1.00139e-08
1.00138e-08
1.00138e-08
1.00137e-08
1.00137e-08
1.00136e-08
1.00136e-08
1.00135e-08
1.00135e-08
1.00134e-08
1.00134e-08
1.00133e-08
1.00132e-08
1.00132e-08
1.00131e-08
1.00131e-08
1.0013e-08
1.0013e-08
1.00129e-08
1.00128e-08
1.00128e-08
1.00127e-08
1.00127e-08
1.00126e-08
1.00125e-08
1.00125e-08
1.00124e-08
1.00123e-08
1.00123e-08
1.00122e-08
1.00121e-08
1.00121e-08
1.0012e-08
1.00119e-08
1.00119e-08
1.00118e-08
1.00117e-08
1.00117e-08
1.00116e-08
1.00116e-08
1.00115e-08
1.00114e-08
1.00114e-08
1.00113e-08
1.00112e-08
1.00112e-08
1.00111e-08
1.0011e-08
1.0011e-08
1.00109e-08
1.00108e-08
1.00107e-08
1.00107e-08
1.00106e-08
1.00106e-08
1.00105e-08
1.00105e-08
1.00105e-08
1.00105e-08
1.00105e-08
1.00105e-08
1.00105e-08
1.00105e-08
1.00105e-08
1.00105e-08
1.00105e-08
1.00105e-08
1.00105e-08
1.00105e-08
1.00104e-08
1.00104e-08
1.00103e-08
1.00102e-08
1.00102e-08
1.00101e-08
1.001e-08
1.001e-08
1.00099e-08
1.00098e-08
1.00098e-08
1.00097e-08
1.00096e-08
1.00096e-08
1.00095e-08
1.00095e-08
1.00094e-08
1.00093e-08
1.00093e-08
1.00092e-08
1.00091e-08
1.00091e-08
1.0009e-08
1.0009e-08
1.00089e-08
1.00089e-08
1.00088e-08
1.00088e-08
1.00087e-08
1.00086e-08
1.00086e-08
1.00085e-08
1.00085e-08
1.00084e-08
1.00084e-08
1.00083e-08
1.00083e-08
1.00082e-08
1.00082e-08
1.00081e-08
1.00081e-08
1.0008e-08
1.0008e-08
1.00079e-08
1.00079e-08
1.00078e-08
1.00078e-08
1.00077e-08
1.00077e-08
1.00076e-08
1.00076e-08
1.00075e-08
1.00075e-08
1.00074e-08
1.00074e-08
1.00073e-08
1.00073e-08
1.00072e-08
1.00071e-08
1.00071e-08
1.0007e-08
1.0007e-08
1.00069e-08
1.00069e-08
1.00068e-08
1.00068e-08
1.00067e-08
1.00066e-08
1.00066e-08
1.00065e-08
1.00064e-08
1.00064e-08
1.00063e-08
1.00063e-08
1.00062e-08
1.00061e-08
1.00061e-08
1.00061e-08
1.0006e-08
1.00058e-08
1.00057e-08
1.00056e-08
1.00054e-08
1.00036e-08
1.00037e-08
1.00053e-08
1.00052e-08
1.00053e-08
1.00053e-08
1.00053e-08
1.00052e-08
1.0005e-08
1.0005e-08
1.00049e-08
1.00049e-08
1.00048e-08
1.00046e-08
1.00045e-08
1.00044e-08
1.00043e-08
1.00042e-08
1.00036e-08
1.00036e-08
1.00041e-08
1.0004e-08
1.0004e-08
1.00039e-08
1.0004e-08
1.00039e-08
1.00039e-08
1.00037e-08
1.00034e-08
1.00031e-08
1.00035e-08
1.0003e-08
1.00028e-08
1.00042e-08
1.00037e-08
1.00036e-08
1.00029e-08
1.00058e-08
1.00057e-08
1.00079e-08
1.00078e-08
1.00049e-08
1.00053e-08
1.00051e-08
1.00049e-08
1.00045e-08
1.00036e-08
1.00023e-08
1.00017e-08
1.00015e-08
1.0001e-08
1.00004e-08
9.99992e-09
9.99949e-09
9.99919e-09
9.99905e-09
9.99906e-09
9.99913e-09
9.9992e-09
9.9993e-09
9.99944e-09
9.99962e-09
9.99982e-09
1e-08
1.00002e-08
1.00003e-08
1.00004e-08
1.00005e-08
1.00005e-08
1.00006e-08
1.00006e-08
1.00006e-08
1.00007e-08
1.00008e-08
1.00009e-08
1.0001e-08
1.00011e-08
1.0001e-08
1.0001e-08
1.00009e-08
1.00009e-08
1.00009e-08
1.0001e-08
1.00011e-08
1.00012e-08
1.00012e-08
1.00012e-08
1.00012e-08
1.00011e-08
1.0001e-08
1.0001e-08
1.0001e-08
1.0001e-08
1.00009e-08
1.00008e-08
1.00008e-08
1.00008e-08
1.00009e-08
1.0001e-08
1.0001e-08
1.0001e-08
1.00009e-08
1.00007e-08
1.00005e-08
1.00003e-08
1.00001e-08
1.00002e-08
1.00004e-08
1.00007e-08
1.00006e-08
1.00001e-08
1e-08
1.00002e-08
1.00008e-08
1.00006e-08
9.9999e-09
9.99983e-09
1e-08
1.00003e-08
9.99976e-09
9.99975e-09
9.99992e-09
1.00001e-08
1.00003e-08
9.99926e-09
1.00035e-08
1.00007e-08
1.00026e-08
1.00034e-08
1.0004e-08
1.00048e-08
1.00061e-08
1.00079e-08
1.00107e-08
1.00147e-08
1.00201e-08
1.00268e-08
1.00344e-08
1.00424e-08
1.00505e-08
1.00584e-08
1.00656e-08
1.0072e-08
1.00776e-08
1.00823e-08
1.00863e-08
1.00897e-08
1.00925e-08
1.00948e-08
1.00967e-08
1.00982e-08
1.00998e-08
1.01016e-08
1.01035e-08
1.01052e-08
1.01065e-08
1.01076e-08
1.01087e-08
1.011e-08
1.01112e-08
1.01123e-08
1.01136e-08
1.01156e-08
1.0118e-08
1.01201e-08
1.01213e-08
1.01214e-08
1.01211e-08
1.01208e-08
1.01204e-08
1.01198e-08
1.01193e-08
1.01192e-08
1.01195e-08
1.01193e-08
1.01182e-08
1.01164e-08
1.01145e-08
1.01127e-08
1.01114e-08
1.01106e-08
1.01097e-08
1.0108e-08
1.01058e-08
1.01035e-08
1.01014e-08
1.0099e-08
1.0097e-08
1.0097e-08
1.01002e-08
1.01055e-08
1.01104e-08
1.01149e-08
1.01214e-08
1.01314e-08
1.01432e-08
1.01526e-08
1.01603e-08
1.01689e-08
1.01824e-08
1.02096e-08
1.02529e-08
1.0319e-08
1.04183e-08
1.05729e-08
1.08342e-08
1.11067e-08
1.13987e-08
1.1556e-08
1.14976e-08
1.128e-08
1.09581e-08
1.06459e-08
1.04031e-08
1.02393e-08
1.01431e-08
1.00939e-08
1.00699e-08
1.00536e-08
1.00424e-08
1.00347e-08
1.00301e-08
1.00281e-08
1.00277e-08
1.0028e-08
1.00301e-08
1.00338e-08
1.00347e-08
1.00341e-08
1.0033e-08
1.00314e-08
1.00296e-08
1.0028e-08
1.00271e-08
1.00266e-08
1.00264e-08
1.00263e-08
1.0026e-08
1.00253e-08
1.00246e-08
1.00241e-08
1.00238e-08
1.00236e-08
1.00236e-08
1.00237e-08
1.00235e-08
1.00236e-08
1.00236e-08
1.00235e-08
1.00235e-08
1.00236e-08
1.00236e-08
1.0024e-08
1.00242e-08
1.00237e-08
1.0023e-08
1.00224e-08
1.00221e-08
1.00218e-08
1.00217e-08
1.00214e-08
1.00212e-08
1.00211e-08
1.00211e-08
1.0021e-08
1.0021e-08
1.0021e-08
1.0021e-08
1.00209e-08
1.00208e-08
1.00207e-08
1.00207e-08
1.00206e-08
1.00205e-08
1.00204e-08
1.00204e-08
1.00203e-08
1.00203e-08
1.00203e-08
1.00203e-08
1.00202e-08
1.00203e-08
1.00203e-08
1.00202e-08
1.00202e-08
1.00202e-08
1.00202e-08
1.00202e-08
1.00201e-08
1.00201e-08
1.002e-08
1.002e-08
1.00199e-08
1.00199e-08
1.00198e-08
1.00198e-08
1.00197e-08
1.00196e-08
1.00195e-08
1.00194e-08
1.00194e-08
1.00194e-08
1.00193e-08
1.00192e-08
1.00192e-08
1.00191e-08
1.0019e-08
1.00189e-08
1.00189e-08
1.00188e-08
1.00187e-08
1.00187e-08
1.00186e-08
1.00185e-08
1.00184e-08
1.00184e-08
1.00183e-08
1.00182e-08
1.00182e-08
1.00181e-08
1.00181e-08
1.0018e-08
1.00179e-08
1.00179e-08
1.00178e-08
1.00178e-08
1.00177e-08
1.00176e-08
1.00175e-08
1.00175e-08
1.00175e-08
1.00174e-08
1.00173e-08
1.00173e-08
1.00172e-08
1.00172e-08
1.00171e-08
1.0017e-08
1.0017e-08
1.00169e-08
1.00169e-08
1.00168e-08
1.00167e-08
1.00167e-08
1.00167e-08
1.00166e-08
1.00165e-08
1.00165e-08
1.00164e-08
1.00164e-08
1.00163e-08
1.00162e-08
1.00162e-08
1.00161e-08
1.00161e-08
1.0016e-08
1.00159e-08
1.00159e-08
1.00158e-08
1.00158e-08
1.00157e-08
1.00156e-08
1.00155e-08
1.00154e-08
1.00154e-08
1.00154e-08
1.00153e-08
1.00152e-08
1.0015e-08
1.0015e-08
1.0015e-08
1.00149e-08
1.00146e-08
1.00147e-08
1.00148e-08
1.00145e-08
1.00143e-08
1.00144e-08
1.00143e-08
1.00142e-08
1.00141e-08
1.00141e-08
1.0014e-08
1.00139e-08
1.00139e-08
1.00139e-08
1.00139e-08
1.00137e-08
1.00137e-08
1.00136e-08
1.00136e-08
1.00136e-08
1.00135e-08
1.00135e-08
1.00134e-08
1.00133e-08
1.00133e-08
1.00133e-08
1.00133e-08
1.00132e-08
1.00131e-08
1.00131e-08
1.0013e-08
1.0013e-08
1.00129e-08
1.00129e-08
1.00128e-08
1.00127e-08
1.00127e-08
1.00127e-08
1.00126e-08
1.00125e-08
1.00125e-08
1.00125e-08
1.00124e-08
1.00123e-08
1.00123e-08
1.00123e-08
1.00122e-08
1.00121e-08
1.00121e-08
1.0012e-08
1.0012e-08
1.00119e-08
1.00119e-08
1.00118e-08
1.00117e-08
1.00117e-08
1.00116e-08
1.00116e-08
1.00115e-08
1.00115e-08
1.00114e-08
1.00113e-08
1.00113e-08
1.00112e-08
1.00112e-08
1.00111e-08
1.0011e-08
1.0011e-08
1.00109e-08
1.00109e-08
1.00108e-08
1.00108e-08
1.00107e-08
1.00106e-08
1.00106e-08
1.00105e-08
1.00105e-08
1.00104e-08
1.00104e-08
1.00103e-08
1.00103e-08
1.00102e-08
1.00102e-08
1.00102e-08
1.00102e-08
1.00102e-08
1.00102e-08
1.00102e-08
1.00101e-08
1.00101e-08
1.00101e-08
1.00101e-08
1.00101e-08
1.001e-08
1.001e-08
1.00099e-08
1.00099e-08
1.00098e-08
1.00097e-08
1.00097e-08
1.00096e-08
1.00095e-08
1.00095e-08
1.00094e-08
1.00093e-08
1.00093e-08
1.00092e-08
1.00092e-08
1.00091e-08
1.00091e-08
1.0009e-08
1.00089e-08
1.00089e-08
1.00088e-08
1.00088e-08
1.00087e-08
1.00087e-08
1.00086e-08
1.00085e-08
1.00085e-08
1.00084e-08
1.00084e-08
1.00083e-08
1.00083e-08
1.00082e-08
1.00082e-08
1.00081e-08
1.00081e-08
1.0008e-08
1.0008e-08
1.0008e-08
1.00079e-08
1.00079e-08
1.00078e-08
1.00078e-08
1.00077e-08
1.00077e-08
1.00076e-08
1.00076e-08
1.00075e-08
1.00075e-08
1.00074e-08
1.00074e-08
1.00073e-08
1.00073e-08
1.00072e-08
1.00072e-08
1.00071e-08
1.00071e-08
1.00071e-08
1.0007e-08
1.0007e-08
1.00069e-08
1.00068e-08
1.00068e-08
1.00067e-08
1.00067e-08
1.00067e-08
1.00066e-08
1.00066e-08
1.00065e-08
1.00064e-08
1.00064e-08
1.00063e-08
1.00063e-08
1.00062e-08
1.00062e-08
1.00061e-08
1.00061e-08
1.0006e-08
1.00059e-08
1.00058e-08
1.00057e-08
1.00057e-08
1.00055e-08
1.00041e-08
1.00041e-08
1.00054e-08
1.00054e-08
1.00054e-08
1.00053e-08
1.00054e-08
1.00053e-08
1.00052e-08
1.00051e-08
1.0005e-08
1.0005e-08
1.00049e-08
1.00048e-08
1.00047e-08
1.00047e-08
1.00045e-08
1.00044e-08
1.0004e-08
1.0004e-08
1.00043e-08
1.00043e-08
1.00043e-08
1.00042e-08
1.00043e-08
1.00041e-08
1.00041e-08
1.0004e-08
1.00036e-08
1.00035e-08
1.00041e-08
1.00039e-08
1.00047e-08
1.00042e-08
1.00026e-08
1.00036e-08
1.00029e-08
1.00058e-08
1.00057e-08
1.0008e-08
1.00079e-08
1.00052e-08
1.00058e-08
1.00055e-08
1.00054e-08
1.00051e-08
1.00051e-08
1.00046e-08
1.00043e-08
1.00039e-08
1.00034e-08
1.00031e-08
1.00027e-08
1.00023e-08
1.00019e-08
1.00015e-08
1.00012e-08
1.00008e-08
1.00006e-08
1.00005e-08
1.00004e-08
1.00003e-08
1.00003e-08
1.00004e-08
1.00005e-08
1.00006e-08
1.00007e-08
1.00008e-08
1.00008e-08
1.00009e-08
1.00009e-08
1.0001e-08
1.0001e-08
1.0001e-08
1.00011e-08
1.00013e-08
1.00014e-08
1.00015e-08
1.00015e-08
1.00015e-08
1.00014e-08
1.00013e-08
1.00012e-08
1.00012e-08
1.00012e-08
1.00013e-08
1.00014e-08
1.00015e-08
1.00016e-08
1.00016e-08
1.00015e-08
1.00015e-08
1.00014e-08
1.00014e-08
1.00014e-08
1.00014e-08
1.00013e-08
1.00012e-08
1.00011e-08
1.00012e-08
1.00013e-08
1.00014e-08
1.00015e-08
1.00014e-08
1.00012e-08
1.00009e-08
1.00007e-08
1.00006e-08
1.00007e-08
1.00008e-08
1.0001e-08
1.00011e-08
1.00007e-08
1.00005e-08
1.00006e-08
1.00012e-08
1.00013e-08
1.00006e-08
1.00004e-08
1.00004e-08
1.00006e-08
1.00004e-08
1.00004e-08
1.00004e-08
1.00007e-08
1.00009e-08
1.00008e-08
9.99975e-09
1.0004e-08
1.00014e-08
1.00027e-08
1.00033e-08
1.00038e-08
1.00044e-08
1.00054e-08
1.00066e-08
1.00085e-08
1.0011e-08
1.00142e-08
1.0018e-08
1.00221e-08
1.00261e-08
1.00299e-08
1.00333e-08
1.00362e-08
1.00384e-08
1.00402e-08
1.00414e-08
1.00424e-08
1.0043e-08
1.00434e-08
1.00437e-08
1.00439e-08
1.0044e-08
1.00441e-08
1.00442e-08
1.00443e-08
1.00444e-08
1.00444e-08
1.00444e-08
1.00444e-08
1.00444e-08
1.00444e-08
1.00444e-08
1.00444e-08
1.00445e-08
1.00446e-08
1.00447e-08
1.00447e-08
1.00446e-08
1.00444e-08
1.00443e-08
1.00442e-08
1.00442e-08
1.00442e-08
1.00443e-08
1.00444e-08
1.00444e-08
1.00443e-08
1.0044e-08
1.00436e-08
1.00432e-08
1.00427e-08
1.00423e-08
1.00418e-08
1.00413e-08
1.00408e-08
1.00402e-08
1.00395e-08
1.00389e-08
1.00383e-08
1.0038e-08
1.00381e-08
1.00384e-08
1.00386e-08
1.0039e-08
1.00399e-08
1.00412e-08
1.00427e-08
1.00441e-08
1.00455e-08
1.00472e-08
1.00493e-08
1.00529e-08
1.00596e-08
1.00707e-08
1.00876e-08
1.01134e-08
1.01596e-08
1.02233e-08
1.03039e-08
1.03715e-08
1.03902e-08
1.03777e-08
1.0327e-08
1.02564e-08
1.01878e-08
1.0133e-08
1.00944e-08
1.00706e-08
1.00605e-08
1.00597e-08
1.00593e-08
1.00554e-08
1.00472e-08
1.00385e-08
1.00319e-08
1.00277e-08
1.00256e-08
1.00246e-08
1.00242e-08
1.0024e-08
1.00238e-08
1.00237e-08
1.00236e-08
1.00236e-08
1.00236e-08
1.00238e-08
1.0024e-08
1.00243e-08
1.00246e-08
1.0025e-08
1.00254e-08
1.00251e-08
1.00245e-08
1.00239e-08
1.00234e-08
1.0023e-08
1.00227e-08
1.00225e-08
1.00223e-08
1.00223e-08
1.00223e-08
1.00223e-08
1.00224e-08
1.00225e-08
1.00227e-08
1.00229e-08
1.00235e-08
1.00238e-08
1.00232e-08
1.00226e-08
1.0022e-08
1.00216e-08
1.00213e-08
1.0021e-08
1.00208e-08
1.00207e-08
1.00206e-08
1.00206e-08
1.00206e-08
1.00206e-08
1.00205e-08
1.00204e-08
1.00204e-08
1.00203e-08
1.00202e-08
1.00202e-08
1.00201e-08
1.002e-08
1.002e-08
1.002e-08
1.002e-08
1.002e-08
1.00199e-08
1.00199e-08
1.00199e-08
1.00199e-08
1.00199e-08
1.00199e-08
1.00199e-08
1.00199e-08
1.00198e-08
1.00198e-08
1.00197e-08
1.00197e-08
1.00196e-08
1.00196e-08
1.00195e-08
1.00194e-08
1.00194e-08
1.00193e-08
1.00192e-08
1.00192e-08
1.00191e-08
1.00191e-08
1.0019e-08
1.00189e-08
1.00189e-08
1.00188e-08
1.00187e-08
1.00187e-08
1.00186e-08
1.00185e-08
1.00185e-08
1.00184e-08
1.00183e-08
1.00183e-08
1.00182e-08
1.00182e-08
1.00181e-08
1.00181e-08
1.0018e-08
1.0018e-08
1.00179e-08
1.00178e-08
1.00178e-08
1.00177e-08
1.00177e-08
1.00176e-08
1.00175e-08
1.00175e-08
1.00174e-08
1.00174e-08
1.00173e-08
1.00173e-08
1.00172e-08
1.00172e-08
1.00171e-08
1.0017e-08
1.0017e-08
1.00169e-08
1.00168e-08
1.00168e-08
1.00167e-08
1.00167e-08
1.00166e-08
1.00165e-08
1.00165e-08
1.00164e-08
1.00164e-08
1.00163e-08
1.00162e-08
1.00162e-08
1.00161e-08
1.0016e-08
1.0016e-08
1.00159e-08
1.00159e-08
1.00158e-08
1.00158e-08
1.00157e-08
1.00157e-08
1.00156e-08
1.00156e-08
1.00155e-08
1.00155e-08
1.00154e-08
1.00154e-08
1.00153e-08
1.00153e-08
1.00152e-08
1.00151e-08
1.00151e-08
1.00149e-08
1.00148e-08
1.00148e-08
1.00148e-08
1.00145e-08
1.00144e-08
1.00145e-08
1.00144e-08