/*--------------------------------*- C++ -*----------------------------------*\
| =========                 |                                                 |
| \\      /  F ield         | OpenFOAM: The Open Source CFD Toolbox           |
|  \\    /   O peration     | Version:  v2006                                 |
|   \\  /    A nd           | Website:  www.openfoam.com                      |
|    \\/     M anipulation  |                                                 |
\*---------------------------------------------------------------------------*/
FoamFile
{
    version     2.0;
    format      ascii;
    class       volScalarField;
    location    "3.1";
    object      omega;
}
// * * * * * * * * * * * * * * * * * * * * * * * * * * * * * * * * * * * * * //

dimensions      [0 0 -1 0 0 0 0];


internalField   nonuniform List<scalar> 
33000
(
0.801425
0.801493
0.80155
0.801612
0.801692
0.801812
0.801989
0.802239
0.802564
0.802959
0.803411
0.803893
0.804383
0.804857
0.80528
0.805634
0.805923
0.806158
0.80634
0.806483
0.806595
0.80668
0.806732
0.806748
0.80675
0.806773
0.806825
0.806877
0.806892
0.806886
0.806893
0.806923
0.806946
0.806963
0.806992
0.807043
0.807081
0.807097
0.807101
0.807117
0.807159
0.807206
0.807227
0.807224
0.807228
0.807257
0.807304
0.807332
0.80733
0.807318
0.80731
0.807301
0.807293
0.807286
0.807269
0.807238
0.807201
0.807168
0.807143
0.807114
0.80708
0.807048
0.807025
0.807009
0.806982
0.806952
0.806911
0.806867
0.806822
0.806775
0.806726
0.806674
0.806619
0.806558
0.80649
0.806402
0.806283
0.806118
0.805875
0.805549
0.805221
0.804974
0.804833
0.804771
0.804689
0.804709
0.804721
0.804713
0.804688
0.80467
0.804649
0.804624
0.804588
0.804541
0.804487
0.804421
0.804337
0.804223
0.804079
0.803898
0.803719
0.803586
0.803511
0.803477
0.803437
0.803414
0.803414
0.803404
0.80338
0.803354
0.803332
0.803309
0.803287
0.803255
0.803216
0.80316
0.803106
0.803043
0.803001
0.802998
0.803009
0.803021
0.803022
0.803023
0.803031
0.803035
0.80304
0.803046
0.803052
0.803053
0.803054
0.803058
0.80306
0.803061
0.80306
0.80306
0.803061
0.80306
0.803058
0.803056
0.803055
0.803052
0.80305
0.803046
0.803042
0.803037
0.803032
0.803028
0.803023
0.803018
0.803012
0.803007
0.803
0.802994
0.80299
0.802985
0.802979
0.802972
0.802967
0.802962
0.802958
0.802952
0.802947
0.802943
0.802938
0.802932
0.802927
0.802923
0.802918
0.802913
0.802908
0.802903
0.8029
0.802896
0.802892
0.802888
0.802884
0.802882
0.802879
0.802877
0.802875
0.802872
0.802871
0.802869
0.802868
0.802867
0.802865
0.802865
0.802864
0.802863
0.802861
0.80286
0.802859
0.802858
0.802856
0.802854
0.802852
0.802849
0.802846
0.802843
0.802839
0.802835
0.802831
0.802826
0.802821
0.802815
0.802809
0.802804
0.802799
0.802794
0.802788
0.802783
0.802778
0.802773
0.802768
0.802762
0.802758
0.802753
0.802748
0.802743
0.802738
0.802733
0.802728
0.802723
0.802718
0.802713
0.802708
0.802703
0.802697
0.802692
0.802688
0.802683
0.802677
0.802672
0.802666
0.802661
0.802656
0.802651
0.802645
0.80264
0.802635
0.80263
0.802625
0.802619
0.802614
0.802608
0.802603
0.802598
0.802592
0.802585
0.802579
0.802573
0.802566
0.80256
0.802553
0.802546
0.802539
0.802531
0.802524
0.802516
0.802509
0.8025
0.802492
0.802484
0.802476
0.802468
0.80246
0.802451
0.802442
0.802433
0.802425
0.802416
0.802407
0.802398
0.802389
0.802379
0.80237
0.802361
0.802351
0.802342
0.802332
0.802322
0.802313
0.802303
0.802293
0.802283
0.802272
0.802262
0.802252
0.802241
0.802231
0.80222
0.802209
0.802199
0.802188
0.802177
0.802166
0.802155
0.802145
0.802134
0.802123
0.802112
0.802101
0.80209
0.802079
0.802068
0.802057
0.802046
0.802035
0.802024
0.802013
0.802002
0.801991
0.80198
0.801969
0.801959
0.801948
0.801937
0.801927
0.801917
0.801906
0.801896
0.801886
0.801876
0.801867
0.801857
0.801847
0.801837
0.801828
0.801818
0.801809
0.8018
0.80179
0.801781
0.801772
0.801762
0.801753
0.801744
0.801735
0.801726
0.801717
0.801708
0.801699
0.80169
0.801681
0.801672
0.801663
0.801654
0.801645
0.801636
0.801627
0.801618
0.80161
0.801601
0.801592
0.801583
0.801575
0.801566
0.801558
0.801549
0.80154
0.801532
0.801524
0.801515
0.801507
0.801499
0.80149
0.801482
0.801474
0.801466
0.801458
0.80145
0.801442
0.801435
0.801427
0.801419
0.801412
0.801404
0.801397
0.801389
0.801382
0.801375
0.801368
0.801361
0.801354
0.801347
0.80134
0.801333
0.801326
0.80132
0.801313
0.801307
0.801301
0.801294
0.801288
0.801282
0.801276
0.80127
0.801265
0.801259
0.801253
0.801248
0.801242
0.801237
0.801231
0.801226
0.801221
0.801216
0.801211
0.801206
0.801201
0.801197
0.801192
0.801187
0.801183
0.801178
0.801174
0.80117
0.801166
0.801161
0.801157
0.801153
0.801149
0.801146
0.801141
0.801137
0.801134
0.80113
0.801128
0.801125
0.801126
0.801123
0.801121
0.801118
0.801116
0.801113
0.80111
0.801108
0.801105
0.801102
0.801099
0.801097
0.801094
0.801091
0.801089
0.801086
0.801084
0.801082
0.80108
0.801078
0.801076
0.801074
0.801072
0.80107
0.801067
0.801066
0.801064
0.801062
0.80106
0.801058
0.801056
0.801055
0.801053
0.801048
0.801047
0.801047
0.801042
0.801051
0.801048
0.801082
0.801079
0.801088
0.801092
0.801095
0.801096
0.801097
0.801098
0.801098
0.801098
0.801097
0.801097
0.801096
0.801096
0.801095
0.801094
0.801093
0.801093
0.801092
0.801091
0.80109
0.801089
0.801088
0.801087
0.801086
0.801084
0.801083
0.801082
0.801081
0.80108
0.801079
0.801078
0.801077
0.801075
0.801074
0.801073
0.801071
0.80107
0.801069
0.801068
0.801066
0.801065
0.801064
0.801063
0.801061
0.80106
0.801059
0.801058
0.801057
0.801056
0.801055
0.801054
0.801052
0.801051
0.80105
0.801049
0.801048
0.801047
0.801046
0.801045
0.801044
0.801043
0.801042
0.801041
0.80104
0.801039
0.801038
0.801037
0.801036
0.801035
0.801034
0.801033
0.801032
0.801031
0.801031
0.80103
0.801029
0.801028
0.801026
0.80103
0.80102
0.00240732
0.0028803
0.00384735
0.005648
0.00947488
0.0144756
0.0213376
0.0306677
0.0424219
0.0554636
0.0685056
0.0813487
0.0939754
0.105623
0.115291
0.122791
0.128775
0.133639
0.137446
0.14056
0.143041
0.144758
0.146017
0.146493
0.14697
0.148131
0.14987
0.151559
0.152297
0.152646
0.152825
0.153072
0.1529
0.153164
0.154685
0.155964
0.155689
0.153983
0.152091
0.152269
0.153507
0.153474
0.152113
0.15008
0.149243
0.150124
0.150476
0.148971
0.146536
0.144373
0.142668
0.141028
0.139393
0.137735
0.135828
0.133844
0.131964
0.130304
0.128755
0.12723
0.126424
0.127467
0.131035
0.136261
0.140502
0.143096
0.146473
0.152631
0.159874
0.164571
0.168662
0.174259
0.185095
0.205859
0.235049
0.279873
0.342845
0.447211
0.543567
0.613935
0.750428
0.802366
0.70311
0.506174
0.268447
0.148113
0.0908465
0.0607889
0.04857
0.0448862
0.044696
0.0419595
0.0419792
0.042682
0.0470854
0.0528846
0.0636084
0.0732479
0.0997869
0.123055
0.115162
0.0871578
0.0580909
0.0447176
0.0368253
0.0323136
0.0317166
0.0314871
0.030572
0.0297557
0.0300638
0.0303447
0.0309156
0.0322075
0.0358961
0.0393586
0.0537586
0.0617358
0.0518049
0.0372233
0.0293871
0.0279885
0.0280501
0.027692
0.027723
0.0266611
0.0255657
0.0258509
0.0268002
0.0268665
0.026134
0.0262065
0.0270078
0.0275943
0.0272396
0.0265722
0.0272269
0.0280071
0.0280274
0.0272421
0.0278598
0.0285703
0.0285724
0.028417
0.0289309
0.0291467
0.0286668
0.0281297
0.0288797
0.0293654
0.0294892
0.0297319
0.0286107
0.0275835
0.028445
0.0294985
0.029336
0.0281531
0.0276348
0.0285518
0.029151
0.0284416
0.0274529
0.027975
0.0289366
0.0285697
0.0275775
0.027646
0.0283985
0.0287974
0.0279307
0.0269345
0.027497
0.0282901
0.0279301
0.0272057
0.0268325
0.0270521
0.0271044
0.0269851
0.0268109
0.0262298
0.0261003
0.0263415
0.0261257
0.0254721
0.0248466
0.0252322
0.0253557
0.0248934
0.0242431
0.0242722
0.0242382
0.0238717
0.023506
0.0231229
0.0231268
0.0228989
0.022347
0.0217789
0.0218705
0.0218272
0.021631
0.0210485
0.0206122
0.0200981
0.0200724
0.0202629
0.0197349
0.0191295
0.018795
0.018981
0.0185286
0.0181856
0.0177363
0.0172939
0.0174985
0.0171641
0.0168984
0.0167061
0.0160022
0.0156733
0.0157915
0.0156668
0.0153386
0.0150474
0.0148658
0.0145279
0.0141556
0.0142395
0.0141021
0.0138607
0.0136519
0.0133766
0.0131139
0.0132452
0.0131608
0.0129491
0.0127098
0.012708
0.0125777
0.0124598
0.0123533
0.0122859
0.0121808
0.0120875
0.0121868
0.0120192
0.0118501
0.0118729
0.0118357
0.0117773
0.0117462
0.0116848
0.0116877
0.0116347
0.0115192
0.0114943
0.0115516
0.0114946
0.0114255
0.0113466
0.0113992
0.011386
0.0113538
0.0113305
0.0113038
0.0112262
0.0111872
0.0112038
0.0112083
0.0111946
0.0111716
0.0111421
0.0111227
0.0110842
0.0110764
0.0110612
0.0110442
0.0110293
0.0110291
0.0110182
0.0109743
0.0109476
0.0109226
0.0109053
0.0109065
0.0108923
0.0108684
0.0108465
0.0108126
0.0107915
0.0107937
0.0107813
0.0107649
0.0107515
0.0107339
0.0107209
0.010711
0.0106976
0.0106843
0.0106698
0.0106538
0.0106424
0.0106284
0.0106104
0.0105908
0.0105759
0.0105669
0.0105513
0.0105354
0.0105207
0.0105074
0.0104948
0.0104819
0.0104682
0.0104548
0.0104418
0.0104289
0.0104148
0.0104003
0.0103859
0.0103721
0.0103612
0.0103491
0.0103373
0.0103267
0.0103201
0.0103128
0.0103055
0.0102985
0.0102921
0.0102865
0.0102801
0.0102725
0.0102647
0.0102575
0.0102512
0.0102451
0.0102388
0.0102327
0.0102269
0.0102218
0.0102168
0.0102117
0.0102064
0.0102014
0.0101964
0.0101914
0.0101869
0.0101833
0.0101806
0.0101784
0.010177
0.0101761
0.0101751
0.0101733
0.0101711
0.0101687
0.0101663
0.0101637
0.0101612
0.0101596
0.0101592
0.0101595
0.01016
0.0101603
0.01016
0.0101591
0.0101576
0.0101554
0.0101532
0.0101516
0.0101508
0.0101505
0.0101504
0.0101502
0.0101502
0.01015
0.0101491
0.0101476
0.0101461
0.0101454
0.010146
0.0101476
0.0101496
0.0101515
0.0101527
0.0101531
0.0101531
0.0101532
0.0101542
0.0101564
0.0101601
0.0101646
0.0101695
0.0101738
0.0101769
0.0101787
0.0101797
0.0101812
0.0101839
0.0101874
0.0101909
0.0101944
0.0101976
0.0102003
0.0102024
0.0102055
0.0102099
0.0102143
0.0102186
0.0102204
0.0102227
0.010223
0.0102263
0.0102334
0.0102365
0.010236
0.0102386
0.0102221
0.0102308
0.0102728
0.0102781
0.0103128
0.0103307
0.0103585
0.0103519
0.0103114
0.0103335
0.0103173
0.010282
0.010284
0.0102929
0.0102942
0.0102989
0.0102996
0.0102988
0.0102901
0.0102886
0.0103076
0.0103148
0.0103227
0.0103276
0.0103515
0.0103529
0.0103184
0.0103104
0.0103006
0.0103121
0.0103061
0.0103134
0.0102973
0.0103205
0.0103365
0.0103445
0.0103459
0.0103426
0.0103348
0.010228
0.0102673
0.0102703
0.0103227
0.0102482
0.0102417
0.0103325
0.0111123
0.0116663
0.0157599
0.0151996
0.0137863
0.0124195
0.0116965
0.0112455
0.0109629
0.0107906
0.0106764
0.0105912
0.0105338
0.0104956
0.0104664
0.0104409
0.0104208
0.0104099
0.0104067
0.0104033
0.0103951
0.0103838
0.0103741
0.0103684
0.0103675
0.0103705
0.0103759
0.0103816
0.0103859
0.0103879
0.0103873
0.0103838
0.0103769
0.0103666
0.0103534
0.0103409
0.0103379
0.0103371
0.0103366
0.0103364
0.0103364
0.0103365
0.0103367
0.0103367
0.0103369
0.0103371
0.0103375
0.0103381
0.0103401
0.0103431
0.0103423
0.0103388
0.0103373
0.0103368
0.0103365
0.0103366
0.0103371
0.0103379
0.0103401
0.0103456
0.0103374
0.010335
0.0103344
0.0103378
0.0103813
0.0104233
0.0104016
0.0103471
0.0103406
0.0103837
0.0104338
0.0104007
0.0103357
0.0103333
0.0103444
0.0103473
0.0103321
0.0103311
0.0103387
0.0103806
0.0103541
0.010407
0.0103239
0.0103147
0.00183718
0.00178429
0.00177991
0.00180045
0.00223259
0.0027145
0.0034942
0.00472719
0.00643976
0.0084449
0.0105066
0.0125853
0.0146446
0.0165246
0.0180455
0.0192314
0.0202391
0.0211027
0.0217878
0.0224056
0.0229323
0.0233885
0.0237301
0.0238758
0.0240232
0.0243761
0.0249664
0.0255821
0.0258306
0.0258988
0.0260135
0.0262317
0.0264166
0.0265297
0.0268299
0.027346
0.02766
0.0276297
0.0273239
0.0270549
0.0270567
0.0270469
0.0268165
0.0263586
0.0259691
0.0259513
0.0260611
0.025909
0.025418
0.024747
0.0241307
0.0236542
0.0233568
0.0231281
0.0227643
0.0222638
0.0217357
0.021333
0.0209757
0.0205393
0.0202276
0.0203683
0.0212276
0.022493
0.0234866
0.0242666
0.0253984
0.0272675
0.0294377
0.0309015
0.0321011
0.0336264
0.0364486
0.0420918
0.050225
0.0622265
0.0796088
0.110465
0.16087
0.212419
0.273625
0.306445
0.296427
0.29023
0.250503
0.171583
0.0967795
0.0458205
0.0203255
0.0105085
0.00610571
0.00427813
0.00358864
0.00333073
0.00343079
0.00389779
0.0046794
0.00546947
0.00775157
0.0111135
0.0115505
0.0102682
0.00855096
0.00687719
0.00536335
0.00420325
0.00350218
0.00312399
0.00260799
0.00228395
0.00224902
0.0021876
0.0021577
0.00214612
0.00222382
0.0023554
0.00300958
0.0036699
0.0034377
0.00319046
0.00301014
0.00272212
0.00252504
0.0023843
0.00219009
0.00200724
0.00185059
0.00185346
0.00185441
0.00183703
0.00179879
0.00180203
0.00183518
0.00186476
0.0018489
0.00182262
0.00186076
0.00189585
0.00189174
0.00185932
0.00190278
0.00193338
0.00192557
0.00193101
0.00196731
0.00197016
0.00193903
0.00192301
0.00197545
0.00199168
0.00198881
0.0020031
0.0019469
0.00189943
0.00194489
0.00199728
0.00197877
0.00191415
0.00189391
0.00194414
0.00197496
0.00193444
0.0018785
0.00190497
0.00196167
0.00194323
0.00188656
0.00188244
0.00192474
0.00195269
0.00190038
0.00184304
0.00187568
0.00192067
0.0018887
0.00185126
0.00184081
0.00184415
0.00183728
0.00182833
0.00182249
0.00179695
0.00178986
0.00179606
0.00177799
0.00174226
0.00171068
0.00172499
0.00172867
0.00170679
0.00167809
0.00167423
0.00166694
0.00164256
0.00161909
0.00160434
0.0016082
0.0015923
0.00156039
0.00153364
0.00153356
0.00153047
0.00152146
0.00148855
0.00146815
0.00145086
0.0014493
0.00144878
0.00142068
0.00139847
0.00138847
0.00138994
0.00136654
0.00135248
0.00133698
0.00131931
0.00132134
0.00130868
0.00129885
0.00128934
0.00126555
0.00125658
0.00125354
0.00124778
0.00123824
0.00122698
0.00122046
0.00120997
0.00119939
0.00119803
0.00119391
0.00118663
0.00117925
0.00117209
0.00116483
0.00116553
0.00116363
0.00116083
0.00115482
0.00115206
0.00114763
0.00114519
0.00114341
0.00114103
0.00113814
0.00113727
0.00113931
0.0011353
0.00113148
0.00113195
0.00113139
0.00112999
0.00112972
0.00112851
0.00112801
0.00112695
0.00112576
0.00112604
0.00112592
0.00112375
0.00112297
0.00112263
0.00112363
0.00112324
0.00112277
0.00112211
0.0011213
0.00111974
0.00111947
0.00111983
0.00111979
0.00111923
0.00111868
0.00111849
0.00111836
0.00111726
0.00111698
0.00111669
0.00111649
0.00111626
0.00111629
0.00111614
0.00111491
0.00111462
0.0011143
0.00111397
0.00111382
0.00111349
0.00111297
0.00111255
0.00111195
0.00111161
0.00111161
0.00111131
0.00111099
0.00111075
0.00111048
0.00111025
0.00110993
0.00110966
0.00110934
0.00110899
0.00110867
0.00110836
0.00110793
0.00110749
0.00110712
0.00110681
0.00110651
0.00110603
0.00110564
0.00110529
0.00110495
0.00110461
0.00110425
0.0011039
0.0011036
0.00110331
0.00110298
0.00110264
0.00110236
0.0011021
0.00110188
0.00110168
0.00110143
0.00110124
0.00110111
0.00110101
0.00110089
0.0011008
0.0011007
0.00110062
0.0011006
0.0011006
0.00110062
0.00110065
0.00110071
0.00110079
0.00110089
0.001101
0.00110112
0.00110123
0.00110134
0.00110147
0.00110161
0.00110176
0.00110192
0.00110207
0.00110223
0.0011024
0.00110255
0.00110271
0.00110288
0.00110305
0.00110322
0.00110339
0.00110355
0.0011037
0.00110386
0.00110402
0.00110418
0.00110435
0.00110451
0.00110467
0.00110483
0.00110499
0.00110513
0.00110526
0.00110538
0.0011055
0.00110561
0.00110571
0.0011058
0.00110591
0.00110602
0.00110611
0.00110618
0.00110625
0.00110634
0.00110644
0.00110654
0.00110662
0.00110672
0.00110681
0.0011069
0.00110697
0.00110705
0.00110712
0.0011072
0.00110729
0.00110739
0.00110751
0.00110764
0.00110775
0.00110785
0.00110795
0.00110807
0.00110819
0.00110832
0.00110843
0.00110856
0.00110865
0.00110874
0.0011088
0.00110888
0.001109
0.00110912
0.00110927
0.00110942
0.00110954
0.00110962
0.00110977
0.00110983
0.00110979
0.00110991
0.00111023
0.00111045
0.00111125
0.00111115
0.0011102
0.00110992
0.00110969
0.00111036
0.00111061
0.00111122
0.00111158
0.00111208
0.0011126
0.00111228
0.00111284
0.0011126
0.00111246
0.00111254
0.00111268
0.00111286
0.00111308
0.00111315
0.00111341
0.00111345
0.00111342
0.00111386
0.00111423
0.0011144
0.00111465
0.00111505
0.00111539
0.00111508
0.00111536
0.00111548
0.00111615
0.00111612
0.00111617
0.0011157
0.00111585
0.00111703
0.00111778
0.00111844
0.00111924
0.0011226
0.00112207
0.00111719
0.00111905
0.00112848
0.00112599
0.0011303
0.00117529
0.0012006
0.0011855
0.00122227
0.00118224
0.00116373
0.00115181
0.00114342
0.00113846
0.00113571
0.00113401
0.00113233
0.00113108
0.00113025
0.00112962
0.00112916
0.00112891
0.00112872
0.00112835
0.00112774
0.00112694
0.00112619
0.00112556
0.00112519
0.00112509
0.00112523
0.0011255
0.00112574
0.00112582
0.00112567
0.00112531
0.00112483
0.00112431
0.00112385
0.00112353
0.00112339
0.00112342
0.00112362
0.00112374
0.00112367
0.00112343
0.00112307
0.00112275
0.00112259
0.00112266
0.00112294
0.00112329
0.00112358
0.0011237
0.00112372
0.00112379
0.00112397
0.00112426
0.0011245
0.00112446
0.00112415
0.00112381
0.00112364
0.00112379
0.00112435
0.00112509
0.0011257
0.00112666
0.00112741
0.0011274
0.00112732
0.00112665
0.00112652
0.00112777
0.00112874
0.00112839
0.00112644
0.00112619
0.00112871
0.00112994
0.00112805
0.00112679
0.00112975
0.00113095
0.00112841
0.00112797
0.00112937
0.00112364
0.0011155
0.00111976
0.00183768
0.00176837
0.00172388
0.00164045
0.00182894
0.00192016
0.00208736
0.0023955
0.00283233
0.00331551
0.0037677
0.0041888
0.0045927
0.00495015
0.00520853
0.00537274
0.00549074
0.00558101
0.00563945
0.00568608
0.00573243
0.00578482
0.00581286
0.00581205
0.00582367
0.00588686
0.00600209
0.00610245
0.00611246
0.00609394
0.00611583
0.0061668
0.00621465
0.00621198
0.00621567
0.00629896
0.00640692
0.00646585
0.00643715
0.00634243
0.00626715
0.00622438
0.00616754
0.00606672
0.0059574
0.00590002
0.00588273
0.00584358
0.00574573
0.00560123
0.00545874
0.00535207
0.0053009
0.00527355
0.00521161
0.00510529
0.00498595
0.00488967
0.00479598
0.00468757
0.00460582
0.00461789
0.00475498
0.00493262
0.00509101
0.00528338
0.00559346
0.00601447
0.00645233
0.00682262
0.00717359
0.00755277
0.00811383
0.00919297
0.0109073
0.0134368
0.0171649
0.0234646
0.035321
0.0500144
0.0711069
0.0908561
0.102162
0.10906
0.101372
0.0814305
0.0625405
0.0513452
0.0412942
0.0296943
0.0207756
0.0121017
0.00700045
0.00380427
0.00232595
0.0017466
0.00153009
0.0014895
0.00158917
0.00174536
0.00178292
0.00179754
0.00180955
0.00177057
0.00171947
0.00171297
0.00170862
0.00172814
0.00187369
0.00205234
0.0018778
0.00167431
0.00146304
0.00136767
0.00126427
0.00121403
0.00118789
0.00118094
0.00117795
0.00119479
0.00120825
0.00122137
0.00124406
0.00128164
0.00128543
0.00139249
0.00146083
0.00135414
0.00127277
0.00119749
0.00116849
0.00113271
0.00111713
0.00111301
0.00111696
0.001117
0.00111128
0.00110934
0.00111134
0.00111376
0.00111492
0.00111328
0.00111217
0.0011142
0.00111591
0.00111676
0.00111774
0.00111703
0.00111599
0.00111622
0.00111747
0.00111708
0.00111679
0.00111873
0.00111892
0.00111675
0.00111448
0.00111414
0.00111564
0.00111539
0.00111361
0.0011145
0.00111541
0.00111516
0.00111329
0.00111158
0.00111256
0.00111291
0.00111184
0.00111025
0.00111049
0.00111015
0.00110779
0.00110785
0.00110806
0.00110698
0.0011048
0.00110344
0.00110373
0.00110313
0.00110208
0.00110032
0.00109931
0.00109802
0.00109595
0.00109459
0.001094
0.00109336
0.00109182
0.00108972
0.00108832
0.00108696
0.0010861
0.00108418
0.00108091
0.00107866
0.00107867
0.00107806
0.00107653
0.00107384
0.00107166
0.0010705
0.00106906
0.00106806
0.00106671
0.00106512
0.00106214
0.00105918
0.00105914
0.00105872
0.0010567
0.00105443
0.00105349
0.00105229
0.00105076
0.00104878
0.00104756
0.00104654
0.00104492
0.00104337
0.00104263
0.00104241
0.0010407
0.00103869
0.00103751
0.0010368
0.00103651
0.00103586
0.00103514
0.001034
0.00103278
0.00103249
0.00103245
0.00103168
0.00103057
0.00103049
0.00103029
0.00102989
0.00102977
0.00102921
0.00102883
0.00102887
0.0010288
0.00102867
0.00102855
0.0010282
0.00102804
0.00102821
0.0010281
0.00102802
0.001028
0.00102799
0.00102779
0.00102762
0.00102766
0.00102761
0.00102752
0.00102737
0.00102731
0.00102719
0.00102701
0.00102693
0.00102681
0.00102664
0.0010265
0.00102635
0.0010262
0.00102601
0.0010258
0.00102559
0.00102542
0.00102526
0.00102505
0.00102482
0.00102464
0.00102445
0.00102416
0.00102389
0.00102367
0.00102347
0.00102323
0.00102296
0.00102277
0.00102251
0.00102223
0.00102197
0.00102165
0.00102136
0.00102114
0.00102089
0.00102063
0.00102039
0.00102013
0.00101988
0.00101965
0.00101942
0.00101918
0.00101895
0.00101871
0.00101847
0.00101823
0.00101797
0.00101772
0.00101746
0.00101721
0.00101695
0.0010167
0.00101644
0.00101619
0.00101595
0.00101572
0.00101549
0.00101527
0.00101505
0.00101485
0.00101465
0.00101444
0.00101424
0.00101405
0.00101386
0.00101367
0.0010135
0.00101334
0.00101319
0.00101306
0.00101293
0.00101283
0.00101276
0.00101269
0.00101264
0.00101259
0.00101254
0.00101251
0.00101248
0.00101244
0.0010124
0.00101239
0.0010124
0.00101241
0.00101241
0.00101242
0.00101243
0.00101245
0.00101245
0.00101246
0.00101245
0.00101244
0.00101242
0.00101241
0.0010124
0.0010124
0.0010124
0.0010124
0.0010124
0.00101241
0.00101241
0.00101241
0.00101239
0.00101237
0.00101233
0.0010123
0.00101226
0.00101223
0.00101221
0.00101218
0.00101216
0.00101213
0.00101208
0.00101202
0.00101197
0.0010119
0.00101183
0.00101177
0.00101171
0.00101165
0.00101158
0.00101152
0.00101145
0.00101136
0.00101127
0.00101117
0.00101108
0.00101099
0.0010109
0.00101082
0.00101073
0.00101063
0.00101052
0.00101041
0.0010103
0.00101019
0.00101008
0.00100998
0.00100989
0.00100979
0.0010097
0.00100959
0.00100947
0.00100935
0.00100924
0.00100912
0.00100903
0.00100892
0.00100881
0.00100869
0.00100864
0.00100848
0.00100845
0.00100824
0.00100795
0.00100776
0.00100763
0.00100779
0.00100767
0.00100836
0.00100797
0.00100633
0.00100609
0.00100555
0.00100529
0.00100382
0.00100379
0.00100531
0.00100538
0.00100617
0.00100627
0.00100722
0.00100709
0.0010063
0.00100629
0.00100603
0.0010061
0.00100589
0.00100535
0.00100515
0.00100517
0.0010048
0.0010047
0.00100392
0.00100391
0.00100474
0.00100469
0.00100489
0.00100476
0.00100523
0.00100502
0.00100524
0.00100491
0.00100429
0.00100404
0.00100505
0.00100455
0.00100867
0.00100672
0.00100338
0.00100745
0.00100585
0.00101463
0.00101512
0.00103666
0.00103622
0.00101445
0.00101624
0.00101571
0.00101436
0.00101284
0.00101256
0.00100884
0.00100801
0.00100705
0.00100625
0.0010056
0.00100481
0.00100414
0.0010036
0.00100319
0.00100286
0.00100262
0.00100246
0.00100237
0.00100231
0.00100229
0.00100229
0.00100232
0.00100237
0.00100242
0.00100247
0.0010025
0.00100252
0.00100254
0.00100256
0.00100259
0.00100263
0.00100269
0.00100275
0.00100282
0.00100286
0.0010029
0.00100291
0.00100289
0.00100286
0.00100283
0.00100281
0.00100281
0.00100283
0.00100285
0.00100288
0.00100291
0.00100292
0.00100291
0.0010029
0.00100288
0.00100288
0.00100289
0.0010029
0.0010029
0.00100286
0.00100283
0.00100281
0.00100283
0.00100286
0.00100289
0.00100288
0.00100285
0.00100278
0.00100272
0.00100268
0.00100265
0.00100266
0.00100272
0.0010028
0.00100279
0.00100268
0.0010026
0.00100267
0.00100285
0.00100284
0.0010026
0.00100251
0.00100259
0.00100261
0.00100243
0.00100245
0.00100259
0.0010027
0.00100274
0.00100314
0.00100219
0.00100733
0.00100324
0.00184416
0.00177004
0.00172524
0.00163534
0.00180639
0.00186011
0.00196222
0.00216776
0.00245697
0.00275934
0.00301181
0.00322046
0.00339603
0.0035118
0.00354165
0.00350645
0.00344683
0.0033836
0.00331724
0.00325269
0.00319637
0.00315004
0.00311149
0.00307765
0.00305621
0.00304982
0.00305453
0.00305158
0.0030293
0.00300354
0.00299221
0.0029939
0.00299406
0.00297199
0.00294426
0.00293786
0.00295357
0.00296894
0.00295985
0.00292352
0.0028824
0.00285225
0.00283237
0.00280546
0.00277181
0.00274639
0.00272997
0.0027144
0.00268733
0.00264824
0.00260805
0.00257578
0.00255681
0.00254892
0.00253075
0.00249509
0.00245555
0.00242669
0.00239734
0.00236338
0.00233736
0.00233493
0.00235082
0.00235909
0.00236684
0.00240318
0.00248048
0.00256645
0.0026408
0.00272167
0.00281706
0.00290791
0.00300799
0.00318533
0.00350439
0.00398896
0.00467999
0.00577295
0.0078688
0.0109974
0.015708
0.02088
0.0241886
0.0271563
0.0271173
0.0240992
0.020842
0.0184687
0.016541
0.0150563
0.0199421
0.0244378
0.0221995
0.0173848
0.01051
0.00612996
0.00335767
0.00209159
0.0015766
0.00136257
0.00129052
0.00127266
0.0012402
0.00121241
0.00121075
0.00122224
0.00122328
0.00129049
0.00137758
0.00151065
0.0015552
0.00175113
0.00192866
0.00176712
0.00158932
0.00140263
0.00131416
0.00121507
0.00116565
0.00112856
0.00111557
0.0011157
0.00112043
0.00112598
0.00114895
0.00117561
0.00122243
0.0012421
0.00135941
0.00142894
0.00132372
0.00124777
0.00117438
0.00114344
0.00111499
0.00109863
0.00109582
0.00109492
0.00109762
0.00109496
0.00109135
0.00109004
0.00109146
0.00109204
0.00109185
0.00109275
0.0010938
0.00109268
0.00109076
0.00109127
0.00109249
0.00109227
0.00109379
0.00109391
0.00109226
0.0010905
0.00109078
0.00109369
0.00109456
0.00109206
0.0010892
0.00109022
0.00109328
0.00109207
0.00108812
0.00108847
0.00109167
0.0010915
0.00108791
0.00108551
0.00108811
0.00108996
0.00108653
0.00108436
0.00108667
0.00108643
0.00108388
0.00108325
0.00108466
0.00108422
0.00108191
0.00108168
0.0010812
0.00107943
0.00107826
0.00107878
0.00107988
0.00107741
0.00107489
0.00107459
0.00107412
0.00107253
0.00107115
0.0010715
0.00107147
0.00106859
0.00106602
0.00106549
0.00106599
0.00106522
0.00106297
0.00106108
0.00105995
0.00106043
0.0010595
0.00105722
0.00105491
0.00105332
0.00105366
0.00105322
0.00105113
0.00104925
0.00104857
0.00104755
0.00104672
0.00104586
0.00104442
0.00104295
0.00104103
0.00104082
0.00104076
0.0010395
0.00103868
0.00103695
0.00103597
0.00103512
0.00103435
0.0010344
0.00103386
0.00103308
0.00103216
0.0010312
0.00103116
0.00103106
0.00103006
0.00102943
0.00102945
0.00102917
0.00102899
0.00102887
0.00102857
0.00102835
0.00102809
0.00102801
0.00102817
0.00102763
0.00102747
0.00102774
0.00102764
0.00102747
0.00102734
0.00102739
0.0010273
0.00102704
0.00102693
0.00102699
0.0010269
0.0010267
0.00102664
0.00102661
0.00102641
0.00102624
0.00102613
0.00102591
0.00102576
0.00102563
0.00102549
0.00102532
0.00102513
0.00102487
0.00102469
0.00102455
0.00102435
0.00102409
0.00102389
0.00102374
0.00102349
0.00102325
0.00102298
0.00102275
0.0010225
0.00102226
0.00102205
0.00102178
0.00102148
0.00102118
0.00102091
0.00102064
0.00102039
0.00102013
0.00101985
0.0010196
0.00101936
0.00101912
0.00101889
0.00101865
0.00101842
0.00101819
0.00101796
0.00101773
0.00101749
0.00101724
0.00101699
0.00101673
0.00101648
0.00101622
0.00101596
0.0010157
0.00101544
0.0010152
0.00101497
0.00101474
0.00101451
0.0010143
0.00101409
0.00101389
0.00101369
0.00101349
0.0010133
0.00101311
0.00101292
0.00101275
0.00101261
0.00101247
0.00101234
0.00101223
0.00101212
0.00101205
0.00101199
0.00101193
0.00101187
0.00101181
0.00101178
0.00101174
0.00101169
0.00101165
0.00101164
0.00101163
0.00101164
0.00101164
0.00101164
0.00101164
0.00101165
0.00101165
0.00101164
0.00101164
0.00101163
0.00101161
0.0010116
0.00101159
0.00101159
0.00101158
0.00101158
0.00101158
0.00101157
0.00101156
0.00101154
0.00101152
0.00101149
0.00101146
0.00101144
0.0010114
0.00101138
0.00101135
0.00101132
0.00101128
0.00101124
0.00101119
0.00101113
0.00101107
0.001011
0.00101093
0.00101086
0.0010108
0.00101073
0.00101065
0.00101057
0.00101049
0.0010104
0.00101031
0.00101022
0.00101013
0.00101004
0.00100994
0.00100985
0.00100974
0.00100963
0.00100951
0.00100939
0.00100928
0.00100917
0.00100907
0.00100897
0.00100887
0.00100876
0.00100865
0.00100855
0.00100842
0.00100832
0.00100819
0.00100807
0.00100796
0.0010079
0.00100776
0.00100771
0.00100752
0.00100718
0.00100705
0.00100711
0.00100699
0.00100688
0.00100759
0.00100715
0.00100532
0.00100506
0.00100462
0.0010043
0.00100286
0.00100281
0.00100431
0.00100434
0.00100505
0.00100523
0.00100639
0.00100625
0.00100544
0.00100541
0.00100518
0.00100534
0.00100521
0.00100452
0.00100427
0.00100399
0.00100378
0.00100279
0.00100282
0.00100359
0.00100358
0.00100379
0.00100366
0.00100368
0.00100421
0.00100403
0.00100418
0.00100375
0.0010031
0.0010028
0.00100383
0.00100349
0.00100762
0.00100581
0.00100645
0.00100452
0.0010128
0.00101404
0.00102034
0.00103964
0.00103902
0.00101412
0.00101509
0.00101448
0.00101288
0.00101112
0.00100848
0.0010042
0.00100305
0.001004
0.00100443
0.00100482
0.00100461
0.00100407
0.00100344
0.00100287
0.00100242
0.00100206
0.00100175
0.00100148
0.00100127
0.00100111
0.00100097
0.00100087
0.00100082
0.00100081
0.00100084
0.00100088
0.00100091
0.00100092
0.00100092
0.00100092
0.00100091
0.00100093
0.00100096
0.00100101
0.00100108
0.00100115
0.00100121
0.00100126
0.00100128
0.00100128
0.00100125
0.00100122
0.00100119
0.00100117
0.00100118
0.00100119
0.00100122
0.00100125
0.00100126
0.00100127
0.00100126
0.00100124
0.00100123
0.00100124
0.00100125
0.00100126
0.00100123
0.00100119
0.00100115
0.00100115
0.00100119
0.00100124
0.00100123
0.00100119
0.00100112
0.00100103
0.00100098
0.00100095
0.00100095
0.00100097
0.00100101
0.00100101
0.00100094
0.00100087
0.00100094
0.00100113
0.00100116
0.00100087
0.00100068
0.00100078
0.00100097
0.00100073
0.00100053
0.00100071
0.00100089
0.00100075
0.00100085
0.0010014
0.00100053
0.00100625
0.00100172
0.00185221
0.00177337
0.00173177
0.00164479
0.00182063
0.00187338
0.00197202
0.00217157
0.00245489
0.002749
0.00299659
0.00320301
0.0033668
0.00345284
0.00344179
0.00336145
0.00326688
0.00318239
0.00309859
0.00300814
0.00291837
0.00284299
0.00279183
0.00275594
0.00272851
0.00270802
0.00268808
0.00266043
0.00263021
0.00260354
0.00258596
0.00257348
0.00256302
0.00254397
0.00251753
0.00249362
0.00247505
0.00246085
0.00244868
0.00243188
0.00240602
0.00237855
0.00236159
0.00234986
0.00233262
0.00230967
0.00229253
0.00228654
0.00227579
0.00225358
0.00222594
0.00220334
0.00218801
0.00218074
0.00217099
0.0021483
0.00212019
0.0021006
0.00208365
0.00206316
0.00204522
0.00204013
0.00203809
0.00202491
0.00201098
0.00201695
0.0020423
0.00206117
0.00207234
0.00208957
0.00211407
0.00213796
0.00215695
0.00219059
0.00225562
0.00234503
0.00245679
0.00261694
0.00291384
0.003419
0.0041891
0.00514349
0.00595084
0.00670344
0.00699281
0.00665444
0.00602033
0.00560334
0.00549305
0.00581688
0.00745725
0.00956622
0.0111508
0.017437