/*--------------------------------*- C++ -*----------------------------------*\
| =========                 |                                                 |
| \\      /  F ield         | OpenFOAM: The Open Source CFD Toolbox           |
|  \\    /   O peration     | Version:  v2006                                 |
|   \\  /    A nd           | Website:  www.openfoam.com                      |
|    \\/     M anipulation  |                                                 |
\*---------------------------------------------------------------------------*/
FoamFile
{
    version     2.0;
    format      ascii;
    class       volScalarField;
    location    "3.1";
    object      p;
}
// * * * * * * * * * * * * * * * * * * * * * * * * * * * * * * * * * * * * * //

dimensions      [1 -1 -2 0 0 0 0];


internalField   nonuniform List<scalar> 
33000
(
7568.47
7586.85
7599.26
7612.64
7625.86
7639.19
7652.44
7665.65
7678.83
7691.98
7705.1
7718.17
7731.16
7744.05
7756.92
7769.73
7782.47
7795.14
7807.72
7820.21
7832.62
7844.94
7857.18
7869.32
7881.38
7893.33
7905.16
7916.89
7928.52
7940.06
7951.5
7962.81
7974
7985.07
7996.02
8006.83
8017.52
8028.09
8038.55
8048.89
8059.08
8069.12
8079.03
8088.81
8098.47
8107.97
8117.3
8126.46
8135.51
8144.42
8153.2
8161.8
8170.23
8178.5
8186.62
8194.59
8202.41
8210.06
8217.55
8224.87
8232.02
8239.02
8245.87
8252.54
8259.04
8265.39
8271.59
8277.66
8283.59
8289.36
8294.98
8300.5
8305.91
8311.23
8316.41
8321.49
8326.37
8330.4
8330.28
8325.84
8336.44
8339.97
8341.9
8345.97
8348.79
8350.62
8354.18
8357.22
8359.8
8362.07
8364.41
8366.5
8368.44
8370.46
8372.48
8374.42
8376.7
8378.51
8382.07
8382.41
8378.51
8378.27
8377.25
8375.91
8374.9
8373.06
8370.77
8368.32
8365.89
8363.4
8360.61
8357.71
8354.65
8351.4
8348.24
8344.74
8342.52
8338.14
8331.24
8326.2
8320.47
8314.38
8308.35
8301.85
8294.88
8287.84
8280.61
8273.19
8265.63
8257.93
8250.07
8242.11
8234.04
8225.9
8217.69
8209.43
8201.12
8192.77
8184.38
8175.97
8167.54
8159.11
8150.68
8142.27
8133.88
8125.53
8117.21
8108.96
8100.75
8092.62
8084.56
8076.58
8068.69
8060.9
8053.21
8045.61
8038.12
8030.75
8023.5
8016.36
8009.33
8002.44
7995.67
7989.02
7982.49
7976.1
7969.84
7963.7
7957.69
7951.8
7946.05
7940.42
7934.92
7929.53
7924.28
7919.15
7914.13
7909.24
7904.45
7899.79
7895.23
7890.79
7886.46
7882.23
7878.1
7874.08
7870.16
7866.32
7862.58
7858.94
7855.38
7851.91
7848.52
7845.22
7841.99
7838.85
7835.77
7832.76
7829.83
7826.96
7824.16
7821.42
7818.74
7816.12
7813.56
7811.05
7808.59
7806.18
7803.83
7801.52
7799.26
7797.04
7794.86
7792.73
7790.64
7788.59
7786.57
7784.59
7782.64
7780.73
7778.86
7777.01
7775.2
7773.41
7771.66
7769.94
7768.25
7766.58
7764.94
7763.33
7761.74
7760.18
7758.64
7757.13
7755.65
7754.18
7752.74
7751.33
7749.93
7748.56
7747.22
7745.89
7744.59
7743.3
7742.04
7740.8
7739.58
7738.39
7737.22
7736.06
7734.93
7733.82
7732.73
7731.67
7730.62
7729.6
7728.6
7727.62
7726.67
7725.73
7724.82
7723.93
7723.06
7722.21
7721.39
7720.59
7719.8
7719.05
7718.31
7717.59
7716.89
7716.22
7715.56
7714.93
7714.32
7713.73
7713.16
7712.61
7712.08
7711.58
7711.09
7710.62
7710.17
7709.74
7709.34
7708.95
7708.58
7708.23
7707.9
7707.58
7707.29
7707.02
7706.76
7706.52
7706.3
7706.09
7705.91
7705.74
7705.58
7705.45
7705.33
7705.23
7705.14
7705.07
7705.01
7704.97
7704.95
7704.93
7704.94
7704.95
7704.99
7705.03
7705.09
7705.16
7705.24
7705.34
7705.44
7705.56
7705.69
7705.83
7705.98
7706.14
7706.31
7706.49
7706.68
7706.88
7707.09
7707.3
7707.52
7707.75
7707.98
7708.22
7708.47
7708.72
7708.98
7709.24
7709.51
7709.78
7710.06
7710.34
7710.62
7710.9
7711.19
7711.48
7711.77
7712.06
7712.35
7712.65
7712.94
7713.24
7713.54
7713.83
7714.13
7714.42
7714.72
7715.01
7715.31
7715.6
7715.89
7716.18
7716.47
7716.75
7717.04
7717.32
7717.6
7717.87
7718.15
7718.42
7718.69
7718.96
7719.23
7719.49
7719.75
7720.01
7720.26
7720.51
7720.76
7721.01
7721.25
7721.49
7721.73
7721.96
7722.19
7722.42
7722.65
7722.87
7723.09
7723.3
7723.52
7723.73
7723.94
7724.14
7724.35
7724.55
7724.74
7724.94
7725.13
7725.32
7725.51
7725.69
7725.87
7726.05
7726.23
7726.4
7726.58
7726.75
7726.91
7727.08
7727.24
7727.4
7727.56
7727.72
7727.87
7728.02
7728.17
7728.32
7728.47
7728.61
7728.75
7728.89
7729.03
7729.17
7729.3
7729.43
7729.56
7729.69
7729.81
7729.94
7730.06
7730.19
7730.3
7730.4
7730.51
7730.62
7730.73
7730.84
7730.95
7731.05
7731.16
7731.27
7731.38
7731.48
7731.59
7731.69
7731.8
7731.9
7732
7732.1
7732.2
7732.29
7732.39
7732.48
7732.57
7732.66
7732.76
7732.85
7732.94
7733.03
7733.12
7733.21
7733.3
7733.38
7733.47
7733.55
7733.63
7733.71
7733.79
7733.85
7733.96
7734.01
7734.05
7734.11
7734.16
7734.22
7734.29
7734.35
7734.42
7734.48
7734.55
7734.61
7734.68
7734.74
7734.81
7734.87
7734.94
7735.01
7735.07
7735.14
7735.2
7735.27
7735.33
7735.4
7735.46
7735.53
7735.59
7735.66
7735.72
7735.78
7735.85
7735.91
7735.97
7736.04
7736.1
7736.16
7736.22
7736.28
7736.34
7736.4
7736.46
7736.52
7736.58
7736.64
7736.7
7736.75
7736.81
7736.87
7736.92
7736.98
7737.03
7737.09
7737.14
7737.2
7737.25
7737.3
7737.36
7737.41
7737.46
7737.51
7737.56
7737.61
7737.66
7737.71
7737.76
7737.81
7737.86
7737.9
7737.95
7738
7738.04
7738.09
7738.13
7738.18
7738.22
7738.26
7738.31
7738.35
7738.39
7738.43
7738.47
7738.53
7372.18
7390.58
7402.99
7416.39
7429.61
7442.94
7456.19
7469.41
7482.6
7495.76
7508.88
7521.97
7534.98
7547.89
7560.77
7573.59
7586.32
7598.99
7611.58
7624.09
7636.51
7648.85
7661.1
7673.26
7685.32
7697.28
7709.14
7720.9
7732.55
7744.09
7755.53
7766.84
7778.04
7789.13
7800.11
7810.95
7821.66
7832.22
7842.67
7853.01
7863.22
7873.29
7883.21
7892.97
7902.63
7912.15
7921.49
7930.68
7939.71
7948.62
7957.38
7965.99
7974.42
7982.69
7990.8
7998.77
8006.58
8014.24
8021.73
8029.05
8036.21
8043.21
8050.07
8056.77
8063.27
8069.63
8075.84
8081.9
8087.78
8093.52
8099.1
8104.54
8109.8
8114.88
8119.73
8124.25
8128.46
8132.34
8136
8140.52
8145.23
8144.51
8137.31
8149.51
8153.38
8155.49
8159.39
8161.92
8164.31
8165.27
8168.27
8170.35
8172.33
8174.29
8176.03
8177.56
8179.25
8180.61
8181.98
8182.73
8182.78
8186.08
8185.18
8179.39
8177.99
8175.83
8174.33
8172.39
8170.73
8168.3
8165.06
8161.93
8158.59
8155.17
8151.77
8148.09
8144.28
8140.13
8135.35
8132.21
8126.69
8118.5
8112.22
8105.59
8098.82
8092.16
8085.01
8077.42
8069.78
8062
8054.11
8046.18
8038.11
8029.94
8021.71
8013.43
8005.1
7996.73
7988.34
7979.92
7971.48
7963.04
7954.6
7946.17
7937.76
7929.39
7921.07
7912.8
7904.58
7896.43
7888.35
7880.37
7872.47
7864.66
7856.95
7849.34
7841.85
7834.47
7827.21
7820.06
7813.03
7806.13
7799.35
7792.7
7786.17
7779.77
7773.5
7767.36
7761.35
7755.46
7749.71
7744.08
7738.57
7733.19
7727.94
7722.8
7717.79
7712.89
7708.11
7703.45
7698.9
7694.45
7690.12
7685.89
7681.77
7677.75
7673.83
7670
7666.26
7662.62
7659.06
7655.59
7652.21
7648.91
7645.68
7642.54
7639.46
7636.46
7633.53
7630.67
7627.86
7625.13
7622.45
7619.83
7617.27
7614.76
7612.31
7609.9
7607.55
7605.25
7602.99
7600.77
7598.6
7596.47
7594.37
7592.32
7590.31
7588.33
7586.38
7584.47
7582.6
7580.76
7578.94
7577.16
7575.41
7573.69
7572
7570.33
7568.69
7567.08
7565.49
7563.93
7562.4
7560.89
7559.4
7557.94
7556.5
7555.08
7553.69
7552.32
7550.97
7549.64
7548.34
7547.06
7545.8
7544.56
7543.34
7542.14
7540.97
7539.82
7538.69
7537.58
7536.49
7535.42
7534.38
7533.36
7532.36
7531.38
7530.42
7529.49
7528.58
7527.69
7526.82
7525.97
7525.14
7524.34
7523.56
7522.8
7522.06
7521.35
7520.65
7519.97
7519.32
7518.69
7518.08
7517.49
7516.92
7516.37
7515.84
7515.33
7514.85
7514.38
7513.93
7513.5
7513.1
7512.71
7512.34
7511.99
7511.66
7511.35
7511.05
7510.78
7510.52
7510.28
7510.06
7509.86
7509.67
7509.5
7509.35
7509.21
7509.1
7508.99
7508.91
7508.84
7508.78
7508.74
7508.72
7508.7
7508.71
7508.73
7508.76
7508.8
7508.86
7508.93
7509.02
7509.11
7509.22
7509.34
7509.47
7509.61
7509.76
7509.92
7510.09
7510.28
7510.46
7510.66
7510.87
7511.08
7511.3
7511.53
7511.77
7512.01
7512.26
7512.51
7512.77
7513.03
7513.3
7513.57
7513.85
7514.13
7514.41
7514.69
7514.98
7515.27
7515.56
7515.86
7516.15
7516.44
7516.74
7517.04
7517.33
7517.63
7517.93
7518.22
7518.52
7518.81
7519.11
7519.4
7519.69
7519.98
7520.27
7520.55
7520.84
7521.12
7521.4
7521.68
7521.95
7522.22
7522.5
7522.76
7523.03
7523.29
7523.55
7523.81
7524.06
7524.31
7524.56
7524.81
7525.05
7525.29
7525.53
7525.76
7525.99
7526.22
7526.45
7526.67
7526.89
7527.11
7527.32
7527.53
7527.74
7527.95
7528.15
7528.35
7528.55
7528.74
7528.93
7529.12
7529.31
7529.5
7529.68
7529.86
7530.03
7530.21
7530.38
7530.55
7530.72
7530.88
7531.04
7531.2
7531.36
7531.52
7531.67
7531.83
7531.98
7532.12
7532.27
7532.41
7532.56
7532.69
7532.83
7532.97
7533.1
7533.23
7533.37
7533.49
7533.63
7533.75
7533.86
7533.97
7534.08
7534.2
7534.31
7534.42
7534.53
7534.64
7534.75
7534.86
7534.96
7535.07
7535.18
7535.28
7535.39
7535.49
7535.6
7535.7
7535.8
7535.9
7536
7536.09
7536.19
7536.28
7536.38
7536.47
7536.56
7536.65
7536.74
7536.84
7536.92
7537.02
7537.1
7537.18
7537.26
7537.35
7537.42
7537.54
7537.61
7537.66
7537.72
7537.78
7537.84
7537.9
7537.96
7538.03
7538.09
7538.15
7538.21
7538.28
7538.34
7538.41
7538.47
7538.54
7538.61
7538.67
7538.74
7538.81
7538.87
7538.94
7539
7539.07
7539.14
7539.2
7539.27
7539.33
7539.4
7539.46
7539.52
7539.59
7539.65
7539.71
7539.78
7539.84
7539.9
7539.96
7540.02
7540.08
7540.14
7540.2
7540.26
7540.32
7540.38
7540.44
7540.5
7540.55
7540.61
7540.67
7540.72
7540.78
7540.84
7540.89
7540.94
7541
7541.05
7541.1
7541.16
7541.21
7541.26
7541.31
7541.36
7541.41
7541.46
7541.51
7541.56
7541.61
7541.66
7541.7
7541.75
7541.8
7541.84
7541.89
7541.93
7541.98
7542.02
7542.07
7542.11
7542.15
7542.19
7542.24
7542.27
7542.33
7175.76
7194.19
7206.64
7220.05
7233.3
7246.66
7259.93
7273.18
7286.38
7299.56
7312.7
7325.8
7338.83
7351.75
7364.65
7377.49
7390.25
7402.93
7415.54
7428.07
7440.51
7452.87
7465.14
7477.32
7489.4
7501.39
7513.28
7525.07
7536.75
7548.32
7559.76
7571.1
7582.32
7593.43
7604.43
7615.31
7626.04
7636.64
7647.1
7657.44
7667.67
7677.76
7687.71
7697.49
7707.14
7716.65
7726.02
7735.25
7744.31
7753.2
7761.95
7770.55
7779.01
7787.3
7795.43
7803.39
7811.2
7818.87
7826.36
7833.7
7840.87
7847.87
7854.74
7861.43
7867.94
7874.29
7880.49
7886.5
7892.35
7898.05
7903.59
7908.94
7914.1
7919.08
7923.85
7928.4
7932.69
7936.71
7940.36
7943.55
7946.6
7949.89
7954.91
7960.14
7959.02
7950.1
7961.99
7966.99
7969.24
7971.01
7973.67
7975.51
7975.84
7978.34
7980
7981.47
7983.03
7984.06
7984.97
7985.41
7985.32
7985.18
7985.11
7984.52
7987.59
7985.69
7978.8
7976.07
7973.52
7971.48
7968.85
7966.67
7963.56
7959.79
7955.96
7951.99
7947.93
7943.55
7938.64
7933.53
7928.32
7922.73
7918.91
7912.52
7903.4
7896.34
7888.98
7881.57
7874.33
7866.64
7858.57
7850.48
7842.32
7834.14
7825.91
7817.65
7809.32
7800.92
7792.49
7784.02
7775.55
7767.08
7758.61
7750.15
7741.71
7733.31
7724.95
7716.65
7708.4
7700.23
7692.13
7684.12
7676.19
7668.35
7660.62
7653
7645.49
7638.1
7630.81
7623.65
7616.61
7609.69
7602.9
7596.24
7589.7
7583.3
7577.02
7570.88
7564.86
7558.97
7553.21
7547.58
7542.07
7536.69
7531.44
7526.3
7521.29
7516.39
7511.62
7506.96
7502.4
7497.96
7493.63
7489.41
7485.29
7481.27
7477.35
7473.53
7469.8
7466.16
7462.61
7459.15
7455.77
7452.48
7449.26
7446.12
7443.05
7440.05
7437.12
7434.26
7431.47
7428.74
7426.06
7423.45
7420.89
7418.39
7415.94
7413.54
7411.19
7408.89
7406.63
7404.42
7402.25
7400.13
7398.04
7395.99
7393.98
7392
7390.06
7388.15
7386.28
7384.44
7382.63
7380.85
7379.1
7377.38
7375.68
7374.02
7372.38
7370.77
7369.19
7367.63
7366.09
7364.58
7363.1
7361.63
7360.2
7358.78
7357.39
7356.02
7354.67
7353.35
7352.04
7350.76
7349.5
7348.26
7347.04
7345.85
7344.67
7343.52
7342.39
7341.28
7340.19
7339.13
7338.08
7337.06
7336.06
7335.08
7334.13
7333.19
7332.28
7331.39
7330.52
7329.68
7328.85
7328.05
7327.27
7326.51
7325.77
7325.05
7324.36
7323.69
7323.03
7322.4
7321.79
7321.2
7320.63
7320.08
7319.56
7319.05
7318.56
7318.1
7317.65
7317.22
7316.82
7316.43
7316.06
7315.71
7315.38
7315.07
7314.78
7314.5
7314.25
7314.01
7313.79
7313.58
7313.4
7313.23
7313.08
7312.95
7312.83
7312.73
7312.64
7312.57
7312.52
7312.48
7312.45
7312.44
7312.45
7312.47
7312.5
7312.55
7312.61
7312.68
7312.76
7312.86
7312.97
7313.09
7313.22
7313.36
7313.52
7313.68
7313.85
7314.04
7314.23
7314.43
7314.63
7314.85
7315.07
7315.3
7315.54
7315.78
7316.03
7316.29
7316.55
7316.81
7317.08
7317.35
7317.63
7317.91
7318.19
7318.48
7318.77
7319.06
7319.35
7319.64
7319.94
7320.24
7320.53
7320.83
7321.13
7321.42
7321.72
7322.02
7322.32
7322.61
7322.9
7323.2
7323.49
7323.78
7324.07
7324.35
7324.64
7324.92
7325.2
7325.48
7325.76
7326.03
7326.3
7326.57
7326.83
7327.1
7327.36
7327.61
7327.87
7328.12
7328.37
7328.62
7328.86
7329.1
7329.34
7329.57
7329.8
7330.03
7330.26
7330.48
7330.7
7330.92
7331.13
7331.34
7331.55
7331.75
7331.96
7332.16
7332.36
7332.55
7332.74
7332.93
7333.12
7333.3
7333.48
7333.66
7333.84
7334.01
7334.19
7334.36
7334.52
7334.69
7334.85
7335.01
7335.17
7335.33
7335.48
7335.63
7335.78
7335.93
7336.08
7336.22
7336.36
7336.5
7336.64
7336.78
7336.91
7337.06
7337.18
7337.29
7337.41
7337.53
7337.65
7337.76
7337.88
7337.99
7338.11
7338.22
7338.33
7338.44
7338.55
7338.66
7338.76
7338.87
7338.98
7339.09
7339.2
7339.3
7339.4
7339.5
7339.6
7339.7
7339.79
7339.89
7339.99
7340.08
7340.18
7340.27
7340.37
7340.45
7340.55
7340.64
7340.73
7340.81
7340.9
7340.98
7341.11
7341.18
7341.23
7341.29
7341.36
7341.43
7341.49
7341.56
7341.62
7341.69
7341.75
7341.81
7341.88
7341.94
7342.01
7342.08
7342.14
7342.21
7342.28
7342.34
7342.41
7342.47
7342.54
7342.61
7342.67
7342.74
7342.8
7342.87
7342.94
7343
7343.07
7343.13
7343.2
7343.26
7343.32
7343.39
7343.45
7343.51
7343.58
7343.64
7343.7
7343.76
7343.82
7343.88
7343.94
7344
7344.06
7344.12
7344.18
7344.24
7344.3
7344.36
7344.41
7344.47
7344.53
7344.58
7344.64
7344.69
7344.75
7344.8
7344.85
7344.91
7344.96
7345.01
7345.06
7345.11
7345.16
7345.21
7345.26
7345.31
7345.36
7345.41
7345.46
7345.51
7345.55
7345.6
7345.64
7345.69
7345.74
7345.78
7345.82
7345.87
7345.91
7345.95
7346
7346.04
7346.07
7346.13
6979.24
6997.72
7010.19
7023.64
7036.93
7050.32
7063.63
7076.9
7090.13
7103.34
7116.52
7129.65
7142.7
7155.65
7168.58
7181.44
7194.22
7206.94
7219.57
7232.13
7244.61
7257
7269.3
7281.51
7293.62
7305.64
7317.57
7329.39
7341.1
7352.69
7364.17
7375.55
7386.82
7397.96
7408.97
7419.87
7430.63
7441.28
7451.79
7462.15
7472.38
7482.48
7492.44
7502.26
7511.93
7521.44
7530.82
7540.06
7549.15
7558.07
7566.83
7575.43
7583.9
7592.22
7600.37
7608.35
7616.18
7623.85
7631.36
7638.71
7645.89
7652.91
7659.78
7666.47
7672.99
7679.33
7685.52
7691.53
7697.34
7703
7708.5
7713.79
7718.89
7723.81
7728.55
7733.06
7737.32
7741.32
7745.07
7748.58
7751.92
7754.98
7757.69
7760.17
7762.58
7767.11
7773.18
7776.83
7774.86
7765.56
7777.6
7780.04
7781.03
7783.5
7784.55
7784.49
7786.33
7787.29
7787.96
7788.52
7788.55
7788.44
7787.92
7786.59
7785.55
7783.81
7783.16
7782.4
7784.16
7781.82
7774.02
7770.79
7767.17
7763.78
7760.75
7756.74
7752.11
7747.39
7742.46
7737.43
7732.07
7726.21
7720.18
7714.15
7707.77
7703.32
7696.23
7686.36
7678.69
7670.75
7662.87
7655.2
7647.11
7638.7
7630.31
7621.93
7613.57
7605.15
7596.73
7588.25
7579.73
7571.21
7562.69
7554.18
7545.7
7537.26
7528.85
7520.51
7512.22
7504.01
7495.87
7487.82
7479.86
7471.99
7464.23
7456.58
7449.04
7441.61
7434.31
7427.12
7420.07
7413.13
7406.32
7399.65
7393.1
7386.69
7380.4
7374.25
7368.22
7362.33
7356.57
7350.93
7345.42
7340.04
7334.78
7329.65
7324.64
7319.75
7314.97
7310.31
7305.76
7301.33
7297
7292.79
7288.67
7284.66
7280.74
7276.93
7273.21
7269.58
7266.03
7262.58
7259.21
7255.92
7252.71
7249.58
7246.52
7243.53
7240.61
7237.76
7234.97
7232.25
7229.58
7226.97
7224.42
7221.93
7219.49
7217.1
7214.75
7212.46
7210.2
7208
7205.83
7203.71
7201.63
7199.58
7197.57
7195.6
7193.67
7191.76
7189.89
7188.05
7186.25
7184.47
7182.72
7181.01
7179.31
7177.65
7176.01
7174.41
7172.82
7171.26
7169.73
7168.22
7166.74
7165.28
7163.84
7162.43
7161.03
7159.67
7158.32
7156.99
7155.69
7154.41
7153.15
7151.91
7150.69
7149.5
7148.32
7147.17
7146.04
7144.93
7143.84
7142.78
7141.73
7140.71
7139.71
7138.74
7137.78
7136.85
7135.94
7135.05
7134.18
7133.33
7132.51
7131.71
7130.93
7130.17
7129.43
7128.71
7128.02
7127.35
7126.7
7126.07
7125.46
7124.87
7124.3
7123.75
7123.23
7122.72
7122.23
7121.77
7121.32
7120.9
7120.49
7120.1
7119.74
7119.39
7119.06
7118.75
7118.46
7118.18
7117.93
7117.69
7117.47
7117.27
7117.09
7116.92
7116.77
7116.64
7116.52
7116.42
7116.34
7116.27
7116.22
7116.18
7116.16
7116.15
7116.16
7116.18
7116.21
7116.26
7116.32
7116.4
7116.48
7116.58
7116.69
7116.82
7116.95
7117.1
7117.25
7117.42
7117.59
7117.77
7117.97
7118.17
7118.38
7118.6
7118.82
7119.05
7119.29
7119.54
7119.79
7120.05
7120.31
7120.57
7120.85
7121.12
7121.4
7121.68
7121.97
7122.25
7122.54
7122.84
7123.13
7123.43
7123.72
7124.02
7124.32
7124.62
7124.92
7125.22
7125.51
7125.81
7126.11
7126.41
7126.7
7127
7127.29
7127.58
7127.87
7128.16
7128.44
7128.72
7129.01
7129.28
7129.56
7129.83
7130.11
7130.37
7130.64
7130.9
7131.16
7131.42
7131.68
7131.93
7132.18
7132.42
7132.67
7132.91
7133.15
7133.38
7133.61
7133.84
7134.07
7134.29
7134.51
7134.73
7134.94
7135.15
7135.36
7135.57
7135.77
7135.97
7136.17
7136.36
7136.55
7136.74
7136.93
7137.11
7137.3
7137.47
7137.65
7137.83
7138
7138.17
7138.33
7138.5
7138.66
7138.82
7138.98
7139.13
7139.29
7139.44
7139.59
7139.74
7139.88
7140.03
7140.17
7140.31
7140.46
7140.6
7140.71
7140.84
7140.96
7141.08
7141.2
7141.32
7141.44
7141.56
7141.67
7141.79
7141.9
7142.01
7142.13
7142.24
7142.35
7142.46
7142.58
7142.68
7142.78
7142.89
7142.99
7143.09
7143.2
7143.3
7143.4
7143.5
7143.6
7143.69
7143.8
7143.89
7143.99
7144.08
7144.17
7144.26
7144.34
7144.44
7144.52
7144.66
7144.73
7144.79
7144.86
7144.93
7145
7145.08
7145.14
7145.21
7145.28
7145.35
7145.41
7145.48
7145.54
7145.61
7145.68
7145.74
7145.81
7145.87
7145.94
7146.01
7146.07
7146.14
7146.21
7146.27
7146.34
7146.41
7146.47
7146.54
7146.61
7146.67
7146.74
7146.8
7146.87
7146.93
7147
7147.06
7147.13
7147.19
7147.25
7147.32
7147.38
7147.44
7147.5
7147.57
7147.63
7147.69
7147.75
7147.81
7147.87
7147.93
7147.99
7148.04
7148.1
7148.16
7148.22
7148.27
7148.33
7148.39
7148.44
7148.5
7148.55
7148.6
7148.66
7148.71
7148.76
7148.81
7148.87
7148.92
7148.97
7149.02
7149.07
7149.12
7149.17
7149.21
7149.26
7149.31
7149.36
7149.4
7149.45
7149.49
7149.54
7149.58
7149.63
7149.67
7149.71
7149.76
7149.8
7149.84
7149.88
7149.93
6782.61
6801.16
6813.68
6827.17
6840.5
6853.94
6867.29
6880.61
6893.89
6907.14
6920.35
6933.52
6946.61
6959.6
6972.56
6985.45
6998.27
7011.02
7023.7
7036.29
7048.81
7061.23
7073.57
7085.83
7097.98
7110.04
7122
7133.86
7145.61
7157.24
7168.76
7180.18
7191.48
7202.67
7213.72
7224.64
7235.44
7246.12
7256.67
7267.08
7277.33
7287.45
7297.44
7307.29
7316.98
7326.53
7335.92
7345.18
7354.29
7363.24
7372.03
7380.66
7389.15
7397.49
7405.66
7413.67
7421.51
7429.19
7436.72
7444.09
7451.28
7458.32
7465.19
7471.89
7478.41
7484.75
7490.93
7496.93
7502.74
7508.37
7513.82
7519.08
7524.15
7529.04
7533.73
7538.2
7542.45
7546.45
7550.27
7553.88
7557.28
7560.51
7563.58
7566.64
7569.63
7572.5
7575.15
7577.37
7579.85
7584.49
7589.4
7587.13
7575
7587.73
7589.87
7589.81
7591.6
7592.02
7591.1
7592.07
7592.1
7591.71
7591.42
7590.55
7589.77
7588.45
7586.57
7584.75
7582.69
7581.35
7579.09
7580.95
7577.51
7568.55
7564.58
7560.21
7555.99
7552.03
7547.09
7541.52
7535.85
7530.05
7524.17
7518.01
7511.35
7504.59
7497.83
7490.8
7485.78
7478.15
7467.69
7459.53
7451.14
7443
7434.82
7426.77
7418.45
7409.78
7401.2
7392.62
7384.03
7375.47
7366.89
7358.31
7349.76
7341.25
7332.78
7324.38
7316.04
7307.77
7299.58
7291.48
7283.46
7275.56
7267.76
7260.07
7252.49
7245.03
7237.69
7230.48
7223.4
7216.45
7209.62
7202.92
7196.36
7189.93
7183.63
7177.47
7171.44
7165.54
7159.77
7154.12
7148.61
7143.23
7137.97
7132.84
7127.83
7122.94
7118.16
7113.51
7108.97
7104.54
7100.22
7096.01
7091.91
7087.9
7083.99
7080.19
7076.48
7072.86
7069.33
7065.89
7062.53
7059.25
7056.05
7052.92
7049.88
7046.9
7043.99
7041.15
7038.37
7035.66
7033
7030.4
7027.86
7025.38
7022.95
7020.57
7018.23
7015.94
7013.7
7011.5
7009.34
7007.22
7005.15
7003.11
7001.11
6999.14
6997.21
6995.31
6993.44
6991.61
6989.81
6988.03
6986.29
6984.58
6982.89
6981.23
6979.59
6977.98
6976.4
6974.85
6973.32
6971.81
6970.32
6968.87
6967.43
6966.02
6964.62
6963.26
6961.91
6960.58
6959.28
6958
6956.74
6955.51
6954.29
6953.09
6951.92
6950.77
6949.64
6948.53
6947.44
6946.38
6945.34
6944.31
6943.32
6942.34
6941.38
6940.45
6939.54
6938.65
6937.78
6936.94
6936.12
6935.32
6934.54
6933.78
6933.04
6932.33
6931.63
6930.96
6930.31
6929.68
6929.07
6928.49
6927.92
6927.37
6926.85
6926.34
6925.86
6925.4
6924.95
6924.53
6924.12
6923.74
6923.37
6923.03
6922.7
6922.39
6922.1
6921.83
6921.58
6921.34
6921.12
6920.92
6920.74
6920.58
6920.43
6920.3
6920.19
6920.09
6920.01
6919.94
6919.89
6919.85
6919.83
6919.83
6919.84
6919.86
6919.9
6919.95
6920.01
6920.09
6920.18
6920.28
6920.39
6920.52
6920.66
6920.8
6920.96
6921.13
6921.31
6921.49
6921.69
6921.89
6922.11
6922.33
6922.56
6922.79
6923.03
6923.28
6923.53
6923.79
6924.06
6924.33
6924.6
6924.88
6925.16
6925.44
6925.73
6926.02
6926.32
6926.61
6926.91
6927.2
6927.5
6927.8
6928.1
6928.4
6928.7
6929.01
6929.31
6929.6
6929.9
6930.2
6930.5
6930.79
6931.09
6931.38
6931.67
6931.96
6932.24
6932.53
6932.81
6933.09
6933.37
6933.64
6933.91
6934.18
6934.45
6934.71
6934.98
6935.23
6935.49
6935.74
6935.99
6936.24
6936.48
6936.72
6936.96
6937.19
6937.43
6937.65
6937.88
6938.1
6938.32
6938.54
6938.75
6938.97
6939.17
6939.38
6939.58
6939.78
6939.98
6940.17
6940.37
6940.56
6940.74
6940.93
6941.11
6941.29
6941.47
6941.64
6941.81
6941.98
6942.15
6942.31
6942.47
6942.63
6942.79
6942.95
6943.1
6943.25
6943.4
6943.55
6943.7
6943.86
6944
6944.11
6944.24
6944.37
6944.5
6944.62
6944.75
6944.87
6945
6945.12
6945.24
6945.35
6945.47
6945.59
6945.7
6945.82
6945.94
6946.05
6946.15
6946.26
6946.36
6946.47
6946.58
6946.69
6946.79
6946.9
6947
6947.1
6947.2
6947.31
6947.4
6947.51
6947.6
6947.69
6947.78
6947.87
6947.97
6948.06
6948.2
6948.28
6948.33
6948.41
6948.48
6948.55
6948.63
6948.71
6948.78
6948.85
6948.92
6948.99
6949.06
6949.13
6949.2
6949.27
6949.33
6949.4
6949.47
6949.54
6949.6
6949.67
6949.74
6949.81
6949.87
6949.94
6950.01
6950.07
6950.14
6950.21
6950.28
6950.34
6950.41
6950.47
6950.54
6950.61
6950.67
6950.74
6950.8
6950.87
6950.93
6950.99
6951.06
6951.12
6951.18
6951.25
6951.31
6951.37
6951.43
6951.49
6951.55
6951.61
6951.67
6951.73
6951.79
6951.85
6951.91
6951.96
6952.02
6952.08
6952.13
6952.19
6952.24
6952.3
6952.35
6952.41
6952.46
6952.51
6952.57
6952.62
6952.67
6952.72
6952.77
6952.82
6952.87
6952.92
6952.97
6953.02
6953.07
6953.11
6953.16
6953.21
6953.25
6953.3
6953.34
6953.39
6953.43
6953.48
6953.52
6953.56
6953.6
6953.65
6953.68
6953.74
6585.86
6604.5
6617.07
6630.62
6644.01
6657.51
6670.92
6684.29
6697.62
6710.93
6724.19
6737.41
6750.55
6763.59
6776.59
6789.52
6802.39
6815.19
6827.91
6840.56
6853.12
6865.59
6877.98
6890.28
6902.49
6914.59
6926.6
6938.5
6950.29
6961.97
6973.53
6984.99
6996.34
7007.57
7018.66
7029.63
7040.47
7051.18
7061.77
7072.22
7082.53
7092.69
7102.71
7112.59
7122.33
7131.9
7141.33
7150.62
7159.76
7168.74
7177.56
7186.21
7194.73
7203.1
7211.31
7219.34
7227.2
7234.91
7242.45
7249.83
7257.05
7264.11
7270.98
7277.68
7284.22
7290.57
7296.75
7302.73
7308.54
7314.15
7319.56
7324.8
7329.85
7334.7
7339.36
7343.81
7348.05
7352.07
7355.91
7359.56
7363
7366.29
7369.42
7372.44
7375.28
7377.93
7380.5
7383.08
7385.52
7387.61
7389.25
7390.9
7394.85
7399.61
7396.61
7383.14
7395.59
7397.4
7396.16
7397.13
7396.78
7394.78
7394.89
7394.02
7392.81
7391.54
7390.05
7388.42
7386.75
7384.84
7382
7379.32
7376.7
7373.67
7374.91
7370.54
7360.63
7355.74
7350.58
7345.41
7340.53
7334.72
7328.3
7321.81
7315.24
7308.63
7301.78
7294.45
7287.08
7279.74
7272.19
7266.74
7258.66
7247.9
7239.32
7230.74
7222.52
7214.07
7205.86
7197.3
7188.5
7179.78
7171.11
7162.46
7153.86
7145.29
7136.73
7128.25
7119.83
7111.5
7103.25
7095.08
7087.01
7079.05
7071.2
7063.46
7055.84
7048.33
7040.96
7033.72
7026.6
7019.62
7012.77
7006.05
6999.47
6993.02
6986.71
6980.53
6974.49
6968.58
6962.8
6957.15
6951.64
6946.25
6940.99
6935.86
6930.85
6925.96
6921.2
6916.55
6912.02
6907.59
6903.29
6899.08
6894.99
6891
6887.1
6883.31
6879.61
6876
6872.49
6869.06
6865.71
6862.44
6859.26
6856.15
6853.12
6850.15
6847.26
6844.43
6841.67
6838.97
6836.33
6833.74
6831.21
6828.74
6826.32
6823.94
6821.62
6819.34
6817.11
6814.92
6812.77
6810.66
6808.59
6806.56
6804.57
6802.61
6800.68
6798.79
6796.93
6795.1
6793.3
6791.53
6789.79
6788.08
6786.4
6784.74
6783.11
6781.51
6779.93
6778.37
6776.84
6775.34
6773.85
6772.4
6770.96
6769.55
6768.16
6766.79
6765.45
6764.12
6762.82
6761.54
6760.28
6759.05
6757.83
6756.63
6755.46
6754.31
6753.18
6752.07
6750.99
6749.92
6748.88
6747.86
6746.87
6745.89
6744.94
6744
6743.09
6742.2
6741.34
6740.5
6739.67
6738.87
6738.1
6737.34
6736.6
6735.89
6735.2
6734.53
6733.88
6733.25
6732.65
6732.06
6731.5
6730.95
6730.43
6729.93
6729.44
6728.98
6728.54
6728.12
6727.71
6727.33
6726.97
6726.62
6726.3
6725.99
6725.7
6725.43
6725.18
6724.95
6724.73
6724.54
6724.36
6724.2
6724.05
6723.92
6723.81
6723.72
6723.64
6723.57
6723.53
6723.49
6723.48
6723.47
6723.48
6723.51
6723.55
6723.6
6723.67
6723.75
6723.84
6723.95
6724.07
6724.2
6724.34
6724.49
6724.65
6724.82
6725
6725.19
6725.39
6725.6
6725.82
6726.04
6726.27
6726.51
6726.76
6727.01
6727.27
6727.53
6727.8
6728.07
6728.35
6728.63
6728.91
6729.2
6729.49
6729.78
6730.08
6730.38
6730.68
6730.98
6731.28
6731.58
6731.88
6732.19
6732.49
6732.79
6733.09
6733.4
6733.7
6734
6734.29
6734.59
6734.89
6735.18
6735.47
6735.76
6736.05
6736.33
6736.62
6736.9
6737.18
6737.45
6737.72
6737.99
6738.26
6738.53
6738.79
6739.05
6739.3
6739.56
6739.81
6740.05
6740.3
6740.54
6740.78
6741.01
6741.24
6741.47
6741.7
6741.92
6742.14
6742.36
6742.57
6742.78
6742.99
6743.2
6743.4
6743.6
6743.8
6743.99
6744.18
6744.37
6744.56
6744.75
6744.93
6745.11
6745.28
6745.46
6745.63
6745.8
6745.96
6746.13
6746.29
6746.45
6746.6
6746.76
6746.92
6747.07
6747.24
6747.38
6747.5
6747.64
6747.76
6747.9
6748.03
6748.16
6748.29
6748.42
6748.54
6748.67
6748.79
6748.91
6749.03
6749.15
6749.27
6749.39
6749.51
6749.61
6749.73
6749.83
6749.95
6750.05
6750.17
6750.27
6750.38
6750.49
6750.6
6750.7
6750.81
6750.9
6751.02
6751.11
6751.21
6751.3
6751.41
6751.49
6751.65
6751.72
6751.78
6751.86
6751.93
6752.02
6752.1
6752.18
6752.26
6752.33
6752.41
6752.48
6752.56
6752.63
6752.7
6752.78
6752.85
6752.92
6752.99
6753.06
6753.12
6753.19
6753.26
6753.33
6753.4
6753.47
6753.54
6753.6
6753.67
6753.74
6753.81
6753.88
6753.94
6754.01
6754.08
6754.14
6754.21
6754.28
6754.34
6754.41
6754.47
6754.54
6754.6
6754.67
6754.73
6754.8
6754.86
6754.92
6754.99
6755.05
6755.11
6755.17
6755.24
6755.3
6755.36
6755.42
6755.48
6755.54
6755.59
6755.65
6755.71
6755.77
6755.83
6755.88
6755.94
6755.99
6756.05
6756.1
6756.16
6756.21
6756.27
6756.32
6756.37
6756.42
6756.48
6756.53
6756.58
6756.63
6756.68
6756.73
6756.78
6756.82
6756.87
6756.92
6756.97
6757.01
6757.06
6757.1
6757.15
6757.19
6757.24
6757.28
6757.32
6757.37
6757.41
6757.45
6757.49
6757.54
6389.02
6407.76
6420.39
6434.01
6447.47
6461.04
6474.52
6487.96
6501.35
6514.72
6528.05
6541.34
6554.53
6567.64
6580.69
6593.67
6606.58
6619.44
6632.23
6644.94
6657.56
6670.08
6682.52
6694.88
6707.15
6719.31
6731.37
6743.32
6755.15
6766.87
6778.49
6790.01
6801.41
6812.69
6823.84
6834.86
6845.74
6856.49
6867.12
6877.63
6887.99
6898.21
6908.28
6918.2
6927.97
6937.6
6947.08
6956.42
6965.59
6974.61
6983.45
6992.14
7000.69
7009.1
7017.35
7025.43
7033.32
7041.04
7048.59
7055.98
7063.22
7070.29
7077.19
7083.9
7090.44
7096.8
7102.97
7108.94
7114.73
7120.34
7125.74
7130.94
7135.97
7140.79
7145.43
7149.86
7154.1
7158.13
7161.96
7165.59
7169.04
7172.32
7175.43
7178.38
7181.15
7183.76
7186.26
7188.67
7190.86
7192.84
7194.73
7196.49
7197.97
7198.95
7199.85
7203.23
7207.66
7203.92
7189.16
7201.17
7202.5
7200.03
7200.19
7199.08
7196.15
7195.48
7193.99
7192.02
7190.23
7187.97
7185.58
7183.11
7180.27
7176.56
7173.03
7169.5
7165.64
7166.04
7160.77
7149.96
7144.17
7138.23
7132.2
7126.49
7119.87
7112.69
7105.5
7098.25
7091.02
7083.58
7075.68
7067.91
7059.69
7052.02
7044.38
7038.18
7029.95
7019.04
7010.29
7001.56
6992.83
6984.37
6975.64
6966.75
6957.99
6949.3
6940.67
6932.12
6923.62
6915.19
6906.86
6898.62
6890.48
6882.45
6874.54
6866.74
6859.06
6851.51
6844.09
6836.81
6829.66
6822.65
6815.77
6809.02
6802.42
6795.95
6789.62
6783.43
6777.37
6771.45
6765.66
6760.01
6754.48
6749.1
6743.84
6738.71
6733.7
6728.82
6724.06
6719.41
6714.89
6710.48
6706.18
6701.99
6697.91
6693.93
6690.05
6686.28
6682.59
6679
6675.5
6672.09
6668.76
6665.51
6662.34
6659.25
6656.24
6653.29
6650.41
6647.6
6644.85
6642.17
6639.54
6636.97
6634.46
6632
6629.59
6627.23
6624.92
6622.65
6620.43
6618.26
6616.12
6614.02
6611.96
6609.94
6607.95
6606
6604.08
6602.2
6600.35
6598.53
6596.73
6594.97
6593.23
6591.53
6589.85
6588.2
6586.57
6584.97
6583.39
6581.84
6580.31
6578.81
6577.32
6575.87
6574.44
6573.03
6571.64
6570.27
6568.93
6567.6
6566.3
6565.02
6563.76
6562.53
6561.31
6560.12
6558.95
6557.8
6556.67
6555.56
6554.48
6553.42
6552.38
6551.36
6550.36
6549.38
6548.43
6547.5
6546.59
6545.71
6544.84
6544
6543.18
6542.38
6541.6
6540.85
6540.12
6539.4
6538.71
6538.05
6537.4
6536.77
6536.17
6535.59
6535.02
6534.48
6533.96
6533.46
6532.98
6532.52
6532.08
6531.66
6531.26
6530.88
6530.52
6530.17
6529.85
6529.55
6529.26
6529
6528.75
6528.52
6528.31
6528.11
6527.93
6527.78
6527.63
6527.51
6527.4
6527.31
6527.23
6527.17
6527.13
6527.1
6527.08
6527.08
6527.1
6527.13
6527.17
6527.23
6527.3
6527.39
6527.48
6527.59
6527.71
6527.85
6527.99
6528.15
6528.31
6528.49
6528.67
6528.87
6529.07
6529.29
6529.51
6529.73
6529.97
6530.21
6530.46
6530.72
6530.98
6531.25
6531.52
6531.8
6532.08
6532.36
6532.65
6532.94
6533.24
6533.54
6533.83
6534.14
6534.44
6534.74
6535.05
6535.35
6535.66
6535.96
6536.27
6536.57
6536.88
6537.18
6537.49
6537.79
6538.09
6538.39
6538.68
6538.98
6539.27
6539.56
6539.85
6540.14
6540.43
6540.71
6540.99
6541.26
6541.54
6541.81
6542.08
6542.34
6542.6
6542.86
6543.12
6543.37
6543.62
6543.87
6544.12
6544.36
6544.6
6544.83
6545.06
6545.29
6545.52
6545.74
6545.96
6546.18
6546.39
6546.6
6546.81
6547.02
6547.22
6547.42
6547.62
6547.81
6548.01
6548.2
6548.38
6548.57
6548.75
6548.93
6549.1
6549.28
6549.45