/*--------------------------------*- C++ -*----------------------------------*\
| =========                 |                                                 |
| \\      /  F ield         | OpenFOAM: The Open Source CFD Toolbox           |
|  \\    /   O peration     | Version:  v2006                                 |
|   \\  /    A nd           | Website:  www.openfoam.com                      |
|    \\/     M anipulation  |                                                 |
\*---------------------------------------------------------------------------*/
FoamFile
{
    version     2.0;
    format      ascii;
    class       surfaceScalarField;
    location    "3.1";
    object      phi;
}
// * * * * * * * * * * * * * * * * * * * * * * * * * * * * * * * * * * * * * //

dimensions      [0 3 -1 0 0 0 0];
oriented        oriented;


internalField   nonuniform List<scalar> 
65390
(
-2.44698e-05
-1.75494e-06
-2.26778e-05
-1.79343e-06
-2.08639e-05
-1.81501e-06
-1.89986e-05
-1.86609e-06
-1.70967e-05
-1.90226e-06
-1.52222e-05
-1.87472e-06
-1.33614e-05
-1.86063e-06
-1.15298e-05
-1.83097e-06
-9.64635e-06
-1.88261e-06
-7.69309e-06
-1.9522e-06
-5.70368e-06
-1.9882e-06
-3.72979e-06
-1.97249e-06
-1.75312e-06
-1.97505e-06
2.12876e-07
-1.96424e-06
2.17578e-06
-1.9612e-06
4.18969e-06
-2.01231e-06
6.23201e-06
-2.04073e-06
8.24866e-06
-2.01506e-06
1.02605e-05
-2.01031e-06
1.22361e-05
-1.97444e-06
1.41378e-05
-1.90058e-06
1.59412e-05
-1.80256e-06
1.76796e-05
-1.73753e-06
1.95133e-05
-1.83304e-06
2.15079e-05
-1.99425e-06
2.35126e-05
-2.00443e-06
2.52897e-05
-1.77707e-06
2.67676e-05
-1.47804e-06
2.82835e-05
-1.5161e-06
2.99849e-05
-1.70168e-06
3.17519e-05
-1.76741e-06
3.33574e-05
-1.60603e-06
3.49246e-05
-1.56766e-06
3.65799e-05
-1.65588e-06
3.82095e-05
-1.63016e-06
3.96285e-05
-1.41962e-06
4.0912e-05
-1.28407e-06
4.21953e-05
-1.28389e-06
4.36552e-05
-1.4603e-06
4.52059e-05
-1.55107e-06
4.65716e-05
-1.36572e-06
4.77285e-05
-1.15678e-06
4.88296e-05
-1.10063e-06
5.01205e-05
-1.29016e-06
5.15806e-05
-1.459e-06
5.29392e-05
-1.35718e-06
5.39911e-05
-1.04998e-06
5.48919e-05
-8.98605e-07
5.58614e-05
-9.66947e-07
5.69509e-05
-1.08676e-06
5.8062e-05
-1.10818e-06
5.9181e-05
-1.11584e-06
6.02446e-05
-1.06032e-06
6.11588e-05
-9.10894e-07
6.19598e-05
-7.97554e-07
6.276e-05
-7.96752e-07
6.36426e-05
-8.79156e-07
6.45015e-05
-8.55428e-07
6.52194e-05
-7.1458e-07
6.58468e-05
-6.2417e-07
6.65102e-05
-6.6031e-07
6.72016e-05
-6.88592e-07
6.7809e-05
-6.04795e-07
6.80831e-05
-2.71661e-07
6.81579e-05
-7.27923e-08
6.82197e-05
-5.99417e-08
6.82876e-05
-6.64842e-08
6.82579e-05
3.09219e-08
6.79077e-05
3.51278e-07
6.74474e-05
4.61284e-07
6.67947e-05
6.53437e-07
6.59859e-05
8.09311e-07
6.49298e-05
1.05666e-06
6.32369e-05
1.69324e-06
6.05929e-05
2.64428e-06
5.67054e-05
3.88779e-06
5.09683e-05
5.73741e-06
4.27044e-05
8.26445e-06
3.55158e-05
7.18915e-06
3.18453e-05
3.67074e-06
2.92508e-05
2.59486e-06
2.86839e-05
5.6752e-07
2.74827e-05
1.2015e-06
2.70892e-05
3.93958e-07
2.77864e-05
-6.96864e-07
2.76843e-05
1.02419e-07
2.7448e-05
2.36353e-07
2.75215e-05
-7.3461e-08
2.77417e-05
-2.20057e-07
2.78019e-05
-6.00163e-08
2.78247e-05
-2.25728e-08
2.78378e-05
-1.28573e-08
2.76792e-05
1.58865e-07
2.74596e-05
2.19906e-07
2.70311e-05
4.28725e-07
2.64405e-05
5.90924e-07
2.52992e-05
1.14142e-06
2.39027e-05
1.39666e-06
2.13224e-05
2.58043e-06
1.81555e-05
3.16708e-06
1.5776e-05
2.37962e-06
1.49017e-05
8.74389e-07
1.5043e-05
-1.41223e-07
1.50315e-05
1.15285e-08
1.54361e-05
-4.04484e-07
1.59658e-05
-5.29683e-07
1.62017e-05
-2.35918e-07
1.62086e-05
-6.9222e-09
1.62136e-05
-5.02335e-09
1.62999e-05
-8.63336e-08
1.63476e-05
-4.76927e-08
1.63986e-05
-5.10244e-08
1.63975e-05
1.14547e-09
1.63212e-05
7.63557e-08
1.60389e-05
2.82289e-07
1.56275e-05
4.11493e-07
1.4643e-05
9.84633e-07
1.34999e-05
1.14313e-06
1.28333e-05
6.6678e-07
1.27247e-05
1.08777e-07
1.29087e-05
-1.83698e-07
1.29591e-05
-5.00612e-08
1.31594e-05
-1.99928e-07
1.34046e-05
-2.44774e-07
1.34993e-05
-9.42178e-08
1.35617e-05
-6.19413e-08
1.36247e-05
-6.24934e-08
1.36658e-05
-4.06882e-08
1.37051e-05
-3.89299e-08
1.37403e-05
-3.4886e-08
1.37558e-05
-1.52252e-08
1.37599e-05
-3.85892e-09
1.37476e-05
1.24329e-08
1.37207e-05
2.70466e-08
1.36855e-05
3.52697e-08
1.36482e-05
3.73331e-08
1.36061e-05
4.224e-08
1.35524e-05
5.37229e-08
1.3492e-05
6.04309e-08
1.34307e-05
6.13449e-08
1.33597e-05
7.09734e-08
1.32781e-05
8.16577e-08
1.31902e-05
8.80665e-08
1.30997e-05
9.06308e-08
1.29984e-05
1.01378e-07
1.28889e-05
1.09688e-07
1.27738e-05
1.15241e-07
1.26566e-05
1.17386e-07
1.25328e-05
1.24064e-07
1.23995e-05
1.33499e-07
1.22609e-05
1.38778e-07
1.21131e-05
1.48009e-07
1.19652e-05
1.48153e-07
1.18213e-05
1.44119e-07
1.16706e-05
1.50847e-07
1.15076e-05
1.63254e-07
1.13402e-05
1.67588e-07
1.11767e-05
1.63724e-07
1.10156e-05
1.61283e-07
1.0847e-05
1.68784e-07
1.06702e-05
1.76937e-07
1.04942e-05
1.76152e-07
1.03245e-05
1.69823e-07
1.01519e-05
1.72721e-07
9.96874e-06
1.83274e-07
9.78643e-06
1.82434e-07
9.61079e-06
1.75757e-07
9.43503e-06
1.75872e-07
9.2528e-06
1.82335e-07
9.06513e-06
1.87776e-07
8.88299e-06
1.82233e-07
8.70907e-06
1.74001e-07
8.53178e-06
1.77365e-07
8.34574e-06
1.86101e-07
8.16134e-06
1.84445e-07
7.98361e-06
1.77782e-07
7.80889e-06
1.74767e-07
7.63245e-06
1.76494e-07
7.45436e-06
1.78137e-07
7.27702e-06
1.77381e-07
7.10061e-06
1.76439e-07
6.93045e-06
1.70188e-07
6.76149e-06
1.68973e-07
6.58916e-06
1.72333e-07
6.41773e-06
1.7142e-07
6.2523e-06
1.65405e-07
6.09402e-06
1.58242e-07
5.93165e-06
1.62313e-07
5.76651e-06
1.65079e-07
5.6061e-06
1.60345e-07
5.45202e-06
1.54007e-07
5.29801e-06
1.53927e-07
5.14281e-06
1.5511e-07
4.99064e-06
1.52077e-07
4.84188e-06
1.48662e-07
4.69757e-06
1.44211e-07
4.55211e-06
1.45367e-07
4.40811e-06
1.43893e-07
4.26936e-06
1.3865e-07
4.13695e-06
1.32314e-07
4.00258e-06
1.34265e-07
3.86674e-06
1.35746e-07
3.73156e-06
1.35097e-07
3.60308e-06
1.28387e-07
3.47938e-06
1.23619e-07
3.36023e-06
1.19075e-07
3.24016e-06
1.2e-07
3.11591e-06
1.24177e-07
2.9962e-06
1.19642e-07
2.88394e-06
1.12192e-07
2.77436e-06
1.09507e-07
2.66046e-06
1.13839e-07
2.55012e-06
1.10273e-07
2.44278e-06
1.07286e-07
2.34078e-06
1.01933e-07
2.24358e-06
9.7144e-08
2.1407e-06
1.02821e-07
2.0404e-06
1.00248e-07
1.94212e-06
9.82193e-08
1.84463e-06
9.74375e-08
1.75652e-06
8.80503e-08
1.67082e-06
8.56471e-08
1.58165e-06
8.91205e-08
1.49183e-06
8.97655e-08
1.40618e-06
8.56034e-08
1.32276e-06
8.33698e-08
1.24e-06
8.27158e-08
1.16158e-06
7.83791e-08
1.08753e-06
7.40029e-08
1.0103e-06
7.7187e-08
9.33176e-07
7.70826e-08
8.59264e-07
7.38716e-08
7.86933e-07
7.22899e-08
7.1874e-07
6.81536e-08
6.54108e-07
6.45919e-08
5.85133e-07
6.89347e-08
5.16757e-07
6.83361e-08
4.51208e-07
6.55097e-08
3.89175e-07
6.19935e-08
3.26076e-07
6.30592e-08
2.64673e-07
6.13633e-08
2.04933e-07
5.97001e-08
1.46759e-07
5.81332e-08
8.89174e-08
5.78022e-08
3.26798e-08
5.61981e-08
-2.17291e-08
5.437e-08
-7.95593e-08
5.7792e-08
-1.33972e-07
5.43757e-08
-1.84472e-07
5.04635e-08
-2.36472e-07
5.19651e-08
-2.88092e-07
5.15861e-08
-3.38643e-07
5.0517e-08
-3.8884e-07
5.01639e-08
-4.37522e-07
4.8648e-08
-4.86974e-07
4.94196e-08
-5.35335e-07
4.83283e-08
-5.80755e-07
4.53887e-08
-6.25993e-07
4.52069e-08
-6.72982e-07
4.69584e-08
-7.18742e-07
4.57305e-08
-7.62753e-07
4.39822e-08
-8.04608e-07
4.18272e-08
-8.48244e-07
4.36088e-08
-8.91767e-07
4.34954e-08
-9.34471e-07
4.26768e-08
-9.76649e-07
4.21513e-08
-1.0182e-06
4.15246e-08
-1.05731e-06
3.90801e-08
-1.09548e-06
3.81402e-08
-1.13438e-06
3.8881e-08
-1.17362e-06
3.9208e-08
-1.21255e-06
3.89101e-08
-1.25076e-06
3.81853e-08
-1.28811e-06
3.73177e-08
-1.32482e-06
3.66944e-08
-1.36035e-06
3.55013e-08
-1.39588e-06
3.55072e-08
-1.43093e-06
3.50262e-08
-1.46541e-06
3.44614e-08
-1.49934e-06
3.39028e-08
-1.53345e-06
3.40893e-08
-1.56722e-06
3.3746e-08
-1.59953e-06
3.22936e-08
-1.63096e-06
3.14063e-08
-1.66159e-06
3.06126e-08
-1.69176e-06
3.01568e-08
-1.72211e-06
3.03321e-08
-1.75209e-06
2.99653e-08
-1.78128e-06
2.91719e-08
-1.80983e-06
2.85344e-08
-1.83711e-06
2.72706e-08
-1.86369e-06
2.65589e-08
-1.89049e-06
2.67928e-08
-1.91684e-06
2.6337e-08
-1.94251e-06
2.56592e-08
-1.96767e-06
2.51475e-08
-1.9921e-06
2.4427e-08
-2.01597e-06
2.38589e-08
-2.03947e-06
2.34837e-08
-2.06238e-06
2.29028e-08
-2.08473e-06
2.23457e-08
-2.10649e-06
2.1754e-08
-2.12756e-06
2.1065e-08
-2.14819e-06
2.06198e-08
-2.16824e-06
2.00452e-08
-2.1876e-06
1.93483e-08
-2.20613e-06
1.85261e-08
-2.22397e-06
1.78372e-08
-2.24151e-06
1.7535e-08
-2.25834e-06
1.68233e-08
-2.27443e-06
1.60843e-08
-2.28977e-06
1.53308e-08
-2.30443e-06
1.46547e-08
-2.31844e-06
1.4007e-08
-2.33175e-06
1.33012e-08
-2.34431e-06
1.25578e-08
-2.35613e-06
1.18198e-08
-2.36725e-06
1.11155e-08
-2.3777e-06
1.04388e-08
-2.38737e-06
9.66601e-09
-2.39625e-06
8.87333e-09
-2.40431e-06
8.05409e-09
-2.41155e-06
7.23827e-09
-2.41819e-06
6.63009e-09
-2.42403e-06
5.83633e-09
-2.42898e-06
4.94899e-09
-2.43299e-06
4.0015e-09
-2.43639e-06
3.38739e-09
-2.43901e-06
2.61532e-09
-2.44081e-06
1.79851e-09
-2.44181e-06
9.91375e-10
-2.44196e-06
1.44103e-10
-2.44123e-06
-7.34473e-10
-2.43967e-06
-1.56597e-09
-2.43727e-06
-2.4047e-09
-2.43405e-06
-3.22025e-09
-2.43004e-06
-4.02031e-09
-2.42523e-06
-4.81753e-09
-2.41962e-06
-5.61043e-09
-2.41321e-06
-6.41737e-09
-2.40604e-06
-7.17219e-09
-2.39819e-06
-7.84578e-09
-2.38964e-06
-8.55575e-09
-2.38036e-06
-9.28119e-09
-2.37035e-06
-1.00089e-08
-2.35962e-06
-1.07411e-08
-2.34822e-06
-1.13976e-08
-2.33618e-06
-1.20375e-08
-2.32351e-06
-1.26716e-08
-2.31019e-06
-1.33285e-08
-2.2962e-06
-1.39876e-08
-2.2817e-06
-1.44994e-08
-2.26668e-06
-1.50253e-08
-2.25113e-06
-1.55527e-08
-2.23506e-06
-1.6071e-08
-2.2185e-06
-1.65578e-08
-2.2015e-06
-1.69985e-08
-2.18407e-06
-1.74337e-08
-2.16621e-06
-1.78646e-08
-2.14789e-06
-1.83191e-08
-2.12922e-06
-1.86701e-08
-2.11019e-06
-1.90237e-08
-2.09083e-06
-1.93619e-08
-2.07117e-06
-1.96665e-08
-2.05122e-06
-1.9949e-08
-2.031e-06
-2.02195e-08
-2.01057e-06
-2.04316e-08
-1.98991e-06
-2.06642e-08
-1.96904e-06
-2.08703e-08
-1.94796e-06
-2.10754e-08
-1.92665e-06
-2.13061e-08
-1.90517e-06
-2.14824e-08
-1.88354e-06
-2.16284e-08
-1.86179e-06
-2.17517e-08
-1.83993e-06
-2.18645e-08
-1.81796e-06
-2.19643e-08
-1.79595e-06
-2.20152e-08
-1.77388e-06
-2.20631e-08
-1.75179e-06
-2.2099e-08
-1.72966e-06
-2.21298e-08
-1.70748e-06
-2.21706e-08
-1.68529e-06
-2.21942e-08
-1.66311e-06
-2.21795e-08
-1.64098e-06
-2.21299e-08
-1.61892e-06
-2.20572e-08
-1.59693e-06
-2.19915e-08
-1.57502e-06
-2.19169e-08
-1.55317e-06
-2.18428e-08
-1.53141e-06
-2.17661e-08
-1.50973e-06
-2.16761e-08
-1.48814e-06
-2.1586e-08
-1.46663e-06
-2.15124e-08
-1.4452e-06
-2.14356e-08
-1.42393e-06
-2.12629e-08
-1.4028e-06
-2.11364e-08
-1.38179e-06
-2.10028e-08
-1.36094e-06
-2.08516e-08
-1.34023e-06
-2.07091e-08
-1.31964e-06
-2.0591e-08
-1.29917e-06
-2.04757e-08
-1.27883e-06
-2.03394e-08
-1.25864e-06
-2.01852e-08
-1.23863e-06
-2.00142e-08
-1.2188e-06
-1.9826e-08
-1.19918e-06
-1.96185e-08
-1.17975e-06
-1.9433e-08
-1.16054e-06
-1.92012e-08
-1.14151e-06
-1.90354e-08
-1.12268e-06
-1.88227e-08
-1.10409e-06
-1.85931e-08
-1.0857e-06
-1.83785e-08
-1.06753e-06
-1.81764e-08
-1.04948e-06
-1.80384e-08
-1.03171e-06
-1.77775e-08
-1.01404e-06
-1.76677e-08
-9.96359e-07
-1.76745e-08
-9.78966e-07
-1.7391e-08
-9.61352e-07
-1.76116e-08
-9.4389e-07
-1.74601e-08
-9.27418e-07
-1.647e-08
-9.10722e-07
-1.66946e-08
-8.93843e-07
-1.68767e-08
-8.78002e-07
-1.58388e-08
-8.58452e-07
-1.95488e-08
-8.39315e-07
-1.91348e-08
-8.26487e-07
-1.28258e-08
-8.09959e-07
-1.65262e-08
-7.97787e-07
-1.21703e-08
-7.91889e-07
-5.89604e-09
-7.96878e-07
4.99082e-09
-8.02311e-07
5.43353e-09
-7.97253e-07
-5.0573e-09
-7.91453e-07
-5.79894e-09
-7.82167e-07
-9.28635e-09
-7.72225e-07
-9.94309e-09
-7.61132e-07
-1.10946e-08
-7.49941e-07
-1.11921e-08
-7.38255e-07
-1.16888e-08
-7.26391e-07
-1.18662e-08
-7.13942e-07
-1.24527e-08
-7.01777e-07
-1.21682e-08
-6.88297e-07
-1.34847e-08
-6.74834e-07
-1.34681e-08
-6.63137e-07
-1.17034e-08
-6.50221e-07
-1.29234e-08
-6.38443e-07
-1.1787e-08
-6.28511e-07
-9.94121e-09
-6.21492e-07
-7.03142e-09
-6.14604e-07
-6.90213e-09
-6.04575e-07
-1.00444e-08
-5.94447e-07
-1.0146e-08
-5.83996e-07
-1.04726e-08
-5.73117e-07
-1.09024e-08
-5.629e-07
-1.02437e-08
-5.52145e-07
-1.0784e-08
-5.41987e-07
-1.01915e-08
-5.29891e-07
-1.2133e-08
-5.18156e-07
-1.17764e-08
-5.08432e-07
-9.76965e-09
-4.97357e-07
-1.1126e-08
-4.86779e-07
-1.0635e-08
-4.79101e-07
-7.74026e-09
-4.55801e-07
-2.33658e-08
-4.35679e-07
-2.01805e-08
-4.3186e-07
-3.85192e-09
-4.1321e-07
-1.86024e-08
-4.30681e-07
1.76828e-08
-4.57982e-07
2.79191e-08
-5.70486e-07
1.13478e-07
-6.81464e-07
1.12745e-07
-7.53383e-07
7.50562e-08
-7.99218e-07
4.87062e-08
-8.28899e-07
3.22856e-08
-8.48525e-07
2.19853e-08
-8.61663e-07
1.52755e-08
-8.70503e-07
1.07796e-08
-8.76374e-07
7.63286e-09
-8.79956e-07
5.18489e-09
-8.81769e-07
3.27126e-09
-8.82047e-07
1.60712e-09
-8.80898e-07
6.19636e-11
-8.7885e-07
-9.42805e-10
-8.76109e-07
-1.73493e-09
-8.72846e-07
-2.34645e-09
-8.6911e-07
-2.90175e-09
-8.64924e-07
-3.42724e-09
-8.60289e-07
-3.9479e-09
-8.55212e-07
-4.45302e-09
-8.49736e-07
-4.91155e-09
-8.43927e-07
-5.30037e-09
-8.37854e-07
-5.61337e-09
-8.3158e-07
-5.86046e-09
-8.25146e-07
-6.06188e-09
-8.18572e-07
-6.23963e-09
-8.1183e-07
-6.44148e-09
-8.04919e-07
-6.64258e-09
-7.97853e-07
-6.8241e-09
-7.90606e-07
-7.02897e-09
-7.83154e-07
-7.25686e-09
-7.75474e-07
-7.50347e-09
-7.67538e-07
-7.77595e-09
-7.5933e-07
-8.06365e-09
-7.50854e-07
-8.34435e-09
-7.42139e-07
-8.59401e-09
-7.33246e-07
-8.78316e-09
-7.24234e-07
-8.91102e-09
-7.15154e-07
-8.98662e-09
-7.06046e-07
-9.02169e-09
-6.96941e-07
-9.0259e-09
-6.87873e-07
-8.99405e-09
-6.78881e-07
-8.9233e-09
-6.70006e-07
-8.81197e-09
-6.61279e-07
-8.66764e-09
-6.52707e-07
-8.51732e-09
-6.4426e-07
-8.39618e-09
-6.3588e-07
-8.33317e-09
-6.27499e-07
-8.33792e-09
-6.19056e-07
-8.40297e-09
-6.10504e-07
-8.51472e-09
-6.0181e-07
-8.65891e-09
-5.92974e-07
-8.8042e-09
-5.84061e-07
-8.88345e-09
-5.75217e-07
-8.81624e-09
-5.66604e-07
-8.5876e-09
-5.58264e-07
-8.31704e-09
-5.5005e-07
-8.19171e-09
-5.41688e-07
-8.34164e-09
-5.33033e-07
-8.63629e-09
-5.24318e-07
-8.69689e-09
-5.15977e-07
-8.32517e-09
-5.08193e-07
-7.76873e-09
-5.0084e-07
-7.33875e-09
-4.93309e-07
-7.51768e-09
-4.85286e-07
-8.01117e-09
-4.77196e-07
-8.07821e-09
-4.69556e-07
-7.62934e-09
-4.62377e-07
-7.1695e-09
-4.54916e-07
-7.45269e-09
-4.46701e-07
-8.20699e-09
-4.38346e-07
-8.34664e-09
-4.30345e-07
-7.99437e-09
-4.22394e-07
-7.94464e-09
-4.13811e-07
-8.5758e-09
-4.04992e-07
-8.81316e-09
-3.96831e-07
-8.15594e-09
-3.89206e-07
-7.62106e-09
-3.81374e-07
-7.82759e-09
-3.73805e-07
-7.56551e-09
-3.66023e-07
-7.77674e-09
-4.5593e-09
-2.4462e-05
-3.53571e-06
-2.26536e-05
-3.6012e-06
-2.08067e-05
-3.66171e-06
-1.89134e-05
-3.76001e-06
-1.69801e-05
-3.83669e-06
-1.5061e-05
-3.79552e-06
-1.31909e-05
-3.733e-06
-1.13494e-05
-3.67529e-06
-9.50471e-06
-3.73063e-06
-7.63723e-06
-3.82348e-06
-5.72723e-06
-3.90223e-06
-3.75526e-06
-3.94864e-06
-1.70941e-06
-4.02526e-06
3.4183e-07
-4.01997e-06
2.38486e-06
-4.00875e-06
4.39016e-06
-4.02201e-06
6.35742e-06
-4.01221e-06
8.29698e-06
-3.95868e-06
1.02328e-05
-3.95006e-06
1.21476e-05
-3.89293e-06
1.40669e-05
-3.82325e-06
1.59341e-05
-3.6729e-06
1.77804e-05
-3.58674e-06
1.96175e-05
-3.67278e-06
2.14523e-05
-3.83156e-06
2.325e-05
-3.8045e-06
2.50132e-05
-3.54247e-06
2.67028e-05
-3.1696e-06
2.83971e-05
-3.21234e-06
3.01209e-05
-3.42734e-06
3.18242e-05
-3.47251e-06
3.34623e-05
-3.24589e-06
3.49496e-05
-3.05663e-06
3.64617e-05
-3.16968e-06
3.81067e-05
-3.27677e-06
3.97995e-05
-3.114e-06
4.13311e-05
-2.81714e-06
4.26169e-05
-2.57107e-06
4.37961e-05
-2.64074e-06
4.50908e-05
-2.84693e-06
4.65538e-05
-2.82989e-06
4.79882e-05
-2.59227e-06
4.92764e-05
-2.38992e-06
5.04713e-05
-2.48619e-06
5.1733e-05
-2.7219e-06
5.30722e-05
-2.69771e-06
5.43497e-05
-2.32899e-06
5.54484e-05
-1.9992e-06
5.64609e-05
-1.98152e-06
5.75318e-05
-2.16016e-06
5.86552e-05
-2.23447e-06
5.97864e-05
-2.25028e-06
6.08273e-05
-2.10477e-06
6.17226e-05
-1.81006e-06
6.25143e-05
-1.59338e-06
6.32873e-05
-1.57405e-06
6.41162e-05
-1.71242e-06
6.49062e-05
-1.64987e-06
6.55646e-05
-1.37742e-06
6.61483e-05
-1.21219e-06
6.67342e-05
-1.25024e-06
6.73628e-05
-1.32083e-06
6.79318e-05
-1.17709e-06
6.82598e-05
-6.02452e-07
6.8474e-05
-2.89031e-07
6.86613e-05
-2.48865e-07
6.88052e-05
-2.1152e-07
6.88203e-05
1.54108e-08
6.85414e-05
6.30119e-07
6.80783e-05
9.24854e-07
6.75975e-05
1.13525e-06
6.70018e-05
1.4063e-06
6.63454e-05
1.71454e-06
6.53817e-05
2.65865e-06
6.45737e-05
3.45409e-06
6.38621e-05
4.60131e-06
6.38813e-05
5.72031e-06
6.48449e-05
7.30251e-06
6.20266e-05
1.00079e-05
5.53716e-05
1.03268e-05
4.69001e-05
1.10678e-05
3.90651e-05
8.40308e-06
3.5447e-05
4.82039e-06
3.24271e-05
3.41447e-06
3.07803e-05
9.50273e-07
2.90091e-05
1.87385e-06
2.76219e-05
1.62373e-06
2.77307e-05
-1.82147e-07
2.84606e-05
-9.49596e-07
2.82939e-05
1.07118e-07
2.8173e-05
9.88021e-08
2.82097e-05
-4.91096e-08
2.81132e-05
2.55952e-07
2.80354e-05
2.98355e-07
2.79846e-05
4.80081e-07
2.77419e-05
8.34268e-07
2.75186e-05
1.36536e-06
2.71893e-05
1.72666e-06
2.7317e-05
2.4534e-06
2.70314e-05
3.45332e-06
2.59704e-05
3.44118e-06
2.34018e-05
3.44359e-06
2.00779e-05
3.18318e-06
1.75834e-05
2.50649e-06
1.62709e-05
9.08429e-07
1.58091e-05
-6.75228e-08
1.56706e-05
-9.71525e-08
1.55848e-05
7.91435e-08
1.59173e-05
-3.37302e-07
1.64343e-05
-6.03149e-07
1.66624e-05
-2.75544e-07
1.67112e-05
-9.96048e-08
1.67073e-05
5.1619e-09
1.66635e-05
1.20401e-07
1.66855e-05
2.60517e-07
1.67141e-05
3.83151e-07
1.6923e-05
7.76027e-07
1.69594e-05
1.10698e-06
1.66233e-05
1.00332e-06
1.55973e-05
1.13529e-06
1.4358e-05
1.05616e-06
1.36428e-05
6.65652e-07
1.33522e-05
9.12795e-08
1.33265e-05
-2.18475e-07
1.32997e-05
-6.68053e-08
1.34643e-05
-2.25921e-07
1.36788e-05
-2.7658e-07
1.37486e-05
-1.10051e-07
1.37653e-05
-5.51989e-08
1.37684e-05
-3.77841e-08
1.3759e-05
-5.63849e-09
1.37623e-05
-6.95924e-09
1.37618e-05
1.29735e-08
1.37405e-05
4.83491e-08
1.37063e-05
6.94643e-08
1.36633e-05
8.03667e-08
1.36145e-05
9.10674e-08
1.35586e-05
1.09711e-07
1.35009e-05
1.18145e-07
1.34395e-05
1.22833e-07
1.3367e-05
1.43638e-07
1.32858e-05
1.6308e-07
1.32018e-05
1.72337e-07
1.31097e-05
1.83013e-07
1.30063e-05
2.05121e-07
1.28967e-05
2.1965e-07
1.27848e-05
2.27572e-07
1.26669e-05
2.35665e-07
1.25381e-05
2.53376e-07
1.24032e-05
2.68837e-07
1.22656e-05
2.76831e-07
1.21223e-05
2.9184e-07
1.19757e-05
2.95181e-07
1.18262e-05
2.94025e-07
1.1671e-05
3.06348e-07
1.15084e-05
3.26196e-07
1.13449e-05
3.31469e-07
1.11821e-05
3.26749e-07
1.10167e-05
3.26991e-07
1.08453e-05
3.4037e-07
1.06703e-05
3.52163e-07
1.04949e-05
3.5171e-07
1.03221e-05
3.42819e-07
1.01477e-05
3.47165e-07
9.9664e-06
3.64713e-07
9.7838e-06
3.65108e-07
9.60473e-06
3.54862e-07
9.42746e-06
3.53175e-07
9.24713e-06
3.62671e-07
9.06092e-06
3.73976e-07
8.87822e-06
3.64914e-07
8.70173e-06
3.50462e-07
8.52246e-06
3.56601e-07
8.33704e-06
3.71471e-07
8.15625e-06
3.65191e-07
7.9789e-06
3.55069e-07
7.79942e-06
3.54175e-07
7.6214e-06
3.54428e-07
7.44613e-06
3.53308e-07
7.27243e-06
3.5097e-07
7.09843e-06
3.50315e-07
6.9251e-06
3.4339e-07
6.75217e-06
3.41755e-07
6.5798e-06
3.44537e-07
6.41097e-06
3.40081e-07
6.24623e-06
3.29954e-07
6.08502e-06
3.19257e-07
5.92384e-06
3.23284e-07
5.76242e-06
3.26279e-07
5.60232e-06
3.20223e-07
5.44392e-06
3.12162e-07
5.28757e-06
3.1003e-07
5.13329e-06
3.09132e-07
4.98386e-06
3.01251e-07
4.83841e-06
2.93859e-07
4.69333e-06
2.89035e-07
4.54536e-06
2.93076e-07
4.40121e-06
2.87794e-07
4.26348e-06
2.76144e-07
4.12939e-06
2.66167e-07
3.99563e-06
2.67789e-07
3.86143e-06
2.6972e-07
3.72672e-06
2.69595e-07
3.60042e-06
2.54484e-07
3.47795e-06
2.45899e-07
3.35563e-06
2.41207e-07
3.23154e-06
2.4391e-07
3.10847e-06
2.4707e-07
2.99294e-06
2.34998e-07
2.88054e-06
2.24424e-07
2.76684e-06
2.23044e-07
2.65305e-06
2.27472e-07
2.54569e-06
2.17487e-07
2.44047e-06
2.12362e-07
2.33665e-06
2.05611e-07
2.23659e-06
1.97063e-07
2.136e-06
2.03279e-07
2.03742e-06
1.98697e-07
1.93987e-06
1.95643e-07
1.84408e-06
1.93103e-07
1.75397e-06
1.78044e-07
1.664e-06
1.75499e-07
1.57661e-06
1.76391e-07
1.48909e-06
1.77173e-07
1.40285e-06
1.71738e-07
1.32015e-06
1.65964e-07
1.2386e-06
1.64162e-07
1.15936e-06
1.5752e-07
1.08254e-06
1.50724e-07
1.00674e-06
1.5289e-07
9.30294e-07
1.53432e-07
8.56769e-07
1.47305e-07
7.85946e-07
1.43023e-07
7.16741e-07
1.37269e-07
6.5007e-07
1.31175e-07
5.84323e-07
1.34595e-07
5.18076e-07
1.34499e-07
4.50237e-07
1.33265e-07
3.84873e-07
1.27275e-07
3.21865e-07
1.25985e-07
2.621e-07
1.21048e-07
2.03272e-07
1.18449e-07
1.44291e-07
1.17037e-07
8.70276e-08
1.1499e-07
3.16695e-08
1.11483e-07
-2.38017e-08
1.0977e-07
-8.09865e-08
1.14908e-07
-1.35855e-07
1.09177e-07
-1.87583e-07
1.02128e-07
-2.38921e-07
1.03239e-07
-2.90176e-07
1.0278e-07
-3.40187e-07
1.00468e-07
-3.90315e-07
1.00233e-07
-4.39238e-07
9.75137e-08
-4.86949e-07
9.70748e-08
-5.34101e-07
9.54267e-08
-5.81219e-07
9.2454e-08
-6.2902e-07
9.2957e-08
-6.75954e-07
9.38432e-08
-7.19941e-07
8.96697e-08
-7.63191e-07
8.71846e-08
-8.06435e-07
8.50253e-08
-8.5012e-07
8.72484e-08
-8.93332e-07
8.66629e-08
-9.36257e-07
8.55571e-08
-9.78031e-07
8.3881e-08
-1.019e-06
8.24504e-08
-1.05858e-06
7.86218e-08
-1.09772e-06
7.72309e-08
-1.137e-06
7.81254e-08
-1.17608e-06
7.82478e-08
-1.21468e-06
7.7474e-08
-1.25244e-06
7.59041e-08
-1.28981e-06
7.46493e-08
-1.3273e-06
7.4148e-08
-1.36348e-06
7.16529e-08
-1.39881e-06
7.08e-08
-1.43342e-06
6.96007e-08
-1.46771e-06
6.87178e-08
-1.50156e-06
6.77223e-08
-1.53519e-06
6.76884e-08
-1.56891e-06
6.74386e-08
-1.6011e-06
6.44562e-08
-1.63248e-06
6.27673e-08
-1.66361e-06
6.17179e-08
-1.69428e-06
6.08028e-08
-1.72442e-06
6.0445e-08
-1.75416e-06
5.96907e-08
-1.78308e-06
5.80632e-08
-1.81147e-06
5.69144e-08
-1.83924e-06
5.5013e-08
-1.86639e-06
5.36922e-08
-1.89316e-06
5.35474e-08
-1.91939e-06
5.25535e-08
-1.9449e-06
5.11533e-08
-1.96992e-06
5.016e-08
-1.99452e-06
4.9015e-08
-2.01869e-06
4.80079e-08
-2.04213e-06
4.69131e-08
-2.06493e-06
4.56931e-08
-2.08718e-06
4.45873e-08
-2.10885e-06
4.3407e-08
-2.13e-06
4.22092e-08
-2.15065e-06
4.12519e-08
-2.17052e-06
3.99121e-08
-2.18976e-06
3.8578e-08
-2.20841e-06
3.71672e-08
-2.22643e-06
3.58422e-08
-2.24395e-06
3.50443e-08
-2.26071e-06
3.3573e-08
-2.27678e-06
3.2149e-08
-2.29217e-06
3.07181e-08
-2.30691e-06
2.93825e-08
-2.32099e-06
2.8073e-08
-2.33432e-06
2.66256e-08
-2.34692e-06
2.51478e-08
-2.3588e-06
2.36906e-08
-2.37e-06
2.23048e-08
-2.38045e-06
2.08824e-08
-2.3901e-06
1.93035e-08
-2.39897e-06
1.77331e-08
-2.40709e-06
1.61623e-08
-2.41445e-06
1.45932e-08
-2.42111e-06
1.3281e-08
-2.42691e-06
1.16239e-08
-2.43188e-06
9.89904e-09
-2.43604e-06
8.15213e-09
-2.43941e-06
6.75067e-09
-2.44198e-06
5.17381e-09
-2.44374e-06
3.5426e-09
-2.44466e-06
1.89615e-09
-2.44474e-06
2.14082e-10
-2.44399e-06
-1.49114e-09
-2.44242e-06
-3.14448e-09
-2.44002e-06
-4.81874e-09
-2.4368e-06
-6.44823e-09
-2.43278e-06
-8.04888e-09
-2.42797e-06
-9.63892e-09
-2.42236e-06
-1.12243e-08
-2.41597e-06
-1.28118e-08
-2.40882e-06
-1.43317e-08
-2.40092e-06
-1.57493e-08
-2.3923e-06
-1.71857e-08
-2.38294e-06
-1.8639e-08
-2.37288e-06
-2.0083e-08
-2.36211e-06
-2.15147e-08
-2.35067e-06
-2.28367e-08
-2.33857e-06
-2.41426e-08
-2.32583e-06
-2.54172e-08
-2.31246e-06
-2.67017e-08
-2.29851e-06
-2.79467e-08
-2.28401e-06
-2.89996e-08
-2.26892e-06
-3.01139e-08
-2.2533e-06
-3.1178e-08
-2.23717e-06
-3.2204e-08
-2.22055e-06
-3.31781e-08
-2.20347e-06
-3.40883e-08
-2.18592e-06
-3.49853e-08
-2.16796e-06
-3.58281e-08
-2.14965e-06
-3.6631e-08
-2.131e-06
-3.73203e-08
-2.11192e-06
-3.81093e-08
-2.09249e-06
-3.8793e-08
-2.07276e-06
-3.93983e-08
-2.05274e-06
-3.99716e-08
-2.03248e-06
-4.04864e-08
-2.01198e-06
-4.09277e-08
-1.99122e-06
-4.14299e-08
-1.97024e-06
-4.18505e-08
-1.94907e-06
-4.22441e-08
-1.92771e-06
-4.26723e-08
-1.90617e-06
-4.30146e-08
-1.8845e-06
-4.33011e-08
-1.86272e-06
-4.35337e-08
-1.84083e-06
-4.37558e-08
-1.81885e-06
-4.39431e-08
-1.79681e-06
-4.40595e-08
-1.77469e-06
-4.41849e-08
-1.75252e-06
-4.42681e-08
-1.73033e-06
-4.43166e-08
-1.70814e-06
-4.43649e-08
-1.68596e-06
-4.43793e-08
-1.66379e-06
-4.43451e-08
-1.64167e-06
-4.42519e-08
-1.61963e-06
-4.4104e-08
-1.59761e-06
-4.40095e-08
-1.57565e-06
-4.38836e-08
-1.55375e-06
-4.37415e-08
-1.53192e-06
-4.35938e-08
-1.51018e-06
-4.3417e-08
-1.48855e-06
-4.32271e-08
-1.46702e-06
-4.30417e-08
-1.44562e-06
-4.2832e-08
-1.42436e-06
-4.25252e-08
-1.40321e-06
-4.22978e-08
-1.38217e-06
-4.2045e-08
-1.36126e-06
-4.17617e-08
-1.34047e-06
-4.14943e-08
-1.31984e-06
-4.12263e-08
-1.29934e-06
-4.0979e-08
-1.27901e-06
-4.06714e-08
-1.25882e-06
-4.03765e-08
-1.23881e-06
-4.00208e-08
-1.21894e-06
-3.96956e-08
-1.19928e-06
-3.92796e-08
-1.17973e-06
-3.89799e-08
-1.16046e-06
-3.84717e-08
-1.14134e-06
-3.81527e-08
-1.12252e-06
-3.76436e-08
-1.10406e-06
-3.70473e-08
-1.08577e-06
-3.66709e-08
-1.0678e-06
-3.61388e-08
-1.04966e-06
-3.61785e-08
-1.03186e-06
-3.55821e-08
-1.01372e-06
-3.58005e-08
-9.95957e-07
-3.54357e-08
-9.79182e-07
-3.41638e-08
-9.62578e-07
-3.42137e-08
-9.45511e-07
-3.45248e-08
-9.28883e-07
-3.30956e-08
-9.08283e-07
-3.72921e-08
-8.88564e-07
-3.65931e-08
-8.75892e-07
-2.85076e-08
-8.63121e-07
-3.23169e-08
-8.54152e-07
-2.81001e-08
-8.47795e-07
-1.91788e-08
-8.54071e-07
-1.02459e-08
-8.58951e-07
-7.28494e-09
-8.51819e-07
-1.30242e-08
-8.39639e-07
-7.1842e-09
-8.23918e-07
-1.02826e-08
-8.12309e-07
-1.66615e-08
-7.99603e-07
-1.84999e-08
-7.88164e-07
-2.07212e-08
-7.76209e-07
-2.1892e-08
-7.64481e-07
-2.28176e-08
-7.52403e-07
-2.3263e-08
-7.40365e-07
-2.37202e-08
-7.26838e-07
-2.53848e-08
-7.13435e-07
-2.58464e-08
-7.02032e-07
-2.35614e-08
-6.90609e-07
-2.48957e-08
-6.79989e-07
-2.40743e-08
-6.70218e-07
-2.14595e-08
-6.63685e-07
-1.94391e-08
-6.57051e-07
-1.84007e-08
-6.46285e-07
-2.06848e-08
-6.34481e-07
-1.88099e-08
-6.2134e-07
-2.00136e-08
-6.10247e-07
-2.11046e-08
-5.97536e-07
-2.28204e-08
-5.86371e-07
-2.15967e-08
-5.72291e-07
-2.49382e-08
-5.60693e-07
-2.17911e-08
-5.50135e-07
-2.12862e-08
-5.41664e-07
-1.85989e-08
-5.33555e-07
-2.01717e-08
-5.24512e-07
-2.0741e-08
-5.16608e-07
-1.75861e-08
-4.91271e-07
-3.63669e-08
-4.69463e-07
-3.23414e-08
-4.6566e-07
-1.14449e-08
-4.60709e-07
-2.82446e-08
-4.85965e-07
5.07673e-09
-5.14964e-07
2.49545e-08
-6.43656e-07
1.09658e-07
-7.68943e-07
1.41794e-07
-8.49948e-07
1.06571e-07
-8.77096e-07
1.37492e-07
-8.62828e-07
9.37621e-08
-8.58982e-07
6.66913e-08
-8.63604e-07
4.90836e-08
-8.70394e-07
3.51385e-08
-8.76916e-07
2.48854e-08
-8.82268e-07
1.73104e-08
-8.86163e-07
1.16456e-08
-8.88473e-07
7.17997e-09
-8.89601e-07
3.79434e-09
-8.90082e-07
1.45813e-09
-8.89454e-07
-1.11272e-09
-8.87762e-07
-3.53498e-09
-8.85229e-07
-5.21166e-09
-8.8204e-07
-6.50247e-09
-8.78255e-07
-7.56746e-09
-8.73959e-07
-8.50137e-09
-8.69176e-07
-9.3916e-09
-8.63933e-07
-1.02617e-08
-8.58277e-07
-1.10762e-08
-8.52276e-07
-1.17849e-08
-8.46006e-07
-1.23564e-08
-8.39534e-07
-1.27918e-08
-8.32909e-07
-1.31197e-08
-8.26147e-07
-1.33923e-08
-8.19236e-07
-1.36601e-08
-8.12217e-07
-1.39162e-08
-8.05051e-07
-1.42166e-08
-7.97663e-07
-1.45774e-08
-7.90085e-07
-1.49345e-08
-7.82337e-07
-1.52987e-08
-7.74417e-07
-1.5687e-08
-7.6634e-07
-1.60909e-08
-7.5812e-07
-1.6498e-08
-7.49771e-07
-1.68881e-08
-7.41302e-07
-1.72406e-08
-7.32698e-07
-1.75481e-08
-7.23973e-07
-1.77823e-08
-7.15158e-07
-1.79361e-08
-7.06285e-07
-1.80178e-08
-6.97389e-07
-1.80344e-08
-6.88499e-07
-1.79877e-08
-6.79652e-07
-1.78642e-08
-6.70888e-07
-1.76632e-08
-6.62216e-07
-1.74182e-08
-6.53619e-07
-1.71867e-08
-6.45058e-07
-1.70226e-08
-6.365e-07
-1.69518e-08
-6.27928e-07
-1.69642e-08
-6.1934e-07
-1.70399e-08
-6.10725e-07
-1.71737e-08
-6.02056e-07
-1.73682e-08
-5.93311e-07
-1.75851e-08
-5.84518e-07
-1.77078e-08
-5.75771e-07
-1.75921e-08
-5.67166e-07
-1.7217e-08
-5.58712e-07
-1.67936e-08
-5.50291e-07
-1.6632e-08
-5.41816e-07
-1.68335e-08
-5.33355e-07
-1.7112e-08
-5.2507e-07
-1.69945e-08
-5.17088e-07
-1.63172e-08
-5.09449e-07
-1.54166e-08
-5.01582e-07
-1.52131e-08
-4.93381e-07
-1.5724e-08
-4.85205e-07
-1.61911e-08
-4.77377e-07
-1.591e-08
-4.6995e-07
-1.50579e-08
-4.62293e-07
-1.48271e-08
-4.54078e-07
-1.56677e-08
-4.45928e-07
-1.63551e-08
-4.38141e-07
-1.61318e-08
-4.30548e-07
-1.55838e-08
-4.22398e-07
-1.60902e-08
-4.14283e-07
-1.66862e-08
-4.06694e-07
-1.63974e-08
-3.99298e-07
-1.55479e-08
-3.91707e-07
-1.52079e-08
-3.84168e-07
-1.53614e-08
-3.76294e-07
-1.54326e-08
-3.67815e-07
-1.62469e-08
-1.09172e-08
-2.45013e-05
-5.31824e-06
-2.26853e-05
-5.41772e-06
-2.08378e-05
-5.50928e-06
-1.89395e-05
-5.65809e-06
-1.70019e-05
-5.77356e-06
-1.5074e-05
-5.72243e-06
-1.31782e-05
-5.62744e-06
-1.13112e-05
-5.54068e-06
-9.44855e-06
-5.59142e-06
-7.57808e-06
-5.69178e-06
-5.68399e-06
-5.79406e-06
-3.7455e-06
-5.88484e-06
-1.79125e-06
-5.97712e-06
1.92631e-07
-6.00134e-06
2.19046e-06
-6.00412e-06
4.1748e-06
-6.00406e-06
6.13149e-06
-5.96676e-06
8.06948e-06
-5.89462e-06
9.9765e-06
-5.85512e-06
1.18745e-05
-5.78917e-06
1.37532e-05
-5.70028e-06
1.56328e-05
-5.55106e-06
1.75052e-05
-5.45783e-06
1.93443e-05
-5.51065e-06
2.10741e-05
-5.56015e-06
2.27776e-05
-5.50704e-06
2.45016e-05
-5.26546e-06
2.63069e-05
-4.97405e-06
2.81002e-05
-5.00472e-06
2.98303e-05
-5.15656e-06
3.14768e-05
-5.11825e-06
3.31226e-05
-4.89088e-06
3.46793e-05
-4.61252e-06
3.6227e-05
-4.71652e-06
3.78491e-05
-4.89792e-06
3.95545e-05
-4.81843e-06
4.12043e-05
-4.46595e-06
4.26584e-05
-4.02413e-06
4.38955e-05
-3.87677e-06
4.51188e-05
-4.06927e-06
4.65024e-05
-4.21243e-06
4.7974e-05
-4.06301e-06
4.94047e-05
-3.81966e-06
5.07003e-05
-3.78086e-06
5.19126e-05
-3.93321e-06
5.31378e-05
-3.92176e-06
5.44418e-05
-3.63158e-06
5.57306e-05
-3.28642e-06
5.69496e-05
-3.19867e-06
5.8082e-05
-3.29039e-06
5.91479e-05
-3.29809e-06
6.01405e-05
-3.24019e-06
6.11316e-05
-3.09305e-06
6.20907e-05
-2.76612e-06
6.29496e-05
-2.44913e-06
6.37164e-05
-2.33766e-06
6.44435e-05
-2.43635e-06
6.51311e-05
-2.33422e-06
6.57842e-05
-2.02746e-06
6.64108e-05
-1.83584e-06
6.70146e-05
-1.85132e-06
6.75876e-05
-1.89128e-06
6.8063e-05
-1.65037e-06
6.84814e-05
-1.01889e-06
6.88885e-05
-6.94504e-07
6.92421e-05
-6.01082e-07
6.94476e-05
-4.15889e-07
6.94251e-05
3.88377e-08
6.93874e-05
6.68526e-07
6.92547e-05
1.05818e-06
6.8987e-05
1.40344e-06