/*--------------------------------*- C++ -*----------------------------------*\
| =========                 |                                                 |
| \\      /  F ield         | OpenFOAM: The Open Source CFD Toolbox           |
|  \\    /   O peration     | Version:  v2006                                 |
|   \\  /    A nd           | Website:  www.openfoam.com                      |
|    \\/     M anipulation  |                                                 |
\*---------------------------------------------------------------------------*/
FoamFile
{
    version     2.0;
    format      ascii;
    class       surfaceScalarField;
    location    "8";
    object      alphaPhi0.water;
}
// * * * * * * * * * * * * * * * * * * * * * * * * * * * * * * * * * * * * * //

dimensions      [0 3 -1 0 0 0 0];
oriented        oriented;


internalField   nonuniform List<scalar> 
65390
(
-7.66561e-05
5.96142e-06
-7.86512e-05
1.99496e-06
-8.10263e-05
2.37536e-06
-8.33647e-05
2.33876e-06
-8.46072e-05
1.24275e-06
-8.34186e-05
-1.18848e-06
-7.81331e-05
-5.28534e-06
-6.89705e-05
-9.1625e-06
-5.85592e-05
-1.0411e-05
-4.91937e-05
-9.3645e-06
-4.07396e-05
-8.45219e-06
-3.23573e-05
-8.38036e-06
-2.40516e-05
-8.30496e-06
-1.58968e-05
-8.15492e-06
-8.63432e-06
-7.26286e-06
-3.96324e-06
-4.67126e-06
-3.63932e-06
-3.24078e-07
-7.50023e-06
3.86076e-06
-1.30228e-05
5.52244e-06
-1.84964e-05
5.47347e-06
-2.22892e-05
3.79263e-06
-2.39619e-05
1.67252e-06
-2.37641e-05
-1.97891e-07
-2.2198e-05
-1.56622e-06
-1.93825e-05
-2.81555e-06
-1.57129e-05
-3.66972e-06
-1.16908e-05
-4.02215e-06
-7.7133e-06
-3.97761e-06
-4.37054e-06
-3.34284e-06
-2.1873e-06
-2.18331e-06
-1.27718e-06
-9.10198e-07
-1.71348e-06
4.3622e-07
-3.41702e-06
1.70347e-06
-6.07737e-06
2.66032e-06
-9.80524e-06
3.72796e-06
-1.4078e-05
4.27286e-06
-1.75355e-05
3.45711e-06
-1.957e-05
2.03455e-06
-2.08958e-05
1.32598e-06
-2.22873e-05
1.39566e-06
-2.38815e-05
1.59523e-06
-2.50224e-05
1.14102e-06
-2.51042e-05
7.48259e-08
-2.42287e-05
-8.76274e-07
-2.29146e-05
-1.31408e-06
-2.17197e-05
-1.19395e-06
-2.11266e-05
-5.8385e-07
-2.10661e-05
-5.76458e-08
-2.09814e-05
-9.53352e-08
-2.04401e-05
-5.43581e-07
-1.92242e-05
-1.21625e-06
-1.77548e-05
-1.46951e-06
-1.65137e-05
-1.23882e-06
-1.58392e-05
-6.70855e-07
-1.54834e-05
-3.55715e-07
-1.50765e-05
-4.11592e-07
-1.43638e-05
-7.13895e-07
-1.32881e-05
-1.07594e-06
-1.19471e-05
-1.34109e-06
-1.04065e-05
-1.54061e-06
-8.5804e-06
-1.82624e-06
-6.55441e-06
-2.02608e-06
-4.70508e-06
-1.84939e-06
-3.41676e-06
-1.28838e-06
-2.71185e-06
-7.04336e-07
-2.42941e-06
-2.82386e-07
-2.17762e-06
-2.50694e-07
-1.88384e-06
-2.94902e-07
-1.69075e-06
-1.93175e-07
-1.63986e-06
-5.09423e-08
-1.51183e-06
-1.28099e-07
-1.09313e-06
-4.18799e-07
-2.53842e-07
-8.39364e-07
8.94337e-07
-1.14824e-06
2.22323e-06
-1.32895e-06
3.68996e-06
-1.46679e-06
5.05071e-06
-1.36078e-06
5.83927e-06
-7.88656e-07
6.58776e-06
-7.49213e-07
6.79351e-06
-2.07747e-07
6.81885e-06
-2.53402e-08
6.64284e-06
1.76016e-07
6.6079e-06
3.4932e-08
6.65428e-06
-4.63485e-08
6.43781e-06
2.16488e-07
6.06447e-06
3.7337e-07
5.40354e-06
6.62068e-07
4.59373e-06
8.10964e-07
3.89112e-06
7.02914e-07
3.18522e-06
7.05945e-07
2.67076e-06
5.14506e-07
2.35241e-06
3.18398e-07
2.01233e-06
3.40112e-07
1.67444e-06
3.37929e-07
1.14584e-06
5.28628e-07
5.47722e-07
5.98122e-07
-4.90461e-07
1.03816e-06
-1.73687e-06
1.24645e-06
-3.85844e-06
2.1216e-06
-6.49762e-06
2.63804e-06
-8.76326e-06
2.26563e-06
-1.0187e-05
1.42372e-06
-1.0489e-05
3.01989e-07
-1.06414e-05
1.52669e-07
-1.02999e-05
-3.39981e-07
-9.92522e-06
-3.73512e-07
-9.98237e-06
5.71831e-08
-1.03066e-05
3.24255e-07
-1.05555e-05
2.48926e-07
-1.0527e-05
-2.85129e-08
-1.04848e-05
-4.44801e-08
-1.02852e-05
-2.00031e-07
-1.00206e-05
-2.64609e-07
-9.83979e-06
-1.79873e-07
-9.74642e-06
-9.23535e-08
-9.71891e-06
-2.74803e-08
-9.78446e-06
6.35747e-08
-9.88945e-06
1.04987e-07
-9.95224e-06
6.27919e-08
-9.92831e-06
-2.28238e-08
-9.85186e-06
-7.64473e-08
-9.80306e-06
-4.88102e-08
-9.72912e-06
-7.49898e-08
-9.63039e-06
-9.87245e-08
-9.56641e-06
-6.39855e-08
-9.51415e-06
-5.13913e-08
-9.46861e-06
-4.5386e-08
-9.43013e-06
-3.83752e-08
-9.35665e-06
-7.47564e-08
-9.25829e-06
-9.83501e-08
-9.15743e-06
-1.00865e-07
-9.04552e-06
-1.11908e-07
-8.9477e-06
-9.71477e-08
-8.86282e-06
-8.40849e-08
-8.78062e-06
-8.2211e-08
-8.66289e-06
-1.19081e-07
-8.50929e-06
-1.53596e-07
-8.34985e-06
-1.59445e-07
-8.18971e-06
-1.60134e-07
-8.03201e-06
-1.5769e-07
-7.86419e-06
-1.67833e-07
-7.68378e-06
-1.804e-07
-7.49094e-06
-1.92851e-07
-7.29994e-06
-1.90079e-07
-7.12571e-06
-1.73406e-07
-6.94918e-06
-1.76478e-07
-6.76321e-06
-1.8662e-07
-6.55619e-06
-2.07679e-07
-6.32839e-06
-2.27803e-07
-6.10156e-06
-2.26824e-07
-5.89332e-06
-2.07597e-07
-5.69281e-06
-2.00055e-07
-5.46951e-06
-2.24367e-07
-5.2171e-06
-2.52398e-07
-4.95932e-06
-2.5779e-07
-4.70456e-06
-2.54586e-07
-4.45154e-06
-2.52541e-07
-4.19699e-06
-2.5455e-07
-3.93494e-06
-2.62067e-07
-3.66438e-06
-2.71046e-07
-3.38575e-06
-2.78678e-07
-3.09891e-06
-2.86829e-07
-2.8094e-06
-2.89492e-07
-2.52614e-06
-2.83119e-07
-2.23913e-06
-2.86975e-07
-1.9394e-06
-2.99746e-07
-1.63788e-06
-3.01529e-07
-1.34915e-06
-2.88691e-07
-1.06263e-06
-2.86514e-07
-7.65185e-07
-2.9747e-07
-4.60024e-07
-3.05154e-07
-1.61475e-07
-2.98545e-07
1.1957e-07
-2.81035e-07
3.9681e-07
-2.77238e-07
6.84745e-07
-2.87914e-07
9.79611e-07
-2.94888e-07
1.2755e-06
-2.95905e-07
1.56394e-06
-2.88707e-07
1.83511e-06
-2.71495e-07
2.09821e-06
-2.62671e-07
2.36271e-06
-2.64305e-07
2.63038e-06
-2.67642e-07
2.90563e-06
-2.75258e-07
3.18214e-06
-2.76705e-07
3.45383e-06
-2.71846e-07
3.71691e-06
-2.63133e-07
3.96842e-06
-2.51329e-07
4.21948e-06
-2.50897e-07
4.47578e-06
-2.56289e-07
4.73369e-06
-2.57926e-07
4.98384e-06
-2.50667e-07
5.2247e-06
-2.40722e-07
5.45895e-06
-2.34094e-07
5.69199e-06
-2.32646e-07
5.92732e-06
-2.35217e-07
6.16421e-06
-2.36905e-07
6.39837e-06
-2.34143e-07
6.62249e-06
-2.2435e-07
6.83364e-06
-2.11678e-07
7.03877e-06
-2.05149e-07
7.24547e-06
-2.06267e-07
7.45514e-06
-2.09235e-07
7.66074e-06
-2.05608e-07
7.85831e-06
-1.97581e-07
8.04673e-06
-1.88628e-07
8.22878e-06
-1.82072e-07
8.40973e-06
-1.80914e-07
8.58893e-06
-1.79207e-07
8.76e-06
-1.71072e-07
8.91455e-06
-1.55074e-07
9.06734e-06
-1.52471e-07
9.2228e-06
-1.55201e-07
9.37529e-06
-1.52494e-07
9.52216e-06
-1.46922e-07
9.6571e-06
-1.35696e-07
9.77736e-06
-1.20724e-07
9.88984e-06
-1.12482e-07
1.00031e-05
-1.12278e-07
1.01159e-05
-1.12691e-07
1.02242e-05
-1.08309e-07
1.03254e-05
-1.01296e-07
1.04136e-05
-8.88467e-08
1.04899e-05
-7.6257e-08
1.05591e-05
-6.89768e-08
1.06256e-05
-6.61366e-08
1.069e-05
-6.43934e-08
1.07498e-05
-5.98123e-08
1.08029e-05
-5.30876e-08
1.08424e-05
-4.05729e-08
1.08716e-05
-2.92112e-08
1.08942e-05
-2.2531e-08
1.09145e-05
-1.97522e-08
1.09327e-05
-1.80232e-08
1.09452e-05
-1.27407e-08
1.09498e-05
-4.56235e-09
1.09463e-05
3.43303e-09
1.09362e-05
1.04922e-08
1.09177e-05
1.84446e-08
1.0892e-05
2.57555e-08
1.08598e-05
3.16536e-08
1.08227e-05
3.73282e-08
1.07843e-05
3.87767e-08
1.07416e-05
4.26865e-08
1.06929e-05
4.86995e-08
1.06374e-05
5.54874e-08
1.05705e-05
6.636e-08
1.04958e-05
7.47702e-08
1.04224e-05
7.37062e-08
1.03478e-05
7.46918e-08
1.02676e-05
8.01826e-08
1.01807e-05
8.68134e-08
1.00845e-05
9.58368e-08
9.98264e-06
1.01861e-07
9.87795e-06
1.04878e-07
9.7707e-06
1.07463e-07
9.6602e-06
1.10478e-07
9.54429e-06
1.15896e-07
9.42185e-06
1.22269e-07
9.29461e-06
1.2708e-07
9.16351e-06
1.31096e-07
9.03021e-06
1.33467e-07
8.89536e-06
1.34933e-07
8.75613e-06
1.39218e-07
8.6099e-06
1.46222e-07
8.45607e-06
1.53584e-07
8.29697e-06
1.59063e-07
8.14016e-06
1.57009e-07
7.98358e-06
1.56639e-07
7.8235e-06
1.60081e-07
7.66021e-06
1.63292e-07
7.49292e-06
1.67253e-07
7.3197e-06
1.73043e-07
7.14175e-06
1.77956e-07
6.96161e-06
1.80192e-07
6.7821e-06
1.79621e-07
6.6028e-06
1.79311e-07
6.42192e-06
1.80867e-07
6.23946e-06
1.82453e-07
6.05604e-06
1.83399e-07
5.87065e-06
1.85348e-07
5.68013e-06
1.90385e-07
5.48622e-06
1.93918e-07
5.29452e-06
1.91785e-07
5.10581e-06
1.88708e-07
4.91686e-06
1.88945e-07
4.72677e-06
1.9009e-07
4.53655e-06
1.902e-07
4.34531e-06
1.91168e-07
4.15233e-06
1.92965e-07
3.95952e-06
1.92804e-07
3.76883e-06
1.90758e-07
3.58047e-06
1.88363e-07
3.39342e-06
1.87052e-07
3.20747e-06
1.85933e-07
3.0225e-06
1.84921e-07
2.83731e-06
1.85147e-07
2.65313e-06
1.84177e-07
2.47153e-06
1.81621e-07
2.2928e-06
1.78711e-07
2.11696e-06
1.75811e-07
1.94391e-06
1.73012e-07
1.77196e-06
1.71918e-07
1.60154e-06
1.70403e-07
1.43466e-06
1.66872e-07
1.27159e-06
1.63062e-07
1.11236e-06
1.59213e-07
9.55744e-07
1.56599e-07
8.02122e-07
1.53613e-07
6.52317e-07
1.49796e-07
5.06803e-07
1.45501e-07
3.65566e-07
1.41224e-07
2.27489e-07
1.38064e-07
9.16986e-08
1.35776e-07
-4.10052e-08
1.32692e-07
-1.69183e-07
1.28168e-07
-2.93239e-07
1.2405e-07
-4.14298e-07
1.21057e-07
-5.32683e-07
1.18386e-07
-6.48719e-07
1.16039e-07
-7.62523e-07
1.13811e-07
-8.74311e-07
1.11798e-07
-9.8433e-07
1.10031e-07
-1.09301e-06
1.08695e-07
-1.20088e-06
1.0788e-07
-1.30769e-06
1.06815e-07
-1.41323e-06
1.05545e-07
-1.51813e-06
1.0491e-07
-1.6229e-06
1.04776e-07
-1.72734e-06
1.04444e-07
-1.83098e-06
1.03634e-07
-1.93358e-06
1.02594e-07
-2.0354e-06
1.01817e-07
-2.13692e-06
1.01523e-07
-2.23864e-06
1.01716e-07
-2.34002e-06
1.01375e-07
-2.44004e-06
1.00015e-07
-2.53831e-06
9.82612e-08
-2.63531e-06
9.69924e-08
-2.73108e-06
9.57699e-08
-2.82558e-06
9.44841e-08
-2.91869e-06
9.31035e-08
-3.01024e-06
9.15444e-08
-3.10005e-06
8.97946e-08
-3.18801e-06
8.79553e-08
-3.2742e-06
8.61965e-08
-3.35842e-06
8.42126e-08
-3.44056e-06
8.21448e-08
-3.52057e-06
8.00018e-08
-3.5984e-06
7.78375e-08
-3.67413e-06
7.57248e-08
-3.74782e-06
7.36962e-08
-3.81948e-06
7.16499e-08
-3.8889e-06
6.94198e-08
-3.956e-06
6.70877e-08
-4.02083e-06
6.48257e-08
-4.08353e-06
6.26874e-08
-4.14412e-06
6.05856e-08
-4.20266e-06
5.85268e-08
-4.25908e-06
5.64182e-08
-4.31328e-06
5.41974e-08
-4.36535e-06
5.20667e-08
-4.41536e-06
5.00141e-08
-4.46335e-06
4.79851e-08
-4.50934e-06
4.59838e-08
-4.55354e-06
4.42e-08
-4.59606e-06
4.25268e-08
-4.63683e-06
4.07736e-08
-4.67563e-06
3.87994e-08
-4.7124e-06
3.6747e-08
-4.74739e-06
3.49783e-08
-4.78095e-06
3.35504e-08
-4.8131e-06
3.2146e-08
-4.84348e-06
3.038e-08
-4.87201e-06
2.85304e-08
-4.89889e-06
2.68727e-08
-4.92434e-06
2.54555e-08
-4.94848e-06
2.41559e-08
-4.97132e-06
2.28504e-08
-4.99294e-06
2.16304e-08
-5.01362e-06
2.06933e-08
-5.03313e-06
1.95181e-08
-5.05104e-06
1.79156e-08
-5.06752e-06
1.64892e-08
-5.08298e-06
1.54711e-08
-5.09747e-06
1.4506e-08
-5.11099e-06
1.3537e-08
-5.12355e-06
1.2574e-08
-5.13512e-06
1.15733e-08
-5.14548e-06
1.03733e-08
-5.15479e-06
9.31937e-09
-5.1633e-06
8.5309e-09
-5.17105e-06
7.76242e-09
-5.17776e-06
6.70552e-09
-5.18319e-06
5.42954e-09
-5.18756e-06
4.37436e-09
-5.19094e-06
3.38758e-09
-5.19325e-06
2.32136e-09
-5.19473e-06
1.49263e-09
-5.19552e-06
8.02254e-10
-5.19531e-06
-2.18312e-10
-5.19381e-06
-1.49651e-09
-5.19104e-06
-2.76387e-09
-5.18697e-06
-4.05994e-09
-5.18181e-06
-5.14962e-09
-5.17567e-06
-6.11866e-09
-5.16917e-06
-6.48809e-09
-5.16149e-06
-7.6775e-09
-5.152e-06
-9.47388e-09
-5.14067e-06
-1.13319e-08
-5.12837e-06
-1.2282e-08
-5.11503e-06
-1.33247e-08
-5.10039e-06
-1.46135e-08
-5.08415e-06
-1.62346e-08
-5.06524e-06
-1.89083e-08
-5.04454e-06
-2.0697e-08
-5.02052e-06
-2.40084e-08
-4.99571e-06
-2.48012e-08
-4.9685e-06
-2.72109e-08
-4.93928e-06
-2.92191e-08
-4.91017e-06
-2.91124e-08
-4.87761e-06
-3.25547e-08
-4.83674e-06
-4.0872e-08
-4.79855e-06
-3.81856e-08
-4.74925e-06
-4.92963e-08
-4.69838e-06
-5.08715e-08
-4.67534e-06
-2.3044e-08
-4.63055e-06
-4.47833e-08
-4.57305e-06
-5.75064e-08
-4.53974e-06
-3.33039e-08
-4.48299e-06
-5.67519e-08
-4.37408e-06
-1.08916e-07
-4.25541e-06
-1.18674e-07
-4.16147e-06
-9.39453e-08
-4.06814e-06
-9.33396e-08
-3.98802e-06
-8.01266e-08
-3.90202e-06
-8.60121e-08
-3.80583e-06
-9.61958e-08
-3.70034e-06
-1.05493e-07
-3.59586e-06
-1.04481e-07
-3.4861e-06
-1.09754e-07
-3.36208e-06
-1.24009e-07
-3.29918e-06
-6.28971e-08
-3.2469e-06
-5.22638e-08
-3.14586e-06
-1.01024e-07
-3.06516e-06
-8.06859e-08
-2.86541e-06
-1.99739e-07
-2.61594e-06
-2.49472e-07
-2.10833e-06
-5.07595e-07
-1.3957e-06
-7.12612e-07
-7.79746e-07
-6.15953e-07
-2.19372e-07
-5.60371e-07
1.97752e-07
-4.17123e-07
5.61165e-07
-3.63414e-07
8.66326e-07
-3.05162e-07
1.13845e-06
-2.72121e-07
1.3809e-06
-2.42451e-07
1.57847e-06
-1.9757e-07
1.77905e-06
-2.00568e-07
1.97095e-06
-1.91894e-07
2.14153e-06
-1.70571e-07
2.36713e-06
-2.25588e-07
2.5151e-06
-1.47964e-07
2.58245e-06
-6.7343e-08
2.73642e-06
-1.53963e-07
2.72362e-06
1.28062e-08
2.84247e-06
-1.18829e-07
3.12549e-06
-2.82939e-07
3.82494e-06
-6.99239e-07
4.63668e-06
-8.11421e-07
5.61118e-06
-9.73923e-07
6.68617e-06
-1.07396e-06
7.76756e-06
-1.08046e-06
8.81181e-06
-1.0434e-06
9.73796e-06
-9.25429e-07
1.05183e-05
-7.79941e-07
1.11762e-05
-6.57295e-07
1.17477e-05
-5.70958e-07
1.22666e-05
-5.18321e-07
1.2747e-05
-4.79886e-07
1.31904e-05
-4.4305e-07
1.36079e-05
-4.1717e-07
1.40099e-05
-4.01656e-07
1.43986e-05
-3.88397e-07
1.47803e-05
-3.81195e-07
1.51512e-05
-3.70638e-07
1.55093e-05
-3.57879e-07
1.58586e-05
-3.49036e-07
1.62062e-05
-3.47401e-07
1.655e-05
-3.43411e-07
1.68835e-05
-3.33299e-07
1.72115e-05
-3.27836e-07
1.75399e-05
-3.28136e-07
1.78672e-05
-3.2711e-07
1.81879e-05
-3.20668e-07
1.84996e-05
-3.11527e-07
1.88064e-05
-3.06734e-07
1.91103e-05
-3.0381e-07
1.94132e-05
-3.02717e-07
1.97127e-05
-2.9943e-07
2.00091e-05
-2.9636e-07
2.03041e-05
-2.94922e-07
2.0594e-05
-2.89864e-07
2.08763e-05
-2.82222e-07
2.11531e-05
-2.76774e-07
2.14288e-05
-2.75724e-07
2.17061e-05
-2.77253e-07
2.19847e-05
-2.78499e-07
2.22622e-05
-2.7746e-07
2.25361e-05
-2.73858e-07
2.28063e-05
-2.7026e-07
2.30711e-05
-2.64738e-07
2.33334e-05
-2.62221e-07
2.35933e-05
-2.59922e-07
2.38486e-05
-2.55217e-07
2.41011e-05
-2.52393e-07
2.43526e-05
-2.51539e-07
2.46018e-05
-2.49102e-07
2.48456e-05
-2.43795e-07
2.50829e-05
-2.37278e-07
2.53142e-05
-2.31294e-07
2.55408e-05
-2.26572e-07
2.57646e-05
-2.23678e-07
2.59864e-05
-2.21747e-07
2.62064e-05
-2.19891e-07
2.64241e-05
-2.17689e-07
2.66394e-05
-2.15205e-07
2.68518e-05
-2.1229e-07
2.7061e-05
-2.09116e-07
2.72673e-05
-2.06078e-07
2.74707e-05
-2.03333e-07
2.76719e-05
-2.01049e-07
2.78712e-05
-1.99109e-07
2.8068e-05
-1.96599e-07
2.82619e-05
-1.93691e-07
2.84526e-05
-1.90453e-07
2.86415e-05
-1.88582e-07
2.88286e-05
-1.86838e-07
2.90151e-05
-1.86164e-07
2.91983e-05
-1.82891e-07
2.93796e-05
-1.80977e-07
2.95593e-05
-1.79278e-07
2.97373e-05
-1.77652e-07
2.99136e-05
-1.7579e-07
3.009e-05
-1.75996e-07
3.02696e-05
-1.7912e-07
3.04531e-05
-1.82985e-07
3.06406e-05
-1.86988e-07
3.0831e-05
-1.89935e-07
3.10217e-05
-1.90309e-07
-2.13408e-07
-7.53373e-05
1.05145e-05
-7.64432e-05
3.10041e-06
-7.72164e-05
3.14815e-06
-7.73649e-05
2.48698e-06
-7.60023e-05
-1.20091e-07
-7.18517e-05
-5.33929e-06
-6.48966e-05
-1.22405e-05
-5.76874e-05
-1.63717e-05
-5.12566e-05
-1.68397e-05
-4.4893e-05
-1.5718e-05
-3.86359e-05
-1.46931e-05
-3.28981e-05
-1.41107e-05
-2.73952e-05
-1.38191e-05
-2.24327e-05
-1.31201e-05
-1.87056e-05
-1.09908e-05
-1.61067e-05
-7.27022e-06
-1.4783e-05
-1.64758e-06
-1.52133e-05
4.2912e-06
-1.66634e-05
6.97269e-06
-1.84475e-05
7.25773e-06
-2.03197e-05
5.66504e-06
-2.22413e-05
3.59428e-06
-2.33266e-05
8.87681e-07
-2.26505e-05
-2.24204e-06
-2.07869e-05
-4.67887e-06
-1.84751e-05
-5.98121e-06
-1.60921e-05
-6.40492e-06
-1.37741e-05
-6.29524e-06
-1.17389e-05
-5.37783e-06
-1.06611e-05
-3.26079e-06
-1.04978e-05
-1.07317e-06
-1.09798e-05
9.18447e-07
-1.23886e-05
3.1126e-06
-1.46833e-05
4.95541e-06
-1.7015e-05
6.06006e-06
-1.86244e-05
5.88231e-06
-1.96888e-05
4.52162e-06
-2.07011e-05
3.04677e-06
-2.18191e-05
2.44474e-06
-2.29112e-05
2.49516e-06
-2.38368e-05
2.52698e-06
-2.44788e-05
1.78303e-06
-2.44641e-05
4.9812e-08
-2.39105e-05
-1.43355e-06
-2.31322e-05
-2.09241e-06
-2.21757e-05
-2.14867e-06
-2.12225e-05
-1.52796e-06
-2.05462e-05
-7.30237e-07
-1.99859e-05
-6.55591e-07
-1.93106e-05
-1.22644e-06
-1.84647e-05
-2.0653e-06
-1.74605e-05
-2.47348e-06
-1.63181e-05
-2.37731e-06
-1.5301e-05
-1.6828e-06
-1.45517e-05
-1.10504e-06
-1.39767e-05
-9.874e-07
-1.34215e-05
-1.273e-06
-1.25497e-05
-1.94808e-06
-1.13272e-05
-2.56333e-06
-9.90707e-06
-2.96049e-06
-8.46682e-06
-3.26619e-06
-7.11452e-06
-3.37802e-06
-6.01259e-06
-2.95068e-06
-5.21063e-06
-2.08907e-06
-4.39459e-06
-1.51791e-06
-3.35308e-06
-1.3226e-06
-2.1638e-06
-1.43979e-06
-1.10492e-06
-1.35397e-06
-4.58646e-07
-8.39264e-07
-1.28185e-07
-3.81435e-07
9.0147e-08
-3.4609e-07
2.56682e-07
-5.84745e-07
6.20002e-07
-1.20222e-06
1.30113e-06
-1.82918e-06
2.22151e-06
-2.24918e-06
3.1466e-06
-2.39176e-06
3.94312e-06
-2.15737e-06
4.15618e-06
-1.0028e-06
4.08512e-06
-6.78112e-07
4.43818e-06
-5.60802e-07
4.84446e-06
-4.30209e-07
5.8325e-06
-8.11259e-07
6.46957e-06
-6.02283e-07
7.00437e-06
-5.8206e-07
7.24385e-06
-2.36776e-08
7.41881e-06
1.99446e-07
7.53338e-06
5.48676e-07
7.4449e-06
8.99916e-07
6.93502e-06
1.21287e-06
5.93388e-06
1.70708e-06
4.72654e-06
1.72183e-06
3.69366e-06
1.35125e-06
2.82357e-06
1.21017e-06
2.26285e-06
8.98599e-07
1.89098e-06
9.00435e-07
1.48037e-06
1.00862e-06
1.1803e-06
1.33771e-06
8.13712e-07
1.61306e-06
8.46686e-07
2.08871e-06
4.5987e-07
3.02465e-06
-7.61665e-07
3.48705e-06
-3.06139e-06
3.72342e-06
-6.01756e-06
3.258e-06
-8.49141e-06
2.62666e-06
-1.02993e-05
1.46839e-06
-1.10393e-05
3.68679e-07
-1.11037e-05
1.21615e-07
-1.10993e-05
3.19908e-07
-1.06897e-05
-1.60758e-07
-1.01187e-05
-6.01219e-07
-1.00677e-05
-9.65302e-08
-1.01393e-05
-1.28474e-07
-1.00839e-05
-3.19981e-07
-1.0041e-05
-2.21777e-07
-9.91017e-06
-2.21011e-07
-9.7187e-06
-2.18973e-07
-9.59861e-06
-5.64916e-08
-9.57136e-06
7.63547e-08
-9.56312e-06
5.31795e-08
-9.60151e-06
1.57151e-08
-9.71284e-06
3.5646e-08
-9.81713e-06
5.5481e-08
-9.81395e-06
-7.8947e-08
-9.73326e-06
-1.79429e-07
-9.64402e-06
-1.52265e-07
-9.53263e-06
-1.60971e-07
-9.43193e-06
-1.45992e-07
-9.37861e-06
-9.15973e-08
-9.3308e-06
-1.22463e-07
-9.25762e-06
-1.73535e-07
-9.18011e-06
-1.78581e-07
-9.07679e-06
-2.15245e-07
-8.97783e-06
-1.94664e-07
-8.87998e-06
-1.80597e-07
-8.77733e-06
-1.84842e-07
-8.65483e-06
-2.42675e-07
-8.51029e-06
-2.99084e-07
-8.35982e-06
-3.10009e-07
-8.20444e-06
-3.15324e-07
-8.04886e-06
-3.13155e-07
-7.88542e-06
-3.31305e-07
-7.70814e-06
-3.57697e-07
-7.52294e-06
-3.77905e-07
-7.33475e-06
-3.76462e-07
-7.15074e-06
-3.57355e-07
-6.9608e-06
-3.66371e-07
-6.76293e-06
-3.84435e-07
-6.55072e-06
-4.20659e-07
-6.33478e-06
-4.44211e-07
-6.12472e-06
-4.36534e-07
-5.91481e-06
-4.1638e-07
-5.69556e-06
-4.19304e-07
-5.46145e-06
-4.58967e-07
-5.21342e-06
-5.01294e-07
-4.96785e-06
-5.03348e-07
-4.72876e-06
-4.93596e-07
-4.47948e-06
-5.01228e-07
-4.2116e-06
-5.22421e-07
-3.9335e-06
-5.40153e-07
-3.65821e-06
-5.46506e-07
-3.38837e-06
-5.48827e-07
-3.1117e-06
-5.63469e-07
-2.83021e-06
-5.70816e-07
-2.54872e-06
-5.64505e-07
-2.257e-06
-5.7881e-07
-1.95683e-06
-5.99898e-07
-1.65788e-06
-6.00466e-07
-1.369e-06
-5.77485e-07
-1.08213e-06
-5.7331e-07
-7.87252e-07
-5.9245e-07
-4.86708e-07
-6.05724e-07
-1.93068e-07
-5.92151e-07
9.29826e-08
-5.67102e-07
3.77309e-07
-5.61553e-07
6.6213e-07
-5.72702e-07
9.50868e-07
-5.83657e-07
1.2414e-06
-5.86471e-07
1.53036e-06
-5.77766e-07
1.81132e-06
-5.52818e-07
2.08306e-06
-5.34417e-07
2.35027e-06
-5.31509e-07
2.61603e-06
-5.33215e-07
2.8867e-06
-5.4567e-07
3.16091e-06
-5.50917e-07
3.43462e-06
-5.45611e-07
3.70244e-06
-5.31421e-07
3.95855e-06
-5.07395e-07
4.20829e-06
-5.00511e-07
4.45842e-06
-5.06097e-07
4.71138e-06
-5.10874e-07
4.96499e-06
-5.04643e-07
5.21494e-06
-4.90958e-07
5.45673e-06
-4.75926e-07
5.69058e-06
-4.6646e-07
5.92254e-06
-4.66438e-07
6.15534e-06
-4.6957e-07
6.38639e-06
-4.6529e-07
6.61048e-06
-4.49165e-07
6.82758e-06
-4.28891e-07
7.03922e-06
-4.16761e-07
7.2497e-06
-4.16325e-07
7.45791e-06
-4.17105e-07
7.66079e-06
-4.08493e-07
7.85579e-06
-3.92935e-07
8.04552e-06
-3.7869e-07
8.23273e-06
-3.693e-07
8.41646e-06
-3.64363e-07
8.59351e-06
-3.56245e-07
8.76143e-06
-3.39196e-07
8.92045e-06
-3.14761e-07
9.07796e-06
-3.09532e-07
9.23344e-06
-3.1039e-07
9.38368e-06
-3.02737e-07
9.52725e-06
-2.90655e-07
9.66217e-06
-2.71284e-07
9.78749e-06
-2.46739e-07
9.9056e-06
-2.30597e-07
1.00194e-05
-2.25544e-07
1.01303e-05
-2.23161e-07
1.02354e-05
-2.13439e-07
1.03335e-05
-1.9955e-07
1.04225e-05
-1.78981e-07
1.05038e-05
-1.57532e-07
1.05769e-05
-1.42136e-07
1.06438e-05
-1.32533e-07
1.0706e-05
-1.2613e-07
1.07625e-05
-1.16255e-07
1.08124e-05
-1.03099e-07
1.08527e-05
-8.19382e-08
1.08847e-05
-6.12172e-08
1.09103e-05
-4.81489e-08
1.09321e-05
-4.15137e-08
1.09501e-05
-3.53145e-08
1.09618e-05
-2.41919e-08
1.09661e-05
-8.89329e-09
1.09614e-05
8.0843e-09
1.09474e-05
2.4306e-08
1.09261e-05
3.89946e-08
1.09004e-05
5.11207e-08
1.08721e-05
5.99331e-08
1.08396e-05
6.9841e-08
1.08012e-05
7.79458e-08
1.07552e-05
8.87714e-08
1.0703e-05
1.00916e-07
1.06435e-05
1.14795e-07
1.05773e-05
1.31847e-07
1.05082e-05
1.43896e-07
1.04364e-05
1.46049e-07
1.03594e-05
1.5186e-07
1.02758e-05
1.63763e-07
1.01854e-05
1.76949e-07
1.00896e-05
1.91257e-07
9.99061e-06
2.00805e-07
9.88872e-06
2.06774e-07
9.78228e-06
2.14149e-07
9.66998e-06
2.23019e-07
9.55046e-06
2.35393e-07
9.42477e-06
2.4794e-07
9.29778e-06
2.53803e-07
9.16944e-06
2.59439e-07
9.03703e-06
2.65994e-07
8.90021e-06
2.71799e-07
8.75852e-06
2.80872e-07
8.61027e-06
2.94095e-07
8.45733e-06
3.0653e-07
8.30155e-06
3.14837e-07
8.14522e-06
3.13707e-07
7.98657e-06
3.15359e-07
7.82455e-06
3.22103e-07
7.6586e-06
3.29242e-07
7.48864e-06
3.37083e-07
7.3156e-06
3.45894e-07
7.14098e-06
3.5258e-07
6.96424e-06
3.56935e-07
6.78442e-06
3.5965e-07
6.60237e-06
3.61424e-07
6.41923e-06
3.64004e-07
6.23527e-06
3.66394e-07
6.05068e-06
3.67979e-07
5.86402e-06
3.71918e-07
5.67412e-06
3.80121e-07
5.48304e-06
3.85013e-07
5.29232e-06
3.82593e-07
5.10253e-06
3.7855e-07
4.91209e-06
3.79407e-07
4.71995e-06
3.82231e-07
4.52766e-06
3.82481e-07
4.3361e-06
3.82652e-07
4.14504e-06
3.84008e-07
3.95465e-06
3.83199e-07
3.76513e-06
3.8031e-07
3.5756e-06
3.77912e-07
3.38631e-06
3.7634e-07
3.19855e-06
3.73667e-07
3.0135e-06
3.69899e-07
2.83081e-06
3.67788e-07
2.64949e-06
3.65501e-07
2.46802e-06
3.63067e-07
2.2874e-06
3.59308e-07
2.10993e-06
3.53242e-07
1.93672e-06
3.46181e-07
1.76663e-06
3.41959e-07
1.59817e-06
3.38848e-07
1.43095e-06
3.34071e-07
1.26665e-06
3.27342e-07
1.10773e-06
3.18113e-07
9.52908e-07
3.11396e-07
8.00385e-07
3.06116e-07
6.50002e-07
3.00161e-07
5.03697e-07
2.91789e-07
3.62348e-07
2.82557e-07
2.24688e-07
2.75707e-07
9.00005e-08
2.70452e-07
-4.23836e-08
2.65066e-07
-1.71645e-07
2.57425e-07
-2.96367e-07
2.48772e-07
-4.1756e-07
2.42254e-07
-5.36023e-07
2.36858e-07
-6.5228e-07
2.32307e-07
-7.66803e-07
2.28347e-07
-8.79429e-07
2.24437e-07
-9.90017e-07
2.20633e-07
-1.09883e-06
2.17517e-07
-1.20633e-06
2.15391e-07
-1.31283e-06
2.13326e-07
-1.41864e-06
2.11356e-07
-1.524e-06
2.10274e-07
-1.62884e-06
2.09619e-07
-1.73292e-06
2.08516e-07
-1.83618e-06
2.06887e-07
-1.93873e-06
2.05147e-07
-2.04082e-06
2.03897e-07
-2.1425e-06
2.03203e-07
-2.24368e-06
2.02889e-07
-2.34421e-06
2.01893e-07
-2.44408e-06
1.99869e-07
-2.54259e-06
1.96762e-07
-2.63978e-06
1.94169e-07
-2.73558e-06
1.91563e-07
-2.82983e-06
1.88727e-07
-2.92271e-06
1.85967e-07
-3.01423e-06
1.83062e-07
-3.10418e-06
1.79737e-07
-3.19243e-06
1.762e-07
-3.2789e-06
1.72667e-07
-3.36309e-06
1.68405e-07
-3.445e-06
1.64052e-07
-3.52482e-06
1.59811e-07
-3.60262e-06
1.55634e-07
-3.6784e-06
1.51497e-07
-3.7521e-06
1.47386e-07
-3.82367e-06
1.43211e-07
-3.89302e-06
1.38756e-07
-3.96008e-06
1.34141e-07
-4.02487e-06
1.29605e-07
-4.0875e-06
1.25307e-07
-4.1481e-06
1.21177e-07
-4.20677e-06
1.17186e-07
-4.26333e-06
1.12976e-07
-4.31755e-06
1.0841e-07
-4.36958e-06
1.04092e-07
-4.41959e-06
1.00017e-07
-4.46763e-06
9.60178e-08
-4.51367e-06
9.20282e-08
-4.5578e-06
8.83331e-08
-4.60003e-06
8.47482e-08
-4.64035e-06
8.10844e-08
-4.67887e-06
7.72942e-08
-4.71562e-06
7.34876e-08
-4.75073e-06
7.00805e-08
-4.78429e-06
6.7124e-08
-4.81634e-06
6.41971e-08
-4.84666e-06
6.06855e-08
-4.87515e-06
5.70181e-08
-4.90197e-06
5.37058e-08
-4.92742e-06
5.0913e-08
-4.95167e-06
4.84189e-08
-4.97465e-06
4.58536e-08
-4.99621e-06
4.32303e-08
-5.01638e-06
4.08804e-08
-5.03521e-06
3.83759e-08
-5.05299e-06
3.56885e-08
-5.06956e-06
3.30813e-08
-5.08508e-06
3.10124e-08
-5.09965e-06
2.90997e-08
-5.11321e-06
2.71186e-08
-5.1256e-06
2.49813e-08
-5.13698e-06
2.29664e-08
-5.14735e-06
2.07712e-08
-5.15681e-06
1.8794e-08
-5.16529e-06
1.70399e-08
-5.17265e-06
1.51317e-08
-5.17901e-06
1.30783e-08
-5.18447e-06
1.08984e-08
-5.18913e-06
9.05131e-09
-5.19275e-06
7.02487e-09
-5.19525e-06
4.84995e-09
-5.1965e-06
2.77183e-09
-5.19681e-06
1.12344e-09
-5.19623e-06
-7.79003e-10
-5.19489e-06
-2.82537e-09
-5.19235e-06
-5.29174e-09
-5.18865e-06
-7.7283e-09
-5.18352e-06
-1.0261e-08
-5.17731e-06
-1.22912e-08
-5.16983e-06
-1.39211e-08
-5.16175e-06
-1.5755e-08
-5.15243e-06
-1.87786e-08
-5.14205e-06
-2.16972e-08
-5.13094e-06
-2.33657e-08
-5.11804e-06
-2.61829e-08
-5.10368e-06
-2.89499e-08
-5.08578e-06
-3.41263e-08
-5.06751e-06
-3.71784e-08
-5.04631e-06
-4.18828e-08
-5.02441e-06
-4.59007e-08
-5.00285e-06
-4.63499e-08
-4.97799e-06
-5.20697e-08
-4.9432e-06
-6.40007e-08
-4.91095e-06
-6.13544e-08
-4.86515e-06
-7.83413e-08
-4.82517e-06
-8.08497e-08
-4.81693e-06
-4.64145e-08
-4.79082e-06
-7.54026e-08
-4.74603e-06
-9.56491e-08
-4.70589e-06
-6.31806e-08
-4.67177e-06
-7.88984e-08
-4.5963e-06
-1.32977e-07
-4.48738e-06
-1.42223e-07
-4.39381e-06
-1.50326e-07
-4.32806e-06
-1.74667e-07
-4.27039e-06
-1.76355e-07
-4.19919e-06
-1.65158e-07
-4.10837e-06
-1.84169e-07
-4.01246e-06
-1.76042e-07
-3.89617e-06
-2.0231e-07
-3.77164e-06
-2.20723e-07
-3.65458e-06
-2.22563e-07
-3.60127e-06
-1.57782e-07
-3.56571e-06
-1.45315e-07
-3.47154e-06
-2.18163e-07
-3.33522e-06
-1.99193e-07
-3.03793e-06
-3.49541e-07
-2.71409e-06
-4.24857e-07
-2.16221e-06
-6.32548e-07
-1.478e-06
-8.83936e-07
-8.6983e-07
-8.57619e-07
-4.20133e-07
-9.57277e-07
-1.83019e-07
-9.49714e-07
3.88656e-08
-8.37828e-07
2.7088e-07
-7.92375e-07
5.03883e-07
-6.50116e-07
7.29202e-07
-5.88723e-07
9.56561e-07
-5.32509e-07
1.18166e-06
-4.97216e-07
1.40449e-06
-4.65247e-07
1.61649e-06
-4.09542e-07
1.8958e-06
-4.79827e-07
2.07608e-06
-3.72114e-07
2.17356e-06
-2.67994e-07
2.31373e-06
-3.65698e-07
2.35988e-06
-1.94048e-07
2.59302e-06
-3.00436e-07
2.96182e-06
-5.22746e-07
3.88443e-06
-9.09828e-07
4.79693e-06
-1.03145e-06
5.72222e-06
-1.20856e-06
6.6686e-06
-1.64631e-06
7.66093e-06
-1.80467e-06
8.59712e-06
-1.91153e-06
9.29852e-06
-1.7767e-06
9.81694e-06
-1.60009e-06
1.02622e-05
-1.48975e-06
1.07182e-05
-1.38242e-06
1.11908e-05
-1.25336e-06
1.16548e-05
-1.12209e-06
1.21029e-05
-1.01984e-06
1.25353e-05
-9.51339e-07
1.2955e-05
-9.00203e-07
1.33634e-05
-8.51905e-07
1.37619e-05
-8.1614e-07
1.41525e-05
-7.92752e-07
1.45352e-05
-7.7156e-07
1.49085e-05
-7.54876e-07
1.52718e-05
-7.3426e-07
1.56275e-05
-7.13918e-07
1.59773e-05
-6.99204e-07
1.63228e-05
-6.93235e-07
1.6663e-05
-6.83886e-07
1.69986e-05
-6.69248e-07
1.73308e-05
-6.60243e-07
1.76591e-05
-6.56777e-07
1.79832e-05
-6.51389e-07
1.83032e-05
-6.40939e-07
1.86189e-05
-6.27448e-07
1.89306e-05
-6.18599e-07
1.92383e-05
-6.11722e-07
1.9542e-05
-6.06519e-07
1.98434e-05
-6.0101e-07
2.01426e-05
-5.95639e-07
2.04372e-05
-5.89614e-07
2.07267e-05
-5.79418e-07
2.10119e-05
-5.67499e-07
2.12941e-05
-5.58965e-07
2.15742e-05
-5.55771e-07
2.18523e-05
-5.55369e-07
2.21278e-05
-5.53963e-07
2.24005e-05
-5.50103e-07
2.26705e-05
-5.43782e-07
2.29375e-05
-5.37219e-07
2.32021e-05
-5.29286e-07
2.34641e-05
-5.24145e-07
2.37227e-05
-5.18501e-07
2.39776e-05
-5.10049e-07
2.42288e-05
-5.0354e-07
2.44764e-05
-4.99151e-07
2.47202e-05
-4.9288e-07
2.49603e-05
-4.8381e-07
2.51968e-05
-4.73811e-07
2.54301e-05
-4.64545e-07
2.56602e-05
-4.56743e-07
2.5887e-05
-4.50436e-07
2.61103e-05
-4.45057e-07
2.63304e-05
-4.40039e-07
2.65478e-05
-4.35106e-07
2.67625e-05
-4.29901e-07
2.69743e-05
-4.24193e-07
2.71832e-05
-4.18087e-07
2.7389e-05
-4.12013e-07
2.75921e-05
-4.06641e-07
2.7793e-05
-4.02137e-07
2.79913e-05
-3.97614e-07
2.81867e-05
-3.92215e-07
2.83792e-05
-3.86507e-07
2.85694e-05
-3.81e-07
2.87581e-05
-3.77766e-07
2.89451e-05
-3.74207e-07
2.91296e-05
-3.71188e-07
2.93119e-05
-3.65706e-07
2.94929e-05
-3.62615e-07
2.96732e-05
-3.60214e-07
2.98522e-05
-3.57308e-07
3.00296e-05
-3.53857e-07
3.02062e-05
-3.53384e-07
3.03825e-05
-3.56171e-07
3.05582e-05
-3.59416e-07
3.07329e-05
-3.62358e-07
3.09053e-05
-3.63036e-07
3.10778e-05
-3.63454e-07
-3.70935e-07
-7.3898e-05
1.3458e-05
-7.41421e-05
3.34475e-06
-7.40176e-05
3.0239e-06
-7.28721e-05
1.34158e-06
-7.01603e-05
-2.83176e-06
-6.55947e-05
-9.90489e-06
-6.07922e-05
-1.7043e-05
-5.74386e-05
-1.97249e-05
-5.41712e-05
-2.01013e-05
-5.05508e-05
-1.93163e-05
-4.75173e-05
-1.77064e-05
-4.57756e-05
-1.5849e-05
-4.48149e-05
-1.48126e-05
-4.37522e-05
-1.41854e-05
-4.2737e-05
-1.20064e-05
-4.14706e-05
-8.53675e-06
-3.94338e-05
-3.68453e-06
-3.67792e-05
1.63653e-06
-3.42188e-05
4.41211e-06
-3.21507e-05
5.1895e-06
-3.08884e-05
4.40267e-06
-3.02284e-05
2.93417e-06
-2.98988e-05
5.57924e-07
-3.01024e-05
-2.0385e-06
-3.10057e-05
-3.77563e-06
-3.20914e-05
-4.89557e-06
-3.29761e-05
-5.52029e-06
-3.35711e-05
-5.70039e-06
-3.39395e-05
-5.00941e-06
-3.43189e-05
-2.88124e-06
-3.50988e-05
-2.92785e-07
-3.58497e-05
1.67121e-06
-3.57421e-05
3.00578e-06
-3.45706e-05
3.78062e-06
-3.24178e-05
3.90665e-06
-2.99437e-05
3.4075e-06
-2.80541e-05
2.63199e-06
-2.72865e-05
2.27919e-06
-2.71625e-05
2.32574e-06
-2.712e-05
2.46444e-06
-2.68767e-05
2.28376e-06
-2.64464e-05
1.3528e-06
-2.57533e-05
-6.54413e-07
-2.49274e-05
-2.26575e-06
-2.4069e-05
-2.95146e-06
-2.31216e-05
-3.09468e-06
-2.20118e-05
-2.62895e-06
-2.09603e-05
-1.77827e-06
-1.99406e-05
-1.67536e-06
-1.88561e-05
-2.31897e-06
-1.78804e-05
-3.04555e-06
-1.69596e-05
-3.39457e-06
-1.59896e-05
-3.34657e-06
-1.49638e-05
-2.7018e-06
-1.41076e-05
-1.96124e-06
-1.33823e-05
-1.71273e-06
-1.27482e-05
-1.90916e-06
-1.20266e-05
-2.67394e-06
-1.11781e-05
-3.41232e-06
-1.02764e-05
-3.86231e-06
-9.41999e-06
-4.12262e-06
-8.63648e-06
-4.16143e-06
-7.8791e-06
-3.70516e-06
-7.08284e-06
-2.88404e-06
-5.89902e-06
-2.70244e-06
-4.20995e-06
-3.01357e-06
-2.344e-06
-3.30701e-06
-7.31871e-07
-2.96642e-06