/*--------------------------------*- C++ -*----------------------------------*\
| =========                 |                                                 |
| \\      /  F ield         | OpenFOAM: The Open Source CFD Toolbox           |
|  \\    /   O peration     | Version:  v2006                                 |
|   \\  /    A nd           | Website:  www.openfoam.com                      |
|    \\/     M anipulation  |                                                 |
\*---------------------------------------------------------------------------*/
FoamFile
{
    version     2.0;
    format      ascii;
    class       volScalarField;
    location    "8";
    object      k;
}
// * * * * * * * * * * * * * * * * * * * * * * * * * * * * * * * * * * * * * //

dimensions      [0 2 -2 0 0 0 0];


internalField   nonuniform List<scalar> 
33000
(
2.50707e-08
2.80776e-08
3.06816e-08
3.21805e-08
3.20679e-08
3.03253e-08
2.75715e-08
2.50893e-08
2.35934e-08
2.3072e-08
2.30902e-08
2.33412e-08
2.38494e-08
2.47287e-08
2.6356e-08
2.95329e-08
3.44075e-08
4.32945e-08
5.2662e-08
6.38918e-08
7.54865e-08
8.75178e-08
1.00713e-07
1.16896e-07
1.38211e-07
1.63963e-07
1.91531e-07
2.16937e-07
2.34314e-07
2.39882e-07
2.35365e-07
2.25183e-07
2.29185e-07
2.49941e-07
2.9886e-07
3.87114e-07
5.06258e-07
6.33012e-07
7.48045e-07
8.43112e-07
9.14933e-07
9.60148e-07
9.75748e-07
9.55679e-07
9.39819e-07
9.44711e-07
9.68018e-07
9.85989e-07
9.77763e-07
9.47111e-07
9.10681e-07
8.93405e-07
8.99464e-07
9.18005e-07
9.2598e-07
9.14947e-07
8.88483e-07
8.56244e-07
8.2749e-07
8.04525e-07
7.86746e-07
7.82439e-07
8.00421e-07
8.37355e-07
8.76673e-07
9.03529e-07
9.11504e-07
9.08241e-07
8.9752e-07
8.76199e-07
8.42952e-07
7.99611e-07
7.49802e-07
7.03544e-07
6.64454e-07
6.29158e-07
6.00631e-07
5.67174e-07
5.28699e-07
4.91756e-07
4.60683e-07
4.43098e-07
4.41235e-07
4.55071e-07
4.83471e-07
5.19572e-07
5.59241e-07
5.96723e-07
6.27928e-07
6.5043e-07
6.61312e-07
6.65016e-07
6.5912e-07
6.44864e-07
6.23321e-07
5.92875e-07
5.59239e-07
5.16006e-07
4.79539e-07
4.3029e-07
3.89175e-07
3.6768e-07
3.76751e-07
3.80182e-07
3.77778e-07
3.79532e-07
3.93984e-07
4.00149e-07
4.0201e-07
4.01106e-07
3.97762e-07
3.90338e-07
3.83757e-07
3.80831e-07
3.7552e-07
3.65023e-07
3.5357e-07
3.37248e-07
3.26961e-07
3.23108e-07
3.22238e-07
3.24889e-07
3.21764e-07
3.21569e-07
3.27691e-07
3.31585e-07
3.34743e-07
3.37162e-07
3.37322e-07
3.37386e-07
3.38825e-07
3.39862e-07
3.41564e-07
3.42834e-07
3.43448e-07
3.42996e-07
3.42407e-07
3.42642e-07
3.42985e-07
3.43504e-07
3.43753e-07
3.43916e-07
3.44111e-07
3.44552e-07
3.45095e-07
3.45191e-07
3.4496e-07
3.44438e-07
3.43905e-07
3.43738e-07
3.43798e-07
3.43449e-07
3.42495e-07
3.41477e-07
3.40776e-07
3.40177e-07
3.39493e-07
3.38652e-07
3.37662e-07
3.36584e-07
3.35458e-07
3.34266e-07
3.33125e-07
3.31997e-07
3.30589e-07
3.29022e-07
3.27563e-07
3.2615e-07
3.24431e-07
3.22511e-07
3.20676e-07
3.19065e-07
3.17545e-07
3.15843e-07
3.14115e-07
3.12601e-07
3.1136e-07
3.10421e-07
3.09656e-07
3.08861e-07
3.08105e-07
3.07397e-07
3.06679e-07
3.06005e-07
3.05448e-07
3.05053e-07
3.04733e-07
3.04373e-07
3.04047e-07
3.03807e-07
3.03621e-07
3.03382e-07
3.03045e-07
3.0259e-07
3.02032e-07
3.0139e-07
3.00713e-07
3.00017e-07
2.99266e-07
2.98416e-07
2.97449e-07
2.96408e-07
2.95307e-07
2.94138e-07
2.92933e-07
2.91694e-07
2.90426e-07
2.89163e-07
2.87958e-07
2.86797e-07
2.85609e-07
2.84516e-07
2.83479e-07
2.82506e-07
2.81667e-07
2.80989e-07
2.80431e-07
2.79949e-07
2.79526e-07
2.79119e-07
2.78775e-07
2.78558e-07
2.78454e-07
2.78419e-07
2.78377e-07
2.7829e-07
2.78139e-07
2.77984e-07
2.7787e-07
2.77783e-07
2.77699e-07
2.77537e-07
2.77271e-07
2.76911e-07
2.76493e-07
2.76045e-07
2.75573e-07
2.75064e-07
2.7449e-07
2.73848e-07
2.7311e-07
2.72269e-07
2.7132e-07
2.70285e-07
2.69224e-07
2.68158e-07
2.67045e-07
2.65824e-07
2.64466e-07
2.63013e-07
2.61554e-07
2.60097e-07
2.58603e-07
2.57024e-07
2.5535e-07
2.536e-07
2.51811e-07
2.49991e-07
2.48137e-07
2.4622e-07
2.44226e-07
2.42161e-07
2.40065e-07
2.37969e-07
2.35882e-07
2.33755e-07
2.31532e-07
2.29204e-07
2.26819e-07
2.24439e-07
2.22076e-07
2.19721e-07
2.17347e-07
2.14926e-07
2.12436e-07
2.09888e-07
2.07313e-07
2.04728e-07
2.02132e-07
1.99533e-07
1.96945e-07
1.94351e-07
1.9171e-07
1.88995e-07
1.8624e-07
1.83491e-07
1.80744e-07
1.77981e-07
1.75201e-07
1.72388e-07
1.69523e-07
1.6659e-07
1.63588e-07
1.60502e-07
1.57326e-07
1.54133e-07
1.50965e-07
1.4781e-07
1.44663e-07
1.41531e-07
1.38418e-07
1.35331e-07
1.32267e-07
1.29195e-07
1.26101e-07
1.23015e-07
1.1998e-07
1.17042e-07
1.14229e-07
1.11555e-07
1.09036e-07
1.0669e-07
1.04525e-07
1.02529e-07
1.00681e-07
9.89779e-08
9.74314e-08
9.60413e-08
9.48075e-08
9.37335e-08
9.28214e-08
9.20694e-08
9.14689e-08
9.10134e-08
9.0692e-08
9.04942e-08
9.0415e-08
9.04452e-08
9.05695e-08
9.07714e-08
9.10402e-08
9.1369e-08
9.17528e-08
9.21861e-08
9.26558e-08
9.3143e-08
9.36326e-08
9.41143e-08
9.45771e-08
9.50091e-08
9.54052e-08
9.57634e-08
9.60852e-08
9.63721e-08
9.66248e-08
9.68408e-08
9.70179e-08
9.71586e-08
9.72645e-08
9.73367e-08
9.73737e-08
9.73736e-08
9.73345e-08
9.72571e-08
9.71423e-08
9.69904e-08
9.68023e-08
9.65797e-08
9.63241e-08
9.60349e-08
9.57132e-08
9.53606e-08
9.49779e-08
9.45662e-08
9.41272e-08
9.36639e-08
9.31759e-08
9.26634e-08
9.21268e-08
9.15693e-08
9.09942e-08
9.04005e-08
8.97854e-08
8.91477e-08
8.84891e-08
8.7812e-08
8.71159e-08
8.64008e-08
8.56668e-08
8.49159e-08
8.41456e-08
8.3352e-08
8.25378e-08
8.17084e-08
8.08656e-08
8.00092e-08
7.91417e-08
7.8263e-08
7.73741e-08
7.64771e-08
7.55769e-08
7.46722e-08
7.3762e-08
7.28472e-08
7.19323e-08
7.10206e-08
7.0112e-08
6.92109e-08
6.8316e-08
6.74271e-08
6.65401e-08
6.56644e-08
6.47966e-08
6.39449e-08
6.3103e-08
6.22816e-08
6.14667e-08
6.06672e-08
5.98823e-08
5.91218e-08
5.83846e-08
5.76606e-08
5.69542e-08
5.62458e-08
5.55655e-08
5.48969e-08
5.42366e-08
5.36035e-08
5.29433e-08
5.22556e-08
5.16342e-08
5.10016e-08
5.04008e-08
4.99181e-08
4.91607e-08
4.83249e-08
4.78536e-08
4.69565e-08
4.64146e-08
4.57703e-08
4.63501e-08
4.69735e-08
4.77286e-08
4.81852e-08
4.84902e-08
4.85608e-08
4.84362e-08
4.82959e-08
4.8122e-08
4.79677e-08
4.77422e-08
4.7864e-08
4.7604e-08
4.69956e-08
4.68854e-08
4.61167e-08
4.53852e-08
4.38066e-08
4.42509e-08
4.52059e-08
4.67759e-08
4.84179e-08
4.97592e-08
5.0795e-08
5.15541e-08
5.21284e-08
5.26455e-08
5.2722e-08
5.28002e-08
5.27794e-08
5.24899e-08
5.27118e-08
5.27502e-08
5.18828e-08
5.14482e-08
5.0211e-08
4.86275e-08
4.672e-08
4.51722e-08
4.53694e-08
4.78221e-08
5.14923e-08
5.60241e-08
6.13598e-08
6.71223e-08
7.27921e-08
7.79612e-08
8.24267e-08
8.61896e-08
8.93096e-08
9.18206e-08
9.38087e-08
9.53925e-08
9.66538e-08
9.7688e-08
9.85382e-08
9.9216e-08
9.97451e-08
1.00189e-07
1.00572e-07
1.00865e-07
1.01077e-07
1.01252e-07
1.01413e-07
1.01549e-07
1.01632e-07
1.01666e-07
1.01664e-07
1.01644e-07
1.01603e-07
1.01544e-07
1.0148e-07
1.014e-07
1.0128e-07
1.01111e-07
1.00911e-07
1.00703e-07
1.00501e-07
1.00305e-07
1.00105e-07
9.98966e-08
9.96669e-08
9.94242e-08
9.91754e-08
9.8911e-08
9.86356e-08
9.8366e-08
9.81064e-08
9.78444e-08
9.75657e-08
9.72633e-08
9.69379e-08
9.65969e-08
9.62482e-08
9.58973e-08
9.55463e-08
9.51961e-08
9.48452e-08
9.44915e-08
9.41337e-08
9.37734e-08
9.34144e-08
9.3062e-08
9.2716e-08
9.23726e-08
9.2027e-08
9.16829e-08
9.13453e-08
9.10226e-08
9.07104e-08
9.03972e-08
9.01125e-08
8.98432e-08
8.9551e-08
8.93217e-08
8.90539e-08
8.89575e-08
8.88918e-08
8.89697e-08
8.75872e-08
1.28972e-08
1.34758e-08
1.44591e-08
1.53151e-08
1.57497e-08
1.5757e-08
1.51865e-08
1.45592e-08
1.42286e-08
1.42607e-08
1.45742e-08
1.51334e-08
1.59904e-08
1.7216e-08
1.8836e-08
2.08157e-08
2.32177e-08
2.70974e-08
3.50062e-08
4.63e-08
6.02538e-08
8.06799e-08
1.11509e-07
1.52014e-07
2.04463e-07
2.65787e-07
3.36168e-07
4.12657e-07
4.89717e-07
5.57566e-07
6.07072e-07
5.96521e-07
5.89996e-07
6.20746e-07
6.28495e-07
6.47227e-07
6.6329e-07
6.088e-07
5.2329e-07
4.6849e-07
4.29184e-07
3.74245e-07
2.9376e-07
2.29927e-07
1.90599e-07
1.69472e-07
1.60072e-07
1.52513e-07
1.42548e-07
1.31553e-07
1.20851e-07
1.13833e-07
1.11231e-07
1.10185e-07
1.06957e-07
1.00973e-07
9.30936e-08
8.45065e-08
7.6712e-08
7.06366e-08
6.67023e-08
6.58907e-08
6.95244e-08
7.81136e-08
9.03094e-08
1.02874e-07
1.12001e-07
1.1878e-07
1.24728e-07
1.27604e-07
1.19748e-07
1.0226e-07
8.50659e-08
7.33565e-08
7.05859e-08
8.06264e-08
1.0898e-07
1.58066e-07
1.88286e-07
2.06041e-07
2.24425e-07
2.31519e-07
2.43293e-07
2.68435e-07
2.93754e-07
3.30253e-07
3.55884e-07
3.61748e-07
3.40962e-07
3.09987e-07
2.59048e-07
1.96928e-07
1.48506e-07
1.1159e-07
9.52937e-08
8.82046e-08
9.74073e-08
1.08732e-07
1.41877e-07
1.818e-07
2.11111e-07
2.24894e-07
2.19592e-07
2.03873e-07
1.56652e-07
1.05865e-07
8.00566e-08
6.54604e-08
5.27054e-08
3.69345e-08
3.16466e-08
2.72378e-08
2.54395e-08
2.62053e-08
3.24784e-08
4.02293e-08
5.74178e-08
6.71966e-08
6.2553e-08
5.00663e-08
3.96809e-08
3.39308e-08
2.97929e-08
2.79248e-08
2.72869e-08
2.6294e-08
2.56642e-08
2.53516e-08
2.49618e-08
2.47559e-08
2.48505e-08
2.49898e-08
2.51442e-08
2.52781e-08
2.54562e-08
2.56707e-08
2.58837e-08
2.61447e-08
2.64073e-08
2.66819e-08
2.69724e-08
2.72856e-08
2.75976e-08
2.78864e-08
2.8128e-08
2.83228e-08
2.85402e-08
2.88252e-08
2.91824e-08
2.95532e-08
2.98613e-08
3.00956e-08
3.03304e-08
3.06358e-08
3.10049e-08
3.1371e-08
3.16964e-08
3.19857e-08
3.22555e-08
3.25123e-08
3.27741e-08
3.30693e-08
3.3381e-08
3.36333e-08
3.38157e-08
3.40355e-08
3.43201e-08
3.45458e-08
3.46475e-08
3.47405e-08
3.49336e-08
3.51873e-08
3.53301e-08
3.52935e-08
3.51874e-08
3.51498e-08
3.52583e-08
3.54271e-08
3.54971e-08
3.5426e-08
3.52097e-08
3.48834e-08
3.45794e-08
3.43674e-08
3.42721e-08
3.4216e-08
3.40205e-08
3.36518e-08
3.32343e-08
3.29331e-08
3.27395e-08
3.25412e-08
3.22392e-08
3.17911e-08
3.12653e-08
3.07605e-08
3.03925e-08
3.01563e-08
2.98986e-08
2.94777e-08
2.88622e-08
2.82454e-08
2.77628e-08
2.73713e-08
2.69816e-08
2.65031e-08
2.59318e-08
2.54056e-08
2.50367e-08
2.47363e-08
2.4202e-08
2.35513e-08
2.29867e-08
2.25521e-08
2.22861e-08
2.20534e-08
2.16941e-08
2.11501e-08
2.05877e-08
2.01309e-08
1.9796e-08
1.95949e-08
1.93905e-08
1.90858e-08
1.86673e-08
1.82337e-08
1.78728e-08
1.76085e-08
1.74769e-08
1.73331e-08
1.70937e-08
1.6761e-08
1.64203e-08
1.61762e-08
1.60165e-08
1.58859e-08
1.57583e-08
1.56621e-08
1.55531e-08
1.54269e-08
1.52893e-08
1.50898e-08
1.49536e-08
1.48822e-08
1.486e-08
1.4912e-08
1.49065e-08
1.474e-08
1.46204e-08
1.45913e-08
1.46047e-08
1.46539e-08
1.46572e-08
1.46109e-08
1.45588e-08
1.45218e-08
1.45257e-08
1.45461e-08
1.45459e-08
1.45312e-08
1.44933e-08
1.44512e-08
1.4454e-08
1.45012e-08
1.45518e-08
1.45652e-08
1.44812e-08
1.44142e-08
1.43977e-08
1.43914e-08
1.44009e-08
1.44327e-08
1.4449e-08
1.44304e-08
1.43756e-08
1.43218e-08
1.42894e-08
1.42619e-08
1.42311e-08
1.42164e-08
1.42327e-08
1.42297e-08
1.41674e-08
1.40891e-08
1.4044e-08
1.40132e-08
1.39765e-08
1.39481e-08
1.39261e-08
1.38847e-08
1.38236e-08
1.37575e-08
1.37006e-08
1.36481e-08
1.35979e-08
1.35561e-08
1.35038e-08
1.34382e-08
1.33681e-08
1.32987e-08
1.32326e-08
1.31784e-08
1.31206e-08
1.30471e-08
1.29695e-08
1.28931e-08
1.28245e-08
1.27545e-08
1.26808e-08
1.26067e-08
1.25378e-08
1.24796e-08
1.24272e-08
1.23707e-08
1.23081e-08
1.22511e-08
1.22035e-08
1.21601e-08
1.21196e-08
1.20819e-08
1.20487e-08
1.20207e-08
1.19972e-08
1.19777e-08
1.19603e-08
1.19466e-08
1.19405e-08
1.19399e-08
1.19405e-08
1.19415e-08
1.19463e-08
1.19581e-08
1.19761e-08
1.19972e-08
1.20142e-08
1.20245e-08
1.20333e-08
1.20462e-08
1.20608e-08
1.20739e-08
1.20833e-08
1.20887e-08
1.20911e-08
1.20927e-08
1.20945e-08
1.2092e-08
1.20844e-08
1.20733e-08
1.20616e-08
1.20507e-08
1.20397e-08
1.20258e-08
1.20075e-08
1.19879e-08
1.1969e-08
1.195e-08
1.193e-08
1.19095e-08
1.18882e-08
1.18656e-08
1.1843e-08
1.18209e-08
1.17989e-08
1.1777e-08
1.17564e-08
1.1736e-08
1.17138e-08
1.16896e-08
1.16645e-08
1.16417e-08
1.16212e-08
1.16001e-08
1.15762e-08
1.1551e-08
1.15273e-08
1.15054e-08
1.14843e-08
1.14633e-08
1.14429e-08
1.14236e-08
1.14022e-08
1.13779e-08
1.1354e-08
1.13323e-08
1.13117e-08
1.12914e-08
1.12713e-08
1.12501e-08
1.12281e-08
1.12071e-08
1.11877e-08
1.11682e-08
1.11475e-08
1.11263e-08
1.11062e-08
1.10866e-08
1.1068e-08
1.10506e-08
1.10333e-08
1.10148e-08
1.09952e-08
1.09754e-08
1.09569e-08
1.09392e-08
1.09221e-08
1.09042e-08
1.08847e-08
1.0864e-08
1.08448e-08
1.08273e-08
1.08107e-08
1.07944e-08
1.07769e-08
1.0757e-08
1.07375e-08
1.07235e-08
1.07148e-08
1.07073e-08
1.06989e-08
1.06762e-08
1.06452e-08
1.06486e-08
1.07055e-08
1.07708e-08
1.08347e-08
1.08426e-08
1.09477e-08
1.09465e-08
1.08721e-08
1.07214e-08
1.0615e-08
1.06072e-08
1.05903e-08
1.0603e-08
1.06025e-08
1.05996e-08
1.05859e-08
1.05629e-08
1.05181e-08
1.05258e-08
1.06597e-08
1.08497e-08
1.10285e-08
1.09793e-08
1.10365e-08
1.09641e-08
1.08705e-08
1.07561e-08
1.06843e-08
1.06566e-08
1.06151e-08
1.05598e-08
1.04915e-08
1.04703e-08
1.04766e-08
1.05114e-08
1.05388e-08
1.05639e-08
1.05325e-08
1.05966e-08
1.06591e-08
1.08792e-08
1.15418e-08
1.16867e-08
1.18516e-08
1.17664e-08
1.1575e-08
1.14109e-08
1.13567e-08
1.14433e-08
1.15464e-08
1.1563e-08
1.15075e-08
1.14272e-08
1.13363e-08
1.12331e-08
1.11261e-08
1.1035e-08
1.09769e-08
1.09553e-08
1.09615e-08
1.0986e-08
1.10233e-08
1.10693e-08
1.11224e-08
1.11776e-08
1.12289e-08
1.12759e-08
1.13247e-08
1.13748e-08
1.1418e-08
1.14536e-08
1.149e-08
1.15338e-08
1.1581e-08
1.16224e-08
1.1655e-08
1.16818e-08
1.17073e-08
1.17326e-08
1.17594e-08
1.17922e-08
1.1827e-08
1.18525e-08
1.18623e-08
1.18599e-08
1.18554e-08
1.1857e-08
1.18668e-08
1.18818e-08
1.18987e-08
1.19125e-08
1.19245e-08
1.19361e-08
1.19434e-08
1.19475e-08
1.19568e-08
1.1976e-08
1.20013e-08
1.20252e-08
1.20418e-08
1.2049e-08
1.20491e-08
1.20463e-08
1.20439e-08
1.20436e-08
1.20459e-08
1.20497e-08
1.2053e-08
1.20543e-08
1.20536e-08
1.2053e-08
1.20548e-08
1.20588e-08
1.20626e-08
1.20628e-08
1.20608e-08
1.20588e-08
1.20611e-08
1.20636e-08
1.20632e-08
1.2067e-08
1.2067e-08
1.20591e-08
1.20331e-08
1.20084e-08
1.20058e-08
1.20747e-08
1.2159e-08
1.21686e-08
1.11025e-08
1.14174e-08
1.18006e-08
1.21155e-08
1.21597e-08
1.19913e-08
1.17883e-08
1.16874e-08
1.17755e-08
1.20947e-08
1.27115e-08
1.37477e-08
1.53387e-08
1.75227e-08
2.01376e-08
2.2849e-08
2.54214e-08
2.86839e-08
3.53177e-08
4.61515e-08
6.20133e-08
8.59189e-08
1.21042e-07
1.69075e-07
2.29143e-07
3.00293e-07
3.78935e-07
4.60732e-07
5.42517e-07
6.20646e-07
7.19841e-07
7.75865e-07
7.55973e-07
7.24334e-07
6.7973e-07
6.30289e-07
5.60083e-07
4.55818e-07
3.4854e-07
2.88172e-07
2.49714e-07
2.13769e-07
1.59732e-07
1.18089e-07
9.08935e-08
7.57989e-08
6.7996e-08
6.28977e-08
5.81724e-08
5.31448e-08
4.85655e-08
4.53072e-08
4.35134e-08
4.26233e-08
4.13708e-08
3.8959e-08
3.62404e-08
3.33563e-08
3.03476e-08
2.77649e-08
2.59045e-08
2.50437e-08
2.55526e-08
2.731e-08
2.96983e-08
3.17403e-08
3.37587e-08
3.62972e-08
3.93315e-08
4.1403e-08
4.03071e-08
3.73573e-08
3.37974e-08
3.07741e-08
2.97569e-08
3.15809e-08
3.75973e-08
5.25464e-08
7.17437e-08
8.47497e-08
9.88113e-08
1.07963e-07
1.17838e-07
1.33604e-07
1.55142e-07
1.93185e-07
2.43823e-07
2.84201e-07
3.03521e-07
3.03907e-07
2.72097e-07
2.29565e-07
1.90832e-07
1.50273e-07
1.11337e-07
8.21826e-08
6.08456e-08
5.14448e-08
5.37674e-08
6.70017e-08
8.44057e-08
1.00172e-07
1.07762e-07
1.06899e-07
9.32788e-08
7.09608e-08
5.11816e-08
3.81009e-08
2.85352e-08
2.31041e-08
1.99095e-08
1.75813e-08
1.58485e-08
1.3991e-08
1.33372e-08
1.32579e-08
1.50742e-08
1.76929e-08
1.82368e-08
1.79864e-08
1.72402e-08
1.61342e-08
1.49116e-08
1.40877e-08
1.345e-08
1.29085e-08
1.25334e-08
1.2317e-08
1.20802e-08
1.19836e-08
1.18901e-08
1.18413e-08
1.17693e-08
1.17717e-08
1.18165e-08
1.18797e-08
1.19271e-08
1.19577e-08
1.19915e-08
1.20169e-08
1.20535e-08
1.21026e-08
1.21543e-08
1.22001e-08
1.22389e-08
1.22692e-08
1.23063e-08
1.23531e-08
1.24041e-08
1.24579e-08
1.25092e-08
1.25555e-08
1.26034e-08
1.26565e-08
1.27163e-08
1.27773e-08
1.2837e-08
1.28977e-08
1.29567e-08
1.30101e-08
1.30611e-08
1.31175e-08
1.31769e-08
1.32284e-08
1.32715e-08
1.33212e-08
1.33804e-08
1.34278e-08
1.34521e-08
1.3476e-08
1.35185e-08
1.35682e-08
1.3596e-08
1.35895e-08
1.35664e-08
1.35525e-08
1.35612e-08
1.35782e-08
1.35767e-08
1.35471e-08
1.34867e-08
1.34005e-08
1.33126e-08
1.3239e-08
1.31874e-08
1.31468e-08
1.30851e-08
1.29921e-08
1.28852e-08
1.27921e-08
1.27181e-08
1.26516e-08
1.25774e-08
1.24835e-08
1.23747e-08
1.22685e-08
1.21836e-08
1.21191e-08
1.20554e-08
1.19732e-08
1.18707e-08
1.17703e-08
1.16879e-08
1.16173e-08
1.15466e-08
1.14692e-08
1.1388e-08
1.13155e-08
1.1259e-08
1.12068e-08
1.11351e-08
1.10569e-08
1.09887e-08
1.09335e-08
1.08935e-08
1.08582e-08
1.08156e-08
1.07611e-08
1.07059e-08
1.06596e-08
1.06233e-08
1.0597e-08
1.05729e-08
1.05451e-08
1.05122e-08
1.04789e-08
1.04505e-08
1.04285e-08
1.04141e-08
1.04005e-08
1.03831e-08
1.03623e-08
1.03427e-08
1.0328e-08
1.03178e-08
1.03105e-08
1.03041e-08
1.02981e-08
1.02912e-08
1.02835e-08
1.02765e-08
1.02692e-08
1.02641e-08
1.0261e-08
1.02599e-08
1.02606e-08
1.02597e-08
1.02546e-08
1.02509e-08
1.02499e-08
1.02506e-08
1.0252e-08
1.02521e-08
1.02506e-08
1.02494e-08
1.02489e-08
1.02497e-08
1.02508e-08
1.02502e-08
1.02492e-08
1.0248e-08
1.0247e-08
1.02475e-08
1.02497e-08
1.02517e-08
1.02522e-08
1.02494e-08
1.02468e-08
1.0246e-08
1.0246e-08
1.02468e-08
1.02481e-08
1.02488e-08
1.02483e-08
1.0247e-08
1.02453e-08
1.02441e-08
1.0243e-08
1.0242e-08
1.0242e-08
1.02432e-08
1.02434e-08
1.02414e-08
1.02386e-08
1.0237e-08
1.02362e-08
1.02353e-08
1.02345e-08
1.0234e-08
1.02328e-08
1.02308e-08
1.02287e-08
1.0227e-08
1.02253e-08
1.02236e-08
1.02222e-08
1.02206e-08
1.02188e-08
1.02165e-08
1.02138e-08
1.02111e-08
1.0209e-08
1.0207e-08
1.02044e-08
1.02012e-08
1.01978e-08
1.01948e-08
1.0192e-08
1.0189e-08
1.01857e-08
1.01825e-08
1.01799e-08
1.01775e-08
1.01749e-08
1.01718e-08
1.01688e-08
1.01664e-08
1.01643e-08
1.01624e-08
1.01606e-08
1.0159e-08
1.01576e-08
1.01563e-08
1.01554e-08
1.01547e-08
1.01543e-08
1.01543e-08
1.01544e-08
1.01545e-08
1.01547e-08
1.01553e-08
1.01564e-08
1.01577e-08
1.01589e-08
1.01597e-08
1.01602e-08
1.01606e-08
1.01613e-08
1.0162e-08
1.01625e-08
1.01629e-08
1.01631e-08
1.01631e-08
1.01632e-08
1.01632e-08
1.01629e-08
1.01622e-08
1.01615e-08
1.01608e-08
1.01602e-08
1.01596e-08
1.01588e-08
1.01578e-08
1.01568e-08
1.01558e-08
1.01548e-08
1.01538e-08
1.01528e-08
1.01518e-08
1.01506e-08
1.01495e-08
1.01484e-08
1.01474e-08
1.01464e-08
1.01454e-08
1.01443e-08
1.01432e-08
1.01421e-08
1.01409e-08
1.01397e-08
1.01385e-08
1.01373e-08
1.0136e-08
1.01343e-08
1.01325e-08
1.01311e-08
1.01297e-08
1.01284e-08
1.01271e-08
1.01257e-08
1.01244e-08
1.01231e-08
1.01217e-08
1.01204e-08
1.01192e-08
1.01181e-08
1.01169e-08
1.01157e-08
1.01145e-08
1.01134e-08
1.01123e-08
1.01112e-08
1.01101e-08
1.0109e-08
1.01079e-08
1.01069e-08
1.0106e-08
1.0105e-08
1.01042e-08
1.01032e-08
1.01021e-08
1.01009e-08
1.00999e-08
1.00989e-08
1.0098e-08
1.00969e-08
1.00957e-08
1.00944e-08
1.00931e-08
1.00918e-08
1.00908e-08
1.009e-08
1.00892e-08
1.00884e-08
1.00877e-08
1.0087e-08
1.0086e-08
1.00847e-08
1.00848e-08
1.00852e-08
1.00866e-08
1.00872e-08
1.00861e-08
1.00869e-08
1.00866e-08
1.00844e-08
1.00824e-08
1.00809e-08
1.00806e-08
1.008e-08
1.00795e-08
1.00786e-08
1.00771e-08
1.00751e-08
1.00734e-08
1.0073e-08
1.00725e-08
1.00733e-08
1.00758e-08
1.00783e-08
1.00782e-08
1.00817e-08
1.00814e-08
1.00776e-08
1.0072e-08
1.00681e-08
1.00667e-08
1.00658e-08
1.00659e-08
1.00659e-08
1.00653e-08
1.0065e-08
1.00647e-08
1.00647e-08
1.00651e-08
1.00654e-08
1.00668e-08
1.00682e-08
1.00721e-08
1.00861e-08
1.00988e-08
1.01126e-08
1.01317e-08
1.01387e-08
1.0135e-08
1.01277e-08
1.01227e-08
1.01195e-08
1.01179e-08
1.01197e-08
1.0124e-08
1.01277e-08
1.01281e-08
1.01245e-08
1.01174e-08
1.01083e-08
1.00988e-08
1.00903e-08
1.00837e-08
1.00791e-08
1.00763e-08
1.00748e-08
1.00743e-08
1.00746e-08
1.00755e-08
1.00768e-08
1.00782e-08
1.00797e-08
1.00815e-08
1.00835e-08
1.00854e-08
1.00872e-08
1.0089e-08
1.00912e-08
1.00936e-08
1.00958e-08
1.00977e-08
1.00994e-08
1.01009e-08
1.01024e-08
1.0104e-08
1.01059e-08
1.01078e-08
1.01091e-08
1.01098e-08
1.01098e-08
1.01098e-08
1.011e-08
1.01106e-08
1.01115e-08
1.01124e-08
1.01133e-08
1.01141e-08
1.0115e-08
1.01157e-08
1.01162e-08
1.0117e-08
1.01182e-08
1.01196e-08
1.01209e-08
1.01219e-08
1.01224e-08
1.01226e-08
1.01226e-08
1.01226e-08
1.01228e-08
1.0123e-08
1.01233e-08
1.01236e-08
1.01238e-08
1.01238e-08
1.01239e-08
1.01242e-08
1.01246e-08
1.0125e-08
1.01251e-08
1.01252e-08
1.01253e-08
1.01255e-08
1.01257e-08
1.01257e-08
1.01259e-08
1.0126e-08
1.01256e-08
1.01244e-08
1.01233e-08
1.01237e-08
1.01256e-08
1.01306e-08
1.01332e-08
1.06018e-08
1.07784e-08
1.09725e-08
1.10935e-08
1.11108e-08
1.1068e-08
1.10219e-08
1.10583e-08
1.12403e-08
1.16441e-08
1.24141e-08
1.37814e-08
1.60838e-08
1.94662e-08
2.40258e-08
2.97448e-08
3.64808e-08
4.43667e-08
5.38497e-08
6.69756e-08
8.45962e-08
1.06619e-07
1.32501e-07
1.61293e-07
1.91152e-07
2.1742e-07
2.37616e-07
2.53308e-07
2.71095e-07
3.0987e-07
3.7024e-07
4.42861e-07
4.91191e-07
4.81842e-07
4.25666e-07
3.58759e-07
2.90443e-07
2.27622e-07
1.78686e-07
1.4982e-07
1.25837e-07
9.59708e-08
6.77459e-08
5.15464e-08
4.11605e-08
3.47257e-08
3.09468e-08
2.86214e-08
2.6718e-08
2.49563e-08
2.34562e-08
2.23368e-08
2.16286e-08
2.1261e-08
2.09607e-08
2.04788e-08
1.97562e-08
1.87956e-08
1.77119e-08
1.66832e-08
1.58723e-08
1.54163e-08
1.53088e-08
1.53827e-08
1.55231e-08
1.57483e-08
1.61714e-08
1.69388e-08
1.80797e-08
1.93116e-08
2.00554e-08
1.98525e-08
1.8927e-08
1.81485e-08
1.78233e-08
1.81283e-08
1.93409e-08
2.22328e-08
2.72642e-08
3.28264e-08
3.98469e-08
4.76007e-08
5.44768e-08
6.44433e-08
7.62051e-08
9.27468e-08
1.17724e-07
1.4868e-07
1.82134e-07
2.14837e-07
2.30319e-07
2.22425e-07
2.0517e-07
1.68564e-07
1.32973e-07
1.07454e-07
8.28715e-08
6.16211e-08
4.70008e-08
4.03975e-08
4.00342e-08
4.33464e-08
4.77193e-08
5.07525e-08
4.99351e-08
4.46839e-08
3.77045e-08
3.14678e-08
2.59129e-08
2.1355e-08
1.82742e-08
1.64498e-08
1.52473e-08
1.4293e-08
1.34347e-08
1.27731e-08
1.20731e-08
1.17713e-08
1.14192e-08
1.15033e-08
1.1572e-08
1.1493e-08
1.13437e-08
1.1227e-08
1.10834e-08
1.09208e-08
1.08275e-08
1.07395e-08
1.06297e-08
1.05474e-08
1.04865e-08
1.04389e-08
1.04058e-08
1.03838e-08
1.03709e-08
1.03647e-08
1.03629e-08
1.03663e-08
1.03703e-08
1.03758e-08
1.03824e-08
1.03892e-08
1.03965e-08
1.04037e-08
1.04102e-08
1.04167e-08
1.04242e-08
1.04333e-08
1.04439e-08
1.04539e-08
1.04623e-08
1.04704e-08
1.04799e-08
1.04915e-08
1.05036e-08
1.05142e-08
1.05242e-08
1.05351e-08
1.05469e-08
1.05588e-08
1.05702e-08
1.05813e-08
1.05917e-08
1.06005e-08
1.06088e-08
1.06191e-08
1.06309e-08
1.06398e-08
1.06442e-08
1.06483e-08
1.06552e-08
1.06631e-08
1.0667e-08
1.0665e-08
1.06594e-08
1.0654e-08
1.06519e-08
1.06512e-08
1.06474e-08
1.06385e-08
1.06236e-08
1.0604e-08
1.05837e-08
1.05655e-08
1.05509e-08
1.05383e-08
1.05234e-08
1.05041e-08
1.04821e-08
1.04609e-08
1.04425e-08
1.04263e-08
1.04109e-08
1.03938e-08
1.03745e-08
1.03551e-08
1.03385e-08
1.03248e-08
1.03123e-08
1.02984e-08
1.02826e-08
1.02673e-08
1.0254e-08
1.02423e-08
1.02307e-08
1.02192e-08
1.02082e-08
1.01984e-08
1.01899e-08
1.01817e-08
1.01724e-08
1.01631e-08
1.01548e-08
1.01479e-08
1.01423e-08
1.01373e-08
1.01321e-08
1.01264e-08
1.01207e-08
1.01158e-08
1.01117e-08
1.01083e-08
1.01053e-08
1.01024e-08
1.00994e-08
1.00965e-08
1.00938e-08
1.00916e-08
1.00898e-08
1.00882e-08
1.00866e-08
1.00848e-08
1.00832e-08
1.00819e-08
1.00809e-08
1.00801e-08
1.00794e-08
1.00786e-08
1.00778e-08
1.00771e-08
1.00765e-08
1.00759e-08
1.00755e-08
1.00751e-08
1.00748e-08
1.00746e-08
1.00743e-08
1.0074e-08
1.00738e-08
1.00737e-08
1.00736e-08
1.00735e-08
1.00734e-08
1.00732e-08
1.00731e-08
1.0073e-08
1.0073e-08
1.0073e-08
1.00729e-08
1.00727e-08
1.00726e-08
1.00725e-08
1.00724e-08
1.00725e-08
1.00726e-08
1.00726e-08
1.00724e-08
1.00723e-08
1.00722e-08
1.00722e-08
1.00722e-08
1.00722e-08
1.00722e-08
1.00721e-08
1.00721e-08
1.0072e-08
1.00719e-08
1.00718e-08
1.00717e-08
1.00717e-08
1.00718e-08
1.00718e-08
1.00716e-08
1.00715e-08
1.00714e-08
1.00714e-08
1.00713e-08
1.00712e-08
1.00712e-08
1.00711e-08
1.0071e-08
1.00709e-08
1.00708e-08
1.00706e-08
1.00704e-08
1.00703e-08
1.00702e-08
1.00701e-08
1.00699e-08
1.00696e-08
1.00694e-08
1.00692e-08
1.0069e-08
1.00687e-08
1.00684e-08
1.00681e-08
1.00678e-08
1.00675e-08
1.00672e-08
1.00668e-08
1.00665e-08
1.00662e-08
1.00659e-08
1.00656e-08
1.00652e-08
1.00648e-08
1.00645e-08
1.00642e-08
1.00639e-08
1.00637e-08
1.00634e-08
1.00631e-08
1.00628e-08
1.00626e-08
1.00624e-08
1.00622e-08
1.00621e-08
1.00619e-08
1.00617e-08
1.00615e-08
1.00614e-08
1.00612e-08
1.00611e-08
1.0061e-08
1.00609e-08
1.00607e-08
1.00605e-08
1.00603e-08
1.00602e-08
1.006e-08
1.00598e-08
1.00597e-08
1.00595e-08
1.00594e-08
1.00593e-08
1.00593e-08
1.00591e-08
1.0059e-08
1.00589e-08
1.00587e-08
1.00586e-08
1.00584e-08
1.00582e-08
1.00581e-08
1.00579e-08
1.00577e-08
1.00576e-08
1.00574e-08
1.00573e-08
1.00571e-08
1.0057e-08
1.00569e-08
1.00567e-08
1.00566e-08
1.00565e-08
1.00563e-08
1.00562e-08
1.00561e-08
1.00559e-08
1.00558e-08
1.00557e-08
1.00556e-08
1.00554e-08
1.00553e-08
1.00551e-08
1.0055e-08
1.00548e-08
1.00547e-08
1.00545e-08
1.00544e-08
1.00542e-08
1.00541e-08
1.00539e-08
1.00537e-08
1.00536e-08
1.00534e-08
1.00532e-08
1.0053e-08
1.00528e-08
1.00525e-08
1.00523e-08
1.00521e-08
1.00518e-08
1.00516e-08
1.00515e-08
1.00514e-08
1.00513e-08
1.00511e-08
1.0051e-08
1.00509e-08
1.00508e-08
1.00507e-08
1.00506e-08
1.00504e-08
1.00503e-08
1.00501e-08
1.00499e-08
1.00498e-08
1.00498e-08
1.00497e-08
1.00497e-08
1.00497e-08
1.00497e-08
1.00497e-08
1.00497e-08
1.005e-08
1.00505e-08
1.00509e-08
1.00514e-08
1.00518e-08
1.00529e-08
1.00532e-08
1.00523e-08
1.00513e-08
1.00505e-08
1.005e-08
1.00494e-08
1.0049e-08
1.00486e-08
1.00482e-08
1.00483e-08
1.00485e-08
1.00487e-08
1.00494e-08
1.00502e-08
1.00508e-08
1.00514e-08
1.00522e-08
1.00535e-08
1.00546e-08
1.0054e-08
1.00525e-08
1.00508e-08
1.00498e-08
1.00488e-08
1.00481e-08
1.00475e-08
1.0047e-08
1.00468e-08
1.00469e-08
1.00472e-08
1.00473e-08
1.0048e-08
1.00492e-08
1.00506e-08
1.00525e-08
1.00564e-08
1.00643e-08
1.00748e-08
1.00872e-08
1.00957e-08
1.00982e-08
1.00962e-08
1.00916e-08
1.00856e-08
1.00787e-08
1.0072e-08
1.00662e-08
1.00617e-08
1.00583e-08
1.0056e-08
1.00545e-08
1.00534e-08
1.00525e-08
1.00517e-08
1.00508e-08
1.00499e-08
1.0049e-08
1.00481e-08
1.00472e-08
1.00465e-08
1.00459e-08
1.00453e-08
1.00448e-08
1.00444e-08
1.00441e-08
1.00439e-08
1.00437e-08
1.00436e-08
1.00435e-08
1.00435e-08
1.00435e-08
1.00435e-08
1.00436e-08
1.00437e-08
1.00438e-08
1.00439e-08
1.00441e-08
1.00442e-08
1.00444e-08
1.00445e-08
1.00446e-08
1.00448e-08
1.00448e-08
1.00449e-08
1.00449e-08
1.00449e-08
1.00449e-08
1.00449e-08
1.0045e-08
1.00451e-08
1.00452e-08
1.00453e-08
1.00454e-08
1.00455e-08
1.00455e-08
1.00456e-08
1.00456e-08
1.00457e-08
1.00457e-08
1.00457e-08
1.00457e-08
1.00457e-08
1.00456e-08
1.00456e-08
1.00456e-08
1.00456e-08
1.00456e-08
1.00455e-08
1.00454e-08
1.00453e-08
1.00453e-08
1.00452e-08
1.00452e-08
1.00452e-08
1.00452e-08
1.00452e-08
1.00452e-08
1.00452e-08
1.00452e-08
1.00451e-08
1.0045e-08
1.0045e-08
1.00449e-08
1.00448e-08
1.00449e-08
1.00452e-08
1.00459e-08
1.00475e-08
1.00486e-08
1.03684e-08
1.04704e-08
1.05822e-08
1.06572e-08
1.06901e-08
1.06884e-08
1.06932e-08
1.07543e-08
1.09159e-08
1.12478e-08
1.18888e-08
1.30698e-08
1.50563e-08
1.80828e-08
2.23964e-08
2.81172e-08
3.50063e-08
4.28108e-08
5.13089e-08
6.04403e-08
7.01729e-08
8.03011e-08
9.04713e-08
9.96482e-08
1.06983e-07
1.12748e-07
1.19182e-07
1.31186e-07
1.53709e-07
1.80342e-07
1.99162e-07
2.05091e-07
1.89005e-07
1.60464e-07
1.32207e-07
1.11351e-07
9.69088e-08
8.62264e-08
7.57528e-08
6.36719e-08
5.03823e-08
3.8393e-08
3.0875e-08
2.55802e-08
2.19405e-08
1.95117e-08
1.79442e-08
1.69225e-08
1.61865e-08
1.56009e-08
1.51329e-08
1.47805e-08
1.45346e-08
1.43794e-08
1.42662e-08
1.41274e-08
1.39239e-08
1.36431e-08
1.32984e-08
1.29243e-08
1.25932e-08
1.23567e-08
1.2209e-08
1.21282e-08
1.21004e-08
1.21301e-08
1.22383e-08
1.24596e-08
1.28167e-08
1.32603e-08
1.36497e-08
1.38484e-08
1.38202e-08
1.36413e-08
1.35025e-08
1.34996e-08
1.37446e-08
1.43831e-08
1.55898e-08
1.72167e-08
1.9281e-08
2.18419e-08
2.50322e-08
3.00393e-08
3.73012e-08
4.59462e-08
5.88332e-08
7.7419e-08
9.80742e-08
1.209e-07
1.41464e-07
1.52281e-07
1.56563e-07
1.46611e-07
1.2706e-07
1.06144e-07
8.21242e-08
6.43496e-08
5.0306e-08
3.91698e-08
3.19033e-08
2.81376e-08
2.67668e-08
2.6364e-08
2.60011e-08
2.53067e-08
2.38298e-08
2.19844e-08
2.00616e-08
1.81908e-08
1.66253e-08
1.53947e-08
1.43979e-08
1.37686e-08
1.3369e-08
1.30016e-08
1.25931e-08
1.21532e-08
1.17935e-08
1.14146e-08
1.11084e-08
1.07741e-08
1.06458e-08
1.05446e-08
1.04686e-08
1.04192e-08
1.03903e-08
1.0366e-08
1.03516e-08
1.03562e-08
1.03403e-08
1.0304e-08
1.02712e-08
1.02386e-08
1.0205e-08
1.01955e-08
1.01825e-08
1.01705e-08
1.0162e-08
1.01555e-08
1.0151e-08
1.01485e-08
1.01472e-08
1.01466e-08
1.01466e-08
1.01471e-08
1.01481e-08
1.01495e-08
1.01512e-08
1.01528e-08
1.01544e-08
1.01562e-08
1.01582e-08
1.01606e-08
1.0163e-08
1.01653e-08
1.01675e-08
1.01699e-08
1.01725e-08
1.01751e-08
1.01777e-08
1.01801e-08
1.01822e-08
1.0184e-08
1.01858e-08
1.01879e-08
1.01901e-08
1.01918e-08
1.01928e-08
1.01934e-08
1.01943e-08
1.01954e-08
1.01958e-08
1.01953e-08
1.01939e-08
1.01923e-08
1.0191e-08
1.019e-08
1.01885e-08
1.01861e-08
1.01826e-08
1.01783e-08
1.01738e-08
1.01696e-08
1.01658e-08
1.01624e-08
1.01588e-08
1.01547e-08
1.01503e-08
1.01457e-08
1.01415e-08
1.01377e-08
1.01342e-08
1.01307e-08
1.01271e-08
1.01235e-08
1.01201e-08
1.01171e-08
1.01144e-08
1.01118e-08
1.01091e-08
1.01063e-08
1.01038e-08
1.01015e-08
1.00993e-08
1.00973e-08
1.00954e-08
1.00936e-08
1.00919e-08
1.00902e-08
1.00886e-08
1.00871e-08
1.00856e-08
1.00843e-08
1.00831e-08
1.0082e-08
1.00809e-08
1.00799e-08
1.00789e-08
1.00779e-08
1.0077e-08
1.00762e-08
1.00754e-08
1.00747e-08
1.0074e-08
1.00734e-08
1.00727e-08
1.00721e-08
1.00716e-08
1.0071e-08
1.00705e-08
1.007e-08
1.00696e-08
1.00692e-08
1.00688e-08
1.00684e-08
1.00681e-08
1.00677e-08
1.00674e-08
1.00671e-08
1.00669e-08
1.00666e-08
1.00663e-08
1.00661e-08
1.00659e-08
1.00657e-08
1.00655e-08
1.00654e-08
1.00652e-08
1.0065e-08
1.00649e-08