/*--------------------------------*- C++ -*----------------------------------*\
| =========                 |                                                 |
| \\      /  F ield         | OpenFOAM: The Open Source CFD Toolbox           |
|  \\    /   O peration     | Version:  v2006                                 |
|   \\  /    A nd           | Website:  www.openfoam.com                      |
|    \\/     M anipulation  |                                                 |
\*---------------------------------------------------------------------------*/
FoamFile
{
    version     2.0;
    format      ascii;
    class       volScalarField;
    location    "8";
    object      nut;
}
// * * * * * * * * * * * * * * * * * * * * * * * * * * * * * * * * * * * * * //

dimensions      [0 2 -1 0 0 0 0];


internalField   nonuniform List<scalar> 
33000
(
9.03337e-10
8.67836e-10
9.80389e-10
9.849e-10
9.59047e-10
8.93458e-10
8.22904e-10
7.92871e-10
8.57443e-10
1.01104e-09
1.14787e-09
1.28608e-09
1.49311e-09
1.81285e-09
2.46515e-09
4.59061e-09
4.27822e-08
8.2088e-09
6.03982e-09
5.99251e-09
6.74241e-09
8.31525e-09
9.97563e-09
1.16814e-08
1.41329e-08
1.77425e-08
2.29462e-08
3.04133e-08
4.38051e-08
7.33118e-08
1.53232e-07
1.27045e-07
6.34629e-08
5.08311e-08
4.64315e-08
4.67291e-08
5.40311e-08
6.78371e-08
8.32554e-08
9.24164e-08
9.23879e-08
9.00174e-08
8.94516e-08
9.01222e-08
9.55468e-08
1.05528e-07
1.14238e-07
1.15258e-07
1.11518e-07
1.06531e-07
1.07536e-07
1.16822e-07
1.30812e-07
1.43356e-07
1.45874e-07
1.43093e-07
1.41565e-07
1.44302e-07
1.50205e-07
1.55974e-07
1.62975e-07
1.82437e-07
2.36542e-07
3.56552e-07
5.3406e-07
6.37734e-07
6.94707e-07
8.69925e-07
9.92358e-07
9.71302e-07
9.38251e-07
8.94774e-07
6.50393e-07
4.73029e-07
3.9929e-07
2.80214e-07
2.71171e-07
2.79415e-07
2.02483e-07
2.105e-07
2.25221e-07
1.75951e-07
1.89017e-07
1.6889e-07
1.74333e-07
1.83783e-07
2.02458e-07
2.46809e-07
2.79741e-07
3.13295e-07
4.02332e-07
4.70946e-07
5.73194e-07
6.63315e-07
6.40983e-07
6.05686e-07
3.98191e-07
3.09235e-07
1.79231e-07
1.15294e-07
9.28185e-08
9.41205e-08
1.34285e-07
1.36742e-07
1.0145e-07
8.71573e-08
8.63673e-08
8.46361e-08
8.4936e-08
9.39814e-08
9.80186e-08
9.47801e-08
9.43851e-08
9.40071e-08
9.31483e-08
9.26604e-08
8.87288e-08
8.3751e-08
8.04096e-08
8.01338e-08
8.22175e-08
8.28101e-08
8.10996e-08
8.07365e-08
8.25078e-08
8.43274e-08
8.67237e-08
8.81034e-08
8.83452e-08
8.8953e-08
8.9883e-08
9.10678e-08
9.30658e-08
9.44144e-08
9.5181e-08
9.58005e-08
9.72848e-08
9.92822e-08
1.01196e-07
1.03258e-07
1.0521e-07
1.07574e-07
1.10266e-07
1.13638e-07
1.16607e-07
1.19162e-07
1.21958e-07
1.25071e-07
1.29228e-07
1.34336e-07
1.39385e-07
1.43217e-07
1.472e-07
1.53265e-07
1.60853e-07
1.68793e-07
1.77259e-07
1.86266e-07
1.96417e-07
2.08428e-07
2.22604e-07
2.38954e-07
2.59451e-07
2.83166e-07
3.08656e-07
3.40483e-07
3.85726e-07
3.88526e-07
3.86571e-07
3.84388e-07
3.82298e-07
3.80463e-07
3.78732e-07
3.76792e-07
3.74823e-07
3.73097e-07
3.71681e-07
3.7061e-07
3.69738e-07
3.6883e-07
3.31232e-07
2.97881e-07
2.69052e-07
2.44543e-07
2.24786e-07
2.08424e-07
1.95333e-07
1.83926e-07
1.73063e-07
1.6305e-07
1.54357e-07
1.4703e-07
1.40565e-07
1.34624e-07
1.28973e-07
1.23614e-07
1.186e-07
1.14077e-07
1.10171e-07
1.06723e-07
1.03392e-07
1.00028e-07
9.68043e-08
9.38853e-08
9.1242e-08
8.8848e-08
8.65545e-08
8.42892e-08
8.21247e-08
8.03258e-08
7.87508e-08
7.70914e-08
7.548e-08
7.39736e-08
7.26058e-08
7.14899e-08
7.05738e-08
6.96824e-08
6.87534e-08
6.78678e-08
6.70529e-08
6.63473e-08
6.58156e-08
6.53864e-08
6.4971e-08
6.45305e-08
6.40991e-08
6.36884e-08
6.33556e-08
6.31488e-08
6.30055e-08
6.2857e-08
6.26602e-08
6.24513e-08
6.22913e-08
6.21918e-08
6.21235e-08
6.20813e-08
6.20759e-08
6.20816e-08
6.21218e-08
6.21489e-08
6.21352e-08
6.21523e-08
6.21857e-08
6.22717e-08
6.24722e-08
6.26555e-08
6.27359e-08
6.28315e-08
6.29728e-08
6.31789e-08
6.34492e-08
6.37213e-08
6.39761e-08
6.4228e-08
6.4501e-08
6.48339e-08
6.52097e-08
6.56112e-08
6.60293e-08
6.64307e-08
6.68328e-08
6.73033e-08
6.78597e-08
6.85391e-08
6.92256e-08
6.98039e-08
7.04217e-08
7.11179e-08
7.1865e-08
7.26966e-08
7.36443e-08
7.46746e-08
7.5729e-08
7.67725e-08
7.78853e-08
7.91e-08
8.03847e-08
8.17082e-08
8.31771e-08
8.49144e-08
8.67805e-08
8.85908e-08
9.04552e-08
9.25522e-08
9.48334e-08
9.72547e-08
9.99288e-08
1.02917e-07
1.06118e-07
1.09486e-07
1.1308e-07
1.17007e-07
1.21193e-07
1.25844e-07
1.31226e-07
1.37254e-07
1.43947e-07
1.51495e-07
1.5998e-07
1.65726e-07
1.62048e-07
1.58356e-07
1.54635e-07
1.5092e-07
1.47263e-07
1.4372e-07
1.40324e-07
1.37095e-07
1.3405e-07
1.31211e-07
1.2859e-07
1.26172e-07
1.23933e-07
1.21868e-07
1.19991e-07
1.18304e-07
1.16806e-07
1.15502e-07
1.14393e-07
1.1348e-07
1.1275e-07
1.12196e-07
1.11805e-07
1.11565e-07
1.11469e-07
1.11505e-07
1.11656e-07
1.11902e-07
1.12229e-07
1.12629e-07
1.08586e-07
1.04076e-07
9.99602e-08
9.62731e-08
9.29863e-08
8.99881e-08
8.72041e-08
8.46276e-08
8.22209e-08
7.9974e-08
7.78736e-08
7.59151e-08
7.40717e-08
7.23368e-08
7.07081e-08
6.91715e-08
6.7724e-08
6.63537e-08
6.50513e-08
6.38058e-08
6.26161e-08
6.14838e-08
6.04036e-08
5.9367e-08
5.83687e-08
5.74069e-08
5.64775e-08
5.55844e-08
5.47245e-08
5.38924e-08
5.30859e-08
5.23062e-08
5.15506e-08
5.08139e-08
5.00937e-08
4.9392e-08
4.87137e-08
4.80583e-08
4.74177e-08
4.67844e-08
4.61624e-08
4.55583e-08
4.49697e-08
4.43909e-08
4.3819e-08
4.32537e-08
4.26992e-08
4.21476e-08
4.15951e-08
4.10494e-08
4.05163e-08
3.99855e-08
3.94572e-08
3.89315e-08
3.84118e-08
3.78944e-08
3.73842e-08
3.68824e-08
3.63871e-08
3.58932e-08
3.54034e-08
3.49231e-08
3.44531e-08
3.39892e-08
3.35357e-08
3.30941e-08
3.26571e-08
3.22275e-08
3.18066e-08
3.14005e-08
3.10021e-08
3.06241e-08
3.02536e-08
2.98997e-08
2.95367e-08
2.91981e-08
2.88732e-08
2.85682e-08
2.82776e-08
2.79946e-08
2.77388e-08
2.74832e-08
2.72578e-08
2.70252e-08
2.68251e-08
2.66099e-08
2.64806e-08
2.63207e-08
2.61814e-08
2.60648e-08
2.58669e-08
2.55793e-08
2.56468e-08
2.54359e-08
2.5571e-08
2.54644e-08
2.52081e-08
2.45819e-08
2.5359e-08
2.71708e-08
2.78898e-08
2.86998e-08
2.94133e-08
3.02191e-08
3.11719e-08
3.20214e-08
3.30183e-08
3.24381e-08
3.28397e-08
3.40663e-08
3.58543e-08
4.14188e-08
4.50526e-08
4.49689e-08
4.36573e-08
3.87012e-08
4.24125e-08
5.61158e-08
5.80506e-08
6.00733e-08
6.17249e-08
6.29999e-08
6.3934e-08
6.46406e-08
6.52768e-08
6.53709e-08
6.29478e-08
6.05385e-08
5.82019e-08
5.47761e-08
5.81823e-08
4.4171e-08
3.87244e-08
3.20345e-08
3.11169e-08
2.52665e-08
1.96782e-08
1.75318e-08
1.46621e-08
1.41314e-08
1.40825e-08
1.44743e-08
1.5109e-08
1.5789e-08
1.6334e-08
1.66832e-08
1.6858e-08
1.69217e-08
1.6897e-08
1.67841e-08
1.66147e-08
1.64026e-08
1.61644e-08
1.5925e-08
1.56857e-08
1.54319e-08
1.51679e-08
1.4918e-08
1.46786e-08
1.44338e-08
1.41868e-08
1.39488e-08
1.37271e-08
1.35134e-08
1.33009e-08
1.30889e-08
1.28821e-08
1.26843e-08
1.24896e-08
1.22989e-08
1.21184e-08
1.19446e-08
1.17714e-08
1.15972e-08
1.14242e-08
1.12558e-08
1.10951e-08
1.09395e-08
1.07894e-08
1.06433e-08
1.04979e-08
1.03572e-08
1.02213e-08
1.00867e-08
9.95462e-09
9.8281e-09
9.70695e-09
9.58904e-09
9.47298e-09
9.35792e-09
9.24387e-09
9.13147e-09
9.0215e-09
8.91421e-09
8.80959e-09
8.70777e-09
8.60836e-09
8.51104e-09
8.41569e-09
8.32237e-09
8.23147e-09
8.14311e-09
8.05765e-09
7.97339e-09
7.89225e-09
7.80921e-09
7.73552e-09
7.65342e-09
7.58923e-09
7.50925e-09
7.4517e-09
7.373e-09
7.32206e-09
7.24956e-09
7.18527e-09
7.24399e-09
6.67174e-09
8.03793e-09
1.54684e-09
4.25298e-09
1.19033e-08
2.34826e-08
1.63212e-08
5.89175e-09
3.67087e-09
3.1982e-09
3.14169e-09
3.11294e-09
3.2252e-09
3.50869e-09
3.6914e-09
4.14743e-09
5.72654e-09
9.60066e-09
1.95042e-08
2.93509e-08
2.62649e-08
3.49869e-08
5.22529e-08
6.69049e-08
8.64093e-08
1.18247e-07
1.58207e-07
1.97777e-07
2.34446e-07
2.67124e-07
2.94251e-07
3.13316e-07
3.25384e-07
3.22789e-07
3.34832e-07
3.69477e-07
4.06897e-07
4.51288e-07
4.87112e-07
4.84068e-07
4.6308e-07
4.56512e-07
4.52287e-07
4.23707e-07
3.63839e-07
3.16771e-07
2.86181e-07
2.209e-07
1.87475e-07
2.35232e-07
2.50748e-07
1.80609e-07
1.33943e-07
1.11035e-07
8.90206e-08
9.10622e-08
1.20647e-07
1.56802e-07
1.39017e-07
8.25617e-08
5.40364e-08
4.18323e-08
3.82157e-08
4.08891e-08
5.31044e-08
7.9144e-08
9.24459e-08
8.54486e-08
8.49189e-08
1.01551e-07
1.47657e-07
2.24172e-07
2.29702e-07
1.96704e-07
1.64186e-07
1.01486e-07
7.44005e-08
9.32075e-08
1.57475e-07
2.00624e-07
2.23425e-07
2.26049e-07
2.18605e-07
2.05745e-07
2.02457e-07
2.1061e-07
2.21646e-07
2.41663e-07
2.57794e-07
2.642e-07
2.56886e-07
2.45442e-07
2.23119e-07
1.93654e-07
1.72021e-07
1.5572e-07
1.56374e-07
1.27712e-07
1.47421e-07
1.22077e-07
1.39883e-07
1.674e-07
2.1475e-07
2.19794e-07
1.87701e-07
1.60431e-07
1.26179e-07
1.00225e-07
9.03354e-08
9.61535e-08
1.00768e-07
4.33953e-08
5.47997e-08
5.14683e-08
1.10932e-07
1.25413e-07
1.50552e-07
1.56036e-07
1.93582e-07
2.00317e-07
1.82e-07
1.4211e-07
1.07705e-07
9.94277e-08
1.01068e-07
1.10798e-07
1.21951e-07
1.32792e-07
1.41528e-07
1.49595e-07
1.55855e-07
1.61065e-07
1.64912e-07
1.67818e-07
1.69278e-07
1.69995e-07
1.70551e-07
1.52773e-07
1.38691e-07
1.3691e-07
1.33997e-07
1.35066e-07
1.29392e-07
1.20564e-07
1.17203e-07
1.1799e-07
1.20311e-07
1.17352e-07
1.12977e-07
1.06208e-07
1.06109e-07
1.11031e-07
1.12517e-07
1.07895e-07
1.00991e-07
9.68047e-08
9.94127e-08
1.03283e-07
1.00182e-07
9.38902e-08
9.12305e-08
9.28336e-08
9.53241e-08
9.39304e-08
9.33322e-08
9.387e-08
9.09245e-08
8.89539e-08
9.02374e-08
9.3903e-08
9.47236e-08
9.21898e-08
9.116e-08
9.40123e-08
9.68428e-08
9.7247e-08
9.66633e-08
9.53316e-08
9.51199e-08
9.61348e-08
9.90135e-08
1.02208e-07
1.03309e-07
1.02861e-07
1.00193e-07
9.83096e-08
9.8213e-08
1.00097e-07
1.04142e-07
1.05668e-07
1.04202e-07
1.02092e-07
1.01083e-07
1.01977e-07
1.04463e-07
1.06499e-07
1.05872e-07
1.03559e-07
1.02976e-07
1.04921e-07
1.07639e-07
1.08923e-07
1.07495e-07
1.06217e-07
1.06902e-07
1.09286e-07
1.1073e-07
1.10442e-07
1.10275e-07
1.11751e-07
1.1562e-07
1.20211e-07
1.199e-07
1.18023e-07
1.18744e-07
1.21397e-07
1.26616e-07
1.34495e-07
1.4165e-07
1.44067e-07
1.4369e-07
1.46864e-07
1.53547e-07
1.64268e-07
1.7957e-07
1.96765e-07
2.11679e-07
2.21771e-07
2.26879e-07
2.27876e-07
2.29044e-07
2.29972e-07
2.30543e-07
2.30833e-07
2.31061e-07
2.31491e-07
2.31989e-07
2.32338e-07
2.32514e-07
2.32717e-07
2.32823e-07
2.32822e-07
2.3271e-07
2.32282e-07
2.3203e-07
2.22653e-07
1.95646e-07
1.78335e-07
1.70691e-07
1.61705e-07
1.49725e-07
1.37514e-07
1.27624e-07
1.21143e-07
1.17082e-07
1.13324e-07
1.07778e-07
1.01841e-07
9.58584e-08
9.14373e-08
9.06247e-08
8.94107e-08
8.63628e-08
8.3382e-08
8.04895e-08
7.73574e-08
7.50547e-08
7.38307e-08
7.29508e-08
7.16883e-08
7.01176e-08
6.84333e-08
6.69031e-08
6.58729e-08
6.52719e-08
6.44016e-08
6.29916e-08
6.20219e-08
6.15255e-08
6.11288e-08
6.07812e-08
6.00576e-08
5.91239e-08
5.86717e-08
5.84877e-08
5.84527e-08
5.80745e-08
5.74357e-08
5.72257e-08
5.73389e-08
5.73662e-08
5.7372e-08
5.7352e-08
5.70767e-08
5.68999e-08
5.71386e-08
5.77545e-08
5.83066e-08
5.84799e-08
5.81517e-08
5.80989e-08
5.88053e-08
5.99375e-08
6.07814e-08
6.10707e-08
6.11527e-08
6.18498e-08
6.35351e-08
6.48734e-08
6.54655e-08
6.59952e-08
6.73965e-08
6.93652e-08
7.08922e-08
7.21384e-08
7.30309e-08
7.43894e-08
7.67209e-08
7.86643e-08
8.01865e-08
8.14464e-08
8.24239e-08
8.35858e-08
8.49343e-08
8.61719e-08
8.71006e-08
8.78022e-08
8.83112e-08
8.86732e-08
8.91329e-08
8.98083e-08
9.05488e-08
9.12262e-08
9.17825e-08
9.23122e-08
9.29739e-08
9.37109e-08
9.44427e-08
9.58144e-08
9.72704e-08
9.88088e-08
1.00568e-07
1.0216e-07
1.03728e-07
1.05578e-07
1.07635e-07
1.09875e-07
1.12816e-07
1.15911e-07
1.18858e-07
1.21837e-07
1.24991e-07
1.2842e-07
1.32081e-07
1.36101e-07
1.40502e-07
1.45224e-07
1.50013e-07
1.54791e-07
1.59614e-07
1.65222e-07
1.72008e-07
1.78926e-07
1.85803e-07
1.93063e-07
2.01023e-07
2.09405e-07
2.15192e-07
2.15265e-07
2.15413e-07
2.15583e-07
2.15691e-07
2.1577e-07
2.15943e-07
2.16269e-07
2.16664e-07
2.17011e-07
2.17298e-07
2.1757e-07
2.17838e-07
2.18084e-07
2.18344e-07
2.18784e-07
2.1942e-07
2.20076e-07
2.20615e-07
2.21076e-07
2.2153e-07
2.22028e-07
2.22659e-07
2.23392e-07
2.24068e-07
2.24648e-07
2.25311e-07
2.26136e-07
2.26989e-07
2.27777e-07
2.28575e-07
2.29313e-07
2.29969e-07
2.30679e-07
2.31591e-07
2.32729e-07
2.33948e-07
2.35055e-07
2.36078e-07
2.37099e-07
2.38219e-07
2.39737e-07
2.41468e-07
2.43214e-07
2.44772e-07
2.46149e-07
2.47613e-07
2.49157e-07
2.51222e-07
2.52886e-07
2.54182e-07
2.55551e-07
2.55983e-07
2.52657e-07
2.56885e-07
1.67846e-07
2.05928e-07
2.63896e-07
2.55587e-07
2.31937e-07
1.92895e-07
1.7372e-07
1.14345e-07
7.45696e-08
9.64671e-08
1.27127e-07
1.51225e-07
1.2002e-07
9.39145e-08
8.86109e-08
7.04651e-08
6.38248e-08
6.84722e-08
1.29098e-07
2.39784e-07
5.75987e-08
4.12077e-08
2.54248e-08
2.35858e-08
1.49578e-08
1.16626e-08
1.26177e-08
1.59727e-08
2.25668e-08
2.39306e-08
2.64307e-08
2.87697e-08
3.3652e-08
3.42632e-08
3.43852e-08
3.48303e-08
3.77276e-08
3.03393e-08
4.51722e-08
6.46183e-08
5.05183e-08
5.59929e-08
2.1566e-08
2.15446e-08
9.45656e-09
9.40115e-09
9.51666e-09
6.85735e-09
7.20686e-09
7.95682e-09
9.98904e-09
1.24568e-08
1.46208e-08
1.52965e-08
1.594e-08
1.70622e-08
1.83266e-08
1.93555e-08
2.00917e-08
2.07878e-08
2.1451e-08
2.20084e-08
2.25831e-08
2.32418e-08
2.39677e-08
2.46339e-08
2.51905e-08
2.56366e-08
2.60953e-08
2.65735e-08
2.69904e-08
2.73577e-08
2.77716e-08
2.82239e-08
2.87228e-08
2.91883e-08
2.96406e-08
3.00841e-08
3.03701e-08
3.06442e-08
3.11452e-08
3.17381e-08
3.22815e-08
3.27311e-08
3.30189e-08
3.32378e-08
3.35217e-08
3.38379e-08
3.42014e-08
3.46213e-08
3.50218e-08
3.53928e-08
3.58436e-08
3.6395e-08
3.6947e-08
3.74865e-08
3.80785e-08
3.8714e-08
3.93586e-08
3.99711e-08
4.05531e-08
4.11734e-08
4.17873e-08
4.23513e-08
4.28589e-08
4.33725e-08
4.39334e-08
4.45318e-08
4.51783e-08
4.57822e-08
4.63016e-08
4.68482e-08
4.75267e-08
4.82581e-08
4.87784e-08
4.93581e-08
4.93459e-08
5.07954e-08
5.00878e-08
5.18883e-08
5.14314e-08
5.19334e-08
5.18417e-08
5.2595e-08
5.38806e-08
4.67278e-08
6.95547e-08
1.24762e-08
7.70729e-09
9.55479e-09
1.28654e-09
3.16771e-09
2.4407e-08
1.43336e-08
6.23724e-09
3.59009e-09
3.28886e-09
4.10686e-09
3.84582e-09
3.6106e-09
4.38054e-09
5.64814e-09
6.08603e-09
8.02815e-09
1.30212e-08
2.29258e-08
3.51557e-08
4.57861e-08
4.94189e-08
5.82772e-08
7.39948e-08
9.97877e-08
1.38778e-07
1.83916e-07
2.24528e-07
2.61462e-07
2.94743e-07
3.24416e-07
3.5028e-07
3.72216e-07
4.01749e-07
4.23266e-07
4.277e-07
4.34244e-07
4.39754e-07
4.42736e-07
4.33013e-07
4.01282e-07
3.58225e-07
3.33751e-07
3.17695e-07
2.98305e-07
2.59288e-07
2.25452e-07
1.98382e-07
1.807e-07
1.70144e-07
1.62598e-07
1.56284e-07
1.15446e-07
1.06857e-07
1.10514e-07
9.08018e-08
7.8706e-08
9.08089e-08
1.05969e-07
9.49373e-08
6.43861e-08
4.92416e-08
4.01762e-08
3.57716e-08
3.80903e-08
4.14317e-08
4.26804e-08
3.61035e-08
3.0054e-08
3.14792e-08
4.09918e-08
6.07311e-08
1.03315e-07
1.25517e-07
1.17584e-07
1.08974e-07
1.01428e-07
9.66833e-08
9.58302e-08
1.01128e-07
1.19594e-07
1.39912e-07
1.49316e-07
1.56323e-07
1.57854e-07
1.61301e-07
1.69539e-07
1.80955e-07
1.99714e-07
2.20608e-07
2.31674e-07
2.31476e-07
2.24575e-07
2.06878e-07
1.86733e-07
1.69863e-07
1.52607e-07
1.35341e-07
1.21502e-07
1.10194e-07
1.06313e-07
1.1373e-07
1.30464e-07
1.45152e-07
1.51341e-07
1.4555e-07
1.34177e-07
1.17761e-07
9.9014e-08
8.04186e-08
6.72501e-08
5.87914e-08
5.55744e-08
4.67435e-08
3.74808e-08
2.70988e-08
4.6455e-08
4.46107e-08
1.33676e-07
6.24816e-08
6.67207e-08
5.2965e-08
9.10855e-08
1.35277e-07
1.31566e-07
1.21588e-07
6.97227e-08
7.00775e-08
1.50727e-07
7.63182e-08
1.05848e-07
7.67165e-08
7.20586e-08
1.00155e-07
1.12764e-07
1.37937e-07
9.9466e-08
7.71167e-08
5.92188e-08
5.74338e-08
6.15706e-08
5.85841e-08
6.11902e-08
6.04789e-08
5.74277e-08
5.42304e-08
5.24558e-08
4.91274e-08
4.81079e-08
4.62107e-08
4.49409e-08
4.81022e-08
4.98183e-08
4.63885e-08
4.2292e-08
3.98077e-08
4.09134e-08
4.29931e-08
4.28927e-08
4.07731e-08
3.77228e-08
3.62393e-08
3.66302e-08
3.80075e-08
3.83677e-08
3.79549e-08
3.69544e-08
3.54637e-08
3.51656e-08
3.57793e-08
3.63931e-08
3.6432e-08
3.63073e-08
3.60543e-08
3.63904e-08
3.64754e-08
3.66965e-08
3.74971e-08
3.7354e-08
3.70385e-08
3.70546e-08
3.73009e-08
3.82466e-08
3.86791e-08
3.86484e-08
3.83756e-08
3.81821e-08
3.8188e-08
3.8365e-08
3.91063e-08
3.99818e-08
4.06158e-08
4.02479e-08
3.93607e-08
3.89647e-08
3.94379e-08
4.08014e-08
4.18685e-08
4.18976e-08
4.16685e-08
4.15785e-08
4.20509e-08
4.31845e-08
4.39837e-08
4.45813e-08
4.51388e-08
4.58356e-08
4.62503e-08
4.66384e-08
4.79916e-08
5.02652e-08
5.21015e-08
5.25403e-08
5.33304e-08
5.4837e-08
5.66231e-08
5.91205e-08
6.18124e-08
6.42951e-08
6.73086e-08
7.05839e-08
7.39802e-08
7.88649e-08
8.35604e-08
8.59259e-08
9.11386e-08
9.99219e-08
1.12414e-07
1.2721e-07
1.38342e-07
1.48061e-07
1.58322e-07
1.84482e-07
2.24122e-07
2.60288e-07
2.93136e-07
3.06754e-07
3.09386e-07
3.03405e-07
2.93069e-07
2.90919e-07
2.924e-07
2.64422e-07
2.2283e-07
1.80544e-07
1.52519e-07
1.36895e-07
1.26045e-07
1.24017e-07
1.23677e-07
1.12448e-07
1.00021e-07
9.06422e-08
8.46485e-08
8.41687e-08
8.34499e-08
8.02365e-08
7.53978e-08
6.96567e-08
6.57131e-08
6.38732e-08
6.37187e-08
6.28907e-08
6.04714e-08
5.78819e-08
5.60573e-08
5.47136e-08
5.33126e-08
5.22656e-08
5.13374e-08
5.03899e-08
4.92857e-08
4.77462e-08
4.66185e-08
4.66355e-08
4.69251e-08
4.64946e-08
4.52253e-08
4.38889e-08
4.32967e-08
4.32227e-08
4.32054e-08
4.30567e-08
4.28862e-08
4.28968e-08
4.26015e-08
4.21505e-08
4.17935e-08
4.13704e-08
4.14632e-08
4.21455e-08
4.26505e-08
4.27233e-08
4.25514e-08
4.21487e-08
4.20383e-08
4.25423e-08
4.34545e-08
4.42119e-08
4.46273e-08
4.46036e-08
4.45188e-08
4.50776e-08
4.62778e-08
4.73141e-08
4.75906e-08
4.77853e-08
4.876e-08
5.05402e-08
5.19743e-08
5.2539e-08
5.30601e-08
5.44244e-08
5.6415e-08
5.80348e-08
5.92231e-08
5.98733e-08
6.09116e-08
6.32948e-08
6.54058e-08
6.68207e-08
6.78753e-08
6.86782e-08
6.98152e-08
7.13097e-08
7.27569e-08
7.38307e-08
7.45867e-08
7.50364e-08
7.52259e-08
7.5538e-08
7.61855e-08
7.69747e-08
7.77114e-08
7.81591e-08
7.83862e-08
7.88298e-08
7.95916e-08
8.01682e-08
8.10005e-08
8.20655e-08
8.32851e-08
8.47794e-08
8.60974e-08
8.71637e-08
8.84741e-08
9.00262e-08
9.20119e-08
9.49616e-08
9.7745e-08
1.00179e-07
1.02661e-07
1.05266e-07
1.08114e-07
1.1118e-07
1.14688e-07
1.18748e-07
1.23134e-07
1.27424e-07
1.31454e-07
1.355e-07
1.40678e-07
1.47027e-07
1.53099e-07
1.5904e-07
1.65354e-07
1.72511e-07
1.80719e-07
1.89418e-07
1.9806e-07
2.06071e-07
2.15354e-07
2.27316e-07
2.39017e-07
2.48861e-07
2.60591e-07
2.77039e-07
2.95811e-07
3.12176e-07
3.27396e-07
3.45452e-07
3.70451e-07
3.99589e-07
4.26707e-07
4.4926e-07
4.76599e-07
5.07522e-07
5.3525e-07
5.73994e-07
6.37169e-07
7.02142e-07
7.54955e-07
8.10916e-07
8.96542e-07
1.0497e-06
1.20915e-06
1.35493e-06
1.51048e-06
1.7339e-06
2.18046e-06
2.82335e-06
2.84281e-06
2.86404e-06
2.89019e-06
2.68169e-06
1.88112e-06
1.61457e-06
1.25091e-06
1.10583e-06
9.87101e-07
8.94108e-07
7.79808e-07
6.82822e-07
6.16364e-07
4.63275e-07
4.8618e-07
5.28721e-07
4.49438e-07
2.9439e-07
3.10227e-07
1.66352e-07
2.23211e-07
3.12225e-07
4.19572e-07
2.84672e-07
2.42245e-07
1.51073e-07
1.55715e-07
8.19061e-08
9.79457e-08
1.17824e-07
1.23344e-07
1.13397e-07
1.08868e-07
1.15048e-07
7.45328e-08
6.94389e-08
1.10775e-07
1.76934e-07
9.26526e-08
4.54939e-08
3.3191e-08
2.11483e-08
2.00703e-08
1.34128e-08
1.09184e-08
1.2142e-08
1.45657e-08
2.12774e-08
2.30833e-08
3.78401e-08
4.17564e-08
5.26696e-08
4.57412e-08
3.61821e-08
3.60985e-08
2.81644e-08
2.78161e-08
4.33659e-08
5.77326e-08
4.56827e-08
4.42728e-08
1.68198e-08
1.7992e-08
7.54099e-09
8.33489e-09
9.08243e-09
6.13352e-09
6.48796e-09
7.18256e-09
1.03901e-08
1.23439e-08
1.62069e-08
1.82262e-08
1.95737e-08
2.18006e-08
2.23523e-08
2.09166e-08
1.98132e-08
1.94918e-08
1.97037e-08
2.00143e-08
2.01279e-08
2.033e-08
2.07153e-08
2.11517e-08
2.17467e-08
2.2258e-08
2.25295e-08
2.27704e-08
2.31832e-08
2.35312e-08
2.36679e-08
2.38636e-08
2.42358e-08
2.46188e-08
2.48238e-08
2.4938e-08
2.51662e-08
2.54922e-08
2.59278e-08
2.61886e-08
2.63917e-08
2.674e-08
2.70025e-08
2.71265e-08
2.73606e-08
2.77965e-08
2.8325e-08
2.88389e-08
2.92632e-08
2.9595e-08
2.99107e-08
3.01395e-08
3.04896e-08
3.08811e-08
3.11679e-08
3.15959e-08
3.22333e-08
3.27869e-08
3.31133e-08
3.33482e-08
3.3622e-08
3.39984e-08
3.44978e-08
3.50636e-08
3.56298e-08
3.61572e-08
3.66548e-08
3.71449e-08
3.76405e-08
3.81613e-08
3.86944e-08
3.92534e-08
3.98273e-08
4.03768e-08
4.08543e-08
4.1098e-08
4.1695e-08
4.18544e-08
4.32426e-08
4.2344e-08
4.3752e-08
4.35074e-08
4.39168e-08
4.36465e-08
4.43776e-08
4.60991e-08
4.03638e-08
6.02332e-08
1.05084e-08
6.4047e-09
7.90129e-09
1.36792e-09
2.73245e-09
1.13858e-08
7.48185e-09
4.50973e-09
3.32026e-09
3.77644e-09
5.6206e-09
5.52767e-09
6.23297e-09
9.89611e-09
6.62064e-08
1.81871e-08
3.03541e-08
8.47138e-08
8.89401e-08
8.90057e-08
9.11512e-08
9.6409e-08
1.09393e-07
1.30528e-07
1.56916e-07
1.83577e-07
2.04432e-07
2.21436e-07
2.34439e-07
2.4343e-07
2.49891e-07
2.57789e-07
2.77316e-07
3.08009e-07
3.44361e-07
3.72922e-07
3.81676e-07
3.70984e-07
3.52258e-07
3.264e-07
2.9576e-07
2.67216e-07
2.50402e-07
2.35685e-07
2.11903e-07
1.84469e-07
1.66203e-07
1.52166e-07
1.42008e-07
1.14498e-07
8.13354e-08
6.71633e-08
6.2345e-08
7.01496e-08
7.77071e-08
6.92901e-08
5.22017e-08
4.9065e-08
5.10634e-08
5.11644e-08
5.17299e-08
5.08524e-08
4.46215e-08
3.98934e-08
4.03207e-08
2.80345e-08
1.87499e-08
1.566e-08
1.52813e-08
1.69999e-08
1.95821e-08
2.46772e-08
3.75143e-08
6.6477e-08
1.07656e-07
1.04885e-07
1.03355e-07
1.02319e-07
1.00725e-07
7.75163e-08
6.22056e-08
9.18035e-08
1.13195e-07
1.20759e-07
1.27485e-07
1.32522e-07
1.40021e-07
1.48236e-07
1.60002e-07
1.75437e-07
1.90596e-07
2.02045e-07
2.08364e-07
2.06e-07
1.95239e-07
1.83328e-07
1.64777e-07
1.47159e-07
1.35152e-07
1.23179e-07
1.11658e-07
1.03121e-07
1.0094e-07
1.04635e-07
1.1013e-07
1.12389e-07
1.1061e-07
1.04395e-07
9.54577e-08
8.58401e-08
7.67845e-08
6.97224e-08
5.24704e-08
4.6821e-08
4.0696e-08
3.72541e-08
3.50266e-08
3.65562e-08
2.79628e-08
5.04821e-08
3.89731e-08
1.81187e-07
4.61845e-08
4.53682e-08
3.21633e-08
6.32808e-08
1.14599e-07
1.25549e-07
8.96715e-08
4.45184e-08
4.9583e-08
3.59428e-07
8.65912e-08
1.08655e-07
6.79985e-08
6.56615e-08
7.27403e-08
6.51328e-08
5.38896e-08
6.16699e-08
6.16784e-08
4.82873e-08
4.42007e-08
4.79163e-08
4.80089e-08
4.97662e-08
4.67419e-08
4.0658e-08
3.83942e-08
3.76607e-08
3.89158e-08
4.28456e-08
4.16833e-08
3.75762e-08
3.40339e-08
3.29805e-08
3.49726e-08
3.60625e-08
3.39896e-08
3.26793e-08
3.14349e-08
3.05668e-08
3.00183e-08
3.00374e-08
3.07879e-08
3.0557e-08
2.93619e-08
2.85227e-08
2.8639e-08
2.898e-08
2.88259e-08
2.86073e-08
2.90775e-08
2.89348e-08
2.83615e-08
2.83451e-08
2.87237e-08
2.92476e-08
2.93474e-08
2.92108e-08
2.93377e-08
2.94637e-08
2.98341e-08
2.987e-08
2.96289e-08
2.99088e-08
3.05203e-08
3.08731e-08
3.09064e-08
3.09603e-08
3.14567e-08
3.23632e-08
3.2801e-08
3.25484e-08
3.23127e-08
3.21839e-08
3.28854e-08
3.42252e-08
3.51197e-08
3.53757e-08
3.51652e-08
3.51746e-08
3.62418e-08
3.78488e-08
3.90255e-08
3.91937e-08
3.91606e-08
3.97841e-08
4.09931e-08
4.30033e-08
4.52027e-08
4.60624e-08
4.59355e-08
4.71982e-08
4.94608e-08
5.1582e-08
5.44306e-08
5.70865e-08
5.85704e-08
6.02216e-08
6.32276e-08
6.78972e-08
7.39409e-08
7.9638e-08
8.07561e-08
8.2379e-08
8.81063e-08
9.81537e-08
1.13781e-07
1.27873e-07
1.36842e-07
1.43174e-07
1.55374e-07
1.78659e-07
2.12266e-07
2.30944e-07
2.25195e-07
2.14478e-07
2.14107e-07
2.29989e-07
2.50841e-07
2.51119e-07
2.11753e-07
1.74919e-07
1.49412e-07
1.34383e-07
1.26203e-07
1.22284e-07
1.22516e-07
1.18296e-07
1.05041e-07
9.2271e-08
8.47831e-08
8.13054e-08
8.15724e-08
8.08309e-08
7.67816e-08
7.16304e-08
6.64289e-08
6.39923e-08
6.36314e-08
6.2417e-08
6.02859e-08
5.80192e-08
5.55198e-08
5.39094e-08
5.35421e-08
5.26196e-08
5.13257e-08
5.01031e-08
4.89279e-08
4.75422e-08
4.60863e-08
4.54384e-08
4.57303e-08
4.58452e-08
4.53388e-08
4.44834e-08
4.32105e-08
4.22827e-08
4.18437e-08
4.17159e-08
4.21508e-08
4.25679e-08
4.25942e-08
4.19278e-08
4.08659e-08
4.04504e-08
4.05143e-08
4.1007e-08
4.16647e-08
4.20136e-08
4.19267e-08
4.14559e-08
4.12187e-08
4.16113e-08
4.2174e-08
4.27928e-08
4.32901e-08
4.37928e-08
4.42171e-08
4.44095e-08
4.49299e-08
4.57618e-08
4.63862e-08
4.67605e-08
4.75636e-08
4.87977e-08
5.00669e-08
5.12014e-08
5.19566e-08
5.27898e-08
5.40542e-08
5.56736e-08
5.71484e-08
5.82162e-08
5.9173e-08
6.03487e-08
6.2248e-08
6.42302e-08
6.55567e-08
6.63929e-08
6.74414e-08
6.88583e-08
7.01922e-08
7.15283e-08
7.25762e-08
7.34478e-08
7.42037e-08
7.45671e-08
7.47749e-08
7.51095e-08
7.5956e-08
7.71464e-08
7.77935e-08
7.77105e-08
7.77593e-08
7.87215e-08
7.97547e-08
8.07038e-08
8.17003e-08
8.26389e-08
8.38192e-08
8.49812e-08
8.5922e-08
8.71789e-08
8.89555e-08
9.12152e-08
9.40062e-08
9.65082e-08
9.88815e-08
1.01495e-07
1.04213e-07
1.06817e-07
1.09364e-07
1.12676e-07
1.16986e-07
1.21605e-07
1.25804e-07
1.29683e-07
1.33843e-07
1.39138e-07
1.45204e-07
1.50931e-07
1.56751e-07
1.62925e-07
1.70008e-07
1.78152e-07
1.86632e-07
1.95138e-07
2.03309e-07
2.12611e-07
2.25284e-07
2.37852e-07
2.47664e-07
2.57211e-07
2.72351e-07
2.91556e-07
3.09767e-07
3.27116e-07
3.46038e-07
3.701e-07
3.96082e-07
4.21779e-07
4.47342e-07
4.76307e-07
5.06637e-07
5.34177e-07
5.67386e-07
6.29214e-07
6.99818e-07
7.55577e-07
7.96239e-07
8.60409e-07
9.96272e-07
1.15426e-06
1.29673e-06
1.39633e-06
1.52044e-06
1.76848e-06
2.20047e-06
2.67841e-06
2.5275e-06
2.53436e-06
1.84645e-06
1.6776e-06
1.40493e-06
1.16537e-06
8.36082e-07
8.55543e-07
6.18616e-07
7.48812e-07
1.24364e-06
8.94775e-07
8.59512e-07
4.05467e-07
4.26412e-07
1.72388e-07
2.51036e-07
2.22284e-07
3.88603e-07
3.9383e-07
3.41554e-07
1.03693e-07
1.616e-07
9.7178e-08
1.08798e-07
1.23097e-07
1.3263e-07
1.13128e-07
1.19704e-07
1.19387e-07
7.64187e-08
7.95604e-08
1.31764e-07
2.23332e-07
6.8121e-08
3.90789e-08
2.49477e-08
1.92177e-08
1.75728e-08
1.34804e-08
1.09806e-08
1.21666e-08
1.43399e-08
2.13185e-08
2.297e-08
3.98617e-08
5.97121e-08
1.09281e-07
9.07431e-08
5.72395e-08
5.25391e-08
2.99683e-08
5.11118e-08
5.06139e-08
4.46356e-08
2.61533e-08
2.96428e-08
1.36684e-08
1.57181e-08
6.96203e-09
8.79049e-09
1.00368e-08
6.11924e-09
6.33185e-09
6.82016e-09
1.03065e-08
1.26414e-08
1.94933e-08
2.88363e-08
3.42654e-08
3.04631e-08
2.57387e-08
2.26837e-08
2.12947e-08
2.13204e-08
2.12511e-08
2.07589e-08
2.03951e-08
2.04061e-08
2.06625e-08
2.08004e-08
2.09659e-08
2.12912e-08
2.16842e-08
2.21435e-08
2.24363e-08
2.25453e-08
2.27579e-08
2.31726e-08
2.35214e-08
2.37204e-08
2.39807e-08
2.4341e-08
2.46446e-08
2.47968e-08
2.49124e-08
2.51859e-08
2.55522e-08
2.59664e-08
2.63007e-08
2.65072e-08
2.66458e-08
2.67512e-08
2.68819e-08
2.71527e-08
2.75993e-08
2.81027e-08
2.8548e-08
2.89145e-08
2.92249e-08
2.95183e-08
2.98247e-08
3.02785e-08
3.07037e-08
3.10253e-08
3.14394e-08
3.19624e-08
3.24143e-08
3.27412e-08
3.30511e-08
3.34248e-08
3.38704e-08
3.43673e-08
3.4884e-08
3.53857e-08
3.58783e-08
3.63712e-08
3.68927e-08
3.74312e-08
3.79502e-08
3.85017e-08
3.91081e-08
3.96926e-08
4.01562e-08
4.05484e-08
4.08472e-08
4.16012e-08
4.17896e-08
4.29898e-08
4.20241e-08
4.36394e-08
4.36135e-08
4.39982e-08
4.37603e-08
4.45361e-08
4.62211e-08
4.03249e-08
5.97239e-08
1.04255e-08
6.34854e-09
7.81083e-09
1.45915e-09
2.3939e-09
7.26651e-09
5.4526e-09
3.85355e-09
3.25296e-09
4.1251e-09
6.70743e-09
7.15038e-09
9.02577e-09
9.49736e-09
1.42735e-08
3.03535e-08
5.85904e-08
9.75151e-08
1.16818e-07
1.21267e-07
1.28046e-07
1.36319e-07
1.45634e-07
1.55974e-07
1.65639e-07
1.73445e-07
1.79425e-07
1.83809e-07
1.87715e-07
1.93148e-07
2.0373e-07
2.2209e-07
2.428e-07
2.59853e-07
2.71382e-07
2.6985e-07
2.58262e-07
2.4248e-07
2.28212e-07
2.16524e-07
2.06989e-07
1.97452e-07
1.86274e-07
1.72887e-07
1.59075e-07
1.50576e-07
1.44445e-07
1.40283e-07
1.15471e-07
6.59932e-08
4.21089e-08
3.72609e-08
4.19119e-08
5.17013e-08
6.0032e-08
5.06002e-08
3.2258e-08
2.6259e-08
2.79945e-08
3.56159e-08
5.27543e-08
5.0327e-08
4.25607e-08
3.61353e-08
2.95613e-08
1.8777e-08
1.29691e-08
1.19339e-08
1.28447e-08
1.42781e-08
1.3672e-08
1.32534e-08
1.6279e-08
2.41915e-08
3.7573e-08
5.71169e-08
7.41879e-08
1.05214e-07
1.12531e-07
7.4674e-08
4.28618e-08
3.96804e-08
6.34825e-08
1.1649e-07
1.18104e-07
1.20492e-07
1.24897e-07
1.31435e-07
1.38708e-07
1.48827e-07
1.6139e-07
1.71881e-07
1.81185e-07
1.86164e-07
1.84597e-07
1.79731e-07
1.69647e-07
1.5651e-07
1.43567e-07
1.28416e-07
1.17329e-07
1.08492e-07
1.01332e-07
9.7553e-08
9.73269e-08
9.88193e-08
9.96016e-08
9.7841e-08
9.47758e-08
9.06444e-08
8.59111e-08
8.17397e-08
7.85043e-08
5.42306e-08
3.71118e-08
2.97091e-08
3.07921e-08
3.20206e-08
3.38294e-08
3.47697e-08
3.88004e-08
2.95937e-08
5.77811e-08
3.48539e-08
1.49194e-07
4.71743e-08
4.11036e-08
2.92288e-08
4.83014e-08
6.22958e-08
7.78417e-08
6.10889e-08
3.49134e-08
4.5078e-08
1.21422e-07
6.32247e-08
6.88679e-08
5.46588e-08
4.37273e-08
4.52343e-08
5.20216e-08
4.7103e-08
4.93731e-08
5.13543e-08
4.67331e-08
4.5283e-08
4.35436e-08
3.84378e-08
3.79343e-08
3.81023e-08
4.0314e-08
4.20821e-08
3.89856e-08
3.4735e-08
3.24768e-08
3.34212e-08
3.49783e-08
3.44727e-08
3.25271e-08
3.09723e-08
3.04864e-08
3.07606e-08
3.00807e-08
2.90036e-08
2.93984e-08
2.91566e-08
2.80265e-08
2.78015e-08
2.82464e-08
2.81934e-08
2.77854e-08
2.75267e-08
2.76963e-08
2.78291e-08
2.73249e-08
2.71653e-08
2.75603e-08
2.75591e-08
2.76219e-08
2.79863e-08
2.83509e-08
2.8481e-08
2.83626e-08
2.8004e-08
2.77833e-08
2.84115e-08
2.9288e-08
2.98446e-08
2.98257e-08
2.93827e-08
2.95931e-08
3.04327e-08
3.1316e-08
3.15698e-08
3.15708e-08
3.13406e-08
3.12652e-08
3.20995e-08
3.33319e-08
3.43466e-08
3.46363e-08
3.44739e-08
3.47989e-08
3.60877e-08
3.74126e-08
3.76981e-08
3.77115e-08
3.85755e-08
4.03086e-08
4.23319e-08
4.36354e-08
4.37067e-08
4.38091e-08
4.56917e-08
4.81203e-08
5.02749e-08
5.29926e-08
5.49881e-08
5.61535e-08
5.75464e-08
6.08082e-08
6.54579e-08
7.03589e-08
7.5906e-08
7.85213e-08
7.9683e-08
8.42274e-08
9.11683e-08
1.0065e-07
1.12848e-07
1.22287e-07
1.30868e-07
1.42169e-07
1.55497e-07
1.74873e-07
1.86406e-07
1.78211e-07
1.66692e-07
1.70789e-07
1.93041e-07
2.15009e-07
2.02137e-07
1.68219e-07
1.44026e-07
1.30366e-07
1.24279e-07
1.22756e-07
1.21307e-07
1.16644e-07
1.07986e-07
9.63879e-08
8.64783e-08
8.2344e-08
8.12605e-08