/*--------------------------------*- C++ -*----------------------------------*\
| =========                 |                                                 |
| \\      /  F ield         | OpenFOAM: The Open Source CFD Toolbox           |
|  \\    /   O peration     | Version:  v2006                                 |
|   \\  /    A nd           | Website:  www.openfoam.com                      |
|    \\/     M anipulation  |                                                 |
\*---------------------------------------------------------------------------*/
FoamFile
{
    version     2.0;
    format      ascii;
    class       volScalarField;
    location    "8";
    object      omega;
}
// * * * * * * * * * * * * * * * * * * * * * * * * * * * * * * * * * * * * * //

dimensions      [0 0 -1 0 0 0 0];


internalField   nonuniform List<scalar> 
33000
(
0.803081
0.803453
0.803779
0.803972
0.803967
0.803759
0.803421
0.803111
0.802922
0.802855
0.802856
0.802886
0.802949
0.803056
0.803256
0.803647
0.804246
0.805334
0.806479
0.807852
0.809267
0.810734
0.812339
0.814299
0.816875
0.819981
0.823297
0.826344
0.828445
0.82914
0.828632
0.827423
0.827893
0.830353
0.836117
0.846432
0.86021
0.874667
0.8876
0.89816
0.90607
0.911036
0.912775
0.910626
0.908892
0.909408
0.911935
0.913901
0.913034
0.909729
0.905766
0.903872
0.904528
0.906555
0.907436
0.906246
0.903368
0.899843
0.896685
0.894158
0.892201
0.891737
0.893742
0.897826
0.902148
0.905087
0.905965
0.90561
0.904432
0.902087
0.898429
0.893646
0.888119
0.882951
0.878548
0.874546
0.871277
0.867441
0.863009
0.858745
0.855148
0.853112
0.852904
0.854516
0.85781
0.861977
0.866531
0.87081
0.874357
0.876906
0.87814
0.878559
0.877895
0.876285
0.873845
0.870388
0.866549
0.861585
0.857371
0.851644
0.84683
0.844276
0.845341
0.845747
0.845468
0.845673
0.847365
0.848087
0.848303
0.848199
0.847811
0.846945
0.846176
0.845834
0.845216
0.843985
0.842638
0.840713
0.839494
0.839038
0.838935
0.839252
0.838881
0.838855
0.839579
0.840039
0.840414
0.840701
0.840719
0.840726
0.840897
0.841019
0.841221
0.841373
0.841448
0.841393
0.841324
0.841353
0.841394
0.841457
0.841487
0.841507
0.841532
0.841585
0.841652
0.841665
0.841639
0.841577
0.841516
0.841498
0.841507
0.841468
0.841356
0.841237
0.841156
0.841087
0.841009
0.840912
0.840797
0.84067
0.840539
0.8404
0.840267
0.840136
0.839972
0.839789
0.839618
0.839453
0.839251
0.839026
0.838811
0.838622
0.838444
0.838243
0.838036
0.837855
0.837706
0.837594
0.837503
0.837407
0.837315
0.837229
0.837142
0.837061
0.836994
0.836945
0.836906
0.836861
0.836821
0.836791
0.836768
0.836739
0.836697
0.836641
0.836573
0.836495
0.836413
0.83633
0.83624
0.836138
0.836022
0.835897
0.835764
0.835624
0.83548
0.835333
0.835181
0.83503
0.834885
0.834747
0.834605
0.834474
0.83435
0.834233
0.834133
0.834052
0.833985
0.833927
0.833875
0.833826
0.833785
0.833758
0.833746
0.833742
0.833736
0.833724
0.833706
0.833687
0.833673
0.833663
0.833653
0.833633
0.833601
0.833558
0.833508
0.833455
0.833399
0.833338
0.83327
0.833194
0.833106
0.833006
0.832893
0.83277
0.832644
0.832518
0.832387
0.832241
0.832079
0.831907
0.831733
0.831561
0.831383
0.831196
0.830996
0.830788
0.830575
0.830359
0.830138
0.82991
0.829673
0.829426
0.829177
0.828927
0.828678
0.828425
0.82816
0.827882
0.827597
0.827313
0.82703
0.826749
0.826466
0.826176
0.825878
0.825573
0.825265
0.824955
0.824644
0.824333
0.824023
0.823712
0.823395
0.823069
0.822738
0.822407
0.822077
0.821745
0.821411
0.821072
0.820727
0.820373
0.820011
0.819639
0.819256
0.81887
0.818487
0.818106
0.817725
0.817346
0.816969
0.816595
0.816224
0.815851
0.815476
0.815101
0.814733
0.814376
0.814034
0.813708
0.813402
0.813116
0.812853
0.81261
0.812384
0.812176
0.811987
0.811816
0.811665
0.811534
0.811422
0.81133
0.811256
0.8112
0.81116
0.811136
0.811126
0.811129
0.811144
0.811168
0.811201
0.81124
0.811287
0.81134
0.811397
0.811456
0.811515
0.811574
0.81163
0.811682
0.81173
0.811774
0.811813
0.811848
0.811878
0.811904
0.811926
0.811942
0.811955
0.811964
0.811968
0.811968
0.811963
0.811953
0.811939
0.81192
0.811897
0.81187
0.811838
0.811803
0.811763
0.81172
0.811673
0.811623
0.811569
0.811512
0.811453
0.81139
0.811324
0.811256
0.811186
0.811113
0.811038
0.81096
0.810879
0.810796
0.810711
0.810624
0.810534
0.810442
0.810348
0.810251
0.810151
0.81005
0.809946
0.809842
0.809735
0.809628
0.809519
0.809409
0.809299
0.809188
0.809077
0.808965
0.808853
0.808741
0.808629
0.808519
0.808409
0.8083
0.808192
0.808084
0.807978
0.807874
0.80777
0.80767
0.80757
0.807472
0.807375
0.807282
0.807191
0.807103
0.807016
0.806929
0.806846
0.806764
0.806682
0.806605
0.806524
0.806439
0.806363
0.806285
0.806212
0.806153
0.80606
0.805957
0.805899
0.805789
0.805722
0.805643
0.805714
0.805791
0.805885
0.805941
0.805979
0.805988
0.805973
0.805956
0.805934
0.805916
0.805888
0.805903
0.805872
0.805797
0.805784
0.80569
0.805601
0.805407
0.805464
0.805582
0.805777
0.80598
0.806144
0.806271
0.806364
0.806433
0.806496
0.806505
0.806514
0.806511
0.806475
0.806502
0.806506
0.806399
0.806345
0.806194
0.805998
0.805764
0.805571
0.805596
0.805898
0.80635
0.806907
0.807562
0.808268
0.808962
0.809594
0.810139
0.810598
0.810979
0.811285
0.811527
0.81172
0.811873
0.811999
0.812102
0.812185
0.812249
0.812303
0.812349
0.812385
0.812411
0.812432
0.812452
0.812468
0.812478
0.812482
0.812482
0.812479
0.812474
0.812467
0.812459
0.812449
0.812435
0.812414
0.81239
0.812364
0.81234
0.812316
0.812291
0.812266
0.812238
0.812208
0.812178
0.812146
0.812112
0.812079
0.812048
0.812016
0.811982
0.811945
0.811905
0.811863
0.811821
0.811778
0.811735
0.811692
0.81165
0.811606
0.811563
0.811519
0.811475
0.811432
0.81139
0.811348
0.811306
0.811264
0.811222
0.811183
0.811145
0.811107
0.811072
0.811039
0.811004
0.810976
0.810943
0.810932
0.810924
0.810933
0.810762
0.304794
0.35987
0.459651
0.5854
0.69861
0.780763
0.789786
0.746052
0.699506
0.679774
0.676743
0.675902
0.68219
0.694063
0.712024
0.759855
0.84351
0.893949
0.945891
1.01834
1.09893
1.20589
1.29048
1.28556
1.29238
1.34387
1.43388
1.54481
1.66428
1.77956
1.86571
1.84802
1.76207
1.68007
1.54461
1.43418
1.36168
1.25768
1.13002
1.02624
0.948919
0.883264
0.807389
0.725848
0.666009
0.631277
0.612675
0.591505
0.568488
0.547649
0.527942
0.516
0.515334
0.511965
0.498182
0.480854
0.462721
0.447178
0.436119
0.426932
0.415269
0.404643
0.402166
0.411535
0.430241
0.452103
0.470132
0.485236
0.501001
0.515251
0.521318
0.519869
0.518107
0.52602
0.552006
0.60362
0.692044
0.787873
0.842725
0.911489
1.02662
1.12527
1.2017
1.27456
1.32533
1.36658
1.3805
1.36922
1.32729
1.26298
1.16103
1.01691
0.863304
0.716604
0.609397
0.548055
0.531824
0.568325
0.663286
0.797422
0.90671
1.0232
1.1699
1.27078
1.2415
1.05628
0.886215
0.680791
0.523034
0.428997
0.341268
0.278108
0.229325
0.208951
0.21573
0.241711
0.296607
0.335451
0.343699
0.352308
0.36842
0.341261
0.29478
0.252033
0.223754
0.198009
0.181337
0.169469
0.16016
0.153702
0.150689
0.14891
0.148538
0.148699
0.149259
0.149932
0.150725
0.152001
0.153294
0.154672
0.156018
0.157408
0.158767
0.160058
0.161167
0.162019
0.162957
0.16413
0.16557
0.167116
0.168509
0.169629
0.170708
0.172054
0.173678
0.175317
0.176875
0.178379
0.179826
0.181185
0.182532
0.183984
0.185504
0.186836
0.187912
0.189123
0.190576
0.191776
0.192411
0.192963
0.193869
0.194949
0.19554
0.19529
0.194592
0.194021
0.193915
0.193971
0.193585
0.192496
0.190623
0.188108
0.185515
0.183239
0.18146
0.179912
0.177862
0.175044
0.171885
0.169078
0.166768
0.16463
0.162264
0.159372
0.156093
0.152859
0.150194
0.148115
0.146068
0.143488
0.14023
0.136957
0.134171
0.131732
0.129313
0.126633
0.1237
0.120958
0.118755
0.116755
0.113925
0.110687
0.107749
0.105286
0.103459
0.101806
0.0997295
0.0969688
0.0940792
0.0915616
0.0895364
0.0880657
0.0866678
0.0849618
0.0828581
0.0806817
0.0787766
0.0772725
0.0763035
0.0753707
0.0741454
0.0726111
0.071065
0.0698781
0.0690398
0.0683739
0.0677733
0.067301
0.0668023
0.0662604
0.0657012
0.0649635
0.0644468
0.0641726
0.064108
0.0643199
0.0643486
0.063827
0.0634336
0.0633519
0.0634513
0.0636988
0.063794
0.0636998
0.0635667
0.0634797
0.0635419
0.0636689
0.0637111
0.0636889
0.06358
0.0634614
0.0635312
0.0638004
0.0640919
0.0642128
0.0639147
0.0636384
0.0635677
0.0635934
0.0637366
0.0639911
0.0641728
0.0641851
0.0640257
0.0638544
0.063776
0.0637402
0.0637184
0.0637994
0.0640379
0.06418
0.0640193
0.0637464
0.0636281
0.0636144
0.063609
0.0636639
0.0637521
0.0637209
0.0635577
0.0633581
0.0632224
0.06314
0.0630928
0.0630885
0.0629991
0.0628031
0.0625596
0.0623191
0.0621114
0.0619756
0.0617892
0.0614657
0.0610972
0.0607346
0.0604098
0.0600316
0.0595832
0.0591119
0.058679
0.0583159
0.0579545
0.0574999
0.0569559
0.0564578
0.0560443
0.0556493
0.0552617
0.0548943
0.0545782
0.0543222
0.0541042
0.0539188
0.0537656
0.053682
0.0536974
0.0537656
0.0538366
0.0539231
0.05408
0.0543403
0.0546611
0.0549691
0.0551855
0.0553108
0.0554271
0.0556022
0.0558069
0.0559865
0.056111
0.056187
0.0562454
0.0563189
0.0564055
0.056432
0.0563826
0.0562969
0.0562268
0.0561913
0.0561597
0.056085
0.0559626
0.0558457
0.0557534
0.0556577
0.055547
0.0554355
0.0553196
0.0551882
0.0550578
0.0549367
0.0548238
0.0547195
0.0546298
0.0545376
0.0544158
0.0542659
0.0541067
0.0539739
0.0538591
0.0537185
0.0535267
0.0533129
0.0531184
0.0529476
0.0527844
0.0526229
0.0524703
0.0523194
0.0521164
0.0518545
0.0515912
0.0513671
0.0511666
0.0509704
0.0507652
0.0505264
0.0502621
0.0500164
0.0498011
0.0495682
0.0492957
0.0490172
0.0487592
0.048503
0.048266
0.0480524
0.0478296
0.0475614
0.0472445
0.0469137
0.0466142
0.0463373
0.0460655
0.0457739
0.0454028
0.0449915
0.0445897
0.0442341
0.0439193
0.043594
0.0432534
0.042819
0.0424599
0.0421884
0.0419282
0.0418281
0.0415752
0.0409412
0.0405171
0.0403501
0.040567
0.0421413
0.0429737
0.0417663
0.0430898
0.042551
0.0407113
0.0384037
0.0370412
0.0368285
0.0365633
0.036586
0.0367573
0.036792
0.0365047
0.036167
0.0360495
0.0363482
0.0373729
0.0421036
0.0467727
0.0445517
0.0473229
0.0458085
0.0414758
0.0365141
0.0336658
0.0333018
0.0322838
0.0314089
0.0303978
0.0306231
0.0313057
0.032431
0.0338849
0.0350321
0.0350054
0.0364901
0.0366962
0.0420492
0.063093
0.0745436
0.0899934
0.102793
0.102328
0.095538
0.0888408
0.0889183
0.0901474
0.0863085
0.0797799
0.0730354
0.06614
0.0590894
0.0524515
0.0469407
0.0429559
0.0404376
0.0390379
0.0384139
0.0383181
0.0385685
0.0390672
0.0396953
0.0403296
0.0409424
0.0416071
0.0423067
0.0429174
0.0434242
0.0439421
0.0445637
0.0452384
0.0458361
0.0463141
0.0467056
0.0470744
0.0474344
0.0478083
0.0482561
0.0487211
0.0490501
0.0491557
0.0490893
0.0489893
0.0489778
0.0490888
0.0492881
0.0495288
0.0497441
0.0499474
0.0501552
0.0503147
0.0504417
0.0506456
0.0509889
0.051416
0.0518179
0.0521096
0.0522608
0.052303
0.0522973
0.0522981
0.052337
0.0524262
0.0525482
0.0526658
0.052752
0.0528086
0.052874
0.0529881
0.0531483
0.0533059
0.053402
0.0534549
0.053502
0.0536023
0.0537063
0.0537431
0.053842
0.0538542
0.0537805
0.0533896
0.053056
0.0531764
0.0559494
0.0625887
0.063826
0.163859
0.192262
0.233009
0.279726
0.304683
0.300326
0.26936
0.229746
0.205448
0.19976
0.203168
0.214247
0.238069
0.272573
0.318405
0.381744
0.46957
0.592574
0.714658
0.791931
0.838076
0.861017
0.872198
0.919302
1.02056
1.14851
1.28565
1.42019
1.54881
1.66744
1.79177
1.83304
1.76753
1.66804
1.5457
1.42362
1.29346
1.13591
0.972966
0.863433
0.786019
0.716613
0.616039
0.523787
0.458174
0.419473
0.399639
0.38683
0.372221
0.35575
0.337731
0.324119
0.319785
0.31978
0.314718
0.303266
0.290398
0.27708
0.261599
0.246829
0.234378
0.226575
0.228857
0.240303
0.258671
0.274608
0.286121
0.297089
0.309684
0.318998
0.321129
0.317708
0.310142
0.303409
0.307777
0.329551
0.37178
0.439374
0.512778
0.567588
0.632097
0.683945
0.730544
0.78804
0.85735
0.967308
1.10523
1.22673
1.31124
1.35325
1.31526
1.22938
1.12345
0.984705
0.822641
0.676388
0.552167
0.483899
0.472762
0.513563
0.581499
0.661899
0.740377
0.796702
0.792101
0.716674
0.636441
0.566556
0.485363
0.415733
0.362997
0.300164
0.257947
0.180978
0.131785
0.0991793
0.0957529
0.106876
0.114669
0.122028
0.127443
0.122632
0.122641
0.127066
0.108392
0.0856413
0.0681659
0.0569271
0.0470253
0.0415791
0.0364942
0.0333015
0.0309908
0.0301068
0.0301088
0.0306913
0.031298
0.0316202
0.0319957
0.0322236
0.0325708
0.033075
0.0336297
0.0341429
0.0346108
0.0349829
0.0354251
0.0359245
0.0363913
0.036918
0.0375115
0.0381106
0.0387002
0.0392413
0.0398135
0.0404342
0.0411041
0.0418442
0.0425562
0.0431584
0.043691
0.0442465
0.0448238
0.0453736
0.0458832
0.0463947
0.0469364
0.0473767
0.0476096
0.0478044
0.0481189
0.0484582
0.048633
0.0484959
0.0481489
0.0478288
0.0476442
0.0475123
0.0472298
0.0466792
0.0458427
0.0447629
0.043622
0.0425605
0.0416654
0.0408789
0.0399639
0.0388108
0.0375006
0.0362475
0.0351505
0.0341635
0.0331833
0.0320853
0.0308568
0.0296206
0.0285377
0.0276322
0.0267819
0.0258325
0.0247443
0.0236584
0.0226997
0.021833
0.0209762
0.0200952
0.0192148
0.0184088
0.0177134
0.0170424
0.0162322
0.0153811
0.0146111
0.0139494
0.0134179
0.012937
0.0124093
0.0117866
0.0111497
0.0105869
0.0101136
0.00973675
0.00939768
0.00904137
0.00864513
0.0082381
0.00786996
0.00756584
0.00734421
0.00714452
0.00691347
0.00664657
0.00639155
0.00619
0.00604492
0.00593775
0.00584289
0.00574956
0.00564694
0.00553994
0.0054482
0.00536262
0.00530243
0.0052632
0.00524943
0.00525637
0.00524446
0.00519266
0.00515978
0.00516006
0.00517649
0.00519893
0.00520663
0.00520107
0.00520199
0.005213
0.00523767
0.00525977
0.00525718
0.00525256
0.00525241
0.00525534
0.00527744
0.00532155
0.0053643
0.005383
0.00535737
0.00533503
0.00533568
0.00535115
0.00537861
0.00541247
0.00543659
0.00544859
0.00544952
0.00544349
0.00543851
0.00543654
0.00543893
0.0054577
0.00549465
0.00551754
0.00550784
0.0054832
0.005475
0.00548138
0.0054863
0.0054933
0.00550466
0.00550548
0.00549291
0.00547851
0.00546842
0.0054594
0.00545034
0.00544676
0.00543939
0.00542689
0.00540589
0.00537478
0.0053414
0.00531856
0.00529766
0.00526526
0.00522094
0.00516814
0.00512218
0.00507794
0.00502757
0.0049686
0.00490983
0.00486132
0.00481532
0.00476185
0.00469694
0.00463117
0.00457631
0.00452733
0.00448132
0.00443775
0.00439702
0.00436055
0.00432862
0.0043028
0.00428336
0.00427185
0.00426875
0.00426977
0.0042719
0.0042783
0.00429362
0.0043197
0.00435116
0.00438051
0.0044015
0.00441573
0.00442744
0.00444336
0.00446181
0.00447773
0.00448973
0.00449752
0.00450235
0.00450748
0.00451205
0.00450696
0.00449442
0.00448062
0.00446949
0.00446125
0.00445241
0.00443931
0.00442189
0.00440512
0.00439082
0.00437752
0.00436433
0.00435146
0.00433697
0.00432002
0.00430447
0.00429125
0.00427905
0.00426737
0.00425698
0.00424658
0.00423411
0.00421995
0.00420516
0.00419217
0.00418046
0.00416617
0.00414638
0.00412364
0.00410307
0.0040859
0.0040702
0.00405379
0.00403676
0.00401957
0.003999
0.00397424
0.00394859
0.00392609
0.00390577
0.00388525
0.00386332
0.00383862
0.00381205
0.0037869
0.00376309
0.0037378
0.00371041
0.00368368
0.00365747
0.00362992
0.00360326
0.0035791
0.0035543
0.00352761
0.00349531
0.00346144
0.00342902
0.00339852
0.00336755
0.00333784
0.00330318
0.00326367
0.00322301
0.00317867
0.00313996
0.00309812
0.00306604
0.00303546
0.00301282
0.00299023
0.00294127
0.00289769
0.00288938
0.00293571
0.00303384
0.00311841
0.00307325
0.00324212
0.00323589
0.00296749
0.00270329
0.00252908
0.00251967
0.00249838
0.00253209
0.00253645
0.00250744
0.00247315
0.00242076
0.00239146
0.0024227
0.00258457
0.00284065
0.00312535
0.00310055
0.00353483
0.00367367
0.00330464
0.00275331
0.00235491
0.00222846
0.00208445
0.00206613
0.00204148
0.00201164
0.0020466
0.00207192
0.00212467
0.00216733
0.00213589
0.00222471
0.00234809
0.00278388
0.00392374
0.00516653
0.00709358
0.0100873
0.0112186
0.0104579
0.00895716
0.00788535
0.00698912
0.00615059
0.00558773
0.00535295
0.00521242
0.00500221
0.00470101
0.00433052
0.00391929
0.00351683
0.0031719
0.00291218
0.00273871
0.00263269
0.00257625
0.00255788
0.00256741
0.0025983
0.00264223
0.00269042
0.0027401
0.00279557
0.0028553
0.0029109
0.00296136
0.00301463
0.00307653
0.00314304
0.0032049
0.00325841
0.00330435
0.00334668
0.0033888
0.00343422
0.00348482
0.00353411
0.0035702
0.00358714
0.00359033
0.00359074
0.00359705
0.00361212
0.00363373
0.00365813
0.0036813
0.00370548
0.00373148
0.00375474
0.00377608
0.00380333
0.00384048
0.00388292
0.00392238
0.00395255
0.00397139
0.00398099
0.00398563
0.00398972
0.00399683
0.00400859
0.0040238
0.00403914
0.00405157
0.00406137
0.0040726
0.00408896
0.00410892
0.00412699
0.00413845
0.00414667
0.00415508
0.00416684
0.0041767
0.00417962
0.00418927
0.00419257
0.00418916
0.00416022
0.00414088
0.00418186
0.0044321
0.00506112
0.00526963
0.10187
0.114198
0.131718
0.150281
0.157084
0.150039
0.129661
0.10857
0.098395
0.0988709
0.107814
0.125909
0.160331
0.207166
0.264645
0.334436
0.40987
0.486737
0.558555
0.61225
0.648109
0.679465
0.721773
0.788985
0.863237
0.927402
0.976115
1.01367
1.05161
1.11739
1.20204
1.28604
1.31714
1.26244
1.1474
1.01846
0.889837
0.769617
0.668695
0.598321
0.533918
0.4529
0.367249
0.310141
0.270497
0.244534
0.229618
0.221199
0.21233
0.201779
0.191182
0.183261
0.179714
0.179947
0.179658
0.176705
0.171107
0.162633
0.152434
0.142514
0.134313
0.129773
0.131462
0.136311
0.140477
0.143568
0.147781
0.155952
0.167034
0.177355
0.183574
0.184406
0.180455
0.175594
0.174193
0.179978
0.19596
0.222938
0.256737
0.289998
0.32997
0.373382
0.411078
0.460241
0.51408
0.579661
0.671032
0.780077
0.901455
1.03107
1.11805
1.13925
1.11914
1.02299
0.903603
0.79506
0.67277
0.551871
0.455781
0.400213
0.382609
0.393594
0.424591
0.458841
0.478331
0.468101
0.439242
0.40982
0.371658
0.334339
0.303822
0.276997
0.245121
0.213334
0.173752
0.147672
0.109334
0.0824103
0.0584141
0.0488537
0.0452221
0.0430022
0.0407038
0.0403835
0.0380646
0.0399468
0.0440348
0.0382855
0.0295739
0.022951
0.0183869
0.0148367
0.012687
0.0106984
0.00952554
0.00894191
0.0084731
0.00834814
0.00849013
0.00860718
0.00861515
0.00865421
0.00869741
0.00880183
0.00895157
0.00909303
0.00922963
0.00935305
0.00947389
0.00963107
0.00980921
0.00999811
0.010181
0.0103528
0.0105382
0.0107354
0.0109289
0.0111405
0.0113695
0.0115964
0.0117986
0.0119695
0.0121364
0.0123036
0.0124645
0.0126317
0.0128035
0.0129458
0.0130205
0.0130677
0.0131489
0.0132433
0.0132837
0.013239
0.0131299
0.0130086
0.0129148
0.0128346
0.0127158
0.0125212
0.0122486
0.0119176
0.011564
0.0112212
0.0109152
0.0106375
0.0103439
0.010007
0.00962609
0.00924105
0.00888626
0.00856642
0.00827236
0.0079734
0.00764938
0.00731644
0.00700762
0.00673574
0.00649128
0.0062439
0.00597778
0.00570925
0.00546075
0.00523251
0.00501408
0.00480443
0.00460643
0.00442197
0.0042485
0.00407818
0.0039007
0.00372876
0.00357215
0.00343248
0.00330927
0.00319368
0.00307827
0.00296065
0.00284794
0.00274519
0.00264969
0.00256301
0.0024866
0.00241662
0.00234975
0.00228377
0.00221914
0.0021596
0.00210791
0.00206094
0.00201617
0.00197321
0.00193346
0.00189861
0.00186985
0.00184474
0.0018205
0.0017961
0.00177338
0.0017548
0.00173974
0.00172601
0.00171311
0.00170096
0.00169096
0.00168344
0.00167791
0.00167334
0.00166983
0.0016669
0.00166424
0.00166123
0.00165924
0.00165898
0.00166029
0.00166244
0.00166396
0.00166468
0.00166459
0.00166539
0.00166725
0.00166955
0.00167248
0.00167678
0.00168253
0.00168725
0.00168874
0.00169008
0.00169311
0.00169742
0.0017019
0.00170629
0.00171125
0.00171688
0.00172242
0.00172729
0.00173075
0.00173347
0.00173664
0.00174145
0.00174863
0.00175541
0.00176025
0.00176339
0.00176612
0.00176977
0.00177359
0.00177776
0.0017827
0.00178716
0.00179041
0.00179278
0.00179461
0.00179641
0.00179789
0.00179977
0.00180147
0.00180278
0.00180299
0.00180117
0.00179833
0.00179605
0.0017938
0.00179008
0.00178484
0.00177827
0.00177166
0.00176488
0.00175674
0.00174718
0.00173705
0.00172726
0.00171708
0.00170562
0.00169269
0.00167904
0.00166603
0.00165323
0.00164015
0.00162673
0.00161315
0.00159962
0.0015864
0.0015738
0.00156171
0.00155025
0.0015393
0.00152852
0.00151803
0.00150843
0.00150001
0.00149279
0.00148625
0.00147981
0.00147315
0.00146668
0.00146051
0.00145494
0.00144989
0.00144505
0.00144043
0.00143596
0.00143146
0.00142692
0.00142234
0.00141719
0.001412
0.00140728
0.00140307
0.00139927
0.00139559
0.00139183
0.00138787
0.00138405
0.00138062
0.00137769
0.00137517
0.00137286
0.00137047
0.00136798
0.00136589
0.00136422
0.00136274
0.00136132
0.00136002
0.0013589
0.00135785
0.0013568
0.00135569
0.00135459
0.00135367
0.00135278
0.00135155
0.00134997
0.00134837
0.00134707
0.00134594
0.00134474
0.00134337
0.00134195
0.00134043
0.0013387
0.00133678
0.00133491
0.00133319
0.00133136
0.00132934
0.00132706
0.00132471
0.00132228
0.00131991
0.00131742
0.00131488
0.00131232
0.00130977
0.00130704
0.00130436
0.00130181
0.00129915
0.00129639
0.00129319
0.00128973
0.00128659
0.00128375
0.00128065
0.00127747
0.00127341
0.00126799
0.00126473
0.00126294
0.00126149
0.00126069
0.0012611
0.00125782
0.00124853
0.00125888
0.0012996
0.00134217
0.00140323
0.001446
0.00157595
0.00162208
0.00152167
0.00142567
0.00134807
0.0013161
0.0012566
0.00123535
0.00122619
0.00122459
0.00123302
0.00122547
0.00124912
0.00134886
0.00144539
0.00154571
0.00165131
0.00175591
0.00197013
0.0021759
0.00205337
0.00185575
0.00163035
0.00152977
0.00138928
0.00131803
0.00125642
0.00122314
0.00124255
0.00124589
0.00128368
0.00126607
0.00130861
0.00139166
0.0015776
0.00183518
0.00234084
0.00323475
0.00471415
0.00665219
0.00770619
0.00788306
0.00722589
0.00630567
0.00521213
0.00415457
0.00326951
0.00264455
0.002233
0.00198312
0.00183248
0.00173971
0.00168029
0.00163871
0.00160537
0.0015721
0.0015353
0.00149633
0.00145836
0.00142438
0.00139508
0.00137045
0.00135042
0.00133431
0.00132182
0.00131237
0.00130497
0.0012992
0.00129533
0.00129298
0.00129137
0.00129045
0.00129062
0.00129195
0.00129389
0.00129579
0.00129756
0.00129921
0.00130095
0.00130306
0.00130563
0.0013085
0.00131123
0.00131323
0.00131428
0.00131475
0.0013152
0.00131599
0.00131718
0.00131865
0.00132022
0.00132171
0.00132335
0.00132519
0.00132697
0.0013287
0.00133073
0.00133319
0.00133578
0.00133815
0.00134
0.00134126
0.00134202
0.00134248
0.00134289
0.00134349
0.00134438
0.00134551
0.00134669
0.00134772
0.00134861
0.00134961
0.00135089
0.0013523
0.00135355
0.00135436
0.00135514
0.00135576
0.00135646
0.00135742
0.00135685
0.00135885
0.00135907
0.00136238
0.00136271
0.00136984
0.00139874
0.00151415
0.00180019
0.00192509
0.0661713
0.0723677
0.0813768
0.0912894
0.0953811
0.0904346
0.0784755
0.0673578
0.0637615
0.0676362
0.0789794
0.0969485
0.121437
0.153592
0.193964
0.240691
0.28867
0.334341
0.376388
0.415014
0.449901
0.484795
0.521614
0.555376
0.582031
0.600631
0.617052
0.643924
0.692101
0.742756
0.76644
0.755727
0.700407
0.621325
0.545229
0.48793
0.447565
0.416574
0.383651
0.341818
0.291418
0.241352
0.205046
0.177093
0.156402
0.142082
0.133346
0.12769
0.122285
0.116453
0.111076
0.107104
0.105347
0.105736
0.106095
0.104884
0.102009
0.0977431
0.0930175
0.0876203
0.0825369
0.0792615
0.0787572
0.0794598
0.0795442
0.0796415
0.081586
0.087042
0.0946824
0.101635
0.106358
0.108329
0.107605
0.105337
0.103877
0.105003
0.109975
0.119953
0.134212
0.149111
0.165516
0.184937
0.20775
0.240513
0.283798
0.331245
0.395314
0.4797
0.570593
0.667273
0.759889
0.824942
0.871093
0.864211
0.811835
0.739337
0.639516
0.548454
0.463684
0.38655
0.327035
0.289104
0.270866
0.264694
0.265749
0.267017
0.262894
0.255898
0.245433
0.231717
0.219328
0.207521
0.194683
0.184342
0.171997
0.154365
0.135784
0.112249
0.0971558
0.0748668
0.0584691
0.0398159
0.0292416
0.0232824
0.0201563
0.0183409
0.0181444
0.0176406
0.0201987
0.0243774
0.0220889
0.017449
0.0140324
0.0113036
0.00874582
0.00774196
0.00693999
0.00589242
0.00524576
0.00469897
0.00435482
0.00422463
0.00414022
0.00407726
0.0040602
0.00404891
0.00405633
0.00407293
0.00409907
0.00414767
0.00420821
0.00426807
0.0043188
0.00437054
0.00443298
0.00450306
0.0045742
0.00464315
0.00471484
0.00479427
0.00486974
0.00492769
0.00498452
0.00504371
0.00509737
0.00515062
0.00520408
0.00524773
0.00527448
0.00529073
0.00531116
0.00533619
0.00534448
0.005329
0.00529867
0.00526117
0.00522527
0.00518931
0.00514075
0.00507228
0.0049886
0.00489456
0.00479284
0.00468961
0.00458872
0.00449118
0.00439423
0.00429292
0.00418405
0.00407165
0.00396292
0.00385923
0.00376241
0.00366994
0.00357779
0.00348636
0.003396
0.0033091
0.00322892
0.00315318
0.00307779
0.00300115
0.00292575
0.00285534
0.00279067
0.00273009
0.0026704
0.00260925
0.00254797
0.00249048
0.00243809
0.0023888
0.00234022
0.00229136
0.0022423
0.00219463
0.00215053
0.00211102
0.00207418
0.00203648
0.00199701
0.00195749
0.00192132
0.00188947
0.00186045
0.00183281
0.00180543
0.00177782
0.00174966
0.00172188
0.00169759
0.00167732
0.00165804
0.00163847
0.00161963
0.00160246
0.00158624
0.00157067
0.00155765
0.00154682
0.00153634
0.00152542
0.00151434
0.00150412
0.00149586
0.00149022
0.00148631
0.0014828
0.00147861
0.00147343
0.00146903
0.00146616
0.00146452
0.00146358
0.00146276
0.00146218
0.0014615
0.00146115
0.00146251
0.00146414
0.00146513
0.00146609
0.00146667
0.00146726
0.00146964
0.00147357
0.00147755
0.0014806
0.00148302
0.00148498
0.00148719
0.00149078
0.00149555
0.00150006
0.0015039
0.00150795
0.00151225
0.0015162
0.00151964
0.0015234
0.00152826
0.00153362
0.00153877
0.00154322
0.00154663
0.00154982
0.001554
0.00155919
0.00156366
0.00156738
0.00157106
0.001574
0.00157677
0.00158053
0.00158372
0.00158585
0.00158773
0.0015895
0.00159098
0.00159197
0.00159236
0.00159189
0.00159089
0.00158945
0.00158772
0.00158536
0.00158183
0.00157796
0.00157349
0.00156811
0.00156215
0.00155563
0.00154868
0.00154106
0.00153277
0.00152397
0.00151458
0.0015048
0.0014947
0.00148427
0.00147359
0.00146261
0.0014513
0.00143987
0.00142839
0.00141703
0.00140582
0.00139445
0.00138298
0.00137183
0.00136126
0.00135133
0.0013417
0.00133212
0.00132285
0.00131422
0.00130619
0.00129859
0.00129143
0.00128466
0.00127826
0.00127219
0.00126648
0.00126108
0.00125601
0.00125134
0.00124694
0.00124277
0.00123891
0.00123538
0.00123216
0.00122923
0.00122652
0.00122393
0.00122147
0.0012193
0.00121744
0.00121589
0.00121456
0.00121331
0.00121219
0.00121129
0.0012106
0.00121001
0.00120946
0.001209
0.00120863
0.00120838
0.00120826
0.00120808
0.00120787
0.0012078
0.00120792
0.00120795
0.00120776
0.00120752
0.0012074
0.00120739
0.00120733
0.00120716
0.00120697
0.00120677
0.00120648
0.00120608
0.00120575
0.00120549
0.00120514
0.00120463
0.00120393
0.00120327
0.00120269
0.00120206
0.00120112
0.00120015
0.00119934
0.00119866
0.00119782
0.00119676
0.00119553
0.00119449
0.00119375
0.00119286
0.00119175
0.00119026
0.00118807
0.00118799
0.00118988
0.00119155
0.00119817
0.00119797
0.00119488
0.00118957
0.00120083
0.00124175
0.00128641
0.00135043
0.00139703
0.00152509
0.00157115
0.00147935
0.0013901
0.001315
0.0012826
0.0012255
0.00120241
0.0011923
0.0011967
0.00120072
0.00119151
0.00121915
0.0013268
0.00144009
0.00161491
0.00169577
0.00198164
0.00217663
0.00213216
0.0019813
0.00173334
0.00154228
0.00146628
0.0013536
0.00129142
0.00123685
0.00120709
0.00121873
0.0012289
0.00126368
0.00126288
0.00134142
0.00152102
0.00184677
0.00233002
0.00344619
0.00436067
0.00583371
0.00762278
0.00841387
0.00847098
0.00764475
0.00656761
0.00535786
0.0042637
0.00333172
0.00266037
0.00220217
0.00190533
0.0017176
0.00160519
0.00154121
0.00151099
0.00149802
0.00148882
0.00147769
0.00146407
0.00144804
0.00142939
0.00140874
0.00138698
0.0013653
0.0013448
0.0013264
0.00131028
0.00129612
0.00128361
0.0012726
0.00126284
0.00125431
0.00124721
0.00124133
0.00123631
0.00123211
0.00122867
0.00122582
0.00122337
0.00122123
0.00121944
0.00121788
0.00121647
0.00121537
0.00121463
0.00121407
0.00121352
0.00121291
0.00121224
0.00121162
0.00121112
0.00121074
0.00121044
0.00121021
0.00120999
0.00120979
0.00120963
0.0012095
0.00120935
0.00120918
0.00120904
0.00120893
0.00120883
0.00120869
0.00120851
0.00120828
0.00120804
0.00120781
0.00120761
0.00120746
0.00120734
0.00120723
0.00120711
0.00120698
0.00120685
0.00120673
0.00120663
0.00120653
0.00120643
0.00120628
0.00120622
0.00120602
0.0012059
0.00120626
0.00120537
0.0012068
0.00120676
0.00121029
0.00121202
0.00122021
0.00124772
0.00135245
0.00161223
0.00173041
0.0445483
0.0488796
0.0545976
0.0614044
0.0642382
0.0610196
0.0533736
0.0467164
0.0455486
0.0498873
0.0587973
0.0698697
0.0826423
0.0992317
0.120552
0.145204
0.171295
0.198076
0.224307
0.2493
0.272959
0.29496
0.314737
0.331873
0.34576
0.356331
0.364639
0.374559
0.385946
0.387498
0.370923
0.342609
0.308224
0.274306
0.24562
0.2242
0.208605
0.194765
0.179188
0.161592
0.144811
0.129296
0.115453
0.103724
0.0944253
0.087612
0.0829722
0.0796692
0.0765979
0.0734309
0.0706089
0.0685813
0.0676007
0.0677275
0.0682023
0.0678541
0.0663581
0.0641666
0.0617872
0.0590346
0.056074
0.0542361
0.0532226
0.0522833
0.0513874
0.0508835
0.0515559
0.0544532
0.059292
0.0639737
0.0670896
0.0686145
0.068717
0.0678281
0.0670119
0.0671432
0.0686251
0.0722447
0.0783702
0.0857926
0.0939144
0.10293
0.113869
0.12761
0.147553
0.174156
0.211348
0.268076
0.338151
0.405695
0.479299
0.540259
0.590551
0.621449
0.617837
0.591336
0.541571
0.481309
0.420842
0.362668
0.310527
0.26664
0.230711
0.20293
0.183776
0.170369
0.160457
0.15316
0.146961
0.143239
0.140114
0.138616
0.136776
0.135483
0.13352
0.13
0.126162
0.119498
0.108324
0.0956447
0.0796154
0.0696861
0.0548921
0.0437571
0.0308372
0.0224829
0.0174821
0.0149898
0.0133913
0.0136586
0.0140273
0.0176925
0.0225512
0.0218639
0.0177375
0.0139509
0.0119986
0.0100364
0.00853078
0.00727397
0.00580135
0.00486343
0.00416943
0.00374227
0.00355406
0.00342425
0.00331753
0.00324648
0.00319827
0.00319381
0.00321333
0.00322926
0.00323915
0.00325793
0.00328309
0.00331719
0.00335241
0.00338034
0.00340455
0.00343612
0.00347112
0.0034985
0.0035254
0.0035505
0.00356729
0.00358322
0.00360146
0.00361639
0.00362857
0.00363779
0.00364022
0.00364179
0.00364091
0.00363448
0.00362644
0.00361465
0.0035982
0.00357696
0.00355142
0.00352416
0.00349688
0.00346675
0.00343333
0.00339651
0.003353
0.0033077
0.00326574
0.00322536
0.00318637
0.00314592
0.00310216
0.00305549
0.00300811
0.00296335
0.00292317
0.00288574
0.00284613
0.00280362
0.00275946
0.0027163
0.0026759
0.00263746
0.00259978
0.00256288