/*--------------------------------*- C++ -*----------------------------------*\
| =========                 |                                                 |
| \\      /  F ield         | OpenFOAM: The Open Source CFD Toolbox           |
|  \\    /   O peration     | Version:  v2006                                 |
|   \\  /    A nd           | Website:  www.openfoam.com                      |
|    \\/     M anipulation  |                                                 |
\*---------------------------------------------------------------------------*/
FoamFile
{
    version     2.0;
    format      ascii;
    class       volScalarField;
    location    "8";
    object      p;
}
// * * * * * * * * * * * * * * * * * * * * * * * * * * * * * * * * * * * * * //

dimensions      [1 -1 -2 0 0 0 0];


internalField   nonuniform List<scalar> 
33000
(
7265.69
7262.88
7261.33
7259.81
7258.67
7258
7257.94
7258.36
7258.7
7258.47
7257.86
7257.22
7256.58
7255.92
7255.31
7254.97
7255.41
7256.76
7258.85
7261.11
7263.4
7265.77
7268.35
7271.05
7273.85
7276.73
7279.65
7282.63
7285.71
7289.01
7292.62
7296.55
7300.84
7305.45
7310.27
7315.17
7320.06
7324.96
7329.9
7334.95
7340.09
7345.35
7350.72
7356.19
7361.74
7367.36
7373.04
7378.8
7384.64
7390.58
7396.6
7402.67
7408.78
7414.93
7421.13
7427.39
7433.72
7440.1
7446.5
7452.93
7459.36
7465.79
7472.2
7478.6
7485
7491.38
7497.76
7504.12
7510.44
7516.72
7522.94
7529.09
7535.17
7541.1
7546.91
7552.37
7557.67
7562.22
7566.82
7576.68
7583.2
7590.2
7597.73
7604.77
7612
7619.91
7627.34
7635.03
7642.53
7650.09
7657.69
7665.16
7672.89
7680.39
7688.03
7695.53
7702.94
7710.37
7717.33
7724.65
7731.69
7738.75
7746.67
7754.21
7761.91
7769.51
7776.88
7784.43
7791.95
7799.64
7807.11
7814.64
7821.85
7829.06
7835.79
7842.79
7848.6
7855.7
7864
7871.29
7878.91
7886.38
7893.77
7901.21
7908.66
7916.02
7923.37
7930.64
7937.89
7945.08
7952.19
7959.23
7966.16
7973.03
7979.8
7986.52
7993.13
7999.63
8006.01
8012.27
8018.41
8024.45
8030.35
8036.13
8041.77
8047.31
8052.72
8058.03
8063.2
8068.24
8073.15
8077.94
8082.62
8087.19
8091.63
8095.94
8100.13
8104.21
8108.17
8112.03
8115.77
8119.4
8122.93
8126.34
8129.66
8132.88
8136.01
8139.04
8141.98
8144.85
8147.63
8150.34
8152.96
8155.52
8158.01
8160.43
8162.75
8164.99
8167.12
8169.16
8171.11
8172.95
8174.68
8176.29
8177.77
8179.12
8180.34
8181.42
8182.37
8183.17
8183.8
8184.29
8184.61
8184.77
8184.77
8184.59
8184.24
8183.7
8182.97
8182.06
8180.97
8179.69
8178.22
8176.54
8174.67
8172.6
8170.34
8167.87
8165.21
8162.35
8159.3
8156.06
8152.62
8148.99
8145.16
8141.15
8136.97
8132.62
8128.1
8123.4
8118.54
8113.53
8108.36
8103.05
8097.61
8092.04
8086.35
8080.54
8074.61
8068.59
8062.48
8056.28
8050.01
8043.67
8037.26
8030.8
8024.29
8017.75
8011.17
8004.58
7997.97
7991.36
7984.75
7978.15
7971.56
7964.99
7958.45
7951.96
7945.5
7939.09
7932.73
7926.42
7920.18
7914.02
7907.92
7901.9
7895.96
7890.11
7884.34
7878.67
7873.08
7867.6
7862.21
7856.92
7851.73
7846.64
7841.67
7836.8
7832.04
7827.38
7822.83
7818.38
7814.05
7809.82
7805.7
7801.69
7797.79
7793.98
7790.28
7786.69
7783.19
7779.79
7776.49
7773.29
7770.19
7767.17
7764.25
7761.42
7758.67
7756.01
7753.44
7750.95
7748.53
7746.2
7743.94
7741.75
7739.63
7737.58
7735.6
7733.68
7731.82
7730.03
7728.3
7726.62
7725
7723.43
7721.92
7720.46
7719.05
7717.68
7716.37
7715.09
7713.87
7712.68
7711.54
7710.43
7709.37
7708.35
7707.38
7706.44
7705.55
7704.71
7703.9
7703.14
7702.42
7701.74
7701.11
7700.52
7699.96
7699.45
7698.98
7698.56
7698.17
7697.82
7697.51
7697.24
7697.01
7696.82
7696.67
7696.55
7696.47
7696.43
7696.42
7696.45
7696.52
7696.61
7696.74
7696.91
7697.1
7697.33
7697.58
7697.87
7698.18
7698.53
7698.9
7699.29
7699.71
7700.16
7700.63
7701.12
7701.63
7702.17
7702.72
7703.3
7703.9
7704.51
7705.14
7705.79
7706.45
7707.13
7707.82
7708.53
7709.24
7709.98
7710.72
7711.47
7712.24
7713.01
7713.8
7714.59
7715.39
7716.2
7717.02
7717.84
7718.67
7719.51
7720.36
7721.21
7722.07
7722.93
7723.8
7724.68
7725.56
7726.45
7727.34
7728.24
7729.15
7730.06
7730.97
7731.9
7732.83
7733.77
7734.71
7735.66
7736.61
7737.58
7738.55
7739.53
7740.51
7741.51
7742.51
7743.53
7744.55
7745.58
7746.63
7747.68
7748.74
7749.82
7750.9
7751.99
7753.09
7754.21
7755.31
7756.46
7757.58
7758.68
7759.81
7761
7762.05
7763.43
7764.49
7765.29
7766.38
7767.4
7768.55
7769.69
7770.9
7772.13
7773.39
7774.68
7776
7777.34
7778.7
7780.07
7781.47
7782.92
7784.34
7785.83
7787.28
7788.65
7790.13
7791.57
7793.07
7794.55
7796.09
7797.61
7799.17
7800.71
7802.27
7803.81
7805.39
7806.88
7808.5
7809.98
7811.42
7812.85
7814.37
7815.5
7817.56
7818.7
7819.49
7820.48
7821.55
7822.66
7823.81
7824.97
7826.14
7827.33
7828.53
7829.73
7830.93
7832.13
7833.33
7834.53
7835.71
7836.9
7838.07
7839.23
7840.39
7841.53
7842.66
7843.78
7844.88
7845.97
7847.04
7848.09
7849.13
7850.15
7851.15
7852.13
7853.1
7854.04
7854.96
7855.85
7856.73
7857.58
7858.41
7859.21
7859.99
7860.74
7861.46
7862.16
7862.83
7863.47
7864.09
7864.67
7865.23
7865.75
7866.24
7866.7
7867.13
7867.52
7867.89
7868.21
7868.5
7868.76
7868.98
7869.17
7869.32
7869.43
7869.5
7869.54
7869.54
7869.5
7869.42
7869.3
7869.14
7868.95
7868.71
7868.43
7868.12
7867.76
7867.36
7866.92
7866.44
7865.92
7865.36
7864.76
7864.25
7862.77
7068.37
7065.79
7064.21
7062.71
7061.43
7060.68
7060.39
7060.35
7060.19
7059.8
7059.21
7058.55
7057.88
7057.17
7056.52
7056.24
7056.91
7058.78
7061.39
7063.93
7066.44
7069.02
7071.69
7074.41
7077.16
7079.93
7082.72
7085.55
7088.48
7091.67
7095.33
7099.46
7103.95
7108.72
7113.66
7118.68
7123.63
7128.5
7133.45
7138.52
7143.69
7148.97
7154.34
7159.8
7165.35
7170.97
7176.68
7182.45
7188.3
7194.23
7200.25
7206.33
7212.45
7218.62
7224.83
7231.09
7237.41
7243.79
7250.2
7256.63
7263.07
7269.51
7275.95
7282.38
7288.83
7295.28
7301.71
7308.09
7314.42
7320.7
7326.94
7333.15
7339.33
7345.42
7351.43
7357.33
7363.12
7368.79
7374.48
7380.36
7385.28
7390.67
7401.83
7408.75
7416.54
7423.94
7431.15
7438.51
7445.66
7453.69
7461.33
7468.99
7476.71
7484.24
7491.93
7499.45
7507.12
7514.52
7522.1
7529.07
7536.24
7543.25
7550.64
7557.71
7564.89
7572.89
7580.98
7588.53
7596.35
7603.82
7611.18
7618.58
7625.96
7633.27
7640.42
7647.52
7654.4
7661.2
7668.35
7674.39
7681.68
7690.07
7697.59
7705.23
7712.63
7719.92
7727.21
7734.53
7741.75
7748.98
7756.07
7763.14
7770.07
7776.96
7783.75
7790.47
7797.08
7803.58
7809.96
7816.22
7822.37
7828.41
7834.32
7840.11
7845.77
7851.31
7856.73
7862.03
7867.19
7872.23
7877.14
7881.94
7886.62
7891.18
7895.61
7899.92
7904.11
7908.2
7912.16
7916.01
7919.74
7923.37
7926.89
7930.31
7933.63
7936.86
7939.98
7943.01
7945.96
7948.82
7951.61
7954.31
7956.94
7959.51
7962
7964.41
7966.74
7968.98
7971.13
7973.18
7975.12
7976.96
7978.7
7980.31
7981.8
7983.16
7984.38
7985.47
7986.42
7987.23
7987.88
7988.37
7988.7
7988.86
7988.86
7988.69
7988.34
7987.8
7987.09
7986.18
7985.1
7983.82
7982.34
7980.67
7978.8
7976.74
7974.47
7972.01
7969.35
7966.49
7963.43
7960.19
7956.75
7953.11
7949.29
7945.28
7941.09
7936.73
7932.2
7927.5
7922.63
7917.61
7912.44
7907.12
7901.67
7896.09
7890.38
7884.56
7878.63
7872.6
7866.47
7860.27
7853.98
7847.62
7841.2
7834.72
7828.2
7821.64
7815.06
7808.46
7801.84
7795.22
7788.59
7781.98
7775.38
7768.8
7762.26
7755.75
7749.28
7742.86
7736.49
7730.18
7723.93
7717.76
7711.65
7705.62
7699.67
7693.81
7688.04
7682.36
7676.78
7671.28
7665.89
7660.59
7655.4
7650.32
7645.34
7640.47
7635.7
7631.04
7626.49
7622.05
7617.71
7613.48
7609.36
7605.35
7601.44
7597.64
7593.94
7590.35
7586.85
7583.45
7580.16
7576.96
7573.85
7570.84
7567.92
7565.09
7562.34
7559.69
7557.11
7554.62
7552.21
7549.87
7547.61
7545.42
7543.31
7541.26
7539.28
7537.36
7535.51
7533.71
7531.98
7530.3
7528.68
7527.12
7525.61
7524.15
7522.74
7521.37
7520.06
7518.79
7517.56
7516.37
7515.23
7514.13
7513.07
7512.05
7511.08
7510.15
7509.26
7508.41
7507.61
7506.85
7506.13
7505.45
7504.82
7504.23
7503.68
7503.17
7502.7
7502.28
7501.89
7501.54
7501.24
7500.97
7500.74
7500.55
7500.4
7500.29
7500.21
7500.17
7500.16
7500.19
7500.26
7500.36
7500.49
7500.66
7500.85
7501.08
7501.34
7501.63
7501.94
7502.28
7502.66
7503.05
7503.47
7503.92
7504.39
7504.89
7505.4
7505.94
7506.5
7507.07
7507.67
7508.29
7508.92
7509.57
7510.23
7510.91
7511.6
7512.31
7513.03
7513.76
7514.51
7515.26
7516.03
7516.8
7517.59
7518.38
7519.18
7519.99
7520.81
7521.63
7522.47
7523.3
7524.15
7525
7525.86
7526.72
7527.59
7528.47
7529.35
7530.24
7531.13
7532.03
7532.93
7533.84
7534.76
7535.69
7536.61
7537.55
7538.49
7539.44
7540.39
7541.36
7542.33
7543.3
7544.29
7545.28
7546.28
7547.29
7548.32
7549.35
7550.4
7551.44
7552.51
7553.57
7554.67
7555.75
7556.88
7557.97
7559.05
7560.16
7561.34
7562.45
7563.84
7564.94
7565.7
7566.83
7567.78
7568.86
7569.93
7571.05
7572.2
7573.38
7574.59
7575.83
7577.1
7578.38
7579.72
7581.05
7582.46
7583.82
7585.28
7586.65
7588.03
7589.43
7590.89
7592.32
7593.82
7595.29
7596.81
7598.33
7599.83
7601.4
7602.9
7604.53
7606.01
7607.73
7609.18
7610.74
7612.14
7613.79
7615.05
7617.36
7618.68
7619.53
7620.62
7621.77
7622.91
7624.05
7625.2
7626.36
7627.54
7628.72
7629.92
7631.12
7632.32
7633.53
7634.74
7635.94
7637.15
7638.34
7639.54
7640.72
7641.9
7643.06
7644.22
7645.36
7646.49
7647.61
7648.71
7649.8
7650.88
7651.93
7652.97
7654
7655
7655.98
7656.95
7657.89
7658.81
7659.71
7660.58
7661.44
7662.27
7663.07
7663.85
7664.6
7665.33
7666.03
7666.7
7667.34
7667.96
7668.54
7669.1
7669.62
7670.12
7670.58
7671.01
7671.4
7671.77
7672.09
7672.39
7672.65
7672.87
7673.06
7673.21
7673.32
7673.4
7673.44
7673.44
7673.4
7673.32
7673.21
7673.05
7672.86
7672.62
7672.35
7672.03
7671.68
7671.28
7670.84
7670.36
7669.84
7669.28
7668.69
7668.18
7666.71
6870.03
6867.9
6866.33
6864.88
6863.65
6862.94
6862.3
6861.78
6861.32
6860.8
6860.23
6859.74
6859.28
6858.67
6858.01
6857.7
6858.37
6860.49
6863.32
6866.39
6869.42
6872.28
6874.99
6877.64
6880.31
6883
6885.72
6888.53
6891.45
6894.67
6898.29
6902.38
6906.84
6911.64
6916.59
6921.59
6926.61
6931.61
6936.61
6941.74
6946.99
6952.32
6957.71
6963.19
6968.75
6974.39
6980.13
6985.94
6991.81
6997.75
7003.76
7009.85
7015.99
7022.18
7028.42
7034.7
7041.03
7047.4
7053.82
7060.27
7066.74
7073.21
7079.7
7086.2
7092.71
7099.22
7105.71
7112.15
7118.54
7124.85
7131.15
7137.44
7143.69
7149.91
7156.08
7162.22
7168.28
7174.41
7180.39
7186.68
7193.02
7199.28
7205.5
7210.77
7216.27
7227.79
7235.03
7243.35
7250.47
7257.87
7265.15
7272.35
7280.58
7288.08
7295.93
7303.46
7311.09
7318.58
7326.11
7333.56
7340.89
7348.29
7355.51
7363
7370.24
7377.54
7384.51
7391.96
7399.14
7407.31
7415.35
7423.1
7430.66
7437.75
7444.87
7452.12
7459.21
7466.45
7473.67
7480.79
7487.7
7494.79
7500.9
7508.13
7516.41
7523.84
7531.37
7538.65
7545.83
7552.98
7560.14
7567.19
7574.18
7581.1
7587.89
7594.62
7601.21
7607.71
7614.08
7620.35
7626.5
7632.53
7638.46
7644.26
7649.94
7655.48
7660.9
7666.19
7671.35
7676.38
7681.31
7686.11
7690.79
7695.34
7699.76
7704.07
7708.27
7712.35
7716.32
7720.17
7723.89
7727.52
7731.04
7734.46
7737.78
7741
7744.13
7747.16
7750.11
7752.97
7755.76
7758.47
7761.11
7763.68
7766.17
7768.58
7770.92
7773.17
7775.33
7777.39
7779.35
7781.2
7782.94
7784.56
7786.06
7787.44
7788.67
7789.77
7790.73
7791.54
7792.21
7792.72
7793.06
7793.23
7793.24
7793.07
7792.73
7792.21
7791.51
7790.61
7789.53
7788.25
7786.78
7785.12
7783.26
7781.2
7778.93
7776.47
7773.8
7770.95
7767.9
7764.65
7761.2
7757.56
7753.73
7749.71
7745.52
7741.15
7736.6
7731.89
7727.01
7721.97
7716.79
7711.45
7705.98
7700.37
7694.65
7688.8
7682.85
7676.79
7670.65
7664.41
7658.1
7651.71
7645.27
7638.76
7632.22
7625.64
7619.04
7612.41
7605.77
7599.12
7592.47
7585.83
7579.21
7572.61
7566.05
7559.52
7553.03
7546.59
7540.2
7533.88
7527.62
7521.43
7515.3
7509.26
7503.3
7497.42
7491.64
7485.95
7480.35
7474.85
7469.45
7464.15
7458.96
7453.86
7448.88
7444
7439.23
7434.57
7430.01
7425.57
7421.24
7417.01
7412.89
7408.87
7404.96
7401.16
7397.46
7393.87
7390.37
7386.98
7383.68
7380.48
7377.38
7374.37
7371.45
7368.62
7365.88
7363.22
7360.65
7358.16
7355.75
7353.41
7351.16
7348.97
7346.86
7344.81
7342.83
7340.91
7339.06
7337.27
7335.54
7333.87
7332.25
7330.69
7329.18
7327.72
7326.31
7324.95
7323.64
7322.37
7321.14
7319.96
7318.82
7317.72
7316.66
7315.65
7314.68
7313.75
7312.86
7312.02
7311.22
7310.46
7309.74
7309.07
7308.44
7307.85
7307.31
7306.8
7306.34
7305.92
7305.53
7305.19
7304.89
7304.62
7304.4
7304.21
7304.06
7303.95
7303.88
7303.84
7303.84
7303.88
7303.95
7304.05
7304.18
7304.35
7304.55
7304.78
7305.05
7305.34
7305.65
7306
7306.38
7306.78
7307.2
7307.65
7308.13
7308.62
7309.14
7309.68
7310.24
7310.82
7311.42
7312.04
7312.67
7313.32
7313.99
7314.67
7315.37
7316.08
7316.8
7317.53
7318.28
7319.04
7319.8
7320.58
7321.37
7322.16
7322.96
7323.77
7324.59
7325.42
7326.25
7327.09
7327.93
7328.79
7329.64
7330.51
7331.37
7332.25
7333.13
7334.02
7334.91
7335.81
7336.71
7337.62
7338.54
7339.46
7340.38
7341.32
7342.26
7343.2
7344.15
7345.11
7346.08
7347.05
7348.03
7349.03
7350.03
7351.04
7352.05
7353.09
7354.12
7355.19
7356.23
7357.34
7358.4
7359.45
7360.52
7361.69
7362.78
7364.17
7365.24
7365.98
7367.05
7368.02
7369.1
7370.18
7371.29
7372.35
7373.49
7374.61
7375.78
7376.96
7378.18
7379.44
7380.71
7382.07
7383.37
7384.76
7386.09
7387.39
7388.77
7390.17
7391.57
7393.03
7394.48
7395.96
7397.45
7398.92
7400.47
7401.94
7403.58
7405.07
7406.8
7408.27
7409.88
7411.29
7413
7414.33
7416.76
7418.13
7419.05
7420.2
7421.43
7422.67
7423.95
7425.19
7426.4
7427.6
7428.8
7430
7431.21
7432.42
7433.64
7434.86
7436.08
7437.3
7438.52
7439.74
7440.95
7442.16
7443.35
7444.54
7445.73
7446.9
7448.06
7449.21
7450.34
7451.47
7452.57
7453.67
7454.75
7455.81
7456.85
7457.88
7458.88
7459.87
7460.84
7461.78
7462.71
7463.61
7464.49
7465.35
7466.18
7466.99
7467.78
7468.53
7469.26
7469.96
7470.64
7471.29
7471.9
7472.49
7473.05
7473.57
7474.07
7474.53
7474.96
7475.36
7475.73
7476.06
7476.35
7476.61
7476.84
7477.03
7477.18
7477.3
7477.37
7477.41
7477.42
7477.38
7477.3
7477.19
7477.03
7476.84
7476.61
7476.33
7476.02
7475.66
7475.27
7474.83
7474.35
7473.83
7473.27
7472.68
7472.18
7470.71
6671.33
6669.41
6667.95
6666.61
6665.34
6664.55
6663.77
6662.97
6662.31
6661.78
6661.3
6660.96
6660.78
6660.7
6660.8
6661.25
6662.36
6664.13
6666.49
6669.11
6671.78
6674.5
6677.21
6679.87
6682.57
6685.35
6688.25
6691.29
6694.52
6698.07
6701.98
6706.11
6710.57
6715.21
6719.95
6724.76
6729.62
6734.57
6739.63
6744.8
6750.07
6755.41
6760.82
6766.32
6771.9
6777.57
6783.34
6789.19
6795.09
6801.05
6807.08
6813.18
6819.35
6825.58
6831.86
6838.17
6844.53
6850.92
6857.36
6863.83
6870.34
6876.87
6883.42
6890
6896.57
6903.13
6909.66
6916.17
6922.66
6929.07
6935.46
6941.85
6948.21
6954.55
6960.89
6967.22
6973.55
6979.87
6986.18
6992.53
6998.94
7005.45
7012.19
7018.96
7025.86
7032.45
7038.54
7043.7
7049.3
7060.92
7068.74
7076.95
7084.36
7091.84
7099.38
7107.44
7115.2
7122.87
7130.59
7138.03
7145.61
7152.97
7160.54
7167.81
7175.22
7182.42
7190.28
7197.74
7204.87
7212.39
7219.26
7226.29
7234.23
7242.26
7249.77
7257.24
7264.27
7271.36
7278.57
7285.69
7292.91
7300.16
7307.25
7314.16
7321.22
7327.37
7334.48
7342.53
7349.81
7357.18
7364.29
7371.32
7378.27
7385.24
7392.06
7398.83
7405.43
7411.97
7418.36
7424.65
7430.8
7436.84
7442.76
7448.57
7454.26
7459.82
7465.24
7470.53
7475.68
7480.73
7485.66
7490.46
7495.14
7499.69
7504.11
7508.43
7512.61
7516.69
7520.66
7524.51
7528.24
7531.86
7535.38
7538.8
7542.12
7545.34
7548.47
7551.51
7554.46
7557.33
7560.12
7562.84
7565.48
7568.05
7570.55
7572.97
7575.31
7577.57
7579.74
7581.81
7583.78
7585.65
7587.4
7589.04
7590.55
7591.94
7593.19
7594.31
7595.29
7596.12
7596.8
7597.32
7597.69
7597.88
7597.9
7597.75
7597.43
7596.92
7596.23
7595.35
7594.27
7593.01
7591.55
7589.89
7588.04
7585.98
7583.72
7581.26
7578.6
7575.75
7572.69
7569.43
7565.98
7562.33
7558.49
7554.47
7550.27
7545.88
7541.31
7536.57
7531.67
7526.62
7521.41
7516.05
7510.55
7504.9
7499.14
7493.26
7487.27
7481.18
7475
7468.73
7462.38
7455.95
7449.46
7442.92
7436.35
7429.73
7423.09
7416.42
7409.74
7403.05
7396.37
7389.7
7383.05
7376.42
7369.83
7363.27
7356.74
7350.27
7343.86
7337.51
7331.23
7325.01
7318.87
7312.8
7306.82
7300.93
7295.13
7289.42
7283.81
7278.3
7272.88
7267.58
7262.37
7257.28
7252.28
7247.4
7242.62
7237.95
7233.4
7228.95
7224.62
7220.39
7216.26
7212.25
7208.34
7204.53
7200.84
7197.25
7193.75
7190.36
7187.07
7183.87
7180.77
7177.76
7174.84
7172.02
7169.28
7166.63
7164.06
7161.57
7159.16
7156.83
7154.57
7152.39
7150.28
7148.23
7146.26
7144.35
7142.5
7140.71
7138.98
7137.31
7135.7
7134.14
7132.63
7131.17
7129.77
7128.41
7127.1
7125.83
7124.61
7123.43
7122.29
7121.2
7120.15
7119.14
7118.17
7117.25
7116.36
7115.52
7114.73
7113.97
7113.26
7112.6
7111.97
7111.39
7110.85
7110.35
7109.89
7109.47
7109.09
7108.76
7108.46
7108.2
7107.98
7107.8
7107.66
7107.55
7107.49
7107.45
7107.46
7107.5
7107.57
7107.68
7107.82
7108
7108.2
7108.44
7108.7
7109
7109.32
7109.68
7110.06
7110.46
7110.89
7111.35
7111.83
7112.33
7112.85
7113.39
7113.96
7114.54
7115.15
7115.77
7116.4
7117.06
7117.73
7118.41
7119.11
7119.83
7120.55
7121.29
7122.04
7122.8
7123.57
7124.35
7125.13
7125.93
7126.74
7127.55
7128.37
7129.19
7130.03
7130.87
7131.71
7132.56
7133.42
7134.28
7135.15
7136.03
7136.9
7137.79
7138.68
7139.58
7140.48
7141.39
7142.3
7143.22
7144.14
7145.07
7146.01
7146.95
7147.9
7148.86
7149.81
7150.78
7151.76
7152.73
7153.73
7154.72
7155.77
7156.77
7157.85
7158.87
7159.89
7160.93
7162.08
7163.13
7164.52
7165.56
7166.26
7167.3
7168.24
7169.31
7170.36
7171.45
7172.47
7173.58
7174.65
7175.78
7176.89
7178.06
7179.24
7180.5
7181.74
7182.99
7184.31
7185.58
7186.82
7188.13
7189.48
7190.82
7192.26
7193.64
7195.15
7196.54
7198.09
7199.52
7201.12
7202.58
7204.26
7205.77
7207.23
7208.81
7210.26
7212
7213.36
7215.91
7217.33
7218.28
7219.5
7220.79
7222.12
7223.49
7224.83
7226.13
7227.4
7228.67
7229.92
7231.17
7232.41
7233.65
7234.89
7236.13
7237.37
7238.61
7239.85
7241.09
7242.32
7243.55
7244.77
7245.99
7247.2
7248.4
7249.58
7250.76
7251.93
7253.09
7254.23
7255.36
7256.47
7257.57
7258.66
7259.72
7260.77
7261.8
7262.82
7263.81
7264.78
7265.73
7266.67
7267.57
7268.46
7269.32
7270.16
7270.98
7271.76
7272.53
7273.26
7273.97
7274.65
7275.3
7275.92
7276.51
7277.07
7277.6
7278.1
7278.57
7279
7279.4
7279.77
7280.11
7280.41
7280.67
7280.9
7281.09
7281.25
7281.37
7281.45
7281.49
7281.5
7281.47
7281.39
7281.28
7281.13
7280.94
7280.71
7280.44
7280.12
7279.77
7279.38
7278.94
7278.46
7277.94
7277.38
7276.79
7276.28
7274.82
6472.16
6470.54
6469.12
6467.85
6466.57
6465.63
6464.71
6463.79
6463.13
6462.63
6462.24
6462.04
6462.11
6462.33
6462.81
6463.65
6464.94
6466.65
6468.76
6471.1
6473.58
6476.14
6478.77
6481.52
6484.38
6487.32
6490.38
6493.61
6497.05
6500.75
6504.68
6508.88
6513.27
6517.83
6522.51
6527.29
6532.18
6537.17
6542.31
6547.52
6552.85
6558.22
6563.65
6569.17
6574.79
6580.5
6586.31
6592.19
6598.13
6604.12
6610.19
6616.33
6622.54
6628.81
6635.14
6641.5
6647.89
6654.32
6660.79
6667.31
6673.87
6680.46
6687.08
6693.72
6700.35
6706.97
6713.58
6720.18
6726.76
6733.32
6739.83
6746.33
6752.81
6759.28
6765.75
6772.23
6778.73
6785.24
6791.76
6798.29
6804.85
6811.45
6818.09
6824.8
6831.56
6838.52
6845.51
6852.62
6859.25
6865.61
6870.95
6876.43
6888.09
6896.13
6904.41
6911.67
6919.27
6926.7
6934.91
6942.6
6950.34
6957.98
6965.51
6973.01
6980.55
6988.01
6995.44
7002.84
7010.14
7017.55
7025.21
7032.82
7040.15
7047
7053.56
7061.41
7069.2
7076.66
7084.01
7091.02
7098.09
7105.27
7112.36
7119.52
7126.71
7133.69
7140.55
7147.54
7153.62
7160.6
7168.53
7175.73
7182.87
7189.8
7196.6
7203.24
7209.81
7216.37
7222.77
7229.09
7235.26
7241.31
7247.24
7253.05
7258.75
7264.31
7269.74
7275.02
7280.2
7285.24
7290.17
7294.98
7299.65
7304.2
7308.63
7312.94
7317.14
7321.21
7325.17
7329.02
7332.77
7336.39
7339.91
7343.33
7346.65
7349.88
7353.01
7356.05
7359.01
7361.89
7364.68
7367.41
7370.06
7372.64
7375.14
7377.57
7379.91
7382.18
7384.36
7386.45
7388.44
7390.32
7392.09
7393.74
7395.27
7396.68
7397.96
7399.1
7400.1
7400.95
7401.65
7402.2
7402.59
7402.81
7402.85
7402.72
7402.41
7401.92
7401.25
7400.39
7399.34
7398.09
7396.64
7395
7393.15
7391.1
7388.84
7386.39
7383.74
7380.89
7377.83
7374.56
7371.1
7367.44
7363.59
7359.55
7355.33
7350.92
7346.33
7341.56
7336.63
7331.54
7326.3
7320.9
7315.36
7309.68
7303.87
7297.94
7291.91
7285.77
7279.54
7273.21
7266.81
7260.33
7253.79
7247.2
7240.57
7233.91
7227.21
7220.49
7213.76
7207.02
7200.29
7193.58
7186.89
7180.22
7173.58
7166.97
7160.41
7153.91
7147.46
7141.08
7134.76
7128.51
7122.34
7116.26
7110.25
7104.34
7098.52
7092.79
7087.15
7081.62
7076.19
7070.88
7065.66
7060.55
7055.55
7050.66
7045.87
7041.2
7036.64
7032.19
7027.85
7023.62
7019.49
7015.48
7011.57
7007.77
7004.07
7000.48
6996.99
6993.61
6990.31
6987.12
6984.02
6981.01
6978.1
6975.28
6972.54
6969.89
6967.32
6964.84
6962.43
6960.1
6957.85
6955.67
6953.56
6951.53
6949.55
6947.65
6945.8
6944.02
6942.3
6940.63
6939.02
6937.46
6935.96
6934.51
6933.11
6931.75
6930.44
6929.18
6927.96
6926.79
6925.66
6924.57
6923.52
6922.52
6921.56
6920.64
6919.76
6918.93
6918.14
6917.39
6916.69
6916.03
6915.41
6914.83
6914.3
6913.81
6913.35
6912.94
6912.57
6912.24
6911.96
6911.71
6911.49
6911.32
6911.19
6911.09
6911.03
6911.01
6911.02
6911.06
6911.15
6911.26
6911.41
6911.59
6911.8
6912.05
6912.32
6912.62
6912.95
6913.31
6913.7
6914.11
6914.55
6915.01
6915.49
6916
6916.53
6917.08
6917.65
6918.24
6918.85
6919.47
6920.11
6920.77
6921.45
6922.14
6922.84
6923.56
6924.29
6925.03
6925.78
6926.55
6927.32
6928.1
6928.89
6929.69
6930.5
6931.31
6932.13
6932.96
6933.79
6934.63
6935.48
6936.33
6937.19
6938.05
6938.92
6939.79
6940.67
6941.55
6942.44
6943.33
6944.24
6945.14
6946.05
6946.96
6947.88
6948.81
6949.74
6950.67
6951.62
6952.57
6953.5
6954.48
6955.43
6956.44
6957.41
6958.46
6959.44
6960.42
6961.42
6962.54
6963.55
6964.92
6965.92
6966.57
6967.58
6968.48
6969.51
6970.53
6971.58
6972.57
6973.65
6974.67
6975.78
6976.85
6977.98
6979.11
6980.34
6981.48
6982.75
6983.93
6985.02
6986.27
6987.49
6988.79
6990.07
6991.46
6992.79
6994.25
6995.61
6997.12
6998.51
7000.1
7001.52
7003.19
7004.66
7006.12
7007.68
7009.04
7010.81
7012.29
7014.85
7016.32
7017.29
7018.56
7019.91
7021.3
7022.73
7024.14
7025.51
7026.86
7028.2
7029.53
7030.84
7032.15
7033.44
7034.73
7036.01
7037.29
7038.56
7039.83
7041.09
7042.36
7043.62
7044.87
7046.12
7047.36
7048.6
7049.83
7051.05
7052.26
7053.46
7054.65
7055.83
7056.99
7058.15
7059.28
7060.41
7061.51
7062.61
7063.68
7064.74
7065.78
7066.8
7067.8
7068.78
7069.74
7070.67
7071.59
7072.48
7073.35
7074.2
7075.02
7075.81
7076.58
7077.32
7078.04
7078.72
7079.38
7080
7080.6
7081.17
7081.71
7082.21
7082.68
7083.12
7083.53
7083.9
7084.24
7084.55
7084.82
7085.05
7085.25
7085.41
7085.53
7085.61
7085.66
7085.67
7085.64
7085.57
7085.46
7085.31
7085.12
7084.89
7084.63
7084.32
7083.96
7083.57
7083.14
7082.66
7082.14
7081.59
7081
7080.49
7079.03
6272.6
6271.2
6269.79
6268.54
6267.25
6266.2
6265.21
6264.23
6263.49
6262.98
6262.66
6262.64
6262.95
6263.43
6264.15
6265.19
6266.56
6268.24
6270.21
6272.41
6274.8
6277.34
6280.01
6282.8
6285.74
6288.84
6292.08
6295.47
6299.1
6302.94
6306.97
6311.2
6315.58
6320.11
6324.79
6329.61
6334.56
6339.65
6344.82
6350.09
6355.37
6360.73
6366.19
6371.75
6377.42
6383.18
6389.03
6394.95
6400.93
6406.97
6413.09
6419.28
6425.55
6431.88
6438.26
6444.67
6451.11
6457.58
6464.1
6470.68
6477.3
6483.96
6490.65
6497.35
6504.06
6510.76
6517.46
6524.17
6530.86
6537.55
6544.2
6550.81
6557.41
6564
6570.6
6577.22
6583.85
6590.52
6597.2
6603.89
6610.59
6617.32
6624.1
6630.94
6637.8
6644.66
6651.46
6658.24
6665.02
6672.08
6679.22
6686.23
6692.95
6698.51
6703.84
6715.5
6723.98
6732.19
6739.51
6747.06
6754.6
6762.57
6770.4
6777.98
6785.72
6793.13
6800.82
6808.32
6815.87
6823.39
6830.79
6838.09
6845.34
6852.93
6860.35
6867.47
6874.28
6880.74
6888.52
6896.29
6903.68
6910.97
6917.91
6924.9
6932
6938.99
6946.04
6953.12
6959.94
6966.72
6973.49
6979.53
6986.31
6994.06
7000.97
7007.94
7014.46
7021.05
7027.37
7033.68
7039.88
7045.95
7051.9
7057.72
7063.41
7068.98
7074.41
7079.72
7084.9
7089.96
7094.89
7099.7
7104.37
7108.94
7113.37
7117.68
7121.87
7125.95
7129.91
7133.76
7137.5
7141.14
7144.66
7148.08
7151.4
7154.63
7157.77
7160.83
7163.79
7166.67
7169.48
7172.21
7174.87
7177.45
7179.96
7182.4
7184.75
7187.03
7189.21
7191.32
7193.33
7195.23
7197.01
7198.68
7200.23
7201.67
7202.98
7204.15
7205.17
7206.05
7206.78
7207.35
7207.77
7208.02
7208.09
7207.99
7207.7
7207.24
7206.59
7205.75
7204.73
7203.5
7202.07
7200.44
7198.6
7196.56
7194.32
7191.87
7189.23
7186.37
7183.31
7180.04
7176.56
7172.89
7169.03
7164.97
7160.72
7156.28
7151.66
7146.86
7141.89
7136.76
7131.47
7126.02
7120.43
7114.7
7108.84
7102.86
7096.76
7090.55
7084.25
7077.86
7071.39
7064.85
7058.25
7051.59
7044.9
7038.16
7031.4
7024.62
7017.82
7011.03
7004.24
6997.47
6990.71
6983.99
6977.29
6970.64
6964.03
6957.48
6950.99
6944.56
6938.21
6931.92
6925.72
6919.6
6913.57
6907.63
6901.78
6896.02
6890.37
6884.82
6879.37
6874.04
6868.81
6863.69
6858.67
6853.77
6848.98
6844.3
6839.73
6835.27
6830.93
6826.69
6822.57
6818.56
6814.65
6810.85
6807.16
6803.57
6800.08
6796.69
6793.41
6790.22
6787.12
6784.12
6781.21
6778.39
6775.66
6773.01
6770.45
6767.97
6765.56
6763.24
6760.99
6758.82
6756.71
6754.68
6752.71
6750.81
6748.97
6747.19
6745.47
6743.81
6742.21
6740.65
6739.16
6737.71
6736.31
6734.96
6733.66
6732.41
6731.19
6730.03
6728.9
6727.82
6726.78
6725.79
6724.83
6723.92
6723.05
6722.23
6721.45
6720.71
6720.01
6719.36
6718.75
6718.18
6717.66
6717.17
6716.73
6716.33
6715.97
6715.65
6715.37
6715.13
6714.93
6714.77
6714.64
6714.55
6714.5
6714.49
6714.51
6714.57
6714.66
6714.78
6714.94
6715.13
6715.35
6715.6
6715.89
6716.2
6716.54
6716.9
6717.3
6717.72
6718.16
6718.63
6719.12
6719.64
6720.17
6720.73
6721.31
6721.9
6722.52
6723.15
6723.8
6724.47
6725.15
6725.85
6726.56
6727.28
6728.01
6728.76
6729.52
6730.28
6731.06
6731.85
6732.64
6733.44
6734.25
6735.07
6735.89
6736.72
6737.56
6738.4
6739.24
6740.09
6740.95
6741.81
6742.68
6743.55
6744.43
6745.31
6746.19
6747.09
6747.98
6748.88
6749.79
6750.7
6751.61
6752.54
6753.46
6754.39
6755.32
6756.28
6757.22
6758.21
6759.15
6760.04
6761.02
6761.95
6763.06
6764.02
6765.39
6766.34
6766.95
6767.91
6768.78
6769.77
6770.75
6771.76
6772.71
6773.75
6774.73
6775.8
6776.82
6777.91
6778.98
6780.17
6781.26
6782.48
6783.6
6784.58
6785.78
6786.89
6788.14
6789.35
6790.69
6791.96
6793.37
6794.67
6796.14
6797.47
6799.05
6800.4
6802.15
6803.49
6805.1
6806.48
6808.19
6809.58
6812.17
6813.66
6814.55
6815.89
6817.28
6818.72
6820.2
6821.71
6823.2
6824.63
6826.05
6827.45
6828.84
6830.22
6831.6
6832.96
6834.31
6835.65
6836.98
6838.3
6839.62
6840.93
6842.23
6843.53
6844.82
6846.11
6847.39
6848.67
6849.93
6851.19
6852.45
6853.69
6854.93
6856.15
6857.36
6858.56
6859.75
6860.93
6862.09
6863.24
6864.37
6865.49
6866.59
6867.68
6868.75
6869.8
6870.83
6871.83
6872.82
6873.79
6874.74
6875.66
6876.56
6877.44
6878.29
6879.12
6879.92
6880.7
6881.45
6882.17
6882.86
6883.53
6884.16
6884.77
6885.34
6885.89
6886.4
6886.88
6887.33
6887.74
6888.12
6888.47
6888.78
6889.05
6889.29
6889.49
6889.66
6889.79
6889.88
6889.93
6889.94
6889.91
6889.85
6889.74
6889.6
6889.41
6889.19
6888.92
6888.61
6888.26
6887.87
6887.44
6886.97
6886.45
6885.9
6885.31
6884.81
6883.34
6072.56
6071.25
6069.86
6068.64
6067.36
6066.18
6065.14
6064.18
6063.46
6063
6062.79
6062.92
6063.3
6063.92
6064.82
6065.98
6067.4
6069.1
6071.06
6073.23
6075.61
6078.16
6080.87
6083.72
6086.74
6089.93
6093.29
6096.81
6100.55
6104.48
6108.59
6112.85
6117.26
6121.83
6126.55
6131.42
6136.45
6141.6
6146.83
6152.12
6157.46
6162.88
6168.4
6174.04
6179.78
6185.61
6191.52
6197.48
6203.51
6209.6
6215.79
6222.03
6228.37
6234.77
6241.22
6247.71
6254.22
6260.76
6267.33
6273.96
6280.64
6287.37
6294.13
6300.91
6307.7
6314.5
6321.29
6328.1
6334.91
6341.72
6348.5
6355.26
6361.98
6368.68
6375.4
6382.15
6388.92
6395.72
6402.54
6409.38
6416.23
6423.09
6429.97
6436.87
6443.79
6450.75
6457.73
6464.72
6471.78
6478.79
6485.73
6492.58
6499.66
6506.79
6513.92
6520.91
6526.74
6531.92
6543.66
6552.3
6560.56
6567.74
6575.34
6582.78
6590.89
6598.59
6606.45
6613.93
6621.54
6628.83
6636.37
6643.82
6651.34
6658.61
6665.8
6672.88
6680.45
6687.8
6694.84
6701.64
6708.01
6715.68
6723.39
6730.75
6737.93
6744.77
6751.67
6758.62
6765.55
6772.44
6779.54
6786.28
6793.13
6799.65
6806.24
6811.95
6818.44
6825.62
6832.12
6838.5
6844.74
6850.77
6856.72
6862.56
6868.25
6873.83
6879.29
6884.6
6889.8
6894.84
6899.78
6904.58
6909.27
6913.83
6918.28
6922.59
6926.79
6930.86
6934.83
6938.68
6942.43
6946.08
6949.61
6953.04
6956.36
6959.6
6962.75
6965.81
6968.78
6971.68
6974.49
6977.23
6979.9
6982.49
6985.02
6987.46
6989.82
6992.11
6994.31
6996.43
6998.46
7000.37
7002.18
7003.87
7005.45
7006.91
7008.25
7009.46
7010.52
7011.43
7012.19
7012.79
7013.24
7013.52
7013.64
7013.57
7013.31
7012.88
7012.26
7011.45
7010.45
7009.25
7007.84
7006.23
7004.41
7002.38
7000.16
6997.72
6995.08
6992.22
6989.14
6985.87
6982.39
6978.7
6974.82
6970.73
6966.44
6961.97
6957.31
6952.47
6947.46
6942.27
6936.92
6931.41
6925.76
6919.97
6914.04
6907.99
6901.82
6895.53
6889.15
6882.68
6876.13
6869.51
6862.83
6856.1
6849.32
6842.5
6835.66
6828.8
6821.94
6815.07
6808.21
6801.36
6794.53
6787.74
6780.98
6774.27
6767.6
6761
6754.45
6747.97
6741.57
6735.24
6729
6722.84
6716.77
6710.8
6704.91
6699.13
6693.46
6687.88
6682.42
6677.06
6671.81
6666.67
6661.65
6656.73
6651.93
6647.24
6642.67
6638.21
6633.86
6629.62
6625.49
6621.48
6617.58
6613.78
6610.09
6606.5
6603.01
6599.63
6596.35
6593.16
6590.07
6587.07
6584.17
6581.35
6578.63
6575.98
6573.43
6570.95
6568.55
6566.23
6563.99
6561.82
6559.72
6557.69
6555.73
6553.83
6552
6550.22
6548.51
6546.86
6545.26
6543.71
6542.22
6540.78
6539.39
6538.05
6536.75
6535.51
6534.3
6533.14
6532.03
6530.95
6529.93
6528.94
6528
6527.1
6526.24
6525.42
6524.65
6523.92
6523.24
6522.59
6521.99
6521.44
6520.92
6520.45
6520.02
6519.63
6519.28
6518.97
6518.7
6518.48
6518.29
6518.14
6518.02
6517.95
6517.91
6517.91
6517.94
6518.01
6518.11
6518.25
6518.42
6518.62
6518.85
6519.11
6519.41
6519.73
6520.08
6520.46
6520.86
6521.29
6521.74
6522.22
6522.72
6523.24
6523.79
6524.36
6524.94
6525.55
6526.17
6526.81
6527.47
6528.14
6528.83
6529.53
6530.25
6530.98
6531.72
6532.47
6533.24
6534.01
6534.79
6535.58
6536.38
6537.19
6538
6538.82
6539.64
6540.47
6541.31
6542.15
6543
6543.85
6544.7
6545.56
6546.43
6547.3
6548.18
6549.05
6549.94
6550.82
6551.72