/*--------------------------------*- C++ -*----------------------------------*\
| =========                 |                                                 |
| \\      /  F ield         | OpenFOAM: The Open Source CFD Toolbox           |
|  \\    /   O peration     | Version:  v2006                                 |
|   \\  /    A nd           | Website:  www.openfoam.com                      |
|    \\/     M anipulation  |                                                 |
\*---------------------------------------------------------------------------*/
FoamFile
{
    version     2.0;
    format      ascii;
    class       volScalarField;
    location    "8";
    object      p_rgh;
}
// * * * * * * * * * * * * * * * * * * * * * * * * * * * * * * * * * * * * * //

dimensions      [1 -1 -2 0 0 0 0];


internalField   nonuniform List<scalar> 
33000
(
7363.79
7360.98
7359.43
7357.91
7356.77
7356.1
7356.04
7356.46
7356.8
7356.57
7355.95
7355.32
7354.68
7354.02
7353.41
7353.07
7353.51
7354.86
7356.95
7359.21
7361.5
7363.87
7366.45
7369.16
7371.96
7374.83
7377.75
7380.73
7383.81
7387.11
7390.72
7394.66
7398.94
7403.55
7408.37
7413.27
7418.16
7423.06
7428
7433.04
7438.15
7443.38
7448.81
7454.29
7459.84
7465.45
7471.11
7476.83
7482.71
7488.68
7494.7
7500.77
7506.87
7512.99
7519.17
7525.47
7531.81
7538.2
7544.6
7551.03
7557.46
7563.89
7570.3
7576.7
7583.09
7589.44
7595.79
7602.19
7608.53
7614.81
7621.04
7627.19
7633.26
7639.2
7645.01
7650.47
7655.77
7660.32
7664.91
7674.74
7681.25
7688.25
7695.78
7702.82
7710.05
7717.96
7725.39
7733.11
7740.63
7748.19
7755.79
7763.26
7770.99
7778.49
7786.13
7793.62
7801.02
7808.44
7815.4
7822.73
7829.79
7836.84
7844.77
7852.31
7860
7867.58
7874.95
7882.5
7890.02
7897.72
7905.19
7912.74
7919.94
7927.15
7933.86
7940.86
7946.69
7953.79
7962.1
7969.39
7976.99
7984.46
7991.86
7999.31
8006.76
8014.12
8021.44
8028.71
8035.98
8043.18
8050.28
8057.33
8064.25
8071.1
8077.87
8084.61
8091.23
8097.73
8104.1
8110.36
8116.51
8122.54
8128.45
8134.22
8139.85
8145.38
8150.8
8156.12
8161.29
8166.33
8171.23
8176.01
8180.71
8185.29
8189.73
8194.04
8198.22
8202.29
8206.26
8210.12
8213.87
8217.5
8221.02
8224.44
8227.75
8230.98
8234.11
8237.13
8240.08
8242.95
8245.73
8248.43
8251.06
8253.61
8256.11
8258.53
8260.85
8263.08
8265.21
8267.24
8269.2
8271.04
8272.78
8274.38
8275.86
8277.21
8278.42
8279.52
8280.46
8281.26
8281.89
8282.37
8282.69
8282.86
8282.87
8282.69
8282.34
8281.8
8281.06
8280.15
8279.06
8277.79
8276.31
8274.64
8272.77
8270.69
8268.43
8265.97
8263.31
8260.44
8257.39
8254.15
8250.72
8247.09
8243.26
8239.24
8235.06
8230.71
8226.19
8221.5
8216.64
8211.62
8206.44
8201.14
8195.71
8190.14
8184.45
8178.64
8172.71
8166.68
8160.57
8154.38
8148.11
8141.77
8135.36
8128.9
8122.39
8115.84
8109.27
8102.67
8096.06
8089.46
8082.85
8076.25
8069.66
8063.09
8056.54
8050.05
8043.6
8037.19
8030.83
8024.52
8018.28
8012.11
8006.02
8000
7994.06
7988.21
7982.44
7976.76
7971.18
7965.7
7960.31
7955.02
7949.83
7944.74
7939.77
7934.9
7930.14
7925.48
7920.93
7916.48
7912.14
7907.92
7903.8
7899.79
7895.89
7892.08
7888.38
7884.79
7881.29
7877.89
7874.59
7871.39
7868.29
7865.27
7862.35
7859.52
7856.77
7854.11
7851.54
7849.05
7846.63
7844.3
7842.04
7839.85
7837.73
7835.68
7833.7
7831.78
7829.92
7828.13
7826.39
7824.72
7823.1
7821.53
7820.02
7818.56
7817.15
7815.78
7814.47
7813.19
7811.97
7810.78
7809.64
7808.53
7807.47
7806.45
7805.48
7804.54
7803.65
7802.81
7802
7801.24
7800.52
7799.84
7799.21
7798.61
7798.06
7797.55
7797.08
7796.66
7796.27
7795.92
7795.61
7795.34
7795.11
7794.92
7794.77
7794.65
7794.57
7794.53
7794.52
7794.55
7794.62
7794.71
7794.84
7795.01
7795.2
7795.43
7795.68
7795.97
7796.28
7796.63
7797
7797.39
7797.81
7798.26
7798.73
7799.22
7799.73
7800.27
7800.82
7801.4
7802
7802.61
7803.24
7803.89
7804.55
7805.23
7805.92
7806.63
7807.34
7808.08
7808.82
7809.57
7810.34
7811.11
7811.9
7812.69
7813.49
7814.3
7815.12
7815.94
7816.77
7817.61
7818.46
7819.31
7820.17
7821.03
7821.9
7822.78
7823.66
7824.55
7825.44
7826.34
7827.25
7828.16
7829.07
7830
7830.93
7831.87
7832.81
7833.76
7834.71
7835.68
7836.65
7837.63
7838.61
7839.61
7840.61
7841.63
7842.65
7843.68
7844.73
7845.78
7846.84
7847.92
7849
7850.09
7851.19
7852.31
7853.41
7854.56
7855.68
7856.78
7857.91
7859.1
7860.15
7861.53
7862.59
7863.39
7864.48
7865.5
7866.65
7867.79
7869
7870.23
7871.49
7872.78
7874.1
7875.44
7876.8
7878.17
7879.57
7881.02
7882.44
7883.93
7885.38
7886.75
7888.23
7889.66
7891.17
7892.65
7894.19
7895.71
7897.27
7898.81
7900.37
7901.91
7903.49
7904.98
7906.6
7908.08
7909.52
7910.95
7912.47
7913.6
7915.66
7916.8
7917.59
7918.58
7919.65
7920.76
7921.9
7923.06
7924.24
7925.43
7926.63
7927.83
7929.03
7930.23
7931.43
7932.62
7933.81
7934.99
7936.17
7937.33
7938.49
7939.63
7940.76
7941.87
7942.98
7944.07
7945.14
7946.19
7947.23
7948.25
7949.25
7950.23
7951.2
7952.14
7953.06
7953.95
7954.83
7955.68
7956.51
7957.31
7958.09
7958.84
7959.56
7960.26
7960.93
7961.57
7962.19
7962.77
7963.33
7963.85
7964.34
7964.8
7965.23
7965.62
7965.99
7966.31
7966.6
7966.86
7967.08
7967.27
7967.42
7967.53
7967.6
7967.64
7967.64
7967.6
7967.52
7967.4
7967.24
7967.05
7966.81
7966.53
7966.22
7965.86
7965.46
7965.02
7964.54
7964.02
7963.46
7962.86
7962.35
7960.87
7362.67
7360.09
7358.51
7357.01
7355.73
7354.98
7354.69
7354.65
7354.49
7354.06
7353.4
7352.69
7352.1
7351.45
7350.81
7350.54
7351.2
7353.08
7355.69
7358.23
7360.74
7363.32
7365.99
7368.71
7371.46
7374.23
7377.02
7379.85
7382.78
7385.97
7389.64
7393.76
7398.25
7403.02
7407.96
7412.97
7417.93
7422.8
7427.75
7432.78
7437.81
7443.04
7448.51
7454.08
7459.65
7465.26
7470.9
7476.53
7482.37
7488.4
7494.53
7500.63
7506.73
7512.8
7518.97
7525.25
7531.66
7538.08
7544.5
7550.93
7557.37
7563.81
7570.24
7576.67
7583.1
7589.42
7595.8
7602.18
7608.51
7614.82
7621.18
7627.44
7633.62
7639.72
7645.73
7651.62
7657.4
7662.97
7668.64
7674.52
7679.46
7684.92
7696.11
7703.02
7710.75
7718.16
7725.41
7732.8
7739.96
7747.99
7755.62
7763.29
7771.01
7778.54
7786.23
7793.74
7801.37
7808.72
7816.3
7823.29
7830.51
7837.54
7844.93
7852
7859.18
7867.14
7875.2
7882.75
7890.57
7898.06
7905.47
7912.88
7920.25
7927.56
7934.64
7941.71
7948.6
7955.41
7962.63
7968.68
7975.94
7984.32
7991.87
7999.53
8006.92
8014.16
8021.42
8028.75
8035.97
8043.24
8050.36
8057.43
8064.35
8071.18
8077.95
8084.68
8091.36
8097.87
8104.25
8110.51
8116.66
8122.7
8128.62
8134.38
8139.99
8145.53
8150.95
8156.26
8161.47
8166.51
8171.37
8176.15
8180.84
8185.46
8189.9
8194.21
8198.39
8202.45
8206.41
8210.27
8214.03
8217.67
8221.19
8224.59
8227.91
8231.15
8234.28
8237.29
8240.22
8243.1
8245.9
8248.6
8251.2
8253.76
8256.28
8258.71
8261.04
8263.28
8265.39
8267.42
8269.36
8271.21
8272.98
8274.61
8276.1
8277.45
8278.64
8279.73
8280.71
8281.52
8282.17
8282.63
8282.95
8283.12
8283.14
8282.99
8282.64
8282.09
8281.35
8280.44
8279.36
8278.11
8276.64
8274.96
8273.08
8271.01
8268.76
8266.3
8263.64
8260.75
8257.7
8254.48
8251.05
8247.41
8243.58
8239.54
8235.35
8231
8226.49
8221.8
8216.93
8211.89
8206.7
8201.39
8195.94
8190.38
8184.68
8178.86
8172.91
8166.87
8160.74
8154.53
8148.26
8141.92
8135.5
8129.02
8122.5
8115.93
8109.33
8102.73
8096.11
8089.5
8082.89
8076.27
8069.67
8063.08
8056.53
8050.03
8043.58
8037.15
8030.78
8024.46
8018.21
8012.04
8005.93
7999.92
7993.97
7988.11
7982.34
7976.65
7971.07
7965.58
7960.19
7954.89
7949.69
7944.6
7939.63
7934.77
7930
7925.34
7920.79
7916.33
7912
7907.77
7903.66
7899.65
7895.74
7891.94
7888.24
7884.65
7881.14
7877.74
7874.45
7871.26
7868.15
7865.14
7862.22
7859.38
7856.64
7853.98
7851.41
7848.92
7846.51
7844.17
7841.91
7839.72
7837.6
7835.55
7833.57
7831.66
7829.8
7828.01
7826.28
7824.6
7822.98
7821.42
7819.91
7818.44
7817.03
7815.67
7814.36
7813.09
7811.86
7810.67
7809.53
7808.43
7807.37
7806.35
7805.38
7804.45
7803.56
7802.71
7801.91
7801.15
7800.43
7799.75
7799.12
7798.53
7797.98
7797.47
7797
7796.58
7796.19
7795.84
7795.54
7795.27
7795.04
7794.85
7794.7
7794.59
7794.51
7794.47
7794.46
7794.49
7794.56
7794.66
7794.79
7794.96
7795.15
7795.38
7795.64
7795.93
7796.24
7796.58
7796.96
7797.35
7797.77
7798.22
7798.69
7799.19
7799.7
7800.24
7800.8
7801.37
7801.97
7802.58
7803.22
7803.86
7804.53
7805.21
7805.9
7806.61
7807.33
7808.06
7808.81
7809.56
7810.33
7811.1
7811.89
7812.68
7813.48
7814.29
7815.11
7815.93
7816.77
7817.6
7818.45
7819.3
7820.16
7821.02
7821.89
7822.77
7823.65
7824.54
7825.43
7826.33
7827.23
7828.14
7829.06
7829.98
7830.91
7831.85
7832.79
7833.74
7834.69
7835.66
7836.62
7837.6
7838.59
7839.58
7840.58
7841.59
7842.62
7843.65
7844.7
7845.74
7846.81
7847.87
7848.97
7850.05
7851.18
7852.27
7853.35
7854.46
7855.64
7856.75
7858.14
7859.24
7860
7861.13
7862.08
7863.16
7864.23
7865.35
7866.5
7867.68
7868.89
7870.13
7871.4
7872.68
7874.02
7875.35
7876.76
7878.12
7879.58
7880.95
7882.32
7883.73
7885.19
7886.62
7888.12
7889.59
7891.11
7892.63
7894.13
7895.7
7897.19
7898.83
7900.31
7902.03
7903.48
7905.04
7906.44
7908.08
7909.35
7911.66
7912.98
7913.83
7914.92
7916.07
7917.21
7918.35
7919.5
7920.66
7921.84
7923.03
7924.22
7925.42
7926.63
7927.84
7929.05
7930.25
7931.45
7932.65
7933.84
7935.03
7936.2
7937.37
7938.52
7939.67
7940.8
7941.91
7943.02
7944.11
7945.18
7946.24
7947.27
7948.3
7949.3
7950.28
7951.25
7952.19
7953.11
7954.01
7954.89
7955.74
7956.57
7957.37
7958.15
7958.91
7959.63
7960.33
7961
7961.65
7962.26
7962.85
7963.4
7963.93
7964.42
7964.88
7965.31
7965.7
7966.07
7966.39
7966.69
7966.95
7967.17
7967.36
7967.51
7967.62
7967.7
7967.74
7967.74
7967.7
7967.62
7967.51
7967.35
7967.16
7966.92
7966.65
7966.33
7965.98
7965.58
7965.14
7964.66
7964.14
7963.58
7962.99
7962.48
7961.01
7360.53
7358.4
7356.83
7355.38
7354.15
7353.44
7352.8
7352.28
7351.79
7351.13
7350.3
7349.78
7349.6
7349.16
7348.51
7348.19
7348.87
7350.99
7353.82
7356.89
7359.93
7362.78
7365.49
7368.14
7370.81
7373.5
7376.22
7379.02
7381.95
7385.17
7388.79
7392.86
7397.29
7402.08
7407.07
7412.08
7417.11
7422.1
7427.08
7432.02
7437.11
7442.44
7447.93
7453.64
7459.24
7464.88
7470.51
7476.08
7481.94
7488
7494.22
7500.34
7506.48
7512.59
7518.65
7524.93
7531.29
7537.84
7544.32
7550.77
7557.23
7563.71
7570.15
7576.44
7582.94
7589.49
7596.13
7602.58
7608.8
7615.01
7621.31
7627.59
7633.98
7640.37
7646.58
7652.71
7658.67
7664.67
7670.65
7676.93
7683.41
7689.77
7695.99
7701.26
7706.76
7718.27
7725.53
7733.85
7740.97
7748.35
7755.62
7762.82
7771.07
7778.58
7786.42
7793.87
7801.4
7809
7816.57
7824.03
7831.37
7838.73
7845.91
7853.45
7860.74
7868.03
7874.99
7882.36
7889.5
7897.75
7905.84
7913.59
7921.15
7928.23
7935.26
7942.45
7949.54
7956.78
7964.12
7971.28
7978.18
7985.23
7991.34
7998.62
8006.9
8014.26
8021.72
8029
8036.21
8043.46
8050.63
8057.66
8064.55
8071.44
8078.23
8085.05
8091.69
8098.19
8104.5
8110.74
8116.92
8123.02
8128.95
8134.7
8140.31
8145.85
8151.27
8156.64
8161.82
8166.79
8171.66
8176.46
8181.2
8185.81
8190.22
8194.45
8198.67
8202.82
8206.81
8210.62
8214.31
8217.95
8221.49
8224.88
8228.24
8231.49
8234.62
8237.59
8240.52
8243.43
8246.25
8248.93
8251.52
8254.09
8256.6
8259.07
8261.42
8263.67
8265.79
8267.79
8269.75
8271.6
8273.37
8275.05
8276.56
8277.93
8279.11
8280.18
8281.16
8282.03
8282.7
8283.2
8283.5
8283.66
8283.67
8283.55
8283.23
8282.69
8281.94
8281.05
8280
8278.74
8277.28
8275.58
8273.72
8271.66
8269.42
8266.96
8264.28
8261.38
8258.34
8255.13
8251.7
8248.06
8244.22
8240.17
8235.96
8231.59
8227.08
8222.38
8217.51
8212.46
8207.23
8201.9
8196.43
8190.86
8185.14
8179.3
8173.33
8167.24
8161.1
8154.89
8148.6
8142.21
8135.76
8129.25
8122.67
8116.09
8109.49
8102.87
8096.26
8089.61
8082.96
8076.32
8069.69
8063.07
8056.51
8049.99
8043.52
8037.08
8030.69
8024.36
8018.09
8011.91
8005.8
7999.75
7993.78
7987.89
7982.12
7976.45
7970.85
7965.35
7959.95
7954.63
7949.43
7944.34
7939.37
7934.5
7929.73
7925.07
7920.51
7916.06
7911.71
7907.49
7903.36
7899.36
7895.46
7891.66
7887.96
7884.36
7880.85
7877.46
7874.17
7870.98
7867.88
7864.87
7861.95
7859.11
7856.37
7853.72
7851.15
7848.66
7846.25
7843.91
7841.66
7839.47
7837.35
7835.3
7833.32
7831.41
7829.56
7827.77
7826.04
7824.36
7822.74
7821.19
7819.68
7818.22
7816.81
7815.45
7814.14
7812.87
7811.64
7810.46
7809.32
7808.22
7807.16
7806.15
7805.18
7804.25
7803.36
7802.52
7801.72
7800.96
7800.25
7799.57
7798.94
7798.35
7797.81
7797.3
7796.84
7796.42
7796.03
7795.69
7795.39
7795.12
7794.9
7794.71
7794.56
7794.45
7794.38
7794.34
7794.34
7794.38
7794.44
7794.55
7794.68
7794.85
7795.05
7795.28
7795.55
7795.84
7796.16
7796.5
7796.88
7797.28
7797.7
7798.15
7798.62
7799.12
7799.64
7800.18
7800.74
7801.32
7801.92
7802.54
7803.17
7803.82
7804.49
7805.17
7805.86
7806.57
7807.3
7808.03
7808.78
7809.53
7810.3
7811.08
7811.86
7812.66
7813.46
7814.27
7815.09
7815.92
7816.75
7817.59
7818.43
7819.28
7820.14
7821.01
7821.88
7822.75
7823.63
7824.52
7825.41
7826.31
7827.21
7828.12
7829.04
7829.95
7830.88
7831.81
7832.76
7833.7
7834.65
7835.61
7836.57
7837.55
7838.53
7839.53
7840.52
7841.54
7842.55
7843.59
7844.62
7845.69
7846.73
7847.84
7848.89
7849.95
7851.02
7852.19
7853.28
7854.67
7855.74
7856.48
7857.55
7858.52
7859.6
7860.68
7861.79
7862.85
7863.99
7865.11
7866.28
7867.46
7868.68
7869.94
7871.21
7872.57
7873.87
7875.26
7876.59
7877.89
7879.27
7880.67
7882.07
7883.53
7884.97
7886.46
7887.95
7889.42
7890.97
7892.44
7894.08
7895.57
7897.3
7898.77
7900.38
7901.79
7903.5
7904.83
7907.26
7908.63
7909.55
7910.7
7911.93
7913.17
7914.45
7915.69
7916.9
7918.09
7919.29
7920.5
7921.71
7922.92
7924.14
7925.35
7926.58
7927.8
7929.01
7930.23
7931.44
7932.65
7933.85
7935.04
7936.22
7937.39
7938.56
7939.71
7940.84
7941.97
7943.07
7944.17
7945.25
7946.31
7947.35
7948.38
7949.38
7950.37
7951.34
7952.28
7953.21
7954.11
7954.99
7955.85
7956.68
7957.49
7958.27
7959.03
7959.76
7960.46
7961.14
7961.79
7962.4
7962.99
7963.55
7964.07
7964.57
7965.03
7965.46
7965.86
7966.23
7966.56
7966.85
7967.11
7967.34
7967.53
7967.68
7967.8
7967.87
7967.91
7967.92
7967.88
7967.8
7967.69
7967.54
7967.34
7967.11
7966.83
7966.52
7966.16
7965.77
7965.33
7964.85
7964.33
7963.77
7963.18
7962.68
7961.21
7358.03
7356.1
7354.65
7353.31
7352.04
7351.25
7350.46
7349.66
7348.97
7348.21
7347.35
7347.01
7347.14
7347.38
7347.5
7347.95
7349.06
7350.83
7353.19
7355.81
7358.48
7361.2
7363.91
7366.57
7369.27
7372.05
7374.95
7377.99
7381.21
7384.68
7388.45
7392.56
7397.02
7401.84
7406.64
7411.45
7416.31
7421.21
7426
7430.97
7436.24
7441.58
7447.29
7452.98
7458.6
7464.27
7470
7475.64
7481.38
7487.61
7493.76
7499.88
7506.04
7512.19
7518.2
7524.49
7530.99
7537.57
7544.05
7550.53
7557.04
7563.56
7570.06
7576.37
7582.98
7589.74
7596.35
7602.86
7609.3
7615.37
7621.68
7628.07
7634.43
7640.98
7647.55
7653.92
7660.21
7666.32
7672.54
7678.93
7685.55
7692.14
7698.89
7705.66
7712.56
7719.15
7725.24
7730.37
7735.87
7747.26
7755.1
7763.49
7771.03
7778.54
7786.06
7793.9
7801.56
7809.31
7817.22
7824.71
7832.3
7839.58
7847.09
7854.36
7861.83
7869.1
7876.97
7884.42
7891.51
7898.97
7905.85
7912.96
7920.92
7928.93
7936.32
7943.7
7950.82
7958.02
7965.26
7972.38
7979.6
7986.83
7993.91
8000.84
8007.92
8014.04
8021.03
8029.03
8036.44
8043.87
8050.96
8057.87
8064.75
8071.72
8078.57
8085.49
8092.13
8098.66
8104.99
8111.19
8117.34
8123.41
8129.41
8135.22
8140.82
8146.34
8151.82
8157.2
8162.31
8167.24
8172.15
8176.96
8181.77
8186.35
8190.68
8194.95
8199.14
8203.32
8207.34
8211.18
8214.82
8218.42
8221.94
8225.36
8228.74
8232.03
8235.15
8238.1
8241.03
8243.92
8246.79
8249.46
8252.06
8254.63
8257.12
8259.58
8262
8264.26
8266.41
8268.38
8270.34
8272.21
8274.03
8275.73
8277.25
8278.63
8279.8
8280.89
8281.86
8282.74
8283.49
8284.02
8284.37
8284.48
8284.5
8284.37
8284.11
8283.61
8282.89
8281.95
8280.9
8279.68
8278.23
8276.54
8274.68
8272.66
8270.41
8267.94
8265.22
8262.35
8259.31
8256.11
8252.68
8249.03
8245.17
8241.09
8236.88
8232.51
8227.99
8223.27
8218.37
8213.31
8208.06
8202.67
8197.17
8191.53
8185.81
8179.95
8173.96
8167.83
8161.63
8155.39
8149.07
8142.65
8136.15
8129.56
8122.97
8116.36
8109.74
8103.11
8096.43
8089.74
8083.04
8076.33
8069.68
8063.06
8056.5
8049.96
8043.44
8036.95
8030.5
8024.18
8017.92
8011.71
8005.57
7999.48
7993.47
7987.58
7981.8
7976.12
7970.51
7965
7959.58
7954.27
7949.04
7943.94
7938.96
7934.1
7929.32
7924.64
7920.07
7915.63
7911.31
7907.08
7902.95
7898.91
7895
7891.22
7887.53
7883.94
7880.43
7877.03
7873.75
7870.57
7867.46
7864.43
7861.52
7858.71
7855.98
7853.33
7850.76
7848.26
7845.84
7843.51
7841.27
7839.09
7836.98
7834.92
7832.94
7831.03
7829.19
7827.41
7825.67
7823.99
7822.38
7820.83
7819.33
7817.87
7816.45
7815.1
7813.8
7812.53
7811.3
7810.12
7808.98
7807.9
7806.85
7805.84
7804.87
7803.94
7803.06
7802.22
7801.43
7800.68
7799.96
7799.3
7798.67
7798.08
7797.54
7797.05
7796.59
7796.17
7795.79
7795.45
7795.15
7794.89
7794.68
7794.5
7794.36
7794.25
7794.19
7794.15
7794.16
7794.19
7794.27
7794.38
7794.52
7794.7
7794.9
7795.14
7795.4
7795.7
7796.02
7796.38
7796.76
7797.16
7797.59
7798.04
7798.52
7799.03
7799.55
7800.09
7800.66
7801.24
7801.85
7802.47
7803.1
7803.76
7804.43
7805.11
7805.81
7806.52
7807.25
7807.99
7808.74
7809.5
7810.26
7811.04
7811.83
7812.63
7813.44
7814.25
7815.07
7815.89
7816.72
7817.56
7818.41
7819.26
7820.12
7820.98
7821.85
7822.73
7823.6
7824.49
7825.38
7826.27
7827.18
7828.09
7829
7829.92
7830.84
7831.77
7832.7
7833.65
7834.6
7835.56
7836.51
7837.48
7838.45
7839.42
7840.43
7841.42
7842.46
7843.47
7844.55
7845.57
7846.59
7847.63
7848.78
7849.83
7851.22
7852.26
7852.96
7854
7854.94
7856.01
7857.06
7858.15
7859.17
7860.28
7861.35
7862.48
7863.59
7864.76
7865.94
7867.2
7868.44
7869.69
7871.01
7872.28
7873.52
7874.83
7876.18
7877.52
7878.96
7880.33
7881.85
7883.24
7884.79
7886.22
7887.82
7889.28
7890.96
7892.46
7893.93
7895.51
7896.96
7898.69
7900.06
7902.6
7904.02
7904.98
7906.2
7907.49
7908.82
7910.19
7911.52
7912.82
7914.1
7915.37
7916.62
7917.87
7919.11
7920.35
7921.59
7922.83
7924.07
7925.31
7926.55
7927.79
7929.02
7930.25
7931.47
7932.69
7933.9
7935.09
7936.28
7937.46
7938.63
7939.79
7940.93
7942.06
7943.17
7944.27
7945.36
7946.42
7947.47
7948.5
7949.52
7950.51
7951.48
7952.43
7953.37
7954.27
7955.16
7956.02
7956.86
7957.67
7958.46
7959.22
7959.96
7960.67
7961.35
7962
7962.62
7963.21
7963.77
7964.3
7964.8
7965.27
7965.7
7966.1
7966.47
7966.81
7967.11
7967.37
7967.6
7967.79
7967.95
7968.07
7968.15
7968.19
7968.2
7968.17
7968.09
7967.98
7967.83
7967.64
7967.41
7967.14
7966.82
7966.47
7966.08
7965.64
7965.16
7964.64
7964.08
7963.49
7962.99
7961.52
7355.06
7353.44
7352.02
7350.75
7349.47
7348.53
7347.61
7346.69
7346.02
7345.42
7344.59
7344.1
7344.43
7345.17
7345.71
7346.55
7347.84
7349.55
7351.66
7354
7356.48
7359.04
7361.68
7364.42
7367.28
7370.22
7373.27
7376.5
7379.87
7383.37
7387.26
7391.46
7395.93
7400.69
7405.4
7410.19
7414.98
7419.6
7424.53
7429.74
7435.07
7440.81
7446.5
7452.07
7457.69
7463.4
7469.2
7475.05
7480.96
7486.96
7493.07
7499.22
7505.43
7511.68
7517.84
7524.09
7530.65
7537.19
7543.69
7550.21
7556.76
7563.35
7569.96
7576.58
7583.21
7589.85
7596.48
7603.08
7609.65
7616.01
7622.12
7628.61
7635.09
7641.71
7648.54
7655.13
7661.63
7668.12
7674.41
7680.88
7687.62
7694.33
7700.99
7707.7
7714.46
7721.42
7728.4
7735.39
7741.69
7748.05
7753.38
7759.07
7770.95
7779.02
7787.21
7794.15
7801.74
7809.17
7817.55
7825.46
7833.24
7840.85
7848.29
7855.73
7863.26
7870.8
7878.32
7885.73
7893.03
7900.42
7907.96
7915.64
7923.01
7929.81
7936.36
7944.28
7952.08
7959.55
7966.86
7973.83
7980.94
7988.15
7995.25
8002.42
8009.61
8016.58
8023.35
8030.17
8036.41
8043.48
8051.4
8058.46
8065.48
8072.41
8079.38
8086.13
8092.71
8099.27
8105.66
8111.9
8117.96
8124.01
8129.94
8135.77
8141.61
8147.19
8152.63
8157.89
8162.91
8167.87
8172.81
8177.69
8182.51
8187.03
8191.31
8195.62
8199.81
8203.99
8208.05
8211.91
8215.56
8219.11
8222.63
8226.05
8229.47
8232.76
8235.86
8238.79
8241.74
8244.62
8247.49
8250.28
8252.84
8255.38
8257.88
8260.34
8262.79
8265.07
8267.21
8269.17
8271.16
8273.08
8274.95
8276.64
8278.17
8279.57
8280.75
8281.84
8282.84
8283.72
8284.52
8285.09
8285.48
8285.64
8285.62
8285.51
8285.28
8284.81
8284.14
8283.22
8282.11
8280.86
8279.44
8277.87
8276.04
8273.99
8271.73
8269.2
8266.51
8263.66
8260.66
8257.45
8253.99
8250.32
8246.39
8242.34
8238.12
8233.78
8229.21
8224.42
8219.44
8214.38
8209.19
8203.79
8198.24
8192.49
8186.67
8180.74
8174.7
8168.59
8162.42
8156.11
8149.71
8143.23
8136.64
8130.01
8123.38
8116.73
8110.09
8103.38
8096.65
8089.86
8083.11
8076.4
8069.71
8063.08
8056.47
8049.87
8043.29
8036.74
8030.28
8023.91
8017.64
8011.41
8005.24
7999.1
7993.09
7987.18
7981.39
7975.68
7970.05
7964.52
7959.09
7953.77
7948.53
7943.4
7938.43
7933.55
7928.77
7924.07
7919.5
7915.06
7910.74
7906.52
7902.39
7898.35
7894.43
7890.63
7886.94
7883.37
7879.89
7876.5
7873.2
7869.98
7866.88
7863.87
7860.98
7858.18
7855.44
7852.79
7850.21
7847.71
7845.31
7842.99
7840.75
7838.57
7836.46
7834.42
7832.43
7830.53
7828.7
7826.91
7825.17
7823.5
7821.9
7820.36
7818.86
7817.4
7815.99
7814.64
7813.34
7812.08
7810.85
7809.67
7808.54
7807.46
7806.42
7805.42
7804.45
7803.53
7802.65
7801.82
7801.04
7800.29
7799.59
7798.93
7798.3
7797.72
7797.18
7796.7
7796.25
7795.84
7795.47
7795.13
7794.84
7794.59
7794.39
7794.22
7794.09
7793.99
7793.93
7793.89
7793.9
7793.95
7794.04
7794.16
7794.31
7794.49
7794.7
7794.95
7795.21
7795.51
7795.85
7796.21
7796.6
7797.01
7797.44
7797.9
7798.39
7798.9
7799.43
7799.98
7800.55
7801.14
7801.74
7802.37
7803.01
7803.67
7804.35
7805.04
7805.74
7806.45
7807.18
7807.93
7808.68
7809.45
7810.22
7811
7811.79
7812.59
7813.4
7814.21
7815.03
7815.86
7816.69
7817.53
7818.38
7819.23
7820.09
7820.95
7821.81
7822.69
7823.57
7824.45
7825.34
7826.23
7827.13
7828.04
7828.95
7829.86
7830.78
7831.7
7832.63
7833.57
7834.52
7835.47
7836.4
7837.38
7838.33
7839.34
7840.31
7841.36
7842.34
7843.32
7844.32
7845.43
7846.45
7847.82
7848.82
7849.47
7850.48
7851.38
7852.41
7853.43
7854.48
7855.47
7856.55
7857.57
7858.68
7859.75
7860.88
7862.01
7863.24
7864.38
7865.65
7866.83
7867.92
7869.17
7870.39
7871.68
7872.97
7874.36
7875.69
7877.15
7878.51
7880.02
7881.41
7882.99
7884.42
7886.09
7887.56
7889.01
7890.58
7891.94
7893.71
7895.19
7897.75
7899.22
7900.19
7901.46
7902.81
7904.2
7905.63
7907.04
7908.41
7909.76
7911.09
7912.42
7913.74
7915.05
7916.34
7917.63
7918.91
7920.18
7921.45
7922.72
7923.99
7925.25
7926.51
7927.77
7929.02
7930.26
7931.5
7932.73
7933.95
7935.16
7936.36
7937.55
7938.73
7939.89
7941.04
7942.18
7943.31
7944.41
7945.51
7946.58
7947.64
7948.68
7949.7
7950.7
7951.68
7952.64
7953.57
7954.49
7955.38
7956.25
7957.1
7957.92
7958.71
7959.48
7960.22
7960.94
7961.62
7962.28
7962.91
7963.5
7964.07
7964.61
7965.11
7965.58
7966.02
7966.43
7966.8
7967.14
7967.45
7967.72
7967.95
7968.15
7968.31
7968.43
7968.51
7968.56
7968.57
7968.54
7968.47
7968.36
7968.21
7968.02
7967.8
7967.53
7967.22
7966.87
7966.47
7966.04
7965.57
7965.05
7964.49
7963.9
7963.4
7961.93
7351.7
7350.29
7348.89
7347.64
7346.35
7345.3
7344.31
7343.33
7342.59
7342.03
7341.4
7340.75
7341.33
7342.38
7343.25
7344.29
7345.66
7347.35
7349.31
7351.52
7353.9
7356.44
7359.11
7361.9
7364.84
7367.94
7371.18
7374.56
7378.18
7381.92
7385.79
7390.06
7394.64
7399.2
7403.89
7408.7
7413.52
7418.16
7423.08
7428.62
7434.35
7439.81
7445.28
7450.85
7456.51
7462.27
7468.12
7474.04
7480.02
7486.05
7492.18
7498.37
7504.64
7510.97
7517.35
7523.75
7530.09
7536.47
7543.09
7549.76
7556.4
7563.06
7569.74
7576.45
7583.15
7589.86
7596.56
7603.26
7609.96
7616.58
7622.77
7629.16
7635.76
7642.74
7649.65
7656.31
7662.95
7669.61
7676.29
7682.98
7689.62
7696.13
7702.99
7709.98
7716.89
7723.75
7730.52
7736.92
7743.55
7750.61
7757.81
7765.16
7772.02
7777.55
7782.61
7794.08
7802.55
7810.79
7818.41
7826.13
7833.7
7841.67
7849.49
7857.01
7864.61
7872.09
7879.89
7887.41
7894.95
7902.4
7909.72
7917.11
7924.43
7932
7939.36
7946.46
7953.33
7959.83
7967.56
7975.19
7982.58
7989.87
7996.95
8003.99
8011.1
8018.08
8025.06
8031.98
8038.94
8045.8
8052.59
8058.61
8065.23
8072.81
8079.73
8086.94
8093.53
8100.15
8106.46
8112.76
8118.86
8124.8
8130.75
8136.69
8142.49
8148.08
8153.5
8158.76
8163.73
8168.73
8173.69
8178.73
8183.45
8187.97
8192.21
8196.51
8200.73
8204.99
8208.99
8212.85
8216.55
8220.03
8223.54
8227.02
8230.46
8233.72
8236.84
8239.75
8242.68
8245.59
8248.52
8251.29
8253.89
8256.36
8258.87
8261.42
8263.84
8266.11
8268.21
8270.2
8272.23
8274.25
8276.1
8277.78
8279.33
8280.75
8282.01
8283.06
8284.08
8284.97
8285.81
8286.44
8286.86
8287.11
8287.11
8286.96
8286.74
8286.31
8285.67
8284.81
8283.68
8282.45
8281.07
8279.52
8277.69
8275.64
8273.31
8270.82
8268.17
8265.4
8262.39
8259.13
8255.65
8251.88
8247.99
8243.94
8239.78
8235.36
8230.72
8225.85
8220.89
8215.78
8210.55
8205.11
8199.52
8193.78
8187.83
8181.83
8175.73
8169.55
8163.33
8156.96
8150.49
8143.95
8137.34
8130.61
8123.88
8117.21
8110.5
8103.71
8096.85
8090.03
8083.24
8076.49
8069.79
8063.09
8056.39
8049.73
8043.06
8036.49
8030
8023.61
8017.3
8011.02
8004.81
7998.64
7992.59
7986.68
7980.87
7975.12
7969.47
7963.89
7958.41
7953.11
7947.9
7942.78
7937.77
7932.86
7928.04
7923.34
7918.79
7914.36
7910.03
7905.79
7901.67
7897.65
7893.7
7889.9
7886.22
7882.66
7879.18
7875.79
7872.5
7869.28
7866.17
7863.18
7860.3
7857.49
7854.76
7852.1
7849.51
7847.03
7844.65
7842.34
7840.09
7837.91
7835.81
7833.76
7831.79
7829.9
7828.07
7826.29
7824.56
7822.89
7821.3
7819.75
7818.26
7816.8
7815.39
7814.06
7812.76
7811.51
7810.29
7809.11
7807.99
7806.92
7805.88
7804.88
7803.92
7803.01
7802.15
7801.33
7800.54
7799.8
7799.11
7798.46
7797.85
7797.27
7796.74
7796.26
7795.83
7795.43
7795.06
7794.73
7794.46
7794.23
7794.03
7793.86
7793.74
7793.65
7793.59
7793.57
7793.59
7793.65
7793.75
7793.88
7794.04
7794.23
7794.45
7794.7
7794.98
7795.29
7795.63
7796
7796.4
7796.82
7797.26
7797.72
7798.22
7798.74
7799.27
7799.83
7800.41
7801
7801.62
7802.25
7802.9
7803.57
7804.25
7804.95
7805.65
7806.37
7807.11
7807.86
7808.62
7809.38
7810.16
7810.95
7811.74
7812.54
7813.35
7814.17
7814.99
7815.82
7816.65
7817.49
7818.34
7819.19
7820.05
7820.91
7821.77
7822.65
7823.53
7824.4
7825.28
7826.18
7827.08
7827.98
7828.89
7829.8
7830.71
7831.63
7832.56
7833.49
7834.42
7835.38
7836.32
7837.31
7838.25
7839.14
7840.12
7841.05
7842.16
7843.12
7844.49
7845.44
7846.05
7847.01
7847.88
7848.87
7849.85
7850.86
7851.81
7852.85
7853.83
7854.9
7855.92
7857.01
7858.08
7859.27
7860.36
7861.58
7862.71
7863.68
7864.89
7865.99
7867.24
7868.45
7869.79
7871.06
7872.47
7873.77
7875.24
7876.57
7878.15
7879.5
7881.25
7882.59
7884.2
7885.58
7887.29
7888.68
7891.26
7892.75
7893.65
7894.98
7896.38
7897.82
7899.3
7900.81
7902.3
7903.73
7905.14
7906.55
7907.94
7909.32
7910.7
7912.06
7913.41
7914.75
7916.08
7917.4
7918.72
7920.03
7921.33
7922.63
7923.92
7925.21
7926.49
7927.77
7929.03
7930.29
7931.55
7932.79
7934.02
7935.25
7936.46
7937.66
7938.85
7940.03
7941.19
7942.34
7943.47
7944.59
7945.69
7946.78
7947.85
7948.9
7949.93
7950.94
7951.92
7952.89
7953.84
7954.76
7955.66
7956.54
7957.39
7958.22
7959.02
7959.8
7960.55
7961.27
7961.96
7962.63
7963.26
7963.87
7964.44
7964.99
7965.5
7965.98
7966.43
7966.84
7967.22
7967.57
7967.88
7968.15
7968.39
7968.6
7968.76
7968.89
7968.98
7969.03
7969.04
7969.02
7968.95
7968.84
7968.7
7968.51
7968.29
7968.02
7967.71
7967.36
7966.97
7966.54
7966.07
7965.55
7965
7964.41
7963.91
7962.45
7347.86
7346.54
7345.16
7343.94
7342.66
7341.48
7340.44
7339.48
7338.76
7338.29
7337.93
7337.58
7337.73
7339.11
7340.11
7341.28
7342.7
7344.4
7346.36
7348.53
7350.91
7353.46
7356.17
7359.03
7362.04
7365.23
7368.59
7372.11
7375.84
7379.77
7383.87
7388.13
7392.55
7397.13
7401.85
7406.71
7411.69
7416.76
7421.96
7427.32
7432.72
7438.15
7443.66
7449.25
7455.01
7460.87
7466.81
7472.78
7478.8
7484.88
7491.02
7497.26
7503.63
7510.06
7516.52
7522.97
7529.21
7535.23
7542.06
7549.1
7555.92
7562.66
7569.43
7576.21
7583
7589.8
7596.59
7603.4
7610.21
7617.01
7623.71
7629.87
7636.57
7643.69
7650.63
7657.43
7664.22
7671.02
7677.84
7684.68
7691.44
7697.95
7704.72
7711.85
7719.04
7726.04
7733
7739.84
7746.53
7753.7
7760.89
7767.84
7774.92
7781.99
7788.79
7795.74
7801.81
7807.11
7818.92
7827.6
7835.86
7843.04
7850.64
7858.08
7866.14
7873.83
7881.73
7889.2
7896.67
7903.49
7911.33
7919.05
7926.63
7933.9
7941.08
7948.1
7955.65
7963.01
7970.1
7976.87
7983.07
7990.81
7998.66
8006.03
8013.22
8020.02
8026.81
8033.75
8040.81
8047.73
8054.84
8061.58
8068.41
8074.83
8081.16
8086.86
8093.44
8100.87
8107.41
8113.79
8120
8125.93
8131.82
8137.8
8143.54
8149.12
8154.57
8159.79
8164.76
8169.76
8174.96
8179.86
8184.54
8189.09
8193.4
8197.57
8201.98
8206.13
8210.11
8213.96
8217.7
8221.24
8224.71
8228.26
8231.65
8234.88
8238.03
8240.99
8243.88
8246.9
8249.77
8252.51
8255.15
8257.61
8260.21
8262.73
8265.11
8267.37
8269.5
8271.48
8273.64
8275.65
8277.47
8279.16
8280.68
8282.09
8283.5
8284.71
8285.66
8286.52
8287.3
8288.02
8288.53
8288.81
8288.92
8288.84
8288.46
8287.96
8287.34
8286.58
8285.68
8284.5
8283.12
8281.52
8279.69
8277.56
8275.27
8272.84
8270.26
8267.49
8264.44
8261.16
8257.67
8253.9
8249.95
8245.87
8241.65
8237.24
8232.59
8227.69
8222.63
8217.51
8212.19
8206.69
8200.99
8195.23
8189.31
8183.2
8176.97
8170.69
8164.39
8157.97
8151.43
8144.81
8138.12
8131.26
8124.52
8117.77
8110.96
8104.1
8097.21
8090.25
8083.38
8076.59
8069.82
8063.04
8056.28
8049.56
8042.82
8036.19
8029.65
8023.24
8016.86
8010.54
8004.29
7998.11
7991.98
7986.05
7980.21
7974.43
7968.75
7963.11
7957.63
7952.31
7947.11
7941.97
7936.95
7932.03
7927.19
7922.48
7917.93
7913.5
7909.16
7904.92
7900.79
7896.77
7892.84
7889.02
7885.37
7881.8
7878.32
7874.93
7871.65
7868.46
7865.34
7862.32
7859.46
7856.65
7853.93
7851.28
7848.69
7846.2
7843.83
7841.53
7839.28
7837.11
7835.01
7832.98
7831.02
7829.13
7827.29
7825.51
7823.79
7822.15
7820.56
7819.01
7817.52
7816.08
7814.68
7813.34
7812.05
7810.79
7809.59
7808.44
7807.33
7806.25
7805.22
7804.23
7803.29
7802.39
7801.54
7800.72
7799.95
7799.21
7798.53
7797.89
7797.29
7796.74
7796.22
7795.74
7795.31
7794.92
7794.57
7794.27
7794
7793.78
7793.59
7793.43
7793.31
7793.24
7793.2
7793.2
7793.24
7793.3
7793.4
7793.54
7793.71
7793.91
7794.15
7794.41
7794.7
7795.02
7795.37
7795.75
7796.16
7796.59
7797.04
7797.51
7798.02
7798.54
7799.09
7799.65
7800.24
7800.84
7801.47
7802.11
7802.77
7803.44
7804.13
7804.83
7805.55
7806.28
7807.02
7807.77
7808.54
7809.31
7810.09
7810.88
7811.68
7812.49
7813.3
7814.12
7814.94
7815.77
7816.61
7817.45
7818.3
7819.15
7820
7820.86
7821.73
7822.6
7823.47
7824.34
7825.23
7826.12