/*--------------------------------*- C++ -*----------------------------------*\
| =========                 |                                                 |
| \\      /  F ield         | OpenFOAM: The Open Source CFD Toolbox           |
|  \\    /   O peration     | Version:  v2006                                 |
|   \\  /    A nd           | Website:  www.openfoam.com                      |
|    \\/     M anipulation  |                                                 |
\*---------------------------------------------------------------------------*/
FoamFile
{
    version     2.0;
    format      ascii;
    class       surfaceScalarField;
    location    "8";
    object      phi;
}
// * * * * * * * * * * * * * * * * * * * * * * * * * * * * * * * * * * * * * //

dimensions      [0 3 -1 0 0 0 0];
oriented        oriented;


internalField   nonuniform List<scalar> 
65390
(
-7.65604e-05
6.05841e-06
-7.85926e-05
2.03022e-06
-8.10004e-05
2.40603e-06
-8.33432e-05
2.34133e-06
-8.45438e-05
1.19945e-06
-8.3252e-05
-1.29266e-06
-7.78276e-05
-5.42505e-06
-6.85929e-05
-9.23522e-06
-5.82083e-05
-1.0385e-05
-4.8906e-05
-9.30259e-06
-4.05031e-05
-8.40309e-06
-3.21628e-05
-8.34045e-06
-2.3899e-05
-8.26381e-06
-1.57925e-05
-8.10655e-06
-8.59403e-06
-7.19845e-06
-4.00257e-06
-4.59142e-06
-3.75496e-06
-2.47544e-07
-7.68506e-06
3.93018e-06
-1.32466e-05
5.56161e-06
-1.87353e-05
5.48879e-06
-2.25211e-05
3.78598e-06
-2.41837e-05
1.66267e-06
-2.39808e-05
-2.02835e-07
-2.24106e-05
-1.57004e-06
-1.95948e-05
-2.8157e-06
-1.59316e-05
-3.66312e-06
-1.19228e-05
-4.00866e-06
-7.96509e-06
-3.95764e-06
-4.64827e-06
-3.31673e-06
-2.49392e-06
-2.15426e-06
-1.61163e-06
-8.82199e-07
-2.07766e-06
4.66123e-07
-3.80754e-06
1.72997e-06
-6.4897e-06
2.68226e-06
-1.02345e-05
3.74494e-06
-1.45159e-05
4.2815e-06
-1.79724e-05
3.4566e-06
-2.00055e-05
2.03318e-06
-2.13385e-05
1.33309e-06
-2.27455e-05
1.40712e-06
-2.43501e-05
1.60474e-06
-2.54927e-05
1.14271e-06
-2.55632e-05
7.0583e-08
-2.46848e-05
-8.78322e-07
-2.33751e-05
-1.30965e-06
-2.21919e-05
-1.18312e-06
-2.16224e-05
-5.69441e-07
-2.1574e-05
-4.83164e-08
-2.14839e-05
-9.00188e-08
-2.09409e-05
-5.43017e-07
-1.97248e-05
-1.21601e-06
-1.82594e-05
-1.4653e-06
-1.70281e-05
-1.2312e-06
-1.63661e-05
-6.61971e-07
-1.60171e-05
-3.48884e-07
-1.56095e-05
-4.07581e-07
-1.48972e-05
-7.12218e-07
-1.38222e-05
-1.07489e-06
-1.24822e-05
-1.33995e-06
-1.09423e-05
-1.53984e-06
-9.11637e-06
-1.82581e-06
-7.09122e-06
-2.02504e-06
-5.24378e-06
-1.84733e-06
-3.9572e-06
-1.28647e-06
-3.25314e-06
-7.0394e-07
-2.97037e-06
-2.82645e-07
-2.71793e-06
-2.52308e-07
-2.41969e-06
-2.98103e-07
-2.2226e-06
-1.96954e-07
-2.16728e-06
-5.51809e-08
-2.03324e-06
-1.33898e-07
-1.60646e-06
-4.2664e-07
-7.55426e-07
-8.50902e-07
4.08991e-07
-1.16429e-06
1.75861e-06
-1.3495e-06
3.25663e-06
-1.49792e-06
4.65995e-06
-1.40323e-06
5.51866e-06
-8.58661e-07
6.33235e-06
-8.13668e-07
6.55895e-06
-2.26562e-07
6.59644e-06
-3.74776e-08
6.41486e-06
1.81599e-07
6.38125e-06
3.36407e-08
6.42268e-06
-4.14241e-08
6.19891e-06
2.23776e-07
5.82711e-06
3.71809e-07
5.16595e-06
6.61157e-07
4.35628e-06
8.09666e-07
3.65253e-06
7.03749e-07
2.94701e-06
7.05526e-07
2.43155e-06
5.15463e-07
2.11201e-06
3.19562e-07
1.77253e-06
3.39508e-07
1.43541e-06
3.37142e-07
9.08532e-07
5.26896e-07
3.12378e-07
5.96174e-07
-7.22715e-07
1.03512e-06
-1.9666e-06
1.24391e-06
-4.08173e-06
2.11514e-06
-6.70693e-06
2.62521e-06
-8.95416e-06
2.24724e-06
-1.0365e-05
1.41086e-06
-1.06619e-05
2.96856e-07
-1.08092e-05
1.47295e-07
-1.04704e-05
-3.38765e-07
-1.01014e-05
-3.69035e-07
-1.01608e-05
5.94203e-08
-1.04835e-05
3.22713e-07
-1.07281e-05
2.44637e-07
-1.06975e-05
-3.06467e-08
-1.06497e-05
-4.78121e-08
-1.04468e-05
-2.02909e-07
-1.01795e-05
-2.67235e-07
-9.99668e-06
-1.82804e-07
-9.89857e-06
-9.80796e-08
-9.86388e-06
-3.46553e-08
-9.91226e-06
4.84125e-08
-1.00012e-05
8.89832e-08
-1.00554e-05
5.42384e-08
-1.00299e-05
-2.54838e-08
-9.95501e-06
-7.48229e-08
-9.90516e-06
-4.97991e-08
-9.83228e-06
-7.28308e-08
-9.73616e-06
-9.60717e-08
-9.67217e-06
-6.39272e-08
-9.62083e-06
-5.12867e-08
-9.57526e-06
-4.55121e-08
-9.53628e-06
-3.89308e-08
-9.46133e-06
-7.49011e-08
-9.36303e-06
-9.82675e-08
-9.26204e-06
-1.00956e-07
-9.1501e-06
-1.11918e-07
-9.05279e-06
-9.72981e-08
-8.96837e-06
-8.44152e-08
-8.88557e-06
-8.27864e-08
-8.76594e-06
-1.19632e-07
-8.6121e-06
-1.53828e-07
-8.45252e-06
-1.59576e-07
-8.29229e-06
-1.60218e-07
-8.13441e-06
-1.57858e-07
-7.96637e-06
-1.68029e-07
-7.78575e-06
-1.80599e-07
-7.59273e-06
-1.93002e-07
-7.40251e-06
-1.90197e-07
-7.22884e-06
-1.73659e-07
-7.05199e-06
-1.7683e-07
-6.86497e-06
-1.87013e-07
-6.65688e-06
-2.08073e-07
-6.4288e-06
-2.28082e-07
-6.20177e-06
-2.27023e-07
-5.99393e-06
-2.07852e-07
-5.79349e-06
-2.00459e-07
-5.56865e-06
-2.24861e-07
-5.31584e-06
-2.52841e-07
-5.05769e-06
-2.58177e-07
-4.80274e-06
-2.54984e-07
-4.54978e-06
-2.53003e-07
-4.2947e-06
-2.5512e-07
-4.032e-06
-2.62737e-07
-3.76028e-06
-2.71756e-07
-3.48089e-06
-2.79421e-07
-3.19329e-06
-2.87641e-07
-2.90294e-06
-2.90373e-07
-2.6189e-06
-2.8407e-07
-2.33086e-06
-2.88051e-07
-2.02992e-06
-3.00952e-07
-1.72708e-06
-3.02836e-07
-1.43704e-06
-2.90038e-07
-1.14909e-06
-2.8794e-07
-8.5002e-07
-2.99059e-07
-5.43101e-07
-3.06906e-07
-2.42719e-07
-3.00371e-07
4.01269e-08
-2.82839e-07
3.19122e-07
-2.78993e-07
6.08831e-07
-2.89714e-07
9.05521e-07
-2.96703e-07
1.2032e-06
-2.97697e-07
1.49362e-06
-2.90453e-07
1.76675e-06
-2.73167e-07
2.03093e-06
-2.64221e-07
2.29676e-06
-2.65874e-07
2.56591e-06
-2.69198e-07
2.84269e-06
-2.76838e-07
3.12095e-06
-2.78315e-07
3.39435e-06
-2.73443e-07
3.65904e-06
-2.64733e-07
3.91187e-06
-2.52868e-07
4.16426e-06
-2.52423e-07
4.42208e-06
-2.57845e-07
4.6816e-06
-2.59542e-07
4.93393e-06
-2.52344e-07
5.17632e-06
-2.42399e-07
5.41208e-06
-2.35768e-07
5.6464e-06
-2.34317e-07
5.8833e-06
-2.36902e-07
6.12195e-06
-2.38643e-07
6.35791e-06
-2.35951e-07
6.58415e-06
-2.26239e-07
6.79775e-06
-2.13578e-07
7.00481e-06
-2.07052e-07
7.213e-06
-2.08174e-07
7.42421e-06
-2.11185e-07
7.63186e-06
-2.07632e-07
7.83155e-06
-1.99663e-07
8.02233e-06
-1.90746e-07
8.20656e-06
-1.84196e-07
8.38964e-06
-1.83034e-07
8.57105e-06
-1.81373e-07
8.74441e-06
-1.73312e-07
8.9018e-06
-1.5735e-07
9.05652e-06
-1.54689e-07
9.21398e-06
-1.57423e-07
9.36875e-06
-1.54747e-07
9.51798e-06
-1.49213e-07
9.65607e-06
-1.38079e-07
9.7792e-06
-1.23122e-07
9.89403e-06
-1.14829e-07
1.00086e-05
-1.14552e-07
1.01235e-05
-1.14961e-07
1.02341e-05
-1.10593e-07
1.03377e-05
-1.036e-07
1.04288e-05
-9.12114e-08
1.05074e-05
-7.85779e-08
1.05786e-05
-7.12408e-08
1.06469e-05
-6.83124e-08
1.07134e-05
-6.65206e-08
1.07752e-05
-6.19112e-08
1.08304e-05
-5.51703e-08
1.0873e-05
-4.26799e-08
1.09042e-05
-3.12353e-08
1.09287e-05
-2.44709e-08
1.09502e-05
-2.1592e-08
1.097e-05
-1.97752e-08
1.09844e-05
-1.44572e-08
1.09906e-05
-6.23415e-09
1.09888e-05
1.82965e-09
1.09798e-05
8.95224e-09
1.09628e-05
1.69465e-08
1.09384e-05
2.43365e-08
1.09081e-05
3.03021e-08
1.0872e-05
3.60641e-08
1.08343e-05
3.76168e-08
1.07926e-05
4.15698e-08
1.07449e-05
4.76349e-08
1.06904e-05
5.44496e-08
1.0625e-05
6.53373e-08
1.05511e-05
7.38508e-08
1.04781e-05
7.29195e-08
1.0404e-05
7.39427e-08
1.03245e-05
7.94627e-08
1.02383e-05
8.61166e-08
1.0143e-05
9.51672e-08
1.00417e-05
1.01261e-07
9.93725e-06
1.04344e-07
9.83018e-06
1.06982e-07
9.72006e-06
1.10038e-07
9.6045e-06
1.15481e-07
9.48255e-06
1.2189e-07
9.35575e-06
1.26748e-07
9.22491e-06
1.30811e-07
9.09166e-06
1.33237e-07
8.95691e-06
1.34737e-07
8.81788e-06
1.39025e-07
8.67186e-06
1.46023e-07
8.51846e-06
1.53399e-07
8.35953e-06
1.58926e-07
8.20258e-06
1.56931e-07
8.046e-06
1.56571e-07
7.88597e-06
1.6002e-07
7.72271e-06
1.63246e-07
7.55548e-06
1.67211e-07
7.38246e-06
1.73008e-07
7.2045e-06
1.77957e-07
7.02427e-06
1.80227e-07
6.84458e-06
1.79698e-07
6.66517e-06
1.79416e-07
6.48418e-06
1.80996e-07
6.30158e-06
1.82611e-07
6.118e-06
1.83583e-07
5.93246e-06
1.85545e-07
5.74186e-06
1.906e-07
5.54768e-06
1.9418e-07
5.35558e-06
1.92092e-07
5.16653e-06
1.89047e-07
4.97722e-06
1.89308e-07
4.78673e-06
1.90482e-07
4.5961e-06
1.90622e-07
4.40447e-06
1.91616e-07
4.21101e-06
1.93451e-07
4.01766e-06
1.93329e-07
3.82631e-06
1.91321e-07
3.63734e-06
1.88961e-07
3.44964e-06
1.8769e-07
3.26303e-06
1.8661e-07
3.0774e-06
1.85638e-07
2.89151e-06
1.85907e-07
2.70654e-06
1.84982e-07
2.52409e-06
1.82464e-07
2.34452e-06
1.79589e-07
2.1678e-06
1.76722e-07
1.99385e-06
1.73954e-07
1.82095e-06
1.72893e-07
1.64953e-06
1.7141e-07
1.48162e-06
1.67907e-07
1.31748e-06
1.64122e-07
1.15718e-06
1.60297e-07
9.99454e-07
1.5771e-07
8.44695e-07
1.54749e-07
6.93735e-07
1.50951e-07
5.47055e-07
1.46675e-07
4.04638e-07
1.42414e-07
2.65368e-07
1.3927e-07
1.28374e-07
1.36998e-07
-5.53387e-09
1.33914e-07
-1.34897e-07
1.2937e-07
-2.60116e-07
1.25225e-07
-3.82315e-07
1.22205e-07
-5.01817e-07
1.19504e-07
-6.18944e-07
1.17127e-07
-7.33815e-07
1.14868e-07
-8.46645e-07
1.12824e-07
-9.57678e-07
1.11027e-07
-1.06735e-06
1.09662e-07
-1.17617e-06
1.08818e-07
-1.28389e-06
1.07721e-07
-1.39032e-06
1.0642e-07
-1.49607e-06
1.05755e-07
-1.60166e-06
1.05588e-07
-1.70689e-06
1.05223e-07
-1.81127e-06
1.04379e-07
-1.91458e-06
1.03304e-07
-2.01708e-06
1.02494e-07
-2.11925e-06
1.02169e-07
-2.22158e-06
1.0233e-07
-2.32354e-06
1.01956e-07
-2.4241e-06
1.00563e-07
-2.52288e-06
9.87779e-08
-2.62036e-06
9.748e-08
-2.7166e-06
9.62282e-08
-2.81151e-06
9.49137e-08
-2.90502e-06
9.35047e-08
-2.99694e-06
9.19177e-08
-3.08709e-06
9.01408e-08
-3.17536e-06
8.82759e-08
-3.26186e-06
8.64916e-08
-3.34634e-06
8.44831e-08
-3.42873e-06
8.23929e-08
-3.50895e-06
8.02293e-08
-3.587e-06
7.80463e-08
-3.66291e-06
7.59165e-08
-3.73677e-06
7.3872e-08
-3.80858e-06
7.18101e-08
-3.87814e-06
6.95654e-08
-3.94535e-06
6.72198e-08
-4.01029e-06
6.49448e-08
-4.07309e-06
6.27938e-08
-4.13376e-06
6.06797e-08
-4.19237e-06
5.86088e-08
-4.24886e-06
5.64884e-08
-4.30312e-06
5.4257e-08
-4.35524e-06
5.2117e-08
-4.4053e-06
5.00559e-08
-4.45332e-06
4.80194e-08
-4.49933e-06
4.60124e-08
-4.54356e-06
4.4224e-08
-4.5861e-06
4.25455e-08
-4.62688e-06
4.07872e-08
-4.66568e-06
3.88078e-08
-4.70243e-06
3.6752e-08
-4.73741e-06
3.49806e-08
-4.77096e-06
3.35492e-08
-4.80309e-06
3.21399e-08
-4.83346e-06
3.03682e-08
-4.86198e-06
2.85157e-08
-4.88883e-06
2.68564e-08
-4.91427e-06
2.54375e-08
-4.9384e-06
2.41366e-08
-4.96123e-06
2.28302e-08
-4.98283e-06
2.16113e-08
-5.0035e-06
2.06742e-08
-5.02299e-06
1.94992e-08
-5.04089e-06
1.78982e-08
-5.05736e-06
1.64771e-08
-5.07283e-06
1.54637e-08
-5.08733e-06
1.45032e-08
-5.10087e-06
1.35394e-08
-5.11346e-06
1.25825e-08
-5.12505e-06
1.15887e-08
-5.13546e-06
1.03977e-08
-5.14482e-06
9.35505e-09
-5.15341e-06
8.57743e-09
-5.16124e-06
7.81923e-09
-5.16803e-06
6.77295e-09
-5.17355e-06
5.51084e-09
-5.17804e-06
4.47029e-09
-5.18156e-06
3.49851e-09
-5.18402e-06
2.44855e-09
-5.18567e-06
1.63755e-09
-5.18665e-06
9.63655e-10
-5.18662e-06
-3.83909e-11
-5.18532e-06
-1.29467e-09
-5.18278e-06
-2.54085e-09
-5.17897e-06
-3.81211e-09
-5.17408e-06
-4.87977e-09
-5.16825e-06
-5.8193e-09
-5.16207e-06
-6.16866e-09
-5.15474e-06
-7.32383e-09
-5.14562e-06
-9.10153e-09
-5.13469e-06
-1.09196e-08
-5.12284e-06
-1.18472e-08
-5.10998e-06
-1.28613e-08
-5.09585e-06
-1.41293e-08
-5.08012e-06
-1.57302e-08
-5.06177e-06
-1.83576e-08
-5.04165e-06
-2.01315e-08
-5.01824e-06
-2.34205e-08
-4.99407e-06
-2.41766e-08
-4.96746e-06
-2.66215e-08
-4.93886e-06
-2.86036e-08
-4.91051e-06
-2.83543e-08
-4.87866e-06
-3.18484e-08
-4.83855e-06
-4.01089e-08
-4.80119e-06
-3.73621e-08
-4.7522e-06
-4.89891e-08
-4.70176e-06
-5.04351e-08
-4.67979e-06
-2.19596e-08
-4.63559e-06
-4.41914e-08
-4.57963e-06
-5.59428e-08
-4.5485e-06
-3.1112e-08
-4.49569e-06
-5.28032e-08
-4.39113e-06
-1.04539e-07
-4.27522e-06
-1.15894e-07
-4.18389e-06
-9.13116e-08
-4.09251e-06
-9.13717e-08
-4.0142e-06
-7.83025e-08
-3.92973e-06
-8.44575e-08
-3.83505e-06
-9.46735e-08
-3.73094e-06
-1.04097e-07
-3.62785e-06
-1.03082e-07
-3.51929e-06
-1.08556e-07
-3.39659e-06
-1.22703e-07
-3.33472e-06
-6.18659e-08
-3.28322e-06
-5.15064e-08
-3.18337e-06
-9.98524e-08
-3.10355e-06
-7.98154e-08
-2.90461e-06
-1.98946e-07
-2.65612e-06
-2.48485e-07
-2.15001e-06
-5.06091e-07
-1.43919e-06
-7.10813e-07
-8.24555e-07
-6.14616e-07
-2.65335e-07
-5.59204e-07
1.50854e-07
-4.16175e-07
5.13541e-07
-3.62677e-07
8.18019e-07
-3.04472e-07
1.08964e-06
-2.7162e-07
1.33166e-06
-2.42018e-07
1.52912e-06
-1.97453e-07
1.72967e-06
-2.00545e-07
1.92141e-06
-1.91731e-07
2.09205e-06
-1.70629e-07
2.31754e-06
-2.25469e-07
2.46538e-06
-1.47826e-07
2.53441e-06
-6.90049e-08
2.68999e-06
-1.55562e-07
2.67731e-06
1.27011e-08
2.7976e-06
-1.20277e-07
3.07794e-06
-2.80322e-07
3.77382e-06
-6.95842e-07
4.57253e-06
-7.98681e-07
5.53195e-06
-9.59378e-07
6.59783e-06
-1.06581e-06
7.67329e-06
-1.07538e-06
8.71351e-06
-1.04014e-06
9.63718e-06
-9.23601e-07
1.04162e-05
-7.78987e-07
1.10731e-05
-6.5678e-07
1.16438e-05
-5.70698e-07
1.21621e-05
-5.18259e-07
1.26423e-05
-4.80073e-07
1.30857e-05
-4.43412e-07
1.35034e-05
-4.1762e-07
1.39056e-05
-4.02209e-07
1.42947e-05
-3.89048e-07
1.46767e-05
-3.81953e-07
1.50482e-05
-3.71526e-07
1.54071e-05
-3.5884e-07
1.57572e-05
-3.50025e-07
1.61056e-05
-3.48437e-07
1.64502e-05
-3.44558e-07
1.67847e-05
-3.34518e-07
1.71138e-05
-3.29065e-07
1.74433e-05
-3.29403e-07
1.77717e-05
-3.2847e-07
1.80939e-05
-3.22119e-07
1.84069e-05
-3.1302e-07
1.87152e-05
-3.08246e-07
1.90206e-05
-3.0535e-07
1.93249e-05
-3.04308e-07
1.96261e-05
-3.01077e-07
1.99242e-05
-2.98043e-07
2.02209e-05
-2.96662e-07
2.05127e-05
-2.9169e-07
2.07969e-05
-2.84107e-07
2.10757e-05
-2.78677e-07
2.13534e-05
-2.77653e-07
2.16326e-05
-2.79234e-07
2.19132e-05
-2.80563e-07
2.21928e-05
-2.79616e-07
2.24689e-05
-2.76086e-07
2.27414e-05
-2.72552e-07
2.30085e-05
-2.67079e-07
2.32731e-05
-2.64593e-07
2.35354e-05
-2.62353e-07
2.37931e-05
-2.57696e-07
2.4048e-05
-2.54887e-07
2.43021e-05
-2.54066e-07
2.45539e-05
-2.51692e-07
2.48004e-05
-2.46446e-07
2.50405e-05
-2.3997e-07
2.52746e-05
-2.34013e-07
2.5504e-05
-2.29315e-07
2.57306e-05
-2.2645e-07
2.59553e-05
-2.24564e-07
2.61782e-05
-2.22766e-07
2.63989e-05
-2.20628e-07
2.66173e-05
-2.18213e-07
2.68327e-05
-2.15371e-07
2.70451e-05
-2.12269e-07
2.72544e-05
-2.093e-07
2.74611e-05
-2.06624e-07
2.76655e-05
-2.0441e-07
2.7868e-05
-2.02548e-07
2.80681e-05
-2.0012e-07
2.82653e-05
-1.97292e-07
2.84593e-05
-1.94119e-07
2.86515e-05
-1.92307e-07
2.88419e-05
-1.90623e-07
2.90318e-05
-1.90027e-07
2.92185e-05
-1.86828e-07
2.94032e-05
-1.84963e-07
2.95863e-05
-1.83318e-07
2.97679e-05
-1.8175e-07
2.99476e-05
-1.79924e-07
3.01275e-05
-1.80139e-07
3.03105e-05
-1.83281e-07
3.04974e-05
-1.87179e-07
3.06884e-05
-1.9122e-07
3.08823e-05
-1.94151e-07
3.10765e-05
-1.94483e-07
-2.17581e-07
-7.52038e-05
1.06743e-05
-7.63303e-05
3.15965e-06
-7.71118e-05
3.18988e-06
-7.72436e-05
2.47523e-06
-7.58215e-05
-2.21046e-07
-7.15778e-05
-5.53503e-06
-6.46045e-05
-1.23973e-05
-5.74454e-05
-1.63935e-05
-5.10558e-05
-1.67738e-05
-4.47241e-05
-1.56339e-05
-3.85125e-05
-1.46142e-05
-3.28158e-05
-1.40369e-05
-2.73348e-05
-1.37446e-05
-2.24118e-05
-1.30293e-05
-1.8733e-05
-1.08772e-05
-1.61866e-05
-7.13777e-06
-1.49255e-05
-1.50865e-06
-1.54028e-05
4.40751e-06
-1.68761e-05
7.03488e-06
-1.86769e-05
7.28953e-06
-2.05603e-05
5.66931e-06
-2.24858e-05
3.58808e-06
-2.35615e-05
8.72813e-07
-2.28767e-05
-2.25499e-06
-2.10154e-05
-4.67709e-06
-1.87147e-05
-5.96394e-06
-1.63457e-05
-6.37775e-06
-1.40438e-05
-6.25966e-06
-1.20319e-05
-5.32869e-06
-1.0984e-05
-3.20223e-06
-1.08492e-05
-1.0171e-06
-1.13538e-05
9.70592e-07
-1.27811e-05
3.1571e-06
-1.50889e-05
4.98997e-06
-1.74276e-05
6.08352e-06
-1.90391e-05
5.89282e-06
-2.01075e-05
4.52487e-06
-2.11296e-05
3.05509e-06
-2.22596e-05
2.46288e-06
-2.33685e-05
2.51582e-06
-2.43079e-05
2.54402e-06
-2.49532e-05
1.78775e-06
-2.49279e-05
4.51083e-08
-2.4373e-05
-1.4334e-06
-2.35993e-05
-2.08358e-06
-2.26494e-05
-2.13319e-06
-2.1713e-05
-1.50606e-06
-2.10492e-05
-7.12221e-07
-2.04951e-05
-6.44274e-07
-1.98163e-05
-1.22198e-06
-1.89703e-05
-2.06207e-06
-1.79693e-05
-2.46641e-06
-1.68349e-05
-2.36579e-06
-1.58283e-05
-1.66862e-06
-1.50848e-05
-1.09251e-06
-1.45137e-05
-9.78874e-07
-1.39573e-05
-1.2687e-06
-1.30858e-05
-1.94654e-06
-1.18641e-05
-2.56178e-06
-1.04455e-05
-2.95859e-06
-9.00714e-06
-3.26428e-06
-7.6568e-06
-3.37552e-06
-6.5567e-06
-2.94757e-06
-5.75636e-06
-2.08696e-06
-4.94148e-06
-1.51898e-06
-3.89793e-06
-1.32636e-06
-2.70486e-06
-1.44554e-06
-1.64188e-06
-1.36124e-06
-9.91653e-07
-8.47346e-07
-6.57735e-07
-3.89254e-07
-4.34829e-07
-3.56952e-07
-2.62773e-07
-5.98835e-07
1.05559e-07
-1.21936e-06
7.93114e-07
-1.85196e-06
1.72206e-06
-2.27855e-06
2.65465e-06
-2.4306e-06
3.46038e-06
-2.20905e-06
3.67231e-06
-1.07066e-06
3.61386e-06
-7.55187e-07
4.01087e-06
-6.23571e-07
4.48882e-06
-5.15442e-07
5.54791e-06
-8.77456e-07
6.20615e-06
-6.24618e-07
6.76183e-06
-5.97125e-07
7.00658e-06
-2.09879e-08
7.18516e-06
1.93195e-07
7.3001e-06
5.4619e-07
7.20756e-06
9.02178e-07
6.69026e-06
1.22103e-06
5.69091e-06
1.70485e-06
4.48455e-06
1.72182e-06
3.45244e-06
1.35168e-06
2.58308e-06
1.20888e-06
2.02251e-06
8.97727e-07
1.6503e-06
8.99115e-07
1.24081e-06
1.00569e-06
9.41279e-07
1.33468e-06
5.76463e-07
1.60877e-06
6.09363e-07
2.08229e-06
2.19683e-07
3.01496e-06
-1.0063e-06
3.4733e-06
-3.30065e-06
3.7053e-06
-6.23957e-06
3.23586e-06
-8.69512e-06
2.60293e-06
-1.04868e-05
1.45298e-06
-1.12161e-05
3.60373e-07
-1.1274e-05
1.17366e-07
-1.12645e-05
3.13289e-07
-1.0854e-05
-1.65748e-07
-1.02871e-05
-5.9756e-07
-1.02369e-05
-9.79471e-08
-1.0307e-05
-1.32783e-07
-1.02495e-05
-3.24638e-07
-1.02042e-05
-2.28119e-07
-1.00729e-05
-2.29372e-07
-9.8793e-06
-2.28275e-07
-9.76068e-06
-7.0239e-08
-9.73016e-06
5.84044e-08
-9.71372e-06
3.77368e-08
-9.73915e-06
-1.33527e-10
-9.83498e-06
2.09346e-08
-9.92947e-06
4.46124e-08
-9.91886e-06
-8.35156e-08
-9.83623e-06
-1.78778e-07
-9.7464e-06
-1.53825e-07
-9.63898e-06
-1.58771e-07
-9.5409e-06
-1.4365e-07
-9.48751e-06
-9.23839e-08
-9.43914e-06
-1.23325e-07
-9.36325e-06
-1.74215e-07
-9.2847e-06
-1.79565e-07
-9.18114e-06
-2.15525e-07
-9.08345e-06
-1.95037e-07
-8.98654e-06
-1.81358e-07
-8.88339e-06
-1.85966e-07
-8.75921e-06
-2.43833e-07
-8.61334e-06
-2.997e-07
-8.46241e-06
-3.10499e-07
-8.30692e-06
-3.15699e-07
-8.1511e-06
-3.13654e-07
-7.9873e-06
-3.31794e-07
-7.80974e-06
-3.58125e-07
-7.62445e-06
-3.78254e-07
-7.43782e-06
-3.76786e-07
-7.25354e-06
-3.57903e-07
-7.06329e-06
-3.67054e-07
-6.86508e-06
-3.85201e-07
-6.65177e-06
-4.21382e-07
-6.43509e-06
-4.44761e-07
-6.22509e-06
-4.37036e-07
-6.0159e-06
-4.1707e-07
-5.79622e-06
-4.20171e-07
-5.56117e-06
-4.59957e-07
-5.3119e-06
-5.02171e-07
-5.06596e-06
-5.04172e-07
-4.82645e-06
-4.9456e-07
-4.57726e-06
-5.02254e-07
-4.30886e-06
-5.23587e-07
-4.03025e-06
-5.41412e-07
-3.75409e-06
-5.47968e-07
-3.48319e-06
-5.50379e-07
-3.20574e-06
-5.65131e-07
-2.92355e-06
-5.72593e-07
-2.64122e-06
-5.66422e-07
-2.34831e-06
-5.80963e-07
-2.04698e-06
-6.0228e-07
-1.74678e-06
-6.03029e-07
-1.45662e-06
-5.80174e-07
-1.16836e-06
-5.76176e-07
-8.71844e-07
-5.95552e-07
-5.6964e-07
-6.09089e-07
-2.74343e-07
-5.95655e-07
1.34325e-08
-5.7061e-07
2.99491e-07
-5.65059e-07
5.85999e-07
-5.76244e-07
8.76461e-07
-5.872e-07
1.16872e-06
-5.90001e-07
1.45944e-06
-5.81237e-07
1.74241e-06
-5.56209e-07
2.01575e-06
-5.37639e-07
2.28449e-06
-5.34701e-07
2.55158e-06
-5.36374e-07
2.82351e-06
-5.4885e-07
3.09924e-06
-5.54128e-07
3.37454e-06
-5.48814e-07
3.64438e-06
-5.34637e-07
3.90204e-06
-5.10573e-07
4.15321e-06
-5.03628e-07
4.40455e-06
-5.0922e-07
4.65906e-06
-5.14068e-07
4.91463e-06
-5.07929e-07
5.16651e-06
-4.94283e-07
5.41004e-06
-4.79298e-07
5.64556e-06
-4.6983e-07
5.87848e-06
-4.69815e-07
6.11287e-06
-4.73011e-07
6.3458e-06
-4.68864e-07
6.57247e-06
-4.52881e-07
6.79159e-06
-4.32668e-07
7.0051e-06
-4.20531e-07
7.21707e-06
-4.20094e-07
7.4269e-06
-4.20962e-07
7.6318e-06
-4.12477e-07
7.82923e-06
-3.97026e-07
8.02137e-06
-3.82824e-07
8.2107e-06
-3.73452e-07
8.39628e-06
-3.68542e-07
8.57549e-06
-3.60516e-07
8.74583e-06
-3.43593e-07
8.90776e-06
-3.19218e-07
9.06704e-06
-3.13913e-07
9.22445e-06
-3.14796e-07
9.37694e-06
-3.0721e-07
9.52295e-06
-2.95196e-07
9.66083e-06
-2.75959e-07
9.78917e-06
-2.51457e-07
9.9096e-06
-2.35275e-07
1.00251e-05
-2.30118e-07
1.01379e-05
-2.27719e-07
1.02453e-05
-2.18018e-07
1.03458e-05
-2.04149e-07
1.04382e-05
-1.83654e-07
1.05217e-05
-1.62152e-07
1.05971e-05
-1.46665e-07
1.06656e-05
-1.36916e-07
1.07295e-05
-1.30404e-07
1.0788e-05
-1.20463e-07
1.084e-05
-1.07253e-07
1.08834e-05
-8.60919e-08
1.09173e-05
-6.52303e-08
1.09448e-05
-5.19891e-08
1.09684e-05
-4.51672e-08
1.09874e-05
-3.88176e-08
1.10005e-05
-2.76015e-08
1.10065e-05
-1.22178e-08
1.10034e-05
4.8645e-09
1.09911e-05
2.12093e-08
1.09719e-05
3.60159e-08
1.09479e-05
4.83088e-08
1.09208e-05
5.72787e-08
1.08895e-05
6.73234e-08
1.08514e-05
7.55728e-08
1.08064e-05
8.64956e-08
1.07552e-05
9.8753e-08
1.06968e-05
1.12703e-07
1.06322e-05
1.29862e-07
1.05638e-05
1.42078e-07
1.04922e-05
1.44426e-07
1.04157e-05
1.5031e-07
1.03328e-05
1.62278e-07
1.02432e-05
1.75534e-07
1.01483e-05
1.89934e-07
1.00498e-05
1.99615e-07
9.94836e-06
2.05707e-07
9.84206e-06
2.13171e-07
9.72989e-06
2.22112e-07
9.61075e-06
2.34539e-07
9.48539e-06
2.4718e-07
9.35892e-06
2.53171e-07
9.2308e-06
2.58891e-07
9.09849e-06
2.6552e-07
8.96183e-06
2.71376e-07
8.82037e-06
2.80463e-07
8.67268e-06
2.93697e-07
8.51988e-06
3.06178e-07
8.36422e-06
3.14561e-07
8.20761e-06
3.13515e-07
8.04897e-06
3.15189e-07
7.88701e-06
3.21954e-07
7.72112e-06
3.29127e-07
7.55132e-06
3.36997e-07
7.37846e-06
3.4585e-07
7.20381e-06
3.52605e-07
7.02702e-06
3.57018e-07
6.84693e-06
3.59793e-07
6.66473e-06
3.61623e-07
6.48147e-06
3.64256e-07
6.29738e-06
3.66705e-07
6.11262e-06
3.68341e-07
5.92585e-06
3.72309e-07
5.73588e-06
3.80567e-07
5.54451e-06
3.8554e-07
5.35339e-06
3.832e-07
5.16322e-06
3.79208e-07
4.9724e-06
3.8011e-07
4.77987e-06
3.82989e-07
4.58716e-06
3.83303e-07
4.39521e-06
3.83538e-07
4.20366e-06
3.84969e-07
4.01272e-06
3.84248e-07
3.82259e-06
3.81441e-07
3.63242e-06
3.79121e-07
3.44248e-06
3.77636e-07
3.25406e-06
3.7505e-07
3.06835e-06
3.71364e-07
2.88494e-06
3.69339e-07
2.70281e-06
3.67126e-07
2.52052e-06
3.64769e-07
2.33904e-06
3.61073e-07
2.16069e-06
3.55071e-07
1.98656e-06
3.48069e-07
1.81553e-06
3.43908e-07
1.64607e-06
3.40859e-07
1.47782e-06
3.36142e-07
1.31245e-06
3.29469e-07
1.15245e-06
3.20288e-07
9.96528e-07
3.13621e-07
8.42876e-07
3.08392e-07
6.9134e-07
3.0248e-07
5.43869e-07
2.94141e-07
4.01344e-07
2.84935e-07
2.62504e-07
2.78109e-07
1.26632e-07
2.7287e-07
-6.93336e-09
2.6748e-07
-1.37367e-07
2.59804e-07
-2.63244e-07
2.51102e-07
-3.85573e-07
2.44532e-07
-5.05152e-07
2.39079e-07
-6.225e-07
2.34471e-07
-7.38092e-07
2.30453e-07
-8.51759e-07
2.26485e-07
-9.6336e-07
2.22623e-07
-1.07315e-06
2.1945e-07
-1.18161e-06
2.17267e-07
-1.28903e-06
2.15144e-07
-1.39572e-06
2.13112e-07
-1.50194e-06
2.11968e-07
-1.6076e-06
2.11249e-07
-1.71246e-06
2.10079e-07
-1.81646e-06
2.08383e-07
-1.91973e-06
2.06577e-07
-2.0225e-06
2.05262e-07
-2.12483e-06
2.04503e-07
-2.22663e-06
2.04125e-07
-2.32773e-06
2.03063e-07
-2.42814e-06
2.00974e-07
-2.52717e-06
1.978e-07
-2.62484e-06
1.95146e-07
-2.72109e-06
1.92477e-07
-2.81577e-06
1.89582e-07
-2.90904e-06
1.86765e-07
-3.00094e-06
1.83803e-07
-3.09123e-06
1.80425e-07
-3.1798e-06
1.76837e-07
-3.26656e-06
1.73255e-07
-3.35103e-06
1.68947e-07
-3.43318e-06
1.64553e-07
-3.51322e-06
1.60274e-07
-3.59122e-06
1.56061e-07
-3.66719e-06
1.5189e-07
-3.74105e-06
1.47746e-07
-3.81277e-06
1.43538e-07
-3.88226e-06
1.39052e-07
-3.94944e-06
1.34408e-07
-4.01434e-06
1.29845e-07
-4.07707e-06
1.25521e-07
-4.13776e-06
1.21365e-07
-4.1965e-06
1.17349e-07
-4.25313e-06
1.13115e-07
-4.30741e-06
1.08529e-07
-4.35948e-06
1.04194e-07
-4.40953e-06
1.00105e-07
-4.45761e-06
9.60922e-08
-4.50368e-06
9.20923e-08
-4.54784e-06
8.83882e-08
-4.59008e-06
8.47929e-08
-4.6304e-06
8.1119e-08
-4.66891e-06
7.73174e-08
-4.70565e-06
7.35014e-08
-4.74076e-06
7.00859e-08
-4.77432e-06
6.712e-08
-4.80637e-06
6.41823e-08
-4.83666e-06
6.0659e-08
-4.86512e-06
5.69848e-08
-4.89193e-06
5.36691e-08
-4.91736e-06
5.08732e-08
-4.94159e-06
4.83758e-08
-4.96456e-06
4.58074e-08
-4.98612e-06
4.31841e-08
-5.00628e-06
4.08339e-08
-5.0251e-06
3.83303e-08
-5.04284e-06
3.56453e-08
-5.05941e-06
3.30459e-08
-5.07493e-06
3.09852e-08
-5.08952e-06
2.90814e-08
-5.10309e-06
2.71098e-08
-5.1155e-06
2.49853e-08
-5.1269e-06
2.29844e-08
-5.13732e-06
2.08066e-08
-5.14683e-06
1.88486e-08
-5.15539e-06
1.71143e-08
-5.16282e-06
1.52265e-08
-5.16926e-06
1.31963e-08
-5.17482e-06
1.10429e-08
-5.1796e-06
9.22484e-09
-5.18335e-06
7.228e-09
-5.18601e-06
5.08705e-09
-5.18743e-06
3.04483e-09
-5.18791e-06
1.43454e-09
-5.18752e-06
-4.32062e-10
-5.18639e-06
-2.4332e-09
-5.18407e-06
-4.86017e-09
-5.18063e-06
-7.24638e-09
-5.17576e-06
-9.73554e-09
-5.16986e-06
-1.17073e-08
-5.16272e-06
-1.32994e-08
-5.15496e-06
-1.50676e-08
-5.14599e-06
-1.80583e-08
-5.13601e-06
-2.08969e-08
-5.12535e-06
-2.24971e-08
-5.11295e-06
-2.52589e-08
-5.09912e-06
-2.79635e-08
-5.08174e-06
-3.31194e-08
-5.06401e-06
-3.60874e-08
-5.04333e-06
-4.08217e-08
-5.022e-06
-4.47639e-08
-5.00115e-06
-4.50346e-08
-4.97699e-06
-5.0787e-08
-4.94298e-06
-6.26246e-08
-4.91145e-06
-5.9885e-08
-4.8659e-06
-7.74059e-08
-4.82629e-06
-7.97194e-08
-4.8191e-06
-4.45458e-08
-4.7941e-06
-7.39752e-08
-4.75138e-06
-9.31396e-08
-4.71356e-06
-5.97666e-08
-4.68353e-06
-7.42014e-08
-4.61209e-06
-1.27355e-07
-4.50568e-06
-1.37492e-07
-4.41383e-06
-1.4463e-07
-4.34896e-06
-1.69393e-07
-4.29281e-06
-1.72024e-07
-4.22289e-06
-1.61214e-07
-4.13363e-06
-1.80627e-07
-4.03911e-06
-1.72804e-07
-3.92431e-06
-1.99255e-07
-3.80117e-06
-2.17791e-07
-3.68561e-06
-2.1965e-07
-3.6335e-06
-1.55172e-07
-3.59884e-06
-1.43203e-07
-3.50597e-06
-2.15549e-07
-3.37082e-06
-1.97003e-07
-3.07476e-06
-3.47547e-07
-2.75216e-06
-4.22433e-07
-2.20203e-06
-6.29925e-07
-1.5199e-06
-8.81056e-07
-9.13285e-07
-8.55076e-07
-4.64857e-07
-9.54493e-07
-2.28533e-07
-9.4711e-07
-7.54132e-09
-8.35581e-07
2.23838e-07
-7.90559e-07
4.56141e-07
-6.48458e-07
6.81207e-07
-5.87728e-07
9.08219e-07
-5.31471e-07
1.13297e-06
-4.96357e-07
1.35524e-06
-4.64278e-07
1.56675e-06
-4.08938e-07
1.84539e-06
-4.79163e-07
2.02524e-06
-3.71556e-07
2.12421e-06
-2.69579e-07
2.26609e-06
-3.67325e-07
2.31222e-06
-1.93934e-07
2.54514e-06
-3.01902e-07
2.90917e-06
-5.19564e-07
3.82645e-06
-9.04563e-07
4.72377e-06
-1.01757e-06
5.63498e-06
-1.19152e-06
6.57264e-06
-1.63351e-06
7.56263e-06
-1.78868e-06
8.4997e-06
-1.89648e-06
9.20046e-06
-1.76659e-06
9.71769e-06
-1.59262e-06
1.01616e-05
-1.484e-06
1.06161e-05
-1.37815e-06
1.10875e-05
-1.25031e-06
1.15506e-05
-1.11989e-06
1.19981e-05
-1.01819e-06
1.24301e-05
-9.50156e-07
1.28496e-05
-8.9948e-07
1.32579e-05
-8.51574e-07
1.36564e-05
-8.16098e-07
1.40473e-05
-7.92987e-07
1.44304e-05
-7.72056e-07
1.48042e-05
-7.55643e-07
1.51681e-05
-7.35278e-07
1.55245e-05
-7.15117e-07
1.58752e-05
-7.00539e-07
1.62216e-05
-6.94726e-07
1.65627e-05
-6.85591e-07
1.68995e-05
-6.71117e-07
1.72327e-05
-6.62215e-07
1.75623e-05
-6.58884e-07
1.78876e-05
-6.53676e-07
1.8209e-05
-6.43404e-07
1.85262e-05
-6.3004e-07
1.88393e-05
-6.21289e-07
1.91486e-05
-6.14521e-07
1.94538e-05
-6.09439e-07
1.97569e-05
-6.0406e-07
2.00578e-05
-5.98824e-07
2.03542e-05
-5.92962e-07
2.06455e-05
-5.82942e-07
2.09326e-05
-5.71158e-07
2.12166e-05
-5.62727e-07
2.14986e-05
-5.5964e-07
2.17788e-05
-5.59382e-07
2.20563e-05
-5.58152e-07
2.23311e-05
-5.54468e-07
2.26033e-05
-5.483e-07
2.28725e-05
-5.41874e-07
2.31394e-05
-5.34049e-07
2.34037e-05
-5.29e-07
2.36647e-05
-5.2347e-07
2.3922e-05
-5.15099e-07
2.41757e-05
-5.08635e-07
2.4426e-05
-5.04309e-07
2.46724e-05
-4.98129e-07
2.49151e-05
-4.89145e-07
2.51544e-05
-4.79211e-07
2.53905e-05
-4.69997e-07
2.56235e-05
-4.62242e-07
2.58531e-05
-4.55986e-07
2.60793e-05
-4.50666e-07
2.63024e-05
-4.45711e-07
2.65228e-05
-4.40847e-07
2.67404e-05
-4.35714e-07
2.69553e-05
-4.3008e-07
2.71673e-05
-4.24044e-07
2.73763e-05
-4.1803e-07
2.75826e-05
-4.1271e-07
2.77867e-05
-4.08258e-07
2.79883e-05
-4.03796e-07
2.81869e-05
-3.98454e-07
2.83827e-05
-3.9279e-07
2.85762e-05
-3.873e-07
2.87683e-05
-3.84083e-07
2.89586e-05
-3.80553e-07
2.91466e-05
-3.77577e-07
2.93323e-05
-3.72124e-07
2.95168e-05
-3.69037e-07
2.97005e-05
-3.66663e-07
2.9883e-05
-3.63796e-07
3.00638e-05
-3.60359e-07
3.0244e-05
-3.59874e-07
3.04238e-05
-3.62676e-07
3.0603e-05
-3.65978e-07
3.07812e-05
-3.69027e-07
3.09572e-05
-3.69837e-07
3.11335e-05
-3.70446e-07
-3.78088e-07
-7.37443e-05
1.36551e-05
-7.40011e-05
3.41499e-06
-7.38718e-05
3.05946e-06
-7.26965e-05
1.2992e-06
-6.99436e-05
-2.97463e-06
-6.53488e-05
-1.01302e-05
-6.06154e-05
-1.7131e-05
-5.73129e-05
-1.96962e-05
-5.40621e-05
-2.00248e-05
-5.04833e-05
-1.92128e-05
-4.75109e-05
-1.75866e-05
-4.58178e-05
-1.57299e-05
-4.4857e-05
-1.47054e-05
-4.38139e-05
-1.40724e-05
-4.28168e-05
-1.18742e-05
-4.15646e-05
-8.38984e-06
-3.95485e-05
-3.5246e-06
-3.69018e-05
1.7609e-06
-3.43638e-05
4.49712e-06
-3.23151e-05
5.24092e-06
-3.10763e-05
4.43063e-06
-3.04356e-05
2.94754e-06
-3.01256e-05
5.62996e-07
-3.03537e-05
-2.02679e-06
-3.12796e-05
-3.75106e-06
-3.23806e-05
-4.86277e-06
-3.32773e-05
-5.4809e-06
-3.38831e-05
-5.65376e-06
-3.42645e-05
-4.94711e-06
-3.46584e-05
-2.80822e-06
-3.54567e-05
-2.18719e-07
-3.62097e-05
1.72378e-06
-3.61008e-05
3.04839e-06
-3.49249e-05
3.81416e-06
-3.27747e-05
3.93347e-06
-3.03121e-05
3.43037e-06
-2.84429e-05
2.65584e-06
-2.76978e-05
2.31017e-06
-2.75946e-05
2.35983e-06
-2.75749e-05
2.4963e-06
-2.73389e-05
2.30809e-06
-2.69132e-05
1.36222e-06
-2.62136e-05
-6.54298e-07
-2.53887e-05
-2.2582e-06
-2.45369e-05
-2.93524e-06
-2.35974e-05
-3.07256e-06
-2.25022e-05
-2.60114e-06
-2.14608e-05
-1.75345e-06
-2.04464e-05
-1.6586e-06
-1.93596e-05
-2.3087e-06
-1.83864e-05
-3.03524e-06
-1.74714e-05
-3.38136e-06
-1.65072e-05
-3.32996e-06
-1.54926e-05
-2.68313e-06
-1.46414e-05
-1.94364e-06
-1.39207e-05
-1.69948e-06
-1.32884e-05
-1.90098e-06
-1.25655e-05
-2.66935e-06
-1.17194e-05
-3.40777e-06
-1.08205e-05
-3.85743e-06
-9.9667e-06
-4.11795e-06
-9.18535e-06
-4.15676e-06
-8.4319e-06
-3.70091e-06
-7.63667e-06
-2.88207e-06
-6.45075e-06
-2.70477e-06
-4.75765e-06
-3.01934e-06
-2.88837e-06
-3.3147e-06
-1.27375e-06
-2.97575e-06