/*--------------------------------*- C++ -*----------------------------------*\
| =========                 |                                                 |
| \\      /  F ield         | OpenFOAM: The Open Source CFD Toolbox           |
|  \\    /   O peration     | Version:  v2006                                 |
|   \\  /    A nd           | Website:  www.openfoam.com                      |
|    \\/     M anipulation  |                                                 |
\*---------------------------------------------------------------------------*/
FoamFile
{
    version     2.0;
    format      ascii;
    class       volVectorField;
    location    "8";
    object      U;
}
// * * * * * * * * * * * * * * * * * * * * * * * * * * * * * * * * * * * * * //

dimensions      [0 1 -1 0 0 0 0];


internalField   nonuniform List<vector> 
33000
(
(-0.183003 0 0.0136697)
(-0.19552 0 0.00474109)
(-0.198093 0 0.00620482)
(-0.206934 0 0.00675748)
(-0.210885 0 0.00444665)
(-0.21253 0 0.000306528)
(-0.204494 0 -0.00882171)
(-0.183641 0 -0.0191525)
(-0.156179 0 -0.0265476)
(-0.132226 0 -0.0242782)
(-0.112008 0 -0.0206339)
(-0.0908635 0 -0.020709)
(-0.0701799 0 -0.0209279)
(-0.0494707 0 -0.0211623)
(-0.0297926 0 -0.0184987)
(-0.0142897 0 -0.0109519)
(-0.00631904 0 0.00266697)
(-0.0120822 0 0.0125661)
(-0.0253279 0 0.0151846)
(-0.0403196 0 0.0129519)
(-0.0535885 0 0.00562242)
(-0.0595911 0 -0.00160309)
(-0.0608496 0 -0.0040341)
(-0.0588015 0 -0.00529215)
(-0.0533114 0 -0.00634561)
(-0.0445653 0 -0.00781717)
(-0.0349701 0 -0.00895633)
(-0.0247512 0 -0.00948646)
(-0.0152649 0 -0.00812513)
(-0.00827743 0 -0.0039293)
(-0.00423684 0 0.00268965)
(-0.00374577 0 0.00823616)
(-0.00680387 0 0.00914043)
(-0.0120019 0 0.00799412)
(-0.0200688 0 0.0100797)
(-0.0311886 0 0.013014)
(-0.0415309 0 0.0103906)
(-0.0484734 0 0.00588331)
(-0.0518417 0 0.00349629)
(-0.0548892 0 0.00367794)
(-0.0590232 0 0.00425664)
(-0.06285 0 0.00281627)
(-0.0644223 0 0.000187411)
(-0.0631973 0 -0.00231988)
(-0.0601304 0 -0.00349701)
(-0.056661 0 -0.00243447)
(-0.0544014 0 -0.000252245)
(-0.0539059 0 0.000829351)
(-0.0538289 0 0.00046757)
(-0.0534639 0 -0.00107826)
(-0.0510865 0 -0.00325199)
(-0.0474925 0 -0.00349808)
(-0.0439055 0 -0.00221682)
(-0.0414677 0 -0.000664361)
(-0.0403669 0 -1.26042e-05)
(-0.0396838 0 -0.000462416)
(-0.0383652 0 -0.00154105)
(-0.0360466 0 -0.00231679)
(-0.0329971 0 -0.00257766)
(-0.0294623 0 -0.00274392)
(-0.0252619 0 -0.00365736)
(-0.0203366 0 -0.00460406)
(-0.0152448 0 -0.00463004)
(-0.0111584 0 -0.00294563)
(-0.00867164 0 -0.00104947)
(-0.00764386 0 0.000189669)
(-0.00715858 0 0.000152549)
(-0.00646293 0 -3.57936e-05)
(-0.00577334 0 -5.86632e-05)
(-0.00541994 0 0.00021558)
(-0.00545014 0 2.6436e-06)
(-0.0048328 0 -0.000935138)
(-0.00306631 0 -0.00176409)
(-0.000635503 0 -0.00249473)
(0.00308335 0 -0.0022892)
(0.00554065 0 -0.00256639)
(0.0120296 0 -0.00177224)
(0.0107896 0 -0.00197496)
(0.0161827 0 -0.000546471)
(0.0160122 0 0.000786743)
(0.0165493 0 0.000519444)
(0.0164249 0 0.00144868)
(0.0157153 0 0.000859999)
(0.016147 0 0.000839019)
(0.0159372 0 0.00131992)
(0.0151287 0 0.00142118)
(0.0139605 0 0.0024211)
(0.0118978 0 0.00172932)
(0.00986854 0 0.000484369)
(0.00839491 0 0.000485301)
(0.00635029 0 -0.000144697)
(0.00578346 0 0.000329083)
(0.00480723 0 0.000600974)
(0.0040327 0 0.000928297)
(0.00316099 0 0.00147443)
(0.00137845 0 0.00149751)
(0.000177924 0 0.00324589)
(-0.00376288 0 0.00368859)
(-0.00612061 0 0.00842662)
(-0.0142483 0 0.00763643)
(-0.0193047 0 0.00297512)
(-0.0255177 0 -0.00371826)
(-0.0262327 0 -0.00563076)
(-0.0271085 0 -0.00110268)
(-0.0269224 0 0.00174697)
(-0.0254212 0 0.00252107)
(-0.0251104 0 0.00143048)
(-0.0256807 0 0.000503961)
(-0.0267497 0 -0.00148255)
(-0.026866 0 -0.00183079)
(-0.0266397 0 -0.0014287)
(-0.0265845 0 -0.000791723)
(-0.0256698 0 -0.000482666)
(-0.0251977 0 -9.42744e-05)
(-0.0248317 0 -8.83307e-05)
(-0.0245728 0 0.000110256)
(-0.0248957 0 0.000312987)
(-0.0246606 0 0.000103115)
(-0.0252129 0 -0.000275745)
(-0.0251439 0 -0.000507479)
(-0.0249768 0 -0.000513449)
(-0.024803 0 -0.000122003)
(-0.02473 0 0.000127048)
(-0.0244299 0 0.000137041)
(-0.0242443 0 -1.64543e-05)
(-0.0241209 0 -0.000191395)
(-0.0239803 0 -0.000252304)
(-0.0238987 0 -0.000152787)
(-0.0237803 0 -0.000119824)
(-0.0235253 0 -6.72788e-05)
(-0.0232905 0 -0.00010651)
(-0.0230171 0 -0.000133892)
(-0.022736 0 -0.000188812)
(-0.0225261 0 -9.16064e-05)
(-0.0223185 0 -0.000113576)
(-0.0221058 0 -0.000135987)
(-0.0217235 0 -0.00022345)
(-0.0213367 0 -0.000221442)
(-0.0209262 0 -0.00024708)
(-0.0205355 0 -0.000260341)
(-0.0201362 0 -0.000291855)
(-0.0196951 0 -0.000328277)
(-0.0192336 0 -0.000353132)
(-0.0187294 0 -0.000357364)
(-0.0182854 0 -0.000306216)
(-0.0178573 0 -0.000320796)
(-0.0174036 0 -0.000342269)
(-0.0169199 0 -0.000402221)
(-0.0163642 0 -0.000448114)
(-0.0157798 0 -0.000456848)
(-0.0152301 0 -0.000401679)
(-0.0147404 0 -0.00037723)
(-0.0142263 0 -0.0004366)
(-0.0136157 0 -0.000504298)
(-0.0129641 0 -0.0005184)
(-0.0123245 0 -0.000521249)
(-0.0116897 0 -0.000503643)
(-0.0110594 0 -0.00049421)
(-0.0104141 0 -0.000507922)
(-0.00974601 0 -0.000540977)
(-0.00905532 0 -0.000566451)
(-0.00834948 0 -0.000580944)
(-0.00761673 0 -0.000583445)
(-0.00689889 0 -0.000567677)
(-0.00619547 0 -0.000568208)
(-0.00545893 0 -0.000596679)
(-0.0046905 0 -0.00060218)
(-0.00394581 0 -0.000575333)
(-0.00323961 0 -0.000570742)
(-0.00250578 0 -0.00059254)
(-0.00174439 0 -0.000609248)
(-0.000971328 0 -0.000597423)
(-0.000242803 0 -0.000555068)
(0.000443514 0 -0.00054417)
(0.00115279 0 -0.000572253)
(0.0018919 0 -0.000588424)
(0.00263596 0 -0.000589805)
(0.0033805 0 -0.000568944)
(0.00408741 0 -0.000526699)
(0.00474614 0 -0.000510567)
(0.00540942 0 -0.000521829)
(0.00607435 0 -0.000533472)
(0.00675605 0 -0.000548724)
(0.00745796 0 -0.000547458)
(0.00814664 0 -0.0005321)
(0.00882586 0 -0.00051382)
(0.00946856 0 -0.000494283)
(0.0100917 0 -0.000499444)
(0.0107299 0 -0.000512221)
(0.0113813 0 -0.000512822)
(0.0120267 0 -0.000491062)
(0.0126429 0 -0.000467233)
(0.0132388 0 -0.000457646)
(0.0138218 0 -0.0004613)
(0.0144107 0 -0.000469434)
(0.0150062 0 -0.00047171)
(0.0156038 0 -0.000465999)
(0.0161859 0 -0.000445694)
(0.0167343 0 -0.000415774)
(0.0172547 0 -0.000400562)
(0.0177695 0 -0.000404876)
(0.0182962 0 -0.000416281)
(0.0188249 0 -0.000410583)
(0.0193343 0 -0.000395097)
(0.0198236 0 -0.000374734)
(0.0202876 0 -0.000357811)
(0.0207459 0 -0.000357329)
(0.0212019 0 -0.000357913)
(0.0216539 0 -0.000342965)
(0.0220664 0 -0.000306005)
(0.0224433 0 -0.00030049)
(0.0228394 0 -0.000309677)
(0.0232305 0 -0.000306433)
(0.023613 0 -0.000296204)
(0.0239769 0 -0.000271064)
(0.0243023 0 -0.000236749)
(0.0245937 0 -0.000220768)
(0.0248762 0 -0.000225216)
(0.0251671 0 -0.00022825)
(0.02545 0 -0.000219799)
(0.0257204 0 -0.000206184)
(0.0259673 0 -0.00017876)
(0.0261761 0 -0.000149676)
(0.0263608 0 -0.000136231)
(0.0265317 0 -0.000134462)
(0.0267029 0 -0.00013271)
(0.0268633 0 -0.000124414)
(0.0270128 0 -0.000111202)
(0.027138 0 -8.36992e-05)
(0.0272263 0 -5.86965e-05)
(0.0272944 0 -4.47025e-05)
(0.0273488 0 -4.12209e-05)
(0.0274022 0 -4.01633e-05)
(0.0274474 0 -2.91633e-05)
(0.027474 0 -1.12348e-05)
(0.0274786 0 4.2952e-06)
(0.0274647 0 1.53437e-05)
(0.0274339 0 3.1256e-05)
(0.0273794 0 4.65163e-05)
(0.0273127 0 6.18446e-05)
(0.0272269 0 7.55137e-05)
(0.0271331 0 7.37144e-05)
(0.0270377 0 7.9589e-05)
(0.0269251 0 9.17274e-05)
(0.0267991 0 0.00010415)
(0.0266523 0 0.000128958)
(0.0264718 0 0.000149602)
(0.0262839 0 0.000144326)
(0.0261062 0 0.000143329)
(0.0259135 0 0.000154003)
(0.0257088 0 0.000167687)
(0.025482 0 0.000187405)
(0.025233 0 0.000201327)
(0.0249753 0 0.000207681)
(0.0247108 0 0.000210435)
(0.02444 0 0.000214918)
(0.0241601 0 0.000224364)
(0.023862 0 0.000236653)
(0.0235506 0 0.000249964)
(0.0232279 0 0.00026014)
(0.0228966 0 0.000263258)
(0.0225616 0 0.000263792)
(0.0222229 0 0.000271528)
(0.0218661 0 0.000284881)
(0.0214932 0 0.000301603)
(0.0210985 0 0.000316008)
(0.0206997 0 0.000309496)
(0.0203131 0 0.000306272)
(0.019917 0 0.000313155)
(0.0195128 0 0.000319332)
(0.0191009 0 0.000327797)
(0.0186763 0 0.000341243)
(0.018236 0 0.000352746)
(0.0177866 0 0.000357058)
(0.017335 0 0.000352453)
(0.016888 0 0.000350953)
(0.0164378 0 0.000355254)
(0.0159832 0 0.000358575)
(0.0155248 0 0.000360445)
(0.0150654 0 0.000364373)
(0.0145969 0 0.000376097)
(0.0141124 0 0.000384505)
(0.0136263 0 0.000378308)
(0.0131519 0 0.000370688)
(0.0126809 0 0.000371359)
(0.0122053 0 0.000373738)
(0.0117285 0 0.000374291)
(0.0112521 0 0.000377318)
(0.0107703 0 0.000382136)
(0.0102849 0 0.000382303)
(0.00980353 0 0.000377274)
(0.00932822 0 0.000370726)
(0.0088586 0 0.000367772)
(0.00838971 0 0.000365876)
(0.00792562 0 0.000365181)
(0.00746141 0 0.000367995)
(0.00699629 0 0.000366502)
(0.00653654 0 0.000358551)
(0.00608408 0 0.000351203)
(0.0056386 0 0.000346289)
(0.00520056 0 0.000342163)
(0.00476876 0 0.000341663)
(0.00433607 0 0.000339249)
(0.00391178 0 0.000330571)
(0.00349635 0 0.000321722)
(0.00309126 0 0.000315373)
(0.00269463 0 0.000311846)
(0.00230278 0 0.000305624)
(0.00192076 0 0.000296664)
(0.00154804 0 0.000288014)
(0.0011873 0 0.000280161)
(0.000835987 0 0.000274454)
(0.000490911 0 0.000270793)
(0.000151018 0 0.000264443)
(-0.000178684 0 0.000254267)
(-0.00049581 0 0.000246029)
(-0.000804806 0 0.000240596)
(-0.00110677 0 0.000235469)
(-0.00140234 0 0.000230674)
(-0.00169237 0 0.000225857)
(-0.00197671 0 0.000221699)
(-0.0022565 0 0.000218278)
(-0.00253188 0 0.000216018)
(-0.00280484 0 0.000214852)
(-0.00307599 0 0.000212547)
(-0.00334346 0 0.000209407)
(-0.00360811 0 0.000207932)
(-0.00387226 0 0.000208095)
(-0.00413604 0 0.000207881)
(-0.0043984 0 0.000206179)
(-0.00465791 0 0.000203618)
(-0.00491498 0 0.000201618)
(-0.00517036 0 0.000201068)
(-0.0054259 0 0.000202089)
(-0.00568196 0 0.000201508)
(-0.00593572 0 0.000197992)
(-0.00618472 0 0.000194391)
(-0.0064297 0 0.000192029)
(-0.00667208 0 0.000189631)
(-0.00691089 0 0.000187239)
(-0.00714664 0 0.00018442)
(-0.00737844 0 0.000181111)
(-0.00760624 0 0.000177436)
(-0.00782914 0 0.000173742)
(-0.00804766 0 0.000170241)
(-0.00826156 0 0.000166457)
(-0.00847009 0 0.000162473)
(-0.00867349 0 0.000158219)
(-0.00887124 0 0.00015382)
(-0.00906369 0 0.000149634)
(-0.00925081 0 0.00014564)
(-0.00943301 0 0.000141655)
(-0.00960983 0 0.000137218)
(-0.00978081 0 0.000132549)
(-0.00994591 0 0.000128036)
(-0.0101055 0 0.000123788)
(-0.0102599 0 0.000119561)
(-0.0104089 0 0.000115383)
(-0.0105529 0 0.000111163)
(-0.0106913 0 0.000106754)
(-0.0108242 0 0.000102611)
(-0.0109519 0 9.84625e-05)
(-0.0110745 0 9.44432e-05)
(-0.011192 0 9.03246e-05)
(-0.0113046 0 8.6878e-05)
(-0.0114131 0 8.35953e-05)
(-0.0115173 0 8.04642e-05)
(-0.011617 0 7.6328e-05)
(-0.0117114 0 7.20911e-05)
(-0.0118008 0 6.80461e-05)
(-0.0118862 0 6.53625e-05)
(-0.0119685 0 6.25312e-05)
(-0.0120469 0 5.927e-05)
(-0.0121204 0 5.5295e-05)
(-0.0121894 0 5.21296e-05)
(-0.0122547 0 4.90861e-05)
(-0.0123166 0 4.65519e-05)
(-0.0123754 0 4.37424e-05)
(-0.0124307 0 4.15406e-05)
(-0.0124834 0 4.00714e-05)
(-0.012534 0 3.79437e-05)
(-0.0125809 0 3.43499e-05)
(-0.0126235 0 3.12721e-05)
(-0.0126633 0 2.97036e-05)
(-0.0127008 0 2.75791e-05)
(-0.0127358 0 2.63626e-05)
(-0.0127685 0 2.41585e-05)
(-0.0127988 0 2.30658e-05)
(-0.0128264 0 1.9982e-05)
(-0.0128509 0 1.89706e-05)
(-0.0128732 0 1.6885e-05)
(-0.0128939 0 1.69939e-05)
(-0.0129123 0 1.41204e-05)
(-0.0129278 0 1.26295e-05)
(-0.0129399 0 9.66872e-06)
(-0.0129503 0 9.06528e-06)
(-0.0129574 0 6.44186e-06)
(-0.0129627 0 6.26821e-06)
(-0.0129656 0 4.9711e-06)
(-0.0129677 0 3.45744e-06)
(-0.0129654 0 1.03705e-06)
(-0.0129613 0 -1.37548e-06)
(-0.0129526 0 -2.63945e-06)
(-0.0129423 0 -6.0498e-06)
(-0.0129281 0 -4.85983e-06)
(-0.0129132 0 -7.71386e-06)
(-0.0128973 0 -4.91145e-06)
(-0.0128763 0 -1.37076e-05)
(-0.012852 0 -1.17701e-05)
(-0.0128214 0 -2.13166e-05)
(-0.0127929 0 -1.93434e-05)
(-0.0127568 0 -2.78206e-05)
(-0.0127226 0 -2.87947e-05)
(-0.0126777 0 -3.41133e-05)
(-0.0126315 0 -3.76048e-05)
(-0.012576 0 -4.03659e-05)
(-0.012516 0 -5.39568e-05)
(-0.0124535 0 -5.77539e-05)
(-0.0123842 0 -7.86007e-05)
(-0.01231 0 -6.08242e-05)
(-0.0122435 0 -6.81225e-05)
(-0.0121474 0 -4.50796e-05)
(-0.012049 0 -7.31854e-05)
(-0.0119529 0 -9.00324e-05)
(-0.0118078 0 -0.000180543)
(-0.0117054 0 -0.00012221)
(-0.0116937 0 -0.000161275)
(-0.0114738 0 -2.60595e-05)
(-0.011452 0 8.19504e-05)
(-0.0112506 0 -4.38464e-05)
(-0.0112322 0 -0.000346075)
(-0.0107567 0 -0.000323138)
(-0.0105976 0 -0.00021396)
(-0.010334 0 -0.000267107)
(-0.0101203 0 -0.00020446)
(-0.00995496 0 -0.000308475)
(-0.00969103 0 -0.00017416)
(-0.00948493 0 -0.000226595)
(-0.00916936 0 -3.94021e-05)
(-0.00897006 0 -7.38089e-05)
(-0.00862564 0 -0.000158393)
(-0.00835776 0 -0.000332472)
(-0.00831554 0 -0.000409133)
(-0.00810066 0 -0.000285314)
(-0.00781789 0 0.000417248)
(-0.00769475 0 0.000697304)
(-0.00683473 0 0.000294999)
(-0.00643984 0 -0.000758754)
(-0.00430632 0 -0.00206713)
(-0.00290179 0 -0.00161442)
(-0.00121207 0 -0.00143029)
(-0.000121138 0 -0.000991131)
(0.000880893 0 -0.000760161)
(0.00168213 0 -0.000617348)
(0.00241261 0 -0.000486155)
(0.00303154 0 -0.000557244)
(0.00363117 0 -0.000415464)
(0.00401145 0 -0.000598083)
(0.00463996 0 -0.00028087)
(0.00496241 0 -0.000367242)
(0.0055061 0 -8.62537e-05)
(0.00606847 0 -0.000546806)
(0.00627541 0 -0.000293181)
(0.00638962 0 -0.000970923)
(0.00705951 0 0.000201423)
(0.00631943 0 0.000393389)
(0.00769916 0 0.000860877)
(0.00760829 0 0.000148808)
(0.0113765 0 -0.000777323)
(0.0114901 0 -0.00211703)
(0.0148579 0 -0.00282252)
(0.0179662 0 -0.00305603)
(0.0207173 0 -0.00291759)
(0.0229926 0 -0.00241927)
(0.0251191 0 -0.00188733)
(0.0269241 0 -0.00150753)
(0.0284346 0 -0.00126118)
(0.0297804 0 -0.00111479)
(0.0310244 0 -0.00100938)
(0.0321765 0 -0.000913704)
(0.0332456 0 -0.000847141)
(0.0342678 0 -0.000805895)
(0.0352558 0 -0.000773535)
(0.0362153 0 -0.000758594)
(0.0371594 0 -0.000735527)
(0.0380754 0 -0.000706492)
(0.0389571 0 -0.000687552)
(0.0398258 0 -0.00068604)
(0.0406968 0 -0.000678848)
(0.0415476 0 -0.000655092)
(0.0423723 0 -0.000644045)
(0.0431927 0 -0.000646586)
(0.0440174 0 -0.000647454)
(0.0448346 0 -0.000634486)
(0.0456294 0 -0.000612463)
(0.0464033 0 -0.000602185)
(0.0471683 0 -0.000598384)
(0.0479305 0 -0.000598804)
(0.0486894 0 -0.000591209)
(0.0494369 0 -0.000583342)
(0.0501791 0 -0.000584102)
(0.0509191 0 -0.000575271)
(0.0516405 0 -0.000557932)
(0.0523408 0 -0.000545463)
(0.0530333 0 -0.000543055)
(0.0537284 0 -0.000548185)
(0.0544292 0 -0.000553953)
(0.0551315 0 -0.000552697)
(0.0558267 0 -0.000544365)
(0.0565132 0 -0.00053752)
(0.0571879 0 -0.000524123)
(0.0578503 0 -0.000518534)
(0.0585098 0 -0.000514753)
(0.0591615 0 -0.000505034)
(0.0597995 0 -0.000500528)
(0.0604344 0 -0.000501327)
(0.0610695 0 -0.000497741)
(0.061694 0 -0.000486383)
(0.0623024 0 -0.00047172)
(0.0628949 0 -0.000458128)
(0.0634731 0 -0.000447557)
(0.0640426 0 -0.000442028)
(0.0646065 0 -0.000439472)
(0.0651656 0 -0.000437108)
(0.0657208 0 -0.000433133)
(0.06627 0 -0.000428862)
(0.0668121 0 -0.000423073)
(0.0673475 0 -0.000416415)
(0.0678746 0 -0.000410796)
(0.0683942 0 -0.000405462)
(0.0689076 0 -0.000401112)
(0.0694163 0 -0.00039729)
(0.0699204 0 -0.000393381)
(0.0704182 0 -0.000387891)
(0.0709055 0 -0.000381099)
(0.0713907 0 -0.000376932)
(0.0718594 0 -0.000373012)
(0.0723569 0 -0.000373752)
(0.0727882 0 -0.000366678)
(0.0733218 0 -0.000362717)
(0.0736872 0 -0.000358392)
(0.0742388 0 -0.000355071)
(0.0745921 0 -0.000351242)
(0.0751523 0 -0.000352802)
(0.075491 0 -0.000361196)
(0.0760214 0 -0.000371118)
(0.0766459 0 -0.000382782)
(0.0757304 0 -0.000393287)
(0.0820942 0 -0.00039727)
(0.0670068 0 -0.000462304)
(-0.179111 0 0.0336355)
(-0.191891 0 0.011233)
(-0.191436 0 0.0121615)
(-0.193674 0 0.0110611)
(-0.193224 0 0.00441372)
(-0.186986 0 -0.010937)
(-0.170709 0 -0.0349369)
(-0.15086 0 -0.0554495)
(-0.134205 0 -0.0579975)
(-0.119475 0 -0.0521177)
(-0.103821 0 -0.0485598)
(-0.0890518 0 -0.0481036)
(-0.0754145 0 -0.0474892)
(-0.0615572 0 -0.046145)
(-0.051505 0 -0.0415223)
(-0.0441129 0 -0.0278447)
(-0.0382395 0 -0.00529668)
(-0.0354374 0 0.0167338)
(-0.0394782 0 0.027417)
(-0.0446926 0 0.0290414)
(-0.0492393 0 0.0229995)
(-0.0535578 0 0.0139622)
(-0.0585044 0 0.00224444)
(-0.0591733 0 -0.00752983)
(-0.0552686 0 -0.0164251)
(-0.0498582 0 -0.0218676)
(-0.0438854 0 -0.0237158)
(-0.038143 0 -0.0230132)
(-0.032694 0 -0.0194466)
(-0.0281899 0 -0.0143244)
(-0.0267363 0 -0.0104607)
(-0.0271159 0 -0.00499569)
(-0.0293125 0 0.00383308)
(-0.0341857 0 0.0126144)
(-0.0406373 0 0.0196054)
(-0.0460391 0 0.0215435)
(-0.0494789 0 0.0176764)
(-0.0516825 0 0.01062)
(-0.0541222 0 0.0073389)
(-0.057132 0 0.0077248)
(-0.0597759 0 0.00858666)
(-0.0618537 0 0.00619531)
(-0.0627621 0 0.000427423)
(-0.0618118 0 -0.00442588)
(-0.0599397 0 -0.00663539)
(-0.0579507 0 -0.00672178)
(-0.0554359 0 -0.00417149)
(-0.0532932 0 -0.00127643)
(-0.051884 0 -0.00122023)
(-0.0506035 0 -0.00313182)
(-0.0484151 0 -0.00622207)
(-0.0462162 0 -0.0078812)
(-0.0436549 0 -0.00736347)
(-0.0406529 0 -0.00464881)
(-0.0384598 0 -0.00283794)
(-0.036947 0 -0.00273366)
(-0.035727 0 -0.00399719)
(-0.0339255 0 -0.00618788)
(-0.0313458 0 -0.00804487)
(-0.0279763 0 -0.00947088)
(-0.0242697 0 -0.0108409)
(-0.0207338 0 -0.0114895)
(-0.0176281 0 -0.010007)
(-0.0152835 0 -0.00708879)
(-0.0134099 0 -0.00438364)
(-0.0111881 0 -0.00245512)
(-0.00827456 0 -0.00222272)
(-0.00531506 0 -0.00235969)
(-0.00293122 0 -0.00145673)
(-0.00207447 0 -0.00063116)
(-0.00125205 0 -0.00099636)
(-0.000876695 0 -0.0022529)
(-0.00030892 0 -0.00469361)
(0.000992157 0 -0.00625567)
(0.00317859 0 -0.00770051)
(0.00566714 0 -0.00828212)
(0.00758503 0 -0.00813279)
(0.00931874 0 -0.00363055)
(0.00855278 0 -0.00529366)
(0.011108 0 -0.00294602)
(0.0077372 0 -0.00124174)
(0.0141777 0 -0.000416871)
(0.0141795 0 -0.000573988)
(0.0165363 0 -0.00109162)
(0.0173497 0 0.000640679)
(0.0176719 0 0.00151462)
(0.018232 0 0.00276914)
(0.0182909 0 0.00456522)
(0.0176796 0 0.00495238)
(0.0158494 0 0.00502673)
(0.0125808 0 0.00418126)
(0.00983852 0 0.00220141)
(0.00744044 0 0.00206537)
(0.00545235 0 0.00172238)
(0.00468129 0 0.00266551)
(0.00354951 0 0.00318787)
(0.00268164 0 0.00490937)
(0.00199583 0 0.00609846)
(0.000936383 0 0.00825667)
(0.00206005 0 0.0130086)
(-0.000939722 0 0.0147058)
(-0.00412539 0 0.01481)
(-0.0123328 0 0.00793796)
(-0.0188927 0 0.00218273)
(-0.0246261 0 -0.00452963)
(-0.0277638 0 -0.00548894)
(-0.028278 0 -0.00093491)
(-0.028141 0 0.00206585)
(-0.0281441 0 0.00348615)
(-0.0261396 0 0.001626)
(-0.025306 0 0.00105889)
(-0.0258734 0 -0.000819073)
(-0.02566 0 -0.00162787)
(-0.0255801 0 -0.00133646)
(-0.0254492 0 -0.000646566)
(-0.0249046 0 -0.000348678)
(-0.0245 0 0.000170187)
(-0.0243296 0 0.000667928)
(-0.0242335 0 0.000686145)
(-0.0244759 0 0.000192253)
(-0.0242117 0 -0.000220064)
(-0.0248455 0 -0.000311764)
(-0.0248611 0 -0.000680284)
(-0.0247112 0 -0.000842102)
(-0.0244783 0 -0.00047266)
(-0.0242598 0 -0.000209008)
(-0.0239374 0 -0.000117077)
(-0.0237588 0 -0.000159713)
(-0.0236853 0 -0.000474808)
(-0.0235018 0 -0.000705005)
(-0.0233208 0 -0.000690306)
(-0.0230967 0 -0.000746815)
(-0.0228141 0 -0.00057821)
(-0.0225991 0 -0.000574966)
(-0.0223363 0 -0.000540713)
(-0.0220778 0 -0.000806922)
(-0.0217185 0 -0.000986826)
(-0.0213475 0 -0.0010337)
(-0.0209649 0 -0.00101213)
(-0.0205698 0 -0.000980017)
(-0.0201856 0 -0.00102826)
(-0.0197501 0 -0.00109056)
(-0.0192988 0 -0.00116322)
(-0.0188228 0 -0.00113668)
(-0.0183675 0 -0.00105877)
(-0.0178992 0 -0.00106883)
(-0.0174182 0 -0.00112759)
(-0.0169058 0 -0.00123233)
(-0.0163539 0 -0.00134377)
(-0.0158213 0 -0.00132605)
(-0.0153051 0 -0.00123152)
(-0.0147736 0 -0.00119834)
(-0.0142082 0 -0.00133034)
(-0.0135965 0 -0.0014819)
(-0.012964 0 -0.00150984)
(-0.012366 0 -0.00148142)
(-0.0117666 0 -0.0014841)
(-0.011119 0 -0.00151072)
(-0.0104256 0 -0.00155714)
(-0.00972573 0 -0.00159431)
(-0.00904545 0 -0.00162866)
(-0.00837047 0 -0.00167883)
(-0.00765801 0 -0.00169794)
(-0.00696063 0 -0.00166428)
(-0.0062449 0 -0.00169548)
(-0.00549724 0 -0.00176831)
(-0.0047373 0 -0.00177752)
(-0.0039976 0 -0.00170391)
(-0.00328545 0 -0.00169207)
(-0.00255679 0 -0.00175772)
(-0.00180214 0 -0.00180265)
(-0.00104656 0 -0.00176299)
(-0.000325396 0 -0.00166784)
(0.000392929 0 -0.00164884)
(0.00110458 0 -0.00170451)
(0.00182605 0 -0.00174301)
(0.00255658 0 -0.00174942)
(0.00328726 0 -0.00171355)
(0.00401042 0 -0.0016205)
(0.0047013 0 -0.00156632)
(0.00537812 0 -0.00156747)
(0.00604426 0 -0.00158159)
(0.00671431 0 -0.00162628)
(0.00740378 0 -0.00163933)
(0.00809256 0 -0.00161682)
(0.00878081 0 -0.00156675)
(0.00944061 0 -0.00149289)
(0.0100701 0 -0.00148379)
(0.010696 0 -0.00151341)
(0.0113275 0 -0.00152626)
(0.011968 0 -0.00149185)
(0.0126055 0 -0.001438)
(0.013227 0 -0.00139531)
(0.0138233 0 -0.00137983)
(0.0144047 0 -0.00139166)
(0.0149882 0 -0.00140317)
(0.0155765 0 -0.00138777)
(0.0161525 0 -0.00133177)
(0.01671 0 -0.00126255)
(0.0172478 0 -0.00122663)
(0.0177783 0 -0.00123112)
(0.0183071 0 -0.00124295)
(0.0188277 0 -0.00122056)
(0.019331 0 -0.00117345)
(0.0198152 0 -0.00112388)
(0.0202918 0 -0.00108966)
(0.0207619 0 -0.00108093)
(0.0212193 0 -0.00106697)
(0.021658 0 -0.00101867)
(0.0220707 0 -0.000930492)
(0.0224684 0 -0.000915121)
(0.0228668 0 -0.00092718)
(0.0232553 0 -0.000909334)
(0.0236291 0 -0.000876053)
(0.0239854 0 -0.000813802)
(0.0243181 0 -0.000731005)
(0.0246276 0 -0.000681859)
(0.02492 0 -0.000674929)
(0.0252059 0 -0.000674921)
(0.025483 0 -0.00064907)
(0.025743 0 -0.000607722)
(0.0259854 0 -0.000537926)
(0.0262048 0 -0.000468088)
(0.0264033 0 -0.000423824)
(0.0265814 0 -0.000402339)
(0.0267466 0 -0.000389864)
(0.0269002 0 -0.000361919)
(0.0270392 0 -0.000322144)
(0.0271602 0 -0.000251611)
(0.0272561 0 -0.000186932)
(0.0273302 0 -0.000147762)
(0.0273937 0 -0.000128474)
(0.0274479 0 -0.000115173)
(0.0274886 0 -8.43276e-05)
(0.0275134 0 -3.77791e-05)
(0.0275183 0 9.99595e-06)
(0.0274978 0 5.507e-05)
(0.0274572 0 0.000102025)
(0.027402 0 0.000144689)
(0.0273373 0 0.000176168)
(0.0272664 0 0.000207568)
(0.0271806 0 0.000221795)
(0.0270759 0 0.00024715)
(0.0269557 0 0.000282621)
(0.0268195 0 0.000323782)
(0.0266639 0 0.000384473)
(0.0264966 0 0.000430379)
(0.0263222 0 0.000428498)
(0.0261384 0 0.000437722)
(0.0259397 0 0.000470411)
(0.0257236 0 0.000508995)
(0.0254921 0 0.000560307)
(0.0252493 0 0.000594155)
(0.0249997 0 0.000612007)
(0.0247418 0 0.000630109)
(0.0244682 0 0.000649738)
(0.0241811 0 0.000683096)
(0.0238722 0 0.000721209)
(0.023555 0 0.000745897)
(0.0232394 0 0.000767554)
(0.0229145 0 0.000783555)
(0.0225777 0 0.000794914)
(0.0222314 0 0.000820871)
(0.0218701 0 0.000862529)
(0.0214932 0 0.000903685)
(0.021106 0 0.000932541)
(0.0207152 0 0.000923479)
(0.0203228 0 0.000923987)
(0.0199221 0 0.000944191)
(0.0195129 0 0.000963385)
(0.0190927 0 0.000986086)
(0.0186639 0 0.00101816)
(0.0182285 0 0.00104539)
(0.0177907 0 0.00105897)
(0.0173444 0 0.00105952)
(0.0168903 0 0.00105882)
(0.0164334 0 0.00106689)
(0.0159741 0 0.00107626)
(0.0155129 0 0.00108205)
(0.0150503 0 0.00109355)
(0.0145788 0 0.00112152)
(0.0141007 0 0.00114113)
(0.013622 0 0.001131)
(0.0131452 0 0.00111474)
(0.012671 0 0.0011161)
(0.012191 0 0.00112295)
(0.0117085 0 0.00112351)
(0.0112275 0 0.0011283)
(0.0107487 0 0.00113783)
(0.0102697 0 0.00113667)
(0.00979408 0 0.00112597)
(0.00931891 0 0.00111405)
(0.00884336 0 0.00110704)
(0.00836914 0 0.00110046)
(0.00790136 0 0.00109349)
(0.00744046 0 0.0010927)
(0.00698442 0 0.0010869)
(0.00652967 0 0.00107516)
(0.00607306 0 0.00105996)
(0.00562225 0 0.00104231)
(0.00518134 0 0.00102466)
(0.00475158 0 0.00101677)
(0.00432615 0 0.00100753)
(0.00390428 0 0.00098875)
(0.00348485 0 0.000967906)
(0.00307762 0 0.000944177)
(0.00268468 0 0.000927344)
(0.00229809 0 0.000910328)
(0.00191632 0 0.00088951)
(0.00154052 0 0.000864569)
(0.0011789 0 0.000838939)
(0.000827919 0 0.000819932)
(0.00048467 0 0.000805704)
(0.000148534 0 0.000787825)
(-0.000183221 0 0.00076232)
(-0.000503583 0 0.000737972)
(-0.000812688 0 0.000719638)
(-0.00111517 0 0.000703521)
(-0.00141062 0 0.000689634)
(-0.00170189 0 0.000676701)
(-0.00198858 0 0.000664796)
(-0.00227021 0 0.000654094)
(-0.00254658 0 0.000645613)
(-0.00281918 0 0.000640133)
(-0.00308883 0 0.000633827)
(-0.00335631 0 0.000626753)
(-0.00362229 0 0.000623003)
(-0.00388739 0 0.000621518)
(-0.00415057 0 0.000618847)
(-0.00441169 0 0.000613921)
(-0.00467057 0 0.000608053)
(-0.00492808 0 0.000603698)
(-0.00518437 0 0.000601692)
(-0.0054398 0 0.000601913)
(-0.00569327 0 0.000599551)
(-0.00594542 0 0.000592135)
(-0.00619522 0 0.000581712)
(-0.00644063 0 0.000573865)
(-0.0066835 0 0.000566424)
(-0.00692194 0 0.00055848)
(-0.00715687 0 0.000550227)
(-0.00738831 0 0.00054107)
(-0.00761634 0 0.000530787)
(-0.00783976 0 0.000519832)
(-0.0080592 0 0.000509316)
(-0.00827355 0 0.00049732)
(-0.00848155 0 0.000484881)
(-0.0086843 0 0.000472139)
(-0.00888175 0 0.000459389)
(-0.00907431 0 0.00044684)
(-0.00926157 0 0.000434768)
(-0.00944363 0 0.000422548)
(-0.00962018 0 0.000409345)
(-0.00979104 0 0.00039558)
(-0.00995612 0 0.000382217)
(-0.0101155 0 0.000369564)
(-0.0102698 0 0.000357179)
(-0.010419 0 0.000345091)
(-0.0105635 0 0.000332653)
(-0.0107021 0 0.000319531)
(-0.0108349 0 0.00030686)
(-0.0109625 0 0.00029482)
(-0.0110851 0 0.000282843)
(-0.0112028 0 0.0002712)
(-0.0113155 0 0.000260592)
(-0.0114236 0 0.000250682)
(-0.0115267 0 0.000239985)
(-0.0116252 0 0.000228574)
(-0.0117192 0 0.000216665)
(-0.011809 0 0.000206805)
(-0.0118947 0 0.000198236)
(-0.0119769 0 0.000189988)
(-0.0120549 0 0.000179327)
(-0.0121283 0 0.000168753)
(-0.0121972 0 0.000158885)
(-0.0122624 0 0.000150783)
(-0.0123244 0 0.000143105)
(-0.0123836 0 0.00013565)
(-0.0124392 0 0.000128275)
(-0.0124914 0 0.00012236)
(-0.0125399 0 0.000115253)
(-0.0125856 0 0.000106283)
(-0.0126285 0 9.82092e-05)
(-0.0126685 0 9.18055e-05)
(-0.0127061 0 8.63925e-05)
(-0.0127415 0 8.00308e-05)
(-0.0127739 0 7.47186e-05)
(-0.0128036 0 6.80053e-05)
(-0.0128309 0 6.17329e-05)
(-0.0128557 0 5.45608e-05)
(-0.0128785 0 5.05121e-05)
(-0.0128985 0 4.44565e-05)
(-0.0129157 0 3.90809e-05)
(-0.0129306 0 3.07057e-05)
(-0.0129435 0 2.54453e-05)
(-0.0129544 0 1.84772e-05)
(-0.0129624 0 1.27816e-05)
(-0.0129675 0 6.6688e-06)
(-0.0129697 0 2.5702e-06)
(-0.0129697 0 -3.64469e-06)
(-0.0129681 0 -1.12038e-05)
(-0.0129637 0 -1.84288e-05)
(-0.0129569 0 -2.72959e-05)
(-0.012946 0 -3.21127e-05)
(-0.012933 0 -4.07965e-05)
(-0.012916 0 -4.06011e-05)
(-0.0128978 0 -5.25048e-05)
(-0.012877 0 -5.78377e-05)
(-0.0128528 0 -7.39524e-05)
(-0.0128278 0 -7.23597e-05)
(-0.0127982 0 -8.17672e-05)
(-0.0127677 0 -8.41599e-05)
(-0.0127263 0 -9.45779e-05)
(-0.012684 0 -0.000110764)
(-0.0126342 0 -0.000119831)
(-0.012584 0 -0.000144835)
(-0.0125248 0 -0.000136126)
(-0.012483 0 -0.000153978)
(-0.0123985 0 -0.000145371)
(-0.0123207 0 -0.000160841)
(-0.012231 0 -0.000176352)
(-0.0121001 0 -0.000269658)
(-0.0120339 0 -0.000222438)
(-0.0120644 0 -0.000310902)
(-0.0118972 0 -0.000222913)
(-0.0118807 0 -4.20243e-05)
(-0.011653 0 -0.000148037)
(-0.0117608 0 -0.000375623)
(-0.0113437 0 -0.000322574)
(-0.0111518 0 -0.000385221)
(-0.0109347 0 -0.000502595)
(-0.0108025 0 -0.000593489)
(-0.0106651 0 -0.000513758)
(-0.0104477 0 -0.00045315)
(-0.010221 0 -0.000414213)
(-0.00997394 0 -0.000355006)
(-0.00964813 0 -0.000569851)
(-0.00935716 0 -0.000591001)
(-0.00907029 0 -0.000770199)
(-0.00909945 0 -0.000782216)
(-0.00889166 0 -0.000806536)
(-0.00864313 0 -0.000156934)
(-0.00820247 0 8.74232e-06)
(-0.0071806 0 -0.0004944)
(-0.00656966 0 -0.0010325)
(-0.00444526 0 -0.00225521)
(-0.00315641 0 -0.00224629)
(-0.00141096 0 -0.00322459)
(-0.000908418 0 -0.00352441)
(-0.000240277 0 -0.00321859)
(0.000208781 0 -0.00296511)
(0.000904711 0 -0.00227829)
(0.00138052 0 -0.00208819)
(0.00202506 0 -0.00176975)
(0.00251201 0 -0.00165051)
(0.00316065 0 -0.00134011)
(0.00360303 0 -0.00114642)
(0.00424865 0 -0.00097421)
(0.0049536 0 -0.00123363)
(0.0052042 0 -0.00095461)
(0.00539366 0 -0.00168648)
(0.00595423 0 -0.00060087)
(0.00558 0 -0.000293104)
(0.00718617 0 -0.000272307)
(0.00726976 0 -0.000121125)
(0.0119903 0 -0.00124832)
(0.0116584 0 -0.00277376)
(0.015047 0 -0.00542576)
(0.0177604 0 -0.00561305)
(0.0205627 0 -0.00619477)
(0.0222494 0 -0.00609302)
(0.0236024 0 -0.00578807)
(0.0248141 0 -0.00555267)
(0.0259432 0 -0.00505539)
(0.0271096 0 -0.00438717)
(0.0282923 0 -0.00375602)
(0.0294382 0 -0.00328996)
(0.0305394 0 -0.00299871)
(0.0316041 0 -0.00278903)
(0.0326383 0 -0.00259191)
(0.0336456 0 -0.00245303)
(0.0346317 0 -0.00236924)
(0.0355994 0 -0.00229605)
(0.0365465 0 -0.0022506)
(0.0374686 0 -0.0021876)
(0.0383675 0 -0.00211784)
(0.0392506 0 -0.00206826)
(0.0401216 0 -0.00205604)
(0.0409815 0 -0.0020306)
(0.0418284 0 -0.00197564)
(0.042665 0 -0.00194499)
(0.0434936 0 -0.00194193)
(0.0443124 0 -0.00193248)
(0.0451211 0 -0.00189833)
(0.0459193 0 -0.0018493)
(0.0467067 0 -0.0018213)
(0.0474853 0 -0.00180199)
(0.0482531 0 -0.00179242)
(0.0490116 0 -0.00177486)
(0.0497675 0 -0.00175855)
(0.0505157 0 -0.00174755)
(0.0512502 0 -0.00171707)
(0.0519726 0 -0.00167488)
(0.052686 0 -0.00164502)
(0.0533926 0 -0.00163854)
(0.0540959 0 -0.00164562)
(0.0547933 0 -0.00165081)
(0.0554833 0 -0.00164341)
(0.0561672 0 -0.0016244)
(0.0568437 0 -0.00160499)
(0.0575138 0 -0.00157683)
(0.0581775 0 -0.00156198)
(0.0588352 0 -0.00154705)
(0.0594831 0 -0.00151897)
(0.0601215 0 -0.00150091)
(0.060752 0 -0.00149412)
(0.061373 0 -0.00147914)
(0.0619842 0 -0.00144964)
(0.0625861 0 -0.00141422)
(0.0631799 0 -0.00138189)
(0.0637668 0 -0.00135584)
(0.0643459 0 -0.00133775)
(0.0649156 0 -0.00132484)
(0.0654769 0 -0.00131257)
(0.0660309 0 -0.00129969)
(0.0665785 0 -0.00128547)
(0.0671195 0 -0.00126854)
(0.067653 0 -0.00125017)
(0.0681797 0 -0.00123242)
(0.0686986 0 -0.00121678)
(0.0692115 0 -0.0012046)
(0.069719 0 -0.00119283)
(0.0702195 0 -0.00117737)
(0.0707127 0 -0.00116035)
(0.0711976 0 -0.00114202)
(0.0716829 0 -0.00113251)
(0.0721527 0 -0.00112276)
(0.0726475 0 -0.00111717)
(0.0730728 0 -0.00109891)