/*--------------------------------*- C++ -*----------------------------------*\
| =========                 |                                                 |
| \\      /  F ield         | OpenFOAM: The Open Source CFD Toolbox           |
|  \\    /   O peration     | Version:  v2006                                 |
|   \\  /    A nd           | Website:  www.openfoam.com                      |
|    \\/     M anipulation  |                                                 |
\*---------------------------------------------------------------------------*/
FoamFile
{
    version     2.0;
    format      ascii;
    class       surfaceScalarField;
    location    "1";
    object      alphaPhi0.water;
}
// * * * * * * * * * * * * * * * * * * * * * * * * * * * * * * * * * * * * * //

dimensions      [0 3 -1 0 0 0 0];
oriented        oriented;


internalField   nonuniform List<scalar> 
65390
(
-1.16894e-05
-4.40075e-09
-1.17909e-05
9.85708e-08
-1.18952e-05
1.04717e-07
-1.19824e-05
8.49793e-08
-1.20756e-05
9.09817e-08
-1.21741e-05
9.58261e-08
-1.22656e-05
8.89235e-08
-1.23476e-05
7.9993e-08
-1.24227e-05
7.32241e-08
-1.2491e-05
6.61082e-08
-1.25522e-05
5.94622e-08
-1.26078e-05
5.46609e-08
-1.26564e-05
4.76264e-08
-1.2709e-05
5.13406e-08
-1.27568e-05
4.71571e-08
-1.27998e-05
4.24804e-08
-1.28387e-05
3.86346e-08
-1.2871e-05
3.18385e-08
-1.28974e-05
2.58267e-08
-1.29184e-05
2.0992e-08
-1.29334e-05
1.56566e-08
-1.29421e-05
9.51593e-09
-1.29464e-05
4.67053e-09
-1.29457e-05
-4.44533e-10
-1.29401e-05
-5.30043e-09
-1.29297e-05
-1.01089e-08
-1.29127e-05
-1.67909e-08
-1.28904e-05
-2.21932e-08
-1.28632e-05
-2.7071e-08
-1.28317e-05
-3.14807e-08
-1.27959e-05
-3.57984e-08
-1.2756e-05
-3.9962e-08
-1.27087e-05
-4.66522e-08
-1.26535e-05
-5.3657e-08
-1.25928e-05
-5.80148e-08
-1.25272e-05
-6.18844e-08
-1.24562e-05
-6.66988e-08
-1.23793e-05
-7.27673e-08
-1.22968e-05
-7.87885e-08
-1.22109e-05
-8.27586e-08
-1.21221e-05
-8.62946e-08
-1.20307e-05
-8.98891e-08
-1.1933e-05
-9.74478e-08
-1.18289e-05
-1.05473e-07
-1.1727e-05
-1.06256e-07
-1.16228e-05
-1.10189e-07
-1.15133e-05
-1.17623e-07
-1.13966e-05
-1.26409e-07
-1.12749e-05
-1.32363e-07
-1.11499e-05
-1.3579e-07
-1.10211e-05
-1.39311e-07
-1.08846e-05
-1.46441e-07
-1.07412e-05
-1.52512e-07
-1.0592e-05
-1.57452e-07
-1.04395e-05
-1.59773e-07
-1.02846e-05
-1.61339e-07
-1.01268e-05
-1.63082e-07
-9.96573e-06
-1.65311e-07
-9.80353e-06
-1.65636e-07
-9.64017e-06
-1.65435e-07
-9.4745e-06
-1.66884e-07
-9.30629e-06
-1.6873e-07
-9.13601e-06
-1.70314e-07
-8.9632e-06
-1.72449e-07
-8.7866e-06
-1.75809e-07
-8.60516e-06
-1.80099e-07
-8.41763e-06
-1.85521e-07
-8.22269e-06
-1.9224e-07
-8.01907e-06
-2.00286e-07
-7.80496e-06
-2.1024e-07
-7.57697e-06
-2.23707e-07
-7.32884e-06
-2.4341e-07
-7.04991e-06
-2.73632e-07
-6.72354e-06
-3.20375e-07
-6.32279e-06
-3.94264e-07
-5.80357e-06
-5.1291e-07
-5.07642e-06
-7.21568e-07
-4.00415e-06
-1.06549e-06
-3.14368e-06
-8.55152e-07
-2.82123e-06
-3.17671e-07
-2.66993e-06
-1.47423e-07
-2.69806e-06
3.09323e-08
-2.64883e-06
-4.71176e-08
-2.6415e-06
-6.36831e-09
-2.66079e-06
2.11175e-08
-2.59875e-06
-5.97784e-08
-2.54306e-06
-5.46127e-08
-2.49785e-06
-4.38561e-08
-2.46766e-06
-2.77991e-08
-2.4298e-06
-3.48852e-08
-2.39428e-06
-3.2574e-08
-2.35965e-06
-3.25072e-08
-2.32045e-06
-3.74811e-08
-2.27964e-06
-3.89578e-08
-2.23752e-06
-4.02274e-08
-2.19241e-06
-4.36078e-08
-2.14476e-06
-4.6411e-08
-2.09319e-06
-5.01913e-08
-2.03327e-06
-5.83002e-08
-1.97501e-06
-5.65952e-08
-1.92641e-06
-4.69006e-08
-1.88548e-06
-3.91849e-08
-1.84794e-06
-3.5851e-08
-1.80762e-06
-3.88941e-08
-1.76831e-06
-3.82017e-08
-1.72943e-06
-3.79643e-08
-1.68968e-06
-3.89482e-08
-1.65006e-06
-3.8904e-08
-1.61097e-06
-3.83992e-08
-1.57226e-06
-3.79398e-08
-1.53371e-06
-3.76774e-08
-1.4954e-06
-3.73676e-08
-1.45739e-06
-3.70316e-08
-1.41933e-06
-3.71026e-08
-1.3815e-06
-3.69442e-08
-1.34257e-06
-3.8169e-08
-1.30199e-06
-3.99323e-08
-1.26255e-06
-3.88583e-08
-1.22694e-06
-3.5046e-08
-1.19521e-06
-3.1172e-08
-1.16487e-06
-2.97777e-08
-1.13351e-06
-3.07473e-08
-1.10162e-06
-3.11996e-08
-1.07019e-06
-3.06524e-08
-1.03939e-06
-2.99536e-08
-1.00877e-06
-2.9727e-08
-9.78672e-07
-2.92121e-08
-9.48976e-07
-2.88366e-08
-9.19584e-07
-2.8583e-08
-8.90668e-07
-2.81698e-08
-8.6227e-07
-2.77177e-08
-8.34324e-07
-2.73299e-08
-8.06903e-07
-2.68654e-08
-7.79993e-07
-2.64026e-08
-7.53557e-07
-2.59586e-08
-7.27585e-07
-2.55006e-08
-7.02087e-07
-2.50122e-08
-6.77081e-07
-2.44855e-08
-6.52544e-07
-2.39705e-08
-6.28466e-07
-2.346e-08
-6.04847e-07
-2.29526e-08
-5.8172e-07
-2.24272e-08
-5.59114e-07
-2.18894e-08
-5.37034e-07
-2.13702e-08
-5.15484e-07
-2.0865e-08
-4.94482e-07
-2.03541e-08
-4.74031e-07
-1.98519e-08
-4.54102e-07
-1.93845e-08
-4.34685e-07
-1.89351e-08
-4.15781e-07
-1.8488e-08
-3.97383e-07
-1.80472e-08
-3.79462e-07
-1.76261e-08
-3.62008e-07
-1.72061e-08
-3.45009e-07
-1.67835e-08
-3.28449e-07
-1.63699e-08
-3.12304e-07
-1.59697e-08
-2.96566e-07
-1.55717e-08
-2.8122e-07
-1.51793e-08
-2.66248e-07
-1.4796e-08
-2.51643e-07
-1.44107e-08
-2.37404e-07
-1.40186e-08
-2.23516e-07
-1.36394e-08
-2.09959e-07
-1.32774e-08
-1.96738e-07
-1.2914e-08
-1.83864e-07
-1.25415e-08
-1.71338e-07
-1.21735e-08
-1.59144e-07
-1.1825e-08
-1.47276e-07
-1.14849e-08
-1.35744e-07
-1.1138e-08
-1.24552e-07
-1.07876e-08
-1.13685e-07
-1.04563e-08
-1.0313e-07
-1.01424e-08
-9.2896e-08
-9.82334e-09
-8.29905e-08
-9.50078e-09
-7.34005e-08
-9.19545e-09
-6.41145e-08
-8.90448e-09
-5.51377e-08
-8.60993e-09
-4.6471e-08
-8.31344e-09
-3.80996e-08
-8.02854e-09
-3.00121e-08
-7.75018e-09
-2.22069e-08
-7.4688e-09
-1.46791e-08
-7.19079e-09
-7.41496e-09
-6.92913e-09
-4.07803e-10
-6.68014e-09
6.33635e-09
-6.43217e-09
1.28134e-08
-6.1846e-09
1.90305e-08
-5.94364e-09
2.49978e-08
-5.70721e-09
3.07219e-08
-5.46887e-09
3.62087e-08
-5.22936e-09
4.14679e-08
-4.99665e-09
4.65088e-08
-4.77591e-09
5.13346e-08
-4.56497e-09
5.59427e-08
-4.35823e-09
6.03315e-08
-4.15387e-09
6.4506e-08
-3.95409e-09
6.84753e-08
-3.75862e-09
7.22467e-08
-3.56491e-09
7.58265e-08
-3.37383e-09
7.92199e-08
-3.18788e-09
8.2429e-08
-3.0074e-09
8.54544e-08
-2.83271e-09
8.82989e-08
-2.66492e-09
9.09668e-08
-2.50293e-09
9.34639e-08
-2.34492e-09
9.57995e-08
-2.19192e-09
9.79844e-08
-2.04471e-09
1.00026e-07
-1.90077e-09
1.01931e-07
-1.76082e-09
1.03707e-07
-1.62855e-09
1.05357e-07
-1.50082e-09
1.06876e-07
-1.36937e-09
1.08259e-07
-1.23377e-09
1.09513e-07
-1.10748e-09
1.10645e-07
-9.86964e-10
1.11653e-07
-8.66481e-10
1.12539e-07
-7.46939e-10
1.1331e-07
-6.36975e-10
1.13977e-07
-5.38626e-10
1.14541e-07
-4.43612e-10
1.14998e-07
-3.47461e-10
1.15353e-07
-2.55683e-10
1.15614e-07
-1.70479e-10
1.15783e-07
-8.55762e-11
1.1586e-07
2.77705e-12
1.1585e-07
8.85915e-11
1.15764e-07
1.65173e-10
1.15609e-07
2.34214e-10
1.15387e-07
3.00202e-10
1.15098e-07
3.6308e-10
1.14747e-07
4.212e-10
1.14336e-07
4.76353e-10
1.13867e-07
5.31133e-10
1.13343e-07
5.85408e-10
1.1277e-07
6.38713e-10
1.12148e-07
6.92408e-10
1.11478e-07
7.46394e-10
1.10762e-07
7.96481e-10
1.10006e-07
8.38095e-10
1.09213e-07
8.71325e-10
1.08386e-07
9.00063e-10
1.07525e-07
9.27748e-10
1.06631e-07
9.56007e-10
1.05704e-07
9.85686e-10
1.04746e-07
1.01661e-09
1.0376e-07
1.04626e-09
1.02753e-07
1.07178e-09
1.01728e-07
1.09408e-09
1.0068e-07
1.11718e-09
9.96073e-08
1.14217e-09
9.85091e-08
1.1636e-09
9.73931e-08
1.17512e-09
9.62666e-08
1.17781e-09
9.51306e-08
1.17987e-09
9.39814e-08
1.18677e-09
9.2821e-08
1.19421e-09
9.16596e-08
1.19396e-09
9.0508e-08
1.18496e-09
8.93681e-08
1.17515e-09
8.8233e-08
1.17231e-09
8.70945e-08
1.17657e-09
8.59491e-08
1.18325e-09
8.47958e-08
1.18973e-09
8.36342e-08
1.19634e-09
8.24651e-08
1.20245e-09
8.12921e-08
1.20617e-09
8.01187e-08
1.20758e-09
7.89466e-08
1.20804e-09
7.77782e-08
1.20617e-09
7.66183e-08
1.19874e-09
7.54703e-08
1.18618e-09
7.43324e-08
1.17319e-09
7.32005e-08
1.16273e-09
7.20717e-08
1.15408e-09
7.09455e-08
1.14612e-09
6.98217e-08
1.13959e-09
6.86999e-08
1.13536e-09
6.758e-08
1.13301e-09
6.64618e-08
1.13234e-09
6.53439e-08
1.1339e-09
6.4225e-08
1.13659e-09
6.31072e-08
1.13627e-09
6.19967e-08
1.1288e-09
6.08997e-08
1.11404e-09
5.98201e-08
1.09475e-09
5.87597e-08
1.07318e-09
5.77207e-08
1.04959e-09
5.67062e-08
1.02341e-09
5.57185e-08
9.95399e-10
5.47578e-08
9.67826e-10
5.38217e-08
9.43365e-10
5.29065e-08
9.23152e-10
5.20083e-08
9.07112e-10
5.11217e-08
8.96764e-10
5.02405e-08
8.9246e-10
4.93601e-08
8.92526e-10
4.84787e-08
8.93835e-10
4.75972e-08
8.9363e-10
4.67173e-08
8.90898e-10
4.58405e-08
8.86067e-10
4.49682e-08
8.79508e-10
4.41027e-08
8.70478e-10
4.32484e-08
8.57591e-10
4.24106e-08
8.39875e-10
4.15948e-08
8.17415e-10
4.08048e-08
7.91771e-10
4.0042e-08
7.65112e-10
3.93059e-08
7.39345e-10
3.85944e-08
7.15748e-10
3.79047e-08
6.95125e-10
3.72331e-08
6.77946e-10
3.65764e-08
6.64108e-10
3.59314e-08
6.53232e-10
3.52961e-08
6.44346e-10
3.46698e-08
6.36127e-10
3.40528e-08
6.27251e-10
3.34466e-08
6.16631e-10
3.28533e-08
6.03701e-10
3.22746e-08
5.88643e-10
3.17115e-08
5.72333e-10
3.11643e-08
5.55716e-10
3.06327e-08
5.39066e-10
3.0117e-08
5.2208e-10
2.96175e-08
5.04962e-10
2.91323e-08
4.89698e-10
2.8656e-08
4.79873e-10
2.81811e-08
4.77757e-10
2.77025e-08
4.80897e-10
2.72206e-08
4.8362e-10
2.67406e-08
4.81457e-10
2.6267e-08
4.74738e-10
2.58019e-08
4.66136e-10
2.53473e-08
4.55597e-10
2.49086e-08
4.39605e-10
2.4493e-08
4.166e-10
2.41024e-08
3.9153e-10
2.37305e-08
3.72883e-10
2.33678e-08
3.63676e-10
2.30095e-08
3.59199e-10
2.26548e-08
3.55509e-10
2.23011e-08
3.54194e-10
2.19433e-08
3.58302e-10
2.15776e-08
3.65946e-10
2.12069e-08
3.7093e-10
2.08373e-08
3.69803e-10
2.04728e-08
3.64493e-10
2.01154e-08
3.57274e-10
1.97675e-08
3.47384e-10
1.9432e-08
3.34807e-10
1.91082e-08
3.23049e-10
1.87919e-08
3.15448e-10
1.84793e-08
3.12093e-10
1.81668e-08
3.12403e-10
1.78501e-08
3.17035e-10
1.7526e-08
3.24805e-10
1.7196e-08
3.30982e-10
1.68656e-08
3.3144e-10
1.654e-08
3.26594e-10
1.62221e-08
3.18941e-10
1.5914e-08
3.09254e-10
1.56177e-08
2.97515e-10
1.5333e-08
2.86263e-10
1.5055e-08
2.79797e-10
1.47768e-08
2.80214e-10
1.44933e-08
2.85499e-10
1.42035e-08
2.9194e-10
1.39086e-08
2.96986e-10
1.36112e-08
2.99379e-10
1.33156e-08
2.97753e-10
1.30269e-08
2.90861e-10
1.27499e-08
2.79321e-10
1.2486e-08
2.66343e-10
1.22326e-08
2.55815e-10
1.19854e-08
2.4962e-10
1.17412e-08
2.46628e-10
1.1499e-08
2.44471e-10
1.12588e-08
2.42258e-10
1.10203e-08
2.40386e-10
1.07843e-08
2.37427e-10
1.05554e-08
2.29928e-10
1.0339e-08
2.16874e-10
1.01371e-08
2.02e-10
9.94579e-09
1.90955e-10
9.75849e-09
1.86783e-10
9.56863e-09
1.89379e-10
9.37222e-09
1.96198e-10
9.16977e-09
2.0265e-10
8.96597e-09
2.04457e-10
8.76657e-09
2.00516e-10
8.57564e-09
1.92432e-10
8.39452e-09
1.82952e-10
8.22089e-09
1.75761e-10
8.04906e-09
1.74261e-10
7.87269e-09
1.79105e-10
7.6875e-09
1.88203e-10
7.49236e-09
1.98382e-10
7.28992e-09
2.05826e-10
7.08685e-09
2.0651e-10
6.89173e-09
1.98535e-10
6.70998e-09
1.85128e-10
6.53999e-09
1.73331e-10
6.3751e-09
1.68232e-10
6.20998e-09
1.685e-10
6.04416e-09
1.69249e-10
5.87758e-09
1.70043e-10
5.711e-09
1.70002e-10
5.54991e-09
1.64395e-10
5.3981e-09
1.54899e-10
5.2524e-09
1.4847e-10
5.10668e-09
1.48116e-10
4.95687e-09
1.51816e-10
4.80347e-09
1.55004e-10
4.65214e-09
1.52595e-10
4.50841e-09
1.44722e-10
4.37234e-09
1.36893e-10
4.24214e-09
1.30931e-10
4.11688e-09
1.25991e-10
3.99267e-09
1.24962e-10
3.86865e-09
1.24806e-10
3.74815e-09
1.21299e-10
3.63342e-09
1.15512e-10
3.51343e-09
1.20749e-10
3.38553e-09
1.28627e-10
3.25299e-09
1.33249e-10
3.11943e-09
1.34275e-10
3.00069e-09
1.19479e-10
2.89153e-09
1.09936e-10
2.79109e-09
1.01245e-10
2.7041e-09
8.78121e-11
2.62781e-09
7.71253e-11
2.56261e-09
6.60352e-11
2.50304e-09
6.04184e-11
2.46475e-09
3.9167e-11
2.43093e-09
3.47362e-11
2.39601e-09
3.58512e-11
2.34617e-09
5.07527e-11
2.28962e-09
5.73873e-11
2.24118e-09
4.91598e-11
2.19185e-09
4.9941e-11
2.16811e-09
2.42465e-11
2.12876e-09
3.98122e-11
2.05585e-09
7.34045e-11
1.98786e-09
6.85749e-11
1.92484e-09
6.37523e-11
1.88523e-09
4.05446e-11
1.83642e-09
4.99586e-11
1.79413e-09
4.36682e-11
1.78015e-09
1.55863e-11
1.78201e-09
-7.93325e-14
1.81099e-09
-2.70772e-11
1.80398e-09
8.90795e-12
1.82483e-09
-1.90645e-11
1.81022e-09
1.61641e-11
1.78795e-09
2.35248e-11
1.74259e-09
4.62829e-11
1.71911e-09
2.41112e-11
1.7411e-09
-2.15739e-11
1.70849e-09
3.28817e-11
1.72405e-09
-1.53668e-11
1.75975e-09
-3.56237e-11
1.74251e-09
1.71599e-11
1.71463e-09
2.76556e-11
1.63417e-09
8.00834e-11
1.6237e-09
1.00487e-11
1.54229e-09
8.09324e-11
1.49485e-09
4.71408e-11
1.5764e-09
-8.19225e-11
1.59917e-09
-2.3667e-11
1.97612e-09
-3.77913e-10
2.25151e-09
-2.77206e-10
2.261e-09
-1.29294e-11
2.28742e-09
-2.96147e-11
2.23183e-09
5.26812e-11
2.14497e-09
8.41772e-11
2.04491e-09
9.75368e-11
1.91287e-09
1.29657e-10
1.7393e-09
1.71311e-10
1.54011e-09
1.97083e-10
1.32739e-09
2.10731e-10
1.10505e-09
2.20433e-10
8.89573e-10
2.13638e-10
7.03169e-10
1.84602e-10
5.50013e-10
1.51394e-10
4.11641e-10
1.36664e-10
2.68063e-10
1.41942e-10
1.21359e-10
1.45152e-10
-1.25889e-11
1.32486e-10
-1.21517e-10
1.07552e-10
-2.06629e-10
8.38109e-11
-2.78767e-10
7.08972e-11
-3.51906e-10
7.1946e-11
-4.38826e-10
8.5764e-11
-5.46787e-10
1.06835e-10
-6.75441e-10
1.27555e-10
-8.19653e-10
1.43138e-10
-9.71562e-10
1.50858e-10
-1.12257e-09
1.49979e-10
-1.2637e-09
1.40113e-10
-1.38421e-09
1.19505e-10
-1.4712e-09
8.59786e-11
-1.51006e-09
3.78447e-11
-1.49224e-09
-1.88357e-11
-1.40987e-09
-8.34038e-11
-1.26974e-09
-1.41151e-10
-1.08358e-09
-1.87166e-10
-8.67882e-10
-2.16679e-10
-6.38893e-10
-2.29935e-10
-4.09153e-10
-2.30652e-10
-1.87593e-10
-2.22442e-10
1.84018e-11
-2.06854e-10
1.99707e-10
-1.82147e-10
3.45533e-10
-1.46655e-10
4.45645e-10
-1.00929e-10
4.98633e-10
-5.37936e-11
5.13433e-10
-1.55968e-11
5.10791e-10
1.84887e-12
5.11166e-10
-1.16855e-12
5.31493e-10
-2.11251e-11
5.89291e-10
-5.86e-11
6.98017e-10
-1.09527e-10
8.58638e-10
-1.61415e-10
1.05087e-09
-1.93011e-10
1.22733e-09
-1.77219e-10
1.33427e-09
-1.07684e-10
1.35664e-09
-2.3086e-11
1.34371e-09
1.22449e-11
1.38064e-09
-3.76041e-11
1.52395e-09
-1.43956e-10
1.70578e-09
-1.82469e-10
1.77874e-09
-7.36068e-11
1.65817e-09
1.19912e-10
1.40911e-09
2.48386e-10
1.21451e-09
1.93909e-10
1.19869e-09
1.51415e-11
1.22169e-09
-2.36523e-11
1.10076e-09
1.20331e-10
8.35086e-10
2.65156e-10
6.50059e-10
1.84571e-10
7.18165e-10
-6.85143e-11
8.63852e-10
-1.4608e-10
8.60821e-10
2.62769e-12
8.45361e-10
1.50372e-11
1.04316e-09
-1.98237e-10
1.35672e-09
-3.13989e-10
1.41416e-09
-5.78774e-11
1.2856e-09
1.2812e-10
1.22601e-09
5.91357e-11
9.96376e-10
2.29188e-10
7.76694e-10
2.19292e-10
4.20469e-10
-1.1807e-05
5.31102e-08
-1.19006e-05
1.98858e-07
-1.20053e-05
2.14204e-07
-1.21086e-05
1.92514e-07
-1.22051e-05
1.915e-07
-1.22936e-05
1.87985e-07
-1.23727e-05
1.71335e-07
-1.24453e-05
1.55444e-07
-1.25132e-05
1.43966e-07
-1.25765e-05
1.32469e-07
-1.26366e-05
1.22523e-07
-1.26928e-05
1.13913e-07
-1.27457e-05
1.04085e-07
-1.27946e-05
1.03948e-07
-1.28403e-05
9.60265e-08
-1.28816e-05
8.69959e-08
-1.29179e-05
7.77056e-08
-1.29489e-05
6.54519e-08
-1.29741e-05
5.37951e-08
-1.29927e-05
4.29151e-08
-1.30052e-05
3.14655e-08
-1.30099e-05
1.97382e-08
-1.30136e-05
9.60416e-09
-1.30103e-05
-1.40964e-09
-1.30018e-05
-1.21678e-08
-1.29862e-05
-2.28745e-08
-1.29635e-05
-3.57482e-08
-1.29372e-05
-4.56877e-08
-1.29081e-05
-5.36184e-08
-1.28739e-05
-6.29631e-08
-1.2835e-05
-7.1727e-08
-1.27978e-05
-7.39521e-08
-1.27535e-05
-8.72759e-08
-1.26944e-05
-1.08528e-07
-1.263e-05
-1.17883e-07
-1.25627e-05
-1.24435e-07
-1.24916e-05
-1.33338e-07
-1.242e-05
-1.40034e-07
-1.23393e-05
-1.55989e-07
-1.22478e-05
-1.71959e-07
-1.21517e-05
-1.80644e-07
-1.20516e-05
-1.89205e-07
-1.19495e-05
-2.0352e-07
-1.18431e-05
-2.19308e-07
-1.17336e-05
-2.2624e-07
-1.16189e-05
-2.35264e-07
-1.15043e-05
-2.46829e-07
-1.1387e-05
-2.59469e-07
-1.12666e-05
-2.68559e-07
-1.11415e-05
-2.75286e-07
-1.1012e-05
-2.82484e-07
-1.08782e-05
-2.93524e-07
-1.07399e-05
-3.03319e-07
-1.05964e-05
-3.12079e-07
-1.04474e-05
-3.18057e-07
-1.02941e-05
-3.22304e-07
-1.01371e-05
-3.26456e-07
-9.97677e-06
-3.30584e-07
-9.81412e-06
-3.31785e-07
-9.6495e-06
-3.32375e-07
-9.48349e-06
-3.34681e-07
-9.31617e-06
-3.3748e-07
-9.1467e-06
-3.40645e-07
-8.97432e-06
-3.4504e-07
-8.79804e-06
-3.51479e-07
-8.61708e-06
-3.59759e-07
-8.43097e-06
-3.6983e-07
-8.23875e-06
-3.8199e-07
-8.03972e-06
-3.96355e-07
-7.83332e-06
-4.13334e-07
-7.61841e-06
-4.34946e-07
-7.39365e-06
-4.63956e-07
-7.15849e-06
-5.03759e-07
-6.91437e-06
-5.58633e-07
-6.67001e-06
-6.32472e-07
-6.44648e-06
-7.30566e-07
-6.30525e-06
-8.57072e-07
-6.3499e-06
-1.01483e-06
-6.12415e-06
-1.07873e-06
-5.34466e-06
-1.09515e-06
-4.23862e-06
-1.25088e-06
-3.25982e-06
-9.48204e-07
-2.88535e-06
-4.2031e-07
-2.66775e-06
-2.22825e-07
-2.61837e-06
-2.75018e-08
-2.55076e-06
-1.26173e-07
-2.49904e-06
-1.05665e-07
-2.48199e-06
-5.88316e-08
-2.49408e-06
-1.30756e-08
-2.44247e-06
-8.42036e-08
-2.39688e-06
-7.64496e-08
-2.36174e-06
-6.66451e-08
-2.31951e-06
-7.87815e-08
-2.27899e-06
-7.82815e-08
-2.23865e-06
-7.95269e-08
-2.19536e-06
-8.58923e-08
-2.15243e-06
-8.83865e-08
-2.11075e-06
-9.07356e-08
-2.07198e-06
-9.5634e-08
-2.03064e-06
-9.65705e-08
-1.98077e-06
-9.55245e-08
-1.91998e-06
-9.88434e-08
-1.85989e-06
-9.50441e-08
-1.81108e-06
-8.71339e-08
-1.76851e-06
-8.02965e-08
-1.72973e-06
-7.64607e-08
-1.68884e-06
-7.95552e-08
-1.64835e-06
-7.91059e-08
-1.60895e-06
-7.73624e-08
-1.57031e-06
-7.60288e-08
-1.53159e-06
-7.57648e-08
-1.4934e-06
-7.49579e-08
-1.45581e-06
-7.4108e-08
-1.41868e-06
-7.37903e-08
-1.38205e-06
-7.32399e-08
-1.34673e-06
-7.3243e-08
-1.31366e-06
-7.2745e-08
-1.2805e-06
-7.18353e-08
-1.24365e-06
-7.16676e-08
-1.20307e-06
-7.14377e-08
-1.16339e-06
-6.9054e-08
-1.12833e-06
-6.52897e-08
-1.09703e-06
-6.18318e-08
-1.06742e-06
-5.94835e-08
-1.03685e-06
-5.97425e-08
-1.00575e-06
-5.99781e-08
-9.75192e-07
-5.89521e-08
-9.45591e-07
-5.76929e-08
-9.16412e-07
-5.71106e-08
-8.87806e-07
-5.62179e-08
-8.59604e-07
-5.54418e-08
-8.31728e-07
-5.47881e-08
-8.04326e-07
-5.38923e-08
-7.77423e-07
-5.29326e-08
-7.5096e-07
-5.20226e-08
-7.24989e-07
-5.10519e-08
-6.99474e-07
-5.00413e-08
-6.74468e-07
-4.89581e-08
-6.4988e-07
-4.79054e-08
-6.25764e-07
-4.68439e-08
-6.02134e-07
-4.57937e-08
-5.79009e-07
-4.47341e-08
-5.56413e-07
-4.36705e-08
-5.34356e-07
-4.26471e-08
-5.12836e-07
-4.16645e-08
-4.91859e-07
-4.06907e-08
-4.7143e-07
-3.97308e-08
-4.5152e-07
-3.88245e-08
-4.32146e-07
-3.79535e-08
-4.13291e-07
-3.70807e-08
-3.94944e-07
-3.62137e-08
-3.7708e-07
-3.53784e-08
-3.59677e-07
-3.45479e-08
-3.42726e-07
-3.37079e-08
-3.26209e-07
-3.28791e-08
-3.101e-07
-3.20734e-08
-2.94385e-07
-3.12702e-08
-2.79059e-07
-3.04628e-08
-2.64111e-07
-2.96601e-08
-2.49529e-07
-2.88586e-08
-2.35308e-07
-2.80523e-08
-2.21439e-07
-2.72604e-08
-2.07922e-07
-2.64908e-08
-1.94749e-07
-2.57327e-08
-1.81909e-07
-2.49826e-08
-1.694e-07
-2.42447e-08
-1.57225e-07
-2.35303e-08
-1.45383e-07
-2.28299e-08
-1.33875e-07
-2.21269e-08
-1.22704e-07
-2.1425e-08
-1.11868e-07
-2.0751e-08
-1.01359e-07
-2.01074e-08
-9.11756e-08
-1.94671e-08
-8.13123e-08
-1.88311e-08
-7.17604e-08
-1.82231e-08
-6.25108e-08
-1.76387e-08
-5.35611e-08
-1.70534e-08
-4.49101e-08
-1.64678e-08
-3.65515e-08
-1.59008e-08
-2.84771e-08
-1.53495e-08
-2.06834e-08
-1.47992e-08
-1.31671e-08
-1.42555e-08
-5.9198e-09
-1.37357e-08
1.06719e-09
-1.3236e-08
7.7952e-09
-1.27374e-08
1.42624e-08
-1.22362e-08
2.04718e-08
-1.17442e-08
2.64297e-08
-1.12631e-08
3.21387e-08
-1.07832e-08
3.75984e-08
-1.03028e-08
4.28136e-08
-9.8348e-09
4.77954e-08
-9.39028e-09
5.25549e-08
-8.96567e-09
5.70978e-08
-8.54999e-09
6.14297e-08
-8.14049e-09
6.55588e-08
-7.74197e-09
6.94898e-08
-7.35215e-09
7.32225e-08
-6.96459e-09
7.6758e-08
-6.58303e-09
8.01028e-08
-6.21569e-09
8.32638e-08
-5.86266e-09
8.62457e-08
-5.52036e-09
8.90536e-08
-5.18849e-09
9.16941e-08
-4.86595e-09
9.41734e-08
-4.55044e-09
9.64968e-08
-4.24357e-09
9.86687e-08
-3.94677e-09
1.00691e-07
-3.65693e-09
1.02565e-07
-3.37454e-09
1.04293e-07
-3.1055e-09
1.05882e-07
-2.84767e-09
1.07336e-07
-2.58969e-09
1.08662e-07
-2.33133e-09
1.09862e-07
-2.08216e-09
1.10945e-07
-1.84563e-09
1.11917e-07
-1.61361e-09
1.12778e-07
-1.38525e-09
1.13533e-07
-1.17165e-09
1.14182e-07
-9.73365e-10
1.14725e-07
-7.81081e-10
1.15162e-07
-5.87961e-10
1.15497e-07
-4.01627e-10
1.15734e-07
-2.27512e-10
1.15883e-07
-5.9083e-11
1.15947e-07
1.08984e-10
1.15931e-07
2.69925e-10
1.15842e-07
4.15778e-10
1.15682e-07
5.49953e-10
1.15452e-07
6.80009e-10
1.15153e-07
8.06443e-10
1.14786e-07
9.26305e-10
1.14355e-07
1.04086e-09
1.13865e-07
1.1521e-09
1.13322e-07
1.25772e-09
1.12734e-07
1.35548e-09
1.12107e-07
1.44768e-09
1.11444e-07
1.5368e-09
1.10745e-07
1.62033e-09
1.1001e-07
1.69469e-09
1.09235e-07
1.76135e-09
1.08421e-07
1.82508e-09
1.07566e-07
1.88849e-09
1.06672e-07
1.95198e-09
1.05741e-07
2.01671e-09
1.04773e-07
2.08332e-09
1.03771e-07
2.14751e-09
1.02741e-07
2.20142e-09
1.01692e-07
2.24193e-09
1.0063e-07
2.27445e-09
9.95574e-08
2.30561e-09
9.84716e-08
2.33422e-09
9.73715e-08
2.35345e-09
9.6259e-08
2.36198e-09
9.51366e-08
2.36864e-09
9.40033e-08
2.38255e-09
9.28567e-08
2.40112e-09
9.16973e-08
2.41286e-09
9.05295e-08
2.41209e-09
8.9358e-08
2.40577e-09
8.81849e-08
2.40386e-09
8.70112e-08
2.40773e-09
8.58388e-08
2.41185e-09
8.46697e-08
2.41396e-09
8.35038e-08
2.41698e-09
8.23395e-08
2.42181e-09
8.11769e-08
2.42471e-09
8.00177e-08
2.42351e-09
7.88629e-08
2.41969e-09
7.7712e-08
2.41272e-09
7.65643e-08
2.3991e-09
7.54194e-08
2.37916e-09
7.42762e-08
2.35878e-09
7.31335e-08
2.34185e-09
7.19914e-08
2.32721e-09
7.08507e-08
2.31354e-09
6.97121e-08
2.30244e-09
6.8576e-08
2.29466e-09
6.74448e-08
2.28777e-09
6.63219e-08
2.27963e-09
6.52097e-08
2.27109e-09
6.41086e-08
2.26271e-09
6.30177e-08
2.25097e-09
6.19375e-08
2.23079e-09
6.08691e-08
2.20114e-09
5.98139e-08
2.16536e-09
5.87723e-08
2.12683e-09
5.77452e-08
2.08592e-09
5.67343e-08
2.04167e-09
5.57412e-08
1.99505e-09
5.47663e-08
1.94943e-09
5.38091e-08
1.90851e-09
5.28682e-08
1.8738e-09
5.19418e-08
1.845e-09
5.10288e-08
1.82283e-09
5.01279e-08
1.80735e-09
4.92374e-08
1.79693e-09
4.83558e-08
1.78826e-09
4.74821e-08
1.77806e-09
4.66162e-08
1.7647e-09
4.57589e-08
1.74824e-09
4.49112e-08
1.72897e-09
4.40747e-08
1.70618e-09
4.32512e-08
1.67842e-09
4.24428e-08
1.64467e-09
4.16511e-08
1.60531e-09
4.08775e-08
1.56234e-09
4.01223e-08
1.51844e-09
3.93854e-08
1.47604e-09
3.8666e-08
1.43677e-09
3.79632e-08
1.40149e-09
3.72761e-08
1.3705e-09
3.6604e-08
1.3434e-09
3.59464e-08
1.31945e-09
3.53031e-08
1.29745e-09
3.46738e-08
1.276e-09
3.40582e-08
1.25365e-09
3.34565e-08
1.22898e-09
3.28692e-08
1.20099e-09
3.22972e-08
1.16968e-09
3.17406e-08
1.13651e-09
3.11985e-08
1.10396e-09
3.06679e-08
1.07407e-09
3.01456e-08
1.04721e-09
2.96295e-08
1.02225e-09
2.91201e-08
9.98923e-10
2.86188e-08
9.7971e-10
2.81259e-08
9.6816e-10
2.76395e-08
9.63981e-10
2.71579e-08
9.61323e-10
2.66825e-08
9.52629e-10
2.62171e-08
9.35607e-10
2.57645e-08
9.14116e-10
2.53241e-08
8.91527e-10
2.48939e-08
8.65284e-10
2.44747e-08
8.31374e-10
2.40684e-08
7.93446e-10
2.36742e-08
7.62759e-10
2.32874e-08
7.46203e-10
2.29035e-08
7.38809e-10
2.25222e-08
7.32376e-10
2.2146e-08
7.26037e-10
2.17752e-08
7.24658e-10
2.14079e-08
7.28595e-10
2.10435e-08
7.30651e-10
2.06835e-08
7.25104e-10
2.03292e-08
7.14077e-10
1.99803e-08
7.01506e-10
1.96364e-08
6.86739e-10
1.92976e-08
6.69173e-10
1.89632e-08
6.53147e-10
1.86317e-08
6.42866e-10
1.83023e-08
6.37511e-10
1.79754e-08
6.356e-10
1.76505e-08
6.38528e-10
1.73269e-08
6.45419e-10
1.70059e-08
6.49507e-10
1.66909e-08
6.44553e-10
1.63843e-08
6.31853e-10
1.60855e-08
6.17009e-10
1.5792e-08
6.02673e-10
1.55016e-08
5.8821e-10
1.52134e-08
5.75049e-10
1.49265e-08
5.6754e-10
1.46395e-08
5.68085e-10
1.4352e-08
5.73903e-10
1.4065e-08
5.79831e-10
1.37805e-08
5.82553e-10
1.35001e-08
5.81106e-10
1.32245e-08
5.74728e-10
1.29546e-08
5.62404e-10
1.26909e-08
5.44798e-10
1.24334e-08
5.25515e-10
1.21812e-08
5.09496e-10
1.19325e-08
4.99559e-10
1.16861e-08
4.93932e-10
1.14431e-08
4.88014e-10
1.12061e-08
4.79542e-10
1.09762e-08
4.70226e-10
1.07527e-08
4.60653e-10
1.05348e-08
4.47352e-10
1.03224e-08
4.28742e-10
1.0114e-08
4.09831e-10
9.90661e-09
3.97642e-10
9.6985e-09
3.94284e-10
9.4902e-09
3.97219e-10
9.28376e-09
4.02437e-10
9.08168e-09
4.04893e-10
8.88636e-09
4.00418e-10
8.69862e-09
3.89416e-10
8.51678e-09
3.75991e-10
8.33735e-09
3.64637e-10
8.1566e-09
3.59278e-10
7.97204e-09
3.62025e-10
7.78372e-09
3.70995e-10
7.59352e-09
3.82234e-10
7.4042e-09
3.9173e-10
7.21844e-09
3.9573e-10
7.03745e-09
3.91715e-10
6.86044e-09
3.79818e-10
6.68572e-09
3.64188e-10
6.5115e-09
3.51966e-10
6.33665e-09
3.47565e-10
6.16288e-09
3.46778e-10
5.99496e-09
3.41632e-10
5.83478e-09
3.34517e-10
5.67928e-09
3.29497e-10
5.52478e-09
3.22444e-10
5.36872e-09
3.13957e-10
5.21125e-09
3.08336e-10
5.05509e-09
3.06042e-10
4.90236e-09
3.05744e-10
4.75456e-09
3.03491e-10
4.61301e-09
2.94455e-10
4.47809e-09
2.79667e-10
4.34631e-09
2.68534e-10
4.21482e-09
2.62203e-10
4.08358e-09
2.57007e-10
3.95359e-09
2.54759e-10
3.82489e-09
2.53348e-10
3.69934e-09
2.46734e-10
3.57775e-09
2.37035e-10
3.45892e-09
2.39535e-10
3.3451e-09
2.42426e-10
3.22887e-09
2.49508e-10
3.11093e-09
2.52305e-10
3.00969e-09
2.20877e-10
2.93413e-09
1.85737e-10
2.8683e-09
1.67396e-10
2.78893e-09
1.67576e-10
2.69861e-09
1.67892e-10
2.61258e-09
1.52549e-10
2.54044e-09
1.33053e-10
2.48174e-09
9.83446e-11
2.42318e-09
9.37426e-11
2.37278e-09
8.66258e-11
2.31731e-09
1.06504e-10
2.26555e-09
1.09327e-10
2.21336e-09
1.01451e-10
2.16394e-09
9.94036e-11
2.12344e-09
6.47774e-11
2.07708e-09
8.62716e-11
2.01508e-09
1.35634e-10
1.96541e-09
1.1871e-10
1.9189e-09
1.11026e-10
1.89745e-09
6.31287e-11
1.87339e-09
7.55768e-11
1.84711e-09
7.18926e-11
1.83111e-09
3.3867e-11
1.81799e-09
1.55144e-11
1.79549e-09
-2.11296e-12
1.75795e-09
4.8701e-11
1.76358e-09
-2.28333e-11
1.76292e-09
1.81835e-11
1.73725e-09
5.00405e-11
1.74021e-09
4.37124e-11
1.75067e-09
1.3722e-11
1.74498e-09
-1.60273e-11
1.75624e-09
2.13287e-11
1.73051e-09
9.92599e-12
1.65938e-09
3.48024e-11
1.66359e-09
1.19669e-11
1.6255e-09
6.45709e-11
1.54012e-09
1.64216e-10
1.64945e-09
-1.00419e-10
1.75447e-09
-2.57442e-11
2.1812e-09
-3.81343e-10
2.58417e-09
-4.877e-10
2.80891e-09
-2.52667e-10
2.78269e-09
-3.56441e-10
2.54172e-09
-4.19833e-11
2.50929e-09
1.40826e-11
2.46457e-09
1.00418e-11
2.3735e-09
1.38993e-10
2.26302e-09
1.90094e-10
2.1212e-09
2.3497e-10
1.93804e-09
3.08639e-10
1.7642e-09
3.41187e-10
1.62063e-09
3.36886e-10
1.47877e-09
3.48963e-10
1.3222e-09
3.73455e-10
1.16285e-09
3.6949e-10
1.00768e-09
3.36328e-10
8.48109e-10
3.07589e-10
6.77998e-10
3.03514e-10
5.10065e-10
3.06757e-10
3.62358e-10
2.89895e-10
2.44067e-10
2.47959e-10
1.53304e-10
1.95623e-10
8.00366e-11
1.54487e-10
1.08584e-11
1.37565e-10
-6.6889e-11
1.47253e-10
-1.6233e-10
1.78832e-10
-2.75062e-10
2.17265e-10
-3.99515e-10
2.49781e-10
-5.23595e-10
2.65067e-10
-6.36096e-10
2.61279e-10
-7.29524e-10
2.41387e-10
-7.99087e-10
2.07702e-10
-8.42346e-10
1.60821e-10
-8.58653e-10
1.00358e-10
-8.49647e-10
2.69192e-11
-8.1533e-10
-5.50694e-11
-7.59965e-10
-1.4068e-10
-6.84649e-10
-2.18366e-10
-5.89555e-10
-2.84136e-10
-4.74824e-10
-3.33248e-10
-3.41118e-10
-3.6543e-10
-1.91673e-10
-3.81827e-10
-3.39013e-11
-3.8188e-10
1.20402e-10
-3.62758e-10
2.56659e-10
-3.19942e-10
3.62517e-10
-2.53995e-10
4.36351e-10
-1.76199e-10
4.8363e-10
-1.02473e-10
5.2159e-10
-5.49326e-11
5.60535e-10
-3.84585e-11
6.05721e-10
-4.77136e-11
6.61535e-10
-7.82975e-11
7.31155e-10
-1.29575e-10
8.21611e-10
-2.01326e-10
9.39072e-10
-2.80194e-10
1.07443e-09
-3.2965e-10
1.19967e-09
-3.03691e-10
1.28973e-09
-1.98924e-10
1.34631e-09
-8.07957e-11
1.39969e-09
-4.22148e-11
1.48362e-09
-1.22578e-10
1.56949e-09
-2.30856e-10
1.59194e-09
-2.05942e-10
1.51007e-09
7.23857e-12
1.3674e-09
2.61584e-10
1.28714e-09
3.27667e-10
1.33052e-09
1.4961e-10
1.36553e-09
-2.07175e-11
1.27835e-09
6.2771e-11
1.07649e-09
3.21525e-10
9.62442e-10
3.78607e-10
1.0425e-09
1.03965e-10
1.11323e-09
-1.39794e-10
1.01154e-09
-4.49395e-11
9.28206e-10
8.54012e-11
1.02669e-09
-8.40038e-11
1.10704e-09
-2.79112e-10
9.55288e-10
-1.6273e-10
8.29099e-10
6.78278e-11
7.84541e-10
1.72195e-10
6.90879e-10
1.52349e-10
6.31797e-10
2.87914e-10
7.26122e-10
1.24657e-10
7.90374e-10
-1.17641e-05
1.00689e-07
-1.19011e-05
3.38524e-07
-1.2015e-05
3.29599e-07
-1.21283e-05
3.08402e-07
-1.22319e-05
2.9777e-07
-1.23224e-05
2.80832e-07
-1.24056e-05
2.57561e-07
-1.24852e-05
2.39347e-07
-1.256e-05
2.22884e-07
-1.26313e-05
2.0719e-07
-1.26993e-05
1.94309e-07
-1.27619e-05
1.80996e-07
-1.28226e-05
1.6926e-07
-1.28741e-05
1.58976e-07
-1.29214e-05
1.46547e-07
-1.29635e-05
1.32534e-07
-1.29981e-05
1.15468e-07
-1.30279e-05
9.8267e-08
-1.30527e-05
8.15927e-08
-1.30707e-05
6.44954e-08
-1.3082e-05
4.67535e-08
-1.30875e-05
2.89976e-08
-1.30871e-05
1.27635e-08
-1.30813e-05
-3.96282e-09
-1.30696e-05
-2.03568e-08
-1.30515e-05
-3.72265e-08
-1.30278e-05
-5.52773e-08
-1.29985e-05
-7.00269e-08
-1.29646e-05
-8.2687e-08
-1.29247e-05
-9.86563e-08
-1.28773e-05
-1.12465e-07
-1.28298e-05
-1.18848e-07
-1.27772e-05
-1.36611e-07
-1.27231e-05
-1.63723e-07
-1.26638e-05
-1.79706e-07
-1.25966e-05
-1.92654e-07
-1.25232e-05
-2.06645e-07
-1.2444e-05
-2.19025e-07
-1.23626e-05
-2.4076e-07
-1.22735e-05
-2.64702e-07
-1.21769e-05
-2.80181e-07
-1.20735e-05
-2.95038e-07
-1.19673e-05
-3.12616e-07
-1.1859e-05
-3.30848e-07
-1.17435e-05
-3.45007e-07
-1.16237e-05
-3.57939e-07
-1.15031e-05
-3.70579e-07
-1.13825e-05
-3.82742e-07
-1.12594e-05
-3.94574e-07
-1.11319e-05
-4.05905e-07
-1.10009e-05
-4.17336e-07
-1.08682e-05
-4.3014e-07
-1.07316e-05
-4.43447e-07
-1.05906e-05
-4.56209e-07
-1.04448e-05
-4.66992e-07
-1.02935e-05
-4.75974e-07
-1.0138e-05
-4.83744e-07
-9.98017e-06
-4.89964e-07
-9.81932e-06
-4.93923e-07
-9.65539e-06
-4.97213e-07
-9.49e-06
-5.00835e-07
-9.3233e-06
-5.05083e-07
-9.15436e-06
-5.10701e-07
-8.98129e-06
-5.18251e-07
-8.8052e-06
-5.28358e-07
-8.6265e-06
-5.40779e-07
-8.44294e-06
-5.55461e-07
-8.25637e-06
-5.72127e-07
-8.06477e-06
-5.91068e-07
-7.86909e-06
-6.12523e-07
-7.66989e-06
-6.37862e-07
-7.4684e-06
-6.69023e-07
-7.26656e-06
-7.08861e-07
-7.06874e-06
-7.59543e-07
-6.88284e-06
-8.21599e-07
-6.72224e-06
-8.94773e-07
-6.60678e-06
-9.7546e-07
-6.57196e-06
-1.05299e-06
-6.54086e-06
-1.11063e-06
-6.47922e-06
-1.16157e-06
-6.50319e-06
-1.23462e-06