/*--------------------------------*- C++ -*----------------------------------*\
| =========                 |                                                 |
| \\      /  F ield         | OpenFOAM: The Open Source CFD Toolbox           |
|  \\    /   O peration     | Version:  v2006                                 |
|   \\  /    A nd           | Website:  www.openfoam.com                      |
|    \\/     M anipulation  |                                                 |
\*---------------------------------------------------------------------------*/
FoamFile
{
    version     2.0;
    format      ascii;
    class       volScalarField;
    location    "1";
    object      k;
}
// * * * * * * * * * * * * * * * * * * * * * * * * * * * * * * * * * * * * * //

dimensions      [0 2 -2 0 0 0 0];


internalField   nonuniform List<scalar> 
33000
(
1.73594e-08
1.76455e-08
1.76246e-08
1.76074e-08
1.75919e-08
1.75752e-08
1.75568e-08
1.75371e-08
1.75163e-08
1.7495e-08
1.7474e-08
1.74536e-08
1.7435e-08
1.742e-08
1.74071e-08
1.73934e-08
1.73754e-08
1.73517e-08
1.73252e-08
1.7298e-08
1.72697e-08
1.72404e-08
1.72112e-08
1.71821e-08
1.71529e-08
1.71231e-08
1.70922e-08
1.70598e-08
1.70263e-08
1.69906e-08
1.69498e-08
1.69029e-08
1.68558e-08
1.68101e-08
1.67678e-08
1.67295e-08
1.66916e-08
1.6652e-08
1.661e-08
1.65664e-08
1.6521e-08
1.64703e-08
1.64105e-08
1.63477e-08
1.62828e-08
1.62137e-08
1.61433e-08
1.60713e-08
1.59974e-08
1.59232e-08
1.58463e-08
1.57636e-08
1.56817e-08
1.56042e-08
1.55316e-08
1.54611e-08
1.53916e-08
1.53223e-08
1.52522e-08
1.51778e-08
1.50972e-08
1.50174e-08
1.49383e-08
1.48595e-08
1.47808e-08
1.47008e-08
1.46167e-08
1.45301e-08
1.44441e-08
1.43561e-08
1.42642e-08
1.41649e-08
1.40504e-08
1.39128e-08
1.37512e-08
1.35534e-08
1.33162e-08
1.30841e-08
1.21138e-08
1.21983e-08
1.19175e-08
1.19435e-08
1.19168e-08
1.18596e-08
1.18586e-08
1.1826e-08
1.1761e-08
1.17117e-08
1.16722e-08
1.16322e-08
1.15915e-08
1.15524e-08
1.15153e-08
1.14764e-08
1.14375e-08
1.13938e-08
1.13479e-08
1.12998e-08
1.1259e-08
1.11885e-08
1.11481e-08
1.10984e-08
1.10557e-08
1.10139e-08
1.0972e-08
1.09313e-08
1.0891e-08
1.08504e-08
1.08106e-08
1.07714e-08
1.07331e-08
1.06965e-08
1.06603e-08
1.06253e-08
1.05891e-08
1.05533e-08
1.05236e-08
1.04723e-08
1.04456e-08
1.04147e-08
1.03855e-08
1.03577e-08
1.03298e-08
1.03033e-08
1.02779e-08
1.02527e-08
1.02277e-08
1.02032e-08
1.0179e-08
1.01554e-08
1.01331e-08
1.01119e-08
1.0091e-08
1.00705e-08
1.00504e-08
1.00305e-08
1.00111e-08
9.99201e-09
9.97356e-09
9.95635e-09
9.94e-09
9.92403e-09
9.90838e-09
9.89302e-09
9.87799e-09
9.8633e-09
9.84927e-09
9.83639e-09
9.82405e-09
9.81198e-09
9.80013e-09
9.7885e-09
9.77717e-09
9.76653e-09
9.75684e-09
9.74751e-09
9.73834e-09
9.72932e-09
9.72045e-09
9.71185e-09
9.70403e-09
9.69691e-09
9.68999e-09
9.68318e-09
9.67643e-09
9.66975e-09
9.66314e-09
9.65664e-09
9.6503e-09
9.64448e-09
9.63941e-09
9.63455e-09
9.62977e-09
9.62503e-09
9.62033e-09
9.61585e-09
9.61205e-09
9.60869e-09
9.60539e-09
9.6021e-09
9.5988e-09
9.59548e-09
9.59217e-09
9.58896e-09
9.58628e-09
9.58416e-09
9.58211e-09
9.58004e-09
9.57793e-09
9.5758e-09
9.5738e-09
9.57239e-09
9.5713e-09
9.57021e-09
9.56905e-09
9.5678e-09
9.56646e-09
9.56504e-09
9.56354e-09
9.56197e-09
9.56031e-09
9.55859e-09
9.5568e-09
9.55495e-09
9.55303e-09
9.55106e-09
9.54904e-09
9.54699e-09
9.5449e-09
9.54278e-09
9.54064e-09
9.53848e-09
9.53627e-09
9.53402e-09
9.53173e-09
9.52941e-09
9.52704e-09
9.52463e-09
9.5222e-09
9.51976e-09
9.5173e-09
9.51481e-09
9.51231e-09
9.5098e-09
9.50727e-09
9.50471e-09
9.50214e-09
9.49957e-09
9.497e-09
9.49444e-09
9.49188e-09
9.48933e-09
9.48678e-09
9.48425e-09
9.48172e-09
9.4792e-09
9.47668e-09
9.47417e-09
9.47166e-09
9.46918e-09
9.46671e-09
9.46427e-09
9.46185e-09
9.45944e-09
9.45705e-09
9.45465e-09
9.45227e-09
9.44991e-09
9.44757e-09
9.44523e-09
9.4429e-09
9.44059e-09
9.4383e-09
9.43605e-09
9.43383e-09
9.43162e-09
9.42943e-09
9.42728e-09
9.42517e-09
9.42311e-09
9.42107e-09
9.41904e-09
9.41703e-09
9.41502e-09
9.41304e-09
9.41106e-09
9.40911e-09
9.40718e-09
9.40528e-09
9.40341e-09
9.40157e-09
9.39978e-09
9.39803e-09
9.3963e-09
9.39459e-09
9.39291e-09
9.39124e-09
9.38959e-09
9.38795e-09
9.38632e-09
9.3847e-09
9.38309e-09
9.38149e-09
9.37991e-09
9.37838e-09
9.37688e-09
9.37541e-09
9.37399e-09
9.3726e-09
9.37126e-09
9.36996e-09
9.36869e-09
9.36746e-09
9.36625e-09
9.36505e-09
9.36387e-09
9.36269e-09
9.36152e-09
9.36036e-09
9.35922e-09
9.35809e-09
9.35697e-09
9.35588e-09
9.35481e-09
9.35377e-09
9.35277e-09
9.3518e-09
9.35088e-09
9.34998e-09
9.34912e-09
9.34828e-09
9.34745e-09
9.34664e-09
9.34583e-09
9.34502e-09
9.34423e-09
9.34344e-09
9.34267e-09
9.34192e-09
9.34119e-09
9.34049e-09
9.33982e-09
9.33918e-09
9.33856e-09
9.33798e-09
9.33741e-09
9.33685e-09
9.33629e-09
9.33572e-09
9.33515e-09
9.33458e-09
9.33402e-09
9.33348e-09
9.33295e-09
9.33245e-09
9.332e-09
9.33159e-09
9.33119e-09
9.3308e-09
9.33042e-09
9.33004e-09
9.32965e-09
9.32925e-09
9.32884e-09
9.32842e-09
9.328e-09
9.32759e-09
9.32719e-09
9.32682e-09
9.32646e-09
9.32612e-09
9.32578e-09
9.32545e-09
9.32511e-09
9.32476e-09
9.32439e-09
9.32402e-09
9.32364e-09
9.32328e-09
9.32294e-09
9.32261e-09
9.3223e-09
9.32201e-09
9.32172e-09
9.32143e-09
9.32112e-09
9.32081e-09
9.32049e-09
9.32018e-09
9.31987e-09
9.31957e-09
9.3193e-09
9.31904e-09
9.31879e-09
9.31855e-09
9.3183e-09
9.31806e-09
9.31782e-09
9.31758e-09
9.31735e-09
9.31713e-09
9.31693e-09
9.31675e-09
9.31658e-09
9.31641e-09
9.31623e-09
9.31603e-09
9.31583e-09
9.31562e-09
9.31542e-09
9.31524e-09
9.31506e-09
9.31489e-09
9.31472e-09
9.31454e-09
9.31433e-09
9.31411e-09
9.31389e-09
9.31366e-09
9.31345e-09
9.31326e-09
9.31309e-09
9.31291e-09
9.31274e-09
9.31256e-09
9.31238e-09
9.3122e-09
9.31203e-09
9.31188e-09
9.31174e-09
9.31159e-09
9.31143e-09
9.31127e-09
9.31112e-09
9.31099e-09
9.31087e-09
9.31076e-09
9.31065e-09
9.31054e-09
9.31043e-09
9.31033e-09
9.31023e-09
9.31011e-09
9.30998e-09
9.30984e-09
9.3097e-09
9.30959e-09
9.30948e-09
9.30939e-09
9.30929e-09
9.30923e-09
9.30915e-09
9.30911e-09
9.3091e-09
9.30908e-09
9.30905e-09
9.30899e-09
9.30894e-09
9.30888e-09
9.30885e-09
9.30886e-09
9.3088e-09
9.30873e-09
9.30866e-09
9.30862e-09
9.3086e-09
9.30855e-09
9.30854e-09
9.30856e-09
9.30864e-09
9.30867e-09
9.3087e-09
9.30875e-09
9.30874e-09
9.30873e-09
9.30867e-09
9.30874e-09
9.30876e-09
9.30872e-09
9.30885e-09
9.30886e-09
9.30886e-09
9.30878e-09
9.30878e-09
9.30875e-09
9.30862e-09
9.3087e-09
9.30882e-09
9.30862e-09
9.3099e-09
9.30945e-09
9.30943e-09
9.30937e-09
9.30923e-09
9.30908e-09
9.30892e-09
9.30871e-09
9.30849e-09
9.30826e-09
9.30806e-09
9.30794e-09
9.3079e-09
9.30792e-09
9.30797e-09
9.30806e-09
9.30818e-09
9.30831e-09
9.30845e-09
9.30857e-09
9.30869e-09
9.3088e-09
9.30892e-09
9.30907e-09
9.30924e-09
9.30945e-09
9.30966e-09
9.30988e-09
9.31009e-09
9.31028e-09
9.31043e-09
9.31052e-09
9.31052e-09
9.31044e-09
9.31028e-09
9.31004e-09
9.30974e-09
9.30942e-09
9.30907e-09
9.30874e-09
9.30844e-09
9.30822e-09
9.30809e-09
9.30804e-09
9.30803e-09
9.30802e-09
9.30798e-09
9.30794e-09
9.3079e-09
9.30792e-09
9.30801e-09
9.30819e-09
9.30842e-09
9.30865e-09
9.30881e-09
9.30886e-09
9.30882e-09
9.30881e-09
9.30893e-09
9.30918e-09
9.30934e-09
9.30928e-09
9.30898e-09
9.3086e-09
9.30837e-09
9.30839e-09
9.30834e-09
9.30814e-09
9.30783e-09
9.30767e-09
9.30791e-09
9.30793e-09
9.30786e-09
9.30805e-09
9.3086e-09
9.30879e-09
9.30867e-09
9.30852e-09
9.30836e-09
9.30809e-09
9.31476e-09
1.00696e-08
1.00933e-08
1.00867e-08
1.00781e-08
1.00746e-08
1.00712e-08
1.0066e-08
1.00608e-08
1.00569e-08
1.00538e-08
1.00512e-08
1.00491e-08
1.0047e-08
1.00462e-08
1.00447e-08
1.00434e-08
1.00423e-08
1.0041e-08
1.004e-08
1.00392e-08
1.00381e-08
1.00371e-08
1.00363e-08
1.00357e-08
1.00353e-08
1.0035e-08
1.00341e-08
1.00332e-08
1.00324e-08
1.00316e-08
1.0031e-08
1.00307e-08
1.0031e-08
1.00312e-08
1.00312e-08
1.00313e-08
1.00314e-08
1.00316e-08
1.0032e-08
1.00324e-08
1.00326e-08
1.00328e-08
1.00331e-08
1.00333e-08
1.00335e-08
1.00336e-08
1.00337e-08
1.00337e-08
1.00337e-08
1.00336e-08
1.00334e-08
1.00332e-08
1.00329e-08
1.00325e-08
1.00321e-08
1.00317e-08
1.00312e-08
1.00308e-08
1.00303e-08
1.00299e-08
1.00294e-08
1.00288e-08
1.00283e-08
1.0028e-08
1.00277e-08
1.00276e-08
1.00276e-08
1.00277e-08
1.00278e-08
1.00279e-08
1.00284e-08
1.00293e-08
1.00308e-08
1.00334e-08
1.00375e-08
1.0044e-08
1.0053e-08
1.00602e-08
1.0049e-08
1.00273e-08
1.00227e-08
1.00183e-08
1.00182e-08
1.00162e-08
1.00175e-08
1.00188e-08
1.00159e-08
1.00126e-08
1.00123e-08
1.00137e-08
1.0014e-08
1.00134e-08
1.00136e-08
1.00136e-08
1.00136e-08
1.00136e-08
1.00136e-08
1.00135e-08
1.00135e-08
1.00133e-08
1.0013e-08
1.0013e-08
1.00128e-08
1.00124e-08
1.00123e-08
1.00121e-08
1.0012e-08
1.00118e-08
1.00117e-08
1.00115e-08
1.00112e-08
1.00111e-08
1.00109e-08
1.00107e-08
1.00106e-08
1.00106e-08
1.00107e-08
1.00102e-08
1.00096e-08
1.00098e-08
1.00095e-08
1.00089e-08
1.00088e-08
1.00086e-08
1.00085e-08
1.00084e-08
1.00082e-08
1.00076e-08
1.00074e-08
1.00072e-08
1.00069e-08
1.00068e-08
1.00065e-08
1.00062e-08
1.0006e-08
1.00057e-08
1.00055e-08
1.00052e-08
1.0005e-08
1.00047e-08
1.00045e-08
1.00043e-08
1.00041e-08
1.00039e-08
1.00037e-08
1.00034e-08
1.00032e-08
1.0003e-08
1.00029e-08
1.00027e-08
1.00025e-08
1.00023e-08
1.00021e-08
1.00019e-08
1.00018e-08
1.00016e-08
1.00014e-08
1.00012e-08
1.00011e-08
1.00009e-08
1.00007e-08
1.00006e-08
1.00004e-08
1.00002e-08
1.00001e-08
9.99995e-09
9.9998e-09
9.99965e-09
9.99951e-09
9.99938e-09
9.99925e-09
9.99912e-09
9.99899e-09
9.99887e-09
9.99874e-09
9.99863e-09
9.99852e-09
9.99841e-09
9.99829e-09
9.99819e-09
9.99808e-09
9.99799e-09
9.99789e-09
9.9978e-09
9.99771e-09
9.99762e-09
9.99753e-09
9.99744e-09
9.99736e-09
9.99729e-09
9.99721e-09
9.99713e-09
9.99705e-09
9.99697e-09
9.9969e-09
9.99684e-09
9.99677e-09
9.9967e-09
9.99664e-09
9.99658e-09
9.99652e-09
9.99647e-09
9.99642e-09
9.99638e-09
9.99633e-09
9.99629e-09
9.99625e-09
9.99622e-09
9.99619e-09
9.99616e-09
9.99613e-09
9.99611e-09
9.99608e-09
9.99606e-09
9.99603e-09
9.99601e-09
9.99599e-09
9.99597e-09
9.99596e-09
9.99594e-09
9.99593e-09
9.99592e-09
9.9959e-09
9.99589e-09
9.99588e-09
9.99586e-09
9.99585e-09
9.99584e-09
9.99582e-09
9.99581e-09
9.9958e-09
9.9958e-09
9.99579e-09
9.99577e-09
9.99576e-09
9.99575e-09
9.99573e-09
9.99572e-09
9.99571e-09
9.9957e-09
9.99569e-09
9.99568e-09
9.99568e-09
9.99567e-09
9.99566e-09
9.99566e-09
9.99565e-09
9.99564e-09
9.99563e-09
9.99562e-09
9.99561e-09
9.9956e-09
9.9956e-09
9.99559e-09
9.99558e-09
9.99557e-09
9.99557e-09
9.99556e-09
9.99555e-09
9.99555e-09
9.99554e-09
9.99553e-09
9.99552e-09
9.99551e-09
9.9955e-09
9.99549e-09
9.99548e-09
9.99548e-09
9.99547e-09
9.99546e-09
9.99545e-09
9.99545e-09
9.99544e-09
9.99544e-09
9.99543e-09
9.99543e-09
9.99542e-09
9.99541e-09
9.99541e-09
9.9954e-09
9.99539e-09
9.99538e-09
9.99538e-09
9.99537e-09
9.99537e-09
9.99536e-09
9.99536e-09
9.99535e-09
9.99535e-09
9.99534e-09
9.99534e-09
9.99533e-09
9.99533e-09
9.99532e-09
9.99532e-09
9.99531e-09
9.99531e-09
9.9953e-09
9.9953e-09
9.99529e-09
9.99529e-09
9.99528e-09
9.99528e-09
9.99528e-09
9.99527e-09
9.99527e-09
9.99527e-09
9.99527e-09
9.99527e-09
9.99526e-09
9.99526e-09
9.99526e-09
9.99526e-09
9.99526e-09
9.99526e-09
9.99525e-09
9.99525e-09
9.99525e-09
9.99525e-09
9.99525e-09
9.99525e-09
9.99524e-09
9.99524e-09
9.99524e-09
9.99524e-09
9.99524e-09
9.99524e-09
9.99524e-09
9.99523e-09
9.99523e-09
9.99523e-09
9.99523e-09
9.99523e-09
9.99522e-09
9.99522e-09
9.99522e-09
9.99522e-09
9.99522e-09
9.99522e-09
9.99522e-09
9.99522e-09
9.99521e-09
9.99521e-09
9.99521e-09
9.99521e-09
9.99521e-09
9.9952e-09
9.9952e-09
9.9952e-09
9.9952e-09
9.9952e-09
9.9952e-09
9.99519e-09
9.99519e-09
9.99519e-09
9.99519e-09
9.99518e-09
9.99518e-09
9.99518e-09
9.99518e-09
9.99518e-09
9.99518e-09
9.99518e-09
9.99517e-09
9.99517e-09
9.99517e-09
9.99517e-09
9.99517e-09
9.99516e-09
9.99516e-09
9.99516e-09
9.99516e-09
9.99516e-09
9.99516e-09
9.99516e-09
9.99516e-09
9.99516e-09
9.99516e-09
9.99516e-09
9.99515e-09
9.99515e-09
9.99515e-09
9.99515e-09
9.99515e-09
9.99515e-09
9.99515e-09
9.99515e-09
9.99515e-09
9.99515e-09
9.99515e-09
9.99515e-09
9.99515e-09
9.99514e-09
9.99514e-09
9.99514e-09
9.99514e-09
9.99514e-09
9.99514e-09
9.99514e-09
9.99514e-09
9.99514e-09
9.99513e-09
9.99513e-09
9.99513e-09
9.99513e-09
9.99513e-09
9.99513e-09
9.99513e-09
9.99513e-09
9.99513e-09
9.99513e-09
9.99513e-09
9.99513e-09
9.99513e-09
9.99513e-09
9.99513e-09
9.99513e-09
9.99513e-09
9.99512e-09
9.99512e-09
9.99512e-09
9.99512e-09
9.99512e-09
9.99512e-09
9.99512e-09
9.99512e-09
9.99512e-09
9.99512e-09
9.99512e-09
9.99512e-09
9.99512e-09
9.99512e-09
9.99512e-09
9.99512e-09
9.99512e-09
9.99512e-09
9.99512e-09
9.99512e-09
9.99512e-09
9.99512e-09
9.99512e-09
9.99512e-09
9.99512e-09
9.99512e-09
9.99512e-09
9.99512e-09
9.99512e-09
9.99512e-09
9.99512e-09
9.99512e-09
9.99512e-09
9.99512e-09
9.99512e-09
9.99512e-09
9.99512e-09
9.99512e-09
9.99512e-09
9.99512e-09
9.99512e-09
9.99512e-09
9.99512e-09
9.99512e-09
9.99511e-09
9.99512e-09
9.99511e-09
9.99513e-09
9.99512e-09
9.9951e-09
9.99509e-09
9.99509e-09
9.99508e-09
9.99509e-09
9.99508e-09
9.99508e-09
9.99508e-09
9.99508e-09
9.99508e-09
9.99507e-09
9.99507e-09
9.99507e-09
9.99508e-09
9.99508e-09
9.99508e-09
9.99509e-09
9.99509e-09
9.99509e-09
9.99509e-09
9.99509e-09
9.9951e-09
9.9951e-09
9.9951e-09
9.99511e-09
9.99511e-09
9.99511e-09
9.99511e-09
9.99511e-09
9.99511e-09
9.99512e-09
9.99512e-09
9.99513e-09
9.99513e-09
9.99514e-09
9.99514e-09
9.99515e-09
9.99515e-09
9.99515e-09
9.99515e-09
9.99516e-09
9.99516e-09
9.99516e-09
9.99516e-09
9.99516e-09
9.99516e-09
9.99516e-09
9.99516e-09
9.99516e-09
9.99516e-09
9.99516e-09
9.99516e-09
9.99516e-09
9.99517e-09
9.99517e-09
9.99517e-09
9.99517e-09
9.99517e-09
9.99516e-09
9.99517e-09
9.99517e-09
9.99517e-09
9.99517e-09
9.99516e-09
9.99515e-09
9.99515e-09
9.99516e-09
9.99517e-09
9.99516e-09
9.99515e-09
9.99515e-09
9.99517e-09
9.99517e-09
9.99517e-09
9.99517e-09
9.99517e-09
9.99517e-09
9.99517e-09
9.99515e-09
9.99516e-09
9.99514e-09
9.99514e-09
9.9952e-09
9.99372e-09
9.99679e-09
9.99913e-09
1.00008e-08
1.00025e-08
1.0004e-08
1.00053e-08
1.00063e-08
1.0007e-08
1.00076e-08
1.0008e-08
1.00081e-08
1.00082e-08
1.00081e-08
1.0008e-08
1.00078e-08
1.00076e-08
1.00074e-08
1.0007e-08
1.00066e-08
1.00062e-08
1.00059e-08
1.00056e-08
1.00054e-08
1.00051e-08
1.00048e-08
1.00044e-08
1.00041e-08
1.00038e-08
1.00036e-08
1.00036e-08
1.00037e-08
1.00038e-08
1.0004e-08
1.00041e-08
1.00042e-08
1.00043e-08
1.00043e-08
1.00044e-08
1.00044e-08
1.00045e-08
1.00045e-08
1.00045e-08
1.00045e-08
1.00044e-08
1.00044e-08
1.00044e-08
1.00044e-08
1.00044e-08
1.00044e-08
1.00044e-08
1.00044e-08
1.00043e-08
1.00042e-08
1.00041e-08
1.00039e-08
1.00038e-08
1.00036e-08
1.00035e-08
1.00033e-08
1.00031e-08
1.0003e-08
1.00029e-08
1.00028e-08
1.00027e-08
1.00027e-08
1.00028e-08
1.00029e-08
1.00031e-08
1.00033e-08
1.00034e-08
1.00034e-08
1.00035e-08
1.00036e-08
1.00037e-08
1.00038e-08
1.00038e-08
1.00037e-08
1.00036e-08
1.00038e-08
1.00042e-08
1.00049e-08
1.00045e-08
1.00047e-08
1.00058e-08
1.00063e-08
1.0006e-08
1.00059e-08
1.00056e-08
1.00061e-08
1.00039e-08
1.00048e-08
1.00051e-08
1.00052e-08
1.0005e-08
1.00053e-08
1.00049e-08
1.00048e-08
1.00049e-08
1.00049e-08
1.0005e-08
1.00049e-08
1.0005e-08
1.0005e-08
1.00053e-08
1.00053e-08
1.0005e-08
1.00049e-08
1.00048e-08
1.00047e-08
1.00046e-08
1.00045e-08
1.00045e-08
1.00045e-08
1.00044e-08
1.00044e-08
1.00043e-08
1.00042e-08
1.00043e-08
1.00043e-08
1.00045e-08
1.00045e-08
1.00053e-08
1.00053e-08
1.00044e-08
1.00044e-08
1.0004e-08
1.0004e-08
1.00039e-08
1.00038e-08
1.00038e-08
1.00037e-08
1.00037e-08
1.00037e-08
1.00036e-08
1.00036e-08
1.00035e-08
1.00035e-08
1.00035e-08
1.00034e-08
1.00034e-08
1.00034e-08
1.00034e-08
1.00033e-08
1.00033e-08
1.00033e-08
1.00032e-08
1.00032e-08
1.00032e-08
1.00032e-08
1.00031e-08
1.00031e-08
1.00031e-08
1.0003e-08
1.0003e-08
1.00029e-08
1.00029e-08
1.00029e-08
1.00028e-08
1.00028e-08
1.00027e-08
1.00027e-08
1.00026e-08
1.00026e-08
1.00025e-08
1.00025e-08
1.00024e-08
1.00024e-08
1.00023e-08
1.00023e-08
1.00022e-08
1.00022e-08
1.00021e-08
1.00021e-08
1.00021e-08
1.0002e-08
1.0002e-08
1.00019e-08
1.00019e-08
1.00019e-08
1.00018e-08
1.00018e-08
1.00017e-08
1.00017e-08
1.00016e-08
1.00016e-08
1.00015e-08
1.00015e-08
1.00014e-08
1.00014e-08
1.00014e-08
1.00013e-08
1.00012e-08
1.00012e-08
1.00011e-08
1.00011e-08
1.0001e-08
1.0001e-08
1.00009e-08
1.00009e-08
1.00008e-08
1.00008e-08
1.00007e-08
1.00007e-08
1.00007e-08
1.00006e-08
1.00006e-08
1.00005e-08
1.00005e-08
1.00005e-08
1.00005e-08
1.00004e-08
1.00004e-08
1.00003e-08
1.00003e-08
1.00003e-08
1.00003e-08
1.00002e-08
1.00002e-08
1.00002e-08
1.00002e-08
1.00002e-08
1.00001e-08
1.00001e-08
1.00001e-08
1.00001e-08
1.00001e-08
1.00001e-08
1.00001e-08
1.00001e-08
1.00001e-08
1.00001e-08
1.00001e-08
1.00001e-08
1e-08
1e-08
1e-08
1e-08
1e-08
1e-08
1e-08
1e-08
1e-08
1e-08
1e-08
1e-08
9.99999e-09
9.99998e-09
9.99997e-09
9.99995e-09
9.99994e-09
9.99993e-09
9.99993e-09
9.99991e-09
9.9999e-09
9.9999e-09
9.9999e-09
9.9999e-09
9.9999e-09
9.99989e-09
9.99988e-09
9.99986e-09
9.99985e-09
9.99983e-09
9.99981e-09
9.9998e-09
9.99979e-09
9.99977e-09
9.99977e-09
9.99976e-09
9.99976e-09
9.99975e-09
9.99974e-09
9.99973e-09
9.99972e-09
9.99971e-09
9.9997e-09
9.99969e-09
9.99967e-09
9.99966e-09
9.99964e-09
9.99963e-09
9.99962e-09
9.99961e-09
9.9996e-09
9.99959e-09
9.99958e-09
9.99958e-09
9.99957e-09
9.99956e-09
9.99955e-09
9.99954e-09
9.99953e-09
9.99951e-09
9.9995e-09
9.99948e-09
9.99947e-09
9.99945e-09
9.99944e-09
9.99943e-09
9.99941e-09
9.9994e-09
9.99939e-09
9.99938e-09
9.99938e-09
9.99937e-09
9.99936e-09
9.99936e-09
9.99935e-09
9.99934e-09
9.99933e-09
9.99933e-09
9.99932e-09
9.99931e-09
9.9993e-09
9.99929e-09
9.99928e-09
9.99927e-09
9.99927e-09
9.99926e-09
9.99926e-09
9.99925e-09
9.99925e-09
9.99925e-09
9.99925e-09
9.99924e-09
9.99924e-09
9.99923e-09
9.99922e-09
9.99922e-09
9.99921e-09
9.99921e-09
9.9992e-09
9.9992e-09
9.9992e-09
9.9992e-09
9.9992e-09
9.9992e-09
9.99919e-09
9.99919e-09
9.99919e-09
9.99918e-09
9.99917e-09
9.99917e-09
9.99917e-09
9.99917e-09
9.99916e-09
9.99916e-09
9.99916e-09
9.99916e-09
9.99916e-09
9.99916e-09
9.99916e-09
9.99915e-09
9.99915e-09
9.99915e-09
9.99914e-09
9.99914e-09
9.99914e-09
9.99914e-09
9.99914e-09
9.99914e-09
9.99914e-09
9.99913e-09
9.99913e-09
9.99913e-09
9.99912e-09
9.99912e-09
9.99912e-09
9.99912e-09
9.99912e-09
9.99912e-09
9.99912e-09
9.99911e-09
9.99911e-09
9.99911e-09
9.99911e-09
9.99911e-09
9.9991e-09
9.9991e-09
9.9991e-09
9.9991e-09
9.9991e-09
9.9991e-09
9.9991e-09
9.9991e-09
9.9991e-09
9.9991e-09
9.99909e-09
9.99909e-09
9.99909e-09
9.99909e-09
9.99909e-09
9.99909e-09
9.99909e-09
9.99909e-09
9.99909e-09
9.99909e-09
9.99909e-09
9.99909e-09
9.99909e-09
9.99909e-09
9.99908e-09
9.99908e-09
9.99908e-09
9.99908e-09
9.99908e-09
9.99908e-09
9.99908e-09
9.99908e-09
9.99908e-09
9.99908e-09
9.99908e-09
9.99907e-09
9.99907e-09
9.99908e-09
9.99908e-09
9.99907e-09
9.99907e-09
9.99907e-09
9.99907e-09
9.99907e-09
9.99907e-09
9.99907e-09
9.99907e-09
9.99907e-09
9.99907e-09
9.99907e-09
9.99907e-09
9.99907e-09
9.99907e-09
9.99907e-09
9.99907e-09
9.99907e-09
9.99907e-09
9.99907e-09
9.99907e-09
9.99907e-09
9.99907e-09
9.99907e-09
9.99907e-09
9.99907e-09
9.99907e-09
9.99907e-09
9.99907e-09
9.99906e-09
9.99906e-09
9.99907e-09
9.99907e-09
9.99907e-09
9.99906e-09
9.99906e-09
9.99906e-09
9.99906e-09
9.99906e-09
9.99906e-09
9.99906e-09
9.99906e-09
9.99906e-09
9.99906e-09
9.99908e-09
9.99908e-09
9.99911e-09
9.99913e-09
9.99906e-09
9.99905e-09
9.99904e-09
9.99904e-09
9.99904e-09
9.99904e-09
9.99904e-09
9.99904e-09
9.99904e-09
9.99904e-09
9.99904e-09
9.99904e-09
9.99904e-09
9.99904e-09
9.99904e-09
9.99904e-09
9.99904e-09
9.99904e-09
9.99905e-09
9.99905e-09
9.99905e-09
9.99905e-09
9.99905e-09
9.99905e-09
9.99905e-09
9.99905e-09
9.99906e-09
9.99906e-09
9.99906e-09
9.99906e-09
9.99906e-09
9.99906e-09
9.99906e-09
9.99907e-09
9.99907e-09
9.99907e-09
9.99908e-09
9.99908e-09
9.99908e-09
9.99908e-09
9.99908e-09
9.99909e-09
9.99909e-09
9.99909e-09
9.9991e-09
9.9991e-09
9.9991e-09
9.9991e-09
9.9991e-09
9.9991e-09
9.9991e-09
9.9991e-09
9.9991e-09
9.9991e-09
9.9991e-09
9.9991e-09
9.99911e-09
9.99911e-09
9.99911e-09
9.99912e-09
9.99911e-09
9.99911e-09
9.99911e-09
9.99911e-09
9.99911e-09
9.99911e-09
9.9991e-09
9.99911e-09
9.99911e-09
9.9991e-09
9.99912e-09
9.9991e-09
9.99912e-09
9.99912e-09
9.99912e-09
9.99914e-09
9.99911e-09
9.99911e-09
9.99912e-09
9.99915e-09
9.9991e-09
9.9991e-09
9.9991e-09
9.99912e-09
9.99913e-09
9.99915e-09
1.00182e-08
1.0014e-08
1.00117e-08
1.00108e-08
1.00102e-08
1.00099e-08
1.00099e-08
1.00099e-08
1.00097e-08
1.00096e-08
1.00096e-08
1.00094e-08
1.00093e-08
1.0009e-08
1.00088e-08
1.00086e-08
1.00084e-08
1.00081e-08
1.00078e-08
1.00075e-08
1.00072e-08
1.0007e-08
1.00068e-08
1.00066e-08
1.00065e-08
1.00063e-08
1.00061e-08
1.00059e-08
1.00056e-08
1.00053e-08
1.00051e-08
1.00051e-08
1.00052e-08
1.00054e-08
1.00057e-08
1.0006e-08
1.00063e-08
1.00064e-08
1.00065e-08
1.00065e-08
1.00063e-08
1.00061e-08
1.00058e-08
1.00055e-08
1.00051e-08
1.00048e-08
1.00046e-08
1.00043e-08
1.00042e-08
1.0004e-08
1.00039e-08
1.00038e-08
1.00037e-08
1.00036e-08
1.00034e-08
1.00032e-08
1.00031e-08
1.00029e-08
1.00027e-08
1.00025e-08
1.00024e-08
1.00022e-08
1.00021e-08
1.00021e-08
1.0002e-08
1.00021e-08
1.00022e-08
1.00024e-08
1.00025e-08
1.00027e-08
1.00028e-08
1.00029e-08
1.00029e-08
1.0003e-08
1.00031e-08
1.00031e-08
1.0003e-08
1.00031e-08
1.00031e-08
1.00029e-08
1.00022e-08
1.00022e-08
1.00027e-08
1.00035e-08
1.00043e-08
1.0004e-08
1.0004e-08
1.00045e-08
1.00057e-08
1.00062e-08
1.00061e-08
1.00058e-08
1.00061e-08
1.00042e-08
1.00045e-08
1.00051e-08
1.00051e-08
1.00049e-08
1.00052e-08
1.00048e-08
1.00047e-08
1.00047e-08
1.00047e-08
1.00048e-08
1.00048e-08
1.00048e-08
1.00049e-08
1.0005e-08
1.00052e-08
1.00051e-08
1.00048e-08
1.00047e-08
1.00045e-08
1.00045e-08
1.00043e-08
1.00043e-08
1.00043e-08
1.00042e-08
1.00042e-08
1.00041e-08
1.00041e-08
1.00042e-08
1.00042e-08
1.00045e-08
1.00044e-08
1.00052e-08
1.00052e-08
1.00043e-08
1.00043e-08
1.00039e-08
1.00039e-08
1.00037e-08
1.00037e-08
1.00036e-08
1.00036e-08
1.00035e-08
1.00035e-08
1.00035e-08
1.00035e-08
1.00034e-08
1.00034e-08
1.00034e-08
1.00033e-08
1.00033e-08
1.00033e-08
1.00033e-08
1.00032e-08
1.00032e-08
1.00032e-08
1.00031e-08
1.00031e-08
1.00031e-08
1.00031e-08
1.0003e-08
1.0003e-08
1.00029e-08
1.00029e-08
1.00028e-08
1.00028e-08
1.00028e-08
1.00027e-08
1.00027e-08
1.00026e-08
1.00026e-08
1.00025e-08
1.00025e-08
1.00024e-08
1.00024e-08
1.00023e-08
1.00023e-08
1.00023e-08
1.00022e-08
1.00022e-08
1.00021e-08
1.00021e-08
1.0002e-08
1.0002e-08
1.0002e-08
1.00019e-08
1.00019e-08
1.00018e-08
1.00018e-08
1.00017e-08
1.00017e-08
1.00017e-08
1.00016e-08
1.00016e-08
1.00015e-08
1.00015e-08
1.00014e-08
1.00014e-08
1.00013e-08
1.00013e-08
1.00012e-08
1.00012e-08
1.00011e-08
1.00011e-08
1.0001e-08
1.0001e-08
1.00009e-08
1.00009e-08
1.00008e-08
1.00008e-08
1.00007e-08
1.00007e-08
1.00007e-08
1.00006e-08
1.00006e-08
1.00006e-08
1.00005e-08
1.00005e-08
1.00005e-08
1.00004e-08
1.00004e-08
1.00004e-08
1.00003e-08
1.00003e-08
1.00003e-08
1.00003e-08
1.00003e-08
1.00002e-08
1.00002e-08
1.00002e-08
1.00002e-08
1.00002e-08
1.00001e-08
1.00001e-08
1.00001e-08
1.00001e-08
1.00001e-08
1.00001e-08
1.00001e-08
1.00001e-08
1.00001e-08
1.00001e-08
1.00001e-08
1.00001e-08
1.00001e-08
1.00001e-08
1e-08
1e-08
1e-08
1e-08
1e-08
1e-08
1e-08
1e-08
1e-08
9.99999e-09
9.99998e-09
9.99997e-09
9.99997e-09
9.99996e-09
9.99995e-09
9.99994e-09
9.99994e-09
9.99994e-09
9.99994e-09
9.99993e-09
9.99992e-09
9.9999e-09
9.99989e-09
9.99988e-09
9.99986e-09
9.99984e-09
9.99983e-09
9.99982e-09
9.99981e-09
9.9998e-09
9.9998e-09
9.99979e-09
9.99978e-09
9.99978e-09
9.99976e-09
9.99975e-09
9.99974e-09
9.99972e-09
9.99971e-09
9.99969e-09
9.99968e-09
9.99966e-09
9.99965e-09
9.99964e-09
9.99963e-09
9.99963e-09
9.99962e-09
9.99961e-09
9.99961e-09
9.9996e-09
9.9996e-09
9.99959e-09
9.99958e-09
9.99956e-09
9.99955e-09
9.99953e-09
9.99951e-09
9.9995e-09
9.99948e-09
9.99946e-09
9.99945e-09
9.99944e-09
9.99943e-09
9.99942e-09
9.99941e-09
9.99941e-09
9.9994e-09
9.9994e-09
9.99939e-09
9.99939e-09
9.99938e-09
9.99937e-09
9.99936e-09
9.99935e-09
9.99934e-09
9.99932e-09
9.99931e-09
9.99931e-09
9.9993e-09
9.9993e-09
9.99929e-09
9.99929e-09
9.99929e-09
9.99929e-09
9.99928e-09
9.99928e-09
9.99928e-09
9.99927e-09
9.99926e-09
9.99925e-09
9.99925e-09
9.99924e-09
9.99924e-09
9.99923e-09
9.99923e-09
9.99923e-09
9.99924e-09
9.99924e-09
9.99923e-09
9.99923e-09
9.99922e-09
9.99922e-09
9.99921e-09
9.9992e-09
9.9992e-09
9.9992e-09
9.9992e-09
9.99919e-09
9.99919e-09
9.99919e-09
9.99919e-09
9.99919e-09
9.99919e-09
9.99919e-09
9.99918e-09
9.99918e-09
9.99917e-09
9.99917e-09
9.99917e-09
9.99917e-09
9.99917e-09
9.99917e-09
9.99917e-09
9.99917e-09
9.99916e-09
9.99916e-09
9.99916e-09
9.99915e-09
9.99915e-09
9.99915e-09
9.99915e-09
9.99915e-09
9.99915e-09
9.99915e-09
9.99914e-09
9.99914e-09
9.99914e-09
9.99914e-09
9.99914e-09
9.99914e-09
9.99914e-09
9.99914e-09
9.99914e-09
9.99913e-09
9.99913e-09
9.99913e-09
9.99913e-09
9.99913e-09
9.99913e-09
9.99913e-09
9.99913e-09
9.99913e-09
9.99913e-09
9.99912e-09
9.99912e-09
9.99912e-09
9.99912e-09
9.99912e-09
9.99912e-09
9.99912e-09
9.99912e-09
9.99912e-09
9.99912e-09
9.99911e-09
9.99911e-09
9.99911e-09
9.99911e-09
9.99911e-09
9.99911e-09
9.99911e-09
9.99911e-09
9.99911e-09
9.99911e-09
9.99911e-09
9.99911e-09
9.99911e-09
9.99911e-09
9.99911e-09
9.99911e-09
9.9991e-09
9.9991e-09
9.9991e-09
9.9991e-09
9.9991e-09
9.9991e-09
9.9991e-09
9.9991e-09
9.9991e-09
9.9991e-09
9.9991e-09
9.9991e-09
9.9991e-09
9.9991e-09
9.9991e-09
9.9991e-09
9.9991e-09
9.9991e-09
9.9991e-09
9.9991e-09
9.9991e-09
9.9991e-09
9.9991e-09
9.9991e-09
9.9991e-09
9.9991e-09
9.9991e-09
9.9991e-09
9.9991e-09
9.9991e-09
9.9991e-09
9.9991e-09
9.9991e-09
9.9991e-09
9.9991e-09
9.9991e-09
9.9991e-09
9.9991e-09
9.99909e-09
9.99912e-09
9.99911e-09
9.99917e-09
9.99918e-09
9.9991e-09
9.99908e-09
9.99907e-09
9.99908e-09
9.99908e-09
9.99907e-09
9.99907e-09
9.99907e-09
9.99907e-09
9.99907e-09
9.99907e-09
9.99907e-09
9.99907e-09
9.99907e-09
9.99906e-09
9.99906e-09
9.99907e-09
9.99907e-09
9.99907e-09
9.99907e-09
9.99908e-09
9.99908e-09
9.99908e-09
9.99908e-09
9.99908e-09
9.99908e-09
9.99908e-09
9.99908e-09
9.99909e-09
9.9991e-09
9.9991e-09
9.9991e-09
9.99909e-09
9.99909e-09
9.99909e-09
9.99909e-09
9.9991e-09
9.9991e-09
9.9991e-09
9.99911e-09
9.99911e-09
9.99911e-09
9.99911e-09
9.99911e-09
9.99912e-09
9.99912e-09
9.99912e-09
9.99913e-09
9.99913e-09
9.99913e-09
9.99913e-09
9.99913e-09
9.99913e-09
9.99913e-09
9.99913e-09
9.99913e-09
9.99913e-09
9.99913e-09
9.99914e-09
9.99914e-09
9.99914e-09
9.99915e-09
9.99915e-09
9.99914e-09
9.99913e-09
9.99914e-09
9.99914e-09
9.99914e-09
9.99914e-09
9.99914e-09
9.99914e-09
9.99913e-09
9.99914e-09
9.99913e-09
9.99914e-09
9.99916e-09
9.99914e-09
9.99916e-09
9.99913e-09
9.99914e-09
9.99917e-09
9.99918e-09
9.99914e-09
9.99913e-09
9.99914e-09
9.99913e-09
9.99915e-09
9.9992e-09
9.99917e-09
1.00062e-08
1.0006e-08
1.00061e-08
1.00065e-08
1.0007e-08
1.00074e-08
1.00078e-08
1.00081e-08
1.00083e-08
1.00084e-08
1.00085e-08
1.00086e-08
1.00085e-08
1.00084e-08
1.00083e-08
1.00083e-08
1.00082e-08
1.00082e-08
1.00081e-08
1.0008e-08
1.00079e-08
1.00079e-08
1.00079e-08
1.00079e-08
1.00079e-08
1.0008e-08
1.0008e-08
1.00079e-08
1.00078e-08
1.00076e-08
1.00074e-08
1.00072e-08
1.0007e-08
1.0007e-08
1.0007e-08
1.00071e-08
1.00072e-08
1.00073e-08
1.00074e-08
1.00073e-08
1.00072e-08
1.0007e-08
1.00068e-08
1.00066e-08
1.00063e-08
1.00061e-08
1.00058e-08
1.00056e-08
1.00054e-08
1.00053e-08
1.00051e-08
1.0005e-08
1.00049e-08
1.00048e-08
1.00047e-08
1.00045e-08
1.00043e-08
1.00042e-08
1.0004e-08
1.00038e-08
1.00036e-08
1.00034e-08
1.00032e-08
1.00031e-08
1.0003e-08
1.0003e-08
1.00031e-08
1.00032e-08
1.00033e-08
1.00034e-08
1.00034e-08
1.00034e-08
1.00034e-08
1.00034e-08
1.00035e-08
1.00035e-08
1.00035e-08
1.00035e-08
1.00035e-08
1.00032e-08
1.00029e-08
1.00025e-08
1.00024e-08
1.00031e-08
1.00031e-08
1.00031e-08
1.00033e-08
1.00042e-08
1.00048e-08
1.0005e-08
1.00055e-08
1.0006e-08
1.00063e-08
1.00061e-08
1.0006e-08
1.00063e-08
1.00045e-08
1.00046e-08
1.00052e-08
1.00054e-08
1.00052e-08
1.00053e-08
1.00048e-08
1.00047e-08
1.00048e-08
1.00047e-08
1.00048e-08
1.00049e-08
1.00049e-08
1.0005e-08
1.00049e-08
1.00052e-08
1.00052e-08
1.00048e-08
1.00047e-08
1.00045e-08
1.00045e-08
1.00043e-08
1.00043e-08
1.00042e-08
1.00042e-08
1.00042e-08
1.00041e-08
1.00041e-08
1.00043e-08
1.00042e-08
1.00045e-08
1.00044e-08
1.00053e-08
1.00053e-08
1.00043e-08
1.00043e-08
1.00039e-08
1.00039e-08
1.00037e-08
1.00036e-08
1.00036e-08
1.00036e-08
1.00035e-08
1.00035e-08
1.00035e-08
1.00035e-08
1.00034e-08
1.00034e-08
1.00034e-08
1.00034e-08
1.00033e-08
1.00033e-08
1.00032e-08
1.00032e-08
1.00032e-08
1.00031e-08
1.00031e-08
1.00031e-08
1.0003e-08
1.0003e-08
1.00029e-08
1.00029e-08
1.00029e-08
1.00028e-08
1.00028e-08
1.00027e-08
1.00027e-08
1.00026e-08
1.00026e-08
1.00025e-08
1.00025e-08
1.00024e-08
1.00024e-08
1.00023e-08
1.00023e-08
1.00023e-08
1.00022e-08
1.00022e-08
1.00021e-08
1.00021e-08
1.00021e-08
1.0002e-08
1.0002e-08
1.00019e-08
1.00019e-08
1.00018e-08
1.00018e-08
1.00017e-08
1.00017e-08
1.00017e-08
1.00016e-08
1.00016e-08
1.00015e-08
1.00015e-08
1.00014e-08
1.00014e-08
1.00013e-08
1.00013e-08
1.00012e-08
1.00012e-08
1.00011e-08
1.00011e-08
1.0001e-08
1.0001e-08
1.00009e-08
1.00009e-08
1.00008e-08
1.00008e-08
1.00007e-08
1.00007e-08
1.00007e-08
1.00006e-08
1.00006e-08
1.00006e-08
1.00005e-08
1.00005e-08
1.00005e-08
1.00004e-08
1.00004e-08
1.00004e-08
1.00004e-08
1.00003e-08
1.00003e-08
1.00003e-08
1.00002e-08
1.00002e-08
1.00002e-08
1.00002e-08
1.00002e-08
1.00002e-08
1.00002e-08
1.00001e-08
1.00001e-08
1.00001e-08
1.00001e-08
1.00001e-08
1.00001e-08
1.00001e-08
1.00001e-08
1.00001e-08
1.00001e-08
1.00001e-08
1.00001e-08
1.00001e-08
1.00001e-08
1e-08
1e-08
1e-08
1e-08
1e-08
1e-08
9.99999e-09
9.99999e-09
9.99999e-09
9.99998e-09
9.99997e-09
9.99997e-09
9.99996e-09
9.99995e-09
9.99994e-09
9.99993e-09
9.99992e-09
9.99992e-09
9.99991e-09
9.9999e-09
9.99989e-09
9.99987e-09
9.99986e-09
9.99985e-09