/*--------------------------------*- C++ -*----------------------------------*\
| =========                 |                                                 |
| \\      /  F ield         | OpenFOAM: The Open Source CFD Toolbox           |
|  \\    /   O peration     | Version:  v2006                                 |
|   \\  /    A nd           | Website:  www.openfoam.com                      |
|    \\/     M anipulation  |                                                 |
\*---------------------------------------------------------------------------*/
FoamFile
{
    version     2.0;
    format      ascii;
    class       volScalarField;
    location    "1";
    object      nut;
}
// * * * * * * * * * * * * * * * * * * * * * * * * * * * * * * * * * * * * * //

dimensions      [0 2 -1 0 0 0 0];


internalField   nonuniform List<scalar> 
33000
(
4.83894e-09
3.71954e-09
4.12502e-09
4.05769e-09
4.02526e-09
3.9696e-09
3.92209e-09
3.88036e-09
3.84106e-09
3.80413e-09
3.76973e-09
3.73597e-09
3.70621e-09
3.67621e-09
3.64528e-09
3.61794e-09
3.59082e-09
3.56425e-09
3.53983e-09
3.51675e-09
3.49472e-09
3.47466e-09
3.456e-09
3.43895e-09
3.42357e-09
3.40932e-09
3.39674e-09
3.38588e-09
3.37596e-09
3.36671e-09
3.35754e-09
3.34748e-09
3.33856e-09
3.33376e-09
3.33239e-09
3.33233e-09
3.33313e-09
3.33491e-09
3.33856e-09
3.34435e-09
3.35102e-09
3.35664e-09
3.36182e-09
3.37081e-09
3.38053e-09
3.38791e-09
3.39652e-09
3.40847e-09
3.42297e-09
3.43793e-09
3.45227e-09
3.46797e-09
3.48747e-09
3.51081e-09
3.53737e-09
3.56549e-09
3.5955e-09
3.62834e-09
3.66311e-09
3.69746e-09
3.732e-09
3.76952e-09
3.80961e-09
3.852e-09
3.89741e-09
3.94632e-09
3.99851e-09
4.05525e-09
4.11812e-09
4.18693e-09
4.26167e-09
4.34196e-09
4.42519e-09
4.5069e-09
4.57506e-09
4.60953e-09
4.63771e-09
4.58804e-09
5.7329e-09
6.94146e-09
7.01965e-09
8.78301e-09
8.44939e-09
9.96443e-09
1.00577e-08
1.0212e-08
1.04704e-08
1.05461e-08
1.04439e-08
1.04382e-08
1.06407e-08
1.07399e-08
1.08527e-08
1.10002e-08
1.11231e-08
1.12638e-08
1.14173e-08
1.15802e-08
1.17288e-08
1.21517e-08
1.23873e-08
1.2528e-08
1.28352e-08
1.30008e-08
1.32946e-08
1.35172e-08
1.35912e-08
1.35407e-08
1.3491e-08
1.34423e-08
1.33945e-08
1.33488e-08
1.33038e-08
1.32601e-08
1.3215e-08
1.31704e-08
1.31334e-08
1.30694e-08
1.30362e-08
1.29976e-08
1.29613e-08
1.29267e-08
1.28918e-08
1.28588e-08
1.28271e-08
1.27957e-08
1.27646e-08
1.27341e-08
1.2704e-08
1.26745e-08
1.26468e-08
1.26202e-08
1.25943e-08
1.25687e-08
1.25436e-08
1.25189e-08
1.24946e-08
1.24708e-08
1.24479e-08
1.24264e-08
1.2406e-08
1.23861e-08
1.23666e-08
1.23475e-08
1.23287e-08
1.23104e-08
1.22929e-08
1.22769e-08
1.22615e-08
1.22464e-08
1.22317e-08
1.22172e-08
1.2203e-08
1.21898e-08
1.21777e-08
1.21661e-08
1.21546e-08
1.21434e-08
1.21323e-08
1.21216e-08
1.21119e-08
1.2103e-08
1.20944e-08
1.20859e-08
1.20775e-08
1.20691e-08
1.20609e-08
1.20528e-08
1.20449e-08
1.20376e-08
1.20313e-08
1.20252e-08
1.20193e-08
1.20134e-08
1.20075e-08
1.20019e-08
1.19972e-08
1.1993e-08
1.19889e-08
1.19848e-08
1.19807e-08
1.19765e-08
1.19724e-08
1.19684e-08
1.19651e-08
1.19624e-08
1.19599e-08
1.19573e-08
1.19546e-08
1.1952e-08
1.19495e-08
1.19477e-08
1.19464e-08
1.1945e-08
1.19436e-08
1.1942e-08
1.19404e-08
1.19386e-08
1.19367e-08
1.19348e-08
1.19327e-08
1.19306e-08
1.19283e-08
1.1926e-08
1.19236e-08
1.19212e-08
1.19187e-08
1.19161e-08
1.19135e-08
1.19109e-08
1.19082e-08
1.19055e-08
1.19027e-08
1.18999e-08
1.18971e-08
1.18942e-08
1.18912e-08
1.18882e-08
1.18852e-08
1.18822e-08
1.18791e-08
1.1876e-08
1.18729e-08
1.18698e-08
1.18666e-08
1.18634e-08
1.18602e-08
1.1857e-08
1.18538e-08
1.18506e-08
1.18474e-08
1.18442e-08
1.18411e-08
1.18379e-08
1.18348e-08
1.18316e-08
1.18285e-08
1.18253e-08
1.18222e-08
1.18191e-08
1.18161e-08
1.1813e-08
1.181e-08
1.1807e-08
1.1804e-08
1.1801e-08
1.17981e-08
1.17951e-08
1.17922e-08
1.17893e-08
1.17864e-08
1.17835e-08
1.17806e-08
1.17778e-08
1.17751e-08
1.17723e-08
1.17696e-08
1.17669e-08
1.17643e-08
1.17617e-08
1.17592e-08
1.17566e-08
1.17541e-08
1.17516e-08
1.17491e-08
1.17467e-08
1.17443e-08
1.17419e-08
1.17395e-08
1.17371e-08
1.17349e-08
1.17326e-08
1.17304e-08
1.17283e-08
1.17262e-08
1.17241e-08
1.1722e-08
1.17199e-08
1.17179e-08
1.17159e-08
1.17138e-08
1.17118e-08
1.17098e-08
1.17079e-08
1.17059e-08
1.17041e-08
1.17023e-08
1.17005e-08
1.16987e-08
1.16971e-08
1.16955e-08
1.16939e-08
1.16923e-08
1.16908e-08
1.16893e-08
1.16879e-08
1.16864e-08
1.16849e-08
1.16835e-08
1.16821e-08
1.16807e-08
1.16793e-08
1.16779e-08
1.16766e-08
1.16753e-08
1.1674e-08
1.16728e-08
1.16717e-08
1.16706e-08
1.16695e-08
1.16684e-08
1.16674e-08
1.16664e-08
1.16654e-08
1.16644e-08
1.16634e-08
1.16624e-08
1.16614e-08
1.16605e-08
1.16596e-08
1.16587e-08
1.16579e-08
1.16571e-08
1.16563e-08
1.16556e-08
1.16549e-08
1.16542e-08
1.16535e-08
1.16528e-08
1.16521e-08
1.16514e-08
1.16507e-08
1.165e-08
1.16493e-08
1.16487e-08
1.16481e-08
1.16476e-08
1.16471e-08
1.16466e-08
1.16462e-08
1.16457e-08
1.16452e-08
1.16447e-08
1.16442e-08
1.16437e-08
1.16431e-08
1.16426e-08
1.16421e-08
1.16417e-08
1.16412e-08
1.16408e-08
1.16404e-08
1.164e-08
1.16396e-08
1.16391e-08
1.16387e-08
1.16382e-08
1.16377e-08
1.16373e-08
1.16368e-08
1.16364e-08
1.1636e-08
1.16357e-08
1.16353e-08
1.1635e-08
1.16346e-08
1.16342e-08
1.16338e-08
1.16334e-08
1.1633e-08
1.16326e-08
1.16323e-08
1.1632e-08
1.16317e-08
1.16314e-08
1.16311e-08
1.16308e-08
1.16305e-08
1.16302e-08
1.16299e-08
1.16296e-08
1.16294e-08
1.16291e-08
1.16289e-08
1.16287e-08
1.16285e-08
1.16282e-08
1.1628e-08
1.16277e-08
1.16275e-08
1.16272e-08
1.1627e-08
1.16268e-08
1.16266e-08
1.16264e-08
1.16261e-08
1.16258e-08
1.16256e-08
1.16253e-08
1.1625e-08
1.16248e-08
1.16246e-08
1.16243e-08
1.16241e-08
1.16239e-08
1.16237e-08
1.16235e-08
1.16232e-08
1.16231e-08
1.16229e-08
1.16227e-08
1.16225e-08
1.16223e-08
1.16221e-08
1.16219e-08
1.16218e-08
1.16217e-08
1.16215e-08
1.16214e-08
1.16213e-08
1.16211e-08
1.1621e-08
1.16208e-08
1.16207e-08
1.16205e-08
1.16203e-08
1.16202e-08
1.16201e-08
1.162e-08
1.16198e-08
1.16198e-08
1.16196e-08
1.16196e-08
1.16196e-08
1.16196e-08
1.16195e-08
1.16194e-08
1.16194e-08
1.16193e-08
1.16193e-08
1.16193e-08
1.16192e-08
1.16191e-08
1.1619e-08
1.1619e-08
1.1619e-08
1.16189e-08
1.16189e-08
1.16189e-08
1.1619e-08
1.16191e-08
1.16191e-08
1.16192e-08
1.16191e-08
1.16191e-08
1.16191e-08
1.16191e-08
1.16192e-08
1.16191e-08
1.16193e-08
1.16193e-08
1.16193e-08
1.16192e-08
1.16192e-08
1.16192e-08
1.1619e-08
1.16191e-08
1.16192e-08
1.1619e-08
1.16206e-08
1.162e-08
1.162e-08
1.16199e-08
1.16198e-08
1.16196e-08
1.16194e-08
1.16191e-08
1.16188e-08
1.16185e-08
1.16183e-08
1.16181e-08
1.16181e-08
1.16181e-08
1.16182e-08
1.16183e-08
1.16184e-08
1.16186e-08
1.16188e-08
1.16189e-08
1.16191e-08
1.16192e-08
1.16194e-08
1.16195e-08
1.16198e-08
1.162e-08
1.16203e-08
1.16206e-08
1.16208e-08
1.16211e-08
1.16212e-08
1.16214e-08
1.16214e-08
1.16213e-08
1.16211e-08
1.16208e-08
1.16204e-08
1.162e-08
1.16196e-08
1.16191e-08
1.16188e-08
1.16185e-08
1.16183e-08
1.16183e-08
1.16183e-08
1.16182e-08
1.16182e-08
1.16181e-08
1.16181e-08
1.16181e-08
1.16182e-08
1.16185e-08
1.16187e-08
1.1619e-08
1.16192e-08
1.16193e-08
1.16192e-08
1.16192e-08
1.16194e-08
1.16197e-08
1.16199e-08
1.16198e-08
1.16194e-08
1.1619e-08
1.16187e-08
1.16187e-08
1.16186e-08
1.16184e-08
1.1618e-08
1.16178e-08
1.16181e-08
1.16181e-08
1.1618e-08
1.16183e-08
1.1619e-08
1.16192e-08
1.16191e-08
1.16189e-08
1.16187e-08
1.16183e-08
1.16266e-08
2.47449e-08
1.16479e-08
2.38269e-08
5.74724e-08
7.18978e-08
7.09843e-08
7.40053e-08
7.59941e-08
7.79965e-08
7.97837e-08
8.16419e-08
8.32826e-08
8.60781e-08
8.86262e-08
9.01679e-08
9.38938e-08
9.8749e-08
1.04659e-07
1.12117e-07
1.20735e-07
1.30365e-07
1.42269e-07
1.55374e-07
1.71085e-07
1.91683e-07
2.14694e-07
2.46458e-07
2.87402e-07
3.19514e-07
3.54598e-07
4.08741e-07
3.89142e-07
2.98964e-07
2.49462e-07
2.33421e-07
2.15983e-07
1.99778e-07
1.80786e-07
1.49797e-07
1.29951e-07
1.21995e-07
1.14569e-07
1.05596e-07
9.84372e-08
9.33301e-08
8.89727e-08
8.5073e-08
8.15523e-08
7.82324e-08
7.4842e-08
7.13089e-08
6.77719e-08
6.46055e-08
6.17307e-08
5.93015e-08
5.7338e-08
5.56656e-08
5.43295e-08
5.33523e-08
5.2459e-08
5.15652e-08
5.06506e-08
4.96046e-08
4.83987e-08
4.69537e-08
4.53473e-08
4.36788e-08
4.19234e-08
4.01149e-08
3.82558e-08
3.62648e-08
3.40716e-08
3.15966e-08
2.88266e-08
2.56949e-08
2.14722e-08
1.65503e-08
1.76715e-08
1.42162e-08
1.30038e-08
6.42345e-09
6.79298e-09
1.37624e-08
1.51271e-08
4.78332e-08
4.179e-08
1.50045e-07
3.56063e-07
1.8324e-07
1.85664e-07
1.59138e-07
2.06061e-07
1.81618e-07
1.9472e-07
1.97933e-07
1.7856e-07
1.74983e-07
1.76954e-07
1.8645e-07
1.66583e-07
1.60701e-07
1.15616e-07
1.17128e-07
1.61289e-07
1.59371e-07
1.80937e-07
1.80445e-07
1.83649e-07
1.93012e-07
1.96053e-07
1.92934e-07
1.93657e-07
1.96077e-07
1.9771e-07
1.99174e-07
2.0658e-07
2.14037e-07
2.08373e-07
2.08846e-07
1.68671e-07
1.72484e-07
2.17955e-07
2.17987e-07
2.35861e-07
2.3967e-07
2.38757e-07
2.4287e-07
2.47042e-07
2.49268e-07
2.53395e-07
2.56426e-07
2.58902e-07
2.62692e-07
2.67132e-07
2.71321e-07
2.75989e-07
2.80828e-07
2.85994e-07
2.91185e-07
2.96683e-07
3.02447e-07
3.08468e-07
3.1484e-07
3.21403e-07
3.28056e-07
3.34952e-07
3.42247e-07
3.49732e-07
3.57355e-07
3.65372e-07
3.73757e-07
3.82247e-07
3.90975e-07
4.00171e-07
4.09692e-07
4.19345e-07
4.29307e-07
4.39832e-07
4.50858e-07
4.62261e-07
4.74133e-07
4.86581e-07
4.99532e-07
5.12772e-07
5.26222e-07
5.40175e-07
5.54792e-07
5.70032e-07
5.86052e-07
6.03023e-07
6.207e-07
6.38868e-07
6.57755e-07
6.77464e-07
6.97778e-07
7.18673e-07
7.40607e-07
7.63842e-07
7.88044e-07
8.13054e-07
8.39435e-07
8.67509e-07
8.96861e-07
9.27327e-07
9.59645e-07
9.94387e-07
1.03117e-06
1.06971e-06
1.11088e-06
1.15582e-06
1.2043e-06
1.25523e-06
1.30834e-06
1.36441e-06
1.42379e-06
1.4861e-06
1.55239e-06
1.62498e-06
1.70449e-06
1.78967e-06
1.88026e-06
1.97747e-06
2.00613e-06
2.00637e-06
2.00654e-06
2.0067e-06
2.00695e-06
2.00725e-06
2.0076e-06
2.00804e-06
2.0085e-06
2.00875e-06
2.00883e-06
2.00878e-06
2.00881e-06
2.00877e-06
2.00866e-06
2.00868e-06
2.00881e-06
2.00886e-06
2.00879e-06
2.00878e-06
2.00889e-06
2.00896e-06
2.00888e-06
2.00865e-06
2.00862e-06
2.00873e-06
2.00885e-06
2.00896e-06
2.00913e-06
2.00919e-06
2.00924e-06
2.0093e-06
2.00939e-06
2.00944e-06
2.00942e-06
2.00943e-06
2.0096e-06
2.0099e-06
2.01024e-06
2.01054e-06
2.01077e-06
2.01093e-06
2.01103e-06
2.01115e-06
2.01139e-06
2.01169e-06
2.01193e-06
2.01204e-06
2.01219e-06
2.01257e-06
2.01317e-06
2.01374e-06
2.01409e-06
2.01438e-06
2.01489e-06
2.01566e-06
2.01646e-06
2.01703e-06
2.01737e-06
2.01762e-06
2.01787e-06
2.01811e-06
2.01837e-06
2.01872e-06
2.01912e-06
2.01954e-06
2.02001e-06
2.0206e-06
2.02131e-06
2.02197e-06
2.0225e-06
2.02294e-06
2.02334e-06
2.02369e-06
2.02399e-06
2.02426e-06
2.0245e-06
2.02468e-06
2.02483e-06
2.02505e-06
2.02544e-06
2.026e-06
2.02666e-06
2.02733e-06
2.02802e-06
2.02876e-06
2.02954e-06
2.03031e-06
2.03102e-06
2.03163e-06
2.03217e-06
2.03257e-06
2.03283e-06
2.03298e-06
2.03311e-06
2.03329e-06
2.03352e-06
2.03379e-06
2.03407e-06
2.03437e-06
2.03476e-06
2.03526e-06
2.03587e-06
2.03656e-06
2.03725e-06
2.03789e-06
2.03846e-06
2.03893e-06
2.0393e-06
2.03957e-06
2.03977e-06
2.03991e-06
2.04006e-06
2.04024e-06
2.04049e-06
2.04083e-06
2.04125e-06
2.04171e-06
2.0422e-06
2.04269e-06
2.0432e-06
2.04371e-06
2.04417e-06
2.04445e-06
2.04449e-06
2.04436e-06
2.04424e-06
2.04427e-06
2.04443e-06
2.04465e-06
2.04493e-06
2.04537e-06
2.04603e-06
2.04676e-06
2.0473e-06
2.04754e-06
2.04764e-06
2.04772e-06
2.04773e-06
2.04757e-06
2.04731e-06
2.04712e-06
2.04713e-06
2.04726e-06
2.04745e-06
2.04772e-06
2.04808e-06
2.04841e-06
2.04863e-06
2.04871e-06
2.04868e-06
2.04852e-06
2.04827e-06
2.04806e-06
2.04802e-06
2.04814e-06
2.04835e-06
2.04862e-06
2.04896e-06
2.04929e-06
2.04947e-06
2.04944e-06
2.04925e-06
2.04903e-06
2.04885e-06
2.04875e-06
2.04877e-06
2.04896e-06
2.04928e-06
2.04966e-06
2.04996e-06
2.05013e-06
2.05019e-06
2.05024e-06
2.05028e-06
2.0503e-06
2.05036e-06
2.05056e-06
2.05094e-06
2.05137e-06
2.05169e-06
2.0518e-06
2.0517e-06
2.05147e-06
2.05125e-06
2.05117e-06
2.05126e-06
2.05149e-06
2.05177e-06
2.05198e-06
2.05201e-06
2.05185e-06
2.05156e-06
2.05124e-06
2.05099e-06
2.05095e-06
2.05118e-06
2.05159e-06
2.05194e-06
2.05208e-06
2.05206e-06
2.05203e-06
2.05199e-06
2.05198e-06
2.05214e-06
2.05242e-06
2.0526e-06
2.05259e-06
2.05245e-06
2.05233e-06
2.05237e-06
2.05258e-06
2.05279e-06
2.05293e-06
2.05305e-06
2.05304e-06
2.05301e-06
2.05307e-06
2.05321e-06
2.05301e-06
2.05269e-06
2.05253e-06
2.05243e-06
2.05276e-06
2.05307e-06
2.05324e-06
2.05345e-06
2.05353e-06
2.05382e-06
2.0541e-06
2.05469e-06
2.05478e-06
2.05474e-06
2.05436e-06
2.0541e-06
2.05435e-06
2.05427e-06
2.05488e-06
2.05453e-06
2.05348e-06
2.05358e-06
2.0537e-06
2.05439e-06
2.05406e-06
2.05417e-06
2.05488e-06
2.05502e-06
2.05508e-06
2.05495e-06
2.05506e-06
2.05485e-06
2.05467e-06
2.05397e-06
2.05463e-06
2.05509e-06
2.05443e-06
2.0551e-06
2.05516e-06
2.05492e-06
2.05477e-06
2.05371e-06
2.05506e-06
2.05328e-06
2.05474e-06
2.05516e-06
2.05489e-06
2.05477e-06
2.05445e-06
2.05367e-06
2.05469e-06
2.05298e-06
2.05247e-06
2.05238e-06
2.05159e-06
2.05053e-06
2.04989e-06
2.04956e-06
2.04933e-06
2.04959e-06
2.05051e-06
2.05153e-06
2.05195e-06
2.05177e-06
2.05166e-06
2.05204e-06
2.05279e-06
2.05346e-06
2.05381e-06
2.05374e-06
2.05327e-06
2.05257e-06
2.05189e-06
2.05134e-06
2.05103e-06
2.05098e-06
2.0512e-06
2.05177e-06
2.05275e-06
2.0542e-06
2.05521e-06
2.05523e-06
2.05525e-06
2.05526e-06
2.05526e-06
2.05527e-06
2.05527e-06
2.05527e-06
2.05526e-06
2.05526e-06
2.05524e-06
2.05521e-06
2.05515e-06
2.05501e-06
2.0548e-06
2.05485e-06
2.05503e-06
2.05513e-06
2.05517e-06
2.05521e-06
2.05523e-06
2.05521e-06
2.05516e-06
2.05505e-06
2.05453e-06
2.05508e-06
2.05517e-06
2.05519e-06
2.0551e-06
2.05147e-06
2.04778e-06
2.04933e-06
2.05452e-06
2.05503e-06
2.05159e-06
2.0474e-06
2.04973e-06
2.05509e-06
2.05516e-06
2.05503e-06
2.05481e-06
2.05521e-06
2.05525e-06
2.05508e-06
2.05142e-06
2.05335e-06
2.04822e-06
2.04834e-06
2.057e-06
1.6724e-08
1.14892e-08
2.42197e-08
5.11589e-08
6.48619e-08
6.77685e-08
7.20141e-08
7.35121e-08
7.52777e-08
7.63184e-08
7.74159e-08
7.89298e-08
8.12908e-08
8.64621e-08
8.87373e-08
9.22254e-08
9.74025e-08
1.02507e-07
1.08785e-07
1.16374e-07
1.24958e-07
1.3601e-07
1.47663e-07
1.58943e-07
1.72664e-07
1.85983e-07
2.03992e-07
2.297e-07
2.42295e-07
2.57271e-07
3.04162e-07
2.90686e-07
2.29527e-07
2.2631e-07
2.28671e-07
2.01186e-07
1.79041e-07
1.57286e-07
1.38649e-07
1.25973e-07
1.14911e-07
1.05342e-07
9.93762e-08
9.50262e-08
8.86288e-08
8.38552e-08
8.19056e-08
8.09899e-08
7.82456e-08
7.42709e-08
7.10364e-08
6.8798e-08
6.60877e-08
6.34911e-08
6.07265e-08
5.82508e-08
5.64319e-08
5.51356e-08
5.38505e-08
5.26628e-08
5.18014e-08
5.09709e-08
4.99226e-08
4.87209e-08
4.73836e-08
4.59658e-08
4.45418e-08
4.31542e-08
4.17865e-08
4.04355e-08
3.91426e-08
3.79223e-08
3.67403e-08
3.57648e-08
3.53114e-08
3.61239e-08
4.04079e-08
4.95167e-08
4.37875e-08
2.21604e-08
1.93673e-08
1.34092e-08
1.27601e-08
6.23954e-09
6.53132e-09
1.1791e-08
1.41927e-08
1.81744e-08
5.68816e-08
4.99757e-08
1.37061e-06
2.82357e-07
1.72912e-07
1.51374e-07
1.86387e-07
1.69254e-07
1.88704e-07
2.02572e-07
1.98039e-07
1.92884e-07
1.82017e-07
1.75082e-07
1.55591e-07
1.5531e-07
1.17831e-07
1.19808e-07
1.58749e-07
1.57939e-07
1.72807e-07
1.90329e-07
1.9244e-07
1.98271e-07
2.01892e-07
2.00273e-07
2.02616e-07
2.09586e-07
2.15338e-07
2.15881e-07
2.17372e-07
2.16426e-07
2.09627e-07
2.12019e-07
1.78534e-07
1.83105e-07
2.25427e-07
2.27272e-07
2.46511e-07
2.50708e-07
2.48598e-07
2.52838e-07
2.58701e-07
2.61529e-07
2.66268e-07
2.69598e-07
2.72912e-07
2.7661e-07
2.81318e-07
2.86953e-07
2.92199e-07
2.9792e-07
3.03913e-07
3.09874e-07
3.16123e-07
3.22707e-07
3.29516e-07
3.366e-07
3.43982e-07
3.51615e-07
3.59532e-07
3.67782e-07
3.76286e-07
3.84868e-07
3.93528e-07
4.02532e-07
4.11981e-07
4.21699e-07
4.31648e-07
4.4211e-07
4.53216e-07
4.6477e-07
4.76609e-07
4.88832e-07
5.01537e-07
5.14659e-07
5.28101e-07
5.42023e-07
5.56779e-07
5.72326e-07
5.88528e-07
6.05462e-07
6.2314e-07
6.41367e-07
6.60054e-07
6.79417e-07
6.99573e-07
7.20504e-07
7.42495e-07
7.65936e-07
7.90564e-07
8.15805e-07
8.41968e-07
8.69735e-07
8.98945e-07
9.2914e-07
9.61003e-07
9.95668e-07
1.03312e-06
1.07275e-06
1.11497e-06
1.16086e-06
1.2102e-06
1.26145e-06
1.31409e-06
1.36939e-06
1.42819e-06
1.4902e-06
1.55641e-06
1.6294e-06
1.70966e-06
1.79505e-06
1.8847e-06
1.98016e-06
2.08186e-06
2.18927e-06
2.30485e-06
2.43317e-06
2.57702e-06
2.73845e-06
2.92207e-06
3.13046e-06
3.35811e-06
3.59908e-06
3.85873e-06
4.14599e-06
4.46348e-06
4.81781e-06
5.23243e-06
5.73424e-06
6.33398e-06
7.03866e-06
7.88113e-06
8.90314e-06
9.79379e-06
9.79349e-06
9.79325e-06
9.79307e-06
9.79299e-06
9.79296e-06
9.79293e-06
9.7929e-06
9.79294e-06
9.79317e-06
9.79323e-06
9.79305e-06
9.79262e-06
9.79204e-06
9.79144e-06
9.79104e-06
9.79081e-06
9.79096e-06
9.7913e-06
9.7916e-06
9.79178e-06
9.7919e-06
9.79196e-06
9.6988e-06
9.335e-06
9.09085e-06
8.9327e-06
8.79442e-06
8.62675e-06
8.43759e-06
8.26738e-06
8.12655e-06
7.97511e-06
7.77558e-06
7.55185e-06
7.36828e-06
7.26408e-06
7.22503e-06
7.21586e-06
7.22299e-06
7.25264e-06
7.30028e-06
7.34716e-06
7.38254e-06
7.40508e-06
7.40625e-06
7.37684e-06
7.3255e-06
7.2727e-06
7.23089e-06
7.20176e-06
7.18698e-06
7.18863e-06
7.20613e-06
7.24133e-06
7.30185e-06
7.3919e-06
7.50131e-06
7.60943e-06
7.70069e-06
7.77365e-06
7.83464e-06
7.88684e-06
7.9312e-06
7.97191e-06
8.01516e-06
8.06425e-06
8.12071e-06
8.19072e-06
8.28396e-06
8.4077e-06
8.56298e-06
8.73772e-06
8.91361e-06
9.07991e-06
9.23933e-06
9.40133e-06
9.57066e-06
9.7422e-06
9.76866e-06
9.76876e-06
9.76887e-06
9.76901e-06
9.76916e-06
9.76931e-06
9.76944e-06
9.76957e-06
9.76967e-06
9.76975e-06
9.76982e-06
9.76988e-06
9.76992e-06
9.76997e-06
9.77002e-06
9.77009e-06
9.77018e-06
9.77028e-06
9.77039e-06
9.77051e-06
9.77062e-06
9.77072e-06
9.77082e-06
9.77091e-06
9.77097e-06
9.771e-06
9.77099e-06
9.77098e-06
9.77099e-06
9.77104e-06
9.77111e-06
9.77118e-06
9.77127e-06
9.7714e-06
9.77155e-06
9.77166e-06
9.77172e-06
9.77174e-06
9.77175e-06
9.77176e-06
9.77175e-06
9.77171e-06
9.77169e-06
9.7717e-06
9.77173e-06
9.77177e-06
9.77183e-06
9.77189e-06
9.77196e-06
9.77199e-06
9.77201e-06
9.77201e-06
9.77198e-06
9.77194e-06
9.77191e-06
9.77192e-06
9.77196e-06
9.77201e-06
9.77206e-06
9.77212e-06
9.77218e-06
9.77221e-06
9.7722e-06
9.77217e-06
9.77213e-06
9.7721e-06
9.7721e-06
9.77211e-06
9.77215e-06
9.77222e-06
9.77229e-06
9.77235e-06
9.77238e-06
9.7724e-06
9.77241e-06
9.77243e-06
9.77245e-06
9.77248e-06
9.77252e-06
9.7726e-06
9.77268e-06
9.77273e-06
9.77274e-06
9.77272e-06
9.77269e-06
9.77266e-06
9.77266e-06
9.7727e-06
9.77275e-06
9.7728e-06
9.77282e-06
9.77282e-06
9.77278e-06
9.77272e-06
9.77267e-06
9.77264e-06
9.77265e-06
9.77269e-06
9.77276e-06
9.77282e-06
9.77284e-06
9.77284e-06
9.77284e-06
9.77286e-06
9.77287e-06
9.7729e-06
9.77293e-06
9.77296e-06
9.77296e-06
9.77294e-06
9.77294e-06
9.77296e-06
9.77301e-06
9.77305e-06
9.77307e-06
9.77308e-06
9.77308e-06
9.77308e-06
9.77309e-06
9.77312e-06
9.77309e-06
9.77304e-06
9.773e-06
9.77298e-06
9.77306e-06
9.77315e-06
9.7732e-06
9.77321e-06
9.77319e-06
9.77325e-06
9.77332e-06
9.77345e-06
9.77346e-06
9.77347e-06
9.77339e-06
9.77335e-06
9.77339e-06
9.77338e-06
9.77349e-06
9.77342e-06
9.77321e-06
9.77325e-06
9.77327e-06
9.77344e-06
9.77338e-06
9.77339e-06
9.77352e-06
9.77354e-06
9.77356e-06
9.77348e-06
9.77356e-06
9.77353e-06
9.77346e-06
9.77343e-06
9.77352e-06
9.77357e-06
9.7735e-06
9.77356e-06
9.77355e-06
9.77356e-06
9.77346e-06
9.77322e-06
9.77361e-06
9.77346e-06
9.77356e-06
9.77353e-06
9.77348e-06
9.77346e-06
9.77328e-06
9.77325e-06
9.7734e-06
9.77299e-06
9.77287e-06
9.77279e-06
9.77256e-06
9.77243e-06
9.77242e-06
9.77238e-06
9.77231e-06
9.77235e-06
9.77251e-06
9.77267e-06
9.77271e-06
9.77268e-06
9.77272e-06
9.77285e-06
9.77305e-06
9.7732e-06
9.77326e-06
9.77323e-06
9.7731e-06
9.77294e-06
9.7728e-06
9.7727e-06
9.77268e-06
9.77272e-06
9.77281e-06
9.77297e-06
9.7732e-06
9.77349e-06
9.77361e-06
9.77362e-06
9.77362e-06
9.77362e-06
9.77362e-06
9.77362e-06
9.77363e-06
9.77363e-06
9.77363e-06
9.77362e-06
9.77362e-06
9.77361e-06
9.77359e-06
9.77356e-06
9.77353e-06
9.77354e-06
9.77356e-06
9.77358e-06
9.7736e-06
9.7736e-06
9.77361e-06
9.77361e-06
9.7736e-06
9.77357e-06
9.77352e-06
9.77357e-06
9.77359e-06
9.7736e-06
9.77355e-06
9.77262e-06
9.77221e-06
9.77279e-06
9.77351e-06
9.77342e-06
9.77249e-06
9.77207e-06
9.77297e-06
9.77357e-06
9.7736e-06
9.77337e-06
9.77356e-06
9.77361e-06
9.77362e-06
9.77342e-06
9.7729e-06
9.77305e-06
9.77234e-06
9.77281e-06
9.77402e-06
1.34753e-08
1.15808e-08
2.38895e-08
5.32644e-08
6.59477e-08
6.55435e-08
6.79203e-08
6.88193e-08
6.989e-08
7.07112e-08
7.20384e-08
7.37454e-08
7.5908e-08
7.9539e-08
8.28435e-08
8.69854e-08
9.18543e-08
9.72467e-08
1.03281e-07
1.09866e-07
1.17105e-07
1.26399e-07
1.3598e-07
1.442e-07
1.52334e-07
1.593e-07
1.69293e-07
1.81919e-07
1.84473e-07
1.88852e-07
1.99306e-07
1.82242e-07
1.66432e-07
1.80503e-07
1.915e-07
1.74841e-07
1.54587e-07
1.38036e-07
1.32774e-07
1.27878e-07
1.16377e-07
1.06004e-07
9.90993e-08
9.3523e-08
8.74262e-08
8.25663e-08
7.94463e-08
7.70314e-08
7.44246e-08
7.19217e-08
6.98959e-08
6.76789e-08
6.49677e-08
6.31603e-08
6.10768e-08
5.89752e-08
5.71942e-08
5.57479e-08
5.43001e-08
5.28471e-08
5.16261e-08
5.05491e-08
4.9633e-08
4.87267e-08
4.76455e-08
4.65458e-08
4.54929e-08
4.4564e-08
4.37356e-08
4.29602e-08
4.23316e-08
4.20145e-08
4.19985e-08
4.23368e-08
4.327e-08
4.54499e-08
5.02554e-08
6.06052e-08
7.61801e-08
9.9013e-08
8.77689e-08
6.15747e-08
2.60316e-08
2.21111e-08
1.54912e-08
1.32622e-08
1.04432e-08
6.44599e-09
6.79182e-09
1.36458e-08
1.52363e-08
5.36357e-08
4.90489e-08
4.29416e-07
3.6218e-07
1.53347e-07
1.44695e-07
1.87554e-07
1.7198e-07
1.87024e-07
1.97119e-07
1.88803e-07
1.81933e-07
1.75949e-07
1.73209e-07
1.60859e-07
1.51543e-07
1.54122e-07
1.25336e-07
1.28784e-07
1.67933e-07
1.69963e-07
1.94683e-07
1.99048e-07
2.04979e-07
2.10703e-07
2.10651e-07
2.12554e-07
2.173e-07
2.18958e-07
2.19134e-07
2.23497e-07
2.23976e-07
2.17562e-07
2.20741e-07
1.92027e-07
1.97202e-07
2.36253e-07
2.3881e-07
2.58782e-07
2.62617e-07
2.58713e-07
2.62842e-07
2.69635e-07
2.72755e-07
2.78316e-07
2.83591e-07
2.88195e-07
2.92173e-07
2.975e-07
3.04132e-07
3.10136e-07
3.16532e-07
3.23186e-07
3.29937e-07
3.37187e-07
3.44812e-07
3.52562e-07
3.60507e-07
3.6869e-07
3.77148e-07
3.85784e-07
3.94461e-07
4.03401e-07
4.12875e-07
4.22747e-07
4.32848e-07
4.43372e-07
4.54402e-07
4.65694e-07
4.77145e-07
4.89032e-07
5.01556e-07
5.14682e-07
5.28307e-07
5.42417e-07
5.57346e-07
5.72879e-07
5.88624e-07
6.04929e-07
6.22298e-07
6.40439e-07
6.58889e-07
6.78128e-07
6.98729e-07
7.20275e-07
7.42418e-07
7.65746e-07
7.90547e-07
8.16125e-07
8.42338e-07
8.70073e-07
8.99604e-07
9.30384e-07
9.62787e-07
9.97908e-07
1.03565e-06
1.075e-06
1.11614e-06
1.16024e-06
1.20749e-06
1.25689e-06
1.30845e-06
1.36406e-06
1.42451e-06
1.48776e-06
1.55291e-06
1.62286e-06
1.69964e-06
1.78152e-06
1.86775e-06
1.96111e-06
2.06296e-06
2.17166e-06
2.28869e-06
2.41924e-06
2.56449e-06
2.72246e-06
2.89711e-06
3.09583e-06
3.31595e-06
3.54827e-06
3.79665e-06
4.07813e-06
4.39852e-06
4.75221e-06
5.15084e-06
5.62248e-06
6.17547e-06
6.79451e-06
7.48987e-06
8.31243e-06
9.286e-06
9.99897e-06
9.99896e-06
9.99896e-06
9.99896e-06
9.99896e-06
9.99896e-06
9.99896e-06
9.99897e-06
9.99897e-06
9.99897e-06
9.99897e-06
9.99897e-06
9.99897e-06
9.99896e-06
9.99896e-06
9.99896e-06
9.99896e-06
9.99897e-06
9.99897e-06
9.99897e-06
9.99897e-06
9.99897e-06
9.77947e-06
9.47303e-06
9.18911e-06
8.94184e-06
8.73472e-06
8.54486e-06
8.35148e-06
8.16185e-06
7.99335e-06
7.83481e-06
7.65721e-06
7.46478e-06
7.30396e-06
7.21255e-06
7.17692e-06
7.15662e-06
7.1432e-06
7.16455e-06
7.23126e-06
7.3116e-06
7.36669e-06
7.38365e-06
7.36607e-06
7.32194e-06
7.26738e-06
7.22094e-06
7.19071e-06
7.17606e-06
7.17955e-06
7.2069e-06
7.25872e-06
7.33019e-06
7.41798e-06
7.52071e-06
7.63215e-06
7.73923e-06
7.82874e-06
7.89477e-06
7.93843e-06
7.96262e-06
7.97e-06
7.96496e-06
7.95528e-06
7.95292e-06
7.97303e-06
8.03068e-06
8.13432e-06
8.28257e-06
8.4673e-06
8.67545e-06
8.89535e-06
9.12059e-06
9.3488e-06
9.57649e-06
9.79514e-06
9.99244e-06
9.99859e-06
9.99859e-06
9.99858e-06
9.99858e-06
9.99858e-06
9.99858e-06
9.99858e-06
9.99858e-06
9.99858e-06
9.99857e-06
9.99857e-06
9.99856e-06
9.99856e-06
9.99856e-06
9.99855e-06
9.99855e-06
9.99855e-06
9.99855e-06
9.99855e-06
9.99855e-06
9.99855e-06
9.99854e-06
9.99854e-06
9.99854e-06
9.99854e-06
9.99854e-06
9.99854e-06
9.99853e-06
9.99853e-06
9.99853e-06
9.99853e-06
9.99853e-06
9.99853e-06
9.99853e-06
9.99853e-06
9.99853e-06
9.99853e-06
9.99853e-06
9.99853e-06
9.99853e-06
9.99852e-06
9.99852e-06
9.99852e-06
9.99852e-06
9.99852e-06
9.99852e-06
9.99852e-06
9.99852e-06
9.99852e-06
9.99852e-06
9.99852e-06
9.99852e-06
9.99852e-06
9.99851e-06
9.99851e-06
9.99851e-06
9.99851e-06
9.99851e-06
9.99851e-06
9.99851e-06
9.99852e-06
9.99851e-06
9.99851e-06
9.99851e-06
9.99851e-06
9.99851e-06
9.99851e-06
9.99851e-06
9.99851e-06
9.99851e-06
9.99851e-06
9.99851e-06
9.99851e-06
9.99851e-06
9.99851e-06
9.99851e-06
9.99851e-06
9.99851e-06
9.99851e-06
9.99851e-06
9.99851e-06
9.99851e-06
9.99851e-06
9.99851e-06
9.99851e-06
9.99851e-06
9.99851e-06
9.99851e-06
9.99851e-06
9.99851e-06
9.99851e-06
9.99851e-06
9.99851e-06
9.99851e-06
9.9985e-06
9.9985e-06
9.9985e-06
9.99851e-06
9.99851e-06
9.99851e-06
9.99851e-06
9.99851e-06
9.99851e-06
9.99851e-06
9.99851e-06
9.99851e-06
9.99851e-06
9.99851e-06
9.99851e-06
9.9985e-06
9.9985e-06
9.9985e-06
9.9985e-06
9.99851e-06
9.99851e-06
9.99851e-06
9.99851e-06
9.9985e-06
9.9985e-06
9.9985e-06
9.9985e-06
9.9985e-06
9.9985e-06
9.9985e-06
9.9985e-06
9.9985e-06
9.99851e-06
9.99851e-06
9.9985e-06
9.99851e-06
9.99851e-06
9.99851e-06
9.99851e-06
9.99851e-06
9.99851e-06
9.99851e-06
9.99851e-06
9.99851e-06
9.99851e-06
9.99851e-06
9.9985e-06
9.9985e-06
9.9985e-06
9.99851e-06
9.99851e-06
9.99851e-06
9.99851e-06
9.99851e-06
9.99851e-06
9.99851e-06
9.99851e-06
9.99851e-06
9.99851e-06
9.99851e-06
9.99851e-06
9.99851e-06
9.99852e-06
9.99851e-06
9.99854e-06
9.99855e-06
9.99851e-06
9.99851e-06
9.9985e-06
9.99851e-06
9.99851e-06
9.9985e-06
9.9985e-06
9.9985e-06
9.9985e-06
9.9985e-06
9.9985e-06
9.9985e-06
9.9985e-06
9.9985e-06
9.99849e-06
9.99849e-06
9.99849e-06
9.99849e-06
9.99849e-06
9.99849e-06
9.9985e-06
9.9985e-06
9.9985e-06
9.9985e-06
9.9985e-06
9.9985e-06
9.9985e-06
9.9985e-06
9.99851e-06
9.99851e-06
9.99851e-06
9.9985e-06
9.9985e-06
9.9985e-06
9.9985e-06
9.9985e-06
9.9985e-06
9.99851e-06
9.99851e-06
9.99851e-06
9.99851e-06
9.99851e-06
9.99851e-06
9.99851e-06
9.99851e-06
9.99851e-06
9.99851e-06
9.99851e-06
9.99852e-06
9.99852e-06
9.99852e-06
9.99852e-06
9.99851e-06
9.99851e-06
9.99851e-06
9.99851e-06
9.99851e-06
9.99851e-06
9.99852e-06
9.99852e-06
9.99852e-06
9.99852e-06
9.99852e-06
9.99852e-06
9.99851e-06
9.99851e-06
9.99852e-06
9.99852e-06
9.99851e-06
9.99851e-06
9.99851e-06
9.99851e-06
9.99852e-06
9.99851e-06
9.99851e-06
9.99852e-06
9.99851e-06
9.99853e-06
9.99851e-06
9.99852e-06
9.99853e-06
9.99854e-06
9.99851e-06
9.99851e-06
9.99851e-06
9.99851e-06
9.99852e-06
9.99854e-06
9.99854e-06
1.07817e-08
1.15412e-08
2.36092e-08
5.70846e-08
6.86646e-08
6.49443e-08
6.52128e-08
6.44457e-08
6.46132e-08
6.52887e-08
6.66502e-08
6.83439e-08
7.07824e-08
7.39381e-08
7.75326e-08
8.17832e-08
8.65271e-08
9.20849e-08
9.77872e-08
1.03484e-07
1.09422e-07
1.17369e-07
1.26491e-07
1.33951e-07
1.39975e-07
1.44443e-07
1.49936e-07
1.55001e-07
1.54525e-07
1.52902e-07
1.4952e-07
1.38695e-07
1.31055e-07
1.33072e-07
1.3538e-07
1.32887e-07
1.29387e-07
1.26275e-07
1.22738e-07
1.19048e-07
1.1406e-07
1.06858e-07
9.93676e-08
9.33772e-08
8.78303e-08
8.23041e-08
7.78726e-08
7.43574e-08
7.17858e-08
6.96423e-08
6.76423e-08
6.51051e-08
6.34325e-08
6.22604e-08
6.02426e-08
5.84417e-08
5.68651e-08
5.53591e-08
5.36428e-08
5.19515e-08
5.06007e-08
4.95014e-08
4.888e-08
4.82486e-08
4.74355e-08
4.67727e-08
4.62334e-08
4.58096e-08
4.55062e-08
4.5213e-08
4.50548e-08
4.54533e-08
4.643e-08
4.77683e-08
4.97943e-08
5.31572e-08
5.84896e-08
6.61811e-08
7.59576e-08
8.97029e-08
1.15631e-07
1.36254e-07
2.20425e-07
9.13239e-08
6.71357e-08
3.9602e-08
2.31175e-08
1.91632e-08
1.318e-08
1.28646e-08
6.50833e-09
6.95833e-09
1.38259e-08
1.5248e-08
5.70847e-08
5.16075e-08
3.26613e-07
3.72188e-07
1.47987e-07
1.39372e-07
1.84553e-07
1.67719e-07
1.75883e-07
1.84486e-07
1.79353e-07
1.73966e-07
1.6835e-07
1.66674e-07
1.68016e-07
1.56279e-07
1.59473e-07
1.32775e-07
1.36888e-07
1.74707e-07
1.77085e-07
2.02155e-07
2.06604e-07
2.10907e-07
2.15935e-07
2.15898e-07
2.1746e-07
2.21991e-07
2.22669e-07
2.23562e-07
2.30424e-07
2.3224e-07
2.26041e-07
2.29735e-07
2.05861e-07
2.11476e-07
2.46151e-07
2.49469e-07
2.70262e-07
2.72792e-07
2.7193e-07
2.71848e-07
2.76944e-07
2.86763e-07
2.91285e-07
2.97376e-07
3.03195e-07
3.07693e-07
3.13807e-07
3.21421e-07
3.28454e-07
3.35571e-07
3.42874e-07
3.50447e-07
3.58383e-07
3.66455e-07
3.74768e-07
3.83479e-07
3.92405e-07
4.01517e-07
4.11029e-07
4.20844e-07
4.30817e-07
4.41198e-07
4.5208e-07
4.63108e-07
4.74193e-07
4.85883e-07
4.98579e-07
5.11994e-07
5.25574e-07
5.39288e-07
5.53848e-07
5.69214e-07
5.84599e-07
6.00193e-07
6.17126e-07
6.35476e-07
6.54225e-07
6.73402e-07
6.93971e-07
7.15689e-07
7.37722e-07
7.6061e-07
7.85341e-07
8.11502e-07
8.38517e-07
8.67214e-07
8.98201e-07
9.30458e-07
9.63268e-07
9.97635e-07
1.03429e-06
1.07232e-06
1.11124e-06
1.15253e-06
1.19797e-06
1.24744e-06
1.29995e-06
1.35625e-06
1.41731e-06
1.48076e-06
1.54374e-06
1.60867e-06
1.68019e-06
1.75887e-06
1.84381e-06
1.93784e-06
2.04322e-06
2.15685e-06
2.2765e-06
2.40601e-06
2.54721e-06
2.69584e-06
2.85428e-06
3.03653e-06
3.25037e-06
3.48808e-06
3.74494e-06
4.03229e-06
4.3584e-06
4.71126e-06
5.08155e-06
5.48815e-06
5.9535e-06
6.4744e-06
7.0534e-06
7.73221e-06
8.54257e-06
9.45912e-06
9.99999e-06
9.99999e-06
9.99999e-06
9.99999e-06
9.99999e-06
9.99999e-06
1e-05
1e-05
1e-05
1e-05
1e-05
1e-05
1e-05
1e-05
1e-05
1e-05
1e-05
1e-05
1e-05
1e-05
9.95294e-06
9.6928e-06
9.40845e-06
9.07819e-06
8.7534e-06
8.49549e-06
8.3021e-06
8.11921e-06
7.91804e-06
7.73321e-06
7.60488e-06
7.51672e-06
7.42087e-06
7.30465e-06
7.20212e-06