/*--------------------------------*- C++ -*----------------------------------*\
| =========                 |                                                 |
| \\      /  F ield         | OpenFOAM: The Open Source CFD Toolbox           |
|  \\    /   O peration     | Version:  v2006                                 |
|   \\  /    A nd           | Website:  www.openfoam.com                      |
|    \\/     M anipulation  |                                                 |
\*---------------------------------------------------------------------------*/
FoamFile
{
    version     2.0;
    format      ascii;
    class       volScalarField;
    location    "1";
    object      omega;
}
// * * * * * * * * * * * * * * * * * * * * * * * * * * * * * * * * * * * * * //

dimensions      [0 0 -1 0 0 0 0];


internalField   nonuniform List<scalar> 
33000
(
0.802101
0.802148
0.802144
0.80214
0.802137
0.802134
0.802131
0.802128
0.802125
0.802121
0.802119
0.802116
0.802113
0.802112
0.80211
0.802108
0.802106
0.802104
0.8021
0.802097
0.802094
0.802091
0.802087
0.802084
0.80208
0.802077
0.802073
0.802069
0.802065
0.802061
0.802056
0.802051
0.802045
0.80204
0.802035
0.80203
0.802026
0.802021
0.802016
0.80201
0.802005
0.801999
0.801992
0.801984
0.801976
0.801967
0.801958
0.80195
0.80194
0.801931
0.801922
0.801912
0.801902
0.801893
0.801884
0.801875
0.801867
0.801859
0.80185
0.801842
0.801832
0.801823
0.801813
0.801804
0.801794
0.801785
0.801774
0.801764
0.801754
0.801743
0.801732
0.80172
0.801707
0.80169
0.801671
0.801648
0.801619
0.801595
0.801473
0.801483
0.801447
0.80145
0.801447
0.801439
0.801439
0.801436
0.801427
0.801421
0.801417
0.801412
0.801407
0.801402
0.801398
0.801393
0.801388
0.801383
0.801377
0.801371
0.801366
0.801358
0.801353
0.801348
0.801343
0.801339
0.801334
0.80133
0.801325
0.801321
0.801317
0.801312
0.801308
0.801304
0.8013
0.801297
0.801293
0.801289
0.801286
0.801281
0.801278
0.801274
0.801271
0.801268
0.801265
0.801262
0.80126
0.801257
0.801254
0.801252
0.801249
0.801246
0.801244
0.801242
0.80124
0.801238
0.801236
0.801233
0.801231
0.801229
0.801228
0.801226
0.801224
0.801222
0.801221
0.801219
0.801218
0.801216
0.801215
0.801213
0.801212
0.801211
0.80121
0.801209
0.801207
0.801206
0.801205
0.801205
0.801204
0.801203
0.801202
0.801201
0.8012
0.8012
0.801199
0.801198
0.801198
0.801197
0.801196
0.801196
0.801195
0.801195
0.801194
0.801194
0.801193
0.801193
0.801192
0.801192
0.801192
0.801191
0.801191
0.801191
0.801191
0.80119
0.80119
0.80119
0.801189
0.801189
0.801189
0.801189
0.801189
0.801189
0.801188
0.801188
0.801188
0.801188
0.801188
0.801187
0.801187
0.801187
0.801187
0.801186
0.801186
0.801186
0.801186
0.801185
0.801185
0.801185
0.801184
0.801184
0.801184
0.801184
0.801183
0.801183
0.801183
0.801182
0.801182
0.801182
0.801181
0.801181
0.801181
0.80118
0.80118
0.80118
0.801179
0.801179
0.801179
0.801178
0.801178
0.801178
0.801178
0.801177
0.801177
0.801177
0.801176
0.801176
0.801176
0.801175
0.801175
0.801175
0.801174
0.801174
0.801174
0.801173
0.801173
0.801173
0.801173
0.801172
0.801172
0.801172
0.801171
0.801171
0.801171
0.801171
0.80117
0.80117
0.80117
0.80117
0.801169
0.801169
0.801169
0.801169
0.801168
0.801168
0.801168
0.801168
0.801167
0.801167
0.801167
0.801167
0.801167
0.801166
0.801166
0.801166
0.801166
0.801165
0.801165
0.801165
0.801165
0.801165
0.801165
0.801164
0.801164
0.801164
0.801164
0.801164
0.801163
0.801163
0.801163
0.801163
0.801163
0.801163
0.801162
0.801162
0.801162
0.801162
0.801162
0.801162
0.801162
0.801161
0.801161
0.801161
0.801161
0.801161
0.801161
0.801161
0.801161
0.80116
0.80116
0.80116
0.80116
0.80116
0.80116
0.80116
0.80116
0.80116
0.80116
0.80116
0.801159
0.801159
0.801159
0.801159
0.801159
0.801159
0.801159
0.801159
0.801159
0.801159
0.801159
0.801159
0.801159
0.801158
0.801158
0.801158
0.801158
0.801158
0.801158
0.801158
0.801158
0.801158
0.801158
0.801158
0.801158
0.801158
0.801158
0.801158
0.801158
0.801158
0.801158
0.801158
0.801158
0.801158
0.801157
0.801157
0.801157
0.801157
0.801157
0.801157
0.801157
0.801157
0.801157
0.801157
0.801157
0.801157
0.801157
0.801157
0.801157
0.801157
0.801157
0.801157
0.801157
0.801157
0.801157
0.801157
0.801157
0.801157
0.801157
0.801157
0.801157
0.801157
0.801157
0.801157
0.801156
0.801156
0.801156
0.801156
0.801156
0.801156
0.801156
0.801156
0.801156
0.801156
0.801156
0.801156
0.801156
0.801156
0.801156
0.801156
0.801156
0.801156
0.801156
0.801156
0.801156
0.801156
0.801156
0.801156
0.801156
0.801156
0.801156
0.801156
0.801156
0.801156
0.801156
0.801156
0.801156
0.801156
0.801156
0.801156
0.801156
0.801156
0.801156
0.801156
0.801156
0.801156
0.801156
0.801156
0.801156
0.801156
0.801156
0.801156
0.801156
0.801156
0.801156
0.801156
0.801156
0.801156
0.801156
0.801156
0.801156
0.801156
0.801156
0.801156
0.801156
0.801156
0.801156
0.801156
0.801156
0.801156
0.801156
0.801156
0.801156
0.801156
0.801156
0.801156
0.801156
0.801156
0.801156
0.801156
0.801156
0.801156
0.801156
0.801156
0.801156
0.801156
0.801156
0.801156
0.801156
0.801156
0.801156
0.801156
0.801156
0.801156
0.801156
0.801156
0.801156
0.801156
0.801156
0.801156
0.801156
0.801156
0.801156
0.801156
0.801155
0.801155
0.801155
0.801156
0.801156
0.801156
0.801156
0.801156
0.801156
0.801156
0.801156
0.801156
0.801156
0.801156
0.801156
0.801156
0.801156
0.801156
0.801156
0.801156
0.801156
0.801156
0.801156
0.801156
0.801156
0.801156
0.801156
0.801156
0.801156
0.801156
0.801156
0.801156
0.801156
0.801155
0.801155
0.801155
0.801155
0.801155
0.801155
0.801155
0.801156
0.801156
0.801156
0.801156
0.801156
0.801156
0.801156
0.801156
0.801156
0.801156
0.801156
0.801156
0.801156
0.801156
0.801156
0.801156
0.801156
0.801155
0.801155
0.801155
0.801155
0.801155
0.801155
0.801156
0.801156
0.801156
0.801156
0.801156
0.801156
0.801156
0.00652243
0.00849695
0.00778965
0.00714621
0.00721547
0.00722658
0.00701047
0.00677151
0.00660725
0.00647794
0.006373
0.0063082
0.00623621
0.0062956
0.00624754
0.00619396
0.00614653
0.0060691
0.00602536
0.00599655
0.00596059
0.00591631
0.00587769
0.00583192
0.00580478
0.00577612
0.00574232
0.00571307
0.0056873
0.00566348
0.00564054
0.00562695
0.00562626
0.00562529
0.00562473
0.0056242
0.00562259
0.00561957
0.00561471
0.00560874
0.00560211
0.00559304
0.00558135
0.00556807
0.00555359
0.00553703
0.0055189
0.00550014
0.00548129
0.00546266
0.00544417
0.00542575
0.0054087
0.0053937
0.00538106
0.00537032
0.00536081
0.00535204
0.00534454
0.00533819
0.00533211
0.00532855
0.00532916
0.00533539
0.00534848
0.00536868
0.00539619
0.00543493
0.00549161
0.00557513
0.00569875
0.0058849
0.00617885
0.00665814
0.00743422
0.00871268
0.0106826
0.0125191
0.0105309
0.00600237
0.00526735
0.00458402
0.00386561
0.00353296
0.00387564
0.00398367
0.00420811
0.00436099
0.00406217
0.00411332
0.0040506
0.00418103
0.00414808
0.00422042
0.0042271
0.00422014
0.00422183
0.00421377
0.00427545
0.00425655
0.00419513
0.0041
0.0040993
0.00418234
0.00417534
0.00420731
0.00422389
0.00424071
0.00426083
0.00426815
0.00427005
0.00428101
0.00429509
0.00431032
0.00433649
0.00433205
0.00447524
0.0044269
0.00432457
0.00414083
0.0041325
0.00429509
0.00427536
0.00434315
0.00436767
0.00440121
0.00441569
0.00442297
0.00443291
0.004446
0.00445941
0.00447347
0.00448795
0.00450003
0.00451291
0.00452631
0.00454016
0.00455503
0.00456805
0.00458005
0.00459287
0.00460638
0.00462046
0.00463418
0.00464884
0.00466253
0.00467444
0.00468645
0.00469936
0.00471296
0.00472613
0.0047394
0.00475177
0.0047632
0.00477449
0.00478665
0.00479959
0.00481202
0.00482446
0.00483585
0.00484618
0.00485632
0.0048664
0.00487652
0.00488726
0.00489853
0.00490737
0.00491482
0.00492292
0.00493007
0.00493573
0.00494047
0.00494344
0.00494679
0.00494985
0.00495236
0.00495549
0.00495837
0.00496003
0.00496159
0.00496358
0.00496579
0.0049677
0.00496981
0.00497253
0.00497418
0.00497559
0.00497696
0.00497861
0.00498062
0.00498191
0.00498224
0.00498262
0.0049832
0.00498401
0.00498486
0.00498565
0.00498495
0.00498457
0.00498423
0.00498385
0.00498345
0.00498294
0.00498232
0.00498187
0.00498146
0.00498081
0.00498006
0.00497918
0.00497807
0.00497692
0.00497627
0.00497607
0.00497617
0.00497609
0.00497619
0.00497645
0.00497639
0.00497606
0.00497594
0.00497609
0.00497612
0.00497583
0.00497565
0.00497584
0.00497642
0.00497648
0.00497619
0.0049759
0.00497561
0.00497518
0.00497504
0.00497492
0.00497476
0.00497453
0.00497439
0.00497442
0.0049744
0.00497399
0.00497323
0.00497238
0.00497163
0.00497106
0.00497067
0.00497042
0.00497011
0.00496953
0.00496877
0.00496818
0.0049679
0.00496753
0.00496658
0.00496509
0.0049637
0.00496282
0.0049621
0.00496085
0.00495895
0.00495698
0.00495556
0.00495473
0.00495412
0.00495351
0.00495291
0.00495225
0.00495141
0.00495042
0.00494938
0.00494823
0.00494677
0.00494503
0.00494341
0.00494212
0.00494104
0.00494007
0.0049392
0.00493847
0.00493782
0.00493723
0.00493678
0.00493641
0.00493588
0.00493492
0.00493354
0.00493195
0.00493031
0.00492863
0.00492683
0.00492493
0.00492305
0.00492135
0.00491985
0.00491856
0.00491758
0.00491695
0.00491657
0.00491626
0.00491584
0.00491527
0.00491462
0.00491394
0.0049132
0.00491227
0.00491106
0.00490958
0.00490793
0.00490626
0.0049047
0.00490334
0.0049022
0.00490132
0.00490066
0.0049002
0.00489985
0.0048995
0.00489906
0.00489845
0.00489764
0.00489664
0.00489552
0.00489435
0.00489317
0.00489195
0.00489073
0.00488964
0.00488897
0.00488887
0.00488918
0.00488946
0.00488939
0.004889
0.00488848
0.00488782
0.00488675
0.00488517
0.00488343
0.00488216
0.00488157
0.00488133
0.00488114
0.00488112
0.0048815
0.00488213
0.00488256
0.00488255
0.00488224
0.00488178
0.00488113
0.00488028
0.00487948
0.00487898
0.00487878
0.00487884
0.00487922
0.00487983
0.00488033
0.00488042
0.00488013
0.00487963
0.00487897
0.00487816
0.00487738
0.00487696
0.00487703
0.00487747
0.004878
0.00487842
0.00487866
0.00487861
0.00487817
0.00487739
0.0048765
0.00487579
0.00487539
0.00487523
0.00487513
0.00487503
0.00487496
0.00487482
0.00487434
0.00487346
0.00487242
0.00487167
0.00487141
0.00487165
0.0048722
0.00487272
0.00487291
0.00487268
0.00487213
0.00487148
0.00487098
0.00487089
0.00487127
0.00487197
0.00487274
0.00487332
0.00487341
0.00487286
0.00487191
0.00487107
0.00487072
0.00487077
0.00487085
0.00487094
0.00487097
0.00487059
0.00486992
0.00486949
0.00486952
0.00486985
0.00487015
0.00487005
0.00486955
0.00486906
0.0048687
0.00486843
0.00486844
0.00486852
0.00486837
0.00486804
0.00486852
0.00486928
0.00486967
0.0048699
0.00486912
0.00486839
0.00486798
0.00486749
0.0048673
0.00486661
0.00486593
0.00486454
0.00486432
0.00486442
0.00486533
0.00486594
0.00486535
0.00486553
0.0048641
0.00486493
0.00486741
0.00486716
0.00486689
0.00486525
0.00486603
0.00486578
0.00486408
0.00486376
0.00486362
0.00486393
0.00486366
0.00486416
0.00486459
0.00486623
0.00486468
0.00486359
0.00486515
0.00486357
0.00486343
0.004864
0.00486436
0.00486687
0.00486366
0.00486786
0.00486444
0.00486341
0.00486406
0.00486433
0.00486509
0.00486693
0.00486453
0.00486858
0.00486977
0.00486999
0.00487187
0.0048744
0.0048759
0.00487668
0.00487723
0.00487663
0.00487445
0.00487202
0.00487101
0.00487144
0.0048717
0.00487082
0.00486903
0.00486744
0.00486662
0.00486678
0.00486789
0.00486956
0.00487117
0.00487248
0.00487323
0.00487335
0.00487281
0.00487146
0.00486913
0.00486571
0.00486332
0.00486326
0.00486324
0.00486322
0.0048632
0.0048632
0.00486319
0.00486319
0.0048632
0.00486322
0.00486325
0.00486333
0.00486347
0.00486379
0.00486429
0.00486417
0.00486376
0.00486351
0.00486341
0.00486334
0.00486329
0.00486333
0.00486345
0.00486371
0.00486495
0.00486364
0.00486343
0.00486337
0.00486359
0.00487219
0.00488097
0.00487728
0.00486496
0.00486375
0.00487192
0.00488188
0.00487633
0.00486362
0.00486346
0.00486375
0.00486428
0.00486333
0.00486324
0.00486365
0.00487231
0.00486774
0.00487991
0.00487962
0.00485912
0.00156632
0.00146649
0.00114784
0.0010743
0.00107265
0.00107275
0.00107111
0.00106967
0.00106898
0.00106852
0.00106846
0.00106869
0.00106877
0.00106973
0.00107005
0.0010702
0.00107024
0.00106994
0.00106991
0.00106993
0.00106987
0.00106971
0.00106957
0.00106938
0.00106944
0.00106949
0.00106937
0.00106923
0.00106923
0.00106915
0.00106893
0.00106899
0.00106927
0.00106932
0.00106937
0.00106957
0.00106972
0.00106992
0.00107017
0.00107044
0.00107067
0.00107075
0.0010706
0.00107045
0.00107033
0.00106998
0.00106941
0.00106881
0.00106837
0.00106805
0.00106774
0.0010674
0.00106717
0.00106697
0.00106679
0.00106658
0.00106624
0.0010658
0.00106535
0.00106489
0.00106441
0.00106401
0.00106376
0.00106368
0.00106376
0.00106403
0.00106446
0.00106507
0.00106588
0.00106694
0.00106831
0.00107012
0.00107267
0.0010764
0.00108206
0.00109081
0.00110412
0.00111997
0.00111269
0.00110073
0.0011045
0.00112589
0.00114097
0.00125569
0.0012365
0.00113095
0.00111054
0.00108773
0.00102918
0.00103446
0.00101451
0.00101545
0.00101799
0.00101901
0.00101722
0.0010178
0.00101747
0.00101702
0.00101732
0.00101733
0.00101694
0.00101668
0.00101698
0.00101725
0.00101822
0.00101813
0.00101691
0.00101694
0.0010166
0.00101624
0.00101614
0.00101619
0.00101609
0.00101602
0.00101603
0.0010158
0.00101643
0.00101625
0.00101544
0.00101468
0.00101436
0.0010148
0.00101499
0.00101508
0.0010146
0.00101465
0.00101476
0.00101474
0.00101535
0.00101538
0.0010152
0.00101522
0.00101522
0.00101524
0.00101533
0.0010154
0.00101538
0.00101535
0.00101535
0.00101536
0.00101538
0.00101544
0.00101551
0.0010156
0.00101567
0.00101569
0.00101569
0.00101572
0.00101577
0.00101583
0.00101592
0.00101603
0.00101609
0.00101614
0.0010162
0.00101624
0.00101629
0.00101636
0.00101645
0.00101655
0.00101664
0.0010167
0.00101676
0.00101683
0.00101689
0.00101697
0.00101705
0.00101714
0.00101725
0.00101733
0.00101738
0.00101744
0.00101751
0.00101756
0.00101762
0.0010177
0.00101779
0.00101785
0.00101789
0.00101795
0.00101803
0.00101812
0.00101823
0.00101835
0.00101845
0.00101849
0.00101854
0.00101861
0.00101869
0.00101879
0.00101892
0.001019
0.00101906
0.00101912
0.00101921
0.00101932
0.00101945
0.00101952
0.00101957
0.00101963
0.00101972
0.0010198
0.00101989
0.00102001
0.00102014
0.0010202
0.00102027
0.00102034
0.00102043
0.0010205
0.00102057
0.0010206
0.00102067
0.00102075
0.00102084
0.00102093
0.00102102
0.00102104
0.00102102
0.00102102
0.00102102
0.00102104
0.00102107
0.0010211
0.00102112
0.00102114
0.00102115
0.00102115
0.00102115
0.00102115
0.00102115
0.00102113
0.00102112
0.00102114
0.00102118
0.00102124
0.0010213
0.00102134
0.00102137
0.00102135
0.00102132
0.00102128
0.00102127
0.00102125
0.00102125
0.00102125
0.00102126
0.0010213
0.00102138
0.00102145
0.0010215
0.00102153
0.00102157
0.00102162
0.00102166
0.00102167
0.00102165
0.00102163
0.00102164
0.00102169
0.00102176
0.00102183
0.00102191
0.001022
0.00102208
0.00102216
0.00102222
0.00102227
0.0010223
0.00102231
0.00102232
0.00102234
0.00102236
0.00102239
0.00102243
0.00102248
0.00102254
0.00102261
0.0010227
0.00102278
0.00102286
0.00102294
0.00102299
0.00102303
0.00102307
0.00102311
0.00102314
0.00102316
0.00102319
0.00102322
0.00102325
0.00102328
0.00102333
0.00102338
0.00102343
0.00102348
0.00102352
0.00102356
0.00102359
0.00102361
0.00102362
0.00102362
0.00102361
0.0010236
0.00102358
0.00102357
0.00102355
0.00102353
0.00102352
0.00102351
0.0010235
0.00102349
0.00102348
0.00102348
0.00102347
0.00102347
0.00102346
0.00102345
0.00102344
0.00102342
0.00102341
0.0010234
0.00102339
0.00102338
0.00102337
0.00102336
0.00102336
0.00102336
0.00102336
0.00102336
0.00102335
0.00102334
0.00102334
0.00102333
0.00102331
0.0010233
0.00102329
0.00102328
0.00102328
0.00102327
0.00102327
0.00102327
0.00102328
0.00102328
0.00102328
0.00102327
0.00102327
0.00102326
0.00102326
0.00102325
0.00102325
0.00102324
0.00102324
0.00102325
0.00102325
0.00102325
0.00102325
0.00102325
0.00102324
0.00102324
0.00102323
0.00102322
0.00102322
0.00102322
0.00102323
0.00102323
0.00102323
0.00102323
0.00102323
0.00102323
0.00102322
0.00102321
0.0010232
0.0010232
0.0010232
0.0010232
0.0010232
0.00102319
0.00102319
0.00102319
0.00102318
0.00102317
0.00102316
0.00102316
0.00102316
0.00102317
0.00102317
0.00102317
0.00102317
0.00102316
0.00102316
0.00102315
0.00102315
0.00102316
0.00102316
0.00102317
0.00102317
0.00102317
0.00102317
0.00102316
0.00102315
0.00102315
0.00102315
0.00102315
0.00102315
0.00102315
0.00102314
0.00102314
0.00102314
0.00102314
0.00102314
0.00102314
0.00102314
0.00102313
0.00102313
0.00102313
0.00102312
0.00102312
0.00102312
0.00102312
0.00102312
0.00102312
0.00102313
0.00102313
0.00102313
0.00102313
0.00102312
0.00102311
0.00102311
0.00102311
0.00102311
0.0010231
0.00102309
0.00102308
0.00102308
0.00102309
0.00102309
0.00102309
0.00102309
0.00102308
0.00102309
0.00102311
0.00102311
0.0010231
0.00102309
0.00102309
0.00102309
0.00102308
0.00102307
0.00102307
0.00102308
0.00102307
0.00102308
0.00102308
0.00102309
0.00102308
0.00102307
0.00102308
0.00102307
0.00102307
0.00102307
0.00102308
0.00102311
0.00102307
0.00102308
0.00102307
0.00102307
0.00102308
0.00102308
0.0010231
0.0010231
0.00102309
0.00102313
0.00102314
0.00102315
0.00102317
0.00102319
0.00102319
0.00102319
0.0010232
0.0010232
0.00102318
0.00102317
0.00102316
0.00102316
0.00102316
0.00102315
0.00102312
0.00102311
0.0010231
0.00102311
0.00102312
0.00102314
0.00102315
0.00102316
0.00102317
0.00102316
0.00102315
0.00102314
0.00102311
0.00102308
0.00102307
0.00102307
0.00102307
0.00102307
0.00102307
0.00102307
0.00102307
0.00102307
0.00102307
0.00102307
0.00102307
0.00102307
0.00102307
0.00102308
0.00102308
0.00102308
0.00102308
0.00102307
0.00102307
0.00102307
0.00102307
0.00102307
0.00102307
0.00102308
0.00102308
0.00102308
0.00102307
0.00102307
0.00102308
0.00102318
0.00102322
0.00102316
0.00102308
0.00102309
0.00102319
0.00102323
0.00102314
0.00102308
0.00102308
0.0010231
0.00102308
0.00102307
0.00102308
0.00102309
0.00102315
0.00102313
0.00102321
0.00102316
0.00102303
0.00156894
0.00143019
0.00111234
0.00104377
0.00104197
0.00104249
0.00104303
0.00104362
0.00104433
0.00104509
0.00104583
0.00104656
0.00104728
0.00104806
0.00104896
0.00104981
0.00105054
0.00105112
0.00105165
0.00105217
0.00105265
0.00105304
0.00105339
0.00105376
0.00105416
0.00105457
0.00105491
0.00105525
0.00105567
0.00105594
0.00105608
0.00105638
0.00105639
0.00105599
0.00105577
0.00105579
0.00105586
0.00105587
0.00105563
0.00105551
0.00105564
0.00105572
0.00105571
0.00105574
0.00105578
0.00105568
0.00105542
0.0010551
0.00105477
0.00105439
0.00105396
0.00105359
0.00105331
0.00105294
0.0010526
0.00105228
0.00105191
0.00105151
0.00105111
0.00105075
0.00105039
0.00105003
0.00104968
0.00104938
0.00104917
0.001049
0.00104886
0.00104869
0.00104848
0.00104817
0.00104769
0.00104693
0.0010458
0.0010442
0.00104196
0.00103884
0.0010347
0.00102965
0.00102506
0.00102095
0.00102057
0.00102877
0.00105521
0.00106995
0.00109966
0.0011157
0.00114911
0.00123343
0.00121473
0.00110549
0.00109278
0.00102458
0.00102721
0.00100895
0.00100747
0.00101073
0.00101104
0.00100895
0.00100953
0.00100901
0.00100862
0.00100867
0.00100875
0.00100869
0.00100862
0.00100881
0.00100888
0.00100875
0.00100955
0.00100925
0.00100789
0.00100771
0.00100713
0.00100694
0.00100677
0.00100659
0.00100644
0.00100628
0.0010061
0.00100615
0.001006
0.00100575
0.00100557
0.00100546
0.00100529
0.00100587
0.0010057
0.00100482
0.00100475
0.0010045
0.00100442
0.0010044
0.00100429
0.00100403
0.00100391
0.0010038
0.00100371
0.00100361
0.00100351
0.00100341
0.0010033
0.00100319
0.0010031
0.001003
0.0010029
0.0010028
0.00100271
0.00100262
0.00100253
0.00100245
0.00100237
0.00100228
0.00100221
0.00100213
0.00100206
0.00100199
0.00100192
0.00100185
0.00100178
0.00100171
0.00100165
0.00100159
0.00100153
0.00100147
0.00100141
0.00100136
0.0010013
0.00100125
0.00100121
0.00100116
0.00100111
0.00100106
0.00100101
0.00100097
0.00100093
0.00100089
0.00100085
0.00100081
0.00100077
0.00100073
0.0010007
0.00100067
0.00100063
0.0010006
0.00100057
0.00100054
0.00100051
0.00100048
0.00100045
0.00100042
0.0010004
0.00100037
0.00100035
0.00100033
0.00100031
0.00100029
0.00100028
0.00100026
0.00100025
0.00100023
0.00100022
0.00100021
0.0010002
0.00100019
0.00100018
0.00100018
0.00100017
0.00100016
0.00100016
0.00100015
0.00100015
0.00100015
0.00100014
0.00100014
0.00100014
0.00100014
0.00100013
0.00100013
0.00100013
0.00100013
0.00100013
0.00100012
0.00100012
0.00100012
0.00100012
0.00100012
0.00100012
0.00100012
0.00100012
0.00100012
0.00100011
0.00100011
0.00100011
0.00100011
0.00100011
0.00100011
0.00100011
0.00100011
0.00100011
0.00100011
0.00100011
0.00100011
0.00100011
0.00100011
0.00100011
0.0010001
0.0010001
0.0010001
0.0010001
0.0010001
0.0010001
0.0010001
0.0010001
0.0010001
0.0010001
0.0010001
0.0010001
0.0010001
0.0010001
0.0010001
0.0010001
0.0010001
0.0010001
0.0010001
0.0010001
0.0010001
0.0010001
0.0010001
0.0010001
0.0010001
0.00100009
0.00100009
0.00100009
0.00100009
0.00100009
0.00100009
0.00100009
0.00100009
0.00100009
0.00100009
0.00100009
0.00100009
0.00100009
0.00100009
0.00100009
0.00100009
0.00100009
0.00100009
0.00100009
0.00100009
0.00100009
0.00100009
0.00100009
0.00100009
0.00100009
0.00100009
0.00100009
0.00100009
0.00100009
0.00100008
0.00100008
0.00100008
0.00100008
0.00100008
0.00100008
0.00100008
0.00100008
0.00100008
0.00100008
0.00100008
0.00100008
0.00100008
0.00100008
0.00100008
0.00100008
0.00100008
0.00100008
0.00100008
0.00100008
0.00100007
0.00100007
0.00100007
0.00100007
0.00100007
0.00100007
0.00100007
0.00100007
0.00100007
0.00100007
0.00100007
0.00100007
0.00100007
0.00100007
0.00100007
0.00100007
0.00100007
0.00100007
0.00100007
0.00100007
0.00100007
0.00100007
0.00100007
0.00100007
0.00100007
0.00100007
0.00100007
0.00100007
0.00100007
0.00100007
0.00100007
0.00100007
0.00100007
0.00100007
0.00100007
0.00100007
0.00100007
0.00100007
0.00100007
0.00100007
0.00100007
0.00100007
0.00100007
0.00100007
0.00100006
0.00100006
0.00100006
0.00100006
0.00100006
0.00100006
0.00100006
0.00100006
0.00100006
0.00100006
0.00100006
0.00100006
0.00100006
0.00100006
0.00100006
0.00100006
0.00100006
0.00100006
0.00100006
0.00100006
0.00100006
0.00100006
0.00100006
0.00100006
0.00100006
0.00100006
0.00100006
0.00100006
0.00100006
0.00100006
0.00100006
0.00100006
0.00100006
0.00100006
0.00100006
0.00100006
0.00100006
0.00100006
0.00100006
0.00100006
0.00100006
0.00100006
0.00100006
0.00100006
0.00100006
0.00100006
0.00100006
0.00100006
0.00100006
0.00100006
0.00100006
0.00100006
0.00100006
0.00100006
0.00100006
0.00100006
0.00100006
0.00100006
0.00100006
0.00100006
0.00100006
0.00100006
0.00100006
0.00100006
0.00100006
0.00100006
0.00100006
0.00100006
0.00100006
0.00100006
0.00100006
0.00100006
0.00100006
0.00100006
0.00100006
0.00100006
0.00100006
0.00100006
0.00100006
0.00100006
0.00100006
0.00100006
0.00100006
0.00100006
0.00100006
0.00100006
0.00100006
0.00100006
0.00100006
0.00100006
0.00100006
0.00100006
0.00100006
0.00100006
0.00100006
0.00100006
0.00100006
0.00100006
0.00100006
0.00100006
0.00100006
0.00100006
0.00100006
0.00100006
0.00100006
0.00100006
0.00100006
0.00100006
0.00100006
0.00100006
0.00100006
0.00100006
0.00100006
0.00100006
0.00100006
0.00100006
0.00100006
0.00100006
0.00100006
0.00100006
0.00100006
0.00100006
0.00100006
0.00100006
0.00100006
0.00100006
0.00100006
0.00100006
0.00100006
0.00100006
0.00100006
0.00100006
0.00100006
0.00100006
0.00100006
0.00100006
0.00100006
0.00100006
0.00100006
0.00100006
0.00100006
0.00100006
0.00100006
0.00100006
0.00100006
0.00100006
0.00100006
0.00100006
0.00100006
0.00100006
0.00100006
0.00100006
0.00100006
0.00100006
0.00100006
0.00100006
0.00100006
0.00100006
0.00100006
0.00100006
0.00100006
0.00100006
0.00100006
0.00100006
0.00100006
0.00100006
0.00100006
0.00100006
0.00100006
0.00100006
0.00100006
0.00100006
0.00100006
0.00100006
0.00100006
0.00100006
0.00100006
0.00100006
0.00100006
0.00100006
0.00100006
0.00100006
0.00100006
0.00100006
0.00100006
0.00100007
0.00100006
0.00159598
0.00143149
0.00111332
0.00104382
0.0010422
0.00104311
0.00104387
0.00104466
0.00104549
0.0010463
0.00104707
0.00104782
0.00104859
0.00104943
0.00105031
0.00105111
0.00105177
0.00105233
0.0010529
0.00105347
0.00105401
0.00105446
0.00105485
0.00105523
0.00105561
0.001056
0.00105637
0.00105678
0.00105727
0.00105773
0.00105816
0.00105861
0.00105877
0.00105856
0.00105828
0.00105801
0.00105764
0.00105718
0.00105672
0.00105633
0.00105609
0.001056
0.00105601
0.00105601
0.00105604
0.00105609
0.00105604
0.00105585
0.00105552
0.00105509
0.00105459
0.00105417
0.00105366
0.00105312
0.00105273
0.00105235
0.00105199
0.00105165
0.00105138
0.00105114
0.00105085
0.00105049
0.00105002
0.00104954
0.00104908
0.00104858
0.00104807
0.00104752
0.00104689
0.00104617
0.00104528
0.00104406
0.00104245
0.00104049
0.00103814
0.00103531
0.0010321
0.00102875
0.0010256
0.00102267
0.00101996
0.00101867
0.00101786
0.00102449
0.00103325
0.00104442
0.00106227
0.00107597
0.0011102
0.00112337
0.00122477
0.00120536
0.00110227
0.00109134
0.00102275
0.00102543
0.00100927
0.00100744
0.00101061
0.00101097
0.00100873
0.00100929
0.00100892
0.00100857
0.00100852
0.00100858
0.00100851
0.00100847
0.00100831
0.00100842
0.00100821
0.00100893
0.00100861
0.00100738
0.00100721
0.00100668
0.00100652
0.00100636
0.00100616
0.00100598
0.00100583
0.00100567
0.00100572
0.00100558
0.00100534
0.00100515
0.00100508
0.0010049
0.00100544
0.00100529
0.00100447
0.00100441
0.00100413
0.00100407
0.00100391
0.00100394
0.00100383
0.00100358
0.00100347
0.00100339
0.00100328
0.0010032
0.0010031
0.00100299
0.00100289
0.00100279
0.0010027
0.0010026
0.00100252
0.00100243
0.00100235
0.00100226
0.00100218
0.00100211
0.00100203
0.00100196
0.00100189
0.00100182
0.00100175
0.00100168
0.00100162
0.00100156
0.0010015
0.00100143
0.00100137
0.00100132
0.00100127
0.00100121
0.00100117
0.00100112
0.00100107
0.00100102
0.00100097
0.00100093
0.00100089
0.00100084
0.0010008
0.00100076
0.00100072
0.00100068
0.00100064
0.00100061
0.00100057
0.00100054
0.0010005
0.00100047
0.00100044
0.00100042
0.00100039
0.00100036
0.00100033
0.0010003
0.00100028
0.00100026
0.00100024
0.00100022
0.0010002
0.00100018
0.00100017
0.00100015
0.00100014
0.00100013
0.00100012
0.00100011
0.0010001
0.00100009
0.00100008
0.00100008
0.00100007
0.00100006
0.00100006
0.00100005
0.00100005
0.00100005
0.00100004
0.00100004
0.00100004
0.00100003
0.00100003
0.00100003
0.00100003
0.00100002
0.00100002
0.00100002
0.00100002
0.00100002
0.00100002
0.00100002
0.00100001
0.00100001
0.00100001
0.00100001
0.00100001
0.00100001
0.00100001
0.00100001
0.00100001
0.00100001
0.00100001
0.001
0.001
0.001
0.001
0.001
0.001
0.000999998
0.000999997
0.000999997
0.000999996
0.000999996
0.000999995
0.000999994
0.000999994
0.000999994
0.000999993
0.000999991
0.00099999
0.00099999
0.000999989
0.000999988
0.000999987
0.000999985
0.000999984
0.000999983
0.000999981
0.00099998
0.000999979
0.000999978
0.000999977
0.000999976
0.000999975
0.000999974
0.000999973
0.000999972
0.00099997
0.000999969
0.000999967
0.000999966
0.000999965
0.000999963
0.000999962
0.000999961
0.00099996
0.00099996
0.000999959
0.000999959
0.000999958
0.000999958
0.000999957
0.000999957
0.000999956
0.000999955
0.000999954
0.000999953
0.000999952
0.00099995
0.000999949
0.000999948
0.000999947
0.000999946
0.000999945
0.000999945
0.000999944
0.000999944
0.000999944
0.000999943
0.000999943
0.000999943
0.000999943
0.000999942
0.000999942
0.000999941
0.000999941
0.00099994
0.000999939
0.000999939
0.000999938
0.000999938
0.000999938
0.000999938
0.000999938
0.000999938
0.000999938
0.000999937
0.000999937
0.000999937
0.000999936
0.000999936
0.000999935
0.000999935
0.000999935
0.000999935
0.000999935
0.000999934
0.000999935
0.000999935
0.000999935
0.000999934
0.000999934
0.000999934
0.000999933
0.000999933
0.000999933
0.000999932
0.000999932
0.000999932
0.000999932
0.000999932
0.000999932
0.000999932
0.000999932
0.000999931
0.000999931
0.000999931
0.000999931
0.000999931
0.000999931
0.00099993
0.00099993
0.00099993
0.00099993
0.00099993
0.00099993
0.00099993
0.00099993
0.000999929
0.000999929
0.000999929
0.000999929
0.000999929
0.000999929
0.000999929
0.000999929
0.000999929
0.000999928
0.000999928
0.000999928
0.000999928
0.000999928
0.000999928
0.000999928
0.000999928
0.000999928
0.000999928
0.000999928
0.000999928
0.000999928
0.000999928
0.000999928
0.000999927
0.000999927
0.000999927
0.000999927
0.000999927
0.000999927
0.000999927
0.000999927
0.000999927
0.000999927
0.000999927
0.000999927
0.000999927
0.000999926
0.000999926
0.000999926
0.000999926
0.000999926
0.000999926
0.000999926
0.000999926
0.000999926
0.000999926
0.000999926
0.000999926
0.000999926
0.000999926
0.000999926
0.000999926
0.000999926
0.000999926
0.000999926
0.000999926
0.000999926
0.000999926
0.000999926
0.000999926
0.000999926
0.000999926
0.000999926
0.000999926
0.000999926
0.000999926
0.000999926
0.000999926
0.000999926
0.000999926
0.000999926
0.000999926
0.000999926
0.000999926
0.000999926
0.000999925
0.000999926
0.000999925
0.000999925
0.000999925
0.000999926
0.000999925
0.000999925
0.000999925
0.000999925
0.000999925
0.000999925
0.000999927
0.000999926
0.000999926
0.000999931
0.000999929
0.000999926
0.000999925
0.000999924
0.000999924
0.000999924
0.000999924
0.000999924
0.000999924
0.000999924
0.000999924
0.000999924
0.000999924
0.000999923
0.000999923
0.000999923
0.000999923
0.000999923
0.000999923
0.000999923
0.000999923
0.000999923
0.000999923
0.000999923
0.000999923
0.000999923
0.000999923
0.000999923
0.000999923
0.000999924
0.000999924
0.000999924
0.000999925
0.000999925
0.000999925
0.000999925
0.000999925
0.000999925
0.000999925
0.000999925
0.000999925
0.000999926
0.000999926
0.000999926
0.000999926
0.000999926
0.000999926
0.000999927
0.000999927
0.000999927
0.000999927
0.000999928
0.000999928
0.000999928
0.000999928
0.000999928
0.000999928
0.000999928
0.000999928
0.000999928
0.000999928
0.000999928
0.000999928
0.000999929
0.000999929
0.000999929
0.000999929
0.000999929
0.000999928
0.000999928
0.000999928
0.000999928
0.000999928
0.000999928
0.000999928
0.000999928
0.000999928
0.000999929
0.00099993
0.000999928
0.00099993
0.000999928
0.000999928
0.000999928
0.000999932
0.000999928
0.000999928
0.000999928
0.000999929