/*--------------------------------*- C++ -*----------------------------------*\
| =========                 |                                                 |
| \\      /  F ield         | OpenFOAM: The Open Source CFD Toolbox           |
|  \\    /   O peration     | Version:  v2006                                 |
|   \\  /    A nd           | Website:  www.openfoam.com                      |
|    \\/     M anipulation  |                                                 |
\*---------------------------------------------------------------------------*/
FoamFile
{
    version     2.0;
    format      ascii;
    class       volScalarField;
    location    "1";
    object      p;
}
// * * * * * * * * * * * * * * * * * * * * * * * * * * * * * * * * * * * * * //

dimensions      [1 -1 -2 0 0 0 0];


internalField   nonuniform List<scalar> 
33000
(
7701.82
7700.62
7699.36
7698.13
7696.91
7695.71
7694.54
7693.4
7692.28
7691.19
7690.14
7689.11
7688.12
7687.16
7686.23
7685.34
7684.49
7683.67
7682.89
7682.14
7681.43
7680.76
7680.13
7679.54
7678.98
7678.47
7677.99
7677.55
7677.15
7676.78
7676.45
7676.16
7675.91
7675.69
7675.51
7675.36
7675.25
7675.17
7675.13
7675.12
7675.14
7675.2
7675.28
7675.4
7675.54
7675.71
7675.91
7676.12
7676.36
7676.61
7676.89
7677.18
7677.48
7677.81
7678.15
7678.51
7678.88
7679.26
7679.67
7680.08
7680.51
7680.96
7681.42
7681.89
7682.37
7682.86
7683.36
7683.86
7684.37
7684.89
7685.4
7685.92
7686.44
7686.95
7687.45
7687.94
7688.4
7688.81
7689.22
7690.08
7690.7
7691.36
7692.04
7692.71
7693.4
7694.12
7694.83
7695.55
7696.27
7696.99
7697.72
7698.45
7699.18
7699.92
7700.65
7701.38
7702.11
7702.83
7703.53
7704.26
7705.03
7705.77
7706.51
7707.24
7707.97
7708.69
7709.41
7710.11
7710.8
7711.49
7712.16
7712.82
7713.48
7714.12
7714.76
7715.38
7715.98
7716.6
7717.24
7717.86
7718.46
7719.07
7719.66
7720.24
7720.82
7721.39
7721.95
7722.49
7723.03
7723.56
7724.08
7724.59
7725.09
7725.58
7726.06
7726.53
7726.99
7727.44
7727.89
7728.32
7728.74
7729.16
7729.57
7729.96
7730.35
7730.74
7731.11
7731.47
7731.83
7732.18
7732.52
7732.85
7733.17
7733.49
7733.79
7734.09
7734.38
7734.66
7734.93
7735.2
7735.46
7735.71
7735.96
7736.2
7736.43
7736.65
7736.87
7737.09
7737.29
7737.5
7737.69
7737.89
7738.07
7738.25
7738.43
7738.6
7738.77
7738.93
7739.09
7739.24
7739.39
7739.53
7739.67
7739.8
7739.93
7740.06
7740.18
7740.3
7740.41
7740.52
7740.63
7740.73
7740.83
7740.93
7741.02
7741.11
7741.2
7741.28
7741.36
7741.44
7741.51
7741.58
7741.65
7741.72
7741.78
7741.84
7741.9
7741.95
7742
7742.05
7742.1
7742.15
7742.19
7742.23
7742.27
7742.31
7742.35
7742.38
7742.42
7742.45
7742.48
7742.5
7742.53
7742.56
7742.58
7742.6
7742.62
7742.64
7742.66
7742.68
7742.7
7742.71
7742.73
7742.74
7742.75
7742.76
7742.77
7742.78
7742.79
7742.8
7742.81
7742.81
7742.82
7742.82
7742.83
7742.83
7742.83
7742.84
7742.84
7742.84
7742.84
7742.84
7742.84
7742.84
7742.84
7742.84
7742.84
7742.84
7742.84
7742.84
7742.83
7742.83
7742.83
7742.82
7742.82
7742.82
7742.81
7742.81
7742.8
7742.8
7742.79
7742.79
7742.78
7742.78
7742.77
7742.76
7742.76
7742.75
7742.75
7742.74
7742.73
7742.73
7742.72
7742.71
7742.71
7742.7
7742.69
7742.68
7742.68
7742.67
7742.66
7742.66
7742.65
7742.64
7742.63
7742.63
7742.62
7742.61
7742.61
7742.6
7742.59
7742.58
7742.58
7742.57
7742.56
7742.55
7742.55
7742.54
7742.53
7742.53
7742.52
7742.51
7742.5
7742.5
7742.49
7742.48
7742.48
7742.47
7742.46
7742.46
7742.45
7742.44
7742.44
7742.43
7742.43
7742.42
7742.41
7742.41
7742.4
7742.39
7742.39
7742.38
7742.38
7742.37
7742.36
7742.36
7742.35
7742.35
7742.34
7742.34
7742.33
7742.33
7742.32
7742.32
7742.31
7742.31
7742.3
7742.3
7742.29
7742.29
7742.28
7742.28
7742.27
7742.27
7742.26
7742.26
7742.25
7742.25
7742.25
7742.24
7742.24
7742.23
7742.23
7742.23
7742.22
7742.22
7742.21
7742.21
7742.21
7742.2
7742.2
7742.2
7742.19
7742.19
7742.19
7742.18
7742.18
7742.18
7742.17
7742.17
7742.17
7742.17
7742.16
7742.16
7742.16
7742.16
7742.15
7742.15
7742.15
7742.15
7742.14
7742.14
7742.14
7742.14
7742.14
7742.13
7742.13
7742.13
7742.13
7742.13
7742.12
7742.12
7742.12
7742.12
7742.12
7742.11
7742.11
7742.11
7742.11
7742.11
7742.11
7742.11
7742.1
7742.1
7742.1
7742.1
7742.1
7742.1
7742.1
7742.1
7742.1
7742.09
7742.09
7742.09
7742.09
7742.09
7742.09
7742.09
7742.09
7742.09
7742.09
7742.09
7742.09
7742.08
7742.08
7742.08
7742.08
7742.08
7742.08
7742.08
7742.08
7742.08
7742.08
7742.08
7742.08
7742.08
7742.08
7742.08
7742.08
7742.08
7742.08
7742.07
7742.07
7742.07
7742.07
7742.07
7742.07
7742.07
7742.07
7742.07
7742.07
7742.07
7742.07
7742.07
7742.07
7742.07
7742.07
7742.07
7742.07
7742.07
7742.07
7742.07
7742.07
7742.07
7742.07
7742.07
7742.07
7742.07
7742.07
7742.07
7742.07
7742.07
7742.07
7742.07
7742.07
7742.07
7742.07
7742.07
7742.06
7742.06
7742.06
7742.06
7742.06
7742.06
7742.06
7742.06
7742.06
7742.06
7742.06
7742.06
7742.06
7742.06
7742.06
7742.06
7742.06
7742.06
7742.06
7742.06
7742.06
7742.06
7742.06
7742.06
7742.06
7742.06
7742.06
7742.06
7742.06
7742.06
7742.06
7742.06
7742.06
7742.06
7742.06
7742.06
7742.06
7742.06
7742.06
7742.06
7742.06
7742.06
7742.06
7742.06
7742.06
7742.06
7742.06
7742.06
7742.06
7742.06
7742.06
7742.06
7742.06
7742.06
7742.06
7742.06
7742.06
7742.06
7742.06
7742.06
7742.06
7742.06
7505.46
7504.25
7502.99
7501.76
7500.55
7499.37
7498.21
7497.07
7495.96
7494.88
7493.83
7492.81
7491.82
7490.87
7489.95
7489.06
7488.21
7487.4
7486.62
7485.88
7485.17
7484.51
7483.88
7483.29
7482.74
7482.23
7481.75
7481.31
7480.91
7480.55
7480.22
7479.93
7479.68
7479.47
7479.29
7479.14
7479.03
7478.96
7478.92
7478.91
7478.93
7478.98
7479.06
7479.18
7479.31
7479.48
7479.67
7479.88
7480.11
7480.37
7480.64
7480.93
7481.24
7481.57
7481.92
7482.28
7482.66
7483.05
7483.46
7483.88
7484.32
7484.78
7485.24
7485.72
7486.2
7486.7
7487.2
7487.71
7488.23
7488.75
7489.28
7489.8
7490.33
7490.85
7491.37
7491.89
7492.4
7492.91
7493.45
7493.97
7494.42
7494.93
7495.88
7496.59
7497.31
7498
7498.69
7499.39
7500.09
7500.84
7501.57
7502.3
7503.04
7503.77
7504.51
7505.24
7505.97
7506.71
7507.43
7508.16
7508.9
7509.61
7510.34
7511.1
7511.83
7512.55
7513.26
7513.96
7514.66
7515.34
7516.02
7516.68
7517.34
7517.99
7518.62
7519.25
7519.88
7520.49
7521.1
7521.7
7522.3
7522.92
7523.51
7524.09
7524.67
7525.24
7525.79
7526.34
7526.88
7527.41
7527.93
7528.44
7528.94
7529.43
7529.91
7530.38
7530.83
7531.29
7531.73
7532.16
7532.58
7533
7533.4
7533.8
7534.19
7534.57
7534.94
7535.31
7535.66
7536.01
7536.35
7536.68
7537
7537.31
7537.62
7537.92
7538.21
7538.49
7538.76
7539.03
7539.28
7539.54
7539.78
7540.02
7540.25
7540.48
7540.69
7540.91
7541.12
7541.32
7541.51
7541.71
7541.89
7542.07
7542.25
7542.42
7542.58
7542.75
7542.9
7543.05
7543.2
7543.34
7543.48
7543.62
7543.75
7543.87
7543.99
7544.11
7544.23
7544.34
7544.44
7544.54
7544.64
7544.74
7544.83
7544.92
7545.01
7545.09
7545.17
7545.24
7545.32
7545.39
7545.46
7545.52
7545.58
7545.64
7545.7
7545.76
7545.81
7545.86
7545.91
7545.95
7546
7546.04
7546.08
7546.12
7546.15
7546.19
7546.22
7546.25
7546.28
7546.31
7546.33
7546.36
7546.38
7546.4
7546.42
7546.44
7546.46
7546.48
7546.5
7546.51
7546.53
7546.54
7546.55
7546.56
7546.57
7546.58
7546.59
7546.6
7546.61
7546.61
7546.62
7546.62
7546.63
7546.63
7546.63
7546.64
7546.64
7546.64
7546.64
7546.64
7546.64
7546.64
7546.64
7546.64
7546.64
7546.64
7546.64
7546.63
7546.63
7546.63
7546.63
7546.62
7546.62
7546.61
7546.61
7546.61
7546.6
7546.6
7546.59
7546.59
7546.58
7546.57
7546.57
7546.56
7546.56
7546.55
7546.54
7546.54
7546.53
7546.53
7546.52
7546.51
7546.5
7546.5
7546.49
7546.48
7546.48
7546.47
7546.46
7546.46
7546.45
7546.44
7546.43
7546.43
7546.42
7546.41
7546.4
7546.4
7546.39
7546.38
7546.38
7546.37
7546.36
7546.35
7546.35
7546.34
7546.33
7546.32
7546.32
7546.31
7546.3
7546.3
7546.29
7546.28
7546.28
7546.27
7546.26
7546.26
7546.25
7546.24
7546.24
7546.23
7546.22
7546.22
7546.21
7546.21
7546.2
7546.19
7546.19
7546.18
7546.18
7546.17
7546.16
7546.16
7546.15
7546.15
7546.14
7546.14
7546.13
7546.13
7546.12
7546.11
7546.11
7546.1
7546.1
7546.09
7546.09
7546.08
7546.08
7546.08
7546.07
7546.07
7546.06
7546.06
7546.05
7546.05
7546.04
7546.04
7546.04
7546.03
7546.03
7546.02
7546.02
7546.02
7546.01
7546.01
7546.01
7546
7546
7546
7545.99
7545.99
7545.99
7545.98
7545.98
7545.98
7545.97
7545.97
7545.97
7545.97
7545.96
7545.96
7545.96
7545.96
7545.95
7545.95
7545.95
7545.95
7545.94
7545.94
7545.94
7545.94
7545.93
7545.93
7545.93
7545.93
7545.93
7545.92
7545.92
7545.92
7545.92
7545.92
7545.92
7545.91
7545.91
7545.91
7545.91
7545.91
7545.91
7545.91
7545.9
7545.9
7545.9
7545.9
7545.9
7545.9
7545.9
7545.9
7545.9
7545.89
7545.89
7545.89
7545.89
7545.89
7545.89
7545.89
7545.89
7545.89
7545.89
7545.89
7545.89
7545.88
7545.88
7545.88
7545.88
7545.88
7545.88
7545.88
7545.88
7545.88
7545.88
7545.88
7545.88
7545.88
7545.88
7545.88
7545.88
7545.88
7545.88
7545.87
7545.87
7545.87
7545.87
7545.87
7545.87
7545.87
7545.87
7545.87
7545.87
7545.87
7545.87
7545.87
7545.87
7545.87
7545.87
7545.87
7545.87
7545.87
7545.87
7545.87
7545.87
7545.87
7545.87
7545.87
7545.87
7545.87
7545.87
7545.87
7545.87
7545.87
7545.87
7545.87
7545.87
7545.87
7545.87
7545.87
7545.87
7545.86
7545.86
7545.86
7545.86
7545.86
7545.86
7545.86
7545.86
7545.86
7545.86
7545.86
7545.86
7545.86
7545.86
7545.86
7545.86
7545.86
7545.86
7545.86
7545.86
7545.86
7545.86
7545.86
7545.86
7545.86
7545.86
7545.86
7545.86
7545.86
7545.86
7545.86
7545.86
7545.86
7545.86
7545.86
7545.86
7545.86
7545.86
7545.86
7545.86
7545.86
7545.86
7545.86
7545.86
7545.86
7545.86
7545.86
7545.86
7545.86
7545.86
7545.86
7545.86
7545.86
7545.86
7545.86
7545.86
7545.86
7545.86
7545.86
7545.86
7545.86
7309.16
7307.92
7306.64
7305.4
7304.19
7303
7301.84
7300.7
7299.59
7298.51
7297.46
7296.44
7295.45
7294.5
7293.58
7292.7
7291.85
7291.04
7290.27
7289.53
7288.83
7288.17
7287.54
7286.96
7286.41
7285.9
7285.43
7284.99
7284.6
7284.24
7283.91
7283.63
7283.38
7283.17
7283
7282.86
7282.75
7282.68
7282.64
7282.63
7282.65
7282.7
7282.77
7282.88
7283.01
7283.17
7283.36
7283.57
7283.8
7284.06
7284.34
7284.64
7284.96
7285.29
7285.65
7286.02
7286.41
7286.82
7287.24
7287.67
7288.12
7288.58
7289.06
7289.54
7290.04
7290.55
7291.06
7291.58
7292.11
7292.64
7293.17
7293.71
7294.25
7294.79
7295.33
7295.86
7296.4
7296.95
7297.51
7298.08
7298.65
7299.24
7299.81
7300.3
7300.84
7301.85
7302.58
7303.35
7304.03
7304.74
7305.44
7306.15
7306.91
7307.64
7308.38
7309.12
7309.86
7310.6
7311.33
7312.07
7312.81
7313.54
7314.26
7314.98
7315.68
7316.4
7317.13
7317.84
7318.54
7319.22
7319.9
7320.56
7321.22
7321.87
7322.52
7323.15
7323.77
7324.39
7325.01
7325.61
7326.21
7326.8
7327.38
7327.96
7328.54
7329.11
7329.67
7330.22
7330.75
7331.28
7331.8
7332.31
7332.8
7333.29
7333.77
7334.24
7334.7
7335.15
7335.59
7336.02
7336.44
7336.86
7337.26
7337.66
7338.05
7338.43
7338.8
7339.16
7339.52
7339.86
7340.2
7340.53
7340.85
7341.16
7341.47
7341.76
7342.05
7342.33
7342.6
7342.87
7343.13
7343.38
7343.62
7343.86
7344.09
7344.31
7344.53
7344.75
7344.95
7345.15
7345.35
7345.54
7345.73
7345.91
7346.08
7346.25
7346.42
7346.58
7346.73
7346.88
7347.03
7347.17
7347.31
7347.44
7347.57
7347.7
7347.82
7347.93
7348.05
7348.16
7348.26
7348.36
7348.46
7348.56
7348.65
7348.74
7348.82
7348.91
7348.98
7349.06
7349.13
7349.2
7349.27
7349.33
7349.4
7349.46
7349.51
7349.57
7349.62
7349.67
7349.72
7349.76
7349.8
7349.85
7349.89
7349.92
7349.96
7349.99
7350.03
7350.06
7350.08
7350.11
7350.14
7350.16
7350.19
7350.21
7350.23
7350.25
7350.27
7350.28
7350.3
7350.31
7350.33
7350.34
7350.35
7350.36
7350.37
7350.38
7350.39
7350.4
7350.41
7350.41
7350.42
7350.42
7350.43
7350.43
7350.44
7350.44
7350.44
7350.44
7350.44
7350.44
7350.44
7350.44
7350.44
7350.44
7350.44
7350.44
7350.44
7350.43
7350.43
7350.43
7350.43
7350.42
7350.42
7350.41
7350.41
7350.41
7350.4
7350.4
7350.39
7350.38
7350.38
7350.37
7350.37
7350.36
7350.36
7350.35
7350.34
7350.34
7350.33
7350.32
7350.32
7350.31
7350.3
7350.3
7350.29
7350.28
7350.28
7350.27
7350.26
7350.25
7350.25
7350.24
7350.23
7350.23
7350.22
7350.21
7350.2
7350.2
7350.19
7350.18
7350.17
7350.17
7350.16
7350.15
7350.15
7350.14
7350.13
7350.12
7350.12
7350.11
7350.1
7350.1
7350.09
7350.08
7350.07
7350.07
7350.06
7350.05
7350.05
7350.04
7350.04
7350.03
7350.02
7350.02
7350.01
7350
7350
7349.99
7349.99
7349.98
7349.97
7349.97
7349.96
7349.96
7349.95
7349.95
7349.94
7349.93
7349.93
7349.92
7349.92
7349.91
7349.91
7349.9
7349.9
7349.89
7349.89
7349.88
7349.88
7349.87
7349.87
7349.87
7349.86
7349.86
7349.85
7349.85
7349.84
7349.84
7349.84
7349.83
7349.83
7349.82
7349.82
7349.82
7349.81
7349.81
7349.81
7349.8
7349.8
7349.8
7349.79
7349.79
7349.79
7349.78
7349.78
7349.78
7349.77
7349.77
7349.77
7349.77
7349.76
7349.76
7349.76
7349.76
7349.75
7349.75
7349.75
7349.75
7349.74
7349.74
7349.74
7349.74
7349.73
7349.73
7349.73
7349.73
7349.73
7349.72
7349.72
7349.72
7349.72
7349.72
7349.72
7349.71
7349.71
7349.71
7349.71
7349.71
7349.71
7349.71
7349.7
7349.7
7349.7
7349.7
7349.7
7349.7
7349.7
7349.7
7349.7
7349.69
7349.69
7349.69
7349.69
7349.69
7349.69
7349.69
7349.69
7349.69
7349.69
7349.69
7349.69
7349.68
7349.68
7349.68
7349.68
7349.68
7349.68
7349.68
7349.68
7349.68
7349.68
7349.68
7349.68
7349.68
7349.68
7349.68
7349.68
7349.68
7349.68
7349.67
7349.67
7349.67
7349.67
7349.67
7349.67
7349.67
7349.67
7349.67
7349.67
7349.67
7349.67
7349.67
7349.67
7349.67
7349.67
7349.67
7349.67
7349.67
7349.67
7349.67
7349.67
7349.67
7349.67
7349.67
7349.67
7349.67
7349.67
7349.67
7349.67
7349.67
7349.67
7349.67
7349.67
7349.67
7349.67
7349.67
7349.67
7349.67
7349.66
7349.66
7349.66
7349.66
7349.66
7349.66
7349.66
7349.66
7349.66
7349.66
7349.66
7349.66
7349.66
7349.66
7349.66
7349.66
7349.66
7349.66
7349.66
7349.66
7349.66
7349.66
7349.66
7349.66
7349.66
7349.66
7349.66
7349.66
7349.66
7349.66
7349.66
7349.66
7349.66
7349.66
7349.66
7349.66
7349.66
7349.66
7349.66
7349.66
7349.66
7349.66
7349.66
7349.66
7349.66
7349.66
7349.66
7349.66
7349.66
7349.66
7349.66
7349.66
7349.66
7349.66
7349.66
7349.66
7349.66
7349.66
7349.66
7349.66
7112.85
7111.6
7110.31
7109.06
7107.83
7106.63
7105.45
7104.3
7103.18
7102.1
7101.04
7100.01
7099.02
7098.07
7097.15
7096.26
7095.41
7094.6
7093.83
7093.09
7092.39
7091.73
7091.11
7090.53
7089.99
7089.48
7089.01
7088.58
7088.19
7087.83
7087.52
7087.24
7086.99
7086.78
7086.61
7086.47
7086.37
7086.3
7086.26
7086.24
7086.26
7086.31
7086.39
7086.5
7086.63
7086.79
7086.98
7087.2
7087.44
7087.7
7087.99
7088.3
7088.63
7088.98
7089.34
7089.73
7090.13
7090.55
7090.98
7091.43
7091.89
7092.36
7092.85
7093.34
7093.85
7094.36
7094.89
7095.42
7095.95
7096.5
7097.04
7097.59
7098.14
7098.7
7099.26
7099.82
7100.38
7100.95
7101.52
7102.11
7102.7
7103.3
7103.93
7104.55
7105.2
7105.84
7106.44
7106.95
7107.51
7108.53
7109.28
7110.03
7110.76
7111.48
7112.22
7112.98
7113.73
7114.47
7115.22
7115.96
7116.69
7117.42
7118.15
7118.88
7119.6
7120.31
7121.02
7121.72
7122.39
7123.08
7123.78
7124.45
7125.11
7125.76
7126.41
7127.04
7127.67
7128.29
7128.91
7129.51
7130.11
7130.71
7131.29
7131.87
7132.44
7132.99
7133.54
7134.1
7134.63
7135.16
7135.68
7136.18
7136.68
7137.17
7137.64
7138.11
7138.57
7139.02
7139.46
7139.89
7140.32
7140.73
7141.13
7141.53
7141.92
7142.3
7142.67
7143.03
7143.38
7143.73
7144.06
7144.39
7144.71
7145.02
7145.33
7145.62
7145.91
7146.19
7146.46
7146.72
7146.98
7147.23
7147.47
7147.71
7147.94
7148.17
7148.38
7148.6
7148.8
7149
7149.2
7149.39
7149.57
7149.75
7149.92
7150.09
7150.26
7150.42
7150.57
7150.72
7150.87
7151.01
7151.14
7151.28
7151.41
7151.53
7151.65
7151.77
7151.88
7151.99
7152.09
7152.19
7152.29
7152.39
7152.48
7152.56
7152.65
7152.73
7152.81
7152.88
7152.95
7153.02
7153.09
7153.15
7153.21
7153.27
7153.33
7153.38
7153.43
7153.48
7153.53
7153.58
7153.62
7153.66
7153.7
7153.74
7153.77
7153.8
7153.84
7153.87
7153.89
7153.92
7153.95
7153.97
7153.99
7154.02
7154.04
7154.06
7154.07
7154.09
7154.11
7154.12
7154.13
7154.15
7154.16
7154.17
7154.18
7154.19
7154.2
7154.2
7154.21
7154.22
7154.22
7154.23
7154.23
7154.24
7154.24
7154.24
7154.24
7154.24
7154.25
7154.25
7154.25
7154.25
7154.24
7154.24
7154.24
7154.24
7154.24
7154.24
7154.23
7154.23
7154.23
7154.22
7154.22
7154.21
7154.21
7154.21
7154.2
7154.2
7154.19
7154.18
7154.18
7154.17
7154.17
7154.16
7154.16
7154.15
7154.14
7154.14
7154.13
7154.12
7154.12
7154.11
7154.1
7154.1
7154.09
7154.08
7154.07
7154.07
7154.06
7154.05
7154.05
7154.04
7154.03
7154.02
7154.02
7154.01
7154
7153.99
7153.99
7153.98
7153.97
7153.97
7153.96
7153.95
7153.94
7153.94
7153.93
7153.92
7153.92
7153.91
7153.9
7153.89
7153.89
7153.88
7153.87
7153.87
7153.86
7153.85
7153.85
7153.84
7153.83
7153.83
7153.82
7153.81
7153.81
7153.8
7153.8
7153.79
7153.78
7153.78
7153.77
7153.77
7153.76
7153.75
7153.75
7153.74
7153.74
7153.73
7153.73
7153.72
7153.72
7153.71
7153.71
7153.7
7153.7
7153.69
7153.69
7153.68
7153.68
7153.67
7153.67
7153.66
7153.66
7153.66
7153.65
7153.65
7153.64
7153.64
7153.63
7153.63
7153.63
7153.62
7153.62
7153.62
7153.61
7153.61
7153.6
7153.6
7153.6
7153.59
7153.59
7153.59
7153.59
7153.58
7153.58
7153.58
7153.57
7153.57
7153.57
7153.56
7153.56
7153.56
7153.56
7153.55
7153.55
7153.55
7153.55
7153.54
7153.54
7153.54
7153.54
7153.54
7153.53
7153.53
7153.53
7153.53
7153.53
7153.52
7153.52
7153.52
7153.52
7153.52
7153.52
7153.51
7153.51
7153.51
7153.51
7153.51
7153.51
7153.51
7153.5
7153.5
7153.5
7153.5
7153.5
7153.5
7153.5
7153.5
7153.5
7153.49
7153.49
7153.49
7153.49
7153.49
7153.49
7153.49
7153.49
7153.49
7153.49
7153.49
7153.49
7153.48
7153.48
7153.48
7153.48
7153.48
7153.48
7153.48
7153.48
7153.48
7153.48
7153.48
7153.48
7153.48
7153.48
7153.48
7153.48
7153.48
7153.48
7153.47
7153.47
7153.47
7153.47
7153.47
7153.47
7153.47
7153.47
7153.47
7153.47
7153.47
7153.47
7153.47
7153.47
7153.47
7153.47
7153.47
7153.47
7153.47
7153.47
7153.47
7153.47
7153.47
7153.47
7153.47
7153.47
7153.47
7153.47
7153.47
7153.47
7153.47
7153.47
7153.47
7153.47
7153.47
7153.47
7153.47
7153.47
7153.47
7153.47
7153.46
7153.46
7153.46
7153.46
7153.46
7153.46
7153.46
7153.46
7153.46
7153.46
7153.46
7153.46
7153.46
7153.46
7153.46
7153.46
7153.46
7153.46
7153.46
7153.46
7153.46
7153.46
7153.46
7153.46
7153.46
7153.46
7153.46
7153.46
7153.46
7153.46
7153.46
7153.46
7153.46
7153.46
7153.46
7153.46
7153.46
7153.46
7153.46
7153.46
7153.46
7153.46
7153.46
7153.46
7153.46
7153.46
7153.46
7153.46
7153.46
7153.46
7153.46
7153.46
7153.46
7153.46
7153.46
7153.46
7153.46
7153.46
7153.46
6916.49
6915.24
6913.93
6912.67
6911.43
6910.21
6909.02
6907.86
6906.73
6905.63
6904.56
6903.53
6902.53
6901.57
6900.64
6899.75
6898.9
6898.08
6897.31
6896.57
6895.87
6895.21
6894.59
6894.01
6893.47
6892.96
6892.5
6892.07
6891.68
6891.33
6891.02
6890.74
6890.49
6890.29
6890.12
6889.98
6889.87
6889.8
6889.76
6889.76
6889.78
6889.83
6889.92
6890.03
6890.17
6890.34
6890.54
6890.76
6891.01
6891.29
6891.59
6891.91
6892.25
6892.62
6893
6893.4
6893.82
6894.25
6894.7
6895.16
6895.63
6896.12
6896.61
6897.12
6897.64
6898.16
6898.7
6899.24
6899.79
6900.34
6900.9
6901.46
6902.03
6902.6
6903.17
6903.75
6904.34
6904.92
6905.52
6906.12
6906.73
6907.34
6907.97
6908.6
6909.24
6909.9
6910.54
6911.18
6911.82
6912.44
6912.97
6913.54
6914.59
6915.35
6916.11
6916.85
6917.58
6918.32
6919.09
6919.83
6920.57
6921.31
6922.04
6922.76
6923.48
6924.2
6924.91
6925.61
6926.31
6926.99
6927.67
6928.32
6928.99
6929.66
6930.31
6930.94
6931.58
6932.2
6932.81
6933.42
6934.02
6934.62
6935.2
6935.78
6936.34
6936.9
6937.45
6937.99
6938.51
6939.04
6939.56
6940.07
6940.56
6941.05
6941.53
6942
6942.46
6942.91
6943.35
6943.78
6944.2
6944.61
6945.02
6945.41
6945.8
6946.18
6946.55
6946.91
6947.26
6947.6
6947.94
6948.27
6948.58
6948.89
6949.2
6949.49
6949.78
6950.06
6950.33
6950.59
6950.85
6951.1
6951.34
6951.58
6951.8
6952.03
6952.25
6952.46
6952.66
6952.86
6953.06
6953.24
6953.43
6953.61
6953.78
6953.95
6954.11
6954.27
6954.42
6954.57
6954.72
6954.86
6954.99
6955.12
6955.25
6955.37
6955.49
6955.61
6955.72
6955.83
6955.93
6956.03
6956.13
6956.22
6956.31
6956.4
6956.48
6956.56
6956.64
6956.71
6956.78
6956.85
6956.92
6956.98
6957.04
6957.1
6957.15
6957.21
6957.26
6957.31
6957.35
6957.4
6957.44
6957.48
6957.52
6957.55
6957.59
6957.62
6957.65
6957.68
6957.71
6957.74
6957.76
6957.78
6957.81
6957.83
6957.85
6957.87
6957.88
6957.9
6957.92
6957.93
6957.94
6957.96
6957.97
6957.98
6957.99
6958
6958
6958.01
6958.02
6958.02
6958.03
6958.03
6958.04
6958.04
6958.04
6958.04
6958.05
6958.05
6958.05
6958.05
6958.05
6958.05
6958.05
6958.05
6958.04
6958.04
6958.04
6958.04
6958.03
6958.03
6958.03
6958.02
6958.02
6958.01
6958.01
6958.01
6958
6958
6957.99
6957.99
6957.98
6957.97
6957.97
6957.96
6957.96
6957.95
6957.94
6957.94
6957.93
6957.92
6957.92
6957.91
6957.9
6957.9
6957.89
6957.88
6957.87
6957.87
6957.86
6957.85
6957.84
6957.84
6957.83
6957.82
6957.82
6957.81
6957.8
6957.79
6957.79
6957.78
6957.77
6957.76
6957.76
6957.75
6957.74
6957.74
6957.73
6957.72
6957.71
6957.71
6957.7
6957.69
6957.69
6957.68
6957.67
6957.67
6957.66
6957.65
6957.65
6957.64
6957.63
6957.63
6957.62
6957.61
6957.61
6957.6
6957.59
6957.59
6957.58
6957.58
6957.57
6957.56
6957.56
6957.55
6957.55
6957.54
6957.54
6957.53
6957.53
6957.52
6957.52
6957.51
6957.51
6957.5
6957.5
6957.49
6957.49
6957.48
6957.48
6957.47
6957.47
6957.46
6957.46
6957.45
6957.45
6957.45
6957.44
6957.44
6957.43
6957.43
6957.43
6957.42
6957.42
6957.41
6957.41
6957.41
6957.4
6957.4
6957.4
6957.39
6957.39
6957.39
6957.38
6957.38
6957.38
6957.38
6957.37
6957.37
6957.37
6957.36
6957.36
6957.36
6957.36
6957.35
6957.35
6957.35
6957.35
6957.34
6957.34
6957.34
6957.34
6957.34
6957.33
6957.33
6957.33
6957.33
6957.33
6957.32
6957.32
6957.32
6957.32
6957.32
6957.32
6957.31
6957.31
6957.31
6957.31
6957.31
6957.31
6957.31
6957.3
6957.3
6957.3
6957.3
6957.3
6957.3
6957.3
6957.3
6957.29
6957.29
6957.29
6957.29
6957.29
6957.29
6957.29
6957.29
6957.29
6957.29
6957.29
6957.29
6957.28
6957.28
6957.28
6957.28
6957.28
6957.28
6957.28
6957.28
6957.28
6957.28
6957.28
6957.28
6957.28
6957.28
6957.28
6957.28
6957.28
6957.28
6957.28
6957.27
6957.27
6957.27
6957.27
6957.27
6957.27
6957.27
6957.27
6957.27
6957.27
6957.27
6957.27
6957.27
6957.27
6957.27
6957.27
6957.27
6957.27
6957.27
6957.27
6957.27
6957.27
6957.27
6957.27
6957.27
6957.27
6957.27
6957.27
6957.27
6957.27
6957.27
6957.27
6957.27
6957.27
6957.27
6957.27
6957.27
6957.27
6957.27
6957.27
6957.27
6957.26
6957.26
6957.26
6957.26
6957.26
6957.26
6957.26
6957.26
6957.26
6957.26
6957.26
6957.26
6957.26
6957.26
6957.26
6957.26
6957.26
6957.26
6957.26
6957.26
6957.26
6957.26
6957.26
6957.26
6957.26
6957.26
6957.26
6957.26
6957.26
6957.26
6957.26
6957.26
6957.26
6957.26
6957.26
6957.26
6957.26
6957.26
6957.26
6957.26
6957.26
6957.26
6957.26
6957.26
6957.26
6957.26
6957.26
6957.26
6957.26
6957.26
6957.26
6957.26
6957.26
6957.26
6957.26
6957.26
6957.26
6957.26
6720.16
6718.88
6717.55
6716.27
6715.01
6713.77
6712.56
6711.38
6710.23
6709.12
6708.04
6706.99
6705.98
6705.01
6704.07
6703.18
6702.32
6701.49
6700.71
6699.97
6699.27
6698.6
6697.98
6697.4
6696.85
6696.35
6695.88
6695.45
6695.07
6694.72
6694.4
6694.13
6693.89
6693.68
6693.51
6693.38
6693.28
6693.21
6693.18
6693.18
6693.21
6693.27
6693.37
6693.49
6693.64
6693.82
6694.04
6694.27
6694.54
6694.83
6695.14
6695.48
6695.84
6696.23
6696.62
6697.04
6697.48
6697.92
6698.39
6698.86
6699.35
6699.86
6700.37
6700.89
6701.42
6701.96
6702.5
6703.06
6703.62
6704.19
6704.76
6705.34
6705.92
6706.51
6707.1
6707.69
6708.29
6708.9
6709.51
6710.13
6710.75
6711.38
6712.02
6712.66
6713.31
6713.96
6714.61
6715.25
6715.91
6716.57
6717.22
6717.88
6718.52
6719.07
6719.66
6720.72
6721.48
6722.24
6722.98
6723.71
6724.44
6725.2
6725.93
6726.66
6727.39
6728.11
6728.82
6729.52
6730.22
6730.91
6731.59
6732.26
6732.92
6733.57
6734.21
6734.85
6735.49
6736.12
6736.74
6737.35
6737.95
6738.54
6739.13
6739.7
6740.27
6740.83
6741.37
6741.91
6742.44
6742.96
6743.47
6743.97
6744.46
6744.96
6745.43
6745.9
6746.36
6746.81
6747.25
6747.68
6748.1
6748.52
6748.92
6749.32
6749.7
6750.08
6750.45
6750.81
6751.16
6751.5
6751.83
6752.16
6752.47
6752.78
6753.08
6753.38
6753.66
6753.94
6754.21
6754.47
6754.73
6754.98
6755.22
6755.45
6755.68
6755.91
6756.12
6756.33
6756.54
6756.74
6756.93
6757.12
6757.3
6757.47
6757.65
6757.81
6757.98
6758.13
6758.28
6758.43
6758.58
6758.71
6758.85
6758.98
6759.11
6759.23
6759.35
6759.46
6759.57
6759.68
6759.78
6759.88
6759.97
6760.07
6760.15
6760.24
6760.32
6760.4
6760.48
6760.55
6760.62
6760.69
6760.75
6760.81
6760.87
6760.93
6760.98
6761.04
6761.09
6761.13
6761.18
6761.22
6761.26
6761.3
6761.34
6761.37
6761.41
6761.44
6761.47
6761.5
6761.53
6761.55
6761.58
6761.6
6761.62
6761.64
6761.66
6761.68
6761.7
6761.71
6761.73
6761.74
6761.75
6761.77
6761.78
6761.79
6761.8
6761.8
6761.81
6761.82
6761.82
6761.83
6761.84
6761.84
6761.84
6761.85
6761.85
6761.85
6761.85
6761.85
6761.85
6761.85
6761.85
6761.85
6761.85
6761.85
6761.85
6761.84
6761.84
6761.84
6761.84
6761.83
6761.83
6761.83
6761.82
6761.82
6761.81
6761.81
6761.8
6761.8
6761.79
6761.79
6761.78
6761.77
6761.77
6761.76
6761.76
6761.75
6761.74
6761.74
6761.73
6761.72
6761.72
6761.71
6761.7
6761.7
6761.69
6761.68
6761.67
6761.67
6761.66
6761.65
6761.64
6761.64
6761.63
6761.62
6761.61
6761.61
6761.6
6761.59
6761.59
6761.58
6761.57
6761.56
6761.56
6761.55
6761.54
6761.53
6761.53
6761.52
6761.51
6761.51
6761.5
6761.49
6761.48
6761.48
6761.47
6761.46
6761.46
6761.45
6761.44
6761.44
6761.43
6761.42
6761.42
6761.41
6761.41
6761.4
6761.39
6761.39
6761.38
6761.37
6761.37
6761.36
6761.36
6761.35
6761.35
6761.34
6761.33
6761.33
6761.32
6761.32
6761.31
6761.31
6761.3
6761.3
6761.29
6761.29
6761.28
6761.28
6761.27
6761.27
6761.27
6761.26
6761.26
6761.25
6761.25
6761.24
6761.24
6761.24
6761.23
6761.23
6761.22
6761.22
6761.22
6761.21
6761.21
6761.21
6761.2
6761.2
6761.2
6761.19
6761.19
6761.19
6761.18
6761.18
6761.18
6761.17
6761.17
6761.17
6761.17
6761.16
6761.16
6761.16
6761.16
6761.15
6761.15
6761.15
6761.15
6761.14
6761.14
6761.14
6761.14
6761.13
6761.13
6761.13
6761.13
6761.13
6761.12
6761.12
6761.12
6761.12
6761.12
6761.12
6761.11
6761.11
6761.11
6761.11
6761.11
6761.11
6761.11
6761.1
6761.1
6761.1
6761.1
6761.1
6761.1
6761.1
6761.1
6761.1
6761.09
6761.09
6761.09
6761.09
6761.09
6761.09
6761.09
6761.09
6761.09
6761.09
6761.09
6761.09
6761.08
6761.08
6761.08
6761.08
6761.08
6761.08
6761.08
6761.08
6761.08
6761.08
6761.08
6761.08
6761.08
6761.08
6761.08
6761.08
6761.08
6761.08
6761.08
6761.07
6761.07
6761.07
6761.07
6761.07
6761.07
6761.07
6761.07
6761.07
6761.07
6761.07
6761.07
6761.07
6761.07
6761.07
6761.07
6761.07
6761.07
6761.07
6761.07
6761.07
6761.07
6761.07
6761.07
6761.07
6761.07
6761.07
6761.07
6761.07
6761.07
6761.07
6761.07
6761.07
6761.07
6761.07
6761.07
6761.07
6761.07
6761.07
6761.07
6761.07
6761.06
6761.06
6761.06
6761.06
6761.06
6761.06
6761.06
6761.06
6761.06
6761.06
6761.06
6761.06
6761.06
6761.06
6761.06
6761.06
6761.06
6761.06
6761.06
6761.06
6761.06
6761.06
6761.06
6761.06
6761.06
6761.06
6761.06
6761.06
6761.06
6761.06
6761.06
6761.06
6761.06
6761.06
6761.06
6761.06
6761.06
6761.06
6761.06
6761.06
6761.06
6761.06
6761.06
6761.06
6761.06
6761.06
6761.06
6761.06
6761.06
6761.06
6761.06
6761.06
6761.06
6761.06
6761.06
6761.06
6761.06
6761.06
6523.8
6522.5
6521.14
6519.84
6518.55
6517.29
6516.06
6514.86
6513.69
6512.56
6511.47
6510.4
6509.38
6508.39
6507.44
6506.53
6505.66
6504.83
6504.03
6503.28
6502.57
6501.9
6501.27
6500.68
6500.13
6499.63
6499.16
6498.73
6498.34
6498
6497.69
6497.42
6497.18
6496.99
6496.82
6496.7
6496.61
6496.55
6496.53
6496.54
6496.59
6496.66
6496.77
6496.91
6497.08
6497.27
6497.5
6497.75
6498.03
6498.34
6498.67
6499.03
6499.41
6499.8
6500.22
6500.65
6501.11
6501.57
6502.05
6502.55
6503.05
6503.57
6504.1
6504.63
6505.18
6505.73
6506.29
6506.86
6507.44
6508.02
6508.61
6509.2
6509.8
6510.41
6511.02
6511.63
6512.25
6512.87
6513.5
6514.13
6514.77
6515.41
6516.06
6516.71
6517.36
6518.02
6518.68
6519.34
6520
6520.67
6521.33
6522
6522.67
6523.34
6524.01
6524.66
6525.22
6525.82
6526.87
6527.64
6528.38
6529.12
6529.83
6530.56
6531.31
6532.03
6532.74
6533.45
6534.15
6534.84
6535.52
6536.19
6536.86
6537.51
6538.16
6538.8
6539.43
6540.04
6540.66
6541.28
6541.89
6542.48
6543.07
6543.64
6544.21
6544.76
6545.31
6545.85
6546.38
6546.89
6547.4
6547.9
6548.4
6548.88
6549.36
6549.81
6550.27
6550.73
6551.17
6551.6
6552.02
6552.44
6552.84
6553.23
6553.62
6553.99
6554.36
6554.72
6555.07
6555.41
6555.74
6556.06
6556.38
6556.69
6556.99
6557.28
6557.56
6557.84
6558.11
6558.37
6558.62
6558.87
6559.11
6559.35
6559.57
6559.8
6560.01
6560.22
6560.42
6560.62
6560.81
6561
6561.18
6561.36
6561.53
6561.69
6561.85
6562.01
6562.16
6562.31
6562.45
6562.59
6562.72
6562.85
6562.97
6563.09
6563.21
6563.32
6563.43
6563.54
6563.64
6563.73
6563.83
6563.92
6564.01
6564.09
6564.17
6564.25
6564.32
6564.4
6564.46
6564.53
6564.59
6564.65
6564.71
6564.77
6564.82
6564.87
6564.92
6564.97
6565.01
6565.05
6565.09
6565.13
6565.17
6565.2
6565.23
6565.27
6565.3
6565.32
6565.35
6565.38
6565.4
6565.42
6565.44
6565.46
6565.48
6565.5
6565.51
6565.53
6565.54
6565.56
6565.57
6565.58
6565.59
6565.6
6565.61
6565.62
6565.62
6565.63
6565.63
6565.64
6565.64
6565.65
6565.65
6565.65
6565.66
6565.66
6565.66
6565.66
6565.66
6565.66
6565.66
6565.66
6565.66
6565.65
6565.65
6565.65
6565.65
6565.64
6565.64
6565.64
6565.63
6565.63
6565.62
6565.62
6565.61
6565.61
6565.6
6565.6
6565.59
6565.59
6565.58
6565.58
6565.57
6565.56
6565.56
6565.55
6565.54
6565.54
6565.53
6565.52
6565.52
6565.51
6565.5
6565.5
6565.49
6565.48
6565.47
6565.47
6565.46
6565.45
6565.44
6565.44
6565.43
6565.42
6565.41
6565.41
6565.4
6565.39
6565.38
6565.38
6565.37
6565.36
6565.36
6565.35
6565.34
6565.33
6565.33
6565.32
6565.31
6565.3
6565.3
6565.29
6565.28
6565.28
6565.27
6565.26
6565.26
6565.25
6565.24
6565.24
6565.23
6565.22
6565.22
6565.21
6565.2
6565.2
6565.19
6565.19
6565.18
6565.17
6565.17
6565.16
6565.16
6565.15
6565.14
6565.14
6565.13
6565.13
6565.12
6565.12
6565.11
6565.11
6565.1
6565.1
6565.09
6565.09
6565.08
6565.08
6565.07
6565.07
6565.06
6565.06
6565.06
6565.05
6565.05
6565.04
6565.04
6565.03
6565.03
6565.03
6565.02
6565.02
6565.02
6565.01
6565.01
6565.01
6565
6565
6564.99
6564.99
6564.99
6564.99
6564.98
6564.98
6564.98
6564.97
6564.97
6564.97
6564.97
6564.96
6564.96
6564.96
6564.95
6564.95
6564.95
6564.95
6564.94