/*--------------------------------*- C++ -*----------------------------------*\
| =========                 |                                                 |
| \\      /  F ield         | OpenFOAM: The Open Source CFD Toolbox           |
|  \\    /   O peration     | Version:  v2006                                 |
|   \\  /    A nd           | Website:  www.openfoam.com                      |
|    \\/     M anipulation  |                                                 |
\*---------------------------------------------------------------------------*/
FoamFile
{
    version     2.0;
    format      ascii;
    class       volScalarField;
    location    "1";
    object      p_rgh;
}
// * * * * * * * * * * * * * * * * * * * * * * * * * * * * * * * * * * * * * //

dimensions      [1 -1 -2 0 0 0 0];


internalField   nonuniform List<scalar> 
33000
(
7799.91
7798.65
7797.39
7796.17
7794.96
7793.78
7792.61
7791.48
7790.36
7789.28
7788.23
7787.2
7786.21
7785.25
7784.32
7783.43
7782.58
7781.76
7780.98
7780.23
7779.52
7778.85
7778.21
7777.62
7777.07
7776.55
7776.07
7775.63
7775.23
7774.86
7774.53
7774.24
7773.99
7773.77
7773.59
7773.44
7773.33
7773.25
7773.21
7773.2
7773.22
7773.28
7773.37
7773.48
7773.63
7773.8
7773.99
7774.21
7774.45
7774.71
7774.98
7775.27
7775.58
7775.9
7776.24
7776.6
7776.97
7777.36
7777.76
7778.17
7778.6
7779.05
7779.5
7779.97
7780.45
7780.94
7781.44
7781.94
7782.45
7782.97
7783.48
7784
7784.52
7785.03
7785.53
7786.02
7786.48
7786.88
7787.29
7788.15
7788.78
7789.43
7790.12
7790.79
7791.48
7792.21
7792.92
7793.64
7794.35
7795.07
7795.8
7796.53
7797.27
7798
7798.73
7799.47
7800.19
7800.92
7801.62
7802.35
7803.11
7803.86
7804.59
7805.33
7806.06
7806.78
7807.5
7808.2
7808.89
7809.57
7810.25
7810.91
7811.57
7812.21
7812.85
7813.47
7814.07
7814.69
7815.33
7815.95
7816.55
7817.16
7817.75
7818.33
7818.91
7819.48
7820.04
7820.59
7821.13
7821.66
7822.18
7822.69
7823.19
7823.68
7824.16
7824.63
7825.09
7825.54
7825.98
7826.41
7826.84
7827.25
7827.66
7828.06
7828.45
7828.83
7829.2
7829.57
7829.93
7830.27
7830.61
7830.95
7831.27
7831.58
7831.89
7832.19
7832.48
7832.76
7833.03
7833.3
7833.56
7833.81
7834.05
7834.29
7834.52
7834.75
7834.97
7835.18
7835.39
7835.59
7835.79
7835.98
7836.17
7836.35
7836.53
7836.7
7836.87
7837.03
7837.18
7837.34
7837.48
7837.63
7837.77
7837.9
7838.03
7838.16
7838.28
7838.4
7838.51
7838.62
7838.73
7838.83
7838.93
7839.03
7839.12
7839.21
7839.3
7839.38
7839.46
7839.54
7839.61
7839.68
7839.75
7839.82
7839.88
7839.94
7840
7840.05
7840.1
7840.16
7840.2
7840.25
7840.29
7840.34
7840.38
7840.41
7840.45
7840.48
7840.52
7840.55
7840.58
7840.61
7840.63
7840.66
7840.68
7840.7
7840.72
7840.74
7840.76
7840.78
7840.8
7840.81
7840.83
7840.84
7840.85
7840.86
7840.87
7840.88
7840.89
7840.9
7840.91
7840.91
7840.92
7840.92
7840.93
7840.93
7840.94
7840.94
7840.94
7840.94
7840.94
7840.94
7840.94
7840.94
7840.94
7840.94
7840.94
7840.94
7840.94
7840.94
7840.93
7840.93
7840.93
7840.92
7840.92
7840.92
7840.91
7840.91
7840.9
7840.9
7840.89
7840.89
7840.88
7840.88
7840.87
7840.86
7840.86
7840.85
7840.85
7840.84
7840.83
7840.83
7840.82
7840.81
7840.81
7840.8
7840.79
7840.79
7840.78
7840.77
7840.76
7840.76
7840.75
7840.74
7840.73
7840.73
7840.72
7840.71
7840.71
7840.7
7840.69
7840.68
7840.68
7840.67
7840.66
7840.65
7840.65
7840.64
7840.63
7840.63
7840.62
7840.61
7840.61
7840.6
7840.59
7840.58
7840.58
7840.57
7840.56
7840.56
7840.55
7840.54
7840.54
7840.53
7840.53
7840.52
7840.51
7840.51
7840.5
7840.49
7840.49
7840.48
7840.48
7840.47
7840.47
7840.46
7840.45
7840.45
7840.44
7840.44
7840.43
7840.43
7840.42
7840.42
7840.41
7840.41
7840.4
7840.4
7840.39
7840.39
7840.38
7840.38
7840.37
7840.37
7840.36
7840.36
7840.35
7840.35
7840.35
7840.34
7840.34
7840.33
7840.33
7840.33
7840.32
7840.32
7840.31
7840.31
7840.31
7840.3
7840.3
7840.3
7840.29
7840.29
7840.29
7840.28
7840.28
7840.28
7840.28
7840.27
7840.27
7840.27
7840.26
7840.26
7840.26
7840.26
7840.25
7840.25
7840.25
7840.25
7840.24
7840.24
7840.24
7840.24
7840.24
7840.23
7840.23
7840.23
7840.23
7840.23
7840.22
7840.22
7840.22
7840.22
7840.22
7840.21
7840.21
7840.21
7840.21
7840.21
7840.21
7840.21
7840.2
7840.2
7840.2
7840.2
7840.2
7840.2
7840.2
7840.2
7840.2
7840.19
7840.19
7840.19
7840.19
7840.19
7840.19
7840.19
7840.19
7840.19
7840.19
7840.19
7840.19
7840.18
7840.18
7840.18
7840.18
7840.18
7840.18
7840.18
7840.18
7840.18
7840.18
7840.18
7840.18
7840.18
7840.18
7840.18
7840.18
7840.18
7840.18
7840.17
7840.17
7840.17
7840.17
7840.17
7840.17
7840.17
7840.17
7840.17
7840.17
7840.17
7840.17
7840.17
7840.17
7840.17
7840.17
7840.17
7840.17
7840.17
7840.17
7840.17
7840.17
7840.17
7840.17
7840.17
7840.17
7840.17
7840.17
7840.17
7840.17
7840.17
7840.17
7840.17
7840.17
7840.17
7840.17
7840.16
7840.16
7840.16
7840.16
7840.16
7840.16
7840.16
7840.16
7840.16
7840.16
7840.16
7840.16
7840.16
7840.16
7840.16
7840.16
7840.16
7840.16
7840.16
7840.16
7840.16
7840.16
7840.16
7840.16
7840.16
7840.16
7840.16
7840.16
7840.16
7840.16
7840.16
7840.16
7840.16
7840.16
7840.16
7840.16
7840.16
7840.16
7840.16
7840.16
7840.16
7840.16
7840.16
7840.16
7840.16
7840.16
7840.16
7840.16
7840.16
7840.16
7840.16
7840.16
7840.16
7840.16
7840.16
7840.16
7840.16
7840.16
7840.16
7840.16
7840.16
7840.16
7840.16
7800.16
7799
7797.66
7796.4
7795.14
7793.9
7792.69
7791.52
7790.38
7789.27
7788.2
7787.16
7786.15
7785.18
7784.24
7783.35
7782.48
7781.66
7780.87
7780.12
7779.41
7778.73
7778.09
7777.5
7776.95
7776.43
7775.95
7775.5
7775.1
7774.73
7774.41
7774.12
7773.86
7773.65
7773.47
7773.33
7773.22
7773.15
7773.1
7773.09
7773.12
7773.17
7773.27
7773.4
7773.54
7773.7
7773.9
7774.14
7774.37
7774.62
7774.89
7775.19
7775.51
7775.84
7776.17
7776.53
7776.9
7777.29
7777.69
7778.11
7778.54
7778.99
7779.45
7779.93
7780.41
7780.9
7781.4
7781.91
7782.43
7782.95
7783.47
7783.99
7784.52
7785.04
7785.56
7786.08
7786.59
7787.11
7787.68
7788.2
7788.62
7789.11
7790.08
7790.79
7791.51
7792.22
7792.92
7793.6
7794.3
7795.05
7795.79
7796.53
7797.27
7798.01
7798.74
7799.48
7800.21
7800.95
7801.67
7802.41
7803.14
7803.85
7804.58
7805.34
7806.07
7806.79
7807.51
7808.21
7808.9
7809.59
7810.26
7810.93
7811.58
7812.23
7812.87
7813.5
7814.12
7814.74
7815.35
7815.95
7816.55
7817.17
7817.76
7818.35
7818.93
7819.49
7820.05
7820.6
7821.14
7821.67
7822.19
7822.7
7823.2
7823.69
7824.17
7824.64
7825.1
7825.55
7826
7826.43
7826.85
7827.27
7827.68
7828.08
7828.47
7828.85
7829.22
7829.59
7829.94
7830.29
7830.63
7830.96
7831.29
7831.6
7831.91
7832.2
7832.49
7832.77
7833.05
7833.31
7833.57
7833.82
7834.07
7834.31
7834.54
7834.76
7834.98
7835.2
7835.41
7835.61
7835.81
7836
7836.18
7836.36
7836.54
7836.71
7836.88
7837.04
7837.2
7837.35
7837.5
7837.64
7837.78
7837.91
7838.04
7838.17
7838.29
7838.41
7838.52
7838.64
7838.74
7838.84
7838.94
7839.04
7839.13
7839.22
7839.31
7839.39
7839.47
7839.55
7839.62
7839.69
7839.76
7839.82
7839.89
7839.95
7840
7840.06
7840.11
7840.16
7840.21
7840.26
7840.3
7840.34
7840.38
7840.42
7840.46
7840.49
7840.52
7840.55
7840.58
7840.61
7840.64
7840.66
7840.69
7840.71
7840.73
7840.75
7840.77
7840.78
7840.8
7840.82
7840.83
7840.84
7840.85
7840.87
7840.88
7840.89
7840.89
7840.9
7840.91
7840.92
7840.92
7840.93
7840.93
7840.93
7840.94
7840.94
7840.94
7840.94
7840.95
7840.95
7840.95
7840.95
7840.95
7840.94
7840.94
7840.94
7840.94
7840.94
7840.93
7840.93
7840.93
7840.93
7840.92
7840.92
7840.91
7840.91
7840.9
7840.9
7840.89
7840.89
7840.88
7840.88
7840.87
7840.87
7840.86
7840.85
7840.85
7840.84
7840.83
7840.83
7840.82
7840.81
7840.81
7840.8
7840.79
7840.79
7840.78
7840.77
7840.76
7840.76
7840.75
7840.74
7840.74
7840.73
7840.72
7840.71
7840.71
7840.7
7840.69
7840.68
7840.68
7840.67
7840.66
7840.66
7840.65
7840.64
7840.63
7840.63
7840.62
7840.61
7840.61
7840.6
7840.59
7840.59
7840.58
7840.57
7840.57
7840.56
7840.55
7840.55
7840.54
7840.53
7840.53
7840.52
7840.51
7840.51
7840.5
7840.5
7840.49
7840.48
7840.48
7840.47
7840.47
7840.46
7840.45
7840.45
7840.44
7840.44
7840.43
7840.43
7840.42
7840.42
7840.41
7840.41
7840.4
7840.4
7840.39
7840.39
7840.38
7840.38
7840.37
7840.37
7840.36
7840.36
7840.35
7840.35
7840.35
7840.34
7840.34
7840.33
7840.33
7840.33
7840.32
7840.32
7840.31
7840.31
7840.31
7840.3
7840.3
7840.3
7840.29
7840.29
7840.29
7840.28
7840.28
7840.28
7840.28
7840.27
7840.27
7840.27
7840.26
7840.26
7840.26
7840.26
7840.25
7840.25
7840.25
7840.25
7840.24
7840.24
7840.24
7840.24
7840.24
7840.23
7840.23
7840.23
7840.23
7840.23
7840.22
7840.22
7840.22
7840.22
7840.22
7840.21
7840.21
7840.21
7840.21
7840.21
7840.21
7840.21
7840.2
7840.2
7840.2
7840.2
7840.2
7840.2
7840.2
7840.2
7840.2
7840.19
7840.19
7840.19
7840.19
7840.19
7840.19
7840.19
7840.19
7840.19
7840.19
7840.19
7840.19
7840.18
7840.18
7840.18
7840.18
7840.18
7840.18
7840.18
7840.18
7840.18
7840.18
7840.18
7840.18
7840.18
7840.18
7840.18
7840.18
7840.18
7840.18
7840.17
7840.17
7840.17
7840.17
7840.17
7840.17
7840.17
7840.17
7840.17
7840.17
7840.17
7840.17
7840.17
7840.17
7840.17
7840.17
7840.17
7840.17
7840.17
7840.17
7840.17
7840.17
7840.17
7840.17
7840.17
7840.17
7840.17
7840.17
7840.17
7840.17
7840.17
7840.17
7840.17
7840.17
7840.17
7840.16
7840.16
7840.16
7840.16
7840.16
7840.16
7840.16
7840.16
7840.16
7840.16
7840.16
7840.16
7840.16
7840.16
7840.16
7840.16
7840.16
7840.16
7840.16
7840.16
7840.16
7840.16
7840.16
7840.16
7840.16
7840.16
7840.16
7840.16
7840.16
7840.16
7840.16
7840.16
7840.16
7840.16
7840.16
7840.16
7840.16
7840.16
7840.16
7840.16
7840.16
7840.16
7840.16
7840.16
7840.16
7840.16
7840.16
7840.16
7840.16
7840.16
7840.16
7840.16
7840.16
7840.16
7840.16
7840.16
7840.16
7840.16
7840.16
7840.16
7840.16
7840.16
7840.16
7840.16
7799.28
7798.12
7796.93
7795.73
7794.56
7793.41
7792.27
7791.16
7790.06
7789
7787.95
7786.93
7785.95
7784.99
7784.07
7783.18
7782.33
7781.51
7780.72
7779.97
7779.26
7778.59
7777.96
7777.37
7776.81
7776.29
7775.81
7775.36
7774.95
7774.59
7774.24
7773.94
7773.7
7773.55
7773.39
7773.23
7773.1
7773.01
7773
7773.01
7773.03
7773.07
7773.15
7773.27
7773.4
7773.56
7773.74
7773.95
7774.18
7774.44
7774.72
7775.02
7775.34
7775.68
7776.03
7776.4
7776.79
7777.19
7777.6
7778.03
7778.47
7778.93
7779.4
7779.88
7780.38
7780.89
7781.41
7781.93
7782.46
7783
7783.53
7784.07
7784.61
7785.15
7785.7
7786.24
7786.77
7787.31
7787.86
7788.44
7789.03
7789.65
7790.21
7790.66
7791.2
7792.23
7792.98
7793.72
7794.42
7795.15
7795.86
7796.58
7797.33
7798.07
7798.81
7799.55
7800.29
7801.03
7801.76
7802.5
7803.24
7803.97
7804.7
7805.42
7806.12
7806.84
7807.57
7808.28
7808.97
7809.65
7810.33
7811
7811.66
7812.31
7812.95
7813.58
7814.21
7814.83
7815.44
7816.05
7816.65
7817.24
7817.82
7818.4
7818.99
7819.56
7820.12
7820.67
7821.21
7821.73
7822.25
7822.76
7823.26
7823.75
7824.23
7824.7
7825.16
7825.61
7826.05
7826.48
7826.91
7827.32
7827.73
7828.13
7828.52
7828.9
7829.27
7829.64
7829.99
7830.34
7830.68
7831.01
7831.33
7831.64
7831.95
7832.25
7832.53
7832.81
7833.09
7833.35
7833.61
7833.86
7834.11
7834.34
7834.58
7834.8
7835.02
7835.23
7835.44
7835.64
7835.84
7836.03
7836.22
7836.4
7836.57
7836.74
7836.91
7837.07
7837.22
7837.38
7837.52
7837.67
7837.8
7837.94
7838.07
7838.19
7838.32
7838.43
7838.55
7838.66
7838.76
7838.87
7838.96
7839.06
7839.15
7839.24
7839.32
7839.41
7839.49
7839.56
7839.64
7839.71
7839.77
7839.84
7839.9
7839.96
7840.02
7840.07
7840.12
7840.17
7840.22
7840.27
7840.31
7840.35
7840.39
7840.43
7840.46
7840.5
7840.53
7840.56
7840.59
7840.62
7840.64
7840.67
7840.69
7840.71
7840.73
7840.75
7840.77
7840.79
7840.8
7840.82
7840.83
7840.85
7840.86
7840.87
7840.88
7840.89
7840.9
7840.91
7840.91
7840.92
7840.92
7840.93
7840.93
7840.94
7840.94
7840.94
7840.95
7840.95
7840.95
7840.95
7840.95
7840.95
7840.95
7840.95
7840.95
7840.94
7840.94
7840.94
7840.94
7840.93
7840.93
7840.93
7840.92
7840.92
7840.91
7840.91
7840.9
7840.9
7840.89
7840.89
7840.88
7840.88
7840.87
7840.87
7840.86
7840.85
7840.85
7840.84
7840.83
7840.83
7840.82
7840.81
7840.81
7840.8
7840.79
7840.79
7840.78
7840.77
7840.76
7840.76
7840.75
7840.74
7840.74
7840.73
7840.72
7840.71
7840.71
7840.7
7840.69
7840.68
7840.68
7840.67
7840.66
7840.66
7840.65
7840.64
7840.63
7840.63
7840.62
7840.61
7840.61
7840.6
7840.59
7840.58
7840.58
7840.57
7840.56
7840.56
7840.55
7840.55
7840.54
7840.53
7840.53
7840.52
7840.51
7840.51
7840.5
7840.49
7840.49
7840.48
7840.48
7840.47
7840.47
7840.46
7840.45
7840.45
7840.44
7840.44
7840.43
7840.43
7840.42
7840.42
7840.41
7840.41
7840.4
7840.4
7840.39
7840.39
7840.38
7840.38
7840.37
7840.37
7840.36
7840.36
7840.35
7840.35
7840.35
7840.34
7840.34
7840.33
7840.33
7840.33
7840.32
7840.32
7840.31
7840.31
7840.31
7840.3
7840.3
7840.3
7840.29
7840.29
7840.29
7840.28
7840.28
7840.28
7840.27
7840.27
7840.27
7840.27
7840.26
7840.26
7840.26
7840.26
7840.25
7840.25
7840.25
7840.25
7840.24
7840.24
7840.24
7840.24
7840.23
7840.23
7840.23
7840.23
7840.23
7840.23
7840.22
7840.22
7840.22
7840.22
7840.22
7840.21
7840.21
7840.21
7840.21
7840.21
7840.21
7840.21
7840.2
7840.2
7840.2
7840.2
7840.2
7840.2
7840.2
7840.2
7840.2
7840.19
7840.19
7840.19
7840.19
7840.19
7840.19
7840.19
7840.19
7840.19
7840.19
7840.19
7840.19
7840.18
7840.18
7840.18
7840.18
7840.18
7840.18
7840.18
7840.18
7840.18
7840.18
7840.18
7840.18
7840.18
7840.18
7840.18
7840.18
7840.18
7840.18
7840.17
7840.17
7840.17
7840.17
7840.17
7840.17
7840.17
7840.17
7840.17
7840.17
7840.17
7840.17
7840.17
7840.17
7840.17
7840.17
7840.17
7840.17
7840.17
7840.17
7840.17
7840.17
7840.17
7840.17
7840.17
7840.17
7840.17
7840.17
7840.17
7840.17
7840.17
7840.17
7840.17
7840.17
7840.17
7840.16
7840.16
7840.16
7840.16
7840.16
7840.16
7840.16
7840.16
7840.16
7840.16
7840.16
7840.16
7840.16
7840.16
7840.16
7840.16
7840.16
7840.16
7840.16
7840.16
7840.16
7840.16
7840.16
7840.16
7840.16
7840.16
7840.16
7840.16
7840.16
7840.16
7840.16
7840.16
7840.16
7840.16
7840.16
7840.16
7840.16
7840.16
7840.16
7840.16
7840.16
7840.16
7840.16
7840.16
7840.16
7840.16
7840.16
7840.16
7840.16
7840.16
7840.16
7840.16
7840.16
7840.16
7840.16
7840.16
7840.16
7840.16
7840.16
7840.16
7840.16
7840.16
7840.16
7840.16
7799.85
7798.46
7797.13
7795.86
7794.61
7793.4
7792.22
7791.07
7789.95
7788.85
7787.78
7786.75
7785.76
7784.79
7783.86
7782.97
7782.11
7781.29
7780.51
7779.75
7779.05
7778.38
7777.75
7777.15
7776.6
7776.09
7775.61
7775.17
7774.76
7774.4
7774.07
7773.77
7773.53
7773.33
7773.18
7773.06
7772.97
7772.91
7772.88
7772.87
7772.89
7772.93
7773
7773.1
7773.22
7773.37
7773.55
7773.75
7773.98
7774.24
7774.52
7774.82
7775.15
7775.5
7775.86
7776.24
7776.64
7777.05
7777.47
7777.91
7778.37
7778.83
7779.31
7779.81
7780.31
7780.83
7781.36
7781.9
7782.44
7782.99
7783.54
7784.09
7784.65
7785.21
7785.77
7786.33
7786.89
7787.46
7788.03
7788.61
7789.21
7789.8
7790.42
7791.06
7791.76
7792.41
7792.98
7793.47
7794.01
7795.08
7795.85
7796.59
7797.35
7798.07
7798.81
7799.58
7800.32
7801.07
7801.82
7802.57
7803.3
7804.04
7804.76
7805.49
7806.21
7806.92
7807.63
7808.33
7809
7809.69
7810.38
7811.06
7811.72
7812.37
7813.02
7813.65
7814.28
7814.91
7815.52
7816.13
7816.73
7817.33
7817.91
7818.49
7819.06
7819.62
7820.17
7820.73
7821.27
7821.79
7822.31
7822.82
7823.32
7823.81
7824.29
7824.76
7825.22
7825.67
7826.11
7826.54
7826.97
7827.38
7827.79
7828.19
7828.58
7828.96
7829.33
7829.7
7830.05
7830.4
7830.73
7831.06
7831.38
7831.7
7832
7832.29
7832.58
7832.86
7833.14
7833.4
7833.66
7833.91
7834.15
7834.39
7834.62
7834.85
7835.06
7835.28
7835.48
7835.68
7835.88
7836.07
7836.26
7836.44
7836.61
7836.78
7836.95
7837.11
7837.26
7837.41
7837.56
7837.7
7837.84
7837.97
7838.1
7838.23
7838.35
7838.46
7838.58
7838.69
7838.79
7838.89
7838.99
7839.09
7839.18
7839.27
7839.35
7839.43
7839.51
7839.59
7839.66
7839.73
7839.79
7839.86
7839.92
7839.98
7840.04
7840.09
7840.14
7840.19
7840.24
7840.28
7840.33
7840.37
7840.41
7840.44
7840.48
7840.51
7840.54
7840.57
7840.6
7840.63
7840.66
7840.68
7840.7
7840.72
7840.74
7840.76
7840.78
7840.8
7840.81
7840.83
7840.84
7840.85
7840.87
7840.88
7840.89
7840.9
7840.9
7840.91
7840.92
7840.92
7840.93
7840.93
7840.94
7840.94
7840.94
7840.95
7840.95
7840.95
7840.95
7840.95
7840.95
7840.95
7840.95
7840.95
7840.95
7840.95
7840.94
7840.94
7840.94
7840.94
7840.93
7840.93
7840.92
7840.92
7840.92
7840.91
7840.91
7840.9
7840.9
7840.89
7840.88
7840.88
7840.87
7840.87
7840.86
7840.85
7840.85
7840.84
7840.83
7840.83
7840.82
7840.81
7840.81
7840.8
7840.79
7840.79
7840.78
7840.77
7840.76
7840.76
7840.75
7840.74
7840.74
7840.73
7840.72
7840.71
7840.71
7840.7
7840.69
7840.68
7840.68
7840.67
7840.66
7840.66
7840.65
7840.64
7840.63
7840.63
7840.62
7840.61
7840.61
7840.6
7840.59
7840.58
7840.58
7840.57
7840.56
7840.56
7840.55
7840.54
7840.54
7840.53
7840.53
7840.52
7840.51
7840.51
7840.5
7840.49
7840.49
7840.48
7840.48
7840.47
7840.46
7840.46
7840.45
7840.45
7840.44
7840.44
7840.43
7840.43
7840.42
7840.42
7840.41
7840.41
7840.4
7840.4
7840.39
7840.39
7840.38
7840.38
7840.37
7840.37
7840.36
7840.36
7840.35
7840.35
7840.35
7840.34
7840.34
7840.33
7840.33
7840.32
7840.32
7840.32
7840.31
7840.31
7840.31
7840.3
7840.3
7840.3
7840.29
7840.29
7840.29
7840.28
7840.28
7840.28
7840.27
7840.27
7840.27
7840.27
7840.26
7840.26
7840.26
7840.26
7840.25
7840.25
7840.25
7840.25
7840.24
7840.24
7840.24
7840.24
7840.23
7840.23
7840.23
7840.23
7840.23
7840.22
7840.22
7840.22
7840.22
7840.22
7840.22
7840.21
7840.21
7840.21
7840.21
7840.21
7840.21
7840.21
7840.2
7840.2
7840.2
7840.2
7840.2
7840.2
7840.2
7840.2
7840.2
7840.19
7840.19
7840.19
7840.19
7840.19
7840.19
7840.19
7840.19
7840.19
7840.19
7840.19
7840.19
7840.18
7840.18
7840.18
7840.18
7840.18
7840.18
7840.18
7840.18
7840.18
7840.18
7840.18
7840.18
7840.18
7840.18
7840.18
7840.18
7840.18
7840.18
7840.17
7840.17
7840.17
7840.17
7840.17
7840.17
7840.17
7840.17
7840.17
7840.17
7840.17
7840.17
7840.17
7840.17
7840.17
7840.17
7840.17
7840.17
7840.17
7840.17
7840.17
7840.17
7840.17
7840.17
7840.17
7840.17
7840.17
7840.17
7840.17
7840.17
7840.17
7840.17
7840.17
7840.17
7840.16
7840.16
7840.16
7840.16
7840.16
7840.16
7840.16
7840.16
7840.16
7840.16
7840.16
7840.16
7840.16
7840.16
7840.16
7840.16
7840.16
7840.16
7840.16
7840.16
7840.16
7840.16
7840.16
7840.16
7840.16
7840.16
7840.16
7840.16
7840.16
7840.16
7840.16
7840.16
7840.16
7840.16
7840.16
7840.16
7840.16
7840.16
7840.16
7840.16
7840.16
7840.16
7840.16
7840.16
7840.16
7840.16
7840.16
7840.16
7840.16
7840.16
7840.16
7840.16
7840.16
7840.16
7840.16
7840.16
7840.16
7840.16
7840.16
7840.16
7840.16
7840.16
7840.16
7840.16
7840.16
7799.24
7797.97
7796.71
7795.49
7794.27
7793.08
7791.9
7790.76
7789.63
7788.54
7787.48
7786.44
7785.44
7784.47
7783.54
7782.65
7781.8
7780.98
7780.2
7779.46
7778.76
7778.09
7777.47
7776.89
7776.34
7775.84
7775.38
7774.95
7774.55
7774.19
7773.86
7773.57
7773.32
7773.11
7772.94
7772.81
7772.72
7772.66
7772.62
7772.62
7772.64
7772.69
7772.76
7772.87
7773
7773.16
7773.34
7773.54
7773.78
7774.05
7774.33
7774.65
7775
7775.36
7775.73
7776.12
7776.53
7776.95
7777.39
7777.84
7778.3
7778.78
7779.27
7779.76
7780.27
7780.8
7781.34
7781.88
7782.44
7783
7783.56
7784.12
7784.69
7785.26
7785.84
7786.43
7787.01
7787.6
7788.2
7788.78
7789.36
7789.96
7790.6
7791.26
7791.9
7792.54
7793.19
7793.87
7794.55
7795.19
7795.69
7796.19
7797.29
7798.07
7798.82
7799.6
7800.35
7801.08
7801.85
7802.62
7803.35
7804.09
7804.82
7805.55
7806.27
7806.98
7807.69
7808.39
7809.09
7809.77
7810.45
7811.11
7811.77
7812.44
7813.09
7813.73
7814.37
7814.99
7815.61
7816.22
7816.82
7817.42
7818
7818.58
7819.15
7819.71
7820.27
7820.81
7821.33
7821.86
7822.38
7822.89
7823.39
7823.88
7824.36
7824.83
7825.29
7825.74
7826.18
7826.62
7827.04
7827.46
7827.87
7828.26
7828.65
7829.03
7829.4
7829.77
7830.12
7830.46
7830.8
7831.13
7831.45
7831.76
7832.06
7832.36
7832.64
7832.92
7833.2
7833.46
7833.72
7833.97
7834.21
7834.45
7834.68
7834.9
7835.12
7835.33
7835.54
7835.74
7835.94
7836.13
7836.31
7836.49
7836.66
7836.83
7837
7837.16
7837.31
7837.46
7837.61
7837.75
7837.89
7838.02
7838.15
7838.27
7838.39
7838.51
7838.62
7838.73
7838.83
7838.93
7839.03
7839.12
7839.21
7839.3
7839.38
7839.47
7839.54
7839.62
7839.69
7839.76
7839.82
7839.89
7839.95
7840.01
7840.06
7840.11
7840.17
7840.21
7840.26
7840.3
7840.35
7840.39
7840.43
7840.46
7840.5
7840.53
7840.56
7840.59
7840.62
7840.65
7840.67
7840.69
7840.72
7840.74
7840.76
7840.78
7840.79
7840.81
7840.82
7840.84
7840.85
7840.86
7840.88
7840.89
7840.9
7840.9
7840.91
7840.92
7840.93
7840.93
7840.94
7840.94
7840.94
7840.95
7840.95
7840.95
7840.95
7840.96
7840.96
7840.96
7840.96
7840.96
7840.95
7840.95
7840.95
7840.95
7840.95
7840.94
7840.94
7840.94
7840.93
7840.93
7840.93
7840.92
7840.92
7840.91
7840.91
7840.9
7840.9
7840.89
7840.89
7840.88
7840.87
7840.87
7840.86
7840.85
7840.85
7840.84
7840.84
7840.83
7840.82
7840.81
7840.81
7840.8
7840.79
7840.79
7840.78
7840.77
7840.76
7840.76
7840.75
7840.74
7840.74
7840.73
7840.72
7840.71
7840.71
7840.7
7840.69
7840.68
7840.68
7840.67
7840.66
7840.65
7840.65
7840.64
7840.63
7840.63
7840.62
7840.61
7840.6
7840.6
7840.59
7840.58
7840.58
7840.57
7840.56
7840.56
7840.55
7840.54
7840.54
7840.53
7840.52
7840.52
7840.51
7840.51
7840.5
7840.49
7840.49
7840.48
7840.48
7840.47
7840.46
7840.46
7840.45
7840.45
7840.44
7840.44
7840.43
7840.42
7840.42
7840.41
7840.41
7840.4
7840.4
7840.39
7840.39
7840.38
7840.38
7840.37
7840.37
7840.37
7840.36
7840.36
7840.35
7840.35
7840.34
7840.34
7840.34
7840.33
7840.33
7840.32
7840.32
7840.32
7840.31
7840.31
7840.31
7840.3
7840.3
7840.3
7840.29
7840.29
7840.29
7840.28
7840.28
7840.28
7840.27
7840.27
7840.27
7840.27
7840.26
7840.26
7840.26
7840.26
7840.25
7840.25
7840.25
7840.25
7840.24
7840.24
7840.24
7840.24
7840.23
7840.23
7840.23
7840.23
7840.23
7840.22
7840.22
7840.22
7840.22
7840.22
7840.22
7840.21
7840.21
7840.21
7840.21
7840.21
7840.21
7840.21
7840.2
7840.2
7840.2
7840.2
7840.2
7840.2
7840.2
7840.2
7840.19
7840.19
7840.19
7840.19
7840.19
7840.19
7840.19
7840.19
7840.19
7840.19
7840.19
7840.19
7840.18
7840.18
7840.18
7840.18
7840.18
7840.18
7840.18
7840.18
7840.18
7840.18
7840.18
7840.18
7840.18
7840.18
7840.18
7840.18
7840.18
7840.18
7840.17
7840.17
7840.17
7840.17
7840.17
7840.17
7840.17
7840.17
7840.17
7840.17
7840.17
7840.17
7840.17
7840.17
7840.17
7840.17
7840.17
7840.17
7840.17
7840.17
7840.17
7840.17
7840.17
7840.17
7840.17
7840.17
7840.17
7840.17
7840.17
7840.17
7840.17
7840.17
7840.17
7840.17
7840.17
7840.16
7840.16
7840.16
7840.16
7840.16
7840.16
7840.16
7840.16
7840.16
7840.16
7840.16
7840.16
7840.16
7840.16
7840.16
7840.16
7840.16
7840.16
7840.16
7840.16
7840.16
7840.16
7840.16
7840.16
7840.16
7840.16
7840.16
7840.16
7840.16
7840.16
7840.16
7840.16
7840.16
7840.16
7840.16
7840.16
7840.16
7840.16
7840.16
7840.16
7840.16
7840.16
7840.16
7840.16
7840.16
7840.16
7840.16
7840.16
7840.16
7840.16
7840.16
7840.16
7840.16
7840.16
7840.16
7840.16
7840.16
7840.16
7840.16
7840.16
7840.16
7840.16
7840.16
7840.16
7840.16
7799.12
7797.72
7796.5
7795.26
7794
7792.77
7791.57
7790.4
7789.25
7788.14
7787.06
7786.01
7785
7784.03
7783.1
7782.21
7781.36
7780.55
7779.78
7779.05
7778.35
7777.7
7777.09
7776.51
7775.97
7775.47
7775.01
7774.59
7774.21
7773.86
7773.53
7773.24
7772.98
7772.75
7772.56
7772.4
7772.28
7772.2
7772.16
7772.16
7772.19
7772.25
7772.34
7772.47
7772.62
7772.8
7773.01
7773.24
7773.5
7773.78
7774.1
7774.44
7774.81
7775.19
7775.6
7776.02
7776.45
7776.89
7777.35
7777.82
7778.3
7778.8
7779.29
7779.79
7780.32
7780.86
7781.41
7781.97
7782.53
7783.1
7783.68
7784.26
7784.82
7785.39
7785.97
7786.57
7787.18
7787.78
7788.39
7788.99
7789.59
7790.24
7790.89
7791.53
7792.15
7792.8
7793.47
7794.13
7794.79
7795.44
7796.12
7796.83
7797.48
7798
7798.55
7799.64
7800.42
7801.18
7801.97
7802.69
7803.42
7804.19
7804.93
7805.66
7806.38
7807.09
7807.8
7808.51
7809.21
7809.89
7810.57
7811.25
7811.91
7812.57
7813.2
7813.84
7814.49
7815.12
7815.73
7816.35
7816.95
7817.55
7818.13
7818.71
7819.28
7819.84
7820.39
7820.93
7821.46
7821.98
7822.49
7822.99
7823.48
7823.98
7824.46
7824.93
7825.39
7825.85
7826.29
7826.72
7827.15
7827.57
7827.97
7828.37
7828.76
7829.14
7829.51
7829.87
7830.22
7830.56
7830.9
7831.22
7831.54
7831.85
7832.15
7832.44
7832.73
7833.01
7833.28
7833.54
7833.8
7834.05
7834.29
7834.53
7834.76
7834.98
7835.2
7835.41
7835.62
7835.82
7836.01
7836.2
7836.38
7836.56
7836.73
7836.9
7837.06
7837.22
7837.38
7837.53
7837.67
7837.81
7837.95
7838.08
7838.2
7838.33
7838.45
7838.56
7838.67
7838.78
7838.88
7838.98
7839.08
7839.17
7839.26
7839.35
7839.43
7839.51
7839.58
7839.66
7839.73
7839.8
7839.86
7839.92
7839.98
7840.04
7840.09
7840.15
7840.2
7840.24
7840.29
7840.33
7840.37
7840.41
7840.45
7840.49
7840.52
7840.55
7840.58
7840.61
7840.64
7840.66
7840.69
7840.71
7840.73
7840.75
7840.77
7840.79
7840.81
7840.82
7840.84
7840.85
7840.86
7840.88
7840.89
7840.9
7840.91
7840.91
7840.92
7840.93
7840.93
7840.94
7840.94
7840.95
7840.95
7840.96
7840.96
7840.96
7840.96
7840.96
7840.96
7840.96
7840.96
7840.96
7840.96
7840.96
7840.95
7840.95
7840.95
7840.95
7840.94
7840.94
7840.94
7840.93
7840.93
7840.92
7840.92
7840.91
7840.91
7840.9
7840.9
7840.89
7840.89
7840.88
7840.87
7840.87
7840.86
7840.86
7840.85
7840.84
7840.84
7840.83
7840.82
7840.82
7840.81
7840.8
7840.79
7840.79
7840.78
7840.77
7840.76
7840.76
7840.75
7840.74
7840.73
7840.73
7840.72
7840.71
7840.71
7840.7
7840.69
7840.68
7840.68
7840.67
7840.66
7840.65
7840.65
7840.64
7840.63
7840.62
7840.62
7840.61
7840.6
7840.6
7840.59
7840.58
7840.58
7840.57
7840.56
7840.56
7840.55
7840.54
7840.54
7840.53
7840.52
7840.52
7840.51
7840.5
7840.5
7840.49
7840.49
7840.48
7840.47
7840.47
7840.46
7840.46
7840.45
7840.45
7840.44
7840.43
7840.43
7840.42
7840.42
7840.41
7840.41
7840.4
7840.4
7840.39
7840.39
7840.38
7840.38
7840.37
7840.37
7840.36
7840.36
7840.36
7840.35
7840.35
7840.34
7840.34
7840.34
7840.33
7840.33
7840.32
7840.32
7840.32
7840.31
7840.31
7840.31
7840.3
7840.3
7840.3
7840.29
7840.29
7840.29
7840.28
7840.28
7840.28
7840.27
7840.27
7840.27
7840.27
7840.26
7840.26
7840.26
7840.25
7840.25
7840.25
7840.25
7840.24
7840.24
7840.24
7840.24
7840.24
7840.23
7840.23
7840.23
7840.23
7840.23
7840.22
7840.22
7840.22
7840.22
7840.22
7840.22
7840.21
7840.21
7840.21
7840.21
7840.21
7840.21
7840.2
7840.2
7840.2
7840.2
7840.2
7840.2
7840.2
7840.2
7840.2
7840.19
7840.19
7840.19
7840.19
7840.19
7840.19
7840.19
7840.19
7840.19
7840.19
7840.19
7840.19
7840.18
7840.18
7840.18
7840.18
7840.18
7840.18
7840.18
7840.18
7840.18
7840.18
7840.18
7840.18
7840.18
7840.18
7840.18
7840.18
7840.18
7840.18
7840.18
7840.17
7840.17
7840.17
7840.17
7840.17
7840.17
7840.17
7840.17
7840.17
7840.17
7840.17
7840.17
7840.17
7840.17
7840.17
7840.17
7840.17
7840.17
7840.17
7840.17
7840.17
7840.17
7840.17
7840.17
7840.17
7840.17
7840.17
7840.17
7840.17
7840.17
7840.17
7840.17
7840.17
7840.17
7840.16
7840.16
7840.16
7840.16
7840.16
7840.16
7840.16
7840.16
7840.16
7840.16
7840.16
7840.16
7840.16
7840.16
7840.16
7840.16
7840.16
7840.16
7840.16
7840.16
7840.16
7840.16
7840.16
7840.16
7840.16
7840.16
7840.16
7840.16
7840.16
7840.16
7840.16
7840.16
7840.16
7840.16
7840.16
7840.16
7840.16
7840.16
7840.16
7840.16
7840.16
7840.16
7840.16
7840.16
7840.16
7840.16
7840.16
7840.16
7840.16
7840.16
7840.16
7840.16
7840.16
7840.16
7840.16
7840.16
7840.16
7840.16
7840.16
7840.16
7840.16
7840.16
7840.16
7840.16
7840.16
7798.84
7797.33
7796.19
7794.94
7793.64
7792.35
7791.12
7789.92
7788.75
7787.61
7786.51
7785.44
7784.42
7783.45
7782.51
7781.62
7780.78
7779.97
7779.2
7778.46
7777.77
7777.12
7776.51
7775.93
7775.39
7774.87
7774.4
7773.97
7773.58
7773.24
7772.94
7772.66
7772.4
7772.17
7771.97
7771.81
7771.69
7771.6
7771.56
7771.56
7771.57
7771.63
7771.73
7771.87
7772.03
7772.23
7772.47
7772.72
7773.01
7773.32
7773.66
7774.04
7774.44
7774.86
7775.3
7775.76
7776.22
7776.69
7777.19
7777.7
7778.22
7778.75
7779.26
7779.79
7780.33
7780.87
7781.43
7781.99
7782.56
7783.14
7783.73
7784.32
7784.9
7785.49
7786.09
7786.7
7787.31
7787.94
7788.56
7789.18
7789.82
7790.48
7791.12
7791.76
7792.4
7793.07
7793.74
7794.4
7795.06
7795.73
7796.39
7797.07
7797.75
7798.44
7799.19
7799.82
7800.35
7800.95
7802.03
7802.81
7803.52
7804.31
7805.03
7805.75
7806.5
7807.22
7807.93
7808.64
7809.34
7810.02
7810.7
7811.38
7812.05
7812.71
7813.35
7814
7814.63
7815.25
7815.86
7816.48
7817.09
7817.68
7818.27
7818.85
7819.41
7819.97
7820.52
7821.06
7821.58
7822.11
7822.62
7823.12
7823.61
7824.1
7824.58
7825.04
7825.5
7825.96
7826.41
7826.84
7827.27
7827.68
7828.09
7828.49
7828.87
7829.25
7829.62
7829.98
7830.33
7830.67
7831
7831.32
7831.64
7831.95
7832.25
7832.54
7832.83
7833.1
7833.37
7833.64
7833.89
7834.14
7834.38
7834.62
7834.85
7835.07
7835.29
7835.5
7835.7
7835.9
7836.09
7836.28
7836.46
7836.64
7836.81
7836.98
7837.14
7837.3
7837.45
7837.6
7837.74
7837.88
7838.01
7838.14
7838.27
7838.39
7838.51
7838.62
7838.73
7838.84
7838.94
7839.04
7839.13
7839.22
7839.31
7839.4
7839.48
7839.56
7839.63
7839.7
7839.77
7839.84
7839.9
7839.96
7840.02
7840.08
7840.13
7840.18
7840.23
7840.28
7840.32
7840.36
7840.4
7840.44
7840.48
7840.51
7840.54
7840.57
7840.6
7840.63
7840.66
7840.68
7840.71
7840.73
7840.75
7840.77
7840.79
7840.8
7840.82
7840.84
7840.85
7840.86
7840.88
7840.89
7840.9
7840.91
7840.92
7840.92
7840.93
7840.94
7840.94
7840.95
7840.95
7840.96
7840.96
7840.96
7840.96
7840.97
7840.97
7840.97
7840.97
7840.97
7840.97
7840.96
7840.96
7840.96
7840.96
7840.96
7840.95
7840.95
7840.95
7840.94
7840.94
7840.93
7840.93
7840.93
7840.92
7840.92
7840.91
7840.91
7840.9
7840.89
7840.89
7840.88
7840.88
7840.87
7840.86
7840.86
7840.85
7840.84
7840.84
7840.83
7840.82
7840.82
7840.81
7840.8
7840.79
7840.79
7840.78
7840.77
7840.76
7840.76
7840.75
7840.74
7840.73
7840.73
7840.72
7840.71
7840.7
7840.7
7840.69
7840.68
7840.67
7840.67
7840.66
7840.65
7840.65
7840.64
7840.63
7840.62
7840.62
7840.61
7840.6
7840.6
7840.59
7840.58
7840.57
7840.57
7840.56
7840.55
7840.55
7840.54
7840.53
7840.53
7840.52
7840.52
7840.51
7840.5
7840.5
7840.49
7840.48
7840.48
7840.47
7840.47
7840.46
7840.46
7840.45
7840.44
7840.44
7840.43
7840.43
7840.42
7840.42
7840.41
7840.41
7840.4
7840.4
7840.39
7840.39
7840.38
7840.38
7840.37
7840.37
7840.36
7840.36
7840.35
7840.35
7840.35
7840.34
7840.34
7840.33
7840.33
7840.33
7840.32
7840.32
7840.32
7840.31
7840.31
7840.3
7840.3
7840.3
7840.29
7840.29
7840.29
7840.28
7840.28
7840.28
7840.28
7840.27
7840.27
7840.27
7840.26
7840.26
7840.26
7840.26
7840.25
7840.25
7840.25