/*--------------------------------*- C++ -*----------------------------------*\
| =========                 |                                                 |
| \\      /  F ield         | OpenFOAM: The Open Source CFD Toolbox           |
|  \\    /   O peration     | Version:  v2006                                 |
|   \\  /    A nd           | Website:  www.openfoam.com                      |
|    \\/     M anipulation  |                                                 |
\*---------------------------------------------------------------------------*/
FoamFile
{
    version     2.0;
    format      ascii;
    class       surfaceScalarField;
    location    "1";
    object      phi;
}
// * * * * * * * * * * * * * * * * * * * * * * * * * * * * * * * * * * * * * //

dimensions      [0 3 -1 0 0 0 0];
oriented        oriented;


internalField   nonuniform List<scalar> 
65390
(
-1.0392e-05
1.39584e-08
-1.04977e-05
1.44951e-07
-1.06187e-05
1.54525e-07
-1.07227e-05
1.3208e-07
-1.08371e-05
1.38518e-07
-1.09598e-05
1.42196e-07
-1.1078e-05
1.32943e-07
-1.11885e-05
1.22166e-07
-1.12927e-05
1.14221e-07
-1.1391e-05
1.06201e-07
-1.14845e-05
9.88351e-08
-1.15742e-05
9.33074e-08
-1.16575e-05
8.63286e-08
-1.17457e-05
9.08955e-08
-1.183e-05
8.63696e-08
-1.19098e-05
8.11732e-08
-1.1986e-05
7.7018e-08
-1.20559e-05
7.03652e-08
-1.21203e-05
6.45825e-08
-1.21805e-05
6.01655e-08
-1.22357e-05
5.50849e-08
-1.22851e-05
4.92837e-08
-1.23297e-05
4.4475e-08
-1.23686e-05
3.86044e-08
-1.24024e-05
3.33665e-08
-1.24312e-05
2.83109e-08
-1.24536e-05
2.20716e-08
-1.24704e-05
1.66314e-08
-1.24821e-05
1.17242e-08
-1.24892e-05
7.15962e-09
-1.24919e-05
2.73103e-09
-1.24899e-05
-2.1084e-09
-1.24799e-05
-1.00865e-08
-1.24613e-05
-1.86872e-08
-1.24373e-05
-2.37709e-08
-1.24083e-05
-2.84343e-08
-1.23738e-05
-3.38635e-08
-1.23321e-05
-4.08817e-08
-1.22837e-05
-4.77016e-08
-1.22313e-05
-5.18028e-08
-1.21755e-05
-5.55565e-08
-1.21165e-05
-5.90607e-08
-1.20495e-05
-6.738e-08
-1.19736e-05
-7.66125e-08
-1.18976e-05
-7.70804e-08
-1.18189e-05
-7.99316e-08
-1.17324e-05
-8.79917e-08
-1.16355e-05
-9.83611e-08
-1.15325e-05
-1.04644e-07
-1.14266e-05
-1.07562e-07
-1.13166e-05
-1.11782e-07
-1.11975e-05
-1.20841e-07
-1.10708e-05
-1.28604e-07
-1.09377e-05
-1.35193e-07
-1.08017e-05
-1.38279e-07
-1.06633e-05
-1.40864e-07
-1.05219e-05
-1.44179e-07
-1.03766e-05
-1.48104e-07
-1.02302e-05
-1.4954e-07
-1.00824e-05
-1.50923e-07
-9.93136e-06
-1.54317e-07
-9.77651e-06
-1.58189e-07
-9.61838e-06
-1.61519e-07
-9.4565e-06
-1.65344e-07
-9.2895e-06
-1.70548e-07
-9.11636e-06
-1.76807e-07
-8.93582e-06
-1.84364e-07
-8.7465e-06
-1.93314e-07
-8.54696e-06
-2.03723e-07
-8.33513e-06
-2.1616e-07
-8.1072e-06
-2.32377e-07
-7.8565e-06
-2.55174e-07
-7.57166e-06
-2.8929e-07
-7.23464e-06
-3.41437e-07
-6.81606e-06
-4.23037e-07
-6.26741e-06
-5.53266e-07
-5.49046e-06
-7.81834e-07
-4.34817e-06
-1.14741e-06
-3.42824e-06
-9.23998e-07
-3.08379e-06
-3.46488e-07
-2.92299e-06
-1.6338e-07
-2.9551e-06
2.93048e-08
-2.90941e-06
-4.7444e-08
-2.90876e-06
-2.54116e-09
-2.93473e-06
2.40535e-08
-2.87375e-06
-6.32409e-08
-2.81777e-06
-5.83024e-08
-2.77299e-06
-4.68478e-08
-2.7453e-06
-2.93888e-08
-2.70942e-06
-3.73423e-08
-2.67618e-06
-3.46142e-08
-2.64259e-06
-3.48718e-08
-2.60303e-06
-4.07477e-08
-2.56194e-06
-4.22706e-08
-2.51923e-06
-4.3969e-08
-2.47243e-06
-4.81367e-08
-2.42199e-06
-5.18768e-08
-2.36661e-06
-5.68581e-08
-2.30015e-06
-6.793e-08
-2.23575e-06
-6.57521e-08
-2.18409e-06
-5.28328e-08
-2.14234e-06
-4.27434e-08
-2.10465e-06
-3.84454e-08
-2.06257e-06
-4.26064e-08
-2.0215e-06
-4.14186e-08
-1.98053e-06
-4.11723e-08
-1.93798e-06
-4.26814e-08
-1.89542e-06
-4.26844e-08
-1.85344e-06
-4.21454e-08
-1.81199e-06
-4.17007e-08
-1.77072e-06
-4.16363e-08
-1.72968e-06
-4.15279e-08
-1.68883e-06
-4.14672e-08
-1.64764e-06
-4.19225e-08
-1.60616e-06
-4.2305e-08
-1.56279e-06
-4.42633e-08
-1.51566e-06
-4.80432e-08
-1.47002e-06
-4.65466e-08
-1.43066e-06
-4.02435e-08
-1.39701e-06
-3.44959e-08
-1.36548e-06
-3.23198e-08
-1.33206e-06
-3.4132e-08
-1.29838e-06
-3.43033e-08
-1.26515e-06
-3.37634e-08
-1.23214e-06
-3.34585e-08
-1.19924e-06
-3.32547e-08
-1.16678e-06
-3.27552e-08
-1.13455e-06
-3.24556e-08
-1.10251e-06
-3.22081e-08
-1.07086e-06
-3.17807e-08
-1.03963e-06
-3.13127e-08
-1.00881e-06
-3.0889e-08
-9.78477e-07
-3.03793e-08
-9.48634e-07
-2.98749e-08
-9.19265e-07
-2.93908e-08
-8.9038e-07
-2.89008e-08
-8.6201e-07
-2.83841e-08
-8.34181e-07
-2.78425e-08
-8.06879e-07
-2.73174e-08
-7.80095e-07
-2.68031e-08
-7.53811e-07
-2.6306e-08
-7.28044e-07
-2.57938e-08
-7.02804e-07
-2.52693e-08
-6.78075e-07
-2.47627e-08
-6.53845e-07
-2.42663e-08
-6.30125e-07
-2.37582e-08
-6.06917e-07
-2.32477e-08
-5.84197e-07
-2.27621e-08
-5.61949e-07
-2.22893e-08
-5.40182e-07
-2.18083e-08
-5.18893e-07
-2.13277e-08
-4.9807e-07
-2.0861e-08
-4.77714e-07
-2.03909e-08
-4.57833e-07
-1.99153e-08
-4.38419e-07
-1.94469e-08
-4.19461e-07
-1.89911e-08
-4.00956e-07
-1.85369e-08
-3.82898e-07
-1.80885e-08
-3.65278e-07
-1.76497e-08
-3.48095e-07
-1.72101e-08
-3.31353e-07
-1.67661e-08
-3.15036e-07
-1.63375e-08
-2.99123e-07
-1.59292e-08
-2.83614e-07
-1.55212e-08
-2.68516e-07
-1.5106e-08
-2.53824e-07
-1.4697e-08
-2.39516e-07
-1.4309e-08
-2.25584e-07
-1.39305e-08
-2.12036e-07
-1.35458e-08
-1.98873e-07
-1.31582e-08
-1.86076e-07
-1.27905e-08
-1.73627e-07
-1.24407e-08
-1.61533e-07
-1.2085e-08
-1.49799e-07
-1.17244e-08
-1.38407e-07
-1.138e-08
-1.27345e-07
-1.10492e-08
-1.16618e-07
-1.07144e-08
-1.06225e-07
-1.03785e-08
-9.61523e-08
-1.00562e-08
-8.63913e-08
-9.74238e-09
-7.69431e-08
-9.42608e-09
-6.78046e-08
-9.11218e-09
-5.89609e-08
-8.81249e-09
-5.04021e-08
-8.5226e-09
-4.21304e-08
-8.23111e-09
-3.4147e-08
-7.93929e-09
-2.64447e-08
-7.65616e-09
-1.90165e-08
-7.38113e-09
-1.18615e-08
-7.10781e-09
-4.97876e-09
-6.83543e-09
1.63914e-09
-6.56979e-09
8.00328e-09
-6.31402e-09
1.41215e-08
-6.06473e-09
1.9996e-08
-5.81651e-09
2.5628e-08
-5.56902e-09
3.10223e-08
-5.32654e-09
3.61845e-08
-5.09043e-09
4.11178e-08
-4.85874e-09
4.58259e-08
-4.63197e-09
5.03143e-08
-4.41158e-09
5.45877e-08
-4.19656e-09
5.86507e-08
-3.98634e-09
6.25093e-08
-3.78194e-09
6.6169e-08
-3.58296e-09
6.96348e-08
-3.38871e-09
7.2914e-08
-3.20159e-09
7.60155e-08
-3.02332e-09
7.89457e-08
-2.8515e-09
8.17115e-08
-2.6863e-09
8.43226e-08
-2.53043e-09
8.67841e-08
-2.37938e-09
8.90918e-08
-2.22374e-09
9.12414e-08
-2.06349e-09
9.32386e-08
-1.90907e-09
9.50888e-08
-1.76056e-09
9.67907e-08
-1.61171e-09
9.83446e-08
-1.46417e-09
9.976e-08
-1.32721e-09
1.01049e-07
-1.2029e-09
1.02214e-07
-1.08255e-09
1.03255e-07
-9.61729e-10
1.04178e-07
-8.46032e-10
1.04991e-07
-7.37953e-10
1.05695e-07
-6.31e-10
1.06286e-07
-5.17423e-10
1.06775e-07
-4.16415e-10
1.07169e-07
-3.21185e-10
1.07476e-07
-2.3411e-10
1.077e-07
-1.50526e-10
1.07843e-07
-7.04891e-11
1.07911e-07
3.9747e-12
1.07907e-07
7.41707e-11
1.07832e-07
1.4228e-10
1.07688e-07
2.07975e-10
1.07478e-07
2.71007e-10
1.07202e-07
3.33393e-10
1.0686e-07
3.95872e-10
1.06455e-07
4.5493e-10
1.05996e-07
5.06359e-10
1.05491e-07
5.50328e-10
1.04943e-07
5.90534e-10
1.04355e-07
6.2996e-10
1.03726e-07
6.69676e-10
1.03056e-07
7.10101e-10
1.02346e-07
7.5086e-10
1.01598e-07
7.89465e-10
1.00815e-07
8.2331e-10
1.00003e-07
8.53749e-10
9.91573e-08
8.85318e-10
9.82765e-08
9.19368e-10
9.73627e-08
9.50347e-10
9.64252e-08
9.71506e-10
9.5473e-08
9.83602e-10
9.45071e-08
9.94651e-10
9.35238e-08
1.00994e-09
9.25241e-08
1.0249e-09
9.15173e-08
1.03106e-09
9.05137e-08
1.02752e-09
8.9515e-08
1.02272e-09
8.85141e-08
1.025e-09
8.75037e-08
1.03474e-09
8.64806e-08
1.04718e-09
8.54447e-08
1.05953e-09
8.43955e-08
1.0719e-09
8.33337e-08
1.08343e-09
8.22621e-08
1.09197e-09
8.11836e-08
1.09755e-09
8.00999e-08
1.1017e-09
7.90138e-08
1.10331e-09
7.7931e-08
1.09937e-09
7.68567e-08
1.0906e-09
7.5791e-08
1.08199e-09
7.47308e-08
1.07651e-09
7.36739e-08
1.07321e-09
7.26193e-08
1.07059e-09
7.15658e-08
1.06908e-09
7.05111e-08
1.06936e-09
6.94538e-08
1.0709e-09
6.83924e-08
1.07358e-09
6.7325e-08
1.07811e-09
6.62505e-08
1.08358e-09
6.51721e-08
1.08587e-09
6.40973e-08
1.08082e-09
6.30336e-08
1.06827e-09
6.19859e-08
1.05103e-09
6.09567e-08
1.03142e-09
5.99482e-08
1.00967e-09
5.89632e-08
9.85216e-10
5.80039e-08
9.58837e-10
5.70698e-08
9.32865e-10
5.6158e-08
9.10018e-10
5.52642e-08
8.91443e-10
5.43845e-08
8.77073e-10
5.35131e-08
8.68423e-10
5.2644e-08
8.65862e-10
5.17728e-08
8.67715e-10
5.08984e-08
8.70844e-10
5.00222e-08
8.72498e-10
4.91467e-08
8.71702e-10
4.82738e-08
8.68911e-10
4.74052e-08
8.64478e-10
4.65433e-08
8.57563e-10
4.56922e-08
8.46645e-10
4.48569e-08
8.30642e-10
4.40424e-08
8.09602e-10
4.32521e-08
7.85113e-10
4.24872e-08
7.59405e-10
4.17471e-08
7.34448e-10
4.10295e-08
7.11572e-10
4.03316e-08
6.91616e-10
3.965e-08
6.75073e-10
3.89815e-08
6.61855e-10
3.83231e-08
6.5158e-10
3.76729e-08
6.43266e-10
3.70304e-08
6.35575e-10
3.63962e-08
6.27172e-10
3.57723e-08
6.16963e-10
3.51609e-08
6.04399e-10
3.45642e-08
5.8969e-10
3.39835e-08
5.73751e-10
3.34189e-08
5.57558e-10
3.28705e-08
5.41389e-10
3.23384e-08
5.24921e-10
3.18229e-08
5.08349e-10
3.13219e-08
4.93701e-10
3.083e-08
4.84652e-10
3.03391e-08
4.83527e-10
2.98439e-08
4.87809e-10
2.93448e-08
4.91648e-10
2.88468e-08
4.90427e-10
2.83548e-08
4.8446e-10
2.78707e-08
4.76492e-10
2.73966e-08
4.66474e-10
2.69381e-08
4.50789e-10
2.65026e-08
4.27834e-10
2.60922e-08
4.02715e-10
2.57004e-08
3.84171e-10
2.53174e-08
3.75323e-10
2.49384e-08
3.71351e-10
2.45625e-08
3.6818e-10
2.41875e-08
3.67427e-10
2.38077e-08
3.72213e-10
2.34196e-08
3.80594e-10
2.3026e-08
3.86205e-10
2.26331e-08
3.85514e-10
2.22452e-08
3.80516e-10
2.18644e-08
3.73548e-10
2.14934e-08
3.63798e-10
2.1135e-08
3.5121e-10
2.07886e-08
3.39361e-10
2.045e-08
3.31681e-10
2.0115e-08
3.28287e-10
1.97798e-08
3.28638e-10
1.94401e-08
3.33477e-10
1.90926e-08
3.41632e-10
1.87387e-08
3.48241e-10
1.83844e-08
3.49028e-10
1.80351e-08
3.44354e-10
1.76935e-08
3.36726e-10
1.73619e-08
3.26896e-10
1.70424e-08
3.14831e-10
1.67345e-08
3.03157e-10
1.64334e-08
2.96343e-10
1.61319e-08
2.96595e-10
1.5825e-08
3.01878e-10
1.55116e-08
3.08387e-10
1.51932e-08
3.13497e-10
1.48724e-08
3.159e-10
1.45535e-08
3.14174e-10
1.42419e-08
3.07014e-10
1.39424e-08
2.95051e-10
1.36564e-08
2.81587e-10
1.33815e-08
2.70642e-10
1.3113e-08
2.64174e-10
1.28477e-08
2.61046e-10
1.25846e-08
2.58844e-10
1.23237e-08
2.56675e-10
1.20646e-08
2.54958e-10
1.18084e-08
2.52211e-10
1.15596e-08
2.44839e-10
1.13242e-08
2.31741e-10
1.11039e-08
2.16735e-10
1.0895e-08
2.05595e-10
1.06906e-08
2.0138e-10
1.04838e-08
2.03981e-10
1.02702e-08
2.10816e-10
1.00504e-08
2.17206e-10
9.82914e-09
2.18799e-10
9.61222e-09
2.14496e-10
9.4039e-09
2.05956e-10
9.2056e-09
1.96008e-10
9.01493e-09
1.88449e-10
8.82605e-09
1.86769e-10
8.63244e-09
1.91627e-10
8.42972e-09
2.00881e-10
8.21675e-09
2.11268e-10
7.99633e-09
2.18862e-10
7.77536e-09
2.19525e-10
7.56271e-09
2.11296e-10
7.36395e-09
1.97479e-10
7.17738e-09
1.85322e-10
6.99611e-09
1.80035e-10
6.81464e-09
1.80231e-10
6.63251e-09
1.80884e-10
6.44972e-09
1.81553e-10
6.26714e-09
1.81356e-10
6.09052e-09
1.75442e-10
5.92383e-09
1.65565e-10
5.76391e-09
1.58866e-10
5.6045e-09
1.58451e-10
5.44136e-09
1.6225e-10
5.27501e-09
1.65534e-10
5.11117e-09
1.6306e-10
4.95543e-09
1.54951e-10
4.8077e-09
1.46893e-10
4.66605e-09
1.40734e-10
4.5294e-09
1.356e-10
4.39372e-09
1.34496e-10
4.25809e-09
1.3427e-10
4.12605e-09
1.3053e-10
3.99986e-09
1.24521e-10
3.86822e-09
1.29844e-10
3.72862e-09
1.3771e-10
3.58394e-09
1.42712e-10
3.43837e-09
1.4359e-10
3.3089e-09
1.27498e-10
3.18902e-09
1.17974e-10
3.0787e-09
1.08513e-10
2.98376e-09
9.32486e-11
2.90177e-09
8.04762e-11
2.8316e-09
6.88271e-11
2.7662e-09
6.4257e-11
2.72278e-09
4.24806e-11
2.68388e-09
3.81723e-11
2.644e-09
3.93538e-11
2.58881e-09
5.48456e-11
2.52697e-09
6.16456e-11
2.47368e-09
5.32346e-11
2.41972e-09
5.39895e-11
2.39227e-09
2.75382e-11
2.3488e-09
4.35645e-11
2.27047e-09
7.8407e-11
2.19705e-09
7.34312e-11
2.12865e-09
6.83157e-11
2.08405e-09
4.43932e-11
2.02965e-09
5.40511e-11
1.98189e-09
4.72631e-11
1.9633e-09
1.79696e-11
1.96092e-09
1.66172e-12
1.98627e-09
-2.61426e-11
1.97488e-09
1.05876e-11
1.99229e-09
-1.81639e-11
1.97364e-09
1.80034e-11
1.94753e-09
2.56146e-11
1.89799e-09
4.91934e-11
1.87162e-09
2.61923e-11
1.89194e-09
-2.0396e-11
1.85627e-09
3.5657e-11
1.87056e-09
-1.43165e-11
1.90525e-09
-3.47968e-11
1.88574e-09
1.93053e-11
1.85549e-09
2.99307e-11
1.76795e-09
8.71706e-11
1.7542e-09
1.338e-11
1.66947e-09
8.44602e-11
1.61784e-09
5.14309e-11
1.7069e-09
-8.92681e-11
1.73253e-09
-2.60499e-11
2.13915e-09
-4.07032e-10
2.44372e-09
-3.0523e-10
2.46699e-09
-2.44246e-11
2.50333e-09
-3.73219e-11
2.45157e-09
5.09449e-11
2.36576e-09
8.5094e-11
2.26459e-09
1.00482e-10
2.12921e-09
1.34685e-10
1.94994e-09
1.78515e-10
1.74332e-09
2.05828e-10
1.52216e-09
2.20345e-10
1.29068e-09
2.3068e-10
1.06605e-09
2.23873e-10
8.71409e-10
1.93944e-10
7.1108e-10
1.59687e-10
5.66018e-10
1.44467e-10
4.15504e-10
1.49947e-10
2.61628e-10
1.53318e-10
1.20949e-10
1.40115e-10
5.40414e-12
1.14961e-10
-8.54571e-11
9.02548e-11
-1.62826e-10
7.67413e-11
-2.41202e-10
7.77327e-11
-3.33761e-10
9.19092e-11
-4.47972e-10
1.13565e-10
-5.83516e-10
1.34909e-10
-7.35039e-10
1.50907e-10
-8.94355e-10
1.58725e-10
-1.05256e-09
1.57639e-10
-1.20035e-09
1.47257e-10
-1.32663e-09
1.25788e-10
-1.41808e-09
9.0984e-11
-1.45965e-09
4.11321e-11
-1.44232e-09
-1.77358e-11
-1.35818e-09
-8.45219e-11
-1.21417e-09
-1.44367e-10
-1.02246e-09
-1.92059e-10
-8.00104e-10
-2.2269e-10
-5.639e-10
-2.36537e-10
-3.26824e-10
-2.37408e-10
-9.81571e-11
-2.29e-10
1.14403e-10
-2.12896e-10
3.01692e-10
-1.87627e-10
4.5221e-10
-1.50858e-10
5.55455e-10
-1.03588e-10
6.09967e-10
-5.48575e-11
6.24947e-10
-1.53318e-11
6.21773e-10
2.81517e-12
6.21891e-10
-4.86727e-13
6.42631e-10
-2.11221e-11
7.02073e-10
-5.98392e-11
8.14218e-10
-1.12555e-10
9.79965e-10
-1.66171e-10
1.17835e-09
-1.98814e-10
1.3603e-09
-1.82393e-10
1.4703e-09
-1.10446e-10
1.49273e-09
-2.28744e-11
1.47858e-09
1.37069e-11
1.51602e-09
-3.78736e-11
1.6633e-09
-1.47713e-10
1.8501e-09
-1.87236e-10
1.92421e-09
-7.4523e-11
1.79821e-09
1.25582e-10
1.53904e-09
2.58764e-10
1.3367e-09
2.01935e-10
1.31882e-09
1.74851e-11
1.34084e-09
-2.24081e-11
1.21398e-09
1.26489e-10
9.37019e-10
2.76592e-10
7.43941e-10
1.92719e-10
8.12638e-10
-6.90493e-11
9.61029e-10
-1.48743e-10
9.56196e-10
4.47357e-12
9.38133e-10
1.76883e-11
1.14093e-09
-2.03201e-10
1.4628e-09
-3.22301e-10
1.51995e-09
-5.76156e-11
1.38522e-09
1.34236e-10
1.32193e-09
6.27882e-11
1.08283e-09
2.38629e-10
8.54859e-10
2.27577e-10
4.46211e-10
-1.04683e-05
4.21804e-08
-1.05912e-05
2.12648e-07
-1.07177e-05
2.36144e-07
-1.08445e-05
2.2031e-07
-1.09662e-05
2.27874e-07
-1.10808e-05
2.30694e-07
-1.11873e-05
2.19422e-07
-1.12886e-05
2.0823e-07
-1.13863e-05
2.00133e-07
-1.14811e-05
1.91286e-07
-1.15742e-05
1.84153e-07
-1.16649e-05
1.78075e-07
-1.17532e-05
1.70514e-07
-1.1838e-05
1.72796e-07
-1.19196e-05
1.65805e-07
-1.19979e-05
1.57701e-07
-1.20715e-05
1.49241e-07
-1.21399e-05
1.37652e-07
-1.22031e-05
1.27019e-07
-1.22607e-05
1.17211e-07
-1.23124e-05
1.06497e-07
-1.23588e-05
9.55145e-08
-1.24006e-05
8.59548e-08
-1.24366e-05
7.42828e-08
-1.24671e-05
6.32879e-08
-1.24915e-05
5.21978e-08
-1.25093e-05
3.95737e-08
-1.25224e-05
2.97348e-08
-1.25325e-05
2.16735e-08
-1.25367e-05
1.12096e-08
-1.25373e-05
3.02921e-09
-1.25399e-05
-4.87394e-11
-1.25344e-05
-1.59785e-08
-1.25108e-05
-4.27575e-08
-1.24807e-05
-5.40959e-08
-1.24488e-05
-6.07485e-08
-1.24133e-05
-6.97685e-08
-1.23777e-05
-7.72346e-08
-1.23306e-05
-9.59497e-08
-1.22705e-05
-1.13366e-07
-1.2207e-05
-1.20833e-07
-1.21402e-05
-1.27921e-07
-1.20674e-05
-1.42427e-07
-1.19877e-05
-1.58745e-07
-1.19033e-05
-1.64096e-07
-1.18148e-05
-1.71127e-07
-1.17227e-05
-1.82988e-07
-1.16266e-05
-1.97393e-07
-1.15267e-05
-2.07554e-07
-1.14224e-05
-2.14997e-07
-1.13129e-05
-2.2454e-07
-1.11976e-05
-2.39589e-07
-1.10769e-05
-2.52915e-07
-1.09505e-05
-2.65402e-07
-1.08186e-05
-2.74303e-07
-1.06823e-05
-2.81497e-07
-1.05418e-05
-2.89138e-07
-1.03976e-05
-2.9699e-07
-1.02509e-05
-3.01045e-07
-1.01017e-05
-3.0495e-07
-9.94999e-06
-3.10887e-07
-9.79565e-06
-3.17353e-07
-9.638e-06
-3.23971e-07
-9.47659e-06
-3.31579e-07
-9.31021e-06
-3.41805e-07
-9.1378e-06
-3.54209e-07
-8.95899e-06
-3.68297e-07
-8.77273e-06
-3.8487e-07
-8.57818e-06
-4.03694e-07
-8.37471e-06
-4.25121e-07
-8.16116e-06
-4.51406e-07
-7.93628e-06
-4.85474e-07
-7.69973e-06
-5.31205e-07
-7.45325e-06
-5.93326e-07
-7.20598e-06
-6.75908e-07
-6.98029e-06
-7.84974e-07
-6.8422e-06
-9.26441e-07
-6.89432e-06
-1.10058e-06
-6.65185e-06
-1.16848e-06
-5.81809e-06
-1.18377e-06
-4.63799e-06
-1.34811e-06
-3.58374e-06
-1.02756e-06
-3.17724e-06
-4.57068e-07
-2.93983e-06
-2.42727e-07
-2.88587e-06
-3.25092e-08
-2.81795e-06
-1.34029e-07
-2.76683e-06
-1.11865e-07
-2.75669e-06
-5.88035e-08
-2.77763e-06
-9.84012e-09
-2.72607e-06
-9.01223e-08
-2.68073e-06
-8.1226e-08
-2.64551e-06
-7.12966e-08
-2.60274e-06
-8.46496e-08
-2.56264e-06
-8.35812e-08
-2.52251e-06
-8.54817e-08
-2.47855e-06
-9.36014e-08
-2.4348e-06
-9.71591e-08
-2.39249e-06
-1.00621e-07
-2.35431e-06
-1.07366e-07
-2.31216e-06
-1.08889e-07
-2.25825e-06
-1.07406e-07
-2.18938e-06
-1.11931e-07
-2.12117e-06
-1.06644e-07
-2.06765e-06
-9.58493e-08
-2.02204e-06
-8.65453e-08
-1.9811e-06
-8.15433e-08
-1.9373e-06
-8.5922e-08
-1.89384e-06
-8.56636e-08
-1.85195e-06
-8.37104e-08
-1.81097e-06
-8.2555e-08
-1.76963e-06
-8.30748e-08
-1.72885e-06
-8.2624e-08
-1.68867e-06
-8.21549e-08
-1.64894e-06
-8.23142e-08
-1.60981e-06
-8.22165e-08
-1.57214e-06
-8.27926e-08
-1.53778e-06
-8.32949e-08
-1.50255e-06
-8.26404e-08
-1.46152e-06
-8.20685e-08
-1.41399e-06
-8.27329e-08
-1.36741e-06
-7.94751e-08
-1.32818e-06
-7.38023e-08
-1.29413e-06
-6.86523e-08
-1.26263e-06
-6.5424e-08
-1.22957e-06
-6.65442e-08
-1.19621e-06
-6.65296e-08
-1.16335e-06
-6.54326e-08
-1.13111e-06
-6.44338e-08
-1.09922e-06
-6.37757e-08
-1.06786e-06
-6.27731e-08
-1.03682e-06
-6.19545e-08
-1.00606e-06
-6.12149e-08
-9.75752e-07
-6.02386e-08
-9.45933e-07
-5.92362e-08
-9.16569e-07
-5.82953e-08
-8.87703e-07
-5.73119e-08
-8.59333e-07
-5.63089e-08
-8.31488e-07
-5.52574e-08
-8.04143e-07
-5.42494e-08
-7.77316e-07
-5.32351e-08
-7.51007e-07
-5.22373e-08
-7.25222e-07
-5.12189e-08
-6.99968e-07
-5.01799e-08
-6.75237e-07
-4.91656e-08
-6.51016e-07
-4.8175e-08
-6.27301e-07
-4.71745e-08
-6.04097e-07
-4.61644e-08
-5.81396e-07
-4.51872e-08
-5.59184e-07
-4.42351e-08
-5.37463e-07
-4.32703e-08
-5.16233e-07
-4.23057e-08
-4.95477e-07
-4.13722e-08
-4.75186e-07
-4.04431e-08
-4.55364e-07
-3.9505e-08
-4.36004e-07
-3.85804e-08
-4.17091e-07
-3.76835e-08
-3.98619e-07
-3.67945e-08
-3.8059e-07
-3.59071e-08
-3.63003e-07
-3.503e-08
-3.45851e-07
-3.41582e-08
-3.29128e-07
-3.32867e-08
-3.12831e-07
-3.24315e-08
-2.96957e-07
-3.1601e-08
-2.81494e-07
-3.07831e-08
-2.66425e-07
-2.9974e-08
-2.51746e-07
-2.91776e-08
-2.37453e-07
-2.84048e-08
-2.23543e-07
-2.76456e-08
-2.10016e-07
-2.68818e-08
-1.9687e-07
-2.61163e-08
-1.84099e-07
-2.53767e-08
-1.71692e-07
-2.46655e-08
-1.59644e-07
-2.39547e-08
-1.47947e-07
-2.32453e-08
-1.36591e-07
-2.25623e-08
-1.25565e-07
-2.19022e-08
-1.14868e-07
-2.12407e-08
-1.04496e-07
-2.05798e-08
-9.44414e-08
-1.99395e-08
-8.46961e-08
-1.9316e-08
-7.52574e-08
-1.86923e-08
-6.61239e-08
-1.80723e-08
-5.7289e-08
-1.74731e-08
-4.87448e-08
-1.68918e-08
-4.04894e-08
-1.63113e-08
-3.25228e-08
-1.5731e-08
-2.48396e-08
-1.5165e-08
-1.74326e-08
-1.46147e-08
-1.03002e-08
-1.40677e-08
-3.44531e-09
-1.35183e-08
3.13381e-09
-1.29768e-08
9.4466e-09
-1.24538e-08
1.55037e-08
-1.19471e-08
2.13127e-08
-1.14486e-08
2.68814e-08
-1.09587e-08
3.22198e-08
-1.04839e-08
3.73331e-08
-1.00218e-08
4.22204e-08
-9.56394e-09
4.68815e-08
-9.11194e-09
5.13226e-08
-8.67294e-09
5.55508e-08
-8.24705e-09
5.95722e-08
-7.83178e-09
6.33932e-08
-7.42851e-09
6.7021e-08
-7.03752e-09
7.04619e-08
-6.65703e-09
7.37208e-08
-6.28839e-09
7.68018e-08
-5.93227e-09
7.97067e-08
-5.58447e-09
8.2437e-08
-5.24475e-09
8.49974e-08
-4.91902e-09
8.7395e-08
-4.60535e-09
8.96355e-08
-4.29289e-09
9.17235e-08
-3.98076e-09
9.36635e-08
-3.67949e-09
9.54632e-08
-3.3923e-09
9.71273e-08
-3.11014e-09
9.86576e-08
-2.83166e-09
1.00057e-07
-2.56726e-09
1.01328e-07
-2.31875e-09
1.02473e-07
-2.07565e-09
1.03492e-07
-1.83232e-09
1.04389e-07
-1.5975e-09
1.05172e-07
-1.37739e-09
1.05848e-07
-1.16541e-09
1.06427e-07
-9.55642e-10
1.06906e-07
-7.5568e-10
1.07294e-07
-5.71555e-10
1.07596e-07
-3.99525e-10
1.07811e-07
-2.32163e-10
1.07941e-07
-6.98966e-11
1.07988e-07
8.30093e-11
1.07958e-07
2.26805e-10
1.07855e-07
3.6318e-10
1.07685e-07
4.90317e-10
1.07456e-07
6.07257e-10
1.07174e-07
7.18158e-10
1.06842e-07
8.27242e-10
1.06459e-07
9.32924e-10
1.06028e-07
1.03157e-09
1.05545e-07
1.12395e-09
1.05013e-07
1.21373e-09
1.0443e-07
1.30229e-09
1.03799e-07
1.38899e-09
1.03122e-07
1.47455e-09
1.024e-07
1.55986e-09
1.01632e-07
1.64116e-09
1.00827e-07
1.71139e-09
9.99912e-08
1.76832e-09
9.91339e-08
1.81818e-09
9.82569e-08
1.86802e-09
9.73584e-08
1.91627e-09
9.64382e-08
1.95512e-09
9.54994e-08
1.98226e-09
9.45449e-08
2.00592e-09
9.35744e-08
2.03509e-09
9.25851e-08
2.06719e-09
9.15774e-08
2.09092e-09
9.05553e-08
2.10113e-09
8.95235e-08
2.10561e-09
8.84841e-08
2.11496e-09
8.74379e-08
2.13054e-09
8.63872e-08
2.14627e-09
8.5334e-08
2.15923e-09
8.42784e-08
2.172e-09
8.32189e-08
2.1853e-09
8.21554e-08
2.19555e-09
8.10899e-08
2.20113e-09
8.00236e-08
2.20434e-09
7.89566e-08
2.20542e-09
7.78889e-08
2.20124e-09
7.68208e-08
2.19211e-09
7.5752e-08
2.18363e-09
7.46818e-08
2.17899e-09
7.36105e-08
2.17608e-09
7.25389e-08
2.17276e-09
7.14669e-08
2.17028e-09
7.03943e-08
2.16945e-09
6.93225e-08
2.16815e-09
6.82544e-08
2.16478e-09
6.71922e-08
2.16082e-09
6.61364e-08
2.15728e-09
6.50869e-08
2.15073e-09
6.40446e-08
2.13592e-09
6.30118e-08
2.11159e-09
6.19902e-08
2.08092e-09
6.09809e-08
2.04713e-09
5.99847e-08
2.01047e-09
5.90032e-08
1.96986e-09
5.80375e-08
1.92628e-09
5.70878e-08
1.88325e-09
5.61528e-08
1.84467e-09
5.5231e-08
1.81222e-09
5.43207e-08
1.78575e-09
5.34209e-08
1.76618e-09
5.25306e-08
1.75374e-09
5.16487e-08
1.74697e-09
5.0774e-08
1.74254e-09
4.99063e-08
1.73708e-09
4.90457e-08
1.7288e-09
4.81934e-08
1.7175e-09
4.73506e-08
1.70322e-09
4.65188e-08
1.68496e-09
4.56995e-08
1.66103e-09
4.48945e-08
1.63032e-09
4.41051e-08
1.59325e-09
4.3332e-08
1.55193e-09
4.25754e-08
1.50921e-09
4.18349e-08
1.46768e-09
4.11097e-08
1.42909e-09
4.03988e-08
1.39438e-09
3.97015e-08
1.36389e-09
3.90174e-08
1.33731e-09
3.8346e-08
1.31394e-09
3.76875e-08
1.29263e-09
3.70418e-08
1.272e-09
3.6409e-08
1.25062e-09
3.57893e-08
1.22707e-09
3.51838e-08
1.2003e-09
3.45935e-08
1.17031e-09
3.40189e-08
1.13854e-09
3.3459e-08
1.1075e-09
3.2911e-08
1.07927e-09
3.23715e-08
1.05416e-09
3.18384e-08
1.03099e-09
3.13121e-08
1.00944e-09
3.07939e-08
9.92058e-10
3.02841e-08
9.82452e-10
2.97806e-08
9.80318e-10
2.92815e-08
9.79622e-10
2.87881e-08
9.7258e-10
2.83044e-08
9.56828e-10
2.78331e-08
9.36348e-10
2.73735e-08
9.14625e-10
2.69237e-08
8.89045e-10
2.64844e-08
8.55495e-10
2.60578e-08
8.17759e-10
2.56429e-08
7.87439e-10
2.5235e-08
7.7164e-10
2.48295e-08
7.6526e-10
2.44263e-08
7.59841e-10
2.40278e-08
7.54468e-10
2.36345e-08
7.54134e-10
2.32446e-08
7.59203e-10
2.28573e-08
7.62279e-10
2.24742e-08
7.57487e-10
2.20967e-08
7.47013e-10
2.17245e-08
7.34895e-10
2.13573e-08
7.20418e-10
2.09951e-08
7.02913e-10
2.06374e-08
6.86822e-10
2.02826e-08
6.76492e-10
1.993e-08
6.7113e-10
1.958e-08
6.69274e-10
1.92319e-08
6.72418e-10
1.88851e-08
6.79671e-10
1.85408e-08
6.84033e-10
1.82024e-08
6.79026e-10
1.78727e-08
6.6593e-10
1.75509e-08
6.50498e-10
1.72343e-08
6.35486e-10
1.69208e-08
6.20292e-10
1.66094e-08
6.06448e-10
1.62992e-08
5.98481e-10
1.59888e-08
5.9887e-10
1.56779e-08
6.04731e-10
1.53676e-08
6.10708e-10
1.50599e-08
6.13354e-10
1.47564e-08
6.11669e-10
1.44582e-08
6.04881e-10
1.41658e-08
5.91971e-10
1.388e-08
5.73655e-10
1.36007e-08
5.53674e-10
1.33271e-08
5.3714e-10
1.30572e-08
5.26971e-10
1.27899e-08
5.21346e-10
1.25263e-08
5.15538e-10
1.22688e-08
5.07222e-10
1.20189e-08
4.98159e-10
1.17756e-08
4.88925e-10
1.15383e-08
4.7588e-10
1.13067e-08
4.5731e-10
1.10795e-08
4.38304e-10
1.08538e-08
4.26022e-10
1.06276e-08
4.22591e-10
1.04015e-08
4.25424e-10
1.01775e-08
4.30457e-10
9.95803e-09
4.32566e-10
9.74548e-09
4.2751e-10
9.54064e-09
4.1574e-10
9.34171e-09
4.01495e-10
9.14515e-09
3.89403e-10
8.94712e-09
3.83514e-10
8.74512e-09
3.86003e-10
8.53923e-09
3.94947e-10
8.33142e-09
4.063e-10
8.12451e-09
4.15935e-10
7.9213e-09
4.19963e-10
7.72304e-09
4.15759e-10
7.52896e-09
4.03427e-10
7.33731e-09
3.87217e-10
7.14627e-09
3.74483e-10
6.95469e-09
3.6976e-10
6.76434e-09
3.68759e-10
6.58014e-09
3.63314e-10
6.40409e-09
3.55916e-10
6.23309e-09
3.50765e-10
6.06346e-09
3.43613e-10
5.89262e-09
3.35062e-10
5.7208e-09
3.29477e-10
5.5508e-09
3.27328e-10
5.38479e-09
3.27205e-10
5.22426e-09
3.25015e-10
5.07044e-09
3.15767e-10
4.92371e-09
3.00469e-10
4.7803e-09
2.88895e-10
4.63726e-09
2.82155e-10
4.49448e-09
2.76492e-10
4.35286e-09
2.73943e-10
4.2124e-09
2.72271e-10
4.0752e-09
2.65021e-10
3.94164e-09
2.5515e-10
3.81098e-09
2.57403e-10
3.68624e-09
2.59254e-10
3.559e-09
2.66713e-10
3.43027e-09
2.69115e-10
3.31994e-09
2.34727e-10
3.2383e-09
1.96681e-10
3.16688e-09
1.77222e-10
3.07972e-09
1.77971e-10
2.98041e-09
1.77655e-10
2.88542e-09
1.62015e-10
2.80574e-09
1.42499e-10
2.74026e-09
1.06886e-10
2.67535e-09
1.02337e-10
2.61917e-09
9.51125e-11
2.55807e-09
1.15804e-10
2.50107e-09
1.18723e-10
2.44386e-09
1.10684e-10
2.38963e-09
1.08566e-10
2.34479e-09
7.27544e-11
2.29406e-09
9.46213e-11
2.22722e-09
1.45484e-10
2.17296e-09
1.2775e-10
2.12185e-09
1.19299e-10
2.09655e-09
6.93275e-11
2.06818e-09
8.18267e-11
2.03691e-09
7.77325e-11
2.01578e-09
3.81314e-11
1.99762e-09
1.87592e-11
1.9697e-09
7.19785e-13
1.92645e-09
5.28765e-11
1.9282e-09
-2.07015e-11
1.92361e-09
2.20284e-11
1.89394e-09
5.49609e-11
1.8943e-09
4.87316e-11
1.90302e-09
1.75128e-11
1.89523e-09
-1.24935e-11
1.90491e-09
2.60446e-11
1.87674e-09
1.37953e-11
1.79853e-09
4.31955e-11
1.79978e-09
1.76993e-11
1.75939e-09
6.99068e-11
1.672e-09
1.74204e-10
1.79111e-09
-1.06048e-10
1.90233e-09
-2.67528e-11
2.36204e-09
-4.08232e-10
2.7955e-09
-5.22951e-10
3.04539e-09
-2.75945e-10
3.02483e-09
-3.86874e-10
2.77186e-09
-5.31923e-11
2.73983e-09
6.94718e-12
2.69531e-09
6.75774e-12
2.60349e-09
1.42432e-10
2.4908e-09
1.97438e-10
2.34527e-09
2.45577e-10
2.15634e-09
3.23048e-10
1.97642e-09
3.57769e-10
1.82729e-09
3.5422e-10
1.67953e-09
3.67367e-10
1.51638e-09
3.93132e-10
1.35023e-09
3.89384e-10
1.18822e-09
3.55379e-10
1.02156e-09
3.25824e-10
8.43814e-10
3.21712e-10
6.68122e-10
3.25125e-10
5.1317e-10
3.07717e-10
3.88311e-10
2.64362e-10
2.92268e-10
2.10327e-10
2.14105e-10
1.67679e-10
1.40071e-10
1.49986e-10
5.71897e-11
1.59795e-10
-4.39081e-11
1.92176e-10
-1.62872e-10
2.31708e-10
-2.9386e-10
2.65101e-10
-4.24299e-10
2.80588e-10
-5.42648e-10
2.76363e-10
-6.41128e-10
2.5546e-10
-7.14779e-10
2.20299e-10
-7.61081e-10
1.7153e-10
-7.79387e-10
1.08775e-10
-7.71423e-10
3.26922e-11
-7.37175e-10
-5.24291e-11
-6.80968e-10
-1.41151e-10
-6.04e-10
-2.21741e-10
-5.06469e-10
-2.89989e-10
-3.88551e-10
-3.41005e-10
-2.50951e-10
-3.74539e-10
-9.6985e-11
-3.91786e-10
6.56067e-11
-3.92015e-10
2.24651e-10
-3.72377e-10
3.64878e-10
-3.28307e-10
4.73814e-10
-2.60264e-10
5.49622e-10
-1.79881e-10
5.97985e-10
-1.03723e-10
6.36722e-10
-5.45907e-11
6.76572e-10
-3.7577e-11
7.22764e-10
-4.72421e-11
7.80055e-10
-7.89986e-11
8.51654e-10
-1.32044e-10
9.44642e-10
-2.06168e-10
1.06553e-09
-2.87696e-10
1.20486e-09
-3.38807e-10
1.3337e-09
-3.11894e-10
1.42596e-09
-2.03377e-10
1.4836e-09
-8.11782e-11
1.53782e-09
-4.11798e-11
1.62335e-09
-1.24067e-10
1.71072e-09
-2.35752e-10
1.73252e-09
-2.09683e-10
1.64662e-09
1.07252e-11
1.49787e-09
2.73702e-10
1.41391e-09
3.42085e-10
1.4569e-09
1.58327e-10
1.49079e-09
-1.70122e-11
1.39898e-09
6.88096e-11
1.1886e-09
3.36281e-10
1.06949e-09
3.95128e-10
1.15017e-09
1.11469e-10
1.22074e-09
-1.40199e-10
1.11334e-09
-4.1929e-11
1.02513e-09
9.20631e-11
1.12523e-09
-8.30586e-11
1.20538e-09
-2.84043e-10
1.04638e-09
-1.6403e-10
9.14077e-10
7.39404e-11
8.6546e-10
1.82113e-10
7.67138e-10
1.60426e-10
7.04051e-10
3.01129e-10
7.9905e-10
1.32103e-10
8.37087e-10
-1.04336e-05
1.23812e-07
-1.05959e-05
4.03337e-07
-1.07331e-05
3.9497e-07
-1.08719e-05
3.75914e-07
-1.1e-05
3.69769e-07
-1.11149e-05
3.56246e-07
-1.12247e-05
3.36128e-07
-1.13331e-05
3.21089e-07
-1.14374e-05
3.07743e-07
-1.15393e-05
2.95171e-07
-1.16402e-05
2.85371e-07
-1.17377e-05
2.74725e-07
-1.18339e-05
2.65435e-07
-1.192e-05
2.57461e-07
-1.20031e-05
2.46942e-07
-1.20825e-05
2.34473e-07
-1.21549e-05
2.18459e-07
-1.22228e-05
2.02276e-07
-1.22861e-05
1.86985e-07
-1.23434e-05
1.71175e-07
-1.23946e-05
1.54261e-07
-1.24396e-05
1.36978e-07
-1.24783e-05
1.20995e-07
-1.25118e-05
1.04024e-07
-1.25396e-05
8.72776e-08
-1.25608e-05
6.96995e-08
-1.25757e-05
5.10637e-08
-1.25856e-05
3.6406e-08
-1.25906e-05
2.35746e-08
-1.25892e-05
6.65189e-09
-1.25835e-05
-5.95683e-09
-1.25745e-05
-1.25199e-08
-1.25615e-05
-3.25428e-08
-1.25427e-05
-6.52636e-08
-1.25168e-05
-8.37341e-08
-1.24843e-05
-9.72821e-08
-1.24463e-05
-1.11762e-07
-1.24024e-05
-1.25087e-07
-1.23521e-05
-1.49953e-07
-1.22931e-05
-1.75688e-07
-1.22266e-05
-1.90051e-07
-1.21529e-05
-2.03672e-07
-1.20755e-05
-2.21422e-07
-1.19955e-05
-2.39761e-07
-1.19071e-05
-2.53215e-07
-1.1813e-05
-2.65801e-07
-1.17175e-05
-2.79028e-07
-1.16227e-05
-2.92594e-07
-1.15243e-05
-3.06485e-07
-1.14193e-05
-3.20507e-07
-1.1309e-05
-3.35321e-07
-1.11963e-05
-3.52699e-07
-1.1079e-05
-3.70574e-07
-1.09568e-05
-3.87972e-07
-1.08282e-05
-4.0328e-07
-1.06935e-05
-4.16542e-07
-1.05544e-05
-4.28629e-07
-1.04124e-05
-4.39165e-07
-1.02666e-05
-4.47043e-07
-1.01172e-05
-4.54334e-07
-9.96569e-06
-4.62154e-07
-9.81208e-06
-4.70521e-07
-9.65509e-06
-4.80298e-07
-9.494e-06
-4.91801e-07
-9.32846e-06
-5.06327e-07
-9.15791e-06
-5.23609e-07
-8.98198e-06
-5.43014e-07
-8.80077e-06
-5.64826e-07
-8.61413e-06
-5.89043e-07
-8.42201e-06
-6.15877e-07
-8.22514e-06
-6.46775e-07
-8.02517e-06
-6.83775e-07
-7.82438e-06
-7.30263e-07
-7.62737e-06
-7.88675e-07
-7.44247e-06
-8.59346e-07
-7.2843e-06
-9.41976e-07
-7.17698e-06
-1.0328e-06
-7.15699e-06
-1.11957e-06
-7.14191e-06
-1.18347e-06
-7.08221e-06
-1.24418e-06
-7.10134e-06
-1.32901e-06
-6.78786e-06
-1.33958e-06
-5.91065e-06