/*--------------------------------*- C++ -*----------------------------------*\
| =========                 |                                                 |
| \\      /  F ield         | OpenFOAM: The Open Source CFD Toolbox           |
|  \\    /   O peration     | Version:  v2006                                 |
|   \\  /    A nd           | Website:  www.openfoam.com                      |
|    \\/     M anipulation  |                                                 |
\*---------------------------------------------------------------------------*/
FoamFile
{
    version     2.0;
    format      ascii;
    class       volVectorField;
    location    "1";
    object      U;
}
// * * * * * * * * * * * * * * * * * * * * * * * * * * * * * * * * * * * * * //

dimensions      [0 1 -1 0 0 0 0];


internalField   nonuniform List<vector> 
33000
(
(-0.0215573 0 6.53472e-05)
(-0.0290652 0 0.000333678)
(-0.0262041 0 0.000357194)
(-0.0267148 0 0.00030373)
(-0.0269374 0 0.000320286)
(-0.0272547 0 0.000323949)
(-0.0275471 0 0.000292333)
(-0.0278335 0 0.000263527)
(-0.0281008 0 0.000238577)
(-0.0283546 0 0.000213559)
(-0.0285939 0 0.000196086)
(-0.0288227 0 0.000184223)
(-0.0290386 0 0.000169907)
(-0.0292541 0 0.000180445)
(-0.0294697 0 0.000170263)
(-0.0296749 0 0.000160367)
(-0.0298702 0 0.000152289)
(-0.0300525 0 0.000139398)
(-0.0302201 0 0.000127073)
(-0.030376 0 0.000118503)
(-0.0305202 0 0.000108259)
(-0.0306501 0 9.68862e-05)
(-0.0307689 0 8.78529e-05)
(-0.0308727 0 7.69282e-05)
(-0.0309636 0 6.71464e-05)
(-0.0310421 0 5.69431e-05)
(-0.0311059 0 4.38276e-05)
(-0.0311548 0 3.24474e-05)
(-0.0311905 0 2.28556e-05)
(-0.0312141 0 1.41327e-05)
(-0.0312265 0 4.8115e-06)
(-0.0312275 0 -4.86847e-06)
(-0.0312122 0 -1.94819e-05)
(-0.031176 0 -3.6358e-05)
(-0.0311229 0 -4.69957e-05)
(-0.0310571 0 -5.61959e-05)
(-0.0309777 0 -6.73572e-05)
(-0.0308821 0 -8.09444e-05)
(-0.0307694 0 -9.34874e-05)
(-0.0306434 0 -0.000101966)
(-0.0305087 0 -0.000109033)
(-0.0303654 0 -0.000116013)
(-0.0302072 0 -0.000132636)
(-0.0300284 0 -0.000150102)
(-0.0298393 0 -0.000150714)
(-0.0296462 0 -0.000157013)
(-0.0294392 0 -0.000173509)
(-0.0292096 0 -0.000193964)
(-0.0289598 0 -0.000206063)
(-0.028699 0 -0.000211592)
(-0.0284293 0 -0.000220064)
(-0.0281426 0 -0.000238069)
(-0.0278351 0 -0.00025312)
(-0.0275103 0 -0.00026578)
(-0.0271741 0 -0.000271667)
(-0.0268313 0 -0.000276722)
(-0.0264815 0 -0.000283352)
(-0.026123 0 -0.000291213)
(-0.0257585 0 -0.000294105)
(-0.0253908 0 -0.000296684)
(-0.0250173 0 -0.000303482)
(-0.0246349 0 -0.000311054)
(-0.0242437 0 -0.000317525)
(-0.0238438 0 -0.000325039)
(-0.0234327 0 -0.000335249)
(-0.0230075 0 -0.000347548)
(-0.0225655 0 -0.000362439)
(-0.0221029 0 -0.000380072)
(-0.021617 0 -0.000400665)
(-0.0211031 0 -0.000425373)
(-0.0205537 0 -0.000457825)
(-0.0199559 0 -0.000503881)
(-0.019287 0 -0.000573574)
(-0.0185123 0 -0.000686122)
(-0.0175744 0 -0.000871296)
(-0.0163011 0 -0.00119242)
(-0.0146647 0 -0.00177869)
(-0.0139756 0 -0.00274642)
(-0.00826813 0 -0.00132757)
(-0.00838139 0 -0.000133835)
(-0.00723336 0 0.000438245)
(-0.00737958 0 0.000749425)
(-0.0073596 0 -6.0663e-05)
(-0.00722127 0 -0.000149543)
(-0.00733387 0 -0.000159909)
(-0.00729413 0 -0.000140888)
(-0.00709717 0 -9.00706e-05)
(-0.00697994 0 -4.51779e-05)
(-0.0068977 0 -1.73078e-05)
(-0.0068206 0 -5.71132e-05)
(-0.00673089 0 -6.84902e-05)
(-0.00664896 0 -7.1063e-05)
(-0.00655972 0 -8.15327e-05)
(-0.00645641 0 -8.20824e-05)
(-0.0063524 0 -8.79541e-05)
(-0.00624159 0 -9.58107e-05)
(-0.00612122 0 -0.000105576)
(-0.00597644 0 -0.000118134)
(-0.00589366 0 -0.000147055)
(-0.00560678 0 -0.000134993)
(-0.00553339 0 -9.85019e-05)
(-0.00540252 0 -6.72912e-05)
(-0.00530891 0 -6.30725e-05)
(-0.00521001 0 -8.09872e-05)
(-0.0051044 0 -8.29021e-05)
(-0.00500251 0 -8.20926e-05)
(-0.00489841 0 -8.36287e-05)
(-0.00479149 0 -8.32516e-05)
(-0.00468575 0 -8.2833e-05)
(-0.0045817 0 -8.23046e-05)
(-0.00447813 0 -8.21025e-05)
(-0.00437564 0 -8.18385e-05)
(-0.00427235 0 -8.15458e-05)
(-0.0041717 0 -8.27205e-05)
(-0.00406614 0 -8.30037e-05)
(-0.00395794 0 -8.84449e-05)
(-0.00388135 0 -9.57959e-05)
(-0.0036964 0 -9.09935e-05)
(-0.00362833 0 -7.67506e-05)
(-0.00353462 0 -6.55485e-05)
(-0.00345154 0 -6.45034e-05)
(-0.00337302 0 -6.70002e-05)
(-0.00328836 0 -6.70003e-05)
(-0.00320356 0 -6.473e-05)
(-0.00312143 0 -6.57046e-05)
(-0.00303922 0 -6.58342e-05)
(-0.0029571 0 -6.55086e-05)
(-0.00287654 0 -6.43888e-05)
(-0.00279614 0 -6.36262e-05)
(-0.00271639 0 -6.25912e-05)
(-0.00263786 0 -6.18256e-05)
(-0.0025603 0 -6.10544e-05)
(-0.0024838 0 -6.01053e-05)
(-0.00240861 0 -5.90674e-05)
(-0.00233461 0 -5.80775e-05)
(-0.00226179 0 -5.70675e-05)
(-0.0021902 0 -5.60355e-05)
(-0.00211995 0 -5.49724e-05)
(-0.00205105 0 -5.39372e-05)
(-0.00198345 0 -5.29256e-05)
(-0.0019171 0 -5.19415e-05)
(-0.00185202 0 -5.09241e-05)
(-0.00178826 0 -4.98816e-05)
(-0.00172581 0 -4.88761e-05)
(-0.0016646 0 -4.78783e-05)
(-0.00160465 0 -4.68483e-05)
(-0.00154601 0 -4.58294e-05)
(-0.00148861 0 -4.48676e-05)
(-0.0014324 0 -4.39248e-05)
(-0.00137738 0 -4.29705e-05)
(-0.00132357 0 -4.20266e-05)
(-0.00127095 0 -4.11125e-05)
(-0.00121947 0 -4.01857e-05)
(-0.00116918 0 -3.92497e-05)
(-0.00112008 0 -3.83303e-05)
(-0.00107212 0 -3.74322e-05)
(-0.00102529 0 -3.65343e-05)
(-0.000979596 0 -3.5658e-05)
(-0.000935006 0 -3.48069e-05)
(-0.000891498 0 -3.39432e-05)
(-0.000849095 0 -3.30644e-05)
(-0.000807787 0 -3.22336e-05)
(-0.000767505 0 -3.14592e-05)
(-0.00072822 0 -3.06701e-05)
(-0.000689955 0 -2.9841e-05)
(-0.000652726 0 -2.90226e-05)
(-0.000616485 0 -2.82615e-05)
(-0.000581185 0 -2.75209e-05)
(-0.000546826 0 -2.67575e-05)
(-0.000513439 0 -2.59855e-05)
(-0.000481006 0 -2.52683e-05)
(-0.000449451 0 -2.45933e-05)
(-0.000418762 0 -2.38936e-05)
(-0.000388979 0 -2.31754e-05)
(-0.000360085 0 -2.24973e-05)
(-0.000332019 0 -2.1848e-05)
(-0.000304776 0 -2.11807e-05)
(-0.00027838 0 -2.05068e-05)
(-0.000252809 0 -1.98668e-05)
(-0.000228019 0 -1.92443e-05)
(-0.000204006 0 -1.86118e-05)
(-0.00018078 0 -1.79853e-05)
(-0.000158311 0 -1.73955e-05)
(-0.000136558 0 -1.68287e-05)
(-0.000115514 0 -1.62568e-05)
(-9.51969e-05 0 -1.56831e-05)
(-7.55968e-05 0 -1.51268e-05)
(-5.66876e-05 0 -1.45842e-05)
(-3.84601e-05 0 -1.4043e-05)
(-2.09165e-05 0 -1.35061e-05)
(-4.04749e-06 0 -1.29862e-05)
(1.21752e-05 0 -1.24877e-05)
(2.77773e-05 0 -1.20025e-05)
(4.277e-05 0 -1.15181e-05)
(5.71518e-05 0 -1.10311e-05)
(7.09299e-05 0 -1.05496e-05)
(8.41214e-05 0 -1.00801e-05)
(9.67376e-05 0 -9.62281e-06)
(0.000108786 0 -9.17722e-06)
(0.000120279 0 -8.74232e-06)
(0.00013123 0 -8.31485e-06)
(0.000141649 0 -7.89657e-06)
(0.000151548 0 -7.49094e-06)
(0.000160943 0 -7.0959e-06)
(0.000169847 0 -6.70905e-06)
(0.000178272 0 -6.33708e-06)
(0.000186242 0 -5.98457e-06)
(0.00019378 0 -5.6467e-06)
(0.000200895 0 -5.32554e-06)
(0.000207611 0 -5.02711e-06)
(0.000213952 0 -4.73753e-06)
(0.00021992 0 -4.43339e-06)
(0.00022549 0 -4.11853e-06)
(0.000230668 0 -3.80988e-06)
(0.000235476 0 -3.51477e-06)
(0.000239918 0 -3.21412e-06)
(0.000243985 0 -2.91339e-06)
(0.00024769 0 -2.6383e-06)
(0.000251065 0 -2.39314e-06)
(0.000254135 0 -2.15599e-06)
(0.000256894 0 -1.91754e-06)
(0.000259344 0 -1.69279e-06)
(0.00026151 0 -1.48674e-06)
(0.000263408 0 -1.28102e-06)
(0.000265026 0 -1.06503e-06)
(0.00026637 0 -8.48026e-07)
(0.000267467 0 -6.54742e-07)
(0.000268342 0 -4.80951e-07)
(0.000269006 0 -3.15852e-07)
(0.000269463 0 -1.60096e-07)
(0.000269724 0 -1.79488e-08)
(0.000269803 0 1.15236e-07)
(0.000269703 0 2.46015e-07)
(0.000269428 0 3.74842e-07)
(0.000268984 0 5.02297e-07)
(0.000268376 0 6.33722e-07)
(0.000267603 0 7.69093e-07)
(0.000266667 0 8.96827e-07)
(0.000265583 0 1.00353e-06)
(0.000264375 0 1.08851e-06)
(0.000263058 0 1.16181e-06)
(0.000261639 0 1.23329e-06)
(0.000260117 0 1.30721e-06)
(0.000258494 0 1.38416e-06)
(0.000256769 0 1.46145e-06)
(0.000254942 0 1.53259e-06)
(0.000253026 0 1.5941e-06)
(0.000251032 0 1.65371e-06)
(0.000248962 0 1.72412e-06)
(0.000246806 0 1.80505e-06)
(0.00024456 0 1.87684e-06)
(0.000242239 0 1.9205e-06)
(0.000239874 0 1.941e-06)
(0.000237479 0 1.96161e-06)
(0.000235045 0 1.99493e-06)
(0.000232563 0 2.02599e-06)
(0.000230047 0 2.03211e-06)
(0.000227529 0 2.01294e-06)
(0.000225029 0 1.99172e-06)
(0.000222535 0 1.99015e-06)
(0.000220025 0 2.0096e-06)
(0.000217483 0 2.03944e-06)
(0.00021491 0 2.07226e-06)
(0.000212304 0 2.10559e-06)
(0.000209664 0 2.13446e-06)
(0.000206995 0 2.15421e-06)
(0.000204306 0 2.16761e-06)
(0.000201603 0 2.17957e-06)
(0.000198888 0 2.18573e-06)
(0.000196173 0 2.17667e-06)
(0.000193476 0 2.15369e-06)
(0.000190803 0 2.13022e-06)
(0.000188148 0 2.11458e-06)
(0.000185503 0 2.10528e-06)
(0.000182864 0 2.09859e-06)
(0.000180229 0 2.09446e-06)
(0.000177594 0 2.09397e-06)
(0.000174954 0 2.09715e-06)
(0.000172307 0 2.10582e-06)
(0.000169647 0 2.12264e-06)
(0.00016697 0 2.14377e-06)
(0.000164275 0 2.15649e-06)
(0.000161579 0 2.14945e-06)
(0.000158903 0 2.12348e-06)
(0.000156262 0 2.08661e-06)
(0.000153665 0 2.04445e-06)
(0.000151117 0 1.99741e-06)
(0.000148623 0 1.94389e-06)
(0.000146192 0 1.88591e-06)
(0.000143826 0 1.82899e-06)
(0.000141521 0 1.7798e-06)
(0.000139266 0 1.74028e-06)
(0.000137052 0 1.70894e-06)
(0.000134867 0 1.69143e-06)
(0.000132695 0 1.68998e-06)
(0.000130521 0 1.70052e-06)
(0.000128339 0 1.71443e-06)
(0.00012615 0 1.72392e-06)
(0.000123959 0 1.72649e-06)
(0.000121772 0 1.72407e-06)
(0.000119595 0 1.71844e-06)
(0.00011743 0 1.70789e-06)
(0.000115286 0 1.68834e-06)
(0.000113174 0 1.65673e-06)
(0.000111109 0 1.61217e-06)
(0.000109102 0 1.55847e-06)
(0.000107158 0 1.5014e-06)
(0.000105277 0 1.446e-06)
(0.000103457 0 1.39557e-06)
(0.00010169 0 1.35228e-06)
(9.99674e-05 0 1.31768e-06)
(9.82817e-05 0 1.2916e-06)
(9.66247e-05 0 1.27347e-06)
(9.49898e-05 0 1.26063e-06)
(9.3374e-05 0 1.2494e-06)
(9.17775e-05 0 1.23622e-06)
(9.02036e-05 0 1.21873e-06)
(8.86581e-05 0 1.19624e-06)
(8.7147e-05 0 1.16968e-06)
(8.56749e-05 0 1.14072e-06)
(8.42433e-05 0 1.10978e-06)
(8.28519e-05 0 1.07537e-06)
(8.1501e-05 0 1.03602e-06)
(8.01917e-05 0 9.94467e-07)
(7.89231e-05 0 9.59194e-07)
(7.76865e-05 0 9.41429e-07)
(7.64626e-05 0 9.45383e-07)
(7.52316e-05 0 9.60904e-07)
(7.39864e-05 0 9.72276e-07)
(7.27364e-05 0 9.71111e-07)
(7.14971e-05 0 9.62269e-07)
(7.02765e-05 0 9.52036e-07)
(6.90767e-05 0 9.35754e-07)
(6.79064e-05 0 9.01561e-07)
(6.67852e-05 0 8.47489e-07)
(6.57292e-05 0 7.89177e-07)
(6.47326e-05 0 7.48364e-07)
(6.3769e-05 0 7.29585e-07)
(6.28174e-05 0 7.19161e-07)
(6.18741e-05 0 7.10267e-07)
(6.09382e-05 0 7.10446e-07)
(5.99985e-05 0 7.26996e-07)
(5.9039e-05 0 7.52269e-07)
(5.80583e-05 0 7.69141e-07)
(5.70714e-05 0 7.70143e-07)
(5.60941e-05 0 7.61273e-07)
(5.51322e-05 0 7.47585e-07)
(5.41903e-05 0 7.25946e-07)
(5.32775e-05 0 6.95959e-07)
(5.23985e-05 0 6.66658e-07)
(5.15451e-05 0 6.4694e-07)
(5.07051e-05 0 6.37998e-07)
(4.98697e-05 0 6.3916e-07)
(4.90289e-05 0 6.52009e-07)
(4.81707e-05 0 6.73265e-07)
(4.72913e-05 0 6.91646e-07)
(4.64022e-05 0 6.97781e-07)
(4.55203e-05 0 6.92518e-07)
(4.46556e-05 0 6.79646e-07)
(4.38127e-05 0 6.58229e-07)
(4.29978e-05 0 6.27683e-07)
(4.22151e-05 0 5.96536e-07)
(4.14579e-05 0 5.77864e-07)
(4.07087e-05 0 5.77714e-07)
(3.99501e-05 0 5.90635e-07)
(3.91745e-05 0 6.07253e-07)
(3.83835e-05 0 6.218e-07)
(3.75825e-05 0 6.3155e-07)
(3.678e-05 0 6.32239e-07)
(3.59884e-05 0 6.19052e-07)
(3.52223e-05 0 5.92399e-07)
(3.44908e-05 0 5.60641e-07)
(3.37922e-05 0 5.34423e-07)
(3.31157e-05 0 5.18964e-07)
(3.24497e-05 0 5.11781e-07)
(3.17892e-05 0 5.07751e-07)
(3.11343e-05 0 5.05567e-07)
(3.04847e-05 0 5.06055e-07)
(2.98388e-05 0 5.04423e-07)
(2.92038e-05 0 4.90967e-07)
(2.85957e-05 0 4.62028e-07)
(2.80267e-05 0 4.2515e-07)
(2.74941e-05 0 3.94469e-07)
(2.69818e-05 0 3.79741e-07)
(2.64713e-05 0 3.84166e-07)
(2.59471e-05 0 4.03118e-07)
(2.54036e-05 0 4.24371e-07)
(2.48486e-05 0 4.35499e-07)
(2.42976e-05 0 4.31832e-07)
(2.37643e-05 0 4.15369e-07)
(2.32561e-05 0 3.91658e-07)
(2.27725e-05 0 3.70061e-07)
(2.23023e-05 0 3.60614e-07)
(2.18276e-05 0 3.67629e-07)
(2.13339e-05 0 3.88016e-07)
(2.0814e-05 0 4.15485e-07)
(2.02693e-05 0 4.40139e-07)
(1.97124e-05 0 4.48524e-07)
(1.91652e-05 0 4.31871e-07)
(1.86496e-05 0 3.97826e-07)
(1.81712e-05 0 3.65527e-07)
(1.77162e-05 0 3.49119e-07)
(1.72642e-05 0 3.47713e-07)
(1.68091e-05 0 3.51816e-07)
(1.63537e-05 0 3.60204e-07)
(1.5895e-05 0 3.66114e-07)
(1.54416e-05 0 3.533e-07)
(1.50123e-05 0 3.26032e-07)
(1.46079e-05 0 3.05968e-07)
(1.42122e-05 0 3.04256e-07)
(1.38105e-05 0 3.15996e-07)
(1.33965e-05 0 3.29436e-07)
(1.29792e-05 0 3.30129e-07)
(1.25778e-05 0 3.15738e-07)
(1.22002e-05 0 2.97269e-07)
(1.18386e-05 0 2.79862e-07)
(1.14925e-05 0 2.65768e-07)
(1.11542e-05 0 2.64582e-07)
(1.08147e-05 0 2.65796e-07)
(1.04757e-05 0 2.55712e-07)
(1.01559e-05 0 2.41946e-07)
(9.84225e-06 0 2.56149e-07)
(9.49882e-06 0 2.78153e-07)
(9.14382e-06 0 2.83287e-07)
(8.77432e-06 0 2.94614e-07)
(8.42276e-06 0 2.73642e-07)
(8.12136e-06 0 2.73047e-07)
(7.82084e-06 0 2.4441e-07)
(7.58987e-06 0 1.88452e-07)
(7.29971e-06 0 1.46408e-07)
(7.21446e-06 0 1.26284e-07)
(6.96881e-06 0 1.25534e-07)
(6.85691e-06 0 7.43651e-08)
(6.75746e-06 0 5.92259e-08)
(6.66307e-06 0 6.725e-08)
(6.55557e-06 0 1.05471e-07)
(6.38625e-06 0 1.28184e-07)
(6.25411e-06 0 1.09344e-07)
(6.10805e-06 0 1.1475e-07)
(5.99845e-06 0 4.37184e-08)
(5.9603e-06 0 8.11444e-08)
(5.77677e-06 0 1.56947e-07)
(5.58254e-06 0 1.52727e-07)
(5.39577e-06 0 1.45833e-07)
(5.25629e-06 0 1.07036e-07)
(5.15724e-06 0 1.30729e-07)
(4.99368e-06 0 1.07714e-07)
(4.91823e-06 0 4.62327e-08)
(4.88594e-06 0 -1.15922e-09)
(4.94752e-06 0 -9.3675e-08)
(4.95379e-06 0 -1.11334e-08)
(4.9492e-06 0 -4.59068e-08)
(4.98891e-06 0 4.03472e-08)
(4.89354e-06 0 4.96436e-08)
(4.83638e-06 0 1.49811e-07)
(4.65208e-06 0 8.05819e-08)
(4.72394e-06 0 -6.36415e-08)
(4.71171e-06 0 1.06458e-07)
(4.58792e-06 0 -4.80318e-08)
(4.76625e-06 0 -1.1956e-07)
(4.74014e-06 0 8.80819e-08)
(4.72036e-06 0 1.89698e-08)
(4.50104e-06 0 4.84396e-09)
(4.39498e-06 0 2.30736e-09)
(4.34333e-06 0 2.71647e-07)
(4.0086e-06 0 4.41258e-07)
(4.09279e-06 0 1.08448e-07)
(4.51961e-06 0 1.20555e-07)
(3.91741e-06 0 -6.18707e-07)
(6.86027e-06 0 -1.0414e-06)
(6.05661e-06 0 -5.43691e-08)
(6.2123e-06 0 -9.34044e-08)
(6.20175e-06 0 9.16242e-08)
(6.02378e-06 0 1.58175e-07)
(5.78992e-06 0 1.77641e-07)
(5.4964e-06 0 2.32277e-07)
(5.10168e-06 0 3.36756e-07)
(4.61736e-06 0 4.22647e-07)
(4.08354e-06 0 4.58391e-07)
(3.51648e-06 0 4.70376e-07)
(2.93689e-06 0 4.50414e-07)
(2.40942e-06 0 3.81329e-07)
(1.97288e-06 0 2.98089e-07)
(1.59532e-06 0 2.6075e-07)
(1.22692e-06 0 2.72001e-07)
(8.45792e-07 0 2.87185e-07)
(4.73304e-07 0 2.70671e-07)
(1.53049e-07 0 2.25526e-07)
(-1.00516e-07 0 1.75345e-07)
(-3.09482e-07 0 1.45306e-07)
(-5.03693e-07 0 1.43579e-07)
(-7.17072e-07 0 1.68582e-07)
(-9.75619e-07 0 2.10549e-07)
(-1.2884e-06 0 2.5731e-07)
(-1.64786e-06 0 2.95364e-07)
(-2.03687e-06 0 3.18314e-07)
(-2.43404e-06 0 3.25198e-07)
(-2.81689e-06 0 3.1405e-07)
(-3.15907e-06 0 2.79032e-07)
(-3.43125e-06 0 2.13955e-07)
(-3.59868e-06 0 1.1177e-07)
(-3.61855e-06 0 -2.01666e-08)
(-3.49207e-06 0 -1.68864e-07)
(-3.21345e-06 0 -3.02406e-07)
(-2.79001e-06 0 -4.07581e-07)
(-2.27566e-06 0 -4.72398e-07)
(-1.70522e-06 0 -4.97039e-07)
(-1.11395e-06 0 -4.91717e-07)
(-5.30535e-07 0 -4.67278e-07)
(2.4116e-08 0 -4.29785e-07)
(5.28355e-07 0 -3.75707e-07)
(9.60199e-07 0 -3.01506e-07)
(1.28382e-06 0 -2.05109e-07)
(1.47582e-06 0 -1.01429e-07)
(1.55269e-06 0 -1.33268e-08)
(1.5601e-06 0 4.04153e-08)
(1.55144e-06 0 4.09985e-08)
(1.56904e-06 0 -1.06095e-08)
(1.66315e-06 0 -1.01313e-07)
(1.88014e-06 0 -2.17287e-07)
(2.23463e-06 0 -3.35675e-07)
(2.69716e-06 0 -4.08417e-07)
(3.1756e-06 0 -3.75936e-07)
(3.55092e-06 0 -2.19005e-07)
(3.71012e-06 0 -2.52589e-08)
(3.70783e-06 0 8.4214e-08)
(3.73017e-06 0 -2.83863e-08)
(3.96691e-06 0 -2.96517e-07)
(4.40239e-06 0 -4.38764e-07)
(4.74683e-06 0 -2.56539e-07)
(4.69372e-06 0 2.31742e-07)
(4.17083e-06 0 6.01953e-07)
(3.55053e-06 0 5.55877e-07)
(3.28287e-06 0 1.29686e-07)
(3.33793e-06 0 -9.77414e-08)
(3.24375e-06 0 1.93604e-07)
(2.70422e-06 0 6.27816e-07)
(2.01121e-06 0 5.52247e-07)
(1.84889e-06 0 -8.61021e-08)
(2.24175e-06 0 -4.00517e-07)
(2.44313e-06 0 -9.18274e-08)
(2.3161e-06 0 1.25964e-07)
(2.52009e-06 0 -4.31945e-07)
(3.28618e-06 0 -9.10242e-07)
(3.81166e-06 0 -2.96133e-07)
(3.63836e-06 0 3.01807e-07)
(3.39744e-06 0 1.05001e-07)
(3.05088e-06 0 5.41366e-07)
(2.51898e-06 0 6.43991e-07)
(1.16078e-06 0 8.60923e-07)
(-0.0216612 0 3.37554e-05)
(-0.0292875 0 0.000685868)
(-0.0264473 0 0.000762321)
(-0.0269916 0 0.000674085)
(-0.0272539 0 0.000716086)
(-0.0275644 0 0.000739048)
(-0.0278325 0 0.000701805)
(-0.0280942 0 0.000663895)
(-0.0283428 0 0.000627397)
(-0.028584 0 0.000586718)
(-0.028819 0 0.000555743)
(-0.0290489 0 0.000532875)
(-0.0292726 0 0.000504271)
(-0.0294887 0 0.000520217)
(-0.0296968 0 0.000496129)
(-0.0298969 0 0.000470625)
(-0.0300868 0 0.000445704)
(-0.0302643 0 0.000409472)
(-0.0304288 0 0.000376529)
(-0.0305797 0 0.000348802)
(-0.0307162 0 0.000317569)
(-0.0308389 0 0.000284579)
(-0.0309491 0 0.000256684)
(-0.0310463 0 0.00022265)
(-0.0311295 0 0.000190944)
(-0.0311981 0 0.000158194)
(-0.0312506 0 0.000119381)
(-0.0312894 0 8.91868e-05)
(-0.0313186 0 6.51739e-05)
(-0.031336 0 3.60247e-05)
(-0.0313422 0 1.09774e-05)
(-0.0313474 0 -4.65181e-06)
(-0.0313434 0 -5.17785e-05)
(-0.0313056 0 -0.000120966)
(-0.0312387 0 -0.000152734)
(-0.0311616 0 -0.000175033)
(-0.0310777 0 -0.000203734)
(-0.0309896 0 -0.000232115)
(-0.0308856 0 -0.000282262)
(-0.0307506 0 -0.000324566)
(-0.0305965 0 -0.00034579)
(-0.030434 0 -0.000367071)
(-0.0302595 0 -0.000412655)
(-0.0300687 0 -0.000461741)
(-0.0298636 0 -0.000472622)
(-0.0296476 0 -0.000493154)
(-0.0294219 0 -0.000533265)
(-0.0291866 0 -0.000581936)
(-0.0289417 0 -0.00061373)
(-0.0286866 0 -0.000633866)
(-0.0284193 0 -0.000661387)
(-0.0281381 0 -0.000709103)
(-0.027843 0 -0.000750174)
(-0.0275341 0 -0.000787307)
(-0.0272112 0 -0.000810573)
(-0.0268759 0 -0.000829714)
(-0.02653 0 -0.000851413)
(-0.0261742 0 -0.000874316)
(-0.0258106 0 -0.000885537)
(-0.0254408 0 -0.000895824)
(-0.0250647 0 -0.000914328)
(-0.0246821 0 -0.000934546)
(-0.0242922 0 -0.000953978)
(-0.0238934 0 -0.000976453)
(-0.0234836 0 -0.0010068)
(-0.0230601 0 -0.00104349)
(-0.022621 0 -0.0010861)
(-0.0221647 0 -0.00113641)
(-0.0216887 0 -0.00119412)
(-0.0211912 0 -0.00126111)
(-0.0206698 0 -0.00134557)
(-0.0201216 0 -0.00145914)
(-0.0195443 0 -0.00161946)
(-0.0189392 0 -0.0018549)
(-0.0183185 0 -0.00220204)
(-0.0177234 0 -0.00273)
(-0.017284 0 -0.00361646)
(-0.0172377 0 -0.00493096)
(-0.0168823 0 -0.00534581)
(-0.0156142 0 -0.00296612)
(-0.0149098 0 -0.00236843)
(-0.00869564 0 -0.000839954)
(-0.00870291 0 -0.000357443)
(-0.00738089 0 0.000194454)
(-0.00729142 0 0.000495649)
(-0.00715047 0 -0.000328243)
(-0.00694855 0 -0.000376398)
(-0.00688467 0 -0.000378856)
(-0.00693116 0 -0.000273841)
(-0.00690516 0 -0.000261434)
(-0.00674398 0 -0.000209195)
(-0.00665779 0 -0.000195394)
(-0.00656535 0 -0.000236874)
(-0.00645347 0 -0.000250236)
(-0.00635819 0 -0.000257167)
(-0.0062521 0 -0.000279764)
(-0.00614128 0 -0.000293752)
(-0.00603199 0 -0.00031463)
(-0.00593369 0 -0.000353085)
(-0.00583749 0 -0.000353499)
(-0.00570771 0 -0.000318846)
(-0.00561424 0 -0.000304299)
(-0.00533103 0 -0.000275077)
(-0.00524282 0 -0.000260596)
(-0.00510728 0 -0.000234915)
(-0.0050039 0 -0.000231658)
(-0.00489896 0 -0.000249025)
(-0.0047881 0 -0.000251122)
(-0.00468189 0 -0.000248234)
(-0.00457832 0 -0.000244899)
(-0.00447561 0 -0.000244248)
(-0.00437291 0 -0.000243112)
(-0.00427141 0 -0.000242465)
(-0.00417194 0 -0.00024379)
(-0.00407306 0 -0.00024434)
(-0.00397569 0 -0.000250202)
(-0.00388841 0 -0.000259147)
(-0.00379934 0 -0.000255351)
(-0.00370464 0 -0.000241303)
(-0.00362294 0 -0.000229938)
(-0.00344611 0 -0.000214303)
(-0.00337051 0 -0.000206638)
(-0.00327772 0 -0.000198496)
(-0.00319469 0 -0.000195611)
(-0.00311633 0 -0.000196091)
(-0.00303241 0 -0.00019506)
(-0.00294861 0 -0.000190998)
(-0.00286769 0 -0.000189779)
(-0.00278783 0 -0.000188359)
(-0.00270845 0 -0.000186082)
(-0.00263071 0 -0.000183175)
(-0.00255339 0 -0.000180642)
(-0.00247695 0 -0.000177578)
(-0.00240184 0 -0.000174738)
(-0.00232787 0 -0.000171978)
(-0.00225507 0 -0.000169203)
(-0.00218352 0 -0.000166224)
(-0.00211325 0 -0.000163061)
(-0.00204427 0 -0.000160003)
(-0.00197654 0 -0.000157001)
(-0.00191012 0 -0.000154084)
(-0.00184499 0 -0.000151076)
(-0.00178118 0 -0.000147991)
(-0.00171871 0 -0.000145001)
(-0.00165752 0 -0.000142083)
(-0.00159759 0 -0.000139107)
(-0.00153895 0 -0.000136108)
(-0.00148158 0 -0.000133243)
(-0.00142544 0 -0.000130464)
(-0.00137052 0 -0.000127641)
(-0.00131685 0 -0.000124811)
(-0.00126438 0 -0.000122071)
(-0.00121307 0 -0.000119327)
(-0.00116293 0 -0.000116552)
(-0.00111397 0 -0.000113819)
(-0.00106614 0 -0.000111168)
(-0.00101941 0 -0.000108532)
(-0.000973786 0 -0.000105916)
(-0.000929273 0 -0.000103352)
(-0.000885855 0 -0.000100794)
(-0.000843512 0 -9.82184e-05)
(-0.000802238 0 -9.57072e-05)
(-0.000762029 0 -9.32912e-05)
(-0.000722866 0 -9.08946e-05)
(-0.000684706 0 -8.84867e-05)
(-0.000647519 0 -8.61134e-05)
(-0.000611304 0 -8.38415e-05)
(-0.000576052 0 -8.16222e-05)
(-0.000541752 0 -7.93766e-05)
(-0.00050841 0 -7.71157e-05)
(-0.000476021 0 -7.49496e-05)
(-0.000444552 0 -7.288e-05)
(-0.000413985 0 -7.07907e-05)
(-0.000384308 0 -6.86845e-05)
(-0.000355498 0 -6.66638e-05)
(-0.000327525 0 -6.47194e-05)
(-0.000300371 0 -6.27629e-05)
(-0.000274036 0 -6.0804e-05)
(-0.000248509 0 -5.89151e-05)
(-0.000223763 0 -5.7074e-05)
(-0.000199783 0 -5.52248e-05)
(-0.000176571 0 -5.33899e-05)
(-0.000154117 0 -5.16301e-05)
(-0.000132396 0 -4.99241e-05)
(-0.000111395 0 -4.82123e-05)
(-9.11171e-05 0 -4.64999e-05)
(-7.1559e-05 0 -4.48368e-05)
(-5.26997e-05 0 -4.32216e-05)
(-3.45246e-05 0 -4.16155e-05)
(-1.70403e-05 0 -4.00093e-05)
(-2.52911e-07 0 -3.8437e-05)
(1.58543e-05 0 -3.6921e-05)
(3.13114e-05 0 -3.54453e-05)
(4.61413e-05 0 -3.39819e-05)
(6.03589e-05 0 -3.25318e-05)
(7.39877e-05 0 -3.11198e-05)
(8.70519e-05 0 -2.97467e-05)
(9.95539e-05 0 -2.83941e-05)
(0.000111487 0 -2.70651e-05)
(0.00012286 0 -2.57733e-05)
(0.000133693 0 -2.45157e-05)
(0.000144002 0 -2.32869e-05)
(0.000153801 0 -2.2092e-05)
(0.000163108 0 -2.09296e-05)
(0.000171941 0 -1.97958e-05)
(0.000180313 0 -1.87009e-05)
(0.000188236 0 -1.76519e-05)
(0.000195718 0 -1.66347e-05)
(0.000202761 0 -1.56497e-05)
(0.000209371 0 -1.47142e-05)
(0.000215566 0 -1.3811e-05)
(0.00022136 0 -1.28945e-05)
(0.000226769 0 -1.19621e-05)
(0.000231801 0 -1.10568e-05)
(0.00023647 0 -1.01926e-05)
(0.000240799 0 -9.33655e-06)
(0.000244791 0 -8.49119e-06)
(0.000248451 0 -7.7001e-06)
(0.000251788 0 -6.97364e-06)
(0.000254809 0 -6.26673e-06)
(0.000257514 0 -5.55654e-06)
(0.000259906 0 -4.87142e-06)
(0.000262001 0 -4.22717e-06)
(0.000263822 0 -3.59586e-06)
(0.000265388 0 -2.96e-06)
(0.000266707 0 -2.34652e-06)
(0.000267787 0 -1.79202e-06)
(0.000268649 0 -1.28383e-06)
(0.000269295 0 -7.93975e-07)
(0.000269726 0 -3.21946e-07)
(0.000269946 0 1.20598e-07)
(0.000269965 0 5.38813e-07)
(0.000269795 0 9.42772e-07)
(0.000269449 0 1.32918e-06)
(0.000268946 0 1.69522e-06)
(0.000268306 0 2.05125e-06)
(0.000267538 0 2.40354e-06)
(0.000266645 0 2.73736e-06)
(0.000265628 0 3.03427e-06)
(0.000264487 0 3.29675e-06)
(0.000263219 0 3.54323e-06)
(0.000261823 0 3.78633e-06)
(0.000260305 0 4.02923e-06)
(0.00025867 0 4.27404e-06)
(0.000256921 0 4.52028e-06)
(0.000255057 0 4.75452e-06)
(0.000253086 0 4.95889e-06)
(0.000251029 0 5.13498e-06)
(0.00024891 0 5.30542e-06)
(0.000246743 0 5.48284e-06)
(0.000244525 0 5.64647e-06)
(0.000242251 0 5.76438e-06)
(0.000239926 0 5.83715e-06)
(0.000237558 0 5.90265e-06)
(0.000235154 0 5.98902e-06)
(0.000232706 0 6.07605e-06)
(0.000230208 0 6.1207e-06)
(0.000227668 0 6.11569e-06)
(0.000225098 0 6.10249e-06)
(0.000222509 0 6.12348e-06)
(0.000219901 0 6.18003e-06)
(0.000217278 0 6.24578e-06)
(0.000214648 0 6.30674e-06)
(0.000212013 0 6.36725e-06)
(0.00020937 0 6.42616e-06)
(0.000206715 0 6.47149e-06)
(0.000204053 0 6.5e-06)
(0.000201388 0 6.51842e-06)
(0.000198722 0 6.52278e-06)
(0.000196054 0 6.49991e-06)
(0.000193384 0 6.45428e-06)
(0.000190714 0 6.41101e-06)
(0.000188041 0 6.38445e-06)
(0.000185363 0 6.3682e-06)
(0.000182684 0 6.35427e-06)
(0.000180005 0 6.34608e-06)
(0.000177324 0 6.34764e-06)
(0.000174642 0 6.35475e-06)
(0.000171965 0 6.36394e-06)
(0.000169301 0 6.37803e-06)
(0.000166654 0 6.39436e-06)
(0.000164022 0 6.39468e-06)
(0.000161407 0 6.35863e-06)
(0.000158812 0 6.28414e-06)
(0.000156243 0 6.18482e-06)
(0.000153705 0 6.07291e-06)
(0.000151197 0 5.94976e-06)
(0.000148724 0 5.81249e-06)
(0.00014629 0 5.66504e-06)
(0.000143896 0 5.51977e-06)
(0.00014154 0 5.39118e-06)
(0.000139221 0 5.28631e-06)
(0.000136931 0 5.20587e-06)
(0.000134669 0 5.15569e-06)
(0.000132432 0 5.13609e-06)
(0.000130218 0 5.13814e-06)
(0.000128023 0 5.14641e-06)
(0.000125845 0 5.14762e-06)
(0.000123684 0 5.13676e-06)
(0.000121543 0 5.11527e-06)
(0.000119423 0 5.08392e-06)
(0.000117329 0 5.03786e-06)
(0.000115264 0 4.96949e-06)
(0.000113233 0 4.8738e-06)
(0.000111239 0 4.75221e-06)
(0.000109285 0 4.61343e-06)
(0.000107373 0 4.46898e-06)
(0.000105502 0 4.32914e-06)
(0.000103671 0 4.20087e-06)
(0.000101876 0 4.08844e-06)
(0.000100117 0 3.99403e-06)
(9.839e-05 0 3.91693e-06)
(9.66958e-05 0 3.85468e-06)
(9.50336e-05 0 3.8023e-06)
(9.34035e-05 0 3.75321e-06)
(9.18053e-05 0 3.70062e-06)
(9.02394e-05 0 3.63829e-06)
(8.87075e-05 0 3.56238e-06)
(8.72121e-05 0 3.47338e-06)
(8.5756e-05 0 3.37683e-06)
(8.4339e-05 0 3.28036e-06)
(8.29563e-05 0 3.18824e-06)
(8.15987e-05 0 3.09962e-06)
(8.02585e-05 0 3.01274e-06)
(7.89334e-05 0 2.93392e-06)
(7.76269e-05 0 2.87994e-06)
(7.63426e-05 0 2.86511e-06)
(7.50777e-05 0 2.88103e-06)
(7.38248e-05 0 2.89851e-06)
(7.25822e-05 0 2.88933e-06)
(7.13581e-05 0 2.85015e-06)
(7.01638e-05 0 2.79605e-06)
(6.90016e-05 0 2.73246e-06)
(6.78654e-05 0 2.64397e-06)
(6.67528e-05 0 2.51961e-06)
(6.56695e-05 0 2.38239e-06)
(6.46196e-05 0 2.27831e-06)
(6.35948e-05 0 2.22784e-06)
(6.25797e-05 0 2.2076e-06)
(6.15675e-05 0 2.19207e-06)
(6.05641e-05 0 2.18535e-06)
(5.95751e-05 0 2.20446e-06)
(5.85973e-05 0 2.24277e-06)
(5.76253e-05 0 2.26843e-06)
(5.6661e-05 0 2.26124e-06)
(5.57101e-05 0 2.23037e-06)
(5.47735e-05 0 2.18912e-06)
(5.38491e-05 0 2.13465e-06)
(5.29373e-05 0 2.06695e-06)
(5.20384e-05 0 2.00463e-06)
(5.11487e-05 0 1.96518e-06)
(5.02644e-05 0 1.948e-06)
(4.9386e-05 0 1.94932e-06)
(4.85141e-05 0 1.97332e-06)
(4.76456e-05 0 2.01434e-06)
(4.67799e-05 0 2.04587e-06)
(4.59242e-05 0 2.04391e-06)
(4.50885e-05 0 2.01054e-06)
(4.42755e-05 0 1.96213e-06)
(4.34791e-05 0 1.90621e-06)
(4.26923e-05 0 1.84326e-06)
(4.19116e-05 0 1.78459e-06)
(4.11354e-05 0 1.75113e-06)
(4.03604e-05 0 1.75365e-06)
(3.95835e-05 0 1.78187e-06)
(3.8806e-05 0 1.81568e-06)
(3.80323e-05 0 1.84028e-06)
(3.72676e-05 0 1.84815e-06)
(3.6515e-05 0 1.83274e-06)
(3.57764e-05 0 1.78925e-06)
(3.50534e-05 0 1.72246e-06)
(3.43471e-05 0 1.64959e-06)
(3.3657e-05 0 1.59093e-06)
(3.29789e-05 0 1.55627e-06)
(3.23076e-05 0 1.53916e-06)
(3.16424e-05 0 1.52582e-06)
(3.09895e-05 0 1.51042e-06)
(3.03554e-05 0 1.49544e-06)
(2.97397e-05 0 1.47449e-06)
(2.91391e-05 0 1.42968e-06)
(2.85532e-05 0 1.35642e-06)
(2.79812e-05 0 1.27695e-06)
(2.74168e-05 0 1.22207e-06)
(2.68523e-05 0 1.20537e-06)
(2.62859e-05 0 1.22189e-06)
(2.57219e-05 0 1.25577e-06)
(2.5166e-05 0 1.28312e-06)
(2.46248e-05 0 1.28304e-06)
(2.41033e-05 0 1.25204e-06)
(2.36004e-05 0 1.20158e-06)
(2.31084e-05 0 1.14836e-06)
(2.26173e-05 0 1.11236e-06)
(2.2118e-05 0 1.11026e-06)
(2.16073e-05 0 1.14232e-06)
(2.10887e-05 0 1.19435e-06)
(2.05685e-05 0 1.24697e-06)
(2.00544e-05 0 1.27971e-06)
(1.95525e-05 0 1.27475e-06)
(1.90631e-05 0 1.22655e-06)
(1.8582e-05 0 1.15329e-06)
(1.81047e-05 0 1.09168e-06)
(1.76267e-05 0 1.06773e-06)
(1.71469e-05 0 1.0711e-06)
(1.66756e-05 0 1.07155e-06)
(1.62261e-05 0 1.06696e-06)
(1.57949e-05 0 1.05827e-06)
(1.5371e-05 0 1.02511e-06)
(1.49465e-05 0 9.76804e-07)
(1.45169e-05 0 9.46194e-07)
(1.40878e-05 0 9.45114e-07)
(1.36669e-05 0 9.62291e-07)
(1.3258e-05 0 9.72996e-07)
(1.2864e-05 0 9.5141e-07)
(1.24893e-05 0 9.01486e-07)
(1.21295e-05 0 8.57069e-07)
(1.17722e-05 0 8.27372e-07)
(1.14143e-05 0 8.01964e-07)
(1.10582e-05 0 7.94228e-07)
(1.0706e-05 0 7.89962e-07)
(1.03567e-05 0 7.70352e-07)
(1.00189e-05 0 7.36475e-07)
(9.68903e-06 0 7.6508e-07)
(9.3687e-06 0 8.04836e-07)
(9.06324e-06 0 8.46691e-07)
(8.72604e-06 0 8.34129e-07)
(8.4427e-06 0 7.14838e-07)
(8.12864e-06 0 6.16052e-07)
(8.06532e-06 0 5.73654e-07)
(7.79889e-06 0 5.39558e-07)
(7.58335e-06 0 5.02424e-07)
(7.32474e-06 0 4.36576e-07)
(7.10234e-06 0 3.88578e-07)
(6.9312e-06 0 2.69077e-07)
(6.76616e-06 0 2.49671e-07)
(6.61652e-06 0 2.49285e-07)
(6.4749e-06 0 3.3031e-07)
(6.31946e-06 0 3.58748e-07)
(6.18412e-06 0 3.11053e-07)
(6.03628e-06 0 3.10867e-07)
(5.91187e-06 0 1.77834e-07)
(5.8148e-06 0 2.65654e-07)
(5.64877e-06 0 4.63274e-07)
(5.49469e-06 0 4.25498e-07)
(5.36518e-06 0 3.88662e-07)
(5.24637e-06 0 2.32339e-07)
(5.23056e-06 0 2.83489e-07)
(5.11855e-06 0 2.6048e-07)
(5.06421e-06 0 9.59567e-08)
(5.01303e-06 0 1.79064e-08)
(4.98005e-06 0 -1.00091e-07)
(4.85815e-06 0 1.03686e-07)
(4.78807e-06 0 -9.33943e-08)
(4.84707e-06 0 1.02504e-07)
(4.76898e-06 0 1.53634e-07)
(4.70606e-06 0 2.2919e-07)
(4.76844e-06 0 1.23362e-07)
(4.74045e-06 0 -8.37733e-08)
(4.74045e-06 0 1.68583e-07)
(4.78862e-06 0 -6.18146e-08)
(4.56607e-06 0 -1.56905e-07)
(4.45279e-06 0 5.39237e-08)
(4.54888e-06 0 2.32134e-07)
(4.2256e-06 0 7.84781e-07)
(4.15705e-06 0 1.33637e-07)
(4.89654e-06 0 3.638e-07)
(4.34403e-06 0 -2.25335e-07)
(7.57581e-06 0 -1.13906e-06)
(7.2416e-06 0 -4.65719e-07)
(7.60605e-06 0 -2.26475e-06)
(7.24982e-06 0 -7.49897e-07)
(6.86824e-06 0 -6.63389e-08)
(6.79639e-06 0 -1.23018e-07)
(6.62851e-06 0 3.82968e-07)
(6.37346e-06 0 5.57004e-07)
(6.0516e-06 0 6.65461e-07)
(5.63089e-06 0 8.89172e-07)
(5.16427e-06 0 1.05596e-06)
(4.75174e-06 0 1.11592e-06)
(4.38357e-06 0 1.17971e-06)
(3.99479e-06 0 1.25579e-06)
(3.58164e-06 0 1.23107e-06)
(3.17299e-06 0 1.08485e-06)
(2.76431e-06 0 9.39105e-07)
(2.33258e-06 0 8.9403e-07)
(1.88687e-06 0 9.15583e-07)