/*--------------------------------*- C++ -*----------------------------------*\
| =========                 |                                                 |
| \\      /  F ield         | OpenFOAM: The Open Source CFD Toolbox           |
|  \\    /   O peration     | Version:  v2006                                 |
|   \\  /    A nd           | Website:  www.openfoam.com                      |
|    \\/     M anipulation  |                                                 |
\*---------------------------------------------------------------------------*/
FoamFile
{
    version     2.0;
    format      ascii;
    class       surfaceScalarField;
    location    "10";
    object      alphaPhi0.water;
}
// * * * * * * * * * * * * * * * * * * * * * * * * * * * * * * * * * * * * * //

dimensions      [0 3 -1 0 0 0 0];
oriented        oriented;


internalField   nonuniform List<scalar> 
65390
(
4.91656e-05
1.25812e-06
4.67186e-05
2.44644e-06
4.28535e-05
3.86448e-06
3.95694e-05
3.28365e-06
3.86293e-05
9.39772e-07
4.10293e-05
-2.40028e-06
4.57679e-05
-4.73894e-06
5.16016e-05
-5.8338e-06
5.72862e-05
-5.68471e-06
6.29063e-05
-5.62011e-06
6.88557e-05
-5.9496e-06
7.43291e-05
-5.47358e-06
7.90003e-05
-4.67124e-06
8.27375e-05
-3.73742e-06
8.56286e-05
-2.89192e-06
8.80756e-05
-2.45116e-06
9.05837e-05
-2.51353e-06
9.31818e-05
-2.596e-06
9.55002e-05
-2.31924e-06
9.78242e-05
-2.32293e-06
0.000100397
-2.64296e-06
0.00010267
-2.27237e-06
0.000103675
-1.00567e-06
0.000103072
6.03647e-07
0.000101842
1.25781e-06
0.000100094
1.79472e-06
9.72137e-05
2.89143e-06
9.33375e-05
3.87658e-06
8.92404e-05
4.09737e-06
8.58853e-05
3.35532e-06
8.38451e-05
2.04051e-06
8.27268e-05
1.11847e-06
8.18424e-05
8.84548e-07
8.05438e-05
1.29865e-06
7.8537e-05
2.00692e-06
7.63497e-05
2.18741e-06
7.27686e-05
3.58125e-06
6.7567e-05
5.20156e-06
6.23282e-05
5.23868e-06
5.74621e-05
4.86291e-06
5.36759e-05
3.78169e-06
5.11948e-05
2.48415e-06
4.96532e-05
1.54251e-06
4.78241e-05
1.8283e-06
4.48856e-05
2.92966e-06
4.2326e-05
2.56344e-06
4.08833e-05
1.44754e-06
4.00745e-05
8.09533e-07
3.91518e-05
9.2243e-07
3.72504e-05
1.88917e-06
3.49898e-05
2.26703e-06
3.33427e-05
1.65172e-06
3.26267e-05
7.16557e-07
3.24548e-05
1.72128e-07
3.25436e-05
-8.86694e-08
3.27388e-05
-1.95139e-07
3.29414e-05
-2.02517e-07
3.29965e-05
-5.51429e-08
3.27965e-05
2.00068e-07
3.21551e-05
6.41356e-07
3.08912e-05
1.26345e-06
2.90125e-05
1.86968e-06
2.67858e-05
2.2248e-06
2.46714e-05
2.12168e-06
2.29112e-05
1.76309e-06
2.14482e-05
1.46316e-06
2.02653e-05
1.18296e-06
1.95556e-05
7.09716e-07
1.94585e-05
9.71863e-08
1.98305e-05
-3.72015e-07
2.04941e-05
-6.63643e-07
2.10936e-05
-5.99809e-07
2.1303e-05
-2.10808e-07
2.11007e-05
2.01705e-07
2.06148e-05
4.86055e-07
2.00333e-05
5.81647e-07
1.92658e-05
7.63744e-07
1.72351e-05
2.02736e-06
1.52071e-05
2.02796e-06
1.46982e-05
5.08919e-07
1.39072e-05
7.93948e-07
1.32296e-05
6.7556e-07
1.21009e-05
1.12767e-06
1.12373e-05
8.63524e-07
1.05281e-05
7.09212e-07
9.47484e-06
1.05329e-06
8.49148e-06
9.86262e-07
7.71853e-06
7.7439e-07
7.24447e-06
4.74113e-07
6.73993e-06
5.04558e-07
6.27572e-06
4.6421e-07
5.84297e-06
4.32738e-07
5.32642e-06
5.16542e-07
4.78573e-06
5.40586e-07
4.10581e-06
6.78704e-07
3.34813e-06
7.57748e-07
2.4862e-06
8.62048e-07
1.60821e-06
8.78284e-07
2.38639e-07
1.36962e-06
-1.6714e-06
1.91002e-06
-3.36089e-06
1.68948e-06
-4.38894e-06
1.02804e-06
-4.80528e-06
4.1637e-07
-5.13479e-06
3.30108e-07
-5.1972e-06
6.3252e-08
-5.23813e-06
4.09578e-08
-5.48474e-06
2.46615e-07
-5.88828e-06
4.03574e-07
-6.1748e-06
2.86126e-07
-6.2857e-06
1.09601e-07
-6.39308e-06
1.07186e-07
-6.41714e-06
2.40779e-08
-6.41934e-06
2.66807e-09
-6.48251e-06
6.4686e-08
-6.63736e-06
1.54861e-07
-6.8443e-06
2.05493e-07
-7.14809e-06
3.03384e-07
-7.47788e-06
3.29961e-07
-7.69826e-06
2.2082e-07
-7.81285e-06
1.14951e-07
-7.87299e-06
6.01606e-08
-7.91834e-06
4.46332e-08
-7.89919e-06
-1.94505e-08
-7.85826e-06
-4.07425e-08
-7.85139e-06
-6.27155e-09
-7.84035e-06
-1.0307e-08
-7.81081e-06
-2.95098e-08
-7.76537e-06
-4.66377e-08
-7.66241e-06
-1.03245e-07
-7.52413e-06
-1.38281e-07
-7.38214e-06
-1.4199e-07
-7.22997e-06
-1.51597e-07
-7.09135e-06
-1.37392e-07
-6.9424e-06
-1.48968e-07
-6.75751e-06
-1.86117e-07
-6.53051e-06
-2.27408e-07
-6.28064e-06
-2.49899e-07
-6.02511e-06
-2.5554e-07
-5.76114e-06
-2.6399e-07
-5.48447e-06
-2.7668e-07
-5.18977e-06
-2.94718e-07
-4.88268e-06
-3.06985e-07
-4.57858e-06
-3.03397e-07
-4.28628e-06
-2.9209e-07
-3.98637e-06
-2.99886e-07
-3.67231e-06
-3.14584e-07
-3.33611e-06
-3.36414e-07
-2.98799e-06
-3.48117e-07
-2.64925e-06
-3.38237e-07
-2.33236e-06
-3.16572e-07
-2.00954e-06
-3.23351e-07
-1.6626e-06
-3.47125e-07
-1.30735e-06
-3.55247e-07
-9.57951e-07
-3.49384e-07
-6.16625e-07
-3.41247e-07
-2.81278e-07
-3.35271e-07
5.30069e-08
-3.34241e-07
3.8829e-07
-3.35185e-07
7.22702e-07
-3.34321e-07
1.04995e-06
-3.27176e-07
1.37138e-06
-3.21359e-07
1.68926e-06
-3.17804e-07
2.00445e-06
-3.15215e-07
2.31553e-06
-3.11017e-07
2.61948e-06
-3.03878e-07
2.90929e-06
-2.89632e-07
3.18993e-06
-2.80493e-07
3.46891e-06
-2.78914e-07
3.74566e-06
-2.76694e-07
4.01022e-06
-2.64539e-07
4.25318e-06
-2.43373e-07
4.48784e-06
-2.3439e-07
4.72157e-06
-2.33507e-07
4.95017e-06
-2.28607e-07
5.17046e-06
-2.20317e-07
5.37471e-06
-2.04979e-07
5.55254e-06
-1.79148e-07
5.71402e-06
-1.6023e-07
5.86629e-06
-1.51663e-07
6.01423e-06
-1.47964e-07
6.1547e-06
-1.40524e-07
6.27964e-06
-1.25741e-07
6.38974e-06
-1.10134e-07
6.47857e-06
-8.885e-08
6.54153e-06
-6.25842e-08
6.59113e-06
-4.95687e-08
6.6345e-06
-4.3431e-08
6.66456e-06
-3.04519e-08
6.6708e-06
-6.91549e-09
6.65353e-06
1.72046e-08
6.61655e-06
3.73974e-08
6.56709e-06
4.9909e-08
6.50771e-06
5.93875e-08
6.4364e-06
7.12865e-08
6.34999e-06
8.63464e-08
6.23973e-06
1.09937e-07
6.10219e-06
1.37024e-07
5.94522e-06
1.56987e-07
5.78036e-06
1.65208e-07
5.61482e-06
1.65968e-07
5.44014e-06
1.74689e-07
5.24969e-06
1.90467e-07
5.04205e-06
2.07474e-07
4.82053e-06
2.21518e-07
4.59453e-06
2.26086e-07
4.36904e-06
2.2553e-07
4.13805e-06
2.31017e-07
3.89231e-06
2.45572e-07
3.63105e-06
2.61302e-07
3.37692e-06
2.54213e-07
3.13768e-06
2.39367e-07
2.89953e-06
2.38147e-07
2.66068e-06
2.38824e-07
2.41671e-06
2.43727e-07
2.16128e-06
2.55378e-07
1.90485e-06
2.56415e-07
1.661e-06
2.44059e-07
1.43575e-06
2.25266e-07
1.21862e-06
2.17118e-07
1.0057e-06
2.12897e-07
7.94174e-07
2.11465e-07
5.77875e-07
2.16225e-07
3.62756e-07
2.1512e-07
1.57103e-07
2.05645e-07
-3.30416e-08
1.90125e-07
-2.10547e-07
1.7748e-07
-3.81249e-07
1.70673e-07
-5.48204e-07
1.66942e-07
-7.17278e-07
1.69069e-07
-8.85367e-07
1.68093e-07
-1.04591e-06
1.60481e-07
-1.19438e-06
1.48364e-07
-1.32999e-06
1.35548e-07
-1.45935e-06
1.29382e-07
-1.58621e-06
1.26875e-07
-1.70994e-06
1.23719e-07
-1.82957e-06
1.19589e-07
-1.9456e-06
1.16051e-07
-2.05886e-06
1.13317e-07
-2.16791e-06
1.09144e-07
-2.2712e-06
1.03212e-07
-2.36413e-06
9.2907e-08
-2.45057e-06
8.64498e-08
-2.53434e-06
8.37756e-08
-2.61623e-06
8.19196e-08
-2.6997e-06
8.35681e-08
-2.78359e-06
8.39236e-08
-2.85926e-06
7.54207e-08
-2.92461e-06
6.52961e-08
-2.98748e-06
6.28298e-08
-3.04933e-06
6.18205e-08
-3.11096e-06
6.16478e-08
-3.17397e-06
6.29872e-08
-3.23487e-06
6.09016e-08
-3.29039e-06
5.53605e-08
-3.34102e-06
5.05944e-08
-3.39019e-06
4.91293e-08
-3.43945e-06
4.92916e-08
-3.48801e-06
4.86223e-08
-3.53479e-06
4.67501e-08
-3.57952e-06
4.46691e-08
-3.62061e-06
4.09801e-08
-3.65915e-06
3.85094e-08
-3.6978e-06
3.86229e-08
-3.73863e-06
4.08764e-08
-3.78112e-06
4.25532e-08
-3.82187e-06
4.0529e-08
-3.85572e-06
3.37999e-08
-3.88679e-06
3.10337e-08
-3.91763e-06
3.08085e-08
-3.94766e-06
3.00154e-08
-3.97703e-06
2.93652e-08
-4.00742e-06
3.05067e-08
-4.03923e-06
3.18002e-08
-4.06963e-06
3.02173e-08
-4.09565e-06
2.59556e-08
-4.11827e-06
2.26111e-08
-4.13957e-06
2.12907e-08
-4.15942e-06
1.98402e-08
-4.17719e-06
1.77766e-08
-4.1937e-06
1.65332e-08
-4.21122e-06
1.75637e-08
-4.2291e-06
1.78844e-08
-4.24313e-06
1.39567e-08
-4.25164e-06
8.50343e-09
-4.25791e-06
6.2662e-09
-4.26293e-06
5.02676e-09
-4.26551e-06
2.58108e-09
-4.26571e-06
2.42005e-10
-4.26495e-06
-7.04581e-10
-4.26285e-06
-2.09912e-09
-4.25727e-06
-5.65238e-09
-4.24695e-06
-1.03529e-08
-4.23293e-06
-1.40225e-08
-4.21588e-06
-1.70497e-08
-4.19538e-06
-2.04674e-08
-4.17258e-06
-2.27517e-08
-4.14781e-06
-2.4768e-08
-4.11969e-06
-2.81869e-08
-4.08726e-06
-3.24338e-08
-4.05051e-06
-3.67532e-08
-4.00918e-06
-4.13275e-08
-3.96477e-06
-4.43734e-08
-3.91851e-06
-4.62641e-08
-3.86921e-06
-4.92998e-08
-3.81588e-06
-5.33785e-08
-3.75805e-06
-5.78395e-08
-3.697e-06
-6.10411e-08
-3.63411e-06
-6.28943e-08
-3.56879e-06
-6.53451e-08
-3.50054e-06
-6.82586e-08
-3.42962e-06
-7.09196e-08
-3.35724e-06
-7.23664e-08
-3.28456e-06
-7.26702e-08
-3.21195e-06
-7.26056e-08
-3.13925e-06
-7.2702e-08
-3.06632e-06
-7.29193e-08
-2.99332e-06
-7.29851e-08
-2.92097e-06
-7.2335e-08
-2.84987e-06
-7.10864e-08
-2.78035e-06
-6.95033e-08
-2.71271e-06
-6.76264e-08
-2.64695e-06
-6.57418e-08
-2.58328e-06
-6.36482e-08
-2.52196e-06
-6.12982e-08
-2.46308e-06
-5.88728e-08
-2.40655e-06
-5.6516e-08
-2.35243e-06
-5.41054e-08
-2.30115e-06
-5.12679e-08
-2.25288e-06
-4.82472e-08
-2.20729e-06
-4.55818e-08
-2.16407e-06
-4.32187e-08
-2.1231e-06
-4.09599e-08
-2.08472e-06
-3.83757e-08
-2.04922e-06
-3.54952e-08
-2.01677e-06
-3.24387e-08
-1.98694e-06
-2.98272e-08
-1.9593e-06
-2.76454e-08
-1.93332e-06
-2.59728e-08
-1.90917e-06
-2.41437e-08
-1.88689e-06
-2.22794e-08
-1.86638e-06
-2.05045e-08
-1.84754e-06
-1.88465e-08
-1.83024e-06
-1.72991e-08
-1.81428e-06
-1.59505e-08
-1.79936e-06
-1.49131e-08
-1.78517e-06
-1.41846e-08
-1.77164e-06
-1.35259e-08
-1.75865e-06
-1.29828e-08
-1.74607e-06
-1.25657e-08
-1.73377e-06
-1.22851e-08
-1.72161e-06
-1.21469e-08
-1.70945e-06
-1.21532e-08
-1.69689e-06
-1.25498e-08
-1.68369e-06
-1.31928e-08
-1.6697e-06
-1.39816e-08
-1.65483e-06
-1.486e-08
-1.63903e-06
-1.57905e-08
-1.62219e-06
-1.68321e-08
-1.60404e-06
-1.81405e-08
-1.58441e-06
-1.96194e-08
-1.56316e-06
-2.12424e-08
-1.54019e-06
-2.29556e-08
-1.51537e-06
-2.48177e-08
-1.48876e-06
-2.66048e-08
-1.46067e-06
-2.80748e-08
-1.43097e-06
-2.96939e-08
-1.39911e-06
-3.1848e-08
-1.36464e-06
-3.44694e-08
-1.32763e-06
-3.70118e-08
-1.28872e-06
-3.89008e-08
-1.24826e-06
-4.04546e-08
-1.20564e-06
-4.26202e-08
-1.16048e-06
-4.5158e-08
-1.11274e-06
-4.77358e-08
-1.06265e-06
-5.00924e-08
-1.01064e-06
-5.2019e-08
-9.56702e-07
-5.39382e-08
-9.01075e-07
-5.56297e-08
-8.4425e-07
-5.68293e-08
-7.8574e-07
-5.85073e-08
-7.24747e-07
-6.10048e-08
-6.6152e-07
-6.32348e-08
-5.9685e-07
-6.46756e-08
-5.3102e-07
-6.58335e-08
-4.64082e-07
-6.69409e-08
-3.96347e-07
-6.77372e-08
-3.27574e-07
-6.87735e-08
-2.57596e-07
-6.9978e-08
-1.86961e-07
-7.06334e-08
-1.16238e-07
-7.07196e-08
-4.53401e-08
-7.08914e-08
2.60855e-08
-7.14176e-08
9.7993e-08
-7.18966e-08
1.69906e-07
-7.18993e-08
2.41744e-07
-7.18216e-08
3.13445e-07
-7.16833e-08
3.8445e-07
-7.09875e-08
4.54529e-07
-7.00551e-08
5.23949e-07
-6.93999e-08
5.9279e-07
-6.88209e-08
6.61214e-07
-6.84067e-08
7.29216e-07
-6.79851e-08
7.96572e-07
-6.73402e-08
8.62473e-07
-6.5886e-08
9.25553e-07
-6.30655e-08
9.88078e-07
-6.25073e-08
1.05036e-06
-6.22657e-08
1.11187e-06
-6.1488e-08
1.17113e-06
-5.92419e-08
1.22807e-06
-5.69212e-08
1.28239e-06
-5.43068e-08
1.33587e-06
-5.3463e-08
1.38833e-06
-5.24341e-08
1.439e-06
-5.06576e-08
1.48657e-06
-4.75574e-08
1.53199e-06
-4.54051e-08
1.57403e-06
-4.20271e-08
1.6134e-06
-3.93669e-08
1.65474e-06
-4.13333e-08
1.69342e-06
-3.86744e-08
1.7276e-06
-3.41867e-08
1.76197e-06
-3.4373e-08
1.7749e-06
-1.29341e-08
1.78194e-06
-7.04468e-09
1.82244e-06
-4.05034e-08
1.84448e-06
-2.20513e-08
1.88569e-06
-4.12081e-08
1.94017e-06
-5.44886e-08
2.04715e-06
-1.06985e-07
2.16817e-06
-1.2102e-07
2.2378e-06
-6.96305e-08
2.30528e-06
-6.74721e-08
2.35359e-06
-4.83003e-08
2.3966e-06
-4.30037e-08
2.42851e-06
-3.19012e-08
2.45697e-06
-2.84493e-08
2.47937e-06
-2.23966e-08
2.50172e-06
-2.23419e-08
2.51822e-06
-1.64864e-08
2.53673e-06
-1.8503e-08
2.54638e-06
-9.6524e-09
2.54225e-06
4.12958e-09
2.54611e-06
-3.84395e-09
2.54968e-06
-3.56049e-09
2.55911e-06
-9.42434e-09
2.56966e-06
-1.05455e-08
2.60212e-06
-3.24502e-08
2.69813e-06
-9.60049e-08
2.81781e-06
-1.19664e-07
2.91538e-06
-9.75709e-08
2.97967e-06
-6.42833e-08
3.01686e-06
-3.71794e-08
3.04056e-06
-2.36955e-08
3.04461e-06
-4.04788e-09
3.03816e-06
6.46405e-09
3.01049e-06
2.76684e-08
2.98303e-06
2.7467e-08
2.96184e-06
2.12e-08
2.93285e-06
2.90013e-08
2.91007e-06
2.27841e-08
2.8794e-06
3.068e-08
2.75997e-06
1.1944e-07
2.64145e-06
1.18523e-07
2.55932e-06
8.21328e-08
2.40769e-06
1.51639e-07
2.4563e-06
-4.86e-08
2.47727e-06
-2.09583e-08
2.87008e-06
-3.92793e-07
3.57253e-06
-7.02425e-07
4.28998e-06
-7.17409e-07
4.94114e-06
-6.51126e-07
5.52442e-06
-5.83266e-07
6.00282e-06
-4.78391e-07
6.36438e-06
-3.61676e-07
6.60037e-06
-2.36038e-07
6.75159e-06
-1.51233e-07
6.85205e-06
-1.00384e-07
6.93044e-06
-7.83102e-08
6.97289e-06
-4.24774e-08
6.97569e-06
-2.88847e-09
6.95732e-06
1.83979e-08
6.92278e-06
3.45562e-08
6.88415e-06
3.87395e-08
6.84196e-06
4.22724e-08
6.78235e-06
5.96009e-08
6.7028e-06
7.95526e-08
6.61439e-06
8.8429e-08
6.52051e-06
9.39051e-08
6.42107e-06
9.95484e-08
6.31231e-06
1.08809e-07
6.19968e-06
1.12662e-07
6.08647e-06
1.13252e-07
5.96632e-06
1.20181e-07
5.83138e-06
1.34953e-07
5.68537e-06
1.46045e-07
5.53146e-06
1.53933e-07
5.37564e-06
1.55865e-07
5.21673e-06
1.58942e-07
5.05229e-06
1.64474e-07
4.88384e-06
1.68466e-07
4.70969e-06
1.74169e-07
4.52565e-06
1.84057e-07
4.32912e-06
1.96538e-07
4.12488e-06
2.04248e-07
3.91957e-06
2.05327e-07
3.71706e-06
2.0254e-07
3.51633e-06
2.00752e-07
3.31137e-06
2.04991e-07
3.0995e-06
2.11885e-07
2.87844e-06
2.21081e-07
2.65171e-06
2.2676e-07
2.4206e-06
2.3114e-07
2.18327e-06
2.37354e-07
1.94134e-06
2.41969e-07
1.69643e-06
2.4494e-07
1.44805e-06
2.48407e-07
1.19364e-06
2.54448e-07
9.30918e-07
2.62751e-07
6.58848e-07
2.72104e-07
3.78192e-07
2.80693e-07
9.1045e-08
2.87187e-07
-2.01094e-07
2.92183e-07
-4.96188e-07
2.95141e-07
-7.94379e-07
2.98243e-07
-1.09661e-06
3.02287e-07
-1.40302e-06
3.06468e-07
-1.71353e-06
3.10567e-07
-2.02933e-06
3.15854e-07
-2.34958e-06
3.20306e-07
-2.67333e-06
3.23808e-07
-2.99924e-06
3.25975e-07
-3.32888e-06
3.29692e-07
-3.6626e-06
3.33772e-07
-4.00125e-06
3.38706e-07
-4.3434e-06
3.42206e-07
-4.68876e-06
3.45412e-07
-5.03472e-06
3.46001e-07
-5.38203e-06
3.47358e-07
-5.73293e-06
3.50955e-07
-6.08651e-06
3.53634e-07
-6.44326e-06
3.56807e-07
-6.80192e-06
3.58706e-07
-7.16114e-06
3.59265e-07
-7.5177e-06
3.56608e-07
-7.8698e-06
3.52131e-07
-8.21943e-06
3.49658e-07
-8.55595e-06
3.36551e-07
-8.89309e-06
3.37157e-07
3.22851e-07
5.03321e-05
1.42415e-06
4.98289e-05
2.95055e-06
4.90267e-05
4.66737e-06
4.77601e-05
4.55064e-06
4.62707e-05
2.42959e-06
4.7682e-05
-3.81109e-06
5.13075e-05
-8.36366e-06
5.57303e-05
-1.02561e-05
6.0555e-05
-1.05091e-05
6.54571e-05
-1.05221e-05
7.01697e-05
-1.06621e-05
7.40588e-05
-9.36331e-06
7.64476e-05
-7.06361e-06
7.78942e-05
-5.18509e-06
7.9149e-05
-4.15106e-06
8.04823e-05
-3.82821e-06
8.21391e-05
-4.17455e-06
8.45211e-05
-4.98155e-06
8.7415e-05
-5.20965e-06
9.04648e-05
-5.35065e-06
9.33914e-05
-5.54226e-06
9.58358e-05
-4.71165e-06
9.70691e-05
-2.24038e-06
9.70767e-05
5.94253e-07
9.5647e-05
2.6892e-06
9.31309e-05
4.31562e-06
9.03044e-05
5.72072e-06
8.76146e-05
6.56654e-06
8.54347e-05
6.27745e-06
8.46582e-05
4.1319e-06
8.44823e-05
2.21646e-06
8.41742e-05
1.42633e-06
8.35956e-05
1.46264e-06
8.24393e-05
2.45518e-06
7.9908e-05
4.53877e-06
7.61603e-05
5.93529e-06
7.17437e-05
7.99811e-06
6.75421e-05
9.40327e-06
6.33856e-05
9.39519e-06
5.90045e-05
9.23873e-06
5.52762e-05
7.50489e-06
5.2499e-05
5.26523e-06
5.01456e-05
3.8969e-06
4.77885e-05
4.18407e-06
4.54336e-05
5.26266e-06
4.30785e-05
4.92546e-06
4.1368e-05
3.16954e-06
4.01236e-05
2.05464e-06
3.89759e-05
2.06561e-06
3.76609e-05
3.18228e-06
3.61176e-05
3.823e-06
3.44475e-05
3.33151e-06
3.3304e-05
1.86228e-06
3.28257e-05
6.50601e-07
3.26449e-05
9.22337e-08
3.2538e-05
-8.8126e-08
3.22633e-05
7.18431e-08
3.14547e-05
7.52343e-07
3.03097e-05
1.34382e-06
2.91501e-05
1.79696e-06
2.82647e-05
2.1335e-06
2.78857e-05
2.24856e-06
2.76162e-05
2.49437e-06
2.67525e-05
2.98534e-06
2.51457e-05
3.38004e-06
2.32689e-05
3.34367e-06
2.14864e-05
2.96571e-06
2.01136e-05
2.08262e-06
1.94098e-05
8.01039e-07
1.92004e-05
-1.6263e-07
1.91831e-05
-6.46519e-07
1.91404e-05
-5.59225e-07
1.86446e-05
2.77238e-07
1.77453e-05
1.10105e-06
1.6884e-05
1.34737e-06
1.64127e-05
1.05705e-06
1.64461e-05
7.33794e-07
1.74905e-05
9.83584e-07
1.79842e-05
1.53429e-06
1.75913e-05
9.02013e-07
1.6159e-05
2.22671e-06
1.44636e-05
2.37128e-06
1.40043e-05
1.58715e-06
1.29771e-05
1.89049e-06
1.2192e-05
1.49113e-06
1.11982e-05
2.0471e-06
1.01179e-05
2.06985e-06
9.14496e-06
1.74841e-06
8.36695e-06
1.25215e-06
7.36381e-06
1.50774e-06
6.51331e-06
1.31474e-06
6.01246e-06
9.33584e-07
5.54916e-06
9.79844e-07
5.03363e-06
1.05603e-06
4.50881e-06
1.20231e-06
3.90309e-06
1.36339e-06
3.3467e-06
1.41892e-06
2.81135e-06
1.41408e-06
2.52757e-06
1.65344e-06
2.03586e-06
2.40164e-06
1.23847e-06
2.48675e-06
-1.05121e-07
2.37159e-06
-1.99805e-06
2.30929e-06
-3.68132e-06
2.01387e-06
-4.98281e-06
1.3653e-06
-5.75386e-06
8.12021e-07
-6.18671e-06
6.79465e-07
-6.4483e-06
6.65176e-07
-6.35677e-06
1.93071e-07
-6.15586e-06
-9.159e-08
-6.21912e-06
1.70464e-07
-6.35595e-06
1.60999e-07
-6.50383e-06
1.50858e-07
-6.6718e-06
2.34591e-07
-6.75586e-06
2.38913e-07
-6.76695e-06
2.16587e-07
-6.78489e-06
3.20073e-07
-6.88746e-06
4.31656e-07
-7.03275e-06
3.66078e-07
-7.30476e-06
3.87841e-07
-7.66396e-06
4.19347e-07
-7.89856e-06
2.78402e-07
-7.98785e-06
6.98757e-08
-8.01241e-06
-1.59882e-08
-8.00103e-06
-1.62793e-08
-7.91581e-06
-9.45453e-08
-7.82346e-06
-1.21839e-07
-7.7607e-06
-1.09369e-07
-7.67118e-06
-1.948e-07
-7.56335e-06
-2.46422e-07
-7.45243e-06
-2.52881e-07
-7.31432e-06
-2.88535e-07
-7.15548e-06
-2.95225e-07
-6.97655e-06
-3.2788e-07
-6.77793e-06
-3.85804e-07
-6.55723e-06
-4.49058e-07
-6.31634e-06
-4.90838e-07
-6.07059e-06
-5.01238e-07
-5.81614e-06
-5.18415e-07
-5.5453e-06
-5.47595e-07
-5.25603e-06
-5.8405e-07
-4.95388e-06
-6.09008e-07
-4.64713e-06
-6.09066e-07
-4.34075e-06
-5.98444e-07
-4.02685e-06
-6.13813e-07
-3.70313e-06
-6.38272e-07
-3.36886e-06
-6.7164e-07
-3.03354e-06
-6.83441e-07
-2.70434e-06
-6.67008e-07
-2.37313e-06
-6.47655e-07
-2.03645e-06
-6.59988e-07
-1.68874e-06
-6.95183e-07
-1.33826e-06
-7.05748e-07
-9.98579e-07
-6.8902e-07
-6.62984e-07
-6.76591e-07
-3.19749e-07
-6.78436e-07
2.83242e-08
-6.82279e-07
3.72439e-07
-6.7926e-07
7.06285e-07
-6.68033e-07
1.02869e-06
-6.49335e-07
1.34707e-06
-6.39514e-07
1.66568e-06
-6.36296e-07
1.98479e-06
-6.3417e-07
2.30021e-06
-6.26317e-07
2.6081e-06
-6.11691e-07
2.90068e-06
-5.82386e-07
3.18191e-06
-5.61472e-07
3.46105e-06
-5.57787e-07
3.73753e-06
-5.53114e-07
4.00192e-06
-5.28965e-07
4.25001e-06
-4.91952e-07
4.48887e-06
-4.72888e-07
4.72157e-06
-4.65862e-07
4.94746e-06
-4.54513e-07
5.16411e-06
-4.37019e-07
5.36885e-06
-4.10005e-07
5.5552e-06
-3.66549e-07
5.72379e-06
-3.28815e-07
5.87718e-06
-3.04771e-07
6.02127e-06
-2.91532e-07
6.15786e-06
-2.77115e-07
6.28313e-06
-2.5107e-07
6.39435e-06
-2.21529e-07
6.48534e-06
-1.80398e-07
6.5506e-06
-1.28536e-07
6.59874e-06
-9.73197e-08
6.63552e-06
-7.99253e-08
6.66151e-06
-5.63954e-08
6.67218e-06
-1.8668e-08
6.66505e-06
2.4274e-08
6.63538e-06
6.70236e-08
6.58513e-06
1.00748e-07
6.51974e-06
1.25183e-07
6.44286e-06
1.48153e-07
6.35127e-06
1.77828e-07
6.24081e-06
2.19597e-07
6.11177e-06
2.66084e-07
5.96485e-06
3.03919e-07
5.80628e-06
3.24343e-07
5.63716e-06
3.35427e-07
5.45672e-06
3.55131e-07
5.26243e-06
3.84591e-07
5.05529e-06
4.14426e-07
4.84091e-06
4.35902e-07
4.6213e-06
4.45916e-07
4.39401e-06
4.53003e-07
4.15597e-06
4.69019e-07
3.90736e-06
4.93732e-07
3.65623e-06
5.12583e-07
3.4088e-06
5.0183e-07
3.16476e-06
4.83533e-07
2.92037e-06
4.8253e-07
2.67523e-06
4.83934e-07
2.42853e-06
4.90178e-07
2.17965e-06
5.04145e-07
1.93247e-06
5.03607e-07
1.68987e-06
4.8672e-07
1.45796e-06
4.57238e-07
1.23353e-06
4.41533e-07
1.0138e-06
4.32587e-07
7.98797e-07
4.26344e-07
5.87197e-07
4.27772e-07
3.79328e-07
4.22989e-07
1.75944e-07
4.08981e-07
-1.98783e-08
3.85896e-07
-2.04734e-07
3.62293e-07
-3.81441e-07
3.47345e-07
-5.52553e-07
3.38024e-07
-7.20354e-07
3.36815e-07
-8.84781e-07
3.32516e-07
-1.04152e-06
3.17227e-07
-1.18787e-06
2.94587e-07
-1.32636e-06
2.7396e-07
-1.45909e-06
2.62101e-07
-1.58681e-06
2.546e-07
-1.71228e-06
2.49206e-07
-1.83601e-06
2.43379e-07
-1.95516e-06
2.35322e-07
-2.06749e-06
2.25705e-07
-2.1713e-06
2.12981e-07
-2.26818e-06
1.99989e-07
-2.36188e-06
1.86467e-07
-2.45262e-06
1.77182e-07
-2.54027e-06
1.71414e-07
-2.6254e-06
1.67112e-07
-2.70787e-06
1.6608e-07
-2.78507e-06
1.61138e-07
-2.85764e-06
1.47691e-07
-2.92545e-06
1.33032e-07
-2.99129e-06
1.28607e-07
-3.05624e-06
1.26738e-07
-3.11917e-06
1.24615e-07
-3.17886e-06
1.22686e-07
-3.23491e-06
1.16951e-07
-3.2879e-06
1.08156e-07
-3.33966e-06
1.02203e-07
-3.39162e-06
1.0105e-07
-3.44396e-06
1.01593e-07
-3.49335e-06
9.80459e-08
-3.53747e-06
9.08855e-08
-3.57962e-06
8.66725e-08
-3.62101e-06
8.22773e-08
-3.66137e-06
7.88487e-08
-3.70134e-06
7.86158e-08
-3.74204e-06
8.1577e-08
-3.78218e-06
8.26934e-08
-3.82006e-06
7.81492e-08
-3.85456e-06
6.81699e-08
-3.88725e-06
6.3671e-08
-3.91934e-06
6.28401e-08
-3.95118e-06
6.18514e-08
-3.98219e-06
6.03885e-08
-4.01158e-06
5.99499e-08
-4.03957e-06
5.97888e-08
-4.0667e-06
5.72515e-08
-4.09328e-06
5.23341e-08
-4.11805e-06
4.73504e-08
-4.14103e-06
4.42557e-08
-4.16186e-06
4.06575e-08
-4.18025e-06
3.61646e-08
-4.19725e-06
3.35943e-08
-4.21398e-06
3.43693e-08
-4.22938e-06
3.32806e-08
-4.24221e-06
2.66457e-08
-4.25144e-06
1.77047e-08
-4.25874e-06
1.35605e-08
-4.2651e-06
1.1379e-08
-4.2692e-06
6.69202e-09
-4.26991e-06
1.00704e-09
-4.26772e-06
-2.83379e-09
-4.26304e-06
-6.77206e-09
-4.25537e-06
-1.33333e-08
-4.24537e-06
-2.04582e-08
-4.23318e-06
-2.62174e-08
-4.21791e-06
-3.23269e-08
-4.19818e-06
-4.01583e-08
-4.17396e-06
-4.69182e-08
-4.14628e-06
-5.24446e-08
-4.1164e-06
-5.80665e-08
-4.08491e-06
-6.40118e-08
-4.04992e-06
-7.1758e-08
-4.00954e-06
-8.17138e-08
-3.96444e-06
-8.94504e-08
-3.91632e-06
-9.43855e-08
-3.86654e-06
-9.91337e-08
-3.81444e-06
-1.05491e-07
-3.75767e-06
-1.14615e-07
-3.69632e-06
-1.22387e-07
-3.63221e-06
-1.26998e-07
-3.56685e-06
-1.30739e-07
-3.50011e-06
-1.35008e-07
-3.43052e-06
-1.40506e-07
-3.35858e-06
-1.44291e-07
-3.28551e-06
-1.4572e-07
-3.21266e-06
-1.45438e-07
-3.14082e-06
-1.44528e-07
-3.06894e-06
-1.44772e-07
-2.99624e-06
-1.45658e-07
-2.92379e-06
-1.44757e-07
-2.85252e-06
-1.4233e-07
-2.7829e-06
-1.39099e-07
-2.71531e-06
-1.35184e-07
-2.64961e-06
-1.31416e-07
-2.58581e-06
-1.27428e-07
-2.52401e-06
-1.23073e-07
-2.4645e-06
-1.18358e-07
-2.4075e-06
-1.13491e-07
-2.35323e-06
-1.08363e-07
-2.30184e-06
-1.02646e-07
-2.25325e-06
-9.6824e-08
-2.20728e-06
-9.15312e-08
-2.16377e-06
-8.67178e-08
-2.12278e-06
-8.1946e-08
-2.08448e-06
-7.66582e-08
-2.04895e-06
-7.10175e-08
-2.01621e-06
-6.51646e-08
-1.98615e-06
-5.98898e-08
-1.95863e-06
-5.51552e-08
-1.93277e-06
-5.18313e-08
-1.90848e-06
-4.84331e-08
-1.88598e-06
-4.4776e-08
-1.86534e-06
-4.11385e-08
-1.84655e-06
-3.76209e-08
-1.82963e-06
-3.42165e-08
-1.81439e-06
-3.11765e-08
-1.80024e-06
-2.90525e-08
-1.78655e-06
-2.78584e-08
-1.77331e-06
-2.67425e-08
-1.76052e-06
-2.57562e-08
-1.74809e-06
-2.49797e-08
-1.73593e-06
-2.44219e-08
-1.72393e-06
-2.41349e-08
-1.71192e-06
-2.41399e-08
-1.69954e-06
-2.49129e-08
-1.68656e-06
-2.61603e-08
-1.67284e-06
-2.76903e-08
-1.65826e-06
-2.94166e-08
-1.64288e-06
-3.11633e-08
-1.62657e-06
-3.31294e-08
-1.60889e-06
-3.5803e-08
-1.58961e-06
-3.88869e-08
-1.56863e-06
-4.22051e-08
-1.54595e-06
-4.56255e-08
-1.5215e-06
-4.92555e-08
-1.49524e-06
-5.28505e-08
-1.46712e-06
-5.61802e-08
-1.43699e-06
-5.98157e-08
-1.40472e-06
-6.41157e-08
-1.37018e-06
-6.9007e-08
-1.33346e-06
-7.37146e-08
-1.29502e-06
-7.73422e-08
-1.2549e-06
-8.05622e-08
-1.21241e-06
-8.51046e-08
-1.1671e-06
-9.04626e-08
-1.11918e-06
-9.56556e-08
-1.06907e-06
-1.00203e-07
-1.01732e-06
-1.03768e-07
-9.63953e-07
-1.0731e-07
-9.08566e-07
-1.11015e-07
-8.50776e-07
-1.14617e-07
-7.90874e-07
-1.18415e-07
-7.29277e-07
-1.22605e-07
-6.66193e-07
-1.26322e-07
-6.01802e-07
-1.29066e-07
-5.36289e-07
-1.31344e-07
-4.69473e-07
-1.33753e-07
-4.01353e-07
-1.35853e-07
-3.3215e-07
-1.37971e-07
-2.62063e-07
-1.40058e-07
-1.91431e-07
-1.41255e-07
-1.20195e-07
-1.41943e-07
-4.84792e-08
-1.42594e-07
2.35912e-08
-1.43471e-07
9.55985e-08
-1.43884e-07
1.67501e-07
-1.4378e-07
2.39228e-07
-1.43525e-07
3.11055e-07
-1.43485e-07
3.82656e-07
-1.42565e-07
4.53991e-07
-1.41365e-07
5.24187e-07
-1.39571e-07
5.93178e-07
-1.37785e-07
6.61211e-07
-1.36415e-07
7.29137e-07
-1.3589e-07
7.96188e-07
-1.34369e-07
8.62277e-07
-1.31953e-07
9.26545e-07
-1.27315e-07
9.89824e-07
-1.25758e-07
1.05181e-06
-1.24218e-07
1.11255e-06
-1.22211e-07
1.17217e-06
-1.18828e-07
1.22984e-06
-1.1457e-07
1.28684e-06
-1.11282e-07
1.34072e-06
-1.0731e-07
1.39315e-06
-1.04838e-07
1.44185e-06
-9.93411e-08
1.48887e-06
-9.45582e-08
1.53753e-06
-9.40502e-08
1.58497e-06
-8.94484e-08
1.62791e-06
-8.22996e-08
1.66837e-06
-8.17918e-08
1.68606e-06
-5.63626e-08
1.70066e-06
-4.87853e-08
1.75158e-06
-8.52975e-08
1.8052e-06
-6.65621e-08
1.88155e-06
-8.33998e-08
1.94369e-06
-1.02645e-07
2.0592e-06
-1.37563e-07
2.18451e-06
-1.66527e-07
2.25035e-06
-1.20329e-07
2.28518e-06
-1.41808e-07
2.30046e-06
-1.36296e-07
2.33777e-06
-1.06936e-07
2.36522e-06
-9.491e-08
2.39798e-06
-8.10466e-08
2.42682e-06
-7.1832e-08
2.45879e-06
-6.3859e-08
2.48498e-06
-5.46233e-08
2.50854e-06
-4.59419e-08
2.51779e-06
-3.15753e-08
2.51668e-06
-1.53637e-08
2.52596e-06
-2.77715e-08
2.54416e-06
-2.78479e-08
2.57483e-06
-2.6528e-08
2.60464e-06
-3.36281e-08
2.6689e-06
-6.78051e-08
2.7914e-06
-1.31906e-07
2.91726e-06
-1.364e-07
3.01132e-06
-1.26508e-07
3.04155e-06
-1.26222e-07
3.05237e-06
-1.30465e-07
3.05334e-06
-9.85176e-08
3.05348e-06
-6.44127e-08
3.04038e-06
-2.40711e-08
3.03502e-06
-1.83256e-08
3.03414e-06
-3.16155e-09
3.0415e-06
-8.94146e-10
3.05006e-06
1.91318e-08
3.06713e-06
1.04186e-08
3.05591e-06
3.24403e-08
2.93863e-06
1.46297e-07
2.81175e-06
1.49666e-07
2.74675e-06
9.56946e-08
2.67883e-06
1.87366e-07
2.8373e-06
-3.99247e-08
3.0265e-06
-1.07045e-07
3.67469e-06
-4.96539e-07
4.52113e-06
-8.95031e-07
5.28294e-06
-7.82761e-07
5.86728e-06
-9.77146e-07
6.22439e-06
-1.05952e-06
6.47512e-06
-9.68131e-07
6.62706e-06
-8.03025e-07
6.70929e-06
-6.65441e-07
6.79295e-06
-5.62017e-07
6.89508e-06
-4.63722e-07
6.9946e-06
-3.3549e-07
7.06504e-06
-2.21618e-07
7.10918e-06
-1.44477e-07
7.12761e-06
-9.66913e-08
7.13018e-06
-4.49977e-08
7.1223e-06
5.04315e-09
7.10259e-06
3.81513e-08
7.07198e-06
6.52118e-08
7.03187e-06
7.88997e-08
6.97626e-06
9.79201e-08
6.90557e-06
1.30343e-07
6.82683e-06
1.58338e-07
6.74087e-06
1.74432e-07
6.65035e-06
1.84474e-07
6.55075e-06
1.99196e-07
6.44376e-06
2.15852e-07
6.33141e-06
2.25055e-07
6.21229e-06
2.32412e-07
6.08627e-06
2.4625e-07
5.95351e-06
2.67761e-07
5.81428e-06
2.85316e-07
5.66905e-06
2.99208e-07
5.51635e-06
3.08602e-07
5.3587e-06
3.16632e-07
5.19722e-06
3.2599e-07
5.03031e-06
3.35407e-07
4.85644e-06
3.48076e-07
4.67414e-06
3.66401e-07
4.48304e-06
3.8768e-07
4.28713e-06
4.00191e-07
4.08677e-06
4.05732e-07
3.8848e-06
4.04556e-07
3.67814e-06
4.0746e-07
3.46563e-06
4.17541e-07
3.24785e-06
4.29719e-07
3.02581e-06
4.43164e-07
2.79994e-06
4.52684e-07
2.56998e-06
4.61147e-07
2.33391e-06
4.73478e-07
2.09109e-06
4.84847e-07
1.84195e-06
4.94138e-07
1.58696e-06
5.03447e-07
1.32606e-06
5.15409e-07
1.05924e-06
5.29642e-07
7.8729e-07
5.4412e-07
5.10299e-07
5.57756e-07
2.27833e-07
5.69731e-07
-5.93482e-08
5.79447e-07
-3.52089e-07
5.87968e-07
-6.50144e-07
5.96387e-07
-9.52313e-07
6.04547e-07
-1.25907e-06
6.13322e-07
-1.57037e-06
6.2195e-07
-1.88599e-06
6.31573e-07
-2.20593e-06
6.40332e-07
-2.52933e-06
6.47297e-07
-2.85673e-06
6.53442e-07
-3.18781e-06
6.60858e-07
-3.5229e-06
6.68952e-07
-3.86192e-06
6.77806e-07
-4.2036e-06
6.83956e-07
-4.54732e-06
6.89208e-07
-4.89356e-06
6.92305e-07
-5.24309e-06
6.96961e-07
-5.59559e-06
7.03538e-07
-5.95086e-06
7.09009e-07
-6.30689e-06
7.12919e-07
-6.66442e-06
7.16313e-07
-7.02363e-06
7.18546e-07
-7.38518e-06
7.18214e-07
-7.74735e-06
7.14359e-07
-8.10819e-06
7.10536e-07
-8.47628e-06
7.04671e-07
-8.84155e-06
7.0244e-07
6.97283e-07
5.06883e-05
1.38008e-06
5.08345e-05
2.80375e-06
5.1308e-05
4.19347e-06
5.19102e-05
3.94816e-06
5.25066e-05
1.83297e-06
5.3552e-05
-4.85655e-06
5.56502e-05
-1.04617e-05
5.8438e-05
-1.30439e-05
6.17845e-05
-1.38556e-05
6.52777e-05
-1.40154e-05
6.81959e-05
-1.35807e-05
6.98421e-05
-1.10125e-05
7.01515e-05
-7.40228e-06
7.0303e-05
-5.34573e-06
7.08468e-05
-4.69656e-06
7.18078e-05
-4.76742e-06
7.32432e-05
-5.5927e-06
7.46929e-05
-6.42773e-06
7.58542e-05
-6.3708e-06
7.65232e-05
-6.01956e-06
7.65339e-05
-5.55282e-06
7.60783e-05
-4.25583e-06
7.55551e-05
-1.71716e-06
7.49538e-05
1.19564e-06
7.39419e-05
3.70119e-06
7.28456e-05
5.41201e-06
7.25397e-05
6.0268e-06
7.34824e-05
5.62388e-06
7.53884e-05
4.37148e-06
7.73434e-05
2.17655e-06
7.83935e-05
1.16341e-06
7.8603e-05
1.21683e-06
7.79157e-05
2.14998e-06
7.59121e-05
4.46098e-06
7.29177e-05
7.53414e-06
6.89058e-05
9.9473e-06
6.46313e-05
1.22727e-05
6.09483e-05
1.30863e-05
5.74024e-05
1.294e-05
5.42039e-05
1.24179e-05
5.19515e-05
9.76421e-06
5.0192e-05
7.03423e-06
4.82523e-05
5.83488e-06
4.61934e-05
6.2264e-06
4.44729e-05
6.96484e-06
4.2819e-05
6.59816e-06
4.14096e-05
4.59106e-06
4.02419e-05
3.22398e-06
3.91427e-05
3.16319e-06
3.79874e-05
4.32319e-06
3.66733e-05
5.13708e-06
3.51344e-05
4.87708e-06
3.37328e-05
3.27102e-06
3.27035e-05
1.68086e-06
3.17993e-05
9.96714e-07
3.0885e-05
8.26246e-07
2.98445e-05
1.11007e-06
2.8585e-05
1.99892e-06
2.74664e-05
2.46241e-06
2.69306e-05
2.33268e-06
2.70651e-05
2.00736e-06
2.75413e-05
1.77553e-06
2.81183e-05
1.91642e-06
2.82328e-05
2.85976e-06
2.7147e-05
4.46252e-06
2.5428e-05
5.06273e-06
2.34351e-05
4.96787e-06
2.1389e-05
4.1326e-06
1.98587e-05
2.33186e-06
1.90132e-05
6.82939e-07
1.84086e-05
-4.20881e-08
1.79573e-05
-1.10545e-07
1.76885e-05
5.40988e-07
1.72535e-05
1.53608e-06
1.67325e-05
1.8716e-06
1.61664e-05
1.62777e-06
1.56677e-05
1.23351e-06
1.57992e-05
8.52134e-07
1.66848e-05
6.48887e-07
1.72175e-05