/*--------------------------------*- C++ -*----------------------------------*\
| =========                 |                                                 |
| \\      /  F ield         | OpenFOAM: The Open Source CFD Toolbox           |
|  \\    /   O peration     | Version:  v2006                                 |
|   \\  /    A nd           | Website:  www.openfoam.com                      |
|    \\/     M anipulation  |                                                 |
\*---------------------------------------------------------------------------*/
FoamFile
{
    version     2.0;
    format      ascii;
    class       volScalarField;
    location    "10";
    object      k;
}
// * * * * * * * * * * * * * * * * * * * * * * * * * * * * * * * * * * * * * //

dimensions      [0 2 -2 0 0 0 0];


internalField   nonuniform List<scalar> 
33000
(
1.55638e-08
2.84356e-08
4.21891e-08
4.90627e-08
4.7504e-08
4.21235e-08
3.75757e-08
3.4837e-08
3.34418e-08
3.26947e-08
3.23817e-08
3.26842e-08
3.36285e-08
3.52319e-08
3.74171e-08
4.00379e-08
4.3017e-08
4.63409e-08
4.99398e-08
5.37423e-08
5.74708e-08
6.05153e-08
6.27125e-08
6.47462e-08
6.73515e-08
7.15614e-08
7.99186e-08
9.77585e-08
1.33608e-07
1.95894e-07
2.85146e-07
3.90342e-07
4.95539e-07
5.88528e-07
6.65727e-07
7.32123e-07
8.02748e-07
9.11612e-07
1.10479e-06
1.38264e-06
1.66644e-06
1.86873e-06
1.97527e-06
2.01896e-06
2.01753e-06
1.97595e-06
1.90491e-06
1.8454e-06
1.82885e-06
1.83609e-06
1.81312e-06
1.74178e-06
1.6278e-06
1.51618e-06
1.43369e-06
1.38938e-06
1.38425e-06
1.42515e-06
1.5071e-06
1.62386e-06
1.73699e-06
1.80503e-06
1.81719e-06
1.78081e-06
1.70941e-06
1.60559e-06
1.47141e-06
1.30984e-06
1.14357e-06
1.01157e-06
9.26154e-07
8.88766e-07
8.84442e-07
8.90019e-07
8.92656e-07
8.84273e-07
8.95355e-07
9.33083e-07
9.50664e-07
9.73637e-07
9.84183e-07
9.94526e-07
1.0099e-06
1.03487e-06
1.07599e-06
1.12863e-06
1.18204e-06
1.22693e-06
1.25886e-06
1.27987e-06
1.28356e-06
1.27323e-06
1.25368e-06
1.2139e-06
1.16057e-06
1.08398e-06
1.01086e-06
9.36374e-07
8.93865e-07
8.47538e-07
8.31139e-07
8.40658e-07
8.55582e-07
8.62528e-07
8.53861e-07
8.57316e-07
8.79137e-07
8.99897e-07
9.04344e-07
8.95598e-07
8.92137e-07
8.80542e-07
8.70395e-07
8.59271e-07
8.4668e-07
8.16822e-07
7.83806e-07
7.47185e-07
7.27617e-07
7.17117e-07
7.09278e-07
7.14445e-07
7.09342e-07
7.13525e-07
7.30278e-07
7.41719e-07
7.49689e-07
7.56111e-07
7.58343e-07
7.61157e-07
7.66299e-07
7.71011e-07
7.75834e-07
7.78616e-07
7.79637e-07
7.79926e-07
7.806e-07
7.81999e-07
7.83249e-07
7.84319e-07
7.85173e-07
7.86133e-07
7.87339e-07
7.8813e-07
7.8792e-07
7.86879e-07
7.8525e-07
7.83664e-07
7.82284e-07
7.80469e-07
7.77237e-07
7.73137e-07
7.6895e-07
7.64629e-07
7.59906e-07
7.54643e-07
7.48824e-07
7.42531e-07
7.35894e-07
7.28905e-07
7.21468e-07
7.13596e-07
7.0534e-07
6.96737e-07
6.87876e-07
6.78782e-07
6.69228e-07
6.5926e-07
6.49097e-07
6.38987e-07
6.28894e-07
6.18581e-07
6.08159e-07
5.97784e-07
5.87682e-07
5.78123e-07
5.69142e-07
5.60503e-07
5.52045e-07
5.43675e-07
5.35455e-07
5.2748e-07
5.19945e-07
5.13034e-07
5.06661e-07
5.00654e-07
4.94873e-07
4.89277e-07
4.84005e-07
4.79224e-07
4.74922e-07
4.709e-07
4.6702e-07
4.63294e-07
4.59954e-07
4.57281e-07
4.55428e-07
4.54308e-07
4.53573e-07
4.52941e-07
4.52434e-07
4.5232e-07
4.52831e-07
4.53886e-07
4.5522e-07
4.56657e-07
4.58242e-07
4.60213e-07
4.62673e-07
4.65339e-07
4.67803e-07
4.70066e-07
4.72596e-07
4.75642e-07
4.79121e-07
4.82878e-07
4.86588e-07
4.8992e-07
4.92926e-07
4.9597e-07
4.99289e-07
5.02904e-07
5.06681e-07
5.10337e-07
5.13562e-07
5.16282e-07
5.18723e-07
5.21119e-07
5.23596e-07
5.26121e-07
5.28413e-07
5.30153e-07
5.31263e-07
5.31994e-07
5.326e-07
5.33144e-07
5.3357e-07
5.33764e-07
5.33701e-07
5.3337e-07
5.32683e-07
5.31514e-07
5.29857e-07
5.27972e-07
5.26081e-07
5.24223e-07
5.22294e-07
5.19999e-07
5.17021e-07
5.13637e-07
5.10355e-07
5.07154e-07
5.03904e-07
5.00487e-07
4.96708e-07
4.92567e-07
4.88284e-07
4.84002e-07
4.79693e-07
4.75249e-07
4.70593e-07
4.65736e-07
4.60732e-07
4.55722e-07
4.50831e-07
4.45978e-07
4.4092e-07
4.35448e-07
4.29725e-07
4.24078e-07
4.18526e-07
4.12974e-07
4.0744e-07
4.01921e-07
3.96275e-07
3.90361e-07
3.84279e-07
3.78215e-07
3.72191e-07
3.66164e-07
3.60144e-07
3.54196e-07
3.48275e-07
3.42174e-07
3.35835e-07
3.29518e-07
3.23321e-07
3.17125e-07
3.10916e-07
3.04736e-07
2.98568e-07
2.92281e-07
2.85873e-07
2.79428e-07
2.72986e-07
2.66555e-07
2.60183e-07
2.53902e-07
2.47643e-07
2.41432e-07
2.35297e-07
2.29265e-07
2.2338e-07
2.17647e-07
2.11987e-07
2.06397e-07
2.00937e-07
1.95684e-07
1.90682e-07
1.85917e-07
1.81404e-07
1.77183e-07
1.73285e-07
1.69704e-07
1.66406e-07
1.63373e-07
1.60606e-07
1.58107e-07
1.55876e-07
1.53903e-07
1.52175e-07
1.50686e-07
1.49423e-07
1.48379e-07
1.47542e-07
1.46894e-07
1.46424e-07
1.46121e-07
1.45974e-07
1.45956e-07
1.46046e-07
1.46229e-07
1.465e-07
1.46851e-07
1.47267e-07
1.47726e-07
1.48204e-07
1.48688e-07
1.49166e-07
1.49629e-07
1.50063e-07
1.5046e-07
1.50814e-07
1.51125e-07
1.5139e-07
1.51605e-07
1.51767e-07
1.51879e-07
1.51938e-07
1.51946e-07
1.519e-07
1.51797e-07
1.51633e-07
1.51406e-07
1.51118e-07
1.50771e-07
1.50365e-07
1.49902e-07
1.49382e-07
1.48806e-07
1.48177e-07
1.47498e-07
1.46769e-07
1.45995e-07
1.45179e-07
1.44323e-07
1.43427e-07
1.4249e-07
1.41516e-07
1.40515e-07
1.39493e-07
1.38443e-07
1.3736e-07
1.3625e-07
1.35116e-07
1.33964e-07
1.32792e-07
1.31599e-07
1.30389e-07
1.29159e-07
1.27904e-07
1.26626e-07
1.25338e-07
1.24041e-07
1.22735e-07
1.21418e-07
1.20095e-07
1.18762e-07
1.17428e-07
1.16097e-07
1.1477e-07
1.13441e-07
1.12113e-07
1.10793e-07
1.09477e-07
1.08165e-07
1.06856e-07
1.05562e-07
1.04267e-07
1.02983e-07
1.01702e-07
1.00438e-07
9.9188e-08
9.79633e-08
9.67664e-08
9.55844e-08
9.44128e-08
9.32625e-08
9.2163e-08
9.10891e-08
9.00565e-08
8.90318e-08
8.80318e-08
8.70615e-08
8.61199e-08
8.52101e-08
8.43144e-08
8.34231e-08
8.25352e-08
8.16716e-08
8.08627e-08
8.00644e-08
7.93002e-08
7.83526e-08
7.72123e-08
7.62933e-08
7.58548e-08
7.48622e-08
7.5101e-08
7.58689e-08
7.89509e-08
8.03806e-08
8.22947e-08
8.33629e-08
8.43165e-08
8.47766e-08
8.50714e-08
8.51839e-08
8.52482e-08
8.52292e-08
8.52128e-08
8.52162e-08
8.48456e-08
8.44287e-08
8.39003e-08
8.22955e-08
8.07234e-08
7.85552e-08
7.71737e-08
7.54727e-08
7.5981e-08
7.67084e-08
7.75232e-08
7.80801e-08
7.8518e-08
7.87853e-08
7.89121e-08
7.85868e-08
7.83458e-08
7.81307e-08
7.75044e-08
7.76104e-08
7.63732e-08
7.392e-08
7.35091e-08
7.28018e-08
6.97434e-08
7.4114e-08
7.6708e-08
9.12423e-08
9.72602e-08
1.05594e-07
1.12965e-07
1.21471e-07
1.31131e-07
1.41059e-07
1.50135e-07
1.57885e-07
1.64386e-07
1.7025e-07
1.75319e-07
1.79287e-07
1.82457e-07
1.84971e-07
1.87132e-07
1.89121e-07
1.90801e-07
1.92114e-07
1.93201e-07
1.94173e-07
1.95016e-07
1.95661e-07
1.96185e-07
1.96732e-07
1.97302e-07
1.97761e-07
1.98086e-07
1.98292e-07
1.98444e-07
1.98553e-07
1.98607e-07
1.98658e-07
1.98719e-07
1.98725e-07
1.98591e-07
1.98314e-07
1.97957e-07
1.97611e-07
1.97334e-07
1.97106e-07
1.96899e-07
1.96646e-07
1.96368e-07
1.96103e-07
1.95814e-07
1.95504e-07
1.95225e-07
1.95021e-07
1.94893e-07
1.94847e-07
1.95002e-07
1.95398e-07
1.95962e-07
1.96635e-07
1.97393e-07
1.98238e-07
1.99166e-07
2.00168e-07
2.01235e-07
2.02354e-07
2.03513e-07
2.04713e-07
2.05968e-07
2.07285e-07
2.08667e-07
2.10084e-07
2.11536e-07
2.12998e-07
2.1452e-07
2.16103e-07
2.17725e-07
2.1937e-07
2.21069e-07
2.22763e-07
2.24199e-07
2.24968e-07
2.22111e-07
2.07876e-07
1.80925e-07
1.06057e-07
1.39181e-08
2.18291e-08
3.06364e-08
3.42018e-08
3.14735e-08
2.67355e-08
2.27799e-08
2.02358e-08
1.8874e-08
1.82612e-08
1.81485e-08
1.84426e-08
1.90484e-08
2.05507e-08
2.37702e-08
2.92099e-08
3.68759e-08
4.67235e-08
5.82891e-08
7.07024e-08
8.20896e-08
8.99098e-08
9.35686e-08
9.54536e-08
9.87974e-08
1.07154e-07
1.29421e-07
1.82189e-07
2.76724e-07
4.06664e-07
5.53166e-07
6.85416e-07
7.91255e-07
8.89561e-07
1.04206e-06
1.28207e-06
1.56477e-06
1.8214e-06
2.08355e-06
2.28184e-06
2.19249e-06
1.79422e-06
1.3505e-06
1.10479e-06
1.01906e-06
8.94455e-07
6.74126e-07
4.98271e-07
4.66393e-07
5.51225e-07
5.80869e-07
4.80143e-07
3.20092e-07
2.03194e-07
1.41992e-07
1.1417e-07
1.07449e-07
1.216e-07
1.63161e-07
2.46157e-07
3.64792e-07
4.79726e-07
5.3929e-07
5.30161e-07
4.68555e-07
3.79672e-07
2.76742e-07
1.83063e-07
1.27031e-07
1.0493e-07
9.95352e-08
1.05706e-07
1.21574e-07
1.47683e-07
1.82489e-07
2.17639e-07
2.56142e-07
3.64738e-07
4.99272e-07
5.16791e-07
5.24276e-07
5.58481e-07
6.03858e-07
6.48144e-07
6.41162e-07
6.1559e-07
5.58266e-07
4.78698e-07
3.99179e-07
3.35859e-07
2.71295e-07
2.1618e-07
1.80984e-07
1.59832e-07
1.59409e-07
1.66293e-07
1.8505e-07
2.10238e-07
2.90574e-07
3.72805e-07
3.86692e-07
3.77828e-07
3.83032e-07
3.18492e-07
2.44418e-07
1.86552e-07
1.46813e-07
1.12733e-07
8.75909e-08
7.10992e-08
6.34829e-08
5.95582e-08
5.84766e-08
6.01735e-08
6.64732e-08
7.90217e-08
1.13334e-07
1.27927e-07
1.09454e-07
8.4257e-08
7.25947e-08
6.48857e-08
6.04626e-08
5.86346e-08
5.7471e-08
5.51724e-08
5.33053e-08
5.23179e-08
5.19591e-08
5.21701e-08
5.281e-08
5.33324e-08
5.35112e-08
5.34641e-08
5.35875e-08
5.40563e-08
5.47147e-08
5.5337e-08
5.58203e-08
5.63412e-08
5.70536e-08
5.78792e-08
5.86059e-08
5.89954e-08
5.90716e-08
5.91667e-08
5.9585e-08
6.04379e-08
6.13145e-08
6.17108e-08
6.17359e-08
6.18965e-08
6.24468e-08
6.3183e-08
6.38276e-08
6.42607e-08
6.45807e-08
6.49517e-08
6.54058e-08
6.58432e-08
6.61799e-08
6.64139e-08
6.6592e-08
6.68716e-08
6.73409e-08
6.76797e-08
6.76198e-08
6.73842e-08
6.7405e-08
6.77898e-08
6.79751e-08
6.75564e-08
6.68709e-08
6.62893e-08
6.60986e-08
6.64017e-08
6.66779e-08
6.64633e-08
6.57107e-08
6.46107e-08
6.3657e-08
6.29737e-08
6.24915e-08
6.23469e-08
6.20935e-08
6.1219e-08
5.99805e-08
5.8996e-08
5.8475e-08
5.80585e-08
5.74337e-08
5.6395e-08
5.51087e-08
5.38549e-08
5.28237e-08
5.22426e-08
5.18622e-08
5.12415e-08
5.01299e-08
4.86452e-08
4.74004e-08
4.65275e-08
4.58308e-08
4.50784e-08
4.4061e-08
4.28608e-08
4.18692e-08
4.12278e-08
4.07073e-08
3.96212e-08
3.81067e-08
3.69495e-08
3.60806e-08
3.54401e-08
3.50477e-08
3.44623e-08
3.34602e-08
3.21746e-08
3.10893e-08
3.02832e-08
2.96629e-08
2.92546e-08
2.87865e-08
2.80643e-08
2.71301e-08
2.61922e-08
2.54599e-08
2.49101e-08
2.45579e-08
2.42115e-08
2.36473e-08
2.29231e-08
2.21575e-08
2.1583e-08
2.11895e-08
2.08514e-08
2.05265e-08
2.02174e-08
1.99435e-08
1.96483e-08
1.9314e-08
1.89178e-08
1.86043e-08
1.84488e-08
1.8375e-08
1.83826e-08
1.8376e-08
1.82009e-08
1.79597e-08
1.78929e-08
1.79113e-08
1.79638e-08
1.80373e-08
1.80515e-08
1.80071e-08
1.79791e-08
1.80064e-08
1.80689e-08
1.81249e-08
1.81545e-08
1.81697e-08
1.81717e-08
1.82007e-08
1.82749e-08
1.83754e-08
1.8448e-08
1.84472e-08
1.83824e-08
1.83474e-08
1.83538e-08
1.83834e-08
1.8428e-08
1.84786e-08
1.85066e-08
1.84853e-08
1.84254e-08
1.83657e-08
1.83233e-08
1.82933e-08
1.82762e-08
1.82762e-08
1.82793e-08
1.82496e-08
1.81733e-08
1.80856e-08
1.80183e-08
1.79665e-08
1.79211e-08
1.78803e-08
1.78337e-08
1.7767e-08
1.76784e-08
1.75808e-08
1.74855e-08
1.73965e-08
1.73146e-08
1.72334e-08
1.71407e-08
1.70312e-08
1.69111e-08
1.67898e-08
1.66779e-08
1.65743e-08
1.6464e-08
1.63374e-08
1.61996e-08
1.6064e-08
1.5935e-08
1.58062e-08
1.56728e-08
1.55385e-08
1.54141e-08
1.53058e-08
1.52062e-08
1.51031e-08
1.4996e-08
1.48953e-08
1.48063e-08
1.47283e-08
1.46594e-08
1.45985e-08
1.45457e-08
1.45022e-08
1.44693e-08
1.44445e-08
1.44251e-08
1.44136e-08
1.44131e-08
1.44212e-08
1.44319e-08
1.44428e-08
1.44578e-08
1.44817e-08
1.45169e-08
1.45569e-08
1.45904e-08
1.46134e-08
1.46337e-08
1.46566e-08
1.46813e-08
1.47047e-08
1.47241e-08
1.47378e-08
1.47472e-08
1.47542e-08
1.47574e-08
1.47557e-08
1.47492e-08
1.47397e-08
1.47297e-08
1.47199e-08
1.47085e-08
1.46926e-08
1.46717e-08
1.46488e-08
1.46261e-08
1.46036e-08
1.45811e-08
1.45555e-08
1.45258e-08
1.4494e-08
1.44612e-08
1.44273e-08
1.43936e-08
1.43628e-08
1.43323e-08
1.42965e-08
1.42512e-08
1.42005e-08
1.41542e-08
1.41154e-08
1.40733e-08
1.40204e-08
1.39614e-08
1.3904e-08
1.38513e-08
1.3801e-08
1.37501e-08
1.37023e-08
1.36545e-08
1.3597e-08
1.3528e-08
1.34623e-08
1.34041e-08
1.33486e-08
1.32929e-08
1.32356e-08
1.31739e-08
1.31094e-08
1.30496e-08
1.2994e-08
1.29358e-08
1.28703e-08
1.28048e-08
1.27423e-08
1.26814e-08
1.2622e-08
1.25697e-08
1.25179e-08
1.24612e-08
1.24017e-08
1.23392e-08
1.2282e-08
1.22293e-08
1.21946e-08
1.21561e-08
1.21111e-08
1.20461e-08
1.2004e-08
1.19662e-08
1.19304e-08
1.18872e-08
1.18222e-08
1.17798e-08
1.17177e-08
1.1675e-08
1.16437e-08
1.15675e-08
1.1535e-08
1.15573e-08
1.14645e-08
1.14862e-08
1.16034e-08
1.14279e-08
1.1523e-08
1.19688e-08
1.20354e-08
1.26571e-08
1.3521e-08
1.4514e-08
1.44765e-08
1.33701e-08
1.28628e-08
1.23775e-08
1.21386e-08
1.19653e-08
1.18635e-08
1.17583e-08
1.16269e-08
1.1582e-08
1.17111e-08
1.15442e-08
1.18846e-08
1.22751e-08
1.18299e-08
1.19507e-08
1.23061e-08
1.23854e-08
1.15093e-08
1.10977e-08
1.10038e-08
1.09248e-08
1.09183e-08
1.09093e-08
1.10189e-08
1.1073e-08
1.12096e-08
1.11842e-08
1.12227e-08
1.13564e-08
1.15497e-08
1.20478e-08
1.28804e-08
1.34969e-08
1.42775e-08
1.487e-08
1.53331e-08
1.69213e-08
1.94371e-08
1.95465e-08
1.60529e-08
1.35859e-08
1.25161e-08
1.21843e-08
1.20834e-08
1.20595e-08
1.20742e-08
1.21019e-08
1.21488e-08
1.22585e-08
1.24237e-08
1.26245e-08
1.27975e-08
1.28815e-08
1.29911e-08
1.32521e-08
1.35462e-08
1.36979e-08
1.3796e-08
1.39193e-08
1.40653e-08
1.41109e-08
1.41108e-08
1.42231e-08
1.4472e-08
1.46822e-08
1.48085e-08
1.48216e-08
1.48374e-08
1.48894e-08
1.49263e-08
1.50196e-08
1.52116e-08
1.54359e-08
1.55305e-08
1.54587e-08
1.5303e-08
1.51808e-08
1.51796e-08
1.52503e-08
1.53704e-08
1.54342e-08
1.54673e-08
1.55317e-08
1.55673e-08
1.5562e-08
1.5568e-08
1.5637e-08
1.57648e-08
1.59195e-08
1.60596e-08
1.61474e-08
1.61891e-08
1.61922e-08
1.61895e-08
1.62031e-08
1.62303e-08
1.62679e-08
1.63159e-08
1.63561e-08
1.63825e-08
1.63956e-08
1.64227e-08
1.64618e-08
1.65181e-08
1.65586e-08
1.65884e-08
1.6587e-08
1.66037e-08
1.66446e-08
1.66795e-08
1.67151e-08
1.67471e-08
1.67592e-08
1.67279e-08
1.66149e-08
1.64026e-08
1.60311e-08
1.49179e-08
1.27402e-08
1.26055e-08
1.82868e-08
2.34322e-08
2.54569e-08
2.39333e-08
2.0165e-08
1.68682e-08
1.47937e-08
1.37517e-08
1.34544e-08
1.37655e-08
1.47033e-08
1.64494e-08
1.98641e-08
2.55907e-08
3.46224e-08
4.80166e-08
6.6227e-08
8.93874e-08
1.16003e-07
1.40018e-07
1.54578e-07
1.62479e-07
1.76866e-07
2.09869e-07
2.84764e-07
4.61438e-07
8.34813e-07
1.42414e-06
2.05727e-06
2.45636e-06
2.64942e-06
2.66832e-06
2.61386e-06
2.61291e-06
2.66142e-06
2.7146e-06
2.81253e-06
2.93492e-06
2.86638e-06
2.38674e-06
1.64606e-06
1.01093e-06
6.76324e-07
5.49519e-07
4.51452e-07
3.20419e-07
2.16563e-07
1.82085e-07
2.03831e-07
2.14305e-07
1.81094e-07
1.25285e-07
8.08028e-08
5.51871e-08
4.3544e-08
4.09769e-08
4.70538e-08
6.09096e-08
7.9291e-08
9.90674e-08
1.15323e-07
1.3103e-07
1.4699e-07
1.49947e-07
1.34188e-07
1.07789e-07
8.15107e-08
6.04328e-08
4.75593e-08
4.24406e-08
4.43829e-08
5.2545e-08
6.16179e-08
7.18143e-08
8.1189e-08
9.14992e-08
1.10594e-07
1.56119e-07
1.96917e-07
2.67744e-07
3.37052e-07
3.54439e-07
3.87369e-07
4.32856e-07
4.8677e-07
5.49225e-07
5.70716e-07
5.23601e-07
4.46478e-07
3.52749e-07
2.73307e-07
2.10914e-07
1.57149e-07
1.20965e-07
1.01094e-07
9.28882e-08
9.38391e-08
1.0747e-07
1.37672e-07
1.51724e-07
1.62105e-07
1.75369e-07
1.61638e-07
1.49411e-07
1.33352e-07
1.07911e-07
8.12857e-08
5.61555e-08
4.35261e-08
3.54461e-08
2.84402e-08
2.42432e-08
2.08356e-08
1.92937e-08
1.90455e-08
2.09978e-08
2.46729e-08
2.4428e-08
2.43854e-08
2.34981e-08
2.14375e-08
2.03784e-08
1.97678e-08
1.83988e-08
1.71977e-08
1.63948e-08
1.58961e-08
1.55079e-08
1.52463e-08
1.50732e-08
1.49573e-08
1.487e-08
1.48393e-08
1.48695e-08
1.4956e-08
1.50648e-08
1.51669e-08
1.52459e-08
1.53277e-08
1.54352e-08
1.55647e-08
1.56849e-08
1.57623e-08
1.58034e-08
1.58548e-08
1.59515e-08
1.60982e-08
1.62413e-08
1.63281e-08
1.63816e-08
1.64669e-08
1.66069e-08
1.67611e-08
1.68959e-08
1.70155e-08
1.71428e-08
1.72891e-08
1.74437e-08
1.75843e-08
1.77001e-08
1.78004e-08
1.7903e-08
1.80349e-08
1.82027e-08
1.83477e-08
1.84166e-08
1.84498e-08
1.8532e-08
1.86729e-08
1.87768e-08
1.8774e-08
1.87104e-08
1.86532e-08
1.86538e-08
1.87378e-08
1.88217e-08
1.88184e-08
1.87013e-08
1.8486e-08
1.82718e-08
1.81002e-08
1.79735e-08
1.79193e-08
1.78492e-08
1.76621e-08
1.73852e-08
1.71239e-08
1.69356e-08
1.67867e-08
1.66282e-08
1.64109e-08
1.6134e-08
1.58415e-08
1.55868e-08
1.54057e-08
1.52637e-08
1.50955e-08
1.48558e-08
1.45661e-08
1.43056e-08
1.41012e-08
1.39261e-08
1.37442e-08
1.35377e-08
1.33249e-08
1.31439e-08
1.30026e-08
1.28688e-08
1.26834e-08
1.24664e-08
1.22893e-08
1.21491e-08
1.20378e-08
1.19516e-08
1.18538e-08
1.17278e-08
1.15831e-08
1.14569e-08
1.13585e-08
1.12793e-08
1.12173e-08
1.11565e-08
1.10858e-08
1.10067e-08
1.09286e-08
1.08648e-08
1.08149e-08
1.07776e-08
1.07436e-08
1.07017e-08
1.06545e-08
1.06093e-08
1.05743e-08
1.05485e-08
1.05284e-08
1.05112e-08
1.04946e-08
1.04782e-08
1.04613e-08
1.04448e-08
1.04299e-08
1.04187e-08
1.04121e-08
1.04086e-08
1.04077e-08
1.04063e-08
1.04019e-08
1.0396e-08
1.03938e-08
1.0395e-08
1.0398e-08
1.04018e-08
1.04052e-08
1.04075e-08
1.04104e-08
1.04148e-08
1.04201e-08
1.0425e-08
1.04289e-08
1.0433e-08
1.04375e-08
1.04429e-08
1.04501e-08
1.04582e-08
1.04646e-08
1.04675e-08
1.04677e-08
1.04688e-08
1.04721e-08
1.04773e-08
1.04832e-08
1.0489e-08
1.04935e-08
1.04959e-08
1.04966e-08
1.04969e-08
1.04977e-08
1.04993e-08
1.0502e-08
1.0506e-08
1.05102e-08
1.05122e-08
1.05114e-08
1.05098e-08
1.05094e-08
1.05104e-08
1.05119e-08
1.05135e-08
1.05147e-08
1.05147e-08
1.05134e-08
1.05116e-08
1.051e-08
1.05088e-08
1.05079e-08
1.05071e-08
1.0506e-08
1.05039e-08
1.05006e-08
1.04966e-08
1.04929e-08
1.04899e-08
1.04868e-08
1.04825e-08
1.04768e-08
1.04705e-08
1.04646e-08
1.04592e-08
1.04532e-08
1.04466e-08
1.04402e-08
1.0435e-08
1.04305e-08
1.04257e-08
1.04198e-08
1.04139e-08
1.04087e-08
1.04046e-08
1.04012e-08
1.03984e-08
1.03959e-08
1.03939e-08
1.03926e-08
1.03918e-08
1.03916e-08
1.03922e-08
1.03936e-08
1.03953e-08
1.03966e-08
1.03978e-08
1.03994e-08
1.04016e-08
1.04043e-08
1.04066e-08
1.0408e-08
1.04083e-08
1.04081e-08
1.04085e-08
1.0409e-08
1.04092e-08
1.0409e-08
1.04081e-08
1.04063e-08
1.0404e-08
1.04021e-08
1.04001e-08
1.03976e-08
1.03949e-08
1.03924e-08
1.03902e-08
1.03878e-08
1.03851e-08
1.03824e-08
1.03799e-08
1.03775e-08
1.03754e-08
1.03732e-08
1.03709e-08
1.03686e-08
1.03661e-08
1.03637e-08
1.03613e-08
1.0359e-08
1.03569e-08
1.03548e-08
1.03521e-08
1.03488e-08
1.03451e-08
1.03417e-08
1.03388e-08
1.03354e-08
1.0331e-08
1.03259e-08
1.03207e-08
1.0316e-08
1.03116e-08
1.03071e-08
1.03026e-08
1.02979e-08
1.02929e-08
1.02875e-08
1.02823e-08
1.02776e-08
1.02732e-08
1.02686e-08
1.02639e-08
1.0259e-08
1.02542e-08
1.02496e-08
1.02452e-08
1.02406e-08
1.02358e-08
1.02312e-08
1.02269e-08
1.02225e-08
1.02181e-08
1.0214e-08
1.02101e-08
1.02062e-08
1.02024e-08
1.01981e-08
1.0194e-08
1.01903e-08
1.01878e-08
1.0185e-08
1.01824e-08
1.01787e-08
1.0177e-08
1.01739e-08
1.01708e-08
1.01682e-08
1.01647e-08
1.01648e-08
1.01611e-08
1.01626e-08
1.01608e-08
1.01545e-08
1.01556e-08
1.01647e-08
1.01612e-08
1.01629e-08
1.01749e-08
1.01755e-08
1.01964e-08
1.02396e-08
1.0264e-08
1.02972e-08
1.03291e-08
1.03702e-08
1.03366e-08
1.02555e-08
1.02166e-08
1.0188e-08
1.0167e-08
1.01625e-08
1.0163e-08
1.0165e-08
1.01596e-08
1.01682e-08
1.01823e-08
1.01716e-08
1.01752e-08
1.01875e-08
1.01591e-08
1.01323e-08
1.01148e-08
1.01248e-08
1.0111e-08
1.0105e-08
1.01037e-08
1.01045e-08
1.01062e-08
1.01086e-08
1.01121e-08
1.01147e-08
1.01203e-08
1.01291e-08
1.01552e-08
1.02024e-08
1.02673e-08
1.03621e-08
1.04815e-08
1.05416e-08
1.06365e-08
1.0729e-08
1.07905e-08
1.07833e-08
1.098e-08
1.08386e-08
1.05087e-08
1.03155e-08
1.024e-08
1.02117e-08
1.01974e-08
1.01879e-08
1.0179e-08
1.01684e-08
1.01598e-08
1.01555e-08
1.01552e-08
1.01566e-08
1.01582e-08
1.01584e-08
1.01625e-08
1.01716e-08
1.01808e-08
1.01864e-08
1.01911e-08
1.01981e-08
1.02055e-08
1.02094e-08
1.02122e-08
1.02193e-08
1.02312e-08
1.02416e-08
1.02489e-08
1.02526e-08
1.02554e-08
1.02591e-08
1.02632e-08
1.02705e-08
1.02822e-08
1.02947e-08
1.03003e-08
1.02985e-08
1.02922e-08
1.02876e-08
1.02883e-08
1.02922e-08
1.02979e-08
1.03015e-08
1.03039e-08
1.03083e-08
1.0312e-08
1.03139e-08
1.03161e-08
1.03211e-08
1.0329e-08
1.03381e-08
1.03464e-08
1.03522e-08
1.03554e-08
1.03567e-08
1.03574e-08
1.03584e-08
1.03601e-08
1.03624e-08
1.03654e-08
1.03679e-08
1.03695e-08
1.03706e-08
1.03723e-08
1.03749e-08
1.03783e-08
1.03804e-08
1.03818e-08
1.03818e-08
1.0383e-08
1.03852e-08
1.03869e-08
1.03883e-08
1.039e-08
1.03909e-08
1.03899e-08
1.03867e-08
1.03794e-08
1.03576e-08
1.02931e-08
1.01659e-08
1.15749e-08
1.49685e-08
1.81597e-08
1.92927e-08
1.80495e-08
1.58233e-08
1.39758e-08
1.28374e-08
1.23309e-08
1.23879e-08
1.30994e-08
1.47539e-08
1.78567e-08
2.3283e-08
3.2298e-08
4.66558e-08
6.84501e-08
1.00625e-07
1.48048e-07
2.12999e-07
2.82583e-07
3.38506e-07
3.89509e-07
4.6785e-07
6.20575e-07
9.08668e-07
1.38529e-06
2.00126e-06
2.54774e-06
2.83097e-06
2.82637e-06
2.66014e-06
2.47067e-06
2.38631e-06
2.40811e-06
2.44005e-06
2.46828e-06
2.51889e-06
2.52837e-06
2.26828e-06
1.63452e-06
9.72762e-07
5.3236e-07
3.31079e-07
2.60467e-07
2.08239e-07
1.43911e-07
9.64666e-08
7.81303e-08
8.26997e-08
8.60397e-08
7.52755e-08
5.44423e-08
3.74318e-08
2.79317e-08
2.37018e-08
2.27073e-08
2.3964e-08
2.63496e-08
2.77268e-08
2.82466e-08
2.87493e-08
3.12861e-08
4.00898e-08
5.04394e-08
5.26434e-08
4.79259e-08
4.05704e-08
3.18791e-08
2.56394e-08
2.29124e-08
2.25853e-08
2.47241e-08
2.8563e-08
3.29306e-08
3.75432e-08
4.38227e-08
5.20164e-08
6.56183e-08
8.33791e-08
1.07012e-07
1.54055e-07
2.02177e-07
2.78795e-07
3.33622e-07
3.45855e-07
3.69102e-07
4.03644e-07
4.35114e-07
4.72409e-07
5.09603e-07
4.92993e-07
4.28729e-07
3.22597e-07
2.25589e-07
1.59192e-07
1.12828e-07
8.68985e-08
7.64191e-08
7.337e-08
7.04698e-08
6.98772e-08
7.4679e-08
7.47422e-08
7.329e-08
7.11156e-08
6.13634e-08
5.05545e-08
3.99757e-08
3.32468e-08
2.87366e-08
2.5115e-08
2.20108e-08
1.96866e-08
1.78187e-08
1.63939e-08
1.51704e-08
1.42446e-08
1.3483e-08
1.32886e-08
1.3385e-08
1.3155e-08
1.30004e-08
1.28203e-08
1.25421e-08
1.24973e-08
1.23584e-08
1.19891e-08
1.16429e-08
1.14603e-08
1.12989e-08
1.11672e-08
1.10608e-08
1.09891e-08
1.09475e-08
1.09311e-08
1.09321e-08
1.09436e-08
1.09539e-08
1.0965e-08
1.09805e-08
1.09997e-08
1.102e-08
1.10374e-08
1.1052e-08
1.10696e-08
1.10941e-08
1.11235e-08
1.11498e-08
1.11692e-08
1.11877e-08
1.12136e-08
1.12474e-08
1.12803e-08
1.13083e-08
1.13358e-08
1.13685e-08
1.14067e-08
1.14462e-08
1.14817e-08
1.15108e-08
1.15362e-08
1.15632e-08
1.15973e-08
1.16376e-08
1.16737e-08
1.16958e-08
1.17094e-08
1.17304e-08
1.17608e-08
1.17847e-08
1.17899e-08
1.17809e-08
1.17696e-08
1.17659e-08
1.17757e-08
1.17864e-08
1.17806e-08
1.17516e-08
1.17011e-08
1.16473e-08
1.15992e-08
1.15596e-08
1.15339e-08
1.15063e-08
1.14606e-08
1.13977e-08
1.13319e-08
1.1276e-08
1.12292e-08
1.1186e-08
1.11382e-08
1.10811e-08
1.10182e-08
1.09599e-08
1.09129e-08
1.08739e-08
1.08352e-08
1.07888e-08
1.07363e-08
1.06865e-08
1.06446e-08
1.06084e-08
1.05728e-08
1.05364e-08
1.05018e-08
1.04718e-08
1.04456e-08
1.04201e-08
1.03911e-08
1.03611e-08
1.03357e-08
1.0315e-08
1.02979e-08
1.02834e-08
1.02685e-08
1.02522e-08
1.02354e-08
1.02206e-08
1.02084e-08
1.01981e-08
1.01894e-08
1.01816e-08
1.01738e-08
1.0166e-08
1.01584e-08
1.01518e-08
1.01464e-08
1.01419e-08
1.01379e-08
1.01338e-08
1.01296e-08
1.01258e-08
1.01227e-08
1.01203e-08
1.01183e-08
1.01165e-08
1.01147e-08
1.0113e-08
1.01115e-08
1.01101e-08
1.0109e-08
1.01081e-08
1.01075e-08
1.0107e-08
1.01066e-08
1.01063e-08
1.01059e-08
1.01057e-08
1.01056e-08
1.01056e-08
1.01057e-08
1.01058e-08
1.01059e-08
1.01059e-08
1.0106e-08
1.01062e-08
1.01066e-08
1.01069e-08
1.0107e-08
1.01069e-08
1.01071e-08
1.01075e-08
1.0108e-08
1.01085e-08
1.0109e-08
1.01094e-08
1.01095e-08
1.01096e-08
1.01099e-08
1.01104e-08
1.01109e-08
1.01113e-08
1.01117e-08
1.0112e-08
1.01123e-08
1.01126e-08
1.01128e-08
1.01131e-08
1.01134e-08
1.01137e-08
1.01142e-08
1.01145e-08
1.01148e-08
1.01148e-08
1.0115e-08
1.01153e-08
1.01157e-08
1.0116e-08
1.01163e-08
1.01166e-08
1.01167e-08
1.01168e-08
1.01169e-08
1.0117e-08
1.0117e-08
1.0117e-08
1.01171e-08
1.01171e-08
1.0117e-08
1.01167e-08
1.01165e-08
1.01163e-08
1.01161e-08
1.01158e-08
1.01153e-08
1.01147e-08
1.01142e-08
1.01138e-08
1.01132e-08
1.01126e-08
1.01119e-08
1.01113e-08
1.01108e-08
1.01102e-08
1.01095e-08
1.01087e-08
1.0108e-08
1.01074e-08
1.01068e-08
1.01063e-08
1.01058e-08
1.01053e-08
1.01048e-08
1.01044e-08
1.01041e-08
1.01038e-08
1.01037e-08
1.01035e-08
1.01033e-08
1.01031e-08
1.0103e-08
1.0103e-08
1.0103e-08
1.01031e-08
1.0103e-08
1.01029e-08
1.01027e-08
1.01025e-08
1.01023e-08
1.01021e-08
1.01019e-08
1.01017e-08
1.01015e-08
1.01013e-08
1.01009e-08
1.01006e-08
1.01002e-08
1.00997e-08
1.00994e-08
1.0099e-08
1.00986e-08
1.00982e-08
1.00977e-08
1.00973e-08
1.00968e-08
1.00964e-08
1.0096e-08
1.00956e-08
1.00951e-08
1.00946e-08
1.00942e-08
1.00938e-08
1.00933e-08
1.00929e-08
1.00925e-08
1.00921e-08
1.00917e-08
1.00912e-08
1.00908e-08
1.00905e-08
1.00901e-08
1.00896e-08
1.0089e-08
1.00885e-08
1.00881e-08
1.00877e-08
1.00872e-08
1.00867e-08
1.00863e-08
1.00858e-08
1.00853e-08
1.00848e-08
1.00844e-08
1.00839e-08
1.00834e-08
1.00829e-08
1.00824e-08
1.00818e-08
1.00812e-08
1.00804e-08
1.00795e-08
1.00787e-08
1.00779e-08
1.00772e-08
1.00766e-08
1.00758e-08
1.00749e-08
1.0074e-08
1.00733e-08
1.00728e-08
1.00724e-08
1.00719e-08
1.00714e-08
1.00714e-08
1.00721e-08
1.00719e-08
1.00721e-08
1.00716e-08
1.00722e-08
1.00729e-08
1.00731e-08
1.00732e-08
1.00733e-08
1.00736e-08
1.00743e-08
1.00757e-08
1.00768e-08
1.00787e-08
1.00814e-08
1.00846e-08
1.00854e-08
1.00846e-08
1.00835e-08
1.00828e-08
1.00834e-08
1.00842e-08
1.00838e-08
1.00827e-08
1.00839e-08
1.00804e-08
1.0077e-08
1.00772e-08
1.00784e-08
1.00793e-08
1.00821e-08
1.00857e-08
1.00892e-08
1.00925e-08
1.00935e-08
1.00921e-08
1.00862e-08
1.00803e-08
1.00744e-08
1.00727e-08
1.00706e-08
1.0069e-08
1.00682e-08
1.00685e-08
1.00692e-08
1.00705e-08
1.0072e-08
1.0076e-08
1.00807e-08
1.00862e-08
1.00975e-08
1.01195e-08
1.01574e-08
1.02055e-08
1.02616e-08
1.02732e-08
1.02575e-08
1.02419e-08
1.02312e-08
1.0217e-08
1.02122e-08
1.01888e-08
1.01511e-08
1.01268e-08
1.01094e-08
1.0097e-08
1.00901e-08
1.00863e-08
1.00839e-08
1.00821e-08
1.00805e-08
1.00789e-08
1.00773e-08
1.00757e-08
1.00744e-08
1.00731e-08
1.0072e-08
1.00709e-08
1.00701e-08
1.00696e-08
1.00697e-08
1.00699e-08
1.00697e-08
1.00694e-08
1.00695e-08
1.00697e-08
1.00698e-08
1.00701e-08
1.00706e-08
1.00713e-08
1.00719e-08
1.00724e-08
1.00727e-08
1.00729e-08
1.00732e-08
1.00737e-08
1.00743e-08
1.0075e-08
1.00757e-08
1.0076e-08
1.0076e-08
1.00758e-08
1.00757e-08
1.00759e-08
1.00761e-08
1.00765e-08
1.00767e-08
1.0077e-08
1.00773e-08
1.00777e-08
1.00779e-08
1.00782e-08
1.00786e-08
1.00791e-08
1.00796e-08
1.008e-08
1.00804e-08
1.00806e-08
1.00808e-08
1.00809e-08
1.0081e-08
1.00811e-08
1.00812e-08
1.00814e-08
1.00815e-08
1.00816e-08
1.00816e-08
1.00817e-08
1.00819e-08
1.00821e-08
1.00822e-08
1.00822e-08
1.00823e-08
1.00823e-08
1.00824e-08
1.00825e-08
1.00826e-08
1.00828e-08
1.00832e-08
1.00838e-08
1.00847e-08
1.00852e-08
1.00829e-08
1.00706e-08
1.00421e-08
1.08449e-08
1.26274e-08
1.43002e-08
1.48921e-08
1.42985e-08
1.32654e-08
1.23802e-08
1.1835e-08
1.16528e-08
1.18807e-08
1.27254e-08
1.46229e-08
1.8234e-08
2.45864e-08
3.5211e-08
5.17943e-08
7.60042e-08
1.09725e-07
1.54261e-07
2.04321e-07
2.56648e-07
3.14478e-07
3.86499e-07
4.83116e-07
6.19473e-07
8.30626e-07
1.13828e-06
1.42174e-06
1.5109e-06
1.40104e-06
1.28236e-06
1.2736e-06
1.35892e-06
1.48721e-06
1.60952e-06
1.68508e-06
1.7299e-06
1.7617e-06
1.71094e-06
1.36523e-06
8.45587e-07
4.49053e-07
2.34164e-07
1.4596e-07
1.15299e-07
9.07658e-08
6.38147e-08
4.5636e-08
3.84602e-08
3.94991e-08
4.05625e-08
3.65567e-08
2.88617e-08
2.24503e-08
1.86532e-08
1.67344e-08
1.59484e-08
1.57885e-08
1.57501e-08
1.54602e-08
1.52595e-08
1.54153e-08
1.60653e-08
1.84291e-08
2.26784e-08
2.51732e-08
2.53458e-08
2.35478e-08
2.0304e-08
1.75278e-08
1.61093e-08
1.57096e-08
1.60399e-08
1.71025e-08
1.88341e-08
2.13773e-08
2.51616e-08
2.98165e-08
3.54592e-08
4.18237e-08
4.98192e-08
6.32212e-08
8.57904e-08
1.17493e-07
1.60682e-07
2.01992e-07
2.55187e-07
3.06137e-07
3.37921e-07
3.27905e-07
3.42004e-07
3.56522e-07
3.62371e-07
3.57924e-07
3.12668e-07
2.60695e-07
1.96427e-07
1.39174e-07
1.0095e-07
7.25271e-08
5.65228e-08
4.87215e-08
4.33176e-08
3.8711e-08
3.56794e-08
3.48363e-08
3.28226e-08
2.95019e-08
2.64953e-08
2.39937e-08
2.20271e-08
2.02312e-08
1.89325e-08
1.79763e-08
1.70626e-08
1.61026e-08
1.52253e-08
1.4411e-08
1.36943e-08
1.30246e-08
1.24306e-08
1.19133e-08
1.15689e-08
1.14149e-08
1.12695e-08
1.11691e-08
1.10796e-08
1.09864e-08
1.10287e-08
1.09999e-08
1.08923e-08
1.07589e-08
1.06689e-08
1.05839e-08
1.05124e-08
1.04598e-08
1.04201e-08
1.03874e-08
1.03633e-08
1.03465e-08
1.03353e-08
1.03287e-08
1.03252e-08
1.03239e-08
1.03245e-08
1.0327e-08
1.03313e-08
1.03366e-08
1.03417e-08
1.03465e-08
1.03519e-08
1.03589e-08
1.03672e-08
1.03753e-08
1.03827e-08
1.03902e-08
1.03989e-08
1.04089e-08
1.04194e-08
1.04293e-08
1.04377e-08
1.04449e-08
1.04524e-08
1.04612e-08
1.04711e-08
1.04803e-08
1.0487e-08
1.04914e-08
1.04963e-08
1.05025e-08
1.05081e-08
1.05102e-08
1.05085e-08
1.05054e-08
1.05029e-08
1.05024e-08
1.05024e-08
1.04993e-08
1.04908e-08
1.04778e-08
1.04637e-08
1.045e-08
1.04375e-08
1.04275e-08
1.04177e-08
1.04056e-08
1.03902e-08
1.03733e-08
1.03575e-08
1.03436e-08
1.03312e-08
1.03192e-08
1.03062e-08
1.02921e-08
1.02786e-08
1.02668e-08
1.02565e-08
1.02471e-08
1.02372e-08
1.02267e-08
1.02163e-08
1.02071e-08
1.01991e-08
1.01916e-08
1.01843e-08
1.01775e-08
1.01714e-08
1.01657e-08
1.01603e-08
1.01548e-08
1.01495e-08
1.01448e-08
1.01406e-08
1.0137e-08
1.01337e-08
1.01305e-08
1.01274e-08
1.01244e-08
1.01216e-08
1.01191e-08
1.01168e-08
1.01147e-08
1.01128e-08
1.01111e-08
1.01094e-08
1.01078e-08
1.01062e-08
1.01048e-08
1.01035e-08
1.01023e-08
1.01012e-08
1.01001e-08
1.00991e-08
1.00981e-08
1.00973e-08
1.00965e-08
1.00958e-08
1.00951e-08
1.00944e-08
1.00939e-08
1.00933e-08
1.00928e-08
1.00923e-08
1.00919e-08
1.00915e-08
1.00912e-08
1.0091e-08
1.00907e-08
1.00905e-08
1.00902e-08