/*--------------------------------*- C++ -*----------------------------------*\
| =========                 |                                                 |
| \\      /  F ield         | OpenFOAM: The Open Source CFD Toolbox           |
|  \\    /   O peration     | Version:  v2006                                 |
|   \\  /    A nd           | Website:  www.openfoam.com                      |
|    \\/     M anipulation  |                                                 |
\*---------------------------------------------------------------------------*/
FoamFile
{
    version     2.0;
    format      ascii;
    class       volScalarField;
    location    "10";
    object      nut;
}
// * * * * * * * * * * * * * * * * * * * * * * * * * * * * * * * * * * * * * //

dimensions      [0 2 -1 0 0 0 0];


internalField   nonuniform List<scalar> 
33000
(
7.67479e-10
1.36645e-09
2.12428e-09
2.93483e-09
3.04425e-09
2.52274e-09
1.96593e-09
1.60608e-09
1.39305e-09
1.26887e-09
1.16355e-09
1.08485e-09
1.0602e-09
1.07159e-09
1.11266e-09
1.18008e-09
1.24613e-09
1.29322e-09
1.35134e-09
1.42572e-09
1.48566e-09
1.49888e-09
1.50076e-09
1.5524e-09
1.65227e-09
1.7697e-09
2.02023e-09
2.58532e-09
3.75294e-09
5.78252e-09
8.56249e-09
1.16842e-08
1.46895e-08
1.73591e-08
2.01306e-08
2.24128e-08
2.47663e-08
3.0771e-08
4.15042e-08
5.65867e-08
7.42646e-08
8.84842e-08
9.54941e-08
9.72824e-08
1.03112e-07
1.12283e-07
1.15023e-07
1.12356e-07
1.09759e-07
1.12019e-07
1.20662e-07
1.26907e-07
1.22943e-07
1.14595e-07
1.08332e-07
1.04807e-07
1.03942e-07
1.07111e-07
1.14936e-07
1.2445e-07
1.33035e-07
1.42935e-07
1.54309e-07
1.6403e-07
1.68288e-07
1.68924e-07
1.67553e-07
1.62862e-07
1.48394e-07
1.30145e-07
1.15566e-07
1.0673e-07
1.05385e-07
1.08547e-07
1.1177e-07
1.1496e-07
1.08495e-07
1.11917e-07
1.45784e-07
1.51071e-07
1.45049e-07
1.59142e-07
1.67545e-07
2.17001e-07
2.35816e-07
2.51114e-07
2.83299e-07
3.27212e-07
3.68658e-07
4.06782e-07
4.71409e-07
4.96805e-07
5.06138e-07
5.16641e-07
5.21439e-07
5.51568e-07
5.66768e-07
5.38474e-07
4.359e-07
3.49388e-07
3.51372e-07
4.66512e-07
7.98335e-07
7.77328e-07
5.15948e-07
3.93408e-07
3.58978e-07
3.37105e-07
3.26569e-07
3.55882e-07
3.65326e-07
3.55146e-07
3.45183e-07
3.34258e-07
3.20536e-07
3.04202e-07
2.76977e-07
2.50748e-07
2.36473e-07
2.3432e-07
2.33416e-07
2.2998e-07
2.23094e-07
2.21597e-07
2.24371e-07
2.28e-07
2.34404e-07
2.39108e-07
2.41635e-07
2.46349e-07
2.50682e-07
2.56851e-07
2.63946e-07
2.69323e-07
2.75229e-07
2.83775e-07
2.94507e-07
3.06322e-07
3.18413e-07
3.3235e-07
3.48573e-07
3.69065e-07
3.93649e-07
4.18229e-07
4.43076e-07
4.72478e-07
5.08332e-07
5.56287e-07
6.18779e-07
6.86727e-07
7.51191e-07
8.35668e-07
8.63766e-07
8.59375e-07
8.54569e-07
8.49208e-07
8.43274e-07
8.3685e-07
8.30067e-07
8.22913e-07
8.15286e-07
8.07197e-07
7.98698e-07
7.67101e-07
6.7318e-07
6.00895e-07
5.42898e-07
4.92109e-07
4.47361e-07
4.09345e-07
3.79702e-07
3.54728e-07
3.31099e-07
3.09534e-07
2.90475e-07
2.73638e-07
2.60063e-07
2.49117e-07
2.39031e-07
2.29303e-07
2.2004e-07
2.11921e-07
2.04878e-07
1.98731e-07
1.94119e-07
1.90519e-07
1.86859e-07
1.83255e-07
1.80469e-07
1.78757e-07
1.7791e-07
1.776e-07
1.77442e-07
1.77608e-07
1.78133e-07
1.79332e-07
1.81869e-07
1.85862e-07
1.90842e-07
1.95875e-07
2.00937e-07
2.07047e-07
2.14681e-07
2.24191e-07
2.35497e-07
2.47505e-07
2.60161e-07
2.74679e-07
2.93859e-07
3.18244e-07
3.42693e-07
3.6811e-07
3.98674e-07
4.33037e-07
4.76089e-07
5.344e-07
5.66994e-07
5.70621e-07
5.73889e-07
5.77195e-07
5.80798e-07
5.84719e-07
5.88811e-07
5.92768e-07
5.96257e-07
5.99197e-07
6.01835e-07
6.04422e-07
6.07095e-07
6.09818e-07
6.12288e-07
6.14163e-07
6.15358e-07
6.16146e-07
6.16799e-07
6.17385e-07
6.17844e-07
6.18053e-07
6.17986e-07
6.17629e-07
6.04325e-07
5.78154e-07
5.56813e-07
5.36046e-07
5.17103e-07
4.99228e-07
4.80543e-07
4.63715e-07
4.50938e-07
4.39169e-07
4.27067e-07
4.15828e-07
4.04578e-07
3.93346e-07
3.83181e-07
3.74273e-07
3.6571e-07
3.57092e-07
3.48526e-07
3.40393e-07
3.32469e-07
3.24988e-07
3.18133e-07
3.1152e-07
3.04851e-07
2.97882e-07
2.90643e-07
2.84147e-07
2.784e-07
2.72502e-07
2.6668e-07
2.61132e-07
2.55718e-07
2.50101e-07
2.44387e-07
2.38988e-07
2.33971e-07
2.2901e-07
2.24078e-07
2.19366e-07
2.14946e-07
2.10557e-07
2.05924e-07
2.01291e-07
1.97081e-07
1.93146e-07
1.8916e-07
1.85247e-07
1.81552e-07
1.77964e-07
1.74317e-07
1.70668e-07
1.6721e-07
1.63913e-07
1.60661e-07
1.57545e-07
1.54598e-07
1.51659e-07
1.48769e-07
1.46063e-07
1.4351e-07
1.41156e-07
1.39045e-07
1.37002e-07
1.34971e-07
1.33069e-07
1.31411e-07
1.30052e-07
1.28838e-07
1.2777e-07
1.26948e-07
1.26456e-07
1.26298e-07
1.26379e-07
1.26655e-07
1.27125e-07
1.27844e-07
1.28865e-07
1.30173e-07
1.31712e-07
1.33483e-07
1.35462e-07
1.37654e-07
1.40083e-07
1.4271e-07
1.45509e-07
1.48478e-07
1.51647e-07
1.54979e-07
1.58353e-07
1.61755e-07
1.65226e-07
1.6881e-07
1.72458e-07
1.76093e-07
1.79593e-07
1.81143e-07
1.81722e-07
1.82293e-07
1.82846e-07
1.83365e-07
1.83839e-07
1.84263e-07
1.84634e-07
1.84951e-07
1.85207e-07
1.85401e-07
1.85534e-07
1.85605e-07
1.85614e-07
1.85559e-07
1.85436e-07
1.85241e-07
1.8497e-07
1.84626e-07
1.8421e-07
1.83725e-07
1.83173e-07
1.82551e-07
1.81863e-07
1.81112e-07
1.80299e-07
1.79428e-07
1.78502e-07
1.77525e-07
1.76502e-07
1.75429e-07
1.74306e-07
1.7314e-07
1.71941e-07
1.70716e-07
1.69458e-07
1.68159e-07
1.66828e-07
1.65468e-07
1.64085e-07
1.62678e-07
1.61245e-07
1.5979e-07
1.58312e-07
1.56803e-07
1.55266e-07
1.53716e-07
1.52155e-07
1.50582e-07
1.48995e-07
1.47401e-07
1.45794e-07
1.44185e-07
1.4258e-07
1.40977e-07
1.39373e-07
1.37769e-07
1.36174e-07
1.34582e-07
1.32995e-07
1.31413e-07
1.29845e-07
1.28279e-07
1.26723e-07
1.25171e-07
1.23638e-07
1.22123e-07
1.20637e-07
1.19185e-07
1.1775e-07
1.16327e-07
1.1493e-07
1.13593e-07
1.12288e-07
1.11032e-07
1.09786e-07
1.08569e-07
1.07388e-07
1.06242e-07
1.05134e-07
1.04043e-07
1.02957e-07
1.01875e-07
1.00822e-07
9.98358e-08
9.88621e-08
9.79299e-08
9.67734e-08
9.53816e-08
9.42594e-08
9.37239e-08
9.25113e-08
9.28032e-08
9.18066e-08
8.55406e-08
8.62002e-08
8.7796e-08
8.76807e-08
8.73472e-08
8.65548e-08
8.56204e-08
8.47403e-08
8.43224e-08
8.4436e-08
8.48681e-08
8.37856e-08
8.29095e-08
8.05354e-08
7.9178e-08
7.6856e-08
7.56685e-08
7.42245e-08
6.96866e-08
6.37439e-08
6.19541e-08
6.20911e-08
6.25612e-08
6.37751e-08
6.39165e-08
6.46689e-08
6.40328e-08
6.40387e-08
6.28606e-08
6.42432e-08
6.7687e-08
6.97875e-08
6.8487e-08
6.68485e-08
5.75239e-08
5.88316e-08
5.26305e-08
5.28163e-08
5.51443e-08
4.75593e-08
4.44674e-08
4.30047e-08
4.37964e-08
4.51873e-08
4.73184e-08
5.03564e-08
5.32966e-08
5.5818e-08
5.77018e-08
5.92683e-08
6.10503e-08
6.27146e-08
6.41821e-08
6.55129e-08
6.65913e-08
6.76661e-08
6.90146e-08
7.04553e-08
7.1819e-08
7.31726e-08
7.46555e-08
7.62813e-08
7.78392e-08
7.9363e-08
8.11783e-08
8.33152e-08
8.56585e-08
8.81028e-08
9.05887e-08
9.3332e-08
9.634e-08
9.95149e-08
1.03014e-07
1.07097e-07
1.11882e-07
1.17209e-07
1.22934e-07
1.29002e-07
1.35706e-07
1.43437e-07
1.52575e-07
1.6348e-07
1.76038e-07
1.90879e-07
2.09058e-07
2.31221e-07
2.3697e-07
2.36729e-07
2.36578e-07
2.36523e-07
2.36706e-07
2.37173e-07
2.37838e-07
2.38631e-07
2.39525e-07
2.40521e-07
2.41614e-07
2.42794e-07
2.44051e-07
2.20568e-07
1.96172e-07
1.76492e-07
1.60243e-07
1.46649e-07
1.35024e-07
1.25192e-07
1.16504e-07
1.09327e-07
1.02704e-07
9.72886e-08
9.18614e-08
8.75777e-08
8.36491e-08
7.96323e-08
7.61633e-08
7.24512e-08
6.99527e-08
6.27472e-08
4.52023e-08
3.61538e-08
4.84646e-09
8.68168e-09
2.05065e-08
3.23548e-08
3.38613e-08
2.12844e-08
9.69611e-09
6.78586e-09
5.42133e-09
5.11217e-09
5.03199e-09
5.64978e-09
8.78949e-09
1.44973e-08
1.57319e-08
1.67648e-08
1.99514e-08
2.50036e-08
3.17927e-08
3.9627e-08
4.96292e-08
6.79534e-08
8.22042e-08
8.11774e-08
8.17964e-08
8.69087e-08
1.0303e-07
1.40447e-07
2.02684e-07
2.79473e-07
3.5522e-07
4.17549e-07
4.66618e-07
5.14851e-07
5.8677e-07
6.96768e-07
8.42636e-07
1.00884e-06
1.13736e-06
9.93691e-07
9.61333e-07
9.52669e-07
9.00392e-07
7.24224e-07
6.19881e-07
5.45441e-07
5.24128e-07
5.62453e-07
5.28338e-07
5.29596e-07
5.11245e-07
3.70844e-07
2.67628e-07
2.99286e-07
2.98749e-07
2.52193e-07
2.41398e-07
1.24648e-07
1.21362e-07
1.97738e-07
4.08125e-07
7.91958e-07
8.50872e-07
7.00374e-07
3.63978e-07
2.51818e-07
1.84621e-07
1.43099e-07
1.56146e-07
1.90267e-07
1.79121e-07
1.83208e-07
1.9506e-07
2.12109e-07
2.35096e-07
2.58396e-07
2.85002e-07
3.66499e-07
4.51507e-07
4.58274e-07
4.62586e-07
4.71922e-07
4.83545e-07
4.90222e-07
4.78505e-07
4.67952e-07
4.44547e-07
4.05441e-07
3.6171e-07
3.29332e-07
2.94646e-07
2.62645e-07
2.44612e-07
2.35166e-07
2.44582e-07
2.54079e-07
2.70377e-07
2.8281e-07
3.44569e-07
3.99524e-07
3.89636e-07
3.48214e-07
3.13407e-07
2.70746e-07
2.30429e-07
2.0218e-07
1.85084e-07
1.71711e-07
1.59388e-07
1.51123e-07
1.60284e-07
1.55673e-07
1.92953e-07
2.0954e-07
2.27743e-07
2.50389e-07
3.09726e-07
3.2493e-07
2.78167e-07
2.09729e-07
1.64727e-07
1.71232e-07
1.80674e-07
1.95659e-07
2.10898e-07
2.22311e-07
2.32343e-07
2.44972e-07
2.56172e-07
2.66366e-07
2.74628e-07
2.79721e-07
2.74304e-07
2.31711e-07
2.05937e-07
1.88941e-07
1.8089e-07
1.80012e-07
1.75135e-07
1.65223e-07
1.56531e-07
1.52344e-07
1.52862e-07
1.53075e-07
1.49193e-07
1.44455e-07
1.40625e-07
1.42949e-07
1.47906e-07
1.47635e-07
1.44461e-07
1.40089e-07
1.40651e-07
1.46832e-07
1.49953e-07
1.47428e-07
1.46016e-07
1.4847e-07
1.54164e-07
1.60515e-07
1.63378e-07
1.63654e-07
1.63909e-07
1.66364e-07
1.71595e-07
1.81104e-07
1.88471e-07
1.89189e-07
1.9084e-07
2.00191e-07
2.13215e-07
2.21071e-07
2.24441e-07
2.28681e-07
2.37075e-07
2.507e-07
2.73901e-07
2.77627e-07
2.76403e-07
2.74927e-07
2.74105e-07
2.7397e-07
2.74203e-07
2.75096e-07
2.75815e-07
2.75402e-07
2.7454e-07
2.74488e-07
2.75458e-07
2.76437e-07
2.76776e-07
2.76233e-07
2.75429e-07
2.74927e-07
2.74868e-07
2.75771e-07
2.77079e-07
2.778e-07
2.55086e-07
2.32138e-07
2.1132e-07
1.92147e-07
1.775e-07
1.68765e-07
1.60966e-07
1.51105e-07
1.40599e-07
1.32491e-07
1.29474e-07
1.28004e-07
1.24776e-07
1.20657e-07
1.17355e-07
1.14386e-07
1.12062e-07
1.10882e-07
1.09689e-07
1.10221e-07
1.10116e-07
1.09434e-07
1.09522e-07
1.09602e-07
1.09711e-07
1.09224e-07
1.09592e-07
1.12049e-07
1.13976e-07
1.15089e-07
1.15676e-07
1.16208e-07
1.18868e-07
1.2334e-07
1.26102e-07
1.28216e-07
1.30732e-07
1.30845e-07
1.30462e-07
1.33238e-07
1.39312e-07
1.4836e-07
1.56139e-07
1.5831e-07
1.60592e-07
1.64904e-07
1.68775e-07
1.74416e-07
1.85305e-07
1.95259e-07
2.05861e-07
2.12004e-07
2.14714e-07
2.21981e-07
2.30638e-07
2.3047e-07
2.29974e-07
2.29664e-07
2.29721e-07
2.2996e-07
2.30141e-07
2.30205e-07
2.3023e-07
2.30131e-07
2.3013e-07
2.30304e-07
2.30553e-07
2.30667e-07
2.30501e-07
2.3012e-07
2.2995e-07
2.29844e-07
2.29672e-07
2.29477e-07
2.29288e-07
2.29008e-07
2.28558e-07
2.28024e-07
2.27529e-07
2.27049e-07
2.26515e-07
2.25932e-07
2.25336e-07
2.24721e-07
2.24028e-07
2.23273e-07
2.2255e-07
2.21813e-07
2.21004e-07
2.20153e-07
2.19277e-07
2.18366e-07
2.17426e-07
2.16494e-07
2.15548e-07
2.14549e-07
2.1348e-07
2.12364e-07
2.11217e-07
2.10068e-07
2.08969e-07
2.07909e-07
2.06852e-07
2.05767e-07
2.04647e-07
2.0354e-07
2.02507e-07
2.01536e-07
2.00579e-07
1.99621e-07
1.97062e-07
1.91404e-07
1.8567e-07
1.7659e-07
1.69555e-07
1.65825e-07
1.65107e-07
1.66171e-07
1.64869e-07
1.61978e-07
1.6161e-07
1.63451e-07
1.66566e-07
1.70897e-07
1.75226e-07
1.79929e-07
1.85389e-07
1.91414e-07
1.91058e-07
1.90632e-07
1.90178e-07
1.89752e-07
1.8935e-07
1.88913e-07
1.884e-07
1.87846e-07
1.87359e-07
1.87038e-07
1.86884e-07
1.86789e-07
1.86693e-07
1.86587e-07
1.86504e-07
1.86469e-07
1.86474e-07
1.86486e-07
1.86497e-07
1.86553e-07
1.86685e-07
1.86871e-07
1.87068e-07
1.87231e-07
1.87361e-07
1.87494e-07
1.8766e-07
1.87846e-07
1.88015e-07
1.88156e-07
1.88282e-07
1.8839e-07
1.88501e-07
1.88624e-07
1.88745e-07
1.88845e-07
1.88919e-07
1.88958e-07
1.88951e-07
1.88923e-07
1.88923e-07
1.88979e-07
1.89063e-07
1.891e-07
1.89072e-07
1.89073e-07
1.89177e-07
1.89343e-07
1.89487e-07
1.89575e-07
1.8962e-07
1.8965e-07
1.89652e-07
1.87008e-07
1.79543e-07
1.73701e-07
1.68866e-07
1.64786e-07
1.61263e-07
1.57419e-07
1.53712e-07
1.50545e-07
1.47924e-07
1.46113e-07
1.44249e-07
1.42575e-07
1.41146e-07
1.40504e-07
1.40037e-07
1.39623e-07
1.38811e-07
1.38573e-07
1.38581e-07
1.40048e-07
1.41912e-07
1.42994e-07
1.42686e-07
1.43698e-07
1.45463e-07
1.48903e-07
1.50785e-07
1.5301e-07
1.55293e-07
1.57795e-07
1.62075e-07
1.63935e-07
1.7176e-07
1.76552e-07
1.87032e-07
1.93665e-07
1.84999e-07
1.89711e-07
2.08271e-07
2.12793e-07
2.15564e-07
2.1529e-07
1.38635e-07
1.39201e-07
1.10394e-07
1.42345e-07
7.5084e-08
6.82546e-08
1.23849e-07
1.53503e-07
1.57781e-07
1.63837e-07
1.89208e-07
2.02118e-07
2.08836e-07
2.14281e-07
2.17562e-07
2.20613e-07
2.23397e-07
2.24446e-07
2.18946e-07
2.17155e-07
1.81359e-07
1.93624e-07
1.1165e-07
6.53155e-08
6.27559e-08
7.95562e-08
1.49727e-07
1.4425e-07
1.46032e-07
1.62719e-07
2.68737e-07
2.22756e-07
2.34419e-07
1.74318e-07
2.50737e-07
2.48807e-07
2.45688e-07
7.56723e-08
7.1985e-08
5.37351e-08
5.73455e-08
3.23702e-08
2.79011e-08
1.56279e-08
1.15238e-08
1.57468e-08
1.87776e-08
2.17312e-08
1.87875e-08
1.98024e-08
2.33743e-08
2.74876e-08
3.2037e-08
3.83833e-08
5.29699e-08
7.77087e-08
1.04444e-07
1.17965e-07
1.43864e-07
1.73231e-07
1.86905e-07
1.82675e-07
1.49001e-07
1.27396e-07
1.22906e-07
1.19421e-07
1.14348e-07
1.06009e-07
1.00882e-07
9.73633e-08
9.2201e-08
8.72854e-08
8.40966e-08
8.1801e-08
7.93261e-08
7.59745e-08
7.35056e-08
7.20007e-08
6.98076e-08
6.71773e-08
6.47388e-08
6.28693e-08
6.17802e-08
6.04591e-08
5.91289e-08
5.73421e-08
5.57635e-08
5.46622e-08
5.40518e-08
5.34933e-08
5.26128e-08
5.15461e-08
5.03529e-08
4.915e-08
4.80304e-08
4.71462e-08
4.65194e-08
4.60795e-08
4.56509e-08
4.50589e-08
4.43689e-08
4.35745e-08
4.28339e-08
4.22415e-08
4.17111e-08
4.11956e-08
4.07277e-08
4.02956e-08
3.9901e-08
3.94993e-08
3.91178e-08
3.8693e-08
3.84621e-08
3.81251e-08
3.81552e-08
3.77035e-08
3.75364e-08
3.70896e-08
3.68161e-08
3.77993e-08
3.68288e-08
3.62968e-08
3.5039e-08
3.85905e-08
4.78159e-08
1.64345e-08
3.17369e-08
1.7876e-08
4.67528e-09
1.55533e-08
4.99545e-08
4.60743e-08
4.56324e-08
2.28886e-08
1.4293e-08
8.46774e-09
5.32413e-09
4.45679e-09
4.944e-09
7.9271e-09
3.02533e-08
3.12695e-08
2.33159e-08
3.08885e-08
4.56225e-08
8.21643e-08
1.48706e-07
1.60722e-07
1.65111e-07
1.59314e-07
1.48259e-07
1.43516e-07
1.53649e-07
1.90638e-07
2.81133e-07
4.51787e-07
6.73526e-07
8.69362e-07
9.82936e-07
1.04024e-06
1.05371e-06
1.0484e-06
1.05849e-06
1.09413e-06
1.16051e-06
1.27399e-06
1.4159e-06
1.50491e-06
1.45095e-06
1.25436e-06
9.97499e-07
8.12241e-07
7.36428e-07
6.60788e-07
5.37663e-07
4.2128e-07
3.77367e-07
4.15597e-07
4.35305e-07
3.85987e-07
2.48175e-07
1.61531e-07
1.10618e-07
8.08724e-08
6.93877e-08
7.24326e-08
1.12803e-07
2.29685e-07
2.68947e-07
2.9936e-07
3.25958e-07
3.49415e-07
3.42757e-07
2.99658e-07
2.05117e-07
1.32802e-07
9.90065e-08
1.02079e-07
1.26797e-07
1.45922e-07
1.58088e-07
1.68687e-07
1.80777e-07
1.92931e-07
2.06323e-07
2.29165e-07
2.75604e-07
3.07375e-07
3.51816e-07
3.81678e-07
3.76669e-07
3.8184e-07
3.94147e-07
4.0842e-07
4.23386e-07
4.17613e-07
3.84504e-07
3.42237e-07
2.9508e-07
2.54221e-07
2.21182e-07
1.90582e-07
1.68522e-07
1.56883e-07
1.54195e-07
1.5868e-07
1.74964e-07
2.05302e-07
2.12813e-07
2.12687e-07
2.13614e-07
1.97633e-07
1.84365e-07
1.69389e-07
1.48174e-07
1.26297e-07
1.04486e-07
9.46238e-08
8.93584e-08
8.52115e-08
8.46529e-08
9.03329e-08
7.71854e-08
9.94233e-08
1.33043e-07
1.46335e-07
1.43324e-07
1.38755e-07
1.32525e-07
1.24005e-07
7.13875e-08
5.13809e-08
6.73805e-08
1.23648e-07
1.44066e-07
1.66753e-07
8.00577e-08
7.47048e-08
8.35035e-08
7.46576e-08
7.77938e-08
6.39033e-08
5.64464e-08
4.99796e-08
4.59691e-08
4.6091e-08
4.45213e-08
4.46642e-08
4.34514e-08
4.23023e-08
4.05018e-08
3.9148e-08
3.79062e-08
3.70528e-08
3.76964e-08
3.95066e-08
3.95451e-08
3.77515e-08
3.66e-08
3.66973e-08
3.79534e-08
3.93514e-08
3.94521e-08
3.85146e-08
3.80727e-08
3.88515e-08
4.06266e-08
4.23044e-08
4.31512e-08
4.35798e-08
4.365e-08
4.43756e-08
4.59722e-08
4.81551e-08
5.02667e-08
5.15946e-08
5.24714e-08
5.43743e-08
5.69468e-08
5.99896e-08
6.28659e-08
6.46524e-08
6.71863e-08
7.04639e-08
7.49649e-08
8.22236e-08
9.00518e-08
9.67187e-08
1.02366e-07
1.09741e-07
1.20364e-07
1.33548e-07
1.59302e-07
2.16173e-07
2.66565e-07
2.71516e-07
2.76833e-07
2.81792e-07
2.78349e-07
2.29897e-07
1.78537e-07
1.48693e-07
1.24368e-07
1.07781e-07
9.67024e-08
8.5578e-08
7.54793e-08
6.69697e-08
6.19262e-08
5.83015e-08
5.51583e-08
5.28342e-08
4.97951e-08
4.59089e-08
4.28384e-08
4.19567e-08
4.25963e-08
4.19959e-08
4.0311e-08
3.93271e-08
3.84958e-08
3.79188e-08
3.83056e-08
3.89909e-08
3.91766e-08
3.9074e-08
3.90864e-08
3.94342e-08
4.06757e-08
4.25496e-08
4.34012e-08
4.37319e-08
4.3807e-08
4.46488e-08
4.65157e-08
4.83389e-08
5.03375e-08
5.22178e-08
5.46035e-08
5.74345e-08
5.90753e-08
6.11345e-08
6.2993e-08
6.35556e-08
6.52295e-08
6.93709e-08
7.59898e-08
8.20989e-08
8.53985e-08
8.52154e-08
8.57196e-08
8.82926e-08
9.32009e-08
1.02285e-07
1.13367e-07
1.16601e-07
1.16232e-07
1.17294e-07
1.17884e-07
1.25122e-07
1.4269e-07
1.53933e-07
1.56836e-07
1.53674e-07
1.49434e-07
1.52402e-07
1.64148e-07
1.84052e-07
1.93413e-07
1.90675e-07
1.91534e-07
1.98513e-07
2.06516e-07
2.11831e-07
2.18445e-07
2.27622e-07
2.37391e-07
2.39486e-07
2.34678e-07
2.40904e-07
2.74046e-07
3.15055e-07
3.28926e-07
3.17388e-07
3.02974e-07
3.06832e-07
3.3763e-07
3.88521e-07
4.50562e-07
5.10714e-07
5.82329e-07
6.19588e-07
6.82092e-07
7.72512e-07
8.20914e-07
9.50436e-07
1.25522e-06
1.2469e-06
1.09979e-06
8.84901e-07
8.67773e-07
7.71103e-07
5.52825e-07
4.14556e-07
3.378e-07
2.95217e-07
2.71601e-07
2.60006e-07
2.38814e-07
2.07346e-07
1.84808e-07
1.74496e-07
1.71386e-07
1.62976e-07
1.4782e-07
1.35691e-07
1.29904e-07
1.29368e-07
1.27401e-07
1.21517e-07
1.16694e-07
1.14541e-07
1.15457e-07
1.17413e-07
1.16387e-07
1.13971e-07
1.14052e-07
1.15827e-07
1.18623e-07
1.22489e-07
1.25757e-07
1.28848e-07
1.32237e-07
1.36739e-07
1.42558e-07
1.4962e-07
1.58856e-07
1.69129e-07
1.78984e-07
1.87758e-07
1.9733e-07
2.10455e-07
2.28085e-07
2.48052e-07
2.7052e-07
2.98538e-07
3.16732e-07
3.34048e-07
3.62052e-07
3.94747e-07
4.3751e-07
5.02959e-07
5.86372e-07
6.33592e-07
6.28917e-07
6.4028e-07
6.67708e-07
6.90721e-07
7.0705e-07
7.20392e-07
7.24759e-07
6.84514e-07
6.33224e-07
5.90691e-07
5.55276e-07
5.30909e-07
4.9791e-07
4.50075e-07
4.09738e-07
3.78841e-07
3.52176e-07
3.28076e-07
3.04774e-07
2.81048e-07
2.61186e-07
2.46071e-07
2.31995e-07
2.19156e-07
2.08479e-07
1.99602e-07
1.89161e-07
1.76951e-07
1.67165e-07
1.60766e-07
1.56077e-07
1.51287e-07
1.44736e-07
1.38028e-07
1.33248e-07
1.30325e-07
1.27705e-07
1.25401e-07
1.23625e-07
1.20858e-07
1.17597e-07
1.15388e-07
1.14436e-07
1.13817e-07
1.12636e-07
1.11241e-07
1.10857e-07
1.11076e-07
1.11943e-07
1.11975e-07
1.11746e-07
1.11205e-07
1.11503e-07
1.12394e-07
1.15312e-07
1.17446e-07
1.18844e-07
1.18993e-07
1.19922e-07
1.20454e-07
1.21553e-07
1.26672e-07
1.28965e-07
1.36146e-07
1.36414e-07
1.43334e-07
1.47414e-07
1.40911e-07
1.43093e-07
1.56705e-07
1.68999e-07
3.18356e-07
3.17607e-07
1.07555e-07
1.04071e-07
8.33115e-08
1.09563e-07
5.97273e-08
5.27788e-08
9.36878e-08
1.27006e-07
1.77272e-07
1.24725e-07
2.77847e-07
2.22633e-07
2.20127e-07
2.61668e-07
2.47518e-07
4.15886e-07
3.70801e-07
2.7347e-07
1.71202e-07
1.44062e-07
1.17695e-07
1.3662e-07
7.67649e-08
4.93215e-08
5.10176e-08
6.65292e-08
1.10187e-07
1.04236e-07
1.17142e-07
1.51514e-07
1.23735e-07
1.41734e-07
1.48365e-07
2.15344e-07
2.32132e-07
2.57066e-07
3.6606e-07
7.26029e-08
7.14174e-08
3.83101e-08
3.7894e-08
2.12503e-08
1.68813e-08
9.67781e-09
7.44187e-09
9.8101e-09
1.082e-08
1.30405e-08
1.23454e-08
1.81159e-08
2.74277e-08
2.37843e-08
2.48011e-08
3.1503e-08
3.91951e-08
4.41137e-08
4.77722e-08
5.78257e-08
7.5629e-08
9.06306e-08
9.92989e-08
1.1346e-07
1.26167e-07
1.31784e-07
1.18103e-07
9.78585e-08
9.12765e-08
9.14493e-08
8.80314e-08
8.19776e-08
7.58337e-08
7.22715e-08
6.92748e-08
6.5408e-08
6.23435e-08
6.05849e-08
5.89536e-08
5.7031e-08
5.41025e-08
5.18366e-08
5.0364e-08
4.87397e-08
4.71033e-08
4.58579e-08
4.48617e-08
4.36372e-08
4.19449e-08
4.0158e-08
3.85075e-08
3.73649e-08
3.65305e-08
3.60297e-08
3.5393e-08
3.45821e-08
3.39071e-08
3.32025e-08
3.23204e-08
3.1454e-08
3.08106e-08
3.03651e-08
3.00127e-08
2.96331e-08
2.91523e-08
2.86061e-08
2.80419e-08
2.75299e-08
2.70898e-08
2.66816e-08
2.62736e-08
2.59172e-08
2.55774e-08
2.52405e-08
2.48955e-08
2.46022e-08
2.43044e-08
2.41793e-08
2.39449e-08
2.38952e-08
2.35214e-08
2.33835e-08
2.3095e-08
2.2907e-08
2.34633e-08
2.28632e-08
2.25602e-08
2.17548e-08
2.39439e-08
2.98385e-08
1.05779e-08
2.19266e-08
1.42266e-08
5.05359e-09
1.60484e-08
6.12872e-08
5.57248e-08
5.06134e-08
1.88374e-08
1.31329e-08
1.19542e-08
9.1159e-09
8.54988e-09
1.03277e-08
1.11754e-08
2.7094e-08
1.34215e-07
9.8042e-08
1.56167e-07
1.67652e-07
1.79983e-07
1.96151e-07
2.1647e-07
2.35147e-07
2.48767e-07
2.65645e-07
2.99742e-07
3.68524e-07
4.91917e-07
6.76552e-07
8.86548e-07
1.05377e-06
1.13857e-06
1.14464e-06
1.10608e-06
1.05941e-06
1.04102e-06
1.05949e-06
1.09951e-06
1.16505e-06
1.26293e-06
1.36426e-06
1.38325e-06
1.24575e-06
1.00176e-06
7.4119e-07
5.65546e-07
4.92487e-07
4.34898e-07
3.53063e-07
2.78045e-07
2.42846e-07
2.52837e-07
2.60086e-07
2.38511e-07
1.7093e-07
8.81924e-08
5.62683e-08
4.35741e-08
4.70312e-08
8.41137e-08
1.35096e-07
1.39149e-07
1.41789e-07
1.44868e-07
1.52306e-07
1.73463e-07
1.92143e-07
1.87785e-07
1.69886e-07
1.19597e-07
6.25973e-08
4.98577e-08
5.72141e-08
7.49544e-08
1.1699e-07
1.4143e-07
1.52777e-07
1.6155e-07
1.71623e-07
1.8426e-07
2.05002e-07
2.28396e-07
2.52686e-07
2.91369e-07
3.1877e-07
3.57564e-07
3.75277e-07
3.66923e-07
3.65727e-07
3.71005e-07
3.7513e-07
3.80312e-07
3.84837e-07
3.6841e-07
3.3618e-07
2.88008e-07
2.39484e-07
2.01295e-07
1.70452e-07
1.51416e-07
1.4471e-07
1.44874e-07
1.43463e-07
1.43147e-07
1.47344e-07
1.45634e-07
1.4266e-07
1.38804e-07
1.27724e-07
1.15319e-07
1.03463e-07
9.41917e-08
8.77651e-08
8.44898e-08
8.29339e-08
7.85573e-08
9.00494e-08
9.48472e-08
1.04134e-07
6.58768e-08
8.06452e-08
1.4615e-07
9.25471e-08
7.40398e-08
7.86778e-08
1.54184e-07
1.09283e-07
4.21391e-08
3.03097e-08
4.74764e-08
1.58484e-07
1.05826e-07
1.90599e-07
4.91434e-08
4.0134e-08
3.79749e-08
3.66606e-08
3.34258e-08
3.53085e-08
3.55035e-08
3.15691e-08
3.01567e-08
3.0331e-08
2.92294e-08
2.82453e-08
2.65923e-08
2.57902e-08
2.54585e-08
2.63591e-08
2.72765e-08
2.64549e-08
2.5139e-08
2.42967e-08
2.47939e-08
2.58699e-08
2.59002e-08
2.55557e-08
2.54e-08
2.53724e-08
2.55611e-08
2.59992e-08
2.65736e-08
2.7126e-08
2.7664e-08
2.78613e-08
2.82322e-08
2.90949e-08
2.9985e-08
3.09174e-08
3.22238e-08
3.30004e-08
3.34679e-08
3.46028e-08
3.67208e-08
3.8996e-08
4.04531e-08
4.19564e-08
4.37717e-08
4.61226e-08
5.01142e-08
5.40151e-08
5.79735e-08
6.32858e-08
6.93168e-08
7.58844e-08
8.07159e-08
8.97706e-08
1.13776e-07
1.52482e-07
1.71434e-07
1.61746e-07
1.50246e-07
1.40404e-07
1.29939e-07
1.13256e-07
9.57584e-08
8.06782e-08
7.14465e-08
6.66379e-08
6.07766e-08
5.42195e-08
4.89872e-08
4.61707e-08
4.45155e-08
4.27612e-08
4.0732e-08
3.78712e-08
3.52507e-08
3.41372e-08
3.46423e-08
3.55217e-08
3.4641e-08
3.31999e-08
3.26087e-08
3.19045e-08
3.17302e-08
3.27476e-08
3.40882e-08
3.47783e-08
3.41684e-08
3.37521e-08
3.4166e-08
3.55196e-08
3.79888e-08
3.96321e-08
4.05552e-08
4.08116e-08
4.05647e-08
4.14887e-08
4.33078e-08
4.58651e-08
4.93509e-08
5.20557e-08
5.32554e-08
5.47135e-08
5.71262e-08
5.876e-08
5.99317e-08
6.2939e-08
6.83132e-08
7.46734e-08
7.81146e-08
7.90491e-08
7.92075e-08
8.094e-08
8.51131e-08
9.27892e-08
1.03798e-07
1.11749e-07
1.13309e-07
1.11353e-07
1.11201e-07
1.1437e-07
1.22202e-07
1.38866e-07
1.49921e-07
1.5033e-07
1.47819e-07
1.46794e-07
1.55309e-07
1.6678e-07
1.75252e-07
1.81457e-07
1.8197e-07
1.8066e-07
1.88827e-07
2.07948e-07
2.17369e-07
2.16618e-07
2.19435e-07
2.24081e-07
2.21488e-07
2.20645e-07
2.3302e-07
2.65009e-07
3.00948e-07
3.1637e-07
3.18897e-07
3.03287e-07
2.92229e-07
3.01523e-07
3.34583e-07
4.2428e-07
5.50246e-07
6.2973e-07
6.1586e-07
5.75469e-07
6.02548e-07
7.08344e-07
7.97852e-07
9.2868e-07
1.05244e-06
9.23799e-07
8.66035e-07
8.70347e-07
6.36918e-07
4.33745e-07
3.6053e-07
3.22532e-07
2.88292e-07
2.58191e-07
2.37335e-07
2.14649e-07
1.91624e-07
1.80315e-07
1.74622e-07
1.66135e-07
1.52188e-07
1.40556e-07
1.32996e-07
1.28922e-07
1.27362e-07
1.23452e-07
1.18812e-07
1.15531e-07
1.14029e-07
1.14264e-07
1.13928e-07
1.12291e-07
1.11074e-07
1.11709e-07
1.13263e-07
1.15681e-07
1.19169e-07
1.21916e-07
1.24609e-07
1.27737e-07
1.31899e-07
1.37074e-07
1.43129e-07
1.52098e-07
1.63332e-07
1.73348e-07
1.79981e-07
1.86808e-07
1.98321e-07
2.18113e-07
2.43019e-07
2.61204e-07
2.79183e-07
2.98132e-07
3.21072e-07
3.52231e-07
3.85259e-07
4.3407e-07
5.155e-07
6.08792e-07
6.50251e-07
6.34709e-07
6.5296e-07
6.95185e-07
7.22887e-07
7.35222e-07
7.57133e-07
7.75464e-07
7.01388e-07
6.20307e-07
5.71524e-07
5.38297e-07
5.13637e-07
4.71646e-07
4.19873e-07
3.84614e-07
3.58956e-07
3.34856e-07
3.11622e-07
2.88119e-07
2.65297e-07
2.47777e-07
2.33967e-07
2.20418e-07
2.07884e-07
1.97173e-07
1.88229e-07
1.79137e-07
1.68381e-07
1.60391e-07
1.54672e-07
1.49222e-07
1.4345e-07
1.37702e-07
1.32811e-07
1.29173e-07
1.25874e-07
1.2301e-07
1.20931e-07
1.19505e-07
1.16837e-07
1.13475e-07
1.11392e-07
1.10538e-07
1.10587e-07
1.09379e-07
1.07903e-07
1.07197e-07
1.08054e-07
1.09009e-07
1.09233e-07
1.08338e-07
1.08357e-07
1.0855e-07
1.09938e-07
1.11618e-07
1.1461e-07
1.156e-07
1.16553e-07
1.16353e-07
1.20046e-07
1.2176e-07
1.32186e-07
1.33059e-07
1.25138e-07
1.23066e-07
1.19454e-07
1.33449e-07
1.4066e-07
2.48408e-07
2.46627e-07
9.56826e-08
9.20603e-08
7.40966e-08
9.60465e-08
5.4529e-08
4.80427e-08
8.30868e-08
1.10436e-07
1.61918e-07
1.09637e-07
2.46688e-07
2.70327e-07
2.44097e-07
2.95409e-07
2.55913e-07
3.23771e-07
3.19969e-07
1.54095e-07
1.15181e-07
9.21364e-08
8.68664e-08
8.75575e-08
6.53754e-08
4.35408e-08
4.67836e-08
5.95483e-08
8.34667e-08
8.2251e-08
1.00941e-07
1.21171e-07
1.23586e-07
1.73646e-07
2.0226e-07
2.85302e-07
4.58382e-07
4.77504e-07
7.11974e-08
8.5331e-08
8.62204e-08
3.01958e-08
2.96066e-08
1.74415e-08
1.3941e-08
8.63813e-09
6.83361e-09
8.9704e-09
9.42009e-09
1.11639e-08
1.06375e-08
1.52908e-08
2.44309e-08
2.81691e-08
3.769e-08
3.57007e-08
3.32289e-08
3.92559e-08
4.68585e-08
4.91709e-08
4.91878e-08
5.10411e-08
5.89816e-08
6.97883e-08
7.75911e-08
8.34491e-08
9.11974e-08
9.66145e-08
9.67581e-08
8.94753e-08
8.33923e-08
8.3939e-08
8.52356e-08
8.18756e-08
7.51311e-08
6.98679e-08
6.69309e-08
6.43389e-08
6.12159e-08
5.87252e-08
5.74385e-08
5.59425e-08
5.37846e-08
5.1226e-08
4.90205e-08
4.74875e-08
4.63824e-08
4.53554e-08
4.4652e-08
4.41653e-08
4.29258e-08
4.12801e-08
3.92811e-08
3.77484e-08
3.6803e-08
3.60477e-08
3.53779e-08
3.44553e-08
3.3507e-08
3.27875e-08
3.21169e-08
3.1353e-08
3.06165e-08
3.00195e-08
2.95306e-08
2.90725e-08
2.8598e-08
2.80839e-08
2.75623e-08
2.70802e-08
2.66472e-08
2.62454e-08
2.58622e-08
2.54912e-08
2.51404e-08
2.47841e-08
2.44317e-08
2.40929e-08
2.38275e-08
2.35513e-08
2.34551e-08
2.32176e-08
2.30972e-08
2.2718e-08
2.26601e-08
2.24096e-08
2.21896e-08
2.2651e-08
2.20294e-08
2.16955e-08
2.09418e-08
2.31215e-08
2.88198e-08
1.03041e-08
2.14887e-08
1.42122e-08
5.98895e-09
1.18606e-08
4.65104e-08
7.36594e-08
3.35753e-08
1.61767e-08
1.3703e-08
1.73291e-08
1.99757e-08
2.04208e-08
1.13616e-08
1.19014e-08
3.28322e-08
1.61861e-07
1.69108e-07
1.77431e-07
1.87925e-07
2.02682e-07
2.23339e-07
2.46132e-07
2.69719e-07
2.96214e-07
3.30816e-07
3.78733e-07
4.47576e-07
5.51588e-07
6.91374e-07
8.12478e-07
8.61847e-07
8.38755e-07
8.00241e-07
7.93251e-07
8.19106e-07
8.64149e-07
9.17995e-07
9.73951e-07
1.04092e-06
1.12234e-06
1.18836e-06
1.14255e-06
9.63183e-07
7.27453e-07
5.13496e-07
3.84979e-07
3.33906e-07
2.94357e-07
2.44499e-07
2.02682e-07
1.82617e-07
1.8413e-07
1.86059e-07
1.75551e-07
1.12037e-07
5.80403e-08
4.01889e-08
3.5955e-08
4.21871e-08
6.83991e-08
8.37008e-08
6.43612e-08
6.58914e-08
7.61628e-08
1.39569e-07
1.17714e-07
1.32926e-07
1.46567e-07
1.42555e-07
1.27088e-07
5.49164e-08
3.62481e-08
3.50394e-08
3.74591e-08
5.48066e-08
1.49141e-07
1.52286e-07
1.57746e-07
1.32816e-07
1.52542e-07
1.83083e-07
1.93312e-07
2.02536e-07
2.1591e-07
2.37776e-07
2.64838e-07
2.95638e-07
3.16007e-07
3.40025e-07
3.59497e-07
3.66174e-07
3.48384e-07
3.44058e-07
3.41536e-07
3.34864e-07
3.26402e-07
3.00754e-07
2.73525e-07
2.39704e-07
2.05717e-07
1.79373e-07
1.55267e-07
1.39751e-07
1.32132e-07
1.26248e-07
1.20886e-07
1.17087e-07
1.15939e-07
1.1308e-07
1.08761e-07
1.055e-07
1.01408e-07
9.77982e-08
9.44965e-08
6.8935e-08
6.78591e-08
6.66662e-08
6.40593e-08
6.58997e-08
1.1008e-07
8.22673e-08
1.01332e-07
5.1976e-08
6.6254e-08
2.07462e-07
5.75066e-08
5.20231e-08
5.64244e-08
2.43438e-07
7.98814e-08
3.62286e-08
2.42148e-08
4.76769e-08
1.81812e-07
1.2419e-07
1.06195e-07
4.42907e-08
2.94932e-08
2.63285e-08
2.91542e-08
2.52415e-08
2.79432e-08
2.9583e-08
2.7794e-08
2.55748e-08
2.40648e-08
2.34123e-08
2.39569e-08
2.48413e-08
2.50104e-08
2.37442e-08
2.25108e-08
2.21088e-08
2.28643e-08
2.34618e-08
2.32037e-08
2.28207e-08
2.27822e-08
2.3085e-08
2.32472e-08
2.31752e-08
2.34692e-08
2.39302e-08
2.42685e-08
2.46908e-08
2.52004e-08
2.57173e-08
2.62722e-08
2.6947e-08
2.79435e-08
2.89557e-08
2.93869e-08
3.00675e-08
3.18019e-08
3.36003e-08
3.51805e-08
3.68356e-08
3.8417e-08
4.02561e-08
4.31084e-08
4.5847e-08
4.93891e-08
5.44017e-08
5.99109e-08
6.56747e-08
6.8203e-08
7.24341e-08
8.53195e-08
1.06285e-07
1.22016e-07
1.18773e-07
1.10891e-07
1.03413e-07
9.82413e-08
9.51568e-08
8.32344e-08
6.90644e-08
6.1714e-08
5.8249e-08
5.51457e-08
5.14728e-08
4.80968e-08
4.49514e-08
4.2389e-08
4.0553e-08
3.81613e-08
3.54957e-08
3.40474e-08
3.40735e-08
3.48011e-08
3.47759e-08
3.32792e-08
3.2112e-08
3.16135e-08
3.10456e-08
3.1228e-08
3.22203e-08
3.32728e-08
3.37093e-08
3.31303e-08
3.29719e-08
3.34599e-08
3.42863e-08
3.62385e-08
3.80164e-08
3.91123e-08
4.03187e-08
4.07138e-08
4.08608e-08
4.20512e-08
4.41996e-08
4.74453e-08
5.03185e-08
5.13718e-08
5.29788e-08
5.5566e-08
5.8076e-08
6.00294e-08
6.2734e-08
6.78659e-08
7.22941e-08
7.4701e-08
7.633e-08
7.74486e-08
8.07701e-08
8.73963e-08
9.63861e-08
1.03716e-07
1.06998e-07
1.09465e-07
1.10084e-07
1.12042e-07
1.18928e-07
1.26475e-07