/*--------------------------------*- C++ -*----------------------------------*\
| =========                 |                                                 |
| \\      /  F ield         | OpenFOAM: The Open Source CFD Toolbox           |
|  \\    /   O peration     | Version:  v2006                                 |
|   \\  /    A nd           | Website:  www.openfoam.com                      |
|    \\/     M anipulation  |                                                 |
\*---------------------------------------------------------------------------*/
FoamFile
{
    version     2.0;
    format      ascii;
    class       volScalarField;
    location    "10";
    object      omega;
}
// * * * * * * * * * * * * * * * * * * * * * * * * * * * * * * * * * * * * * //

dimensions      [0 0 -1 0 0 0 0];


internalField   nonuniform List<scalar> 
33000
(
0.80194
0.803547
0.80524
0.806065
0.805854
0.805186
0.80463
0.804297
0.804128
0.804038
0.804001
0.80404
0.804159
0.804358
0.804629
0.804954
0.805322
0.805733
0.806175
0.806643
0.807102
0.807476
0.807743
0.807994
0.808316
0.808835
0.809876
0.812104
0.816552
0.824191
0.834956
0.847397
0.85959
0.870174
0.878838
0.886232
0.894093
0.90619
0.927297
0.95669
0.985559
1.00541
1.0156
1.0197
1.01946
1.01534
1.00834
1.00251
1.00095
1.00172
0.999392
0.992236
0.980739
0.969418
0.961012
0.956505
0.956037
0.960323
0.968791
0.980701
0.992064
0.998783
0.999935
0.996283
0.989136
0.978666
0.964972
0.948225
0.93069
0.916576
0.907346
0.903291
0.902833
0.903449
0.903737
0.902813
0.904051
0.908205
0.910143
0.912638
0.913784
0.914905
0.916583
0.919294
0.92373
0.929376
0.935061
0.939809
0.943169
0.945375
0.94576
0.944677
0.942624
0.938431
0.932782
0.924611
0.916745
0.908662
0.904015
0.898926
0.897108
0.898145
0.899789
0.900556
0.899598
0.899975
0.902375
0.904655
0.905142
0.904179
0.903801
0.902526
0.901412
0.900189
0.898808
0.895507
0.891843
0.887754
0.885561
0.884384
0.883499
0.884082
0.883505
0.88397
0.885848
0.887131
0.888023
0.88874
0.888991
0.889306
0.88988
0.890407
0.890946
0.891259
0.891374
0.891408
0.891485
0.891643
0.891784
0.891906
0.892003
0.892113
0.89225
0.892342
0.892321
0.892208
0.892028
0.891855
0.891704
0.891506
0.891148
0.890694
0.89023
0.889751
0.889227
0.888643
0.887995
0.887292
0.886547
0.885762
0.884927
0.884041
0.883112
0.882143
0.881144
0.880117
0.879037
0.877909
0.876758
0.875612
0.874466
0.873294
0.872108
0.870925
0.869772
0.86868
0.867654
0.866665
0.865695
0.864733
0.863789
0.862873
0.862006
0.86121
0.860475
0.859781
0.859114
0.858468
0.857859
0.857307
0.856809
0.856343
0.855894
0.855463
0.855076
0.854767
0.854554
0.854426
0.854341
0.854268
0.85421
0.854198
0.854259
0.854383
0.854539
0.854707
0.854892
0.855122
0.85541
0.85572
0.856006
0.856269
0.856564
0.856918
0.857323
0.857759
0.858189
0.858574
0.858923
0.859275
0.85966
0.860079
0.860516
0.860938
0.861309
0.861623
0.861903
0.862178
0.862462
0.862752
0.863014
0.863212
0.863338
0.863422
0.863491
0.863552
0.8636
0.863622
0.863614
0.863575
0.863496
0.86336
0.86317
0.862952
0.862735
0.862521
0.862299
0.862034
0.861691
0.861301
0.860923
0.860554
0.860179
0.859785
0.859348
0.85887
0.858375
0.85788
0.857382
0.856868
0.856329
0.855766
0.855185
0.854604
0.854036
0.853473
0.852885
0.852248
0.851582
0.850924
0.850276
0.849629
0.848983
0.848338
0.847678
0.846985
0.846273
0.845562
0.844855
0.844148
0.84344
0.842741
0.842044
0.841325
0.840578
0.839832
0.839101
0.838368
0.837634
0.836902
0.836171
0.835426
0.834665
0.833899
0.833133
0.832367
0.831608
0.83086
0.830112
0.82937
0.828637
0.827915
0.82721
0.826523
0.825844
0.825173
0.824517
0.823886
0.823284
0.82271
0.822166
0.821657
0.821187
0.820755
0.820357
0.81999
0.819656
0.819354
0.819084
0.818845
0.818636
0.818456
0.818303
0.818177
0.818076
0.817997
0.81794
0.817904
0.817886
0.817884
0.817895
0.817918
0.817951
0.817993
0.818044
0.818099
0.818157
0.818216
0.818274
0.81833
0.818383
0.818431
0.818474
0.818512
0.818544
0.81857
0.81859
0.818603
0.818611
0.818612
0.818606
0.818594
0.818574
0.818546
0.818512
0.81847
0.81842
0.818364
0.818302
0.818232
0.818156
0.818073
0.817985
0.817891
0.817793
0.817689
0.817581
0.817467
0.817349
0.817228
0.817104
0.816976
0.816845
0.816711
0.816573
0.816433
0.816291
0.816147
0.816
0.81585
0.815698
0.815543
0.815386
0.815229
0.81507
0.81491
0.814749
0.814587
0.814425
0.814263
0.814102
0.81394
0.813779
0.813618
0.813457
0.813297
0.813137
0.812979
0.812821
0.812664
0.812507
0.812353
0.8122
0.81205
0.811904
0.81176
0.811616
0.811475
0.811341
0.811209
0.811083
0.810958
0.810835
0.810716
0.810601
0.81049
0.81038
0.810271
0.810162
0.810056
0.809957
0.809859
0.809766
0.809649
0.80951
0.809397
0.809343
0.809222
0.809251
0.809345
0.809722
0.809897
0.810131
0.810261
0.810378
0.810434
0.81047
0.810484
0.810491
0.810489
0.810487
0.810487
0.810442
0.810391
0.810326
0.81013
0.809937
0.809672
0.809503
0.809294
0.809356
0.809445
0.809545
0.809613
0.809666
0.809699
0.809714
0.809675
0.809645
0.809619
0.809542
0.809555
0.809404
0.809104
0.809054
0.808967
0.808593
0.809129
0.809448
0.811226
0.811959
0.812975
0.813871
0.814904
0.816077
0.817281
0.818379
0.819316
0.8201
0.820808
0.821419
0.821897
0.822279
0.822582
0.822842
0.823082
0.823284
0.823443
0.823574
0.823691
0.823793
0.823871
0.823934
0.824001
0.82407
0.824125
0.824165
0.82419
0.824209
0.824223
0.82423
0.824237
0.824245
0.824247
0.824231
0.824199
0.824157
0.824116
0.824083
0.824057
0.824033
0.824003
0.823971
0.82394
0.823906
0.82387
0.823837
0.823814
0.823799
0.823795
0.823815
0.823863
0.823932
0.824012
0.824102
0.824203
0.824313
0.824432
0.824559
0.824693
0.824831
0.824973
0.825123
0.82528
0.825444
0.825613
0.825786
0.82596
0.826141
0.826329
0.826522
0.826718
0.82692
0.827121
0.827292
0.827384
0.827046
0.825344
0.82212
0.813067
0.201663
0.463391
0.686013
0.806436
0.817871
0.771691
0.73362
0.707329
0.696634
0.684383
0.666453
0.640551
0.604267
0.598414
0.64105
0.717115
0.796765
0.870222
0.937913
0.998771
1.05085
1.095
1.13825
1.17586
1.20785
1.23295
1.25615
1.29721
1.3653
1.45511
1.55725
1.64152
1.69572
1.7278
1.77592
1.84002
1.85699
1.80545
1.75522
1.71239
1.58927
1.37693
1.16449
1.03041
0.95856
0.897356
0.797271
0.706851
0.680995
0.700491
0.704573
0.667551
0.586587
0.515851
0.47529
0.452708
0.441079
0.446604
0.471251
0.509765
0.557686
0.605748
0.633808
0.643669
0.656115
0.655171
0.626391
0.585198
0.558731
0.551489
0.555688
0.576972
0.623268
0.696261
0.776231
0.842271
0.898738
0.995195
1.10579
1.12769
1.13336
1.18342
1.24881
1.32214
1.33993
1.3155
1.25581
1.18069
1.10359
1.01982
0.92075
0.823089
0.739881
0.679656
0.651762
0.654492
0.684416
0.743391
0.843297
0.933121
0.992442
1.08505
1.22216
1.17635
1.06071
0.922706
0.793227
0.656527
0.549544
0.470472
0.396066
0.339999
0.303061
0.28717
0.291878
0.315595
0.365915
0.393706
0.393481
0.401743
0.414353
0.378935
0.334651
0.299677
0.272506
0.248177
0.229425
0.213567
0.202829
0.195858
0.192296
0.190662
0.1898
0.189096
0.188981
0.189668
0.190875
0.192204
0.193456
0.194816
0.196411
0.198152
0.199754
0.200876
0.201547
0.202275
0.203467
0.20525
0.207106
0.208408
0.209228
0.210295
0.211951
0.213853
0.215669
0.217326
0.218959
0.220704
0.222542
0.224305
0.225881
0.227323
0.228749
0.230403
0.232365
0.234112
0.235146
0.235822
0.236884
0.23847
0.239682
0.239778
0.239205
0.238604
0.238513
0.239194
0.239789
0.239397
0.237735
0.235011
0.232236
0.229856
0.227902
0.226637
0.225127
0.222289
0.218476
0.214931
0.212283
0.210024
0.20751
0.204158
0.200083
0.195888
0.192179
0.189442
0.187175
0.184454
0.180691
0.17612
0.171929
0.168488
0.165444
0.162304
0.158705
0.154829
0.151366
0.148563
0.145952
0.142311
0.137888
0.13412
0.130996
0.128429
0.126386
0.124019
0.120879
0.117176
0.113842
0.111135
0.108915
0.107179
0.105409
0.103222
0.100657
0.0980917
0.0959631
0.0942827
0.0930516
0.091903
0.090409
0.0886343
0.0868137
0.0853752
0.0843358
0.0834979
0.0827616
0.0820874
0.0814794
0.0808393
0.0801368
0.0793465
0.0787181
0.0784088
0.0783153
0.0784048
0.0784667
0.0782066
0.0777825
0.0776525
0.0777478
0.0779584
0.0782062
0.0783248
0.0783009
0.0782844
0.0783835
0.078574
0.0787558
0.0788621
0.0789197
0.0789625
0.0790889
0.0793513
0.0797014
0.0799766
0.0800307
0.0798819
0.0797884
0.0798533
0.080042
0.0803044
0.0805913
0.0808122
0.0808777
0.0808046
0.080718
0.080702
0.0807598
0.0808923
0.0811063
0.0813421
0.081461
0.081395
0.0812657
0.081232
0.0812949
0.0814033
0.081542
0.0816686
0.0817153
0.0816578
0.0815634
0.081499
0.0814897
0.0815324
0.0815907
0.0815959
0.081501
0.0813385
0.081168
0.0810525
0.0809897
0.0808883
0.0806756
0.0803806
0.0800883
0.079826
0.0795409
0.0791879
0.0787944
0.0784405
0.0781675
0.0779135
0.0775807
0.0771706
0.0767709
0.0764291
0.0761424
0.0758972
0.0756893
0.0755239
0.0754079
0.0753522
0.0753411
0.0753603
0.0754406
0.0756069
0.0758297
0.0760563
0.0762758
0.0765315
0.0768666
0.0772812
0.0776954
0.0780074
0.0781949
0.0783432
0.0785065
0.0786835
0.078844
0.0789623
0.0790343
0.0790794
0.0791121
0.0791055
0.0790407
0.0789271
0.0787937
0.078671
0.0785642
0.0784479
0.0782936
0.0781049
0.0779131
0.0777338
0.0775625
0.0773982
0.077217
0.0770093
0.0767914
0.0765769
0.0763674
0.0761736
0.0760131
0.0758629
0.0756736
0.0754114
0.0751098
0.0748505
0.0746562
0.0744331
0.0741127
0.073736
0.073377
0.0730649
0.0727824
0.0725026
0.0722498
0.0719932
0.0716431
0.07118
0.070737
0.0703646
0.0700272
0.0696909
0.0693352
0.0689281
0.0684841
0.0680817
0.0677179
0.0673217
0.0668415
0.0663518
0.0658888
0.0654382
0.0650007
0.0646315
0.064255
0.0638036
0.063293
0.0627354
0.0622265
0.0617679
0.0614921
0.0611616
0.0607141
0.0600161
0.0595582
0.059143
0.0587672
0.0582965
0.0575713
0.0570831
0.0563885
0.0559048
0.0554705
0.0545518
0.05406
0.0543125
0.0531838
0.0533523
0.0541261
0.0517661
0.0527731
0.0587149
0.0602959
0.0687715
0.0806765
0.0945523
0.0917503
0.0753616
0.0679823
0.0612387
0.058125
0.0558394
0.054529
0.0532983
0.0520459
0.0516026
0.0534886
0.0531613
0.0581691
0.0633967
0.0580192
0.0584969
0.0599866
0.0586631
0.0459014
0.0398333
0.0383374
0.0375919
0.0378581
0.0384932
0.0406137
0.0420983
0.0447066
0.0449513
0.0456787
0.0470654
0.0509496
0.0630061
0.0844015
0.109344
0.138396
0.173596
0.185049
0.187403
0.212553
0.201181
0.147445
0.10809
0.087475
0.0774443
0.0710573
0.0659871
0.0615212
0.0577603
0.0549602
0.0534849
0.0530407
0.0532198
0.053608
0.0538045
0.0543599
0.0558221
0.057493
0.0584539
0.0591593
0.0600232
0.0609813
0.0614185
0.0616314
0.062415
0.0638773
0.0651434
0.0659575
0.0661949
0.066411
0.0667818
0.0670925
0.0676859
0.0687471
0.0699221
0.0704144
0.0700555
0.0692598
0.0686314
0.0686064
0.068962
0.0695797
0.0699533
0.0701935
0.0705851
0.0708461
0.0709149
0.0710507
0.071514
0.0722858
0.0731938
0.0740134
0.0745478
0.0748153
0.0748682
0.0748698
0.0749383
0.0750819
0.0752895
0.0755511
0.0757773
0.0759353
0.0760345
0.0761997
0.0764319
0.0767436
0.0769834
0.0771485
0.0771802
0.0772848
0.0774989
0.0776852
0.0778658
0.0782091
0.0786864
0.0795025
0.0806416
0.0828013
0.08875
0.077231
0.0494509
0.11068
0.298116
0.469071
0.552517
0.52448
0.426159
0.33051
0.267851
0.23475
0.217155
0.206029
0.199548
0.20386
0.234286
0.2833
0.343998
0.415308
0.498889
0.601103
0.721761
0.848025
0.970277
1.09591
1.23237
1.3659
1.49375
1.64135
1.8478
2.11446
2.36642
2.49901
2.54694
2.53232
2.4932
2.46852
2.43246
2.33914
2.20765
2.07283
1.90469
1.64495
1.31227
1.01347
0.832665
0.746196
0.683202
0.595948
0.514061
0.482514
0.490454
0.492309
0.469171
0.422167
0.366818
0.32286
0.297639
0.290106
0.301235
0.321729
0.345216
0.368353
0.385232
0.401984
0.420674
0.437475
0.442845
0.436044
0.415623
0.372426
0.325769
0.300702
0.304156
0.332378
0.365279
0.397253
0.420818
0.443476
0.482597
0.566462
0.640641
0.761035
0.883079
0.940983
1.01448
1.09821
1.19184
1.29722
1.36661
1.36176
1.30459
1.19544
1.07508
0.953573
0.824573
0.717797
0.644388
0.602406
0.591372
0.614239
0.670584
0.712945
0.762175
0.820962
0.817868
0.810407
0.787253
0.728275
0.64361
0.537443
0.459991
0.396673
0.33376
0.286384
0.230654
0.188142
0.161546
0.157827
0.168605
0.170439
0.175745
0.17731
0.172876
0.186688
0.200742
0.171858
0.139086
0.113801
0.0953272
0.0821703
0.0722393
0.0624024
0.0562157
0.0522013
0.0503933
0.0499167
0.0503985
0.0511576
0.0516209
0.0519688
0.0522574
0.0527168
0.0534326
0.0541986
0.0547786
0.0552333
0.0557408
0.0563249
0.0570386
0.0578227
0.0585407
0.0592042
0.0599854
0.0609157
0.0618456
0.0627403
0.0637134
0.0648268
0.0660098
0.0671563
0.0681891
0.0690824
0.069922
0.0708408
0.0719143
0.0730903
0.074144
0.0748554
0.0753614
0.0760216
0.0768688
0.0775732
0.0778235
0.0776897
0.0774446
0.0773248
0.0774927
0.0776691
0.0774398
0.0766032
0.0751786
0.0736002
0.0721128
0.0708035
0.0698062
0.0687575
0.0672406
0.0652193
0.0630678
0.0611763
0.0595713
0.0580748
0.0564019
0.0543944
0.0521638
0.0500676
0.0483379
0.0468684
0.0453872
0.0436139
0.0415765
0.0395809
0.0378373
0.0362884
0.0347513
0.0331487
0.0315587
0.030105
0.0288049
0.0275412
0.026102
0.0245481
0.0231591
0.0219708
0.0209631
0.0200941
0.0191924
0.0181758
0.0170686
0.0160473
0.0151834
0.0144458
0.0138252
0.0132444
0.0126297
0.0119686
0.0113049
0.0107238
0.0102449
0.00986262
0.00951533
0.00912528
0.00870112
0.00829635
0.00796689
0.0077082
0.00750061
0.00732016
0.00714568
0.00697683
0.0068129
0.00666036
0.00652658
0.00642371
0.00636249
0.00633431
0.00633289
0.00633009
0.00630413
0.00626921
0.00627152
0.00630411
0.00635014
0.00640181
0.00644917
0.00648867
0.00653442
0.00659327
0.00665729
0.00671363
0.00676187
0.00681463
0.00687121
0.00693921
0.00702565
0.00712263
0.00720408
0.00725095
0.0072732
0.00730552
0.00735932
0.00743032
0.00751034
0.00759404
0.00767246
0.00773136
0.00776777
0.0077943
0.00782582
0.0078703
0.00793193
0.00800889
0.00808769
0.00814632
0.00817542
0.00819286
0.00822308
0.00826766
0.00831884
0.00837585
0.00843264
0.00847647
0.00850394
0.00852353
0.0085435
0.00856977
0.00860414
0.00864317
0.00867806
0.00869922
0.00870171
0.00869165
0.0086881
0.00869647
0.00870116
0.00868462
0.008647
0.00860555
0.00857109
0.00853541
0.0084836
0.00841837
0.0083573
0.0083095
0.00826659
0.00820951
0.0081329
0.00805425
0.00798582
0.0079278
0.00787835
0.00783397
0.00779255
0.00775652
0.0077298
0.00771235
0.00770306
0.00770541
0.00772003
0.00773988
0.00775907
0.00777966
0.00780945
0.00785272
0.00790559
0.0079558
0.00799216
0.00800982
0.0080199
0.00803217
0.00804555
0.00805694
0.00806401
0.00806447
0.00805902
0.00804889
0.00802972
0.00800052
0.00796532
0.00793015
0.00789904
0.0078712
0.00784172
0.00780626
0.00776622
0.00772691
0.00769146
0.00766026
0.00763209
0.0075999
0.00756211
0.00752343
0.00748732
0.00745358
0.00742217
0.00739455
0.00736745
0.00733531
0.00729483
0.00724988
0.00721113
0.00718087
0.00714374
0.0070903
0.0070268
0.00696633
0.00691592
0.00687175
0.00682559
0.00677876
0.0067287
0.0066708
0.00660271
0.006537
0.00647961
0.00642624
0.0063702
0.00631122
0.0062473
0.00618063
0.00611801
0.00605749
0.0059935
0.0059233
0.00585455
0.00578833
0.00572119
0.00565464
0.00559491
0.00553667
0.00547422
0.0054057
0.00532495
0.00524853
0.00517814
0.00512994
0.00507344
0.00501484
0.0049208
0.00485363
0.00480108
0.00473966
0.00465985
0.00455709
0.00449954
0.00438693
0.00433635
0.00431589
0.00418926
0.00417918
0.00435626
0.00420854
0.00439397
0.00496223
0.00522439
0.0057783
0.00654083
0.00716981
0.00764367
0.00788538
0.00872867
0.00781117
0.00617773
0.0053731
0.00479606
0.00439558
0.0041976
0.00421909
0.00438618
0.00437425
0.00469051
0.00518268
0.00503108
0.00517904
0.0052471
0.00433181
0.00336597
0.00285548
0.00294825
0.00256969
0.00237856
0.00234613
0.00240435
0.00251323
0.00259606
0.00271582
0.00280745
0.00315009
0.00355359
0.00477016
0.006888
0.0107189
0.0160662
0.0256955
0.0295069
0.0287163
0.0319015
0.0312655
0.028122
0.030062
0.0237494
0.0144766
0.00909477
0.00680762
0.0058217
0.00528452
0.00492751
0.00460638
0.00429019
0.00402513
0.00384836
0.00376941
0.00374837
0.00376098
0.00378652
0.00387052
0.00403527
0.00419894
0.00430836
0.00439656
0.00451296
0.00463061
0.00470008
0.00476156
0.00487453
0.00504447
0.00519705
0.00531391
0.0053894
0.0054458
0.00550378
0.00556788
0.00567318
0.00583115
0.00599485
0.00606763
0.00604863
0.005973
0.00592354
0.00594035
0.00599391
0.00606817
0.00611887
0.00616137
0.00623005
0.00629416
0.00633999
0.00639083
0.00647463
0.00659044
0.0067168
0.00683159
0.00691765
0.00697261
0.00700484
0.00702784
0.00705105
0.00708319
0.00712461
0.0071733
0.00721833
0.00725204
0.00728105
0.00731816
0.00736542
0.00742057
0.00746094
0.00748979
0.00750622
0.00753341
0.00757136
0.00760371
0.00763435
0.00769548
0.00778861
0.00794321
0.00818561
0.00858102
0.0093429
0.00829391
0.00529971
0.0651301
0.184434
0.296306
0.346214
0.32207
0.258693
0.194115
0.146038
0.117845
0.106598
0.109689
0.122878
0.141843
0.173476
0.223607
0.298756
0.408286
0.559083
0.754766
0.983964
1.20173
1.36074
1.46627
1.56084
1.68395
1.8472
2.04757
2.25737
2.41773
2.48642
2.46923
2.40502
2.33211
2.29228
2.2729
2.21923
2.1186
1.99449
1.85329
1.63981
1.31208
0.971049
0.71825
0.585414
0.52888
0.478823
0.407607
0.346946
0.321728
0.327086
0.330813
0.315607
0.279018
0.239557
0.209911
0.191813
0.183944
0.186671
0.195043
0.19926
0.199215
0.198451
0.205416
0.231114
0.26251
0.280338
0.282106
0.269849
0.240748
0.204259
0.179044
0.171692
0.181951
0.200073
0.215546
0.232394
0.255342
0.282299
0.320087
0.365063
0.423499
0.528726
0.634241
0.779707
0.889003
0.942581
1.00923
1.08797
1.1599
1.24216
1.3242
1.33816
1.2753
1.1201
0.94198
0.790837
0.661934
0.573904
0.528086
0.506441
0.491204
0.488152
0.506835
0.51322
0.513738
0.512345
0.480437
0.43839
0.386376
0.352969
0.327426
0.297255
0.26113
0.229752
0.197877
0.172846
0.145682
0.12121
0.0998025
0.0909243
0.090638
0.08649
0.0836656
0.0817846
0.0798278
0.0913046
0.0997193
0.0822343
0.0631723
0.0503552
0.0398682
0.0324009
0.0267325
0.0219517
0.0188476
0.0172475
0.0164126
0.016035
0.0159604
0.0159388
0.015918
0.0159889
0.0161276
0.0163029
0.0165035
0.0167375
0.0169862
0.0172531
0.0175256
0.0177953
0.018097
0.0184474
0.0188357
0.0192158
0.019566
0.0199411
0.020392
0.0208986
0.0214036
0.0218528
0.0222283
0.0225694
0.0229446
0.0233835
0.0238506
0.0242729
0.0245713
0.0247733
0.0250146
0.025321
0.0255761
0.0256702
0.0256057
0.0254784
0.0253741
0.0253541
0.025338
0.0251675
0.0247794
0.0242048
0.0235709
0.0229405
0.0223506
0.021858
0.0213661
0.0207654
0.0200211
0.019191
0.0184037
0.0177117
0.0170938
0.0164853
0.0158159
0.0150678
0.0143328
0.0136831
0.0131145
0.0125898
0.0120272
0.0114035
0.0107693
0.0101918
0.0096822
0.00919841
0.00871963
0.008257
0.00782234
0.00741402
0.00702272
0.00663019
0.00623798
0.00587302
0.00555129
0.00526953
0.00501332
0.00476416
0.00451575
0.00426955
0.0040397
0.00383218
0.00364627
0.00348329
0.00334044
0.00320649
0.00307327
0.00294176
0.00281794
0.00270715
0.00261267
0.00252974
0.00245051
0.00237351
0.00230092
0.00223591
0.00217989
0.0021319
0.00208802
0.00204744
0.00201162
0.00198071
0.00195278
0.00192675
0.00190326
0.00188426
0.00187079
0.00186306
0.00185908
0.0018557
0.00185066
0.00184601
0.00184416
0.00184579
0.00185057
0.00185831
0.00186618
0.00187308
0.00188039
0.0018889
0.00189895
0.0019091
0.00191905
0.00192957
0.00194121
0.00195475
0.00197092
0.00198752
0.00200094
0.00201119
0.00202155
0.00203346
0.00204676
0.0020617
0.00207884
0.0020972
0.00211424
0.0021286
0.0021405
0.00215075
0.00216178
0.0021761
0.00219423
0.00221459
0.00223294
0.00224638
0.00225564
0.00226493
0.00227778
0.00229375
0.00231037
0.0023266
0.00234098
0.00235202
0.00236047
0.00236982
0.00238103
0.00239162
0.00240172
0.00241156
0.00242029
0.0024257
0.00242764
0.00242962
0.00243153
0.00243175
0.00242925
0.00242411
0.00241706
0.0024101
0.00240192
0.00238988
0.0023753
0.00236028
0.00234614
0.00233169
0.0023143
0.00229341
0.00227137
0.00225017
0.00222979
0.00220992
0.00218967
0.00216868
0.00214815
0.00212876
0.00211062
0.0020937
0.00207851
0.00206482
0.0020512
0.00203745
0.00202475
0.00201452
0.00200691
0.00200055
0.00199339
0.00198515
0.00197626
0.00196732
0.0019589
0.00195084
0.00194326
0.00193629
0.00192902
0.001921
0.00191223
0.00190242
0.00189211
0.00188174
0.001872
0.00186338
0.00185571
0.00184808
0.00183963
0.00183083
0.00182248
0.0018151
0.001809
0.00180364
0.00179759
0.00179099
0.00178468
0.00177908
0.001774
0.00176909
0.00176444
0.00176002
0.00175555
0.00175069
0.00174526
0.00174013
0.00173606
0.00173175
0.00172572
0.00171812
0.00171056
0.00170433
0.001699
0.00169317
0.00168676
0.00168003
0.00167301
0.0016655
0.00165818
0.00165154
0.00164501
0.00163758
0.00162953
0.00162127
0.00161324
0.00160542
0.00159705
0.00158811
0.00157923
0.00157098
0.00156293
0.00155425
0.00154525
0.00153686
0.00152911
0.00152142
0.00151368
0.00150389
0.0014948
0.00148612
0.00147844
0.00146889
0.00146146
0.00144848
0.00144328
0.00144371
0.00144219
0.00143743
0.00143079
0.00142473
0.00140656
0.00142223
0.00152356
0.00158763
0.00170834
0.00188875
0.00212897
0.00213536
0.00198219
0.00191055
0.00183574
0.00177526
0.00173136
0.00168757
0.00163254
0.00164781
0.00160876
0.00154507
0.00156015
0.00166431
0.00173339
0.00186962
0.0020609
0.00225573
0.00247151
0.0025269
0.00245884
0.00213598
0.00184271
0.00165096
0.00153424
0.00142627
0.00136746
0.00132956
0.00134736
0.00137432
0.00142593
0.00148647
0.00170958
0.00189699
0.00210982
0.00279465
0.00396173
0.00654778
0.00984482
0.0155224
0.0167875
0.0135515
0.0120958
0.0109235
0.00992883
0.00918496
0.00734098
0.00514735
0.00371626
0.00292279
0.00246677
0.00220576
0.00205839
0.00197482
0.00192195
0.00187304
0.00181695
0.00176118
0.00171205
0.00166973
0.00163451
0.00160558
0.00158355
0.00156863
0.00156059
0.00155706
0.00155501
0.00155368
0.00155472
0.00155915
0.00156384
0.00156689
0.00157143
0.00157969
0.00159087
0.00160138
0.00161081
0.00161961
0.00162704
0.00163388
0.00164151
0.00165229
0.00166614
0.00168032
0.00168935
0.00169345
0.00169417
0.00169607
0.00170117
0.0017084
0.00171656
0.00172378
0.00173107
0.0017399
0.00174906
0.00175783
0.00176712
0.00177815
0.00179088
0.0018042
0.00181674
0.00182753
0.00183625
0.0018433
0.00184925
0.00185487
0.00186091
0.00186784
0.0018753
0.00188249
0.00188881
0.00189463
0.00190101
0.00190817
0.00191523
0.00192077
0.00192534
0.00192974
0.00193448
0.00193993
0.00194533
0.00195361
0.00197558
0.0020161
0.00209077
0.00221935
0.00243414
0.00286109
0.00275832
0.00208887
0.0369814
0.107377
0.17232
0.202176
0.19146
0.158618
0.12192
0.0926903
0.0759531
0.0727576
0.0814149
0.0966166
0.117588
0.151898
0.208215
0.291912
0.404439
0.541365
0.690701
0.830128
0.951537
1.06166
1.16832
1.27561
1.38406
1.50588
1.64641
1.74988
1.75309
1.67038
1.60247
1.60555
1.65902
1.72102
1.7533
1.73015
1.6619
1.56967
1.43975
1.1949
0.877909
0.617295
0.456019
0.379137
0.345303
0.308353
0.261002
0.225161
0.210606
0.214517
0.218008
0.20824
0.186303
0.163143
0.143894
0.129353
0.120386
0.117417
0.117142
0.114446
0.111212
0.110706
0.115107
0.131922
0.155702
0.171752
0.177796
0.172686
0.156972
0.135473
0.118121
0.109303
0.108346
0.114674
0.123676
0.135517
0.153113
0.17275
0.193678
0.216353
0.245977
0.292813
0.360803
0.44364
0.54351
0.6392
0.750495
0.851571
0.922843
0.941216
0.994029
1.04388
1.08215
1.09657
1.03961
0.953094
0.819456
0.676531
0.562792
0.467113
0.404453
0.368734
0.343114
0.320226
0.304725
0.30047
0.290259
0.271255
0.251141
0.236604
0.22523
0.211868
0.205786
0.197111
0.182822
0.163893
0.145931
0.127343
0.112179
0.0949158
0.0792144
0.0646699
0.055764
0.0531661
0.0496672
0.0471256
0.0455132
0.0442768
0.0514773
0.0571307
0.0479764
0.0377638
0.0304284
0.0244385
0.0191737
0.0161935
0.0139088
0.0115866
0.0100607
0.0089217
0.0081487
0.0077401
0.00750204
0.00734467
0.00726496
0.00723959
0.00725298
0.00730192
0.00737913
0.00747798
0.00759562
0.00772654
0.00786805
0.00801345
0.00816051
0.00831744
0.00849442
0.00869529
0.00890463
0.0090935
0.00925827
0.00941174
0.00957012
0.00974509
0.00992651
0.0100908
0.0102177
0.0103121
0.0104054
0.0105151
0.0106105
0.0106527
0.0106397
0.010599
0.0105546
0.0105246
0.0104888
0.0103973
0.0102413
0.0100451
0.00982729
0.00959269
0.00935323
0.00912921
0.00891655
0.00869305
0.00844238
0.0081551
0.00785625
0.00757692
0.00732503
0.00709219
0.00686005
0.00661784
0.00637263
0.0061307
0.0059012
0.00569553
0.00549976
0.00529521
0.00508517
0.00488485
0.00470235
0.00453437
0.0043713
0.00420681
0.00404568
0.00389505
0.00375792
0.0036297
0.00350065
0.00337146
0.00325165
0.00314101
0.00303694
0.00294041
0.00285044
0.00276446
0.00267908
0.0025952
0.00251691
0.00244443
0.00237895
0.00232007
0.00226358
0.00220825
0.00215432
0.00210093
0.00205016
0.00200466
0.00196477
0.00192833
0.00189219
0.0018565
0.00182336
0.00179349
0.0017665
0.0017423
0.00172141
0.00170222
0.00168262
0.00166328
0.00164546
0.00163078
0.00162057
0.00161433
0.00160954
0.00160372
0.00159654
0.00158957
0.00158502
0.00158414
0.00158556
0.00158736
0.00158883
0.00158996
0.00159189
0.00159584
0.00160187
0.00160788
0.00161211
0.00161587
0.00162004
0.00162503
0.00163279
0.00164359
0.00165411
0.00166162
0.0016668
0.0016721
0.00167908
0.00168877
0.00170006
0.00171033
0.00171945
0.0017286
0.00173793
0.00174661
0.00175448
0.00176323
0.00177428
0.00178676
0.00179875
0.00180849
0.0018155
0.00182191
0.00183157
0.00184466
0.00185584
0.00186471
0.00187357
0.00188082
0.00188676
0.00189529
0.00190534
0.00191241
0.00191767
0.001923
0.00192815
0.00193288
0.00193668
0.00193857
0.00193799
0.00193708
0.00193667
0.00193557
0.00193189
0.00192617
0.00192026
0.00191345
0.00190501
0.00189505
0.00188387
0.00187224
0.00186012
0.00184687
0.00183219
0.00181647
0.00180024
0.00178343
0.00176619
0.00174864
0.00173093
0.00171302
0.00169478
0.00167648
0.0016585
0.00164115
0.00162391
0.00160634
0.00158923
0.00157329
0.00155852
0.00154427
0.00152968
0.00151523
0.00150224
0.00149028
0.00147867
0.00146764
0.00145733
0.00144769
0.00143836
0.00142926
0.00142061
0.00141272
0.00140541
0.00139841
0.00139187
0.00138591
0.00138063
0.00137583
0.00137116
0.00136675
0.00136265
0.00135895
0.00135582
0.00135302
0.00135041
0.0013481
0.00134602
0.00134422
0.0013426
0.00134104
0.00133964
0.00133838
0.00133717
0.00133603
0.00133496
0.00133383
0.00133275
0.00133188
0.00133097
0.00132983
0.00132845
0.00132696
0.00132562
0.00132432
0.00132298
0.00132149
0.00131996
0.00131833
0.00131673
0.00131509
0.00131342
0.00131163
0.00130961
0.00130751
0.00130537
0.00130325
0.00130063
0.00129794
0.0012951
0.00129258
0.00128983
0.00128701
0.0012837
0.00128071
0.00127753
0.00127501
0.00127299
0.00127031
0.00126621
0.0012631
0.00125896
0.0012583
0.00126513
0.00126946
0.00128206
0.00128009
0.00127289
0.0012651
0.00128495
0.00138412
0.00146656
0.00158993
0.00175686
0.00200551
0.00198393
0.00177594
0.00167248
0.00155395
0.00144221
0.00134351
0.00129947
0.00128219
0.00128014
0.00129247
0.0013105
0.00137254
0.00152421
0.00166448
0.00187263
0.00208829
0.00238243
0.00247766
0.00245347
0.00223424
0.00193305
0.00169208
0.0015468
0.00144459
0.00137565
0.00134685
0.00131693
0.00132722
0.00135114
0.00140631
0.00152051
0.00182301
0.00218183
0.0029276
0.00408463
0.00600926
0.00838255
0.0122973
0.0175781
0.0183845
0.0143909
0.0119915
0.0102299
0.0088217
0.00748265
0.00583828
0.00432045
0.00323997
0.0025655
0.0021782
0.00195888
0.00183882
0.00177883
0.00174555
0.00172682
0.0017135
0.00169625
0.00166941
0.00163936
0.00161131
0.00158554
0.00155977
0.00153452
0.00151246
0.0014944
0.00147829
0.00146378
0.00145162
0.00144153
0.00143349
0.00142742
0.00142242
0.00141818
0.00141531
0.00141375
0.00141289
0.00141231
0.00141229
0.00141272
0.00141324
0.00141413
0.00141545
0.00141707
0.00141895
0.00142097
0.00142295
0.00142509
0.00142734
0.00142979
0.0014322
0.0014346
0.00143713
0.00143988
0.00144277
0.00144571
0.00144863
0.00145162
0.00145466
0.00145773
0.00146087
0.00146407
0.00146728
0.00147046
0.00147357
0.00147654
0.00147935
0.00148195
0.00148441
0.0014868
0.0014892
0.00149162
0.00149399
0.00149623
0.00149834
0.00150037
0.00150244
0.00150425
0.0015061
0.00150759
0.00150922
0.00151056
0.00151231
0.00151468
0.00152049
0.00153827
0.00157285
0.00163779
0.00175161
0.00194275
0.00232398
0.00229652
0.00182581
0.0197872
0.0590847
0.0950408
0.113053
0.112634
0.0996049
0.0813695
0.0652987
0.0567213
0.0572501
0.0653145
0.0780577
0.0962024
0.125519
0.172519
0.240018
0.326265
0.424324
0.525869
0.622515
0.703112
0.768368
0.828898
0.891737
0.959486
1.03568
1.10472
1.12008
1.07935
1.03785
1.05262
1.1325
1.23692
1.30891
1.33001
1.30317
1.24436
1.15965
1.00888
0.76277
0.527106
0.366538
0.277807
0.236113
0.214796
0.19157
0.166341
0.148498
0.140725
0.142183
0.144055
0.139383
0.129098
0.116494
0.103416
0.0919269
0.0835559
0.0787668
0.0756897
0.0726014
0.0706435
0.0708058
0.073462
0.0823223
0.0959266
0.107028
0.1119
0.111138
0.104708
0.094555
0.0851873
0.0783785
0.0753433
0.0758726
0.0802267
0.0890706
0.100038
0.111933
0.122672
0.132285
0.145422
0.164037
0.192252
0.225171
0.266423
0.31582
0.370904
0.424566
0.501159
0.578521
0.690782
0.776815
0.796596
0.813748
0.796106
0.761532
0.712986
0.635518
0.563508
0.479812
0.400041
0.334837
0.283641
0.245187
0.220279
0.202319
0.186678
0.17189
0.159986
0.154536
0.150166
0.146588
0.145485
0.143538
0.13998
0.138863
0.134684
0.12609
0.113852
0.10172
0.0892323
0.0789144
0.0668821
0.056003
0.0462113
0.039951
0.0381444
0.0359105
0.0344254
0.0344686
0.0349724
0.0412131
0.0459523
0.042509
0.0351554
0.0293431
0.0242955
0.0199448
0.0166375
0.0136546
0.0107052
0.00873985
0.00736305
0.00644272
0.00590237
0.00554651
0.00529176
0.00513386
0.00505593
0.00503471
0.00504657
0.00507856
0.0051237
0.00517774
0.00524449
0.00531813
0.00539244
0.00547542
0.00556617
0.00565241
0.00573425
0.00581361
0.00588574
0.00595615
0.00602864
0.00609576
0.00615379
0.00620572
0.00624892
0.0062885
0.00632198
0.00634091
0.00634796
0.00634497
0.00633298
0.00631535
0.00628727
0.00624273
0.00619165
0.00613482
0.00606438
0.00598086
0.00588502
0.00578073
0.00568235
0.00559438
0.00550912
0.0054132
0.00529826
0.00517433
0.0050566
0.0049486
0.00484786
0.00475526
0.00465963
0.00454952
0.00443626
0.00432808
0.00422715
0.00413481
0.00404594
0.00395312
0.00385734
0.00376507
0.00367149
0.00357457
0.0034819
0.00339788
0.00332131
0.00324429
0.00316043
0.00307397
0.00299164
0.00291509
0.00284328
0.00277492
0.00270689
0.00263845
0.00257135
0.00250789
0.00244868
0.00239095
0.00233387