/*--------------------------------*- C++ -*----------------------------------*\
| =========                 |                                                 |
| \\      /  F ield         | OpenFOAM: The Open Source CFD Toolbox           |
|  \\    /   O peration     | Version:  v2006                                 |
|   \\  /    A nd           | Website:  www.openfoam.com                      |
|    \\/     M anipulation  |                                                 |
\*---------------------------------------------------------------------------*/
FoamFile
{
    version     2.0;
    format      ascii;
    class       volScalarField;
    location    "10";
    object      p;
}
// * * * * * * * * * * * * * * * * * * * * * * * * * * * * * * * * * * * * * //

dimensions      [1 -1 -2 0 0 0 0];


internalField   nonuniform List<scalar> 
33000
(
8053.03
8049.89
8047.69
8045.98
8043.93
8041.88
8039.98
8037.89
8035.58
8032.92
8029.97
8026.62
8022.94
8019.1
8015.21
8011.33
8007.33
8003.13
7998.8
7994.33
7989.66
7984.78
7979.97
7975.43
7971.01
7966.61
7962.29
7957.91
7953.28
7948.37
7943.24
7938.14
7932.93
7927.77
7922.83
7917.84
7912.85
7907.85
7902.63
7897.13
7891.39
7885.51
7879.59
7873.64
7867.68
7861.69
7855.65
7849.61
7843.55
7837.55
7831.55
7825.52
7819.5
7813.5
7807.53
7801.59
7795.68
7789.81
7783.99
7778.22
7772.53
7766.91
7761.36
7755.86
7750.43
7745.08
7739.81
7734.62
7729.53
7724.56
7719.71
7714.99
7710.44
7706.06
7701.91
7698.08
7694.62
7691.55
7687.44
7679.57
7676.4
7671.77
7667.09
7662.84
7658.7
7653.96
7650.16
7645.87
7642.3
7638.31
7634.88
7631.29
7628.02
7624.77
7621.78
7618.84
7616.14
7613.56
7611.14
7608.83
7606.55
7604.4
7602.79
7601.17
7599.85
7598.72
7597.77
7597.07
7596.61
7596.45
7596.41
7596.67
7596.97
7597.58
7598.11
7599.17
7599.7
7601.24
7603.8
7605.96
7608.7
7611.55
7614.64
7617.99
7621.61
7625.41
7629.45
7633.67
7638.1
7642.68
7647.39
7652.25
7657.19
7662.29
7667.49
7672.79
7678.15
7683.55
7689
7694.5
7700.02
7705.56
7711.12
7716.67
7722.25
7727.82
7733.41
7738.97
7744.51
7750.01
7755.52
7761
7766.46
7771.87
7777.25
7782.58
7787.89
7793.15
7798.37
7803.52
7808.59
7813.58
7818.46
7823.23
7827.88
7832.39
7836.76
7840.98
7845.04
7848.92
7852.63
7856.16
7859.5
7862.65
7865.6
7868.34
7870.87
7873.2
7875.33
7877.27
7879
7880.51
7881.82
7882.93
7883.83
7884.55
7885.09
7885.44
7885.61
7885.61
7885.44
7885.12
7884.65
7884.04
7883.28
7882.39
7881.36
7880.23
7878.99
7877.66
7876.22
7874.68
7873.06
7871.35
7869.57
7867.73
7865.81
7863.82
7861.78
7859.69
7857.55
7855.35
7853.11
7850.82
7848.48
7846.11
7843.71
7841.27
7838.8
7836.3
7833.77
7831.2
7828.62
7826.02
7823.4
7820.76
7818.11
7815.44
7812.77
7810.11
7807.45
7804.8
7802.17
7799.55
7796.95
7794.36
7791.81
7789.28
7786.78
7784.31
7781.88
7779.49
7777.14
7774.82
7772.54
7770.31
7768.11
7765.97
7763.87
7761.82
7759.81
7757.84
7755.92
7754.05
7752.23
7750.47
7748.75
7747.08
7745.46
7743.9
7742.39
7740.93
7739.53
7738.18
7736.88
7735.63
7734.45
7733.32
7732.24
7731.22
7730.26
7729.34
7728.48
7727.68
7726.94
7726.25
7725.61
7725.03
7724.5
7724.02
7723.59
7723.22
7722.89
7722.62
7722.4
7722.22
7722.09
7722.01
7721.96
7721.97
7722.01
7722.09
7722.22
7722.38
7722.57
7722.8
7723.06
7723.35
7723.67
7724.02
7724.39
7724.79
7725.21
7725.65
7726.11
7726.58
7727.07
7727.58
7728.09
7728.62
7729.16
7729.7
7730.26
7730.81
7731.38
7731.94
7732.51
7733.08
7733.66
7734.23
7734.8
7735.38
7735.95
7736.52
7737.09
7737.65
7738.22
7738.78
7739.34
7739.89
7740.45
7741
7741.55
7742.09
7742.63
7743.17
7743.71
7744.25
7744.78
7745.32
7745.85
7746.39
7746.92
7747.46
7748
7748.54
7749.08
7749.63
7750.18
7750.74
7751.3
7751.86
7752.43
7753.01
7753.6
7754.2
7754.8
7755.41
7756.04
7756.67
7757.31
7757.97
7758.63
7759.31
7760
7760.7
7761.42
7762.15
7762.89
7763.64
7764.41
7765.19
7765.98
7766.79
7767.6
7768.43
7769.28
7770.13
7771
7771.88
7772.77
7773.67
7774.57
7775.49
7776.42
7777.36
7778.3
7779.25
7780.2
7781.17
7782.13
7783.11
7784.08
7785.06
7786.04
7787.02
7788
7788.98
7789.96
7790.93
7791.9
7792.86
7793.82
7794.76
7795.7
7796.63
7797.54
7798.44
7799.33
7800.21
7801.07
7801.91
7802.74
7803.55
7804.35
7805.13
7805.89
7806.63
7807.35
7808.06
7808.75
7809.41
7810.06
7810.68
7811.3
7811.9
7812.48
7813.03
7813.59
7814.05
7814.58
7815.15
7815.63
7816.12
7816.56
7817
7817.4
7817.79
7818.15
7818.49
7818.82
7819.11
7819.4
7819.67
7819.92
7820.15
7820.38
7820.52
7820.72
7820.97
7821.12
7821.3
7821.4
7821.53
7821.59
7821.67
7821.7
7821.73
7821.73
7821.72
7821.69
7821.64
7821.57
7821.51
7821.42
7821.31
7821.21
7821.06
7820.86
7820.78
7820.68
7820.53
7820.37
7820.2
7820.01
7819.8
7819.59
7819.36
7819.11
7818.86
7818.59
7818.32
7818.03
7817.72
7817.41
7817.08
7816.74
7816.39
7816.02
7815.64
7815.25
7814.84
7814.42
7813.99
7813.55
7813.08
7812.61
7812.12
7811.62
7811.1
7810.57
7810.02
7809.46
7808.88
7808.28
7807.67
7807.05
7806.41
7805.75
7805.08
7804.39
7803.69
7802.97
7802.23
7801.48
7800.71
7799.93
7799.13
7798.31
7797.48
7796.64
7795.78
7794.91
7794.02
7793.11
7792.2
7791.27
7790.32
7789.37
7788.4
7787.42
7786.43
7785.42
7784.41
7783.39
7782.35
7781.31
7780.26
7779.19
7778.12
7777.05
7775.96
7774.87
7773.77
7772.67
7771.55
7770.44
7769.39
7768
7767.11
7856.91
7853.88
7851.44
7849.57
7847.46
7845.33
7843.43
7841.41
7839.12
7836.45
7833.43
7830.05
7826.42
7822.7
7818.97
7815.23
7811.29
7807.12
7802.77
7798.28
7793.49
7788.41
7783.52
7779
7774.61
7770.25
7766.07
7761.98
7757.46
7752.46
7747.29
7742.09
7736.84
7731.6
7726.57
7721.63
7716.62
7711.61
7706.34
7700.83
7695.15
7689.32
7683.38
7677.42
7671.46
7665.46
7659.4
7653.38
7647.31
7641.31
7635.3
7629.26
7623.22
7617.23
7611.25
7605.29
7599.36
7593.47
7587.64
7581.88
7576.17
7570.54
7564.98
7559.46
7554
7548.64
7543.35
7538.14
7533.03
7528.02
7523.14
7518.36
7513.74
7509.26
7504.92
7500.72
7496.66
7492.65
7488.66
7484.99
7481.87
7477.52
7469.56
7466.29
7461.87
7457.51
7453.66
7449.56
7445.96
7441.75
7438.32
7434.74
7431.43
7428.21
7425.18
7422.23
7419.53
7416.9
7414.53
7412.17
7409.97
7407.91
7406.25
7404.41
7403
7401.91
7401.17
7400.44
7400.13
7399.91
7399.82
7400.02
7400.42
7401.07
7401.88
7402.94
7404.15
7405.49
7407.41
7408.79
7411.25
7414.68
7417.83
7421.38
7424.97
7428.74
7432.75
7437
7441.42
7446.02
7450.75
7455.62
7460.62
7465.74
7470.96
7476.26
7481.64
7487.06
7492.53
7498.05
7503.6
7509.17
7514.76
7520.34
7525.94
7531.54
7537.13
7542.71
7548.26
7553.81
7559.32
7564.82
7570.29
7575.72
7581.11
7586.48
7591.81
7597.09
7602.32
7607.48
7612.57
7617.57
7622.48
7627.27
7631.94
7636.46
7640.85
7645.08
7649.16
7653.06
7656.77
7660.32
7663.67
7666.83
7669.79
7672.55
7675.09
7677.43
7679.56
7681.5
7683.23
7684.75
7686.06
7687.17
7688.07
7688.79
7689.33
7689.68
7689.85
7689.85
7689.68
7689.35
7688.87
7688.24
7687.48
7686.58
7685.55
7684.41
7683.16
7681.8
7680.35
7678.8
7677.17
7675.45
7673.66
7671.8
7669.87
7667.87
7665.82
7663.71
7661.55
7659.35
7657.09
7654.79
7652.44
7650.06
7647.64
7645.19
7642.71
7640.2
7637.65
7635.09
7632.49
7629.88
7627.25
7624.6
7621.93
7619.26
7616.59
7613.92
7611.25
7608.59
7605.95
7603.32
7600.71
7598.13
7595.56
7593.03
7590.53
7588.06
7585.63
7583.23
7580.87
7578.55
7576.27
7574.03
7571.84
7569.69
7567.59
7565.53
7563.51
7561.54
7559.63
7557.76
7555.94
7554.16
7552.44
7550.77
7549.15
7547.59
7546.08
7544.62
7543.21
7541.86
7540.56
7539.32
7538.13
7537
7535.92
7534.9
7533.93
7533.02
7532.17
7531.36
7530.62
7529.93
7529.29
7528.71
7528.18
7527.7
7527.28
7526.9
7526.58
7526.31
7526.09
7525.91
7525.78
7525.7
7525.66
7525.67
7525.71
7525.8
7525.92
7526.08
7526.28
7526.51
7526.78
7527.07
7527.39
7527.74
7528.12
7528.52
7528.94
7529.38
7529.84
7530.32
7530.82
7531.32
7531.84
7532.37
7532.91
7533.46
7534.02
7534.58
7535.14
7535.71
7536.28
7536.86
7537.43
7538.01
7538.59
7539.16
7539.73
7540.31
7540.88
7541.45
7542.01
7542.57
7543.13
7543.69
7544.24
7544.79
7545.34
7545.89
7546.43
7546.97
7547.51
7548.05
7548.58
7549.12
7549.65
7550.18
7550.72
7551.25
7551.79
7552.33
7552.87
7553.42
7553.97
7554.52
7555.08
7555.64
7556.22
7556.79
7557.38
7557.97
7558.57
7559.19
7559.81
7560.44
7561.08
7561.74
7562.4
7563.08
7563.77
7564.47
7565.18
7565.91
7566.65
7567.4
7568.17
7568.95
7569.74
7570.55
7571.37
7572.2
7573.04
7573.9
7574.77
7575.65
7576.54
7577.44
7578.35
7579.27
7580.19
7581.13
7582.08
7583.03
7583.99
7584.95
7585.92
7586.89
7587.87
7588.85
7589.84
7590.82
7591.81
7592.79
7593.77
7594.74
7595.71
7596.68
7597.63
7598.58
7599.52
7600.45
7601.36
7602.27
7603.16
7604.04
7604.9
7605.75
7606.57
7607.39
7608.18
7608.97
7609.73
7610.47
7611.19
7611.9
7612.58
7613.25
7613.91
7614.54
7615.15
7615.74
7616.27
7616.82
7617.45
7617.97
7618.51
7619.02
7619.51
7619.99
7620.42
7620.86
7621.25
7621.64
7621.99
7622.34
7622.66
7622.98
7623.24
7623.52
7623.7
7623.95
7624.23
7624.44
7624.65
7624.84
7625
7625.15
7625.27
7625.38
7625.45
7625.52
7625.54
7625.58
7625.57
7625.56
7625.53
7625.49
7625.41
7625.37
7625.22
7625.07
7625
7624.93
7624.79
7624.65
7624.52
7624.37
7624.21
7624.03
7623.84
7623.63
7623.42
7623.19
7622.94
7622.69
7622.42
7622.15
7621.86
7621.55
7621.24
7620.91
7620.57
7620.22
7619.85
7619.47
7619.08
7618.68
7618.26
7617.82
7617.38
7616.92
7616.44
7615.96
7615.45
7614.93
7614.4
7613.85
7613.29
7612.71
7612.12
7611.51
7610.89
7610.25
7609.59
7608.92
7608.23
7607.52
7606.8
7606.07
7605.32
7604.55
7603.76
7602.96
7602.15
7601.32
7600.47
7599.61
7598.74
7597.85
7596.95
7596.03
7595.1
7594.15
7593.2
7592.23
7591.25
7590.25
7589.25
7588.23
7587.21
7586.17
7585.13
7584.07
7583.01
7581.94
7580.86
7579.78
7578.69
7577.59
7576.48
7575.36
7574.25
7573.2
7571.81
7570.92
7661.39
7658.24
7655.85
7654.11
7651.98
7649.58
7647.48
7645.34
7642.94
7640.21
7637.11
7633.83
7630.31
7626.74
7623.12
7619.48
7615.55
7611.3
7606.94
7602.41
7597.56
7592.43
7587.46
7582.78
7578.42
7574.18
7569.94
7565.75
7561.25
7556.21
7551.04
7545.74
7540.2
7534.72
7529.64
7524.76
7519.83
7514.88
7509.77
7504.43
7498.81
7493.02
7487.08
7481.11
7475.16
7469.16
7463.09
7457.1
7451.03
7444.99
7439
7432.95
7426.89
7420.91
7414.92
7408.94
7402.98
7397.07
7391.22
7385.41
7379.69
7374.03
7368.41
7362.87
7357.38
7351.98
7346.66
7341.43
7336.29
7331.26
7326.34
7321.51
7316.79
7312.21
7307.73
7303.36
7299.08
7294.84
7290.61
7286.28
7282.07
7277.98
7274.32
7271.2
7267.01
7259.25
7256.34
7252.07
7249.06
7244.68
7241.45
7237.9
7234.41
7231.19
7228.22
7225.18
7222.49
7219.8
7217.38
7215.03
7212.94
7210.94
7209.19
7207.66
7206.27
7205.17
7203.92
7203.05
7202.44
7202.5
7202.63
7203
7203.51
7204.1
7204.92
7206.08
7207.37
7209.05
7210.98
7213.09
7215.31
7217.97
7220.17
7223.37
7227.55
7231.46
7235.64
7239.92
7244.34
7248.94
7253.72
7258.65
7263.68
7268.88
7274.12
7279.47
7284.87
7290.33
7295.84
7301.38
7306.98
7312.59
7318.23
7323.87
7329.52
7335.15
7340.78
7346.39
7351.99
7357.58
7363.14
7368.67
7374.17
7379.64
7385.08
7390.48
7395.85
7401.16
7406.42
7411.62
7416.74
7421.78
7426.72
7431.55
7436.25
7440.8
7445.22
7449.48
7453.59
7457.52
7461.27
7464.83
7468.2
7471.39
7474.37
7477.14
7479.71
7482.06
7484.21
7486.15
7487.89
7489.41
7490.73
7491.84
7492.75
7493.47
7494
7494.35
7494.52
7494.51
7494.33
7493.99
7493.49
7492.84
7492.07
7491.15
7490.11
7488.95
7487.67
7486.29
7484.81
7483.24
7481.59
7479.85
7478.03
7476.13
7474.17
7472.15
7470.08
7467.94
7465.75
7463.52
7461.23
7458.91
7456.54
7454.13
7451.69
7449.22
7446.71
7444.17
7441.61
7439.03
7436.41
7433.78
7431.12
7428.45
7425.77
7423.09
7420.4
7417.71
7415.03
7412.36
7409.7
7407.06
7404.44
7401.84
7399.27
7396.74
7394.23
7391.76
7389.32
7386.9
7384.54
7382.2
7379.92
7377.68
7375.48
7373.32
7371.21
7369.14
7367.12
7365.15
7363.23
7361.36
7359.53
7357.75
7356.03
7354.35
7352.73
7351.17
7349.65
7348.19
7346.78
7345.43
7344.13
7342.88
7341.69
7340.56
7339.48
7338.45
7337.49
7336.57
7335.72
7334.92
7334.18
7333.48
7332.85
7332.26
7331.74
7331.26
7330.84
7330.47
7330.15
7329.88
7329.66
7329.49
7329.36
7329.28
7329.25
7329.26
7329.31
7329.4
7329.53
7329.7
7329.9
7330.14
7330.41
7330.71
7331.04
7331.39
7331.77
7332.18
7332.61
7333.06
7333.52
7334
7334.5
7335.02
7335.54
7336.08
7336.62
7337.18
7337.74
7338.31
7338.88
7339.45
7340.03
7340.61
7341.19
7341.77
7342.35
7342.93
7343.51
7344.08
7344.66
7345.23
7345.79
7346.36
7346.92
7347.48
7348.04
7348.59
7349.14
7349.68
7350.23
7350.77
7351.31
7351.84
7352.38
7352.91
7353.44
7353.98
7354.51
7355.04
7355.58
7356.11
7356.65
7357.2
7357.74
7358.29
7358.85
7359.41
7359.98
7360.55
7361.14
7361.73
7362.32
7362.93
7363.55
7364.18
7364.82
7365.47
7366.13
7366.81
7367.5
7368.2
7368.91
7369.64
7370.37
7371.13
7371.89
7372.67
7373.47
7374.27
7375.09
7375.93
7376.77
7377.63
7378.5
7379.38
7380.27
7381.18
7382.09
7383.01
7383.94
7384.88
7385.83
7386.79
7387.75
7388.72
7389.7
7390.68
7391.66
7392.65
7393.63
7394.62
7395.61
7396.6
7397.58
7398.56
7399.54
7400.51
7401.47
7402.42
7403.37
7404.3
7405.22
7406.12
7407.02
7407.9
7408.77
7409.61
7410.45
7411.26
7412.06
7412.84
7413.6
7414.34
7415.07
7415.78
7416.47
7417.14
7417.79
7418.36
7418.98
7419.65
7420.23
7420.82
7421.36
7421.9
7422.41
7422.93
7423.41
7423.88
7424.32
7424.74
7425.16
7425.53
7425.92
7426.23
7426.58
7426.8
7427.11
7427.44
7427.7
7427.96
7428.19
7428.4
7428.59
7428.78
7428.93
7429.07
7429.19
7429.29
7429.36
7429.41
7429.44
7429.47
7429.47
7429.44
7429.45
7429.33
7429.23
7429.2
7429.15
7429.03
7428.92
7428.81
7428.67
7428.53
7428.39
7428.23
7428.07
7427.89
7427.7
7427.49
7427.27
7427.05
7426.8
7426.55
7426.28
7426.01
7425.72
7425.41
7425.1
7424.77
7424.43
7424.08
7423.71
7423.34
7422.95
7422.54
7422.12
7421.69
7421.25
7420.79
7420.31
7419.82
7419.32
7418.81
7418.27
7417.73
7417.16
7416.59
7415.99
7415.38
7414.76
7414.12
7413.46
7412.79
7412.1
7411.4
7410.68
7409.94
7409.19
7408.42
7407.64
7406.84
7406.02
7405.19
7404.35
7403.48
7402.61
7401.72
7400.81
7399.89
7398.96
7398.01
7397.05
7396.08
7395.1
7394.1
7393.09
7392.08
7391.05
7390.01
7388.96
7387.91
7386.84
7385.77
7384.69
7383.6
7382.51
7381.41
7380.3
7379.18
7378.07
7377.01
7375.63
7374.73
7466.15
7462.88
7460.46
7458.79
7456.72
7454.28
7452
7449.71
7447.2
7444.4
7441.38
7438.18
7434.74
7431.29
7427.71
7423.99
7420.16
7415.99
7411.59
7407.11
7402.43
7397.52
7392.61
7387.98
7383.52
7379.15
7374.8
7370.41
7365.92
7361
7355.47
7349.98
7344.43
7338.75
7333.47
7328.39
7323.36
7318.38
7313.29
7307.91
7302.38
7296.64
7290.68
7284.75
7278.86
7272.83
7266.81
7260.81
7254.72
7248.65
7242.64
7236.58
7230.53
7224.52
7218.5
7212.49
7206.5
7200.55
7194.66
7188.82
7183.04
7177.32
7171.65
7166.05
7160.54
7155.11
7149.76
7144.48
7139.27
7134.19
7129.2
7124.31
7119.51
7114.82
7110.21
7105.68
7101.24
7096.87
7092.54
7088.23
7083.97
7079.7
7075.34
7071.06
7066.84
7063.05
7059.76
7056.96
7053.24
7046.4
7043.95
7040.62
7037.03
7033.95
7030.85
7027.68
7024.92
7022.36
7019.83
7017.6
7015.38
7013.44
7011.71
7010.1
7008.76
7007.44
7006.69
7005.9
7005.38
7005.29
7004.95
7005.04
7005.69
7006.51
7007.6
7008.9
7010.21
7011.81
7013.72
7015.84
7018.36
7021.11
7024
7027.02
7030.43
7033.37
7037.31
7042.1
7046.63
7051.39
7056.24
7061.2
7066.29
7071.53
7076.84
7082.26
7087.74
7093.28
7098.87
7104.48
7110.13
7115.81
7121.51
7127.24
7132.94
7138.65
7144.34
7150.02
7155.68
7161.34
7166.96
7172.56
7178.12
7183.65
7189.15
7194.61
7200.03
7205.4
7210.72
7215.97
7221.14
7226.23
7231.22
7236.09
7240.83
7245.44
7249.91
7254.21
7258.36
7262.33
7266.12
7269.71
7273.12
7276.33
7279.34
7282.13
7284.73
7287.11
7289.28
7291.24
7292.98
7294.51
7295.84
7296.96
7297.87
7298.59
7299.11
7299.45
7299.61
7299.59
7299.4
7299.04
7298.52
7297.85
7297.05
7296.1
7295.04
7293.84
7292.53
7291.11
7289.6
7288
7286.3
7284.52
7282.66
7280.72
7278.72
7276.67
7274.55
7272.37
7270.14
7267.86
7265.54
7263.17
7260.77
7258.33
7255.85
7253.34
7250.79
7248.23
7245.63
7243.02
7240.37
7237.71
7235.03
7232.33
7229.62
7226.91
7224.2
7221.49
7218.79
7216.1
7213.42
7210.77
7208.13
7205.52
7202.94
7200.39
7197.87
7195.38
7192.92
7190.5
7188.12
7185.78
7183.49
7181.24
7179.03
7176.86
7174.74
7172.66
7170.63
7168.65
7166.73
7164.85
7163.02
7161.23
7159.5
7157.83
7156.2
7154.63
7153.11
7151.64
7150.23
7148.87
7147.57
7146.32
7145.13
7143.99
7142.91
7141.88
7140.91
7140
7139.15
7138.35
7137.61
7136.92
7136.28
7135.7
7135.17
7134.7
7134.29
7133.92
7133.61
7133.34
7133.12
7132.95
7132.83
7132.76
7132.74
7132.75
7132.81
7132.91
7133.04
7133.22
7133.43
7133.68
7133.96
7134.27
7134.6
7134.97
7135.36
7135.77
7136.21
7136.66
7137.14
7137.63
7138.14
7138.66
7139.19
7139.74
7140.29
7140.85
7141.42
7142
7142.58
7143.16
7143.74
7144.33
7144.92
7145.51
7146.09
7146.68
7147.26
7147.84
7148.42
7149
7149.57
7150.14
7150.7
7151.27
7151.82
7152.38
7152.93
7153.48
7154.02
7154.56
7155.1
7155.64
7156.17
7156.7
7157.23
7157.76
7158.29
7158.82
7159.35
7159.89
7160.42
7160.96
7161.51
7162.05
7162.6
7163.16
7163.72
7164.29
7164.87
7165.46
7166.05
7166.65
7167.27
7167.89
7168.53
7169.17
7169.83
7170.51
7171.19
7171.89
7172.6
7173.32
7174.06
7174.81
7175.58
7176.36
7177.15
7177.96
7178.78
7179.62
7180.46
7181.32
7182.2
7183.08
7183.98
7184.89
7185.8
7186.73
7187.67
7188.62
7189.57
7190.53
7191.5
7192.48
7193.46
7194.44
7195.44
7196.43
7197.42
7198.42
7199.42
7200.41
7201.4
7202.39
7203.37
7204.34
7205.31
7206.27
7207.22
7208.16
7209.09
7210
7210.9
7211.79
7212.65
7213.52
7214.34
7215.18
7215.96
7216.76
7217.52
7218.28
7219
7219.71
7220.35
7221.02
7221.74
7222.38
7223.02
7223.62
7224.21
7224.77
7225.34
7225.87
7226.4
7226.9
7227.37
7227.86
7228.28
7228.75
7229.1
7229.51
7229.77
7230.14
7230.52
7230.85
7231.15
7231.44
7231.69
7231.93
7232.17
7232.37
7232.57
7232.74
7232.91
7233.02
7233.14
7233.23
7233.3
7233.37
7233.37
7233.46
7233.35
7233.32
7233.33
7233.3
7233.21
7233.12
7233.03
7232.92
7232.81
7232.69
7232.57
7232.43
7232.29
7232.13
7231.96
7231.78
7231.59
7231.38
7231.16
7230.94
7230.69
7230.44
7230.18
7229.9
7229.61
7229.31
7228.99
7228.67
7228.33
7227.98
7227.61
7227.23
7226.84
7226.44
7226.02
7225.59
7225.15
7224.69
7224.22
7223.73
7223.23
7222.71
7222.18
7221.63
7221.07
7220.5
7219.9
7219.3
7218.67
7218.03
7217.38
7216.71
7216.02
7215.31
7214.59
7213.86
7213.1
7212.34
7211.55
7210.75
7209.93
7209.1
7208.25
7207.39
7206.51
7205.61
7204.71
7203.78
7202.85
7201.9
7200.94
7199.96
7198.97
7197.97
7196.96
7195.94
7194.91
7193.87
7192.82
7191.76
7190.7
7189.62
7188.54
7187.45
7186.35
7185.25
7184.13
7183.02
7181.9
7180.84
7179.45
7178.56
7271.36
7268.04
7265.59
7263.91
7261.9
7259.48
7257.05
7254.65
7252.03
7249.23
7246.3
7243.08
7239.74
7236.31
7232.72
7228.98
7225.11
7220.99
7216.69
7212.27
7207.71
7203.04
7198.39
7193.69
7189.02
7184.4
7179.78
7175.05
7170.15
7165.11
7159.8
7154.38
7148.95
7143.51
7138.17
7132.92
7127.72
7122.5
7117.2
7111.71
7106.12
7100.33
7094.41
7088.46
7082.54
7076.51
7070.53
7064.49
7058.39
7052.27
7046.22
7040.12
7034.07
7028.03
7021.97
7015.91
7009.87
7003.88
6997.94
6992.06
6986.23
6980.44
6974.72
6969.05
6963.5
6958.03
6952.63
6947.3
6942.04
6936.9
6931.85
6926.87
6921.99
6917.18
6912.46
6907.83
6903.27
6898.8
6894.38
6890
6885.67
6881.37
6877.15
6873.04
6868.97
6864.9
6861.03
6857.22
6853.5
6850.31
6847.69
6844.08
6837.87
6835.77
6833.13
6829.7
6827.12
6824.38
6821.85
6819.53
6817.63
6815.55
6813.9
6812.23
6810.99
6809.82
6808.93
6808.15
6807.62
6807.35
6807.44
6807.65
6808.17
6808.53
6809.23
6810.62
6812.21
6814.11
6816.22
6818.35
6820.77
6823.48
6826.38
6829.66
6833.16
6836.79
6840.59
6844.67
6848.38
6852.95
6858.33
6863.44
6868.67
6874.02
6879.4
6884.88
6890.38
6896.03
6901.68
6907.39
6913.14
6918.89
6924.7
6930.49
6936.3
6942.07
6947.87
6953.63
6959.4
6965.12
6970.84
6976.51
6982.16
6987.78
6993.35
6998.89
7004.38
7009.83
7015.21
7020.53
7025.77
7030.92
7035.96
7040.89
7045.7
7050.37
7054.89
7059.26
7063.46
7067.48
7071.32
7074.96
7078.42
7081.66
7084.71
7087.54
7090.17
7092.58
7094.78
7096.76
7098.51
7100.06
7101.39
7102.52
7103.44
7104.15
7104.67
7104.99
7105.14
7105.1
7104.89
7104.51
7103.97
7103.26
7102.41
7101.43
7100.33
7099.1
7097.74
7096.28
7094.72
7093.06
7091.31
7089.47
7087.55
7085.57
7083.52
7081.4
7079.23
7076.99
7074.71
7072.38
7070
7067.58
7065.12
7062.63
7060.1
7057.54
7054.95
7052.34
7049.7
7047.04
7044.36
7041.66
7038.95
7036.21
7033.48
7030.73
7027.99
7025.26
7022.53
7019.81
7017.11
7014.43
7011.77
7009.14
7006.54
7003.97
7001.43
6998.93
6996.46
6994.02
6991.63
6989.29
6986.98
6984.72
6982.49
6980.31
6978.17
6976.09
6974.05
6972.07
6970.13
6968.24
6966.4
6964.61
6962.87
6961.19
6959.56
6957.98
6956.45
6954.98
6953.56
6952.19
6950.89
6949.64
6948.44
6947.3
6946.22
6945.19
6944.22
6943.31
6942.45
6941.65
6940.91
6940.22
6939.59
6939.01
6938.49
6938.02
6937.61
6937.25
6936.94
6936.68
6936.47
6936.31
6936.2
6936.13
6936.12
6936.14
6936.21
6936.31
6936.46
6936.65
6936.87
6937.13
6937.42
6937.74
6938.09
6938.46
6938.86
6939.29
6939.74
6940.2
6940.69
6941.2
6941.72
6942.25
6942.79
6943.35
6943.92
6944.49
6945.07
6945.65
6946.25
6946.84
6947.43
6948.03
6948.63
6949.22
6949.82
6950.41
6951
6951.59
6952.18
6952.76
6953.34
6953.91
6954.48
6955.05
6955.61
6956.17
6956.72
6957.27
6957.81
6958.35
6958.89
6959.43
6959.96
6960.49
6961.02
6961.55
6962.07
6962.6
6963.13
6963.65
6964.19
6964.72
6965.26
6965.8
6966.34
6966.89
6967.45
6968.01
6968.58
6969.16
6969.75
6970.35
6970.95
6971.57
6972.2
6972.85
6973.5
6974.17
6974.85
6975.54
6976.25
6976.97
6977.71
6978.46
6979.23
6980.01
6980.8
6981.61
6982.43
6983.27
6984.12
6984.99
6985.86
6986.75
6987.65
6988.57
6989.49
6990.43
6991.37
6992.33
6993.29
6994.26
6995.24
6996.22
6997.21
6998.21
6999.21
7000.21
7001.22
7002.22
7003.23
7004.23
7005.23
7006.23
7007.22
7008.2
7009.18
7010.15
7011.11
7012.05
7013
7013.9
7014.83
7015.7
7016.59
7017.43
7018.28
7019.11
7019.92
7020.71
7021.48
7022.18
7022.91
7023.69
7024.38
7025.07
7025.73
7026.38
7026.99
7027.62
7028.2
7028.79
7029.33
7029.88
7030.4
7030.91
7031.38
7031.84
7032.22
7032.64
7033.13
7033.5
7033.92
7034.24
7034.61
7034.89
7035.2
7035.48
7035.75
7035.99
7036.21
7036.43
7036.6
7036.78
7036.93
7037.05
7037.18
7037.3
7037.36
7037.28
7037.32
7037.37
7037.37
7037.31
7037.25
7037.19
7037.11
7037.03
7036.94
7036.85
7036.74
7036.62
7036.5
7036.36
7036.21
7036.05
7035.88
7035.7
7035.51
7035.3
7035.08
7034.85
7034.61
7034.36
7034.1
7033.82
7033.53
7033.23
7032.92
7032.59
7032.25
7031.9
7031.54
7031.16
7030.77
7030.37
7029.96
7029.53
7029.08
7028.63
7028.16
7027.67
7027.17
7026.65
7026.12
7025.58
7025.02
7024.44
7023.85
7023.25
7022.62
7021.99
7021.33
7020.66
7019.97
7019.27
7018.55
7017.81
7017.06
7016.29
7015.5
7014.7
7013.88
7013.04
7012.19
7011.33
7010.44
7009.55
7008.63
7007.71
7006.77
7005.81
7004.85
7003.87
7002.88
7001.87
7000.86
6999.83
6998.8
6997.75
6996.7
6995.63
6994.56
6993.48
6992.4
6991.3
6990.2
6989.1
6987.98
6986.86
6985.74
6984.69
6983.3
6982.4
7076.96
7073.6
7071.17
7069.46
7067.46
7065.05
7062.51
7060.05
7057.41
7054.61
7051.66
7048.42
7045.12
7041.66
7038.04
7034.31
7030.42
7026.35
7022.11
7017.72
7013.2
7008.55
7003.82
6999.17
6994.48
6989.75
6984.98
6980.12
6975.22
6970.05
6964.7
6959.3
6953.85
6948.38
6942.95
6937.56
6932.17
6926.78
6921.28
6915.74
6909.98
6904.15
6898.23
6892.26
6886.27
6880.24
6874.22
6868.13
6861.99
6855.85
6849.74
6843.6
6837.51
6831.42
6825.3
6819.19
6813.1
6807.06
6801.07
6795.14
6789.25
6783.42
6777.64
6771.92
6766.3
6760.77
6755.31
6749.91
6744.61
6739.39
6734.27
6729.21
6724.22
6719.32
6714.49
6709.77
6705.12
6700.55
6696.05
6691.62
6687.24
6682.93
6678.69
6674.53
6670.43
6666.42
6662.52
6658.76
6655.07
6651.39
6647.81
6644.24
6641.2
6638.72
6635.58
6630.15
6628.34
6626.24
6623.34
6621.27
6619
6617
6615.26
6613.91
6612.44
6611.34
6610.44
6609.71
6609.31
6609.08
6609.13
6609.3
6609.69
6610.49
6611.43
6612.75
6613.82
6615.3
6617.52
6619.95
6622.71
6625.6
6628.51
6631.69
6635.16
6638.8
6642.84
6647.03
6651.33
6655.8
6660.51
6664.9
6670
6675.84
6681.39
6687.15
6692.69
6698.48
6704.21
6710.06
6715.89
6721.79
6727.67
6733.61
6739.51
6745.44
6751.32
6757.22
6763.08
6768.95
6774.76
6780.55
6786.31
6792.04
6797.71
6803.35
6808.93
6814.47
6819.94
6825.35
6830.66
6835.9
6841.02
6846.02
6850.9
6855.65
6860.24
6864.67
6868.93
6873.01
6876.92
6880.62
6884.13
6887.42
6890.51
6893.38
6896.05
6898.5
6900.72
6902.72
6904.5
6906.06
6907.4
6908.53
6909.46
6910.17
6910.68
6910.98
6911.1
6911.04
6910.8
6910.39
6909.81
6909.07
6908.17
6907.15
6905.98
6904.7
6903.3
6901.78
6900.15
6898.42
6896.61
6894.7
6892.71
6890.66
6888.54
6886.35
6884.1
6881.8
6879.44
6877.04
6874.6
6872.11
6869.59
6867.03
6864.44
6861.82
6859.17
6856.5
6853.81
6851.09
6848.36
6845.62
6842.86
6840.09
6837.32
6834.54
6831.76
6828.99
6826.23
6823.48
6820.75
6818.04
6815.36
6812.7
6810.08
6807.49
6804.93
6802.4
6799.92
6797.47
6795.06
6792.7
6790.38
6788.09
6785.86
6783.66
6781.52
6779.42
6777.37
6775.37
6773.42
6771.52
6769.68
6767.88
6766.13
6764.44
6762.8
6761.21
6759.67
6758.19
6756.77
6755.4
6754.09
6752.83
6751.63
6750.48
6749.4
6748.37
6747.39
6746.48
6745.62
6744.82
6744.08
6743.39
6742.76
6742.19
6741.67
6741.21
6740.8
6740.45
6740.15
6739.9
6739.7
6739.55
6739.44
6739.39
6739.38
6739.42
6739.5
6739.62
6739.78
6739.98
6740.22
6740.49
6740.79
6741.12
6741.49
6741.88
6742.3
6742.74
6743.2
6743.68
6744.19
6744.7
6745.24
6745.79
6746.35
6746.92
6747.5
6748.08
6748.68
6749.28
6749.88
6750.49
6751.1
6751.71
6752.31
6752.92
6753.53
6754.13
6754.74
6755.33
6755.93
6756.52
6757.1
6757.68
6758.26
6758.83
6759.39
6759.95
6760.51
6761.06
6761.61
6762.15
6762.69
6763.22
6763.75
6764.28
6764.8
6765.32
6765.85
6766.37
6766.89
6767.41
6767.94
6768.46
6768.99
6769.52
6770.06
6770.6
6771.15
6771.71
6772.27
6772.84
6773.42
6774.01
6774.61
6775.23
6775.85
6776.48
6777.13
6777.79
6778.47
6779.16
6779.87
6780.59
6781.32
6782.07
6782.84
6783.62
6784.41
6785.22
6786.05
6786.89
6787.74
6788.61
6789.5
6790.39
6791.3
6792.22
6793.16
6794.1
6795.05
6796.02
6796.99
6797.97
6798.96
6799.95
6800.96
6801.96
6802.97
6803.99
6805
6806.02
6807.04
6808.05
6809.06
6810.07
6811.07
6812.07
6813.06
6814.03
6815
6815.96
6816.9
6817.83
6818.74
6819.66
6820.53
6821.42
6822.26
6823.1
6823.86
6824.66
6825.49
6826.25
6827
6827.71
6828.42
6829.1
6829.79
6830.43
6831.08
6831.68
6832.28
6832.86
6833.42
6833.96
6834.48
6834.92
6835.38
6835.94
6836.36
6836.84
6837.21
6837.63
6837.97
6838.34
6838.66
6838.99
6839.29
6839.56
6839.84
6840.06
6840.29
6840.49
6840.69
6840.81
6841.07
6841.05
6841.19
6841.3
6841.33
6841.33
6841.32
6841.3
6841.27
6841.22
6841.17
6841.12
6841.05
6840.98
6840.89
6840.8
6840.69
6840.57
6840.44
6840.31
6840.16
6840
6839.83
6839.65
6839.45
6839.25
6839.03
6838.8
6838.56
6838.31
6838.05
6837.77
6837.48
6837.19
6836.87
6836.55
6836.21
6835.86
6835.5
6835.13
6834.74
6834.34
6833.92
6833.5
6833.05
6832.6
6832.13
6831.65
6831.15
6830.63
6830.11
6829.56
6829
6828.43
6827.84
6827.24
6826.61
6825.98
6825.32
6824.65
6823.96
6823.26
6822.54
6821.8
6821.05
6820.28
6819.49
6818.68
6817.86
6817.02
6816.17
6815.3
6814.41
6813.51
6812.6
6811.66
6810.72
6809.76
6808.79
6807.8
6806.81
6805.8
6804.78
6803.75
6802.7
6801.65
6800.59
6799.52
6798.45
6797.36
6796.27
6795.17
6794.07
6792.96
6791.84
6790.72
6789.6
6788.54
6787.15
6786.25
6883.09
6879.59
6877.19
6875.48
6873.47
6871.08
6868.45
6865.91
6863.2
6860.33
6857.37
6854.13
6850.82
6847.34
6843.72
6839.97
6836.07
6832.03
6827.85
6823.46
6818.97
6814.39
6809.7
6804.97
6800.18
6795.34
6790.43
6785.43
6780.4
6775.17
6769.8
6764.37
6758.9
6753.4
6747.89
6742.36
6736.84
6731.29
6725.61
6719.86
6714.03
6708.13
6702.16
6696.14
6690.09
6684.01
6677.91
6671.75
6665.56
6659.35
6653.18
6647.01
6640.84
6634.67
6628.49
6622.32
6616.18
6610.09
6604.05
6598.06
6592.12
6586.23
6580.4
6574.63
6568.92
6563.32
6557.79
6552.32
6546.94
6541.66
6536.45
6531.31
6526.24
6521.25
6516.33
6511.5
6506.78
6502.12
6497.55
6493.05
6488.63
6484.28
6480
6475.81
6471.7
6467.67
6463.77
6459.98
6456.26
6452.61
6449.09
6445.66
6442.27
6439.06
6435.76
6433
6430.79
6428
6423.34
6421.88
6420.55
6418.01
6416.6
6414.82
6413.58
6412.37
6411.81
6410.91
6410.63
6410.24
6410.36
6410.57
6411.13
6411.85
6412.78
6413.86
6415.48
6417.2
6419.4
6421.23
6423.45
6426.43
6429.66
6433.18
6436.95
6440.6
6444.58
6448.73
6453.18
6457.78
6462.78
6467.81
6473.07
6478.26
6483.72
6488.76
6494.47
6500.66
6506.65
6512.54
6518.6
6524.58
6530.65
6536.65
6542.74
6548.76
6554.85
6560.85
6566.88
6572.83
6578.79
6584.7
6590.6
6596.44
6602.25
6607.99
6613.69
6619.33
6624.91
6630.41
6635.83
6641.15
6646.36
6651.46
6656.42
6661.26
6665.94
6670.45
6674.79
6678.94
6682.92
6686.69
6690.27
6693.62
6696.76
6699.68
6702.39
6704.88
6707.14
6709.16
6710.96
6712.53
6713.88
6715.01
6715.94
6716.65
6717.14
6717.43
6717.51
6717.41
6717.14
6716.69
6716.06
6715.28
6714.33
6713.24
6712.01
6710.65
6709.18
6707.59
6705.88
6704.07
6702.17
6700.18
6698.12
6695.98
6693.77
6691.49
6689.15
6686.76
6684.32
6681.83
6679.31
6676.74
6674.14
6671.5
6668.83
6666.14
6663.43
6660.69
6657.93
6655.15
6652.37
6649.57
6646.76
6643.95
6641.13
6638.31
6635.49
6632.68
6629.88
6627.1
6624.33
6621.59
6618.88
6616.19
6613.54
6610.92
6608.34
6605.8
6603.29
6600.82
6598.4
6596.01
6593.67
6591.38
6589.13
6586.92
6584.76
6582.65
6580.59
6578.58
6576.61
6574.7
6572.84
6571.03
6569.28
6567.57
6565.92
6564.32
6562.78
6561.29
6559.85
6558.48
6557.16
6555.9
6554.69
6553.54
6552.45
6551.42
6550.44
6549.53
6548.67
6547.86
6547.12
6546.44
6545.81
6545.25
6544.73
6544.28
6543.87
6543.53
6543.23
6542.99
6542.81
6542.67
6542.58
6542.54
6542.54
6542.59
6542.69
6542.82
6543
6543.22
6543.47
6543.75
6544.08
6544.43
6544.81
6545.22
6545.66
6546.11
6546.59
6547.1
6547.62
6548.15
6548.71
6549.27
6549.85
6550.44
6551.04
6551.64
6552.25
6552.87
6553.49
6554.11
6554.74
6555.36
6555.98
6556.61
6557.23
6557.84
6558.46
6559.07
6559.67
6560.27
6560.86
6561.45
6562.03
6562.61
6563.18
6563.75
6564.3
6564.86
6565.4
6565.94
6566.48
6567.01
6567.54
6568.06
6568.58
6569.1
6569.62
6570.14
6570.65
6571.16
6571.68
6572.2
6572.72
6573.24
6573.77
6574.3
6574.84
6575.39
6575.94
6576.5
6577.07
6577.65
6578.24
6578.85
6579.46
6580.09
6580.73
6581.39
6582.06
6582.74
6583.44
6584.16
6584.89
6585.64
6586.4
6587.18
6587.98
6588.79
6589.62
6590.47
6591.33
6592.2
6593.09
6594
6594.91
6595.84
6596.79
6597.74
6598.71
6599.68
6600.67
6601.67
6602.67
6603.68
6604.69
6605.71
6606.74
6607.77
6608.8
6609.83
6610.86
6611.89
6612.92
6613.94
6614.96