/*--------------------------------*- C++ -*----------------------------------*\
| =========                 |                                                 |
| \\      /  F ield         | OpenFOAM: The Open Source CFD Toolbox           |
|  \\    /   O peration     | Version:  v2006                                 |
|   \\  /    A nd           | Website:  www.openfoam.com                      |
|    \\/     M anipulation  |                                                 |
\*---------------------------------------------------------------------------*/
FoamFile
{
    version     2.0;
    format      ascii;
    class       volScalarField;
    location    "10";
    object      p_rgh;
}
// * * * * * * * * * * * * * * * * * * * * * * * * * * * * * * * * * * * * * //

dimensions      [1 -1 -2 0 0 0 0];


internalField   nonuniform List<scalar> 
33000
(
8151.13
8147.99
8145.79
8144.08
8142.03
8139.98
8138.08
8135.99
8133.68
8131.02
8128.07
8124.72
8121.04
8117.2
8113.31
8109.43
8105.42
8101.22
8096.88
8092.42
8087.72
8082.8
8077.99
8073.44
8069.03
8064.68
8060.38
8056.01
8051.38
8046.47
8041.34
8036.24
8031.03
8025.87
8020.93
8015.94
8010.95
8005.95
8000.73
7995.23
7989.47
7983.6
7977.69
7971.73
7965.76
7959.77
7953.74
7947.71
7941.65
7935.62
7929.62
7923.62
7917.59
7911.6
7905.63
7899.69
7893.78
7887.91
7882.09
7876.32
7870.63
7865
7859.39
7853.93
7848.53
7843.18
7837.91
7832.72
7827.63
7822.66
7817.81
7813.09
7808.54
7804.15
7800
7796.17
7792.7
7789.6
7785.49
7777.62
7774.46
7769.84
7765.14
7760.89
7756.75
7752.01
7748.22
7743.96
7740.4
7736.41
7732.98
7729.39
7726.12
7722.87
7719.86
7716.9
7714.21
7711.64
7709.24
7706.93
7704.65
7702.5
7700.89
7699.26
7697.93
7696.79
7695.84
7695.14
7694.68
7694.54
7694.51
7694.77
7695.07
7695.67
7696.17
7697.25
7697.79
7699.34
7701.9
7704.04
7706.78
7709.63
7712.74
7716.08
7719.7
7723.48
7727.51
7731.76
7736.2
7740.78
7745.49
7750.34
7755.28
7760.36
7765.58
7770.89
7776.25
7781.65
7787.1
7792.6
7798.12
7803.66
7809.21
7814.74
7820.32
7825.9
7831.5
7837.06
7842.6
7848.09
7853.6
7859.1
7864.56
7869.97
7875.34
7880.67
7885.97
7891.24
7896.47
7901.62
7906.69
7911.67
7916.56
7921.33
7925.97
7930.48
7934.86
7939.08
7943.14
7947.02
7950.72
7954.25
7957.6
7960.75
7963.7
7966.44
7968.96
7971.28
7973.43
7975.37
7977.1
7978.61
7979.91
7981.02
7981.92
7982.65
7983.19
7983.54
7983.7
7983.69
7983.52
7983.22
7982.75
7982.14
7981.38
7980.48
7979.45
7978.31
7977.08
7975.75
7974.32
7972.78
7971.15
7969.44
7967.67
7965.82
7963.9
7961.92
7959.87
7957.78
7955.65
7953.45
7951.21
7948.91
7946.57
7944.2
7941.8
7939.37
7936.9
7934.4
7931.86
7929.29
7926.71
7924.11
7921.5
7918.86
7916.21
7913.54
7910.86
7908.2
7905.54
7902.9
7900.27
7897.65
7895.04
7892.46
7889.9
7887.38
7884.87
7882.41
7879.98
7877.59
7875.24
7872.92
7870.64
7868.4
7866.2
7864.07
7861.97
7859.92
7857.91
7855.94
7854.01
7852.15
7850.33
7848.57
7846.85
7845.18
7843.56
7842
7840.48
7839.03
7837.63
7836.27
7834.97
7833.73
7832.54
7831.42
7830.34
7829.32
7828.36
7827.44
7826.58
7825.78
7825.03
7824.35
7823.71
7823.13
7822.6
7822.12
7821.69
7821.32
7820.99
7820.72
7820.5
7820.32
7820.19
7820.11
7820.06
7820.06
7820.11
7820.19
7820.32
7820.48
7820.67
7820.9
7821.16
7821.45
7821.77
7822.12
7822.49
7822.89
7823.31
7823.75
7824.2
7824.68
7825.17
7825.68
7826.19
7826.72
7827.26
7827.8
7828.36
7828.91
7829.48
7830.04
7830.61
7831.18
7831.76
7832.33
7832.9
7833.48
7834.05
7834.62
7835.19
7835.75
7836.32
7836.88
7837.44
7837.99
7838.55
7839.1
7839.65
7840.19
7840.73
7841.27
7841.81
7842.35
7842.88
7843.42
7843.95
7844.49
7845.02
7845.56
7846.1
7846.64
7847.18
7847.73
7848.28
7848.84
7849.4
7849.96
7850.53
7851.11
7851.7
7852.3
7852.9
7853.51
7854.14
7854.77
7855.41
7856.07
7856.73
7857.41
7858.1
7858.8
7859.52
7860.25
7860.99
7861.74
7862.51
7863.29
7864.08
7864.89
7865.7
7866.53
7867.38
7868.23
7869.1
7869.98
7870.87
7871.76
7872.67
7873.59
7874.52
7875.46
7876.4
7877.35
7878.3
7879.27
7880.23
7881.21
7882.18
7883.16
7884.14
7885.12
7886.1
7887.08
7888.06
7889.03
7890
7890.96
7891.92
7892.86
7893.8
7894.72
7895.64
7896.54
7897.43
7898.31
7899.17
7900.01
7900.84
7901.65
7902.45
7903.23
7903.99
7904.73
7905.45
7906.16
7906.85
7907.51
7908.16
7908.78
7909.4
7910
7910.58
7911.13
7911.69
7912.15
7912.68
7913.25
7913.73
7914.22
7914.66
7915.1
7915.5
7915.89
7916.25
7916.59
7916.92
7917.21
7917.5
7917.77
7918.02
7918.24
7918.48
7918.62
7918.82
7919.07
7919.22
7919.4
7919.5
7919.63
7919.69
7919.77
7919.8
7919.83
7919.83
7919.82
7919.79
7919.74
7919.67
7919.61
7919.52
7919.41
7919.31
7919.16
7918.96
7918.88
7918.78
7918.63
7918.47
7918.3
7918.11
7917.9
7917.68
7917.45
7917.21
7916.96
7916.69
7916.41
7916.12
7915.82
7915.51
7915.18
7914.84
7914.48
7914.12
7913.74
7913.35
7912.94
7912.52
7912.09
7911.64
7911.18
7910.71
7910.22
7909.72
7909.2
7908.67
7908.12
7907.56
7906.98
7906.38
7905.77
7905.15
7904.51
7903.85
7903.18
7902.49
7901.79
7901.07
7900.33
7899.58
7898.81
7898.03
7897.23
7896.41
7895.58
7894.74
7893.88
7893.01
7892.12
7891.21
7890.3
7889.37
7888.42
7887.47
7886.5
7885.52
7884.53
7883.52
7882.51
7881.49
7880.45
7879.41
7878.36
7877.29
7876.23
7875.15
7874.06
7872.97
7871.87
7870.77
7869.65
7868.54
7867.49
7866.1
7865.21
8151.21
8148.18
8145.74
8143.86
8141.75
8139.63
8137.73
8135.71
8133.42
8130.75
8127.73
8124.35
8120.71
8116.98
8113.24
8109.44
8105.35
8101.19
8096.83
8092.36
8087.7
8082.69
8077.8
8073.28
8068.89
8064.54
8060.37
8056.28
8051.76
8046.76
8041.59
8036.39
8031.14
8025.9
8020.87
8015.93
8010.92
8005.91
8000.64
7995.12
7989.38
7983.57
7977.67
7971.71
7965.63
7959.63
7953.66
7947.68
7941.6
7935.51
7929.44
7923.5
7917.51
7911.53
7905.55
7899.59
7893.66
7887.76
7881.93
7876.15
7870.36
7864.64
7859.07
7853.56
7848.19
7842.92
7837.65
7832.44
7827.33
7822.32
7817.44
7812.65
7807.94
7803.4
7799.07
7794.89
7790.92
7786.94
7782.94
7779.26
7776.14
7771.79
7763.84
7760.56
7756.08
7751.66
7747.88
7743.85
7740.26
7736.05
7732.62
7729.05
7725.73
7722.51
7719.45
7716.42
7713.73
7711.17
7708.82
7706.46
7704.27
7702.21
7700.55
7698.69
7697.22
7696.12
7695.38
7694.65
7694.4
7694.2
7694.12
7694.32
7694.72
7695.32
7696.07
7697.13
7698.36
7699.77
7701.7
7703.07
7705.51
7708.96
7712.13
7715.68
7719.24
7722.95
7726.95
7731.2
7735.68
7740.31
7745.05
7749.9
7754.84
7759.94
7765.19
7770.54
7775.93
7781.35
7786.82
7792.34
7797.9
7803.46
7809.02
7814.56
7820.16
7825.75
7831.38
7836.99
7842.54
7848.02
7853.53
7859.08
7864.58
7870.01
7875.41
7880.74
7886.06
7891.34
7896.6
7901.77
7906.86
7911.86
7916.77
7921.57
7926.23
7930.74
7935.11
7939.36
7943.45
7947.35
7951.03
7954.58
7957.96
7961.13
7964.09
7966.84
7969.35
7971.66
7973.8
7975.77
7977.52
7979.05
7980.36
7981.46
7982.32
7983.05
7983.61
7983.98
7984.13
7984.1
7983.93
7983.6
7983.15
7982.54
7981.77
7980.86
7979.81
7978.66
7977.42
7976.1
7974.65
7973.1
7971.44
7969.73
7967.94
7966.09
7964.16
7962.15
7960.07
7957.99
7955.85
7953.64
7951.39
7949.07
7946.7
7944.32
7941.91
7939.49
7937.01
7934.49
7931.94
7929.35
7926.75
7924.14
7921.53
7918.9
7916.23
7913.56
7910.86
7908.18
7905.51
7902.86
7900.25
7897.62
7895.01
7892.43
7889.86
7887.32
7884.8
7882.33
7879.9
7877.53
7875.17
7872.85
7870.57
7868.31
7866.11
7863.98
7861.89
7859.83
7857.81
7855.84
7853.91
7852.04
7850.22
7848.46
7846.74
7845.07
7843.45
7841.88
7840.37
7838.92
7837.51
7836.15
7834.84
7833.6
7832.42
7831.3
7830.22
7829.2
7828.23
7827.32
7826.45
7825.65
7824.9
7824.22
7823.59
7823.01
7822.48
7822
7821.57
7821.19
7820.87
7820.6
7820.39
7820.21
7820.08
7820
7819.96
7819.96
7820
7820.09
7820.22
7820.38
7820.58
7820.81
7821.07
7821.36
7821.69
7822.04
7822.42
7822.82
7823.24
7823.68
7824.14
7824.62
7825.12
7825.62
7826.14
7826.67
7827.21
7827.76
7828.32
7828.88
7829.44
7830.01
7830.58
7831.16
7831.73
7832.31
7832.89
7833.46
7834.03
7834.61
7835.18
7835.74
7836.31
7836.87
7837.43
7837.99
7838.54
7839.09
7839.64
7840.19
7840.73
7841.27
7841.81
7842.34
7842.88
7843.42
7843.95
7844.48
7845.02
7845.56
7846.09
7846.63
7847.17
7847.72
7848.27
7848.82
7849.38
7849.94
7850.52
7851.09
7851.68
7852.27
7852.87
7853.49
7854.11
7854.74
7855.38
7856.03
7856.7
7857.38
7858.07
7858.77
7859.48
7860.21
7860.95
7861.7
7862.47
7863.25
7864.04
7864.85
7865.67
7866.5
7867.34
7868.2
7869.06
7869.94
7870.83
7871.73
7872.65
7873.57
7874.49
7875.43
7876.38
7877.33
7878.29
7879.25
7880.22
7881.19
7882.17
7883.15
7884.14
7885.12
7886.1
7887.09
7888.07
7889.04
7890.01
7890.97
7891.93
7892.88
7893.82
7894.75
7895.66
7896.57
7897.46
7898.34
7899.2
7900.05
7900.87
7901.69
7902.48
7903.27
7904.03
7904.77
7905.49
7906.2
7906.88
7907.55
7908.21
7908.84
7909.45
7910.04
7910.57
7911.12
7911.75
7912.27
7912.81
7913.32
7913.81
7914.29
7914.72
7915.16
7915.55
7915.94
7916.29
7916.64
7916.96
7917.27
7917.54
7917.82
7918
7918.25
7918.53
7918.74
7918.95
7919.14
7919.3
7919.45
7919.57
7919.68
7919.75
7919.82
7919.84
7919.88
7919.87
7919.86
7919.83
7919.79
7919.71
7919.67
7919.52
7919.37
7919.3
7919.23
7919.08
7918.95
7918.82
7918.67
7918.51
7918.33
7918.14
7917.94
7917.72
7917.49
7917.25
7917
7916.73
7916.45
7916.16
7915.86
7915.54
7915.22
7914.88
7914.52
7914.16
7913.78
7913.38
7912.98
7912.56
7912.13
7911.68
7911.22
7910.74
7910.26
7909.75
7909.23
7908.7
7908.15
7907.59
7907.01
7906.42
7905.81
7905.19
7904.55
7903.89
7903.22
7902.53
7901.83
7901.1
7900.37
7899.62
7898.85
7898.06
7897.27
7896.45
7895.62
7894.77
7893.91
7893.04
7892.15
7891.25
7890.33
7889.4
7888.45
7887.49
7886.53
7885.54
7884.55
7883.55
7882.53
7881.51
7880.47
7879.43
7878.37
7877.31
7876.24
7875.16
7874.08
7872.98
7871.88
7870.78
7869.66
7868.55
7867.5
7866.11
7865.22
8151.89
8148.74
8146.35
8144.61
8142.48
8140.07
8137.98
8135.84
8133.44
8130.7
8127.6
8124.32
8120.72
8116.92
8113.3
8109.71
8105.96
8101.79
8097.43
8092.91
8088.06
8082.93
8077.96
8073.28
8068.92
8064.68
8060.44
8056.25
8051.75
8046.7
8041.53
8036.22
8030.68
8025.21
8020.13
8015.26
8010.33
8005.38
8000.26
7994.83
7989.17
7983.45
7977.56
7971.54
7965.31
7959.33
7953.47
7947.59
7941.51
7935.33
7929.23
7923.22
7917.33
7911.4
7905.42
7899.44
7893.47
7887.45
7881.47
7875.67
7870.02
7864.46
7858.85
7853.24
7847.51
7842.11
7836.91
7831.87
7826.78
7821.76
7816.84
7811.98
7807.11
7802.45
7797.98
7793.77
7789.57
7785.34
7781.11
7776.78
7772.57
7768.48
7764.82
7761.7
7757.49
7749.72
7746.77
7742.52
7739.53
7735.18
7731.95
7728.4
7724.91
7721.67
7718.63
7715.51
7712.93
7710.28
7707.87
7705.49
7703.35
7701.39
7699.68
7698.15
7696.76
7695.58
7694.27
7693.47
7692.94
7693
7693.13
7693.5
7694
7694.5
7695.24
7696.39
7697.71
7699.52
7701.47
7703.58
7705.78
7708.43
7710.66
7713.86
7718
7721.8
7725.98
7730.27
7734.8
7739.43
7744.19
7749.02
7754.01
7759.22
7764.57
7769.97
7775.36
7780.79
7786.22
7791.82
7797.46
7803.08
7808.68
7814.23
7819.88
7825.53
7831.24
7836.86
7842.37
7847.92
7853.48
7859.11
7864.66
7870.08
7875.45
7880.92
7886.34
7891.65
7896.89
7902
7907.13
7912.23
7917.21
7922.04
7926.74
7931.26
7935.62
7939.93
7944.08
7947.99
7951.67
7955.23
7958.66
7961.88
7964.87
7967.64
7970.16
7972.45
7974.6
7976.55
7978.35
7979.91
7981.23
7982.33
7983.16
7983.87
7984.45
7984.84
7985.01
7984.98
7984.75
7984.4
7983.93
7983.33
7982.56
7981.63
7980.54
7979.37
7978.12
7976.78
7975.31
7973.71
7972.04
7970.3
7968.51
7966.62
7964.66
7962.59
7960.5
7958.39
7956.25
7954.02
7951.73
7949.39
7946.98
7944.56
7942.12
7939.7
7937.21
7934.67
7932.1
7929.47
7926.85
7924.21
7921.59
7918.95
7916.27
7913.58
7910.86
7908.15
7905.48
7902.85
7900.2
7897.56
7894.94
7892.32
7889.72
7887.18
7884.67
7882.23
7879.81
7877.4
7875.03
7872.7
7870.39
7868.13
7865.93
7863.79
7861.71
7859.64
7857.62
7855.64
7853.7
7851.84
7850.03
7848.25
7846.51
7844.82
7843.21
7841.67
7840.15
7838.69
7837.28
7835.91
7834.6
7833.35
7832.17
7831.06
7829.98
7828.95
7827.99
7827.07
7826.21
7825.4
7824.65
7823.96
7823.34
7822.76
7822.24
7821.76
7821.33
7820.95
7820.63
7820.37
7820.16
7819.99
7819.86
7819.78
7819.75
7819.75
7819.8
7819.9
7820.03
7820.19
7820.39
7820.64
7820.91
7821.21
7821.53
7821.88
7822.26
7822.68
7823.11
7823.55
7824.02
7824.5
7825
7825.52
7826.04
7826.58
7827.12
7827.68
7828.24
7828.81
7829.37
7829.95
7830.52
7831.1
7831.69
7832.27
7832.85
7833.43
7834
7834.58
7835.16
7835.73
7836.3
7836.86
7837.42
7837.98
7838.54
7839.09
7839.64
7840.18
7840.73
7841.27
7841.8
7842.34
7842.88
7843.41
7843.94
7844.48
7845.01
7845.54
7846.08
7846.61
7847.15
7847.7
7848.24
7848.79
7849.35
7849.91
7850.48
7851.05
7851.64
7852.23
7852.82
7853.43
7854.05
7854.68
7855.32
7855.97
7856.63
7857.31
7858
7858.7
7859.41
7860.13
7860.87
7861.63
7862.39
7863.17
7863.96
7864.77
7865.59
7866.43
7867.27
7868.13
7869
7869.88
7870.77
7871.67
7872.59
7873.51
7874.44
7875.38
7876.33
7877.29
7878.25
7879.22
7880.2
7881.18
7882.16
7883.15
7884.13
7885.12
7886.11
7887.1
7888.08
7889.06
7890.04
7891.01
7891.97
7892.92
7893.87
7894.79
7895.72
7896.62
7897.52
7898.39
7899.26
7900.11
7900.95
7901.76
7902.56
7903.34
7904.1
7904.84
7905.57
7906.28
7906.97
7907.64
7908.29
7908.86
7909.48
7910.15
7910.73
7911.32
7911.86
7912.4
7912.91
7913.43
7913.91
7914.38
7914.82
7915.24
7915.66
7916.03
7916.42
7916.73
7917.08
7917.3
7917.6
7917.93
7918.2
7918.46
7918.69
7918.9
7919.09
7919.28
7919.42
7919.57
7919.69
7919.79
7919.86
7919.91
7919.94
7919.97
7919.97
7919.94
7919.95
7919.83
7919.73
7919.7
7919.65
7919.53
7919.42
7919.31
7919.17
7919.03
7918.89
7918.73
7918.56
7918.38
7918.2
7917.99
7917.77
7917.54
7917.3
7917.05
7916.78
7916.5
7916.21
7915.91
7915.6
7915.27
7914.93
7914.58
7914.21
7913.84
7913.45
7913.04
7912.62
7912.19
7911.75
7911.29
7910.81
7910.33
7909.82
7909.31
7908.77
7908.23
7907.66
7907.08
7906.49
7905.88
7905.26
7904.62
7903.96
7903.29
7902.6
7901.9
7901.18
7900.44
7899.69
7898.92
7898.14
7897.34
7896.52
7895.69
7894.85
7893.99
7893.11
7892.22
7891.31
7890.39
7889.46
7888.51
7887.55
7886.58
7885.6
7884.6
7883.6
7882.58
7881.55
7880.51
7879.47
7878.41
7877.35
7876.27
7875.19
7874.11
7873.01
7871.91
7870.8
7869.68
7868.57
7867.52
7866.13
7865.23
8152.85
8149.58
8147.16
8145.48
8143.41
8140.97
8138.7
8136.41
8133.9
8131.1
8128.08
8124.83
8121.15
8117.56
8114.15
8110.64
8106.85
8102.69
8098.29
8093.8
8089.12
8084.22
8079.3
8074.68
8070.22
8065.85
8061.5
8057.1
8052.55
8047.6
8042.08
8036.65
8031.12
8025.45
8020.17
8015.09
8010.06
8005.08
7999.85
7994.35
7988.88
7983.3
7977.35
7971.19
7965.05
7959.06
7953.33
7947.5
7941.4
7935.11
7928.96
7922.91
7917.09
7911.21
7905.2
7899.19
7893.17
7887.07
7881.03
7875.34
7869.71
7864.02
7858.35
7852.71
7846.87
7841.28
7835.93
7830.73
7825.82
7820.87
7815.9
7811
7806.18
7801.33
7796.67
7792.28
7787.92
7783.57
7779.24
7774.93
7770.67
7766.38
7761.97
7757.7
7753.49
7749.63
7746.11
7743.29
7739.58
7732.79
7730.53
7727.31
7723.73
7720.64
7717.5
7714.17
7711.46
7709.01
7706.51
7704.22
7701.95
7700.01
7698.35
7696.79
7695.45
7694.12
7693.3
7692.52
7692.05
7691.99
7691.65
7691.73
7692.37
7693.06
7694.05
7695.4
7696.85
7698.49
7700.41
7702.53
7705.04
7707.78
7710.69
7713.72
7717.11
7719.94
7723.79
7728.68
7733.31
7738.08
7742.82
7747.67
7752.75
7758.08
7763.51
7768.95
7774.43
7779.92
7785.4
7791.01
7796.71
7802.47
7808.15
7813.77
7819.49
7825.3
7831
7836.62
7842.16
7847.81
7853.47
7859.2
7864.77
7870.18
7875.66
7881.19
7886.71
7892.09
7897.34
7902.51
7907.68
7912.77
7917.86
7922.78
7927.52
7932.05
7936.46
7940.78
7945.02
7948.97
7952.67
7956.27
7959.69
7962.98
7966.03
7968.83
7971.38
7973.65
7975.82
7977.79
7979.63
7981.21
7982.53
7983.63
7984.44
7985.14
7985.69
7986.12
7986.3
7986.28
7986.05
7985.62
7985.1
7984.49
7983.73
7982.79
7981.71
7980.46
7979.13
7977.73
7976.27
7974.68
7972.96
7971.19
7969.34
7967.4
7965.34
7963.26
7961.14
7959.03
7956.84
7954.56
7952.23
7949.83
7947.37
7944.93
7942.48
7940.03
7937.49
7934.92
7932.32
7929.68
7926.99
7924.32
7921.64
7918.99
7916.31
7913.6
7910.86
7908.11
7905.43
7902.79
7900.12
7897.46
7894.8
7892.14
7889.55
7887.01
7884.54
7882.07
7879.62
7877.2
7874.79
7872.41
7870.12
7867.87
7865.71
7863.56
7861.43
7859.33
7857.27
7855.31
7853.43
7851.55
7849.72
7847.92
7846.16
7844.47
7842.87
7841.33
7839.81
7838.34
7836.93
7835.57
7834.24
7832.98
7831.8
7830.69
7829.61
7828.58
7827.59
7826.67
7825.84
7825.05
7824.31
7823.6
7822.94
7822.36
7821.85
7821.4
7820.98
7820.59
7820.27
7820.02
7819.82
7819.64
7819.5
7819.43
7819.43
7819.45
7819.51
7819.61
7819.73
7819.89
7820.11
7820.37
7820.66
7820.96
7821.3
7821.65
7822.04
7822.46
7822.9
7823.35
7823.81
7824.3
7824.83
7825.36
7825.89
7826.43
7826.98
7827.55
7828.12
7828.7
7829.27
7829.84
7830.43
7831.03
7831.62
7832.2
7832.79
7833.37
7833.96
7834.54
7835.12
7835.7
7836.27
7836.84
7837.4
7837.96
7838.52
7839.07
7839.63
7840.17
7840.72
7841.26
7841.79
7842.32
7842.86
7843.4
7843.93
7844.46
7844.99
7845.52
7846.05
7846.58
7847.12
7847.66
7848.2
7848.75
7849.3
7849.86
7850.42
7850.99
7851.57
7852.15
7852.75
7853.35
7853.96
7854.59
7855.23
7855.87
7856.53
7857.2
7857.89
7858.59
7859.3
7860.02
7860.76
7861.51
7862.28
7863.05
7863.85
7864.66
7865.48
7866.32
7867.16
7868.02
7868.89
7869.78
7870.68
7871.59
7872.5
7873.43
7874.37
7875.31
7876.27
7877.23
7878.2
7879.18
7880.16
7881.14
7882.13
7883.13
7884.12
7885.12
7886.12
7887.11
7888.1
7889.09
7890.07
7891.04
7892.01
7892.97
7893.92
7894.86
7895.78
7896.7
7897.59
7898.49
7899.35
7900.22
7901.04
7901.87
7902.66
7903.45
7904.22
7904.97
7905.7
7906.41
7907.05
7907.72
7908.44
7909.07
7909.72
7910.31
7910.91
7911.47
7912.04
7912.57
7913.1
7913.6
7914.07
7914.56
7914.98
7915.45
7915.8
7916.2
7916.47
7916.84
7917.22
7917.55
7917.85
7918.14
7918.39
7918.63
7918.86
7919.07
7919.27
7919.44
7919.6
7919.71
7919.83
7919.93
7920
7920.07
7920.07
7920.16
7920.05
7920.02
7920.03
7920
7919.91
7919.82
7919.73
7919.62
7919.5
7919.38
7919.26
7919.13
7918.99
7918.83
7918.66
7918.48
7918.29
7918.08
7917.86
7917.63
7917.39
7917.14
7916.88
7916.6
7916.31
7916.01
7915.69
7915.37
7915.03
7914.67
7914.31
7913.93
7913.54
7913.14
7912.72
7912.29
7911.85
7911.39
7910.92
7910.43
7909.93
7909.41
7908.88
7908.33
7907.77
7907.2
7906.6
7906
7905.37
7904.73
7904.08
7903.4
7902.72
7902.01
7901.29
7900.56
7899.8
7899.04
7898.25
7897.45
7896.63
7895.8
7894.95
7894.09
7893.21
7892.31
7891.41
7890.48
7889.55
7888.6
7887.64
7886.66
7885.67
7884.67
7883.66
7882.64
7881.61
7880.57
7879.52
7878.46
7877.39
7876.32
7875.24
7874.14
7873.05
7871.95
7870.83
7869.72
7868.6
7867.55
7866.16
7865.26
8154.26
8150.94
8148.49
8146.81
8144.79
8142.37
8139.95
8137.55
8134.93
8132.13
8129.19
8125.9
8122.3
8118.99
8115.56
8111.87
8108.01
8103.89
8099.59
8095.16
8090.6
8085.94
8081.28
8076.58
8071.91
8067.29
8062.58
8057.68
8052.86
8047.94
8042.69
8037.28
8031.85
8026.41
8021.06
8015.81
8010.59
8005.21
7999.7
7994.28
7988.89
7983.22
7977.29
7971.19
7964.79
7958.98
7953.32
7947.38
7941.27
7934.95
7928.63
7922.64
7916.87
7910.92
7904.87
7898.81
7892.76
7886.72
7880.79
7874.94
7869.13
7863.34
7857.62
7851.92
7846.14
7840.26
7834.86
7829.53
7824.5
7819.71
7814.74
7809.78
7804.89
7800.07
7795.32
7790.63
7786.03
7781.6
7777.26
7772.9
7768.56
7764.19
7759.67
7755.47
7751.4
7747.34
7743.52
7739.84
7736.26
7733.15
7730.57
7726.98
7720.77
7718.67
7716.02
7712.48
7709.59
7706.95
7704.64
7702.41
7700.43
7698.29
7696.64
7695.07
7693.88
7692.71
7691.81
7690.93
7690.43
7690.23
7690.34
7690.55
7691.07
7691.41
7692.05
7693.42
7695.04
7696.92
7699.01
7701.19
7703.66
7706.37
7709.28
7712.56
7716.06
7719.62
7723.21
7727.43
7731.25
7735.84
7741.1
7746.04
7751.26
7756.79
7762.28
7767.77
7773.28
7778.92
7784.49
7790.07
7795.81
7801.57
7807.47
7813.36
7819.2
7824.97
7830.72
7836.28
7842.01
7847.73
7853.6
7859.38
7864.92
7870.44
7876.01
7881.59
7887.23
7892.71
7898.06
7903.23
7908.46
7913.61
7918.76
7923.78
7928.57
7933.11
7937.6
7941.96
7946.25
7950.35
7954.09
7957.68
7961.13
7964.46
7967.59
7970.43
7973
7975.27
7977.47
7979.54
7981.39
7982.95
7984.28
7985.39
7986.19
7986.86
7987.38
7987.79
7988.02
7987.99
7987.78
7987.33
7986.71
7986.05
7985.29
7984.32
7983.21
7981.91
7980.51
7979.05
7977.53
7975.94
7974.2
7972.36
7970.43
7968.36
7966.28
7964.17
7962.06
7959.88
7957.6
7955.26
7952.84
7950.35
7947.9
7945.44
7942.98
7940.42
7937.79
7935.15
7932.55
7929.93
7927.25
7924.54
7921.79
7919
7916.26
7913.51
7910.78
7908.12
7905.42
7902.71
7900.01
7897.32
7894.61
7891.93
7889.33
7886.81
7884.33
7881.82
7879.34
7876.86
7874.44
7872.09
7869.8
7867.6
7865.39
7863.21
7861.05
7858.92
7856.87
7854.89
7853.01
7851.14
7849.3
7847.47
7845.71
7844.02
7842.43
7840.88
7839.35
7837.88
7836.46
7835.09
7833.77
7832.5
7831.31
7830.2
7829.11
7828.06
7827.07
7826.17
7825.34
7824.55
7823.81
7823.11
7822.45
7821.86
7821.33
7820.88
7820.5
7820.15
7819.84
7819.57
7819.33
7819.16
7819.05
7819
7819.01
7819.04
7819.1
7819.2
7819.33
7819.51
7819.75
7820.02
7820.31
7820.63
7820.98
7821.34
7821.74
7822.18
7822.63
7823.08
7823.56
7824.06
7824.6
7825.14
7825.69
7826.23
7826.8
7827.38
7827.97
7828.55
7829.13
7829.72
7830.32
7830.93
7831.53
7832.12
7832.71
7833.3
7833.89
7834.48
7835.07
7835.66
7836.24
7836.81
7837.37
7837.93
7838.49
7839.06
7839.62
7840.17
7840.7
7841.24
7841.77
7842.31
7842.85
7843.39
7843.92
7844.44
7844.97
7845.48
7846.01
7846.54
7847.08
7847.62
7848.15
7848.69
7849.24
7849.79
7850.34
7850.9
7851.48
7852.06
7852.65
7853.24
7853.85
7854.47
7855.1
7855.74
7856.4
7857.07
7857.75
7858.44
7859.15
7859.87
7860.61
7861.36
7862.12
7862.9
7863.69
7864.51
7865.33
7866.17
7867.02
7867.88
7868.76
7869.65
7870.55
7871.47
7872.39
7873.32
7874.26
7875.22
7876.19
7877.16
7878.14
7879.12
7880.11
7881.11
7882.11
7883.11
7884.11
7885.12
7886.12
7887.13
7888.13
7889.13
7890.12
7891.1
7892.08
7893.04
7894.01
7894.95
7895.9
7896.8
7897.72
7898.6
7899.49
7900.33
7901.18
7902.01
7902.82
7903.61
7904.37
7905.07
7905.81
7906.59
7907.28
7907.97
7908.63
7909.28
7909.89
7910.52
7911.1
7911.69
7912.23
7912.78
7913.29
7913.81
7914.28
7914.74
7915.12
7915.54
7916.03
7916.4
7916.82
7917.14
7917.5
7917.79
7918.1
7918.38
7918.64
7918.89
7919.11
7919.33
7919.5
7919.67
7919.83
7919.95
7920.08
7920.2
7920.26
7920.19
7920.22
7920.27
7920.27
7920.21
7920.15
7920.09
7920.01
7919.93
7919.84
7919.75
7919.64
7919.52
7919.39
7919.26
7919.11
7918.95
7918.78
7918.6
7918.4
7918.2
7917.98
7917.75
7917.51
7917.26
7917
7916.72
7916.43
7916.13
7915.82
7915.49
7915.15
7914.8
7914.44
7914.06
7913.67
7913.27
7912.86
7912.43
7911.98
7911.53
7911.06
7910.57
7910.07
7909.55
7909.03
7908.48
7907.92
7907.35
7906.75
7906.15
7905.52
7904.89
7904.23
7903.56
7902.87
7902.17
7901.45
7900.71
7899.96
7899.19
7898.4
7897.6
7896.78
7895.94
7895.09
7894.23
7893.34
7892.45
7891.54
7890.61
7889.67
7888.72
7887.75
7886.77
7885.78
7884.77
7883.76
7882.73
7881.7
7880.65
7879.6
7878.54
7877.46
7876.38
7875.3
7874.2
7873.1
7872
7870.88
7869.76
7868.64
7867.59
7866.2
7865.3
8156.06
8152.7
8150.27
8148.55
8146.55
8144.13
8141.6
8139.14
8136.51
8133.7
8130.75
8127.49
8124.11
8120.67
8117.11
8113.4
8109.52
8105.44
8101.2
8096.81
8092.3
8087.65
8082.92
8078.27
8073.54
8068.57
8063.72
8058.89
8054.2
8049.14
8043.79
8038.4
8032.94
8027.46
8021.99
8016.4
8010.62
8005.21
7999.89
7994.68
7989.06
7983.24
7977.32
7971.25
7965.12
7959.18
7953.29
7947.23
7941.08
7934.86
7928.45
7922.47
7916.58
7910.52
7904.4
7898.29
7892.2
7886.16
7880.17
7874.24
7868.35
7862.52
7856.74
7851.01
7845.3
7839.25
7833.59
7828.19
7823.1
7818.36
7813.36
7808.31
7803.33
7798.42
7793.59
7788.8
7783.78
7779.26
7775.03
7770.7
7766.34
7762
7757.63
7753.39
7749.4
7745.47
7741.57
7737.77
7734.07
7730.43
7726.89
7723.33
7720.26
7717.58
7714.19
7708.72
7706.92
7704.82
7702.21
7700.34
7698.09
7696.04
7694.17
7692.91
7691.52
7690.43
7689.51
7688.57
7688.2
7688.12
7688.23
7688.4
7688.79
7689.59
7690.53
7691.77
7692.72
7694.2
7696.42
7698.9
7701.77
7704.69
7707.61
7710.79
7714.25
7717.85
7721.8
7726.02
7730.4
7734.9
7739.59
7743.85
7748.73
7754.62
7760.37
7766.22
7771.78
7777.57
7783.29
7789
7794.72
7800.61
7806.67
7812.7
7818.61
7824.54
7830.35
7835.99
7841.83
7847.79
7853.8
7859.63
7865.27
7870.84
7876.52
7882.28
7888
7893.56
7899.01
7904.26
7909.51
7914.77
7920.04
7925.11
7929.98
7934.57
7939.1
7943.55
7947.95
7952.09
7955.94
7959.5
7963.01
7966.43
7969.6
7972.47
7975.06
7977.34
7979.62
7981.76
7983.59
7985.15
7986.49
7987.62
7988.48
7989.04
7989.55
7989.89
7990.14
7990.13
7989.89
7989.47
7988.85
7988.1
7987.15
7986.1
7985.01
7983.73
7982.24
7980.75
7979.2
7977.51
7975.7
7973.77
7971.69
7969.59
7967.47
7965.36
7963.19
7960.89
7958.54
7956.1
7953.55
7951.05
7948.53
7946.08
7943.51
7940.88
7938.16
7935.49
7932.8
7930.18
7927.46
7924.71
7921.95
7919.12
7916.27
7913.49
7910.72
7908.02
7905.32
7902.58
7899.85
7897.14
7894.43
7891.71
7889.05
7886.55
7884.02
7881.49
7878.94
7876.45
7874.05
7871.72
7869.47
7867.2
7864.96
7862.76
7860.56
7858.42
7856.37
7854.41
7852.52
7850.62
7848.77
7846.93
7845.15
7843.48
7841.89
7840.31
7838.77
7837.27
7835.81
7834.45
7833.18
7831.93
7830.73
7829.58
7828.47
7827.41
7826.44
7825.56
7824.72
7823.92
7823.18
7822.49
7821.84
7821.24
7820.71
7820.28
7819.9
7819.55
7819.25
7818.99
7818.75
7818.59
7818.5
7818.49
7818.48
7818.52
7818.59
7818.68
7818.83
7819.05
7819.31
7819.58
7819.89
7820.22
7820.57
7820.96
7821.38
7821.83
7822.29
7822.77
7823.25
7823.78
7824.33
7824.88
7825.44
7826
7826.57
7827.18
7827.77
7828.37
7828.97
7829.57
7830.19
7830.8
7831.41
7832.02
7832.62
7833.22
7833.82
7834.42
7835.02
7835.61
7836.2
7836.78
7837.35
7837.91
7838.47
7839.04
7839.61
7840.16
7840.7
7841.23
7841.77
7842.31
7842.85
7843.37
7843.9
7844.42
7844.93
7845.45
7845.97
7846.5
7847.03
7847.56
7848.09
7848.62
7849.16
7849.7
7850.24
7850.8
7851.37
7851.94
7852.52
7853.11
7853.71
7854.32
7854.95
7855.58
7856.23
7856.89
7857.57
7858.26
7858.96
7859.68
7860.42
7861.17
7861.93
7862.71
7863.5
7864.32
7865.15
7865.99
7866.84
7867.71
7868.59
7869.49
7870.4
7871.32
7872.25
7873.19
7874.14
7875.11
7876.09
7877.07
7878.06
7879.05
7880.05
7881.06
7882.07
7883.08
7884.09
7885.11
7886.13
7887.15
7888.16
7889.17
7890.17
7891.16
7892.15
7893.13
7894.1
7895.06
7896
7896.93
7897.83
7898.76
7899.63
7900.52
7901.36
7902.2
7902.96
7903.76
7904.58
7905.34
7906.1
7906.81
7907.52
7908.2
7908.89
7909.53
7910.18
7910.78
7911.38
7911.96
7912.52
7913.06
7913.58
7914.02
7914.48
7915.04
7915.46
7915.94
7916.31
7916.73
7917.07
7917.44
7917.76
7918.09
7918.39
7918.66
7918.94
7919.16
7919.39
7919.59
7919.79
7919.91
7920.16
7920.14
7920.28
7920.4
7920.43
7920.43
7920.42
7920.4
7920.37
7920.32
7920.27
7920.22
7920.15
7920.07
7919.99
7919.89
7919.79
7919.67
7919.54
7919.41
7919.26
7919.1
7918.93
7918.75
7918.55
7918.35
7918.13
7917.9
7917.66
7917.41
7917.15
7916.87
7916.58
7916.28
7915.97
7915.65
7915.31
7914.96
7914.6
7914.22
7913.84
7913.44
7913.02
7912.59
7912.15
7911.7
7911.23
7910.74
7910.25
7909.73
7909.21
7908.66
7908.11
7907.53
7906.94
7906.34
7905.72
7905.08
7904.42
7903.75
7903.07
7902.36
7901.64
7900.9
7900.15
7899.38
7898.59
7897.78
7896.96
7896.12
7895.27
7894.4
7893.51
7892.61
7891.69
7890.76
7889.82
7888.86
7887.89
7886.9
7885.91
7884.9
7883.88
7882.84
7881.8
7880.75
7879.69
7878.62
7877.55
7876.46
7875.37
7874.27
7873.17
7872.06
7870.94
7869.82
7868.7
7867.64
7866.25
7865.35
8158.39
8154.89
8152.49
8150.77
8148.75
8146.36
8143.73
8141.2
8138.5
8135.63
8132.66
8129.42
8126.05
8122.58
8119
8115.27
8111.37
8107.32
8103.14
8098.76
8094.27
8089.69
8085
8080.26
8075.35
8070.23
8065.3
8060.52
8055.67
8050.47
8045.09
8039.63
8034.1
8028.37
8022.3
8016.7
8011.18
8005.98
8000.74
7995.14
7989.32
7983.42
7977.45
7971.42
7965.36
7959.29
7953.2
7947.05
7940.86
7934.64
7928.41
7922.2
7916.08
7909.96
7903.79
7897.62
7891.48
7885.39
7879.35
7873.36
7867.42
7861.54
7855.71
7849.93
7844.21
7838.46
7832.37
7826.65
7821.59
7816.81
7811.74
7806.61
7801.54
7796.55
7791.62
7786.65
7781.52
7776.86
7772.49
7768.29
7763.93
7759.58
7755.3
7751.1
7746.98
7742.9
7738.87
7734.74
7731.02
7727.69
7724.34
7720.95
7717.54
7714.21
7710.53
7707.83
7705.83
7703.11
7698.58
7697.17
7695.84
7693.3
7691.82
7690.05
7688.87
7687.66
7687.02
7685.77
7685.43
7685.3
7685.63
7685.87
7686.43
7687.15
7688.07
7689.08
7690.53
7692.35
7694.66
7696.48
7698.65
7701.63
7704.9
7708.37
7712.03
7715.65
7719.8
7724.02
7728.47
7733.08
7738.08
7743.09
7748.22
7753.17
7758.61
7763.79
7769.71
7775.95
7781.94
7787.8
7793.7
7799.71
7805.91
7811.95
7818.04
7824.06
7830.03
7835.74
7841.79
7848
7854.07
7859.99
7865.85
7871.44
7877.27
7883.2
7888.97
7894.62
7900.19
7905.6
7910.83
7916.3
7921.63
7926.74
7931.71
7936.46
7940.96
7945.61
7950.05
7954.22
7958.18
7961.81
7965.42
7968.88
7972.04
7974.96
7977.61
7979.9
7982.3
7984.44
7986.25
7987.81
7989.13
7990.27
7991.19
7991.83
7992.17
7992.45
7992.64
7992.67
7992.43
7991.98
7991.35
7990.53
7989.41
7988.29
7987.07
7985.77
7984.4
7982.86
7981.18
7979.37
7977.46
7975.38
7973.22
7971.08
7968.92
7966.76
7964.44
7962.05
7959.61
7957.11
7954.52
7951.86
7949.25
7946.65
7944.1
7941.42
7938.68
7935.89
7933.13
7930.42
7927.6
7924.75
7922.01
7919.23
7916.39
7913.48
7910.62
7907.83
7905.15
7902.39
7899.63
7896.88
7894.12
7891.34
7888.74
7886.21
7883.64
7881.09
7878.55
7876.01
7873.56
7871.26
7868.97
7866.68
7864.43
7862.21
7860
7857.83
7855.77
7853.84
7851.91
7850
7848.14
7846.3
7844.49
7842.81
7841.21
7839.62
7838.06
7836.53
7835.06
7833.7
7832.45
7831.2
7829.99
7828.84
7827.71
7826.65
7825.68
7824.81
7823.97
7823.17
7822.42
7821.73
7821.09
7820.49
7819.98
7819.57
7819.17
7818.83
7818.53
7818.29
7818.08
7817.91
7817.81
7817.83
7817.84
7817.89
7817.98
7818.1
7818.24
7818.46
7818.75
7819.05
7819.37
7819.72
7820.1
7820.51
7820.95
7821.41
7821.87
7822.36
7822.9
7823.45
7824
7824.57
7825.15
7825.73
7826.33
7826.93
7827.53
7828.13
7828.77
7829.41
7830.03
7830.66
7831.27
7831.88
7832.51
7833.14
7833.75
7834.36
7834.96
7835.55
7836.14
7836.74
7837.33
7837.9
7838.47
7839.03
7839.59
7840.14
7840.69
7841.24
7841.78
7842.31
7842.84
7843.36
7843.87
7844.39
7844.91
7845.42
7845.93
7846.45
7846.97
7847.49
7848.01
7848.54
7849.07
7849.6
7850.13
7850.67
7851.23
7851.8
7852.37
7852.95
7853.53
7854.14
7854.76
7855.39
7856.02
7856.67
7857.35
7858.04
7858.74
7859.46
7860.19
7860.94
7861.7
7862.48
7863.27
7864.09
7864.92
7865.76
7866.63
7867.5
7868.39
7869.29
7870.21
7871.14
7872.09
7873.04
7874
7874.98
7875.97
7876.96
7877.96
7878.97
7879.98
7881.01
7882.03
7883.05
7884.08
7885.12
7886.16
7887.19
7888.21
7889.23
7890.25
7891.26
7892.27