/*--------------------------------*- C++ -*----------------------------------*\
| =========                 |                                                 |
| \\      /  F ield         | OpenFOAM: The Open Source CFD Toolbox           |
|  \\    /   O peration     | Version:  v2006                                 |
|   \\  /    A nd           | Website:  www.openfoam.com                      |
|    \\/     M anipulation  |                                                 |
\*---------------------------------------------------------------------------*/
FoamFile
{
    version     2.0;
    format      ascii;
    class       surfaceScalarField;
    location    "10";
    object      phi;
}
// * * * * * * * * * * * * * * * * * * * * * * * * * * * * * * * * * * * * * //

dimensions      [0 3 -1 0 0 0 0];
oriented        oriented;


internalField   nonuniform List<scalar> 
65390
(
4.93105e-05
1.22515e-06
4.69121e-05
2.3988e-06
4.30706e-05
3.84194e-06
3.977e-05
3.30098e-06
3.87734e-05
9.96871e-07
4.11064e-05
-2.33277e-06
4.58098e-05
-4.70326e-06
5.16406e-05
-5.83065e-06
5.73368e-05
-5.69605e-06
6.29616e-05
-5.62469e-06
6.89214e-05
-5.95976e-06
7.44197e-05
-5.49825e-06
7.91215e-05
-4.70173e-06
8.28915e-05
-3.76996e-06
8.58102e-05
-2.91864e-06
8.82743e-05
-2.46408e-06
9.07923e-05
-2.51796e-06
9.34014e-05
-2.60908e-06
9.57357e-05
-2.33429e-06
9.80605e-05
-2.32482e-06
0.000100711
-2.65018e-06
0.000103018
-2.30782e-06
0.000104084
-1.06592e-06
0.000103529
5.55177e-07
0.000102294
1.23494e-06
0.000100533
1.76133e-06
9.76902e-05
2.84254e-06
9.38464e-05
3.84377e-06
8.97483e-05
4.09808e-06
8.6363e-05
3.38524e-06
8.4278e-05
2.08497e-06
8.31383e-05
1.13969e-06
8.22489e-05
8.89413e-07
8.09667e-05
1.28212e-06
7.89773e-05
1.98943e-06
7.68122e-05
2.16505e-06
7.32842e-05
3.52797e-06
6.8113e-05
5.1712e-06
6.28733e-05
5.23967e-06
5.79966e-05
4.87665e-06
5.41872e-05
3.80937e-06
5.16771e-05
2.51015e-06
5.0127e-05
1.55009e-06
4.83136e-05
1.81343e-06
4.53921e-05
2.92146e-06
4.28134e-05
2.57867e-06
4.13477e-05
1.46572e-06
4.05324e-05
8.15378e-07
3.96155e-05
9.16851e-07
3.77386e-05
1.877e-06
3.54673e-05
2.2713e-06
3.38019e-05
1.66539e-06
3.30721e-05
7.2983e-07
3.28919e-05
1.80246e-07
3.29759e-05
-8.38905e-08
3.31676e-05
-1.91691e-07
3.33678e-05
-2.00159e-07
3.34223e-05
-5.45068e-08
3.32233e-05
1.99119e-07
3.2585e-05
6.3837e-07
3.13254e-05
1.25958e-06
2.94555e-05
1.86996e-06
2.72248e-05
2.2307e-06
2.50929e-05
2.13201e-06
2.33192e-05
1.77376e-06
2.18466e-05
1.47259e-06
2.06534e-05
1.19328e-06
1.99313e-05
7.22129e-07
1.98206e-05
1.1068e-07
2.01803e-05
-3.597e-07
2.0833e-05
-6.52609e-07
2.14229e-05
-5.89907e-07
2.16248e-05
-2.01937e-07
2.14085e-05
2.16414e-07
2.09021e-05
5.06403e-07
2.02926e-05
6.09463e-07
1.94909e-05
8.01731e-07
1.74196e-05
2.07127e-06
1.53524e-05
2.06722e-06
1.48292e-05
5.23212e-07
1.40306e-05
7.98605e-07
1.33581e-05
6.725e-07
1.22274e-05
1.13065e-06
1.13623e-05
8.65142e-07
1.06534e-05
7.08878e-07
9.59515e-06
1.05824e-06
8.60366e-06
9.91488e-07
7.82412e-06
7.79533e-07
7.34683e-06
4.77284e-07
6.83845e-06
5.08383e-07
6.37065e-06
4.67794e-07
5.93455e-06
4.3609e-07
5.4141e-06
5.20447e-07
4.86977e-06
5.4432e-07
4.18714e-06
6.82622e-07
3.42459e-06
7.62537e-07
2.5578e-06
8.66773e-07
1.67489e-06
8.82898e-07
3.01367e-07
1.3735e-06
-1.61117e-06
1.91252e-06
-3.30229e-06
1.69112e-06
-4.33285e-06
1.03055e-06
-4.75249e-06
4.1963e-07
-5.08597e-06
3.33485e-07
-5.15409e-06
6.81187e-08
-5.2006e-06
4.65214e-08
-5.45302e-06
2.52435e-07
-5.86129e-06
4.08276e-07
-6.1514e-06
2.9013e-07
-6.26571e-06
1.1433e-07
-6.37717e-06
1.11482e-07
-6.4055e-06
2.83523e-08
-6.41221e-06
6.72835e-09
-6.48119e-06
6.89991e-08
-6.6386e-06
1.5743e-07
-6.84622e-06
2.07649e-07
-7.14728e-06
3.01084e-07
-7.47356e-06
3.26294e-07
-7.69466e-06
2.21127e-07
-7.81324e-06
1.18605e-07
-7.87921e-06
6.59973e-08
-7.92834e-06
4.91549e-08
-7.91596e-06
-1.23527e-08
-7.88266e-06
-3.32826e-08
-7.88221e-06
-4.20736e-10
-7.87775e-06
-4.43621e-09
-7.85413e-06
-2.35934e-08
-7.81303e-06
-4.10737e-08
-7.7155e-06
-9.74963e-08
-7.58326e-06
-1.32218e-07
-7.4471e-06
-1.3614e-07
-7.30129e-06
-1.45779e-07
-7.16944e-06
-1.31833e-07
-7.02574e-06
-1.43681e-07
-6.84469e-06
-1.8103e-07
-6.62232e-06
-2.22357e-07
-6.37743e-06
-2.44872e-07
-6.12674e-06
-2.50687e-07
-5.86742e-06
-2.59315e-07
-5.59514e-06
-2.72271e-07
-5.30459e-06
-2.90557e-07
-5.00151e-06
-3.03084e-07
-4.70176e-06
-2.99766e-07
-4.41302e-06
-2.88751e-07
-4.11616e-06
-2.96876e-07
-3.80427e-06
-3.11912e-07
-3.47021e-06
-3.34083e-07
-3.12415e-06
-3.4609e-07
-2.78772e-06
-3.36449e-07
-2.4727e-06
-3.15055e-07
-2.15053e-06
-3.22192e-07
-1.80416e-06
-3.46399e-07
-1.44931e-06
-3.54873e-07
-1.10002e-06
-3.49301e-07
-7.58612e-07
-3.41424e-07
-4.22854e-07
-3.35766e-07
-8.78385e-08
-3.35017e-07
2.48358e-07
-3.36191e-07
5.83838e-07
-3.35469e-07
9.12258e-07
-3.28402e-07
1.23496e-06
-3.2268e-07
1.55424e-06
-3.19248e-07
1.87107e-06
-3.16796e-07
2.18382e-06
-3.12711e-07
2.48955e-06
-3.05687e-07
2.78113e-06
-2.91527e-07
3.06362e-06
-2.82452e-07
3.34468e-06
-2.8101e-07
3.62367e-06
-2.78954e-07
3.89064e-06
-2.66927e-07
4.13649e-06
-2.45818e-07
4.37341e-06
-2.36889e-07
4.6096e-06
-2.36171e-07
4.84103e-06
-2.31423e-07
5.0643e-06
-2.23269e-07
5.27238e-06
-2.08087e-07
5.45474e-06
-1.82377e-07
5.61817e-06
-1.63461e-07
5.77315e-06
-1.55021e-07
5.92455e-06
-1.51451e-07
6.06869e-06
-1.44192e-07
6.19817e-06
-1.2955e-07
6.31215e-06
-1.14065e-07
6.40501e-06
-9.29428e-08
6.47167e-06
-6.67485e-08
6.52537e-06
-5.37923e-08
6.57307e-06
-4.77838e-08
6.60794e-06
-3.49647e-08
6.61942e-06
-1.15622e-08
6.60685e-06
1.24915e-08
6.57415e-06
3.26297e-08
6.52899e-06
4.50987e-08
6.47443e-06
5.45088e-08
6.40804e-06
6.63455e-08
6.32666e-06
8.13483e-08
6.22176e-06
1.04873e-07
6.08976e-06
1.31991e-07
5.93775e-06
1.52008e-07
5.77744e-06
1.60314e-07
5.61633e-06
1.61121e-07
5.44647e-06
1.69877e-07
5.26077e-06
1.8572e-07
5.05796e-06
2.02845e-07
4.84093e-06
2.17056e-07
4.61918e-06
2.21782e-07
4.39784e-06
2.21375e-07
4.17087e-06
2.27006e-07
3.92916e-06
2.41745e-07
3.67144e-06
2.57753e-07
3.4206e-06
2.50859e-07
3.18445e-06
2.36178e-07
2.94932e-06
2.35143e-07
2.71332e-06
2.36017e-07
2.47218e-06
2.41146e-07
2.21911e-06
2.53082e-07
1.96474e-06
2.54374e-07
1.72255e-06
2.42184e-07
1.49904e-06
2.23512e-07
1.2835e-06
2.15533e-07
1.07201e-06
2.11486e-07
8.61745e-07
2.10254e-07
6.46469e-07
2.15266e-07
4.32098e-07
2.14358e-07
2.2708e-07
2.05003e-07
3.75347e-08
1.89531e-07
-1.39436e-07
1.76956e-07
-3.09682e-07
1.70233e-07
-4.76295e-07
1.66604e-07
-6.45179e-07
1.68879e-07
-8.13177e-07
1.67999e-07
-9.73611e-07
1.6044e-07
-1.12192e-06
1.48326e-07
-1.25743e-06
1.35526e-07
-1.38684e-06
1.29424e-07
-1.51381e-06
1.26992e-07
-1.63769e-06
1.23897e-07
-1.75748e-06
1.19814e-07
-1.8738e-06
1.16332e-07
-1.98746e-06
1.13655e-07
-2.09699e-06
1.09527e-07
-2.20063e-06
1.03623e-07
-2.29396e-06
9.33125e-08
-2.3809e-06
8.69003e-08
-2.46522e-06
8.42823e-08
-2.54774e-06
8.24829e-08
-2.63201e-06
8.42204e-08
-2.71668e-06
8.46287e-08
-2.79282e-06
7.61018e-08
-2.85886e-06
6.60026e-08
-2.92248e-06
6.359e-08
-2.98512e-06
6.26184e-08
-3.04763e-06
6.24976e-08
-3.11154e-06
6.38873e-08
-3.17337e-06
6.18186e-08
-3.22966e-06
5.62787e-08
-3.28119e-06
5.15264e-08
-3.3313e-06
5.00955e-08
-3.38161e-06
5.02884e-08
-3.43126e-06
4.96353e-08
-3.47907e-06
4.77853e-08
-3.52481e-06
4.57172e-08
-3.56688e-06
4.20334e-08
-3.60649e-06
3.95833e-08
-3.64625e-06
3.97302e-08
-3.6883e-06
4.20154e-08
-3.73205e-06
4.37118e-08
-3.77375e-06
4.16762e-08
-3.80872e-06
3.49397e-08
-3.84095e-06
3.21966e-08
-3.87296e-06
3.19874e-08
-3.90418e-06
3.11996e-08
-3.93476e-06
3.05625e-08
-3.9665e-06
3.17246e-08
-3.99954e-06
3.30262e-08
-4.03098e-06
3.14298e-08
-4.05815e-06
2.71537e-08
-4.08197e-06
2.38114e-08
-4.10447e-06
2.24947e-08
-4.12552e-06
2.10383e-08
-4.14449e-06
1.89701e-08
-4.16223e-06
1.77301e-08
-4.181e-06
1.87681e-08
-4.20009e-06
1.90752e-08
-4.21521e-06
1.51198e-08
-4.22488e-06
9.66239e-09
-4.23231e-06
7.42722e-09
-4.23849e-06
6.17872e-09
-4.2422e-06
3.71851e-09
-4.24358e-06
1.37813e-09
-4.244e-06
4.27656e-10
-4.24302e-06
-9.84025e-10
-4.23845e-06
-4.5569e-09
-4.22917e-06
-9.27238e-09
-4.21622e-06
-1.29501e-08
-4.20022e-06
-1.59906e-08
-4.18079e-06
-1.94226e-08
-4.15907e-06
-2.1716e-08
-4.13532e-06
-2.37507e-08
-4.10813e-06
-2.71873e-08
-4.07668e-06
-3.14524e-08
-4.0409e-06
-3.57862e-08
-4.00053e-06
-4.03744e-08
-3.95711e-06
-4.34301e-08
-3.91178e-06
-4.53393e-08
-3.8634e-06
-4.83948e-08
-3.81092e-06
-5.24913e-08
-3.75395e-06
-5.69713e-08
-3.69377e-06
-6.01893e-08
-3.63171e-06
-6.20644e-08
-3.56718e-06
-6.454e-08
-3.4997e-06
-6.74783e-08
-3.42954e-06
-7.01644e-08
-3.3579e-06
-7.16385e-08
-3.28592e-06
-7.19736e-08
-3.21397e-06
-7.19421e-08
-3.14189e-06
-7.20731e-08
-3.06956e-06
-7.2325e-08
-2.99713e-06
-7.24266e-08
-2.92531e-06
-7.18115e-08
-2.8547e-06
-7.0598e-08
-2.78564e-06
-6.90494e-08
-2.71842e-06
-6.72063e-08
-2.65305e-06
-6.53546e-08
-2.58974e-06
-6.32926e-08
-2.52876e-06
-6.0973e-08
-2.47016e-06
-5.85767e-08
-2.4139e-06
-5.62473e-08
-2.36002e-06
-5.38618e-08
-2.30896e-06
-5.10473e-08
-2.2609e-06
-4.80482e-08
-2.21549e-06
-4.54026e-08
-2.17243e-06
-4.30573e-08
-2.13161e-06
-4.08137e-08
-2.09336e-06
-3.82422e-08
-2.05799e-06
-3.5372e-08
-2.02566e-06
-3.23243e-08
-1.99594e-06
-2.97196e-08
-1.9684e-06
-2.75424e-08
-1.94254e-06
-2.58731e-08
-1.9185e-06
-2.40447e-08
-1.89632e-06
-2.21791e-08
-1.87593e-06
-2.04012e-08
-1.8572e-06
-1.87382e-08
-1.84002e-06
-1.71842e-08
-1.8242e-06
-1.58276e-08
-1.80942e-06
-1.47809e-08
-1.79539e-06
-1.40421e-08
-1.78202e-06
-1.33716e-08
-1.76921e-06
-1.28154e-08
-1.75683e-06
-1.23841e-08
-1.74474e-06
-1.20882e-08
-1.73281e-06
-1.19339e-08
-1.72088e-06
-1.19232e-08
-1.70858e-06
-1.23025e-08
-1.69565e-06
-1.29275e-08
-1.68195e-06
-1.3698e-08
-1.66738e-06
-1.45578e-08
-1.65191e-06
-1.54698e-08
-1.63541e-06
-1.6493e-08
-1.61761e-06
-1.77837e-08
-1.59836e-06
-1.92455e-08
-1.5775e-06
-2.08522e-08
-1.55494e-06
-2.25498e-08
-1.53053e-06
-2.43974e-08
-1.50434e-06
-2.61709e-08
-1.4767e-06
-2.76282e-08
-1.44746e-06
-2.92364e-08
-1.41606e-06
-3.13819e-08
-1.38206e-06
-3.39965e-08
-1.34551e-06
-3.65334e-08
-1.30708e-06
-3.84175e-08
-1.26711e-06
-3.9968e-08
-1.22497e-06
-4.21331e-08
-1.18029e-06
-4.46725e-08
-1.13303e-06
-4.72538e-08
-1.08341e-06
-4.96156e-08
-1.03185e-06
-5.15486e-08
-9.78371e-07
-5.34755e-08
-9.23188e-07
-5.51768e-08
-8.66794e-07
-5.63875e-08
-8.08707e-07
-5.80803e-08
-7.48104e-07
-6.05955e-08
-6.85251e-07
-6.28452e-08
-6.20936e-07
-6.43058e-08
-5.55443e-07
-6.54851e-08
-4.88818e-07
-6.66155e-08
-4.21372e-07
-6.74358e-08
-3.52864e-07
-6.84984e-08
-2.83122e-07
-6.97312e-08
-2.12695e-07
-7.04152e-08
-1.42153e-07
-7.05297e-08
-7.14095e-08
-7.07311e-08
-1.09709e-10
-7.12872e-08
7.16966e-08
-7.17941e-08
1.4353e-07
-7.18218e-08
2.15308e-07
-7.17684e-08
2.8697e-07
-7.16541e-08
3.57957e-07
-7.09809e-08
4.28032e-07
-7.00703e-08
4.97472e-07
-6.94362e-08
5.66353e-07
-6.88796e-08
6.34841e-07
-6.8486e-08
7.0293e-07
-6.80872e-08
7.70393e-07
-6.74605e-08
8.36424e-07
-6.60283e-08
8.99647e-07
-6.32193e-08
9.62336e-07
-6.2684e-08
1.0248e-06
-6.24588e-08
1.08651e-06
-6.1704e-08
1.14599e-06
-5.9472e-08
1.20316e-06
-5.71678e-08
1.25773e-06
-5.45661e-08
1.31147e-06
-5.37352e-08
1.3642e-06
-5.27271e-08
1.41515e-06
-5.09601e-08
1.46303e-06
-4.78773e-08
1.50876e-06
-4.5734e-08
1.55111e-06
-4.23615e-08
1.59081e-06
-3.97044e-08
1.6325e-06
-4.16967e-08
1.67152e-06
-3.90326e-08
1.70609e-06
-3.45778e-08
1.74085e-06
-3.47754e-08
1.75414e-06
-1.32955e-08
1.76153e-06
-7.39607e-09
1.80241e-06
-4.08877e-08
1.82481e-06
-2.24095e-08
1.86649e-06
-4.16846e-08
1.92149e-06
-5.50002e-08
2.02921e-06
-1.07714e-07
2.15107e-06
-1.21861e-07
2.22138e-06
-7.0312e-08
2.28948e-06
-6.80978e-08
2.33836e-06
-4.88691e-08
2.38191e-06
-4.3546e-08
2.41434e-06
-3.2429e-08
2.44333e-06
-2.89886e-08
2.46626e-06
-2.29229e-08
2.48913e-06
-2.28655e-08
2.50613e-06
-1.69944e-08
2.52516e-06
-1.90199e-08
2.53524e-06
-1.00727e-08
2.53154e-06
3.70978e-09
2.53594e-06
-4.39324e-09
2.53994e-06
-3.99035e-09
2.55e-06
-1.00417e-08
2.56132e-06
-1.13034e-08
2.59478e-06
-3.34549e-08
2.69181e-06
-9.70196e-08
2.81224e-06
-1.2041e-07
2.91066e-06
-9.84124e-08
2.97565e-06
-6.4977e-08
3.01354e-06
-3.78867e-08
3.03785e-06
-2.43005e-08
3.04253e-06
-4.68021e-09
3.03661e-06
5.92874e-09
3.0095e-06
2.71181e-08
2.98255e-06
2.69513e-08
2.96183e-06
2.072e-08
2.9333e-06
2.85398e-08
2.91106e-06
2.22461e-08
2.8808e-06
3.02598e-08
2.76182e-06
1.18993e-07
2.64377e-06
1.18052e-07
2.56193e-06
8.18455e-08
2.41071e-06
1.51231e-07
2.45992e-06
-4.92024e-08
2.48213e-06
-2.22076e-08
2.87614e-06
-3.94003e-07
3.58016e-06
-7.04009e-07
4.29902e-06
-7.18841e-07
4.95148e-06
-6.52448e-07
5.53596e-06
-5.84464e-07
6.01557e-06
-4.79605e-07
6.37852e-06
-3.62929e-07
6.61576e-06
-2.37231e-07
6.76809e-06
-1.52318e-07
6.86948e-06
-1.01376e-07
6.9488e-06
-7.93011e-08
6.99232e-06
-4.35031e-08
6.99621e-06
-3.87745e-09
6.97878e-06
1.74424e-08
6.94517e-06
3.36222e-08
6.90737e-06
3.78156e-08
6.86608e-06
4.13041e-08
6.80749e-06
5.86036e-08
6.72894e-06
7.85747e-08
6.64148e-06
8.7469e-08
6.54856e-06
9.29425e-08
6.45002e-06
9.85648e-08
6.34223e-06
1.07813e-07
6.23059e-06
1.1167e-07
6.11838e-06
1.12244e-07
5.99927e-06
1.19144e-07
5.86539e-06
1.33906e-07
5.72043e-06
1.45001e-07
5.56757e-06
1.52893e-07
5.41279e-06
1.54818e-07
5.25495e-06
1.57879e-07
5.09159e-06
1.63402e-07
4.92424e-06
1.67387e-07
4.75121e-06
1.73075e-07
4.5683e-06
1.82948e-07
4.37292e-06
1.95424e-07
4.16981e-06
2.03142e-07
3.96563e-06
2.04222e-07
3.76424e-06
2.01424e-07
3.56465e-06
1.99617e-07
3.36084e-06
2.0384e-07
3.15014e-06
2.10728e-07
2.93023e-06
2.19924e-07
2.70465e-06
2.25604e-07
2.47467e-06
2.29984e-07
2.23849e-06
2.36198e-07
1.99768e-06
2.40816e-07
1.75389e-06
2.43794e-07
1.50663e-06
2.47268e-07
1.25332e-06
2.53321e-07
9.91701e-07
2.61637e-07
7.20712e-07
2.71008e-07
4.41118e-07
2.79617e-07
1.55013e-07
2.86133e-07
-1.36101e-07
2.91147e-07
-4.30196e-07
2.94131e-07
-7.27412e-07
2.97257e-07
-1.0287e-06
3.01328e-07
-1.33419e-06
3.05538e-07
-1.6438e-06
3.09662e-07
-1.95874e-06
3.14982e-07
-2.27815e-06
3.19466e-07
-2.6011e-06
3.22996e-07
-2.92624e-06
3.25191e-07
-3.25514e-06
3.28943e-07
-3.58816e-06
3.33061e-07
-3.92615e-06
3.38029e-07
-4.26767e-06
3.41561e-07
-4.61243e-06
3.44796e-07
-4.95781e-06
3.45411e-07
-5.30457e-06
3.46799e-07
-5.65497e-06
3.5043e-07
-6.00807e-06
3.53142e-07
-6.36437e-06
3.56345e-07
-6.72259e-06
3.5827e-07
-7.08138e-06
3.58849e-07
-7.43751e-06
3.5619e-07
-7.78916e-06
3.51721e-07
-8.13837e-06
3.49281e-07
-8.4745e-06
3.36213e-07
-8.81124e-06
3.36807e-07
3.22653e-07
5.04581e-05
1.37603e-06
4.99766e-05
2.87988e-06
4.91861e-05
4.63207e-06
4.79437e-05
4.54307e-06
4.64364e-05
2.50393e-06
4.77825e-05
-3.67899e-06
5.13797e-05
-8.30061e-06
5.57953e-05
-1.02464e-05
6.06233e-05
-1.05241e-05
6.55374e-05
-1.05388e-05
7.02721e-05
-1.06945e-05
7.42053e-05
-9.43147e-06
7.66431e-05
-7.13955e-06
7.81181e-05
-5.24499e-06
7.93873e-05
-4.18789e-06
8.07698e-05
-3.84659e-06
8.24197e-05
-4.1679e-06
8.4789e-05
-4.97842e-06
8.76722e-05
-5.21753e-06
9.0704e-05
-5.35658e-06
9.36158e-05
-5.56202e-06
9.60879e-05
-4.78001e-06
9.73786e-05
-2.35665e-06
9.74438e-05
4.90008e-07
9.60666e-05
2.6121e-06
9.35822e-05
4.24569e-06
9.07613e-05
5.6634e-06
8.80736e-05
6.53137e-06
8.58681e-05
6.30361e-06
8.50533e-05
4.19997e-06
8.48708e-05
2.26744e-06
8.45689e-05
1.44159e-06
8.40001e-05
1.45817e-06
8.28785e-05
2.40371e-06
8.03917e-05
4.47615e-06
7.66775e-05
5.8792e-06
7.22694e-05
7.93613e-06
6.80689e-05
9.37163e-06
6.39206e-05
9.38799e-06
5.95434e-05
9.25385e-06
5.57984e-05
7.55437e-06
5.29994e-05
5.30917e-06
5.0639e-05
3.91044e-06
4.82832e-05
4.16932e-06
4.59454e-05
5.25927e-06
4.35759e-05
4.94811e-06
4.1839e-05
3.20268e-06
4.05879e-05
2.06649e-06
3.94428e-05
2.062e-06
3.81537e-05
3.1662e-06
3.65979e-05
3.82713e-06
3.49135e-05
3.34977e-06
3.37554e-05
1.888e-06
3.32683e-05
6.67455e-07
3.30828e-05
1.01692e-07
3.29741e-05
-8.29929e-08
3.27016e-05
7.24495e-08
3.18977e-05
7.49482e-07
3.07525e-05
1.34439e-06
2.95899e-05
1.80095e-06
2.87089e-05
2.14065e-06
2.83193e-05
2.25971e-06
2.80442e-05
2.50581e-06
2.71821e-05
2.99418e-06
2.55611e-05
3.39482e-06
2.36741e-05
3.35959e-06
2.18818e-05
2.98566e-06
2.04968e-05
2.10716e-06
1.97804e-05
8.27154e-07
1.95592e-05
-1.38541e-07
1.95327e-05
-6.26088e-07
1.9483e-05
-5.40135e-07
1.89887e-05
2.92306e-07
1.80798e-05
1.12535e-06
1.72062e-05
1.3801e-06
1.67175e-05
1.09813e-06
1.67398e-05
7.79498e-07
1.77772e-05
1.03386e-06
1.82525e-05
1.59186e-06
1.78226e-05
9.53137e-07
1.63476e-05
2.27359e-06
1.46085e-05
2.41154e-06
1.41334e-05
1.60574e-06
1.30975e-05
1.90107e-06
1.23121e-05
1.49429e-06
1.13136e-05
2.0567e-06
1.02267e-05
2.07839e-06
9.25134e-06
1.75488e-06
8.4738e-06
1.25482e-06
7.46518e-06
1.517e-06
6.60916e-06
1.32381e-06
6.104e-06
9.41237e-07
5.63667e-06
9.87771e-07
5.11756e-06
1.06342e-06
4.59002e-06
1.21014e-06
3.97967e-06
1.37287e-06
3.41786e-06
1.42856e-06
2.87755e-06
1.42318e-06
2.58883e-06
1.66221e-06
2.0915e-06
2.40983e-06
1.2875e-06
2.49511e-06
-6.07844e-08
2.37883e-06
-1.95566e-06
2.31451e-06
-3.64097e-06
2.01881e-06
-4.94506e-06
1.37223e-06
-5.71772e-06
8.19203e-07
-6.15313e-06
6.87875e-07
-6.4175e-06
6.72677e-07
-6.32927e-06
2.01931e-07
-6.13465e-06
-8.02536e-08
-6.20422e-06
1.81088e-07
-6.3465e-06
1.70666e-07
-6.4996e-06
1.59872e-07
-6.67374e-06
2.43176e-07
-6.7623e-06
2.4602e-07
-6.77785e-06
2.2324e-07
-6.80109e-06
3.24362e-07
-6.9077e-06
4.3295e-07
-7.05593e-06
3.6939e-07
-7.32676e-06
3.89481e-07
-7.68171e-06
4.20985e-07
-7.91532e-06
2.82813e-07
-8.00657e-06
7.89403e-08
-8.03457e-06
-5.23233e-09
-8.02888e-06
-6.06825e-09
-7.95191e-06
-8.13635e-08
-7.86739e-06
-1.08065e-07
-7.81069e-06
-9.77279e-08
-7.725e-06
-1.83145e-07
-7.62255e-06
-2.34619e-07
-7.51711e-06
-2.41546e-07
-7.38573e-06
-2.7712e-07
-7.23348e-06
-2.84041e-07
-7.05998e-06
-3.1715e-07
-6.86557e-06
-3.7542e-07
-6.64902e-06
-4.38882e-07
-6.41308e-06
-4.80796e-07
-6.17214e-06
-4.91627e-07
-5.92225e-06
-5.09205e-07
-5.65572e-06
-5.38808e-07
-5.3706e-06
-5.75685e-07
-5.07256e-06
-6.01147e-07
-4.77059e-06
-6.01769e-07
-4.46759e-06
-5.91789e-07
-4.15669e-06
-6.07808e-07
-3.83568e-06
-6.3297e-07
-3.50289e-06
-6.66921e-07
-3.16972e-06
-6.79302e-07
-2.84278e-06
-6.63442e-07
-2.51314e-06
-6.44738e-07
-2.17764e-06
-6.5774e-07
-1.83035e-06
-6.93727e-07
-1.48031e-06
-7.04944e-07
-1.14085e-06
-6.88783e-07
-8.05299e-07
-6.76985e-07
-4.61702e-07
-6.79364e-07
-1.12968e-07
-6.83741e-07
2.32026e-07
-6.81163e-07
5.66861e-07
-6.7027e-07
8.90363e-07
-6.51859e-07
1.20999e-06
-6.42248e-07
1.53e-06
-6.39193e-07
1.85062e-06
-6.37352e-07
2.16773e-06
-6.29742e-07
2.47747e-06
-6.15344e-07
2.77224e-06
-5.86218e-07
3.05529e-06
-5.6542e-07
3.33633e-06
-5.61972e-07
3.61507e-06
-5.57618e-07
3.88194e-06
-5.33736e-07
4.13304e-06
-4.9686e-07
4.37417e-06
-4.7798e-07
4.60921e-06
-4.71177e-07
4.83792e-06
-4.60116e-07
5.05754e-06
-4.42894e-07
5.2656e-06
-4.16172e-07
5.45618e-06
-3.72995e-07
5.62804e-06
-3.35368e-07
5.7845e-06
-3.11559e-07
5.93151e-06
-2.98551e-07
6.07168e-06
-2.84458e-07
6.20071e-06
-2.58699e-07
6.31595e-06
-2.2942e-07
6.4115e-06
-1.88619e-07
6.48154e-06
-1.36922e-07
6.53346e-06
-1.05845e-07
6.57422e-06
-8.86737e-08
6.60456e-06
-6.54266e-08
6.62085e-06
-2.79585e-08
6.61843e-06
1.48047e-08
6.59355e-06
5.7427e-08
6.54751e-06
9.10584e-08
6.48657e-06
1.1539e-07
6.41463e-06
1.38242e-07
6.32813e-06
1.67814e-07
6.22348e-06
2.09501e-07
6.09944e-06
2.56027e-07
5.95748e-06
2.9396e-07
5.80329e-06
3.14522e-07
5.63873e-06
3.25694e-07
5.46314e-06
3.45499e-07
5.27377e-06
3.75118e-07
5.07143e-06
4.05218e-07
4.86153e-06
4.26987e-07
4.64605e-06
4.37299e-07
4.42279e-06
4.44667e-07
4.18883e-06
4.60997e-07
3.94445e-06
4.86142e-07
3.69674e-06
5.05487e-07
3.45252e-06
4.951e-07
3.21157e-06
4.77132e-07
2.97021e-06
4.76515e-07
2.7279e-06
4.78326e-07
2.48401e-06
4.85025e-07
2.23755e-06
4.99533e-07
1.99244e-06
4.9947e-07
1.75163e-06
4.82972e-07
1.52138e-06
4.53736e-07
1.29852e-06
4.38371e-07
1.0802e-06
4.29785e-07
8.66496e-07
4.23931e-07
6.55934e-07
4.258e-07
4.48886e-07
4.21378e-07
2.46205e-07
4.07657e-07
5.09791e-08
3.84731e-07
-1.33353e-07
3.61265e-07
-3.09635e-07
3.46497e-07
-4.80419e-07
3.37375e-07
-6.47968e-07
3.36421e-07
-8.12281e-07
3.3231e-07
-9.68961e-07
3.17125e-07
-1.11515e-06
2.94523e-07
-1.25356e-06
2.73946e-07
-1.38632e-06
2.62198e-07
-1.51413e-06
2.54819e-07
-1.63978e-06
2.49553e-07
-1.7638e-06
2.43836e-07
-1.88336e-06
2.35889e-07
-1.99612e-06
2.26394e-07
-2.10032e-06
2.13699e-07
-2.19752e-06
2.00776e-07
-2.29155e-06
1.87293e-07
-2.38281e-06
1.78105e-07
-2.47103e-06
1.72444e-07
-2.55687e-06
1.68264e-07
-2.64009e-06
1.67372e-07
-2.71803e-06
1.62508e-07
-2.79106e-06
1.49077e-07
-2.85959e-06
1.34478e-07
-2.9262e-06
1.30154e-07
-2.99198e-06
1.28363e-07
-3.05584e-06
1.26319e-07
-3.11644e-06
1.24461e-07
-3.17342e-06
1.18765e-07
-3.22717e-06
1.09997e-07
-3.27976e-06
1.04084e-07
-3.3327e-06
1.02998e-07
-3.38604e-06
1.03595e-07
-3.43651e-06
1.0006e-07
-3.48171e-06
9.29351e-08
-3.52481e-06
8.87642e-08
-3.56723e-06
8.43965e-08
-3.60871e-06
8.10076e-08
-3.64988e-06
8.08357e-08
-3.69178e-06
8.38587e-08
-3.73313e-06
8.50064e-08
-3.77195e-06
8.04488e-08
-3.80753e-06
7.04707e-08
-3.8414e-06
6.60127e-08
-3.87466e-06
6.52116e-08
-3.90774e-06
6.42381e-08
-3.94e-06
6.27913e-08
-3.97068e-06
6.23763e-08
-3.99991e-06
6.22299e-08
-4.02819e-06
5.96829e-08
-4.0558e-06
5.47528e-08
-4.08177e-06
4.97633e-08
-4.10596e-06
4.66696e-08
-4.128e-06
4.30594e-08
-4.14759e-06
3.85576e-08
-4.16587e-06
3.59936e-08
-4.18388e-06
3.67769e-08
-4.20048e-06
3.56643e-08
-4.21435e-06
2.89896e-08
-4.22473e-06
2.00383e-08
-4.23319e-06
1.58952e-08
-4.24071e-06
1.36982e-08
-4.24597e-06
8.98068e-09
-4.24786e-06
3.28152e-09
-4.24686e-06
-5.69065e-10
-4.24329e-06
-4.53687e-09
-4.23671e-06
-1.11317e-08
-4.22769e-06
-1.82809e-08
-4.21657e-06
-2.4064e-08
-4.20235e-06
-3.02074e-08
-4.18369e-06
-3.80728e-08
-4.16056e-06
-4.48537e-08
-4.1339e-06
-5.04092e-08
-4.10503e-06
-5.60611e-08
-4.07445e-06
-6.20434e-08
-4.04042e-06
-6.98253e-08
-4.001e-06
-7.98125e-08
-3.95687e-06
-8.75683e-08
-3.90969e-06
-9.25328e-08
-3.86079e-06
-9.73164e-08
-3.80957e-06
-1.03718e-07
-3.75367e-06
-1.12884e-07
-3.69318e-06
-1.20688e-07
-3.62991e-06
-1.25339e-07
-3.56532e-06
-1.29128e-07
-3.49935e-06
-1.33452e-07
-3.43051e-06
-1.39005e-07
-3.35929e-06
-1.42846e-07
-3.28692e-06
-1.44334e-07
-3.21474e-06
-1.44117e-07
-3.14352e-06
-1.43277e-07
-3.07224e-06
-1.43592e-07
-3.00009e-06
-1.44549e-07
-2.92817e-06
-1.43715e-07
-2.85739e-06
-1.41356e-07
-2.78823e-06
-1.38192e-07
-2.72106e-06
-1.34344e-07
-2.65575e-06
-1.30641e-07
-2.5923e-06
-1.26716e-07
-2.53083e-06
-1.22421e-07
-2.47161e-06
-1.17764e-07
-2.41489e-06
-1.12951e-07
-2.36085e-06
-1.07873e-07
-2.30967e-06
-1.02204e-07
-2.26128e-06
-9.64251e-08
-2.21549e-06
-9.11723e-08
-2.17214e-06
-8.63951e-08
-2.13129e-06
-8.16543e-08
-2.09313e-06
-7.63929e-08
-2.05773e-06
-7.07736e-08
-2.02511e-06
-6.49386e-08
-1.99515e-06
-5.96776e-08
-1.96774e-06
-5.49533e-08
-1.94198e-06
-5.16374e-08
-1.91779e-06
-4.82418e-08
-1.89539e-06
-4.45826e-08
-1.87486e-06
-4.09396e-08
-1.85619e-06
-3.74124e-08
-1.83939e-06
-3.39947e-08
-1.82428e-06
-3.09387e-08
-1.81027e-06
-2.87964e-08
-1.79673e-06
-2.7582e-08
-1.78366e-06
-2.64421e-08
-1.77105e-06
-2.5429e-08
-1.75881e-06
-2.46233e-08
-1.74686e-06
-2.40341e-08
-1.73507e-06
-2.37137e-08
-1.72331e-06
-2.36836e-08
-1.71118e-06
-2.44206e-08
-1.69847e-06
-2.56311e-08
-1.68504e-06
-2.71231e-08
-1.67077e-06
-2.8811e-08
-1.65571e-06
-3.05195e-08
-1.63974e-06
-3.24478e-08
-1.62242e-06
-3.50854e-08
-1.60352e-06
-3.81346e-08
-1.58293e-06
-4.14196e-08
-1.56065e-06
-4.48083e-08
-1.53662e-06
-4.84089e-08
-1.5108e-06
-5.19765e-08
-1.48313e-06
-5.52812e-08
-1.45345e-06
-5.8895e-08
-1.42164e-06
-6.31774e-08
-1.38756e-06
-6.80542e-08
-1.35133e-06
-7.27503e-08
-1.31336e-06
-7.63682e-08
-1.27373e-06
-7.9581e-08
-1.23173e-06
-8.41221e-08
-1.1869e-06
-8.94838e-08
-1.13946e-06
-9.46836e-08
-1.08982e-06
-9.92405e-08
-1.03854e-06
-1.02818e-07
-9.8563e-07
-1.06376e-07
-9.30692e-07
-1.10101e-07
-8.73338e-07
-1.13729e-07
-8.13849e-07
-1.17556e-07
-7.5265e-07
-1.21781e-07
-6.89944e-07
-1.25536e-07
-6.25914e-07
-1.28321e-07
-5.60741e-07
-1.30643e-07
-4.94243e-07
-1.33098e-07
-4.26416e-07
-1.35247e-07
-3.57479e-07
-1.37419e-07
-2.87632e-07
-1.39562e-07
-2.17213e-07
-1.40817e-07
-1.46164e-07
-1.41562e-07
-7.46069e-08
-1.42272e-07
-2.66946e-09
-1.43208e-07
6.92295e-08
-1.43677e-07
1.41048e-07
-1.43626e-07
2.12713e-07
-1.4342e-07
2.845e-07
-1.43429e-07
3.56085e-07
-1.42555e-07
4.27424e-07
-1.41399e-07
4.97643e-07
-1.39646e-07
5.66676e-07
-1.37903e-07
6.3477e-07
-1.3657e-07
7.02784e-07
-1.3609e-07
7.69942e-07
-1.34606e-07
8.36161e-07
-1.32233e-07
9.00581e-07
-1.27624e-07
9.64023e-07
-1.2611e-07
1.02618e-06
-1.24603e-07
1.08713e-06
-1.22637e-07
1.14697e-06
-1.19288e-07
1.20487e-06
-1.15061e-07
1.26213e-06
-1.11807e-07
1.31626e-06
-1.07863e-07
1.36897e-06
-1.05428e-07
1.41796e-06
-9.99455e-08
1.46527e-06
-9.51867e-08
1.51424e-06
-9.47128e-08
1.562e-06
-9.0123e-08
1.60531e-06
-8.30154e-08
1.64614e-06
-8.25359e-08
1.66416e-06
-5.70667e-08
1.67907e-06
-4.94914e-08
1.73032e-06
-8.60363e-08
1.7843e-06
-6.72848e-08
1.86116e-06
-8.42595e-08
1.92386e-06
-1.0359e-07
2.04006e-06
-1.38612e-07
2.16614e-06
-1.67771e-07
2.23267e-06
-1.21525e-07
2.26807e-06
-1.43115e-07
2.28378e-06
-1.37569e-07
2.32159e-06
-1.0811e-07
2.34952e-06
-9.60278e-08
2.38281e-06
-8.21518e-08
2.41217e-06
-7.28962e-08
2.4447e-06
-6.49424e-08
2.47142e-06
-5.56989e-08
2.49551e-06
-4.70025e-08
2.50519e-06
-3.25303e-08
2.50451e-06
-1.62952e-08
2.51435e-06
-2.88447e-08
2.5331e-06
-2.8809e-08
2.56452e-06
-2.76837e-08
2.59506e-06
-3.49113e-08
2.66034e-06
-6.92536e-08
2.78381e-06
-1.33482e-07
2.91042e-06
-1.37893e-07
3.00517e-06
-1.28187e-07
3.036e-06
-1.2783e-07
3.04745e-06
-1.31837e-07
3.04902e-06
-9.99673e-08
3.04975e-06
-6.56946e-08
3.03725e-06
-2.53686e-08
3.03244e-06
-1.9484e-08
3.03211e-06
-4.34313e-09
3.04e-06
-1.94768e-09
3.04904e-06
1.80833e-08
3.06671e-06
9.2905e-09
3.05598e-06
3.1459e-08
2.93923e-06
1.45299e-07
2.81288e-06
1.48604e-07
2.74818e-06
9.49696e-08
2.68075e-06
1.86433e-07
2.83991e-06
-4.10988e-08
3.03051e-06
-1.08735e-07
3.67967e-06
-4.97921e-07
4.52766e-06
-8.97175e-07
5.29078e-06
-7.85308e-07
5.8762e-06
-9.79396e-07
6.23423e-06
-1.06201e-06
6.48607e-06
-9.7066e-07
6.63913e-06
-8.05486e-07
6.72235e-06
-6.6766e-07
6.80686e-06
-5.64092e-07
6.90977e-06
-4.65816e-07
7.01019e-06
-3.37629e-07
7.08157e-06
-2.23683e-07
7.12667e-06
-1.46443e-07
7.14603e-06
-9.8636e-08
7.14951e-06
-4.69616e-08
7.14253e-06
3.12117e-09
7.12376e-06
3.62415e-08
7.09408e-06
6.33227e-08
7.05492e-06
7.70023e-08
7.00029e-06
9.59708e-08
6.93055e-06
1.2837e-07
6.85277e-06
1.56385e-07
6.76778e-06
1.72495e-07
6.67824e-06
1.82523e-07
6.57964e-06
1.97211e-07
6.47364e-06
2.13861e-07
6.36231e-06
2.23061e-07
6.24421e-06
2.30393e-07
6.11922e-06
2.44193e-07
5.9875e-06
2.65685e-07
5.84933e-06
2.83238e-07
5.70516e-06
2.97125e-07
5.55354e-06
3.06508e-07
5.39697e-06
3.14519e-07
5.23658e-06
3.23858e-07
5.07078e-06
3.33255e-07
4.89802e-06
3.45896e-07
4.71684e-06
3.64194e-07
4.52685e-06
3.85467e-07
4.33208e-06
3.97976e-07
4.13284e-06
4.03508e-07
3.93201e-06
4.02306e-07
3.72649e-06
4.05177e-07
3.51514e-06
4.15233e-07
3.2985e-06
4.27396e-07
3.07762e-06
4.40835e-07
2.8529e-06
4.50351e-07
2.62409e-06
4.58812e-07
2.38917e-06
4.71145e-07
2.14748e-06
4.82525e-07
1.89947e-06
4.91832e-07
1.6456e-06
5.0116e-07
1.38581e-06
5.13145e-07
1.12008e-06
5.27408e-07
8.49214e-07
5.41921e-07
5.73288e-07
5.55596e-07
2.9187e-07
5.67612e-07
5.71209e-09
5.77373e-07
-2.86039e-07
5.85956e-07
-5.83127e-07
5.94423e-07
-8.84351e-07
6.02635e-07
-1.19019e-06
6.11466e-07
-1.5006e-06
6.20148e-07
-1.81536e-06
6.29835e-07
-2.13447e-06
6.38657e-07
-2.45708e-06
6.45683e-07
-2.7837e-06
6.51888e-07
-3.11405e-06
6.59371e-07
-3.44846e-06
6.67537e-07
-3.78682e-06
6.76457e-07
-4.12787e-06
6.82669e-07
-4.47099e-06
6.87982e-07
-4.81666e-06
6.91135e-07
-5.16565e-06
6.95854e-07
-5.51765e-06
7.02497e-07
-5.87247e-06
7.08031e-07
-6.22805e-06
7.12003e-07
-6.58514e-06
7.1545e-07
-6.94392e-06
7.17731e-07
-7.30505e-06
7.17427e-07
-7.66683e-06
7.13607e-07
-8.02727e-06
7.0983e-07
-8.39495e-06
7.03994e-07
-8.75983e-06
7.01782e-07
6.96665e-07
5.08091e-05
1.32404e-06
5.09605e-05
2.72888e-06
5.14407e-05
4.15217e-06
5.2054e-05
3.93005e-06
5.26574e-05
1.90063e-06
5.36807e-05
-4.70213e-06
5.57655e-05
-1.03852e-05
5.85469e-05
-1.30277e-05
6.18931e-05
-1.38702e-05
6.54006e-05
-1.40463e-05
6.83471e-05
-1.36409e-05
7.00499e-05
-1.11342e-05
7.04208e-05
-7.51035e-06
7.05872e-05
-5.41136e-06
7.11301e-05
-4.73075e-06
7.2067e-05
-4.78345e-06
7.34815e-05
-5.58239e-06
7.49398e-05
-6.43664e-06
7.61224e-05
-6.40014e-06
7.68208e-05
-6.05497e-06
7.68596e-05
-5.60078e-06
7.64204e-05
-4.34079e-06
7.59125e-05
-1.84877e-06
7.53247e-05
1.07784e-06
7.43342e-05
3.60268e-06
7.32346e-05
5.34523e-06
7.2902e-05
5.99609e-06
7.38119e-05
5.62142e-06
7.57017e-05
4.41385e-06
7.76732e-05
2.2285e-06
7.87671e-05
1.17358e-06
7.90133e-05
1.19544e-06
7.8369e-05
2.10246e-06
7.64053e-05
4.36742e-06
7.3442e-05
7.43954e-06
6.94544e-05
9.86675e-06
6.51742e-05
1.22164e-05
6.14779e-05
1.3068e-05
5.79257e-05
1.29402e-05
5.473e-05
1.24495e-05
5.24486e-05
9.83579e-06
5.06768e-05
7.08106e-06
4.87391e-05
5.84817e-06
4.66931e-05
6.21534e-06
4.49836e-05
6.9688e-06
4.33101e-05
6.6216e-06
4.18789e-05
4.6339e-06
4.07063e-05
3.23919e-06
3.96074e-05
3.16087e-06
3.8468e-05
4.30566e-06
3.71554e-05
5.13975e-06
3.56091e-05
4.89607e-06
3.41927e-05
3.30436e-06
3.31572e-05
1.70301e-06
3.225e-05
1.00888e-06
3.13345e-05
8.32487e-07
3.02961e-05
1.11088e-06
2.90455e-05
2.00005e-06
2.7917e-05
2.47289e-06
2.73671e-05
2.35089e-06
2.74824e-05
2.02532e-06
2.79488e-05
1.79334e-06
2.85243e-05
1.93032e-06
2.86576e-05
2.86083e-06
2.75801e-05
4.47239e-06
2.58541e-05
5.08552e-06
2.38433e-05
4.99652e-06
2.17823e-05
4.16816e-06
2.02373e-05
2.37208e-06
1.93796e-05
7.19228e-07
1.87663e-05
-1.28398e-08
1.83094e-05
-8.32294e-08
1.80351e-05
5.66589e-07
1.75928e-05
1.56762e-06
1.70616e-05
1.91127e-06
1.64851e-05
1.67468e-06
1.59806e-05
1.28396e-06
1.61079e-05
9.06545e-07
1.69934e-05
7.06374e-07
1.752e-05
4.26572e-07
1.88076e-05