/*--------------------------------*- C++ -*----------------------------------*\
| =========                 |                                                 |
| \\      /  F ield         | OpenFOAM: The Open Source CFD Toolbox           |
|  \\    /   O peration     | Version:  v2006                                 |
|   \\  /    A nd           | Website:  www.openfoam.com                      |
|    \\/     M anipulation  |                                                 |
\*---------------------------------------------------------------------------*/
FoamFile
{
    version     2.0;
    format      ascii;
    class       volVectorField;
    location    "10";
    object      U;
}
// * * * * * * * * * * * * * * * * * * * * * * * * * * * * * * * * * * * * * //

dimensions      [0 1 -1 0 0 0 0];


internalField   nonuniform List<vector> 
33000
(
(0.116141 0 0.00345137)
(0.121495 0 0.00668502)
(0.116185 0 0.00916534)
(0.101181 0 0.00429904)
(0.0964303 0 -0.00540273)
(0.098236 0 -0.00930059)
(0.108189 0 -0.0117063)
(0.121508 0 -0.0141074)
(0.136228 0 -0.0130483)
(0.150325 0 -0.0126432)
(0.164021 0 -0.0137618)
(0.179043 0 -0.0130935)
(0.192342 0 -0.0121845)
(0.203423 0 -0.0106945)
(0.211796 0 -0.00874794)
(0.217677 0 -0.00738424)
(0.223003 0 -0.00784028)
(0.229829 0 -0.0072093)
(0.236132 0 -0.00489458)
(0.241254 0 -0.00347553)
(0.247758 0 -0.0033407)
(0.255482 0 -0.00291918)
(0.261042 0 -9.74265e-05)
(0.261268 0 0.00517977)
(0.25774 0 0.00680926)
(0.254598 0 0.00790246)
(0.248457 0 0.0114094)
(0.239234 0 0.0136948)
(0.228569 0 0.0131415)
(0.218754 0 0.00890098)
(0.212295 0 0.00395294)
(0.208748 0 0.000723605)
(0.206402 0 -0.000368509)
(0.205179 0 0.00148186)
(0.200816 0 0.00281849)
(0.194947 0 0.00305576)
(0.190204 0 0.00993854)
(0.176862 0 0.0160901)
(0.163089 0 0.0139271)
(0.150219 0 0.010486)
(0.138938 0 0.00683506)
(0.131534 0 0.00397377)
(0.126806 0 0.00186469)
(0.123944 0 0.00341594)
(0.1175 0 0.00682526)
(0.109415 0 0.00540524)
(0.104611 0 0.0025625)
(0.102099 0 0.00101449)
(0.100488 0 0.00155389)
(0.0975891 0 0.00453662)
(0.0912672 0 0.00556822)
(0.0859101 0 0.00333568)
(0.0831524 0 0.00109777)
(0.0822796 0 0.000317902)
(0.0822557 0 -1.16222e-05)
(0.0825897 0 -0.000311255)
(0.0831791 0 -0.000527347)
(0.0835993 0 -0.00045474)
(0.0833855 0 -0.000405285)
(0.0825839 0 6.37134e-05)
(0.0804654 0 0.00188216)
(0.0761916 0 0.0048572)
(0.070972 0 0.00605957)
(0.0651211 0 0.00503774)
(0.0603324 0 0.00349058)
(0.0562625 0 0.00252356)
(0.0528747 0 0.00206435)
(0.0503589 0 0.00101402)
(0.0493656 0 -0.00038264)
(0.0498307 0 -0.0013742)
(0.0510068 0 -0.00208284)
(0.0530004 0 -0.00198227)
(0.0539616 0 -0.00143558)
(0.0537776 0 -0.000966817)
(0.0532422 0 -0.000517812)
(0.0508813 0 -0.000138608)
(0.0503081 0 0.000845114)
(0.049981 0 0.00621467)
(0.0372274 0 0.00373881)
(0.0390843 0 0.000709059)
(0.0353905 0 0.000490667)
(0.0346866 0 0.00135779)
(0.0320777 0 0.00483922)
(0.0290775 0 0.00338868)
(0.027772 0 0.00159294)
(0.0254118 0 0.000749197)
(0.0226405 0 0.000406781)
(0.020313 0 0.000569327)
(0.0188694 0 0.000656273)
(0.0178111 0 0.000978609)
(0.0164206 0 0.000805516)
(0.0154064 0 0.000536598)
(0.0142824 0 0.000690629)
(0.0127756 0 0.000919768)
(0.0115846 0 0.00171871)
(0.00933992 0 0.00200605)
(0.0077908 0 0.0024052)
(0.00499536 0 0.0023453)
(0.00338174 0 0.00465066)
(-0.00187019 0 0.00466722)
(-0.00619153 0 0.00213713)
(-0.010341 0 -0.00175816)
(-0.0112948 0 -0.00271023)
(-0.0124844 0 -0.000126997)
(-0.0129385 0 0.00161003)
(-0.0128324 0 0.00215975)
(-0.0131734 0 0.00122677)
(-0.0140924 0 0.000923892)
(-0.0152163 0 -0.000416365)
(-0.0155314 0 -0.000696106)
(-0.0158063 0 -0.000569557)
(-0.0160667 0 -0.000138218)
(-0.0159745 0 9.2189e-05)
(-0.0160652 0 0.000325861)
(-0.0163747 0 0.000526261)
(-0.0167608 0 0.000712202)
(-0.0175532 0 0.000879801)
(-0.0181823 0 0.000557503)
(-0.0191114 0 6.0899e-06)
(-0.0194133 0 -0.000354822)
(-0.0196283 0 -0.000353863)
(-0.0197749 0 6.17881e-05)
(-0.0198669 0 0.00022686)
(-0.0197145 0 0.000316006)
(-0.0196935 0 0.000129705)
(-0.0197209 0 -2.9485e-05)
(-0.0196652 0 -0.000248171)
(-0.0196061 0 -0.000192332)
(-0.0194564 0 -0.000249599)
(-0.0191198 0 -0.000175786)
(-0.0187977 0 -0.0002298)
(-0.0184348 0 -0.000240266)
(-0.0180746 0 -0.000279117)
(-0.0177701 0 -0.000256794)
(-0.0173587 0 -0.000360774)
(-0.0168618 0 -0.000404054)
(-0.0162502 0 -0.000443622)
(-0.0156362 0 -0.000439284)
(-0.0149975 0 -0.000470188)
(-0.0143392 0 -0.000504482)
(-0.0136354 0 -0.000550594)
(-0.012888 0 -0.000584581)
(-0.0121181 0 -0.000571579)
(-0.0113929 0 -0.000539503)
(-0.0106699 0 -0.000557353)
(-0.00991215 0 -0.000600472)
(-0.00910696 0 -0.000653268)
(-0.0082448 0 -0.000686317)
(-0.0073749 0 -0.000666624)
(-0.00656543 0 -0.000603087)
(-0.00579726 0 -0.000621643)
(-0.00495469 0 -0.000681001)
(-0.00406555 0 -0.000701074)
(-0.00318129 0 -0.000695177)
(-0.00231861 0 -0.000676831)
(-0.00147489 0 -0.000652965)
(-0.000638689 0 -0.000647198)
(0.000199592 0 -0.00065562)
(0.00104366 0 -0.0006631)
(0.00187547 0 -0.00065341)
(0.00268697 0 -0.0006399)
(0.00348797 0 -0.000628568)
(0.00428446 0 -0.000621101)
(0.00507099 0 -0.000612123)
(0.00584916 0 -0.00059806)
(0.00659857 0 -0.000572507)
(0.00730746 0 -0.000557071)
(0.00801144 0 -0.000552669)
(0.00871241 0 -0.000548416)
(0.00940666 0 -0.000524828)
(0.0100458 0 -0.000479864)
(0.0106373 0 -0.000462428)
(0.0112303 0 -0.000464327)
(0.0118184 0 -0.000456538)
(0.0123866 0 -0.00044083)
(0.0129356 0 -0.000406251)
(0.0134254 0 -0.000348842)
(0.0138482 0 -0.000313922)
(0.0142429 0 -0.000306375)
(0.0146233 0 -0.000303137)
(0.0149997 0 -0.000285774)
(0.0153436 0 -0.000252134)
(0.0156468 0 -0.000219077)
(0.0159142 0 -0.000178121)
(0.0161093 0 -0.000130789)
(0.0162495 0 -0.000110032)
(0.0163772 0 -0.000100012)
(0.0164884 0 -6.96038e-05)
(0.0165503 0 -1.50943e-05)
(0.0165464 0 3.43172e-05)
(0.0164872 0 6.99627e-05)
(0.0163835 0 8.5649e-05)
(0.0162614 0 0.000101327)
(0.0161105 0 0.000126449)
(0.0159294 0 0.000155483)
(0.0157034 0 0.000204892)
(0.0154044 0 0.000264829)
(0.0150441 0 0.000307662)
(0.0146442 0 0.000322766)
(0.0142434 0 0.000315318)
(0.0138377 0 0.000328616)
(0.0133943 0 0.000359845)
(0.012909 0 0.000396355)
(0.0123804 0 0.000432395)
(0.011824 0 0.000442209)
(0.0112721 0 0.000434069)
(0.0107166 0 0.000441241)
(0.0101377 0 0.000471873)
(0.00950694 0 0.000514743)
(0.00885085 0 0.000498687)
(0.00825216 0 0.000459474)
(0.00766998 0 0.000456548)
(0.0070763 0 0.000458473)
(0.00649042 0 0.000472744)
(0.00586955 0 0.000505311)
(0.0052263 0 0.000509414)
(0.00459696 0 0.000476243)
(0.0040165 0 0.000432776)
(0.00347812 0 0.000418176)
(0.00293953 0 0.000410745)
(0.00242029 0 0.000410514)
(0.00188799 0 0.000427161)
(0.00134436 0 0.00042906)
(0.00081595 0 0.000405262)
(0.000319623 0 0.000367621)
(-0.000132175 0 0.000342636)
(-0.000565364 0 0.000329845)
(-0.000983115 0 0.000323835)
(-0.00139907 0 0.000333277)
(-0.00182689 0 0.000334306)
(-0.00223933 0 0.000319267)
(-0.0026287 0 0.000292777)
(-0.00298091 0 0.000263455)
(-0.00330652 0 0.000251827)
(-0.00362785 0 0.000250426)
(-0.00394139 0 0.000244053)
(-0.00424717 0 0.000232575)
(-0.00454034 0 0.00022497)
(-0.00482903 0 0.00022184)
(-0.00510811 0 0.000218647)
(-0.00537725 0 0.000209823)
(-0.0056254 0 0.000183045)
(-0.00584473 0 0.000167435)
(-0.00605978 0 0.000163492)
(-0.00626636 0 0.000159734)
(-0.00647263 0 0.000165868)
(-0.00668763 0 0.000171276)
(-0.00689551 0 0.000151364)
(-0.00706839 0 0.00012751)
(-0.00722617 0 0.000122757)
(-0.00738611 0 0.000121386)
(-0.00753965 0 0.000122199)
(-0.00769868 0 0.000127601)
(-0.00785901 0 0.000125174)
(-0.00800777 0 0.000112355)
(-0.0081404 0 0.000100176)
(-0.00826573 0 9.63505e-05)
(-0.00839081 0 9.61782e-05)
(-0.00851737 0 9.68238e-05)
(-0.00863883 0 9.64452e-05)
(-0.00875674 0 9.23585e-05)
(-0.00886704 0 8.25295e-05)
(-0.00896754 0 7.63374e-05)
(-0.00906477 0 7.6618e-05)
(-0.00916684 0 8.18106e-05)
(-0.00927453 0 8.77383e-05)
(-0.00938597 0 8.47939e-05)
(-0.00948226 0 6.82341e-05)
(-0.00956166 0 6.17206e-05)
(-0.0096429 0 6.18253e-05)
(-0.00972202 0 6.01075e-05)
(-0.00979875 0 5.91625e-05)
(-0.0098752 0 6.32721e-05)
(-0.00995734 0 6.79052e-05)
(-0.0100404 0 6.38959e-05)
(-0.0101144 0 5.20748e-05)
(-0.0101762 0 4.51477e-05)
(-0.0102336 0 4.37235e-05)
(-0.0102886 0 4.10235e-05)
(-0.0103389 0 3.67146e-05)
(-0.0103834 0 3.41095e-05)
(-0.0104279 0 3.72635e-05)
(-0.0104772 0 3.9462e-05)
(-0.0105232 0 3.03925e-05)
(-0.0105527 0 1.81195e-05)
(-0.0105717 0 1.38365e-05)
(-0.0105898 0 1.15327e-05)
(-0.0106026 0 6.51395e-06)
(-0.0106083 0 2.23015e-06)
(-0.0106097 0 1.51253e-06)
(-0.0106103 0 -7.1595e-08)
(-0.0106048 0 -7.37388e-06)
(-0.0105873 0 -1.85433e-05)
(-0.0105585 0 -2.67408e-05)
(-0.0105226 0 -3.27987e-05)
(-0.0104784 0 -3.90019e-05)
(-0.0104256 0 -4.1536e-05)
(-0.0103697 0 -4.38885e-05)
(-0.0103069 0 -5.21485e-05)
(-0.0102336 0 -6.32207e-05)
(-0.0101498 0 -7.20663e-05)
(-0.0100545 0 -8.01336e-05)
(-0.0099481 0 -8.49278e-05)
(-0.00983741 0 -8.74893e-05)
(-0.00972141 0 -9.4052e-05)
(-0.0095955 0 -0.000103739)
(-0.00945895 0 -0.000113034)
(-0.00931074 0 -0.000118246)
(-0.00915808 0 -0.000120922)
(-0.00900039 0 -0.00012652)
(-0.00883544 0 -0.000133597)
(-0.00866296 0 -0.00013903)
(-0.00848468 0 -0.000141163)
(-0.00830474 0 -0.000141013)
(-0.00812484 0 -0.000140868)
(-0.00794496 0 -0.000141843)
(-0.00776448 0 -0.000142894)
(-0.00758326 0 -0.00014272)
(-0.00740234 0 -0.000141109)
(-0.00722415 0 -0.000138608)
(-0.0070493 0 -0.000135574)
(-0.00687887 0 -0.000132043)
(-0.00671319 0 -0.000128442)
(-0.00655205 0 -0.00012428)
(-0.00639663 0 -0.000119371)
(-0.00624714 0 -0.000114572)
(-0.00610365 0 -0.000110162)
(-0.00596585 0 -0.000105831)
(-0.00583426 0 -0.000100263)
(-0.00571059 0 -9.39067e-05)
(-0.00559391 0 -8.86025e-05)
(-0.00548358 0 -8.41651e-05)
(-0.00537852 0 -8.01594e-05)
(-0.00527955 0 -7.52485e-05)
(-0.00518722 0 -6.94855e-05)
(-0.00510277 0 -6.33616e-05)
(-0.00502552 0 -5.82514e-05)
(-0.00495426 0 -5.4019e-05)
(-0.00488773 0 -5.07e-05)
(-0.00482501 0 -4.6985e-05)
(-0.00476747 0 -4.32337e-05)
(-0.0047142 0 -3.97831e-05)
(-0.00466545 0 -3.66619e-05)
(-0.00462058 0 -3.387e-05)
(-0.00457953 0 -3.13916e-05)
(-0.00454151 0 -2.94008e-05)
(-0.00450563 0 -2.7854e-05)
(-0.00447134 0 -2.64053e-05)
(-0.00443878 0 -2.52019e-05)
(-0.00440729 0 -2.42449e-05)
(-0.00437688 0 -2.36264e-05)
(-0.00434685 0 -2.32809e-05)
(-0.00431723 0 -2.32576e-05)
(-0.0042872 0 -2.40267e-05)
(-0.00425572 0 -2.53405e-05)
(-0.00422253 0 -2.69415e-05)
(-0.00418723 0 -2.8713e-05)
(-0.0041497 0 -3.05513e-05)
(-0.00410987 0 -3.26441e-05)
(-0.00406717 0 -3.52008e-05)
(-0.00402092 0 -3.80412e-05)
(-0.00397089 0 -4.10909e-05)
(-0.00391662 0 -4.44137e-05)
(-0.00385808 0 -4.80965e-05)
(-0.00379457 0 -5.16495e-05)
(-0.00372718 0 -5.43308e-05)
(-0.00365635 0 -5.70353e-05)
(-0.00358094 0 -6.10611e-05)
(-0.00349937 0 -6.64205e-05)
(-0.00341091 0 -7.19845e-05)
(-0.00331664 0 -7.59606e-05)
(-0.0032188 0 -7.89381e-05)
(-0.00311673 0 -8.26473e-05)
(-0.0030081 0 -8.74966e-05)
(-0.00289332 0 -9.24771e-05)
(-0.0027718 0 -9.74109e-05)
(-0.00264521 0 -0.000101148)
(-0.00251403 0 -0.000105361)
(-0.00237779 0 -0.000108136)
(-0.00223814 0 -0.000109636)
(-0.00209581 0 -0.000112171)
(-0.00194768 0 -0.000118278)
(-0.00179281 0 -0.000122943)
(-0.00163341 0 -0.000126259)
(-0.00147126 0 -0.000127942)
(-0.00130591 0 -0.000130261)
(-0.00113817 0 -0.000131107)
(-0.000968639 0 -0.000133538)
(-0.00079566 0 -0.000135942)
(-0.00061989 0 -0.000137532)
(-0.000443582 0 -0.000137218)
(-0.000267125 0 -0.000137309)
(-8.99026e-05 0 -0.000138849)
(8.94456e-05 0 -0.000140061)
(0.000269074 0 -0.000140722)
(0.000448658 0 -0.000140055)
(0.000627934 0 -0.000140562)
(0.000806977 0 -0.000137661)
(0.000982881 0 -0.00013669)
(0.0011573 0 -0.000134514)
(0.0013302 0 -0.000135772)
(0.00150151 0 -0.000133075)
(0.00167293 0 -0.000134246)
(0.00184154 0 -0.000130949)
(0.00201079 0 -0.000130342)
(0.00217099 0 -0.00012166)
(0.0023277 0 -0.000123394)
(0.00248364 0 -0.000123106)
(0.00264081 0 -0.000123025)
(0.00279139 0 -0.000120178)
(0.00293894 0 -0.000113893)
(0.00307656 0 -0.000110306)
(0.00321241 0 -0.000104378)
(0.00334473 0 -0.000107584)
(0.00347652 0 -9.79178e-05)
(0.00359899 0 -0.000102638)
(0.00371647 0 -8.97507e-05)
(0.003827 0 -9.58852e-05)
(0.00392881 0 -7.07351e-05)
(0.00402507 0 -7.91839e-05)
(0.00413775 0 -5.13168e-05)
(0.00421924 0 -7.42931e-05)
(0.00431214 0 -7.94716e-05)
(0.00439096 0 -0.000107081)
(0.00437988 0 -4.57568e-05)
(0.0044286 0 -2.65077e-05)
(0.00458326 0 0.000168387)
(0.00453908 0 0.000115619)
(0.00479895 0 -0.000124991)
(0.00480012 0 -0.000336922)
(0.00534707 0 -0.000378986)
(0.00541508 0 -0.000148975)
(0.00568651 0 -0.000175997)
(0.00576452 0 -0.000112769)
(0.00592443 0 -0.000125219)
(0.00598688 0 -9.05475e-05)
(0.00608379 0 -7.80332e-05)
(0.00613311 0 -3.83415e-05)
(0.0061985 0 -6.62824e-06)
(0.00624625 0 8.01656e-06)
(0.00628558 0 -7.54285e-06)
(0.00633887 0 -4.97926e-05)
(0.00633769 0 -3.95592e-05)
(0.00632034 0 -4.22998e-05)
(0.0063597 0 8.14582e-05)
(0.00633799 0 0.00014997)
(0.00641744 0 0.000153198)
(0.00638132 0 -3.42243e-05)
(0.00659244 0 -0.00030326)
(0.00687548 0 -0.000368292)
(0.00717827 0 -0.000248797)
(0.00738085 0 -0.000168875)
(0.00749225 0 -6.1633e-05)
(0.00757966 0 -2.55843e-05)
(0.00760583 0 -3.29405e-05)
(0.00761009 0 -1.3592e-05)
(0.00756975 0 -7.05579e-05)
(0.00748051 0 2.75969e-05)
(0.00743034 0 7.51392e-06)
(0.00737951 0 0.000217541)
(0.00728714 0 9.37861e-05)
(0.00726798 0 7.1196e-05)
(0.00713497 0 -0.000170473)
(0.00667562 0 -8.23339e-05)
(0.00654298 0 2.37134e-05)
(0.00626463 0 0.000974475)
(0.00579273 0 0.000875925)
(0.00650683 0 0.000828994)
(0.00589464 0 5.99342e-05)
(0.0085045 0 -0.00150075)
(0.00959177 0 -0.0019265)
(0.0116285 0 -0.00177532)
(0.013223 0 -0.00165827)
(0.0144128 0 -0.00128681)
(0.0155734 0 -0.000890044)
(0.0162792 0 -0.000533694)
(0.0167586 0 -0.000341247)
(0.0170597 0 -0.000234341)
(0.0172837 0 -0.000205907)
(0.0174411 0 -0.000121743)
(0.0174948 0 -1.48715e-05)
(0.017475 0 3.61003e-05)
(0.0174084 0 7.33726e-05)
(0.0173148 0 7.7392e-05)
(0.017218 0 7.48913e-05)
(0.0170986 0 0.000108637)
(0.0169234 0 0.000157469)
(0.0167104 0 0.000176372)
(0.016488 0 0.000188123)
(0.0162517 0 0.000195618)
(0.0159904 0 0.000215687)
(0.0157126 0 0.000221417)
(0.0154336 0 0.000215523)
(0.0151489 0 0.000228564)
(0.0148344 0 0.00026474)
(0.014484 0 0.000290291)
(0.0141092 0 0.000306122)
(0.0137236 0 0.000304603)
(0.0133347 0 0.000309072)
(0.0129327 0 0.000322519)
(0.0125173 0 0.000328774)
(0.0120951 0 0.000338528)
(0.0116531 0 0.000358642)
(0.0111784 0 0.000385442)
(0.0106769 0 0.000403199)
(0.0101656 0 0.000403839)
(0.00965853 0 0.000395949)
(0.00915932 0 0.000388812)
(0.00865619 0 0.000396571)
(0.00813918 0 0.000411699)
(0.00760173 0 0.00043387)
(0.0070427 0 0.000446622)
(0.00647307 0 0.000455455)
(0.00589244 0 0.000467744)
(0.0052948 0 0.000474067)
(0.00468679 0 0.000476794)
(0.00407482 0 0.00048215)
(0.00345117 0 0.000494615)
(0.00280828 0 0.000512827)
(0.00214419 0 0.000534327)
(0.00145527 0 0.000554314)
(0.00074599 0 0.000568842)
(2.37219e-05 0 0.000579521)
(-0.000708872 0 0.000584351)
(-0.00144766 0 0.000589522)
(-0.00219521 0 0.000597175)
(-0.00295395 0 0.000606535)
(-0.00372232 0 0.0006149)
(-0.00450276 0 0.000625364)
(-0.0052959 0 0.000634673)
(-0.0060993 0 0.000641212)
(-0.00690959 0 0.000646367)
(-0.00772755 0 0.000653426)
(-0.00855232 0 0.000661174)
(-0.00939476 0 0.000671227)
(-0.0102361 0 0.000678462)
(-0.0111097 0 0.000685982)
(-0.011949 0 0.000686122)
(-0.0128448 0 0.000688999)
(-0.0136723 0 0.000696308)
(-0.0146054 0 0.00070171)
(-0.015463 0 0.00070942)
(-0.0163114 0 0.000713136)
(-0.0172725 0 0.000712679)
(-0.0181694 0 0.000705416)
(-0.0192251 0 0.000688657)
(-0.0196699 0 0.00067462)
(-0.0197829 0 0.000629673)
(-0.0246608 0 0.000621202)
(-0.0177437 0 0.000566569)
(0.117129 0 0.00567497)
(0.126252 0 0.0117218)
(0.126133 0 0.0199532)
(0.121272 0 0.0203934)
(0.118054 0 0.0126481)
(0.115208 0 -0.0101718)
(0.124201 0 -0.0266742)
(0.133606 0 -0.0330504)
(0.144821 0 -0.0329013)
(0.157647 0 -0.0327011)
(0.168935 0 -0.0343337)
(0.181309 0 -0.0313956)
(0.189716 0 -0.0258912)
(0.194268 0 -0.0197965)
(0.197457 0 -0.0147797)
(0.199933 0 -0.0124318)
(0.202964 0 -0.0124083)
(0.207936 0 -0.0136835)
(0.214779 0 -0.013878)
(0.222252 0 -0.0152687)
(0.229035 0 -0.0181748)
(0.238464 0 -0.0160227)
(0.244079 0 -0.00879044)
(0.244965 0 -0.00129276)
(0.243062 0 0.00228667)
(0.238802 0 0.0056133)
(0.230712 0 0.0114919)
(0.222728 0 0.017644)
(0.215526 0 0.020182)
(0.212387 0 0.0186074)
(0.212197 0 0.0130254)
(0.211876 0 0.00869301)
(0.210503 0 0.00785042)
(0.209758 0 0.00919227)
(0.2055 0 0.0135309)
(0.197443 0 0.0147649)
(0.187162 0 0.018705)
(0.174462 0 0.0254396)
(0.165047 0 0.0277287)
(0.154093 0 0.0280465)
(0.143089 0 0.0233782)
(0.135229 0 0.0159991)
(0.129406 0 0.0105166)
(0.123956 0 0.0110496)
(0.117675 0 0.0159348)
(0.111692 0 0.0149217)
(0.106345 0 0.00902534)
(0.102739 0 0.00544321)
(0.100096 0 0.00564509)
(0.0972686 0 0.00998284)
(0.0934316 0 0.0120994)
(0.0893305 0 0.0097509)
(0.0853731 0 0.00459486)
(0.0835018 0 0.00107876)
(0.0828327 0 -0.000688783)
(0.0825735 0 -0.0012633)
(0.0821517 0 -0.00112642)
(0.0811938 0 -1.17442e-05)
(0.0783645 0 0.00195308)
(0.075333 0 0.00496634)
(0.0726912 0 0.00785043)
(0.0710653 0 0.00954387)
(0.0706328 0 0.0110572)
(0.0693806 0 0.0114401)
(0.0664314 0 0.0105445)
(0.0614807 0 0.00921092)
(0.0567843 0 0.00729532)
(0.0525942 0 0.00458292)
(0.0499309 0 0.00122859)
(0.0490595 0 -0.0016088)
(0.0487839 0 -0.00327104)
(0.0487987 0 -0.00290672)
(0.0484656 0 -0.000325703)
(0.0464167 0 0.00250877)
(0.0441449 0 0.00417358)
(0.0419417 0 0.00442219)
(0.0417229 0 0.00465839)
(0.0425358 0 0.00830207)
(0.0452095 0 0.0121954)
(0.0455509 0 0.00402517)
(0.0465531 0 0.00659919)
(0.0352243 0 0.00416496)
(0.0373785 0 0.00391991)
(0.0335977 0 0.00334289)
(0.0318268 0 0.00388395)
(0.0297076 0 0.00761343)
(0.0269022 0 0.00739879)
(0.0241912 0 0.00559282)
(0.0221242 0 0.00310823)
(0.0201711 0 0.00302163)
(0.0172038 0 0.00286813)
(0.0158205 0 0.00288832)
(0.0147081 0 0.00339995)
(0.0134704 0 0.00336054)
(0.0121231 0 0.00364241)
(0.0108182 0 0.00398438)
(0.00908914 0 0.00440242)
(0.00799082 0 0.00459053)
(0.00641001 0 0.00614581)
(0.00652538 0 0.0103604)
(0.00393432 0 0.011154)
(0.0024882 0 0.00986226)
(-0.00276123 0 0.00601399)
(-0.00704982 0 0.00272774)
(-0.011149 0 -0.00110276)
(-0.0135782 0 -0.00181861)
(-0.0149916 0 0.000762881)
(-0.0157973 0 0.00229208)
(-0.016271 0 0.00272493)
(-0.0153788 0 0.00161132)
(-0.0153024 0 0.00145245)
(-0.0157137 0 0.000358874)
(-0.0160218 0 -3.90644e-05)
(-0.0164717 0 0.000219587)
(-0.0169015 0 0.000731657)
(-0.0169051 0 0.000938153)
(-0.0169822 0 0.00154888)
(-0.0170475 0 0.00204387)
(-0.017432 0 0.00172558)
(-0.0179337 0 0.00120736)
(-0.0186925 0 0.000788122)
(-0.019652 0 0.00029713)
(-0.0199587 0 -0.000316346)
(-0.0200567 0 -0.000546715)
(-0.0201228 0 -0.000123059)
(-0.0200244 0 -1.59292e-06)
(-0.0197358 0 5.78897e-05)
(-0.0195976 0 -0.000133607)
(-0.0194554 0 -0.000519158)
(-0.0191679 0 -0.000864693)
(-0.0189451 0 -0.00084128)
(-0.0186397 0 -0.00090697)
(-0.0182881 0 -0.000757685)
(-0.017879 0 -0.000876025)
(-0.0174193 0 -0.00106366)
(-0.0169087 0 -0.0013462)
(-0.0163345 0 -0.00148201)
(-0.0157315 0 -0.00153261)
(-0.0151285 0 -0.00156826)
(-0.0144827 0 -0.00163579)
(-0.0137948 0 -0.00173332)
(-0.0130583 0 -0.00179732)
(-0.0123035 0 -0.00178479)
(-0.0115501 0 -0.00173061)
(-0.0107868 0 -0.00177695)
(-0.00999683 0 -0.00185116)
(-0.00918077 0 -0.00197256)
(-0.0083335 0 -0.00203322)
(-0.00751549 0 -0.00197725)
(-0.00669771 0 -0.00187378)
(-0.00586854 0 -0.00191129)
(-0.00501877 0 -0.00204152)
(-0.00413284 0 -0.00208803)
(-0.00326875 0 -0.00204981)
(-0.00243575 0 -0.00200626)
(-0.00159021 0 -0.00198647)
(-0.00071784 0 -0.00198674)
(0.000153268 0 -0.00198712)
(0.00100775 0 -0.0019733)
(0.0018265 0 -0.00192691)
(0.00262651 0 -0.00189541)
(0.0034237 0 -0.00187999)
(0.00422754 0 -0.00186835)
(0.00502576 0 -0.00184527)
(0.00581384 0 -0.00180409)
(0.00657354 0 -0.00171824)
(0.00728795 0 -0.00166207)
(0.00798917 0 -0.00165522)
(0.00869321 0 -0.0016434)
(0.00938247 0 -0.00157244)
(0.010027 0 -0.00145168)
(0.0106388 0 -0.00139913)
(0.0112322 0 -0.00139134)
(0.0118145 0 -0.00136171)
(0.012375 0 -0.00131332)
(0.0129131 0 -0.00122876)
(0.0134147 0 -0.00108468)
(0.0138659 0 -0.000971153)
(0.0142743 0 -0.000911819)
(0.0146482 0 -0.000886592)
(0.0150098 0 -0.000847036)
(0.0153485 0 -0.000765899)
(0.0156548 0 -0.000677518)
(0.0159251 0 -0.000552508)
(0.0161312 0 -0.000393863)
(0.0162765 0 -0.000312529)
(0.0163906 0 -0.000275233)
(0.0164806 0 -0.000204997)
(0.0165419 0 -7.60994e-05)
(0.0165621 0 6.3237e-05)
(0.0165294 0 0.00018609)
(0.0164378 0 0.000268743)
(0.0162995 0 0.00032723)
(0.0161333 0 0.000395)
(0.0159395 0 0.000483869)
(0.0157007 0 0.000619254)
(0.0154163 0 0.000772124)
(0.0150802 0 0.000886457)
(0.014707 0 0.000936697)
(0.014309 0 0.000950787)
(0.0138845 0 0.00100645)
(0.0134308 0 0.00109972)
(0.0129377 0 0.00119768)
(0.0124193 0 0.00127297)
(0.0118882 0 0.00130036)
(0.0113418 0 0.00130554)
(0.0107719 0 0.00134275)
(0.0101718 0 0.00142787)
(0.00955027 0 0.00151036)
(0.00893343 0 0.00147242)
(0.00832906 0 0.00139656)
(0.00772874 0 0.00139139)
(0.00712195 0 0.00139637)
(0.00651763 0 0.00142227)
(0.00590181 0 0.00148312)
(0.00528621 0 0.0014891)
(0.00467534 0 0.0014269)
(0.00408334 0 0.00132388)
(0.00352311 0 0.00127577)
(0.00296964 0 0.00125145)
(0.00243109 0 0.00124191)
(0.00190132 0 0.00126434)
(0.00137817 0 0.00125513)
(0.000866156 0 0.00120574)
(0.000364659 0 0.00112211)
(-0.000109791 0 0.00104828)
(-0.000557371 0 0.00100821)
(-0.000990945 0 0.000985591)
(-0.00141158 0 0.00099371)
(-0.00182844 0 0.000985618)
(-0.00223322 0 0.000941232)
(-0.00261156 0 0.000872712)
(-0.00296441 0 0.000801665)
(-0.00330356 0 0.000765304)
(-0.00362811 0 0.000747396)
(-0.00394281 0 0.000729473)
(-0.00425629 0 0.000709091)
(-0.00456284 0 0.00068932)
(-0.00485406 0 0.000671305)
(-0.00512654 0 0.000641705)
(-0.00537505 0 0.000604055)
(-0.00561276 0 0.000550272)
(-0.00584497 0 0.000515576)
(-0.00606927 0 0.000498867)
(-0.00628581 0 0.00048856)
(-0.0064989 0 0.00049583)
(-0.00670123 0 0.000493378)
(-0.00688921 0 0.000446598)
(-0.00706586 0 0.000391246)
(-0.00723238 0 0.000377016)
(-0.00739855 0 0.000370758)
(-0.00756151 0 0.000368917)
(-0.0077176 0 0.00037427)
(-0.00786465 0 0.000360318)
(-0.0080024 0 0.000329806)
(-0.00813352 0 0.000304784)
(-0.00826535 0 0.00029741)
(-0.00839825 0 0.000299126)
(-0.00853195 0 0.000293178)
(-0.00865044 0 0.000278864)
(-0.00875827 0 0.000266731)
(-0.00886573 0 0.000247776)
(-0.00897054 0 0.000234756)
(-0.00907297 0 0.000235619)
(-0.00917661 0 0.000248354)
(-0.00928221 0 0.000255604)
(-0.00938346 0 0.000242526)
(-0.00947616 0 0.000206348)
(-0.00956161 0 0.000191337)
(-0.00964531 0 0.000189564)
(-0.00972808 0 0.000185111)
(-0.0098106 0 0.000181018)
(-0.00988936 0 0.000185926)
(-0.00996408 0 0.000191425)
(-0.0100354 0 0.000182996)
(-0.0101056 0 0.000161382)
(-0.0101732 0 0.000142009)
(-0.0102357 0 0.000133042)
(-0.010294 0 0.000124311)
(-0.010346 0 0.000112371)
(-0.0103919 0 0.000105247)
(-0.0104375 0 0.000110176)
(-0.0104817 0 0.000110328)
(-0.0105207 0 8.84251e-05)
(-0.0105509 0 5.78584e-05)
(-0.0105727 0 4.45608e-05)
(-0.0105932 0 3.70658e-05)
(-0.0106103 0 2.27597e-05)
(-0.0106194 0 8.6333e-06)
(-0.0106198 0 1.82273e-06)
(-0.0106144 0 -7.72017e-06)
(-0.0106019 0 -2.84696e-05)
(-0.0105816 0 -5.42661e-05)
(-0.0105568 0 -7.49504e-05)
(-0.010526 0 -9.27844e-05)
(-0.0104856 0 -0.000113574)
(-0.0104328 0 -0.000129148)
(-0.0103699 0 -0.000142813)
(-0.0102996 0 -0.000161485)
(-0.0102255 0 -0.000183857)
(-0.0101467 0 -0.000209065)
(-0.0100552 0 -0.000237085)
(-0.00994967 0 -0.00025634)
(-0.0098346 0 -0.000268796)
(-0.00971382 0 -0.000286222)
(-0.00959008 0 -0.000308691)
(-0.00945761 0 -0.000334592)
(-0.00931065 0 -0.000354685)
(-0.00915516 0 -0.000366772)
(-0.00899434 0 -0.000380602)
(-0.00883226 0 -0.000396585)
(-0.00866435 0 -0.000412264)
(-0.00848814 0 -0.000421729)
(-0.00830823 0 -0.000424523)
(-0.00812637 0 -0.000424423)
(-0.00794728 0 -0.00042446)
(-0.00777029 0 -0.000425377)
(-0.00759079 0 -0.000426357)
(-0.00740965 0 -0.00042314)
(-0.00723117 0 -0.000416106)
(-0.00705576 0 -0.00040697)
(-0.00688536 0 -0.000396017)
(-0.00671992 0 -0.000385067)
(-0.00655883 0 -0.00037303)
(-0.00640264 0 -0.000359719)
(-0.00625149 0 -0.000345693)
(-0.00610656 0 -0.000331798)
(-0.00596788 0 -0.000317379)
(-0.00583636 0 -0.000300835)
(-0.00571201 0 -0.000283638)
(-0.00559436 0 -0.000268158)
(-0.00548311 0 -0.000254167)
(-0.00537757 0 -0.000240539)
(-0.00527891 0 -0.000225243)
(-0.00518673 0 -0.000208458)
(-0.00510196 0 -0.000190638)
(-0.00502357 0 -0.000175284)
(-0.00495226 0 -0.000162411)
(-0.00488642 0 -0.000152615)
(-0.00482354 0 -0.000141966)
(-0.00476541 0 -0.000131061)
(-0.00471161 0 -0.000120541)
(-0.0046627 0 -0.000110593)
(-0.00461831 0 -0.000101169)
(-0.00457865 0 -9.29827e-05)
(-0.0045428 0 -8.67471e-05)
(-0.00450855 0 -8.24894e-05)
(-0.00447514 0 -7.8671e-05)
(-0.0044432 0 -7.55053e-05)
(-0.00441208 0 -7.30748e-05)
(-0.00438199 0 -7.13679e-05)
(-0.00435233 0 -7.05008e-05)
(-0.00432309 0 -7.04387e-05)
(-0.00429348 0 -7.26474e-05)
(-0.00426247 0 -7.62415e-05)
(-0.0042299 0 -8.06906e-05)
(-0.00419531 0 -8.56714e-05)
(-0.00415856 0 -9.09965e-05)
(-0.00412002 0 -9.69408e-05)
(-0.00407869 0 -0.000104523)
(-0.00403345 0 -0.000113168)
(-0.00398414 0 -0.000122744)
(-0.00393053 0 -0.000132759)
(-0.00387275 0 -0.00014359)
(-0.00381038 0 -0.000153971)
(-0.00374362 0 -0.000162741)
(-0.00367203 0 -0.000172682)
(-0.00359522 0 -0.000185514)
(-0.00351296 0 -0.000200696)
(-0.00342483 0 -0.000215048)
(-0.00333181 0 -0.000225872)
(-0.003235 0 -0.00023507)
(-0.00313366 0 -0.000248387)
(-0.00302495 0 -0.000263491)
(-0.00290956 0 -0.000278798)
(-0.00278771 0 -0.000292408)
(-0.00266141 0 -0.000303864)
(-0.00253128 0 -0.000314775)
(-0.00239686 0 -0.000325379)
(-0.00225656 0 -0.000333411)
(-0.00211011 0 -0.000344202)
(-0.0019591 0 -0.000357842)
(-0.00180412 0 -0.000370835)
(-0.00164557 0 -0.000379001)
(-0.00148397 0 -0.00038658)
(-0.00131972 0 -0.00039317)
(-0.00115144 0 -0.000398764)
(-0.000980636 0 -0.000404726)
(-0.000806688 0 -0.00041198)
(-0.00063148 0 -0.000415819)
(-0.000454502 0 -0.000417003)
(-0.00027634 0 -0.000418575)
(-9.65786e-05 0 -0.000421345)
(8.32071e-05 0 -0.000424187)
(0.000263095 0 -0.000423672)
(0.000442101 0 -0.000424013)
(0.000621655 0 -0.000422534)
(0.000800768 0 -0.000420257)
(0.000979881 0 -0.00041401)
(0.00115712 0 -0.000411291)
(0.00133135 0 -0.000405584)
(0.00150187 0 -0.000405241)
(0.00167226 0 -0.000400943)
(0.00184151 0 -0.000399283)
(0.00200842 0 -0.000388753)
(0.00217233 0 -0.000375201)
(0.00233063 0 -0.000369544)
(0.00248967 0 -0.000367632)
(0.00264099 0 -0.000362262)
(0.00279521 0 -0.000346894)
(0.00293899 0 -0.000335685)
(0.00308623 0 -0.000318073)
(0.00322352 0 -0.000318154)
(0.00335878 0 -0.000306316)
(0.00348511 0 -0.000302811)
(0.00360556 0 -0.000273107)
(0.00372006 0 -0.000269637)
(0.003852 0 -0.00023611)
(0.00395716 0 -0.000241092)
(0.00407036 0 -0.000248223)
(0.00415915 0 -0.000256278)
(0.0041618 0 -0.000197686)
(0.00423443 0 -0.000193209)
(0.00441687 0 5.76664e-06)
(0.0045044 0 -9.62747e-06)
(0.0048042 0 -0.000295336)
(0.00480956 0 -0.000350468)
(0.00538849 0 -0.000450316)
(0.00545219 0 -0.000306958)
(0.00570356 0 -0.000506427)
(0.00564041 0 -0.000572978)
(0.00577779 0 -0.00040216)
(0.00582911 0 -0.00035706)
(0.00592074 0 -0.000269889)
(0.00599046 0 -0.000216028)
(0.00607378 0 -0.000162506)
(0.00614614 0 -0.00015044)
(0.00621441 0 -0.000140887)
(0.00625963 0 -0.00017526)
(0.00626876 0 -0.000141301)
(0.00625209 0 -0.000143103)
(0.00632217 0 -2.59643e-05)
(0.00633995 0 6.9354e-05)
(0.00648874 0 7.21032e-06)
(0.00647755 0 -0.000120125)
(0.00682572 0 -0.000236008)
(0.0070994 0 -0.000244015)
(0.00744853 0 -0.00022601)
(0.00757882 0 -0.00045414)
(0.0076014 0 -0.000577399)
(0.007635 0 -0.000522713)
(0.00761122 0 -0.000342184)
(0.00763601 0 -0.000235779)
(0.0075521 0 -0.000165936)
(0.00760782 0 -4.01849e-06)
(0.00755543 0 6.05314e-05)
(0.00764123 0 0.000283729)
(0.0076077 0 0.000184687)
(0.00772249 0 0.000154445)
(0.00755875 0 6.66187e-06)
(0.00713706 0 7.9674e-05)
(0.00692897 0 0.000168613)
(0.00680748 0 0.00110704)
(0.00660411 0 0.0010128)
(0.00758996 0 0.000615445)
(0.0075582 0 0.000206031)
(0.0108488 0 -0.00128365)
(0.0121724 0 -0.00100184)
(0.013855 0 -0.00313993)
(0.0155862 0 -0.00391784)
(0.015854 0 -0.00362632)
(0.0164357 0 -0.00324803)
(0.0167332 0 -0.00285342)
(0.01688 0 -0.00242532)
(0.0171223 0 -0.00192512)
(0.0173948 0 -0.00131361)
(0.017618 0 -0.000847052)
(0.0177645 0 -0.000556895)
(0.0178447 0 -0.000408968)
(0.0178719 0 -0.000215713)
(0.0178662 0 -1.58836e-05)
(0.017834 0 9.81505e-05)
(0.0177738 0 0.000187079)
(0.0176882 0 0.000217042)
(0.0175725 0 0.000253148)
(0.0174162 0 0.000355787)
(0.0172297 0 0.000458391)
(0.0170255 0 0.000508107)
(0.0168078 0 0.000538077)
(0.0165731 0 0.000578665)
(0.0163161 0 0.000632954)
(0.0160452 0 0.000657806)
(0.0157577 0 0.000668758)
(0.0154545 0 0.000709199)
(0.0151335 0 0.000787403)
(0.014796 0 0.000847666)
(0.0144433 0 0.000892723)
(0.014074 0 0.000912252)
(0.0136868 0 0.000932325)
(0.0132906 0 0.000962258)
(0.0128846 0 0.000986162)
(0.0124619 0 0.00102159)
(0.0120194 0 0.0010797)
(0.0115547 0 0.0011506)
(0.0110725 0 0.00119147)
(0.0105801 0 0.00120008)
(0.0100804 0 0.0011853)
(0.00957239 0 0.00118101)
(0.00905164 0 0.00120722)
(0.00851661 0 0.00124458)
(0.00796946 0 0.00129254)
(0.00741189 0 0.00132371)
(0.00684584 0 0.00134884)
(0.00626674 0 0.00138639)
(0.00567065 0 0.00141855)
(0.00505888 0 0.00144009)
(0.00443174 0 0.00146287)
(0.0037892 0 0.00149826)
(0.00313203 0 0.0015451)
(0.00246168 0 0.00159577)
(0.00177879 0 0.00164285)
(0.00108311 0 0.00168077)
(0.000373153 0 0.00170797)
(-0.000349904 0 0.00172867)
(-0.00108649 0 0.00174903)
(-0.0018347 0 0.00177195)
(-0.0025932 0 0.00179731)
(-0.00336358 0 0.00182215)
(-0.00414458 0 0.00185188)
(-0.00493684 0 0.00187788)
(-0.00573962 0 0.00189815)
(-0.00655076 0 0.00191349)
(-0.00737223 0 0.00193517)