/*--------------------------------*- C++ -*----------------------------------*\
| =========                 |                                                 |
| \\      /  F ield         | OpenFOAM: The Open Source CFD Toolbox           |
|  \\    /   O peration     | Version:  v2006                                 |
|   \\  /    A nd           | Website:  www.openfoam.com                      |
|    \\/     M anipulation  |                                                 |
\*---------------------------------------------------------------------------*/
FoamFile
{
    version     2.0;
    format      ascii;
    class       surfaceScalarField;
    location    "9";
    object      alphaPhi0.water;
}
// * * * * * * * * * * * * * * * * * * * * * * * * * * * * * * * * * * * * * //

dimensions      [0 3 -1 0 0 0 0];
oriented        oriented;


internalField   nonuniform List<scalar> 
65390
(
-1.57845e-06
-3.50112e-07
-2.31226e-06
7.35538e-07
-5.50405e-06
3.19333e-06
-8.62594e-06
3.12314e-06
-9.87376e-06
1.24881e-06
-7.199e-06
-2.674e-06
-1.36475e-06
-5.83364e-06
5.88057e-06
-7.24486e-06
1.37542e-05
-7.8733e-06
2.19478e-05
-8.19332e-06
2.93873e-05
-7.4394e-06
3.55573e-05
-6.1702e-06
4.05607e-05
-5.004e-06
4.49939e-05
-4.44192e-06
4.93419e-05
-4.34674e-06
5.40075e-05
-4.65557e-06
5.8543e-05
-4.52288e-06
6.18219e-05
-3.27375e-06
6.38775e-05
-2.05513e-06
6.46776e-05
-8.00073e-07
6.3157e-05
1.52058e-06
5.90501e-05
4.107e-06
5.38968e-05
5.15334e-06
4.98775e-05
4.01943e-06
4.82489e-05
1.62864e-06
4.87774e-05
-5.28413e-07
5.0529e-05
-1.75157e-06
5.28228e-05
-2.29383e-06
5.48117e-05
-1.98885e-06
5.56519e-05
-8.4012e-07
5.56133e-05
3.85783e-08
5.45436e-05
1.06975e-06
5.15204e-05
3.02318e-06
4.69192e-05
4.60116e-06
4.13444e-05
5.57476e-06
3.62152e-05
5.12911e-06
3.27208e-05
3.494e-06
2.93931e-05
3.31594e-06
2.65672e-05
2.82893e-06
2.51366e-05
1.43573e-06
2.45396e-05
5.97669e-07
2.38483e-05
6.91337e-07
2.24422e-05
1.40183e-06
2.0407e-05
2.03154e-06
1.89887e-05
1.42291e-06
1.86775e-05
3.12581e-07
1.85799e-05
9.79222e-08
1.8208e-05
3.70919e-07
1.71181e-05
1.08381e-06
1.56031e-05
1.51507e-06
1.469e-05
9.18493e-07
1.46083e-05
8.23483e-08
1.4881e-05
-2.72614e-07
1.52964e-05
-4.15334e-07
1.58135e-05
-5.17052e-07
1.62893e-05
-4.75774e-07
1.65744e-05
-2.85041e-07
1.64244e-05
1.49953e-07
1.56106e-05
8.13347e-07
1.41713e-05
1.43545e-06
1.25491e-05
1.61404e-06
1.09903e-05
1.56352e-06
9.68468e-06
1.31166e-06
8.6373e-06
1.0475e-06
7.83221e-06
8.05079e-07
7.40619e-06
4.26024e-07
7.55449e-06
-1.48308e-07
8.28419e-06
-7.29725e-07
9.3806e-06
-1.09645e-06
1.06214e-05
-1.24081e-06
1.1899e-05
-1.27781e-06
1.31873e-05
-1.2886e-06
1.45174e-05
-1.33129e-06
1.59025e-05
-1.3895e-06
1.73227e-05
-1.42025e-06
1.81932e-05
-8.7048e-07
1.78163e-05
3.76813e-07
1.38621e-05
3.95665e-06
1.03249e-05
3.53545e-06
9.50282e-06
8.22051e-07
7.92474e-06
1.57808e-06
7.18329e-06
7.41442e-07
5.93279e-06
1.25356e-06
5.34914e-06
5.8384e-07
4.72494e-06
6.24188e-07
4.0538e-06
6.7108e-07
3.59076e-06
4.62979e-07
3.19119e-06
3.99501e-07
3.0079e-06
1.83239e-07
2.89245e-06
1.15273e-07
2.91248e-06
-2.09376e-08
3.01059e-06
-9.81682e-08
3.34712e-06
-3.36592e-07
3.97496e-06
-6.268e-07
5.13552e-06
-1.16025e-06
6.81132e-06
-1.67579e-06
8.88813e-06
-2.0768e-06
1.11113e-05
-2.22315e-06
1.30575e-05
-1.94623e-06
1.39666e-05
-9.09875e-07
1.40329e-05
-6.92776e-08
1.37505e-05
2.82471e-07
1.30608e-05
6.89727e-07
1.24476e-05
6.13206e-07
1.17517e-05
6.95842e-07
1.1185e-05
5.69238e-07
1.08722e-05
3.13546e-07
1.05497e-05
3.22389e-07
1.01259e-05
4.23688e-07
9.64014e-06
4.842e-07
9.13727e-06
5.01437e-07
8.62188e-06
5.15405e-07
8.21217e-06
4.11885e-07
7.96226e-06
2.50564e-07
7.92357e-06
3.85678e-08
8.02382e-06
-1.01403e-07
8.19358e-06
-1.69723e-07
8.0987e-06
9.49049e-08
7.69167e-06
4.07605e-07
7.20701e-06
4.8519e-07
6.66293e-06
5.44204e-07
6.12427e-06
5.38379e-07
5.46174e-06
6.61399e-07
4.83543e-06
6.26304e-07
4.28846e-06
5.47993e-07
3.7452e-06
5.43352e-07
3.21759e-06
5.2761e-07
2.68259e-06
5.35003e-07
2.11928e-06
5.63169e-07
1.55913e-06
5.59715e-07
1.01393e-06
5.45197e-07
4.93254e-07
5.20836e-07
9.5838e-09
4.83664e-07
-4.74768e-07
4.8432e-07
-9.58344e-07
4.83549e-07
-1.43823e-06
4.79867e-07
-1.90379e-06
4.65484e-07
-2.35089e-06
4.47076e-07
-2.78981e-06
4.39096e-07
-3.22459e-06
4.35273e-07
-3.65556e-06
4.30986e-07
-4.07273e-06
4.17187e-07
-4.47367e-06
3.99927e-07
-4.85067e-06
3.76988e-07
-5.2144e-06
3.63724e-07
-5.57218e-06
3.57763e-07
-5.9263e-06
3.54869e-07
-6.27443e-06
3.49172e-07
-6.60494e-06
3.28567e-07
-6.90948e-06
3.04414e-07
-7.20443e-06
2.94955e-07
-7.49422e-06
2.90227e-07
-7.77814e-06
2.8438e-07
-8.05016e-06
2.71988e-07
-8.3103e-06
2.59326e-07
-8.55702e-06
2.46256e-07
-8.79287e-06
2.35847e-07
-9.02046e-06
2.27584e-07
-9.23944e-06
2.18993e-07
-9.4477e-06
2.08485e-07
-9.64442e-06
1.96937e-07
-9.8302e-06
1.85727e-07
-1.00053e-05
1.74969e-07
-1.01728e-05
1.67489e-07
-1.03357e-05
1.62849e-07
-1.04891e-05
1.53163e-07
-1.06265e-05
1.37344e-07
-1.0751e-05
1.24543e-07
-1.08689e-05
1.18114e-07
-1.09834e-05
1.15107e-07
-1.10916e-05
1.08102e-07
-1.11847e-05
9.2354e-08
-1.12616e-05
7.68512e-08
-1.13274e-05
6.58829e-08
-1.13838e-05
5.74056e-08
-1.14362e-05
5.35946e-08
-1.14878e-05
5.16191e-08
-1.15327e-05
4.35707e-08
-1.15647e-05
3.13211e-08
-1.15835e-05
1.8808e-08
-1.15871e-05
3.71551e-09
-1.15787e-05
-7.27467e-09
-1.15639e-05
-1.48374e-08
-1.15421e-05
-2.17665e-08
-1.1517e-05
-2.55231e-08
-1.14875e-05
-2.99727e-08
-1.14461e-05
-4.14986e-08
-1.13893e-05
-5.68971e-08
-1.1319e-05
-6.935e-08
-1.12415e-05
-7.66163e-08
-1.11601e-05
-8.14037e-08
-1.10721e-05
-8.79849e-08
-1.09759e-05
-9.7725e-08
-1.0865e-05
-1.10921e-07
-1.07385e-05
-1.26515e-07
-1.05979e-05
-1.40661e-07
-1.04459e-05
-1.518e-07
-1.02894e-05
-1.55792e-07
-1.01325e-05
-1.56287e-07
-9.96965e-06
-1.62848e-07
-9.79439e-06
-1.75854e-07
-9.59933e-06
-1.95644e-07
-9.3903e-06
-2.09048e-07
-9.1763e-06
-2.13984e-07
-8.96135e-06
-2.14747e-07
-8.74493e-06
-2.16105e-07
-8.5224e-06
-2.22692e-07
-8.28706e-06
-2.35464e-07
-8.04466e-06
-2.42397e-07
-7.80722e-06
-2.37155e-07
-7.58312e-06
-2.23661e-07
-7.35764e-06
-2.25842e-07
-7.11412e-06
-2.43797e-07
-6.86343e-06
-2.50706e-07
-6.61351e-06
-2.49919e-07
-6.36603e-06
-2.47268e-07
-6.13095e-06
-2.34567e-07
-5.91433e-06
-2.16404e-07
-5.70103e-06
-2.13629e-07
-5.48134e-06
-2.2012e-07
-5.25307e-06
-2.28314e-07
-5.02619e-06
-2.2688e-07
-4.8039e-06
-2.22264e-07
-4.59268e-06
-2.10969e-07
-4.40126e-06
-1.9131e-07
-4.21878e-06
-1.82458e-07
-4.03788e-06
-1.81136e-07
-3.85441e-06
-1.83537e-07
-3.67015e-06
-1.84257e-07
-3.49009e-06
-1.80066e-07
-3.31976e-06
-1.70156e-07
-3.16938e-06
-1.50259e-07
-3.02944e-06
-1.39924e-07
-2.89115e-06
-1.38465e-07
-2.7524e-06
-1.38744e-07
-2.61369e-06
-1.38715e-07
-2.48002e-06
-1.33617e-07
-2.35448e-06
-1.25534e-07
-2.23671e-06
-1.17776e-07
-2.12527e-06
-1.11494e-07
-2.02166e-06
-1.03585e-07
-1.92786e-06
-9.36981e-08
-1.84006e-06
-8.772e-08
-1.75226e-06
-8.78866e-08
-1.66116e-06
-9.11307e-08
-1.57139e-06
-8.97451e-08
-1.48505e-06
-8.63282e-08
-1.40782e-06
-7.70878e-08
-1.34559e-06
-6.2148e-08
-1.28187e-06
-6.38101e-08
-1.21006e-06
-7.18205e-08
-1.13743e-06
-7.26109e-08
-1.06685e-06
-7.05523e-08
-9.99468e-07
-6.73439e-08
-9.39455e-07
-5.99617e-08
-8.82052e-07
-5.73707e-08
-8.21867e-07
-6.01992e-08
-7.5866e-07
-6.31969e-08
-6.93606e-07
-6.50379e-08
-6.29715e-07
-6.38752e-08
-5.66642e-07
-6.30489e-08
-5.03701e-07
-6.29209e-08
-4.39188e-07
-6.45057e-08
-3.70658e-07
-6.85273e-08
-2.98387e-07
-7.22675e-08
-2.25513e-07
-7.28666e-08
-1.56807e-07
-6.86937e-08
-9.07448e-08
-6.60535e-08
-2.00353e-08
-7.07042e-08
5.80067e-08
-7.80329e-08
1.39747e-07
-8.17309e-08
2.23188e-07
-8.34316e-08
3.08875e-07
-8.56767e-08
3.95901e-07
-8.70187e-08
4.80682e-07
-8.4787e-08
5.65606e-07
-8.49097e-08
6.55055e-07
-8.94205e-08
7.49716e-07
-9.46439e-08
8.48155e-07
-9.84276e-08
9.49222e-07
-1.01055e-07
1.05322e-06
-1.03987e-07
1.16009e-06
-1.06855e-07
1.26697e-06
-1.06867e-07
1.3727e-06
-1.05721e-07
1.48239e-06
-1.09655e-07
1.59756e-06
-1.15139e-07
1.7156e-06
-1.18025e-07
1.83559e-06
-1.19975e-07
1.95797e-06
-1.22372e-07
2.08245e-06
-1.24481e-07
2.20706e-06
-1.24644e-07
2.33283e-06
-1.25745e-07
2.46124e-06
-1.28382e-07
2.59256e-06
-1.31298e-07
2.72591e-06
-1.33344e-07
2.86098e-06
-1.35059e-07
2.99705e-06
-1.36087e-07
3.1328e-06
-1.35829e-07
3.26927e-06
-1.3639e-07
3.40653e-06
-1.37227e-07
3.54473e-06
-1.38202e-07
3.68394e-06
-1.39222e-07
3.82313e-06
-1.39217e-07
3.96107e-06
-1.37966e-07
4.09811e-06
-1.37044e-07
4.23486e-06
-1.36719e-07
4.37129e-06
-1.36428e-07
4.50649e-06
-1.35196e-07
4.63981e-06
-1.33312e-07
4.7712e-06
-1.31349e-07
4.90096e-06
-1.29739e-07
5.02887e-06
-1.27891e-07
5.15414e-06
-1.25262e-07
5.27613e-06
-1.21985e-07
5.39469e-06
-1.18558e-07
5.51012e-06
-1.15394e-07
5.62231e-06
-1.12178e-07
5.73091e-06
-1.08587e-07
5.83551e-06
-1.04598e-07
5.93585e-06
-1.00318e-07
6.03166e-06
-9.57906e-08
6.12284e-06
-9.11582e-08
6.20928e-06
-8.64197e-08
6.29071e-06
-8.14141e-08
6.36689e-06
-7.61632e-08
6.43782e-06
-7.09179e-08
6.50348e-06
-6.5639e-08
6.56353e-06
-6.00435e-08
6.6177e-06
-5.41892e-08
6.66611e-06
-4.84117e-08
6.70895e-06
-4.28405e-08
6.74625e-06
-3.73028e-08
6.77785e-06
-3.15957e-08
6.80337e-06
-2.55279e-08
6.82259e-06
-1.92357e-08
6.83583e-06
-1.32496e-08
6.84362e-06
-7.79264e-09
6.846e-06
-2.39024e-09
6.84286e-06
3.12881e-09
6.83419e-06
8.6625e-09
6.82004e-06
1.4143e-08
6.80054e-06
1.95108e-08
6.77582e-06
2.47256e-08
6.74603e-06
2.98061e-08
6.71128e-06
3.47584e-08
6.67181e-06
3.94792e-08
6.62774e-06
4.40751e-08
6.57922e-06
4.85278e-08
6.52638e-06
5.28496e-08
6.46931e-06
5.70741e-08
6.40811e-06
6.1209e-08
6.34293e-06
6.51821e-08
6.27406e-06
6.88721e-08
6.20176e-06
7.22922e-08
6.12616e-06
7.55933e-08
6.04732e-06
7.88214e-08
5.96536e-06
8.19418e-08
5.88033e-06
8.50159e-08
5.79254e-06
8.77622e-08
5.70223e-06
9.0296e-08
5.60951e-06
9.27045e-08
5.51451e-06
9.49891e-08
5.41743e-06
9.70928e-08
5.31826e-06
9.91828e-08
5.21688e-06
1.01395e-07
5.11347e-06
1.0342e-07
5.00847e-06
1.05013e-07
4.90237e-06
1.06119e-07
4.79529e-06
1.07119e-07
4.68678e-06
1.08523e-07
4.57665e-06
1.10135e-07
4.46557e-06
1.11073e-07
4.35406e-06
1.11498e-07
4.24218e-06
1.11864e-07
4.12974e-06
1.12417e-07
4.01668e-06
1.13041e-07
3.90312e-06
1.13546e-07
3.78915e-06
1.13964e-07
3.67454e-06
1.14598e-07
3.55959e-06
1.14963e-07
3.44506e-06
1.14551e-07
3.33135e-06
1.13725e-07
3.21784e-06
1.13534e-07
3.10436e-06
1.13502e-07
2.99105e-06
1.13332e-07
2.87802e-06
1.13051e-07
2.76548e-06
1.12556e-07
2.65374e-06
1.11761e-07
2.54287e-06
1.10883e-07
2.43248e-06
1.10403e-07
2.32262e-06
1.09864e-07
2.2137e-06
1.08929e-07
2.10625e-06
1.07455e-07
1.99997e-06
1.06288e-07
1.89484e-06
1.0513e-07
1.7909e-06
1.03935e-07
1.68816e-06
1.02733e-07
1.58616e-06
1.0199e-07
1.48533e-06
1.0083e-07
1.38606e-06
9.92664e-08
1.28847e-06
9.7586e-08
1.19278e-06
9.5681e-08
1.09858e-06
9.41956e-08
1.00574e-06
9.28276e-08
9.12742e-07
9.29848e-08
8.20963e-07
9.17768e-08
7.30625e-07
9.03372e-08
6.43447e-07
8.71744e-08
5.56533e-07
8.69129e-08
4.71031e-07
8.55022e-08
3.86667e-07
8.43657e-08
3.04381e-07
8.22916e-08
2.25818e-07
7.85712e-08
1.47661e-07
7.81645e-08
7.33566e-08
7.43127e-08
7.88673e-10
7.25757e-08
-6.89197e-08
6.97153e-08
-1.31406e-07
6.2492e-08
-1.93532e-07
6.213e-08
-2.62144e-07
6.86148e-08
-3.21711e-07
5.95682e-08
-3.84145e-07
6.24342e-08
-4.43137e-07
5.89913e-08
-4.58254e-07
1.51152e-08
-4.83601e-07
2.53449e-08
-5.5612e-07
7.25162e-08
-5.85864e-07
2.97416e-08
-6.94036e-07
1.0817e-07
-8.93828e-07
1.99789e-07
-1.19476e-06
3.00925e-07
-1.4606e-06
2.65836e-07
-1.60903e-06
1.48428e-07
-1.74566e-06
1.36628e-07
-1.83911e-06
9.34451e-08
-1.9228e-06
8.36785e-08
-1.99443e-06
7.16263e-08
-2.06208e-06
6.7644e-08
-2.12254e-06
6.04489e-08
-2.17295e-06
5.04005e-08
-2.21221e-06
3.92605e-08
-2.24899e-06
3.67685e-08
-2.2501e-06
1.11082e-09
-2.27246e-06
2.23574e-08
-2.33315e-06
6.06865e-08
-2.33638e-06
3.22233e-09
-2.37504e-06
3.86629e-08
-2.44541e-06
7.03729e-08
-2.5471e-06
1.01695e-07
-2.54693e-06
-1.71793e-10
-2.44483e-06
-1.02096e-07
-2.39612e-06
-4.87159e-08
-2.354e-06
-4.21123e-08
-2.33193e-06
-2.20709e-08
-2.31736e-06
-1.45745e-08
-2.3095e-06
-7.8599e-09
-2.30533e-06
-4.17493e-09
-2.30045e-06
-4.89147e-09
-2.28377e-06
-1.66832e-08
-2.28206e-06
-1.72484e-09
-2.26331e-06
-1.87537e-08
-2.25004e-06
-1.32748e-08
-2.25189e-06
1.8409e-09
-2.16992e-06
-8.19676e-08
-2.09455e-06
-7.53692e-08
-2.17822e-06
8.36717e-08
-2.15591e-06
-2.23098e-08
-2.32235e-06
1.66436e-07
-2.65028e-06
3.27933e-07
-3.4815e-06
8.3121e-07
-4.15852e-06
6.77017e-07
-4.24856e-06
9.00247e-08
-4.18815e-06
-6.04238e-08
-4.00236e-06
-1.85799e-07
-3.81738e-06
-1.84955e-07
-3.67563e-06
-1.41693e-07
-3.59384e-06
-8.17938e-08
-3.54169e-06
-5.21486e-08
-3.50276e-06
-3.89793e-08
-3.46874e-06
-3.40528e-08
-3.45276e-06
-1.59432e-08
-3.45096e-06
-1.78425e-09
-3.45273e-06
1.77738e-09
-3.45703e-06
4.29549e-09
-3.45832e-06
1.23047e-09
-3.46162e-06
3.27858e-09
-3.47521e-06
1.35824e-08
-3.49596e-06
2.07478e-08
-3.5153e-06
1.9338e-08
-3.53576e-06
2.04301e-08
-3.56049e-06
2.47055e-08
-3.58935e-06
2.88299e-08
-3.61635e-06
2.69566e-08
-3.64141e-06
2.50353e-08
-3.67185e-06
3.04223e-08
-3.7124e-06
4.05249e-08
-3.75788e-06
4.54488e-08
-3.80575e-06
4.78422e-08
-3.85291e-06
4.71167e-08
-3.90142e-06
4.84725e-08
-3.9523e-06
5.08398e-08
-4.00379e-06
5.14626e-08
-4.05912e-06
5.52985e-08
-4.1216e-06
6.24466e-08
-4.19087e-06
6.92452e-08
-4.26177e-06
7.08661e-08
-4.32935e-06
6.75543e-08
-4.39275e-06
6.33468e-08
-4.4536e-06
6.08077e-08
-4.51618e-06
6.25467e-08
-4.58139e-06
6.51728e-08
-4.65116e-06
6.97372e-08
-4.72201e-06
7.08165e-08
-4.79307e-06
7.1026e-08
-4.86667e-06
7.35512e-08
-4.94093e-06
7.42137e-08
-5.01374e-06
7.27767e-08
-5.08589e-06
7.21288e-08
-5.16006e-06
7.41459e-08
-5.23791e-06
7.78357e-08
-5.31987e-06
8.19465e-08
-5.40504e-06
8.5171e-08
-5.49145e-06
8.64021e-08
-5.5775e-06
8.60545e-08
-5.66236e-06
8.48427e-08
-5.74576e-06
8.34066e-08
-5.82837e-06
8.26034e-08
-5.9107e-06
8.23339e-08
-5.9931e-06
8.23963e-08
-6.07564e-06
8.25418e-08
-6.15815e-06
8.24933e-08
-6.24012e-06
8.19602e-08
-6.32116e-06
8.10196e-08
-6.40151e-06
8.03324e-08
-6.48145e-06
7.99309e-08
-6.56221e-06
8.07441e-08
-6.64279e-06
8.05603e-08
-6.72335e-06
8.05443e-08
-6.80169e-06
7.8328e-08
-6.87993e-06
7.8224e-08
-6.95823e-06
7.82925e-08
-7.03659e-06
7.83407e-08
-7.11455e-06
7.79552e-08
-7.19227e-06
7.77127e-08
-7.26947e-06
7.71784e-08
-7.34512e-06
7.56304e-08
-7.41343e-06
6.82846e-08
-7.47827e-06
6.48207e-08
-7.53084e-06
5.25447e-08
-7.57929e-06
4.84265e-08
3.17809e-08
-9.22352e-07
-1.33947e-06
-6.7031e-07
4.80974e-07
-2.24843e-07
2.74586e-06
-2.71447e-07
3.16808e-06
-2.2241e-07
1.19839e-06
2.15306e-06
-5.05056e-06
6.48219e-06
-1.01636e-05
1.14883e-05
-1.22517e-05
1.68222e-05
-1.32076e-05
2.22281e-05
-1.35997e-05
2.71203e-05
-1.23333e-05
3.12084e-05
-1.02622e-05
3.51391e-05
-8.95272e-06
3.94029e-05
-8.70437e-06
4.41901e-05
-9.13523e-06
4.90118e-05
-9.4636e-06
5.35327e-05
-9.03186e-06
5.71474e-05
-6.88435e-06
5.8661e-05
-3.56817e-06
5.79696e-05
-1.08542e-07
5.55439e-05
3.94646e-06
5.27781e-05
6.87289e-06
5.03487e-05
7.58286e-06
4.82164e-05
6.15189e-06
4.78594e-05
1.98572e-06
4.91804e-05
-1.84936e-06
5.11041e-05
-3.67518e-06
5.28117e-05
-4.00133e-06
5.42098e-05
-3.3869e-06
5.44262e-05
-1.0564e-06
5.29894e-05
1.47542e-06
5.03606e-05
3.6987e-06
4.7255e-05
6.12882e-06
4.39628e-05
7.89345e-06
4.03802e-05
9.15731e-06
3.67971e-05
8.71225e-06
3.34028e-05
6.88787e-06
3.00283e-05
6.67234e-06
2.73757e-05
5.48762e-06
2.57709e-05
3.04762e-06
2.46078e-05
1.76164e-06
2.35105e-05
1.78765e-06
2.22477e-05
2.65399e-06
2.10448e-05
3.23444e-06
1.98711e-05
2.6024e-06
1.91209e-05
1.0662e-06
1.86739e-05
5.44765e-07
1.81981e-05
8.43393e-07
1.74427e-05
1.83332e-06
1.6633e-05
2.32467e-06
1.5709e-05
1.84915e-06
1.515e-05
6.42496e-07
1.50921e-05
-2.14479e-07
1.53074e-05
-6.30529e-07
1.54921e-05
-7.01765e-07
1.5374e-05
-3.57534e-07
1.48849e-05
2.04015e-07
1.41196e-05
9.13205e-07
1.33946e-05
1.53013e-06
1.29962e-05
1.83385e-06
1.27445e-05
1.86572e-06
1.23083e-05
1.99973e-06
1.13477e-05
2.27413e-06
1.00395e-05
2.35864e-06
8.73765e-06
2.10722e-06
7.77127e-06
1.39243e-06
7.20251e-06
4.20472e-07
7.14601e-06
-6.73205e-07
7.32966e-06
-1.28017e-06
7.46293e-06
-1.37534e-06
7.29488e-06
-1.11199e-06
6.78843e-06
-7.82164e-07
6.19591e-06
-7.38757e-07
6.01301e-06
-1.20572e-06
6.62046e-06
-2.02608e-06
7.96714e-06
-2.2171e-06
1.01151e-05
-1.77105e-06
1.38257e-05
2.468e-07
1.59006e-05
1.46097e-06
1.56901e-05
1.03021e-06
1.28537e-05
4.41396e-06
9.56638e-06
4.03034e-06
8.67872e-06
2.14294e-06
6.68054e-06
2.58203e-06
5.68454e-06
1.62013e-06
4.48499e-06
1.87055e-06
3.58068e-06
1.36722e-06
3.14349e-06
8.36626e-07
3.23496e-06
9.17219e-08
2.81658e-06
5.33482e-07
2.59407e-06
2.00777e-07
2.33037e-06
1.65467e-07
2.25865e-06
-2.64872e-07
2.26345e-06
-6.31176e-07
2.34879e-06
-1.2454e-06
2.35029e-06
-1.67715e-06
2.41438e-06
-2.14056e-06
2.88992e-06
-2.69858e-06
3.89987e-06
-2.95631e-06
5.80528e-06
-2.81668e-06
8.18249e-06
-2.447e-06
1.0281e-05
-1.81605e-06
1.15002e-05
-5.2944e-07
1.19414e-05
1.71986e-07
1.20903e-05
5.4849e-07
1.18059e-05
8.55439e-07
1.13498e-05
7.69822e-07
1.07122e-05
9.59928e-07
9.99169e-06
1.14313e-06
9.3934e-06
1.0799e-06
9.03528e-06
8.59566e-07
8.64823e-06
9.02467e-07
8.22315e-06
8.38249e-07
7.76846e-06
7.06883e-07
7.23394e-06
5.73064e-07
6.74845e-06
3.83858e-07
6.33676e-06
2.41414e-07
6.16859e-06
2.63106e-07
6.25449e-06
3.22353e-07
6.44244e-06
2.974e-07
6.37541e-06
6.10435e-07
5.96084e-06
9.51717e-07
5.49561e-06
1.12663e-06
4.9876e-06
1.13431e-06
4.44787e-06
1.08825e-06
3.79102e-06
1.20082e-06
3.18158e-06
1.13705e-06
2.64646e-06
1.07004e-06
2.10899e-06
1.09984e-06
1.59037e-06
1.07816e-06
1.07145e-06
1.06412e-06
5.4538e-07
1.04699e-06
3.7645e-08
9.91394e-07
-4.54257e-07
9.76173e-07
-9.4353e-07
9.72761e-07
-1.42353e-06
9.59777e-07
-1.88758e-06
9.29453e-07
-2.33947e-06
8.98944e-07
-2.78425e-06
8.84168e-07
-3.21924e-06
8.70501e-07
-3.64454e-06
8.56306e-07
-4.05792e-06
8.30582e-07
-4.45548e-06
7.97098e-07
-4.83818e-06
7.59095e-07
-5.21048e-06
7.3601e-07
-5.57714e-06
7.24881e-07
-5.93335e-06
7.11733e-07
-6.27455e-06
6.899e-07
-6.59737e-06
6.50395e-07
-6.90699e-06
6.13825e-07
-7.20957e-06
5.97535e-07
-7.50611e-06
5.87141e-07
-7.79021e-06
5.69013e-07
-8.05595e-06
5.37753e-07
-8.309e-06
5.12351e-07
-8.55669e-06
4.92612e-07
-8.79792e-06
4.76973e-07
-9.03028e-06
4.59992e-07
-9.25198e-06
4.40951e-07
-9.46136e-06
4.1786e-07
-9.65669e-06
3.92269e-07
-9.84131e-06
3.69897e-07
-1.00161e-05
3.50115e-07
-1.01845e-05
3.36301e-07
-1.03466e-05
3.25597e-07
-1.05008e-05
3.0594e-07
-1.06402e-05
2.76551e-07
-1.07662e-05
2.50679e-07
-1.08843e-05
2.37193e-07
-1.09963e-05
2.28333e-07
-1.11016e-05
2.11866e-07
-1.11955e-05
1.85509e-07
-1.12758e-05
1.57122e-07
-1.13445e-05
1.34588e-07
-1.1403e-05
1.16655e-07
-1.14526e-05
1.04746e-07
-1.14988e-05
9.781e-08
-1.15383e-05
8.31704e-08
-1.15692e-05
6.22367e-08
-1.15913e-05
3.88411e-08
-1.15972e-05
9.37215e-09
-1.15909e-05
-1.35995e-08
-1.15753e-05
-3.03485e-08
-1.15513e-05
-4.50083e-08
-1.15219e-05
-5.39357e-08
-1.14891e-05
-6.27251e-08
-1.14492e-05
-8.25803e-08
-1.13964e-05
-1.09885e-07
-1.13298e-05
-1.35972e-07
-1.12494e-05
-1.55454e-07
-1.1161e-05
-1.6976e-07
-1.10653e-05
-1.83611e-07
-1.09634e-05
-1.99638e-07
-1.08549e-05
-2.20769e-07
-1.0733e-05
-2.486e-07
-1.05964e-05
-2.77313e-07
-1.04479e-05
-2.997e-07
-1.02918e-05
-3.11062e-07
-1.01297e-05
-3.18444e-07
-9.95952e-06
-3.33003e-07
-9.77938e-06
-3.56742e-07
-9.58683e-06
-3.88557e-07
-9.38518e-06
-4.10682e-07
-9.17752e-06
-4.21309e-07
-8.96542e-06
-4.26392e-07
-8.74515e-06
-4.36374e-07
-8.5166e-06
-4.51406e-07
-8.28337e-06
-4.68998e-07
-8.04906e-06
-4.76699e-07
-7.81716e-06
-4.68612e-07
-7.58564e-06
-4.54735e-07
-7.35062e-06
-4.60999e-07
-7.10897e-06
-4.86033e-07
-6.86345e-06
-4.9629e-07
-6.61924e-06
-4.94129e-07
-6.37809e-06
-4.88324e-07
-6.14224e-06
-4.69969e-07
-5.91481e-06
-4.4361e-07
-5.69161e-06
-4.36806e-07
-5.47064e-06
-4.4137e-07
-5.24738e-06
-4.51831e-07
-5.0267e-06
-4.47589e-07
-4.81121e-06
-4.37695e-07
-4.60083e-06
-4.21e-07
-4.3989e-06
-3.93013e-07
-4.2064e-06
-3.74943e-07
-4.02229e-06
-3.65234e-07
-3.8424e-06
-3.63768e-07
-3.66409e-06
-3.62636e-07
-3.49015e-06
-3.5402e-07
-3.3235e-06
-3.3665e-07
-3.16824e-06
-3.0529e-07
-3.0218e-06
-2.86343e-07
-2.87868e-06
-2.81577e-07
-2.7371e-06
-2.80325e-07
-2.59928e-06
-2.76754e-07
-2.46684e-06
-2.66064e-07
-2.34149e-06
-2.5086e-07
-2.2263e-06
-2.32937e-07
-2.12156e-06
-2.16159e-07
-2.02288e-06
-2.02068e-07
-1.92634e-06
-1.90131e-07
-1.82936e-06
-1.84662e-07
-1.73473e-06
-1.82481e-07
-1.6455e-06
-1.80491e-07
-1.56115e-06
-1.74055e-07
-1.48235e-06
-1.65099e-07
-1.40903e-06
-1.50243e-07
-1.33901e-06
-1.32068e-07
-1.26979e-06
-1.33032e-07
-1.19958e-06
-1.42057e-07
-1.13028e-06
-1.4187e-07
-1.06524e-06
-1.3556e-07
-1.00275e-06
-1.29778e-07
-9.41046e-07
-1.2158e-07
-8.78156e-07
-1.2023e-07
-8.14073e-07
-1.24258e-07
-7.50037e-07
-1.27221e-07
-6.88323e-07
-1.26755e-07
-6.3022e-07
-1.21952e-07
-5.70633e-07
-1.226e-07
-5.05855e-07
-1.27669e-07
-4.38312e-07
-1.32042e-07
-3.69866e-07
-1.36964e-07
-3.00343e-07
-1.41779e-07
-2.30517e-07
-1.42672e-07
-1.6219e-07
-1.36999e-07
-9.29769e-08
-1.35253e-07
-2.04227e-08
-1.43245e-07
5.65857e-08
-1.55027e-07
1.36499e-07
-1.61628e-07
2.17902e-07
-1.64819e-07
3.00378e-07
-1.68137e-07
3.85034e-07
-1.71663e-07
4.72535e-07
-1.72282e-07
5.61975e-07
-1.74336e-07
6.53057e-07
-1.80462e-07
7.46001e-07
-1.87545e-07
8.4203e-07
-1.94428e-07
9.41462e-07
-2.00463e-07
1.04449e-06
-2.06995e-07
1.15027e-06
-2.12603e-07
1.25687e-06
-2.13462e-07
1.36485e-06
-2.13695e-07
1.47582e-06
-2.20572e-07
1.59065e-06
-2.29923e-07
1.70802e-06
-2.35372e-07
1.82693e-06
-2.38871e-07
1.9479e-06
-2.43333e-07
2.0717e-06
-2.48271e-07
2.19752e-06
-2.50476e-07
2.32532e-06
-2.53558e-07
2.45509e-06
-2.58143e-07
2.58622e-06
-2.6238e-07
2.71846e-06
-2.65565e-07
2.85243e-06
-2.69042e-07
2.98851e-06
-2.72186e-07
3.12623e-06
-2.73581e-07
3.26452e-06
-2.7469e-07
3.40221e-06
-2.74883e-07
3.5398e-06
-2.75767e-07
3.67846e-06
-2.77879e-07
3.81811e-06
-2.78892e-07
3.95755e-06
-2.77433e-07
4.09569e-06
-2.75138e-07
4.23243e-06
-2.73422e-07
4.36886e-06
-2.72863e-07
4.50501e-06
-2.7133e-07
4.63953e-06
-2.67827e-07
4.77162e-06
-2.63393e-07
4.90164e-06
-2.59708e-07
5.02979e-06
-2.56024e-07
5.15572e-06
-2.51176e-07
5.27875e-06
-2.44997e-07
5.39805e-06
-2.37826e-07
5.51373e-06
-2.31055e-07
5.62625e-06
-2.2467e-07
5.73536e-06
-2.17681e-07
5.84056e-06
-2.09768e-07
5.94141e-06
-2.01147e-07
6.03759e-06
-1.9194e-07
6.12905e-06
-1.82588e-07
6.21576e-06
-1.7311e-07
6.29757e-06
-1.63198e-07
6.37424e-06
-1.52821e-07
6.4456e-06
-1.42265e-07
6.51144e-06
-1.31473e-07
6.57157e-06
-1.20162e-07
6.62594e-06
-1.08558e-07
6.67463e-06
-9.71094e-08
6.71768e-06
-8.5892e-08
6.75498e-06
-7.46034e-08
6.78638e-06
-6.30053e-08
6.8118e-06
-5.09644e-08
6.83126e-06
-3.87195e-08
6.84468e-06
-2.6685e-08
6.85237e-06
-1.54867e-08
6.85457e-06
-4.58021e-09
6.85131e-06
6.3897e-09
6.84264e-06
1.73374e-08
6.82849e-06
2.82976e-08
6.80886e-06
3.91495e-08
6.78385e-06
4.97465e-08
6.75356e-06
6.01024e-08
6.71826e-06
7.00556e-08
6.67841e-06
7.93355e-08
6.63411e-06
8.83685e-08
6.5854e-06
9.72277e-08
6.53234e-06
1.05907e-07
6.475e-06
1.14407e-07
6.41351e-06
1.22688e-07
6.34806e-06
1.30622e-07
6.27892e-06
1.38008e-07
6.20631e-06
1.44881e-07
6.13038e-06
1.51514e-07
6.0512e-06
1.57981e-07
5.96882e-06
1.64307e-07
5.88324e-06
1.70591e-07
5.79496e-06
1.76038e-07
5.70426e-06
1.80995e-07
5.6112e-06
1.85774e-07
5.51582e-06
1.90386e-07
5.41825e-06
1.94687e-07
5.3186e-06
1.98851e-07
5.21702e-06
2.02991e-07
5.11377e-06
2.0669e-07
5.009e-06
2.09816e-07
4.90281e-06
2.12323e-07
4.79527e-06
2.14674e-07
4.68615e-06
2.17634e-07
4.57556e-06
2.20689e-07
4.46424e-06
2.22381e-07
4.35246e-06
2.23261e-07
4.24031e-06
2.23989e-07
4.12761e-06
2.25098e-07
4.01408e-06
2.26546e-07
3.89991e-06
2.2771e-07
3.78546e-06
2.28399e-07
3.67102e-06
2.29048e-07
3.55684e-06
2.29157e-07
3.44263e-06
2.28805e-07
3.32844e-06
2.27951e-07
3.21434e-06
2.27676e-07
3.10035e-06
2.27525e-07
2.98661e-06
2.27106e-07
2.87351e-06
2.26191e-07
2.76095e-06
2.25143e-07
2.64903e-06
2.23707e-07
2.53771e-06
2.22228e-07
2.42717e-06
2.20952e-07
2.31759e-06
2.19454e-07
2.20904e-06
2.17479e-07
2.1014e-06
2.15098e-07
1.99467e-06
2.13016e-07
1.88898e-06
2.10817e-07
1.78468e-06
2.0822e-07
1.68184e-06
2.05559e-07
1.58051e-06
2.03309e-07
1.4802e-06
2.01124e-07
1.38085e-06
1.98606e-07
1.28257e-06
1.95858e-07
1.18654e-06
1.91692e-07
1.09195e-06
1.88768e-07
9.99098e-07
1.85669e-07
9.06976e-07
1.85092e-07
8.17144e-07
1.81608e-07
7.2803e-07
1.79449e-07
6.41692e-07
1.73511e-07
5.5521e-07
1.73395e-07
4.68356e-07
1.72358e-07
3.83684e-07
1.69043e-07
2.99674e-07
1.66311e-07
2.20723e-07
1.57532e-07
1.43644e-07
1.55253e-07
7.54108e-08
1.42555e-07
5.04133e-09
1.42953e-07
-7.24741e-08
1.47237e-07
-1.46646e-07
1.36668e-07
-2.20488e-07
1.35975e-07
-2.82087e-07
1.30215e-07
-2.99376e-07
7.68557e-08
-3.28638e-07
9.16936e-08
-4.12519e-07
1.4287e-07
-4.93963e-07
9.65548e-08
-6.47213e-07
1.78589e-07
-8.60395e-07
2.85693e-07
-1.17204e-06
3.41383e-07
-1.4272e-06
3.63324e-07
-1.55677e-06
3.29352e-07
-1.63379e-06
3.7793e-07
-1.67372e-06
3.05761e-07
-1.75482e-06
2.29514e-07
-1.82167e-06
2.03465e-07
-1.90169e-06
1.73458e-07
-1.96625e-06
1.48224e-07
-2.02913e-06
1.3449e-07
-2.08244e-06
1.20941e-07
-2.13629e-06
1.14289e-07
-2.16192e-06
7.60211e-08
-2.20543e-06
8.27603e-08
-2.28737e-06
1.18697e-07
-2.33093e-06
4.46728e-08
-2.39019e-06
8.16158e-08
-2.44452e-06
1.15007e-07
-2.53253e-06
9.12268e-08
-2.51324e-06
1.93764e-08
-2.40799e-06
-3.48689e-08
-2.33743e-06
3.11429e-08
-2.30846e-06
-2.91424e-08
-2.33781e-06
-7.27457e-08
-2.33143e-06
-5.51025e-08
-2.34111e-06
-3.24365e-08
-2.32268e-06
-4.05013e-08
-2.31072e-06
-2.65311e-08
-2.30035e-06
-1.82318e-08
-2.30234e-06
-2.19021e-09
-2.29692e-06
-1.03303e-08
-2.2922e-06
-2.14303e-08
-2.30105e-06
7.11468e-09
-2.22551e-06
-9.4304e-08
-2.15695e-06
-8.18443e-08
-2.22501e-06
6.98995e-08
-2.30682e-06
-1.51162e-10
-2.54987e-06
1.67663e-07
-2.82869e-06
3.6248e-07
-3.53611e-06
6.85104e-07
-3.98496e-06
6.15266e-07
-4.02638e-06
3.69317e-07
-3.85449e-06
6.59287e-07
-3.47695e-06
2.99445e-07
-3.37492e-06
-1.2044e-08
-3.35301e-06
-8.2393e-08
-3.38397e-06
-1.54879e-07
-3.39314e-06
-1.75824e-07
-3.37728e-06
-1.57582e-07
-3.35844e-06
-1.00657e-07
-3.34962e-06
-6.09771e-08
-3.34518e-06
-4.34394e-08
-3.34486e-06
-3.43898e-08
-3.34529e-06
-1.55262e-08
-3.34538e-06
-1.71168e-09
-3.34533e-06
1.70467e-09
-3.34718e-06
6.12458e-09
-3.35084e-06
4.87551e-09
-3.36204e-06
1.44615e-08
-3.3781e-06
2.96159e-08
-3.39505e-06
3.76834e-08
-3.41308e-06
3.73422e-08
-3.43224e-06
3.95756e-08
-3.45547e-06
4.79087e-08
-3.48012e-06
5.34489e-08
-3.50596e-06
5.27671e-08
-3.53537e-06
5.44112e-08
-3.56834e-06
6.33623e-08
-3.60403e-06
7.61699e-08
-3.64242e-06
8.37983e-08
-3.68386e-06
8.92405e-08
-3.72912e-06
9.23332e-08
-3.77579e-06
9.5098e-08
-3.82348e-06
9.84778e-08
-3.87428e-06
1.02216e-07
-3.92944e-06
1.10411e-07
-3.98909e-06
1.22035e-07
-4.0525e-06
1.32603e-07
-4.11656e-06
1.34865e-07
-4.18163e-06
1.32571e-07
-4.24657e-06
1.28224e-07
-4.31271e-06
1.2689e-07
-4.3809e-06
1.30683e-07
-4.45051e-06
1.34729e-07
-4.52071e-06
1.39894e-07
-4.59113e-06
1.41187e-07
-4.66235e-06
1.42195e-07
-4.73517e-06
1.46333e-07
-4.81015e-06
1.49154e-07
-4.88677e-06
1.49361e-07
-4.96473e-06
1.50053e-07
-5.04386e-06
1.53253e-07
-5.12418e-06
1.58125e-07
-5.2051e-06
1.62845e-07
-5.28626e-06
1.66311e-07
-5.36791e-06
1.68026e-07
-5.45008e-06
1.68203e-07
-5.53272e-06
1.67465e-07
-5.61565e-06
1.66311e-07
-5.69824e-06
1.65161e-07
-5.78038e-06
1.64455e-07
-5.86243e-06
1.64415e-07
-5.94461e-06
1.64685e-07
-6.02664e-06
1.64491e-07
-6.10812e-06
1.63417e-07
-6.18893e-06
1.618e-07
-6.26953e-06
1.60904e-07
-6.3502e-06
1.60575e-07
-6.43106e-06
1.61583e-07
-6.51114e-06
1.60619e-07
-6.59026e-06
1.59651e-07
-6.66891e-06
1.56962e-07
-6.74723e-06
1.56532e-07
-6.82579e-06
1.56848e-07
-6.90387e-06
1.56417e-07
-6.98083e-06
1.54899e-07
-7.05755e-06
1.54425e-07
-7.13435e-06
1.53975e-07
-7.2103e-06
1.51556e-07
-7.28772e-06
1.45676e-07
-7.36325e-06
1.40328e-07
-7.44301e-06
1.32279e-07
-7.52284e-06
1.28229e-07
1.20019e-07
-9.35902e-07
-2.2749e-06
-3.03171e-07
-1.50402e-07
4.32344e-07
2.01127e-06
1.25169e-06
2.34944e-06
2.76994e-06
-3.19304e-07
5.77641e-06
-8.05659e-06
9.26371e-06
-1.36506e-05
1.2959e-05
-1.59467e-05
1.65434e-05
-1.67918e-05
1.98906e-05
-1.69472e-05
2.283e-05
-1.5279e-05
2.45155e-05
-1.1957e-05
2.62782e-05
-1.0719e-05
2.85338e-05
-1.0954e-05
3.12943e-05
-1.18882e-05
3.38997e-05
-1.20677e-05
3.57035e-05
-1.08357e-05
3.65385e-05
-7.71944e-06
3.61832e-05
-3.21292e-06
3.49016e-05
1.17306e-06
3.44957e-05
4.35235e-06
3.5461e-05
5.90763e-06
3.73417e-05
5.70223e-06
3.93742e-05
4.11937e-06
4.07768e-05
5.83172e-07
4.13948e-05
-2.46737e-06
4.15768e-05
-3.85726e-06
4.14004e-05
-3.82466e-06
4.04889e-05
-2.47503e-06
3.90514e-05
3.81044e-07
3.71798e-05
3.34669e-06
3.50415e-05
5.83683e-06
3.30262e-05
8.14429e-06
3.11503e-05
9.7694e-06
3.01493e-05
1.01584e-05
2.9185e-05
9.67629e-06
2.71581e-05
8.91042e-06
2.52973e-05
8.51834e-06
2.41712e-05
6.62313e-06
2.3475e-05
3.7495e-06
2.27861e-05
2.45078e-06
2.2109e-05
2.46121e-06
2.1408e-05
3.34415e-06
2.08402e-05
3.80228e-06
2.01706e-05
3.27928e-06
1.95455e-05
1.69742e-06
1.90748e-05
1.01554e-06
1.85963e-05
1.31838e-06
1.79704e-05
2.45348e-06
1.72481e-05
3.04709e-06
1.63335e-05
2.76765e-06
1.54965e-05
1.48337e-06
1.49375e-05
3.44841e-07
1.45199e-05
-2.12905e-07
1.40375e-05
-2.19514e-07
1.33845e-05
2.9293e-07
1.26155e-05
9.68653e-07
1.20739e-05
1.45487e-06
1.2063e-05
1.54104e-06
1.25017e-05
1.39908e-06
1.29553e-05
1.41242e-06
1.3176e-05
1.77434e-06
1.27219e-05
2.72782e-06
1.15455e-05
3.53501e-06
1.01186e-05
3.53547e-06
8.69217e-06
2.82089e-06
7.50491e-06
1.60825e-06
6.78337e-06
4.83115e-08
6.44942e-06
-9.46342e-07
6.16792e-06
-1.09566e-06
5.79271e-06
-7.37978e-07
5.23387e-06
-2.23309e-07
4.50411e-06
-8.35241e-09
3.75136e-06
-4.51664e-07
3.13661e-06
-1.41117e-06
2.90238e-06
-1.98281e-06
3.45988e-06
-2.32851e-06
5.77735e-06
-2.07064e-06
8.67552e-06
-1.43715e-06
1.05917e-05
-8.86066e-07
1.35131e-05
1.49284e-06