/*--------------------------------*- C++ -*----------------------------------*\
| =========                 |                                                 |
| \\      /  F ield         | OpenFOAM: The Open Source CFD Toolbox           |
|  \\    /   O peration     | Version:  v2006                                 |
|   \\  /    A nd           | Website:  www.openfoam.com                      |
|    \\/     M anipulation  |                                                 |
\*---------------------------------------------------------------------------*/
FoamFile
{
    version     2.0;
    format      ascii;
    class       volScalarField;
    location    "9";
    object      k;
}
// * * * * * * * * * * * * * * * * * * * * * * * * * * * * * * * * * * * * * //

dimensions      [0 2 -2 0 0 0 0];


internalField   nonuniform List<scalar> 
33000
(
1.38353e-08
2.11646e-08
3.19647e-08
4.00269e-08
3.95545e-08
3.51773e-08
3.08957e-08
2.86531e-08
2.76591e-08
2.74285e-08
2.79448e-08
2.89492e-08
3.0183e-08
3.14432e-08
3.26829e-08
3.39423e-08
3.53121e-08
3.68878e-08
3.88895e-08
4.19019e-08
4.73135e-08
5.79737e-08
7.76671e-08
1.0845e-07
1.48872e-07
1.97898e-07
2.52522e-07
3.0551e-07
3.49494e-07
3.81431e-07
4.0624e-07
4.27148e-07
4.49319e-07
4.98785e-07
6.25358e-07
8.60868e-07
1.15556e-06
1.40592e-06
1.54942e-06
1.61193e-06
1.63342e-06
1.63981e-06
1.63921e-06
1.62759e-06
1.60249e-06
1.57702e-06
1.55804e-06
1.5458e-06
1.53442e-06
1.51394e-06
1.47744e-06
1.43408e-06
1.3894e-06
1.35243e-06
1.33053e-06
1.33207e-06
1.35711e-06
1.3979e-06
1.44498e-06
1.48699e-06
1.50815e-06
1.499e-06
1.45969e-06
1.39503e-06
1.30976e-06
1.21001e-06
1.09977e-06
9.73183e-07
8.64818e-07
7.83355e-07
7.2056e-07
6.71949e-07
6.34166e-07
6.05525e-07
5.85573e-07
5.79243e-07
5.81892e-07
6.0997e-07
6.25722e-07
6.46715e-07
6.82122e-07
7.2224e-07
7.78053e-07
8.38519e-07
9.10018e-07
9.62622e-07
1.00308e-06
1.02726e-06
1.03599e-06
1.02792e-06
1.00382e-06
9.62466e-07
8.98918e-07
8.29103e-07
7.51464e-07
6.77576e-07
6.21634e-07
5.85593e-07
5.68224e-07
5.77719e-07
6.07787e-07
6.20138e-07
6.23922e-07
6.28553e-07
6.38609e-07
6.47442e-07
6.50364e-07
6.4679e-07
6.39223e-07
6.28812e-07
6.16803e-07
6.02967e-07
5.84373e-07
5.58098e-07
5.2578e-07
4.96732e-07
4.80307e-07
4.89592e-07
5.10538e-07
5.15485e-07
5.18898e-07
5.20966e-07
5.27295e-07
5.35234e-07
5.41652e-07
5.46426e-07
5.50066e-07
5.52727e-07
5.56052e-07
5.59783e-07
5.63583e-07
5.67026e-07
5.69571e-07
5.71271e-07
5.72893e-07
5.74729e-07
5.76884e-07
5.78867e-07
5.8057e-07
5.8202e-07
5.83426e-07
5.84777e-07
5.85779e-07
5.86138e-07
5.85753e-07
5.84918e-07
5.84008e-07
5.83155e-07
5.8209e-07
5.80289e-07
5.77608e-07
5.74487e-07
5.7133e-07
5.68117e-07
5.64594e-07
5.6063e-07
5.56261e-07
5.5159e-07
5.46721e-07
5.41669e-07
5.36414e-07
5.30909e-07
5.25102e-07
5.18993e-07
5.1277e-07
5.06522e-07
4.99987e-07
4.92975e-07
4.85759e-07
4.78754e-07
4.71998e-07
4.65128e-07
4.57856e-07
4.50406e-07
4.43247e-07
4.36658e-07
4.30667e-07
4.25029e-07
4.19322e-07
4.13341e-07
4.07201e-07
4.01104e-07
3.95296e-07
3.90015e-07
3.8525e-07
3.80819e-07
3.76364e-07
3.71622e-07
3.66983e-07
3.62845e-07
3.59242e-07
3.55894e-07
3.52472e-07
3.48958e-07
3.45474e-07
3.42332e-07
3.3985e-07
3.38181e-07
3.37171e-07
3.36191e-07
3.35036e-07
3.33865e-07
3.33129e-07
3.33038e-07
3.33403e-07
3.33922e-07
3.34365e-07
3.34755e-07
3.35536e-07
3.36922e-07
3.38554e-07
3.39699e-07
3.4059e-07
3.41909e-07
3.43634e-07
3.45701e-07
3.48126e-07
3.50577e-07
3.52629e-07
3.54477e-07
3.56439e-07
3.58725e-07
3.61254e-07
3.64004e-07
3.66768e-07
3.69156e-07
3.71252e-07
3.73214e-07
3.75228e-07
3.77372e-07
3.79619e-07
3.81831e-07
3.83573e-07
3.84945e-07
3.86155e-07
3.87303e-07
3.88447e-07
3.89505e-07
3.90376e-07
3.91055e-07
3.9158e-07
3.9188e-07
3.91847e-07
3.91493e-07
3.90971e-07
3.90422e-07
3.89822e-07
3.89207e-07
3.88345e-07
3.86941e-07
3.85357e-07
3.83841e-07
3.82293e-07
3.80677e-07
3.78944e-07
3.76925e-07
3.74713e-07
3.72423e-07
3.70096e-07
3.67728e-07
3.65238e-07
3.62626e-07
3.59886e-07
3.5706e-07
3.54231e-07
3.51431e-07
3.48602e-07
3.45583e-07
3.42352e-07
3.3907e-07
3.35835e-07
3.32605e-07
3.29343e-07
3.26061e-07
3.22726e-07
3.19231e-07
3.15617e-07
3.11963e-07
3.08303e-07
3.04624e-07
3.0092e-07
2.97204e-07
2.93469e-07
2.8963e-07
2.85657e-07
2.81644e-07
2.77632e-07
2.73594e-07
2.69512e-07
2.65391e-07
2.6121e-07
2.56925e-07
2.52541e-07
2.48065e-07
2.43488e-07
2.38818e-07
2.34094e-07
2.29339e-07
2.24557e-07
2.19768e-07
2.14982e-07
2.10212e-07
2.0546e-07
2.00704e-07
1.95921e-07
1.91116e-07
1.86327e-07
1.81594e-07
1.76956e-07
1.72446e-07
1.68097e-07
1.63937e-07
1.59984e-07
1.56231e-07
1.52669e-07
1.49302e-07
1.46146e-07
1.43208e-07
1.4049e-07
1.37992e-07
1.35717e-07
1.33668e-07
1.31839e-07
1.30224e-07
1.28811e-07
1.27588e-07
1.26549e-07
1.25681e-07
1.24967e-07
1.24386e-07
1.23923e-07
1.23569e-07
1.23311e-07
1.23141e-07
1.23041e-07
1.22993e-07
1.22986e-07
1.23007e-07
1.23038e-07
1.2307e-07
1.23092e-07
1.23101e-07
1.23095e-07
1.23073e-07
1.23035e-07
1.22976e-07
1.22894e-07
1.22788e-07
1.22659e-07
1.22506e-07
1.22327e-07
1.22117e-07
1.21875e-07
1.216e-07
1.21291e-07
1.20947e-07
1.2057e-07
1.2016e-07
1.19717e-07
1.19243e-07
1.18737e-07
1.182e-07
1.17633e-07
1.17039e-07
1.16417e-07
1.15771e-07
1.15102e-07
1.14408e-07
1.13693e-07
1.12958e-07
1.12205e-07
1.11434e-07
1.10643e-07
1.09831e-07
1.08999e-07
1.08148e-07
1.0728e-07
1.06393e-07
1.0549e-07
1.04569e-07
1.03629e-07
1.02668e-07
1.01688e-07
1.00694e-07
9.96896e-08
9.86738e-08
9.76493e-08
9.66161e-08
9.55763e-08
9.4532e-08
9.3488e-08
9.24429e-08
9.13964e-08
9.03495e-08
8.93075e-08
8.82734e-08
8.72486e-08
8.6236e-08
8.52367e-08
8.42474e-08
8.32693e-08
8.23052e-08
8.13594e-08
8.04337e-08
7.95365e-08
7.86651e-08
7.78175e-08
7.69899e-08
7.61905e-08
7.54374e-08
7.4705e-08
7.40105e-08
7.33158e-08
7.26527e-08
7.20149e-08
7.13825e-08
7.07815e-08
7.01463e-08
6.94699e-08
6.88736e-08
6.8314e-08
6.76372e-08
6.71236e-08
6.61678e-08
6.50532e-08
6.45743e-08
6.41703e-08
6.312e-08
6.4056e-08
6.5149e-08
6.86621e-08
6.96607e-08
7.15535e-08
7.22427e-08
7.30286e-08
7.32094e-08
7.33898e-08
7.33433e-08
7.3368e-08
7.32204e-08
7.31923e-08
7.31826e-08
7.2689e-08
7.2345e-08
7.18877e-08
7.00523e-08
6.85635e-08
6.63256e-08
6.53104e-08
6.37792e-08
6.42783e-08
6.47766e-08
6.54397e-08
6.58572e-08
6.63112e-08
6.65908e-08
6.6853e-08
6.66377e-08
6.65634e-08
6.64854e-08
6.59706e-08
6.64264e-08
6.54032e-08
6.36377e-08
6.38185e-08
6.31238e-08
6.03673e-08
6.29103e-08
6.51201e-08
7.7097e-08
8.06731e-08
8.69521e-08
9.17991e-08
9.83769e-08
1.05089e-07
1.12164e-07
1.18554e-07
1.24195e-07
1.29061e-07
1.33314e-07
1.36961e-07
1.40019e-07
1.42607e-07
1.44811e-07
1.46738e-07
1.4849e-07
1.50065e-07
1.51437e-07
1.52667e-07
1.5383e-07
1.54894e-07
1.55818e-07
1.56653e-07
1.57479e-07
1.58312e-07
1.59087e-07
1.59777e-07
1.60378e-07
1.60922e-07
1.61419e-07
1.61854e-07
1.62259e-07
1.62656e-07
1.63003e-07
1.63237e-07
1.63348e-07
1.63375e-07
1.63371e-07
1.63374e-07
1.63377e-07
1.63371e-07
1.63321e-07
1.63226e-07
1.63111e-07
1.62963e-07
1.62774e-07
1.62571e-07
1.62392e-07
1.62236e-07
1.62078e-07
1.61888e-07
1.61645e-07
1.61349e-07
1.61015e-07
1.60658e-07
1.60294e-07
1.59928e-07
1.59561e-07
1.59191e-07
1.58813e-07
1.58422e-07
1.58019e-07
1.57615e-07
1.57218e-07
1.56835e-07
1.56442e-07
1.56054e-07
1.55628e-07
1.55255e-07
1.54851e-07
1.54518e-07
1.54117e-07
1.53772e-07
1.53506e-07
1.53147e-07
1.52002e-07
1.52451e-07
1.45864e-07
1.32094e-07
8.07118e-08
1.17263e-08
1.62816e-08
2.24462e-08
2.55328e-08
2.45329e-08
2.23938e-08
1.93083e-08
1.75251e-08
1.66901e-08
1.65834e-08
1.71738e-08
1.83731e-08
2.01573e-08
2.25783e-08
2.56272e-08
2.89713e-08
3.20674e-08
3.45986e-08
3.71818e-08
4.15294e-08
5.06355e-08
6.84259e-08
1.01929e-07
1.59709e-07
2.44035e-07
3.49943e-07
4.63815e-07
5.67669e-07
6.50909e-07
7.43039e-07
9.26585e-07
1.13095e-06
1.25345e-06
1.30852e-06
1.34536e-06
1.38344e-06
1.39901e-06
1.33904e-06
1.16885e-06
8.95177e-07
6.5468e-07
5.601e-07
5.73307e-07
5.87025e-07
5.10403e-07
3.78408e-07
3.11026e-07
3.26395e-07
3.80465e-07
4.0113e-07
3.38886e-07
2.33361e-07
1.59733e-07
1.20942e-07
1.02888e-07
1.05819e-07
1.29168e-07
1.8301e-07
2.56082e-07
3.15954e-07
3.35562e-07
3.28094e-07
3.02682e-07
2.66194e-07
2.19122e-07
1.63609e-07
1.1326e-07
9.87396e-08
1.01992e-07
1.1426e-07
1.35925e-07
1.67433e-07
2.03752e-07
2.35299e-07
2.5659e-07
2.7554e-07
2.97213e-07
3.58952e-07
3.84244e-07
3.86239e-07
4.40731e-07
4.9888e-07
4.8064e-07
4.7191e-07
4.32964e-07
4.03164e-07
3.69054e-07
3.22665e-07
2.45196e-07
1.8241e-07
1.43361e-07
1.25251e-07
1.24307e-07
1.36314e-07
1.56392e-07
1.83755e-07
2.15045e-07
2.49993e-07
2.73063e-07
2.99448e-07
2.97329e-07
2.73122e-07
2.18402e-07
1.60662e-07
1.37896e-07
1.02796e-07
6.98034e-08
5.52971e-08
5.10778e-08
4.86694e-08
4.73252e-08
4.892e-08
4.86187e-08
4.96846e-08
5.24756e-08
5.39861e-08
5.1387e-08
4.74852e-08
5.03088e-08
5.20381e-08
5.26329e-08
5.0005e-08
5.41496e-08
4.90049e-08
4.32605e-08
4.29318e-08
4.14267e-08
4.10883e-08
4.1707e-08
4.09546e-08
4.02897e-08
3.97727e-08
3.86305e-08
3.85281e-08
3.86965e-08
3.88452e-08
3.86555e-08
3.82961e-08
3.81415e-08
3.80798e-08
3.814e-08
3.79333e-08
3.75302e-08
3.69857e-08
3.65763e-08
3.64402e-08
3.64837e-08
3.64995e-08
3.62168e-08
3.56992e-08
3.54458e-08
3.54517e-08
3.54977e-08
3.5454e-08
3.53393e-08
3.523e-08
3.51504e-08
3.5134e-08
3.51315e-08
3.51181e-08
3.50861e-08
3.50527e-08
3.50216e-08
3.50292e-08
3.50918e-08
3.5109e-08
3.50221e-08
3.49371e-08
3.49331e-08
3.49957e-08
3.50188e-08
3.49147e-08
3.47386e-08
3.45905e-08
3.45177e-08
3.4532e-08
3.4572e-08
3.45319e-08
3.43713e-08
3.41134e-08
3.38076e-08
3.35269e-08
3.33143e-08
3.31743e-08
3.30558e-08
3.28827e-08
3.26049e-08
3.2257e-08
3.19401e-08
3.17077e-08
3.15195e-08
3.1292e-08
3.09667e-08
3.05518e-08
3.01071e-08
2.97148e-08
2.94274e-08
2.922e-08
2.89928e-08
2.8641e-08
2.81648e-08
2.76685e-08
2.72509e-08
2.69147e-08
2.6598e-08
2.62347e-08
2.58071e-08
2.53757e-08
2.50235e-08
2.47378e-08
2.43875e-08
2.39174e-08
2.34191e-08
2.29943e-08
2.26793e-08
2.24406e-08
2.21962e-08
2.18606e-08
2.14334e-08
2.09945e-08
2.06152e-08
2.03327e-08
2.01175e-08
1.99082e-08
1.96455e-08
1.93173e-08
1.89695e-08
1.86547e-08
1.84155e-08
1.82417e-08
1.80801e-08
1.78792e-08
1.76227e-08
1.73532e-08
1.71185e-08
1.69341e-08
1.67897e-08
1.66748e-08
1.65763e-08
1.64833e-08
1.63904e-08
1.62797e-08
1.61583e-08
1.60594e-08
1.60104e-08
1.60347e-08
1.61179e-08
1.61753e-08
1.61643e-08
1.61312e-08
1.61359e-08
1.62046e-08
1.63171e-08
1.64253e-08
1.64994e-08
1.65432e-08
1.65874e-08
1.66618e-08
1.67599e-08
1.68585e-08
1.69396e-08
1.69898e-08
1.70242e-08
1.70829e-08
1.7191e-08
1.73354e-08
1.74385e-08
1.74534e-08
1.74295e-08
1.74236e-08
1.74485e-08
1.75035e-08
1.75849e-08
1.76693e-08
1.77133e-08
1.77026e-08
1.76662e-08
1.76354e-08
1.76143e-08
1.75979e-08
1.76048e-08
1.76479e-08
1.76774e-08
1.76405e-08
1.75649e-08
1.75018e-08
1.74579e-08
1.74215e-08
1.73967e-08
1.73786e-08
1.73407e-08
1.72699e-08
1.71822e-08
1.70955e-08
1.70114e-08
1.69375e-08
1.6872e-08
1.67951e-08
1.66984e-08
1.65871e-08
1.64674e-08
1.63563e-08
1.6261e-08
1.61601e-08
1.60404e-08
1.59036e-08
1.57675e-08
1.56396e-08
1.55127e-08
1.53798e-08
1.52429e-08
1.51156e-08
1.50081e-08
1.49116e-08
1.48084e-08
1.46985e-08
1.45966e-08
1.45085e-08
1.44323e-08
1.43653e-08
1.43065e-08
1.4256e-08
1.42154e-08
1.41867e-08
1.41655e-08
1.41478e-08
1.41398e-08
1.41455e-08
1.41588e-08
1.4172e-08
1.41844e-08
1.4203e-08
1.4234e-08
1.42786e-08
1.4324e-08
1.43555e-08
1.43738e-08
1.43948e-08
1.44202e-08
1.44445e-08
1.44639e-08
1.44758e-08
1.44799e-08
1.44788e-08
1.44743e-08
1.44621e-08
1.44422e-08
1.4416e-08
1.43863e-08
1.43558e-08
1.43241e-08
1.42878e-08
1.42439e-08
1.41946e-08
1.41446e-08
1.40949e-08
1.40442e-08
1.39925e-08
1.39363e-08
1.38764e-08
1.38164e-08
1.37565e-08
1.36962e-08
1.36378e-08
1.35828e-08
1.35265e-08
1.34641e-08
1.33943e-08
1.33249e-08
1.3264e-08
1.32088e-08
1.31463e-08
1.30755e-08
1.30049e-08
1.29402e-08
1.28801e-08
1.28212e-08
1.27631e-08
1.27085e-08
1.26529e-08
1.2589e-08
1.25194e-08
1.24585e-08
1.24036e-08
1.23496e-08
1.22955e-08
1.22406e-08
1.21836e-08
1.21267e-08
1.20755e-08
1.20269e-08
1.19757e-08
1.19199e-08
1.18672e-08
1.18176e-08
1.17697e-08
1.17237e-08
1.16838e-08
1.16426e-08
1.15978e-08
1.15527e-08
1.1508e-08
1.14694e-08
1.14341e-08
1.14093e-08
1.13769e-08
1.13449e-08
1.12992e-08
1.12766e-08
1.12474e-08
1.12207e-08
1.11878e-08
1.11464e-08
1.11227e-08
1.10796e-08
1.10564e-08
1.10397e-08
1.09907e-08
1.09894e-08
1.10044e-08
1.0946e-08
1.09844e-08
1.10898e-08
1.10184e-08
1.11598e-08
1.15123e-08
1.15046e-08
1.19639e-08
1.24919e-08
1.30612e-08
1.27024e-08
1.18372e-08
1.17033e-08
1.14035e-08
1.13214e-08
1.12017e-08
1.11385e-08
1.1063e-08
1.10044e-08
1.10108e-08
1.12239e-08
1.12295e-08
1.14621e-08
1.16644e-08
1.13061e-08
1.13092e-08
1.13597e-08
1.12096e-08
1.08707e-08
1.08294e-08
1.08124e-08
1.07286e-08
1.06834e-08
1.06564e-08
1.06697e-08
1.0686e-08
1.07154e-08
1.07465e-08
1.07868e-08
1.08697e-08
1.10556e-08
1.15798e-08
1.19475e-08
1.24801e-08
1.31709e-08
1.30324e-08
1.38931e-08
1.4637e-08
1.79565e-08
1.77906e-08
1.33289e-08
1.215e-08
1.17546e-08
1.17164e-08
1.1654e-08
1.16476e-08
1.17204e-08
1.17609e-08
1.17978e-08
1.19393e-08
1.20826e-08
1.2154e-08
1.22153e-08
1.224e-08
1.23144e-08
1.24535e-08
1.25524e-08
1.25701e-08
1.26091e-08
1.26797e-08
1.27312e-08
1.27219e-08
1.27152e-08
1.27792e-08
1.28833e-08
1.29378e-08
1.29559e-08
1.2943e-08
1.29435e-08
1.29504e-08
1.29475e-08
1.29765e-08
1.30345e-08
1.3079e-08
1.30659e-08
1.30012e-08
1.29269e-08
1.28738e-08
1.28605e-08
1.28618e-08
1.28793e-08
1.28731e-08
1.28598e-08
1.28615e-08
1.28505e-08
1.28241e-08
1.28069e-08
1.28147e-08
1.28402e-08
1.28703e-08
1.28919e-08
1.28952e-08
1.28825e-08
1.28611e-08
1.28381e-08
1.28196e-08
1.28066e-08
1.27978e-08
1.2791e-08
1.27832e-08
1.27726e-08
1.27599e-08
1.27493e-08
1.27421e-08
1.27418e-08
1.27369e-08
1.27313e-08
1.27149e-08
1.27101e-08
1.27065e-08
1.27036e-08
1.26988e-08
1.26992e-08
1.27078e-08
1.27128e-08
1.27034e-08
1.27279e-08
1.26679e-08
1.23808e-08
1.13668e-08
1.10711e-08
1.40633e-08
1.75579e-08
1.92013e-08
1.83037e-08
1.56107e-08
1.39076e-08
1.30441e-08
1.27771e-08
1.30551e-08
1.39879e-08
1.57643e-08
1.88024e-08
2.35392e-08
3.00636e-08
3.72508e-08
4.34192e-08
4.7879e-08
5.26526e-08
6.21603e-08
7.99009e-08
1.11736e-07
1.68523e-07
2.69372e-07
4.45536e-07
7.17359e-07
1.06209e-06
1.36588e-06
1.58264e-06
1.76461e-06
1.89657e-06
1.88556e-06
1.77517e-06
1.65624e-06
1.53926e-06
1.41074e-06
1.22384e-06
1.00093e-06
7.44137e-07
4.91332e-07
3.17038e-07
2.41037e-07
2.28901e-07
2.23582e-07
1.8918e-07
1.37836e-07
1.0739e-07
1.06452e-07
1.21202e-07
1.26045e-07
1.0642e-07
7.42906e-08
5.18643e-08
4.07256e-08
3.6716e-08
3.80272e-08
4.38723e-08
5.45333e-08
6.64328e-08
7.56752e-08
7.8359e-08
7.94126e-08
8.2653e-08
7.96079e-08
7.00031e-08
5.71998e-08
4.69983e-08
4.27417e-08
4.29722e-08
4.58613e-08
5.28692e-08
6.33753e-08
7.65305e-08
8.75854e-08
9.69969e-08
1.07107e-07
1.21613e-07
1.41144e-07
1.67009e-07
1.96335e-07
2.52462e-07
2.9609e-07
3.304e-07
3.83122e-07
4.33215e-07
4.13382e-07
3.79699e-07
3.2705e-07
2.75581e-07
2.12754e-07
1.64227e-07
1.23487e-07
9.56755e-08
8.21047e-08
7.97406e-08
8.41721e-08
9.49931e-08
1.03664e-07
1.07871e-07
1.09911e-07
1.13553e-07
1.03777e-07
9.20729e-08
7.78137e-08
6.43853e-08
5.1855e-08
4.02466e-08
3.23457e-08
2.691e-08
2.24883e-08
1.87455e-08
1.69003e-08
1.59599e-08
1.59295e-08
1.67039e-08
1.73992e-08
1.75756e-08
1.72058e-08
1.65454e-08
1.57568e-08
1.56488e-08
1.59161e-08
1.61281e-08
1.54175e-08
1.46043e-08
1.44817e-08
1.39207e-08
1.34907e-08
1.33884e-08
1.32137e-08
1.31052e-08
1.30644e-08
1.29697e-08
1.29607e-08
1.30009e-08
1.30357e-08
1.30374e-08
1.3024e-08
1.30324e-08
1.30414e-08
1.30638e-08
1.30703e-08
1.3057e-08
1.30351e-08
1.30264e-08
1.30394e-08
1.30631e-08
1.3082e-08
1.30847e-08
1.30804e-08
1.30936e-08
1.31229e-08
1.31539e-08
1.31783e-08
1.32024e-08
1.32325e-08
1.32654e-08
1.32975e-08
1.33268e-08
1.33549e-08
1.33812e-08
1.34082e-08
1.3436e-08
1.34658e-08
1.34982e-08
1.35257e-08
1.35416e-08
1.3551e-08
1.35666e-08
1.35901e-08
1.36069e-08
1.36044e-08
1.35833e-08
1.3558e-08
1.35414e-08
1.35348e-08
1.353e-08
1.35116e-08
1.34694e-08
1.34042e-08
1.33233e-08
1.32402e-08
1.31674e-08
1.31093e-08
1.30581e-08
1.30001e-08
1.29235e-08
1.28302e-08
1.27372e-08
1.26566e-08
1.2587e-08
1.25194e-08
1.24436e-08
1.23556e-08
1.22604e-08
1.21706e-08
1.20967e-08
1.20374e-08
1.19789e-08
1.19079e-08
1.18237e-08
1.17384e-08
1.16644e-08
1.1601e-08
1.15404e-08
1.1476e-08
1.14091e-08
1.13464e-08
1.12934e-08
1.1246e-08
1.11915e-08
1.11278e-08
1.10637e-08
1.10081e-08
1.09639e-08
1.09279e-08
1.08931e-08
1.08525e-08
1.08056e-08
1.07584e-08
1.07165e-08
1.0683e-08
1.06557e-08
1.06306e-08
1.0604e-08
1.05749e-08
1.05451e-08
1.05178e-08
1.04956e-08
1.04781e-08
1.04625e-08
1.04458e-08
1.04271e-08
1.04084e-08
1.03923e-08
1.03798e-08
1.03704e-08
1.0363e-08
1.03564e-08
1.03494e-08
1.03425e-08
1.03359e-08
1.03297e-08
1.03246e-08
1.03212e-08
1.03204e-08
1.0322e-08
1.03239e-08
1.03242e-08
1.03229e-08
1.03224e-08
1.03239e-08
1.03268e-08
1.03315e-08
1.0337e-08
1.03413e-08
1.03453e-08
1.03501e-08
1.0355e-08
1.03601e-08
1.03659e-08
1.0371e-08
1.03752e-08
1.03805e-08
1.03883e-08
1.03979e-08
1.04048e-08
1.04072e-08
1.04077e-08
1.04093e-08
1.0413e-08
1.04185e-08
1.04251e-08
1.04317e-08
1.04364e-08
1.04388e-08
1.04398e-08
1.04407e-08
1.04419e-08
1.04434e-08
1.0447e-08
1.04528e-08
1.04576e-08
1.04584e-08
1.04568e-08
1.04563e-08
1.04571e-08
1.04583e-08
1.04602e-08
1.04623e-08
1.04632e-08
1.04624e-08
1.04609e-08
1.04595e-08
1.0458e-08
1.04567e-08
1.0456e-08
1.04551e-08
1.04535e-08
1.04507e-08
1.04463e-08
1.04421e-08
1.04391e-08
1.04362e-08
1.04321e-08
1.04261e-08
1.04194e-08
1.04134e-08
1.0408e-08
1.04017e-08
1.03945e-08
1.03877e-08
1.03822e-08
1.03776e-08
1.03722e-08
1.03656e-08
1.03593e-08
1.03539e-08
1.03495e-08
1.03458e-08
1.03425e-08
1.03396e-08
1.03371e-08
1.03354e-08
1.03342e-08
1.03335e-08
1.03335e-08
1.03344e-08
1.03355e-08
1.03364e-08
1.03374e-08
1.03392e-08
1.03422e-08
1.03459e-08
1.03494e-08
1.03517e-08
1.03529e-08
1.03543e-08
1.03559e-08
1.03574e-08
1.03585e-08
1.0359e-08
1.03588e-08
1.03581e-08
1.0357e-08
1.03549e-08
1.03519e-08
1.03485e-08
1.03449e-08
1.03414e-08
1.03378e-08
1.03339e-08
1.03293e-08
1.03245e-08
1.03197e-08
1.03151e-08
1.03106e-08
1.03062e-08
1.03014e-08
1.02963e-08
1.02914e-08
1.02867e-08
1.02821e-08
1.02777e-08
1.02735e-08
1.02693e-08
1.02648e-08
1.026e-08
1.02553e-08
1.02512e-08
1.02473e-08
1.02429e-08
1.02379e-08
1.02324e-08
1.02273e-08
1.02228e-08
1.02184e-08
1.02141e-08
1.02096e-08
1.02052e-08
1.02007e-08
1.01962e-08
1.01919e-08
1.01881e-08
1.01844e-08
1.01805e-08
1.01766e-08
1.01728e-08
1.01692e-08
1.01658e-08
1.01624e-08
1.01589e-08
1.01555e-08
1.01524e-08
1.01495e-08
1.01465e-08
1.01435e-08
1.01406e-08
1.01379e-08
1.01354e-08
1.0133e-08
1.01304e-08
1.01279e-08
1.01258e-08
1.01243e-08
1.01224e-08
1.01211e-08
1.01193e-08
1.01193e-08
1.0116e-08
1.01143e-08
1.01137e-08
1.01122e-08
1.01145e-08
1.01117e-08
1.0117e-08
1.01134e-08
1.01136e-08
1.01165e-08
1.01178e-08
1.01163e-08
1.01186e-08
1.01249e-08
1.0123e-08
1.01354e-08
1.01554e-08
1.01672e-08
1.0177e-08
1.01805e-08
1.0201e-08
1.01692e-08
1.0136e-08
1.01274e-08
1.0117e-08
1.01116e-08
1.01079e-08
1.01074e-08
1.01104e-08
1.01122e-08
1.01167e-08
1.01235e-08
1.01169e-08
1.01167e-08
1.01141e-08
1.00976e-08
1.00884e-08
1.00852e-08
1.00844e-08
1.0082e-08
1.00833e-08
1.00821e-08
1.00823e-08
1.00811e-08
1.0084e-08
1.00849e-08
1.00864e-08
1.00895e-08
1.00958e-08
1.01116e-08
1.01353e-08
1.01693e-08
1.02217e-08
1.02635e-08
1.03354e-08
1.04019e-08
1.05036e-08
1.05306e-08
1.0453e-08
1.07377e-08
1.04964e-08
1.02111e-08
1.01877e-08
1.01704e-08
1.01609e-08
1.01524e-08
1.01457e-08
1.01385e-08
1.01308e-08
1.01247e-08
1.01222e-08
1.01211e-08
1.01203e-08
1.01206e-08
1.01212e-08
1.01241e-08
1.01283e-08
1.01315e-08
1.0133e-08
1.01352e-08
1.01385e-08
1.0141e-08
1.01421e-08
1.01436e-08
1.01469e-08
1.01511e-08
1.01542e-08
1.01562e-08
1.01573e-08
1.01583e-08
1.01593e-08
1.01604e-08
1.01625e-08
1.01653e-08
1.01674e-08
1.01673e-08
1.01655e-08
1.01632e-08
1.01616e-08
1.01613e-08
1.01615e-08
1.01621e-08
1.01623e-08
1.01623e-08
1.01628e-08
1.01631e-08
1.01631e-08
1.01633e-08
1.01641e-08
1.01655e-08
1.01669e-08
1.01681e-08
1.01687e-08
1.01687e-08
1.01683e-08
1.01677e-08
1.01672e-08
1.01669e-08
1.01667e-08
1.01667e-08
1.01667e-08
1.01665e-08
1.01662e-08
1.01661e-08
1.01661e-08
1.01664e-08
1.01665e-08
1.01665e-08
1.01662e-08
1.01662e-08
1.01663e-08
1.01663e-08
1.01661e-08
1.01666e-08
1.01674e-08
1.01657e-08
1.01663e-08
1.01663e-08
1.01639e-08
1.0148e-08
1.00898e-08
1.06509e-08
1.23963e-08
1.43389e-08
1.51526e-08
1.41483e-08
1.2913e-08
1.21438e-08
1.17976e-08
1.18313e-08
1.2347e-08
1.36495e-08
1.62052e-08
2.07695e-08
2.81661e-08
3.90367e-08
5.21059e-08
6.47073e-08
7.50578e-08
8.83941e-08
1.13596e-07
1.47846e-07
2.00071e-07
2.7902e-07
3.91506e-07
5.40851e-07
7.35593e-07
1.00987e-06
1.21273e-06
1.24566e-06
1.27381e-06
1.30669e-06
1.28843e-06
1.24014e-06
1.17778e-06
1.08576e-06
9.52288e-07
7.90749e-07
6.16965e-07
4.15978e-07
2.50867e-07
1.53428e-07
1.10624e-07
9.79636e-08
9.1366e-08
7.73029e-08
5.84694e-08
4.72877e-08
4.50911e-08
4.83882e-08
4.94037e-08
4.34385e-08
3.3583e-08
2.61869e-08
2.22108e-08
2.0627e-08
2.07179e-08
2.18372e-08
2.34594e-08
2.5133e-08
2.58403e-08
2.60296e-08
2.77187e-08
3.07858e-08
3.25398e-08
3.1386e-08
2.82447e-08
2.49201e-08
2.2389e-08
2.18792e-08
2.30604e-08
2.51051e-08
2.81341e-08
3.27504e-08
3.92947e-08
4.69381e-08
5.63034e-08
6.75472e-08
8.14739e-08
9.92755e-08
1.20921e-07
1.47124e-07
1.77194e-07
2.0937e-07
2.56392e-07
2.93913e-07
3.17093e-07
3.32954e-07
3.58676e-07
3.5396e-07
2.85793e-07
2.38399e-07
1.70172e-07
1.29787e-07
9.82608e-08
7.52857e-08
6.08348e-08
5.57358e-08
5.77024e-08
5.86802e-08
5.83483e-08
5.51327e-08
4.99298e-08
4.4109e-08
3.81296e-08
3.2858e-08
2.87845e-08
2.53554e-08
2.29031e-08
2.12076e-08
1.94078e-08
1.77357e-08
1.63332e-08
1.50918e-08
1.39798e-08
1.30726e-08
1.23924e-08
1.1989e-08
1.19155e-08
1.18337e-08
1.16928e-08
1.15687e-08
1.14646e-08
1.13428e-08
1.13173e-08
1.13161e-08
1.12551e-08
1.10974e-08
1.09421e-08
1.0855e-08
1.0744e-08
1.066e-08
1.06198e-08
1.05862e-08
1.05746e-08
1.05737e-08
1.05762e-08
1.05762e-08
1.05719e-08
1.05729e-08
1.05733e-08
1.05774e-08
1.05811e-08
1.05819e-08
1.05816e-08
1.05836e-08
1.05881e-08
1.05939e-08
1.0599e-08
1.06016e-08
1.06035e-08
1.06078e-08
1.06148e-08
1.06224e-08
1.06284e-08
1.06331e-08
1.06385e-08
1.06455e-08
1.06534e-08
1.0661e-08
1.06674e-08
1.06724e-08
1.06763e-08
1.06801e-08
1.0685e-08
1.06909e-08
1.06962e-08
1.06988e-08
1.06985e-08
1.0698e-08
1.06992e-08
1.06999e-08
1.06974e-08
1.06909e-08
1.06821e-08
1.06738e-08
1.06671e-08
1.06614e-08
1.06541e-08
1.06427e-08
1.06265e-08
1.06069e-08
1.05868e-08
1.05688e-08
1.05534e-08
1.05394e-08
1.0525e-08
1.0508e-08
1.04885e-08
1.04684e-08
1.04495e-08
1.04328e-08
1.04176e-08
1.04027e-08
1.0387e-08
1.03703e-08
1.0354e-08
1.03397e-08
1.03275e-08
1.03162e-08
1.03043e-08
1.02914e-08
1.02785e-08
1.02668e-08
1.02563e-08
1.02463e-08
1.02365e-08
1.0227e-08
1.02182e-08
1.02103e-08
1.02028e-08
1.0195e-08
1.01867e-08
1.01788e-08
1.01717e-08
1.01657e-08
1.01605e-08
1.01555e-08
1.01504e-08
1.0145e-08
1.01398e-08
1.01351e-08
1.01309e-08
1.01273e-08
1.01241e-08
1.0121e-08
1.01179e-08
1.01149e-08
1.01121e-08
1.01096e-08
1.01074e-08
1.01055e-08
1.01036e-08
1.01017e-08
1.00999e-08
1.00984e-08
1.00971e-08
1.0096e-08
1.0095e-08
1.00941e-08
1.00933e-08
1.00925e-08
1.00917e-08
1.00911e-08
1.00907e-08
1.00903e-08
1.00901e-08
1.009e-08
1.00899e-08
1.00897e-08
1.00896e-08
1.00897e-08
1.00898e-08
1.009e-08
1.00901e-08
1.00902e-08
1.00904e-08
1.00906e-08
1.00909e-08
1.00912e-08
1.00914e-08
1.00914e-08
1.00916e-08
1.00918e-08
1.00921e-08
1.00926e-08
1.00932e-08
1.00936e-08
1.00937e-08
1.00938e-08
1.0094e-08
1.00944e-08
1.00948e-08
1.00952e-08
1.00956e-08
1.0096e-08
1.00963e-08
1.00966e-08
1.00968e-08
1.00969e-08
1.00971e-08
1.00974e-08
1.00979e-08
1.00983e-08
1.00985e-08
1.00986e-08
1.00988e-08
1.0099e-08
1.00992e-08
1.00994e-08
1.00996e-08
1.00998e-08
1.01e-08
1.01001e-08
1.01001e-08
1.01001e-08
1.01001e-08
1.01001e-08
1.01001e-08
1.01002e-08
1.01001e-08
1.00998e-08
1.00995e-08
1.00994e-08
1.00993e-08
1.0099e-08
1.00985e-08
1.00979e-08
1.00974e-08
1.0097e-08
1.00965e-08
1.00958e-08
1.00951e-08
1.00946e-08
1.00941e-08
1.00936e-08
1.00928e-08
1.00921e-08
1.00915e-08
1.00909e-08
1.00905e-08
1.009e-08
1.00895e-08
1.00891e-08
1.00887e-08
1.00884e-08
1.00881e-08
1.00879e-08
1.00878e-08
1.00877e-08
1.00875e-08
1.00873e-08
1.00872e-08
1.00873e-08
1.00873e-08
1.00873e-08
1.00873e-08
1.00871e-08
1.00869e-08
1.00867e-08
1.00865e-08
1.00862e-08
1.0086e-08
1.00857e-08
1.00854e-08
1.00851e-08
1.00848e-08
1.00843e-08
1.00839e-08
1.00834e-08
1.0083e-08
1.00825e-08
1.0082e-08
1.00815e-08
1.00809e-08
1.00803e-08
1.00798e-08
1.00793e-08
1.00789e-08
1.00784e-08
1.00778e-08
1.00774e-08
1.00769e-08
1.00765e-08
1.0076e-08
1.00756e-08
1.00752e-08
1.00747e-08
1.00743e-08
1.00739e-08
1.00735e-08
1.00731e-08
1.00727e-08
1.00723e-08
1.00718e-08
1.00714e-08
1.0071e-08
1.00706e-08
1.00702e-08
1.00698e-08
1.00694e-08
1.0069e-08
1.00687e-08
1.00683e-08
1.0068e-08
1.00676e-08
1.00673e-08
1.00669e-08
1.00664e-08
1.00659e-08
1.00654e-08
1.00648e-08
1.0064e-08
1.00632e-08
1.00626e-08
1.00622e-08
1.00616e-08
1.00609e-08
1.00601e-08
1.00594e-08
1.00588e-08
1.00586e-08
1.00585e-08
1.00581e-08
1.00577e-08
1.0058e-08
1.00593e-08
1.00584e-08
1.00593e-08
1.00581e-08
1.00598e-08
1.00606e-08
1.00604e-08
1.00607e-08
1.00608e-08
1.00609e-08
1.00615e-08
1.00624e-08
1.00631e-08
1.00644e-08
1.00662e-08
1.00675e-08
1.00674e-08
1.00664e-08
1.00655e-08
1.00648e-08
1.00643e-08
1.00642e-08
1.00632e-08
1.00619e-08
1.00624e-08
1.00615e-08
1.00611e-08
1.00617e-08
1.00631e-08
1.00644e-08
1.00661e-08
1.00681e-08
1.00702e-08
1.00725e-08
1.00725e-08
1.0071e-08
1.0067e-08
1.00637e-08
1.00616e-08
1.00597e-08
1.00585e-08
1.00576e-08
1.00571e-08
1.00574e-08
1.00579e-08
1.00588e-08
1.00596e-08
1.00625e-08
1.00655e-08
1.00689e-08
1.00757e-08
1.00894e-08
1.01101e-08
1.0137e-08
1.01654e-08
1.0173e-08
1.01681e-08
1.01639e-08
1.01565e-08
1.01412e-08
1.01434e-08
1.01213e-08
1.00953e-08
1.00924e-08
1.00804e-08
1.00734e-08
1.00711e-08
1.00692e-08
1.00676e-08
1.00663e-08
1.00652e-08
1.0064e-08
1.00627e-08
1.00615e-08
1.00604e-08
1.00595e-08
1.00587e-08
1.00581e-08
1.00575e-08
1.00571e-08
1.00568e-08
1.00566e-08
1.00564e-08
1.00563e-08
1.00563e-08
1.00563e-08
1.00562e-08
1.00563e-08
1.00564e-08
1.00565e-08
1.00567e-08
1.00568e-08
1.00569e-08
1.00571e-08
1.00572e-08
1.00573e-08
1.00575e-08
1.00576e-08
1.00577e-08
1.00577e-08
1.00577e-08
1.00576e-08
1.00576e-08
1.00576e-08
1.00576e-08
1.00577e-08
1.00577e-08
1.00578e-08
1.00578e-08
1.00579e-08
1.0058e-08
1.0058e-08
1.00581e-08
1.00581e-08
1.00581e-08
1.00582e-08
1.00582e-08
1.00581e-08
1.00581e-08
1.0058e-08
1.0058e-08
1.0058e-08
1.00579e-08
1.00578e-08
1.00578e-08
1.00577e-08
1.00576e-08
1.00575e-08
1.00574e-08
1.00574e-08
1.00574e-08
1.00573e-08
1.00573e-08
1.00573e-08
1.00572e-08
1.00572e-08
1.00571e-08
1.00571e-08
1.00572e-08
1.00573e-08
1.00576e-08
1.00581e-08
1.0058e-08
1.00531e-08
1.00328e-08
1.0388e-08
1.13788e-08
1.2475e-08
1.28259e-08
1.23178e-08
1.17276e-08
1.13759e-08
1.12546e-08
1.13844e-08
1.19107e-08
1.32171e-08
1.5909e-08
2.06384e-08
2.85126e-08
4.0599e-08
5.63696e-08
7.26167e-08
8.30465e-08
1.01409e-07
1.33504e-07
1.79986e-07
2.33462e-07
2.9064e-07
3.52059e-07
4.2048e-07
5.09934e-07
6.4588e-07
6.96026e-07
6.84053e-07
7.14118e-07
7.57713e-07
7.71109e-07
7.51487e-07
7.07807e-07
6.4576e-07
5.59448e-07
4.55511e-07
3.38979e-07
2.14154e-07
1.24336e-07
7.58284e-08
5.47679e-08
4.67717e-08
4.25318e-08
3.67734e-08
3.00451e-08
2.58988e-08
2.47962e-08
2.5504e-08
2.55539e-08
2.35918e-08
2.03091e-08
1.75795e-08
1.59225e-08
1.50919e-08
1.48036e-08
1.47975e-08
1.49126e-08
1.49328e-08
1.49105e-08
1.51027e-08
1.59064e-08
1.71601e-08
1.83272e-08
1.85291e-08
1.7849e-08
1.67369e-08
1.56505e-08
1.50748e-08
1.52346e-08
1.59831e-08
1.71995e-08
1.90374e-08
2.15799e-08
2.5146e-08
3.02192e-08
3.68385e-08
4.49068e-08
5.51167e-08
6.77259e-08
8.20332e-08
9.70118e-08
1.11594e-07
1.27064e-07
1.40968e-07
1.53772e-07
1.78705e-07
2.04739e-07
2.1856e-07
2.17442e-07
2.16747e-07
2.0366e-07
1.60878e-07
1.36116e-07
9.86232e-08
7.41772e-08
5.43024e-08
4.24711e-08
3.5672e-08
3.27984e-08
3.1417e-08
2.95375e-08
2.73124e-08
2.47421e-08
2.2316e-08
2.03397e-08
1.86983e-08
1.74469e-08
1.65841e-08
1.59742e-08
1.55307e-08
1.51006e-08
1.46831e-08
1.41494e-08
1.35614e-08
1.29591e-08
1.23688e-08
1.1821e-08
1.13649e-08
1.10372e-08
1.08779e-08
1.07607e-08
1.067e-08
1.06147e-08
1.05877e-08
1.05738e-08
1.05746e-08
1.05723e-08
1.05442e-08
1.04813e-08
1.04142e-08
1.03638e-08
1.03177e-08
1.02836e-08
1.02613e-08
1.02461e-08
1.02327e-08
1.02217e-08
1.02145e-08
1.02093e-08
1.02057e-08
1.02036e-08
1.02019e-08
1.02011e-08
1.02011e-08
1.02015e-08
1.02021e-08
1.02027e-08
1.02032e-08
1.02041e-08
1.02055e-08
1.02071e-08
1.02087e-08
1.02101e-08
1.02115e-08
1.02132e-08
1.02151e-08
1.02171e-08
1.0219e-08
1.02205e-08
1.02217e-08
1.02227e-08
1.02238e-08
1.02249e-08
1.02261e-08
1.02269e-08
1.02273e-08
1.02271e-08
1.02269e-08
1.02268e-08
1.02264e-08
1.02255e-08
1.02237e-08
1.02216e-08
1.02194e-08
1.02172e-08
1.02151e-08
1.02128e-08
1.02096e-08
1.02057e-08
1.02013e-08
1.01968e-08
1.01925e-08
1.01886e-08
1.01848e-08
1.01812e-08
1.01773e-08
1.01731e-08
1.01688e-08
1.01646e-08
1.01608e-08
1.01572e-08
1.01539e-08
1.01506e-08
1.01473e-08
1.01439e-08
1.01408e-08
1.0138e-08
1.01354e-08
1.01329e-08
1.01303e-08
1.01277e-08
1.01253e-08
1.0123e-08
1.01208e-08
1.01188e-08
1.01167e-08
1.01148e-08
1.0113e-08
1.01112e-08
1.01095e-08
1.01078e-08
1.01061e-08
1.01045e-08
1.0103e-08
1.01016e-08
1.01003e-08
1.0099e-08
1.00977e-08
1.00964e-08
1.00952e-08
1.00941e-08
1.0093e-08
1.00919e-08
1.0091e-08
1.00901e-08
1.00892e-08
1.00883e-08
1.00875e-08
1.00866e-08
1.00859e-08
1.00851e-08
1.00845e-08
1.00838e-08
1.00832e-08
1.00826e-08
1.00821e-08
1.00816e-08
1.00811e-08
1.00806e-08
1.00802e-08
1.00798e-08
1.00795e-08
1.00791e-08
1.00788e-08
1.00785e-08
1.00783e-08
1.0078e-08
1.00778e-08
1.00777e-08