/*--------------------------------*- C++ -*----------------------------------*\
| =========                 |                                                 |
| \\      /  F ield         | OpenFOAM: The Open Source CFD Toolbox           |
|  \\    /   O peration     | Version:  v2006                                 |
|   \\  /    A nd           | Website:  www.openfoam.com                      |
|    \\/     M anipulation  |                                                 |
\*---------------------------------------------------------------------------*/
FoamFile
{
    version     2.0;
    format      ascii;
    class       volScalarField;
    location    "9";
    object      nut;
}
// * * * * * * * * * * * * * * * * * * * * * * * * * * * * * * * * * * * * * //

dimensions      [0 2 -1 0 0 0 0];


internalField   nonuniform List<scalar> 
33000
(
6.29779e-09
1.06136e-08
9.72601e-09
6.4854e-09
7.97062e-09
6.4466e-09
4.03235e-09
3.05029e-09
2.51194e-09
2.12777e-09
1.92612e-09
1.85889e-09
1.84013e-09
1.81249e-09
1.75814e-09
1.66519e-09
1.55276e-09
1.5101e-09
1.53361e-09
1.61031e-09
1.81344e-09
2.30623e-09
3.48758e-09
5.66976e-09
8.30542e-09
1.06618e-08
1.28761e-08
1.45613e-08
1.5601e-08
1.66893e-08
1.7995e-08
1.87189e-08
1.97318e-08
2.37915e-08
3.40148e-08
5.54348e-08
8.35188e-08
1.06689e-07
1.36414e-07
1.62619e-07
1.65255e-07
1.61267e-07
1.6325e-07
1.79259e-07
2.10515e-07
2.17464e-07
2.03735e-07
1.95671e-07
1.96288e-07
2.17387e-07
2.52916e-07
2.51452e-07
2.31737e-07
2.20925e-07
2.12631e-07
2.0704e-07
2.0622e-07
2.0972e-07
2.16046e-07
2.31298e-07
2.59688e-07
2.90151e-07
3.15089e-07
3.36717e-07
3.66973e-07
4.03232e-07
4.06425e-07
3.28514e-07
2.48586e-07
2.03708e-07
1.77448e-07
1.59374e-07
1.44713e-07
1.29679e-07
1.07505e-07
8.76969e-08
7.23774e-08
6.85793e-08
1.12239e-07
1.64727e-07
1.3884e-07
1.82518e-07
1.75365e-07
3.06506e-07
3.75386e-07
5.37094e-07
6.12515e-07
7.92508e-07
7.01526e-07
8.14322e-07
8.26025e-07
8.70549e-07
8.76701e-07
6.8136e-07
4.36132e-07
2.72367e-07
1.95535e-07
1.45545e-07
1.15807e-07
1.11512e-07
1.25784e-07
1.33645e-07
1.39674e-07
1.36408e-07
1.26615e-07
1.28317e-07
1.33248e-07
1.41008e-07
1.48916e-07
1.6007e-07
1.62688e-07
1.64059e-07
1.69151e-07
1.74053e-07
1.73736e-07
1.6746e-07
1.51878e-07
1.46807e-07
1.58985e-07
1.74217e-07
1.93094e-07
2.0341e-07
2.08047e-07
2.28873e-07
2.55728e-07
2.95559e-07
3.48321e-07
3.95179e-07
4.4432e-07
5.18267e-07
6.15019e-07
6.53679e-07
6.56391e-07
6.58203e-07
6.59932e-07
6.61889e-07
6.64184e-07
5.85013e-07
5.12453e-07
4.51542e-07
4.02175e-07
3.63313e-07
3.32364e-07
3.07642e-07
2.86707e-07
2.67887e-07
2.51236e-07
2.3622e-07
2.23319e-07
2.12947e-07
2.03489e-07
1.94367e-07
1.85892e-07
1.78299e-07
1.71501e-07
1.65267e-07
1.59511e-07
1.54047e-07
1.48897e-07
1.44096e-07
1.39651e-07
1.35505e-07
1.31611e-07
1.27917e-07
1.24302e-07
1.20808e-07
1.17575e-07
1.14561e-07
1.11676e-07
1.08872e-07
1.06138e-07
1.03579e-07
1.01212e-07
9.8962e-08
9.68848e-08
9.50085e-08
9.32344e-08
9.15529e-08
9.00025e-08
8.85025e-08
8.70956e-08
8.58308e-08
8.46664e-08
8.36687e-08
8.28175e-08
8.20072e-08
8.12278e-08
8.05267e-08
7.99828e-08
7.96158e-08
7.93711e-08
7.91932e-08
7.90469e-08
7.89582e-08
7.89925e-08
7.92297e-08
7.9753e-08
8.05796e-08
8.15352e-08
8.24944e-08
8.3487e-08
8.4714e-08
8.63598e-08
8.8326e-08
9.04834e-08
9.27372e-08
9.50479e-08
9.76323e-08
1.00794e-07
1.04419e-07
1.07984e-07
1.11138e-07
1.14838e-07
1.19456e-07
1.24483e-07
1.30045e-07
1.36265e-07
1.42175e-07
1.47735e-07
1.53884e-07
1.61093e-07
1.69374e-07
1.78259e-07
1.88332e-07
1.98279e-07
2.07494e-07
2.17307e-07
2.28071e-07
2.40341e-07
2.53926e-07
2.69377e-07
2.84713e-07
2.97954e-07
3.12044e-07
3.27855e-07
3.45847e-07
3.65817e-07
3.86423e-07
4.06897e-07
4.28168e-07
4.51428e-07
4.62572e-07
4.62535e-07
4.62139e-07
4.61557e-07
4.60944e-07
4.60272e-07
4.59585e-07
4.58622e-07
4.57052e-07
4.55282e-07
4.53585e-07
4.51852e-07
4.50043e-07
4.48101e-07
4.45839e-07
4.43359e-07
4.40789e-07
4.38177e-07
4.35516e-07
4.32717e-07
4.29778e-07
4.26694e-07
4.2351e-07
4.20319e-07
4.1716e-07
4.13965e-07
4.10554e-07
4.06899e-07
4.03184e-07
3.99519e-07
3.95855e-07
3.92153e-07
3.88424e-07
3.84632e-07
3.80655e-07
3.76537e-07
3.7237e-07
3.68193e-07
3.63989e-07
3.59751e-07
3.55496e-07
3.51215e-07
3.4681e-07
3.42246e-07
3.37632e-07
3.33013e-07
3.28359e-07
3.23649e-07
3.18888e-07
3.02791e-07
2.81688e-07
2.62245e-07
2.44217e-07
2.27694e-07
2.12573e-07
1.98618e-07
1.85969e-07
1.74401e-07
1.63669e-07
1.5375e-07
1.44535e-07
1.3597e-07
1.28081e-07
1.20787e-07
1.13966e-07
1.07559e-07
1.01589e-07
9.60773e-08
9.1e-08
8.6312e-08
8.19762e-08
7.79951e-08
7.43523e-08
7.10209e-08
6.79676e-08
6.51661e-08
6.26068e-08
6.02806e-08
5.81736e-08
5.62741e-08
5.45699e-08
5.30446e-08
5.16869e-08
5.04867e-08
4.94314e-08
4.85072e-08
4.77056e-08
4.70202e-08
4.644e-08
4.59505e-08
4.55427e-08
4.52103e-08
4.49519e-08
4.47654e-08
4.46421e-08
4.45688e-08
4.4538e-08
4.45474e-08
4.45926e-08
4.4671e-08
4.47805e-08
4.49202e-08
4.50893e-08
4.52882e-08
4.55141e-08
4.57646e-08
4.60406e-08
4.63421e-08
4.66695e-08
4.7023e-08
4.74026e-08
4.78066e-08
4.82327e-08
4.86799e-08
4.91507e-08
4.96451e-08
5.01673e-08
5.07175e-08
5.12914e-08
5.18918e-08
5.25206e-08
5.31787e-08
5.38645e-08
5.45849e-08
5.53473e-08
5.61526e-08
5.69954e-08
5.78687e-08
5.87781e-08
5.97499e-08
6.07864e-08
6.18685e-08
6.29907e-08
6.41647e-08
6.54037e-08
6.67164e-08
6.80939e-08
6.95533e-08
7.11153e-08
7.27749e-08
7.44885e-08
7.62862e-08
7.82124e-08
8.02779e-08
8.2481e-08
8.48474e-08
8.73731e-08
9.00644e-08
9.29462e-08
9.61047e-08
9.95383e-08
1.03255e-07
1.07233e-07
1.10122e-07
1.08863e-07
1.07616e-07
1.06383e-07
1.05167e-07
1.03961e-07
1.0277e-07
1.01595e-07
1.00441e-07
9.93124e-08
9.82179e-08
9.71546e-08
9.61201e-08
9.51097e-08
9.41336e-08
9.32137e-08
9.23189e-08
9.14702e-08
9.06212e-08
8.98106e-08
8.90307e-08
8.82573e-08
8.75223e-08
8.67451e-08
8.59176e-08
8.51878e-08
8.45029e-08
8.36742e-08
8.30454e-08
8.18747e-08
8.05091e-08
7.99223e-08
7.94272e-08
7.81396e-08
7.92872e-08
8.06268e-08
8.49293e-08
8.61513e-08
8.84669e-08
8.93096e-08
9.02705e-08
9.04438e-08
8.88971e-08
8.65467e-08
8.43157e-08
8.33589e-08
8.03259e-08
7.80695e-08
7.82685e-08
7.39048e-08
7.54682e-08
7.62137e-08
7.23094e-08
6.41367e-08
6.05685e-08
6.44553e-08
6.8656e-08
6.93084e-08
6.99028e-08
7.14389e-08
7.10989e-08
7.24604e-08
7.14397e-08
7.29031e-08
7.1661e-08
7.20002e-08
7.49394e-08
7.59284e-08
7.09802e-08
7.12563e-08
5.86568e-08
5.65901e-08
5.55737e-08
5.85808e-08
4.26476e-08
3.904e-08
4.23537e-08
5.21047e-08
5.88023e-08
6.73895e-08
7.52434e-08
8.13156e-08
8.60306e-08
9.0397e-08
9.47621e-08
9.86659e-08
1.01102e-07
1.03012e-07
1.0468e-07
1.06164e-07
1.07828e-07
1.0896e-07
1.09244e-07
1.09485e-07
1.09978e-07
1.10231e-07
1.10006e-07
1.09678e-07
1.09674e-07
1.09707e-07
1.09205e-07
1.08313e-07
1.07379e-07
1.06507e-07
1.05667e-07
1.04621e-07
1.03563e-07
1.02599e-07
1.0142e-07
9.99161e-08
9.8239e-08
9.66488e-08
9.52364e-08
9.39634e-08
9.26781e-08
9.13506e-08
8.99347e-08
8.84457e-08
8.70718e-08
8.56875e-08
8.42275e-08
8.28296e-08
8.15371e-08
8.02773e-08
7.89999e-08
7.76892e-08
7.63381e-08
7.49835e-08
7.36569e-08
7.23742e-08
7.11464e-08
6.9964e-08
6.88151e-08
6.76908e-08
6.65908e-08
6.5515e-08
6.4464e-08
6.34471e-08
6.2466e-08
6.15323e-08
6.05955e-08
5.97142e-08
5.87654e-08
5.79939e-08
5.70757e-08
5.6412e-08
5.54386e-08
5.48868e-08
5.42714e-08
5.32566e-08
5.21478e-08
5.29297e-08
4.85291e-08
5.3579e-08
3.75706e-08
3.06457e-08
5.75796e-09
7.32558e-09
1.39959e-08
3.39941e-08
3.09375e-08
1.38451e-08
6.60968e-09
4.91101e-09
4.03955e-09
3.81818e-09
4.32389e-09
5.68685e-09
6.93055e-09
7.28786e-09
7.87951e-09
9.39169e-09
1.1941e-08
1.66176e-08
2.73697e-08
4.12055e-08
4.69221e-08
6.01445e-08
8.83414e-08
1.26403e-07
1.72631e-07
2.27488e-07
2.86227e-07
3.37595e-07
3.76057e-07
4.14807e-07
4.87023e-07
5.70831e-07
6.43522e-07
7.1259e-07
7.92154e-07
8.75653e-07
9.15885e-07
8.39643e-07
7.78657e-07
8.19117e-07
7.06372e-07
6.60418e-07
6.96096e-07
7.26126e-07
6.63432e-07
5.4564e-07
4.8895e-07
5.15553e-07
5.15102e-07
6.11043e-07
4.37209e-07
3.32095e-07
3.24416e-07
2.67101e-07
2.35365e-07
2.38539e-07
2.29633e-07
2.26371e-07
3.63839e-07
5.70856e-07
5.94834e-07
5.70578e-07
3.50577e-07
2.35792e-07
1.98137e-07
1.82188e-07
1.60818e-07
1.64483e-07
1.64437e-07
1.71446e-07
1.84877e-07
2.03332e-07
2.22451e-07
2.37704e-07
2.47281e-07
2.54569e-07
2.63159e-07
3.01328e-07
3.12939e-07
3.06706e-07
3.39153e-07
3.66241e-07
3.62634e-07
3.58445e-07
3.4782e-07
3.29628e-07
3.14551e-07
2.9719e-07
2.58285e-07
2.2155e-07
1.98576e-07
1.91799e-07
1.99171e-07
2.13697e-07
2.27308e-07
2.40241e-07
2.50552e-07
2.57519e-07
2.55187e-07
2.53707e-07
2.39844e-07
2.23018e-07
1.95692e-07
1.65754e-07
1.63985e-07
1.48044e-07
9.78243e-08
7.38536e-08
5.5518e-08
6.10592e-08
9.61691e-08
9.9912e-08
8.18331e-08
7.6554e-08
7.15052e-08
7.82621e-08
8.45026e-08
1.17899e-07
1.11606e-07
1.04371e-07
1.58701e-07
9.36239e-08
8.7029e-08
7.21727e-08
6.1404e-08
5.16244e-08
5.35374e-08
5.96965e-08
6.08594e-08
6.18946e-08
6.08325e-08
5.92504e-08
5.96875e-08
6.12721e-08
6.19105e-08
6.33793e-08
6.52367e-08
6.63758e-08
6.7162e-08
6.85224e-08
7.02424e-08
7.18137e-08
7.39538e-08
7.57326e-08
7.69092e-08
7.77079e-08
7.99892e-08
8.37258e-08
8.77939e-08
9.01191e-08
9.15618e-08
9.33022e-08
9.73371e-08
1.03889e-07
1.08811e-07
1.11373e-07
1.13629e-07
1.17702e-07
1.23102e-07
1.30197e-07
1.3918e-07
1.47439e-07
1.5482e-07
1.60764e-07
1.66821e-07
1.76838e-07
1.87877e-07
1.87231e-07
1.86923e-07
1.86841e-07
1.8671e-07
1.86376e-07
1.86092e-07
1.86076e-07
1.86294e-07
1.86743e-07
1.87318e-07
1.87848e-07
1.88367e-07
1.88948e-07
1.89607e-07
1.90398e-07
1.913e-07
1.92313e-07
1.93382e-07
1.94435e-07
1.95449e-07
1.9644e-07
1.97463e-07
1.98525e-07
1.99556e-07
2.0053e-07
2.0145e-07
2.023e-07
1.97089e-07
1.73937e-07
1.59429e-07
1.50872e-07
1.43202e-07
1.34614e-07
1.2421e-07
1.14399e-07
1.0787e-07
1.03651e-07
1.00234e-07
9.49522e-08
8.98635e-08
8.65108e-08
8.50666e-08
8.50201e-08
8.39677e-08
8.0766e-08
7.67637e-08
7.43546e-08
7.3746e-08
7.38341e-08
7.47369e-08
7.61972e-08
7.61435e-08
7.50928e-08
7.30438e-08
7.28649e-08
7.38139e-08
7.47796e-08
7.67715e-08
7.91681e-08
8.13041e-08
8.16201e-08
8.13871e-08
8.24973e-08
8.51627e-08
9.02805e-08
9.45368e-08
9.53069e-08
9.49865e-08
9.61983e-08
9.9122e-08
1.03804e-07
1.12282e-07
1.22705e-07
1.2962e-07
1.31535e-07
1.3021e-07
1.32656e-07
1.39739e-07
1.48032e-07
1.58547e-07
1.70065e-07
1.79243e-07
1.81727e-07
1.79116e-07
1.82146e-07
1.94948e-07
2.04324e-07
2.08218e-07
2.05224e-07
2.0189e-07
2.03004e-07
2.11717e-07
2.26263e-07
2.21781e-07
2.04791e-07
1.96627e-07
1.9472e-07
1.93032e-07
1.94264e-07
1.99515e-07
1.97144e-07
1.86887e-07
1.76422e-07
1.70692e-07
1.68236e-07
1.6676e-07
1.63403e-07
1.58603e-07
1.54902e-07
1.51704e-07
1.48468e-07
1.43677e-07
1.38638e-07
1.33824e-07
1.30837e-07
1.30111e-07
1.2814e-07
1.23995e-07
1.19519e-07
1.16713e-07
1.14997e-07
1.12824e-07
1.10218e-07
1.08205e-07
1.06098e-07
1.03965e-07
1.02429e-07
1.01059e-07
9.9306e-08
9.74149e-08
9.58238e-08
9.49093e-08
9.47002e-08
9.40741e-08
9.27095e-08
9.15216e-08
9.10839e-08
9.13042e-08
9.14273e-08
9.08232e-08
9.02785e-08
9.06084e-08
9.14936e-08
9.21138e-08
9.26359e-08
9.35633e-08
9.51175e-08
9.73812e-08
9.96449e-08
1.01699e-07
1.0417e-07
1.07396e-07
1.11401e-07
1.16225e-07
1.21673e-07
1.278e-07
1.34976e-07
1.43514e-07
1.53664e-07
1.65936e-07
1.81036e-07
1.89329e-07
1.89077e-07
1.88844e-07
1.88532e-07
1.88121e-07
1.87688e-07
1.87397e-07
1.87348e-07
1.87462e-07
1.87549e-07
1.87579e-07
1.87614e-07
1.87708e-07
1.87874e-07
1.88078e-07
1.88267e-07
1.88434e-07
1.88663e-07
1.88982e-07
1.8935e-07
1.89691e-07
1.89964e-07
1.84539e-07
1.73037e-07
1.63356e-07
1.5508e-07
1.47743e-07
1.41201e-07
1.35197e-07
1.29665e-07
1.2519e-07
1.21319e-07
1.17701e-07
1.14321e-07
1.1124e-07
1.0844e-07
1.05935e-07
1.03766e-07
1.0176e-07
9.98741e-08
9.80869e-08
9.62172e-08
9.45541e-08
9.34405e-08
9.25467e-08
9.17261e-08
9.0813e-08
8.97148e-08
8.87864e-08
8.81525e-08
8.77656e-08
8.75481e-08
8.70623e-08
8.65796e-08
8.62268e-08
8.59131e-08
8.57225e-08
8.57958e-08
8.58298e-08
8.58906e-08
8.59522e-08
8.61795e-08
8.6579e-08
8.69999e-08
8.73303e-08
8.7657e-08
8.81591e-08
8.89335e-08
8.98713e-08
9.08492e-08
9.14872e-08
9.19492e-08
9.26089e-08
9.43578e-08
9.55047e-08
9.69852e-08
9.75505e-08
9.97424e-08
1.00141e-07
1.03042e-07
1.02488e-07
1.01927e-07
1.04043e-07
1.04789e-07
1.10951e-07
1.13639e-07
1.26981e-07
1.22994e-07
1.10277e-07
1.1631e-07
1.1423e-07
1.38702e-07
2.41796e-07
2.39411e-07
7.31788e-08
7.49062e-08
5.28106e-08
4.01237e-08
2.74961e-08
3.37226e-08
6.13645e-08
7.20905e-08
7.29515e-08
7.31373e-08
1.12633e-07
1.01278e-07
1.3096e-07
1.41214e-07
1.58644e-07
1.5372e-07
2.22014e-07
1.85529e-07
9.52451e-08
1.88224e-07
1.4913e-07
1.69758e-07
9.62005e-08
2.26439e-07
7.81322e-08
1.26393e-07
2.46986e-07
2.87564e-07
1.54892e-07
3.15566e-07
2.87541e-07
3.13141e-07
3.05776e-07
2.96109e-07
2.87082e-07
2.80953e-07
2.75337e-07
1.11496e-07
1.25398e-07
5.28688e-08
4.92626e-08
3.05684e-08
3.08958e-08
1.39769e-08
2.08162e-08
9.85341e-08
6.23488e-08
3.09747e-08
8.1342e-08
9.42663e-08
8.64323e-08
6.84532e-08
7.29888e-08
8.74662e-08
1.3726e-07
2.11465e-07
2.35186e-07
2.43396e-07
2.48249e-07
2.51429e-07
2.52778e-07
2.53214e-07
2.52088e-07
2.4975e-07
2.47723e-07
2.46424e-07
2.44801e-07
2.42867e-07
2.41251e-07
2.4024e-07
2.3917e-07
2.3748e-07
2.35532e-07
2.3407e-07
2.2532e-07
2.09829e-07
2.01473e-07
1.97093e-07
1.83886e-07
1.67494e-07
1.55627e-07
1.50147e-07
1.50176e-07
1.48955e-07
1.46606e-07
1.42132e-07
1.38225e-07
1.35833e-07
1.3575e-07
1.36723e-07
1.34995e-07
1.32232e-07
1.30288e-07
1.28239e-07
1.25681e-07
1.23521e-07
1.22267e-07
1.21825e-07
1.21794e-07
1.21324e-07
1.20404e-07
1.19413e-07
1.18845e-07
1.18847e-07
1.18936e-07
1.18937e-07
1.18775e-07
1.18874e-07
1.19566e-07
1.20267e-07
1.20555e-07
1.19619e-07
1.20302e-07
1.19736e-07
1.24278e-07
1.21895e-07
1.23753e-07
1.19453e-07
1.23584e-07
1.41602e-07
1.17695e-07
9.36549e-08
1.68935e-07
5.4488e-08
6.2788e-08
2.90925e-08
1.3932e-07
1.39416e-07
5.27994e-09
1.08497e-08
3.15999e-08
3.79111e-08
2.28829e-08
9.55741e-09
6.27451e-09
4.72014e-09
3.94201e-09
3.98867e-09
4.86509e-09
9.76954e-09
1.12474e-08
1.28384e-08
1.78228e-08
2.87977e-08
5.1775e-08
7.78833e-08
7.11734e-08
6.97861e-08
7.70484e-08
9.66709e-08
1.33607e-07
1.96319e-07
2.96372e-07
4.2909e-07
5.64251e-07
6.58287e-07
7.10088e-07
7.47236e-07
7.77561e-07
7.88925e-07
7.95774e-07
8.16523e-07
8.45912e-07
8.65918e-07
8.51452e-07
8.06119e-07
7.15866e-07
5.82716e-07
4.58741e-07
3.97538e-07
3.99217e-07
4.04938e-07
3.64562e-07
2.93854e-07
2.49495e-07
2.51258e-07
2.80828e-07
2.93398e-07
2.58777e-07
1.78587e-07
1.44239e-07
1.30651e-07
1.22406e-07
1.15473e-07
1.17143e-07
1.68232e-07
1.99718e-07
2.21297e-07
2.24756e-07
2.2208e-07
2.19648e-07
2.03383e-07
1.52944e-07
1.15734e-07
9.14035e-08
1.04384e-07
1.2645e-07
1.33437e-07
1.43913e-07
1.56702e-07
1.71062e-07
1.82494e-07
1.92409e-07
2.01892e-07
2.13806e-07
2.27563e-07
2.42828e-07
2.5775e-07
2.8261e-07
2.98567e-07
3.05795e-07
3.18618e-07
3.28748e-07
3.09066e-07
2.86573e-07
2.58771e-07
2.31809e-07
2.00905e-07
1.773e-07
1.56301e-07
1.40773e-07
1.35365e-07
1.38889e-07
1.46901e-07
1.57364e-07
1.61879e-07
1.60198e-07
1.56299e-07
1.54753e-07
1.43475e-07
1.31062e-07
1.17194e-07
1.04295e-07
9.13849e-08
7.99212e-08
7.4001e-08
7.20264e-08
6.03689e-08
3.64464e-08
2.28895e-08
2.2623e-08
3.41414e-08
2.64192e-08
2.09918e-08
2.01654e-08
2.12414e-08
2.66912e-08
3.62662e-08
6.6608e-08
4.55886e-08
3.04153e-08
3.78318e-08
2.74807e-08
2.53727e-08
2.18753e-08
1.96035e-08
1.59209e-08
1.73192e-08
2.04778e-08
2.10155e-08
2.18936e-08
2.10248e-08
2.05044e-08
2.00169e-08
2.04666e-08
2.18543e-08
2.25386e-08
2.40509e-08
2.42619e-08
2.46949e-08
2.55884e-08
2.62125e-08
2.65592e-08
2.74107e-08
2.87169e-08
3.04264e-08
3.17481e-08
3.23047e-08
3.2942e-08
3.41317e-08
3.59536e-08
3.84651e-08
4.05381e-08
4.1685e-08
4.25383e-08
4.4163e-08
4.63364e-08
4.88428e-08
5.23351e-08
5.58553e-08
5.85052e-08
6.08854e-08
6.42873e-08
6.79664e-08
7.1949e-08
7.94374e-08
8.72191e-08
9.33043e-08
9.98837e-08
1.05461e-07
1.16929e-07
1.3635e-07
1.58067e-07
1.87151e-07
2.12453e-07
2.27392e-07
2.54688e-07
2.89198e-07
2.95813e-07
3.00657e-07
3.05594e-07
3.10247e-07
3.14752e-07
2.53166e-07
2.05959e-07
1.77025e-07
1.50355e-07
1.2625e-07
1.09553e-07
9.86667e-08
9.14463e-08
8.61385e-08
8.01951e-08
7.26258e-08
6.65717e-08
6.15763e-08
5.70528e-08
5.43076e-08
5.20377e-08
4.9897e-08
4.77146e-08
4.53263e-08
4.3111e-08
4.08081e-08
3.95601e-08
3.95424e-08
3.99e-08
3.93306e-08
3.74508e-08
3.62981e-08
3.61946e-08
3.61304e-08
3.62183e-08
3.68473e-08
3.72201e-08
3.69508e-08
3.68988e-08
3.72975e-08
3.81392e-08
3.93449e-08
4.03538e-08
4.03156e-08
3.98987e-08
4.13058e-08
4.3309e-08
4.56366e-08
4.78477e-08
4.89715e-08
5.01169e-08
5.15137e-08
5.36739e-08
5.48691e-08
5.61331e-08
5.89711e-08
6.18141e-08
6.64405e-08
7.32195e-08
7.8393e-08
7.9714e-08
7.74825e-08
7.77228e-08
8.30611e-08
9.26917e-08
1.02638e-07
1.11238e-07
1.11782e-07
1.05428e-07
1.06238e-07
1.13115e-07
1.21836e-07
1.36971e-07
1.42234e-07
1.2911e-07
1.21342e-07
1.21622e-07
1.26816e-07
1.39468e-07
1.46486e-07
1.3859e-07
1.25161e-07
1.20039e-07
1.21554e-07
1.22442e-07
1.19833e-07
1.16353e-07
1.14289e-07
1.10053e-07
1.06222e-07
1.03832e-07
1.02805e-07
1.03265e-07
9.97343e-08
9.22981e-08
8.77112e-08
8.64669e-08
8.70823e-08
8.69296e-08
8.43185e-08
8.07486e-08
7.83301e-08
7.63877e-08
7.38433e-08
7.21787e-08
7.1204e-08
7.04842e-08
6.98139e-08
6.85141e-08
6.62565e-08
6.42668e-08
6.30717e-08
6.25558e-08
6.25982e-08
6.2353e-08
6.13505e-08
6.00803e-08
5.90729e-08
5.86701e-08
5.89362e-08
5.92448e-08
5.88903e-08
5.83159e-08
5.83086e-08
5.90038e-08
5.96245e-08
5.95711e-08
5.94424e-08
6.00753e-08
6.1323e-08
6.23541e-08
6.31222e-08
6.40203e-08
6.53607e-08
6.74893e-08
6.96682e-08
7.14025e-08
7.33616e-08
7.59294e-08
7.91004e-08
8.29333e-08
8.71084e-08
9.15678e-08
9.66383e-08
1.0261e-07
1.09714e-07
1.18239e-07
1.28716e-07
1.4141e-07
1.56296e-07
1.73865e-07
1.95386e-07
2.23139e-07
2.59715e-07
3.06476e-07
3.68319e-07
4.41316e-07
4.94265e-07
4.9658e-07
4.52058e-07
3.8842e-07
3.2892e-07
2.79847e-07
2.41969e-07
2.15317e-07
1.95816e-07
1.78456e-07
1.63277e-07
1.50528e-07
1.39734e-07
1.30527e-07
1.2276e-07
1.16499e-07
1.11301e-07
1.06551e-07
1.02259e-07
9.8119e-08
9.4354e-08
9.17275e-08
8.93832e-08
8.70105e-08
8.48164e-08
8.28214e-08
8.11817e-08
7.98379e-08
7.85952e-08
7.72498e-08
7.59551e-08
7.50514e-08
7.42361e-08
7.32821e-08
7.2477e-08
7.20032e-08
7.18687e-08
7.15473e-08
7.09586e-08
7.04759e-08
7.04267e-08
7.06099e-08
7.07359e-08
7.05783e-08
7.03836e-08
7.03229e-08
7.02518e-08
7.03896e-08
7.09311e-08
7.14525e-08
7.16821e-08
7.19223e-08
7.22559e-08
7.31817e-08
7.38397e-08
7.43866e-08
7.46534e-08
7.53504e-08
7.62746e-08
7.78612e-08
7.90509e-08
8.02687e-08
8.0515e-08
8.10409e-08
8.20257e-08
8.43732e-08
8.61107e-08
8.83084e-08
8.89941e-08
8.70835e-08
8.83873e-08
8.75023e-08
9.29797e-08
9.67543e-08
1.05634e-07
1.03301e-07
9.24598e-08
9.74071e-08
9.49394e-08
1.14014e-07
3.05749e-07
1.86741e-07
6.2457e-08
6.2185e-08
4.36187e-08
3.30462e-08
2.32566e-08
2.83505e-08
4.7044e-08
4.58499e-08
6.08561e-08
8.76954e-08
2.06927e-07
1.21794e-07
1.12324e-07
1.4138e-07
1.22008e-07
1.97987e-07
1.34561e-07
8.68395e-08
8.00859e-08
1.2452e-07
1.265e-07
1.23954e-07
7.98377e-08
4.60288e-07
8.17776e-08
2.03685e-07
2.26934e-07
1.05676e-06
1.16601e-07
1.95376e-06
2.56102e-07
6.47461e-07
4.32997e-07
3.41542e-07
3.30961e-07
2.87093e-07
2.90243e-07
1.21205e-07
1.17936e-07
5.0478e-08
4.06253e-08
2.30761e-08
2.37191e-08
1.09458e-08
1.55014e-08
8.51731e-08
1.84365e-07
2.99473e-08
2.87554e-08
1.57009e-08
2.61499e-08
1.35877e-07
1.34213e-07
8.7087e-08
8.63903e-08
1.10427e-07
1.4817e-07
2.3582e-07
3.67587e-07
4.02263e-07
4.66311e-07
6.33577e-07
7.79303e-07
8.46267e-07
5.40312e-07
3.76873e-07
4.06139e-07
4.81882e-07
4.2235e-07
3.50876e-07
3.28632e-07
3.29806e-07
2.96609e-07
2.53892e-07
2.34543e-07
2.33127e-07
2.26694e-07
2.10525e-07
1.88053e-07
1.77418e-07
1.7101e-07
1.59917e-07
1.51642e-07
1.48638e-07
1.46479e-07
1.39688e-07
1.29374e-07
1.20356e-07
1.13803e-07
1.10575e-07
1.08781e-07
1.09049e-07
1.07871e-07
1.05654e-07
1.05103e-07
1.03933e-07
1.00684e-07
9.77924e-08
9.7055e-08
9.78683e-08
9.91743e-08
1.00051e-07
9.99179e-08
9.90915e-08
9.80639e-08
9.73139e-08
9.71044e-08
9.71883e-08
9.73825e-08
9.75308e-08
9.76887e-08
9.77924e-08
9.77254e-08
9.78679e-08
9.75582e-08
9.9683e-08
9.93665e-08
1.02707e-07
9.97516e-08
1.02118e-07
9.92844e-08
1.02962e-07
1.19031e-07
9.85375e-08
7.75908e-08
1.41061e-07
4.39025e-08
5.05165e-08
2.32914e-08
1.14266e-07
1.26416e-07
5.04715e-09
1.26875e-08
3.35794e-08
4.88458e-08
1.82437e-08
8.23529e-09
6.49984e-09
5.80386e-09
5.31218e-09
6.57528e-09
9.31137e-09
3.28432e-08
4.28918e-08
5.09132e-08
1.00811e-07
1.20054e-07
1.13145e-07
1.04605e-07
1.02568e-07
1.12783e-07
1.32671e-07
1.67183e-07
2.20685e-07
2.94671e-07
3.84164e-07
4.79357e-07
5.84471e-07
6.44684e-07
6.47139e-07
6.52373e-07
6.67586e-07
6.79557e-07
6.94761e-07
7.14897e-07
7.27542e-07
7.18681e-07
6.86672e-07
6.33181e-07
5.35785e-07
4.19823e-07
3.2407e-07
2.71934e-07
2.58959e-07
2.53573e-07
2.30041e-07
1.93534e-07
1.70124e-07
1.66178e-07
1.75761e-07
1.79832e-07
1.64865e-07
1.15868e-07
7.70944e-08
6.24208e-08
5.95113e-08
8.00326e-08
1.16568e-07
1.23038e-07
1.29141e-07
1.31565e-07
1.31395e-07
1.34106e-07
1.38656e-07
1.38072e-07
1.30547e-07
8.71049e-08
5.75993e-08
4.73118e-08
6.64444e-08
1.19362e-07
1.25909e-07
1.31686e-07
1.39358e-07
1.49591e-07
1.60357e-07
1.72745e-07
1.85994e-07
1.9944e-07
2.13201e-07
2.26766e-07
2.40456e-07
2.54061e-07
2.66451e-07
2.82796e-07
2.9314e-07
2.93816e-07
2.87404e-07
2.88302e-07
2.76867e-07
2.4092e-07
2.17002e-07
1.82506e-07
1.61967e-07
1.4505e-07
1.31377e-07
1.22219e-07
1.2115e-07
1.26451e-07
1.28136e-07
1.26524e-07
1.21322e-07
1.13852e-07
1.05752e-07
9.78357e-08
9.06497e-08
8.45027e-08
6.27657e-08
5.43565e-08
5.31796e-08
5.78378e-08
7.29409e-08
6.70546e-08
4.59159e-08
3.18702e-08
1.90829e-08
1.65811e-08
1.97263e-08
1.66954e-08
1.3119e-08
1.15928e-08
1.40029e-08
2.01064e-08
3.1727e-08
4.30911e-08
2.52368e-08
1.72224e-08
2.69321e-08
2.07195e-08
1.91345e-08
1.78212e-08
1.69016e-08
1.35191e-08
1.4604e-08
1.70016e-08
1.7277e-08
1.77003e-08
1.81111e-08
1.7504e-08
1.7173e-08
1.82952e-08
1.95735e-08
2.00197e-08
2.09197e-08
2.07098e-08
2.08769e-08
2.18935e-08
2.33113e-08
2.45963e-08
2.53706e-08
2.55504e-08
2.62504e-08
2.75952e-08
2.90007e-08
3.02868e-08
3.16639e-08
3.30094e-08
3.42816e-08
3.53254e-08
3.67263e-08
3.83774e-08
4.06226e-08
4.31334e-08
4.5368e-08
4.76273e-08
5.05223e-08
5.31727e-08
5.56092e-08
6.04191e-08
6.74067e-08
7.30609e-08
7.6683e-08
8.03423e-08
8.76353e-08
1.00407e-07
1.15663e-07
1.35124e-07
1.53856e-07
1.61849e-07
1.73362e-07
1.8721e-07
2.07877e-07
2.46498e-07
2.58089e-07
2.42918e-07
2.0742e-07
1.66332e-07
1.40784e-07
1.26988e-07
1.15287e-07
1.00894e-07
8.87331e-08
7.9404e-08
7.20312e-08
6.74935e-08
6.43341e-08
6.06582e-08
5.71431e-08
5.30485e-08
4.87791e-08
4.64347e-08
4.53834e-08
4.42546e-08
4.24138e-08
3.97808e-08
3.76221e-08
3.65902e-08
3.6463e-08
3.69142e-08
3.68554e-08
3.53682e-08
3.34415e-08
3.26479e-08
3.32707e-08
3.37233e-08
3.40097e-08
3.49543e-08
3.50803e-08
3.41657e-08
3.36318e-08
3.40761e-08
3.59022e-08
3.78301e-08
3.89547e-08
3.89507e-08
3.79389e-08
3.83777e-08
3.96724e-08
4.21101e-08
4.573e-08
4.82182e-08
4.93756e-08
4.95906e-08
5.01371e-08
5.14885e-08
5.45161e-08
5.7659e-08
6.02562e-08
6.5532e-08
7.13509e-08
7.30492e-08
7.25272e-08
7.24027e-08
7.65008e-08
8.48967e-08
9.58888e-08
1.04515e-07
1.08408e-07
1.04913e-07
9.89989e-08
1.0183e-07
1.12281e-07
1.24932e-07
1.39032e-07
1.43146e-07
1.29346e-07
1.21257e-07
1.23295e-07
1.31199e-07
1.42278e-07
1.3868e-07
1.29662e-07
1.24581e-07
1.22823e-07
1.23924e-07
1.25618e-07
1.20675e-07
1.11924e-07
1.08883e-07
1.05838e-07
1.03642e-07
1.03226e-07
1.03411e-07
1.01975e-07
9.66187e-08
8.97377e-08
8.52827e-08
8.31757e-08
8.25776e-08
8.33201e-08
8.23015e-08
7.97058e-08
7.65075e-08
7.26728e-08
6.96266e-08
6.83429e-08
6.88882e-08
6.91684e-08
6.75205e-08
6.5321e-08
6.31314e-08
6.13496e-08
6.04227e-08
6.04068e-08
6.03605e-08
5.94786e-08
5.83987e-08
5.74868e-08
5.68303e-08
5.63695e-08
5.62198e-08
5.62656e-08
5.59787e-08
5.58311e-08
5.61761e-08
5.65951e-08
5.67485e-08
5.68043e-08
5.69666e-08
5.76376e-08
5.86827e-08
5.9616e-08
6.04349e-08
6.13862e-08
6.27248e-08
6.45895e-08
6.65234e-08
6.82431e-08
7.01734e-08
7.26491e-08
7.56754e-08
7.92615e-08
8.31313e-08
8.72451e-08
9.19207e-08
9.74503e-08
1.03903e-07
1.11313e-07
1.20396e-07
1.31858e-07
1.45102e-07
1.59386e-07
1.75412e-07
1.95235e-07
2.21472e-07
2.5291e-07
2.8688e-07
3.20501e-07
3.42636e-07
3.44919e-07
3.28239e-07
2.99263e-07
2.66582e-07
2.35964e-07
2.12327e-07
1.95391e-07
1.80281e-07
1.65103e-07
1.51972e-07
1.41181e-07
1.32009e-07
1.23655e-07
1.1626e-07
1.10782e-07
1.06512e-07
1.0231e-07
9.82753e-08
9.43609e-08
9.10241e-08
8.87633e-08
8.65174e-08
8.42239e-08
8.21482e-08
8.03226e-08
7.8855e-08
7.76166e-08
7.64166e-08
7.51648e-08
7.39796e-08
7.32241e-08
7.26937e-08
7.19093e-08
7.08949e-08
7.03423e-08
7.02285e-08
6.99997e-08
6.96522e-08
6.93717e-08
6.9373e-08
6.94222e-08
6.93326e-08
6.92424e-08
6.92452e-08
6.91991e-08
6.91193e-08
6.91914e-08
6.98644e-08
7.04683e-08
7.08824e-08
7.08927e-08
7.12349e-08
7.21329e-08
7.30888e-08
7.35337e-08
7.38276e-08
7.44282e-08
7.56194e-08
7.69836e-08
7.81262e-08
7.92387e-08
8.04379e-08
8.09081e-08
8.25733e-08
8.34572e-08
8.49673e-08
8.66194e-08
9.02386e-08
9.1083e-08
9.96749e-08
9.4176e-08
8.7028e-08
8.71077e-08
8.49286e-08
8.90401e-08
9.9761e-08
2.42389e-07
1.58179e-07
5.86421e-08
5.83782e-08
4.0712e-08
3.10086e-08
2.22628e-08
2.69832e-08
4.30177e-08
4.04014e-08
5.5493e-08
8.63941e-08
2.96281e-07
2.06423e-07
1.62741e-07
2.08524e-07
1.16473e-07
1.28797e-07
1.13686e-07
7.14991e-08
1.3144e-07
1.84005e-07
1.02602e-07
8.27381e-08
6.56229e-08
5.24742e-07
9.75326e-08
2.5573e-07
2.43873e-07
7.87288e-07
1.51362e-07
2.17155e-07
1.56505e-07
2.72005e-07
1.39902e-07
1.79096e-07
2.82742e-07
2.25111e-07
8.55154e-08
9.55209e-08
3.20764e-07
6.35515e-08
4.51653e-08
2.25234e-08
2.31479e-08
1.04165e-08
1.3761e-08
5.82564e-08
1.76046e-07
3.09328e-08
2.95386e-08
1.50203e-08
2.3809e-08
4.79371e-08
1.17051e-07
1.35762e-07
1.19514e-07
1.46315e-07
1.64448e-07
2.22165e-07
1.98823e-07
2.54729e-07
4.1122e-07
5.18641e-07
4.90809e-07
5.09007e-07
5.79131e-07
5.63841e-07
4.85236e-07
3.82067e-07
3.57599e-07
4.0859e-07
4.41326e-07
3.76892e-07
3.05572e-07
2.8145e-07
2.73969e-07
2.49314e-07
2.21302e-07
2.07593e-07
2.05898e-07
1.98275e-07
1.8295e-07
1.67864e-07
1.57806e-07
1.51868e-07
1.48205e-07
1.45627e-07
1.45438e-07
1.44989e-07
1.37383e-07
1.27966e-07
1.18918e-07
1.13137e-07
1.10702e-07
1.09248e-07
1.08109e-07
1.04969e-07
1.02027e-07
1.00999e-07
9.98918e-08
9.77912e-08
9.61041e-08
9.57357e-08
9.61385e-08
9.65014e-08
9.65297e-08
9.61845e-08
9.56826e-08
9.53823e-08
9.53085e-08
9.54336e-08
9.5584e-08
9.57034e-08
9.59522e-08
9.61026e-08
9.60774e-08
9.58598e-08
9.63455e-08
9.6522e-08
9.92344e-08
9.87482e-08
1.00858e-07
9.81129e-08
1.01681e-07
9.90029e-08
1.01754e-07
1.16851e-07
9.61851e-08
7.58135e-08
1.38833e-07
4.32426e-08
5.03259e-08
2.31052e-08
1.15853e-07
1.45999e-07
5.0711e-09
1.26681e-08
2.90049e-08
5.86608e-08
1.40665e-08
7.53783e-09
7.11742e-09
7.6395e-09
8.66443e-09
1.27613e-08
1.36724e-08
4.19549e-08
1.36361e-07
1.40439e-07
1.4438e-07
1.44268e-07
1.39319e-07
1.31084e-07
1.35297e-07
1.5433e-07
1.86834e-07
2.28121e-07
2.75582e-07
3.26058e-07
3.76586e-07
4.30231e-07
4.96105e-07
5.15649e-07
5.0889e-07
5.22335e-07
5.4605e-07
5.6457e-07
5.77544e-07
5.85999e-07
5.8707e-07
5.72266e-07
5.3978e-07
4.86751e-07
4.02584e-07
3.14666e-07
2.4601e-07
2.0758e-07
1.92579e-07
1.85156e-07
1.71955e-07
1.54543e-07
1.43356e-07
1.40842e-07
1.43772e-07
1.44448e-07
1.37968e-07
8.63352e-08
5.26788e-08
4.24767e-08
4.44066e-08
7.0193e-08
1.27485e-07
1.29264e-07
8.57117e-08
1.06041e-07
1.30795e-07
1.30854e-07
1.01729e-07
1.29022e-07
1.25809e-07
8.57811e-08
4.72455e-08
3.5305e-08
3.58462e-08
4.57394e-08
6.77285e-08
1.37054e-07
1.41242e-07
1.44696e-07
1.41943e-07
1.57549e-07
1.67267e-07
1.77363e-07
1.87111e-07
1.96439e-07
2.0491e-07
2.1241e-07
2.18533e-07
2.24707e-07
2.2924e-07
2.31982e-07
2.40241e-07
2.46482e-07
2.4555e-07
2.37755e-07
2.29819e-07
2.1916e-07
1.92198e-07
1.78642e-07
1.55917e-07
1.40989e-07
1.2605e-07
1.16321e-07
1.10558e-07
1.09075e-07
1.08673e-07
1.0636e-07
1.02928e-07
9.92897e-08
9.61554e-08
9.36837e-08
9.18003e-08
6.75703e-08
4.71525e-08
3.83666e-08
3.38746e-08
3.4014e-08
4.42239e-08
5.96426e-08
5.67887e-08
3.88468e-08
2.80536e-08
1.7383e-08
1.58666e-08
1.71572e-08
1.41365e-08
1.17894e-08
1.06642e-08
1.31399e-08
1.89533e-08
3.49008e-08
4.74413e-08
2.38185e-08
1.44421e-08
2.10841e-08
1.97973e-08
1.86382e-08
1.92216e-08
1.85353e-08
1.54234e-08
1.35695e-08
1.39456e-08
1.6943e-08
1.72986e-08
1.91305e-08
1.88989e-08
1.82621e-08
1.89117e-08
1.96163e-08
2.0058e-08
2.14e-08
2.22944e-08
2.2996e-08
2.35663e-08
2.42339e-08
2.51113e-08
2.64316e-08
2.76089e-08
2.84272e-08
2.94609e-08
3.10096e-08
3.27713e-08
3.38635e-08
3.49002e-08
3.65176e-08
3.79984e-08
3.98146e-08
4.22634e-08
4.5091e-08
4.74685e-08
4.98023e-08
5.25186e-08
5.56662e-08
6.11166e-08
6.73496e-08
7.08896e-08
7.46594e-08
8.07097e-08
8.95891e-08
1.01344e-07
1.16368e-07
1.31479e-07
1.37233e-07
1.40881e-07
1.49451e-07
1.67149e-07
1.89173e-07
1.93277e-07
1.8424e-07
1.60726e-07
1.32523e-07
1.16378e-07
1.07058e-07
1.00598e-07
9.27661e-08
8.35294e-08
7.49428e-08
6.76098e-08
6.19591e-08
5.81874e-08
5.67347e-08
5.58898e-08
5.27026e-08
4.87037e-08
4.58741e-08
4.3887e-08
4.23378e-08
4.08016e-08
3.90385e-08
3.76027e-08
3.72861e-08
3.75928e-08
3.74236e-08
3.61126e-08
3.42105e-08
3.27776e-08
3.26577e-08
3.3579e-08
3.39144e-08
3.41203e-08
3.46574e-08
3.43178e-08
3.35594e-08
3.33642e-08
3.40603e-08
3.56698e-08
3.70707e-08
3.79334e-08
3.84529e-08
3.82765e-08
3.85529e-08
3.95674e-08
4.08625e-08
4.31662e-08
4.63852e-08
4.8515e-08
4.91729e-08
4.9718e-08
5.13814e-08
5.47333e-08
5.75886e-08
5.95662e-08
6.32223e-08
6.82158e-08
6.97029e-08
7.02104e-08
7.36207e-08
7.92266e-08
8.75687e-08
9.76265e-08
1.02561e-07
1.01441e-07
9.89832e-08
1.00687e-07