/*--------------------------------*- C++ -*----------------------------------*\
| =========                 |                                                 |
| \\      /  F ield         | OpenFOAM: The Open Source CFD Toolbox           |
|  \\    /   O peration     | Version:  v2006                                 |
|   \\  /    A nd           | Website:  www.openfoam.com                      |
|    \\/     M anipulation  |                                                 |
\*---------------------------------------------------------------------------*/
FoamFile
{
    version     2.0;
    format      ascii;
    class       volScalarField;
    location    "9";
    object      omega;
}
// * * * * * * * * * * * * * * * * * * * * * * * * * * * * * * * * * * * * * //

dimensions      [0 0 -1 0 0 0 0];


internalField   nonuniform List<scalar> 
33000
(
0.80171
0.802613
0.803944
0.804939
0.804883
0.804345
0.803818
0.803542
0.80342
0.803392
0.803456
0.80358
0.803732
0.803888
0.804049
0.804202
0.804366
0.804558
0.804805
0.805179
0.805853
0.807178
0.809616
0.813397
0.818321
0.824245
0.83078
0.837059
0.842226
0.845957
0.848853
0.851276
0.853853
0.859635
0.874253
0.900702
0.932563
0.958653
0.973226
0.979477
0.981605
0.982237
0.982178
0.981015
0.978484
0.975906
0.973983
0.972742
0.97159
0.969509
0.965771
0.96131
0.956704
0.952876
0.950605
0.950775
0.953385
0.957612
0.96248
0.966802
0.968972
0.968033
0.963994
0.957322
0.948452
0.937972
0.926253
0.912615
0.900771
0.891759
0.884743
0.879272
0.874995
0.871738
0.869465
0.868737
0.869034
0.872247
0.874073
0.876444
0.880471
0.884971
0.891216
0.897918
0.905783
0.911523
0.915915
0.918528
0.91947
0.918597
0.915993
0.911507
0.904572
0.896886
0.888262
0.879968
0.87363
0.869516
0.867519
0.868595
0.872021
0.873411
0.873839
0.87437
0.875516
0.876518
0.876846
0.87644
0.875584
0.874407
0.87305
0.871481
0.869363
0.86636
0.862653
0.859312
0.857422
0.858501
0.860923
0.861487
0.861882
0.862123
0.862857
0.863774
0.864511
0.86506
0.86548
0.865788
0.866173
0.866605
0.867044
0.867439
0.867731
0.867926
0.86811
0.868317
0.86856
0.868783
0.868975
0.869139
0.869297
0.869449
0.869559
0.869597
0.869551
0.869453
0.869348
0.86925
0.869125
0.868917
0.868609
0.868251
0.86789
0.867522
0.867117
0.866661
0.86616
0.865624
0.865065
0.864485
0.863881
0.863249
0.862581
0.861877
0.86116
0.86044
0.859686
0.858877
0.858043
0.857233
0.856452
0.855655
0.854812
0.853947
0.853116
0.852351
0.851654
0.850997
0.85033
0.849633
0.848916
0.848205
0.847526
0.846908
0.84635
0.845831
0.845309
0.844754
0.84421
0.843725
0.843302
0.842909
0.842506
0.842093
0.841683
0.841314
0.841022
0.840826
0.840709
0.840594
0.840459
0.840321
0.840235
0.840225
0.840269
0.840332
0.840386
0.840432
0.840525
0.84069
0.840884
0.84102
0.841126
0.841282
0.841487
0.841732
0.842019
0.842309
0.842551
0.842769
0.843001
0.843271
0.843569
0.843894
0.84422
0.844501
0.844748
0.844978
0.845216
0.845468
0.845732
0.845993
0.846198
0.846359
0.846501
0.846636
0.846771
0.846896
0.846998
0.847078
0.84714
0.847175
0.847172
0.847131
0.84707
0.847006
0.846937
0.846865
0.846765
0.8466
0.846415
0.846238
0.846057
0.845868
0.845665
0.845429
0.845169
0.844901
0.844628
0.84435
0.844058
0.843752
0.84343
0.843098
0.842765
0.842436
0.842103
0.841748
0.841368
0.840981
0.840599
0.840218
0.839833
0.839444
0.83905
0.838637
0.838209
0.837776
0.837342
0.836906
0.836466
0.836025
0.835581
0.835125
0.834653
0.834175
0.833698
0.833217
0.83273
0.832239
0.83174
0.831229
0.830705
0.83017
0.829622
0.829063
0.828498
0.827928
0.827355
0.82678
0.826205
0.825632
0.82506
0.824488
0.823912
0.823333
0.822756
0.822185
0.821625
0.82108
0.820554
0.820051
0.819573
0.819118
0.818687
0.818279
0.817896
0.817539
0.817209
0.816906
0.81663
0.816381
0.816159
0.815962
0.81579
0.815641
0.815515
0.815409
0.815322
0.815252
0.815195
0.815152
0.815121
0.8151
0.815088
0.815082
0.815081
0.815083
0.815087
0.815091
0.815094
0.815095
0.815094
0.815092
0.815087
0.81508
0.81507
0.815057
0.815042
0.815023
0.815002
0.814976
0.814947
0.814914
0.814877
0.814835
0.814789
0.81474
0.814686
0.814629
0.814567
0.814502
0.814434
0.814362
0.814286
0.814208
0.814127
0.814043
0.813956
0.813867
0.813775
0.813682
0.813586
0.813487
0.813386
0.813283
0.813177
0.81307
0.81296
0.812848
0.812734
0.812617
0.812497
0.812376
0.812254
0.812131
0.812006
0.81188
0.811753
0.811626
0.811499
0.811371
0.811244
0.811116
0.810989
0.810863
0.810738
0.810614
0.810493
0.810372
0.810252
0.810135
0.810019
0.809906
0.809796
0.80969
0.809586
0.809485
0.809388
0.809295
0.809206
0.809121
0.809036
0.808955
0.808877
0.8088
0.808726
0.808648
0.808565
0.808492
0.808423
0.80834
0.808277
0.808159
0.808022
0.807963
0.807914
0.807785
0.807899
0.808033
0.808463
0.808585
0.808817
0.808901
0.808997
0.809019
0.809041
0.809035
0.809038
0.80902
0.809016
0.809015
0.808955
0.808912
0.808856
0.808631
0.808449
0.808174
0.808049
0.807862
0.807923
0.807984
0.808065
0.808117
0.808172
0.808207
0.808239
0.808213
0.808203
0.808194
0.808131
0.808187
0.808062
0.807845
0.807867
0.807782
0.807443
0.807754
0.808023
0.809488
0.809926
0.810694
0.811288
0.812091
0.812911
0.813773
0.814551
0.815238
0.815829
0.816346
0.816789
0.81716
0.817474
0.817741
0.817975
0.818187
0.818378
0.818544
0.818693
0.818834
0.818962
0.819074
0.819175
0.819275
0.819376
0.819469
0.819553
0.819625
0.819691
0.819751
0.819803
0.819852
0.8199
0.819941
0.819969
0.819983
0.819986
0.819985
0.819985
0.819985
0.819984
0.819978
0.819966
0.819952
0.819934
0.819911
0.819886
0.819864
0.819845
0.819826
0.819802
0.819773
0.819737
0.819696
0.819652
0.819608
0.819564
0.819519
0.819474
0.819428
0.81938
0.819331
0.819282
0.819234
0.819187
0.819139
0.819092
0.81904
0.818995
0.818946
0.818905
0.818856
0.818814
0.818782
0.818738
0.8186
0.818654
0.817863
0.816204
0.809955
0.138847
0.421551
0.624482
0.733466
0.792983
0.789597
0.720592
0.666254
0.64237
0.634288
0.638871
0.655642
0.692683
0.743713
0.791846
0.830765
0.866483
0.904598
0.94782
0.999596
1.04938
1.09262
1.15381
1.26349
1.41362
1.53829
1.62044
1.68151
1.73088
1.79129
1.90255
1.98123
1.9478
1.83629
1.69836
1.5799
1.49192
1.39019
1.25281
1.07762
0.926821
0.848099
0.823603
0.808433
0.769337
0.693513
0.636109
0.633097
0.654578
0.656467
0.626514
0.559184
0.492372
0.452796
0.437143
0.443613
0.467753
0.503782
0.534591
0.553475
0.564127
0.57502
0.593157
0.610374
0.607359
0.591375
0.583455
0.594649
0.620247
0.666449
0.73522
0.823447
0.915945
0.989882
1.03764
1.08238
1.1294
1.19124
1.22785
1.25932
1.29951
1.36216
1.32541
1.31655
1.24479
1.22309
1.17327
1.08572
0.949322
0.823335
0.721945
0.653034
0.62412
0.637886
0.688018
0.764877
0.858284
0.970774
1.07005
1.18029
1.23968
1.22466
1.11605
0.969281
0.840906
0.694356
0.547004
0.434168
0.363314
0.305011
0.266847
0.255305
0.258836
0.274449
0.297413
0.318739
0.333367
0.350301
0.373015
0.372044
0.331648
0.28868
0.267046
0.237444
0.212601
0.200956
0.188294
0.180216
0.177292
0.174068
0.172253
0.171276
0.169385
0.169227
0.169866
0.170642
0.171062
0.171268
0.171743
0.172275
0.172974
0.173292
0.173257
0.172984
0.172905
0.173291
0.174016
0.174745
0.175054
0.174993
0.175265
0.17597
0.176837
0.177634
0.178334
0.179022
0.179727
0.180485
0.181245
0.181987
0.182697
0.183381
0.18403
0.184702
0.185448
0.186077
0.18641
0.186599
0.186885
0.187302
0.187558
0.187335
0.186674
0.185894
0.185286
0.184917
0.184563
0.183829
0.18247
0.180544
0.178303
0.176089
0.174147
0.172502
0.170935
0.169119
0.166821
0.164208
0.161752
0.159717
0.157948
0.156047
0.153719
0.151022
0.148256
0.145778
0.143728
0.141976
0.140203
0.137998
0.135366
0.132646
0.130179
0.128017
0.125968
0.123855
0.121539
0.119161
0.117044
0.11519
0.113177
0.110721
0.108144
0.105848
0.103948
0.102361
0.100815
0.0989616
0.0967409
0.094455
0.0924016
0.0907394
0.0893794
0.0881282
0.0867386
0.0851048
0.0833964
0.0818212
0.0805555
0.0795853
0.0787356
0.0778141
0.076701
0.0755424
0.0745242
0.0737233
0.0731216
0.0726704
0.0723061
0.0719768
0.071655
0.07128
0.0708648
0.0705213
0.0703497
0.0704358
0.0707259
0.0709683
0.0709939
0.0708914
0.0708912
0.0711257
0.0715217
0.0719108
0.0721944
0.0723568
0.0725079
0.0727593
0.0730962
0.073439
0.0737037
0.0738661
0.0739998
0.0742373
0.0746612
0.0752217
0.0756501
0.0757614
0.0757104
0.0757233
0.0758886
0.076207
0.0766446
0.0770995
0.0774189
0.0775377
0.0775569
0.0775982
0.0776916
0.0778338
0.0781011
0.07853
0.0789146
0.0790305
0.078975
0.0789741
0.0790804
0.0792522
0.0794973
0.0797816
0.0799816
0.0800327
0.0800129
0.0800171
0.0800621
0.0801805
0.0803508
0.0804671
0.0804771
0.0804023
0.0802785
0.0802044
0.0802198
0.0801986
0.0800572
0.0798002
0.0795346
0.0793014
0.0790433
0.0787043
0.0782994
0.07793
0.0776621
0.0774174
0.0770553
0.0765846
0.0761371
0.0757618
0.075442
0.0751573
0.0749072
0.0747001
0.0745464
0.0744615
0.074413
0.0743824
0.0744326
0.0745883
0.0747843
0.0749537
0.0751118
0.0753351
0.0756641
0.0760762
0.076437
0.0766249
0.076676
0.0767524
0.076875
0.0769904
0.0770554
0.0770508
0.0769885
0.0769053
0.0768134
0.0766555
0.076421
0.0761342
0.0758409
0.0755709
0.0753098
0.0750113
0.0746529
0.07427
0.0739039
0.0735501
0.0731942
0.0728373
0.0724525
0.072044
0.0716404
0.0712486
0.0708646
0.0705067
0.0701825
0.0698473
0.0694569
0.0690021
0.0685505
0.0681726
0.0678356
0.0674223
0.0669219
0.0664148
0.06596
0.0655486
0.0651482
0.0647549
0.0643895
0.0640018
0.0635124
0.0629468
0.0624562
0.06203
0.0616187
0.0612019
0.0607627
0.0602809
0.0597871
0.0593506
0.058938
0.0584797
0.0579553
0.0574554
0.056988
0.0565335
0.0560989
0.0557244
0.0553157
0.0548331
0.0543174
0.0538016
0.0533588
0.052956
0.0526556
0.0522487
0.0517928
0.051165
0.050802
0.0503654
0.0499817
0.0495116
0.0489293
0.0485399
0.0479484
0.0475934
0.0472557
0.0466019
0.0463289
0.0463934
0.0452696
0.0456304
0.0465548
0.0458536
0.0473542
0.0518907
0.0525163
0.0585832
0.06603
0.0745574
0.0678026
0.0548602
0.0528555
0.0485241
0.0475384
0.045858
0.0449761
0.0440896
0.0436504
0.0438124
0.0469992
0.0490035
0.0528688
0.0558563
0.0515574
0.0499439
0.0474902
0.0422986
0.0360673
0.0353659
0.0348219
0.033998
0.0335336
0.0340306
0.0348939
0.0360882
0.0373252
0.03825
0.0391768
0.0400765
0.0437443
0.0569654
0.0732812
0.0968328
0.123509
0.150822
0.15455
0.148547
0.197302
0.184174
0.110484
0.0892438
0.0784286
0.0725713
0.0665351
0.0611551
0.0567909
0.0529753
0.0501635
0.049053
0.0486712
0.0483396
0.0483243
0.0483386
0.0488496
0.049864
0.0506709
0.0510099
0.0515075
0.0522082
0.0527718
0.0529549
0.0531637
0.0538119
0.0546989
0.055273
0.0555943
0.0557069
0.0558834
0.0560915
0.0562457
0.056588
0.0570861
0.0574618
0.0574414
0.0570694
0.0566162
0.0562996
0.0562473
0.0563214
0.0565169
0.0565939
0.0566326
0.0567511
0.0567943
0.0567502
0.0567776
0.0569843
0.0573264
0.0577041
0.0580093
0.0581637
0.0581761
0.0581023
0.0580036
0.0579344
0.0579106
0.0579277
0.0579641
0.0579955
0.0580075
0.0580071
0.0580255
0.0580748
0.0581769
0.0582477
0.0583128
0.0582837
0.0583362
0.0583763
0.0584316
0.0584929
0.0586296
0.0590222
0.0597358
0.0610668
0.0645394
0.0682371
0.065356
0.0368092
0.0819627
0.248769
0.408218
0.506481
0.496845
0.394454
0.30385
0.245554
0.213139
0.198752
0.199613
0.213818
0.254142
0.308306
0.36976
0.438562
0.51721
0.614753
0.739779
0.890726
1.03702
1.15584
1.26134
1.37211
1.5033
1.67181
1.8823
2.0749
2.22879
2.36151
2.43912
2.39004
2.23074
2.0284
1.81964
1.62919
1.43735
1.24166
1.03949
0.843175
0.691104
0.606324
0.573374
0.55214
0.518925
0.469064
0.430429
0.423678
0.431588
0.429603
0.411242
0.376086
0.338729
0.311713
0.299952
0.302717
0.31346
0.324155
0.332632
0.341963
0.348641
0.357586
0.376297
0.390905
0.393187
0.38367
0.367914
0.350675
0.339835
0.343692
0.367369
0.404433
0.447384
0.479937
0.504118
0.530516
0.5688
0.620241
0.687766
0.761724
0.893323
0.991702
1.08046
1.20245
1.31777
1.33752
1.32496
1.26386
1.18883
1.05898
0.926267
0.790057
0.679643
0.606543
0.574133
0.572986
0.603653
0.640381
0.673357
0.703209
0.733773
0.723313
0.702514
0.663971
0.617341
0.567436
0.503579
0.437098
0.373613
0.314394
0.253502
0.200272
0.151902
0.123736
0.118991
0.124565
0.129089
0.130412
0.131994
0.133961
0.144022
0.153289
0.149903
0.118538
0.0894916
0.0764263
0.0634076
0.0539416
0.0489199
0.0439777
0.0405877
0.0393265
0.0384128
0.0384126
0.0388728
0.0393144
0.039382
0.0392869
0.0394272
0.0395459
0.0398445
0.0400817
0.040163
0.0401927
0.0403066
0.0405185
0.040781
0.0410336
0.0412582
0.0414956
0.0418108
0.0421749
0.0425396
0.042905
0.0433403
0.0438539
0.0443663
0.04481
0.0451868
0.0455523
0.0459349
0.0463536
0.0467875
0.0472033
0.0475854
0.0479001
0.0481235
0.0482889
0.0484855
0.0487261
0.0488907
0.0488643
0.0486378
0.0483317
0.0480903
0.0479265
0.0477402
0.047399
0.0468102
0.045995
0.0450395
0.0440375
0.043088
0.0422543
0.0414871
0.0406564
0.0396345
0.038435
0.0372445
0.0362238
0.0353471
0.0344731
0.0334803
0.0323347
0.0311179
0.0299934
0.0290473
0.0282497
0.0274773
0.0265608
0.0255103
0.0244517
0.0234996
0.0226642
0.0218706
0.0210607
0.0202179
0.0193834
0.0186319
0.0179668
0.0172814
0.0164973
0.0156954
0.0149793
0.014368
0.0138358
0.0133377
0.0128057
0.0122138
0.0116139
0.0110608
0.0105909
0.0101961
0.0098459
0.00949148
0.00910339
0.00870749
0.00833618
0.00802261
0.00776865
0.00754272
0.00731174
0.00706199
0.006818
0.00660415
0.00643098
0.00629513
0.00618213
0.00608024
0.005983
0.00589322
0.00581148
0.00573858
0.00568206
0.00565109
0.00565358
0.00568042
0.00570568
0.00571513
0.00571926
0.00574031
0.00578762
0.00584942
0.00591134
0.00596941
0.00602306
0.00608283
0.0061562
0.00623082
0.0062965
0.00635408
0.00640762
0.00646286
0.00653391
0.00663066
0.00674256
0.00683065
0.00687432
0.00689804
0.00693257
0.00699031
0.0070682
0.00715623
0.00724412
0.00731931
0.00737388
0.00741365
0.00744877
0.00748496
0.00752896
0.00759538
0.00768561
0.00776798
0.00781186
0.00783038
0.00785768
0.0079014
0.0079508
0.00800594
0.00806526
0.00811411
0.00814681
0.0081734
0.00820081
0.00822596
0.00825448
0.00828926
0.00832518
0.00835581
0.00837049
0.00836406
0.00835463
0.00836018
0.00837114
0.00836774
0.00833483
0.00828878
0.00825057
0.00821918
0.00817498
0.00811097
0.00804744
0.00799953
0.00796128
0.00790921
0.0078324
0.0077523
0.00768456
0.00762986
0.00758512
0.00754537
0.00750772
0.00747481
0.00745254
0.00743952
0.00743437
0.00744339
0.00746598
0.00749142
0.00751327
0.00753744
0.00757478
0.0076286
0.00769178
0.00774586
0.00777903
0.00779023
0.00780109
0.00781577
0.00782773
0.00783426
0.00783247
0.00782112
0.00780408
0.00777981
0.00773765
0.00768306
0.00762404
0.00756634
0.0075121
0.00745772
0.00739653
0.0073259
0.00725141
0.0071802
0.00711291
0.00704855
0.00698496
0.00691346
0.00683718
0.00676432
0.00669585
0.00662944
0.00656573
0.00650568
0.00644453
0.00637887
0.00630783
0.00623788
0.00617718
0.00612129
0.0060542
0.00597483
0.00589323
0.00582121
0.00575903
0.00569882
0.00563638
0.00557434
0.00551026
0.00544076
0.00536586
0.00529768
0.00523694
0.00517824
0.00511651
0.0050536
0.00498827
0.00492332
0.004863
0.00480396
0.00474208
0.00467797
0.00461726
0.00455905
0.00450021
0.00444545
0.00439542
0.00434397
0.00428725
0.00422731
0.00416189
0.00410611
0.00405302
0.00401235
0.00396066
0.00391149
0.0038372
0.00378492
0.00374425
0.00368941
0.00362105
0.00355412
0.00352047
0.00344415
0.00342615
0.00340098
0.00333351
0.00335589
0.00351972
0.00345774
0.00366619
0.00407496
0.00419191
0.00449026
0.00481631
0.00511532
0.00514973
0.0050315
0.00545924
0.00470316
0.0039231
0.00368461
0.00341769
0.00323495
0.00314866
0.00324736
0.00350342
0.00365547
0.00394593
0.00429081
0.00424066
0.00421766
0.00392462
0.003035
0.0025118
0.00234969
0.00225102
0.00218074
0.00215353
0.00214659
0.0021894
0.00223444
0.00232843
0.0023637
0.00241466
0.00262838
0.00302153
0.00400682
0.00555798
0.00844595
0.0123168
0.0180863
0.0196211
0.0191461
0.0248823
0.0239134
0.0178388
0.024775
0.0159142
0.00753492
0.00637572
0.00557507
0.00511208
0.00474787
0.00448628
0.00420796
0.00391669
0.00368151
0.00355295
0.00347391
0.00341679
0.00339822
0.00339725
0.00345145
0.0035348
0.00359884
0.00363525
0.00368557
0.00375654
0.00381249
0.00384311
0.00388331
0.00395521
0.00404272
0.00410875
0.0041565
0.00418851
0.00421524
0.00424227
0.00427373
0.00432319
0.0043815
0.00442414
0.00442463
0.00439529
0.00435666
0.00433059
0.00432764
0.00433459
0.00434936
0.00435641
0.00436367
0.00438045
0.00439454
0.00440249
0.00441575
0.00444282
0.00448055
0.00451941
0.00455083
0.00456983
0.00457652
0.00457474
0.00456931
0.00456462
0.0045639
0.00456808
0.00457525
0.00458198
0.00458645
0.00459001
0.00459683
0.00460775
0.00462264
0.00463266
0.00464034
0.00464196
0.00464952
0.00465744
0.00466325
0.00466865
0.00469262
0.00475428
0.00483319
0.00498594
0.00528678
0.00568602
0.00556819
0.00356756
0.0522287
0.152067
0.257158
0.310213
0.279432
0.219541
0.165559
0.129777
0.111942
0.109314
0.121551
0.144119
0.185885
0.244263
0.323568
0.43402
0.571899
0.717535
0.861812
1.00721
1.11437
1.19672
1.26434
1.32862
1.40787
1.53454
1.72783
1.88112
1.92487
1.95258
1.95734
1.89599
1.78499
1.64748
1.49236
1.32505
1.15157
0.974389
0.776389
0.597553
0.473441
0.406806
0.378298
0.360314
0.336039
0.302114
0.27796
0.271343
0.275306
0.274721
0.26348
0.241631
0.218009
0.20013
0.18993
0.186396
0.187334
0.190668
0.194616
0.196407
0.198102
0.206692
0.22203
0.235673
0.24042
0.23567
0.223232
0.206134
0.195125
0.193198
0.199391
0.213646
0.235009
0.262681
0.29271
0.325933
0.363169
0.408513
0.465643
0.53324
0.611854
0.697447
0.785772
0.906631
1.00264
1.07922
1.15849
1.2441
1.27845
1.18626
1.09861
0.932418
0.801317
0.677426
0.573052
0.49775
0.460057
0.456323
0.457952
0.461162
0.454434
0.43855
0.417098
0.389731
0.362472
0.340634
0.321873
0.308373
0.298503
0.275384
0.243152
0.212175
0.179081
0.147426
0.118806
0.0906168
0.0691667
0.0615626
0.0589485
0.0560854
0.0530277
0.0530365
0.0540101
0.0593601
0.0633687
0.0606834
0.0448069
0.0316889
0.0254644
0.0201856
0.0165539
0.0144789
0.0127398
0.0116933
0.0113085
0.0111423
0.0110803
0.0110303
0.0110223
0.0109272
0.0108973
0.0109427
0.0109742
0.011015
0.0110668
0.0111163
0.0111777
0.0112567
0.0113422
0.0114374
0.0115444
0.0116612
0.011788
0.0119162
0.0120478
0.0121943
0.0123575
0.0125249
0.0126761
0.0128056
0.0129177
0.013027
0.0131414
0.0132572
0.0133727
0.0134742
0.0135409
0.0135668
0.0135873
0.0136283
0.0136564
0.0136278
0.0135338
0.0134055
0.0132794
0.0131658
0.0130555
0.0129194
0.0127296
0.0124799
0.0121778
0.0118452
0.0115187
0.0112295
0.0109739
0.0107238
0.0104385
0.0101
0.0097421
0.009412
0.00912678
0.00886933
0.0086179
0.00834486
0.008041
0.00773974
0.00747248
0.00724676
0.00704346
0.00681965
0.00656092
0.00629513
0.00605442
0.00584311
0.00563922
0.00542574
0.00520876
0.00499742
0.00480515
0.00463543
0.00446797
0.0042871
0.00410349
0.00393624
0.00378506
0.00364498
0.00351851
0.0033981
0.003275
0.00314979
0.00302653
0.00291398
0.00281611
0.00273224
0.0026556
0.0025768
0.00249656
0.00241672
0.00234235
0.00227788
0.0022215
0.00216951
0.00211882
0.00207004
0.00202512
0.00198593
0.00195074
0.00191656
0.00188523
0.00185898
0.00183736
0.00181841
0.00180014
0.0017829
0.00176812
0.00175731
0.00175071
0.00174794
0.00174708
0.00174613
0.00174537
0.00174546
0.00174643
0.00174987
0.00175666
0.00176468
0.00177319
0.00178163
0.00178947
0.00179796
0.00180668
0.0018156
0.00182536
0.00183615
0.0018489
0.00186412
0.00187833
0.00188856
0.00189734
0.00190729
0.00191912
0.00193184
0.00194473
0.00195823
0.00197228
0.00198607
0.0019991
0.00201054
0.00202019
0.00202994
0.00204205
0.00205716
0.00207261
0.00208543
0.00209585
0.00210592
0.00211665
0.00212733
0.00213807
0.00214964
0.00216125
0.00217207
0.00218176
0.00219034
0.00219738
0.00220388
0.0022109
0.00221858
0.00222665
0.00223248
0.0022341
0.00223408
0.00223566
0.00223801
0.00223778
0.00223253
0.00222472
0.00221806
0.00221239
0.00220413
0.00219192
0.00217883
0.00216718
0.00215668
0.00214416
0.00212709
0.00210837
0.002091
0.00207547
0.00206104
0.00204631
0.00203079
0.00201525
0.00200099
0.00198809
0.0019765
0.00196686
0.00195871
0.00195063
0.00194195
0.00193374
0.0019278
0.00192474
0.00192308
0.00192
0.001915
0.00190826
0.00190188
0.00189615
0.00189027
0.00188449
0.00187866
0.00187194
0.00186397
0.00185414
0.00184187
0.00182914
0.00181693
0.00180536
0.00179453
0.00178406
0.00177305
0.00176062
0.00174745
0.00173509
0.001724
0.00171405
0.0017043
0.00169314
0.00168172
0.00167134
0.00166182
0.00165263
0.0016435
0.00163468
0.00162615
0.0016178
0.00160935
0.00160058
0.00159237
0.00158522
0.0015777
0.00156877
0.00155892
0.0015501
0.00154269
0.00153561
0.001528
0.00152021
0.0015126
0.00150502
0.00149722
0.00148986
0.00148313
0.00147649
0.00146898
0.00146131
0.00145388
0.00144692
0.00144006
0.00143263
0.00142506
0.00141802
0.00141162
0.00140523
0.0013984
0.0013917
0.00138582
0.00138027
0.00137453
0.0013685
0.00136126
0.00135568
0.00135011
0.00134429
0.00133728
0.00133187
0.00132307
0.00132072
0.0013225
0.00132191
0.00131863
0.00131744
0.00131213
0.00131349
0.00133811
0.00143471
0.00148224
0.00159297
0.00174421
0.00192808
0.00184764
0.00168289
0.00163398
0.00155887
0.00149361
0.00145141
0.00140566
0.00136709
0.00138246
0.00137595
0.00137237
0.0014202
0.00154753
0.00163905
0.00178833
0.00195281
0.0021176
0.00232883
0.00240954
0.00228848
0.00194415
0.00168518
0.00154836
0.0014248
0.00134259
0.00128648
0.00126827
0.0013018
0.00133623
0.00139687
0.00142865
0.00163792
0.0018196
0.0020233
0.00254297
0.00360186
0.00553016
0.00790717
0.0119046
0.0115677
0.00932155
0.00888365
0.0082848
0.00680755
0.00700769
0.00509979
0.0032435
0.00286303
0.00234343
0.00208325
0.00197732
0.00189928
0.0018388
0.00179569
0.00175646
0.00171439
0.00167162
0.00163182
0.00159679
0.00156668
0.00154172
0.00152238
0.0015078
0.00149733
0.00148947
0.00148312
0.00147805
0.00147505
0.00147394
0.00147314
0.00147227
0.00147269
0.0014749
0.00147824
0.00148118
0.00148358
0.00148569
0.00148736
0.00148899
0.00149127
0.00149456
0.0014981
0.00150083
0.00150153
0.00150068
0.00149924
0.00149823
0.00149822
0.00149888
0.00149983
0.00150056
0.00150135
0.00150261
0.00150398
0.00150527
0.00150684
0.00150904
0.00151174
0.00151446
0.00151671
0.00151828
0.0015192
0.00151962
0.00151977
0.0015199
0.00152019
0.00152076
0.00152159
0.00152243
0.00152313
0.00152375
0.0015246
0.00152585
0.00152724
0.00152811
0.00152889
0.00152911
0.00153029
0.00153096
0.00153159
0.00153352
0.00154391
0.00157316
0.0016165
0.00169705
0.0018507
0.00208212
0.00216881
0.00163223
0.0340064
0.0958835
0.160339
0.188982
0.171309
0.136074
0.104089
0.0831879
0.0746749
0.078702
0.0947974
0.11772
0.151351
0.203024
0.281195
0.390728
0.521225
0.633537
0.749526
0.865056
0.963346
1.02342
1.05464
1.07975
1.11656
1.18526
1.3019
1.3498
1.34421
1.36717
1.38763
1.36584
1.30118
1.20786
1.09997
0.9776
0.843882
0.69641
0.531949
0.395137
0.308233
0.26384
0.24287
0.229707
0.213854
0.194413
0.180661
0.176056
0.177392
0.176907
0.170995
0.15931
0.14597
0.134368
0.125407
0.119219
0.116072
0.115366
0.114897
0.114014
0.115468
0.121559
0.131771
0.142047
0.147279
0.146723
0.140521
0.13017
0.120882
0.11743
0.119141
0.12452
0.134786
0.149139
0.167874
0.191808
0.220237
0.253192
0.294567
0.344768
0.400339
0.456719
0.510648
0.565467
0.614938
0.662862
0.74386
0.830646
0.890085
0.914561
0.943124
0.929279
0.837041
0.761947
0.632538
0.52612
0.430802
0.365121
0.322655
0.300696
0.289097
0.277711
0.265355
0.249191
0.232082
0.21711
0.203685
0.194416
0.189824
0.18753
0.18589
0.179935
0.168338
0.150816
0.132736
0.113076
0.0938312
0.0759595
0.0579819
0.0435554
0.0361347
0.0321529
0.0296482
0.02809
0.0286588
0.0299016
0.0329467
0.0352097
0.0340862
0.0254743
0.0181257
0.0145325
0.0115102
0.00937638
0.00804681
0.00732547
0.00647816
0.00577489
0.005412
0.00516353
0.00501131
0.00493333
0.00486239
0.00481901
0.00480837
0.00480212
0.00481331
0.00484175
0.00487734
0.00491466
0.00495349
0.00499656
0.00505016
0.00510972
0.00516856
0.00522609
0.005287
0.00535515
0.00542407
0.00548485
0.00553743
0.00558514
0.00562958
0.00567274
0.005719
0.00576412
0.00579843
0.00581801
0.00582977
0.00584466
0.00586015
0.00586236
0.00584576
0.00581463
0.00577579
0.00573451
0.00569646
0.0056605
0.0056167
0.00555563
0.00547157
0.00537069
0.00526815
0.00517594
0.00509682
0.00502743
0.00494995
0.00485078
0.00473933
0.00463045
0.00453531
0.00445233
0.00437511
0.0042956
0.00420383
0.0041013
0.00400015
0.00391469
0.00384306
0.0037719
0.00369189
0.00360543
0.00352376
0.00345079
0.00337928
0.00330105
0.00321807
0.00313839
0.00306813
0.00300568
0.00294285
0.00287316
0.0028001
0.00273103
0.00266329
0.00259704
0.0025382
0.00248432
0.00243062
0.00237431
0.00231567
0.00225891
0.00220662
0.00215989
0.00211783
0.00207646
0.00203495
0.00199369
0.00195126
0.00190971
0.0018726
0.00183995
0.00180967
0.00177996
0.00175107
0.00172473
0.00170008
0.00167501
0.00165147
0.00163259
0.00161662
0.00160104
0.00158535
0.00156938
0.00155472
0.00154355
0.00153619
0.00153131
0.00152694
0.00152204
0.00151661
0.00151155
0.00150845
0.00150771
0.00150886
0.00151047
0.00151184
0.00151264
0.00151404
0.00151794
0.00152252
0.00152635
0.00153022
0.00153351
0.00153651
0.00154141
0.00154834
0.00155538
0.00156173
0.00156733
0.00157205
0.00157678
0.00158302
0.00159034
0.00159754
0.00160446
0.00161161
0.00161897
0.00162547
0.00163118
0.00163727
0.00164435
0.00165226
0.00166033
0.00166793
0.00167412
0.00167938
0.00168563
0.00169245
0.00169903
0.00170587
0.00171243
0.00171739
0.00172198
0.00172706
0.00173183
0.00173604
0.00173988
0.00174336
0.00174604
0.00174797
0.00174953
0.00175062
0.00175068
0.00174945
0.00174749
0.0017449
0.0017418
0.00173801
0.00173295
0.00172682
0.00172013
0.00171299
0.00170505
0.00169597
0.00168592
0.00167542
0.00166473
0.00165384
0.00164231
0.00162994
0.00161731
0.00160474
0.00159217
0.00157945
0.00156665
0.00155401
0.00154158
0.00152935
0.00151709
0.00150497
0.00149365
0.00148335
0.00147343
0.00146303
0.00145276
0.00144322
0.00143444
0.00142632
0.00141856
0.00141112
0.00140385
0.00139664
0.00138933
0.00138199
0.0013751
0.00136856
0.00136219
0.00135608
0.00135031
0.00134508
0.00134031
0.00133541
0.00133015
0.00132513
0.0013207
0.0013168
0.00131312
0.00130944
0.00130591
0.00130268
0.00129979
0.00129706
0.00129429
0.00129161
0.00128908
0.0012867
0.0012845
0.00128239
0.00128013
0.00127796
0.00127624
0.00127456
0.00127255
0.00127037
0.00126815
0.00126621
0.00126443
0.00126266
0.00126076
0.00125891
0.001257
0.00125517
0.00125335
0.0012517
0.00124992
0.00124786
0.00124583
0.00124389
0.0012421
0.00123971
0.00123735
0.00123495
0.00123304
0.0012309
0.00122873
0.00122607
0.00122387
0.00122154
0.0012199
0.00121866
0.00121646
0.00121334
0.00121149
0.00120977
0.00121034
0.0012178
0.0012213
0.00123566
0.00122745
0.00122067
0.00122965
0.00125768
0.00135434
0.00141464
0.0015247
0.00167021
0.00186397
0.00175644
0.00156044
0.00149753
0.00140939
0.0013339
0.00127086
0.00123983
0.00122624
0.00123365
0.00125013
0.00127525
0.00134003
0.0014981
0.00164721
0.0018585
0.00204617
0.00231842
0.00241746
0.00236948
0.00211115
0.00178697
0.00156513
0.00146804
0.00136859
0.00131058
0.00127172
0.00125877
0.00128633
0.00132101
0.00138629
0.00148213
0.0017613
0.00210719
0.00271651
0.00383575
0.00540891
0.00682857
0.00966224
0.0130915
0.0123709
0.0095963
0.00862439
0.00766289
0.00620069
0.00576962
0.00425069
0.00301888
0.00248505
0.00207477
0.00186165
0.0017405
0.00167761
0.00164167
0.00162668
0.00162085
0.00161346
0.00160159
0.00158427
0.00156459
0.00154408
0.00152307
0.00150204
0.00148219
0.00146429
0.00144855
0.00143466
0.00142211
0.00141108
0.00140174
0.00139386
0.00138706
0.00138123
0.00137643
0.00137257
0.00136931
0.0013665
0.00136419
0.00136245
0.00136099
0.00135976
0.00135885
0.00135805
0.00135733
0.00135683
0.00135651
0.00135625
0.00135602
0.00135568
0.00135528
0.00135491
0.00135465
0.00135456
0.00135459
0.00135465
0.00135465
0.00135467
0.00135475
0.00135484
0.00135496
0.00135516
0.00135543
0.00135571
0.00135595
0.00135614
0.0013563
0.00135647
0.00135663
0.00135674
0.00135678
0.00135679
0.00135685
0.00135695
0.00135704
0.00135711
0.00135721
0.00135741
0.00135754
0.00135751
0.00135765
0.00135754
0.00135813
0.00135806
0.00135811
0.00135971
0.00136894
0.00139534
0.00143517
0.00150917
0.00164997
0.00186274
0.00195707
0.00151333
0.022135
0.0613158
0.100667
0.118428
0.111252
0.0908065
0.0711016
0.0587559
0.0557258
0.0628634
0.076258
0.0924868
0.115879
0.153351
0.211007
0.290522
0.388805
0.489818
0.5704
0.629838
0.677003
0.71113
0.732383
0.74562
0.765415
0.814295
0.877163
0.902448
0.89752
0.901689
0.909166
0.904843
0.879591
0.828044
0.759252
0.674526
0.57733
0.458111
0.34079
0.252235
0.198938
0.1712
0.156789
0.147592
0.138639
0.129109
0.122014
0.11847
0.117708
0.117188
0.114917
0.109959
0.102935
0.0948798
0.0872237
0.0811735
0.0770899
0.0749741
0.073774
0.0731437
0.07394
0.0768666
0.0826365
0.0889455
0.0928614
0.09428
0.0926937
0.0881608
0.0832547
0.0803164
0.0798228
0.0816867
0.0864247
0.0947256
0.106127
0.119505
0.134314
0.152513
0.174167
0.201942
0.235337
0.272342
0.310148
0.346424
0.379108
0.407026
0.429846
0.454931
0.476814
0.492644
0.539011
0.536586
0.525367
0.529176
0.50579
0.467299
0.414996
0.349083
0.291351
0.247476
0.215371
0.192434
0.176574
0.165205
0.154921
0.146205
0.138214
0.131874
0.128043
0.126
0.125131
0.124821
0.125789
0.125598
0.12245
0.114917
0.103438
0.0912893
0.0781255
0.0653024
0.0532245
0.0413439
0.0319314
0.0268811
0.0244052
0.0230522
0.0225464
0.0239361
0.0262808
0.029877
0.0324247
0.0323726
0.0255794
0.0190878
0.014857
0.0122344
0.00993578
0.00821769
0.00685042
0.00573307
0.00489616
0.0044368
0.00414681
0.00394921
0.00382397
0.00372899
0.00367126
0.00366101
0.00366391
0.00366926
0.00367963
0.00369942
0.00373085
0.00376872
0.00380216
0.00383026
0.00385789
0.0038925
0.00393403
0.00397419
0.00400773
0.0040331
0.00405237
0.00407158
0.00409671
0.0041256
0.0041497
0.00416435
0.00417053
0.00417556
0.0041862
0.0041998
0.00420687
0.00420172
0.0041872
0.00416977
0.004158
0.00415646
0.0041572
0.00414595
0.00411834
0.004082
0.00404367
0.00400675
0.00397766
0.00396042
0.00394203
0.00390885
0.00386282
0.00380998
0.00376118
0.00372299
0.00368964
0.00365693
0.00361946
0.00356827
0.00350729
0.00345306
0.00340729
0.00336594
0.00332848
0.00328627
0.00323584
0.00318265
0.00312929
0.00307214
0.00301336
0.00296143
0.00291536
0.00286899
0.00281667
0.00275773
0.00269961