/*--------------------------------*- C++ -*----------------------------------*\
| =========                 |                                                 |
| \\      /  F ield         | OpenFOAM: The Open Source CFD Toolbox           |
|  \\    /   O peration     | Version:  v2006                                 |
|   \\  /    A nd           | Website:  www.openfoam.com                      |
|    \\/     M anipulation  |                                                 |
\*---------------------------------------------------------------------------*/
FoamFile
{
    version     2.0;
    format      ascii;
    class       volScalarField;
    location    "9";
    object      p;
}
// * * * * * * * * * * * * * * * * * * * * * * * * * * * * * * * * * * * * * //

dimensions      [1 -1 -2 0 0 0 0];


internalField   nonuniform List<scalar> 
33000
(
7845.77
7854.98
7858.37
7866.79
7872
7878.39
7884.83
7891.17
7897.05
7902.43
7907.27
7911.74
7915.98
7920.1
7924.06
7927.78
7931.27
7934.64
7938.1
7941.77
7945.62
7949.72
7953.76
7957.33
7960.49
7963.48
7966.25
7968.74
7971.05
7973.3
7975.52
7977.68
7979.94
7982.13
7984.07
7985.65
7986.88
7987.83
7988.53
7989.02
7989.31
7989.42
7989.38
7989.15
7988.73
7988.14
7987.37
7986.44
7985.35
7984.07
7982.61
7981
7979.23
7977.28
7975.17
7972.9
7970.47
7967.89
7965.17
7962.32
7959.34
7956.22
7952.97
7949.6
7946.12
7942.52
7938.82
7935.03
7931.14
7927.17
7923.14
7919.06
7914.97
7910.89
7906.87
7902.99
7899.34
7895.89
7891.91
7883.35
7879.02
7873.13
7866.91
7860.98
7854.81
7847.75
7841.4
7834.2
7827.64
7820.26
7813.39
7805.99
7798.77
7791.35
7784.08
7776.5
7769.36
7761.35
7754.88
7746.27
7735.82
7726.63
7716.72
7707.7
7698.34
7689.17
7679.98
7670.8
7661.66
7652.62
7643.71
7634.94
7626.32
7617.83
7609.62
7601.29
7593.78
7585.4
7576.16
7567.93
7559.6
7551.62
7543.8
7536.22
7528.84
7521.67
7514.71
7507.93
7501.36
7494.95
7488.75
7482.71
7476.86
7471.12
7465.57
7460.17
7454.97
7449.97
7445.18
7440.61
7436.28
7432.21
7428.39
7424.85
7421.56
7418.55
7415.81
7413.36
7411.2
7409.34
7407.75
7406.45
7405.43
7404.71
7404.27
7404.13
7404.26
7404.67
7405.36
7406.32
7407.54
7409.04
7410.78
7412.78
7415.02
7417.51
7420.24
7423.19
7426.36
7429.73
7433.31
7437.11
7441.08
7445.23
7449.54
7454.01
7458.63
7463.4
7468.31
7473.35
7478.51
7483.77
7489.12
7494.55
7500.05
7505.63
7511.28
7516.98
7522.72
7528.49
7534.28
7540.09
7545.92
7551.75
7557.57
7563.37
7569.15
7574.9
7580.6
7586.27
7591.9
7597.49
7603.01
7608.46
7613.84
7619.16
7624.4
7629.58
7634.67
7639.68
7644.6
7649.46
7654.25
7658.95
7663.56
7668.09
7672.54
7676.9
7681.19
7685.41
7689.57
7693.64
7697.64
7701.56
7705.4
7709.18
7712.9
7716.56
7720.15
7723.68
7727.14
7730.54
7733.88
7737.16
7740.4
7743.57
7746.7
7749.76
7752.77
7755.74
7758.65
7761.51
7764.33
7767.1
7769.83
7772.51
7775.15
7777.75
7780.3
7782.81
7785.29
7787.73
7790.12
7792.48
7794.8
7797.09
7799.34
7801.56
7803.75
7805.9
7808.02
7810.11
7812.17
7814.2
7816.2
7818.17
7820.11
7822.02
7823.91
7825.78
7827.62
7829.43
7831.22
7832.98
7834.71
7836.42
7838.1
7839.76
7841.39
7842.99
7844.56
7846.11
7847.62
7849.1
7850.54
7851.96
7853.34
7854.68
7855.99
7857.25
7858.47
7859.65
7860.79
7861.87
7862.91
7863.9
7864.84
7865.72
7866.54
7867.3
7868.01
7868.65
7869.23
7869.74
7870.18
7870.55
7870.85
7871.08
7871.24
7871.32
7871.32
7871.24
7871.09
7870.86
7870.55
7870.16
7869.69
7869.14
7868.52
7867.82
7867.04
7866.19
7865.26
7864.27
7863.2
7862.07
7860.87
7859.6
7858.28
7856.9
7855.46
7853.97
7852.43
7850.85
7849.22
7847.55
7845.85
7844.12
7842.35
7840.56
7838.75
7836.91
7835.06
7833.2
7831.33
7829.45
7827.56
7825.68
7823.8
7821.92
7820.04
7818.18
7816.33
7814.49
7812.66
7810.85
7809.06
7807.29
7805.55
7803.82
7802.12
7800.45
7798.8
7797.18
7795.59
7794.03
7792.5
7791
7789.53
7788.09
7786.68
7785.3
7783.95
7782.64
7781.35
7780.1
7778.87
7777.68
7776.51
7775.38
7774.27
7773.2
7772.15
7771.13
7770.14
7769.18
7768.24
7767.34
7766.45
7765.6
7764.77
7763.96
7763.17
7762.41
7761.67
7760.94
7760.24
7759.56
7758.89
7758.25
7757.61
7757
7756.4
7755.82
7755.25
7754.7
7754.16
7753.64
7753.12
7752.63
7752.14
7751.67
7751.21
7750.76
7750.32
7749.89
7749.47
7749.06
7748.67
7748.28
7747.9
7747.53
7747.18
7746.83
7746.5
7746.16
7745.85
7745.54
7745.24
7744.97
7744.7
7744.4
7744.13
7743.86
7743.62
7743.37
7743.14
7742.91
7742.69
7742.49
7742.28
7742.09
7741.9
7741.71
7741.52
7741.35
7741.16
7741.03
7740.85
7740.6
7740.42
7740.21
7740.04
7739.85
7739.69
7739.51
7739.35
7739.18
7739.02
7738.85
7738.7
7738.52
7738.36
7738.19
7738.03
7737.84
7737.7
7737.51
7737.22
7737.15
7737.01
7736.84
7736.66
7736.47
7736.26
7736.05
7735.82
7735.57
7735.32
7735.05
7734.77
7734.47
7734.16
7733.84
7733.5
7733.15
7732.78
7732.4
7732
7731.59
7731.16
7730.71
7730.26
7729.78
7729.29
7728.79
7728.28
7727.75
7727.2
7726.64
7726.07
7725.49
7724.9
7724.29
7723.68
7723.05
7722.41
7721.77
7721.12
7720.45
7719.79
7719.11
7718.43
7717.75
7717.06
7716.37
7715.68
7714.98
7714.29
7713.59
7712.89
7712.2
7711.5
7710.81
7710.13
7709.44
7708.76
7708.09
7707.42
7706.76
7706.1
7705.45
7704.81
7704.18
7703.55
7702.93
7702.33
7701.73
7701.14
7700.56
7699.99
7699.44
7698.89
7698.35
7697.83
7697.31
7696.8
7696.36
7695.79
7695.34
7649.46
7659.87
7659.85
7672.72
7673.75
7682.12
7688.28
7694.44
7700.16
7705.45
7710.33
7714.92
7719.37
7723.67
7727.7
7731.37
7734.69
7737.88
7741.2
7744.92
7749.15
7753.58
7757.92
7761.66
7764.89
7767.83
7770.44
7772.77
7774.95
7777.13
7779.36
7781.6
7783.82
7786.08
7788.14
7789.78
7791.05
7792.04
7792.82
7793.32
7793.6
7793.69
7793.64
7793.4
7792.97
7792.4
7791.64
7790.69
7789.59
7788.31
7786.84
7785.23
7783.44
7781.49
7779.36
7777.08
7774.63
7772.05
7769.33
7766.49
7763.5
7760.36
7757.09
7753.7
7750.19
7746.56
7742.84
7739.01
7735.09
7731.08
7726.99
7722.84
7718.64
7714.4
7710.11
7705.75
7701.36
7697.07
7692.79
7688.57
7684.88
7679.94
7670.23
7665.04
7658.33
7651.81
7645.37
7638.71
7632.19
7624.39
7617.58
7609.83
7602.71
7594.96
7587.64
7579.67
7572.07
7563.84
7555.74
7547.23
7538.55
7530.78
7522.1
7512.08
7502.69
7492.94
7483.73
7474.41
7465.46
7456.37
7447.49
7438.59
7429.85
7421.22
7412.76
7404.33
7396.14
7387.9
7379.64
7371.99
7363.82
7355.24
7347.44
7339.73
7332.36
7325.17
7318.2
7311.4
7304.79
7298.4
7292.18
7286.15
7280.25
7274.52
7268.93
7263.54
7258.33
7253.33
7248.54
7243.97
7239.64
7235.56
7231.74
7228.18
7224.89
7221.86
7219.13
7216.68
7214.53
7212.65
7211.06
7209.76
7208.75
7208.04
7207.6
7207.45
7207.58
7207.99
7208.68
7209.65
7210.89
7212.39
7214.14
7216.14
7218.4
7220.9
7223.63
7226.6
7229.77
7233.16
7236.76
7240.56
7244.54
7248.71
7253.03
7257.52
7262.15
7266.94
7271.85
7276.9
7282.07
7287.34
7292.7
7298.15
7303.67
7309.25
7314.91
7320.62
7326.38
7332.16
7337.97
7343.79
7349.62
7355.45
7361.27
7367.09
7372.88
7378.63
7384.35
7390.03
7395.66
7401.24
7406.77
7412.23
7417.62
7422.94
7428.19
7433.37
7438.47
7443.48
7448.42
7453.28
7458.07
7462.77
7467.39
7471.93
7476.38
7480.75
7485.05
7489.28
7493.43
7497.5
7501.51
7505.43
7509.29
7513.07
7516.79
7520.45
7524.04
7527.57
7531.03
7534.44
7537.78
7541.07
7544.3
7547.48
7550.6
7553.66
7556.68
7559.64
7562.55
7565.42
7568.24
7571.01
7573.73
7576.41
7579.05
7581.64
7584.2
7586.71
7589.18
7591.62
7594.01
7596.37
7598.69
7600.98
7603.23
7605.45
7607.63
7609.78
7611.9
7613.99
7616.04
7618.07
7620.07
7622.04
7623.98
7625.89
7627.78
7629.64
7631.48
7633.29
7635.08
7636.84
7638.57
7640.28
7641.97
7643.62
7645.25
7646.85
7648.43
7649.97
7651.48
7652.96
7654.41
7655.83
7657.21
7658.55
7659.86
7661.13
7662.35
7663.53
7664.67
7665.76
7666.8
7667.79
7668.73
7669.61
7670.44
7671.21
7671.91
7672.56
7673.14
7673.65
7674.09
7674.47
7674.77
7675
7675.16
7675.24
7675.24
7675.17
7675.02
7674.79
7674.48
7674.09
7673.62
7673.07
7672.45
7671.75
7670.97
7670.11
7669.19
7668.19
7667.12
7665.98
7664.78
7663.51
7662.18
7660.8
7659.36
7657.86
7656.32
7654.74
7653.1
7651.43
7649.73
7647.99
7646.22
7644.42
7642.61
7640.77
7638.91
7637.05
7635.17
7633.29
7631.4
7629.51
7627.62
7625.74
7623.86
7621.99
7620.13
7618.29
7616.46
7614.65
7612.86
7611.09
7609.34
7607.61
7605.91
7604.24
7602.59
7600.97
7599.38
7597.81
7596.28
7594.78
7593.31
7591.87
7590.45
7589.08
7587.73
7586.41
7585.12
7583.87
7582.64
7581.45
7580.28
7579.15
7578.04
7576.96
7575.92
7574.9
7573.91
7572.95
7572.01
7571.1
7570.22
7569.37
7568.53
7567.73
7566.94
7566.18
7565.43
7564.71
7564.01
7563.33
7562.66
7562.02
7561.38
7560.77
7560.17
7559.59
7559.02
7558.47
7557.93
7557.41
7556.9
7556.4
7555.92
7555.44
7554.98
7554.53
7554.09
7553.66
7553.25
7552.84
7552.44
7552.05
7551.68
7551.31
7550.95
7550.6
7550.26
7549.93
7549.64
7549.34
7549.02
7548.73
7548.46
7548.16
7547.91
7547.63
7547.4
7547.14
7546.93
7546.69
7546.49
7546.27
7546.07
7545.87
7545.69
7545.49
7545.37
7545.19
7544.94
7544.76
7544.55
7544.36
7544.17
7543.99
7543.82
7543.64
7543.48
7543.31
7543.14
7542.98
7542.82
7542.65
7542.5
7542.33
7542.17
7542.01
7541.82
7541.55
7541.47
7541.34
7541.18
7541.01
7540.85
7540.68
7540.5
7540.3
7540.1
7539.88
7539.65
7539.41
7539.15
7538.88
7538.6
7538.31
7538
7537.67
7537.34
7536.98
7536.62
7536.23
7535.84
7535.42
7534.99
7534.55
7534.09
7533.62
7533.13
7532.63
7532.11
7531.58
7531.03
7530.48
7529.9
7529.32
7528.73
7528.12
7527.5
7526.87
7526.23
7525.59
7524.93
7524.27
7523.6
7522.93
7522.24
7521.56
7520.87
7520.18
7519.48
7518.78
7518.09
7517.39
7516.69
7515.99
7515.3
7514.61
7513.92
7513.23
7512.55
7511.88
7511.21
7510.54
7509.88
7509.23
7508.59
7507.96
7507.33
7506.71
7506.1
7505.5
7504.91
7504.34
7503.77
7503.21
7502.66
7502.12
7501.6
7501.09
7500.57
7500.13
7499.56
7499.1
7453.46
7464.85
7462.61
7477.1
7479.32
7485.83
7492.04
7498.01
7503.59
7508.82
7513.73
7518.4
7522.98
7527.37
7531.42
7535
7538.26
7541.41
7544.81
7548.67
7552.91
7557.48
7562.06
7566.2
7569.68
7572.61
7575.12
7577.23
7579.07
7581.02
7583.19
7585.42
7587.69
7589.99
7592.1
7593.93
7595.38
7596.49
7597.3
7597.86
7598.17
7598.28
7598.24
7598.03
7597.62
7597.04
7596.29
7595.34
7594.25
7592.96
7591.49
7589.87
7588.08
7586.11
7583.97
7581.67
7579.22
7576.62
7573.89
7571.02
7568
7564.83
7561.53
7558.09
7554.54
7550.89
7547.12
7543.25
7539.28
7535.21
7531.06
7526.83
7522.53
7518.17
7513.74
7509.27
7504.74
7500.08
7495.34
7490.21
7485.08
7480.09
7475.36
7471.32
7465.98
7455.33
7449.57
7442.04
7435.84
7428.31
7421.64
7414.49
7406.47
7399.13
7391.1
7383.5
7375.44
7367.5
7359.16
7350.85
7341.95
7333.04
7323.81
7314.91
7306.49
7297.76
7288.27
7278.79
7269.11
7260.04
7250.95
7242.2
7233.33
7224.73
7216.06
7207.6
7199.21
7190.96
7182.57
7174.49
7166.35
7158.49
7151.01
7143.36
7135.58
7128.32
7121.26
7114.45
7107.87
7101.41
7095.19
7089.05
7083.18
7077.39
7071.85
7066.41
7061.2
7056.18
7051.37
7046.82
7042.47
7038.39
7034.55
7030.99
7027.68
7024.67
7021.93
7019.49
7017.33
7015.44
7013.85
7012.56
7011.56
7010.85
7010.42
7010.28
7010.41
7010.83
7011.54
7012.52
7013.77
7015.28
7017.05
7019.07
7021.35
7023.86
7026.62
7029.6
7032.8
7036.22
7039.84
7043.65
7047.66
7051.84
7056.2
7060.71
7065.38
7070.18
7075.13
7080.2
7085.38
7090.68
7096.06
7101.53
7107.08
7112.69
7118.37
7124.09
7129.87
7135.68
7141.52
7147.36
7153.2
7159.05
7164.88
7170.71
7176.51
7182.29
7188.02
7193.71
7199.35
7204.94
7210.48
7215.96
7221.37
7226.7
7231.97
7237.15
7242.26
7247.29
7252.25
7257.12
7261.91
7266.62
7271.25
7275.8
7280.26
7284.65
7288.96
7293.19
7297.35
7301.43
7305.44
7309.38
7313.25
7317.04
7320.76
7324.42
7328.01
7331.55
7335.02
7338.43
7341.78
7345.07
7348.3
7351.48
7354.6
7357.66
7360.68
7363.64
7366.55
7369.42
7372.24
7375.01
7377.73
7380.41
7383.05
7385.64
7388.19
7390.7
7393.17
7395.6
7397.99
7400.35
7402.67
7404.95
7407.2
7409.41
7411.59
7413.73
7415.85
7417.93
7419.99
7422.01
7424.01
7425.98
7427.91
7429.83
7431.71
7433.57
7435.41
7437.22
7439
7440.76
7442.5
7444.21
7445.89
7447.55
7449.17
7450.78
7452.35
7453.9
7455.41
7456.9
7458.35
7459.77
7461.15
7462.5
7463.8
7465.08
7466.31
7467.49
7468.63
7469.73
7470.77
7471.77
7472.71
7473.6
7474.43
7475.21
7475.92
7476.57
7477.15
7477.67
7478.12
7478.5
7478.81
7479.05
7479.21
7479.29
7479.3
7479.22
7479.07
7478.85
7478.54
7478.15
7477.68
7477.13
7476.51
7475.8
7475.02
7474.16
7473.23
7472.23
7471.15
7470.01
7468.8
7467.53
7466.2
7464.8
7463.36
7461.86
7460.31
7458.71
7457.07
7455.39
7453.68
7451.93
7450.15
7448.35
7446.52
7444.68
7442.81
7440.94
7439.05
7437.16
7435.26
7433.37
7431.47
7429.58
7427.69
7425.82
7423.95
7422.1
7420.27
7418.45
7416.66
7414.88
7413.13
7411.4
7409.69
7408.02
7406.36
7404.74
7403.14
7401.58
7400.04
7398.54
7397.06
7395.62
7394.2
7392.82
7391.47
7390.15
7388.86
7387.61
7386.38
7385.18
7384.02
7382.88
7381.78
7380.7
7379.65
7378.63
7377.65
7376.68
7375.75
7374.84
7373.96
7373.1
7372.27
7371.46
7370.68
7369.91
7369.17
7368.45
7367.74
7367.06
7366.4
7365.75
7365.12
7364.51
7363.91
7363.33
7362.76
7362.21
7361.67
7361.15
7360.64
7360.15
7359.66
7359.19
7358.73
7358.28
7357.84
7357.41
7357
7356.59
7356.19
7355.8
7355.43
7355.05
7354.7
7354.37
7354.04
7353.69
7353.38
7353.07
7352.78
7352.49
7352.21
7351.93
7351.67
7351.41
7351.17
7350.93
7350.69
7350.47
7350.24
7350.05
7349.83
7349.7
7349.5
7349.26
7349.06
7348.86
7348.67
7348.49
7348.31
7348.12
7347.95
7347.76
7347.6
7347.42
7347.26
7347.09
7346.93
7346.78
7346.63
7346.46
7346.31
7346.12
7345.88
7345.81
7345.68
7345.53
7345.38
7345.22
7345.05
7344.89
7344.72
7344.55
7344.36
7344.16
7343.96
7343.74
7343.51
7343.27
7343.01
7342.75
7342.47
7342.18
7341.87
7341.54
7341.21
7340.85
7340.49
7340.11
7339.71
7339.3
7338.87
7338.42
7337.96
7337.49
7337
7336.5
7335.98
7335.45
7334.9
7334.34
7333.77
7333.18
7332.58
7331.97
7331.35
7330.72
7330.08
7329.43
7328.77
7328.1
7327.43
7326.75
7326.07
7325.38
7324.68
7323.99
7323.29
7322.59
7321.89
7321.18
7320.48
7319.78
7319.09
7318.39
7317.7
7317.01
7316.33
7315.65
7314.97
7314.31
7313.65
7313
7312.35
7311.71
7311.09
7310.47
7309.86
7309.26
7308.67
7308.08
7307.51
7306.96
7306.41
7305.87
7305.34
7304.83
7304.31
7303.88
7303.3
7302.84
7257.22
7269.35
7266.45
7280.52
7284.43
7290.32
7296.21
7301.96
7307.44
7312.64
7317.61
7322.42
7327.13
7331.61
7335.82
7339.62
7343.13
7346.64
7350.39
7354.59
7358.97
7363.35
7367.56
7371.53
7375.01
7377.79
7380.27
7382.5
7384.46
7386.44
7388.61
7390.83
7393.03
7395.16
7397.11
7398.83
7400.23
7401.4
7402.27
7402.86
7403.21
7403.36
7403.33
7403.14
7402.74
7402.17
7401.4
7400.45
7399.34
7398.05
7396.58
7394.95
7393.14
7391.15
7388.99
7386.67
7384.19
7381.58
7378.81
7375.89
7372.82
7369.61
7366.27
7362.8
7359.21
7355.49
7351.67
7347.75
7343.7
7339.56
7335.32
7330.98
7326.55
7322.03
7317.42
7312.7
7307.82
7302.79
7298.41
7293.11
7287.84
7282.42
7276.65
7270.88
7265.08
7259.57
7254.32
7249.88
7244.01
7232.63
7226.34
7218.06
7210.94
7203.03
7195.82
7186.96
7179.35
7170.54
7162.57
7153.64
7145.2
7136.12
7127.49
7118.39
7109.36
7099.96
7090.82
7081.52
7073.02
7064.37
7054.89
7045.65
7036.56
7027.75
7019.15
7010.49
7002.12
6993.65
6985.46
6977.29
6969.32
6961.27
6953.55
6945.76
6938.36
6931.2
6924.09
6917.01
6910.31
6903.87
6897.59
6891.53
6885.55
6879.79
6874.16
6868.75
6863.53
6858.52
6853.72
6849.14
6844.79
6840.7
6836.87
6833.27
6829.97
6826.95
6824.22
6821.77
6819.61
6817.72
6816.13
6814.85
6813.86
6813.15
6812.73
6812.6
6812.76
6813.19
6813.91
6814.9
6816.18
6817.71
6819.51
6821.56
6823.86
6826.41
6829.19
6832.2
6835.44
6838.88
6842.53
6846.38
6850.42
6854.64
6859.03
6863.58
6868.29
6873.13
6878.12
6883.23
6888.44
6893.77
6899.19
6904.7
6910.29
6915.94
6921.65
6927.41
6933.21
6939.05
6944.91
6950.79
6956.67
6962.54
6968.4
6974.24
6980.07
6985.86
6991.62
6997.33
7002.99
7008.6
7014.16
7019.66
7025.09
7030.44
7035.72
7040.92
7046.05
7051.1
7056.08
7060.97
7065.78
7070.5
7075.15
7079.71
7084.19
7088.6
7092.93
7097.17
7101.34
7105.43
7109.45
7113.39
7117.28
7121.08
7124.82
7128.48
7132.08
7135.61
7139.09
7142.51
7145.86
7149.16
7152.39
7155.57
7158.7
7161.76
7164.78
7167.75
7170.66
7173.53
7176.34
7179.11
7181.83
7184.5
7187.14
7189.73
7192.28
7194.79
7197.25
7199.67
7202.06
7204.41
7206.72
7209
7211.24
7213.45
7215.62
7217.77
7219.88
7221.96
7224
7226.02
7228.02
7229.98
7231.92
7233.82
7235.71
7237.56
7239.4
7241.2
7242.99
7244.74
7246.48
7248.19
7249.87
7251.53
7253.16
7254.76
7256.34
7257.89
7259.41
7260.89
7262.35
7263.77
7265.16
7266.51
7267.82
7269.1
7270.34
7271.53
7272.68
7273.78
7274.83
7275.84
7276.79
7277.69
7278.53
7279.31
7280.03
7280.69
7281.28
7281.81
7282.27
7282.65
7282.97
7283.21
7283.38
7283.46
7283.47
7283.41
7283.26
7283.03
7282.73
7282.34
7281.87
7281.32
7280.69
7279.99
7279.2
7278.34
7277.4
7276.39
7275.31
7274.16
7272.94
7271.66
7270.32
7268.92
7267.46
7265.95
7264.38
7262.78
7261.12
7259.43
7257.7
7255.94
7254.15
7252.34
7250.5
7248.64
7246.76
7244.87
7242.97
7241.07
7239.16
7237.25
7235.34
7233.44
7231.55
7229.66
7227.79
7225.93
7224.08
7222.26
7220.45
7218.67
7216.91
7215.17
7213.46
7211.78
7210.12
7208.49
7206.89
7205.32
7203.78
7202.27
7200.79
7199.34
7197.92
7196.54
7195.18
7193.86
7192.57
7191.31
7190.09
7188.89
7187.72
7186.59
7185.48
7184.4
7183.36
7182.34
7181.35
7180.39
7179.45
7178.55
7177.66
7176.81
7175.97
7175.16
7174.38
7173.61
7172.87
7172.15
7171.45
7170.77
7170.1
7169.46
7168.83
7168.21
7167.62
7167.04
7166.48
7165.92
7165.39
7164.87
7164.36
7163.86
7163.38
7162.91
7162.45
7162
7161.57
7161.14
7160.72
7160.31
7159.91
7159.52
7159.16
7158.8
7158.42
7158.08
7157.75
7157.42
7157.11
7156.8
7156.51
7156.21
7155.95
7155.66
7155.42
7155.13
7154.91
7154.64
7154.44
7154.2
7154.05
7153.83
7153.59
7153.38
7153.17
7152.97
7152.79
7152.6
7152.41
7152.23
7152.04
7151.87
7151.69
7151.52
7151.35
7151.2
7151.04
7150.9
7150.73
7150.59
7150.39
7150.17
7150.11
7149.99
7149.84
7149.7
7149.55
7149.39
7149.25
7149.1
7148.94
7148.78
7148.61
7148.43
7148.24
7148.05
7147.84
7147.63
7147.4
7147.16
7146.91
7146.65
7146.37
7146.08
7145.77
7145.45
7145.12
7144.77
7144.4
7144.02
7143.62
7143.21
7142.78
7142.34
7141.88
7141.4
7140.91
7140.4
7139.88
7139.35
7138.8
7138.24
7137.66
7137.07
7136.47
7135.85
7135.23
7134.59
7133.94
7133.29
7132.63
7131.95
7131.28
7130.59
7129.9
7129.2
7128.51
7127.8
7127.1
7126.39
7125.69
7124.98
7124.27
7123.57
7122.87
7122.17
7121.47
7120.78
7120.09
7119.41
7118.73
7118.06
7117.39
7116.74
7116.09
7115.45
7114.82
7114.2
7113.59
7112.98
7112.39
7111.81
7111.24
7110.68
7110.13
7109.59
7109.06
7108.55
7108.03
7107.59
7107.01
7106.56
7061.24
7074.63
7071.19
7084.07
7089.07
7094.91
7100.7
7106.33
7111.77
7117.01
7122.05
7126.99
7131.81
7136.44
7140.83
7144.95
7148.89
7152.83
7156.8
7160.89
7165
7169.07
7172.96
7176.58
7179.9
7182.95
7185.72
7188.25
7190.56
7192.79
7194.95
7197.06
7199.09
7201.01
7202.78
7204.35
7205.72
7206.84
7207.72
7208.31
7208.68
7208.86
7208.86
7208.67
7208.28
7207.71
7206.94
7205.98
7204.86
7203.55
7202.06
7200.41
7198.59
7196.58
7194.39
7192.03
7189.53
7186.87
7184.05
7181.08
7177.97
7174.71
7171.33
7167.81
7164.16
7160.38
7156.49
7152.48
7148.36
7144.12
7139.77
7135.32
7130.76
7126.1
7121.35
7116.51
7111.59
7106.53
7101.4
7096.08
7090.65
7085.14
7079.48
7073.81
7067.98
7061.61
7055.3
7049.09
7043.16
7037.49
7032.79
7026.46
7014.41
7007.46
6998.84
6991.36
6983.06
6975.4
6965.96
6957.87
6948.55
6940.14
6930.82
6922.1
6912.72
6903.84
6894.76
6885.4
6876.26
6866.78
6857.68
6849.11
6840.44
6831.31
6822.17
6813.4
6804.86
6796.54
6788.12
6780.01
6771.82
6764
6756.14
6748.59
6740.9
6733.6
6726.19
6719.27
6712.5
6705.91
6699.47
6693.21
6687.37
6681.5
6675.98
6670.51
6665.25
6660.2
6655.36
6650.85
6646.46
6642.4
6638.52
6634.96
6631.64
6628.66
6625.92
6623.49
6621.31
6619.44
6617.87
6616.6
6615.62
6614.92
6614.52
6614.41
6614.59
6615.05
6615.8
6616.82
6618.12
6619.68
6621.51
6623.6
6625.94
6628.52
6631.34
6634.39
6637.67
6641.16
6644.85
6648.75
6652.83
6657.09
6661.53
6666.13
6670.89
6675.79
6680.83
6685.98
6691.25
6696.62
6702.09
6707.64
6713.29
6718.99
6724.75
6730.55
6736.39
6742.27
6748.17
6754.09
6760.01
6765.92
6771.82
6777.69
6783.54
6789.36
6795.15
6800.9
6806.59
6812.23
6817.81
6823.33
6828.78
6834.16
6839.46
6844.69
6849.85
6854.93
6859.93
6864.84
6869.67
6874.42
6879.08
6883.67
6888.17
6892.6
6896.94
6901.21
6905.39
6909.5
6913.53
6917.49
6921.38
6925.2
6928.95
6932.63
6936.24
6939.78
6943.26
6946.68
6950.04
6953.35
6956.58
6959.77
6962.89
6965.97
6968.98
6971.95
6974.87
6977.73
6980.54
6983.31
6986.02
6988.7
6991.33
6993.92
6996.46
6998.96
7001.42
7003.83
7006.21
7008.56
7010.86
7013.14
7015.37
7017.57
7019.74
7021.87
7023.98
7026.05
7028.09
7030.11
7032.09
7034.05
7035.98
7037.89
7039.77
7041.62
7043.45
7045.25
7047.03
7048.79
7050.52
7052.23
7053.92
7055.57
7057.21
7058.81
7060.39
7061.94
7063.46
7064.95
7066.41
7067.84
7069.23
7070.59
7071.92
7073.2
7074.44
7075.65
7076.8
7077.92
7078.98
7080
7080.96
7081.87
7082.72
7083.51
7084.25
7084.92
7085.52
7086.06
7086.52
7086.92
7087.25
7087.5
7087.67
7087.77
7087.78
7087.72
7087.58
7087.35
7087.05
7086.66
7086.19
7085.64
7085.01
7084.3
7083.51
7082.64
7081.7
7080.68
7079.59
7078.43
7077.2
7075.91
7074.55
7073.13
7071.66
7070.13
7068.56
7066.93
7065.26
7063.55
7061.81
7060.03
7058.22
7056.38
7054.53
7052.65
7050.76
7048.85
7046.93
7045.01
7043.09
7041.16
7039.24
7037.33
7035.42
7033.52
7031.63
7029.76
7027.9
7026.07
7024.25
7022.45
7020.68
7018.94
7017.22
7015.52
7013.86
7012.22
7010.62
7009.04
7007.49
7005.98
7004.49
7003.04
7001.62
7000.23
6998.87
6997.54
6996.25
6994.99
6993.76
6992.56
6991.4
6990.26
6989.15
6988.08
6987.03
6986.01
6985.02
6984.06
6983.12
6982.21
6981.33
6980.47
6979.64
6978.83
6978.04
6977.28
6976.54
6975.81
6975.11
6974.43
6973.77
6973.12
6972.49
6971.89
6971.29
6970.71
6970.15
6969.6
6969.06
6968.55
6968.04
6967.55
6967.06
6966.6
6966.14
6965.69
6965.26
6964.82
6964.41
6964.01
6963.63
6963.22
6962.85
6962.49
6962.14
6961.79
6961.47
6961.13
6960.83
6960.52
6960.23
6959.94
6959.66
6959.39
6959.13
6958.88
6958.67
6958.44
6958.15
6957.94
6957.69
6957.5
6957.27
6957.1
6956.88
6956.69
6956.5
6956.31
6956.13
6955.95
6955.77
6955.6
6955.45
6955.29
6955.13
6954.97
6954.81
6954.64
6954.43
6954.37
6954.26
6954.12
6953.98
6953.84
6953.7
6953.57
6953.43
6953.29
6953.14
6952.99
6952.84
6952.68
6952.52
6952.34
6952.16
6951.96
6951.76
6951.55
6951.32
6951.09
6950.84
6950.58
6950.31
6950.02
6949.71
6949.4
6949.06
6948.71
6948.35
6947.97
6947.57
6947.16
6946.73
6946.29
6945.83
6945.35
6944.86
6944.35
6943.83
6943.29
6942.73
6942.16
6941.58
6940.99
6940.38
6939.76
6939.13
6938.49
6937.83
6937.17
6936.5
6935.82
6935.13
6934.44
6933.74
6933.04
6932.33
6931.62
6930.91
6930.2
6929.48
6928.77
6928.06
6927.35
6926.64
6925.93
6925.23
6924.53
6923.84
6923.15
6922.47
6921.79
6921.12
6920.46
6919.81
6919.17
6918.53
6917.91
6917.29
6916.69
6916.09
6915.51
6914.93
6914.37
6913.82
6913.28
6912.75
6912.23
6911.71
6911.28
6910.7
6910.24
6865.83
6880.57
6876
6887.86
6893.59
6899.56
6905.41
6911.07
6916.56
6921.88
6927
6932.09
6937.02
6941.79
6946.36
6950.72
6954.93
6959.08
6963.18
6967.25
6971.27
6975.19
6978.95
6982.5
6985.78
6988.83
6991.67
6994.32
6996.78
6999.14
7001.38
7003.48
7005.46
7007.29
7008.98
7010.48
7011.78
7012.86
7013.69
7014.28
7014.66
7014.84
7014.84
7014.65
7014.25
7013.67
7012.89
7011.92
7010.78
7009.46
7007.95
7006.27
7004.42
7002.37
7000.15
6997.76
6995.21
6992.51
6989.65
6986.63
6983.46
6980.15
6976.72
6973.14
6969.42
6965.57
6961.6
6957.5
6953.29
6948.95
6944.48
6939.9
6935.21
6930.4
6925.5
6920.49
6915.41
6910.17
6904.83
6899.36
6893.77
6888.04
6882.18
6876.25
6870.2
6864.1
6857.87
6851.63
6845.74
6838.93
6832.26
6825.69
6819.15
6813.97
6807.29
6794.72
6787.19
6778.11
6770.09
6761.33
6753.05
6743.29
6734.76
6725.2
6716.47
6706.98
6698.01
6688.35
6679.35
6670.24
6661.23
6651.86
6642.51
6633.43
6624.88
6616.36
6607.58
6598.73
6590.37
6582.15
6574.2
6566.09
6558.34
6550.51
6543.1
6535.61
6528.5
6521.24
6514.37
6507.37
6500.94
6494.6
6488.51
6482.65
6476.9
6471.49
6466.36
6461.35
6456.54
6451.91
6447.56
6443.44
6439.67
6436.07
6432.8
6429.77
6427.07
6424.61
6422.48
6420.61
6419.06
6417.79
6416.83
6416.15
6415.77
6415.68
6415.9
6416.38
6417.16
6418.22
6419.54
6421.15
6423.02
6425.16
6427.55
6430.18
6433.05
6436.15
6439.47
6443.03
6446.78
6450.74
6454.88
6459.2
6463.69
6468.35
6473.18
6478.15
6483.25
6488.46
6493.79
6499.22
6504.75
6510.37
6516.07
6521.85
6527.67
6533.53
6539.42
6545.34
6551.29
6557.25
6563.22
6569.19
6575.13
6581.05
6586.94
6592.8
6598.63
6604.41
6610.15
6615.82
6621.43
6626.98
6632.46
6637.87
6643.2
6648.47
6653.66
6658.77
6663.8
6668.73
6673.59
6678.37
6683.06
6687.68
6692.21
6696.65
6701.01
6705.3
6709.51
6713.64
6717.69
6721.67
6725.57
6729.4
6733.17
6736.86
6740.49
6744.05
6747.54
6750.96
6754.32
6757.63
6760.87
6764.06
6767.19
6770.27
6773.29
6776.26
6779.17
6782.03
6784.84
6787.61
6790.32
6792.99
6795.62
6798.2
6800.73
6803.23
6805.68
6808.09
6810.46
6812.8
6815.09
6817.36
6819.58
6821.78
6823.93
6826.06
6828.16
6830.22
6832.25
6834.26
6836.23
6838.19
6840.11
6842.01
6843.89
6845.74
6847.56
6849.36
6851.14
6852.9
6854.63
6856.34
6858.02
6859.68
6861.31
6862.92
6864.5
6866.06
6867.58
6869.08
6870.55
6871.98
6873.38
6874.75
6876.08
6877.38
6878.63
6879.84
6881.01
6882.14
6883.22
6884.25
6885.22
6886.15
6887.01
6887.82
6888.57
6889.25
6889.87
6890.42
6890.9
6891.31
6891.65
6891.91
6892.09
6892.2
6892.22
6892.17
6892.03
6891.81
6891.51
6891.12
6890.65
6890.1
6889.46
6888.75
6887.95
6887.08
6886.13
6885.1
6883.99
6882.82
6881.58
6880.27
6878.89
6877.46
6875.97
6874.42
6872.82
6871.18
6869.49
6867.76
6865.99
6864.19
6862.36
6860.5
6858.62
6856.72
6854.8
6852.88
6850.94
6849
6847.05
6845.1
6843.16
6841.23
6839.3
6837.39
6835.48
6833.6
6831.72
6829.87
6828.04
6826.23
6824.45
6822.69
6820.96
6819.25
6817.58
6815.93
6814.32
6812.73
6811.18
6809.65
6808.16
6806.7
6805.28
6803.88
6802.52
6801.19
6799.89
6798.63
6797.4
6796.2
6795.03
6793.89
6792.79
6791.71
6790.66
6789.65
6788.65
6787.69
6786.76
6785.85
6784.96
6784.11
6783.27
6782.46
6781.67
6780.91
6780.17
6779.45
6778.74
6778.06
6777.4
6776.76
6776.13
6775.52
6774.93
6774.35
6773.8
6773.25
6772.72
6772.2
6771.7
6771.2
6770.73
6770.26
6769.8
6769.35
6768.93
6768.5
6768.08
6767.67
6767.29
6766.9
6766.53
6766.17
6765.81
6765.47
6765.14
6764.81
6764.51
6764.19
6763.9
6763.61
6763.34
6763.1
6762.86
6762.55
6762.33
6762.06
6761.86
6761.61
6761.42
6761.19
6760.99
6760.78
6760.59
6760.39
6760.2
6760.01
6759.83
6759.67
6759.5
6759.34
6759.17
6758.98
6758.78
6758.73
6758.62
6758.5
6758.36
6758.23
6758.1
6757.97
6757.84
6757.72
6757.59
6757.46
6757.32
6757.19
6757.05
6756.9
6756.75
6756.59
6756.42
6756.26
6756.08
6755.9
6755.7
6755.49
6755.27
6755.04
6754.8
6754.55
6754.28
6753.99
6753.69
6753.38
6753.05
6752.7
6752.34
6751.96
6751.56
6751.15
6750.72
6750.28
6749.82
6749.34
6748.84
6748.33
6747.8
6747.26
6746.7
6746.13
6745.54
6744.94
6744.32
6743.7
6743.06
6742.41
6741.74
6741.07
6740.39
6739.7
6739.01
6738.31
6737.6
6736.89
6736.17
6735.45
6734.73
6734.01
6733.28
6732.56
6731.84
6731.12
6730.4
6729.69
6728.98
6728.27
6727.57
6726.87
6726.19
6725.5
6724.83
6724.17
6723.51
6722.86
6722.22
6721.59
6720.97
6720.36
6719.76
6719.18
6718.6
6718.04
6717.48
6716.94
6716.41
6715.89
6715.37
6714.93
6714.35
6713.9
6670.6
6685.41
6681.64
6692.57
6698.5
6704.54
6710.46
6716.21
6721.8
6727.24
6732.51
6737.69
6742.73
6747.6
6752.3
6756.84
6761.24
6765.52
6769.71
6773.8
6777.79
6781.64
6785.34
6788.84
6792.14
6795.22
6798.16
6800.91
6803.48
6805.89
6808.16
6810.27
6812.23
6814.03
6815.68
6817.14
6818.38
6819.39
6820.17
6820.75
6821.13
6821.31
6821.29
6821.08
6820.66
6820.07
6819.28
6818.29
6817.12
6815.77
6814.23
6812.51
6810.61
6808.53
6806.27
6803.84
6801.25
6798.51
6795.6
6792.54
6789.32
6785.95
6782.44
6778.79
6775
6771.06
6766.99
6762.79
6758.48
6754.03
6749.44
6744.73
6739.89
6734.95
6729.9
6724.75
6719.48
6714.1
6708.59
6702.95
6697.19
6691.32
6685.36
6679.29
6673.09
6666.77
6660.39
6653.97
6647.53
6640.96
6634.48
6628.04
6619.23
6612.54
6605.74
6599.02
6593.63
6586.66
6573.48
6565.3
6555.61
6547.42
6538.36
6529.81
6519.69
6510.92
6501.23
6492.35
6482.87
6473.81
6464.35
6455.13
6446.24
6437.07
6427.82
6418.42
6409.56
6401.08
6392.78
6384.34
6375.86
6367.97
6360.07
6352.52
6344.68
6337.36
6329.88
6322.94
6315.83
6309.15
6302.37
6295.87
6289.45
6283.34
6277.54
6271.87
6266.46
6261.54
6256.62
6252.33
6247.93
6243.89
6239.98
6236.46
6233.15
6230.27
6227.52
6225.12
6222.96
6221.14
6219.61
6218.4
6217.45
6216.8
6216.45
6216.4
6216.66
6217.2
6218.02
6219.12
6220.48
6222.14
6224.06
6226.26
6228.7
6231.39
6234.32
6237.47
6240.86
6244.48
6248.32
6252.34
6256.55
6260.94
6265.51
6270.25
6275.15
6280.2
6285.37
6290.66
6296.07
6301.58
6307.18
6312.88
6318.65
6324.5
6330.39
6336.33
6342.29
6348.27
6354.28
6360.3
6366.33
6372.35
6378.36
6384.33
6390.28
6396.19
6402.06
6407.89
6413.67
6419.38
6425.03
6430.62
6436.14
6441.58
6446.96
6452.27
6457.49
6462.64
6467.69
6472.66
6477.55
6482.36
6487.09
6491.74
6496.3
6500.77
6505.15
6509.47
6513.7
6517.85
6521.93
6525.92
6529.84
6533.69
6537.47
6541.18
6544.83
6548.4
6551.9
6555.34
6558.71
6562.01
6565.27
6568.46
6571.6
6574.67
6577.7
6580.66
6583.57
6586.44
6589.25
6592.01
6594.72
6597.38
6600
6602.57
6605.1
6607.59
6610.03
6612.43
6614.8
6617.12
6619.41
6621.66
6623.88
6626.06
6628.21
6630.32
6632.41
6634.46
6636.49
6638.48
6640.45
6642.39
6644.31
6646.21
6648.07
6649.92
6651.74
6653.54
6655.31
6657.06
6658.79
6660.5
6662.18
6663.84
6665.48
6667.09
6668.67
6670.23
6671.76
6673.27
6674.74
6676.19
6677.6
6678.98
6680.32
6681.63
6682.89
6684.12
6685.31
6686.45
6687.54
6688.59
6689.58
6690.52
6691.41
6692.23
6693
6693.7
6694.33
6694.9
6695.4
6695.82
6696.17
6696.45
6696.64
6696.76
6696.79
6696.74
6696.61
6696.4
6696.1
6695.72
6695.25
6694.69
6694.05
6693.33
6692.53
6691.65
6690.68
6689.64
6688.52
6687.33
6686.07
6684.74
6683.35
6681.89
6680.38
6678.81
6677.18
6675.51
6673.8
6672.04
6670.25
6668.42
6666.56
6664.68
6662.77
6660.84
6658.9
6656.95
6654.98
6653.01
6651.04
6649.07
6647.11
6645.15
6643.2
6641.26
6639.34
6637.43
6635.54
6633.68
6631.83
6630
6628.2
6626.43
6624.68
6622.97
6621.28
6619.62
6617.99
6616.4
6614.84
6613.3
6611.81
6610.34
6608.91
6607.51
6606.14
6604.81
6603.51
6602.24
6601.01
6599.8
6598.63
6597.5
6596.39
6595.31
6594.26
6593.24
6592.25
6591.29
6590.35
6589.44
6588.56
6587.7
6586.86
6586.05
6585.27
6584.5
6583.76
6583.04
6582.34
6581.66