/*--------------------------------*- C++ -*----------------------------------*\
| =========                 |                                                 |
| \\      /  F ield         | OpenFOAM: The Open Source CFD Toolbox           |
|  \\    /   O peration     | Version:  v2006                                 |
|   \\  /    A nd           | Website:  www.openfoam.com                      |
|    \\/     M anipulation  |                                                 |
\*---------------------------------------------------------------------------*/
FoamFile
{
    version     2.0;
    format      ascii;
    class       volScalarField;
    location    "9";
    object      p_rgh;
}
// * * * * * * * * * * * * * * * * * * * * * * * * * * * * * * * * * * * * * //

dimensions      [1 -1 -2 0 0 0 0];


internalField   nonuniform List<scalar> 
33000
(
7943.87
7953.08
7956.47
7964.89
7970.1
7976.49
7982.93
7989.27
7995.15
8000.53
8005.37
8009.84
8014.08
8018.18
8022.07
8025.81
8029.34
8032.74
8036.2
8039.87
8043.72
8047.82
8051.86
8055.43
8058.59
8061.58
8064.35
8066.84
8069.15
8071.4
8073.62
8075.79
8078.04
8080.23
8082.17
8083.75
8084.98
8085.91
8086.6
8087.11
8087.41
8087.52
8087.48
8087.2
8086.8
8086.24
8085.47
8084.54
8083.43
8082.12
8080.7
8079.1
8077.33
8075.38
8073.27
8071
8068.57
8065.99
8063.27
8060.41
8057.39
8054.25
8051.06
8047.7
8044.22
8040.62
8036.92
8033.13
8029.24
8025.27
8021.23
8017.15
8013.05
8008.97
8004.92
8001.05
7997.39
7993.96
7989.98
7981.4
7977.08
7971.18
7964.99
7959.08
7952.91
7945.85
7939.5
7932.3
7925.74
7918.36
7911.47
7904.05
7896.83
7889.44
7882.18
7874.6
7867.46
7859.45
7852.98
7844.37
7833.9
7824.7
7814.79
7805.77
7796.41
7787.26
7778.08
7768.9
7759.76
7750.72
7741.78
7733
7724.4
7715.93
7707.72
7699.39
7691.86
7683.48
7674.24
7666.03
7657.69
7649.72
7641.88
7634.29
7626.93
7619.77
7612.81
7606.03
7599.46
7593.03
7586.82
7580.8
7574.96
7569.22
7563.67
7558.27
7553.07
7548.07
7543.27
7538.69
7534.35
7530.28
7526.48
7522.95
7519.66
7516.65
7513.9
7511.43
7509.29
7507.44
7505.85
7504.54
7503.51
7502.8
7502.36
7502.23
7502.36
7502.77
7503.45
7504.41
7505.64
7507.13
7508.88
7510.88
7513.12
7515.61
7518.34
7521.29
7524.45
7527.82
7531.4
7535.2
7539.18
7543.33
7547.64
7552.09
7556.71
7561.48
7566.41
7571.45
7576.61
7581.86
7587.2
7592.64
7598.14
7603.73
7609.38
7615.08
7620.82
7626.57
7632.37
7638.18
7644.01
7649.84
7655.67
7661.47
7667.25
7672.99
7678.69
7684.36
7689.99
7695.58
7701.11
7706.56
7711.94
7717.25
7722.49
7727.67
7732.77
7737.77
7742.7
7747.55
7752.35
7757.05
7761.66
7766.19
7770.63
7774.98
7779.28
7783.51
7787.67
7791.74
7795.74
7799.65
7803.49
7807.27
7811
7814.66
7818.25
7821.78
7825.24
7828.63
7831.97
7835.25
7838.49
7841.67
7844.79
7847.86
7850.87
7853.83
7856.74
7859.61
7862.42
7865.2
7867.93
7870.61
7873.25
7875.85
7878.39
7880.91
7883.39
7885.83
7888.22
7890.58
7892.9
7895.18
7897.44
7899.66
7901.85
7904
7906.12
7908.21
7910.27
7912.3
7914.3
7916.27
7918.21
7920.12
7922.01
7923.88
7925.72
7927.53
7929.32
7931.08
7932.81
7934.51
7936.2
7937.86
7939.49
7941.09
7942.66
7944.21
7945.72
7947.19
7948.64
7950.06
7951.44
7952.78
7954.09
7955.35
7956.57
7957.75
7958.88
7959.97
7961.01
7962
7962.94
7963.81
7964.64
7965.4
7966.11
7966.75
7967.33
7967.84
7968.28
7968.65
7968.95
7969.18
7969.34
7969.41
7969.42
7969.34
7969.19
7968.96
7968.65
7968.26
7967.79
7967.24
7966.62
7965.92
7965.14
7964.29
7963.36
7962.37
7961.3
7960.17
7958.97
7957.7
7956.38
7954.99
7953.56
7952.07
7950.53
7948.95
7947.32
7945.65
7943.95
7942.22
7940.45
7938.66
7936.85
7935.01
7933.16
7931.3
7929.43
7927.55
7925.66
7923.78
7921.9
7920.02
7918.14
7916.28
7914.43
7912.59
7910.76
7908.95
7907.16
7905.39
7903.65
7901.92
7900.22
7898.55
7896.9
7895.28
7893.69
7892.13
7890.6
7889.1
7887.63
7886.19
7884.78
7883.4
7882.05
7880.74
7879.45
7878.2
7876.97
7875.78
7874.61
7873.48
7872.37
7871.3
7870.25
7869.23
7868.24
7867.28
7866.34
7865.44
7864.55
7863.7
7862.87
7862.06
7861.27
7860.51
7859.77
7859.04
7858.34
7857.66
7856.99
7856.35
7855.71
7855.1
7854.5
7853.92
7853.35
7852.8
7852.26
7851.74
7851.22
7850.73
7850.24
7849.77
7849.31
7848.86
7848.42
7847.99
7847.57
7847.16
7846.77
7846.38
7846
7845.63
7845.28
7844.93
7844.6
7844.26
7843.95
7843.64
7843.34
7843.07
7842.8
7842.5
7842.23
7841.96
7841.72
7841.47
7841.24
7841.01
7840.79
7840.59
7840.38
7840.19
7840
7839.81
7839.62
7839.45
7839.26
7839.13
7838.95
7838.7
7838.52
7838.31
7838.14
7837.95
7837.79
7837.61
7837.45
7837.28
7837.12
7836.95
7836.8
7836.62
7836.46
7836.29
7836.13
7835.94
7835.8
7835.61
7835.32
7835.25
7835.11
7834.94
7834.76
7834.57
7834.36
7834.14
7833.91
7833.67
7833.42
7833.15
7832.86
7832.57
7832.26
7831.94
7831.6
7831.24
7830.88
7830.49
7830.1
7829.68
7829.26
7828.81
7828.36
7827.88
7827.39
7826.89
7826.38
7825.85
7825.3
7824.74
7824.17
7823.59
7823
7822.39
7821.77
7821.15
7820.51
7819.87
7819.21
7818.55
7817.89
7817.21
7816.53
7815.85
7815.16
7814.47
7813.78
7813.08
7812.39
7811.69
7810.99
7810.3
7809.6
7808.91
7808.23
7807.54
7806.86
7806.19
7805.52
7804.86
7804.2
7803.55
7802.91
7802.28
7801.65
7801.03
7800.43
7799.83
7799.24
7798.66
7798.09
7797.54
7796.99
7796.45
7795.93
7795.41
7794.9
7794.46
7793.89
7793.44
7943.76
7954.17
7954.15
7967.03
7968.05
7976.42
7982.58
7988.74
7994.46
7999.75
8004.62
8009.17
8013.47
8017.7
8021.74
8025.45
8028.9
8032.16
8035.5
8039.22
8043.45
8047.88
8052.22
8055.96
8059.19
8062.13
8064.74
8067.07
8069.25
8071.43
8073.66
8075.9
8078.12
8080.38
8082.44
8084.08
8085.35
8086.27
8086.96
8087.57
8087.9
8087.99
8087.87
8087.48
8087.15
8086.68
8085.93
8084.97
8083.78
8082.44
8081.07
8079.52
8077.74
8075.79
8073.66
8071.38
8068.93
8066.34
8063.54
8060.58
8057.59
8054.46
8051.23
8047.95
8044.48
8040.86
8037.14
8033.31
8029.39
8025.36
8021.18
8016.98
8012.79
8008.56
8004.38
8000.04
7995.66
7991.36
7987.08
7982.84
7979.08
7974.15
7964.51
7959.34
7952.63
7946.11
7939.67
7933.01
7926.49
7918.68
7911.84
7904.02
7896.9
7889.23
7881.94
7873.97
7866.36
7858.13
7850.03
7841.5
7832.77
7824.99
7816.32
7806.29
7796.91
7787.22
7778.03
7768.71
7759.74
7750.6
7741.68
7732.78
7724.06
7715.5
7707.06
7698.63
7690.41
7682.15
7673.91
7666.29
7658.1
7649.47
7641.65
7633.94
7626.58
7619.46
7612.49
7605.7
7599.06
7592.61
7586.38
7580.39
7574.54
7568.81
7563.23
7557.83
7552.63
7547.62
7542.81
7538.19
7533.86
7529.78
7525.96
7522.46
7519.17
7516.14
7513.36
7510.9
7508.77
7506.94
7505.35
7504.04
7503.01
7502.29
7501.85
7501.73
7501.87
7502.28
7502.97
7503.93
7505.17
7506.68
7508.44
7510.43
7512.66
7515.17
7517.93
7520.89
7524.05
7527.41
7531.01
7534.85
7538.84
7543
7547.33
7551.78
7556.39
7561.17
7566.09
7571.17
7576.37
7581.64
7587
7592.44
7597.92
7603.5
7609.18
7614.91
7620.67
7626.44
7632.22
7638.04
7643.87
7649.72
7655.57
7661.39
7667.17
7672.9
7678.61
7684.28
7689.92
7695.54
7701.06
7706.52
7711.89
7717.22
7722.47
7727.66
7732.76
7737.77
7742.68
7747.54
7752.36
7757.07
7761.69
7766.23
7770.67
7775.01
7779.31
7783.54
7787.72
7791.8
7795.8
7799.72
7803.55
7807.34
7811.06
7814.73
7818.34
7821.87
7825.33
7828.71
7832.05
7835.34
7838.57
7841.77
7844.9
7847.96
7850.98
7853.93
7856.84
7859.68
7862.5
7865.27
7868.02
7870.71
7873.35
7875.94
7878.47
7880.99
7883.48
7885.92
7888.31
7890.67
7892.98
7895.26
7897.51
7899.73
7901.92
7904.08
7906.19
7908.28
7910.33
7912.37
7914.37
7916.34
7918.27
7920.17
7922.06
7923.94
7925.78
7927.59
7929.38
7931.14
7932.86
7934.57
7936.25
7937.92
7939.55
7941.15
7942.73
7944.27
7945.78
7947.25
7948.7
7950.13
7951.51
7952.85
7954.16
7955.43
7956.65
7957.83
7958.96
7960.06
7961.1
7962.09
7963.03
7963.91
7964.73
7965.5
7966.21
7966.86
7967.44
7967.95
7968.39
7968.77
7969.07
7969.3
7969.46
7969.54
7969.54
7969.47
7969.32
7969.09
7968.78
7968.39
7967.92
7967.37
7966.75
7966.05
7965.27
7964.41
7963.49
7962.49
7961.42
7960.28
7959.08
7957.81
7956.48
7955.1
7953.66
7952.17
7950.62
7949.04
7947.4
7945.73
7944.03
7942.29
7940.52
7938.72
7936.91
7935.07
7933.21
7931.35
7929.47
7927.59
7925.7
7923.81
7921.92
7920.04
7918.16
7916.29
7914.44
7912.59
7910.76
7908.95
7907.16
7905.39
7903.64
7901.91
7900.21
7898.54
7896.89
7895.27
7893.68
7892.11
7890.58
7889.08
7887.61
7886.17
7884.75
7883.37
7882.03
7880.71
7879.42
7878.17
7876.94
7875.74
7874.58
7873.44
7872.34
7871.26
7870.22
7869.2
7868.21
7867.25
7866.31
7865.4
7864.52
7863.67
7862.83
7862.03
7861.24
7860.48
7859.73
7859.01
7858.31
7857.63
7856.96
7856.31
7855.68
7855.07
7854.47
7853.89
7853.32
7852.77
7852.23
7851.71
7851.2
7850.7
7850.21
7849.74
7849.28
7848.83
7848.39
7847.96
7847.55
7847.14
7846.74
7846.35
7845.98
7845.61
7845.25
7844.9
7844.57
7844.23
7843.94
7843.64
7843.32
7843.03
7842.76
7842.46
7842.21
7841.93
7841.7
7841.44
7841.23
7840.99
7840.79
7840.57
7840.37
7840.16
7839.98
7839.79
7839.67
7839.49
7839.24
7839.05
7838.85
7838.66
7838.47
7838.29
7838.12
7837.94
7837.77
7837.61
7837.44
7837.28
7837.12
7836.95
7836.8
7836.63
7836.47
7836.31
7836.12
7835.85
7835.77
7835.64
7835.48
7835.31
7835.15
7834.98
7834.8
7834.6
7834.4
7834.18
7833.95
7833.71
7833.46
7833.19
7832.91
7832.61
7832.3
7831.98
7831.64
7831.29
7830.92
7830.54
7830.14
7829.73
7829.3
7828.85
7828.39
7827.92
7827.43
7826.93
7826.41
7825.88
7825.33
7824.78
7824.2
7823.62
7823.02
7822.42
7821.8
7821.17
7820.54
7819.89
7819.23
7818.57
7817.9
7817.23
7816.55
7815.86
7815.17
7814.48
7813.78
7813.08
7812.39
7811.69
7810.99
7810.29
7809.6
7808.91
7808.22
7807.53
7806.85
7806.18
7805.51
7804.84
7804.18
7803.53
7802.89
7802.26
7801.63
7801.01
7800.4
7799.8
7799.21
7798.64
7798.07
7797.51
7796.96
7796.42
7795.9
7795.39
7794.87
7794.43
7793.86
7793.4
7943.96
7955.35
7953.11
7967.6
7969.82
7976.33
7982.54
7988.51
7994.09
7999.31
8004.15
8008.51
8013.07
8017.54
8021.82
8025.49
8028.76
8031.91
8035.31
8039.17
8043.41
8047.98
8052.56
8056.7
8060.18
8063.11
8065.62
8067.73
8069.57
8071.52
8073.68
8075.92
8078.19
8080.49
8082.6
8084.43
8085.86
8086.66
8087.54
8088.28
8088.67
8088.74
8088.46
8088.17
8087.83
8087.48
8086.78
8085.81
8084.51
8083.19
8081.77
8080.32
8078.58
8076.61
8074.47
8072.13
8069.55
8066.88
8064.15
8061.36
8058.42
8055.18
8051.66
8048.23
8044.72
8041.27
8037.61
8033.75
8029.78
8025.66
8021.35
8017.08
8012.78
8008.59
8004.23
7999.77
7995.24
7990.58
7985.84
7980.71
7975.56
7970.58
7965.83
7961.79
7956.46
7945.83
7940.07
7932.54
7926.33
7918.78
7912.01
7904.79
7896.95
7889.62
7881.59
7873.93
7865.84
7857.95
7849.65
7841.35
7832.42
7823.42
7814.16
7805.32
7796.97
7788.25
7778.77
7769.29
7759.59
7750.44
7741.28
7732.52
7723.7
7715.2
7706.55
7698.09
7689.68
7681.4
7673.06
7664.98
7656.8
7648.84
7641.36
7633.71
7625.98
7618.81
7611.75
7604.9
7598.22
7591.75
7585.56
7579.53
7573.68
7567.86
7562.26
7556.8
7551.66
7546.66
7541.83
7537.2
7532.83
7528.76
7524.95
7521.46
7518.14
7515.04
7512.28
7509.85
7507.78
7505.93
7504.31
7502.94
7501.96
7501.34
7500.92
7500.73
7500.81
7501.23
7501.94
7502.99
7504.26
7505.78
7507.54
7509.52
7511.75
7514.27
7517.09
7520.09
7523.23
7526.62
7530.24
7534.09
7538.15
7542.34
7546.69
7551.17
7555.77
7560.58
7565.52
7570.6
7575.86
7581.17
7586.56
7592.02
7597.51
7603.1
7608.77
7614.55
7620.36
7626.18
7631.99
7637.79
7643.62
7649.47
7655.34
7661.2
7667
7672.75
7678.45
7684.14
7689.82
7695.44
7700.97
7706.42
7711.82
7717.16
7722.45
7727.64
7732.74
7737.74
7742.67
7747.55
7752.39
7757.12
7761.75
7766.29
7770.75
7775.09
7779.4
7783.63
7787.83
7791.93
7795.94
7799.87
7803.7
7807.48
7811.2
7814.88
7818.5
7822.04
7825.51
7828.88
7832.22
7835.52
7838.79
7841.98
7845.1
7848.16
7851.16
7854.09
7857
7859.87
7862.71
7865.5
7868.23
7870.91
7873.54
7876.11
7878.64
7881.15
7883.65
7886.1
7888.49
7890.84
7893.14
7895.42
7897.69
7899.91
7902.08
7904.21
7906.32
7908.42
7910.49
7912.51
7914.51
7916.47
7918.39
7920.3
7922.19
7924.07
7925.91
7927.72
7929.5
7931.26
7932.99
7934.68
7936.36
7938.02
7939.66
7941.27
7942.85
7944.39
7945.9
7947.38
7948.83
7950.26
7951.65
7952.99
7954.3
7955.57
7956.8
7957.98
7959.13
7960.23
7961.27
7962.27
7963.21
7964.1
7964.93
7965.7
7966.41
7967.06
7967.65
7968.17
7968.62
7969
7969.31
7969.54
7969.71
7969.79
7969.79
7969.72
7969.57
7969.34
7969.03
7968.64
7968.18
7967.63
7967.01
7966.3
7965.52
7964.66
7963.73
7962.73
7961.66
7960.51
7959.3
7958.03
7956.7
7955.31
7953.86
7952.36
7950.81
7949.21
7947.57
7945.89
7944.18
7942.43
7940.65
7938.85
7937.02
7935.18
7933.31
7931.44
7929.55
7927.66
7925.76
7923.87
7921.97
7920.08
7918.19
7916.32
7914.45
7912.6
7910.77
7908.95
7907.16
7905.38
7903.63
7901.9
7900.19
7898.52
7896.86
7895.24
7893.64
7892.08
7890.54
7889.04
7887.56
7886.11
7884.7
7883.32
7881.97
7880.65
7879.36
7878.1
7876.88
7875.68
7874.52
7873.38
7872.28
7871.2
7870.15
7869.13
7868.15
7867.18
7866.25
7865.34
7864.46
7863.6
7862.77
7861.96
7861.18
7860.41
7859.67
7858.95
7858.24
7857.56
7856.9
7856.25
7855.62
7855.01
7854.41
7853.83
7853.26
7852.71
7852.17
7851.65
7851.14
7850.64
7850.16
7849.69
7849.23
7848.78
7848.34
7847.91
7847.49
7847.08
7846.69
7846.3
7845.93
7845.55
7845.2
7844.87
7844.54
7844.19
7843.88
7843.58
7843.28
7842.99
7842.71
7842.43
7842.17
7841.91
7841.67
7841.43
7841.19
7840.96
7840.74
7840.55
7840.33
7840.2
7840
7839.76
7839.56
7839.36
7839.17
7838.99
7838.81
7838.62
7838.45
7838.26
7838.1
7837.92
7837.76
7837.59
7837.43
7837.28
7837.13
7836.96
7836.81
7836.62
7836.38
7836.31
7836.18
7836.03
7835.88
7835.72
7835.55
7835.39
7835.22
7835.03
7834.85
7834.66
7834.46
7834.24
7834.01
7833.76
7833.51
7833.24
7832.96
7832.67
7832.36
7832.04
7831.7
7831.35
7830.98
7830.6
7830.21
7829.79
7829.37
7828.92
7828.46
7827.99
7827.5
7827
7826.48
7825.95
7825.4
7824.84
7824.27
7823.68
7823.08
7822.47
7821.85
7821.22
7820.58
7819.93
7819.27
7818.6
7817.93
7817.25
7816.57
7815.88
7815.18
7814.49
7813.79
7813.09
7812.39
7811.68
7810.98
7810.28
7809.59
7808.89
7808.2
7807.51
7806.83
7806.15
7805.47
7804.81
7804.15
7803.49
7802.85
7802.21
7801.58
7800.97
7800.36
7799.76
7799.17
7798.58
7798.01
7797.46
7796.91
7796.37
7795.84
7795.33
7794.81
7794.38
7793.8
7793.34
7943.93
7956.06
7953.15
7967.22
7971.13
7977.02
7982.92
7988.66
7994.14
7999.33
8004.15
8008.58
8013.41
8018.22
8022.52
8026.32
8029.83
8033.34
8037.09
8041.29
8045.67
8050.05
8054.26
8058.23
8061.72
8064.49
8066.95
8069.05
8071.04
8073.1
8075.3
8077.52
8079.73
8081.86
8083.81
8085.5
8086.59
8087.61
8088.62
8089.49
8089.9
8090.02
8089.71
8089.32
8089.1
8088.81
8088.1
8087.11
8085.75
8084.37
8082.94
8081.57
8079.84
8077.85
8075.69
8073.33
8070.68
8067.94
8065.31
8062.56
8059.51
8056.26
8052.62
8048.99
8045.4
8041.7
8038.2
8034.43
8030.4
8026.26
8021.96
8017.45
8012.91
8008.66
8004.12
7999.4
7994.52
7989.49
7985.11
7979.78
7974.41
7968.84
7962.99
7957.22
7951.43
7946.07
7940.98
7936.57
7930.71
7919.3
7912.88
7904.43
7897.53
7889.72
7882.51
7873.56
7865.91
7857.11
7849.24
7840.33
7831.9
7822.77
7814.1
7805.05
7796.05
7786.66
7777.52
7768.21
7759.68
7750.91
7741.34
7732.15
7723.21
7714.44
7705.84
7697.19
7688.8
7680.34
7672.15
7663.99
7655.98
7647.81
7640.04
7632.31
7625.04
7617.88
7610.74
7603.52
7596.77
7590.34
7584.23
7578.23
7572.25
7566.45
7560.72
7555.29
7550.08
7545.15
7540.38
7535.77
7531.33
7527.21
7523.5
7519.93
7516.54
7513.44
7510.71
7508.31
7506.27
7504.39
7502.7
7501.37
7500.4
7499.82
7499.43
7499.24
7499.31
7499.75
7500.47
7501.47
7502.84
7504.4
7506.17
7508.14
7510.43
7512.97
7515.78
7518.87
7522.07
7525.46
7529.11
7532.95
7537.07
7541.33
7545.72
7550.25
7554.87
7559.69
7564.67
7569.84
7575.13
7580.47
7585.89
7591.38
7596.89
7602.51
7608.22
7613.99
7619.88
7625.74
7631.61
7637.46
7643.28
7649.13
7654.99
7660.91
7666.75
7672.55
7678.29
7683.94
7689.6
7695.24
7700.83
7706.32
7711.73
7717.12
7722.41
7727.6
7732.69
7737.7
7742.68
7747.58
7752.45
7757.2
7761.84
7766.39
7770.83
7775.21
7779.53
7783.81
7788.02
7792.11
7796.13
7800.08
7803.96
7807.72
7811.43
7815.1
7818.73
7822.29
7825.77
7829.16
7832.49
7835.8
7839.08
7842.27
7845.39
7848.44
7851.4
7854.37
7857.28
7860.19
7863.03
7865.8
7868.52
7871.18
7873.77
7876.36
7878.91
7881.46
7883.94
7886.36
7888.71
7891.05
7893.4
7895.7
7897.94
7900.15
7902.29
7904.41
7906.53
7908.63
7910.7
7912.72
7914.71
7916.68
7918.6
7920.48
7922.37
7924.25
7926.09
7927.9
7929.67
7931.41
7933.17
7934.89
7936.57
7938.21
7939.83
7941.43
7943.03
7944.58
7946.09
7947.56
7949.02
7950.46
7951.85
7953.19
7954.49
7955.78
7957.03
7958.23
7959.38
7960.47
7961.51
7962.52
7963.48
7964.39
7965.23
7966
7966.71
7967.37
7967.98
7968.51
7968.95
7969.33
7969.65
7969.91
7970.07
7970.16
7970.16
7970.1
7969.96
7969.73
7969.42
7969.02
7968.56
7968.02
7967.39
7966.69
7965.9
7965.04
7964.1
7963.09
7962.01
7960.86
7959.64
7958.36
7957.02
7955.61
7954.16
7952.64
7951.08
7949.47
7947.82
7946.13
7944.4
7942.64
7940.85
7939.04
7937.2
7935.34
7933.46
7931.57
7929.67
7927.77
7925.86
7923.95
7922.04
7920.14
7918.25
7916.36
7914.49
7912.63
7910.78
7908.96
7907.15
7905.37
7903.61
7901.87
7900.16
7898.48
7896.82
7895.19
7893.59
7892.02
7890.48
7888.97
7887.49
7886.04
7884.62
7883.23
7881.88
7880.56
7879.27
7878.01
7876.78
7875.59
7874.42
7873.29
7872.18
7871.1
7870.06
7869.04
7868.05
7867.09
7866.15
7865.25
7864.36
7863.51
7862.67
7861.86
7861.08
7860.31
7859.57
7858.85
7858.15
7857.47
7856.8
7856.15
7855.52
7854.91
7854.32
7853.74
7853.18
7852.62
7852.09
7851.56
7851.06
7850.56
7850.08
7849.61
7849.15
7848.7
7848.26
7847.83
7847.42
7847.01
7846.61
7846.22
7845.86
7845.5
7845.12
7844.78
7844.45
7844.12
7843.81
7843.5
7843.21
7842.91
7842.64
7842.36
7842.11
7841.83
7841.61
7841.34
7841.14
7840.9
7840.75
7840.53
7840.29
7840.08
7839.87
7839.67
7839.49
7839.29
7839.1
7838.93
7838.74
7838.56
7838.38
7838.21
7838.04
7837.9
7837.74
7837.6
7837.43
7837.28
7837.09
7836.86
7836.81
7836.69
7836.54
7836.39
7836.25
7836.09
7835.94
7835.79
7835.64
7835.48
7835.31
7835.13
7834.95
7834.75
7834.54
7834.33
7834.1
7833.86
7833.61
7833.35
7833.07
7832.78
7832.47
7832.15
7831.82
7831.46
7831.1
7830.72
7830.32
7829.91
7829.48
7829.03
7828.58
7828.1
7827.61
7827.1
7826.58
7826.05
7825.5
7824.93
7824.36
7823.77
7823.17
7822.55
7821.93
7821.29
7820.64
7819.99
7819.32
7818.65
7817.97
7817.29
7816.6
7815.9
7815.21
7814.5
7813.8
7813.09
7812.39
7811.68
7810.97
7810.27
7809.57
7808.87
7808.17
7807.48
7806.79
7806.11
7805.43
7804.76
7804.09
7803.44
7802.79
7802.15
7801.52
7800.9
7800.29
7799.68
7799.09
7798.51
7797.94
7797.38
7796.83
7796.29
7795.76
7795.25
7794.73
7794.29
7793.71
7793.26
7944.14
7957.53
7954.09
7966.97
7971.97
7977.81
7983.6
7989.24
7994.67
7999.9
8004.78
8009.19
8014.42
8019.3
8023.73
8027.85
8031.79
8035.73
8039.71
8043.79
8047.91
8051.97
8055.86
8059.48
8062.8
8065.81
8068.35
8070.83
8073.26
8075.65
8077.85
8079.96
8081.99
8083.9
8085.61
8086.78
8087.95
8089.14
8090.41
8091.19
8091.58
8091.75
8091.6
8091.13
8090.96
8090.58
8089.83
8088.86
8087.54
8085.96
8084.66
8083.27
8081.49
8079.48
8077.29
8074.91
8072.34
8069.64
8066.91
8063.98
8060.87
8057.59
8053.99
8050.05
8046.4
8042.63
8038.95
8035.34
8031.26
8027.02
8022.67
8018.18
8013.54
8008.86
8004.15
7999.37
7994.48
7989.43
7984.27
7978.74
7973.08
7967.57
7961.92
7956.54
7950.85
7944.5
7938.18
7931.98
7926.03
7920.25
7915.27
7908.93
7896.96
7890.32
7881.73
7874.2
7865.8
7858.13
7848.74
7840.75
7831.44
7823.03
7813.65
7804.85
7795.57
7786.73
7777.66
7768.3
7759.14
7749.63
7740.5
7731.95
7723.3
7714.17
7704.99
7696.23
7687.74
7679.44
7671.02
7662.91
7654.69
7646.76
7638.78
7631.43
7623.79
7616.47
7608.91
7601.87
7595.1
7588.59
7582.34
7576.11
7570.26
7564.39
7558.79
7553.21
7547.94
7542.9
7538.11
7533.72
7529.34
7525.28
7521.4
7517.71
7514.27
7511.29
7508.58
7506.33
7504.18
7502.18
7500.54
7499.27
7498.34
7497.8
7497.41
7497.28
7497.35
7497.77
7498.51
7499.57
7500.99
7502.57
7504.35
7506.33
7508.67
7511.25
7514.11
7517.26
7520.54
7523.92
7527.59
7531.48
7535.66
7539.98
7544.42
7548.98
7553.62
7558.5
7563.57
7568.86
7574.14
7579.52
7584.98
7590.53
7596.1
7601.72
7607.48
7613.28
7619.18
7625.15
7631.06
7636.98
7642.87
7648.71
7654.58
7660.53
7666.42
7672.24
7678.03
7683.71
7689.36
7695
7700.6
7706.21
7711.67
7717.05
7722.34
7727.51
7732.62
7737.7
7742.71
7747.71
7752.56
7757.31
7761.96
7766.48
7770.96
7775.38
7779.79
7784.08
7788.26
7792.31
7796.34
7800.32
7804.27
7808.09
7811.84
7815.49
7819.03
7822.57
7826.05
7829.47
7832.88
7836.23
7839.48
7842.67
7845.79
7848.81
7851.78
7854.75
7857.69
7860.61
7863.43
7866.19
7868.86
7871.51
7874.14
7876.73
7879.33
7881.85
7884.31
7886.71
7889.04
7891.38
7893.7
7896.02
7898.27
7900.46
7902.58
7904.71
7906.82
7908.93
7910.99
7913
7914.99
7916.94
7918.87
7920.74
7922.63
7924.51
7926.34
7928.13
7929.89
7931.65
7933.41
7935.13
7936.81
7938.47
7940.07
7941.66
7943.24
7944.8
7946.35
7947.85
7949.31
7950.72
7952.09
7953.45
7954.77
7956.08
7957.34
7958.54
7959.7
7960.79
7961.85
7962.87
7963.85
7964.77
7965.62
7966.41
7967.12
7967.8
7968.42
7968.94
7969.39
7969.79
7970.12
7970.39
7970.56
7970.65
7970.67
7970.61
7970.48
7970.25
7969.93
7969.54
7969.08
7968.54
7967.91
7967.2
7966.4
7965.53
7964.59
7963.58
7962.49
7961.33
7960.1
7958.8
7957.44
7956.02
7954.55
7953.03
7951.45
7949.82
7948.15
7946.44
7944.7
7942.92
7941.12
7939.28
7937.43
7935.55
7933.64
7931.73
7929.82
7927.91
7925.99
7924.06
7922.14
7920.23
7918.32
7916.41
7914.53
7912.66
7910.8
7908.97
7907.15
7905.35
7903.58
7901.84
7900.12
7898.42
7896.76
7895.12
7893.52
7891.94
7890.39
7888.87
7887.39
7885.94
7884.51
7883.12
7881.76
7880.44
7879.15
7877.89
7876.66
7875.46
7874.29
7873.16
7872.05
7870.98
7869.93
7868.91
7867.92
7866.96
7866.02
7865.11
7864.23
7863.37
7862.54
7861.73
7860.94
7860.17
7859.43
7858.71
7858.01
7857.33
7856.67
7856.02
7855.39
7854.78
7854.18
7853.61
7853.05
7852.5
7851.96
7851.45
7850.93
7850.45
7849.96
7849.49
7849.04
7848.59
7848.16
7847.72
7847.31
7846.91
7846.53
7846.12
7845.75
7845.39
7845.04
7844.69
7844.37
7844.03
7843.73
7843.42
7843.13
7842.84
7842.56
7842.29
7842.03
7841.78
7841.57
7841.34
7841.05
7840.84
7840.59
7840.4
7840.17
7840
7839.78
7839.59
7839.4
7839.21
7839.02
7838.85
7838.67
7838.49
7838.34
7838.18
7838.03
7837.87
7837.71
7837.54
7837.32
7837.27
7837.15
7837.02
7836.88
7836.74
7836.6
7836.47
7836.33
7836.19
7836.03
7835.88
7835.73
7835.58
7835.42
7835.24
7835.05
7834.86
7834.65
7834.44
7834.22
7833.99
7833.74
7833.48
7833.2
7832.91
7832.61
7832.29
7831.96
7831.61
7831.25
7830.87
7830.47
7830.06
7829.63
7829.19
7828.73
7828.25
7827.76
7827.25
7826.72
7826.18
7825.63
7825.06
7824.48
7823.89
7823.28
7822.66
7822.03
7821.38
7820.73
7820.07
7819.4
7818.72
7818.03
7817.34
7816.64
7815.94
7815.23
7814.53
7813.81
7813.1
7812.39
7811.67
7810.96
7810.25
7809.54
7808.83
7808.13
7807.43
7806.74
7806.05
7805.37
7804.69
7804.02
7803.36
7802.71
7802.07
7801.43
7800.81
7800.19
7799.59
7798.99
7798.41
7797.83
7797.27
7796.72
7796.18
7795.65
7795.13
7794.61
7794.18
7793.6
7793.14
7944.93
7959.67
7955.1
7966.96
7972.69
7978.66
7984.51
7990.17
7995.66
8000.97
8005.87
8010.62
8015.86
8020.85
8025.45
8029.82
8034.03
8038.18
8042.28
8046.36
8050.37
8054.29
8058.05
8061.6
8064.86
8067.7
8070.38
8073.02
8075.72
8078.22
8080.48
8082.57
8084.52
8086.21
8087.36
8088.76
8090.06
8091.59
8092.74
8093.38
8093.76
8093.93
8093.89
8093.65
8093.29
8092.76
8091.99
8091.01
8089.81
8088.26
8086.9
8085.35
8083.52
8081.47
8079.25
8076.86
8074.31
8071.61
8068.75
8065.74
8062.57
8059.25
8055.72
8051.71
8047.72
8043.87
8040.17
8036.56
8032.39
8028.05
8023.59
8019
8014.3
8009.42
8004.28
7999.14
7994.43
7989.26
7983.92
7978.36
7972.51
7966.68
7961.2
7955.33
7949.28
7943.16
7936.83
7930.39
7924.33
7917.52
7910.89
7904.54
7898.18
7893.06
7886.39
7873.81
7866.24
7857.05
7849.04
7840.39
7832.15
7822.32
7813.63
7804.06
7795.56
7786.08
7777.11
7767.45
7758.44
7749.26
7740.15
7730.76
7721.41
7712.34
7703.8
7695.33
7686.64
7677.82
7669.47
7661.25
7653.28
7645.09
7637.27
7629.58
7622.2
7614.7
7607.51
7600.04
7593.1
7586.12
7579.95
7573.69
7567.6
7561.75
7555.99
7550.49
7545.22
7540.2
7535.44
7530.99
7526.66
7522.54
7518.75
7514.99
7511.57
7508.54
7506.01
7503.69
7501.56
7499.58
7497.88
7496.61
7495.82
7495.23
7494.86
7494.77
7494.92
7495.28
7496.04
7497.22
7498.63
7500.24
7502.1
7504.13
7506.44
7509.09
7512.1
7515.23
7518.56
7522.05
7525.69
7529.69
7533.96
7538.29
7542.78
7547.39
7552.09
7557.02
7562.28
7567.55
7572.88
7578.31
7583.81
7589.43
7595.13
7600.86
7606.57
7612.42
7618.31
7624.36
7630.37
7636.35
7642.32
7648.28
7654.2
7660.06
7665.87
7671.73
7677.63
7683.41
7689.09
7694.84
7700.51
7706.07
7711.55
7716.94
7722.19
7727.41
7732.6
7737.73
7742.86
7747.82
7752.68
7757.46
7762.1
7766.63
7771.16
7775.63
7780.08
7784.37
7788.56
7792.63
7796.68
7800.67
7804.64
7808.49
7812.25
7815.95
7819.54
7823.02
7826.5
7829.93
7833.33
7836.71
7839.97
7843.16
7846.29
7849.33
7852.26
7855.26
7858.24
7861.13
7863.93
7866.63
7869.31
7871.98
7874.63
7877.27
7879.83
7882.32
7884.77
7887.12
7889.46
7891.8
7894.14
7896.45
7898.68
7900.85
7902.96
7905.08
7907.22
7909.31
7911.35
7913.35
7915.3
7917.24
7919.19
7921.11
7922.98
7924.83
7926.65
7928.41
7930.19
7931.97
7933.72
7935.43
7937.12
7938.77
7940.39
7941.96
7943.54
7945.13
7946.67
7948.18
7949.64
7951.06
7952.43
7953.8
7955.16
7956.47
7957.73
7958.94
7960.09
7961.19
7962.29
7963.34
7964.32
7965.24
7966.11
7966.91
7967.64
7968.34
7968.97
7969.51
7969.98
7970.38
7970.73
7971.01
7971.19
7971.28
7971.3
7971.26
7971.13
7970.91
7970.59
7970.2
7969.74
7969.2
7968.56
7967.85
7967.05
7966.17
7965.22
7964.19
7963.09
7961.91
7960.67
7959.36
7957.98
7956.54
7955.06
7953.52
7951.92
7950.27
7948.57
7946.84
7945.08
7943.28
7941.45
7939.6
7937.71
7935.8
7933.88
7931.96
7930.03
7928.09
7926.15
7924.2
7922.26
7920.33
7918.4
7916.48
7914.58
7912.69
7910.83
7908.97
7907.14
7905.33
7903.55
7901.79
7900.06
7898.35
7896.68
7895.03
7893.42
7891.83
7890.28
7888.75
7887.26
7885.8
7884.37
7882.97
7881.62
7880.29
7879
7877.73
7876.5
7875.3
7874.13
7872.99
7871.89
7870.81
7869.76
7868.74
7867.75
7866.79
7865.85
7864.95
7864.06
7863.2
7862.36
7861.56
7860.77
7860
7859.26
7858.54
7857.84
7857.16
7856.5
7855.85
7855.23
7854.62
7854.03
7853.45
7852.9
7852.35
7851.82
7851.29
7850.8
7850.3
7849.83
7849.36
7848.9
7848.45
7848.03
7847.6
7847.17
7846.77
7846.39
7846
7845.63
7845.27
7844.91
7844.57
7844.24
7843.91
7843.61
7843.29
7843
7842.71
7842.44
7842.2
7841.96
7841.65
7841.43
7841.16
7840.96
7840.71
7840.52
7840.29
7840.09
7839.88
7839.69
7839.49
7839.3
7839.11
7838.93
7838.77
7838.6
7838.44
7838.27
7838.07
7837.87
7837.82
7837.72
7837.6
7837.46
7837.33
7837.2
7837.06
7836.94
7836.81
7836.68
7836.55
7836.42
7836.28
7836.14
7836
7835.85
7835.69
7835.52
7835.36
7835.18
7834.99
7834.79
7834.59
7834.37
7834.14
7833.9
7833.64
7833.37
7833.09
7832.79
7832.47
7832.14
7831.8
7831.43
7831.06
7830.66
7830.25
7829.82
7829.38
7828.92
7828.44
7827.94
7827.43
7826.9
7826.36
7825.8
7825.23
7824.64
7824.04
7823.42
7822.8
7822.16
7821.51
7820.84
7820.17
7819.49
7818.8
7818.11
7817.41
7816.7
7815.99
7815.27
7814.55
7813.83
7813.11
7812.38
7811.66
7810.94
7810.22
7809.5
7808.79
7808.07
7807.37
7806.67
7805.97
7805.29
7804.6
7803.93
7803.26
7802.61
7801.96
7801.32
7800.69
7800.07
7799.46
7798.86
7798.27
7797.7
7797.13
7796.58
7796.04
7795.51
7794.99
7794.47
7794.03
7793.45
7793
7945.9
7960.71
7956.94
7967.87
7973.8
7979.84
7985.76
7991.51
7997.1
8002.53
8007.71
8012.63
8017.8
8022.86
8027.6
8032.14
8036.54
8040.82
8045.01
8049.1
8053.09
8056.94
8060.64
8064.14
8067.43
8070.35
8073
8075.88
8078.69
8081.18
8083.46
8085.54
8087.27
8088.41
8090.01
8091.47
8093.19
8094.61
8095.46
8096.05
8096.42
8096.6
8096.58
8096.37
8095.95
8095.36
8094.57
8093.59
8092.41
8091.04
8089.38
8087.69
8085.85
8083.82
8081.57
8079.14
8076.56
8073.81
8070.91
8067.84
8064.62
8061.25
8057.73
8053.95
8049.68
8045.41
8041.73
8038.04
8033.78
8029.33
8024.74
8020.02
8015.17
8010.06
8004.67
7999.49
7994.45
7989.37
7983.88
7978.23
7972.46
7966.59
7960.63
7954.54
7948.15
7941.55
7935.18
7929.06
7922.82
7916.25
7909.77
7903.33
7894.52
7887.79
7880.98
7874.26
7868.89
7861.9
7848.74
7840.59
7830.89
7822.55
7813.14
7804.57
7794.95
7786.22
7776.53
7767.65
7758.14
7748.97
7739.43
7730.27
7721.52
7712.36
7703.1
7693.65
7684.77
7676.32
7668.05
7659.57
7650.96
7643.04
7635.32
7627.82
7619.98
7612.66
7605.18
7598.17
7590.84
7584.01
7577.25
7571.07
7564.74
7558.64
7552.84
7547.15
7541.64
7536.62
7531.8
7527.62
7523.22
7519.18
7515.24
7511.55
7508.06
7505.25
7502.77
7500.4
7498.24
7496.39
7494.7
7493.45
7492.71
7492.09
7491.74
7491.69
7491.9
7492.36
7493.2
7494.39
7495.77
7497.43
7499.35
7501.5
7503.89
7506.62
7509.59
7512.75
7516.14
7519.71
7523.5
7527.61
7531.84
7536.23
7540.76
7545.38
7550.23
7555.38
7560.66
7565.96
7571.36
7576.8
7582.28
7587.93
7593.89
7599.78
7605.67
7611.51
7617.35
7623.33
7629.42
7635.58
7641.62
7647.64
7653.64
7659.5
7665.35
7671.26
7677.13
7682.96
7688.88
7694.67
7700.32
7705.91
7711.41
7716.77
7722.08
7727.38
7732.63
7737.89
7742.96
7747.93
7752.82
7757.65
7762.37
7766.96
7771.43
7775.9
7780.33
7784.72
7788.96
7793.08
7797.14
7801.18
7805.1
7808.91
7812.66
7816.42
7820.09
7823.67
7827.09
7830.48
7833.87
7837.26
7840.55
7843.76
7846.89
7849.89
7852.85
7855.89
7858.86
7861.73
7864.54
7867.26
7869.89
7872.56
7875.25
7877.86
7880.4
7882.88
7885.32
7887.64
7889.98
7892.33
7894.68
7896.95
7899.17
7901.35
7903.43
7905.55
7907.68
7909.75
7911.78
7913.76
7915.66
7917.62
7919.58
7921.5
7923.37
7925.21
7927.01
7928.77
7930.55
7932.34
7934.09
7935.79
7937.48
7939.13
7940.76
7942.33
7943.93
7945.52
7947.06
7948.57
7950.04
7951.48
7952.84
7954.23
7955.6
7956.92
7958.19
7959.42
7960.58
7961.69
7962.81
7963.88
7964.88
7965.81
7966.69
7967.52
7968.29
7968.99
7969.63
7970.18
7970.68
7971.11
7971.47
7971.74
7971.94
7972.05
7972.08
7972.04
7971.9
7971.68
7971.39
7971.01
7970.54
7969.99
7969.35
7968.62
7967.82
7966.94
7965.98
7964.93
7963.81
7962.62
7961.36
7960.04
7958.64
7957.19
7955.67
7954.1
7952.47
7950.8
7949.09
7947.34
7945.54
7943.71
7941.86
7939.97
7938.06
7936.13
7934.19
7932.23
7930.28
7928.31
7926.34
7924.37
7922.41
7920.45
7918.5
7916.56
7914.63
7912.73
7910.84
7908.98
7907.13
7905.3
7903.5
7901.73
7899.98
7898.26
7896.57
7894.92
7893.29
7891.7
7890.13
7888.6
7887.1
7885.64
7884.21
7882.8
7881.44
7880.11
7878.81
7877.54
7876.31
7875.1
7873.93
7872.8
7871.69
7870.61
7869.56
7868.54
7867.55
7866.59
7865.65
7864.74
7863.85
7862.99
7862.16
7861.35
7860.55
7859.79