/*--------------------------------*- C++ -*----------------------------------*\
| =========                 |                                                 |
| \\      /  F ield         | OpenFOAM: The Open Source CFD Toolbox           |
|  \\    /   O peration     | Version:  v2006                                 |
|   \\  /    A nd           | Website:  www.openfoam.com                      |
|    \\/     M anipulation  |                                                 |
\*---------------------------------------------------------------------------*/
FoamFile
{
    version     2.0;
    format      ascii;
    class       surfaceScalarField;
    location    "9";
    object      phi;
}
// * * * * * * * * * * * * * * * * * * * * * * * * * * * * * * * * * * * * * //

dimensions      [0 3 -1 0 0 0 0];
oriented        oriented;


internalField   nonuniform List<scalar> 
65390
(
-2.0164e-06
-3.53459e-07
-2.72458e-06
7.07931e-07
-5.97181e-06
3.247e-06
-9.03214e-06
3.06015e-06
-1.0309e-05
1.27667e-06
-7.62587e-06
-2.6832e-06
-1.78767e-06
-5.83829e-06
5.46096e-06
-7.24871e-06
1.33366e-05
-7.87573e-06
2.15363e-05
-8.1997e-06
2.89884e-05
-7.45218e-06
3.51736e-05
-6.18528e-06
4.01928e-05
-5.01923e-06
4.46465e-05
-4.4538e-06
4.90016e-05
-4.35513e-06
5.36641e-05
-4.66254e-06
5.82063e-05
-4.54217e-06
6.15061e-05
-3.29987e-06
6.35832e-05
-2.07712e-06
6.44143e-05
-8.31086e-07
6.2951e-05
1.46324e-06
5.88973e-05
4.05377e-06
5.37562e-05
5.14111e-06
4.97179e-05
4.03828e-06
4.80551e-05
1.66287e-06
4.85633e-05
-5.08095e-07
5.0309e-05
-1.74568e-06
5.26096e-05
-2.3005e-06
5.46197e-05
-2.01009e-06
5.54856e-05
-8.65803e-07
5.54694e-05
1.62551e-08
5.44333e-05
1.03612e-06
5.14585e-05
2.97487e-06
4.689e-05
4.56854e-06
4.13313e-05
5.55874e-06
3.61981e-05
5.13329e-06
3.2702e-05
3.4961e-06
2.93941e-05
3.30792e-06
2.65642e-05
2.82991e-06
2.51276e-05
1.43668e-06
2.45378e-05
5.89848e-07
2.3862e-05
6.75795e-07
2.24796e-05
1.3824e-06
2.04584e-05
2.02126e-06
1.90381e-05
1.42031e-06
1.87321e-05
3.0605e-07
1.86455e-05
8.66479e-08
1.82906e-05
3.54933e-07
1.72232e-05
1.06741e-06
1.5718e-05
1.50516e-06
1.48051e-05
9.1293e-07
1.47305e-05
7.46488e-08
1.50132e-05
-2.82659e-07
1.54391e-05
-4.25989e-07
1.59669e-05
-5.27794e-07
1.64543e-05
-4.87336e-07
1.67519e-05
-2.97628e-07
1.66152e-05
1.36746e-07
1.58156e-05
7.99532e-07
1.43912e-05
1.4244e-06
1.27851e-05
1.60606e-06
1.12277e-05
1.55747e-06
9.92235e-06
1.30529e-06
8.88175e-06
1.04059e-06
8.08312e-06
7.98612e-07
7.66249e-06
4.20618e-07
7.81523e-06
-1.5276e-07
8.549e-06
-7.33799e-07
9.64949e-06
-1.10052e-06
1.08936e-05
-1.24414e-06
1.21731e-05
-1.27954e-06
1.34616e-05
-1.28854e-06
1.47904e-05
-1.32886e-06
1.61745e-05
-1.38416e-06
1.7587e-05
-1.41263e-06
1.84467e-05
-8.59714e-07
1.80533e-05
3.93308e-07
1.407e-05
3.98319e-06
1.04983e-05
3.57159e-06
9.65658e-06
8.41698e-07
8.08059e-06
1.57593e-06
7.34356e-06
7.36953e-07
6.09281e-06
1.25069e-06
5.51318e-06
5.79579e-07
4.89814e-06
6.14979e-07
4.2288e-06
6.6928e-07
3.76738e-06
4.61344e-07
3.37028e-06
3.97041e-07
3.19008e-06
1.80161e-07
3.0765e-06
1.13539e-07
3.09967e-06
-2.31967e-08
3.19959e-06
-9.99377e-08
3.53588e-06
-3.36307e-07
4.1616e-06
-6.25729e-07
5.31843e-06
-1.15684e-06
6.98928e-06
-1.67086e-06
9.05781e-06
-2.06854e-06
1.12743e-05
-2.21654e-06
1.32094e-05
-1.93506e-06
1.41128e-05
-9.034e-07
1.41842e-05
-7.14633e-08
1.39074e-05
2.76766e-07
1.32245e-05
6.8292e-07
1.2615e-05
6.09517e-07
1.19265e-05
6.8847e-07
1.13612e-05
5.65323e-07
1.10496e-05
3.11613e-07
1.07297e-05
3.19874e-07
1.03083e-05
4.21383e-07
9.82589e-06
4.82459e-07
9.32537e-06
5.0054e-07
8.81013e-06
5.15254e-07
8.3966e-06
4.13547e-07
8.14309e-06
2.53515e-07
8.09897e-06
4.41134e-08
8.19399e-06
-9.50255e-08
8.35326e-06
-1.59277e-07
8.25154e-06
1.01706e-07
7.84342e-06
4.08099e-07
7.35966e-06
4.8374e-07
6.81882e-06
5.40822e-07
6.28216e-06
5.36643e-07
5.62358e-06
6.58563e-07
4.99842e-06
6.25145e-07
4.45016e-06
5.48254e-07
3.90638e-06
5.43775e-07
3.37769e-06
5.28689e-07
2.84125e-06
5.36438e-07
2.27623e-06
5.65034e-07
1.71389e-06
5.62352e-07
1.16552e-06
5.48388e-07
6.41359e-07
5.24171e-07
1.5423e-07
4.87143e-07
-3.33672e-07
4.87913e-07
-8.20803e-07
4.8714e-07
-1.30416e-06
4.83369e-07
-1.77304e-06
4.68885e-07
-2.22342e-06
4.50375e-07
-2.6658e-06
4.42382e-07
-3.10445e-06
4.38643e-07
-3.53876e-06
4.3431e-07
-3.95918e-06
4.20413e-07
-4.36218e-06
4.02992e-07
-4.74207e-06
3.79882e-07
-5.10869e-06
3.66614e-07
-5.46937e-06
3.60668e-07
-5.8272e-06
3.57821e-07
-6.17933e-06
3.52133e-07
-6.51064e-06
3.31301e-07
-6.81774e-06
3.07104e-07
-7.11542e-06
2.97689e-07
-7.40839e-06
2.92985e-07
-7.69553e-06
2.87151e-07
-7.97022e-06
2.74702e-07
-8.23222e-06
2.62018e-07
-8.4811e-06
2.48901e-07
-8.71959e-06
2.38509e-07
-8.94982e-06
2.30242e-07
-9.17143e-06
2.21636e-07
-9.38251e-06
2.11101e-07
-9.58203e-06
1.99538e-07
-9.77035e-06
1.8833e-07
-9.94791e-06
1.77576e-07
-1.0118e-05
1.70127e-07
-1.02835e-05
1.65483e-07
-1.04392e-05
1.55713e-07
-1.0579e-05
1.39857e-07
-1.07061e-05
1.2709e-07
-1.08268e-05
1.20712e-07
-1.09445e-05
1.17714e-07
-1.10551e-05
1.1064e-07
-1.11499e-05
9.47913e-08
-1.12292e-05
7.93141e-08
-1.12975e-05
6.83664e-08
-1.13574e-05
5.99136e-08
-1.14135e-05
5.61556e-08
-1.14676e-05
5.41383e-08
-1.15136e-05
4.60065e-08
-1.15473e-05
3.37273e-08
-1.15685e-05
2.11615e-08
-1.15745e-05
6.07624e-09
-1.15696e-05
-4.86318e-09
-1.15572e-05
-1.24265e-08
-1.15378e-05
-1.93559e-08
-1.15146e-05
-2.30994e-08
-1.1487e-05
-2.76281e-08
-1.14478e-05
-3.92127e-08
-1.13931e-05
-5.45967e-08
-1.13261e-05
-6.70069e-08
-1.12518e-05
-7.4238e-08
-1.11728e-05
-7.90403e-08
-1.10871e-05
-8.56539e-08
-1.09916e-05
-9.54096e-08
-1.0883e-05
-1.08592e-07
-1.07589e-05
-1.24131e-07
-1.06206e-05
-1.38213e-07
-1.04713e-05
-1.49286e-07
-1.0318e-05
-1.53247e-07
-1.01642e-05
-1.53808e-07
-1.00037e-05
-1.60421e-07
-9.83022e-06
-1.73455e-07
-9.637e-06
-1.93189e-07
-9.43045e-06
-2.0652e-07
-9.21896e-06
-2.1146e-07
-9.00664e-06
-2.12304e-07
-8.79284e-06
-2.13774e-07
-8.57236e-06
-2.20459e-07
-8.33908e-06
-2.33257e-07
-8.09885e-06
-2.402e-07
-7.86378e-06
-2.35035e-07
-7.642e-06
-2.21749e-07
-7.41786e-06
-2.24097e-07
-7.17571e-06
-2.42109e-07
-6.92661e-06
-2.49057e-07
-6.6782e-06
-2.48368e-07
-6.43233e-06
-2.4583e-07
-6.19902e-06
-2.33269e-07
-5.98369e-06
-2.15304e-07
-5.77096e-06
-2.12692e-07
-5.55164e-06
-2.19287e-07
-5.32405e-06
-2.27559e-07
-5.09781e-06
-2.26217e-07
-4.87607e-06
-2.21707e-07
-4.66551e-06
-2.10527e-07
-4.47448e-06
-1.91006e-07
-4.29217e-06
-1.82278e-07
-4.11109e-06
-1.81057e-07
-3.92752e-06
-1.83541e-07
-3.74316e-06
-1.84334e-07
-3.56292e-06
-1.80219e-07
-3.39252e-06
-1.70375e-07
-3.24195e-06
-1.50551e-07
-3.10165e-06
-1.40289e-07
-2.96273e-06
-1.38904e-07
-2.82346e-06
-1.39248e-07
-2.68417e-06
-1.39273e-07
-2.54995e-06
-1.34212e-07
-2.42377e-06
-1.26164e-07
-2.30532e-06
-1.18435e-07
-2.19313e-06
-1.12179e-07
-2.08882e-06
-1.04292e-07
-1.99439e-06
-9.44175e-08
-1.90593e-06
-8.84577e-08
-1.81727e-06
-8.86568e-08
-1.72533e-06
-9.19342e-08
-1.63477e-06
-9.0559e-08
-1.54762e-06
-8.71443e-08
-1.46973e-06
-7.78855e-08
-1.40683e-06
-6.29052e-08
-1.34224e-06
-6.45831e-08
-1.2696e-06
-7.2629e-08
-1.19618e-06
-7.34205e-08
-1.12482e-06
-7.13521e-08
-1.05669e-06
-6.81272e-08
-9.95971e-07
-6.07119e-08
-9.37868e-07
-5.80993e-08
-8.76935e-07
-6.09295e-08
-8.13002e-07
-6.39287e-08
-7.47233e-07
-6.57633e-08
-6.82644e-07
-6.458e-08
-6.18902e-07
-6.37307e-08
-5.55303e-07
-6.35867e-08
-4.90128e-07
-6.51611e-08
-4.20931e-07
-6.91846e-08
-3.47993e-07
-7.29273e-08
-2.74468e-07
-7.35158e-08
-2.05152e-07
-6.93085e-08
-1.3851e-07
-6.6635e-08
-6.72149e-08
-7.12875e-08
1.14299e-08
-7.86354e-08
9.37741e-08
-8.23319e-08
1.77804e-07
-8.40148e-08
2.64068e-07
-8.62459e-08
3.51659e-07
-8.75715e-08
4.36987e-07
-8.53086e-08
5.22408e-07
-8.5403e-08
6.12335e-07
-8.99124e-08
7.0749e-07
-9.51424e-08
8.06429e-07
-9.89291e-08
9.07988e-07
-1.01551e-07
1.01247e-06
-1.04476e-07
1.11983e-06
-1.07341e-07
1.22718e-06
-1.0734e-07
1.33337e-06
-1.06168e-07
1.44349e-06
-1.10097e-07
1.55911e-06
-1.15594e-07
1.67762e-06
-1.18481e-07
1.79807e-06
-1.20428e-07
1.92092e-06
-1.22824e-07
2.04588e-06
-1.24937e-07
2.17099e-06
-1.25097e-07
2.2972e-06
-1.26195e-07
2.42605e-06
-1.28834e-07
2.55782e-06
-1.31758e-07
2.69164e-06
-1.33809e-07
2.82719e-06
-1.35528e-07
2.96376e-06
-1.3656e-07
3.10009e-06
-1.36303e-07
3.23697e-06
-1.36866e-07
3.37469e-06
-1.37706e-07
3.51339e-06
-1.38687e-07
3.65312e-06
-1.39719e-07
3.79285e-06
-1.39728e-07
3.93134e-06
-1.38487e-07
4.06891e-06
-1.37573e-07
4.20616e-06
-1.37259e-07
4.34313e-06
-1.36979e-07
4.47889e-06
-1.3576e-07
4.61277e-06
-1.33883e-07
4.7447e-06
-1.31925e-07
4.87504e-06
-1.3032e-07
5.00353e-06
-1.2848e-07
5.12941e-06
-1.2586e-07
5.25202e-06
-1.22593e-07
5.37121e-06
-1.19174e-07
5.48724e-06
-1.16019e-07
5.60005e-06
-1.12815e-07
5.70928e-06
-1.09236e-07
5.81453e-06
-1.05258e-07
5.91551e-06
-1.00987e-07
6.01198e-06
-9.64667e-08
6.10382e-06
-9.18395e-08
6.19093e-06
-8.71053e-08
6.27305e-06
-8.21046e-08
6.34992e-06
-7.68581e-08
6.42155e-06
-7.16164e-08
6.4879e-06
-6.6342e-08
6.54866e-06
-6.07525e-08
6.60356e-06
-5.49039e-08
6.65269e-06
-4.91305e-08
6.69624e-06
-4.35621e-08
6.73426e-06
-3.80277e-08
6.76658e-06
-3.23245e-08
6.79283e-06
-2.62618e-08
6.8128e-06
-1.99736e-08
6.82678e-06
-1.39875e-08
6.83531e-06
-8.52816e-09
6.83843e-06
-3.12621e-09
6.83603e-06
2.39274e-09
6.82809e-06
7.926e-09
6.81467e-06
1.34089e-08
6.79589e-06
1.87793e-08
6.77188e-06
2.39983e-08
6.74278e-06
2.90843e-08
6.70873e-06
3.40434e-08
6.66996e-06
3.87729e-08
6.62658e-06
4.33795e-08
6.57874e-06
4.7845e-08
6.52657e-06
5.21818e-08
6.47016e-06
5.64227e-08
6.4096e-06
6.05751e-08
6.34506e-06
6.45672e-08
6.2768e-06
6.82764e-08
6.20511e-06
7.17147e-08
6.1301e-06
7.50316e-08
6.05184e-06
7.82731e-08
5.97045e-06
8.14043e-08
5.88596e-06
8.44877e-08
5.7987e-06
8.72426e-08
5.7089e-06
8.97845e-08
5.61668e-06
9.22017e-08
5.52215e-06
9.44967e-08
5.42552e-06
9.6613e-08
5.32679e-06
9.87169e-08
5.22583e-06
1.00945e-07
5.12284e-06
1.0299e-07
5.01825e-06
1.04605e-07
4.91253e-06
1.05733e-07
4.80579e-06
1.06754e-07
4.69762e-06
1.08176e-07
4.58782e-06
1.09807e-07
4.47706e-06
1.10765e-07
4.36585e-06
1.1121e-07
4.25424e-06
1.11594e-07
4.14207e-06
1.12165e-07
4.02925e-06
1.12806e-07
3.91591e-06
1.1333e-07
3.80214e-06
1.13766e-07
3.68773e-06
1.14417e-07
3.57293e-06
1.148e-07
3.45853e-06
1.14406e-07
3.34494e-06
1.13597e-07
3.23152e-06
1.13421e-07
3.11813e-06
1.13403e-07
3.00488e-06
1.13247e-07
2.8919e-06
1.1298e-07
2.77939e-06
1.12499e-07
2.66766e-06
1.11718e-07
2.5568e-06
1.10853e-07
2.44641e-06
1.10387e-07
2.33654e-06
1.09862e-07
2.22759e-06
1.08941e-07
2.12011e-06
1.07481e-07
2.01378e-06
1.06328e-07
1.90861e-06
1.05184e-07
1.80461e-06
1.04002e-07
1.70181e-06
1.02814e-07
1.59975e-06
1.02084e-07
1.49883e-06
1.00938e-07
1.39946e-06
9.93856e-08
1.30176e-06
9.77166e-08
1.20595e-06
9.58206e-08
1.11162e-06
9.43441e-08
1.01865e-06
9.29834e-08
9.25506e-07
9.31505e-08
8.3356e-07
9.19501e-08
7.43048e-07
9.05132e-08
6.55694e-07
8.73534e-08
5.68596e-07
8.70954e-08
4.829e-07
8.56925e-08
3.98334e-07
8.45625e-08
3.15836e-07
8.24948e-08
2.37059e-07
7.87736e-08
1.58688e-07
7.83692e-08
8.41653e-08
7.45203e-08
1.13743e-08
7.27893e-08
-5.85543e-08
6.99268e-08
-1.21262e-07
6.27053e-08
-1.83598e-07
6.23332e-08
-2.52409e-07
6.88072e-08
-3.12171e-07
5.97578e-08
-3.74808e-07
6.26321e-08
-4.33995e-07
5.91821e-08
-4.49323e-07
1.53222e-08
-4.7487e-07
2.55421e-08
-5.47541e-07
7.26661e-08
-5.77445e-07
2.98995e-08
-6.85762e-07
1.08313e-07
-8.85651e-07
1.99885e-07
-1.18655e-06
3.00894e-07
-1.45236e-06
2.65811e-07
-1.60085e-06
1.48487e-07
-1.73753e-06
1.36676e-07
-1.83106e-06
9.35224e-08
-1.91481e-06
8.37536e-08
-1.98653e-06
7.1715e-08
-2.05426e-06
6.77336e-08
-2.1148e-06
6.05375e-08
-2.16529e-06
5.04831e-08
-2.20464e-06
3.93592e-08
-2.24147e-06
3.68291e-08
-2.24265e-06
1.16893e-09
-2.26508e-06
2.24343e-08
-2.32577e-06
6.06876e-08
-2.32907e-06
3.29618e-09
-2.36794e-06
3.8862e-08
-2.43857e-06
7.06297e-08
-2.54066e-06
1.02083e-07
-2.54091e-06
2.52047e-10
-2.43923e-06
-1.0169e-07
-2.39085e-06
-4.83782e-08
-2.34896e-06
-4.18916e-08
-2.32708e-06
-2.18786e-08
-2.31263e-06
-1.44559e-08
-2.30488e-06
-7.74336e-09
-2.30077e-06
-4.11328e-09
-2.29594e-06
-4.83115e-09
-2.2793e-06
-1.66487e-08
-2.27756e-06
-1.74419e-09
-2.25881e-06
-1.87568e-08
-2.2455e-06
-1.33099e-08
-2.24721e-06
1.69955e-09
-2.16539e-06
-8.18189e-08
-2.09015e-06
-7.52406e-08
-2.17359e-06
8.34493e-08
-2.15144e-06
-2.21506e-08
-2.31736e-06
1.65926e-07
-2.64521e-06
3.27851e-07
-3.47432e-06
8.29115e-07
-4.14868e-06
6.74357e-07
-4.23708e-06
8.83899e-08
-4.17544e-06
-6.16602e-08
-3.98868e-06
-1.86773e-07
-3.80289e-06
-1.85805e-07
-3.66042e-06
-1.42478e-07
-3.57785e-06
-8.25785e-08
-3.52488e-06
-5.29791e-08
-3.48504e-06
-3.98485e-08
-3.4501e-06
-3.49535e-08
-3.43327e-06
-1.68411e-08
-3.43057e-06
-2.70383e-09
-3.43137e-06
7.8151e-10
-3.43469e-06
3.31059e-09
-3.4349e-06
1.99626e-10
-3.43721e-06
2.28681e-09
-3.4498e-06
1.25705e-08
-3.46953e-06
1.97191e-08
-3.48785e-06
1.83023e-08
-3.50725e-06
1.93906e-08
-3.53093e-06
2.36675e-08
-3.55873e-06
2.77914e-08
-3.58466e-06
2.59182e-08
-3.60868e-06
2.4011e-08
-3.63812e-06
2.9419e-08
-3.67768e-06
3.95394e-08
-3.72218e-06
4.4476e-08
-3.76909e-06
4.68863e-08
-3.8153e-06
4.61798e-08
-3.8629e-06
4.75613e-08
-3.91289e-06
4.99573e-08
-3.96354e-06
5.06135e-08
-4.01806e-06
5.44896e-08
-4.07977e-06
6.16788e-08
-4.14832e-06
6.85167e-08
-4.21852e-06
7.01719e-08
-4.28545e-06
6.68972e-08
-4.34821e-06
6.27317e-08
-4.40849e-06
6.02405e-08
-4.47055e-06
6.20326e-08
-4.53529e-06
6.47132e-08
-4.60465e-06
6.93269e-08
-4.67513e-06
7.04515e-08
-4.74587e-06
7.07133e-08
-4.81919e-06
7.3289e-08
-4.89321e-06
7.39938e-08
-4.96584e-06
7.26046e-08
-5.03788e-06
7.20098e-08
-5.11198e-06
7.40803e-08
-5.18983e-06
7.78208e-08
-5.27183e-06
8.19796e-08
-5.3571e-06
8.52489e-08
-5.44364e-06
8.65221e-08
-5.52988e-06
8.62177e-08
-5.61494e-06
8.50487e-08
-5.69861e-06
8.36568e-08
-5.78152e-06
8.28997e-08
-5.8642e-06
8.2676e-08
-5.94698e-06
8.27816e-08
-6.02994e-06
8.29676e-08
-6.11289e-06
8.29563e-08
-6.19535e-06
8.24565e-08
-6.2769e-06
8.15482e-08
-6.35779e-06
8.08921e-08
-6.43832e-06
8.05208e-08
-6.51969e-06
8.13602e-08
-6.6009e-06
8.1199e-08
-6.68211e-06
8.12022e-08
-6.76113e-06
7.90061e-08
-6.84007e-06
7.89235e-08
-6.91909e-06
7.90106e-08
-6.99817e-06
7.90748e-08
-7.07688e-06
7.87057e-08
-7.15537e-06
7.84775e-08
-7.23333e-06
7.79502e-08
-7.30974e-06
7.63981e-08
-7.37882e-06
6.90652e-08
-7.44443e-06
6.56018e-08
-7.4978e-06
5.3355e-08
-7.54703e-06
4.92175e-08
3.26613e-08
-1.36097e-06
-1.34442e-06
-1.10104e-06
4.48366e-07
-6.31939e-07
2.77821e-06
-7.2365e-07
3.15213e-06
-6.20937e-07
1.17419e-06
1.73927e-06
-5.04321e-06
6.06943e-06
-1.01683e-05
1.10798e-05
-1.22589e-05
1.64198e-05
-1.32156e-05
2.18342e-05
-1.36139e-05
2.67392e-05
-1.23571e-05
3.0842e-05
-1.02879e-05
3.47948e-05
-8.97192e-06
3.90585e-05
-8.71736e-06
4.38462e-05
-9.14278e-06
4.86597e-05
-9.47589e-06
5.31814e-05
-9.0638e-06
5.68227e-05
-6.94103e-06
5.83818e-05
-3.63614e-06
5.77283e-05
-1.7759e-07
5.53351e-05
3.85653e-06
5.25765e-05
6.8124e-06
5.0157e-05
7.56061e-06
4.80235e-05
6.17184e-06
4.76466e-05
2.03979e-06
4.896e-05
-1.82152e-06
5.08918e-05
-3.67749e-06
5.26117e-05
-4.02034e-06
5.40297e-05
-3.42813e-06
5.42829e-05
-1.11903e-06
5.28831e-05
1.41608e-06
5.02803e-05
3.63897e-06
4.71839e-05
6.07133e-06
4.39074e-05
7.84505e-06
4.0344e-05
9.12217e-06
3.6769e-05
8.70825e-06
3.33873e-05
6.87785e-06
3.00364e-05
6.65892e-06
2.73776e-05
5.48867e-06
2.57687e-05
3.04562e-06
2.46139e-05
1.74468e-06
2.35286e-05
1.76113e-06
2.22875e-05
2.62352e-06
2.10955e-05
3.2133e-06
1.99242e-05
2.59157e-06
1.91781e-05
1.05214e-06
1.87424e-05
5.22374e-07
1.82827e-05
8.14678e-07
1.75456e-05
1.80444e-06
1.67484e-05
2.30237e-06
1.58278e-05
1.83351e-06
1.52758e-05
6.26694e-07
1.52268e-05
-2.33685e-07
1.54529e-05
-6.52084e-07
1.56495e-05
-7.24404e-07
1.55448e-05
-3.8267e-07
1.50678e-05
1.79332e-07
1.43153e-05
8.89211e-07
1.36063e-05
1.50855e-06
1.32152e-05
1.81536e-06
1.29722e-05
1.84908e-06
1.25458e-05
1.98384e-06
1.15908e-05
2.26023e-06
1.02876e-05
2.34367e-06
8.99203e-06
2.09411e-06
8.03155e-06
1.38101e-06
7.46822e-06
4.10485e-07
7.41711e-06
-6.82797e-07
7.60642e-06
-1.28995e-06
7.74636e-06
-1.38421e-06
7.58575e-06
-1.11905e-06
7.08297e-06
-7.85899e-07
6.49226e-06
-7.38289e-07
6.30911e-06
-1.20114e-06
6.91498e-06
-2.01865e-06
8.25964e-06
-2.20453e-06
1.0403e-05
-1.7502e-06
1.41123e-05
2.73771e-07
1.61814e-05
1.50234e-06
1.59565e-05
1.06651e-06
1.30914e-05
4.44086e-06
9.76371e-06
4.06455e-06
8.85404e-06
2.16027e-06
6.8536e-06
2.57992e-06
5.85537e-06
1.61313e-06
4.65551e-06
1.86905e-06
3.75202e-06
1.36476e-06
3.32138e-06
8.27632e-07
3.42154e-06
7.99747e-08
3.00538e-06
5.29673e-07
2.78523e-06
1.96939e-07
2.52314e-06
1.62135e-07
2.45241e-06
-2.65586e-07
2.45872e-06
-6.32044e-07
2.54621e-06
-1.24434e-06
2.54912e-06
-1.6738e-06
2.61534e-06
-2.13479e-06
3.09048e-06
-2.69172e-06
4.10086e-06
-2.94547e-06
6.00431e-06
-2.80689e-06
8.37553e-06
-2.44272e-06
1.04631e-05
-1.81088e-06
1.1675e-05
-5.28974e-07
1.21156e-05
1.6886e-07
1.22623e-05
5.41794e-07
1.19784e-05
8.4917e-07
1.15248e-05
7.65273e-07
1.08913e-05
9.53399e-07
1.0177e-05
1.13569e-06
9.58353e-06
1.07588e-06
9.22555e-06
8.58522e-07
8.83922e-06
9.0157e-07
8.41316e-06
8.39586e-07
7.95737e-06
7.09283e-07
7.42387e-06
5.77574e-07
6.93863e-06
3.9018e-07
6.52871e-06
2.50597e-07
6.35788e-06
2.72483e-07
6.4368e-06
3.29122e-07
6.61491e-06
3.05587e-07
6.5415e-06
6.14186e-07
6.12518e-06
9.52927e-07
5.65713e-06
1.12658e-06
5.14895e-06
1.1333e-06
4.60858e-06
1.08861e-06
3.95181e-06
1.20054e-06
3.34188e-06
1.13862e-06
2.80503e-06
1.0733e-06
2.26593e-06
1.10416e-06
1.74461e-06
1.08369e-06
1.22275e-06
1.07026e-06
6.93589e-07
1.05335e-06
1.82671e-07
9.9808e-07
-3.12619e-07
9.83219e-07
-8.05411e-07
9.79943e-07
-1.28895e-06
9.66919e-07
-1.75637e-06
9.36309e-07
-2.21161e-06
9.05611e-07
-2.65999e-06
8.90757e-07
-3.09854e-06
8.77196e-07
-3.52717e-06
8.6293e-07
-3.9438e-06
8.37036e-07
-4.34412e-06
8.03313e-07
-4.72924e-06
7.64995e-07
-5.1045e-06
7.41871e-07
-5.47464e-06
7.30815e-07
-5.83452e-06
7.17706e-07
-6.17815e-06
6.95779e-07
-6.50279e-06
6.55955e-07
-6.81497e-06
6.19302e-07
-7.12034e-06
6.03077e-07
-7.42004e-06
5.92706e-07
-7.70744e-06
5.74585e-07
-7.97589e-06
5.43179e-07
-8.23164e-06
5.17796e-07
-8.48077e-06
4.98065e-07
-8.7246e-06
4.82374e-07
-8.95968e-06
4.65351e-07
-9.18433e-06
4.46309e-07
-9.39633e-06
4.23133e-07
-9.59427e-06
3.97501e-07
-9.78103e-06
3.75123e-07
-9.95878e-06
3.55354e-07
-1.01302e-05
3.41621e-07
-1.02956e-05
3.30898e-07
-1.0451e-05
3.11127e-07
-1.05927e-05
2.81614e-07
-1.07214e-05
2.55791e-07
-1.08431e-05
2.42426e-07
-1.09589e-05
2.33541e-07
-1.10652e-05
2.16972e-07
-1.11608e-05
1.90472e-07
-1.12435e-05
1.62078e-07
-1.13147e-05
1.3958e-07
-1.13764e-05
1.21671e-07
-1.14301e-05
1.09833e-07
-1.14787e-05
1.02871e-07
-1.15208e-05
8.80965e-08
-1.15541e-05
6.71062e-08
-1.15765e-05
4.3614e-08
-1.15845e-05
1.41077e-08
-1.15806e-05
-8.78081e-09
-1.15674e-05
-2.55201e-08
-1.15466e-05
-4.01796e-08
-1.15206e-05
-4.90814e-08
-1.14902e-05
-5.79981e-08
-1.14514e-05
-7.79595e-08
-1.14007e-05
-1.05273e-07
-1.13363e-05
-1.31306e-07
-1.12598e-05
-1.50711e-07
-1.11738e-05
-1.64995e-07
-1.10806e-05
-1.78872e-07
-1.0981e-05
-1.94923e-07
-1.08735e-05
-2.16065e-07
-1.07537e-05
-2.43834e-07
-1.06195e-05
-2.72435e-07
-1.0474e-05
-2.94699e-07
-1.03212e-05
-3.06029e-07
-1.01614e-05
-3.13488e-07
-9.99371e-06
-3.28108e-07
-9.81526e-06
-3.5187e-07
-9.62478e-06
-3.83619e-07
-9.42558e-06
-4.05683e-07
-9.22064e-06
-4.16356e-07
-9.01132e-06
-4.2159e-07
-8.79332e-06
-4.3173e-07
-8.56684e-06
-4.46894e-07
-8.3355e-06
-4.64548e-07
-8.10332e-06
-4.72331e-07
-7.87386e-06
-4.64449e-07
-7.64463e-06
-4.50935e-07
-7.41121e-06
-4.5747e-07
-7.17063e-06
-4.82642e-07
-6.92664e-06
-4.93012e-07
-6.68391e-06
-4.91054e-07
-6.44423e-06
-4.85482e-07
-6.21007e-06
-4.67387e-07
-5.98395e-06
-4.41395e-07
-5.7617e-06
-4.34901e-07
-5.54125e-06
-4.39704e-07
-5.31843e-06
-4.5034e-07
-5.09833e-06
-4.4628e-07
-4.8834e-06
-4.36598e-07
-4.67376e-06
-4.20129e-07
-4.47231e-06
-3.9242e-07
-4.27998e-06
-3.74575e-07
-4.09593e-06
-3.65066e-07
-3.91567e-06
-3.63771e-07
-3.73717e-06
-3.62794e-07
-3.56303e-06
-3.54327e-07
-3.39628e-06
-3.37094e-07
-3.24091e-06
-3.05887e-07
-3.09408e-06
-2.87082e-07
-2.95049e-06
-2.82455e-07
-2.80838e-06
-2.81321e-07
-2.66975e-06
-2.77859e-07
-2.53668e-06
-2.67253e-07
-2.41068e-06
-2.52127e-07
-2.29483e-06
-2.34253e-07
-2.18944e-06
-2.17539e-07
-2.0902e-06
-2.03498e-07
-1.993e-06
-1.91598e-07
-1.89525e-06
-1.86181e-07
-1.79984e-06
-1.84048e-07
-1.70966e-06
-1.821e-07
-1.62452e-06
-1.7568e-07
-1.54493e-06
-1.66721e-07
-1.47095e-06
-1.51844e-07
-1.40021e-06
-1.33631e-07
-1.33016e-06
-1.34618e-07
-1.25908e-06
-1.43684e-07
-1.189e-06
-1.4349e-07
-1.12318e-06
-1.3715e-07
-1.05996e-06
-1.31333e-07
-9.97563e-07
-1.23095e-07
-9.33929e-07
-1.21718e-07
-8.69106e-07
-1.25738e-07
-8.0433e-07
-1.28688e-07
-7.41884e-07
-1.28191e-07
-6.83104e-07
-1.2334e-07
-6.22862e-07
-1.23952e-07
-5.5742e-07
-1.29009e-07
-4.89194e-07
-1.33366e-07
-4.20081e-07
-1.38277e-07
-3.49905e-07
-1.43083e-07
-2.7945e-07
-1.43949e-07
-2.10516e-07
-1.38221e-07
-1.40703e-07
-1.36426e-07
-6.75542e-08
-1.44412e-07
1.00473e-08
-1.5621e-07
9.05477e-08
-1.62804e-07
1.72525e-07
-1.65963e-07
2.5556e-07
-1.69251e-07
3.40764e-07
-1.72747e-07
4.28813e-07
-1.73331e-07
5.18785e-07
-1.75348e-07
6.10362e-07
-1.81465e-07
7.03783e-07
-1.88539e-07
8.00292e-07
-1.95415e-07
9.00206e-07
-2.01439e-07
1.00372e-06
-2.07961e-07
1.10997e-06
-2.1356e-07
1.21706e-06
-2.14397e-07
1.32552e-06
-2.14592e-07
1.43692e-06
-2.21456e-07
1.55218e-06
-2.30821e-07
1.67001e-06
-2.3627e-07
1.78938e-06
-2.39764e-07
1.91081e-06
-2.44219e-07
2.03507e-06
-2.49165e-07
2.16137e-06
-2.51373e-07
2.28966e-06
-2.5445e-07
2.41989e-06
-2.59039e-07
2.55144e-06
-2.63284e-07
2.68413e-06
-2.66474e-07
2.81859e-06
-2.69957e-07
2.95517e-06
-2.73115e-07
3.0934e-06
-2.74519e-07
3.23219e-06
-2.75639e-07
3.37035e-06
-2.75844e-07
3.50841e-06
-2.76745e-07
3.64757e-06
-2.78876e-07
3.78776e-06
-2.79916e-07
3.92775e-06
-2.78479e-07
4.06639e-06
-2.76205e-07
4.20364e-06
-2.74502e-07
4.34063e-06
-2.73963e-07
4.47734e-06
-2.72454e-07
4.61244e-06
-2.68967e-07
4.74508e-06
-2.64546e-07
4.87565e-06
-2.60872e-07
5.0044e-06
-2.57205e-07
5.13093e-06
-2.52378e-07
5.25457e-06
-2.46221e-07
5.37448e-06
-2.39072e-07
5.49079e-06
-2.32318e-07
5.60393e-06
-2.25953e-07
5.71369e-06
-2.18986e-07
5.81953e-06
-2.11093e-07
5.92104e-06
-2.02488e-07
6.01787e-06
-1.93293e-07
6.11e-06
-1.83952e-07
6.19739e-06
-1.74483e-07
6.27988e-06
-1.64581e-07
6.35724e-06
-1.54216e-07
6.4293e-06
-1.4367e-07
6.49584e-06
-1.3289e-07
6.55668e-06
-1.21591e-07
6.61176e-06
-1.09998e-07
6.66117e-06
-9.85559e-08
6.70494e-06
-8.7344e-08
6.74296e-06
-7.60618e-08
6.77509e-06
-6.44699e-08
6.80126e-06
-5.24366e-08
6.82148e-06
-4.01971e-08
6.83565e-06
-2.81652e-08
6.84408e-06
-1.69634e-08
6.847e-06
-6.05695e-09
6.84448e-06
4.91342e-09
6.83654e-06
1.58638e-08
6.82311e-06
2.68285e-08
6.8042e-06
3.76875e-08
6.7799e-06
4.82951e-08
6.75032e-06
5.86645e-08
6.71574e-06
6.86351e-08
6.67658e-06
7.79358e-08
6.63298e-06
8.69925e-08
6.58496e-06
9.58779e-08
6.53257e-06
1.04586e-07
6.47589e-06
1.13116e-07
6.41504e-06
1.21428e-07
6.35022e-06
1.29395e-07
6.28169e-06
1.36814e-07
6.20969e-06
1.43717e-07
6.13434e-06
1.50375e-07
6.05574e-06
1.56865e-07
5.97392e-06
1.63209e-07
5.88888e-06
1.69511e-07
5.80113e-06
1.74977e-07
5.71095e-06
1.79954e-07
5.61838e-06
1.84754e-07
5.52348e-06
1.89392e-07
5.42637e-06
1.93722e-07
5.32717e-06
1.97919e-07
5.22602e-06
2.02097e-07
5.12319e-06
2.05836e-07
5.01879e-06
2.09005e-07
4.91298e-06
2.11554e-07
4.80579e-06
2.13945e-07
4.69702e-06
2.16943e-07
4.58679e-06
2.20037e-07
4.47577e-06
2.21771e-07
4.36427e-06
2.2269e-07
4.2524e-06
2.23455e-07
4.13996e-06
2.24598e-07
4.02667e-06
2.2608e-07
3.91272e-06
2.27279e-07
3.79849e-06
2.28001e-07
3.68422e-06
2.28682e-07
3.57021e-06
2.28824e-07
3.45612e-06
2.28502e-07
3.34204e-06
2.27676e-07
3.22803e-06
2.27427e-07
3.11413e-06
2.27303e-07
3.00045e-06
2.26912e-07
2.88739e-06
2.26027e-07
2.77486e-06
2.25009e-07
2.66296e-06
2.23605e-07
2.55164e-06
2.22157e-07
2.4411e-06
2.20915e-07
2.3315e-06
2.1945e-07
2.22293e-06
2.17509e-07
2.11526e-06
2.1516e-07
2.00849e-06
2.13111e-07
1.90275e-06
2.10944e-07
1.7984e-06
2.08377e-07
1.6955e-06
2.05742e-07
1.59409e-06
2.03519e-07
1.4937e-06
2.01358e-07
1.39424e-06
1.98862e-07
1.29585e-06
1.96134e-07
1.1997e-06
1.91984e-07
1.10499e-06
1.89074e-07
1.01199e-06
1.85987e-07
9.19723e-07
1.85426e-07
8.29722e-07
1.81952e-07
7.40433e-07
1.798e-07
6.53914e-07
1.7387e-07
5.67246e-07
1.73759e-07
4.80201e-07
1.72733e-07
3.95331e-07
1.69427e-07
3.11118e-07
1.66702e-07
2.31956e-07
1.5793e-07
1.54663e-07
1.55656e-07
8.62064e-08
1.4297e-07
1.56217e-08
1.43366e-07
-6.20966e-08
1.47636e-07
-1.3647e-07
1.37069e-07
-2.10528e-07
1.36381e-07
-2.72344e-07
1.30612e-07
-2.89864e-07
7.72661e-08
-3.1934e-07
9.20962e-08
-4.03368e-07
1.43198e-07
-4.84945e-07
9.6888e-08
-6.38318e-07
1.78905e-07
-8.5161e-07
2.85948e-07
-1.16322e-06
3.41496e-07
-1.41836e-06
3.63443e-07
-1.54802e-06
3.29539e-07
-1.62517e-06
3.78038e-07
-1.66525e-06
3.05884e-07
-1.74645e-06
2.29679e-07
-1.81342e-06
2.03641e-07
-1.89354e-06
1.7364e-07
-1.95822e-06
1.48426e-07
-2.02122e-06
1.34713e-07
-2.07465e-06
1.2116e-07
-2.12857e-06
1.14452e-07
-2.15426e-06
7.61729e-08
-2.19783e-06
8.29289e-08
-2.27979e-06
1.18789e-07
-2.32348e-06
4.48521e-08
-2.383e-06
8.19482e-08
-2.43765e-06
1.15332e-07
-2.5261e-06
9.17376e-08
-2.50723e-06
1.99773e-08
-2.40239e-06
-3.42121e-08
-2.33213e-06
3.18083e-08
-2.30331e-06
-2.85823e-08
-2.33276e-06
-7.22408e-08
-2.32651e-06
-5.46357e-08
-2.3363e-06
-3.21136e-08
-2.318e-06
-4.01783e-08
-2.30614e-06
-2.63196e-08
-2.29585e-06
-1.80338e-08
-2.29786e-06
-2.11043e-09
-2.29245e-06
-1.02419e-08
-2.28771e-06
-2.13936e-08
-2.29649e-06
7.02245e-09
-2.22113e-06
-9.41168e-08
-2.15275e-06
-8.16967e-08
-2.22074e-06
6.9687e-08
-2.30256e-06
4.31486e-12
-2.54486e-06
1.67064e-07
-2.82348e-06
3.62068e-07
-3.52875e-06
6.83108e-07
-3.97568e-06
6.12859e-07
-4.01558e-06
3.67733e-07
-3.84269e-06
6.56206e-07
-3.46529e-06
2.96943e-07
-3.36287e-06
-1.40604e-08
-3.3403e-06
-8.42508e-08
-3.37052e-06
-1.56569e-07
-3.37885e-06
-1.77485e-07
-3.36213e-06
-1.59215e-07
-3.34243e-06
-1.02292e-07
-3.33276e-06
-6.26642e-08
-3.32744e-06
-4.51882e-08
-3.32623e-06
-3.61877e-08
-3.32573e-06
-1.73663e-08
-3.32484e-06
-3.61221e-09
-3.3239e-06
-1.83588e-10
-3.32473e-06
4.12303e-09
-3.32742e-06
2.86433e-09
-3.33759e-06
1.24363e-08
-3.35262e-06
2.75763e-08
-3.36855e-06
3.56231e-08
-3.38553e-06
3.52692e-08
-3.40366e-06
3.74963e-08
-3.42584e-06
4.58276e-08
-3.44944e-06
5.13692e-08
-3.47425e-06
5.06931e-08
-3.50263e-06
5.23586e-08
-3.53459e-06
6.13394e-08
-3.56927e-06
7.41788e-08
-3.60668e-06
8.18365e-08
-3.64716e-06
8.73151e-08
-3.69148e-06
9.04496e-08
-3.73724e-06
9.32642e-08
-3.78404e-06
9.67041e-08
-3.83399e-06
1.00512e-07
-3.88833e-06
1.08783e-07
-3.94719e-06
1.2049e-07
-4.00986e-06
1.31136e-07
-4.07321e-06
1.33472e-07
-4.13762e-06
1.3126e-07
-4.20193e-06
1.26996e-07
-4.26749e-06
1.25761e-07
-4.33516e-06
1.29657e-07
-4.4043e-06
1.33804e-07
-4.47408e-06
1.39068e-07
-4.54412e-06
1.40455e-07
-4.61501e-06
1.41568e-07
-4.68757e-06
1.45809e-07
-4.76234e-06
1.48726e-07
-4.83879e-06
1.4903e-07
-4.91664e-06
1.49826e-07
-4.99572e-06
1.53129e-07
-5.07603e-06
1.58101e-07
-5.15699e-06
1.62917e-07
-5.23824e-06
1.66475e-07
-5.32003e-06
1.68281e-07
-5.40238e-06
1.68547e-07
-5.48525e-06
1.67899e-07
-5.56845e-06
1.66834e-07
-5.65134e-06
1.65772e-07
-5.73384e-06
1.65152e-07
-5.81627e-06
1.65195e-07
-5.89887e-06
1.65541e-07
-5.98135e-06
1.65417e-07
-6.06333e-06
1.64406e-07
-6.14467e-06
1.6285e-07
-6.22582e-06
1.62013e-07
-6.30708e-06
1.61739e-07
-6.38855e-06
1.62796e-07
-6.46926e-06
1.61875e-07
-6.54904e-06
1.60947e-07
-6.62837e-06
1.58298e-07
-6.70739e-06
1.57908e-07
-6.78668e-06
1.58259e-07
-6.8655e-06
1.57858e-07
-6.94321e-06
1.5637e-07
-7.0207e-06
1.55924e-07
-7.09828e-06
1.55488e-07
-7.175e-06
1.53079e-07
-7.2532e-06
1.47218e-07
-7.32952e-06
1.41879e-07
-7.41007e-06
1.33862e-07
-7.4907e-06
1.29812e-07
1.2164e-07
-1.38753e-06
-2.27376e-06
-7.68989e-07
-1.70368e-07
-1.68545e-09
2.01077e-06
7.91716e-07
2.35862e-06
2.32238e-06
-3.56569e-07
5.35111e-06
-8.07201e-06
8.84979e-06
-1.3667e-05
1.25563e-05
-1.59655e-05
1.61522e-05
-1.68115e-05
1.95103e-05
-1.69721e-05
2.24705e-05
-1.53173e-05
2.41747e-05
-1.19922e-05
2.59433e-05
-1.07406e-05
2.8192e-05
-1.09661e-05
3.09482e-05
-1.18991e-05
3.3564e-05
-1.20917e-05
3.5385e-05
-1.08849e-05
3.62404e-05
-7.79645e-06
3.59135e-05
-3.30926e-06
3.46494e-05
1.08654e-06
3.42282e-05
4.27772e-06
3.51825e-05
5.85814e-06
3.70681e-05
5.67504e-06
3.91162e-05
4.12382e-06
4.0551e-05
6.05078e-07
4.11981e-05
-2.46867e-06
4.14031e-05
-3.88241e-06
4.12491e-05
-3.86628e-06
4.03618e-05
-2.54079e-06
3.89444e-05
2.98466e-07
3.70902e-05
3.27028e-06
3.49636e-05
5.76557e-06
3.29553e-05
8.07968e-06
3.10818e-05
9.71851e-06
3.00815e-05
1.01225e-05
2.91351e-05
9.65468e-06
2.71294e-05
8.88357e-06
2.5287e-05
8.50128e-06
2.4155e-05
6.62061e-06
2.34638e-05
3.73685e-06
2.27864e-05
2.42201e-06
2.21234e-05
2.42402e-06
2.1444e-05
3.30285e-06
2.08877e-05
3.76953e-06
2.02239e-05
3.25523e-06
1.96028e-05
1.67318e-06
1.91433e-05
9.81733e-07
1.86809e-05
1.27706e-06
1.80739e-05
2.41127e-06
1.73636e-05
3.01266e-06
1.64573e-05
2.73973e-06
1.56259e-05
1.45797e-06
1.50766e-05
3.15594e-07
1.46702e-05
-2.45747e-07
1.42003e-05
-2.54606e-07
1.35613e-05
2.56306e-07
1.28061e-05
9.34371e-07
1.22713e-05
1.42403e-06
1.22669e-05
1.51283e-06
1.27109e-05
1.37129e-06
1.31758e-05
1.38416e-06
1.34143e-05
1.74532e-06
1.29739e-05
2.70057e-06
1.18043e-05
3.51324e-06
1.03813e-05
3.51702e-06
8.9575e-06
2.8048e-06
7.77579e-06
1.59216e-06
7.05968e-06
3.32835e-08
6.73156e-06
-9.61866e-07
6.45769e-06
-1.11037e-06
6.0895e-06
-7.50887e-07
5.53544e-06
-2.31864e-07
4.80935e-06
-1.22179e-08
4.0596e-06
-4.51404e-07
3.44686e-06
-1.40593e-06
3.2149e-06
-1.97258e-06
3.77791e-06
-2.31324e-06
6.09814e-06
-2.04648e-06
9.01793e-06
-1.4175e-06
1.09424e-05
-8.58001e-07
1.38516e-05
1.53163e-06