/*--------------------------------*- C++ -*----------------------------------*\
| =========                 |                                                 |
| \\      /  F ield         | OpenFOAM: The Open Source CFD Toolbox           |
|  \\    /   O peration     | Version:  v2006                                 |
|   \\  /    A nd           | Website:  www.openfoam.com                      |
|    \\/     M anipulation  |                                                 |
\*---------------------------------------------------------------------------*/
FoamFile
{
    version     2.0;
    format      ascii;
    class       volVectorField;
    location    "9";
    object      U;
}
// * * * * * * * * * * * * * * * * * * * * * * * * * * * * * * * * * * * * * //

dimensions      [0 1 -1 0 0 0 0];


internalField   nonuniform List<vector> 
33000
(
(0.00683316 0 0.000145503)
(-0.0138108 0 0.00316509)
(-0.0030361 0 0.0112058)
(-0.022607 0 0.0102817)
(-0.0257109 0 -0.00103371)
(-0.0252632 0 -0.0110003)
(-0.0126044 0 -0.017567)
(0.00400724 0 -0.0206068)
(0.0229228 0 -0.0208473)
(0.0428119 0 -0.0215996)
(0.0633463 0 -0.0191281)
(0.0805545 0 -0.015154)
(0.0947873 0 -0.0113084)
(0.105931 0 -0.00879122)
(0.116238 0 -0.00732638)
(0.127108 0 -0.00804788)
(0.139951 0 -0.00748929)
(0.151003 0 -0.00463585)
(0.157619 0 -0.0021829)
(0.161528 0 0.00083803)
(0.16151 0 0.00604558)
(0.154498 0 0.012479)
(0.139657 0 0.0155054)
(0.127589 0 0.00992993)
(0.120648 0 0.00266896)
(0.119715 0 -0.0014664)
(0.122255 0 -0.0031341)
(0.128154 0 -0.0045133)
(0.134434 0 -0.00287772)
(0.138637 0 0.000543235)
(0.13916 0 0.00177065)
(0.13866 0 0.00398707)
(0.134797 0 0.0106355)
(0.123841 0 0.0173491)
(0.110773 0 0.0173994)
(0.0949861 0 0.0130126)
(0.0851656 0 0.00733565)
(0.0778687 0 0.00657388)
(0.0688497 0 0.00580074)
(0.0635793 0 0.00265941)
(0.06192 0 0.000445507)
(0.0609151 0 0.00102463)
(0.0585422 0 0.00327419)
(0.0538756 0 0.00518462)
(0.0483699 0 0.00335796)
(0.0467532 0 0.000128212)
(0.0467735 0 -0.000148344)
(0.0466047 0 0.000745614)
(0.0448275 0 0.00273206)
(0.0412483 0 0.00437358)
(0.0374315 0 0.0021812)
(0.0365246 0 -0.000247374)
(0.0370533 0 -0.00058232)
(0.037952 0 -0.000624128)
(0.0392572 0 -0.000978529)
(0.0405368 0 -0.00128922)
(0.0417093 0 -0.00120375)
(0.0419909 0 -0.00047286)
(0.0410393 0 0.00119774)
(0.0380679 0 0.00353492)
(0.0339001 0 0.00444711)
(0.0299018 0 0.00405549)
(0.0261922 0 0.00280017)
(0.0233236 0 0.00211204)
(0.021073 0 0.00146871)
(0.019295 0 0.000460186)
(0.0189068 0 -0.000926966)
(0.0201001 0 -0.002388)
(0.0225939 0 -0.00317053)
(0.0255666 0 -0.00357406)
(0.0288165 0 -0.00414715)
(0.0320726 0 -0.0050071)
(0.0352599 0 -0.00582774)
(0.0387027 0 -0.00634906)
(0.0416404 0 -0.00625474)
(0.0464287 0 -0.00288558)
(0.0447638 0 0.0038215)
(0.0476592 0 0.0178997)
(0.0230137 0 0.0119336)
(0.0290306 0 0.00219736)
(0.0195463 0 -0.000923632)
(0.0207942 0 -0.00371848)
(0.0158919 0 0.00284963)
(0.014599 0 0.0014388)
(0.013001 0 0.00346939)
(0.011407 0 0.000416043)
(0.00981731 0 0.000963914)
(0.00894356 0 -0.000863427)
(0.00798236 0 -0.000141839)
(0.00790013 0 -0.000188932)
(0.00753489 0 -0.000345928)
(0.00792791 0 6.23771e-05)
(0.0080886 0 -0.00100182)
(0.00957444 0 -0.00150872)
(0.0112558 0 -0.00382727)
(0.0152988 0 -0.00532699)
(0.0197144 0 -0.00765112)
(0.0254517 0 -0.00742489)
(0.0311081 0 -0.00580867)
(0.0349205 0 0.000847326)
(0.0354908 0 0.00432299)
(0.0355273 0 0.0048287)
(0.0339301 0 0.00304929)
(0.0322546 0 -0.000322688)
(0.0307928 0 -0.000591296)
(0.0288513 0 -0.000357848)
(0.0279522 0 0.0011153)
(0.0272947 0 0.00145653)
(0.0263503 0 0.00193339)
(0.0251908 0 0.00149433)
(0.0239371 0 0.000955115)
(0.0226897 0 0.000824242)
(0.0213619 0 0.000641074)
(0.0206141 0 0.000464879)
(0.0201203 0 -0.000354937)
(0.0203293 0 -0.000730892)
(0.020723 0 -0.00125879)
(0.0210427 0 0.000248569)
(0.0201234 0 0.00161135)
(0.019149 0 0.00229641)
(0.0176259 0 0.00190383)
(0.0164786 0 0.000877187)
(0.0149275 0 0.000823548)
(0.0131929 0 0.000827761)
(0.0117986 0 0.00123846)
(0.0104524 0 0.00127423)
(0.00908055 0 0.00129631)
(0.00780663 0 0.00103098)
(0.00640216 0 0.00108815)
(0.00497617 0 0.00101481)
(0.00359653 0 0.00115644)
(0.00222913 0 0.00105811)
(0.000981233 0 0.00102446)
(-0.000213515 0 0.000935042)
(-0.00145302 0 0.000949746)
(-0.00265378 0 0.000884781)
(-0.00386634 0 0.000879054)
(-0.005 0 0.000847984)
(-0.00611758 0 0.000843366)
(-0.00721213 0 0.000850918)
(-0.00831117 0 0.000843186)
(-0.00938217 0 0.000821428)
(-0.010415 0 0.000779218)
(-0.0113946 0 0.000736676)
(-0.012317 0 0.00070836)
(-0.0132262 0 0.000699827)
(-0.0141215 0 0.000695698)
(-0.0150149 0 0.000697257)
(-0.0158812 0 0.000654404)
(-0.0166711 0 0.000598098)
(-0.0174185 0 0.000577951)
(-0.018158 0 0.000569794)
(-0.0188851 0 0.00056365)
(-0.0195915 0 0.00054618)
(-0.0202603 0 0.000521119)
(-0.0208999 0 0.000489542)
(-0.021506 0 0.000464939)
(-0.0220917 0 0.000449461)
(-0.0226574 0 0.000433785)
(-0.0231994 0 0.000415734)
(-0.0237128 0 0.00039539)
(-0.0241972 0 0.000372988)
(-0.0246541 0 0.000350207)
(-0.0250853 0 0.000334353)
(-0.0255048 0 0.000325083)
(-0.0259123 0 0.000305982)
(-0.0262827 0 0.000274323)
(-0.0266119 0 0.000249391)
(-0.0269183 0 0.000235841)
(-0.0272155 0 0.000232095)
(-0.0275068 0 0.000220917)
(-0.0277674 0 0.000185934)
(-0.0279814 0 0.000153303)
(-0.028164 0 0.00013163)
(-0.0283229 0 0.000116168)
(-0.0284642 0 0.0001128)
(-0.0286035 0 0.00011144)
(-0.0287343 0 9.39636e-05)
(-0.0288329 0 6.50932e-05)
(-0.0289034 0 3.84489e-05)
(-0.0289377 0 9.62171e-06)
(-0.0289346 0 -1.00518e-05)
(-0.0289131 0 -2.26712e-05)
(-0.0288722 0 -3.5782e-05)
(-0.0288167 0 -4.29867e-05)
(-0.0287563 0 -5.3868e-05)
(-0.028678 0 -7.95298e-05)
(-0.0285601 0 -0.000111118)
(-0.0284049 0 -0.000133782)
(-0.0282255 0 -0.000143215)
(-0.0280335 0 -0.000148657)
(-0.02783 0 -0.000161881)
(-0.0276051 0 -0.000185328)
(-0.0273526 0 -0.000216386)
(-0.0270619 0 -0.000248373)
(-0.0267319 0 -0.000274552)
(-0.0263708 0 -0.000296999)
(-0.0259856 0 -0.000303208)
(-0.0256049 0 -0.00029827)
(-0.0252153 0 -0.000307961)
(-0.0248034 0 -0.000334466)
(-0.0243463 0 -0.000380332)
(-0.0238389 0 -0.00041246)
(-0.0233129 0 -0.000422127)
(-0.0227823 0 -0.000421167)
(-0.0222506 0 -0.000417284)
(-0.0217139 0 -0.000427041)
(-0.0211471 0 -0.000459254)
(-0.0205484 0 -0.000478255)
(-0.0199459 0 -0.000466015)
(-0.0193735 0 -0.000429565)
(-0.0188369 0 -0.000432647)
(-0.0182512 0 -0.000477723)
(-0.0176278 0 -0.000494271)
(-0.017005 0 -0.000493583)
(-0.0163863 0 -0.000488537)
(-0.0157751 0 -0.000455703)
(-0.0152212 0 -0.000411927)
(-0.0146966 0 -0.000409591)
(-0.0141586 0 -0.0004321)
(-0.0135987 0 -0.000452348)
(-0.013022 0 -0.000449662)
(-0.0124669 0 -0.000441326)
(-0.0119135 0 -0.000414245)
(-0.0114147 0 -0.000366226)
(-0.0109577 0 -0.000349143)
(-0.0105031 0 -0.000354784)
(-0.0100523 0 -0.000364332)
(-0.00958504 0 -0.000366616)
(-0.00913115 0 -0.000359639)
(-0.00868308 0 -0.000338423)
(-0.00828036 0 -0.00029141)
(-0.00792924 0 -0.000269085)
(-0.00757912 0 -0.000269404)
(-0.00723437 0 -0.000273133)
(-0.00688288 0 -0.000274675)
(-0.00653804 0 -0.00026389)
(-0.00621181 0 -0.000245861)
(-0.00590712 0 -0.000231849)
(-0.00561957 0 -0.000225877)
(-0.00534606 0 -0.000211171)
(-0.00509829 0 -0.000186076)
(-0.00487369 0 -0.00016658)
(-0.00465599 0 -0.000168372)
(-0.00443022 0 -0.000182483)
(-0.00419636 0 -0.000181529)
(-0.00397778 0 -0.000176021)
(-0.00375999 0 -0.000155783)
(-0.00358954 0 -0.000116401)
(-0.0034441 0 -0.000123603)
(-0.00326722 0 -0.000145497)
(-0.00308058 0 -0.000146931)
(-0.00290059 0 -0.000143477)
(-0.00272332 0 -0.000136457)
(-0.00256044 0 -0.000117959)
(-0.00241942 0 -0.000109703)
(-0.00226991 0 -0.000116997)
(-0.00211478 0 -0.000125678)
(-0.00195018 0 -0.00013169)
(-0.0017861 0 -0.000131716)
(-0.00162714 0 -0.000127962)
(-0.00146743 0 -0.000122742)
(-0.00130913 0 -0.000124865)
(-0.00114147 0 -0.000135503)
(-0.000963218 0 -0.000145242)
(-0.000776717 0 -0.000147369)
(-0.000595803 0 -0.000137545)
(-0.000430019 0 -0.000127986)
(-0.000262607 0 -0.000138355)
(-7.32703e-05 0 -0.000155401)
(0.000130326 0 -0.000163374)
(0.000338642 0 -0.000166808)
(0.000550282 0 -0.000171515)
(0.000770196 0 -0.000173318)
(0.000987941 0 -0.000164925)
(0.001197 0 -0.000164295)
(0.00141508 0 -0.000176453)
(0.00164669 0 -0.00018892)
(0.00189081 0 -0.000195749)
(0.00214135 0 -0.000200165)
(0.00239866 0 -0.000205926)
(0.00266374 0 -0.000211774)
(0.0029355 0 -0.000211094)
(0.00320028 0 -0.000206855)
(0.00346671 0 -0.000215545)
(0.00375091 0 -0.000227733)
(0.00404466 0 -0.000233491)
(0.00434358 0 -0.000237125)
(0.00464677 0 -0.000241898)
(0.00495805 0 -0.000245838)
(0.00527128 0 -0.000244944)
(0.00558383 0 -0.000246461)
(0.00590224 0 -0.000252278)
(0.00622817 0 -0.000259141)
(0.00656103 0 -0.000263572)
(0.00689726 0 -0.000267026)
(0.00723885 0 -0.000268158)
(0.00757995 0 -0.000265983)
(0.00792066 0 -0.000267483)
(0.00826424 0 -0.000270676)
(0.00860939 0 -0.000273217)
(0.00895765 0 -0.000274846)
(0.00930812 0 -0.000274055)
(0.00965613 0 -0.000270892)
(0.0100007 0 -0.000269215)
(0.0103439 0 -0.000269458)
(0.010687 0 -0.00026909)
(0.0110286 0 -0.000265987)
(0.0113659 0 -0.000262134)
(0.011698 0 -0.000258543)
(0.0120256 0 -0.000255747)
(0.0123496 0 -0.000252157)
(0.0126681 0 -0.000246615)
(0.012979 0 -0.000239963)
(0.0132811 0 -0.000233379)
(0.013575 0 -0.000227453)
(0.0138612 0 -0.000221238)
(0.014139 0 -0.000214064)
(0.0144073 0 -0.000206152)
(0.0146653 0 -0.000197784)
(0.0149122 0 -0.000188958)
(0.0151476 0 -0.000179905)
(0.0153714 0 -0.000170586)
(0.0155832 0 -0.000160588)
(0.015782 0 -0.000150158)
(0.0159675 0 -0.000139936)
(0.0161401 0 -0.000129802)
(0.0162992 0 -0.000118889)
(0.0164439 0 -0.00010715)
(0.0165738 0 -9.56501e-05)
(0.0166895 0 -8.48184e-05)
(0.0167915 0 -7.41902e-05)
(0.0168796 0 -6.31446e-05)
(0.0169531 0 -5.1035e-05)
(0.0170109 0 -3.84731e-05)
(0.0170529 0 -2.704e-05)
(0.0170808 0 -1.65048e-05)
(0.0170955 0 -5.81214e-06)
(0.0170964 0 5.08663e-06)
(0.0170835 0 1.60242e-05)
(0.0170568 0 2.67725e-05)
(0.0170165 0 3.72181e-05)
(0.0169628 0 4.73118e-05)
(0.0168964 0 5.72155e-05)
(0.0168173 0 6.6939e-05)
(0.0167262 0 7.63137e-05)
(0.0166235 0 8.54624e-05)
(0.0165093 0 9.43031e-05)
(0.0163842 0 0.000102824)
(0.0162485 0 0.000111182)
(0.0161022 0 0.000119356)
(0.0159457 0 0.000127214)
(0.0157795 0 0.000134503)
(0.0156044 0 0.000141242)
(0.0154211 0 0.000147714)
(0.0152293 0 0.000154051)
(0.0150298 0 0.000160151)
(0.0148223 0 0.00016615)
(0.0146074 0 0.000171506)
(0.0143861 0 0.000176554)
(0.0141584 0 0.000181359)
(0.0139249 0 0.000185867)
(0.0136858 0 0.000189954)
(0.0134418 0 0.000194058)
(0.0131921 0 0.000198569)
(0.012937 0 0.000203008)
(0.0126772 0 0.000206415)
(0.0124141 0 0.000208561)
(0.0121486 0 0.000210039)
(0.0118804 0 0.000212486)
(0.0116077 0 0.000215856)
(0.0113314 0 0.000218166)
(0.0110538 0 0.00021909)
(0.0107754 0 0.000219802)
(0.0104958 0 0.000220956)
(0.0102146 0 0.000222156)
(0.00993167 0 0.000223316)
(0.00964793 0 0.000224291)
(0.00936276 0 0.000226238)
(0.00907589 0 0.000227263)
(0.00878876 0 0.000226095)
(0.00850393 0 0.0002233)
(0.00822077 0 0.000223509)
(0.00793688 0 0.000222892)
(0.00765377 0 0.000223491)
(0.00737065 0 0.000222012)
(0.00708887 0 0.000221985)
(0.00680811 0 0.000218646)
(0.00653027 0 0.000218058)
(0.00625375 0 0.000215457)
(0.00597833 0 0.000216414)
(0.00570438 0 0.000212207)
(0.00543363 0 0.00021073)
(0.00516695 0 0.000205541)
(0.00490198 0 0.000205479)
(0.00464111 0 0.000200335)
(0.00438194 0 0.000200593)
(0.00412723 0 0.000196672)
(0.00387141 0 0.000196292)
(0.00362289 0 0.000189358)
(0.00337425 0 0.000187431)
(0.00313479 0 0.000182075)
(0.00289477 0 0.000179264)
(0.00266364 0 0.000176775)
(0.00242935 0 0.000174727)
(0.00219845 0 0.000176746)
(0.00196916 0 0.00016529)
(0.00174629 0 0.000170086)
(0.00153208 0 0.000158679)
(0.00131095 0 0.000177659)
(0.00110362 0 0.000159621)
(0.000887926 0 0.000179963)
(0.000691522 0 0.000146968)
(0.000493492 0 0.000164024)
(0.000300331 0 0.000133984)
(0.000120095 0 0.000160445)
(-6.27959e-05 0 0.000147483)
(-0.000230435 0 0.000163196)
(-0.000375417 0 0.00012105)
(-0.00054301 0 0.000112884)
(-0.000718633 0 4.6502e-05)
(-0.000842567 0 0.000110634)
(-0.00103129 0 0.000189634)
(-0.00113882 0 0.000237074)
(-0.00110732 0 0.00015682)
(-0.00126771 0 -4.83143e-06)
(-0.00146961 0 -0.000402272)
(-0.00141722 0 -0.000222012)
(-0.0020135 0 0.000364053)
(-0.00241225 0 0.000764911)
(-0.00351995 0 0.000859628)
(-0.00374487 0 0.000383465)
(-0.00425698 0 0.000380158)
(-0.00443267 0 0.000210433)
(-0.00472077 0 0.000181848)
(-0.00485486 0 0.000147833)
(-0.00507656 0 9.60206e-05)
(-0.00519549 0 0.000156327)
(-0.00537838 0 8.8953e-05)
(-0.00544745 0 0.000155622)
(-0.00557688 0 6.68073e-05)
(-0.00562899 0 8.49489e-05)
(-0.00558498 0 -5.44491e-05)
(-0.00574053 0 1.20261e-05)
(-0.00588851 0 -0.000215019)
(-0.0057552 0 0.000108349)
(-0.00608923 0 0.000376817)
(-0.00609671 0 0.000344313)
(-0.0066067 0 -8.896e-06)
(-0.00610453 0 -0.000368065)
(-0.00608663 0 -0.000128411)
(-0.00587112 0 -0.000180056)
(-0.00587071 0 -3.95403e-05)
(-0.00576696 0 -0.000109767)
(-0.00579421 0 1.44849e-05)
(-0.00573174 0 -0.000100923)
(-0.00577074 0 3.43734e-05)
(-0.00571015 0 -0.000125212)
(-0.00568489 0 6.37802e-05)
(-0.00570446 0 -0.000164638)
(-0.00558786 0 4.53001e-05)
(-0.00564105 0 -0.000123356)
(-0.00559427 0 0.00015115)
(-0.00523374 0 -0.000142214)
(-0.00521399 0 0.000154166)
(-0.00565899 0 -0.000951419)
(-0.00509252 0 -0.000468076)
(-0.00649253 0 0.00050894)
(-0.00674882 0 0.00203983)
(-0.0105833 0 0.0027578)
(-0.0104498 0 0.000387368)
(-0.0108092 0 -0.000143787)
(-0.0101196 0 -0.000595036)
(-0.00977983 0 -0.000532798)
(-0.00925379 0 -0.000360665)
(-0.00902077 0 -0.000195184)
(-0.00885519 0 -0.000138606)
(-0.0087516 0 -0.000111671)
(-0.00865431 0 -0.000106184)
(-0.00859037 0 -5.41661e-05)
(-0.00857434 0 -9.57345e-06)
(-0.00857369 0 1.9581e-06)
(-0.00858063 0 8.91699e-06)
(-0.00858762 0 4.29699e-07)
(-0.00858618 0 2.17438e-07)
(-0.00860334 0 2.61372e-05)
(-0.00864919 0 4.37035e-05)
(-0.00870078 0 3.87426e-05)
(-0.00874253 0 4.02253e-05)
(-0.00879418 0 4.99176e-05)
(-0.00886367 0 5.976e-05)
(-0.00893325 0 5.25748e-05)
(-0.00899276 0 4.463e-05)
(-0.00905631 0 5.69229e-05)
(-0.00914237 0 8.25828e-05)
(-0.00924978 0 9.32208e-05)
(-0.00936605 0 9.58576e-05)
(-0.0094822 0 9.11902e-05)
(-0.00959745 0 9.44531e-05)
(-0.00972083 0 0.000101424)
(-0.00984799 0 9.95061e-05)
(-0.00997531 0 0.000105939)
(-0.0101189 0 0.00012231)
(-0.0102849 0 0.000137918)
(-0.0104617 0 0.000142264)
(-0.0106343 0 0.000133105)
(-0.0107954 0 0.000121806)
(-0.010947 0 0.000114895)
(-0.0110994 0 0.000119465)
(-0.0112572 0 0.000125489)
(-0.0114245 0 0.000138049)
(-0.0116013 0 0.000141085)
(-0.0117776 0 0.000141148)
(-0.0119557 0 0.00014638)
(-0.0121416 0 0.000146291)
(-0.012327 0 0.000141045)
(-0.0125059 0 0.000138331)
(-0.0126867 0 0.000142772)
(-0.0128761 0 0.000151899)
(-0.0130758 0 0.000162779)
(-0.0132859 0 0.000171596)
(-0.0135015 0 0.000174621)
(-0.0137177 0 0.000173323)
(-0.0139324 0 0.000169276)
(-0.0141428 0 0.000165278)
(-0.0143504 0 0.000163159)
(-0.0145577 0 0.000162902)
(-0.014764 0 0.00016371)
(-0.0149709 0 0.000163929)
(-0.0151785 0 0.000163897)
(-0.0153856 0 0.000163017)
(-0.0155909 0 0.000161402)
(-0.015794 0 0.000159521)
(-0.0159932 0 0.000158162)
(-0.0161994 0 0.000159869)
(-0.0163952 0 0.000159862)
(-0.0166145 0 0.000161331)
(-0.0167893 0 0.000155931)
(-0.0170197 0 0.000155741)
(-0.017173 0 0.000155372)
(-0.0174357 0 0.000156419)
(-0.0175665 0 0.000156104)
(-0.0177198 0 0.000155883)
(-0.0180212 0 0.000153885)
(-0.0183422 0 0.000148723)
(-0.0179021 0 0.000125817)
(-0.0195252 0 0.000113698)
(-0.0167884 0 6.94687e-05)
(-0.0217896 0 4.91271e-05)
(-0.016336 0 -2.17422e-05)
(0.00755714 0 -0.0032818)
(-0.0114188 0 0.00269845)
(0.00336457 0 0.0127331)
(-0.00438584 0 0.014017)
(-0.000891252 0 0.00958784)
(-0.00128654 0 -0.0110279)
(0.010222 0 -0.0298133)
(0.0213374 0 -0.0382419)
(0.0337634 0 -0.0430536)
(0.0474174 0 -0.0448982)
(0.060783 0 -0.0413058)
(0.072636 0 -0.0349762)
(0.0820044 0 -0.0292981)
(0.0913234 0 -0.0271644)
(0.102672 0 -0.0279252)
(0.11453 0 -0.0296474)
(0.126689 0 -0.0293612)
(0.138558 0 -0.0224011)
(0.146392 0 -0.0151208)
(0.147934 0 -0.00784399)
(0.142951 0 0.00518268)
(0.135097 0 0.0199873)
(0.127581 0 0.0256526)
(0.121496 0 0.022245)
(0.118029 0 0.010694)
(0.119467 0 -0.00261124)
(0.124175 0 -0.010941)
(0.128874 0 -0.0139515)
(0.133507 0 -0.0130627)
(0.137102 0 -0.00729803)
(0.13536 0 -0.00160399)
(0.129961 0 0.00422099)
(0.122653 0 0.012951)
(0.11466 0 0.0191554)
(0.10553 0 0.0271752)
(0.095351 0 0.0281234)
(0.0874666 0 0.0207419)
(0.0793905 0 0.0199645)
(0.0706892 0 0.0169558)
(0.0656586 0 0.00900988)
(0.062876 0 0.00443362)
(0.0602576 0 0.00452239)
(0.057463 0 0.00770959)
(0.0540489 0 0.0104434)
(0.0512777 0 0.00782215)
(0.0485399 0 0.00237627)
(0.0470776 0 0.000893786)
(0.0466494 0 0.002118)
(0.044941 0 0.00562894)
(0.042796 0 0.00721556)
(0.0407731 0 0.00502498)
(0.0385275 0 0.000866367)
(0.0377493 0 -0.00164289)
(0.0382715 0 -0.0027447)
(0.0389405 0 -0.00320929)
(0.0392212 0 -0.00259213)
(0.038478 0 -0.00115885)
(0.0368601 0 0.00158883)
(0.034665 0 0.00503929)
(0.0333953 0 0.00742849)
(0.0327646 0 0.00785454)
(0.0320709 0 0.00785992)
(0.030495 0 0.0074388)
(0.0274591 0 0.00622693)
(0.0239102 0 0.00492639)
(0.0210707 0 0.00283681)
(0.0190288 0 -0.00031797)
(0.0182467 0 -0.00351512)
(0.0187175 0 -0.00569746)
(0.0193378 0 -0.0064654)
(0.019384 0 -0.00622232)
(0.018603 0 -0.00550226)
(0.016822 0 -0.00509039)
(0.0156935 0 -0.00516289)
(0.0160363 0 -0.00564163)
(0.0186328 0 -0.00472291)
(0.0221713 0 -0.00143724)
(0.030122 0 0.0106675)
(0.0409456 0 0.01565)
(0.0381535 0 0.0049948)
(0.0447154 0 0.0142491)
(0.0208945 0 0.0098103)
(0.0274524 0 0.00690282)
(0.0171253 0 0.00305167)
(0.0170547 0 0.0012201)
(0.0122282 0 0.00486809)
(0.0110651 0 0.00265893)
(0.0076763 0 0.00404421)
(0.00900318 0 0.00161021)
(0.00798846 0 0.00109834)
(0.00713726 0 0.000179441)
(0.00670829 0 -0.000874608)
(0.00597218 0 -0.00163353)
(0.00623543 0 -0.00343374)
(0.00611385 0 -0.00526626)
(0.00656487 0 -0.00784234)
(0.00623182 0 -0.00865746)
(0.00680609 0 -0.0100708)
(0.00867331 0 -0.00957309)
(0.011819 0 -0.00812007)
(0.0181482 0 -0.00493928)
(0.0238205 0 -0.00258618)
(0.028517 0 0.00247809)
(0.0297604 0 0.00517651)
(0.0308665 0 0.00603333)
(0.0304009 0 0.004765)
(0.0295232 0 0.00130659)
(0.0280772 0 0.00102647)
(0.0264038 0 0.00138197)
(0.0244642 0 0.00229671)
(0.0234647 0 0.00298552)
(0.0226538 0 0.00321844)
(0.0215451 0 0.00259985)
(0.0205172 0 0.00150986)
(0.019277 0 0.000677083)
(0.017832 0 -4.66711e-05)
(0.0168758 0 -5.93258e-05)
(0.0157655 0 0.000493645)
(0.0159933 0 0.00160117)
(0.0162466 0 0.00156046)
(0.0168213 0 0.00241003)
(0.0158291 0 0.00334511)
(0.0148304 0 0.00434725)
(0.0134422 0 0.00406885)
(0.0123113 0 0.00306891)
(0.0107297 0 0.00299959)
(0.00903073 0 0.00286096)
(0.00767898 0 0.00318738)
(0.00634436 0 0.00335148)
(0.00498758 0 0.00340551)
(0.00373416 0 0.00315089)
(0.00238317 0 0.00306421)
(0.00108221 0 0.00280397)
(-0.000167434 0 0.00290209)
(-0.00139787 0 0.00287847)
(-0.00262919 0 0.00291557)
(-0.00381626 0 0.00280677)
(-0.00496586 0 0.00269296)
(-0.00609319 0 0.00263481)
(-0.00720713 0 0.00259668)
(-0.00828636 0 0.0025705)
(-0.00934973 0 0.00248232)
(-0.0103695 0 0.00238874)
(-0.0113513 0 0.00224928)
(-0.0122952 0 0.00217373)
(-0.0132282 0 0.00213513)
(-0.0141449 0 0.00211672)
(-0.015028 0 0.00206923)
(-0.015862 0 0.00194903)
(-0.0166524 0 0.00181553)
(-0.0174227 0 0.00176193)
(-0.0181793 0 0.00173295)
(-0.018921 0 0.00169267)
(-0.0196153 0 0.00161177)
(-0.0202644 0 0.00153727)
(-0.0208935 0 0.00146635)
(-0.0215107 0 0.00140952)
(-0.0221119 0 0.00135989)
(-0.0226865 0 0.00130786)
(-0.0232347 0 0.00124278)
(-0.0237463 0 0.00117213)
(-0.0242249 0 0.00110654)
(-0.0246798 0 0.00104491)
(-0.0251141 0 0.00100236)
(-0.025537 0 0.000975138)
(-0.0259408 0 0.000917543)
(-0.0263137 0 0.000824588)
(-0.0266493 0 0.000749242)
(-0.0269578 0 0.000712813)
(-0.0272575 0 0.000692659)
(-0.0275363 0 0.0006481)
(-0.0277893 0 0.000559095)
(-0.0280138 0 0.000470146)
(-0.0282035 0 0.000405836)
(-0.0283696 0 0.000354761)
(-0.0285119 0 0.00032812)
(-0.0286385 0 0.000313615)
(-0.0287546 0 0.000267341)
(-0.028849 0 0.000200126)
(-0.0289213 0 0.000128184)
(-0.0289602 0 3.84049e-05)
(-0.0289622 0 -2.81495e-05)
(-0.0289401 0 -7.50504e-05)
(-0.0288967 0 -0.000116395)
(-0.0288359 0 -0.000138603)
(-0.0287668 0 -0.000163096)
(-0.0286834 0 -0.000228296)
(-0.028573 0 -0.000317607)
(-0.0284296 0 -0.00039256)
(-0.0282516 0 -0.000440333)
(-0.0280471 0 -0.000472687)
(-0.0278217 0 -0.00051131)
(-0.0275808 0 -0.000564238)
(-0.0273239 0 -0.000636576)
(-0.027043 0 -0.000726788)
(-0.026725 0 -0.000811329)
(-0.026372 0 -0.00087587)
(-0.0259977 0 -0.000900979)
(-0.0256081 0 -0.00091043)
(-0.0251989 0 -0.000952698)
(-0.0247695 0 -0.00102866)
(-0.0243063 0 -0.00113753)
(-0.0238175 0 -0.00121015)
(-0.0233101 0 -0.00123932)
(-0.0227933 0 -0.00124695)
(-0.0222628 0 -0.00126253)
(-0.0217036 0 -0.00130539)
(-0.0211305 0 -0.00137349)
(-0.0205469 0 -0.00140895)
(-0.01997 0 -0.00138062)
(-0.0193991 0 -0.0013129)
(-0.0188243 0 -0.00132841)
(-0.0182312 0 -0.0014246)
(-0.0176221 0 -0.00146259)
(-0.0170109 0 -0.00145786)
(-0.016409 0 -0.00144292)
(-0.0158118 0 -0.00137725)
(-0.0152393 0 -0.00128007)
(-0.01468 0 -0.00126184)
(-0.0141291 0 -0.0012909)
(-0.0135765 0 -0.0013356)
(-0.0130161 0 -0.00132774)
(-0.0124755 0 -0.00130059)
(-0.0119416 0 -0.00123991)
(-0.0114272 0 -0.00113481)
(-0.0109345 0 -0.00108337)
(-0.0104655 0 -0.00106791)
(-0.0100143 0 -0.00107773)
(-0.00956381 0 -0.00108168)
(-0.00912228 0 -0.00105628)
(-0.00869276 0 -0.00100017)
(-0.00828896 0 -0.000891643)
(-0.00791562 0 -0.000833423)
(-0.00755483 0 -0.000822141)
(-0.00719751 0 -0.000821017)
(-0.00684445 0 -0.000819635)
(-0.00650432 0 -0.000790662)
(-0.00617915 0 -0.00074554)
(-0.00587432 0 -0.000698801)
(-0.00560007 0 -0.000655397)
(-0.00534704 0 -0.000608068)
(-0.00510411 0 -0.00055577)
(-0.00486073 0 -0.000528724)
(-0.00461563 0 -0.000528485)
(-0.00438365 0 -0.000539838)
(-0.00416468 0 -0.000529926)
(-0.00395804 0 -0.000508554)
(-0.00376664 0 -0.000456099)
(-0.00358822 0 -0.000378142)
(-0.00341283 0 -0.000383995)
(-0.00323797 0 -0.000425077)
(-0.00305736 0 -0.000429885)
(-0.00288782 0 -0.000417056)
(-0.00272806 0 -0.000398751)
(-0.00257186 0 -0.000359109)
(-0.0024159 0 -0.000346977)
(-0.00225381 0 -0.000361871)
(-0.00209173 0 -0.000376644)
(-0.00193 0 -0.000384961)
(-0.00177951 0 -0.00037554)
(-0.00163609 0 -0.000372673)
(-0.00147808 0 -0.000376962)
(-0.00130912 0 -0.00038728)
(-0.0011368 0 -0.000408152)
(-0.00096375 0 -0.000427726)
(-0.000785665 0 -0.000430174)
(-0.000611829 0 -0.000406984)
(-0.000440646 0 -0.00039572)
(-0.000263025 0 -0.000421869)
(-7.45976e-05 0 -0.000462437)
(0.000124751 0 -0.000483481)
(0.000328048 0 -0.000493262)
(0.00053453 0 -0.000506071)
(0.000743281 0 -0.000514706)
(0.000960594 0 -0.000505471)
(0.00118344 0 -0.000506907)
(0.00141055 0 -0.000530049)
(0.00164121 0 -0.000558554)
(0.0018778 0 -0.000581493)
(0.00212368 0 -0.000597709)
(0.00237741 0 -0.000614931)
(0.00264127 0 -0.00063157)
(0.00290853 0 -0.000632255)
(0.00317687 0 -0.000627385)
(0.00345071 0 -0.000649535)
(0.00373407 0 -0.000680473)
(0.00402682 0 -0.000697398)
(0.00432337 0 -0.000709065)
(0.00462349 0 -0.000723114)
(0.00493074 0 -0.000735779)
(0.0052446 0 -0.000737974)
(0.0055624 0 -0.00074512)
(0.00588596 0 -0.00076003)
(0.00621359 0 -0.000776079)
(0.00654369 0 -0.000787734)
(0.00687708 0 -0.000797781)
(0.007216 0 -0.000804789)
(0.00755993 0 -0.000805034)
(0.00790723 0 -0.000807974)
(0.00825378 0 -0.000811307)
(0.00859805 0 -0.00081644)
(0.00894411 0 -0.00082293)
(0.00929389 0 -0.000823824)
(0.00964498 0 -0.000817279)
(0.00999389 0 -0.000811774)
(0.0103381 0 -0.00080902)
(0.0106802 0 -0.000807158)
(0.011023 0 -0.000800708)
(0.0113637 0 -0.000789828)
(0.0116985 0 -0.000778034)
(0.012027 0 -0.000768197)
(0.0123514 0 -0.000757325)
(0.0126706 0 -0.000742308)
(0.012984 0 -0.000723308)
(0.0132888 0 -0.000703035)
(0.0135836 0 -0.000684156)
(0.0138703 0 -0.000665183)
(0.0141493 0 -0.000644242)
(0.0144191 0 -0.000620895)
(0.0146785 0 -0.000595702)
(0.0149266 0 -0.000569003)
(0.0151627 0 -0.000541696)
(0.0153872 0 -0.000513818)
(0.0155997 0 -0.000484531)
(0.0157996 0 -0.000453748)
(0.0159865 0 -0.000422791)
(0.0161599 0 -0.000391481)
(0.0163192 0 -0.000358478)
(0.0164641 0 -0.00032427)
(0.0165946 0 -0.000290413)
(0.0167111 0 -0.000257491)
(0.0168134 0 -0.000224626)
(0.0169013 0 -0.000190852)
(0.016974 0 -0.000155325)
(0.0170321 0 -0.000118478)
(0.0170751 0 -8.28815e-05)
(0.017103 0 -5.05183e-05)
(0.0171172 0 -1.87615e-05)
(0.0171176 0 1.37035e-05)
(0.0171046 0 4.62409e-05)
(0.0170779 0 7.85767e-05)
(0.0170375 0 0.000110337)
(0.0169834 0 0.000141261)
(0.016916 0 0.000171328)
(0.0168355 0 0.000200578)
(0.0167431 0 0.000228367)
(0.0166397 0 0.000255414)
(0.0165251 0 0.00028166)
(0.0163996 0 0.000307211)
(0.0162631 0 0.00033217)
(0.0161162 0 0.000356615)
(0.0159589 0 0.000380115)
(0.0157921 0 0.00040196)
(0.0156163 0 0.000422224)
(0.0154321 0 0.000441804)
(0.0152395 0 0.000460927)
(0.0150391 0 0.000479425)
(0.0148304 0 0.000497651)
(0.014614 0 0.000513946)
(0.0143916 0 0.000528877)
(0.0141631 0 0.000543074)
(0.0139288 0 0.000556609)
(0.0136886 0 0.000569165)
(0.0134432 0 0.000581602)
(0.0131926 0 0.000594606)
(0.0129375 0 0.000606225)
(0.0126784 0 0.000615503)
(0.0124156 0 0.000622216)
(0.0121493 0 0.00062876)
(0.0118796 0 0.000637485)
(0.0116054 0 0.000646923)
(0.0113285 0 0.000652131)
(0.0110503 0 0.000654695)
(0.0107711 0 0.000657006)
(0.0104909 0 0.000660335)
(0.0102089 0 0.000664182)
(0.00992443 0 0.000667142)
(0.00963923 0 0.000669605)
(0.00935318 0 0.000672753)
(0.00906802 0 0.000674731)
(0.00878297 0 0.00067279)
(0.00849768 0 0.000669262)
(0.00821248 0 0.000667642)
(0.00792775 0 0.000668153)
(0.00764285 0 0.000666294)
(0.00735949 0 0.000665723)
(0.00707742 0 0.000661928)
(0.00679698 0 0.000659196)
(0.00651778 0 0.000652943)
(0.00624051 0 0.000651948)
(0.00596495 0 0.000646803)
(0.00569267 0 0.000643844)
(0.00542194 0 0.000633813)
(0.00515448 0 0.000630014)
(0.00488791 0 0.000621046)
(0.00462598 0 0.000616963)
(0.00436592 0 0.000607337)
(0.00411172 0 0.000605537)
(0.00385862 0 0.000596913)
(0.00361001 0 0.000591654)
(0.00336111 0 0.000580514)
(0.00311829 0 0.000570896)
(0.00288018 0 0.00056222)
(0.00264483 0 0.000553867)
(0.00241518 0 0.000557418)
(0.00218336 0 0.000545699)
(0.00196545 0 0.000546176)
(0.00173644 0 0.000516225)
(0.00153355 0 0.00052595)
(0.0013022 0 0.000495596)
(0.00109941 0 0.000505089)
(0.000876639 0 0.000468185)
(0.000679624 0 0.000472207)
(0.000479527 0 0.000451743)
(0.000294421 0 0.000451655)
(0.000136061 0 0.000411552)
(-5.74239e-05 0 0.00040205)
(-0.000253476 0 0.000329578)
(-0.000428609 0 0.000368529)
(-0.000624332 0 0.000427671)
(-0.000737149 0 0.00042291)
(-0.000712062 0 0.000381873)
(-0.000884868 0 0.000275436)
(-0.00113184 0 -0.000117222)
(-0.00129277 0 4.25913e-05)
(-0.0019004 0 0.00057512)
(-0.00235525 0 0.000638369)
(-0.0034605 0 0.00107455)
(-0.00363358 0 0.00120622)
(-0.00410604 0 0.00159742)
(-0.00401773 0 0.00122771)
(-0.00431165 0 0.000782127)
(-0.00441717 0 0.000693588)
(-0.00465364 0 0.000523288)
(-0.00481033 0 0.000476172)
(-0.00498456 0 0.000414431)
(-0.00511783 0 0.000436844)
(-0.00525871 0 0.000318803)
(-0.00538122 0 0.000309111)
(-0.0053919 0 0.00015318)
(-0.0055962 0 0.000223002)
(-0.00580424 0 -7.83873e-05)
(-0.00581114 0 0.000229467)
(-0.00610787 0 0.000465189)
(-0.00607442 0 0.000246446)
(-0.00655509 0 0.000203577)
(-0.00598834 0 0.000178902)
(-0.0060186 0 0.000454801)
(-0.00564463 0 7.48466e-06)
(-0.00587052 0 -0.000431955)
(-0.00579394 0 -0.00025409)
(-0.00583842 0 -0.000149449)
(-0.00584313 0 -0.000133662)
(-0.00574671 0 -3.71347e-06)
(-0.0057841 0 -7.58327e-05)
(-0.00569485 0 6.9119e-05)
(-0.00579474 0 -7.23761e-05)
(-0.00566727 0 -5.47115e-06)
(-0.00577107 0 -7.82411e-05)
(-0.00571278 0 1.63776e-05)
(-0.00539107 0 -0.00015032)
(-0.00537346 0 0.00013803)
(-0.00573003 0 -0.000789855)
(-0.00578137 0 -0.000447521)
(-0.00694079 0 0.00049814)
(-0.00718974 0 0.00076614)
(-0.0104208 0 0.00174674)
(-0.00971882 0 0.00206177)
(-0.010581 0 0.00449934)
(-0.00857783 0 0.00265503)
(-0.0085823 0 0.000330235)
(-0.00831621 0 -0.00033099)
(-0.00837757 0 -0.000883994)
(-0.00846676 0 -0.000940418)
(-0.00843819 0 -0.000773558)
(-0.00838385 0 -0.000464996)
(-0.00834277 0 -0.000285356)
(-0.00832373 0 -0.000206955)
(-0.00831579 0 -0.000170981)
(-0.00831395 0 -7.9956e-05)
(-0.0083118 0 -1.33188e-05)
(-0.00831013 0 1.21516e-06)
(-0.00830958 0 1.36739e-05)
(-0.00831257 0 -7.07527e-07)
(-0.00832879 0 1.97197e-05)
(-0.00836235 0 7.509e-05)
(-0.0084014 0 0.00010876)
(-0.00844277 0 0.000102256)
(-0.00848579 0 0.00010832)
(-0.00853687 0 0.000136982)
(-0.00859497 0 0.000159081)
(-0.00865479 0 0.000150377)
(-0.00872134 0 0.000146557)
(-0.00879682 0 0.000176874)
(-0.00888014 0 0.000227412)
(-0.00897043 0 0.000254071)
(-0.00906709 0 0.000269869)
(-0.00917341 0 0.000271813)
(-0.00928791 0 0.000279949)
(-0.00940276 0 0.000291941)
(-0.00952198 0 0.00029815)
(-0.00965225 0 0.000322064)
(-0.00979447 0 0.000363623)
(-0.00994707 0 0.000401642)
(-0.0101056 0 0.000407985)
(-0.0102648 0 0.000392144)
(-0.010425 0 0.000370284)
(-0.0105877 0 0.000359504)
(-0.0107543 0 0.000370366)
(-0.0109253 0 0.000383789)
(-0.0110991 0 0.000405839)
(-0.0112742 0 0.000411532)
(-0.0114494 0 0.000413468)
(-0.0116285 0 0.000428907)
(-0.0118132 0 0.000436556)
(-0.0120017 0 0.000431653)
(-0.0121944 0 0.000429456)
(-0.0123913 0 0.000440395)
(-0.0125909 0 0.000460428)
(-0.0127924 0 0.000481491)
(-0.0129949 0 0.000497678)
(-0.0131979 0 0.000504674)
(-0.0134029 0 0.000504053)
(-0.0136096 0 0.000499379)
(-0.0138176 0 0.00049297)
(-0.0140254 0 0.000488493)
(-0.0142317 0 0.000486796)
(-0.014438 0 0.00048731)
(-0.0146439 0 0.000488475)
(-0.0148502 0 0.000488401)
(-0.0150561 0 0.00048509)
(-0.0152599 0 0.000479264)
(-0.0154631 0 0.000476061)
(-0.0156644 0 0.000474447)
(-0.0158722 0 0.000479268)
(-0.0160674 0 0.000477876)
(-0.016284 0 0.00047653)