/*--------------------------------*- C++ -*----------------------------------*\
| =========                 |                                                 |
| \\      /  F ield         | OpenFOAM: The Open Source CFD Toolbox           |
|  \\    /   O peration     | Version:  v2006                                 |
|   \\  /    A nd           | Website:  www.openfoam.com                      |
|    \\/     M anipulation  |                                                 |
\*---------------------------------------------------------------------------*/
FoamFile
{
    version     2.0;
    format      ascii;
    class       surfaceScalarField;
    location    "9.2";
    object      alphaPhi0.water;
}
// * * * * * * * * * * * * * * * * * * * * * * * * * * * * * * * * * * * * * //

dimensions      [0 3 -1 0 0 0 0];
oriented        oriented;


internalField   nonuniform List<scalar> 
65390
(
-3.49772e-05
1.56153e-06
-3.70423e-05
2.06511e-06
-4.01765e-05
3.13424e-06
-4.24985e-05
2.32198e-06
-4.16575e-05
-8.40971e-07
-3.70305e-05
-4.6269e-06
-3.02452e-05
-6.78509e-06
-2.27936e-05
-7.45144e-06
-1.50368e-05
-7.75656e-06
-6.97955e-06
-8.05694e-06
4.13387e-07
-7.39261e-06
6.54554e-06
-6.13167e-06
1.16239e-05
-5.07763e-06
1.61106e-05
-4.48536e-06
2.03939e-05
-4.29017e-06
2.47289e-05
-4.33546e-06
2.95749e-05
-4.84624e-06
3.40967e-05
-4.50401e-06
3.72608e-05
-3.15452e-06
3.91762e-05
-1.91405e-06
4.01417e-05
-9.65109e-07
3.94185e-05
7.2343e-07
3.65268e-05
2.89198e-06
3.23903e-05
4.13677e-06
2.89283e-05
3.46221e-06
2.74032e-05
1.52535e-06
2.81141e-05
-7.10767e-07
3.01592e-05
-2.04498e-06
3.30137e-05
-2.85442e-06
3.5486e-05
-2.47219e-06
3.68675e-05
-1.38145e-06
3.75265e-05
-6.58927e-07
3.70849e-05
4.41581e-07
3.54653e-05
1.61961e-06
3.19298e-05
3.53541e-06
2.70314e-05
4.89832e-06
2.30775e-05
3.95385e-06
2.01847e-05
2.89217e-06
1.75324e-05
2.6445e-06
1.59224e-05
1.61356e-06
1.56844e-05
2.40236e-07
1.59075e-05
-2.23184e-07
1.59514e-05
-4.41523e-08
1.50838e-05
8.60479e-07
1.40918e-05
9.95118e-07
1.39933e-05
1.01407e-07
1.47023e-05
-7.08662e-07
1.54684e-05
-7.66166e-07
1.58144e-05
-3.47104e-07
1.53278e-05
4.83811e-07
1.49268e-05
4.02687e-07
1.524e-05
-3.11498e-07
1.62311e-05
-9.90976e-07
1.75001e-05
-1.26902e-06
1.89217e-05
-1.4216e-06
2.038e-05
-1.45836e-06
2.17633e-05
-1.38336e-06
2.2875e-05
-1.11164e-06
2.34475e-05
-5.72687e-07
2.32696e-05
1.76994e-07
2.26155e-05
6.47003e-07
2.17562e-05
8.59296e-07
2.1047e-05
7.13228e-07
2.05862e-05
4.64042e-07
2.03574e-05
2.29013e-07
2.03975e-05
-4.01638e-08
2.08805e-05
-4.83053e-07
2.1926e-05
-1.04544e-06
2.34226e-05
-1.4967e-06
2.51071e-05
-1.68459e-06
2.67592e-05
-1.65247e-06
2.82439e-05
-1.48536e-06
2.95742e-05
-1.33088e-06
3.07007e-05
-1.12831e-06
3.16592e-05
-9.6767e-07
3.21318e-05
-4.72562e-07
3.1272e-05
8.59716e-07
2.68553e-05
4.41678e-06
2.19529e-05
4.90598e-06
1.95869e-05
2.36324e-06
1.81474e-05
1.43948e-06
1.78734e-05
2.73967e-07
1.70776e-05
7.99619e-07
1.6757e-05
3.24661e-07
1.6816e-05
-5.81624e-08
1.64096e-05
4.06387e-07
1.61117e-05
2.97971e-07
1.60252e-05
8.64897e-08
1.60933e-05
-6.81432e-08
1.6161e-05
-6.77896e-08
1.63273e-05
-1.67092e-07
1.65469e-05
-2.23557e-07
1.67827e-05
-2.35826e-07
1.71407e-05
-3.56245e-07
1.77186e-05
-5.75283e-07
1.86918e-05
-9.72491e-07
1.96964e-05
-1.00457e-06
2.08283e-05
-1.1319e-06
2.10842e-05
-2.55892e-07
2.05705e-05
5.13626e-07
2.03634e-05
2.06921e-07
2.0318e-05
4.19748e-08
2.04526e-05
-1.36851e-07
2.03443e-05
1.0847e-07
2.03987e-05
-5.43742e-08
2.05793e-05
-1.80456e-07
2.06572e-05
-7.45973e-08
2.0709e-05
-4.94396e-08
2.07032e-05
6.01734e-09
2.06598e-05
4.31801e-08
2.05179e-05
1.39624e-07
2.03246e-05
1.88773e-07
2.00657e-05
2.58983e-07
1.97831e-05
2.88064e-07
1.93894e-05
3.94822e-07
1.89437e-05
4.45329e-07
1.80152e-05
9.25926e-07
1.69655e-05
1.04961e-06
1.63519e-05
6.13615e-07
1.61284e-05
2.24919e-07
1.61283e-05
7.54895e-10
1.59982e-05
1.30201e-07
1.59457e-05
5.16652e-08
1.59037e-05
4.05422e-08
1.57203e-05
1.84579e-07
1.55175e-05
2.03969e-07
1.53105e-05
2.06961e-07
1.50663e-05
2.44182e-07
1.47921e-05
2.74197e-07
1.44814e-05
3.09064e-07
1.41314e-05
3.49857e-07
1.37656e-05
3.66501e-07
1.33992e-05
3.67528e-07
1.30086e-05
3.90569e-07
1.25888e-05
4.19806e-07
1.21411e-05
4.47703e-07
1.16761e-05
4.64954e-07
1.12001e-05
4.75809e-07
1.07061e-05
4.93556e-07
1.01829e-05
5.21866e-07
9.63778e-06
5.45168e-07
9.07959e-06
5.58225e-07
8.51815e-06
5.62708e-07
7.96302e-06
5.55122e-07
7.40189e-06
5.61125e-07
6.82569e-06
5.7619e-07
6.22745e-06
5.97136e-07
5.61667e-06
6.10958e-07
5.02405e-06
5.93374e-07
4.44697e-06
5.77136e-07
3.86698e-06
5.7998e-07
3.27935e-06
5.87209e-07
2.68941e-06
5.89899e-07
2.10847e-06
5.80956e-07
1.53886e-06
5.69849e-07
9.84061e-07
5.5492e-07
4.38916e-07
5.4518e-07
-9.64405e-08
5.35399e-07
-6.19347e-07
5.22959e-07
-1.12709e-06
5.07841e-07
-1.62026e-06
4.93219e-07
-2.09896e-06
4.7874e-07
-2.56563e-06
4.66724e-07
-3.02561e-06
4.5999e-07
-3.47708e-06
4.51473e-07
-3.90966e-06
4.3259e-07
-4.32306e-06
4.13398e-07
-4.72508e-06
4.02076e-07
-5.12262e-06
3.97881e-07
-5.51349e-06
3.91337e-07
-5.88885e-06
3.7457e-07
-6.24122e-06
3.52305e-07
-6.5784e-06
3.37172e-07
-6.90356e-06
3.25544e-07
-7.22118e-06
3.18663e-07
-7.53732e-06
3.16144e-07
-7.84412e-06
3.0644e-07
-8.13606e-06
2.90941e-07
-8.41112e-06
2.74939e-07
-8.66744e-06
2.5617e-07
-8.9084e-06
2.41896e-07
-9.14051e-06
2.32118e-07
-9.36267e-06
2.22145e-07
-9.57796e-06
2.15163e-07
-9.78768e-06
2.08877e-07
-9.9837e-06
1.96013e-07
-1.01626e-05
1.78865e-07
-1.03258e-05
1.63855e-07
-1.04792e-05
1.54186e-07
-1.06265e-05
1.4731e-07
-1.07654e-05
1.38915e-07
-1.08956e-05
1.28629e-07
-1.10113e-05
1.15527e-07
-1.11123e-05
1.00954e-07
-1.12e-05
8.76201e-08
-1.12763e-05
7.6321e-08
-1.13449e-05
6.93429e-08
-1.14096e-05
6.54322e-08
-1.14678e-05
5.82627e-08
-1.15158e-05
4.76211e-08
-1.15481e-05
3.10706e-08
-1.15647e-05
1.65704e-08
-1.15727e-05
8.01549e-09
-1.15752e-05
2.64731e-09
-1.15715e-05
-3.16275e-09
-1.15605e-05
-1.09259e-08
-1.15384e-05
-2.28024e-08
-1.15035e-05
-3.48549e-08
-1.14628e-05
-4.07418e-08
-1.1422e-05
-4.01533e-08
-1.13806e-05
-4.14487e-08
-1.13255e-05
-5.57708e-08
-1.12529e-05
-7.2743e-08
-1.11733e-05
-7.96325e-08
-1.10885e-05
-8.46422e-08
-1.10004e-05
-8.7589e-08
-1.09163e-05
-8.36652e-08
-1.08339e-05
-8.2417e-08
-1.07437e-05
-9.10967e-08
-1.06399e-05
-1.03998e-07
-1.05255e-05
-1.14468e-07
-1.04072e-05
-1.1827e-07
-1.02862e-05
-1.2079e-07
-1.01678e-05
-1.17621e-07
-1.0056e-05
-1.11821e-07
-9.94215e-06
-1.14537e-07
-9.82146e-06
-1.21174e-07
-9.69168e-06
-1.29817e-07
-9.55669e-06
-1.35018e-07
-9.42013e-06
-1.36525e-07
-9.28712e-06
-1.32605e-07
-9.16414e-06
-1.22804e-07
-9.04136e-06
-1.22794e-07
-8.91367e-06
-1.28196e-07
-8.77999e-06
-1.33616e-07
-8.64195e-06
-1.38023e-07
-8.50504e-06
-1.36904e-07
-8.37095e-06
-1.34093e-07
-8.23986e-06
-1.31427e-07
-8.11017e-06
-1.29711e-07
-7.9843e-06
-1.25898e-07
-7.86311e-06
-1.20897e-07
-7.74326e-06
-1.19816e-07
-7.61972e-06
-1.23972e-07
-7.49046e-06
-1.29385e-07
-7.36134e-06
-1.29154e-07
-7.23436e-06
-1.26987e-07
-7.11541e-06
-1.1855e-07
-7.00823e-06
-1.0718e-07
-6.89565e-06
-1.13006e-07
-6.77372e-06
-1.22078e-07
-6.6513e-06
-1.2244e-07
-6.53072e-06
-1.20597e-07
-6.41318e-06
-1.17404e-07
-6.30255e-06
-1.10496e-07
-6.19355e-06
-1.09018e-07
-6.08102e-06
-1.12771e-07
-5.96531e-06
-1.15778e-07
-5.8481e-06
-1.17218e-07
-5.73271e-06
-1.15385e-07
-5.61856e-06
-1.14025e-07
-5.5046e-06
-1.13947e-07
-5.38906e-06
-1.15555e-07
-5.2695e-06
-1.19713e-07
-5.14634e-06
-1.23181e-07
-5.02364e-06
-1.22722e-07
-4.90645e-06
-1.17009e-07
-4.79276e-06
-1.13593e-07
-4.67412e-06
-1.18825e-07
-4.54709e-06
-1.27081e-07
-4.41649e-06
-1.30605e-07
-4.28463e-06
-1.31853e-07
-4.15073e-06
-1.33895e-07
-4.0159e-06
-1.34755e-07
-3.88448e-06
-1.31321e-07
-3.75372e-06
-1.30741e-07
-3.61782e-06
-1.35997e-07
-3.47556e-06
-1.42289e-07
-3.32884e-06
-1.46708e-07
-3.17927e-06
-1.4954e-07
-3.02646e-06
-1.52785e-07
-2.87027e-06
-1.56147e-07
-2.71429e-06
-1.55892e-07
-2.56083e-06
-1.53416e-07
-2.40268e-06
-1.58159e-07
-2.237e-06
-1.6569e-07
-2.0676e-06
-1.69399e-07
-1.89588e-06
-1.71716e-07
-1.72145e-06
-1.74423e-07
-1.54434e-06
-1.77096e-07
-1.3675e-06
-1.76805e-07
-1.18998e-06
-1.7753e-07
-1.00942e-06
-1.80565e-07
-8.25215e-07
-1.84226e-07
-6.3864e-07
-1.86588e-07
-4.50482e-07
-1.88174e-07
-2.61635e-07
-1.88863e-07
-7.42441e-08
-1.87404e-07
1.12605e-07
-1.86856e-07
2.99524e-07
-1.86927e-07
4.86864e-07
-1.87349e-07
6.74872e-07
-1.88017e-07
8.62522e-07
-1.87662e-07
1.04801e-06
-1.855e-07
1.23179e-06
-1.83787e-07
1.41482e-06
-1.8303e-07
1.59754e-06
-1.82706e-07
1.77893e-06
-1.81402e-07
1.95816e-06
-1.79213e-07
2.13521e-06
-1.77039e-07
2.31065e-06
-1.75421e-07
2.48448e-06
-1.7381e-07
2.65592e-06
-1.71436e-07
2.82428e-06
-1.68344e-07
2.98942e-06
-1.65133e-07
3.15163e-06
-1.62181e-07
3.31103e-06
-1.59392e-07
3.46742e-06
-1.56378e-07
3.62041e-06
-1.52984e-07
3.76973e-06
-1.4931e-07
3.91516e-06
-1.45417e-07
4.05658e-06
-1.4142e-07
4.19396e-06
-1.37369e-07
4.3271e-06
-1.33138e-07
4.45575e-06
-1.28655e-07
4.57986e-06
-1.24123e-07
4.69944e-06
-1.19588e-07
4.81425e-06
-1.14833e-07
4.924e-06
-1.09778e-07
5.02865e-06
-1.0468e-07
5.12833e-06
-9.97066e-08
5.22312e-06
-9.48053e-08
5.31286e-06
-8.97559e-08
5.39726e-06
-8.44202e-08
5.47602e-06
-7.87922e-08
5.54917e-06
-7.31779e-08
5.61704e-06
-6.78958e-08
5.67981e-06
-6.27947e-08
5.73735e-06
-5.75791e-08
5.78957e-06
-5.2252e-08
5.83641e-06
-4.68837e-08
5.87791e-06
-4.15312e-08
5.9141e-06
-3.62184e-08
5.94503e-06
-3.09647e-08
5.97076e-06
-2.57662e-08
5.99145e-06
-2.0726e-08
6.00715e-06
-1.57397e-08
6.01791e-06
-1.08007e-08
6.0238e-06
-5.92342e-09
6.02486e-06
-1.09228e-09
6.02115e-06
3.68705e-09
6.01272e-06
8.41358e-09
5.99977e-06
1.29485e-08
5.98251e-06
1.7266e-08
5.96105e-06
2.14731e-08
5.93546e-06
2.56296e-08
5.90581e-06
2.96988e-08
5.87209e-06
3.37768e-08
5.83455e-06
3.76115e-08
5.79337e-06
4.12522e-08
5.74867e-06
4.47664e-08
5.70054e-06
4.81803e-08
5.64915e-06
5.14362e-08
5.59459e-06
5.46062e-08
5.53676e-06
5.78946e-08
5.47573e-06
6.1087e-08
5.41179e-06
6.39807e-08
5.3454e-06
6.64201e-08
5.27678e-06
6.86415e-08
5.20562e-06
7.11222e-08
5.13168e-06
7.38827e-08
5.05536e-06
7.62324e-08
4.97724e-06
7.80454e-08
4.8975e-06
7.96863e-08
4.81602e-06
8.14326e-08
4.73274e-06
8.32654e-08
4.6477e-06
8.50356e-08
4.56109e-06
8.66133e-08
4.47268e-06
8.84101e-08
4.38264e-06
9.00557e-08
4.29169e-06
9.09996e-08
4.2003e-06
9.14462e-08
4.10801e-06
9.23592e-08
4.01462e-06
9.34629e-08
3.92024e-06
9.44444e-08
3.82496e-06
9.53241e-08
3.72898e-06
9.60104e-08
3.63263e-06
9.63709e-08
3.53605e-06
9.65798e-08
3.4389e-06
9.71478e-08
3.34118e-06
9.7721e-08
3.24329e-06
9.79029e-08
3.14577e-06
9.75467e-08
3.04839e-06
9.74073e-08
2.95112e-06
9.72969e-08
2.85406e-06
9.70803e-08
2.75724e-06
9.68375e-08
2.66021e-06
9.70309e-08
2.56337e-06
9.68486e-08
2.46716e-06
9.62236e-08
2.37169e-06
9.54741e-08
2.27732e-06
9.43715e-08
2.18369e-06
9.36392e-08
2.09076e-06
9.29402e-08
1.99687e-06
9.38879e-08
1.90333e-06
9.35567e-08
1.81071e-06
9.26333e-08
1.72067e-06
9.00462e-08
1.63045e-06
9.02139e-08
1.54078e-06
8.96749e-08
1.45147e-06
8.93011e-08
1.36346e-06
8.80017e-08
1.27887e-06
8.46056e-08
1.19431e-06
8.45624e-08
1.11296e-06
8.13576e-08
1.03276e-06
8.02132e-08
9.54838e-07
7.79374e-08
8.8333e-07
7.15231e-08
8.12329e-07
7.10175e-08
7.35182e-07
7.71612e-08
6.66677e-07
6.85176e-08
5.94573e-07
7.21164e-08
5.25519e-07
6.90646e-08
4.98361e-07
2.71687e-08
4.61798e-07
3.6574e-08
3.81292e-07
8.05185e-08
3.42269e-07
3.90368e-08
2.26468e-07
1.15815e-07
2.20752e-08
2.04408e-07
-2.73316e-07
2.95406e-07
-5.35263e-07
2.61962e-07
-6.87019e-07
1.51769e-07
-8.26456e-07
1.3945e-07
-9.25404e-07
9.89605e-08
-1.0149e-06
8.95083e-08
-1.09365e-06
7.87617e-08
-1.16875e-06
7.51098e-08
-1.2369e-06
6.81681e-08
-1.29516e-06
5.82678e-08
-1.34419e-06
4.90355e-08
-1.38829e-06
4.41115e-08
-1.39794e-06
9.65719e-09
-1.43101e-06
3.30789e-08
-1.49633e-06
6.53311e-08
-1.51004e-06
1.3711e-08
-1.56813e-06
5.81026e-08
-1.66275e-06
9.46218e-08
-1.79502e-06
1.32287e-07
-1.8295e-06
3.44741e-08
-1.76441e-06
-6.50918e-08
-1.74714e-06
-1.72628e-08
-1.73055e-06
-1.65985e-08
-1.732e-06
1.45988e-09
-1.73743e-06
5.42666e-09
-1.74946e-06
1.20288e-08
-1.7625e-06
1.30467e-08
-1.77522e-06
1.27193e-08
-1.7754e-06
1.81997e-10
-1.78701e-06
1.16048e-08
-1.78407e-06
-2.93922e-09
-1.78539e-06
1.31568e-09
-1.79529e-06
9.89933e-09
-1.74273e-06
-5.25592e-08
-1.69601e-06
-4.67189e-08
-1.78039e-06
8.43783e-08
-1.78551e-06
5.11626e-09
-1.94452e-06
1.59009e-07
-2.28519e-06
3.40667e-07
-2.98667e-06
7.0148e-07
-3.50215e-06
5.15478e-07
-3.51797e-06
1.58272e-08
-3.4053e-06
-1.12666e-07
-3.18851e-06
-2.1678e-07
-2.98363e-06
-2.04852e-07
-2.82829e-06
-1.55293e-07
-2.73351e-06
-9.47756e-08
-2.66583e-06
-6.76836e-08
-2.60879e-06
-5.70827e-08
-2.55434e-06
-5.44641e-08
-2.51818e-06
-3.61221e-08
-2.49554e-06
-2.26483e-08
-2.4739e-06
-2.16277e-08
-2.4527e-06
-2.12113e-08
-2.42595e-06
-2.67939e-08
-2.39988e-06
-2.60837e-08
-2.38348e-06
-1.63974e-08
-2.37206e-06
-1.14241e-08
-2.35769e-06
-1.43709e-08
-2.34281e-06
-1.48978e-08
-2.33064e-06
-1.21866e-08
-2.3209e-06
-9.74595e-09
-2.3076e-06
-1.33182e-08
-2.29182e-06
-1.57897e-08
-2.28134e-06
-1.04859e-08
-2.28029e-06
-1.0498e-09
-2.28338e-06
3.08094e-09
-2.28832e-06
4.92447e-09
-2.29226e-06
3.92596e-09
-2.29767e-06
5.39094e-09
-2.30581e-06
8.12752e-09
-2.31532e-06
9.48242e-09
-2.32985e-06
1.45129e-08
-2.35288e-06
2.30117e-08
-2.38411e-06
3.12084e-08
-2.41799e-06
3.38641e-08
-2.44993e-06
3.19119e-08
-2.47931e-06
2.93496e-08
-2.50844e-06
2.90997e-08
-2.54213e-06
3.36596e-08
-2.58158e-06
3.94206e-08
-2.62846e-06
4.68469e-08
-2.67922e-06
5.07358e-08
-2.73364e-06
5.43929e-08
-2.79402e-06
6.03385e-08
-2.85811e-06
6.40567e-08
-2.92442e-06
6.62835e-08
-2.99423e-06
6.97925e-08
-3.07037e-06
7.61181e-08
-3.15447e-06
8.40797e-08
-3.2469e-06
9.24177e-08
-3.34665e-06
9.97276e-08
-3.45159e-06
1.04925e-07
-3.56027e-06
1.08663e-07
-3.67175e-06
1.11465e-07
-3.78597e-06
1.14215e-07
-3.90368e-06
1.17712e-07
-4.02542e-06
1.21738e-07
-4.15136e-06
1.25953e-07
-4.28145e-06
1.30098e-07
-4.41532e-06
1.33883e-07
-4.5523e-06
1.36998e-07
-4.69201e-06
1.39733e-07
-4.83468e-06
1.42708e-07
-4.98058e-06
1.4594e-07
-5.13061e-06
1.50073e-07
-5.28348e-06
1.52921e-07
-5.43905e-06
1.5563e-07
-5.59516e-06
1.56176e-07
-5.7539e-06
1.58817e-07
-5.91516e-06
1.61331e-07
-6.07865e-06
1.6357e-07
-6.24391e-06
1.65348e-07
-6.41082e-06
1.66972e-07
-6.57842e-06
1.67673e-07
-6.7449e-06
1.66554e-07
-6.9052e-06
1.60373e-07
-7.06251e-06
1.57385e-07
-7.21034e-06
1.47898e-07
-7.35362e-06
1.43336e-07
1.33118e-07
-3.2837e-05
9.31784e-07
-3.26781e-05
1.90669e-06
-3.25765e-05
3.03291e-06
-3.2637e-05
2.38275e-06
-3.2327e-05
-1.15079e-06
-2.85605e-05
-8.39334e-06
-2.34107e-05
-1.19348e-05
-1.79466e-05
-1.29155e-05
-1.23301e-05
-1.33731e-05
-6.79808e-06
-1.3589e-05
-1.8529e-06
-1.23369e-05
1.88299e-06
-9.86366e-06
5.35496e-06
-8.54865e-06
9.09787e-06
-8.22752e-06
1.36391e-05
-8.83215e-06
1.86775e-05
-9.37857e-06
2.3603e-05
-9.77193e-06
2.81208e-05
-9.02039e-06
3.16696e-05
-6.70263e-06
3.33517e-05
-3.59636e-06
3.30292e-05
-6.42833e-07
3.13252e-05
2.42708e-06
2.92016e-05
5.0153e-06
2.74484e-05
5.88981e-06
2.61901e-05
4.72023e-06
2.66141e-05
1.10121e-06
2.85427e-05
-2.63958e-06
3.09512e-05
-4.45358e-06
3.30942e-05
-4.99753e-06
3.51137e-05
-4.49168e-06
3.61633e-05
-2.43109e-06
3.57224e-05
-2.18079e-07
3.39284e-05
2.23562e-06
3.13124e-05
4.23555e-06
2.86768e-05
6.17104e-06
2.61056e-05
7.46942e-06
2.34258e-05
6.63358e-06
2.07708e-05
5.54644e-06
1.83594e-05
5.04497e-06
1.68454e-05
3.132e-06
1.62297e-05
8.59649e-07
1.59556e-05
5.09338e-08
1.56788e-05
2.31745e-07
1.52764e-05
1.25067e-06
1.49528e-05
1.32566e-06
1.47246e-05
3.34708e-07
1.50407e-05
-1.02345e-06
1.54761e-05
-1.20201e-06
1.58726e-05
-7.48162e-07
1.60307e-05
3.25264e-07
1.60814e-05
3.54824e-07
1.61082e-05
-3.35328e-07
1.66912e-05
-1.57331e-06
1.77319e-05
-2.30963e-06
1.88962e-05
-2.58581e-06
1.99519e-05
-2.51386e-06
2.06634e-05
-2.09478e-06
2.09266e-05
-1.37463e-06
2.10187e-05
-6.67147e-07
2.12824e-05
-9.83009e-08
2.18464e-05
8.29887e-08
2.24858e-05
2.19898e-07
2.26752e-05
5.23769e-07
2.23483e-05
8.02328e-07
2.177e-05
8.11085e-07
2.12937e-05
4.36503e-07
2.11592e-05
-3.48399e-07
2.15476e-05
-1.43366e-06
2.23056e-05
-2.25459e-06
2.30924e-05
-2.47204e-06
2.37124e-05
-2.27815e-06
2.38956e-05
-1.67326e-06
2.37846e-05
-1.21984e-06
2.37721e-05
-1.11585e-06
2.43735e-05
-1.56112e-06
2.56143e-05
-1.70994e-06
2.75638e-05
-1.08943e-06
3.10241e-05
9.5727e-07
3.25806e-05
3.3503e-06
3.17828e-05
3.16076e-06
2.81674e-05
5.04917e-06
2.32636e-05
5.17641e-06
2.08832e-05
3.18463e-06
1.90706e-05
2.14019e-06
1.80418e-05
9.70902e-07
1.69864e-05
1.46197e-06
1.60763e-05
1.20811e-06
1.59571e-05
2.05639e-07
1.65228e-05
-6.33872e-07
1.64639e-05
-8.87898e-09
1.64688e-05
-1.72811e-07
1.64215e-05
-1.80368e-07
1.64081e-05
-2.22359e-07
1.65238e-05
-4.69376e-07
1.67899e-05
-8.4002e-07
1.69031e-05
-1.08507e-06
1.70422e-05
-1.1441e-06
1.73008e-05
-1.39016e-06
1.83084e-05
-1.26305e-06
1.96668e-05
-8.45121e-07
2.1034e-05
-1.16253e-06
2.16084e-05
-5.35386e-07
2.1178e-05
2.9374e-07
2.10537e-05
2.32854e-07
2.09575e-05
4.18536e-08
2.08601e-05
-8.2919e-08
2.07369e-05
5.36707e-08
2.05812e-05
1.07473e-07
2.05686e-05
1.86296e-08
2.06792e-05
-6.78802e-08
2.06447e-05
1.6752e-07
2.05578e-05
2.758e-07
2.04262e-05
3.90677e-07
2.02454e-05
4.72392e-07
2.00591e-05
5.84522e-07
1.98465e-05
6.58303e-07
1.9827e-05
9.44887e-07
1.96947e-05
1.17999e-06
1.92905e-05
1.01773e-06
1.83563e-05
1.16161e-06
1.72563e-05
1.10064e-06
1.65702e-05
8.15095e-07
1.60985e-05
5.20279e-07
1.58643e-05
2.74788e-07
1.5635e-05
4.1383e-07
1.54962e-05
3.45342e-07
1.53678e-05
3.36843e-07
1.51073e-05
5.04648e-07
1.48031e-05
5.77955e-07
1.44829e-05
6.25102e-07
1.41463e-05
6.88604e-07
1.37903e-05
7.22791e-07
1.3419e-05
7.40636e-07
1.302e-05
7.89683e-07
1.25923e-05
8.47577e-07
1.21358e-05
9.04083e-07
1.16677e-05
9.3303e-07
1.11852e-05
9.58021e-07
1.06856e-05
9.92256e-07
1.01658e-05
1.04001e-06
9.63182e-06
1.0792e-06
9.08448e-06
1.10571e-06
8.53011e-06
1.11711e-06
7.9733e-06
1.11347e-06
7.40413e-06
1.13029e-06
6.81673e-06
1.16292e-06
6.2212e-06
1.19134e-06
5.63087e-06
1.20192e-06
5.04937e-06
1.17567e-06
4.46713e-06
1.15964e-06
3.87814e-06
1.16897e-06
3.28444e-06
1.18058e-06
2.70243e-06
1.17181e-06
2.13745e-06
1.14595e-06
1.57941e-06
1.12803e-06
1.022e-06
1.11247e-06
4.6901e-07
1.0982e-06
-7.29245e-08
1.07735e-06
-6.00656e-07
1.05067e-06
-1.10962e-06
1.01682e-06
-1.60167e-06
9.85306e-07
-2.0812e-06
9.58282e-07
-2.55092e-06
9.36545e-07
-3.01387e-06
9.23095e-07
-3.46661e-06
9.04003e-07
-3.90344e-06
8.69179e-07
-4.32115e-06
8.31111e-07
-4.72622e-06
8.07385e-07
-5.12489e-06
7.9682e-07
-5.51276e-06
7.79219e-07
-5.88783e-06
7.48853e-07
-6.24608e-06
7.10476e-07
-6.58846e-06
6.79532e-07
-6.91814e-06
6.55431e-07
-7.23555e-06
6.37198e-07
-7.5462e-06
6.26793e-07
-7.84839e-06
6.08635e-07
-8.1391e-06
5.81649e-07
-8.41824e-06
5.52488e-07
-8.67877e-06
5.16258e-07
-8.92334e-06
4.86418e-07
-9.1558e-06
4.64552e-07
-9.3772e-06
4.43957e-07
-9.58987e-06
4.2874e-07
-9.79689e-06
4.15942e-07
-9.99487e-06
3.92726e-07
-1.01786e-05
3.62229e-07
-1.03465e-05
3.31464e-07
-1.04993e-05
3.07784e-07
-1.06412e-05
2.8977e-07
-1.07747e-05
2.7243e-07
-1.09003e-05
2.54207e-07
-1.10187e-05
2.32264e-07
-1.11239e-05
2.05844e-07
-1.12148e-05
1.7844e-07
-1.12931e-05
1.5504e-07
-1.13621e-05
1.39063e-07
-1.14239e-05
1.27298e-07
-1.14774e-05
1.11738e-07
-1.15217e-05
9.11536e-08
-1.15539e-05
6.2375e-08
-1.15739e-05
3.66604e-08
-1.15852e-05
1.94431e-08
-1.15889e-05
6.91806e-09
-1.15842e-05
-7.85421e-09
-1.15688e-05
-2.63471e-08
-1.15451e-05
-4.75803e-08
-1.15135e-05
-6.64488e-08
-1.1477e-05
-7.69143e-08
-1.14356e-05
-8.10229e-08
-1.13867e-05
-9.03e-08
-1.13291e-05
-1.14634e-07
-1.12593e-05
-1.42726e-07
-1.11827e-05
-1.56323e-07
-1.11013e-05
-1.66056e-07
-1.10155e-05
-1.72849e-07
-1.09276e-05
-1.70925e-07
-1.08377e-05
-1.72253e-07
-1.07427e-05
-1.86463e-07
-1.06411e-05
-2.06665e-07
-1.05305e-05
-2.25339e-07
-1.04163e-05
-2.32468e-07
-1.02991e-05
-2.37749e-07
-1.0179e-05
-2.3715e-07
-1.00588e-05
-2.32022e-07
-9.93824e-06
-2.35097e-07
-9.81728e-06
-2.42776e-07
-9.69144e-06
-2.56265e-07
-9.56059e-06
-2.65907e-07
-9.42821e-06
-2.68929e-07
-9.29634e-06
-2.63996e-07
-9.16818e-06
-2.50633e-07
-9.04033e-06
-2.50623e-07
-8.90877e-06
-2.59773e-07
-8.77385e-06
-2.69286e-07
-8.63715e-06
-2.75063e-07
-8.50073e-06
-2.73412e-07
-8.36667e-06
-2.68202e-07
-8.23803e-06
-2.60118e-07
-8.11397e-06
-2.5355e-07
-7.99048e-06
-2.48915e-07
-7.865e-06
-2.46379e-07
-7.73565e-06
-2.49167e-07
-7.60711e-06
-2.5303e-07
-7.48097e-06
-2.55907e-07
-7.3572e-06
-2.53041e-07
-7.23655e-06
-2.47519e-07
-7.11886e-06
-2.35779e-07
-7.0025e-06
-2.23541e-07
-6.88532e-06
-2.30531e-07
-6.76549e-06
-2.42143e-07
-6.64624e-06
-2.41758e-07
-6.53084e-06
-2.35998e-07
-6.41735e-06
-2.30743e-07
-6.30363e-06
-2.24021e-07
-6.18824e-06
-2.24394e-07
-6.07145e-06
-2.29579e-07
-5.95526e-06
-2.32243e-07
-5.84186e-06
-2.30744e-07
-5.73232e-06
-2.24951e-07
-5.62098e-06
-2.25282e-07
-5.50402e-06
-2.30838e-07
-5.38478e-06
-2.34787e-07
-5.26544e-06
-2.3921e-07
-5.14542e-06
-2.43217e-07
-5.02572e-06
-2.42274e-07
-4.90833e-06
-2.34238e-07
-4.79044e-06
-2.3148e-07
-4.66936e-06
-2.39958e-07
-4.54362e-06
-2.52944e-07
-4.41513e-06
-2.59113e-07
-4.28567e-06
-2.61309e-07
-4.15562e-06
-2.63925e-07
-4.02355e-06
-2.66692e-07
-3.88847e-06
-2.66283e-07
-3.75169e-06
-2.67498e-07
-3.61345e-06
-2.74236e-07
-3.47361e-06
-2.82188e-07
-3.33015e-06
-2.90133e-07
-3.18295e-06
-2.96704e-07
-3.03162e-06
-3.04072e-07
-2.87721e-06
-3.10517e-07
-2.722e-06
-3.10953e-07
-2.56551e-06
-3.09881e-07
-2.40563e-06
-3.18035e-07
-2.24084e-06
-3.30507e-07
-2.07287e-06
-3.37365e-07
-1.90321e-06
-3.41356e-07
-1.73151e-06
-3.46117e-07
-1.55628e-06
-3.52312e-07
-1.37857e-06
-3.54488e-07
-1.19869e-06
-3.57403e-07
-1.01663e-06
-3.62631e-07
-8.33358e-07
-3.6755e-07
-6.49322e-07
-3.70654e-07
-4.6378e-07
-3.73741e-07
-2.76125e-07
-3.76535e-07
-8.69608e-08
-3.7659e-07
1.02326e-07
-3.7617e-07
2.8987e-07
-3.74484e-07
4.76146e-07
-3.7363e-07
6.62951e-07
-3.74833e-07
8.50668e-07
-3.75397e-07
1.0379e-06
-3.72757e-07
1.22327e-06
-3.69145e-07
1.40637e-06
-3.66137e-07
1.58876e-06
-3.65079e-07
1.77097e-06
-3.63621e-07
1.95168e-06
-3.59904e-07
2.12978e-06
-3.55127e-07
2.30549e-06
-3.51095e-07
2.47943e-06
-3.47733e-07
2.65148e-06
-3.43473e-07
2.82099e-06
-3.37846e-07
2.98714e-06
-3.31259e-07
3.14976e-06
-3.2477e-07
3.30947e-06
-3.19088e-07
3.46644e-06
-3.13323e-07
3.62015e-06
-3.06673e-07
3.77017e-06
-2.99318e-07
3.91618e-06
-2.91422e-07
4.05809e-06
-2.83326e-07
4.19593e-06
-2.75209e-07
4.32961e-06
-2.66815e-07
4.45893e-06
-2.57994e-07
4.58373e-06
-2.48939e-07
4.70382e-06
-2.39695e-07
4.819e-06
-2.30035e-07
4.92915e-06
-2.19947e-07
5.03431e-06
-2.09864e-07
5.13448e-06
-1.99908e-07
5.22961e-06
-1.89965e-07
5.31951e-06
-1.79685e-07
5.40405e-06
-1.68996e-07
5.48315e-06
-1.57924e-07
5.55673e-06
-1.468e-07
5.62484e-06
-1.36048e-07
5.68772e-06
-1.25693e-07
5.7454e-06
-1.15283e-07
5.79783e-06
-1.04721e-07
5.84491e-06
-9.39915e-08
5.88654e-06
-8.31978e-08
5.92272e-06
-7.24341e-08
5.95347e-06
-6.1743e-08
5.97889e-06
-5.12242e-08
5.99935e-06
-4.12161e-08
6.01494e-06
-3.13613e-08
6.02564e-06
-2.15333e-08
6.03147e-06
-1.17728e-08
6.03244e-06
-2.0713e-09
6.0286e-06
7.52788e-09
6.02004e-06
1.69926e-08
6.00693e-06
2.60909e-08
5.98948e-06
3.47595e-08
5.96779e-06
4.32149e-08
5.94194e-06
5.15391e-08
5.91199e-06
5.97156e-08
5.87785e-06
6.798e-08
5.83988e-06
7.56488e-08
5.79834e-06
8.28576e-08
5.75332e-06
8.98546e-08
5.70486e-06
9.6705e-08
5.65306e-06
1.03299e-07
5.59802e-06
1.09694e-07
5.53984e-06
1.16097e-07
5.47875e-06
1.2219e-07
5.4149e-06
1.2782e-07
5.34841e-06
1.32891e-07
5.2794e-06
1.37606e-07
5.2077e-06
1.42764e-07
5.13324e-06
1.48268e-07
5.0566e-06
1.52815e-07
4.97818e-06
1.56424e-07
4.89812e-06
1.59719e-07
4.81633e-06
1.63202e-07
4.73259e-06
1.66995e-07
4.64691e-06
1.70716e-07
4.5597e-06
1.73844e-07
4.47119e-06
1.76956e-07
4.3817e-06
1.79614e-07
4.29099e-06
1.81815e-07
4.19914e-06
1.83414e-07
4.10621e-06
1.85386e-07
4.01224e-06
1.87524e-07
3.91734e-06
1.89417e-07
3.82185e-06
1.90857e-07
3.72578e-06
1.92111e-07
3.62921e-06
1.92966e-07
3.53213e-06
1.93676e-07
3.43469e-06
1.94608e-07
3.33711e-06
1.95332e-07
3.23947e-06
1.9558e-07
3.14173e-06
1.95337e-07
3.04384e-06
1.95342e-07
2.94595e-06
1.95218e-07
2.84838e-06
1.94677e-07
2.7513e-06
1.9393e-07
2.65477e-06
1.93578e-07
2.55839e-06
1.93234e-07
2.46201e-06
1.92619e-07
2.3658e-06
1.91704e-07
2.2709e-06
1.89288e-07
2.17677e-06
1.87787e-07
2.08355e-06
1.86165e-07
1.99037e-06
1.87084e-07
1.89867e-06
1.85261e-07
1.80709e-06
1.84234e-07
1.71757e-06
1.79571e-07
1.6275e-06
1.80273e-07
1.53659e-06
1.80577e-07
1.44721e-06
1.78692e-07
1.35816e-06
1.77051e-07
1.27318e-06
1.69606e-07
1.18953e-06
1.68232e-07
1.11348e-06
1.57427e-07
1.03566e-06
1.5806e-07
9.51089e-07
1.62534e-07
8.69568e-07
1.5307e-07
7.87159e-07
1.5345e-07
7.15496e-07
1.48847e-07
6.85356e-07
9.86792e-08
6.45233e-07
1.12261e-07
5.56156e-07
1.58164e-07
4.69595e-07
1.13751e-07
3.11723e-07
1.9447e-07
9.49864e-08
2.97279e-07
-2.09054e-07
3.43103e-07
-4.59325e-07
3.66111e-07
-5.93593e-07
3.38703e-07
-6.79473e-07
3.81313e-07
-7.29244e-07
3.11759e-07
-8.17088e-07
2.39641e-07
-8.92582e-07
2.14972e-07
-9.79606e-07
1.86011e-07
-1.05317e-06
1.63098e-07
-1.12611e-06
1.51729e-07
-1.18933e-06
1.38345e-07
-1.24969e-06
1.28557e-07
-1.28302e-06
9.16151e-08
-1.3348e-06
1.00839e-07
-1.42147e-06
1.30799e-07
-1.47658e-06
6.47832e-08
-1.55643e-06
1.12952e-07
-1.63791e-06
1.46823e-07
-1.75856e-06
1.3438e-07
-1.77061e-06
7.0166e-08
-1.70035e-06
2.4389e-08
-1.65707e-06
8.9024e-08
-1.6462e-06
2.36147e-08
-1.69082e-06
-2.04633e-08
-1.70402e-06
-4.06046e-09
-1.73108e-06
1.04754e-08
-1.73331e-06
3.70078e-09
-1.7393e-06
1.14416e-08
-1.74632e-06
1.90575e-08
-1.76144e-06
2.81698e-08
-1.77073e-06
2.20032e-08
-1.78082e-06
1.02701e-08
-1.79969e-06
3.04834e-08
-1.75629e-06
-4.63407e-08
-1.71782e-06
-3.71415e-08
-1.79448e-06
8.65575e-08
-1.88926e-06
4.22161e-08
-2.10908e-06
1.73096e-07
-2.38973e-06
3.65026e-07
-2.95146e-06
5.66837e-07
-3.26612e-06
4.73669e-07
-3.23534e-06
3.09882e-07
-3.03581e-06
5.01929e-07
-2.69836e-06
1.78026e-07
-2.59777e-06
-8.47744e-08
-2.5688e-06
-1.41663e-07
-2.58812e-06
-1.97478e-07
-2.57954e-06
-2.13454e-07
-2.54454e-06
-1.90308e-07
-2.50784e-06
-1.31486e-07
-2.48149e-06
-9.40427e-08
-2.45893e-06
-7.96557e-08
-2.44026e-06
-7.31408e-08
-2.41998e-06
-5.64144e-08
-2.3969e-06
-4.57367e-08
-2.37308e-06
-4.54525e-08
-2.34905e-06
-4.52479e-08
-2.32549e-06
-5.03601e-08
-2.30808e-06
-4.34964e-08
-2.29339e-06
-3.10954e-08
-2.27793e-06
-2.68904e-08
-2.26189e-06
-3.04245e-08
-2.24531e-06
-3.14782e-08
-2.23118e-06
-2.63228e-08
-2.21719e-06
-2.37414e-08
-2.20332e-06
-2.71953e-08
-2.19177e-06
-2.73454e-08
-2.18263e-06
-1.96332e-08
-2.1758e-06
-7.89246e-09
-2.17116e-06
-1.57097e-09
-2.16925e-06
2.98845e-09
-2.17085e-06
5.50101e-09
-2.17385e-06
8.36685e-09
-2.17834e-06
1.25882e-08
-2.18672e-06
1.78302e-08
-2.2003e-06
2.80606e-08
-2.21968e-06
4.23482e-08
-2.24413e-06
5.5622e-08
-2.27062e-06
6.0315e-08
-2.29986e-06
6.11091e-08
-2.33056e-06
6.00079e-08
-2.36504e-06
6.35369e-08
-2.40419e-06
7.27651e-08
-2.4473e-06
8.24896e-08
-2.49387e-06
9.33785e-08
-2.54366e-06
1.00481e-07
-2.59758e-06
1.08284e-07
-2.65673e-06
1.19451e-07
-2.72187e-06
1.2917e-07
-2.79239e-06
1.36769e-07
-2.86811e-06
1.45483e-07
-2.94902e-06
1.56998e-07
-3.03517e-06
1.70208e-07
-3.12601e-06
1.8324e-07
-3.22129e-06
1.94981e-07
-3.32135e-06
2.04969e-07
-3.42615e-06
2.13452e-07
-3.5358e-06
2.211e-07
-3.64997e-06
2.28382e-07
-3.76796e-06
2.35696e-07
-3.88969e-06
2.43455e-07
-4.01552e-06
2.51772e-07
-4.14553e-06
2.60096e-07
-4.27927e-06
2.67614e-07
-4.41623e-06
2.73948e-07
-4.55627e-06
2.79749e-07
-4.6998e-06
2.86224e-07
-4.8469e-06
2.93012e-07
-4.99737e-06
3.00523e-07
-5.15008e-06
3.056e-07
-5.30487e-06
3.10374e-07
-5.46195e-06
3.13211e-07
-5.62145e-06
3.18254e-07
-5.78359e-06
3.23399e-07
-5.9474e-06
3.273e-07
-6.11207e-06
3.29936e-07
-6.2784e-06
3.33198e-07
-6.44628e-06
3.35456e-07
-6.61481e-06
3.34963e-07
-6.78582e-06
3.31286e-07
-6.95621e-06
3.27665e-07
-7.13082e-06
3.22407e-07
-7.30651e-06
3.18907e-07
3.13348e-07
-3.26363e-05
9.14076e-10
-3.19297e-05
1.20016e-06
-3.1149e-05
2.25226e-06
-3.0126e-05
1.35987e-06
-2.79222e-05
-3.3545e-06
-2.44822e-05
-1.18332e-05
-2.07942e-05
-1.56226e-05
-1.67289e-05
-1.69806e-05
-1.27406e-05
-1.73611e-05
-9.12101e-06
-1.7208e-05
-6.18457e-06
-1.52674e-05
-4.5097e-06
-1.15352e-05
-2.82466e-06
-1.02354e-05
-6.02177e-07
-1.04589e-05
2.13605e-06
-1.15735e-05
5.07163e-06
-1.23145e-05
7.34816e-06
-1.20481e-05
8.71268e-06
-1.03846e-05
9.55383e-06
-7.54346e-06
9.80205e-06
-3.84427e-06
9.21509e-06
-5.55954e-08
9.28076e-06
2.36166e-06
1.08331e-05
3.46319e-06
1.33566e-05
3.36653e-06
1.62209e-05
1.85605e-06
1.8906e-05
-1.58376e-06
2.07498e-05
-4.48337e-06
2.20155e-05
-5.7191e-06
2.24866e-05
-5.46797e-06
2.23981e-05
-4.40264e-06
2.1913e-05
-1.94576e-06
2.07585e-05
9.3634e-07
1.9496e-05
3.49806e-06
1.79404e-05
5.79124e-06
1.68431e-05
7.26828e-06
1.66791e-05
7.63333e-06
1.60932e-05
7.21934e-06
1.4891e-05
6.74252e-06
1.40025e-05
5.93293e-06
1.38723e-05
3.26437e-06
1.40249e-05
7.09084e-07
1.41632e-05
-8.78338e-08
1.42939e-05
9.449e-08
1.45123e-05
1.02891e-06
1.47799e-05
1.05769e-06
1.50104e-05
1.12367e-07
1.54082e-05
-1.41881e-06
1.58499e-05
-1.64454e-06
1.62788e-05
-1.18532e-06
1.65593e-05
4.41466e-08
1.67162e-05
1.97959e-07
1.67168e-05
-3.28831e-07
1.69283e-05
-1.78329e-06
1.74004e-05
-2.78185e-06
1.78947e-05
-3.08046e-06
1.82978e-05
-2.91784e-06
1.84891e-05
-2.29065e-06
1.86251e-05
-1.51467e-06
1.91344e-05
-1.17725e-06
2.02563e-05
-1.21946e-06
2.16469e-05
-1.30272e-06
2.30327e-05
-1.16886e-06
2.39515e-05
-4.0708e-07
2.39799e-05
7.74037e-07
2.34907e-05
1.30023e-06
2.28014e-05
1.13563e-06
2.2108e-05
3.49929e-07
2.18277e-05
-1.15304e-06
2.20344e-05
-2.46167e-06
2.23931e-05
-2.8322e-06
2.27386e-05
-2.63437e-06
2.2959e-05
-1.8948e-06
2.28743e-05
-1.1351e-06
2.27406e-05
-9.75107e-07
2.26007e-05
-1.41722e-06
2.26608e-05
-1.76999e-06
2.35396e-05
-1.96821e-06
2.61105e-05
-1.61373e-06
3.00021e-05