/*--------------------------------*- C++ -*----------------------------------*\
| =========                 |                                                 |
| \\      /  F ield         | OpenFOAM: The Open Source CFD Toolbox           |
|  \\    /   O peration     | Version:  v2006                                 |
|   \\  /    A nd           | Website:  www.openfoam.com                      |
|    \\/     M anipulation  |                                                 |
\*---------------------------------------------------------------------------*/
FoamFile
{
    version     2.0;
    format      ascii;
    class       volScalarField;
    location    "9.2";
    object      nut;
}
// * * * * * * * * * * * * * * * * * * * * * * * * * * * * * * * * * * * * * //

dimensions      [0 2 -1 0 0 0 0];


internalField   nonuniform List<scalar> 
33000
(
2.88132e-09
2.03174e-09
2.81805e-09
2.33817e-09
2.1911e-09
1.99945e-09
1.98286e-09
2.09927e-09
2.26136e-09
2.47332e-09
2.95926e-09
3.67569e-09
4.26842e-09
4.43781e-09
4.19745e-09
3.8634e-09
3.33302e-09
2.93646e-09
2.80592e-09
2.81661e-09
2.93108e-09
3.22536e-09
3.85625e-09
5.65546e-09
9.99451e-09
1.63308e-08
2.11913e-08
2.47656e-08
2.62997e-08
2.67789e-08
2.80294e-08
2.95865e-08
3.08676e-08
3.23895e-08
3.75914e-08
5.56772e-08
9.75669e-08
1.43588e-07
1.92121e-07
2.68715e-07
3.0271e-07
2.83831e-07
2.63517e-07
2.65412e-07
3.10466e-07
3.43287e-07
3.01625e-07
2.65599e-07
2.44935e-07
2.50401e-07
2.76533e-07
2.76662e-07
2.3934e-07
2.10536e-07
1.91226e-07
1.77427e-07
1.68673e-07
1.65534e-07
1.65967e-07
1.68008e-07
1.74082e-07
1.821e-07
1.85764e-07
1.81316e-07
1.75106e-07
1.67459e-07
1.54673e-07
1.34033e-07
1.11201e-07
9.4027e-08
8.23546e-08
7.44131e-08
6.8686e-08
6.39963e-08
5.91444e-08
5.32764e-08
4.65008e-08
4.58946e-08
6.00957e-08
7.3257e-08
8.18606e-08
9.09108e-08
9.02748e-08
1.14788e-07
1.29015e-07
1.47204e-07
1.63299e-07
1.73081e-07
1.63617e-07
1.60815e-07
1.58544e-07
1.51757e-07
1.45207e-07
1.35471e-07
1.23413e-07
1.07282e-07
9.5095e-08
8.15938e-08
7.24117e-08
7.68014e-08
8.44989e-08
8.62096e-08
8.68783e-08
8.37464e-08
8.58645e-08
8.56215e-08
8.6172e-08
8.69738e-08
8.7334e-08
8.59352e-08
8.40605e-08
8.23715e-08
8.02343e-08
7.80298e-08
7.46999e-08
7.10139e-08
6.76701e-08
7.38875e-08
8.10178e-08
8.23559e-08
8.32266e-08
8.25178e-08
8.71001e-08
8.93529e-08
9.14779e-08
9.33511e-08
9.41922e-08
9.53633e-08
9.72702e-08
9.91741e-08
1.01567e-07
1.04475e-07
1.07242e-07
1.09928e-07
1.12982e-07
1.16685e-07
1.20894e-07
1.256e-07
1.30607e-07
1.36346e-07
1.43174e-07
1.51113e-07
1.60198e-07
1.70078e-07
1.80651e-07
1.92843e-07
2.07249e-07
2.2579e-07
2.48887e-07
2.73781e-07
3.02296e-07
3.37823e-07
3.83985e-07
4.43909e-07
5.1935e-07
6.12325e-07
6.54915e-07
6.51445e-07
6.47914e-07
6.44229e-07
6.40249e-07
6.01264e-07
5.1708e-07
4.46637e-07
3.89596e-07
3.45597e-07
3.11004e-07
2.82206e-07
2.57245e-07
2.35574e-07
2.17372e-07
2.02396e-07
1.89443e-07
1.77906e-07
1.67749e-07
1.58503e-07
1.50185e-07
1.42959e-07
1.36477e-07
1.30638e-07
1.25392e-07
1.20525e-07
1.16112e-07
1.12156e-07
1.08472e-07
1.05072e-07
1.01996e-07
9.91927e-08
9.66427e-08
9.43095e-08
9.21822e-08
9.0209e-08
8.83503e-08
8.66384e-08
8.50946e-08
8.37792e-08
8.27212e-08
8.18442e-08
8.10805e-08
8.03482e-08
7.96955e-08
7.92275e-08
7.8953e-08
7.88227e-08
7.87841e-08
7.87826e-08
7.8823e-08
7.90048e-08
7.93947e-08
7.98862e-08
8.02906e-08
8.06176e-08
8.11526e-08
8.19038e-08
8.27506e-08
8.37659e-08
8.48551e-08
8.5818e-08
8.67105e-08
8.77288e-08
8.89515e-08
9.03325e-08
9.18268e-08
9.34628e-08
9.4991e-08
9.63775e-08
9.781e-08
9.9354e-08
1.01064e-07
1.02913e-07
1.04909e-07
1.06761e-07
1.0834e-07
1.09989e-07
1.11757e-07
1.1368e-07
1.157e-07
1.17679e-07
1.19585e-07
1.21497e-07
1.23465e-07
1.25319e-07
1.26973e-07
1.28591e-07
1.30423e-07
1.32411e-07
1.34415e-07
1.36529e-07
1.38088e-07
1.39264e-07
1.40992e-07
1.42981e-07
1.44865e-07
1.4681e-07
1.48628e-07
1.50104e-07
1.51685e-07
1.5348e-07
1.5542e-07
1.57379e-07
1.59235e-07
1.61086e-07
1.62916e-07
1.64909e-07
1.67237e-07
1.69914e-07
1.72558e-07
1.74654e-07
1.76613e-07
1.79264e-07
1.82505e-07
1.85847e-07
1.89398e-07
1.93463e-07
1.97721e-07
2.01587e-07
2.05785e-07
2.1087e-07
2.1673e-07
2.23173e-07
2.3029e-07
2.38636e-07
2.48401e-07
2.58397e-07
2.68619e-07
2.8151e-07
2.9737e-07
3.15577e-07
3.21003e-07
3.16305e-07
3.11607e-07
3.06827e-07
3.01961e-07
2.97037e-07
2.92063e-07
2.87041e-07
2.82021e-07
2.7703e-07
2.72052e-07
2.67099e-07
2.62148e-07
2.57204e-07
2.52275e-07
2.47334e-07
2.42334e-07
2.37281e-07
2.32218e-07
2.27201e-07
2.2227e-07
2.1391e-07
1.9339e-07
1.75884e-07
1.60935e-07
1.48144e-07
1.37112e-07
1.27504e-07
1.19069e-07
1.1164e-07
1.05101e-07
9.93356e-08
9.42464e-08
8.97505e-08
8.57685e-08
8.22386e-08
7.91131e-08
7.63454e-08
7.38888e-08
7.17088e-08
6.97809e-08
6.80769e-08
6.65646e-08
6.52176e-08
6.4019e-08
6.29585e-08
6.20266e-08
6.12082e-08
6.04837e-08
5.9836e-08
5.92563e-08
5.87376e-08
5.82731e-08
5.78576e-08
5.74876e-08
5.71602e-08
5.68741e-08
5.66244e-08
5.64065e-08
5.62202e-08
5.60641e-08
5.59375e-08
5.58386e-08
5.57674e-08
5.57219e-08
5.56985e-08
5.56945e-08
5.57112e-08
5.5747e-08
5.58049e-08
5.58854e-08
5.59835e-08
5.61001e-08
5.62356e-08
5.63908e-08
5.65627e-08
5.67545e-08
5.69715e-08
5.72145e-08
5.74798e-08
5.77601e-08
5.80561e-08
5.83842e-08
5.87488e-08
5.91374e-08
5.95404e-08
5.99632e-08
6.04119e-08
6.08939e-08
6.14007e-08
6.19399e-08
6.25227e-08
6.31417e-08
6.37678e-08
6.44165e-08
6.511e-08
6.58531e-08
6.66397e-08
6.74791e-08
6.83635e-08
6.92902e-08
7.02656e-08
7.13263e-08
7.24632e-08
7.36652e-08
7.49185e-08
7.62767e-08
7.77203e-08
7.92638e-08
8.09185e-08
8.27504e-08
8.46955e-08
8.67937e-08
8.90591e-08
9.14595e-08
9.40698e-08
9.68362e-08
9.90633e-08
9.78052e-08
9.65791e-08
9.53967e-08
9.42662e-08
9.3174e-08
9.21232e-08
9.10886e-08
9.00955e-08
8.91354e-08
8.82015e-08
8.73048e-08
8.63997e-08
8.54646e-08
8.46401e-08
8.38692e-08
8.30221e-08
8.2387e-08
8.12388e-08
7.98624e-08
7.92547e-08
7.89021e-08
7.75776e-08
7.90319e-08
8.08952e-08
8.59233e-08
8.73085e-08
8.99875e-08
9.09951e-08
9.21705e-08
9.25229e-08
9.29278e-08
9.29957e-08
9.31768e-08
9.3082e-08
9.31711e-08
9.31655e-08
9.25497e-08
9.22582e-08
9.16938e-08
8.93752e-08
8.7772e-08
8.51751e-08
8.42798e-08
8.20347e-08
8.27842e-08
8.3279e-08
8.41423e-08
8.46141e-08
8.52065e-08
8.55224e-08
8.58416e-08
8.55354e-08
8.54566e-08
8.53123e-08
8.47004e-08
8.51771e-08
8.36388e-08
8.14121e-08
7.44576e-08
7.04127e-08
7.16135e-08
7.31476e-08
5.38625e-08
5.18957e-08
5.64552e-08
7.01068e-08
7.90635e-08
9.20522e-08
1.03966e-07
1.13077e-07
1.2002e-07
1.26742e-07
1.33987e-07
1.40871e-07
1.45114e-07
1.48724e-07
1.5226e-07
1.55787e-07
1.60171e-07
1.63707e-07
1.6557e-07
1.67578e-07
1.70362e-07
1.72879e-07
1.74499e-07
1.76024e-07
1.78591e-07
1.81413e-07
1.82853e-07
1.8329e-07
1.83647e-07
1.84243e-07
1.84956e-07
1.85006e-07
1.84978e-07
1.85121e-07
1.84405e-07
1.82462e-07
1.79863e-07
1.77483e-07
1.75555e-07
1.7388e-07
1.71898e-07
1.69482e-07
1.66515e-07
1.63198e-07
1.60089e-07
1.56697e-07
1.52954e-07
1.49331e-07
1.4586e-07
1.42292e-07
1.38525e-07
1.34576e-07
1.30488e-07
1.26417e-07
1.22446e-07
1.18611e-07
1.14928e-07
1.11359e-07
1.0788e-07
1.04484e-07
1.01182e-07
9.79822e-08
9.48962e-08
9.19411e-08
8.91122e-08
8.64157e-08
8.37754e-08
8.1281e-08
7.87753e-08
7.65966e-08
7.42773e-08
7.235e-08
7.00739e-08
6.84727e-08
6.67375e-08
6.44675e-08
6.28585e-08
6.17404e-08
5.76063e-08
5.70124e-08
4.17126e-08
2.66021e-08
4.03235e-09
8.85841e-09
2.09e-08
3.4297e-08
2.69019e-08
9.11107e-09
5.19855e-09
4.32138e-09
3.79869e-09
3.80251e-09
4.43071e-09
6.25376e-09
7.79327e-09
8.32204e-09
8.88849e-09
1.0245e-08
1.27375e-08
1.65008e-08
2.20843e-08
3.13376e-08
4.08906e-08
5.27734e-08
6.68518e-08
9.30578e-08
1.34019e-07
1.89935e-07
2.69527e-07
3.43952e-07
4.00448e-07
4.33578e-07
4.48173e-07
4.80224e-07
5.49859e-07
6.34252e-07
7.2167e-07
8.29434e-07
9.45909e-07
1.03522e-06
1.07193e-06
1.01808e-06
8.79917e-07
7.58034e-07
7.25599e-07
7.68134e-07
7.59718e-07
6.54817e-07
5.539e-07
5.21248e-07
5.65188e-07
6.33658e-07
6.15439e-07
5.1107e-07
2.96407e-07
1.28623e-07
8.6537e-08
8.53732e-08
1.34239e-07
3.12321e-07
4.15222e-07
5.43732e-07
6.30326e-07
6.52659e-07
6.15462e-07
5.42592e-07
4.56068e-07
3.57371e-07
2.59076e-07
1.97185e-07
1.27491e-07
1.43013e-07
1.78565e-07
1.94108e-07
2.14315e-07
2.33555e-07
2.48141e-07
2.59765e-07
2.7849e-07
3.47659e-07
3.69889e-07
3.47664e-07
3.71975e-07
4.00743e-07
4.06373e-07
3.99635e-07
3.72816e-07
3.61388e-07
3.38041e-07
3.13785e-07
2.78338e-07
2.41864e-07
2.12538e-07
1.97561e-07
1.97713e-07
2.08322e-07
2.21454e-07
2.34544e-07
2.46575e-07
2.55097e-07
2.59655e-07
2.65269e-07
2.59706e-07
2.41732e-07
2.19682e-07
1.95582e-07
1.79516e-07
1.66868e-07
1.50568e-07
1.40446e-07
1.45828e-07
1.63167e-07
1.8625e-07
2.06892e-07
2.13583e-07
1.90105e-07
1.66042e-07
9.28236e-08
9.66479e-08
8.90396e-08
1.01618e-07
4.5765e-08
3.88869e-08
6.64521e-08
7.39195e-08
1.20104e-07
1.16333e-07
2.372e-07
2.45564e-07
1.636e-07
1.35685e-07
1.30308e-07
1.22304e-07
1.16261e-07
1.08057e-07
1.00158e-07
9.38919e-08
8.88622e-08
8.64888e-08
8.33011e-08
8.02309e-08
7.73699e-08
7.52337e-08
7.29691e-08
7.10727e-08
6.91177e-08
6.68327e-08
6.45126e-08
6.37019e-08
6.39017e-08
6.3618e-08
6.21594e-08
6.07765e-08
6.01353e-08
6.10128e-08
6.21988e-08
6.22415e-08
6.15819e-08
6.15372e-08
6.23252e-08
6.35339e-08
6.52763e-08
6.69266e-08
6.80926e-08
6.89742e-08
6.96722e-08
7.09814e-08
7.28993e-08
7.52728e-08
7.69287e-08
7.78889e-08
7.97737e-08
8.19624e-08
8.44531e-08
8.72601e-08
8.9718e-08
9.23186e-08
9.44369e-08
9.65794e-08
9.93982e-08
1.02754e-07
1.07782e-07
1.12948e-07
1.17287e-07
1.21667e-07
1.25358e-07
1.28355e-07
1.3314e-07
1.40381e-07
1.50887e-07
1.62523e-07
1.73266e-07
1.82771e-07
1.91527e-07
2.02005e-07
2.04429e-07
2.04895e-07
2.05489e-07
2.06313e-07
2.07268e-07
2.08054e-07
2.08596e-07
2.08977e-07
2.09506e-07
2.10284e-07
2.1117e-07
2.11992e-07
2.12643e-07
2.13237e-07
2.13958e-07
2.14827e-07
2.15686e-07
2.16341e-07
2.16906e-07
2.17531e-07
2.18293e-07
2.19243e-07
2.14961e-07
2.0741e-07
1.96867e-07
1.80326e-07
1.63742e-07
1.4995e-07
1.43648e-07
1.38846e-07
1.34295e-07
1.31529e-07
1.28769e-07
1.25044e-07
1.18398e-07
1.13039e-07
1.10651e-07
1.10454e-07
1.12062e-07
1.10395e-07
1.0551e-07
1.01057e-07
9.89835e-08
9.85147e-08
9.95644e-08
1.03103e-07
1.06384e-07
1.06434e-07
1.03544e-07
9.98793e-08
9.94316e-08
1.01147e-07
1.03401e-07
1.06621e-07
1.09677e-07
1.10665e-07
1.09208e-07
1.07098e-07
1.0817e-07
1.12472e-07
1.15179e-07
1.15469e-07
1.13961e-07
1.12866e-07
1.13677e-07
1.17207e-07
1.22008e-07
1.20676e-07
1.1532e-07
1.13234e-07
1.13399e-07
1.13558e-07
1.14944e-07
1.17674e-07
1.17238e-07
1.13722e-07
1.09553e-07
1.075e-07
1.07069e-07
1.07046e-07
1.05975e-07
1.03873e-07
1.02359e-07
1.01006e-07
9.95858e-08
9.70843e-08
9.45085e-08
9.19515e-08
9.03613e-08
9.00901e-08
8.90806e-08
8.66755e-08
8.38227e-08
8.20564e-08
8.10869e-08
7.9937e-08
7.8268e-08
7.69926e-08
7.57298e-08
7.4406e-08
7.35218e-08
7.28518e-08
7.1931e-08
7.08446e-08
6.99568e-08
6.95159e-08
6.9686e-08
6.96597e-08
6.89955e-08
6.82844e-08
6.80472e-08
6.82568e-08
6.85131e-08
6.82105e-08
6.77304e-08
6.77589e-08
6.81731e-08
6.85005e-08
6.86181e-08
6.88678e-08
6.94417e-08
7.03647e-08
7.13653e-08
7.21492e-08
7.2954e-08
7.40825e-08
7.55238e-08
7.72483e-08
7.91709e-08
8.12404e-08
8.35543e-08
8.61775e-08
8.91376e-08
9.25074e-08
9.63874e-08
1.00783e-07
1.05575e-07
1.10816e-07
1.16698e-07
1.23528e-07
1.31478e-07
1.40652e-07
1.51232e-07
1.63243e-07
1.76646e-07
1.87147e-07
1.87122e-07
1.87141e-07
1.87226e-07
1.87356e-07
1.87485e-07
1.87597e-07
1.87753e-07
1.87988e-07
1.8828e-07
1.88562e-07
1.8879e-07
1.88977e-07
1.8918e-07
1.89427e-07
1.89678e-07
1.8989e-07
1.9007e-07
1.90237e-07
1.9039e-07
1.9055e-07
1.90721e-07
1.90882e-07
1.91016e-07
1.91123e-07
1.91189e-07
1.91209e-07
1.82204e-07
1.73638e-07
1.65931e-07
1.59074e-07
1.52391e-07
1.46218e-07
1.41426e-07
1.3751e-07
1.33948e-07
1.30454e-07
1.26782e-07
1.23348e-07
1.20576e-07
1.18301e-07
1.16426e-07
1.14252e-07
1.12151e-07
1.10304e-07
1.08554e-07
1.07006e-07
1.05843e-07
1.04702e-07
1.03612e-07
1.02554e-07
1.01687e-07
1.01086e-07
1.00525e-07
9.9892e-08
9.92252e-08
9.87715e-08
9.86051e-08
9.86882e-08
9.88277e-08
9.86102e-08
9.81235e-08
9.78491e-08
9.87019e-08
9.91228e-08
9.97486e-08
9.95445e-08
1.00815e-07
1.00507e-07
1.02379e-07
1.01426e-07
1.00254e-07
1.0148e-07
1.01634e-07
1.05929e-07
1.07508e-07
1.17184e-07
1.14179e-07
1.04006e-07
1.08148e-07
1.05661e-07
1.22761e-07
2.32463e-07
2.0121e-07
7.46441e-08
7.50508e-08
5.28215e-08
4.06549e-08
2.88914e-08
3.58535e-08
6.35247e-08
7.55298e-08
7.91781e-08
7.67269e-08
1.08805e-07
9.80452e-08
1.19972e-07
1.23979e-07
1.38781e-07
1.41621e-07
2.10902e-07
1.59307e-07
9.0895e-08
1.48294e-07
1.12742e-07
1.12312e-07
7.13906e-08
2.21247e-07
1.19466e-07
2.12706e-07
2.42863e-07
1.86419e-07
1.90788e-07
2.79925e-07
3.12684e-07
3.07025e-07
2.9931e-07
2.90012e-07
2.81767e-07
2.76552e-07
2.70703e-07
1.90619e-07
2.0642e-07
6.01774e-08
5.15127e-08
3.67382e-08
3.33208e-08
1.81526e-08
3.18248e-08
9.61248e-08
6.22557e-08
3.82273e-08
1.17086e-07
7.57915e-08
7.84558e-08
6.72309e-08
7.1237e-08
8.66642e-08
1.37636e-07
2.08359e-07
2.34203e-07
2.4169e-07
2.46108e-07
2.48964e-07
2.50152e-07
2.5043e-07
2.4919e-07
2.46897e-07
2.44958e-07
2.437e-07
2.42114e-07
2.40243e-07
2.38706e-07
2.37747e-07
2.36666e-07
2.34963e-07
2.33025e-07
2.31587e-07
2.30603e-07
2.29946e-07
2.29234e-07
2.28501e-07
2.27821e-07
2.26938e-07
2.25964e-07
2.25276e-07
2.2516e-07
2.25516e-07
2.25995e-07
2.18575e-07
2.01583e-07
1.90673e-07
1.8491e-07
1.79688e-07
1.68281e-07
1.57107e-07
1.48168e-07
1.39223e-07
1.30288e-07
1.22686e-07
1.16722e-07
1.11937e-07
1.07677e-07
1.03232e-07
9.87515e-08
9.45178e-08
9.08839e-08
8.78746e-08
8.51305e-08
8.25385e-08
8.01072e-08
7.79941e-08
7.62368e-08
7.45585e-08
7.28352e-08
7.09564e-08
6.97657e-08
6.83573e-08
6.838e-08
6.64939e-08
6.59598e-08
6.37993e-08
6.44234e-08
6.81014e-08
5.98747e-08
5.84021e-08
7.40531e-08
4.65109e-08
8.64439e-08
3.50349e-08
7.84966e-08
4.11804e-08
5.4146e-09
2.03714e-08
4.08763e-08
3.87428e-08
1.54934e-08
7.27262e-09
5.12732e-09
3.93035e-09
3.52792e-09
3.85859e-09
5.09254e-09
1.05632e-08
1.13131e-08
1.28875e-08
1.86177e-08
3.06212e-08
5.54312e-08
9.57815e-08
9.01482e-08
8.36133e-08
8.12332e-08
9.06212e-08
1.14822e-07
1.6015e-07
2.38457e-07
3.68302e-07
5.20847e-07
6.52136e-07
7.24511e-07
7.60609e-07
7.91537e-07
8.20946e-07
8.30501e-07
8.4472e-07
8.72286e-07
9.20726e-07
9.59485e-07
9.56833e-07
9.17857e-07
8.06225e-07
6.47408e-07
5.05567e-07
4.43731e-07
4.41871e-07
4.27209e-07
3.6829e-07
2.99903e-07
2.6672e-07
2.79572e-07
3.05375e-07
2.96664e-07
2.50005e-07
1.97219e-07
1.56721e-07
1.33154e-07
1.27041e-07
1.33495e-07
1.5397e-07
1.87029e-07
1.68299e-07
1.61175e-07
1.76937e-07
2.52142e-07
2.44215e-07
2.21518e-07
1.8757e-07
1.54275e-07
1.34615e-07
1.27755e-07
1.29966e-07
1.38178e-07
1.4991e-07
1.64023e-07
1.79033e-07
1.91009e-07
1.98777e-07
2.12142e-07
2.36034e-07
2.63033e-07
2.76331e-07
3.03854e-07
3.13567e-07
3.15785e-07
3.41772e-07
3.62787e-07
3.55572e-07
3.33558e-07
2.96117e-07
2.57605e-07
2.23941e-07
1.91002e-07
1.68055e-07
1.49475e-07
1.39854e-07
1.38844e-07
1.44361e-07
1.54228e-07
1.60638e-07
1.60834e-07
1.59149e-07
1.5862e-07
1.52842e-07
1.43525e-07
1.31865e-07
1.18157e-07
1.04784e-07
9.23427e-08
8.28128e-08
7.74414e-08
7.53562e-08
7.6123e-08
8.16558e-08
7.0855e-08
7.11009e-08
8.46448e-08
6.59511e-08
6.5954e-08
1.02621e-07
4.67306e-08
3.69511e-08
2.4243e-08
2.76018e-08
1.43188e-08
1.17317e-08
1.78283e-08
1.78336e-08
2.79776e-08
2.78057e-08
4.62878e-08
4.88695e-08
3.39736e-08
3.08416e-08
3.0387e-08
2.81177e-08
2.64531e-08
2.51342e-08
2.40144e-08
2.33372e-08
2.26449e-08
2.26428e-08
2.19053e-08
2.13319e-08
2.09317e-08
2.0258e-08
1.95105e-08
1.92051e-08
1.93391e-08
1.96541e-08
1.94985e-08
1.9013e-08
1.87464e-08
1.88675e-08
1.93082e-08
1.9825e-08
2.00188e-08
1.99252e-08
1.99909e-08
2.03604e-08
2.08129e-08
2.14382e-08
2.2205e-08
2.27487e-08
2.31163e-08
2.36171e-08
2.43291e-08
2.49135e-08
2.57735e-08
2.67894e-08
2.75255e-08
2.83209e-08
2.90136e-08
2.98203e-08
3.11447e-08
3.23178e-08
3.35522e-08
3.47225e-08
3.55586e-08
3.67481e-08
3.82849e-08
4.00011e-08
4.179e-08
4.35912e-08
4.55424e-08
4.76217e-08
4.95981e-08
5.14199e-08
5.3259e-08
5.66305e-08
6.18068e-08
6.7362e-08
7.24815e-08
7.69227e-08
8.04058e-08
8.46715e-08
9.33417e-08
1.06963e-07
1.23431e-07
1.42958e-07
1.59752e-07
1.71333e-07
1.88022e-07
2.34637e-07
3.21061e-07
3.93366e-07
3.6838e-07
3.08757e-07
2.82766e-07
2.8362e-07
2.64062e-07
2.04389e-07
1.54582e-07
1.32763e-07
1.2582e-07
1.18538e-07
1.12181e-07
1.08434e-07
1.01069e-07
9.16872e-08
8.46257e-08
8.07842e-08
7.9436e-08
7.83969e-08
7.57803e-08
7.10275e-08
6.72191e-08
6.68989e-08
6.67494e-08
6.69364e-08
6.64198e-08
6.51828e-08
6.42832e-08
6.3438e-08
6.24141e-08
6.05887e-08
5.98418e-08
6.06433e-08
6.11452e-08
6.32766e-08
6.61322e-08
6.65328e-08
6.44276e-08
6.1248e-08
6.04655e-08
6.26431e-08
6.63052e-08
6.91955e-08
7.08481e-08
6.91803e-08
6.56108e-08
6.5367e-08
6.7507e-08
7.02051e-08
7.43039e-08
7.46805e-08
7.00615e-08
6.77165e-08
6.80819e-08
7.00098e-08
7.40499e-08
7.58005e-08
7.33794e-08
6.93932e-08
6.82199e-08
6.9293e-08
6.99747e-08
6.92435e-08
6.82011e-08
6.79049e-08
6.67452e-08
6.54323e-08
6.46585e-08
6.46014e-08
6.52782e-08
6.38985e-08
6.02752e-08
5.81055e-08
5.77326e-08
5.83612e-08
5.85307e-08
5.7354e-08
5.54322e-08
5.41133e-08
5.29757e-08
5.14349e-08
5.0524e-08
5.00433e-08
4.97225e-08
4.94084e-08
4.87835e-08
4.73167e-08
4.5949e-08
4.52062e-08
4.4929e-08
4.5121e-08
4.51906e-08
4.47002e-08
4.39131e-08
4.32969e-08
4.30967e-08
4.3371e-08
4.38296e-08
4.38028e-08
4.34894e-08
4.34909e-08
4.40049e-08
4.45921e-08
4.46826e-08
4.45415e-08
4.48185e-08
4.55615e-08
4.62661e-08
4.66862e-08
4.70714e-08
4.76804e-08
4.86872e-08
4.98076e-08
5.06317e-08
5.13896e-08
5.24163e-08
5.36846e-08
5.51722e-08
5.67781e-08
5.83993e-08
6.01282e-08
6.20449e-08
6.42172e-08
6.66671e-08
6.9469e-08
7.26656e-08
7.6077e-08
7.9705e-08
8.36684e-08
8.82541e-08
9.36605e-08
9.98433e-08
1.06793e-07
1.14971e-07
1.24128e-07
1.34331e-07
1.46367e-07
1.60976e-07
1.79128e-07
2.02334e-07
2.32719e-07
2.71189e-07
3.15621e-07
3.69335e-07
4.37252e-07
5.11475e-07
5.6561e-07
5.64938e-07
5.14005e-07
4.48435e-07
3.87185e-07
3.34066e-07
2.91782e-07
2.5686e-07
2.2848e-07
2.08668e-07
1.92678e-07
1.78384e-07
1.66095e-07
1.55481e-07
1.46638e-07
1.39395e-07
1.33181e-07
1.27278e-07
1.21733e-07
1.17302e-07
1.13354e-07
1.09433e-07
1.05967e-07
1.03239e-07
1.01254e-07
9.91994e-08
9.67936e-08
9.44731e-08
9.28581e-08
9.17866e-08
9.08156e-08
8.94977e-08
8.80889e-08
8.68917e-08
8.57072e-08
8.47967e-08
8.44622e-08
8.4216e-08
8.36308e-08
8.29992e-08
8.24547e-08
8.26334e-08
8.26178e-08
8.24326e-08
8.19284e-08
8.17918e-08
8.19884e-08
8.28476e-08
8.34428e-08
8.39658e-08
8.35824e-08
8.32195e-08
8.34969e-08
8.49932e-08
8.61509e-08
8.75533e-08
8.79884e-08
8.57202e-08
8.62411e-08
8.50618e-08
8.89943e-08
9.16722e-08
9.83317e-08
9.6633e-08
8.78936e-08
9.16119e-08
8.83578e-08
1.01296e-07
2.06419e-07
1.59321e-07
6.43843e-08
6.33393e-08
4.35846e-08
3.31416e-08
2.42118e-08
2.93438e-08
4.64634e-08
4.50675e-08
6.21687e-08
9.23491e-08
2.25172e-07
1.19012e-07
1.02805e-07
1.22306e-07
1.13319e-07
1.8603e-07
1.20244e-07
8.03021e-08
7.57789e-08
1.0467e-07
9.30945e-08
8.52001e-08
6.09652e-08
2.90399e-07
1.35363e-07
3.15582e-07
2.29185e-07
1.11196e-06
1.5031e-07
4.17124e-07
1.70431e-07
2.84224e-07
2.48286e-07
2.47796e-07
2.75439e-07
2.23447e-07
2.26954e-07
2.39955e-07
1.97349e-07
5.80855e-08
4.1659e-08
2.7371e-08
2.53229e-08
1.41913e-08
2.2976e-08
1.14656e-07
1.77196e-07
3.59328e-08
3.02236e-08
1.77361e-08
3.14375e-08
1.13895e-07
1.19775e-07
9.26251e-08
9.76489e-08
1.28541e-07
1.74072e-07
3.04356e-07
5.59582e-07
5.85139e-07
4.17255e-07
3.49715e-07
3.54137e-07
3.96375e-07
5.2507e-07
5.42672e-07
5.02572e-07
4.74569e-07
5.18874e-07
5.41169e-07
5.23814e-07
5.45508e-07
6.16849e-07
6.65443e-07
5.6666e-07
5.51719e-07
6.3507e-07
7.63003e-07
9.95782e-07
9.88082e-07
8.1e-07
5.79953e-07
4.36541e-07
3.77366e-07
3.73715e-07
3.4294e-07
2.78909e-07
2.26826e-07
1.90397e-07
1.71313e-07
1.59418e-07
1.52901e-07
1.43191e-07
1.31694e-07
1.23995e-07
1.16301e-07
1.06874e-07
9.88091e-08
9.36169e-08
9.0176e-08
8.73016e-08
8.41946e-08
8.05711e-08
7.68098e-08
7.32471e-08
7.01515e-08
6.7562e-08
6.5285e-08
6.32186e-08
6.1327e-08
5.9606e-08
5.79927e-08
5.64423e-08
5.50619e-08
5.37344e-08
5.32067e-08
5.20974e-08
5.19006e-08
5.02429e-08
4.99752e-08
4.84844e-08
4.89378e-08
5.17512e-08
4.56003e-08
4.44864e-08
5.62649e-08
3.50602e-08
6.45978e-08
2.67665e-08
6.26621e-08
3.69109e-08
5.76354e-09
2.35643e-08
4.63678e-08
4.37071e-08
1.16157e-08
6.34611e-09
5.61532e-09
4.90091e-09
4.59729e-09
6.09626e-09
9.40065e-09
2.77927e-08
3.2737e-08
4.56871e-08
9.59597e-08
1.33502e-07
1.28753e-07
1.20217e-07
1.17786e-07
1.28008e-07
1.45611e-07
1.71917e-07
2.18121e-07
2.88385e-07
3.84211e-07
4.91206e-07
6.13551e-07
7.09289e-07
7.08569e-07
6.95117e-07
6.98352e-07
7.14128e-07
7.37339e-07
7.7091e-07
8.04805e-07
8.19997e-07
8.05971e-07
7.76841e-07
7.19094e-07
5.94171e-07
4.59208e-07
3.5126e-07
2.97328e-07
2.83502e-07
2.69917e-07
2.35311e-07
1.99579e-07
1.78239e-07
1.79775e-07
1.87309e-07
1.82802e-07
1.63523e-07
1.40305e-07
1.23347e-07
1.1433e-07
1.12199e-07
1.14944e-07
9.14153e-08
6.9013e-08
5.79586e-08
5.95173e-08
7.38552e-08
9.77407e-08
1.50295e-07
1.46413e-07
1.35939e-07
1.23621e-07
8.85946e-08
1.11925e-07
1.16706e-07
1.23473e-07
9.89122e-08
1.31606e-07
1.45588e-07
1.57496e-07
1.70983e-07
1.84638e-07
1.95173e-07
2.14024e-07
2.30604e-07
2.52332e-07
2.72083e-07
2.85576e-07
3.05593e-07
3.12122e-07
3.06834e-07
3.07099e-07
3.15857e-07
3.17529e-07
2.91777e-07
2.60881e-07
2.14742e-07
1.83274e-07
1.56845e-07
1.406e-07
1.28503e-07
1.23722e-07
1.27155e-07
1.30784e-07
1.30392e-07
1.26177e-07
1.18405e-07
1.11025e-07
1.03779e-07
9.6554e-08
9.01486e-08
8.43117e-08
7.94268e-08
7.54718e-08
7.31666e-08
7.34703e-08
7.59541e-08
8.11525e-08
6.8635e-08
6.80167e-08
5.0848e-08
4.0819e-08
6.41529e-08
5.23594e-08
6.93584e-08
1.03406e-07
2.99195e-08
2.41635e-08
1.48656e-08
1.64658e-08
9.21125e-09
7.94944e-09
1.13462e-08
1.0878e-08
1.80651e-08
2.01292e-08
2.77908e-08
2.60705e-08
2.00363e-08
1.84666e-08
1.75447e-08
1.81658e-08
1.73174e-08
1.67146e-08
1.66776e-08
1.64731e-08
1.61169e-08
1.5925e-08
1.5128e-08
1.46514e-08
1.46709e-08
1.49193e-08
1.50941e-08
1.48347e-08
1.44229e-08
1.44117e-08
1.46552e-08
1.48838e-08
1.50124e-08
1.51742e-08
1.53362e-08
1.54692e-08
1.56258e-08
1.58782e-08
1.62115e-08
1.66795e-08
1.70942e-08
1.74237e-08
1.78826e-08
1.84233e-08
1.88361e-08
1.9359e-08
2.01632e-08
2.09351e-08
2.14571e-08
2.19427e-08
2.25649e-08
2.35296e-08
2.44657e-08
2.54139e-08
2.64107e-08
2.72169e-08
2.83458e-08
2.98443e-08
3.09979e-08
3.21212e-08
3.35576e-08
3.52779e-08
3.74672e-08
3.97051e-08
4.14616e-08
4.29432e-08
4.48437e-08
4.85419e-08
5.32649e-08
5.81836e-08
6.34116e-08
6.77477e-08
7.09312e-08
7.59009e-08
8.4877e-08
9.73407e-08
1.13992e-07
1.2985e-07
1.36085e-07
1.41682e-07
1.6607e-07
2.13318e-07
2.45037e-07
2.33976e-07
2.23674e-07
2.26217e-07
2.27959e-07
1.98217e-07
1.52901e-07
1.22921e-07
1.12298e-07
1.12714e-07
1.08745e-07
1.05132e-07
1.02333e-07
9.21115e-08
8.09627e-08
7.42813e-08
7.336e-08
7.58532e-08
7.58204e-08
7.28029e-08
6.78352e-08
6.31017e-08
6.15756e-08
6.10118e-08
6.24607e-08
6.44232e-08
6.44012e-08
6.30185e-08
6.04989e-08
5.79926e-08
5.73116e-08
5.85341e-08
5.93625e-08
5.99892e-08
6.27339e-08
6.41452e-08
6.19807e-08
5.9342e-08
5.81366e-08
5.98478e-08
6.33559e-08
6.71973e-08
6.88788e-08
6.81566e-08
6.50515e-08
6.19053e-08
6.28304e-08
6.65238e-08
7.03411e-08
7.34202e-08
7.27862e-08
6.84301e-08
6.62969e-08
6.73066e-08
6.98826e-08
7.2897e-08
7.16886e-08
6.93269e-08
6.82235e-08
6.80262e-08
6.87836e-08
6.98492e-08
6.83872e-08
6.543e-08
6.48504e-08
6.43056e-08
6.38605e-08
6.38941e-08
6.43677e-08
6.42149e-08
6.2023e-08
5.87772e-08
5.67037e-08
5.58756e-08
5.57778e-08
5.65445e-08
5.63744e-08
5.50903e-08
5.32783e-08
5.08771e-08
4.90305e-08
4.83569e-08
4.8879e-08
4.93433e-08
4.83963e-08
4.70313e-08
4.56098e-08
4.4439e-08
4.38501e-08
4.39113e-08
4.4102e-08
4.36394e-08
4.2995e-08
4.24405e-08
4.2069e-08
4.18172e-08
4.172e-08
4.18962e-08
4.18343e-08
4.17718e-08
4.20401e-08
4.2426e-08
4.26079e-08
4.26939e-08
4.27703e-08
4.31123e-08
4.37699e-08
4.43481e-08
4.47974e-08
4.52525e-08
4.58942e-08
4.68051e-08
4.77568e-08
4.85631e-08
4.93771e-08
5.04187e-08
5.16565e-08
5.30806e-08
5.46174e-08
5.61551e-08
5.77977e-08
5.96421e-08
6.17212e-08
6.39776e-08
6.65547e-08
6.96612e-08
7.3003e-08
7.63747e-08
7.98692e-08
8.3916e-08
8.89741e-08
9.50585e-08
1.01453e-07
1.08464e-07
1.1646e-07
1.25671e-07
1.36526e-07
1.49173e-07
1.64526e-07
1.83874e-07
2.07935e-07
2.36871e-07
2.68105e-07
3.01108e-07
3.37381e-07
3.7185e-07
3.93541e-07
3.93681e-07
3.74716e-07
3.48689e-07
3.19152e-07
2.86852e-07
2.57197e-07
2.3036e-07
2.08734e-07
1.93761e-07
1.80199e-07
1.67531e-07
1.56639e-07
1.47326e-07
1.39609e-07
1.33185e-07
1.27427e-07
1.21931e-07
1.16921e-07
1.12925e-07
1.09627e-07
1.06324e-07
1.02723e-07
9.99154e-08
9.80301e-08
9.6087e-08
9.40676e-08
9.22069e-08
9.0858e-08
8.9699e-08
8.84142e-08
8.71046e-08
8.60215e-08
8.49317e-08
8.38022e-08
8.28563e-08
8.27192e-08
8.25973e-08
8.22648e-08
8.1431e-08
8.08766e-08
8.10599e-08
8.13745e-08
8.11523e-08
8.06082e-08
8.04458e-08
8.0911e-08
8.16901e-08
8.21328e-08
8.26022e-08
8.30154e-08
8.27674e-08
8.35348e-08
8.39741e-08
8.47136e-08
8.58394e-08
8.82089e-08
8.82924e-08
9.4417e-08
9.06372e-08
8.52532e-08
8.52076e-08
8.29443e-08
8.45012e-08
9.15234e-08
1.7339e-07
1.39893e-07
6.24654e-08
6.09656e-08
4.10566e-08
3.14385e-08
2.34149e-08
2.80625e-08
4.22157e-08
3.95922e-08
5.62922e-08
9.13061e-08
3.01144e-07
1.75853e-07
1.35498e-07
1.65628e-07
1.12098e-07
1.32409e-07
1.03819e-07
7.00848e-08
1.15957e-07
1.23033e-07
7.86855e-08
6.39678e-08
5.32999e-08
1.92967e-07
1.77537e-07
2.4758e-07
2.43751e-07
8.86444e-07
1.83119e-07
1.71878e-07
1.26137e-07
1.97869e-07
1.26353e-07
1.60783e-07
2.19334e-07
1.79219e-07
1.43861e-07
1.49557e-07
5.19875e-07
7.57581e-08
4.54325e-08
2.64344e-08
2.4228e-08
1.35658e-08
1.99846e-08
8.03952e-08
2.27792e-07
3.79822e-08
3.02945e-08
1.70155e-08
2.97547e-08
5.19932e-08
1.38852e-07
1.37999e-07
1.34353e-07
1.72809e-07
1.9372e-07
2.60573e-07
2.4016e-07
3.69373e-07
7.43342e-07
7.05584e-07
6.04953e-07
4.71865e-07
4.06436e-07
4.07591e-07
4.65205e-07
5.88675e-07
4.91144e-07
3.88243e-07
3.73538e-07
4.18768e-07
4.50408e-07
4.45128e-07
4.97282e-07
5.49771e-07
4.94641e-07
4.13091e-07
3.98654e-07
4.44799e-07
4.76215e-07
5.14712e-07
5.2893e-07
4.7599e-07
4.04396e-07
3.49481e-07
3.23914e-07
3.26841e-07
3.0986e-07
2.65753e-07
2.18826e-07
1.87344e-07
1.69959e-07
1.57954e-07
1.47888e-07
1.34899e-07
1.23436e-07
1.15781e-07
1.08783e-07
1.01323e-07
9.4935e-08
9.03025e-08
8.66585e-08
8.32334e-08
7.98348e-08
7.64552e-08
7.32624e-08
7.04209e-08
6.78645e-08
6.55536e-08
6.34027e-08
6.14165e-08
5.96415e-08
5.79687e-08
5.63628e-08
5.48416e-08
5.36439e-08
5.25077e-08
5.2147e-08
5.09756e-08
5.04645e-08
4.89411e-08
4.89945e-08
4.75418e-08
4.77714e-08
5.03317e-08
4.42778e-08
4.31818e-08
5.44798e-08
3.42606e-08
6.33585e-08
2.6445e-08
6.3389e-08
3.78905e-08
5.48751e-09
2.07238e-08
3.32854e-08
2.57185e-08
9.23527e-09
6.1585e-09
6.52796e-09
6.77366e-09
7.49428e-09
1.02831e-08
1.22948e-08
4.49905e-08
1.11722e-07
1.47368e-07
1.50831e-07
1.51771e-07
1.48707e-07
1.41509e-07
1.48648e-07
1.7143e-07
2.07909e-07
2.51855e-07
2.99495e-07
3.52449e-07
4.05444e-07
4.57169e-07
5.20142e-07
5.43512e-07
5.22691e-07
5.20642e-07
5.51128e-07
5.90423e-07
6.22535e-07
6.45973e-07
6.54832e-07
6.52187e-07
6.37199e-07
6.16197e-07
5.38781e-07
4.31034e-07
3.31539e-07
2.58675e-07
2.19773e-07
2.04756e-07
1.92301e-07
1.74308e-07
1.58113e-07
1.47614e-07
1.47154e-07
1.48806e-07
1.46078e-07
1.37901e-07
1.28595e-07
1.02895e-07
1.21273e-07
1.23692e-07
9.32972e-08
5.44154e-08
4.01002e-08
3.63571e-08
4.04643e-08
4.80429e-08
4.71602e-08
6.27861e-08
1.25915e-07
1.26548e-07
1.22581e-07
7.80236e-08
7.04861e-08
1.27488e-07
1.32882e-07
1.07338e-07
9.22812e-08
1.44237e-07
1.48815e-07
1.5634e-07
1.65944e-07
1.76238e-07
1.85017e-07
1.94334e-07
2.03219e-07
2.19195e-07
2.3008e-07
2.44751e-07
2.55973e-07
2.58643e-07
2.64923e-07
2.74416e-07
2.70145e-07
2.62533e-07
2.57616e-07
2.4907e-07
2.26741e-07
2.05054e-07
1.79335e-07
1.58252e-07
1.36029e-07
1.22438e-07
1.15084e-07
1.12228e-07
1.11848e-07
1.10071e-07
1.06808e-07
1.03155e-07
9.98872e-08
9.72971e-08
9.54776e-08
9.35793e-08
7.70979e-08
7.49246e-08
6.48777e-08
8.4703e-08
8.6529e-08
9.11687e-08
9.82193e-08
1.08107e-07
6.07609e-08
6.68535e-08
6.14878e-08
3.87887e-08
3.39998e-08
2.72914e-08
3.42303e-08
4.24759e-08
2.78819e-08
2.44533e-08
1.29541e-08
1.31944e-08
8.6106e-09
7.78538e-09
1.04182e-08
9.71194e-09
1.60258e-08
1.73156e-08
1.80053e-08
1.96368e-08
1.80133e-08
1.57379e-08
1.51653e-08
1.61614e-08
1.58529e-08
1.53826e-08
1.48793e-08
1.43049e-08
1.40317e-08
1.42824e-08
1.44309e-08
1.43993e-08
1.40515e-08
1.38448e-08
1.39101e-08
1.41415e-08
1.42873e-08
1.42215e-08
1.42922e-08
1.45887e-08
1.48068e-08
1.48775e-08
1.50857e-08
1.53572e-08
1.55722e-08
1.59191e-08
1.63689e-08
1.6807e-08
1.72162e-08
1.76767e-08
1.80911e-08
1.86366e-08
1.94589e-08
2.00527e-08
2.05583e-08
2.12229e-08
2.19211e-08
2.27086e-08
2.35945e-08
2.45837e-08
2.55792e-08
2.6844e-08
2.81757e-08
2.90627e-08
3.01209e-08
3.13778e-08
3.28463e-08
3.5231e-08
3.7948e-08
3.98574e-08
4.14992e-08
4.28325e-08
4.52081e-08
4.9284e-08
5.40184e-08
5.93379e-08
6.49825e-08
6.96508e-08
7.32725e-08
7.78745e-08
8.59138e-08
9.81193e-08
1.13317e-07
1.22614e-07
1.28069e-07
1.42053e-07
1.64778e-07
1.82698e-07
1.8661e-07
1.90024e-07
1.92037e-07
1.80013e-07
1.52304e-07
1.26245e-07
1.12019e-07
1.0912e-07
1.09442e-07
1.0552e-07
1.02021e-07
9.62768e-08
8.58353e-08
7.70511e-08
7.28827e-08
7.32284e-08
7.45894e-08
7.31203e-08
6.9956e-08
6.67502e-08
6.35174e-08
6.16563e-08
6.06174e-08
6.02367e-08
6.13708e-08
6.26783e-08
6.21016e-08
5.96475e-08
5.74158e-08
5.75244e-08
5.89701e-08
5.93418e-08
5.96372e-08
6.12369e-08
6.18766e-08
5.94175e-08
5.7968e-08
5.91423e-08
6.15134e-08
6.48363e-08
6.76026e-08
6.70571e-08
6.44681e-08
6.23345e-08
6.23863e-08