/*--------------------------------*- C++ -*----------------------------------*\
| =========                 |                                                 |
| \\      /  F ield         | OpenFOAM: The Open Source CFD Toolbox           |
|  \\    /   O peration     | Version:  v2006                                 |
|   \\  /    A nd           | Website:  www.openfoam.com                      |
|    \\/     M anipulation  |                                                 |
\*---------------------------------------------------------------------------*/
FoamFile
{
    version     2.0;
    format      ascii;
    class       volScalarField;
    location    "9.2";
    object      omega;
}
// * * * * * * * * * * * * * * * * * * * * * * * * * * * * * * * * * * * * * //

dimensions      [0 0 -1 0 0 0 0];


internalField   nonuniform List<scalar> 
33000
(
0.802838
0.804053
0.805078
0.805301
0.804849
0.80422
0.803773
0.803543
0.803434
0.803402
0.803486
0.803648
0.803837
0.804032
0.80423
0.804433
0.804632
0.804831
0.805032
0.805274
0.805622
0.806216
0.807367
0.80958
0.813317
0.818616
0.825644
0.833763
0.84145
0.847114
0.850905
0.853808
0.856364
0.859909
0.866954
0.882704
0.910836
0.943966
0.970155
0.985733
0.993201
0.996115
0.997181
0.996315
0.993306
0.99004
0.986275
0.984794
0.984743
0.983103
0.979409
0.974295
0.967996
0.963114
0.959974
0.959238
0.961292
0.966091
0.972537
0.978001
0.981032
0.981356
0.978497
0.972744
0.964579
0.954509
0.9422
0.928045
0.915129
0.905102
0.897334
0.891365
0.886642
0.882926
0.880049
0.878714
0.878684
0.880174
0.881861
0.884163
0.886049
0.890289
0.895274
0.901364
0.908834
0.915141
0.919887
0.923116
0.924583
0.924426
0.922192
0.918328
0.91209
0.904543
0.895961
0.88764
0.881584
0.877324
0.875823
0.876601
0.879346
0.8818
0.883053
0.88367
0.884425
0.88524
0.885829
0.885793
0.885158
0.884017
0.882545
0.880806
0.878629
0.875713
0.872069
0.868277
0.865528
0.864861
0.866311
0.867216
0.867701
0.867883
0.868262
0.868898
0.869489
0.8699
0.870159
0.870284
0.870403
0.870548
0.870708
0.870825
0.870865
0.870812
0.870724
0.870661
0.870646
0.870648
0.870642
0.870626
0.870616
0.870619
0.870604
0.870543
0.870422
0.870267
0.870122
0.870002
0.869869
0.869673
0.869401
0.869103
0.868821
0.868547
0.868253
0.867926
0.867573
0.867207
0.86683
0.866432
0.866001
0.865532
0.865018
0.864468
0.863901
0.863315
0.862679
0.861986
0.861277
0.860588
0.859908
0.859194
0.858432
0.857659
0.856926
0.856256
0.855641
0.855044
0.854423
0.853768
0.853094
0.85243
0.851805
0.851236
0.850715
0.850214
0.849693
0.849148
0.848628
0.848163
0.847746
0.847339
0.846916
0.846482
0.84606
0.84569
0.845403
0.845205
0.845057
0.844896
0.844711
0.844534
0.844418
0.844375
0.844372
0.844373
0.844359
0.84435
0.844398
0.844513
0.844634
0.844687
0.844716
0.844806
0.844946
0.845129
0.845354
0.845571
0.845731
0.845863
0.846013
0.846207
0.846434
0.846688
0.846945
0.847148
0.847311
0.847458
0.847615
0.847793
0.847989
0.848188
0.848324
0.848408
0.848475
0.848535
0.848602
0.848662
0.848703
0.848723
0.848729
0.848713
0.848654
0.848551
0.848427
0.848306
0.848186
0.848072
0.847938
0.847722
0.847476
0.847248
0.847021
0.84679
0.846551
0.846275
0.845968
0.845652
0.845333
0.845014
0.844681
0.844332
0.843967
0.843587
0.843207
0.842834
0.842465
0.842073
0.841647
0.841208
0.840778
0.840352
0.839924
0.839495
0.839067
0.83862
0.838154
0.837684
0.837215
0.836749
0.836282
0.835816
0.835354
0.834886
0.834399
0.833907
0.833423
0.832942
0.832459
0.831976
0.831493
0.831002
0.830503
0.829998
0.829488
0.828973
0.828459
0.827948
0.827439
0.82693
0.826422
0.825915
0.825409
0.824902
0.82439
0.823872
0.823354
0.822841
0.822337
0.821846
0.82137
0.820915
0.820483
0.820073
0.819683
0.819315
0.81897
0.818649
0.818353
0.818083
0.817837
0.817617
0.817423
0.817253
0.817106
0.816982
0.816879
0.816796
0.816731
0.816681
0.816645
0.81662
0.816607
0.816604
0.816608
0.816618
0.816631
0.816647
0.816662
0.816677
0.816689
0.816697
0.816702
0.816703
0.8167
0.816693
0.816681
0.816665
0.816644
0.816619
0.816588
0.816553
0.816513
0.816467
0.816415
0.816359
0.816296
0.816229
0.816157
0.816079
0.815997
0.81591
0.815819
0.815723
0.815623
0.81552
0.815412
0.815301
0.815187
0.81507
0.81495
0.814828
0.814703
0.814574
0.814444
0.81431
0.814175
0.814037
0.813896
0.813754
0.813609
0.813461
0.813311
0.81316
0.813007
0.812853
0.812698
0.812542
0.812386
0.812229
0.812072
0.811916
0.81176
0.811604
0.811449
0.811296
0.811144
0.810994
0.810846
0.8107
0.810555
0.810413
0.810274
0.810138
0.810005
0.809876
0.80975
0.809628
0.809509
0.809396
0.809287
0.809182
0.809079
0.80898
0.808884
0.808791
0.808701
0.808611
0.808517
0.808435
0.808358
0.808273
0.80821
0.808095
0.807957
0.807897
0.807862
0.807729
0.807876
0.808062
0.808564
0.808703
0.808971
0.809072
0.809189
0.809224
0.809264
0.809271
0.809289
0.809279
0.809288
0.809287
0.809225
0.809196
0.809139
0.808907
0.808746
0.808485
0.808395
0.80817
0.808245
0.808295
0.808381
0.808429
0.808488
0.80852
0.808551
0.808521
0.808513
0.808498
0.808437
0.808485
0.808331
0.808108
0.808137
0.808069
0.807743
0.808169
0.808662
0.81033
0.810789
0.811529
0.812046
0.812819
0.81361
0.814466
0.81523
0.8159
0.816473
0.816982
0.817421
0.817783
0.818089
0.818345
0.818572
0.818783
0.818974
0.819136
0.819282
0.819422
0.819551
0.819661
0.819759
0.819861
0.819967
0.820065
0.820154
0.820232
0.820303
0.82037
0.82043
0.820487
0.820545
0.8206
0.820642
0.820669
0.820686
0.820699
0.820713
0.820729
0.820744
0.820757
0.820764
0.82077
0.820773
0.820773
0.820771
0.820773
0.820779
0.820787
0.820792
0.820792
0.820787
0.820778
0.820766
0.820754
0.820742
0.82073
0.820719
0.820708
0.820695
0.820681
0.820668
0.820655
0.820645
0.820634
0.820625
0.820609
0.820604
0.82059
0.820593
0.820576
0.820571
0.820588
0.820562
0.820439
0.820372
0.819002
0.816347
0.808869
0.4203
0.628634
0.734102
0.768633
0.785504
0.762056
0.706174
0.667342
0.655099
0.644596
0.645503
0.651086
0.681938
0.738294
0.796173
0.843022
0.878051
0.913264
0.951937
0.991586
1.035
1.07396
1.10888
1.16406
1.27271
1.44068
1.60807
1.70597
1.76475
1.79586
1.8052
1.84145
1.89224
1.8854
1.79477
1.6904
1.61582
1.53663
1.42799
1.27019
1.0855
0.939145
0.863938
0.833005
0.803804
0.74576
0.674774
0.641394
0.647963
0.660129
0.647282
0.598219
0.532119
0.481091
0.450732
0.43988
0.448147
0.474534
0.509139
0.542468
0.566271
0.581345
0.595112
0.613152
0.620305
0.606904
0.590363
0.58397
0.592942
0.619695
0.669626
0.745952
0.839538
0.926054
0.985561
1.03684
1.09088
1.16751
1.17817
1.189
1.29608
1.40153
1.38571
1.37298
1.28652
1.24562
1.18514
1.10181
0.990825
0.866908
0.759723
0.678698
0.634703
0.632267
0.666081
0.726606
0.808205
0.904714
1.00929
1.12505
1.21052
1.2163
1.15647
1.04587
0.921883
0.788783
0.647403
0.519335
0.42447
0.35419
0.304244
0.27753
0.270294
0.276651
0.293443
0.313381
0.333425
0.351916
0.369851
0.378862
0.357829
0.319435
0.291187
0.261975
0.236763
0.22044
0.207327
0.198405
0.194587
0.19189
0.190244
0.189153
0.187166
0.186908
0.187875
0.189056
0.189571
0.189684
0.190213
0.191031
0.191862
0.192064
0.191631
0.190713
0.19034
0.190701
0.19141
0.191859
0.191282
0.1905
0.190553
0.191119
0.19163
0.191808
0.192002
0.192227
0.192578
0.192964
0.193297
0.193529
0.19374
0.193974
0.194257
0.194698
0.195132
0.195178
0.194903
0.194737
0.194866
0.195001
0.194676
0.193739
0.192593
0.191537
0.190763
0.190251
0.189522
0.188182
0.186205
0.183723
0.181107
0.178732
0.176659
0.174839
0.173013
0.170758
0.168006
0.165148
0.162635
0.160536
0.158539
0.156287
0.153617
0.150695
0.147863
0.145399
0.143357
0.141525
0.13951
0.137058
0.134287
0.131582
0.129194
0.127066
0.124989
0.122811
0.12049
0.118209
0.116186
0.114305
0.112201
0.109743
0.107277
0.105151
0.103384
0.101835
0.100249
0.0983599
0.0961769
0.0940057
0.0921048
0.0905716
0.0892778
0.0880426
0.0866612
0.0850635
0.0834358
0.0819763
0.0808163
0.079907
0.0790815
0.0781778
0.0771012
0.0760086
0.0750659
0.0743289
0.0737846
0.0733756
0.0730368
0.072725
0.0724178
0.0720678
0.0716885
0.0713803
0.0712457
0.0713613
0.0716395
0.0718633
0.0718991
0.0718034
0.071814
0.0720602
0.0724459
0.0728155
0.0730902
0.0732475
0.0733941
0.0736364
0.0739563
0.0742805
0.074523
0.0746709
0.074802
0.0750359
0.0754459
0.0759717
0.0763665
0.0764609
0.0763956
0.0763917
0.0765475
0.0768552
0.0772694
0.0776929
0.0779917
0.078095
0.0780938
0.078113
0.0781876
0.0783181
0.0785707
0.0789709
0.0793287
0.0794357
0.0793672
0.0793453
0.0794337
0.0795884
0.0798132
0.0800758
0.0802644
0.0803077
0.080276
0.0802621
0.0802896
0.0803892
0.0805422
0.0806511
0.0806556
0.0805734
0.0804417
0.0803534
0.0803518
0.0803262
0.0801886
0.0799365
0.0796672
0.079428
0.0791707
0.0788404
0.0784444
0.0780722
0.0777916
0.0775444
0.0772028
0.0767558
0.0763134
0.0759337
0.0756111
0.0753272
0.0750787
0.0748718
0.0747163
0.0746266
0.0745796
0.0745553
0.0746002
0.0747445
0.0749421
0.0751294
0.0753048
0.0755298
0.0758504
0.0762583
0.0766459
0.0768928
0.0770002
0.0770974
0.0772329
0.07738
0.0774998
0.0775678
0.0775871
0.0775871
0.0775839
0.0775343
0.0774207
0.0772582
0.0770865
0.0769384
0.0768092
0.0766522
0.0764356
0.0761807
0.075929
0.0756875
0.0754443
0.0751999
0.0749256
0.0746212
0.0743118
0.0740087
0.0737092
0.0734299
0.0731852
0.0729348
0.0726289
0.0722485
0.0718528
0.0715246
0.0712493
0.0709049
0.0704615
0.0699926
0.0695678
0.0691899
0.0688262
0.0684655
0.0681344
0.0677827
0.0673226
0.0667696
0.0662822
0.0658647
0.0654655
0.06506
0.0646287
0.0641486
0.0636488
0.0632073
0.0627921
0.0623284
0.0617859
0.0612647
0.0607749
0.060297
0.0598374
0.0594464
0.0590198
0.058511
0.0579616
0.0573979
0.056914
0.0564742
0.0561804
0.0557532
0.0552641
0.0545574
0.0541778
0.0537176
0.0533048
0.0527872
0.052095
0.0516861
0.0509834
0.0505813
0.050179
0.0493233
0.0490287
0.0492426
0.047845
0.0482896
0.0492405
0.0472873
0.0492795
0.0553855
0.0556891
0.0636898
0.0730764
0.0833855
0.0754208
0.0599132
0.0573102
0.0520101
0.0506638
0.0487085
0.0477065
0.0466418
0.0459371
0.046011
0.0490184
0.0500861
0.0545332
0.057878
0.0524127
0.0517787
0.0502061
0.0458939
0.0372411
0.0359399
0.0354077
0.0346438
0.0342587
0.0348056
0.0357674
0.0369828
0.0381689
0.0389656
0.0400041
0.0409653
0.0453365
0.0592184
0.0761558
0.100832
0.130021
0.157064
0.160892
0.164048
0.213192
0.191228
0.109407
0.0881731
0.0778156
0.0720632
0.0662429
0.0611357
0.0569095
0.0532816
0.0507164
0.0497415
0.0494006
0.049118
0.0491201
0.0491874
0.049763
0.0507914
0.0515892
0.0519324
0.0524581
0.053182
0.0537434
0.0539085
0.0541545
0.0548979
0.0559107
0.0565853
0.0569569
0.0570665
0.057303
0.0575946
0.0578203
0.0583322
0.0590628
0.0596237
0.0596375
0.0591984
0.0586861
0.0583864
0.0584634
0.0586948
0.0590626
0.0592222
0.0593477
0.0595953
0.0597055
0.0597026
0.0598193
0.0601868
0.0607194
0.0612792
0.0617238
0.0619605
0.0620212
0.0619807
0.0619204
0.0619106
0.0619595
0.0620518
0.0621582
0.0622469
0.0622995
0.0623352
0.0624004
0.0625104
0.0626791
0.0627897
0.0628665
0.0628428
0.0629306
0.0630223
0.0631029
0.0631833
0.0634616
0.0639587
0.0647019
0.0666248
0.069421
0.071095
0.0608053
0.0310663
0.24
0.383326
0.4908
0.517842
0.454758
0.343847
0.269584
0.230981
0.212287
0.20216
0.204669
0.209958
0.246987
0.302468
0.363216
0.433399
0.514422
0.60322
0.708985
0.831073
0.972112
1.11734
1.23463
1.34655
1.48217
1.65052
1.84114
2.03164
2.15909
2.25248
2.35128
2.41723
2.36535
2.23371
2.05248
1.8788
1.71311
1.5222
1.32472
1.09736
0.87648
0.707174
0.623587
0.589072
0.5623
0.518832
0.462999
0.434349
0.435837
0.44044
0.43109
0.406344
0.368118
0.329937
0.305734
0.297928
0.303785
0.314883
0.3278
0.344249
0.355887
0.365415
0.379994
0.396571
0.407813
0.405213
0.390643
0.368058
0.343164
0.333531
0.345093
0.375213
0.416571
0.457782
0.486118
0.505673
0.540824
0.61057
0.705984
0.779167
0.900122
0.978112
1.03362
1.16601
1.31084
1.38598
1.39997
1.3367
1.24187
1.122
0.970161
0.838741
0.721136
0.636731
0.587737
0.571804
0.588539
0.61788
0.646654
0.677474
0.707464
0.717637
0.71431
0.691138
0.650959
0.606955
0.550845
0.485625
0.41949
0.357146
0.296583
0.240158
0.18865
0.149673
0.131821
0.130267
0.134291
0.137742
0.139506
0.141539
0.148205
0.15528
0.158515
0.13987
0.110807
0.0922424
0.0764046
0.0654233
0.0587091
0.0533744
0.0494795
0.0474943
0.0461904
0.0460607
0.0466495
0.0473416
0.0475512
0.0474303
0.047561
0.047707
0.0480596
0.048271
0.0482181
0.048056
0.0480909
0.0482873
0.0484963
0.0485995
0.0485474
0.0485873
0.0488394
0.0491433
0.0493425
0.0494536
0.0497188
0.0501195
0.0505234
0.0508075
0.0510031
0.0511483
0.0513013
0.0515335
0.0518206
0.0521192
0.0523395
0.0524197
0.0523703
0.0523249
0.0524053
0.0524817
0.0523894
0.052056
0.051556
0.0510708
0.0506916
0.0503969
0.0500324
0.0494257
0.0485516
0.0474592
0.0462796
0.0451435
0.044104
0.0431797
0.0422914
0.0412702
0.0400461
0.0387148
0.0374717
0.0364125
0.0354555
0.0344624
0.033343
0.0321065
0.0308644
0.0297579
0.0288334
0.0280194
0.0271738
0.0261923
0.0251241
0.0240957
0.0231873
0.0223757
0.021588
0.0207803
0.019949
0.0191446
0.0184238
0.0177637
0.017068
0.016291
0.0155184
0.0148413
0.0142593
0.0137382
0.0132362
0.0126973
0.0121086
0.0115239
0.0109932
0.0105449
0.010164
0.00981821
0.00946263
0.009074
0.0086842
0.00832541
0.00802488
0.00777843
0.0075537
0.00732287
0.0070763
0.00683982
0.00663436
0.0064674
0.00633577
0.00622376
0.00612161
0.00602645
0.00594066
0.0058638
0.00579432
0.00573986
0.00571117
0.0057156
0.00574165
0.00576723
0.00578031
0.00578623
0.00580772
0.00585501
0.00591509
0.00597705
0.00603842
0.00609454
0.00615482
0.00622617
0.00629719
0.00636172
0.00642023
0.00647569
0.00653286
0.00660503
0.00670185
0.00681174
0.00689765
0.00694022
0.0069643
0.00699938
0.00705798
0.00713604
0.00722286
0.00731049
0.00738773
0.0074433
0.00748169
0.00751438
0.00754905
0.00759407
0.00766213
0.00775208
0.00783423
0.00787969
0.0078983
0.00792398
0.00796647
0.00801533
0.00807038
0.00813051
0.00818113
0.00821471
0.00824062
0.00826631
0.00829056
0.00831911
0.00835437
0.00839109
0.00842199
0.00843681
0.00843067
0.00842116
0.00842592
0.00843652
0.0084336
0.00840269
0.00835807
0.00831957
0.0082873
0.00824378
0.00818164
0.00811804
0.00806811
0.00802823
0.00797736
0.00790368
0.00782418
0.00775446
0.0076972
0.00765013
0.00760876
0.00757008
0.00753584
0.00751116
0.00749584
0.00748855
0.00749417
0.00751328
0.00753738
0.00755946
0.00758263
0.00761638
0.0076654
0.007725
0.00777965
0.0078165
0.0078321
0.00784313
0.00785713
0.00787148
0.00788397
0.00789178
0.00789317
0.00789073
0.0078836
0.00786255
0.00783003
0.00779312
0.007758
0.00772772
0.00769965
0.00766601
0.0076222
0.00757178
0.0075222
0.00747569
0.00743185
0.00738915
0.00733787
0.00727944
0.00722185
0.00716756
0.00711472
0.00706376
0.00701612
0.00696724
0.00691293
0.00685139
0.00678847
0.00673459
0.00668723
0.00662835
0.00655423
0.00647479
0.00640368
0.00634355
0.00628642
0.00622628
0.00616593
0.00610257
0.00603249
0.00595499
0.00588379
0.00582082
0.00576012
0.00569569
0.00562918
0.00555933
0.00548912
0.00542389
0.00535971
0.00529191
0.00522032
0.00515246
0.00508701
0.00502041
0.004957
0.00489985
0.00484174
0.00477797
0.0047099
0.00463331
0.00456739
0.00450512
0.0044605
0.00440067
0.00434518
0.00425643
0.00420065
0.00415323
0.00408963
0.00401112
0.00392511
0.00388717
0.00378492
0.00376442
0.00373906
0.00363386
0.00365764
0.00384477
0.00369396
0.0039554
0.00448641
0.00458604
0.00501281
0.0055135
0.00591112
0.00605081
0.00599029
0.00657179
0.00554314
0.00446639
0.00414662
0.00379077
0.00355382
0.00345234
0.00354496
0.00377918
0.00386823
0.00418073
0.00456207
0.00442173
0.004422
0.00418743
0.00325069
0.0026289
0.00240967
0.00238648
0.0022129
0.00218194
0.00217421
0.00222081
0.00226846
0.00235974
0.00240268
0.0024772
0.00271108
0.00315649
0.00426043
0.00598366
0.00921541
0.0136451
0.0199065
0.0212744
0.0216753
0.0278873
0.026595
0.0212411
0.0290158
0.0170593
0.00752149
0.00636636
0.005599
0.0051353
0.00476731
0.00449695
0.00421047
0.00392217
0.0036988
0.00357845
0.00350391
0.00345102
0.00343441
0.00343805
0.00349674
0.00358275
0.00364792
0.00368585
0.00373922
0.00381347
0.00387095
0.00390261
0.00394773
0.00402978
0.00412969
0.00420519
0.00426283
0.00430277
0.00433779
0.00437567
0.00442188
0.00449617
0.00458461
0.00465106
0.00465855
0.00462961
0.00458984
0.00457216
0.0045875
0.00461358
0.00464775
0.0046673
0.00468913
0.00472535
0.00475503
0.0047756
0.00480511
0.00485424
0.00491664
0.00497865
0.00502924
0.00506259
0.00507987
0.0050868
0.00508961
0.00509386
0.0051035
0.00511918
0.00513752
0.00515344
0.00516493
0.00517518
0.00519046
0.00521111
0.00523532
0.00525088
0.00526165
0.00526648
0.00527984
0.00529518
0.0053043
0.00531369
0.00536048
0.00543812
0.00552892
0.00577335
0.00606668
0.0063627
0.00556167
0.00321519
0.140817
0.226984
0.297055
0.302922
0.249494
0.187784
0.142674
0.117751
0.107976
0.107319
0.119463
0.137821
0.174333
0.22934
0.304306
0.413347
0.555552
0.707402
0.863301
1.03232
1.16662
1.25805
1.33747
1.41355
1.48687
1.58292
1.74956
1.92179
1.9459
1.95241
1.97046
1.96369
1.91656
1.83947
1.72489
1.56998
1.38811
1.21086
1.02384
0.798259
0.610255
0.482022
0.41931
0.393555
0.373742
0.339003
0.302525
0.281101
0.280892
0.283835
0.278831
0.2627
0.237642
0.214529
0.197788
0.188458
0.186032
0.189328
0.194541
0.197744
0.199595
0.205198
0.219631
0.238952
0.250389
0.25202
0.242281
0.224471
0.205464
0.193201
0.193482
0.203835
0.221488
0.245145
0.275273
0.30892
0.343605
0.379234
0.437734
0.505044
0.604201
0.708216
0.794433
0.910431
0.997042
1.04709
1.12345
1.22866
1.32072
1.30399
1.228
1.03802
0.883212
0.728902
0.616684
0.530111
0.477467
0.461486
0.460648
0.460636
0.453072
0.435503
0.417226
0.39269
0.366351
0.345663
0.326485
0.313803
0.308476
0.292901
0.265899
0.234433
0.201473
0.169856
0.140331
0.112379
0.0877097
0.0734018
0.0676353
0.0641834
0.0610716
0.0599219
0.0601078
0.0631313
0.0657714
0.0660458
0.05518
0.0411922
0.0322232
0.0252729
0.0206405
0.0179227
0.0158692
0.0145717
0.0140401
0.0138742
0.013778
0.0137135
0.0137155
0.0136158
0.0135876
0.0136193
0.0136089
0.0136207
0.0136658
0.0137024
0.0137287
0.0137506
0.0137707
0.013835
0.0139296
0.0140215
0.0140946
0.0141518
0.0142411
0.0143678
0.0145136
0.0146438
0.0147426
0.0148066
0.0148506
0.0149095
0.0149883
0.0150736
0.0151408
0.0151726
0.015154
0.0151085
0.015088
0.0150803
0.0150304
0.0149034
0.014711
0.0145073
0.0143217
0.0141565
0.0139859
0.0137609
0.0134657
0.0131082
0.012715
0.0123189
0.0119476
0.0116178
0.0113178
0.0110068
0.0106532
0.0102599
0.00986754
0.00951689
0.00921219
0.00893082
0.00864834
0.00834463
0.00802364
0.0077177
0.0074527
0.00722592
0.00700878
0.00676877
0.00650452
0.00624405
0.00601204
0.00580557
0.00560152
0.00538807
0.00517306
0.00496858
0.00478632
0.00462242
0.00445594
0.00427618
0.00409625
0.00393404
0.00378675
0.00365055
0.00352801
0.00341029
0.00328835
0.00316291
0.00304001
0.00293016
0.00283618
0.00275553
0.00268032
0.00260107
0.00251989
0.00243917
0.00236453
0.00230069
0.00224519
0.00219416
0.00214428
0.00209573
0.00205033
0.00201053
0.00197444
0.0019389
0.00190724
0.00188214
0.00186165
0.00184289
0.00182344
0.00180449
0.00178839
0.00177729
0.00177129
0.00176977
0.00176996
0.00176836
0.00176601
0.00176472
0.00176497
0.00176893
0.00177721
0.00178602
0.00179408
0.00180149
0.00180849
0.00181745
0.00182697
0.00183631
0.00184623
0.00185696
0.00186961
0.00188529
0.00190035
0.00191086
0.00191999
0.00193017
0.00194196
0.00195452
0.00196764
0.00198219
0.00199775
0.00201256
0.00202593
0.00203731
0.00204655
0.00205649
0.00206936
0.00208548
0.00210236
0.00211644
0.00212729
0.00213683
0.00214717
0.00215855
0.00217037
0.00218299
0.00219556
0.00220689
0.00221648
0.00222493
0.00223251
0.00223968
0.0022472
0.00225523
0.00226356
0.00226966
0.00227148
0.00227172
0.00227327
0.00227531
0.00227501
0.00227018
0.00226262
0.00225579
0.00224968
0.00224115
0.00222894
0.00221559
0.00220334
0.00219208
0.00217904
0.00216188
0.00214281
0.0021246
0.00210796
0.00209241
0.00207671
0.00206035
0.0020439
0.00202847
0.00201432
0.00200144
0.00199038
0.00198085
0.0019716
0.00196196
0.0019527
0.0019454
0.00194081
0.00193783
0.00193405
0.00192867
0.00192161
0.00191454
0.00190813
0.00190205
0.00189647
0.00189131
0.00188589
0.00187972
0.00187212
0.00186246
0.00185231
0.00184275
0.00183405
0.00182634
0.00181934
0.001812
0.00180314
0.00179311
0.00178346
0.0017749
0.0017675
0.00176048
0.00175188
0.00174254
0.00173392
0.00172611
0.00171862
0.00171109
0.0017037
0.00169647
0.00168931
0.0016819
0.00167394
0.00166643
0.00166005
0.00165327
0.00164475
0.00163487
0.00162584
0.00161838
0.00161142
0.00160376
0.00159575
0.00158777
0.00157974
0.00157134
0.00156339
0.00155617
0.00154903
0.00154076
0.00153217
0.0015238
0.00151596
0.00150826
0.00149979
0.00149104
0.00148281
0.00147539
0.00146793
0.00145983
0.0014517
0.00144456
0.00143783
0.00143097
0.00142391
0.00141515
0.00140807
0.0014011
0.00139433
0.00138582
0.00137968
0.00136836
0.00136587
0.00136747
0.00136577
0.00136133
0.00135808
0.00135171
0.00134336
0.00136976
0.0014777
0.00152269
0.00164731
0.00182069
0.00202538
0.00193394
0.00176175
0.00172006
0.00164253
0.00157502
0.00153354
0.00148607
0.00144171
0.00146129
0.00143972
0.00142014
0.00146843
0.00159569
0.00167625
0.00182494
0.00200055
0.00217657
0.00238296
0.00242
0.00229714
0.00194896
0.0016945
0.00154807
0.00143426
0.00134761
0.00129577
0.00127802
0.00131566
0.00134994
0.00140658
0.00145558
0.00167704
0.00186337
0.00207583
0.00267526
0.00386145
0.00601013
0.00868726
0.0128779
0.0119212
0.00944667
0.00908302
0.00859522
0.00732273
0.00771339
0.00540208
0.00331988
0.00288003
0.00233957
0.00208936
0.00198272
0.00190423
0.00184112
0.0017981
0.00175658
0.00171353
0.00167161
0.00163263
0.00159866
0.00156939
0.00154491
0.00152572
0.00151118
0.00150144
0.00149432
0.00148821
0.00148316
0.00148049
0.00147976
0.00147893
0.00147826
0.00147955
0.0014829
0.00148708
0.00149056
0.00149382
0.00149701
0.00149969
0.00150257
0.00150653
0.00151197
0.00151773
0.00152238
0.00152442
0.00152501
0.00152507
0.0015259
0.00152789
0.00153049
0.0015333
0.00153588
0.0015387
0.00154205
0.00154543
0.00154879
0.00155255
0.00155702
0.00156201
0.00156693
0.00157121
0.00157461
0.00157711
0.0015789
0.00158029
0.00158162
0.00158321
0.00158519
0.00158739
0.00158947
0.00159128
0.00159298
0.00159497
0.00159738
0.00159948
0.00160115
0.00160237
0.00160378
0.00160524
0.00160709
0.00160821
0.00161147
0.00163087
0.00166715
0.00171707
0.00183954
0.00199788
0.00221542
0.0020894
0.00151783
0.0861106
0.135945
0.176039
0.178213
0.152445
0.116005
0.0886054
0.0737805
0.0699912
0.0759888
0.0925468
0.112043
0.14204
0.191736
0.269252
0.377388
0.505193
0.612806
0.732628
0.86158
0.98463
1.07258
1.11332
1.13416
1.15965
1.20918
1.30563
1.35028
1.31377
1.31044
1.36302
1.41137
1.41015
1.35565
1.25738
1.14081
1.01569
0.891125
0.710538
0.527885
0.391947
0.310302
0.2703
0.252395
0.236333
0.214557
0.195026
0.182749
0.181648
0.183428
0.180957
0.171633
0.158002
0.144481
0.13279
0.123483
0.118107
0.11644
0.115896
0.114757
0.11468
0.118602
0.128732
0.142776
0.152994
0.156363
0.153145
0.142738
0.130597
0.121734
0.11889
0.121295
0.128591
0.140505
0.157203
0.179516
0.206324
0.236266
0.271673
0.317507
0.372349
0.444853
0.50978
0.588976
0.660743
0.706941
0.776619
0.8706
0.928495
0.957028
0.985336
0.990051
0.93182
0.847542
0.717352
0.593549
0.47106
0.391235
0.341568
0.311833
0.295847
0.282611
0.268934
0.251656
0.233257
0.217104
0.202661
0.192337
0.188472
0.188597
0.189225
0.186491
0.17772
0.162614
0.144841
0.125549
0.106291
0.0881363
0.0705198
0.0548084
0.0442849
0.0383983
0.0349105
0.0327915
0.0323623
0.0328344
0.0345962
0.0360104
0.036022
0.0298387
0.0221697
0.0172884
0.0134516
0.0109032
0.00935263
0.00847921
0.00764563
0.0068851
0.0064483
0.00613182
0.00595869
0.00587533
0.00579503
0.00574619
0.00573072
0.00570852
0.0057025
0.00571371
0.00573646
0.00576815
0.00580121
0.00583245
0.00586973
0.00591268
0.00595869
0.00600547
0.00605945
0.00612025
0.00617427
0.00621397
0.00624535
0.00627412
0.00630248
0.00633257
0.00636246
0.00638417
0.00639021
0.00638295
0.00637327
0.00636901
0.00635914
0.00632803
0.00627602
0.00621418
0.00614958
0.00608719
0.00602825
0.00596295
0.00588265
0.0057844
0.00566827
0.00554371
0.00542423
0.0053165
0.00522156
0.00513245
0.0050322
0.00491512
0.00479177
0.00467544
0.00457451
0.0044854
0.00440032
0.00431109
0.00421129
0.00410525
0.00400664
0.0039246
0.00385227
0.00377835
0.00369755
0.00361374
0.00353568
0.00346422
0.00339146
0.0033119
0.00323068
0.00315635
0.00309225
0.00303333
0.00297051
0.00289954
0.00282637
0.00275778
0.00269088
0.00262727
0.00257153
0.00251928
0.002465
0.00240668
0.00234665
0.00229019
0.00223923
0.00219371
0.0021521
0.0021103
0.00206787
0.00202517
0.00198112
0.00193857
0.00190144
0.0018692
0.00183888
0.00180832
0.00177823
0.00175104
0.00172538
0.00169915
0.00167524
0.00165696
0.00164101
0.00162429
0.00160699
0.00158944
0.00157385
0.00156296
0.00155649
0.00155213
0.00154735
0.00154118
0.00153448
0.00152864
0.0015256
0.00152519
0.00152675
0.00152843
0.0015294
0.00152983
0.00153118
0.00153575
0.00154089
0.0015445
0.00154817
0.00155123
0.00155391
0.00155948
0.00156795
0.00157606
0.00158252
0.00158774
0.0015921
0.00159692
0.00160423
0.00161281
0.0016207
0.00162806
0.00163571
0.00164371
0.0016505
0.0016563
0.00166297
0.00167111
0.00168028
0.00168935
0.00169743
0.00170338
0.00170851
0.00171593
0.00172414
0.00173133
0.00173866
0.00174564
0.00175058
0.00175546
0.00176157
0.00176702
0.00177146
0.00177551
0.00177924
0.00178227
0.00178455
0.00178631
0.00178725
0.00178712
0.00178599
0.00178422
0.00178155
0.00177811
0.00177403
0.00176874
0.0017623
0.00175515
0.00174744
0.00173896
0.00172942
0.00171886
0.00170767
0.00169618
0.0016844
0.00167203
0.00165886
0.00164534
0.00163178
0.00161818
0.00160442
0.00159055
0.00157682
0.00156332
0.00154994
0.00153653
0.00152331
0.00151083
0.00149935
0.00148833
0.001477
0.00146578
0.00145523
0.00144548
0.00143648
0.00142802
0.00142005
0.00141246
0.00140508
0.00139771
0.00139037
0.00138356
0.00137733
0.00137141
0.0013658
0.0013606
0.001356
0.0013519
0.00134772
0.0013432
0.00133882
0.00133499
0.00133171
0.00132865
0.00132553
0.00132252
0.0013198
0.00131739
0.00131514
0.00131283
0.00131055
0.00130839
0.00130635
0.00130446
0.00130264
0.00130067
0.00129873
0.0012972
0.0012957
0.00129387
0.00129184
0.00128973
0.00128782
0.00128606
0.00128434
0.00128249
0.00128062
0.00127869
0.00127683
0.001275
0.00127327
0.00127139
0.00126917
0.00126702
0.00126498
0.00126307
0.00126045
0.00125784
0.00125527
0.00125324
0.00125084
0.00124835
0.00124535
0.00124288
0.00124021
0.00123834
0.00123689
0.00123443
0.00123085
0.00122859
0.00122573
0.00122637
0.00123459
0.001238
0.00125321
0.00124496
0.00123657
0.00123866
0.00126765
0.00137419
0.00143724
0.00156013
0.00172318
0.00194248
0.00181775
0.00160311
0.00154532
0.00144382
0.00135518
0.00128337
0.0012542
0.00124225
0.00124808
0.00126564
0.00129005
0.00136038
0.00152543
0.00166912
0.0018842
0.00208428
0.00236312
0.00242108
0.00235842
0.00209481
0.00179008
0.00157704
0.00147056
0.00137278
0.00131699
0.00128321
0.00127019
0.00130091
0.00133519
0.00140036
0.00151509
0.00180894
0.00218078
0.00286561
0.00409068
0.00571844
0.00734184
0.010498
0.0140766
0.0127244
0.00963523
0.00866754
0.00777019
0.00639271
0.00601856
0.00434587
0.00305844
0.00250154
0.00207189
0.00186293
0.00174676
0.00168578
0.0016462
0.00162934
0.00162282
0.00161556
0.00160256
0.00158269
0.0015639
0.00154437
0.00152385
0.00150315
0.00148353
0.00146596
0.00145064
0.00143708
0.0014251
0.00141456
0.00140514
0.00139702
0.00139032
0.0013847
0.00137986
0.00137604
0.00137316
0.00137079
0.00136876
0.00136715
0.00136594
0.00136487
0.00136413
0.00136382
0.0013638
0.00136397
0.00136412
0.00136418
0.00136435
0.00136462
0.00136508
0.00136554
0.001366
0.00136656
0.00136724
0.001368
0.00136876
0.00136947
0.00137021
0.00137099
0.00137177
0.00137258
0.00137341
0.00137423
0.00137501
0.00137576
0.00137646
0.00137709
0.00137765
0.00137815
0.00137862
0.00137909
0.00137957
0.00138004
0.00138048
0.00138091
0.00138131
0.00138177
0.00138198
0.00138246
0.00138263
0.00138299
0.00138326
0.00138394
0.0013843
0.00138697
0.0014039
0.00143635
0.00148206
0.00159271
0.00173784
0.00194109
0.00185888
0.00140656
0.0541795
0.0837767
0.107479
0.111474
0.0992164
0.0776054
0.060509
0.0520705
0.0522488
0.061038
0.0747912
0.0889977
0.110577
0.147334
0.205776
0.284271
0.378722
0.472496
0.551457
0.614906
0.668922
0.709218
0.73292
0.744519
0.753863
0.788269
0.845939
0.86844
0.857876
0.862894
0.89606
0.933097
0.952069
0.921914
0.86646
0.799237
0.714133
0.592462
0.4518
0.328857
0.246353
0.198355
0.173301
0.159812
0.149511
0.138813
0.129299
0.122873
0.121013
0.121247
0.120123
0.116453
0.110317
0.102297
0.0934444
0.0855908
0.0798877
0.0766586
0.0746806
0.0732377
0.0730513
0.0752787
0.0809887
0.0891596
0.0961229
0.0995156
0.0994266
0.0954588
0.0896925
0.0845198
0.0815634
0.0811931
0.084048
0.0907842
0.101274
0.114213
0.128221
0.144763
0.163801
0.188095
0.219753
0.25662
0.295136
0.337262
0.376822
0.411217
0.448002
0.505123
0.561354
0.58646
0.627241
0.634422
0.613277
0.58328
0.548194
0.507934
0.455161
0.386736
0.320782
0.264705
0.226977
0.201949
0.182931
0.169324
0.157665
0.147574
0.138369
0.131049
0.126597
0.124615
0.123812
0.124271
0.126862
0.128361
0.126838
0.120538
0.110245
0.0982241
0.0852708
0.0723663
0.0601856
0.0484362
0.0382243
0.0315712
0.0280938
0.0262216
0.0252478
0.0256813
0.0271451
0.0298384
0.0318881
0.0326192
0.0278863
0.0213756
0.0166049
0.0135199
0.0107904
0.00888345
0.0075083
0.00632969
0.00541714
0.00488995
0.00455553
0.00435181
0.00422571
0.00412074
0.00405069
0.00403439
0.00403157
0.0040347
0.00404276
0.00405812
0.00408431
0.00411934
0.00414827
0.00417093
0.00419326
0.00422639
0.00426351
0.0042967
0.00432351
0.00434
0.00434994
0.00436214
0.00438115
0.0044008
0.00441411
0.00441808
0.00441337
0.00440913
0.00441052
0.00441137
0.00440368
0.00438455
0.00435865
0.00433259
0.00431314
0.00430041
0.00428539
0.00425781
0.00421658
0.00417028
0.00412507
0.00408285
0.00404823
0.0040221
0.00399198
0.00394952
0.00389773
0.00384262
0.00379347
0.00375385
0.00371834
0.00368178
0.00363763
0.00358172
0.00352287
0.00347248
0.00342914
0.00339072
0.00335404
0.00331004
0.00325862
0.00320535
0.00315109
0.00309415
0.00303979
0.00299333
0.00295045
0.00290407
0.00284955
0.00278971