/*--------------------------------*- C++ -*----------------------------------*\
| =========                 |                                                 |
| \\      /  F ield         | OpenFOAM: The Open Source CFD Toolbox           |
|  \\    /   O peration     | Version:  v2006                                 |
|   \\  /    A nd           | Website:  www.openfoam.com                      |
|    \\/     M anipulation  |                                                 |
\*---------------------------------------------------------------------------*/
FoamFile
{
    version     2.0;
    format      ascii;
    class       volScalarField;
    location    "9.2";
    object      p;
}
// * * * * * * * * * * * * * * * * * * * * * * * * * * * * * * * * * * * * * //

dimensions      [1 -1 -2 0 0 0 0];


internalField   nonuniform List<scalar> 
33000
(
7827.77
7833.93
7838.1
7842.42
7847.11
7852.06
7857.12
7862.04
7866.66
7870.98
7874.99
7878.47
7882.19
7885.9
7889.6
7893.24
7896.79
7900.25
7903.76
7907.47
7911.47
7915.72
7920.16
7924.75
7929.21
7933.38
7937.43
7941.36
7945.15
7948.86
7952.56
7956.34
7960.18
7964.12
7968.16
7972.12
7975.85
7979.39
7982.76
7985.99
7989.11
7992.13
7995.04
7997.83
8000.53
8003.11
8005.61
8007.99
8010.25
8012.37
8014.4
8016.31
8018.12
8019.8
8021.34
8022.73
8023.98
8025.08
8026.04
8026.88
8027.61
8028.2
8028.66
8029
8029.21
8029.32
8029.3
8029.17
8028.92
8028.54
8028.05
8027.45
8026.78
8026.08
8025.39
8024.72
8024.2
8023.28
8020.2
8015.59
8016.04
8012.47
8010.36
8007.63
8004.68
8001.14
7998.22
7994.66
7991.26
7987.37
7983.67
7979.67
7975.68
7971.56
7967.79
7963.55
7960.2
7956.31
7954.76
7949.88
7940.23
7933.34
7925.83
7917.67
7909.81
7901.48
7892.37
7883.32
7873.94
7864.51
7854.84
7845.14
7835.46
7825.63
7816.24
7806.4
7798.75
7787.9
7773.36
7761.67
7749.1
7736.37
7723.88
7711.01
7697.8
7684.82
7671.82
7658.89
7646.08
7633.39
7620.85
7608.55
7596.47
7584.61
7573.01
7561.67
7550.64
7539.9
7529.47
7519.33
7509.53
7500.05
7490.9
7482.07
7473.55
7465.32
7457.4
7449.78
7442.46
7435.43
7428.65
7422.13
7415.86
7409.83
7404.04
7398.47
7393.09
7387.92
7382.92
7378.13
7373.55
7369.19
7365.08
7361.22
7357.63
7354.32
7351.29
7348.56
7346.12
7343.99
7342.19
7340.7
7339.51
7338.65
7338.09
7337.85
7337.93
7338.34
7339.06
7340.1
7341.42
7343.04
7344.95
7347.14
7349.61
7352.36
7355.37
7358.64
7362.14
7365.88
7369.85
7374.04
7378.45
7383.05
7387.84
7392.81
7397.93
7403.22
7408.65
7414.23
7419.95
7425.78
7431.71
7437.74
7443.86
7450.06
7456.33
7462.67
7469.05
7475.47
7481.93
7488.43
7494.95
7501.47
7508
7514.52
7521.02
7527.52
7534
7540.46
7546.89
7553.28
7559.62
7565.91
7572.14
7578.33
7584.46
7590.54
7596.55
7602.49
7608.35
7614.14
7619.87
7625.52
7631.1
7636.61
7642.03
7647.37
7652.62
7657.8
7662.9
7667.92
7672.86
7677.73
7682.52
7687.22
7691.84
7696.38
7700.84
7705.23
7709.55
7713.79
7717.95
7722.03
7726.03
7729.97
7733.83
7737.62
7741.34
7744.98
7748.56
7752.06
7755.5
7758.87
7762.17
7765.4
7768.56
7771.65
7774.69
7777.66
7780.56
7783.4
7786.17
7788.88
7791.53
7794.12
7796.64
7799.11
7801.52
7803.87
7806.16
7808.4
7810.57
7812.69
7814.76
7816.78
7818.75
7820.66
7822.53
7824.34
7826.11
7827.83
7829.51
7831.14
7832.74
7834.29
7835.81
7837.29
7838.73
7840.14
7841.52
7842.86
7844.16
7845.41
7846.63
7847.8
7848.93
7850.01
7851.04
7852.02
7852.94
7853.82
7854.63
7855.39
7856.09
7856.73
7857.31
7857.83
7858.29
7858.68
7859.01
7859.27
7859.47
7859.6
7859.66
7859.66
7859.59
7859.46
7859.26
7859
7858.67
7858.29
7857.84
7857.33
7856.76
7856.14
7855.46
7854.73
7853.95
7853.12
7852.24
7851.32
7850.35
7849.35
7848.3
7847.22
7846.11
7844.97
7843.8
7842.6
7841.39
7840.15
7838.89
7837.61
7836.33
7835.03
7833.72
7832.41
7831.09
7829.77
7828.45
7827.13
7825.82
7824.51
7823.2
7821.91
7820.62
7819.35
7818.08
7816.83
7815.59
7814.37
7813.17
7811.98
7810.8
7809.65
7808.51
7807.39
7806.29
7805.21
7804.15
7803.11
7802.09
7801.09
7800.11
7799.15
7798.21
7797.29
7796.39
7795.51
7794.64
7793.8
7792.97
7792.17
7791.37
7790.6
7789.84
7789.09
7788.36
7787.64
7786.94
7786.25
7785.58
7784.91
7784.26
7783.62
7783
7782.38
7781.77
7781.17
7780.58
7779.99
7779.41
7778.84
7778.28
7777.72
7777.17
7776.62
7776.08
7775.54
7775.01
7774.48
7773.95
7773.43
7772.91
7772.39
7771.88
7771.36
7770.85
7770.35
7769.85
7769.34
7768.84
7768.34
7767.85
7767.36
7766.88
7766.4
7765.93
7765.46
7765
7764.55
7764.1
7763.65
7763.22
7762.79
7762.36
7761.97
7761.55
7761.11
7760.71
7760.31
7759.92
7759.54
7759.18
7758.82
7758.47
7758.14
7757.81
7757.5
7757.2
7756.91
7756.62
7756.37
7756.13
7755.88
7755.68
7755.46
7755.19
7755.09
7754.98
7754.85
7754.71
7754.58
7754.45
7754.32
7754.2
7754.08
7753.97
7753.86
7753.75
7753.66
7753.56
7753.47
7753.39
7753.31
7753.24
7753.17
7753.1
7753.04
7752.98
7752.93
7752.88
7752.83
7752.78
7752.73
7752.69
7752.64
7752.6
7752.56
7752.51
7752.47
7752.42
7752.38
7752.33
7752.28
7752.23
7752.18
7752.12
7752.06
7752
7751.94
7751.87
7751.8
7751.73
7751.66
7751.59
7751.51
7751.43
7751.35
7751.27
7751.18
7751.1
7751.02
7750.93
7750.85
7750.77
7750.69
7750.61
7750.53
7750.46
7750.39
7750.33
7750.26
7750.21
7750.15
7750.11
7750.07
7750.03
7750.01
7749.99
7749.98
7749.97
7749.97
7749.99
7750
7750.03
7750.08
7750.12
7750.2
7631.19
7637.59
7641.48
7645.67
7650.28
7655.14
7660.06
7664.89
7669.39
7673.63
7677.6
7681.39
7685.29
7689.17
7692.98
7696.65
7700.1
7703.37
7706.69
7710.31
7714.41
7718.92
7723.74
7728.65
7733.29
7737.56
7741.55
7745.32
7748.94
7752.51
7756.14
7759.89
7763.83
7767.84
7771.94
7776.03
7779.82
7783.4
7786.84
7790.11
7793.24
7796.24
7799.13
7801.92
7804.63
7807.21
7809.71
7812.1
7814.36
7816.51
7818.52
7820.43
7822.23
7823.9
7825.44
7826.82
7828.08
7829.18
7830.17
7831.04
7831.78
7832.39
7832.85
7833.14
7833.34
7833.41
7833.37
7833.22
7832.95
7832.54
7832.02
7831.38
7830.63
7829.78
7828.81
7827.75
7826.58
7825.26
7823.96
7823.14
7821.89
7818.04
7811.94
7812.19
7808.51
7805.54
7802.59
7799.15
7795.61
7791.19
7787.77
7783.41
7779.49
7775.15
7771.03
7766.51
7762.25
7757.82
7753.18
7748.74
7743.07
7740.53
7733.75
7722.46
7714.02
7704.87
7696.13
7687.22
7678.45
7669.21
7659.25
7649.33
7639.29
7629.15
7619.13
7608.92
7598.71
7588.33
7577.03
7568.34
7556.22
7540.54
7527.62
7514.54
7501.59
7488.95
7476.02
7462.86
7449.97
7437.23
7424.68
7412.34
7400.22
7388.31
7376.67
7365.3
7354.25
7343.49
7333.04
7322.91
7313.09
7303.59
7294.42
7285.56
7277.02
7268.77
7260.85
7253.22
7245.88
7238.82
7232.03
7225.5
7219.23
7213.19
7207.39
7201.79
7196.41
7191.22
7186.22
7181.42
7176.83
7172.47
7168.34
7164.47
7160.88
7157.56
7154.53
7151.8
7149.36
7147.24
7145.42
7143.93
7142.76
7141.89
7141.35
7141.12
7141.21
7141.62
7142.34
7143.38
7144.72
7146.35
7148.27
7150.47
7152.95
7155.71
7158.73
7162.02
7165.54
7169.3
7173.28
7177.48
7181.89
7186.51
7191.31
7196.29
7201.43
7206.74
7212.19
7217.78
7223.5
7229.34
7235.29
7241.33
7247.47
7253.68
7259.97
7266.31
7272.7
7279.14
7285.61
7292.12
7298.65
7305.18
7311.72
7318.25
7324.77
7331.28
7337.77
7344.24
7350.67
7357.07
7363.42
7369.72
7375.97
7382.16
7388.29
7394.37
7400.39
7406.33
7412.21
7418.01
7423.74
7429.4
7434.98
7440.49
7445.91
7451.25
7456.51
7461.69
7466.79
7471.82
7476.77
7481.63
7486.42
7491.12
7495.74
7500.28
7504.75
7509.14
7513.46
7517.69
7521.85
7525.94
7529.94
7533.88
7537.74
7541.53
7545.24
7548.89
7552.46
7555.97
7559.41
7562.77
7566.07
7569.3
7572.46
7575.56
7578.59
7581.56
7584.46
7587.3
7590.07
7592.78
7595.43
7598.02
7600.54
7603.01
7605.42
7607.76
7610.06
7612.29
7614.47
7616.59
7618.66
7620.67
7622.64
7624.55
7626.41
7628.23
7629.99
7631.72
7633.39
7635.03
7636.62
7638.17
7639.69
7641.17
7642.61
7644.02
7645.4
7646.74
7648.04
7649.3
7650.51
7651.69
7652.82
7653.9
7654.93
7655.91
7656.83
7657.71
7658.53
7659.29
7659.99
7660.63
7661.21
7661.73
7662.19
7662.58
7662.91
7663.17
7663.37
7663.5
7663.56
7663.56
7663.49
7663.36
7663.16
7662.9
7662.57
7662.18
7661.73
7661.23
7660.66
7660.03
7659.35
7658.62
7657.84
7657
7656.12
7655.19
7654.23
7653.22
7652.17
7651.09
7649.97
7648.83
7647.66
7646.46
7645.24
7643.99
7642.73
7641.46
7640.17
7638.87
7637.56
7636.24
7634.92
7633.6
7632.28
7630.96
7629.64
7628.33
7627.02
7625.72
7624.43
7623.16
7621.89
7620.64
7619.4
7618.17
7616.96
7615.77
7614.6
7613.44
7612.3
7611.18
7610.08
7609
7607.94
7606.9
7605.88
7604.88
7603.9
7602.94
7602
7601.08
7600.18
7599.3
7598.43
7597.59
7596.76
7595.96
7595.16
7594.39
7593.63
7592.88
7592.15
7591.44
7590.73
7590.04
7589.37
7588.71
7588.06
7587.42
7586.79
7586.17
7585.56
7584.96
7584.37
7583.79
7583.21
7582.64
7582.08
7581.52
7580.96
7580.41
7579.87
7579.33
7578.8
7578.27
7577.75
7577.22
7576.7
7576.18
7575.67
7575.16
7574.65
7574.14
7573.64
7573.13
7572.64
7572.13
7571.65
7571.15
7570.67
7570.19
7569.72
7569.25
7568.79
7568.33
7567.88
7567.44
7567.03
7566.6
7566.14
7565.72
7565.29
7564.88
7564.47
7564.08
7563.69
7563.32
7562.95
7562.59
7562.25
7561.91
7561.58
7561.26
7560.97
7560.68
7560.41
7560.14
7559.88
7559.55
7559.41
7559.27
7559.1
7558.94
7558.8
7558.65
7558.51
7558.38
7558.24
7558.11
7557.99
7557.87
7557.76
7557.65
7557.54
7557.44
7557.35
7557.26
7557.18
7557.1
7557.03
7556.96
7556.89
7556.83
7556.77
7556.72
7556.67
7556.62
7556.57
7556.53
7556.48
7556.44
7556.4
7556.36
7556.31
7556.27
7556.23
7556.18
7556.13
7556.08
7556.03
7555.98
7555.93
7555.87
7555.81
7555.74
7555.68
7555.61
7555.54
7555.47
7555.39
7555.31
7555.23
7555.15
7555.07
7554.99
7554.9
7554.82
7554.73
7554.65
7554.57
7554.49
7554.41
7554.33
7554.26
7554.18
7554.12
7554.06
7554
7553.95
7553.9
7553.86
7553.82
7553.79
7553.77
7553.76
7553.76
7553.76
7553.77
7553.79
7553.82
7553.86
7553.9
7553.97
7434.6
7441
7445
7449.2
7453.66
7458.29
7462.97
7467.58
7471.96
7476.13
7480.12
7484.1
7488.14
7492.15
7496.05
7499.7
7503.1
7506.33
7509.69
7513.45
7517.69
7522.33
7527.36
7532.43
7537.27
7541.71
7545.67
7549.32
7552.77
7556.13
7559.62
7563.33
7567.26
7571.41
7575.62
7579.78
7583.76
7587.51
7591.06
7594.4
7597.55
7600.55
7603.45
7606.26
7608.98
7611.6
7614.1
7616.5
7618.77
7620.91
7622.94
7624.86
7626.65
7628.33
7629.86
7631.27
7632.53
7633.67
7634.68
7635.58
7636.33
7636.93
7637.37
7637.66
7637.81
7637.85
7637.78
7637.6
7637.29
7636.87
7636.32
7635.65
7634.83
7633.91
7632.89
7631.75
7630.48
7629.02
7627.31
7625.41
7623.41
7621.51
7620.33
7618.94
7614.68
7607.11
7606.49
7603.52
7599.98
7595.75
7592.2
7588.05
7583.2
7579.22
7574.49
7570
7565.38
7560.61
7555.55
7550.3
7544.25
7537.99
7531.97
7525.4
7521.57
7514.01
7501.93
7492.55
7482.21
7472.83
7463.1
7453.68
7443.85
7433.36
7422.95
7412.31
7401.64
7390.63
7379.02
7367.48
7355.95
7344.02
7334.57
7321.91
7305.99
7292.8
7279.67
7266.68
7254.04
7241.32
7228.51
7216.07
7203.86
7191.88
7180.19
7168.78
7157.67
7146.87
7136.38
7126.22
7116.35
7106.82
7097.6
7088.7
7080.11
7071.84
7063.88
7056.22
7048.85
7041.76
7034.94
7028.38
7022.08
7016.03
7010.19
7004.57
6999.16
6993.96
6988.94
6984.13
6979.54
6975.16
6971.03
6967.15
6963.55
6960.22
6957.19
6954.45
6952.01
6949.89
6948.08
6946.58
6945.41
6944.56
6944.03
6943.82
6943.92
6944.35
6945.09
6946.14
6947.49
6949.14
6951.08
6953.31
6955.81
6958.59
6961.64
6964.94
6968.5
6972.29
6976.3
6980.53
6984.97
6989.6
6994.43
6999.44
7004.61
7009.95
7015.43
7021.05
7026.79
7032.66
7038.63
7044.71
7050.87
7057.11
7063.41
7069.78
7076.2
7082.66
7089.17
7095.7
7102.24
7108.8
7115.35
7121.91
7128.46
7134.99
7141.5
7147.98
7154.43
7160.83
7167.2
7173.52
7179.79
7186
7192.15
7198.24
7204.26
7210.22
7216.11
7221.92
7227.66
7233.33
7238.92
7244.43
7249.86
7255.21
7260.48
7265.67
7270.78
7275.82
7280.77
7285.63
7290.41
7295.12
7299.74
7304.29
7308.77
7313.16
7317.47
7321.71
7325.86
7329.95
7333.96
7337.9
7341.76
7345.55
7349.26
7352.9
7356.48
7359.98
7363.42
7366.79
7370.08
7373.31
7376.47
7379.57
7382.6
7385.56
7388.46
7391.3
7394.07
7396.78
7399.43
7402.02
7404.54
7407
7409.41
7411.75
7414.04
7416.28
7418.45
7420.57
7422.64
7424.65
7426.61
7428.53
7430.39
7432.2
7433.97
7435.69
7437.36
7439
7440.59
7442.14
7443.66
7445.14
7446.58
7447.99
7449.36
7450.7
7452
7453.27
7454.48
7455.66
7456.79
7457.87
7458.91
7459.89
7460.82
7461.7
7462.52
7463.28
7463.98
7464.63
7465.21
7465.73
7466.19
7466.58
7466.91
7467.17
7467.37
7467.5
7467.56
7467.56
7467.49
7467.36
7467.16
7466.9
7466.57
7466.18
7465.73
7465.21
7464.64
7464.02
7463.33
7462.59
7461.81
7460.97
7460.08
7459.15
7458.18
7457.16
7456.11
7455.02
7453.9
7452.75
7451.57
7450.37
7449.14
7447.89
7446.63
7445.34
7444.05
7442.74
7441.43
7440.11
7438.78
7437.45
7436.13
7434.8
7433.48
7432.16
7430.85
7429.55
7428.26
7426.97
7425.7
7424.44
7423.2
7421.97
7420.76
7419.57
7418.39
7417.23
7416.09
7414.97
7413.87
7412.79
7411.72
7410.68
7409.66
7408.66
7407.68
7406.72
7405.78
7404.86
7403.96
7403.08
7402.21
7401.37
7400.54
7399.73
7398.94
7398.17
7397.41
7396.66
7395.93
7395.22
7394.51
7393.83
7393.15
7392.49
7391.84
7391.2
7390.58
7389.96
7389.35
7388.75
7388.16
7387.57
7387
7386.43
7385.86
7385.3
7384.75
7384.21
7383.67
7383.13
7382.6
7382.06
7381.54
7381.02
7380.5
7379.98
7379.47
7378.95
7378.44
7377.94
7377.43
7376.92
7376.42
7375.92
7375.43
7374.94
7374.45
7373.97
7373.49
7373.03
7372.56
7372.13
7371.68
7371.21
7370.76
7370.32
7369.89
7369.47
7369.05
7368.63
7368.23
7367.83
7367.45
7367.07
7366.7
7366.34
7365.98
7365.66
7365.33
7365.03
7364.71
7364.41
7364.02
7363.86
7363.69
7363.49
7363.3
7363.11
7362.93
7362.76
7362.6
7362.45
7362.3
7362.16
7362.02
7361.89
7361.76
7361.64
7361.53
7361.42
7361.31
7361.21
7361.12
7361.03
7360.95
7360.87
7360.8
7360.73
7360.67
7360.61
7360.56
7360.5
7360.46
7360.41
7360.36
7360.32
7360.28
7360.24
7360.2
7360.16
7360.12
7360.07
7360.03
7359.99
7359.94
7359.89
7359.84
7359.79
7359.74
7359.68
7359.62
7359.55
7359.49
7359.42
7359.35
7359.28
7359.2
7359.12
7359.04
7358.96
7358.87
7358.79
7358.7
7358.61
7358.53
7358.44
7358.36
7358.27
7358.19
7358.11
7358.04
7357.96
7357.89
7357.83
7357.77
7357.71
7357.66
7357.62
7357.58
7357.55
7357.53
7357.52
7357.51
7357.51
7357.52
7357.54
7357.57
7357.61
7357.64
7357.72
7237.51
7244.14
7248.21
7252.39
7256.83
7261.33
7265.85
7270.3
7274.6
7278.75
7282.8
7286.96
7291.1
7295.2
7299.17
7302.95
7306.57
7310.16
7313.9
7318
7322.46
7327.23
7332.11
7336.94
7341.61
7345.89
7349.83
7353.52
7357.01
7360.48
7364.05
7367.88
7371.9
7376.03
7380.16
7384.21
7388.14
7391.89
7395.49
7398.89
7402.06
7405.11
7408.07
7410.91
7413.65
7416.3
7418.79
7421.19
7423.48
7425.65
7427.69
7429.61
7431.4
7433.08
7434.63
7436.04
7437.33
7438.49
7439.53
7440.42
7441.15
7441.74
7442.19
7442.48
7442.63
7442.65
7442.54
7442.3
7441.97
7441.5
7440.91
7440.17
7439.29
7438.27
7437.12
7435.82
7434.4
7432.82
7431.08
7429.17
7427.09
7424.86
7422.42
7419.69
7417.05
7415.04
7413.51
7411.27
7406.13
7397.44
7397.39
7391.72
7387.77
7383.31
7378.81
7373.15
7368.64
7363.05
7357.76
7352.18
7346.33
7339.94
7333.66
7326.04
7318.96
7310.95
7304.11
7296.04
7291.51
7282.72
7269.13
7258.41
7247.82
7237.16
7226.87
7216.17
7204.87
7193.55
7182.01
7170.41
7158.56
7146.16
7133.93
7121.78
7109.42
7099.47
7086.59
7070.79
7057.63
7044.85
7032.15
7019.82
7007.55
6995.3
6983.49
6971.94
6960.82
6949.93
6939.41
6929.18
6919.28
6909.68
6900.4
6891.43
6882.79
6874.47
6866.46
6858.75
6851.33
6844.18
6837.32
6830.72
6824.38
6818.28
6812.41
6806.76
6801.32
6796.08
6791.05
6786.23
6781.62
6777.24
6773.1
6769.21
6765.61
6762.27
6759.24
6756.49
6754.06
6751.93
6750.13
6748.64
6747.48
6746.64
6746.12
6745.93
6746.06
6746.51
6747.28
6748.35
6749.72
6751.4
6753.38
6755.65
6758.19
6761.01
6764.09
6767.43
6771.02
6774.85
6778.91
6783.19
6787.66
6792.34
6797.2
6802.25
6807.47
6812.85
6818.37
6824.03
6829.82
6835.72
6841.74
6847.86
6854.06
6860.33
6866.67
6873.08
6879.54
6886.05
6892.59
6899.15
6905.72
6912.31
6918.9
6925.49
6932.07
6938.63
6945.17
6951.68
6958.15
6964.58
6970.98
6977.33
6983.62
6989.86
6996.03
7002.13
7008.17
7014.14
7020.05
7025.89
7031.65
7037.33
7042.93
7048.45
7053.89
7059.25
7064.53
7069.73
7074.86
7079.9
7084.85
7089.72
7094.5
7099.22
7103.85
7108.41
7112.88
7117.28
7121.59
7125.82
7129.98
7134.06
7138.08
7142.02
7145.88
7149.67
7153.38
7157.02
7160.6
7164.1
7167.54
7170.9
7174.2
7177.42
7180.59
7183.68
7186.71
7189.67
7192.57
7195.4
7198.17
7200.88
7203.53
7206.11
7208.63
7211.09
7213.49
7215.84
7218.13
7220.36
7222.53
7224.66
7226.72
7228.73
7230.69
7232.6
7234.46
7236.27
7238.03
7239.75
7241.43
7243.06
7244.65
7246.2
7247.72
7249.2
7250.64
7252.05
7253.43
7254.76
7256.06
7257.33
7258.55
7259.73
7260.86
7261.94
7262.98
7263.97
7264.9
7265.78
7266.6
7267.37
7268.08
7268.72
7269.31
7269.83
7270.29
7270.68
7271.01
7271.28
7271.47
7271.61
7271.67
7271.67
7271.6
7271.46
7271.26
7270.99
7270.67
7270.27
7269.82
7269.3
7268.72
7268.09
7267.4
7266.66
7265.86
7265.02
7264.12
7263.19
7262.2
7261.18
7260.12
7259.02
7257.89
7256.73
7255.55
7254.33
7253.09
7251.84
7250.56
7249.27
7247.97
7246.65
7245.33
7244
7242.67
7241.33
7239.99
7238.66
7237.33
7236.01
7234.69
7233.38
7232.08
7230.79
7229.51
7228.25
7227
7225.77
7224.56
7223.36
7222.18
7221.02
7219.88
7218.75
7217.65
7216.56
7215.5
7214.46
7213.43
7212.43
7211.45
7210.49
7209.55
7208.63
7207.73
7206.84
7205.98
7205.14
7204.31
7203.5
7202.71
7201.93
7201.18
7200.43
7199.71
7198.99
7198.29
7197.61
7196.93
7196.27
7195.62
7194.98
7194.36
7193.74
7193.13
7192.53
7191.94
7191.36
7190.78
7190.21
7189.65
7189.09
7188.54
7188
7187.45
7186.91
7186.39
7185.86
7185.34
7184.81
7184.3
7183.77
7183.26
7182.74
7182.23
7181.71
7181.21
7180.7
7180.2
7179.69
7179.21
7178.7
7178.22
7177.74
7177.28
7176.81
7176.33
7175.86
7175.4
7174.95
7174.51
7174.07
7173.63
7173.2
7172.77
7172.36
7171.95
7171.56
7171.15
7170.8
7170.43
7170.09
7169.74
7169.38
7169.04
7168.59
7168.4
7168.2
7167.97
7167.74
7167.52
7167.31
7167.11
7166.92
7166.74
7166.57
7166.4
7166.24
7166.08
7165.93
7165.79
7165.66
7165.53
7165.4
7165.29
7165.18
7165.07
7164.97
7164.88
7164.79
7164.71
7164.64
7164.57
7164.5
7164.44
7164.39
7164.33
7164.28
7164.24
7164.19
7164.15
7164.11
7164.07
7164.03
7164
7163.96
7163.92
7163.88
7163.84
7163.8
7163.75
7163.71
7163.66
7163.61
7163.55
7163.5
7163.44
7163.37
7163.31
7163.24
7163.17
7163.09
7163.01
7162.93
7162.85
7162.77
7162.68
7162.59
7162.5
7162.41
7162.32
7162.24
7162.15
7162.06
7161.98
7161.89
7161.81
7161.74
7161.66
7161.59
7161.53
7161.47
7161.42
7161.37
7161.33
7161.3
7161.28
7161.26
7161.25
7161.25
7161.26
7161.27
7161.3
7161.34
7161.37
7161.45
7040.64
7047.29
7051.36
7055.52
7059.92
7064.37
7068.76
7073.11
7077.38
7081.55
7085.69
7089.95
7094.19
7098.37
7102.47
7106.5
7110.47
7114.46
7118.55
7122.8
7127.23
7131.81
7136.43
7141
7145.45
7149.7
7153.79
7157.74
7161.57
7165.39
7169.24
7173.16
7177.1
7181.07
7185.12
7189.04
7192.88
7196.62
7200.2
7203.59
7206.8
7209.9
7212.89
7215.77
7218.54
7221.21
7223.73
7226.15
7228.45
7230.64
7232.7
7234.64
7236.45
7238.14
7239.7
7241.13
7242.44
7243.62
7244.66
7245.54
7246.28
7246.86
7247.31
7247.6
7247.76
7247.76
7247.64
7247.36
7246.97
7246.46
7245.81
7245.01
7244.07
7242.97
7241.73
7240.33
7238.81
7237.15
7235.31
7233.31
7231.15
7228.86
7226.4
7223.81
7221.08
7218.23
7215.09
7211.73
7208.66
7206.55
7204.51
7198.86
7188.47
7188.28
7181.87
7177.46
7172.36
7167.13
7160.68
7155.17
7148.6
7142.21
7135.6
7128.68
7121.37
7114.09
7105.57
7097.68
7088.72
7080.72
7071.96
7066.37
7057.05
7042.55
7031
7019.71
7008.24
6997.09
6985.46
6973.27
6961.15
6948.95
6936.73
6924.42
6911.61
6899.07
6886.6
6874.1
6863.76
6850.95
6835.69
6822.88
6810.6
6798.45
6786.63
6775.17
6763.91
6752.83
6742.15
6731.85
6721.83
6712.15
6702.78
6693.74
6685
6676.61
6668.51
6660.73
6653.23
6646.03
6639.1
6632.44
6626.03
6619.87
6613.95
6608.25
6602.78
6597.51
6592.46
6587.62
6583
6578.62
6574.47
6570.59
6566.98
6563.66
6560.62
6557.88
6555.45
6553.33
6551.54
6550.06
6548.91
6548.09
6547.6
6547.43
6547.6
6548.09
6548.89
6549.99
6551.41
6553.13
6555.15
6557.47
6560.07
6562.94
6566.07
6569.45
6573.1
6576.98
6581.1
6585.44
6589.98
6594.71
6599.63
6604.73
6610
6615.43
6621.02
6626.74
6632.58
6638.55
6644.61
6650.78
6657.03
6663.35
6669.75
6676.21
6682.73
6689.28
6695.87
6702.47
6709.09
6715.73
6722.36
6728.99
6735.62
6742.22
6748.8
6755.35
6761.85
6768.32
6774.75
6781.13
6787.46
6793.72
6799.93
6806.06
6812.13
6818.12
6824.05
6829.91
6835.69
6841.39
6847
6852.54
6858
6863.38
6868.67
6873.89
6879.02
6884.07
6889.03
6893.9
6898.7
6903.42
6908.06
6912.62
6917.1
6921.49
6925.81
6930.04
6934.21
6938.29
6942.31
6946.25
6950.11
6953.9
6957.61
6961.26
6964.83
6968.33
6971.76
6975.12
6978.41
6981.64
6984.8
6987.9
6990.92
6993.88
6996.77
6999.6
7002.37
7005.08
7007.72
7010.3
7012.83
7015.29
7017.68
7020.03
7022.31
7024.54
7026.71
7028.83
7030.9
7032.9
7034.86
7036.77
7038.63
7040.44
7042.2
7043.92
7045.59
7047.22
7048.81
7050.37
7051.88
7053.36
7054.8
7056.21
7057.59
7058.93
7060.23
7061.49
7062.71
7063.89
7065.03
7066.12
7067.16
7068.14
7069.08
7069.96
7070.79
7071.56
7072.27
7072.92
7073.51
7074.03
7074.5
7074.89
7075.22
7075.49
7075.69
7075.82
7075.88
7075.88
7075.81
7075.67
7075.47
7075.2
7074.87
7074.47
7074.01
7073.49
7072.91
7072.27
7071.57
7070.82
7070.01
7069.16
7068.25
7067.3
7066.31
7065.28
7064.2
7063.1
7061.95
7060.78
7059.58
7058.35
7057.1
7055.83
7054.54
7053.24
7051.92
7050.6
7049.26
7047.92
7046.58
7045.23
7043.88
7042.54
7041.2
7039.86
7038.53
7037.21
7035.91
7034.61
7033.33
7032.06
7030.81
7029.57
7028.35
7027.15
7025.96
7024.8
7023.65
7022.53
7021.42
7020.33
7019.27
7018.22
7017.2
7016.2
7015.21
7014.25
7013.31
7012.39
7011.48
7010.6
7009.74
7008.89
7008.07
7007.26
7006.46
7005.69
7004.93
7004.19
7003.47
7002.76
7002.06
7001.37
7000.7
7000.04
6999.39
6998.75
6998.12
6997.51
6996.9
6996.3
6995.71
6995.13
6994.56
6993.99
6993.43
6992.86
6992.32
6991.78
6991.25
6990.72
6990.19
6989.66
6989.14
6988.61
6988.09
6987.57
6987.04
6986.53
6986.01
6985.5
6984.99
6984.48
6983.97
6983.47
6982.98
6982.49
6981.98
6981.5
6981.01
6980.55
6980.07
6979.61
6979.14
6978.69
6978.24
6977.79
6977.35
6976.91
6976.49
6976.05
6975.67
6975.28
6974.91
6974.51
6974.13
6973.77
6973.27
6973.05
6972.82
6972.56
6972.3
6972.05
6971.8
6971.57
6971.35
6971.13
6970.92
6970.72
6970.53
6970.35
6970.17
6970
6969.84
6969.69
6969.55
6969.41
6969.27
6969.15
6969.03
6968.92
6968.82
6968.72
6968.63
6968.54
6968.46
6968.39
6968.32
6968.26
6968.2
6968.15
6968.1
6968.05
6968.01
6967.97
6967.93
6967.9
6967.86
6967.83
6967.79
6967.76
6967.73
6967.69
6967.65
6967.61
6967.57
6967.53
6967.48
6967.43
6967.38
6967.32
6967.26
6967.2
6967.13
6967.06
6966.99
6966.92
6966.84
6966.75
6966.67
6966.58
6966.49
6966.4
6966.31
6966.21
6966.12
6966.03
6965.93
6965.84
6965.75
6965.66
6965.58
6965.5
6965.42
6965.34
6965.27
6965.21
6965.15
6965.1
6965.06
6965.02
6965
6964.98
6964.96
6964.96
6964.97
6964.98
6965
6965.04
6965.08
6965.15
6843.59
6850.3
6854.38
6858.52
6862.89
6867.34
6871.69
6876
6880.28
6884.52
6888.81
6893.12
6897.42
6901.7
6905.96
6910.18
6914.38
6918.61
6922.91
6927.28
6931.73
6936.24
6940.75
6945.23
6949.62
6953.91
6958.11
6962.22
6966.26
6970.24
6974.22
6978.2
6982.19
6986.17
6990.14
6994.06
6997.9
7001.61
7005.16
7008.53
7011.78
7014.91
7017.95
7020.87
7023.67
7026.36
7028.92
7031.37
7033.7
7035.92
7038
7039.95
7041.78
7043.49
7045.07
7046.52
7047.84
7049.04
7050.08
7050.98
7051.73
7052.33
7052.78
7053.1
7053.25
7053.24
7053.09
7052.8
7052.33
7051.76
7051.05
7050.18
7049.17
7048.01
7046.69
7045.2
7043.57
7041.79
7039.88
7037.78
7035.53
7033.13
7030.57
7027.86
7024.98
7021.9
7018.71
7015.46
7012.16
7008.71
7004.79
7000.99
6998.3
6995.76
6989.4
6977.99
6977.09
6970
6964.52
6958.6
6952.42
6944.94
6938.42
6930.78
6923.4
6915.67
6907.92
6899.58
6891.44
6882.77
6873.59
6863.94
6854.97
6845.05
6838.43
6828.32
6812.87
6800.49
6788.59
6776.34
6764.46
6752.16
6739.4
6726.81
6714.22
6701.7
6689.16
6676.24
6663.66
6651.07
6638.65
6628.22
6615.71
6601.24
6588.98
6577.02
6566.24
6555.14
6544.54
6534.1
6523.92
6514.09
6504.65
6495.48
6486.67
6478.15
6469.98
6462.08
6454.5
6447.2
6440.19
6433.44
6426.97
6420.73
6414.75
6409
6403.48
6398.18
6393.11
6388.25
6383.62
6379.24
6375.1
6371.22
6367.62
6364.3
6361.27
6358.54
6356.13
6354.04
6352.27
6350.82
6349.69
6348.9
6348.44
6348.31
6348.52
6349.05
6349.9
6351.05
6352.52
6354.3
6356.38
6358.76
6361.43
6364.37
6367.57
6371.02
6374.73
6378.68
6382.86
6387.27
6391.89
6396.7
6401.7
6406.86
6412.21
6417.71
6423.37
6429.16
6435.08
6441.11
6447.25
6453.47
6459.79
6466.18
6472.65
6479.18
6485.76
6492.38
6499.02
6505.68
6512.36
6519.05
6525.75
6532.44
6539.11
6545.76
6552.39
6558.98
6565.54
6572.06
6578.52
6584.94
6591.3
6597.6
6603.84
6610.02
6616.12
6622.15
6628.11
6633.98
6639.78
6645.51
6651.15
6656.71
6662.19
6667.59
6672.9
6678.13
6683.27
6688.33
6693.3
6698.19
6703
6707.73
6712.38
6716.94
6721.42
6725.82
6730.14
6734.38
6738.54
6742.63
6746.65
6750.58
6754.45
6758.24
6761.95
6765.59
6769.16
6772.66
6776.09
6779.45
6782.74
6785.96
6789.12
6792.22
6795.24
6798.2
6801.09
6803.92
6806.68
6809.38
6812.02
6814.6
6817.12
6819.58
6821.98
6824.32
6826.6
6828.83
6831
6833.11
6835.17
6837.18
6839.14
6841.04
6842.9
6844.71
6846.47
6848.19
6849.86
6851.49
6853.08
6854.64
6856.15
6857.63
6859.07
6860.48
6861.86
6863.2
6864.5
6865.76
6866.98
6868.17
6869.3
6870.39
6871.43
6872.43
6873.37
6874.25
6875.08
6875.86
6876.57
6877.23
6877.82
6878.35
6878.81
6879.21
6879.54
6879.81
6880.01
6880.15
6880.21
6880.21
6880.13
6880
6879.79
6879.52
6879.18
6878.78
6878.31
6877.78
6877.19
6876.54
6875.83
6875.07
6874.26
6873.39
6872.47
6871.51
6870.5
6869.45
6868.36
6867.24
6866.08
6864.89
6863.67
6862.43
6861.16
6859.88
6858.57
6857.25
6855.92
6854.58
6853.23
6851.87
6850.51
6849.15
6847.79
6846.43
6845.08
6843.73
6842.39
6841.06
6839.74
6838.44
6837.15
6835.87
6834.61
6833.36
6832.13
6830.93
6829.74
6828.57
6827.42
6826.29
6825.18
6824.09
6823.02
6821.98
6820.95
6819.94
6818.96
6818
6817.05
6816.13
6815.23
6814.34
6813.48
6812.64
6811.81
6811
6810.21
6809.44
6808.68
6807.94
6807.22
6806.51
6805.81
6805.13
6804.46
6803.8
6803.15
6802.51
6801.89
6801.27
6800.67
6800.08
6799.49
6798.91
6798.32
6797.75
6797.2
6796.66
6796.13
6795.59
6795.07
6794.53
6794
6793.46
6792.93
6792.4
6791.88
6791.35
6790.83
6790.3
6789.78
6789.25
6788.75
6788.24
6787.75
6787.22
6786.73
6786.23
6785.74
6785.25
6784.77
6784.28
6783.81
6783.34
6782.87
6782.41
6781.94
6781.5
6781.03
6780.62
6780.19
6779.79
6779.34
6778.93
6778.36
6778.11
6777.86
6777.58
6777.27
6776.97
6776.68
6776.4
6776.13
6775.87
6775.62
6775.38
6775.15
6774.92
6774.71
6774.5
6774.3
6774.11
6773.93
6773.75
6773.59
6773.43
6773.28
6773.14
6773
6772.88
6772.76
6772.65
6772.54
6772.45
6772.36
6772.27
6772.2
6772.13
6772.06
6772
6771.95
6771.9
6771.86
6771.81
6771.78
6771.74
6771.71
6771.68
6771.65
6771.62
6771.59
6771.56
6771.53
6771.5
6771.47
6771.43
6771.4
6771.36
6771.31
6771.27
6771.21
6771.16
6771.1
6771.04
6770.97
6770.9
6770.83
6770.75
6770.66
6770.58
6770.49
6770.4
6770.31
6770.21
6770.11
6770.01
6769.91
6769.81
6769.71
6769.62
6769.52
6769.43
6769.33
6769.25
6769.16
6769.08
6769.01
6768.94
6768.87
6768.82
6768.77
6768.73
6768.69
6768.67
6768.66
6768.65
6768.65
6768.66
6768.68
6768.72
6768.75
6768.83
6646.39
6653.19
6657.29
6661.43
6665.81
6670.27
6674.63
6678.97
6683.29
6687.63
6692
6696.37
6700.76
6705.14
6709.52
6713.9
6718.27
6722.67
6727.1
6731.56
6736.06
6740.57
6745.07
6749.54
6753.96
6758.32
6762.62
6766.84
6771.01
6775.13
6779.23
6783.3
6787.35
6791.38
6795.38
6799.3
6803.11
6806.78
6810.31
6813.7
6816.99
6820.17
6823.24
6826.2
6829.04
6831.76
6834.36
6836.86
6839.23
6841.47
6843.59
6845.56
6847.4
6849.13
6850.73
6852.21
6853.56
6854.77
6855.84
6856.76
6857.52
6858.14
6858.6
6858.92
6859.08
6859.06
6858.87
6858.55
6858.06
6857.42
6856.66
6855.74
6854.65
6853.42
6852.03
6850.48
6848.75
6846.86
6844.84
6842.65
6840.29
6837.77
6835.08
6832.23
6829.23
6826.08
6822.78
6819.36
6815.8
6811.96
6808.04
6804.09
6799.98
6795.36
6790.86
6787.51
6784.38
6777.5
6765.13
6763.12
6755.16
6748.76
6741.84
6734.71
6726.4
6718.86
6710.28
6702.01
6693.49
6684.83
6675.74
6666.61
6657.19
6646.84
6636.48
6626.19
6615.47
6607.67
6596.65
6580.35
6567.35
6555.06
6542.27
6529.88
6517.16
6504.16
6491.34
6478.62
6465.98
6453.4
6440.5
6428.08
6415.31
6403.45
6391.77
6381.62
6370.09
6357.19
6346.12
6335.83
6325.51
6315.62
6305.99
6296.66
6287.65
6279.05
6270.7
6262.72
6255.01
6247.62
6240.49
6233.66
6227.08
6220.77
6214.71
6208.91
6203.34
6198
6192.9
6188.03
6183.41
6179.02
6174.9
6171.04
6167.46
6164.16
6161.14
6158.44
6156.06
6154
6152.26
6150.85
6149.76
6149.01
6148.6
6148.53
6148.8
6149.39
6150.29
6151.52
6153.05
6154.9
6157.06
6159.51
6162.26
6165.29
6168.58
6172.12
6175.9
6179.93
6184.2
6188.7
6193.4
6198.31
6203.4
6208.66
6214.09
6219.69
6225.43
6231.31
6237.31
6243.42
6249.64
6255.95
6262.35
6268.83
6275.38
6281.99
6288.64
6295.33
6302.04
6308.77
6315.53
6322.29
6329.06
6335.82
6342.55
6349.26
6355.94
6362.59
6369.21
6375.78
6382.29
6388.76
6395.16
6401.51
6407.79
6414.01
6420.16
6426.23
6432.22
6438.13
6443.95
6449.7
6455.37
6460.96
6466.46
6471.88
6477.21
6482.45
6487.61
6492.69
6497.68
6502.58
6507.4
6512.14
6516.79
6521.36
6525.84
6530.25
6534.58
6538.82
6542.99
6547.08
6551.09
6555.03
6558.9
6562.69
6566.4
6570.04
6573.61
6577.11
6580.54
6583.89
6587.18
6590.4
6593.56
6596.65
6599.67
6602.62
6605.51
6608.33
6611.1
6613.8
6616.43
6619.01
6621.52
6623.98
6626.38
6628.71
6630.99
6633.22
6635.38
6637.5
6639.56
6641.57
6643.52
6645.42
6647.28
6649.09
6650.85
6652.57
6654.24
6655.88
6657.47
6659.02
6660.54
6662.02
6663.46
6664.87
6666.25
6667.58
6668.88
6670.14
6671.37
6672.55
6673.69
6674.78
6675.82
6676.82
6677.76
6678.65
6679.48
6680.26
6680.98
6681.64
6682.24
6682.77
6683.24
6683.64
6683.98
6684.25
6684.45
6684.59
6684.65
6684.65
6684.58
6684.43
6684.22
6683.95
6683.6
6683.19
6682.72
6682.18
6681.58
6680.92
6680.2
6679.42
6678.59
6677.71
6676.78
6675.8
6674.77
6673.71
6672.6
6671.45
6670.28
6669.07
6667.83
6666.56
6665.28
6663.97
6662.65
6661.31
6659.96
6658.6
6657.23
6655.85
6654.47
6653.1
6651.72
6650.35
6648.98
6647.62
6646.27
6644.92
6643.59
6642.27
6640.97
6639.68
6638.41
6637.16
6635.92
6634.7
6633.51
6632.33
6631.18
6630.04
6628.93
6627.84
6626.77
6625.72
6624.69
6623.68
6622.7
6621.73
6620.79
6619.86
6618.96
6618.07
6617.21
6616.37
6615.54
6614.73
6613.94
6613.17
6612.42
6611.68
6610.95
6610.25
6609.55
6608.87
6608.19