/*--------------------------------*- C++ -*----------------------------------*\
| =========                 |                                                 |
| \\      /  F ield         | OpenFOAM: The Open Source CFD Toolbox           |
|  \\    /   O peration     | Version:  v2006                                 |
|   \\  /    A nd           | Website:  www.openfoam.com                      |
|    \\/     M anipulation  |                                                 |
\*---------------------------------------------------------------------------*/
FoamFile
{
    version     2.0;
    format      ascii;
    class       volScalarField;
    location    "9.2";
    object      p_rgh;
}
// * * * * * * * * * * * * * * * * * * * * * * * * * * * * * * * * * * * * * //

dimensions      [1 -1 -2 0 0 0 0];


internalField   nonuniform List<scalar> 
33000
(
7925.87
7932.03
7936.2
7940.52
7945.21
7950.16
7955.22
7960.14
7964.76
7969.08
7973.09
7976.56
7980.28
7983.99
7987.67
7991.25
7994.8
7998.29
8001.84
8005.57
8009.57
8013.82
8018.26
8022.85
8027.31
8031.48
8035.53
8039.46
8043.25
8046.96
8050.66
8054.44
8058.28
8062.22
8066.26
8070.22
8073.95
8077.49
8080.84
8084.06
8087.2
8090.23
8093.13
8095.91
8098.59
8101.2
8103.71
8106.09
8108.35
8110.43
8112.47
8114.41
8116.22
8117.9
8119.44
8120.83
8122.08
8123.18
8124.14
8124.98
8125.69
8126.23
8126.73
8127.09
8127.31
8127.42
8127.4
8127.27
8127.02
8126.64
8126.15
8125.54
8124.87
8124.17
8123.46
8122.78
8122.25
8121.33
8118.27
8113.66
8114.09
8110.52
8108.41
8105.72
8102.77
8099.24
8096.32
8092.76
8089.36
8085.47
8081.77
8077.75
8073.74
8069.62
8065.87
8061.65
8058.3
8054.41
8052.86
8047.98
8038.33
8031.44
8023.9
8015.74
8007.88
7999.55
7990.45
7981.41
7972.04
7962.61
7952.94
7943.21
7933.52
7923.71
7914.34
7904.5
7896.84
7885.99
7871.44
7859.76
7847.2
7834.47
7821.98
7809.08
7795.87
7782.91
7769.92
7756.99
7744.18
7731.49
7718.92
7706.63
7694.56
7682.71
7671.11
7659.77
7648.74
7638
7627.56
7617.42
7607.6
7598.13
7588.99
7580.17
7571.64
7563.42
7555.49
7547.85
7540.55
7533.52
7526.75
7520.22
7513.94
7507.92
7502.13
7496.56
7491.19
7486.02
7481.02
7476.23
7471.64
7467.29
7463.17
7459.32
7455.72
7452.42
7449.39
7446.66
7444.22
7442.08
7440.28
7438.79
7437.61
7436.74
7436.18
7435.93
7436.01
7436.44
7437.16
7438.19
7439.52
7441.13
7443.04
7445.23
7447.7
7450.45
7453.47
7456.73
7460.23
7463.97
7467.94
7472.14
7476.55
7481.15
7485.94
7490.91
7496.03
7501.3
7506.74
7512.32
7518.04
7523.88
7529.81
7535.84
7541.96
7548.15
7554.43
7560.77
7567.15
7573.56
7580.01
7586.52
7593.05
7599.57
7606.1
7612.61
7619.11
7625.6
7632.09
7638.56
7644.99
7651.38
7657.72
7664
7670.23
7676.42
7682.56
7688.64
7694.65
7700.59
7706.45
7712.23
7717.95
7723.61
7729.2
7734.7
7740.12
7745.46
7750.72
7755.9
7761
7766.02
7770.95
7775.83
7780.61
7785.32
7789.94
7794.48
7798.93
7803.33
7807.65
7811.89
7816.05
7820.13
7824.13
7828.06
7831.93
7835.72
7839.44
7843.08
7846.66
7850.16
7853.6
7856.97
7860.27
7863.5
7866.66
7869.75
7872.78
7875.76
7878.66
7881.5
7884.27
7886.98
7889.63
7892.21
7894.74
7897.21
7899.62
7901.97
7904.26
7906.5
7908.67
7910.79
7912.86
7914.88
7916.85
7918.76
7920.63
7922.44
7924.21
7925.93
7927.61
7929.24
7930.84
7932.39
7933.91
7935.38
7936.83
7938.24
7939.62
7940.96
7942.26
7943.51
7944.73
7945.9
7947.03
7948.11
7949.14
7950.12
7951.04
7951.92
7952.73
7953.49
7954.19
7954.83
7955.41
7955.93
7956.39
7956.78
7957.11
7957.37
7957.57
7957.7
7957.76
7957.76
7957.69
7957.56
7957.36
7957.1
7956.77
7956.39
7955.94
7955.43
7954.86
7954.24
7953.56
7952.83
7952.05
7951.22
7950.34
7949.42
7948.45
7947.45
7946.4
7945.32
7944.21
7943.07
7941.9
7940.7
7939.49
7938.25
7936.99
7935.71
7934.43
7933.13
7931.82
7930.51
7929.19
7927.87
7926.55
7925.23
7923.92
7922.61
7921.3
7920.01
7918.72
7917.45
7916.18
7914.93
7913.69
7912.47
7911.27
7910.08
7908.9
7907.75
7906.61
7905.49
7904.39
7903.31
7902.25
7901.21
7900.19
7899.19
7898.21
7897.25
7896.31
7895.39
7894.49
7893.61
7892.74
7891.9
7891.07
7890.27
7889.47
7888.7
7887.94
7887.19
7886.46
7885.74
7885.04
7884.35
7883.68
7883.01
7882.36
7881.72
7881.1
7880.48
7879.87
7879.27
7878.68
7878.09
7877.51
7876.94
7876.38
7875.82
7875.27
7874.72
7874.18
7873.64
7873.11
7872.58
7872.05
7871.53
7871.01
7870.49
7869.98
7869.46
7868.95
7868.45
7867.95
7867.44
7866.94
7866.44
7865.95
7865.46
7864.98
7864.5
7864.03
7863.56
7863.1
7862.65
7862.2
7861.75
7861.32
7860.89
7860.46
7860.06
7859.65
7859.21
7858.81
7858.41
7858.02
7857.64
7857.28
7856.92
7856.57
7856.24
7855.91
7855.6
7855.3
7855.01
7854.72
7854.47
7854.23
7853.98
7853.78
7853.56
7853.29
7853.19
7853.08
7852.95
7852.81
7852.68
7852.55
7852.42
7852.3
7852.18
7852.07
7851.96
7851.85
7851.75
7851.66
7851.57
7851.49
7851.41
7851.34
7851.27
7851.2
7851.14
7851.08
7851.03
7850.97
7850.93
7850.88
7850.83
7850.79
7850.74
7850.7
7850.66
7850.61
7850.57
7850.52
7850.48
7850.43
7850.38
7850.33
7850.28
7850.22
7850.16
7850.1
7850.04
7849.97
7849.9
7849.83
7849.76
7849.69
7849.61
7849.53
7849.45
7849.37
7849.28
7849.2
7849.12
7849.03
7848.95
7848.87
7848.79
7848.71
7848.63
7848.56
7848.49
7848.42
7848.36
7848.31
7848.25
7848.21
7848.17
7848.13
7848.11
7848.09
7848.08
7848.07
7848.07
7848.09
7848.1
7848.13
7848.18
7848.22
7848.3
7925.49
7931.9
7935.78
7939.98
7944.58
7949.44
7954.36
7959.19
7963.69
7967.93
7971.89
7975.63
7979.47
7983.2
7987.02
7990.7
7994.24
7997.61
8000.98
8004.61
8008.71
8013.22
8018.04
8022.95
8027.59
8031.86
8035.85
8039.62
8043.24
8046.81
8050.44
8054.19
8058.13
8062.14
8066.25
8070.33
8074.12
8077.69
8081.04
8084.3
8087.5
8090.54
8093.41
8096.08
8098.74
8101.44
8104.01
8106.39
8108.62
8110.64
8112.7
8114.69
8116.52
8118.2
8119.74
8121.12
8122.38
8123.48
8124.45
8125.2
8125.88
8126.49
8126.94
8127.33
8127.62
8127.71
8127.67
8127.52
8127.24
8126.84
8126.29
8125.54
8124.78
8123.93
8123.02
8122.03
8120.88
8119.54
8118.24
8117.42
8116.14
8112.2
8106.14
8106.46
8102.8
8099.84
8096.89
8093.46
8089.91
8085.49
8082.06
8077.65
8073.68
8069.37
8065.31
8060.81
8056.54
8052.11
8047.47
8043.03
8037.35
8034.76
8027.97
8016.68
8008.24
7999.08
7990.39
7981.52
7972.75
7963.51
7953.5
7943.52
7933.48
7923.35
7913.4
7903.21
7893
7882.59
7871.28
7862.61
7850.52
7834.83
7821.85
7808.75
7795.8
7783.18
7770.31
7757.15
7744.27
7731.47
7718.88
7706.56
7694.49
7682.61
7670.97
7659.59
7648.54
7637.78
7627.33
7617.14
7607.31
7597.81
7588.64
7579.83
7571.3
7563.05
7555.07
7547.43
7540.13
7533.11
7526.33
7519.79
7513.48
7507.44
7501.64
7496.08
7490.7
7485.51
7480.51
7475.7
7471.12
7466.76
7462.64
7458.75
7455.14
7451.85
7448.83
7446.09
7443.62
7441.48
7439.7
7438.23
7437.05
7436.19
7435.62
7435.36
7435.45
7435.86
7436.6
7437.68
7439.02
7440.65
7442.56
7444.74
7447.2
7449.97
7453.02
7456.31
7459.83
7463.56
7467.54
7471.74
7476.16
7480.8
7485.61
7490.58
7495.7
7500.99
7506.44
7512.04
7517.79
7523.64
7529.59
7535.61
7541.74
7547.96
7554.25
7560.6
7566.99
7573.4
7579.87
7586.4
7592.95
7599.48
7606.02
7612.54
7619.04
7625.54
7632.03
7638.52
7644.97
7651.37
7657.71
7663.99
7670.23
7676.42
7682.56
7688.67
7694.69
7700.63
7706.49
7712.27
7718
7723.66
7729.25
7734.78
7740.21
7745.55
7750.81
7755.98
7761.07
7766.09
7771.03
7775.9
7780.71
7785.42
7790.04
7794.57
7799.02
7803.42
7807.75
7811.99
7816.15
7820.23
7824.23
7828.16
7832.02
7835.81
7839.54
7843.19
7846.76
7850.26
7853.7
7857.07
7860.37
7863.6
7866.75
7869.84
7872.87
7875.85
7878.76
7881.6
7884.37
7887.08
7889.72
7892.3
7894.83
7897.3
7899.71
7902.06
7904.35
7906.59
7908.76
7910.87
7912.94
7914.97
7916.93
7918.85
7920.71
7922.53
7924.29
7926.01
7927.68
7929.32
7930.92
7932.47
7933.99
7935.46
7936.91
7938.32
7939.69
7941.03
7942.34
7943.59
7944.81
7945.98
7947.11
7948.19
7949.22
7950.2
7951.13
7952.01
7952.83
7953.59
7954.29
7954.93
7955.51
7956.03
7956.49
7956.88
7957.21
7957.47
7957.67
7957.8
7957.86
7957.86
7957.79
7957.66
7957.46
7957.2
7956.87
7956.49
7956.04
7955.53
7954.96
7954.33
7953.65
7952.92
7952.14
7951.3
7950.42
7949.5
7948.53
7947.52
7946.47
7945.39
7944.28
7943.13
7941.96
7940.76
7939.54
7938.29
7937.03
7935.76
7934.47
7933.17
7931.86
7930.54
7929.22
7927.9
7926.58
7925.26
7923.94
7922.63
7921.32
7920.02
7918.73
7917.45
7916.19
7914.94
7913.7
7912.47
7911.26
7910.07
7908.9
7907.74
7906.6
7905.48
7904.38
7903.3
7902.24
7901.2
7900.18
7899.18
7898.2
7897.24
7896.3
7895.38
7894.48
7893.6
7892.73
7891.89
7891.06
7890.26
7889.46
7888.69
7887.93
7887.18
7886.45
7885.73
7885.03
7884.34
7883.67
7883.01
7882.36
7881.72
7881.09
7880.47
7879.86
7879.26
7878.67
7878.08
7877.51
7876.94
7876.38
7875.82
7875.26
7874.71
7874.17
7873.63
7873.1
7872.57
7872.05
7871.52
7871
7870.48
7869.97
7869.46
7868.95
7868.44
7867.94
7867.43
7866.94
7866.43
7865.95
7865.45
7864.97
7864.49
7864.02
7863.55
7863.09
7862.63
7862.18
7861.74
7861.33
7860.9
7860.44
7860.02
7859.59
7859.18
7858.77
7858.38
7857.99
7857.62
7857.25
7856.89
7856.55
7856.21
7855.88
7855.56
7855.27
7854.98
7854.71
7854.44
7854.18
7853.85
7853.71
7853.57
7853.4
7853.24
7853.1
7852.95
7852.81
7852.68
7852.55
7852.42
7852.3
7852.18
7852.06
7851.95
7851.85
7851.75
7851.66
7851.57
7851.48
7851.41
7851.33
7851.26
7851.2
7851.14
7851.08
7851.02
7850.97
7850.92
7850.87
7850.83
7850.79
7850.74
7850.7
7850.66
7850.61
7850.57
7850.53
7850.48
7850.43
7850.39
7850.34
7850.28
7850.23
7850.17
7850.11
7850.05
7849.98
7849.91
7849.84
7849.77
7849.69
7849.61
7849.53
7849.45
7849.37
7849.29
7849.2
7849.12
7849.03
7848.95
7848.87
7848.79
7848.71
7848.63
7848.56
7848.48
7848.42
7848.36
7848.3
7848.25
7848.2
7848.16
7848.12
7848.1
7848.07
7848.06
7848.06
7848.06
7848.07
7848.09
7848.12
7848.16
7848.2
7848.27
7925.09
7931.5
7935.5
7939.7
7944.16
7948.79
7953.47
7958.08
7962.46
7966.63
7970.55
7974.24
7978.28
7982.38
7986.43
7990.18
7993.6
7996.83
8000.19
8003.95
8008.19
8012.83
8017.86
8022.93
8027.77
8032.21
8036.17
8039.82
8043.26
8046.62
8050.12
8053.83
8057.76
8061.91
8066.12
8070.28
8074.26
8077.96
8081.26
8084.71
8088
8091.04
8093.86
8096.4
8099.12
8101.9
8104.58
8106.99
8109.17
8111.14
8113.17
8115.22
8117.13
8118.83
8120.36
8121.76
8122.98
8123.94
8124.94
8125.83
8126.72
8127.35
8127.62
8127.79
8127.94
8128.1
8128.23
8128.09
8127.79
8127.36
8126.72
8125.89
8125.08
8124.23
8123.35
8122.25
8120.98
8119.52
8117.81
8115.91
8113.91
8111.99
8110.79
8109.4
8105.15
8097.59
8096.99
8094.02
8090.48
8086.25
8082.67
8078.35
8073.57
8069.7
8064.98
8060.48
8055.79
8051.02
8046.02
8040.8
8034.74
8028.46
8022.34
8015.76
8011.98
8004.48
7992.43
7983.05
7972.71
7963.33
7953.53
7944.01
7934.18
7923.71
7913.41
7902.8
7892.13
7881.09
7869.47
7857.97
7846.44
7834.46
7824.92
7812.26
7796.34
7783.22
7770.15
7757.17
7744.47
7731.66
7718.85
7706.5
7694.35
7682.38
7670.65
7659.17
7648.11
7637.36
7626.86
7616.62
7606.72
7597.19
7587.98
7579.17
7570.58
7562.22
7554.23
7546.58
7539.3
7532.24
7525.39
7518.76
7512.51
7506.51
7500.68
7495.01
7489.56
7484.35
7479.37
7474.62
7470.03
7465.66
7461.51
7457.58
7453.96
7450.67
7447.68
7444.91
7442.42
7440.3
7438.5
7437.07
7435.91
7435.06
7434.5
7434.23
7434.32
7434.74
7435.48
7436.61
7437.99
7439.64
7441.57
7443.75
7446.22
7449
7452.08
7455.44
7459
7462.78
7466.74
7470.95
7475.39
7480.05
7484.92
7489.93
7495.09
7500.38
7505.86
7511.5
7517.28
7523.15
7529.1
7535.16
7541.32
7547.57
7553.9
7560.27
7566.66
7573.09
7579.59
7586.15
7592.74
7599.29
7605.85
7612.4
7618.91
7625.42
7631.93
7638.44
7644.92
7651.33
7657.7
7664
7670.23
7676.44
7682.59
7688.72
7694.76
7700.71
7706.58
7712.37
7718.11
7723.8
7729.42
7734.93
7740.36
7745.7
7750.95
7756.11
7761.22
7766.26
7771.24
7776.13
7780.91
7785.61
7790.23
7794.75
7799.22
7803.61
7807.96
7812.2
7816.36
7820.43
7824.43
7828.37
7832.25
7836.04
7839.75
7843.37
7846.95
7850.48
7853.92
7857.28
7860.58
7863.8
7866.95
7870.04
7873.08
7876.06
7878.96
7881.8
7884.57
7887.28
7889.92
7892.49
7895.01
7897.48
7899.9
7902.25
7904.54
7906.77
7908.94
7911.05
7913.12
7915.15
7917.11
7919.02
7920.88
7922.7
7924.46
7926.18
7927.86
7929.49
7931.08
7932.64
7934.15
7935.63
7937.08
7938.48
7939.85
7941.19
7942.5
7943.76
7944.98
7946.15
7947.28
7948.37
7949.41
7950.39
7951.32
7952.19
7953.01
7953.78
7954.48
7955.12
7955.7
7956.23
7956.69
7957.08
7957.41
7957.67
7957.87
7958
7958.06
7958.06
7958
7957.86
7957.66
7957.4
7957.07
7956.68
7956.23
7955.72
7955.14
7954.52
7953.83
7953.09
7952.31
7951.47
7950.58
7949.65
7948.68
7947.66
7946.61
7945.52
7944.4
7943.25
7942.07
7940.87
7939.64
7938.39
7937.13
7935.84
7934.55
7933.24
7931.93
7930.61
7929.28
7927.95
7926.63
7925.3
7923.98
7922.66
7921.35
7920.05
7918.76
7917.47
7916.2
7914.94
7913.69
7912.47
7911.26
7910.07
7908.89
7907.73
7906.59
7905.47
7904.37
7903.29
7902.22
7901.18
7900.16
7899.16
7898.18
7897.22
7896.28
7895.36
7894.46
7893.58
7892.71
7891.87
7891.04
7890.23
7889.44
7888.67
7887.91
7887.16
7886.43
7885.71
7885.01
7884.33
7883.65
7882.99
7882.34
7881.7
7881.07
7880.46
7879.85
7879.25
7878.65
7878.07
7877.5
7876.93
7876.36
7875.8
7875.25
7874.71
7874.17
7873.63
7873.1
7872.56
7872.04
7871.52
7871
7870.48
7869.97
7869.45
7868.94
7868.44
7867.93
7867.42
7866.92
7866.42
7865.93
7865.44
7864.95
7864.47
7863.99
7863.53
7863.06
7862.63
7862.18
7861.71
7861.26
7860.82
7860.39
7859.97
7859.55
7859.13
7858.73
7858.33
7857.95
7857.57
7857.2
7856.84
7856.48
7856.16
7855.83
7855.53
7855.21
7854.9
7854.52
7854.36
7854.19
7853.99
7853.8
7853.61
7853.43
7853.26
7853.1
7852.94
7852.79
7852.66
7852.52
7852.39
7852.26
7852.14
7852.02
7851.91
7851.81
7851.71
7851.62
7851.53
7851.45
7851.37
7851.3
7851.23
7851.17
7851.11
7851.06
7851
7850.96
7850.91
7850.86
7850.82
7850.78
7850.74
7850.7
7850.66
7850.62
7850.57
7850.53
7850.48
7850.44
7850.39
7850.34
7850.29
7850.24
7850.18
7850.12
7850.05
7849.99
7849.92
7849.85
7849.78
7849.7
7849.62
7849.54
7849.46
7849.37
7849.29
7849.2
7849.11
7849.03
7848.94
7848.86
7848.77
7848.69
7848.61
7848.54
7848.46
7848.39
7848.33
7848.27
7848.21
7848.16
7848.12
7848.08
7848.05
7848.03
7848.02
7848.01
7848.01
7848.02
7848.04
7848.07
7848.11
7848.15
7848.22
7924.21
7930.84
7934.91
7939.09
7943.53
7948.03
7952.55
7957
7961.3
7965.45
7969.33
7973.12
7977.4
7981.83
7985.86
7989.65
7993.27
7996.86
8000.6
8004.7
8009.16
8013.93
8018.81
8023.64
8028.31
8032.59
8036.52
8040.11
8043.56
8047.12
8050.74
8054.58
8058.6
8062.73
8066.86
8070.91
8074.79
8078.15
8081.72
8085.39
8088.73
8091.8
8094.67
8097.13
8099.84
8102.79
8105.47
8107.88
8110.08
8111.98
8114.01
8116.07
8118.06
8119.78
8121.33
8122.74
8123.94
8124.88
8125.93
8127.01
8127.84
8128.43
8128.8
8128.72
8128.82
8128.84
8128.85
8128.91
8128.66
8128.2
8127.6
8126.79
8125.64
8124.77
8123.78
8122.52
8121.1
8119.52
8117.79
8115.86
8113.75
8111.46
8108.83
8106.02
8103.39
8101.42
8100.08
8097.95
8092.83
8084.14
8084.08
8078.15
8074.25
8069.94
8065.5
8059.82
8055.22
8049.62
8044.36
8038.86
8033.03
8026.63
8020.29
8012.68
8005.63
7997.64
7990.81
7982.74
7978.2
7969.41
7955.68
7944.86
7934.29
7923.77
7913.56
7902.86
7891.56
7880.23
7868.69
7857.11
7845.25
7832.82
7820.43
7808.27
7795.99
7786.14
7773.27
7757.43
7744.11
7731.31
7718.68
7706.48
7694.25
7681.99
7670.09
7658.48
7647.36
7636.54
7626.08
7615.83
7605.82
7596.19
7587
7578.09
7569.4
7560.96
7552.95
7545.28
7537.98
7530.85
7523.88
7517.25
7510.95
7504.96
7499.09
7493.36
7487.87
7482.64
7477.61
7472.84
7468.31
7463.93
7459.73
7455.78
7452.17
7448.84
7445.88
7443.16
7440.64
7438.51
7436.7
7435.26
7434.17
7433.33
7432.8
7432.53
7432.61
7433.06
7433.86
7435.03
7436.42
7438.1
7440.06
7442.26
7444.76
7447.58
7450.66
7454.09
7457.71
7461.55
7465.59
7469.81
7474.25
7478.93
7483.86
7488.94
7494.16
7499.53
7504.99
7510.63
7516.43
7522.39
7528.41
7534.5
7540.73
7547.02
7553.36
7559.73
7566.14
7572.64
7579.19
7585.81
7592.42
7599.01
7605.59
7612.13
7618.67
7625.24
7631.79
7638.36
7644.84
7651.27
7657.66
7664.01
7670.29
7676.48
7682.65
7688.75
7694.84
7700.83
7706.72
7712.52
7718.27
7723.99
7729.62
7735.15
7740.58
7745.9
7751.15
7756.35
7761.48
7766.58
7771.54
7776.41
7781.19
7785.87
7790.48
7795.03
7799.52
7803.96
7808.28
7812.51
7816.63
7820.7
7824.76
7828.71
7832.58
7836.36
7840.04
7843.67
7847.25
7850.79
7854.23
7857.6
7860.89
7864.12
7867.26
7870.34
7873.38
7876.36
7879.27
7882.09
7884.85
7887.55
7890.21
7892.81
7895.33
7897.77
7900.16
7902.51
7904.81
7907.05
7909.21
7911.33
7913.39
7915.42
7917.38
7919.28
7921.12
7922.95
7924.73
7926.45
7928.13
7929.75
7931.33
7932.88
7934.41
7935.9
7937.34
7938.74
7940.11
7941.45
7942.76
7944.02
7945.24
7946.4
7947.54
7948.64
7949.68
7950.66
7951.59
7952.47
7953.3
7954.07
7954.77
7955.41
7956
7956.53
7956.99
7957.38
7957.71
7957.97
7958.17
7958.3
7958.37
7958.37
7958.3
7958.16
7957.96
7957.69
7957.36
7956.97
7956.52
7956
7955.42
7954.79
7954.1
7953.35
7952.56
7951.72
7950.82
7949.88
7948.9
7947.88
7946.81
7945.72
7944.59
7943.43
7942.25
7941.03
7939.79
7938.54
7937.26
7935.97
7934.67
7933.35
7932.03
7930.7
7929.37
7928.03
7926.7
7925.36
7924.03
7922.71
7921.39
7920.08
7918.78
7917.49
7916.21
7914.95
7913.7
7912.46
7911.25
7910.06
7908.88
7907.72
7906.57
7905.45
7904.35
7903.26
7902.2
7901.16
7900.13
7899.13
7898.15
7897.19
7896.25
7895.33
7894.43
7893.54
7892.68
7891.84
7891.01
7890.2
7889.41
7888.63
7887.87
7887.13
7886.4
7885.69
7884.99
7884.3
7883.63
7882.97
7882.32
7881.68
7881.05
7880.44
7879.83
7879.23
7878.64
7878.06
7877.48
7876.91
7876.35
7875.79
7875.24
7874.69
7874.14
7873.61
7873.09
7872.56
7872.03
7871.51
7871
7870.47
7869.96
7869.44
7868.93
7868.41
7867.91
7867.4
7866.9
7866.39
7865.91
7865.4
7864.92
7864.43
7863.98
7863.51
7863.03
7862.56
7862.1
7861.65
7861.2
7860.76
7860.32
7859.9
7859.47
7859.06
7858.64
7858.25
7857.84
7857.49
7857.13
7856.79
7856.44
7856.08
7855.74
7855.29
7855.1
7854.9
7854.67
7854.44
7854.22
7854
7853.8
7853.62
7853.44
7853.27
7853.1
7852.94
7852.78
7852.64
7852.49
7852.36
7852.23
7852.1
7851.99
7851.88
7851.77
7851.67
7851.58
7851.5
7851.41
7851.34
7851.27
7851.2
7851.14
7851.08
7851.03
7850.98
7850.94
7850.89
7850.85
7850.81
7850.77
7850.73
7850.7
7850.66
7850.62
7850.58
7850.54
7850.5
7850.45
7850.41
7850.36
7850.31
7850.25
7850.2
7850.14
7850.07
7850.01
7849.94
7849.87
7849.79
7849.71
7849.63
7849.55
7849.47
7849.38
7849.29
7849.2
7849.11
7849.03
7848.94
7848.85
7848.76
7848.68
7848.59
7848.51
7848.44
7848.36
7848.29
7848.23
7848.17
7848.12
7848.07
7848.03
7848
7847.98
7847.96
7847.95
7847.95
7847.96
7847.97
7848
7848.04
7848.07
7848.15
7923.54
7930.19
7934.26
7938.42
7942.82
7947.27
7951.66
7956.01
7960.28
7964.44
7968.37
7972.15
7976.89
7981.24
7985.37
7989.4
7993.37
7997.36
8001.46
8005.71
8010.13
8014.71
8019.34
8023.9
8028.35
8032.57
8036.46
8040.31
8044.24
8048.24
8052.13
8056.06
8060
8063.96
8068.01
8071.8
8075.19
8078.85
8082.64
8086.39
8089.69
8092.79
8095.75
8098.32
8101.07
8103.96
8106.62
8109.05
8111.31
8113.15
8115.14
8117.37
8119.33
8121.04
8122.6
8124.03
8125.3
8126.4
8127.47
8128.42
8129.18
8129.76
8130.17
8130.1
8130
8130.01
8129.88
8130
8129.85
8129.36
8128.71
8127.9
8126.91
8125.7
8124.51
8123.18
8121.69
8120.05
8118.2
8116.13
8113.63
8111.29
8108.83
8106.32
8103.82
8101.06
8097.96
8094.62
8091.56
8089.44
8087.25
8081.34
8070.94
8070.87
8064.71
8060.34
8055.18
8049.86
8043.42
8038.01
8031.49
8025.1
8018.48
8011.44
8004.2
7996.98
7988.47
7980.58
7971.62
7963.61
7954.81
7949.13
7939.87
7925.42
7913.87
7902.54
7891.08
7879.97
7868.36
7856.17
7844.04
7831.83
7819.4
7807.13
7794.46
7781.96
7769.47
7756.76
7746.36
7733.55
7718.45
7705.76
7693.5
7681.35
7669.49
7657.88
7646.6
7635.52
7624.89
7614.71
7604.69
7595
7585.64
7576.54
7567.63
7559.24
7551.16
7543.55
7536.1
7528.77
7521.77
7515.11
7508.79
7502.75
7496.84
7491.09
7485.5
7480.23
7475.17
7470.42
7465.89
7461.5
7457.26
7453.32
7449.71
7446.39
7443.46
7440.76
7438.25
7436.07
7434.27
7432.85
7431.8
7430.99
7430.47
7430.21
7430.31
7430.8
7431.73
7432.89
7434.31
7436.03
7438.04
7440.3
7442.8
7445.67
7448.8
7452.24
7455.98
7459.88
7463.99
7468.31
7472.78
7477.47
7482.45
7487.61
7492.88
7498.32
7503.83
7509.51
7515.36
7521.33
7527.48
7533.67
7539.92
7546.24
7552.58
7558.98
7565.49
7572.05
7578.73
7585.36
7591.99
7598.61
7605.19
7611.77
7618.4
7625.04
7631.68
7638.22
7644.69
7651.13
7657.56
7663.99
7670.35
7676.61
7682.81
7688.88
7694.91
7700.91
7706.84
7712.7
7718.56
7724.28
7729.9
7735.44
7740.88
7746.19
7751.47
7756.69
7761.88
7766.96
7771.92
7776.78
7781.52
7786.23
7790.87
7795.45
7799.98
7804.39
7808.7
7812.9
7817.03
7821.11
7825.15
7829.13
7833
7836.77
7840.44
7844.09
7847.68
7851.22
7854.66
7858.02
7861.31
7864.54
7867.69
7870.75
7873.79
7876.77
7879.67
7882.48
7885.23
7887.94
7890.61
7893.2
7895.72
7898.18
7900.55
7902.88
7905.16
7907.41
7909.61
7911.73
7913.79
7915.79
7917.71
7919.62
7921.48
7923.32
7925.1
7926.81
7928.48
7930.1
7931.68
7933.24
7934.77
7936.26
7937.7
7939.11
7940.46
7941.81
7943.12
7944.38
7945.58
7946.76
7947.9
7949
7950.05
7951.03
7951.96
7952.85
7953.69
7954.46
7955.16
7955.8
7956.39
7956.93
7957.4
7957.79
7958.12
7958.38
7958.58
7958.71
7958.78
7958.78
7958.71
7958.57
7958.36
7958.09
7957.75
7957.36
7956.91
7956.38
7955.79
7955.15
7954.45
7953.71
7952.91
7952.06
7951.15
7950.2
7949.2
7948.16
7947.09
7945.99
7944.85
7943.68
7942.48
7941.25
7940
7938.73
7937.44
7936.14
7934.82
7933.5
7932.16
7930.82
7929.48
7928.13
7926.78
7925.44
7924.1
7922.76
7921.43
7920.11
7918.8
7917.51
7916.23
7914.96
7913.7
7912.46
7911.24
7910.04
7908.86
7907.7
7906.55
7905.42
7904.32
7903.23
7902.17
7901.12
7900.1
7899.09
7898.11
7897.15
7896.21
7895.29
7894.38
7893.5
7892.64
7891.79
7890.96
7890.15
7889.36
7888.59
7887.83
7887.09
7886.37
7885.65
7884.95
7884.27
7883.59
7882.94
7882.29
7881.65
7881.02
7880.41
7879.79
7879.2
7878.61
7878.03
7877.46
7876.89
7876.33
7875.76
7875.21
7874.67
7874.15
7873.62
7873.09
7872.56
7872.04
7871.51
7870.99
7870.47
7869.95
7869.43
7868.91
7868.4
7867.89
7867.38
7866.87
7866.37
7865.88
7865.39
7864.88
7864.4
7863.91
7863.44
7862.96
7862.51
7862.04
7861.58
7861.13
7860.68
7860.25
7859.81
7859.39
7858.95
7858.57
7858.17
7857.8
7857.41
7857.03
7856.67
7856.17
7855.95
7855.72
7855.46
7855.2
7854.94
7854.7
7854.47
7854.24
7854.02
7853.81
7853.61
7853.43
7853.25
7853.07
7852.9
7852.74
7852.59
7852.44
7852.3
7852.17
7852.05
7851.93
7851.82
7851.71
7851.62
7851.52
7851.44
7851.36
7851.29
7851.22
7851.16
7851.1
7851.05
7851
7850.95
7850.91
7850.87
7850.83
7850.8
7850.76
7850.73
7850.69
7850.66
7850.63
7850.59
7850.55
7850.51
7850.47
7850.43
7850.38
7850.33
7850.28
7850.22
7850.16
7850.1
7850.04
7849.97
7849.89
7849.82
7849.74
7849.65
7849.57
7849.48
7849.39
7849.3
7849.21
7849.11
7849.02
7848.93
7848.83
7848.74
7848.65
7848.56
7848.48
7848.4
7848.32
7848.24
7848.17
7848.11
7848.05
7848
7847.96
7847.92
7847.89
7847.87
7847.86
7847.86
7847.87
7847.88
7847.9
7847.94
7847.98
7848.05
7922.69
7929.4
7933.48
7937.61
7941.99
7946.44
7950.79
7955.11
7959.38
7963.61
7967.73
7971.85
7976.35
7980.78
7985.06
7989.28
7993.48
7997.71
8002.01
8006.38
8010.83
8015.34
8019.85
8024.33
8028.7
8032.79
8036.81
8040.92
8045.19
8049.32
8053.32
8057.3
8061.26
8065.19
8068.82
8072.35
8076.18
8080.02
8084.05
8087.62
8090.87
8094.01
8097.03
8099.88
8102.68
8105.41
8108.01
8110.47
8112.79
8114.82
8116.85
8118.95
8120.87
8122.59
8124.17
8125.62
8126.94
8128.13
8129.18
8130.08
8130.83
8131.43
8131.87
8132.05
8131.62
8131.54
8131.38
8131.55
8131.4
8130.86
8130.15
8129.29
8128.27
8127.1
8125.66
8123.83
8122.44
8120.87
8118.97
8116.85
8114.43
8111.73
8109.44
8106.92
8104.06
8100.98
8097.75
8094.44
8090.95
8087.31
8083.38
8079.58
8077.11
8074.79
8068.5
8057.09
8056.18
8049.05
8043.42
8037.6
8031.51
8024.02
8017.36
8009.6
8002.39
7994.76
7987.02
7978.68
7970.53
7961.82
7952.51
7942.86
7933.91
7923.96
7917.34
7907.23
7891.87
7879.57
7867.69
7855.44
7843.56
7831.24
7818.34
7805.77
7793.28
7780.79
7768.24
7755.15
7742.39
7729.81
7717.53
7707.29
7694.81
7680.34
7668.07
7656.06
7645.11
7633.99
7623.4
7613.13
7603.02
7593.19
7583.73
7574.42
7565.44
7556.92
7548.89
7541.15
7533.57
7526.13
7519.01
7512.26
7505.98
7499.82
7493.84
7488.08
7482.45
7477.05
7472
7467.3
7462.71
7458.32
7454.12
7450.13
7446.51
7443.27
7440.35
7437.62
7435.19
7432.98
7431.16
7429.86
7428.78
7427.99
7427.5
7427.25
7427.39
7428.03
7428.99
7430.15
7431.61
7433.37
7435.45
7437.83
7440.44
7443.27
7446.46
7449.92
7453.73
7457.76
7461.96
7466.36
7470.98
7475.78
7480.72
7485.79
7491.11
7496.69
7502.38
7508.12
7514.07
7520.19
7526.34
7532.57
7538.87
7545.18
7551.59
7558.12
7564.7
7571.43
7578.11
7584.77
7591.45
7598.12
7604.72
7611.39
7618.07
7624.8
7631.46
7638.05
7644.55
7651.05
7657.51
7663.98
7670.38
7676.69
7682.93
7689.09
7695.13
7701.12
7707.07
7712.95
7718.84
7724.6
7730.25
7735.81
7741.28
7746.61
7751.87
7757.16
7762.36
7767.42
7772.37
7777.19
7781.99
7786.72
7791.42
7796.03
7800.51
7804.91
7809.21
7813.39
7817.55
7821.64
7825.71
7829.67
7833.54
7837.3
7840.97
7844.61
7848.24
7851.76
7855.19
7858.54
7861.8
7865.02
7868.21
7871.31
7874.34
7877.29
7880.17
7882.96
7885.73
7888.46
7891.12
7893.7
7896.22
7898.67
7901.05
7903.36
7905.64
7907.9
7910.09
7912.21
7914.27
7916.26
7918.18
7920.09
7921.98
7923.8
7925.57
7927.28
7928.93
7930.55
7932.16
7933.73
7935.25
7936.73
7938.17
7939.57
7940.93
7942.28
7943.59
7944.85
7946.06
7947.23
7948.39
7949.49
7950.53
7951.51
7952.44
7953.34
7954.18
7954.95
7955.66
7956.3
7956.9
7957.44
7957.91
7958.31
7958.64
7958.9
7959.1
7959.24
7959.3
7959.3
7959.23
7959.09
7958.88
7958.6
7958.26
7957.87
7957.41
7956.88
7956.28
7955.62
7954.93
7954.17
7953.35
7952.49
7951.57
7950.6
7949.58
7948.53
7947.45
7946.33
7945.18
7943.99
7942.77
7941.53
7940.26
7938.97
7937.67
7936.35
7935.02
7933.68
7932.33
7930.97
7929.61
7928.25
7926.89
7925.54
7924.18
7922.83
7921.49
7920.16
7918.84
7917.54
7916.25
7914.97
7913.71
7912.46
7911.23
7910.02
7908.84
7907.67
7906.52
7905.39
7904.28
7903.19
7902.12
7901.08
7900.05
7899.04
7898.05
7897.09
7896.15
7895.23
7894.32
7893.44
7892.57
7891.73
7890.91
7890.09
7889.3
7888.53
7887.78
7887.04
7886.32
7885.6
7884.9
7884.22
7883.56
7882.9
7882.25
7881.61
7880.99
7880.37
7879.77
7879.18
7878.59
7878.01
7877.42
7876.85
7876.3
7875.76
7875.23
7874.69
7874.17
7873.63
7873.1
7872.56
7872.03
7871.5
7870.98
7870.45
7869.93
7869.4
7868.88
7868.35
7867.85
7867.34
7866.85
7866.32
7865.83
7865.33
7864.84
7864.35
7863.87
7863.38
7862.91
7862.44
7861.97
7861.51
7861.04
7860.6
7860.13
7859.72
7859.29
7858.88
7858.43
7858.03
7857.46
7857.21
7856.96
7856.68
7856.37
7856.07
7855.78
7855.5
7855.23
7854.97
7854.71
7854.47
7854.24
7854.02
7853.8
7853.6
7853.4
7853.21
7853.03
7852.85
7852.69
7852.53
7852.38
7852.24
7852.1
7851.98
7851.86
7851.75
7851.64
7851.54
7851.45
7851.37
7851.3
7851.23
7851.16
7851.1
7851.05
7851
7850.95
7850.91
7850.88
7850.84
7850.81
7850.78
7850.75
7850.72
7850.69
7850.66
7850.63
7850.6
7850.57
7850.54
7850.5
7850.46
7850.41
7850.37
7850.32
7850.26
7850.2
7850.14
7850.07
7850
7849.93
7849.85
7849.77
7849.68
7849.59
7849.5
7849.41
7849.31
7849.21
7849.11
7849.01
7848.91
7848.81
7848.72
7848.62
7848.53
7848.43
7848.35
7848.26
7848.18
7848.11
7848.04
7847.97
7847.92
7847.87
7847.83
7847.79
7847.77
7847.76
7847.75
7847.75
7847.76
7847.78
7847.82
7847.85
7847.93
7921.69
7928.49
7932.59
7936.73
7941.11
7945.57
7949.93
7954.27
7958.59
7962.92
7967.24
7971.51
7975.91
7980.42
7984.82
7989.2
7993.58
7997.97
8002.4
8006.86
8011.36
8015.87
8020.37
8024.84
8029.24
8033.45
8037.45
8041.83
8046.24
8050.43
8054.53
8058.58
8062.48
8065.91
8069.7
8073.62
8077.6
8081.82
8085.58
8088.99
8092.28
8095.46
8098.54
8101.49
8104.33
8107.05
8109.66
8112.15
8114.52
8116.76
8118.82
8120.72
8122.61
8124.4
8126.03
8127.51
8128.86
8130.08
8131.14
8132.06
8132.82
8133.44
8133.9
8134.19
8134.12
8133.42
8133.3
8133.53
8133.32
8132.72
8131.96
8131.04
8129.95
8128.68
8126.95
8125.22
8123.59
8122.04
8120.12
8117.94
8115.57
8113.04
8110.35
8107.5
8104.42
8100.92
8097.58
8094.35
8091.04
8087.22
8083.26
8079.3
8075.24
8070.63
8066.13
8062.78
8059.63
8052.73
8040.36
8038.4
8030.45
8024.01
8016.82
8009.37
8001.46
7994.14
7985.58
7977.31
7968.78
7960.04
7950.83
7941.79
7932.48
7922.13
7911.76
7901.42
7890.65
7882.88
7871.91
7855.63
7842.61
7830.14
7817.42
7805.14
7792.46
7779.46
7766.63
7753.89
7741.06
7728.27
7715.38
7703.21
7690.59
7678.75
7667.06
7656.91
7645.31
7632.2
7621.24
7611.1
7600.8
7590.92
7581.27
7571.77
7562.56
7554.01
7545.92
7538
7530.29
7522.84
7515.52
7508.72
7502.34
7496.06
7490
7484.19
7478.55
7473.12
7468.11
7463.32
7458.69
7454.31
7450.17
7446.24
7442.62
7439.41
7436.42
7433.72
7431.32
7429.19
7427.48
7426.14
7425.05
7424.3
7423.82
7423.63
7423.88
7424.67
7425.59
7426.81
7428.31
7430.03
7432.11
7434.72
7437.54
7440.57
7443.78
7447.19
7450.96
7455.05
7459.48
7463.99
7468.69
7473.59
7478.59
7483.74
7489.17
7494.76
7500.5
7506.5
7512.6
7518.71
7524.93
7531.23
7537.56
7543.94
7550.49
7557.11
7563.88
7570.6
7577.32
7584.04
7590.81
7597.57
7604.32
7610.97
7617.68
7624.39
7631.17
7637.86
7644.48
7651
7657.53
7664.01
7670.4
7676.69
7682.99
7689.28
7695.44
7701.47
7707.37
7713.26
7719.14
7724.97
7730.66
7736.25
7741.73
7747.07
7752.36
7757.71
7762.9
7767.98
7772.96
7777.81
7782.57
7787.33
7792.06
7796.65
7801.14
7805.54
7809.84
7814.02
7818.17
7822.3
7826.38
7830.32
7834.19
7837.96
7841.62
7845.27
7848.89
7852.4
7855.83
7859.15
7862.39
7865.62
7868.83
7871.94
7874.96
7877.91
7880.77
7883.57
7886.34
7889.08
7891.73
7894.3
7896.82
7899.27
7901.65
7903.95
7906.25
7908.5
7910.68
7912.8
7914.85
7916.86
7918.77
7920.68
7922.56
7924.38
7926.15
7927.86
7929.52
7931.12
7932.73
7934.31
7935.83
7937.31
7938.75
7940.16
7941.54
7942.88
7944.18
7945.42
7946.65
7947.84
7948.98
7950.08
7951.12
7952.11
7953.05
7953.94
7954.77
7955.54
7956.26
7956.93
7957.53
7958.07
7958.53
7958.93
7959.27
7959.55
7959.75
7959.88
7959.95
7959.94
7959.87
7959.73
7959.52
7959.24
7958.9
7958.48
7958.01
7957.47
7956.87
7956.21
7955.5
7954.72
7953.89
7953
7952.06
7951.09
7950.07
7949
7947.89
7946.75
7945.57
7944.37
7943.13
7941.86
7940.58
7939.27
7937.94
7936.6
7935.26
7933.9
7932.53
7931.15
7929.77
7928.4
7927.02
7925.65
7924.28
7922.92
7921.57
7920.22
7918.89
7917.57
7916.27
7914.98
7913.71
7912.45
7911.22
7910
7908.81
7907.63
7906.47
7905.34
7904.23
7903.14
7902.07
7901.02
7899.99
7898.98
7897.99
7897.03
7896.08
7895.16
7894.25
7893.37
7892.51
7891.66
7890.83
7890.02
7889.23
7888.47
7887.71
7886.97
7886.25