/*--------------------------------*- C++ -*----------------------------------*\
| =========                 |                                                 |
| \\      /  F ield         | OpenFOAM: The Open Source CFD Toolbox           |
|  \\    /   O peration     | Version:  v2006                                 |
|   \\  /    A nd           | Website:  www.openfoam.com                      |
|    \\/     M anipulation  |                                                 |
\*---------------------------------------------------------------------------*/
FoamFile
{
    version     2.0;
    format      ascii;
    class       surfaceScalarField;
    location    "6.2";
    object      alphaPhi0.water;
}
// * * * * * * * * * * * * * * * * * * * * * * * * * * * * * * * * * * * * * //

dimensions      [0 3 -1 0 0 0 0];
oriented        oriented;


internalField   nonuniform List<scalar> 
65390
(
-6.36426e-06
1.91764e-06
-2.35442e-06
-4.00972e-06
2.33034e-06
-4.68464e-06
7.52533e-06
-5.19489e-06
1.19402e-05
-4.41478e-06
1.58202e-05
-3.87988e-06
1.88479e-05
-3.02765e-06
2.1365e-05
-2.5171e-06
2.39074e-05
-2.54234e-06
2.66994e-05
-2.79192e-06
2.97439e-05
-3.04448e-06
3.25097e-05
-2.76575e-06
3.43726e-05
-1.86293e-06
3.43363e-05
3.63131e-08
3.19267e-05
2.40957e-06
2.75404e-05
4.38628e-06
2.18945e-05
5.64586e-06
1.49119e-05
6.98257e-06
5.48128e-06
9.43053e-06
-4.82648e-06
1.0308e-05
-1.0991e-05
6.16548e-06
-1.43562e-05
3.36516e-06
-1.73724e-05
3.01206e-06
-2.01048e-05
2.73151e-06
-2.19242e-05
1.81929e-06
-2.35415e-05
1.61718e-06
-2.56029e-05
2.06136e-06
-2.78437e-05
2.24368e-06
-3.02218e-05
2.38488e-06
-3.25672e-05
2.34911e-06
-3.46161e-05
2.0526e-06
-3.64725e-05
1.86339e-06
-3.84463e-05
1.96374e-06
-4.02759e-05
1.81195e-06
-4.14766e-05
1.19819e-06
-4.21934e-05
7.16327e-07
-4.30446e-05
8.5235e-07
-4.43982e-05
1.36515e-06
-4.63778e-05
1.99129e-06
-4.86345e-05
2.25675e-06
-5.04303e-05
1.77027e-06
-5.14466e-05
1.01337e-06
-5.21291e-05
6.82376e-07
-5.28251e-05
6.96069e-07
-5.38433e-05
1.02077e-06
-5.53129e-05
1.48004e-06
-5.70477e-05
1.74352e-06
-5.8585e-05
1.53219e-06
-5.96734e-05
1.07221e-06
-6.04128e-05
7.37555e-07
-6.0959e-05
5.462e-07
-6.14979e-05
5.40141e-07
-6.19794e-05
4.80806e-07
-6.22973e-05
3.16682e-07
-6.25679e-05
2.7055e-07
-6.3068e-05
5.00114e-07
-6.39857e-05
9.22386e-07
-6.51783e-05
1.20456e-06
-6.63132e-05
1.14287e-06
-6.71757e-05
8.62454e-07
-6.77673e-05
5.75352e-07
-6.83005e-05
5.31222e-07
-6.89741e-05
6.71591e-07
-6.97688e-05
7.91526e-07
-7.02903e-05
5.18671e-07
-7.01383e-05
-1.52563e-07
-6.92437e-05
-8.94545e-07
-6.78831e-05
-1.36064e-06
-6.63703e-05
-1.51273e-06
-6.46393e-05
-1.728e-06
-6.25869e-05
-2.03921e-06
-6.01252e-05
-2.44688e-06
-5.69298e-05
-3.19547e-06
-5.26697e-05
-4.26007e-06
-4.74122e-05
-5.25746e-06
-4.14798e-05
-5.93481e-06
-3.53581e-05
-6.13557e-06
-2.87793e-05
-6.58292e-06
-2.3598e-05
-5.18286e-06
-2.11442e-05
-2.45609e-06
-2.15449e-05
3.99746e-07
-2.37735e-05
2.22864e-06
-2.56829e-05
1.90933e-06
-2.76816e-05
1.99911e-06
-2.98756e-05
2.19598e-06
-3.05717e-05
6.99157e-07
-3.08699e-05
2.93225e-07
-3.11169e-05
2.4729e-07
-3.1344e-05
2.29038e-07
-3.13498e-05
1.31652e-08
-3.13275e-05
-2.22996e-08
-3.11908e-05
-1.38832e-07
-3.0572e-05
-6.26201e-07
-2.96907e-05
-8.81278e-07
-2.82383e-05
-1.45237e-06
-2.61014e-05
-2.13692e-06
-2.31135e-05
-2.98736e-06
-1.98931e-05
-3.22092e-06
-1.65591e-05
-3.33375e-06
-1.4699e-05
-1.85802e-06
-1.43943e-05
-3.0293e-07
-1.45287e-05
1.34433e-07
-1.51311e-05
6.02437e-07
-1.5591e-05
4.59877e-07
-1.63383e-05
7.43967e-07
-1.67359e-05
3.97596e-07
-1.67969e-05
6.102e-08
-1.68691e-05
7.22507e-08
-1.70235e-05
1.56019e-07
-1.72187e-05
1.97328e-07
-1.7371e-05
1.52357e-07
-1.75166e-05
1.41755e-07
-1.74725e-05
-4.47113e-08
-1.71804e-05
-2.91852e-07
-1.65159e-05
-6.63846e-07
-1.55813e-05
-9.33e-07
-1.42231e-05
-1.35825e-06
-1.33699e-05
-8.53205e-07
-1.32854e-05
-8.62173e-08
-1.34102e-05
1.24639e-07
-1.3712e-05
3.0162e-07
-1.39248e-05
2.13833e-07
-1.43616e-05
4.38585e-07
-1.47047e-05
3.43129e-07
-1.48892e-05
1.81727e-07
-1.50973e-05
2.08011e-07
-1.52853e-05
1.87999e-07
-1.54689e-05
1.83581e-07
-1.56911e-05
2.22522e-07
-1.58875e-05
1.9687e-07
-1.60528e-05
1.66387e-07
-1.62167e-05
1.63813e-07
-1.63604e-05
1.43824e-07
-1.65114e-05
1.48869e-07
-1.66569e-05
1.45476e-07
-1.68023e-05
1.45324e-07
-1.69454e-05
1.43094e-07
-1.70778e-05
1.32445e-07
-1.72071e-05
1.2924e-07
-1.73247e-05
1.17606e-07
-1.74373e-05
1.14615e-07
-1.75466e-05
1.10999e-07
-1.765e-05
1.03426e-07
-1.77437e-05
9.36513e-08
-1.78302e-05
8.30791e-08
-1.78993e-05
6.90938e-08
-1.79581e-05
5.88246e-08
-1.80108e-05
5.26431e-08
-1.80564e-05
4.75149e-08
-1.80938e-05
4.17037e-08
-1.81305e-05
2.99463e-08
-1.8144e-05
1.34714e-08
-1.81472e-05
3.16151e-09
-1.81444e-05
-2.75986e-09
-1.81336e-05
-8.90999e-09
-1.81174e-05
-1.61992e-08
-1.80903e-05
-2.7033e-08
-1.80557e-05
-3.64989e-08
-1.80115e-05
-4.46582e-08
-1.79581e-05
-5.34397e-08
-1.78963e-05
-6.18506e-08
-1.78254e-05
-7.08286e-08
-1.77468e-05
-7.8034e-08
-1.76633e-05
-8.31153e-08
-1.75723e-05
-9.16949e-08
-1.74679e-05
-1.04427e-07
-1.73543e-05
-1.13552e-07
-1.72363e-05
-1.1753e-07
-1.71144e-05
-1.21878e-07
-1.69821e-05
-1.33083e-07
-1.68356e-05
-1.46527e-07
-1.66804e-05
-1.55113e-07
-1.65209e-05
-1.58878e-07
-1.63572e-05
-1.63122e-07
-1.61866e-05
-1.71599e-07
-1.60012e-05
-1.85364e-07
-1.58054e-05
-1.95872e-07
-1.56034e-05
-2.01747e-07
-1.53938e-05
-2.08088e-07
-1.51766e-05
-2.17207e-07
-1.49502e-05
-2.26338e-07
-1.47187e-05
-2.3158e-07
-1.44833e-05
-2.36815e-07
-1.42369e-05
-2.46467e-07
-1.39773e-05
-2.59574e-07
-1.37028e-05
-2.74124e-07
-1.34193e-05
-2.82605e-07
-1.31319e-05
-2.87413e-07
-1.28389e-05
-2.93196e-07
-1.25391e-05
-3.00943e-07
-1.22256e-05
-3.13483e-07
-1.18995e-05
-3.26108e-07
-1.15601e-05
-3.38879e-07
-1.12113e-05
-3.47938e-07
-1.08584e-05
-3.52853e-07
-1.04971e-05
-3.61269e-07
-1.01268e-05
-3.71624e-07
-9.74196e-06
-3.84968e-07
-9.33866e-06
-4.03306e-07
-8.91997e-06
-4.18688e-07
-8.49278e-06
-4.27054e-07
-8.06443e-06
-4.27707e-07
-7.63254e-06
-4.3189e-07
-7.18932e-06
-4.43219e-07
-6.73083e-06
-4.58975e-07
-6.25618e-06
-4.74796e-07
-5.77477e-06
-4.81402e-07
-5.29376e-06
-4.8092e-07
-4.81415e-06
-4.79546e-07
-4.32965e-06
-4.84455e-07
-3.83607e-06
-4.93702e-07
-3.3416e-06
-4.94468e-07
-2.85923e-06
-4.82205e-07
-2.39175e-06
-4.67356e-07
-1.92484e-06
-4.67107e-07
-1.45587e-06
-4.69033e-07
-9.93452e-07
-4.6245e-07
-5.44164e-07
-4.4928e-07
-1.18024e-07
-4.26128e-07
2.85025e-07
-4.03064e-07
6.74969e-07
-3.89917e-07
1.05837e-06
-3.8336e-07
1.43551e-06
-3.77146e-07
1.80185e-06
-3.66355e-07
2.15342e-06
-3.51661e-07
2.48594e-06
-3.32647e-07
2.80525e-06
-3.19307e-07
3.11668e-06
-3.11199e-07
3.42119e-06
-3.04467e-07
3.72062e-06
-2.9943e-07
4.01247e-06
-2.91857e-07
4.29241e-06
-2.8015e-07
4.55911e-06
-2.66659e-07
4.81815e-06
-2.58995e-07
5.07228e-06
-2.54037e-07
5.32046e-06
-2.48145e-07
5.5631e-06
-2.42773e-07
5.79974e-06
-2.36646e-07
6.02866e-06
-2.28909e-07
6.2509e-06
-2.22039e-07
6.46687e-06
-2.15927e-07
6.67567e-06
-2.08786e-07
6.87743e-06
-2.02038e-07
7.07458e-06
-1.96984e-07
7.26825e-06
-1.93439e-07
7.45864e-06
-1.90387e-07
7.64484e-06
-1.86204e-07
7.82469e-06
-1.79853e-07
7.99506e-06
-1.70612e-07
8.16202e-06
-1.668e-07
8.32807e-06
-1.65921e-07
8.49056e-06
-1.62499e-07
8.64836e-06
-1.57796e-07
8.80092e-06
-1.5256e-07
8.94704e-06
-1.4645e-07
9.08941e-06
-1.42368e-07
9.22886e-06
-1.3918e-07
9.36451e-06
-1.35521e-07
9.49642e-06
-1.31905e-07
9.62382e-06
-1.27403e-07
9.74618e-06
-1.22538e-07
9.86437e-06
-1.1815e-07
9.97893e-06
-1.14522e-07
1.00907e-05
-1.11566e-07
1.01987e-05
-1.08029e-07
1.03015e-05
-1.02806e-07
1.03976e-05
-9.63196e-08
1.04884e-05
-9.08631e-08
1.05764e-05
-8.78227e-08
1.06617e-05
-8.52328e-08
1.07428e-05
-8.11009e-08
1.08193e-05
-7.64321e-08
1.08904e-05
-7.11391e-08
1.09547e-05
-6.47667e-08
1.10143e-05
-5.93327e-08
1.10695e-05
-5.499e-08
1.112e-05
-5.0491e-08
1.11657e-05
-4.57566e-08
1.12065e-05
-4.07528e-08
1.12424e-05
-3.58534e-08
1.12733e-05
-3.09686e-08
1.1298e-05
-2.4786e-08
1.13157e-05
-1.76488e-08
1.13282e-05
-1.24763e-08
1.13366e-05
-8.29816e-09
1.13399e-05
-3.2399e-09
1.13375e-05
2.35717e-09
1.13296e-05
7.92437e-09
1.13157e-05
1.37915e-08
1.12954e-05
2.02187e-08
1.12694e-05
2.59857e-08
1.12386e-05
3.09608e-08
1.12026e-05
3.6041e-08
1.11614e-05
4.12446e-08
1.11147e-05
4.66474e-08
1.10616e-05
5.2903e-08
1.10029e-05
5.87125e-08
1.09392e-05
6.37601e-08
1.08704e-05
6.88554e-08
1.07969e-05
7.3449e-08
1.07186e-05
7.82553e-08
1.06342e-05
8.41762e-08
1.05449e-05
8.93064e-08
1.04513e-05
9.36692e-08
1.03534e-05
9.79049e-08
1.02509e-05
1.02421e-07
1.01438e-05
1.0709e-07
1.00324e-05
1.11367e-07
9.91741e-06
1.15025e-07
9.79926e-06
1.18141e-07
9.67738e-06
1.2186e-07
9.55088e-06
1.26344e-07
9.42068e-06
1.30255e-07
9.2879e-06
1.32794e-07
9.15306e-06
1.34834e-07
9.0154e-06
1.37624e-07
8.8745e-06
1.40869e-07
8.73116e-06
1.43359e-07
8.58563e-06
1.45552e-07
8.43812e-06
1.47525e-07
8.28843e-06
1.49699e-07
8.13584e-06
1.52574e-07
7.981e-06
1.5486e-07
7.82466e-06
1.56393e-07
7.66648e-06
1.58223e-07
7.5055e-06
1.61006e-07
7.3411e-06
1.64401e-07
7.17434e-06
1.66787e-07
7.00586e-06
1.68542e-07
6.83528e-06
1.70642e-07
6.66155e-06
1.73774e-07
6.48342e-06
1.78124e-07
6.30183e-06
1.81657e-07
6.11816e-06
1.83731e-07
5.93306e-06
1.85143e-07
5.74626e-06
1.86841e-07
5.55731e-06
1.88981e-07
5.36602e-06
1.91298e-07
5.17231e-06
1.93727e-07
4.97712e-06
1.95209e-07
4.7813e-06
1.95826e-07
4.58491e-06
1.96385e-07
4.38796e-06
1.96934e-07
4.18977e-06
1.98158e-07
3.99043e-06
1.99298e-07
3.79149e-06
1.98909e-07
3.59371e-06
1.97756e-07
3.39704e-06
1.96627e-07
3.20089e-06
1.96101e-07
3.00487e-06
1.95949e-07
2.80975e-06
1.95075e-07
2.61688e-06
1.92814e-07
2.42648e-06
1.90343e-07
2.23744e-06
1.88974e-07
2.05007e-06
1.87327e-07
1.86543e-06
1.84605e-07
1.68365e-06
1.81752e-07
1.50469e-06
1.78944e-07
1.32869e-06
1.75993e-07
1.15594e-06
1.72759e-07
9.86593e-07
1.69368e-07
8.20784e-07
1.65841e-07
6.5864e-07
1.62187e-07
5.00011e-07
1.58681e-07
3.45035e-07
1.55033e-07
1.94024e-07
1.51071e-07
4.75158e-08
1.46568e-07
-9.44727e-08
1.42043e-07
-2.32041e-07
1.37615e-07
-3.65552e-07
1.33546e-07
-4.94965e-07
1.29436e-07
-6.19934e-07
1.2498e-07
-7.40165e-07
1.20231e-07
-8.55802e-07
1.15629e-07
-9.67209e-07
1.11393e-07
-1.07436e-06
1.07134e-07
-1.17713e-06
1.0275e-07
-1.27558e-06
9.84293e-08
-1.36992e-06
9.4334e-08
-1.46016e-06
9.0224e-08
-1.54581e-06
8.56378e-08
-1.62665e-06
8.08253e-08
-1.70279e-06
7.61315e-08
-1.77459e-06
7.18014e-08
-1.84211e-06
6.75149e-08
-1.90539e-06
6.32723e-08
-1.96458e-06
5.91761e-08
-2.01924e-06
5.46555e-08
-2.06931e-06
5.00628e-08
-2.11508e-06
4.57633e-08
-2.15703e-06
4.19425e-08
-2.19483e-06
3.78077e-08
-2.22823e-06
3.33939e-08
-2.25731e-06
2.90777e-08
-2.28247e-06
2.51615e-08
-2.30354e-06
2.10663e-08
-2.32082e-06
1.72912e-08
-2.33467e-06
1.38624e-08
-2.34501e-06
1.0345e-08
-2.3517e-06
6.69384e-09
-2.35451e-06
2.82188e-09
-2.35347e-06
-1.03982e-09
-2.34902e-06
-4.4331e-09
-2.34156e-06
-7.45212e-09
-2.33081e-06
-1.07375e-08
-2.31745e-06
-1.33576e-08
-2.30023e-06
-1.7215e-08
-2.27997e-06
-2.02582e-08
-2.25609e-06
-2.38844e-08
-2.22969e-06
-2.63921e-08
-2.20114e-06
-2.85562e-08
-2.17004e-06
-3.10956e-08
-2.13777e-06
-3.22669e-08
-2.10137e-06
-3.64083e-08
-2.06361e-06
-3.77588e-08
-2.02422e-06
-3.93886e-08
-1.9829e-06
-4.13237e-08
-1.94325e-06
-3.96566e-08
-1.90451e-06
-3.87415e-08
-1.85755e-06
-4.69566e-08
-1.81121e-06
-4.6342e-08
-1.7625e-06
-4.87162e-08
-1.70824e-06
-5.42609e-08
-1.679e-06
-2.92477e-08
-1.65488e-06
-2.41238e-08
-1.60099e-06
-5.38902e-08
-1.562e-06
-3.8987e-08
-1.48007e-06
-8.19334e-08
-1.3747e-06
-1.05379e-07
-1.16189e-06
-2.1281e-07
-8.86755e-07
-2.75133e-07
-6.86065e-07
-2.00691e-07
-5.23604e-07
-1.62462e-07
-4.00675e-07
-1.2293e-07
-3.00344e-07
-1.00333e-07
-2.13165e-07
-8.71811e-08
-1.2606e-07
-8.71065e-08
-4.18706e-08
-8.41919e-08
3.99536e-08
-8.18267e-08
1.14889e-07
-7.49384e-08
1.96684e-07
-8.1797e-08
2.32097e-07
-3.54157e-08
2.48145e-07
-1.6051e-08
3.08614e-07
-6.04707e-08
3.48488e-07
-3.98759e-08
4.49315e-07
-1.0083e-07
5.87767e-07
-1.38453e-07
8.99327e-07
-3.11562e-07
1.3175e-06
-4.18174e-07
1.63377e-06
-3.16271e-07
1.90095e-06
-2.67179e-07
2.0844e-06
-1.83454e-07
2.2436e-06
-1.592e-07
2.37301e-06
-1.29417e-07
2.4868e-06
-1.13789e-07
2.57942e-06
-9.26245e-08
2.6484e-06
-6.89784e-08
2.71658e-06
-6.81842e-08
2.77968e-06
-6.31058e-08
2.8323e-06
-5.2622e-08
2.91295e-06
-8.06516e-08
2.94675e-06
-3.37952e-08
2.89889e-06
4.78544e-08
2.90097e-06
-2.0805e-09
2.8516e-06
4.93695e-08
2.86457e-06
-1.29799e-08
3.05519e-06
-1.90629e-07
3.47254e-06
-4.17366e-07
4.17085e-06
-6.98325e-07
5.04998e-06
-8.79157e-07
5.89613e-06
-8.46232e-07
6.605e-06
-7.09109e-07
7.13508e-06
-5.30122e-07
7.53606e-06
-4.01028e-07
7.85399e-06
-3.17905e-07
8.12025e-06
-2.66282e-07
8.34621e-06
-2.26003e-07
8.54109e-06
-1.94911e-07
8.71236e-06
-1.71294e-07
8.87009e-06
-1.57686e-07
9.01465e-06
-1.44554e-07
9.14553e-06
-1.30889e-07
9.26871e-06
-1.23178e-07
9.38406e-06
-1.15324e-07
9.49083e-06
-1.06747e-07
9.5946e-06
-1.03749e-07
9.69262e-06
-9.80157e-08
9.78443e-06
-9.18004e-08
9.87121e-06
-8.67474e-08
9.95818e-06
-8.69525e-08
1.00417e-05
-8.35684e-08
1.01194e-05
-7.76375e-08
1.01926e-05
-7.3213e-08
1.02637e-05
-7.10459e-08
1.03333e-05
-6.96533e-08
1.04011e-05
-6.77877e-08
1.04665e-05
-6.5354e-08
1.05301e-05
-6.36005e-08
1.05911e-05
-6.10789e-08
1.06507e-05
-5.95959e-08
1.07055e-05
-5.47509e-08
1.07594e-05
-5.38857e-08
1.08152e-05
-5.5801e-08
1.08718e-05
-5.66834e-08
1.0928e-05
-5.62014e-08
1.09827e-05
-5.46473e-08
1.10354e-05
-5.27066e-08
1.10862e-05
-5.08483e-08
1.11356e-05
-4.9339e-08
1.1184e-05
-4.84042e-08
1.12314e-05
-4.74152e-08
1.12776e-05
-4.62251e-08
1.13218e-05
-4.41526e-08
1.13675e-05
-4.5692e-08
1.14119e-05
-4.44206e-08
1.14523e-05
-4.03721e-08
1.149e-05
-3.77249e-08
1.15267e-05
-3.66928e-08
1.15629e-05
-3.62101e-08
1.15991e-05
-3.62036e-08
1.16354e-05
-3.62099e-08
1.16714e-05
-3.6018e-08
1.1707e-05
-3.5609e-08
1.17419e-05
-3.49031e-08
1.17758e-05
-3.39438e-08
1.18088e-05
-3.29602e-08
1.1841e-05
-3.22423e-08
1.18731e-05
-3.20291e-08
1.19051e-05
-3.19802e-08
1.19367e-05
-3.1636e-08
1.19674e-05
-3.07342e-08
1.19968e-05
-2.93617e-08
1.20252e-05
-2.84427e-08
1.20537e-05
-2.84636e-08
1.20826e-05
-2.889e-08
1.21112e-05
-2.86395e-08
1.21385e-05
-2.72397e-08
1.21649e-05
-2.63974e-08
1.21912e-05
-2.63339e-08
1.22186e-05
-2.73622e-08
1.22434e-05
-2.4828e-08
1.22691e-05
-2.56855e-08
1.22976e-05
-2.84856e-08
1.23306e-05
-3.30365e-08
1.23624e-05
-3.18319e-08
1.23918e-05
-2.93879e-08
1.24196e-05
-2.77868e-08
1.24472e-05
-2.76298e-08
1.24755e-05
-2.82481e-08
-3.20577e-08
1.06526e-06
-3.56882e-06
5.81672e-06
-8.76122e-06
8.18415e-06
-7.05209e-06
1.00604e-05
-7.07114e-06
1.14207e-05
-5.77506e-06
1.21987e-05
-4.65784e-06
1.26519e-05
-3.48083e-06
1.26954e-05
-2.56051e-06
1.2424e-05
-2.27095e-06
1.20025e-05
-2.37036e-06
1.13926e-05
-2.43459e-06
1.06797e-05
-2.05289e-06
9.4317e-06
-6.14924e-07
7.37901e-06
2.089e-06
4.07617e-06
5.71239e-06
-3.95297e-07
8.85771e-06
-5.23971e-06
1.04903e-05
-9.17481e-06
1.09176e-05
-1.11642e-05
1.14201e-05
-1.16955e-05
1.08407e-05
-1.31583e-05
7.6298e-06
-1.58995e-05
6.10642e-06
-1.86753e-05
5.78339e-06
-2.08456e-05
4.90096e-06
-2.28291e-05
3.8027e-06
-2.47974e-05
3.58537e-06
-2.66531e-05
3.92107e-06
-2.85773e-05
4.17975e-06
-3.07086e-05
4.51619e-06
-3.29535e-05
4.59398e-06
-3.51465e-05
4.23622e-06
-3.70736e-05
3.7937e-06
-3.86586e-05
3.54845e-06
-4.00129e-05
3.16504e-06
-4.12382e-05
2.40563e-06
-4.24457e-05
1.92335e-06
-4.36908e-05
2.10852e-06
-4.50303e-05
2.72223e-06
-4.64558e-05
3.4168e-06
-4.78896e-05
3.69056e-06
-4.93893e-05
3.24477e-06
-5.07211e-05
2.33708e-06
-5.17352e-05
1.6959e-06
-5.27062e-05
1.67154e-06
-5.38149e-05
2.15313e-06
-5.50925e-05
2.75766e-06
-5.64923e-05
3.1433e-06
-5.79855e-05
3.01991e-06
-5.93701e-05
2.43255e-06
-6.04661e-05
1.83164e-06
-6.1269e-05
1.34882e-06
-6.18842e-05
1.15528e-06
-6.24715e-05
1.06796e-06
-6.30881e-05
9.33767e-07
-6.37376e-05
9.29096e-07
-6.44971e-05
1.29052e-06
-6.52933e-05
1.7186e-06
-6.59335e-05
1.8448e-06
-6.63934e-05
1.60271e-06
-6.67419e-05
1.21105e-06
-6.725e-05
1.05495e-06
-6.79441e-05
1.22317e-06
-6.87693e-05
1.51971e-06
-6.95511e-05
1.57335e-06
-7.01723e-05
1.10602e-06
-7.04342e-05
1.04014e-07
-7.0249e-05
-1.07979e-06
-6.9779e-05
-1.82968e-06
-6.91069e-05
-2.17088e-06
-6.8452e-05
-2.36468e-06
-6.79988e-05
-2.49241e-06
-6.76356e-05
-2.8101e-06
-6.70402e-05
-3.79084e-06
-6.60725e-05
-5.2568e-06
-6.44381e-05
-6.89633e-06
-6.19299e-05
-8.44346e-06
-5.82972e-05
-9.76834e-06
-5.40802e-05
-1.07999e-05
-4.8757e-05
-1.05061e-05
-4.2827e-05
-8.38616e-06
-3.56605e-05
-6.76682e-06
-2.88551e-05
-4.57666e-06
-2.56177e-05
-1.32808e-06
-2.55484e-05
1.92991e-06
-2.66789e-05
3.32814e-06
-2.79285e-05
1.9516e-06
-2.94023e-05
1.76464e-06
-3.10707e-05
1.91381e-06
-3.20648e-05
1.22642e-06
-3.21285e-05
8.1341e-08
-3.18729e-05
-2.77886e-07
-3.18047e-05
-2.13441e-07
-3.16186e-05
-8.14897e-07
-3.15435e-05
-9.56406e-07
-3.1499e-05
-1.49645e-06
-3.13746e-05
-2.25826e-06
-3.13723e-05
-2.98973e-06
-3.09521e-05
-3.64343e-06
-2.97924e-05
-4.49478e-06
-2.71622e-05
-4.48551e-06
-2.3672e-05
-3.79133e-06
-1.99139e-05
-3.62366e-06
-1.74913e-05
-1.82015e-06
-1.65335e-05
-4.99897e-07
-1.58767e-05
8.57525e-08
-1.58858e-05
4.06638e-07
-1.61327e-05
3.07993e-07
-1.66011e-05
5.42561e-07
-1.72919e-05
8.498e-07
-1.76864e-05
5.91923e-07
-1.76631e-05
1.29005e-07
-1.76809e-05
1.59565e-07
-1.77363e-05
5.40264e-09
-1.78217e-05
-2.06944e-07
-1.80326e-05
-4.52904e-07
-1.81539e-05
-8.09709e-07
-1.83006e-05
-1.21154e-06
-1.79335e-05
-1.22026e-06
-1.69909e-05
-1.03072e-06
-1.56293e-05
-1.23718e-06
-1.46626e-05
-6.62992e-07
-1.4426e-05
-2.1125e-08
-1.43178e-05
3.30406e-07
-1.44489e-05
4.74181e-07
-1.46587e-05
3.89675e-07
-1.50895e-05
6.36903e-07
-1.54172e-05
5.15637e-07
-1.55637e-05
3.30043e-07
-1.57124e-05
3.72585e-07
-1.58612e-05
3.46606e-07
-1.60263e-05
3.31416e-07
-1.62255e-05
3.63185e-07
-1.63955e-05
3.13575e-07
-1.65358e-05
2.88464e-07
-1.66742e-05
2.81933e-07
-1.68049e-05
2.7602e-07
-1.6942e-05
2.80185e-07
-1.70768e-05
2.6689e-07
-1.72133e-05
2.65784e-07
-1.7337e-05
2.42742e-07
-1.74495e-05
2.29529e-07
-1.75584e-05
2.19929e-07
-1.76585e-05
2.0357e-07
-1.77512e-05
1.86337e-07
-1.78341e-05
1.65845e-07
-1.7908e-05
1.39773e-07
-1.79701e-05
1.20832e-07
-1.80258e-05
1.09858e-07
-1.80719e-05
9.59823e-08
-1.81091e-05
7.87499e-08
-1.81349e-05
5.40708e-08
-1.81512e-05
2.69954e-08
-1.81575e-05
9.45124e-09
-1.81583e-05
-1.74082e-09
-1.8149e-05
-1.60756e-08
-1.81307e-05
-3.45738e-08
-1.80996e-05
-5.81332e-08
-1.806e-05
-7.61052e-08
-1.80172e-05
-8.95372e-08
-1.79667e-05
-1.04684e-07
-1.79069e-05
-1.2162e-07
-1.78372e-05
-1.40465e-07
-1.77585e-05
-1.55469e-07
-1.76723e-05
-1.67694e-07
-1.75806e-05
-1.85864e-07
-1.74764e-05
-2.08897e-07
-1.73636e-05
-2.26012e-07
-1.72448e-05
-2.34935e-07
-1.71203e-05
-2.46311e-07
-1.69879e-05
-2.67352e-07
-1.68424e-05
-2.92009e-07
-1.66874e-05
-3.09227e-07
-1.65268e-05
-3.18121e-07
-1.63604e-05
-3.2954e-07
-1.61867e-05
-3.46742e-07
-1.60029e-05
-3.69552e-07
-1.5808e-05
-3.89659e-07
-1.56058e-05
-4.04131e-07
-1.53948e-05
-4.18915e-07
-1.51745e-05
-4.37973e-07
-1.49466e-05
-4.53618e-07
-1.47137e-05
-4.63596e-07
-1.44741e-05
-4.7648e-07
-1.42252e-05
-4.95354e-07
-1.39672e-05
-5.19706e-07
-1.36944e-05
-5.47202e-07
-1.34111e-05
-5.65691e-07
-1.31192e-05
-5.79056e-07
-1.28185e-05
-5.91984e-07
-1.25165e-05
-6.04305e-07
-1.22062e-05
-6.2466e-07
-1.1884e-05
-6.48264e-07
-1.15482e-05
-6.74785e-07
-1.11974e-05
-6.97918e-07
-1.08359e-05
-7.13864e-07
-1.04674e-05
-7.29772e-07
-1.0093e-05
-7.45985e-07
-9.71037e-06
-7.68693e-07
-9.31193e-06
-8.02036e-07
-8.89818e-06
-8.3244e-07
-8.47545e-06
-8.49348e-07
-8.04745e-06
-8.55204e-07
-7.61054e-06
-8.68805e-07
-7.16129e-06
-8.92468e-07
-6.70181e-06
-9.19109e-07
-6.23572e-06
-9.41107e-07
-5.76556e-06
-9.51488e-07
-5.29161e-06
-9.54548e-07
-4.81212e-06
-9.59038e-07
-4.32712e-06
-9.69532e-07
-3.84027e-06
-9.80797e-07
-3.35746e-06
-9.77283e-07
-2.88358e-06
-9.55815e-07
-2.41397e-06
-9.36955e-07
-1.94684e-06
-9.34356e-07
-1.48454e-06
-9.31559e-07
-1.03125e-06
-9.1579e-07
-5.89265e-07
-8.9128e-07
-1.61527e-07
-8.539e-07
2.4932e-07
-8.13945e-07
6.4558e-07
-7.86176e-07
1.03067e-06
-7.68452e-07
1.40677e-06
-7.5322e-07
1.7712e-06
-7.30798e-07
2.12339e-06
-7.03918e-07
2.46239e-06
-6.71826e-07
2.78841e-06
-6.45329e-07
3.10283e-06
-6.25617e-07
3.40849e-06
-6.10014e-07
3.70672e-06
-5.97538e-07
3.99672e-06
-5.81847e-07
4.27759e-06
-5.61136e-07
4.54791e-06
-5.37158e-07
4.80943e-06
-5.2052e-07
5.06467e-06
-5.09271e-07
5.31471e-06
-4.98185e-07
5.55899e-06
-4.86751e-07
5.79632e-06
-4.73837e-07
6.02564e-06
-4.58231e-07
6.24683e-06
-4.43233e-07
6.46079e-06
-4.29978e-07
6.66905e-06
-4.17422e-07
6.87334e-06
-4.06327e-07
7.07356e-06
-3.97205e-07
7.26893e-06
-3.88503e-07
7.45868e-06
-3.79893e-07
7.64266e-06
-3.70184e-07
7.8212e-06
-3.5857e-07
7.99417e-06
-3.4386e-07
8.16312e-06
-3.35809e-07
8.32956e-06
-3.31751e-07
8.49151e-06
-3.24437e-07
8.64805e-06
-3.14338e-07
8.79936e-06
-3.0401e-07
8.94659e-06
-2.93942e-07
9.09094e-06
-2.8672e-07
9.23171e-06
-2.7995e-07
9.36808e-06
-2.71888e-07
9.49982e-06
-2.63251e-07
9.62572e-06
-2.53258e-07
9.74748e-06
-2.44409e-07
9.86673e-06
-2.37534e-07
9.98273e-06
-2.30558e-07
1.00948e-05
-2.23406e-07
1.02022e-05
-2.15443e-07
1.03043e-05
-2.05011e-07
1.04009e-05
-1.93159e-07
1.04933e-05
-1.83344e-07
1.05823e-05
-1.76621e-07
1.06677e-05
-1.70407e-07
1.07485e-05
-1.61812e-07
1.08241e-05
-1.52053e-07
1.08946e-05
-1.4166e-07
1.096e-05
-1.30597e-07
1.1021e-05
-1.20197e-07
1.10767e-05
-1.10617e-07
1.11273e-05
-1.00832e-07
1.11728e-05
-9.11562e-08
1.12134e-05
-8.13531e-08
1.12492e-05
-7.16598e-08
1.12799e-05
-6.16605e-08
1.13045e-05
-4.94138e-08
1.13227e-05
-3.60391e-08
1.13359e-05
-2.56908e-08
1.13446e-05
-1.67178e-08
1.13477e-05
-6.20289e-09
1.13448e-05
5.28158e-09
1.13361e-05
1.66189e-08
1.1322e-05
2.78611e-08
1.13022e-05
3.98967e-08
1.12769e-05
5.12785e-08
1.12461e-05
6.17405e-08
1.12097e-05
7.26009e-08
1.11674e-05
8.34831e-08
1.11199e-05
9.41187e-08
1.10671e-05
1.05541e-07
1.10093e-05
1.16527e-07
1.09456e-05
1.27388e-07
1.08759e-05
1.38571e-07
1.08012e-05
1.48158e-07
1.07222e-05
1.57214e-07
1.06384e-05
1.67673e-07
1.05497e-05
1.78014e-07
1.04552e-05
1.8821e-07
1.03562e-05
1.96925e-07
1.02536e-05
2.04881e-07
1.0147e-05
2.13688e-07
1.00354e-05
2.22884e-07
9.9196e-06
2.30884e-07
9.80038e-06
2.37364e-07
9.6779e-06
2.44281e-07
9.55194e-06
2.52216e-07
9.42182e-06
2.60336e-07
9.28828e-06
2.6637e-07
9.15241e-06
2.70717e-07
9.01426e-06
2.75759e-07
8.87357e-06
2.81528e-07
8.73003e-06
2.86903e-07
8.5835e-06
2.9212e-07
8.43456e-06
2.96492e-07
8.28374e-06
3.00542e-07
8.13101e-06
3.05303e-07
7.97621e-06
3.09684e-07
7.81907e-06
3.136e-07
7.65913e-06
3.18224e-07
7.49658e-06
3.23606e-07
7.33179e-06
3.29218e-07
7.16485e-06
3.33789e-07
6.99556e-06
3.37902e-07
6.82337e-06
3.42904e-07
6.64817e-06
3.49032e-07
6.47009e-06
3.56229e-07
6.28921e-06
3.62576e-07
6.10596e-06
3.67034e-07
5.92058e-06
3.70611e-07
5.73291e-06
3.74563e-07
5.54328e-06
3.78643e-07
5.35212e-06
3.82478e-07
5.15936e-06
3.86471e-07
4.96491e-06
3.89659e-07
4.76892e-06
3.91817e-07
4.57209e-06
3.93197e-07
4.37463e-06
3.94366e-07
4.17631e-06
3.96431e-07
3.97808e-06
3.97471e-07
3.78032e-06
3.96613e-07
3.58281e-06
3.95221e-07
3.38576e-06
3.9362e-07
3.18944e-06
3.92347e-07
2.99424e-06
3.91066e-07
2.80046e-06
3.88793e-07
2.60819e-06
3.85012e-07
2.41763e-06
3.8083e-07
2.22912e-06
3.77417e-07
2.04279e-06
3.73599e-07
1.85852e-06
3.68827e-07
1.67653e-06
3.63722e-07
1.49749e-06
3.57968e-07
1.32174e-06
3.51757e-07
1.14921e-06
3.45314e-07
9.79924e-07
3.38709e-07
8.14014e-07
3.31819e-07
6.51846e-07
3.24436e-07
4.93493e-07
3.17123e-07
3.3909e-07
3.09528e-07
1.88686e-07
3.01566e-07
4.22939e-08
2.93043e-07
-9.99399e-08
2.84346e-07
-2.37972e-07
2.75701e-07
-3.71757e-07
2.67367e-07
-5.01231e-07
2.58928e-07
-6.26369e-07
2.50121e-07
-7.46951e-07
2.40801e-07
-8.63e-07
2.31659e-07
-9.74669e-07
2.23037e-07
-1.08209e-06
2.1453e-07
-1.18532e-06
2.05947e-07
-1.28408e-06
1.97166e-07
-1.3782e-06
1.8844e-07
-1.46788e-06
1.79889e-07
-1.55326e-06
1.70998e-07
-1.63431e-06
1.61856e-07
-1.71077e-06
1.52577e-07
-1.7829e-06
1.4391e-07
-1.85064e-06
1.35251e-07
-1.91406e-06
1.2668e-07
-1.97302e-06
1.18124e-07
-2.02749e-06
1.09113e-07
-2.07773e-06
1.00282e-07
-2.12376e-06
9.17926e-08
-2.16537e-06
8.35503e-08
-2.20255e-06
7.49868e-08
-2.23572e-06
6.65632e-08
-2.26504e-06
5.83954e-08
-2.29045e-06
5.0571e-08
-2.31162e-06
4.22466e-08
-2.32882e-06
3.45139e-08
-2.34202e-06
2.70853e-08
-2.35163e-06
1.99622e-08
-2.35804e-06
1.31234e-08
-2.36078e-06
5.5735e-09
-2.35996e-06
-1.8486e-09
-2.35573e-06
-8.65384e-09
-2.34804e-06
-1.51298e-08
-2.33678e-06
-2.19873e-08
-2.32288e-06
-2.72481e-08
-2.30574e-06
-3.4341e-08
-2.2864e-06
-3.96016e-08
-2.26386e-06
-4.64224e-08
-2.23724e-06
-5.30089e-08
-2.20797e-06
-5.78245e-08
-2.17466e-06
-6.44087e-08
-2.14058e-06
-6.63474e-08
-2.10377e-06
-7.32178e-08
-2.06926e-06
-7.22811e-08
-2.03429e-06
-7.43598e-08
-1.99088e-06
-8.4738e-08
-1.94452e-06
-8.60167e-08
-1.89319e-06
-9.00809e-08
-1.84178e-06
-9.83662e-08
-1.81687e-06
-7.12615e-08
-1.79865e-06
-6.69445e-08
-1.74985e-06
-1.03064e-07
-1.68698e-06
-9.21211e-08
-1.57214e-06
-1.38966e-07
-1.44585e-06
-1.80186e-07
-1.22689e-06
-2.57945e-07
-9.68502e-07
-3.40326e-07
-7.75678e-07
-2.98205e-07
-6.54201e-07
-3.34289e-07
-6.00254e-07
-3.29082e-07
-5.26798e-07
-2.74148e-07
-4.55461e-07
-2.33802e-07
-3.6415e-07
-2.14244e-07
-2.76475e-07
-1.88012e-07
-1.77008e-07
-1.86652e-07
-8.17793e-08
-1.8234e-07
8.20776e-09
-1.74183e-07
5.22684e-08
-1.25892e-07
6.97382e-08
-9.24127e-08
1.37992e-07
-1.50055e-07
2.25133e-07
-1.22561e-07
3.98233e-07
-1.89155e-07
5.86094e-07
-2.48335e-07
9.24597e-07
-3.78383e-07
1.33272e-06
-5.08958e-07
1.65503e-06
-4.60776e-07
1.85392e-06
-5.10452e-07
1.9339e-06
-4.98155e-07
2.03365e-06
-4.16024e-07
2.13716e-06
-3.70695e-07
2.24047e-06
-2.86772e-07
2.3284e-06
-2.47143e-07
2.41632e-06
-2.17345e-07
2.50326e-06
-2.00723e-07
2.59503e-06
-1.84397e-07
2.68585e-06
-1.59801e-07
2.80467e-06
-1.87011e-07
2.86505e-06
-1.23505e-07
2.83421e-06
-2.17819e-08
2.82897e-06
-7.54136e-08
2.81366e-06
-1.84881e-08
2.92394e-06
-6.24245e-08
3.20429e-06
-2.82427e-07
3.81918e-06
-5.65522e-07
4.64958e-06
-8.43367e-07
5.47294e-06
-1.01397e-06
6.19899e-06
-1.14339e-06
6.72566e-06
-1.22492e-06
7.02226e-06
-1.17565e-06
7.25043e-06
-1.07427e-06
7.46533e-06
-9.23876e-07
7.69013e-06
-7.54821e-07
7.90691e-06
-6.1772e-07
8.10979e-06
-5.20705e-07
8.29858e-06
-4.54993e-07
8.4749e-06
-4.02275e-07
8.63798e-06
-3.57948e-07
8.79099e-06
-3.2428e-07
8.93508e-06
-3.01747e-07
9.06948e-06
-2.78931e-07
9.19486e-06
-2.56262e-07
9.31329e-06
-2.41614e-07
9.42546e-06
-2.27497e-07
9.53166e-06
-2.12963e-07
9.63324e-06
-2.05333e-07
9.73028e-06
-1.95073e-07
9.82316e-06
-1.84709e-07
9.91218e-06
-1.75792e-07
9.99815e-06
-1.72929e-07
1.00807e-05
-1.66127e-07
1.01597e-05
-1.56644e-07
1.02354e-05
-1.49011e-07
1.03086e-05
-1.44174e-07
1.0379e-05
-1.40061e-07
1.0447e-05
-1.35795e-07
1.05129e-05
-1.31312e-07
1.05772e-05
-1.27887e-07
1.06386e-05
-1.22496e-07
1.06978e-05
-1.18753e-07
1.07555e-05
-1.12458e-07
1.0812e-05
-1.10347e-07
1.08674e-05
-1.11155e-07
1.09217e-05
-1.10957e-07
1.09747e-05
-1.0919e-07
1.10266e-05
-1.0653e-07
1.10777e-05
-1.03763e-07
1.11274e-05
-1.00611e-07
1.11761e-05
-9.80331e-08
1.12238e-05
-9.60508e-08
1.12703e-05
-9.39092e-08
1.13153e-05
-9.12158e-08
1.13591e-05
-8.80055e-08
1.14018e-05
-8.8394e-08
1.14432e-05
-8.57673e-08
1.14834e-05
-8.06289e-08
1.15227e-05
-7.70858e-08
1.15612e-05
-7.51873e-08
1.15989e-05
-7.3937e-08
1.16358e-05
-7.30529e-08
1.16719e-05
-7.23176e-08
1.17074e-05
-7.15675e-08
1.17425e-05
-7.066e-08
1.17769e-05
-6.93788e-08
1.18107e-05
-6.76902e-08
1.18437e-05
-6.59167e-08
1.1876e-05
-6.45724e-08
1.19078e-05
-6.38452e-08
1.19392e-05
-6.34029e-08
1.197e-05
-6.24428e-08
1.19997e-05
-6.04165e-08
1.20287e-05
-5.83134e-08
1.20576e-05
-5.73441e-08
1.20866e-05
-5.74526e-08
1.21151e-05
-5.74043e-08
1.21427e-05
-5.62417e-08
1.21697e-05
-5.42186e-08
1.21972e-05
-5.3887e-08
1.22248e-05
-5.40081e-08
1.22519e-05
-5.4431e-08
1.22782e-05
-5.11051e-08
1.23045e-05
-5.19338e-08
1.23318e-05
-5.57919e-08
1.23587e-05
-5.99492e-08
1.23849e-05
-5.80281e-08
1.24106e-05
-5.51106e-08
1.2436e-05
-5.32264e-08
1.24612e-05
-5.2781e-08
1.24861e-05
-5.3181e-08
-5.34997e-08
1.22263e-05
-2.01653e-05
1.4582e-05
-1.11169e-05
1.37307e-05
-6.20068e-06
1.25532e-05
-5.89363e-06
1.11887e-05
-4.41043e-06
9.87026e-06
-3.33934e-06
8.08809e-06
-1.69857e-06
5.63983e-06
-1.12187e-07
2.3391e-06
1.02981e-06
-1.48867e-06
1.45743e-06
-5.32535e-06
1.40214e-06
-8.71059e-06
1.3324e-06
-1.14032e-05
2.07782e-06
-1.35421e-05
4.22807e-06
-1.52372e-05
7.40728e-06
-1.61276e-05
9.74797e-06
-1.64526e-05
1.08148e-05
-1.67336e-05
1.11986e-05
-1.659e-05
1.12768e-05
-1.61771e-05
1.04295e-05
-1.7263e-05
8.71978e-06
-1.92196e-05
8.06622e-06
-2.11567e-05
7.71897e-06
-2.30448e-05
6.78376e-06
-2.50952e-05
5.85002e-06
-2.68761e-05
5.36641e-06
-2.83395e-05
5.39311e-06
-2.99399e-05
5.79296e-06
-3.17698e-05
6.34606e-06
-3.37103e-05
6.53451e-06
-3.57112e-05
6.23706e-06
-3.74615e-05
5.53645e-06
-3.87576e-05
4.82712e-06
-3.98047e-05
4.21029e-06
-4.10978e-05
3.69828e-06
-4.27214e-05
3.54698e-06
-4.42622e-05
3.65078e-06
-4.55193e-05
3.99234e-06
-4.65239e-05
4.4414e-06
-4.74779e-05
4.64457e-06
-4.86539e-05
4.39499e-06
-5.00404e-05
3.71698e-06
-5.14388e-05
3.09383e-06
-5.27653e-05
3.00054e-06
-5.40446e-05
3.44648e-06
-5.52198e-05
3.94684e-06
-5.63687e-05
4.29214e-06
-5.7661e-05
4.31222e-06
-5.91244e-05
3.86947e-06
-6.04836e-05
3.18531e-06
-6.16762e-05
2.54106e-06
-6.26454e-05
2.12455e-06
-6.35379e-05
1.96036e-06
-6.44399e-05
1.83738e-06
-6.5304e-05
1.80914e-06
-6.60148e-05
2.02678e-06
-6.64979e-05
2.20171e-06
-6.67334e-05
2.08026e-06
-6.67956e-05
1.63951e-06
-6.69302e-05
1.34125e-06
-6.72272e-05
1.38347e-06
-6.78417e-05
1.83776e-06
-6.85679e-05
2.24583e-06
-6.92024e-05
2.20784e-06
-6.98061e-05
1.69771e-06
-7.03225e-05
5.8888e-07
-7.06663e-05
-7.38416e-07
-7.07666e-05
-1.72881e-06
-7.0545e-05
-2.37945e-06
-7.02496e-05
-2.64273e-06
-7.00185e-05