/*--------------------------------*- C++ -*----------------------------------*\
| =========                 |                                                 |
| \\      /  F ield         | OpenFOAM: The Open Source CFD Toolbox           |
|  \\    /   O peration     | Version:  v2006                                 |
|   \\  /    A nd           | Website:  www.openfoam.com                      |
|    \\/     M anipulation  |                                                 |
\*---------------------------------------------------------------------------*/
FoamFile
{
    version     2.0;
    format      ascii;
    class       volScalarField;
    location    "6.2";
    object      p_rgh;
}
// * * * * * * * * * * * * * * * * * * * * * * * * * * * * * * * * * * * * * //

dimensions      [1 -1 -2 0 0 0 0];


internalField   nonuniform List<scalar> 
33000
(
7676.45
7663.4
7662.16
7652.41
7646.45
7638.19
7630.9
7623.7
7616.64
7609.68
7602.76
7595.9
7589.16
7582.73
7576.8
7571.37
7566.25
7561.03
7555.6
7550.03
7543.99
7537.52
7531.37
7525.14
7518.94
7512.8
7506.71
7500.66
7494.62
7488.61
7482.68
7476.8
7470.96
7465.17
7459.43
7453.73
7448.08
7442.46
7436.89
7431.42
7426.07
7420.77
7415.52
7410.34
7405.22
7400.18
7395.21
7390.36
7385.63
7380.98
7376.4
7371.92
7367.54
7363.26
7359.08
7355.01
7351.07
7347.24
7343.51
7339.92
7336.53
7333.25
7330.08
7327.06
7324.19
7321.45
7318.87
7316.44
7314.13
7311.98
7309.99
7308.16
7306.51
7304.94
7303.39
7301.97
7300.94
7299.38
7294.06
7289.76
7290.13
7286.64
7286.46
7284.42
7282.47
7281.34
7280.87
7280.07
7279.35
7278.88
7278.3
7277.91
7277.56
7277.49
7277.08
7277.03
7276.2
7275.43
7273.28
7272.2
7274.66
7274.88
7275.98
7277.35
7278.76
7280.85
7283.5
7285.95
7288.58
7291.3
7294.23
7297.32
7300.47
7304.15
7307.09
7310.83
7312.7
7316.45
7323.23
7327.93
7333.72
7339.64
7345.62
7352.29
7359.59
7366.92
7374.68
7382.64
7390.85
7399.38
7408.26
7417.34
7426.76
7436.32
7446.19
7456.25
7466.56
7477.13
7487.9
7498.92
7510.11
7521.53
7533.15
7544.97
7556.98
7569.16
7581.48
7593.92
7606.49
7619.16
7631.96
7644.87
7657.82
7670.82
7683.87
7696.93
7710.04
7723.15
7736.26
7749.34
7762.39
7775.39
7788.33
7801.2
7814
7826.71
7839.31
7851.79
7864.14
7876.38
7888.47
7900.39
7912.13
7923.7
7935.09
7946.31
7957.31
7968.09
7978.65
7988.98
7999.09
8008.95
8018.58
8027.98
8037.12
8046
8054.61
8062.96
8071.04
8078.87
8086.43
8093.73
8100.76
8107.5
8113.99
8120.22
8126.2
8131.93
8137.41
8142.62
8147.59
8152.31
8156.8
8161.08
8165.15
8169.02
8172.68
8176.14
8179.42
8182.54
8185.51
8188.33
8191.01
8193.57
8196.04
8198.41
8200.69
8202.9
8205.04
8207.13
8209.19
8211.2
8213.16
8215.05
8216.87
8218.61
8220.28
8221.88
8223.4
8224.83
8226.18
8227.44
8228.6
8229.68
8230.67
8231.57
8232.37
8233.08
8233.69
8234.2
8234.63
8234.95
8235.17
8235.29
8235.33
8235.26
8235.09
8234.83
8234.45
8233.98
8233.41
8232.74
8231.96
8231.08
8230.09
8229
8227.8
8226.5
8225.09
8223.58
8221.95
8220.21
8218.37
8216.42
8214.36
8212.19
8209.9
8207.51
8205.01
8202.41
8199.7
8196.87
8193.95
8190.91
8187.78
8184.55
8181.21
8177.79
8174.26
8170.65
8166.95
8163.16
8159.28
8155.33
8151.31
8147.21
8143.05
8138.82
8134.53
8130.18
8125.79
8121.35
8116.86
8112.34
8107.79
8103.21
8098.6
8093.98
8089.34
8084.69
8080.04
8075.38
8070.73
8066.09
8061.46
8056.84
8052.24
8047.67
8043.12
8038.61
8034.12
8029.67
8025.26
8020.9
8016.57
8012.3
8008.07
8003.89
7999.77
7995.7
7991.69
7987.73
7983.83
7979.99
7976.22
7972.5
7968.85
7965.26
7961.73
7958.27
7954.87
7951.54
7948.28
7945.08
7941.95
7938.88
7935.88
7932.95
7930.08
7927.27
7924.53
7921.85
7919.24
7916.69
7914.19
7911.76
7909.39
7907.07
7904.82
7902.61
7900.47
7898.37
7896.33
7894.34
7892.4
7890.52
7888.68
7886.88
7885.14
7883.44
7881.79
7880.18
7878.62
7877.1
7875.62
7874.19
7872.8
7871.45
7870.15
7868.89
7867.67
7866.5
7865.38
7864.31
7863.29
7862.33
7861.41
7860.55
7859.74
7858.98
7858.28
7857.64
7857.05
7856.52
7856.04
7855.61
7855.24
7854.92
7854.66
7854.44
7854.28
7854.17
7854.11
7854.1
7854.14
7854.22
7854.35
7854.52
7854.74
7855
7855.29
7855.63
7856
7856.4
7856.84
7857.31
7857.82
7858.35
7858.91
7859.49
7860.1
7860.73
7861.38
7862.06
7862.74
7863.45
7864.17
7864.91
7865.66
7866.42
7867.19
7867.97
7868.75
7869.55
7870.34
7871.14
7871.94
7872.77
7873.56
7874.4
7875.2
7875.96
7876.76
7877.55
7878.35
7879.16
7879.96
7880.77
7881.58
7882.39
7883.19
7883.99
7884.79
7885.57
7886.36
7887.14
7887.91
7888.66
7889.42
7890.15
7890.88
7891.58
7892.29
7892.98
7893.66
7894.32
7894.99
7895.63
7896.27
7896.88
7897.51
7898.08
7898.69
7899.24
7899.78
7900.28
7900.84
7901.2
7901.92
7902.34
7902.61
7902.94
7903.28
7903.64
7904
7904.37
7904.75
7905.12
7905.49
7905.86
7906.24
7906.6
7906.97
7907.33
7907.68
7908.04
7908.38
7908.73
7909.07
7909.4
7909.73
7910.05
7910.37
7910.68
7910.98
7911.28
7911.58
7911.87
7912.15
7912.43
7912.7
7912.96
7913.22
7913.48
7913.72
7913.96
7914.2
7914.43
7914.65
7914.87
7915.08
7915.29
7915.49
7915.68
7915.87
7916.05
7916.22
7916.39
7916.56
7916.72
7916.87
7917.01
7917.15
7917.29
7917.42
7917.54
7917.66
7917.77
7917.88
7917.98
7918.07
7918.16
7918.25
7918.32
7918.4
7918.46
7918.53
7918.58
7918.63
7918.68
7918.72
7918.75
7918.78
7918.8
7918.82
7918.83
7918.84
7918.83
7918.85
7918.76
7677
7666.07
7661.69
7652.11
7645.41
7637.38
7630.18
7623.02
7616.07
7609.21
7602.33
7595.37
7588.43
7581.76
7575.58
7570.06
7565.05
7559.51
7554.4
7549.16
7543.05
7536.95
7530.87
7524.8
7518.68
7512.58
7506.49
7500.36
7494.26
7488.32
7482.47
7476.6
7470.73
7464.91
7459.23
7453.57
7447.9
7442.17
7436.56
7431.11
7425.76
7420.56
7415.32
7410.14
7404.95
7399.83
7394.89
7390.05
7385.38
7380.74
7376.16
7371.67
7367.28
7363
7358.81
7354.64
7350.62
7346.83
7343.14
7339.53
7336.14
7332.92
7329.66
7326.56
7323.74
7321.07
7318.47
7315.99
7313.61
7311.32
7309.22
7307.29
7305.5
7303.91
7302.37
7300.67
7298.69
7296.51
7294.89
7294
7291.63
7285.81
7282.65
7283.46
7281.33
7282.27
7280.33
7280.9
7278.27
7278.34
7277.98
7277.54
7277.32
7276.98
7276.67
7276.37
7276.17
7275.54
7275.24
7273.45
7273.62
7271.8
7272.45
7277.88
7279.25
7281.83
7283.18
7285.74
7287.39
7290.37
7293.77
7297
7300.35
7303.83
7307.18
7310.86
7314.64
7318.33
7323.31
7325.65
7331.02
7339.28
7345.52
7352.42
7359.26
7366.27
7373.91
7382.19
7390.45
7399.08
7407.86
7416.95
7426.32
7435.97
7445.82
7455.99
7466.28
7476.85
7487.6
7498.62
7509.8
7521.23
7532.87
7544.7
7556.71
7568.93
7581.27
7593.72
7606.26
7618.96
7631.78
7644.73
7657.7
7670.72
7683.76
7696.85
7709.97
7723.09
7736.21
7749.32
7762.38
7775.4
7788.35
7801.22
7814.04
7826.79
7839.4
7851.87
7864.22
7876.5
7888.61
7900.54
7912.27
7923.85
7935.27
7946.51
7957.52
7968.29
7978.86
7989.22
7999.33
8009.19
8018.81
8028.19
8037.36
8046.26
8054.88
8063.22
8071.28
8079.09
8086.68
8093.97
8101
8107.75
8114.22
8120.44
8126.4
8132.12
8137.61
8142.83
8147.78
8152.48
8156.97
8161.24
8165.31
8169.18
8172.83
8176.27
8179.54
8182.66
8185.64
8188.45
8191.12
8193.66
8196.13
8198.51
8200.8
8203.01
8205.14
8207.22
8209.27
8211.28
8213.25
8215.15
8216.97
8218.69
8220.36
8221.96
8223.47
8224.93
8226.28
8227.54
8228.69
8229.76
8230.75
8231.65
8232.46
8233.18
8233.79
8234.31
8234.72
8235.03
8235.25
8235.38
8235.41
8235.36
8235.2
8234.93
8234.55
8234.08
8233.52
8232.86
8232.08
8231.2
8230.21
8229.12
8227.93
8226.63
8225.23
8223.72
8222.09
8220.36
8218.52
8216.57
8214.52
8212.35
8210.06
8207.67
8205.17
8202.58
8199.87
8197.05
8194.13
8191.09
8187.95
8184.72
8181.39
8177.97
8174.44
8170.83
8167.12
8163.33
8159.45
8155.5
8151.47
8147.38
8143.21
8138.97
8134.68
8130.33
8125.93
8121.48
8116.99
8112.47
8107.91
8103.32
8098.71
8094.08
8089.44
8084.78
8080.12
8075.46
8070.8
8066.15
8061.52
8056.9
8052.29
8047.71
8043.16
8038.64
8034.15
8029.7
8025.28
8020.91
8016.59
8012.31
8008.07
8003.89
7999.76
7995.69
7991.67
7987.71
7983.81
7979.97
7976.19
7972.47
7968.81
7965.22
7961.69
7958.23
7954.83
7951.5
7948.23
7945.03
7941.9
7938.83
7935.83
7932.89
7930.02
7927.21
7924.47
7921.79
7919.17
7916.62
7914.12
7911.69
7909.32
7907
7904.74
7902.53
7900.39
7898.29
7896.25
7894.26
7892.32
7890.43
7888.59
7886.79
7885.05
7883.35
7881.69
7880.08
7878.52
7877
7875.52
7874.09
7872.7
7871.35
7870.04
7868.78
7867.56
7866.39
7865.27
7864.2
7863.18
7862.21
7861.29
7860.43
7859.62
7858.86
7858.16
7857.52
7856.93
7856.39
7855.91
7855.49
7855.12
7854.8
7854.54
7854.33
7854.17
7854.06
7854
7853.99
7854.03
7854.12
7854.25
7854.42
7854.64
7854.9
7855.2
7855.54
7855.91
7856.32
7856.76
7857.24
7857.74
7858.28
7858.84
7859.43
7860.04
7860.67
7861.33
7862
7862.7
7863.41
7864.13
7864.87
7865.62
7866.38
7867.16
7867.94
7868.72
7869.52
7870.33
7871.13
7871.96
7872.77
7873.52
7874.33
7875.11
7875.92
7876.72
7877.53
7878.34
7879.15
7879.96
7880.77
7881.58
7882.38
7883.2
7883.99
7884.81
7885.58
7886.38
7887.14
7887.93
7888.66
7889.44
7890.16
7890.9
7891.61
7892.32
7893.01
7893.68
7894.36
7895
7895.68
7896.27
7896.95
7897.52
7898.14
7898.65
7899.29
7899.69
7900.53
7901.02
7901.34
7901.7
7902.1
7902.49
7902.86
7903.24
7903.62
7904
7904.38
7904.76
7905.13
7905.51
7905.88
7906.25
7906.62
7906.99
7907.35
7907.7
7908.06
7908.4
7908.75
7909.08
7909.42
7909.74
7910.06
7910.38
7910.69
7911
7911.3
7911.59
7911.88
7912.16
7912.44
7912.71
7912.98
7913.24
7913.49
7913.74
7913.98
7914.22
7914.45
7914.67
7914.89
7915.1
7915.3
7915.5
7915.7
7915.88
7916.06
7916.24
7916.41
7916.57
7916.73
7916.88
7917.03
7917.17
7917.3
7917.43
7917.56
7917.67
7917.79
7917.89
7917.99
7918.09
7918.18
7918.26
7918.34
7918.41
7918.48
7918.54
7918.59
7918.64
7918.69
7918.73
7918.76
7918.79
7918.82
7918.83
7918.84
7918.85
7918.84
7918.87
7918.78
7681.35
7669.13
7661.38
7651.94
7644.26
7636.48
7629.3
7622.31
7615.54
7608.85
7602.17
7595.42
7588.72
7582.17
7575.98
7570.24
7564.8
7559.26
7553.72
7548.15
7542.27
7536.23
7530.2
7524.17
7518.22
7512.17
7506.05
7499.82
7493.77
7487.83
7481.91
7476.03
7470.42
7464.69
7458.94
7453.23
7447.58
7441.91
7436.16
7430.57
7425.28
7420.15
7414.9
7409.71
7404.51
7399.3
7394.31
7389.45
7384.76
7380.23
7375.66
7371.16
7366.76
7362.47
7358.23
7353.96
7349.95
7346.16
7342.52
7339.08
7335.48
7332.01
7328.85
7325.8
7322.86
7320.31
7317.76
7315.25
7312.82
7310.43
7308.25
7306.23
7304.36
7302.73
7300.99
7299.17
7297.22
7295.12
7293.02
7291.1
7289.54
7288.4
7287.97
7285.65
7279.77
7276.88
7279.98
7279.45
7278.7
7278.87
7277.94
7276.83
7276.6
7276.86
7276.36
7276.37
7275.79
7275.78
7275.35
7275.65
7276.34
7277.03
7275.73
7276.75
7274.82
7276.47
7283.64
7285.97
7288.97
7290.96
7293.73
7296.15
7299.56
7303.63
7307.11
7310.99
7314.77
7319.06
7324.04
7329.25
7333.87
7339.49
7342.6
7348.92
7358.68
7366.03
7373.97
7381.63
7389.42
7397.91
7407.14
7416.21
7425.87
7435.34
7445.16
7455.05
7465.36
7476.02
7486.87
7497.96
7509.16
7520.58
7532.24
7544.12
7556.21
7568.46
7580.79
7593.2
7605.83
7618.58
7631.51
7644.46
7657.43
7670.41
7683.5
7696.7
7709.9
7723.04
7736.12
7749.23
7762.33
7775.42
7788.39
7801.28
7814.14
7826.93
7839.57
7852.04
7864.44
7876.73
7888.9
7900.83
7912.58
7924.19
7935.61
7946.88
7957.93
7968.72
7979.31
7989.7
7999.79
8009.64
8019.28
8028.68
8037.85
8046.78
8055.4
8063.76
8071.8
8079.57
8087.12
8094.42
8101.49
8108.25
8114.73
8120.9
8126.84
8132.53
8138.02
8143.24
8148.17
8152.85
8157.33
8161.61
8165.67
8169.5
8173.13
8176.56
8179.83
8182.95
8185.92
8188.72
8191.35
8193.9
8196.38
8198.77
8201.05
8203.26
8205.39
8207.44
8209.48
8211.49
8213.47
8215.36
8217.17
8218.9
8220.55
8222.15
8223.68
8225.13
8226.48
8227.73
8228.87
8229.95
8230.95
8231.87
8232.67
8233.38
8233.98
8234.48
8234.88
8235.21
8235.44
8235.59
8235.64
8235.57
8235.41
8235.14
8234.75
8234.28
8233.73
8233.09
8232.32
8231.44
8230.45
8229.37
8228.2
8226.91
8225.51
8223.98
8222.36
8220.65
8218.83
8216.89
8214.84
8212.66
8210.38
8208
8205.51
8202.93
8200.22
8197.41
8194.48
8191.45
8188.31
8185.07
8181.74
8178.32
8174.8
8171.19
8167.48
8163.68
8159.79
8155.83
8151.81
8147.7
8143.53
8139.28
8134.98
8130.62
8126.21
8121.76
8117.26
8112.72
8108.15
8103.56
8098.93
8094.28
8089.62
8084.96
8080.29
8075.62
8070.96
8066.29
8061.64
8057.01
8052.4
8047.81
8043.24
8038.71
8034.21
8029.75
8025.32
8020.94
8016.6
8012.31
8008.07
8003.88
7999.74
7995.66
7991.63
7987.67
7983.76
7979.91
7976.12
7972.39
7968.73
7965.14
7961.6
7958.13
7954.73
7951.39
7948.12
7944.92
7941.78
7938.71
7935.7
7932.76
7929.89
7927.08
7924.33
7921.65
7919.03
7916.47
7913.98
7911.54
7909.16
7906.84
7904.58
7902.38
7900.22
7898.13
7896.08
7894.09
7892.14
7890.25
7888.4
7886.61
7884.86
7883.16
7881.5
7879.89
7878.32
7876.79
7875.31
7873.87
7872.48
7871.13
7869.82
7868.55
7867.33
7866.16
7865.03
7863.96
7862.94
7861.97
7861.05
7860.18
7859.37
7858.62
7857.92
7857.27
7856.68
7856.15
7855.67
7855.24
7854.88
7854.56
7854.3
7854.09
7853.94
7853.83
7853.78
7853.77
7853.82
7853.91
7854.04
7854.22
7854.45
7854.71
7855.02
7855.36
7855.74
7856.15
7856.6
7857.08
7857.6
7858.14
7858.71
7859.3
7859.92
7860.56
7861.22
7861.9
7862.6
7863.32
7864.05
7864.79
7865.55
7866.31
7867.09
7867.89
7868.68
7869.51
7870.3
7871.05
7871.85
7872.63
7873.44
7874.25
7875.06
7875.87
7876.68
7877.5
7878.31
7879.14
7879.95
7880.77
7881.58
7882.41
7883.21
7884.02
7884.81
7885.62
7886.39
7887.19
7887.95
7888.71
7889.46
7890.2
7890.93
7891.64
7892.36
7893.03
7893.74
7894.38
7895.11
7895.71
7896.38
7896.92
7897.63
7898.06
7898.99
7899.51
7899.86
7900.26
7900.69
7901.12
7901.54
7901.96
7902.37
7902.78
7903.18
7903.56
7903.95
7904.34
7904.72
7905.11
7905.49
7905.87
7906.24
7906.62
7906.98
7907.35
7907.71
7908.06
7908.41
7908.76
7909.1
7909.43
7909.76
7910.09
7910.41
7910.72
7911.02
7911.33
7911.62
7911.91
7912.19
7912.47
7912.74
7913
7913.26
7913.52
7913.76
7914
7914.24
7914.47
7914.69
7914.91
7915.12
7915.33
7915.53
7915.72
7915.91
7916.09
7916.27
7916.44
7916.6
7916.76
7916.91
7917.06
7917.2
7917.33
7917.46
7917.58
7917.7
7917.81
7917.92
7918.02
7918.12
7918.2
7918.29
7918.37
7918.44
7918.51
7918.57
7918.62
7918.67
7918.72
7918.76
7918.79
7918.82
7918.84
7918.86
7918.87
7918.88
7918.87
7918.9
7918.8
7683.93
7671.73
7659.62
7649.87
7641.86
7634.4
7627.48
7620.81
7614.36
7608.01
7601.63
7595.19
7588.75
7582.39
7576.23
7570.29
7564.51
7558.77
7553.07
7547.37
7541.55
7535.56
7529.47
7523.48
7517.61
7511.63
7505.58
7499.39
7493.12
7487.17
7481.26
7475.71
7469.99
7464.18
7458.41
7452.68
7447.02
7441.37
7435.72
7430.16
7424.81
7419.53
7414.25
7409.04
7403.89
7398.73
7393.54
7388.58
7384.03
7379.46
7374.87
7370.36
7365.94
7361.63
7357.4
7353.22
7349.17
7345.47
7341.82
7338.24
7334.58
7330.96
7327.77
7324.7
7321.75
7319.13
7316.7
7314.17
7311.76
7309.44
7307.12
7304.88
7302.93
7301.24
7299.46
7297.6
7295.77
7293.9
7291.96
7289.9
7287.76
7286.02
7284.91
7284.18
7283.41
7283.06
7283.56
7282.02
7275.88
7274.18
7278.03
7275.95
7277.69
7275.95
7275.31
7275.15
7276.03
7275.84
7276.04
7275.99
7276.37
7276.36
7277.51
7279.84
7280.99
7282.8
7283
7284.47
7283.01
7285.87
7293.3
7296.65
7299.84
7303.15
7306.26
7310.18
7314.94
7319.23
7324.11
7328.69
7334.19
7339.96
7346.3
7351.85
7358.65
7362.41
7369.62
7380.45
7388.69
7397.56
7406.2
7414.88
7424.27
7434.31
7444.18
7454.39
7464.61
7475.18
7485.86
7497.01
7508.34
7519.78
7531.44
7543.32
7555.49
7567.75
7580.1
7592.55
7605.24
7618.07
7631.07
7644.04
7656.98
7670.05
7683.2
7696.43
7709.72
7722.92
7736.03
7749.15
7762.28
7775.37
7788.4
7801.4
7814.37
7827.16
7839.78
7852.31
7864.76
7877.06
7889.29
7901.32
7913.07
7924.7
7936.16
7947.42
7958.49
7969.41
7980.03
7990.4
8000.46
8010.35
8020.01
8029.42
8038.65
8047.56
8056.18
8064.53
8072.55
8080.32
8087.86
8095.13
8102.18
8108.98
8115.45
8121.64
8127.52
8133.18
8138.63
8143.86
8148.8
8153.46
8157.88
8162.17
8166.2
8170.01
8173.61
8177.04
8180.32
8183.44
8186.38
8189.16
8191.77
8194.32
8196.78
8199.19
8201.48
8203.68
8205.78
8207.82
8209.86
8211.86
8213.83
8215.71
8217.51
8219.25
8220.89
8222.45
8223.96
8225.39
8226.77
8228.03
8229.19
8230.23
8231.22
8232.15
8232.97
8233.67
8234.24
8234.74
8235.16
8235.49
8235.76
8235.91
8235.94
8235.87
8235.67
8235.41
8235.05
8234.61
8234.09
8233.43
8232.64
8231.76
8230.82
8229.77
8228.6
8227.32
8225.9
8224.39
8222.78
8221.09
8219.29
8217.36
8215.32
8213.16
8210.88
8208.49
8206.02
8203.45
8200.75
8197.93
8194.99
8191.97
8188.86
8185.64
8182.29
8178.85
8175.32
8171.72
8168.01
8164.2
8160.3
8156.34
8152.31
8148.2
8144
8139.73
8135.43
8131.07
8126.65
8122.17
8117.66
8113.09
8108.51
8103.9
8099.26
8094.6
8089.92
8085.23
8080.54
8075.86
8071.18
8066.48
8061.82
8057.18
8052.55
8047.93
8043.35
8038.81
8034.3
8029.82
8025.37
8020.97
8016.62
8012.32
8008.07
8003.87
7999.71
7995.61
7991.58
7987.6
7983.68
7979.82
7976.02
7972.29
7968.62
7965.01
7961.47
7958
7954.59
7951.24
7947.97
7944.76
7941.61
7938.53
7935.52
7932.58
7929.7
7926.89
7924.13
7921.45
7918.82
7916.26
7913.76
7911.32
7908.94
7906.61
7904.34
7902.13
7899.98
7897.87
7895.82
7893.83
7891.88
7889.98
7888.13
7886.33
7884.57
7882.87
7881.2
7879.58
7878.01
7876.48
7874.99
7873.55
7872.15
7870.79
7869.48
7868.21
7866.98
7865.8
7864.68
7863.6
7862.58
7861.6
7860.68
7859.81
7859
7858.25
7857.55
7856.9
7856.31
7855.78
7855.3
7854.88
7854.51
7854.2
7853.94
7853.74
7853.59
7853.49
7853.44
7853.44
7853.49
7853.59
7853.73
7853.92
7854.15
7854.43
7854.74
7855.09
7855.48
7855.91
7856.36
7856.86
7857.37
7857.92
7858.5
7859.1
7859.73
7860.38
7861.06
7861.74
7862.46
7863.18
7863.91
7864.67
7865.45
7866.22
7867.03
7867.82
7868.54
7869.34
7870.11
7870.92
7871.72
7872.54
7873.34
7874.17
7874.98
7875.81
7876.63
7877.47
7878.29
7879.12
7879.95
7880.77
7881.6
7882.41
7883.25
7884.03
7884.87
7885.63
7886.45
7887.2
7888.02
7888.75
7889.54
7890.25
7891.03
7891.71
7892.48
7893.16
7893.8
7894.49
7895.08
7895.83
7896.3
7897.3
7897.86
7898.25
7898.69
7899.15
7899.62
7900.11
7900.58
7901.04
7901.48
7901.9
7902.33
7902.74
7903.15
7903.55
7903.95
7904.35
7904.74
7905.13
7905.52
7905.9
7906.28
7906.65
7907.02
7907.39
7907.75
7908.1
7908.45
7908.8
7909.14
7909.47
7909.8
7910.13
7910.45
7910.76
7911.07
7911.37
7911.66
7911.95
7912.24
7912.51
7912.79
7913.05
7913.31
7913.56
7913.81
7914.05
7914.29
7914.52
7914.74
7914.96
7915.17
7915.37
7915.57
7915.77
7915.95
7916.13
7916.31
7916.48
7916.64
7916.8
7916.95
7917.1
7917.24
7917.37
7917.5
7917.63
7917.74
7917.86
7917.96
7918.06
7918.16
7918.25
7918.33
7918.41
7918.48
7918.55
7918.61
7918.66
7918.71
7918.76
7918.8
7918.83
7918.86
7918.88
7918.9
7918.91
7918.92
7918.91
7918.94
7918.85
7676.05
7661.42
7651.49
7643.58
7636.99
7630.51
7624.59
7618.5
7612.61
7606.68
7600.65
7594.56
7588.42
7582.29
7576.2
7570.21
7564.3
7558.42
7552.57
7546.72
7540.84
7534.89
7528.86
7522.87
7516.96
7510.97
7504.95
7498.89
7492.69
7486.55
7480.88
7475.15
7469.29
7463.46
7457.67
7451.93
7446.23
7440.58
7434.98
7429.45
7424.01
7418.65
7413.34
7408.1
7402.93
7397.81
7392.71
7387.7
7382.97
7378.35
7373.74
7369.23
7364.81
7360.47
7356.23
7352.14
7348.17
7344.32
7340.61
7337.02
7333.49
7329.94
7326.35
7323.25
7320.29
7317.84
7315.33
7312.75
7310.3
7307.96
7305.73
7303.55
7301.41
7299.45
7297.64
7295.91
7294.14
7292.39
7290.67
7288.89
7287.03
7285.42
7283.86
7282.48
7281.64
7281.56
7281.31
7280.9
7280.97
7281.87
7279.98
7273.13
7271.68
7277.08
7275.13
7276.72
7275.61
7275.33
7275.59
7277.17
7277.45
7278.34
7278.95
7280.1
7281.2
7282.97
7285.93
7287.3
7290.69
7290.59
7292.89
7291.66
7294.7
7303.38
7307.06
7310.89
7314.8
7318.75
7323.59
7329.41
7334.58
7340.27
7345.77
7352.42
7359.34
7366.7
7372.88
7380.4
7384.79
7392.93
7405.16
7414.02
7424.1
7433.13
7442.96
7452.36
7462.59
7473.49
7484.34
7495.62
7507.01
7518.57
7530.26
7542.24
7554.4
7566.75
7579.06
7591.65
7604.42
7617.46
7630.45
7643.39
7656.41
7669.58
7682.8
7696.18
7709.5
7722.76
7735.98
7749.12
7762.27
7775.42
7788.51
7801.66
7814.62
7827.46
7840.12
7852.71
7865.2
7877.56
7889.86
7901.96
7913.8
7925.4
7936.9
7948.2
7959.38
7970.29
7980.94
7991.29
8001.37
8011.3
8020.98
8030.51
8039.7
8048.59
8057.22
8065.56
8073.59
8081.33
8088.87
8096.13
8103.17
8109.97
8116.42
8122.61
8128.5
8134.09
8139.5
8144.72
8149.65
8154.33
8158.75
8162.88
8166.88
8170.68
8174.32
8177.82
8181.07
8184.15
8187.05
8189.78
8192.43
8194.98
8197.46
8199.85
8202.11
8204.28
8206.36
8208.41
8210.44
8212.45
8214.36
8216.16
8217.94
8219.7
8221.4
8222.98
8224.44
8225.8
8227.13
8228.38
8229.54
8230.63
8231.67
8232.57
8233.37
8234.05
8234.6
8235.12
8235.54
8235.89
8236.16
8236.3
8236.31
8236.22
8236.06
8235.82
8235.48
8235.07
8234.54
8233.88
8233.09
8232.23
8231.28
8230.26
8229.12
8227.84
8226.42
8224.94
8223.35
8221.68
8219.9
8217.99
8215.96
8213.82
8211.55
8209.16
8206.69
8204.14
8201.45
8198.62
8195.7
8192.69
8189.58
8186.37
8183.03
8179.57
8176.03
8172.41
8168.7
8164.9
8161.01
8157.04
8152.98
8148.82
8144.62
8140.35
8136.04
8131.66
8127.22
8122.72
8118.17
8113.59
8108.98
8104.36
8099.71
8095.02
8090.31
8085.59
8080.89
8076.17
8071.45
8066.75
8062.06
8057.4
8052.75
8048.11
8043.5
8038.94
8034.41
8029.9
8025.43
8021.01
8016.64
8012.33
8008.06
8003.83
7999.66
7995.55
7991.49
7987.51
7983.57
7979.7
7975.88
7972.13
7968.45
7964.83
7961.29
7957.81
7954.38
7951.03
7947.74
7944.52
7941.38
7938.3
7935.28
7932.33
7929.44
7926.61
7923.85
7921.16
7918.53
7915.96
7913.46
7911.01
7908.62
7906.29
7904.02
7901.8
7899.63
7897.52
7895.47
7893.47
7891.51
7889.6
7887.75
7885.94
7884.18
7882.47
7880.8
7879.17
7877.59
7876.05
7874.56
7873.11
7871.7
7870.33
7869.01
7867.74
7866.51
7865.32
7864.19
7863.12
7862.09
7861.11
7860.18
7859.32
7858.5
7857.75
7857.04
7856.4
7855.81
7855.28
7854.8
7854.39
7854.02
7853.72
7853.47
7853.27
7853.12
7853.03
7852.99
7853
7853.06
7853.17
7853.32
7853.52
7853.76
7854.05
7854.37
7854.73
7855.14
7855.57
7856.04
7856.55
7857.08
7857.64
7858.23
7858.85
7859.49
7860.16
7860.83
7861.54
7862.25
7863.02
7863.75
7864.55
7865.32
7866.01
7866.8
7867.55
7868.36
7869.15
7869.96
7870.76
7871.59
7872.41
7873.24
7874.07
7874.91
7875.75
7876.59
7877.43
7878.26
7879.11
7879.93
7880.78
7881.6
7882.44
7883.24
7884.08
7884.87
7885.71
7886.48
7887.3
7888.04
7888.86
7889.58
7890.39
7891.1
7891.8
7892.51
7893.17
7893.9
7894.45
7895.49
7896.09
7896.5
7896.98
7897.48
7897.99
7898.51
7899.01
7899.51
7899.99
7900.47
7900.93
7901.38
7901.82
7902.26
7902.69
7903.11
7903.52
7903.93
7904.34
7904.74
7905.14
7905.53
7905.92
7906.3
7906.68
7907.05
7907.42
7907.79
7908.15
7908.5
7908.85
7909.19
7909.53
7909.86
7910.18
7910.5
7910.81
7911.12
7911.42
7911.72
7912.01
7912.29
7912.57
7912.84
7913.11
7913.37
7913.62
7913.87
7914.11
7914.35
7914.58
7914.8
7915.02
7915.23
7915.43
7915.63
7915.82
7916.01
7916.19
7916.37
7916.54
7916.7
7916.86
7917.01
7917.16
7917.3
7917.43
7917.56
7917.68
7917.8
7917.91
7918.02
7918.12
7918.21
7918.3
7918.38
7918.46
7918.53
7918.6
7918.66
7918.72
7918.77
7918.81
7918.85
7918.89
7918.91
7918.94
7918.95
7918.97
7918.97
7918.97
7918.99
7918.9
7646.32
7629.4
7634.99
7632.46
7629.3
7624.73
7621.12
7615.52
7610.39
7604.99
7599.37
7593.58
7587.68
7581.72
7575.75
7569.79
7563.86
7557.94
7552.04
7546.12
7540.18
7534.22
7528.23
7522.23
7516.22
7510.2
7504.19
7498.18
7492.15
7486.14
7480.22
7474.32
7468.41
7462.55
7456.7
7450.92
7445.21
7439.57
7433.96
7428.4
7422.9
7417.43
7412.08
7406.85
7401.69
7396.55
7391.52
7386.55
7381.48
7376.34
7371.71
7367.72
7363.35
7359
7354.76
7350.65
7346.65
7342.79
7339.05
7335.42
7331.91
7328.54
7325.15
7321.67
7318.48
7316.03
7313.58
7311.01
7308.53
7306.16
7303.91
7301.76
7299.7
7297.65
7295.53
7293.6
7292.04
7290.57
7288.96
7287.44
7285.89
7284.29
7283.05
7282.19
7281.53
7280.66
7279.79
7278.97
7278.46
7278.3
7278.25
7278.72
7280.08
7278.1
7270.75
7269.85
7276.39
7274.98
7277.8
7276.76
7276.79
7277.64
7279.96
7281.43
7282.82
7284.57
7285.74
7287.94
7289.51
7292.33
7295.44
7299.02
7299.76
7302.55
7301.61
7305.1
7315.07
7319.64
7324.36
7329.02
7333.75
7339.38
7346.37
7352.51
7359.23
7365.68
7373.02
7380.8
7389
7396.05
7404.69
7409.53
7418.56
7431.56
7441.54
7452.25
7462.18
7472.6
7482.51
7493.66
7505.53
7517.18
7529.12
7541.07
7553.16
7565.34
7577.88
7590.59
7603.67
7616.63
7629.66
7642.74
7655.8
7669
7682.41
7695.84
7709.18
7722.49
7735.82
7749.1
7762.26
7775.45
7788.73
7801.89
7814.9
7827.83
7840.62
7853.22
7865.76
7878.29
7890.63
7902.74
7914.67
7926.33
7937.83
7949.27
7960.49
7971.4
7982.07
7992.42
8002.55
8012.53
8022.37
8031.84
8041
8049.89
8058.48
8066.82
8074.91
8082.73
8090.19
8097.43
8104.49
8111.2
8117.63
8123.83
8129.75
8135.35
8140.68
8145.86
8150.75
8155.41
8159.83
8163.94
8167.91
8171.7
8175.38
8178.82
8182.05
8185.09
8187.92
8190.69
8193.36
8195.99
8198.45
8200.78
8202.97
8205.09
8207.19
8209.29
8211.32
8213.25
8215.06
8216.86
8218.62
8220.35
8222.04
8223.6
8225.08
8226.44
8227.69
8228.92
8230.07
8231.16
8232.2
8233.09
8233.88
8234.57
8235.11
8235.6
8236.05
8236.44
8236.67
8236.75
8236.76
8236.71
8236.57
8236.36
8236.07
8235.64
8235.1
8234.42
8233.65
8232.82
8231.89
8230.9
8229.78
8228.5
8227.11
8225.65
8224.12
8222.46
8220.67
8218.76
8216.72
8214.61
8212.39
8210.04
8207.59
8205.02
8202.33
8199.49
8196.6
8193.61
8190.51
8187.28
8183.95
8180.51
8176.94
8173.31
8169.6
8165.81
8161.91
8157.92
8153.84
8149.65
8145.43
8141.16
8136.83
8132.42
8127.94
8123.4
8118.84
8114.25
8109.62
8104.96
8100.26
8095.54
8090.8
8086.06
8081.33
8076.59
8071.84
8067.09
8062.38
8057.69
8053.01
8048.33
8043.7
8039.11
8034.55
8030.02
8025.52
8021.07
8016.69
8012.35
8008.05
8003.8
7999.61
7995.48
7991.41
7987.39
7983.44
7979.55
7975.73
7971.96
7968.26
7964.63
7961.07
7957.57
7954.14
7950.77
7947.48
7944.26
7941.1
7938
7934.97
7932.01
7929.11
7926.28
7923.51
7920.81
7918.17
7915.59
7913.08
7910.63
7908.23
7905.89
7903.61
7901.38
7899.2
7897.09
7895.02
7893.01
7891.05
7889.13
7887.26
7885.45
7883.68
7881.96
7880.28
7878.64
7877.05
7875.51
7874
7872.54
7871.13
7869.75
7868.43
7867.14
7865.91
7864.72
7863.58
7862.5
7861.47
7860.49
7859.56
7858.69
7857.88
7857.12
7856.41
7855.77
7855.18
7854.65
7854.18
7853.77
7853.41
7853.11
7852.87
7852.68
7852.54
7852.46
7852.43
7852.45
7852.52
7852.64
7852.8
7853.02
7853.27
7853.57
7853.91
7854.29
7854.7
7855.16
7855.64
7856.17
7856.71
7857.29
7857.89
7858.51
7859.17
7859.84
7860.57
7861.28
7862.06
7862.79
7863.46
7864.23
7864.96
7865.75
7866.52
7867.34
7868.12
7868.95
7869.76
7870.61
7871.43
7872.29
7873.12
7873.98
7874.82
7875.67
7876.53
7877.38
7878.24
7879.07
7879.93
7880.75
7881.62
7882.43
7883.31
7884.09
7884.97
7885.72
7886.6
7887.33
7888.23
7888.92
7889.75
7890.41
7891.29
7891.84
7892.97
7893.61
7894.03
7894.55
7895.1
7895.65
7896.21
7896.79
7897.34
7897.88
7898.4
7898.91
7899.41
7899.9
7900.38
7900.85
7901.32
7901.77
7902.22
7902.66
7903.09
7903.52
7903.94
7904.36
7904.76
7905.17
7905.57
7905.96
7906.35
7906.73
7907.11
7907.48
7907.84
7908.2
7908.56
7908.91
7909.25
7909.59
7909.92
7910.25
7910.57
7910.88
7911.19
7911.5
7911.79
7912.08
7912.37
7912.64
7912.92
7913.18
7913.44
7913.7
7913.94
7914.18
7914.42
7914.65
7914.87
7915.09
7915.3
7915.51
7915.7
7915.9
7916.08
7916.27
7916.44
7916.61
7916.77
7916.93
7917.08
7917.23
7917.37
7917.5
7917.63
7917.75
7917.87
7917.98
7918.09
7918.19
7918.28
7918.37
7918.45
7918.53
7918.6
7918.67
7918.73
7918.79
7918.84
7918.88
7918.92
7918.95
7918.98
7919
7919.02
7919.03
7919.04
7919.03
7919.06
7918.97
7617.69
7602.95
7627.57
7620.75
7624.38
7618.93
7617.92
7613.5
7608.76
7603.67
7598.31
7592.73
7586.98
7581.13
7575.23
7569.3
7563.35
7557.4
7551.45
7545.49
7539.52
7533.52
7527.5
7521.46
7515.42
7509.37
7503.31
7497.26
7491.24
7485.28
7479.3
7473.33
7467.39
7461.43
7455.31
7449.27
7443.88
7438.36
7432.71
7427.13
7421.56
7415.84
7409.96
7404.71
7400.15
7395.04
7389.96
7384.77
7379.19
7374.15
7369.49
7365.38
7361.52
7357.22
7352.97
7348.83
7344.8
7340.91
7337.15
7333.49
7329.97
7326.58
7323.31
7320.13
7317.01
7313.81
7310.94
7308.45
7306.34
7304.02
7301.74
7299.58
7297.51
7295.45
7293.29
7291.38
7289.67
7288.35
7287.06
7285.62
7284.27
7282.92
7281.69
7280.86
7280.25
7279.57
7278.89
7278.08
7277.32
7276.89
7276.54
7276.35
7276.47
7276.78
7277.79
7279.67
7277.48
7269.51
7270.19
7279.11
7278.34
7280.89
7280.15
7280.45
7282.59
7285.94
7288.05
7290.09
7292.09
7294.3
7296.28
7298.42
7301.91
7305.54
7309.68
7310.8
7314.14
7313.56
7318.07
7329.75
7335.1
7340.62
7346.16
7351.88
7358.7
7366.74
7373.65
7381.38
7388.4
7396.27
7405.07
7413.45
7422.94
7431.04
7440.25
7446.18
7456
7470.23
7480.98
7492.53
7503.8
7514.9
7526.74
7539.31
7551.57
7563.97
7576.45
7589.34
7602.42
7615.53
7628.67
7641.9
7655.1
7668.44
7681.97
7695.4
7708.8
7722.16
7735.55
7749.06
7762.42
7775.72
7788.95
7802.16
7815.24
7828.25
7841.18
7853.96
7866.62
7879.15
7891.5
7903.67
7915.61
7927.38
7939.13
7950.57
7961.77
7972.72
7983.35
7993.75
8004.02
8014.17
8023.93
8033.39
8042.58
8051.44
8059.95
8068.28
8076.46
8084.39
8091.92
8099.16
8106.01
8112.62
8119.03
8125.31
8131.26
8136.88
8142.23
8147.22
8152.04
8156.7
8161.16
8165.34
8169.26
8173.13
8176.73
8180.13
8183.3
8186.27
8189.17
8191.94
8194.69
8197.26
8199.67
8201.99
8204.19
8206.26
8208.32
8210.36
8212.36
8214.28
8216.1
8217.81
8219.55
8221.27
8222.87
8224.38
8225.84
8227.22
8228.49
8229.62
8230.74
8231.81
8232.83
8233.73
8234.51
8235.19
8235.69
8236.22
8236.7
8237.04
8237.27
8237.4
8237.37
8237.31
8237.19
8237.03
8236.72
8236.29
8235.77
8235.08
8234.34
8233.53
8232.67
8231.68
8230.56
8229.33
8227.93
8226.51
8225
8223.36
8221.59
8219.69
8217.65
8215.56
8213.39
8211.08
8208.63
8206.08
8203.38
8200.56
8197.69
8194.72
8191.61
8188.39
8185.06
8181.62
8178.06
8174.4
8170.69
8166.88
8162.97
8158.96
8154.87
8150.67
8146.43
8142.14
8137.76
8133.32
8128.81
8124.24
8119.66
8115.04
8110.37
8105.66
8100.93
8096.17
8091.41
8086.64
8081.86
8077.07
8072.29
8067.52
8062.76
8058.02
8053.3
8048.6
8043.93
8039.3
8034.71
8030.15
8025.62
8021.15
8016.73
8012.36
8008.03
8003.76
7999.55
7995.39
7991.29
7987.25
7983.28
7979.37
7975.52
7971.74
7968.03
7964.38
7960.79
7957.28
7953.83
7950.46
7947.15
7943.91
7940.74
7937.63
7934.58
7931.61
7928.71
7925.87
7923.09
7920.38
7917.72
7915.14
7912.61
7910.14
7907.74
7905.38
7903.09
7900.85
7898.67
7896.54
7894.46
7892.44
7890.47
7888.54
7886.66
7884.84
7883.06
7881.32
7879.63
7877.98
7876.38
7874.83
7873.32
7871.85
7870.42
7869.04
7867.7
7866.41
7865.17
7863.98
7862.83
7861.75
7860.71
7859.72
7858.79
7857.92
7857.11
7856.35
7855.65
7855
7854.42
7853.89
7853.43
7853.02
7852.67
7852.37
7852.14
7851.96
7851.83
7851.76
7851.74
7851.77
7851.86
7852
7852.18
7852.4