/*--------------------------------*- C++ -*----------------------------------*\
| =========                 |                                                 |
| \\      /  F ield         | OpenFOAM: The Open Source CFD Toolbox           |
|  \\    /   O peration     | Version:  v2006                                 |
|   \\  /    A nd           | Website:  www.openfoam.com                      |
|    \\/     M anipulation  |                                                 |
\*---------------------------------------------------------------------------*/
FoamFile
{
    version     2.0;
    format      ascii;
    class       surfaceScalarField;
    location    "6.2";
    object      phi;
}
// * * * * * * * * * * * * * * * * * * * * * * * * * * * * * * * * * * * * * //

dimensions      [0 3 -1 0 0 0 0];
oriented        oriented;


internalField   nonuniform List<scalar> 
65390
(
-6.09177e-06
1.90146e-06
-2.02585e-06
-4.06598e-06
2.65473e-06
-4.68063e-06
7.84724e-06
-5.19255e-06
1.22488e-05
-4.40158e-06
1.61211e-05
-3.87228e-06
1.91423e-05
-3.02121e-06
2.16519e-05
-2.50969e-06
2.41866e-05
-2.53463e-06
2.69714e-05
-2.78485e-06
3.001e-05
-3.0386e-06
3.27724e-05
-2.76238e-06
3.46355e-05
-1.86307e-06
3.45998e-05
3.56644e-08
3.21905e-05
2.40932e-06
2.78005e-05
4.38997e-06
2.2156e-05
5.64449e-06
1.51747e-05
6.98135e-06
5.7432e-06
9.4315e-06
-4.56671e-06
1.03099e-05
-1.07334e-05
6.16665e-06
-1.4101e-05
3.36764e-06
-1.71172e-05
3.01621e-06
-1.98493e-05
2.73214e-06
-2.16689e-05
1.81952e-06
-2.32899e-05
1.621e-06
-2.53561e-05
2.06623e-06
-2.76041e-05
2.24797e-06
-2.99934e-05
2.38935e-06
-3.23462e-05
2.35282e-06
-3.44009e-05
2.05463e-06
-3.62681e-05
1.86719e-06
-3.82351e-05
1.96701e-06
-4.00461e-05
1.81105e-06
-4.1241e-05
1.19484e-06
-4.19582e-05
7.17161e-07
-4.2817e-05
8.5886e-07
-4.41924e-05
1.37535e-06
-4.61943e-05
2.00186e-06
-4.84555e-05
2.26122e-06
-5.02218e-05
1.76634e-06
-5.12311e-05
1.00923e-06
-5.19149e-05
6.83788e-07
-5.26169e-05
7.01954e-07
-5.3647e-05
1.03011e-06
-5.51368e-05
1.48981e-06
-5.6886e-05
1.74917e-06
-5.84185e-05
1.53253e-06
-5.94889e-05
1.07037e-06
-6.02263e-05
7.37401e-07
-6.07752e-05
5.48821e-07
-6.13191e-05
5.43898e-07
-6.18025e-05
4.83384e-07
-6.21221e-05
3.19557e-07
-6.2399e-05
2.76919e-07
-6.291e-05
5.11039e-07
-6.38441e-05
9.34037e-07
-6.50564e-05
1.21224e-06
-6.62027e-05
1.14631e-06
-6.70667e-05
8.64035e-07
-6.76452e-05
5.78432e-07
-6.81832e-05
5.38043e-07
-6.88634e-05
6.80119e-07
-6.96601e-05
7.96665e-07
-7.01763e-05
5.16211e-07
-7.00167e-05
-1.59591e-07
-6.91172e-05
-8.99504e-07
-6.77577e-05
-1.35954e-06
-6.62489e-05
-1.50878e-06
-6.45241e-05
-1.72483e-06
-6.24873e-05
-2.03678e-06
-6.00406e-05
-2.44671e-06
-5.68411e-05
-3.19954e-06
-5.25761e-05
-4.26502e-06
-4.73177e-05
-5.25841e-06
-4.13888e-05
-5.92889e-06
-3.52665e-05
-6.12229e-06
-2.87079e-05
-6.5586e-06
-2.35477e-05
-5.16022e-06
-2.11054e-05
-2.44232e-06
-2.15191e-05
4.13718e-07
-2.37521e-05
2.23297e-06
-2.56635e-05
1.91137e-06
-2.766e-05
1.99649e-06
-2.98492e-05
2.18923e-06
-3.05455e-05
6.96332e-07
-3.0838e-05
2.92488e-07
-3.1085e-05
2.46946e-07
-3.13134e-05
2.28418e-07
-3.13269e-05
1.34381e-08
-3.13048e-05
-2.20628e-08
-3.11644e-05
-1.40363e-07
-3.05361e-05
-6.28324e-07
-2.96522e-05
-8.83902e-07
-2.81951e-05
-1.45717e-06
-2.60525e-05
-2.14253e-06
-2.30611e-05
-2.99142e-06
-1.98385e-05
-3.22261e-06
-1.65057e-05
-3.3328e-06
-1.46499e-05
-1.85578e-06
-1.43486e-05
-3.01372e-07
-1.44851e-05
1.36486e-07
-1.50882e-05
6.03123e-07
-1.55489e-05
4.60661e-07
-1.62933e-05
7.44477e-07
-1.66908e-05
3.97507e-07
-1.6752e-05
6.11261e-08
-1.68248e-05
7.27997e-08
-1.69818e-05
1.57012e-07
-1.71798e-05
1.97993e-07
-1.73329e-05
1.5312e-07
-1.74753e-05
1.42384e-07
-1.7431e-05
-4.42874e-08
-1.71399e-05
-2.91149e-07
-1.64772e-05
-6.62688e-07
-1.55457e-05
-9.31505e-07
-1.41897e-05
-1.35599e-06
-1.33383e-05
-8.51413e-07
-1.32529e-05
-8.53803e-08
-1.33781e-05
1.2514e-07
-1.368e-05
3.01935e-07
-1.38944e-05
2.14338e-07
-1.43333e-05
4.38917e-07
-1.46768e-05
3.43484e-07
-1.4859e-05
1.8218e-07
-1.50674e-05
2.08388e-07
-1.52558e-05
1.88431e-07
-1.54399e-05
1.84068e-07
-1.56629e-05
2.23021e-07
-1.58603e-05
1.97396e-07
-1.60273e-05
1.6693e-07
-1.61916e-05
1.64336e-07
-1.6336e-05
1.44351e-07
-1.64854e-05
1.49406e-07
-1.66315e-05
1.46028e-07
-1.67774e-05
1.4589e-07
-1.6921e-05
1.43671e-07
-1.70541e-05
1.3301e-07
-1.71839e-05
1.29799e-07
-1.73021e-05
1.18186e-07
-1.74174e-05
1.15264e-07
-1.7529e-05
1.11651e-07
-1.76331e-05
1.04051e-07
-1.77274e-05
9.42787e-08
-1.78111e-05
8.36681e-08
-1.78808e-05
6.96845e-08
-1.79402e-05
5.94673e-08
-1.79936e-05
5.33183e-08
-1.80418e-05
4.82016e-08
-1.80842e-05
4.23734e-08
-1.81147e-05
3.0549e-08
-1.81288e-05
1.40824e-08
-1.81327e-05
3.8455e-09
-1.81306e-05
-2.06323e-09
-1.81224e-05
-8.21013e-09
-1.81069e-05
-1.55319e-08
-1.80805e-05
-2.63694e-08
-1.80447e-05
-3.58196e-08
-1.80007e-05
-4.39743e-08
-1.7948e-05
-5.27564e-08
-1.78868e-05
-6.11626e-08
-1.78167e-05
-7.01396e-08
-1.77394e-05
-7.73243e-08
-1.7657e-05
-8.24128e-08
-1.75659e-05
-9.10452e-08
-1.74621e-05
-1.0377e-07
-1.73493e-05
-1.12854e-07
-1.72325e-05
-1.16813e-07
-1.71113e-05
-1.21212e-07
-1.69788e-05
-1.32463e-07
-1.68329e-05
-1.45876e-07
-1.66785e-05
-1.54416e-07
-1.65204e-05
-1.58181e-07
-1.63579e-05
-1.62466e-07
-1.61869e-05
-1.70972e-07
-1.60022e-05
-1.84726e-07
-1.5807e-05
-1.95191e-07
-1.5606e-05
-2.01063e-07
-1.53985e-05
-2.07414e-07
-1.5182e-05
-2.16534e-07
-1.49564e-05
-2.25616e-07
-1.47256e-05
-2.30837e-07
-1.44895e-05
-2.36118e-07
-1.42437e-05
-2.45768e-07
-1.39849e-05
-2.58847e-07
-1.37115e-05
-2.73321e-07
-1.34298e-05
-2.81742e-07
-1.31433e-05
-2.86546e-07
-1.28509e-05
-2.92361e-07
-1.25509e-05
-3.00052e-07
-1.22383e-05
-3.12552e-07
-1.19132e-05
-3.25125e-07
-1.15754e-05
-3.37851e-07
-1.12285e-05
-3.46891e-07
-1.08767e-05
-3.51807e-07
-1.05165e-05
-3.60226e-07
-1.01459e-05
-3.70555e-07
-9.76207e-06
-3.83862e-07
-9.35993e-06
-4.02149e-07
-8.94245e-06
-4.17492e-07
-8.51661e-06
-4.25844e-07
-8.09007e-06
-4.26547e-07
-7.65928e-06
-4.30801e-07
-7.21711e-06
-4.4218e-07
-6.75916e-06
-4.5796e-07
-6.28539e-06
-4.73782e-07
-5.80496e-06
-4.80436e-07
-5.32493e-06
-4.80048e-07
-4.84613e-06
-4.78806e-07
-4.36231e-06
-4.8383e-07
-3.86916e-06
-4.93169e-07
-3.37512e-06
-4.94045e-07
-2.89324e-06
-4.81895e-07
-2.42605e-06
-4.67205e-07
-1.95898e-06
-4.67087e-07
-1.48986e-06
-4.69141e-07
-1.02721e-06
-4.62667e-07
-5.77622e-07
-4.49609e-07
-1.51099e-07
-4.26543e-07
2.52365e-07
-4.03486e-07
6.42635e-07
-3.90291e-07
1.02629e-06
-3.83676e-07
1.40367e-06
-3.77397e-07
1.77019e-06
-3.66542e-07
2.12196e-06
-3.51789e-07
2.45466e-06
-3.32717e-07
2.77396e-06
-3.19314e-07
3.0851e-06
-3.11163e-07
3.38948e-06
-3.04393e-07
3.68879e-06
-2.99315e-07
3.98049e-06
-2.91715e-07
4.26047e-06
-2.79982e-07
4.52692e-06
-2.66459e-07
4.78568e-06
-2.58761e-07
5.03947e-06
-2.53792e-07
5.28735e-06
-2.47886e-07
5.52985e-06
-2.42495e-07
5.7662e-06
-2.36354e-07
5.99481e-06
-2.28605e-07
6.21654e-06
-2.21726e-07
6.43215e-06
-2.15608e-07
6.64063e-06
-2.08478e-07
6.84236e-06
-2.01732e-07
7.03904e-06
-1.96678e-07
7.23218e-06
-1.9314e-07
7.42228e-06
-1.90096e-07
7.60821e-06
-1.85929e-07
7.78781e-06
-1.79604e-07
7.95819e-06
-1.70377e-07
8.12476e-06
-1.66567e-07
8.29048e-06
-1.65711e-07
8.45281e-06
-1.62324e-07
8.61046e-06
-1.5765e-07
8.76292e-06
-1.52448e-07
8.90929e-06
-1.46367e-07
9.05161e-06
-1.42312e-07
9.19078e-06
-1.39161e-07
9.32633e-06
-1.35541e-07
9.45829e-06
-1.31959e-07
9.5858e-06
-1.27498e-07
9.70847e-06
-1.2267e-07
9.8268e-06
-1.18323e-07
9.94154e-06
-1.14737e-07
1.00534e-05
-1.11819e-07
1.01617e-05
-1.08331e-07
1.02648e-05
-1.0316e-07
1.03616e-05
-9.67168e-08
1.04529e-05
-9.1293e-08
1.05411e-05
-8.82852e-08
1.06269e-05
-8.5743e-08
1.07085e-05
-8.16578e-08
1.07856e-05
-7.70312e-08
1.08573e-05
-7.17845e-08
1.09228e-05
-6.54567e-08
1.09829e-05
-6.00498e-08
1.10386e-05
-5.57411e-08
1.10899e-05
-5.12799e-08
1.11365e-05
-4.65822e-08
1.11781e-05
-4.16135e-08
1.12149e-05
-3.67441e-08
1.12468e-05
-3.18914e-08
1.12725e-05
-2.57467e-08
1.12912e-05
-1.8634e-08
1.13047e-05
-1.34775e-08
1.1314e-05
-9.32135e-09
1.13183e-05
-4.28916e-09
1.13171e-05
1.28768e-09
1.13102e-05
6.83649e-09
1.12976e-05
1.26839e-08
1.12785e-05
1.90958e-08
1.12536e-05
2.48555e-08
1.12238e-05
2.98232e-08
1.11889e-05
3.48936e-08
1.11488e-05
4.00903e-08
1.11034e-05
4.54854e-08
1.10516e-05
5.17319e-08
1.09941e-05
5.75449e-08
1.09315e-05
6.25963e-08
1.08638e-05
6.76931e-08
1.07914e-05
7.22926e-08
1.07143e-05
7.71004e-08
1.06313e-05
8.30228e-08
1.05431e-05
8.81661e-08
1.04505e-05
9.25408e-08
1.03537e-05
9.67873e-08
1.02524e-05
1.01313e-07
1.01464e-05
1.05995e-07
1.00361e-05
1.10288e-07
9.9221e-06
1.13965e-07
9.80499e-06
1.17101e-07
9.68414e-06
1.20835e-07
9.55879e-06
1.25335e-07
9.4295e-06
1.2927e-07
9.29765e-06
1.31838e-07
9.16373e-06
1.33904e-07
9.02701e-06
1.36716e-07
8.88702e-06
1.39984e-07
8.74451e-06
1.42503e-07
8.59979e-06
1.44725e-07
8.45307e-06
1.46727e-07
8.30417e-06
1.48926e-07
8.15237e-06
1.51825e-07
7.99826e-06
1.5414e-07
7.84259e-06
1.55702e-07
7.68507e-06
1.57558e-07
7.52475e-06
1.6036e-07
7.36102e-06
1.63776e-07
7.19488e-06
1.66188e-07
7.02696e-06
1.67968e-07
6.85692e-06
1.70087e-07
6.68374e-06
1.73233e-07
6.50619e-06
1.77597e-07
6.32509e-06
1.81153e-07
6.14189e-06
1.83252e-07
5.95724e-06
1.8469e-07
5.77087e-06
1.86413e-07
5.58233e-06
1.88578e-07
5.39144e-06
1.90921e-07
5.19809e-06
1.93378e-07
5.00321e-06
1.94892e-07
4.80767e-06
1.95542e-07
4.61153e-06
1.96134e-07
4.4148e-06
1.96716e-07
4.21681e-06
1.97973e-07
4.01764e-06
1.99148e-07
3.81881e-06
1.98797e-07
3.6211e-06
1.97683e-07
3.42447e-06
1.96592e-07
3.22832e-06
1.96102e-07
3.03229e-06
1.95988e-07
2.83709e-06
1.95152e-07
2.6441e-06
1.92931e-07
2.45355e-06
1.90496e-07
2.26434e-06
1.89164e-07
2.07674e-06
1.87554e-07
1.89183e-06
1.84868e-07
1.70975e-06
1.82051e-07
1.53045e-06
1.79277e-07
1.35408e-06
1.76361e-07
1.18093e-06
1.7316e-07
1.01114e-06
1.69801e-07
8.44859e-07
1.66306e-07
6.82211e-07
1.62681e-07
5.23048e-07
1.59205e-07
3.67509e-07
1.55586e-07
2.15909e-07
1.51651e-07
6.87889e-08
1.47172e-07
-7.3826e-08
1.42664e-07
-2.12028e-07
1.38244e-07
-3.46175e-07
1.34181e-07
-4.76228e-07
1.30076e-07
-6.0184e-07
1.25623e-07
-7.22716e-07
1.20877e-07
-8.39002e-07
1.16279e-07
-9.51064e-07
1.12047e-07
-1.05887e-06
1.07791e-07
-1.16231e-06
1.03411e-07
-1.26142e-06
9.90934e-08
-1.35644e-06
9.50018e-08
-1.44735e-06
9.08946e-08
-1.53367e-06
8.63106e-08
-1.61518e-06
8.14994e-08
-1.692e-06
7.68075e-08
-1.76449e-06
7.24786e-08
-1.83269e-06
6.81927e-08
-1.89665e-06
6.39499e-08
-1.95651e-06
5.98526e-08
-2.01186e-06
5.53298e-08
-2.0626e-06
5.07347e-08
-2.10905e-06
4.64323e-08
-2.15167e-06
4.26075e-08
-2.19015e-06
3.84677e-08
-2.22421e-06
3.4048e-08
-2.25394e-06
2.97257e-08
-2.27975e-06
2.58023e-08
-2.30145e-06
2.16992e-08
-2.31937e-06
1.79158e-08
-2.33385e-06
1.44776e-08
-2.3448e-06
1.095e-08
-2.35209e-06
7.28754e-09
-2.3555e-06
3.40372e-09
-2.35503e-06
-4.69714e-10
-2.35115e-06
-3.87506e-09
-2.34425e-06
-6.908e-09
-2.33404e-06
-1.02056e-08
-2.3212e-06
-1.28415e-08
-2.30449e-06
-1.67116e-08
-2.28473e-06
-1.9771e-08
-2.26132e-06
-2.34109e-08
-2.23539e-06
-2.59342e-08
-2.20728e-06
-2.81153e-08
-2.17661e-06
-3.06704e-08
-2.14476e-06
-3.18617e-08
-2.10874e-06
-3.6018e-08
-2.07136e-06
-3.73866e-08
-2.03233e-06
-3.90366e-08
-1.99135e-06
-4.09883e-08
-1.95201e-06
-3.93438e-08
-1.91356e-06
-3.84555e-08
-1.86689e-06
-4.66704e-08
-1.82082e-06
-4.60742e-08
-1.77234e-06
-4.848e-08
-1.71833e-06
-5.40155e-08
-1.68925e-06
-2.90878e-08
-1.66523e-06
-2.40214e-08
-1.61158e-06
-5.36526e-08
-1.57274e-06
-3.88434e-08
-1.49098e-06
-8.17589e-08
-1.38585e-06
-1.05133e-07
-1.17345e-06
-2.12399e-07
-8.98769e-07
-2.74682e-07
-6.98347e-07
-2.00423e-07
-5.36111e-07
-1.62237e-07
-4.13317e-07
-1.22795e-07
-3.13085e-07
-1.00233e-07
-2.25959e-07
-8.71272e-08
-1.38886e-07
-8.70751e-08
-5.4702e-08
-8.41861e-08
2.7132e-08
-8.1836e-08
1.02102e-07
-7.49717e-08
1.83944e-07
-8.18449e-08
2.19425e-07
-3.54826e-08
2.35564e-07
-1.61412e-08
2.96111e-07
-6.05486e-08
3.36091e-07
-3.99813e-08
4.37038e-07
-1.00949e-07
5.75586e-07
-1.3855e-07
8.87178e-07
-3.11593e-07
1.30543e-06
-4.18249e-07
1.62186e-06
-3.1644e-07
1.88921e-06
-2.67348e-07
2.07283e-06
-1.83625e-07
2.2322e-06
-1.59365e-07
2.36178e-06
-1.29581e-07
2.47573e-06
-1.13961e-07
2.56853e-06
-9.28015e-08
2.63772e-06
-6.9188e-08
2.70611e-06
-6.83909e-08
2.76939e-06
-6.32844e-08
2.82222e-06
-5.28332e-08
2.90305e-06
-8.08325e-08
2.93703e-06
-3.39719e-08
2.88964e-06
4.73841e-08
2.89219e-06
-2.54748e-09
2.84294e-06
4.92473e-08
2.85624e-06
-1.32987e-08
3.04651e-06
-1.90269e-07
3.46355e-06
-4.17047e-07
4.15962e-06
-6.96071e-07
5.03614e-06
-8.76517e-07
5.88095e-06
-8.44807e-07
6.58937e-06
-7.08422e-07
7.11908e-06
-5.29713e-07
7.51986e-06
-4.00773e-07
7.8376e-06
-3.17747e-07
8.10381e-06
-2.66207e-07
8.32981e-06
-2.25997e-07
8.52476e-06
-1.94952e-07
8.69613e-06
-1.71365e-07
8.85391e-06
-1.57784e-07
8.9986e-06
-1.44685e-07
9.12964e-06
-1.31037e-07
9.25298e-06
-1.23338e-07
9.36848e-06
-1.15502e-07
9.47542e-06
-1.06934e-07
9.57937e-06
-1.03947e-07
9.6776e-06
-9.82272e-08
9.76962e-06
-9.20191e-08
9.85659e-06
-8.69663e-08
9.94377e-06
-8.71784e-08
1.00276e-05
-8.38079e-08
1.01055e-05
-7.78817e-08
1.01789e-05
-7.34547e-08
1.02502e-05
-7.1288e-08
1.03201e-05
-6.99003e-08
1.03882e-05
-6.80393e-08
1.04538e-05
-6.56069e-08
1.05176e-05
-6.38556e-08
1.0579e-05
-6.13351e-08
1.06388e-05
-5.98557e-08
1.06938e-05
-5.50091e-08
1.0748e-05
-5.41355e-08
1.0804e-05
-5.6051e-08
1.0861e-05
-5.69391e-08
1.09174e-05
-5.64617e-08
1.09723e-05
-5.491e-08
1.10253e-05
-5.29684e-08
1.10764e-05
-5.11098e-08
1.1126e-05
-4.95985e-08
1.11747e-05
-4.86627e-08
1.12224e-05
-4.7675e-08
1.12688e-05
-4.64861e-08
1.13133e-05
-4.44095e-08
1.13592e-05
-4.59481e-08
1.14039e-05
-4.46843e-08
1.14445e-05
-4.06361e-08
1.14825e-05
-3.79824e-08
1.15195e-05
-3.69457e-08
1.15559e-05
-3.64607e-08
1.15924e-05
-3.64537e-08
1.16288e-05
-3.64603e-08
1.16651e-05
-3.62684e-08
1.1701e-05
-3.58595e-08
1.17361e-05
-3.51538e-08
1.17703e-05
-3.41942e-08
1.18035e-05
-3.32095e-08
1.1836e-05
-3.24898e-08
1.18683e-05
-3.22748e-08
1.19005e-05
-3.22254e-08
1.19324e-05
-3.18818e-08
1.19634e-05
-3.09809e-08
1.1993e-05
-2.96079e-08
1.20217e-05
-2.86862e-08
1.20504e-05
-2.87044e-08
1.20795e-05
-2.91307e-08
1.21084e-05
-2.88824e-08
1.21359e-05
-2.74831e-08
1.21625e-05
-2.66382e-08
1.21891e-05
-2.65705e-08
1.22167e-05
-2.76019e-08
1.22418e-05
-2.50675e-08
1.22677e-05
-2.59178e-08
1.22964e-05
-2.87144e-08
1.23297e-05
-3.32742e-08
1.23617e-05
-3.20768e-08
1.23914e-05
-2.96381e-08
1.24194e-05
-2.80354e-08
1.24473e-05
-2.7878e-08
1.24758e-05
-2.84974e-08
-3.23248e-08
1.41637e-06
-3.67962e-06
6.15507e-06
-8.80455e-06
8.52177e-06
-7.04722e-06
1.03902e-05
-7.0609e-06
1.17423e-05
-5.75356e-06
1.25107e-05
-4.64068e-06
1.29546e-05
-3.46505e-06
1.2991e-05
-2.54605e-06
1.27146e-05
-2.25811e-06
1.22906e-05
-2.36083e-06
1.16811e-05
-2.42912e-06
1.09702e-05
-2.05142e-06
9.72254e-06
-6.15366e-07
7.66874e-06
2.08948e-06
4.36406e-06
5.71401e-06
-1.02436e-07
8.85649e-06
-4.95214e-06
1.04942e-05
-8.89266e-06
1.09219e-05
-1.08897e-05
1.14286e-05
-1.14328e-05
1.0853e-05
-1.29025e-05
7.63643e-06
-1.56488e-05
6.11389e-06
-1.8422e-05
5.78944e-06
-2.05919e-05
4.90206e-06
-2.25768e-05
3.80438e-06
-2.45469e-05
3.59106e-06
-2.64094e-05
3.92881e-06
-2.8352e-05
4.1905e-06
-3.049e-05
4.52739e-06
-3.27394e-05
4.60216e-06
-3.49251e-05
4.24034e-06
-3.68556e-05
3.79774e-06
-3.84413e-05
3.55261e-06
-3.97962e-05
3.166e-06
-4.1006e-05
2.40461e-06
-4.2216e-05
1.92714e-06
-4.34761e-05
2.11898e-06
-4.48386e-05
2.73777e-06
-4.62695e-05
3.43273e-06
-4.77081e-05
3.69978e-06
-4.91866e-05
3.24487e-06
-5.05106e-05
2.33316e-06
-5.15251e-05
1.6983e-06
-5.25051e-05
1.68191e-06
-5.36439e-05
2.16891e-06
-5.49291e-05
2.77497e-06
-5.63357e-05
3.15571e-06
-5.78283e-05
3.02508e-06
-5.919e-05
2.43213e-06
-6.02838e-05
1.83115e-06
-6.10868e-05
1.35181e-06
-6.17047e-05
1.1617e-06
-6.22964e-05
1.07508e-06
-6.29187e-05
9.41844e-07
-6.35836e-05
9.41812e-07
-6.43818e-05
1.30917e-06
-6.51831e-05
1.73533e-06
-6.58271e-05
1.85618e-06
-6.6289e-05
1.60824e-06
-6.66447e-05
1.21966e-06
-6.71339e-05
1.06763e-06
-6.78357e-05
1.23979e-06
-6.86911e-05
1.53551e-06
-6.94777e-05
1.58323e-06
-7.00672e-05
1.10573e-06
-7.03224e-05
9.55622e-08
-7.0136e-05
-1.08589e-06
-6.96687e-05
-1.82691e-06
-6.90153e-05
-2.16223e-06
-6.8387e-05
-2.35311e-06
-6.7943e-05
-2.4808e-06
-6.7585e-05
-2.80471e-06
-6.69899e-05
-3.79471e-06
-6.59901e-05
-5.26477e-06
-6.43453e-05
-6.90329e-06
-6.18308e-05
-8.44341e-06
-5.81935e-05
-9.75964e-06
-5.39677e-05
-1.07844e-05
-4.86428e-05
-1.04852e-05
-4.27247e-05
-8.36041e-06
-3.55817e-05
-6.72929e-06
-2.8804e-05
-4.54474e-06
-2.55881e-05
-1.30458e-06
-2.55335e-05
1.94189e-06
-2.66689e-05
3.32458e-06
-2.79195e-05
1.94695e-06
-2.93882e-05
1.76116e-06
-3.10482e-05
1.90692e-06
-3.20378e-05
1.21802e-06
-3.21047e-05
8.037e-08
-3.18496e-05
-2.77168e-07
-3.17752e-05
-2.14753e-07
-3.15874e-05
-8.16185e-07
-3.15135e-05
-9.57777e-07
-3.14704e-05
-1.50035e-06
-3.13499e-05
-2.26303e-06
-3.13461e-05
-2.99516e-06
-3.09172e-05
-3.65156e-06
-2.9748e-05
-4.50205e-06
-2.71159e-05
-4.4878e-06
-2.3625e-05
-3.79229e-06
-1.9867e-05
-3.62152e-06
-1.74467e-05
-1.81726e-06
-1.64878e-05
-4.98194e-07
-1.58306e-05
8.73094e-08
-1.58407e-05
4.07585e-07
-1.60885e-05
3.08942e-07
-1.65597e-05
5.43901e-07
-1.72539e-05
8.51244e-07
-1.76485e-05
5.92632e-07
-1.76256e-05
1.30206e-07
-1.7644e-05
1.60771e-07
-1.76949e-05
6.60099e-09
-1.77805e-05
-2.05546e-07
-1.79921e-05
-4.51148e-07
-1.81159e-05
-8.07701e-07
-1.82628e-05
-1.20907e-06
-1.78964e-05
-1.21781e-06
-1.69534e-05
-1.02842e-06
-1.55939e-05
-1.23436e-06
-1.46315e-05
-6.60558e-07
-1.43977e-05
-1.94242e-08
-1.42904e-05
3.31594e-07
-1.4422e-05
4.75025e-07
-1.46304e-05
3.90591e-07
-1.50596e-05
6.37551e-07
-1.53876e-05
5.16404e-07
-1.55346e-05
3.31096e-07
-1.56853e-05
3.73626e-07
-1.58355e-05
3.4764e-07
-1.60011e-05
3.32491e-07
-1.62011e-05
3.64258e-07
-1.63714e-05
3.14635e-07
-1.65116e-05
2.89579e-07
-1.66487e-05
2.83098e-07
-1.678e-05
2.77187e-07
-1.69177e-05
2.8133e-07
-1.70527e-05
2.68032e-07
-1.71899e-05
2.66916e-07
-1.73156e-05
2.43914e-07
-1.74312e-05
2.3081e-07
-1.75408e-05
2.21222e-07
-1.76416e-05
2.04829e-07
-1.77349e-05
1.876e-07
-1.78183e-05
1.67051e-07
-1.78897e-05
1.40993e-07
-1.79524e-05
1.22142e-07
-1.80103e-05
1.11216e-07
-1.80594e-05
9.73258e-08
-1.80971e-05
8.00558e-08
-1.81219e-05
5.53116e-08
-1.81361e-05
2.82757e-08
-1.81431e-05
1.08372e-08
-1.81448e-05
-3.45717e-10
-1.81383e-05
-1.47049e-08
-1.81206e-05
-3.32635e-08
-1.80902e-05
-5.67962e-08
-1.80513e-05
-7.47144e-08
-1.80072e-05
-8.81297e-08
-1.79566e-05
-1.03317e-07
-1.78975e-05
-1.20262e-07
-1.78286e-05
-1.39085e-07
-1.77519e-05
-1.54055e-07
-1.7668e-05
-1.66321e-07
-1.75744e-05
-1.84561e-07
-1.74707e-05
-2.07568e-07
-1.73589e-05
-2.24604e-07
-1.72422e-05
-2.33529e-07
-1.71184e-05
-2.44992e-07
-1.69848e-05
-2.66086e-07
-1.684e-05
-2.90698e-07
-1.66866e-05
-3.07855e-07
-1.6528e-05
-3.16765e-07
-1.63622e-05
-3.2824e-07
-1.61877e-05
-3.45475e-07
-1.60042e-05
-3.68252e-07
-1.58111e-05
-3.88296e-07
-1.56094e-05
-4.02771e-07
-1.53993e-05
-4.17576e-07
-1.51792e-05
-4.36581e-07
-1.49527e-05
-4.52168e-07
-1.47214e-05
-4.62169e-07
-1.44824e-05
-4.75081e-07
-1.42343e-05
-4.93926e-07
-1.39749e-05
-5.18253e-07
-1.37026e-05
-5.45593e-07
-1.34204e-05
-5.63967e-07
-1.31297e-05
-5.7729e-07
-1.28318e-05
-5.90191e-07
-1.25294e-05
-6.02518e-07
-1.22191e-05
-6.22874e-07
-1.18978e-05
-6.46393e-07
-1.15629e-05
-6.72762e-07
-1.1214e-05
-6.95804e-07
-1.08541e-05
-7.11716e-07
-1.04868e-05
-7.27631e-07
-1.01135e-05
-7.4385e-07
-9.73084e-06
-7.66516e-07
-9.33324e-06
-7.99766e-07
-8.92066e-06
-8.30093e-07
-8.49952e-06
-8.47004e-07
-8.07311e-06
-8.52971e-07
-7.63726e-06
-8.66665e-07
-7.18907e-06
-8.90385e-07
-6.73001e-06
-9.17038e-07
-6.2647e-06
-9.39105e-07
-5.79553e-06
-9.49623e-07
-5.3227e-06
-9.52901e-07
-4.84392e-06
-9.57601e-07
-4.35946e-06
-9.68318e-07
-3.87292e-06
-9.79729e-07
-3.39055e-06
-9.76441e-07
-2.91723e-06
-9.55244e-07
-2.44781e-06
-9.36651e-07
-1.98065e-06
-9.3428e-07
-1.51812e-06
-9.31701e-07
-1.06468e-06
-9.16144e-07
-6.22507e-07
-8.91818e-07
-1.94522e-07
-8.54565e-07
2.16643e-07
-8.14687e-07
6.1319e-07
-7.86876e-07
9.98529e-07
-7.69051e-07
1.3748e-06
-7.53705e-07
1.73939e-06
-7.31167e-07
2.09175e-06
-7.04173e-07
2.43101e-06
-6.72003e-07
2.75706e-06
-6.45392e-07
3.07145e-06
-6.25575e-07
3.37689e-06
-6.09855e-07
3.67486e-06
-5.97302e-07
3.9647e-06
-5.8156e-07
4.24551e-06
-5.60802e-07
4.51583e-06
-5.36786e-07
4.77713e-06
-5.20071e-07
5.03211e-06
-5.08764e-07
5.28186e-06
-4.97639e-07
5.52555e-06
-4.8618e-07
5.76245e-06
-4.73251e-07
5.99147e-06
-4.57627e-07
6.21237e-06
-4.4262e-07
6.42613e-06
-4.29371e-07
6.63447e-06
-4.16812e-07
6.83845e-06
-4.05714e-07
7.03836e-06
-3.96585e-07
7.23312e-06
-3.87892e-07
7.42233e-06
-3.79306e-07
7.60603e-06
-3.69624e-07
7.78448e-06
-3.58053e-07
7.95749e-06
-3.43381e-07
8.12628e-06
-3.3535e-07
8.29192e-06
-3.3134e-07
8.45369e-06
-3.24083e-07
8.61009e-06
-3.14041e-07
8.76142e-06
-3.0377e-07
8.90883e-06
-2.93765e-07
9.05313e-06
-2.86603e-07
9.19388e-06
-2.799e-07
9.33026e-06
-2.71913e-07
9.46166e-06
-2.63353e-07
9.58761e-06
-2.53448e-07
9.70962e-06
-2.44674e-07
9.82917e-06
-2.3787e-07
9.94541e-06
-2.30978e-07
1.00575e-05
-2.23911e-07
1.01652e-05
-2.16044e-07
1.02678e-05
-2.05715e-07
1.0365e-05
-1.93946e-07
1.04579e-05
-1.84202e-07
1.05472e-05
-1.77549e-07
1.06328e-05
-1.71426e-07
1.07141e-05
-1.62924e-07
1.07903e-05
-1.53251e-07
1.08615e-05
-1.42943e-07
1.0928e-05
-1.31963e-07
1.09896e-05
-1.21636e-07
1.1046e-05
-1.12129e-07
1.10972e-05
-1.02417e-07
1.11435e-05
-9.28075e-08
1.11849e-05
-8.30724e-08
1.12217e-05
-7.34412e-08
1.12533e-05
-6.35076e-08
1.12789e-05
-5.13332e-08
1.12984e-05
-3.80071e-08
1.13126e-05
-2.76947e-08
1.13221e-05
-1.87677e-08
1.13261e-05
-8.3035e-09
1.13243e-05
3.13862e-09
1.13167e-05
1.44437e-08
1.13038e-05
2.56493e-08
1.12852e-05
3.76541e-08
1.12611e-05
4.90183e-08
1.12314e-05
5.94632e-08
1.1196e-05
7.0304e-08
1.11549e-05
8.11746e-08
1.11086e-05
9.18006e-08
1.10571e-05
1.03211e-07
1.10004e-05
1.142e-07
1.0938e-05
1.25062e-07
1.08694e-05
1.36249e-07
1.07958e-05
1.4585e-07
1.07179e-05
1.54915e-07
1.06355e-05
1.6538e-07
1.05479e-05
1.75739e-07
1.04545e-05
1.85953e-07
1.03566e-05
1.94694e-07
1.02552e-05
2.02674e-07
1.01497e-05
2.11505e-07
1.00392e-05
2.20729e-07
9.92438e-06
2.28769e-07
9.80618e-06
2.35286e-07
9.68476e-06
2.42237e-07
9.55987e-06
2.50208e-07
9.43075e-06
2.58369e-07
9.29812e-06
2.64457e-07
9.16315e-06
2.68857e-07
9.02592e-06
2.73947e-07
8.88614e-06
2.79766e-07
8.74346e-06
2.85194e-07
8.59774e-06
2.90465e-07
8.4496e-06
2.94894e-07
8.29957e-06
2.99e-07
8.14762e-06
3.03815e-07
7.99356e-06
3.08253e-07
7.83709e-06
3.12223e-07
7.67782e-06
3.16893e-07
7.51593e-06
3.2232e-07
7.3518e-06
3.27978e-07
7.18546e-06
3.32597e-07
7.01675e-06
3.36754e-07
6.84512e-06
3.41794e-07
6.67047e-06
3.47956e-07
6.49296e-06
3.55189e-07
6.3126e-06
3.61581e-07
6.12983e-06
3.66089e-07
5.94486e-06
3.69715e-07
5.75761e-06
3.73716e-07
5.56838e-06
3.77847e-07
5.3776e-06
3.81737e-07
5.18521e-06
3.85786e-07
4.99107e-06
3.89036e-07
4.79535e-06
3.91258e-07
4.59877e-06
3.92704e-07
4.40152e-06
3.93938e-07
4.2034e-06
3.9607e-07
4.00533e-06
3.97185e-07
3.80768e-06
3.96401e-07
3.61024e-06
3.95084e-07
3.41322e-06
3.93556e-07
3.21691e-06
3.92357e-07
3.02168e-06
3.91153e-07
2.82781e-06
3.88958e-07
2.63542e-06
3.85251e-07
2.44471e-06
3.81142e-07
2.25601e-06
3.77802e-07
2.06945e-06
3.74057e-07
1.88492e-06
3.69355e-07
1.70262e-06
3.6432e-07
1.52325e-06
3.58634e-07
1.34712e-06
3.52489e-07
1.17419e-06
3.46111e-07
1.00446e-06
3.39569e-07
8.38082e-07
3.32742e-07
6.75412e-07
3.25419e-07
5.16529e-07
3.18165e-07
3.61569e-07
3.10626e-07
2.10586e-07
3.02714e-07
6.35962e-08
2.94235e-07
-7.92495e-08
2.85572e-07
-2.17907e-07
2.7695e-07
-3.52326e-07
2.68633e-07
-4.82439e-07
2.60206e-07
-6.08222e-07
2.51408e-07
-7.2945e-07
2.42095e-07
-8.46152e-07
2.3296e-07
-9.58478e-07
2.24346e-07
-1.06656e-06
2.15846e-07
-1.17045e-06
2.0727e-07
-1.26988e-06
1.98496e-07
-1.36468e-06
1.89777e-07
-1.45504e-06
1.81231e-07
-1.5411e-06
1.72345e-07
-1.62282e-06
1.63206e-07
-1.69996e-06
1.5393e-07
-1.77277e-06
1.45264e-07
-1.8412e-06
1.36605e-07
-1.90531e-06
1.28034e-07
-1.96495e-06
1.19475e-07
-2.02011e-06
1.1046e-07
-2.07102e-06
1.01624e-07
-2.11773e-06
9.31272e-08
-2.16002e-06
8.48765e-08
-2.19787e-06
7.63029e-08
-2.23171e-06
6.78679e-08
-2.26168e-06
5.96872e-08
-2.28774e-06
5.18483e-08
-2.30955e-06
4.35073e-08
-2.3274e-06
3.57579e-08
-2.34123e-06
2.83099e-08
-2.35145e-06
2.11673e-08
-2.35847e-06
1.43053e-08
-2.3618e-06
6.73289e-09
-2.36156e-06
-7.14535e-10
-2.35789e-06
-7.54303e-09
-2.35076e-06
-1.40475e-08
-2.34004e-06
-2.09287e-08
-2.32666e-06
-2.62215e-08
-2.31004e-06
-3.3339e-08
-2.29119e-06
-3.86324e-08
-2.26913e-06
-4.54815e-08
-2.24297e-06
-5.20943e-08
-2.21415e-06
-5.69459e-08
-2.18127e-06
-6.35547e-08
-2.14761e-06
-6.55388e-08
-2.1112e-06
-7.24362e-08
-2.07704e-06
-7.15457e-08
-2.04242e-06
-7.36654e-08
-1.99936e-06
-8.40613e-08
-1.95334e-06
-8.53738e-08
-1.9023e-06
-8.94952e-08
-1.8512e-06
-9.77807e-08
-1.82649e-06
-7.07934e-08
-1.80842e-06
-6.65568e-08
-1.75991e-06
-1.02531e-07
-1.69731e-06
-9.16916e-08
-1.58279e-06
-1.38544e-07
-1.45681e-06
-1.79643e-07
-1.23833e-06
-2.5732e-07
-9.80453e-07
-3.3964e-07
-7.87936e-07
-2.97652e-07
-6.66638e-07
-3.337e-07
-6.12765e-07
-3.28556e-07
-5.39427e-07
-2.73763e-07
-4.68165e-07
-2.33501e-07
-3.7693e-07
-2.14032e-07
-2.89309e-07
-1.87858e-07
-1.89886e-07
-1.86553e-07
-9.4675e-08
-1.82289e-07
-4.69169e-09
-1.74173e-07
3.9393e-08
-1.25924e-07
5.6912e-08
-9.24942e-08
1.25211e-07
-1.50148e-07
2.1242e-07
-1.22695e-07
3.8561e-07
-1.89333e-07
5.73548e-07
-2.4849e-07
9.12064e-07
-3.78501e-07
1.32023e-06
-5.09113e-07
1.64268e-06
-4.61008e-07
1.84173e-06
-5.10647e-07
1.92187e-06
-4.9839e-07
2.02173e-06
-4.16303e-07
2.12541e-06
-3.7103e-07
2.22888e-06
-2.87095e-07
2.31704e-06
-2.47535e-07
2.40516e-06
-2.17704e-07
2.49226e-06
-2.01066e-07
2.58417e-06
-1.84707e-07
2.67511e-06
-1.60132e-07
2.79405e-06
-1.87342e-07
2.85461e-06
-1.23838e-07
2.82424e-06
-2.24729e-08
2.81951e-06
-7.60974e-08
2.80432e-06
-1.87839e-08
2.91462e-06
-6.29254e-08
3.19427e-06
-2.8219e-07
3.80863e-06
-5.65117e-07
4.63649e-06
-8.41158e-07
5.45748e-06
-1.01126e-06
6.18212e-06
-1.14169e-06
6.70861e-06
-1.22256e-06
7.00563e-06
-1.17353e-06
7.23372e-06
-1.0729e-06
7.44843e-06
-9.23135e-07
7.67311e-06
-7.54392e-07
7.88982e-06
-6.17482e-07
8.09267e-06
-5.20596e-07
8.28146e-06
-4.5499e-07
8.45783e-06
-4.02366e-07
8.62099e-06
-3.58106e-07
8.77411e-06
-3.24485e-07
8.91833e-06
-3.02e-07
9.05288e-06
-2.79235e-07
9.17844e-06
-2.56594e-07
9.29708e-06
-2.41968e-07
9.40946e-06
-2.27878e-07
9.51589e-06
-2.13361e-07
9.61769e-06
-2.05748e-07
9.71498e-06
-1.95507e-07
9.80812e-06
-1.85156e-07
9.8974e-06
-1.76244e-07
9.98362e-06
-1.73391e-07
1.00664e-05
-1.66608e-07
1.01457e-05
-1.57132e-07
1.02217e-05
-1.49499e-07
1.02951e-05
-1.44664e-07
1.03658e-05
-1.40558e-07
1.0434e-05
-1.36299e-07
1.05002e-05
-1.31819e-07
1.05648e-05
-1.28399e-07
1.06265e-05
-1.2301e-07
1.06859e-05
-1.19269e-07
1.07439e-05
-1.12975e-07
1.08006e-05
-1.10856e-07
1.08562e-05
-1.11665e-07
1.09107e-05
-1.11474e-07
1.0964e-05
-1.09714e-07
1.10161e-05
-1.07055e-07
1.10675e-05
-1.04289e-07
1.11175e-05
-1.01136e-07
1.11665e-05
-9.85561e-08
1.12144e-05
-9.65729e-08
1.12611e-05
-9.44322e-08
1.13064e-05
-9.17392e-08
1.13505e-05
-8.85236e-08
1.13935e-05
-8.89107e-08
1.14351e-05
-8.62906e-08
1.14756e-05
-8.11508e-08
1.15152e-05
-7.75999e-08
1.1554e-05
-7.56958e-08
1.1592e-05
-7.44425e-08
1.16291e-05
-7.35567e-08
1.16654e-05
-7.28202e-08
1.17012e-05
-7.20693e-08
1.17365e-05
-7.11613e-08
1.17713e-05
-6.988e-08
1.18053e-05
-6.81908e-08
1.18385e-05
-6.64153e-08
1.1871e-05
-6.5068e-08
1.19031e-05
-6.43378e-08
1.19348e-05
-6.38945e-08
1.19658e-05
-6.29355e-08
1.19958e-05
-6.09099e-08
1.2025e-05
-5.88039e-08
1.20541e-05
-5.78298e-08
1.20833e-05
-5.79357e-08
1.21121e-05
-5.78883e-08
1.21399e-05
-5.67278e-08
1.21672e-05
-5.47025e-08
1.21949e-05
-5.43665e-08
1.22228e-05
-5.4485e-08
1.22501e-05
-5.49122e-08
1.22766e-05
-5.15848e-08
1.23031e-05
-5.24029e-08
1.23307e-05
-5.62584e-08
1.23578e-05
-6.04278e-08
1.23843e-05
-5.85143e-08
1.24102e-05
-5.56008e-08
1.24359e-05
-5.37131e-08
1.24613e-05
-5.32644e-08
1.24865e-05
-5.3665e-08
-5.39912e-08
1.26038e-05
-2.03973e-05
1.50045e-05
-1.12053e-05
1.41252e-05
-6.16795e-06
1.29106e-05
-5.84631e-06
1.15255e-05
-4.36838e-06
1.01876e-05
-3.30286e-06
8.3928e-06
-1.67023e-06
5.93464e-06
-8.78841e-08
2.62816e-06
1.04837e-06
-1.20299e-06
1.47032e-06
-5.0423e-06
1.4102e-06
-8.43021e-06
1.33649e-06
-1.11261e-05
2.08049e-06
-1.32689e-05
4.23231e-06
-1.49682e-05
7.41333e-06
-1.5865e-05
9.75332e-06
-1.61925e-05
1.08217e-05
-1.64766e-05
1.1206e-05
-1.63335e-05
1.12855e-05
-1.59182e-05
1.04376e-05
-1.70085e-05
8.72676e-06
-1.89703e-05
8.07572e-06
-2.09084e-05
7.72749e-06
-2.27954e-05
6.78908e-06
-2.48443e-05
5.85327e-06
-2.66253e-05
5.37203e-06
-2.80993e-05
5.40278e-06
-2.97166e-05
5.80779e-06
-3.15518e-05
6.36266e-06
-3.34972e-05
6.54753e-06
-3.55025e-05
6.24561e-06
-3.72462e-05
5.54147e-06
-3.85227e-05
4.82912e-06
-3.95694e-05
4.21262e-06
-4.08675e-05
3.70276e-06
-4.24951e-05
3.55467e-06
-4.40379e-05
3.66175e-06
-4.53066e-05
4.00644e-06
-4.63311e-05
4.45727e-06
-4.72902e-05
4.65882e-06
-4.84468e-05
4.40147e-06
-4.98321e-05
3.7184e-06
-5.12329e-05
3.09917e-06
-5.25648e-05
3.01373e-06
-5.38609e-05
3.46498e-06
-5.50528e-05
3.96692e-06
-5.62076e-05
4.31044e-06
-5.75071e-05
4.3246e-06
-5.89499e-05
3.87493e-06
-6.03061e-05
3.18731e-06
-6.14997e-05
2.54532e-06
-6.2471e-05
2.13302e-06
-6.33675e-05
1.9716e-06
-6.4276e-05
1.85029e-06
-6.51601e-05
1.82586e-06
-6.58981e-05
2.04716e-06
-6.63822e-05
2.21939e-06
-6.66186e-05
2.09253e-06
-6.66594e-05
1.64903e-06
-6.67973e-05
1.35758e-06
-6.71352e-05
1.4055e-06
-6.77616e-05
1.86618e-06
-6.8494e-05
2.26791e-06
-6.91338e-05
2.223e-06
-6.97308e-05
1.70269e-06
-7.02196e-05
5.8428e-07
-7.0563e-05
-7.42456e-07
-7.06641e-05
-1.72581e-06
-7.04585e-05
-2.36789e-06
-7.01868e-05
-2.62486e-06
-6.99629e-05
-2.70465e-06