/*--------------------------------*- C++ -*----------------------------------*\
| =========                 |                                                 |
| \\      /  F ield         | OpenFOAM: The Open Source CFD Toolbox           |
|  \\    /   O peration     | Version:  v2006                                 |
|   \\  /    A nd           | Website:  www.openfoam.com                      |
|    \\/     M anipulation  |                                                 |
\*---------------------------------------------------------------------------*/
FoamFile
{
    version     2.0;
    format      ascii;
    class       surfaceScalarField;
    location    "0.2";
    object      alphaPhi0.water;
}
// * * * * * * * * * * * * * * * * * * * * * * * * * * * * * * * * * * * * * //

dimensions      [0 3 -1 0 0 0 0];
oriented        oriented;


internalField   nonuniform List<scalar> 
65390
(
3.81017e-06
2.68993e-08
3.77867e-06
3.35241e-08
3.74576e-06
3.48132e-08
3.7114e-06
3.60924e-08
3.67579e-06
3.73314e-08
3.63899e-06
3.85203e-08
3.60109e-06
3.96574e-08
3.56217e-06
4.0717e-08
3.52229e-06
4.17266e-08
3.48156e-06
4.26446e-08
3.44004e-06
4.34931e-08
3.39778e-06
4.42949e-08
3.35486e-06
4.50039e-08
3.31135e-06
4.56613e-08
3.26731e-06
4.62532e-08
3.2228e-06
4.67686e-08
3.17789e-06
4.72184e-08
3.13262e-06
4.76066e-08
3.08704e-06
4.79269e-08
3.0412e-06
4.81852e-08
2.99517e-06
4.83892e-08
2.94896e-06
4.85415e-08
2.90265e-06
4.86285e-08
2.85626e-06
4.86552e-08
2.80985e-06
4.86325e-08
2.76344e-06
4.85615e-08
2.71709e-06
4.84431e-08
2.67083e-06
4.82845e-08
2.6247e-06
4.80921e-08
2.57874e-06
4.78643e-08
2.533e-06
4.75984e-08
2.48751e-06
4.72992e-08
2.4423e-06
4.69737e-08
2.3974e-06
4.66223e-08
2.35286e-06
4.6242e-08
2.30868e-06
4.58332e-08
2.26491e-06
4.54068e-08
2.22156e-06
4.49691e-08
2.17863e-06
4.45184e-08
2.13614e-06
4.40514e-08
2.09411e-06
4.35723e-08
2.05253e-06
4.30881e-08
2.01139e-06
4.26019e-08
1.9707e-06
4.21118e-08
1.93044e-06
4.16149e-08
1.89062e-06
4.11108e-08
1.85124e-06
4.06025e-08
1.81228e-06
4.00943e-08
1.77374e-06
3.95883e-08
1.73563e-06
3.90827e-08
1.69794e-06
3.8575e-08
1.66067e-06
3.80668e-08
1.62383e-06
3.75631e-08
1.5874e-06
3.70688e-08
1.55139e-06
3.65903e-08
1.51578e-06
3.61287e-08
1.48056e-06
3.56807e-08
1.44573e-06
3.5245e-08
1.41127e-06
3.4828e-08
1.37716e-06
3.44407e-08
1.34337e-06
3.40916e-08
1.30985e-06
3.37855e-08
1.27657e-06
3.35208e-08
1.24348e-06
3.33094e-08
1.21051e-06
3.31718e-08
1.17757e-06
3.31273e-08
1.14453e-06
3.31983e-08
1.11125e-06
3.34258e-08
1.0775e-06
3.38859e-08
1.04294e-06
3.46819e-08
1.00709e-06
3.59529e-08
9.69249e-07
3.79378e-08
9.28222e-07
4.11115e-08
8.82016e-07
4.62822e-08
8.2723e-07
5.48547e-08
7.57849e-07
6.94439e-08
6.63115e-07
9.47922e-08
5.19763e-07
1.43409e-07
4.01564e-07
1.18244e-07
3.60842e-07
4.07503e-08
3.3942e-07
2.14537e-08
3.43627e-07
-4.17342e-09
3.34888e-07
8.76269e-09
3.32156e-07
2.75655e-09
3.3359e-07
-1.40753e-09
3.24688e-07
8.92629e-09
3.16745e-07
7.96692e-09
3.09692e-07
7.07511e-09
3.04842e-07
4.87098e-09
2.99159e-07
5.70089e-09
2.9409e-07
5.08363e-09
2.89264e-07
4.838e-09
2.83898e-07
5.37404e-09
2.78552e-07
5.35051e-09
2.73181e-07
5.37179e-09
2.6766e-07
5.51868e-09
2.62036e-07
5.61957e-09
2.56312e-07
5.71557e-09
2.50174e-07
6.12783e-09
2.44125e-07
6.03613e-09
2.38591e-07
5.52026e-09
2.33436e-07
5.13945e-09
2.28495e-07
4.92568e-09
2.23438e-07
5.04022e-09
2.18547e-07
4.87388e-09
2.13712e-07
4.81727e-09
2.08838e-07
4.85621e-09
2.04033e-07
4.78787e-09
1.99302e-07
4.71235e-09
1.94655e-07
4.62795e-09
1.90068e-07
4.56707e-09
1.85544e-07
4.50333e-09
1.81078e-07
4.44501e-09
1.76648e-07
4.40697e-09
1.72209e-07
4.41462e-09
1.67744e-07
4.4389e-09
1.63015e-07
4.70106e-09
1.58425e-07
4.55989e-09
1.54323e-07
4.06942e-09
1.5061e-07
3.67834e-09
1.47121e-07
3.45301e-09
1.4357e-07
3.51236e-09
1.4016e-07
3.3693e-09
1.36828e-07
3.29008e-09
1.33499e-07
3.28411e-09
1.30245e-07
3.20901e-09
1.27059e-07
3.13857e-09
1.2393e-07
3.08126e-09
1.20865e-07
3.01561e-09
1.17863e-07
2.95236e-09
1.14921e-07
2.89176e-09
1.12042e-07
2.82844e-09
1.09221e-07
2.77001e-09
1.06459e-07
2.7122e-09
1.03758e-07
2.65051e-09
1.0112e-07
2.58829e-09
9.85389e-08
2.53133e-09
9.60119e-08
2.47822e-09
9.35402e-08
2.42371e-09
9.11268e-08
2.36616e-09
8.87716e-08
2.30882e-09
8.64702e-08
2.25608e-09
8.422e-08
2.20594e-09
8.20241e-08
2.15282e-09
7.98807e-08
2.10144e-09
7.77852e-08
2.05481e-09
7.57373e-08
2.00866e-09
7.37399e-08
1.95951e-09
7.17926e-08
1.91092e-09
6.98915e-08
1.86631e-09
6.80357e-08
1.8227e-09
6.62264e-08
1.77792e-09
6.44619e-08
1.73499e-09
6.27397e-08
1.69456e-09
6.10604e-08
1.65357e-09
5.94248e-08
1.6121e-09
5.78308e-08
1.57251e-09
5.62777e-08
1.53393e-09
5.47653e-08
1.49544e-09
5.32913e-08
1.45938e-09
5.18529e-08
1.4261e-09
5.04519e-08
1.39129e-09
4.90908e-08
1.35379e-09
4.77678e-08
1.31812e-09
4.64789e-08
1.28663e-09
4.52232e-08
1.25601e-09
4.40028e-08
1.22322e-09
4.28175e-08
1.19069e-09
4.16632e-08
1.16217e-09
4.05375e-08
1.13614e-09
3.94428e-08
1.10762e-09
3.83809e-08
1.07736e-09
3.73482e-08
1.05054e-09
3.63418e-08
1.02656e-09
3.53635e-08
1.00091e-09
3.4414e-08
9.74436e-10
3.34902e-08
9.50982e-10
3.25901e-08
9.29554e-10
3.17147e-08
9.07016e-10
3.08641e-08
8.84314e-10
3.00361e-08
8.63845e-10
2.92299e-08
8.44141e-10
2.8447e-08
8.22818e-10
2.76878e-08
8.01067e-10
2.69502e-08
7.81364e-10
2.62325e-08
7.63354e-10
2.55347e-08
7.45256e-10
2.48568e-08
7.2714e-10
2.41975e-08
7.10264e-10
2.35556e-08
6.94523e-10
2.29313e-08
6.78608e-10
2.23253e-08
6.61929e-10
2.17375e-08
6.45297e-10
2.11665e-08
6.29906e-10
2.06111e-08
6.15872e-10
2.00707e-08
6.02357e-10
1.95449e-08
5.89121e-10
1.90331e-08
5.76542e-10
1.85347e-08
5.64504e-10
1.80494e-08
5.52747e-10
1.75766e-08
5.41499e-10
1.71159e-08
5.3072e-10
1.66671e-08
5.20031e-10
1.62301e-08
5.0953e-10
1.58045e-08
4.99313e-10
1.53905e-08
4.88919e-10
1.49885e-08
4.78188e-10
1.45982e-08
4.67641e-10
1.42196e-08
4.57164e-10
1.38531e-08
4.46149e-10
1.34985e-08
4.35465e-10
1.31537e-08
4.26877e-10
1.28168e-08
4.20111e-10
1.24878e-08
4.13356e-10
1.2167e-08
4.06256e-10
1.18534e-08
4.00162e-10
1.15462e-08
3.94922e-10
1.12465e-08
3.88603e-10
1.09555e-08
3.80909e-10
1.06728e-08
3.73633e-10
1.03972e-08
3.67597e-10
1.01288e-08
3.61499e-10
9.86808e-09
3.54778e-10
9.6144e-09
3.48709e-10
9.36624e-09
3.44122e-10
9.12337e-09
3.39736e-10
8.88692e-09
3.34186e-10
8.65761e-09
3.2787e-10
8.43514e-09
3.21799e-10
8.21924e-09
3.1596e-10
8.0101e-09
3.09877e-10
7.80774e-09
3.03726e-10
7.61181e-09
2.97854e-10
7.42214e-09
2.92108e-10
7.23863e-09
2.86385e-10
7.06074e-09
2.81149e-10
6.88766e-09
2.76641e-10
6.71926e-09
2.72225e-10
6.55627e-09
2.66981e-10
6.39937e-09
2.61003e-10
6.24849e-09
2.55021e-10
6.10301e-09
2.49583e-10
5.96213e-09
2.44892e-10
5.82483e-09
2.41126e-10
5.69039e-09
2.38025e-10
5.55875e-09
2.34908e-10
5.43051e-09
2.3112e-10
5.30596e-09
2.26995e-10
5.18424e-09
2.23633e-10
5.06428e-09
2.213e-10
4.94609e-09
2.18894e-10
4.83113e-09
2.14964e-10
4.72047e-09
2.09904e-10
4.61335e-09
2.05566e-10
4.5079e-09
2.03032e-10
4.40339e-09
2.01188e-10
4.30113e-09
1.98002e-10
4.20274e-09
1.93154e-10
4.10825e-09
1.88243e-10
4.01606e-09
1.84902e-10
3.92461e-09
1.83099e-10
3.83345e-09
1.81729e-10
3.74279e-09
1.8015e-10
3.65276e-09
1.78418e-10
3.56359e-09
1.76457e-10
3.47579e-09
1.74e-10
3.38967e-09
1.71247e-10
3.30513e-09
1.68603e-10
3.22226e-09
1.65895e-10
3.14178e-09
1.62504e-10
3.0639e-09
1.58922e-10
2.98805e-09
1.55966e-10
2.91346e-09
1.53823e-10
2.83947e-09
1.52391e-10
2.76581e-09
1.51272e-10
2.69233e-09
1.50394e-10
2.61882e-09
1.49768e-10
2.54525e-09
1.49256e-10
2.47156e-09
1.48868e-10
2.39747e-09
1.48846e-10
2.32274e-09
1.49143e-10
2.24774e-09
1.49146e-10
2.17348e-09
1.48226e-10
2.10091e-09
1.46448e-10
2.03035e-09
1.44422e-10
1.9617e-09
1.42597e-10
1.89492e-09
1.40889e-10
1.83028e-09
1.38984e-10
1.76815e-09
1.36808e-10
1.70867e-09
1.34554e-10
1.65181e-09
1.32422e-10
1.59742e-09
1.305e-10
1.54522e-09
1.28923e-10
1.49469e-09
1.27943e-10
1.44514e-09
1.27693e-10
1.39612e-09
1.27957e-10
1.34763e-09
1.28253e-10
1.30007e-09
1.28211e-10
1.2538e-09
1.27828e-10
1.20891e-09
1.27377e-10
1.16533e-09
1.27038e-10
1.12307e-09
1.26689e-10
1.08251e-09
1.2597e-10
1.04428e-09
1.24625e-10
1.00899e-09
1.22662e-10
9.76946e-10
1.20388e-10
9.48085e-10
1.1816e-10
9.2202e-10
1.16295e-10
8.9819e-10
1.14963e-10
8.75948e-10
1.14244e-10
8.54615e-10
1.14165e-10
8.33568e-10
1.14663e-10
8.12339e-10
1.1558e-10
7.9072e-10
1.16651e-10
7.68806e-10
1.17567e-10
7.46978e-10
1.18041e-10
7.25814e-10
1.1787e-10
7.05958e-10
1.16985e-10
6.87976e-10
1.15462e-10
6.72213e-10
1.13518e-10
6.58793e-10
1.11374e-10
6.47793e-10
1.09075e-10
6.39323e-10
1.06583e-10
6.33431e-10
1.03965e-10
6.29671e-10
1.01711e-10
6.26885e-10
1.00536e-10
6.23417e-10
1.00934e-10
6.18159e-10
1.02362e-10
6.11082e-10
1.03741e-10
6.03161e-10
1.0407e-10
5.95201e-10
1.03519e-10
5.87549e-10
1.02549e-10
5.80575e-10
1.01141e-10
5.75433e-10
9.85137e-11
5.73571e-10
9.43753e-11
5.7541e-10
8.97563e-11
5.79734e-10
8.6298e-11
5.84767e-10
8.45661e-11
5.8956e-10
8.37325e-11
5.9395e-10
8.30208e-11
5.97431e-10
8.27729e-11
5.98925e-10
8.35691e-11
5.97737e-10
8.50284e-11
5.94476e-10
8.58489e-11
5.90397e-10
8.53907e-11
5.86349e-10
8.40646e-11
5.82726e-10
8.23247e-11
5.80104e-10
7.99972e-11
5.79106e-10
7.70353e-11
5.79644e-10
7.41537e-11
5.80924e-10
7.20611e-11
5.82118e-10
7.07948e-11
5.82533e-10
7.02221e-11
5.81342e-10
7.04774e-11
5.77958e-10
7.13245e-11
5.72704e-10
7.18536e-11
5.66711e-10
7.12583e-11
5.60961e-10
6.96902e-11
5.5603e-10
6.75521e-11
5.52383e-10
6.49589e-11
5.50537e-10
6.18585e-11
5.50378e-10
5.88792e-11
5.50927e-10
5.68891e-11
5.50742e-10
5.63478e-11
5.48858e-10
5.67785e-11
5.45038e-10
5.74532e-11
5.39557e-10
5.78575e-11
5.32887e-10
5.77939e-11
5.25781e-10
5.69795e-11
5.19244e-10
5.51614e-11
5.14231e-10
5.23873e-11
5.11067e-10
4.92868e-11
5.09273e-10
4.66616e-11
5.07968e-10
4.49133e-11
5.06487e-10
4.38233e-11
5.04622e-10
4.29324e-11
5.02314e-10
4.2095e-11
4.99407e-10
4.14006e-11
4.96071e-10
4.0528e-11
4.93226e-10
3.87247e-11
4.92024e-10
3.57561e-11
4.92816e-10
3.24249e-11
4.94799e-10
2.98876e-11
4.96511e-10
2.87986e-11
4.96512e-10
2.91411e-11
4.93915e-10
3.03599e-11
4.88743e-10
3.15474e-11
4.81855e-10
3.18705e-11
4.74401e-10
3.10384e-11
4.67282e-10
2.93015e-11
4.60885e-10
2.71792e-11
4.54824e-10
2.54444e-11
4.47944e-10
2.48691e-11
4.38942e-10
2.56074e-11
4.26969e-10
2.72054e-11
4.11778e-10
2.90663e-11
3.93839e-10
3.04753e-11
3.74586e-10
3.04751e-11
3.55872e-10
2.86477e-11
3.38916e-10
2.56317e-11
3.23446e-10
2.29219e-11
3.08089e-10
2.16243e-11
2.9181e-10
2.14015e-11
2.74503e-10
2.13322e-11
2.56165e-10
2.13137e-11
2.37039e-10
2.11048e-11
2.18377e-10
1.96974e-11
2.0107e-10
1.74575e-11
1.84479e-10
1.5917e-11
1.6734e-10
1.5702e-11
1.48859e-10
1.63459e-11
1.29199e-10
1.68915e-11
1.09576e-10
1.6287e-11
9.11797e-11
1.45621e-11
7.41797e-11
1.27331e-11
5.82108e-11
1.13368e-11
4.31724e-11
1.01072e-11
2.83e-11
9.70705e-12
1.3512e-11
9.45146e-12
-5.35717e-13
8.60054e-12
-1.32477e-11
7.21203e-12
-2.67506e-11
8.00454e-12
-4.19934e-11
9.79687e-12
-5.73315e-11
9.99097e-12
-7.24571e-11
9.91924e-12
-8.52387e-11
7.75269e-12
-9.4915e-11
4.85629e-12
-1.03001e-10
3.50046e-12
-1.09771e-10
2.42974e-12
-1.16235e-10
2.39107e-12
-1.19985e-10
-5.18427e-14
-1.20065e-10
-3.45805e-12
-1.1515e-10
-8.18074e-12
-1.07757e-10
-1.04012e-11
-9.99954e-11
-1.05321e-11
-9.35729e-11
-8.98324e-12
-8.8147e-11
-7.80965e-12
-7.96166e-11
-1.07766e-11
-7.11283e-11
-1.06417e-11
-5.63194e-11
-1.69196e-11
-4.43336e-11
-1.41086e-11
-3.75491e-11
-8.97778e-12
-2.98997e-11
-9.97524e-12
-2.09692e-11
-1.1453e-11
-7.70784e-12
-1.60474e-11
3.63383e-12
-1.44602e-11
1.51583e-11
-1.50634e-11
3.11108e-11
-1.99624e-11
4.8982e-11
-2.24397e-11
7.26721e-11
-2.89173e-11
8.78321e-11
-2.10721e-11
1.08339e-10
-2.71807e-11
1.20309e-10
-1.94761e-11
1.30482e-10
-1.85786e-11
1.3515e-10
-1.40373e-11
1.42102e-10
-1.7343e-11
1.58847e-10
-2.81923e-11
1.61817e-10
-1.55068e-11
1.73849e-10
-2.57063e-11
1.90406e-10
-3.14078e-11
1.92741e-10
-1.83516e-11
1.95118e-10
-1.95749e-11
1.93048e-10
-1.63894e-11
1.97212e-10
-2.38374e-11
1.94499e-10
-1.80222e-11
1.87414e-10
-1.47745e-11
1.72102e-10
-7.79618e-12
1.94084e-10
-5.93478e-11
2.56643e-10
-9.9746e-11
2.92894e-10
-8.75679e-11
2.75279e-10
-6.00442e-11
2.49798e-10
-4.84328e-11
2.07912e-10
-3.16401e-11
1.60708e-10
-2.68039e-11
1.10741e-10
-2.46101e-11
5.5016e-11
-1.92676e-11
-7.23132e-12
-1.29289e-11
-7.28918e-11
-9.43776e-12
-1.41044e-10
-6.59293e-12
-2.10903e-10
-4.2498e-12
-2.79627e-10
-4.46227e-12
-3.44403e-10
-7.19968e-12
-4.05012e-10
-9.87049e-12
-4.62755e-10
-1.09535e-11
-5.20843e-10
-8.54634e-12
-5.78654e-10
-6.48339e-12
-6.33289e-10
-7.05432e-12
-6.82511e-10
-9.60161e-12
-7.2632e-10
-1.19008e-11
-7.66551e-10
-1.21263e-11
-8.05636e-10
-9.69853e-12
-8.45778e-10
-4.85758e-12
-8.88378e-10
1.57681e-12
-9.31379e-10
6.12929e-12
-9.75142e-10
1.11979e-11
-1.01847e-09
1.52058e-11
-1.0598e-09
1.77714e-11
-1.0976e-09
1.88957e-11
-1.12988e-09
1.80916e-11
-1.15361e-09
1.43307e-11
-1.16671e-09
8.49746e-12
-1.16689e-09
3.93379e-13
-1.1523e-09
-9.58655e-12
-1.12527e-09
-1.72762e-11
-1.08754e-09
-2.32836e-11
-1.04232e-09
-2.61648e-11
-9.92902e-10
-2.58592e-11
-9.416e-10
-2.33623e-11
-8.90478e-10
-1.89419e-11
-8.41315e-10
-1.29003e-11
-7.95178e-10
-5.96461e-12
-7.53301e-10
2.01869e-12
-7.15672e-10
9.79065e-12
-6.85339e-10
2.0402e-11
-6.60353e-10
2.88482e-11
-6.37296e-10
3.36512e-11
-6.12565e-10
3.46241e-11
-5.82694e-10
3.18968e-11
-5.45085e-10
2.63369e-11
-4.99853e-10
2.06599e-11
-4.46112e-10
1.38605e-11
-3.87443e-10
1.04136e-11
-3.31072e-10
1.39638e-11
-2.85358e-10
2.56536e-11
-2.52392e-10
3.9219e-11
-2.26257e-10
4.66619e-11
-1.93503e-10
4.04576e-11
-1.45535e-10
2.54728e-11
-9.10864e-11
1.9046e-11
-5.37127e-11
3.60132e-11
-4.97311e-11
6.91477e-11
-6.90658e-11
9.20707e-11
-8.16848e-11
8.48411e-11
-6.89553e-11
5.88727e-11
-4.67623e-11
4.86987e-11
-5.10383e-11
7.43825e-11
-7.99375e-11
9.81622e-11
-9.63891e-11
8.4829e-11
-7.12143e-11
4.22907e-11
-3.20183e-11
2.73488e-11
-1.93226e-11
5.29356e-11
-1.48163e-11
6.02345e-11
2.91585e-11
1.99118e-11
9.01901e-11
2.05015e-12
1.0605e-10
4.64781e-11
8.4669e-11
8.30485e-11
7.2066e-11
7.36834e-11
2.22615e-11
1.1039e-10
-3.53751e-11
1.17821e-10
5.18371e-11
3.81487e-06
5.49722e-08
3.78396e-06
6.74643e-08
3.75105e-06
7.04917e-08
3.71658e-06
7.3351e-08
3.68078e-06
7.59738e-08
3.64375e-06
7.84678e-08
3.60562e-06
8.08243e-08
3.56647e-06
8.30318e-08
3.52637e-06
8.5117e-08
3.4854e-06
8.70356e-08
3.44363e-06
8.87969e-08
3.40116e-06
9.0426e-08
3.35802e-06
9.19132e-08
3.3143e-06
9.32576e-08
3.27009e-06
9.44508e-08
3.22542e-06
9.54946e-08
3.18035e-06
9.64052e-08
3.13493e-06
9.71818e-08
3.08921e-06
9.78174e-08
3.04324e-06
9.83229e-08
2.99707e-06
9.871e-08
2.95074e-06
9.89742e-08
2.9043e-06
9.91075e-08
2.8578e-06
9.91206e-08
2.81125e-06
9.90317e-08
2.76471e-06
9.88476e-08
2.71822e-06
9.85716e-08
2.67183e-06
9.8213e-08
2.62557e-06
9.77838e-08
2.5795e-06
9.72871e-08
2.53365e-06
9.672e-08
2.48805e-06
9.60876e-08
2.44275e-06
9.54002e-08
2.39778e-06
9.46628e-08
2.35316e-06
9.38746e-08
2.30892e-06
9.30389e-08
2.26508e-06
9.21663e-08
2.22166e-06
9.12643e-08
2.17868e-06
9.03305e-08
2.13615e-06
8.93612e-08
2.09408e-06
8.83635e-08
2.05246e-06
8.73483e-08
2.01129e-06
8.632e-08
1.97058e-06
8.52759e-08
1.9303e-06
8.42138e-08
1.89047e-06
8.31374e-08
1.85106e-06
8.20532e-08
1.81209e-06
8.09671e-08
1.77354e-06
7.98814e-08
1.73541e-06
7.87964e-08
1.69772e-06
7.77148e-08
1.66044e-06
7.66429e-08
1.62358e-06
7.55886e-08
1.58714e-06
7.45585e-08
1.55111e-06
7.35563e-08
1.51549e-06
7.25826e-08
1.48028e-06
7.16374e-08
1.44547e-06
7.07261e-08
1.41104e-06
6.98613e-08
1.37696e-06
6.9055e-08
1.34323e-06
6.83139e-08
1.30981e-06
6.76451e-08
1.27667e-06
6.70618e-08
1.24375e-06
6.65886e-08
1.21099e-06
6.62542e-08
1.17834e-06
6.60827e-08
1.14569e-06
6.61114e-08
1.11295e-06
6.64124e-08
1.07997e-06
6.70909e-08
1.04658e-06
6.82677e-08
1.01261e-06
7.00949e-08
9.77898e-07
7.28131e-08
9.42359e-07
7.6795e-08
9.0622e-07
8.25524e-08
8.70463e-07
9.07335e-08
8.38001e-07
1.0202e-07
8.16338e-07
1.16565e-07
8.24024e-07
1.35824e-07
7.94495e-07
1.47857e-07
6.91772e-07
1.43563e-07
5.43822e-07
1.695e-07
4.10866e-07
1.28857e-07
3.64253e-07
5.54293e-08
3.34442e-07
3.26281e-08
3.29168e-07
3.92693e-09
3.18651e-07
1.94884e-08
3.10543e-07
1.61174e-08
3.07038e-07
1.06217e-08
3.08073e-07
3.87251e-09
3.00911e-07
1.28946e-08
2.94733e-07
1.12869e-08
2.89633e-07
9.95681e-09
2.8396e-07
1.10606e-08
2.78693e-07
1.06243e-08
2.73624e-07
1.04415e-08
2.68128e-07
1.10103e-08
2.62696e-07
1.10424e-08
2.57336e-07
1.10619e-08
2.52146e-07
1.13002e-08
2.46867e-07
1.12959e-08
2.41272e-07
1.10927e-08
2.35169e-07
1.1219e-08
2.2913e-07
1.09394e-08
2.23677e-07
1.04673e-08
2.18506e-07
1.00177e-08
2.1358e-07
9.71534e-09
2.08654e-07
9.75395e-09
2.03813e-07
9.59958e-09
1.99128e-07
9.36794e-09
1.94539e-07
9.18559e-09
1.89952e-07
9.12082e-09
1.85459e-07
8.96067e-09
1.81056e-07
8.8111e-09
1.76726e-07
8.69674e-09
1.72502e-07
8.5946e-09
1.68386e-07
8.50772e-09
1.64528e-07
8.508e-09
1.60642e-07
8.39187e-09
1.56501e-07
8.15253e-09
1.51963e-07
8.15435e-09
1.47516e-07
7.83384e-09
1.4362e-07
7.33929e-09
1.40029e-07
6.88715e-09
1.36674e-07
6.56991e-09
1.33318e-07
6.56167e-09
1.30094e-07
6.35168e-09
1.26947e-07
6.20324e-09
1.23809e-07
6.13418e-09
1.20739e-07
6.00001e-09
1.17737e-07
5.86736e-09
1.14793e-07
5.74879e-09
1.11912e-07
5.62195e-09
1.09092e-07
5.50251e-09
1.06331e-07
5.38618e-09
1.03632e-07
5.26319e-09
1.00994e-07
5.14084e-09
9.84142e-08
5.02667e-09
9.58903e-08
4.91901e-09
9.3423e-08
4.80926e-09
9.10128e-08
4.69626e-09
8.86593e-08
4.58398e-09
8.63594e-08
4.47947e-09
8.41108e-08
4.38004e-09
8.19141e-08
4.27715e-09
7.97706e-08
4.17488e-09
7.76787e-08
4.07905e-09
7.56354e-08
3.98691e-09
7.36411e-08
3.89146e-09
7.1696e-08
3.79654e-09
6.97972e-08
3.70858e-09
6.79429e-08
3.62357e-09
6.6134e-08
3.53674e-09
6.437e-08
3.45221e-09
6.26491e-08
3.37238e-09
6.09709e-08
3.29236e-09
5.9337e-08
3.21041e-09
5.7747e-08
3.13086e-09
5.61981e-08
3.05529e-09
5.46885e-08
2.98164e-09
5.32179e-08
2.91085e-09
5.17852e-08
2.8441e-09
5.0388e-08
2.77811e-09
4.90257e-08
2.71025e-09
4.76993e-08
2.64328e-09
4.64098e-08
2.57937e-09
4.51567e-08
2.51682e-09
4.39386e-08
2.45364e-09
4.27541e-08
2.39203e-09
4.16019e-08
2.33569e-09
4.04802e-08
2.28369e-09
3.93878e-08
2.2302e-09
3.83248e-08
2.17487e-09
3.72908e-08
2.12334e-09
3.62853e-08
2.07514e-09
3.53082e-08
2.02517e-09
3.43593e-08
1.9745e-09
3.34375e-08
1.92798e-09
3.25409e-08
1.88516e-09
3.16689e-08
1.8419e-09
3.08211e-08
1.79872e-09
2.99965e-08
1.75869e-09
2.9194e-08
1.72051e-09
2.84134e-08
1.68064e-09
2.76553e-08
1.63987e-09
2.69189e-08
1.60176e-09
2.6203e-08
1.56648e-09
2.55073e-08
1.5313e-09
2.48319e-08
1.49591e-09
2.41757e-08
1.46282e-09
2.35367e-08
1.43283e-09
2.29138e-08
1.40369e-09
2.23073e-08
1.37331e-09
2.17178e-08
1.3424e-09
2.1145e-08
1.31289e-09
2.05887e-08
1.28495e-09
2.0049e-08
1.25734e-09
1.95251e-08
1.23074e-09
1.9015e-08
1.20676e-09
1.85171e-08
1.18481e-09
1.80315e-08
1.1632e-09
1.75583e-08
1.14175e-09
1.70974e-08
1.12081e-09
1.6649e-08
1.09999e-09
1.62131e-08
1.07905e-09
1.57898e-08
1.05838e-09
1.53789e-08
1.03773e-09
1.498e-08
1.01715e-09
1.45922e-08
9.9759e-10
1.42144e-08
9.79186e-10
1.38461e-08
9.60801e-10
1.34871e-08
9.42778e-10
1.31373e-08
9.27089e-10
1.27961e-08
9.13746e-10
1.24637e-08
9.00296e-10
1.21403e-08
8.86086e-10
1.1826e-08
8.72943e-10
1.15202e-08
8.61107e-10
1.12226e-08
8.48525e-10
1.0933e-08
8.34754e-10
1.06508e-08
8.21986e-10
1.03751e-08
8.1124e-10
1.01056e-08
8.00713e-10
9.84278e-09
7.89089e-10
9.58702e-09
7.77612e-10
9.33858e-09
7.67314e-10
9.09767e-09
7.56947e-10
8.86449e-09
7.45132e-10
8.63883e-09
7.32685e-10
8.41992e-09
7.21173e-10
8.20695e-09
7.10593e-10
7.99947e-09
7.00131e-10
7.79727e-09
6.89707e-10
7.60031e-09
6.79498e-10
7.40898e-09
6.68913e-10
7.22395e-09
6.57567e-10
7.04571e-09
6.4608e-10
6.87423e-09
6.35259e-10
6.70911e-09
6.2478e-10
6.54965e-09
6.14068e-10
6.39494e-09
6.03387e-10
6.24441e-09
5.93153e-10
6.09801e-09
5.83388e-10
5.95609e-09
5.73882e-10
5.81801e-09
5.65829e-10
5.68303e-09
5.59042e-10
5.55043e-09
5.52836e-10
5.42022e-09
5.45837e-10
5.29323e-09
5.37556e-10
5.17021e-09
5.29161e-10
5.05104e-09
5.21815e-10
4.93502e-09
5.14984e-10
4.82171e-09
5.06982e-10
4.71147e-09
4.97387e-10
4.60484e-09
4.87881e-10
4.50157e-09
4.80365e-10
4.40074e-09
4.74371e-10
4.30153e-09
4.67798e-10
4.20388e-09
4.59572e-10
4.10785e-09
4.51154e-10
4.01332e-09
4.44413e-10
3.92004e-09
4.39407e-10
3.82816e-09
4.34684e-10
3.7379e-09
4.29509e-10
3.64916e-09
4.2428e-10
3.56161e-09
4.19177e-10
3.47522e-09
4.13624e-10
3.39033e-09
4.07461e-10
3.30713e-09
4.01273e-10
3.22542e-09
3.95264e-10
3.1449e-09
3.88943e-10
3.06565e-09
3.82422e-10
2.98758e-09
3.76697e-10
2.91027e-09
3.7231e-10
2.83366e-09
3.68796e-10
2.75777e-09
3.65693e-10
2.68233e-09
3.63203e-10
2.60699e-09
3.6145e-10
2.53174e-09
3.5996e-10
2.45694e-09
3.58373e-10
2.38289e-09
3.56981e-10
2.30964e-09
3.56037e-10
2.2371e-09
3.55005e-10
2.16545e-09
3.53047e-10
2.095e-09
3.50068e-10
2.02599e-09
3.46754e-10
1.9585e-09
3.43703e-10
1.89263e-09
3.40826e-10
1.82859e-09
3.37696e-10
1.7666e-09
3.34197e-10
1.70673e-09
3.30694e-10
1.64884e-09
3.2759e-10
1.5927e-09
3.25028e-10
1.53822e-09
3.2302e-10
1.48543e-09
3.2168e-10
1.43438e-09
3.21115e-10
1.38504e-09
3.21178e-10
1.33732e-09
3.21429e-10
1.29115e-09
3.21471e-10
1.24656e-09
3.21204e-10
1.20362e-09
3.2082e-10
1.16248e-09
3.20443e-10
1.12321e-09
3.19979e-10
1.08588e-09
3.19089e-10
1.05051e-09
3.17545e-10
1.0171e-09
3.15364e-10
9.85613e-10
3.12877e-10
9.5594e-10
3.10503e-10
9.27895e-10
3.08624e-10
9.01241e-10
3.07457e-10
8.75759e-10
3.07046e-10
8.51295e-10
3.07352e-10
8.27783e-10
3.08207e-10
8.0523e-10
3.09378e-10
7.8369e-10
3.10542e-10
7.63202e-10
3.11399e-10
7.4385e-10
3.1161e-10
7.25767e-10
3.10917e-10
7.09224e-10
3.09108e-10
6.94519e-10
3.06228e-10
6.81852e-10
3.02588e-10
6.71072e-10
2.98756e-10
6.61639e-10
2.95168e-10
6.52829e-10
2.91965e-10
6.44222e-10
2.8891e-10
6.35886e-10
2.86005e-10
6.28153e-10
2.83705e-10
6.21082e-10
2.82774e-10
6.14221e-10
2.83189e-10
6.07188e-10
2.83799e-10
6.00147e-10
2.83061e-10
5.93893e-10
2.80521e-10
5.88942e-10
2.76923e-10
5.85127e-10
2.72937e-10
5.82023e-10
2.68045e-10
5.79749e-10
2.61416e-10
5.7873e-10
2.53785e-10
5.78851e-10
2.47336e-10
5.79183e-10
2.43457e-10
5.78878e-10
2.41247e-10
5.77966e-10
2.39058e-10
5.76966e-10
2.36752e-10
5.75993e-10
2.35316e-10
5.74737e-10
2.34805e-10
5.73018e-10
2.33792e-10
5.71129e-10
2.31171e-10
5.69353e-10
2.27369e-10
5.6767e-10
2.2315e-10
5.66025e-10
2.18379e-10
5.6446e-10
2.1292e-10
5.62857e-10
2.07649e-10
5.60938e-10
2.03444e-10
5.586e-10
2.00168e-10
5.55903e-10
1.9753e-10
5.52762e-10
1.95811e-10
5.49049e-10
1.94823e-10
5.45075e-10
1.93218e-10
5.41598e-10
1.89744e-10
5.39202e-10
1.84728e-10
5.37817e-10
1.79229e-10
5.36905e-10
1.73826e-10
5.35995e-10
1.68404e-10
5.34914e-10
1.63291e-10
5.33491e-10
1.59351e-10
5.31496e-10
1.57102e-10
5.28796e-10
1.5597e-10
5.25564e-10
1.54916e-10
5.22149e-10
1.53248e-10
5.18889e-10
1.50781e-10
5.1598e-10
1.47365e-10
5.13539e-10
1.42829e-10
5.11597e-10
1.373e-10
5.10103e-10
1.31489e-10
5.0883e-10
1.26372e-10
5.07392e-10
1.22505e-10
5.05531e-10
1.1954e-10
5.03436e-10
1.16569e-10
5.01613e-10
1.13128e-10
5.00342e-10
1.0953e-10
4.99505e-10
1.05851e-10
4.98926e-10
1.01396e-10
4.98504e-10
9.58567e-11
4.97872e-10
9.02999e-11
4.96387e-10
8.61606e-11
4.93604e-10
8.38945e-11
4.89611e-10
8.29557e-11
4.84801e-10
8.24844e-11
4.79648e-10
8.14964e-11
4.74612e-10
7.91767e-11
4.69834e-10
7.55546e-11
4.64926e-10
7.1417e-11
4.59138e-10
6.76485e-11
4.51696e-10
6.50528e-11
4.42111e-10
6.41191e-11
4.30431e-10
6.44758e-11
4.17102e-10
6.52743e-11
4.02747e-10
6.57461e-11
3.88047e-10
6.51296e-11
3.7327e-10
6.28829e-11
3.58208e-10
5.90735e-11
3.42449e-10
5.45503e-11
3.25651e-10
5.07454e-11
3.07619e-10
4.86221e-11
2.88723e-10
4.72881e-11
2.70028e-10
4.51301e-11
2.52131e-10
4.25215e-11
2.34559e-10
4.02951e-11
2.16596e-10
3.76915e-11
1.97754e-10
3.48511e-11
1.78143e-10
3.27148e-11
1.58411e-10
3.13712e-11
1.39022e-10
3.05426e-11
1.20385e-10
2.9327e-11
1.02896e-10
2.66872e-11
8.65224e-11
2.30807e-11
7.06288e-11
2.01272e-11
5.45223e-11
1.84187e-11
3.83471e-11
1.68497e-11
2.24311e-11
1.58959e-11
6.91685e-12
1.50532e-11
-8.00852e-12
1.35321e-11
-2.15409e-11
1.07673e-11
-3.42289e-11
1.08231e-11
-4.61612e-11
1.20507e-11
-5.79386e-11
1.2356e-11
-6.95277e-11
1.2428e-11
-7.91243e-11
8.64673e-12
-8.61376e-11
3.60111e-12
-9.08995e-11
4.46409e-13
-9.45253e-11
-1.2789e-12
-9.80278e-11
-9.3868e-13
-9.94151e-11
-5.00395e-12
-9.84732e-11
-1.02441e-11
-9.43969e-11
-1.76338e-11
-8.97357e-11
-2.00098e-11
-8.30447e-11
-2.17903e-11
-7.64706e-11
-1.9805e-11
-6.87634e-11
-1.95163e-11
-6.0323e-11
-2.30494e-11
-5.07424e-11
-2.39781e-11
-3.92399e-11
-3.22e-11
-2.86732e-11
-2.85805e-11
-2.10664e-11
-2.07297e-11
-1.10837e-11
-2.44605e-11
-8.63151e-13
-2.66636e-11
1.3204e-11
-3.5707e-11
2.70406e-11
-3.46512e-11
4.01821e-11
-3.54409e-11
5.63977e-11
-4.4422e-11
7.20064e-11
-4.7465e-11
8.58031e-11
-5.3378e-11
9.44471e-11
-4.17626e-11
1.12684e-10
-5.89735e-11
1.28542e-10
-5.05165e-11
1.38764e-10
-4.57065e-11
1.54448e-10
-4.84529e-11
1.68879e-10
-5.24366e-11
1.8001e-10
-6.1984e-11
1.92399e-10
-5.26038e-11
1.96205e-10
-5.63224e-11
1.98188e-10
-6.24013e-11
2.1123e-10
-6.25914e-11
2.17301e-10
-5.88961e-11
1.93238e-10
-2.77193e-11
1.99911e-10
-6.82241e-11
2.46871e-10
-1.14629e-10
3.47151e-10
-1.66397e-10
4.52028e-10
-1.9147e-10
4.6375e-10
-1.70611e-10
4.34295e-10
-1.81919e-10
3.60477e-10
-1.52201e-10
3.23798e-10
-1.56101e-10
2.93352e-10
-1.5046e-10
2.49569e-10
-1.21334e-10
2.00512e-10
-1.1227e-10
1.44815e-10
-1.04158e-10
7.86557e-11
-8.86367e-11
1.27431e-11
-8.23448e-11
-4.78639e-11
-8.34598e-11
-1.07852e-10
-8.00252e-11
-1.7142e-10
-7.23776e-11
-2.36399e-10
-6.89382e-11
-2.9936e-10
-7.09361e-11
-3.61463e-10
-7.11952e-11
-4.26073e-10
-6.60002e-11
-4.90844e-10
-5.91661e-11
-5.52105e-10
-5.58685e-11
-6.07455e-10
-5.71427e-11
-6.56296e-10
-6.05454e-11
-7.00501e-10
-6.14039e-11
-7.42665e-10
-5.71958e-11
-7.84601e-10
-4.81464e-11
-8.27795e-10
-3.48551e-11
-8.72193e-10
-1.97124e-11
-9.18214e-10
-5.75279e-12
-9.62116e-10
5.2234e-12
-1.00107e-09
1.25145e-11
-1.03411e-09
1.75689e-11
-1.06074e-09
2.0814e-11
-1.08018e-09
2.14456e-11
-1.09276e-09
1.94807e-11
-1.09765e-09
1.46383e-11
-1.09538e-09
8.00782e-12
-1.08659e-09
7.32204e-14
-1.07165e-09
-5.31785e-12
-1.05097e-09
-8.77659e-12
-1.02429e-09
-9.54252e-12
-9.91666e-10
-7.2992e-12
-9.53218e-10
-2.99981e-12
-9.10999e-10
4.9877e-12
-8.66735e-10
1.60118e-11
-8.2439e-10
3.15541e-11
-7.85373e-10
4.91938e-11
-7.51928e-10
6.84897e-11
-7.2151e-10
8.76886e-11
-6.92213e-10
1.02412e-10
-6.61516e-10
1.10559e-10
-6.28532e-10
1.1357e-10
-5.92239e-10
1.11437e-10
-5.52809e-10
1.06222e-10
-5.07404e-10
9.76305e-11
-4.56605e-10
8.80839e-11
-4.01779e-10
8.28501e-11
-3.48977e-10
9.02653e-11
-3.03252e-10
1.10488e-10
-2.66041e-10
1.33655e-10
-2.30257e-10
1.43258e-10
-1.87308e-10
1.30289e-10
-1.41948e-10
1.12979e-10
-1.07179e-10
1.16938e-10
-9.62033e-11
1.57225e-10
-9.9233e-11
2.03649e-10
-9.38833e-11
2.17261e-10
-6.53434e-11
1.85721e-10
-2.98099e-11
1.51479e-10
-2.2498e-11
1.68115e-10
-4.27201e-11
2.19818e-10
-5.19902e-11
2.31057e-10
-2.29859e-11
1.77817e-10
1.06099e-11
1.29042e-10
9.05881e-12
1.47616e-10
1.86721e-13
1.78937e-10
3.22616e-11
1.43768e-10
6.08019e-11
1.05549e-10
4.54917e-11
1.30217e-10
2.31082e-11
1.80525e-10
1.79275e-11
1.9885e-10
9.34522e-12
1.92012e-10
-7.3888e-12
2.36173e-10
1.57351e-11
2.03173e-10
1.42555e-10
3.82239e-06
8.30455e-08
3.79103e-06
1.01226e-07
3.7577e-06
1.05989e-07
3.72289e-06
1.10311e-07
3.68672e-06
1.14303e-07
3.64933e-06
1.1808e-07
3.61084e-06
1.21631e-07
3.57132e-06
1.24968e-07
3.53084e-06
1.28108e-07
3.48949e-06
1.31009e-07
3.44735e-06
1.33682e-07
3.4045e-06
1.36136e-07
3.36102e-06
1.3837e-07
3.31699e-06
1.40392e-07
3.27247e-06
1.42192e-07
3.22749e-06
1.43768e-07
3.18211e-06
1.45144e-07
3.1364e-06
1.46316e-07
3.0904e-06
1.47278e-07
3.04417e-06
1.48043e-07
2.99775e-06
1.48626e-07
2.95118e-06
1.49025e-07
2.9045e-06
1.4923e-07
2.85775e-06
1.49258e-07
2.81098e-06
1.49128e-07
2.76422e-06
1.48853e-07
2.71752e-06
1.48438e-07
2.67093e-06
1.47897e-07
2.62448e-06
1.47246e-07
2.57824e-06
1.4649e-07
2.53223e-06
1.45624e-07
2.48649e-06
1.44659e-07
2.44107e-06
1.43613e-07
2.39597e-06
1.42496e-07
2.35124e-06
1.41305e-07
2.3069e-06
1.40041e-07
2.26297e-06
1.38715e-07
2.21949e-06
1.37341e-07
2.17645e-06
1.35921e-07
2.13387e-06
1.34453e-07
2.09175e-06
1.32941e-07
2.05009e-06
1.31395e-07
2.0089e-06
1.29821e-07
1.96816e-06
1.28222e-07
1.92788e-06
1.26598e-07
1.88804e-06
1.24957e-07
1.84863e-06
1.23303e-07
1.80966e-06
1.21644e-07
1.77113e-06
1.19985e-07
1.73302e-06
1.18331e-07
1.69534e-06
1.16689e-07
1.65808e-06
1.15068e-07
1.62123e-06
1.13474e-07
1.58482e-06
1.11911e-07
1.54883e-06
1.10381e-07
1.51327e-06
1.08889e-07
1.47813e-06
1.07442e-07
1.4434e-06
1.0605e-07
1.40908e-06
1.04725e-07
1.37515e-06
1.03476e-07
1.34159e-06
1.0231e-07
1.30839e-06
1.01243e-07
1.27552e-06
1.00299e-07
1.24293e-06
9.95103e-08
1.2106e-06
9.88975e-08
1.17847e-06
9.84851e-08
1.14651e-06
9.83263e-08
1.11465e-06
9.85056e-08
1.08285e-06
9.91063e-08
1.0511e-06
1.00212e-07
1.01942e-06
1.01954e-07
9.87879e-07
1.04518e-07
9.56734e-07
1.0809e-07
9.26527e-07
1.12899e-07
8.98216e-07
1.19176e-07
8.73478e-07
1.2688e-07
8.54429e-07
1.35734e-07
8.45398e-07
1.44974e-07
8.41364e-07
1.52013e-07
8.29046e-07
1.56005e-07
8.33579e-07
1.65087e-07
7.93779e-07
1.68758e-07
6.87891e-07
1.61427e-07
5.35345e-07
1.85291e-07
4.0052e-07
1.3884e-07
3.50325e-07
6.97433e-08
3.1517e-07
5.13373e-08
2.98832e-07
2.70241e-08
2.978e-07
4.96783e-09
2.92575e-07
1.81601e-08
2.90925e-07
1.29745e-08
2.92009e-07
8.90502e-09
2.85185e-07
1.79126e-08
2.78941e-07
1.68894e-08
2.73774e-07
1.56248e-08
2.68032e-07
1.67652e-08
2.62715e-07
1.63671e-08
2.5766e-07
1.61211e-08
2.52351e-07
1.66099e-08
2.47123e-07
1.65219e-08
2.41862e-07
1.63491e-08
2.3666e-07
1.64152e-08
2.31354e-07
1.62392e-08
2.2586e-07
1.59528e-08
2.19894e-07
1.59756e-08
2.13994e-07
1.56059e-08
2.0868e-07
1.50584e-08
2.03563e-07
1.47059e-08
1.98725e-07
1.41939e-08
1.94119e-07
1.37791e-08
1.89525e-07
1.37002e-08