/*--------------------------------*- C++ -*----------------------------------*\
| =========                 |                                                 |
| \\      /  F ield         | OpenFOAM: The Open Source CFD Toolbox           |
|  \\    /   O peration     | Version:  v2006                                 |
|   \\  /    A nd           | Website:  www.openfoam.com                      |
|    \\/     M anipulation  |                                                 |
\*---------------------------------------------------------------------------*/
FoamFile
{
    version     2.0;
    format      ascii;
    class       volVectorField;
    location    "0.2";
    object      U;
}
// * * * * * * * * * * * * * * * * * * * * * * * * * * * * * * * * * * * * * //

dimensions      [0 1 -1 0 0 0 0];


internalField   nonuniform List<vector> 
33000
(
(0.00637813 0 4.63101e-05)
(0.0107382 0 6.36588e-05)
(0.00991337 0 6.61897e-05)
(0.00977058 0 6.8788e-05)
(0.00969848 0 7.14396e-05)
(0.00961026 0 7.40148e-05)
(0.00951852 0 7.65124e-05)
(0.00942402 0 7.88701e-05)
(0.00932684 0 8.11353e-05)
(0.00922719 0 8.31887e-05)
(0.00912529 0 8.50714e-05)
(0.00902127 0 8.68488e-05)
(0.0089153 0 8.8522e-05)
(0.00880754 0 9.00622e-05)
(0.00869815 0 9.14399e-05)
(0.00858729 0 9.26487e-05)
(0.00847514 0 9.37263e-05)
(0.00836182 0 9.46787e-05)
(0.00824746 0 9.54919e-05)
(0.0081322 0 9.61835e-05)
(0.00801619 0 9.6749e-05)
(0.00789952 0 9.72257e-05)
(0.00778233 0 9.75537e-05)
(0.00766474 0 9.77516e-05)
(0.00754688 0 9.78453e-05)
(0.00742884 0 9.78394e-05)
(0.00731074 0 9.77357e-05)
(0.00719267 0 9.75519e-05)
(0.00707475 0 9.73045e-05)
(0.00695705 0 9.69886e-05)
(0.00683969 0 9.65934e-05)
(0.00672278 0 9.61277e-05)
(0.0066064 0 9.561e-05)
(0.00649062 0 9.50416e-05)
(0.00637554 0 9.44109e-05)
(0.00626123 0 9.37219e-05)
(0.00614776 0 9.29949e-05)
(0.00603519 0 9.22435e-05)
(0.00592354 0 9.14613e-05)
(0.00581285 0 9.06369e-05)
(0.00570318 0 8.97776e-05)
(0.00559453 0 8.89005e-05)
(0.0054869 0 8.80128e-05)
(0.0053803 0 8.71091e-05)
(0.00527472 0 8.61804e-05)
(0.00517015 0 8.52272e-05)
(0.00506661 0 8.4258e-05)
(0.00496409 0 8.32825e-05)
(0.00486257 0 8.23084e-05)
(0.00476205 0 8.13386e-05)
(0.00466253 0 8.0371e-05)
(0.00456401 0 7.94016e-05)
(0.0044665 0 7.84352e-05)
(0.00437 0 7.74889e-05)
(0.00427449 0 7.65765e-05)
(0.00417993 0 7.56997e-05)
(0.00408631 0 7.48527e-05)
(0.00399361 0 7.4032e-05)
(0.0039018 0 7.32484e-05)
(0.00381083 0 7.25254e-05)
(0.00372063 0 7.1882e-05)
(0.00363111 0 7.13263e-05)
(0.00354216 0 7.08674e-05)
(0.00345365 0 7.05278e-05)
(0.00336544 0 7.03459e-05)
(0.00327728 0 7.03633e-05)
(0.00318892 0 7.06286e-05)
(0.00309996 0 7.12328e-05)
(0.00300989 0 7.23411e-05)
(0.00291791 0 7.41866e-05)
(0.0028229 0 7.70883e-05)
(0.00272323 0 8.16257e-05)
(0.00261624 0 8.89446e-05)
(0.00249754 0 0.000101179)
(0.00235967 0 0.000122335)
(0.0021906 0 0.000160382)
(0.00194968 0 0.00023053)
(0.00190077 0 0.000374111)
(0.00103191 0 0.000173184)
(0.00111238 0 1.97734e-05)
(0.000929563 0 -5.05492e-05)
(0.000954525 0 -9.65257e-05)
(0.000946074 0 1.7189e-05)
(0.000919001 0 2.24289e-05)
(0.000930082 0 2.54773e-05)
(0.000920179 0 1.96654e-05)
(0.000891378 0 1.42438e-05)
(0.000872187 0 7.9293e-06)
(0.000856308 0 3.97582e-06)
(0.00084313 0 1.00322e-05)
(0.000827509 0 1.05799e-05)
(0.000815064 0 1.11941e-05)
(0.000801219 0 1.16015e-05)
(0.000786369 0 1.14523e-05)
(0.000771977 0 1.14995e-05)
(0.000757021 0 1.19676e-05)
(0.000742028 0 1.24094e-05)
(0.000725626 0 1.27956e-05)
(0.000712157 0 1.42455e-05)
(0.000690606 0 1.37107e-05)
(0.000677502 0 1.18067e-05)
(0.000661882 0 1.00775e-05)
(0.000648586 0 9.7165e-06)
(0.000634739 0 1.07948e-05)
(0.000620986 0 1.07817e-05)
(0.000607744 0 1.07533e-05)
(0.000594349 0 1.06554e-05)
(0.000580951 0 1.04683e-05)
(0.000567795 0 1.0263e-05)
(0.000554848 0 1.0102e-05)
(0.000542094 0 1.00069e-05)
(0.000529482 0 9.9204e-06)
(0.000517053 0 9.83234e-06)
(0.000504678 0 9.78799e-06)
(0.000492563 0 9.91e-06)
(0.000479475 0 1.00838e-05)
(0.000469289 0 1.11485e-05)
(0.000451613 0 1.05284e-05)
(0.000442153 0 8.78586e-06)
(0.000430629 0 7.19017e-06)
(0.000421122 0 6.79369e-06)
(0.000411414 0 7.54556e-06)
(0.000401795 0 7.48219e-06)
(0.000392639 0 7.3527e-06)
(0.000383496 0 7.21993e-06)
(0.000374435 0 7.02664e-06)
(0.000365618 0 6.86962e-06)
(0.000356958 0 6.75445e-06)
(0.000348462 0 6.62161e-06)
(0.000340149 0 6.48883e-06)
(0.000332001 0 6.35406e-06)
(0.000324024 0 6.21283e-06)
(0.000316216 0 6.08535e-06)
(0.000308564 0 5.9599e-06)
(0.000301076 0 5.82534e-06)
(0.000293763 0 5.68887e-06)
(0.000286615 0 5.56405e-06)
(0.000279617 0 5.4481e-06)
(0.000272764 0 5.32904e-06)
(0.000266066 0 5.20276e-06)
(0.000259529 0 5.07677e-06)
(0.000253145 0 4.96016e-06)
(0.000246897 0 4.84867e-06)
(0.000240791 0 4.7294e-06)
(0.000234831 0 4.6173e-06)
(0.000229005 0 4.51694e-06)
(0.0002233 0 4.41499e-06)
(0.000217726 0 4.30511e-06)
(0.000212287 0 4.19791e-06)
(0.000206975 0 4.09956e-06)
(0.000201779 0 4.00202e-06)
(0.000196704 0 3.90143e-06)
(0.000191748 0 3.80621e-06)
(0.000186904 0 3.71641e-06)
(0.000182168 0 3.62465e-06)
(0.000177544 0 3.53251e-06)
(0.000173031 0 3.44567e-06)
(0.000168622 0 3.3593e-06)
(0.000164317 0 3.27206e-06)
(0.000160114 0 3.19214e-06)
(0.000156004 0 3.11917e-06)
(0.000151983 0 3.03913e-06)
(0.000148061 0 2.94968e-06)
(0.000144242 0 2.86658e-06)
(0.000140514 0 2.79669e-06)
(0.000136868 0 2.7285e-06)
(0.000133309 0 2.65228e-06)
(0.000129842 0 2.57583e-06)
(0.000126461 0 2.51042e-06)
(0.000123153 0 2.45074e-06)
(0.000119919 0 2.38216e-06)
(0.000116769 0 2.30815e-06)
(0.000113703 0 2.24396e-06)
(0.000110706 0 2.1872e-06)
(0.000107778 0 2.12467e-06)
(0.000104927 0 2.05916e-06)
(0.00010215 0 2.00159e-06)
(9.94359e-05 0 1.94863e-06)
(9.67862e-05 0 1.89142e-06)
(9.42055e-05 0 1.83333e-06)
(9.16899e-05 0 1.78131e-06)
(8.92336e-05 0 1.73082e-06)
(8.68394e-05 0 1.67548e-06)
(8.45128e-05 0 1.61887e-06)
(8.22513e-05 0 1.56758e-06)
(8.00481e-05 0 1.52008e-06)
(7.79019e-05 0 1.4721e-06)
(7.58145e-05 0 1.42391e-06)
(7.37844e-05 0 1.37827e-06)
(7.18075e-05 0 1.33406e-06)
(6.98825e-05 0 1.28846e-06)
(6.8012e-05 0 1.24076e-06)
(6.61978e-05 0 1.19334e-06)
(6.44379e-05 0 1.14938e-06)
(6.27282e-05 0 1.10957e-06)
(6.10659e-05 0 1.07188e-06)
(5.94505e-05 0 1.03479e-06)
(5.78809e-05 0 9.98235e-07)
(5.63548e-05 0 9.62174e-07)
(5.48714e-05 0 9.26911e-07)
(5.34296e-05 0 8.93413e-07)
(5.20275e-05 0 8.61195e-07)
(5.06643e-05 0 8.29305e-07)
(4.93397e-05 0 7.98297e-07)
(4.80525e-05 0 7.68495e-07)
(4.68022e-05 0 7.38325e-07)
(4.55896e-05 0 7.07148e-07)
(4.44148e-05 0 6.76054e-07)
(4.32764e-05 0 6.44376e-07)
(4.21751e-05 0 6.1064e-07)
(4.11119e-05 0 5.77963e-07)
(4.00827e-05 0 5.51589e-07)
(3.908e-05 0 5.3041e-07)
(3.81007e-05 0 5.09354e-07)
(3.71464e-05 0 4.88246e-07)
(3.62159e-05 0 4.71049e-07)
(3.53046e-05 0 4.56923e-07)
(3.44123e-05 0 4.39869e-07)
(3.35435e-05 0 4.19015e-07)
(3.26998e-05 0 3.99429e-07)
(3.18769e-05 0 3.8327e-07)
(3.10722e-05 0 3.66604e-07)
(3.02873e-05 0 3.48258e-07)
(2.95227e-05 0 3.32404e-07)
(2.87738e-05 0 3.21415e-07)
(2.80368e-05 0 3.11587e-07)
(2.73138e-05 0 2.98737e-07)
(2.66079e-05 0 2.83885e-07)
(2.59194e-05 0 2.69426e-07)
(2.52466e-05 0 2.55393e-07)
(2.45896e-05 0 2.40578e-07)
(2.39489e-05 0 2.25801e-07)
(2.33238e-05 0 2.12203e-07)
(2.27134e-05 0 1.99712e-07)
(2.21177e-05 0 1.88107e-07)
(2.1536e-05 0 1.78803e-07)
(2.09663e-05 0 1.71942e-07)
(2.04068e-05 0 1.6558e-07)
(1.98589e-05 0 1.56567e-07)
(1.93256e-05 0 1.45202e-07)
(1.8808e-05 0 1.33631e-07)
(1.83049e-05 0 1.23674e-07)
(1.78145e-05 0 1.16065e-07)
(1.73344e-05 0 1.10861e-07)
(1.68624e-05 0 1.06896e-07)
(1.63978e-05 0 1.02272e-07)
(1.59419e-05 0 9.59303e-08)
(1.5497e-05 0 8.95927e-08)
(1.50625e-05 0 8.61501e-08)
(1.46354e-05 0 8.53779e-08)
(1.42141e-05 0 8.30811e-08)
(1.38017e-05 0 7.53705e-08)
(1.34034e-05 0 6.42741e-08)
(1.30203e-05 0 5.54355e-08)
(1.26479e-05 0 5.22111e-08)
(1.22817e-05 0 5.04965e-08)
(1.19231e-05 0 4.43783e-08)
(1.15779e-05 0 3.31294e-08)
(1.12496e-05 0 2.15265e-08)
(1.09355e-05 0 1.43764e-08)
(1.06302e-05 0 1.14667e-08)
(1.03312e-05 0 1.00333e-08)
(1.00388e-05 0 8.10265e-09)
(9.75368e-06 0 5.47623e-09)
(9.47638e-06 0 1.50882e-09)
(9.20802e-06 0 -4.32689e-09)
(8.9501e-06 0 -1.08655e-08)
(8.7028e-06 0 -1.67653e-08)
(8.46547e-06 0 -2.27669e-08)
(8.23923e-06 0 -3.08536e-08)
(8.02606e-06 0 -4.10106e-08)
(7.82577e-06 0 -5.01846e-08)
(7.63577e-06 0 -5.60546e-08)
(7.45308e-06 0 -5.93891e-08)
(7.27627e-06 0 -6.17256e-08)
(7.10465e-06 0 -6.36027e-08)
(6.9373e-06 0 -6.51727e-08)
(6.77355e-06 0 -6.66874e-08)
(6.61308e-06 0 -6.77005e-08)
(6.45505e-06 0 -6.72776e-08)
(6.29788e-06 0 -6.57564e-08)
(6.1411e-06 0 -6.53633e-08)
(5.98654e-06 0 -6.8154e-08)
(5.83704e-06 0 -7.37157e-08)
(5.69411e-06 0 -7.99123e-08)
(5.5573e-06 0 -8.53371e-08)
(5.42561e-06 0 -9.03041e-08)
(5.299e-06 0 -9.58273e-08)
(5.17816e-06 0 -1.02045e-07)
(5.06345e-06 0 -1.08474e-07)
(4.95458e-06 0 -1.14685e-07)
(4.85087e-06 0 -1.20574e-07)
(4.75143e-06 0 -1.25693e-07)
(4.65481e-06 0 -1.29117e-07)
(4.55882e-06 0 -1.3026e-07)
(4.46133e-06 0 -1.29757e-07)
(4.36137e-06 0 -1.29129e-07)
(4.25946e-06 0 -1.29613e-07)
(4.15667e-06 0 -1.3114e-07)
(4.05359e-06 0 -1.32715e-07)
(3.94988e-06 0 -1.33696e-07)
(3.84517e-06 0 -1.34336e-07)
(3.73986e-06 0 -1.35909e-07)
(3.63547e-06 0 -1.39279e-07)
(3.53396e-06 0 -1.44563e-07)
(3.43671e-06 0 -1.5091e-07)
(3.34415e-06 0 -1.57276e-07)
(3.25558e-06 0 -1.6279e-07)
(3.16979e-06 0 -1.66947e-07)
(3.0851e-06 0 -1.69519e-07)
(2.9998e-06 0 -1.70295e-07)
(2.91219e-06 0 -1.69372e-07)
(2.82087e-06 0 -1.67052e-07)
(2.72507e-06 0 -1.64108e-07)
(2.62487e-06 0 -1.61391e-07)
(2.5212e-06 0 -1.5978e-07)
(2.41579e-06 0 -1.59756e-07)
(2.3107e-06 0 -1.61343e-07)
(2.20801e-06 0 -1.64295e-07)
(2.10936e-06 0 -1.67979e-07)
(2.01562e-06 0 -1.72217e-07)
(1.92724e-06 0 -1.77135e-07)
(1.8448e-06 0 -1.8317e-07)
(1.7689e-06 0 -1.89621e-07)
(1.69957e-06 0 -1.94723e-07)
(1.63476e-06 0 -1.96059e-07)
(1.57045e-06 0 -1.92452e-07)
(1.5023e-06 0 -1.86055e-07)
(1.42874e-06 0 -1.79977e-07)
(1.35182e-06 0 -1.7667e-07)
(1.27471e-06 0 -1.7475e-07)
(1.1992e-06 0 -1.73117e-07)
(1.12574e-06 0 -1.72508e-07)
(1.05653e-06 0 -1.75814e-07)
(9.95943e-07 0 -1.83432e-07)
(9.47414e-07 0 -1.91934e-07)
(9.09759e-07 0 -1.96889e-07)
(8.77734e-07 0 -1.9741e-07)
(8.47099e-07 0 -1.95855e-07)
(8.16693e-07 0 -1.94008e-07)
(7.86166e-07 0 -1.90014e-07)
(7.52989e-07 0 -1.82385e-07)
(7.13677e-07 0 -1.72573e-07)
(6.68043e-07 0 -1.6455e-07)
(6.19202e-07 0 -1.59854e-07)
(5.70489e-07 0 -1.57173e-07)
(5.23123e-07 0 -1.55402e-07)
(4.78119e-07 0 -1.5534e-07)
(4.37396e-07 0 -1.5723e-07)
(4.01934e-07 0 -1.59043e-07)
(3.70017e-07 0 -1.58706e-07)
(3.38872e-07 0 -1.56034e-07)
(3.06375e-07 0 -1.51295e-07)
(2.70366e-07 0 -1.44114e-07)
(2.28168e-07 0 -1.35172e-07)
(1.79243e-07 0 -1.26845e-07)
(1.25728e-07 0 -1.21235e-07)
(7.12233e-08 0 -1.17885e-07)
(1.76991e-08 0 -1.16159e-07)
(-3.37433e-08 0 -1.1618e-07)
(-8.13468e-08 0 -1.1833e-07)
(-1.24342e-07 0 -1.20373e-07)
(-1.64123e-07 0 -1.19523e-07)
(-2.04633e-07 0 -1.14383e-07)
(-2.49565e-07 0 -1.06478e-07)
(-3.00506e-07 0 -9.7803e-08)
(-3.57016e-07 0 -8.97493e-08)
(-4.179e-07 0 -8.2751e-08)
(-4.81274e-07 0 -7.78008e-08)
(-5.44437e-07 0 -7.59381e-08)
(-6.04011e-07 0 -7.72539e-08)
(-6.57677e-07 0 -7.98328e-08)
(-7.05487e-07 0 -8.12422e-08)
(-7.4947e-07 0 -8.03479e-08)
(-7.91842e-07 0 -7.7819e-08)
(-8.3347e-07 0 -7.48532e-08)
(-8.74157e-07 0 -7.16709e-08)
(-9.13914e-07 0 -6.80387e-08)
(-9.52784e-07 0 -6.51288e-08)
(-9.889e-07 0 -6.53624e-08)
(-1.01844e-06 0 -6.95187e-08)
(-1.03837e-06 0 -7.54502e-08)
(-1.04926e-06 0 -7.98749e-08)
(-1.05431e-06 0 -8.05867e-08)
(-1.0577e-06 0 -7.70626e-08)
(-1.06272e-06 0 -7.05918e-08)
(-1.07037e-06 0 -6.37007e-08)
(-1.07911e-06 0 -5.89783e-08)
(-1.08542e-06 0 -5.75442e-08)
(-1.08608e-06 0 -5.91123e-08)
(-1.079e-06 0 -6.25168e-08)
(-1.06399e-06 0 -6.55345e-08)
(-1.04332e-06 0 -6.58251e-08)
(-1.0209e-06 0 -6.249e-08)
(-9.99989e-07 0 -5.64922e-08)
(-9.82175e-07 0 -4.90654e-08)
(-9.67482e-07 0 -4.23045e-08)
(-9.53271e-07 0 -3.92766e-08)
(-9.34651e-07 0 -4.18019e-08)
(-9.06824e-07 0 -4.80216e-08)
(-8.68518e-07 0 -5.3618e-08)
(-8.23101e-07 0 -5.52242e-08)
(-7.75096e-07 0 -5.34912e-08)
(-7.2629e-07 0 -5.02959e-08)
(-6.76821e-07 0 -4.60654e-08)
(-6.27449e-07 0 -4.22794e-08)
(-5.76471e-07 0 -4.2495e-08)
(-5.2029e-07 0 -4.56752e-08)
(-4.59043e-07 0 -4.70153e-08)
(-3.96874e-07 0 -4.4128e-08)
(-3.37677e-07 0 -3.83434e-08)
(-2.83156e-07 0 -3.19875e-08)
(-2.31819e-07 0 -2.80648e-08)
(-1.79995e-07 0 -2.70926e-08)
(-1.26411e-07 0 -2.67078e-08)
(-7.24897e-08 0 -2.55753e-08)
(-1.95503e-08 0 -2.36824e-08)
(3.08815e-08 0 -1.9071e-08)
(7.61016e-08 0 -1.42267e-08)
(1.16155e-07 0 -1.1416e-08)
(1.54829e-07 0 -9.49387e-09)
(1.88314e-07 0 -1.52199e-09)
(2.09688e-07 0 8.67458e-09)
(2.20996e-07 0 1.49184e-08)
(2.2438e-07 0 2.1283e-08)
(2.22913e-07 0 2.20901e-08)
(2.21922e-07 0 2.13574e-08)
(2.19868e-07 0 2.45287e-08)
(2.1258e-07 0 2.79441e-08)
(1.98434e-07 0 3.3877e-08)
(1.79711e-07 0 3.50185e-08)
(1.60602e-07 0 3.25834e-08)
(1.46883e-07 0 2.60339e-08)
(1.3519e-07 0 2.51639e-08)
(1.20905e-07 0 3.07809e-08)
(9.43267e-08 0 4.04385e-08)
(5.65057e-08 0 4.92586e-08)
(1.54829e-08 0 4.70088e-08)
(-2.9597e-08 0 5.25037e-08)
(-6.88001e-08 0 3.9738e-08)
(-1.05512e-07 0 5.10227e-08)
(-1.63137e-07 0 6.77684e-08)
(-2.34126e-07 0 6.98173e-08)
(-3.02746e-07 0 6.93624e-08)
(-3.61898e-07 0 6.19511e-08)
(-4.22334e-07 0 6.90976e-08)
(-4.85906e-07 0 7.06237e-08)
(-5.45988e-07 0 6.23958e-08)
(-5.97229e-07 0 5.90665e-08)
(-6.2876e-07 0 3.83877e-08)
(-6.6784e-07 0 5.93953e-08)
(-7.03361e-07 0 4.96856e-08)
(-7.45144e-07 0 6.91951e-08)
(-7.86344e-07 0 7.03858e-08)
(-8.463e-07 0 8.71792e-08)
(-8.9798e-07 0 7.46212e-08)
(-9.12363e-07 0 3.87523e-08)
(-9.33815e-07 0 7.09386e-08)
(-9.52546e-07 0 3.23038e-08)
(-9.32599e-07 0 5.005e-09)
(-9.14251e-07 0 5.1974e-08)
(-9.17555e-07 0 3.19749e-08)
(-8.99668e-07 0 3.21572e-08)
(-8.72196e-07 0 3.21307e-08)
(-8.57982e-07 0 4.15251e-08)
(-7.85617e-07 0 -4.12036e-08)
(-6.78701e-07 0 1.79259e-08)
(-6.82914e-07 0 5.63319e-08)
(-5.20306e-07 0 6.16119e-08)
(-9.56475e-07 0 2.21305e-07)
(-8.08865e-07 0 1.58796e-07)
(-7.58127e-07 0 1.1737e-07)
(-6.64218e-07 0 1.17211e-07)
(-5.67891e-07 0 1.0515e-07)
(-4.53653e-07 0 9.23518e-08)
(-3.30465e-07 0 9.24862e-08)
(-2.08248e-07 0 1.05413e-07)
(-8.7344e-08 0 1.14728e-07)
(3.30125e-08 0 1.14399e-07)
(1.51824e-07 0 1.09598e-07)
(2.7253e-07 0 9.92063e-08)
(4.03544e-07 0 8.01489e-08)
(5.48448e-07 0 5.96385e-08)
(7.00785e-07 0 4.98344e-08)
(8.50951e-07 0 5.06542e-08)
(9.94127e-07 0 5.28628e-08)
(1.13339e-06 0 4.86117e-08)
(1.2749e-06 0 3.79702e-08)
(1.42006e-06 0 2.66415e-08)
(1.56429e-06 0 1.93861e-08)
(1.70025e-06 0 1.81147e-08)
(1.82042e-06 0 2.28103e-08)
(1.91941e-06 0 3.14519e-08)
(1.99555e-06 0 4.10156e-08)
(2.04746e-06 0 4.76502e-08)
(2.07725e-06 0 5.24039e-08)
(2.09062e-06 0 5.51252e-08)
(2.09118e-06 0 5.5464e-08)
(2.08449e-06 0 5.17238e-08)
(2.07611e-06 0 4.32552e-08)
(2.0736e-06 0 2.59964e-08)
(2.09467e-06 0 2.94231e-09)
(2.11749e-06 0 -2.69528e-08)
(2.14775e-06 0 -5.03181e-08)
(2.20065e-06 0 -6.92114e-08)
(2.25198e-06 0 -8.16532e-08)
(2.302e-06 0 -8.73305e-08)
(2.34587e-06 0 -8.82751e-08)
(2.3759e-06 0 -8.58134e-08)
(2.387e-06 0 -8.11987e-08)
(2.37477e-06 0 -7.34556e-08)
(2.33567e-06 0 -6.00813e-08)
(2.2676e-06 0 -4.06399e-08)
(2.17165e-06 0 -1.72206e-08)
(2.05274e-06 0 2.98506e-09)
(1.91771e-06 0 1.22899e-08)
(1.77697e-06 0 7.39313e-09)
(1.63985e-06 0 -7.29304e-09)
(1.51356e-06 0 -3.65846e-08)
(1.40698e-06 0 -7.15424e-08)
(1.32134e-06 0 -1.06196e-07)
(1.2555e-06 0 -1.27221e-07)
(1.19e-06 0 -1.25262e-07)
(1.1209e-06 0 -9.31748e-08)
(1.02084e-06 0 -5.56292e-08)
(8.97011e-07 0 -3.23864e-08)
(7.96046e-07 0 -6.20202e-08)
(7.31187e-07 0 -1.27052e-07)
(6.90504e-07 0 -1.678e-07)
(6.37413e-07 0 -1.3567e-07)
(5.38047e-07 0 -3.32593e-08)
(3.51769e-07 0 4.47365e-08)
(1.76297e-07 0 3.93658e-08)
(7.68921e-08 0 -6.25118e-08)
(1.40626e-08 0 -1.21593e-07)
(-5.6415e-08 0 -6.17486e-08)
(-1.95358e-07 0 3.35475e-08)
(-3.4573e-07 0 6.7689e-09)
(-3.91286e-07 0 -1.42416e-07)
(-3.3992e-07 0 -2.23447e-07)
(-3.05549e-07 0 -1.55995e-07)
(-3.21802e-07 0 -1.11857e-07)
(-2.71794e-07 0 -2.46528e-07)
(-1.12509e-07 0 -3.42771e-07)
(4.88634e-09 0 -2.114e-07)
(-4.94631e-09 0 -8.64596e-08)
(-3.18003e-08 0 -1.21981e-07)
(-7.33284e-08 0 -1.92334e-08)
(-2.17319e-07 0 -1.66015e-08)
(-1.56974e-07 0 -2.66414e-07)
(0.00638646 0 0.000144121)
(0.0107521 0 0.000193741)
(0.00992783 0 0.000202502)
(0.00978504 0 0.000210878)
(0.00971257 0 0.000218817)
(0.00962382 0 0.000226497)
(0.00953148 0 0.000233914)
(0.00943638 0 0.000240916)
(0.00933864 0 0.000247611)
(0.00923843 0 0.000253794)
(0.00913593 0 0.000259517)
(0.00903133 0 0.000264895)
(0.00892482 0 0.000269902)
(0.00881655 0 0.000274504)
(0.00870672 0 0.000278647)
(0.0085955 0 0.000282313)
(0.00848299 0 0.000285578)
(0.00836933 0 0.000288447)
(0.00825465 0 0.000290894)
(0.00813909 0 0.000292954)
(0.00802276 0 0.000294643)
(0.0079058 0 0.000295992)
(0.00778833 0 0.000296914)
(0.00767046 0 0.000297449)
(0.0075523 0 0.000297663)
(0.00743393 0 0.000297583)
(0.00731546 0 0.000297219)
(0.00719702 0 0.00029661)
(0.00707873 0 0.000295794)
(0.00696068 0 0.000294772)
(0.00684299 0 0.000293525)
(0.00672577 0 0.00029207)
(0.00660909 0 0.000290448)
(0.00649306 0 0.000288668)
(0.00637775 0 0.000286717)
(0.00626322 0 0.000284601)
(0.00614954 0 0.000282363)
(0.00603677 0 0.000280032)
(0.00592495 0 0.000277599)
(0.00581412 0 0.000275046)
(0.00570433 0 0.000272387)
(0.00559558 0 0.000269655)
(0.00548787 0 0.000266868)
(0.0053812 0 0.000264016)
(0.00527557 0 0.000261085)
(0.00517096 0 0.000258084)
(0.00506738 0 0.000255038)
(0.0049648 0 0.000251974)
(0.00486322 0 0.000248909)
(0.00476265 0 0.000245848)
(0.00466308 0 0.000242794)
(0.00456452 0 0.000239754)
(0.00446695 0 0.000236749)
(0.00437036 0 0.000233819)
(0.00427475 0 0.000230987)
(0.00418011 0 0.000228255)
(0.00408645 0 0.000225614)
(0.00399375 0 0.000223072)
(0.00390196 0 0.000220665)
(0.00381105 0 0.000218445)
(0.00372095 0 0.000216449)
(0.00363161 0 0.000214692)
(0.00354295 0 0.00021321)
(0.00345484 0 0.000212079)
(0.00336714 0 0.000211399)
(0.00327967 0 0.000211267)
(0.00319222 0 0.000211813)
(0.00310454 0 0.000213284)
(0.00301625 0 0.000216081)
(0.00292696 0 0.000220702)
(0.00283619 0 0.000227803)
(0.00274348 0 0.000238492)
(0.00264849 0 0.000254739)
(0.00255145 0 0.000279786)
(0.00245405 0 0.000318968)
(0.00236164 0 0.000381549)
(0.00228783 0 0.000482948)
(0.0022704 0 0.000661165)
(0.00224456 0 0.000766889)
(0.00204471 0 0.000399542)
(0.00199533 0 0.00034167)
(0.00106795 0 0.00010607)
(0.00113345 0 5.75314e-05)
(0.000932798 0 -1.22338e-05)
(0.000925996 0 -5.68152e-05)
(0.000902668 0 5.81289e-05)
(0.000873021 0 5.70179e-05)
(0.000856306 0 6.03392e-05)
(0.000859777 0 4.40535e-05)
(0.000853606 0 4.15847e-05)
(0.000829476 0 3.36852e-05)
(0.000816773 0 2.96809e-05)
(0.00080182 0 3.51306e-05)
(0.000786429 0 3.5144e-05)
(0.000772981 0 3.54124e-05)
(0.000758568 0 3.61399e-05)
(0.000743397 0 3.64215e-05)
(0.000728705 0 3.67813e-05)
(0.000714193 0 3.86335e-05)
(0.000700361 0 3.85927e-05)
(0.000684649 0 3.66726e-05)
(0.000671081 0 3.5983e-05)
(0.000649773 0 3.44173e-05)
(0.000636558 0 3.3503e-05)
(0.000621088 0 3.16049e-05)
(0.000607545 0 3.10679e-05)
(0.000593945 0 3.18434e-05)
(0.000580403 0 3.15149e-05)
(0.000567248 0 3.11411e-05)
(0.000554529 0 3.05648e-05)
(0.000541845 0 3.01323e-05)
(0.000529246 0 2.96416e-05)
(0.000516971 0 2.92286e-05)
(0.00050487 0 2.89647e-05)
(0.000493042 0 2.88868e-05)
(0.000481456 0 2.8886e-05)
(0.000470437 0 2.98414e-05)
(0.000460151 0 2.93447e-05)
(0.000448427 0 2.73469e-05)
(0.000438686 0 2.63522e-05)
(0.000421721 0 2.46458e-05)
(0.000412536 0 2.35398e-05)
(0.000401544 0 2.17713e-05)
(0.000392264 0 2.11198e-05)
(0.000383025 0 2.15411e-05)
(0.00037395 0 2.11228e-05)
(0.000365289 0 2.06692e-05)
(0.000356668 0 2.02844e-05)
(0.000348125 0 1.98244e-05)
(0.00033981 0 1.93984e-05)
(0.000331659 0 1.90146e-05)
(0.000323672 0 1.8606e-05)
(0.000315861 0 1.82226e-05)
(0.000308211 0 1.78416e-05)
(0.000300727 0 1.74341e-05)
(0.000293415 0 1.70242e-05)
(0.000286266 0 1.66486e-05)
(0.000279272 0 1.62984e-05)
(0.00027243 0 1.59379e-05)
(0.000265743 0 1.55574e-05)
(0.000259212 0 1.51782e-05)
(0.00025283 0 1.48304e-05)
(0.000246588 0 1.45009e-05)
(0.000240483 0 1.41534e-05)
(0.000234518 0 1.38106e-05)
(0.000228695 0 1.3496e-05)
(0.000223004 0 1.319e-05)
(0.00021744 0 1.2866e-05)
(0.000212007 0 1.25423e-05)
(0.0002067 0 1.2244e-05)
(0.00020151 0 1.19549e-05)
(0.000196435 0 1.16582e-05)
(0.00019148 0 1.13708e-05)
(0.000186638 0 1.10994e-05)
(0.000181904 0 1.0825e-05)
(0.000177282 0 1.05447e-05)
(0.000172776 0 1.02741e-05)
(0.000168379 0 1.00128e-05)
(0.000164083 0 9.75342e-06)
(0.000159887 0 9.50509e-06)
(0.000155789 0 9.27278e-06)
(0.000151783 0 9.03705e-06)
(0.000147865 0 8.78867e-06)
(0.000144035 0 8.54639e-06)
(0.000140299 0 8.32244e-06)
(0.000136656 0 8.10308e-06)
(0.000133105 0 7.87436e-06)
(0.000129641 0 7.64742e-06)
(0.000126262 0 7.44142e-06)
(0.000122962 0 7.25063e-06)
(0.000119738 0 7.04875e-06)
(0.000116589 0 6.83696e-06)
(0.000113516 0 6.642e-06)
(0.000110517 0 6.46189e-06)
(0.000107593 0 6.27288e-06)
(0.000104744 0 6.07875e-06)
(0.000101968 0 5.90027e-06)
(9.92624e-05 0 5.73343e-06)
(9.66227e-05 0 5.56164e-06)
(9.40492e-05 0 5.38886e-06)
(9.1541e-05 0 5.22795e-06)
(8.90947e-05 0 5.07175e-06)
(8.67091e-05 0 4.9067e-06)
(8.43862e-05 0 4.7386e-06)
(8.21268e-05 0 4.5814e-06)
(7.99278e-05 0 4.43379e-06)
(7.7787e-05 0 4.28501e-06)
(7.57057e-05 0 4.13519e-06)
(7.36837e-05 0 3.99308e-06)
(7.17158e-05 0 3.85982e-06)
(6.97973e-05 0 3.72709e-06)
(6.79279e-05 0 3.58997e-06)
(6.61101e-05 0 3.4526e-06)
(6.43447e-05 0 3.32208e-06)
(6.26306e-05 0 3.19855e-06)
(6.09681e-05 0 3.07689e-06)
(5.93573e-05 0 2.95747e-06)
(5.77938e-05 0 2.84453e-06)
(5.62716e-05 0 2.73701e-06)
(5.47886e-05 0 2.63153e-06)
(5.33458e-05 0 2.52869e-06)
(5.19434e-05 0 2.4291e-06)
(5.0581e-05 0 2.33082e-06)
(4.92588e-05 0 2.23374e-06)
(4.79772e-05 0 2.13864e-06)
(4.67357e-05 0 2.04341e-06)
(4.55331e-05 0 1.94756e-06)
(4.43676e-05 0 1.85467e-06)
(4.32356e-05 0 1.76477e-06)
(4.21341e-05 0 1.67411e-06)
(4.10624e-05 0 1.58637e-06)
(4.002e-05 0 1.51107e-06)
(3.90049e-05 0 1.44744e-06)
(3.8016e-05 0 1.38504e-06)
(3.70539e-05 0 1.32111e-06)
(3.61191e-05 0 1.26296e-06)
(3.52101e-05 0 1.21035e-06)
(3.43252e-05 0 1.15352e-06)
(3.34632e-05 0 1.0908e-06)
(3.26229e-05 0 1.03204e-06)
(3.18016e-05 0 9.82064e-07)
(3.09967e-05 0 9.33931e-07)
(3.02086e-05 0 8.83811e-07)
(2.94382e-05 0 8.37775e-07)
(2.86864e-05 0 7.99969e-07)
(2.79533e-05 0 7.63515e-07)
(2.72394e-05 0 7.21529e-07)
(2.65447e-05 0 6.76639e-07)
(2.58675e-05 0 6.35049e-07)
(2.52051e-05 0 5.96675e-07)
(2.45556e-05 0 5.58627e-07)
(2.39182e-05 0 5.2127e-07)
(2.32923e-05 0 4.86082e-07)
(2.26785e-05 0 4.51651e-07)
(2.20784e-05 0 4.17096e-07)
(2.14942e-05 0 3.84587e-07)
(2.09265e-05 0 3.55968e-07)
(2.03749e-05 0 3.28202e-07)
(1.98378e-05 0 2.97477e-07)
(1.93135e-05 0 2.63924e-07)
(1.87998e-05 0 2.31944e-07)
(1.8296e-05 0 2.0411e-07)
(1.78028e-05 0 1.80834e-07)
(1.73202e-05 0 1.62281e-07)
(1.68469e-05 0 1.47912e-07)
(1.63808e-05 0 1.34581e-07)
(1.59209e-05 0 1.18322e-07)
(1.54692e-05 0 9.9655e-08)
(1.50289e-05 0 8.35625e-08)
(1.46017e-05 0 7.23118e-08)
(1.41861e-05 0 6.07994e-08)
(1.37804e-05 0 4.23301e-08)
(1.33848e-05 0 1.75827e-08)
(1.30018e-05 0 -4.09536e-09)
(1.26325e-05 0 -1.67511e-08)
(1.2275e-05 0 -2.51681e-08)
(1.1927e-05 0 -4.00506e-08)
(1.15874e-05 0 -6.36794e-08)
(1.12571e-05 0 -8.76355e-08)
(1.09362e-05 0 -1.03165e-07)
(1.06243e-05 0 -1.1055e-07)
(1.03214e-05 0 -1.16431e-07)
(1.00284e-05 0 -1.24289e-07)
(9.74576e-06 0 -1.33176e-07)
(9.47269e-06 0 -1.42856e-07)
(9.20852e-06 0 -1.55136e-07)
(8.95392e-06 0 -1.698e-07)
(8.7099e-06 0 -1.84739e-07)
(8.4764e-06 0 -2.00285e-07)
(8.25251e-06 0 -2.1911e-07)
(8.03775e-06 0 -2.40591e-07)
(7.83182e-06 0 -2.59559e-07)
(7.63368e-06 0 -2.72733e-07)
(7.4426e-06 0 -2.82002e-07)
(7.25846e-06 0 -2.89902e-07)
(7.08068e-06 0 -2.96354e-07)
(6.9078e-06 0 -3.00942e-07)
(6.73875e-06 0 -3.04831e-07)
(6.57376e-06 0 -3.08589e-07)
(6.41368e-06 0 -3.10992e-07)
(6.25861e-06 0 -3.11938e-07)
(6.10786e-06 0 -3.1458e-07)
(5.96101e-06 0 -3.22477e-07)
(5.81838e-06 0 -3.35407e-07)
(5.68038e-06 0 -3.49961e-07)
(5.54709e-06 0 -3.63553e-07)
(5.41817e-06 0 -3.76647e-07)
(5.29365e-06 0 -3.91072e-07)
(5.17379e-06 0 -4.07322e-07)
(5.05864e-06 0 -4.2414e-07)
(4.9477e-06 0 -4.40095e-07)
(4.83988e-06 0 -4.54446e-07)
(4.73436e-06 0 -4.66515e-07)
(4.63076e-06 0 -4.75212e-07)
(4.5289e-06 0 -4.80073e-07)
(4.42859e-06 0 -4.823e-07)
(4.3293e-06 0 -4.84431e-07)
(4.23054e-06 0 -4.88302e-07)
(4.13204e-06 0 -4.93977e-07)
(4.03373e-06 0 -5.00142e-07)
(3.93589e-06 0 -5.05971e-07)
(3.83872e-06 0 -5.12225e-07)
(3.74236e-06 0 -5.20681e-07)
(3.64693e-06 0 -5.32625e-07)
(3.55236e-06 0 -5.47799e-07)
(3.45867e-06 0 -5.64406e-07)
(3.36573e-06 0 -5.80403e-07)
(3.27317e-06 0 -5.93914e-07)
(3.18049e-06 0 -6.03952e-07)
(3.08715e-06 0 -6.10069e-07)
(2.99276e-06 0 -6.12253e-07)
(2.89718e-06 0 -6.10961e-07)
(2.80056e-06 0 -6.07234e-07)
(2.70321e-06 0 -6.0249e-07)
(2.6056e-06 0 -5.9846e-07)
(2.50802e-06 0 -5.96727e-07)
(2.41112e-06 0 -5.98549e-07)
(2.31566e-06 0 -6.0458e-07)
(2.22285e-06 0 -6.14443e-07)
(2.13376e-06 0 -6.268e-07)
(2.04888e-06 0 -6.39622e-07)
(1.96748e-06 0 -6.52027e-07)
(1.88785e-06 0 -6.63791e-07)
(1.80843e-06 0 -6.75253e-07)
(1.72886e-06 0 -6.84406e-07)
(1.65045e-06 0 -6.8777e-07)
(1.57394e-06 0 -6.81983e-07)
(1.49922e-06 0 -6.68989e-07)
(1.42473e-06 0 -6.55051e-07)
(1.35017e-06 0 -6.46524e-07)
(1.27738e-06 0 -6.43812e-07)
(1.20876e-06 0 -6.4386e-07)
(1.14513e-06 0 -6.45595e-07)
(1.08509e-06 0 -6.52615e-07)
(1.02814e-06 0 -6.67243e-07)
(9.75506e-07 0 -6.84323e-07)
(9.28089e-07 0 -6.94183e-07)
(8.84273e-07 0 -6.92452e-07)
(8.40756e-07 0 -6.83611e-07)
(7.96296e-07 0 -6.73302e-07)
(7.52095e-07 0 -6.60615e-07)
(7.09259e-07 0 -6.41943e-07)
(6.67342e-07 0 -6.18818e-07)
(6.25069e-07 0 -5.98364e-07)
(5.82648e-07 0 -5.84816e-07)
(5.41086e-07 0 -5.76089e-07)
(5.00598e-07 0 -5.69312e-07)
(4.60743e-07 0 -5.65159e-07)
(4.21421e-07 0 -5.63805e-07)
(3.82523e-07 0 -5.61163e-07)
(3.43206e-07 0 -5.5327e-07)
(3.02637e-07 0 -5.40202e-07)
(2.60768e-07 0 -5.22954e-07)
(2.17587e-07 0 -5.00726e-07)
(1.724e-07 0 -4.74867e-07)
(1.25204e-07 0 -4.5109e-07)
(7.75865e-08 0 -4.34533e-07)
(3.17279e-08 0 -4.24416e-07)
(-1.14841e-08 0 -4.17584e-07)
(-5.33549e-08 0 -4.12569e-07)
(-9.54907e-08 0 -4.09462e-07)
(-1.388e-07 0 -4.05457e-07)
(-1.83525e-07 0 -3.96068e-07)
(-2.30251e-07 0 -3.78833e-07)
(-2.79529e-07 0 -3.56312e-07)
(-3.31212e-07 0 -3.32901e-07)
(-3.84341e-07 0 -3.11842e-07)
(-4.37648e-07 0 -2.94544e-07)
(-4.90254e-07 0 -2.82449e-07)
(-5.41493e-07 0 -2.76705e-07)
(-5.91001e-07 0 -2.76655e-07)
(-6.38508e-07 0 -2.78651e-07)
(-6.84065e-07 0 -2.78203e-07)
(-7.28316e-07 0 -2.73061e-07)
(-7.72097e-07 0 -2.64573e-07)
(-8.15283e-07 0 -2.55715e-07)
(-8.56359e-07 0 -2.47717e-07)
(-8.93568e-07 0 -2.40015e-07)
(-9.26481e-07 0 -2.34059e-07)
(-9.55412e-07 0 -2.3384e-07)
(-9.80386e-07 0 -2.40412e-07)
(-1.00147e-06 0 -2.48643e-07)
(-1.02005e-06 0 -2.51725e-07)
(-1.0375e-06 0 -2.4654e-07)
(-1.05416e-06 0 -2.34236e-07)
(-1.06887e-06 0 -2.18492e-07)
(-1.08002e-06 0 -2.04449e-07)
(-1.08614e-06 0 -1.96492e-07)
(-1.08578e-06 0 -1.95661e-07)
(-1.07927e-06 0 -1.99632e-07)
(-1.06814e-06 0 -2.048e-07)
(-1.05467e-06 0 -2.06735e-07)
(-1.04074e-06 0 -2.01484e-07)
(-1.02697e-06 0 -1.89011e-07)
(-1.01254e-06 0 -1.72448e-07)
(-9.9594e-07 0 -1.55807e-07)
(-9.753e-07 0 -1.43075e-07)
(-9.49207e-07 0 -1.3864e-07)
(-9.17861e-07 0 -1.4349e-07)
(-8.82659e-07 0 -1.53801e-07)
(-8.44886e-07 0 -1.61432e-07)
(-8.05813e-07 0 -1.60624e-07)
(-7.65847e-07 0 -1.53857e-07)
(-7.2299e-07 0 -1.4752e-07)
(-6.74652e-07 0 -1.4202e-07)
(-6.21307e-07 0 -1.3707e-07)
(-5.65687e-07 0 -1.36926e-07)
(-5.10176e-07 0 -1.39548e-07)
(-4.56152e-07 0 -1.37578e-07)
(-4.02716e-07 0 -1.28538e-07)
(-3.48765e-07 0 -1.14934e-07)
(-2.9388e-07 0 -1.02393e-07)
(-2.37454e-07 0 -9.65559e-08)
(-1.79237e-07 0 -9.61361e-08)
(-1.2106e-07 0 -9.45929e-08)
(-6.57365e-08 0 -8.89147e-08)
(-1.51404e-08 0 -8.2034e-08)
(3.17226e-08 0 -7.07667e-08)
(7.45453e-08 0 -5.79586e-08)
(1.12747e-07 0 -4.72275e-08)
(1.4845e-07 0 -3.97799e-08)
(1.80503e-07 0 -2.01912e-08)
(2.08147e-07 0 4.43694e-09)
(2.29271e-07 0 2.24377e-08)
(2.41833e-07 0 3.90085e-08)
(2.50347e-07 0 4.2007e-08)
(2.55799e-07 0 4.11244e-08)
(2.63706e-07 0 4.92321e-08)
(2.64507e-07 0 5.97057e-08)
(2.58814e-07 0 7.64277e-08)
(2.45703e-07 0 7.721e-08)
(2.31018e-07 0 7.33485e-08)
(2.17336e-07 0 6.17212e-08)
(1.98276e-07 0 6.69767e-08)
(1.77148e-07 0 8.07423e-08)
(1.47605e-07 0 1.05765e-07)
(1.14664e-07 0 1.26014e-07)
(7.54936e-08 0 1.23444e-07)
(3.15666e-08 0 1.36925e-07)
(-1.01753e-08 0 1.16132e-07)
(-5.84833e-08 0 1.45391e-07)
(-1.15663e-07 0 1.89699e-07)
(-1.81441e-07 0 1.93006e-07)
(-2.45712e-07 0 1.94617e-07)
(-3.02053e-07 0 1.72651e-07)
(-3.64351e-07 0 1.9299e-07)
(-4.1804e-07 0 1.97881e-07)
(-4.8154e-07 0 1.72833e-07)
(-5.23474e-07 0 1.65478e-07)
(-5.7613e-07 0 1.40603e-07)
(-6.40859e-07 0 1.92592e-07)
(-6.91384e-07 0 1.49853e-07)
(-7.25785e-07 0 1.9839e-07)
(-7.66337e-07 0 2.08077e-07)
(-8.19109e-07 0 2.18422e-07)
(-8.2746e-07 0 1.97624e-07)
(-8.58119e-07 0 1.35319e-07)
(-8.74169e-07 0 1.96933e-07)
(-8.76562e-07 0 1.38717e-07)
(-9.07054e-07 0 1.08924e-07)
(-8.95875e-07 0 1.64148e-07)
(-8.89676e-07 0 1.45544e-07)
(-8.78515e-07 0 1.15686e-07)
(-8.30661e-07 0 9.37837e-08)
(-8.65155e-07 0 1.65155e-07)
(-7.19336e-07 0 9.87874e-08)
(-1.53426e-06 0 5.12891e-07)
(-1.34775e-06 0 4.95154e-07)
(-1.32667e-06 0 4.86297e-07)
(-1.13985e-06 0 5.76369e-07)
(-9.42771e-07 0 4.80912e-07)
(-7.78792e-07 0 4.03205e-07)
(-6.34432e-07 0 4.34623e-07)
(-5.07323e-07 0 4.09682e-07)
(-3.8741e-07 0 3.85585e-07)
(-2.80334e-07 0 3.96389e-07)
(-1.77415e-07 0 4.02646e-07)
(-5.60121e-08 0 3.90896e-07)
(8.31536e-08 0 3.84846e-07)
(2.24406e-07 0 3.83676e-07)
(3.6436e-07 0 3.63435e-07)
(5.06031e-07 0 3.1928e-07)
(6.4673e-07 0 2.77135e-07)
(7.82209e-07 0 2.58307e-07)
(9.11766e-07 0 2.54877e-07)