/*--------------------------------*- C++ -*----------------------------------*\
| =========                 |                                                 |
| \\      /  F ield         | OpenFOAM: The Open Source CFD Toolbox           |
|  \\    /   O peration     | Version:  v2006                                 |
|   \\  /    A nd           | Website:  www.openfoam.com                      |
|    \\/     M anipulation  |                                                 |
\*---------------------------------------------------------------------------*/
FoamFile
{
    version     2.0;
    format      ascii;
    class       volScalarField;
    location    "1.8";
    object      k;
}
// * * * * * * * * * * * * * * * * * * * * * * * * * * * * * * * * * * * * * //

dimensions      [0 2 -2 0 0 0 0];


internalField   nonuniform List<scalar> 
33000
(
2.59394e-08
2.56672e-08
2.57519e-08
2.56432e-08
2.56156e-08
2.55921e-08
2.55559e-08
2.55335e-08
2.55229e-08
2.55282e-08
2.55513e-08
2.5584e-08
2.56184e-08
2.56484e-08
2.5653e-08
2.56542e-08
2.56582e-08
2.56712e-08
2.56983e-08
2.57514e-08
2.58112e-08
2.58466e-08
2.58779e-08
2.59421e-08
2.60337e-08
2.61094e-08
2.6174e-08
2.623e-08
2.62937e-08
2.63922e-08
2.64638e-08
2.65025e-08
2.653e-08
2.66149e-08
2.67133e-08
2.68057e-08
2.68164e-08
2.68257e-08
2.69271e-08
2.69792e-08
2.70369e-08
2.70406e-08
2.69609e-08
2.69e-08
2.68936e-08
2.68315e-08
2.6682e-08
2.65562e-08
2.64601e-08
2.63474e-08
2.62003e-08
2.60537e-08
2.59276e-08
2.58151e-08
2.57141e-08
2.56033e-08
2.54838e-08
2.53818e-08
2.5278e-08
2.51476e-08
2.50002e-08
2.48652e-08
2.47568e-08
2.46253e-08
2.44824e-08
2.43267e-08
2.41699e-08
2.40281e-08
2.38676e-08
2.36918e-08
2.35047e-08
2.32693e-08
2.29721e-08
2.25825e-08
2.21658e-08
2.16109e-08
2.07784e-08
1.96789e-08
1.9075e-08
1.86266e-08
1.85892e-08
1.85639e-08
1.86359e-08
1.869e-08
1.87877e-08
1.87924e-08
1.87132e-08
1.86892e-08
1.86763e-08
1.86706e-08
1.86593e-08
1.86405e-08
1.85997e-08
1.85476e-08
1.84916e-08
1.83861e-08
1.82691e-08
1.80218e-08
1.78635e-08
1.74398e-08
1.74927e-08
1.73969e-08
1.74625e-08
1.74239e-08
1.74299e-08
1.74596e-08
1.74431e-08
1.74083e-08
1.7382e-08
1.73589e-08
1.73295e-08
1.72925e-08
1.72514e-08
1.71821e-08
1.71037e-08
1.69377e-08
1.68266e-08
1.64628e-08
1.65189e-08
1.64322e-08
1.64691e-08
1.64432e-08
1.6443e-08
1.64596e-08
1.64426e-08
1.64167e-08
1.63935e-08
1.63633e-08
1.63348e-08
1.63034e-08
1.62619e-08
1.62199e-08
1.6176e-08
1.61302e-08
1.60806e-08
1.60267e-08
1.59733e-08
1.59175e-08
1.58624e-08
1.58042e-08
1.5744e-08
1.56804e-08
1.5617e-08
1.55534e-08
1.54882e-08
1.54241e-08
1.53613e-08
1.52992e-08
1.52359e-08
1.51733e-08
1.51108e-08
1.50472e-08
1.49845e-08
1.49229e-08
1.4861e-08
1.47998e-08
1.4739e-08
1.46773e-08
1.4616e-08
1.45555e-08
1.44953e-08
1.44355e-08
1.43762e-08
1.43167e-08
1.42566e-08
1.41971e-08
1.41377e-08
1.40771e-08
1.40176e-08
1.3959e-08
1.39003e-08
1.38418e-08
1.37838e-08
1.37253e-08
1.36666e-08
1.36088e-08
1.35518e-08
1.34942e-08
1.34373e-08
1.33808e-08
1.33231e-08
1.32659e-08
1.32094e-08
1.31537e-08
1.30974e-08
1.30416e-08
1.29866e-08
1.29322e-08
1.28766e-08
1.2821e-08
1.27665e-08
1.27131e-08
1.2659e-08
1.26049e-08
1.25516e-08
1.24989e-08
1.24456e-08
1.23921e-08
1.23399e-08
1.22873e-08
1.2235e-08
1.21834e-08
1.21314e-08
1.20793e-08
1.2028e-08
1.19772e-08
1.19264e-08
1.18766e-08
1.18272e-08
1.17768e-08
1.17272e-08
1.16782e-08
1.16282e-08
1.15795e-08
1.1532e-08
1.14839e-08
1.1436e-08
1.13889e-08
1.1342e-08
1.12945e-08
1.1248e-08
1.12024e-08
1.1156e-08
1.11103e-08
1.10653e-08
1.10194e-08
1.09739e-08
1.09291e-08
1.08835e-08
1.08387e-08
1.07948e-08
1.07516e-08
1.07091e-08
1.06672e-08
1.0626e-08
1.05855e-08
1.05456e-08
1.05064e-08
1.04681e-08
1.04308e-08
1.03941e-08
1.03581e-08
1.03226e-08
1.02877e-08
1.02533e-08
1.02195e-08
1.01863e-08
1.01538e-08
1.01221e-08
1.0091e-08
1.00604e-08
1.00304e-08
1.00009e-08
9.97197e-09
9.94366e-09
9.91604e-09
9.88897e-09
9.86238e-09
9.83625e-09
9.81057e-09
9.78535e-09
9.76059e-09
9.7363e-09
9.71253e-09
9.68938e-09
9.66676e-09
9.6446e-09
9.62286e-09
9.60156e-09
9.58069e-09
9.56027e-09
9.54036e-09
9.521e-09
9.50208e-09
9.48357e-09
9.46544e-09
9.4477e-09
9.43039e-09
9.41357e-09
9.39714e-09
9.38107e-09
9.36535e-09
9.34998e-09
9.33498e-09
9.32041e-09
9.30619e-09
9.29228e-09
9.27867e-09
9.26537e-09
9.25243e-09
9.23986e-09
9.2276e-09
9.21563e-09
9.20392e-09
9.19249e-09
9.18135e-09
9.17056e-09
9.16006e-09
9.14981e-09
9.13982e-09
9.13006e-09
9.12054e-09
9.11128e-09
9.10233e-09
9.09365e-09
9.08521e-09
9.07699e-09
9.06898e-09
9.06121e-09
9.0537e-09
9.04641e-09
9.0393e-09
9.03236e-09
9.02559e-09
9.01907e-09
9.01273e-09
9.00655e-09
9.00052e-09
8.99467e-09
8.98905e-09
8.98364e-09
8.9784e-09
8.97331e-09
8.96839e-09
8.9637e-09
8.95918e-09
8.95478e-09
8.95049e-09
8.94631e-09
8.9423e-09
8.93841e-09
8.93463e-09
8.93094e-09
8.92736e-09
8.92391e-09
8.92065e-09
8.91759e-09
8.91462e-09
8.91172e-09
8.9089e-09
8.90614e-09
8.90347e-09
8.90092e-09
8.89841e-09
8.89594e-09
8.89353e-09
8.89118e-09
8.8889e-09
8.88674e-09
8.88471e-09
8.88273e-09
8.8808e-09
8.8789e-09
8.87702e-09
8.87515e-09
8.87328e-09
8.87147e-09
8.86973e-09
8.86805e-09
8.8664e-09
8.86481e-09
8.86327e-09
8.86178e-09
8.86032e-09
8.85891e-09
8.8575e-09
8.85609e-09
8.85468e-09
8.85328e-09
8.8519e-09
8.85058e-09
8.84934e-09
8.84815e-09
8.847e-09
8.84586e-09
8.84474e-09
8.84362e-09
8.84254e-09
8.84149e-09
8.84046e-09
8.83948e-09
8.83854e-09
8.83766e-09
8.8368e-09
8.83597e-09
8.83514e-09
8.83428e-09
8.83341e-09
8.83254e-09
8.8317e-09
8.83089e-09
8.83012e-09
8.8294e-09
8.82867e-09
8.82791e-09
8.82711e-09
8.82627e-09
8.82541e-09
8.82458e-09
8.82381e-09
8.82309e-09
8.82241e-09
8.82173e-09
8.82103e-09
8.82034e-09
8.81966e-09
8.819e-09
8.81837e-09
8.81777e-09
8.81719e-09
8.81659e-09
8.81598e-09
8.81537e-09
8.8148e-09
8.81426e-09
8.81375e-09
8.81326e-09
8.81279e-09
8.81232e-09
8.81186e-09
8.81144e-09
8.811e-09
8.81052e-09
8.81001e-09
8.80942e-09
8.80893e-09
8.80857e-09
8.80808e-09
8.80796e-09
8.80753e-09
8.80793e-09
8.80755e-09
8.80764e-09
8.80758e-09
8.80756e-09
8.80748e-09
8.80726e-09
8.8071e-09
8.80691e-09
8.80677e-09
8.80677e-09
8.80648e-09
8.80616e-09
8.80585e-09
8.80563e-09
8.80548e-09
8.80522e-09
8.80511e-09
8.80513e-09
8.80528e-09
8.80532e-09
8.80532e-09
8.80542e-09
8.80522e-09
8.80513e-09
8.80476e-09
8.80488e-09
8.80479e-09
8.80451e-09
8.80487e-09
8.80467e-09
8.80468e-09
8.80413e-09
8.80353e-09
8.80344e-09
8.80289e-09
8.80251e-09
8.80435e-09
8.80301e-09
8.81277e-09
8.81092e-09
8.81231e-09
8.81281e-09
8.81283e-09
8.81263e-09
8.81225e-09
8.81163e-09
8.81082e-09
8.8099e-09
8.80893e-09
8.80799e-09
8.80717e-09
8.80652e-09
8.80597e-09
8.80547e-09
8.80496e-09
8.80448e-09
8.80406e-09
8.80372e-09
8.80344e-09
8.80317e-09
8.8029e-09
8.80261e-09
8.8023e-09
8.80198e-09
8.80166e-09
8.80136e-09
8.8011e-09
8.80088e-09
8.8007e-09
8.80055e-09
8.80044e-09
8.80041e-09
8.80043e-09
8.80051e-09
8.80065e-09
8.80085e-09
8.8011e-09
8.80142e-09
8.80178e-09
8.80218e-09
8.80256e-09
8.80287e-09
8.80304e-09
8.80306e-09
8.80297e-09
8.80284e-09
8.80276e-09
8.80284e-09
8.80318e-09
8.80377e-09
8.80456e-09
8.80536e-09
8.80593e-09
8.8061e-09
8.80598e-09
8.80592e-09
8.80631e-09
8.80706e-09
8.80755e-09
8.80731e-09
8.80623e-09
8.80492e-09
8.80421e-09
8.80419e-09
8.80388e-09
8.80286e-09
8.80152e-09
8.80102e-09
8.80167e-09
8.8018e-09
8.80147e-09
8.80187e-09
8.80339e-09
8.80404e-09
8.80357e-09
8.803e-09
8.80218e-09
8.80211e-09
8.80291e-09
1.02039e-08
1.02186e-08
1.02115e-08
1.02126e-08
1.0219e-08
1.02202e-08
1.02178e-08
1.02162e-08
1.02157e-08
1.02167e-08
1.02202e-08
1.02263e-08
1.0234e-08
1.02406e-08
1.02418e-08
1.02432e-08
1.02457e-08
1.0249e-08
1.02534e-08
1.02598e-08
1.02652e-08
1.0264e-08
1.02602e-08
1.02597e-08
1.02657e-08
1.02703e-08
1.02713e-08
1.02699e-08
1.02713e-08
1.02795e-08
1.02796e-08
1.02692e-08
1.0258e-08
1.02656e-08
1.02752e-08
1.02735e-08
1.02547e-08
1.02441e-08
1.02628e-08
1.02723e-08
1.02756e-08
1.02614e-08
1.02322e-08
1.02283e-08
1.02468e-08
1.02443e-08
1.02144e-08
1.02038e-08
1.02098e-08
1.02111e-08
1.01946e-08
1.01763e-08
1.01683e-08
1.01659e-08
1.01696e-08
1.0168e-08
1.01625e-08
1.01663e-08
1.01768e-08
1.01709e-08
1.01542e-08
1.01493e-08
1.01603e-08
1.01561e-08
1.01434e-08
1.01263e-08
1.0114e-08
1.01102e-08
1.01022e-08
1.00941e-08
1.00925e-08
1.00953e-08
1.01018e-08
1.01099e-08
1.01214e-08
1.01332e-08
1.01375e-08
1.01251e-08
1.00988e-08
1.00804e-08
1.00842e-08
1.01116e-08
1.01551e-08
1.01662e-08
1.01639e-08
1.00974e-08
1.00781e-08
1.00948e-08
1.00996e-08
1.00981e-08
1.00796e-08
1.00728e-08
1.00696e-08
1.00634e-08
1.00589e-08
1.00584e-08
1.00587e-08
1.00582e-08
1.00579e-08
1.00573e-08
1.0059e-08
1.00822e-08
1.00986e-08
1.00848e-08
1.01016e-08
1.00968e-08
1.00767e-08
1.00684e-08
1.00714e-08
1.00712e-08
1.00623e-08
1.00603e-08
1.00587e-08
1.00542e-08
1.0054e-08
1.00538e-08
1.00536e-08
1.00525e-08
1.00526e-08
1.00682e-08
1.00812e-08
1.0071e-08
1.00841e-08
1.00797e-08
1.00671e-08
1.0063e-08
1.00608e-08
1.0057e-08
1.00563e-08
1.00544e-08
1.00517e-08
1.00522e-08
1.00507e-08
1.00486e-08
1.00469e-08
1.00455e-08
1.00453e-08
1.0044e-08
1.00429e-08
1.00415e-08
1.00406e-08
1.00394e-08
1.00382e-08
1.00373e-08
1.00362e-08
1.0035e-08
1.00338e-08
1.0033e-08
1.00322e-08
1.00313e-08
1.00306e-08
1.00297e-08
1.00289e-08
1.00281e-08
1.00276e-08
1.00271e-08
1.00265e-08
1.00258e-08
1.00253e-08
1.00249e-08
1.00245e-08
1.0024e-08
1.00236e-08
1.00232e-08
1.00229e-08
1.00226e-08
1.00223e-08
1.00219e-08
1.00216e-08
1.00213e-08
1.00211e-08
1.00209e-08
1.00207e-08
1.00206e-08
1.00205e-08
1.00204e-08
1.00203e-08
1.00202e-08
1.00201e-08
1.002e-08
1.00199e-08
1.00198e-08
1.00197e-08
1.00196e-08
1.00195e-08
1.00193e-08
1.00192e-08
1.0019e-08
1.00189e-08
1.00187e-08
1.00185e-08
1.00183e-08
1.0018e-08
1.00178e-08
1.00176e-08
1.00173e-08
1.00171e-08
1.00168e-08
1.00166e-08
1.00163e-08
1.0016e-08
1.00157e-08
1.00154e-08
1.00151e-08
1.00148e-08
1.00145e-08
1.00142e-08
1.00138e-08
1.00135e-08
1.00131e-08
1.00128e-08
1.00125e-08
1.00121e-08
1.00118e-08
1.00115e-08
1.00111e-08
1.00108e-08
1.00104e-08
1.00101e-08
1.00097e-08
1.00093e-08
1.0009e-08
1.00086e-08
1.00083e-08
1.0008e-08
1.00077e-08
1.00073e-08
1.0007e-08
1.00067e-08
1.00064e-08
1.0006e-08
1.00057e-08
1.00054e-08
1.00051e-08
1.00048e-08
1.00046e-08
1.00043e-08
1.0004e-08
1.00037e-08
1.00034e-08
1.00031e-08
1.00028e-08
1.00025e-08
1.00023e-08
1.0002e-08
1.00018e-08
1.00015e-08
1.00012e-08
1.0001e-08
1.00007e-08
1.00005e-08
1.00002e-08
9.99999e-09
9.99976e-09
9.99952e-09
9.99928e-09
9.99905e-09
9.99882e-09
9.9986e-09
9.99839e-09
9.99817e-09
9.99796e-09
9.99775e-09
9.99754e-09
9.99733e-09
9.99712e-09
9.99692e-09
9.99672e-09
9.99652e-09
9.99632e-09
9.99612e-09
9.99591e-09
9.99571e-09
9.99551e-09
9.99532e-09
9.99512e-09
9.99494e-09
9.99475e-09
9.99457e-09
9.9944e-09
9.99422e-09
9.99405e-09
9.99389e-09
9.99373e-09
9.99357e-09
9.99343e-09
9.99328e-09
9.99314e-09
9.993e-09
9.99287e-09
9.99273e-09
9.99259e-09
9.99246e-09
9.99232e-09
9.99218e-09
9.99204e-09
9.9919e-09
9.99177e-09
9.99163e-09
9.9915e-09
9.99137e-09
9.99125e-09
9.99113e-09
9.99102e-09
9.99092e-09
9.99081e-09
9.99072e-09
9.99062e-09
9.99053e-09
9.99044e-09
9.99035e-09
9.99026e-09
9.99018e-09
9.99009e-09
9.99e-09
9.98992e-09
9.98984e-09
9.98976e-09
9.98968e-09
9.9896e-09
9.98953e-09
9.98945e-09
9.98937e-09
9.9893e-09
9.98922e-09
9.98915e-09
9.98908e-09
9.989e-09
9.98893e-09
9.98886e-09
9.9888e-09
9.98874e-09
9.98868e-09
9.98863e-09
9.98858e-09
9.98854e-09
9.9885e-09
9.98846e-09
9.98841e-09
9.98837e-09
9.98833e-09
9.9883e-09
9.98826e-09
9.98822e-09
9.98819e-09
9.98816e-09
9.98814e-09
9.98811e-09
9.98809e-09
9.98807e-09
9.98805e-09
9.98803e-09
9.98801e-09
9.98799e-09
9.98797e-09
9.98795e-09
9.98793e-09
9.98792e-09
9.9879e-09
9.98789e-09
9.98788e-09
9.98787e-09
9.98786e-09
9.98785e-09
9.98784e-09
9.98783e-09
9.98781e-09
9.9878e-09
9.9878e-09
9.98779e-09
9.98778e-09
9.98778e-09
9.98778e-09
9.98777e-09
9.98777e-09
9.98776e-09
9.98775e-09
9.98775e-09
9.98774e-09
9.98774e-09
9.98774e-09
9.98774e-09
9.98773e-09
9.98773e-09
9.98773e-09
9.98772e-09
9.98771e-09
9.98771e-09
9.9877e-09
9.9877e-09
9.9877e-09
9.9877e-09
9.98769e-09
9.98769e-09
9.98768e-09
9.98768e-09
9.98767e-09
9.98766e-09
9.98766e-09
9.98766e-09
9.98766e-09
9.98766e-09
9.98766e-09
9.98765e-09
9.98765e-09
9.98765e-09
9.98764e-09
9.98765e-09
9.98764e-09
9.98764e-09
9.98764e-09
9.98763e-09
9.98763e-09
9.98763e-09
9.98763e-09
9.98763e-09
9.98763e-09
9.98763e-09
9.98762e-09
9.98762e-09
9.98762e-09
9.98762e-09
9.98761e-09
9.98761e-09
9.98761e-09
9.98761e-09
9.98761e-09
9.98761e-09
9.98762e-09
9.98762e-09
9.98763e-09
9.98762e-09
9.98763e-09
9.98763e-09
9.98762e-09
9.98762e-09
9.98762e-09
9.98762e-09
9.98762e-09
9.98762e-09
9.98762e-09
9.9876e-09
9.9876e-09
9.9876e-09
9.98761e-09
9.9876e-09
9.98761e-09
9.98761e-09
9.98762e-09
9.98762e-09
9.98762e-09
9.98762e-09
9.98761e-09
9.98761e-09
9.9876e-09
9.9876e-09
9.98761e-09
9.9876e-09
9.98761e-09
9.98763e-09
9.9876e-09
9.98762e-09
9.98755e-09
9.98768e-09
9.98769e-09
9.98815e-09
9.98825e-09
9.98777e-09
9.98781e-09
9.98791e-09
9.98783e-09
9.98777e-09
9.98774e-09
9.98771e-09
9.9877e-09
9.98767e-09
9.98765e-09
9.98762e-09
9.98761e-09
9.98759e-09
9.98759e-09
9.98759e-09
9.9876e-09
9.98761e-09
9.9876e-09
9.98759e-09
9.98759e-09
9.98759e-09
9.9876e-09
9.9876e-09
9.9876e-09
9.9876e-09
9.9876e-09
9.98759e-09
9.98758e-09
9.98758e-09
9.98758e-09
9.98759e-09
9.9876e-09
9.98761e-09
9.98763e-09
9.98765e-09
9.98766e-09
9.98766e-09
9.98766e-09
9.98766e-09
9.98766e-09
9.98766e-09
9.98766e-09
9.98766e-09
9.98766e-09
9.98766e-09
9.98765e-09
9.98765e-09
9.98765e-09
9.98764e-09
9.98764e-09
9.98765e-09
9.98765e-09
9.98766e-09
9.98766e-09
9.98767e-09
9.98767e-09
9.98767e-09
9.98766e-09
9.98765e-09
9.98767e-09
9.98767e-09
9.98767e-09
9.98768e-09
9.98763e-09
9.98757e-09
9.98759e-09
9.98765e-09
9.98767e-09
9.98764e-09
9.98756e-09
9.98759e-09
9.98766e-09
9.98768e-09
9.98766e-09
9.98765e-09
9.98767e-09
9.98768e-09
9.98768e-09
9.98762e-09
9.98764e-09
9.98757e-09
9.98762e-09
9.98762e-09
1.0012e-08
1.0012e-08
1.00124e-08
1.00128e-08
1.00139e-08
1.00147e-08
1.00154e-08
1.00156e-08
1.00159e-08
1.00163e-08
1.00165e-08
1.00165e-08
1.00165e-08
1.00165e-08
1.00165e-08
1.00163e-08
1.00161e-08
1.00158e-08
1.00157e-08
1.00156e-08
1.00154e-08
1.00151e-08
1.00149e-08
1.00145e-08
1.00144e-08
1.00141e-08
1.0014e-08
1.00138e-08
1.00138e-08
1.00142e-08
1.00144e-08
1.00139e-08
1.00131e-08
1.0013e-08
1.00135e-08
1.0014e-08
1.00139e-08
1.0014e-08
1.00145e-08
1.00151e-08
1.00157e-08
1.00156e-08
1.00147e-08
1.00145e-08
1.00148e-08
1.00149e-08
1.0014e-08
1.00136e-08
1.00134e-08
1.00132e-08
1.00125e-08
1.0012e-08
1.00116e-08
1.00113e-08
1.00112e-08
1.00109e-08
1.00108e-08
1.00108e-08
1.0011e-08
1.00108e-08
1.00105e-08
1.00107e-08
1.00112e-08
1.00113e-08
1.00112e-08
1.00112e-08
1.00114e-08
1.00115e-08
1.00118e-08
1.00121e-08
1.00121e-08
1.00125e-08
1.00127e-08
1.0013e-08
1.00131e-08
1.00131e-08
1.0013e-08
1.00132e-08
1.0013e-08
1.00132e-08
1.0014e-08
1.00147e-08
1.00159e-08
1.00172e-08
1.0017e-08
1.00159e-08
1.00154e-08
1.00154e-08
1.00146e-08
1.00133e-08
1.00118e-08
1.00124e-08
1.00125e-08
1.0012e-08
1.00124e-08
1.00124e-08
1.00121e-08
1.0012e-08
1.00121e-08
1.00121e-08
1.00121e-08
1.00122e-08
1.00123e-08
1.00124e-08
1.00129e-08
1.00128e-08
1.00123e-08
1.00122e-08
1.00122e-08
1.00121e-08
1.00118e-08
1.00117e-08
1.00117e-08
1.00116e-08
1.00115e-08
1.00114e-08
1.00113e-08
1.00113e-08
1.00113e-08
1.00114e-08
1.00116e-08
1.00118e-08
1.00126e-08
1.00123e-08
1.00115e-08
1.00115e-08
1.00112e-08
1.0011e-08
1.00107e-08
1.00106e-08
1.00104e-08
1.00104e-08
1.00107e-08
1.00106e-08
1.00104e-08
1.00102e-08
1.00101e-08
1.001e-08
1.00099e-08
1.00099e-08
1.00097e-08
1.00097e-08
1.00095e-08
1.00094e-08
1.00094e-08
1.00093e-08
1.00092e-08
1.00091e-08
1.00091e-08
1.0009e-08
1.0009e-08
1.0009e-08
1.0009e-08
1.00089e-08
1.00089e-08
1.00089e-08
1.00089e-08
1.00089e-08
1.00088e-08
1.00088e-08
1.00088e-08
1.00087e-08
1.00087e-08
1.00086e-08
1.00086e-08
1.00086e-08
1.00085e-08
1.00084e-08
1.00084e-08
1.00083e-08
1.00083e-08
1.00082e-08
1.00081e-08
1.00081e-08
1.00081e-08
1.00081e-08
1.0008e-08
1.0008e-08
1.0008e-08
1.0008e-08
1.0008e-08
1.00079e-08
1.00079e-08
1.00078e-08
1.00078e-08
1.00077e-08
1.00077e-08
1.00077e-08
1.00076e-08
1.00076e-08
1.00075e-08
1.00075e-08
1.00074e-08
1.00074e-08
1.00073e-08
1.00073e-08
1.00073e-08
1.00072e-08
1.00072e-08
1.00071e-08
1.00071e-08
1.0007e-08
1.0007e-08
1.00069e-08
1.00069e-08
1.00068e-08
1.00067e-08
1.00067e-08
1.00066e-08
1.00066e-08
1.00065e-08
1.00065e-08
1.00064e-08
1.00064e-08
1.00063e-08
1.00063e-08
1.00062e-08
1.00061e-08
1.00061e-08
1.0006e-08
1.0006e-08
1.00059e-08
1.00059e-08
1.00058e-08
1.00058e-08
1.00057e-08
1.00057e-08
1.00056e-08
1.00056e-08
1.00055e-08
1.00054e-08
1.00054e-08
1.00053e-08
1.00053e-08
1.00052e-08
1.00051e-08
1.00051e-08
1.0005e-08
1.00049e-08
1.00049e-08
1.00048e-08
1.00048e-08
1.00047e-08
1.00047e-08
1.00046e-08
1.00046e-08
1.00045e-08
1.00045e-08
1.00044e-08
1.00043e-08
1.00043e-08
1.00042e-08
1.00042e-08
1.00041e-08
1.00041e-08
1.0004e-08
1.0004e-08
1.00039e-08
1.00039e-08
1.00038e-08
1.00038e-08
1.00038e-08
1.00037e-08
1.00036e-08
1.00036e-08
1.00036e-08
1.00035e-08
1.00035e-08
1.00034e-08
1.00034e-08
1.00033e-08
1.00033e-08
1.00032e-08
1.00031e-08
1.00031e-08
1.0003e-08
1.0003e-08
1.00029e-08
1.00029e-08
1.00028e-08
1.00028e-08
1.00027e-08
1.00027e-08
1.00026e-08
1.00026e-08
1.00025e-08
1.00025e-08
1.00024e-08
1.00024e-08
1.00023e-08
1.00023e-08
1.00022e-08
1.00022e-08
1.00021e-08
1.00021e-08
1.0002e-08
1.0002e-08
1.00019e-08
1.00019e-08
1.00018e-08
1.00017e-08
1.00017e-08
1.00016e-08
1.00016e-08
1.00015e-08
1.00014e-08
1.00014e-08
1.00013e-08
1.00013e-08
1.00012e-08
1.00012e-08
1.00011e-08
1.0001e-08
1.0001e-08
1.00009e-08
1.00009e-08
1.00008e-08
1.00007e-08
1.00007e-08
1.00006e-08
1.00006e-08
1.00005e-08
1.00004e-08
1.00004e-08
1.00003e-08
1.00002e-08
1.00002e-08
1.00001e-08
1.00001e-08
9.99999e-09
9.99994e-09
9.99988e-09
9.99983e-09
9.99977e-09
9.99972e-09
9.99967e-09
9.99962e-09
9.99957e-09
9.99953e-09
9.99948e-09
9.99944e-09
9.9994e-09
9.99936e-09
9.99932e-09
9.99928e-09
9.99925e-09
9.99921e-09
9.99917e-09
9.99914e-09
9.99911e-09
9.99908e-09
9.99905e-09
9.99902e-09
9.99899e-09
9.99896e-09
9.99894e-09
9.99891e-09
9.99889e-09
9.99886e-09
9.99884e-09
9.99882e-09
9.9988e-09
9.99878e-09
9.99876e-09
9.99874e-09
9.99872e-09
9.9987e-09
9.99869e-09
9.99867e-09
9.99866e-09
9.99864e-09
9.99863e-09
9.99861e-09
9.9986e-09
9.99859e-09
9.99857e-09
9.99856e-09
9.99855e-09
9.99854e-09
9.99853e-09
9.99852e-09
9.99851e-09
9.9985e-09
9.99849e-09
9.99848e-09
9.99847e-09
9.99846e-09
9.99845e-09
9.99844e-09
9.99843e-09
9.99843e-09
9.99842e-09
9.99841e-09
9.9984e-09
9.9984e-09
9.99839e-09
9.99838e-09
9.99837e-09
9.99837e-09
9.99837e-09
9.99836e-09
9.99836e-09
9.99835e-09
9.99834e-09
9.99834e-09
9.99833e-09
9.99833e-09
9.99833e-09
9.99833e-09
9.99833e-09
9.99832e-09
9.99831e-09
9.99831e-09
9.9983e-09
9.9983e-09
9.9983e-09
9.9983e-09
9.99831e-09
9.9983e-09
9.99829e-09
9.99828e-09
9.99828e-09
9.99828e-09
9.99829e-09
9.99829e-09
9.99827e-09
9.99827e-09
9.99827e-09
9.99827e-09
9.99827e-09
9.99827e-09
9.99827e-09
9.99827e-09
9.99826e-09
9.99826e-09
9.99826e-09
9.99826e-09
9.99826e-09
9.99826e-09
9.99825e-09
9.99825e-09
9.99825e-09
9.99825e-09
9.99825e-09
9.99824e-09
9.99824e-09
9.99824e-09
9.99825e-09
9.99825e-09
9.99825e-09
9.99825e-09
9.99824e-09
9.99824e-09
9.99824e-09
9.99825e-09
9.99825e-09
9.99829e-09
9.99825e-09
9.99838e-09
9.9983e-09
9.99897e-09
9.99894e-09
9.99982e-09
9.99999e-09
9.99874e-09
9.99868e-09
9.99855e-09
9.99848e-09
9.99847e-09
9.99836e-09
9.99822e-09
9.99824e-09
9.99822e-09
9.99821e-09
9.99822e-09
9.99822e-09
9.99821e-09
9.99822e-09
9.99823e-09
9.99823e-09
9.99824e-09
9.99827e-09
9.99831e-09
9.99833e-09
9.99831e-09
9.99827e-09
9.99825e-09
9.99825e-09
9.99827e-09
9.99829e-09
9.99832e-09
9.99834e-09
9.99834e-09
9.99832e-09
9.9983e-09
9.99829e-09
9.99828e-09
9.99828e-09
9.99829e-09
9.9983e-09
9.9983e-09
9.9983e-09
9.9983e-09
9.99829e-09
9.99829e-09
9.99828e-09
9.99829e-09
9.9983e-09
9.99831e-09
9.99832e-09
9.99832e-09
9.99831e-09
9.9983e-09
9.9983e-09
9.99829e-09
9.99829e-09
9.99829e-09
9.99828e-09
9.99828e-09
9.99828e-09
9.99829e-09
9.9983e-09
9.99833e-09
9.99834e-09
9.99832e-09
9.99829e-09
9.99829e-09
9.9983e-09
9.99834e-09
9.99836e-09
9.99829e-09
9.99831e-09
9.99832e-09
9.99831e-09
9.99843e-09
9.99831e-09
9.99834e-09
9.99833e-09
9.99838e-09
9.99853e-09
9.99833e-09
9.99834e-09
9.99845e-09
9.99862e-09
9.99831e-09
9.99828e-09
9.99832e-09
9.99838e-09
9.99873e-09
9.99871e-09
1.00237e-08
1.00213e-08
1.00198e-08
1.00195e-08
1.00196e-08
1.00194e-08
1.00195e-08
1.00195e-08
1.00194e-08
1.00192e-08
1.00187e-08
1.00183e-08
1.00179e-08
1.00175e-08
1.00171e-08
1.00165e-08
1.00159e-08
1.00155e-08
1.00151e-08
1.00147e-08
1.00143e-08
1.0014e-08
1.00137e-08
1.00135e-08
1.00131e-08
1.00128e-08
1.00123e-08
1.0012e-08
1.00118e-08
1.00117e-08
1.00118e-08
1.0012e-08
1.00122e-08
1.00124e-08
1.00126e-08
1.00127e-08
1.00128e-08
1.00129e-08
1.00129e-08
1.00129e-08
1.00129e-08
1.00128e-08
1.00126e-08
1.00124e-08
1.00122e-08
1.00119e-08
1.00117e-08
1.00114e-08
1.00112e-08
1.0011e-08
1.00109e-08
1.00107e-08
1.00106e-08
1.00106e-08
1.00104e-08
1.00101e-08
1.00098e-08
1.00095e-08
1.00093e-08
1.00089e-08
1.00089e-08
1.00088e-08
1.00088e-08
1.00089e-08
1.00089e-08
1.00092e-08
1.00094e-08
1.00096e-08
1.00098e-08
1.00101e-08
1.00102e-08
1.00104e-08
1.00106e-08
1.00107e-08
1.00108e-08
1.00108e-08
1.00107e-08
1.00106e-08
1.00103e-08
1.00102e-08
1.00107e-08
1.00114e-08
1.0012e-08
1.00125e-08
1.00128e-08
1.00139e-08
1.00151e-08
1.00161e-08
1.00157e-08
1.00147e-08
1.00139e-08
1.00131e-08
1.00126e-08
1.00113e-08
1.00116e-08
1.00118e-08
1.0012e-08
1.00119e-08
1.00119e-08
1.00117e-08
1.00117e-08
1.00117e-08
1.00117e-08
1.00118e-08
1.00118e-08
1.00119e-08
1.0012e-08
1.00122e-08
1.00123e-08
1.00122e-08
1.00119e-08
1.00118e-08
1.00116e-08
1.00115e-08
1.00113e-08
1.00113e-08
1.00112e-08
1.00111e-08
1.00111e-08
1.00111e-08
1.0011e-08
1.00111e-08
1.00111e-08
1.00113e-08
1.00115e-08
1.0012e-08
1.00117e-08
1.0011e-08
1.00109e-08
1.00106e-08
1.00105e-08
1.00103e-08
1.00102e-08
1.001e-08
1.00099e-08
1.00098e-08
1.001e-08
1.001e-08
1.00098e-08
1.00097e-08
1.00097e-08
1.00096e-08
1.00095e-08
1.00094e-08
1.00093e-08
1.00092e-08
1.00092e-08
1.00091e-08
1.0009e-08
1.0009e-08
1.0009e-08
1.0009e-08
1.00089e-08
1.00089e-08
1.00089e-08
1.00089e-08
1.00088e-08
1.00088e-08
1.00088e-08
1.00087e-08
1.00087e-08
1.00087e-08
1.00086e-08
1.00086e-08
1.00085e-08
1.00085e-08
1.00085e-08
1.00084e-08
1.00083e-08
1.00083e-08
1.00082e-08
1.00081e-08
1.0008e-08
1.0008e-08
1.0008e-08
1.00079e-08
1.00079e-08
1.00079e-08
1.00079e-08
1.00078e-08
1.00078e-08
1.00077e-08
1.00077e-08
1.00076e-08
1.00076e-08
1.00075e-08
1.00075e-08
1.00074e-08
1.00074e-08
1.00074e-08
1.00073e-08
1.00073e-08
1.00072e-08
1.00072e-08
1.00072e-08
1.00071e-08
1.00071e-08
1.0007e-08
1.0007e-08
1.00069e-08
1.00069e-08
1.00068e-08
1.00068e-08
1.00067e-08
1.00067e-08
1.00066e-08
1.00066e-08
1.00065e-08
1.00064e-08
1.00064e-08
1.00063e-08
1.00063e-08
1.00062e-08
1.00062e-08
1.00061e-08
1.00061e-08
1.0006e-08
1.0006e-08
1.00059e-08
1.00059e-08
1.00058e-08
1.00058e-08
1.00057e-08
1.00057e-08
1.00056e-08
1.00056e-08
1.00055e-08
1.00055e-08
1.00054e-08
1.00053e-08
1.00053e-08
1.00052e-08
1.00052e-08
1.00051e-08
1.00051e-08
1.0005e-08
1.00049e-08
1.00049e-08
1.00048e-08
1.00048e-08
1.00047e-08
1.00047e-08
1.00046e-08
1.00046e-08
1.00045e-08
1.00045e-08
1.00044e-08
1.00044e-08
1.00043e-08
1.00043e-08
1.00042e-08
1.00042e-08
1.00041e-08
1.00041e-08
1.0004e-08
1.0004e-08
1.00039e-08
1.00039e-08
1.00038e-08
1.00038e-08
1.00037e-08
1.00037e-08
1.00036e-08
1.00036e-08
1.00035e-08
1.00035e-08
1.00034e-08
1.00034e-08
1.00033e-08
1.00033e-08
1.00033e-08
1.00032e-08
1.00032e-08
1.00031e-08
1.00031e-08
1.0003e-08
1.0003e-08
1.00029e-08
1.00029e-08
1.00028e-08
1.00028e-08
1.00027e-08
1.00027e-08
1.00026e-08
1.00026e-08
1.00025e-08
1.00025e-08
1.00024e-08
1.00024e-08
1.00023e-08
1.00023e-08
1.00022e-08
1.00022e-08
1.00021e-08
1.00021e-08
1.0002e-08
1.0002e-08
1.00019e-08
1.00019e-08
1.00018e-08
1.00018e-08
1.00017e-08
1.00017e-08
1.00016e-08
1.00015e-08
1.00015e-08
1.00014e-08
1.00014e-08
1.00013e-08
1.00013e-08
1.00012e-08
1.00012e-08
1.00011e-08
1.00011e-08
1.0001e-08
1.00009e-08
1.00009e-08
1.00008e-08
1.00008e-08
1.00007e-08
1.00007e-08
1.00006e-08
1.00005e-08
1.00005e-08
1.00004e-08
1.00004e-08
1.00003e-08
1.00002e-08
1.00002e-08
1.00001e-08
1.00001e-08
1e-08
9.99995e-09
9.9999e-09
9.99984e-09
9.99979e-09
9.99974e-09
9.9997e-09
9.99965e-09
9.99961e-09
9.99956e-09
9.99952e-09
9.99949e-09
9.99945e-09
9.99941e-09
9.99937e-09
9.99934e-09
9.9993e-09
9.99927e-09
9.99924e-09
9.99921e-09
9.99917e-09
9.99915e-09
9.99912e-09
9.99909e-09
9.99907e-09
9.99904e-09
9.99902e-09
9.999e-09
9.99898e-09
9.99896e-09
9.99894e-09
9.99892e-09
9.9989e-09
9.99888e-09
9.99886e-09
9.99884e-09
9.99883e-09
9.99881e-09
9.9988e-09
9.99878e-09
9.99877e-09
9.99876e-09
9.99874e-09
9.99873e-09
9.99872e-09
9.9987e-09
9.99869e-09
9.99868e-09
9.99867e-09
9.99866e-09
9.99865e-09
9.99864e-09
9.99863e-09
9.99862e-09
9.99861e-09
9.9986e-09
9.99859e-09
9.99859e-09
9.99858e-09
9.99858e-09
9.99857e-09
9.99856e-09
9.99855e-09
9.99854e-09
9.99853e-09
9.99853e-09
9.99852e-09
9.99852e-09
9.99851e-09
9.99851e-09
9.9985e-09
9.99849e-09
9.99849e-09
9.99848e-09
9.99848e-09
9.99848e-09
9.99848e-09
9.99847e-09
9.99847e-09
9.99846e-09
9.99845e-09
9.99845e-09
9.99845e-09
9.99845e-09
9.99845e-09
9.99845e-09
9.99844e-09
9.99844e-09
9.99843e-09
9.99844e-09
9.99844e-09
9.99843e-09
9.99842e-09
9.99842e-09
9.99842e-09
9.99842e-09
9.99842e-09
9.99841e-09
9.99841e-09
9.99842e-09
9.99842e-09
9.99841e-09
9.99841e-09
9.9984e-09
9.9984e-09
9.9984e-09
9.9984e-09
9.9984e-09
9.99839e-09
9.99839e-09
9.99839e-09
9.99839e-09
9.99839e-09
9.99839e-09
9.99839e-09
9.99839e-09
9.99839e-09
9.99839e-09
9.99839e-09
9.9984e-09
9.9984e-09
9.99841e-09
9.9984e-09
9.99839e-09
9.99851e-09
9.99849e-09
9.99913e-09
9.99911e-09
1.00002e-08
1.00003e-08
9.99907e-09
9.99895e-09
9.99883e-09
9.99887e-09
9.99872e-09
9.9986e-09
9.99849e-09
9.99848e-09
9.99854e-09
9.99851e-09
9.99849e-09
9.99848e-09
9.99846e-09
9.99843e-09
9.9984e-09
9.9984e-09
9.99841e-09
9.99841e-09
9.99842e-09
9.99843e-09
9.99845e-09
9.99847e-09
9.99847e-09
9.99844e-09
9.99842e-09
9.99841e-09
9.99842e-09
9.99844e-09
9.99847e-09
9.9985e-09
9.99851e-09
9.99849e-09
9.99845e-09
9.99842e-09
9.9984e-09
9.9984e-09
9.99841e-09
9.99842e-09
9.99842e-09
9.99842e-09
9.99842e-09
9.99842e-09
9.99842e-09
9.99841e-09
9.99841e-09
9.99841e-09
9.99842e-09
9.99844e-09
9.99846e-09
9.99847e-09
9.99846e-09
9.99845e-09
9.99844e-09
9.99843e-09
9.99843e-09
9.99842e-09
9.99842e-09
9.99841e-09
9.99842e-09
9.99844e-09
9.99845e-09
9.99848e-09
9.9985e-09
9.99846e-09
9.99842e-09
9.99844e-09
9.99846e-09
9.99848e-09
9.99845e-09
9.99842e-09
9.99844e-09
9.99843e-09
9.99849e-09
9.99845e-09
9.99846e-09
9.99851e-09
9.99845e-09
9.99864e-09
9.99848e-09
9.99852e-09
9.99868e-09
9.99878e-09
9.99851e-09
9.99844e-09
9.99844e-09
9.99846e-09
9.99852e-09
9.99927e-09
9.99894e-09
1.00204e-08
1.00185e-08
1.00178e-08
1.00176e-08
1.00178e-08
1.0018e-08
1.00183e-08
1.00184e-08
1.00183e-08
1.00181e-08
1.00179e-08
1.00177e-08
1.00176e-08
1.00176e-08
1.00175e-08
1.00173e-08
1.00172e-08
1.00172e-08
1.00171e-08
1.00169e-08
1.00167e-08
1.00166e-08
1.00166e-08
1.00167e-08
1.00167e-08
1.00165e-08
1.00162e-08
1.00159e-08
1.00155e-08
1.00153e-08
1.00152e-08
1.00151e-08
1.00151e-08
1.00151e-08
1.00151e-08
1.00151e-08
1.0015e-08
1.0015e-08
1.00149e-08
1.00149e-08
1.00149e-08
1.00149e-08
1.00147e-08
1.00145e-08
1.00143e-08
1.00141e-08
1.00139e-08
1.00137e-08
1.00135e-08
1.00134e-08
1.00133e-08
1.00132e-08
1.00133e-08
1.00133e-08
1.00131e-08
1.00129e-08
1.00126e-08
1.00122e-08
1.00119e-08
1.00115e-08
1.00113e-08
1.00111e-08
1.00109e-08
1.00108e-08
1.00108e-08
1.00109e-08
1.0011e-08
1.00111e-08
1.00112e-08
1.00113e-08
1.00114e-08
1.00115e-08
1.00114e-08
1.00117e-08
1.00117e-08
1.00116e-08
1.00116e-08
1.00114e-08
1.00111e-08
1.00109e-08
1.00107e-08
1.00107e-08
1.0011e-08
1.00111e-08
1.00116e-08
1.00123e-08
1.00129e-08
1.00134e-08
1.00144e-08
1.00155e-08
1.00166e-08
1.00162e-08
1.00149e-08
1.0014e-08
1.00131e-08
1.00127e-08
1.00113e-08
1.00117e-08
1.00119e-08
1.00119e-08
1.00119e-08
1.00119e-08
1.00115e-08
1.00115e-08
1.00116e-08
1.00117e-08
1.00118e-08
1.00118e-08
1.00119e-08
1.0012e-08
1.0012e-08
1.00122e-08
1.0012e-08
1.00116e-08
1.00115e-08
1.00113e-08
1.00112e-08
1.00111e-08
1.0011e-08
1.00109e-08
1.00107e-08
1.00108e-08
1.00108e-08
1.00108e-08
1.00108e-08
1.00109e-08
1.00111e-08
1.00113e-08
1.00118e-08
1.00115e-08
1.00108e-08
1.00107e-08
1.00103e-08
1.00102e-08
1.001e-08
1.00097e-08
1.00096e-08
1.00095e-08
1.00094e-08
1.00097e-08
1.00096e-08
1.00095e-08
1.00094e-08
1.00093e-08
1.00092e-08
1.00092e-08
1.00091e-08
1.0009e-08
1.0009e-08
1.00089e-08
1.00089e-08
1.00088e-08
1.00088e-08
1.00088e-08
1.00088e-08
1.00087e-08
1.00087e-08
1.00087e-08
1.00086e-08
1.00086e-08
1.00086e-08
1.00085e-08
1.00085e-08
1.00085e-08
1.00084e-08
1.00084e-08
1.00083e-08
1.00083e-08
1.00082e-08
1.00082e-08
1.00081e-08
1.0008e-08
1.0008e-08
1.00079e-08
1.00079e-08
1.00078e-08
1.00078e-08
1.00078e-08
1.00077e-08
1.00077e-08
1.00076e-08
1.00076e-08
1.00075e-08
1.00075e-08
1.00074e-08
1.00074e-08
1.00073e-08
1.00073e-08
1.00073e-08
1.00072e-08
1.00072e-08
1.00071e-08
1.00071e-08
1.00071e-08
1.0007e-08
1.0007e-08
1.00069e-08
1.00069e-08
1.00069e-08
1.00068e-08
1.00068e-08
1.00067e-08
1.00067e-08
1.00066e-08
1.00066e-08
1.00065e-08
1.00065e-08
1.00064e-08
1.00064e-08
1.00063e-08
1.00063e-08
1.00062e-08
1.00062e-08
1.00061e-08
1.00061e-08
1.0006e-08
1.0006e-08
1.00059e-08
1.00059e-08
1.00058e-08
1.00058e-08
1.00057e-08
1.00057e-08
1.00056e-08
1.00056e-08
1.00055e-08
1.00055e-08
1.00054e-08
1.00054e-08
1.00053e-08
1.00053e-08
1.00052e-08
1.00052e-08
1.00051e-08
1.00051e-08
1.0005e-08
1.0005e-08
1.00049e-08
1.00049e-08
1.00048e-08
1.00048e-08
1.00047e-08
1.00047e-08
1.00046e-08
1.00046e-08
1.00045e-08
1.00044e-08
1.00044e-08
1.00044e-08
1.00043e-08
1.00043e-08
1.00042e-08
1.00041e-08