/*--------------------------------*- C++ -*----------------------------------*\
| =========                 |                                                 |
| \\      /  F ield         | OpenFOAM: The Open Source CFD Toolbox           |
|  \\    /   O peration     | Version:  v2006                                 |
|   \\  /    A nd           | Website:  www.openfoam.com                      |
|    \\/     M anipulation  |                                                 |
\*---------------------------------------------------------------------------*/
FoamFile
{
    version     2.0;
    format      ascii;
    class       volScalarField;
    location    "1.8";
    object      nut;
}
// * * * * * * * * * * * * * * * * * * * * * * * * * * * * * * * * * * * * * //

dimensions      [0 2 -1 0 0 0 0];


internalField   nonuniform List<scalar> 
33000
(
2.62837e-09
1.82007e-09
2.03891e-09
2.06943e-09
2.10154e-09
2.12115e-09
2.14724e-09
2.17607e-09
2.20724e-09
2.24303e-09
2.28228e-09
2.3232e-09
2.36587e-09
2.40779e-09
2.44964e-09
2.49655e-09
2.54597e-09
2.59853e-09
2.65683e-09
2.71835e-09
2.77371e-09
2.82845e-09
2.90176e-09
2.98809e-09
3.06762e-09
3.14201e-09
3.21989e-09
3.30572e-09
3.41153e-09
3.51175e-09
3.58573e-09
3.66948e-09
3.7919e-09
3.92978e-09
4.04762e-09
4.14655e-09
4.24324e-09
4.41638e-09
4.58905e-09
4.71054e-09
4.85669e-09
4.95273e-09
5.07572e-09
5.30046e-09
5.50626e-09
5.60256e-09
5.72503e-09
5.93978e-09
6.143e-09
6.28046e-09
6.42134e-09
6.62329e-09
6.86203e-09
7.11128e-09
7.3486e-09
7.55995e-09
7.83147e-09
8.14548e-09
8.36514e-09
8.51952e-09
8.73636e-09
9.10113e-09
9.4027e-09
9.53666e-09
9.695e-09
9.905e-09
1.02665e-08
1.06127e-08
1.08395e-08
1.1175e-08
1.14994e-08
1.17122e-08
1.17937e-08
1.20264e-08
1.23879e-08
1.22656e-08
1.23594e-08
1.44391e-08
1.73143e-08
2.03223e-08
2.15231e-08
2.06538e-08
2.28583e-08
2.32956e-08
2.3417e-08
2.34229e-08
2.33244e-08
2.32946e-08
2.32786e-08
2.32714e-08
2.32574e-08
2.3234e-08
2.31833e-08
2.31186e-08
2.3049e-08
2.29179e-08
2.27724e-08
2.2465e-08
2.22682e-08
2.17413e-08
2.18071e-08
2.1688e-08
2.17695e-08
2.17216e-08
2.1729e-08
2.1766e-08
2.17455e-08
2.17022e-08
2.16695e-08
2.16408e-08
2.16043e-08
2.15583e-08
2.15072e-08
2.1421e-08
2.13236e-08
2.11172e-08
2.0979e-08
2.05264e-08
2.05963e-08
2.04885e-08
2.05344e-08
2.05021e-08
2.05019e-08
2.05226e-08
2.05015e-08
2.04693e-08
2.04404e-08
2.04028e-08
2.00407e-08
1.93557e-08
1.88866e-08
1.83363e-08
1.77249e-08
1.72138e-08
1.67495e-08
1.63654e-08
1.59578e-08
1.55271e-08
1.51454e-08
1.48081e-08
1.44852e-08
1.41502e-08
1.38469e-08
1.35657e-08
1.3293e-08
1.30336e-08
1.27982e-08
1.2586e-08
1.23741e-08
1.21678e-08
1.19769e-08
1.17929e-08
1.16247e-08
1.14795e-08
1.13341e-08
1.1186e-08
1.10499e-08
1.09274e-08
1.08165e-08
1.07059e-08
1.05967e-08
1.04979e-08
1.04112e-08
1.03268e-08
1.0243e-08
1.01647e-08
1.00933e-08
1.0028e-08
9.96624e-09
9.9069e-09
9.85194e-09
9.80317e-09
9.75922e-09
9.71708e-09
9.67807e-09
9.64465e-09
9.61518e-09
9.58826e-09
9.56501e-09
9.54539e-09
9.52791e-09
9.51366e-09
9.50301e-09
9.49572e-09
9.49083e-09
9.48941e-09
9.49152e-09
9.49641e-09
9.503e-09
9.51236e-09
9.52541e-09
9.54183e-09
9.55993e-09
9.58091e-09
9.60527e-09
9.6326e-09
9.66199e-09
9.69382e-09
9.7291e-09
9.76664e-09
9.80712e-09
9.8508e-09
9.89686e-09
9.94562e-09
9.99783e-09
1.00531e-08
1.0111e-08
1.01722e-08
1.02365e-08
1.03028e-08
1.03728e-08
1.04464e-08
1.05217e-08
1.06008e-08
1.06841e-08
1.07701e-08
1.08588e-08
1.09506e-08
1.10459e-08
1.11437e-08
1.12455e-08
1.13513e-08
1.14597e-08
1.15718e-08
1.16874e-08
1.18055e-08
1.19275e-08
1.2054e-08
1.21832e-08
1.2317e-08
1.24561e-08
1.26e-08
1.27486e-08
1.29022e-08
1.3061e-08
1.32104e-08
1.31607e-08
1.31119e-08
1.30642e-08
1.30176e-08
1.2972e-08
1.29271e-08
1.28829e-08
1.28393e-08
1.27965e-08
1.27544e-08
1.2713e-08
1.26726e-08
1.2633e-08
1.25942e-08
1.25561e-08
1.25187e-08
1.2482e-08
1.24459e-08
1.24106e-08
1.23762e-08
1.23425e-08
1.23093e-08
1.22768e-08
1.22447e-08
1.22133e-08
1.21825e-08
1.21522e-08
1.21226e-08
1.20937e-08
1.20655e-08
1.20379e-08
1.20108e-08
1.19842e-08
1.19582e-08
1.19328e-08
1.1908e-08
1.18838e-08
1.18602e-08
1.18372e-08
1.18146e-08
1.17925e-08
1.17709e-08
1.17499e-08
1.17294e-08
1.17094e-08
1.16898e-08
1.16706e-08
1.1652e-08
1.16338e-08
1.16161e-08
1.15987e-08
1.15818e-08
1.15652e-08
1.1549e-08
1.15334e-08
1.15181e-08
1.15032e-08
1.14886e-08
1.14743e-08
1.14604e-08
1.1447e-08
1.14339e-08
1.14211e-08
1.14087e-08
1.13965e-08
1.13846e-08
1.13731e-08
1.13619e-08
1.13511e-08
1.13406e-08
1.13303e-08
1.13204e-08
1.13107e-08
1.13013e-08
1.12922e-08
1.12834e-08
1.12747e-08
1.12663e-08
1.12581e-08
1.12502e-08
1.12425e-08
1.1235e-08
1.12277e-08
1.12207e-08
1.1214e-08
1.12074e-08
1.12011e-08
1.1195e-08
1.11891e-08
1.11835e-08
1.1178e-08
1.11726e-08
1.11674e-08
1.11624e-08
1.11576e-08
1.11529e-08
1.11483e-08
1.11438e-08
1.11395e-08
1.11354e-08
1.11316e-08
1.11279e-08
1.11243e-08
1.11208e-08
1.11173e-08
1.1114e-08
1.11108e-08
1.11077e-08
1.11046e-08
1.11016e-08
1.10987e-08
1.10958e-08
1.10932e-08
1.10906e-08
1.10882e-08
1.10858e-08
1.10834e-08
1.1081e-08
1.10787e-08
1.10764e-08
1.10741e-08
1.10719e-08
1.10698e-08
1.10678e-08
1.10658e-08
1.10639e-08
1.1062e-08
1.10602e-08
1.10585e-08
1.10567e-08
1.10549e-08
1.10532e-08
1.10514e-08
1.10497e-08
1.10481e-08
1.10465e-08
1.1045e-08
1.10436e-08
1.10422e-08
1.10408e-08
1.10394e-08
1.1038e-08
1.10367e-08
1.10355e-08
1.10342e-08
1.10331e-08
1.1032e-08
1.10309e-08
1.10299e-08
1.10288e-08
1.10278e-08
1.10267e-08
1.10256e-08
1.10245e-08
1.10235e-08
1.10226e-08
1.10217e-08
1.10208e-08
1.10198e-08
1.10188e-08
1.10178e-08
1.10167e-08
1.10157e-08
1.10147e-08
1.10138e-08
1.1013e-08
1.10121e-08
1.10112e-08
1.10104e-08
1.10095e-08
1.10087e-08
1.10079e-08
1.10072e-08
1.10064e-08
1.10057e-08
1.10049e-08
1.10042e-08
1.10035e-08
1.10028e-08
1.10022e-08
1.10015e-08
1.1001e-08
1.10004e-08
1.09998e-08
1.09993e-08
1.09987e-08
1.09981e-08
1.09975e-08
1.09968e-08
1.09961e-08
1.09957e-08
1.09951e-08
1.09949e-08
1.09944e-08
1.09949e-08
1.09944e-08
1.09945e-08
1.09945e-08
1.09944e-08
1.09943e-08
1.09941e-08
1.09939e-08
1.09936e-08
1.09934e-08
1.09935e-08
1.09931e-08
1.09927e-08
1.09923e-08
1.0992e-08
1.09918e-08
1.09915e-08
1.09914e-08
1.09914e-08
1.09916e-08
1.09916e-08
1.09917e-08
1.09918e-08
1.09915e-08
1.09914e-08
1.09909e-08
1.09911e-08
1.0991e-08
1.09906e-08
1.09911e-08
1.09908e-08
1.09908e-08
1.09902e-08
1.09894e-08
1.09893e-08
1.09886e-08
1.09881e-08
1.09904e-08
1.09888e-08
1.10009e-08
1.09986e-08
1.10004e-08
1.1001e-08
1.1001e-08
1.10008e-08
1.10003e-08
1.09995e-08
1.09985e-08
1.09973e-08
1.09961e-08
1.0995e-08
1.0994e-08
1.09931e-08
1.09925e-08
1.09918e-08
1.09912e-08
1.09906e-08
1.09901e-08
1.09896e-08
1.09893e-08
1.0989e-08
1.09886e-08
1.09883e-08
1.09879e-08
1.09875e-08
1.09871e-08
1.09867e-08
1.09864e-08
1.09861e-08
1.09859e-08
1.09857e-08
1.09856e-08
1.09855e-08
1.09856e-08
1.09857e-08
1.09858e-08
1.09861e-08
1.09864e-08
1.09868e-08
1.09872e-08
1.09877e-08
1.09882e-08
1.09886e-08
1.09888e-08
1.09888e-08
1.09887e-08
1.09886e-08
1.09885e-08
1.09886e-08
1.0989e-08
1.09897e-08
1.09907e-08
1.09917e-08
1.09924e-08
1.09926e-08
1.09925e-08
1.09924e-08
1.09929e-08
1.09938e-08
1.09944e-08
1.09941e-08
1.09928e-08
1.09911e-08
1.09903e-08
1.09902e-08
1.09899e-08
1.09886e-08
1.09869e-08
1.09863e-08
1.09871e-08
1.09873e-08
1.09869e-08
1.09873e-08
1.09892e-08
1.09901e-08
1.09895e-08
1.09887e-08
1.09877e-08
1.09877e-08
1.09886e-08
2.81249e-09
2.60373e-09
7.10864e-09
2.15359e-08
1.97313e-08
1.91301e-08
1.87058e-08
1.83301e-08
1.78886e-08
1.77116e-08
1.76107e-08
1.74301e-08
1.72047e-08
1.69695e-08
1.68277e-08
1.67093e-08
1.64851e-08
1.63772e-08
1.64566e-08
1.64221e-08
1.61806e-08
1.60535e-08
1.62136e-08
1.62506e-08
1.61534e-08
1.60944e-08
1.62936e-08
1.64932e-08
1.67471e-08
1.81381e-08
1.99163e-08
1.90109e-08
1.67786e-08
1.52555e-08
1.64034e-08
1.90227e-08
1.96621e-08
1.92946e-08
1.75344e-08
1.76287e-08
2.02082e-08
2.11831e-08
1.95198e-08
1.84315e-08
1.90328e-08
2.18949e-08
2.26799e-08
2.3101e-08
2.35687e-08
2.40634e-08
2.39845e-08
2.425e-08
2.4426e-08
2.46604e-08
2.55373e-08
2.62453e-08
2.65205e-08
2.88563e-08
3.28573e-08
3.37656e-08
3.14572e-08
3.36739e-08
4.14957e-08
4.67348e-08
4.41273e-08
3.94037e-08
3.95577e-08
3.91487e-08
3.99025e-08
4.61445e-08
5.04827e-08
4.36092e-08
3.96579e-08
4.013e-08
3.83352e-08
3.10507e-08
3.12752e-08
2.56041e-08
1.86622e-08
1.43528e-08
1.81988e-08
1.85132e-08
2.17384e-08
4.14963e-08
3.46751e-08
9.19829e-08
1.10472e-07
1.05745e-07
1.22871e-07
2.12341e-07
5.24243e-07
6.77323e-07
3.25958e-07
3.13595e-07
2.48679e-07
1.40096e-07
9.83285e-08
6.4596e-08
6.44878e-08
6.18913e-08
4.82288e-08
3.14989e-08
3.82728e-08
8.88225e-08
9.32236e-08
1.09652e-07
1.02285e-07
1.40404e-07
8.92132e-08
9.45226e-08
1.77295e-07
1.86708e-07
1.61664e-07
1.27714e-07
1.00996e-07
6.8953e-08
7.12884e-08
8.76553e-08
7.70657e-08
4.17229e-08
5.17202e-08
1.48841e-07
1.18812e-07
1.08839e-07
1.00549e-07
8.05784e-08
8.56082e-08
1.24873e-07
1.28126e-07
1.29092e-07
1.31202e-07
1.25269e-07
1.28578e-07
1.37904e-07
1.4183e-07
1.43078e-07
1.43203e-07
1.46793e-07
1.49052e-07
1.51707e-07
1.54332e-07
1.60713e-07
1.66359e-07
1.67278e-07
1.74242e-07
1.83435e-07
1.90443e-07
1.9483e-07
2.02685e-07
2.13399e-07
2.24331e-07
2.35028e-07
2.48867e-07
2.63945e-07
2.79175e-07
2.94672e-07
3.14146e-07
3.39337e-07
3.66415e-07
3.92162e-07
4.18832e-07
4.56002e-07
5.09902e-07
5.66283e-07
6.13373e-07
6.7101e-07
8.01764e-07
9.59271e-07
1.10301e-06
1.22612e-06
1.45148e-06
1.45433e-06
1.45667e-06
1.45861e-06
1.46027e-06
1.46221e-06
1.46346e-06
1.3815e-06
1.12603e-06
9.71343e-07
8.65902e-07
7.73937e-07
6.9769e-07
6.39108e-07
5.90625e-07
5.48047e-07
5.11265e-07
4.80844e-07
4.55376e-07
4.33333e-07
4.13896e-07
3.97139e-07
3.80773e-07
3.65898e-07
3.52581e-07
3.40863e-07
3.30796e-07
3.21689e-07
3.13218e-07
3.05523e-07
2.98357e-07
2.9154e-07
2.8551e-07
2.80085e-07
2.7502e-07
2.70643e-07
2.67283e-07
2.64308e-07
2.60652e-07
2.57532e-07
2.54779e-07
2.52111e-07
2.49625e-07
2.47372e-07
2.45355e-07
2.4369e-07
2.42234e-07
2.41126e-07
2.40354e-07
2.39718e-07
2.39138e-07
2.38642e-07
2.38169e-07
2.37702e-07
2.37429e-07
2.37288e-07
2.37195e-07
2.3711e-07
2.3727e-07
2.37648e-07
2.38123e-07
2.38724e-07
2.39494e-07
2.4023e-07
2.40797e-07
2.41424e-07
2.42156e-07
2.43105e-07
2.44561e-07
2.46168e-07
2.47744e-07
2.49383e-07
2.50964e-07
2.52534e-07
2.54218e-07
2.56067e-07
2.58024e-07
2.60158e-07
2.62451e-07
2.64818e-07
2.67283e-07
2.69845e-07
2.72506e-07
2.75311e-07
2.78334e-07
2.81609e-07
2.85036e-07
2.8853e-07
2.92049e-07
2.95645e-07
2.99358e-07
3.03184e-07
3.07131e-07
3.11234e-07
3.15533e-07
3.20032e-07
3.24708e-07
3.2957e-07
3.34649e-07
3.39954e-07
3.455e-07
3.51309e-07
3.57386e-07
3.63697e-07
3.70176e-07
3.76789e-07
3.83567e-07
3.90491e-07
3.97586e-07
4.04912e-07
4.12518e-07
4.20397e-07
4.28473e-07
4.36655e-07
4.44935e-07
4.5337e-07
4.61984e-07
4.70782e-07
4.79799e-07
4.89105e-07
4.98784e-07
5.08879e-07
5.19398e-07
5.30354e-07
5.41773e-07
5.53708e-07
5.66181e-07
5.79166e-07
5.92598e-07
6.06408e-07
6.20572e-07
6.35048e-07
6.49783e-07
6.64751e-07
6.79957e-07
6.95426e-07
7.11214e-07
7.27396e-07
7.44034e-07
7.61181e-07
7.7887e-07
7.9713e-07
8.15995e-07
8.35515e-07
8.55749e-07
8.76737e-07
8.98469e-07
9.20887e-07
9.43943e-07
9.67718e-07
9.92495e-07
1.01869e-06
1.04655e-06
1.07592e-06
1.1063e-06
1.13738e-06
1.16944e-06
1.2031e-06
1.23842e-06
1.2745e-06
1.31036e-06
1.34623e-06
1.38328e-06
1.4003e-06
1.40075e-06
1.40126e-06
1.40162e-06
1.40176e-06
1.40178e-06
1.40178e-06
1.40172e-06
1.40153e-06
1.40124e-06
1.40102e-06
1.40095e-06
1.401e-06
1.4011e-06
1.40127e-06
1.40152e-06
1.40175e-06
1.40187e-06
1.40189e-06
1.40181e-06
1.4016e-06
1.40131e-06
1.40104e-06
1.40093e-06
1.40097e-06
1.4011e-06
1.4013e-06
1.40156e-06
1.40181e-06
1.40193e-06
1.40185e-06
1.40161e-06
1.40134e-06
1.4011e-06
1.40094e-06
1.40091e-06
1.40105e-06
1.40134e-06
1.40167e-06
1.40192e-06
1.40205e-06
1.40208e-06
1.40207e-06
1.40207e-06
1.40205e-06
1.40207e-06
1.40224e-06
1.4026e-06
1.40301e-06
1.4033e-06
1.40338e-06
1.40324e-06
1.40295e-06
1.40268e-06
1.40257e-06
1.40264e-06
1.40285e-06
1.40312e-06
1.4033e-06
1.4033e-06
1.40308e-06
1.40272e-06
1.4023e-06
1.40198e-06
1.4019e-06
1.40212e-06
1.40254e-06
1.4029e-06
1.40302e-06
1.40296e-06
1.40288e-06
1.40281e-06
1.40276e-06
1.40292e-06
1.40322e-06
1.40341e-06
1.40338e-06
1.4032e-06
1.40303e-06
1.40307e-06
1.40332e-06
1.40356e-06
1.40373e-06
1.40388e-06
1.40386e-06
1.40382e-06
1.40395e-06
1.40411e-06
1.40384e-06
1.40356e-06
1.40308e-06
1.40299e-06
1.40394e-06
1.40405e-06
1.40458e-06
1.40544e-06
1.40628e-06
1.40664e-06
1.40643e-06
1.40706e-06
1.40704e-06
1.40695e-06
1.40635e-06
1.40606e-06
1.4063e-06
1.40624e-06
1.40706e-06
1.40653e-06
1.4051e-06
1.40524e-06
1.40547e-06
1.40633e-06
1.40596e-06
1.40627e-06
1.40738e-06
1.40786e-06
1.40823e-06
1.4075e-06
1.40809e-06
1.40719e-06
1.40687e-06
1.40585e-06
1.40685e-06
1.40794e-06
1.40623e-06
1.408e-06
1.40823e-06
1.40631e-06
1.40617e-06
1.40015e-06
1.40345e-06
1.40436e-06
1.40385e-06
1.4085e-06
1.40832e-06
1.40843e-06
1.4082e-06
1.40752e-06
1.4077e-06
1.40661e-06
1.40579e-06
1.405e-06
1.40307e-06
1.40088e-06
1.39932e-06
1.39843e-06
1.39778e-06
1.39793e-06
1.39917e-06
1.40061e-06
1.40122e-06
1.40094e-06
1.40074e-06
1.4013e-06
1.40242e-06
1.40348e-06
1.40407e-06
1.40401e-06
1.40336e-06
1.40237e-06
1.40138e-06
1.40064e-06
1.40028e-06
1.40033e-06
1.4008e-06
1.40179e-06
1.40338e-06
1.40564e-06
1.408e-06
1.4084e-06
1.40843e-06
1.40844e-06
1.40846e-06
1.40847e-06
1.40847e-06
1.40847e-06
1.40847e-06
1.40845e-06
1.40843e-06
1.4084e-06
1.40836e-06
1.40803e-06
1.40741e-06
1.40752e-06
1.40816e-06
1.40836e-06
1.40839e-06
1.40843e-06
1.40844e-06
1.40843e-06
1.40839e-06
1.40811e-06
1.40685e-06
1.40829e-06
1.4084e-06
1.4084e-06
1.40829e-06
1.40173e-06
1.3959e-06
1.3985e-06
1.40646e-06
1.40772e-06
1.40156e-06
1.39493e-06
1.39878e-06
1.40826e-06
1.40835e-06
1.40705e-06
1.40651e-06
1.40841e-06
1.40841e-06
1.40814e-06
1.40144e-06
1.40444e-06
1.39675e-06
1.39711e-06
1.39008e-06
2.71534e-09
2.42141e-09
7.53931e-09
2.31986e-08
1.9145e-08
1.84222e-08
1.80996e-08
1.78281e-08
1.76593e-08
1.76254e-08
1.75001e-08
1.72412e-08
1.68543e-08
1.65291e-08
1.65374e-08
1.64077e-08
1.62196e-08
1.61866e-08
1.60022e-08
1.54538e-08
1.50536e-08
1.54657e-08
1.61584e-08
1.57852e-08
1.49955e-08
1.48989e-08
1.52542e-08
1.59097e-08
1.62764e-08
1.58323e-08
1.66927e-08
1.77882e-08
1.78085e-08
1.59398e-08
1.54092e-08
1.63349e-08
1.84031e-08
1.91649e-08
1.68699e-08
1.65899e-08
1.69727e-08
1.8225e-08
2.05284e-08
2.06173e-08
1.89088e-08
2.02079e-08
2.31567e-08
2.43096e-08
2.34042e-08
2.37359e-08
2.53807e-08
2.61707e-08
2.52044e-08
2.50719e-08
2.55311e-08
2.51772e-08
2.65528e-08
2.88427e-08
2.90873e-08
2.93782e-08
3.12219e-08
3.56889e-08
3.60674e-08
3.80681e-08
3.81839e-08
4.4155e-08
4.68037e-08
4.15115e-08
3.87213e-08
3.96819e-08
4.5547e-08
5.11537e-08
5.36136e-08
5.84806e-08
5.54722e-08
7.91187e-08
9.55182e-08
6.04179e-08
3.72552e-08
3.8534e-08
2.44596e-08
2.04037e-08
1.47497e-08
1.72233e-08
1.72387e-08
1.83118e-08
4.1285e-08
4.39617e-08
3.81267e-08
9.17842e-08
8.35976e-08
1.05069e-07
1.65862e-07
7.63003e-07
3.14304e-07
1.39341e-07
1.14106e-07
8.78506e-08
7.43654e-08
8.73635e-08
7.33941e-08
8.32903e-08
6.30912e-08
4.73194e-08
2.94935e-08
3.49188e-08
5.31849e-08
8.06008e-08
8.97515e-08
9.5493e-08
8.51394e-08
8.69622e-08
9.73012e-08
1.62213e-07
1.18078e-07
8.75582e-08
6.87967e-08
7.64654e-08
7.83521e-08
9.84339e-08
1.14192e-07
8.86452e-08
4.03931e-08
4.67096e-08
1.33816e-07
1.15518e-07
1.12698e-07
1.06208e-07
8.61809e-08
8.93665e-08
1.30757e-07
1.40829e-07
1.46108e-07
1.47448e-07
1.38822e-07
1.29417e-07
1.36843e-07
1.46125e-07
1.47004e-07
1.47399e-07
1.53458e-07
1.61639e-07
1.67681e-07
1.65675e-07
1.75165e-07
1.83464e-07
1.87359e-07
1.92294e-07
2.05049e-07
2.13466e-07
2.26406e-07
2.38015e-07
2.42818e-07
2.5271e-07
2.77794e-07
2.98769e-07
3.13006e-07
3.26876e-07
3.54653e-07
3.90551e-07
4.15055e-07
4.31393e-07
4.8065e-07
5.49544e-07
5.90367e-07
6.38569e-07
7.3983e-07
8.85729e-07
1.01473e-06
1.07977e-06
1.27625e-06
1.64528e-06
2.05687e-06
1.88273e-06
1.63255e-06
1.57815e-06
1.42656e-06
1.22527e-06
1.02059e-06
9.06925e-07
8.25734e-07
7.4134e-07
6.6856e-07
6.15693e-07
5.74916e-07
5.37008e-07
5.01676e-07
4.73388e-07
4.51442e-07
4.31504e-07
4.11595e-07
3.93009e-07
3.77205e-07
3.63491e-07
3.50118e-07
3.38288e-07
3.28685e-07
3.19913e-07
3.11446e-07
3.03984e-07
2.97316e-07
2.91198e-07
2.85684e-07
2.80287e-07
2.74932e-07
2.70309e-07
2.66722e-07
2.63509e-07
2.60161e-07
2.57544e-07
2.5513e-07
2.52471e-07
2.49845e-07
2.47538e-07
2.45567e-07
2.43848e-07
2.42231e-07
2.41111e-07
2.40476e-07
2.39916e-07
2.39255e-07
2.38637e-07
2.37905e-07
2.37062e-07
2.36542e-07
2.36468e-07
2.36684e-07
2.37014e-07
2.37433e-07
2.37941e-07
2.38384e-07
2.38775e-07
2.39329e-07
2.40018e-07
2.40659e-07
2.414e-07
2.42314e-07
2.43307e-07
2.44452e-07
2.45759e-07
2.4711e-07
2.48788e-07
2.50567e-07
2.52364e-07
2.54262e-07
2.56143e-07
2.58089e-07
2.60205e-07
2.62357e-07
2.64488e-07
2.66715e-07
2.69092e-07
2.71656e-07
2.74436e-07
2.77537e-07
2.8109e-07
2.84948e-07
2.88818e-07
2.92569e-07
2.96213e-07
2.99851e-07
3.03588e-07
3.07456e-07
3.11485e-07
3.15733e-07
3.20264e-07
3.2505e-07
3.30051e-07
3.35259e-07
3.40644e-07
3.46185e-07
3.51905e-07
3.57831e-07
3.6403e-07
3.70449e-07
3.77009e-07
3.83681e-07
3.90415e-07
3.97237e-07
4.04253e-07
4.11571e-07
4.1924e-07
4.27269e-07
4.35628e-07
4.44226e-07
4.53128e-07
4.62311e-07
4.71759e-07
4.81473e-07
4.91446e-07
5.01662e-07
5.12066e-07
5.22599e-07
5.33271e-07
5.4419e-07
5.55478e-07
5.6722e-07
5.79409e-07
5.91994e-07
6.04944e-07
6.18291e-07
6.32112e-07
6.46461e-07
6.61372e-07
6.76843e-07
6.92859e-07
7.09406e-07
7.26492e-07
7.44047e-07
7.62035e-07
7.80403e-07
7.99123e-07
8.18211e-07
8.3772e-07
8.57762e-07
8.78496e-07
9.00117e-07
9.22775e-07
9.46512e-07
9.71276e-07
9.97077e-07
1.02414e-06
1.05283e-06
1.0832e-06
1.11459e-06
1.1459e-06
1.17657e-06
1.20735e-06
1.23955e-06
1.27355e-06
1.30851e-06
1.34408e-06
1.38175e-06
1.42343e-06
1.46872e-06
1.51486e-06
1.56003e-06
1.60562e-06
1.6537e-06
1.70327e-06
1.75142e-06
1.7979e-06
1.84591e-06
1.89804e-06
1.95398e-06
2.01335e-06
2.07734e-06
2.14628e-06
2.21842e-06
2.29203e-06
2.36607e-06
2.4385e-06
2.50709e-06
2.57257e-06
2.6384e-06
2.7072e-06
2.7799e-06
2.85825e-06
2.94535e-06
3.0427e-06
3.1477e-06
3.25519e-06
3.36055e-06
3.46111e-06
3.55599e-06
3.64645e-06
3.7369e-06
3.83372e-06
3.94186e-06
4.06216e-06
4.19103e-06
4.32229e-06
4.45143e-06
4.57895e-06
4.70571e-06
4.82488e-06
4.9294e-06
5.03179e-06
5.16084e-06
5.3318e-06
5.5325e-06
5.74181e-06
5.94469e-06
6.12429e-06
6.26927e-06
6.39421e-06
6.52682e-06
6.68529e-06
6.88307e-06
7.13402e-06
7.43735e-06
7.76533e-06
8.067e-06
8.29842e-06
8.46759e-06
8.62627e-06
8.83223e-06
9.14242e-06
9.42178e-06
9.42201e-06
9.4222e-06
9.42225e-06
9.42222e-06
9.42221e-06
9.42223e-06
9.42224e-06
9.42232e-06
9.42246e-06
9.42255e-06
9.42254e-06
9.42246e-06
9.42241e-06
9.42248e-06
9.42266e-06
9.42281e-06
9.4229e-06
9.42298e-06
9.42297e-06
9.42294e-06
9.42303e-06
9.42307e-06
9.42296e-06
9.42295e-06
9.42271e-06
9.4227e-06
9.42335e-06
9.42388e-06
9.42419e-06
9.42426e-06
9.42447e-06
9.42466e-06
9.42475e-06
9.4252e-06
9.42521e-06
9.42521e-06
9.42486e-06
9.42472e-06
9.42484e-06
9.42482e-06
9.42532e-06
9.42499e-06
9.42411e-06
9.42429e-06
9.42445e-06
9.42515e-06
9.42494e-06
9.42501e-06
9.42563e-06
9.4259e-06
9.42605e-06
9.4255e-06
9.42614e-06
9.42562e-06
9.42528e-06
9.4251e-06
9.42568e-06
9.42607e-06
9.42509e-06
9.42569e-06
9.42411e-06
5.68345e-06
6.01105e-06
3.14396e-06
2.88517e-06
6.62348e-06
7.17075e-06
9.22726e-06
9.43006e-06
9.42651e-06
9.42622e-06
9.42602e-06
9.42624e-06
9.42535e-06
9.42458e-06
9.42363e-06
9.42208e-06
9.42099e-06
9.42054e-06
9.42008e-06
9.41952e-06
9.41952e-06
9.42015e-06
9.42079e-06
9.42094e-06
9.42077e-06
9.42089e-06
9.4215e-06
9.42238e-06
9.42312e-06
9.42345e-06
9.42331e-06
9.42275e-06
9.42201e-06
9.42135e-06
9.42095e-06
9.42089e-06
9.42114e-06
9.42167e-06
9.42249e-06
9.42363e-06
9.42508e-06
9.42633e-06
9.42651e-06
9.42652e-06
9.42653e-06
9.42654e-06
9.42654e-06
9.42655e-06
9.42656e-06
9.42656e-06
9.42655e-06
9.42653e-06
9.4265e-06
9.42647e-06
9.42637e-06
9.42615e-06
9.42623e-06
9.42641e-06
9.42645e-06
9.42648e-06
9.42651e-06
9.42652e-06
9.42653e-06
9.4265e-06
9.42642e-06
9.426e-06
9.42643e-06
9.42647e-06
9.42648e-06
9.42568e-06
9.42117e-06
9.41903e-06
9.42174e-06
9.42553e-06
9.42488e-06
9.42037e-06
9.41822e-06
9.42238e-06
9.42639e-06
9.42615e-06
9.42461e-06
9.42613e-06
9.42654e-06
9.4266e-06
9.42489e-06
9.42216e-06
9.4231e-06
9.41978e-06
5.8735e-06
8.1068e-06
2.56865e-09
2.39592e-09
7.23043e-09
2.18337e-08
1.99474e-08
1.95166e-08
1.93331e-08
1.90533e-08
1.87346e-08
1.84102e-08
1.81619e-08
1.79041e-08
1.75507e-08
1.71449e-08
1.68067e-08
1.64832e-08
1.62702e-08
1.61136e-08
1.58322e-08
1.5434e-08
1.51921e-08
1.53664e-08
1.56494e-08
1.54778e-08
1.51458e-08
1.50838e-08
1.50821e-08
1.53355e-08
1.55449e-08
1.46132e-08
1.41589e-08
1.51453e-08
1.74467e-08
1.86187e-08
1.67819e-08
1.53174e-08
1.61106e-08
1.73416e-08
1.83372e-08
1.84678e-08
1.68814e-08
1.74947e-08
2.05127e-08
2.25421e-08
2.11611e-08
2.01073e-08
2.16225e-08
2.24656e-08
2.27518e-08
2.41836e-08
2.5736e-08
2.51532e-08
2.47626e-08
2.55498e-08
2.62267e-08
2.6267e-08
2.74224e-08
2.76189e-08
2.70056e-08
2.82298e-08
3.18154e-08
3.24222e-08
3.20876e-08
3.51522e-08
3.59629e-08
4.17674e-08
4.64007e-08
4.77822e-08
4.43116e-08
3.82955e-08
4.15136e-08
6.07106e-08
8.23722e-08
9.40603e-08
7.4831e-08
8.5158e-08
1.1906e-07
1.25382e-07
3.03386e-07
5.68045e-08
6.74727e-08
3.88882e-08
3.52931e-08
2.24246e-08
2.58236e-08
2.01738e-08
1.46537e-08
1.58979e-08
1.74858e-08
1.97378e-08
4.4146e-08
3.46345e-08
7.06475e-08
7.07938e-08
1.13807e-07
1.69687e-07
5.33991e-07
1.95592e-07
1.11039e-07
1.05942e-07
8.47444e-08
6.5062e-08
7.73961e-08
6.7266e-08
8.86923e-08
8.219e-08
5.2893e-08
3.75273e-08
2.81705e-08
3.33616e-08
7.34007e-08
6.86253e-08
8.22426e-08
8.59089e-08
7.49333e-08
7.67532e-08
1.1606e-07
1.10625e-07
9.39504e-08
6.51176e-08
7.43853e-08
8.19695e-08
1.07798e-07
1.01877e-07
8.60151e-08
3.85347e-08
4.44648e-08
1.23657e-07
1.07679e-07
1.12458e-07
1.04446e-07
8.95344e-08
9.56659e-08
1.48196e-07
1.51572e-07
1.52324e-07
1.52516e-07
1.4565e-07
1.36346e-07
1.38932e-07
1.52422e-07
1.58802e-07
1.68011e-07
1.68229e-07
1.71792e-07
1.77671e-07
1.8453e-07
1.95498e-07
2.08867e-07
2.12592e-07
2.21762e-07
2.33839e-07
2.40705e-07
2.50735e-07
2.7022e-07
2.92627e-07
3.09596e-07
3.20989e-07
3.41602e-07
3.73442e-07
4.07476e-07
4.23237e-07
4.52942e-07
5.09291e-07
5.69845e-07
6.18511e-07
6.59946e-07
7.66923e-07
9.16396e-07
9.79797e-07
1.01303e-06
1.22566e-06
1.48423e-06
1.33052e-06
1.19512e-06
1.25099e-06
1.15449e-06
1.00296e-06
8.99083e-07
8.34848e-07
7.57894e-07
6.86492e-07
6.31312e-07
5.8608e-07
5.47913e-07
5.1583e-07
4.87883e-07
4.6366e-07
4.41844e-07
4.21526e-07
4.02404e-07
3.84465e-07
3.7008e-07
3.57535e-07
3.45467e-07
3.34654e-07
3.25016e-07
3.16064e-07
3.07828e-07
3.00722e-07
2.94612e-07
2.89404e-07
2.84482e-07
2.7931e-07
2.7414e-07
2.6937e-07
2.64747e-07
2.60498e-07
2.57586e-07
2.55499e-07
2.53516e-07
2.51317e-07
2.48874e-07
2.4674e-07
2.45062e-07
2.43541e-07
2.41991e-07
2.40704e-07
2.39759e-07
2.39014e-07
2.38321e-07
2.37752e-07
2.37133e-07
2.36482e-07
2.36084e-07
2.36052e-07
2.3642e-07
2.37136e-07
2.37731e-07
2.38235e-07
2.38599e-07
2.38735e-07
2.38932e-07
2.39474e-07
2.40268e-07
2.41137e-07
2.42174e-07
2.43198e-07
2.43944e-07
2.44989e-07
2.46519e-07
2.4842e-07
2.50467e-07
2.52437e-07
2.54339e-07
2.5611e-07
2.57987e-07
2.59983e-07
2.62022e-07
2.6416e-07
2.66462e-07
2.68985e-07
2.71719e-07
2.74642e-07
2.77781e-07
2.81208e-07
2.84894e-07
2.88666e-07
2.92431e-07
2.96133e-07
2.99891e-07
3.03832e-07
3.07886e-07
3.12006e-07
3.16256e-07
3.20765e-07
3.25577e-07
3.30636e-07
3.35883e-07
3.41248e-07
3.46629e-07
3.52096e-07
3.57728e-07
3.6365e-07
3.69868e-07
3.76323e-07
3.82956e-07
3.89686e-07
3.96491e-07
4.03418e-07
4.10586e-07
4.18126e-07
4.26122e-07
4.34597e-07
4.435e-07
4.52812e-07
4.62487e-07
4.72466e-07
4.82673e-07
4.93011e-07
5.03412e-07
5.1382e-07
5.24243e-07
5.34741e-07
5.45413e-07
5.56332e-07
5.6755e-07
5.79095e-07
5.91003e-07
6.03343e-07
6.16205e-07
6.29689e-07
6.43873e-07
6.58798e-07
6.7447e-07
6.90867e-07
7.07932e-07
7.25585e-07
7.43697e-07
7.62175e-07
7.80942e-07
7.99965e-07
8.19251e-07
8.38844e-07
8.58855e-07
8.79512e-07
9.01169e-07
9.24199e-07
9.48786e-07
9.74757e-07
1.00167e-06
1.02921e-06
1.05758e-06
1.08732e-06
1.11843e-06
1.1499e-06
1.18043e-06
1.21003e-06
1.24049e-06
1.27357e-06
1.30901e-06
1.34551e-06
1.38363e-06
1.42627e-06
1.47474e-06
1.52567e-06
1.57408e-06
1.61916e-06
1.66446e-06
1.71183e-06
1.75881e-06
1.80361e-06
1.84928e-06
1.90003e-06
1.95635e-06
2.01701e-06
2.08255e-06
2.15347e-06
2.22792e-06
2.30351e-06
2.37875e-06
2.45126e-06
2.51818e-06
2.58014e-06
2.6424e-06
2.71046e-06
2.78652e-06
2.87059e-06
2.96278e-06
3.06278e-06
3.16769e-06
3.27174e-06
3.36886e-06
3.45638e-06
3.53704e-06
3.61764e-06
3.70556e-06
3.80552e-06
3.91896e-06
4.04562e-06
4.18358e-06
4.32522e-06
4.45774e-06
4.57562e-06
4.68743e-06
4.80155e-06
4.91615e-06
5.03672e-06
5.18477e-06
5.37059e-06
5.57249e-06
5.76133e-06
5.9292e-06
6.07544e-06
6.20131e-06
6.33351e-06
6.50836e-06
6.73551e-06
7.0018e-06
7.29209e-06
7.58819e-06
7.86016e-06
8.07009e-06
8.20589e-06
8.3191e-06
8.48965e-06
8.76018e-06
9.14825e-06
9.64736e-06
9.99357e-06
9.99357e-06
9.99357e-06
9.99357e-06
9.99356e-06
9.99356e-06
9.99356e-06
9.99356e-06
9.99356e-06
9.99356e-06
9.99356e-06
9.99356e-06
9.99355e-06
9.99356e-06
9.99356e-06
9.99356e-06
9.99356e-06
9.99356e-06
9.99356e-06
9.99355e-06
9.99356e-06
9.99356e-06
9.99356e-06
9.99356e-06
9.99355e-06
9.99355e-06
9.99356e-06
9.99357e-06
9.99357e-06
9.99357e-06
9.99357e-06
9.99357e-06
9.99357e-06
9.99358e-06
9.99358e-06
9.99358e-06
9.99357e-06
9.99357e-06
9.99357e-06
9.99357e-06
9.99358e-06
9.99357e-06
9.99356e-06
9.99356e-06
9.99356e-06
9.99357e-06
9.99357e-06
9.99357e-06
9.99358e-06
9.99358e-06
9.99358e-06
9.99358e-06
9.99359e-06
9.99359e-06
9.99358e-06
9.99357e-06
9.99364e-06
9.99361e-06
5.57431e-06
5.82883e-06
2.85877e-06
2.70716e-06
5.61957e-06
6.16053e-06
7.12842e-06
7.02202e-06
9.99389e-06
9.99375e-06
9.99367e-06
9.99363e-06
9.99365e-06
9.99364e-06
9.99363e-06
9.99361e-06
9.99359e-06
9.99356e-06
9.99353e-06
9.99351e-06
9.99351e-06
9.99351e-06
9.9935e-06
9.99351e-06
9.99352e-06
9.99354e-06
9.99353e-06
9.99352e-06
9.99352e-06
9.99353e-06
9.99354e-06
9.99357e-06
9.99358e-06
9.99359e-06
9.99358e-06
9.99356e-06
9.99354e-06
9.99352e-06
9.99352e-06
9.99352e-06
9.99354e-06
9.99355e-06
9.99357e-06
9.99359e-06
9.9936e-06
9.99361e-06
9.9936e-06
9.9936e-06
9.9936e-06
9.9936e-06
9.99361e-06
9.99361e-06
9.99362e-06
9.99362e-06
9.99362e-06
9.99361e-06
9.99361e-06
9.99361e-06
9.9936e-06
9.9936e-06
9.9936e-06
9.9936e-06
9.9936e-06
9.99361e-06
9.99361e-06
9.99362e-06
9.99363e-06
9.99361e-06
9.9936e-06
9.99361e-06
9.99362e-06
9.99362e-06
9.99359e-06
9.99352e-06
9.99352e-06
9.99355e-06
9.99361e-06
9.99356e-06
9.99352e-06
9.99354e-06
9.99358e-06
9.99368e-06
9.99359e-06
9.99361e-06
9.99371e-06
9.99375e-06
9.99361e-06
9.99357e-06
9.99355e-06
9.99355e-06
9.99357e-06
4.61866e-06
7.20734e-06
2.58875e-09
2.41344e-09
6.70429e-09
2.02276e-08
2.01785e-08
1.96585e-08
1.98829e-08
1.96789e-08
1.92604e-08
1.86904e-08
1.84113e-08
1.81735e-08
1.77479e-08
1.72167e-08
1.66228e-08
1.61773e-08
1.59746e-08
1.58648e-08
1.56664e-08
1.53877e-08
1.51782e-08
1.51174e-08
1.51544e-08
1.51754e-08
1.51866e-08
1.52159e-08
1.51466e-08
1.5044e-08
1.4881e-08
1.42946e-08
1.3799e-08
1.409e-08
1.52457e-08
1.67473e-08
1.6672e-08
1.60588e-08
1.65075e-08
1.72377e-08
1.8231e-08
1.87378e-08
1.83633e-08
1.89692e-08
2.04889e-08
2.17091e-08
2.14321e-08
2.05237e-08
2.09278e-08
2.14871e-08
2.22655e-08
2.32427e-08
2.3845e-08
2.41098e-08
2.56824e-08
2.61313e-08
2.58367e-08
2.7731e-08
2.82435e-08
2.54848e-08
2.55367e-08
2.80546e-08
3.10848e-08
2.86906e-08
2.96155e-08
3.38893e-08
3.72367e-08
3.81676e-08
4.05205e-08
4.73388e-08
5.33164e-08
4.98293e-08
4.58946e-08
5.46738e-08
8.50828e-08
1.67053e-07
1.47928e-07
1.40209e-07
1.1742e-07
1.1953e-07
2.48016e-07
1.54649e-07
2.31393e-07
2.82039e-07
9.56341e-08
8.68048e-08
7.82586e-08
4.36411e-08
2.60896e-08
1.86774e-08
1.96687e-08
1.53345e-08
1.86027e-08
1.87265e-08
1.95494e-08
4.15471e-08
3.19798e-08
6.41695e-08
6.12172e-08
8.2122e-08
1.01932e-07
2.16614e-07
1.95608e-07
1.38235e-07
1.18193e-07
7.93819e-08
6.63733e-08
9.74915e-08
1.11068e-07
6.28663e-08
8.07922e-08
6.08293e-08
4.65547e-08
2.74779e-08
3.29221e-08
7.61554e-08
7.27918e-08
7.41502e-08
7.2872e-08
6.84999e-08
7.75653e-08
1.23196e-07
1.1219e-07
9.56387e-08
6.92494e-08
7.69672e-08
8.34479e-08
1.12392e-07
9.89797e-08
8.06063e-08
3.64415e-08
4.17272e-08
1.14103e-07
1.01799e-07
1.17549e-07
1.17384e-07
1.38903e-07
8.91384e-08
9.55191e-08
1.49267e-07
1.52173e-07
1.508e-07
1.55112e-07
1.47906e-07
1.54177e-07
1.71264e-07
1.7143e-07
1.75683e-07
1.8462e-07
1.93188e-07
2.00689e-07
2.11871e-07
2.18287e-07
2.27389e-07
2.38301e-07
2.5185e-07
2.64387e-07
2.80268e-07
2.98328e-07
3.13743e-07
3.30218e-07
3.53e-07
3.857e-07
4.14164e-07
4.31988e-07
4.72277e-07
5.31943e-07
5.74453e-07
5.99919e-07
6.71067e-07
7.86529e-07
8.51144e-07
8.61556e-07
9.57241e-07
1.07368e-06
1.02946e-06
9.72949e-07
9.91701e-07
9.36449e-07
8.47922e-07
7.96679e-07
7.49047e-07
6.85105e-07
6.33078e-07
5.95058e-07
5.57777e-07
5.22158e-07
4.9363e-07
4.70769e-07
4.48545e-07
4.26205e-07
4.06496e-07
3.90467e-07
3.75583e-07
3.6214e-07
3.50404e-07
3.40064e-07
3.30179e-07
3.20105e-07
3.10845e-07
3.02934e-07
2.96053e-07
2.90145e-07
2.85015e-07
2.80116e-07
2.7556e-07
2.71224e-07
2.66737e-07
2.61954e-07
2.57644e-07
2.54798e-07
2.52316e-07
2.50349e-07
2.48836e-07
2.46677e-07
2.44839e-07
2.43309e-07
2.417e-07
2.40103e-07
2.38634e-07
2.37347e-07
2.36538e-07
2.36186e-07
2.36112e-07
2.36031e-07
2.35675e-07
2.35229e-07
2.34801e-07
2.34695e-07
2.35151e-07
2.35761e-07
2.36533e-07
2.37315e-07
2.37563e-07
2.37677e-07
2.3801e-07
2.38641e-07
2.39431e-07
2.40362e-07
2.41444e-07
2.42441e-07
2.43666e-07
2.45323e-07
2.47115e-07
2.49e-07
2.50692e-07
2.52256e-07
2.53981e-07
2.55892e-07
2.57907e-07
2.60129e-07
2.62559e-07
2.65125e-07