/*--------------------------------*- C++ -*----------------------------------*\
| =========                 |                                                 |
| \\      /  F ield         | OpenFOAM: The Open Source CFD Toolbox           |
|  \\    /   O peration     | Version:  v2006                                 |
|   \\  /    A nd           | Website:  www.openfoam.com                      |
|    \\/     M anipulation  |                                                 |
\*---------------------------------------------------------------------------*/
FoamFile
{
    version     2.0;
    format      ascii;
    class       volScalarField;
    location    "1.8";
    object      omega;
}
// * * * * * * * * * * * * * * * * * * * * * * * * * * * * * * * * * * * * * //

dimensions      [0 0 -1 0 0 0 0];


internalField   nonuniform List<scalar> 
33000
(
0.803185
0.803145
0.803158
0.803141
0.803136
0.803133
0.803128
0.803125
0.803123
0.803123
0.803126
0.80313
0.803134
0.803138
0.803138
0.803138
0.803139
0.803141
0.803144
0.803151
0.803159
0.803162
0.803166
0.803173
0.803185
0.803194
0.803202
0.803209
0.803217
0.803229
0.803238
0.803243
0.803246
0.803256
0.803269
0.803281
0.803281
0.803282
0.803294
0.8033
0.803308
0.803309
0.803299
0.803291
0.80329
0.803283
0.803264
0.803248
0.803236
0.803222
0.803204
0.803186
0.803171
0.803157
0.803144
0.803131
0.803116
0.803104
0.803091
0.803075
0.803057
0.803041
0.803027
0.803011
0.802993
0.802974
0.802955
0.802938
0.802918
0.802897
0.802874
0.802846
0.802811
0.802763
0.802712
0.802645
0.802544
0.802415
0.802343
0.802293
0.802286
0.802284
0.802292
0.802298
0.802311
0.80231
0.802301
0.802298
0.802296
0.802296
0.802294
0.802291
0.802286
0.80228
0.802273
0.802261
0.802247
0.802218
0.8022
0.802151
0.802157
0.802146
0.802153
0.802148
0.802148
0.802151
0.802148
0.802143
0.80214
0.802136
0.802132
0.802127
0.802122
0.802113
0.802103
0.802084
0.802071
0.802029
0.802035
0.802024
0.802027
0.802024
0.802023
0.802024
0.802021
0.802017
0.802014
0.802009
0.802005
0.802
0.801994
0.801989
0.801983
0.801976
0.80197
0.801963
0.801955
0.801948
0.801941
0.801933
0.801925
0.801917
0.80191
0.801902
0.801894
0.801886
0.801878
0.801871
0.801863
0.801855
0.801848
0.80184
0.801832
0.801825
0.801817
0.80181
0.801802
0.801795
0.801787
0.80178
0.801772
0.801765
0.801758
0.801751
0.801743
0.801736
0.801729
0.801721
0.801714
0.801707
0.8017
0.801693
0.801685
0.801678
0.801671
0.801664
0.801657
0.80165
0.801643
0.801636
0.801629
0.801622
0.801615
0.801608
0.801602
0.801595
0.801588
0.801581
0.801575
0.801568
0.801561
0.801555
0.801548
0.801541
0.801535
0.801528
0.801522
0.801515
0.801509
0.801502
0.801496
0.80149
0.801483
0.801477
0.801471
0.801465
0.801458
0.801452
0.801446
0.80144
0.801434
0.801428
0.801422
0.801416
0.80141
0.801404
0.801398
0.801393
0.801387
0.801381
0.801375
0.80137
0.801364
0.801359
0.801353
0.801347
0.801342
0.801336
0.801331
0.801326
0.801321
0.801316
0.801311
0.801306
0.801301
0.801296
0.801292
0.801287
0.801283
0.801278
0.801274
0.80127
0.801266
0.801262
0.801258
0.801254
0.80125
0.801246
0.801242
0.801239
0.801235
0.801232
0.801228
0.801225
0.801222
0.801219
0.801216
0.801213
0.801209
0.801207
0.801204
0.801201
0.801198
0.801195
0.801193
0.80119
0.801187
0.801185
0.801183
0.80118
0.801178
0.801175
0.801173
0.801171
0.801169
0.801167
0.801165
0.801163
0.801161
0.801159
0.801157
0.801155
0.801154
0.801152
0.80115
0.801149
0.801147
0.801146
0.801144
0.801143
0.801141
0.80114
0.801138
0.801137
0.801136
0.801135
0.801133
0.801132
0.801131
0.80113
0.801129
0.801128
0.801127
0.801126
0.801125
0.801124
0.801123
0.801122
0.801121
0.80112
0.801119
0.801118
0.801118
0.801117
0.801116
0.801115
0.801115
0.801114
0.801113
0.801113
0.801112
0.801112
0.801111
0.80111
0.80111
0.801109
0.801109
0.801108
0.801108
0.801108
0.801107
0.801107
0.801106
0.801106
0.801105
0.801105
0.801105
0.801104
0.801104
0.801104
0.801103
0.801103
0.801103
0.801103
0.801102
0.801102
0.801102
0.801102
0.801101
0.801101
0.801101
0.801101
0.8011
0.8011
0.8011
0.8011
0.8011
0.801099
0.801099
0.801099
0.801099
0.801099
0.801099
0.801098
0.801098
0.801098
0.801098
0.801098
0.801098
0.801097
0.801097
0.801097
0.801097
0.801097
0.801097
0.801097
0.801097
0.801096
0.801096
0.801096
0.801096
0.801096
0.801096
0.801096
0.801096
0.801096
0.801095
0.801095
0.801095
0.801095
0.801095
0.801095
0.801095
0.801095
0.801095
0.801095
0.801095
0.801094
0.801094
0.801094
0.801094
0.801094
0.801094
0.801094
0.801094
0.801094
0.801094
0.801094
0.801094
0.801094
0.801093
0.801093
0.801093
0.801093
0.801093
0.801093
0.801093
0.801093
0.801093
0.801093
0.801093
0.801093
0.801093
0.801093
0.801093
0.801093
0.801092
0.801092
0.801092
0.801092
0.801092
0.801092
0.801092
0.801092
0.801092
0.801092
0.801092
0.801092
0.801092
0.801092
0.801092
0.801092
0.801092
0.801092
0.801092
0.801092
0.801092
0.801092
0.801092
0.801092
0.801092
0.801092
0.801092
0.801092
0.801092
0.801092
0.801092
0.801092
0.801092
0.801092
0.801092
0.801092
0.801092
0.801092
0.801092
0.801092
0.801092
0.801092
0.801092
0.801093
0.801093
0.801093
0.801093
0.801093
0.801093
0.801093
0.801093
0.801093
0.801093
0.801092
0.801092
0.801092
0.801092
0.801092
0.801092
0.801092
0.801092
0.801092
0.801092
0.801092
0.801092
0.801092
0.801092
0.801092
0.801092
0.801092
0.801092
0.801091
0.801091
0.801091
0.801091
0.801091
0.801091
0.801091
0.801091
0.801091
0.801091
0.801091
0.801092
0.801092
0.801092
0.801092
0.801092
0.801092
0.801092
0.801092
0.801092
0.801092
0.801092
0.801092
0.801092
0.801092
0.801092
0.801092
0.801092
0.801092
0.801092
0.801092
0.801092
0.801092
0.801092
0.801092
0.801092
0.801092
0.801092
0.801092
0.801092
0.801092
0.801091
0.801092
0.801092
0.801092
0.801092
0.801092
0.801092
0.801092
0.801092
0.801092
0.801092
0.801092
0.0181124
0.018124
0.0153915
0.015013
0.0155365
0.0157547
0.0156951
0.0156615
0.0156802
0.0157704
0.0160137
0.0164088
0.0169152
0.0173591
0.0174395
0.0175373
0.0177082
0.0179245
0.0182394
0.0186809
0.019046
0.0190064
0.0187683
0.0187452
0.019146
0.0194749
0.0195604
0.0194821
0.0195685
0.020038
0.0200429
0.0194322
0.018831
0.0193461
0.0199047
0.0197621
0.0186103
0.0179327
0.0190943
0.0196873
0.0198458
0.0190188
0.0172028
0.0169246
0.0180495
0.0180635
0.0162267
0.0155286
0.0159272
0.0161396
0.0151347
0.0139731
0.0134922
0.0133878
0.0136883
0.0136303
0.0133203
0.0136177
0.0143361
0.013982
0.0129174
0.0126155
0.0132792
0.0130073
0.0121381
0.0110129
0.0102489
0.010012
0.00945374
0.00893023
0.00878422
0.00886018
0.00938015
0.0101777
0.0114179
0.012923
0.0136775
0.0127614
0.0104992
0.00913419
0.00979581
0.0124348
0.0158778
0.0168173
0.0165758
0.00980296
0.00827208
0.0101228
0.0106164
0.0108507
0.0104095
0.00957488
0.00816305
0.00768029
0.0069554
0.00658958
0.00657878
0.00659258
0.00658013
0.00654781
0.00676796
0.00933548
0.0110848
0.00952424
0.0113734
0.0109342
0.00891256
0.00861255
0.00895134
0.0090334
0.00853746
0.00822383
0.00745
0.00666722
0.00656508
0.00659781
0.00662343
0.00654221
0.00660386
0.00859976
0.010251
0.00911743
0.0107965
0.0103879
0.00894763
0.00915383
0.00901069
0.00893148
0.00896474
0.00869212
0.00839038
0.00850289
0.00840932
0.00830524
0.00819016
0.00807588
0.00814698
0.00808091
0.00800755
0.00790779
0.00788653
0.00784759
0.00778569
0.00773165
0.00768416
0.0076177
0.00754255
0.00749465
0.00747241
0.00742824
0.00738815
0.00733566
0.00727347
0.00722724
0.00722069
0.0071926
0.00715319
0.00711273
0.00709191
0.00708097
0.00705506
0.00702811
0.00700609
0.00699928
0.00698699
0.00697309
0.0069564
0.00694263
0.00693179
0.00692245
0.00690409
0.0068904
0.00687918
0.00686997
0.00686212
0.00685294
0.00684702
0.00684174
0.00683582
0.00683139
0.00682834
0.00682585
0.00682367
0.00682234
0.00682165
0.00682055
0.00681965
0.00681912
0.00681923
0.00681986
0.00682013
0.00682007
0.0068203
0.00682098
0.00682219
0.00682365
0.00682511
0.00682592
0.00682742
0.00682935
0.00683165
0.00683403
0.00683558
0.00683708
0.00683911
0.00684143
0.00684395
0.00684651
0.00684814
0.00684977
0.00685179
0.00685467
0.00685803
0.0068607
0.00686338
0.00686658
0.00687025
0.00687399
0.00687709
0.00688009
0.0068837
0.00688747
0.00689103
0.00689385
0.00689701
0.00690061
0.00690401
0.00690732
0.00691026
0.00691307
0.00691607
0.00691949
0.00692308
0.00692635
0.00692905
0.00693207
0.00693553
0.00693946
0.00694301
0.00694621
0.00694958
0.00695337
0.00695706
0.00696074
0.00696501
0.00696941
0.0069734
0.00697684
0.00698054
0.00698465
0.00698872
0.00699197
0.00699471
0.00699761
0.00700088
0.00700433
0.00700729
0.00700934
0.00701102
0.00701339
0.00701665
0.00701986
0.00702314
0.00702657
0.00703008
0.00703311
0.0070359
0.0070387
0.00704161
0.00704393
0.0070459
0.00704813
0.00705084
0.00705348
0.00705634
0.00705946
0.00706264
0.00706577
0.00706916
0.00707288
0.00707636
0.00707966
0.00708237
0.00708416
0.00708547
0.00708668
0.0070878
0.00708839
0.00708874
0.00708923
0.00709011
0.00709147
0.00709282
0.00709481
0.00709747
0.00710068
0.00710379
0.00710664
0.00710939
0.00711214
0.00711443
0.00711647
0.00711819
0.00711944
0.00712018
0.00712032
0.00712043
0.00712069
0.00712103
0.00712158
0.00712255
0.00712381
0.00712521
0.00712685
0.00712847
0.00712977
0.00713088
0.00713159
0.00713185
0.00713199
0.00713201
0.00713182
0.00713167
0.00713129
0.00713102
0.00713139
0.00713236
0.00713397
0.00713532
0.00713598
0.00713598
0.00713547
0.00713469
0.00713322
0.00713086
0.00712824
0.00712639
0.00712567
0.00712554
0.0071255
0.00712574
0.00712672
0.00712814
0.00712927
0.00712959
0.00712933
0.00712879
0.0071279
0.00712663
0.00712542
0.00712478
0.00712469
0.00712509
0.00712612
0.00712761
0.00712895
0.00712949
0.00712927
0.0071286
0.00712758
0.00712625
0.00712496
0.00712435
0.00712477
0.00712598
0.00712735
0.00712855
0.00712934
0.00712949
0.00712879
0.00712733
0.00712565
0.00712434
0.00712369
0.00712355
0.00712357
0.0071236
0.00712368
0.00712356
0.00712268
0.00712089
0.00711881
0.00711733
0.00711694
0.00711763
0.00711907
0.00712043
0.00712101
0.00712064
0.00711955
0.00711822
0.00711727
0.00711729
0.00711841
0.00712025
0.00712234
0.00712396
0.00712437
0.00712324
0.00712113
0.00711932
0.00711868
0.00711898
0.00711938
0.00711977
0.00711998
0.00711917
0.00711767
0.00711671
0.00711685
0.00711776
0.0071186
0.00711839
0.00711714
0.00711592
0.00711505
0.00711433
0.00711441
0.00711461
0.00711395
0.00711315
0.00711449
0.00711593
0.00711834
0.00711879
0.00711401
0.00711343
0.00711073
0.00710641
0.00710218
0.00710032
0.00710139
0.00709822
0.00709831
0.00709879
0.00710179
0.00710328
0.00710208
0.00710235
0.00709822
0.00710088
0.00710809
0.00710742
0.00710622
0.00710189
0.00710375
0.0071022
0.00709663
0.00709417
0.00709232
0.00709601
0.00709301
0.00709757
0.00709915
0.00710434
0.00709927
0.00709377
0.00710241
0.00709347
0.00709232
0.00710201
0.00710273
0.0071332
0.00711651
0.00711193
0.00711482
0.0070914
0.00709199
0.00709146
0.00709268
0.00709605
0.00709508
0.00710059
0.00710469
0.00710868
0.00711845
0.00712957
0.00713748
0.00714201
0.00714534
0.00714453
0.00713824
0.00713088
0.00712777
0.00712921
0.00713024
0.0071274
0.00712168
0.00711632
0.00711334
0.00711363
0.00711693
0.00712195
0.00712697
0.00713075
0.00713256
0.00713229
0.0071299
0.00712486
0.00711684
0.00710542
0.00709349
0.00709148
0.00709136
0.00709127
0.0070912
0.00709116
0.00709113
0.00709113
0.00709116
0.00709122
0.00709132
0.00709148
0.00709169
0.00709333
0.00709647
0.00709589
0.00709267
0.00709169
0.00709152
0.00709137
0.00709128
0.00709134
0.00709157
0.00709296
0.00709931
0.00709203
0.00709153
0.0070915
0.00709205
0.00712524
0.00715495
0.00714165
0.00710129
0.00709494
0.00712607
0.00715988
0.0071402
0.00709221
0.00709176
0.00709829
0.00710101
0.00709145
0.00709146
0.00709283
0.00712666
0.00711147
0.00715056
0.00714875
0.00718491
0.00248657
0.0019808
0.00145974
0.00138256
0.00139055
0.00139671
0.00139559
0.00139556
0.00139723
0.00140156
0.00141075
0.00142407
0.00144013
0.00145414
0.00145909
0.00146449
0.00147076
0.00147798
0.00148925
0.00150339
0.00151403
0.00151326
0.00150705
0.00150717
0.00151854
0.00152681
0.00152986
0.00153155
0.00153777
0.0015634
0.00157526
0.00154441
0.0014978
0.00148687
0.00151758
0.00153602
0.00150115
0.00147093
0.0014821
0.00149343
0.00151671
0.0014862
0.00141651
0.00139937
0.00142973
0.00143718
0.00138323
0.0013633
0.0013687
0.00136583
0.00133094
0.00129768
0.00128135
0.00127197
0.00127231
0.00126858
0.00125703
0.00126052
0.00127832
0.00126803
0.0012365
0.0012298
0.00125348
0.00124468
0.0012213
0.001186
0.00117104
0.00116472
0.00115755
0.0011546
0.0011548
0.00115552
0.0011681
0.00118398
0.00120471
0.00123068
0.0012695
0.00129971
0.00133789
0.00137083
0.00144773
0.00155774
0.00178107
0.0019758
0.00186091
0.0015947
0.00143922
0.00139572
0.00130187
0.00119881
0.00113099
0.00111773
0.00108222
0.00106911
0.00106664
0.00106167
0.00105779
0.00106273
0.00106524
0.00106174
0.00106669
0.00106627
0.00107959
0.0010982
0.00117234
0.00117309
0.00111742
0.00110907
0.00111954
0.0011098
0.00108974
0.00108039
0.00106903
0.0010549
0.00105144
0.00105333
0.00105765
0.0010548
0.00105706
0.00105459
0.00106208
0.0010826
0.00114949
0.00114807
0.00109541
0.00110954
0.00109641
0.00108487
0.00108372
0.00107914
0.00107066
0.00107173
0.00106965
0.00106719
0.0010656
0.00106447
0.00106448
0.0010628
0.00106159
0.00106012
0.00105929
0.00105809
0.00105685
0.00105621
0.00105501
0.00105365
0.00105244
0.00105161
0.00105087
0.00105001
0.00104922
0.0010484
0.00104752
0.0010468
0.00104638
0.00104583
0.00104526
0.0010447
0.00104435
0.0010441
0.00104377
0.00104343
0.00104311
0.00104296
0.00104281
0.00104267
0.00104249
0.00104238
0.00104234
0.0010423
0.00104216
0.0010421
0.00104207
0.00104206
0.00104213
0.00104219
0.00104227
0.00104233
0.00104241
0.00104249
0.00104258
0.00104269
0.00104283
0.00104296
0.00104305
0.0010431
0.00104315
0.00104321
0.00104327
0.00104336
0.00104346
0.00104352
0.00104356
0.00104361
0.00104368
0.00104376
0.00104384
0.00104387
0.00104388
0.0010439
0.00104394
0.00104397
0.00104402
0.00104409
0.00104417
0.00104418
0.00104419
0.0010442
0.00104422
0.00104422
0.00104423
0.00104423
0.00104427
0.00104432
0.00104439
0.00104446
0.00104452
0.00104454
0.00104453
0.00104454
0.00104459
0.00104468
0.00104477
0.0010448
0.00104484
0.00104488
0.00104493
0.001045
0.00104505
0.00104505
0.00104507
0.00104509
0.00104515
0.00104524
0.00104533
0.0010454
0.00104547
0.00104555
0.00104562
0.00104567
0.00104572
0.00104575
0.00104576
0.0010458
0.00104586
0.00104594
0.00104602
0.00104608
0.00104616
0.00104625
0.00104633
0.00104641
0.0010465
0.00104662
0.00104671
0.0010467
0.00104666
0.00104665
0.00104668
0.00104678
0.00104691
0.00104704
0.00104716
0.00104728
0.00104741
0.00104753
0.00104764
0.00104775
0.00104784
0.00104792
0.00104796
0.00104801
0.00104809
0.00104819
0.00104831
0.00104844
0.00104855
0.00104869
0.00104886
0.00104903
0.0010492
0.00104938
0.00104953
0.00104967
0.00104977
0.00104988
0.00104999
0.00105011
0.00105023
0.00105035
0.00105047
0.0010506
0.00105076
0.00105093
0.00105112
0.00105128
0.00105145
0.0010516
0.00105176
0.00105191
0.00105203
0.00105211
0.00105219
0.00105228
0.00105236
0.00105243
0.0010525
0.00105257
0.00105265
0.00105274
0.00105283
0.00105291
0.00105299
0.00105307
0.00105316
0.00105325
0.00105335
0.00105345
0.00105354
0.00105363
0.00105373
0.00105385
0.00105397
0.0010541
0.00105424
0.00105437
0.00105449
0.00105461
0.00105474
0.00105488
0.001055
0.00105511
0.00105522
0.00105537
0.00105551
0.00105564
0.00105578
0.00105591
0.00105605
0.0010562
0.00105634
0.00105648
0.00105661
0.00105675
0.00105689
0.00105704
0.00105721
0.00105735
0.0010575
0.00105766
0.00105779
0.00105792
0.00105804
0.00105817
0.0010583
0.00105843
0.00105854
0.00105864
0.00105877
0.00105891
0.00105903
0.00105916
0.0010593
0.00105941
0.00105952
0.00105963
0.00105974
0.00105983
0.00105992
0.00106001
0.0010601
0.00106016
0.00106023
0.0010603
0.00106038
0.00106044
0.00106048
0.00106052
0.00106058
0.00106065
0.00106071
0.00106075
0.0010608
0.00106085
0.00106089
0.00106093
0.00106097
0.001061
0.00106103
0.00106106
0.00106107
0.00106109
0.00106113
0.00106115
0.00106117
0.0010612
0.00106121
0.00106121
0.0010612
0.00106117
0.00106115
0.00106114
0.00106115
0.00106115
0.00106114
0.00106114
0.00106113
0.00106112
0.00106111
0.00106111
0.00106112
0.00106112
0.00106111
0.00106109
0.00106107
0.00106106
0.00106106
0.00106106
0.00106106
0.00106105
0.00106104
0.00106106
0.00106106
0.00106108
0.00106109
0.00106101
0.00106095
0.00106092
0.00106091
0.00106088
0.00106086
0.00106085
0.0010608
0.0010608
0.0010608
0.00106084
0.00106085
0.00106084
0.00106084
0.00106079
0.00106082
0.00106092
0.0010609
0.00106088
0.0010608
0.00106083
0.00106082
0.00106075
0.00106072
0.0010607
0.00106077
0.00106069
0.00106075
0.00106079
0.00106081
0.00106075
0.00106071
0.00106081
0.00106076
0.00106093
0.00105813
0.00105831
0.00105193
0.00105043
0.00105899
0.00105932
0.00105999
0.00106028
0.00106068
0.0010607
0.0010607
0.00106068
0.00106078
0.00106086
0.00106097
0.00106115
0.00106127
0.00106132
0.00106137
0.00106144
0.00106144
0.00106137
0.0010613
0.00106129
0.0010613
0.00106129
0.00106122
0.00106112
0.00106104
0.001061
0.00106102
0.00106108
0.00106117
0.00106124
0.00106128
0.00106129
0.00106126
0.0010612
0.00106111
0.00106098
0.00106082
0.00106068
0.00106066
0.00106066
0.00106065
0.00106065
0.00106065
0.00106065
0.00106065
0.00106065
0.00106066
0.00106066
0.00106066
0.00106066
0.00106067
0.0010607
0.00106069
0.00106067
0.00106066
0.00106066
0.00106066
0.00106066
0.00106066
0.00106066
0.00106067
0.00106071
0.00106067
0.00106066
0.00106067
0.00106076
0.00106126
0.0010615
0.0010612
0.00106077
0.00106085
0.00106135
0.0010616
0.00106113
0.00106068
0.00106072
0.00106087
0.0010607
0.00106067
0.00106068
0.00106084
0.00106114
0.00106104
0.00106142
0.00105985
0.00106195
0.00237392
0.00177877
0.00128687
0.00120825
0.00119985
0.00120029
0.00119872
0.00119726
0.00119591
0.00119508
0.00119421
0.0011932
0.00119253
0.0011922
0.00119183
0.00119158
0.00119134
0.00119113
0.00119112
0.00119113
0.00119045
0.00118847
0.00118645
0.00118576
0.00118567
0.00118463
0.0011832
0.00118123
0.00118014
0.00118264
0.00118233
0.00117581
0.00116789
0.00116573
0.00117001
0.00117043
0.00116408
0.00115903
0.00115636
0.00115602
0.00115679
0.0011514
0.00114433
0.00114125
0.00114222
0.00114074
0.00113639
0.00113423
0.00113235
0.00112906
0.00112563
0.00112335
0.0011211
0.0011192
0.00111639
0.00111381
0.00111249
0.00111174
0.00110891
0.00110678
0.00110516
0.00110662
0.00110445
0.00110203
0.00110242
0.00110183
0.00110141
0.0011011
0.00110185
0.00110384
0.00110499
0.00110751
0.00111369
0.00111959
0.00112157
0.00111473
0.001108
0.001103
0.00111696
0.00116307
0.00120221
0.00126829
0.0013177
0.00138489
0.00144475
0.00161497
0.00184333
0.00198056
0.00181889
0.00146293
0.00130426
0.00116787
0.00111464
0.00106421
0.00105376
0.00103312
0.00102821
0.00103597
0.00104162
0.00103818
0.00104101
0.00104613
0.00104431
0.00105012
0.00104605
0.00105362
0.00106755
0.00108768
0.00111277
0.00109693
0.001055
0.0010543
0.00104217
0.0010398
0.00103497
0.00103423
0.00102739
0.00102653
0.00102924
0.00103539
0.00103367
0.00103681
0.00103515
0.00104397
0.00105198
0.00108536
0.00107439
0.00103895
0.00103842
0.00102872
0.00102787
0.00102413
0.001023
0.00101878
0.00101829
0.00101814
0.00101842
0.00101855
0.00101852
0.00101827
0.00101769
0.00101737
0.00101693
0.0010168
0.00101666
0.00101637
0.0010161
0.00101582
0.00101554
0.00101539
0.00101523
0.00101503
0.00101489
0.00101476
0.00101459
0.00101443
0.0010143
0.00101421
0.0010141
0.00101399
0.00101389
0.00101386
0.00101381
0.0010137
0.00101365
0.00101366
0.00101364
0.00101355
0.00101351
0.00101357
0.0010136
0.00101353
0.00101351
0.00101356
0.0010136
0.00101358
0.00101359
0.00101361
0.00101361
0.0010136
0.00101359
0.00101359
0.00101358
0.00101356
0.00101353
0.00101348
0.00101343
0.00101337
0.0010133
0.00101323
0.00101317
0.00101311
0.00101304
0.00101295
0.00101286
0.00101277
0.00101268
0.00101258
0.00101247
0.00101235
0.00101222
0.00101209
0.00101196
0.00101183
0.00101172
0.0010116
0.00101147
0.00101134
0.00101119
0.00101103
0.00101086
0.00101071
0.00101056
0.00101041
0.00101027
0.00101013
0.00100999
0.00100984
0.00100969
0.00100955
0.0010094
0.00100926
0.00100911
0.00100897
0.00100883
0.00100868
0.00100852
0.00100837
0.00100823
0.00100809
0.00100795
0.00100782
0.0010077
0.00100757
0.00100744
0.00100731
0.00100719
0.00100708
0.00100696
0.00100684
0.00100671
0.00100658
0.00100645
0.00100632
0.0010062
0.00100609
0.00100598
0.00100588
0.00100578
0.00100567
0.00100557
0.00100547
0.00100536
0.00100525
0.00100515
0.00100504
0.00100492
0.00100481
0.00100471
0.00100461
0.00100452
0.00100443
0.00100434
0.00100426
0.00100418
0.0010041
0.00100401
0.00100392
0.00100383
0.00100374
0.00100366
0.00100357
0.00100349
0.00100341
0.00100334
0.00100326
0.00100319
0.00100312
0.00100305
0.00100299
0.00100292
0.00100285
0.00100279
0.00100272
0.00100265
0.00100258
0.00100251
0.00100244
0.00100237
0.00100231
0.00100225
0.0010022
0.00100214
0.0010021
0.00100205
0.001002
0.00100196
0.00100191
0.00100187
0.00100182
0.00100178
0.00100173
0.00100169
0.00100164
0.00100159
0.00100155
0.0010015
0.00100145
0.00100141
0.00100137
0.00100133
0.00100129
0.00100126
0.00100122
0.00100119
0.00100115
0.00100112
0.00100109
0.00100105
0.00100102
0.00100099
0.00100095
0.00100092
0.00100089
0.00100086
0.00100083
0.00100081
0.00100079
0.00100077
0.00100075
0.00100073
0.00100071
0.00100069
0.00100067
0.00100065
0.00100063
0.00100062
0.00100061
0.0010006
0.00100059
0.00100058
0.00100057
0.00100056
0.00100056
0.00100055
0.00100054
0.00100054
0.00100053
0.00100052
0.00100052
0.00100052
0.00100051
0.00100051
0.00100051
0.0010005
0.0010005
0.0010005
0.0010005
0.0010005
0.0010005
0.00100049
0.00100049
0.00100049
0.00100049
0.00100049
0.00100049
0.00100049
0.00100049
0.00100049
0.00100049
0.00100049
0.00100049
0.00100049
0.00100049
0.00100049
0.00100049
0.00100049
0.00100049
0.00100049
0.00100049
0.00100049
0.00100049
0.00100049
0.0010005
0.0010005
0.0010005
0.0010005
0.0010005
0.0010005
0.0010005
0.0010005
0.0010005
0.0010005
0.0010005
0.0010005
0.0010005
0.0010005
0.0010005
0.00100049
0.00100049
0.00100049
0.00100049
0.00100049
0.00100049
0.00100049
0.00100049
0.00100049
0.00100049
0.00100049
0.00100049
0.00100049
0.00100049
0.00100049
0.00100049
0.00100049
0.00100049
0.00100049
0.00100049
0.00100049
0.00100049
0.00100049
0.00100049
0.00100049
0.00100049
0.00100049
0.00100049
0.00100049
0.00100049
0.00100049
0.00100049
0.00100049
0.00100048
0.00100048
0.00100048
0.00100048
0.00100048
0.00100048
0.00100048
0.00100048
0.00100048
0.00100048
0.00100048
0.00100048
0.00100048
0.00100048
0.00100048
0.00100048
0.00100048
0.00100048
0.00100048
0.00100048
0.00100048
0.00100048
0.00100048
0.00100048
0.00100049
0.00100049
0.0010005
0.0010005
0.00100063
0.00100062
0.00100047
0.00100039
0.00100038
0.00100048
0.00100048
0.00100049
0.00100048
0.00100049
0.00100049
0.00100049
0.00100049
0.00100049
0.00100049
0.00100049
0.00100049
0.00100049
0.00100049
0.00100049
0.00100049
0.00100049
0.00100049
0.00100049
0.00100049
0.00100049
0.00100049
0.00100049
0.00100049
0.00100049
0.00100049
0.00100049
0.00100049
0.00100049
0.00100049
0.00100049
0.00100049
0.00100049
0.00100049
0.00100049
0.00100049
0.00100048
0.00100048
0.00100048
0.00100048
0.00100048
0.00100048
0.00100048
0.00100048
0.00100048
0.00100048
0.00100048
0.00100048
0.00100048
0.00100048
0.00100048
0.00100048
0.00100048
0.00100048
0.00100048
0.00100048
0.00100048
0.00100048
0.00100049
0.00100049
0.00100048
0.00100048
0.00100048
0.00100048
0.00100049
0.00100049
0.00100049
0.00100049
0.00100049
0.00100049
0.00100049
0.00100049
0.0010005
0.00100049
0.0010005
0.00100049
0.00100049
0.0010005
0.0010005
0.00100049
0.00100049
0.00100049
0.00100049
0.00100049
0.0010005
0.00100052
0.00242396
0.00179856
0.00130433
0.00121827
0.00120365
0.00120337
0.0012007
0.00119896
0.00119761
0.00119726
0.00119654
0.00119519
0.00119412
0.0011937
0.00119384
0.00119401
0.00119379
0.00119317
0.00119237
0.00119142
0.00119027
0.00118892
0.00118743
0.001186
0.00118463
0.00118315
0.00118172
0.00118027
0.00117926
0.00117953
0.00117895
0.00117543
0.00117019
0.001166
0.00116575
0.00116529
0.00116162
0.00115799
0.00115499
0.00115315
0.00115146
0.00114758
0.00114365
0.00114118
0.00113994
0.00113843
0.001136
0.00113401
0.00113185
0.00112907
0.00112645
0.00112451
0.00112216
0.00112066
0.00111798
0.00111532
0.00111451
0.00111329
0.00111042
0.00110801
0.00110699
0.00110832
0.00110645
0.00110376
0.00110326
0.00110352
0.00110324
0.00110298
0.00110303
0.00110326
0.0011033
0.00110342
0.00110642
0.0011123
0.00111373
0.00110525
0.0011019
0.00109964
0.00109103
0.00109
0.00108077
0.0010905
0.00112782
0.00115744
0.00119811
0.00127584
0.0013831
0.00148056
0.00157419
0.00178437
0.00197548
0.00181476
0.00147722
0.00131925
0.00117265
0.00111668
0.00106595
0.00105675
0.00103727
0.00103038
0.00103337
0.00103643
0.00103415
0.00103867
0.00104136
0.00103648
0.00103875
0.00105251
0.00104974
0.00106286
0.00107515
0.00111063
0.00109446
0.00105353
0.001052
0.00104208
0.00104027
0.00103445
0.00103156
0.00102458
0.00102443
0.00102713
0.00103229
0.00103151
0.00103571
0.00103468
0.00104474
0.00105295
0.00108535
0.0010746
0.00103985
0.00103905
0.00102851
0.0010274
0.00101967
0.00102246
0.00102135
0.00101764
0.00101752
0.00101803
0.0010179
0.00101777
0.00101734
0.00101674
0.00101669
0.0010165
0.00101622
0.00101596
0.00101574
0.00101551
0.00101537
0.0010152
0.00101502
0.00101486
0.00101473
0.00101458
0.00101444
0.00101433
0.00101423
0.00101414
0.00101404
0.00101397
0.00101392
0.00101383
0.00101377
0.00101375
0.00101371
0.00101364
0.00101364
0.00101369
0.00101366
0.00101361
0.0010136
0.00101364
0.00101362
0.0010136
0.00101361
0.00101363
0.0010136
0.00101357
0.00101356
0.00101354
0.0010135
0.00101347
0.00101344
0.0010134
0.00101334
0.00101329
0.00101323
0.00101317
0.0010131
0.00101302
0.00101294
0.00101285
0.00101274
0.00101265
0.00101256
0.00101247
0.00101237
0.00101226
0.00101213
0.00101199
0.00101184
0.0010117
0.00101156
0.00101144
0.00101132
0.0010112
0.00101106
0.00101091
0.00101074
0.00101056
0.0010104
0.00101024
0.00101008
0.00100994
0.00100979
0.00100966
0.00100952
0.00100937
0.00100922
0.00100907
0.00100891
0.00100877
0.00100862
0.00100848
0.00100833
0.00100818
0.00100803
0.00100788
0.00100774
0.00100761
0.00100748
0.00100736
0.00100722
0.00100709
0.00100697
0.00100685
0.00100673
0.00100662
0.00100649
0.00100636
0.00100623
0.0010061
0.00100598
0.00100587
0.00100576
0.00100565
0.00100554
0.00100543
0.00100532
0.00100521
0.00100509
0.00100498
0.00100488
0.00100478
0.00100467
0.00100456
0.00100445
0.00100435
0.00100425
0.00100415
0.00100406
0.00100397
0.00100388
0.00100379
0.0010037
0.00100361
0.00100352
0.00100343
0.00100335
0.00100326
0.00100318
0.0010031
0.00100303
0.00100295
0.00100288
0.0010028
0.00100273
0.00100266
0.00100259
0.00100252
0.00100245
0.00100237
0.0010023
0.00100222
0.00100215
0.00100207
0.001002
0.00100194
0.00100187
0.00100182
0.00100176
0.00100171
0.00100166
0.00100161
0.00100156
0.00100152
0.00100147
0.00100142
0.00100138
0.00100133
0.00100128
0.00100123
0.00100118
0.00100113
0.00100108
0.00100104
0.00100099
0.00100095
0.0010009
0.00100086
0.00100082
0.00100079
0.00100075
0.00100071
0.00100068
0.00100064
0.0010006
0.00100057
0.00100053
0.00100049
0.00100046
0.00100043
0.0010004
0.00100037
0.00100034
0.00100031
0.00100029
0.00100027
0.00100024
0.00100022
0.0010002
0.00100018
0.00100016
0.00100014
0.00100012
0.0010001
0.00100009
0.00100008
0.00100007
0.00100005
0.00100004
0.00100003
0.00100002
0.00100001
0.001
0.000999995
0.000999986
0.000999979
0.000999972
0.000999965
0.00099996
0.000999955
0.00099995
0.000999945
0.000999941
0.000999936
0.000999932
0.000999928
0.000999925
0.000999922
0.000999919
0.000999916
0.000999914
0.000999912
0.000999909
0.000999907
0.000999905
0.000999903
0.000999901
0.000999899
0.000999898
0.000999896
0.000999895
0.000999894
0.000999892
0.000999891
0.00099989
0.000999889
0.000999888
0.000999887
0.000999887
0.000999886
0.000999885
0.000999884
0.000999883
0.000999883
0.000999882
0.000999882
0.000999881
0.000999881
0.00099988
0.00099988
0.000999879
0.000999879
0.000999878
0.000999878
0.000999878
0.000999877
0.000999877
0.000999877
0.000999876
0.000999876
0.000999876
0.000999876
0.000999876
0.000999875
0.000999875
0.000999875
0.000999874
0.000999874
0.000999874
0.000999874
0.000999874
0.000999874
0.000999873
0.000999874
0.000999874
0.000999873
0.000999873
0.000999873
0.000999873
0.000999872
0.000999872
0.000999872
0.000999872
0.000999872
0.000999872
0.000999872
0.000999872
0.000999872
0.000999872
0.000999872
0.000999871
0.000999871
0.000999871
0.000999871
0.000999871
0.000999871
0.000999871
0.00099987
0.00099987
0.00099987
0.00099987
0.00099987
0.000999871
0.000999871
0.00099987
0.000999873
0.000999871
0.000999877
0.000999877
0.000999918
0.000999926
0.000999955
0.00100019
0.00100016
0.000999931
0.000999922
0.000999901
0.0009999
0.000999877
0.000999875
0.000999869
0.000999867
0.00099987
0.000999872
0.000999873
0.000999874
0.000999871
0.00099987
0.000999871
0.00099987
0.000999869
0.000999868
0.000999869
0.000999869
0.000999869
0.000999869
0.000999871
0.000999871
0.000999871
0.000999871
0.00099987
0.00099987
0.00099987
0.000999871
0.000999874
0.000999876
0.000999877
0.000999876
0.000999874
0.000999872
0.00099987
0.00099987
0.00099987
0.000999871
0.000999871
0.000999872
0.000999872
0.000999872
0.000999872
0.000999872
0.000999872
0.000999872
0.000999872
0.000999873
0.000999874
0.000999875
0.000999876
0.000999875
0.000999874
0.000999873
0.000999873
0.000999873
0.000999873
0.000999873
0.000999873
0.000999874
0.000999875
0.000999874
0.000999876
0.000999878
0.000999876
0.000999874
0.000999874
0.000999874
0.000999874
0.000999873
0.000999873
0.000999873
0.000999875
0.000999873
0.000999875
0.000999878
0.000999874
0.000999886
0.000999877
0.000999874
0.000999877
0.000999901
0.000999878
0.000999873
0.000999876
0.000999875
0.000999873
0.000999875
0.000999938
0.000999903
0.00254889
0.00183775
0.00132143
0.00123033
0.00121067
0.0012101
0.00120769
0.00120588
0.00120429
0.00120564
0.00120595
0.00120393
0.00120221
0.00120188
0.00120322