/*--------------------------------*- C++ -*----------------------------------*\
| =========                 |                                                 |
| \\      /  F ield         | OpenFOAM: The Open Source CFD Toolbox           |
|  \\    /   O peration     | Version:  v2006                                 |
|   \\  /    A nd           | Website:  www.openfoam.com                      |
|    \\/     M anipulation  |                                                 |
\*---------------------------------------------------------------------------*/
FoamFile
{
    version     2.0;
    format      ascii;
    class       volScalarField;
    location    "1.8";
    object      p;
}
// * * * * * * * * * * * * * * * * * * * * * * * * * * * * * * * * * * * * * //

dimensions      [1 -1 -2 0 0 0 0];


internalField   nonuniform List<scalar> 
33000
(
7473.38
7477.48
7480.67
7483.93
7487.21
7490.52
7493.86
7497.22
7500.61
7504.01
7507.43
7510.85
7514.29
7517.73
7521.17
7524.61
7528.04
7531.47
7534.88
7538.29
7541.68
7545.06
7548.42
7551.76
7555.06
7558.35
7561.61
7564.84
7568.03
7571.18
7574.3
7577.38
7580.41
7583.4
7586.34
7589.24
7592.09
7594.9
7597.65
7600.34
7602.99
7605.57
7608.11
7610.57
7612.97
7615.32
7617.61
7619.85
7622.02
7624.13
7626.18
7628.17
7630.09
7631.95
7633.75
7635.48
7637.15
7638.76
7640.31
7641.8
7643.23
7644.61
7645.92
7647.17
7648.36
7649.51
7650.59
7651.62
7652.59
7653.51
7654.37
7655.18
7655.93
7656.63
7657.28
7657.86
7658.38
7658.82
7659.27
7659.83
7660.36
7660.76
7661.19
7661.58
7661.91
7662.18
7662.43
7662.62
7662.78
7662.89
7662.98
7663.03
7663.05
7663.03
7662.98
7662.9
7662.78
7662.66
7662.48
7662.29
7662.1
7661.86
7661.62
7661.35
7661.06
7660.76
7660.46
7660.13
7659.8
7659.45
7659.09
7658.73
7658.36
7657.99
7657.6
7657.23
7656.8
7656.42
7656.08
7655.7
7655.34
7654.98
7654.63
7654.29
7653.97
7653.66
7653.37
7653.09
7652.82
7652.58
7652.35
7652.14
7651.96
7651.79
7651.65
7651.53
7651.43
7651.35
7651.3
7651.28
7651.27
7651.3
7651.34
7651.42
7651.51
7651.64
7651.79
7651.96
7652.15
7652.38
7652.62
7652.89
7653.19
7653.51
7653.85
7654.22
7654.61
7655.03
7655.46
7655.92
7656.4
7656.91
7657.43
7657.97
7658.53
7659.11
7659.71
7660.32
7660.95
7661.59
7662.24
7662.91
7663.59
7664.28
7664.98
7665.69
7666.41
7667.14
7667.87
7668.61
7669.36
7670.12
7670.88
7671.65
7672.42
7673.2
7673.98
7674.76
7675.55
7676.35
7677.14
7677.94
7678.75
7679.55
7680.36
7681.17
7681.97
7682.78
7683.59
7684.4
7685.21
7686.02
7686.82
7687.63
7688.43
7689.23
7690.03
7690.82
7691.61
7692.39
7693.17
7693.95
7694.71
7695.48
7696.23
7696.98
7697.73
7698.46
7699.2
7699.92
7700.64
7701.35
7702.05
7702.75
7703.43
7704.12
7704.79
7705.46
7706.12
7706.77
7707.41
7708.05
7708.68
7709.3
7709.91
7710.52
7711.12
7711.71
7712.29
7712.87
7713.43
7713.99
7714.54
7715.08
7715.62
7716.15
7716.66
7717.17
7717.68
7718.17
7718.66
7719.14
7719.61
7720.07
7720.52
7720.97
7721.41
7721.85
7722.27
7722.69
7723.1
7723.5
7723.9
7724.29
7724.67
7725.04
7725.41
7725.77
7726.13
7726.47
7726.81
7727.15
7727.47
7727.79
7728.11
7728.42
7728.72
7729.01
7729.3
7729.59
7729.87
7730.14
7730.41
7730.67
7730.92
7731.18
7731.42
7731.66
7731.9
7732.13
7732.36
7732.58
7732.8
7733.01
7733.22
7733.43
7733.63
7733.82
7734.01
7734.2
7734.39
7734.57
7734.74
7734.92
7735.09
7735.25
7735.41
7735.57
7735.73
7735.88
7736.03
7736.18
7736.32
7736.46
7736.6
7736.73
7736.86
7736.99
7737.12
7737.24
7737.36
7737.48
7737.59
7737.71
7737.82
7737.92
7738.03
7738.13
7738.23
7738.33
7738.43
7738.53
7738.62
7738.71
7738.8
7738.89
7738.97
7739.05
7739.13
7739.21
7739.29
7739.37
7739.44
7739.52
7739.59
7739.66
7739.73
7739.79
7739.86
7739.92
7739.98
7740.05
7740.1
7740.16
7740.22
7740.28
7740.33
7740.38
7740.43
7740.49
7740.53
7740.58
7740.63
7740.68
7740.72
7740.77
7740.81
7740.85
7740.89
7740.93
7740.97
7741.01
7741.05
7741.08
7741.12
7741.15
7741.18
7741.22
7741.25
7741.28
7741.31
7741.34
7741.37
7741.4
7741.42
7741.45
7741.48
7741.5
7741.53
7741.55
7741.57
7741.59
7741.62
7741.64
7741.66
7741.68
7741.7
7741.72
7741.73
7741.75
7741.77
7741.79
7741.8
7741.82
7741.83
7741.85
7741.86
7741.87
7741.89
7741.9
7741.91
7741.92
7741.94
7741.95
7741.96
7741.97
7741.98
7741.99
7742
7742
7742.01
7742.02
7742.03
7742.04
7742.04
7742.05
7742.06
7742.06
7742.07
7742.07
7742.08
7742.09
7742.09
7742.1
7742.1
7742.1
7742.11
7742.11
7742.12
7742.12
7742.12
7742.13
7742.13
7742.13
7742.13
7742.14
7742.14
7742.14
7742.14
7742.14
7742.14
7742.15
7742.15
7742.15
7742.15
7742.15
7742.15
7742.15
7742.15
7742.15
7742.15
7742.15
7742.15
7742.15
7742.15
7742.15
7742.15
7742.16
7742.16
7742.16
7742.16
7742.16
7742.16
7742.16
7742.16
7742.16
7742.16
7742.16
7742.16
7742.15
7742.15
7742.15
7742.15
7742.15
7742.15
7742.15
7742.15
7742.15
7742.15
7742.15
7742.15
7742.15
7742.15
7742.15
7742.15
7742.15
7742.15
7742.14
7742.14
7742.14
7742.14
7742.14
7742.14
7742.14
7742.14
7742.14
7742.14
7742.14
7742.14
7742.14
7742.14
7742.14
7742.13
7742.13
7742.13
7742.13
7742.13
7742.13
7742.13
7742.13
7742.13
7742.13
7742.12
7742.12
7742.12
7742.12
7742.12
7742.12
7742.12
7742.12
7742.12
7742.11
7742.11
7742.11
7742.11
7742.11
7742.11
7742.11
7742.11
7742.1
7742.1
7742.1
7742.1
7742.1
7742.1
7742.1
7742.09
7742.09
7742.09
7742.09
7277.12
7281.2
7284.4
7287.65
7290.93
7294.24
7297.58
7300.95
7304.34
7307.75
7311.18
7314.62
7318.07
7321.52
7324.98
7328.44
7331.89
7335.34
7338.78
7342.21
7345.62
7349.01
7352.39
7355.74
7359.06
7362.36
7365.63
7368.86
7372.06
7375.22
7378.35
7381.43
7384.48
7387.48
7390.43
7393.32
7396.17
7398.97
7401.72
7404.42
7407.06
7409.64
7412.17
7414.64
7417.05
7419.39
7421.68
7423.91
7426.08
7428.19
7430.24
7432.23
7434.14
7436
7437.8
7439.53
7441.2
7442.8
7444.34
7445.83
7447.25
7448.62
7449.92
7451.16
7452.35
7453.49
7454.57
7455.59
7456.56
7457.47
7458.33
7459.14
7459.9
7460.6
7461.25
7461.85
7462.39
7462.91
7463.41
7463.89
7464.3
7464.69
7465.09
7465.54
7465.8
7466.12
7466.37
7466.57
7466.74
7466.83
7466.92
7466.96
7466.97
7466.95
7466.89
7466.81
7466.7
7466.56
7466.39
7466.19
7465.99
7465.72
7465.47
7465.24
7464.95
7464.66
7464.33
7464
7463.65
7463.3
7462.95
7462.59
7462.22
7461.84
7461.46
7461.07
7460.68
7460.28
7459.91
7459.47
7459.11
7458.8
7458.45
7458.12
7457.79
7457.46
7457.16
7456.88
7456.62
7456.37
7456.14
7455.93
7455.74
7455.58
7455.43
7455.31
7455.21
7455.14
7455.08
7455.06
7455.05
7455.08
7455.12
7455.2
7455.29
7455.42
7455.56
7455.74
7455.93
7456.15
7456.4
7456.67
7456.96
7457.28
7457.63
7457.99
7458.39
7458.8
7459.24
7459.7
7460.18
7460.68
7461.21
7461.75
7462.31
7462.89
7463.49
7464.1
7464.73
7465.37
7466.03
7466.69
7467.37
7468.06
7468.77
7469.48
7470.2
7470.93
7471.66
7472.4
7473.15
7473.91
7474.67
7475.44
7476.21
7476.99
7477.77
7478.56
7479.35
7480.15
7480.94
7481.74
7482.55
7483.35
7484.16
7484.97
7485.78
7486.59
7487.4
7488.21
7489.02
7489.82
7490.63
7491.44
7492.24
7493.04
7493.84
7494.63
7495.42
7496.2
7496.98
7497.76
7498.53
7499.29
7500.05
7500.8
7501.54
7502.28
7503.01
7503.74
7504.45
7505.16
7505.87
7506.56
7507.25
7507.93
7508.61
7509.27
7509.93
7510.59
7511.23
7511.87
7512.5
7513.12
7513.73
7514.34
7514.94
7515.53
7516.11
7516.68
7517.25
7517.81
7518.36
7518.9
7519.44
7519.96
7520.48
7520.99
7521.49
7521.99
7522.47
7522.95
7523.42
7523.89
7524.34
7524.79
7525.23
7525.66
7526.09
7526.51
7526.92
7527.32
7527.72
7528.1
7528.49
7528.86
7529.23
7529.59
7529.94
7530.29
7530.63
7530.96
7531.29
7531.61
7531.92
7532.23
7532.53
7532.83
7533.12
7533.4
7533.68
7533.95
7534.22
7534.48
7534.74
7534.99
7535.23
7535.48
7535.71
7535.94
7536.17
7536.39
7536.61
7536.82
7537.03
7537.24
7537.44
7537.63
7537.82
7538.01
7538.2
7538.38
7538.55
7538.73
7538.89
7539.06
7539.22
7539.38
7539.54
7539.69
7539.84
7539.98
7540.13
7540.27
7540.4
7540.54
7540.67
7540.8
7540.92
7541.04
7541.16
7541.28
7541.4
7541.51
7541.62
7541.73
7541.83
7541.94
7542.04
7542.14
7542.24
7542.33
7542.42
7542.51
7542.6
7542.69
7542.77
7542.86
7542.94
7543.02
7543.1
7543.17
7543.25
7543.32
7543.39
7543.46
7543.53
7543.6
7543.66
7543.72
7543.79
7543.85
7543.91
7543.97
7544.02
7544.08
7544.13
7544.19
7544.24
7544.29
7544.34
7544.39
7544.43
7544.48
7544.52
7544.57
7544.61
7544.65
7544.69
7544.73
7544.77
7544.81
7544.85
7544.88
7544.92
7544.95
7544.99
7545.02
7545.05
7545.08
7545.11
7545.14
7545.17
7545.2
7545.23
7545.25
7545.28
7545.3
7545.33
7545.35
7545.37
7545.4
7545.42
7545.44
7545.46
7545.48
7545.5
7545.52
7545.54
7545.55
7545.57
7545.59
7545.6
7545.62
7545.63
7545.65
7545.66
7545.67
7545.69
7545.7
7545.71
7545.72
7545.74
7545.75
7545.76
7545.77
7545.78
7545.79
7545.8
7545.81
7545.81
7545.82
7545.83
7545.84
7545.84
7545.85
7545.86
7545.86
7545.87
7545.88
7545.88
7545.89
7545.89
7545.9
7545.9
7545.9
7545.91
7545.91
7545.92
7545.92
7545.92
7545.93
7545.93
7545.93
7545.93
7545.94
7545.94
7545.94
7545.94
7545.94
7545.95
7545.95
7545.95
7545.95
7545.95
7545.95
7545.95
7545.95
7545.95
7545.95
7545.95
7545.95
7545.95
7545.96
7545.96
7545.95
7545.95
7545.95
7545.95
7545.95
7545.95
7545.95
7545.95
7545.95
7545.95
7545.95
7545.95
7545.95
7545.95
7545.95
7545.95
7545.95
7545.95
7545.95
7545.95
7545.95
7545.95
7545.95
7545.95
7545.95
7545.95
7545.95
7545.95
7545.95
7545.95
7545.95
7545.95
7545.94
7545.94
7545.94
7545.94
7545.94
7545.94
7545.94
7545.94
7545.94
7545.94
7545.94
7545.94
7545.94
7545.94
7545.93
7545.93
7545.93
7545.93
7545.93
7545.93
7545.93
7545.93
7545.93
7545.93
7545.93
7545.92
7545.92
7545.92
7545.92
7545.92
7545.92
7545.92
7545.92
7545.92
7545.91
7545.91
7545.91
7545.91
7545.91
7545.91
7545.91
7545.91
7545.9
7545.9
7545.9
7545.9
7545.9
7545.9
7545.9
7545.9
7545.89
7545.89
7545.89
7080.59
7084.71
7087.93
7091.22
7094.53
7097.88
7101.25
7104.64
7108.06
7111.49
7114.94
7118.4
7121.86
7125.33
7128.81
7132.28
7135.75
7139.21
7142.66
7146.11
7149.53
7152.94
7156.32
7159.69
7163.04
7166.35
7169.64
7172.88
7176.1
7179.28
7182.42
7185.52
7188.58
7191.59
7194.55
7197.45
7200.3
7203.11
7205.87
7208.57
7211.22
7213.81
7216.34
7218.82
7221.24
7223.6
7225.89
7228.13
7230.3
7232.41
7234.46
7236.44
7238.37
7240.22
7242.02
7243.75
7245.42
7247.02
7248.56
7250.04
7251.45
7252.8
7254.1
7255.34
7256.52
7257.65
7258.72
7259.74
7260.71
7261.62
7262.47
7263.27
7264.02
7264.72
7265.37
7265.98
7266.53
7267.06
7267.54
7268
7268.43
7268.86
7269.26
7269.59
7269.9
7270.14
7270.47
7270.58
7270.72
7270.85
7270.96
7270.99
7270.97
7270.96
7270.89
7270.8
7270.68
7270.53
7270.36
7270.16
7269.94
7269.71
7269.43
7269.16
7268.82
7268.52
7268.23
7267.9
7267.57
7267.21
7266.84
7266.46
7266.08
7265.7
7265.3
7264.92
7264.53
7264.14
7263.75
7263.37
7262.98
7262.61
7262.18
7261.83
7261.56
7261.24
7260.94
7260.65
7260.37
7260.11
7259.89
7259.67
7259.49
7259.32
7259.17
7259.04
7258.94
7258.86
7258.81
7258.78
7258.78
7258.8
7258.84
7258.91
7259.01
7259.13
7259.28
7259.45
7259.65
7259.87
7260.11
7260.38
7260.68
7261
7261.34
7261.71
7262.1
7262.52
7262.96
7263.42
7263.9
7264.4
7264.93
7265.47
7266.04
7266.62
7267.22
7267.83
7268.46
7269.1
7269.76
7270.43
7271.11
7271.81
7272.51
7273.22
7273.95
7274.68
7275.41
7276.16
7276.91
7277.67
7278.43
7279.2
7279.98
7280.76
7281.54
7282.33
7283.12
7283.92
7284.72
7285.52
7286.33
7287.13
7287.94
7288.75
7289.57
7290.38
7291.19
7292
7292.81
7293.62
7294.43
7295.24
7296.04
7296.85
7297.64
7298.44
7299.23
7300.02
7300.8
7301.57
7302.34
7303.11
7303.87
7304.62
7305.36
7306.1
7306.84
7307.56
7308.28
7308.99
7309.69
7310.39
7311.08
7311.76
7312.44
7313.1
7313.77
7314.42
7315.06
7315.7
7316.33
7316.95
7317.57
7318.17
7318.77
7319.36
7319.95
7320.52
7321.09
7321.65
7322.2
7322.74
7323.27
7323.8
7324.32
7324.83
7325.33
7325.83
7326.31
7326.79
7327.26
7327.73
7328.18
7328.63
7329.07
7329.5
7329.93
7330.34
7330.75
7331.16
7331.55
7331.94
7332.32
7332.69
7333.06
7333.42
7333.77
7334.12
7334.46
7334.79
7335.12
7335.44
7335.75
7336.06
7336.36
7336.66
7336.95
7337.23
7337.51
7337.78
7338.05
7338.31
7338.56
7338.82
7339.06
7339.3
7339.54
7339.77
7340
7340.22
7340.43
7340.65
7340.85
7341.06
7341.26
7341.45
7341.65
7341.83
7342.02
7342.2
7342.37
7342.54
7342.71
7342.88
7343.04
7343.2
7343.35
7343.51
7343.65
7343.8
7343.94
7344.08
7344.22
7344.35
7344.48
7344.61
7344.74
7344.86
7344.98
7345.1
7345.21
7345.32
7345.43
7345.54
7345.65
7345.75
7345.85
7345.95
7346.05
7346.14
7346.23
7346.32
7346.41
7346.5
7346.58
7346.67
7346.75
7346.83
7346.9
7346.98
7347.06
7347.13
7347.2
7347.27
7347.34
7347.4
7347.47
7347.53
7347.59
7347.65
7347.71
7347.77
7347.83
7347.88
7347.94
7347.99
7348.04
7348.09
7348.14
7348.19
7348.24
7348.28
7348.33
7348.37
7348.42
7348.46
7348.5
7348.54
7348.58
7348.61
7348.65
7348.69
7348.72
7348.76
7348.79
7348.82
7348.86
7348.89
7348.92
7348.95
7348.97
7349
7349.03
7349.06
7349.08
7349.11
7349.13
7349.15
7349.18
7349.2
7349.22
7349.24
7349.26
7349.28
7349.3
7349.32
7349.34
7349.36
7349.37
7349.39
7349.4
7349.42
7349.44
7349.45
7349.46
7349.48
7349.49
7349.5
7349.52
7349.53
7349.54
7349.55
7349.56
7349.57
7349.58
7349.59
7349.6
7349.61
7349.62
7349.62
7349.63
7349.64
7349.65
7349.65
7349.66
7349.67
7349.67
7349.68
7349.68
7349.69
7349.69
7349.7
7349.7
7349.71
7349.71
7349.71
7349.72
7349.72
7349.72
7349.73
7349.73
7349.73
7349.73
7349.74
7349.74
7349.74
7349.74
7349.74
7349.75
7349.75
7349.75
7349.75
7349.75
7349.75
7349.75
7349.75
7349.75
7349.75
7349.75
7349.76
7349.76
7349.76
7349.76
7349.76
7349.76
7349.76
7349.76
7349.76
7349.76
7349.76
7349.76
7349.76
7349.76
7349.76
7349.75
7349.75
7349.75
7349.75
7349.75
7349.75
7349.75
7349.75
7349.75
7349.75
7349.75
7349.75
7349.75
7349.75
7349.75
7349.75
7349.75
7349.75
7349.75
7349.75
7349.75
7349.74
7349.74
7349.74
7349.74
7349.74
7349.74
7349.74
7349.74
7349.74
7349.74
7349.74
7349.74
7349.74
7349.74
7349.73
7349.73
7349.73
7349.73
7349.73
7349.73
7349.73
7349.73
7349.73
7349.73
7349.72
7349.72
7349.72
7349.72
7349.72
7349.72
7349.72
7349.72
7349.72
7349.71
7349.71
7349.71
7349.71
7349.71
7349.71
7349.71
7349.71
7349.71
7349.7
7349.7
7349.7
7349.7
7349.7
7349.7
7349.7
7349.69
7349.69
7349.69
7349.69
6884.02
6888.17
6891.42
6894.73
6898.07
6901.43
6904.83
6908.24
6911.69
6915.14
6918.62
6922.11
6925.6
6929.1
6932.6
6936.11
6939.6
6943.09
6946.57
6950.04
6953.49
6956.92
6960.34
6963.73
6967.09
6970.43
6973.73
6977
6980.24
6983.44
6986.59
6989.7
6992.77
6995.79
6998.76
7001.68
7004.55
7007.36
7010.11
7012.82
7015.48
7018.07
7020.61
7023.09
7025.52
7027.88
7030.19
7032.43
7034.6
7036.72
7038.77
7040.76
7042.69
7044.55
7046.35
7048.08
7049.75
7051.36
7052.9
7054.38
7055.79
7057.14
7058.44
7059.67
7060.85
7061.97
7063.03
7064.04
7065
7065.9
7066.75
7067.54
7068.28
7068.97
7069.62
7070.22
7070.78
7071.3
7071.78
7072.22
7072.64
7073.03
7073.38
7073.71
7074.04
7074.34
7074.6
7074.82
7074.96
7074.96
7075.1
7075.04
7075.06
7075.05
7074.97
7074.85
7074.73
7074.57
7074.38
7074.18
7073.94
7073.69
7073.42
7073.14
7072.83
7072.51
7072.15
7071.81
7071.4
7071.04
7070.71
7070.33
7069.96
7069.56
7069.15
7068.75
7068.36
7067.96
7067.57
7067.17
7066.79
7066.42
7066.05
7065.67
7065.32
7064.9
7064.59
7064.37
7064.09
7063.84
7063.6
7063.37
7063.17
7063
7062.85
7062.73
7062.62
7062.54
7062.48
7062.45
7062.44
7062.46
7062.51
7062.58
7062.68
7062.8
7062.94
7063.11
7063.31
7063.53
7063.78
7064.05
7064.34
7064.66
7065.01
7065.38
7065.77
7066.19
7066.63
7067.09
7067.58
7068.08
7068.61
7069.15
7069.72
7070.3
7070.9
7071.52
7072.15
7072.8
7073.46
7074.13
7074.82
7075.52
7076.22
7076.94
7077.66
7078.4
7079.14
7079.88
7080.64
7081.4
7082.17
7082.94
7083.72
7084.5
7085.29
7086.08
7086.88
7087.68
7088.48
7089.28
7090.09
7090.9
7091.71
7092.53
7093.34
7094.16
7094.97
7095.79
7096.6
7097.41
7098.22
7099.03
7099.84
7100.65
7101.45
7102.24
7103.04
7103.83
7104.61
7105.39
7106.16
7106.93
7107.69
7108.44
7109.19
7109.93
7110.66
7111.39
7112.11
7112.83
7113.53
7114.23
7114.92
7115.6
7116.28
7116.95
7117.61
7118.27
7118.91
7119.55
7120.18
7120.81
7121.42
7122.03
7122.63
7123.22
7123.8
7124.38
7124.94
7125.5
7126.05
7126.6
7127.13
7127.66
7128.18
7128.69
7129.19
7129.68
7130.17
7130.65
7131.12
7131.58
7132.04
7132.48
7132.92
7133.35
7133.78
7134.2
7134.61
7135.01
7135.4
7135.79
7136.17
7136.54
7136.91
7137.27
7137.62
7137.97
7138.31
7138.64
7138.97
7139.29
7139.6
7139.91
7140.21
7140.5
7140.79
7141.07
7141.35
7141.62
7141.89
7142.15
7142.4
7142.65
7142.9
7143.14
7143.38
7143.61
7143.83
7144.05
7144.27
7144.48
7144.69
7144.89
7145.09
7145.29
7145.48
7145.66
7145.85
7146.03
7146.2
7146.37
7146.54
7146.71
7146.87
7147.03
7147.18
7147.33
7147.48
7147.62
7147.77
7147.91
7148.04
7148.17
7148.3
7148.43
7148.56
7148.68
7148.8
7148.92
7149.03
7149.14
7149.25
7149.36
7149.46
7149.57
7149.67
7149.77
7149.86
7149.96
7150.05
7150.14
7150.23
7150.31
7150.4
7150.48
7150.56
7150.64
7150.72
7150.79
7150.87
7150.94
7151.01
7151.08
7151.15
7151.21
7151.28
7151.34
7151.4
7151.46
7151.52
7151.58
7151.64
7151.69
7151.75
7151.8
7151.85
7151.9
7151.95
7152
7152.05
7152.09
7152.14
7152.18
7152.22
7152.26
7152.31
7152.35
7152.38
7152.42
7152.46
7152.49
7152.53
7152.56
7152.6
7152.63
7152.66
7152.69
7152.72
7152.75
7152.78
7152.81
7152.83
7152.86
7152.89
7152.91
7152.94
7152.96
7152.98
7153
7153.03
7153.05
7153.07
7153.09
7153.11
7153.12
7153.14
7153.16
7153.18
7153.19
7153.21
7153.22
7153.24
7153.25
7153.27
7153.28
7153.29
7153.31
7153.32
7153.33
7153.34
7153.35
7153.36
7153.37
7153.38
7153.39
7153.4
7153.41
7153.42
7153.43
7153.43
7153.44
7153.45
7153.45
7153.46
7153.47
7153.47
7153.48
7153.48
7153.49
7153.49
7153.5
7153.5
7153.51
7153.51
7153.51
7153.52
7153.52
7153.52
7153.53
7153.53
7153.53
7153.54
7153.54
7153.54
7153.54
7153.54
7153.55
7153.55
7153.55
7153.55
7153.55
7153.55
7153.55
7153.55
7153.55
7153.55
7153.55
7153.55
7153.55
7153.55
7153.55
7153.55
7153.55
7153.55
7153.55
7153.55
7153.55
7153.55
7153.55
7153.55
7153.55
7153.55
7153.55
7153.55
7153.55
7153.55
7153.55
7153.55
7153.55
7153.55
7153.55
7153.55
7153.55
7153.55
7153.55
7153.55
7153.55
7153.55
7153.55
7153.55
7153.55
7153.55
7153.55
7153.55
7153.54
7153.54
7153.54
7153.54
7153.54
7153.54
7153.54
7153.54
7153.54
7153.54
7153.54
7153.54
7153.54
7153.54
7153.53
7153.53
7153.53
7153.53
7153.53
7153.53
7153.53
7153.53
7153.53
7153.53
7153.53
7153.52
7153.52
7153.52
7153.52
7153.52
7153.52
7153.52
7153.52
7153.52
7153.51
7153.51
7153.51
7153.51
7153.51
7153.51
7153.51
7153.51
7153.5
7153.5
7153.5
7153.5
7153.5
7153.5
7153.5
7153.49
7153.49
7153.49
7153.49
6687.29
6691.49
6694.78
6698.13
6701.49
6704.89
6708.31
6711.76
6715.24
6718.73
6722.23
6725.75
6729.28
6732.81
6736.34
6739.87
6743.4
6746.92
6750.43
6753.93
6757.41
6760.87
6764.31
6767.72
6771.11
6774.48
6777.8
6781.1
6784.36
6787.57
6790.75
6793.88
6796.96
6800
6802.99
6805.93
6808.81
6811.64
6814.41
6817.13
6819.79
6822.39
6824.94
6827.43
6829.87
6832.24
6834.55
6836.8
6838.99
6841.12
6843.18
6845.18
6847.11
6848.98
6850.79
6852.53
6854.21
6855.83
6857.37
6858.85
6860.27
6861.62
6862.91
6864.14
6865.31
6866.43
6867.48
6868.48
6869.42
6870.31
6871.15
6871.93
6872.66
6873.34
6873.97
6874.57
6875.12
6875.63
6876.1
6876.53
6876.94
6877.3
6877.64
6877.94
6878.21
6878.46
6878.67
6878.86
6879.04
6879.2
6879.32
6879.37
6879.21
6879.24
6879.07
6878.98
6878.86
6878.67
6878.46
6878.24
6877.99
6877.72
6877.44
6877.13
6876.81
6876.48
6876.14
6875.77
6875.41
6875
6874.61
6874.16
6873.76
6873.41
6873
6872.6
6872.18
6871.77
6871.36
6870.97
6870.58
6870.19
6869.81
6869.44
6869.09
6868.75
6868.39
6868.08
6867.69
6867.42
6867.26
6867.03
6866.85
6866.66
6866.49
6866.34
6866.23
6866.16
6866.1
6866.07
6866.06
6866.08
6866.12
6866.19
6866.29
6866.41
6866.55
6866.72
6866.92
6867.14
6867.39
6867.66
6867.95
6868.28
6868.62
6868.99
6869.39
6869.81
6870.25
6870.72
6871.21
6871.71
6872.24
6872.79
6873.36
6873.95
6874.55
6875.17
6875.81
6876.46
6877.12
6877.8
6878.49
6879.19
6879.9
6880.62
6881.35
6882.08
6882.83
6883.58
6884.34
6885.1
6885.88
6886.65
6887.43
6888.22
6889.01
6889.81
6890.61
6891.41
6892.22
6893.03
6893.84
6894.65
6895.47
6896.29
6897.11
6897.93
6898.74
6899.56
6900.38
6901.2
6902.01
6902.82
6903.63
6904.44
6905.24
6906.05
6906.84
6907.63
6908.42
6909.2
6909.98
6910.75
6911.51
6912.27
6913.02
6913.76
6914.5
6915.23
6915.95
6916.67
6917.38
6918.08
6918.77
6919.46
6920.13
6920.81
6921.47
6922.12
6922.77
6923.41
6924.04
6924.67
6925.28
6925.89
6926.49
6927.08
6927.67
6928.24
6928.81
6929.37
6929.92
6930.46
6931
6931.53
6932.04
6932.56
6933.06
6933.55
6934.04
6934.52
6934.99
6935.45
6935.9
6936.35
6936.79
6937.22
6937.65
6938.06
6938.47
6938.87
6939.27
6939.66
6940.04
6940.41
6940.77
6941.13
6941.48
6941.83
6942.17
6942.5
6942.83
6943.14
6943.46
6943.76
6944.06
6944.36
6944.65
6944.93
6945.2
6945.48
6945.74
6946
6946.26
6946.51
6946.75
6946.99
6947.22
6947.45
6947.68
6947.9
6948.11
6948.33
6948.53
6948.73
6948.93
6949.13
6949.32
6949.5
6949.69
6949.87
6950.04
6950.21
6950.38
6950.54
6950.7
6950.86
6951.01
6951.16
6951.31
6951.46
6951.6
6951.74
6951.87
6952
6952.13
6952.26
6952.38
6952.51
6952.63
6952.74
6952.86
6952.97
6953.08
6953.18
6953.29
6953.39
6953.49
6953.59
6953.68
6953.78
6953.87
6953.96
6954.05
6954.13
6954.22
6954.3
6954.38
6954.46
6954.53
6954.61
6954.68
6954.76
6954.83
6954.9
6954.96
6955.03
6955.09
6955.16
6955.22
6955.28
6955.34
6955.39
6955.45
6955.51
6955.56
6955.61
6955.66
6955.71
6955.76
6955.81
6955.86
6955.9
6955.95
6955.99
6956.03
6956.07
6956.11
6956.15
6956.19
6956.23
6956.27
6956.3
6956.34
6956.37
6956.41
6956.44
6956.47
6956.5
6956.53
6956.56
6956.59
6956.61
6956.64
6956.67
6956.69
6956.72
6956.74
6956.77
6956.79
6956.81
6956.83
6956.85
6956.87
6956.89
6956.91
6956.93
6956.95
6956.96
6956.98
6957
6957.01
6957.03
6957.04
6957.06
6957.07
6957.08
6957.1
6957.11
6957.12
6957.13
6957.15
6957.16
6957.17
6957.18
6957.19
6957.2
6957.2
6957.21
6957.22
6957.23
6957.24
6957.24
6957.25
6957.26
6957.26
6957.27
6957.28
6957.28
6957.29
6957.29
6957.3
6957.3
6957.31
6957.31
6957.31
6957.32
6957.32
6957.32
6957.33
6957.33
6957.33
6957.33
6957.34
6957.34
6957.34
6957.34
6957.35
6957.35
6957.35
6957.35
6957.35
6957.35
6957.35
6957.35
6957.35
6957.35
6957.36
6957.36
6957.36
6957.36
6957.36
6957.36
6957.36
6957.36
6957.36
6957.36
6957.36
6957.36
6957.36
6957.36
6957.36
6957.36
6957.36
6957.36
6957.36
6957.35
6957.35
6957.35
6957.35
6957.35
6957.35
6957.35
6957.35
6957.35
6957.35
6957.35
6957.35
6957.35
6957.35
6957.35
6957.35
6957.35
6957.35
6957.35
6957.35
6957.35
6957.34
6957.34
6957.34
6957.34
6957.34
6957.34
6957.34
6957.34
6957.34
6957.34
6957.34
6957.34
6957.34
6957.33
6957.33
6957.33
6957.33
6957.33
6957.33
6957.33
6957.33
6957.33
6957.33
6957.32
6957.32
6957.32
6957.32
6957.32
6957.32
6957.32
6957.32
6957.32
6957.31
6957.31
6957.31
6957.31
6957.31
6957.31
6957.31
6957.31
6957.3
6957.3
6957.3
6957.3
6957.3
6957.3
6957.3
6957.3
6957.29
6957.29
6957.29
6957.29
6490.42
6494.69
6498.03
6501.42
6504.82
6508.26
6511.73
6515.22
6518.73
6522.27
6525.81
6529.37
6532.94
6536.51
6540.09
6543.66
6547.23
6550.78
6554.33
6557.86
6561.37
6564.87
6568.34
6571.78
6575.2
6578.59
6581.95
6585.27
6588.55
6591.79
6594.99
6598.15
6601.26
6604.32
6607.33
6610.29
6613.2
6616.06
6618.85
6621.58
6624.26
6626.88
6629.44
6631.94
6634.38
6636.77
6639.1
6641.36
6643.55
6645.68
6647.75
6649.75
6651.69
6653.57
6655.38
6657.12
6658.81
6660.42
6661.97
6663.45
6664.87
6666.22
6667.5
6668.73
6669.89
6671
6672.04
6673.03
6673.96
6674.84
6675.67
6676.44
6677.15
6677.82
6678.44
6679.01
6679.55
6680.04
6680.5
6680.92
6681.3
6681.65
6681.96
6682.23
6682.47
6682.69
6682.87
6683.02
6683.14
6683.24
6683.31
6683.39
6683.46
6683.48
6683.43
6683.12
6683.05
6682.78
6682.58
6682.37
6682.08
6681.79
6681.49
6681.17
6680.83
6680.49
6680.11
6679.74
6679.35
6678.95
6678.55
6678.15
6677.7
6677.27
6676.78
6676.36
6676.01
6675.58
6675.18
6674.76
6674.34
6673.95
6673.56
6673.18
6672.82
6672.46
6672.12
6671.8
6671.49
6671.18
6670.91
6670.56
6670.34
6670.24
6670.08
6669.95
6669.84
6669.74
6669.66
6669.62
6669.62
6669.63
6669.68
6669.75
6669.84
6669.96
6670.1
6670.27
6670.47
6670.69
6670.94
6671.21
6671.51
6671.84
6672.19
6672.56
6672.96
6673.38
6673.83
6674.29
6674.79
6675.3
6675.83
6676.38
6676.96
6677.55
6678.16
6678.78
6679.42
6680.08
6680.74
6681.43
6682.12
6682.82
6683.54
6684.26
6685
6685.74
6686.49
6687.25
6688.01
6688.78
6689.56
6690.34
6691.13
6691.92
6692.72
6693.52
6694.32
6695.13
6695.94
6696.76
6697.58
6698.4
6699.22
6700.04
6700.86
6701.69
6702.51
6703.33
6704.16
6704.98
6705.8
6706.61
6707.43
6708.24
6709.05
6709.85
6710.65
6711.45
6712.24
6713.02
6713.8
6714.57
6715.34
6716.1
6716.86
6717.6
6718.34
6719.08
6719.8
6720.52
6721.23
6721.94
6722.63
6723.32
6724
6724.68
6725.34
6726
6726.65
6727.29
6727.92
6728.55
6729.16
6729.77
6730.37
6730.97
6731.55
6732.13
6732.7
6733.26
6733.81
6734.35
6734.89
6735.41
6735.93
6736.44
6736.95
6737.44
6737.93
6738.41
6738.88
6739.34
6739.79
6740.24
6740.68
6741.11
6741.53
6741.95
6742.36
6742.76
6743.15
6743.54
6743.92
6744.29
6744.65
6745.01
6745.36
6745.71
6746.05
6746.38
6746.7
6747.02
6747.33
6747.64
6747.94
6748.23
6748.52
6748.8
6749.07
6749.34
6749.61
6749.87
6750.12
6750.37
6750.61
6750.85
6751.08
6751.31
6751.54
6751.76
6751.97
6752.18
6752.39
6752.59
6752.79
6752.98
6753.17
6753.36
6753.54
6753.71
6753.89
6754.06
6754.23
6754.39
6754.55
6754.7
6754.86
6755.01
6755.15
6755.3
6755.44
6755.58
6755.71
6755.84
6755.97
6756.1
6756.22
6756.34
6756.46
6756.57
6756.69
6756.8
6756.91
6757.01
6757.12
6757.22
6757.32
6757.42
6757.51
6757.6
6757.69
6757.78
6757.87
6757.96
6758.04
6758.12
6758.2
6758.28
6758.36
6758.43
6758.5
6758.58
6758.65
6758.71
6758.78
6758.85
6758.91
6758.97
6759.04
6759.09
6759.15
6759.21
6759.27
6759.32
6759.37
6759.43
6759.48
6759.53
6759.58
6759.62
6759.67
6759.72
6759.76
6759.8
6759.85
6759.89
6759.93
6759.97
6760
6760.04
6760.08
6760.11
6760.15
6760.18
6760.22
6760.25
6760.28
6760.31
6760.34
6760.37
6760.4
6760.42
6760.45
6760.48
6760.5
6760.53
6760.55
6760.57
6760.6
6760.62
6760.64
6760.66
6760.68
6760.7
6760.72
6760.74
6760.75
6760.77
6760.79
6760.8
6760.82
6760.83
6760.85
6760.86
6760.88
6760.89
6760.9
6760.92
6760.93
6760.94
6760.95
6760.96
6760.97
6760.98
6760.99
6761
6761.01
6761.02
6761.02
6761.03
6761.04
6761.05
6761.05
6761.06
6761.07
6761.07
6761.08
6761.08
6761.09
6761.09
6761.1
6761.1
6761.11
6761.11
6761.12
6761.12
6761.12
6761.13
6761.13
6761.13
6761.13
6761.14
6761.14
6761.14
6761.14
6761.15
6761.15
6761.15
6761.15
6761.15
6761.15
6761.15
6761.15
6761.15
6761.15
6761.15
6761.16
6761.16
6761.16
6761.16
6761.16
6761.16
6761.16
6761.16
6761.16
6761.16
6761.16
6761.16
6761.16
6761.16
6761.16
6761.16
6761.16
6761.16
6761.16
6761.16
6761.15
6761.15
6761.15
6761.15
6761.15
6761.15
6761.15
6761.15
6761.15
6761.15
6761.15
6761.15
6761.15
6761.15
6761.15
6761.15
6761.15
6761.15
6761.15
6761.15
6761.14
6761.14
6761.14
6761.14
6761.14
6761.14
6761.14
6761.14
6761.14
6761.14
6761.14
6761.14
6761.14
6761.13
6761.13
6761.13
6761.13
6761.13
6761.13
6761.13
6761.13
6761.13
6761.13
6761.12
6761.12
6761.12
6761.12
6761.12
6761.12
6761.12
6761.12
6761.12
6761.11
6761.11
6761.11
6761.11
6761.11
6761.11
6761.11
6761.11
6761.1
6761.1
6761.1
6761.1
6761.1
6761.1
6761.1
6761.1
6761.09
6761.09
6761.09
6761.09
6293.46
6297.81
6301.2
6304.65
6308.1
6311.59
6315.1
6318.64
6322.21
6325.8
6329.4
6333
6336.61
6340.24
6343.86
6347.48
6351.09
6354.69
6358.27
6361.84
6365.4
6368.93
6372.44
6375.93
6379.39
6382.81
6386.2
6389.55
6392.87
6396.15
6399.38
6402.57
6405.71
6408.8
6411.83
6414.82
6417.76
6420.64
6423.46
6426.22
6428.92
6431.56
6434.14
6436.66
6439.12
6441.52
6443.86
6446.13
6448.33
6450.47
6452.54
6454.55
6456.49
6458.36
6460.17
6461.92
6463.6
6465.21
6466.75
6468.23
6469.64
6470.98
6472.26
6473.48
6474.63
6475.72
6476.75
6477.73
6478.64
6479.5
6480.31
6481.06
6481.76
6482.41
6483.01
6483.56
6484.08
6484.55
6484.98
6485.38
6485.73
6486.05
6486.33
6486.58
6486.8
6486.98
6487.14
6487.25
6487.34
6487.41
6487.45
6487.47
6487.45
6487.42
6487.4
6487.37
6487.32
6487.17
6486.72
6486.54
6486.19
6485.9
6485.61
6485.25
6484.89
6484.53
6484.15
6483.75
6483.35
6482.93
6482.5
6482.06
6481.63
6481.19
6480.75
6480.28
6479.83
6479.31
6478.88
6478.53
6478.11
6477.71
6477.3
6476.9
6476.53
6476.17
6475.82
6475.48
6475.16
6474.86
6474.6
6474.33
6474.09
6473.85
6473.65
6473.37
6473.23
6473.24
6473.17
6473.14
6473.12
6473.12
6473.15
6473.23
6473.32
6473.44
6473.59
6473.76
6473.95
6474.18
6474.43
6474.71
6475.01
6475.33
6475.69
6476.06
6476.47
6476.89
6477.34
6477.81
6478.31
6478.82
6479.36
6479.92
6480.5
6481.09
6481.71
6482.34
6482.98
6483.64
6484.32
6485
6485.7
6486.42
6487.14
6487.87
6488.61
6489.36
6490.12
6490.88
6491.65
6492.43
6493.21
6494
6494.79
6495.59
6496.4
6497.2
6498.01
6498.83
6499.65
6500.47
6501.29
6502.12
6502.95
6503.78
6504.61
6505.44
6506.27
6507.1
6507.92
6508.75
6509.58
6510.4
6511.22
6512.04
6512.85
6513.66
6514.46
6515.26
6516.06
6516.85
6517.63
6518.41
6519.18
6519.95
6520.7
6521.46
6522.2
6522.94
6523.67
6524.39
6525.1
6525.81
6526.51
6527.2
6527.89
6528.56
6529.23
6529.89
6530.54
6531.18
6531.82
6532.45
6533.06
6533.67
6534.28
6534.87
6535.46
6536.03
6536.6
6537.16
6537.72
6538.26
6538.8
6539.32
6539.84
6540.35
6540.86
6541.35
6541.84
6542.31
6542.78
6543.25
6543.7
6544.15
6544.59
6545.02
6545.44
6545.85
6546.26
6546.66
6547.05
6547.44
6547.82
6548.19
6548.55
6548.91
6549.26
6549.6
6549.94
6550.27
6550.59
6550.91
6551.22
6551.53
6551.82
6552.12
6552.4
6552.68
6552.96
6553.23
6553.49
6553.75
6554
6554.25
6554.49
6554.73
6554.96
6555.19
6555.41
6555.63
6555.84
6556.05
6556.26
6556.46
6556.65
6556.84
6557.03
6557.22
6557.4
6557.57
6557.75
6557.92
6558.08
6558.24
6558.4
6558.56
6558.71
6558.86
6559
6559.15
6559.29
6559.42
6559.56
6559.69
6559.81
6559.94
6560.06
6560.18
6560.3
6560.41
6560.53
6560.64
6560.74
6560.85
6560.95
6561.05
6561.15
6561.25
6561.34
6561.44
6561.53
6561.61
6561.7
6561.79
6561.87
6561.95
6562.03
6562.11
6562.18
6562.26
6562.33
6562.4
6562.47
6562.54
6562.6
6562.67
6562.73
6562.8
6562.86
6562.92
6562.97
6563.03
6563.09
6563.14
6563.19
6563.25
6563.3
6563.35
6563.39
6563.44
6563.49
6563.53
6563.58
6563.62
6563.66
6563.7
6563.74
6563.78
6563.82
6563.86
6563.89
6563.93
6563.96
6564
6564.03
6564.06
6564.09
6564.12
6564.15
6564.18
6564.21
6564.23
6564.26
6564.29
6564.31
6564.34
6564.36
6564.38
6564.4
6564.43
6564.45
6564.47