/*--------------------------------*- C++ -*----------------------------------*\
| =========                 |                                                 |
| \\      /  F ield         | OpenFOAM: The Open Source CFD Toolbox           |
|  \\    /   O peration     | Version:  v2006                                 |
|   \\  /    A nd           | Website:  www.openfoam.com                      |
|    \\/     M anipulation  |                                                 |
\*---------------------------------------------------------------------------*/
FoamFile
{
    version     2.0;
    format      ascii;
    class       surfaceScalarField;
    location    "1.8";
    object      phi;
}
// * * * * * * * * * * * * * * * * * * * * * * * * * * * * * * * * * * * * * //

dimensions      [0 3 -1 0 0 0 0];
oriented        oriented;


internalField   nonuniform List<scalar> 
65390
(
-3.13147e-05
-7.32353e-07
-3.1028e-05
-2.93589e-07
-3.07077e-05
-3.28656e-07
-3.02921e-05
-4.16944e-07
-2.99226e-05
-3.70103e-07
-2.95412e-05
-3.77707e-07
-2.9137e-05
-3.98617e-07
-2.87207e-05
-4.09227e-07
-2.82849e-05
-4.26022e-07
-2.78325e-05
-4.41373e-07
-2.73792e-05
-4.41945e-07
-2.69271e-05
-4.40076e-07
-2.64752e-05
-4.40581e-07
-2.60274e-05
-4.38419e-07
-2.55584e-05
-4.60668e-07
-2.50704e-05
-4.80041e-07
-2.45779e-05
-4.85933e-07
-2.40842e-05
-4.89967e-07
-2.35974e-05
-4.86018e-07
-2.31407e-05
-4.57542e-07
-2.27069e-05
-4.35558e-07
-2.22295e-05
-4.80652e-07
-2.16932e-05
-5.41241e-07
-2.11804e-05
-5.19383e-07
-2.07206e-05
-4.67796e-07
-2.02688e-05
-4.6067e-07
-1.98088e-05
-4.68356e-07
-1.93188e-05
-4.97371e-07
-1.88177e-05
-5.08045e-07
-1.83944e-05
-4.30941e-07
-1.79771e-05
-4.25629e-07
-1.75072e-05
-4.78526e-07
-1.69885e-05
-5.26965e-07
-1.65422e-05
-4.54683e-07
-1.6136e-05
-4.15281e-07
-1.57626e-05
-3.83162e-07
-1.52965e-05
-4.75691e-07
-1.47759e-05
-5.29015e-07
-1.43812e-05
-4.00882e-07
-1.39931e-05
-3.9208e-07
-1.3647e-05
-3.48208e-07
-1.3305e-05
-3.43315e-07
-1.28512e-05
-4.5548e-07
-1.23787e-05
-4.75907e-07
-1.20167e-05
-3.67768e-07
-1.16933e-05
-3.31503e-07
-1.12954e-05
-4.07734e-07
-1.08841e-05
-4.21943e-07
-1.0532e-05
-3.62956e-07
-1.02113e-05
-3.31476e-07
-9.86411e-06
-3.57861e-07
-9.49035e-06
-3.84493e-07
-9.123e-06
-3.77943e-07
-8.77516e-06
-3.58043e-07
-8.46147e-06
-3.23309e-07
-8.15908e-06
-3.11397e-07
-7.8452e-06
-3.22362e-07
-7.57608e-06
-2.771e-07
-7.35805e-06
-2.2538e-07
-7.14405e-06
-2.20487e-07
-6.89407e-06
-2.55365e-07
-6.6354e-06
-2.62926e-07
-6.45272e-06
-1.86002e-07
-6.28562e-06
-1.69832e-07
-6.111e-06
-1.7713e-07
-5.90291e-06
-2.10553e-07
-5.67388e-06
-2.31471e-07
-5.48542e-06
-1.90778e-07
-5.29512e-06
-1.92299e-07
-5.09218e-06
-2.04416e-07
-4.90962e-06
-1.83364e-07
-4.71874e-06
-1.91093e-07
-4.51146e-06
-2.07157e-07
-4.19986e-06
-3.11317e-07
-3.89076e-06
-3.08551e-07
-3.49573e-06
-3.94073e-07
-2.97505e-06
-5.1936e-07
-2.4488e-06
-5.24121e-07
-2.04012e-06
-4.06465e-07
-1.77178e-06
-2.6842e-07
-1.67385e-06
-9.68635e-08
-1.6585e-06
-1.37763e-08
-1.72158e-06
6.31589e-08
-1.74734e-06
2.7187e-08
-1.77569e-06
2.92727e-08
-1.78546e-06
1.0321e-08
-1.76025e-06
-2.45069e-08
-1.77502e-06
1.55212e-08
-1.79029e-06
1.55538e-08
-1.82174e-06
3.14684e-08
-1.83764e-06
1.55484e-08
-1.84232e-06
4.80756e-09
-1.83155e-06
-1.07522e-08
-1.81991e-06
-1.19439e-08
-1.7958e-06
-2.47351e-08
-1.74884e-06
-4.7593e-08
-1.64252e-06
-1.06679e-07
-1.49357e-06
-1.49258e-07
-1.27739e-06
-2.16497e-07
-1.11378e-06
-1.639e-07
-1.07609e-06
-3.79357e-08
-1.10874e-06
3.24594e-08
-1.17459e-06
6.56945e-08
-1.21718e-06
4.24314e-08
-1.29664e-06
7.9279e-08
-1.37394e-06
7.70479e-08
-1.41724e-06
4.29463e-08
-1.45413e-06
3.6467e-08
-1.50068e-06
4.61154e-08
-1.55263e-06
5.15207e-08
-1.59719e-06
4.41221e-08
-1.6398e-06
4.22288e-08
-1.66638e-06
2.63078e-08
-1.67059e-06
4.02724e-09
-1.63822e-06
-3.25883e-08
-1.56501e-06
-7.3464e-08
-1.41506e-06
-1.5018e-07
-1.30636e-06
-1.08861e-07
-1.30476e-06
-1.70553e-09
-1.35512e-06
5.02875e-08
-1.43863e-06
8.35185e-08
-1.50267e-06
6.41714e-08
-1.60353e-06
1.0108e-07
-1.69768e-06
9.43216e-08
-1.76298e-06
6.53781e-08
-1.83208e-06
6.91864e-08
-1.89778e-06
6.57757e-08
-1.9651e-06
6.72832e-08
-2.03585e-06
7.05495e-08
-2.10097e-06
6.48517e-08
-2.1583e-06
5.70711e-08
-2.22035e-06
6.17936e-08
-2.28122e-06
6.06041e-08
-2.34004e-06
5.85576e-08
-2.39568e-06
5.54242e-08
-2.44834e-06
5.2418e-08
-2.50504e-06
5.63975e-08
-2.56022e-06
5.48543e-08
-2.61365e-06
5.31392e-08
-2.66355e-06
4.95982e-08
-2.71457e-06
5.07217e-08
-2.76465e-06
4.98248e-08
-2.81281e-06
4.79664e-08
-2.85944e-06
4.65104e-08
-2.90508e-06
4.55526e-08
-2.94871e-06
4.35724e-08
-2.98968e-06
4.0939e-08
-3.02877e-06
3.90696e-08
-3.06779e-06
3.89824e-08
-3.10519e-06
3.73402e-08
-3.14104e-06
3.57654e-08
-3.1749e-06
3.37957e-08
-3.20572e-06
3.07279e-08
-3.23407e-06
2.82178e-08
-3.26266e-06
2.84161e-08
-3.28989e-06
2.70097e-08
-3.31497e-06
2.48409e-08
-3.33737e-06
2.21325e-08
-3.35823e-06
2.0563e-08
-3.37849e-06
1.99699e-08
-3.39721e-06
1.84164e-08
-3.41361e-06
1.61176e-08
-3.42805e-06
1.41893e-08
-3.44177e-06
1.35003e-08
-3.45414e-06
1.21858e-08
-3.46505e-06
1.07755e-08
-3.47404e-06
8.88378e-09
-3.48158e-06
7.4809e-09
-3.488e-06
6.3946e-09
-3.49325e-06
5.26707e-09
-3.4969e-06
3.68665e-09
-3.49898e-06
2.14429e-09
-3.49971e-06
8.29181e-10
-3.49933e-06
-2.53523e-10
-3.49751e-06
-1.66126e-09
-3.49434e-06
-2.98719e-09
-3.4899e-06
-4.24176e-09
-3.48428e-06
-5.42077e-09
-3.47746e-06
-6.61123e-09
-3.46947e-06
-7.78302e-09
-3.46035e-06
-8.9357e-09
-3.45011e-06
-1.00699e-08
-3.43877e-06
-1.12033e-08
-3.42637e-06
-1.22936e-08
-3.4129e-06
-1.34038e-08
-3.39839e-06
-1.44847e-08
-3.3829e-06
-1.54896e-08
-3.36653e-06
-1.641e-08
-3.34921e-06
-1.73763e-08
-3.33095e-06
-1.83507e-08
-3.31178e-06
-1.92823e-08
-3.29181e-06
-2.00994e-08
-3.27102e-06
-2.09368e-08
-3.2494e-06
-2.17834e-08
-3.22701e-06
-2.2569e-08
-3.20391e-06
-2.33083e-08
-3.1801e-06
-2.40313e-08
-3.15561e-06
-2.47131e-08
-3.13048e-06
-2.53651e-08
-3.10471e-06
-2.60125e-08
-3.07831e-06
-2.66301e-08
-3.05131e-06
-2.72222e-08
-3.02372e-06
-2.77925e-08
-2.99556e-06
-2.83286e-08
-2.9669e-06
-2.88199e-08
-2.93775e-06
-2.92765e-08
-2.90817e-06
-2.97016e-08
-2.87818e-06
-3.00939e-08
-2.84777e-06
-3.05001e-08
-2.81696e-06
-3.08849e-08
-2.78576e-06
-3.12435e-08
-2.75424e-06
-3.15157e-08
-2.72247e-06
-3.1723e-08
-2.69042e-06
-3.1947e-08
-2.65811e-06
-3.21812e-08
-2.62562e-06
-3.23719e-08
-2.59305e-06
-3.24869e-08
-2.56038e-06
-3.26613e-08
-2.52757e-06
-3.28624e-08
-2.49467e-06
-3.30161e-08
-2.46168e-06
-3.31184e-08
-2.4286e-06
-3.31872e-08
-2.39544e-06
-3.32009e-08
-2.36229e-06
-3.31283e-08
-2.32912e-06
-3.3083e-08
-2.29594e-06
-3.30609e-08
-2.26277e-06
-3.30515e-08
-2.22961e-06
-3.30611e-08
-2.19649e-06
-3.30556e-08
-2.16341e-06
-3.30507e-08
-2.13036e-06
-3.30379e-08
-2.09738e-06
-3.29803e-08
-2.0645e-06
-3.29009e-08
-2.03172e-06
-3.28024e-08
-1.99904e-06
-3.26858e-08
-1.96648e-06
-3.25419e-08
-1.93404e-06
-3.23735e-08
-1.90174e-06
-3.22067e-08
-1.8696e-06
-3.20178e-08
-1.83765e-06
-3.18413e-08
-1.80589e-06
-3.16553e-08
-1.77432e-06
-3.14688e-08
-1.74293e-06
-3.12773e-08
-1.71173e-06
-3.10608e-08
-1.68076e-06
-3.08251e-08
-1.65002e-06
-3.05716e-08
-1.61952e-06
-3.03182e-08
-1.58926e-06
-3.0065e-08
-1.55928e-06
-2.98016e-08
-1.52957e-06
-2.95217e-08
-1.50017e-06
-2.92291e-08
-1.47108e-06
-2.89351e-08
-1.44231e-06
-2.86426e-08
-1.41385e-06
-2.83351e-08
-1.38573e-06
-2.80128e-08
-1.3579e-06
-2.77029e-08
-1.33035e-06
-2.74168e-08
-1.30308e-06
-2.71361e-08
-1.2761e-06
-2.68552e-08
-1.24944e-06
-2.65546e-08
-1.22311e-06
-2.62271e-08
-1.19713e-06
-2.58795e-08
-1.17149e-06
-2.55218e-08
-1.1462e-06
-2.51622e-08
-1.12125e-06
-2.48064e-08
-1.09666e-06
-2.4458e-08
-1.07242e-06
-2.41132e-08
-1.04854e-06
-2.37655e-08
-1.02502e-06
-2.3413e-08
-1.00186e-06
-2.30585e-08
-9.79058e-07
-2.27034e-08
-9.56622e-07
-2.23392e-08
-9.34565e-07
-2.19619e-08
-9.12887e-07
-2.15814e-08
-8.91584e-07
-2.12003e-08
-8.70655e-07
-2.08195e-08
-8.50105e-07
-2.04393e-08
-8.29937e-07
-2.00613e-08
-8.10157e-07
-1.96854e-08
-7.90763e-07
-1.93123e-08
-7.71751e-07
-1.89413e-08
-7.5311e-07
-1.85774e-08
-7.34818e-07
-1.82291e-08
-7.16857e-07
-1.79004e-08
-6.99218e-07
-1.75809e-08
-6.81894e-07
-1.72701e-08
-6.64879e-07
-1.69644e-08
-6.48166e-07
-1.6665e-08
-6.31748e-07
-1.63699e-08
-6.15622e-07
-1.60754e-08
-5.9979e-07
-1.57774e-08
-5.84257e-07
-1.54743e-08
-5.69031e-07
-1.51642e-08
-5.5412e-07
-1.48449e-08
-5.39535e-07
-1.45173e-08
-5.25283e-07
-1.41838e-08
-5.11364e-07
-1.385e-08
-4.97775e-07
-1.35207e-08
-4.8451e-07
-1.31982e-08
-4.71565e-07
-1.28818e-08
-4.58931e-07
-1.2572e-08
-4.46599e-07
-1.22708e-08
-4.34559e-07
-1.19808e-08
-4.22795e-07
-1.1705e-08
-4.11292e-07
-1.14435e-08
-4.00037e-07
-1.11947e-08
-3.8902e-07
-1.09555e-08
-3.78235e-07
-1.07238e-08
-3.67677e-07
-1.04963e-08
-3.57344e-07
-1.02714e-08
-3.47237e-07
-1.00475e-08
-3.37355e-07
-9.82322e-09
-3.277e-07
-9.59819e-09
-3.18272e-07
-9.37289e-09
-3.09068e-07
-9.14877e-09
-3.00087e-07
-8.9275e-09
-2.91324e-07
-8.71062e-09
-2.82773e-07
-8.49895e-09
-2.74428e-07
-8.29214e-09
-2.66288e-07
-8.08897e-09
-2.58349e-07
-7.88819e-09
-2.50608e-07
-7.68977e-09
-2.43064e-07
-7.49479e-09
-2.35711e-07
-7.30354e-09
-2.28549e-07
-7.11338e-09
-2.21583e-07
-6.91889e-09
-2.14819e-07
-6.71667e-09
-2.08262e-07
-6.51049e-09
-2.01907e-07
-6.30976e-09
-1.95741e-07
-6.12205e-09
-1.89749e-07
-5.9473e-09
-1.83925e-07
-5.78122e-09
-1.7826e-07
-5.62373e-09
-1.7274e-07
-5.48048e-09
-1.67348e-07
-5.35381e-09
-1.62077e-07
-5.23509e-09
-1.56934e-07
-5.10982e-09
-1.51928e-07
-4.97238e-09
-1.47064e-07
-4.82976e-09
-1.42339e-07
-4.6891e-09
-1.37754e-07
-4.54848e-09
-1.33314e-07
-4.40318e-09
-1.29024e-07
-4.25604e-09
-1.24876e-07
-4.11667e-09
-1.20856e-07
-3.99031e-09
-1.16954e-07
-3.87366e-09
-1.13164e-07
-3.7632e-09
-1.09475e-07
-3.66056e-09
-1.05881e-07
-3.56617e-09
-1.02378e-07
-3.47431e-09
-9.89697e-08
-3.37923e-09
-9.56601e-08
-3.28051e-09
-9.24524e-08
-3.17877e-09
-8.93516e-08
-3.07261e-09
-8.63612e-08
-2.96377e-09
-8.34766e-08
-2.86004e-09
-8.06855e-08
-2.76829e-09
-7.79761e-08
-2.68796e-09
-7.53402e-08
-2.61491e-09
-7.27712e-08
-2.54779e-09
-7.0263e-08
-2.48655e-09
-6.78142e-08
-2.42702e-09
-6.54307e-08
-2.36188e-09
-6.31218e-08
-2.28752e-09
-6.08935e-08
-2.2072e-09
-5.87453e-08
-2.12715e-09
-5.66726e-08
-2.05162e-09
-5.46689e-08
-1.98271e-09
-5.27258e-08
-1.92254e-09
-5.0833e-08
-1.87304e-09
-4.8981e-08
-1.83305e-09
-4.71658e-08
-1.79719e-09
-4.53899e-08
-1.75891e-09
-4.36593e-08
-1.71492e-09
-4.19779e-08
-1.66695e-09
-4.03458e-08
-1.6188e-09
-3.87612e-08
-1.57184e-09
-3.72234e-08
-1.52535e-09
-3.57292e-08
-1.48179e-09
-3.42702e-08
-1.44714e-09
-3.28361e-08
-1.42301e-09
-3.14232e-08
-1.40252e-09
-3.00362e-08
-1.37685e-09
-2.86849e-08
-1.34096e-09
-2.73791e-08
-1.29491e-09
-2.61251e-08
-1.24282e-09
-2.49219e-08
-1.19234e-09
-2.37617e-08
-1.15043e-09
-2.2634e-08
-1.11865e-09
-2.15311e-08
-1.09429e-09
-2.04493e-08
-1.07282e-09
-1.9392e-08
-1.04804e-09
-1.83681e-08
-1.01451e-09
-1.73878e-08
-9.71342e-10
-1.64576e-08
-9.21848e-10
-1.55784e-08
-8.71328e-10
-1.47444e-08
-8.26332e-10
-1.39435e-08
-7.93432e-10
-1.31609e-08
-7.75728e-10
-1.23873e-08
-7.67821e-10
-1.16251e-08
-7.5765e-10
-1.08845e-08
-7.36967e-10
-1.01732e-08
-7.08029e-10
-9.49075e-09
-6.79036e-10
-8.83611e-09
-6.50841e-10
-8.20735e-09
-6.24771e-10
-7.59477e-09
-6.08703e-10
-6.99197e-09
-5.99218e-10
-6.40305e-09
-5.85473e-10
-5.83729e-09
-5.62161e-10
-5.30122e-09
-5.32185e-10
-4.79353e-09
-5.03722e-10
-4.30502e-09
-4.84796e-10
-3.82535e-09
-4.76418e-10
-3.35556e-09
-4.66949e-10
-2.89886e-09
-4.53953e-10
-2.45428e-09
-4.4166e-10
-2.0311e-09
-4.19958e-10
-1.62796e-09
-3.99715e-10
-1.23176e-09
-3.92728e-10
-8.47325e-10
-3.81103e-10
-4.94801e-10
-3.49435e-10
-1.65454e-10
-3.26584e-10
1.02638e-10
-2.65645e-10
3.50655e-10
-2.45834e-10
6.64528e-10
-3.11926e-10
9.45299e-10
-2.79073e-10
1.26737e-09
-3.20584e-10
1.6421e-09
-3.73364e-10
2.11842e-09
-4.74968e-10
2.61156e-09
-4.91721e-10
3.00562e-09
-3.92671e-10
3.4192e-09
-4.12531e-10
3.79332e-09
-3.7357e-10
4.14487e-09
-3.51461e-10
4.4417e-09
-2.97003e-10
4.71055e-09
-2.69059e-10
4.97206e-09
-2.61727e-10
5.21835e-09
-2.46707e-10
5.49027e-09
-2.72917e-10
5.72095e-09
-2.32538e-10
5.86867e-09
-1.50565e-10
6.00954e-09
-1.44765e-10
6.15271e-09
-1.4802e-10
6.32055e-09
-1.73434e-10
6.4637e-09
-1.49372e-10
6.61247e-09
-1.55826e-10
6.80601e-09
-2.01856e-10
7.02672e-09
-2.30595e-10
7.25864e-09
-2.43623e-10
7.42448e-09
-1.79223e-10
7.62171e-09
-2.12158e-10
7.74543e-09
-1.4011e-10
7.84742e-09
-1.19919e-10
7.88666e-09
-5.91562e-11
7.96616e-09
-1.017e-10
8.07917e-09
-1.37887e-10
8.09656e-09
-4.43595e-11
8.21184e-09
-1.44737e-10
8.33193e-09
-1.52302e-10
8.36381e-09
-6.71145e-11
8.38958e-09
-6.48976e-11
8.08682e-09
2.61953e-10
7.94163e-09
1.08082e-10
7.85717e-09
6.29732e-11
7.62099e-09
2.64635e-10
8.04017e-09
-2.87989e-10
8.37624e-09
4.86058e-11
1.03937e-08
-1.41357e-09
1.22524e-08
-7.63547e-10
1.36823e-08
5.14095e-10
1.4637e-08
8.20618e-10
1.51245e-08
1.12028e-09
1.53754e-08
1.20209e-09
1.5479e-08
1.20857e-09
1.53984e-08
1.26548e-09
1.52053e-08
1.26334e-09
1.49504e-08
1.22249e-09
1.4651e-08
1.17481e-09
1.4308e-08
1.13554e-09
1.39573e-08
1.06865e-09
1.36439e-08
9.6339e-10
1.3376e-08
8.55997e-10
1.31223e-08
7.84971e-10
1.28544e-08
7.4751e-10
1.25756e-08
7.11336e-10
1.23146e-08
6.50821e-10
1.20934e-08
5.71955e-10
1.19104e-08
4.97709e-10
1.17473e-08
4.44619e-10
1.15786e-08
4.19432e-10
1.13822e-08
4.19254e-10
1.11456e-08
4.34263e-10
1.08682e-08
4.52123e-10
1.05609e-08
4.6113e-10
1.02398e-08
4.55707e-10
9.92141e-09
4.35338e-10
9.62241e-09
3.99768e-10
9.36332e-09
3.453e-10
9.16756e-09
2.68919e-10
9.06138e-09
1.67582e-10
9.06323e-09
4.87283e-11
9.18175e-09
-7.80786e-11
9.40731e-09
-1.9473e-10
9.71829e-09
-2.89286e-10
1.00847e-08
-3.53282e-10
1.04779e-08
-3.88189e-10
1.08744e-08
-3.99147e-10
1.12572e-08
-3.92772e-10
1.16115e-08
-3.71492e-10
1.19196e-08
-3.32253e-10
1.21597e-08
-2.71081e-10
1.23135e-08
-1.91469e-10
1.23808e-08
-1.11431e-10
1.2377e-08
-4.66898e-11
1.23339e-08
-1.36956e-11
1.22941e-08
-2.29666e-11
1.23005e-08
-7.49639e-11
1.23809e-08
-1.54573e-10
1.25395e-08
-2.38504e-10
1.27924e-08
-3.38324e-10
1.31019e-08
-4.00794e-10
1.3379e-08
-3.73903e-10
1.3528e-08
-2.51209e-10
1.35248e-08
-1.04078e-10
1.34432e-08
-3.01831e-11
1.34811e-08
-1.54198e-10
1.36825e-08
-3.21861e-10
1.39373e-08
-3.7941e-10
1.40167e-08
-2.07966e-10
1.37146e-08
1.70021e-10
1.31867e-08
3.92547e-10
1.2769e-08
2.79278e-10
1.26665e-08
-3.88471e-11
1.26252e-08
-1.03021e-10
1.23059e-08
1.72402e-10
1.17221e-08
4.34576e-10
1.12995e-08
2.71181e-10
1.13784e-08
-2.31897e-10
1.15546e-08
-3.30951e-10
1.14514e-08
-5.32239e-11
1.1337e-08
-4.39027e-11
1.16234e-08
-4.46384e-10
1.20802e-08
-6.18099e-10
1.2114e-08
-1.95707e-10
1.18055e-08
1.47119e-10
1.16185e-08
2.81149e-11
1.11389e-08
3.28498e-10
1.07066e-08
3.00311e-10
1.10085e-09
-3.18876e-05
-9.80689e-07
-3.14178e-05
-7.45381e-07
-3.09466e-05
-7.90241e-07
-3.05818e-05
-7.74926e-07
-3.02e-05
-7.52149e-07
-2.97977e-05
-7.84817e-07
-2.93837e-05
-8.21678e-07
-2.896e-05
-8.45974e-07
-2.85228e-05
-8.79336e-07
-2.80794e-05
-9.02062e-07
-2.76305e-05
-9.09411e-07
-2.71754e-05
-9.14748e-07
-2.67144e-05
-9.20812e-07
-2.62456e-05
-9.24723e-07
-2.57742e-05
-9.47317e-07
-2.5302e-05
-9.65164e-07
-2.48208e-05
-9.77808e-07
-2.43327e-05
-9.86086e-07
-2.38456e-05
-9.77851e-07
-2.33556e-05
-9.48521e-07
-2.28541e-05
-9.34796e-07
-2.23552e-05
-9.75399e-07
-2.18644e-05
-1.02692e-06
-2.13681e-05
-1.00968e-06
-2.08682e-05
-9.60338e-07
-2.0362e-05
-9.57927e-07
-1.98631e-05
-9.57161e-07
-1.93747e-05
-9.75731e-07
-1.88827e-05
-9.90893e-07
-1.84345e-05
-8.70781e-07
-1.80422e-05
-8.09576e-07
-1.76385e-05
-8.73202e-07
-1.71573e-05
-9.98848e-07
-1.66052e-05
-9.979e-07
-1.609e-05
-9.22291e-07
-1.56713e-05
-7.94193e-07
-1.52726e-05
-8.66601e-07
-1.48722e-05
-9.21023e-07
-1.44085e-05
-8.55537e-07
-1.39255e-05
-8.6579e-07
-1.35402e-05
-7.24668e-07
-1.31676e-05
-7.08087e-07
-1.27548e-05
-8.61972e-07
-1.23161e-05
-9.1001e-07
-1.18909e-05
-7.89845e-07
-1.15291e-05
-6.90738e-07
-1.11767e-05
-7.57233e-07
-1.08367e-05
-7.58086e-07
-1.05025e-05
-6.9198e-07
-1.0167e-05
-6.60845e-07
-9.82775e-06
-6.90295e-07
-9.49411e-06
-7.10993e-07
-9.16788e-06
-6.96829e-07
-8.84366e-06
-6.74747e-07
-8.52602e-06
-6.33264e-07
-8.22412e-06
-6.05459e-07
-7.91918e-06
-6.19345e-07
-7.63628e-06
-5.51951e-07
-7.39534e-06
-4.58208e-07
-7.16408e-06
-4.4367e-07
-6.9079e-06
-5.0373e-07
-6.65835e-06
-5.05261e-07
-6.48175e-06
-3.56361e-07
-6.31408e-06
-3.32552e-07
-6.14424e-06
-3.43404e-07
-5.93393e-06
-4.1859e-07
-5.73333e-06
-4.30791e-07
-5.52691e-06
-3.96587e-07
-5.32303e-06
-3.95937e-07
-5.1589e-06
-3.68462e-07
-5.01397e-06
-3.28281e-07
-4.8304e-06
-3.74891e-07
-4.63291e-06
-4.05302e-07
-4.46019e-06
-4.84656e-07
-4.2889e-06
-4.79529e-07
-4.12343e-06
-5.5871e-07
-3.97805e-06
-6.65512e-07
-3.78609e-06
-7.17355e-07
-3.48468e-06
-7.06587e-07
-3.07669e-06
-6.76873e-07
-2.66526e-06
-5.09978e-07
-2.26191e-06
-4.15905e-07
-1.93125e-06
-2.68226e-07
-1.77632e-06
-1.28531e-07
-1.66595e-06
-8.09966e-08
-1.66389e-06
8.09106e-09
-1.70259e-06
1.34639e-08
-1.7848e-06
9.7737e-08
-1.84596e-06
7.66159e-08
-1.87101e-06
5.67895e-08
-1.85511e-06
-1.04748e-09
-1.84946e-06
-1.55837e-09
-1.85826e-06
-2.66002e-09
-1.86843e-06
-2.16423e-09
-1.88418e-06
-9.35954e-09
-1.89058e-06
-4.17865e-08
-1.90251e-06
-9.5356e-08
-1.91398e-06
-1.38255e-07
-1.94614e-06
-1.84509e-07
-1.90822e-06
-2.01766e-07
-1.77952e-06
-1.6651e-07
-1.56637e-06
-1.80581e-07
-1.39144e-06
-1.09058e-07
-1.33707e-06
-1.1659e-08
-1.31761e-06
6.00436e-08
-1.33903e-06
9.85477e-08
-1.37036e-06
7.42867e-08
-1.42411e-06
9.03214e-08
-1.51046e-06
1.32609e-07
-1.59246e-06
1.33661e-07
-1.63478e-06
8.66077e-08
-1.67804e-06
8.57202e-08
-1.71812e-06
6.66436e-08
-1.76007e-06
4.6201e-08
-1.81171e-06
1.92602e-08
-1.86109e-06
-2.37943e-08
-1.92784e-06
-8.30099e-08
-1.94647e-06
-8.97042e-08
-1.88616e-06
-6.13665e-08
-1.73276e-06
-1.02317e-07
-1.60437e-06
-4.39891e-08
-1.59088e-06
5.15738e-08
-1.61286e-06
1.23895e-07
-1.66581e-06
1.48028e-07
-1.72665e-06
1.26895e-07
-1.82373e-06
1.6687e-07
-1.91379e-06
1.56347e-07
-1.97435e-06
1.28223e-07
-2.03732e-06
1.33807e-07
-2.09905e-06
1.2684e-07
-2.15944e-06
1.17767e-07
-2.22278e-06
1.25461e-07
-2.28399e-06
1.22151e-07
-2.34126e-06
1.16181e-07
-2.39715e-06
1.11683e-07
-2.4527e-06
1.08333e-07
-2.50855e-06
1.12614e-07
-2.56255e-06
1.09234e-07
-2.61577e-06
1.06801e-07
-2.66786e-06
1.0222e-07
-2.71929e-06
1.02771e-07
-2.76841e-06
9.9662e-08
-2.81566e-06
9.60448e-08
-2.86291e-06
9.46786e-08
-2.9081e-06
9.17096e-08
-2.95088e-06
8.73585e-08
-2.99201e-06
8.31104e-08
-3.0324e-06
8.05144e-08
-3.07115e-06
7.87839e-08
-3.10783e-06
7.50581e-08
-3.14274e-06
7.16868e-08
-3.17611e-06
6.81515e-08
-3.20745e-06
6.30068e-08
-3.23714e-06
5.87918e-08
-3.26525e-06
5.73592e-08
-3.29183e-06
5.43788e-08
-3.31666e-06
5.0427e-08
-3.3396e-06
4.58066e-08
-3.36096e-06
4.26405e-08
-3.3809e-06
4.06391e-08
-3.39944e-06
3.77074e-08
-3.4163e-06
3.37798e-08
-3.4314e-06
3.01536e-08
-3.44495e-06
2.79715e-08
-3.45728e-06
2.54911e-08
-3.46849e-06
2.30284e-08
-3.47749e-06
1.8969e-08
-3.485e-06
1.61255e-08
-3.49132e-06
1.39032e-08
-3.49686e-06
1.20361e-08
-3.50032e-06
8.4243e-09
-3.50226e-06
5.39563e-09
-3.50297e-06
2.89353e-09
-3.5028e-06
9.59247e-10
-3.50067e-06
-2.38954e-09
-3.49726e-06
-4.99752e-09
-3.49277e-06
-7.3301e-09
-3.48715e-06
-9.66112e-09
-3.48009e-06
-1.233e-08
-3.47184e-06
-1.47358e-08
-3.46258e-06
-1.6972e-08
-3.45222e-06
-1.92815e-08
-3.44074e-06
-2.16233e-08
-3.42823e-06
-2.38247e-08
-3.41471e-06
-2.60364e-08
-3.40015e-06
-2.82311e-08
-3.38457e-06
-3.03411e-08
-3.36802e-06
-3.23009e-08
-3.35056e-06
-3.42434e-08
-3.33223e-06
-3.6143e-08
-3.31306e-06
-3.79895e-08
-3.29313e-06
-3.96199e-08
-3.27234e-06
-4.13771e-08
-3.25072e-06
-4.31131e-08
-3.2283e-06
-4.4749e-08
-3.20512e-06
-4.62935e-08
-3.18125e-06
-4.77504e-08
-3.1567e-06
-4.91396e-08
-3.1315e-06
-5.04799e-08
-3.10567e-06
-5.17768e-08
-3.07922e-06
-5.30276e-08
-3.05213e-06
-5.42632e-08
-3.02446e-06
-5.54034e-08
-2.99624e-06
-5.64705e-08
-2.96748e-06
-5.74736e-08
-2.93824e-06
-5.83798e-08
-2.9086e-06
-5.91531e-08
-2.87865e-06
-5.98318e-08
-2.84823e-06
-6.06718e-08
-2.81745e-06
-6.14047e-08
-2.78634e-06
-6.20922e-08
-2.75491e-06
-6.27047e-08
-2.72316e-06
-6.3251e-08
-2.69113e-06
-6.3791e-08
-2.65883e-06
-6.43239e-08
-2.62632e-06
-6.47585e-08
-2.59361e-06
-6.50975e-08
-2.56075e-06
-6.54351e-08
-2.52782e-06
-6.57265e-08
-2.49482e-06
-6.59585e-08
-2.46176e-06
-6.6136e-08
-2.42867e-06
-6.62827e-08
-2.39554e-06
-6.63938e-08
-2.36237e-06
-6.64383e-08
-2.32917e-06
-6.64794e-08
-2.29597e-06
-6.65147e-08
-2.26276e-06
-6.65399e-08
-2.22953e-06
-6.65734e-08
-2.19633e-06
-6.65459e-08
-2.16318e-06
-6.64911e-08
-2.13011e-06
-6.64179e-08
-2.09712e-06
-6.62788e-08
-2.06424e-06
-6.60858e-08
-2.03147e-06
-6.58694e-08
-1.99877e-06
-6.56571e-08
-1.96615e-06
-6.54141e-08
-1.93362e-06
-6.51444e-08
-1.90122e-06
-6.48627e-08
-1.86902e-06
-6.44876e-08
-1.83704e-06
-6.41097e-08
-1.80527e-06
-6.37261e-08
-1.77371e-06
-6.33291e-08
-1.74235e-06
-6.29378e-08
-1.71119e-06
-6.25264e-08
-1.68023e-06
-6.20865e-08
-1.6495e-06
-6.1609e-08
-1.61899e-06
-6.11204e-08
-1.58874e-06
-6.06094e-08
-1.55874e-06
-6.00702e-08
-1.52901e-06
-5.95127e-08
-1.49955e-06
-5.89404e-08
-1.47038e-06
-5.83658e-08
-1.4415e-06
-5.77903e-08
-1.41293e-06
-5.71921e-08
-1.38467e-06
-5.65627e-08
-1.35674e-06
-5.59238e-08
-1.32915e-06
-5.5298e-08
-1.30189e-06
-5.46748e-08
-1.27496e-06
-5.40557e-08
-1.24835e-06
-5.34186e-08
-1.22208e-06
-5.27563e-08
-1.19613e-06
-5.20763e-08
-1.17052e-06
-5.13847e-08
-1.14525e-06
-5.06831e-08
-1.12031e-06
-4.9973e-08
-1.09571e-06
-4.92598e-08
-1.07146e-06
-4.85466e-08
-1.04758e-06
-4.78306e-08
-1.02406e-06
-4.711e-08
-1.0009e-06
-4.63858e-08
-9.78123e-07
-4.56567e-08
-9.5572e-07
-4.49126e-08
-9.33698e-07
-4.41508e-08
-9.12059e-07
-4.33864e-08
-8.90801e-07
-4.26279e-08
-8.69916e-07
-4.18783e-08
-8.49401e-07
-4.11335e-08
-8.2925e-07
-4.03943e-08
-8.09458e-07
-3.96569e-08
-7.90026e-07
-3.89199e-08
-7.70952e-07
-3.81825e-08
-7.52237e-07
-3.74529e-08
-7.33875e-07
-3.67451e-08
-7.15859e-07
-3.60673e-08
-6.9818e-07
-3.54084e-08
-6.80832e-07
-3.47647e-08
-6.63809e-07
-3.41312e-08
-6.47105e-07
-3.3509e-08
-6.30715e-07
-3.28952e-08
-6.14636e-07
-3.22843e-08
-5.98868e-07
-3.16705e-08
-5.83412e-07
-3.10512e-08
-5.68268e-07
-3.04253e-08
-5.53436e-07
-2.97906e-08
-5.38916e-07
-2.91484e-08
-5.24709e-07
-2.85004e-08
-5.10816e-07
-2.78528e-08
-4.97235e-07
-2.72113e-08
-4.83964e-07
-2.65802e-08
-4.70996e-07
-2.59602e-08
-4.58327e-07
-2.53523e-08
-4.45947e-07
-2.47595e-08
-4.33848e-07
-2.41853e-08
-4.22023e-07
-2.36331e-08
-4.10463e-07
-2.31032e-08
-3.99162e-07
-2.25935e-08
-3.88111e-07
-2.20999e-08
-3.77308e-07
-2.16194e-08
-3.66747e-07
-2.11478e-08
-3.56424e-07
-2.06828e-08
-3.46336e-07
-2.02224e-08
-3.3648e-07
-1.97651e-08
-3.26853e-07
-1.93102e-08
-3.1745e-07
-1.88579e-08
-3.0827e-07
-1.84092e-08
-2.9931e-07
-1.79658e-08
-2.90566e-07
-1.75298e-08
-2.82034e-07
-1.7103e-08
-2.73711e-07
-1.66856e-08
-2.65592e-07
-1.6276e-08
-2.57675e-07
-1.58707e-08
-2.49962e-07
-1.54672e-08
-2.42455e-07
-1.50654e-08
-2.35152e-07
-1.46679e-08
-2.28048e-07
-1.42757e-08
-2.21139e-07
-1.38855e-08
-2.14418e-07
-1.34921e-08
-2.07885e-07
-1.30963e-08
-2.01538e-07
-1.27082e-08
-1.95371e-07
-1.23403e-08
-1.89372e-07
-1.19964e-08
-1.83534e-07
-1.16701e-08
-1.77853e-07
-1.13555e-08
-1.72326e-07
-1.10565e-08
-1.66948e-07
-1.07793e-08
-1.61711e-07
-1.05175e-08
-1.56612e-07
-1.02522e-08
-1.51657e-07
-9.97139e-09
-1.46848e-07
-9.6826e-09
-1.42181e-07
-9.39924e-09
-1.37649e-07
-9.12273e-09
-1.33246e-07
-8.84501e-09
-1.28971e-07
-8.56547e-09
-1.24825e-07
-8.29592e-09
-1.208e-07
-8.04582e-09
-1.16892e-07
-7.81162e-09
-1.13099e-07
-7.58688e-09
-1.09417e-07
-7.37296e-09
-1.05842e-07
-7.17135e-09
-1.02372e-07
-6.9751e-09
-9.90039e-08
-6.77711e-09
-9.57352e-08
-6.57817e-09
-9.25618e-08
-6.37985e-09
-8.94819e-08
-6.17873e-09
-8.64947e-08
-5.97538e-09
-8.35966e-08
-5.78075e-09
-8.07803e-08
-5.6054e-09
-7.80399e-08
-5.44778e-09
-7.53742e-08
-5.29916e-09
-7.27844e-08
-5.15551e-09
-7.0271e-08
-5.01784e-09
-6.78327e-08
-4.88336e-09
-6.54685e-08
-4.74415e-09
-6.31783e-08
-4.59574e-09
-6.09605e-08
-4.44263e-09
-5.8811e-08
-4.29356e-09
-5.67247e-08
-4.15421e-09
-5.4697e-08
-4.02623e-09
-5.27246e-08
-3.91071e-09
-5.08046e-08
-3.80908e-09
-4.89341e-08
-3.71989e-09
-4.71113e-08
-3.63671e-09
-4.53359e-08
-3.55089e-09
-4.36097e-08
-3.45745e-09
-4.19333e-08
-3.35931e-09
-4.03038e-08
-3.26418e-09
-3.87159e-08
-3.17577e-09
-3.71666e-08
-3.09099e-09
-3.5656e-08
-3.00863e-09
-3.41843e-08
-2.93448e-09
-3.27507e-08
-2.87135e-09
-3.1356e-08
-2.81089e-09
-3.00033e-08
-2.74228e-09
-2.86939e-08
-2.66224e-09
-2.74256e-08
-2.5746e-09
-2.61939e-08
-2.48528e-09
-2.49943e-08
-2.40204e-09
-2.38227e-08
-2.3314e-09
-2.26775e-08
-2.27252e-09
-2.15613e-08
-2.21881e-09
-2.04791e-08
-2.16313e-09
-1.94363e-08
-2.09905e-09
-1.84359e-08
-2.02328e-09
-1.74771e-08
-1.93883e-09
-1.65561e-08
-1.85197e-09
-1.56677e-08
-1.76923e-09
-1.48069e-08
-1.6971e-09
-1.3971e-08
-1.63983e-09
-1.31603e-08
-1.59733e-09
-1.23768e-08
-1.56249e-09
-1.16226e-08
-1.52316e-09
-1.08984e-08
-1.47243e-09
-1.02005e-08
-1.41707e-09
-9.52025e-09
-1.37024e-09
-8.85405e-09
-1.32779e-09
-8.20677e-09
-1.28251e-09
-7.58327e-09
-1.24228e-09
-6.98765e-09
-1.20447e-09
-6.41804e-09
-1.16425e-09
-5.86911e-09
-1.11975e-09
-5.33738e-09
-1.07204e-09
-4.81973e-09
-1.02888e-09
-4.31635e-09
-9.95052e-10
-3.82328e-09
-9.75709e-10
-3.35017e-09
-9.45638e-10
-2.89661e-09
-9.12486e-10
-2.45748e-09
-8.85202e-10
-2.03627e-09
-8.4509e-10
-1.63925e-09
-8.00284e-10
-1.25285e-09
-7.82401e-10
-9.14669e-10
-7.22385e-10
-5.8617e-10
-6.80947e-10
-2.09389e-10
-7.06397e-10
1.4932e-10
-6.27463e-10
5.25653e-10
-6.25275e-10
9.21072e-10
-7.10227e-10
1.44527e-09
-8.05715e-10
1.96598e-09
-8.43228e-10
2.35231e-09
-7.61134e-10
2.66293e-09
-7.8672e-10
2.92807e-09
-7.57783e-10
3.23964e-09
-7.04904e-10
3.54786e-09
-7.20962e-10
3.85157e-09
-6.76742e-10
4.15026e-09
-6.48612e-10
4.42721e-09
-5.71329e-10
4.6925e-09
-5.30643e-10
4.9422e-09
-5.06777e-10
5.17595e-09
-4.74991e-10
5.41198e-09
-5.0281e-10
5.62903e-09
-4.42778e-10
5.80682e-09
-3.20642e-10
5.99854e-09
-3.27709e-10
6.18027e-09
-3.19774e-10
6.4009e-09
-3.82853e-10
6.60403e-09
-3.39905e-10
6.77815e-09
-3.15736e-10
6.95381e-09
-3.61492e-10
7.11968e-09
-3.78223e-10
7.26171e-09
-3.65164e-10
7.35754e-09
-2.52159e-10
7.52741e-09
-3.56689e-10
7.64013e-09
-2.24717e-10
7.72231e-09
-1.70691e-10
7.84836e-09
-1.49838e-10
8.00406e-09
-2.17451e-10
8.121e-09
-2.10326e-10
8.25218e-09
-1.2575e-10
8.32429e-09
-1.61483e-10
8.06356e-09
1.68679e-10
7.97769e-09
8.2912e-11
8.0003e-09
-2.55193e-11
7.97381e-09
3.33367e-10
8.7958e-09
-7.14281e-10
9.5278e-09
-7.89441e-10
1.20345e-08
-2.51158e-09
1.44778e-08
-3.46632e-09
1.59666e-08
-2.90207e-09
1.63107e-08
-3.70407e-09
1.54474e-08
-2.82615e-09
1.54051e-08
-2.24153e-09
1.54738e-08
-1.87268e-09
1.55329e-08
-1.36908e-09
1.55761e-08
-1.07171e-09
1.55154e-08
-7.66853e-10
1.53649e-08
-4.36497e-10
1.51892e-08
-2.4265e-10
1.50247e-08
-1.37846e-10
1.48392e-08
-2.11275e-11
1.4618e-08
1.06005e-10
1.43797e-08
1.75458e-10
1.41341e-08
1.86125e-10
1.38702e-08
1.96317e-10
1.35797e-08
2.42544e-10
1.32823e-08
2.94615e-10
1.30134e-08
3.04939e-10
1.27922e-08
2.65103e-10
1.26162e-08
2.03061e-10
1.24686e-08
1.57032e-10
1.23246e-08
1.52055e-10
1.21599e-08
1.94785e-10
1.19591e-08
2.73878e-10
1.17226e-08
3.64008e-10
1.14634e-08
4.40378e-10
1.1204e-08
4.82407e-10
1.09646e-08
4.87048e-10
1.07594e-08
4.60154e-10
1.05982e-08
4.06135e-10
1.04845e-08
3.28154e-10
1.04206e-08
2.23891e-10
1.04055e-08
9.40749e-11
1.04325e-08
-4.82138e-11
1.05006e-08
-1.98816e-10
1.06075e-08
-3.38261e-10
1.07527e-08
-4.55947e-10
1.09356e-08
-5.43385e-10
1.11542e-08
-6.00495e-10
1.14009e-08
-6.26778e-10
1.16616e-08
-6.22481e-10
1.19145e-08
-5.81921e-10
1.21333e-08
-4.97778e-10
1.22967e-08
-3.7083e-10
1.24003e-08
-2.21428e-10
1.24564e-08
-8.393e-11
1.249e-08
1.28908e-11
1.25235e-08
5.55778e-11
1.25661e-08
4.66133e-11
1.26259e-08
-1.36604e-11
1.2703e-08
-1.01514e-10
1.28289e-08
-2.25267e-10
1.30033e-08
-3.64789e-10
1.32098e-08
-4.50463e-10
1.33984e-08
-3.96862e-10
1.35209e-08
-1.9956e-10
1.35726e-08
2.66731e-11
1.36089e-08
1.23859e-10
1.36767e-08
-2.40956e-11
1.37706e-08
-2.10469e-10
1.37524e-08
-1.48952e-10
1.35196e-08
2.43675e-10
1.32147e-08
6.99867e-10
1.301e-08
8.27853e-10
1.3008e-08
5.16959e-10
1.29594e-08
2.50116e-10
1.27156e-08
3.8556e-10
1.22966e-08
8.40224e-10
1.20418e-08
9.4194e-10
1.21182e-08
4.51046e-10
1.20805e-08
6.533e-11
1.17767e-08
2.35196e-10
1.15791e-08
4.0931e-10
1.16582e-08
1.44113e-10
1.16881e-08
-2.07052e-10
1.13271e-08
1.35382e-11
1.1015e-08
3.86757e-10
1.08437e-08
5.8498e-10
1.06117e-08
5.17902e-10
1.04639e-08
7.18519e-10
1.05697e-08
4.12288e-10
2.15024e-09
-3.1863e-05
-1.31622e-06
-3.15891e-05
-1.01969e-06
-3.12637e-05
-1.11787e-06
-3.09326e-05
-1.10143e-06
-3.05276e-05
-1.14837e-06
-3.0101e-05
-1.20084e-06
-2.96619e-05
-1.24989e-06
-2.92165e-05
-1.27752e-06
-2.87683e-05
-1.31201e-06
-2.83214e-05
-1.33492e-06
-2.78721e-05
-1.34617e-06
-2.74164e-05
-1.35769e-06
-2.69508e-05
-1.37327e-06
-2.64721e-05
-1.39205e-06
-2.59975e-05
-1.41313e-06
-2.55208e-05
-1.43474e-06
-2.50365e-05
-1.45641e-06
-2.45522e-05
-1.46658e-06
-2.40641e-05
-1.46379e-06
-2.35541e-05
-1.45753e-06
-2.30245e-05
-1.46484e-06
-2.25136e-05
-1.48829e-06
-2.2037e-05
-1.50619e-06
-2.15444e-05
-1.50484e-06
-2.10089e-05
-1.49861e-06
-2.04723e-05
-1.49775e-06
-1.99491e-05
-1.48383e-06
-1.94535e-05
-1.47444e-06
-1.89803e-05
-1.46643e-06
-1.84724e-05
-1.38016e-06
-1.79932e-05
-1.28897e-06
-1.75558e-05
-1.30884e-06
-1.71372e-05
-1.41413e-06
-1.66227e-05
-1.50839e-06
-1.61118e-05
-1.43027e-06
-1.5614e-05
-1.29132e-06
-1.51882e-05
-1.29461e-06
-1.48065e-05
-1.30744e-06
-1.4318e-05
-1.35059e-06
-1.38495e-05
-1.3416e-06
-1.33865e-05
-1.19469e-06
-1.29403e-05
-1.15996e-06
-1.25667e-05
-1.23931e-06
-1.22005e-05
-1.27789e-06
-1.17855e-05
-1.20474e-06
-1.1385e-05
-1.08955e-06
-1.10476e-05
-1.0916e-06
-1.07375e-05
-1.06395e-06
-1.04036e-05
-1.02075e-06
-1.00631e-05