/*--------------------------------*- C++ -*----------------------------------*\
| =========                 |                                                 |
| \\      /  F ield         | OpenFOAM: The Open Source CFD Toolbox           |
|  \\    /   O peration     | Version:  v2006                                 |
|   \\  /    A nd           | Website:  www.openfoam.com                      |
|    \\/     M anipulation  |                                                 |
\*---------------------------------------------------------------------------*/
FoamFile
{
    version     2.0;
    format      ascii;
    class       volVectorField;
    location    "1.8";
    object      U;
}
// * * * * * * * * * * * * * * * * * * * * * * * * * * * * * * * * * * * * * //

dimensions      [0 1 -1 0 0 0 0];


internalField   nonuniform List<vector> 
33000
(
(-0.0539164 0 -0.00156346)
(-0.0839126 0 -0.000408521)
(-0.0770849 0 -0.000569471)
(-0.0763266 0 -0.000870127)
(-0.0752814 0 -0.000680523)
(-0.0743456 0 -0.00070995)
(-0.0733457 0 -0.000768975)
(-0.0723238 0 -0.000790364)
(-0.0712528 0 -0.000830573)
(-0.0701409 0 -0.000867611)
(-0.0690102 0 -0.000871247)
(-0.0678785 0 -0.000868938)
(-0.0667439 0 -0.000862392)
(-0.0656271 0 -0.000856867)
(-0.0644824 0 -0.000909542)
(-0.0632803 0 -0.000946126)
(-0.0620537 0 -0.000953471)
(-0.0608198 0 -0.00096126)
(-0.0595953 0 -0.000952045)
(-0.0584235 0 -0.000885635)
(-0.0573217 0 -0.000837181)
(-0.0561739 0 -0.000944461)
(-0.054892 0 -0.00107247)
(-0.053583 0 -0.00101513)
(-0.0523792 0 -0.000903591)
(-0.0512431 0 -0.000888463)
(-0.0501009 0 -0.000908871)
(-0.048903 0 -0.000982007)
(-0.0476608 0 -0.000996848)
(-0.0465224 0 -0.000845808)
(-0.0454782 0 -0.000855703)
(-0.0443527 0 -0.000962023)
(-0.0431069 0 -0.00103613)
(-0.0419064 0 -0.000829104)
(-0.0408558 0 -0.000769425)
(-0.0398934 0 -0.000750829)
(-0.0388151 0 -0.000964666)
(-0.037572 0 -0.00108561)
(-0.0364443 0 -0.000747848)
(-0.0354716 0 -0.000723746)
(-0.0345609 0 -0.000673318)
(-0.0337061 0 -0.000669379)
(-0.0326846 0 -0.000900375)
(-0.0315187 0 -0.000930745)
(-0.0304987 0 -0.000692527)
(-0.0296547 0 -0.000637239)
(-0.0287335 0 -0.000820128)
(-0.0277129 0 -0.00085494)
(-0.0267684 0 -0.000723168)
(-0.0259387 0 -0.000648857)
(-0.0250988 0 -0.000709327)
(-0.0241884 0 -0.00077588)
(-0.0232637 0 -0.000763793)
(-0.0223698 0 -0.000715981)
(-0.0215471 0 -0.000635035)
(-0.0207765 0 -0.000614223)
(-0.0200019 0 -0.000635838)
(-0.0192727 0 -0.000535896)
(-0.0186728 0 -0.000438815)
(-0.0181342 0 -0.000432132)
(-0.0175456 0 -0.00049958)
(-0.0169048 0 -0.000517587)
(-0.0163621 0 -0.000370118)
(-0.0159302 0 -0.000341676)
(-0.0155004 0 -0.000353827)
(-0.0150163 0 -0.000410482)
(-0.0144682 0 -0.000459193)
(-0.0139518 0 -0.000370917)
(-0.0134779 0 -0.000381086)
(-0.0129861 0 -0.00043033)
(-0.0125088 0 -0.000392815)
(-0.0120475 0 -0.000398791)
(-0.0115536 0 -0.000452224)
(-0.0109176 0 -0.000732315)
(-0.0101418 0 -0.000797044)
(-0.00920322 0 -0.00106058)
(-0.00788713 0 -0.00148933)
(-0.00640911 0 -0.00160598)
(-0.00585426 0 -0.000705721)
(-0.00434054 0 0.000156946)
(-0.00444569 0 0.000478496)
(-0.00399831 0 0.000461662)
(-0.00426617 0 0.000177102)
(-0.00433204 0 -0.000230713)
(-0.00440675 0 -0.000209044)
(-0.00448897 0 -0.000111841)
(-0.00441577 0 -1.9608e-05)
(-0.00440876 0 0.000152498)
(-0.00444979 0 0.00018751)
(-0.00451725 0 0.000131652)
(-0.00457999 0 4.82774e-05)
(-0.00461266 0 -3.23609e-05)
(-0.00459815 0 -3.54141e-05)
(-0.0045602 0 -4.18502e-05)
(-0.00454618 0 -6.10817e-05)
(-0.00442167 0 -0.000154593)
(-0.00434036 0 -0.00034352)
(-0.00384523 0 -0.000467018)
(-0.0036513 0 -0.000711089)
(-0.0027399 0 -0.000400289)
(-0.00279777 0 0.000158129)
(-0.00261354 0 0.000491991)
(-0.00291475 0 0.000467509)
(-0.00296361 0 6.13424e-05)
(-0.00312314 0 1.66859e-05)
(-0.00336332 0 3.38295e-06)
(-0.00350315 0 6.78272e-05)
(-0.00358374 0 7.9178e-05)
(-0.00368726 0 0.000154077)
(-0.00381939 0 0.000150385)
(-0.00394165 0 9.95727e-05)
(-0.00404638 0 6.90594e-05)
(-0.00415562 0 1.90803e-05)
(-0.00416469 0 -3.99587e-05)
(-0.00421031 0 -0.000155361)
(-0.00394179 0 -0.000272362)
(-0.00393161 0 -0.000539186)
(-0.00314942 0 -0.000304079)
(-0.00333099 0 0.000159193)
(-0.00323106 0 0.000456184)
(-0.00353264 0 0.00046115)
(-0.00365889 0 0.000132109)
(-0.00386508 0 0.000102303)
(-0.00415121 0 8.10656e-05)
(-0.00433097 0 0.000127083)
(-0.0044896 0 0.000158264)
(-0.00466689 0 0.000159204)
(-0.00482533 0 0.000140562)
(-0.00500152 0 0.000135426)
(-0.00517762 0 0.000118434)
(-0.00532424 0 0.000108716)
(-0.00547126 0 0.000123615)
(-0.00562936 0 0.000123049)
(-0.0057774 0 0.00011713)
(-0.00592257 0 0.000108853)
(-0.00605436 0 0.0001001)
(-0.00619063 0 0.000110306)
(-0.00633318 0 0.000107999)
(-0.00646886 0 0.000104598)
(-0.00659748 0 9.66291e-05)
(-0.0067223 0 9.96726e-05)
(-0.0068501 0 9.86696e-05)
(-0.0069729 0 9.51549e-05)
(-0.00709103 0 9.14996e-05)
(-0.00720649 0 9.00338e-05)
(-0.00731871 0 8.64025e-05)
(-0.0074244 0 8.06826e-05)
(-0.00752351 0 7.64659e-05)
(-0.0076213 0 7.71131e-05)
(-0.00771726 0 7.41968e-05)
(-0.00780874 0 7.10842e-05)
(-0.0078964 0 6.68679e-05)
(-0.00797748 0 6.03985e-05)
(-0.00805028 0 5.51258e-05)
(-0.00812118 0 5.64081e-05)
(-0.00819181 0 5.37172e-05)
(-0.00825747 0 4.91528e-05)
(-0.00831655 0 4.35095e-05)
(-0.00837 0 4.0452e-05)
(-0.00842148 0 3.97195e-05)
(-0.00847073 0 3.65591e-05)
(-0.00851469 0 3.17512e-05)
(-0.0085527 0 2.78179e-05)
(-0.0085878 0 2.6862e-05)
(-0.00862066 0 2.42784e-05)
(-0.00864981 0 2.12949e-05)
(-0.00867475 0 1.77235e-05)
(-0.00869519 0 1.50207e-05)
(-0.00871253 0 1.29607e-05)
(-0.00872726 0 1.05755e-05)
(-0.00873847 0 7.6145e-06)
(-0.00874562 0 4.59624e-06)
(-0.00874897 0 1.90165e-06)
(-0.00874945 0 -2.84526e-07)
(-0.00874677 0 -2.88469e-06)
(-0.00874048 0 -5.52846e-06)
(-0.00873094 0 -8.05081e-06)
(-0.00871835 0 -1.03876e-05)
(-0.0087028 0 -1.26354e-05)
(-0.00868427 0 -1.49362e-05)
(-0.00866286 0 -1.72279e-05)
(-0.00863866 0 -1.9482e-05)
(-0.00861168 0 -2.17437e-05)
(-0.00858199 0 -2.39318e-05)
(-0.00854967 0 -2.61592e-05)
(-0.00851464 0 -2.82971e-05)
(-0.0084771 0 -3.02397e-05)
(-0.00843729 0 -3.20217e-05)
(-0.00839517 0 -3.39229e-05)
(-0.00835068 0 -3.58655e-05)
(-0.00830386 0 -3.77376e-05)
(-0.00825491 0 -3.93969e-05)
(-0.00820395 0 -4.10571e-05)
(-0.00815092 0 -4.27285e-05)
(-0.00809589 0 -4.42651e-05)
(-0.00803901 0 -4.57066e-05)
(-0.00798035 0 -4.71344e-05)
(-0.00791995 0 -4.84785e-05)
(-0.00785793 0 -4.97601e-05)
(-0.0077943 0 -5.10472e-05)
(-0.00772907 0 -5.22695e-05)
(-0.00766231 0 -5.34223e-05)
(-0.00759405 0 -5.45368e-05)
(-0.00752435 0 -5.55979e-05)
(-0.00745329 0 -5.65638e-05)
(-0.00738101 0 -5.74729e-05)
(-0.00730759 0 -5.83581e-05)
(-0.00723312 0 -5.91976e-05)
(-0.00715763 0 -6.0011e-05)
(-0.0070811 0 -6.08119e-05)
(-0.00700356 0 -6.15611e-05)
(-0.00692512 0 -6.20939e-05)
(-0.00684599 0 -6.24681e-05)
(-0.00676621 0 -6.28881e-05)
(-0.00668574 0 -6.3323e-05)
(-0.00660471 0 -6.36634e-05)
(-0.00652339 0 -6.38233e-05)
(-0.00644186 0 -6.4175e-05)
(-0.00636 0 -6.46118e-05)
(-0.00627784 0 -6.49606e-05)
(-0.00619546 0 -6.52078e-05)
(-0.00611286 0 -6.53863e-05)
(-0.00603004 0 -6.54462e-05)
(-0.00594714 0 -6.52732e-05)
(-0.00586424 0 -6.51755e-05)
(-0.00578129 0 -6.51077e-05)
(-0.00569836 0 -6.50642e-05)
(-0.00561545 0 -6.50637e-05)
(-0.0055326 0 -6.50554e-05)
(-0.00544985 0 -6.50776e-05)
(-0.00536717 0 -6.51008e-05)
(-0.00528462 0 -6.50174e-05)
(-0.00520228 0 -6.48862e-05)
(-0.00512019 0 -6.46874e-05)
(-0.00503836 0 -6.44133e-05)
(-0.00495679 0 -6.40723e-05)
(-0.00487553 0 -6.36746e-05)
(-0.0047946 0 -6.33068e-05)
(-0.00471406 0 -6.29602e-05)
(-0.00463396 0 -6.26721e-05)
(-0.00455431 0 -6.23695e-05)
(-0.00447515 0 -6.20559e-05)
(-0.00439644 0 -6.1705e-05)
(-0.0043182 0 -6.12682e-05)
(-0.00424047 0 -6.07725e-05)
(-0.00416332 0 -6.02414e-05)
(-0.00408677 0 -5.97158e-05)
(-0.00401082 0 -5.92049e-05)
(-0.00393551 0 -5.86826e-05)
(-0.00386088 0 -5.81219e-05)
(-0.003787 0 -5.75341e-05)
(-0.00371389 0 -5.69463e-05)
(-0.00364156 0 -5.6363e-05)
(-0.00357002 0 -5.57435e-05)
(-0.00349929 0 -5.50935e-05)
(-0.00342936 0 -5.44872e-05)
(-0.00336016 0 -5.39515e-05)
(-0.00329163 0 -5.34357e-05)
(-0.00322381 0 -5.29168e-05)
(-0.00315674 0 -5.23442e-05)
(-0.00309049 0 -5.17014e-05)
(-0.0030251 0 -5.10049e-05)
(-0.00296058 0 -5.02819e-05)
(-0.00289691 0 -4.95552e-05)
(-0.00283411 0 -4.88425e-05)
(-0.00277218 0 -4.81513e-05)
(-0.00271114 0 -4.7469e-05)
(-0.00265099 0 -4.67792e-05)
(-0.00259175 0 -4.60822e-05)
(-0.0025334 0 -4.53901e-05)
(-0.00247595 0 -4.47067e-05)
(-0.00241939 0 -4.40088e-05)
(-0.00236377 0 -4.32803e-05)
(-0.0023091 0 -4.25429e-05)
(-0.00225538 0 -4.17991e-05)
(-0.00220259 0 -4.10484e-05)
(-0.00215074 0 -4.02932e-05)
(-0.00209984 0 -3.95368e-05)
(-0.0020499 0 -3.87799e-05)
(-0.00200093 0 -3.8026e-05)
(-0.00195293 0 -3.72768e-05)
(-0.00190587 0 -3.65488e-05)
(-0.00185972 0 -3.58635e-05)
(-0.00181441 0 -3.52261e-05)
(-0.00176992 0 -3.46077e-05)
(-0.00172622 0 -3.40061e-05)
(-0.0016833 0 -3.34137e-05)
(-0.00164114 0 -3.28353e-05)
(-0.00159973 0 -3.22672e-05)
(-0.00155905 0 -3.17004e-05)
(-0.0015191 0 -3.11257e-05)
(-0.00147989 0 -3.05394e-05)
(-0.00144143 0 -2.99368e-05)
(-0.00140376 0 -2.93099e-05)
(-0.00136688 0 -2.86585e-05)
(-0.00133083 0 -2.7989e-05)
(-0.00129562 0 -2.73169e-05)
(-0.00126124 0 -2.66562e-05)
(-0.00122767 0 -2.60121e-05)
(-0.00119492 0 -2.53807e-05)
(-0.00116295 0 -2.47626e-05)
(-0.00113174 0 -2.41609e-05)
(-0.00110129 0 -2.35821e-05)
(-0.00107154 0 -2.30343e-05)
(-0.00104247 0 -2.25201e-05)
(-0.00101402 0 -2.20358e-05)
(-0.00098619 0 -2.1573e-05)
(-0.00095894 0 -2.1127e-05)
(-0.000932263 0 -2.06893e-05)
(-0.00090615 0 -2.0256e-05)
(-0.0008806 0 -1.98221e-05)
(-0.000855613 0 -1.93845e-05)
(-0.000831191 0 -1.8942e-05)
(-0.000807336 0 -1.84963e-05)
(-0.000784048 0 -1.80523e-05)
(-0.00076132 0 -1.76146e-05)
(-0.000739143 0 -1.71864e-05)
(-0.000717503 0 -1.67685e-05)
(-0.000696386 0 -1.63587e-05)
(-0.000675782 0 -1.59548e-05)
(-0.000655683 0 -1.55571e-05)
(-0.000636085 0 -1.51692e-05)
(-0.000616981 0 -1.47951e-05)
(-0.000598362 0 -1.44313e-05)
(-0.000580218 0 -1.40652e-05)
(-0.000562553 0 -1.36798e-05)
(-0.000545385 0 -1.32695e-05)
(-0.000528734 0 -1.28502e-05)
(-0.000512601 0 -1.24474e-05)
(-0.000496957 0 -1.20746e-05)
(-0.000481767 0 -1.17246e-05)
(-0.000467002 0 -1.13875e-05)
(-0.000452646 0 -1.10711e-05)
(-0.000438674 0 -1.07944e-05)
(-0.000425043 0 -1.05599e-05)
(-0.000411715 0 -1.03412e-05)
(-0.00039869 0 -1.01024e-05)
(-0.000385997 0 -9.8354e-06)
(-0.00037366 0 -9.55993e-06)
(-0.000361676 0 -9.28768e-06)
(-0.000350035 0 -9.00748e-06)
(-0.00033875 0 -8.70823e-06)
(-0.000327838 0 -8.40261e-06)
(-0.000317298 0 -8.11746e-06)
(-0.000307096 0 -7.86398e-06)
(-0.000297199 0 -7.6323e-06)
(-0.000287587 0 -7.41485e-06)
(-0.000278244 0 -7.21734e-06)
(-0.000269144 0 -7.04049e-06)
(-0.000260271 0 -6.86927e-06)
(-0.00025163 0 -6.68845e-06)
(-0.000243231 0 -6.4955e-06)
(-0.000235081 0 -6.29125e-06)
(-0.000227192 0 -6.07339e-06)
(-0.000219578 0 -5.84768e-06)
(-0.00021224 0 -5.63264e-06)
(-0.000205154 0 -5.44317e-06)
(-0.000198285 0 -5.27785e-06)
(-0.000191606 0 -5.13031e-06)
(-0.000185104 0 -5.00179e-06)
(-0.000178761 0 -4.89282e-06)
(-0.000172563 0 -4.78952e-06)
(-0.000166517 0 -4.67004e-06)
(-0.000160646 0 -4.52461e-06)
(-0.000154973 0 -4.36209e-06)
(-0.000149504 0 -4.19817e-06)
(-0.000144231 0 -4.04195e-06)
(-0.00013914 0 -3.89759e-06)
(-0.000134213 0 -3.77153e-06)
(-0.000129425 0 -3.67145e-06)
(-0.000124748 0 -3.59673e-06)
(-0.000120164 0 -3.53409e-06)
(-0.000115672 0 -3.46609e-06)
(-0.000111285 0 -3.38387e-06)
(-0.000107019 0 -3.29118e-06)
(-0.000102878 0 -3.19608e-06)
(-9.88579e-05 0 -3.10046e-06)
(-9.49549e-05 0 -3.00291e-06)
(-9.11684e-05 0 -2.9115e-06)
(-8.74841e-05 0 -2.84241e-06)
(-8.38729e-05 0 -2.80103e-06)
(-8.03132e-05 0 -2.77278e-06)
(-7.6808e-05 0 -2.737e-06)
(-7.33784e-05 0 -2.67714e-06)
(-7.00513e-05 0 -2.58716e-06)
(-6.68496e-05 0 -2.47428e-06)
(-6.37818e-05 0 -2.35903e-06)
(-6.08342e-05 0 -2.26189e-06)
(-5.79801e-05 0 -2.19018e-06)
(-5.51953e-05 0 -2.14115e-06)
(-5.24647e-05 0 -2.106e-06)
(-4.97867e-05 0 -2.06888e-06)
(-4.71786e-05 0 -2.01351e-06)
(-4.46681e-05 0 -1.93329e-06)
(-4.22775e-05 0 -1.83241e-06)
(-4.00169e-05 0 -1.72107e-06)
(-3.78809e-05 0 -1.61598e-06)
(-3.58464e-05 0 -1.53896e-06)
(-3.38762e-05 0 -1.50435e-06)
(-3.19334e-05 0 -1.49996e-06)
(-3.00084e-05 0 -1.49354e-06)
(-2.81223e-05 0 -1.46239e-06)
(-2.63053e-05 0 -1.40848e-06)
(-2.45652e-05 0 -1.34659e-06)
(-2.28926e-05 0 -1.27919e-06)
(-2.12923e-05 0 -1.217e-06)
(-1.97483e-05 0 -1.18719e-06)
(-1.82294e-05 0 -1.18174e-06)
(-1.67341e-05 0 -1.16725e-06)
(-1.52847e-05 0 -1.12473e-06)
(-1.39055e-05 0 -1.05855e-06)
(-1.26043e-05 0 -9.91726e-07)
(-1.13673e-05 0 -9.42742e-07)
(-1.01614e-05 0 -9.23092e-07)
(-8.96881e-06 0 -9.06168e-07)
(-7.81343e-06 0 -8.96798e-07)
(-6.68313e-06 0 -8.79405e-07)
(-5.59284e-06 0 -8.46239e-07)
(-4.56575e-06 0 -7.86688e-07)
(-3.57808e-06 0 -7.68519e-07)
(-2.58164e-06 0 -7.20464e-07)
(-1.66399e-06 0 -6.90522e-07)
(-8.08581e-07 0 -6.55215e-07)
(-2.78549e-08 0 -6.62457e-07)
(5.34712e-07 0 -5.29425e-07)
(1.22237e-06 0 -5.1659e-07)
(2.10016e-06 0 -1.33491e-07)
(2.60278e-06 0 -2.5209e-07)
(3.77657e-06 0 -6.86841e-07)
(4.37461e-06 0 -1.09466e-06)
(6.22788e-06 0 -1.22591e-06)
(6.86109e-06 0 -8.46184e-07)
(8.13007e-06 0 -9.12176e-07)
(8.98698e-06 0 -8.01265e-07)
(9.96285e-06 0 -7.46402e-07)
(1.07654e-05 0 -6.09379e-07)
(1.14361e-05 0 -5.31041e-07)
(1.21179e-05 0 -5.12243e-07)
(1.27373e-05 0 -4.70921e-07)
(1.3354e-05 0 -5.58228e-07)
(1.40958e-05 0 -4.72868e-07)
(1.44985e-05 0 -3.16286e-07)
(1.48498e-05 0 -2.83251e-07)
(1.51867e-05 0 -2.66096e-07)
(1.55845e-05 0 -2.52746e-07)
(1.60082e-05 0 -1.93922e-07)
(1.63107e-05 0 -2.66165e-07)
(1.67549e-05 0 -3.91722e-07)
(1.72623e-05 0 -4.94209e-07)
(1.78882e-05 0 -5.65327e-07)
(1.83717e-05 0 -4.12424e-07)
(1.87828e-05 0 -4.12262e-07)
(1.92908e-05 0 -2.33222e-07)
(1.94622e-05 0 -1.98608e-07)
(1.97484e-05 0 -3.70903e-08)
(1.96984e-05 0 -1.54447e-07)
(2.01253e-05 0 -4.35129e-07)
(2.02666e-05 0 -2.33374e-08)
(2.02128e-05 0 -3.39461e-07)
(2.08679e-05 0 -1.29954e-07)
(2.07444e-05 0 -5.04492e-09)
(2.11415e-05 0 -1.0504e-07)
(2.07135e-05 0 -6.38746e-07)
(1.97765e-05 0 -1.70271e-07)
(1.98798e-05 0 1.2335e-07)
(1.9437e-05 0 2.94612e-06)
(1.85076e-05 0 1.59263e-06)
(2.19016e-05 0 1.08313e-06)
(1.98332e-05 0 -2.61789e-06)
(3.2245e-05 0 -3.91392e-06)
(3.17727e-05 0 2.66933e-07)
(3.54623e-05 0 1.13065e-06)
(3.72288e-05 0 1.85742e-06)
(3.81319e-05 0 2.08946e-06)
(3.85733e-05 0 2.10614e-06)
(3.86047e-05 0 2.11819e-06)
(3.82604e-05 0 2.23706e-06)
(3.7697e-05 0 2.33383e-06)
(3.70041e-05 0 2.3237e-06)
(3.61995e-05 0 2.25237e-06)
(3.53225e-05 0 2.11625e-06)
(3.44885e-05 0 1.88739e-06)
(3.3769e-05 0 1.63565e-06)
(3.31217e-05 0 1.47406e-06)
(3.24709e-05 0 1.41404e-06)
(3.17866e-05 0 1.36942e-06)
(3.1107e-05 0 1.2709e-06)
(3.04982e-05 0 1.12273e-06)
(2.99975e-05 0 9.73567e-07)
(2.95725e-05 0 8.61733e-07)
(2.91592e-05 0 8.06448e-07)
(2.87055e-05 0 8.04254e-07)
(2.81649e-05 0 8.36053e-07)
(2.75203e-05 0 8.79788e-07)
(2.6789e-05 0 9.10672e-07)
(2.60021e-05 0 9.16915e-07)
(2.52007e-05 0 8.95356e-07)
(2.44262e-05 0 8.44076e-07)
(2.37244e-05 0 7.47594e-07)
(2.31505e-05 0 6.0047e-07)
(2.27621e-05 0 3.87548e-07)
(2.26303e-05 0 1.25673e-07)
(2.27817e-05 0 -1.63481e-07)
(2.32159e-05 0 -4.32115e-07)
(2.38979e-05 0 -6.47127e-07)
(2.47489e-05 0 -7.85319e-07)
(2.57015e-05 0 -8.48463e-07)
(2.669e-05 0 -8.54131e-07)
(2.76664e-05 0 -8.23134e-07)
(2.85914e-05 0 -7.68202e-07)
(2.94237e-05 0 -6.84438e-07)
(3.01184e-05 0 -5.62128e-07)
(3.06171e-05 0 -3.97803e-07)
(3.08883e-05 0 -2.17216e-07)
(3.09572e-05 0 -6.10169e-08)
(3.08906e-05 0 3.13277e-08)
(3.07816e-05 0 3.10368e-08)
(3.07309e-05 0 -6.21817e-08)
(3.0832e-05 0 -2.32953e-07)
(3.11319e-05 0 -4.65152e-07)
(3.16538e-05 0 -6.95115e-07)
(3.23665e-05 0 -8.37194e-07)
(3.31078e-05 0 -7.81818e-07)
(3.36557e-05 0 -4.98668e-07)
(3.38293e-05 0 -1.38169e-07)
(3.37035e-05 0 6.30591e-08)
(3.36323e-05 0 -1.23612e-07)
(3.39375e-05 0 -6.29788e-07)
(3.45405e-05 0 -8.95403e-07)
(3.4997e-05 0 -5.68636e-07)
(3.47333e-05 0 2.75701e-07)
(3.36344e-05 0 9.38739e-07)
(3.23828e-05 0 8.83333e-07)
(3.17407e-05 0 1.32939e-07)
(3.16393e-05 0 -2.81781e-07)
(3.12386e-05 0 2.03517e-07)
(3.00605e-05 0 9.78398e-07)
(2.8658e-05 0 9.18423e-07)
(2.82233e-05 0 -1.68108e-07)
(2.87027e-05 0 -7.5641e-07)
(2.88168e-05 0 -2.64519e-07)
(2.8411e-05 0 1.11969e-07)
(2.85903e-05 0 -8.73396e-07)
(2.96869e-05 0 -1.77315e-06)
(3.03756e-05 0 -6.83105e-07)
(2.99129e-05 0 3.93879e-07)
(2.9319e-05 0 3.86089e-08)
(2.81549e-05 0 8.05026e-07)
(3.01502e-05 0 1.0266e-06)
(1.66827e-05 0 2.1906e-06)
(-0.0560461 0 -0.00359348)
(-0.0847296 0 -0.0020518)
(-0.0778451 0 -0.00218806)
(-0.0770321 0 -0.00238293)
(-0.0759958 0 -0.00217053)
(-0.0750034 0 -0.00225918)
(-0.0739735 0 -0.00238485)
(-0.0729315 0 -0.0024579)
(-0.0718481 0 -0.00256048)
(-0.0707453 0 -0.00264397)
(-0.0696316 0 -0.00265895)
(-0.0685049 0 -0.00266416)
(-0.0673597 0 -0.00266818)
(-0.0661971 0 -0.00267167)
(-0.0650231 0 -0.00277154)
(-0.0638443 0 -0.00284139)
(-0.0626518 0 -0.00287558)
(-0.0614396 0 -0.00289993)
(-0.0602226 0 -0.0028705)
(-0.0590033 0 -0.00274455)
(-0.0577611 0 -0.00267144)
(-0.0565113 0 -0.00286309)
(-0.0552732 0 -0.00309159)
(-0.0540425 0 -0.00299596)
(-0.0527958 0 -0.00278539)
(-0.0515353 0 -0.00277104)
(-0.0502799 0 -0.00278997)
(-0.0490466 0 -0.00289892)
(-0.0478147 0 -0.00293968)
(-0.0466412 0 -0.00253472)
(-0.0456101 0 -0.00242326)
(-0.0446187 0 -0.00267179)
(-0.043498 0 -0.00301807)
(-0.0421851 0 -0.00281884)
(-0.0408448 0 -0.00257336)
(-0.0397163 0 -0.00229236)
(-0.0386853 0 -0.00266792)
(-0.037693 0 -0.00288985)
(-0.0365943 0 -0.00243141)
(-0.0354021 0 -0.00242344)
(-0.0343336 0 -0.0020708)
(-0.0334005 0 -0.00204024)
(-0.0324015 0 -0.00262268)
(-0.0313356 0 -0.00273788)
(-0.0302419 0 -0.00224123)
(-0.0292837 0 -0.00199237)
(-0.028383 0 -0.00232147)
(-0.0275196 0 -0.00235592)
(-0.0266731 0 -0.00208152)
(-0.0258404 0 -0.00194584)
(-0.0249923 0 -0.00207538)
(-0.0241522 0 -0.00218124)
(-0.0233282 0 -0.00213155)
(-0.0225143 0 -0.00204403)
(-0.0217106 0 -0.0018864)
(-0.0209373 0 -0.00179883)
(-0.0201779 0 -0.00185456)
(-0.0194404 0 -0.00163537)
(-0.0187918 0 -0.00132907)
(-0.0182052 0 -0.00128797)
(-0.0175863 0 -0.00149561)
(-0.0169495 0 -0.00153477)
(-0.0164282 0 -0.00105852)
(-0.016003 0 -0.000971211)
(-0.0155794 0 -0.00100748)
(-0.0150947 0 -0.00125339)
(-0.014581 0 -0.00132527)
(-0.0140762 0 -0.00115346)
(-0.0135609 0 -0.00115704)
(-0.0131021 0 -0.00113614)
(-0.0127213 0 -0.0010184)
(-0.0123062 0 -0.00114396)
(-0.0118224 0 -0.00125813)
(-0.0113587 0 -0.00167887)
(-0.0109109 0 -0.0017096)
(-0.0104674 0 -0.00220299)
(-0.0101952 0 -0.00283048)
(-0.00990642 0 -0.00273357)
(-0.00897494 0 -0.00246228)
(-0.00807944 0 -0.00214175)
(-0.00666084 0 -0.00124386)
(-0.00666476 0 -0.000589409)
(-0.00470808 0 0.000271254)
(-0.00482953 0 0.000451598)
(-0.00415543 0 0.000395721)
(-0.00412472 0 0.00020366)
(-0.00420297 0 -0.000180702)
(-0.00431175 0 -4.48465e-06)
(-0.00459815 0 -4.46145e-05)
(-0.00466194 0 0.000114928)
(-0.00467077 0 7.20093e-05)
(-0.00461699 0 6.92736e-05)
(-0.00462935 0 -4.57913e-05)
(-0.0046554 0 -4.97606e-05)
(-0.00469571 0 -0.000131753)
(-0.00471978 0 -0.000217994)
(-0.00473866 0 -0.000487713)
(-0.00477171 0 -0.00070292)
(-0.004794 0 -0.000976945)
(-0.00495637 0 -0.000887141)
(-0.00454841 0 -0.000458197)
(-0.00439457 0 -0.000265096)
(-0.00343325 0 2.44254e-05)
(-0.00348919 0 0.000281067)
(-0.0032252 0 0.000625883)
(-0.00334473 0 0.000629415)
(-0.0033659 0 0.000274279)
(-0.00347899 0 0.00021198)
(-0.00364789 0 0.000197631)
(-0.0039074 0 0.000244339)
(-0.0040466 0 0.000244309)
(-0.00413305 0 0.000264799)
(-0.00425417 0 0.000195395)
(-0.00433759 0 7.65133e-05)
(-0.00446627 0 -8.94862e-05)
(-0.00458929 0 -0.000301584)
(-0.00471449 0 -0.000616028)
(-0.00494348 0 -0.000537504)
(-0.00474166 0 -0.000173016)
(-0.00475672 0 -0.00010944)
(-0.00390183 0 0.000145247)
(-0.00406577 0 0.000371573)
(-0.00392607 0 0.000716475)
(-0.00412203 0 0.000693593)
(-0.00421436 0 0.000390124)
(-0.00442575 0 0.00038292)
(-0.00469347 0 0.00034819)
(-0.00486762 0 0.000386426)
(-0.00500956 0 0.000421213)
(-0.00517469 0 0.000397936)
(-0.00532147 0 0.000343869)
(-0.00547738 0 0.000363253)
(-0.00563638 0 0.000352922)
(-0.00578311 0 0.000343886)
(-0.00592344 0 0.000328772)
(-0.00606237 0 0.000315668)
(-0.00620223 0 0.000335972)
(-0.00633984 0 0.000325364)
(-0.00647342 0 0.000315324)
(-0.00660518 0 0.000296516)
(-0.00673481 0 0.00030164)
(-0.00686113 0 0.000295066)
(-0.00698045 0 0.00028397)
(-0.00709877 0 0.000276966)
(-0.00721534 0 0.000270638)
(-0.00732485 0 0.000258104)
(-0.0074293 0 0.000243542)
(-0.0075312 0 0.000233963)
(-0.00763063 0 0.000231753)
(-0.00772483 0 0.000221297)
(-0.00781418 0 0.000212006)
(-0.00789961 0 0.000201036)
(-0.00798051 0 0.000183576)
(-0.00805667 0 0.000169665)
(-0.00812893 0 0.000169007)
(-0.00819725 0 0.000160541)
(-0.00826163 0 0.000148013)
(-0.00832128 0 0.000132787)
(-0.00837654 0 0.000123828)
(-0.00842812 0 0.000119436)
(-0.00847621 0 0.000110318)
(-0.00852056 0 9.73256e-05)
(-0.00856048 0 8.66196e-05)
(-0.00859618 0 8.16642e-05)
(-0.00862832 0 7.38571e-05)
(-0.0086581 0 6.61424e-05)
(-0.00868346 0 5.48544e-05)
(-0.00870377 0 4.6549e-05)
(-0.00872083 0 3.98675e-05)
(-0.00873598 0 3.36874e-05)
(-0.00874748 0 2.41055e-05)
(-0.00875388 0 1.51042e-05)
(-0.008757 0 7.40041e-06)
(-0.00875797 0 1.14768e-06)
(-0.00875522 0 -7.58961e-06)
(-0.00874799 0 -1.53576e-05)
(-0.00873808 0 -2.25566e-05)
(-0.00872557 0 -2.96482e-05)
(-0.00870976 0 -3.69608e-05)
(-0.00869048 0 -4.39648e-05)
(-0.0086686 0 -5.07581e-05)
(-0.00864411 0 -5.75199e-05)
(-0.00861678 0 -6.42767e-05)
(-0.00858675 0 -7.07465e-05)
(-0.00855422 0 -7.73666e-05)
(-0.00851913 0 -8.38145e-05)
(-0.00848144 0 -8.98525e-05)
(-0.00844123 0 -9.54934e-05)
(-0.00839869 0 -0.000101299)
(-0.00835393 0 -0.000107025)
(-0.00830703 0 -0.000112488)
(-0.00825815 0 -0.000117265)
(-0.00820727 0 -0.000122365)
(-0.00815425 0 -0.000127458)
(-0.00809917 0 -0.000132174)
(-0.00804214 0 -0.000136615)
(-0.00798329 0 -0.000140912)
(-0.00792276 0 -0.000144991)
(-0.00786057 0 -0.000148888)
(-0.00779676 0 -0.000152715)
(-0.00773141 0 -0.000156403)
(-0.00766447 0 -0.000159997)
(-0.007596 0 -0.000163364)
(-0.00752612 0 -0.000166511)
(-0.00745489 0 -0.000169415)
(-0.00738234 0 -0.000172074)
(-0.00730869 0 -0.000174467)
(-0.00723422 0 -0.000176634)
(-0.00715877 0 -0.000179104)
(-0.00708224 0 -0.000181343)
(-0.00700488 0 -0.000183433)
(-0.00692671 0 -0.000185154)
(-0.00684772 0 -0.00018659)
(-0.00676798 0 -0.000188057)
(-0.00668754 0 -0.000189528)
(-0.00660652 0 -0.000190719)
(-0.00652497 0 -0.000191571)
(-0.00644299 0 -0.000192596)
(-0.00636074 0 -0.000193629)
(-0.00627831 0 -0.000194437)
(-0.00619574 0 -0.000195012)
(-0.00611305 0 -0.000195449)
(-0.00603028 0 -0.000195688)
(-0.00594739 0 -0.000195585)
(-0.00586442 0 -0.00019555)
(-0.00578142 0 -0.00019558)
(-0.0056984 0 -0.000195627)
(-0.00561535 0 -0.00019573)
(-0.00553228 0 -0.00019568)
(-0.00544933 0 -0.000195584)
(-0.00536655 0 -0.000195427)
(-0.00528396 0 -0.000195028)
(-0.00520162 0 -0.000194489)
(-0.00511958 0 -0.000193865)
(-0.00503774 0 -0.000193197)
(-0.00495608 0 -0.000192426)
(-0.00487464 0 -0.000191562)
(-0.00479345 0 -0.000190683)
(-0.00471267 0 -0.000189591)
(-0.00463245 0 -0.000188527)
(-0.00455275 0 -0.000187403)
(-0.0044736 0 -0.000186269)
(-0.00439496 0 -0.000185131)
(-0.00431681 0 -0.000183894)
(-0.00423915 0 -0.000182564)
(-0.00416203 0 -0.000181122)
(-0.00408547 0 -0.000179658)
(-0.00400951 0 -0.00017816)
(-0.00393418 0 -0.000176578)
(-0.00385952 0 -0.000174907)
(-0.00378553 0 -0.000173176)
(-0.00371224 0 -0.00017144)
(-0.00363968 0 -0.000169715)
(-0.00356786 0 -0.000167922)
(-0.0034968 0 -0.000166048)
(-0.00342657 0 -0.000164212)
(-0.00335717 0 -0.000162476)
(-0.00328861 0 -0.000160755)
(-0.00322087 0 -0.000159026)
(-0.00315394 0 -0.000157197)
(-0.00308784 0 -0.000155242)
(-0.00302257 0 -0.000153202)
(-0.00295813 0 -0.00015112)
(-0.00289452 0 -0.000149018)
(-0.00283174 0 -0.000146913)
(-0.00276982 0 -0.000144826)
(-0.00270876 0 -0.00014275)
(-0.0026486 0 -0.000140666)
(-0.00258934 0 -0.000138568)
(-0.00253099 0 -0.000136462)
(-0.00247357 0 -0.000134348)
(-0.00241709 0 -0.00013218)
(-0.00236155 0 -0.000129942)
(-0.00230698 0 -0.000127689)
(-0.00225336 0 -0.000125444)
(-0.00220069 0 -0.000123213)
(-0.00214894 0 -0.000120988)
(-0.00209811 0 -0.000118773)
(-0.00204818 0 -0.000116561)
(-0.00199915 0 -0.000114357)
(-0.00195102 0 -0.000112161)
(-0.00190379 0 -0.000110004)
(-0.00185744 0 -0.000107932)
(-0.00181198 0 -0.000105969)
(-0.00176736 0 -0.000104064)
(-0.00172358 0 -0.00010221)
(-0.00168062 0 -0.000100388)
(-0.00163846 0 -9.86016e-05)
(-0.0015971 0 -9.6841e-05)
(-0.00155651 0 -9.50858e-05)
(-0.0015167 0 -9.33143e-05)
(-0.00147767 0 -9.15149e-05)
(-0.00143942 0 -8.96782e-05)
(-0.00140195 0 -8.77939e-05)
(-0.00136526 0 -8.58694e-05)
(-0.00132935 0 -8.39173e-05)
(-0.00129423 0 -8.19657e-05)
(-0.00125989 0 -8.00379e-05)
(-0.00122633 0 -7.81455e-05)
(-0.00119353 0 -7.62881e-05)
(-0.00116149 0 -7.44686e-05)
(-0.00113018 0 -7.26988e-05)
(-0.00109959 0 -7.09936e-05)
(-0.00106969 0 -6.93672e-05)
(-0.00104046 0 -6.78199e-05)
(-0.00101189 0 -6.63431e-05)
(-0.000983951 0 -6.49195e-05)
(-0.000956636 0 -6.35381e-05)
(-0.000929932 0 -6.21813e-05)
(-0.00090383 0 -6.08406e-05)
(-0.000878319 0 -5.95067e-05)
(-0.000853391 0 -5.81734e-05)
(-0.000829039 0 -5.68388e-05)
(-0.000805253 0 -5.5505e-05)
(-0.000782026 0 -5.41788e-05)
(-0.000759351 0 -5.28686e-05)
(-0.000737223 0 -5.15836e-05)
(-0.000715631 0 -5.03298e-05)
(-0.000694566 0 -4.91068e-05)
(-0.000674014 0 -4.79073e-05)
(-0.00065397 0 -4.67209e-05)
(-0.000634432 0 -4.55432e-05)
(-0.000615405 0 -4.43784e-05)
(-0.000596893 0 -4.32322e-05)
(-0.000578889 0 -4.20972e-05)
(-0.000561376 0 -4.09483e-05)
(-0.00054434 0 -3.97644e-05)
(-0.000527773 0 -3.85591e-05)
(-0.000511676 0 -3.73804e-05)
(-0.000496038 0 -3.62748e-05)
(-0.000480838 0 -3.52489e-05)
(-0.000466046 0 -3.42783e-05)
(-0.000451647 0 -3.33531e-05)
(-0.000437638 0 -3.24972e-05)
(-0.000424012 0 -3.1727e-05)
(-0.000410746 0 -3.10035e-05)
(-0.000397825 0 -3.02508e-05)
(-0.000385254 0 -2.94336e-05)
(-0.000373048 0 -2.8586e-05)
(-0.000361207 0 -2.77504e-05)
(-0.000349713 0 -2.69215e-05)
(-0.000338544 0 -2.60722e-05)
(-0.000327697 0 -2.52128e-05)
(-0.000317174 0 -2.43936e-05)
(-0.000306964 0 -2.36466e-05)
(-0.00029705 0 -2.29571e-05)
(-0.000287424 0 -2.23043e-05)
(-0.000278083 0 -2.16939e-05)
(-0.000269015 0 -2.11272e-05)
(-0.00026021 0 -2.0574e-05)
(-0.000251662 0 -2.0005e-05)
(-0.000243369 0 -1.94194e-05)
(-0.000235318 0 -1.88212e-05)
(-0.000227502 0 -1.82013e-05)
(-0.000219919 0 -1.75674e-05)
(-0.000212566 0 -1.69621e-05)
(-0.000205428 0 -1.64251e-05)
(-0.000198484 0 -1.59543e-05)
(-0.000191726 0 -1.55242e-05)
(-0.000185155 0 -1.51226e-05)
(-0.000178777 0 -1.47482e-05)
(-0.000172588 0 -1.4382e-05)
(-0.000166585 0 -1.39882e-05)
(-0.000160767 0 -1.35483e-05)
(-0.000155133 0 -1.30786e-05)
(-0.000149677 0 -1.26121e-05)
(-0.000144386 0 -1.21735e-05)
(-0.000139246 0 -1.1775e-05)
(-0.000134247 0 -1.1427e-05)
(-0.000129384 0 -1.11366e-05)
(-0.000124647 0 -1.08949e-05)
(-0.000120031 0 -1.0673e-05)
(-0.000115533 0 -1.0437e-05)
(-0.000111154 0 -1.01702e-05)
(-0.000106902 0 -9.88273e-06)
(-0.000102772 0 -9.59695e-06)
(-9.8754e-05 0 -9.32193e-06)
(-9.48328e-05 0 -9.05318e-06)
(-9.10068e-05 0 -8.80115e-06)
(-8.72793e-05 0 -8.59554e-06)
(-8.36483e-05 0 -8.44341e-06)
(-8.01113e-05 0 -8.30603e-06)
(-7.66747e-05 0 -8.13592e-06)
(-7.33474e-05 0 -7.91094e-06)
(-7.01277e-05 0 -7.63796e-06)
(-6.70054e-05 0 -7.34138e-06)
(-6.39692e-05 0 -7.05956e-06)
(-6.10074e-05 0 -6.82625e-06)
(-5.81113e-05 0 -6.64659e-06)
(-5.52819e-05 0 -6.50266e-06)
(-5.25303e-05 0 -6.36784e-06)
(-4.9871e-05 0 -6.20931e-06)
(-4.73163e-05 0 -6.00041e-06)
(-4.48692e-05 0 -5.74074e-06)
(-4.25223e-05 0 -5.45252e-06)
(-4.02639e-05 0 -5.16748e-06)
(-3.80802e-05 0 -4.92022e-06)
(-3.59599e-05 0 -4.73962e-06)
(-3.39006e-05 0 -4.63459e-06)
(-3.19064e-05 0 -4.57477e-06)
(-2.99832e-05 0 -4.49856e-06)
(-2.81352e-05 0 -4.36486e-06)
(-2.63619e-05 0 -4.18995e-06)
(-2.4645e-05 0 -4.02377e-06)
(-2.29601e-05 0 -3.87007e-06)
(-2.13144e-05 0 -3.72758e-06)
(-1.97233e-05 0 -3.62964e-06)
(-1.81975e-05 0 -3.55768e-06)
(-1.67448e-05 0 -3.4613e-06)
(-1.53487e-05 0 -3.31843e-06)
(-1.4001e-05 0 -3.14854e-06)
(-1.26881e-05 0 -2.99073e-06)
(-1.14155e-05 0 -2.89121e-06)
(-1.0168e-05 0 -2.84305e-06)
(-8.95396e-06 0 -2.78504e-06)
(-7.79921e-06 0 -2.68768e-06)
(-6.68894e-06 0 -2.60789e-06)
(-5.59844e-06 0 -2.46577e-06)
(-4.59216e-06 0 -2.37077e-06)
(-3.60066e-06 0 -2.33242e-06)
(-2.67594e-06 0 -2.29769e-06)
(-1.89714e-06 0 -2.07148e-06)
(-1.03911e-06 0 -1.92829e-06)
(-4.01587e-10 0 -1.42004e-06)
(7.22633e-07 0 -1.4055e-06)
(1.93835e-06 0 -1.94133e-06)
(2.62096e-06 0 -2.09838e-06)
(4.59875e-06 0 -2.3088e-06)
(5.27869e-06 0 -2.26048e-06)
(6.43153e-06 0 -2.6381e-06)
(6.91026e-06 0 -2.62058e-06)
(7.71303e-06 0 -2.24352e-06)
(8.48725e-06 0 -2.31918e-06)
(9.24738e-06 0 -2.13045e-06)
(1.00096e-05 0 -2.00655e-06)
(1.07372e-05 0 -1.71678e-06)
(1.13984e-05 0 -1.5746e-06)
(1.20596e-05 0 -1.53427e-06)
(1.26513e-05 0 -1.45717e-06)
(1.32236e-05 0 -1.57165e-06)
(1.38365e-05 0 -1.33828e-06)
(1.43005e-05 0 -8.47448e-07)
(1.47378e-05 0 -8.30584e-07)
(1.5245e-05 0 -8.65209e-07)
(1.56634e-05 0 -1.07369e-06)
(1.63332e-05 0 -9.42437e-07)
(1.66853e-05 0 -9.21728e-07)
(1.72026e-05 0 -1.15498e-06)
(1.75615e-05 0 -1.26886e-06)
(1.80437e-05 0 -1.28469e-06)
(1.8243e-05 0 -9.26936e-07)
(1.85683e-05 0 -1.18364e-06)
(1.90405e-05 0 -7.92482e-07)
(1.91744e-05 0 -6.63536e-07)
(1.94275e-05 0 -3.2286e-07)
(1.98118e-05 0 -5.33332e-07)
(2.02211e-05 0 -4.78447e-07)
(2.03526e-05 0 -1.74121e-07)
(2.09604e-05 0 -5.97413e-07)
(2.05788e-05 0 -9.24783e-07)
(1.98068e-05 0 -3.32968e-07)
(2.00159e-05 0 -2.48254e-07)
(2.0079e-05 0 2.95524e-06)
(1.97393e-05 0 1.15037e-06)
(2.44519e-05 0 3.22157e-07)
(2.28692e-05 0 -1.52688e-06)
(3.76374e-05 0 -6.58803e-06)
(3.73718e-05 0 -4.8054e-06)