/*--------------------------------*- C++ -*----------------------------------*\
| =========                 |                                                 |
| \\      /  F ield         | OpenFOAM: The Open Source CFD Toolbox           |
|  \\    /   O peration     | Version:  v2006                                 |
|   \\  /    A nd           | Website:  www.openfoam.com                      |
|    \\/     M anipulation  |                                                 |
\*---------------------------------------------------------------------------*/
FoamFile
{
    version     2.0;
    format      ascii;
    class       surfaceScalarField;
    location    "7";
    object      alphaPhi0.water;
}
// * * * * * * * * * * * * * * * * * * * * * * * * * * * * * * * * * * * * * //

dimensions      [0 3 -1 0 0 0 0];
oriented        oriented;


internalField   nonuniform List<scalar> 
65390
(
4.81555e-05
2.33699e-07
4.77942e-05
3.61414e-07
4.71568e-05
6.37516e-07
4.65113e-05
6.45447e-07
4.6595e-05
-8.3693e-08
4.94431e-05
-2.84806e-06
5.75923e-05
-8.14916e-06
6.81832e-05
-1.05909e-05
7.64077e-05
-8.22451e-06
7.95087e-05
-3.10089e-06
7.96915e-05
-1.82805e-07
7.92834e-05
4.08111e-07
7.93899e-05
-1.0648e-07
8.01475e-05
-7.57554e-07
8.17193e-05
-1.57182e-06
8.37699e-05
-2.05051e-06
8.60634e-05
-2.29352e-06
8.87842e-05
-2.72081e-06
9.18928e-05
-3.10857e-06
9.44832e-05
-2.59039e-06
9.56224e-05
-1.13927e-06
9.54487e-05
1.73634e-07
9.37753e-05
1.67333e-06
9.01926e-05
3.58247e-06
8.38752e-05
6.31695e-06
7.6098e-05
7.77236e-06
6.94179e-05
6.67558e-06
6.48169e-05
4.60432e-06
6.19662e-05
2.85251e-06
5.99414e-05
2.02475e-06
5.79528e-05
1.98866e-06
5.58991e-05
2.04643e-06
5.40191e-05
1.85096e-06
5.22064e-05
1.81272e-06
5.05806e-05
1.64674e-06
4.96893e-05
9.02393e-07
4.95194e-05
1.70404e-07
4.95772e-05
-5.77628e-08
4.9512e-05
6.34382e-08
4.86038e-05
8.6509e-07
4.72256e-05
1.40118e-06
4.62227e-05
1.01953e-06
4.61309e-05
9.48433e-08
4.64292e-05
-2.9822e-07
4.6685e-05
-2.55893e-07
4.64798e-05
1.98674e-07
4.56414e-05
8.33299e-07
4.48726e-05
7.7313e-07
4.46822e-05
1.95559e-07
4.50174e-05
-3.33555e-07
4.55091e-05
-4.91914e-07
4.60261e-05
-5.17508e-07
4.65889e-05
-5.63051e-07
4.71607e-05
-5.71581e-07
4.7538e-05
-3.77347e-07
4.74093e-05
1.28661e-07
4.6762e-05
6.36817e-07
4.57859e-05
9.35415e-07
4.50753e-05
7.44876e-07
4.4793e-05
2.95744e-07
4.4563e-05
2.31889e-07
4.40977e-05
4.65254e-07
4.36106e-05
4.86971e-07
4.35957e-05
1.54878e-08
4.42984e-05
-7.02582e-07
4.54429e-05
-1.14452e-06
4.66108e-05
-1.16812e-06
4.75534e-05
-9.43149e-07
4.82204e-05
-6.69216e-07
4.87274e-05
-5.26935e-07
4.92761e-05
-5.48974e-07
5.00323e-05
-7.5592e-07
5.12909e-05
-1.25553e-06
5.27537e-05
-1.46322e-06
5.39011e-05
-1.14657e-06
5.41161e-05
-2.15855e-07
5.22537e-05
1.87814e-06
4.6034e-05
6.22389e-06
3.85007e-05
7.53352e-06
3.40277e-05
4.47298e-06
3.01858e-05
3.84186e-06
2.87232e-05
1.46257e-06
2.70024e-05
1.72084e-06
2.64911e-05
5.11121e-07
2.68483e-05
-3.57684e-07
2.64735e-05
3.73495e-07
2.61878e-05
2.83917e-07
2.61962e-05
-1.16225e-08
2.63896e-05
-1.94548e-07
2.65008e-05
-1.11176e-07
2.6731e-05
-2.30258e-07
2.70622e-05
-3.24332e-07
2.73459e-05
-2.83235e-07
2.76612e-05
-3.15254e-07
2.79268e-05
-2.65646e-07
2.82703e-05
-3.43946e-07
2.83343e-05
-6.32797e-08
2.8251e-05
8.34486e-08
2.6835e-05
1.416e-06
2.44025e-05
2.43243e-06
2.26869e-05
1.7119e-06
2.19779e-05
7.07082e-07
2.2141e-05
-1.63063e-07
2.21689e-05
-2.78638e-08
2.2617e-05
-4.48107e-07
2.32238e-05
-6.068e-07
2.35713e-05
-3.44015e-07
2.37642e-05
-1.91023e-07
2.38828e-05
-1.18621e-07
2.40789e-05
-1.96354e-07
2.41673e-05
-9.28212e-08
2.42733e-05
-1.06046e-07
2.42976e-05
-2.2179e-08
2.42389e-05
6.14774e-08
2.389e-05
3.49233e-07
2.33646e-05
5.25e-07
2.1969e-05
1.39289e-06
2.03074e-05
1.66102e-06
1.93488e-05
9.58607e-07
1.91775e-05
1.72735e-07
1.94573e-05
-2.786e-07
1.95163e-05
-5.9075e-08
1.9843e-05
-3.26603e-07
2.02218e-05
-3.869e-07
2.03549e-05
-1.27887e-07
2.04497e-05
-9.18558e-08
2.05303e-05
-8.06501e-08
2.0572e-05
-4.17346e-08
2.06225e-05
-5.05623e-08
2.06563e-05
-3.44768e-08
2.06343e-05
1.86765e-08
2.05868e-05
5.00117e-08
2.05162e-05
7.21395e-08
2.04193e-05
9.68713e-08
2.02968e-05
1.22487e-07
2.0149e-05
1.47775e-07
1.99824e-05
1.66511e-07
1.97924e-05
1.89985e-07
1.95814e-05
2.1096e-07
1.9341e-05
2.39435e-07
1.90681e-05
2.70053e-07
1.87708e-05
2.97298e-07
1.84468e-05
3.23969e-07
1.81051e-05
3.44732e-07
1.77401e-05
3.64943e-07
1.73472e-05
3.92847e-07
1.69218e-05
4.25423e-07
1.64586e-05
4.61856e-07
1.59665e-05
4.91938e-07
1.54613e-05
5.06667e-07
1.49338e-05
5.27729e-07
1.43749e-05
5.588e-07
1.3779e-05
5.93933e-07
1.31546e-05
6.2431e-07
1.25049e-05
6.4967e-07
1.18341e-05
6.72641e-07
1.11392e-05
6.95018e-07
1.04194e-05
7.19852e-07
9.67788e-06
7.41457e-07
8.91606e-06
7.61689e-07
8.12759e-06
7.87935e-07
7.31746e-06
8.10161e-07
6.50196e-06
8.1571e-07
5.68179e-06
8.20173e-07
4.8479e-06
8.33751e-07
4.00159e-06
8.46212e-07
3.16335e-06
8.38294e-07
2.34472e-06
8.18598e-07
1.53698e-06
8.0771e-07
7.37895e-07
7.99003e-07
-4.31995e-08
7.8097e-07
-7.93561e-07
7.50256e-07
-1.50404e-06
7.10437e-07
-2.18343e-06
6.79372e-07
-2.83811e-06
6.54795e-07
-3.47406e-06
6.36292e-07
-4.09452e-06
6.20478e-07
-4.69181e-06
5.97141e-07
-5.26318e-06
5.70671e-07
-5.80962e-06
5.46416e-07
-6.32986e-06
5.20224e-07
-6.82323e-06
4.93587e-07
-7.2969e-06
4.74116e-07
-7.75401e-06
4.57111e-07
-8.19599e-06
4.4198e-07
-8.62355e-06
4.26614e-07
-9.02914e-06
4.0558e-07
-9.41207e-06
3.8291e-07
-9.77438e-06
3.62556e-07
-1.01189e-05
3.45547e-07
-1.04513e-05
3.32355e-07
-1.07689e-05
3.17582e-07
-1.1072e-05
3.01771e-07
-1.13569e-05
2.84644e-07
-1.16232e-05
2.66262e-07
-1.1872e-05
2.48869e-07
-1.21058e-05
2.33804e-07
-1.23277e-05
2.22662e-07
-1.25402e-05
2.13159e-07
-1.27411e-05
2.00977e-07
-1.29286e-05
1.86775e-07
-1.30989e-05
1.69389e-07
-1.32537e-05
1.54837e-07
-1.33981e-05
1.44404e-07
-1.35331e-05
1.35079e-07
-1.36576e-05
1.25145e-07
-1.37721e-05
1.14329e-07
-1.38738e-05
1.01246e-07
-1.39635e-05
8.97051e-08
-1.40452e-05
8.16746e-08
-1.41207e-05
7.62046e-08
-1.41894e-05
6.84343e-08
-1.42444e-05
5.4305e-08
-1.42863e-05
4.18447e-08
-1.43199e-05
3.3723e-08
-1.43467e-05
2.75552e-08
-1.437e-05
2.39092e-08
-1.43895e-05
1.9401e-08
-1.44022e-05
1.1606e-08
-1.44037e-05
1.2803e-09
-1.43948e-05
-8.90971e-09
-1.43793e-05
-1.55043e-08
-1.43585e-05
-2.02615e-08
-1.43353e-05
-2.25413e-08
-1.43101e-05
-2.51901e-08
-1.42807e-05
-3.03429e-08
-1.42441e-05
-3.68273e-08
-1.42003e-05
-4.38161e-08
-1.41512e-05
-4.91605e-08
-1.40982e-05
-5.25866e-08
-1.40446e-05
-5.2974e-08
-1.39917e-05
-5.28488e-08
-1.39361e-05
-5.62348e-08
-1.38749e-05
-6.13216e-08
-1.38097e-05
-6.51463e-08
-1.37411e-05
-6.83575e-08
-1.36712e-05
-6.99191e-08
-1.3601e-05
-7.01867e-08
-1.35309e-05
-7.06578e-08
-1.34597e-05
-7.12092e-08
-1.33888e-05
-7.09161e-08
-1.33173e-05
-7.10261e-08
-1.32456e-05
-7.19233e-08
-1.31716e-05
-7.42945e-08
-1.30948e-05
-7.68035e-08
-1.30178e-05
-7.70335e-08
-1.29418e-05
-7.58642e-08
-1.2869e-05
-7.25505e-08
-1.27981e-05
-7.08621e-08
-1.27238e-05
-7.46835e-08
-1.26455e-05
-7.82422e-08
-1.25679e-05
-7.76043e-08
-1.24914e-05
-7.64087e-08
-1.24163e-05
-7.46548e-08
-1.23423e-05
-7.40799e-08
-1.22668e-05
-7.58774e-08
-1.21892e-05
-7.77842e-08
-1.21105e-05
-7.86558e-08
-1.20311e-05
-7.93862e-08
-1.19516e-05
-7.93314e-08
-1.18719e-05
-7.95428e-08
-1.17904e-05
-8.15011e-08
-1.17066e-05
-8.40891e-08
-1.16194e-05
-8.72359e-08
-1.15302e-05
-8.92058e-08
-1.14408e-05
-8.93042e-08
-1.13516e-05
-8.89404e-08
-1.12611e-05
-9.05302e-08
-1.11657e-05
-9.56738e-08
-1.10643e-05
-1.0142e-07
-1.09597e-05
-1.04513e-07
-1.08525e-05
-1.07181e-07
-1.07423e-05
-1.10143e-07
-1.06297e-05
-1.12262e-07
-1.05149e-05
-1.14788e-07
-1.03958e-05
-1.19303e-07
-1.02709e-05
-1.2498e-07
-1.01406e-05
-1.3025e-07
-1.00053e-05
-1.35305e-07
-9.86484e-06
-1.40473e-07
-9.71901e-06
-1.45824e-07
-9.5682e-06
-1.50699e-07
-9.41409e-06
-1.53988e-07
-9.25574e-06
-1.58442e-07
-9.08932e-06
-1.66445e-07
-8.91498e-06
-1.7434e-07
-8.73473e-06
-1.80244e-07
-8.54838e-06
-1.86347e-07
-8.35548e-06
-1.92838e-07
-8.15618e-06
-1.9917e-07
-7.95121e-06
-2.04975e-07
-7.73914e-06
-2.12117e-07
-7.51896e-06
-2.20227e-07
-7.29075e-06
-2.28214e-07
-7.05498e-06
-2.35763e-07
-6.81185e-06
-2.43105e-07
-6.56215e-06
-2.49644e-07
-6.30602e-06
-2.56141e-07
-6.04255e-06
-2.63514e-07
-5.77148e-06
-2.71086e-07
-5.49281e-06
-2.78674e-07
-5.20678e-06
-2.86015e-07
-4.91527e-06
-2.91485e-07
-4.61868e-06
-2.96589e-07
-4.31607e-06
-3.0264e-07
-4.00801e-06
-3.08064e-07
-3.69542e-06
-3.12582e-07
-3.37966e-06
-3.15767e-07
-3.06169e-06
-3.17977e-07
-2.74202e-06
-3.19687e-07
-2.4213e-06
-3.20727e-07
-2.10098e-06
-3.20315e-07
-1.78344e-06
-3.17535e-07
-1.47029e-06
-3.13154e-07
-1.1616e-06
-3.08705e-07
-8.57813e-07
-3.03794e-07
-5.60544e-07
-2.97281e-07
-2.71221e-07
-2.89336e-07
9.21652e-09
-2.80453e-07
2.80481e-07
-2.71281e-07
5.4268e-07
-2.62216e-07
7.96023e-07
-2.53361e-07
1.04063e-06
-2.44622e-07
1.27647e-06
-2.35866e-07
1.50409e-06
-2.27638e-07
1.72406e-06
-2.1998e-07
1.93642e-06
-2.12385e-07
2.14108e-06
-2.04678e-07
2.33816e-06
-1.97105e-07
2.52826e-06
-1.90125e-07
2.71178e-06
-1.83538e-07
2.88888e-06
-1.77121e-07
3.05935e-06
-1.70499e-07
3.22288e-06
-1.63574e-07
3.37995e-06
-1.57093e-07
3.53122e-06
-1.51285e-07
3.67708e-06
-1.45886e-07
3.81749e-06
-1.4044e-07
3.95241e-06
-1.3495e-07
4.08188e-06
-1.29507e-07
4.20607e-06
-1.24225e-07
4.32523e-06
-1.19181e-07
4.43961e-06
-1.14399e-07
4.54933e-06
-1.09748e-07
4.65437e-06
-1.05063e-07
4.75482e-06
-1.00474e-07
4.85087e-06
-9.60746e-08
4.94274e-06
-9.18968e-08
5.03059e-06
-8.78674e-08
5.11445e-06
-8.38771e-08
5.19423e-06
-7.97973e-08
5.26994e-06
-7.57404e-08
5.3419e-06
-7.19696e-08
5.4103e-06
-6.84078e-08
5.47506e-06
-6.47747e-08
5.53619e-06
-6.11294e-08
5.59375e-06
-5.75705e-08
5.6478e-06
-5.40474e-08
5.69839e-06
-5.05866e-08
5.74563e-06
-4.72334e-08
5.78955e-06
-4.39161e-08
5.83014e-06
-4.05785e-08
5.86742e-06
-3.72767e-08
5.90146e-06
-3.40293e-08
5.93218e-06
-3.07044e-08
5.95949e-06
-2.72988e-08
5.98344e-06
-2.39471e-08
6.00424e-06
-2.07935e-08
6.02208e-06
-1.78061e-08
6.03678e-06
-1.46782e-08
6.04819e-06
-1.13984e-08
6.05625e-06
-8.06162e-09
6.06122e-06
-4.96255e-09
6.06329e-06
-2.07373e-09
6.06242e-06
8.62263e-10
6.05849e-06
3.92678e-09
6.05144e-06
7.03316e-09
6.04142e-06
1.00148e-08
6.02834e-06
1.30647e-08
6.01198e-06
1.63055e-08
5.99266e-06
1.93249e-08
5.97073e-06
2.19227e-08
5.94622e-06
2.45001e-08
5.91899e-06
2.72226e-08
5.88892e-06
3.00542e-08
5.85614e-06
3.27678e-08
5.82053e-06
3.5606e-08
5.78231e-06
3.8223e-08
5.74167e-06
4.06315e-08
5.69864e-06
4.30175e-08
5.65293e-06
4.57061e-08
5.60451e-06
4.83877e-08
5.55378e-06
5.07415e-08
5.50093e-06
5.28439e-08
5.44571e-06
5.52044e-08
5.38832e-06
5.73695e-08
5.32862e-06
5.96797e-08
5.26643e-06
6.21574e-08
5.20177e-06
6.46481e-08
5.13497e-06
6.68006e-08
5.06637e-06
6.85838e-08
4.99623e-06
7.01268e-08
4.92419e-06
7.20247e-08
4.85033e-06
7.38443e-08
4.77444e-06
7.58678e-08
4.69673e-06
7.77346e-08
4.61779e-06
7.89437e-08
4.53817e-06
7.96166e-08
4.45745e-06
8.07255e-08
4.3758e-06
8.16443e-08
4.29264e-06
8.31677e-08
4.20861e-06
8.40522e-08
4.12335e-06
8.52745e-08
4.03827e-06
8.50926e-08
3.95257e-06
8.57005e-08
3.86516e-06
8.74186e-08
3.77775e-06
8.74097e-08
3.68768e-06
9.00668e-08
3.59684e-06
9.08377e-08
3.50799e-06
8.88464e-08
3.41911e-06
8.88644e-08
3.32852e-06
9.05812e-08
3.24004e-06
8.84631e-08
3.14527e-06
9.47441e-08
3.05083e-06
9.44258e-08
2.95836e-06
9.24443e-08
2.87076e-06
8.75847e-08
2.78142e-06
8.93179e-08
2.69776e-06
8.36355e-08
2.6345e-06
6.32406e-08
2.59481e-06
3.96721e-08
2.54344e-06
5.1357e-08
2.46539e-06
7.80343e-08
2.37758e-06
8.77949e-08
2.27582e-06
1.01752e-07
2.17298e-06
1.02819e-07
2.07156e-06
1.01408e-07
1.97166e-06
9.98893e-08
1.86925e-06
1.02399e-07
1.76774e-06
1.01506e-07
1.66656e-06
1.01169e-07
1.53477e-06
1.31785e-07
1.4021e-06
1.32656e-07
1.2832e-06
1.18901e-07
1.16712e-06
1.16065e-07
1.10136e-06
6.57563e-08
1.06826e-06
3.31068e-08
1.15358e-06
-8.5324e-08
1.31786e-06
-1.64277e-07
1.42647e-06
-1.08611e-07
1.48961e-06
-6.31451e-08
1.48949e-06
1.26237e-10
1.47196e-06
1.75333e-08
1.42932e-06
4.26352e-08
1.38101e-06
4.83194e-08
1.32047e-06
6.05366e-08
1.25028e-06
7.01868e-08
1.1892e-06
6.10837e-08
1.11437e-06
7.48285e-08
1.0479e-06
6.64704e-08
9.85194e-07
6.27008e-08
8.88456e-07
9.67362e-08
8.02573e-07
8.58817e-08
7.73133e-07
2.94387e-08
6.23745e-07
1.49388e-07
6.00864e-07
2.28809e-08
4.99999e-07
1.00862e-07
5.5966e-07
-5.9664e-08
4.25879e-07
1.33779e-07
2.61348e-07
1.64526e-07
5.04527e-07
-2.43193e-07
6.92544e-07
-1.88049e-07
8.45607e-07
-1.531e-07
9.00322e-07
-5.47202e-08
9.17591e-07
-1.72804e-08
9.10666e-07
6.92555e-09
8.88684e-07
2.19681e-08
8.52049e-07
3.66195e-08
8.03935e-07
4.81018e-08
7.52641e-07
5.12787e-08
7.01339e-07
5.12928e-08
6.46016e-07
5.53069e-08
5.89121e-07
5.68789e-08
5.31676e-07
5.74286e-08
4.72184e-07
5.94783e-08
4.16479e-07
5.56902e-08
3.6304e-07
5.34232e-08
3.09179e-07
5.38462e-08
2.54411e-07
5.47547e-08
2.05297e-07
4.91011e-08
1.61367e-07
4.39171e-08
1.17019e-07
4.43358e-08
7.18469e-08
4.51605e-08
2.7762e-08
4.40737e-08
-1.19801e-08
3.97316e-08
-4.71604e-08
3.51701e-08
-7.99806e-08
3.28104e-08
-1.09544e-07
2.95541e-08
-1.37087e-07
2.75337e-08
-1.61377e-07
2.42809e-08
-1.85779e-07
2.4394e-08
-2.09491e-07
2.37039e-08
-2.27567e-07
1.80679e-08
-2.38902e-07
1.13271e-08
-2.44519e-07
5.61007e-09
-2.46411e-07
1.88371e-09
-2.4621e-07
-2.07392e-10
-2.44314e-07
-1.90257e-09
-2.40522e-07
-3.79936e-09
-2.34388e-07
-6.1405e-09
-2.25501e-07
-8.89406e-09
-2.13264e-07
-1.2244e-08
-2.00234e-07
-1.30367e-08
-1.83538e-07
-1.67023e-08
-1.62325e-07
-2.12195e-08
-1.40835e-07
-2.14956e-08
-1.20477e-07
-2.03639e-08
-1.00009e-07
-2.04735e-08
-7.806e-08
-2.19548e-08
-5.37298e-08
-2.43357e-08
-2.6391e-08
-2.73442e-08
3.86237e-09
-3.02586e-08
3.65669e-08
-3.27097e-08
7.13143e-08
-3.47524e-08
1.07683e-07
-3.63736e-08
1.4535e-07
-3.76717e-08
1.84177e-07
-3.88317e-08
2.24435e-07
-4.02629e-08
2.66472e-07
-4.20411e-08
3.1032e-07
-4.38519e-08
3.55632e-07
-4.53165e-08
4.01618e-07
-4.59899e-08
4.47883e-07
-4.62684e-08
4.9487e-07
-4.69907e-08
5.43344e-07
-4.84772e-08
5.93656e-07
-5.03153e-08
6.44538e-07
-5.08848e-08
6.9566e-07
-5.11256e-08
7.46092e-07
-5.04349e-08
7.9892e-07
-5.283e-08
8.51136e-07
-5.22185e-08
9.03031e-07
-5.18974e-08
9.55661e-07
-5.26319e-08
1.01487e-06
-5.92162e-08
1.07874e-06
-6.3863e-08
1.14285e-06
-6.41169e-08
1.2076e-06
-6.47513e-08
1.27041e-06
-6.28128e-08
1.33408e-06
-6.36813e-08
-7.45798e-08
4.81996e-05
4.39781e-07
4.78328e-05
7.28169e-07
4.74927e-05
9.77661e-07
4.75238e-05
6.14286e-07
4.98911e-05
-2.45099e-06
5.85042e-05
-1.14612e-05
6.90756e-05
-1.87206e-05
7.89636e-05
-2.04789e-05
8.75708e-05
-1.68316e-05
9.17701e-05
-7.30005e-06
9.0946e-05
6.41346e-07
8.75808e-05
3.77351e-06
8.38833e-05
3.59109e-06
8.10086e-05
2.11723e-06
7.90687e-05
3.68076e-07
7.85008e-05
-1.48258e-06
7.95451e-05
-3.3379e-06
8.12957e-05
-4.47154e-06
8.28266e-05
-4.63949e-06
8.38521e-05
-3.61605e-06
8.40112e-05
-1.29842e-06
8.27532e-05
1.43148e-06
7.96048e-05
4.82159e-06
7.51252e-05
8.06167e-06
7.10548e-05
1.03868e-05
6.78898e-05
1.09221e-05
6.49322e-05
9.63469e-06
6.25854e-05
6.95786e-06
6.06192e-05
4.82026e-06
5.87971e-05
3.84684e-06
5.698e-05
3.80428e-06
5.50747e-05
3.92669e-06
5.32914e-05
3.61808e-06
5.17473e-05
3.35676e-06
5.05742e-05
2.83775e-06
4.9843e-05
1.65041e-06
4.94807e-05
5.35604e-07
4.9247e-05
1.75122e-07
4.89349e-05
3.62838e-07
4.83312e-05
1.44668e-06
4.77744e-05
1.95855e-06
4.71339e-05
1.67871e-06
4.67814e-05
4.60394e-07
4.67512e-05
-2.67483e-07
4.67497e-05
-2.57353e-07
4.65177e-05
4.13496e-07
4.60918e-05
1.2592e-06
4.55851e-05
1.28753e-06
4.51166e-05
6.73907e-07
4.50638e-05
-2.78568e-07
4.53297e-05
-7.57901e-07
4.57255e-05
-9.13275e-07
4.60994e-05
-9.37053e-07
4.63648e-05
-8.37657e-07
4.63082e-05
-3.26781e-07
4.59451e-05
4.67295e-07
4.56926e-05
8.89302e-07
4.57606e-05
8.67443e-07
4.58182e-05
6.87313e-07
4.56376e-05
4.97435e-07
4.5217e-05
6.51913e-07
4.45919e-05
1.08487e-06
4.40224e-05
1.06132e-06
4.37411e-05
3.03205e-07
4.40647e-05
-1.02503e-06
4.44933e-05
-1.57354e-06
4.48907e-05
-1.57002e-06
4.51262e-05
-1.19619e-06
4.50205e-05
-5.63484e-07
4.47546e-05
-2.61101e-07
4.4511e-05
-2.97074e-07
4.45585e-05
-7.93415e-07
4.51791e-05
-1.87359e-06
4.62805e-05
-2.56471e-06
4.76847e-05
-2.55076e-06
4.93517e-05
-1.883e-06
5.18315e-05
-6.01578e-07
5.57363e-05
2.31901e-06
5.63418e-05
6.92793e-06
5.33033e-05
7.51132e-06
4.69634e-05
1.01817e-05
3.91649e-05
9.26106e-06
3.43006e-05
6.58511e-06
2.99678e-05
4.84394e-06
2.78828e-05
1.72665e-06
2.63098e-05
1.94511e-06
2.52104e-05
1.38142e-06
2.56966e-05
-5.02166e-07
2.68952e-05
-1.39307e-06
2.71048e-05
-3.20813e-07
2.73803e-05
-5.01336e-07
2.75971e-05
-5.38636e-07
2.76244e-05
-3.10163e-07
2.76708e-05
-3.62797e-07
2.77678e-05
-3.63555e-07
2.76842e-05
-2.6049e-07
2.77881e-05
-1.65559e-07
2.79244e-05
-5.19318e-08
2.88582e-05
4.82181e-07
2.97229e-05
1.5677e-06
3.00432e-05
1.38541e-06
2.89203e-05
1.82902e-06
2.6393e-05
2.36427e-06
2.46588e-05
1.70633e-06
2.36268e-05
5.83928e-07
2.32166e-05
-1.93996e-07
2.3079e-05
-2.0365e-07
2.30391e-05
-1.51093e-07
2.34653e-05
-5.44764e-07
2.41703e-05
-9.02998e-07
2.45508e-05
-4.79822e-07
2.47005e-05
-2.55678e-07
2.47551e-05
-7.68539e-08
2.47457e-05
7.48481e-08
2.48355e-05
2.63314e-07
2.48989e-05
4.61875e-07
2.52372e-05
1.05342e-06
2.53003e-05
1.59545e-06
2.48634e-05
1.39555e-06
2.34497e-05
1.58877e-06
2.16633e-05
1.50835e-06
2.06132e-05
9.90092e-07
2.01162e-05
1.66044e-07
2.00445e-05
-3.15162e-07
1.99905e-05
-7.38644e-08
2.02772e-05
-3.76131e-07
2.06377e-05
-4.38454e-07
2.07315e-05
-1.35531e-07
2.07259e-05
-4.49592e-08
2.06817e-05
6.49605e-09
2.06235e-05
7.48076e-08
2.05908e-05
8.25217e-08
2.05551e-05
1.12031e-07
2.04668e-05
1.86364e-07
2.03402e-05
2.49059e-07
2.01747e-05
3.13042e-07
1.99964e-05
3.44805e-07
1.97987e-05
3.8772e-07
1.95859e-05
4.23753e-07
1.93439e-05
4.76828e-07
1.9077e-05
5.36994e-07
1.8782e-05
5.92279e-07
1.84607e-05
6.45352e-07
1.81168e-05
6.90141e-07
1.77488e-05
7.34508e-07
1.73477e-05
7.93987e-07
1.69116e-05
8.59565e-07
1.64471e-05
9.24572e-07
1.59629e-05
9.75858e-07
1.54595e-05
1.01361e-06
1.49231e-05
1.0645e-06
1.4352e-05
1.12983e-06
1.37488e-05
1.19535e-06
1.31275e-05
1.24531e-06
1.24864e-05
1.29078e-06
1.18167e-05
1.34331e-06
1.11152e-05
1.39721e-06
1.03879e-05
1.44716e-06
9.64218e-06
1.48713e-06
8.87728e-06
1.52626e-06
8.09264e-06
1.57172e-06
7.29368e-06
1.6091e-06
6.48469e-06
1.62516e-06
5.66661e-06
1.63825e-06
4.83815e-06
1.66166e-06
4.0058e-06
1.67836e-06
3.17903e-06
1.66516e-06
2.36652e-06
1.63107e-06
1.56576e-06
1.60826e-06
7.75358e-07
1.58903e-06
4.93686e-09
1.55139e-06
-7.4208e-07
1.49715e-06
-1.46177e-06
1.43006e-06
-2.15174e-06
1.36931e-06
-2.81498e-06
1.31807e-06
-3.45369e-06
1.2754e-06
-4.07281e-06
1.2396e-06
-4.67031e-06
1.19465e-06
-5.24457e-06
1.14492e-06
-5.79617e-06
1.09765e-06
-6.32282e-06
1.04591e-06
-6.82258e-06
9.93213e-07
-7.3005e-06
9.52047e-07
-7.75834e-06
9.15346e-07
-8.19887e-06
8.83105e-07
-8.62523e-06
8.52969e-07
-9.0346e-06
8.13915e-07
-9.4235e-06
7.71663e-07
-9.79125e-06
7.30156e-07
-1.01372e-05
6.92247e-07
-1.04658e-05
6.61459e-07
-1.07796e-05
6.31454e-07
-1.10799e-05
6.02077e-07
-1.13675e-05
5.70978e-07
-1.1638e-05
5.36237e-07
-1.18899e-05
5.00754e-07
-1.21253e-05
4.69721e-07
-1.23474e-05
4.45693e-07
-1.25582e-05
4.23955e-07
-1.27565e-05
3.99269e-07
-1.29418e-05
3.71267e-07
-1.31123e-05
3.39194e-07
-1.32694e-05
3.1198e-07
-1.34155e-05
2.90966e-07
-1.35507e-05
2.70791e-07
-1.36745e-05
2.48961e-07
-1.37863e-05
2.25874e-07
-1.38875e-05
2.01826e-07
-1.39789e-05
1.81107e-07
-1.40618e-05
1.65327e-07
-1.41364e-05
1.51372e-07
-1.42013e-05
1.33156e-07
-1.42559e-05
1.07451e-07
-1.42993e-05
8.51949e-08
-1.43349e-05
6.92946e-08
-1.43626e-05
5.60211e-08
-1.43841e-05
4.62554e-08
-1.44004e-05
3.57039e-08
-1.44097e-05
2.09017e-08
-1.44126e-05
2.65243e-09
-1.44052e-05
-1.63699e-08
-1.43915e-05
-2.92922e-08
-1.43717e-05
-3.93441e-08
-1.4347e-05
-4.65549e-08
-1.43185e-05
-5.36567e-08
-1.4286e-05
-6.29236e-08
-1.42498e-05
-7.38803e-08
-1.42076e-05
-8.65357e-08
-1.416e-05
-9.67914e-08
-1.41083e-05
-1.0393e-07
-1.40537e-05
-1.06737e-07
-1.39985e-05
-1.08047e-07
-1.39408e-05
-1.13973e-07
-1.38787e-05
-1.23381e-07
-1.38135e-05
-1.31547e-07
-1.37449e-05
-1.37197e-07
-1.36749e-05
-1.39924e-07
-1.3605e-05
-1.40135e-07
-1.35356e-05
-1.39891e-07
-1.34654e-05
-1.40738e-07
-1.33939e-05
-1.41863e-07
-1.33207e-05
-1.44221e-07
-1.32452e-05
-1.47385e-07
-1.31705e-05
-1.50087e-07
-1.30953e-05
-1.52114e-07
-1.30205e-05
-1.51839e-07
-1.29458e-05
-1.50188e-07
-1.28718e-05
-1.46276e-07
-1.27974e-05
-1.45252e-07
-1.27224e-05
-1.50309e-07
-1.26456e-05
-1.55082e-07
-1.25695e-05
-1.53708e-07
-1.24944e-05
-1.51259e-07
-1.24194e-05
-1.49289e-07
-1.23434e-05
-1.50079e-07
-1.22656e-05
-1.53654e-07
-1.21871e-05
-1.56294e-07
-1.21094e-05
-1.56956e-07
-1.20318e-05
-1.57013e-07
-1.19543e-05
-1.56762e-07
-1.18745e-05
-1.59098e-07
-1.17913e-05
-1.64689e-07
-1.17064e-05
-1.69244e-07
-1.16202e-05
-1.73503e-07
-1.15324e-05
-1.76825e-07
-1.14434e-05
-1.77779e-07
-1.13536e-05
-1.7877e-07
-1.1261e-05
-1.8304e-07
-1.11652e-05
-1.91996e-07
-1.10647e-05
-2.01971e-07
-1.09612e-05
-2.08022e-07
-1.08551e-05
-2.1323e-07
-1.07458e-05
-2.19116e-07
-1.06328e-05
-2.25015e-07
-1.05157e-05
-2.31916e-07
-1.03945e-05
-2.40431e-07
-1.02698e-05
-2.49921e-07
-1.01405e-05
-2.59613e-07
-1.00058e-05
-2.69994e-07
-9.86552e-06
-2.80754e-07
-9.71977e-06
-2.91515e-07
-9.56903e-06
-3.01266e-07
-9.41386e-06
-3.08964e-07
-9.2533e-06
-3.18997e-07
-9.08601e-06
-3.33898e-07
-8.91172e-06
-3.48665e-07
-8.73159e-06
-3.60376e-07
-8.54569e-06
-3.72239e-07
-8.35324e-06
-3.8523e-07
-8.15322e-06
-3.99042e-07
-7.94638e-06
-4.11809e-07
-7.73248e-06
-4.26015e-07
-7.51145e-06
-4.41312e-07
-7.28367e-06
-4.56044e-07
-7.04889e-06
-4.70546e-07
-6.80623e-06
-4.85725e-07
-6.55541e-06
-5.00397e-07
-6.29715e-06
-5.14396e-07
-6.03269e-06
-5.2798e-07
-5.76259e-06
-5.41262e-07
-5.48552e-06
-5.55752e-07
-5.20055e-06
-5.7098e-07
-4.90854e-06
-5.83468e-07
-4.61108e-06
-5.94053e-07
-4.30976e-06
-6.04008e-07
-4.00411e-06
-6.13705e-07
-3.69302e-06
-6.23683e-07
-3.37809e-06
-6.30694e-07
-3.06157e-06
-6.34479e-07
-2.74464e-06
-6.36661e-07
-2.42712e-06
-6.38254e-07
-2.10974e-06
-6.37713e-07
-1.79427e-06
-6.33007e-07
-1.48252e-06
-6.24912e-07
-1.17591e-06
-6.15343e-07
-8.74514e-07
-6.05214e-07
-5.78904e-07
-5.92914e-07
-2.90224e-07
-5.78043e-07
-9.46199e-09
-5.61244e-07
2.62676e-07
-5.43451e-07
5.25973e-07
-5.25544e-07
7.80594e-07
-5.08016e-07
1.02677e-06
-4.90829e-07
1.26459e-06
-4.73731e-07
1.49414e-06
-4.57229e-07
1.71553e-06
-4.4141e-07
1.92891e-06
-4.25799e-07
2.13457e-06
-4.10376e-07
2.33292e-06
-3.95507e-07
2.52425e-06
-3.81505e-07
2.7087e-06
-3.68032e-07
2.88632e-06
-3.5479e-07
3.05726e-06
-3.41486e-07
3.22162e-06
-3.2802e-07
3.37971e-06
-3.15229e-07
3.53166e-06
-3.03292e-07
3.67786e-06
-2.9214e-07
3.81846e-06
-2.81087e-07
3.9536e-06
-2.70136e-07
4.08348e-06
-2.59444e-07
4.20815e-06
-2.48945e-07
4.32762e-06
-2.38701e-07
4.44216e-06
-2.28986e-07
4.55193e-06
-2.19558e-07
4.65692e-06
-2.10104e-07
4.75746e-06
-2.01059e-07
4.8538e-06
-1.92457e-07
4.94595e-06
-1.84091e-07
5.03392e-06
-1.75865e-07
5.11777e-06
-1.67759e-07
5.1976e-06
-1.59656e-07
5.27352e-06
-1.51687e-07
5.34565e-06
-1.44116e-07
5.41408e-06
-1.36851e-07
5.4789e-06
-1.296e-07
5.54014e-06
-1.22385e-07
5.59778e-06
-1.15216e-07
5.65177e-06
-1.08036e-07
5.70226e-06
-1.01068e-07
5.74946e-06
-9.44194e-08
5.79339e-06
-8.784e-08
5.83398e-06
-8.1154e-08
5.87121e-06
-7.44909e-08
5.90517e-06
-6.79667e-08
5.93583e-06
-6.13653e-08
5.96325e-06
-5.47068e-08
5.98747e-06
-4.81482e-08
6.00846e-06
-4.17482e-08
6.0262e-06
-3.55246e-08
6.04072e-06
-2.91884e-08
6.05202e-06
-2.27057e-08
6.06006e-06
-1.61122e-08
6.06498e-06
-9.88776e-09
6.06695e-06
-4.03394e-09
6.06591e-06
1.89071e-09
6.06182e-06
7.99446e-09
6.05454e-06
1.42938e-08
6.04416e-06
2.03659e-08
6.0308e-06
2.63732e-08
6.01465e-06
3.24235e-08
5.99553e-06
3.84213e-08
5.97352e-06
4.39382e-08
5.94867e-06
4.93396e-08
5.92108e-06
5.47976e-08
5.89061e-06
6.04939e-08
5.85747e-06
6.58913e-08
5.82163e-06
7.14248e-08
5.78329e-06
7.65488e-08
5.74241e-06
8.15091e-08
5.69888e-06
8.6518e-08
5.6529e-06
9.16499e-08
5.60464e-06
9.66298e-08
5.55405e-06
1.0132e-07
5.50084e-06
1.06035e-07
5.44519e-06
1.10834e-07
5.38727e-06
1.1527e-07
5.32732e-06
1.19599e-07
5.26511e-06
1.24308e-07
5.20097e-06
1.28784e-07
5.13407e-06
1.33676e-07
5.06536e-06
1.37298e-07
4.99464e-06
1.40848e-07
4.92226e-06
1.44386e-07
4.84802e-06
1.48066e-07
4.77258e-06
1.513e-07
4.69494e-06
1.55379e-07
4.61608e-06
1.57809e-07
4.53555e-06
1.60184e-07
4.45418e-06
1.62085e-07
4.3729e-06
1.62924e-07
4.29056e-06
1.6553e-07
4.20847e-06
1.66156e-07
4.12375e-06
1.70022e-07
4.0387e-06
1.70159e-07
3.95046e-06
1.73939e-07
3.86147e-06
1.76412e-07
3.7754e-06
1.73478e-07
3.69004e-06
1.75421e-07
3.60224e-06
1.78616e-07
3.51405e-06
1.77018e-07
3.41597e-06
1.86923e-07
3.3162e-06
1.9032e-07
3.22719e-06
1.77439e-07
3.14398e-06
1.77915e-07
3.05957e-06
1.78808e-07
2.98283e-06
1.69141e-07
2.93523e-06
1.3515e-07
2.90295e-06
1.21566e-07
2.85453e-06
1.32017e-07
2.7762e-06
1.41544e-07
2.6759e-06
1.39936e-07
2.56765e-06
1.59586e-07
2.46578e-06
1.79871e-07
2.36906e-06
1.84497e-07
2.27463e-06
1.96153e-07
2.1854e-06
1.92028e-07
2.09627e-06
1.90514e-07
1.99758e-06
1.98569e-07
1.86747e-06
2.32485e-07
1.72938e-06
2.39584e-07
1.61745e-06
2.13074e-07
1.53149e-06
2.17739e-07
1.50637e-06
1.57776e-07
1.50765e-06
1.17603e-07
1.61342e-06
1.02932e-08
1.77312e-06
-9.39493e-08
1.87561e-06
-6.93802e-08
1.88284e-06
-9.25547e-08
1.80104e-06
-8.24682e-08
1.72528e-06
-3.28466e-08
1.65859e-06
3.54272e-09
1.59231e-06
6.64119e-08
1.52668e-06
8.31684e-08
1.46425e-06
1.05067e-07
1.40162e-06
1.10948e-07
1.33961e-06
1.2255e-07
1.2808e-06
1.28995e-07
1.22328e-06
1.18605e-07
1.13045e-06
1.67649e-07
1.03677e-06
1.60151e-07
9.95125e-07
1.04342e-07
8.82521e-07
2.0934e-07
8.63179e-07
1.05224e-07
7.18924e-07
1.73695e-07
8.66398e-07
1.9159e-09
8.49188e-07
4.00921e-08
8.24927e-07
1.25126e-07
1.05377e-06
-2.88502e-07
1.15371e-06
3.38285e-08
1.28606e-06
3.21716e-08
1.20399e-06
-1.61121e-07
1.16733e-06
-1.51382e-07
1.1297e-06
-1.1547e-07
1.10337e-06
-2.83909e-08
1.06148e-06
2.45883e-08
1.01571e-06
5.26891e-08
9.66444e-07
7.12204e-08
9.13169e-07
8.98812e-08
8.57793e-07
1.03464e-07
8.01351e-07
1.07706e-07
7.44435e-07
1.08192e-07
6.8535e-07
1.14375e-07
6.25234e-07
1.16976e-07
5.6565e-07
1.16993e-07
5.07136e-07
1.17973e-07
4.50571e-07
1.12235e-07
3.95753e-07
1.0822e-07
3.42777e-07
1.06802e-07
2.91945e-07
1.05566e-07
2.44065e-07
9.69615e-08
1.98426e-07
8.95364e-08
1.54726e-07
8.80165e-08
1.12765e-07
8.7103e-08
7.32911e-08
8.35291e-08
3.62948e-08
7.67102e-08
1.7248e-09
6.9723e-08
-2.97619e-08
6.42805e-08
-5.77245e-08
5.75007e-08
-8.34668e-08
5.32604e-08
-1.08156e-07
4.89547e-08
-1.30391e-07
4.66143e-08
-1.4886e-07
4.21593e-08
-1.64055e-07
3.32486e-08
-1.75642e-07
2.29007e-08
-1.84166e-07
1.41211e-08
-1.89916e-07
7.62099e-09
-1.92324e-07
2.18837e-09
-1.91727e-07
-2.51191e-09
-1.883e-07
-7.23786e-09
-1.82077e-07
-1.23746e-08
-1.72927e-07
-1.80546e-08
-1.61872e-07
-2.3309e-08
-1.49055e-07
-2.58636e-08
-1.33718e-07
-3.2049e-08
-1.16715e-07
-3.82324e-08
-9.77515e-08
-4.0468e-08
-7.66905e-08
-4.14343e-08
-5.34288e-08
-4.37447e-08
-2.81932e-08
-4.72e-08
-1.01384e-09
-5.15245e-08
2.79204e-08
-5.62879e-08
5.86589e-08
-6.10064e-08
9.14304e-08
-6.54903e-08
1.26221e-07
-6.95518e-08
1.62812e-07
-7.29733e-08
2.00895e-07
-7.57633e-08
2.40384e-07
-7.8329e-08
2.81252e-07
-8.11393e-08
3.23609e-07
-8.44062e-08
3.6755e-07
-8.78004e-08
4.12479e-07
-9.02527e-08
4.58041e-07
-9.1559e-08
5.04523e-07
-9.2757e-08
5.52471e-07
-9.49453e-08
6.01859e-07
-9.78713e-08
6.52151e-07
-1.00614e-07
7.02593e-07
-1.01333e-07
7.53873e-07
-1.0241e-07
8.06687e-07
-1.03254e-07
8.60683e-07
-1.06832e-07
9.14991e-07
-1.06531e-07
9.68988e-07
-1.059e-07
1.02433e-06
-1.07978e-07
1.08086e-06
-1.15744e-07
1.13794e-06
-1.20948e-07
1.195e-06
-1.21185e-07
1.25021e-06
-1.19967e-07
1.30629e-06
-1.18896e-07
1.36108e-06
-1.18477e-07
-1.2217e-07
4.83297e-05
5.49202e-07
4.84064e-05
6.51475e-07
4.87965e-05
5.87526e-07
5.041e-05
-9.99323e-07
5.78847e-05
-9.92576e-06
6.89222e-05
-2.24988e-05
7.69532e-05
-2.67516e-05
8.28176e-05
-2.63432e-05
8.77276e-05
-2.17414e-05
9.01095e-05
-9.68192e-06
8.89333e-05
1.81761e-06
8.546e-05
7.24676e-06
8.13232e-05
7.72793e-06
7.69565e-05
6.48392e-06
7.29823e-05
4.3422e-06
6.98535e-05
1.64616e-06
6.73929e-05
-8.77342e-07
6.53129e-05
-2.39176e-06
6.32713e-05
-2.59807e-06
6.10887e-05
-1.43365e-06
5.88265e-05
9.63757e-07
5.65443e-05
3.71364e-06
5.49732e-05
6.39262e-06
5.43934e-05
8.64098e-06
5.46949e-05
1.00767e-05
5.52741e-05
1.03261e-05
5.55908e-05
9.33005e-06
5.56828e-05
6.87492e-06
5.53706e-05
5.13391e-06
5.4661e-05
4.55532e-06
5.37785e-05
4.67354e-06
5.25808e-05
5.09454e-06
5.12047e-05
4.99412e-06
5.00938e-05
4.46764e-06
4.96611e-05
3.291e-06
4.93444e-05
1.98302e-06
4.89208e-05
9.61488e-07
4.85551e-05
5.40491e-07
4.81922e-05
7.19369e-07
4.79664e-05
1.6481e-06
4.79014e-05
2.02289e-06
4.77434e-05
1.85246e-06
4.73847e-05
8.3315e-07
4.71437e-05
-2.55009e-08
4.6923e-05
-3.94112e-08
4.66587e-05
6.59743e-07
4.63459e-05
1.57206e-06
4.59773e-05
1.6561e-06
4.54447e-05
1.22092e-06
4.50585e-05
1.13648e-07
4.49335e-05
-6.32636e-07
4.49408e-05
-9.20605e-07
4.49643e-05
-9.60765e-07
4.49135e-05
-7.90851e-07
4.46959e-05
-1.3476e-07
4.47406e-05
4.22608e-07
4.51201e-05
5.09788e-07
4.57206e-05
2.78068e-07
4.62741e-05
1.38676e-07
4.63737e-05
3.8028e-07
4.59382e-05
1.08739e-06
4.53989e-05
1.62421e-06
4.49038e-05
1.56858e-06
4.44048e-05
8.16452e-07
4.42108e-05
-8.27639e-07
4.42807e-05
-1.64392e-06
4.44318e-05
-1.72593e-06
4.46733e-05
-1.45355e-06
4.47966e-05
-6.86793e-07
4.47378e-05
-2.02302e-07
4.46433e-05
-1.89449e-07
4.44443e-05
-5.87996e-07
4.40092e-05
-1.43819e-06
4.36905e-05
-2.24607e-06
4.36922e-05
-2.55252e-06
4.41689e-05
-2.36014e-06
4.52885e-05
-1.7233e-06
4.80607e-05
-4.55986e-07
5.28861e-05
2.09724e-06
5.71481e-05
3.23026e-06
6.09163e-05
6.4221e-06
5.94259e-05
1.07603e-05
5.47475e-05
1.12661e-05
4.68343e-05
1.27564e-05
3.85569e-05
1.00022e-05