/*--------------------------------*- C++ -*----------------------------------*\
| =========                 |                                                 |
| \\      /  F ield         | OpenFOAM: The Open Source CFD Toolbox           |
|  \\    /   O peration     | Version:  v2006                                 |
|   \\  /    A nd           | Website:  www.openfoam.com                      |
|    \\/     M anipulation  |                                                 |
\*---------------------------------------------------------------------------*/
FoamFile
{
    version     2.0;
    format      ascii;
    class       volScalarField;
    location    "7";
    object      nut;
}
// * * * * * * * * * * * * * * * * * * * * * * * * * * * * * * * * * * * * * //

dimensions      [0 2 -1 0 0 0 0];


internalField   nonuniform List<scalar> 
33000
(
5.47971e-10
6.2588e-10
7.65465e-10
9.85989e-10
1.23004e-09
1.33212e-09
1.13057e-09
9.6177e-10
9.59907e-10
1.05554e-09
1.2003e-09
1.3575e-09
1.52321e-09
1.67419e-09
1.81986e-09
1.95722e-09
2.16312e-09
2.41495e-09
2.5764e-09
2.6554e-09
2.74704e-09
2.93274e-09
3.23216e-09
3.68687e-09
4.61844e-09
6.80324e-09
1.06606e-08
1.5099e-08
1.85474e-08
2.06219e-08
2.21922e-08
2.37551e-08
2.4985e-08
2.58955e-08
2.69547e-08
2.78048e-08
2.77189e-08
2.71937e-08
2.66051e-08
2.64207e-08
2.74798e-08
2.86378e-08
2.86254e-08
2.78563e-08
2.72194e-08
2.67752e-08
2.71698e-08
2.80295e-08
2.82041e-08
2.7525e-08
2.6754e-08
2.62439e-08
2.59199e-08
2.55652e-08
2.53826e-08
2.55102e-08
2.57033e-08
2.63166e-08
2.69635e-08
2.67071e-08
2.5757e-08
2.50299e-08
2.46308e-08
2.36081e-08
2.16638e-08
1.93148e-08
1.74085e-08
1.61741e-08
1.53214e-08
1.45449e-08
1.37507e-08
1.28666e-08
1.18606e-08
1.06986e-08
9.8315e-09
9.25526e-09
8.56002e-09
8.76235e-09
1.16678e-08
1.43776e-08
1.74908e-08
2.22907e-08
2.33054e-08
3.01612e-08
3.16686e-08
3.39642e-08
3.59076e-08
3.64691e-08
3.35482e-08
3.20324e-08
3.09305e-08
2.88134e-08
2.70925e-08
2.51117e-08
2.32248e-08
2.11458e-08
1.94938e-08
1.78149e-08
1.69828e-08
1.91733e-08
2.33713e-08
2.58891e-08
2.61321e-08
2.55236e-08
2.68779e-08
2.75168e-08
2.82658e-08
2.83721e-08
2.8304e-08
2.70388e-08
2.58792e-08
2.52074e-08
2.45482e-08
2.38274e-08
2.28834e-08
2.16953e-08
2.08151e-08
2.31898e-08
2.63668e-08
2.71205e-08
2.64327e-08
2.58997e-08
2.71564e-08
2.74853e-08
2.82472e-08
2.83457e-08
2.76407e-08
2.72696e-08
2.7272e-08
2.73293e-08
2.74604e-08
2.75582e-08
2.75602e-08
2.76102e-08
2.77168e-08
2.78876e-08
2.81032e-08
2.83299e-08
2.85857e-08
2.88613e-08
2.9199e-08
2.95875e-08
3.00288e-08
3.05168e-08
3.1028e-08
3.15816e-08
3.22086e-08
3.29393e-08
3.38109e-08
3.47552e-08
3.57409e-08
3.68332e-08
3.81098e-08
3.96036e-08
4.12994e-08
4.3215e-08
4.53825e-08
4.78813e-08
5.08167e-08
5.42292e-08
5.82809e-08
6.33331e-08
6.95982e-08
7.7057e-08
8.61569e-08
9.79523e-08
1.13779e-07
1.33943e-07
1.57541e-07
1.83454e-07
2.0633e-07
2.16477e-07
2.08696e-07
1.8742e-07
1.6352e-07
1.42379e-07
1.24841e-07
1.11057e-07
1.00279e-07
9.15337e-08
8.43445e-08
7.84685e-08
7.3467e-08
6.91146e-08
6.53494e-08
6.20306e-08
5.91427e-08
5.66407e-08
5.44159e-08
5.24183e-08
5.05793e-08
4.88989e-08
4.73876e-08
4.60092e-08
4.47482e-08
4.35866e-08
4.25164e-08
4.15261e-08
4.05961e-08
3.97326e-08
3.89235e-08
3.81665e-08
3.74606e-08
3.67822e-08
3.61374e-08
3.55387e-08
3.49753e-08
3.44456e-08
3.39535e-08
3.34974e-08
3.30764e-08
3.26795e-08
3.23173e-08
3.19933e-08
3.16987e-08
3.14511e-08
3.12485e-08
3.10739e-08
3.09209e-08
3.07822e-08
3.06673e-08
3.05869e-08
3.05462e-08
3.05424e-08
3.05533e-08
3.05688e-08
3.05851e-08
3.06118e-08
3.06585e-08
3.07316e-08
3.08299e-08
3.09284e-08
3.10161e-08
3.11029e-08
3.11963e-08
3.13001e-08
3.1413e-08
3.15289e-08
3.16432e-08
3.17577e-08
3.1871e-08
3.19796e-08
3.20772e-08
3.2163e-08
3.22516e-08
3.23465e-08
3.24489e-08
3.25503e-08
3.26212e-08
3.26693e-08
3.27323e-08
3.28059e-08
3.28753e-08
3.2939e-08
3.29886e-08
3.30275e-08
3.30666e-08
3.31063e-08
3.31442e-08
3.31812e-08
3.32095e-08
3.32296e-08
3.32462e-08
3.3268e-08
3.33026e-08
3.33458e-08
3.33822e-08
3.33973e-08
3.34026e-08
3.34275e-08
3.34712e-08
3.35193e-08
3.35787e-08
3.36456e-08
3.37087e-08
3.37682e-08
3.38417e-08
3.39321e-08
3.40338e-08
3.4151e-08
3.42883e-08
3.44531e-08
3.46341e-08
3.48091e-08
3.49956e-08
3.52279e-08
3.54938e-08
3.57826e-08
3.61043e-08
3.64659e-08
3.68603e-08
3.7281e-08
3.77511e-08
3.82787e-08
3.88731e-08
3.95545e-08
4.03307e-08
4.11937e-08
4.21644e-08
4.32724e-08
4.45328e-08
4.59871e-08
4.76619e-08
4.95438e-08
5.1687e-08
5.41711e-08
5.70788e-08
6.05284e-08
6.46519e-08
6.96449e-08
7.57849e-08
8.34779e-08
9.32077e-08
1.01139e-07
9.99587e-08
9.89321e-08
9.80648e-08
9.73492e-08
9.67767e-08
9.63284e-08
9.59567e-08
9.56355e-08
9.53592e-08
9.51263e-08
9.49395e-08
9.48051e-08
9.47216e-08
8.99056e-08
8.2648e-08
7.66277e-08
7.1556e-08
6.7238e-08
6.35309e-08
6.0349e-08
5.75908e-08
5.51592e-08
5.29884e-08
5.10381e-08
4.9276e-08
4.76702e-08
4.61968e-08
4.48365e-08
4.35751e-08
4.24005e-08
4.13068e-08
4.02853e-08
3.93262e-08
3.84227e-08
3.75699e-08
3.67632e-08
3.59999e-08
3.5277e-08
3.4589e-08
3.393e-08
3.32992e-08
3.26959e-08
3.21174e-08
3.15625e-08
3.10308e-08
3.05196e-08
3.00274e-08
2.9554e-08
2.90996e-08
2.86626e-08
2.82422e-08
2.78391e-08
2.74531e-08
2.70834e-08
2.67273e-08
2.63844e-08
2.60564e-08
2.57439e-08
2.54454e-08
2.51569e-08
2.48786e-08
2.4611e-08
2.43547e-08
2.41079e-08
2.38694e-08
2.36415e-08
2.34244e-08
2.3213e-08
2.30064e-08
2.28069e-08
2.2616e-08
2.24331e-08
2.22581e-08
2.20928e-08
2.19338e-08
2.17822e-08
2.16386e-08
2.1507e-08
2.13839e-08
2.12682e-08
2.11614e-08
2.1067e-08
2.09804e-08
2.09077e-08
2.0848e-08
2.08026e-08
2.07683e-08
2.07451e-08
2.07344e-08
2.07376e-08
2.07559e-08
2.07915e-08
2.08505e-08
2.09152e-08
2.10062e-08
2.10978e-08
2.12164e-08
2.13406e-08
2.14877e-08
2.16565e-08
2.18427e-08
2.20792e-08
2.2317e-08
2.25366e-08
2.2782e-08
2.30358e-08
2.33757e-08
2.38805e-08
2.43402e-08
2.46887e-08
2.48532e-08
2.50081e-08
2.5571e-08
2.58239e-08
2.678e-08
2.76582e-08
2.83527e-08
2.86456e-08
3.0108e-08
3.15307e-08
3.28755e-08
3.42532e-08
3.53331e-08
3.69399e-08
3.8521e-08
3.89215e-08
3.87546e-08
3.87358e-08
3.8539e-08
3.8257e-08
3.8255e-08
3.78916e-08
3.73282e-08
3.66295e-08
3.67365e-08
3.67907e-08
3.70877e-08
3.73872e-08
3.7519e-08
3.76377e-08
3.76712e-08
3.77262e-08
3.77077e-08
3.75539e-08
3.7432e-08
3.73352e-08
3.7053e-08
3.72043e-08
3.69722e-08
3.60709e-08
3.58811e-08
3.53692e-08
3.46123e-08
3.51998e-08
3.64948e-08
4.04269e-08
4.28294e-08
4.71417e-08
5.07434e-08
5.45415e-08
5.76218e-08
6.01672e-08
6.222e-08
6.39125e-08
6.52906e-08
6.63759e-08
6.72702e-08
6.80557e-08
6.87121e-08
6.92835e-08
6.98074e-08
7.02395e-08
7.0644e-08
7.10363e-08
7.14018e-08
7.16926e-08
7.19781e-08
7.22895e-08
7.25877e-08
7.28509e-08
7.30827e-08
7.33069e-08
7.35335e-08
7.37453e-08
7.39537e-08
7.41434e-08
7.43508e-08
7.45294e-08
7.46556e-08
7.47672e-08
7.48855e-08
7.50142e-08
7.51488e-08
7.52772e-08
7.53965e-08
7.55055e-08
7.56057e-08
7.57029e-08
7.58145e-08
7.58959e-08
7.59813e-08
7.61015e-08
7.62235e-08
7.63227e-08
7.64035e-08
7.64711e-08
7.65295e-08
7.65861e-08
7.6642e-08
7.66966e-08
7.67487e-08
7.67972e-08
7.68396e-08
7.68725e-08
7.68961e-08
7.6914e-08
7.69308e-08
7.695e-08
7.69654e-08
7.69666e-08
7.69521e-08
7.69289e-08
7.69091e-08
7.68864e-08
7.68585e-08
7.68044e-08
7.67692e-08
7.6714e-08
7.66572e-08
7.65253e-08
7.6473e-08
7.63807e-08
7.61745e-08
7.19521e-08
7.44584e-08
4.93812e-08
3.27976e-08
1.31935e-08
2.04919e-08
3.96171e-08
4.99868e-09
2.25095e-09
2.09149e-09
2.49111e-09
2.90866e-09
4.95258e-09
1.28919e-08
1.82938e-08
2.09121e-08
3.15903e-08
4.55935e-08
6.27402e-08
7.72874e-08
1.01024e-07
1.24681e-07
1.4024e-07
1.53409e-07
1.65933e-07
1.79242e-07
1.9597e-07
2.19367e-07
2.25899e-07
2.29834e-07
2.5634e-07
2.91482e-07
2.84554e-07
2.78769e-07
2.58474e-07
2.3544e-07
2.25762e-07
2.07654e-07
1.84524e-07
2.07113e-07
1.92804e-07
2.00193e-07
2.0127e-07
2.36723e-07
1.93055e-07
1.66457e-07
1.81685e-07
1.80533e-07
1.58803e-07
2.02951e-07
2.0937e-07
1.38435e-07
1.6855e-07
1.53639e-07
1.0958e-07
1.05353e-07
1.38185e-07
1.54425e-07
1.78565e-07
2.02084e-07
2.11826e-07
2.01803e-07
1.80773e-07
1.39162e-07
1.09938e-07
1.25775e-07
1.04678e-07
7.4898e-08
7.75198e-08
7.36414e-08
7.20375e-08
7.33146e-08
7.6553e-08
8.09029e-08
8.52556e-08
8.83476e-08
9.05807e-08
9.25353e-08
9.53188e-08
1.04793e-07
1.09897e-07
1.47363e-07
1.56643e-07
9.92509e-08
1.29799e-07
1.86713e-07
1.8166e-07
1.57374e-07
1.37909e-07
1.15688e-07
9.89186e-08
6.04334e-08
8.08943e-08
7.95406e-08
8.17068e-08
8.39818e-08
8.37994e-08
8.16949e-08
7.96495e-08
7.87508e-08
7.76623e-08
7.97531e-08
8.15505e-08
7.72957e-08
7.1437e-08
6.29303e-08
6.66113e-08
6.13571e-08
5.77009e-08
3.44555e-08
5.10936e-08
3.82681e-08
2.58028e-08
4.51546e-08
1.0013e-07
1.31909e-07
6.025e-08
4.86821e-08
2.6452e-08
2.43743e-08
2.77235e-08
3.09935e-08
1.33002e-08
1.0582e-08
1.87122e-08
2.67514e-08
3.82124e-08
3.3224e-08
5.50857e-08
4.98692e-08
1.54734e-07
1.61498e-07
1.64337e-07
1.65887e-07
1.66164e-07
1.66109e-07
1.66393e-07
1.58482e-07
1.23939e-07
1.1329e-07
1.0356e-07
9.67375e-08
8.78259e-08
7.87222e-08
7.16427e-08
6.58019e-08
6.09798e-08
5.6663e-08
5.2197e-08
4.83949e-08
4.56423e-08
4.35964e-08
4.12041e-08
3.86306e-08
3.62785e-08
3.45069e-08
3.3349e-08
3.21382e-08
3.05401e-08
2.89792e-08
2.78187e-08
2.69417e-08
2.60759e-08
2.53066e-08
2.46817e-08
2.40724e-08
2.35099e-08
2.30422e-08
2.27737e-08
2.26362e-08
2.26346e-08
2.2665e-08
2.27614e-08
2.31182e-08
2.35316e-08
2.40031e-08
2.46443e-08
2.53194e-08
2.60166e-08
2.66317e-08
2.72882e-08
2.80341e-08
2.88219e-08
2.98108e-08
3.08956e-08
3.18764e-08
3.28764e-08
3.38076e-08
3.46483e-08
3.57337e-08
3.70205e-08
3.86075e-08
4.04297e-08
4.21471e-08
4.37371e-08
4.52262e-08
4.68519e-08
4.90207e-08
5.181e-08
5.46644e-08
5.7277e-08
6.0073e-08
6.32255e-08
6.71024e-08
7.19273e-08
7.68587e-08
8.16212e-08
8.7248e-08
9.45647e-08
1.0357e-07
1.13435e-07
1.237e-07
1.34381e-07
1.47778e-07
1.66886e-07
1.90222e-07
1.92218e-07
1.94236e-07
1.96086e-07
1.97806e-07
1.99604e-07
2.01717e-07
2.04157e-07
2.06644e-07
2.08847e-07
2.10694e-07
2.12354e-07
2.14069e-07
2.16038e-07
2.18227e-07
2.20368e-07
2.17191e-07
2.02239e-07
1.93172e-07
1.86977e-07
1.77288e-07
1.64325e-07
1.53456e-07
1.47762e-07
1.45109e-07
1.44885e-07
1.45873e-07
1.44867e-07
1.41652e-07
1.3701e-07
1.32832e-07
1.3184e-07
1.32556e-07
1.33235e-07
1.34081e-07
1.34957e-07
1.33667e-07
1.31046e-07
1.29083e-07
1.3013e-07
1.32289e-07
1.32538e-07
1.30046e-07
1.26997e-07
1.25669e-07
1.25914e-07
1.26868e-07
1.27032e-07
1.23504e-07
1.18055e-07
1.15186e-07
1.13642e-07
1.11933e-07
1.10862e-07
1.09155e-07
1.0581e-07
1.01382e-07
9.71207e-08
9.43484e-08
9.21224e-08
8.96816e-08
8.66952e-08
8.34151e-08
8.05897e-08
7.80745e-08
7.53814e-08
7.2373e-08
6.94741e-08
6.69094e-08
6.48037e-08
6.29649e-08
6.07286e-08
5.8158e-08
5.58544e-08
5.4036e-08
5.23584e-08
5.05842e-08
4.87036e-08
4.70349e-08
4.54409e-08
4.39144e-08
4.25773e-08
4.12866e-08
3.99362e-08
3.86123e-08
3.74472e-08
3.65078e-08
3.56715e-08
3.47229e-08
3.37162e-08
3.28506e-08
3.21747e-08
3.16748e-08
3.11451e-08
3.05194e-08
3.00612e-08
2.9817e-08
2.96711e-08
2.95259e-08
2.94565e-08
2.95557e-08
2.98188e-08
3.02159e-08
3.06443e-08
3.11583e-08
3.1824e-08
3.2638e-08
3.35918e-08
3.46447e-08
3.57611e-08
3.69296e-08
3.81657e-08
3.94841e-08
4.08922e-08
4.23958e-08
4.39589e-08
4.55498e-08
4.71941e-08
4.89426e-08
5.08278e-08
5.28351e-08
5.49491e-08
5.7148e-08
5.94414e-08
6.17748e-08
6.42338e-08
6.68361e-08
6.95397e-08
7.24352e-08
7.5556e-08
7.87689e-08
8.2159e-08
8.58571e-08
8.96236e-08
9.34586e-08
9.76009e-08
1.02141e-07
1.07049e-07
1.12333e-07
1.1799e-07
1.24037e-07
1.30548e-07
1.37615e-07
1.45382e-07
1.54177e-07
1.64255e-07
1.7527e-07
1.87046e-07
2.00315e-07
2.16064e-07
2.28673e-07
2.28297e-07
2.27884e-07
2.27511e-07
2.27243e-07
2.27056e-07
2.26879e-07
2.26631e-07
2.26364e-07
2.26222e-07
2.26273e-07
2.26413e-07
2.26487e-07
2.26524e-07
2.26586e-07
2.26684e-07
2.26732e-07
2.26777e-07
2.27047e-07
2.27597e-07
2.28216e-07
2.2872e-07
2.29133e-07
2.29554e-07
2.29984e-07
2.30638e-07
2.18679e-07
2.04807e-07
1.93398e-07
1.83705e-07
1.74744e-07
1.65714e-07
1.57998e-07
1.51469e-07
1.4593e-07
1.40443e-07
1.3568e-07
1.29923e-07
1.26035e-07
1.22251e-07
1.19111e-07
1.1597e-07
1.1377e-07
1.10358e-07
1.08356e-07
1.05815e-07
1.04659e-07
1.04469e-07
1.03131e-07
1.03015e-07
9.98124e-08
9.88814e-08
9.52724e-08
9.42446e-08
9.75205e-08
9.81809e-08
9.53809e-08
9.37761e-08
8.4225e-08
8.30159e-08
9.30983e-08
1.00799e-07
1.00113e-07
1.05786e-07
1.59848e-07
1.83357e-07
1.39214e-07
1.03877e-07
8.06874e-08
7.44729e-08
7.87365e-08
8.3422e-08
8.62778e-08
9.19453e-08
9.03384e-08
8.21034e-08
6.22247e-08
5.86634e-08
6.37204e-08
7.16092e-08
9.36866e-08
1.03949e-07
5.74265e-08
3.91224e-08
4.54028e-08
6.43497e-08
5.37687e-08
5.87075e-08
6.59239e-08
8.74696e-08
1.0039e-07
1.16357e-07
1.18517e-07
1.20773e-07
1.35529e-07
1.4394e-07
8.4383e-08
8.47136e-08
1.21565e-07
7.44123e-08
1.47008e-07
6.39159e-08
4.95026e-08
7.84249e-08
9.0812e-08
3.01081e-08
2.93554e-08
4.67869e-08
1.00807e-07
4.59795e-08
5.64692e-08
6.27898e-08
1.00496e-07
1.21488e-07
1.36162e-07
1.3678e-07
1.39235e-07
1.41073e-07
1.39776e-07
1.3527e-07
1.3353e-07
1.34307e-07
1.36984e-07
1.41467e-07
1.45957e-07
1.50776e-07
1.56939e-07
1.65331e-07
1.74008e-07
1.80946e-07
1.89112e-07
2.00128e-07
2.12786e-07
2.28866e-07
2.49202e-07
2.76837e-07
2.98782e-07
3.10022e-07
3.37857e-07
3.5551e-07
3.56209e-07
3.5732e-07
3.58183e-07
3.58531e-07
3.58356e-07
3.57819e-07
3.57161e-07
3.56499e-07
3.55802e-07
3.55022e-07
3.54099e-07
3.53461e-07
3.52653e-07
3.51198e-07
3.49484e-07
3.48152e-07
3.39886e-07
3.13087e-07
2.928e-07
2.74678e-07
2.57134e-07
2.41484e-07
2.2892e-07
2.19378e-07
2.1142e-07
2.04263e-07
1.97007e-07
1.89667e-07
1.84752e-07
1.81926e-07
1.78584e-07
1.733e-07
1.68001e-07
1.64512e-07
1.6368e-07
1.60889e-07
1.57234e-07
1.51956e-07
1.52538e-07
1.49168e-07
1.53433e-07
1.44879e-07
1.00826e-07
8.69149e-08
2.95368e-08
2.89127e-08
2.02518e-08
5.06275e-08
3.19346e-08
2.80567e-08
2.06095e-08
4.33447e-09
1.83461e-09
1.58011e-09
2.23608e-09
3.27697e-09
3.76931e-09
5.73811e-09
1.90702e-08
1.98993e-08
2.11424e-08
2.93571e-08
5.04092e-08
1.02425e-07
1.33827e-07
1.5505e-07
1.71767e-07
1.84925e-07
1.95182e-07
2.03536e-07
2.12308e-07
2.23043e-07
2.35029e-07
2.44517e-07
2.46159e-07
2.37587e-07
2.2228e-07
2.06437e-07
1.95003e-07
1.88338e-07
1.81823e-07
1.74453e-07
1.64074e-07
1.49199e-07
1.33253e-07
1.23494e-07
1.26139e-07
1.36259e-07
1.41443e-07
1.36785e-07
1.24625e-07
1.1373e-07
1.11719e-07
1.15182e-07
1.25895e-07
1.2457e-07
8.7168e-08
6.29151e-08
8.01695e-08
9.14718e-08
9.40362e-08
9.54708e-08
1.0128e-07
1.10637e-07
1.05439e-07
6.87463e-08
7.52105e-08
1.06702e-07
8.28693e-08
8.51271e-08
9.18617e-08
5.84629e-08
5.27352e-08
7.81973e-08
7.80722e-08
7.63942e-08
7.88595e-08
7.97055e-08
8.13537e-08
8.35583e-08
8.58859e-08
8.83438e-08
9.11194e-08
9.44135e-08
9.7534e-08
1.03611e-07
1.15539e-07
1.23814e-07
1.34073e-07
1.42053e-07
1.46642e-07
1.46371e-07
1.41299e-07
1.31935e-07
1.18827e-07
1.04003e-07
9.0157e-08
7.90696e-08
7.18322e-08
6.59831e-08
6.75594e-08
7.00503e-08
7.32868e-08
7.54576e-08
7.57578e-08
7.44241e-08
7.19384e-08
6.98308e-08
6.60467e-08
6.16962e-08
5.73626e-08
5.27707e-08
4.53888e-08
2.31237e-08
2.43773e-08
2.57791e-08
2.30435e-08
1.66892e-08
1.05132e-08
1.30143e-08
1.18272e-08
2.35555e-08
5.23881e-08
3.08808e-08
1.57166e-08
1.43974e-08
1.46358e-08
1.38133e-08
1.13077e-08
1.27136e-08
5.71006e-09
4.62253e-09
7.94963e-09
1.03636e-08
1.50314e-08
1.41436e-08
3.01463e-08
3.04103e-08
2.3761e-07
8.45009e-08
5.76967e-08
4.93463e-08
5.14651e-08
6.28756e-08
6.504e-08
4.86483e-08
4.14987e-08
3.77506e-08
3.44231e-08
3.16252e-08
2.92282e-08
2.69399e-08
2.46195e-08
2.26767e-08
2.11823e-08
2.02634e-08
1.94976e-08
1.83066e-08
1.70476e-08
1.61123e-08
1.5452e-08
1.50337e-08
1.45474e-08
1.39048e-08
1.32503e-08
1.27853e-08
1.24101e-08
1.20653e-08
1.18927e-08
1.17726e-08
1.15291e-08
1.12718e-08
1.11782e-08
1.12139e-08
1.11953e-08
1.12407e-08
1.14039e-08
1.15503e-08
1.17542e-08
1.19645e-08
1.21898e-08
1.26074e-08
1.30705e-08
1.3553e-08
1.40136e-08
1.44499e-08
1.49782e-08
1.55922e-08
1.62519e-08
1.69005e-08
1.75928e-08
1.83579e-08
1.91275e-08
1.98731e-08
2.06472e-08
2.14438e-08
2.24657e-08
2.38286e-08
2.52152e-08
2.65018e-08
2.77533e-08
2.88996e-08
3.01759e-08
3.19933e-08
3.4232e-08
3.66007e-08
3.90231e-08
4.11707e-08
4.34926e-08
4.65443e-08
5.01272e-08
5.41319e-08
5.89094e-08
6.44511e-08
7.05432e-08
7.64245e-08
8.27523e-08
9.12866e-08
1.03482e-07
1.16857e-07
1.32044e-07
1.54912e-07
1.84348e-07
2.1923e-07
2.64507e-07
3.07838e-07
3.26505e-07
3.31479e-07
3.58328e-07
3.75886e-07
3.39366e-07
2.78676e-07
2.34741e-07
2.10815e-07
1.93219e-07
1.81839e-07
1.69501e-07
1.57371e-07
1.47743e-07
1.3988e-07
1.31759e-07
1.23746e-07
1.18277e-07
1.16447e-07
1.1629e-07
1.17397e-07
1.16968e-07
1.13712e-07
1.08661e-07
1.04444e-07
1.03403e-07
1.05516e-07
1.08578e-07
1.10136e-07
1.09188e-07
1.06021e-07
1.02921e-07
1.02887e-07
1.05157e-07
1.07737e-07
1.0927e-07
1.06816e-07
1.02554e-07
1.01046e-07
1.01458e-07
1.03184e-07
1.04858e-07
1.03534e-07
9.96471e-08
9.57288e-08
9.40708e-08
9.38545e-08
9.25348e-08
9.00805e-08
8.77637e-08
8.53562e-08
8.25023e-08
7.98636e-08
7.78764e-08
7.63126e-08
7.43288e-08
7.08922e-08
6.71876e-08
6.48356e-08
6.335e-08
6.19029e-08
5.98088e-08
5.72937e-08
5.5065e-08
5.30941e-08
5.10708e-08
4.9017e-08
4.73659e-08
4.59826e-08
4.45869e-08
4.3212e-08
4.16618e-08
3.98628e-08
3.83692e-08
3.7192e-08
3.61648e-08
3.52706e-08
3.42724e-08
3.30997e-08
3.19493e-08
3.09949e-08
3.02679e-08
2.97153e-08
2.90613e-08
2.8282e-08
2.76028e-08
2.71503e-08
2.68688e-08
2.64816e-08
2.60056e-08
2.57105e-08
2.5636e-08
2.56262e-08
2.55817e-08
2.55723e-08
2.56881e-08
2.5964e-08
2.63916e-08
2.68186e-08
2.7242e-08
2.77707e-08
2.84452e-08
2.92718e-08
3.01843e-08
3.11378e-08
3.21294e-08
3.31889e-08
3.43604e-08
3.56399e-08
3.70234e-08
3.84548e-08
3.98818e-08
4.1349e-08
4.28993e-08
4.45664e-08
4.63405e-08
4.81822e-08
5.00631e-08
5.20885e-08
5.42244e-08
5.64241e-08
5.87197e-08
6.10568e-08
6.3562e-08
6.63538e-08
6.92783e-08
7.23524e-08
7.56055e-08
7.8774e-08
8.20565e-08
8.57401e-08
8.98339e-08
9.42317e-08
9.88944e-08
1.03866e-07
1.09261e-07
1.15059e-07
1.21135e-07
1.27804e-07
1.35605e-07
1.44588e-07
1.54197e-07
1.64373e-07
1.7584e-07
1.89506e-07
2.05886e-07
2.24437e-07
2.45588e-07
2.70439e-07
3.01956e-07
3.44728e-07
3.98498e-07
4.61728e-07
5.44938e-07
6.69977e-07
8.4622e-07
1.02832e-06
1.09195e-06
9.80019e-07
8.09451e-07
6.62855e-07
5.56216e-07
4.7588e-07
4.12944e-07
3.59937e-07
3.19582e-07
2.87438e-07
2.60837e-07
2.40167e-07
2.24325e-07
2.11244e-07
1.96967e-07
1.84417e-07
1.74599e-07
1.67375e-07
1.59383e-07
1.51608e-07
1.43837e-07
1.38455e-07
1.33299e-07
1.29491e-07
1.25211e-07
1.2131e-07
1.16889e-07
1.13722e-07
1.09845e-07
1.07976e-07
1.05692e-07
1.04467e-07
1.0347e-07
1.02088e-07
9.90902e-08
9.75916e-08
9.64684e-08
9.4037e-08
9.32887e-08
9.76889e-08
9.87859e-08
9.33286e-08
9.15574e-08
7.93501e-08
7.87261e-08
9.50848e-08
1.06496e-07
1.0072e-07
1.03864e-07
1.59111e-07
1.60668e-07
1.39292e-07
1.08644e-07
8.67507e-08
7.81359e-08
7.42608e-08
7.23471e-08
7.29826e-08
8.64458e-08
8.59454e-08
6.22897e-08
5.95979e-08
7.119e-08
6.61555e-08
7.36115e-08
8.56827e-08
8.37811e-08
4.86677e-08
3.66265e-08
4.6031e-08
7.64897e-08
7.08193e-08
6.17418e-08
5.90426e-08
4.97953e-08
5.39867e-08
7.07875e-08
8.06448e-08
1.23813e-07
1.08989e-07
1.39784e-07
7.84314e-08
7.31478e-08
1.0037e-07
8.31669e-08
1.22354e-07
5.53451e-08
3.74549e-08
5.20156e-08
6.58824e-08
3.02895e-08
2.76506e-08
3.99262e-08
1.01577e-07
3.37487e-08
7.04e-08
4.3878e-08
4.5761e-08
5.33945e-08
6.681e-08
8.60357e-08
9.93382e-08
1.06849e-07
1.14149e-07
1.26081e-07
1.28087e-07
1.22429e-07
1.21583e-07
1.21464e-07
1.23336e-07
1.30029e-07
1.32372e-07
1.34897e-07
1.42802e-07
1.52903e-07
1.56012e-07
1.60092e-07
1.7194e-07
1.87968e-07
2.00535e-07
2.07829e-07
2.17865e-07
2.33971e-07
2.58163e-07
2.93653e-07
3.21922e-07
3.78072e-07
4.34264e-07
4.47871e-07
4.66329e-07
5.24871e-07
6.23044e-07
7.56433e-07
8.98144e-07
9.21621e-07
8.1907e-07
7.229e-07
6.79428e-07
5.59984e-07
4.97056e-07
4.92553e-07
4.39618e-07
3.66472e-07
3.20212e-07
2.93635e-07
2.75795e-07
2.6296e-07
2.51562e-07
2.39753e-07
2.28409e-07
2.18216e-07
2.09261e-07
2.01479e-07
1.94874e-07
1.89379e-07
1.85127e-07
1.81361e-07
1.76261e-07
1.70061e-07
1.64311e-07
1.61492e-07
1.61524e-07
1.5959e-07
1.53997e-07
1.48457e-07
1.47781e-07
1.49287e-07
1.41225e-07
1.43413e-07
1.45487e-07
1.03642e-07
8.31564e-08
2.87164e-08
2.80046e-08
1.93147e-08
4.99373e-08
3.18178e-08
4.37101e-08
6.35338e-09
2.33675e-09
1.73772e-09
2.06546e-09
3.59021e-09
7.64347e-09
1.15224e-08
1.57703e-08
5.20004e-08
3.01042e-08
3.5727e-08
5.05306e-08
7.58308e-08
1.08584e-07
1.26947e-07
1.42107e-07
1.53435e-07
1.61201e-07
1.66609e-07
1.74468e-07
1.87114e-07
2.01469e-07
2.12358e-07
2.15087e-07
2.07908e-07
1.93118e-07
1.75533e-07
1.59669e-07
1.49117e-07
1.43544e-07
1.39188e-07
1.33778e-07
1.26736e-07
1.18562e-07
1.11095e-07
1.07206e-07
1.08579e-07
1.12441e-07
1.1493e-07
1.13723e-07
8.07465e-08
7.62745e-08
1.05329e-07
8.66218e-08
1.11454e-07
1.11215e-07
6.53807e-08
3.69369e-08
3.39852e-08
3.76831e-08
4.89155e-08
8.648e-08
1.16013e-07
4.87653e-08
3.04449e-08
2.76492e-08
3.80638e-08
5.98005e-08
6.4332e-08
1.00578e-07
9.62846e-08
3.96871e-08
2.79911e-08
5.22672e-08
9.98991e-08
7.2879e-08
4.58132e-08
7.23211e-08
9.61799e-08
9.42802e-08
7.27339e-08
7.26216e-08
9.57723e-08
9.64156e-08
9.55104e-08
9.36261e-08
9.53299e-08
9.78928e-08
1.05848e-07
1.15118e-07
1.20057e-07
1.22633e-07
1.20163e-07
1.15525e-07
1.08929e-07
1.01277e-07
9.37099e-08
8.60874e-08
7.92566e-08
7.40406e-08
7.15535e-08
7.22326e-08
7.52693e-08
7.88205e-08
8.22083e-08
8.44122e-08
7.07184e-08
8.3072e-08
8.14669e-08
7.98129e-08
3.57907e-08
3.51929e-08
3.49505e-08
3.67209e-08
6.37847e-08
5.57587e-08
2.34108e-08
1.30443e-08
1.618e-08
1.41819e-08
1.38262e-08
8.98226e-09
1.06817e-08
1.00784e-08
1.71182e-08
3.35304e-08
4.94092e-08
1.87451e-08
1.38822e-08
1.25427e-08
1.15625e-08
8.62387e-09
9.51558e-09
4.51537e-09
3.7664e-09
6.31688e-09
7.86897e-09
1.1711e-08
1.1635e-08
2.87889e-08
3.76161e-08
1.16833e-07
4.22966e-08
3.18705e-08
3.33536e-08
3.15761e-08
3.58678e-08
3.51975e-08
2.93493e-08
2.60987e-08
2.43766e-08
2.24768e-08
2.0502e-08
1.90155e-08
1.80395e-08
1.73275e-08
1.65628e-08
1.54157e-08
1.44377e-08
1.38153e-08
1.33994e-08
1.29407e-08
1.24327e-08
1.19836e-08
1.15938e-08
1.12312e-08
1.08872e-08
1.06321e-08
1.05559e-08
1.04834e-08
1.03055e-08
1.01282e-08
1.01063e-08
1.01767e-08
1.01903e-08
1.0226e-08
1.03784e-08
1.05497e-08
1.06802e-08
1.08439e-08
1.10417e-08
1.13641e-08
1.17399e-08
1.21522e-08
1.25944e-08
1.30378e-08
1.35673e-08
1.4198e-08
1.47851e-08
1.53081e-08
1.59458e-08
1.66714e-08
1.74771e-08
1.83593e-08
1.91784e-08
1.99337e-08
2.07786e-08
2.1954e-08
2.32544e-08
2.45687e-08
2.60321e-08
2.73713e-08
2.85495e-08
2.9974e-08
3.1894e-08
3.43395e-08
3.6985e-08
3.9147e-08
4.10472e-08
4.35099e-08
4.69981e-08
5.16459e-08
5.65379e-08
6.11061e-08
6.57672e-08
7.06593e-08
7.69448e-08
8.61524e-08
9.77842e-08
1.08527e-07
1.19051e-07
1.36557e-07
1.59388e-07
1.838e-07
2.12924e-07
2.33538e-07
2.38924e-07
2.44664e-07
2.71582e-07
2.92039e-07
2.6942e-07
2.31323e-07
2.00491e-07
1.8251e-07
1.71504e-07
1.67019e-07
1.61111e-07
1.53219e-07
1.43942e-07
1.32791e-07
1.22073e-07
1.17029e-07
1.15984e-07
1.14927e-07
1.14822e-07
1.15384e-07
1.12707e-07
1.07561e-07
1.02654e-07
1.01188e-07
1.03371e-07
1.06568e-07
1.08492e-07
1.0827e-07
1.05851e-07
1.018e-07
9.93081e-08
1.00931e-07
1.05135e-07
1.0784e-07
1.07663e-07
1.04794e-07
1.01316e-07
1.00361e-07
1.0157e-07
1.03621e-07
1.03452e-07
1.00217e-07
9.70666e-08
9.56575e-08
9.47012e-08
9.41864e-08
9.26874e-08
8.90201e-08
8.58073e-08
8.36388e-08
8.13445e-08
7.93262e-08
7.77319e-08
7.61212e-08
7.34147e-08
6.95533e-08
6.61268e-08
6.38578e-08
6.20622e-08
6.05467e-08
5.8891e-08
5.67964e-08
5.45906e-08
5.20886e-08
4.96457e-08
4.77119e-08
4.6472e-08
4.55345e-08
4.4159e-08
4.24284e-08
4.06794e-08
3.90548e-08
3.77377e-08
3.66961e-08
3.58155e-08
3.48253e-08
3.36868e-08
3.26296e-08
3.16555e-08
3.07877e-08
3.00337e-08
2.94055e-08
2.87633e-08
2.81154e-08
2.76421e-08
2.72738e-08
2.68801e-08
2.64564e-08
2.6119e-08
2.59274e-08
2.58555e-08
2.581e-08
2.57785e-08
2.58014e-08
2.59338e-08
2.61861e-08
2.65219e-08
2.68822e-08
2.7255e-08
2.77125e-08
2.83104e-08
2.90285e-08
2.98021e-08
3.0655e-08
3.15829e-08
3.25882e-08
3.37015e-08
3.48956e-08
3.62035e-08
3.76292e-08
3.91095e-08
4.05743e-08
4.20501e-08
4.36408e-08
4.5413e-08
4.73273e-08
4.9195e-08
5.11321e-08
5.32142e-08
5.53666e-08
5.7649e-08
6.00541e-08
6.26089e-08
6.53665e-08
6.82815e-08
7.13164e-08
7.44153e-08
7.7502e-08
8.08372e-08
8.45213e-08
8.84689e-08
9.26816e-08
9.73001e-08
1.02401e-07
1.07789e-07
1.13302e-07
1.19089e-07
1.25595e-07
1.33148e-07
1.41651e-07
1.50717e-07
1.60628e-07
1.71785e-07
1.84697e-07
2.00151e-07
2.17595e-07
2.37103e-07
2.59864e-07
2.87969e-07
3.24909e-07
3.70225e-07
4.1992e-07
4.78049e-07
5.56971e-07
6.63325e-07
7.55805e-07
7.72974e-07
7.1858e-07
6.3893e-07
5.65846e-07
4.93941e-07
4.32302e-07
3.80007e-07
3.37938e-07
3.02777e-07
2.74705e-07
2.50933e-07
2.32188e-07
2.17433e-07
2.05189e-07
1.91662e-07
1.79869e-07
1.71235e-07
1.63359e-07
1.56607e-07
1.48536e-07
1.42337e-07
1.36131e-07
1.32305e-07
1.27712e-07
1.24597e-07
1.19432e-07
1.16066e-07
1.11733e-07
1.09919e-07
1.0804e-07
1.07516e-07
1.01706e-07
1.00765e-07
9.50261e-08
9.54616e-08
1.01333e-07
1.04434e-07
1.07752e-07
9.66966e-08
9.45058e-08
7.92734e-08
7.82506e-08
1.0408e-07
1.18812e-07
1.08104e-07
1.08806e-07
1.53731e-07
1.39978e-07
1.4787e-07
1.16412e-07
9.384e-08
8.13485e-08
7.07791e-08
6.67002e-08
7.24957e-08
8.12484e-08
7.92965e-08
5.96979e-08
5.80575e-08
5.77276e-08
6.71368e-08
7.55006e-08
6.96405e-08
5.11997e-08
4.31166e-08
3.2389e-08
4.21366e-08
6.31332e-08
7.17196e-08
6.08763e-08
5.53697e-08
4.50748e-08
4.99314e-08
6.02368e-08
6.52988e-08
8.46246e-08
8.54243e-08
6.37609e-08
6.0805e-08
9.92953e-08
7.52982e-08
9.30506e-08
7.75256e-08
4.92623e-08
3.47445e-08
3.46926e-08
4.44469e-08
2.75473e-08
2.37227e-08
3.36282e-08
7.79797e-08
3.98519e-08
6.75895e-08
3.40009e-08
4.32291e-08
6.61861e-08
7.11673e-08
7.1698e-08
6.62675e-08
7.21756e-08
8.5323e-08
9.35878e-08
9.73944e-08
1.03438e-07
1.10586e-07
1.12724e-07
1.11249e-07
1.14217e-07
1.17619e-07
1.2165e-07
1.27432e-07
1.28778e-07
1.30735e-07
1.37305e-07
1.44345e-07
1.47907e-07
1.53883e-07
1.65456e-07
1.78748e-07
1.8768e-07
1.92672e-07
2.00698e-07
2.14412e-07
2.34226e-07
2.70302e-07
3.07849e-07
3.39557e-07
3.64223e-07
3.73886e-07
3.85256e-07
4.20864e-07
4.75521e-07
5.28228e-07
5.74174e-07
5.85203e-07
5.71196e-07
5.61218e-07
5.45353e-07
4.90459e-07
4.53783e-07
4.29972e-07
3.89147e-07
3.44331e-07
3.11596e-07
2.89774e-07
2.729e-07
2.57305e-07
2.43254e-07
2.30923e-07
2.20721e-07
2.12438e-07
2.05296e-07
1.98613e-07
1.92199e-07
1.8692e-07
1.83087e-07
1.78538e-07
1.7217e-07
1.65773e-07
1.6194e-07
1.61073e-07
1.59843e-07
1.55024e-07
1.49716e-07
1.48261e-07
1.4884e-07
1.48475e-07
1.40348e-07
1.45618e-07
1.45326e-07
1.01605e-07
8.3858e-08
2.85237e-08
2.79974e-08
1.92809e-08
4.98255e-08
2.7244e-08
1.66678e-08
4.32758e-09
2.21772e-09
2.15134e-09
3.48307e-09
7.8742e-09
1.09367e-08
1.36188e-08
6.87959e-08
4.9451e-08
5.19249e-08
7.30198e-08
8.6877e-08
1.00208e-07
1.13554e-07
1.25448e-07
1.35104e-07
1.42179e-07
1.46554e-07
1.49656e-07
1.5592e-07
1.65619e-07
1.75783e-07
1.82039e-07
1.80916e-07
1.72599e-07
1.59715e-07
1.46271e-07
1.35456e-07
1.2835e-07
1.24917e-07
1.2306e-07
1.21027e-07
1.18828e-07
1.17126e-07
1.01173e-07
8.4046e-08
1.02592e-07
1.22645e-07
1.25149e-07
1.25731e-07
6.44984e-08
4.61595e-08
5.91069e-08
9.95797e-08
1.33379e-07
1.33511e-07
5.98769e-08
2.63487e-08
2.06077e-08
2.2662e-08
3.03191e-08
6.08619e-08
6.23336e-08
3.17261e-08
2.17611e-08
2.22854e-08
3.25686e-08
2.89189e-08
2.79639e-08
6.50709e-08
1.31352e-07
4.48688e-08
2.29177e-08
2.65514e-08
5.55072e-08
1.00356e-07
7.15931e-08
5.72607e-08
1.30748e-07
1.23287e-07
6.00096e-08
5.58191e-08
8.85886e-08
1.10636e-07
1.07374e-07
1.03272e-07
9.83985e-08
9.54419e-08
9.45377e-08
9.61948e-08
9.74153e-08
1.00358e-07
1.01328e-07
9.94989e-08
9.6262e-08
9.2356e-08
8.83479e-08
8.43672e-08
8.07911e-08
7.77963e-08
7.53389e-08
7.26101e-08
7.57537e-08
5.2186e-08
8.7232e-08
6.2336e-08
1.02807e-07
1.09174e-07
6.66581e-08
4.50106e-08
9.07486e-08
1.21102e-07
5.27463e-08
2.25902e-08
2.59794e-08
5.46545e-08
3.20571e-08
3.69289e-08
7.53953e-08
2.46147e-08
1.32306e-08
1.65504e-08
1.42721e-08
1.44022e-08
9.52982e-09
1.05395e-08
9.77362e-09
1.9556e-08
6.67454e-08
1.38079e-07
2.36551e-08
1.61224e-08
1.3485e-08
1.12827e-08
7.72268e-09
8.14001e-09
4.13733e-09
3.57216e-09
5.87611e-09
7.02984e-09
1.05607e-08
1.09234e-08
2.11925e-08
6.73751e-08
8.52532e-08
4.64671e-08
2.65067e-08
2.48036e-08
2.40716e-08
2.57082e-08
2.44404e-08
2.0892e-08
1.86631e-08
1.78277e-08
1.71989e-08
1.66021e-08
1.56156e-08
1.45849e-08
1.37913e-08
1.33261e-08
1.29601e-08
1.24787e-08
1.19334e-08
1.1565e-08
1.13127e-08
1.10219e-08
1.07394e-08
1.0564e-08
1.04708e-08
1.03349e-08
1.02207e-08
1.01667e-08
1.01652e-08
1.01974e-08
1.02495e-08
1.02602e-08
1.03332e-08
1.05097e-08
1.06279e-08
1.07719e-08
1.09691e-08
1.11847e-08
1.14616e-08
1.18096e-08
1.22341e-08
1.27042e-08
1.32395e-08
1.38132e-08
1.4313e-08
1.48237e-08
1.54267e-08
1.60716e-08
1.69039e-08
1.7925e-08
1.87875e-08
1.95472e-08
2.03209e-08
2.12574e-08
2.24512e-08
2.37412e-08
2.52674e-08
2.68928e-08
2.82944e-08
2.94799e-08
3.08379e-08
3.30315e-08
3.56818e-08
3.8121e-08
4.02832e-08
4.26196e-08
4.58793e-08
5.02605e-08
5.46141e-08
5.8394e-08
6.22593e-08
6.71634e-08
7.39736e-08
8.27971e-08
9.26321e-08
1.00774e-07
1.08566e-07
1.22432e-07
1.40836e-07
1.59641e-07
1.76193e-07
1.84313e-07
1.89102e-07
2.00492e-07
2.21908e-07
2.30497e-07
2.11928e-07
1.92011e-07
1.78596e-07
1.68819e-07
1.59492e-07
1.51301e-07
1.47249e-07
1.44448e-07
1.37725e-07
1.2676e-07
1.17287e-07
1.14379e-07
1.14609e-07
1.13305e-07
1.11764e-07
1.1111e-07
1.08753e-07
1.03294e-07
1.00381e-07
1.01771e-07
1.04502e-07
1.06517e-07
1.06585e-07
1.04911e-07
1.01927e-07
9.92305e-08
9.94463e-08
1.02446e-07
1.06024e-07