/*--------------------------------*- C++ -*----------------------------------*\
| =========                 |                                                 |
| \\      /  F ield         | OpenFOAM: The Open Source CFD Toolbox           |
|  \\    /   O peration     | Version:  v2006                                 |
|   \\  /    A nd           | Website:  www.openfoam.com                      |
|    \\/     M anipulation  |                                                 |
\*---------------------------------------------------------------------------*/
FoamFile
{
    version     2.0;
    format      ascii;
    class       volScalarField;
    location    "7";
    object      omega;
}
// * * * * * * * * * * * * * * * * * * * * * * * * * * * * * * * * * * * * * //

dimensions      [0 0 -1 0 0 0 0];


internalField   nonuniform List<scalar> 
33000
(
0.801341
0.801516
0.801834
0.802303
0.802799
0.803143
0.803359
0.803634
0.804074
0.804645
0.805219
0.805726
0.806194
0.806677
0.807246
0.807962
0.808859
0.809936
0.811072
0.812008
0.812626
0.813231
0.814283
0.816369
0.82044
0.827343
0.836629
0.846241
0.854144
0.859608
0.862955
0.864812
0.865698
0.865941
0.865758
0.86534
0.864877
0.864493
0.864254
0.864043
0.863731
0.863275
0.862697
0.862091
0.861796
0.861601
0.861248
0.860725
0.860044
0.859116
0.858372
0.857892
0.857626
0.857676
0.858139
0.858692
0.859002
0.858999
0.858567
0.857674
0.856333
0.854519
0.852216
0.849072
0.845163
0.841562
0.838815
0.836788
0.835075
0.833336
0.831448
0.829434
0.827481
0.825945
0.825024
0.824844
0.825276
0.826335
0.828313
0.831335
0.834686
0.83777
0.840259
0.842062
0.843121
0.843954
0.844246
0.844096
0.843397
0.842465
0.840781
0.838571
0.836235
0.833805
0.831365
0.829075
0.827416
0.826214
0.82588
0.82643
0.827955
0.829775
0.830975
0.831654
0.831793
0.831791
0.831952
0.831995
0.831843
0.831461
0.831024
0.830481
0.829846
0.829018
0.827991
0.826911
0.826052
0.825815
0.826313
0.826956
0.827218
0.82739
0.827334
0.827364
0.827574
0.827706
0.82778
0.827817
0.827832
0.82785
0.827871
0.827879
0.827873
0.827856
0.827831
0.827803
0.827777
0.827754
0.827732
0.827708
0.827682
0.827649
0.82761
0.827562
0.827505
0.827437
0.827363
0.827288
0.827213
0.827128
0.827033
0.82693
0.826822
0.826713
0.8266
0.826478
0.826348
0.826209
0.826063
0.825923
0.825797
0.825687
0.825591
0.82551
0.825445
0.8254
0.825377
0.825371
0.825382
0.825418
0.825487
0.825578
0.82566
0.825723
0.825772
0.825817
0.82586
0.825898
0.825926
0.825946
0.825961
0.825963
0.825954
0.825937
0.82592
0.825906
0.825889
0.825858
0.825809
0.825746
0.825672
0.825596
0.82552
0.825436
0.825339
0.825227
0.825103
0.824977
0.824855
0.824736
0.82461
0.824466
0.824303
0.82413
0.823959
0.823794
0.823629
0.823457
0.823278
0.823103
0.822943
0.822799
0.822651
0.822494
0.822342
0.822213
0.822111
0.822028
0.82195
0.821865
0.821775
0.821696
0.821638
0.821602
0.821579
0.821553
0.821515
0.821473
0.821434
0.821404
0.82139
0.821382
0.821365
0.821335
0.821299
0.821265
0.821233
0.821202
0.821172
0.821137
0.8211
0.821061
0.821015
0.820958
0.820893
0.820828
0.820769
0.820714
0.820654
0.820574
0.820484
0.820399
0.820318
0.820237
0.820151
0.820056
0.819953
0.819849
0.819743
0.819636
0.819526
0.81941
0.819287
0.81916
0.819033
0.818909
0.818786
0.818655
0.818512
0.818362
0.818214
0.818068
0.817922
0.817775
0.817625
0.817466
0.817303
0.817137
0.816969
0.8168
0.816628
0.816456
0.816284
0.816108
0.815922
0.815733
0.815543
0.815352
0.815159
0.814962
0.814762
0.814557
0.814345
0.81413
0.813913
0.813698
0.813485
0.813272
0.813058
0.812845
0.812631
0.812419
0.812207
0.811993
0.811776
0.811554
0.811331
0.811114
0.810907
0.810712
0.810532
0.810368
0.810221
0.810089
0.809971
0.809869
0.809783
0.809712
0.809655
0.80961
0.809572
0.809539
0.809511
0.809487
0.809467
0.809453
0.809444
0.809439
0.809438
0.809439
0.809442
0.809447
0.809453
0.809461
0.80947
0.809478
0.809485
0.80949
0.809492
0.809489
0.80948
0.809466
0.809448
0.809425
0.809399
0.809369
0.809335
0.809298
0.809257
0.809214
0.809168
0.809119
0.809067
0.809012
0.808954
0.808894
0.808831
0.808766
0.808699
0.80863
0.80856
0.808488
0.808414
0.80834
0.808264
0.808188
0.80811
0.808032
0.807953
0.807874
0.807795
0.807715
0.807635
0.807554
0.807473
0.807391
0.807309
0.807226
0.807143
0.807059
0.806974
0.806889
0.806803
0.806716
0.806629
0.806542
0.806455
0.806367
0.80628
0.806193
0.806106
0.80602
0.805934
0.805849
0.805764
0.80568
0.805598
0.805517
0.805437
0.805358
0.80528
0.805204
0.80513
0.805057
0.804986
0.804916
0.804848
0.804782
0.804719
0.804657
0.804597
0.804539
0.804482
0.804426
0.804373
0.804321
0.804271
0.804222
0.804173
0.804123
0.804079
0.804034
0.803991
0.803952
0.803894
0.803839
0.803813
0.803753
0.803735
0.803711
0.803792
0.803825
0.803874
0.803891
0.803906
0.803904
0.803896
0.803887
0.803876
0.803866
0.803849
0.803848
0.803828
0.8038
0.8038
0.803764
0.803708
0.803639
0.803649
0.803655
0.803684
0.803714
0.803727
0.803739
0.803742
0.803748
0.803746
0.803731
0.803719
0.803709
0.803681
0.803696
0.803673
0.803584
0.803565
0.803514
0.803439
0.803498
0.803626
0.804019
0.804258
0.804688
0.805047
0.805426
0.805733
0.805987
0.806192
0.806361
0.806499
0.806608
0.806697
0.806776
0.806842
0.806899
0.806951
0.806995
0.807035
0.807075
0.807111
0.80714
0.807169
0.8072
0.80723
0.807257
0.80728
0.807302
0.807325
0.807346
0.807367
0.807386
0.807407
0.807424
0.807437
0.807448
0.80746
0.807473
0.807486
0.807499
0.807511
0.807522
0.807532
0.807542
0.807553
0.807561
0.80757
0.807582
0.807594
0.807604
0.807612
0.807619
0.807625
0.807631
0.807636
0.807642
0.807647
0.807652
0.807656
0.807659
0.807661
0.807663
0.807665
0.807666
0.807668
0.807668
0.807666
0.807664
0.807662
0.807659
0.807656
0.807651
0.807647
0.807642
0.807636
0.807623
0.807617
0.807608
0.807588
0.807665
0.807418
0.807704
0.0122914
0.0511574
0.140888
0.304358
0.543343
0.709619
0.765216
0.799499
0.861648
0.93185
0.97593
0.994219
0.990343
0.974941
0.973443
0.99668
1.05225
1.13609
1.24246
1.35396
1.44539
1.48908
1.46974
1.39791
1.30495
1.22931
1.17288
1.11443
1.0454
0.973438
0.91742
0.879137
0.84152
0.793062
0.734798
0.669615
0.60917
0.573729
0.572158
0.588263
0.593601
0.574773
0.534546
0.502314
0.496451
0.512319
0.527065
0.521601
0.491174
0.450624
0.41708
0.397039
0.389564
0.394415
0.412811
0.438836
0.460143
0.47057
0.472216
0.477153
0.494611
0.514275
0.522596
0.520131
0.514968
0.520727
0.54685
0.596112
0.666036
0.746466
0.822759
0.879801
0.908997
0.926407
0.943598
0.976569
1.03697
1.09088
1.11733
1.13485
1.22006
1.33896
1.40104
1.42064
1.30511
1.16822
0.962565
0.784988
0.649076
0.513143
0.424208
0.38217
0.385384
0.428776
0.503007
0.594901
0.693288
0.776367
0.857932
0.924532
0.970127
0.987829
0.986151
0.89888
0.777319
0.637554
0.500778
0.378629
0.292094
0.237625
0.202272
0.183808
0.180389
0.189044
0.207239
0.228913
0.256754
0.275457
0.27921
0.291194
0.292167
0.254507
0.22386
0.199642
0.183362
0.169755
0.16095
0.15539
0.152783
0.151456
0.151053
0.150872
0.150747
0.151677
0.153194
0.154781
0.155821
0.156518
0.157442
0.158557
0.159563
0.160157
0.160234
0.159698
0.15931
0.159621
0.160353
0.161033
0.160908
0.159995
0.159583
0.159898
0.160336
0.160235
0.159876
0.159625
0.159381
0.15904
0.158427
0.157752
0.157339
0.156791
0.155608
0.154286
0.153454
0.152733
0.151319
0.14929
0.147679
0.146579
0.145353
0.143729
0.141655
0.139629
0.137898
0.136456
0.135161
0.133638
0.131869
0.130009
0.128018
0.125838
0.123783
0.121947
0.120295
0.118739
0.116977
0.114957
0.112875
0.110904
0.109173
0.107572
0.105942
0.104184
0.102265
0.100285
0.0984376
0.0968578
0.0955051
0.0941496
0.0926427
0.0909471
0.0892034
0.0876114
0.0861764
0.0848333
0.0834973
0.0820913
0.0806659
0.0793481
0.0781431
0.0769098
0.0755003
0.0740406
0.0727382
0.0716452
0.0707077
0.0697509
0.0686208
0.0673581
0.06614
0.0650998
0.0642619
0.063531
0.0627788
0.0619186
0.0609788
0.0600795
0.0593245
0.0587379
0.0582523
0.057754
0.0571846
0.0565908
0.0560665
0.0556627
0.0553729
0.0551553
0.0549533
0.0547562
0.0545924
0.0544533
0.0543018
0.0541404
0.0540287
0.054029
0.0541281
0.0542133
0.0541877
0.0540843
0.0540258
0.0540767
0.0541843
0.0542692
0.0542973
0.0542718
0.0542297
0.054214
0.0542274
0.0542378
0.0542099
0.0541351
0.0540607
0.0540563
0.054144
0.0542624
0.0542972
0.0541831
0.0539915
0.0538528
0.0538408
0.0539418
0.0540805
0.0541653
0.0541583
0.0540931
0.0540295
0.0539933
0.0539843
0.0540142
0.0541169
0.0542746
0.0543798
0.0543655
0.0542874
0.0542434
0.0542725
0.0543695
0.0545143
0.0546432
0.0546834
0.0546453
0.0546031
0.0546051
0.0546783
0.0547954
0.0548661
0.0548589
0.0547961
0.0547076
0.0546624
0.0546668
0.0546287
0.054505
0.0543209
0.0541525
0.0539978
0.0537899
0.0535064
0.0531857
0.0529073
0.0526863
0.0524517
0.0521218
0.0517125
0.0513284
0.0510073
0.0506924
0.05036
0.0500229
0.0497196
0.0494782
0.0492561
0.0490168
0.0487928
0.0486449
0.048583
0.0485424
0.0484831
0.0484355
0.0484603
0.0485964
0.0487829
0.0489145
0.0489514
0.0489399
0.0489451
0.048995
0.0490856
0.0491686
0.0491993
0.0491904
0.0491786
0.0492128
0.0492922
0.0493406
0.0493176
0.0492582
0.0492306
0.0492681
0.049334
0.0493569
0.0493299
0.0493356
0.0493966
0.0494498
0.0494809
0.0495162
0.0495618
0.0496036
0.0496425
0.0496879
0.0497387
0.0498041
0.0498797
0.0499451
0.0499806
0.049991
0.049996
0.05002
0.0500503
0.0500476
0.0499912
0.049908
0.0498423
0.049786
0.0497216
0.0496451
0.0495802
0.0495159
0.0493932
0.0491975
0.0489841
0.0488002
0.0486392
0.0484755
0.048311
0.0480924
0.047829
0.0475812
0.0473821
0.0471514
0.0468537
0.0465554
0.0462892
0.0459931
0.0457184
0.0454756
0.0452178
0.0449044
0.0445287
0.0441259
0.0437809
0.0434519
0.043128
0.0427929
0.0423587
0.0418791
0.0414231
0.0410045
0.0406493
0.0402453
0.0398818
0.0393405
0.0389388
0.0386086
0.0382068
0.0380676
0.0377707
0.0370088
0.03659
0.0362886
0.0360418
0.0372774
0.0376789
0.036278
0.0363327
0.0358505
0.0358404
0.0357409
0.0349734
0.0338483
0.0335825
0.0325386
0.032478
0.0318646
0.0313613
0.030953
0.0310521
0.0309404
0.0310212
0.0346332
0.0362187
0.0329972
0.0345179
0.0322905
0.0305568
0.0292551
0.0293442
0.0292584
0.0279892
0.026978
0.0263888
0.026549
0.0265933
0.0269721
0.0274893
0.0275567
0.0277641
0.0279082
0.0278004
0.0319334
0.0435117
0.0475872
0.0566651
0.05228
0.058696
0.0576331
0.0780534
0.0837521
0.064531
0.0633809
0.0581171
0.0505466
0.0432954
0.0378451
0.0342129
0.0319031
0.0304458
0.0294259
0.0287385
0.0283713
0.0281193
0.0279769
0.0279597
0.0279028
0.0279289
0.0280329
0.0281563
0.0281663
0.0282041
0.0283434
0.0285039
0.0286332
0.0287081
0.0287707
0.0288519
0.0289204
0.0289972
0.0290553
0.0291469
0.0291896
0.0291284
0.0290331
0.0289612
0.0289336
0.0289511
0.0289987
0.0290558
0.0291135
0.0291742
0.0292413
0.02932
0.0293739
0.0294436
0.0295714
0.0297241
0.0298436
0.0299068
0.0299176
0.0298922
0.0298531
0.0298224
0.0298181
0.0298479
0.0299023
0.029956
0.029982
0.0299775
0.0299711
0.0300012
0.0300843
0.0301897
0.0302602
0.0302706
0.0302564
0.0302726
0.0303183
0.0303425
0.0303116
0.0302725
0.0302344
0.0301261
0.0299653
0.0297992
0.0298078
0.0303897
0.0307132
0.0338932
0.0324223
0.00521841
0.027315
0.0879281
0.191946
0.273166
0.291436
0.280821
0.280259
0.304949
0.349519
0.408283
0.471332
0.512418
0.537803
0.572844
0.646769
0.767199
0.92654
1.1068
1.2752
1.39219
1.43888
1.42042
1.35507
1.26506
1.1635
1.05023
0.927148
0.810042
0.715911
0.651936
0.61106
0.57354
0.532014
0.484765
0.435841
0.393818
0.367502
0.361438
0.365724
0.36606
0.357152
0.335668
0.314075
0.30728
0.314109
0.320136
0.318244
0.304495
0.278976
0.252059
0.233592
0.225163
0.225421
0.231993
0.24128
0.249463
0.253213
0.256036
0.266827
0.287176
0.303578
0.309251
0.303286
0.283195
0.26418
0.258641
0.268148
0.289287
0.317285
0.34528
0.366305
0.377558
0.385265
0.399667
0.428934
0.473961
0.563929
0.695575
0.807307
0.928494
1.03382
1.11689
1.18884
1.25124
1.2654
1.19258
1.03862
0.841935
0.65564
0.507949
0.405351
0.334233
0.30153
0.298877
0.314951
0.336786
0.355542
0.371952
0.395767
0.403551
0.415521
0.433752
0.43288
0.423617
0.412352
0.383749
0.34034
0.289335
0.233222
0.180517
0.128687
0.0921193
0.0670297
0.0559946
0.0555126
0.0619548
0.0683745
0.0701354
0.0717304
0.0725467
0.0703536
0.0709325
0.0681586
0.0578589
0.0488816
0.0415877
0.037025
0.0335418
0.0314446
0.0301836
0.0296902
0.029439
0.0296625
0.0301814
0.0307744
0.0311641
0.0314365
0.0317083
0.0319707
0.0322635
0.032469
0.0325031
0.0323633
0.0322785
0.0323863
0.0325686
0.0326655
0.032536
0.0323008
0.032234
0.0323215
0.032382
0.0322451
0.0320625
0.0319825
0.0319432
0.0318373
0.0316174
0.0313591
0.0311323
0.030867
0.0304885
0.0300884
0.0297811
0.029472
0.0290085
0.0283867
0.0278349
0.027425
0.0269952
0.0264713
0.0258472
0.0251955
0.0245987
0.0240814
0.0236194
0.0231223
0.0225609
0.0219676
0.0213399
0.0206686
0.0200188
0.0194173
0.0188727
0.0183775
0.0178626
0.0172993
0.01671
0.0161242
0.0155861
0.0151002
0.0146419
0.0141842
0.0137028
0.0132
0.012715
0.0122894
0.0119239
0.0115796
0.0112186
0.0108248
0.0104281
0.0100672
0.00974378
0.00944418
0.00915043
0.00885301
0.00856262
0.0082979
0.00805742
0.00781723
0.00755498
0.00728698
0.00704828
0.00685035
0.00668365
0.00652374
0.00634826
0.00615545
0.00596383
0.0057941
0.00565641
0.0055426
0.00543388
0.0053138
0.00518156
0.00505126
0.0049374
0.00484708
0.00477408
0.00470303
0.00462468
0.00454333
0.00447106
0.00441457
0.00437328
0.00434162
0.00431254
0.00428437
0.00425941
0.00423822
0.00421838
0.00419945
0.00418659
0.00418531
0.00419453
0.00420415
0.00420472
0.00419842
0.00419571
0.0042021
0.00421296
0.00422263
0.00422957
0.00423334
0.00423602
0.00424031
0.00424436
0.00424527
0.00424232
0.0042371
0.0042345
0.00424006
0.00425504
0.00427215
0.00427841
0.00426821
0.00425115
0.00424079
0.00424373
0.0042573
0.00427366
0.00428635
0.0042925
0.00429234
0.00428908
0.00428577
0.00428509
0.0042908
0.00430615
0.00432741
0.00434269
0.00434434
0.00433786
0.00433517
0.00434116
0.00435346
0.00436961
0.00438448
0.00439114
0.00439025
0.00438885
0.00439076
0.00439805
0.00440876
0.00441622
0.00441938
0.00441838
0.00441106
0.00440276
0.00439824
0.00439363
0.00438431
0.00436679
0.00434585
0.00432531
0.00430311
0.00427502
0.00424153
0.00420939
0.00418164
0.00415494
0.00412061
0.00407664
0.00403213
0.0039928
0.00395627
0.00392077
0.00388498
0.00385013
0.00381886
0.00378975
0.00376187
0.00373848
0.00372238
0.00371199
0.00370254
0.00369251
0.0036858
0.00368676
0.00369659
0.00370982
0.00371819
0.00371869
0.0037153
0.003713
0.00371339
0.00371641
0.00371955
0.00371972
0.0037166
0.00371274
0.00371284
0.00371572
0.00371482
0.0037087
0.00370119
0.00369723
0.00369844
0.00370156
0.00370174
0.00369898
0.00369927
0.00370419
0.00370978
0.00371531
0.00372119
0.00372699
0.00373255
0.00373905
0.00374711
0.00375545
0.00376459
0.00377437
0.00378351
0.00379092
0.00379649
0.00380121
0.00380672
0.00381228
0.0038149
0.00381197
0.00380582
0.00380089
0.003797
0.003793
0.00378665
0.00377921
0.00377098
0.00375904
0.00374127
0.00372069
0.00370186
0.00368502
0.00366701
0.00364764
0.00362306
0.00359603
0.00357032
0.00354635
0.00351878
0.00348767
0.00345828
0.00343043
0.00339812
0.00336679
0.00333766
0.00330834
0.00327749
0.00323979
0.00319965
0.00316353
0.00312765
0.0030908
0.00305609
0.00301476
0.00297083
0.00292609
0.00288004
0.00284045
0.00279562
0.0027611
0.00271588
0.00268856
0.00266151
0.00261206
0.0025808
0.00255675
0.00254867
0.00258837
0.00262217
0.00255779
0.00264001
0.00262591
0.00246809
0.00232743
0.00224103
0.00226956
0.00232738
0.00233422
0.00227088
0.00220005
0.00212372
0.00209769
0.0020509
0.00203451
0.00210462
0.00222905
0.00231333
0.00222856
0.00245198
0.00241128
0.00218212
0.00192822
0.00184483
0.00186717
0.0018276
0.00186351
0.00181653
0.00177435
0.00178635
0.00176703
0.00179598
0.00178001
0.00174657
0.00179358
0.00185227
0.00207068
0.00254044
0.00303329
0.00380022
0.00439787
0.0049138
0.0045159
0.00480628
0.00508075
0.00387538
0.00509586
0.00509516
0.00453406
0.00426857
0.00376416
0.00323154
0.00277711
0.00244267
0.00221264
0.00206312
0.0019637
0.00189076
0.00183827
0.00180601
0.00178221
0.00176587
0.00175792
0.00174992
0.0017463
0.0017475
0.00175096
0.00175015
0.00175115
0.0017581
0.00176725
0.00177504
0.00178053
0.00178538
0.00179074
0.00179555
0.00180104
0.00180566
0.00181165
0.00181521
0.00181364
0.00180991
0.00180752
0.00180758
0.00180957
0.00181293
0.00181699
0.00182133
0.00182601
0.00183139
0.00183803
0.00184306
0.00184817
0.00185639
0.00186601
0.00187366
0.00187819
0.00188004
0.00188005
0.00187919
0.0018785
0.00187905
0.00188156
0.00188575
0.00189026
0.00189359
0.00189538
0.00189708
0.00190089
0.00190746
0.0019144
0.00191867
0.0019197
0.00191995
0.00192227
0.00192565
0.00192707
0.00192528
0.0019238
0.00192387
0.00191915
0.00191149
0.00190339
0.00191216
0.00196431
0.00203684
0.00230283
0.00226338
0.00490975
0.0250194
0.0738796
0.129659
0.155137
0.154637
0.151395
0.158928
0.183316
0.220758
0.271318
0.320748
0.353705
0.377503
0.406132
0.45691
0.548089
0.680021
0.826911
0.949968
1.02182
1.05216
1.05683
1.03435
0.97763
0.884426
0.763993
0.638398
0.532468
0.457087
0.41185
0.385211
0.360643
0.329988
0.294631
0.261006
0.23467
0.21812
0.211516
0.21025
0.208679
0.203338
0.19248
0.181657
0.176289
0.177657
0.179658
0.178464
0.172065
0.160648
0.148736
0.137836
0.128988
0.123565
0.122869
0.126538
0.129974
0.130418
0.132147
0.140457
0.153668
0.164556
0.170277
0.167685
0.15855
0.146488
0.138551
0.138742
0.146106
0.157536
0.172751
0.191064
0.208763
0.22346
0.238821
0.260938
0.292305
0.330794
0.390567
0.454586
0.552773
0.669269
0.759734
0.839893
0.884496
0.897274
0.881377
0.831928
0.772443
0.695104
0.596895
0.484254
0.381994
0.303582
0.251045
0.218882
0.20349
0.200216
0.200679
0.199229
0.195941
0.194002
0.198558
0.198607
0.202047
0.210156
0.211414
0.211725
0.211038
0.207413
0.189175
0.164108
0.134363
0.105446
0.0748136
0.0505103
0.0339053
0.0245517
0.020132
0.0189851
0.0190037
0.0190313
0.0196265
0.0204221
0.0204569
0.0214418
0.0206299
0.0169373
0.0138254
0.0113619
0.00990132
0.00877855
0.00807108
0.00773639
0.00767935
0.00774719
0.00778483
0.00782806
0.00786988
0.0078847
0.0079221
0.00795864
0.00795828
0.00794405
0.00794851
0.00797365
0.00799389
0.00798674
0.00794627
0.00791773
0.00792437
0.00794089
0.00793711
0.00789174
0.00784441
0.0078244
0.007818
0.00779704
0.00774814
0.00768107
0.00760051
0.00751005
0.00741448
0.00732121
0.00723329
0.00713319
0.00701
0.00685795
0.00670899
0.00658755
0.00647034
0.00633775
0.00618716
0.00602437
0.00587005
0.0057334
0.00561101
0.00548653
0.00535011
0.00520766
0.00506257
0.00491515
0.00477077
0.00463292
0.00450596
0.00439097
0.00427924
0.00416543
0.00404808
0.00392809
0.00381377
0.00371036
0.00361614
0.00352793
0.00344091
0.00335066
0.00326001
0.00317691
0.00310485
0.00304075
0.00297695
0.00290772
0.00283671
0.00277157
0.00271442
0.00266246
0.00261106
0.00255802
0.00250508
0.0024558
0.00241175
0.00237051
0.00232693
0.0022802
0.00223513
0.00219479
0.00215893
0.00212675
0.00209558
0.002062
0.00202517
0.00198821
0.00195525
0.00192801
0.0019048
0.0018814
0.00185479
0.00182568
0.00179688
0.00177143
0.00175025
0.00173171
0.00171376
0.00169543
0.0016772
0.00166004
0.00164426
0.00162913
0.00161554
0.00160494
0.0015963
0.00158797
0.00157862
0.00156827
0.0015588
0.00155171
0.00154729
0.00154497
0.00154311
0.00153973
0.00153474
0.00152996
0.00152688
0.00152577
0.00152595
0.00152606
0.00152493
0.00152295
0.0015215
0.00152157
0.00152207
0.00152192
0.00152157
0.00152164
0.0015229
0.00152562
0.00152806
0.00152891
0.0015293
0.00153006
0.0015313
0.00153295
0.0015354
0.00153901
0.00154308
0.00154652
0.00154908
0.00155084
0.00155237
0.00155491
0.00155882
0.00156381
0.00156899
0.00157301
0.00157532
0.00157696
0.00157958
0.00158343
0.00158786
0.00159234
0.00159604
0.00159864
0.00160056
0.00160258
0.00160503
0.00160746
0.00160971
0.00161168
0.00161295
0.00161291
0.00161224
0.00161165
0.00161056
0.00160866
0.00160586
0.00160242
0.00159864
0.00159429
0.00158869
0.00158219
0.00157551
0.00156884
0.0015618
0.00155363
0.00154427
0.00153455
0.00152509
0.00151568
0.00150604
0.00149609
0.001486
0.00147592
0.00146598
0.00145628
0.00144705
0.00143833
0.00142981
0.00142131
0.00141289
0.00140504
0.00139804
0.00139167
0.00138549
0.00137921
0.00137286
0.00136661
0.00136067
0.00135505
0.00134973
0.0013448
0.00134004
0.00133526
0.00133062
0.00132632
0.00132227
0.00131823
0.00131426
0.00131063
0.00130754
0.00130496
0.00130269
0.00130039
0.00129809
0.0012962
0.00129486
0.00129396
0.00129338
0.00129289
0.00129243
0.00129216
0.00129223
0.00129263
0.00129308
0.00129352
0.00129406
0.00129473
0.00129549
0.00129615
0.00129656
0.00129697
0.00129757
0.0012981
0.00129813
0.00129771
0.00129729
0.001297
0.00129673
0.00129608
0.00129517
0.00129416
0.00129302
0.00129155
0.00128974
0.00128785
0.00128607
0.00128403
0.00128165
0.00127886
0.00127621
0.00127351
0.00127063
0.00126738
0.00126403
0.00126097
0.00125796
0.00125451
0.00125081
0.0012472
0.00124359
0.00124021
0.00123646
0.00123242
0.00122836
0.00122419
0.00121994
0.0012165
0.00121235
0.00120773
0.00120303
0.00119806
0.00119383
0.00119082
0.00118986
0.00118827
0.00118301
0.00118625
0.0012063
0.00122023
0.00125017
0.00127168
0.00136
0.00139398
0.00131761
0.00126355
0.00122259
0.00120954
0.00117232
0.00116226
0.00114892
0.00114386
0.00114698
0.00115172
0.00116128
0.00120979
0.00123979
0.0012688
0.00130789
0.00136823
0.00148394
0.00156858
0.00145323
0.00134382
0.00125606
0.00124123
0.00117432
0.00116181
0.00112624
0.00111481
0.00113415
0.00113137
0.00115316
0.00113214
0.00118057
0.00120813
0.00127088
0.00136786
0.00159949
0.00195991
0.0025381
0.003142
0.00348195
0.00343071
0.00308869
0.00266638
0.0021433
0.00194531
0.001737
0.00154116
0.00142374
0.00136941
0.00136132
0.00134873
0.00133437
0.00131292
0.00128648
0.001259
0.00123434
0.00121372
0.00119663
0.00118176
0.00116893
0.00115865
0.0011499
0.00114269
0.00113705
0.0011317
0.0011272
0.00112392
0.00112146
0.00111894
0.00111684
0.00111576
0.00111509
0.00111412
0.00111303
0.00111214
0.00111182
0.00111183
0.00111219
0.00111238
0.00111265
0.00111269
0.00111221
0.00111157
0.00111125
0.00111134
0.00111159
0.00111196
0.00111234
0.00111255
0.00111264
0.00111288
0.00111343
0.00111358
0.00111368
0.00111425
0.00111498
0.00111543
0.00111559
0.00111559
0.00111558
0.00111559
0.00111565
0.00111574
0.00111586
0.001116
0.00111614
0.00111627
0.00111634
0.00111636
0.00111651
0.00111689
0.00111731
0.00111744
0.00111726
0.00111714
0.00111745
0.00111783
0.00111776
0.00111744
0.00111736
0.00111813
0.00111737
0.00111722
0.00111625
0.00112298
0.00115485
0.00120191
0.00137165
0.00136762
0.00444321
0.0203187
0.0535997
0.0854349
0.0979344
0.100327
0.108359
0.130021
0.160708
0.194722
0.226718
0.249135
0.265
0.281615
0.305314
0.344138
0.407164
0.49478
0.591455
0.66994
0.71247
0.726782
0.719331
0.691407
0.639737
0.563578
0.473147
0.385412
0.317081
0.272861
0.247703
0.233084
0.218816
0.199579
0.177522
0.158066
0.143616
0.133594
0.127311
0.123387
0.120641
0.117762
0.113922
0.109613
0.105758
0.103707
0.102793
0.102258
0.101222
0.098241
0.0926249
0.0852669
0.0778553
0.0718509
0.0693114
0.0697192
0.0702348
0.0699907
0.071229
0.0764482
0.0838699
0.0902605
0.0951535
0.0969338
0.0949173
0.0904721
0.0860834
0.0839682
0.0854461
0.0902216
0.0977926
0.108837
0.121068
0.131662
0.141435
0.154114
0.171848
0.19396
0.215318
0.236489
0.262759
0.304932
0.341042
0.400011
0.454831
0.479271
0.487688
0.488043
0.483926
0.464071
0.43226
0.393528
0.355085
0.313511
0.26409
0.217439
0.178228
0.15114
0.132561
0.120554
0.113563
0.108727
0.103715
0.0998427
0.0995111
0.103465
0.107166
0.110326
0.118115
0.126664
0.131309
0.132817
0.130865
0.120169
0.10551
0.0882373
0.0710035
0.0520298
0.0355224
0.0231127
0.0154507
0.0115387
0.00993276
0.0094226
0.00948727
0.0100066
0.0108332
0.01139
0.0123594
0.0119617
0.00972229
0.00785974
0.00634588
0.005385
0.00474125
0.00434784
0.00407701
0.00388606
0.00374453
0.00362341
0.00355987
0.00353064
0.0035064
0.00349329
0.00349025
0.00348041
0.00347041
0.00346152
0.00345571
0.00345592
0.00345927
0.00345784
0.0034524
0.00344555
0.0034416
0.00343762
0.00343214
0.00342671
0.00341886
0.00340449
0.00338284
0.00335975
0.0033366
0.00331207
0.0032865
0.00325823
0.0032269
0.00319235
0.00315616
0.00312053
0.00308782
0.00305487
0.00301889
0.00298062
0.0029432
0.00290743
0.00287306
0.00283872
0.00280371
0.00276965
0.00273753
0.00270526
0.00267097
0.00263597
0.00260158
0.00256895
0.0025401
0.00251445
0.0024888
0.00246118
0.00243161
0.00240236
0.0023752
0.00235109
0.00232969
0.00230823
0.00228451
0.00225901
0.00223492
0.00221424
0.00219509
0.00217442
0.0021517
0.00212981
0.00211044
0.00209158
0.00207105
0.00204845
0.00202551
0.00200482
0.00198739
0.00197111
0.00195216
0.00192922
0.00190498
0.00188225
0.00186223
0.00184522
0.00182903
0.00181027
0.00178798
0.00176476
0.00174368
0.00172547
0.00170896
0.00169278
0.00167564
0.00165724
0.00163782
0.00161818
0.00160025
0.00158499
0.00157144
0.00155782
0.00154322
0.0015287
0.00151526
0.00150226
0.00149028
0.00148091
0.00147286
0.0014637
0.00145331
0.00144293
0.00143396
0.00142729
0.0014228
0.00141969
0.00141619
0.00141095
0.00140481
0.00139972
0.00139673
0.00139506
0.00139372
0.00139233
0.00139025
0.00138796
0.0013869
0.00138768
0.00138878
0.00138851
0.00138737
0.00138631
0.00138609
0.00138783
0.00139082
0.00139326
0.00139459
0.00139508
0.00139537
0.0013965
0.00139935
0.00140283
0.00140548
0.00140779
0.00141053
0.00141337
0.00141556
0.0014175
0.00142026
0.00142412
0.00142827
0.00143186
0.00143437
0.00143606
0.00143841
0.00144228
0.00144621
0.00144909
0.00145155
0.00145365
0.00145558
0.00145823
0.00146093
0.00146266
0.0014639
0.00146503
0.00146597
0.00146675
0.00146708
0.0014667
0.00146569
0.00146433
0.0014629
0.00146105
0.00145839
0.00145532
0.00145175
0.00144759
0.00144305
0.00143815
0.00143286
0.00142705
0.00142074
0.00141415
0.00140727
0.0014
0.00139238
0.00138464
0.00137683
0.0013688
0.00136055
0.0013522
0.00134381
0.00133549
0.0013273
0.00131909
0.00131081
0.00130271
0.00129487
0.00128726
0.00127976
0.00127239
0.00126534
0.00125863
0.00125222
0.00124604
0.00124011
0.00123448
0.00122907
0.00122389
0.00121901
0.00121438
0.00120999
0.00120586
0.00120201
0.00119842
0.00119511
0.00119211
0.00118944
0.00118693
0.00118455
0.00118241
0.00118055
0.00117897
0.00117763
0.00117644
0.0011754
0.00117456
0.00117389
0.00117342
0.00117305
0.00117273
0.00117248
0.0011723
0.00117219
0.00117213
0.0011721
0.00117208
0.00117209
0.00117216
0.00117223
0.00117218
0.00117202
0.00117187
0.00117166
0.00117141
0.00117111
0.00117071
0.00117023
0.00116974
0.00116917
0.00116844
0.0011676
0.00116679
0.00116589
0.00116481
0.00116373
0.00116256
0.0011614
0.00116012
0.00115879
0.00115739
0.00115606
0.00115463
0.00115326
0.00115168
0.00115004
0.00114826
0.00114659
0.00114487
0.00114365
0.00114207
0.00114015
0.00113831
0.00113652
0.0011353
0.00113994
0.00113973
0.001138
0.0011338
0.00113776
0.00115718
0.00117273
0.00120524
0.00123046
0.00131855
0.00135754
0.00128842
0.00123814
0.0011981
0.00118252
0.00114666
0.00113288
0.00112067
0.00111732
0.00111642
0.0011205
0.00113613
0.00118682
0.00122365
0.00128753
0.00131829
0.00147372
0.00155869
0.00150471
0.00140004
0.00127914
0.00122736
0.00122228
0.00116278
0.00115072
0.00111541
0.00110268
0.00111411
0.00111843
0.00112564
0.00112901
0.0011751
0.00125791
0.00137812
0.00156152
0.00194386
0.00221782
0.00285076
0.00335366
0.00360847
0.00349541
0.0031729
0.00275245
0.00220425
0.00197889
0.00170912
0.0014715
0.00132968
0.0012538
0.00123381
0.00123121
0.00123612
0.00123521
0.00123229
0.00122771
0.00122077
0.00121199
0.00120161
0.00119029
0.00117932
0.0011685
0.00115871
0.00115044
0.00114338
0.00113682
0.00113082
0.00112531
0.00112022
0.00111608
0.00111293
0.00111029
0.00110773
0.00110547
0.00110366
0.00110214
0.00110085
0.00109988
0.00109916
0.00109848
0.00109779
0.0010974
0.00109733
0.0010972
0.00109691
0.0010965
0.00109606
0.00109572
0.00109557
0.00109557
0.00109568
0.00109583
0.0010959
0.00109589
0.00109589
0.00109595
0.00109595
0.00109595
0.00109608
0.00109626
0.00109636
0.00109637
0.0010963
0.00109626
0.00109628
0.00109636
0.00109641
0.00109638
0.00109628
0.00109617
0.00109613
0.00109611
0.00109606
0.00109605
0.00109611
0.00109612
0.00109596
0.0010958
0.00109594
0.00109621
0.00109618
0.00109568
0.00109567
0.00109582
0.00109617
0.00109522
0.0010957
0.00109523
0.00110174
0.00113299
0.00117935
0.00134675
0.00134369
0.0036661
0.0152033
0.0375272
0.0573646
0.0661445
0.0710161
0.0812849
0.0972439
0.114925
0.132023
0.148414
0.164268
0.178695
0.194485
0.213559
0.239781
0.278755
0.331279
0.387568
0.430677
0.452625
0.453251
0.43609
0.406604
0.367118
0.318312
0.265842
0.217783
0.181976
0.159615
0.14729
0.139358
0.131049
0.120419
0.10869
0.0988725
0.0916016
0.0858851
0.0810031
0.0770284
0.074474
0.0733225
0.0727874
0.0714018
0.0683526
0.06482
0.0629439
0.062886
0.0644399
0.0652166
0.0629432
0.0576379
0.0512961
0.0459833
0.0432358
0.0426421
0.042697
0.0426004
0.043288
0.0460512
0.0501062
0.0536407
0.0568672
0.0598097
0.0613452
0.0610123
0.0587722
0.0562934
0.0554506
0.0571272
0.0613439
0.0675522
0.0748421
0.0818347
0.0866862
0.0910331
0.0979294
0.108001
0.119678
0.130405
0.140018
0.150169
0.158712
0.172039
0.187431
0.196253
0.202449
0.218488
0.243956
0.257518
0.264253
0.262079
0.252185
0.239045
0.222683
0.203758
0.182326
0.156118
0.131675
0.109698
0.0936056
0.0808619
0.0716979
0.0661828
0.0630789
0.0610736
0.0610102
0.0629333
0.0664724
0.0731257
0.0780325
0.0839164
0.0895155
0.0929492
0.0940682
0.0924956
0.0849849
0.0748226
0.062897
0.0513527
0.038829
0.0274051
0.0183464
0.0126636
0.00972715
0.0084386
0.00804293
0.00826365
0.00884947
0.00980484
0.0105915
0.0117223
0.0114327
0.009411
0.00755895
0.00627713
0.00522891
0.00449859
0.00392127
0.00350562
0.00322881
0.00303656
0.00290268
0.00283437
0.0027995
0.00276567
0.0027356
0.00272255
0.00271752
0.00271698
0.00271454
0.00271032
0.00270784
0.00271289
0.00271829
0.00271994
0.00271463
0.00270941
0.00270745
0.00270619
0.00270428
0.00269996
0.00269139
0.00267824
0.00266539
0.00265493
0.00264619
0.00263801
0.00262712
0.00261141
0.002595
0.00258066
0.00256898
0.00255778
0.00254431
0.0025285
0.00251097
0.00249397
0.00247947
0.00246744
0.00245584
0.00244194
0.00242573
0.00240847
0.0023904
0.00237248