/*--------------------------------*- C++ -*----------------------------------*\
| =========                 |                                                 |
| \\      /  F ield         | OpenFOAM: The Open Source CFD Toolbox           |
|  \\    /   O peration     | Version:  v2006                                 |
|   \\  /    A nd           | Website:  www.openfoam.com                      |
|    \\/     M anipulation  |                                                 |
\*---------------------------------------------------------------------------*/
FoamFile
{
    version     2.0;
    format      ascii;
    class       volScalarField;
    location    "7";
    object      p;
}
// * * * * * * * * * * * * * * * * * * * * * * * * * * * * * * * * * * * * * //

dimensions      [1 -1 -2 0 0 0 0];


internalField   nonuniform List<scalar> 
33000
(
8270.53
8271.62
8272.65
8273.51
8274.33
8275.18
8276.1
8276.5
8276.15
8275.19
8274.08
8273.37
8273.03
8272.87
8272.63
8272.26
8271.74
8271.02
8270.14
8269.24
8268.44
8267.72
8266.97
8266.56
8266.75
8266.74
8266
8264.92
8263.68
8262.35
8260.96
8259.52
8258
8256.43
8254.83
8253.18
8251.48
8249.71
8247.88
8246.05
8244.18
8242.26
8240.23
8238.23
8236.16
8234.05
8231.87
8229.68
8227.42
8225.15
8222.82
8220.44
8218.01
8215.53
8213
8210.44
8207.84
8205.22
8202.56
8199.87
8197.14
8194.4
8191.65
8188.86
8186.06
8183.24
8180.39
8177.54
8174.68
8171.85
8169.09
8166.4
8163.85
8161.41
8159.24
8157.37
8155.94
8154.48
8146.36
8133.96
8137.89
8131.84
8126.92
8123.03
8118.16
8112.02
8108.15
8103.06
8098.58
8093.33
8088.75
8083.54
8078.67
8073.82
8069.35
8064.77
8061.48
8056.8
8056.93
8050.78
8038.42
8031.7
8023.29
8014.94
8006.99
7997.89
7988.05
7978.31
7968.16
7958.31
7947.74
7937.38
7926.65
7915.75
7905.35
7893.98
7886.05
7873.17
7854.68
7841.1
7825.55
7809.56
7793.92
7777.2
7759.52
7741.99
7724.02
7705.85
7687.53
7668.98
7650.23
7631.44
7612.61
7593.78
7575.01
7556.3
7537.73
7519.28
7501.03
7482.98
7465.17
7447.66
7430.48
7413.65
7397.21
7381.16
7365.55
7350.41
7335.76
7321.65
7308.05
7294.98
7282.46
7270.52
7259.14
7248.34
7238.11
7228.43
7219.31
7210.74
7202.68
7195.13
7188.08
7181.49
7175.33
7169.58
7164.21
7159.2
7154.49
7150.08
7145.92
7141.99
7138.3
7134.88
7131.75
7128.92
7126.43
7124.3
7122.54
7121.16
7120.17
7119.57
7119.36
7119.55
7120.13
7121.13
7122.53
7124.33
7126.53
7129.1
7132.06
7135.39
7139.09
7143.14
7147.55
7152.28
7157.33
7162.69
7168.35
7174.3
7180.52
7187.01
7193.74
7200.7
7207.88
7215.27
7222.85
7230.63
7238.56
7246.65
7254.88
7263.25
7271.75
7280.35
7289.04
7297.81
7306.65
7315.56
7324.53
7333.55
7342.61
7351.68
7360.77
7369.85
7378.94
7388.02
7397.09
7406.14
7415.16
7424.14
7433.07
7441.95
7450.79
7459.57
7468.29
7476.95
7485.53
7494.04
7502.48
7510.84
7519.11
7527.31
7535.43
7543.47
7551.41
7559.27
7567.04
7574.72
7582.31
7589.81
7597.23
7604.55
7611.78
7618.91
7625.96
7632.92
7639.79
7646.57
7653.26
7659.86
7666.36
7672.78
7679.11
7685.34
7691.48
7697.53
7703.48
7709.34
7715.11
7720.79
7726.36
7731.84
7737.22
7742.49
7747.67
7752.74
7757.71
7762.58
7767.34
7771.99
7776.54
7780.97
7785.29
7789.5
7793.6
7797.59
7801.45
7805.21
7808.85
7812.37
7815.78
7819.07
7822.24
7825.31
7828.26
7831.09
7833.82
7836.44
7838.95
7841.36
7843.66
7845.87
7847.98
7849.99
7851.92
7853.77
7855.54
7857.23
7858.85
7860.41
7861.9
7863.35
7864.74
7866.1
7867.42
7868.7
7869.96
7871.21
7872.43
7873.65
7874.86
7876.05
7877.23
7878.39
7879.54
7880.66
7881.75
7882.83
7883.87
7884.89
7885.88
7886.84
7887.76
7888.66
7889.52
7890.35
7891.15
7891.91
7892.63
7893.32
7893.97
7894.58
7895.16
7895.7
7896.2
7896.66
7897.08
7897.46
7897.8
7898.09
7898.35
7898.57
7898.74
7898.87
7898.95
7899
7899
7898.95
7898.86
7898.72
7898.54
7898.32
7898.05
7897.73
7897.38
7896.97
7896.53
7896.04
7895.51
7894.93
7894.32
7893.66
7892.96
7892.23
7891.45
7890.64
7889.79
7888.91
7887.99
7887.05
7886.06
7885.05
7884.01
7882.94
7881.84
7880.72
7879.57
7878.41
7877.22
7876.01
7874.78
7873.53
7872.28
7871
7869.72
7868.42
7867.11
7865.79
7864.47
7863.14
7861.8
7860.45
7859.1
7857.74
7856.38
7855.02
7853.65
7852.28
7850.91
7849.53
7848.16
7846.78
7845.4
7844.02
7842.64
7841.25
7839.87
7838.49
7837.11
7835.73
7834.36
7832.97
7831.61
7830.23
7828.86
7827.51
7826.15
7824.77
7823.45
7822.01
7820.69
7819.46
7818.13
7816.82
7815.46
7814.11
7812.75
7811.37
7810
7808.62
7807.25
7805.87
7804.51
7803.14
7801.79
7800.43
7799.11
7797.75
7796.45
7795.16
7793.88
7792.6
7791.34
7790.09
7788.86
7787.65
7786.44
7785.27
7784.12
7783
7781.87
7780.82
7779.72
7778.74
7777.8
7776.86
7775.94
7775.18
7773.98
7773.4
7772.9
7772.34
7771.74
7771.13
7770.51
7769.9
7769.28
7768.68
7768.08
7767.5
7766.93
7766.37
7765.83
7765.31
7764.8
7764.31
7763.84
7763.38
7762.95
7762.53
7762.14
7761.76
7761.41
7761.07
7760.76
7760.47
7760.2
7759.95
7759.72
7759.51
7759.32
7759.15
7759.01
7758.88
7758.77
7758.69
7758.63
7758.58
7758.56
7758.55
7758.57
7758.6
7758.66
7758.73
7758.83
7758.94
7759.07
7759.22
7759.39
7759.58
7759.79
7760.01
7760.25
7760.51
7760.79
7761.09
7761.4
7761.73
7762.07
7762.44
7762.82
7763.21
7763.62
7764.05
7764.49
7764.95
7765.43
7765.92
7766.43
7766.95
7767.49
7768.04
7768.6
7769.19
7769.78
7770.42
7770.83
7771.95
7771.9
7773.38
8074.43
8075.53
8076.54
8077.31
8078
8078.61
8078.83
8078.85
8078.44
8077.73
8076.86
8076.44
8076.57
8076.72
8076.56
8076.22
8075.73
8074.88
8073.72
8072.57
8071.43
8070.42
8069.92
8069.79
8069.86
8070.06
8069.68
8068.76
8067.58
8066.25
8064.86
8063.44
8061.96
8060.41
8058.8
8057.15
8055.45
8053.68
8051.85
8050.04
8048.15
8046.16
8044.16
8042.18
8040.1
8038.02
8035.85
8033.61
8031.33
8029.08
8026.75
8024.36
8021.92
8019.44
8016.93
8014.37
8011.78
8009.17
8006.52
8003.8
8001.05
7998.3
7995.53
7992.69
7989.88
7987.04
7984.18
7981.32
7978.43
7975.55
7972.69
7969.83
7967.03
7964.2
7961.34
7958.45
7955.59
7952.58
7949.47
7947.82
7946.44
7937.5
7922.85
7928
7921.32
7917.47
7912.57
7908.33
7903.03
7896.24
7892.7
7886.9
7882.19
7876.99
7872.18
7866.93
7862.32
7857.65
7852.68
7848.14
7842.19
7841.39
7833.17
7818.42
7809.75
7799.63
7791.29
7781.94
7773.46
7763.61
7752.43
7741.55
7730.31
7719.1
7707.96
7696.46
7684.76
7672.63
7658.93
7649.55
7634.48
7613.4
7597.4
7580.28
7563.27
7546.67
7528.93
7510.22
7491.69
7472.9
7454.19
7435.49
7416.65
7397.73
7378.87
7360.06
7341.46
7322.97
7304.71
7286.63
7268.8
7251.26
7234.03
7217.16
7200.67
7184.58
7168.94
7153.77
7139.1
7124.95
7111.32
7098.23
7085.7
7073.74
7062.36
7051.54
7041.28
7031.6
7022.47
7013.89
7005.84
6998.3
6991.24
6984.65
6978.49
6972.75
6967.38
6962.36
6957.65
6953.23
6949.07
6945.14
6941.45
6938.03
6934.89
6932.07
6929.58
6927.44
6925.68
6924.29
6923.3
6922.7
6922.49
6922.69
6923.29
6924.29
6925.7
6927.51
6929.72
6932.32
6935.29
6938.64
6942.35
6946.42
6950.83
6955.59
6960.66
6966.04
6971.72
6977.69
6983.93
6990.43
6997.18
7004.16
7011.36
7018.77
7026.38
7034.16
7042.11
7050.22
7058.47
7066.86
7075.37
7083.99
7092.69
7101.48
7110.34
7119.27
7128.25
7137.28
7146.35
7155.43
7164.53
7173.63
7182.74
7191.83
7200.91
7209.96
7218.99
7227.97
7236.92
7245.81
7254.66
7263.45
7272.17
7280.83
7289.42
7297.94
7306.38
7314.74
7323.03
7331.23
7339.35
7347.39
7355.34
7363.19
7370.96
7378.65
7386.24
7393.74
7401.16
7408.48
7415.71
7422.85
7429.9
7436.86
7443.73
7450.5
7457.19
7463.78
7470.29
7476.71
7483.04
7489.27
7495.41
7501.46
7507.41
7513.27
7519.04
7524.72
7530.29
7535.77
7541.15
7546.42
7551.6
7556.67
7561.64
7566.51
7571.27
7575.92
7580.47
7584.9
7589.22
7593.43
7597.53
7601.51
7605.38
7609.13
7612.76
7616.29
7619.69
7622.98
7626.15
7629.21
7632.16
7634.99
7637.71
7640.33
7642.83
7645.23
7647.54
7649.74
7651.84
7653.86
7655.78
7657.62
7659.39
7661.07
7662.69
7664.24
7665.74
7667.18
7668.57
7669.92
7671.24
7672.52
7673.78
7675.02
7676.25
7677.46
7678.67
7679.87
7681.05
7682.21
7683.35
7684.47
7685.57
7686.64
7687.69
7688.71
7689.7
7690.66
7691.58
7692.48
7693.34
7694.18
7694.97
7695.73
7696.46
7697.15
7697.8
7698.42
7699
7699.54
7700.04
7700.5
7700.92
7701.31
7701.65
7701.95
7702.21
7702.43
7702.6
7702.73
7702.82
7702.87
7702.87
7702.83
7702.74
7702.61
7702.43
7702.21
7701.94
7701.63
7701.27
7700.87
7700.42
7699.93
7699.4
7698.83
7698.21
7697.56
7696.86
7696.12
7695.35
7694.54
7693.69
7692.8
7691.89
7690.93
7689.95
7688.94
7687.89
7686.82
7685.72
7684.6
7683.45
7682.28
7681.09
7679.88
7678.65
7677.4
7676.14
7674.87
7673.58
7672.28
7670.97
7669.65
7668.33
7666.99
7665.65
7664.3
7662.95
7661.59
7660.23
7658.86
7657.49
7656.12
7654.75
7653.38
7652
7650.62
7649.23
7647.85
7646.47
7645.09
7643.71
7642.33
7640.94
7639.56
7638.17
7636.8
7635.44
7634.08
7632.69
7631.33
7629.86
7628.51
7627.32
7625.96
7624.68
7623.34
7622.01
7620.66
7619.31
7617.94
7616.57
7615.19
7613.81
7612.43
7611.05
7609.68
7608.3
7606.94
7605.54
7604.2
7602.88
7601.56
7600.24
7598.95
7597.64
7596.37
7595.09
7593.85
7592.62
7591.4
7590.23
7589
7587.89
7586.66
7585.62
7584.54
7583.58
7582.46
7581.59
7580.13
7579.42
7578.86
7578.22
7577.54
7576.88
7576.23
7575.59
7574.95
7574.32
7573.69
7573.07
7572.45
7571.85
7571.27
7570.69
7570.13
7569.59
7569.06
7568.55
7568.06
7567.59
7567.14
7566.7
7566.28
7565.89
7565.51
7565.16
7564.82
7564.51
7564.22
7563.95
7563.7
7563.47
7563.26
7563.07
7562.9
7562.75
7562.63
7562.52
7562.44
7562.37
7562.33
7562.31
7562.3
7562.32
7562.35
7562.41
7562.49
7562.58
7562.69
7562.83
7562.98
7563.15
7563.33
7563.54
7563.77
7564.01
7564.27
7564.55
7564.84
7565.16
7565.49
7565.83
7566.2
7566.58
7566.97
7567.38
7567.81
7568.26
7568.72
7569.19
7569.68
7570.19
7570.71
7571.25
7571.8
7572.37
7572.95
7573.55
7574.18
7574.6
7575.71
7575.67
7577.15
7878.49
7879.53
7880.51
7881.3
7881.74
7881.92
7881.2
7880.05
7878.63
7877.6
7877.73
7878.76
7879.75
7880.34
7880.54
7880.47
7879.99
7879.16
7878.05
7876.86
7875.71
7874.73
7874.05
7873.69
7873.53
7873.42
7872.98
7872.19
7871.16
7869.94
7868.64
7867.3
7865.89
7864.38
7862.79
7861.15
7859.47
7857.72
7855.89
7854.05
7852.19
7850.24
7848.26
7846.26
7844.15
7842.04
7839.9
7837.65
7835.4
7833.12
7830.78
7828.39
7825.96
7823.48
7820.96
7818.39
7815.84
7813.23
7810.54
7807.83
7805.07
7802.29
7799.47
7796.62
7793.78
7790.92
7788.03
7785.12
7782.2
7779.24
7776.27
7773.31
7770.35
7767.38
7764.41
7761.38
7758.2
7754.77
7750.99
7746.99
7743.23
7739.68
7738.29
7737.31
7728.14
7711.26
7715.03
7710.81
7706.44
7701.22
7696.79
7691.47
7684.53
7680.66
7674.93
7669.96
7664.83
7659.49
7654.13
7648.41
7641.7
7635.42
7629.26
7623.05
7621.44
7612.35
7595.85
7585.99
7574.89
7565.77
7555.42
7546.27
7535.43
7523.61
7511.78
7499.54
7487.49
7474.65
7460.9
7446.75
7432.77
7417.71
7407.23
7390.71
7367.79
7350.46
7332.08
7314.06
7296.6
7278.1
7258.71
7239.69
7220.53
7201.62
7182.76
7164.04
7145.39
7126.77
7108.38
7090.2
7072.29
7054.65
7037.33
7020.36
7003.78
6987.61
6971.89
6956.66
6941.93
6927.71
6914.02
6900.88
6888.31
6876.33
6864.91
6854.07
6843.79
6834.09
6824.95
6816.35
6808.3
6800.75
6793.68
6787.08
6780.92
6775.16
6769.77
6764.74
6760.03
6755.6
6751.43
6747.5
6743.82
6740.41
6737.28
6734.47
6731.98
6729.85
6728.09
6726.71
6725.72
6725.13
6724.93
6725.15
6725.76
6726.79
6728.22
6730.05
6732.29
6734.92
6737.93
6741.31
6745.06
6749.16
6753.61
6758.39
6763.5
6768.93
6774.65
6780.65
6786.93
6793.47
6800.25
6807.27
6814.52
6821.97
6829.61
6837.42
6845.41
6853.56
6861.85
6870.27
6878.81
6887.45
6896.19
6905.01
6913.91
6922.87
6931.88
6940.93
6950.02
6959.13
6968.25
6977.38
6986.51
6995.62
7004.72
7013.79
7022.84
7031.84
7040.81
7049.72
7058.58
7067.38
7076.12
7084.79
7093.39
7101.92
7110.37
7118.75
7127.05
7135.26
7143.39
7151.42
7159.37
7167.23
7175.01
7182.7
7190.3
7197.8
7205.21
7212.53
7219.76
7226.9
7233.96
7240.92
7247.78
7254.56
7261.24
7267.84
7274.35
7280.77
7287.09
7293.33
7299.47
7305.52
7311.47
7317.33
7323.1
7328.77
7334.35
7339.82
7345.2
7350.48
7355.66
7360.74
7365.71
7370.57
7375.33
7379.98
7384.53
7388.96
7393.28
7397.49
7401.58
7405.56
7409.42
7413.17
7416.8
7420.32
7423.72
7427
7430.17
7433.22
7436.16
7438.98
7441.7
7444.31
7446.81
7449.2
7451.49
7453.68
7455.78
7457.78
7459.7
7461.53
7463.29
7464.97
7466.58
7468.12
7469.61
7471.05
7472.43
7473.78
7475.09
7476.37
7477.63
7478.87
7480.1
7481.31
7482.51
7483.7
7484.88
7486.04
7487.19
7488.31
7489.41
7490.48
7491.53
7492.55
7493.54
7494.5
7495.43
7496.32
7497.19
7498.02
7498.82
7499.59
7500.31
7501.01
7501.66
7502.29
7502.87
7503.41
7503.92
7504.39
7504.82
7505.2
7505.55
7505.86
7506.13
7506.35
7506.53
7506.67
7506.76
7506.81
7506.82
7506.78
7506.7
7506.57
7506.4
7506.18
7505.92
7505.61
7505.25
7504.85
7504.41
7503.93
7503.4
7502.82
7502.21
7501.55
7500.86
7500.12
7499.34
7498.53
7497.67
7496.79
7495.87
7494.91
7493.92
7492.91
7491.86
7490.78
7489.68
7488.55
7487.4
7486.23
7485.04
7483.82
7482.59
7481.34
7480.08
7478.8
7477.51
7476.21
7474.89
7473.57
7472.24
7470.9
7469.55
7468.2
7466.84
7465.48
7464.12
7462.75
7461.38
7460
7458.63
7457.25
7455.87
7454.48
7453.1
7451.72
7450.34
7448.94
7447.57
7446.16
7444.79
7443.43
7442.06
7440.65
7439.29
7437.79
7436.44
7435.26
7433.91
7432.62
7431.28
7429.94
7428.59
7427.25
7425.89
7424.54
7423.16
7421.79
7420.42
7419.03
7417.66
7416.25
7414.88
7413.43
7412.08
7410.72
7409.39
7408.01
7406.7
7405.33
7404.04
7402.69
7401.42
7400.12
7398.86
7397.61
7396.33
7395.13
7393.83
7392.71
7391.55
7390.5
7389.27
7388.31
7386.68
7385.88
7385.26
7384.52
7383.75
7382.97
7382.2
7381.47
7380.78
7380.1
7379.42
7378.76
7378.1
7377.46
7376.82
7376.2
7375.59
7375
7374.42
7373.86
7373.31
7372.78
7372.27
7371.77
7371.3
7370.84
7370.4
7369.99
7369.59
7369.21
7368.86
7368.52
7368.21
7367.92
7367.64
7367.39
7367.16
7366.95
7366.76
7366.6
7366.45
7366.33
7366.22
7366.14
7366.07
7366.03
7366.01
7366
7366.02
7366.06
7366.11
7366.19
7366.28
7366.4
7366.53
7366.68
7366.85
7367.04
7367.25
7367.48
7367.72
7367.98
7368.26
7368.56
7368.87
7369.2
7369.55
7369.91
7370.29
7370.69
7371.1
7371.53
7371.98
7372.44
7372.91
7373.41
7373.91
7374.44
7374.97
7375.53
7376.09
7376.68
7377.27
7377.91
7378.33
7379.44
7379.39
7380.87
7682.77
7683.81
7684.77
7685.52
7686.1
7685.63
7684.2
7682.32
7679.47
7677.54
7678.31
7680.83
7682.81
7683.92
7684.56
7684.7
7684.31
7683.6
7682.69
7681.66
7680.72
7679.9
7679.26
7678.74
7678.26
7677.77
7677.2
7676.36
7675.26
7674.02
7672.74
7671.44
7670.04
7668.5
7666.94
7665.32
7663.64
7661.91
7660.11
7658.23
7656.38
7654.44
7652.48
7650.45
7648.35
7646.2
7644.06
7641.83
7639.58
7637.27
7634.94
7632.55
7630.11
7627.63
7625.1
7622.57
7619.99
7617.36
7614.66
7611.95
7609.18
7606.35
7603.5
7600.65
7597.75
7594.86
7591.93
7588.95
7585.97
7582.93
7579.87
7576.8
7573.67
7570.51
7567.28
7563.93
7560.5
7556.99
7553.36
7549.63
7545.88
7541.9
7537.54
7532.91
7528.37
7525.93
7525.02
7522.53
7513.04
7494.98
7501.31
7493.51
7489.36
7483.81
7478.64
7470.8
7466.74
7460.3
7454.78
7448.78
7442.39
7435.83
7429.24
7420.39
7413.68
7404.77
7399.05
7390.97
7389.94
7379.43
7361.18
7349.82
7337.67
7326.54
7316.02
7303.9
7290.71
7277.39
7263.45
7249.76
7235.21
7219.73
7203.95
7188.54
7172.11
7160.77
7143.02
7118.76
7100.43
7081.22
7062.58
7044.61
7025.57
7005.92
6986.66
6967.52
6948.81
6930.15
6911.82
6893.56
6875.5
6857.72
6840.29
6823.19
6806.48
6790.2
6774.38
6759.05
6744.23
6729.91
6716.13
6702.93
6690.3
6678.25
6666.78
6655.89
6645.59
6635.84
6626.67
6618.05
6609.97
6602.39
6595.3
6588.67
6582.48
6576.7
6571.29
6566.23
6561.5
6557.05
6552.88
6548.96
6545.3
6541.92
6538.82
6536.03
6533.57
6531.46
6529.72
6528.36
6527.39
6526.81
6526.64
6526.88
6527.53
6528.6
6530.07
6531.95
6534.22
6536.89
6539.95
6543.39
6547.19
6551.35
6555.85
6560.69
6565.85
6571.34
6577.12
6583.18
6589.51
6596.11
6602.96
6610.04
6617.34
6624.84
6632.54
6640.41
6648.45
6656.65
6665
6673.47
6682.06
6690.75
6699.53
6708.4
6717.34
6726.35
6735.41
6744.5
6753.62
6762.76
6771.93
6781.1
6790.26
6799.41
6808.54
6817.64
6826.71
6835.74
6844.73
6853.67
6862.56
6871.38
6880.14
6888.83
6897.45
6906
6914.47
6922.86
6931.17
6939.39
6947.52
6955.57
6963.53
6971.4
6979.18
6986.88
6994.48
7001.98
7009.39
7016.71
7023.94
7031.09
7038.14
7045.1
7051.97
7058.74
7065.43
7072.03
7078.53
7084.95
7091.27
7097.5
7103.65
7109.7
7115.65
7121.52
7127.28
7132.96
7138.53
7144.01
7149.39
7154.67
7159.86
7164.93
7169.9
7174.77
7179.52
7184.17
7188.72
7193.15
7197.47
7201.67
7205.76
7209.73
7213.59
7217.33
7220.96
7224.47
7227.86
7231.14
7234.29
7237.34
7240.27
7243.08
7245.79
7248.38
7250.87
7253.25
7255.53
7257.71
7259.79
7261.79
7263.69
7265.51
7267.26
7268.93
7270.53
7272.06
7273.54
7274.97
7276.35
7277.7
7279
7280.28
7281.53
7282.77
7283.99
7285.2
7286.39
7287.58
7288.75
7289.91
7291.05
7292.17
7293.27
7294.34
7295.38
7296.4
7297.4
7298.36
7299.29
7300.19
7301.06
7301.89
7302.7
7303.47
7304.2
7304.9
7305.56
7306.19
7306.78
7307.33
7307.84
7308.32
7308.76
7309.16
7309.51
7309.83
7310.1
7310.34
7310.53
7310.67
7310.78
7310.83
7310.85
7310.82
7310.74
7310.62
7310.46
7310.24
7309.99
7309.68
7309.33
7308.94
7308.5
7308.02
7307.49
7306.92
7306.3
7305.64
7304.95
7304.21
7303.43
7302.61
7301.75
7300.86
7299.93
7298.97
7297.98
7296.96
7295.91
7294.83
7293.72
7292.59
7291.43
7290.26
7289.06
7287.84
7286.6
7285.35
7284.08
7282.79
7281.5
7280.19
7278.87
7277.54
7276.2
7274.86
7273.51
7272.14
7270.79
7269.41
7268.05
7266.67
7265.3
7263.92
7262.54
7261.17
7259.78
7258.41
7257
7255.63
7254.22
7252.85
7251.48
7250.11
7248.68
7247.31
7245.79
7244.43
7243.28
7241.92
7240.65
7239.29
7237.96
7236.59
7235.27
7233.89
7232.55
7231.17
7229.81
7228.44
7227.07
7225.68
7224.28
7222.89
7221.42
7220.04
7218.69
7217.32
7215.93
7214.58
7213.16
7211.83
7210.42
7209.12
7207.73
7206.46
7205.06
7203.82
7202.42
7201.23
7200.03
7198.82
7197.69
7196.37
7195.31
7193.53
7192.65
7191.96
7191.14
7190.29
7189.41
7188.53
7187.7
7186.91
7186.14
7185.38
7184.65
7183.93
7183.23
7182.54
7181.87
7181.2
7180.56
7179.92
7179.3
7178.7
7178.11
7177.54
7176.99
7176.45
7175.93
7175.44
7174.96
7174.5
7174.06
7173.64
7173.24
7172.86
7172.51
7172.17
7171.85
7171.56
7171.29
7171.04
7170.81
7170.6
7170.41
7170.24
7170.1
7169.97
7169.87
7169.78
7169.72
7169.68
7169.66
7169.65
7169.67
7169.71
7169.77
7169.84
7169.94
7170.06
7170.19
7170.35
7170.52
7170.71
7170.92
7171.15
7171.39
7171.65
7171.93
7172.23
7172.55
7172.88
7173.23
7173.59
7173.97
7174.37
7174.79
7175.22
7175.66
7176.12
7176.6
7177.09
7177.6
7178.12
7178.66
7179.21
7179.78
7180.37
7180.96
7181.6
7182.02
7183.13
7183.08
7184.57
7487.26
7488.23
7489.06
7489.66
7490.6
7490.45
7489.14
7487.52
7485.98
7485.32
7485.94
7486.73
7487.72
7488.47
7488.97
7488.99
7488.65
7488.11
7487.42
7486.63
7485.81
7485.03
7484.32
7483.64
7482.98
7482.28
7481.5
7480.56
7479.46
7478.24
7476.97
7475.65
7474.26
7472.77
7471.22
7469.58
7467.9
7466.17
7464.38
7462.53
7460.65
7458.71
7456.75
7454.72
7452.62
7450.45
7448.32
7446.09
7443.82
7441.53
7439.19
7436.79
7434.34
7431.86
7429.33
7426.79
7424.19
7421.52
7418.83
7416.09
7413.32
7410.48
7407.62
7404.75
7401.8
7398.85
7395.88
7392.84
7389.77
7386.68
7383.55
7380.33
7377.09
7373.83
7370.53
7367.11
7363.59
7360.01
7356.27
7352.44
7348.56
7344.58
7340.44
7336.31
7332.1
7327.89
7323.52
7318.92
7314.92
7313.2
7312.18
7301.28
7280.82
7288.18
7280.26
7275.32
7269.53
7263.67
7255.16
7250.39
7242.96
7236.51
7229.55
7222.25
7214.85
7207.33
7197.59
7189.88
7180.92
7173.46
7165.03
7163.02
7151.47
7131.52
7119
7105.6
7093.31
7081.34
7067.59
7052.6
7037.53
7022.09
7006.93
6991.03
6974.1
6957.08
6940.41
6922.9
6910.69
6892.09
6866.77
6847.86
6828.01
6809.38
6790.51
6772.31
6753.5
6734.1
6715.28
6696.78
6678.56
6660.66
6643.03
6625.69
6608.78
6592.35
6576.37
6560.9
6545.92
6531.48
6517.59
6504.29
6491.56
6479.42
6467.86
6456.91
6446.54
6436.74
6427.51
6418.83
6410.7
6403.07
6395.94
6389.27
6383.03
6377.21
6371.77
6366.68
6361.92
6357.47
6353.29
6349.4
6345.78
6342.44
6339.38
6336.64
6334.23
6332.17
6330.48
6329.16
6328.22
6327.69
6327.56
6327.85
6328.56
6329.68
6331.21
6333.15
6335.48
6338.22
6341.34
6344.85
6348.73
6352.97
6357.55
6362.46
6367.7
6373.26
6379.12
6385.27
6391.69
6398.36
6405.29
6412.45
6419.82
6427.4
6435.17
6443.12
6451.24
6459.52
6467.93
6476.47
6485.12
6493.88
6502.73
6511.66
6520.66
6529.73
6538.84
6547.98
6557.16
6566.35
6575.56
6584.78
6593.99
6603.19
6612.36
6621.5
6630.61
6639.68
6648.7
6657.68
6666.6
6675.45
6684.24
6692.96
6701.6
6710.17
6718.66
6727.07
6735.4
6743.63
6751.78
6759.84
6767.81
6775.69
6783.48
6791.18
6798.78
6806.29
6813.7
6821.02
6828.26
6835.4
6842.45
6849.41
6856.28
6863.05
6869.74
6876.34
6882.84
6889.26
6895.58
6901.81
6907.95
6914
6919.96
6925.83
6931.6
6937.27
6942.85
6948.33
6953.71
6959
6964.18
6969.25
6974.23
6979.09
6983.85
6988.5
6993.04
6997.47
7001.79
7005.99
7010.07
7014.04
7017.89
7021.63
7025.25
7028.75
7032.13
7035.39
7038.54
7041.57
7044.49
7047.29
7049.98
7052.56
7055.04
7057.4
7059.67
7061.83
7063.9
7065.88
7067.77
7069.58
7071.31
7072.97
7074.56
7076.09
7077.56
7078.98
7080.35
7081.69
7082.99
7084.26
7085.51
7086.73
7087.95
7089.14
7090.33
7091.51
7092.67
7093.82
7094.95
7096.06
7097.16
7098.23
7099.27
7100.29
7101.28
7102.24
7103.18
7104.08
7104.95
7105.79
7106.6
7107.38
7108.12
7108.82
7109.49
7110.13
7110.73
7111.29
7111.82
7112.31
7112.75
7113.16
7113.53
7113.86
7114.15
7114.39
7114.59
7114.75
7114.86
7114.93
7114.96
7114.94
7114.87
7114.76
7114.6
7114.4
7114.15
7113.85
7113.51
7113.12
7112.68
7112.2
7111.67
7111.1
7110.49
7109.83
7109.13
7108.39
7107.61
7106.78
7105.92
7105.03
7104.09
7103.13
7102.13
7101.1
7100.04
7098.95
7097.84
7096.7
7095.54
7094.36
7093.15
7091.93
7090.68
7089.42
7088.14
7086.85
7085.54
7084.23
7082.9
7081.56
7080.21
7078.87
7077.5
7076.14
7074.77
7073.4
7072.02
7070.65
7069.28
7067.89
7066.51
7065.11
7063.73
7062.32
7060.95
7059.58
7058.21
7056.77
7055.4
7053.84
7052.49
7051.36
7050.01
7048.74
7047.39
7046.05
7044.69
7043.37
7041.99
7040.65
7039.26
7037.9
7036.52
7035.15
7033.75
7032.36
7030.9
7029.49
7028.18
7026.76
7025.41
7023.97
7022.62
7021.16
7019.81
7018.34
7017.02
7015.56
7014.27
7012.8
7011.53
7010.05
7008.81
7007.54
7006.28
7005.07
7003.69
7002.54
7000.61
6999.67
6998.93
6998.04
6997.11
6996.14
6995.16
6994.22
6993.35
6992.49
6991.65
6990.83
6990.02
6989.24
6988.48
6987.73
6987
6986.29
6985.6
6984.92
6984.25
6983.6
6982.97
6982.36
6981.76
6981.18
6980.62
6980.08
6979.56
6979.05
6978.57
6978.11
6977.66
6977.24
6976.84
6976.46
6976.1
6975.76
6975.45
6975.15
6974.88
6974.63
6974.4
6974.19
6974
6973.84
6973.69
6973.57
6973.46
6973.38
6973.32
6973.28
6973.26
6973.26
6973.28
6973.32
6973.37
6973.45
6973.55
6973.67
6973.81
6973.96
6974.14
6974.33
6974.54
6974.77
6975.02
6975.28
6975.56
6975.86
6976.18
6976.51
6976.86
6977.23
6977.61
6978.01
6978.43
6978.86
6979.31
6979.77
6980.25
6980.74
6981.25
6981.77
6982.31
6982.87
6983.44
6984.02
6984.62
6985.25
6985.67
6986.79
6986.74
6988.22
7292.01
7292.93
7293.71
7294.35
7295.02
7294.96
7294.5
7294.14
7293.75
7293.37
7293.35
7293.55
7293.73
7293.83
7293.86
7293.71
7293.32
7292.83
7292.21
7291.51
7290.78
7290.03
7289.28
7288.52
7287.74
7286.91
7286.01
7285.01
7283.88
7282.68
7281.4
7280.07
7278.67
7277.2
7275.63
7273.98
7272.3
7270.56
7268.76
7266.92
7265.03
7263.09
7261.11
7259.07
7256.99
7254.83
7252.66
7250.45
7248.18
7245.85
7243.5
7241.11
7238.66
7236.17
7233.64
7231.08
7228.47
7225.8
7223.1
7220.36
7217.57
7214.72
7211.83
7208.92
7205.97
7202.94
7199.9
7196.82
7193.68
7190.51
7187.3
7184.02
7180.66
7177.28
7173.81
7170.28
7166.64
7162.96
7159.19
7155.3
7151.32
7147.26
7143.11
7138.89
7134.6
7130.2
7125.76
7121.35
7116.71
7111.72
7106.76
7101.94
7100
7098.91
7087.22
7065.17
7072.76
7064.22
7058.66
7052.18
7045.41
7035.84
7030.3
7021.67
7014.45
7006.17
6998.43
6989.82
6981.76
6972.86
6963.04
6953.44
6944.37
6935.17
6932.26
6919.42
6897.38
6883.36
6868.57
6854.87
6841.4
6826.12
6809.61
6793.08
6776.32
6759.91
6742.9
6724.77
6706.8
6689.1
6670.73
6657.98
6638.6
6613.16
6593.72
6573.76
6555.68
6536.75
6518.9
6500.19
6481.31
6463.05
6445.2
6427.73
6410.67
6394.02
6377.81
6362.13
6346.99
6332.38
6318.36
6304.89
6292.04
6279.75
6268.1
6257.02
6246.56
6236.67
6227.35
6218.59
6210.37
6202.67
6195.46
6188.73
6182.43
6176.56
6171.07
6165.95
6161.17
6156.71
6152.56
6148.7
6145.13
6141.85
6138.87
6136.2
6133.87
6131.89
6130.26
6129.01
6128.15
6127.68
6127.63
6127.99
6128.78
6129.99
6131.6
6133.62
6136.04
6138.86
6142.07
6145.67
6149.65
6153.99
6158.68
6163.69
6169.03
6174.69
6180.66
6186.91
6193.44
6200.22
6207.24
6214.49
6221.97
6229.64
6237.51
6245.56
6253.77
6262.14
6270.64
6279.26
6287.99
6296.84
6305.77
6314.78
6323.86
6332.99
6342.17
6351.39
6360.63
6369.9
6379.17
6388.44
6397.7
6406.95
6416.18
6425.38
6434.54
6443.66
6452.73
6461.74
6470.7
6479.59
6488.41
6497.17
6505.84
6514.44
6522.95
6531.39
6539.73
6547.99
6556.15
6564.23
6572.21
6580.1
6587.89
6595.6
6603.21
6610.72
6618.14
6625.47
6632.7
6639.84
6646.89
6653.85
6660.72
6667.5
6674.18
6680.77
6687.28
6693.69
6700.01
6706.24
6712.38
6718.44
6724.4
6730.27
6736.04
6741.71
6747.29
6752.77
6758.16
6763.44
6768.63
6773.71
6778.68
6783.55
6788.31
6792.96
6797.5
6801.92
6806.24
6810.43
6814.51
6818.48
6822.32
6826.05
6829.66
6833.15
6836.52
6839.78
6842.91
6845.93
6848.83
6851.62
6854.29
6856.86
6859.32
6861.67
6863.92
6866.06
6868.12
6870.08
6871.96
6873.75
6875.46
6877.11
6878.69
6880.2
6881.67
6883.08
6884.44
6885.77
6887.06
6888.32
6889.56
6890.78
6891.98
6893.16
6894.34
6895.5
6896.65
6897.78
6898.9
6900.01
6901.09
6902.16
6903.2
6904.21
6905.2
6906.17
6907.1
6908.01
6908.88
6909.73
6910.54
6911.32
6912.07
6912.79
6913.47
6914.11
6914.73
6915.3
6915.84
6916.34
6916.8
6917.23
6917.61
6917.95
6918.26
6918.51
6918.73
6918.9
6919.03
6919.11
6919.15
6919.14
6919.09
6918.99
6918.84
6918.65
6918.41
6918.12
6917.78
6917.4
6916.97
6916.49
6915.96
6915.39
6914.78
6914.12
6913.41
6912.67
6911.88
6911.06
6910.19
6909.29
6908.35
6907.37
6906.37
6905.33
6904.26
6903.16
6902.04
6900.89
6899.72
6898.53
6897.31
6896.08
6894.82
6893.55
6892.26
6890.96
6889.65
6888.31
6886.98
6885.63
6884.28
6882.91
6881.55
6880.16
6878.8
6877.41
6876.05
6874.63
6873.26
6871.85
6870.48
6869.15
6867.76
6866.42
6864.93
6863.57
6861.98
6860.63
6859.52
6858.17
6856.93
6855.56
6854.24
6852.87
6851.56
6850.17
6848.84
6847.44
6846.09
6844.7
6843.34
6841.92
6840.54
6839.04
6837.64
6836.35
6834.94
6833.59
6832.15
6830.77
6829.3
6827.91
6826.43
6825.06
6823.58
6822.23
6820.71
6819.4
6817.82
6816.56
6815.13
6813.91
6812.38
6811.21
6809.1
6808.13
6807.31
6806.35
6805.32
6804.27
6803.18
6802.1
6801.05
6800.1
6799.15
6798.22
6797.31
6796.42
6795.54
6794.69
6793.86
6793.05
6792.26
6791.49
6790.74
6790
6789.29
6788.59
6787.91
6787.24
6786.6
6785.97
6785.36
6784.78
6784.21
6783.66
6783.13
6782.62
6782.13
6781.66
6781.22
6780.79
6780.39
6780.01
6779.64
6779.31
6778.99
6778.69
6778.42
6778.17
6777.94
6777.73
6777.54
6777.38
6777.23
6777.11
6777.01
6776.93
6776.87
6776.83
6776.81
6776.81
6776.83
6776.87
6776.93
6777.01
6777.11
6777.23
6777.37
6777.53
6777.71
6777.9
6778.12
6778.35
6778.6
6778.86
6779.15
6779.45
6779.77
6780.1
6780.46
6780.83
6781.21
6781.61
6782.03
6782.46
6782.91
6783.38
6783.86
6784.35
6784.86
6785.39
6785.93
6786.48
6787.05
6787.64
6788.24
6788.87
6789.29
6790.41
6790.36
6791.84
7097.11
7097.96
7098.68
7099.27
7099.69
7099.91
7099.79
7099.87
7099.85
7099.61
7099.42
7099.33
7099.21
7099.11
7098.95
7098.69
7098.31
7097.81
7097.22
7096.55
7095.83
7095.07
7094.28
7093.45
7092.59
7091.68
7090.7
7089.64
7088.48
7087.27
7085.97
7084.63
7083.22
7081.74
7080.14
7078.48
7076.8
7075.08
7073.27
7071.42
7069.52
7067.57
7065.57
7063.55
7061.45
7059.3
7057.12
7054.89
7052.64
7050.28
7047.89
7045.48
7043.06
7040.57
7038.04
7035.46
7032.85
7030.18
7027.46
7024.71
7021.89
7019.04
7016.14
7013.17
7010.16
7007.11
7004.01
7000.88
6997.69
6994.45
6991.16
6987.82
6984.39
6980.89
6977.34
6973.75
6970.03
6966.22
6962.36
6958.37
6954.29
6950.12
6945.87
6941.54
6937.16
6932.67
6928.08
6923.37
6918.52
6913.51
6908.54
6903.43
6898.13
6892.61
6887.07
6884.74
6883.44
6871.16
6847.77
6855.12
6845.78
6839.42
6832.13
6824.5
6814.01
6807.56
6798.09
6789.99
6780.98
6772.35
6762.9
6753.65
6743.9
6732.66
6721.91
6711.41
6701.2
6697.33
6682.83
6658.51
6642.88
6626.69
6611.62
6596.68
6580.04
6562.16
6544.36
6526.44
6509.03
6491.08
6471.88
6453.51
6433.77
6416.11
6398.15
6384.11
6365.16
6340.19
6321.04
6302.19
6283.63
6265.79
6247.61
6229.36
6211.93
6195.06
6178.64
6162.75
6147.34
6132.5
6118.25
6104.62
6091.56
6079.12
6067.28
6056.06
6045.45
6035.44
6026
6017.12
6008.79
6000.99
5993.69
5986.87
5980.51
5974.57
5969.04
5963.89
5959.1
5954.65
5950.53
5946.73
5943.23
5940.03
5937.15
5934.59
5932.37
5930.49
5928.98
5927.84
5927.08
5926.72
5926.78
5927.25
5928.14
5929.45
5931.18
5933.31
5935.85
5938.79
5942.12
5945.84
5949.94
5954.4
5959.22
5964.37
5969.84
5975.63
5981.71
5988.09
5994.75
6001.65
6008.8
6016.17
6023.76
6031.56
6039.55
6047.72
6056.04
6064.51
6073.12
6081.84
6090.68
6099.62
6108.66
6117.76
6126.93
6136.15
6145.42
6154.72
6164.04
6173.39
6182.73
6192.07
6201.4
6210.72
6220.01
6229.28
6238.5
6247.68
6256.8
6265.86
6274.86
6283.8
6292.67
6301.46
6310.17
6318.81
6327.35
6335.81
6344.18
6352.46
6360.64
6368.74
6376.73
6384.63
6392.44
6400.15
6407.76
6415.28
6422.71
6430.04
6437.27
6444.42
6451.46
6458.42
6465.29
6472.07
6478.75
6485.34
6491.84
6498.25
6504.57
6510.8
6516.95
6523
6528.96
6534.83
6540.6
6546.28
6551.86
6557.35
6562.74
6568.03
6573.21
6578.29
6583.27
6588.14
6592.9
6597.55
6602.09
6606.51
6610.82
6615.02
6619.1
6623.05
6626.89
6630.61
6634.21
6637.69
6641.06
6644.3
6647.42
6650.42
6653.31
6656.08
6658.74
6661.29
6663.73
6666.06
6668.29
6670.42
6672.46
6674.4
6676.27
6678.04
6679.75
6681.38
6682.94
6684.45
6685.89
6687.29
6688.65
6689.96
6691.24
6692.49
6693.71
6694.91
6696.1
6697.27
6698.42
6699.56
6700.7
6701.81
6702.92
6704.01
6705.08
6706.14
6707.17
6708.18
6709.17
6710.13
6711.06
6711.97
6712.85
6713.7
6714.52
6715.31
6716.07
6716.79
6717.49
6718.15
6718.77
6719.36
6719.91
6720.43
6720.91
6721.35
6721.75
6722.11
6722.43
6722.7
6722.94
6723.12
6723.27
6723.37
6723.42
6723.43
6723.39
6723.31
6723.17
6722.99
6722.76
6722.48
6722.15
6721.77
6721.35
6720.88
6720.36
6719.79
6719.17
6718.51
6717.8
6717.05
6716.26
6715.42
6714.55
6713.64
6712.7
6711.71
6710.7
6709.65
6708.57
6707.46
6706.33
6705.17
6703.98
6702.78
6701.55
6700.3
6699.03
6697.75
6696.45
6695.14