/*--------------------------------*- C++ -*----------------------------------*\
| =========                 |                                                 |
| \\      /  F ield         | OpenFOAM: The Open Source CFD Toolbox           |
|  \\    /   O peration     | Version:  v2006                                 |
|   \\  /    A nd           | Website:  www.openfoam.com                      |
|    \\/     M anipulation  |                                                 |
\*---------------------------------------------------------------------------*/
FoamFile
{
    version     2.0;
    format      ascii;
    class       volScalarField;
    location    "7";
    object      p_rgh;
}
// * * * * * * * * * * * * * * * * * * * * * * * * * * * * * * * * * * * * * //

dimensions      [1 -1 -2 0 0 0 0];


internalField   nonuniform List<scalar> 
33000
(
8368.63
8369.72
8370.75
8371.61
8372.43
8373.28
8374.2
8374.6
8374.26
8373.29
8372.19
8371.47
8371.13
8370.97
8370.74
8370.36
8369.84
8369.13
8368.24
8367.35
8366.55
8365.82
8365.07
8364.66
8364.85
8364.84
8364.08
8363.01
8361.78
8360.45
8359.06
8357.61
8356.05
8354.46
8352.88
8351.27
8349.58
8347.81
8345.98
8344.11
8342.21
8340.33
8338.33
8336.32
8334.26
8332.15
8329.92
8327.74
8325.5
8323.25
8320.92
8318.54
8316.11
8313.63
8311.1
8308.54
8305.93
8303.27
8300.6
8297.94
8295.24
8292.5
8289.75
8286.95
8284.15
8281.34
8278.49
8275.63
8272.78
8269.93
8267.14
8264.46
8261.91
8259.47
8257.3
8255.43
8254.01
8252.58
8244.46
8232.06
8235.99
8229.94
8225.02
8221.13
8216.26
8210.12
8206.25
8201.15
8196.65
8191.4
8186.82
8181.62
8176.77
8171.91
8167.45
8162.87
8159.58
8154.9
8155.03
8148.88
8136.51
8129.77
8121.37
8113.01
8105.07
8095.96
8086.13
8076.41
8066.26
8056.4
8045.83
8035.44
8024.73
8013.84
8003.45
7992.08
7984.14
7971.25
7952.77
7939.19
7923.64
7907.66
7892.02
7875.28
7857.59
7840.08
7822.12
7803.95
7785.63
7767.08
7748.31
7729.52
7710.7
7691.88
7673.1
7654.4
7635.83
7617.38
7599.13
7581.08
7563.25
7545.74
7528.55
7511.74
7495.3
7479.26
7463.65
7448.5
7433.83
7419.73
7406.14
7393.08
7380.56
7368.6
7357.23
7346.43
7336.21
7326.53
7317.41
7308.84
7300.78
7293.22
7286.18
7279.59
7273.43
7267.67
7262.31
7257.3
7252.59
7248.18
7244.01
7240.08
7236.4
7232.98
7229.84
7227.01
7224.52
7222.38
7220.64
7219.26
7218.26
7217.66
7217.44
7217.63
7218.22
7219.22
7220.63
7222.43
7224.62
7227.19
7230.14
7233.47
7237.18
7241.24
7245.64
7250.38
7255.43
7260.79
7266.44
7272.38
7278.61
7285.11
7291.84
7298.8
7305.98
7313.37
7320.95
7328.72
7336.66
7344.75
7352.98
7361.34
7369.85
7378.45
7387.14
7395.91
7404.74
7413.65
7422.63
7431.65
7440.71
7449.78
7458.86
7467.94
7477.03
7486.12
7495.19
7504.24
7513.26
7522.24
7531.16
7540.04
7548.88
7557.67
7566.39
7575.04
7583.63
7592.14
7600.58
7608.93
7617.21
7625.41
7633.52
7641.56
7649.51
7657.37
7665.14
7672.81
7680.4
7687.91
7695.33
7702.65
7709.88
7717.01
7724.06
7731.02
7737.89
7744.67
7751.36
7757.95
7764.46
7770.88
7777.2
7783.44
7789.58
7795.63
7801.58
7807.44
7813.21
7818.89
7824.46
7829.94
7835.32
7840.59
7845.76
7850.84
7855.81
7860.68
7865.44
7870.09
7874.64
7879.07
7883.39
7887.6
7891.7
7895.68
7899.55
7903.31
7906.95
7910.47
7913.87
7917.17
7920.34
7923.41
7926.36
7929.19
7931.92
7934.54
7937.05
7939.46
7941.76
7943.97
7946.08
7948.09
7950.02
7951.87
7953.64
7955.33
7956.95
7958.51
7960
7961.45
7962.84
7964.2
7965.52
7966.8
7968.06
7969.31
7970.53
7971.75
7972.96
7974.15
7975.33
7976.49
7977.64
7978.76
7979.85
7980.93
7981.97
7982.99
7983.98
7984.94
7985.86
7986.76
7987.62
7988.45
7989.25
7990.01
7990.73
7991.42
7992.07
7992.68
7993.26
7993.8
7994.3
7994.76
7995.18
7995.56
7995.9
7996.19
7996.45
7996.67
7996.84
7996.97
7997.05
7997.1
7997.1
7997.05
7996.96
7996.82
7996.64
7996.42
7996.15
7995.83
7995.48
7995.07
7994.63
7994.14
7993.61
7993.03
7992.42
7991.76
7991.06
7990.33
7989.55
7988.74
7987.89
7987.01
7986.09
7985.15
7984.16
7983.15
7982.11
7981.04
7979.94
7978.82
7977.67
7976.51
7975.32
7974.11
7972.88
7971.63
7970.37
7969.1
7967.82
7966.52
7965.21
7963.89
7962.57
7961.24
7959.9
7958.55
7957.2
7955.84
7954.48
7953.12
7951.75
7950.38
7949.01
7947.63
7946.26
7944.88
7943.5
7942.12
7940.74
7939.35
7937.97
7936.59
7935.21
7933.83
7932.46
7931.07
7929.71
7928.33
7926.96
7925.61
7924.25
7922.87
7921.55
7920.11
7918.79
7917.56
7916.23
7914.92
7913.56
7912.21
7910.85
7909.47
7908.1
7906.72
7905.35
7903.97
7902.61
7901.24
7899.89
7898.53
7897.21
7895.85
7894.55
7893.26
7891.98
7890.7
7889.44
7888.19
7886.96
7885.75
7884.54
7883.37
7882.22
7881.1
7879.97
7878.92
7877.82
7876.84
7875.9
7874.96
7874.04
7873.28
7872.08
7871.5
7871
7870.44
7869.84
7869.23
7868.61
7867.99
7867.38
7866.78
7866.18
7865.6
7865.03
7864.47
7863.93
7863.4
7862.9
7862.41
7861.93
7861.48
7861.05
7860.63
7860.24
7859.86
7859.51
7859.17
7858.86
7858.57
7858.3
7858.05
7857.82
7857.61
7857.42
7857.25
7857.1
7856.98
7856.87
7856.79
7856.72
7856.68
7856.66
7856.65
7856.67
7856.7
7856.76
7856.83
7856.93
7857.04
7857.17
7857.32
7857.49
7857.68
7857.89
7858.11
7858.35
7858.61
7858.89
7859.19
7859.5
7859.83
7860.17
7860.54
7860.92
7861.31
7861.72
7862.15
7862.59
7863.05
7863.53
7864.02
7864.53
7865.05
7865.59
7866.14
7866.7
7867.29
7867.88
7868.52
7868.93
7870.05
7870
7871.48
8368.73
8369.83
8370.84
8371.61
8372.3
8372.91
8373.13
8373.15
8372.74
8372.03
8371.16
8370.74
8370.87
8371.02
8370.86
8370.52
8370.03
8369.18
8368.02
8366.87
8365.74
8364.73
8364.23
8364.09
8364.16
8364.33
8363.91
8363.03
8361.88
8360.54
8359.16
8357.69
8356.04
8354.49
8352.9
8351.38
8349.75
8347.98
8346.12
8344.14
8342.22
8340.29
8338.42
8336.48
8334.39
8332.22
8329.99
8327.77
8325.58
8323.37
8321.05
8318.66
8316.22
8313.74
8311.21
8308.54
8305.89
8303.28
8300.62
8297.97
8295.3
8292.5
8289.75
8286.96
8284.18
8281.34
8278.47
8275.52
8272.58
8269.71
8266.85
8264.08
8261.32
8258.5
8255.64
8252.75
8249.89
8246.87
8243.77
8242.12
8240.74
8231.8
8217.15
8222.3
8215.62
8211.76
8206.85
8202.56
8197.24
8190.45
8186.93
8181.18
8176.48
8171.28
8166.45
8161.2
8156.59
8151.95
8146.97
8142.44
8136.46
8135.61
8127.4
8112.64
8103.97
8093.86
8085.57
8076.23
8067.76
8057.9
8046.66
8035.75
8024.51
8013.3
8002.23
7990.75
7979.05
7966.89
7953.18
7943.81
7928.77
7907.69
7891.64
7874.49
7857.49
7840.89
7823.21
7804.51
7785.98
7767.18
7748.4
7729.7
7710.89
7692.01
7673.16
7654.35
7635.75
7617.26
7599.01
7580.9
7563.03
7545.48
7528.26
7511.38
7494.94
7478.87
7463.21
7447.99
7433.32
7419.2
7405.61
7392.52
7379.98
7367.99
7356.61
7345.79
7335.57
7325.9
7316.77
7308.19
7300.12
7292.56
7285.53
7278.95
7272.78
7267
7261.65
7256.65
7251.94
7247.49
7243.32
7239.41
7235.75
7232.32
7229.18
7226.34
7223.82
7221.69
7219.92
7218.54
7217.58
7217
7216.79
7216.98
7217.55
7218.54
7219.97
7221.8
7224.01
7226.6
7229.55
7232.9
7236.61
7240.68
7245.13
7249.89
7254.96
7260.31
7265.98
7271.95
7278.19
7284.72
7291.48
7298.45
7305.64
7313.04
7320.65
7328.45
7336.41
7344.51
7352.74
7361.13
7369.66
7378.28
7386.99
7395.77
7404.61
7413.53
7422.52
7431.56
7440.64
7449.73
7458.82
7467.91
7477
7486.1
7495.18
7504.26
7513.28
7522.27
7531.19
7540.08
7548.93
7557.72
7566.45
7575.13
7583.72
7592.24
7600.67
7609.03
7617.3
7625.5
7633.62
7641.67
7649.63
7657.49
7665.26
7672.92
7680.51
7688.03
7695.45
7702.77
7710
7717.13
7724.18
7731.14
7738.01
7744.79
7751.49
7758.08
7764.58
7771
7777.33
7783.57
7789.71
7795.75
7801.7
7807.56
7813.33
7819.02
7824.59
7830.07
7835.44
7840.71
7845.89
7850.96
7855.94
7860.81
7865.57
7870.22
7874.77
7879.2
7883.51
7887.72
7891.82
7895.81
7899.68
7903.43
7907.06
7910.58
7913.98
7917.27
7920.45
7923.51
7926.46
7929.29
7932.01
7934.62
7937.13
7939.53
7941.83
7944.04
7946.14
7948.15
7950.08
7951.92
7953.68
7955.37
7956.99
7958.54
7960.04
7961.48
7962.87
7964.22
7965.53
7966.82
7968.08
7969.32
7970.55
7971.76
7972.97
7974.17
7975.35
7976.51
7977.65
7978.77
7979.87
7980.94
7981.99
7983.01
7984
7984.96
7985.89
7986.78
7987.64
7988.47
7989.27
7990.03
7990.76
7991.45
7992.1
7992.72
7993.3
7993.84
7994.34
7994.8
7995.22
7995.61
7995.95
7996.25
7996.51
7996.73
7996.9
7997.04
7997.12
7997.17
7997.17
7997.13
7997.04
7996.91
7996.73
7996.51
7996.24
7995.93
7995.57
7995.17
7994.72
7994.23
7993.7
7993.13
7992.51
7991.86
7991.16
7990.42
7989.65
7988.84
7987.99
7987.1
7986.18
7985.23
7984.25
7983.24
7982.19
7981.12
7980.02
7978.9
7977.75
7976.58
7975.39
7974.18
7972.95
7971.7
7970.44
7969.17
7967.88
7966.58
7965.27
7963.95
7962.62
7961.29
7959.95
7958.6
7957.25
7955.89
7954.53
7953.16
7951.79
7950.42
7949.05
7947.67
7946.29
7944.92
7943.53
7942.15
7940.77
7939.39
7938.01
7936.63
7935.24
7933.86
7932.47
7931.1
7929.74
7928.38
7926.99
7925.63
7924.16
7922.81
7921.62
7920.26
7918.98
7917.64
7916.31
7914.96
7913.61
7912.24
7910.87
7909.49
7908.11
7906.73
7905.35
7903.98
7902.6
7901.24
7899.84
7898.5
7897.18
7895.86
7894.53
7893.25
7891.94
7890.67
7889.39
7888.15
7886.92
7885.7
7884.53
7883.3
7882.19
7880.96
7879.92
7878.84
7877.88
7876.76
7875.89
7874.43
7873.72
7873.17
7872.52
7871.84
7871.19
7870.54
7869.9
7869.26
7868.63
7868
7867.38
7866.77
7866.17
7865.58
7865
7864.44
7863.9
7863.37
7862.86
7862.37
7861.9
7861.44
7861
7860.59
7860.19
7859.82
7859.46
7859.12
7858.81
7858.52
7858.25
7858
7857.77
7857.56
7857.37
7857.2
7857.06
7856.93
7856.83
7856.74
7856.68
7856.63
7856.61
7856.61
7856.62
7856.66
7856.71
7856.79
7856.88
7856.99
7857.13
7857.28
7857.45
7857.63
7857.84
7858.07
7858.31
7858.57
7858.85
7859.14
7859.46
7859.79
7860.13
7860.5
7860.88
7861.27
7861.68
7862.11
7862.56
7863.02
7863.49
7863.98
7864.49
7865.01
7865.55
7866.1
7866.67
7867.25
7867.85
7868.48
7868.9
7870.01
7869.97
7871.45
8368.99
8370.04
8371.01
8371.8
8372.24
8372.42
8371.7
8370.55
8369.13
8368.1
8368.23
8369.26
8370.25
8370.85
8371.05
8370.98
8370.5
8369.66
8368.55
8367.36
8366.21
8365.23
8364.56
8364.19
8364.01
8363.76
8363.33
8362.64
8361.65
8360.43
8359.09
8357.49
8356.02
8354.5
8352.97
8351.56
8349.97
8348.22
8346.37
8344.29
8342.31
8340.43
8338.67
8336.75
8334.64
8332.37
8330.13
8327.88
8325.74
8323.59
8321.28
8318.89
8316.46
8313.97
8311.28
8308.57
8306.02
8303.43
8300.95
8298.14
8295.23
8292.45
8289.65
8286.99
8284.27
8281.42
8278.51
8275.45
8272.46
8269.5
8266.61
8263.78
8260.85
8257.88
8254.91
8251.88
8248.68
8245.23
8241.45
8237.33
8233.53
8230.07
8228.77
8227.8
8218.62
8201.65
8205.35
8201.13
8196.85
8191.69
8187.27
8181.95
8174.98
8171.04
8165.36
8160.44
8155.32
8149.98
8144.62
8138.9
8132.18
8125.81
8119.63
8113.42
8111.82
8102.81
8086.34
8076.48
8065.38
8056.26
8045.82
8036.6
8025.76
8013.98
8002.25
7990.03
7977.98
7965.1
7951.33
7937.23
7923.27
7908.19
7897.6
7881.07
7858.14
7840.85
7822.56
7804.54
7787.07
7768.48
7749.06
7730.05
7710.98
7692.1
7673.22
7654.44
7635.79
7617.24
7598.87
7580.67
7562.67
7545.03
7527.71
7510.76
7494.25
7478.07
7462.26
7447.02
7432.3
7418.17
7404.5
7391.32
7378.69
7366.75
7355.39
7344.54
7334.2
7324.5
7315.41
7306.84
7298.75
7291.18
7284.13
7277.57
7271.36
7265.57
7260.21
7255.23
7250.48
7246.01
7241.84
7237.92
7234.3
7230.9
7227.77
7224.94
7222.4
7220.26
7218.5
7217.12
7216.16
7215.62
7215.43
7215.64
7216.23
7217.2
7218.64
7220.48
7222.77
7225.41
7228.42
7231.77
7235.48
7239.58
7244.05
7248.88
7254
7259.39
7265.08
7271.08
7277.4
7283.96
7290.74
7297.74
7304.97
7312.42
7320.08
7327.92
7335.9
7344.01
7352.28
7360.71
7369.3
7377.95
7386.69
7395.5
7404.37
7413.31
7422.32
7431.39
7440.51
7449.62
7458.74
7467.85
7476.96
7486.07
7495.18
7504.28
7513.33
7522.33
7531.27
7540.17
7549.03
7557.87
7566.62
7575.29
7583.89
7592.4
7600.83
7609.2
7617.49
7625.72
7633.88
7641.92
7649.87
7657.73
7665.49
7673.15
7680.75
7688.27
7695.71
7703.03
7710.25
7717.38
7724.43
7731.41
7738.28
7745.05
7751.72
7758.31
7764.83
7771.27
7777.59
7783.82
7789.96
7795.99
7801.94
7807.81
7813.59
7819.27
7824.85
7830.32
7835.7
7840.97
7846.14
7851.22
7856.19
7861.06
7865.83
7870.48
7875.02
7879.45
7883.76
7887.97
7892.07
7896.06
7899.92
7903.67
7907.3
7910.81
7914.21
7917.5
7920.67
7923.72
7926.66
7929.48
7932.2
7934.81
7937.3
7939.69
7941.98
7944.18
7946.28
7948.28
7950.2
7952.03
7953.78
7955.47
7957.08
7958.62
7960.11
7961.55
7962.93
7964.28
7965.59
7966.87
7968.13
7969.37
7970.6
7971.81
7973.01
7974.2
7975.38
7976.54
7977.69
7978.81
7979.91
7980.98
7982.03
7983.05
7984.04
7985
7985.93
7986.82
7987.69
7988.52
7989.32
7990.08
7990.81
7991.51
7992.16
7992.78
7993.37
7993.91
7994.42
7994.89
7995.32
7995.7
7996.05
7996.36
7996.63
7996.85
7997.03
7997.17
7997.26
7997.31
7997.32
7997.28
7997.2
7997.07
7996.9
7996.68
7996.42
7996.11
7995.75
7995.35
7994.91
7994.43
7993.9
7993.32
7992.71
7992.05
7991.35
7990.62
7989.84
7989.03
7988.17
7987.29
7986.36
7985.41
7984.42
7983.4
7982.36
7981.28
7980.18
7979.05
7977.9
7976.73
7975.54
7974.32
7973.09
7971.84
7970.58
7969.3
7968.01
7966.71
7965.39
7964.07
7962.74
7961.4
7960.05
7958.7
7957.34
7955.98
7954.62
7953.25
7951.88
7950.5
7949.13
7947.74
7946.36
7944.98
7943.6
7942.22
7940.84
7939.44
7938.07
7936.66
7935.29
7933.93
7932.56
7931.15
7929.79
7928.29
7926.94
7925.76
7924.41
7923.12
7921.78
7920.44
7919.09
7917.75
7916.39
7915.04
7913.66
7912.29
7910.92
7909.53
7908.16
7906.75
7905.38
7903.93
7902.58
7901.22
7899.89
7898.51
7897.2
7895.83
7894.54
7893.19
7891.92
7890.62
7889.35
7888.11
7886.83
7885.63
7884.33
7883.21
7882.05
7881
7879.77
7878.81
7877.18
7876.38
7875.76
7875.02
7874.25
7873.47
7872.69
7871.95
7871.26
7870.59
7869.92
7869.25
7868.59
7867.95
7867.32
7866.69
7866.08
7865.49
7864.91
7864.35
7863.8
7863.27
7862.76
7862.27
7861.79
7861.34
7860.9
7860.48
7860.09
7859.71
7859.36
7859.02
7858.71
7858.41
7858.14
7857.89
7857.66
7857.45
7857.26
7857.09
7856.95
7856.82
7856.72
7856.63
7856.57
7856.53
7856.5
7856.5
7856.52
7856.56
7856.61
7856.69
7856.78
7856.9
7857.03
7857.18
7857.35
7857.54
7857.75
7857.98
7858.22
7858.48
7858.76
7859.06
7859.37
7859.7
7860.05
7860.41
7860.79
7861.19
7861.6
7862.03
7862.48
7862.94
7863.41
7863.91
7864.41
7864.94
7865.47
7866.03
7866.59
7867.18
7867.77
7868.41
7868.83
7869.94
7869.89
7871.37
8369.47
8370.51
8371.47
8372.23
8372.8
8372.33
8370.9
8369.02
8366.17
8364.24
8365.01
8367.53
8369.52
8370.62
8371.26
8371.41
8371.01
8370.3
8369.39
8368.36
8367.42
8366.61
8365.96
8365.44
8364.83
8364.22
8363.65
8362.92
8361.95
8360.69
8359.2
8357.61
8356.21
8354.68
8353.33
8351.97
8350.34
8348.61
8346.8
8344.83
8342.63
8340.87
8339.12
8337.15
8335.04
8332.8
8330.39
8328.16
8326.07
8323.94
8321.64
8319.25
8316.81
8314.32
8311.68
8308.82
8306.43
8304.01
8301.31
8298.35
8295.41
8292.58
8289.73
8287.01
8284.38
8281.55
8278.62
8275.63
8272.49
8269.29
8266.31
8263.42
8260.37
8257.21
8253.98
8250.62
8247.09
8243.33
8239.7
8235.98
8232.23
8228.42
8223.94
8219.28
8214.74
8212.3
8211.55
8209.17
8199.72
8181.68
8188.01
8180.18
8175.9
8170.33
8165.18
8157.44
8153.43
8146.99
8141.46
8135.4
8129.01
8122.49
8115.93
8107.07
8100.36
8091.39
8085.67
8077.61
8076.62
8066.11
8047.77
8036.28
8024.23
8013.21
8002.71
7990.59
7977.4
7964.07
7950.13
7936.46
7921.91
7906.4
7890.48
7875.04
7858.68
7847.45
7829.71
7805.43
7786.96
7767.71
7749.07
7731.2
7712.24
7692.6
7673.32
7654.07
7635.36
7616.69
7598.46
7580.21
7562.1
7544.25
7526.81
7509.78
7493.14
7476.8
7460.89
7445.55
7430.79
7416.56
7402.78
7389.46
7376.83
7364.83
7353.47
7342.56
7332.16
7322.41
7313.24
7304.61
7296.57
7289.05
7281.98
7275.31
7269.06
7263.28
7257.87
7252.87
7248.16
7243.64
7239.46
7235.55
7231.9
7228.59
7225.51
7222.71
7220.18
7218.03
7216.29
7214.93
7214.05
7213.5
7213.34
7213.57
7214.16
7215.18
7216.65
7218.53
7220.85
7223.58
7226.64
7230.08
7233.83
7237.94
7242.44
7247.34
7252.54
7258.02
7263.78
7269.8
7276.12
7282.77
7289.63
7296.68
7303.98
7311.52
7319.23
7327.1
7335.09
7343.26
7351.6
7360.09
7368.74
7377.45
7386.23
7395.07
7403.96
7412.97
7422.02
7431.16
7440.31
7449.46
7458.62
7467.78
7476.91
7486.04
7495.16
7504.27
7513.38
7522.43
7531.4
7540.31
7549.19
7558.05
7566.84
7575.53
7584.13
7592.63
7601.1
7609.49
7617.82
7626.08
7634.22
7642.26
7650.19
7658.04
7665.82
7673.51
7681.14
7688.67
7696.08
7703.37
7710.59
7717.76
7724.84
7731.8
7738.66
7745.41
7752.08
7758.68
7765.19
7771.64
7777.97
7784.2
7790.34
7796.38
7802.32
7808.18
7813.97
7819.65
7825.23
7830.69
7836.06
7841.35
7846.55
7851.63
7856.58
7861.43
7866.19
7870.86
7875.41
7879.83
7884.14
7888.35
7892.45
7896.43
7900.28
7904.01
7907.64
7911.16
7914.56
7917.83
7920.99
7924.02
7926.95
7929.77
7932.49
7935.08
7937.56
7939.93
7942.21
7944.4
7946.49
7948.48
7950.37
7952.19
7953.95
7955.62
7957.22
7958.75
7960.23
7961.67
7963.05
7964.39
7965.69
7966.97
7968.23
7969.47
7970.69
7971.9
7973.09
7974.28
7975.45
7976.61
7977.75
7978.87
7979.96
7981.03
7982.08
7983.1
7984.09
7985.06
7985.99
7986.89
7987.75
7988.59
7989.39
7990.16
7990.89
7991.6
7992.26
7992.89
7993.47
7994.03
7994.54
7995.02
7995.46
7995.86
7996.21
7996.53
7996.8
7997.03
7997.22
7997.37
7997.48
7997.53
7997.55
7997.52
7997.44
7997.32
7997.16
7996.94
7996.69
7996.38
7996.03
7995.64
7995.2
7994.71
7994.18
7993.61
7993
7992.34
7991.64
7990.9
7990.13
7989.31
7988.45
7987.56
7986.63
7985.67
7984.68
7983.66
7982.6
7981.52
7980.42
7979.28
7978.13
7976.96
7975.76
7974.54
7973.3
7972.05
7970.78
7969.49
7968.2
7966.89
7965.57
7964.24
7962.9
7961.55
7960.2
7958.84
7957.48
7956.11
7954.75
7953.37
7952
7950.62
7949.24
7947.87
7946.48
7945.11
7943.7
7942.33
7940.92
7939.55
7938.18
7936.81
7935.38
7934.01
7932.49
7931.13
7929.98
7928.62
7927.35
7925.99
7924.66
7923.29
7921.97
7920.59
7919.25
7917.87
7916.51
7915.14
7913.77
7912.38
7910.98
7909.59
7908.12
7906.74
7905.39
7904.02
7902.63
7901.27
7899.86
7898.53
7897.12
7895.82
7894.42
7893.16
7891.75
7890.52
7889.12
7887.93
7886.72
7885.52
7884.39
7883.07
7882.01
7880.22
7879.35
7878.66
7877.84
7876.99
7876.11
7875.23
7874.41
7873.61
7872.84
7872.09
7871.35
7870.64
7869.93
7869.24
7868.57
7867.91
7867.26
7866.63
7866.01
7865.4
7864.81
7864.24
7863.69
7863.15
7862.63
7862.14
7861.66
7861.2
7860.76
7860.34
7859.94
7859.56
7859.2
7858.87
7858.55
7858.26
7857.99
7857.74
7857.51
7857.3
7857.11
7856.94
7856.8
7856.67
7856.57
7856.48
7856.42
7856.38
7856.36
7856.35
7856.37
7856.41
7856.47
7856.55
7856.64
7856.76
7856.89
7857.05
7857.22
7857.41
7857.62
7857.85
7858.09
7858.35
7858.63
7858.93
7859.25
7859.58
7859.93
7860.29
7860.67
7861.07
7861.49
7861.92
7862.36
7862.82
7863.3
7863.79
7864.3
7864.82
7865.36
7865.91
7866.48
7867.07
7867.66
7868.3
7868.72
7869.83
7869.78
7871.27
8370.16
8371.13
8371.96
8372.56
8373.51
8373.35
8372.01
8370.31
8368.79
8368.2
8368.84
8369.63
8370.62
8371.38
8371.88
8371.9
8371.56
8371.02
8370.32
8369.53
8368.72
8367.94
8367.22
8366.54
8365.79
8364.85
8364.09
8363.33
8362.34
8361.12
8359.6
8357.88
8356.49
8355.16
8354
8352.48
8350.8
8349.07
8347.28
8345.38
8343.42
8341.51
8339.62
8337.61
8335.52
8333.33
8330.95
8328.6
8326.56
8324.41
8322.09
8319.69
8317.24
8314.74
8312.14
8309.58
8307.03
8304.41
8301.71
8298.86
8295.65
8292.78
8289.92
8287.19
8284.59
8281.75
8278.78
8275.74
8272.66
8269.47
8266.12
8263.04
8259.92
8256.72
8253.42
8249.99
8246.31
8242.45
8238.71
8234.91
8231.28
8227.43
8223.28
8219.11
8214.85
8210.67
8206.37
8201.81
8197.81
8196.1
8195.08
8184.18
8163.72
8171
8162.95
8158
8152.33
8146.55
8137.99
8133.15
8125.72
8119.34
8112.44
8105.14
8097.73
8090.14
8080.39
8072.69
8063.79
8056.35
8047.91
8045.9
8034.35
8014.4
8001.85
7988.45
7976.19
7964.24
7950.49
7935.5
7920.43
7904.96
7889.61
7873.76
7856.95
7839.98
7823.3
7805.67
7793.32
7774.72
7749.48
7730.68
7710.87
7692.26
7673.39
7655.14
7636.2
7616.8
7597.98
7579.58
7561.43
7543.46
7525.83
7508.54
7491.57
7474.99
7459.02
7443.57
7428.76
7414.33
7400.3
7386.97
7374.23
7362.2
7350.75
7339.79
7329.33
7319.47
7310.24
7301.56
7293.5
7285.96
7278.81
7272.04
7265.77
7259.95
7254.51
7249.52
7244.8
7240.26
7236.04
7232.15
7228.56
7225.32
7222.27
7219.5
7216.99
7214.91
7213.21
7211.98
7211.11
7210.58
7210.46
7210.74
7211.38
7212.43
7213.96
7215.89
7218.27
7221.1
7224.23
7227.73
7231.6
7235.76
7240.31
7245.29
7250.59
7256.15
7262
7268.07
7274.46
7281.14
7288.07
7295.32
7302.71
7310.29
7318.06
7325.95
7334.02
7342.29
7350.71
7359.34
7368.01
7376.77
7385.59
7394.45
7403.45
7412.52
7421.7
7430.86
7440.01
7449.16
7458.37
7467.64
7476.88
7486.08
7495.22
7504.3
7513.41
7522.48
7531.5
7540.49
7549.48
7558.35
7567.14
7575.85
7584.44
7592.98
7601.47
7609.89
7618.28
7626.52
7634.66
7642.67
7650.62
7658.51
7666.3
7674.03
7681.67
7689.18
7696.57
7703.85
7711.09
7718.23
7725.33
7732.31
7739.16
7745.89
7752.58
7759.18
7765.72
7772.15
7778.48
7784.71
7790.85
7796.89
7802.83
7808.68
7814.48
7820.17
7825.73
7831.19
7836.57
7841.87
7847.07
7852.15
7857.12
7861.96
7866.71
7871.36
7875.9
7880.36
7884.68
7888.88
7892.96
7896.9
7900.75
7904.49
7908.12
7911.64
7915.03
7918.28
7921.42
7924.45
7927.36
7930.18
7932.88
7935.46
7937.93
7940.29
7942.54
7944.73
7946.79
7948.75
7950.64
7952.45
7954.2
7955.86
7957.44
7958.97
7960.44
7961.87
7963.25
7964.57
7965.87
7967.14
7968.39
7969.63
7970.84
7972.03
7973.22
7974.39
7975.56
7976.72
7977.85
7978.96
7980.05
7981.11
7982.16
7983.18
7984.18
7985.14
7986.08
7986.97
7987.84
7988.68
7989.49
7990.27
7991.01
7991.72
7992.39
7993.02
7993.62
7994.18
7994.7
7995.2
7995.65
7996.06
7996.43
7996.76
7997.05
7997.28
7997.49
7997.64
7997.76
7997.83
7997.86
7997.83
7997.77
7997.66
7997.5
7997.3
7997.05
7996.75
7996.41
7996.02
7995.58
7995.1
7994.57
7994
7993.39
7992.72
7992.02
7991.28
7990.5
7989.68
7988.82
7987.92
7986.99
7986.03
7985.03
7984
7982.94
7981.85
7980.73
7979.6
7978.44
7977.26
7976.05
7974.82
7973.57
7972.32
7971.04
7969.75
7968.44
7967.12
7965.79
7964.46
7963.11
7961.77
7960.4
7959.04
7957.66
7956.3
7954.92
7953.55
7952.18
7950.79
7949.41
7948.01
7946.63
7945.22
7943.85
7942.48
7941.11
7939.66
7938.29
7936.74
7935.39
7934.25
7932.91
7931.64
7930.29
7928.95
7927.59
7926.26
7924.89
7923.55
7922.16
7920.8
7919.42
7918.05
7916.65
7915.26
7913.8
7912.39
7911.08
7909.66
7908.31
7906.87
7905.51
7904.06
7902.71
7901.24
7899.91
7898.46
7897.16
7895.7
7894.43
7892.94
7891.71
7890.44
7889.18
7887.97
7886.59
7885.43
7883.51
7882.57
7881.83
7880.94
7880.01
7879.03
7878.06
7877.11
7876.24
7875.38
7874.55
7873.73
7872.92
7872.14
7871.38
7870.63
7869.9
7869.19
7868.49
7867.81
7867.15
7866.5
7865.87
7865.25
7864.66
7864.08
7863.52
7862.98
7862.45
7861.95
7861.47
7861
7860.56
7860.14
7859.74
7859.36
7859
7858.66
7858.35
7858.05
7857.78
7857.53
7857.3
7857.09
7856.9
7856.73
7856.59
7856.47
7856.36
7856.28
7856.22
7856.18
7856.16
7856.16
7856.18
7856.22
7856.27
7856.35
7856.45
7856.57
7856.71
7856.86
7857.04
7857.23
7857.44
7857.67
7857.92
7858.18
7858.46
7858.76
7859.08
7859.41
7859.76
7860.13
7860.51
7860.91
7861.33
7861.76
7862.21
7862.67
7863.15
7863.64
7864.15
7864.67
7865.21
7865.77
7866.34
7866.92
7867.52
7868.15
7868.57
7869.69
7869.64
7871.12
8371.11
8372.03
8372.81
8373.45
8374.12
8374.06
8373.55
8372.78
8372.08
8372.04
8372.33
8372.64
8372.83
8372.93
8372.97
8372.82
8372.43
8371.94
8371.32
8370.62
8369.88
8369.14
8368.38
8367.62
8366.81
8365.82
8364.93
8364.04
8362.97
8361.77
8360.4
8358.54
8357.2
8356.1
8354.71
8353.08
8351.4
8349.66
8347.86
8346.02
8344.12
8342.17
8340.19
8338.16
8336.08
8333.93
8331.73
8329.45
8327.1
8324.84
8322.56
8320.2
8317.76
8315.26
8312.72
8310.16
8307.56
8304.9
8302.2
8299.44
8296.49
8293.13
8290.2
8287.51
8284.96
8282.03
8279
8275.92
8272.78
8269.61
8266.39
8262.92
8259.29
8256.08
8252.86
8249.36
8245.72
8241.78
8237.83
8234.2
8230.39
8226.34
8222.17
8217.82
8213.56
8209.25
8204.86
8200.46
8195.81
8190.82
8185.86
8181.04
8179.1
8178
8166.3
8143.94
8151.44
8143.17
8137.7
8131.15
8124.34
8114.77
8109.33
8100.76
8093.55
8085.25
8077.41
8068.83
8060.84
8051.95
8042.13
8032.52
8023.43
8014.1
8011.16
7998.31
7976.28
7962.34
7947.65
7933.97
7920.49
7905.17
7888.53
7872.09
7855.41
7839
7821.99
7803.8
7785.59
7767.86
7749.53
7736.96
7717.64
7692.24
7672.82
7652.85
7634.71
7615.61
7597.76
7579.11
7560.37
7542.14
7524.29
7506.79
7489.52
7472.81
7456.6
7441.09
7426.06
7411.43
7397.23
7383.72
7370.9
7358.78
7347.18
7336.1
7325.62
7315.6
7306.25
7297.5
7289.42
7281.75
7274.55
7267.75
7261.34
7255.46
7250.05
7245.02
7240.25
7235.77
7231.5
7227.62
7224.15
7220.94
7217.96
7215.25
7212.79
7210.78
7209.25
7208.1
7207.24
7206.78
7206.7
7207.01
7207.77
7209.04
7210.57
7212.53
7214.97
7217.91
7221.15
7224.74
7228.73
7233.07
7237.75
7242.7
7247.98
7253.75
7259.73
7265.93
7272.39
7279.17
7286.25
7293.58
7301.05
7308.72
7316.5
7324.51
7332.72
7341.13
7349.72
7358.35
7367.08
7375.9
7384.75
7393.75
7402.83
7412.06
7421.24
7430.46
7439.63
7448.88
7458.16
7467.51
7476.79
7486.04
7495.27
7504.44
7513.53
7522.64
7531.7
7540.74
7549.78
7558.68
7567.51
7576.26
7584.91
7593.45
7601.94
7610.46
7618.82
7627.06
7635.17
7643.23
7651.21
7659.1
7666.97
7674.69
7682.3
7689.8
7697.17
7704.48
7711.71
7718.88
7725.98
7732.95
7739.79
7746.53
7753.2
7759.84
7766.37
7772.79
7779.1
7785.3
7791.42
7797.52
7803.49
7809.36
7815.13
7820.8
7826.35
7831.82
7837.22
7842.54
7847.72
7852.8
7857.78
7862.63
7867.36
7872.01
7876.56
7881.02
7885.33
7889.53
7893.6
7897.54
7901.37
7905.13
7908.76
7912.25
7915.61
7918.85
7921.97
7925.01
7927.93
7930.72
7933.39
7935.96
7938.4
7940.75
7943
7945.16
7947.21
7949.17
7951.03
7952.84
7954.56
7956.21
7957.78
7959.28
7960.75
7962.17
7963.54
7964.86
7966.14
7967.41
7968.66
7969.87
7971.07
7972.25
7973.43
7974.59
7975.74
7976.88
7978
7979.1
7980.19
7981.25
7982.28
7983.3
7984.3
7985.26
7986.2
7987.09
7987.97
7988.82
7989.64
7990.42
7991.17
7991.88
7992.56
7993.2
7993.81
7994.39
7994.93
7995.44
7995.9
7996.33
7996.71
7997.05
7997.35
7997.61
7997.82
7998
7998.13
7998.21
7998.25
7998.24
7998.18
7998.09
7997.94
7997.75
7997.5
7997.22
7996.88
7996.5
7996.07
7995.59
7995.06
7994.49
7993.88
7993.22
7992.51
7991.76
7990.98
7990.16
7989.29
7988.39
7987.45
7986.47
7985.47
7984.43
7983.36
7982.26
7981.13
7979.98
7978.81
7977.62
7976.41
7975.17
7973.92
7972.64
7971.36
7970.05
7968.74
7967.41
7966.08
7964.72
7963.38
7962
7960.64
7959.26
7957.9
7956.51
7955.14
7953.73
7952.36
7950.95
7949.58
7948.25
7946.86
7945.52
7944.03
7942.67
7941.08
7939.73
7938.62
7937.27
7936.03
7934.66
7933.34
7931.96
7930.66
7929.27
7927.94
7926.53
7925.19
7923.8
7922.44
7921.02
7919.64
7918.14
7916.74
7915.45
7914.03
7912.69
7911.25
7909.87
7908.4
7907.01
7905.53
7904.16
7902.67
7901.33
7899.81
7898.5
7896.92
7895.66
7894.23
7893
7891.48
7890.31
7888.2
7887.22
7886.41
7885.45
7884.42
7883.37
7882.28
7881.19
7880.15
7879.19
7878.25
7877.32
7876.41
7875.52
7874.64
7873.79
7872.96
7872.15
7871.36
7870.59
7869.83
7869.1
7868.38
7867.69
7867
7866.34
7865.7
7865.07
7864.46
7863.87
7863.31
7862.76
7862.23
7861.72
7861.23
7860.76
7860.32
7859.89
7859.49
7859.1
7858.74
7858.41
7858.09
7857.79
7857.52
7857.27
7857.04
7856.83
7856.64
7856.48
7856.33
7856.21
7856.11
7856.03
7855.97
7855.93
7855.91
7855.91
7855.93
7855.97
7856.03
7856.11
7856.21
7856.33
7856.47
7856.63
7856.81
7857
7857.22
7857.45
7857.7
7857.96
7858.25
7858.55
7858.87
7859.21
7859.56
7859.93
7860.31
7860.71
7861.13
7861.56
7862.01
7862.48
7862.96
7863.45
7863.96
7864.49
7865.03
7865.58
7866.15
7866.74
7867.34
7867.97
7868.39
7869.51
7869.46
7870.94
8372.41
8373.27
8373.99
8374.58
8374.99
8375.21
8375.05
8374.38
8373.83
8373.66
8374.28
8374.59
8374.51
8374.42
8374.26
8374
8373.63
8373.13
8372.53
8371.86
8371.14
8370.38
8369.58
8368.75
8367.89
8366.96
8365.98
8364.93
8363.78
8362.56
8361.23
8359.77
8358.38
8357
8355.43
8353.77
8352.08
8350.35
8348.54
8346.71
8344.81
8342.86
8340.84
8338.79
8336.7
8334.59
8332.4
8330.15
8327.52
8324.89
8322.86
8320.73
8318.35
8315.87
8313.33
8310.76
8308.14
8305.47
8302.76
8300
8297.17
8294.27
8290.83
8287.82
8285.12
8282.32
8279.3
8276.18
8272.99
8269.74
8266.42
8262.73
8259.14
8255.7
8252.48
8249.02
8245.32
8241.47
8237.58
8233.63
8229.56
8225.37
8220.78
8216.23
8212.17
8207.93
8203.38
8198.67
8193.82
8188.8
8183.79
8178.67
8173.38
8167.83
8161.89
8159.37
8158.07
8145.94
8122.93
8130.39
8120.92
8114.51
8107.3
8099.78
8089.3
8082.85
8073.35
8065.24
8056.27
8047.64
8038.12
8028.72
8018.95
8007.72
7997.01
7986.62
7976.45
7972.6
7958.1
7933.79
7918.17
7901.96
7886.75
7871.88
7855.32
7837.45
7819.65
7801.73
7784.23
7766
7746.77
7728.52
7708.98
7691.39
7673.44
7659.41
7640.45
7615.36
7596.05
7577.37
7558.91
7541.08
7522.9
7504.62
7486.94
7469.99
7453.71
7438
7422.61
7407.77
7393.43
7379.6
7366.7
7354.38
7342.56
7331.33
7320.71
7310.66
7301.15
7292.31
7284.06
7276.27
7268.97
7262.12
7255.7
7249.76
7244.3
7239.16
7234.37
7229.87
7225.7
7221.96
7218.51
7215.32
7212.4
7209.72
7207.44
7205.67
7204.26
7203.13
7202.38
7201.99
7201.92
7202.31
7203.27
7204.72
7206.46
7208.57
7211.01
7213.87
7217.2
7221.04
7225.22
7229.68
7234.49
7239.54
7244.94
7250.73
7256.81
7263.2
7269.98
7276.94
7284.08
7291.46
7299.02
7306.72
7314.67
7322.84
7331.18
7339.78
7348.4
7357.13
7365.97
7374.91
7383.9
7392.92
7402.08
7411.31
7420.67
7429.98
7439.3
7448.59
7457.94
7467.35
7476.68
7485.94
7495.22
7504.55
7513.78
7522.89
7531.95
7541.02
7550.1
7559.09
7567.96
7576.75
7585.43
7594
7602.52
7611.09
7619.47
7627.75
7635.9
7643.93
7651.92
7659.85
7667.73
7675.44
7683.06
7690.56
7697.92
7705.23
7712.47
7719.69
7726.76
7733.72
7740.58
7747.31
7753.96
7760.61
7767.13
7773.55
7779.85
7786.03
7792.17
7798.26
7804.26
7810.13
7815.9
7821.56
7827.11
7832.59
7838
7843.32
7848.51
7853.59
7858.56
7863.42
7868.16
7872.8
7877.38
7881.81
7886.12
7890.32
7894.39
7898.33
7902.14
7905.9
7909.51
7912.99
7916.35
7919.57
7922.68
7925.71
7928.6
7931.38
7934.03
7936.58
7939.01
7941.35
7943.59
7945.72
7947.75
7949.69
7951.55
7953.34
7955.04
7956.67
7958.23
7959.73
7961.19
7962.59
7963.94
7965.25
7966.53
7967.78
7969.01
7970.21
7971.39
7972.56
7973.72
7974.86
7975.99
7977.11
7978.21
7979.3
7980.38
7981.44
7982.47
7983.48
7984.46
7985.42
7986.36
7987.27
7988.15
7989
7989.82
7990.61
7991.36
7992.08
7992.78
7993.44
7994.07
7994.65
7995.21
7995.73
7996.21
7996.65
7997.05
7997.41
7997.72
7998
7998.23
7998.42
7998.57
7998.67
7998.72
7998.73
7998.69
7998.6
7998.47
7998.29
7998.05
7997.77
7997.45
7997.07
7996.65
7996.18
7995.65
7995.08
7994.47
7993.81
7993.1
7992.35
7991.56
7990.72
7989.85
7988.94
7988
7987.01
7986
7984.95
7983.87
7982.76
7981.62
7980.46
7979.28
7978.07
7976.84
7975.6
7974.32
7973.05
7971.74
7970.43
7969.09
7967.77
7966.41
7965.05
7963.68
7962.32