/*--------------------------------*- C++ -*----------------------------------*\
| =========                 |                                                 |
| \\      /  F ield         | OpenFOAM: The Open Source CFD Toolbox           |
|  \\    /   O peration     | Version:  v2006                                 |
|   \\  /    A nd           | Website:  www.openfoam.com                      |
|    \\/     M anipulation  |                                                 |
\*---------------------------------------------------------------------------*/
FoamFile
{
    version     2.0;
    format      ascii;
    class       surfaceScalarField;
    location    "7";
    object      phi;
}
// * * * * * * * * * * * * * * * * * * * * * * * * * * * * * * * * * * * * * //

dimensions      [0 3 -1 0 0 0 0];
oriented        oriented;


internalField   nonuniform List<scalar> 
65390
(
4.80931e-05
2.30053e-07
4.774e-05
3.52872e-07
4.7108e-05
6.31938e-07
4.64606e-05
6.47233e-07
4.65218e-05
-6.1227e-08
4.92758e-05
-2.75418e-06
5.73348e-05
-8.05902e-06
6.79448e-05
-1.06101e-05
7.62984e-05
-8.35366e-06
7.95214e-05
-3.22303e-06
7.97418e-05
-2.20469e-07
7.9319e-05
4.22705e-07
7.93931e-05
-7.41271e-08
8.01251e-05
-7.32018e-07
8.16764e-05
-1.55133e-06
8.37203e-05
-2.04397e-06
8.60098e-05
-2.28953e-06
8.87205e-05
-2.71071e-06
9.18325e-05
-3.11207e-06
9.44569e-05
-2.62446e-06
9.56417e-05
-1.18483e-06
9.55159e-05
1.25758e-07
9.38931e-05
1.62283e-06
9.0386e-05
3.50703e-06
8.41543e-05
6.23168e-06
7.63926e-05
7.76166e-06
6.96706e-05
6.72188e-06
6.50126e-05
4.65802e-06
6.21259e-05
2.88669e-06
6.00909e-05
2.03495e-06
5.81047e-05
1.98615e-06
5.60596e-05
2.04499e-06
5.42067e-05
1.85289e-06
5.2392e-05
1.81467e-06
5.07363e-05
1.65566e-06
4.98209e-05
9.15337e-07
4.96439e-05
1.76978e-07
4.97032e-05
-5.93718e-08
4.96479e-05
5.52957e-08
4.88043e-05
8.43529e-07
4.74078e-05
1.39646e-06
4.6378e-05
1.02976e-06
4.62699e-05
1.08083e-07
4.65683e-05
-2.9849e-07
4.68298e-05
-2.61537e-07
4.66474e-05
1.82415e-07
4.5823e-05
8.2439e-07
4.50476e-05
7.75329e-07
4.48413e-05
2.06313e-07
4.51715e-05
-3.30218e-07
4.56648e-05
-4.93355e-07
4.6185e-05
-5.20191e-07
4.67508e-05
-5.65783e-07
4.73274e-05
-5.76599e-07
4.77136e-05
-3.86218e-07
4.75981e-05
1.15537e-07
4.69719e-05
6.26173e-07
4.60395e-05
9.32426e-07
4.529e-05
7.49521e-07
4.499e-05
2.99947e-07
4.476e-05
2.30034e-07
4.43006e-05
4.59419e-07
4.38125e-05
4.88069e-07
4.37851e-05
2.7467e-08
4.44772e-05
-6.92165e-07
4.5618e-05
-1.14074e-06
4.67878e-05
-1.16986e-06
4.77357e-05
-9.47825e-07
4.84069e-05
-6.71275e-07
4.89315e-05
-5.24532e-07
4.94733e-05
-5.41793e-07
5.02137e-05
-7.40487e-07
5.14485e-05
-1.23474e-06
5.28943e-05
-1.44579e-06
5.40262e-05
-1.13196e-06
5.42297e-05
-2.03509e-07
5.23426e-05
1.88704e-06
4.61261e-05
6.21652e-06
3.8606e-05
7.52009e-06
3.41493e-05
4.45668e-06
3.03078e-05
3.84156e-06
2.88375e-05
1.47029e-06
2.71136e-05
1.72381e-06
2.65963e-05
5.17302e-07
2.69514e-05
-3.55055e-07
2.65746e-05
3.76743e-07
2.62883e-05
2.8631e-07
2.62993e-05
-1.09949e-08
2.64939e-05
-1.9459e-07
2.66047e-05
-1.10843e-07
2.6834e-05
-2.2932e-07
2.71556e-05
-3.2157e-07
2.74346e-05
-2.78947e-07
2.77447e-05
-3.10146e-07
2.80025e-05
-2.57781e-07
2.83344e-05
-3.31965e-07
2.83841e-05
-4.96302e-08
2.82834e-05
1.00704e-07
2.68486e-05
1.43471e-06
2.43975e-05
2.45114e-06
2.26681e-05
1.72931e-06
2.19525e-05
7.15604e-07
2.21139e-05
-1.61392e-07
2.21411e-05
-2.72985e-08
2.25929e-05
-4.51793e-07
2.32024e-05
-6.09587e-07
2.35478e-05
-3.45464e-07
2.37387e-05
-1.90949e-07
2.38577e-05
-1.19034e-07
2.40559e-05
-1.98312e-07
2.41508e-05
-9.49439e-08
2.42597e-05
-1.08985e-07
2.42843e-05
-2.46557e-08
2.42251e-05
5.9173e-08
2.38781e-05
3.46901e-07
2.33549e-05
5.23097e-07
2.19624e-05
1.39244e-06
2.03003e-05
1.66207e-06
1.93406e-05
9.59628e-07
1.91688e-05
1.71767e-07
1.94494e-05
-2.80741e-07
1.95105e-05
-6.11249e-08
1.984e-05
-3.29517e-07
2.02302e-05
-3.90273e-07
2.03608e-05
-1.30586e-07
2.04554e-05
-9.46232e-08
2.05388e-05
-8.34824e-08
2.05834e-05
-4.45677e-08
2.06371e-05
-5.37376e-08
2.06748e-05
-3.77584e-08
2.06597e-05
1.51099e-08
2.0613e-05
4.6636e-08
2.05441e-05
6.89425e-08
2.04506e-05
9.34496e-08
2.03317e-05
1.18947e-07
2.01875e-05
1.44109e-07
2.00247e-05
1.62771e-07
1.98385e-05
1.86247e-07
1.96313e-05
2.07137e-07
1.93959e-05
2.35451e-07
1.91298e-05
2.66132e-07
1.88364e-05
2.93388e-07
1.85163e-05
3.20096e-07
1.81753e-05
3.40972e-07
1.78142e-05
3.61139e-07
1.74252e-05
3.88982e-07
1.70038e-05
4.21499e-07
1.65459e-05
4.57926e-07
1.60576e-05
4.88249e-07
1.55545e-05
5.03151e-07
1.50304e-05
5.2416e-07
1.44752e-05
5.55232e-07
1.38848e-05
5.90447e-07
1.32637e-05
6.21062e-07
1.26172e-05
6.46615e-07
1.19474e-05
6.69765e-07
1.12551e-05
6.92358e-07
1.05376e-05
7.17472e-07
9.79819e-06
7.39434e-07
9.03815e-06
7.60045e-07
8.25141e-06
7.86734e-07
7.44182e-06
8.09589e-07
6.62611e-06
8.15698e-07
5.80536e-06
8.20735e-07
4.97037e-06
8.34966e-07
4.12211e-06
8.48242e-07
3.28106e-06
8.41029e-07
2.45903e-06
8.22007e-07
1.64721e-06
8.118e-07
8.43419e-07
8.03778e-07
5.70467e-08
7.86357e-07
-6.98621e-07
7.55655e-07
-1.41411e-06
7.15483e-07
-2.09822e-06
6.84106e-07
-2.7575e-06
6.59278e-07
-3.39813e-06
6.40629e-07
-4.02279e-06
6.24657e-07
-4.62385e-06
6.01066e-07
-5.19815e-06
5.74306e-07
-5.74798e-06
5.49839e-07
-6.2714e-06
5.23429e-07
-6.76805e-06
4.96659e-07
-7.24517e-06
4.77132e-07
-7.70519e-06
4.60025e-07
-8.14996e-06
4.44774e-07
-8.57923e-06
4.29272e-07
-8.98729e-06
4.08066e-07
-9.37258e-06
3.85292e-07
-9.73743e-06
3.64851e-07
-1.00853e-05
3.4782e-07
-1.04198e-05
3.34579e-07
-1.07395e-05
3.19693e-07
-1.10433e-05
3.03788e-07
-1.13299e-05
2.8654e-07
-1.15979e-05
2.68068e-07
-1.18486e-05
2.50627e-07
-1.20841e-05
2.3553e-07
-1.23085e-05
2.24385e-07
-1.25233e-05
2.14825e-07
-1.27259e-05
2.02565e-07
-1.29141e-05
1.88267e-07
-1.30849e-05
1.70794e-07
-1.32411e-05
1.56242e-07
-1.33869e-05
1.45785e-07
-1.35233e-05
1.36409e-07
-1.36498e-05
1.26423e-07
-1.37654e-05
1.15545e-07
-1.38678e-05
1.02397e-07
-1.39586e-05
9.08584e-08
-1.40415e-05
8.28235e-08
-1.41188e-05
7.73194e-08
-1.41883e-05
6.94539e-08
-1.42435e-05
5.52377e-08
-1.42863e-05
4.28088e-08
-1.4321e-05
3.46809e-08
-1.43495e-05
2.85005e-08
-1.43744e-05
2.48373e-08
-1.43946e-05
2.02446e-08
-1.4407e-05
1.23741e-08
-1.4409e-05
1.99884e-09
-1.44009e-05
-8.18404e-09
-1.43861e-05
-1.47821e-08
-1.43665e-05
-1.9555e-08
-1.43447e-05
-2.18563e-08
-1.43201e-05
-2.45826e-08
-1.42903e-05
-2.97974e-08
-1.4254e-05
-3.6323e-08
-1.42106e-05
-4.33423e-08
-1.41619e-05
-4.86959e-08
-1.41098e-05
-5.21387e-08
-1.40572e-05
-5.25464e-08
-1.40047e-05
-5.25056e-08
-1.39488e-05
-5.59661e-08
-1.38877e-05
-6.10836e-08
-1.38228e-05
-6.4938e-08
-1.37546e-05
-6.81737e-08
-1.36849e-05
-6.97552e-08
-1.36148e-05
-7.00602e-08
-1.35442e-05
-7.05804e-08
-1.34731e-05
-7.11662e-08
-1.34022e-05
-7.0914e-08
-1.33311e-05
-7.10747e-08
-1.32591e-05
-7.20201e-08
-1.31846e-05
-7.44284e-08
-1.31077e-05
-7.69368e-08
-1.30305e-05
-7.71729e-08
-1.29545e-05
-7.60184e-08
-1.28818e-05
-7.27296e-08
-1.28106e-05
-7.11074e-08
-1.27357e-05
-7.49673e-08
-1.26572e-05
-7.84869e-08
-1.25793e-05
-7.78425e-08
-1.25027e-05
-7.66576e-08
-1.24277e-05
-7.49099e-08
-1.23534e-05
-7.43684e-08
-1.22772e-05
-7.61765e-08
-1.21991e-05
-7.80658e-08
-1.21202e-05
-7.89321e-08
-1.20405e-05
-7.96467e-08
-1.19609e-05
-7.95838e-08
-1.18811e-05
-7.98032e-08
-1.17994e-05
-8.17624e-08
-1.1715e-05
-8.43377e-08
-1.16276e-05
-8.74611e-08
-1.15381e-05
-8.9398e-08
-1.14487e-05
-8.94727e-08
-1.13595e-05
-8.91125e-08
-1.12688e-05
-9.07053e-08
-1.1173e-05
-9.58462e-08
-1.10714e-05
-1.01539e-07
-1.09668e-05
-1.04594e-07
-1.08596e-05
-1.07241e-07
-1.07494e-05
-1.10176e-07
-1.06371e-05
-1.12271e-07
-1.05223e-05
-1.14789e-07
-1.04031e-05
-1.19285e-07
-1.02781e-05
-1.24925e-07
-1.0148e-05
-1.30157e-07
-1.00128e-05
-1.35175e-07
-9.87253e-06
-1.40308e-07
-9.72693e-06
-1.45621e-07
-9.57649e-06
-1.50451e-07
-9.4228e-06
-1.53706e-07
-9.26467e-06
-1.58145e-07
-9.09858e-06
-1.66108e-07
-8.92465e-06
-1.73939e-07
-8.74487e-06
-1.79793e-07
-8.55903e-06
-1.85851e-07
-8.36674e-06
-1.92297e-07
-8.16816e-06
-1.98582e-07
-7.96382e-06
-2.0435e-07
-7.75237e-06
-2.11455e-07
-7.53286e-06
-2.19519e-07
-7.30541e-06
-2.27458e-07
-7.07046e-06
-2.34964e-07
-6.8282e-06
-2.42271e-07
-6.57943e-06
-2.48783e-07
-6.32417e-06
-2.55261e-07
-6.06157e-06
-2.62612e-07
-5.79142e-06
-2.70163e-07
-5.51369e-06
-2.77738e-07
-5.22862e-06
-2.85073e-07
-4.93807e-06
-2.90548e-07
-4.6424e-06
-2.95668e-07
-4.34066e-06
-3.01735e-07
-4.03346e-06
-3.07183e-07
-3.72171e-06
-3.11738e-07
-3.40673e-06
-3.1497e-07
-3.08948e-06
-3.17233e-07
-2.77045e-06
-3.19001e-07
-2.45033e-06
-3.20105e-07
-2.13053e-06
-3.19765e-07
-1.81345e-06
-3.17061e-07
-1.50066e-06
-3.12759e-07
-1.19224e-06
-3.08389e-07
-8.88666e-07
-3.0356e-07
-5.91531e-07
-2.97125e-07
-3.02281e-07
-2.8925e-07
-2.18746e-08
-2.80416e-07
2.49355e-07
-2.71246e-07
5.11478e-07
-2.62143e-07
7.64699e-07
-2.5324e-07
1.00914e-06
-2.44453e-07
1.24478e-06
-2.35655e-07
1.47215e-06
-2.27389e-07
1.69184e-06
-2.19702e-07
1.90392e-06
-2.12085e-07
2.10826e-06
-2.04359e-07
2.30501e-06
-1.96773e-07
2.49477e-06
-1.89781e-07
2.67794e-06
-1.83188e-07
2.85469e-06
-1.76768e-07
3.02483e-06
-1.70146e-07
3.18805e-06
-1.63222e-07
3.3448e-06
-1.56746e-07
3.49575e-06
-1.50945e-07
3.64132e-06
-1.4556e-07
3.78147e-06
-1.40133e-07
3.91614e-06
-1.34665e-07
4.0454e-06
-1.29245e-07
4.16941e-06
-1.2399e-07
4.2884e-06
-1.18975e-07
4.40265e-06
-1.14224e-07
4.51227e-06
-1.09607e-07
4.61726e-06
-1.04958e-07
4.71768e-06
-1.00408e-07
4.81375e-06
-9.60485e-08
4.90568e-06
-9.19123e-08
4.99361e-06
-8.79258e-08
5.0776e-06
-8.39801e-08
5.15755e-06
-7.99461e-08
5.23349e-06
-7.59349e-08
5.30571e-06
-7.22089e-08
5.37441e-06
-6.86926e-08
5.43953e-06
-6.51064e-08
5.50105e-06
-6.15073e-08
5.55906e-06
-5.79937e-08
5.61359e-06
-5.45154e-08
5.6647e-06
-5.10988e-08
5.7125e-06
-4.77897e-08
5.75703e-06
-4.4516e-08
5.79825e-06
-4.12209e-08
5.83621e-06
-3.79592e-08
5.87096e-06
-3.47499e-08
5.90241e-06
-3.14608e-08
5.93049e-06
-2.8087e-08
5.95526e-06
-2.47649e-08
5.97689e-06
-2.16392e-08
5.99557e-06
-1.86806e-08
6.01115e-06
-1.55825e-08
6.02347e-06
-1.23321e-08
6.03246e-06
-9.02168e-09
6.03837e-06
-5.94566e-09
6.04139e-06
-3.0763e-09
6.0415e-06
-1.55382e-10
6.03855e-06
2.89853e-09
6.03251e-06
6.00006e-09
6.02349e-06
8.97972e-09
6.01144e-06
1.20281e-08
5.99616e-06
1.52691e-08
5.97787e-06
1.82903e-08
5.95698e-06
2.08892e-08
5.93352e-06
2.34662e-08
5.90734e-06
2.61882e-08
5.87833e-06
2.902e-08
5.8466e-06
3.17344e-08
5.81203e-06
3.45738e-08
5.77483e-06
3.71935e-08
5.73522e-06
3.96054e-08
5.69321e-06
4.19934e-08
5.64849e-06
4.4683e-08
5.60109e-06
4.73664e-08
5.55132e-06
4.97228e-08
5.49943e-06
5.18268e-08
5.44518e-06
5.41889e-08
5.38875e-06
5.63581e-08
5.33e-06
5.86729e-08
5.26877e-06
6.11576e-08
5.20504e-06
6.36591e-08
5.13916e-06
6.58255e-08
5.07149e-06
6.7624e-08
5.00227e-06
6.91841e-08
4.93116e-06
7.10967e-08
4.85822e-06
7.29324e-08
4.78325e-06
7.49689e-08
4.70641e-06
7.68537e-08
4.62835e-06
7.80755e-08
4.54961e-06
7.87665e-08
4.46975e-06
7.9888e-08
4.38896e-06
8.08247e-08
4.30664e-06
8.23641e-08
4.22342e-06
8.32668e-08
4.13896e-06
8.45076e-08
4.05468e-06
8.43365e-08
3.96976e-06
8.49556e-08
3.8831e-06
8.66954e-08
3.79643e-06
8.66891e-08
3.70706e-06
8.93737e-08
3.61689e-06
9.01666e-08
3.52874e-06
8.81419e-08
3.44053e-06
8.81928e-08
3.35056e-06
8.99577e-08
3.26275e-06
8.78036e-08
3.16843e-06
9.43102e-08
3.07439e-06
9.40361e-08
2.9827e-06
9.16915e-08
2.89561e-06
8.70989e-08
2.80698e-06
8.86488e-08
2.72431e-06
8.26982e-08
2.66248e-06
6.18669e-08
2.6242e-06
3.83259e-08
2.57372e-06
5.05272e-08
2.49652e-06
7.72431e-08
2.40935e-06
8.72133e-08
2.30814e-06
1.01235e-07
2.20575e-06
1.02408e-07
2.10471e-06
1.0104e-07
2.00511e-06
9.95776e-08
1.90295e-06
1.02132e-07
1.8016e-06
1.0131e-07
1.70057e-06
1.00984e-07
1.56884e-06
1.31692e-07
1.43617e-06
1.32625e-07
1.31727e-06
1.18869e-07
1.2011e-06
1.1614e-07
1.1352e-06
6.58828e-08
1.10196e-06
3.32213e-08
1.18715e-06
-8.51987e-08
1.35129e-06
-1.64153e-07
1.45973e-06
-1.08455e-07
1.52265e-06
-6.29298e-08
1.52226e-06
3.74029e-10
1.50436e-06
1.78916e-08
1.46139e-06
4.29658e-08
1.41262e-06
4.87653e-08
1.35166e-06
6.09562e-08
1.28088e-06
7.07803e-08
1.21917e-06
6.17093e-08
1.14383e-06
7.53332e-08
1.07671e-06
6.71119e-08
1.01335e-06
6.33456e-08
9.16111e-07
9.72312e-08
8.28708e-07
8.73949e-08
7.9787e-07
3.08292e-08
6.48159e-07
1.49704e-07
6.23883e-07
2.42691e-08
5.23615e-07
1.00261e-07
5.84218e-07
-6.06127e-08
4.56149e-07
1.28059e-07
2.97234e-07
1.58902e-07
5.43808e-07
-2.46593e-07
7.34019e-07
-1.90231e-07
8.88195e-07
-1.54199e-07
9.43423e-07
-5.52512e-08
9.60689e-07
-1.72905e-08
9.53458e-07
7.20776e-09
9.30974e-07
2.24619e-08
8.93669e-07
3.7283e-08
8.44745e-07
4.89022e-08
7.92534e-07
5.21887e-08
7.40228e-07
5.22846e-08
6.83838e-07
5.63684e-08
6.2581e-07
5.8006e-08
5.67175e-07
5.86132e-08
5.06443e-07
6.071e-08
4.49464e-07
5.69576e-08
3.9472e-07
5.47224e-08
3.39519e-07
5.51793e-08
2.83382e-07
5.61154e-08
2.32883e-07
5.0479e-08
1.87554e-07
4.53092e-08
1.41789e-07
4.57463e-08
9.51836e-08
4.65878e-08
4.96537e-08
4.55142e-08
8.45819e-09
4.11812e-08
-2.81961e-08
3.66415e-08
-6.24573e-08
3.42496e-08
-9.34731e-08
3.10055e-08
-1.22472e-07
2.89897e-08
-1.4822e-07
2.57398e-08
-1.74079e-07
2.58526e-08
-1.99248e-07
2.51633e-08
-2.18773e-07
1.95206e-08
-2.31548e-07
1.27709e-08
-2.38595e-07
7.04388e-09
-2.4191e-07
3.31292e-09
-2.43122e-07
1.21046e-09
-2.4263e-07
-4.93363e-10
-2.4023e-07
-2.40048e-09
-2.35484e-07
-4.7479e-09
-2.27975e-07
-7.51026e-09
-2.17106e-07
-1.08706e-08
-2.05434e-07
-1.16743e-08
-1.90084e-07
-1.53525e-08
-1.70206e-07
-1.98809e-08
-1.50041e-07
-2.01692e-08
-1.30997e-07
-1.90478e-08
-1.11833e-07
-1.91679e-08
-9.11839e-08
-2.06542e-08
-6.81592e-08
-2.30295e-08
-4.20562e-08
-2.61079e-08
-1.30353e-08
-2.90258e-08
1.84224e-08
-3.14625e-08
5.19384e-08
-3.35207e-08
8.70901e-08
-3.51564e-08
1.23553e-07
-3.64679e-08
1.61189e-07
-3.76407e-08
2.00269e-07
-3.90841e-08
2.41138e-07
-4.08742e-08
2.8383e-07
-4.26965e-08
3.27997e-07
-4.41724e-08
3.72849e-07
-4.48568e-08
4.1799e-07
-4.51456e-08
4.63862e-07
-4.58776e-08
5.1123e-07
-4.73734e-08
5.60445e-07
-4.92205e-08
6.10239e-07
-4.97986e-08
6.60281e-07
-5.00473e-08
7.09639e-07
-4.93635e-08
7.61399e-07
-5.17644e-08
8.12554e-07
-5.11596e-08
8.63393e-07
-5.08437e-08
9.1497e-07
-5.1582e-08
9.73137e-07
-5.81726e-08
1.03596e-06
-6.28283e-08
1.099e-06
-6.30454e-08
1.16278e-06
-6.37874e-08
1.2245e-06
-6.17334e-08
1.28719e-06
-6.26957e-08
-7.35362e-08
4.81385e-05
4.31639e-07
4.77782e-05
7.13342e-07
4.74429e-05
9.67292e-07
4.74675e-05
6.22682e-07
4.975e-05
-2.34365e-06
5.82746e-05
-1.12788e-05
6.88334e-05
-1.86178e-05
7.87309e-05
-2.05075e-05
8.73859e-05
-1.70087e-05
9.17428e-05
-7.57989e-06
9.10407e-05
4.81523e-07
8.77169e-05
3.74648e-06
8.40117e-05
3.631e-06
8.11067e-05
2.17297e-06
7.91356e-05
4.19639e-07
7.85248e-05
-1.43322e-06
7.95371e-05
-3.30186e-06
8.12882e-05
-4.46193e-06
8.28361e-05
-4.66002e-06
8.38883e-05
-3.67676e-06
8.40887e-05
-1.38528e-06
8.28848e-05
1.32957e-06
7.97976e-05
4.70995e-06
7.53405e-05
7.96407e-06
7.12395e-05
1.03326e-05
6.80758e-05
1.09253e-05
6.51078e-05
9.68978e-06
6.27394e-05
7.0263e-06
6.07671e-05
4.85895e-06
5.89449e-05
3.85713e-06
5.71315e-05
3.79944e-06
5.52509e-05
3.92547e-06
5.34805e-05
3.6233e-06
5.1931e-05
3.36408e-06
5.07323e-05
2.85429e-06
4.99777e-05
1.66985e-06
4.96098e-05
5.44769e-07
4.93787e-05
1.71648e-07
4.90861e-05
3.47798e-07
4.85108e-05
1.41875e-06
4.79564e-05
1.95087e-06
4.73007e-05
1.68532e-06
4.69283e-05
4.80453e-07
4.68972e-05
-2.67456e-07
4.69009e-05
-2.65231e-07
4.66968e-05
3.86412e-07
4.62749e-05
1.24623e-06
4.5766e-05
1.28426e-06
4.52845e-05
6.87786e-07
4.52248e-05
-2.7059e-07
4.54897e-05
-7.58272e-07
4.58877e-05
-9.18191e-07
4.62657e-05
-9.43783e-07
4.65377e-05
-8.48638e-07
4.64973e-05
-3.45817e-07
4.61633e-05
4.49613e-07
4.59086e-05
8.80884e-07
4.59751e-05
8.65928e-07
4.60377e-05
6.86938e-07
4.58414e-05
4.96224e-07
4.54282e-05
6.43263e-07
4.48115e-05
1.07611e-06
4.42365e-05
1.06304e-06
4.39393e-05
3.24702e-07
4.42564e-05
-1.0093e-06
4.46857e-05
-1.57001e-06
4.50886e-05
-1.57275e-06
4.53478e-05
-1.20705e-06
4.52466e-05
-5.70013e-07
4.49807e-05
-2.58688e-07
4.47263e-05
-2.8733e-07
4.47525e-05
-7.66715e-07
4.53594e-05
-1.84168e-06
4.64519e-05
-2.53835e-06
4.78476e-05
-2.52759e-06
4.95069e-05
-1.86287e-06
5.19814e-05
-5.8744e-07
5.58787e-05
2.31917e-06
5.64727e-05
6.92606e-06
5.34254e-05
7.50397e-06
4.70865e-05
1.01804e-05
3.92962e-05
9.26063e-06
3.44442e-05
6.57575e-06
3.01048e-05
4.85668e-06
2.80091e-05
1.74065e-06
2.64298e-05
1.95608e-06
2.53212e-05
1.39487e-06
2.58046e-05
-4.94461e-07
2.70003e-05
-1.39025e-06
2.72079e-05
-3.18444e-07
2.7479e-05
-5.004e-07
2.76956e-05
-5.38169e-07
2.77232e-05
-3.0657e-07
2.77705e-05
-3.57458e-07
2.78671e-05
-3.54408e-07
2.77812e-05
-2.46069e-07
2.78792e-05
-1.47643e-07
2.80086e-05
-2.87726e-08
2.89347e-05
5.08612e-07
2.97886e-05
1.59722e-06
3.01e-05
1.41785e-06
2.89571e-05
1.85841e-06
2.64077e-05
2.38798e-06
2.4653e-05
1.72729e-06
2.36066e-05
5.94553e-07
2.31877e-05
-1.90784e-07
2.30468e-05
-2.04652e-07
2.30069e-05
-1.51185e-07
2.34372e-05
-5.4947e-07
2.4149e-05
-9.10162e-07
2.45395e-05
-4.85587e-07
2.46912e-05
-2.60814e-07
2.47473e-05
-8.08668e-08
2.47351e-05
7.13222e-08
2.48234e-05
2.58476e-07
2.48892e-05
4.57156e-07
2.52321e-05
1.04945e-06
2.53003e-05
1.59373e-06
2.48652e-05
1.39469e-06
2.3449e-05
1.58783e-06
2.16607e-05
1.50754e-06
2.06106e-05
9.88912e-07
2.01189e-05
1.621e-07
2.00491e-05
-3.20521e-07
1.9997e-05
-7.85649e-08
2.02845e-05
-3.82158e-07
2.06463e-05
-4.45299e-07
2.07435e-05
-1.41776e-07
2.07411e-05
-5.14473e-08
2.07027e-05
6.45261e-10
2.06495e-05
6.82854e-08
2.06204e-05
7.57448e-08
2.05841e-05
1.05203e-07
2.04984e-05
1.79134e-07
2.03754e-05
2.4189e-07
2.02138e-05
3.0571e-07
2.00391e-05
3.37441e-07
1.9845e-05
3.80287e-07
1.96361e-05
4.16081e-07
1.94026e-05
4.6889e-07
1.91396e-05
5.29158e-07
1.88485e-05
5.84488e-07
1.8531e-05
6.37642e-07
1.81894e-05
6.82664e-07
1.78237e-05
7.26895e-07
1.74265e-05
7.86219e-07
1.69961e-05
8.51861e-07
1.6537e-05
9.1708e-07
1.60566e-05
9.68718e-07
1.55533e-05
1.00658e-06
1.50201e-05
1.05737e-06
1.44526e-05
1.12274e-06
1.38546e-05
1.18854e-06
1.32367e-05
1.23905e-06
1.25984e-05
1.2849e-06
1.19305e-05
1.33768e-06
1.12308e-05
1.39212e-06
1.05057e-05
1.44257e-06
9.76187e-06
1.48326e-06
8.9987e-06
1.52321e-06
8.21573e-06
1.56969e-06
7.41717e-06
1.60813e-06
6.60749e-06
1.62536e-06
5.78866e-06
1.63954e-06
4.95927e-06
1.66432e-06
4.12483e-06
1.68265e-06
3.2951e-06
1.67074e-06
2.47931e-06
1.63777e-06
1.67482e-06
1.61626e-06
8.80251e-07
1.59833e-06
1.05148e-07
1.56144e-06
-6.46582e-07
1.50737e-06
-1.37101e-06
1.4399e-06
-2.06565e-06
1.37874e-06
-2.73344e-06
1.32707e-06
-3.37687e-06
1.28406e-06
-4.00021e-06
1.248e-06
-4.60172e-06
1.20258e-06
-5.17983e-06
1.15243e-06
-5.7348e-06
1.10481e-06
-6.26387e-06
1.0525e-06
-6.76663e-06
9.99429e-07
-7.24753e-06
9.58032e-07
-7.7086e-06
9.211e-07
-8.15258e-06
8.8876e-07
-8.58177e-06
8.58457e-07
-8.99275e-06
8.19049e-07
-9.38397e-06
7.76498e-07
-9.75389e-06
7.34765e-07
-1.01028e-05
6.96735e-07
-1.04341e-05
6.65868e-07
-1.07502e-05
6.35713e-07
-1.10526e-05
6.06167e-07
-1.13409e-05
5.74882e-07
-1.16128e-05
5.39898e-07
-1.18664e-05
5.04283e-07
-1.21041e-05
4.73194e-07
-1.23288e-05
4.49144e-07
-1.25413e-05
4.27286e-07
-1.27411e-05
4.02459e-07
-1.29271e-05
3.74275e-07
-1.30984e-05
3.42049e-07
-1.32569e-05
3.14796e-07
-1.34049e-05
2.93723e-07
-1.35419e-05
2.73448e-07
-1.3667e-05
2.51506e-07
-1.37798e-05
2.2831e-07
-1.38816e-05
2.04175e-07
-1.39742e-05
1.83436e-07
-1.4059e-05
1.67627e-07
-1.41353e-05
1.53575e-07
-1.4201e-05
1.35199e-07
-1.42552e-05
1.0937e-07
-1.42995e-05
8.71364e-08
-1.4336e-05
7.12038e-08
-1.43654e-05
5.78877e-08
-1.43887e-05
4.80802e-08
-1.44059e-05
3.73924e-08
-1.4416e-05
2.24782e-08
-1.44181e-05
4.11806e-09
-1.44114e-05
-1.49073e-08
-1.43984e-05
-2.78434e-08
-1.438e-05
-3.79439e-08
-1.43566e-05
-4.52102e-08
-1.43288e-05
-5.24222e-08
-1.42968e-05
-6.17909e-08
-1.42602e-05
-7.28403e-08
-1.4218e-05
-8.5566e-08
-1.41708e-05
-9.58586e-08
-1.41199e-05
-1.03045e-07
-1.40666e-05
-1.05907e-07
-1.40117e-05
-1.07353e-07
-1.39543e-05
-1.13414e-07
-1.38925e-05
-1.22907e-07
-1.38263e-05
-1.31119e-07
-1.37577e-05
-1.36822e-07
-1.36879e-05
-1.39602e-07
-1.36181e-05
-1.39887e-07
-1.35489e-05
-1.39749e-07
-1.34794e-05
-1.40691e-07
-1.34084e-05
-1.419e-07
-1.33352e-05
-1.44345e-07
-1.32596e-05
-1.47564e-07
-1.31837e-05
-1.50315e-07
-1.31083e-05
-1.5237e-07
-1.30333e-05
-1.5213e-07
-1.29588e-05
-1.50515e-07
-1.28849e-05
-1.46661e-07
-1.28103e-05
-1.45735e-07
-1.27344e-05
-1.5084e-07
-1.26573e-05
-1.55564e-07
-1.25809e-05
-1.54181e-07
-1.25058e-05
-1.51761e-07
-1.24309e-05
-1.49823e-07
-1.23546e-05
-1.50656e-07
-1.22765e-05
-1.5423e-07
-1.21977e-05
-1.56841e-07
-1.21192e-05
-1.57492e-07
-1.20413e-05
-1.57538e-07
-1.19635e-05
-1.57298e-07
-1.18837e-05
-1.59644e-07
-1.18002e-05
-1.6521e-07
-1.17148e-05
-1.69722e-07
-1.16283e-05
-1.73949e-07
-1.15405e-05
-1.77223e-07
-1.14518e-05
-1.78141e-07
-1.13618e-05
-1.79132e-07
-1.12691e-05
-1.83394e-07
-1.11726e-05
-1.9233e-07
-1.10719e-05
-2.02218e-07
-1.09682e-05
-2.08204e-07
-1.08621e-05
-2.1337e-07
-1.07531e-05
-2.19212e-07
-1.06403e-05
-2.25071e-07
-1.05231e-05
-2.3194e-07
-1.0402e-05
-2.40414e-07
-1.02771e-05
-2.49836e-07
-1.01479e-05
-2.59459e-07
-1.00133e-05
-2.69769e-07
-9.87317e-06
-2.80456e-07
-9.72768e-06
-2.91139e-07
-9.57735e-06
-3.00802e-07
-9.42264e-06
-3.08438e-07
-9.2624e-06
-3.18414e-07
-9.09529e-06
-3.33232e-07
-8.92137e-06
-3.47878e-07
-8.74169e-06
-3.59489e-07
-8.55629e-06
-3.71263e-07
-8.36443e-06
-3.84171e-07
-8.16513e-06
-3.97891e-07
-7.95892e-06
-4.10576e-07
-7.74569e-06
-4.24698e-07
-7.52532e-06
-4.39903e-07
-7.29825e-06
-4.54548e-07
-7.06425e-06
-4.68974e-07
-6.82246e-06
-4.84083e-07
-6.57257e-06
-4.98693e-07
-6.3152e-06
-5.1264e-07
-6.05163e-06
-5.2619e-07
-5.78236e-06
-5.39439e-07
-5.5062e-06
-5.53905e-07
-5.22216e-06
-5.69113e-07
-4.93109e-06
-5.816e-07
-4.63454e-06
-5.92204e-07
-4.33406e-06
-6.02192e-07
-4.02926e-06
-6.11951e-07
-3.71897e-06
-6.21993e-07
-3.40482e-06
-6.29088e-07
-3.08903e-06
-6.32973e-07
-2.77272e-06
-6.3527e-07
-2.45579e-06
-6.36996e-07
-2.13893e-06
-6.36597e-07
-1.82392e-06
-6.32041e-07
-1.51256e-06
-6.24102e-07
-1.20625e-06
-6.14685e-07
-9.051e-07
-6.04708e-07
-6.09682e-07
-5.92548e-07
-3.21151e-07
-5.77791e-07
-4.05165e-08
-5.61063e-07
2.31504e-07
-5.43281e-07
4.9468e-07
-5.25335e-07
7.4916e-07
-5.07737e-07
9.95161e-07
-4.90474e-07
1.23278e-06
-4.733e-07
1.4621e-06
-4.56729e-07
1.68322e-06
-4.40853e-07
1.8963e-06
-4.25194e-07
2.10165e-06
-4.0973e-07
2.29967e-06
-3.94824e-07
2.49067e-06
-3.80794e-07
2.67478e-06
-3.67301e-07
2.85205e-06
-3.54047e-07
3.02265e-06
-3.40739e-07
3.18672e-06
-3.27275e-07
3.34448e-06
-3.14493e-07
3.49613e-06
-3.02574e-07
3.64204e-06
-2.91452e-07
3.78236e-06
-2.80435e-07
3.91724e-06
-2.69526e-07
4.0469e-06
-2.58883e-07
4.17138e-06
-2.48436e-07
4.29069e-06
-2.3825e-07
4.4051e-06
-2.28599e-07
4.51476e-06
-2.19242e-07
4.6197e-06
-2.09864e-07
4.72022e-06
-2.00901e-07
4.81658e-06
-1.92384e-07
4.90878e-06
-1.84108e-07
4.99684e-06
-1.75974e-07
5.08082e-06
-1.6796e-07
5.16082e-06
-1.5995e-07
5.23696e-06
-1.52074e-07
5.30934e-06
-1.44595e-07
5.37808e-06
-1.37422e-07
5.44325e-06
-1.30265e-07
5.50489e-06
-1.23143e-07
5.56298e-06
-1.16068e-07
5.61746e-06
-1.08981e-07
5.66847e-06
-1.02103e-07
5.71624e-06
-9.55449e-08
5.76078e-06
-8.90549e-08
5.80201e-06
-8.24552e-08
5.83992e-06
-7.58736e-08
5.87459e-06
-6.94269e-08
5.90602e-06
-6.28987e-08
5.93422e-06
-5.63075e-08
5.95924e-06
-4.98129e-08
5.98105e-06
-4.34738e-08
5.99964e-06
-3.73101e-08
6.01505e-06
-3.10319e-08
6.02728e-06
-2.46028e-08
6.03626e-06
-1.80555e-08
6.04213e-06
-1.18691e-08
6.04505e-06
-6.04596e-09
6.04499e-06
-1.44971e-10
6.0419e-06
5.94342e-09
6.03563e-06
1.22344e-08
6.02628e-06
1.83038e-08
6.01398e-06
2.43102e-08
5.99887e-06
3.03613e-08
5.9808e-06
3.63611e-08
5.95981e-06
4.188e-08
5.93601e-06
4.72814e-08
5.90947e-06
5.27377e-08
5.88007e-06
5.84315e-08
5.84798e-06
6.3825e-08
5.81318e-06
6.93536e-08
5.77588e-06
7.44743e-08
5.73601e-06
7.94313e-08
5.6935e-06
8.44367e-08
5.64854e-06
8.95669e-08
5.60127e-06
9.45489e-08
5.55165e-06
9.92433e-08
5.49941e-06
1.03965e-07
5.44472e-06
1.08776e-07
5.38776e-06
1.1323e-07
5.32877e-06
1.17578e-07
5.26754e-06
1.22313e-07
5.20432e-06
1.26815e-07
5.13837e-06
1.31741e-07
5.07057e-06
1.35397e-07
5.00076e-06
1.38984e-07
4.9293e-06
1.42553e-07
4.85598e-06
1.46271e-07
4.78145e-06
1.49533e-07
4.7047e-06
1.53651e-07
4.62672e-06
1.56107e-07
4.54703e-06
1.58519e-07
4.46654e-06
1.60443e-07
4.38613e-06
1.61302e-07
4.30461e-06
1.63937e-07
4.22335e-06
1.64579e-07
4.13941e-06
1.68491e-07
4.05515e-06
1.68636e-07
3.96766e-06
1.7246e-07
3.87941e-06
1.74963e-07
3.7941e-06
1.71997e-07
3.70949e-06
1.73979e-07
3.62239e-06
1.77248e-07
3.53491e-06
1.75612e-07
3.4373e-06
1.85791e-07
3.33798e-06
1.89264e-07
3.24983e-06
1.75955e-07
3.16741e-06
1.76728e-07
3.08396e-06
1.77495e-07
3.00822e-06
1.67447e-07
2.96221e-06
1.33141e-07
2.93144e-06
1.19466e-07
2.88391e-06
1.30286e-07
2.80623e-06
1.39609e-07
2.7064e-06
1.38227e-07
2.59876e-06
1.58235e-07
2.49739e-06
1.78671e-07
2.40118e-06
1.83463e-07
2.30719e-06
1.95239e-07
2.21835e-06
1.91247e-07
2.12956e-06
1.8981e-07
2.03119e-06
1.97915e-07
1.90128e-06
2.31992e-07
1.76333e-06
2.39204e-07
1.65155e-06
2.12718e-07
1.56565e-06
2.17545e-07
1.54049e-06
1.57748e-07
1.54178e-06
1.17545e-07
1.64757e-06
1.03229e-08
1.80736e-06
-9.39275e-08
1.90981e-06
-6.9252e-08
1.91697e-06
-9.23823e-08
1.83497e-06
-8.2169e-08
1.75897e-06
-3.24711e-08
1.69192e-06
4.10163e-09
1.62533e-06
6.69538e-08
1.55912e-06
8.40842e-08
1.49624e-06
1.05834e-07
1.43317e-06
1.11823e-07
1.37083e-06
1.23293e-07
1.31165e-06
1.29942e-07
1.25372e-06
1.19632e-07
1.16051e-06
1.68528e-07
1.0653e-06
1.62308e-07
1.02225e-06
1.06383e-07
9.09442e-07
2.10028e-07
8.89663e-07
1.07166e-07
7.47049e-07
1.73434e-07
8.9588e-07
8.63444e-10
8.8558e-07
3.45589e-08
8.66369e-07
1.19457e-07
1.09878e-06
-2.9304e-07
1.20027e-06
2.65454e-08
1.33224e-06
2.69022e-08
1.24943e-06
-1.63815e-07
1.21224e-06
-1.53073e-07
1.17436e-06
-1.16364e-07
1.14764e-06
-2.85665e-08
1.10536e-06
2.49563e-08
1.05904e-06
5.34891e-08
1.00911e-06
7.23554e-08
9.55064e-07
9.12962e-08
8.98816e-07
1.05115e-07
8.41417e-07
1.09552e-07
7.83475e-07
1.10191e-07
7.23294e-07
1.16513e-07
6.62024e-07
1.19241e-07
6.01237e-07
1.19365e-07
5.41476e-07
1.20436e-07
4.83627e-07
1.14772e-07
4.27491e-07
1.10823e-07
3.73168e-07
1.09468e-07
3.20966e-07
1.08284e-07
2.71693e-07
9.972e-08
2.24643e-07
9.23294e-08
1.79518e-07
9.08433e-08
1.36121e-07
8.99593e-08
9.52034e-08
8.64084e-08
5.67622e-08
7.96019e-08
2.07721e-08
7.26132e-08
-1.22041e-08
6.72098e-08
-4.16403e-08
6.04275e-08
-6.88482e-08
5.61854e-08
-9.50034e-08
5.18847e-08
-1.187e-07
4.95404e-08
-1.38624e-07
4.50803e-08
-1.55267e-07
3.61587e-08
-1.68296e-07
2.57959e-08
-1.78254e-07
1.69989e-08
-1.85426e-07
1.04831e-08
-1.89254e-07
5.03805e-09
-1.9006e-07
3.10545e-10
-1.88033e-07
-4.42852e-09
-1.83199e-07
-9.58345e-09
-1.75429e-07
-1.52832e-08
-1.65744e-07
-2.0559e-08
-1.54286e-07
-2.31363e-08
-1.40298e-07
-2.93455e-08
-1.24632e-07
-3.55536e-08
-1.06995e-07
-3.78135e-08
-8.72461e-08
-3.88038e-08
-6.52816e-08
-4.11406e-08
-4.13172e-08
-4.46271e-08
-1.53624e-08
-4.8993e-08
1.22481e-08
-5.37272e-08
4.17064e-08
-5.8493e-08
7.32408e-08
-6.30058e-08
1.06806e-07
-6.70947e-08
1.42183e-07
-7.05427e-08
1.79065e-07
-7.33587e-08
2.17365e-07
-7.59496e-08
2.57056e-07
-7.87844e-08
2.98247e-07
-8.20752e-08
3.41034e-07
-8.54928e-08
3.84819e-07
-8.79679e-08
4.29248e-07
-8.92961e-08
4.74607e-07
-9.05148e-08
5.21442e-07
-9.27229e-08
5.69726e-07
-9.56677e-08
6.18924e-07
-9.84285e-08
6.6828e-07
-9.91643e-08
7.1848e-07
-1.00258e-07
7.70222e-07
-1.01116e-07
8.23154e-07
-1.04707e-07
8.76403e-07
-1.04419e-07
9.29348e-07
-1.03799e-07
9.8364e-07
-1.05886e-07
1.03912e-06
-1.13663e-07
1.09515e-06
-1.18878e-07
1.15122e-06
-1.19126e-07
1.20533e-06
-1.17916e-07
1.26042e-06
-1.16841e-07
1.31414e-06
-1.16424e-07
-1.20127e-07
4.82683e-05
5.3716e-07
4.83448e-05
6.36732e-07
4.87311e-05
5.80858e-07
5.03002e-05
-9.46503e-07
5.76374e-05
-9.68097e-06
6.86723e-05
-2.23138e-05
7.67707e-05
-2.67162e-05
8.26557e-05
-2.63926e-05
8.75717e-05
-2.19248e-05
9.00405e-05
-1.00488e-05
8.89744e-05
1.54759e-06
8.55571e-05
7.16367e-06
8.14504e-05
7.73773e-06
7.70981e-05
6.52514e-06
7.31086e-05
4.40914e-06
6.99679e-05
1.70736e-06
6.74999e-05
-8.33905e-07
6.54206e-05
-2.38271e-06
6.33873e-05
-2.62675e-06
6.12169e-05
-1.50647e-06
5.89581e-05
8.73445e-07
5.6671e-05
3.61665e-06
5.50769e-05
6.30392e-06
5.44676e-05
8.57339e-06
5.4758e-05
1.00421e-05
5.53562e-05
1.0327e-05
5.56734e-05
9.37245e-06
5.57724e-05
6.92726e-06
5.54756e-05
5.15566e-06
5.47777e-05
4.55503e-06
5.39158e-05
4.66126e-06
5.27537e-05
5.0875e-06
5.13806e-05
4.9963e-06
5.02614e-05
4.48315e-06
4.98023e-05
3.31338e-06
4.9473e-05
1.99901e-06
4.90507e-05
9.67049e-07
4.86885e-05
5.33734e-07
4.83352e-05
7.01003e-07
4.81325e-05
1.62136e-06
4.807e-05
2.01329e-06
4.79036e-05
1.85173e-06
4.75348e-05
8.49198e-07
4.72942e-05
-2.69432e-08
4.70796e-05
-5.06321e-08
4.68375e-05
6.28472e-07
4.65285e-05
1.5552e-06
4.61644e-05
1.64834e-06
4.56226e-05
1.22948e-06
4.52272e-05
1.24801e-07
4.51012e-05
-6.32297e-07
4.51102e-05
-9.27151e-07
4.51371e-05
-9.70681e-07
4.50945e-05
-8.06128e-07
4.49065e-05
-1.57762e-07
4.49465e-05
4.09557e-07
4.53238e-05
5.0365e-07
4.59142e-05
2.75545e-07
4.64706e-05
1.30529e-07
4.66003e-05
3.66491e-07
4.61745e-05
1.06911e-06
4.56357e-05
1.61494e-06
4.51301e-05
1.5686e-06
4.46155e-05
8.39289e-07
4.44125e-05
-8.06229e-07
4.44811e-05
-1.63868e-06
4.46363e-05
-1.72791e-06
4.48933e-05
-1.46405e-06
4.50223e-05
-6.99026e-07
4.49664e-05
-2.02749e-07
4.48605e-05
-1.81516e-07
4.46587e-05
-5.64885e-07
4.42234e-05
-1.40643e-06
4.39016e-05
-2.21652e-06
4.3901e-05
-2.52703e-06
4.43758e-05
-2.33763e-06
4.54973e-05
-1.70898e-06
4.82638e-05
-4.47408e-07
5.30853e-05
2.10451e-06
5.73503e-05
3.23898e-06
6.11064e-05
6.42423e-06
5.96016e-05
1.07654e-05
5.49044e-05
1.12729e-05
4.69781e-05
1.2783e-05
3.86986e-05
1.00202e-05
3.43124e-05