/*--------------------------------*- C++ -*----------------------------------*\
| =========                 |                                                 |
| \\      /  F ield         | OpenFOAM: The Open Source CFD Toolbox           |
|  \\    /   O peration     | Version:  v2006                                 |
|   \\  /    A nd           | Website:  www.openfoam.com                      |
|    \\/     M anipulation  |                                                 |
\*---------------------------------------------------------------------------*/
FoamFile
{
    version     2.0;
    format      ascii;
    class       volVectorField;
    location    "7";
    object      U;
}
// * * * * * * * * * * * * * * * * * * * * * * * * * * * * * * * * * * * * * //

dimensions      [0 1 -1 0 0 0 0];


internalField   nonuniform List<vector> 
33000
(
(0.122257 0 0.000460732)
(0.120103 0 0.000574986)
(0.118722 0 0.0015388)
(0.117025 0 0.00175048)
(0.115859 0 7.17751e-05)
(0.117812 0 -0.00317627)
(0.128937 0 -0.0097025)
(0.156162 0 -0.0144992)
(0.182182 0 -0.0106916)
(0.197516 0 -0.00521376)
(0.200093 0 -0.00290102)
(0.199153 0 -0.00291302)
(0.198057 0 -0.004416)
(0.198732 0 -0.00563647)
(0.20119 0 -0.0072069)
(0.206298 0 -0.00671576)
(0.211444 0 -0.00413384)
(0.217645 0 -0.00522622)
(0.225779 0 -0.00837282)
(0.233687 0 -0.00674274)
(0.238547 0 -0.0010549)
(0.239364 0 0.00215654)
(0.237979 0 0.00200494)
(0.232671 0 0.00290603)
(0.22027 0 0.012395)
(0.199506 0 0.0227164)
(0.180912 0 0.0212938)
(0.166957 0 0.0142238)
(0.157991 0 0.00782917)
(0.15258 0 0.00509144)
(0.147951 0 0.00502422)
(0.142538 0 0.00516197)
(0.137783 0 0.00468346)
(0.133354 0 0.00456648)
(0.128644 0 0.00419057)
(0.125053 0 0.00229096)
(0.123919 0 0.000340177)
(0.124136 0 -0.000257738)
(0.124415 0 4.82599e-05)
(0.123942 0 0.00216283)
(0.12022 0 0.0040565)
(0.11652 0 0.00225244)
(0.115475 0 8.14134e-05)
(0.115976 0 -0.000764009)
(0.116825 0 -0.000612366)
(0.117299 0 0.000562256)
(0.115945 0 0.00241419)
(0.113212 0 0.00202348)
(0.112029 0 0.000258922)
(0.112306 0 -0.000783539)
(0.113495 0 -0.000982143)
(0.114801 0 -0.000916924)
(0.116068 0 -0.00107874)
(0.11758 0 -0.00129862)
(0.119004 0 -0.000852321)
(0.11945 0 4.86896e-05)
(0.118635 0 0.00137897)
(0.116218 0 0.00310131)
(0.113986 0 0.00233722)
(0.112559 0 0.000675674)
(0.112182 0 0.000328096)
(0.111644 0 0.000922431)
(0.109877 0 0.0011)
(0.109115 0 -2.58794e-05)
(0.10985 0 -0.00156318)
(0.112328 0 -0.00315224)
(0.115473 0 -0.00325738)
(0.118255 0 -0.0027544)
(0.120147 0 -0.00232957)
(0.121864 0 -0.0022745)
(0.122838 0 -0.00248199)
(0.124513 0 -0.00305193)
(0.126055 0 -0.00428978)
(0.130079 0 -0.00482415)
(0.133557 0 -0.00330471)
(0.134536 0 -5.16718e-05)
(0.139498 0 0.00755786)
(0.132665 0 0.0211699)
(0.0966421 0 0.0196861)
(0.0953417 0 0.00699006)
(0.076747 0 0.00254225)
(0.0742207 0 -0.00570251)
(0.0699739 0 0.00189662)
(0.0656963 0 0.000135907)
(0.0672985 0 0.00177371)
(0.0672809 0 0.00045009)
(0.0657682 0 0.000326495)
(0.0655804 0 -0.00144414)
(0.0659861 0 -0.00208481)
(0.06641 0 -0.000940848)
(0.0666804 0 -0.00110772)
(0.0674392 0 -0.000362058)
(0.0683562 0 -0.000742464)
(0.068797 0 -0.000684189)
(0.0699522 0 -0.00098911)
(0.0699887 0 -0.00161756)
(0.0718192 0 -0.000627658)
(0.0697885 0 -8.48913e-05)
(0.0721869 0 0.00570754)
(0.0620512 0 0.00722072)
(0.0593407 0 0.00429833)
(0.0543713 0 -0.00161714)
(0.0553029 0 -0.00539284)
(0.0552489 0 -0.00261703)
(0.0555357 0 -0.000752764)
(0.0574072 0 0.000941755)
(0.0585625 0 0.000413999)
(0.0592032 0 0.000366993)
(0.0594537 0 -0.000494126)
(0.0598862 0 -0.00103922)
(0.0603471 0 -0.000810689)
(0.0604352 0 -0.000460167)
(0.0608549 0 0.000138092)
(0.0605318 0 0.000404708)
(0.0606672 0 0.00135253)
(0.0585048 0 0.00173662)
(0.0586851 0 0.00483772)
(0.0511603 0 0.00469519)
(0.0498166 0 0.00163513)
(0.0472315 0 -0.00252802)
(0.048535 0 -0.00389022)
(0.0486733 0 -0.00146803)
(0.0489509 0 -8.62819e-05)
(0.0502429 0 0.000590321)
(0.0508526 0 0.000370193)
(0.0509803 0 -0.000267441)
(0.0512852 0 -0.000571896)
(0.0514062 0 -0.000360284)
(0.0515145 0 -0.000125171)
(0.0516702 0 5.42649e-05)
(0.0516954 0 0.000122944)
(0.0516031 0 0.000101165)
(0.0514604 0 9.4506e-05)
(0.0512575 0 0.000164738)
(0.0509944 0 0.000226398)
(0.0506609 0 0.000315876)
(0.0502773 0 0.000350283)
(0.0498426 0 0.000396535)
(0.0493501 0 0.000420972)
(0.0488039 0 0.000479626)
(0.0481733 0 0.00053043)
(0.0474742 0 0.000590369)
(0.0467059 0 0.000631732)
(0.0458744 0 0.000674172)
(0.0450015 0 0.000702747)
(0.0440678 0 0.000761502)
(0.0430569 0 0.000818889)
(0.0419604 0 0.000905306)
(0.0407669 0 0.000962823)
(0.0395226 0 0.000990218)
(0.0382489 0 0.00101914)
(0.0369026 0 0.00108197)
(0.0354722 0 0.00115592)
(0.0339513 0 0.00122855)
(0.0323676 0 0.00127727)
(0.0307184 0 0.00131734)
(0.0290191 0 0.00135075)
(0.0272565 0 0.00140261)
(0.0254322 0 0.00144916)
(0.0235596 0 0.00149306)
(0.0216319 0 0.00154843)
(0.0196257 0 0.00159824)
(0.0175854 0 0.00160607)
(0.0155464 0 0.00161541)
(0.0134819 0 0.00164588)
(0.0113708 0 0.00167707)
(0.00924184 0 0.00166251)
(0.00716509 0 0.00162328)
(0.00513155 0 0.00160299)
(0.00310596 0 0.00158805)
(0.00111244 0 0.00155726)
(-0.000827979 0 0.00149097)
(-0.00266598 0 0.00140079)
(-0.00440621 0 0.00133722)
(-0.00608573 0 0.00128993)
(-0.00770306 0 0.00125866)
(-0.00928877 0 0.00123077)
(-0.0108257 0 0.00118288)
(-0.0122939 0 0.00112584)
(-0.0136974 0 0.00107501)
(-0.0150426 0 0.00102333)
(-0.0163143 0 0.000971983)
(-0.0175266 0 0.00093666)
(-0.0186991 0 0.000905373)
(-0.0198272 0 0.000875892)
(-0.0209226 0 0.00084289)
(-0.0219731 0 0.000798059)
(-0.0229629 0 0.000752098)
(-0.0238996 0 0.000713488)
(-0.024787 0 0.000683477)
(-0.0256394 0 0.000661123)
(-0.0264591 0 0.000631651)
(-0.0272383 0 0.000597549)
(-0.0279776 0 0.000560414)
(-0.0286709 0 0.000523434)
(-0.0293181 0 0.000490666)
(-0.0299241 0 0.000461404)
(-0.030496 0 0.000440025)
(-0.0310463 0 0.000423404)
(-0.0315694 0 0.000400348)
(-0.0320596 0 0.000372563)
(-0.0325095 0 0.000335702)
(-0.0329145 0 0.000304919)
(-0.0332905 0 0.000284399)
(-0.0336437 0 0.000266944)
(-0.0339723 0 0.000248861)
(-0.0342763 0 0.000229272)
(-0.0345494 0 0.000201989)
(-0.0347888 0 0.000177312)
(-0.0350039 0 0.000160977)
(-0.0352031 0 0.000152052)
(-0.0353908 0 0.00013929)
(-0.0355491 0 0.000109478)
(-0.0356678 0 8.27399e-05)
(-0.0357633 0 6.62104e-05)
(-0.0358411 0 5.53279e-05)
(-0.0359064 0 5.05068e-05)
(-0.035965 0 4.2596e-05)
(-0.0360076 0 2.59442e-05)
(-0.0360267 0 3.14685e-06)
(-0.0360175 0 -1.75377e-05)
(-0.0359866 0 -3.04158e-05)
(-0.0359431 0 -3.94111e-05)
(-0.0358897 0 -4.18874e-05)
(-0.0358334 0 -4.55873e-05)
(-0.0357667 0 -5.67913e-05)
(-0.0356844 0 -7.18425e-05)
(-0.0355847 0 -8.59939e-05)
(-0.0354682 0 -9.6659e-05)
(-0.0353409 0 -0.000103566)
(-0.0352081 0 -0.000102705)
(-0.035078 0 -0.000101122)
(-0.0349453 0 -0.000108835)
(-0.0347981 0 -0.000119955)
(-0.0346401 0 -0.000126844)
(-0.0344733 0 -0.000133209)
(-0.0342996 0 -0.000136175)
(-0.0341246 0 -0.00013667)
(-0.0339493 0 -0.000139234)
(-0.0337717 0 -0.000141611)
(-0.0335937 0 -0.000140224)
(-0.0334169 0 -0.00013866)
(-0.0332385 0 -0.000138347)
(-0.0330566 0 -0.000144634)
(-0.0328663 0 -0.000152104)
(-0.0326723 0 -0.000152632)
(-0.0324801 0 -0.000149859)
(-0.0322927 0 -0.000141694)
(-0.0321163 0 -0.00013646)
(-0.0319366 0 -0.000146718)
(-0.0317416 0 -0.000155256)
(-0.0315446 0 -0.000153357)
(-0.0313519 0 -0.00015089)
(-0.0311617 0 -0.000146646)
(-0.0309769 0 -0.00014437)
(-0.0307899 0 -0.000147714)
(-0.030596 0 -0.000152509)
(-0.0303996 0 -0.000154995)
(-0.0302013 0 -0.000157156)
(-0.0300014 0 -0.000157482)
(-0.0298034 0 -0.000156321)
(-0.0296021 0 -0.000158446)
(-0.0293948 0 -0.000164129)
(-0.0291801 0 -0.000172114)
(-0.0289577 0 -0.000176504)
(-0.0287331 0 -0.000176508)
(-0.0285103 0 -0.000174263)
(-0.0282875 0 -0.000176012)
(-0.0280564 0 -0.000187491)
(-0.0278082 0 -0.000200055)
(-0.0275489 0 -0.000206081)
(-0.0272851 0 -0.000211314)
(-0.0270127 0 -0.000216898)
(-0.0267343 0 -0.000219719)
(-0.0264513 0 -0.00022351)
(-0.0261602 0 -0.00023325)
(-0.0258549 0 -0.000246039)
(-0.0255357 0 -0.000256324)
(-0.0252042 0 -0.000265638)
(-0.0248599 0 -0.000275719)
(-0.0245027 0 -0.000286385)
(-0.0241318 0 -0.000295863)
(-0.0237507 0 -0.000301343)
(-0.0233633 0 -0.000309344)
(-0.0229599 0 -0.000326013)
(-0.0225329 0 -0.000342088)
(-0.0220905 0 -0.000353607)
(-0.0216338 0 -0.000365539)
(-0.0211614 0 -0.000378145)
(-0.0206723 0 -0.000389856)
(-0.0201687 0 -0.000400446)
(-0.0196504 0 -0.000414417)
(-0.0191115 0 -0.000431146)
(-0.0185527 0 -0.000447533)
(-0.0179744 0 -0.00046252)
(-0.0173779 0 -0.000476721)
(-0.0167633 0 -0.00048809)
(-0.016134 0 -0.000499777)
(-0.0154871 0 -0.000515707)
(-0.0148209 0 -0.000532178)
(-0.0141364 0 -0.000547275)
(-0.0134322 0 -0.000561012)
(-0.0127111 0 -0.000570509)
(-0.0119794 0 -0.000580049)
(-0.0112327 0 -0.000593581)
(-0.0104708 0 -0.000605601)
(-0.00969668 0 -0.000613756)
(-0.00891217 0 -0.000619406)
(-0.00812172 0 -0.000624311)
(-0.00732595 0 -0.000628927)
(-0.00652659 0 -0.000631675)
(-0.00572532 0 -0.000630798)
(-0.00492765 0 -0.000624815)
(-0.00413989 0 -0.000615836)
(-0.00336369 0 -0.000607874)
(-0.00259779 0 -0.000598888)
(-0.0018458 0 -0.000585899)
(-0.00111214 0 -0.000569714)
(-0.000399503 0 -0.000551575)
(0.000290151 0 -0.000532954)
(0.000956781 0 -0.000514809)
(0.00160075 0 -0.000497228)
(0.00222287 0 -0.000479731)
(0.0028229 0 -0.000462048)
(0.00340108 0 -0.000445868)
(0.00395979 0 -0.000431219)
(0.00449951 0 -0.000416565)
(0.00502013 0 -0.000401295)
(0.0055212 0 -0.000386003)
(0.00600391 0 -0.000372229)
(0.00647 0 -0.000359531)
(0.00691974 0 -0.000347321)
(0.00735377 0 -0.000334314)
(0.00777039 0 -0.000320295)
(0.00816989 0 -0.000307494)
(0.00855413 0 -0.000296435)
(0.00892469 0 -0.000286029)
(0.00928195 0 -0.000275395)
(0.00962542 0 -0.000264568)
(0.00995532 0 -0.000253745)
(0.0102717 0 -0.00024339)
(0.0105753 0 -0.000233698)
(0.0108667 0 -0.000224505)
(0.0111466 0 -0.000215493)
(0.0114148 0 -0.000206369)
(0.0116715 0 -0.000197325)
(0.011917 0 -0.000188636)
(0.0121518 0 -0.000180543)
(0.0123766 0 -0.000172824)
(0.0125915 0 -0.000165135)
(0.0127965 0 -0.000157153)
(0.0129913 0 -0.000149181)
(0.0131762 0 -0.000141917)
(0.0133524 0 -0.000135117)
(0.0135197 0 -0.000128069)
(0.0136779 0 -0.000120989)
(0.0138273 0 -0.000114152)
(0.013968 0 -0.000107424)
(0.0141 0 -0.000100758)
(0.0142236 0 -9.42356e-05)
(0.014339 0 -8.77653e-05)
(0.0144462 0 -8.13134e-05)
(0.0145451 0 -7.49086e-05)
(0.014636 0 -6.86274e-05)
(0.0147188 0 -6.2128e-05)
(0.0147932 0 -5.5461e-05)
(0.0148592 0 -4.87618e-05)
(0.014917 0 -4.26514e-05)
(0.0149674 0 -3.70173e-05)
(0.0150104 0 -3.10834e-05)
(0.0150453 0 -2.45871e-05)
(0.0150719 0 -1.79974e-05)
(0.0150903 0 -1.18955e-05)
(0.0151015 0 -6.35616e-06)
(0.0151054 0 -4.90882e-07)
(0.015102 0 5.50423e-06)
(0.0150907 0 1.16943e-05)
(0.0150718 0 1.74848e-05)
(0.0150456 0 2.37737e-05)
(0.0150115 0 3.05667e-05)
(0.0149692 0 3.64482e-05)
(0.0149201 0 4.11449e-05)
(0.0148647 0 4.62647e-05)
(0.0148029 0 5.18471e-05)
(0.0147337 0 5.76184e-05)
(0.0146579 0 6.33154e-05)
(0.014575 0 6.88838e-05)
(0.0144851 0 7.4415e-05)
(0.014389 0 7.87234e-05)
(0.0142871 0 8.39401e-05)
(0.0141788 0 8.88874e-05)
(0.0140636 0 9.53419e-05)
(0.0139417 0 9.88755e-05)
(0.0138149 0 0.000103679)
(0.0136821 0 0.000107164)
(0.0135438 0 0.000112849)
(0.0133998 0 0.000115973)
(0.0132502 0 0.000122953)
(0.0130935 0 0.000126255)
(0.0129317 0 0.000132129)
(0.012764 0 0.000133289)
(0.0125935 0 0.000138997)
(0.0124177 0 0.000139998)
(0.0122382 0 0.000146644)
(0.0120528 0 0.000148268)
(0.0118635 0 0.000155348)
(0.0116685 0 0.000155333)
(0.0114734 0 0.00015823)
(0.0112745 0 0.00015777)
(0.0110743 0 0.000157663)
(0.0108703 0 0.000159425)
(0.0106629 0 0.000158703)
(0.0104541 0 0.000163699)
(0.0102407 0 0.000164598)
(0.0100328 0 0.000170046)
(0.00981557 0 0.000169002)
(0.00960039 0 0.000165484)
(0.00938122 0 0.0001599)
(0.00915442 0 0.000167598)
(0.00892979 0 0.00017563)
(0.00871457 0 0.000196622)
(0.00848675 0 0.000196729)
(0.00826786 0 0.000168429)
(0.00804393 0 0.000139816)
(0.00779851 0 0.000130719)
(0.00757473 0 0.000171648)
(0.00733894 0 0.000230442)
(0.00713583 0 0.000269381)
(0.00690753 0 0.000230264)
(0.0067019 0 0.000110749)
(0.00661222 0 -2.14923e-05)
(0.00651859 0 4.19572e-05)
(0.00634393 0 0.000130489)
(0.00614135 0 0.000132872)
(0.00590382 0 0.000166614)
(0.00563706 0 0.000146262)
(0.00539199 0 0.000196777)
(0.00513059 0 0.000217372)
(0.00489611 0 0.000270426)
(0.00461692 0 0.000290755)
(0.00439296 0 0.00019065)
(0.00410757 0 0.000159105)
(0.00373853 0 8.39284e-05)
(0.00344056 0 0.000266602)
(0.00314778 0 0.000526326)
(0.00285481 0 0.000647497)
(0.00282516 0 0.00035643)
(0.00267949 0 -0.000178458)
(0.00325934 0 -0.000681029)
(0.00349656 0 -0.000396363)
(0.00380257 0 -0.000241588)
(0.00380997 0 -9.90526e-05)
(0.00380163 0 4.15695e-05)
(0.00372006 0 -5.00762e-06)
(0.00358651 0 0.000145048)
(0.00347723 0 2.10729e-06)
(0.00327985 0 0.000181528)
(0.00312539 0 2.09544e-05)
(0.0029695 0 0.000243304)
(0.00275171 0 6.83659e-05)
(0.00262738 0 0.000218445)
(0.00244644 0 2.07401e-05)
(0.00212501 0 0.000210089)
(0.0020223 0 -3.82144e-05)
(0.00196964 0 0.000455994)
(0.00126983 0 8.18742e-05)
(0.00184225 0 9.79765e-05)
(0.000807136 0 0.000293915)
(0.00205971 0 0.000301577)
(0.000256075 0 0.000663817)
(0.00132831 0 -0.000781919)
(0.0013574 0 -0.000473011)
(0.00224856 0 -0.000416191)
(0.00223262 0 -0.000157298)
(0.00243825 0 -8.24576e-05)
(0.00238411 0 -2.29429e-05)
(0.002367 0 1.66549e-05)
(0.00228666 0 5.4018e-05)
(0.00217572 0 8.42253e-05)
(0.00204506 0 9.53042e-05)
(0.0019166 0 9.79881e-05)
(0.0017828 0 0.000107793)
(0.00163651 0 0.00011215)
(0.00149137 0 0.000114884)
(0.00134226 0 0.000121045)
(0.00119298 0 0.000111915)
(0.00105496 0 0.000107232)
(0.000919832 0 0.000109831)
(0.000777353 0 0.000113309)
(0.000640656 0 9.99072e-05)
(0.000524534 0 8.80403e-05)
(0.000413145 0 9.01753e-05)
(0.000296975 0 9.34623e-05)
(0.000180107 0 9.24816e-05)
(7.12616e-05 0 8.21074e-05)
(-2.58211e-05 0 7.14486e-05)
(-0.000113915 0 6.72251e-05)
(-0.000194834 0 6.16146e-05)
(-0.000270225 0 5.75586e-05)
(-0.000338592 0 4.9029e-05)
(-0.000400994 0 5.10025e-05)
(-0.000465885 0 5.24294e-05)
(-0.000524929 0 3.97322e-05)
(-0.000565283 0 2.46609e-05)
(-0.000589504 0 1.17685e-05)
(-0.000601442 0 3.79081e-06)
(-0.000605827 0 8.94491e-07)
(-0.000606937 0 -1.314e-06)
(-0.000603529 0 -4.51161e-06)
(-0.000594477 0 -8.92358e-06)
(-0.000580134 0 -1.40667e-05)
(-0.000556463 0 -2.20595e-05)
(-0.000528094 0 -2.21885e-05)
(-0.000496675 0 -3.09217e-05)
(-0.000452059 0 -4.13261e-05)
(-0.000399177 0 -4.09391e-05)
(-0.000349384 0 -3.68573e-05)
(-0.000302995 0 -3.59989e-05)
(-0.000253686 0 -3.83901e-05)
(-0.000199297 0 -4.32528e-05)
(-0.000138112 0 -5.0229e-05)
(-6.91373e-05 0 -5.66795e-05)
(6.73456e-06 0 -6.18029e-05)
(8.82525e-05 0 -6.58482e-05)
(0.000174334 0 -6.89425e-05)
(0.000264105 0 -7.14837e-05)
(0.000356819 0 -7.34959e-05)
(0.000452432 0 -7.62643e-05)
(0.000551965 0 -7.9947e-05)
(0.000656233 0 -8.33496e-05)
(0.000764991 0 -8.68229e-05)
(0.000876886 0 -8.88094e-05)
(0.000989743 0 -8.897e-05)
(0.00110308 0 -8.92798e-05)
(0.00121868 0 -9.1958e-05)
(0.00133909 0 -9.61274e-05)
(0.00146371 0 -9.83383e-05)
(0.00158922 0 -9.86697e-05)
(0.00171359 0 -9.52057e-05)
(0.00183631 0 -0.000101029)
(0.00197196 0 -9.87038e-05)
(0.00209133 0 -9.91666e-05)
(0.00223672 0 -9.95499e-05)
(0.00233523 0 -0.000115296)
(0.00253167 0 -0.000127009)
(0.00286777 0 -0.000127963)
(0.00197037 0 -0.000129739)
(0.00484174 0 -0.000126451)
(3.93991e-05 0 -0.000128586)
(0.00774952 0 -0.000170493)
(0.122363 0 0.00131067)
(0.120414 0 0.00226032)
(0.118722 0 0.00348109)
(0.118487 0 0.00314777)
(0.119432 0 -0.00065839)
(0.130001 0 -0.0181844)
(0.159317 0 -0.053771)
(0.184875 0 -0.0677542)
(0.207387 0 -0.0533323)
(0.227217 0 -0.0189719)
(0.231621 0 0.00136791)
(0.22603 0 0.0061939)
(0.214147 0 0.00394707)
(0.205732 0 1.37586e-05)
(0.199364 0 -0.0052664)
(0.195888 0 -0.00976938)
(0.195816 0 -0.0142875)
(0.199977 0 -0.0168611)
(0.205869 0 -0.0172883)
(0.208424 0 -0.015118)
(0.210572 0 -0.00920138)
(0.210746 0 -0.00163623)
(0.205675 0 0.00959821)
(0.194835 0 0.0232391)
(0.182917 0 0.0351812)
(0.173219 0 0.038487)
(0.165488 0 0.0323254)
(0.159181 0 0.0231973)
(0.153969 0 0.0154762)
(0.149749 0 0.0113658)
(0.145239 0 0.0110023)
(0.140407 0 0.0112197)
(0.135796 0 0.0100371)
(0.131486 0 0.0098736)
(0.128082 0 0.00902525)
(0.125682 0 0.00507869)
(0.124158 0 0.00113591)
(0.123584 0 -0.000166787)
(0.123533 0 0.000440279)
(0.122045 0 0.00438853)
(0.120248 0 0.00675313)
(0.119401 0 0.00570155)
(0.117384 0 0.00075807)
(0.117125 0 -0.00153177)
(0.117344 0 -0.00141404)
(0.117362 0 0.000942093)
(0.115956 0 0.00397845)
(0.115205 0 0.00399361)
(0.113747 0 0.00133204)
(0.112806 0 -0.00177251)
(0.113205 0 -0.00288315)
(0.114245 0 -0.0031892)
(0.115143 0 -0.00338166)
(0.11605 0 -0.00320674)
(0.116597 0 -0.00212702)
(0.115995 0 0.000913669)
(0.114838 0 0.00346471)
(0.11474 0 0.00402908)
(0.115163 0 0.00347645)
(0.114794 0 0.00171556)
(0.114391 0 0.00154813)
(0.112878 0 0.00276932)
(0.111026 0 0.00277612)
(0.110016 0 0.000226855)
(0.109901 0 -0.00401259)
(0.11111 0 -0.00599412)
(0.112206 0 -0.00610765)
(0.113151 0 -0.00481767)
(0.11344 0 -0.00309529)
(0.112865 0 -0.00203135)
(0.112116 0 -0.00204163)
(0.111752 0 -0.00319339)
(0.112348 0 -0.00611329)
(0.114322 0 -0.00752846)
(0.117492 0 -0.00677905)
(0.121194 0 -0.00221252)
(0.127001 0 0.00489693)
(0.13217 0 0.022752)
(0.142767 0 0.0396186)
(0.142839 0 0.0306789)
(0.135089 0 0.0296335)
(0.0989475 0 0.0174288)
(0.0962313 0 0.0107893)
(0.0776045 0 0.00382627)
(0.0721703 0 -0.00469913)
(0.0680741 0 0.0029098)
(0.0639862 0 0.00200586)
(0.0627084 0 0.00144552)
(0.0663362 0 0.000607364)
(0.0684246 0 -2.21471e-05)
(0.067894 0 -0.000696196)
(0.0693313 0 -0.002218)
(0.0692268 0 -0.00142062)
(0.0693435 0 -0.00178885)
(0.0695525 0 -0.00106483)
(0.0697276 0 -0.00107143)
(0.0692129 0 0.000106807)
(0.0701968 0 0.000762194)
(0.0698074 0 0.00513057)
(0.0749617 0 0.0117413)
(0.0736488 0 0.00942301)
(0.0774832 0 0.0078871)
(0.0672566 0 0.00463903)
(0.0641477 0 0.00235899)
(0.0594996 0 -0.00310453)
(0.0583705 0 -0.00613112)
(0.0577078 0 -0.00318932)
(0.057431 0 -0.00188716)
(0.0577169 0 -0.000284214)
(0.0594675 0 -0.000377698)
(0.0611947 0 0.000142391)
(0.0615374 0 -0.000403412)
(0.0618982 0 -0.000377781)
(0.0618364 0 1.1182e-05)
(0.061861 0 0.00129749)
(0.062247 0 0.00231222)
(0.0622112 0 0.00581668)
(0.0640061 0 0.00814587)
(0.0622009 0 0.00599038)
(0.0626257 0 0.00430666)
(0.054634 0 0.0021313)
(0.0531163 0 0.000973675)
(0.0502481 0 -0.00270655)
(0.050284 0 -0.00390308)
(0.0499471 0 -0.00142338)
(0.050115 0 -0.000422377)
(0.0512995 0 4.79962e-07)
(0.0518741 0 4.29255e-05)
(0.0518653 0 -0.000308663)
(0.0518239 0 -0.000384817)
(0.0516923 0 -1.82284e-05)
(0.0515632 0 0.000267012)
(0.051536 0 0.000458935)
(0.0513767 0 0.000575476)
(0.0511159 0 0.000709351)
(0.050753 0 0.000808345)
(0.0503205 0 0.000920224)
(0.0498692 0 0.00105977)
(0.0493586 0 0.00120294)
(0.048818 0 0.00136801)
(0.0481938 0 0.0015587)
(0.0475021 0 0.00171287)
(0.0467393 0 0.00188194)
(0.045914 0 0.00200424)
(0.0450323 0 0.00213502)
(0.0440837 0 0.00229499)
(0.043047 0 0.00249374)
(0.0419322 0 0.0026933)
(0.0407528 0 0.00287361)
(0.0395297 0 0.00296341)
(0.0382358 0 0.00310054)
(0.0368636 0 0.00328177)
(0.035399 0 0.00348511)
(0.0338742 0 0.00365222)
(0.0323095 0 0.00380411)
(0.0306824 0 0.00394617)
(0.0289702 0 0.00409093)
(0.0271841 0 0.00423633)
(0.0253453 0 0.00436231)
(0.0234649 0 0.00448045)
(0.0215294 0 0.00463496)
(0.0195505 0 0.00476479)
(0.0175365 0 0.00480543)
(0.0155026 0 0.00483606)
(0.0134418 0 0.00491776)
(0.0113562 0 0.0049912)
(0.00926932 0 0.00494952)
(0.00720803 0 0.00483972)
(0.00519 0 0.00478021)
(0.00318545 0 0.00473207)
(0.00121695 0 0.00462541)
(-0.000691649 0 0.00445038)
(-0.00254243 0 0.00422493)
(-0.00431387 0 0.00404152)
(-0.00601578 0 0.00389299)
(-0.00765218 0 0.00377682)
(-0.0092335 0 0.00367863)
(-0.0107679 0 0.0035409)
(-0.0122414 0 0.00338786)
(-0.0136582 0 0.00324639)
(-0.0150159 0 0.00309046)
(-0.0163034 0 0.00293124)
(-0.01753 0 0.00281275)
(-0.0187076 0 0.00270942)
(-0.0198354 0 0.00261897)
(-0.0209278 0 0.00253042)
(-0.0219806 0 0.00240882)
(-0.0229831 0 0.00227588)
(-0.0239362 0 0.0021537)
(-0.0248328 0 0.0020495)
(-0.025681 0 0.00196753)
(-0.0264892 0 0.00188008)
(-0.0272614 0 0.00178949)
(-0.028001 0 0.00169136)
(-0.028703 0 0.00158322)
(-0.02936 0 0.00147882)
(-0.0299715 0 0.00138947)
(-0.0305484 0 0.00132316)
(-0.0310951 0 0.00126442)
(-0.0316106 0 0.00119111)
(-0.0320944 0 0.00110645)
(-0.0325404 0 0.00100642)
(-0.0329507 0 0.00092291)
(-0.0333334 0 0.000861249)
(-0.0336904 0 0.000804961)
(-0.0340186 0 0.000744395)
(-0.0343158 0 0.000678346)
(-0.0345827 0 0.000602616)
(-0.0348247 0 0.000536713)
(-0.0350459 0 0.000489983)
(-0.0352485 0 0.00045539)
(-0.0354273 0 0.000406092)
(-0.0355769 0 0.000324574)
(-0.0356983 0 0.000253756)
(-0.0357987 0 0.000206437)
(-0.0358809 0 0.000168632)
(-0.0359459 0 0.00014439)
(-0.0359972 0 0.000116215)
(-0.0360316 0 7.11874e-05)
(-0.036048 0 1.26991e-05)
(-0.0360417 0 -4.66551e-05)
(-0.0360151 0 -8.55955e-05)
(-0.0359761 0 -0.000114158)
(-0.0359235 0 -0.000130004)
(-0.0358593 0 -0.000147778)
(-0.0357842 0 -0.000177397)
(-0.0356994 0 -0.000213496)
(-0.0356012 0 -0.000254491)
(-0.0354885 0 -0.000285853)
(-0.0353654 0 -0.000306007)
(-0.0352341 0 -0.000310276)
(-0.0350988 0 -0.000311575)
(-0.0349597 0 -0.000330929)
(-0.0348115 0 -0.00036006)
(-0.0346507 0 -0.000383451)
(-0.0344808 0 -0.000402488)
(-0.0343075 0 -0.000411985)
(-0.0341319 0 -0.000413884)
(-0.0339585 0 -0.000415189)
(-0.033786 0 -0.000417442)
(-0.0336109 0 -0.000416929)
(-0.0334311 0 -0.000419905)
(-0.0332444 0 -0.0004278)
(-0.0330539 0 -0.000440169)
(-0.0328647 0 -0.000452321)
(-0.032677 0 -0.000453682)
(-0.0324897 0 -0.000447348)
(-0.0323047 0 -0.000429863)
(-0.0321196 0 -0.000422481)
(-0.0319318 0 -0.000442253)
(-0.0317398 0 -0.000461377)
(-0.0315468 0 -0.00045821)
(-0.0313578 0 -0.000451375)
(-0.0311713 0 -0.000442009)
(-0.030983 0 -0.000440049)
(-0.0307898 0 -0.000450926)
(-0.0305929 0 -0.0004609)
(-0.0303958 0 -0.000465185)
(-0.0302001 0 -0.000468572)
(-0.0300063 0 -0.000467749)
(-0.0298113 0 -0.000470791)
(-0.0296069 0 -0.000484107)
(-0.0293943 0 -0.000498592)
(-0.0291798 0 -0.000515054)
(-0.0289618 0 -0.000525856)
(-0.0287407 0 -0.00052645)
(-0.0285183 0 -0.000525987)
(-0.0282904 0 -0.000536824)
(-0.0280548 0 -0.000565605)
(-0.0278079 0 -0.000597738)
(-0.0275515 0 -0.000615723)
(-0.0272897 0 -0.000631286)
(-0.0270209 0 -0.000648788)
(-0.0267445 0 -0.000662508)
(-0.0264569 0 -0.000678549)
(-0.0261588 0 -0.000704088)
(-0.0258514 0 -0.000735531)
(-0.0255342 0 -0.000766355)
(-0.025205 0 -0.000796506)
(-0.0248614 0 -0.000826757)
(-0.0245044 0 -0.000857822)
(-0.0241339 0 -0.0008863)
(-0.0237529 0 -0.000906452)
(-0.0233602 0 -0.000933339)
(-0.0229517 0 -0.000979185)
(-0.0225246 0 -0.00102462)
(-0.0220823 0 -0.0010591)
(-0.0216261 0 -0.00109477)
(-0.0211554 0 -0.00113282)
(-0.0206667 0 -0.00117053)
(-0.0201591 0 -0.00120528)
(-0.0196355 0 -0.00124714)
(-0.019093 0 -0.00129374)
(-0.0185336 0 -0.00133972)
(-0.0179577 0 -0.00138372)
(-0.0173636 0 -0.00142694)
(-0.0167488 0 -0.00146679)
(-0.0161141 0 -0.00150603)
(-0.0154621 0 -0.00154782)
(-0.0147963 0 -0.00159065)
(-0.0141157 0 -0.00163508)
(-0.0134154 0 -0.001679)
(-0.0126956 0 -0.00171257)
(-0.0119601 0 -0.00174329)
(-0.0112129 0 -0.0017774)
(-0.0104577 0 -0.00180817)
(-0.00968875 0 -0.00183585)
(-0.00890639 0 -0.00185564)
(-0.00811795 0 -0.00186854)
(-0.00732753 0 -0.00187782)
(-0.00653635 0 -0.00188378)
(-0.00574287 0 -0.00188204)
(-0.00495207 0 -0.00186684)
(-0.0041678 0 -0.00184209)
(-0.00339532 0 -0.00181577)
(-0.00263618 0 -0.00178684)
(-0.00188959 0 -0.0017493)
(-0.00115906 0 -0.00170361)
(-0.000446893 0 -0.0016523)
(0.000244309 0 -0.00159883)
(0.000913319 0 -0.0015454)
(0.00156023 0 -0.00149295)
(0.0021857 0 -0.00144133)
(0.00279022 0 -0.00138983)
(0.0033738 0 -0.00134102)
(0.00393677 0 -0.00129522)
(0.00447942 0 -0.00124997)
(0.00500216 0 -0.00120451)
(0.00550615 0 -0.00116018)
(0.00599227 0 -0.001119)
(0.00646115 0 -0.00107986)
(0.00691276 0 -0.0010416)
(0.00734757 0 -0.00100256)
(0.00776572 0 -0.000962185)
(0.00816793 0 -0.000924111)
(0.00855448 0 -0.000889573)
(0.0089262 0 -0.000857659)
(0.009284 0 -0.000825647)
(0.00962782 0 -0.000793505)
(0.00995842 0 -0.000761749)
(0.0102761 0 -0.000730812)
(0.0105808 0 -0.000701091)
(0.0108727 0 -0.000672948)
(0.0111528 0 -0.000645681)
(0.011421 0 -0.000618282)
(0.0116775 0 -0.000591577)
(0.0119236 0 -0.000566028)
(0.0121593 0 -0.000541631)
(0.0123846 0 -0.000518031)
(0.0125996 0 -0.00049472)
(0.0128045 0 -0.000471007)
(0.0129996 0 -0.000447467)
(0.0131852 0 -0.000425458)
(0.0133615 0 -0.000404626)
(0.0135289 0 -0.000383493)
(0.0136874 0 -0.000362295)
(0.0138371 0 -0.000341523)
(0.0139778 0 -0.000320921)
(0.0141095 0 -0.000300739)
(0.0142329 0 -0.000281262)
(0.0143483 0 -0.000262012)
(0.0144556 0 -0.000242574)
(0.0145545 0 -0.00022335)
(0.0146452 0 -0.000204415)
(0.0147278 0 -0.000185075)
(0.0148023 0 -0.000165244)
(0.0148688 0 -0.000145864)
(0.0149274 0 -0.000127426)
(0.0149778 0 -0.000109818)
(0.0150203 0 -9.13964e-05)
(0.0150549 0 -7.23515e-05)
(0.0150815 0 -5.29218e-05)
(0.0150998 0 -3.48544e-05)
(0.0151108 0 -1.78255e-05)
(0.0151143 0 -7.39285e-07)
(0.0151106 0 1.72759e-05)
(0.0150988 0 3.5447e-05)
(0.0150793 0 5.30863e-05)
(0.015052 0 7.07333e-05)
(0.0150178 0 8.94032e-05)
(0.0149764 0 0.000107233)
(0.0149275 0 0.000122982)
(0.0148714 0 0.000138106)
(0.0148086 0 0.000153912)
(0.0147386 0 0.000170378)
(0.0146617 0 0.00018599)
(0.0145781 0 0.000202719)
(0.0144878 0 0.000217735)
(0.0143915 0 0.000232389)
(0.0142884 0 0.000245882)
(0.014179 0 0.000262106)
(0.0140636 0 0.000276653)
(0.0139428 0 0.000291715)
(0.0138153 0 0.000303367)
(0.0136818 0 0.000318575)
(0.0135417 0 0.000329827)
(0.0133972 0 0.000345057)
(0.0132464 0 0.000357444)
(0.0130915 0 0.000373975)
(0.0129298 0 0.000384939)
(0.0127622 0 0.000398137)
(0.0125903 0 0.000404463)
(0.0124137 0 0.000418742)
(0.0122325 0 0.00042629)
(0.0120477 0 0.000440876)
(0.0118593 0 0.000448378)
(0.0116644 0 0.000458137)
(0.0114692 0 0.000460661)
(0.0112658 0 0.000470006)
(0.0110673 0 0.00047779)
(0.0108628 0 0.0004879)
(0.0106611 0 0.000496129)
(0.0104547 0 0.000500236)
(0.0102432 0 0.000498371)
(0.0100316 0 0.000497049)
(0.00980733 0 0.00051276)
(0.00958929 0 0.000515818)
(0.00938205 0 0.000543722)
(0.00916401 0 0.000540777)
(0.00894957 0 0.000516579)
(0.00872305 0 0.000493951)
(0.00846362 0 0.000509852)
(0.00822794 0 0.000522333)
(0.00802164 0 0.000607385)
(0.00781265 0 0.000611202)
(0.00761394 0 0.00054575)
(0.00741609 0 0.000440518)
(0.00739316 0 0.000413603)
(0.00727939 0 0.000418555)
(0.00712908 0 0.00037976)
(0.00690766 0 0.000330773)
(0.00662168 0 0.000356547)
(0.00637347 0 0.000479159)
(0.00611271 0 0.000553254)
(0.00589365 0 0.00063014)
(0.00564181 0 0.000659105)
(0.00545008 0 0.000596949)
(0.00519779 0 0.000565119)
(0.0049574 0 0.000530479)
(0.00454937 0 0.000505434)
(0.004267 0 0.000601893)
(0.00399166 0 0.000878143)
(0.0038347 0 0.000958048)
(0.00387089 0 0.000667888)
(0.00383327 0 0.000381375)
(0.00440609 0 -0.00013225)
(0.00463221 0 -9.77915e-05)
(0.0049166 0 -0.000489156)
(0.00466641 0 -0.000609908)
(0.00451161 0 -0.000454318)
(0.00427934 0 -0.000254993)
(0.00418401 0 0.000101878)
(0.00393895 0 9.65241e-05)
(0.00385858 0 0.000341065)
(0.00362303 0 0.000238809)
(0.00354029 0 0.000475743)
(0.00331945 0 0.000380015)
(0.00322977 0 0.000461835)
(0.00305126 0 0.000351516)
(0.00273489 0 0.000448619)
(0.00260404 0 0.000281292)
(0.00249904 0 0.000739242)
(0.00206151 0 0.000502647)
(0.0023667 0 0.000287995)
(0.0014116 0 0.000724622)
(0.00299892 0 6.21671e-05)
(0.00146287 0 0.000563837)
(0.00310646 0 -0.000834198)
(0.00229942 0 0.000768002)
(0.00359021 0 0.000788727)
(0.00315432 0 -0.00100037)
(0.00307725 0 -0.00094164)
(0.00297991 0 -0.000742968)
(0.00290306 0 -0.00027265)
(0.00282219 0 -4.56613e-05)
(0.00270475 0 8.30977e-05)
(0.00258566 0 0.000163699)
(0.00245627 0 0.000240821)
(0.00231765 0 0.000300952)
(0.00217488 0 0.000315843)
(0.00203166 0 0.000313946)
(0.00188456 0 0.00033666)
(0.00173182 0 0.000344505)
(0.00157897 0 0.000346009)
(0.00142753 0 0.000356435)
(0.00128046 0 0.000335817)
(0.00113865 0 0.000323175)
(0.00100039 0 0.000324139)
(0.00086723 0 0.000327554)
(0.000740048 0 0.000296591)
(0.000619967 0 0.000268997)
(0.000504533 0 0.000268939)
(0.00039387 0 0.000272575)
(0.000288891 0 0.000264624)
(0.00018911 0 0.000241569)
(9.59289e-05 0 0.000217183)
(1.00903e-05 0 0.00020181)
(-6.81043e-05 0 0.000181739)
(-0.000137963 0 0.000170007)
(-0.000204813 0 0.00015392)
(-0.000268265 0 0.000152665)
(-0.000322213 0 0.000144853)
(-0.000368005 0 0.000113104)
(-0.000405487 0 7.56116e-05)
(-0.000433896 0 4.38793e-05)
(-0.00045488 0 2.29865e-05)
(-0.00046906 0 8.4625e-06)
(-0.000474364 0 -3.31165e-06)
(-0.000473244 0 -1.56714e-05)
(-0.000464869 0 -2.98409e-05)
(-0.000448355 0 -4.62975e-05)
(-0.000426939 0 -6.38687e-05)
(-0.000400332 0 -6.87491e-05)
(-0.000369053 0 -8.9433e-05)
(-0.000331342 0 -0.000113506)
(-0.000289227 0 -0.000117137)
(-0.000242972 0 -0.00011393)
(-0.000191399 0 -0.000116933)
(-0.000134377 0 -0.00012616)
(-7.14268e-05 0 -0.000139791)
(-3.60209e-06 0 -0.000156082)
(6.80023e-05 0 -0.000171967)
(0.000144108 0 -0.000186134)
(0.00022543 0 -0.000198396)
(0.000311733 0 -0.000208251)
(0.000402196 0 -0.000216034)
(0.000496181 0 -0.000223164)
(0.000593587 0 -0.000231662)
(0.000694436 0 -0.000242075)
(0.000799345 0 -0.000252972)
(0.000908022 0 -0.000261158)
(0.00101858 0 -0.000264599)
(0.00113037 0 -0.000266615)
(0.001245 0 -0.000271805)
(0.00136393 0 -0.000280828)
(0.00148647 0 -0.000291412)
(0.00161022 0 -0.00029389)
(0.0017334 0 -0.000295486)
(0.00186115 0 -0.000294037)
(0.00198996 0 -0.00030783)
(0.00212921 0 -0.000305513)
(0.00225063 0 -0.000302048)
(0.00240405 0 -0.000305716)
(0.00250726 0 -0.000339962)
(0.00268803 0 -0.000364169)
(0.00300497 0 -0.000365281)
(0.00208724 0 -0.000363448)
(0.00494969 0 -0.000356186)