/*--------------------------------*- C++ -*----------------------------------*\
| =========                 |                                                 |
| \\      /  F ield         | OpenFOAM: The Open Source CFD Toolbox           |
|  \\    /   O peration     | Version:  v2006                                 |
|   \\  /    A nd           | Website:  www.openfoam.com                      |
|    \\/     M anipulation  |                                                 |
\*---------------------------------------------------------------------------*/
FoamFile
{
    version     2.0;
    format      ascii;
    class       surfaceScalarField;
    location    "6.8";
    object      alphaPhi0.water;
}
// * * * * * * * * * * * * * * * * * * * * * * * * * * * * * * * * * * * * * //

dimensions      [0 3 -1 0 0 0 0];
oriented        oriented;


internalField   nonuniform List<scalar> 
65390
(
5.08171e-05
6.13056e-07
5.00953e-05
7.22417e-07
4.9769e-05
3.26999e-07
5.19149e-05
-2.14545e-06
5.90924e-05
-7.17713e-06
6.76725e-05
-8.57978e-06
7.33483e-05
-5.67558e-06
7.52349e-05
-1.88653e-06
7.59645e-05
-7.29449e-07
7.69426e-05
-9.78106e-07
7.81544e-05
-1.2118e-06
7.94964e-05
-1.34206e-06
8.11229e-05
-1.62647e-06
8.30459e-05
-1.92306e-06
8.5205e-05
-2.1592e-06
8.76212e-05
-2.4164e-06
9.02905e-05
-2.66933e-06
9.2096e-05
-1.80573e-06
9.21859e-05
-8.99895e-08
9.05533e-05
1.63247e-06
8.76345e-05
2.91857e-06
8.21478e-05
5.48623e-06
7.38805e-05
8.26659e-06
6.56462e-05
8.22172e-06
5.91841e-05
6.46127e-06
5.49548e-05
4.23522e-06
5.22975e-05
2.65873e-06
5.02875e-05
2.01001e-06
4.83301e-05
1.95741e-06
4.60711e-05
2.25645e-06
4.37802e-05
2.26865e-06
4.18272e-05
1.95297e-06
4.00666e-05
1.76781e-06
3.8474e-05
1.60342e-06
3.7545e-05
9.31334e-07
3.72668e-05
2.77899e-07
3.7062e-05
2.04428e-07
3.64326e-05
6.25643e-07
3.474e-05
1.67699e-06
3.28852e-05
1.86444e-06
3.19018e-05
9.90002e-07
3.17912e-05
1.11637e-07
3.17831e-05
8.3293e-09
3.15657e-05
2.16945e-07
3.07078e-05
8.50684e-07
2.93555e-05
1.35236e-06
2.82919e-05
1.06524e-06
2.79823e-05
3.1358e-07
2.80361e-05
-5.29487e-08
2.81333e-05
-9.75064e-08
2.82227e-05
-8.97707e-08
2.83272e-05
-1.04514e-07
2.84337e-05
-1.06333e-07
2.83006e-05
1.3331e-07
2.76152e-05
6.84607e-07
2.64666e-05
1.13981e-06
2.52049e-05
1.26171e-06
2.42102e-05
9.965e-07
2.36888e-05
5.26989e-07
2.32131e-05
4.76258e-07
2.24172e-05
7.95704e-07
2.16408e-05
7.76441e-07
2.14946e-05
1.46682e-07
2.21059e-05
-6.11263e-07
2.30832e-05
-9.7726e-07
2.40916e-05
-1.00852e-06
2.48925e-05
-8.01488e-07
2.55535e-05
-6.64621e-07
2.62272e-05
-6.81165e-07
2.71552e-05
-9.27867e-07
2.8573e-05
-1.41785e-06
3.06634e-05
-2.08936e-06
3.32712e-05
-2.60688e-06
3.58908e-05
-2.61878e-06
3.80889e-05
-2.19226e-06
3.9049e-05
-9.56241e-07
3.7632e-05
1.41771e-06
3.11639e-05
6.46803e-06
2.39478e-05
7.21613e-06
1.99396e-05
4.00821e-06
1.68045e-05
3.13513e-06
1.55268e-05
1.27768e-06
1.40354e-05
1.491e-06
1.37978e-05
2.37004e-07
1.40255e-05
-2.28807e-07
1.37163e-05
3.09378e-07
1.35362e-05
1.80259e-07
1.34873e-05
4.64924e-08
1.36227e-05
-1.35193e-07
1.37468e-05
-1.22402e-07
1.41309e-05
-3.82422e-07
1.47145e-05
-5.83613e-07
1.5389e-05
-6.74618e-07
1.62622e-05
-8.73447e-07
1.74508e-05
-1.18824e-06
1.89882e-05
-1.53725e-06
2.05384e-05
-1.55023e-06
2.23607e-05
-1.82316e-06
2.30223e-05
-6.63518e-07
2.26175e-05
4.02385e-07
2.24008e-05
2.16652e-07
2.21971e-05
2.03708e-07
2.21777e-05
1.94041e-08
2.19654e-05
2.12365e-07
2.19663e-05
1.75197e-09
2.20752e-05
-1.06752e-07
2.21051e-05
-2.99969e-08
2.20939e-05
1.10808e-08
2.19666e-05
1.25977e-07
2.18027e-05
1.58975e-07
2.15594e-05
2.43372e-07
2.13189e-05
2.45787e-07
2.10296e-05
2.8991e-07
2.07168e-05
3.1311e-07
2.02732e-05
4.42531e-07
1.9795e-05
4.76162e-07
1.88371e-05
9.579e-07
1.77836e-05
1.0535e-06
1.71636e-05
6.21795e-07
1.68613e-05
3.02744e-07
1.67825e-05
7.88638e-08
1.65559e-05
2.25805e-07
1.64219e-05
1.30282e-07
1.63074e-05
1.17381e-07
1.60496e-05
2.59146e-07
1.57662e-05
2.83317e-07
1.54674e-05
2.98795e-07
1.51278e-05
3.39577e-07
1.47531e-05
3.73784e-07
1.43472e-05
4.05138e-07
1.39163e-05
4.31729e-07
1.34716e-05
4.45317e-07
1.30101e-05
4.614e-07
1.25154e-05
4.94719e-07
1.19953e-05
5.20032e-07
1.14522e-05
5.43035e-07
1.0893e-05
5.59223e-07
1.03207e-05
5.72193e-07
9.7224e-06
5.97417e-07
9.10003e-06
6.21198e-07
8.46232e-06
6.37715e-07
7.81444e-06
6.479e-07
7.16525e-06
6.50452e-07
6.5217e-06
6.43551e-07
5.87495e-06
6.46743e-07
5.218e-06
6.56947e-07
4.54946e-06
6.68172e-07
3.87395e-06
6.75483e-07
3.20974e-06
6.63991e-07
2.57076e-06
6.39478e-07
1.93864e-06
6.32117e-07
1.30836e-06
6.30234e-07
6.82874e-07
6.254e-07
7.17964e-08
6.11074e-07
-5.22045e-07
5.93845e-07
-1.09784e-06
5.75759e-07
-1.6561e-06
5.58256e-07
-2.19992e-06
5.43821e-07
-2.72809e-06
5.2817e-07
-3.2412e-06
5.13155e-07
-3.74487e-06
5.03782e-07
-4.23727e-06
4.92404e-07
-4.71029e-06
4.72854e-07
-5.16505e-06
4.54759e-07
-5.61004e-06
4.45104e-07
-6.04813e-06
4.38181e-07
-6.47155e-06
4.23131e-07
-6.87253e-06
4.00967e-07
-7.25897e-06
3.86457e-07
-7.63809e-06
3.79234e-07
-8.00847e-06
3.70772e-07
-8.36653e-06
3.5803e-07
-8.7054e-06
3.38322e-07
-9.02617e-06
3.20715e-07
-9.33358e-06
3.07458e-07
-9.6302e-06
2.97309e-07
-9.919e-06
2.89474e-07
-1.01989e-05
2.79907e-07
-1.04667e-05
2.66833e-07
-1.072e-05
2.52757e-07
-1.09597e-05
2.39678e-07
-1.11828e-05
2.23025e-07
-1.13898e-05
2.07602e-07
-1.15863e-05
1.97006e-07
-1.1774e-05
1.87694e-07
-1.19546e-05
1.80097e-07
-1.21261e-05
1.70661e-07
-1.2283e-05
1.56942e-07
-1.24257e-05
1.42632e-07
-1.2555e-05
1.2987e-07
-1.26736e-05
1.19693e-07
-1.27859e-05
1.12246e-07
-1.28893e-05
1.03397e-07
-1.29847e-05
9.37003e-08
-1.30677e-05
8.28088e-08
-1.31382e-05
7.04917e-08
-1.31969e-05
5.87082e-08
-1.32461e-05
4.91484e-08
-1.32887e-05
4.34485e-08
-1.33272e-05
3.92694e-08
-1.33595e-05
3.23575e-08
-1.33834e-05
2.32139e-08
-1.33951e-05
1.08815e-08
-1.33964e-05
1.26115e-09
-1.33919e-05
-4.45482e-09
-1.33829e-05
-8.89529e-09
-1.33684e-05
-1.39114e-08
-1.33485e-05
-2.01953e-08
-1.33196e-05
-2.92796e-08
-1.32829e-05
-3.66594e-08
-1.32431e-05
-3.97524e-08
-1.32027e-05
-3.98795e-08
-1.31599e-05
-4.30449e-08
-1.31063e-05
-5.42082e-08
-1.30425e-05
-6.37235e-08
-1.29747e-05
-6.76688e-08
-1.29045e-05
-6.95971e-08
-1.28357e-05
-6.82065e-08
-1.27686e-05
-6.71137e-08
-1.26985e-05
-7.1046e-08
-1.26202e-05
-7.84644e-08
-1.25344e-05
-8.58007e-08
-1.24458e-05
-8.85281e-08
-1.23567e-05
-8.85937e-08
-1.2271e-05
-8.51743e-08
-1.2189e-05
-8.19965e-08
-1.21064e-05
-8.33158e-08
-1.20205e-05
-8.6105e-08
-1.1931e-05
-8.94993e-08
-1.18397e-05
-9.12521e-08
-1.17498e-05
-8.95293e-08
-1.16659e-05
-8.34613e-08
-1.15881e-05
-7.7839e-08
-1.15102e-05
-7.83083e-08
-1.14302e-05
-7.99916e-08
-1.13505e-05
-7.96146e-08
-1.12708e-05
-7.94858e-08
-1.11936e-05
-7.71011e-08
-1.11205e-05
-7.31719e-08
-1.10505e-05
-7.03319e-08
-1.0983e-05
-6.751e-08
-1.09192e-05
-6.36152e-08
-1.08584e-05
-6.04872e-08
-1.0799e-05
-5.97165e-08
-1.07375e-05
-6.16142e-08
-1.06743e-05
-6.3168e-08
-1.06124e-05
-6.18765e-08
-1.05541e-05
-5.80948e-08
-1.05022e-05
-5.16695e-08
-1.04511e-05
-5.148e-08
-1.03929e-05
-5.82205e-08
-1.03319e-05
-6.09843e-08
-1.02717e-05
-6.02362e-08
-1.0212e-05
-5.95208e-08
-1.01542e-05
-5.76024e-08
-1.00955e-05
-5.8754e-08
-1.00327e-05
-6.30919e-08
-9.96632e-06
-6.65103e-08
-9.89693e-06
-6.9403e-08
-9.82487e-06
-7.20609e-08
-9.75102e-06
-7.35603e-08
-9.67479e-06
-7.62368e-08
-9.59352e-06
-8.12536e-08
-9.50662e-06
-8.71695e-08
-9.41316e-06
-9.3484e-08
-9.3158e-06
-9.73772e-08
-9.21714e-06
-9.85104e-08
-9.11665e-06
-1.00287e-07
-9.01062e-06
-1.06307e-07
-8.89416e-06
-1.1657e-07
-8.76946e-06
-1.24724e-07
-8.63902e-06
-1.30436e-07
-8.50262e-06
-1.3639e-07
-8.36109e-06
-1.4144e-07
-8.21585e-06
-1.45183e-07
-8.0643e-06
-1.51492e-07
-7.90418e-06
-1.60177e-07
-7.73534e-06
-1.68861e-07
-7.55821e-06
-1.77153e-07
-7.37302e-06
-1.85196e-07
-7.17972e-06
-1.93302e-07
-6.97835e-06
-2.01343e-07
-6.77113e-06
-2.07125e-07
-6.55919e-06
-2.11894e-07
-6.33797e-06
-2.21294e-07
-6.10557e-06
-2.32432e-07
-5.86471e-06
-2.40853e-07
-5.6162e-06
-2.48516e-07
-5.36004e-06
-2.56166e-07
-5.09651e-06
-2.63503e-07
-4.82706e-06
-2.69425e-07
-4.55089e-06
-2.76179e-07
-4.26694e-06
-2.83991e-07
-3.97551e-06
-2.91455e-07
-3.67758e-06
-2.97952e-07
-3.37414e-06
-3.03456e-07
-3.06673e-06
-3.07383e-07
-2.75642e-06
-3.10321e-07
-2.44274e-06
-3.13715e-07
-2.12597e-06
-3.16793e-07
-1.80652e-06
-3.19456e-07
-1.48546e-06
-3.21076e-07
-1.16518e-06
-3.2027e-07
-8.46721e-07
-3.18478e-07
-5.29649e-07
-3.17088e-07
-2.1485e-07
-3.14818e-07
9.64951e-08
-3.11361e-07
4.03255e-07
-3.0677e-07
7.05135e-07
-3.01879e-07
1.00246e-06
-2.97318e-07
1.29549e-06
-2.93011e-07
1.5838e-06
-2.88292e-07
1.8664e-06
-2.82583e-07
2.14301e-06
-2.76594e-07
2.41442e-06
-2.714e-07
2.68094e-06
-2.66525e-07
2.94208e-06
-2.6115e-07
3.19736e-06
-2.55292e-07
3.44664e-06
-2.49286e-07
3.68996e-06
-2.43309e-07
3.92732e-06
-2.37334e-07
4.15857e-06
-2.3122e-07
4.38344e-06
-2.2483e-07
4.60165e-06
-2.18181e-07
4.81342e-06
-2.11726e-07
5.01882e-06
-2.05363e-07
5.21752e-06
-1.98663e-07
5.40916e-06
-1.91623e-07
5.59374e-06
-1.84567e-07
5.77154e-06
-1.77777e-07
5.94261e-06
-1.71025e-07
6.10675e-06
-1.64101e-07
6.26345e-06
-1.56684e-07
6.41236e-06
-1.48926e-07
6.55395e-06
-1.41587e-07
6.68858e-06
-1.3463e-07
6.81624e-06
-1.27683e-07
6.93669e-06
-1.20491e-07
7.04976e-06
-1.13147e-07
7.1554e-06
-1.05707e-07
7.2537e-06
-9.83615e-08
7.34482e-06
-9.11733e-08
7.42891e-06
-8.41298e-08
7.50589e-06
-7.70355e-08
7.57567e-06
-6.98222e-08
7.63827e-06
-6.26617e-08
7.69393e-06
-5.57114e-08
7.74286e-06
-4.89872e-08
7.78519e-06
-4.23753e-08
7.82082e-06
-3.56969e-08
7.84965e-06
-2.88919e-08
7.87184e-06
-2.22661e-08
7.88788e-06
-1.60921e-08
7.89789e-06
-1.0051e-08
7.90172e-06
-3.86552e-09
7.89953e-06
2.16237e-09
7.89153e-06
7.97215e-09
7.87786e-06
1.36561e-08
7.85867e-06
1.91687e-08
7.83416e-06
2.44926e-08
7.80444e-06
2.96893e-08
7.76964e-06
3.4771e-08
7.72994e-06
3.96625e-08
7.68546e-06
4.44367e-08
7.6362e-06
4.92066e-08
7.58229e-06
5.38306e-08
7.52396e-06
5.82422e-08
7.46163e-06
6.22993e-08
7.39539e-06
6.61925e-08
7.32515e-06
7.0155e-08
7.25092e-06
7.41574e-08
7.17291e-06
7.79378e-08
7.09148e-06
8.13689e-08
7.00688e-06
8.45396e-08
6.91905e-06
8.77884e-08
6.82798e-06
9.10399e-08
6.73379e-06
9.4182e-08
6.63665e-06
9.71384e-08
6.53644e-06
1.00206e-07
6.43315e-06
1.03317e-07
6.32716e-06
1.06027e-07
6.21892e-06
1.08282e-07
6.10842e-06
1.10552e-07
5.99551e-06
1.12967e-07
5.88014e-06
1.15429e-07
5.76243e-06
1.17769e-07
5.64229e-06
1.20207e-07
5.52007e-06
1.2227e-07
5.39605e-06
1.24056e-07
5.27013e-06
1.25934e-07
5.14196e-06
1.28164e-07
5.01175e-06
1.30208e-07
4.88e-06
1.31734e-07
4.74683e-06
1.33135e-07
4.61202e-06
1.34789e-07
4.47583e-06
1.36155e-07
4.33808e-06
1.37726e-07
4.19863e-06
1.39421e-07
4.05767e-06
1.40959e-07
3.91567e-06
1.42001e-07
3.77304e-06
1.4262e-07
3.6301e-06
1.42939e-07
3.48635e-06
1.4375e-07
3.34203e-06
1.44334e-07
3.1969e-06
1.45143e-07
3.0515e-06
1.45417e-07
2.9064e-06
1.45142e-07
2.76235e-06
1.44078e-07
2.61875e-06
1.43612e-07
2.47599e-06
1.42783e-07
2.33347e-06
1.42529e-07
2.19207e-06
1.41422e-07
2.05157e-06
1.405e-07
1.91332e-06
1.38249e-07
1.77655e-06
1.36762e-07
1.64119e-06
1.3535e-07
1.50768e-06
1.335e-07
1.37477e-06
1.32887e-07
1.24388e-06
1.30874e-07
1.11527e-06
1.28587e-07
9.89935e-07
1.25306e-07
8.67685e-07
1.22215e-07
7.47259e-07
1.20386e-07
6.32589e-07
1.1463e-07
5.20751e-07
1.11803e-07
3.95842e-07
1.24883e-07
2.8953e-07
1.06295e-07
1.78326e-07
1.11199e-07
6.23919e-08
1.15939e-07
-4.50137e-08
1.07416e-07
-1.23442e-07
7.84402e-08
-1.92346e-07
6.89142e-08
-2.84959e-07
9.26193e-08
-3.77083e-07
9.21261e-08
-4.78807e-07
1.01724e-07
-5.75214e-07
9.64072e-08
-6.66372e-07
9.11587e-08
-7.51409e-07
8.50427e-08
-8.35427e-07
8.40269e-08
-9.13658e-07
7.82435e-08
-9.8921e-07
7.55662e-08
-1.09019e-06
1.00992e-07
-1.18991e-06
9.97429e-08
-1.2725e-06
8.25971e-08
-1.34892e-06
7.64286e-08
-1.37114e-06
2.22219e-08
-1.36135e-06
-9.78832e-09
-1.22842e-06
-1.32922e-07
-1.01216e-06
-2.16266e-07
-8.49964e-07
-1.62197e-07
-7.29952e-07
-1.20015e-07
-6.73699e-07
-5.62563e-08
-6.2995e-07
-4.37528e-08
-6.12736e-07
-1.72175e-08
-5.9664e-07
-1.61017e-08
-5.95022e-07
-1.62276e-09
-5.94156e-07
-8.71541e-10
-5.84839e-07
-9.32327e-09
-5.94099e-07
9.25385e-09
-5.90827e-07
-3.27768e-09
-5.77149e-07
-1.36833e-08
-6.09676e-07
3.25225e-08
-5.83275e-07
-2.64051e-08
-5.08288e-07
-7.49896e-08
-6.11221e-07
1.0293e-07
-5.40306e-07
-7.09172e-08
-6.18371e-07
7.80621e-08
-5.48124e-07
-7.02524e-08
-8.99515e-07
3.51383e-07
-1.29632e-06
3.96796e-07
-1.15668e-06
-1.39653e-07
-9.94975e-07
-1.61695e-07
-8.36886e-07
-1.58094e-07
-7.37416e-07
-9.94814e-08
-6.60544e-07
-7.68802e-08
-5.93421e-07
-6.71344e-08
-5.32274e-07
-6.11543e-08
-4.77831e-07
-5.44495e-08
-4.28946e-07
-4.88914e-08
-3.78708e-07
-5.0247e-08
-3.25379e-07
-5.334e-08
-2.73308e-07
-5.20818e-08
-2.20193e-07
-5.31246e-08
-1.65596e-07
-5.46058e-08
-1.11709e-07
-5.38955e-08
-5.29829e-08
-5.87337e-08
8.66494e-09
-6.16529e-08
7.04808e-08
-6.18186e-08
1.31711e-07
-6.12306e-08
1.99085e-07
-6.73718e-08
2.71187e-07
-7.20988e-08
3.42699e-07
-7.15081e-08
4.13163e-07
-7.04578e-08
4.84552e-07
-7.13814e-08
5.59712e-07
-7.51503e-08
6.38451e-07
-7.87307e-08
7.18755e-07
-8.0296e-08
8.01401e-07
-8.26381e-08
8.85181e-07
-8.37733e-08
9.71598e-07
-8.64108e-08
1.05653e-06
-8.49243e-08
1.1412e-06
-8.46706e-08
1.23043e-06
-8.92294e-08
1.32507e-06
-9.46294e-08
1.42396e-06
-9.88848e-08
1.52527e-06
-1.0131e-07
1.62722e-06
-1.01954e-07
1.72973e-06
-1.02507e-07
1.83287e-06
-1.03148e-07
1.93697e-06
-1.04101e-07
2.04257e-06
-1.05588e-07
2.15018e-06
-1.0761e-07
2.257e-06
-1.06821e-07
2.36659e-06
-1.09591e-07
2.47906e-06
-1.12464e-07
2.59039e-06
-1.11328e-07
2.69944e-06
-1.09055e-07
2.80763e-06
-1.08182e-07
2.91608e-06
-1.08453e-07
3.02568e-06
-1.09593e-07
3.13711e-06
-1.11421e-07
3.25015e-06
-1.13039e-07
3.36441e-06
-1.14259e-07
3.47954e-06
-1.15125e-07
3.59515e-06
-1.15602e-07
3.71095e-06
-1.15796e-07
3.82686e-06
-1.15901e-07
3.9432e-06
-1.16334e-07
4.06034e-06
-1.17141e-07
4.17834e-06
-1.17991e-07
4.29685e-06
-1.18503e-07
4.41511e-06
-1.18252e-07
4.53282e-06
-1.17696e-07
4.65051e-06
-1.17679e-07
4.76899e-06
-1.18472e-07
4.88856e-06
-1.19566e-07
5.00796e-06
-1.19394e-07
5.12693e-06
-1.18958e-07
5.24479e-06
-1.17848e-07
5.36462e-06
-1.19821e-07
5.4832e-06
-1.18572e-07
5.60114e-06
-1.17923e-07
5.71976e-06
-1.18601e-07
5.84461e-06
-1.24834e-07
5.97321e-06
-1.28585e-07
6.10165e-06
-1.28424e-07
6.22908e-06
-1.27419e-07
6.3562e-06
-1.27104e-07
6.4828e-06
-1.266e-07
-1.38464e-07
5.07442e-05
1.29336e-06
4.99735e-05
1.49241e-06
5.04585e-05
-1.58689e-07
5.74032e-05
-9.09066e-06
6.88497e-05
-1.86239e-05
8.0213e-05
-1.99432e-05
8.82149e-05
-1.36775e-05
8.8973e-05
-2.64451e-06
8.58608e-05
2.38282e-06
8.19425e-05
2.94048e-06
7.88237e-05
1.90714e-06
7.67981e-05
6.83823e-07
7.55007e-05
-3.28855e-07
7.52441e-05
-1.66618e-06
7.6126e-05
-3.0409e-06
7.7479e-05
-3.76915e-06
7.8261e-05
-3.45118e-06
7.80802e-05
-1.62463e-06
7.68977e-05
1.09272e-06
7.42785e-05
4.25186e-06
6.98581e-05
7.33911e-06
6.50264e-05
1.03181e-05
6.15861e-05
1.17058e-05
5.85392e-05
1.12446e-05
5.56506e-05
9.36137e-06
5.31707e-05
6.72407e-06
5.10248e-05
4.80622e-06
4.90908e-05
3.94397e-06
4.71593e-05
3.88763e-06
4.51358e-05
4.25949e-06
4.3106e-05
4.28494e-06
4.12264e-05
3.83265e-06
3.96949e-05
3.29921e-06
3.8539e-05
2.7849e-06
3.76997e-05
1.77381e-06
3.71115e-05
8.65877e-07
3.65559e-05
7.57656e-07
3.57135e-05
1.44332e-06
3.47029e-05
2.6929e-06
3.37521e-05
2.82049e-06
3.27756e-05
1.97769e-06
3.22724e-05
6.18525e-07
3.19683e-05
3.11816e-07
3.15491e-05
6.29265e-07
3.0748e-05
1.64261e-06
2.98624e-05
2.23792e-06
2.89284e-05
2.00756e-06
2.82131e-05
1.03502e-06
2.7899e-05
2.61612e-07
2.78011e-05
6.0617e-10
2.77882e-05
-7.68453e-08
2.77113e-05
-2.76716e-08
2.74993e-05
1.03699e-07
2.69475e-05
6.7514e-07
2.62043e-05
1.42079e-06
2.56379e-05
1.70616e-06
2.53207e-05
1.5789e-06
2.50647e-05
1.25245e-06
2.45062e-05
1.09905e-06
2.36378e-05
1.34226e-06
2.26486e-05
1.78068e-06
2.18085e-05
1.61947e-06
2.13974e-05
5.61544e-07
2.14997e-05
-7.13376e-07
2.17316e-05
-1.20949e-06
2.18901e-05
-1.17205e-06
2.18737e-05
-7.90169e-07
2.16151e-05
-4.05984e-07
2.12292e-05
-2.95306e-07
2.09284e-05
-6.2279e-07
2.1121e-05
-1.6052e-06
2.18478e-05
-2.81562e-06
2.30487e-05
-3.80758e-06
2.46259e-05
-4.19595e-06
2.64705e-05
-4.03683e-06
2.86808e-05
-3.16644e-06
3.15994e-05
-1.5009e-06
3.6005e-05
2.06238e-06
3.76005e-05
5.62044e-06
3.53508e-05
6.25782e-06
2.92777e-05
9.20832e-06
2.20634e-05
8.4919e-06
1.80975e-05
5.45663e-06
1.50034e-05
3.32938e-06
1.36924e-05
1.08091e-06
1.26628e-05
1.33915e-06
1.23456e-05
4.9583e-07
1.30937e-05
-7.01438e-07
1.41657e-05
-1.20729e-06
1.41936e-05
-1.47063e-07
1.4316e-05
-5.04811e-07
1.4365e-05
-6.32619e-07
1.43722e-05
-6.82864e-07
1.44826e-05
-9.83833e-07
1.47038e-05
-1.40947e-06
1.48873e-05
-1.72007e-06
1.54118e-05
-2.0747e-06
1.61308e-05
-2.54258e-06
1.76378e-05
-2.17351e-06
1.96085e-05
-1.56928e-06
2.15719e-05
-1.7468e-06
2.25187e-05
-7.43097e-07
2.24553e-05
8.28192e-08
2.26116e-05
5.60919e-08
2.25975e-05
2.03508e-08
2.24314e-05
5.92589e-08
2.22068e-05
1.94399e-07
2.19416e-05
2.76083e-07
2.18004e-05
2.60026e-07
2.18253e-05
1.34032e-07
2.17351e-05
3.33625e-07
2.16073e-05
3.76324e-07
2.14205e-05
4.8014e-07
2.11633e-05
5.70986e-07
2.08949e-05
7.10298e-07
2.05893e-05
7.79324e-07
2.0487e-05
1.0602e-06
2.02858e-05
1.25558e-06
1.98663e-05
1.04303e-06
1.89531e-05
1.21506e-06
1.78482e-05
1.18015e-06
1.71284e-05
9.44586e-07
1.65723e-05
6.86422e-07
1.62631e-05
4.26525e-07
1.59613e-05
5.639e-07
1.57427e-05
5.02869e-07
1.55183e-05
5.23126e-07
1.51554e-05
7.0201e-07
1.47583e-05
7.68473e-07
1.43586e-05
8.04786e-07
1.39358e-05
8.55721e-07
1.34885e-05
8.93872e-07
1.30203e-05
9.29799e-07
1.25202e-05
9.93958e-07
1.19931e-05
1.04741e-06
1.14419e-05
1.09416e-06
1.08814e-05
1.11965e-06
1.03025e-05
1.15061e-06
9.70442e-06
1.1936e-06
9.09024e-06
1.23538e-06
8.4628e-06
1.26515e-06
7.8242e-06
1.28653e-06
7.18104e-06
1.29364e-06
6.53748e-06
1.28829e-06
5.88621e-06
1.29801e-06
5.22176e-06
1.32094e-06
4.55429e-06
1.33471e-06
3.89536e-06
1.33491e-06
3.24999e-06
1.30956e-06
2.6094e-06
1.28045e-06
1.96963e-06
1.27189e-06
1.33304e-06
1.26671e-06
7.09421e-07
1.2488e-06
1.08847e-07
1.21165e-06
-4.75689e-07
1.17838e-06
-1.05304e-06
1.15283e-06
-1.62129e-06
1.12646e-06
-2.17446e-06
1.09698e-06
-2.70927e-06
1.06298e-06
-3.22769e-06
1.03169e-06
-3.73234e-06
1.00855e-06
-4.22247e-06
9.82491e-07
-4.69745e-06
9.47554e-07
-5.15747e-06
9.14782e-07
-5.60644e-06
8.94443e-07
-6.04405e-06
8.76253e-07
-6.46853e-06
8.4654e-07
-6.87394e-06
8.06228e-07
-7.26374e-06
7.76661e-07
-7.64422e-06
7.60347e-07
-8.01374e-06
7.40297e-07
-8.36988e-06
7.13399e-07
-8.71181e-06
6.79734e-07
-9.03741e-06
6.4627e-07
-9.34836e-06
6.18361e-07
-9.64613e-06
5.95507e-07
-9.93234e-06
5.76824e-07
-1.02102e-05
5.5773e-07
-1.04762e-05
5.32884e-07
-1.07298e-05
5.06397e-07
-1.09713e-05
4.80073e-07
-1.11972e-05
4.4775e-07
-1.14072e-05
4.17565e-07
-1.16048e-05
3.94783e-07
-1.17909e-05
3.74424e-07
-1.1968e-05
3.57859e-07
-1.21375e-05
3.40191e-07
-1.22973e-05
3.15375e-07
-1.24437e-05
2.8899e-07
-1.25764e-05
2.62611e-07
-1.26947e-05
2.38853e-07
-1.28024e-05
2.20584e-07
-1.29017e-05
2.02754e-07
-1.29934e-05
1.85385e-07
-1.30782e-05
1.66291e-07
-1.31517e-05
1.43454e-07
-1.32125e-05
1.19457e-07
-1.32625e-05
9.97084e-08
-1.33047e-05
8.66773e-08
-1.33412e-05
7.57905e-08
-1.33704e-05
6.15354e-08
-1.33913e-05
4.3397e-08
-1.34024e-05
2.12381e-08
-1.34057e-05
4.59484e-09
-1.34029e-05
-6.74943e-09
-1.33938e-05
-1.74591e-08
-1.3378e-05
-2.97591e-08
-1.33545e-05
-4.39118e-08
-1.33249e-05
-5.95309e-08
-1.32901e-05
-7.14361e-08
-1.32518e-05
-7.73047e-08
-1.32098e-05
-8.13022e-08
-1.31621e-05
-9.08464e-08
-1.31078e-05
-1.09916e-07
-1.30461e-05
-1.25412e-07
-1.29808e-05
-1.32991e-07
-1.29119e-05
-1.37803e-07
-1.28412e-05
-1.38065e-07
-1.277e-05
-1.38258e-07
-1.2696e-05
-1.44959e-07
-1.26192e-05
-1.56576e-07
-1.25357e-05
-1.6932e-07
-1.24501e-05
-1.74177e-07
-1.23632e-05
-1.74948e-07
-1.22756e-05
-1.72066e-07
-1.2189e-05
-1.68632e-07
-1.21031e-05
-1.69168e-07
-1.20179e-05
-1.71911e-07
-1.19307e-05
-1.77141e-07
-1.18424e-05
-1.79536e-07
-1.17548e-05
-1.76779e-07
-1.16694e-05
-1.68171e-07
-1.15884e-05
-1.58798e-07
-1.15091e-05
-1.57614e-07
-1.14286e-05
-1.60425e-07
-1.13482e-05
-1.60754e-07
-1.12687e-05
-1.59177e-07
-1.1192e-05
-1.53794e-07
-1.11197e-05
-1.4551e-07
-1.1052e-05
-1.37828e-07
-1.09871e-05
-1.31852e-07
-1.09232e-05
-1.26953e-07
-1.08593e-05
-1.24317e-07
-1.0795e-05
-1.23964e-07
-1.07335e-05
-1.2395e-07
-1.06735e-05
-1.23204e-07
-1.06156e-05
-1.19824e-07
-1.05592e-05
-1.14149e-07
-1.05041e-05
-1.06275e-07
-1.04489e-05
-1.06866e-07
-1.03923e-05
-1.15505e-07
-1.03335e-05
-1.19746e-07
-1.02759e-05
-1.17833e-07
-1.02189e-05
-1.16362e-07
-1.01605e-05
-1.15826e-07
-1.00988e-05
-1.2036e-07
-1.00337e-05
-1.28238e-07
-9.96669e-06
-1.33624e-07
-9.89884e-06
-1.37669e-07
-9.83013e-06
-1.40848e-07
-9.75899e-06
-1.44613e-07
-9.68166e-06
-1.53431e-07
-9.59801e-06
-1.64917e-07
-9.51056e-06
-1.74856e-07
-9.41906e-06
-1.85063e-07
-9.32365e-06
-1.92593e-07
-9.22534e-06
-1.96534e-07
-9.12283e-06
-2.02781e-07
-9.01418e-06
-2.15009e-07
-8.89809e-06
-2.33061e-07
-8.77481e-06
-2.48078e-07
-8.64592e-06
-2.59344e-07
-8.51164e-06
-2.70626e-07
-8.37103e-06
-2.81854e-07
-8.22315e-06
-2.92914e-07
-8.0687e-06
-3.05936e-07
-7.9078e-06
-3.2117e-07
-7.73998e-06
-3.36776e-07
-7.56417e-06
-3.52959e-07
-7.37982e-06
-3.69542e-07
-7.18706e-06
-3.86061e-07
-6.98651e-06
-4.01858e-07
-6.7794e-06
-4.14068e-07
-6.56535e-06
-4.25766e-07
-6.34283e-06
-4.43978e-07
-6.1108e-06
-4.64581e-07
-5.87077e-06
-4.80911e-07
-5.62358e-06
-4.95741e-07
-5.3692e-06
-5.10566e-07
-5.10651e-06
-5.26171e-07
-4.83621e-06
-5.39702e-07
-4.55893e-06
-5.53444e-07
-4.27482e-06
-5.68131e-07
-3.98479e-06
-5.81576e-07
-3.68931e-06
-5.93467e-07
-3.38814e-06
-6.04655e-07
-3.08133e-06
-6.14197e-07
-2.77004e-06
-6.21621e-07
-2.45625e-06
-6.27512e-07
-2.14141e-06
-6.31683e-07
-1.82475e-06
-6.36145e-07
-1.50586e-06
-6.39974e-07
-1.18601e-06
-6.40156e-07
-8.67099e-07
-6.37408e-07
-5.51055e-07
-6.33167e-07
-2.3774e-07
-6.28147e-07
7.37041e-08
-6.22807e-07
3.81986e-07
-6.15051e-07
6.85498e-07
-6.05383e-07
9.83897e-07
-5.95699e-07
1.27781e-06
-5.86899e-07
1.56733e-06
-5.77793e-07
1.85177e-06
-5.67012e-07
2.13045e-06
-5.55272e-07
2.40327e-06
-5.44206e-07
2.67082e-06
-5.34061e-07
2.93317e-06
-5.23486e-07
3.18992e-06
-5.1203e-07
3.44071e-06
-5.0005e-07
3.68523e-06
-4.87797e-07
3.92351e-06
-4.75563e-07
4.15562e-06
-4.63273e-07
4.38153e-06
-4.50687e-07
4.60107e-06
-4.37683e-07
4.81405e-06
-4.24657e-07
5.02028e-06
-4.11529e-07
5.2196e-06
-3.97914e-07
5.41201e-06
-3.8399e-07
5.59759e-06
-3.7011e-07
5.77632e-06
-3.56453e-07
5.94799e-06
-3.4266e-07
6.11245e-06
-3.28542e-07
6.26959e-06
-3.13831e-07
6.41934e-06
-2.98729e-07
6.56173e-06
-2.84034e-07
6.69685e-06
-2.69805e-07
6.82476e-06
-2.55632e-07
6.94534e-06
-2.41143e-07
7.05867e-06
-2.26559e-07
7.16474e-06
-2.11862e-07
7.26343e-06
-1.97138e-07
7.35473e-06
-1.82544e-07
7.43884e-06
-1.6831e-07
7.51573e-06
-1.53992e-07
7.58537e-06
-1.39539e-07
7.64804e-06
-1.2542e-07
7.70388e-06
-1.11637e-07
7.75284e-06
-9.80349e-08
7.79496e-06
-8.45665e-08
7.83031e-06
-7.11309e-08
7.85901e-06
-5.76746e-08
7.8812e-06
-4.4538e-08
7.89706e-06
-3.20033e-08
7.90672e-06
-1.97412e-08
7.91028e-06
-7.47203e-09
7.90789e-06
4.52749e-09
7.89953e-06
1.63044e-08
7.88535e-06
2.78152e-08
7.86566e-06
3.88276e-08
7.84072e-06
4.94062e-08
7.81058e-06
5.97856e-08
7.7753e-06
7.00048e-08
7.73506e-06
7.98504e-08
7.69004e-06
8.93945e-08
7.64033e-06
9.8796e-08
7.58623e-06
1.07891e-07
7.52773e-06
1.16664e-07
7.46498e-06
1.24964e-07
7.39812e-06
1.32972e-07
7.32732e-06
1.40864e-07
7.25266e-06
1.48706e-07
7.1743e-06
1.56234e-07
7.09244e-06
1.63156e-07
7.00734e-06
1.69594e-07
6.91902e-06
1.76077e-07
6.82751e-06
1.8252e-07
6.73276e-06
1.88928e-07
6.63502e-06
1.94891e-07
6.5345e-06
2.00753e-07
6.43134e-06
2.06522e-07
6.32539e-06
2.12053e-07
6.21682e-06
2.16938e-07
6.10578e-06
2.21663e-07
5.99235e-06
2.26464e-07
5.87647e-06
2.31366e-07
5.75834e-06
2.3595e-07
5.63797e-06
2.40604e-07
5.51565e-06
2.44593e-07
5.39127e-06
2.48436e-07
5.26483e-06
2.52369e-07
5.13659e-06
2.5637e-07
5.00676e-06
2.60003e-07
4.87515e-06
2.63322e-07
4.7416e-06
2.66659e-07
4.60635e-06
2.70009e-07
4.4698e-06
2.7267e-07
4.332e-06
2.75492e-07
4.19301e-06
2.78397e-07
4.05277e-06
2.81192e-07
3.91091e-06
2.83873e-07
3.76828e-06
2.85262e-07
3.62498e-06
2.8626e-07
3.48104e-06
2.87722e-07
3.33679e-06
2.886e-07
3.19246e-06
2.89513e-07
3.04774e-06
2.90183e-07
2.90304e-06
2.89891e-07
2.75836e-06
2.88801e-07
2.61436e-06
2.87633e-07
2.47153e-06
2.85644e-07
2.32974e-06
2.84341e-07
2.18948e-06
2.81695e-07
2.05006e-06
2.79933e-07
1.91175e-06
2.76557e-07
1.77371e-06
2.748e-07
1.63686e-06
2.7218e-07
1.50274e-06
2.67604e-07
1.37176e-06
2.63838e-07
1.2438e-06
2.58797e-07
1.11638e-06
2.55963e-07
9.92183e-07
2.49451e-07
8.67607e-07
2.46739e-07
7.34359e-07
2.53584e-07
6.13556e-07
2.35389e-07
4.90763e-07
2.34561e-07
3.75919e-07
2.39703e-07
2.67842e-07
2.1436e-07
1.8361e-07
1.95428e-07
1.11325e-07
1.88228e-07
1.93274e-08
1.99421e-07
-8.64942e-08
1.84271e-07
-2.0349e-07
1.85918e-07
-3.06887e-07
1.96025e-07
-4.03798e-07
1.89044e-07
-4.93576e-07
1.91511e-07
-5.74227e-07
1.77071e-07
-6.50948e-07
1.67895e-07
-7.35446e-07
1.69559e-07
-8.45145e-07
1.93748e-07
-9.61059e-07
1.94179e-07
-1.04671e-06
1.61242e-07
-1.10309e-06
1.57391e-07
-1.09131e-06
8.79763e-08
-1.05464e-06
4.59361e-08
-9.09418e-07
-6.87794e-08
-7.10616e-07
-1.76576e-07
-5.6135e-07
-1.59052e-07
-5.07334e-07
-1.86941e-07
-5.38252e-07
-1.8535e-07
-5.62151e-07
-1.38307e-07
-5.68145e-07
-1.14029e-07
-5.77462e-07
-4.69476e-08
-5.72111e-07
-4.91132e-08
-5.71186e-07
-1.81524e-08
-5.72363e-07
-1.49309e-08
-5.78687e-07
4.6892e-09
-5.81306e-07
1.73247e-09
-5.72952e-07
-1.76896e-08
-6.05238e-07
4.15305e-08
-5.8058e-07
-2.79484e-08
-5.15491e-07
-7.87796e-08
-5.87643e-07
1.04667e-07
-5.55067e-07
-5.89897e-08
-7.11591e-07
8.15247e-08
-5.65912e-07
-4.27579e-08
-8.81143e-07
2.44302e-07
-1.16368e-06
3.6059e-07
-1.07933e-06
-1.5461e-07
-9.52908e-07
2.24962e-07
-6.97339e-07
1.41234e-07
-6.92247e-07
-1.44735e-07
-6.63564e-07
-1.90362e-07
-6.29731e-07
-1.91907e-07
-5.85938e-07
-1.43253e-07
-5.4793e-07
-1.14865e-07
-5.09462e-07
-1.05581e-07
-4.69246e-07
-1.01352e-07
-4.28156e-07
-9.55234e-08
-3.84665e-07
-9.23699e-08
-3.38019e-07
-9.68816e-08
-2.88719e-07
-1.02631e-07
-2.39018e-07
-1.01775e-07
-1.8792e-07
-1.04215e-07
-1.34481e-07
-1.08037e-07
-7.86061e-08
-1.09762e-07
-2.0194e-08
-1.17136e-07
4.0774e-08
-1.2261e-07
1.04267e-07
-1.25299e-07
1.70102e-07
-1.27053e-07
2.3865e-07
-1.35905e-07
3.09365e-07
-1.42798e-07
3.81939e-07
-1.44067e-07
4.56048e-07
-1.44551e-07
5.32134e-07
-1.47452e-07
6.09807e-07
-1.52809e-07
6.89367e-07
-1.58276e-07
7.7118e-07
-1.62095e-07
8.55688e-07
-1.67133e-07
9.41323e-07
-1.69396e-07
1.02683e-06
-1.71904e-07
1.11424e-06
-1.72322e-07
1.20426e-06
-1.74677e-07
1.29631e-06
-1.81272e-07
1.39057e-06
-1.88879e-07
1.48665e-06
-1.94946e-07
1.58412e-06
-1.98766e-07
1.68391e-06
-2.01734e-07
1.7852e-06
-2.03786e-07
1.88785e-06
-2.05789e-07
1.99219e-06
-2.08428e-07
2.09792e-06
-2.11308e-07
2.20414e-06
-2.13827e-07
2.31118e-06
-2.13855e-07
2.41909e-06
-2.17493e-07
2.52749e-06
-2.20863e-07
2.63653e-06
-2.20364e-07
2.74638e-06
-2.18904e-07
2.85704e-06
-2.18847e-07
2.96856e-06
-2.19976e-07
3.0808e-06
-2.21835e-07
3.19347e-06
-2.24092e-07
3.30679e-06
-2.26356e-07
3.42097e-06
-2.28434e-07
3.53599e-06
-2.30142e-07
3.65166e-06
-2.31271e-07
3.76772e-06
-2.3185e-07
3.88413e-06
-2.32303e-07
4.00089e-06
-2.33096e-07
4.11817e-06
-2.34413e-07
4.23606e-06
-2.35874e-07
4.35397e-06
-2.36418e-07
4.47165e-06
-2.35927e-07
4.58946e-06
-2.35499e-07
4.70796e-06
-2.3618e-07
4.82712e-06
-2.37633e-07
4.94642e-06
-2.38863e-07
5.06521e-06
-2.38178e-07
5.18429e-06
-2.38039e-07
5.30435e-06
-2.37907e-07
5.42497e-06
-2.40436e-07
5.54536e-06
-2.38958e-07
5.66506e-06
-2.37629e-07
5.78585e-06
-2.39373e-07
5.90741e-06
-2.46385e-07
6.02915e-06
-2.50312e-07
6.15026e-06
-2.49528e-07
6.27069e-06
-2.47856e-07
6.39021e-06
-2.46634e-07
6.51023e-06
-2.46631e-07
-2.49512e-07
5.11841e-05
1.52416e-06
5.14721e-05
1.20487e-06
5.64716e-05
-5.15784e-06
6.8523e-05
-2.11419e-05
7.83123e-05
-2.84131e-05
8.57999e-05
-2.74308e-05
9.21346e-05
-2.00122e-05
9.28881e-05
-3.39808e-06
8.84963e-05
6.77465e-06
8.25842e-05
8.85243e-06
7.68943e-05
7.59693e-06
7.22844e-05
5.29369e-06
6.81681e-05
3.7873e-06
6.45644e-05
1.93745e-06
6.16701e-05
-1.4688e-07
5.92177e-05
-1.3171e-06
5.6625e-05
-8.58883e-07
5.39235e-05
1.07656e-06
5.14028e-05
3.61326e-06
4.93383e-05
6.31634e-06
4.78444e-05
8.83291e-06
4.76867e-05
1.04753e-05
4.82935e-05
1.10892e-05
4.86441e-05
1.08854e-05
4.84496e-05
9.5555e-06
4.76642e-05
7.5216e-06
4.67303e-05
5.7438e-06
4.56668e-05
5.00599e-06
4.4444e-05
5.09781e-06
4.30315e-05
5.64847e-06
4.14288e-05
5.88765e-06
3.97948e-05
5.46669e-06
3.86813e-05
4.42676e-06
3.80869e-05
3.39314e-06
3.74823e-05
2.38147e-06
3.66285e-05
1.71961e-06
3.57994e-05
1.58587e-06
3.50948e-05
2.13307e-06
3.46581e-05
3.12005e-06
3.42815e-05
3.19634e-06
3.36183e-05
2.66186e-06
3.28182e-05
1.42388e-06
3.21963e-05
9.33131e-07
3.15776e-05
1.24084e-06
3.09055e-05
2.30636e-06
3.01953e-05
2.94818e-06
2.93498e-05
2.8589e-06
2.84301e-05
1.96247e-06
2.77191e-05
9.73897e-07
2.7254e-05
4.66059e-07
2.68782e-05
2.99082e-07
2.64832e-05
3.66835e-07
2.5974e-05
6.06447e-07
2.54423e-05
1.19697e-06
2.51998e-05
1.66325e-06
2.52555e-05
1.6505e-06
2.55059e-05
1.3369e-06
2.55748e-05
1.18266e-06
2.51336e-05
1.53222e-06
2.42281e-05
2.24784e-06
2.33261e-05
2.68272e-06
2.25298e-05
2.423e-06
2.18636e-05
1.23469e-06
2.14022e-05
-2.51107e-07
2.1236e-05
-1.0438e-06
2.11729e-05
-1.1141e-06
2.11304e-05
-7.52264e-07
2.09617e-05
-2.37254e-07
2.06326e-05
3.38008e-08
2.0223e-05
-2.05657e-07
1.97762e-05
-1.15644e-06
1.9285e-05
-2.32444e-06
1.88369e-05
-3.35938e-06
1.86168e-05
-3.97586e-06
1.86845e-05
-4.10465e-06
1.92206e-05
-3.70356e-06
2.05336e-05
-2.81616e-06
2.40662e-05
-1.47386e-06
2.91021e-05
5.82937e-07
3.33368e-05
2.02492e-06
3.66999e-05
5.84804e-06
3.6658e-05