/*--------------------------------*- C++ -*----------------------------------*\
| =========                 |                                                 |
| \\      /  F ield         | OpenFOAM: The Open Source CFD Toolbox           |
|  \\    /   O peration     | Version:  v2006                                 |
|   \\  /    A nd           | Website:  www.openfoam.com                      |
|    \\/     M anipulation  |                                                 |
\*---------------------------------------------------------------------------*/
FoamFile
{
    version     2.0;
    format      ascii;
    class       volScalarField;
    location    "6.8";
    object      k;
}
// * * * * * * * * * * * * * * * * * * * * * * * * * * * * * * * * * * * * * //

dimensions      [0 2 -2 0 0 0 0];


internalField   nonuniform List<scalar> 
33000
(
1.14125e-08
1.4689e-08
1.96155e-08
2.42515e-08
2.76328e-08
3.08695e-08
3.46133e-08
3.84311e-08
4.1692e-08
4.45505e-08
4.75545e-08
5.11134e-08
5.55696e-08
6.12371e-08
6.82631e-08
7.64227e-08
8.46598e-08
9.07242e-08
9.45833e-08
9.95451e-08
1.08624e-07
1.28374e-07
1.69116e-07
2.3597e-07
3.15778e-07
3.85672e-07
4.3301e-07
4.59984e-07
4.74245e-07
4.81723e-07
4.85238e-07
4.85792e-07
4.83908e-07
4.80135e-07
4.75548e-07
4.71701e-07
4.69545e-07
4.68853e-07
4.68141e-07
4.65407e-07
4.6085e-07
4.56554e-07
4.53481e-07
4.51384e-07
4.49541e-07
4.46767e-07
4.4214e-07
4.36725e-07
4.3176e-07
4.27698e-07
4.2506e-07
4.24021e-07
4.24858e-07
4.274e-07
4.3051e-07
4.32721e-07
4.32148e-07
4.2768e-07
4.19642e-07
4.08587e-07
3.94195e-07
3.75975e-07
3.54687e-07
3.26697e-07
3.00448e-07
2.80613e-07
2.66198e-07
2.53043e-07
2.39278e-07
2.24646e-07
2.1012e-07
1.96529e-07
1.86054e-07
1.80277e-07
1.79222e-07
1.83824e-07
1.94111e-07
2.10564e-07
2.32011e-07
2.5521e-07
2.74605e-07
2.91445e-07
3.05432e-07
3.13374e-07
3.20172e-07
3.22249e-07
3.21207e-07
3.17977e-07
3.11566e-07
3.02494e-07
2.86617e-07
2.69116e-07
2.51026e-07
2.32804e-07
2.14804e-07
2.00541e-07
1.9103e-07
1.85108e-07
1.8648e-07
1.97203e-07
2.14258e-07
2.26093e-07
2.29996e-07
2.307e-07
2.31686e-07
2.32684e-07
2.32733e-07
2.31059e-07
2.28102e-07
2.24329e-07
2.20249e-07
2.15804e-07
2.10234e-07
2.02766e-07
1.94037e-07
1.86602e-07
1.82749e-07
1.86042e-07
1.93492e-07
1.97171e-07
1.97769e-07
1.97333e-07
1.97615e-07
1.98506e-07
1.99422e-07
1.99994e-07
2.00256e-07
2.00274e-07
2.00374e-07
2.00509e-07
2.00624e-07
2.00617e-07
2.00525e-07
2.00335e-07
2.00133e-07
1.99916e-07
1.99748e-07
1.99593e-07
1.99442e-07
1.99266e-07
1.99114e-07
1.99018e-07
1.98956e-07
1.98923e-07
1.98877e-07
1.98852e-07
1.98894e-07
1.99054e-07
1.99302e-07
1.99567e-07
1.99822e-07
2.00128e-07
2.00529e-07
2.01054e-07
2.01634e-07
2.02183e-07
2.02631e-07
2.02984e-07
2.03256e-07
2.03445e-07
2.03568e-07
2.03639e-07
2.03637e-07
2.03523e-07
2.03305e-07
2.03022e-07
2.02685e-07
2.02243e-07
2.01662e-07
2.00983e-07
2.0027e-07
1.99534e-07
1.98724e-07
1.97801e-07
1.96795e-07
1.95782e-07
1.94799e-07
1.93837e-07
1.92903e-07
1.92015e-07
1.91185e-07
1.90382e-07
1.89571e-07
1.88769e-07
1.88052e-07
1.87458e-07
1.86956e-07
1.86466e-07
1.8593e-07
1.85357e-07
1.84782e-07
1.84232e-07
1.83705e-07
1.83152e-07
1.8251e-07
1.81747e-07
1.80873e-07
1.7994e-07
1.79027e-07
1.7818e-07
1.77336e-07
1.76382e-07
1.75255e-07
1.74001e-07
1.72734e-07
1.71523e-07
1.70355e-07
1.69156e-07
1.67871e-07
1.66548e-07
1.65323e-07
1.6426e-07
1.63257e-07
1.62157e-07
1.60995e-07
1.59969e-07
1.59138e-07
1.58491e-07
1.57969e-07
1.5742e-07
1.56794e-07
1.56182e-07
1.55696e-07
1.55376e-07
1.5519e-07
1.55054e-07
1.54838e-07
1.54556e-07
1.5427e-07
1.54014e-07
1.53859e-07
1.53796e-07
1.53735e-07
1.53559e-07
1.53312e-07
1.53071e-07
1.52826e-07
1.52596e-07
1.52379e-07
1.52135e-07
1.51864e-07
1.51587e-07
1.5128e-07
1.50902e-07
1.5045e-07
1.49969e-07
1.49515e-07
1.49101e-07
1.48695e-07
1.48172e-07
1.47534e-07
1.46908e-07
1.46316e-07
1.45723e-07
1.45118e-07
1.44462e-07
1.4374e-07
1.42995e-07
1.4224e-07
1.41471e-07
1.40695e-07
1.39886e-07
1.39022e-07
1.38124e-07
1.3721e-07
1.36313e-07
1.35432e-07
1.3452e-07
1.3353e-07
1.32476e-07
1.31417e-07
1.30374e-07
1.29329e-07
1.28278e-07
1.27213e-07
1.261e-07
1.24947e-07
1.23773e-07
1.22582e-07
1.2138e-07
1.20175e-07
1.18979e-07
1.17797e-07
1.16611e-07
1.15386e-07
1.14146e-07
1.12927e-07
1.11723e-07
1.10531e-07
1.0935e-07
1.08177e-07
1.07e-07
1.05823e-07
1.04662e-07
1.03526e-07
1.02413e-07
1.01314e-07
1.00222e-07
9.9131e-08
9.80446e-08
9.69625e-08
9.58876e-08
9.48127e-08
9.37183e-08
9.25895e-08
9.14127e-08
9.02081e-08
8.90041e-08
8.78007e-08
8.66068e-08
8.54382e-08
8.43049e-08
8.32058e-08
8.21332e-08
8.10876e-08
8.00804e-08
7.91174e-08
7.81957e-08
7.73139e-08
7.64748e-08
7.5684e-08
7.49452e-08
7.42576e-08
7.36212e-08
7.30397e-08
7.25167e-08
7.20491e-08
7.16275e-08
7.12443e-08
7.0896e-08
7.05794e-08
7.03012e-08
7.0062e-08
6.98577e-08
6.96832e-08
6.95315e-08
6.93907e-08
6.92474e-08
6.90899e-08
6.89096e-08
6.87032e-08
6.84724e-08
6.82203e-08
6.79506e-08
6.7663e-08
6.73553e-08
6.70281e-08
6.66846e-08
6.63279e-08
6.5958e-08
6.5573e-08
6.51708e-08
6.47524e-08
6.432e-08
6.38734e-08
6.34114e-08
6.2936e-08
6.24497e-08
6.19535e-08
6.14475e-08
6.09323e-08
6.04083e-08
5.98759e-08
5.93361e-08
5.87895e-08
5.82368e-08
5.76788e-08
5.71167e-08
5.65517e-08
5.59848e-08
5.54159e-08
5.48444e-08
5.42694e-08
5.36915e-08
5.31109e-08
5.25269e-08
5.19388e-08
5.13466e-08
5.07506e-08
5.01509e-08
4.95458e-08
4.89358e-08
4.83212e-08
4.77035e-08
4.70831e-08
4.64608e-08
4.58381e-08
4.52152e-08
4.45931e-08
4.39737e-08
4.33571e-08
4.27426e-08
4.21306e-08
4.15242e-08
4.09236e-08
4.03304e-08
3.97448e-08
3.91692e-08
3.86052e-08
3.80597e-08
3.75325e-08
3.70252e-08
3.65383e-08
3.60713e-08
3.56243e-08
3.51966e-08
3.47881e-08
3.4398e-08
3.40291e-08
3.36767e-08
3.33463e-08
3.30273e-08
3.27276e-08
3.24326e-08
3.21577e-08
3.1892e-08
3.16323e-08
3.13903e-08
3.11397e-08
3.08844e-08
3.06713e-08
3.04451e-08
3.02328e-08
3.00597e-08
2.97055e-08
2.93962e-08
2.93475e-08
2.89448e-08
2.89643e-08
2.88734e-08
2.9686e-08
2.99716e-08
3.04682e-08
3.06763e-08
3.08823e-08
3.09514e-08
3.09541e-08
3.09361e-08
3.08901e-08
3.08557e-08
3.07633e-08
3.07864e-08
3.0656e-08
3.04185e-08
3.03897e-08
3.00627e-08
2.96707e-08
2.91897e-08
2.93005e-08
2.93808e-08
2.9608e-08
2.98349e-08
2.99505e-08
3.00566e-08
3.01062e-08
3.01724e-08
3.01809e-08
3.00847e-08
2.99971e-08
2.99528e-08
2.97366e-08
2.98896e-08
2.96992e-08
2.90342e-08
2.88293e-08
2.83899e-08
2.79001e-08
2.81333e-08
2.92788e-08
3.15535e-08
3.41485e-08
3.76202e-08
4.07944e-08
4.38796e-08
4.64349e-08
4.85388e-08
5.02529e-08
5.16684e-08
5.28246e-08
5.37444e-08
5.45122e-08
5.5188e-08
5.57569e-08
5.62575e-08
5.67167e-08
5.71046e-08
5.74714e-08
5.78249e-08
5.81477e-08
5.84091e-08
5.86651e-08
5.89305e-08
5.91747e-08
5.93845e-08
5.95672e-08
5.97402e-08
5.99092e-08
6.00641e-08
6.02115e-08
6.0342e-08
6.04791e-08
6.05896e-08
6.06609e-08
6.07199e-08
6.07798e-08
6.08409e-08
6.08994e-08
6.09475e-08
6.09838e-08
6.10077e-08
6.10205e-08
6.10265e-08
6.10348e-08
6.10197e-08
6.10021e-08
6.09997e-08
6.09942e-08
6.09715e-08
6.09333e-08
6.0882e-08
6.08196e-08
6.075e-08
6.0674e-08
6.05921e-08
6.05051e-08
6.04129e-08
6.03145e-08
6.02076e-08
6.00921e-08
5.99702e-08
5.98448e-08
5.97189e-08
5.95892e-08
5.94488e-08
5.92963e-08
5.91356e-08
5.89739e-08
5.88094e-08
5.86403e-08
5.84563e-08
5.82792e-08
5.81009e-08
5.7914e-08
5.77074e-08
5.7511e-08
5.7331e-08
5.71759e-08
5.6977e-08
5.66973e-08
5.58867e-08
1.0332e-08
1.13213e-08
1.28126e-08
1.38268e-08
1.44759e-08
1.55233e-08
1.74951e-08
2.03487e-08
2.32751e-08
2.63899e-08
3.06208e-08
3.77632e-08
4.97493e-08
6.7566e-08
9.16198e-08
1.21089e-07
1.53784e-07
1.85649e-07
2.11511e-07
2.28197e-07
2.37835e-07
2.45662e-07
2.60998e-07
2.82018e-07
2.9143e-07
2.76646e-07
2.4463e-07
2.1279e-07
1.94755e-07
1.89699e-07
1.85255e-07
1.74032e-07
1.59331e-07
1.42281e-07
1.1897e-07
9.76194e-08
9.23067e-08
1.06656e-07
1.2725e-07
1.31256e-07
1.11309e-07
8.64657e-08
7.63885e-08
8.26687e-08
9.81048e-08
1.08033e-07
1.01132e-07
8.12609e-08
6.46944e-08
5.69037e-08
5.38645e-08
5.29323e-08
5.43212e-08
6.34501e-08
7.87765e-08
9.03785e-08
9.21099e-08
8.45767e-08
7.45907e-08
7.10564e-08
7.24627e-08
6.74759e-08
5.19822e-08
4.09362e-08
3.78153e-08
3.93582e-08
4.38112e-08
5.05591e-08
5.92538e-08
6.85545e-08
7.65212e-08
7.94016e-08
8.04126e-08
8.32499e-08
8.88391e-08
9.79386e-08
1.13572e-07
1.4518e-07
1.59092e-07
1.63622e-07
2.00725e-07
2.33208e-07
2.13176e-07
1.89053e-07
1.35342e-07
1.06743e-07
7.66669e-08
5.62138e-08
3.993e-08
3.12893e-08
2.94837e-08
3.10197e-08
3.48842e-08
4.04377e-08
4.68802e-08
5.44125e-08
6.21273e-08
6.61561e-08
6.79179e-08
6.81088e-08
6.60042e-08
6.33615e-08
5.91813e-08
5.12792e-08
4.4203e-08
3.64682e-08
2.81776e-08
2.39121e-08
2.35363e-08
2.35626e-08
2.33263e-08
2.31064e-08
2.25816e-08
2.22136e-08
2.22945e-08
2.21605e-08
2.25722e-08
2.27207e-08
2.35026e-08
2.47124e-08
2.54756e-08
2.56496e-08
2.65064e-08
2.56122e-08
2.41345e-08
2.37059e-08
2.34273e-08
2.34325e-08
2.37795e-08
2.36426e-08
2.33401e-08
2.31567e-08
2.2976e-08
2.31165e-08
2.31891e-08
2.32341e-08
2.31735e-08
2.30427e-08
2.30511e-08
2.30204e-08
2.29744e-08
2.28281e-08
2.26121e-08
2.2313e-08
2.20923e-08
2.19717e-08
2.19051e-08
2.18194e-08
2.16039e-08
2.12679e-08
2.10574e-08
2.09532e-08
2.08615e-08
2.07195e-08
2.05395e-08
2.03678e-08
2.0204e-08
2.00544e-08
1.99012e-08
1.97469e-08
1.96293e-08
1.95163e-08
1.93453e-08
1.91538e-08
1.90269e-08
1.89414e-08
1.88115e-08
1.86122e-08
1.84405e-08
1.83367e-08
1.82518e-08
1.81381e-08
1.79775e-08
1.7805e-08
1.76686e-08
1.75666e-08
1.74846e-08
1.73932e-08
1.72869e-08
1.71733e-08
1.70592e-08
1.69289e-08
1.67903e-08
1.66764e-08
1.65837e-08
1.65054e-08
1.64248e-08
1.63181e-08
1.61973e-08
1.60827e-08
1.59819e-08
1.59003e-08
1.58197e-08
1.57318e-08
1.56318e-08
1.5522e-08
1.54135e-08
1.53197e-08
1.52462e-08
1.51851e-08
1.51182e-08
1.50383e-08
1.49467e-08
1.48575e-08
1.47791e-08
1.47114e-08
1.46476e-08
1.4579e-08
1.45033e-08
1.44275e-08
1.43601e-08
1.42976e-08
1.42267e-08
1.41414e-08
1.40533e-08
1.398e-08
1.39245e-08
1.38743e-08
1.38121e-08
1.37307e-08
1.36406e-08
1.35595e-08
1.34968e-08
1.34482e-08
1.34005e-08
1.33424e-08
1.32723e-08
1.3199e-08
1.31342e-08
1.30843e-08
1.30464e-08
1.30082e-08
1.29616e-08
1.29092e-08
1.28585e-08
1.28157e-08
1.27829e-08
1.27576e-08
1.27334e-08
1.27079e-08
1.26854e-08
1.26668e-08
1.26471e-08
1.26235e-08
1.26005e-08
1.25859e-08
1.25841e-08
1.2585e-08
1.2574e-08
1.25528e-08
1.25339e-08
1.25244e-08
1.25214e-08
1.25178e-08
1.25095e-08
1.24969e-08
1.24819e-08
1.24682e-08
1.24579e-08
1.24489e-08
1.24381e-08
1.24236e-08
1.24064e-08
1.23931e-08
1.23895e-08
1.23928e-08
1.23928e-08
1.23798e-08
1.23577e-08
1.2338e-08
1.23271e-08
1.23261e-08
1.23314e-08
1.23341e-08
1.23284e-08
1.23171e-08
1.23057e-08
1.22961e-08
1.22874e-08
1.22796e-08
1.2277e-08
1.2282e-08
1.22852e-08
1.22775e-08
1.2263e-08
1.225e-08
1.22414e-08
1.22367e-08
1.22361e-08
1.22357e-08
1.2229e-08
1.22153e-08
1.21998e-08
1.21856e-08
1.21755e-08
1.21693e-08
1.21598e-08
1.21445e-08
1.21254e-08
1.21032e-08
1.20823e-08
1.20649e-08
1.20449e-08
1.20191e-08
1.19888e-08
1.19578e-08
1.19269e-08
1.18938e-08
1.18574e-08
1.18192e-08
1.17839e-08
1.17533e-08
1.1724e-08
1.16912e-08
1.16552e-08
1.16213e-08
1.15919e-08
1.15644e-08
1.15371e-08
1.15105e-08
1.14862e-08
1.1466e-08
1.14477e-08
1.14293e-08
1.14121e-08
1.13991e-08
1.13909e-08
1.13843e-08
1.13771e-08
1.13709e-08
1.13686e-08
1.13725e-08
1.13792e-08
1.13836e-08
1.13843e-08
1.13836e-08
1.13845e-08
1.13875e-08
1.13923e-08
1.13964e-08
1.13974e-08
1.13962e-08
1.13945e-08
1.13951e-08
1.13977e-08
1.13982e-08
1.13948e-08
1.13898e-08
1.13863e-08
1.1386e-08
1.13868e-08
1.13846e-08
1.13794e-08
1.13763e-08
1.13758e-08
1.13742e-08
1.13706e-08
1.13662e-08
1.13612e-08
1.13552e-08
1.13484e-08
1.1341e-08
1.13328e-08
1.13247e-08
1.13165e-08
1.13074e-08
1.12962e-08
1.12836e-08
1.12705e-08
1.12582e-08
1.1246e-08
1.12321e-08
1.12159e-08
1.11988e-08
1.11826e-08
1.11666e-08
1.11499e-08
1.11328e-08
1.1116e-08
1.10993e-08
1.10805e-08
1.10596e-08
1.10386e-08
1.10187e-08
1.09994e-08
1.09799e-08
1.09607e-08
1.09397e-08
1.0918e-08
1.08972e-08
1.0878e-08
1.08578e-08
1.08362e-08
1.08149e-08
1.07948e-08
1.0774e-08
1.07542e-08
1.07355e-08
1.07167e-08
1.06969e-08
1.06762e-08
1.06552e-08
1.06362e-08
1.06175e-08
1.05994e-08
1.05813e-08
1.05615e-08
1.05412e-08
1.05222e-08
1.05045e-08
1.04881e-08
1.04715e-08
1.04555e-08
1.04365e-08
1.042e-08
1.04056e-08
1.03938e-08
1.03848e-08
1.03761e-08
1.03597e-08
1.03402e-08
1.03386e-08
1.03778e-08
1.0408e-08
1.04412e-08
1.04467e-08
1.05315e-08
1.05214e-08
1.04707e-08
1.03628e-08
1.03085e-08
1.03096e-08
1.0284e-08
1.02684e-08
1.02544e-08
1.02372e-08
1.02211e-08
1.0202e-08
1.01802e-08
1.01916e-08
1.02701e-08
1.03665e-08
1.04463e-08
1.04038e-08
1.04686e-08
1.04425e-08
1.042e-08
1.03782e-08
1.03403e-08
1.03394e-08
1.02865e-08
1.02369e-08
1.01965e-08
1.01836e-08
1.01842e-08
1.01882e-08
1.01782e-08
1.01943e-08
1.01528e-08
1.02329e-08
1.02985e-08
1.04117e-08
1.06822e-08
1.07414e-08
1.0913e-08
1.0778e-08
1.08096e-08
1.08433e-08
1.11042e-08
1.12171e-08
1.09036e-08
1.09236e-08
1.08827e-08
1.07841e-08
1.06714e-08
1.05816e-08
1.0515e-08
1.04642e-08
1.04256e-08
1.03968e-08
1.03747e-08
1.03566e-08
1.03427e-08
1.0333e-08
1.0326e-08
1.03213e-08
1.03186e-08
1.03174e-08
1.03167e-08
1.03168e-08
1.03178e-08
1.03192e-08
1.03209e-08
1.03229e-08
1.03248e-08
1.03268e-08
1.0329e-08
1.03315e-08
1.03336e-08
1.03355e-08
1.03381e-08
1.03398e-08
1.034e-08
1.03396e-08
1.03393e-08
1.03394e-08
1.03402e-08
1.03412e-08
1.03421e-08
1.0343e-08
1.03439e-08
1.03446e-08
1.03452e-08
1.03452e-08
1.03458e-08
1.03476e-08
1.035e-08
1.03517e-08
1.03523e-08
1.03519e-08
1.03507e-08
1.03493e-08
1.03481e-08
1.03473e-08
1.03471e-08
1.03471e-08
1.0347e-08
1.03464e-08
1.03453e-08
1.03442e-08
1.03435e-08
1.03435e-08
1.03438e-08
1.03437e-08
1.03428e-08
1.03415e-08
1.03406e-08
1.03404e-08
1.034e-08
1.03389e-08
1.03375e-08
1.03362e-08
1.03328e-08
1.03291e-08
1.0324e-08
1.03316e-08
1.03387e-08
1.03696e-08
1.04734e-08
1.0482e-08
1.01068e-08
1.04035e-08
1.06894e-08
1.08697e-08
1.10594e-08
1.13731e-08
1.19568e-08
1.3027e-08
1.48488e-08
1.76731e-08
2.2603e-08
3.16667e-08
4.73405e-08
7.16066e-08
1.03865e-07
1.41228e-07
1.80305e-07
2.14274e-07
2.36641e-07
2.47872e-07
2.5322e-07
2.54977e-07
2.51202e-07
2.36606e-07
2.07094e-07
1.6699e-07
1.28933e-07
1.02731e-07
8.9662e-08
8.48527e-08
8.09365e-08
7.42258e-08
6.58056e-08
5.66106e-08
4.65858e-08
3.88449e-08
3.66228e-08
4.083e-08
4.68505e-08
4.77867e-08
4.16347e-08
3.36378e-08
2.947e-08
3.05456e-08
3.50876e-08
3.80908e-08
3.60382e-08
3.00941e-08
2.48338e-08
2.18024e-08
2.04993e-08
2.02936e-08
2.09534e-08
2.31343e-08
2.62476e-08
2.82681e-08
2.79286e-08
2.61746e-08
2.55711e-08
2.62363e-08
2.71062e-08
2.60638e-08
2.29074e-08
2.0623e-08
1.96406e-08
1.98904e-08
2.11293e-08
2.31423e-08
2.60429e-08
2.88663e-08
3.05031e-08
3.18918e-08
3.36915e-08
3.63853e-08
4.02232e-08
4.53447e-08
5.18272e-08
6.24749e-08
7.96864e-08
9.51947e-08
1.2452e-07
1.35627e-07
1.38011e-07
1.48294e-07
1.4529e-07
1.18632e-07
9.37992e-08
6.72418e-08
4.62097e-08
3.29095e-08
2.47194e-08
2.07904e-08
1.9964e-08
2.11174e-08
2.34174e-08
2.57567e-08
2.73368e-08
2.74044e-08
2.66344e-08
2.52932e-08
2.35124e-08
2.19796e-08
2.06397e-08
1.92772e-08
1.84118e-08
1.7493e-08
1.61549e-08
1.48999e-08
1.38963e-08
1.30077e-08
1.22819e-08
1.18575e-08
1.16414e-08
1.15855e-08
1.17053e-08
1.18255e-08
1.18951e-08
1.1891e-08
1.18248e-08
1.17622e-08
1.1811e-08
1.19398e-08
1.21082e-08
1.19999e-08
1.18065e-08
1.17518e-08
1.16284e-08
1.15226e-08
1.15093e-08
1.14647e-08
1.14285e-08
1.14186e-08
1.13924e-08
1.13982e-08
1.14085e-08
1.14147e-08
1.14084e-08
1.1397e-08
1.13995e-08
1.13938e-08
1.13867e-08
1.13691e-08
1.13427e-08
1.13096e-08
1.12853e-08
1.12734e-08
1.1265e-08
1.12524e-08
1.12277e-08
1.11973e-08
1.11788e-08
1.117e-08
1.11608e-08
1.11459e-08
1.11292e-08
1.11162e-08
1.11048e-08
1.10933e-08
1.10803e-08
1.10669e-08
1.10562e-08
1.10457e-08
1.10314e-08
1.10156e-08
1.1004e-08
1.0995e-08
1.09829e-08
1.09657e-08
1.09489e-08
1.09365e-08
1.0926e-08
1.09136e-08
1.08978e-08
1.08798e-08
1.08625e-08
1.08473e-08
1.0834e-08
1.08203e-08
1.08053e-08
1.07892e-08
1.07723e-08
1.0753e-08
1.07316e-08
1.0711e-08
1.06924e-08
1.06762e-08
1.0661e-08
1.06444e-08
1.0626e-08
1.06066e-08
1.05874e-08
1.05698e-08
1.05536e-08
1.05381e-08
1.05224e-08
1.05058e-08
1.04886e-08
1.04722e-08
1.04582e-08
1.04465e-08
1.0435e-08
1.04224e-08
1.04086e-08
1.03949e-08
1.0383e-08
1.03726e-08
1.03626e-08
1.0352e-08
1.0341e-08
1.03307e-08
1.03218e-08
1.03132e-08
1.03036e-08
1.02926e-08
1.0282e-08
1.02733e-08
1.02666e-08
1.02606e-08
1.02538e-08
1.02457e-08
1.02368e-08
1.02289e-08
1.02226e-08
1.02179e-08
1.02135e-08
1.02086e-08
1.02031e-08
1.01975e-08
1.01924e-08
1.01885e-08
1.01855e-08
1.01828e-08
1.01797e-08
1.01761e-08
1.01727e-08
1.01698e-08
1.0168e-08
1.01669e-08
1.0166e-08
1.0165e-08
1.01638e-08
1.01627e-08
1.01616e-08
1.01605e-08
1.01598e-08
1.01596e-08
1.016e-08
1.01605e-08
1.01603e-08
1.01595e-08
1.01589e-08
1.01589e-08
1.01594e-08
1.01596e-08
1.01594e-08
1.0159e-08
1.01586e-08
1.01585e-08
1.01584e-08
1.01583e-08
1.01577e-08
1.01567e-08
1.01558e-08
1.01553e-08
1.01554e-08
1.01558e-08
1.01559e-08
1.0155e-08
1.01535e-08
1.01522e-08
1.01515e-08
1.01515e-08
1.01517e-08
1.01517e-08
1.01513e-08
1.01506e-08
1.01499e-08
1.01492e-08
1.01485e-08
1.01479e-08
1.01477e-08
1.01481e-08
1.01483e-08
1.01478e-08
1.01468e-08
1.0146e-08
1.01456e-08
1.01454e-08
1.01455e-08
1.01455e-08
1.01452e-08
1.01445e-08
1.01439e-08
1.01433e-08
1.0143e-08
1.01429e-08
1.01426e-08
1.01421e-08
1.01415e-08
1.01407e-08
1.01398e-08
1.01391e-08
1.01384e-08
1.01375e-08
1.01364e-08
1.0135e-08
1.01337e-08
1.01324e-08
1.01309e-08
1.01292e-08
1.01276e-08
1.01262e-08
1.0125e-08
1.01234e-08
1.01216e-08
1.01198e-08
1.01183e-08
1.01168e-08
1.01155e-08
1.01141e-08
1.01129e-08
1.01118e-08
1.01108e-08
1.01098e-08
1.01089e-08
1.01083e-08
1.0108e-08
1.01076e-08
1.01072e-08
1.01069e-08
1.01068e-08
1.01071e-08
1.01075e-08
1.01076e-08
1.01075e-08
1.01073e-08
1.01071e-08
1.01071e-08
1.0107e-08
1.0107e-08
1.01068e-08
1.01064e-08
1.0106e-08
1.01058e-08
1.01056e-08
1.01053e-08
1.01047e-08
1.01041e-08
1.01036e-08
1.01034e-08
1.01031e-08
1.01026e-08
1.0102e-08
1.01016e-08
1.01014e-08
1.01013e-08
1.0101e-08
1.01008e-08
1.01004e-08
1.00999e-08
1.00994e-08
1.00989e-08
1.00984e-08
1.00979e-08
1.00974e-08
1.00968e-08
1.00962e-08
1.00955e-08
1.00948e-08
1.00941e-08
1.00935e-08
1.00927e-08
1.00919e-08
1.00909e-08
1.00901e-08
1.00893e-08
1.00884e-08
1.00875e-08
1.00867e-08
1.00858e-08
1.00848e-08
1.00837e-08
1.00826e-08
1.00816e-08
1.00807e-08
1.00797e-08
1.00787e-08
1.00776e-08
1.00765e-08
1.00755e-08
1.00745e-08
1.00734e-08
1.00724e-08
1.00713e-08
1.00704e-08
1.00693e-08
1.00684e-08
1.00674e-08
1.00665e-08
1.00655e-08
1.00645e-08
1.00635e-08
1.00626e-08
1.00617e-08
1.00608e-08
1.006e-08
1.0059e-08
1.00581e-08
1.00574e-08
1.00565e-08
1.00558e-08
1.0055e-08
1.00546e-08
1.00542e-08
1.00538e-08
1.00538e-08
1.00531e-08
1.0052e-08
1.00521e-08
1.00528e-08
1.00534e-08
1.00536e-08
1.00529e-08
1.00532e-08
1.00532e-08
1.00526e-08
1.00533e-08
1.00534e-08
1.00535e-08
1.00533e-08
1.00534e-08
1.0052e-08
1.00499e-08
1.00482e-08
1.00466e-08
1.00466e-08
1.00465e-08
1.00467e-08
1.00471e-08
1.00476e-08
1.00474e-08
1.00484e-08
1.0048e-08
1.00472e-08
1.0047e-08
1.00471e-08
1.00474e-08
1.00475e-08
1.00478e-08
1.00472e-08
1.00463e-08
1.00456e-08
1.00445e-08
1.00447e-08
1.00443e-08
1.00439e-08
1.00444e-08
1.00452e-08
1.00468e-08
1.00535e-08
1.00592e-08
1.00647e-08
1.00722e-08
1.00757e-08
1.00737e-08
1.00767e-08
1.0081e-08
1.00782e-08
1.00909e-08
1.00983e-08
1.0099e-08
1.0095e-08
1.0085e-08
1.00748e-08
1.00651e-08
1.00576e-08
1.00523e-08
1.00486e-08
1.0046e-08
1.00442e-08
1.00428e-08
1.00418e-08
1.0041e-08
1.00404e-08
1.00399e-08
1.00397e-08
1.00396e-08
1.00397e-08
1.00398e-08
1.004e-08
1.00402e-08
1.00404e-08
1.00407e-08
1.00409e-08
1.00411e-08
1.00412e-08
1.00414e-08
1.00415e-08
1.00417e-08
1.00419e-08
1.0042e-08
1.0042e-08
1.00419e-08
1.00418e-08
1.00418e-08
1.00418e-08
1.00419e-08
1.0042e-08
1.00421e-08
1.00422e-08
1.00424e-08
1.00425e-08
1.00425e-08
1.00426e-08
1.00426e-08
1.00428e-08
1.00428e-08
1.00429e-08
1.00428e-08
1.00428e-08
1.00428e-08
1.00427e-08
1.00427e-08
1.00428e-08
1.00428e-08
1.00428e-08
1.00428e-08
1.00427e-08
1.00425e-08
1.00424e-08
1.00424e-08
1.00425e-08
1.00425e-08
1.00425e-08
1.00425e-08
1.00425e-08
1.00425e-08
1.00425e-08
1.00424e-08
1.00424e-08
1.00423e-08
1.00422e-08
1.0042e-08
1.00419e-08
1.00418e-08
1.00422e-08
1.00433e-08
1.0045e-08
1.00473e-08
1.00489e-08
1.00643e-08
1.02152e-08
1.0369e-08
1.05202e-08
1.07166e-08
1.0991e-08
1.14154e-08
1.21691e-08
1.35058e-08
1.5576e-08
1.89246e-08
2.4441e-08
3.2953e-08
4.4684e-08
6.1459e-08
8.54101e-08
1.13295e-07
1.3739e-07
1.4941e-07
1.57619e-07
1.68151e-07
1.74949e-07
1.68762e-07
1.47919e-07
1.18353e-07
8.81839e-08
6.44343e-08
5.00396e-08
4.34435e-08
4.10995e-08
3.92481e-08
3.59595e-08
3.15525e-08
2.70874e-08
2.31848e-08
2.05546e-08
1.96274e-08
2.04944e-08
2.1997e-08
2.21688e-08
2.04277e-08
1.81259e-08
1.6812e-08
1.69127e-08
1.80688e-08
1.88964e-08
1.83575e-08
1.66896e-08
1.50844e-08
1.40777e-08
1.35936e-08
1.34711e-08
1.36158e-08
1.40136e-08
1.45308e-08
1.48321e-08
1.46408e-08
1.43835e-08
1.47255e-08
1.52964e-08
1.56993e-08
1.54763e-08
1.46392e-08
1.38405e-08
1.35758e-08
1.36859e-08
1.40267e-08
1.46555e-08
1.56441e-08
1.67637e-08
1.80138e-08
1.9413e-08
2.09912e-08
2.28673e-08
2.52332e-08
2.81702e-08
3.14636e-08
3.49328e-08
3.83112e-08
4.2767e-08
5.45583e-08
6.47331e-08
6.9903e-08
7.97353e-08
7.86901e-08
6.92286e-08
6.33415e-08
5.76988e-08
5.06508e-08
4.03925e-08
3.21189e-08
2.4583e-08
2.01653e-08
1.76691e-08
1.63715e-08
1.62788e-08
1.64504e-08
1.66117e-08
1.64736e-08
1.59905e-08
1.53028e-08
1.46207e-08
1.40115e-08
1.35298e-08
1.3211e-08
1.29991e-08
1.28076e-08
1.26937e-08
1.26097e-08
1.23687e-08
1.2001e-08
1.15859e-08
1.11971e-08
1.08731e-08
1.06347e-08
1.0491e-08
1.04148e-08
1.03798e-08
1.03561e-08
1.03405e-08
1.03404e-08
1.03445e-08
1.03545e-08
1.0364e-08
1.03741e-08
1.03794e-08
1.03494e-08
1.03164e-08
1.03023e-08
1.028e-08
1.02605e-08
1.02516e-08
1.02419e-08
1.02404e-08
1.02421e-08
1.02438e-08
1.02428e-08
1.02401e-08
1.02397e-08
1.02376e-08
1.02368e-08
1.02346e-08
1.02311e-08
1.0227e-08
1.02241e-08
1.02225e-08
1.0221e-08
1.02186e-08
1.02151e-08
1.02117e-08
1.02098e-08
1.02086e-08
1.0207e-08
1.02046e-08
1.02022e-08
1.02006e-08
1.01993e-08
1.01979e-08
1.01961e-08
1.01942e-08
1.01923e-08
1.01904e-08
1.01881e-08
1.01859e-08
1.01841e-08
1.01823e-08
1.01801e-08
1.01773e-08
1.01745e-08
1.01721e-08
1.017e-08
1.01677e-08
1.01649e-08
1.01618e-08
1.01587e-08
1.01559e-08
1.01532e-08
1.01507e-08
1.0148e-08
1.01451e-08
1.0142e-08
1.01387e-08
1.01352e-08
1.01319e-08
1.01289e-08
1.01261e-08
1.01236e-08
1.01209e-08
1.01181e-08
1.01152e-08
1.01123e-08
1.01096e-08
1.01072e-08
1.01049e-08
1.01026e-08
1.01004e-08
1.00981e-08
1.00959e-08
1.0094e-08
1.00922e-08
1.00906e-08
1.00889e-08
1.00872e-08
1.00855e-08
1.00839e-08
1.00825e-08
1.00811e-08
1.00797e-08
1.00784e-08
1.00772e-08
1.0076e-08
1.00749e-08
1.00737e-08
1.00725e-08
1.00713e-08
1.00703e-08
1.00694e-08
1.00686e-08
1.00678e-08
1.00669e-08
1.0066e-08
1.00651e-08
1.00644e-08
1.00637e-08
1.00631e-08
1.00625e-08
1.00619e-08
1.00614e-08
1.00608e-08
1.00603e-08
1.00599e-08
1.00595e-08
1.00591e-08
1.00587e-08
1.00583e-08
1.00579e-08
1.00577e-08
1.00574e-08
1.00572e-08
1.0057e-08
1.00568e-08
1.00566e-08
1.00564e-08
1.00562e-08
1.0056e-08
1.00558e-08
1.00557e-08
1.00556e-08
1.00555e-08
1.00554e-08
1.00553e-08
1.00552e-08
1.00552e-08
1.00551e-08
1.0055e-08
1.0055e-08
1.00549e-08
1.00548e-08
1.00548e-08
1.00547e-08
1.00546e-08
1.00545e-08
1.00544e-08
1.00543e-08
1.00543e-08
1.00542e-08
1.00542e-08
1.00541e-08
1.0054e-08
1.00538e-08
1.00538e-08
1.00537e-08
1.00536e-08
1.00536e-08
1.00535e-08
1.00534e-08
1.00533e-08
1.00533e-08
1.00532e-08
1.00531e-08
1.0053e-08
1.00529e-08
1.00529e-08
1.00528e-08
1.00527e-08
1.00527e-08
1.00526e-08
1.00525e-08
1.00525e-08
1.00524e-08
1.00524e-08
1.00523e-08
1.00523e-08
1.00522e-08
1.00521e-08
1.0052e-08
1.00519e-08
1.00518e-08
1.00517e-08
1.00516e-08
1.00515e-08
1.00513e-08
1.00512e-08
1.00511e-08
1.0051e-08
1.00508e-08
1.00506e-08
1.00504e-08
1.00503e-08
1.00501e-08
1.00499e-08
1.00497e-08
1.00495e-08
1.00493e-08
1.00491e-08
1.00489e-08
1.00487e-08
1.00485e-08
1.00483e-08
1.00482e-08
1.0048e-08
1.00478e-08
1.00476e-08
1.00474e-08
1.00472e-08
1.00471e-08
1.00469e-08
1.00468e-08
1.00466e-08
1.00465e-08
1.00464e-08
1.00462e-08
1.00461e-08
1.0046e-08
1.00459e-08
1.00458e-08
1.00456e-08
1.00455e-08
1.00454e-08
1.00453e-08
1.00452e-08
1.00451e-08
1.0045e-08
1.00448e-08
1.00447e-08
1.00446e-08
1.00445e-08
1.00443e-08
1.00442e-08
1.00441e-08
1.0044e-08
1.00439e-08
1.00438e-08
1.00437e-08
1.00436e-08
1.00435e-08
1.00434e-08
1.00433e-08
1.00432e-08
1.00431e-08
1.0043e-08
1.00429e-08
1.00429e-08
1.00428e-08
1.00426e-08
1.00426e-08
1.00425e-08
1.00423e-08
1.00422e-08
1.00421e-08
1.0042e-08
1.00419e-08
1.00418e-08
1.00417e-08
1.00416e-08
1.00414e-08
1.00413e-08
1.00412e-08
1.0041e-08
1.00409e-08
1.00408e-08
1.00406e-08
1.00405e-08
1.00404e-08
1.00403e-08
1.00401e-08
1.004e-08
1.00399e-08
1.00397e-08
1.00396e-08
1.00395e-08
1.00393e-08
1.00392e-08
1.00391e-08
1.0039e-08
1.00389e-08
1.00387e-08
1.00386e-08
1.00385e-08
1.00383e-08
1.00382e-08
1.00381e-08
1.0038e-08
1.00378e-08
1.00377e-08
1.00376e-08
1.00374e-08
1.00373e-08
1.00374e-08
1.00373e-08
1.00374e-08
1.00373e-08
1.00374e-08
1.00374e-08
1.00372e-08
1.00377e-08
1.0038e-08
1.00381e-08
1.00383e-08
1.00383e-08
1.00388e-08
1.00388e-08
1.00383e-08
1.0038e-08
1.00376e-08
1.00376e-08
1.00372e-08
1.00372e-08
1.00367e-08
1.0036e-08
1.00364e-08
1.00366e-08
1.00366e-08
1.00369e-08
1.0037e-08
1.00371e-08
1.00373e-08
1.00375e-08
1.0038e-08
1.00383e-08
1.00376e-08
1.0037e-08
1.00366e-08
1.00364e-08
1.0036e-08
1.00358e-08
1.00356e-08
1.00351e-08
1.00353e-08
1.00353e-08
1.00355e-08
1.00354e-08
1.00362e-08
1.00365e-08
1.00363e-08
1.00372e-08
1.00396e-08
1.00439e-08
1.00493e-08
1.00555e-08
1.00591e-08
1.00582e-08
1.00549e-08
1.00511e-08
1.00472e-08
1.00448e-08
1.00429e-08
1.00415e-08
1.00405e-08
1.00398e-08
1.00393e-08
1.00387e-08
1.0038e-08
1.00371e-08
1.00362e-08
1.00354e-08
1.00346e-08
1.0034e-08
1.00334e-08
1.00329e-08
1.00325e-08
1.00321e-08
1.00317e-08
1.00314e-08
1.00312e-08
1.0031e-08
1.00309e-08
1.00309e-08
1.00308e-08
1.00308e-08
1.00308e-08
1.00308e-08
1.00308e-08
1.00308e-08
1.00309e-08
1.0031e-08
1.00311e-08
1.00312e-08
1.00313e-08
1.00313e-08
1.00314e-08
1.00314e-08
1.00313e-08
1.00313e-08
1.00313e-08
1.00312e-08
1.00313e-08
1.00313e-08
1.00314e-08
1.00314e-08
1.00315e-08
1.00315e-08
1.00316e-08
1.00316e-08
1.00316e-08
1.00316e-08
1.00315e-08
1.00315e-08
1.00314e-08
1.00313e-08
1.00313e-08
1.00312e-08
1.00312e-08
1.00313e-08
1.00313e-08
1.00312e-08
1.0031e-08
1.00309e-08
1.00308e-08
1.00307e-08
1.00306e-08
1.00306e-08
1.00306e-08
1.00306e-08
1.00306e-08
1.00305e-08
1.00305e-08
1.00305e-08
1.00305e-08
1.00304e-08
1.00303e-08
1.00302e-08
1.00302e-08
1.00301e-08
1.00301e-08
1.00304e-08
1.00309e-08
1.00318e-08
1.0033e-08
1.00339e-08
1.00458e-08
1.01514e-08
1.0286e-08
1.04668e-08
1.07301e-08
1.11067e-08
1.16587e-08
1.24134e-08
1.342e-08
1.48828e-08
1.71927e-08
2.07694e-08
2.58002e-08
3.2357e-08
4.16918e-08
5.53842e-08
7.20561e-08
8.60713e-08
9.28568e-08
9.66466e-08
9.95757e-08
9.79256e-08
8.96277e-08
7.60063e-08
5.94903e-08
4.42849e-08
3.31503e-08
2.67499e-08
2.39813e-08
2.30559e-08
2.22486e-08
2.07437e-08
1.87116e-08
1.67869e-08
1.53218e-08
1.44132e-08
1.40125e-08
1.40613e-08
1.43233e-08
1.42916e-08
1.38102e-08
1.32018e-08
1.28195e-08
1.27838e-08
1.30235e-08
1.32165e-08
1.3066e-08
1.26039e-08
1.21102e-08
1.17473e-08
1.15304e-08
1.14281e-08
1.14179e-08
1.14744e-08
1.15548e-08
1.1564e-08
1.1525e-08
1.15181e-08
1.17331e-08
1.19966e-08
1.2163e-08
1.21658e-08
1.19513e-08
1.16962e-08
1.15512e-08
1.15666e-08
1.17156e-08
1.19709e-08
1.23235e-08
1.27414e-08
1.3289e-08
1.40549e-08
1.49143e-08
1.58557e-08
1.69894e-08
1.83296e-08
1.97841e-08
2.11387e-08
2.21334e-08
2.28845e-08
2.34862e-08
2.46238e-08
2.58261e-08
2.9842e-08
3.06777e-08
2.9126e-08
3.00016e-08
3.1069e-08
2.99858e-08
2.76941e-08
2.58254e-08
2.38926e-08
2.14759e-08
1.88737e-08
1.64882e-08
1.49005e-08
1.39339e-08
1.3301e-08
1.2995e-08
1.27275e-08
1.2481e-08
1.22237e-08
1.19717e-08
1.17599e-08
1.1614e-08
1.15276e-08
1.14859e-08
1.14861e-08
1.15146e-08
1.15464e-08
1.15697e-08
1.15453e-08
1.14507e-08
1.12748e-08
1.10522e-08
1.08214e-08
1.06019e-08
1.04208e-08
1.02966e-08
1.02237e-08
1.0184e-08
1.01635e-08
1.01545e-08
1.01537e-08
1.01582e-08
1.01647e-08
1.01707e-08
1.01739e-08
1.01712e-08
1.01571e-08
1.01417e-08
1.01309e-08
1.0121e-08
1.01136e-08
1.01087e-08
1.01054e-08
1.0102e-08
1.0099e-08
1.00973e-08
1.00957e-08
1.00946e-08
1.00938e-08
1.00928e-08
1.0092e-08
1.00914e-08
1.00909e-08
1.00904e-08
1.00898e-08
1.00892e-08
1.00887e-08
1.00884e-08
1.00881e-08
1.00878e-08
1.00874e-08
1.0087e-08
1.00867e-08
1.00865e-08
1.00863e-08
1.0086e-08
1.00856e-08
1.00853e-08
1.00849e-08
1.00844e-08
1.0084e-08
1.00836e-08
1.00832e-08
1.00827e-08
1.00822e-08
1.00816e-08
1.00811e-08
1.00806e-08
1.00801e-08
1.00795e-08
1.00789e-08
1.00783e-08
1.00778e-08
1.00772e-08
1.00767e-08
1.00762e-08
1.00756e-08
1.0075e-08
1.00744e-08
1.00738e-08
1.00732e-08
1.00726e-08
1.00721e-08
1.00715e-08
1.0071e-08
1.00705e-08
1.007e-08
1.00694e-08
1.00689e-08
1.00684e-08
1.00679e-08
1.00674e-08
1.0067e-08
1.00665e-08
1.00661e-08
1.00656e-08
1.00652e-08
1.00648e-08
1.00644e-08
1.0064e-08
1.00636e-08
1.00631e-08
1.00628e-08
1.00624e-08
1.0062e-08
1.00616e-08
1.00612e-08
1.00608e-08
1.00604e-08
1.00601e-08
1.00597e-08
1.00593e-08
1.00589e-08
1.00586e-08
1.00582e-08
1.00579e-08
1.00576e-08
1.00572e-08
1.00569e-08
1.00566e-08
1.00562e-08
1.00559e-08
1.00556e-08
1.00554e-08
1.00551e-08
1.00548e-08
1.00546e-08
1.00543e-08
1.00541e-08
1.00538e-08
1.00536e-08
1.00534e-08
1.00532e-08
1.0053e-08
1.00528e-08
1.00526e-08
1.00525e-08
1.00523e-08
1.00521e-08
1.0052e-08
1.00518e-08
1.00516e-08
1.00515e-08
1.00514e-08
1.00513e-08
1.00511e-08
1.0051e-08
1.00509e-08
1.00507e-08
1.00506e-08