/*--------------------------------*- C++ -*----------------------------------*\
| =========                 |                                                 |
| \\      /  F ield         | OpenFOAM: The Open Source CFD Toolbox           |
|  \\    /   O peration     | Version:  v2006                                 |
|   \\  /    A nd           | Website:  www.openfoam.com                      |
|    \\/     M anipulation  |                                                 |
\*---------------------------------------------------------------------------*/
FoamFile
{
    version     2.0;
    format      ascii;
    class       volScalarField;
    location    "6.8";
    object      nut;
}
// * * * * * * * * * * * * * * * * * * * * * * * * * * * * * * * * * * * * * //

dimensions      [0 2 -1 0 0 0 0];


internalField   nonuniform List<scalar> 
33000
(
5.58032e-10
7.27362e-10
1.00315e-09
1.24596e-09
1.16019e-09
1.05316e-09
1.05211e-09
1.12675e-09
1.25431e-09
1.3792e-09
1.49404e-09
1.61603e-09
1.75417e-09
1.92028e-09
2.12437e-09
2.36189e-09
2.51337e-09
2.55189e-09
2.68621e-09
2.94092e-09
3.24354e-09
3.72417e-09
5.16234e-09
8.45519e-09
1.3287e-08
1.80394e-08
2.10373e-08
2.26182e-08
2.37555e-08
2.50758e-08
2.68587e-08
2.8295e-08
2.93028e-08
3.06168e-08
3.18138e-08
3.18395e-08
3.1213e-08
3.05856e-08
3.12183e-08
3.39745e-08
3.63284e-08
3.59884e-08
3.49689e-08
3.43509e-08
3.43317e-08
3.59262e-08
3.85509e-08
3.93511e-08
3.8353e-08
3.76957e-08
3.74323e-08
3.73894e-08
3.73122e-08
3.71231e-08
3.74893e-08
3.88408e-08
4.09513e-08
4.31193e-08
4.34185e-08
4.18408e-08
4.11756e-08
4.24967e-08
4.26115e-08
3.88029e-08
3.38611e-08
2.99089e-08
2.77107e-08
2.64566e-08
2.51642e-08
2.35718e-08
2.16376e-08
1.90684e-08
1.64027e-08
1.43629e-08
1.30828e-08
1.2001e-08
1.11643e-08
1.15444e-08
1.69034e-08
2.34244e-08
2.68508e-08
3.38828e-08
3.64381e-08
5.32375e-08
5.58792e-08
6.24915e-08
6.30813e-08
6.32819e-08
5.49236e-08
5.2502e-08
5.02495e-08
4.635e-08
4.32274e-08
3.90734e-08
3.4424e-08
2.92642e-08
2.61004e-08
2.18125e-08
1.97942e-08
2.22946e-08
2.55203e-08
2.6533e-08
2.67074e-08
2.54369e-08
2.5651e-08
2.53126e-08
2.5455e-08
2.56233e-08
2.57922e-08
2.55037e-08
2.50815e-08
2.46749e-08
2.40766e-08
2.35348e-08
2.27763e-08
2.20999e-08
2.16444e-08
2.42114e-08
2.68764e-08
2.75457e-08
2.767e-08
2.75396e-08
2.90993e-08
2.97436e-08
3.04418e-08
3.10576e-08
3.14542e-08
3.20082e-08
3.28236e-08
3.3659e-08
3.46561e-08
3.57504e-08
3.68941e-08
3.81682e-08
3.96388e-08
4.1325e-08
4.32117e-08
4.53333e-08
4.76902e-08
5.05197e-08
5.38434e-08
5.77507e-08
6.23674e-08
6.76999e-08
7.37746e-08
8.10802e-08
9.00486e-08
1.01496e-07
1.16856e-07
1.35979e-07
1.58408e-07
1.85907e-07
2.17994e-07
2.43837e-07
2.44519e-07
2.45166e-07
2.31274e-07
2.0096e-07
1.74058e-07
1.5229e-07
1.34469e-07
1.19991e-07
1.08621e-07
9.95377e-08
9.17938e-08
8.49898e-08
7.91672e-08
7.43759e-08
7.02872e-08
6.6559e-08
6.31727e-08
6.01323e-08
5.74778e-08
5.51583e-08
5.30514e-08
5.11282e-08
4.93537e-08
4.77072e-08
4.62143e-08
4.48845e-08
4.36743e-08
4.25793e-08
4.16108e-08
4.07181e-08
3.98986e-08
3.91538e-08
3.84632e-08
3.78366e-08
3.72724e-08
3.67566e-08
3.62891e-08
3.58513e-08
3.54418e-08
3.50617e-08
3.46962e-08
3.43451e-08
3.40121e-08
3.3704e-08
3.34231e-08
3.31574e-08
3.2902e-08
3.26447e-08
3.2391e-08
3.21543e-08
3.19286e-08
3.17175e-08
3.15233e-08
3.13317e-08
3.11457e-08
3.09838e-08
3.08541e-08
3.07467e-08
3.06326e-08
3.05232e-08
3.04522e-08
3.04203e-08
3.04279e-08
3.04704e-08
3.05177e-08
3.05593e-08
3.06097e-08
3.06947e-08
3.0821e-08
3.09831e-08
3.11702e-08
3.13445e-08
3.15007e-08
3.16602e-08
3.18318e-08
3.20256e-08
3.22505e-08
3.24838e-08
3.26806e-08
3.28461e-08
3.3024e-08
3.32077e-08
3.33909e-08
3.3581e-08
3.37558e-08
3.39116e-08
3.40635e-08
3.42077e-08
3.4328e-08
3.44211e-08
3.45046e-08
3.4603e-08
3.47099e-08
3.48206e-08
3.48998e-08
3.49114e-08
3.49384e-08
3.50114e-08
3.50786e-08
3.51386e-08
3.51894e-08
3.52143e-08
3.52453e-08
3.5294e-08
3.53475e-08
3.54077e-08
3.54729e-08
3.55276e-08
3.55842e-08
3.56583e-08
3.57603e-08
3.58991e-08
3.6048e-08
3.6177e-08
3.62869e-08
3.64339e-08
3.66439e-08
3.6881e-08
3.71447e-08
3.74466e-08
3.77625e-08
3.80845e-08
3.84527e-08
3.88788e-08
3.9354e-08
3.98861e-08
4.04862e-08
4.11775e-08
4.19646e-08
4.27962e-08
4.36848e-08
4.47368e-08
4.59575e-08
4.73259e-08
4.88714e-08
5.0642e-08
5.2658e-08
5.49206e-08
5.75297e-08
6.0583e-08
6.41661e-08
6.84014e-08
7.34517e-08
7.94358e-08
8.66145e-08
9.54127e-08
1.06292e-07
1.18118e-07
1.16813e-07
1.15483e-07
1.14111e-07
1.12681e-07
1.11216e-07
1.09752e-07
1.08288e-07
1.06835e-07
1.05412e-07
1.04031e-07
1.02692e-07
9.46759e-08
8.38222e-08
7.49813e-08
6.77237e-08
6.17101e-08
5.66627e-08
5.23771e-08
4.87051e-08
4.55356e-08
4.27833e-08
4.03852e-08
3.82841e-08
3.64303e-08
3.4791e-08
3.33382e-08
3.20456e-08
3.08877e-08
2.9845e-08
2.89074e-08
2.80668e-08
2.73176e-08
2.66467e-08
2.60388e-08
2.54836e-08
2.4974e-08
2.45028e-08
2.40643e-08
2.36545e-08
2.32706e-08
2.29106e-08
2.25737e-08
2.22595e-08
2.19659e-08
2.16911e-08
2.14336e-08
2.11928e-08
2.0968e-08
2.0759e-08
2.05649e-08
2.0383e-08
2.02119e-08
2.00526e-08
1.99048e-08
1.97672e-08
1.96403e-08
1.95239e-08
1.94172e-08
1.93198e-08
1.92315e-08
1.91523e-08
1.90814e-08
1.90194e-08
1.89665e-08
1.89228e-08
1.88878e-08
1.88605e-08
1.88416e-08
1.88326e-08
1.88334e-08
1.88427e-08
1.88588e-08
1.88826e-08
1.8915e-08
1.89559e-08
1.90046e-08
1.90611e-08
1.91282e-08
1.92051e-08
1.92883e-08
1.93788e-08
1.94788e-08
1.95903e-08
1.9713e-08
1.9849e-08
1.99997e-08
2.01629e-08
2.03398e-08
2.05351e-08
2.07523e-08
2.09896e-08
2.12447e-08
2.15261e-08
2.18351e-08
2.21716e-08
2.25436e-08
2.29589e-08
2.34203e-08
2.39345e-08
2.44978e-08
2.51245e-08
2.58182e-08
2.65933e-08
2.74592e-08
2.84345e-08
2.95091e-08
3.07094e-08
3.20358e-08
3.35206e-08
3.51902e-08
3.70535e-08
3.91897e-08
3.99984e-08
3.96696e-08
3.93481e-08
3.90485e-08
3.87382e-08
3.84222e-08
3.81582e-08
3.78782e-08
3.76152e-08
3.74008e-08
3.69622e-08
3.65791e-08
3.65188e-08
3.60198e-08
3.6044e-08
3.59313e-08
3.6938e-08
3.72917e-08
3.79068e-08
3.81644e-08
3.84195e-08
3.8505e-08
3.85084e-08
3.84861e-08
3.84292e-08
3.83866e-08
3.82722e-08
3.83008e-08
3.81394e-08
3.78452e-08
3.78095e-08
3.74046e-08
3.69192e-08
3.63233e-08
3.64606e-08
3.656e-08
3.68414e-08
3.71225e-08
3.72656e-08
3.7397e-08
3.74585e-08
3.75404e-08
3.7551e-08
3.74318e-08
3.73234e-08
3.72684e-08
3.70008e-08
3.71903e-08
3.69543e-08
3.61306e-08
3.58768e-08
3.53323e-08
3.47253e-08
3.50143e-08
3.64336e-08
3.92506e-08
4.24616e-08
4.67536e-08
5.06738e-08
5.44805e-08
5.76305e-08
6.02223e-08
6.23327e-08
6.40746e-08
6.54969e-08
6.6628e-08
6.75719e-08
6.84027e-08
6.91017e-08
6.97168e-08
7.02809e-08
7.07574e-08
7.1208e-08
7.16421e-08
7.20385e-08
7.23595e-08
7.26738e-08
7.29996e-08
7.32995e-08
7.3557e-08
7.37812e-08
7.39935e-08
7.4201e-08
7.43912e-08
7.4572e-08
7.47321e-08
7.49005e-08
7.5036e-08
7.51235e-08
7.5196e-08
7.52695e-08
7.53444e-08
7.54162e-08
7.54752e-08
7.55199e-08
7.55492e-08
7.52386e-08
7.14407e-08
6.80835e-08
6.50418e-08
6.20275e-08
5.92709e-08
5.68692e-08
5.46777e-08
5.2609e-08
5.06534e-08
4.87922e-08
4.70236e-08
4.53544e-08
4.37811e-08
4.22998e-08
4.09053e-08
3.95942e-08
3.83562e-08
3.71749e-08
3.60466e-08
3.49703e-08
3.39483e-08
3.29864e-08
3.2077e-08
3.12027e-08
3.03509e-08
2.95329e-08
2.87547e-08
2.80291e-08
2.73181e-08
2.66167e-08
2.59894e-08
2.53553e-08
2.47992e-08
2.40927e-08
2.36421e-08
2.28579e-08
2.20336e-08
2.33701e-08
1.76991e-08
8.12189e-09
1.72702e-08
6.63562e-09
2.40269e-09
2.04339e-09
2.34496e-09
3.3068e-09
7.04887e-09
1.256e-08
1.35756e-08
1.91704e-08
3.09984e-08
3.96966e-08
5.18314e-08
6.95711e-08
9.84498e-08
1.19592e-07
1.32878e-07
1.44667e-07
1.55864e-07
1.68463e-07
1.71727e-07
1.7711e-07
1.90499e-07
2.01879e-07
2.10408e-07
2.16051e-07
2.11177e-07
1.94772e-07
1.75112e-07
1.59222e-07
1.49486e-07
1.48172e-07
1.44173e-07
1.25269e-07
1.39231e-07
1.71778e-07
1.1807e-07
1.24585e-07
1.52914e-07
1.06169e-07
1.23993e-07
1.61837e-07
1.18455e-07
9.769e-08
1.16991e-07
1.01978e-07
8.60663e-08
1.28981e-07
1.42729e-07
1.39248e-07
1.36778e-07
1.37414e-07
1.06409e-07
9.42678e-08
1.39479e-07
1.98194e-07
1.83326e-07
1.19105e-07
7.19222e-08
6.86354e-08
7.70758e-08
6.69696e-08
6.29482e-08
7.14093e-08
6.96886e-08
7.02983e-08
7.2375e-08
7.56952e-08
7.96316e-08
8.32909e-08
8.03137e-08
7.4337e-08
7.31194e-08
8.4528e-08
9.3429e-08
1.01903e-07
1.24376e-07
1.35605e-07
1.36034e-07
1.33638e-07
1.58555e-07
1.6027e-07
1.45909e-07
1.20629e-07
1.07721e-07
9.43407e-08
8.6147e-08
3.44215e-08
7.64841e-08
4.91209e-08
8.48002e-08
8.53356e-08
8.27745e-08
7.5842e-08
7.797e-08
7.76196e-08
7.59646e-08
7.32024e-08
6.90577e-08
6.48391e-08
6.35357e-08
6.42055e-08
6.47563e-08
6.77997e-08
7.17447e-08
7.56648e-08
6.08833e-08
6.99199e-08
1.06197e-07
1.2388e-07
1.34528e-07
8.90139e-08
5.84616e-08
5.27423e-08
3.28042e-08
3.72919e-08
3.68957e-08
3.95693e-08
1.94089e-08
1.71632e-08
2.77905e-08
3.09609e-08
4.83692e-08
4.5922e-08
8.61204e-08
8.61376e-08
5.22369e-08
4.74788e-08
4.67494e-08
4.3649e-08
4.11336e-08
3.89527e-08
3.67107e-08
3.48165e-08
3.34159e-08
3.27454e-08
3.15653e-08
3.05902e-08
2.96582e-08
2.89447e-08
2.82532e-08
2.77622e-08
2.73224e-08
2.67513e-08
2.6082e-08
2.58719e-08
2.60413e-08
2.63114e-08
2.60833e-08
2.58498e-08
2.58378e-08
2.62429e-08
2.70366e-08
2.75296e-08
2.76392e-08
2.78521e-08
2.83929e-08
2.91365e-08
2.98126e-08
3.04432e-08
3.11655e-08
3.18904e-08
3.25774e-08
3.31403e-08
3.38231e-08
3.47316e-08
3.58909e-08
3.69469e-08
3.76213e-08
3.85959e-08
3.98454e-08
4.10895e-08
4.26633e-08
4.43413e-08
4.59584e-08
4.74491e-08
4.87885e-08
5.05708e-08
5.26709e-08
5.51338e-08
5.84338e-08
6.20309e-08
6.54163e-08
6.88705e-08
7.19422e-08
7.49185e-08
7.93389e-08
8.50696e-08
9.28901e-08
1.02663e-07
1.12161e-07
1.21241e-07
1.30238e-07
1.41099e-07
1.58317e-07
1.64043e-07
1.6544e-07
1.66723e-07
1.67958e-07
1.69257e-07
1.70706e-07
1.7232e-07
1.74041e-07
1.75747e-07
1.77361e-07
1.78915e-07
1.8051e-07
1.82219e-07
1.84017e-07
1.85808e-07
1.87598e-07
1.89499e-07
1.91588e-07
1.81421e-07
1.71278e-07
1.63617e-07
1.59162e-07
1.55186e-07
1.47978e-07
1.38621e-07
1.29334e-07
1.25548e-07
1.24132e-07
1.22803e-07
1.22595e-07
1.22983e-07
1.222e-07
1.19074e-07
1.17687e-07
1.18613e-07
1.21648e-07
1.26888e-07
1.28957e-07
1.26638e-07
1.25054e-07
1.26904e-07
1.3142e-07
1.38968e-07
1.48585e-07
1.55511e-07
1.57727e-07
1.56251e-07
1.55187e-07
1.594e-07
1.65414e-07
1.71027e-07
1.76666e-07
1.81253e-07
1.78358e-07
1.71841e-07
1.6813e-07
1.71312e-07
1.73627e-07
1.6913e-07
1.59393e-07
1.50643e-07
1.4625e-07
1.43774e-07
1.42522e-07
1.37652e-07
1.26398e-07
1.16499e-07
1.11077e-07
1.06452e-07
1.02632e-07
9.97008e-08
9.51768e-08
8.93207e-08
8.32619e-08
7.87258e-08
7.53978e-08
7.24418e-08
6.92885e-08
6.58323e-08
6.28847e-08
6.02663e-08
5.77519e-08
5.51373e-08
5.25556e-08
5.02528e-08
4.83555e-08
4.68786e-08
4.53183e-08
4.34407e-08
4.16458e-08
4.02538e-08
3.90767e-08
3.79603e-08
3.67686e-08
3.57087e-08
3.47641e-08
3.38739e-08
3.31347e-08
3.24976e-08
3.18634e-08
3.1252e-08
3.07575e-08
3.04569e-08
3.02867e-08
3.00546e-08
2.97994e-08
2.96548e-08
2.96732e-08
2.98586e-08
3.00342e-08
3.01349e-08
3.03582e-08
3.07414e-08
3.11674e-08
3.15507e-08
3.19491e-08
3.24407e-08
3.30209e-08
3.36291e-08
3.41939e-08
3.47834e-08
3.54561e-08
3.62135e-08
3.70543e-08
3.79444e-08
3.88812e-08
3.98791e-08
4.09621e-08
4.2156e-08
4.34799e-08
4.49428e-08
4.65116e-08
4.81801e-08
4.99898e-08
5.20095e-08
5.42756e-08
5.67946e-08
5.95716e-08
6.26241e-08
6.59499e-08
6.96218e-08
7.37696e-08
7.84167e-08
8.36857e-08
8.9798e-08
9.68799e-08
1.04905e-07
1.14406e-07
1.2585e-07
1.39223e-07
1.55339e-07
1.75691e-07
2.01858e-07
2.32858e-07
2.32582e-07
2.32549e-07
2.32692e-07
2.326e-07
2.32283e-07
2.32076e-07
2.31982e-07
2.31863e-07
2.31725e-07
2.31647e-07
2.316e-07
2.31533e-07
2.22545e-07
1.99366e-07
1.8093e-07
1.66024e-07
1.5362e-07
1.43138e-07
1.34197e-07
1.26596e-07
1.19954e-07
1.14083e-07
1.09079e-07
1.04722e-07
1.00745e-07
9.70739e-08
9.36002e-08
9.05651e-08
8.79189e-08
8.55025e-08
8.30928e-08
8.09053e-08
7.89644e-08
7.71377e-08
7.53772e-08
7.3785e-08
7.22942e-08
7.0991e-08
6.96717e-08
6.83866e-08
6.73175e-08
6.63522e-08
6.53158e-08
6.42304e-08
6.33035e-08
6.25699e-08
6.18847e-08
6.12312e-08
6.05673e-08
5.97511e-08
5.9303e-08
5.89013e-08
5.8524e-08
5.82951e-08
5.81423e-08
5.78717e-08
5.77577e-08
5.76462e-08
5.78252e-08
5.81793e-08
5.852e-08
5.90337e-08
5.92819e-08
5.96187e-08
5.96397e-08
6.00854e-08
6.12375e-08
6.26302e-08
6.40044e-08
6.40425e-08
6.54743e-08
6.54577e-08
6.14266e-08
6.8005e-08
6.71022e-08
7.16076e-08
7.66113e-08
9.82628e-08
1.1247e-07
8.86712e-08
7.63746e-08
6.9414e-08
7.76728e-08
8.33009e-08
8.93278e-08
9.79232e-08
9.86653e-08
9.2452e-08
7.1397e-08
6.91458e-08
7.90813e-08
8.9601e-08
1.05374e-07
1.00193e-07
4.8663e-08
3.45531e-08
4.01264e-08
6.26829e-08
6.53851e-08
7.26159e-08
7.92711e-08
1.36491e-07
1.8477e-07
4.01019e-07
3.4863e-07
4.01341e-07
3.9473e-07
3.90273e-07
2.14164e-07
2.36798e-07
1.03879e-07
7.05942e-08
2.52934e-07
4.55296e-08
5.86262e-08
2.65746e-08
2.55629e-08
4.89323e-08
5.04787e-08
3.19277e-08
5.8335e-08
9.24984e-08
9.53767e-08
9.41045e-08
1.59948e-07
1.98258e-07
2.01933e-07
1.99436e-07
1.9264e-07
1.79661e-07
1.69704e-07
1.66735e-07
1.62313e-07
1.55502e-07
1.48465e-07
1.40729e-07
1.34835e-07
1.29869e-07
1.25189e-07
1.20091e-07
1.16178e-07
1.13359e-07
1.11007e-07
1.08264e-07
1.05643e-07
1.03072e-07
1.00431e-07
9.74333e-08
9.57618e-08
9.51112e-08
9.33741e-08
9.11517e-08
8.90902e-08
8.69696e-08
8.51414e-08
8.37558e-08
8.21594e-08
8.08238e-08
7.97639e-08
7.86533e-08
7.75821e-08
7.69366e-08
7.64966e-08
7.5922e-08
7.53661e-08
7.49709e-08
7.45013e-08
7.39831e-08
7.34392e-08
7.29468e-08
7.2552e-08
7.21074e-08
7.1564e-08
7.10177e-08
7.05927e-08
7.03316e-08
7.01233e-08
6.99076e-08
6.95986e-08
6.92219e-08
6.91301e-08
6.92679e-08
6.92375e-08
6.88464e-08
6.84194e-08
6.82935e-08
6.85658e-08
6.84082e-08
6.80028e-08
6.73648e-08
6.78545e-08
6.7423e-08
6.82657e-08
6.60722e-08
6.90635e-08
6.43855e-08
5.02855e-08
5.11833e-08
1.61737e-08
4.24444e-08
1.0589e-08
1.00429e-08
1.84683e-09
1.35921e-09
1.83453e-09
2.60081e-09
2.75797e-09
5.29278e-09
1.17381e-08
1.14707e-08
1.49559e-08
2.51803e-08
4.8551e-08
1.00909e-07
1.33296e-07
1.47675e-07
1.58392e-07
1.66456e-07
1.72543e-07
1.79375e-07
1.89702e-07
2.03311e-07
2.16617e-07
2.23646e-07
2.19534e-07
2.04232e-07
1.84214e-07
1.6791e-07
1.59915e-07
1.57994e-07
1.55631e-07
1.50608e-07
1.44928e-07
1.37349e-07
1.24414e-07
9.74041e-08
1.04199e-07
1.13019e-07
1.33208e-07
1.36388e-07
1.00785e-07
6.49494e-08
8.68594e-08
7.3001e-08
7.14761e-08
1.02363e-07
7.64977e-08
4.5501e-08
4.07696e-08
4.86233e-08
5.22571e-08
5.05811e-08
4.9492e-08
5.60298e-08
1.09868e-07
1.16278e-07
1.0452e-07
1.07447e-07
7.85147e-08
4.49619e-08
5.27228e-08
5.90801e-08
3.82867e-08
3.83974e-08
7.63091e-08
7.73791e-08
7.77673e-08
7.81694e-08
7.94372e-08
8.04124e-08
6.79872e-08
6.47675e-08
7.38162e-08
8.85497e-08
9.13137e-08
9.36532e-08
9.58332e-08
9.97012e-08
1.0683e-07
1.1186e-07
1.2496e-07
1.26803e-07
1.23212e-07
1.22982e-07
1.17408e-07
1.03728e-07
9.26359e-08
8.11546e-08
7.15803e-08
6.60602e-08
6.36751e-08
5.20415e-08
6.90085e-08
7.32273e-08
7.55524e-08
7.61418e-08
7.50866e-08
7.22879e-08
6.84183e-08
5.53968e-08
5.41192e-08
4.27553e-08
3.5859e-08
2.84958e-08
4.52747e-08
4.56926e-08
4.72182e-08
5.15574e-08
4.61596e-08
3.32106e-08
2.25054e-08
3.06842e-08
3.32881e-08
3.61828e-08
4.3835e-08
3.44892e-08
4.22101e-08
7.79129e-08
2.63927e-08
2.16391e-08
1.49426e-08
1.73652e-08
9.75309e-09
8.52492e-09
1.24515e-08
1.21402e-08
1.84888e-08
1.91572e-08
2.7565e-08
2.76266e-08
2.06118e-08
1.90152e-08
1.91573e-08
1.81479e-08
1.71504e-08
1.63311e-08
1.56454e-08
1.5352e-08
1.50873e-08
1.50542e-08
1.45362e-08
1.42691e-08
1.4073e-08
1.38474e-08
1.35604e-08
1.34381e-08
1.35195e-08
1.37772e-08
1.38923e-08
1.37058e-08
1.36376e-08
1.38199e-08
1.41421e-08
1.46008e-08
1.49288e-08
1.50857e-08
1.52104e-08
1.55319e-08
1.595e-08
1.63874e-08
1.70038e-08
1.76582e-08
1.80677e-08
1.8386e-08
1.88734e-08
1.95733e-08
2.0163e-08
2.07644e-08
2.163e-08
2.23711e-08
2.30551e-08
2.38573e-08
2.45585e-08
2.55634e-08
2.68446e-08
2.80719e-08
2.92101e-08
3.01822e-08
3.13788e-08
3.29312e-08
3.47957e-08
3.67505e-08
3.87244e-08
4.09736e-08
4.35726e-08
4.62005e-08
4.87082e-08
5.14328e-08
5.45191e-08
5.90052e-08
6.58367e-08
7.32817e-08
8.03851e-08
8.76395e-08
9.39907e-08
1.0138e-07
1.15496e-07
1.38333e-07
1.68455e-07
2.01248e-07
2.24926e-07
2.45071e-07
2.90608e-07
3.75556e-07
4.35043e-07
3.88605e-07
3.13263e-07
2.62472e-07
2.44314e-07
2.38168e-07
2.16522e-07
1.79987e-07
1.51562e-07
1.38587e-07
1.32854e-07
1.27198e-07
1.22925e-07
1.1763e-07
1.10768e-07
1.04593e-07
1.00474e-07
9.88359e-08
9.87403e-08
9.72922e-08
9.27397e-08
8.98037e-08
9.06819e-08
9.21804e-08
9.42632e-08
9.52004e-08
9.48616e-08
9.48225e-08
9.66663e-08
9.85995e-08
9.79489e-08
9.81847e-08
1.01878e-07
1.07701e-07
1.1584e-07
1.21817e-07
1.23454e-07
1.20884e-07
1.18162e-07
1.21582e-07
1.30881e-07
1.41756e-07
1.49039e-07
1.47648e-07
1.40671e-07
1.35382e-07
1.36916e-07
1.42333e-07
1.4882e-07
1.48413e-07
1.36077e-07
1.24692e-07
1.20621e-07
1.19361e-07
1.2066e-07
1.19555e-07
1.11823e-07
1.02029e-07
9.47058e-08
9.13367e-08
8.88841e-08
8.48004e-08
8.03961e-08
7.63674e-08
7.2067e-08
6.80541e-08
6.50201e-08
6.25365e-08
6.04377e-08
5.75037e-08
5.3593e-08
5.0656e-08
4.87896e-08
4.73618e-08
4.57466e-08
4.36902e-08
4.16945e-08
4.00894e-08
3.85616e-08
3.69107e-08
3.55533e-08
3.45021e-08
3.35347e-08
3.26119e-08
3.16901e-08
3.05525e-08
2.95314e-08
2.8786e-08
2.81983e-08
2.77624e-08
2.73267e-08
2.67747e-08
2.62061e-08
2.57685e-08
2.55306e-08
2.54804e-08
2.53896e-08
2.52065e-08
2.50793e-08
2.51282e-08
2.53489e-08
2.5498e-08
2.55593e-08
2.57492e-08
2.61233e-08
2.65418e-08
2.69119e-08
2.72835e-08
2.7731e-08
2.82931e-08
2.89304e-08
2.95173e-08
3.00725e-08
3.06925e-08
3.14154e-08
3.2243e-08
3.31055e-08
3.3977e-08
3.4875e-08
3.58446e-08
3.69357e-08
3.8158e-08
3.95023e-08
4.09089e-08
4.23821e-08
4.39797e-08
4.57542e-08
4.77359e-08
4.99127e-08
5.22593e-08
5.48527e-08
5.77818e-08
6.10302e-08
6.46302e-08
6.86045e-08
7.30326e-08
7.82161e-08
8.43415e-08
9.12947e-08
9.94019e-08
1.08861e-07
1.19688e-07
1.32728e-07
1.49109e-07
1.6982e-07
1.95718e-07
2.28762e-07
2.7239e-07
3.29223e-07
3.9428e-07
4.509e-07
4.68994e-07
4.33859e-07
3.76739e-07
3.22647e-07
2.77041e-07
2.40053e-07
2.10878e-07
1.88214e-07
1.70485e-07
1.56321e-07
1.44525e-07
1.3414e-07
1.25136e-07
1.17845e-07
1.11768e-07
1.0621e-07
1.0111e-07
9.68777e-08
9.32079e-08
8.98952e-08
8.68125e-08
8.38354e-08
8.12992e-08
7.92014e-08
7.72656e-08
7.53344e-08
7.33829e-08
7.16797e-08
7.01126e-08
6.86109e-08
6.73407e-08
6.633e-08
6.53554e-08
6.41253e-08
6.30051e-08
6.22244e-08
6.15865e-08
6.07452e-08
5.98168e-08
5.89401e-08
5.83949e-08
5.78931e-08
5.75441e-08
5.7087e-08
5.65657e-08
5.60173e-08
5.56818e-08
5.53309e-08
5.53093e-08
5.52397e-08
5.53545e-08
5.53508e-08
5.5521e-08
5.53207e-08
5.58005e-08
5.59268e-08
5.62978e-08
5.65769e-08
5.78091e-08
5.88322e-08
5.94624e-08
5.93235e-08
5.99629e-08
6.00383e-08
5.74381e-08
6.42256e-08
6.15194e-08
6.53283e-08
7.01756e-08
8.64669e-08
9.69765e-08
7.67135e-08
7.26105e-08
6.98804e-08
7.40408e-08
7.3349e-08
7.2006e-08
8.49964e-08
8.49415e-08
6.39306e-08
6.37575e-08
8.02326e-08
7.95623e-08
9.07469e-08
9.60689e-08
8.73687e-08
4.55702e-08
3.45469e-08
4.27354e-08
7.03022e-08
9.04768e-08
7.90007e-08
9.19545e-08
7.17201e-08
9.85109e-08
1.46038e-07
1.88109e-07
6.08737e-07
2.13502e-07
5.97084e-07
1.60459e-07
4.23877e-07
1.05209e-07
7.26963e-08
2.39403e-07
3.73308e-08
5.11441e-08
2.32041e-08
2.14837e-08
5.12808e-08
5.3832e-08
3.51564e-08
4.42991e-08
2.70051e-08
3.69155e-08
1.94342e-07
1.21037e-07
2.02081e-07
3.71043e-07
3.98494e-07
3.12793e-07
2.53548e-07
2.14075e-07
1.78547e-07
1.6844e-07
1.71454e-07
1.66138e-07
1.60465e-07
1.53564e-07
1.41324e-07
1.35696e-07
1.32102e-07
1.25288e-07
1.1726e-07
1.14356e-07
1.13532e-07
1.09503e-07
1.04239e-07
1.00751e-07
9.91118e-08
9.78036e-08
9.562e-08
9.30687e-08
9.06114e-08
8.95125e-08
8.67156e-08
8.41859e-08
8.38003e-08
8.42761e-08
8.41087e-08
8.31234e-08
8.1647e-08
8.00772e-08
7.86383e-08
7.73805e-08
7.64152e-08
7.57713e-08
7.45867e-08
7.44657e-08
7.4789e-08
7.37624e-08
7.20379e-08
7.08694e-08
7.03017e-08
7.00273e-08
6.98736e-08
6.96582e-08
6.93276e-08
6.89344e-08
6.85517e-08
6.82267e-08
6.79742e-08
6.78024e-08
6.77002e-08
6.76647e-08
6.76199e-08
6.73592e-08
6.69066e-08
6.64668e-08
6.64379e-08
6.68041e-08
6.67818e-08
6.60968e-08
6.54231e-08
6.56411e-08
6.60941e-08
6.47441e-08
6.55338e-08
6.56134e-08
7.00627e-08
6.47612e-08
4.96108e-08
4.99518e-08
1.55275e-08
4.18291e-08
1.8081e-08
2.1604e-09
1.38927e-09
1.46855e-09
2.78538e-09
1.25837e-08
6.42774e-09
1.1158e-08
2.28199e-08
1.94427e-08
2.25119e-08
3.20983e-08
5.72885e-08
1.07348e-07
1.2104e-07
1.32679e-07
1.4152e-07
1.47314e-07
1.50256e-07
1.56744e-07
1.6956e-07
1.84014e-07
1.92646e-07
1.9147e-07
1.80999e-07
1.64252e-07
1.46436e-07
1.33123e-07
1.26639e-07
1.24759e-07
1.23138e-07
1.20047e-07
1.1628e-07
1.11913e-07
9.83185e-08
6.07808e-08
5.70483e-08
8.0373e-08
1.12353e-07
1.14344e-07
7.57865e-08
4.1029e-08
3.70159e-08
4.03727e-08
5.44901e-08
8.00751e-08
5.91633e-08
3.15626e-08
2.24394e-08
2.10857e-08
2.15576e-08
2.57602e-08
3.46561e-08
7.56618e-08
9.54307e-08
4.03239e-08
3.97038e-08
1.15624e-07
5.72041e-08
4.09046e-08
5.75097e-08
4.36666e-08
2.39482e-08
2.07078e-08
2.96633e-08
6.99702e-08
1.0224e-07
1.0027e-07
9.75715e-08
9.14285e-08
5.3241e-08
4.39981e-08
4.91803e-08
6.89878e-08
9.4233e-08
9.3557e-08
9.21531e-08
9.10013e-08
9.01498e-08
9.05828e-08
9.66804e-08
1.00546e-07
1.00301e-07
1.02345e-07
9.89213e-08
9.14102e-08
8.59407e-08
8.17344e-08
7.74465e-08
7.15642e-08
6.84873e-08
6.68754e-08
6.72316e-08
7.31673e-08
7.78908e-08
8.22677e-08
7.57896e-08
6.67092e-08
7.2305e-08
7.80604e-08
6.66724e-08
5.70434e-08
2.79356e-08
2.717e-08
2.41899e-08
1.83554e-08
1.75178e-08
1.98616e-08
3.33334e-08
5.36462e-08
4.93371e-08
4.51224e-08
3.24237e-08
1.55713e-08
2.04991e-08
2.36113e-08
2.70212e-08
3.77572e-08
2.67384e-08
3.27248e-08
4.37041e-08
2.29937e-08
2.1098e-08
1.30255e-08
1.38609e-08
8.56132e-09
7.5434e-09
9.96613e-09
9.65945e-09
1.56677e-08
1.66e-08
1.97227e-08
1.85684e-08
1.55058e-08
1.46315e-08
1.38391e-08
1.43092e-08
1.37874e-08
1.35264e-08
1.34487e-08
1.32227e-08
1.3008e-08
1.29555e-08
1.25147e-08
1.23034e-08
1.23657e-08
1.25679e-08
1.27332e-08
1.27013e-08
1.2506e-08
1.2563e-08
1.28125e-08
1.30961e-08
1.32854e-08
1.34934e-08
1.37676e-08
1.40229e-08
1.42281e-08
1.44785e-08
1.48496e-08
1.54519e-08
1.60314e-08
1.64081e-08
1.67278e-08
1.72203e-08
1.78943e-08
1.84632e-08
1.89838e-08
1.97383e-08
2.05882e-08
2.12271e-08
2.18985e-08
2.26432e-08
2.35756e-08
2.46653e-08
2.5759e-08
2.68371e-08
2.7882e-08
2.91199e-08
3.07533e-08
3.26206e-08
3.41415e-08
3.56719e-08
3.76509e-08
3.99882e-08
4.28086e-08
4.58806e-08
4.86984e-08
5.14109e-08
5.47087e-08
6.01031e-08
6.64742e-08
7.32563e-08
8.18405e-08
8.94725e-08
9.50892e-08
1.03525e-07
1.19537e-07
1.45596e-07
1.76037e-07
1.93059e-07
1.95124e-07
2.15212e-07
2.62204e-07
2.81029e-07
2.5975e-07
2.39271e-07
2.26568e-07
2.24581e-07
2.16157e-07
1.85613e-07
1.53612e-07
1.34693e-07
1.29356e-07
1.27851e-07
1.24708e-07
1.21793e-07
1.14312e-07
1.04348e-07
9.72659e-08
9.52339e-08
9.80431e-08
9.97145e-08
9.75363e-08
9.17076e-08
8.70199e-08
8.64065e-08
8.813e-08
9.23085e-08
9.53349e-08
9.57546e-08
9.49622e-08
9.42997e-08
9.37137e-08
9.51881e-08
9.88949e-08
1.02489e-07
1.08185e-07
1.16117e-07
1.18282e-07
1.16325e-07
1.14423e-07
1.16678e-07
1.2598e-07
1.37967e-07
1.46902e-07
1.49774e-07
1.44695e-07
1.35466e-07
1.31418e-07
1.37559e-07
1.48408e-07
1.53432e-07
1.47548e-07
1.35224e-07
1.24728e-07
1.21628e-07
1.22582e-07
1.23292e-07
1.16329e-07
1.06112e-07
9.93827e-08
9.52156e-08
9.21755e-08
8.94114e-08
8.43878e-08
7.83804e-08
7.40768e-08
7.02272e-08
6.69162e-08
6.44544e-08
6.24148e-08
5.99441e-08
5.64121e-08
5.26617e-08
4.98542e-08
4.78825e-08
4.63113e-08
4.49633e-08
4.33089e-08
4.15521e-08
3.97646e-08
3.78135e-08
3.6096e-08
3.49636e-08
3.42935e-08
3.35299e-08
3.2442e-08
3.12976e-08
3.02136e-08
2.93254e-08
2.86643e-08
2.819e-08
2.77409e-08
2.71814e-08
2.66527e-08
2.61854e-08
2.5798e-08
2.55168e-08
2.5366e-08
2.52321e-08
2.50784e-08
2.50512e-08
2.51193e-08
2.51817e-08
2.52169e-08
2.52927e-08
2.54764e-08
2.5778e-08
2.61017e-08
2.64243e-08
2.67771e-08
2.72131e-08
2.77473e-08
2.83246e-08
2.88916e-08
2.9446e-08
3.00633e-08
3.07868e-08
3.15838e-08
3.23998e-08
3.32591e-08
3.41584e-08
3.51248e-08
3.61901e-08
3.73471e-08
3.86388e-08
4.00512e-08
4.15473e-08
4.30888e-08
4.47516e-08
4.66358e-08
4.87753e-08
5.10998e-08
5.35734e-08
5.63401e-08
5.94167e-08
6.28296e-08
6.66536e-08
7.09502e-08
7.58754e-08
8.15992e-08
8.81013e-08
9.55415e-08
1.04026e-07
1.13813e-07
1.25504e-07
1.39531e-07
1.56446e-07
1.76799e-07
2.01766e-07
2.32338e-07
2.66709e-07
2.99752e-07
3.24173e-07
3.30521e-07
3.17978e-07
2.95842e-07
2.68704e-07
2.40078e-07
2.14152e-07
1.92446e-07
1.74755e-07
1.60334e-07
1.4829e-07
1.37834e-07
1.28564e-07
1.20655e-07
1.14287e-07
1.08711e-07
1.03422e-07
9.86461e-08
9.45714e-08
9.11673e-08
8.80977e-08
8.51707e-08
8.24436e-08
8.01535e-08
7.80471e-08
7.61261e-08
7.42126e-08
7.24173e-08
7.0779e-08
6.93404e-08
6.79249e-08
6.67239e-08
6.57321e-08
6.48091e-08
6.36212e-08
6.26426e-08
6.18785e-08
6.11666e-08
6.04703e-08
5.96139e-08
5.88976e-08
5.82267e-08
5.78719e-08
5.74145e-08
5.71297e-08
5.65625e-08
5.61255e-08
5.56401e-08
5.55771e-08
5.5555e-08
5.57274e-08
5.5318e-08
5.523e-08
5.47663e-08
5.50351e-08
5.60375e-08
5.72038e-08
5.78612e-08
5.77397e-08
5.7248e-08
5.77558e-08
5.75731e-08
5.68105e-08
6.33472e-08
5.91431e-08
6.16375e-08
6.84842e-08
8.27799e-08
9.04061e-08
7.21668e-08
7.02426e-08
6.7512e-08
6.69886e-08
6.44973e-08
6.63752e-08
7.53993e-08
7.2544e-08
5.84495e-08
5.93773e-08
6.18668e-08
8.03285e-08
9.54912e-08
8.14316e-08
5.86428e-08
4.46838e-08
3.30533e-08
4.2309e-08
6.52798e-08
9.49216e-08
7.93864e-08
8.12971e-08
6.13222e-08
8.11134e-08
1.06862e-07
1.17783e-07
1.63855e-07
1.41941e-07
1.08143e-07
1.95382e-07
2.44956e-07
1.0487e-07
1.32125e-07
1.59651e-07
3.33348e-08
6.01853e-08
2.2914e-08
2.11496e-08
5.08101e-08
4.61405e-08
3.83423e-08
3.69181e-08
3.16288e-08
3.50229e-08
7.28708e-08
1.222e-07
1.38029e-07
1.06094e-07
2.0307e-07
4.88572e-07
1.00995e-06
3.87097e-07
2.94887e-07
2.61794e-07
2.23578e-07
1.91998e-07
1.81156e-07
1.78726e-07
1.6722e-07
1.56862e-07
1.47411e-07
1.37825e-07
1.34493e-07
1.3145e-07
1.25397e-07
1.19309e-07
1.16296e-07
1.14019e-07
1.09544e-07
1.04893e-07
1.02244e-07
1.00834e-07
9.93359e-08
9.66349e-08
9.36814e-08
9.03145e-08
8.78674e-08
8.56924e-08
8.40665e-08
8.34887e-08
8.33609e-08
8.27704e-08
8.15687e-08
8.03198e-08
7.89948e-08
7.77643e-08
7.6906e-08
7.63906e-08
7.57431e-08
7.46268e-08
7.42468e-08
7.39744e-08
7.29819e-08
7.17913e-08
7.09913e-08
7.05442e-08
7.02262e-08
6.98867e-08
6.94681e-08
6.90161e-08
6.86208e-08
6.83335e-08
6.81264e-08
6.79508e-08
6.77728e-08
6.76663e-08
6.7652e-08
6.74685e-08
6.69912e-08
6.64796e-08
6.63187e-08
6.65667e-08
6.66869e-08
6.61665e-08
6.55483e-08
6.56057e-08
6.5994e-08
6.60948e-08
6.4768e-08
6.61492e-08
6.56657e-08
6.93675e-08
6.38777e-08
4.91502e-08
4.97906e-08
1.55035e-08
4.15026e-08
5.50198e-09
1.71542e-09
1.47479e-09
2.16688e-09
5.90914e-09
7.12912e-09
9.3101e-09
6.60194e-08
2.88124e-08
2.72926e-08
3.9227e-08
6.82471e-08
9.91145e-08
1.0931e-07
1.18356e-07
1.26412e-07
1.32726e-07
1.36433e-07
1.38078e-07
1.42689e-07
1.51467e-07
1.59908e-07
1.63634e-07
1.61036e-07
1.52044e-07
1.3986e-07
1.28425e-07
1.20834e-07
1.17591e-07
1.16865e-07
1.16465e-07
1.15816e-07
8.91218e-08
7.62653e-08
5.92907e-08
4.49373e-08
4.21504e-08
5.20454e-08
9.66618e-08
1.12175e-07
5.23777e-08
3.03912e-08
2.48983e-08
3.01298e-08
5.11197e-08
8.7698e-08
5.40605e-08
2.36639e-08
1.5133e-08
1.36799e-08
1.517e-08
1.93543e-08
2.8504e-08
5.63898e-08
4.42716e-08
2.75417e-08
3.18531e-08
1.70583e-07
4.68454e-08
4.84097e-08
1.38441e-07
4.55479e-08
2.09614e-08
1.60384e-08
1.73907e-08
2.47993e-08
4.054e-08
9.07611e-08
1.08187e-07
6.43628e-08
3.76461e-08
3.13052e-08
3.50209e-08
5.01918e-08
7.84734e-08
1.04951e-07
1.00776e-07
9.68178e-08
9.35654e-08
9.12368e-08
8.9256e-08
8.80348e-08
8.70039e-08
8.76257e-08
8.61551e-08
8.32909e-08
8.09886e-08
7.90169e-08
7.63692e-08
7.45499e-08
7.27233e-08
7.13425e-08
7.0792e-08
6.50098e-08
7.81358e-08
5.84961e-08
9.48405e-08
1.03103e-07
7.73936e-08
5.78864e-08
4.49551e-08
4.16937e-08
4.88576e-08
4.16361e-08
3.3451e-08
2.09588e-08
1.88533e-08
1.9988e-08
1.53302e-08
1.62676e-08
1.68125e-08
2.68354e-08
4.78215e-08
5.29815e-08
4.02615e-08
3.14686e-08
1.65219e-08
2.06744e-08
2.51139e-08
2.22618e-08
2.20108e-08
1.84497e-08
2.21752e-08
2.61217e-08
2.10433e-08
2.12606e-08
1.19923e-08
1.25442e-08
8.98346e-09
8.04624e-09
9.52454e-09
8.80021e-09
1.41802e-08
1.53093e-08
1.50031e-08
1.54881e-08
1.41435e-08
1.29368e-08
1.2799e-08
1.36352e-08
1.33504e-08
1.30216e-08
1.27037e-08
1.23382e-08
1.22198e-08
1.25365e-08
1.26703e-08
1.26782e-08
1.25124e-08
1.24703e-08
1.25734e-08
1.28112e-08
1.30306e-08
1.30831e-08
1.31583e-08
1.34517e-08
1.38135e-08
1.40455e-08
1.42429e-08
1.45938e-08
1.50514e-08
1.54403e-08
1.58563e-08
1.63657e-08
1.68804e-08
1.74137e-08
1.80057e-08
1.85343e-08
1.90933e-08
1.99161e-08
2.0683e-08
2.1372e-08
2.22005e-08
2.3078e-08
2.39293e-08
2.48805e-08
2.59501e-08
2.71518e-08
2.85305e-08
3.01936e-08
3.17728e-08
3.30659e-08
3.46039e-08
3.63317e-08
3.83028e-08
4.12494e-08
4.48789e-08
4.78471e-08
5.05424e-08
5.32659e-08
5.70751e-08
6.23505e-08
6.82904e-08
7.67179e-08
8.61845e-08
9.31221e-08
9.85515e-08
1.07163e-07
1.24647e-07
1.47601e-07
1.65047e-07
1.69034e-07
1.79465e-07
2.00067e-07
2.0512e-07
2.05978e-07
2.06705e-07
2.0565e-07
2.01568e-07
1.83334e-07
1.55842e-07
1.34953e-07
1.2576e-07
1.25364e-07
1.25249e-07
1.22801e-07
1.18059e-07
1.08873e-07
9.95648e-08
9.47569e-08
9.51249e-08
9.8082e-08
9.80126e-08
9.48617e-08
9.07562e-08
8.78861e-08
8.73093e-08
8.78677e-08
8.92619e-08
9.22734e-08
9.47551e-08
9.49179e-08
9.38061e-08
9.29534e-08
9.58567e-08
1.007e-07
1.0339e-07
1.06552e-07
1.1273e-07
1.15631e-07
1.13054e-07
1.14836e-07
1.22283e-07
1.32586e-07
1.42653e-07
1.47245e-07
1.46184e-07
1.39775e-07
1.34452e-07
1.37473e-07