/*--------------------------------*- C++ -*----------------------------------*\
| =========                 |                                                 |
| \\      /  F ield         | OpenFOAM: The Open Source CFD Toolbox           |
|  \\    /   O peration     | Version:  v2006                                 |
|   \\  /    A nd           | Website:  www.openfoam.com                      |
|    \\/     M anipulation  |                                                 |
\*---------------------------------------------------------------------------*/
FoamFile
{
    version     2.0;
    format      ascii;
    class       volScalarField;
    location    "6.8";
    object      omega;
}
// * * * * * * * * * * * * * * * * * * * * * * * * * * * * * * * * * * * * * //

dimensions      [0 0 -1 0 0 0 0];


internalField   nonuniform List<scalar> 
33000
(
0.801415
0.801824
0.802436
0.803008
0.803426
0.803827
0.80429
0.804758
0.805156
0.805507
0.805877
0.806316
0.806866
0.807565
0.80843
0.809432
0.810436
0.811169
0.811638
0.812249
0.813373
0.815816
0.820823
0.828923
0.838418
0.846579
0.852026
0.8551
0.856718
0.857566
0.857966
0.858028
0.857805
0.857362
0.856829
0.856385
0.856139
0.856062
0.855986
0.855665
0.855131
0.854633
0.854279
0.854037
0.853825
0.853506
0.852965
0.852333
0.851757
0.851286
0.850981
0.850863
0.850963
0.851258
0.851621
0.851878
0.851813
0.851288
0.850345
0.849053
0.847369
0.845234
0.842734
0.839441
0.836344
0.833998
0.832287
0.83072
0.82908
0.827331
0.825592
0.823963
0.822708
0.822018
0.821894
0.822451
0.823694
0.82568
0.82825
0.831013
0.833313
0.835306
0.836959
0.837894
0.838699
0.838939
0.838814
0.838433
0.837675
0.8366
0.834716
0.832637
0.830483
0.828308
0.826155
0.824447
0.823305
0.822597
0.822763
0.824061
0.826114
0.827526
0.827984
0.828065
0.828183
0.828301
0.828305
0.828103
0.827748
0.827298
0.82681
0.826276
0.825605
0.824707
0.823658
0.822766
0.822306
0.822709
0.823608
0.824046
0.824115
0.824062
0.824099
0.824206
0.824315
0.824383
0.824414
0.824416
0.824428
0.824447
0.82446
0.824457
0.824446
0.824423
0.824399
0.824373
0.824352
0.824334
0.824316
0.824298
0.824282
0.824273
0.824266
0.824264
0.824261
0.82426
0.824268
0.824291
0.824323
0.824355
0.824388
0.824427
0.824479
0.824544
0.824614
0.824678
0.82473
0.82477
0.824801
0.824822
0.824835
0.824842
0.82484
0.824824
0.824797
0.824761
0.824719
0.824664
0.824593
0.82451
0.824424
0.824335
0.824235
0.824123
0.824001
0.823878
0.82376
0.823644
0.823532
0.823424
0.823324
0.823227
0.82313
0.823034
0.822948
0.822876
0.822815
0.822756
0.822691
0.822623
0.822554
0.822488
0.822425
0.822358
0.82228
0.822188
0.822083
0.82197
0.821861
0.821759
0.821658
0.821543
0.821406
0.821255
0.821102
0.820956
0.820816
0.820671
0.820516
0.820356
0.820208
0.82008
0.81996
0.819826
0.819686
0.819561
0.819461
0.819384
0.819321
0.819254
0.819178
0.819104
0.819045
0.819006
0.818984
0.818968
0.818942
0.818907
0.818872
0.818841
0.818823
0.818816
0.818809
0.818787
0.818757
0.818728
0.818698
0.81867
0.818644
0.818614
0.818581
0.818548
0.818511
0.818466
0.81841
0.818352
0.818297
0.818247
0.818198
0.818135
0.818058
0.817982
0.81791
0.817838
0.817765
0.817686
0.817599
0.817508
0.817417
0.817323
0.81723
0.817132
0.817027
0.816918
0.816807
0.816698
0.816592
0.816481
0.816361
0.816233
0.816105
0.815978
0.815851
0.815724
0.815595
0.81546
0.81532
0.815177
0.815032
0.814887
0.814741
0.814596
0.814453
0.814309
0.81416
0.81401
0.813862
0.813716
0.813572
0.813429
0.813287
0.813144
0.813001
0.81286
0.812722
0.812587
0.812454
0.812322
0.812189
0.812057
0.811926
0.811796
0.811665
0.811532
0.811395
0.811252
0.811105
0.810958
0.81081
0.810663
0.810519
0.81038
0.810245
0.810113
0.809984
0.80986
0.809742
0.809628
0.80952
0.809416
0.809319
0.809228
0.809143
0.809065
0.808993
0.808928
0.808871
0.808819
0.808771
0.808728
0.808689
0.808655
0.808626
0.808601
0.808579
0.808561
0.808543
0.808526
0.808507
0.808484
0.808459
0.808431
0.8084
0.808367
0.808332
0.808294
0.808254
0.808212
0.808168
0.808123
0.808075
0.808026
0.807975
0.807922
0.807867
0.80781
0.807752
0.807692
0.807632
0.80757
0.807506
0.807442
0.807377
0.807311
0.807244
0.807176
0.807107
0.807038
0.806969
0.806899
0.80683
0.80676
0.806689
0.806618
0.806547
0.806475
0.806403
0.80633
0.806257
0.806183
0.806109
0.806034
0.805959
0.805883
0.805806
0.80573
0.805653
0.805577
0.8055
0.805424
0.805348
0.805273
0.805198
0.805123
0.805049
0.804976
0.804904
0.804833
0.804764
0.804697
0.804633
0.80457
0.804511
0.804453
0.804398
0.804346
0.804296
0.804248
0.804203
0.80416
0.804119
0.80408
0.804043
0.804007
0.803973
0.803941
0.803909
0.803879
0.803849
0.803817
0.803791
0.803763
0.803737
0.803716
0.803673
0.803635
0.803629
0.803579
0.803582
0.803571
0.803671
0.803706
0.803767
0.803793
0.803818
0.803827
0.803827
0.803824
0.803819
0.803814
0.803803
0.803806
0.803789
0.80376
0.803756
0.803716
0.803667
0.803608
0.803622
0.803632
0.803661
0.803689
0.803703
0.803716
0.803722
0.80373
0.803731
0.80372
0.803709
0.803703
0.803677
0.803696
0.803672
0.80359
0.803565
0.80351
0.80345
0.803478
0.80362
0.803899
0.80422
0.804648
0.80504
0.80542
0.805734
0.805993
0.806204
0.806378
0.806521
0.806634
0.806728
0.806811
0.806881
0.806943
0.807
0.807047
0.807092
0.807136
0.807175
0.807207
0.807239
0.807271
0.807301
0.807327
0.807349
0.80737
0.807391
0.80741
0.807427
0.807443
0.80746
0.807473
0.807482
0.807489
0.807496
0.807504
0.807511
0.807516
0.807521
0.807523
0.807525
0.807525
0.807526
0.807524
0.807521
0.807521
0.80752
0.807517
0.807512
0.807506
0.807498
0.807489
0.807479
0.807469
0.807458
0.807447
0.807434
0.807421
0.807407
0.807391
0.807376
0.80736
0.807344
0.807326
0.807307
0.807287
0.807267
0.807247
0.807226
0.807203
0.807181
0.80716
0.807137
0.807111
0.807087
0.807065
0.807046
0.807022
0.806987
0.806888
0.0418169
0.171953
0.421995
0.653764
0.757429
0.818031
0.879339
0.926572
0.932704
0.905441
0.859893
0.843545
0.879534
0.952604
1.04977
1.16257
1.28591
1.39713
1.46205
1.46407
1.41179
1.3215
1.22973
1.16688
1.11703
1.05742
0.979875
0.89978
0.844383
0.820175
0.806635
0.775213
0.721747
0.661809
0.601891
0.55245
0.537361
0.561744
0.588344
0.589747
0.555763
0.501327
0.472009
0.482576
0.512985
0.529224
0.517628
0.475501
0.428047
0.398684
0.386825
0.386995
0.395311
0.418248
0.448088
0.463708
0.464746
0.461347
0.467275
0.490621
0.515163
0.523193
0.51839
0.516775
0.529557
0.564773
0.623218
0.698572
0.782795
0.860896
0.918723
0.943329
0.952274
0.970807
0.999908
1.04827
1.11451
1.16726
1.1732
1.20281
1.29896
1.3937
1.33011
1.29569
1.12197
0.990924
0.812661
0.652534
0.515282
0.409095
0.365619
0.365797
0.408788
0.488528
0.589905
0.697864
0.800408
0.870881
0.927809
0.986259
1.01797
0.997257
0.921749
0.79188
0.651965
0.508305
0.3724
0.277223
0.22695
0.194625
0.175207
0.171759
0.179713
0.194767
0.212838
0.227229
0.238659
0.249406
0.262567
0.266692
0.243682
0.212729
0.198423
0.182032
0.166826
0.159669
0.152695
0.147914
0.147058
0.145312
0.143889
0.143487
0.142681
0.143419
0.144141
0.144659
0.144639
0.144378
0.144692
0.144703
0.144601
0.144021
0.14305
0.141723
0.140792
0.140401
0.14019
0.13982
0.138861
0.137487
0.136671
0.136334
0.136026
0.135468
0.134806
0.134265
0.133762
0.133255
0.132681
0.132093
0.131674
0.131276
0.130616
0.12983
0.129302
0.128936
0.12834
0.127376
0.126472
0.125863
0.125336
0.124638
0.12365
0.122509
0.121474
0.120593
0.119804
0.118934
0.117921
0.116791
0.115578
0.114208
0.112728
0.111337
0.110091
0.10897
0.107829
0.106483
0.104971
0.103457
0.10206
0.100835
0.0996564
0.0984033
0.0970005
0.095476
0.0939604
0.0925997
0.0914468
0.0904103
0.0893212
0.088095
0.0867382
0.0853681
0.084093
0.082946
0.0818691
0.0807654
0.0795927
0.078403
0.0772847
0.0762139
0.0750751
0.0738113
0.0725244
0.0714073
0.0704934
0.0696457
0.0686621
0.0674557
0.0661713
0.0650222
0.0641113
0.0633749
0.0626719
0.061863
0.0609133
0.0599427
0.0590927
0.0584361
0.0579406
0.0574671
0.0569099
0.0562855
0.0556977
0.0552279
0.054891
0.0546577
0.0544497
0.0542299
0.0540429
0.0539037
0.0537601
0.0535824
0.0534207
0.0533632
0.0534575
0.0535934
0.053609
0.0534958
0.0533957
0.0534165
0.0535321
0.0536441
0.0536999
0.0536929
0.053649
0.0536235
0.0536418
0.0536731
0.0536735
0.0536122
0.0535185
0.0534809
0.053558
0.0537145
0.0538214
0.0537532
0.0535524
0.0533739
0.0533201
0.0534079
0.0535762
0.0537066
0.0537274
0.053667
0.0536004
0.0535613
0.0535438
0.0535485
0.0536278
0.0538046
0.0539549
0.0539605
0.0538664
0.053793
0.0537942
0.0538702
0.054012
0.0541547
0.0542024
0.0541493
0.054079
0.0540487
0.0540964
0.054206
0.0542691
0.0542473
0.0541727
0.0540643
0.0539921
0.0539798
0.0539302
0.0537971
0.0536063
0.0534302
0.0532656
0.0530547
0.0527751
0.0524583
0.0521835
0.051972
0.051753
0.0514391
0.0510455
0.0506771
0.0503738
0.0500768
0.0497617
0.0494431
0.0491604
0.048942
0.0487379
0.0485109
0.048303
0.0481805
0.0481467
0.0481236
0.0480735
0.0480395
0.0480893
0.0482589
0.0484668
0.0485965
0.0486213
0.0486056
0.0486187
0.0486812
0.0487825
0.0488634
0.0488803
0.04886
0.0488447
0.048887
0.0489728
0.0490052
0.0489553
0.0488786
0.0488515
0.0488968
0.0489582
0.0489559
0.0489036
0.0489092
0.0489741
0.0490105
0.049015
0.0490211
0.0490286
0.0490193
0.049
0.0489824
0.0489645
0.0489593
0.0489557
0.0489316
0.0488699
0.0487874
0.0487051
0.0486422
0.048575
0.0484622
0.0482965
0.0481167
0.0479617
0.0478085
0.0476442
0.0474729
0.0473171
0.0471544
0.0469273
0.0466386
0.0463467
0.0460914
0.0458536
0.0456111
0.0453649
0.0450604
0.0447217
0.044412
0.0441475
0.0438343
0.0434603
0.0431071
0.0427831
0.042423
0.0420911
0.0417875
0.0414604
0.0410815
0.040653
0.0402121
0.0398306
0.0394618
0.0390891
0.0387127
0.0382404
0.0377538
0.0372843
0.0368664
0.0364937
0.0360821
0.0357116
0.0351758
0.0347959
0.0344628
0.0340817
0.033943
0.0336448
0.0328794
0.0325381
0.0322605
0.0320585
0.033487
0.033858
0.0320728
0.0326887
0.032034
0.0320197
0.0322197
0.0321573
0.0310205
0.030052
0.0288803
0.0285244
0.0279852
0.0275883
0.0272825
0.0272972
0.0272715
0.0274146
0.0303424
0.0320427
0.0291203
0.0307309
0.0297881
0.0291493
0.0286623
0.0287289
0.0286398
0.0273404
0.0263759
0.0256931
0.0253942
0.0253673
0.0253855
0.0257852
0.0261208
0.0257937
0.0263181
0.0263652
0.0291493
0.0422331
0.0466205
0.0523503
0.0509504
0.0546175
0.0567859
0.0689715
0.0737767
0.0640787
0.0631767
0.0578732
0.0500982
0.0428007
0.0372735
0.0334871
0.0309855
0.0293585
0.0283008
0.0276253
0.0272023
0.0269365
0.0267974
0.0267568
0.0267687
0.0268362
0.0269421
0.0270583
0.0271521
0.0272573
0.0273956
0.0275491
0.0276949
0.0278204
0.0279305
0.0280353
0.0281334
0.0282272
0.0283098
0.0284014
0.0284497
0.0284227
0.0283586
0.0283047
0.0282852
0.0283067
0.0283569
0.0284166
0.028477
0.028541
0.0286119
0.0286921
0.0287499
0.0288249
0.0289565
0.0291109
0.0292309
0.0292937
0.0293039
0.0292784
0.0292398
0.0292104
0.0292084
0.0292414
0.0292989
0.0293541
0.0293795
0.0293737
0.0293679
0.0294025
0.0294925
0.029602
0.0296708
0.0296764
0.0296612
0.029682
0.0297318
0.0297528
0.0297159
0.0296765
0.0296348
0.0295222
0.0293503
0.0291917
0.0292483
0.0294001
0.0298629
0.0321264
0.0315572
0.027933
0.120631
0.24022
0.289156
0.290633
0.302424
0.339523
0.384814
0.428338
0.454726
0.464098
0.480082
0.530229
0.630317
0.779204
0.956342
1.13835
1.28727
1.37149
1.38186
1.33483
1.25412
1.15966
1.05795
0.943335
0.817646
0.699909
0.611819
0.560684
0.537064
0.520054
0.492839
0.454056
0.412165
0.374441
0.348964
0.33877
0.344075
0.351708
0.350374
0.336032
0.311417
0.291943
0.292448
0.304276
0.310042
0.305576
0.286747
0.259229
0.234469
0.221442
0.219243
0.223976
0.232094
0.238902
0.243108
0.243122
0.243604
0.259321
0.282913
0.298032
0.300834
0.292776
0.275142
0.257383
0.257052
0.271699
0.296054
0.327842
0.358979
0.376544
0.38592
0.39449
0.410903
0.440494
0.484177
0.540806
0.626621
0.745915
0.851019
0.996479
1.06959
1.1201
1.20582
1.23748
1.14369
1.01256
0.828564
0.645565
0.498174
0.388211
0.319532
0.289297
0.288381
0.309949
0.338272
0.36407
0.3791
0.389288
0.396249
0.399139
0.404906
0.415393
0.415973
0.406668
0.382842
0.342133
0.288995
0.230879
0.171878
0.119082
0.0817348
0.0581866
0.0473915
0.0475924
0.0522776
0.0561728
0.0576219
0.0567673
0.0554062
0.0566701
0.0590203
0.0600787
0.0528501
0.0436947
0.0391619
0.0345261
0.0310352
0.029635
0.0280323
0.0268494
0.0264727
0.0260368
0.0261971
0.0265449
0.0268101
0.0268095
0.026641
0.0266606
0.0265535
0.0265284
0.0263752
0.0260885
0.0257273
0.025475
0.0253517
0.0252458
0.0250617
0.0247557
0.0244396
0.0242586
0.0241597
0.0240336
0.0238243
0.0236147
0.0234833
0.0233851
0.0232611
0.0230919
0.0229065
0.0227472
0.0225882
0.0223919
0.02218
0.0220129
0.0218627
0.0216614
0.0213835
0.0210993
0.020879
0.0206862
0.0204548
0.0201643
0.0198264
0.019489
0.0191872
0.0189169
0.0186402
0.0183299
0.0179868
0.0176234
0.0172229
0.0167904
0.0163683
0.0159792
0.0156326
0.0153048
0.0149473
0.0145537
0.0141436
0.0137422
0.0133786
0.0130457
0.012723
0.0123875
0.0120277
0.0116578
0.0113127
0.011017
0.0107603
0.0105055
0.0102252
0.00992061
0.00961929
0.00934615
0.00910527
0.00887869
0.00864541
0.00840177
0.0081641
0.00794925
0.00774946
0.00753719
0.00730067
0.00706534
0.00686431
0.00670036
0.00655351
0.00639695
0.00621287
0.00601316
0.00582737
0.00567495
0.00555465
0.00544898
0.00533636
0.00520564
0.00506901
0.00494355
0.00484239
0.00476652
0.00469865
0.00462316
0.00453841
0.00445828
0.00439388
0.00434743
0.00431488
0.00428618
0.00425661
0.00422892
0.004206
0.00418593
0.00416555
0.00414857
0.00414214
0.00415019
0.00416329
0.00416685
0.00415946
0.00415351
0.00415805
0.00416975
0.00418029
0.00418752
0.0041916
0.00419384
0.00419841
0.00420454
0.0042073
0.00420492
0.00419836
0.00419219
0.00419357
0.00420683
0.00422734
0.00424028
0.00423345
0.00421388
0.00419807
0.00419605
0.00420779
0.00422533
0.00423968
0.0042467
0.00424689
0.0042437
0.0042398
0.00423687
0.00423819
0.00424991
0.00427213
0.00429107
0.00429438
0.00428629
0.00428079
0.00428429
0.00429469
0.00431018
0.00432593
0.00433335
0.00433181
0.0043292
0.00432962
0.00433557
0.00434604
0.00435309
0.00435589
0.00435554
0.00434836
0.00433912
0.00433386
0.00432898
0.00432026
0.00430324
0.0042819
0.00426072
0.00423847
0.00421069
0.00417716
0.00414469
0.00411676
0.00409016
0.00405602
0.00401226
0.00396798
0.00392894
0.00389277
0.00385782
0.00382273
0.00378867
0.00375839
0.00373013
0.00370303
0.00368094
0.00366668
0.00365807
0.00364971
0.00364048
0.00363523
0.00363843
0.00365082
0.00366563
0.00367394
0.00367381
0.00367069
0.00366962
0.00367141
0.00367578
0.0036796
0.00367977
0.00367669
0.00367344
0.00367527
0.00367938
0.00367786
0.00367092
0.00366372
0.00366131
0.00366428
0.00366808
0.00366764
0.00366446
0.0036661
0.00367251
0.00367824
0.00368278
0.00368624
0.00368802
0.00368823
0.0036885
0.00368937
0.00368929
0.00368945
0.00368936
0.0036877
0.00368364
0.00367758
0.00367074
0.00366466
0.00365776
0.00364687
0.00363057
0.00361243
0.00359624
0.00358052
0.00356431
0.00354599
0.00352721
0.00350782
0.00348458
0.00345649
0.00342689
0.00340002
0.00337469
0.00334822
0.00332043
0.00328798
0.00325423
0.00322247
0.00319222
0.00315813
0.00312158
0.00308777
0.00305501
0.0030181
0.00298323
0.00295022
0.00291697
0.00288217
0.00284219
0.00280144
0.00276478
0.00272825
0.0026908
0.00265594
0.00261591
0.00257506
0.00253324
0.00249167
0.002455
0.00241436
0.00238296
0.00234462
0.00232205
0.00229728
0.00225323
0.00222462
0.00220515
0.00220942
0.00225918
0.00229171
0.00222273
0.00232347
0.00229895
0.00214389
0.00203169
0.00196934
0.0020033
0.00204647
0.00206499
0.0019958
0.0019174
0.00185294
0.00181547
0.00178365
0.00178347
0.00185233
0.00195045
0.00203611
0.00197465
0.00215847
0.00216597
0.00200918
0.00187957
0.00180651
0.00182898
0.00178751
0.00181952
0.00177533
0.00174116
0.00173115
0.0017131
0.00171993
0.00170449
0.00164554
0.0016977
0.00176534
0.00192194
0.002453
0.00291884
0.00354635
0.0042036
0.00452302
0.00438297
0.00432334
0.004376
0.00376984
0.00441905
0.00458901
0.00443995
0.00418208
0.00369624
0.00318183
0.00273254
0.00239324
0.00216076
0.00200682
0.00190506
0.00183409
0.00178407
0.00175045
0.00172697
0.00171193
0.00170434
0.0016999
0.00169872
0.0017009
0.0017049
0.00170795
0.00171219
0.00171971
0.00172899
0.00173782
0.00174558
0.00175261
0.00175943
0.00176594
0.00177231
0.00177783
0.00178396
0.00178802
0.00178803
0.00178598
0.00178465
0.00178511
0.00178715
0.00179032
0.00179409
0.00179815
0.00180262
0.00180788
0.00181415
0.0018191
0.00182434
0.00183229
0.0018413
0.00184839
0.00185256
0.0018542
0.0018541
0.00185316
0.00185239
0.00185288
0.00185535
0.00185948
0.00186386
0.001867
0.00186864
0.00187032
0.00187426
0.00188087
0.00188756
0.00189138
0.0018921
0.00189243
0.00189491
0.00189806
0.00189896
0.00189695
0.0018957
0.00189528
0.00189043
0.00188259
0.00187544
0.00188748
0.0019096
0.00197757
0.00217967
0.0021972
0.0270595
0.0969353
0.146666
0.155536
0.153361
0.161419
0.191282
0.230568
0.273709
0.301242
0.3146
0.329649
0.361278
0.416254
0.50776
0.643735
0.800555
0.932635
0.994373
1.00559
0.991691
0.950739
0.876019
0.772548
0.653884
0.53688
0.440018
0.375891
0.343049
0.329431
0.318733
0.299545
0.27135
0.24204
0.218716
0.204288
0.196618
0.19492
0.195784
0.193878
0.186792
0.176003
0.167303
0.164428
0.166807
0.168618
0.166532
0.158601
0.147573
0.136403
0.127298
0.121022
0.118579
0.118889
0.121023
0.124019
0.123649
0.124399
0.135088
0.148929
0.158654
0.162996
0.159969
0.14968
0.140445
0.13535
0.137194
0.14616
0.160335
0.176806
0.196077
0.214056
0.229461
0.245393
0.267774
0.301102
0.341428
0.383872
0.424972
0.472131
0.564317
0.643813
0.696929
0.779084
0.795482
0.757339
0.737037
0.705931
0.65401
0.564424
0.468977
0.367593
0.292625
0.241488
0.210186
0.197876
0.195992
0.199605
0.200751
0.199064
0.19472
0.191723
0.191848
0.193108
0.197201
0.205242
0.207973
0.208638
0.205227
0.188543
0.159689
0.129633
0.0988217
0.0682132
0.0437033
0.0278284
0.019385
0.0160536
0.0151474
0.0149322
0.0149119
0.0151829
0.0156081
0.0166136
0.0175229
0.0176665
0.0148623
0.0117924
0.010252
0.00886117
0.00787173
0.00738333
0.00685045
0.00655761
0.00650127
0.00651508
0.00649309
0.00645285
0.006443
0.00635351
0.00630308
0.00625624
0.00617931
0.00611136
0.00605719
0.00600903
0.00595789
0.00589478
0.00582216
0.00576773
0.0057321
0.00569902
0.0056578
0.00560461
0.00555633
0.00552508
0.00550237
0.00547723
0.00544248
0.00540047
0.00535495
0.00530787
0.00526263
0.00521909
0.00517897
0.00513621
0.00508679
0.00502726
0.00496248
0.00490578
0.00485732
0.00480538
0.00474366
0.00467166
0.00459671
0.00452772
0.00446536
0.00440394
0.00433732
0.00426545
0.00419118
0.00411266
0.00402902
0.00394457
0.00386453
0.00379222
0.00372622
0.00365988
0.00358958
0.0035152
0.00343904
0.00336735
0.00330261
0.00324336
0.00318616
0.00312634
0.00306245
0.00299961
0.00294467
0.00289823
0.00285393
0.00280502
0.00275041
0.00269686
0.00265039
0.00261002
0.00257082
0.00252835
0.00248255
0.0024374
0.002397
0.0023615
0.00232521
0.00228352
0.00224006
0.00219991
0.0021634
0.00213041
0.0021
0.0020681
0.0020323
0.00199442
0.0019583
0.0019275
0.00190247
0.00187991
0.00185463
0.00182599
0.00179608
0.00176833
0.00174533
0.00172588
0.00170761
0.00168886
0.00167037
0.00165277
0.00163702
0.00162196
0.00160724
0.00159532
0.00158584
0.00157765
0.00156932
0.00155958
0.00154978
0.00154176
0.00153621
0.00153295
0.00153111
0.00152857
0.00152435
0.00151952
0.00151571
0.00151355
0.00151293
0.00151307
0.00151243
0.00151061
0.00150856
0.00150777
0.00150771
0.00150719
0.00150642
0.0015058
0.00150607
0.00150803
0.00151018
0.00151057
0.00151008
0.00150998
0.00151055
0.00151146
0.00151268
0.00151473
0.00151751
0.00152014
0.00152211
0.00152325
0.0015237
0.00152471
0.00152705
0.00153049
0.00153429
0.00153728
0.00153877
0.00153949
0.00154076
0.00154296
0.00154567
0.00154867
0.00155121
0.00155279
0.00155376
0.0015546
0.00155565
0.00155678
0.00155781
0.00155874
0.00155925
0.00155853
0.00155705
0.00155569
0.0015542
0.00155214
0.00154907
0.00154524
0.00154128
0.00153708
0.00153187
0.00152575
0.00151946
0.00151329
0.00150696
0.00149971
0.00149135
0.00148264
0.00147419
0.0014659
0.00145753
0.00144895
0.00144018
0.00143144
0.00142284
0.00141449
0.00140667
0.00139936
0.00139225
0.00138512
0.00137806
0.00137154
0.00136586
0.00136082
0.00135592
0.00135085
0.00134562
0.0013405
0.00133575
0.00133126
0.00132706
0.00132325
0.00131955
0.00131577
0.00131216
0.0013089
0.0013058
0.00130261
0.00129951
0.00129682
0.00129469
0.00129304
0.00129162
0.00129007
0.00128849
0.00128735
0.00128674
0.00128646
0.00128635
0.00128608
0.00128563
0.00128524
0.00128505
0.00128501
0.00128483
0.00128452
0.00128421
0.00128395
0.00128367
0.00128317
0.00128237
0.00128161
0.00128095
0.00128011
0.00127872
0.00127698
0.00127531
0.00127375
0.00127214
0.00127019
0.00126807
0.00126592
0.00126366
0.00126111
0.00125828
0.00125549
0.0012528
0.00124988
0.0012467
0.00124325
0.00123997
0.00123662
0.00123315
0.0012294
0.00122566
0.00122215
0.00121869
0.00121485
0.00121091
0.00120707
0.00120327
0.00119962
0.00119575
0.00119162
0.00118764
0.00118363
0.00117964
0.00117619
0.00117231
0.00116766
0.00116354
0.00115971
0.00115637
0.00115438
0.00115332
0.00115225
0.00114583
0.00115035
0.00117486
0.00118966
0.00121985
0.00124101
0.00134002
0.00136935
0.00128317
0.00122855
0.00118875
0.00117858
0.00114003
0.00113245
0.001119
0.00111531
0.0011185
0.00111938
0.00112998
0.00118119
0.00121332
0.00124566
0.00128444
0.00133812
0.00144856
0.0015205
0.0014104
0.00131571
0.00123597
0.00122233
0.00115217
0.0011381
0.00110579
0.00109904
0.00111996
0.00111911
0.00114135
0.00111395
0.00116855
0.00120054
0.001255
0.00135616
0.00158812
0.00190945
0.00250083
0.00305874
0.00339211
0.00335942
0.00298947
0.00257647
0.00209283
0.00187808
0.001682
0.00150486
0.00139886
0.00135378
0.00134563
0.00133629
0.00132222
0.00130201
0.0012772
0.00125077
0.00122675
0.00120664
0.00118994
0.00117534
0.00116262
0.00115243
0.00114367
0.00113648
0.0011309
0.00112565
0.00112123
0.00111798
0.00111545
0.00111296
0.00111098
0.00110989
0.00110911
0.00110803
0.0011069
0.00110597
0.00110551
0.00110539
0.0011056
0.0011056
0.00110562
0.00110544
0.00110485
0.00110417
0.00110378
0.00110371
0.00110375
0.00110387
0.00110398
0.00110397
0.00110389
0.00110395
0.00110421
0.00110419
0.00110416
0.00110446
0.00110486
0.00110503
0.00110499
0.00110484
0.00110466
0.0011045
0.00110439
0.00110432
0.0011043
0.00110433
0.00110436
0.00110438
0.00110436
0.00110431
0.00110437
0.0011046
0.00110482
0.00110485
0.00110466
0.00110453
0.0011047
0.00110489
0.00110476
0.00110448
0.00110443
0.00110489
0.00110433
0.00110409
0.00110332
0.00111172
0.00112545
0.00117032
0.00130268
0.00133331
0.0227133
0.0672701
0.0939595
0.100835
0.1095
0.132256
0.160485
0.188026
0.209731
0.219224
0.224917
0.237027
0.260307
0.296012
0.352259
0.438125
0.542895
0.630869
0.672495
0.677323
0.657407
0.612389
0.547732
0.471983
0.39127
0.316637
0.25813
0.221378
0.203938
0.197287
0.191033
0.179109
0.161949
0.144917
0.13247
0.124617
0.119089
0.115111
0.112332
0.110057
0.107725
0.104813
0.101433
0.097676
0.0951111
0.0941411
0.0939758
0.0932868
0.0908209
0.0853243
0.0777755
0.0709865
0.0669485
0.0654264
0.0661413
0.0673137
0.0670728
0.0675217
0.0728133
0.0795371
0.0855835
0.09102
0.0927249
0.0900541
0.0857132
0.0824797
0.0820164
0.0847413
0.0905485
0.0985337
0.109338
0.122376
0.133711
0.143876
0.157026
0.174649
0.196318
0.218335
0.236556
0.250826
0.263133
0.279705
0.296839
0.340563
0.356076
0.34969
0.370442
0.393194
0.392642
0.371484
0.355119
0.3349
0.303366
0.259702
0.211019
0.173357
0.146919
0.129006
0.118659
0.111667
0.107487
0.103047
0.0994623
0.0975374
0.0983359
0.102705
0.107893
0.11403
0.122045
0.128099
0.131969
0.130004
0.119753
0.102955
0.0851823
0.0678443
0.0493271
0.0323584
0.0198633
0.0128502
0.00962912
0.00844546
0.00810265
0.00810111
0.00848465
0.00903797
0.00989438
0.0105298
0.0105393
0.00873387
0.00684365
0.00582024
0.00494612
0.0043555
0.00403816
0.00385704
0.00359791
0.00333109
0.00320407
0.00310253
0.00305574
0.0030276
0.00298255
0.00295013
0.00293014
0.00290205
0.00288118
0.00286407
0.00284939
0.0028382
0.00282776
0.00281526
0.00280467
0.00279653
0.00279053
0.00278372
0.00277591
0.00276993
0.00276522
0.00275827
0.00274847
0.00273819
0.00272877
0.00271835
0.0027074
0.00269661
0.0026859
0.0026743
0.0026612
0.00264686
0.00263375
0.00262234
0.00261005
0.00259587
0.00258075
0.00256525
0.0025496
0.00253394
0.00251849
0.00250399
0.00249038
0.00247602
0.00245871
0.00243901
0.00241901
0.00239995
0.00238331
0.00236935
0.00235562
0.00234022
0.00232226
0.00230258
0.00228373
0.00226758
0.00225411
0.0022407
0.00222443
0.00220527
0.00218657
0.00217093
0.00215711
0.00214205
0.00212375
0.0021053
0.00208977
0.00207514
0.00205861
0.00203904
0.00201765
0.00199723
0.00198027
0.00196608
0.0019503
0.00192983
0.00190653
0.00188342
0.00186173
0.00184293
0.0018268
0.0018097
0.0017889
0.00176526
0.00174209
0.00172181
0.00170399
0.00168772
0.00167102
0.00165298
0.00163388
0.00161381
0.0015945
0.00157778
0.00156348
0.0015501
0.00153607
0.00152129
0.00150777
0.00149481
0.00148188
0.00147136
0.00146332
0.00145511
0.00144554
0.00143529
0.00142571
0.00141806
0.00141258
0.001409
0.00140614
0.00140189
0.00139609
0.00139039
0.00138654
0.00138431
0.00138256
0.00138122
0.00137936
0.0013767
0.00137456
0.00137437
0.00137517
0.00137507
0.00137384
0.00137229
0.00137101
0.0013713
0.00137318
0.00137503
0.00137602
0.00137626
0.00137594
0.00137575
0.00137702
0.00137931
0.00138108
0.0013824
0.00138404
0.00138597
0.00138729
0.00138804
0.00138923
0.00139138
0.00139409
0.0013966
0.00139834
0.00139908
0.00139987
0.00140191
0.00140431
0.00140605
0.00140747
0.00140851
0.00140923
0.0014104
0.00141169
0.00141238
0.00141271
0.00141292
0.00141292
0.00141273
0.00141223
0.00141136
0.00141005
0.00140829
0.0014064
0.00140424
0.00140165
0.00139875
0.00139531
0.00139142
0.00138732
0.001383
0.00137836
0.00137324
0.00136775
0.00136208
0.00135626
0.00135018
0.00134379
0.00133727
0.0013307
0.00132399
0.00131716
0.00131023
0.00130324
0.00129629
0.00128944
0.0012826
0.00127575
0.00126903
0.0012625
0.00125617
0.00124995
0.00124387
0.00123806
0.00123257
0.00122737
0.00122237
0.0012176
0.00121313
0.00120884
0.00120472
0.0012009
0.00119731
0.0011939
0.00119076
0.00118787
0.00118521
0.0011828
0.00118069
0.00117889
0.00117721
0.0011756
0.00117419
0.00117301
0.00117205
0.00117125
0.00117053
0.0011699
0.00116935
0.00116888
0.00116852
0.0011682
0.00116785
0.0011675
0.00116715
0.00116682
0.00116653
0.00116623
0.00116585
0.00116546
0.00116514
0.00116481
0.0011643
0.00116367
0.00116303
0.00116237
0.00116167
0.00116092
0.00116006
0.00115915
0.00115824
0.00115725
0.00115609
0.0011549
0.00115375
0.0011525
0.0011511
0.00114968
0.00114823
0.00114678
0.00114525
0.00114362
0.00114197
0.00114039
0.00113877
0.0011371
0.00113533
0.00113346
0.00113157
0.00112981
0.00112801
0.00112641
0.00112474
0.00112248
0.00112075
0.00111958
0.00111873
0.00112325
0.00112245
0.00112047
0.00111486
0.00112015
0.00114442
0.00116103
0.00119293
0.00121688
0.00131701
0.00135095
0.00126852
0.00121605
0.00117574
0.00116285
0.00112378
0.00111229
0.00110088
0.00110113
0.00110015
0.00110049
0.00111636
0.00116994
0.0012091
0.00127633
0.00130373
0.0014521
0.00152306
0.00146197
0.00136478
0.0012554
0.00120815
0.00120249
0.00113902
0.00112573
0.00109343
0.00108561
0.00110076
0.00110588
0.00111363
0.0011084
0.00116459
0.00124324
0.00137073
0.00155566
0.00193538
0.00218543
0.00279919
0.00324243
0.00351412
0.00342521
0.00308177
0.00266586
0.00215108
0.00190971
0.00165742
0.00143364
0.00129979
0.00123266
0.0012177
0.00122327
0.00122914
0.00122655
0.00122264
0.00121809
0.00121243
0.00120485
0.00119515
0.00118423
0.00117355
0.00116283
0.00115324
0.0011452
0.00113829
0.00113172
0.00112566
0.00112013
0.00111507
0.00111091
0.0011077
0.00110497
0.00110236
0.00110015
0.00109832
0.0010967
0.00109528
0.00109416
0.00109328
0.00109242
0.0010916
0.00109113
0.00109087
0.00109051
0.00109001
0.00108942
0.00108883
0.00108835
0.00108804
0.00108782
0.0010877
0.0010876
0.00108745
0.00108725
0.00108707
0.00108691
0.0010867
0.00108651
0.00108642
0.00108635
0.00108624
0.00108604
0.00108581
0.00108559
0.00108543
0.00108533
0.00108523
0.00108508
0.00108489
0.00108469
0.00108452
0.00108438
0.00108423
0.00108411
0.00108404
0.00108394
0.00108373
0.00108353
0.00108353
0.00108362
0.00108351
0.00108312
0.00108308
0.00108315
0.0010833
0.00108266
0.00108289
0.00108245
0.00109066
0.00110415
0.0011485
0.0012792
0.0013104
0.0172834
0.0466108
0.0643368
0.0734705
0.0865181
0.103052
0.118704
0.131501
0.13989
0.144098
0.150894
0.163549
0.180413
0.2011
0.23163
0.278532
0.336229
0.385656
0.409786
0.408474
0.386741
0.349729
0.305732
0.260792
0.216946
0.178466
0.149311
0.131257
0.122395
0.118324
0.114147
0.10744
0.0983551
0.0899426
0.0841608
0.0802153
0.0764466
0.0724318
0.0690166
0.0673259
0.0674872
0.067965
0.0666925
0.0629189
0.0586365
0.0566472
0.0575295
0.0598428
0.0607789
0.0580777
0.0523176
0.0462018
0.0418688
0.0399738
0.0404041
0.0414426
0.0417059
0.0419229
0.0436151
0.0466191
0.0497362
0.053914
0.0576407
0.0591366
0.0583691
0.0562461
0.0543793
0.0543256
0.0564238
0.0608224
0.0672596
0.0742206
0.08133
0.0870846
0.0915619
0.0983071
0.108454
0.120175
0.130996
0.139732
0.146623
0.152123
0.156612
0.160997
0.163996
0.165516
0.170768
0.185821
0.199466
0.201361
0.216102
0.217406
0.209065
0.202767
0.192541
0.174291
0.15254
0.127406
0.107486
0.0913758
0.0789547
0.070197
0.0640321
0.0613246
0.0594077
0.0594864
0.0614163
0.0643098
0.0695559
0.0753356
0.08053
0.0856702
0.0907918
0.0936556
0.0921771
0.0849205
0.0733533
0.0611571
0.0495177
0.0379099
0.0262271
0.0165752
0.0109854
0.00844802
0.00756412
0.00734811
0.00740898
0.00786251
0.00851731
0.00946994
0.010166
0.0103588
0.00868141
0.00685844
0.00569615
0.00502852
0.00431939
0.00384005
0.00350157
0.00313442
0.00283983
0.00269752
0.00260845
0.00256505
0.00253736
0.00249539
0.0024623
0.00245261
0.00244485
0.00243976
0.00243233
0.00242492
0.00242206
0.00242522
0.0024269
0.00242598
0.00242073
0.00241649
0.00241541
0.00241621
0.00241663
0.00241514
0.00241107
0.00240432
0.00239761
0.00239352
0.00239156
0.00238972
0.00238608
0.00237944
0.00237192
0.00236624
0.00236272
0.0023598
0.00235509
0.00234792
0.00233941
0.00233117
0.00232518
0.00232127
0.00231755
0.00231179
0.0023031
0.00229265