/*--------------------------------*- C++ -*----------------------------------*\
| =========                 |                                                 |
| \\      /  F ield         | OpenFOAM: The Open Source CFD Toolbox           |
|  \\    /   O peration     | Version:  v2006                                 |
|   \\  /    A nd           | Website:  www.openfoam.com                      |
|    \\/     M anipulation  |                                                 |
\*---------------------------------------------------------------------------*/
FoamFile
{
    version     2.0;
    format      ascii;
    class       surfaceScalarField;
    location    "6.8";
    object      phi;
}
// * * * * * * * * * * * * * * * * * * * * * * * * * * * * * * * * * * * * * //

dimensions      [0 3 -1 0 0 0 0];
oriented        oriented;


internalField   nonuniform List<scalar> 
65390
(
5.07027e-05
6.08755e-07
4.99815e-05
7.23054e-07
4.96388e-05
3.44332e-07
5.17055e-05
-2.06549e-06
5.8813e-05
-7.10639e-06
6.74343e-05
-8.62056e-06
7.32198e-05
-5.78489e-06
7.51619e-05
-1.94162e-06
7.58859e-05
-7.23605e-07
7.6843e-05
-9.56871e-07
7.80482e-05
-1.20503e-06
7.93856e-05
-1.33734e-06
8.10076e-05
-1.62192e-06
8.29286e-05
-1.92093e-06
8.50872e-05
-2.15855e-06
8.74997e-05
-2.41252e-06
9.0179e-05
-2.67934e-06
9.20214e-05
-1.84249e-06
9.21581e-05
-1.36754e-07
9.05683e-05
1.58982e-06
8.76998e-05
2.86842e-06
8.22918e-05
5.4079e-06
7.40788e-05
8.21295e-06
6.58367e-05
8.24199e-06
5.93267e-05
6.50991e-06
5.50509e-05
4.27571e-06
5.23713e-05
2.67956e-06
5.0357e-05
2.01418e-06
4.84053e-05
1.95168e-06
4.61559e-05
2.24934e-06
4.38874e-05
2.26842e-06
4.19324e-05
1.95496e-06
4.01644e-05
1.76787e-06
3.85595e-05
1.60491e-06
3.76239e-05
9.35509e-07
3.73465e-05
2.77369e-07
3.7148e-05
1.98501e-07
3.65388e-05
6.09082e-07
3.48758e-05
1.66302e-06
3.30123e-05
1.86347e-06
3.20141e-05
9.9816e-07
3.19028e-05
1.11266e-07
3.19002e-05
2.65367e-09
3.16943e-05
2.05829e-07
3.08577e-05
8.36584e-07
2.95115e-05
1.34624e-06
2.84455e-05
1.06593e-06
2.81318e-05
3.13654e-07
2.8189e-05
-5.71851e-08
2.82928e-05
-1.03782e-07
2.83891e-05
-9.63698e-08
2.85e-05
-1.10931e-07
2.86131e-05
-1.1314e-07
2.84901e-05
1.22958e-07
2.78168e-05
6.73272e-07
2.66853e-05
1.13149e-06
2.54274e-05
1.25793e-06
2.44314e-05
9.96017e-07
2.39073e-05
5.24033e-07
2.34377e-05
4.69611e-07
2.26484e-05
7.89254e-07
2.18745e-05
7.73993e-07
2.17262e-05
1.48265e-07
2.23375e-05
-6.1131e-07
2.33176e-05
-9.80015e-07
2.43305e-05
-1.01295e-06
2.51369e-05
-8.0638e-07
2.58042e-05
-6.6726e-07
2.64853e-05
-6.81032e-07
2.74095e-05
-9.24254e-07
2.88205e-05
-1.41093e-06
3.09011e-05
-2.08055e-06
3.34997e-05
-2.59857e-06
3.61107e-05
-2.611e-06
3.8296e-05
-2.18533e-06
3.92476e-05
-9.5156e-07
3.78275e-05
1.42013e-06
3.13543e-05
6.47323e-06
2.41202e-05
7.23409e-06
2.00907e-05
4.02944e-06
1.69503e-05
3.14045e-06
1.56741e-05
1.27621e-06
1.41827e-05
1.49132e-06
1.39464e-05
2.36282e-07
1.41792e-05
-2.32791e-07
1.38711e-05
3.08095e-07
1.36902e-05
1.80835e-07
1.36454e-05
4.48018e-08
1.37814e-05
-1.36078e-07
1.39041e-05
-1.22652e-07
1.42847e-05
-3.80628e-07
1.48664e-05
-5.81801e-07
1.55376e-05
-6.71186e-07
1.64049e-05
-8.67331e-07
1.7583e-05
-1.17813e-06
1.91094e-05
-1.52642e-06
2.06437e-05
-1.53433e-06
2.24487e-05
-1.80498e-06
2.30895e-05
-6.40842e-07
2.26654e-05
4.24087e-07
2.24396e-05
2.25821e-07
2.22335e-05
2.06071e-07
2.2221e-05
1.24768e-08
2.20136e-05
2.07319e-07
2.2018e-05
-4.41658e-09
2.21337e-05
-1.15767e-07
2.21682e-05
-3.46009e-08
2.21611e-05
7.04562e-09
2.20398e-05
1.21195e-07
2.1886e-05
1.53761e-07
2.16466e-05
2.39283e-07
2.14048e-05
2.4168e-07
2.11181e-05
2.86605e-07
2.08065e-05
3.11546e-07
2.03622e-05
4.44189e-07
1.98818e-05
4.80347e-07
1.89132e-05
9.68516e-07
1.78479e-05
1.06529e-06
1.72211e-05
6.26737e-07
1.69204e-05
3.0072e-07
1.68467e-05
7.3666e-08
1.6625e-05
2.21678e-07
1.65015e-05
1.23417e-07
1.63914e-05
1.10093e-07
1.61374e-05
2.54033e-07
1.58588e-05
2.78507e-07
1.5565e-05
2.93815e-07
1.52302e-05
3.34789e-07
1.48616e-05
3.68538e-07
1.44615e-05
4.00114e-07
1.40342e-05
4.27297e-07
1.35931e-05
4.41038e-07
1.31358e-05
4.57291e-07
1.2645e-05
4.907e-07
1.21287e-05
5.1627e-07
1.15892e-05
5.39543e-07
1.10331e-05
5.55987e-07
1.04638e-05
5.69271e-07
9.86907e-06
5.9473e-07
9.25004e-06
6.19008e-07
8.61406e-06
6.35953e-07
7.96742e-06
6.46625e-07
7.31782e-06
6.49593e-07
6.67469e-06
6.43129e-07
6.02793e-06
6.46766e-07
5.37047e-06
6.57461e-07
4.70123e-06
6.69256e-07
4.02397e-06
6.7727e-07
3.35774e-06
6.66246e-07
2.71568e-06
6.42074e-07
2.08054e-06
6.3516e-07
1.44677e-06
6.33781e-07
8.17284e-07
6.29502e-07
2.01772e-07
6.15526e-07
-3.9662e-07
5.98403e-07
-9.76813e-07
5.80202e-07
-1.53936e-06
5.62551e-07
-2.08735e-06
5.47998e-07
-2.61956e-06
5.32218e-07
-3.13667e-06
5.17112e-07
-3.64438e-06
5.07711e-07
-4.14065e-06
4.96269e-07
-4.61718e-06
4.76539e-07
-5.07554e-06
4.58369e-07
-5.52423e-06
4.48693e-07
-5.96597e-06
4.41745e-07
-6.39252e-06
4.26547e-07
-6.79679e-06
4.04271e-07
-7.18654e-06
3.89746e-07
-7.56905e-06
3.82509e-07
-7.94306e-06
3.74007e-07
-8.30427e-06
3.61203e-07
-8.64562e-06
3.41334e-07
-8.96931e-06
3.23684e-07
-9.27972e-06
3.10391e-07
-9.57996e-06
3.00225e-07
-9.87238e-06
2.92396e-07
-1.01552e-05
2.82775e-07
-1.04248e-05
2.69601e-07
-1.06803e-05
2.55429e-07
-1.09226e-05
2.4228e-07
-1.11481e-05
2.25531e-07
-1.13583e-05
2.10101e-07
-1.15578e-05
1.99499e-07
-1.1748e-05
1.90145e-07
-1.19305e-05
1.82506e-07
-1.21035e-05
1.72967e-07
-1.22627e-05
1.59161e-07
-1.24075e-05
1.44811e-07
-1.25395e-05
1.32004e-07
-1.26614e-05
1.21826e-07
-1.27757e-05
1.14343e-07
-1.28812e-05
1.05425e-07
-1.29769e-05
9.56647e-08
-1.30616e-05
8.47077e-08
-1.31339e-05
7.23312e-08
-1.31945e-05
6.05221e-08
-1.32454e-05
5.09487e-08
-1.32907e-05
4.52469e-08
-1.33317e-05
4.10079e-08
-1.33657e-05
3.40308e-08
-1.33906e-05
2.48148e-08
-1.3403e-05
1.24248e-08
-1.34058e-05
2.82569e-09
-1.34028e-05
-2.90706e-09
-1.33954e-05
-7.39154e-09
-1.3383e-05
-1.24592e-08
-1.33642e-05
-1.88049e-08
-1.33363e-05
-2.79368e-08
-1.3301e-05
-3.53086e-08
-1.32626e-05
-3.84082e-08
-1.3224e-05
-3.85877e-08
-1.31822e-05
-4.18557e-08
-1.31291e-05
-5.3083e-08
-1.30665e-05
-6.25543e-08
-1.3e-05
-6.65061e-08
-1.29315e-05
-6.84518e-08
-1.28644e-05
-6.70926e-08
-1.27983e-05
-6.60979e-08
-1.27282e-05
-7.01018e-08
-1.26506e-05
-7.75594e-08
-1.25657e-05
-8.4881e-08
-1.2478e-05
-8.76139e-08
-1.23903e-05
-8.77058e-08
-1.2306e-05
-8.4334e-08
-1.22247e-05
-8.12585e-08
-1.21421e-05
-8.2642e-08
-1.20566e-05
-8.54698e-08
-1.19677e-05
-8.88941e-08
-1.1877e-05
-9.06561e-08
-1.17881e-05
-8.89583e-08
-1.17051e-05
-8.29429e-08
-1.16277e-05
-7.74273e-08
-1.15497e-05
-7.79624e-08
-1.147e-05
-7.96688e-08
-1.13907e-05
-7.93271e-08
-1.13114e-05
-7.92201e-08
-1.12345e-05
-7.68582e-08
-1.11616e-05
-7.29723e-08
-1.10914e-05
-7.01763e-08
-1.10239e-05
-6.73881e-08
-1.09604e-05
-6.35346e-08
-1.08999e-05
-6.0458e-08
-1.08402e-05
-5.97272e-08
-1.07785e-05
-6.16385e-08
-1.07153e-05
-6.31779e-08
-1.06534e-05
-6.18837e-08
-1.05953e-05
-5.8114e-08
-1.05436e-05
-5.1738e-08
-1.0492e-05
-5.15939e-08
-1.04336e-05
-5.83274e-08
-1.03726e-05
-6.10518e-08
-1.03123e-05
-6.02977e-08
-1.02528e-05
-5.95808e-08
-1.01951e-05
-5.76733e-08
-1.01363e-05
-5.88504e-08
-1.00731e-05
-6.31753e-08
-1.00066e-05
-6.65674e-08
-9.93715e-06
-6.94442e-08
-9.86508e-06
-7.20742e-08
-9.79152e-06
-7.35617e-08
-9.71528e-06
-7.62392e-08
-9.63404e-06
-8.12415e-08
-9.54691e-06
-8.71321e-08
-9.4535e-06
-9.34063e-08
-9.35624e-06
-9.72625e-08
-9.25786e-06
-9.83808e-08
-9.1577e-06
-1.00165e-07
-9.05153e-06
-1.06175e-07
-8.93513e-06
-1.16406e-07
-8.81063e-06
-1.24507e-07
-8.68044e-06
-1.30188e-07
-8.54433e-06
-1.36116e-07
-8.40319e-06
-1.41143e-07
-8.2583e-06
-1.44881e-07
-8.10711e-06
-1.5118e-07
-7.94726e-06
-1.59843e-07
-7.77875e-06
-1.68497e-07
-7.60197e-06
-1.76765e-07
-7.41717e-06
-1.8479e-07
-7.22427e-06
-1.92881e-07
-7.02335e-06
-2.00907e-07
-6.81665e-06
-2.06681e-07
-6.60518e-06
-2.11461e-07
-6.3843e-06
-2.20872e-07
-6.15228e-06
-2.32005e-07
-5.91186e-06
-2.40425e-07
-5.66376e-06
-2.48101e-07
-5.40799e-06
-2.5577e-07
-5.14486e-06
-2.63134e-07
-4.87577e-06
-2.69094e-07
-4.59988e-06
-2.75891e-07
-4.31613e-06
-2.8375e-07
-4.02488e-06
-2.91264e-07
-3.72707e-06
-2.97818e-07
-3.42369e-06
-3.03388e-07
-3.11631e-06
-3.07392e-07
-2.80591e-06
-3.10412e-07
-2.49203e-06
-3.13892e-07
-2.17498e-06
-3.17057e-07
-1.85517e-06
-3.19814e-07
-1.53364e-06
-3.21531e-07
-1.21282e-06
-3.20825e-07
-8.9369e-07
-3.1913e-07
-5.75858e-07
-3.17836e-07
-2.6021e-07
-3.15653e-07
5.20429e-08
-3.12256e-07
3.59715e-07
-3.07672e-07
6.62472e-07
-3.0275e-07
9.60635e-07
-2.98148e-07
1.25446e-06
-2.938e-07
1.54353e-06
-2.89045e-07
1.82686e-06
-2.83301e-07
2.10417e-06
-2.7728e-07
2.37624e-06
-2.72055e-07
2.6434e-06
-2.67157e-07
2.90516e-06
-2.61761e-07
3.16105e-06
-2.55886e-07
3.41091e-06
-2.49865e-07
3.65479e-06
-2.43874e-07
3.8927e-06
-2.37888e-07
4.1245e-06
-2.31765e-07
4.3499e-06
-2.25369e-07
4.56866e-06
-2.18714e-07
4.78095e-06
-2.12256e-07
4.98688e-06
-2.05891e-07
5.1861e-06
-1.99192e-07
5.37828e-06
-1.92155e-07
5.56341e-06
-1.85102e-07
5.74175e-06
-1.78316e-07
5.91334e-06
-1.71568e-07
6.07801e-06
-1.64653e-07
6.23527e-06
-1.57245e-07
6.38477e-06
-1.49496e-07
6.52693e-06
-1.42163e-07
6.66213e-06
-1.35213e-07
6.79038e-06
-1.28276e-07
6.91143e-06
-1.21094e-07
7.02514e-06
-1.13762e-07
7.13141e-06
-1.06333e-07
7.23035e-06
-9.89998e-08
7.32212e-06
-9.18224e-08
7.40686e-06
-8.47902e-08
7.48452e-06
-7.77081e-08
7.55498e-06
-7.0507e-08
7.61829e-06
-6.3358e-08
7.67466e-06
-5.64173e-08
7.72432e-06
-4.97017e-08
7.76737e-06
-4.30983e-08
7.80374e-06
-3.64296e-08
7.83332e-06
-2.96343e-08
7.85628e-06
-2.30155e-08
7.87308e-06
-1.68466e-08
7.88385e-06
-1.08119e-08
7.88844e-06
-4.63386e-09
7.88702e-06
1.38928e-09
7.8798e-06
7.19393e-09
7.86691e-06
1.28756e-08
7.84851e-06
1.83853e-08
7.82478e-06
2.37069e-08
7.79586e-06
2.89018e-08
7.76186e-06
3.39827e-08
7.72296e-06
3.88739e-08
7.67928e-06
4.36474e-08
7.63083e-06
4.84167e-08
7.57774e-06
5.30411e-08
7.52023e-06
5.74541e-08
7.45866e-06
6.15131e-08
7.39319e-06
6.54062e-08
7.32375e-06
6.93687e-08
7.25031e-06
7.33711e-08
7.17308e-06
7.71532e-08
7.09243e-06
8.05865e-08
7.00861e-06
8.37594e-08
6.92155e-06
8.70091e-08
6.83125e-06
9.0263e-08
6.73782e-06
9.34086e-08
6.64144e-06
9.63681e-08
6.54201e-06
9.94385e-08
6.43947e-06
1.02553e-07
6.33423e-06
1.05268e-07
6.22674e-06
1.07527e-07
6.11698e-06
1.09801e-07
6.00481e-06
1.1222e-07
5.89019e-06
1.14687e-07
5.77322e-06
1.17032e-07
5.65381e-06
1.19476e-07
5.53232e-06
1.21546e-07
5.40902e-06
1.23341e-07
5.28383e-06
1.25225e-07
5.15638e-06
1.27461e-07
5.02686e-06
1.29513e-07
4.8958e-06
1.31049e-07
4.76332e-06
1.32459e-07
4.62918e-06
1.34123e-07
4.49366e-06
1.35499e-07
4.35656e-06
1.37081e-07
4.21776e-06
1.38788e-07
4.0774e-06
1.40341e-07
3.936e-06
1.414e-07
3.79396e-06
1.42039e-07
3.65158e-06
1.42377e-07
3.50838e-06
1.43207e-07
3.36458e-06
1.43813e-07
3.21995e-06
1.44645e-07
3.07503e-06
1.44945e-07
2.93036e-06
1.44697e-07
2.78673e-06
1.4366e-07
2.64353e-06
1.43223e-07
2.50113e-06
1.42423e-07
2.35895e-06
1.42199e-07
2.21784e-06
1.41123e-07
2.07762e-06
1.40233e-07
1.9396e-06
1.38015e-07
1.80304e-06
1.36558e-07
1.66784e-06
1.35185e-07
1.53447e-06
1.33364e-07
1.40167e-06
1.32788e-07
1.27084e-06
1.30808e-07
1.14227e-06
1.28549e-07
1.01695e-06
1.25303e-07
8.94657e-07
1.2226e-07
7.74171e-07
1.20452e-07
6.59382e-07
1.14753e-07
5.47399e-07
1.1195e-07
4.22352e-07
1.2502e-07
3.15849e-07
1.06486e-07
2.04402e-07
1.11439e-07
8.8226e-08
1.16177e-07
-1.94446e-08
1.07678e-07
-9.81739e-08
7.87392e-08
-1.67428e-07
6.92627e-08
-2.60409e-07
9.29879e-08
-3.52933e-07
9.25257e-08
-4.55076e-07
1.02142e-07
-5.51929e-07
9.68516e-08
-6.43554e-07
9.1625e-08
-7.29088e-07
8.55371e-08
-8.1362e-07
8.45395e-08
-8.92384e-07
7.87753e-08
-9.68493e-07
7.61233e-08
-1.07004e-06
1.01558e-07
-1.17031e-06
1.00289e-07
-1.25351e-06
8.32102e-08
-1.33051e-06
7.70122e-08
-1.35337e-06
2.28714e-08
-1.34423e-06
-9.14545e-09
-1.21207e-06
-1.32156e-07
-9.96671e-07
-2.15398e-07
-8.35287e-07
-1.61386e-07
-7.16107e-07
-1.19181e-07
-6.60632e-07
-5.54774e-08
-6.1767e-07
-4.29651e-08
-6.01227e-07
-1.64455e-08
-5.85899e-07
-1.53313e-08
-5.85029e-07
-8.74126e-10
-5.84928e-07
-1.05547e-10
-5.76348e-07
-8.58541e-09
-5.86323e-07
9.96938e-09
-5.83745e-07
-2.58321e-09
-5.70855e-07
-1.28948e-08
-6.04061e-07
3.32023e-08
-5.78455e-07
-2.56098e-08
-5.04235e-07
-7.42228e-08
-6.07668e-07
1.0343e-07
-5.37395e-07
-7.0276e-08
-6.16132e-07
7.8733e-08
-5.46654e-07
-6.9483e-08
-8.98345e-07
3.51686e-07
-1.29542e-06
3.97068e-07
-1.15636e-06
-1.39069e-07
-9.95491e-07
-1.6087e-07
-8.38247e-07
-1.57247e-07
-7.39694e-07
-9.85537e-08
-6.63762e-07
-7.59311e-08
-5.97585e-07
-6.61758e-08
-5.37393e-07
-6.01899e-08
-4.83917e-07
-5.34758e-08
-4.36003e-07
-4.79143e-08
-3.86734e-07
-4.92707e-08
-3.34366e-07
-5.23711e-08
-2.83251e-07
-5.11185e-08
-2.31088e-07
-5.21664e-08
-1.77437e-07
-5.36549e-08
-1.24484e-07
-5.29554e-08
-6.66825e-08
-5.78038e-08
-5.93893e-09
-6.07446e-08
5.49805e-08
-6.09191e-08
1.15329e-07
-6.03463e-08
1.81831e-07
-6.64995e-08
2.53084e-07
-7.12477e-08
3.23762e-07
-7.06727e-08
3.93406e-07
-6.96371e-08
4.63988e-07
-7.05751e-08
5.38358e-07
-7.43629e-08
6.1633e-07
-7.79643e-08
6.95885e-07
-7.95477e-08
7.778e-07
-8.19079e-08
8.60868e-07
-8.3061e-08
9.46589e-07
-8.5716e-08
1.03084e-06
-8.42478e-08
1.11486e-06
-8.40086e-08
1.20344e-06
-8.85853e-08
1.29745e-06
-9.40058e-08
1.39574e-06
-9.82826e-08
1.49647e-06
-1.00727e-07
1.59786e-06
-1.01389e-07
1.69982e-06
-1.01958e-07
1.80244e-06
-1.02617e-07
1.90602e-06
-1.03587e-07
2.01111e-06
-1.0509e-07
2.11824e-06
-1.07132e-07
2.2246e-06
-1.06359e-07
2.33375e-06
-1.09144e-07
2.44578e-06
-1.12035e-07
2.5567e-06
-1.10917e-07
2.66535e-06
-1.08659e-07
2.77315e-06
-1.07798e-07
2.88123e-06
-1.08081e-07
2.99046e-06
-1.09235e-07
3.10154e-06
-1.11077e-07
3.21425e-06
-1.1271e-07
3.32819e-06
-1.13945e-07
3.44302e-06
-1.14823e-07
3.55833e-06
-1.15313e-07
3.67385e-06
-1.15519e-07
3.78948e-06
-1.15636e-07
3.90556e-06
-1.16079e-07
4.02246e-06
-1.16897e-07
4.14022e-06
-1.17758e-07
4.2585e-06
-1.1828e-07
4.37654e-06
-1.1804e-07
4.49403e-06
-1.17492e-07
4.61151e-06
-1.17484e-07
4.72979e-06
-1.18284e-07
4.84918e-06
-1.19386e-07
4.9684e-06
-1.19223e-07
5.08719e-06
-1.18795e-07
5.20488e-06
-1.17689e-07
5.32455e-06
-1.19667e-07
5.44297e-06
-1.18426e-07
5.56075e-06
-1.17781e-07
5.67921e-06
-1.18457e-07
5.8039e-06
-1.24693e-07
5.93236e-06
-1.28456e-07
6.06066e-06
-1.28306e-07
6.18797e-06
-1.27305e-07
6.31496e-06
-1.26995e-07
6.44144e-06
-1.26482e-07
-1.38355e-07
5.06309e-05
1.28251e-06
4.98596e-05
1.4916e-06
5.03019e-05
-1.00259e-07
5.71083e-05
-8.8737e-06
6.85152e-05
-1.85149e-05
7.98946e-05
-2.00012e-05
8.80392e-05
-1.39305e-05
8.89569e-05
-2.86007e-06
8.59072e-05
2.32548e-06
8.19849e-05
2.96494e-06
7.8832e-05
1.94749e-06
7.67819e-05
7.12443e-07
7.5465e-05
-3.05196e-07
7.51856e-05
-1.64169e-06
7.6053e-05
-3.02602e-06
7.74163e-05
-3.77588e-06
7.82228e-05
-3.48593e-06
7.80751e-05
-1.69473e-06
7.69332e-05
1.00512e-06
7.43615e-05
4.1616e-06
6.99793e-05
7.2506e-06
6.51368e-05
1.02505e-05
6.1666e-05
1.16838e-05
5.8641e-05
1.1267e-05
5.5736e-05
9.41505e-06
5.32434e-05
6.76837e-06
5.10939e-05
4.82908e-06
4.9161e-05
3.94716e-06
4.72346e-05
3.87824e-06
4.52342e-05
4.24981e-06
4.32187e-05
4.28395e-06
4.13384e-05
3.8354e-06
3.98044e-05
3.3019e-06
3.8622e-05
2.78742e-06
3.77802e-05
1.77731e-06
3.71955e-05
8.62206e-07
3.66489e-05
7.45169e-07
3.58414e-05
1.41658e-06
3.48298e-05
2.67469e-06
3.38799e-05
2.81345e-06
3.28937e-05
1.98442e-06
3.23875e-05
6.17551e-07
3.20894e-05
3.00771e-07
3.16864e-05
6.08925e-07
3.0903e-05
1.61997e-06
3.00238e-05
2.22548e-06
2.90868e-05
2.00299e-06
2.83671e-05
1.03344e-06
2.8056e-05
2.53915e-07
2.79617e-05
-9.42005e-09
2.79553e-05
-8.99621e-08
2.78862e-05
-4.18438e-08
2.76848e-05
8.82703e-08
2.71518e-05
6.56019e-07
2.64199e-05
1.40522e-06
2.58564e-05
1.69495e-06
2.5543e-05
1.57144e-06
2.52936e-05
1.24546e-06
2.47288e-05
1.08883e-06
2.38701e-05
1.32835e-06
2.28892e-05
1.77021e-06
2.20485e-05
1.61476e-06
2.16338e-05
5.63e-07
2.17384e-05
-7.15856e-07
2.19752e-05
-1.21679e-06
2.21435e-05
-1.1812e-06
2.21381e-05
-8.009e-07
2.18839e-05
-4.12996e-07
2.15014e-05
-2.98496e-07
2.11963e-05
-6.19187e-07
2.1381e-05
-1.59555e-06
2.21053e-05
-2.80482e-06
2.33044e-05
-3.79764e-06
2.48803e-05
-4.18689e-06
2.67229e-05
-4.02796e-06
2.89291e-05
-3.15774e-06
3.18414e-05
-1.49219e-06
3.62436e-05
2.07106e-06
3.78315e-05
5.64613e-06
3.55771e-05
6.28382e-06
2.94967e-05
9.22082e-06
2.22635e-05
8.50939e-06
1.82717e-05
5.48311e-06
1.51683e-05
3.3396e-06
1.38529e-05
1.08257e-06
1.28192e-05
1.3418e-06
1.24988e-05
5.01179e-07
1.32483e-05
-7.04759e-07
1.43256e-05
-1.21344e-06
1.4354e-05
-1.51113e-07
1.44779e-05
-5.04518e-07
1.45284e-05
-6.32361e-07
1.45362e-05
-6.78983e-07
1.46459e-05
-9.76975e-07
1.48668e-05
-1.39906e-06
1.50473e-05
-1.70691e-06
1.55681e-05
-2.05512e-06
1.62817e-05
-2.51863e-06
1.7789e-05
-2.14815e-06
1.97497e-05
-1.53662e-06
2.16987e-05
-1.72316e-06
2.26263e-05
-7.21593e-07
2.25336e-05
1.05173e-07
2.26772e-05
6.37206e-08
2.26522e-05
2.04798e-08
2.24854e-05
5.09975e-08
2.22641e-05
1.86628e-07
2.20031e-05
2.67965e-07
2.18763e-05
2.47831e-07
2.19109e-05
1.19109e-07
2.18258e-05
3.24261e-07
2.16983e-05
3.69079e-07
2.15115e-05
4.73282e-07
2.12568e-05
5.66161e-07
2.09934e-05
7.0747e-07
2.06943e-05
7.794e-07
2.05967e-05
1.06611e-06
2.03966e-05
1.26533e-06
1.99719e-05
1.05138e-06
1.90482e-05
1.22442e-06
1.79344e-05
1.18746e-06
1.72105e-05
9.45537e-07
1.66542e-05
6.7973e-07
1.63478e-05
4.16437e-07
1.60466e-05
5.5524e-07
1.58341e-05
4.90956e-07
1.56175e-05
5.10344e-07
1.52601e-05
6.92226e-07
1.48694e-05
7.59133e-07
1.4474e-05
7.95544e-07
1.40541e-05
8.47088e-07
1.361e-05
8.85092e-07
1.31459e-05
9.21354e-07
1.26505e-05
9.86084e-07
1.21267e-05
1.04e-06
1.15788e-05
1.08738e-06
1.10214e-05
1.11332e-06
1.04458e-05
1.14489e-06
9.852e-06
1.18849e-06
9.23987e-06
1.23112e-06
8.61408e-06
1.26173e-06
7.97666e-06
1.28405e-06
7.33412e-06
1.29214e-06
6.68976e-06
1.28751e-06
6.03846e-06
1.29809e-06
5.37383e-06
1.32212e-06
4.70597e-06
1.33715e-06
4.04474e-06
1.33853e-06
3.39703e-06
1.314e-06
2.75356e-06
1.28558e-06
2.11083e-06
1.27792e-06
1.47089e-06
1.27375e-06
8.43523e-07
1.2569e-06
2.38953e-07
1.22012e-06
-3.49758e-07
1.18713e-06
-9.31289e-07
1.16175e-06
-1.50378e-06
1.13506e-06
-2.06115e-06
1.10538e-06
-2.60005e-06
1.07113e-06
-3.12263e-06
1.0397e-06
-3.63141e-06
1.0165e-06
-4.12536e-06
9.90228e-07
-4.60384e-06
9.5503e-07
-5.06754e-06
9.22077e-07
-5.52056e-06
9.01714e-07
-5.96225e-06
8.83449e-07
-6.38924e-06
8.53532e-07
-6.79787e-06
8.12901e-07
-7.19141e-06
7.8329e-07
-7.57591e-06
7.66994e-07
-7.94875e-06
7.46832e-07
-8.30733e-06
7.19768e-07
-8.65185e-06
6.85832e-07
-8.98042e-06
6.52237e-07
-9.29431e-06
6.24245e-07
-9.59544e-06
6.01327e-07
-9.88571e-06
5.82627e-07
-1.01664e-05
5.63467e-07
-1.04353e-05
5.38453e-07
-1.06918e-05
5.11838e-07
-1.09349e-05
4.85393e-07
-1.11623e-05
4.52799e-07
-1.13747e-05
4.22552e-07
-1.1575e-05
3.99706e-07
-1.17641e-05
3.79269e-07
-1.19444e-05
3.62686e-07
-1.21163e-05
3.44871e-07
-1.2277e-05
3.19869e-07
-1.24256e-05
2.93355e-07
-1.25605e-05
2.6686e-07
-1.26817e-05
2.43064e-07
-1.27922e-05
2.24747e-07
-1.28936e-05
2.06823e-07
-1.29873e-05
1.89349e-07
-1.30728e-05
1.7013e-07
-1.31476e-05
1.47145e-07
-1.32102e-05
1.23075e-07
-1.32625e-05
1.03302e-07
-1.33075e-05
9.02471e-08
-1.33457e-05
7.92485e-08
-1.33766e-05
6.48816e-08
-1.33984e-05
4.66107e-08
-1.34103e-05
2.43725e-08
-1.34152e-05
7.71973e-09
-1.34144e-05
-3.67754e-09
-1.34074e-05
-1.44803e-08
-1.3393e-05
-2.68838e-08
-1.33707e-05
-4.11315e-08
-1.33418e-05
-5.68135e-08
-1.33084e-05
-6.87319e-08
-1.32722e-05
-7.46487e-08
-1.32321e-05
-7.87675e-08
-1.31854e-05
-8.8466e-08
-1.31309e-05
-1.0762e-07
-1.30704e-05
-1.23076e-07
-1.30062e-05
-1.30686e-07
-1.2939e-05
-1.35545e-07
-1.28702e-05
-1.35871e-07
-1.28001e-05
-1.36227e-07
-1.27271e-05
-1.43049e-07
-1.26499e-05
-1.54758e-07
-1.25673e-05
-1.67496e-07
-1.24825e-05
-1.72375e-07
-1.2397e-05
-1.73217e-07
-1.23109e-05
-1.70435e-07
-1.2225e-05
-1.67147e-07
-1.21398e-05
-1.67796e-07
-1.20547e-05
-1.70636e-07
-1.19676e-05
-1.75936e-07
-1.18799e-05
-1.78373e-07
-1.17932e-05
-1.7568e-07
-1.17089e-05
-1.67171e-07
-1.16283e-05
-1.57967e-07
-1.15494e-05
-1.56912e-07
-1.14692e-05
-1.5979e-07
-1.13883e-05
-1.60171e-07
-1.13089e-05
-1.58646e-07
-1.12324e-05
-1.53322e-07
-1.11602e-05
-1.45118e-07
-1.10928e-05
-1.37541e-07
-1.10285e-05
-1.31658e-07
-1.09652e-05
-1.26835e-07
-1.09013e-05
-1.24272e-07
-1.08371e-05
-1.23957e-07
-1.07747e-05
-1.23968e-07
-1.07146e-05
-1.23231e-07
-1.06567e-05
-1.19871e-07
-1.06005e-05
-1.14226e-07
-1.05459e-05
-1.0643e-07
-1.04904e-05
-1.07084e-07
-1.0433e-05
-1.15713e-07
-1.03742e-05
-1.19893e-07
-1.03166e-05
-1.17972e-07
-1.02597e-05
-1.1651e-07
-1.02014e-05
-1.15996e-07
-1.01397e-05
-1.20546e-07
-1.00745e-05
-1.28384e-07
-1.00074e-05
-1.33724e-07
-9.93912e-06
-1.37738e-07
-9.87031e-06
-1.40892e-07
-9.79923e-06
-1.44652e-07
-9.72203e-06
-1.53449e-07
-9.6384e-06
-1.64876e-07
-9.55078e-06
-1.74761e-07
-9.45929e-06
-1.84909e-07
-9.36418e-06
-1.92381e-07
-9.26627e-06
-1.96297e-07
-9.16391e-06
-2.02536e-07
-9.05536e-06
-2.14735e-07
-8.93905e-06
-2.32722e-07
-8.81591e-06
-2.47649e-07
-8.68725e-06
-2.58854e-07
-8.55327e-06
-2.70089e-07
-8.41313e-06
-2.81274e-07
-8.26569e-06
-2.92312e-07
-8.11154e-06
-3.05305e-07
-7.95086e-06
-3.20499e-07
-7.78327e-06
-3.3606e-07
-7.60782e-06
-3.52191e-07
-7.42385e-06
-3.68735e-07
-7.23148e-06
-3.85222e-07
-7.03137e-06
-4.00991e-07
-6.82484e-06
-4.13191e-07
-6.61138e-06
-4.24911e-07
-6.38911e-06
-4.43129e-07
-6.15739e-06
-4.63722e-07
-5.91775e-06
-4.80056e-07
-5.67094e-06
-4.94912e-07
-5.41694e-06
-5.09778e-07
-5.15464e-06
-5.2544e-07
-4.8847e-06
-5.39048e-07
-4.60773e-06
-5.5287e-07
-4.32384e-06
-5.67648e-07
-4.03392e-06
-5.8119e-07
-3.73855e-06
-5.93196e-07
-3.43743e-06
-6.04518e-07
-3.13063e-06
-6.14208e-07
-2.81925e-06
-6.21792e-07
-2.50529e-06
-6.27861e-07
-2.19015e-06
-6.32207e-07
-1.87312e-06
-6.36848e-07
-1.5538e-06
-6.40863e-07
-1.2334e-06
-6.41231e-07
-9.13873e-07
-6.38666e-07
-5.97121e-07
-6.34591e-07
-2.8305e-07
-6.29721e-07
2.91919e-08
-6.24485e-07
3.38304e-07
-6.16762e-07
6.42654e-07
-6.07071e-07
9.41871e-07
-5.97329e-07
1.23657e-06
-5.88466e-07
1.52686e-06
-5.79295e-07
1.81204e-06
-5.68449e-07
2.09143e-06
-5.56645e-07
2.36491e-06
-5.45519e-07
2.63311e-06
-5.35329e-07
2.89608e-06
-5.24715e-07
3.15344e-06
-5.13225e-07
3.40482e-06
-5.01213e-07
3.64992e-06
-4.88933e-07
3.88876e-06
-4.76677e-07
4.12141e-06
-4.64369e-07
4.34787e-06
-4.5177e-07
4.56796e-06
-4.38754e-07
4.78148e-06
-4.2572e-07
4.98823e-06
-4.1259e-07
5.18807e-06
-3.98977e-07
5.38102e-06
-3.85057e-07
5.56715e-06
-3.71179e-07
5.7464e-06
-3.5753e-07
5.91862e-06
-3.43748e-07
6.08363e-06
-3.29643e-07
6.24133e-06
-3.14948e-07
6.39168e-06
-2.9986e-07
6.53466e-06
-2.8518e-07
6.67037e-06
-2.70965e-07
6.79884e-06
-2.56813e-07
6.92002e-06
-2.42346e-07
7.03397e-06
-2.27785e-07
7.14068e-06
-2.13111e-07
7.24002e-06
-1.98411e-07
7.33197e-06
-1.83839e-07
7.41675e-06
-1.69627e-07
7.49431e-06
-1.55332e-07
7.56465e-06
-1.40901e-07
7.62803e-06
-1.26803e-07
7.68459e-06
-1.1304e-07
7.73427e-06
-9.9457e-08
7.77711e-06
-8.60072e-08
7.81321e-06
-7.25907e-08
7.84266e-06
-5.91529e-08
7.86562e-06
-4.60313e-08
7.88224e-06
-3.35088e-08
7.89265e-06
-2.12597e-08
7.89699e-06
-9.00359e-09
7.89537e-06
2.9857e-09
7.8878e-06
1.47538e-08
7.87441e-06
2.62588e-08
7.85551e-06
3.72671e-08
7.83136e-06
4.78417e-08
7.80203e-06
5.82173e-08
7.76755e-06
6.84342e-08
7.72812e-06
7.82791e-08
7.6839e-06
8.78222e-08
7.63504e-06
9.72235e-08
7.58171e-06
1.06319e-07
7.524e-06
1.15092e-07
7.46205e-06
1.23394e-07
7.39597e-06
1.31401e-07
7.32596e-06
1.39293e-07
7.25212e-06
1.47136e-07
7.17452e-06
1.54668e-07
7.09345e-06
1.61593e-07
7.00912e-06
1.68034e-07
6.92156e-06
1.74518e-07
6.83083e-06
1.80966e-07
6.73685e-06
1.8738e-07
6.63988e-06
1.93349e-07
6.54013e-06
1.99219e-07
6.43774e-06
2.04996e-07
6.33253e-06
2.10535e-07
6.22469e-06
2.1543e-07
6.11439e-06
2.20165e-07
6.00171e-06
2.24974e-07
5.88657e-06
2.29888e-07
5.76917e-06
2.34483e-07
5.64953e-06
2.39149e-07
5.52795e-06
2.43154e-07
5.40429e-06
2.4701e-07
5.27856e-06
2.50956e-07
5.15104e-06
2.54971e-07
5.02191e-06
2.5862e-07
4.89098e-06
2.61955e-07
4.75811e-06
2.65309e-07
4.62354e-06
2.68678e-07
4.48766e-06
2.71363e-07
4.35052e-06
2.74207e-07
4.21216e-06
2.77139e-07
4.07254e-06
2.79961e-07
3.93126e-06
2.82676e-07
3.78921e-06
2.841e-07
3.64647e-06
2.85137e-07
3.50307e-06
2.86636e-07
3.35936e-06
2.87561e-07
3.21552e-06
2.88519e-07
3.07127e-06
2.89243e-07
2.92701e-06
2.89002e-07
2.78274e-06
2.87968e-07
2.63914e-06
2.86856e-07
2.49668e-06
2.84921e-07
2.35522e-06
2.83681e-07
2.21527e-06
2.81092e-07
2.07611e-06
2.79403e-07
1.93804e-06
2.76086e-07
1.8002e-06
2.74397e-07
1.66353e-06
2.71844e-07
1.52955e-06
2.67323e-07
1.39869e-06
2.63629e-07
1.27079e-06
2.58677e-07
1.1434e-06
2.55897e-07
1.01918e-06
2.49482e-07
8.94552e-07
2.46836e-07
7.61302e-07
2.53656e-07
6.4044e-07
2.35574e-07
5.17515e-07
2.34842e-07
4.02515e-07
2.39996e-07
2.94298e-07
2.14689e-07
2.09867e-07
1.95865e-07
1.37318e-07
1.88727e-07
4.50143e-08
1.99987e-07
-6.11302e-08
1.8489e-07
-1.78475e-07
1.86614e-07
-2.82245e-07
1.96763e-07
-3.79564e-07
1.89849e-07
-4.69772e-07
1.92356e-07
-5.50879e-07
1.77968e-07
-6.28078e-07
1.68836e-07
-7.13076e-07
1.70552e-07
-8.2329e-07
1.94774e-07
-9.39707e-07
1.95215e-07
-1.02592e-06
1.62354e-07
-1.08286e-06
1.58521e-07
-1.07173e-06
8.91814e-08
-1.03569e-06
4.7183e-08
-8.9119e-07
-6.74768e-08
-6.93149e-07
-1.75164e-07
-5.44676e-07
-1.57616e-07
-4.91414e-07
-1.85418e-07
-5.23036e-07
-1.83778e-07
-5.47654e-07
-1.36772e-07
-5.54413e-07
-1.12428e-07
-5.64479e-07
-4.54181e-08
-5.59926e-07
-4.75258e-08
-5.59755e-07
-1.66239e-08
-5.61654e-07
-1.34414e-08
-5.68681e-07
6.14298e-09
-5.71983e-07
3.18655e-09
-5.64435e-07
-1.61441e-08
-5.9744e-07
4.29647e-08
-5.73686e-07
-2.63469e-08
-5.09395e-07
-7.71954e-08
-5.82019e-07
1.0582e-07
-5.50012e-07
-5.76243e-08
-7.0721e-07
8.29688e-08
-5.62452e-07
-4.1337e-08
-8.77562e-07
2.44824e-07
-1.15985e-06
3.61014e-07
-1.07571e-06
-1.53635e-07
-9.50338e-07
2.26301e-07
-6.95886e-07
1.42612e-07
-6.91787e-07
-1.4317e-07
-6.64023e-07
-1.88633e-07
-6.31116e-07
-1.90149e-07
-5.88253e-07
-1.41411e-07
-5.51178e-07
-1.13e-07
-5.13639e-07
-1.03709e-07
-4.74369e-07
-9.94565e-08
-4.34242e-07
-9.36014e-08
-3.91719e-07
-9.0438e-08
-3.46045e-07
-9.49476e-08
-2.97712e-07
-1.00708e-07
-2.48973e-07
-9.9862e-08
-1.98834e-07
-1.0231e-07
-1.46346e-07
-1.06146e-07
-9.14132e-08
-1.07891e-07
-3.39267e-08
-1.1529e-07
2.61138e-08
-1.20783e-07
8.87137e-08
-1.23515e-07
1.53666e-07
-1.25292e-07
2.21348e-07
-1.34173e-07
2.91211e-07
-1.411e-07
3.62949e-07
-1.42399e-07
4.36238e-07
-1.42913e-07
5.11522e-07
-1.45846e-07
5.88411e-07
-1.51239e-07
6.67204e-07
-1.56744e-07
7.48268e-07
-1.606e-07
8.32046e-07
-1.65675e-07
9.16971e-07
-1.67975e-07
1.00178e-06
-1.70516e-07
1.08851e-06
-1.7097e-07
1.17787e-06
-1.73359e-07
1.26928e-06
-1.79992e-07
1.36292e-06
-1.8764e-07
1.45839e-06
-1.93748e-07
1.55527e-06
-1.97606e-07
1.65449e-06
-2.0061e-07
1.75524e-06
-2.02698e-07
1.85735e-06
-2.04735e-07
1.96118e-06
-2.07408e-07
2.06641e-06
-2.10323e-07
2.17216e-06
-2.12877e-07
2.27873e-06
-2.12936e-07
2.38619e-06
-2.16605e-07
2.49417e-06
-2.2001e-07
2.60279e-06
-2.19542e-07
2.71224e-06
-2.18111e-07
2.82252e-06
-2.1808e-07
2.93368e-06
-2.19236e-07
3.04557e-06
-2.21123e-07
3.1579e-06
-2.23407e-07
3.27089e-06
-2.25699e-07
3.38475e-06
-2.27804e-07
3.49946e-06
-2.29538e-07
3.61484e-06
-2.30692e-07
3.73062e-06
-2.31295e-07
3.84676e-06
-2.3177e-07
3.96327e-06
-2.32584e-07
4.0803e-06
-2.3392e-07
4.19795e-06
-2.35402e-07
4.31564e-06
-2.35967e-07
4.4331e-06
-2.35494e-07
4.55069e-06
-2.35082e-07
4.66899e-06
-2.35778e-07
4.78796e-06
-2.37245e-07
4.90707e-06
-2.38491e-07
5.02568e-06
-2.37821e-07
5.14459e-06
-2.37694e-07
5.26448e-06
-2.3757e-07
5.38493e-06
-2.4011e-07
5.50516e-06
-2.38645e-07
5.62471e-06
-2.37322e-07
5.74534e-06
-2.39066e-07
5.86675e-06
-2.46085e-07
5.98833e-06
-2.5003e-07
6.1093e-06
-2.49261e-07
6.2296e-06
-2.47594e-07
6.34899e-06
-2.46372e-07
6.46888e-06
-2.46371e-07
-2.4926e-07
5.1072e-05
1.5081e-06
5.13553e-05
1.20964e-06
5.61892e-05
-4.93317e-06
6.82055e-05
-2.08893e-05
7.80506e-05
-2.83595e-05
8.55252e-05
-2.74754e-05
9.1919e-05
-2.0324e-05
9.28261e-05
-3.76698e-06
8.85362e-05
6.61553e-06
8.26563e-05
8.84492e-06
7.69606e-05
7.6432e-06
7.23297e-05
5.34331e-06
6.82088e-05
3.8156e-06
6.4597e-05
1.97009e-06
6.16957e-05
-1.24776e-07
5.92458e-05
-1.32609e-06
5.66643e-05
-9.04494e-07
5.39698e-05
9.99719e-07
5.14439e-05
3.53094e-06
4.93697e-05
6.23569e-06
4.7855e-05
8.76522e-06
4.76729e-05
1.04325e-05
4.8283e-05
1.10736e-05
4.8655e-05
1.08949e-05
4.84805e-05
9.5894e-06
4.76985e-05
7.55036e-06
4.67707e-05
5.75677e-06
4.57169e-05
5.00089e-06
4.45129e-05
5.0821e-06
4.31285e-05
5.63409e-06
4.15318e-05
5.88063e-06
3.98982e-05
5.46893e-06
3.87679e-05
4.43209e-06
3.8161e-05
3.39423e-06
3.75606e-05
2.37769e-06
3.67143e-05
1.70843e-06
3.58925e-05
1.56693e-06
3.52053e-05
2.10376e-06
3.47812e-05
3.09876e-06
3.44118e-05
3.18282e-06
3.37375e-05
2.65867e-06
3.29369e-05
1.41811e-06
3.23214e-05
9.16271e-07
3.17165e-05
1.21378e-06
3.10588e-05
2.27766e-06
3.03548e-05
2.92947e-06
2.95115e-05
2.84629e-06
2.85884e-05
1.95651e-06
2.78797e-05
9.62695e-07
2.74197e-05
4.50508e-07
2.70494e-05
2.80335e-07
2.66615e-05
3.45988e-07
2.61663e-05
5.83499e-07
2.5648e-05
1.17427e-06
2.54084e-05
1.64481e-06
2.54679e-05
1.63551e-06
2.5716e-05
1.32336e-06
2.57954e-05
1.16607e-06
2.53733e-05
1.51091e-06
2.4474e-05
2.22768e-06
2.35758e-05
2.66846e-06
2.27756e-05
2.41497e-06
2.21051e-05
1.23348e-06
2.16459e-05
-2.56621e-07
2.14835e-05
-1.05434e-06
2.14296e-05
-1.1273e-06
2.13968e-05
-7.68016e-07
2.12333e-05
-2.49496e-07
2.09094e-05
2.54075e-08
2.04975e-05
-2.07316e-07
2.00526e-05
-1.15057e-06
1.9565e-05
-2.31722e-06
1.91182e-05
-3.35085e-06
1.88992e-05
-3.9679e-06
1.89683e-05
-4.09707e-06
1.95071e-05
-3.69654e-06
2.08226e-05
-2.80773e-06
2.43561e-05
-1.46238e-06
2.93984e-05
6.03794e-07
3.36402e-05
2.04194e-06
3.69926e-05
5.86835e-06
3.69283e-05
8.5736e-06