/*--------------------------------*- C++ -*----------------------------------*\
| =========                 |                                                 |
| \\      /  F ield         | OpenFOAM: The Open Source CFD Toolbox           |
|  \\    /   O peration     | Version:  v2006                                 |
|   \\  /    A nd           | Website:  www.openfoam.com                      |
|    \\/     M anipulation  |                                                 |
\*---------------------------------------------------------------------------*/
FoamFile
{
    version     2.0;
    format      ascii;
    class       volVectorField;
    location    "6.8";
    object      U;
}
// * * * * * * * * * * * * * * * * * * * * * * * * * * * * * * * * * * * * * //

dimensions      [0 1 -1 0 0 0 0];


internalField   nonuniform List<vector> 
33000
(
(0.125525 0 0.00125599)
(0.125209 0 0.00169531)
(0.124842 0 0.0012443)
(0.125447 0 -0.00245982)
(0.134647 0 -0.00877509)
(0.157484 0 -0.0118202)
(0.177242 0 -0.0116236)
(0.187728 0 -0.00702971)
(0.189658 0 -0.0055089)
(0.191063 0 -0.00641826)
(0.193959 0 -0.00643877)
(0.196593 0 -0.0063494)
(0.200055 0 -0.00603954)
(0.203956 0 -0.00505312)
(0.209331 0 -0.00421588)
(0.214659 0 -0.00520926)
(0.221878 0 -0.00826082)
(0.229537 0 -0.0057068)
(0.231076 0 0.000177623)
(0.229797 0 0.00127281)
(0.223754 0 -0.000257205)
(0.216418 0 0.00562625)
(0.195925 0 0.0207733)
(0.172948 0 0.0251685)
(0.154685 0 0.0198487)
(0.141412 0 0.0123223)
(0.1337 0 0.00675898)
(0.128252 0 0.00465075)
(0.123591 0 0.00458788)
(0.118417 0 0.0055874)
(0.112371 0 0.00540287)
(0.107075 0 0.00453349)
(0.102755 0 0.00420274)
(0.0981126 0 0.00385349)
(0.0946678 0 0.00225409)
(0.0933767 0 0.000461634)
(0.093162 0 0.000213786)
(0.0927293 0 0.00116001)
(0.0900304 0 0.00395517)
(0.0844039 0 0.00491748)
(0.0805899 0 0.00217172)
(0.0796131 0 7.5594e-05)
(0.0798202 0 -8.19544e-05)
(0.079791 0 0.000424393)
(0.078631 0 0.00183073)
(0.0755504 0 0.0034653)
(0.0720412 0 0.0025813)
(0.0703144 0 0.000474706)
(0.0703538 0 -0.000233523)
(0.0705385 0 -0.000170518)
(0.0709171 0 -8.70897e-05)
(0.0710272 0 -0.000179613)
(0.0713998 0 -0.00029189)
(0.0715921 0 4.86337e-05)
(0.070837 0 0.00118796)
(0.0682741 0 0.00268482)
(0.0650793 0 0.00347288)
(0.0620601 0 0.0028175)
(0.0602634 0 0.00111362)
(0.0592341 0 0.000673371)
(0.0578535 0 0.00156414)
(0.0553233 0 0.00175995)
(0.054007 0 0.000203211)
(0.0547307 0 -0.00152227)
(0.0568569 0 -0.00280241)
(0.0595409 0 -0.00311465)
(0.0619329 0 -0.00247966)
(0.0636396 0 -0.00245154)
(0.0652359 0 -0.00289469)
(0.0673123 0 -0.00383039)
(0.0699225 0 -0.00503537)
(0.074269 0 -0.00672497)
(0.0799058 0 -0.0081544)
(0.0872109 0 -0.00800355)
(0.0921329 0 -0.00626527)
(0.098307 0 -0.00178303)
(0.0996554 0 0.00716086)
(0.0945336 0 0.0241418)
(0.061748 0 0.0196985)
(0.0584151 0 0.00495712)
(0.0426175 0 -0.000868255)
(0.0417951 0 -0.00571638)
(0.0366683 0 0.00282826)
(0.0342414 0 0.00136833)
(0.0355394 0 0.00290973)
(0.0352403 0 0.000396938)
(0.0342234 0 0.0004071)
(0.034146 0 -0.00133294)
(0.0341574 0 -0.00140018)
(0.0346725 0 -0.000764742)
(0.0349187 0 -0.00107912)
(0.0364417 0 -0.00083056)
(0.0379449 0 -0.00213123)
(0.0396751 0 -0.00262368)
(0.0424295 0 -0.00441756)
(0.0453808 0 -0.00520297)
(0.0502805 0 -0.00533669)
(0.0527458 0 -0.00552057)
(0.059809 0 -6.11244e-05)
(0.0557604 0 0.00417696)
(0.0570971 0 0.00373355)
(0.0553259 0 0.00174787)
(0.055819 0 -0.00123917)
(0.0552451 0 -0.000900623)
(0.0548713 0 -0.00120006)
(0.0552263 0 -0.000506243)
(0.0553993 0 0.0001456)
(0.0554662 0 0.000816178)
(0.0553128 0 0.000767408)
(0.0549091 0 0.000599385)
(0.0544991 0 0.00038054)
(0.0537392 0 0.000324371)
(0.053295 0 0.00054011)
(0.0522552 0 0.000829104)
(0.0518409 0 0.00118858)
(0.049813 0 0.00127589)
(0.0498797 0 0.00281213)
(0.0447222 0 0.00275449)
(0.0441542 0 0.00109251)
(0.0421792 0 -0.000691503)
(0.042359 0 -0.00127269)
(0.0418609 0 4.58065e-05)
(0.041301 0 0.000431667)
(0.0412008 0 0.000624042)
(0.040726 0 0.000607714)
(0.039978 0 0.00058295)
(0.0393084 0 0.000585737)
(0.0385152 0 0.000654583)
(0.037636 0 0.000729301)
(0.0366709 0 0.000775947)
(0.0356339 0 0.000879633)
(0.0345378 0 0.000875957)
(0.0334273 0 0.000949247)
(0.0322498 0 0.000953998)
(0.0309755 0 0.00102101)
(0.0296673 0 0.00102537)
(0.0282788 0 0.00107103)
(0.0268871 0 0.00109736)
(0.0254317 0 0.00114928)
(0.0239134 0 0.00121972)
(0.022337 0 0.00124139)
(0.0207339 0 0.00127695)
(0.0191034 0 0.00126002)
(0.0174874 0 0.00125965)
(0.0158859 0 0.00125204)
(0.0142546 0 0.00128377)
(0.0125976 0 0.00130041)
(0.0109094 0 0.00134178)
(0.00921074 0 0.00131687)
(0.00758007 0 0.00125912)
(0.00599778 0 0.00123506)
(0.00440642 0 0.00123811)
(0.00282704 0 0.00123462)
(0.0012609 0 0.00122099)
(-0.000253092 0 0.00118313)
(-0.00173028 0 0.00113815)
(-0.00315498 0 0.00109547)
(-0.00454248 0 0.00107079)
(-0.00589505 0 0.00104283)
(-0.00720328 0 0.00101609)
(-0.00848098 0 0.000999113)
(-0.00974162 0 0.000978468)
(-0.0109617 0 0.000936216)
(-0.0121246 0 0.000899692)
(-0.0132537 0 0.000880825)
(-0.0143681 0 0.000869019)
(-0.015462 0 0.000838774)
(-0.0165002 0 0.00079312)
(-0.0174839 0 0.000764013)
(-0.0184493 0 0.000749527)
(-0.0193959 0 0.000735835)
(-0.0203198 0 0.00071302)
(-0.0212006 0 0.000669058)
(-0.0220276 0 0.000632835)
(-0.0228187 0 0.000607208)
(-0.0235798 0 0.00058932)
(-0.0243202 0 0.000576811)
(-0.0250415 0 0.00055788)
(-0.0257341 0 0.00053067)
(-0.0263893 0 0.000500102)
(-0.027012 0 0.000473809)
(-0.0275999 0 0.000440804)
(-0.0281403 0 0.000411195)
(-0.0286508 0 0.000392591)
(-0.0291375 0 0.000375514)
(-0.0296023 0 0.000360825)
(-0.0300496 0 0.000339642)
(-0.0304671 0 0.000310214)
(-0.0308456 0 0.000281077)
(-0.0311912 0 0.000257217)
(-0.0315059 0 0.000240382)
(-0.0318008 0 0.000228486)
(-0.0320771 0 0.000210721)
(-0.0323284 0 0.000188946)
(-0.0325553 0 0.000164626)
(-0.032752 0 0.000139683)
(-0.0329171 0 0.000117667)
(-0.0330547 0 9.91396e-05)
(-0.0331721 0 8.83564e-05)
(-0.0332814 0 8.214e-05)
(-0.0333765 0 6.96003e-05)
(-0.0334522 0 5.1823e-05)
(-0.0334994 0 2.51699e-05)
(-0.0335151 0 3.71153e-06)
(-0.0335133 0 -7.76964e-06)
(-0.0335007 0 -1.55154e-05)
(-0.033476 0 -2.36853e-05)
(-0.0334387 0 -3.41219e-05)
(-0.0333813 0 -5.3848e-05)
(-0.0332996 0 -7.08413e-05)
(-0.033205 0 -7.75301e-05)
(-0.0331078 0 -7.5318e-05)
(-0.0330125 0 -7.83701e-05)
(-0.0328974 0 -0.00010295)
(-0.0327479 0 -0.000125001)
(-0.0325846 0 -0.000133008)
(-0.0324152 0 -0.000135584)
(-0.0322427 0 -0.000129725)
(-0.0320793 0 -0.000125912)
(-0.0319118 0 -0.000135623)
(-0.0317286 0 -0.000153736)
(-0.0315237 0 -0.000168954)
(-0.0313048 0 -0.000174313)
(-0.031085 0 -0.000173982)
(-0.030867 0 -0.0001641)
(-0.030663 0 -0.000155498)
(-0.0304605 0 -0.000160294)
(-0.0302499 0 -0.000169057)
(-0.0300327 0 -0.000175923)
(-0.0298059 0 -0.000179993)
(-0.0295792 0 -0.000176514)
(-0.0293616 0 -0.000161624)
(-0.0291642 0 -0.000149168)
(-0.028974 0 -0.000152377)
(-0.0287743 0 -0.000156721)
(-0.0285758 0 -0.000154794)
(-0.0283774 0 -0.000154691)
(-0.0281798 0 -0.00014976)
(-0.027993 0 -0.000141871)
(-0.0278148 0 -0.00013913)
(-0.0276421 0 -0.00013549)
(-0.0274778 0 -0.000126087)
(-0.0273242 0 -0.000116556)
(-0.0271754 0 -0.00011274)
(-0.0270253 0 -0.000120032)
(-0.0268671 0 -0.000125938)
(-0.0267096 0 -0.000123164)
(-0.0265574 0 -0.000114624)
(-0.0264195 0 -9.8333e-05)
(-0.0262984 0 -9.75395e-05)
(-0.026161 0 -0.000115787)
(-0.0260073 0 -0.000120989)
(-0.025856 0 -0.000119006)
(-0.0257056 0 -0.000117789)
(-0.0255586 0 -0.000111996)
(-0.0254169 0 -0.000112776)
(-0.0252645 0 -0.000121601)
(-0.0251012 0 -0.00013002)
(-0.0249316 0 -0.000136585)
(-0.0247541 0 -0.000143294)
(-0.0245713 0 -0.000146145)
(-0.0243863 0 -0.000147916)
(-0.02419 0 -0.000156455)
(-0.0239801 0 -0.000170003)
(-0.0237542 0 -0.000184372)
(-0.0235132 0 -0.000192659)
(-0.0232681 0 -0.000194035)
(-0.0230212 0 -0.000194546)
(-0.0227674 0 -0.000206061)
(-0.0224898 0 -0.000228746)
(-0.0221859 0 -0.000245618)
(-0.0218672 0 -0.000256926)
(-0.021535 0 -0.000268803)
(-0.0211866 0 -0.000277336)
(-0.0208294 0 -0.000282063)
(-0.020462 0 -0.000295194)
(-0.0200734 0 -0.000314575)
(-0.0196628 0 -0.000332187)
(-0.0192309 0 -0.000348056)
(-0.0187789 0 -0.000363494)
(-0.0183069 0 -0.000379672)
(-0.0178144 0 -0.000395706)
(-0.0173023 0 -0.000406423)
(-0.016781 0 -0.000414361)
(-0.0162448 0 -0.000433479)
(-0.0156765 0 -0.000456592)
(-0.015085 0 -0.000473539)
(-0.0144742 0 -0.000488711)
(-0.0138447 0 -0.000503832)
(-0.0131952 0 -0.000517782)
(-0.0125293 0 -0.000528479)
(-0.0118496 0 -0.000541691)
(-0.0111499 0 -0.000558046)
(-0.0104308 0 -0.00057388)
(-0.00969369 0 -0.000587252)
(-0.00894176 0 -0.000598264)
(-0.00817684 0 -0.000604722)
(-0.00740492 0 -0.000609187)
(-0.00662478 0 -0.000617399)
(-0.00583554 0 -0.000625521)
(-0.00503951 0 -0.000631299)
(-0.00423652 0 -0.000634023)
(-0.00343186 0 -0.000631377)
(-0.00263247 0 -0.000627504)
(-0.00183613 0 -0.000626223)
(-0.00104344 0 -0.000622674)
(-0.000257685 0 -0.000614653)
(0.000518029 0 -0.000604265)
(0.00128081 0 -0.000594433)
(0.00203177 0 -0.00058592)
(0.00277164 0 -0.000577599)
(0.00350086 0 -0.000567931)
(0.00421701 0 -0.000556119)
(0.00491747 0 -0.000544077)
(0.00560357 0 -0.000534279)
(0.00627781 0 -0.000524949)
(0.00693936 0 -0.000514151)
(0.00758658 0 -0.000502352)
(0.00821877 0 -0.000490481)
(0.00883589 0 -0.000478907)
(0.00943819 0 -0.000467314)
(0.0100254 0 -0.000455307)
(0.0105972 0 -0.000442508)
(0.0111524 0 -0.000429128)
(0.0116909 0 -0.000416562)
(0.0122139 0 -0.000404394)
(0.0127205 0 -0.000391353)
(0.01321 0 -0.000377314)
(0.0136814 0 -0.000363182)
(0.0141356 0 -0.000349868)
(0.0145731 0 -0.000336889)
(0.0149936 0 -0.000323563)
(0.0153964 0 -0.000308849)
(0.0157798 0 -0.000293245)
(0.016144 0 -0.000278971)
(0.0164906 0 -0.000265578)
(0.01682 0 -0.000252065)
(0.0171318 0 -0.000237977)
(0.0174253 0 -0.000223429)
(0.0177003 0 -0.00020869)
(0.0179567 0 -0.000194342)
(0.018195 0 -0.000180455)
(0.0184155 0 -0.000166757)
(0.0186186 0 -0.000152889)
(0.0188038 0 -0.000138713)
(0.0189709 0 -0.000124511)
(0.0191204 0 -0.000110829)
(0.0192528 0 -9.77921e-05)
(0.0193686 0 -8.49609e-05)
(0.019468 0 -7.18739e-05)
(0.0195505 0 -5.83725e-05)
(0.0196159 0 -4.53489e-05)
(0.0196653 0 -3.34238e-05)
(0.0196999 0 -2.16669e-05)
(0.0197191 0 -9.44085e-06)
(0.0197229 0 2.34322e-06)
(0.0197121 0 1.35916e-05)
(0.0196868 0 2.46415e-05)
(0.0196476 0 3.55122e-05)
(0.0195948 0 4.59826e-05)
(0.019529 0 5.62128e-05)
(0.0194502 0 6.61264e-05)
(0.0193589 0 7.57759e-05)
(0.0192557 0 8.51578e-05)
(0.0191405 0 9.4663e-05)
(0.0190135 0 0.000103772)
(0.0188751 0 0.000112496)
(0.018726 0 0.000120348)
(0.0185672 0 0.000127792)
(0.0183987 0 0.00013564)
(0.01822 0 0.000143691)
(0.0180315 0 0.000151214)
(0.0178338 0 0.00015786)
(0.0176283 0 0.000164134)
(0.0174147 0 0.000170695)
(0.017193 0 0.000177258)
(0.0169632 0 0.000183429)
(0.0167259 0 0.000189506)
(0.0164813 0 0.000195774)
(0.0162287 0 0.000202447)
(0.0159686 0 0.000207125)
(0.0157026 0 0.000211357)
(0.0154311 0 0.000215758)
(0.0151538 0 0.000220955)
(0.0148702 0 0.000225812)
(0.0145808 0 0.000230924)
(0.0142853 0 0.000235536)
(0.0139838 0 0.000240017)
(0.0136778 0 0.00024307)
(0.0133674 0 0.000247264)
(0.0130517 0 0.000251769)
(0.0127302 0 0.000256583)
(0.0124041 0 0.000258779)
(0.012075 0 0.000261575)
(0.0117415 0 0.000264731)
(0.0114044 0 0.000267916)
(0.0110638 0 0.000270985)
(0.0107191 0 0.000275095)
(0.0103696 0 0.000277966)
(0.0100176 0 0.000279609)
(0.00966227 0 0.000280901)
(0.00930773 0 0.000281786)
(0.00895002 0 0.000283369)
(0.00859215 0 0.00028503)
(0.00823055 0 0.00028723)
(0.0078695 0 0.00028849)
(0.00750542 0 0.000288366)
(0.0071467 0 0.000286033)
(0.00678668 0 0.000283979)
(0.00643127 0 0.000280697)
(0.00607416 0 0.000278357)
(0.00572082 0 0.000276233)
(0.00536825 0 0.000273178)
(0.00501994 0 0.00027353)
(0.00467807 0 0.000269331)
(0.00433706 0 0.000268975)
(0.00400229 0 0.000255392)
(0.00366992 0 0.000252561)
(0.00333858 0 0.000243353)
(0.0030155 0 0.000254767)
(0.0026961 0 0.00025642)
(0.00238833 0 0.000264032)
(0.00208528 0 0.000233215)
(0.00178526 0 0.000210581)
(0.00151183 0 0.00016963)
(0.0012251 0 0.00021168)
(0.000886811 0 0.000190481)
(0.000692096 0 0.000260457)
(0.000330373 0 0.000313554)
(0.000110109 0 0.000229046)
(-0.000206792 0 9.24796e-05)
(-0.000284668 0 8.22885e-05)
(-0.000551695 0 0.000175185)
(-0.000751435 0 0.000141134)
(-0.00101223 0 0.000172313)
(-0.00126425 0 0.000132772)
(-0.00149451 0 0.000179666)
(-0.00172415 0 0.00018919)
(-0.00192063 0 0.000233772)
(-0.00214812 0 0.000248296)
(-0.00231324 0 0.000135913)
(-0.00252991 0 0.000104908)
(-0.00281972 0 1.2008e-05)
(-0.00303234 0 0.000202486)
(-0.00323501 0 0.000433171)
(-0.00341769 0 0.000578896)
(-0.00334892 0 0.000266365)
(-0.00337302 0 -0.00024661)
(-0.00268389 0 -0.000806603)
(-0.00230543 0 -0.00047767)
(-0.00186493 0 -0.00037752)
(-0.00172157 0 -0.000195956)
(-0.00157582 0 -0.000102334)
(-0.00151804 0 -0.00011825)
(-0.001483 0 2.91515e-05)
(-0.00145096 0 -0.000119772)
(-0.0014704 0 9.03027e-05)
(-0.00145732 0 -0.000138)
(-0.00142192 0 0.000140354)
(-0.00151139 0 -0.000159475)
(-0.00140643 0 0.000105506)
(-0.00144824 0 -0.000140446)
(-0.001572 0 0.000205739)
(-0.00132051 0 -0.000227451)
(-0.00119969 0 0.000383953)
(-0.00183922 0 -0.000519009)
(-0.000847822 0 -0.000213856)
(-0.00223265 0 0.000149686)
(-0.000501833 0 0.000679289)
(-0.00398268 0 0.00135387)
(-0.00267108 0 -0.000481413)
(-0.00296304 0 -0.000419242)
(-0.00211619 0 -0.000427733)
(-0.00201397 0 -0.00026189)
(-0.00171949 0 -0.00020992)
(-0.00157895 0 -0.000178255)
(-0.00140951 0 -0.000153336)
(-0.00127083 0 -0.000129377)
(-0.00114738 0 -0.000109133)
(-0.00102984 0 -0.000106329)
(-0.000900622 0 -0.000109468)
(-0.000769112 0 -0.000104317)
(-0.000643313 0 -0.000104974)
(-0.000510657 0 -0.000106632)
(-0.000376681 0 -0.000103279)
(-0.000240095 0 -0.000113854)
(-9.06387e-05 0 -0.000119809)
(6.40828e-05 0 -0.000118919)
(0.000215913 0 -0.000116054)
(0.000370783 0 -0.000130038)
(0.000542861 0 -0.00014077)
(0.000723339 0 -0.000138719)
(0.000899698 0 -0.000135473)
(0.0010737 0 -0.000136629)
(0.00125365 0 -0.000145214)
(0.00144411 0 -0.000153496)
(0.00164131 0 -0.00015669)
(0.0018433 0 -0.00016077)
(0.00204914 0 -0.000162718)
(0.00225988 0 -0.000169549)
(0.00247463 0 -0.000165295)
(0.00268544 0 -0.000162967)
(0.00289817 0 -0.000173283)
(0.00312524 0 -0.000185417)
(0.00336633 0 -0.000194616)
(0.00361576 0 -0.000200232)
(0.00386895 0 -0.000200605)
(0.00412349 0 -0.000200648)
(0.00437907 0 -0.000201514)
(0.00463669 0 -0.000203295)
(0.004897 0 -0.000205873)
(0.00516265 0 -0.000211123)
(0.00543063 0 -0.000208132)
(0.00569757 0 -0.00021514)
(0.00597286 0 -0.000222212)
(0.00625444 0 -0.000219095)
(0.00653033 0 -0.000212875)
(0.00679988 0 -0.0002103)
(0.00706902 0 -0.000210414)
(0.0073404 0 -0.000212873)
(0.00761546 0 -0.000217236)
(0.00789504 0 -0.000221078)
(0.00817838 0 -0.000223819)
(0.00846446 0 -0.000225542)
(0.00875234 0 -0.000226394)
(0.00904112 0 -0.000226762)
(0.00933013 0 -0.000226694)
(0.00961947 0 -0.000227506)
(0.00991027 0 -0.000229273)
(0.0102034 0 -0.000230798)
(0.0104987 0 -0.000232435)
(0.0107947 0 -0.000232573)
(0.0110894 0 -0.000231014)
(0.0113827 0 -0.000229863)
(0.0116764 0 -0.000231242)
(0.0119733 0 -0.000234015)
(0.0122724 0 -0.000234747)
(0.0125706 0 -0.000233584)
(0.0128661 0 -0.000229392)
(0.0131595 0 -0.000234512)
(0.0134637 0 -0.00023098)
(0.0137517 0 -0.000230757)
(0.0140627 0 -0.00023105)
(0.0143304 0 -0.000246138)
(0.0147015 0 -0.000255837)
(0.0149293 0 -0.000255734)
(0.0153964 0 -0.000253533)
(0.0159332 0 -0.000253562)
(0.014491 0 -0.000252682)
(0.0195121 0 -0.00029278)
(0.125489 0 0.0036087)
(0.125083 0 0.00420236)
(0.124119 0 0.00170595)
(0.129667 0 -0.0130185)
(0.15632 0 -0.0452442)
(0.185291 0 -0.054119)
(0.212895 0 -0.0317675)
(0.224236 0 -0.0069462)
(0.221408 0 0.000150403)
(0.210687 0 -0.000958799)
(0.200211 0 -0.00278012)
(0.194453 0 -0.00436187)
(0.189938 0 -0.00716411)
(0.187448 0 -0.010638)
(0.187874 0 -0.0134136)
(0.190969 0 -0.0145823)
(0.194087 0 -0.0139433)
(0.197015 0 -0.00992868)
(0.194564 0 -0.0015102)
(0.189983 0 0.0100607)
(0.182535 0 0.0213097)
(0.169573 0 0.0348833)
(0.157762 0 0.0421595)
(0.149447 0 0.0394705)
(0.142248 0 0.0318571)
(0.135613 0 0.021856)
(0.130073 0 0.0147433)
(0.125288 0 0.0115525)
(0.12052 0 0.0110877)
(0.115845 0 0.0123432)
(0.11045 0 0.0124428)
(0.10552 0 0.0107758)
(0.101156 0 0.00977455)
(0.0977301 0 0.00892255)
(0.0954128 0 0.00524185)
(0.0934768 0 0.00180424)
(0.0922569 0 0.00140614)
(0.091227 0 0.00359138)
(0.0881976 0 0.00887311)
(0.0857198 0 0.00952555)
(0.083571 0 0.00564028)
(0.081222 0 0.000836463)
(0.080436 0 0.000119454)
(0.080105 0 0.00126765)
(0.0784141 0 0.0047699)
(0.076069 0 0.0069392)
(0.0739036 0 0.00577293)
(0.071629 0 0.0020443)
(0.0702512 0 -0.000208579)
(0.0699125 0 -0.000639734)
(0.0698964 0 -0.000669827)
(0.0699093 0 -0.000702416)
(0.0694238 0 -0.00061136)
(0.0688316 0 0.000958336)
(0.067025 0 0.0041486)
(0.0651241 0 0.00611611)
(0.0641189 0 0.00616979)
(0.0636942 0 0.0048145)
(0.0626398 0 0.00309657)
(0.0609086 0 0.00314032)
(0.0584967 0 0.00472957)
(0.05584 0 0.00439072)
(0.0543441 0 0.000931714)
(0.053971 0 -0.00336535)
(0.054589 0 -0.00502175)
(0.0551765 0 -0.00497705)
(0.0554427 0 -0.00398129)
(0.0551392 0 -0.00293549)
(0.0542933 0 -0.00265578)
(0.0532815 0 -0.00372228)
(0.0529355 0 -0.00644693)
(0.0541983 0 -0.010193)
(0.056462 0 -0.0131011)
(0.059971 0 -0.0136746)
(0.0640943 0 -0.0123141)
(0.0693978 0 -0.00687531)
(0.0746327 0 0.00219428)
(0.0849996 0 0.0225523)
(0.0953126 0 0.0369487)
(0.0934804 0 0.0277976)
(0.0898878 0 0.0265971)
(0.0572306 0 0.0159917)
(0.0534867 0 0.00862556)
(0.0385318 0 0.000471434)
(0.0369454 0 -0.00489509)
(0.0324664 0 0.00215477)
(0.0315561 0 0.00101664)
(0.0309979 0 0.00176643)
(0.0352669 0 0.000382505)
(0.0362333 0 -0.000203726)
(0.0356773 0 -0.00190405)
(0.0365968 0 -0.0037754)
(0.0361322 0 -0.00314421)
(0.03648 0 -0.00422239)
(0.0368134 0 -0.00487439)
(0.0374616 0 -0.00685086)
(0.0378119 0 -0.0068319)
(0.0400354 0 -0.00879052)
(0.0413319 0 -0.00530884)
(0.0477083 0 -0.0011354)
(0.0507905 0 -0.00195115)
(0.0580759 0 0.000235441)
(0.0551266 0 0.00164378)
(0.0571093 0 0.00263072)
(0.0565084 0 0.00111777)
(0.0566283 0 -0.000609517)
(0.0558924 0 -0.000473634)
(0.055374 0 -0.000808975)
(0.0546753 0 0.000229534)
(0.054739 0 0.000669137)
(0.0547569 0 0.00153519)
(0.0543928 0 0.00157884)
(0.0540916 0 0.00168304)
(0.0534556 0 0.00158646)
(0.052845 0 0.00223421)
(0.0521138 0 0.00243208)
(0.0513546 0 0.00457351)
(0.0516931 0 0.00545184)
(0.0500753 0 0.00388142)
(0.0501255 0 0.00337002)
(0.0450996 0 0.00212503)
(0.0442458 0 0.00172185)
(0.0419777 0 0.000439725)
(0.0412624 0 0.000118473)
(0.040476 0 0.0013762)
(0.0397827 0 0.00162598)
(0.0393884 0 0.00175598)
(0.0386667 0 0.00198225)
(0.037648 0 0.00216452)
(0.0366932 0 0.00235782)
(0.0356785 0 0.00247744)
(0.0345906 0 0.00258931)
(0.0334613 0 0.00264585)
(0.0322638 0 0.00290105)
(0.0309907 0 0.00303558)
(0.0296393 0 0.00321194)
(0.028258 0 0.00329689)
(0.0268468 0 0.00337408)
(0.025384 0 0.00352367)
(0.0238746 0 0.00364298)
(0.0223262 0 0.00375565)
(0.0207434 0 0.0038033)
(0.0191412 0 0.00384502)
(0.0175294 0 0.00379414)
(0.0159207 0 0.00383139)
(0.0142709 0 0.00388337)
(0.0125997 0 0.00396022)
(0.0109301 0 0.00398067)
(0.00929535 0 0.00391954)
(0.0076898 0 0.00378792)
(0.00607899 0 0.00375857)
(0.00447548 0 0.00374462)
(0.00287966 0 0.0037143)
(0.00133877 0 0.00361711)
(-0.000144353 0 0.00352061)
(-0.0016053 0 0.00342303)
(-0.00305217 0 0.00332726)
(-0.00446763 0 0.00323701)
(-0.00583873 0 0.0031405)
(-0.00716222 0 0.00304814)
(-0.00845173 0 0.00299094)
(-0.00970563 0 0.0029214)
(-0.0109218 0 0.00280875)
(-0.0120975 0 0.00270241)
(-0.013241 0 0.00264515)
(-0.0143619 0 0.00260215)
(-0.0154498 0 0.00251303)
(-0.0164962 0 0.00238368)
(-0.0174932 0 0.00229868)
(-0.0184643 0 0.00225629)
(-0.0194152 0 0.00220286)
(-0.0203284 0 0.0021249)
(-0.0212082 0 0.00201322)
(-0.0220506 0 0.00191078)
(-0.0228514 0 0.00183195)
(-0.0236198 0 0.00176976)
(-0.0243572 0 0.00172044)
(-0.0250715 0 0.00166377)
(-0.0257602 0 0.00158761)
(-0.0264162 0 0.00150713)
(-0.0270424 0 0.0014301)
(-0.0276315 0 0.0013315)
(-0.0281793 0 0.0012398)
(-0.028694 0 0.00117486)
(-0.0291804 0 0.00111837)
(-0.02964 0 0.00107304)
(-0.0300816 0 0.00101953)
(-0.0304991 0 0.00094063)
(-0.0308856 0 0.000857053)
(-0.0312416 0 0.00078017)
(-0.0315601 0 0.000716695)
(-0.0318482 0 0.000669613)
(-0.0321122 0 0.000617377)
(-0.0323555 0 0.000562731)
(-0.0325806 0 0.000501139)
(-0.0327826 0 0.000428857)
(-0.0329545 0 0.000357992)
(-0.0330958 0 0.000301327)
(-0.0332164 0 0.000267225)
(-0.0333208 0 0.000239939)
(-0.0334074 0 0.000197639)
(-0.033475 0 0.000142914)
(-0.0335161 0 7.26306e-05)
(-0.0335351 0 1.86604e-05)
(-0.0335405 0 -1.4941e-05)
(-0.0335312 0 -4.25166e-05)
(-0.0335051 0 -7.43522e-05)
(-0.0334591 0 -0.000113918)
(-0.0333939 0 -0.000165671)
(-0.0333148 0 -0.000206514)
(-0.0332273 0 -0.000224114)
(-0.0331334 0 -0.000227978)
(-0.0330266 0 -0.000250795)
(-0.0329 0 -0.000314071)
(-0.0327542 0 -0.000366368)
(-0.0325974 0 -0.000389397)
(-0.0324332 0 -0.000402238)
(-0.0322619 0 -0.000397658)
(-0.0320892 0 -0.000393653)
(-0.0319109 0 -0.000415275)
(-0.0317246 0 -0.000455603)
(-0.0315243 0 -0.000497927)
(-0.0313122 0 -0.000514022)
(-0.0311001 0 -0.000515126)
(-0.0308848 0 -0.000498708)
(-0.0306696 0 -0.000483164)
(-0.0304554 0 -0.000489098)
(-0.0302439 0 -0.000502473)
(-0.0300292 0 -0.000522495)
(-0.0298088 0 -0.00053224)
(-0.0295905 0 -0.000522401)
(-0.0293752 0 -0.000490186)
(-0.0291694 0 -0.000459305)
(-0.0289723 0 -0.000460182)
(-0.0287743 0 -0.000469311)
(-0.0285717 0 -0.000468551)
(-0.02837 0 -0.000467815)
(-0.0281744 0 -0.00045421)
(-0.0279876 0 -0.000431557)
(-0.0278135 0 -0.000412158)
(-0.0276505 0 -0.00039391)
(-0.027492 0 -0.00037309)
(-0.0273339 0 -0.00035859)
(-0.0271725 0 -0.000356754)
(-0.0270131 0 -0.000364289)
(-0.0268604 0 -0.000370429)
(-0.026713 0 -0.000363075)
(-0.0265702 0 -0.000341999)
(-0.0264328 0 -0.000308357)
(-0.0262964 0 -0.000308088)
(-0.0261557 0 -0.000342527)
(-0.0260093 0 -0.000358719)
(-0.0258621 0 -0.000354793)
(-0.0257207 0 -0.000350378)
(-0.0255777 0 -0.000341267)
(-0.0254291 0 -0.000349757)
(-0.0252694 0 -0.000374886)
(-0.0251033 0 -0.000393073)
(-0.0249337 0 -0.000409073)
(-0.024762 0 -0.000422986)
(-0.0245896 0 -0.000431843)
(-0.0244064 0 -0.000451231)
(-0.0242036 0 -0.00048203)
(-0.0239884 0 -0.000514684)
(-0.0237654 0 -0.000549565)
(-0.0235309 0 -0.000571556)
(-0.0232901 0 -0.000578996)
(-0.0230411 0 -0.00059259)
(-0.0227784 0 -0.000628325)
(-0.0224981 0 -0.000685917)
(-0.0221971 0 -0.000732673)
(-0.0218824 0 -0.000766003)
(-0.0215538 0 -0.00080069)
(-0.0212125 0 -0.000831684)
(-0.0208531 0 -0.000856392)
(-0.0204753 0 -0.000892782)
(-0.0200823 0 -0.000941368)
(-0.019672 0 -0.000991726)
(-0.0192443 0 -0.00104085)
(-0.0187947 0 -0.00108847)
(-0.0183245 0 -0.00113587)
(-0.0178328 0 -0.0011829)
(-0.0173241 0 -0.00121758)
(-0.0168001 0 -0.00124726)
(-0.0162569 0 -0.00130207)
(-0.0156885 0 -0.00136641)
(-0.0150985 0 -0.00141563)
(-0.0144902 0 -0.00146077)
(-0.0138647 0 -0.00150592)
(-0.0132199 0 -0.00154986)
(-0.0125534 0 -0.00158604)
(-0.0118702 0 -0.00162626)
(-0.0111686 0 -0.00167165)
(-0.0104507 0 -0.00171484)
(-0.00971903 0 -0.00175297)
(-0.00897385 0 -0.00178574)
(-0.00821343 0 -0.0018108)
(-0.00743983 0 -0.00183014)
(-0.00665659 0 -0.00184928)
(-0.00587005 0 -0.00186602)
(-0.00508086 0 -0.00188194)
(-0.0042849 0 -0.00189278)
(-0.00348426 0 -0.00188997)
(-0.00268295 0 -0.00188062)
(-0.00188662 0 -0.00187173)
(-0.00109922 0 -0.00185806)
(-0.000316061 0 -0.00183939)
(0.000462126 0 -0.00181376)
(0.00122963 0 -0.00178486)
(0.00198386 0 -0.00175712)
(0.00272574 0 -0.0017312)
(0.00345736 0 -0.00170346)
(0.00417713 0 -0.00167011)
(0.00488326 0 -0.00163482)
(0.00557403 0 -0.00160352)
(0.00625072 0 -0.00157431)
(0.00691496 0 -0.00154268)
(0.00756557 0 -0.00150829)
(0.00820176 0 -0.00147282)
(0.00882245 0 -0.00143729)
(0.00942725 0 -0.00140182)
(0.0100166 0 -0.00136571)
(0.0105905 0 -0.00132825)
(0.0111489 0 -0.00128936)
(0.011691 0 -0.00125117)
(0.0122165 0 -0.00121331)
(0.0127247 0 -0.0011737)
(0.0132156 0 -0.00113245)
(0.0136895 0 -0.00109119)
(0.0141463 0 -0.00105118)
(0.0145857 0 -0.00101115)
(0.0150073 0 -0.000970134)
(0.0154108 0 -0.000926668)
(0.0157958 0 -0.000881419)
(0.0161625 0 -0.000838095)
(0.0165107 0 -0.000796878)
(0.016841 0 -0.000755887)
(0.0171531 0 -0.00071355)
(0.0174469 0 -0.00067048)
(0.0177228 0 -0.000626853)
(0.0179805 0 -0.00058357)
(0.0182195 0 -0.000541049)
(0.0184402 0 -0.000499483)
(0.0186433 0 -0.000457706)
(0.0188281 0 -0.000415306)
(0.018995 0 -0.000373344)
(0.019145 0 -0.000332502)
(0.0192778 0 -0.000292772)
(0.0193934 0 -0.000253711)
(0.019492 0 -0.00021439)
(0.0195739 0 -0.000174489)
(0.0196393 0 -0.000135503)
(0.0196886 0 -9.89456e-05)
(0.0197224 0 -6.32719e-05)
(0.0197407 0 -2.69429e-05)
(0.0197441 0 8.60318e-06)
(0.0197326 0 4.29611e-05)
(0.0197062 0 7.65515e-05)
(0.0196657 0 0.00010897)
(0.0196118 0 0.000140302)
(0.0195449 0 0.000170883)
(0.0194651 0 0.000200884)
(0.0193725 0 0.000229664)
(0.0192679 0 0.000257784)
(0.0191515 0 0.000285747)
(0.0190236 0 0.000312965)
(0.0188848 0 0.000338904)
(0.0187351 0 0.000362954)
(0.018575 0 0.000386118)
(0.0184048 0 0.000409419)
(0.0182249 0 0.000432819)
(0.0180356 0 0.000455021)
(0.017837 0 0.000475359)
(0.0176302 0 0.000494039)
(0.0174153 0 0.000513024)
(0.0171925 0 0.000532047)
(0.0169616 0 0.000550598)
(0.0167227 0 0.000567801)
(0.0164766 0 0.000585648)
(0.016224 0 0.000603444)
(0.0159645 0 0.000620081)
(0.0156981 0 0.000633617)
(0.0154253 0 0.000647062)
(0.0151467 0 0.000660864)
(0.0148617 0 0.000675353)
(0.0145711 0 0.000688653)
(0.0142746 0 0.000703205)
(0.0139731 0 0.000714971)
(0.0136666 0 0.00072601)
(0.0133549 0 0.00073662)
(0.0130379 0 0.000749701)
(0.0127173 0 0.000760999)
(0.0123922 0 0.00077093)
(0.0120627 0 0.000779203)
(0.0117279 0 0.000789191)
(0.0113898 0 0.000796768)
(0.0110485 0 0.000806219)
(0.010704 0 0.000815423)
(0.0103568 0 0.000824864)
(0.0100058 0 0.000831428)
(0.00965068 0 0.000835321)
(0.00929531 0 0.000836924)
(0.00893719 0 0.000842085)
(0.00857807 0 0.000844962)
(0.00821888 0 0.000849535)
(0.00785861 0 0.000850353)
(0.00749789 0 0.000848807)
(0.00713706 0 0.000842755)
(0.00677674 0 0.000841661)
(0.00641899 0 0.000838491)
(0.00606437 0 0.000839222)
(0.00571182 0 0.000832773)
(0.0053644 0 0.000828805)
(0.00501626 0 0.000810989)
(0.00467385 0 0.000803647)
(0.00432723 0 0.000793415)
(0.00399038 0 0.000792561)
(0.00365754 0 0.000791084)
(0.00333563 0 0.000784301)
(0.00301857 0 0.000755197)
(0.00269814 0 0.000727625)
(0.00239787 0 0.000696694)
(0.00207495 0 0.000713203)
(0.00173176 0 0.000691651)
(0.00146996 0 0.000709888)
(0.00111811 0 0.000770234)
(0.000893926 0 0.000645153)
(0.000577501 0 0.000614238)
(0.000472564 0 0.00059881)
(0.000213276 0 0.00061678)
(1.25213e-05 0 0.000526102)
(-0.000319187 0 0.000461669)
(-0.000572063 0 0.000555296)
(-0.000840678 0 0.000585469)
(-0.00105556 0 0.000630203)
(-0.00129515 0 0.00062779)
(-0.00145736 0 0.000540496)
(-0.00168506 0 0.000482503)
(-0.00187843 0 0.000430809)
(-0.00224002 0 0.000370119)
(-0.00245661 0 0.000462421)
(-0.00267516 0 0.000692636)
(-0.00273681 0 0.000776651)
(-0.00262407 0 0.000451504)
(-0.00255241 0 0.000172849)
(-0.00190482 0 -0.000398668)
(-0.00156052 0 -0.000338678)
(-0.00116331 0 -0.000792031)
(-0.00129298 0 -0.00088786)
(-0.00132315 0 -0.000789345)
(-0.00141426 0 -0.000560565)
(-0.00135879 0 -0.000238581)
(-0.00146269 0 -0.000236638)
(-0.00133793 0 -9.16103e-06)
(-0.00145955 0 -0.000149945)
(-0.00135009 0 0.000114299)
(-0.00149156 0 -9.07509e-05)
(-0.0013706 0 7.0534e-05)
(-0.00144926 0 -6.24963e-05)
(-0.00154059 0 0.000137761)
(-0.00132546 0 -0.000205348)
(-0.00122297 0 0.000402109)
(-0.00168415 0 -0.000402955)
(-0.00107085 0 -0.000357775)
(-0.00245972 0 0.000426488)
(-0.000360255 0 -3.99722e-05)
(-0.00400764 0 0.000831202)
(-0.00200392 0 -0.000696156)
(-0.00320422 0 0.00209058)
(-0.00166576 0 0.00166494)
(-0.00176155 0 -0.000651376)
(-0.00170987 0 -0.000902728)
(-0.001621 0 -0.000855693)
(-0.00152365 0 -0.000547521)
(-0.0014208 0 -0.000410587)
(-0.00133159 0 -0.00035966)
(-0.00123455 0 -0.000333188)
(-0.00113453 0 -0.000301491)
(-0.0010318 0 -0.000275605)
(-0.000922295 0 -0.000287925)
(-0.000803979 0 -0.000308235)
(-0.000682088 0 -0.000301261)
(-0.000559254 0 -0.000308429)
(-0.000431284 0 -0.00031895)
(-0.000297863 0 -0.000316613)
(-0.000157297 0 -0.000342288)
(-8.88737e-06 0 -0.000359283)
(0.000144828 0 -0.000362676)
(0.000304486 0 -0.000361061)
(0.000469829 0 -0.000393169)
(0.000641876 0 -0.000418822)
(0.000819322 0 -0.000418532)
(0.00100056 0 -0.000414589)
(0.001186 0 -0.000421185)
(0.00137633 0 -0.000440144)
(0.00157105 0 -0.000459059)
(0.00177043 0 -0.000470003)
(0.00197616 0 -0.000485053)
(0.00218737 0 -0.00049107)
(0.00240035 0 -0.000502856)
(0.00261412 0 -0.000498161)
(0.00283412 0 -0.000500486)
(0.00305989 0 -0.000524886)
(0.00329109 0 -0.000553757)
(0.00352766 0 -0.000576453)
(0.00376821 0 -0.000589734)
(0.00401296 0 -0.000596753)
(0.00426293 0 -0.00060136)
(0.00451677 0 -0.000606079)
(0.00477394 0 -0.00061278)
(0.00503515 0 -0.000621215)
(0.00529916 0 -0.00063072)
(0.0055648 0 -0.000627548)
(0.00583156 0 -0.00064154)
(0.00610156 0 -0.000656783)
(0.00637236 0 -0.000652277)
(0.0066446 0 -0.000642195)
(0.00691923 0 -0.000638878)
(0.00719597 0 -0.000641277)
(0.00747481 0 -0.000647628)
(0.00775522 0 -0.000656509)
(0.00803676 0 -0.000664928)
(0.00832013 0 -0.000671964)
(0.00860576 0 -0.000677256)
(0.00889348 0 -0.000680338)
(0.00918255 0 -0.000681595)
(0.00947244 0 -0.000682502)
(0.00976314 0 -0.000685085)
(0.0100548 0 -0.000689768)
(0.0103481 0 -0.000694969)
(0.0106427 0 -0.000697489)
(0.0109369 0 -0.00069552)
(0.0112303 0 -0.000692683)
(0.0115246 0 -0.000693495)
(0.0118212 0 -0.000698341)
(0.0121195 0 -0.000704469)
(0.0124171 0 -0.000702607)
(0.0127128 0 -0.000700387)
(0.0130115 0 -0.000696379)
(0.0133103 0 -0.000707414)
(0.0136171 0 -0.000701394)
(0.0139064 0 -0.000695811)
(0.0142245 0 -0.000699072)
(0.0144951 0 -0.000731332)