/*--------------------------------*- C++ -*----------------------------------*\
| =========                 |                                                 |
| \\      /  F ield         | OpenFOAM: The Open Source CFD Toolbox           |
|  \\    /   O peration     | Version:  v2006                                 |
|   \\  /    A nd           | Website:  www.openfoam.com                      |
|    \\/     M anipulation  |                                                 |
\*---------------------------------------------------------------------------*/
FoamFile
{
    version     2.0;
    format      ascii;
    class       surfaceScalarField;
    location    "2.1";
    object      alphaPhi0.water;
}
// * * * * * * * * * * * * * * * * * * * * * * * * * * * * * * * * * * * * * //

dimensions      [0 3 -1 0 0 0 0];
oriented        oriented;


internalField   nonuniform List<scalar> 
65390
(
-3.29176e-06
2.73966e-07
-4.16947e-06
8.81145e-07
-5.00139e-06
8.33409e-07
-5.77401e-06
7.75298e-07
-6.58193e-06
8.11047e-07
-7.33687e-06
7.57217e-07
-8.07322e-06
7.38756e-07
-8.77328e-06
7.01653e-07
-9.43937e-06
6.67538e-07
-1.00902e-05
6.54176e-07
-1.07391e-05
6.51501e-07
-1.13692e-05
6.32183e-07
-1.19744e-05
6.06508e-07
-1.25381e-05
5.64584e-07
-1.30388e-05
5.01649e-07
-1.35099e-05
4.72735e-07
-1.3979e-05
4.72456e-07
-1.4464e-05
4.89797e-07
-1.4992e-05
5.29258e-07
-1.54964e-05
5.05131e-07
-1.58692e-05
3.71142e-07
-1.61419e-05
2.7174e-07
-1.6428e-05
2.88151e-07
-1.68029e-05
3.78493e-07
-1.71919e-05
3.90361e-07
-1.7486e-05
2.94245e-07
-1.76909e-05
2.04939e-07
-1.78665e-05
1.77675e-07
-1.81525e-05
2.88849e-07
-1.84362e-05
2.84521e-07
-1.85616e-05
1.24533e-07
-1.8595e-05
3.43846e-08
-1.86926e-05
9.77085e-08
-1.8868e-05
1.79975e-07
-1.90524e-05
1.83422e-07
-1.90695e-05
1.7117e-08
-1.89579e-05
-1.11633e-07
-1.89275e-05
-3.03599e-08
-1.89989e-05
7.30125e-08
-1.90436e-05
4.83203e-08
-1.91146e-05
6.92406e-08
-1.90034e-05
-1.13713e-07
-1.87473e-05
-2.58009e-07
-1.8589e-05
-1.55854e-07
-1.85622e-05
-2.76696e-08
-1.84567e-05
-1.07608e-07
-1.82087e-05
-2.47998e-07
-1.79785e-05
-2.29995e-07
-1.78352e-05
-1.43368e-07
-1.76524e-05
-1.83536e-07
-1.73886e-05
-2.64122e-07
-1.70493e-05
-3.3955e-07
-1.67591e-05
-2.90379e-07
-1.64897e-05
-2.69703e-07
-1.62125e-05
-2.77704e-07
-1.58852e-05
-3.27392e-07
-1.55774e-05
-3.07662e-07
-1.53493e-05
-2.28392e-07
-1.51303e-05
-2.19566e-07
-1.48617e-05
-2.69177e-07
-1.45037e-05
-3.58883e-07
-1.41407e-05
-3.63565e-07
-1.39234e-05
-2.18741e-07
-1.36714e-05
-2.52982e-07
-1.33705e-05
-3.0187e-07
-1.29698e-05
-4.01831e-07
-1.25387e-05
-4.32247e-07
-1.21925e-05
-3.47105e-07
-1.1816e-05
-3.77691e-07
-1.13968e-05
-4.20302e-07
-1.10027e-05
-3.95152e-07
-1.05763e-05
-4.26669e-07
-1.00958e-05
-4.82557e-07
-9.41539e-06
-6.81434e-07
-8.74729e-06
-6.69007e-07
-7.89093e-06
-8.57281e-07
-6.75779e-06
-1.13353e-06
-5.37682e-06
-1.38108e-06
-4.26029e-06
-1.11647e-06
-3.70969e-06
-5.5192e-07
-3.44556e-06
-2.64231e-07
-3.41627e-06
-2.94038e-08
-3.38506e-06
-3.10351e-08
-3.32178e-06
-6.31818e-08
-3.28403e-06
-3.76465e-08
-3.16051e-06
-1.23326e-07
-3.01985e-06
-1.40284e-07
-2.92864e-06
-9.10525e-08
-2.85294e-06
-7.51889e-08
-2.78514e-06
-6.7355e-08
-2.68597e-06
-9.92382e-08
-2.57191e-06
-1.14544e-07
-2.44373e-06
-1.27964e-07
-2.32434e-06
-1.1888e-07
-2.19029e-06
-1.3402e-07
-2.03087e-06
-1.59211e-07
-1.79961e-06
-2.30988e-07
-1.53093e-06
-2.6829e-07
-1.20906e-06
-3.21266e-07
-9.47319e-07
-2.6117e-07
-8.10143e-07
-1.36644e-07
-7.41446e-07
-6.82101e-08
-7.14602e-07
-2.63902e-08
-6.62375e-07
-5.18677e-08
-6.47004e-07
-1.50649e-08
-6.34774e-07
-1.20006e-08
-5.92182e-07
-4.2362e-08
-5.41264e-07
-5.07509e-08
-5.05026e-07
-3.61002e-08
-4.80875e-07
-2.39782e-08
-4.52277e-07
-2.84013e-08
-4.27022e-07
-2.5025e-08
-3.85703e-07
-4.10682e-08
-3.26226e-07
-5.91982e-08
-2.2763e-07
-9.82975e-08
-9.58242e-08
-1.31442e-07
9.66704e-08
-1.92105e-07
2.40357e-07
-1.43274e-07
2.86251e-07
-4.54984e-08
2.89991e-07
-3.32125e-09
2.51464e-07
3.89412e-08
2.27216e-07
2.46696e-08
1.59218e-07
6.84153e-08
9.70781e-08
6.25644e-08
6.07785e-08
3.67218e-08
2.06057e-08
4.05868e-08
-1.67192e-08
3.77357e-08
-6.44448e-08
4.8129e-08
-1.20961e-07
5.69174e-08
-1.7045e-07
4.98576e-08
-2.12331e-07
4.22539e-08
-2.66002e-07
5.40216e-08
-3.22329e-07
5.66729e-08
-3.7891e-07
5.69129e-08
-4.31555e-07
5.29501e-08
-4.84332e-07
5.30803e-08
-5.48049e-07
6.40036e-08
-6.11621e-07
6.3844e-08
-6.74434e-07
6.3073e-08
-7.33384e-07
5.9171e-08
-8.01569e-07
6.84343e-08
-8.6975e-07
6.83982e-08
-9.37189e-07
6.76392e-08
-1.00534e-06
6.83237e-08
-1.07645e-06
7.12755e-08
-1.14641e-06
7.01055e-08
-1.21408e-06
6.7818e-08
-1.28058e-06
6.6636e-08
-1.35299e-06
7.25077e-08
-1.42424e-06
7.13532e-08
-1.49555e-06
7.14267e-08
-1.56699e-06
7.15478e-08
-1.63279e-06
6.5818e-08
-1.69684e-06
6.41168e-08
-1.76656e-06
6.97784e-08
-1.83677e-06
7.02891e-08
-1.90474e-06
6.80028e-08
-1.96852e-06
6.37715e-08
-2.03174e-06
6.32538e-08
-2.09866e-06
6.6942e-08
-2.16475e-06
6.61123e-08
-2.22779e-06
6.30266e-08
-2.28789e-06
6.01151e-08
-2.35078e-06
6.28884e-08
-2.41366e-06
6.28837e-08
-2.47525e-06
6.15888e-08
-2.53302e-06
5.77678e-08
-2.59131e-06
5.82832e-08
-2.6502e-06
5.88836e-08
-2.70875e-06
5.8554e-08
-2.7646e-06
5.58376e-08
-2.81747e-06
5.28553e-08
-2.87073e-06
5.32502e-08
-2.92453e-06
5.37896e-08
-2.97588e-06
5.13407e-08
-3.02553e-06
4.96372e-08
-3.07344e-06
4.79016e-08
-3.12069e-06
4.72437e-08
-3.16665e-06
4.59544e-08
-3.21126e-06
4.46002e-08
-3.25449e-06
4.32457e-08
-3.2958e-06
4.13227e-08
-3.33577e-06
3.99363e-08
-3.37464e-06
3.88575e-08
-3.41179e-06
3.71681e-08
-3.44693e-06
3.51441e-08
-3.47985e-06
3.29307e-08
-3.51231e-06
3.24659e-08
-3.54334e-06
3.10987e-08
-3.57264e-06
2.93934e-08
-3.59942e-06
2.67294e-08
-3.6252e-06
2.58312e-08
-3.64964e-06
2.4481e-08
-3.6722e-06
2.2619e-08
-3.69312e-06
2.09765e-08
-3.71216e-06
1.91022e-08
-3.73002e-06
1.79228e-08
-3.7462e-06
1.62535e-08
-3.76068e-06
1.45446e-08
-3.7731e-06
1.24635e-08
-3.7843e-06
1.12544e-08
-3.79402e-06
9.7892e-09
-3.80232e-06
8.37155e-09
-3.80894e-06
6.667e-09
-3.81378e-06
4.93443e-09
-3.81681e-06
3.1973e-09
-3.81826e-06
1.45613e-09
-3.81934e-06
1.10629e-09
-3.81838e-06
-8.98775e-10
-3.81582e-06
-2.4954e-09
-3.81148e-06
-4.27325e-09
-3.80624e-06
-5.1615e-09
-3.79959e-06
-6.56765e-09
-3.79154e-06
-7.98397e-09
-3.78202e-06
-9.45405e-09
-3.77074e-06
-1.11916e-08
-3.75882e-06
-1.18158e-08
-3.74567e-06
-1.30712e-08
-3.73125e-06
-1.43332e-08
-3.71566e-06
-1.54965e-08
-3.69861e-06
-1.69575e-08
-3.67967e-06
-1.88616e-08
-3.66038e-06
-1.91983e-08
-3.64009e-06
-2.01845e-08
-3.61882e-06
-2.1153e-08
-3.59647e-06
-2.22433e-08
-3.57301e-06
-2.33491e-08
-3.54841e-06
-2.44871e-08
-3.52278e-06
-2.55134e-08
-3.49639e-06
-2.62611e-08
-3.46911e-06
-2.7152e-08
-3.44097e-06
-2.801e-08
-3.41199e-06
-2.88522e-08
-3.38216e-06
-2.96979e-08
-3.35163e-06
-3.04015e-08
-3.32049e-06
-3.10013e-08
-3.28876e-06
-3.1584e-08
-3.25638e-06
-3.22235e-08
-3.22322e-06
-3.30296e-08
-3.18964e-06
-3.34865e-08
-3.15558e-06
-3.39376e-08
-3.121e-06
-3.44502e-08
-3.08598e-06
-3.48851e-08
-3.05054e-06
-3.53004e-08
-3.01472e-06
-3.56732e-08
-2.97858e-06
-3.59929e-08
-2.94215e-06
-3.62835e-08
-2.90548e-06
-3.65236e-08
-2.86849e-06
-3.68333e-08
-2.83134e-06
-3.70015e-08
-2.79406e-06
-3.71252e-08
-2.75667e-06
-3.72374e-08
-2.71918e-06
-3.73325e-08
-2.68162e-06
-3.73905e-08
-2.64405e-06
-3.74045e-08
-2.60642e-06
-3.74545e-08
-2.56871e-06
-3.75419e-08
-2.53102e-06
-3.75371e-08
-2.49336e-06
-3.74964e-08
-2.45576e-06
-3.74425e-08
-2.41825e-06
-3.73528e-08
-2.38087e-06
-3.72156e-08
-2.34367e-06
-3.70397e-08
-2.30665e-06
-3.68549e-08
-2.26982e-06
-3.66772e-08
-2.23317e-06
-3.64951e-08
-2.19673e-06
-3.62918e-08
-2.1605e-06
-3.60738e-08
-2.12451e-06
-3.58436e-08
-2.08876e-06
-3.5595e-08
-2.0533e-06
-3.53139e-08
-2.01817e-06
-3.4992e-08
-1.98338e-06
-3.46385e-08
-1.94895e-06
-3.42868e-08
-1.91486e-06
-3.39492e-08
-1.88112e-06
-3.3605e-08
-1.84774e-06
-3.32444e-08
-1.81473e-06
-3.28728e-08
-1.7821e-06
-3.24896e-08
-1.74986e-06
-3.21027e-08
-1.71802e-06
-3.17086e-08
-1.68657e-06
-3.13165e-08
-1.6555e-06
-3.09374e-08
-1.6248e-06
-3.05788e-08
-1.59446e-06
-3.02184e-08
-1.56449e-06
-2.9859e-08
-1.53488e-06
-2.94965e-08
-1.50564e-06
-2.91328e-08
-1.47676e-06
-2.87728e-08
-1.44824e-06
-2.84107e-08
-1.4201e-06
-2.8041e-08
-1.39234e-06
-2.76604e-08
-1.36498e-06
-2.72633e-08
-1.33803e-06
-2.68532e-08
-1.31151e-06
-2.64308e-08
-1.28542e-06
-2.5996e-08
-1.25978e-06
-2.55577e-08
-1.23457e-06
-2.51189e-08
-1.2098e-06
-2.46838e-08
-1.18547e-06
-2.42513e-08
-1.16157e-06
-2.38208e-08
-1.13809e-06
-2.3396e-08
-1.11503e-06
-2.29803e-08
-1.09237e-06
-2.2577e-08
-1.0701e-06
-2.21901e-08
-1.04821e-06
-2.18155e-08
-1.02668e-06
-2.14479e-08
-1.00552e-06
-2.10862e-08
-9.84705e-07
-2.07325e-08
-9.64247e-07
-2.0381e-08
-9.44141e-07
-2.00286e-08
-9.24389e-07
-1.96757e-08
-9.04992e-07
-1.93218e-08
-8.8595e-07
-1.89671e-08
-8.67263e-07
-1.8613e-08
-8.48929e-07
-1.82614e-08
-8.30943e-07
-1.79139e-08
-8.133e-07
-1.75713e-08
-7.95996e-07
-1.7234e-08
-7.79028e-07
-1.68998e-08
-7.62392e-07
-1.65684e-08
-7.46085e-07
-1.62398e-08
-7.30105e-07
-1.5915e-08
-7.14446e-07
-1.5595e-08
-6.99107e-07
-1.52761e-08
-6.84091e-07
-1.4954e-08
-6.69404e-07
-1.46255e-08
-6.5505e-07
-1.42948e-08
-6.41019e-07
-1.39722e-08
-6.27295e-07
-1.36658e-08
-6.13863e-07
-1.33753e-08
-6.00712e-07
-1.30962e-08
-5.87829e-07
-1.28281e-08
-5.75199e-07
-1.25769e-08
-5.62801e-07
-1.23455e-08
-5.50625e-07
-1.21246e-08
-5.38675e-07
-1.18989e-08
-5.26964e-07
-1.16628e-08
-5.15492e-07
-1.14231e-08
-5.04256e-07
-1.11869e-08
-4.93258e-07
-1.0952e-08
-4.82498e-07
-1.07132e-08
-4.71979e-07
-1.04739e-08
-4.61689e-07
-1.02446e-08
-4.51614e-07
-1.0031e-08
-4.4174e-07
-9.82956e-09
-4.3206e-07
-9.63639e-09
-4.22564e-07
-9.45318e-09
-4.13241e-07
-9.28021e-09
-4.04088e-07
-9.11114e-09
-3.95106e-07
-8.93972e-09
-3.863e-07
-8.7653e-09
-3.77672e-07
-8.58826e-09
-3.69226e-07
-8.40695e-09
-3.60964e-07
-8.22319e-09
-3.52882e-07
-8.04554e-09
-3.44964e-07
-7.88167e-09
-3.37197e-07
-7.73122e-09
-3.29572e-07
-7.58995e-09
-3.22081e-07
-7.45647e-09
-3.14715e-07
-7.33056e-09
-3.07473e-07
-7.20728e-09
-3.0036e-07
-7.07818e-09
-2.93385e-07
-6.9392e-09
-2.86556e-07
-6.79403e-09
-2.79871e-07
-6.64972e-09
-2.73324e-07
-6.51124e-09
-2.66908e-07
-6.38105e-09
-2.60612e-07
-6.26151e-09
-2.54423e-07
-6.15437e-09
-2.48331e-07
-6.05816e-09
-2.42331e-07
-5.96671e-09
-2.36425e-07
-5.8727e-09
-2.3062e-07
-5.77252e-09
-2.2492e-07
-5.66824e-09
-2.19324e-07
-5.56409e-09
-2.13831e-07
-5.46139e-09
-2.08441e-07
-5.3592e-09
-2.03151e-07
-5.26018e-09
-1.97951e-07
-5.17106e-09
-1.92829e-07
-5.09381e-09
-1.87781e-07
-5.02095e-09
-1.82813e-07
-4.94245e-09
-1.77935e-07
-4.85272e-09
-1.73159e-07
-4.7518e-09
-1.68492e-07
-4.64435e-09
-1.6393e-07
-4.53887e-09
-1.59465e-07
-4.44325e-09
-1.55085e-07
-4.35941e-09
-1.50781e-07
-4.28442e-09
-1.46548e-07
-4.21315e-09
-1.42391e-07
-4.13874e-09
-1.38318e-07
-4.05504e-09
-1.3434e-07
-3.96092e-09
-1.30463e-07
-3.86011e-09
-1.26689e-07
-3.7584e-09
-1.23011e-07
-3.66304e-09
-1.19414e-07
-3.58136e-09
-1.15883e-07
-3.51689e-09
-1.12404e-07
-3.46368e-09
-1.08982e-07
-3.40826e-09
-1.05627e-07
-3.34133e-09
-1.02348e-07
-3.26528e-09
-9.91456e-08
-3.18922e-09
-9.60186e-08
-3.11431e-09
-9.29643e-08
-3.04208e-09
-8.9971e-08
-2.98164e-09
-8.70311e-08
-2.92879e-09
-8.41488e-08
-2.87166e-09
-8.13349e-08
-2.80358e-09
-7.85964e-08
-2.72849e-09
-7.59309e-08
-2.6557e-09
-7.33272e-08
-2.594e-09
-7.07731e-08
-2.54443e-09
-6.82686e-08
-2.49471e-09
-6.5817e-08
-2.44162e-09
-6.34186e-08
-2.38831e-09
-6.10808e-08
-2.32749e-09
-5.8803e-08
-2.26739e-09
-5.65742e-08
-2.21822e-09
-5.43918e-08
-2.17186e-09
-5.22762e-08
-2.10493e-09
-5.02333e-08
-2.0323e-09
-4.82652e-08
-1.95767e-09
-4.6359e-08
-1.89602e-09
-4.44651e-08
-1.88385e-09
-4.2611e-08
-1.84429e-09
-4.07491e-08
-1.8524e-09
-3.89751e-08
-1.76489e-09
-3.72351e-08
-1.7311e-09
-3.55037e-08
-1.72289e-09
-3.3812e-08
-1.68353e-09
-3.20965e-08
-1.70769e-09
-3.0433e-08
-1.65596e-09
-2.88066e-08
-1.61934e-09
-2.72657e-08
-1.53416e-09
-2.57796e-08
-1.47966e-09
-2.43285e-08
-1.44494e-09
-2.29179e-08
-1.40485e-09
-2.15014e-08
-1.41095e-09
-2.01594e-08
-1.33665e-09
-1.8928e-08
-1.22638e-09
-1.7729e-08
-1.19401e-09
-1.65675e-08
-1.15673e-09
-1.53923e-08
-1.1705e-09
-1.42746e-08
-1.11311e-09
-1.32001e-08
-1.06997e-09
-1.21314e-08
-1.06415e-09
-1.10541e-08
-1.07282e-09
-9.96268e-09
-1.08694e-09
-8.96485e-09
-9.93448e-10
-7.95374e-09
-1.00684e-09
-7.05253e-09
-8.97076e-10
-6.19733e-09
-8.51239e-10
-5.45667e-09
-7.36889e-10
-4.69381e-09
-7.593e-10
-3.90802e-09
-7.82415e-10
-3.2536e-09
-6.51209e-10
-2.52818e-09
-7.22337e-10
-1.78888e-09
-7.36322e-10
-1.13773e-09
-6.48243e-10
-5.89803e-10
-5.45054e-10
-2.14347e-10
-3.7263e-10
2.09861e-10
-4.21391e-10
4.99119e-10
-2.86409e-10
8.35272e-10
-3.32968e-10
1.74272e-09
-9.03476e-10
1.96039e-09
-2.10028e-10
2.67761e-09
-7.07934e-10
3.15894e-09
-4.66586e-10
3.33507e-09
-1.51761e-10
3.73384e-09
-3.76645e-10
3.99634e-09
-2.42274e-10
4.21214e-09
-1.97176e-10
4.40213e-09
-1.72798e-10
4.50882e-09
-9.07648e-11
4.51826e-09
5.33491e-12
4.47604e-09
5.59284e-11
4.40179e-09
8.69909e-11
4.29007e-09
1.2356e-10
4.18362e-09
1.17452e-10
4.13428e-09
5.95723e-11
4.13893e-09
4.86021e-12
4.16166e-09
-1.38795e-11
4.17017e-09
-2.91029e-13
4.17245e-09
5.35289e-12
4.19478e-09
-1.52471e-11
4.2677e-09
-6.63624e-11
4.39034e-09
-1.16572e-10
4.53644e-09
-1.40487e-10
4.67494e-09
-1.33315e-10
4.77613e-09
-9.63707e-11
4.82436e-09
-4.37517e-11
4.82397e-09
4.57636e-12
4.78589e-09
4.2011e-11
4.73025e-09
5.93463e-11
4.67568e-09
5.80648e-11
4.64119e-09
3.77845e-11
4.65378e-09
-9.49632e-12
4.73388e-09
-7.71996e-11
4.91825e-09
-1.8166e-10
5.22011e-09
-2.99356e-10
5.6506e-09
-4.28164e-10
6.19669e-09
-5.43951e-10
6.83371e-09
-6.35052e-10
7.52995e-09
-6.94422e-10
8.25344e-09
-7.21795e-10
8.97732e-09
-7.22303e-10
9.68201e-09
-7.03206e-10
1.03505e-08
-6.6704e-10
1.0962e-08
-6.10262e-10
1.14918e-08
-5.28491e-10
1.19189e-08
-4.25934e-10
1.22451e-08
-3.25096e-10
1.24828e-08
-2.36704e-10
1.26759e-08
-1.92154e-10
1.28697e-08
-1.92903e-10
1.31065e-08
-2.36098e-10
1.34208e-08
-3.13601e-10
1.38381e-08
-4.16657e-10
1.43547e-08
-5.1608e-10
1.4931e-08
-5.75841e-10
1.54684e-08
-5.37045e-10
1.58543e-08
-3.85487e-10
1.60544e-08
-1.99775e-10
1.61776e-08
-1.22973e-10
1.64046e-08
-2.26669e-10
1.68452e-08
-4.4034e-10
1.73459e-08
-5.00506e-10
1.76082e-08
-2.62081e-10
1.74451e-08
1.63398e-10
1.70279e-08
4.17419e-10
1.67345e-08
2.93615e-10
1.67996e-08
-6.47917e-11
1.69287e-08
-1.28736e-10
1.67273e-08
2.01894e-10
1.62355e-08
4.9233e-10
1.59412e-08
2.95088e-10
1.61753e-08
-2.33257e-10
1.6535e-08
-3.58526e-10
1.65991e-08
-6.28196e-11
1.66481e-08
-4.73873e-11
1.7149e-08
-4.99104e-10
1.78535e-08
-7.02503e-10
1.80455e-08
-1.89782e-10
1.78661e-08
1.81681e-10
1.78249e-08
4.34406e-11
1.74661e-08
3.61091e-10
1.71753e-08
2.92535e-10
1.35493e-09
-3.77906e-06
9.48608e-07
-4.54557e-06
1.64104e-06
-5.34162e-06
1.62281e-06
-6.17944e-06
1.60746e-06
-6.95438e-06
1.58037e-06
-7.698e-06
1.49462e-06
-8.4176e-06
1.45235e-06
-9.12862e-06
1.40664e-06
-9.81137e-06
1.34414e-06
-1.04665e-05
1.30324e-06
-1.11069e-05
1.28578e-06
-1.17213e-05
1.24079e-06
-1.2307e-05
1.18671e-06
-1.28645e-05
1.11692e-06
-1.34032e-05
1.03541e-06
-1.39272e-05
9.91998e-07
-1.44114e-05
9.53106e-07
-1.48702e-05
9.45648e-07
-1.53085e-05
9.64216e-07
-1.57142e-05
9.09127e-07
-1.60879e-05
7.37036e-07
-1.64409e-05
6.21476e-07
-1.67818e-05
6.29104e-07
-1.7093e-05
6.91015e-07
-1.73586e-05
6.55302e-07
-1.76151e-05
5.48671e-07
-1.78361e-05
4.18893e-07
-1.80536e-05
3.9733e-07
-1.83101e-05
5.44327e-07
-1.85859e-05
5.59988e-07
-1.88213e-05
3.50411e-07
-1.89001e-05
1.25251e-07
-1.88994e-05
9.73257e-08
-1.89042e-05
1.84805e-07
-1.89774e-05
2.56605e-07
-1.9102e-05
1.3522e-07
-1.91574e-05
-5.45959e-08
-1.91084e-05
-7.21302e-08
-1.90296e-05
-5.60185e-09
-1.89784e-05
-2.61096e-09
-1.89859e-05
7.78975e-08
-1.89202e-05
-1.88932e-07
-1.8767e-05
-4.1215e-07
-1.85799e-05
-3.37969e-07
-1.8426e-05
-1.81961e-07
-1.83238e-05
-2.11133e-07
-1.82025e-05
-3.73082e-07
-1.80584e-05
-3.72451e-07
-1.7874e-05
-3.29454e-07
-1.76573e-05
-3.98608e-07
-1.74268e-05
-4.99896e-07
-1.71819e-05
-5.84332e-07
-1.69266e-05
-5.43726e-07
-1.66562e-05
-5.41359e-07
-1.63597e-05
-5.7628e-07
-1.60508e-05
-6.39247e-07
-1.57282e-05
-6.29316e-07
-1.54453e-05
-5.09497e-07
-1.52112e-05
-4.55429e-07
-1.49047e-05
-5.76195e-07
-1.45529e-05
-7.16311e-07
-1.42324e-05
-6.86007e-07
-1.39851e-05
-4.65357e-07
-1.37437e-05
-4.9581e-07
-1.34149e-05
-6.33254e-07
-1.30384e-05
-7.82994e-07
-1.26739e-05
-7.99505e-07
-1.22759e-05
-7.46296e-07
-1.18742e-05
-7.80934e-07
-1.15418e-05
-7.55744e-07
-1.11922e-05
-7.45288e-07
-1.07501e-05
-8.69539e-07
-1.02936e-05
-9.42829e-07
-9.86692e-06
-1.11033e-06
-9.43136e-06
-1.10575e-06
-9.02275e-06
-1.26699e-06
-8.70445e-06
-1.45389e-06
-8.50309e-06
-1.58437e-06
-7.94439e-06
-1.67666e-06
-6.87676e-06
-1.6193e-06
-5.56663e-06
-1.57462e-06
-4.38655e-06
-1.20937e-06
-3.72652e-06
-6.91203e-07
-3.33169e-06
-4.58334e-07
-3.14791e-06
-2.21517e-07
-3.04505e-06
-2.25969e-07
-2.98523e-06
-1.99372e-07
-2.96153e-06
-1.1409e-07
-2.92351e-06
-1.13194e-07
-2.82065e-06
-1.70223e-07
-2.68506e-06
-2.35347e-07
-2.58208e-06
-2.17944e-07
-2.47803e-06
-2.31988e-07
-2.37489e-06
-2.21521e-07
-2.27513e-06
-2.33579e-07
-2.16872e-06
-2.65268e-07
-2.06892e-06
-3.30369e-07
-1.97238e-06
-3.6416e-07
-1.897e-06
-3.95979e-07
-1.73983e-06
-4.17794e-07
-1.49777e-06
-3.77967e-07
-1.18751e-06
-3.77998e-07
-9.24263e-07
-2.89262e-07
-7.75887e-07
-1.99867e-07
-6.55314e-07
-1.35456e-07
-5.83672e-07
-8.34842e-08
-5.32207e-07
-9.36528e-08
-5.04131e-07
-7.87608e-08
-5.11129e-07
-2.88286e-08
-5.17003e-07
-1.7888e-08
-4.83346e-07
-6.17848e-08
-4.5092e-07
-5.71194e-08
-4.18329e-07
-7.3165e-08
-3.93514e-07
-8.35394e-08
-3.82798e-07
-1.08522e-07
-3.69835e-07
-1.43727e-07
-3.75557e-07
-1.85717e-07
-3.35399e-07
-1.82741e-07
-2.30936e-07
-1.49196e-07
-5.04435e-08
-1.83082e-07
1.00192e-07
-1.10949e-07
1.43543e-07
-1.7893e-08
1.60851e-07
5.19054e-08
1.4581e-07
7.83742e-08
1.1636e-07
6.69349e-08
4.14507e-08
1.16263e-07
-2.71624e-08
1.07081e-07
-6.74012e-08
8.90854e-08
-1.12048e-07
1.02256e-07
-1.56406e-07
9.49028e-08
-2.04124e-07
9.06049e-08
-2.59519e-07
1.10073e-07
-3.16155e-07
1.13914e-07
-3.70741e-07
1.12057e-07
-4.25609e-07
1.08407e-07
-4.82925e-07
1.1093e-07
-5.45217e-07
1.268e-07
-6.0597e-07
1.25078e-07
-6.68456e-07
1.26036e-07
-7.32815e-07
1.23917e-07
-8.01136e-07
1.37233e-07
-8.66878e-07
1.34526e-07
-9.32764e-07
1.33875e-07
-1.00302e-06
1.38883e-07
-1.07348e-06
1.42119e-07
-1.14118e-06
1.38192e-07
-1.20908e-06
1.3593e-07
-1.27979e-06
1.37513e-07
-1.35202e-06
1.45078e-07
-1.42124e-06
1.40791e-07
-1.49037e-06
1.40735e-07
-1.5608e-06
1.42235e-07
-1.62884e-06
1.33927e-07
-1.69653e-06
1.31831e-07
-1.76516e-06
1.38683e-07
-1.83425e-06
1.39487e-07
-1.90089e-06
1.3484e-07
-1.96626e-06
1.29117e-07
-2.03174e-06
1.28715e-07
-2.09799e-06
1.33349e-07
-2.16363e-06
1.31889e-07
-2.22754e-06
1.26958e-07
-2.28958e-06
1.22057e-07
-2.35155e-06
1.24955e-07
-2.41445e-06
1.2603e-07
-2.47652e-06
1.23588e-07
-2.53583e-06
1.16914e-07
-2.59356e-06
1.16173e-07
-2.65202e-06
1.17482e-07
-2.71095e-06
1.17471e-07
-2.76628e-06
1.11251e-07
-2.8202e-06
1.06515e-07
-2.8736e-06
1.06924e-07
-2.92783e-06
1.08031e-07
-2.97815e-06
1.01751e-07
-3.02747e-06
9.89536e-08
-3.0767e-06
9.70506e-08
-3.12402e-06
9.45841e-08
-3.16944e-06
9.14034e-08
-3.21349e-06
8.86722e-08
-3.25644e-06
8.63667e-08
-3.29814e-06
8.29591e-08
-3.33867e-06
8.03367e-08
-3.37752e-06
7.78474e-08
-3.41457e-06
7.43603e-08
-3.44965e-06
7.0342e-08
-3.48316e-06
6.64002e-08
-3.51516e-06
6.45445e-08
-3.54578e-06
6.18021e-08
-3.57477e-06
5.8542e-08
-3.6026e-06
5.44909e-08
-3.62882e-06
5.22365e-08
-3.65332e-06
4.90896e-08
-3.67564e-06
4.50634e-08
-3.69631e-06
4.17371e-08
-3.7153e-06
3.82713e-08
-3.73357e-06
3.6256e-08
-3.74977e-06
3.25814e-08
-3.76421e-06
2.90974e-08
-3.77697e-06
2.53568e-08
-3.78798e-06
2.23923e-08
-3.79749e-06
1.94251e-08
-3.80587e-06
1.68688e-08
-3.81228e-06
1.3185e-08
-3.81681e-06
9.76073e-09
-3.82002e-06
6.39607e-09
-3.8221e-06
3.51302e-09
-3.82322e-06
2.43747e-09
-3.82186e-06
-2.05386e-09
-3.8192e-06
-4.96732e-09
-3.81541e-06
-8.02857e-09
-3.8102e-06
-1.02463e-08
-3.80341e-06
-1.32244e-08
-3.79516e-06
-1.60974e-08
-3.7855e-06
-1.89737e-08
-3.77447e-06
-2.20754e-08
-3.76223e-06
-2.39081e-08
-3.7487e-06
-2.64501e-08
-3.73401e-06
-2.88747e-08
-3.7183e-06
-3.10533e-08
-3.70109e-06
-3.39218e-08
-3.6829e-06
-3.69728e-08
-3.66348e-06
-3.84498e-08
-3.64289e-06
-4.05964e-08
-3.62147e-06
-4.23862e-08
-3.5989e-06
-4.46384e-08
-3.57525e-06
-4.6818e-08
-3.55045e-06
-4.89565e-08
-3.52504e-06
-5.08738e-08
-3.49855e-06
-5.25507e-08
-3.47116e-06
-5.43418e-08
-3.44296e-06
-5.60043e-08
-3.41394e-06
-5.76703e-08
-3.38395e-06
-5.9365e-08
-3.35342e-06
-6.08254e-08
-3.32207e-06
-6.21281e-08
-3.29009e-06
-6.33452e-08
-3.25747e-06
-6.46307e-08
-3.2244e-06
-6.5878e-08
-3.19104e-06
-6.66271e-08
-3.1569e-06
-6.78477e-08
-3.12217e-06
-6.8949e-08
-3.08711e-06
-6.97064e-08
-3.05163e-06
-7.05424e-08
-3.01572e-06
-7.13423e-08
-2.97946e-06
-7.20168e-08
-2.94293e-06
-7.25672e-08
-2.90624e-06
-7.29328e-08
-2.86928e-06
-7.35565e-08
-2.83206e-06
-7.39689e-08
-2.79463e-06
-7.42844e-08
-2.75707e-06
-7.4536e-08
-2.71937e-06
-7.47634e-08
-2.68158e-06
-7.49067e-08
-2.64378e-06
-7.49338e-08
-2.60588e-06
-7.49956e-08
-2.56811e-06
-7.50603e-08
-2.53044e-06
-7.49651e-08
-2.49286e-06
-7.48388e-08
-2.4553e-06
-7.47246e-08
-2.41781e-06
-7.45475e-08
-2.38046e-06
-7.43103e-08
-2.34322e-06
-7.40099e-08
-2.30613e-06
-7.36698e-08
-2.26923e-06
-7.33105e-08
-2.23252e-06
-7.29273e-08
-2.19603e-06
-7.25047e-08
-2.1598e-06
-7.20447e-08
-2.12383e-06
-7.15676e-08
-2.08813e-06
-7.1056e-08
-2.05271e-06
-7.04877e-08
-2.0176e-06
-6.98608e-08
-1.98282e-06
-6.91711e-08
-1.94842e-06
-6.845e-08
-1.91435e-06
-6.77787e-08
-1.88062e-06
-6.70981e-08
-1.84725e-06
-6.63872e-08
-1.81423e-06
-6.56709e-08
-1.78155e-06
-6.49436e-08
-1.74923e-06
-6.4204e-08
-1.71729e-06
-6.34402e-08
-1.68573e-06
-6.26602e-08
-1.65456e-06
-6.18917e-08
-1.62379e-06
-6.11534e-08
-1.5934e-06
-6.04152e-08
-1.56339e-06
-5.968e-08
-1.53376e-06
-5.89414e-08
-1.50452e-06
-5.82011e-08
-1.47565e-06
-5.74618e-08
-1.44718e-06
-5.67162e-08
-1.4191e-06
-5.59566e-08
-1.39142e-06
-5.51829e-08
-1.36415e-06
-5.43889e-08
-1.33727e-06
-5.35761e-08
-1.3108e-06
-5.2747e-08
-1.28475e-06
-5.19e-08
-1.25913e-06
-5.10434e-08
-1.23392e-06
-5.01838e-08
-1.20914e-06
-4.93284e-08
-1.18478e-06
-4.84768e-08
-1.16083e-06
-4.76304e-08
-1.1373e-06
-4.67957e-08
-1.11417e-06
-4.59752e-08
-1.09144e-06
-4.51736e-08
-1.0691e-06
-4.4397e-08
-1.04715e-06
-4.36376e-08
-1.02557e-06
-4.28905e-08
-1.00437e-06
-4.2154e-08
-9.83541e-07
-4.14299e-08
-9.63082e-07
-4.07108e-08
-9.42989e-07
-3.99942e-08
-9.23257e-07
-3.92802e-08
-9.03885e-07
-3.85683e-08
-8.84869e-07
-3.78583e-08
-8.66208e-07
-3.71512e-08
-8.47899e-07
-3.64491e-08
-8.29939e-07
-3.57543e-08
-8.12327e-07
-3.50687e-08
-7.95052e-07
-3.43931e-08
-7.78112e-07
-3.37249e-08
-7.61506e-07
-3.30619e-08
-7.45234e-07
-3.24012e-08
-7.29297e-07
-3.17431e-08
-7.13695e-07
-3.10909e-08
-6.9842e-07
-3.04455e-08
-6.83466e-07
-2.98047e-08
-6.68827e-07
-2.91635e-08
-6.54498e-07
-2.85236e-08
-6.40477e-07
-2.78959e-08
-6.26753e-07
-2.7294e-08
-6.13312e-07
-2.67217e-08
-6.00144e-07
-2.61721e-08
-5.87243e-07
-2.56388e-08
-5.74604e-07
-2.51262e-08
-5.62221e-07
-2.46412e-08
-5.50083e-07
-2.41767e-08
-5.38186e-07
-2.37122e-08
-5.2653e-07
-2.3235e-08
-5.15119e-07
-2.27525e-08
-5.03947e-07
-2.2279e-08
-4.93004e-07
-2.18161e-08
-4.82284e-07
-2.13557e-08
-4.71784e-07
-2.08974e-08
-4.61499e-07
-2.04534e-08
-4.51423e-07
-2.00329e-08
-4.41547e-07
-1.96315e-08
-4.31869e-07
-1.92419e-08
-4.22384e-07
-1.88661e-08
-4.13088e-07
-1.85061e-08
-4.03974e-07
-1.81545e-08
-3.95041e-07
-1.78039e-08
-3.86283e-07
-1.74551e-08
-3.77695e-07
-1.71096e-08
-3.69272e-07
-1.67632e-08
-3.61014e-07
-1.64161e-08
-3.52916e-07
-1.60797e-08
-3.44969e-07
-1.5765e-08
-3.37167e-07
-1.54699e-08
-3.29509e-07
-1.5185e-08
-3.21996e-07
-1.49066e-08
-3.14628e-07
-1.46368e-08
-3.074e-07
-1.43727e-08
-3.0031e-07
-1.41053e-08
-2.93358e-07
-1.38296e-08
-2.8654e-07
-1.355e-08
-2.79852e-07
-1.32759e-08
-2.73289e-07
-1.30136e-08
-2.66844e-07
-1.27651e-08
-2.60514e-07
-1.25317e-08
-2.54294e-07
-1.23148e-08
-2.4818e-07
-1.21126e-08
-2.42171e-07
-1.19178e-08
-2.36265e-07
-1.17207e-08
-2.30465e-07
-1.15157e-08
-2.24771e-07
-1.13062e-08
-2.19179e-07
-1.11006e-08
-2.13684e-07
-1.09026e-08
-2.08282e-07
-1.07085e-08
-2.02973e-07
-1.0517e-08
-1.9776e-07
-1.03349e-08
-1.9264e-07
-1.01658e-08
-1.87614e-07
-1.00006e-08
-1.82685e-07
-9.82667e-09
-1.77856e-07
-9.64e-09
-1.73122e-07
-9.44469e-09
-1.68479e-07
-9.24774e-09
-1.63922e-07
-9.05837e-09
-1.59445e-07
-8.8842e-09
-1.55046e-07
-8.72418e-09
-1.50726e-07
-8.57051e-09
-1.46493e-07
-8.41485e-09
-1.4235e-07
-8.25011e-09
-1.38303e-07
-8.07295e-09
-1.34348e-07
-7.88703e-09
-1.30481e-07
-7.6994e-09
-1.26695e-07
-7.51694e-09
-1.22985e-07
-7.34644e-09
-1.19348e-07
-7.19245e-09
-1.15784e-07
-7.05534e-09
-1.12295e-07
-6.92757e-09
-1.08883e-07
-6.79607e-09
-1.05548e-07
-6.65301e-09
-1.02285e-07
-6.50558e-09
-9.90845e-08
-6.36755e-09
-9.5943e-08
-6.23462e-09
-9.28666e-08
-6.09818e-09
-8.98603e-08
-5.96839e-09
-8.69287e-08
-5.84153e-09
-8.40691e-08
-5.7131e-09
-8.12754e-08
-5.57946e-09
-7.85437e-08
-5.44277e-09
-7.58684e-08
-5.31361e-09
-7.32498e-08
-5.1953e-09
-7.06829e-08
-5.09398e-09
-6.81763e-08
-4.98369e-09
-6.57298e-08
-4.87039e-09
-6.33424e-08
-4.75765e-09
-6.10105e-08
-4.64109e-09
-5.87368e-08
-4.52279e-09
-5.65217e-08
-4.41482e-09
-5.43666e-08
-4.30853e-09
-5.22664e-08
-4.18674e-09
-5.0206e-08
-4.07464e-09
-4.81946e-08
-3.95118e-09
-4.61875e-08
-3.88574e-09
-4.42882e-08
-3.76611e-09
-4.24392e-08
-3.67675e-09
-4.06195e-08
-3.65608e-09
-3.88177e-08
-3.55125e-09
-3.70356e-08
-3.49834e-09
-3.53197e-08
-3.42448e-09
-3.36246e-08
-3.36504e-09
-3.19679e-08
-3.35135e-09
-3.03504e-08
-3.26119e-09
-2.87697e-08
-3.18828e-09
-2.72396e-08
-3.05313e-09
-2.57536e-08
-2.95502e-09
-2.43123e-08
-2.87622e-09
-2.29067e-08
-2.80082e-09
-2.15251e-08
-2.78332e-09
-2.0209e-08
-2.64388e-09
-1.89603e-08
-2.46649e-09
-1.77204e-08
-2.42554e-09
-1.65348e-08
-2.33417e-09
-1.53708e-08
-2.32632e-09
-1.42476e-08
-2.22827e-09
-1.3141e-08
-2.16862e-09
-1.20322e-08
-2.16497e-09
-1.09567e-08
-2.14037e-09
-9.93917e-09
-2.09669e-09
-8.99479e-09
-1.93019e-09
-7.99731e-09
-1.99687e-09
-7.08918e-09
-1.798e-09
-6.25718e-09
-1.67627e-09
-5.43777e-09
-1.54958e-09
-4.62567e-09
-1.5649e-09
-3.86101e-09
-1.54075e-09
-3.04532e-09
-1.46068e-09
-2.39132e-09
-1.37014e-09
-1.90358e-09
-1.21786e-09
-1.39051e-09
-1.1551e-09
-1.00949e-09
-9.19903e-10
-6.36757e-10
-7.3945e-10
6.62679e-10
-1.71543e-09
1.2097e-09
-8.27994e-10
1.70554e-09
-8.24992e-10
1.68591e-09
-8.81416e-10
2.05923e-09
-5.85926e-10
2.93954e-09
-1.59459e-09
3.35553e-09
-8.95709e-10
3.86e-09
-6.6948e-10
4.1386e-09
-6.67545e-10
4.31098e-09
-4.25551e-10
4.44273e-09
-3.38277e-10
4.51384e-09
-2.51699e-10
4.54171e-09
-1.24955e-10
4.59616e-09
-5.41047e-11
4.67871e-09
-3.04203e-11
4.74161e-09
2.1335e-11
4.79107e-09
7.22545e-11
4.83432e-09
7.3173e-11
4.86124e-09
3.23304e-11
4.8664e-09
8.86235e-15
4.8458e-09
7.57698e-12
4.82715e-09
1.97059e-11
4.84326e-09
-9.01991e-12
4.91694e-09
-8.68476e-11
5.03628e-09
-1.83372e-10
5.17903e-09
-2.56789e-10
5.32656e-09
-2.85353e-10
5.44609e-09
-2.50104e-10
5.53069e-09
-1.78189e-10
5.57897e-09
-8.92438e-11
5.60455e-09
-1.82625e-11
5.63237e-09
1.68855e-11
5.68083e-09
1.34903e-11
5.76533e-09
-2.39275e-11
5.89631e-09
-9.08074e-11
6.06737e-09
-1.78312e-10
6.28792e-09
-2.95658e-10
6.55149e-09
-4.43299e-10
6.87606e-09
-6.22158e-10
7.23817e-09
-7.88675e-10
7.64116e-09
-9.45498e-10
8.0872e-09
-1.0798e-09
8.57392e-09
-1.17999e-09
9.09779e-09
-1.24464e-09
9.64965e-09
-1.27325e-09
1.02131e-08
-1.26588e-09
1.07631e-08
-1.21626e-09
1.12697e-08
-1.11635e-09
1.17087e-08
-9.67002e-10
1.2075e-08
-7.91765e-10
1.23826e-08
-6.32444e-10
1.26663e-08
-5.20339e-10
1.29506e-08
-4.76364e-10
1.32444e-08
-4.86862e-10
1.35471e-08
-5.39089e-10
1.38687e-08
-6.35547e-10
1.42284e-08
-7.76947e-10
1.46477e-08
-9.36011e-10
1.5103e-08
-1.03196e-09
1.55339e-08
-9.6881e-10
1.5886e-08
-7.38606e-10
1.61621e-08
-4.77116e-10
1.64207e-08
-3.82795e-10
1.67118e-08
-5.19214e-10
1.69956e-08
-7.25693e-10
1.7148e-08
-6.54691e-10
1.7096e-08
-2.12005e-10
1.69384e-08
3.18938e-10
1.68834e-08
4.70127e-10
1.70418e-08
1.32672e-10
1.71809e-08
-2.06601e-10
1.70679e-08
-1.87705e-11
1.67687e-08
4.978e-10
1.6639e-08
6.18488e-10
1.68569e-08
7.32249e-11
1.70205e-08
-4.01003e-10
1.68795e-08
-2.22164e-10
1.67811e-08
3.07529e-11
1.70569e-08
-3.28465e-10
1.72312e-08
-6.7894e-10
1.69863e-08
-4.63408e-10
1.68051e-08
-1.45312e-11
1.6742e-08
2.3855e-10
1.6617e-08
1.62214e-10
1.65921e-08
3.7995e-10
1.68195e-08
5.94752e-11
2.35238e-09
-4.00923e-06
1.73265e-06
-4.89706e-06
2.53293e-06
-5.75422e-06
2.48291e-06
-6.57279e-06
2.42757e-06
-7.32041e-06
2.32964e-06
-8.06205e-06
2.23841e-06
-8.77482e-06
2.16767e-06
-9.47569e-06
2.10927e-06
-1.0158e-05
2.02787e-06
-1.08269e-05
1.9749e-06
-1.14677e-05
1.92981e-06
-1.20832e-05
1.85811e-06
-1.26687e-05
1.77393e-06
-1.32346e-05
1.68288e-06
-1.379e-05
1.59211e-06
-1.43162e-05
1.5196e-06
-1.48135e-05
1.45243e-06
-1.52733e-05
1.4085e-06
-1.56657e-05
1.35933e-06
-1.60217e-05
1.26328e-06
-1.64102e-05
1.12463e-06
-1.6807e-05
1.01961e-06
-1.71569e-05
9.81323e-07
-1.74064e-05
9.44579e-07
-1.7616e-05
8.63907e-07
-1.78368e-05
7.6586e-07
-1.80833e-05
6.65051e-07
-1.8329e-05
6.49476e-07
-1.84911e-05
7.08173e-07
-1.86319e-05
6.9906e-07
-1.88542e-05
5.65277e-07
-1.90368e-05
3.04236e-07
-1.90911e-05
1.51418e-07
-1.9055e-05
1.52569e-07
-1.90472e-05
2.50656e-07
-1.91065e-05
1.96184e-07
-1.92038e-05
3.32993e-08
-1.91969e-05
-8.06551e-08
-1.90539e-05
-1.46657e-07
-1.89529e-05
-9.88639e-08
-1.88369e-05
-3.785e-08
-1.87719e-05
-2.59995e-07
-1.87461e-05
-4.39325e-07
-1.86333e-05
-4.49636e-07
-1.84445e-05
-3.68787e-07
-1.82881e-05
-3.65239e-07
-1.81875e-05
-4.71482e-07
-1.80779e-05
-4.86879e-07
-1.78823e-05
-5.25194e-07
-1.76885e-05
-5.92314e-07
-1.74981e-05
-6.90571e-07