/*--------------------------------*- C++ -*----------------------------------*\
| =========                 |                                                 |
| \\      /  F ield         | OpenFOAM: The Open Source CFD Toolbox           |
|  \\    /   O peration     | Version:  v2006                                 |
|   \\  /    A nd           | Website:  www.openfoam.com                      |
|    \\/     M anipulation  |                                                 |
\*---------------------------------------------------------------------------*/
FoamFile
{
    version     2.0;
    format      ascii;
    class       volScalarField;
    location    "2.1";
    object      k;
}
// * * * * * * * * * * * * * * * * * * * * * * * * * * * * * * * * * * * * * //

dimensions      [0 2 -2 0 0 0 0];


internalField   nonuniform List<scalar> 
33000
(
3.09918e-08
3.09463e-08
3.07799e-08
3.07935e-08
3.08345e-08
3.08766e-08
3.08786e-08
3.08634e-08
3.08656e-08
3.0886e-08
3.09173e-08
3.09461e-08
3.09623e-08
3.09618e-08
3.09516e-08
3.09545e-08
3.09795e-08
3.10253e-08
3.10868e-08
3.11375e-08
3.11581e-08
3.1177e-08
3.12558e-08
3.13782e-08
3.1473e-08
3.15257e-08
3.1573e-08
3.16468e-08
3.17681e-08
3.18503e-08
3.18532e-08
3.18707e-08
3.1988e-08
3.21337e-08
3.22032e-08
3.21819e-08
3.21419e-08
3.22709e-08
3.24277e-08
3.2459e-08
3.24432e-08
3.22848e-08
3.21273e-08
3.21491e-08
3.21629e-08
3.19799e-08
3.17465e-08
3.16414e-08
3.15662e-08
3.13878e-08
3.11678e-08
3.09809e-08
3.08764e-08
3.07766e-08
3.0659e-08
3.05146e-08
3.04043e-08
3.03418e-08
3.02173e-08
3.00249e-08
2.98174e-08
2.96901e-08
2.96376e-08
2.94596e-08
2.92491e-08
2.9011e-08
2.8825e-08
2.86973e-08
2.8485e-08
2.82518e-08
2.80195e-08
2.76868e-08
2.72507e-08
2.66651e-08
2.61104e-08
2.52643e-08
2.41359e-08
2.29377e-08
2.22652e-08
2.16754e-08
2.16901e-08
2.15959e-08
2.17569e-08
2.17615e-08
2.1831e-08
2.1761e-08
2.15266e-08
2.1432e-08
2.13642e-08
2.1314e-08
2.12344e-08
2.1111e-08
2.0955e-08
2.07823e-08
2.06168e-08
2.03319e-08
2.00289e-08
1.94178e-08
1.90263e-08
1.81098e-08
1.81212e-08
1.79247e-08
1.80793e-08
1.7977e-08
1.80131e-08
1.81038e-08
1.80954e-08
1.80421e-08
1.80166e-08
1.80139e-08
1.79995e-08
1.79702e-08
1.79467e-08
1.78292e-08
1.77272e-08
1.73942e-08
1.7252e-08
1.66386e-08
1.67308e-08
1.67023e-08
1.68024e-08
1.6752e-08
1.68081e-08
1.69135e-08
1.69615e-08
1.69978e-08
1.70441e-08
1.70772e-08
1.71329e-08
1.71875e-08
1.72165e-08
1.72504e-08
1.72927e-08
1.73274e-08
1.73585e-08
1.73768e-08
1.74044e-08
1.74351e-08
1.74627e-08
1.74822e-08
1.75009e-08
1.75227e-08
1.75392e-08
1.75513e-08
1.75612e-08
1.75696e-08
1.7574e-08
1.75736e-08
1.7572e-08
1.7571e-08
1.75646e-08
1.75563e-08
1.75428e-08
1.75242e-08
1.75046e-08
1.74871e-08
1.74644e-08
1.74376e-08
1.74049e-08
1.73722e-08
1.73388e-08
1.73003e-08
1.72597e-08
1.72153e-08
1.71694e-08
1.7121e-08
1.70694e-08
1.70139e-08
1.69572e-08
1.68999e-08
1.68379e-08
1.6774e-08
1.67076e-08
1.66377e-08
1.65665e-08
1.64964e-08
1.6427e-08
1.63571e-08
1.6288e-08
1.6219e-08
1.6149e-08
1.60797e-08
1.60112e-08
1.59434e-08
1.5875e-08
1.58074e-08
1.57407e-08
1.56743e-08
1.56068e-08
1.55395e-08
1.54735e-08
1.54085e-08
1.53427e-08
1.52772e-08
1.52125e-08
1.51484e-08
1.50836e-08
1.50189e-08
1.49554e-08
1.48916e-08
1.48283e-08
1.47655e-08
1.47024e-08
1.46393e-08
1.45772e-08
1.45156e-08
1.44542e-08
1.43938e-08
1.43336e-08
1.42727e-08
1.42126e-08
1.4153e-08
1.40927e-08
1.40339e-08
1.39762e-08
1.39179e-08
1.38601e-08
1.3803e-08
1.3746e-08
1.36887e-08
1.36325e-08
1.35771e-08
1.35211e-08
1.34659e-08
1.34112e-08
1.33557e-08
1.33008e-08
1.32464e-08
1.31914e-08
1.31373e-08
1.30837e-08
1.30295e-08
1.29761e-08
1.29223e-08
1.28686e-08
1.28153e-08
1.27614e-08
1.27082e-08
1.26549e-08
1.2602e-08
1.25495e-08
1.24964e-08
1.24438e-08
1.23903e-08
1.23373e-08
1.2284e-08
1.22307e-08
1.21776e-08
1.21244e-08
1.20715e-08
1.20179e-08
1.19651e-08
1.19112e-08
1.18581e-08
1.18043e-08
1.17512e-08
1.16976e-08
1.16441e-08
1.15901e-08
1.15362e-08
1.14817e-08
1.14275e-08
1.13726e-08
1.13182e-08
1.12632e-08
1.12086e-08
1.11536e-08
1.10985e-08
1.10434e-08
1.09893e-08
1.09361e-08
1.08838e-08
1.08327e-08
1.07824e-08
1.07331e-08
1.06847e-08
1.06372e-08
1.05906e-08
1.0545e-08
1.05003e-08
1.04564e-08
1.04134e-08
1.03712e-08
1.03299e-08
1.02894e-08
1.02498e-08
1.02108e-08
1.01726e-08
1.01351e-08
1.00984e-08
1.00624e-08
1.00272e-08
9.99272e-09
9.95891e-09
9.92581e-09
9.89345e-09
9.86189e-09
9.83107e-09
9.80095e-09
9.7715e-09
9.74272e-09
9.7146e-09
9.68715e-09
9.66039e-09
9.63429e-09
9.60878e-09
9.58384e-09
9.55945e-09
9.53562e-09
9.51239e-09
9.48969e-09
9.46748e-09
9.44576e-09
9.42454e-09
9.40387e-09
9.3837e-09
9.364e-09
9.34475e-09
9.32598e-09
9.30772e-09
9.28996e-09
9.27264e-09
9.25576e-09
9.23933e-09
9.22339e-09
9.20789e-09
9.19278e-09
9.17806e-09
9.16373e-09
9.14983e-09
9.13631e-09
9.12312e-09
9.11025e-09
9.09771e-09
9.0855e-09
9.07366e-09
9.06218e-09
9.05099e-09
9.04007e-09
9.02941e-09
9.019e-09
9.00888e-09
8.99907e-09
8.98949e-09
8.98015e-09
8.97102e-09
8.9621e-09
8.95341e-09
8.94499e-09
8.93682e-09
8.92884e-09
8.92103e-09
8.9134e-09
8.90593e-09
8.89861e-09
8.89144e-09
8.88447e-09
8.87769e-09
8.87107e-09
8.8646e-09
8.85827e-09
8.85209e-09
8.84605e-09
8.84014e-09
8.83439e-09
8.82875e-09
8.82322e-09
8.81779e-09
8.81246e-09
8.80725e-09
8.80216e-09
8.79721e-09
8.79238e-09
8.78765e-09
8.78301e-09
8.77846e-09
8.774e-09
8.76963e-09
8.76537e-09
8.76121e-09
8.75714e-09
8.75316e-09
8.74928e-09
8.74549e-09
8.74178e-09
8.73815e-09
8.73458e-09
8.73106e-09
8.7276e-09
8.72422e-09
8.72092e-09
8.71771e-09
8.71459e-09
8.71153e-09
8.70851e-09
8.70552e-09
8.70256e-09
8.69965e-09
8.69681e-09
8.69407e-09
8.69141e-09
8.68881e-09
8.68626e-09
8.68376e-09
8.6813e-09
8.67891e-09
8.67657e-09
8.67431e-09
8.6721e-09
8.66994e-09
8.66782e-09
8.66573e-09
8.66369e-09
8.66172e-09
8.65981e-09
8.65796e-09
8.65616e-09
8.6544e-09
8.6527e-09
8.65104e-09
8.64942e-09
8.64785e-09
8.64627e-09
8.6447e-09
8.64316e-09
8.64169e-09
8.64029e-09
8.63893e-09
8.63776e-09
8.63647e-09
8.63586e-09
8.63462e-09
8.6338e-09
8.63293e-09
8.63211e-09
8.6313e-09
8.63043e-09
8.62965e-09
8.62888e-09
8.62821e-09
8.62767e-09
8.62692e-09
8.62618e-09
8.6255e-09
8.62493e-09
8.62443e-09
8.62389e-09
8.62352e-09
8.62334e-09
8.62328e-09
8.62314e-09
8.623e-09
8.62298e-09
8.6227e-09
8.62255e-09
8.62213e-09
8.62232e-09
8.62221e-09
8.62198e-09
8.62251e-09
8.62233e-09
8.62255e-09
8.62203e-09
8.62128e-09
8.62133e-09
8.62082e-09
8.62039e-09
8.62345e-09
8.622e-09
8.63481e-09
8.63284e-09
8.63515e-09
8.63609e-09
8.63635e-09
8.63632e-09
8.636e-09
8.63535e-09
8.63443e-09
8.63334e-09
8.63218e-09
8.63102e-09
8.63001e-09
8.62921e-09
8.62856e-09
8.62794e-09
8.62731e-09
8.6267e-09
8.62618e-09
8.62579e-09
8.62549e-09
8.62521e-09
8.62491e-09
8.62454e-09
8.6241e-09
8.62362e-09
8.62313e-09
8.62265e-09
8.62221e-09
8.62184e-09
8.62156e-09
8.62139e-09
8.62137e-09
8.62154e-09
8.62188e-09
8.62236e-09
8.62296e-09
8.62364e-09
8.6244e-09
8.62521e-09
8.62604e-09
8.62686e-09
8.62761e-09
8.62821e-09
8.62858e-09
8.62872e-09
8.62871e-09
8.62864e-09
8.62864e-09
8.62886e-09
8.62941e-09
8.63031e-09
8.63146e-09
8.63262e-09
8.63348e-09
8.63379e-09
8.6337e-09
8.6337e-09
8.6343e-09
8.63537e-09
8.6361e-09
8.6358e-09
8.63439e-09
8.63269e-09
8.63181e-09
8.63181e-09
8.6314e-09
8.63001e-09
8.62822e-09
8.62764e-09
8.62852e-09
8.62875e-09
8.62833e-09
8.6289e-09
8.63092e-09
8.63186e-09
8.63127e-09
8.63053e-09
8.62921e-09
8.63067e-09
8.62493e-09
1.03809e-08
1.06618e-08
1.06205e-08
1.05897e-08
1.06017e-08
1.05675e-08
1.05497e-08
1.05276e-08
1.05098e-08
1.0505e-08
1.05073e-08
1.05031e-08
1.04934e-08
1.04745e-08
1.04495e-08
1.04402e-08
1.04437e-08
1.04544e-08
1.04713e-08
1.04623e-08
1.04154e-08
1.03818e-08
1.03876e-08
1.04179e-08
1.04246e-08
1.03953e-08
1.037e-08
1.03657e-08
1.03969e-08
1.03953e-08
1.03498e-08
1.03278e-08
1.03364e-08
1.03578e-08
1.0356e-08
1.03183e-08
1.03031e-08
1.03103e-08
1.03318e-08
1.03273e-08
1.03207e-08
1.02928e-08
1.02798e-08
1.02849e-08
1.02857e-08
1.02702e-08
1.02538e-08
1.02515e-08
1.02513e-08
1.02415e-08
1.02247e-08
1.02125e-08
1.02086e-08
1.02086e-08
1.02091e-08
1.0207e-08
1.02071e-08
1.02125e-08
1.02138e-08
1.02033e-08
1.01928e-08
1.01935e-08
1.01974e-08
1.01876e-08
1.01715e-08
1.01554e-08
1.01455e-08
1.01397e-08
1.01316e-08
1.01261e-08
1.01264e-08
1.01305e-08
1.01383e-08
1.0148e-08
1.01605e-08
1.01692e-08
1.01663e-08
1.01472e-08
1.01217e-08
1.01096e-08
1.01211e-08
1.01566e-08
1.02077e-08
1.02138e-08
1.02025e-08
1.0127e-08
1.01082e-08
1.01142e-08
1.01205e-08
1.01248e-08
1.0109e-08
1.00992e-08
1.00929e-08
1.00862e-08
1.00816e-08
1.00823e-08
1.0082e-08
1.00811e-08
1.00804e-08
1.00795e-08
1.00842e-08
1.01151e-08
1.01424e-08
1.01213e-08
1.01532e-08
1.01418e-08
1.0111e-08
1.00875e-08
1.00978e-08
1.00998e-08
1.00837e-08
1.00806e-08
1.00781e-08
1.00751e-08
1.00766e-08
1.00763e-08
1.00759e-08
1.00743e-08
1.00761e-08
1.01087e-08
1.01413e-08
1.01113e-08
1.0141e-08
1.0137e-08
1.01152e-08
1.01178e-08
1.01132e-08
1.01068e-08
1.0108e-08
1.01033e-08
1.00985e-08
1.01043e-08
1.01032e-08
1.00997e-08
1.00965e-08
1.00952e-08
1.00986e-08
1.00967e-08
1.00951e-08
1.00926e-08
1.00942e-08
1.0092e-08
1.009e-08
1.00896e-08
1.00884e-08
1.00856e-08
1.00832e-08
1.00821e-08
1.00823e-08
1.00798e-08
1.00782e-08
1.00767e-08
1.00733e-08
1.00712e-08
1.00716e-08
1.00704e-08
1.00681e-08
1.00653e-08
1.0064e-08
1.00639e-08
1.00624e-08
1.00601e-08
1.0058e-08
1.00576e-08
1.00568e-08
1.00554e-08
1.0053e-08
1.00518e-08
1.00512e-08
1.00504e-08
1.00484e-08
1.00467e-08
1.00459e-08
1.00453e-08
1.00436e-08
1.00424e-08
1.00415e-08
1.00404e-08
1.00393e-08
1.00383e-08
1.00374e-08
1.00364e-08
1.00355e-08
1.00346e-08
1.00336e-08
1.00326e-08
1.00317e-08
1.0031e-08
1.00303e-08
1.00295e-08
1.00286e-08
1.0028e-08
1.00273e-08
1.00266e-08
1.00259e-08
1.00253e-08
1.00248e-08
1.00242e-08
1.00237e-08
1.00232e-08
1.00227e-08
1.00223e-08
1.0022e-08
1.00215e-08
1.00212e-08
1.00208e-08
1.00204e-08
1.00202e-08
1.00201e-08
1.00199e-08
1.00197e-08
1.00196e-08
1.00195e-08
1.00195e-08
1.00194e-08
1.00193e-08
1.00191e-08
1.0019e-08
1.00188e-08
1.00187e-08
1.00185e-08
1.00184e-08
1.00183e-08
1.00181e-08
1.0018e-08
1.00178e-08
1.00177e-08
1.00175e-08
1.00174e-08
1.00172e-08
1.0017e-08
1.00168e-08
1.00166e-08
1.00164e-08
1.00162e-08
1.0016e-08
1.00158e-08
1.00156e-08
1.00154e-08
1.00151e-08
1.00148e-08
1.00146e-08
1.00143e-08
1.00141e-08
1.00138e-08
1.00135e-08
1.00133e-08
1.0013e-08
1.00127e-08
1.00124e-08
1.00121e-08
1.00118e-08
1.00115e-08
1.00112e-08
1.00109e-08
1.00106e-08
1.00102e-08
1.00099e-08
1.00096e-08
1.00092e-08
1.00089e-08
1.00086e-08
1.00083e-08
1.00079e-08
1.00076e-08
1.00073e-08
1.00069e-08
1.00066e-08
1.00062e-08
1.00059e-08
1.00055e-08
1.00052e-08
1.00048e-08
1.00044e-08
1.00041e-08
1.00037e-08
1.00034e-08
1.0003e-08
1.00027e-08
1.00023e-08
1.0002e-08
1.00017e-08
1.00013e-08
1.0001e-08
1.00007e-08
1.00004e-08
1.00001e-08
9.9998e-09
9.9995e-09
9.99921e-09
9.99892e-09
9.99862e-09
9.99833e-09
9.99803e-09
9.99773e-09
9.99743e-09
9.99713e-09
9.99683e-09
9.99654e-09
9.99625e-09
9.99597e-09
9.99569e-09
9.99542e-09
9.99517e-09
9.99492e-09
9.99467e-09
9.99444e-09
9.99421e-09
9.99398e-09
9.99375e-09
9.99353e-09
9.99331e-09
9.99309e-09
9.99287e-09
9.99266e-09
9.99245e-09
9.99224e-09
9.99203e-09
9.99183e-09
9.99163e-09
9.99144e-09
9.99124e-09
9.99104e-09
9.99084e-09
9.99065e-09
9.99046e-09
9.99028e-09
9.99009e-09
9.9899e-09
9.98973e-09
9.98956e-09
9.9894e-09
9.98925e-09
9.9891e-09
9.98895e-09
9.98882e-09
9.98868e-09
9.98854e-09
9.9884e-09
9.98826e-09
9.98813e-09
9.988e-09
9.98786e-09
9.98774e-09
9.98762e-09
9.9875e-09
9.98739e-09
9.98728e-09
9.98718e-09
9.98707e-09
9.98697e-09
9.98688e-09
9.98678e-09
9.98668e-09
9.98659e-09
9.9865e-09
9.98641e-09
9.98634e-09
9.98626e-09
9.98619e-09
9.98611e-09
9.98604e-09
9.98597e-09
9.9859e-09
9.98582e-09
9.98575e-09
9.98569e-09
9.98563e-09
9.98557e-09
9.98551e-09
9.98546e-09
9.98542e-09
9.98537e-09
9.98532e-09
9.98528e-09
9.98523e-09
9.98519e-09
9.98515e-09
9.98511e-09
9.98507e-09
9.98504e-09
9.98501e-09
9.98497e-09
9.98494e-09
9.9849e-09
9.98487e-09
9.98484e-09
9.98481e-09
9.98478e-09
9.98476e-09
9.98473e-09
9.98471e-09
9.98468e-09
9.98465e-09
9.98462e-09
9.98459e-09
9.98457e-09
9.98455e-09
9.98453e-09
9.98452e-09
9.9845e-09
9.98448e-09
9.98446e-09
9.98445e-09
9.98443e-09
9.98442e-09
9.9844e-09
9.98439e-09
9.98438e-09
9.98437e-09
9.98435e-09
9.98434e-09
9.98433e-09
9.98432e-09
9.98431e-09
9.9843e-09
9.98429e-09
9.98428e-09
9.98427e-09
9.98426e-09
9.98425e-09
9.98424e-09
9.98424e-09
9.98422e-09
9.98422e-09
9.98422e-09
9.98422e-09
9.98423e-09
9.98422e-09
9.98422e-09
9.98421e-09
9.98421e-09
9.98421e-09
9.98421e-09
9.9842e-09
9.98419e-09
9.98418e-09
9.98418e-09
9.98418e-09
9.98418e-09
9.98417e-09
9.98415e-09
9.98415e-09
9.98415e-09
9.98416e-09
9.98415e-09
9.98415e-09
9.98416e-09
9.98416e-09
9.98416e-09
9.98415e-09
9.98416e-09
9.98415e-09
9.98414e-09
9.98413e-09
9.98414e-09
9.98415e-09
9.98413e-09
9.98415e-09
9.98415e-09
9.98411e-09
9.98415e-09
9.98405e-09
9.98426e-09
9.98425e-09
9.98485e-09
9.98496e-09
9.9843e-09
9.98432e-09
9.98442e-09
9.98428e-09
9.9842e-09
9.98417e-09
9.98414e-09
9.98413e-09
9.9841e-09
9.98407e-09
9.98405e-09
9.98403e-09
9.98403e-09
9.98402e-09
9.98404e-09
9.98406e-09
9.98407e-09
9.98406e-09
9.98406e-09
9.98406e-09
9.98407e-09
9.98408e-09
9.98409e-09
9.9841e-09
9.9841e-09
9.98409e-09
9.98409e-09
9.98408e-09
9.98408e-09
9.98408e-09
9.98409e-09
9.9841e-09
9.98413e-09
9.98415e-09
9.98418e-09
9.98419e-09
9.98419e-09
9.98419e-09
9.9842e-09
9.9842e-09
9.9842e-09
9.9842e-09
9.9842e-09
9.9842e-09
9.98419e-09
9.98419e-09
9.98418e-09
9.98418e-09
9.98417e-09
9.98417e-09
9.98418e-09
9.98418e-09
9.98419e-09
9.98419e-09
9.9842e-09
9.9842e-09
9.9842e-09
9.98419e-09
9.98418e-09
9.9842e-09
9.9842e-09
9.9842e-09
9.98421e-09
9.98414e-09
9.98405e-09
9.98409e-09
9.98417e-09
9.9842e-09
9.98415e-09
9.98404e-09
9.98408e-09
9.98418e-09
9.98421e-09
9.98418e-09
9.98418e-09
9.98421e-09
9.98422e-09
9.98421e-09
9.98413e-09
9.98417e-09
9.98407e-09
9.98419e-09
9.98404e-09
1.00249e-08
1.00345e-08
1.00328e-08
1.00326e-08
1.00328e-08
1.00313e-08
1.00305e-08
1.00297e-08
1.00292e-08
1.00289e-08
1.00285e-08
1.00279e-08
1.00274e-08
1.00267e-08
1.00259e-08
1.00255e-08
1.00252e-08
1.00252e-08
1.00253e-08
1.00247e-08
1.00232e-08
1.00222e-08
1.00221e-08
1.00223e-08
1.00218e-08
1.00209e-08
1.00202e-08
1.00204e-08
1.00213e-08
1.00214e-08
1.00201e-08
1.00188e-08
1.00185e-08
1.00187e-08
1.00192e-08
1.00189e-08
1.00187e-08
1.0019e-08
1.00194e-08
1.00196e-08
1.00195e-08
1.00188e-08
1.00184e-08
1.00185e-08
1.00186e-08
1.00182e-08
1.00177e-08
1.00174e-08
1.00171e-08
1.00165e-08
1.00159e-08
1.00154e-08
1.00151e-08
1.0015e-08
1.00148e-08
1.00147e-08
1.00147e-08
1.00149e-08
1.00149e-08
1.00148e-08
1.00147e-08
1.0015e-08
1.00154e-08
1.00155e-08
1.00154e-08
1.00154e-08
1.00157e-08
1.00159e-08
1.00162e-08
1.00164e-08
1.00167e-08
1.0017e-08
1.00173e-08
1.00175e-08
1.00176e-08
1.00176e-08
1.00175e-08
1.00174e-08
1.00174e-08
1.0018e-08
1.00189e-08
1.00201e-08
1.00217e-08
1.00228e-08
1.00221e-08
1.00203e-08
1.00196e-08
1.00196e-08
1.00184e-08
1.00166e-08
1.00149e-08
1.00154e-08
1.00155e-08
1.00149e-08
1.00154e-08
1.00152e-08
1.00149e-08
1.00149e-08
1.00148e-08
1.00147e-08
1.00147e-08
1.00148e-08
1.0015e-08
1.00152e-08
1.00159e-08
1.00159e-08
1.00152e-08
1.0015e-08
1.00152e-08
1.0015e-08
1.00146e-08
1.00144e-08
1.0014e-08
1.0014e-08
1.0014e-08
1.00139e-08
1.00138e-08
1.00138e-08
1.00138e-08
1.00139e-08
1.00141e-08
1.00146e-08
1.00159e-08
1.00158e-08
1.00146e-08
1.00149e-08
1.00145e-08
1.00141e-08
1.00139e-08
1.00138e-08
1.00135e-08
1.00136e-08
1.00138e-08
1.00137e-08
1.00134e-08
1.00133e-08
1.00132e-08
1.00131e-08
1.0013e-08
1.00129e-08
1.00128e-08
1.00127e-08
1.00125e-08
1.00124e-08
1.00124e-08
1.00122e-08
1.00121e-08
1.0012e-08
1.0012e-08
1.00119e-08
1.00119e-08
1.00119e-08
1.00118e-08
1.00117e-08
1.00117e-08
1.00117e-08
1.00116e-08
1.00116e-08
1.00115e-08
1.00115e-08
1.00114e-08
1.00114e-08
1.00113e-08
1.00112e-08
1.00111e-08
1.00111e-08
1.0011e-08
1.0011e-08
1.00109e-08
1.00109e-08
1.00108e-08
1.00107e-08
1.00106e-08
1.00106e-08
1.00106e-08
1.00105e-08
1.00104e-08
1.00104e-08
1.00104e-08
1.00103e-08
1.00103e-08
1.00102e-08
1.00102e-08
1.00102e-08
1.00101e-08
1.00101e-08
1.001e-08
1.001e-08
1.00099e-08
1.00099e-08
1.00098e-08
1.00098e-08
1.00097e-08
1.00097e-08
1.00096e-08
1.00095e-08
1.00095e-08
1.00095e-08
1.00094e-08
1.00094e-08
1.00093e-08
1.00093e-08
1.00092e-08
1.00092e-08
1.00091e-08
1.00091e-08
1.0009e-08
1.00089e-08
1.00089e-08
1.00089e-08
1.00088e-08
1.00088e-08
1.00088e-08
1.00088e-08
1.00088e-08
1.00087e-08
1.00087e-08
1.00086e-08
1.00086e-08
1.00085e-08
1.00085e-08
1.00084e-08
1.00083e-08
1.00083e-08
1.00082e-08
1.00082e-08
1.00081e-08
1.00081e-08
1.0008e-08
1.0008e-08
1.00079e-08
1.00078e-08
1.00078e-08
1.00077e-08
1.00077e-08
1.00076e-08
1.00075e-08
1.00075e-08
1.00074e-08
1.00073e-08
1.00073e-08
1.00072e-08
1.00072e-08
1.00071e-08
1.00071e-08
1.0007e-08
1.00069e-08
1.00069e-08
1.00068e-08
1.00068e-08
1.00067e-08
1.00067e-08
1.00066e-08
1.00066e-08
1.00065e-08
1.00065e-08
1.00064e-08
1.00064e-08
1.00063e-08
1.00063e-08
1.00062e-08
1.00062e-08
1.00061e-08
1.00061e-08
1.0006e-08
1.0006e-08
1.00059e-08
1.00059e-08
1.00058e-08
1.00058e-08
1.00057e-08
1.00057e-08
1.00056e-08
1.00056e-08
1.00055e-08
1.00055e-08
1.00054e-08
1.00054e-08
1.00053e-08
1.00053e-08
1.00053e-08
1.00052e-08
1.00052e-08
1.00051e-08
1.00051e-08
1.0005e-08
1.0005e-08
1.00049e-08
1.00049e-08
1.00048e-08
1.00048e-08
1.00047e-08
1.00047e-08
1.00046e-08
1.00046e-08
1.00045e-08
1.00045e-08
1.00044e-08
1.00043e-08
1.00043e-08
1.00042e-08
1.00042e-08
1.00041e-08
1.00041e-08
1.0004e-08
1.00039e-08
1.00039e-08
1.00038e-08
1.00038e-08
1.00037e-08
1.00037e-08
1.00036e-08
1.00036e-08
1.00035e-08
1.00034e-08
1.00034e-08
1.00033e-08
1.00033e-08
1.00032e-08
1.00031e-08
1.00031e-08
1.0003e-08
1.00029e-08
1.00029e-08
1.00028e-08
1.00028e-08
1.00027e-08
1.00026e-08
1.00026e-08
1.00025e-08
1.00024e-08
1.00024e-08
1.00023e-08
1.00022e-08
1.00021e-08
1.00021e-08
1.0002e-08
1.00019e-08
1.00019e-08
1.00018e-08
1.00017e-08
1.00017e-08
1.00016e-08
1.00015e-08
1.00015e-08
1.00014e-08
1.00013e-08
1.00013e-08
1.00012e-08
1.00011e-08
1.0001e-08
1.0001e-08
1.00009e-08
1.00009e-08
1.00008e-08
1.00007e-08
1.00007e-08
1.00006e-08
1.00006e-08
1.00005e-08
1.00004e-08
1.00004e-08
1.00003e-08
1.00002e-08
1.00002e-08
1.00001e-08
1.00001e-08
1e-08
9.99999e-09
9.99994e-09
9.99989e-09
9.99984e-09
9.99979e-09
9.99975e-09
9.99971e-09
9.99967e-09
9.99963e-09
9.99959e-09
9.99955e-09
9.99951e-09
9.99947e-09
9.99943e-09
9.99939e-09
9.99936e-09
9.99932e-09
9.99929e-09
9.99926e-09
9.99923e-09
9.9992e-09
9.99917e-09
9.99913e-09
9.9991e-09
9.99907e-09
9.99904e-09
9.99901e-09
9.99899e-09
9.99896e-09
9.99893e-09
9.9989e-09
9.99887e-09
9.99885e-09
9.99882e-09
9.9988e-09
9.99878e-09
9.99876e-09
9.99874e-09
9.99871e-09
9.99868e-09
9.99866e-09
9.99864e-09
9.99862e-09
9.9986e-09
9.99858e-09
9.99856e-09
9.99854e-09
9.99852e-09
9.9985e-09
9.99847e-09
9.99845e-09
9.99845e-09
9.99844e-09
9.99845e-09
9.99843e-09
9.99845e-09
9.99843e-09
9.99838e-09
9.99837e-09
9.99834e-09
9.99833e-09
9.99828e-09
9.99827e-09
9.99827e-09
9.99825e-09
9.99824e-09
9.99824e-09
9.99822e-09
9.99821e-09
9.99819e-09
9.99818e-09
9.99818e-09
9.99816e-09
9.99815e-09
9.99815e-09
9.99814e-09
9.99813e-09
9.99811e-09
9.9981e-09
9.99809e-09
9.99807e-09
9.99804e-09
9.99804e-09
9.99805e-09
9.99809e-09
9.99808e-09
9.99805e-09
9.99803e-09
9.998e-09
9.99796e-09
9.99817e-09
9.99809e-09
9.9991e-09
9.999e-09
1e-08
1.00003e-08
9.99883e-09
9.99879e-09
9.99864e-09
9.99852e-09
9.99833e-09
9.99815e-09
9.99797e-09
9.99798e-09
9.99797e-09
9.99794e-09
9.99794e-09
9.99794e-09
9.99792e-09
9.99793e-09
9.99794e-09
9.99794e-09
9.99795e-09
9.99798e-09
9.99803e-09
9.99805e-09
9.99802e-09
9.99797e-09
9.99795e-09
9.99795e-09
9.99797e-09
9.998e-09
9.99804e-09
9.99806e-09
9.99806e-09
9.99804e-09
9.998e-09
9.99798e-09
9.99798e-09
9.99799e-09
9.998e-09
9.99801e-09
9.99802e-09
9.99801e-09
9.998e-09
9.99798e-09
9.99797e-09
9.99797e-09
9.99799e-09
9.99801e-09
9.99803e-09
9.99804e-09
9.99803e-09
9.99802e-09
9.998e-09
9.99799e-09
9.99798e-09
9.99798e-09
9.99797e-09
9.99796e-09
9.99795e-09
9.99796e-09
9.99798e-09
9.998e-09
9.99803e-09
9.99806e-09
9.99801e-09
9.99796e-09
9.99796e-09
9.99797e-09
9.99803e-09
9.99806e-09
9.99796e-09
9.99799e-09
9.998e-09
9.99798e-09
9.99816e-09
9.99799e-09
9.99804e-09
9.99802e-09
9.99808e-09
9.9983e-09
9.99801e-09
9.99803e-09
9.99819e-09
9.99844e-09
9.99799e-09
9.99794e-09
9.99802e-09
9.99823e-09
9.99885e-09
9.99869e-09
1.0027e-08
1.00253e-08
1.00241e-08
1.00241e-08
1.00237e-08
1.00237e-08
1.00237e-08
1.00235e-08
1.00231e-08
1.00224e-08
1.00219e-08
1.00216e-08
1.00213e-08
1.00206e-08
1.00198e-08
1.00192e-08
1.00188e-08
1.00185e-08
1.0018e-08
1.00175e-08
1.00173e-08
1.0017e-08
1.00166e-08
1.00162e-08
1.0016e-08
1.00157e-08
1.00155e-08
1.00154e-08
1.00154e-08
1.00156e-08
1.00158e-08
1.00159e-08
1.0016e-08
1.00161e-08
1.00162e-08
1.00163e-08
1.00164e-08
1.00165e-08
1.00165e-08
1.00165e-08
1.00164e-08
1.00163e-08
1.00162e-08
1.0016e-08
1.00158e-08
1.00156e-08
1.00154e-08
1.00151e-08
1.00149e-08
1.00147e-08
1.00145e-08
1.00144e-08
1.00143e-08
1.00141e-08
1.00139e-08
1.00136e-08
1.00133e-08
1.00129e-08
1.00126e-08
1.00123e-08
1.00121e-08
1.0012e-08
1.00119e-08
1.00119e-08
1.0012e-08
1.00122e-08
1.00124e-08
1.00125e-08
1.00127e-08
1.00129e-08
1.00131e-08
1.00134e-08
1.00135e-08
1.00136e-08
1.00137e-08
1.00138e-08
1.00134e-08
1.00134e-08
1.00132e-08
1.0013e-08
1.00141e-08
1.00149e-08
1.00156e-08
1.00164e-08
1.00171e-08
1.00188e-08
1.00204e-08
1.00213e-08
1.00206e-08
1.00188e-08
1.00176e-08
1.00165e-08
1.00158e-08
1.00143e-08
1.00147e-08
1.00148e-08
1.00149e-08
1.00148e-08
1.00147e-08
1.00145e-08
1.00145e-08
1.00146e-08
1.00145e-08
1.00146e-08
1.00146e-08
1.00147e-08
1.00148e-08
1.0015e-08
1.00152e-08
1.0015e-08
1.00146e-08
1.00144e-08
1.00142e-08
1.00141e-08
1.0014e-08
1.00139e-08
1.00137e-08
1.00137e-08
1.00136e-08
1.00136e-08
1.00136e-08
1.00136e-08
1.00136e-08
1.00138e-08
1.00141e-08
1.00146e-08
1.00143e-08
1.00135e-08
1.00134e-08
1.00131e-08
1.0013e-08
1.00128e-08
1.00127e-08
1.00125e-08
1.00124e-08
1.00124e-08
1.00125e-08
1.00125e-08
1.00123e-08
1.00122e-08
1.00122e-08
1.00121e-08
1.0012e-08
1.00119e-08
1.00118e-08
1.00117e-08
1.00117e-08
1.00116e-08
1.00115e-08
1.00115e-08
1.00115e-08
1.00115e-08
1.00114e-08
1.00114e-08
1.00114e-08
1.00113e-08
1.00113e-08
1.00113e-08
1.00112e-08
1.00112e-08
1.00111e-08
1.00111e-08
1.0011e-08
1.00109e-08
1.00109e-08
1.00109e-08
1.00108e-08
1.00107e-08
1.00106e-08
1.00106e-08
1.00106e-08
1.00105e-08
1.00104e-08
1.00104e-08
1.00104e-08
1.00103e-08
1.00102e-08
1.00102e-08
1.00102e-08
1.00101e-08
1.00101e-08
1.001e-08
1.001e-08
1.00099e-08
1.00099e-08
1.00098e-08
1.00098e-08
1.00097e-08
1.00097e-08
1.00096e-08
1.00096e-08
1.00095e-08
1.00095e-08
1.00095e-08
1.00094e-08
1.00093e-08
1.00093e-08
1.00093e-08
1.00092e-08
1.00092e-08
1.00091e-08
1.0009e-08
1.0009e-08
1.0009e-08
1.00089e-08
1.00089e-08
1.00088e-08
1.00088e-08
1.00087e-08
1.00086e-08
1.00086e-08
1.00086e-08
1.00086e-08
1.00085e-08
1.00085e-08
1.00084e-08
1.00084e-08
1.00083e-08
1.00082e-08
1.00082e-08
1.00081e-08
1.00081e-08
1.0008e-08
1.0008e-08
1.00079e-08
1.00079e-08
1.00078e-08
1.00078e-08
1.00077e-08
1.00076e-08
1.00076e-08
1.00075e-08
1.00075e-08
1.00074e-08
1.00074e-08
1.00073e-08
1.00072e-08
1.00072e-08
1.00071e-08
1.00071e-08
1.00071e-08
1.0007e-08
1.00069e-08
1.00069e-08
1.00068e-08
1.00068e-08
1.00067e-08
1.00067e-08
1.00066e-08
1.00066e-08
1.00065e-08
1.00065e-08
1.00064e-08
1.00064e-08
1.00063e-08
1.00063e-08
1.00062e-08
1.00062e-08
1.00061e-08
1.00061e-08
1.0006e-08
1.0006e-08
1.00059e-08
1.00059e-08
1.00059e-08
1.00058e-08
1.00058e-08
1.00057e-08
1.00057e-08
1.00056e-08
1.00056e-08
1.00055e-08
1.00055e-08
1.00054e-08
1.00054e-08
1.00053e-08
1.00053e-08
1.00052e-08
1.00052e-08
1.00051e-08
1.00051e-08
1.00051e-08
1.0005e-08
1.0005e-08
1.00049e-08
1.00049e-08
1.00048e-08
1.00048e-08
1.00047e-08
1.00047e-08
1.00046e-08
1.00046e-08
1.00045e-08
1.00045e-08
1.00044e-08
1.00044e-08
1.00043e-08
1.00043e-08
1.00042e-08
1.00042e-08
1.00041e-08
1.00041e-08
1.0004e-08
1.0004e-08
1.00039e-08
1.00039e-08
1.00038e-08
1.00038e-08
1.00037e-08
1.00037e-08
1.00036e-08
1.00036e-08
1.00035e-08
1.00034e-08
1.00034e-08
1.00033e-08
1.00033e-08
1.00032e-08
1.00032e-08
1.00031e-08
1.0003e-08
1.0003e-08
1.00029e-08
1.00029e-08
1.00028e-08
1.00027e-08
1.00027e-08
1.00026e-08
1.00026e-08
1.00025e-08
1.00024e-08
1.00024e-08
1.00023e-08
1.00022e-08
1.00022e-08
1.00021e-08
1.0002e-08
1.0002e-08
1.00019e-08
1.00019e-08
1.00018e-08
1.00017e-08
1.00017e-08
1.00016e-08
1.00015e-08
1.00015e-08
1.00014e-08
1.00013e-08
1.00013e-08
1.00012e-08
1.00012e-08
1.00011e-08
1.0001e-08
1.0001e-08
1.00009e-08
1.00009e-08
1.00008e-08
1.00008e-08
1.00007e-08
1.00006e-08
1.00006e-08
1.00005e-08
1.00005e-08
1.00004e-08
1.00004e-08
1.00003e-08
1.00003e-08
1.00002e-08
1.00002e-08
1.00001e-08
1.00001e-08
1e-08
9.99998e-09
9.99993e-09
9.99989e-09
9.99985e-09
9.99982e-09
9.99978e-09
9.99974e-09
9.9997e-09
9.99966e-09
9.99962e-09
9.99958e-09
9.99955e-09
9.99952e-09
9.99949e-09
9.99946e-09
9.99942e-09
9.99939e-09
9.99935e-09
9.99932e-09
9.99929e-09
9.99926e-09
9.99924e-09
9.99921e-09
9.99919e-09
9.99916e-09
9.99913e-09
9.9991e-09
9.99907e-09
9.99905e-09
9.99902e-09
9.999e-09
9.99898e-09
9.99896e-09
9.99893e-09
9.99891e-09
9.99888e-09
9.99886e-09
9.99884e-09
9.99883e-09
9.99881e-09
9.99879e-09
9.99877e-09
9.99874e-09
9.99871e-09
9.99871e-09
9.99869e-09
9.9987e-09
9.99869e-09
9.99871e-09
9.99869e-09
9.99865e-09
9.99863e-09
9.9986e-09
9.99858e-09
9.99854e-09
9.99853e-09
9.99852e-09
9.9985e-09
9.99849e-09
9.99847e-09
9.99846e-09
9.99845e-09
9.99844e-09
9.99843e-09
9.99842e-09
9.9984e-09
9.99838e-09
9.99838e-09
9.99838e-09
9.99839e-09
9.99838e-09
9.99836e-09
9.99834e-09
9.99832e-09
9.9983e-09
9.99829e-09
9.99828e-09
9.99828e-09
9.99835e-09
9.99832e-09
9.99827e-09
9.99824e-09
9.9982e-09
9.99839e-09
9.99846e-09
9.99934e-09
9.99929e-09
1.00005e-08
1.00006e-08
9.99921e-09
9.9991e-09
9.99888e-09
9.99887e-09
9.99849e-09
9.99834e-09
9.99822e-09
9.99823e-09
9.99834e-09
9.99827e-09
9.99823e-09
9.99822e-09
9.99819e-09
9.99816e-09
9.99814e-09
9.99813e-09
9.99814e-09
9.99815e-09
9.99815e-09
9.99817e-09
9.9982e-09
9.99823e-09
9.99822e-09
9.99818e-09
9.99816e-09
9.99815e-09
9.99816e-09
9.9982e-09
9.99825e-09
9.99829e-09
9.9983e-09
9.99826e-09
9.99822e-09
9.99817e-09
9.99816e-09
9.99816e-09
9.99818e-09
9.99819e-09
9.9982e-09
9.99819e-09
9.99818e-09
9.99818e-09
9.99817e-09
9.99816e-09
9.99816e-09
9.99817e-09
9.99819e-09
9.99822e-09
9.99824e-09
9.99825e-09
9.99825e-09
9.99823e-09
9.99821e-09
9.9982e-09
9.99819e-09
9.99818e-09
9.99816e-09
9.99815e-09
9.99816e-09
9.99819e-09
9.99821e-09
9.99826e-09
9.99829e-09
9.99822e-09
9.99816e-09
9.99817e-09
9.9982e-09
9.99823e-09
9.9982e-09
9.99816e-09
9.99819e-09
9.99817e-09
9.99825e-09
9.9982e-09
9.99823e-09
9.9983e-09
9.9982e-09
9.99848e-09
9.99825e-09
9.99831e-09
9.99854e-09
9.9987e-09
9.99829e-09
9.99818e-09
9.99819e-09
9.99821e-09
9.99844e-09
9.9996e-09
9.99905e-09
1.00242e-08
1.00224e-08
1.00213e-08
1.00214e-08
1.00213e-08
1.00215e-08
1.00215e-08
1.00212e-08
1.00212e-08
1.00211e-08
1.00209e-08
1.00209e-08
1.00209e-08
1.00207e-08
1.00206e-08
1.00206e-08
1.00205e-08
1.00205e-08
1.00204e-08
1.00201e-08
1.00199e-08
1.00199e-08
1.00199e-08
1.00199e-08
1.00197e-08
1.00194e-08
1.00191e-08
1.00187e-08
1.00185e-08
1.00184e-08
1.00185e-08
1.00185e-08
1.00186e-08
1.00188e-08
1.00189e-08
1.0019e-08
1.00191e-08
1.00191e-08
1.0019e-08
1.00189e-08
1.00188e-08
1.00186e-08
1.00184e-08
1.00182e-08
1.00179e-08
1.00177e-08
1.00175e-08
1.00172e-08
1.0017e-08
1.00169e-08
1.00168e-08
1.00168e-08
1.00167e-08
1.00167e-08
1.00165e-08
1.00162e-08
1.00159e-08
1.00155e-08
1.0015e-08
1.00146e-08
1.00143e-08
1.0014e-08
1.00138e-08
1.00136e-08
1.00136e-08
1.00137e-08
1.00137e-08
1.00137e-08
1.00137e-08
1.00138e-08
1.00139e-08
1.0014e-08
1.00141e-08
1.00142e-08
1.00142e-08
1.00141e-08
1.0014e-08
1.00137e-08
1.00132e-08
1.0013e-08
1.0013e-08
1.00132e-08
1.00135e-08
1.00139e-08
1.00146e-08
1.00156e-08
1.00165e-08
1.00173e-08
1.00183e-08
1.002e-08
1.00213e-08
1.00204e-08
1.00187e-08
1.00173e-08
1.00159e-08
1.00152e-08
1.00142e-08
1.00143e-08
1.00142e-08
1.00141e-08
1.00141e-08
1.00141e-08
1.0014e-08
1.00139e-08
1.0014e-08
1.00141e-08
1.00143e-08
1.00144e-08
1.00144e-08
1.00145e-08
1.00147e-08
1.0015e-08
1.00147e-08
1.00143e-08
1.00141e-08
1.00139e-08
1.00138e-08
1.00137e-08
1.00136e-08
1.00134e-08
1.00132e-08
1.00133e-08
1.00133e-08
1.00133e-08
1.00134e-08
1.00134e-08
1.00137e-08
1.00139e-08
1.00145e-08
1.00141e-08
1.00134e-08
1.00132e-08
1.00129e-08
1.00128e-08
1.00125e-08
1.00122e-08
1.00122e-08
1.00121e-08
1.00121e-08
1.00123e-08
1.00122e-08
1.00121e-08
1.0012e-08
1.00119e-08
1.00118e-08
1.00118e-08
1.00117e-08
1.00116e-08
1.00116e-08
1.00115e-08
1.00115e-08
1.00115e-08
1.00114e-08
1.00114e-08
1.00114e-08
1.00113e-08
1.00113e-08
1.00112e-08
1.00112e-08
1.00112e-08
1.00111e-08
1.00111e-08
1.0011e-08
1.00109e-08
1.00109e-08
1.00108e-08
1.00108e-08
1.00107e-08
1.00107e-08
1.00106e-08
1.00106e-08
1.00105e-08
1.00104e-08
1.00104e-08
1.00104e-08
1.00103e-08
1.00103e-08
1.00102e-08
1.00102e-08
1.00101e-08
1.00101e-08
1.001e-08
1.001e-08
1.00099e-08
1.00099e-08
1.00098e-08
1.00098e-08
1.00097e-08
1.00097e-08
1.00096e-08
1.00096e-08
1.00095e-08
1.00095e-08
1.00095e-08
1.00094e-08
1.00093e-08
1.00093e-08
1.00093e-08
1.00092e-08
1.00092e-08
1.00091e-08
1.0009e-08
1.0009e-08
1.00089e-08
1.00089e-08
1.00089e-08
1.00088e-08
1.00087e-08
1.00087e-08
1.00086e-08
1.00086e-08
1.00085e-08
1.00085e-08
1.00084e-08
1.00084e-08
1.00083e-08
1.00082e-08
1.00082e-08
1.00081e-08
1.00081e-08
1.0008e-08
1.0008e-08
1.00079e-08
1.00079e-08
1.00078e-08
1.00078e-08
1.00077e-08
1.00077e-08
1.00076e-08
1.00076e-08
1.00075e-08
1.00075e-08
1.00074e-08
1.00074e-08
1.00073e-08
1.00073e-08
1.00072e-08
1.00072e-08
1.00071e-08
1.00071e-08
1.0007e-08
1.0007e-08
1.00069e-08
1.00069e-08
1.00068e-08
1.00068e-08
1.00067e-08
1.00067e-08
1.00066e-08
1.00066e-08
1.00065e-08
1.00064e-08
1.00064e-08