/*--------------------------------*- C++ -*----------------------------------*\
| =========                 |                                                 |
| \\      /  F ield         | OpenFOAM: The Open Source CFD Toolbox           |
|  \\    /   O peration     | Version:  v2006                                 |
|   \\  /    A nd           | Website:  www.openfoam.com                      |
|    \\/     M anipulation  |                                                 |
\*---------------------------------------------------------------------------*/
FoamFile
{
    version     2.0;
    format      ascii;
    class       volScalarField;
    location    "2.1";
    object      nut;
}
// * * * * * * * * * * * * * * * * * * * * * * * * * * * * * * * * * * * * * //

dimensions      [0 2 -1 0 0 0 0];


internalField   nonuniform List<scalar> 
33000
(
7.40207e-09
1.04031e-08
1.56416e-08
2.25078e-08
2.0011e-08
1.70927e-08
1.50865e-08
1.3297e-08
1.1954e-08
1.08337e-08
9.8711e-09
9.07615e-09
8.41583e-09
7.85715e-09
7.42813e-09
7.07618e-09
6.74795e-09
6.45338e-09
6.15e-09
5.84371e-09
5.63225e-09
5.53816e-09
5.45471e-09
5.30142e-09
5.11746e-09
4.98595e-09
4.91853e-09
4.89413e-09
4.80665e-09
4.65876e-09
4.5782e-09
4.59379e-09
4.60107e-09
4.54845e-09
4.45581e-09
4.40167e-09
4.44633e-09
4.49459e-09
4.46772e-09
4.4336e-09
4.38312e-09
4.33989e-09
4.39885e-09
4.47934e-09
4.4442e-09
4.38934e-09
4.41039e-09
4.47088e-09
4.47379e-09
4.44955e-09
4.46199e-09
4.5217e-09
4.58849e-09
4.62307e-09
4.65855e-09
4.72281e-09
4.81851e-09
4.87923e-09
4.89635e-09
4.91899e-09
4.99226e-09
5.13849e-09
5.21504e-09
5.21627e-09
5.25952e-09
5.34643e-09
5.51705e-09
5.65161e-09
5.72904e-09
5.88004e-09
6.02316e-09
6.11136e-09
6.16545e-09
6.30629e-09
6.48361e-09
6.39156e-09
6.43972e-09
6.70901e-09
8.45244e-09
1.00796e-08
1.06623e-08
1.21954e-08
1.26459e-08
1.48065e-08
1.63418e-08
1.66077e-08
1.73823e-08
1.75263e-08
1.73639e-08
1.73979e-08
1.78906e-08
1.88278e-08
1.95961e-08
2.03761e-08
2.06477e-08
2.0894e-08
2.11479e-08
2.20039e-08
2.37134e-08
2.25742e-08
2.25883e-08
2.23439e-08
2.25362e-08
2.24091e-08
2.24539e-08
2.25666e-08
2.25562e-08
2.24899e-08
2.24582e-08
2.24548e-08
2.24369e-08
2.24004e-08
2.23712e-08
2.22251e-08
2.20984e-08
2.16843e-08
2.15076e-08
2.07448e-08
2.08595e-08
2.08241e-08
2.09485e-08
2.08858e-08
2.09556e-08
2.10867e-08
2.11463e-08
2.11914e-08
2.1249e-08
2.12902e-08
2.13594e-08
2.14273e-08
2.14634e-08
2.15056e-08
2.15582e-08
2.16014e-08
2.16401e-08
2.16628e-08
2.16971e-08
2.17353e-08
2.17697e-08
2.17939e-08
2.18171e-08
2.18442e-08
2.18648e-08
2.18798e-08
2.18921e-08
2.19027e-08
2.19082e-08
2.19076e-08
2.19056e-08
2.19045e-08
2.18965e-08
2.18861e-08
2.18694e-08
2.18463e-08
2.1822e-08
2.18002e-08
2.1772e-08
2.17388e-08
2.16981e-08
2.16575e-08
2.11007e-08
2.03854e-08
1.97964e-08
1.92007e-08
1.85785e-08
1.80016e-08
1.75087e-08
1.70534e-08
1.65816e-08
1.61221e-08
1.5695e-08
1.53272e-08
1.4975e-08
1.46021e-08
1.42545e-08
1.39425e-08
1.36495e-08
1.33679e-08
1.30957e-08
1.28418e-08
1.25972e-08
1.23675e-08
1.21539e-08
1.19471e-08
1.17478e-08
1.1561e-08
1.1393e-08
1.12307e-08
1.10682e-08
1.09133e-08
1.07743e-08
1.06448e-08
1.05144e-08
1.03927e-08
1.02789e-08
1.01734e-08
1.00721e-08
9.974e-09
9.88249e-09
9.79901e-09
9.721e-09
9.64558e-09
9.57422e-09
9.50733e-09
9.44634e-09
9.38987e-09
9.34116e-09
9.29248e-09
9.24501e-09
9.20447e-09
9.16961e-09
9.13774e-09
9.10634e-09
9.08058e-09
9.05826e-09
9.04195e-09
9.02805e-09
9.01473e-09
9.00628e-09
8.99982e-09
8.99589e-09
9.00047e-09
9.00718e-09
9.01313e-09
9.02348e-09
9.03595e-09
9.05199e-09
9.07168e-09
9.09472e-09
9.12065e-09
9.14897e-09
9.18022e-09
9.21467e-09
9.25218e-09
9.29302e-09
9.33663e-09
9.38189e-09
9.42985e-09
9.48165e-09
9.53726e-09
9.59476e-09
9.65489e-09
9.71856e-09
9.7843e-09
9.8534e-09
9.92512e-09
9.99968e-09
1.00769e-08
1.01571e-08
1.02412e-08
1.03271e-08
1.04165e-08
1.05081e-08
1.06033e-08
1.07007e-08
1.08013e-08
1.09049e-08
1.10122e-08
1.11216e-08
1.12344e-08
1.13497e-08
1.14688e-08
1.15899e-08
1.17145e-08
1.18417e-08
1.19726e-08
1.21065e-08
1.22435e-08
1.23839e-08
1.25288e-08
1.26784e-08
1.28326e-08
1.29911e-08
1.31539e-08
1.33213e-08
1.3334e-08
1.32748e-08
1.32168e-08
1.31599e-08
1.31042e-08
1.30496e-08
1.2996e-08
1.29434e-08
1.28919e-08
1.28415e-08
1.27921e-08
1.27435e-08
1.26959e-08
1.26492e-08
1.26034e-08
1.25586e-08
1.25147e-08
1.24717e-08
1.24296e-08
1.23883e-08
1.2348e-08
1.23087e-08
1.22703e-08
1.22327e-08
1.2196e-08
1.21602e-08
1.21251e-08
1.20909e-08
1.20576e-08
1.2025e-08
1.19932e-08
1.19621e-08
1.19317e-08
1.1902e-08
1.18731e-08
1.18448e-08
1.18171e-08
1.179e-08
1.17636e-08
1.17378e-08
1.17127e-08
1.16881e-08
1.16641e-08
1.16407e-08
1.1618e-08
1.15958e-08
1.15742e-08
1.15532e-08
1.15327e-08
1.15129e-08
1.14935e-08
1.14747e-08
1.14563e-08
1.14385e-08
1.14212e-08
1.14043e-08
1.13879e-08
1.13718e-08
1.13562e-08
1.1341e-08
1.13262e-08
1.13119e-08
1.12979e-08
1.12843e-08
1.1271e-08
1.12581e-08
1.12454e-08
1.12332e-08
1.12213e-08
1.12096e-08
1.11982e-08
1.11871e-08
1.11763e-08
1.11658e-08
1.11556e-08
1.11457e-08
1.11359e-08
1.11264e-08
1.11171e-08
1.1108e-08
1.1099e-08
1.10903e-08
1.10819e-08
1.10736e-08
1.10656e-08
1.10577e-08
1.105e-08
1.10424e-08
1.10351e-08
1.10279e-08
1.10209e-08
1.1014e-08
1.10072e-08
1.10006e-08
1.09941e-08
1.09877e-08
1.09816e-08
1.09755e-08
1.09696e-08
1.09639e-08
1.09582e-08
1.09526e-08
1.09472e-08
1.09419e-08
1.09367e-08
1.09316e-08
1.09266e-08
1.09218e-08
1.09171e-08
1.09125e-08
1.09079e-08
1.09035e-08
1.08991e-08
1.08948e-08
1.08906e-08
1.08865e-08
1.08824e-08
1.08786e-08
1.08747e-08
1.0871e-08
1.08672e-08
1.08636e-08
1.08599e-08
1.08564e-08
1.0853e-08
1.08497e-08
1.08464e-08
1.08432e-08
1.08401e-08
1.08371e-08
1.08341e-08
1.08312e-08
1.08283e-08
1.08256e-08
1.08229e-08
1.08202e-08
1.08176e-08
1.08151e-08
1.08126e-08
1.08103e-08
1.0808e-08
1.08057e-08
1.08035e-08
1.08014e-08
1.07993e-08
1.07973e-08
1.07953e-08
1.07934e-08
1.07914e-08
1.07895e-08
1.07877e-08
1.07859e-08
1.07842e-08
1.07828e-08
1.07812e-08
1.07804e-08
1.07788e-08
1.07778e-08
1.07767e-08
1.07757e-08
1.07747e-08
1.07736e-08
1.07727e-08
1.07717e-08
1.07709e-08
1.07702e-08
1.07692e-08
1.07683e-08
1.07675e-08
1.07668e-08
1.07661e-08
1.07655e-08
1.0765e-08
1.07648e-08
1.07647e-08
1.07645e-08
1.07644e-08
1.07643e-08
1.0764e-08
1.07638e-08
1.07633e-08
1.07635e-08
1.07634e-08
1.07631e-08
1.07637e-08
1.07635e-08
1.07638e-08
1.07632e-08
1.07622e-08
1.07623e-08
1.07616e-08
1.07611e-08
1.07649e-08
1.07631e-08
1.07791e-08
1.07766e-08
1.07795e-08
1.07807e-08
1.0781e-08
1.0781e-08
1.07806e-08
1.07798e-08
1.07786e-08
1.07773e-08
1.07758e-08
1.07744e-08
1.07731e-08
1.07721e-08
1.07713e-08
1.07705e-08
1.07697e-08
1.0769e-08
1.07683e-08
1.07678e-08
1.07675e-08
1.07671e-08
1.07667e-08
1.07663e-08
1.07657e-08
1.07651e-08
1.07645e-08
1.07639e-08
1.07634e-08
1.07629e-08
1.07626e-08
1.07624e-08
1.07623e-08
1.07625e-08
1.0763e-08
1.07636e-08
1.07643e-08
1.07652e-08
1.07661e-08
1.07671e-08
1.07682e-08
1.07692e-08
1.07701e-08
1.07709e-08
1.07713e-08
1.07715e-08
1.07715e-08
1.07714e-08
1.07714e-08
1.07717e-08
1.07724e-08
1.07735e-08
1.07749e-08
1.07764e-08
1.07774e-08
1.07778e-08
1.07777e-08
1.07777e-08
1.07785e-08
1.07798e-08
1.07807e-08
1.07803e-08
1.07786e-08
1.07764e-08
1.07754e-08
1.07754e-08
1.07748e-08
1.07731e-08
1.07709e-08
1.07701e-08
1.07713e-08
1.07715e-08
1.0771e-08
1.07717e-08
1.07742e-08
1.07754e-08
1.07747e-08
1.07738e-08
1.07721e-08
1.07739e-08
1.07668e-08
2.99443e-09
3.56129e-09
5.31798e-09
9.0075e-09
9.83998e-09
9.8835e-09
1.02152e-08
1.03431e-08
1.06634e-08
1.09721e-08
1.12194e-08
1.1566e-08
1.19912e-08
1.23677e-08
1.27424e-08
1.32736e-08
1.40066e-08
1.46611e-08
1.52554e-08
1.56888e-08
1.6441e-08
1.78214e-08
1.9048e-08
2.06318e-08
2.14543e-08
2.22856e-08
2.51292e-08
2.65645e-08
2.42013e-08
2.17165e-08
2.43521e-08
4.51895e-08
9.9503e-08
8.33748e-08
4.47253e-08
3.59208e-08
6.91376e-08
3.03581e-07
4.88795e-07
1.95148e-07
9.80558e-08
5.808e-08
8.32673e-08
5.43338e-08
9.90707e-08
8.37802e-08
8.63931e-08
7.44438e-08
5.89282e-08
4.4675e-08
3.91293e-08
3.87472e-08
3.63574e-08
3.30543e-08
2.98642e-08
2.79296e-08
2.90761e-08
3.43413e-08
3.49778e-08
2.64049e-08
2.47022e-08
2.85773e-08
3.49448e-08
3.17236e-08
2.43517e-08
2.27497e-08
2.27313e-08
2.12519e-08
2.09956e-08
2.32912e-08
2.20569e-08
1.85877e-08
1.72164e-08
1.70514e-08
1.61662e-08
1.42255e-08
1.30619e-08
1.16767e-08
8.76797e-09
7.94643e-09
6.02179e-09
6.08833e-09
9.9403e-09
1.24428e-08
2.24857e-08
3.49322e-08
9.0845e-08
2.22033e-07
1.47895e-07
7.57158e-08
5.7429e-08
7.25408e-08
7.37074e-08
7.35575e-08
7.42629e-08
6.21913e-08
5.92502e-08
5.20123e-08
5.62208e-08
3.9021e-08
2.95259e-08
2.35136e-08
2.77554e-08
4.71646e-08
5.46533e-08
7.90594e-08
8.94042e-08
2.28908e-07
8.73193e-07
3.9718e-07
1.91057e-07
2.04949e-07
1.83814e-07
1.62368e-07
1.4971e-07
9.23544e-08
1.08251e-07
9.27386e-08
5.92489e-08
3.83499e-08
4.77905e-08
1.33695e-07
1.56145e-07
1.65838e-07
1.69511e-07
1.11596e-07
1.20984e-07
1.72892e-07
1.85455e-07
1.92984e-07
1.79291e-07
1.4945e-07
1.46616e-07
1.52515e-07
1.51356e-07
1.41856e-07
1.32506e-07
1.35087e-07
1.32166e-07
1.26102e-07
1.19104e-07
1.23169e-07
1.22758e-07
1.14658e-07
1.14157e-07
1.18352e-07
1.18014e-07
1.12627e-07
1.10173e-07
1.1455e-07
1.14567e-07
1.12594e-07
1.15926e-07
1.16374e-07
1.13983e-07
1.13729e-07
1.17149e-07
1.19709e-07
1.19039e-07
1.1729e-07
1.17986e-07
1.21202e-07
1.24759e-07
1.24187e-07
1.21965e-07
1.23928e-07
1.29469e-07
1.32035e-07
1.30008e-07
1.29638e-07
1.3653e-07
1.41289e-07
1.4044e-07
1.39789e-07
1.48414e-07
1.52134e-07
1.52505e-07
1.57571e-07
1.63666e-07
1.68272e-07
1.71636e-07
1.7702e-07
1.82325e-07
1.8821e-07
1.96071e-07
2.0624e-07
2.16556e-07
2.2504e-07
2.33508e-07
2.44158e-07
2.55954e-07
2.68093e-07
2.84899e-07
3.07766e-07
3.31169e-07
3.54147e-07
3.70575e-07
4.04507e-07
4.46271e-07
4.94025e-07
5.56632e-07
6.19647e-07
6.82795e-07
8.06221e-07
9.73395e-07
1.19403e-06
1.29845e-06
1.29979e-06
1.3032e-06
1.30523e-06
1.30652e-06
1.30771e-06
1.30927e-06
1.16371e-06
9.67405e-07
8.44936e-07
7.50966e-07
6.65476e-07
6.07073e-07
5.58564e-07
5.06095e-07
4.71408e-07
4.41101e-07
4.13573e-07
3.9413e-07
3.72288e-07
3.53284e-07
3.37446e-07
3.24227e-07
3.11717e-07
3.00376e-07
2.90728e-07
2.81536e-07
2.72794e-07
2.65271e-07
2.58886e-07
2.53144e-07
2.4765e-07
2.4404e-07
2.41016e-07
2.35313e-07
2.30881e-07
2.28378e-07
2.25414e-07
2.22351e-07
2.19849e-07
2.18152e-07
2.16951e-07
2.14962e-07
2.13255e-07
2.11947e-07
2.10912e-07
2.09982e-07
2.09329e-07
2.09053e-07
2.08827e-07
2.08781e-07
2.09127e-07
2.09455e-07
2.09647e-07
2.09959e-07
2.10386e-07
2.10965e-07
2.11729e-07
2.12661e-07
2.1372e-07
2.14901e-07
2.16224e-07
2.17613e-07
2.19118e-07
2.20797e-07
2.22623e-07
2.24696e-07
2.26973e-07
2.2914e-07
2.31331e-07
2.33664e-07
2.36023e-07
2.38431e-07
2.4096e-07
2.43678e-07
2.46596e-07
2.49598e-07
2.52603e-07
2.55662e-07
2.58792e-07
2.62004e-07
2.6531e-07
2.68727e-07
2.72278e-07
2.75986e-07
2.79833e-07
2.83835e-07
2.88013e-07
2.92363e-07
2.96911e-07
3.01673e-07
3.06619e-07
3.11725e-07
3.16985e-07
3.22384e-07
3.27892e-07
3.3352e-07
3.39252e-07
3.45064e-07
3.50997e-07
3.5706e-07
3.63262e-07
3.69618e-07
3.76151e-07
3.82864e-07
3.89765e-07
3.96865e-07
4.04176e-07
4.11717e-07
4.19497e-07
4.27505e-07
4.3573e-07
4.4416e-07
4.52815e-07
4.61756e-07
4.7107e-07
4.80809e-07
4.90924e-07
5.01298e-07
5.11858e-07
5.22654e-07
5.33794e-07
5.45261e-07
5.56854e-07
5.68382e-07
5.79905e-07
5.91667e-07
6.03748e-07
6.15953e-07
6.28147e-07
6.40568e-07
6.53607e-07
6.67297e-07
6.81261e-07
6.9523e-07
7.09361e-07
7.23898e-07
7.3874e-07
7.53622e-07
7.68582e-07
7.83858e-07
7.99452e-07
8.15214e-07
8.31201e-07
8.47529e-07
8.64066e-07
8.80692e-07
8.97618e-07
9.15015e-07
9.32587e-07
9.49923e-07
9.67153e-07
9.84857e-07
1.00336e-06
1.02246e-06
1.04186e-06
1.06163e-06
1.08197e-06
1.10279e-06
1.12371e-06
1.14445e-06
1.16504e-06
1.1856e-06
1.20616e-06
1.22671e-06
1.24743e-06
1.26297e-06
1.26307e-06
1.26309e-06
1.26308e-06
1.26308e-06
1.26306e-06
1.26308e-06
1.26322e-06
1.26351e-06
1.26384e-06
1.26407e-06
1.26414e-06
1.26403e-06
1.26381e-06
1.2636e-06
1.26351e-06
1.26358e-06
1.26376e-06
1.26398e-06
1.26414e-06
1.26415e-06
1.26398e-06
1.2637e-06
1.26338e-06
1.26314e-06
1.26309e-06
1.26329e-06
1.26364e-06
1.26395e-06
1.26406e-06
1.26402e-06
1.26396e-06
1.26391e-06
1.2639e-06
1.26404e-06
1.2643e-06
1.26447e-06
1.26446e-06
1.26432e-06
1.2642e-06
1.26425e-06
1.26445e-06
1.26466e-06
1.26482e-06
1.26495e-06
1.26497e-06
1.26495e-06
1.26504e-06
1.26516e-06
1.26494e-06
1.26473e-06
1.26433e-06
1.26429e-06
1.26507e-06
1.26519e-06
1.26563e-06
1.26632e-06
1.26703e-06
1.26734e-06
1.26718e-06
1.26768e-06
1.26767e-06
1.2676e-06
1.26714e-06
1.26692e-06
1.26713e-06
1.26711e-06
1.26775e-06
1.26734e-06
1.26623e-06
1.26634e-06
1.26653e-06
1.26721e-06
1.26694e-06
1.26719e-06
1.26807e-06
1.26848e-06
1.26878e-06
1.2682e-06
1.26866e-06
1.26792e-06
1.26767e-06
1.26689e-06
1.26769e-06
1.26854e-06
1.2672e-06
1.26858e-06
1.26874e-06
1.2666e-06
1.26667e-06
1.26082e-06
1.26388e-06
1.26516e-06
1.26443e-06
1.26878e-06
1.26819e-06
1.26899e-06
1.26841e-06
1.26634e-06
1.26614e-06
1.26471e-06
1.26388e-06
1.26328e-06
1.26168e-06
1.25979e-06
1.25847e-06
1.25772e-06
1.25716e-06
1.25748e-06
1.25896e-06
1.26059e-06
1.26129e-06
1.2611e-06
1.26098e-06
1.26162e-06
1.2628e-06
1.26391e-06
1.26454e-06
1.26453e-06
1.26392e-06
1.26297e-06
1.26199e-06
1.26125e-06
1.26091e-06
1.26098e-06
1.26149e-06
1.26255e-06
1.26416e-06
1.26632e-06
1.26846e-06
1.26888e-06
1.26891e-06
1.26893e-06
1.26895e-06
1.26896e-06
1.26897e-06
1.26897e-06
1.26896e-06
1.26895e-06
1.26892e-06
1.26889e-06
1.26884e-06
1.26856e-06
1.26803e-06
1.26812e-06
1.26865e-06
1.26884e-06
1.26888e-06
1.26891e-06
1.26894e-06
1.26892e-06
1.26887e-06
1.26854e-06
1.26741e-06
1.26871e-06
1.26888e-06
1.26888e-06
1.2687e-06
1.26172e-06
1.25547e-06
1.25838e-06
1.26688e-06
1.26805e-06
1.26138e-06
1.25424e-06
1.25858e-06
1.26862e-06
1.26879e-06
1.26733e-06
1.26688e-06
1.26888e-06
1.26888e-06
1.26843e-06
1.26146e-06
1.26464e-06
1.25651e-06
1.25635e-06
1.24455e-06
2.7586e-09
3.42257e-09
5.0275e-09
8.62741e-09
9.50558e-09
9.4373e-09
9.74255e-09
9.87881e-09
1.00575e-08
1.03201e-08
1.06471e-08
1.09934e-08
1.13621e-08
1.15983e-08
1.18408e-08
1.2381e-08
1.3103e-08
1.42065e-08
1.56649e-08
1.58603e-08
1.4947e-08
1.55202e-08
1.81447e-08
2.21042e-08
2.29079e-08
2.13654e-08
2.16518e-08
2.5085e-08
3.21974e-08
2.89191e-08
2.21955e-08
2.82732e-08
6.30232e-08
1.36588e-07
8.59891e-08
3.86592e-08
4.38051e-08
1.55251e-07
1.6522e-07
2.03922e-07
7.43879e-08
4.18868e-08
1.17436e-07
9.64335e-08
6.83948e-08
6.01878e-08
7.60562e-08
8.42278e-08
5.29479e-08
4.63495e-08
4.38947e-08
4.25859e-08
3.41125e-08
3.15644e-08
2.89401e-08
2.77286e-08
3.01029e-08
3.04958e-08
2.52398e-08
2.24414e-08
2.81301e-08
3.22868e-08
2.71758e-08
2.40144e-08
2.24933e-08
2.86572e-08
2.77975e-08
2.13709e-08
1.95673e-08
2.06773e-08
2.18238e-08
2.17999e-08
2.13276e-08
2.14359e-08
1.99798e-08
2.4238e-08
3.17067e-08
2.95973e-08
2.47947e-08
1.78299e-08
1.25924e-08
8.93441e-09
7.86681e-09
5.9097e-09
5.8975e-09
8.99171e-09
1.27254e-08
1.44201e-08
2.65918e-08
4.1482e-08
1.69769e-07
1.75557e-07
1.00151e-07
5.32732e-08
6.61311e-08
7.19347e-08
1.05648e-07
1.75171e-07
1.18461e-07
9.2922e-08
5.50413e-08
5.50217e-08
3.7092e-08
2.9301e-08
2.29814e-08
2.75166e-08
4.07347e-08
5.01233e-08
7.10911e-08
8.8959e-08
1.22216e-07
6.86054e-07
3.43856e-06
2.84383e-07
7.42628e-07
2.415e-07
1.61995e-07
1.93582e-07
1.10045e-07
1.37832e-07
1.00225e-07
6.84436e-08
3.94507e-08
4.64305e-08
1.3873e-07
1.74733e-07
1.75912e-07
1.85741e-07
1.07412e-07
1.08764e-07
1.45625e-07
1.60244e-07
1.90718e-07
1.70416e-07
1.39443e-07
1.2036e-07
1.24548e-07
1.32131e-07
1.24556e-07
1.17978e-07
1.19727e-07
1.24362e-07
1.20573e-07
1.11655e-07
1.16047e-07
1.17517e-07
1.12907e-07
1.08658e-07
1.11896e-07
1.14585e-07
1.15047e-07
1.14719e-07
1.1023e-07
1.08022e-07
1.1377e-07
1.16533e-07
1.16933e-07
1.15083e-07
1.14654e-07
1.18432e-07
1.18594e-07
1.16922e-07
1.19421e-07
1.22527e-07
1.21583e-07
1.24364e-07
1.25925e-07
1.28984e-07
1.29399e-07
1.30719e-07
1.35251e-07
1.37058e-07
1.39073e-07
1.40451e-07
1.47494e-07
1.50746e-07
1.50783e-07
1.55829e-07
1.62264e-07
1.67422e-07
1.69555e-07
1.74558e-07
1.82205e-07
1.88878e-07
1.93584e-07
2.03457e-07
2.12641e-07
2.23082e-07
2.30055e-07
2.3889e-07
2.50237e-07
2.67021e-07
2.82259e-07
2.98614e-07
3.24946e-07
3.53628e-07
3.68429e-07
3.92961e-07
4.31068e-07
4.71715e-07
5.38664e-07
5.92074e-07
6.50706e-07
7.34053e-07
8.52884e-07
9.93263e-07
1.21857e-06
1.36934e-06
1.40977e-06
1.67501e-06
1.68388e-06
1.43604e-06
1.18773e-06
1.02527e-06
8.85059e-07
7.97362e-07
7.04805e-07
6.30592e-07
5.7983e-07
5.2948e-07
4.90621e-07
4.71877e-07
4.32953e-07
4.02815e-07
3.79493e-07
3.61916e-07
3.47854e-07
3.34226e-07
3.21718e-07
3.08673e-07
2.97584e-07
2.87759e-07
2.78848e-07
2.70723e-07
2.63205e-07
2.57036e-07
2.51298e-07
2.46368e-07
2.43188e-07
2.3821e-07
2.32019e-07
2.28645e-07
2.26733e-07
2.24279e-07
2.21396e-07
2.18893e-07
2.16979e-07
2.15268e-07
2.13603e-07
2.12017e-07
2.10552e-07
2.09424e-07
2.08537e-07
2.07925e-07
2.07686e-07
2.07892e-07
2.08318e-07
2.08707e-07
2.08945e-07
2.09173e-07
2.09436e-07
2.09779e-07
2.10272e-07
2.11002e-07
2.1203e-07
2.13301e-07
2.14673e-07
2.16134e-07
2.17688e-07
2.19296e-07
2.2088e-07
2.22438e-07
2.24136e-07
2.26112e-07
2.28324e-07
2.30631e-07
2.32979e-07
2.35326e-07
2.37723e-07
2.40224e-07
2.4288e-07
2.45713e-07
2.4869e-07
2.51778e-07
2.54942e-07
2.58241e-07
2.61654e-07
2.65169e-07
2.68828e-07
2.72601e-07
2.76476e-07
2.8041e-07
2.84387e-07
2.88456e-07
2.92656e-07
2.97008e-07
3.01546e-07
3.06247e-07
3.11106e-07
3.16112e-07
3.21269e-07
3.26586e-07
3.32085e-07
3.37783e-07
3.43674e-07
3.49759e-07
3.56012e-07
3.62437e-07
3.69058e-07
3.75854e-07
3.82775e-07
3.89836e-07
3.97044e-07
4.04402e-07
4.11935e-07
4.19689e-07
4.27704e-07
4.36008e-07
4.44614e-07
4.53498e-07
4.62671e-07
4.72176e-07
4.82082e-07
4.92387e-07
5.02926e-07
5.13471e-07
5.23914e-07
5.34415e-07
5.45232e-07
5.56419e-07
5.67787e-07
5.79274e-07
5.91175e-07
6.03849e-07
6.17188e-07
6.30645e-07
6.4388e-07
6.57137e-07
6.70756e-07
6.84563e-07
6.98102e-07
7.11374e-07
7.24902e-07
7.39044e-07
7.53708e-07
7.68838e-07
7.84628e-07
8.01109e-07
8.17993e-07
8.35015e-07
8.52024e-07
8.68728e-07
8.84843e-07
9.00508e-07
9.16172e-07
9.32152e-07
9.48594e-07
9.65769e-07
9.84092e-07
1.00369e-06
1.02414e-06
1.04471e-06
1.06487e-06
1.08439e-06
1.10325e-06
1.12171e-06
1.14031e-06
1.15972e-06
1.18038e-06
1.20229e-06
1.22501e-06
1.24796e-06
1.27078e-06
1.29355e-06
1.31632e-06
1.33851e-06
1.35961e-06
1.38087e-06
1.40475e-06
1.43237e-06
1.4625e-06
1.49333e-06
1.52368e-06
1.55243e-06
1.579e-06
1.60459e-06
1.63113e-06
1.65979e-06
1.6914e-06
1.72683e-06
1.76584e-06
1.80649e-06
1.84566e-06
1.88099e-06
1.91318e-06
1.94529e-06
1.98074e-06
2.0227e-06
2.07246e-06
2.12674e-06
2.17896e-06
2.22498e-06
2.26558e-06
2.30155e-06
2.34141e-06
2.39359e-06
2.45805e-06
2.52883e-06
2.59283e-06
2.64687e-06
2.69194e-06
2.74154e-06
2.80013e-06
2.86421e-06
2.93782e-06
3.01692e-06
3.10358e-06
3.18302e-06
3.2718e-06
3.34936e-06
3.41776e-06
3.41998e-06
3.49854e-06
3.7789e-06
3.87902e-06
3.75403e-06
3.84296e-06
3.92231e-06
4.02045e-06
4.21848e-06
4.35548e-06
4.4387e-06
4.53613e-06
4.6342e-06
4.67798e-06
4.81048e-06
4.97586e-06
5.21575e-06
5.37156e-06
5.40522e-06
5.53382e-06
5.84911e-06
5.9098e-06
5.91086e-06
6.05451e-06
6.25698e-06
6.40898e-06
6.693e-06
7.09909e-06
7.67934e-06
7.74056e-06
7.60101e-06
7.13139e-06
7.02574e-06
8.1867e-06
8.77806e-06
9.27366e-06
9.27212e-06
9.27292e-06
9.27166e-06
7.07877e-06
9.21845e-06
8.22179e-06
9.2333e-06
9.31215e-06
8.86301e-06
9.29487e-06
9.28456e-06
9.27571e-06
9.27343e-06
9.2727e-06
9.27284e-06
9.27167e-06
9.27081e-06
9.26981e-06
9.26807e-06
9.26669e-06
9.26605e-06
9.26543e-06
9.26471e-06
9.26473e-06
9.26562e-06
9.26652e-06
9.26676e-06
9.26658e-06
9.26675e-06
9.26761e-06
9.26879e-06
9.26978e-06
9.27023e-06
9.27006e-06
9.26933e-06
9.26829e-06
9.26738e-06
9.26682e-06
9.26673e-06
9.26709e-06
9.26784e-06
9.26897e-06
9.27048e-06
9.27231e-06
9.27388e-06
9.27412e-06
9.27414e-06
9.27415e-06
9.27417e-06
9.27418e-06
9.2742e-06
9.27421e-06
9.27421e-06
9.27419e-06
9.27416e-06
9.27412e-06
9.27407e-06
9.27394e-06
9.27365e-06
9.27374e-06
9.27398e-06
9.27405e-06
9.27409e-06
9.27413e-06
9.27415e-06
9.27416e-06
9.27413e-06
9.27398e-06
9.27339e-06
9.274e-06
9.27407e-06
9.27407e-06
9.27306e-06
9.26659e-06
9.26338e-06
9.2673e-06
9.27267e-06
9.27185e-06
9.2653e-06
9.26209e-06
9.26811e-06
9.2739e-06
9.27364e-06
9.27146e-06
9.27344e-06
9.27415e-06
9.27422e-06
9.27194e-06
9.26783e-06
9.26922e-06
8.26625e-06
4.45282e-06
6.27057e-06
2.86995e-09
3.48106e-09
5.1373e-09
8.54226e-09
9.1146e-09
9.00141e-09
9.29717e-09
9.48797e-09
9.69691e-09
9.94314e-09
1.02579e-08
1.05829e-08
1.09552e-08
1.1312e-08
1.17122e-08
1.22758e-08
1.29866e-08
1.4065e-08
1.51161e-08
1.52501e-08
1.50085e-08
1.58291e-08
1.80899e-08
2.05462e-08
2.13529e-08
2.08403e-08
2.164e-08
2.69156e-08
3.88019e-08
3.99834e-08
2.91735e-08
2.50817e-08
3.13493e-08
5.80615e-08
1.0492e-07
5.61272e-08
4.6905e-08
5.83111e-08
1.02198e-07
1.27073e-07
4.9191e-08
3.86616e-08
5.49608e-08
1.07258e-07
6.39874e-08
4.4123e-08
4.81847e-08
5.22526e-08
4.96538e-08
4.44099e-08
3.70891e-08
3.43789e-08
3.32971e-08
3.24799e-08
2.92323e-08
2.99094e-08
3.05678e-08
2.55788e-08
2.11501e-08
2.31036e-08
2.86482e-08
2.76177e-08
2.37331e-08
2.19115e-08
2.31063e-08
2.71775e-08
2.72282e-08
2.42896e-08
2.12462e-08
1.92797e-08
2.14476e-08
2.60196e-08
2.70388e-08
2.61099e-08
2.3263e-08
2.5576e-08
2.7492e-08
3.07355e-08
7.06795e-08
1.48428e-07
1.03262e-07
3.30485e-08
1.75106e-08
1.31412e-08
1.09629e-08
9.30847e-09
7.3864e-09
6.39228e-09
6.48808e-09
9.62762e-09
1.3436e-08
2.63663e-08
4.30338e-08
1.05962e-07
1.28278e-07
9.33504e-08
6.48667e-08
9.99303e-08
1.12159e-07
1.92108e-07
3.97469e-07
2.98957e-07
1.0885e-07
5.75438e-08
6.52082e-08
5.25505e-08
3.4697e-08
2.72523e-08
2.27179e-08
2.77744e-08
5.07167e-08
5.35119e-08
7.9812e-08
1.30149e-07
1.92523e-07
2.26653e-07
5.1931e-07
3.27815e-07
3.32518e-07
1.16613e-07
1.41991e-07
1.21823e-07
1.33613e-07
9.52861e-08
7.2066e-08
3.99065e-08
4.89969e-08
1.61966e-07
1.8246e-07
1.67428e-07
1.56082e-07
9.65892e-08
1.04917e-07
1.39823e-07
1.30183e-07
1.36553e-07
1.57214e-07
1.33511e-07
1.11706e-07
1.09425e-07
1.20243e-07
1.20749e-07
1.19317e-07
1.14677e-07
1.14669e-07
1.11261e-07
1.08987e-07
1.12478e-07
1.17206e-07
1.12366e-07
1.11361e-07
1.1378e-07
1.09041e-07
1.07023e-07
1.12388e-07
1.16373e-07
1.1548e-07
1.12831e-07
1.12351e-07
1.17424e-07
1.19877e-07
1.15928e-07
1.15299e-07
1.19162e-07
1.23256e-07
1.25872e-07
1.22639e-07
1.24342e-07
1.29721e-07
1.34061e-07
1.32243e-07
1.33135e-07
1.40111e-07
1.43618e-07
1.42871e-07
1.46938e-07
1.52537e-07
1.56551e-07
1.58514e-07
1.6339e-07
1.68578e-07
1.73446e-07
1.80555e-07
1.87644e-07
1.93317e-07
2.01279e-07
2.0652e-07
2.16589e-07
2.26446e-07
2.35409e-07
2.47381e-07
2.64409e-07
2.78052e-07
2.89778e-07
3.10503e-07
3.4312e-07
3.66202e-07
3.81913e-07
4.09738e-07
4.44736e-07
5.05154e-07
5.50234e-07
6.01208e-07
6.46931e-07
7.19225e-07
8.20332e-07
9.78117e-07
1.0458e-06
1.08387e-06
1.21013e-06
1.1719e-06
1.06941e-06
9.68553e-07
8.83296e-07
7.89371e-07
7.21235e-07
6.60298e-07
5.99304e-07
5.49282e-07
4.99539e-07
4.69438e-07
4.53117e-07
4.22662e-07
3.93803e-07
3.66966e-07
3.5259e-07
3.41117e-07
3.28567e-07
3.1654e-07
3.05433e-07
2.95406e-07
2.85083e-07
2.75567e-07
2.67523e-07
2.60751e-07
2.54588e-07
2.49071e-07
2.44559e-07
2.39457e-07
2.33062e-07
2.29726e-07
2.28487e-07
2.25369e-07
2.22481e-07
2.20083e-07
2.17735e-07
2.15049e-07
2.12569e-07
2.11506e-07
2.10517e-07
2.09419e-07
2.0854e-07
2.07936e-07
2.0742e-07
2.07e-07
2.07096e-07
2.07388e-07
2.07407e-07
2.07501e-07
2.07934e-07
2.08461e-07
2.0911e-07
2.09829e-07
2.10646e-07
2.11661e-07
2.12939e-07
2.14359e-07
2.15847e-07
2.17491e-07
2.1917e-07
2.20642e-07
2.22023e-07
2.23459e-07
2.25133e-07
2.27355e-07
2.29781e-07
2.32191e-07
2.3464e-07
2.37138e-07
2.39667e-07
2.42247e-07
2.44933e-07
2.47853e-07
2.51013e-07
2.54308e-07
2.57761e-07
2.61342e-07
2.65041e-07
2.68843e-07
2.72695e-07
2.76592e-07
2.80528e-07
2.84484e-07
2.88489e-07
2.92614e-07
2.96851e-07
3.01195e-07
3.05679e-07
3.10317e-07
3.15109e-07
3.20097e-07
3.25313e-07
3.30748e-07
3.36437e-07
3.42395e-07
3.48581e-07
3.54973e-07
3.61566e-07
3.68348e-07
3.75278e-07
3.82325e-07
3.89491e-07
3.96778e-07
4.04185e-07
4.1173e-07
4.19478e-07
4.27522e-07
4.35936e-07
4.44761e-07
4.53933e-07
4.63359e-07
4.72962e-07
4.82781e-07
4.92924e-07
5.03376e-07
5.13922e-07
5.24295e-07
5.34523e-07
5.44985e-07
5.56011e-07
5.67514e-07
5.79214e-07
5.91221e-07
6.04083e-07
6.18014e-07
6.32361e-07
6.46212e-07
6.59423e-07
6.72575e-07
6.85965e-07
6.99232e-07
7.12169e-07
7.25315e-07
7.39294e-07
7.54088e-07
7.69451e-07
7.85441e-07
8.02119e-07
8.19222e-07
8.36444e-07
8.53587e-07
8.70328e-07
8.86312e-07
9.01646e-07
9.16956e-07
9.32848e-07
9.4957e-07
9.67173e-07
9.85735e-07
1.00525e-06
1.02537e-06
1.0454e-06
1.06466e-06
1.08284e-06
1.10028e-06
1.11776e-06
1.13614e-06
1.15589e-06
1.1771e-06
1.19965e-06
1.22327e-06
1.24721e-06
1.27032e-06
1.29223e-06
1.31372e-06
1.33549e-06
1.35744e-06
1.38015e-06
1.40545e-06
1.43402e-06
1.464e-06
1.49315e-06
1.52093e-06
1.54729e-06
1.57247e-06
1.59859e-06
1.6282e-06
1.66174e-06
1.69801e-06
1.73578e-06
1.77384e-06
1.81057e-06
1.84398e-06
1.87365e-06
1.90263e-06
1.93548e-06
1.97446e-06
2.02039e-06
2.0722e-06
2.12554e-06
2.17216e-06
2.21174e-06
2.25097e-06
2.29295e-06
2.34103e-06
2.40104e-06
2.46565e-06
2.53414e-06
2.58817e-06
2.63368e-06
2.67627e-06
2.72085e-06
2.78353e-06
2.86085e-06
2.94725e-06
3.05071e-06
3.15572e-06
3.22567e-06
3.20598e-06
3.26391e-06
3.53417e-06
3.61813e-06
3.46719e-06
3.56015e-06
3.66789e-06
3.74755e-06
3.88931e-06
3.9501e-06
4.04388e-06
4.18151e-06
4.34832e-06
4.44649e-06
4.56444e-06
4.74591e-06
4.81986e-06
4.84663e-06
5.00506e-06
5.21371e-06
5.60981e-06
5.67419e-06
5.46509e-06
5.44214e-06
5.53869e-06
5.74371e-06
5.93276e-06
6.34831e-06
6.65536e-06
6.86306e-06
7.32056e-06
7.32013e-06
6.23749e-06
6.76214e-06
6.83272e-06
8.35691e-06
9.99057e-06
9.99066e-06
9.90424e-06
6.7897e-06
7.10414e-06
6.44806e-06
6.79873e-06
9.99221e-06
7.74588e-06
9.11927e-06
9.99172e-06
9.9913e-06
9.99099e-06
9.99078e-06
9.99064e-06
9.99065e-06
9.99062e-06
9.99061e-06
9.99058e-06
9.99055e-06
9.99051e-06
9.99047e-06
9.99045e-06
9.99044e-06
9.99043e-06
9.99043e-06
9.99043e-06
9.99045e-06
9.99047e-06
9.99046e-06
9.99045e-06
9.99045e-06
9.99046e-06
9.99049e-06
9.99052e-06
9.99055e-06
9.99056e-06
9.99055e-06
9.99051e-06
9.99048e-06
9.99045e-06
9.99045e-06
9.99047e-06
9.99049e-06
9.99052e-06
9.99054e-06
9.99057e-06
9.99059e-06
9.99059e-06
9.99058e-06
9.99058e-06
9.99058e-06
9.99058e-06
9.99059e-06
9.9906e-06
9.99061e-06
9.99062e-06
9.99062e-06
9.9906e-06
9.9906e-06
9.99059e-06
9.99058e-06
9.99058e-06
9.99057e-06
9.99057e-06
9.99058e-06
9.99059e-06
9.9906e-06
9.99062e-06
9.99063e-06
9.9906e-06
9.99057e-06
9.99058e-06
9.99059e-06
9.9906e-06
9.99055e-06
9.99045e-06
9.99044e-06
9.99049e-06
9.99058e-06
9.99051e-06
9.99044e-06
9.99047e-06
9.99053e-06
9.99069e-06
9.99055e-06
9.99058e-06
9.99073e-06
9.99079e-06
9.99058e-06
9.99053e-06
9.99049e-06
9.99049e-06
8.56926e-06
3.65665e-06
5.56537e-06
2.70361e-09
3.33413e-09
5.37229e-09
8.2058e-09
8.69837e-09
8.70816e-09
8.84562e-09
9.0979e-09
9.39882e-09
9.69147e-09
9.87027e-09
1.01559e-08
1.06452e-08
1.12471e-08
1.18536e-08
1.23904e-08
1.29171e-08
1.35998e-08
1.43446e-08
1.48859e-08
1.54023e-08
1.6322e-08
1.76998e-08
1.91085e-08
2.00924e-08
2.07357e-08
2.2037e-08
2.55331e-08
3.05601e-08
3.24922e-08
3.06126e-08
2.93404e-08
3.16991e-08
3.95859e-08
4.96343e-08
4.62217e-08
4.46685e-08
4.96975e-08
5.96955e-08
6.28548e-08
4.67387e-08
4.18068e-08
4.91416e-08
5.81716e-08
4.84638e-08
3.96054e-08
4.23086e-08
4.58823e-08
4.32205e-08
3.4252e-08
3.00035e-08
3.27222e-08
3.59516e-08
3.11999e-08
2.83684e-08
3.17757e-08
2.792e-08
2.15446e-08
2.07955e-08
2.45429e-08
2.59903e-08
2.219e-08
2.20539e-08
2.20829e-08
2.44257e-08
2.33432e-08
2.32103e-08
2.44274e-08
2.54734e-08
2.34898e-08
2.17036e-08
2.38979e-08
2.89056e-08
3.15522e-08
2.97713e-08
2.89924e-08
2.69579e-08
2.99908e-08
5.0006e-08
6.05608e-08
3.63196e-08
4.2203e-08
8.89572e-08
1.11035e-07
6.17932e-08
2.42657e-08
1.41113e-08
1.17215e-08
9.00238e-09
8.52034e-09
7.28112e-09
7.17651e-09
9.74615e-09
1.34839e-08
2.67295e-08
4.70164e-08
1.41138e-07
1.12033e-07
1.73969e-07
8.82314e-08
1.2621e-07
1.34761e-07
1.80405e-07
3.09883e-07
2.58128e-07
2.11024e-07
7.17677e-08
5.21366e-08
5.4099e-08
3.97027e-08
3.08868e-08
2.28295e-08
2.81264e-08
5.68981e-08
6.81121e-08
9.1329e-08
1.33435e-07
1.32103e-07
1.77099e-07
2.25261e-07
1.85994e-07
2.04158e-07
1.16784e-07
1.29839e-07
1.30798e-07
1.55002e-07
1.08562e-07
7.49869e-08
3.96802e-08
4.89086e-08
1.79404e-07
2.00117e-07
1.89733e-07
1.86311e-07
1.26161e-07
8.35795e-08
8.71156e-08
1.16905e-07
1.15056e-07
1.26861e-07
1.27578e-07
1.11242e-07
1.08941e-07
1.15184e-07
1.1263e-07
1.11007e-07
1.10566e-07
1.11915e-07
1.13279e-07
1.11333e-07
1.10184e-07
1.10914e-07
1.08542e-07
1.10526e-07
1.12227e-07
1.1352e-07
1.12469e-07
1.10168e-07
1.11458e-07
1.14694e-07
1.17646e-07
1.16775e-07
1.14436e-07
1.17788e-07
1.23377e-07
1.22834e-07
1.20373e-07
1.23108e-07
1.29735e-07
1.33531e-07
1.30449e-07
1.31569e-07
1.38503e-07
1.43878e-07
1.40442e-07
1.44742e-07
1.51814e-07
1.5546e-07
1.56153e-07
1.605e-07
1.68239e-07
1.72094e-07
1.76657e-07
1.8445e-07
1.92232e-07
1.9635e-07
2.0151e-07
2.11992e-07
2.2467e-07
2.3397e-07
2.42975e-07
2.57432e-07
2.71891e-07
2.84198e-07
2.9534e-07
3.18673e-07
3.52346e-07
3.71656e-07
3.93313e-07
4.18444e-07
4.59794e-07
5.11792e-07
5.49027e-07
5.85781e-07
6.3604e-07
7.0604e-07
7.79151e-07
8.12159e-07
8.82694e-07
9.31227e-07
8.85265e-07
8.44554e-07
7.90462e-07
7.44843e-07
6.90337e-07
6.56444e-07
6.1006e-07
5.57558e-07
5.12733e-07
4.74797e-07
4.52149e-07
4.32099e-07
4.08117e-07
3.81931e-07
3.61287e-07
3.45658e-07
3.32045e-07
3.20295e-07
3.09313e-07
2.9993e-07
2.91849e-07
2.81657e-07
2.71339e-07
2.63871e-07
2.57473e-07
2.51098e-07
2.45827e-07
2.41441e-07
2.3607e-07
2.31344e-07
2.29849e-07
2.28258e-07
2.23417e-07
2.19828e-07
2.17516e-07
2.15456e-07
2.13078e-07
2.11013e-07