/*--------------------------------*- C++ -*----------------------------------*\
| =========                 |                                                 |
| \\      /  F ield         | OpenFOAM: The Open Source CFD Toolbox           |
|  \\    /   O peration     | Version:  v2006                                 |
|   \\  /    A nd           | Website:  www.openfoam.com                      |
|    \\/     M anipulation  |                                                 |
\*---------------------------------------------------------------------------*/
FoamFile
{
    version     2.0;
    format      ascii;
    class       volScalarField;
    location    "2.1";
    object      p_rgh;
}
// * * * * * * * * * * * * * * * * * * * * * * * * * * * * * * * * * * * * * //

dimensions      [1 -1 -2 0 0 0 0];


internalField   nonuniform List<scalar> 
33000
(
7950.61
7935.98
7928.56
7921.27
7914.11
7907.1
7900.26
7893.57
7887.04
7880.65
7874.42
7868.36
7862.46
7856.72
7851.16
7845.75
7840.48
7835.36
7830.43
7825.67
7821.11
7816.68
7812.4
7808.25
7804.28
7800.5
7796.86
7793.36
7790
7786.82
7783.79
7780.89
7778.14
7775.5
7773.02
7770.74
7768.54
7766.46
7764.52
7762.68
7760.99
7759.47
7758.01
7756.64
7755.4
7754.29
7753.26
7752.32
7751.48
7750.73
7750.07
7749.5
7748.99
7748.57
7748.22
7747.93
7747.71
7747.55
7747.46
7747.43
7747.46
7747.52
7747.64
7747.8
7748.01
7748.26
7748.53
7748.83
7749.15
7749.51
7749.87
7750.25
7750.66
7751.08
7751.49
7751.9
7752.28
7752.59
7752.86
7753.62
7754.19
7754.74
7755.34
7755.9
7756.49
7757.12
7757.72
7758.31
7758.9
7759.47
7760.06
7760.62
7761.17
7761.69
7762.2
7762.69
7763.16
7763.6
7764.01
7764.4
7764.79
7765.13
7765.45
7765.74
7766.01
7766.23
7766.43
7766.6
7766.73
7766.83
7766.9
7766.93
7766.93
7766.91
7766.85
7766.77
7766.66
7766.51
7766.35
7766.16
7765.94
7765.7
7765.44
7765.15
7764.85
7764.52
7764.18
7763.81
7763.43
7763.03
7762.61
7762.18
7761.73
7761.27
7760.79
7760.31
7759.81
7759.3
7758.79
7758.28
7757.75
7757.22
7756.7
7756.17
7755.64
7755.12
7754.6
7754.08
7753.57
7753.07
7752.58
7752.09
7751.62
7751.16
7750.71
7750.28
7749.86
7749.46
7749.08
7748.71
7748.36
7748.03
7747.73
7747.44
7747.17
7746.93
7746.71
7746.52
7746.35
7746.21
7746.09
7746
7745.93
7745.9
7745.89
7745.9
7745.95
7746.02
7746.12
7746.25
7746.41
7746.59
7746.8
7747.04
7747.31
7747.6
7747.93
7748.27
7748.64
7749.04
7749.47
7749.92
7750.39
7750.89
7751.41
7751.96
7752.53
7753.11
7753.72
7754.35
7755
7755.67
7756.35
7757.06
7757.78
7758.51
7759.26
7760.03
7760.8
7761.6
7762.4
7763.21
7764.03
7764.87
7765.71
7766.56
7767.41
7768.28
7769.15
7770.02
7770.9
7771.78
7772.66
7773.55
7774.44
7775.33
7776.22
7777.1
7777.99
7778.88
7779.76
7780.64
7781.52
7782.39
7783.26
7784.12
7784.98
7785.84
7786.68
7787.53
7788.36
7789.19
7790.01
7790.82
7791.62
7792.42
7793.21
7793.99
7794.76
7795.52
7796.27
7797.01
7797.75
7798.47
7799.19
7799.9
7800.59
7801.28
7801.96
7802.63
7803.29
7803.93
7804.57
7805.2
7805.83
7806.44
7807.04
7807.63
7808.22
7808.79
7809.36
7809.91
7810.46
7811
7811.53
7812.05
7812.56
7813.06
7813.56
7814.05
7814.53
7815
7815.46
7815.92
7816.37
7816.81
7817.24
7817.66
7818.08
7818.49
7818.9
7819.3
7819.69
7820.07
7820.45
7820.82
7821.18
7821.54
7821.89
7822.23
7822.57
7822.91
7823.23
7823.56
7823.87
7824.18
7824.49
7824.79
7825.09
7825.38
7825.66
7825.95
7826.22
7826.49
7826.76
7827.02
7827.28
7827.54
7827.79
7828.03
7828.27
7828.51
7828.74
7828.97
7829.2
7829.42
7829.64
7829.86
7830.07
7830.28
7830.48
7830.68
7830.88
7831.07
7831.27
7831.45
7831.64
7831.82
7832
7832.18
7832.35
7832.52
7832.69
7832.85
7833.01
7833.17
7833.33
7833.48
7833.63
7833.78
7833.93
7834.07
7834.21
7834.35
7834.49
7834.62
7834.75
7834.88
7835.01
7835.13
7835.25
7835.37
7835.49
7835.61
7835.72
7835.83
7835.94
7836.05
7836.15
7836.26
7836.36
7836.46
7836.55
7836.65
7836.74
7836.84
7836.92
7837.01
7837.1
7837.18
7837.27
7837.35
7837.43
7837.5
7837.58
7837.65
7837.73
7837.8
7837.87
7837.93
7838
7838.07
7838.13
7838.19
7838.25
7838.31
7838.37
7838.42
7838.48
7838.53
7838.58
7838.63
7838.68
7838.73
7838.78
7838.82
7838.87
7838.91
7838.96
7839
7839.04
7839.08
7839.11
7839.15
7839.19
7839.22
7839.26
7839.29
7839.32
7839.35
7839.38
7839.41
7839.44
7839.47
7839.49
7839.52
7839.54
7839.57
7839.59
7839.62
7839.64
7839.66
7839.68
7839.7
7839.72
7839.74
7839.76
7839.77
7839.79
7839.81
7839.82
7839.84
7839.85
7839.87
7839.88
7839.9
7839.91
7839.92
7839.93
7839.94
7839.95
7839.96
7839.97
7839.98
7839.99
7840
7840.01
7840.02
7840.03
7840.03
7840.04
7840.05
7840.06
7840.06
7840.07
7840.07
7840.08
7840.08
7840.09
7840.09
7840.1
7840.1
7840.1
7840.11
7840.11
7840.11
7840.12
7840.12
7840.12
7840.13
7840.13
7840.14
7840.14
7840.14
7840.15
7840.15
7840.15
7840.16
7840.16
7840.16
7840.16
7840.17
7840.17
7840.17
7840.18
7840.18
7840.18
7840.18
7840.19
7840.19
7840.19
7840.19
7840.19
7840.2
7840.2
7840.2
7840.2
7840.2
7840.21
7840.21
7840.21
7840.21
7840.21
7840.22
7840.22
7840.22
7840.22
7840.22
7840.22
7840.22
7840.22
7840.23
7840.23
7840.23
7840.23
7840.23
7840.23
7840.23
7840.23
7840.23
7840.23
7840.23
7840.23
7840.23
7840.24
7840.24
7840.24
7840.24
7840.24
7840.24
7840.24
7840.24
7840.24
7840.24
7840.24
7840.24
7840.24
7840.24
7840.24
7840.24
7950.61
7935.84
7928.38
7921.05
7913.88
7906.86
7900
7893.29
7886.74
7880.35
7874.12
7868.05
7862.14
7856.39
7850.8
7845.37
7840.11
7834.99
7830
7825.23
7820.71
7816.3
7811.97
7807.76
7803.81
7800.02
7796.47
7793
7789.54
7786.36
7783.43
7780.54
7777.69
7775.09
7772.63
7770.43
7768.26
7766.08
7764.12
7762.3
7760.62
7759.18
7757.78
7756.35
7755.08
7753.95
7753.01
7752.08
7751.18
7750.44
7749.83
7749.3
7748.73
7748.31
7747.97
7747.76
7747.46
7747.3
7747.22
7747.21
7747.32
7747.42
7747.44
7747.6
7747.83
7748.16
7748.46
7748.7
7749.03
7749.43
7749.77
7750.17
7750.61
7751.07
7751.44
7751.86
7752.34
7752.78
7753.23
7753.67
7754
7754.35
7755.23
7755.96
7756.56
7757.17
7757.72
7758.27
7758.84
7759.45
7760.08
7760.66
7761.22
7761.71
7762.22
7762.72
7763.22
7763.66
7764.06
7764.45
7764.85
7765.16
7765.48
7765.8
7766.08
7766.3
7766.49
7766.68
7766.79
7766.87
7766.94
7766.97
7766.99
7766.97
7766.92
7766.84
7766.71
7766.56
7766.42
7766.22
7765.98
7765.75
7765.48
7765.19
7764.88
7764.57
7764.23
7763.85
7763.46
7763.07
7762.66
7762.2
7761.75
7761.28
7760.82
7760.34
7759.82
7759.31
7758.8
7758.3
7757.75
7757.22
7756.69
7756.16
7755.62
7755.1
7754.58
7754.08
7753.54
7753.04
7752.54
7752.06
7751.6
7751.15
7750.68
7750.24
7749.82
7749.43
7749.05
7748.66
7748.31
7747.99
7747.69
7747.39
7747.12
7746.88
7746.67
7746.47
7746.29
7746.14
7746.03
7745.95
7745.87
7745.83
7745.82
7745.84
7745.89
7745.96
7746.06
7746.19
7746.34
7746.53
7746.74
7746.98
7747.25
7747.54
7747.87
7748.21
7748.58
7748.98
7749.42
7749.86
7750.34
7750.84
7751.36
7751.91
7752.48
7753.06
7753.67
7754.31
7754.95
7755.62
7756.31
7757.01
7757.74
7758.48
7759.23
7759.99
7760.77
7761.56
7762.37
7763.18
7764
7764.84
7765.68
7766.53
7767.39
7768.25
7769.12
7770
7770.88
7771.77
7772.65
7773.53
7774.42
7775.31
7776.2
7777.09
7777.98
7778.87
7779.75
7780.63
7781.51
7782.39
7783.26
7784.12
7784.98
7785.84
7786.69
7787.53
7788.36
7789.19
7790.01
7790.82
7791.63
7792.43
7793.21
7793.99
7794.76
7795.53
7796.28
7797.02
7797.76
7798.48
7799.2
7799.91
7800.6
7801.29
7801.97
7802.64
7803.3
7803.95
7804.59
7805.22
7805.84
7806.45
7807.05
7807.65
7808.23
7808.8
7809.37
7809.92
7810.47
7811.01
7811.54
7812.06
7812.57
7813.08
7813.57
7814.06
7814.54
7815.01
7815.47
7815.93
7816.38
7816.82
7817.25
7817.68
7818.09
7818.51
7818.91
7819.31
7819.7
7820.08
7820.46
7820.83
7821.19
7821.55
7821.9
7822.24
7822.58
7822.92
7823.24
7823.57
7823.88
7824.19
7824.5
7824.8
7825.1
7825.39
7825.67
7825.95
7826.23
7826.5
7826.77
7827.03
7827.29
7827.54
7827.79
7828.04
7828.28
7828.52
7828.75
7828.98
7829.21
7829.43
7829.65
7829.86
7830.08
7830.28
7830.49
7830.69
7830.89
7831.08
7831.27
7831.46
7831.65
7831.83
7832.01
7832.18
7832.36
7832.53
7832.69
7832.86
7833.02
7833.18
7833.34
7833.49
7833.64
7833.79
7833.93
7834.08
7834.22
7834.36
7834.49
7834.63
7834.76
7834.89
7835.01
7835.14
7835.26
7835.38
7835.5
7835.61
7835.73
7835.84
7835.95
7836.05
7836.16
7836.26
7836.36
7836.46
7836.56
7836.65
7836.75
7836.84
7836.93
7837.02
7837.1
7837.19
7837.27
7837.35
7837.43
7837.51
7837.58
7837.66
7837.73
7837.8
7837.87
7837.94
7838
7838.07
7838.13
7838.19
7838.25
7838.31
7838.37
7838.43
7838.48
7838.53
7838.59
7838.64
7838.69
7838.73
7838.78
7838.83
7838.87
7838.92
7838.96
7839
7839.04
7839.08
7839.12
7839.15
7839.19
7839.22
7839.26
7839.29
7839.32
7839.35
7839.38
7839.41
7839.44
7839.47
7839.5
7839.52
7839.55
7839.57
7839.59
7839.62
7839.64
7839.66
7839.68
7839.7
7839.72
7839.74
7839.76
7839.78
7839.79
7839.81
7839.82
7839.84
7839.86
7839.87
7839.88
7839.9
7839.91
7839.92
7839.93
7839.94
7839.96
7839.97
7839.98
7839.99
7839.99
7840
7840.01
7840.02
7840.03
7840.04
7840.04
7840.05
7840.06
7840.06
7840.07
7840.08
7840.08
7840.08
7840.09
7840.09
7840.1
7840.1
7840.1
7840.11
7840.11
7840.11
7840.12
7840.12
7840.12
7840.13
7840.13
7840.14
7840.14
7840.14
7840.15
7840.15
7840.15
7840.15
7840.16
7840.16
7840.16
7840.17
7840.17
7840.17
7840.18
7840.18
7840.18
7840.18
7840.19
7840.19
7840.19
7840.19
7840.2
7840.2
7840.2
7840.2
7840.2
7840.21
7840.21
7840.21
7840.21
7840.21
7840.21
7840.22
7840.22
7840.22
7840.22
7840.22
7840.22
7840.22
7840.22
7840.23
7840.23
7840.23
7840.23
7840.23
7840.23
7840.23
7840.23
7840.23
7840.23
7840.23
7840.23
7840.24
7840.24
7840.24
7840.24
7840.24
7840.24
7840.24
7840.24
7840.24
7840.24
7840.24
7840.24
7840.24
7840.24
7840.24
7840.24
7840.24
7949.24
7934.78
7927.29
7919.96
7912.81
7905.84
7898.98
7892.27
7885.75
7879.36
7873.1
7867.03
7861.13
7855.44
7849.89
7844.46
7839.2
7834.08
7829.14
7824.45
7819.92
7815.5
7811.16
7807
7803.08
7799.39
7795.8
7792.19
7788.75
7785.59
7782.66
7779.97
7777.27
7774.57
7771.99
7769.68
7767.61
7765.69
7763.76
7761.84
7760.07
7758.68
7757.3
7755.97
7754.66
7753.47
7752.46
7751.58
7750.81
7750.09
7749.45
7748.84
7748.34
7747.96
7747.7
7747.48
7747.26
7747.04
7746.9
7747.03
7747.1
7747.19
7747.23
7747.35
7747.75
7748.03
7748.32
7748.65
7748.97
7749.31
7749.74
7750.21
7750.64
7751.08
7751.52
7751.96
7752.36
7752.78
7753.36
7753.87
7754.37
7754.87
7755.34
7755.8
7756.25
7757.16
7757.78
7758.42
7759.04
7759.62
7760.16
7760.73
7761.3
7761.82
7762.37
7762.88
7763.35
7763.79
7764.19
7764.63
7765.01
7765.36
7765.65
7765.97
7766.25
7766.46
7766.65
7766.82
7766.97
7767.07
7767.14
7767.17
7767.16
7767.13
7767.09
7767
7766.87
7766.71
7766.54
7766.37
7766.15
7765.9
7765.6
7765.33
7765.03
7764.68
7764.35
7763.97
7763.57
7763.16
7762.75
7762.31
7761.84
7761.38
7760.9
7760.39
7759.86
7759.37
7758.86
7758.32
7757.77
7757.26
7756.73
7756.17
7755.62
7755.12
7754.59
7754.04
7753.52
7753.03
7752.53
7752.02
7751.57
7751.11
7750.63
7750.18
7749.78
7749.38
7748.97
7748.59
7748.24
7747.92
7747.62
7747.31
7747.03
7746.78
7746.57
7746.39
7746.2
7746.04
7745.94
7745.85
7745.77
7745.72
7745.73
7745.75
7745.78
7745.86
7745.96
7746.09
7746.24
7746.42
7746.63
7746.87
7747.15
7747.45
7747.77
7748.12
7748.49
7748.89
7749.31
7749.76
7750.24
7750.75
7751.28
7751.82
7752.38
7752.98
7753.59
7754.23
7754.88
7755.55
7756.23
7756.95
7757.67
7758.41
7759.16
7759.92
7760.71
7761.51
7762.31
7763.13
7763.96
7764.8
7765.64
7766.5
7767.36
7768.22
7769.1
7769.97
7770.86
7771.74
7772.63
7773.52
7774.4
7775.3
7776.2
7777.09
7777.98
7778.87
7779.75
7780.64
7781.52
7782.4
7783.27
7784.13
7784.99
7785.85
7786.7
7787.54
7788.38
7789.21
7790.03
7790.84
7791.65
7792.45
7793.24
7794.01
7794.79
7795.55
7796.31
7797.05
7797.79
7798.51
7799.23
7799.94
7800.64
7801.32
7802
7802.67
7803.33
7803.98
7804.62
7805.25
7805.87
7806.48
7807.08
7807.68
7808.26
7808.83
7809.4
7809.95
7810.5
7811.04
7811.57
7812.09
7812.6
7813.11
7813.6
7814.09
7814.57
7815.04
7815.5
7815.96
7816.41
7816.85
7817.28
7817.7
7818.12
7818.53
7818.93
7819.33
7819.72
7820.1
7820.48
7820.85
7821.21
7821.57
7821.92
7822.27
7822.61
7822.94
7823.27
7823.59
7823.9
7824.22
7824.52
7824.82
7825.12
7825.41
7825.69
7825.97
7826.25
7826.52
7826.79
7827.05
7827.31
7827.56
7827.81
7828.06
7828.3
7828.54
7828.77
7829
7829.22
7829.45
7829.66
7829.88
7830.09
7830.3
7830.5
7830.7
7830.9
7831.1
7831.29
7831.47
7831.66
7831.84
7832.02
7832.2
7832.37
7832.54
7832.71
7832.87
7833.03
7833.19
7833.35
7833.5
7833.65
7833.8
7833.95
7834.09
7834.23
7834.37
7834.5
7834.64
7834.77
7834.9
7835.02
7835.15
7835.27
7835.39
7835.51
7835.62
7835.74
7835.85
7835.96
7836.06
7836.17
7836.27
7836.37
7836.47
7836.57
7836.66
7836.76
7836.85
7836.94
7837.03
7837.11
7837.2
7837.28
7837.36
7837.44
7837.52
7837.59
7837.67
7837.74
7837.81
7837.88
7837.95
7838.01
7838.08
7838.14
7838.2
7838.26
7838.32
7838.38
7838.43
7838.49
7838.54
7838.59
7838.64
7838.69
7838.74
7838.79
7838.83
7838.88
7838.92
7838.96
7839
7839.04
7839.08
7839.12
7839.16
7839.19
7839.23
7839.26
7839.3
7839.33
7839.36
7839.39
7839.42
7839.45
7839.47
7839.5
7839.53
7839.55
7839.57
7839.6
7839.62
7839.64
7839.66
7839.68
7839.7
7839.72
7839.74
7839.76
7839.78
7839.8
7839.81
7839.83
7839.84
7839.86
7839.87
7839.89
7839.9
7839.91
7839.92
7839.94
7839.95
7839.96
7839.97
7839.98
7839.99
7840
7840.01
7840.01
7840.02
7840.03
7840.04
7840.04
7840.05
7840.06
7840.06
7840.07
7840.07
7840.08
7840.08
7840.09
7840.09
7840.09
7840.1
7840.1
7840.11
7840.11
7840.11
7840.12
7840.12
7840.12
7840.13
7840.13
7840.14
7840.14
7840.14
7840.15
7840.15
7840.15
7840.16
7840.16
7840.16
7840.16
7840.17
7840.17
7840.17
7840.18
7840.18
7840.18
7840.18
7840.19
7840.19
7840.19
7840.19
7840.2
7840.2
7840.2
7840.2
7840.2
7840.21
7840.21
7840.21
7840.21
7840.21
7840.21
7840.22
7840.22
7840.22
7840.22
7840.22
7840.22
7840.22
7840.22
7840.23
7840.23
7840.23
7840.23
7840.23
7840.23
7840.23
7840.23
7840.23
7840.23
7840.23
7840.23
7840.23
7840.24
7840.24
7840.24
7840.24
7840.24
7840.24
7840.24
7840.24
7840.24
7840.24
7840.24
7840.24
7840.24
7840.24
7840.24
7840.24
7948.24
7933.81
7926.34
7919.01
7911.82
7904.8
7897.93
7891.22
7884.65
7878.24
7871.99
7865.92
7860.01
7854.26
7848.66
7843.24
7838.01
7832.94
7828.03
7823.28
7818.71
7814.29
7810.05
7805.97
7802.04
7798.26
7794.64
7791.18
7787.87
7784.68
7781.67
7778.91
7776.25
7773.69
7771.24
7768.94
7766.79
7764.79
7762.89
7761.12
7759.46
7757.93
7756.51
7755.19
7753.96
7752.87
7751.89
7750.97
7750.12
7749.41
7748.81
7748.37
7747.92
7747.5
7747.22
7747.03
7746.72
7746.57
7746.55
7746.72
7746.64
7746.68
7746.84
7747.06
7747.44
7747.57
7747.88
7748.32
7748.82
7749.17
7749.5
7749.92
7750.41
7750.96
7751.46
7751.84
7752.3
7752.8
7753.4
7753.88
7754.32
7754.87
7755.56
7756.16
7756.75
7757.26
7757.76
7758.22
7758.73
7759.67
7760.33
7760.84
7761.46
7761.98
7762.51
7763
7763.49
7763.95
7764.45
7764.86
7765.23
7765.54
7765.91
7766.24
7766.5
7766.7
7766.87
7767.11
7767.24
7767.3
7767.35
7767.44
7767.45
7767.38
7767.29
7767.22
7767.12
7766.97
7766.77
7766.55
7766.36
7766.1
7765.81
7765.54
7765.23
7764.85
7764.49
7764.12
7763.73
7763.32
7762.87
7762.41
7761.96
7761.49
7760.99
7760.48
7759.96
7759.46
7758.93
7758.39
7757.82
7757.3
7756.75
7756.18
7755.66
7755.12
7754.58
7754.02
7753.48
7753
7752.5
7752
7751.5
7751.01
7750.56
7750.12
7749.69
7749.29
7748.89
7748.5
7748.12
7747.79
7747.5
7747.19
7746.89
7746.66
7746.45
7746.25
7746.04
7745.89
7745.79
7745.7
7745.61
7745.56
7745.57
7745.59
7745.62
7745.68
7745.79
7745.93
7746.06
7746.26
7746.48
7746.71
7746.96
7747.27
7747.61
7747.95
7748.31
7748.72
7749.16
7749.61
7750.09
7750.58
7751.12
7751.68
7752.24
7752.83
7753.45
7754.09
7754.74
7755.42
7756.11
7756.82
7757.55
7758.3
7759.05
7759.82
7760.61
7761.41
7762.22
7763.04
7763.87
7764.71
7765.56
7766.42
7767.29
7768.16
7769.03
7769.92
7770.8
7771.69
7772.58
7773.48
7774.38
7775.27
7776.16
7777.06
7777.96
7778.85
7779.74
7780.63
7781.51
7782.39
7783.26
7784.13
7785
7785.85
7786.7
7787.55
7788.4
7789.23
7790.05
7790.86
7791.67
7792.47
7793.26
7794.05
7794.82
7795.59
7796.34
7797.09
7797.82
7798.55
7799.27
7799.98
7800.67
7801.36
7802.04
7802.71
7803.37
7804.02
7804.66
7805.29
7805.91
7806.52
7807.13
7807.72
7808.3
7808.88
7809.44
7810
7810.54
7811.08
7811.61
7812.13
7812.64
7813.15
7813.64
7814.13
7814.61
7815.08
7815.54
7816
7816.44
7816.88
7817.31
7817.74
7818.16
7818.57
7818.97
7819.37
7819.76
7820.14
7820.51
7820.88
7821.25
7821.6
7821.95
7822.3
7822.64
7822.97
7823.3
7823.62
7823.94
7824.25
7824.55
7824.85
7825.15
7825.44
7825.72
7826
7826.28
7826.55
7826.82
7827.08
7827.33
7827.59
7827.84
7828.08
7828.32
7828.56
7828.79
7829.02
7829.25
7829.47
7829.69
7829.9
7830.11
7830.32
7830.52
7830.72
7830.92
7831.12
7831.31
7831.49
7831.68
7831.86
7832.04
7832.22
7832.39
7832.56
7832.72
7832.89
7833.05
7833.21
7833.37
7833.52
7833.67
7833.82
7833.96
7834.11
7834.25
7834.39
7834.52
7834.65
7834.79
7834.91
7835.04
7835.16
7835.29
7835.41
7835.52
7835.64
7835.75
7835.86
7835.97
7836.08
7836.18
7836.29
7836.39
7836.49
7836.58
7836.68
7836.77
7836.86
7836.95
7837.04
7837.12
7837.21
7837.29
7837.37
7837.45
7837.53
7837.6
7837.68
7837.75
7837.82
7837.89
7837.96
7838.02
7838.09
7838.15
7838.21
7838.27
7838.33
7838.39
7838.44
7838.5
7838.55
7838.6
7838.65
7838.7
7838.75
7838.8
7838.84
7838.89
7838.93
7838.97
7839.01
7839.05
7839.09
7839.13
7839.17
7839.2
7839.24
7839.27
7839.3
7839.33
7839.36
7839.4
7839.42
7839.45
7839.48
7839.5
7839.53
7839.56
7839.58
7839.6
7839.63
7839.65
7839.67
7839.69
7839.71
7839.73
7839.75
7839.77
7839.78
7839.8
7839.82
7839.83
7839.85
7839.86
7839.88
7839.89
7839.9
7839.91
7839.93
7839.94
7839.95
7839.96
7839.97
7839.98
7839.99
7840
7840.01
7840.02
7840.02
7840.03
7840.04
7840.05
7840.05
7840.06
7840.06
7840.07
7840.07
7840.08
7840.08
7840.09
7840.09
7840.09
7840.1
7840.1
7840.11
7840.11
7840.11
7840.12
7840.12
7840.13
7840.13
7840.13
7840.14
7840.14
7840.14
7840.15
7840.15
7840.15
7840.16
7840.16
7840.16
7840.16
7840.17
7840.17
7840.17
7840.18
7840.18
7840.18
7840.18
7840.19
7840.19
7840.19
7840.19
7840.2
7840.2
7840.2
7840.2
7840.2
7840.21
7840.21
7840.21
7840.21
7840.21
7840.21
7840.22
7840.22
7840.22
7840.22
7840.22
7840.22
7840.22
7840.22
7840.23
7840.23
7840.23
7840.23
7840.23
7840.23
7840.23
7840.23
7840.23
7840.23
7840.23
7840.23
7840.24
7840.24
7840.24
7840.24
7840.24
7840.24
7840.24
7840.24
7840.24
7840.24
7840.24
7840.24
7840.24
7840.24
7840.24
7840.24
7840.24
7946.27
7932.16
7924.66
7917.31
7910.1
7903.07
7896.19
7889.45
7882.88
7876.48
7870.23
7864.17
7858.27
7852.53
7846.96
7841.57
7836.34
7831.29
7826.4
7821.66
7817.1
7812.71
7808.5
7804.45
7800.54
7796.8
7793.21
7789.77
7786.49
7783.38
7780.41
7777.58
7774.9
7772.37
7769.98
7767.73
7765.61
7763.61
7761.75
7760.01
7758.38
7756.87
7755.47
7754.2
7753.03
7751.96
7751
7750.13
7749.33
7748.62
7748.12
7747.63
7747.22
7746.88
7746.61
7746.41
7746.26
7746.14
7746.12
7746.22
7746.31
7746.34
7746.4
7746.71
7747.13
7747.42
7747.66
7748.05
7748.58
7749.03
7749.36
7749.75
7750.23
7750.78
7751.4
7751.94
7752.45
7753.01
7753.4
7753.86
7754.43
7755.02
7755.72
7756.37
7756.86
7757.44
7758.06
7758.71
7759.29
7759.75
7760.16
7760.61
7761.51
7762.25
7762.73
7763.29
7763.72
7764.15
7764.6
7765.1
7765.5
7765.82
7766.18
7766.52
7766.71
7766.95
7767.19
7767.43
7767.56
7767.57
7767.65
7767.7
7767.76
7767.71
7767.59
7767.49
7767.36
7767.27
7767.08
7766.83
7766.58
7766.33
7766.1
7765.79
7765.43
7765.08
7764.72
7764.3
7763.87
7763.44
7763.04
7762.58
7762.1
7761.58
7761.08
7760.6
7760.08
7759.52
7758.95
7758.41
7757.86
7757.33
7756.78
7756.2
7755.62
7755.07
7754.52
7754.01
7753.48
7752.94
7752.39
7751.88
7751.4
7750.89
7750.42
7749.98
7749.57
7749.16
7748.72
7748.33
7747.99
7747.62
7747.29
7746.99
7746.72
7746.48
7746.23
7746.02
7745.84
7745.7
7745.56
7745.46
7745.42
7745.35
7745.33
7745.34
7745.39
7745.48
7745.55
7745.68
7745.83
7746.02
7746.23
7746.47
7746.74
7747.06
7747.36
7747.71
7748.09
7748.5
7748.93
7749.38
7749.87
7750.38
7750.93
7751.49
7752.04
7752.64
7753.26
7753.9
7754.58
7755.24
7755.94
7756.65
7757.39
7758.13
7758.9
7759.7
7760.49
7761.28
7762.09
7762.92
7763.75
7764.6
7765.46
7766.34
7767.19
7768.07
7768.95
7769.84
7770.74
7771.63
7772.53
7773.43
7774.33
7775.23
7776.13
7777.03
7777.93
7778.82
7779.72
7780.61
7781.5
7782.39
7783.27
7784.14
7785.01
7785.87
7786.73
7787.58
7788.42
7789.25
7790.08
7790.9
7791.71
7792.51
7793.3
7794.09
7794.87
7795.63
7796.39
7797.13
7797.87
7798.6
7799.32
7800.03
7800.73
7801.42
7802.1
7802.77
7803.43
7804.08
7804.72
7805.35
7805.97
7806.58
7807.18
7807.78
7808.36
7808.93
7809.5
7810.06
7810.6
7811.14
7811.67
7812.19
7812.7
7813.2
7813.7
7814.18
7814.66
7815.13
7815.59
7816.05
7816.49
7816.93
7817.37
7817.79
7818.21
7818.62
7819.02
7819.41
7819.8
7820.19
7820.56
7820.93
7821.29
7821.65
7822
7822.34
7822.68
7823.01
7823.34
7823.66
7823.98
7824.29
7824.59
7824.89
7825.19
7825.47
7825.76
7826.04
7826.31
7826.59
7826.85
7827.11
7827.37
7827.62
7827.87
7828.12
7828.36
7828.59
7828.83
7829.05
7829.28
7829.5
7829.72
7829.93
7830.14
7830.35
7830.55
7830.75
7830.95
7831.14
7831.33
7831.52
7831.71
7831.89
7832.06
7832.24
7832.41
7832.58
7832.75
7832.91
7833.07
7833.23
7833.39
7833.54
7833.69
7833.84
7833.99
7834.13
7834.27
7834.41
7834.54
7834.68
7834.81
7834.94
7835.06
7835.19
7835.31
7835.43
7835.54
7835.66
7835.77
7835.88
7835.99
7836.1
7836.2
7836.31
7836.41
7836.5
7836.6
7836.7
7836.79
7836.88
7836.97
7837.06
7837.14
7837.23
7837.31
7837.39
7837.47
7837.54
7837.62
7837.69
7837.76
7837.84
7837.9
7837.97
7838.04
7838.1
7838.16
7838.23
7838.28
7838.34
7838.4
7838.46
7838.51
7838.56
7838.61
7838.66
7838.71
7838.76
7838.81
7838.85
7838.9
7838.94
7838.98
7839.02
7839.06
7839.1
7839.14
7839.18
7839.21
7839.25
7839.28
7839.31
7839.34
7839.37
7839.4
7839.43
7839.46
7839.49
7839.51
7839.54
7839.56
7839.59
7839.61
7839.63
7839.65
7839.68
7839.7
7839.72
7839.73
7839.75
7839.77
7839.79
7839.8
7839.82
7839.84
7839.85
7839.87
7839.88
7839.89
7839.91
7839.92
7839.93
7839.94
7839.95
7839.96
7839.97
7839.98
7839.99
7840
7840.01
7840.02
7840.03
7840.03
7840.04
7840.04
7840.05
7840.06
7840.06
7840.07
7840.07
7840.08
7840.08
7840.09
7840.09
7840.09
7840.1
7840.1
7840.11
7840.11
7840.11
7840.12
7840.12
7840.13
7840.13
7840.13
7840.14
7840.14
7840.14
7840.15
7840.15
7840.15
7840.16
7840.16
7840.16
7840.17
7840.17
7840.17
7840.17
7840.18
7840.18
7840.18
7840.18
7840.19
7840.19
7840.19
7840.19
7840.2
7840.2
7840.2
7840.2
7840.2
7840.21
7840.21
7840.21
7840.21
7840.21
7840.21
7840.22
7840.22
7840.22
7840.22
7840.22
7840.22
7840.22
7840.23
7840.23
7840.23
7840.23
7840.23
7840.23
7840.23
7840.23
7840.23
7840.23
7840.23
7840.23
7840.23
7840.24
7840.24
7840.24
7840.24
7840.24
7840.24
7840.24
7840.24
7840.24
7840.24
7840.24
7840.24
7840.24
7840.24
7840.24
7840.24
7840.24
7944.08
7930.22
7922.69
7915.31
7908.06
7900.99
7894.07
7887.31
7880.73
7874.31
7868.06
7861.98
7856.08
7850.34
7844.78
7839.39
7834.19
7829.15
7824.27
7819.55
7815
7810.64
7806.45
7802.42
7798.54
7794.81
7791.25
7787.85
7784.6
7781.51
7778.56
7775.76
7773.1
7770.58
7768.21
7765.97
7763.88
7761.91
7760.05
7758.32
7756.73
7755.27
7753.91
7752.65
7751.54
7750.56
7749.65
7748.77
7748.01
7747.44
7746.99
7746.56
7746.17
7745.89
7745.7
7745.56
7745.47
7745.44
7745.5
7745.6
7745.73
7745.85
7746.06
7746.38
7746.73
7747.08
7747.45
7747.86
7748.34
7748.8
7749.29
7749.78
7750.21
7750.75
7751.39
7751.95
7752.52
7753.08
7753.57
7754.09
7754.83
7755.42
7756
7756.48
7757.07
7757.72
7758.37
7758.96
7759.58
7760.18
7760.75
7761.31
7761.85
7762.27
7762.71
7763.57
7764.19
7764.56
7765.03
7765.4
7765.85
7766.26
7766.62
7766.9
7767.14
7767.41
7767.65
7767.83
7767.93
7767.98
7768.11
7768.17
7768.16
7768.08
7767.96
7767.93
7767.81
7767.61
7767.42
7767.2
7766.98
7766.69
7766.39
7766.08
7765.76
7765.37
7764.97
7764.57
7764.18
7763.7
7763.23
7762.74
7762.28
7761.77
7761.24
7760.73
7760.21
7759.64
7759.07
7758.5
7757.96
7757.4
7756.81
7756.21
7755.64
7755.08
7754.53
7753.97
7753.4
7752.86
7752.34
7751.81
7751.3
7750.8
7750.32
7749.86
7749.42
7748.97
7748.55
7748.16
7747.8
7747.43
7747.1
7746.79
7746.51
7746.25
7746
7745.8
7745.62
7745.46
7745.33
7745.23
7745.15
7745.1
7745.08
7745.1
7745.14
7745.2
7745.3
7745.43
7745.58
7745.76
7745.98
7746.22
7746.49
7746.79
7747.12
7747.47
7747.86
7748.26
7748.7
7749.16
7749.65
7750.16
7750.69
7751.26
7751.84
7752.44
7753.07
7753.72
7754.38
7755.07
7755.77
7756.49
7757.23
7757.99
7758.76
7759.54
7760.34
7761.15
7761.97
7762.81
7763.65
7764.51
7765.37
7766.23
7767.11
7768
7768.89
7769.78
7770.68
7771.58
7772.48
7773.39
7774.3
7775.21
7776.11
7777.02
7777.92
7778.82
7779.72
7780.62
7781.52
7782.41
7783.29
7784.17
7785.04
7785.9
7786.76
7787.61
7788.46
7789.29
7790.13
7790.95
7791.77
7792.57
7793.37
7794.16
7794.93
7795.7
7796.46
7797.21
7797.94
7798.67
7799.4
7800.11
7800.81
7801.5
7802.18
7802.85
7803.51
7804.16
7804.8
7805.43
7806.05
7806.66
7807.26
7807.86
7808.44
7809.01
7809.58
7810.13
7810.68
7811.22
7811.75
7812.27
7812.78
7813.28
7813.77
7814.26
7814.74
7815.21
7815.67
7816.12
7816.57
7817
7817.44
7817.86
7818.27
7818.68
7819.08
7819.48
7819.87
7820.25
7820.62
7820.99
7821.35
7821.71
7822.06
7822.4
7822.74
7823.07
7823.4
7823.72
7824.03
7824.34
7824.65
7824.95
7825.24
7825.53
7825.81
7826.09
7826.37
7826.63
7826.9
7827.16
7827.42
7827.67
7827.92
7828.16
7828.4
7828.64
7828.87
7829.1
7829.32
7829.54
7829.76
7829.97
7830.18
7830.39
7830.59
7830.79
7830.99
7831.18
7831.37
7831.56
7831.74
7831.92
7832.1
7832.27
7832.45
7832.62
7832.78
7832.95
7833.11
7833.26
7833.42
7833.57
7833.72
7833.87
7834.02
7834.16
7834.3
7834.44
7834.57
7834.7
7834.84
7834.96
7835.09
7835.21
7835.33
7835.45
7835.57
7835.69
7835.8
7835.91
7836.02
7836.12
7836.23
7836.33
7836.43
7836.53
7836.63
7836.72
7836.81
7836.9
7836.99
7837.08
7837.16
7837.25
7837.33
7837.41
7837.49
7837.56
7837.64
7837.71
7837.78
7837.85
7837.92
7837.99
7838.06
7838.12
7838.18
7838.24
7838.3
7838.36
7838.42
7838.47
7838.53
7838.58
7838.63
7838.68
7838.73
7838.78
7838.82
7838.87
7838.91
7838.95
7839
7839.04
7839.08
7839.11
7839.15
7839.19
7839.22
7839.26
7839.29
7839.32
7839.35
7839.38
7839.41
7839.44
7839.47
7839.5
7839.52
7839.55
7839.57
7839.6
7839.62
7839.64
7839.66
7839.68
7839.7
7839.72
7839.74
7839.76
7839.78
7839.8
7839.81
7839.83
7839.84
7839.86
7839.87
7839.89
7839.9
7839.91
7839.93
7839.94
7839.95
7839.96
7839.97
7839.98
7839.99
7840
7840.01
7840.01
7840.02
7840.02
7840.03
7840.04
7840.04
7840.05
7840.06
7840.06
7840.07
7840.07
7840.08
7840.08
7840.09
7840.09
7840.09
7840.1
7840.1
7840.11
7840.11
7840.11
7840.12
7840.12
7840.13
7840.13
7840.13
7840.14
7840.14
7840.14
7840.15
7840.15
7840.15
7840.16
7840.16
7840.16
7840.17
7840.17
7840.17
7840.17
7840.18
7840.18
7840.18
7840.19
7840.19
7840.19
7840.19
7840.19
7840.2
7840.2
7840.2
7840.2
7840.21
7840.21
7840.21
7840.21
7840.21
7840.21
7840.22
7840.22
7840.22
7840.22
7840.22
7840.22
7840.22
7840.22
7840.23
7840.23
7840.23
7840.23
7840.23
7840.23
7840.23
7840.23
7840.23
7840.23
7840.23
7840.23
7840.24
7840.24
7840.24
7840.24
7840.24
7840.24
7840.24
7840.24
7840.24
7840.24
7840.24
7840.24
7840.24
7840.24
7840.24
7840.24
7840.24
7840.24
7941.25
7927.77
7920.2
7912.76
7905.46
7898.38
7891.45
7884.67
7878.07
7871.62
7865.34
7859.26
7853.38
7847.66
7842.1
7836.71
7831.48
7826.43
7821.57
7816.87
7812.34
7808
7803.83
7799.81
7795.9
7792.17
7788.63
7785.29
7782.12
7779.09
7776.21
7773.45
7770.75
7768.2
7765.86
7763.72
7761.75
7759.78
7757.77
7755.88
7754.45
7753.31
7751.94
7750.45
7749.49
7748.88
7748.07
7746.92
7746.15
7745.86
7745.51
7745.06
7744.74
7744.62
7744.49
7744.33
7744.33
7744.49
7744.63
7744.78
7744.92
7745.15
7745.42
7745.67
7745.96
7746.47
7746.94
7747.39
7747.81
7748.34
7748.93
7749.47
7749.96
7750.45
7751.13
7751.8
7752.44
7753.04
7753.55
7754.24
7754.95
7755.58
7756.1
7756.64
7757.42
7758.07
7758.68
7759.21
7759.75
7760.36
7761.01
7761.68
7762.26
7762.81
7763.38
7763.89
7764.34
7764.8
7765.47
7765.95
7766.24
7766.73
7767.04
7767.39
7767.67
7767.9
7768.08
7768.29
7768.43
7768.52
7768.55
7768.62
7768.62
7768.54
7768.45
7768.39
7768.26
7768.05
7767.82
7767.65
7767.4
7767.12
7766.78
7766.44
7766.1
7765.74
7765.33
7764.91
7764.45
7764
7763.52
7763.01
7762.53
7761.98
7761.45
7760.89
7760.34
7759.79
7759.21
7758.64
7758.03
7757.47
7756.88
7756.3
7755.7
7755.11
7754.52
7753.93
7753.32
7752.83
7752.28
7751.74
7751.15
7750.71
7750.22
7749.73
7749.26
7748.77
7748.39
7747.98
7747.6
7747.24
7746.9
7746.58
7746.29
7746.01
7745.75
7745.55
7745.36
7745.2
7745.06
7744.96
7744.88
7744.83
7744.79
7744.82
7744.86
7744.92
7745
7745.12
7745.29
7745.48
7745.68
7745.94
7746.21
7746.51
7746.83
7747.19
7747.58
7747.99
7748.43
7748.9
7749.39
7749.9
7750.43
7751.01
7751.6
7752.22
7752.85
7753.5
7754.16
7754.86
7755.58
7756.3
7757.03
7757.81
7758.59
7759.38
7760.19
7761.01
7761.84
7762.66
7763.53
7764.4
7765.27
7766.14
7767.02
7767.9
7768.82
7769.72
7770.63
7771.53
7772.42
7773.36
7774.27
7775.18
7776.09
7777
7777.92
7778.83
7779.72
7780.62
7781.53
7782.43
7783.31
7784.2
7785.08
7785.94
7786.81
7787.67
7788.52
7789.34
7790.19
7791.02
7791.84
7792.64
7793.44
7794.23
7795.01
7795.78
7796.54
7797.29
7798.04
7798.77
7799.49
7800.2
7800.9
7801.59
7802.27
7802.94
7803.6
7804.25
7804.89
7805.52
7806.14
7806.76
7807.36
7807.95
7808.54
7809.11
7809.67
7810.23
7810.77
7811.31
7811.84
7812.36
7812.87
7813.37
7813.86
7814.35
7814.82
7815.29
7815.75
7816.2
7816.65
7817.09
7817.52
7817.94
7818.35
7818.76
7819.16
7819.56
7819.94
7820.32
7820.7
7821.07
7821.43
7821.78
7822.13
7822.47
7822.81
7823.14
7823.47
7823.78
7824.1
7824.41
7824.71
7825.01
7825.3
7825.59
7825.87
7826.15
7826.42
7826.69
7826.96
7827.22
7827.47
7827.72
7827.97
7828.21
7828.45
7828.69
7828.92
7829.15
7829.37
7829.59
7829.81
7830.02
7830.23
7830.43
7830.64
7830.83
7831.03
7831.22
7831.41
7831.6
7831.78
7831.96
7832.14
7832.31
7832.49
7832.65
7832.82
7832.98
7833.14
7833.3
7833.46
7833.61
7833.76
7833.91
7834.05
7834.19
7834.33
7834.47
7834.61
7834.74
7834.87
7835
7835.12
7835.25
7835.37
7835.49
7835.6
7835.72
7835.83
7835.94
7836.05
7836.15
7836.26
7836.36
7836.46
7836.56
7836.65
7836.75
7836.84
7836.93
7837.02
7837.11
7837.19
7837.27
7837.36
7837.44
7837.51
7837.59
7837.66
7837.74
7837.81
7837.88
7837.95
7838.01
7838.08
7838.14
7838.2
7838.26
7838.32
7838.38
7838.44
7838.49
7838.55
7838.6
7838.65