/*--------------------------------*- C++ -*----------------------------------*\
| =========                 |                                                 |
| \\      /  F ield         | OpenFOAM: The Open Source CFD Toolbox           |
|  \\    /   O peration     | Version:  v2006                                 |
|   \\  /    A nd           | Website:  www.openfoam.com                      |
|    \\/     M anipulation  |                                                 |
\*---------------------------------------------------------------------------*/
FoamFile
{
    version     2.0;
    format      ascii;
    class       surfaceScalarField;
    location    "2.1";
    object      phi;
}
// * * * * * * * * * * * * * * * * * * * * * * * * * * * * * * * * * * * * * //

dimensions      [0 3 -1 0 0 0 0];
oriented        oriented;


internalField   nonuniform List<scalar> 
65390
(
6.87812e-07
3.39345e-07
-2.80346e-07
9.70616e-07
-1.19208e-06
9.13415e-07
-2.04411e-06
8.53278e-07
-2.93351e-06
8.90824e-07
-3.77002e-06
8.37568e-07
-4.58914e-06
8.20243e-07
-5.3707e-06
7.82541e-07
-6.11903e-06
7.49144e-07
-6.85558e-06
7.37664e-07
-7.59044e-06
7.36223e-07
-8.30624e-06
7.17062e-07
-8.99648e-06
6.91549e-07
-9.64357e-06
6.48818e-07
-1.02258e-05
5.8439e-07
-1.078e-05
5.56504e-07
-1.13361e-05
5.58466e-07
-1.19137e-05
5.80077e-07
-1.25326e-05
6.21634e-07
-1.31227e-05
5.92912e-07
-1.35688e-05
4.4889e-07
-1.39166e-05
3.50466e-07
-1.4288e-05
3.7376e-07
-1.4755e-05
4.69239e-07
-1.52289e-05
4.75803e-07
-1.56003e-05
3.72977e-07
-1.58783e-05
2.79255e-07
-1.61339e-05
2.56499e-07
-1.65094e-05
3.75998e-07
-1.68683e-05
3.59178e-07
-1.70551e-05
1.87127e-07
-1.71633e-05
1.08231e-07
-1.73391e-05
1.75633e-07
-1.75966e-05
2.57382e-07
-1.78514e-05
2.54366e-07
-1.79227e-05
7.08037e-08
-1.78774e-05
-4.60216e-08
-1.79215e-05
4.31569e-08
-1.80583e-05
1.35709e-07
-1.81759e-05
1.163e-07
-1.83065e-05
1.29272e-07
-1.82368e-05
-7.08653e-08
-1.8034e-05
-2.03781e-07
-1.79453e-05
-8.95272e-08
-1.79684e-05
2.23398e-08
-1.7908e-05
-6.09308e-08
-1.77091e-05
-1.99329e-07
-1.75298e-05
-1.79686e-07
-1.74361e-05
-9.41777e-08
-1.72961e-05
-1.40602e-07
-1.70712e-05
-2.25547e-07
-1.67703e-05
-3.01525e-07
-1.65233e-05
-2.47668e-07
-1.62935e-05
-2.30515e-07
-1.60513e-05
-2.42771e-07
-1.57547e-05
-2.97213e-07
-1.54846e-05
-2.70521e-07
-1.52929e-05
-1.9213e-07
-1.51052e-05
-1.88109e-07
-1.48626e-05
-2.42864e-07
-1.45261e-05
-3.36777e-07
-1.41887e-05
-3.37645e-07
-1.3998e-05
-1.90946e-07
-1.37685e-05
-2.29695e-07
-1.34853e-05
-2.83484e-07
-1.30974e-05
-3.88151e-07
-1.268e-05
-4.17649e-07
-1.235e-05
-3.30325e-07
-1.19858e-05
-3.64389e-07
-1.15764e-05
-4.09669e-07
-1.11919e-05
-3.84784e-07
-1.07731e-05
-4.18979e-07
-1.02933e-05
-4.80063e-07
-9.60961e-06
-6.84028e-07
-8.9386e-06
-6.71358e-07
-8.07233e-06
-8.66615e-07
-6.92276e-06
-1.14985e-06
-5.51819e-06
-1.40474e-06
-4.37528e-06
-1.14306e-06
-3.81698e-06
-5.58456e-07
-3.55057e-06
-2.66437e-07
-3.52476e-06
-2.56612e-08
-3.49506e-06
-2.96164e-08
-3.43382e-06
-6.1087e-08
-3.39936e-06
-3.42986e-08
-3.27327e-06
-1.25801e-07
-3.13177e-06
-1.41249e-07
-3.03928e-06
-9.23234e-08
-2.96364e-06
-7.54955e-08
-2.89462e-06
-6.88059e-08
-2.79266e-06
-1.01635e-07
-2.67475e-06
-1.17535e-07
-2.54313e-06
-1.31195e-07
-2.42097e-06
-1.2166e-07
-2.28292e-06
-1.37498e-07
-2.11905e-06
-1.63336e-07
-1.8826e-06
-2.35961e-07
-1.60871e-06
-2.73468e-07
-1.28227e-06
-3.26101e-07
-1.01614e-06
-2.65856e-07
-8.74342e-07
-1.41555e-07
-8.00692e-07
-7.34035e-08
-7.69002e-07
-3.13995e-08
-7.11239e-07
-5.74041e-08
-6.89751e-07
-2.10469e-08
-6.71387e-07
-1.78407e-08
-6.22728e-07
-4.80734e-08
-5.65276e-07
-5.6836e-08
-5.22698e-07
-4.19683e-08
-4.92511e-07
-2.96142e-08
-4.5797e-07
-3.40365e-08
-4.27036e-07
-3.0519e-08
-3.80034e-07
-4.66897e-08
-3.15098e-07
-6.47271e-08
-2.1097e-07
-1.04016e-07
-7.40551e-08
-1.36883e-07
1.22792e-07
-1.96876e-07
2.70521e-07
-1.47796e-07
3.21128e-07
-5.06941e-08
3.30047e-07
-9.00726e-09
2.96174e-07
3.37972e-08
2.76369e-07
1.97543e-08
2.12793e-07
6.35577e-08
1.54908e-07
5.79028e-08
1.22613e-07
3.2349e-08
8.65894e-08
3.61104e-08
5.33887e-08
3.33154e-08
9.33615e-09
4.41887e-08
-4.37781e-08
5.32659e-08
-8.97236e-08
4.61066e-08
-1.28027e-07
3.84673e-08
-1.78558e-07
5.06956e-08
-2.3201e-07
5.36155e-08
-2.85851e-07
5.40034e-08
-3.35648e-07
4.99565e-08
-3.85767e-07
5.02785e-08
-4.47304e-07
6.16946e-08
-5.08805e-07
6.16567e-08
-5.69607e-07
6.09556e-08
-6.26546e-07
5.70905e-08
-6.9331e-07
6.69152e-08
-7.60133e-07
6.69714e-08
-8.26309e-07
6.63188e-08
-8.93366e-07
6.71968e-08
-9.63698e-07
7.04684e-08
-1.03296e-06
6.93931e-08
-1.09997e-06
6.71498e-08
-1.16594e-06
6.61031e-08
-1.23822e-06
7.24087e-08
-1.30943e-06
7.13313e-08
-1.38088e-06
7.15832e-08
-1.45266e-06
7.19027e-08
-1.51855e-06
6.60048e-08
-1.58287e-06
6.44393e-08
-1.65332e-06
7.05482e-08
-1.72447e-06
7.12478e-08
-1.79335e-06
6.89716e-08
-1.85796e-06
6.46836e-08
-1.92223e-06
6.43373e-08
-1.99055e-06
6.8377e-08
-2.05816e-06
6.76479e-08
-2.12266e-06
6.45438e-08
-2.18425e-06
6.16139e-08
-2.24894e-06
6.47152e-08
-2.31383e-06
6.4902e-08
-2.3774e-06
6.35785e-08
-2.43711e-06
5.97115e-08
-2.49756e-06
6.04535e-08
-2.55882e-06
6.12507e-08
-2.61982e-06
6.09957e-08
-2.67808e-06
5.82508e-08
-2.73324e-06
5.51612e-08
-2.78911e-06
5.58611e-08
-2.84564e-06
5.65268e-08
-2.89973e-06
5.40796e-08
-2.95209e-06
5.23543e-08
-3.00272e-06
5.06233e-08
-3.05284e-06
5.01165e-08
-3.1017e-06
4.88528e-08
-3.14925e-06
4.75409e-08
-3.19551e-06
4.6242e-08
-3.23979e-06
4.42766e-08
-3.28272e-06
4.29233e-08
-3.32466e-06
4.19298e-08
-3.36492e-06
4.02435e-08
-3.40313e-06
3.8199e-08
-3.43904e-06
3.59012e-08
-3.4746e-06
3.55537e-08
-3.50881e-06
3.42047e-08
-3.54132e-06
3.25025e-08
-3.57105e-06
2.97224e-08
-3.59994e-06
2.88836e-08
-3.62748e-06
2.75416e-08
-3.65312e-06
2.56392e-08
-3.67709e-06
2.39721e-08
-3.69914e-06
2.20529e-08
-3.72001e-06
2.08791e-08
-3.73919e-06
1.91868e-08
-3.7566e-06
1.7425e-08
-3.77184e-06
1.5258e-08
-3.78588e-06
1.40622e-08
-3.79843e-06
1.25659e-08
-3.80953e-06
1.11354e-08
-3.81885e-06
9.35554e-09
-3.8264e-06
7.5884e-09
-3.83212e-06
5.7534e-09
-3.83602e-06
3.94948e-09
-3.83962e-06
3.6523e-09
-3.84112e-06
1.5551e-09
-3.84095e-06
-1.0821e-10
-3.83891e-06
-1.9729e-09
-3.83598e-06
-2.85307e-09
-3.83157e-06
-4.33758e-09
-3.82567e-06
-5.82191e-09
-3.81822e-06
-7.35891e-09
-3.80896e-06
-9.17144e-09
-3.79904e-06
-9.82235e-09
-3.7878e-06
-1.11445e-08
-3.77523e-06
-1.24705e-08
-3.76144e-06
-1.36734e-08
-3.7461e-06
-1.52267e-08
-3.72872e-06
-1.7264e-08
-3.711e-06
-1.75936e-08
-3.69222e-06
-1.86517e-08
-3.67242e-06
-1.96721e-08
-3.65145e-06
-2.08429e-08
-3.6293e-06
-2.20178e-08
-3.60595e-06
-2.32203e-08
-3.58146e-06
-2.43531e-08
-3.55619e-06
-2.5126e-08
-3.52997e-06
-2.60767e-08
-3.50283e-06
-2.69951e-08
-3.47479e-06
-2.79023e-08
-3.44581e-06
-2.88356e-08
-3.41606e-06
-2.96027e-08
-3.38568e-06
-3.02449e-08
-3.35467e-06
-3.08767e-08
-3.32296e-06
-3.15726e-08
-3.29038e-06
-3.24573e-08
-3.25729e-06
-3.29601e-08
-3.2237e-06
-3.34604e-08
-3.18954e-06
-3.40268e-08
-3.1549e-06
-3.45044e-08
-3.11979e-06
-3.49698e-08
-3.08425e-06
-3.53925e-08
-3.04835e-06
-3.57557e-08
-3.01213e-06
-3.60839e-08
-2.97562e-06
-3.63596e-08
-2.93876e-06
-3.67233e-08
-2.90169e-06
-3.69321e-08
-2.86446e-06
-3.70945e-08
-2.82708e-06
-3.7243e-08
-2.78957e-06
-3.73722e-08
-2.75197e-06
-3.74614e-08
-2.71433e-06
-3.75032e-08
-2.67661e-06
-3.75827e-08
-2.63876e-06
-3.77114e-08
-2.60089e-06
-3.7734e-08
-2.56304e-06
-3.77154e-08
-2.52522e-06
-3.76868e-08
-2.48746e-06
-3.76225e-08
-2.44982e-06
-3.75101e-08
-2.41234e-06
-3.73521e-08
-2.37502e-06
-3.71859e-08
-2.33786e-06
-3.70271e-08
-2.30086e-06
-3.68617e-08
-2.26405e-06
-3.66761e-08
-2.22744e-06
-3.64736e-08
-2.19103e-06
-3.62586e-08
-2.15487e-06
-3.60243e-08
-2.11897e-06
-3.57556e-08
-2.08338e-06
-3.54423e-08
-2.04814e-06
-3.50964e-08
-2.01324e-06
-3.47512e-08
-1.97866e-06
-3.44231e-08
-1.94442e-06
-3.40881e-08
-1.91053e-06
-3.37348e-08
-1.877e-06
-3.33704e-08
-1.84385e-06
-3.2994e-08
-1.81107e-06
-3.26136e-08
-1.77869e-06
-3.22252e-08
-1.74669e-06
-3.18386e-08
-1.71508e-06
-3.1465e-08
-1.68381e-06
-3.11127e-08
-1.65291e-06
-3.07569e-08
-1.62236e-06
-3.0401e-08
-1.59218e-06
-3.00411e-08
-1.56236e-06
-2.96792e-08
-1.53289e-06
-2.93211e-08
-1.50379e-06
-2.89608e-08
-1.47506e-06
-2.85927e-08
-1.4467e-06
-2.82134e-08
-1.41875e-06
-2.78173e-08
-1.3912e-06
-2.74074e-08
-1.36408e-06
-2.69854e-08
-1.3374e-06
-2.65508e-08
-1.31116e-06
-2.61123e-08
-1.28536e-06
-2.5673e-08
-1.26e-06
-2.52372e-08
-1.23508e-06
-2.48037e-08
-1.21059e-06
-2.43719e-08
-1.18653e-06
-2.39457e-08
-1.1629e-06
-2.35284e-08
-1.13967e-06
-2.31232e-08
-1.11683e-06
-2.27346e-08
-1.09437e-06
-2.23577e-08
-1.07229e-06
-2.19879e-08
-1.05057e-06
-2.16236e-08
-1.02921e-06
-2.12672e-08
-1.00821e-06
-2.09134e-08
-9.87563e-07
-2.05581e-08
-9.67274e-07
-2.02022e-08
-9.47343e-07
-1.98451e-08
-9.27772e-07
-1.9487e-08
-9.08558e-07
-1.91294e-08
-8.89701e-07
-1.87743e-08
-8.71195e-07
-1.84229e-08
-8.53037e-07
-1.80764e-08
-8.3522e-07
-1.77348e-08
-8.17743e-07
-1.73963e-08
-8.00602e-07
-1.70606e-08
-7.83794e-07
-1.67276e-08
-7.67317e-07
-1.63984e-08
-7.51164e-07
-1.6074e-08
-7.35336e-07
-1.57507e-08
-7.19836e-07
-1.54242e-08
-7.04669e-07
-1.50913e-08
-6.89838e-07
-1.47564e-08
-6.75335e-07
-1.44296e-08
-6.61144e-07
-1.41192e-08
-6.47248e-07
-1.38247e-08
-6.33636e-07
-1.35417e-08
-6.20297e-07
-1.32697e-08
-6.07214e-07
-1.30149e-08
-5.94367e-07
-1.27799e-08
-5.81746e-07
-1.25555e-08
-5.69355e-07
-1.23264e-08
-5.57205e-07
-1.20869e-08
-5.45298e-07
-1.18439e-08
-5.33632e-07
-1.16044e-08
-5.22206e-07
-1.13664e-08
-5.11022e-07
-1.11246e-08
-5.00081e-07
-1.08824e-08
-4.89374e-07
-1.06504e-08
-4.78884e-07
-1.04342e-08
-4.68599e-07
-1.02301e-08
-4.58511e-07
-1.00343e-08
-4.48609e-07
-9.84854e-09
-4.38884e-07
-9.67306e-09
-4.29332e-07
-9.50152e-09
-4.19955e-07
-9.3277e-09
-4.10756e-07
-9.15092e-09
-4.01739e-07
-8.97164e-09
-3.92907e-07
-8.78812e-09
-3.84263e-07
-8.60211e-09
-3.75802e-07
-8.42209e-09
-3.67508e-07
-8.25568e-09
-3.59369e-07
-8.10249e-09
-3.51375e-07
-7.95833e-09
-3.43518e-07
-7.82191e-09
-3.35791e-07
-7.69305e-09
-3.28189e-07
-7.56687e-09
-3.2072e-07
-7.43486e-09
-3.13393e-07
-7.29295e-09
-3.06214e-07
-7.14489e-09
-2.99184e-07
-6.99774e-09
-2.92297e-07
-6.8565e-09
-2.85543e-07
-6.7236e-09
-2.78913e-07
-6.60133e-09
-2.72393e-07
-6.49143e-09
-2.65974e-07
-6.39237e-09
-2.59649e-07
-6.29795e-09
-2.53422e-07
-6.20084e-09
-2.47299e-07
-6.09743e-09
-2.41284e-07
-5.98983e-09
-2.35376e-07
-5.88228e-09
-2.29575e-07
-5.77609e-09
-2.23879e-07
-5.67032e-09
-2.18286e-07
-5.56766e-09
-2.12786e-07
-5.47489e-09
-2.07367e-07
-5.39399e-09
-2.02024e-07
-5.31741e-09
-1.96764e-07
-5.23507e-09
-1.91596e-07
-5.14136e-09
-1.86533e-07
-5.03638e-09
-1.81581e-07
-4.92486e-09
-1.76739e-07
-4.8154e-09
-1.71995e-07
-4.71591e-09
-1.6734e-07
-4.62831e-09
-1.62764e-07
-4.54968e-09
-1.58263e-07
-4.47486e-09
-1.53842e-07
-4.39695e-09
-1.49509e-07
-4.30975e-09
-1.45274e-07
-4.21207e-09
-1.41146e-07
-4.10766e-09
-1.37123e-07
-4.00233e-09
-1.332e-07
-3.90336e-09
-1.29363e-07
-3.81813e-09
-1.25595e-07
-3.75023e-09
-1.21884e-07
-3.69369e-09
-1.18232e-07
-3.63496e-09
-1.14651e-07
-3.56465e-09
-1.1115e-07
-3.48515e-09
-1.0773e-07
-3.40563e-09
-1.04388e-07
-3.32723e-09
-1.01122e-07
-3.25152e-09
-9.79209e-08
-3.18769e-09
-9.47761e-08
-3.13148e-09
-9.16922e-08
-3.07095e-09
-8.86801e-08
-2.99936e-09
-8.5747e-08
-2.92079e-09
-8.28904e-08
-2.8446e-09
-8.00992e-08
-2.77965e-09
-7.73613e-08
-2.72691e-09
-7.46767e-08
-2.67419e-09
-7.20487e-08
-2.6182e-09
-6.94779e-08
-2.56175e-09
-6.69714e-08
-2.49824e-09
-6.45286e-08
-2.43518e-09
-6.21392e-08
-2.38236e-09
-5.97993e-08
-2.33354e-09
-5.7529e-08
-2.2643e-09
-5.53363e-08
-2.18714e-09
-5.32169e-08
-2.11402e-09
-5.11625e-08
-2.04904e-09
-4.91309e-08
-2.02633e-09
-4.71367e-08
-1.98874e-09
-4.51394e-08
-1.99172e-09
-4.32459e-08
-1.88781e-09
-4.14047e-08
-1.83522e-09
-3.9574e-08
-1.82443e-09
-3.77705e-08
-1.79715e-09
-3.59415e-08
-1.82238e-09
-3.41628e-08
-1.77185e-09
-3.24211e-08
-1.73473e-09
-3.07661e-08
-1.64793e-09
-2.91674e-08
-1.59159e-09
-2.76052e-08
-1.55493e-09
-2.6085e-08
-1.51298e-09
-2.45602e-08
-1.51755e-09
-2.31125e-08
-1.44051e-09
-2.17767e-08
-1.32869e-09
-2.04756e-08
-1.29421e-09
-1.9216e-08
-1.25291e-09
-1.79433e-08
-1.26616e-09
-1.67314e-08
-1.20574e-09
-1.55679e-08
-1.15758e-09
-1.44163e-08
-1.14611e-09
-1.3258e-08
-1.15298e-09
-1.20841e-08
-1.16876e-09
-1.1006e-08
-1.07326e-09
-9.91617e-09
-1.08506e-09
-8.93892e-09
-9.72646e-10
-8.00987e-09
-9.2453e-10
-7.1993e-09
-8.06154e-10
-6.36863e-09
-8.26343e-10
-5.51466e-09
-8.49787e-10
-4.79508e-09
-7.15559e-10
-4.00896e-09
-7.82316e-10
-3.20607e-09
-7.99306e-10
-2.49065e-09
-7.1206e-10
-1.89087e-09
-5.96577e-10
-1.42884e-09
-4.5887e-10
-9.3383e-10
-4.91757e-10
-6.17966e-10
-3.12385e-10
-2.09413e-10
-4.04155e-10
7.17464e-10
-9.20717e-10
8.78029e-10
-1.47927e-10
1.34109e-09
-4.46911e-10
1.61064e-09
-2.43215e-10
1.63665e-09
1.81692e-11
1.91993e-09
-2.43007e-10
2.12512e-09
-1.68243e-10
2.31416e-09
-1.55023e-10
2.49422e-09
-1.48683e-10
2.60057e-09
-7.73916e-11
2.62784e-09
-5.13136e-13
2.59991e-09
5.27079e-11
2.54132e-09
8.15784e-11
2.44918e-09
1.1355e-10
2.36393e-09
1.05228e-10
2.33648e-09
4.6135e-11
2.37416e-09
-2.01906e-11
2.42944e-09
-3.89155e-11
2.46974e-09
-2.49894e-11
2.50229e-09
-1.82693e-11
2.55753e-09
-4.19372e-11
2.65827e-09
-8.83295e-11
2.81081e-09
-1.4097e-10
2.98794e-09
-1.66309e-10
3.15779e-09
-1.59671e-10
3.28978e-09
-1.22358e-10
3.36839e-09
-6.9424e-11
3.40521e-09
-2.80056e-11
3.39907e-09
1.46455e-11
3.37454e-09
3.27657e-11
3.35149e-09
3.10219e-11
3.35016e-09
9.04107e-12
3.39715e-09
-3.95483e-11
3.50742e-09
-1.03095e-10
3.7232e-09
-2.08891e-10
4.05769e-09
-3.27874e-10
4.52176e-09
-4.57697e-10
5.10222e-09
-5.74316e-10
5.77408e-09
-6.65907e-10
6.5052e-09
-7.25333e-10
7.26329e-09
-7.52452e-10
8.02132e-09
-7.52509e-10
8.75957e-09
-7.32842e-10
9.4609e-09
-6.96009e-10
1.01046e-08
-6.38449e-10
1.06655e-08
-5.55694e-10
1.11225e-08
-4.51931e-10
1.14773e-08
-3.49753e-10
1.17427e-08
-2.60362e-10
1.19627e-08
-2.15031e-10
1.2183e-08
-2.15447e-10
1.24465e-08
-2.58714e-10
1.27878e-08
-3.36531e-10
1.32325e-08
-4.39956e-10
1.37771e-08
-5.40016e-10
1.43817e-08
-5.99919e-10
1.49466e-08
-5.60374e-10
1.53585e-08
-4.0721e-10
1.55829e-08
-2.19702e-10
1.57293e-08
-1.41697e-10
1.598e-08
-2.4592e-10
1.64458e-08
-4.61002e-10
1.69719e-08
-5.21273e-10
1.72576e-08
-2.80882e-10
1.71145e-08
1.48097e-10
1.67144e-08
4.05017e-10
1.64391e-08
2.80374e-10
1.65245e-08
-8.01168e-11
1.66743e-08
-1.44453e-10
1.64918e-08
1.88187e-10
1.60157e-08
4.82038e-10
1.57379e-08
2.83984e-10
1.59928e-08
-2.48354e-10
1.63742e-08
-3.74657e-10
1.64583e-08
-7.69617e-11
1.65258e-08
-6.01148e-11
1.70488e-08
-5.15305e-10
1.77774e-08
-7.20628e-10
1.79897e-08
-2.04062e-10
1.78272e-08
1.70839e-10
1.7805e-08
3.06512e-11
1.74628e-08
3.50498e-10
1.71893e-08
2.81007e-10
1.36022e-09
1.53756e-07
1.14794e-06
-6.63827e-07
1.7937e-06
-1.53191e-06
1.78671e-06
-2.44903e-06
1.77548e-06
-3.30411e-06
1.75153e-06
-4.12788e-06
1.6669e-06
-4.92908e-06
1.62721e-06
-5.72374e-06
1.58325e-06
-6.49016e-06
1.52161e-06
-7.22927e-06
1.4827e-06
-7.95463e-06
1.46724e-06
-8.65474e-06
1.42242e-06
-9.32592e-06
1.36755e-06
-9.96858e-06
1.2959e-06
-1.05936e-05
1.21328e-06
-1.12047e-05
1.17095e-06
-1.17762e-05
1.13281e-06
-1.23219e-05
1.12815e-06
-1.28467e-05
1.14861e-06
-1.33375e-05
1.08558e-06
-1.37906e-05
9.03487e-07
-1.42268e-05
7.87994e-07
-1.4655e-05
8.03032e-07
-1.50537e-05
8.68926e-07
-1.54017e-05
8.24617e-07
-1.57378e-05
7.09684e-07
-1.60313e-05
5.73104e-07
-1.6335e-05
5.60396e-07
-1.66743e-05
7.15221e-07
-1.70318e-05
7.16365e-07
-1.73289e-05
4.83717e-07
-1.74846e-05
2.63273e-07
-1.75579e-05
2.48031e-07
-1.76378e-05
3.36235e-07
-1.77849e-05
4.00341e-07
-1.79734e-05
2.5816e-07
-1.80902e-05
6.97276e-08
-1.81105e-05
6.24729e-08
-1.80947e-05
1.1896e-07
-1.81163e-05
1.37176e-07
-1.81843e-05
1.96808e-07
-1.81607e-05
-9.47143e-08
-1.80632e-05
-3.01177e-07
-1.79354e-05
-2.1712e-07
-1.78411e-05
-7.15879e-08
-1.77905e-05
-1.10961e-07
-1.7717e-05
-2.72294e-07
-1.76224e-05
-2.739e-07
-1.74823e-05
-2.33946e-07
-1.73123e-05
-3.10459e-07
-1.71195e-05
-4.18225e-07
-1.69171e-05
-5.04015e-07
-1.67052e-05
-4.59755e-07
-1.64727e-05
-4.63178e-07
-1.62098e-05
-5.05921e-07
-1.59314e-05
-5.75916e-07
-1.56442e-05
-5.58033e-07
-1.53992e-05
-4.37529e-07
-1.51966e-05
-3.91154e-07
-1.49142e-05
-5.25598e-07
-1.45833e-05
-6.68121e-07
-1.42891e-05
-6.32345e-07
-1.407e-05
-4.10611e-07
-1.38512e-05
-4.49044e-07
-1.35368e-05
-5.98572e-07
-1.31739e-05
-7.51674e-07
-1.28241e-05
-7.6828e-07
-1.24397e-05
-7.15555e-07
-1.2051e-05
-7.53863e-07
-1.173e-05
-7.31534e-07
-1.13906e-05
-7.25197e-07
-1.09549e-05
-8.55725e-07
-1.05015e-05
-9.34568e-07
-1.00784e-05
-1.10831e-06
-9.64616e-06
-1.10486e-06
-9.24098e-06
-1.27296e-06
-8.92539e-06
-1.46643e-06
-8.72595e-06
-1.60518e-06
-8.16176e-06
-1.70877e-06
-7.07462e-06
-1.6466e-06
-5.73614e-06
-1.60538e-06
-4.52318e-06
-1.2394e-06
-3.85013e-06
-7.0263e-07
-3.4452e-06
-4.66301e-07
-3.25915e-06
-2.20803e-07
-3.15594e-06
-2.29056e-07
-3.09681e-06
-2.00516e-07
-3.07442e-06
-1.1492e-07
-3.03777e-06
-1.12291e-07
-2.93121e-06
-1.75422e-07
-2.7921e-06
-2.40616e-07
-2.68627e-06
-2.23154e-07
-2.57871e-06
-2.38476e-07
-2.47241e-06
-2.27606e-07
-2.36864e-06
-2.40898e-07
-2.258e-06
-2.73671e-07
-2.15383e-06
-3.39915e-07
-2.05326e-06
-3.73883e-07
-1.97354e-06
-4.05721e-07
-1.81098e-06
-4.2834e-07
-1.56342e-06
-3.88991e-07
-1.24778e-06
-3.88815e-07
-9.79132e-07
-2.99672e-07
-8.2494e-07
-2.11073e-07
-6.97983e-07
-1.47337e-07
-6.20358e-07
-9.46857e-08
-5.62882e-07
-1.04707e-07
-5.28359e-07
-9.05094e-08
-5.29024e-07
-4.04982e-08
-5.28628e-07
-2.9294e-08
-4.88845e-07
-7.32273e-08
-4.50278e-07
-6.86383e-08
-4.11898e-07
-8.47653e-08
-3.81468e-07
-9.4984e-08
-3.65287e-07
-1.20132e-07
-3.47015e-07
-1.55171e-07
-3.47623e-07
-1.96331e-07
-3.02433e-07
-1.93063e-07
-1.93573e-07
-1.5962e-07
-9.13561e-09
-1.93479e-07
1.45502e-07
-1.20826e-07
1.93092e-07
-2.77617e-08
2.14695e-07
4.20905e-08
2.03904e-07
6.88903e-08
1.78837e-07
5.76674e-08
1.08014e-07
1.0723e-07
4.33389e-08
9.83217e-08
6.81384e-09
8.10698e-08
-3.41772e-08
9.46296e-08
-7.49928e-08
8.73045e-08
-1.19311e-07
8.3172e-08
-1.71563e-07
1.03335e-07
-2.25255e-07
1.07694e-07
-2.77014e-07
1.06146e-07
-3.29188e-07
1.02511e-07
-3.83982e-07
1.05449e-07
-4.44065e-07
1.22153e-07
-5.02623e-07
1.20585e-07
-5.63076e-07
1.21775e-07
-6.25582e-07
1.19961e-07
-6.925e-07
1.34195e-07
-7.56775e-07
1.31605e-07
-8.21323e-07
1.31225e-07
-8.90551e-07
1.36781e-07
-9.60269e-07
1.40542e-07
-1.02726e-06
1.36741e-07
-1.09442e-06
1.34658e-07
-1.16468e-06
1.36713e-07
-1.23692e-06
1.44985e-07
-1.306e-06
1.40753e-07
-1.37515e-06
1.41061e-07
-1.44593e-06
1.42991e-07
-1.51415e-06
1.34538e-07
-1.58214e-06
1.32716e-07
-1.65162e-06
1.40301e-07
-1.72155e-06
1.41428e-07
-1.78915e-06
1.3681e-07
-1.85534e-06
1.31083e-07
-1.92189e-06
1.31085e-07
-1.98958e-06
1.36251e-07
-2.0568e-06
1.3503e-07
-2.12217e-06
1.30066e-07
-2.1856e-06
1.25172e-07
-2.2494e-06
1.2863e-07
-2.31449e-06
1.30105e-07
-2.37847e-06
1.27646e-07
-2.43962e-06
1.20949e-07
-2.4996e-06
1.20507e-07
-2.56051e-06
1.22231e-07
-2.62183e-06
1.22372e-07
-2.67963e-06
1.16117e-07
-2.73568e-06
1.11256e-07
-2.79196e-06
1.12198e-07
-2.8489e-06
1.13511e-07
-2.90198e-06
1.07201e-07
-2.95401e-06
1.04421e-07
-3.00597e-06
1.0262e-07
-3.05616e-06
1.00338e-07
-3.10446e-06
9.71879e-08
-3.15143e-06
9.45339e-08
-3.1975e-06
9.23398e-08
-3.24212e-06
8.89109e-08
-3.28553e-06
8.63565e-08
-3.32756e-06
8.39723e-08
-3.3678e-06
8.04937e-08
-3.406e-06
7.64074e-08
-3.44245e-06
7.23593e-08
-3.47756e-06
7.06626e-08
-3.5113e-06
6.79537e-08
-3.54349e-06
6.46912e-08
-3.57428e-06
6.05217e-08
-3.6037e-06
5.8307e-08
-3.63132e-06
5.51634e-08
-3.65671e-06
5.10415e-08
-3.68038e-06
4.7648e-08
-3.70245e-06
4.41315e-08
-3.7237e-06
4.21497e-08
-3.74292e-06
3.84229e-08
-3.76027e-06
3.4807e-08
-3.77591e-06
3.0934e-08
-3.78977e-06
2.79563e-08
-3.8021e-06
2.49399e-08
-3.81331e-06
2.23946e-08
-3.82241e-06
1.85138e-08
-3.82976e-06
1.5013e-08
-3.83543e-06
1.14937e-08
-3.83996e-06
8.55991e-09
-3.84372e-06
7.49805e-09
-3.84487e-06
2.80483e-09
-3.84466e-06
-2.21565e-10
-3.84311e-06
-3.41087e-09
-3.84021e-06
-5.63985e-09
-3.83564e-06
-8.79228e-09
-3.82953e-06
-1.18013e-08
-3.82197e-06
-1.47949e-08
-3.81296e-06
-1.80394e-08
-3.8027e-06
-1.99432e-08
-3.79107e-06
-2.26227e-08
-3.77822e-06
-2.51709e-08
-3.76431e-06
-2.74194e-08
-3.74887e-06
-3.05017e-08
-3.73222e-06
-3.37451e-08
-3.71436e-06
-3.528e-08
-3.69526e-06
-3.75673e-08
-3.67532e-06
-3.94297e-08
-3.65411e-06
-4.18643e-08
-3.63176e-06
-4.41837e-08
-3.60834e-06
-4.64475e-08
-3.58396e-06
-4.85348e-08
-3.55859e-06
-5.03046e-08
-3.53224e-06
-5.22197e-08
-3.50504e-06
-5.39971e-08
-3.47693e-06
-5.57999e-08
-3.4479e-06
-5.7659e-08
-3.41806e-06
-5.92427e-08
-3.38746e-06
-6.06372e-08
-3.35616e-06
-6.19588e-08
-3.32417e-06
-6.33532e-08
-3.2917e-06
-6.47115e-08
-3.25888e-06
-6.55663e-08
-3.22521e-06
-6.69034e-08
-3.19089e-06
-6.81258e-08
-3.15621e-06
-6.89518e-08
-3.12106e-06
-6.98907e-08
-3.08542e-06
-7.08023e-08
-3.04938e-06
-7.15693e-08
-3.01305e-06
-7.21812e-08
-2.97656e-06
-7.26246e-08
-2.9397e-06
-7.33499e-08
-2.90256e-06
-7.38534e-08
-2.86518e-06
-7.42467e-08
-2.82762e-06
-7.45723e-08
-2.7899e-06
-7.48727e-08
-2.75206e-06
-7.50783e-08
-2.71417e-06
-7.51616e-08
-2.67624e-06
-7.52911e-08
-2.6383e-06
-7.54265e-08
-2.60043e-06
-7.53774e-08
-2.56262e-06
-7.5292e-08
-2.52485e-06
-7.52355e-08
-2.48713e-06
-7.51079e-08
-2.4495e-06
-7.49166e-08
-2.41196e-06
-7.46532e-08
-2.37457e-06
-7.43478e-08
-2.33733e-06
-7.40219e-08
-2.30029e-06
-7.36696e-08
-2.26344e-06
-7.32785e-08
-2.22682e-06
-7.28458e-08
-2.19043e-06
-7.2395e-08
-2.15429e-06
-7.19083e-08
-2.11843e-06
-7.13623e-08
-2.08286e-06
-7.07544e-08
-2.04762e-06
-7.00766e-08
-2.01275e-06
-6.9369e-08
-1.9782e-06
-6.87124e-08
-1.94397e-06
-6.80506e-08
-1.91009e-06
-6.73526e-08
-1.87655e-06
-6.66503e-08
-1.84335e-06
-6.59365e-08
-1.81049e-06
-6.52095e-08
-1.778e-06
-6.44564e-08
-1.7459e-06
-6.36852e-08
-1.71418e-06
-6.29249e-08
-1.68285e-06
-6.21959e-08
-1.65189e-06
-6.14646e-08
-1.62131e-06
-6.07348e-08
-1.5911e-06
-6.00003e-08
-1.56127e-06
-5.92632e-08
-1.53182e-06
-5.85269e-08
-1.50276e-06
-5.77841e-08
-1.47409e-06
-5.7027e-08
-1.44581e-06
-5.62557e-08
-1.41793e-06
-5.54637e-08
-1.39046e-06
-5.46523e-08
-1.3634e-06
-5.38248e-08
-1.33675e-06
-5.29791e-08
-1.31053e-06
-5.21232e-08
-1.28473e-06
-5.12641e-08
-1.25935e-06
-5.04092e-08
-1.2344e-06
-4.95578e-08
-1.20987e-06
-4.87112e-08
-1.18576e-06
-4.78763e-08
-1.16205e-06
-4.70551e-08
-1.13875e-06
-4.62523e-08
-1.11584e-06
-4.54743e-08
-1.09332e-06
-4.47125e-08
-1.07119e-06
-4.39625e-08
-1.04944e-06
-4.32222e-08
-1.02806e-06
-4.24937e-08
-1.00706e-06
-4.177e-08
-9.8642e-07
-4.10478e-08
-9.66151e-07
-4.03277e-08
-9.46244e-07
-3.96091e-08
-9.26698e-07
-3.8892e-08
-9.0751e-07
-3.81774e-08
-8.88677e-07
-3.74674e-08
-8.70197e-07
-3.67643e-08
-8.52065e-07
-3.60701e-08
-8.34277e-07
-3.53857e-08
-8.16828e-07
-3.47086e-08
-7.99717e-07
-3.40365e-08
-7.82944e-07
-3.33668e-08
-7.6651e-07
-3.26997e-08
-7.50414e-07
-3.20385e-08
-7.34651e-07
-3.13842e-08
-7.19212e-07
-3.07345e-08
-7.04092e-07
-3.00846e-08
-6.89287e-07
-2.94361e-08
-6.74794e-07
-2.88002e-08
-6.60601e-07
-2.81902e-08
-6.46697e-07
-2.761e-08
-6.33068e-07
-2.70527e-08
-6.1971e-07
-2.65117e-08
-6.06619e-07
-2.59917e-08
-5.93787e-07
-2.54996e-08
-5.81204e-07
-2.50282e-08
-5.68865e-07
-2.4557e-08
-5.56771e-07
-2.40733e-08
-5.44926e-07
-2.35844e-08
-5.33323e-07
-2.31046e-08
-5.21952e-07
-2.26356e-08
-5.10808e-07
-2.21695e-08
-4.99886e-07
-2.17058e-08
-4.89184e-07
-2.12566e-08
-4.78693e-07
-2.08313e-08
-4.68406e-07
-2.04251e-08
-4.5832e-07
-2.00309e-08
-4.4843e-07
-1.96506e-08
-4.38731e-07
-1.92861e-08
-4.29219e-07
-1.89303e-08
-4.19891e-07
-1.85754e-08
-4.10741e-07
-1.82224e-08
-4.01763e-07
-1.78727e-08
-3.92955e-07
-1.75221e-08
-3.84315e-07
-1.71707e-08
-3.75837e-07
-1.68299e-08
-3.67514e-07
-1.65105e-08
-3.59339e-07
-1.62104e-08
-3.51312e-07
-1.59202e-08
-3.43433e-07
-1.56366e-08
-3.35702e-07
-1.53617e-08
-3.28115e-07
-1.50927e-08
-3.2067e-07
-1.48206e-08
-3.13365e-07
-1.45401e-08
-3.06199e-07
-1.42556e-08
-2.99166e-07
-1.39766e-08
-2.9226e-07
-1.37093e-08
-2.85477e-07
-1.34556e-08
-2.78812e-07
-1.32169e-08
-2.72261e-07
-1.29944e-08
-2.65819e-07
-1.27863e-08
-2.59485e-07
-1.25854e-08
-2.53258e-07
-1.23819e-08
-2.4714e-07
-1.21701e-08
-2.4113e-07
-1.19536e-08
-2.35227e-07
-1.17407e-08
-2.29422e-07
-1.15351e-08
-2.23715e-07
-1.13331e-08
-2.18103e-07
-1.11334e-08
-2.1259e-07
-1.09431e-08
-2.07172e-07
-1.07656e-08
-2.01851e-07
-1.05918e-08
-1.9663e-07
-1.04093e-08
-1.91511e-07
-1.02139e-08
-1.8649e-07
-1.00099e-08
-1.81563e-07
-9.80447e-09
-1.76725e-07
-9.607e-09
-1.7197e-07
-9.42512e-09
-1.67295e-07
-9.25774e-09
-1.62704e-07
-9.09692e-09
-1.58202e-07
-8.93426e-09
-1.53796e-07
-8.76259e-09
-1.49488e-07
-8.57853e-09
-1.45277e-07
-8.38572e-09
-1.41157e-07
-8.19122e-09
-1.37123e-07
-8.00193e-09
-1.33168e-07
-7.82464e-09
-1.2929e-07
-7.66392e-09
-1.2549e-07
-7.52016e-09
-1.21768e-07
-7.38582e-09
-1.18127e-07
-7.24773e-09
-1.14566e-07
-7.098e-09
-1.11081e-07
-6.94383e-09
-1.07662e-07
-6.79898e-09
-1.04306e-07
-6.65917e-09
-1.01017e-07
-6.51573e-09
-9.78029e-08
-6.37897e-09
-9.46666e-08
-6.24522e-09
-9.16055e-08
-6.10997e-09
-8.8614e-08
-5.96953e-09
-8.56878e-08
-5.8263e-09
-8.28217e-08
-5.691e-09
-8.00156e-08
-5.56698e-09
-7.7265e-08
-5.45997e-09
-7.45782e-08
-5.34458e-09
-7.19553e-08
-5.226e-09
-6.93963e-08
-5.10695e-09
-6.68965e-08
-4.98545e-09
-6.44576e-08
-4.8626e-09
-6.20822e-08
-4.74717e-09
-5.97656e-08
-4.64038e-09
-5.75083e-08
-4.51233e-09
-5.53024e-08
-4.38406e-09
-5.31481e-08
-4.25959e-09
-5.10014e-08
-4.18689e-09
-4.89753e-08
-4.04332e-09
-4.70229e-08
-3.93177e-09
-4.51009e-08
-3.90396e-09
-4.31779e-08
-3.80066e-09
-4.12651e-08
-3.73749e-09
-3.94173e-08
-3.66115e-09
-3.75982e-08
-3.60489e-09
-3.58193e-08
-3.58947e-09
-3.40824e-08
-3.49675e-09
-3.23842e-08
-3.42062e-09
-3.07384e-08
-3.28124e-09
-2.91389e-08
-3.17854e-09
-2.75859e-08
-3.09531e-09
-2.60694e-08
-3.01684e-09
-2.45789e-08
-2.99557e-09
-2.31583e-08
-2.84888e-09
-2.18071e-08
-2.66789e-09
-2.0467e-08
-2.62264e-09
-1.91855e-08
-2.52315e-09
-1.79327e-08
-2.50816e-09
-1.67227e-08
-2.40543e-09
-1.55265e-08
-2.3439e-09
-1.43276e-08
-2.33558e-09
-1.31638e-08
-2.30765e-09
-1.20615e-08
-2.26216e-09
-1.10338e-08
-2.09224e-09
-9.95602e-09
-2.1543e-09
-8.96833e-09
-1.95182e-09
-8.06232e-09
-1.82206e-09
-7.17452e-09
-1.68553e-09
-6.29852e-09
-1.69402e-09
-5.47053e-09
-1.66958e-09
-4.58685e-09
-1.59119e-09
-3.87738e-09
-1.48387e-09
-3.30211e-09
-1.36677e-09
-2.72085e-09
-1.28558e-09
-2.31176e-09
-9.97993e-10
-1.87136e-09
-8.91888e-10
-5.35537e-10
-1.82084e-09
-6.8378e-11
-7.73532e-10
1.16147e-10
-5.85508e-10
-1.86205e-10
-6.19634e-10
4.96775e-12
-3.51491e-10
8.72901e-10
-1.33481e-09
1.30877e-09
-7.13453e-10
1.85015e-09
-5.56888e-10
2.16935e-09
-5.93422e-10
2.35556e-09
-3.82567e-10
2.49682e-09
-3.21157e-10
2.57985e-09
-2.53456e-10
2.62327e-09
-1.39633e-10
2.68273e-09
-7.61222e-11
2.78295e-09
-6.11892e-11
2.87173e-09
-1.85808e-11
2.94705e-09
2.8978e-11
3.01742e-09
2.75607e-11
3.07586e-09
-1.78076e-11
3.1061e-09
-5.43337e-11
3.11472e-09
-5.00055e-11
3.12652e-09
-3.80035e-11
3.17219e-09
-6.40548e-11
3.27475e-09
-1.4366e-10
3.42861e-09
-2.40504e-10
3.60499e-09
-3.14911e-10
3.7859e-09
-3.44116e-10
3.93897e-09
-3.0905e-10
4.05773e-09
-2.36907e-10
4.14093e-09
-1.47969e-10
4.19467e-09
-7.67087e-11
4.25431e-09
-3.96697e-11
4.33427e-09
-4.16451e-11
4.45154e-09
-8.0576e-11
4.61487e-09
-1.48547e-10
4.8173e-09
-2.36244e-10
5.07299e-09
-3.53095e-10
5.37079e-09
-5.011e-10
5.72874e-09
-6.8035e-10
6.12421e-09
-8.47806e-10
6.56041e-09
-1.00528e-09
7.03953e-09
-1.13992e-09
7.5593e-09
-1.24009e-09
8.11613e-09
-1.30438e-09
8.70078e-09
-1.33236e-09
9.29674e-09
-1.32411e-09
9.87865e-09
-1.27334e-09
1.04166e-08
-1.17192e-09
1.08859e-08
-1.0207e-09
1.12816e-08
-8.4334e-10
1.16178e-08
-6.81926e-10
1.19296e-08
-5.68154e-10
1.22415e-08
-5.2305e-10
1.25628e-08
-5.32969e-10
1.28928e-08
-5.85075e-10
1.32415e-08
-6.81711e-10
1.36286e-08
-8.23591e-10
1.40751e-08
-9.83246e-10
1.45576e-08
-1.07927e-09
1.50152e-08
-1.0149e-09
1.5393e-08
-7.82145e-10
1.56939e-08
-5.1789e-10
1.59768e-08
-4.22053e-10
1.62925e-08
-5.59292e-10
1.66004e-08
-7.66846e-10
1.67757e-08
-6.94773e-10
1.67441e-08
-2.47845e-10
1.66057e-08
2.87613e-10
1.65708e-08
4.40725e-10
1.67509e-08
1.00509e-10
1.6912e-08
-2.41298e-10
1.68186e-08
-5.15952e-11
1.65357e-08
4.69922e-10
1.64238e-08
5.92263e-10
1.66632e-08
4.23759e-11
1.68477e-08
-4.35693e-10
1.67251e-08
-2.55579e-10
1.66436e-08
3.47021e-13
1.69389e-08
-3.60094e-10
1.71334e-08
-7.15126e-10
1.69053e-08
-4.98341e-10
1.67389e-08
-4.37246e-11
1.66934e-08
2.10099e-10
1.65855e-08
1.32505e-10
1.65795e-08
3.51069e-10
1.68262e-08
2.95562e-11
2.35328e-09
-1.99467e-08
2.0011e-06
-1.00139e-06
2.77603e-06
-1.94161e-06
2.72774e-06
-2.84042e-06
2.67484e-06
-3.66847e-06
2.58023e-06
-4.49209e-06
2.4912e-06
-5.28788e-06
2.4241e-06
-6.07192e-06
2.36846e-06
-6.83851e-06
2.28937e-06
-7.593e-06
2.23888e-06
-8.32037e-06
2.19686e-06
-9.02139e-06
2.12586e-06
-9.69344e-06
2.04222e-06
-1.03447e-05
1.95024e-06
-1.09872e-05
1.8593e-06
-1.16004e-05
1.78787e-06
-1.21852e-05
1.72144e-06
-1.27321e-05
1.67903e-06
-1.32085e-05
1.62917e-06
-1.36454e-05
1.52651e-06
-1.41201e-05
1.3822e-06
-1.46046e-05
1.27631e-06
-1.50385e-05
1.24046e-06
-1.53692e-05
1.20289e-06
-1.5658e-05
1.11642e-06
-1.59558e-05
1.01018e-06
-1.62859e-05
9.05441e-07
-1.66192e-05
8.95398e-07
-1.68581e-05
9.55393e-07
-1.70768e-05
9.36068e-07
-1.73765e-05
7.83981e-07
-1.76246e-05
5.1165e-07
-1.77439e-05
3.67219e-07
-1.77862e-05
3.78585e-07
-1.78525e-05
4.66835e-07
-1.79945e-05
4.00419e-07
-1.81405e-05
2.16291e-07
-1.81885e-05
1.11042e-07
-1.81189e-05
5.00124e-08
-1.80798e-05
9.86991e-08
-1.80269e-05
1.4412e-07
-1.80213e-05
-1.00142e-07
-1.80513e-05
-2.71102e-07
-1.799e-05
-2.78398e-07
-1.78593e-05
-2.02472e-07
-1.7761e-05
-2.09288e-07
-1.77136e-05
-3.19686e-07
-1.76476e-05
-3.39744e-07
-1.74977e-05
-3.83457e-07
-1.73495e-05
-4.58196e-07
-1.72032e-05