/*--------------------------------*- C++ -*----------------------------------*\
| =========                 |                                                 |
| \\      /  F ield         | OpenFOAM: The Open Source CFD Toolbox           |
|  \\    /   O peration     | Version:  v2006                                 |
|   \\  /    A nd           | Website:  www.openfoam.com                      |
|    \\/     M anipulation  |                                                 |
\*---------------------------------------------------------------------------*/
FoamFile
{
    version     2.0;
    format      ascii;
    class       surfaceScalarField;
    location    "1.3";
    object      alphaPhi0.water;
}
// * * * * * * * * * * * * * * * * * * * * * * * * * * * * * * * * * * * * * //

dimensions      [0 3 -1 0 0 0 0];
oriented        oriented;


internalField   nonuniform List<scalar> 
65390
(
-1.62638e-06
-2.97514e-07
-1.6039e-06
-2.19758e-08
-1.60297e-06
1.44248e-10
-1.58409e-06
-1.81744e-08
-1.59302e-06
9.84519e-09
-1.63111e-06
3.91822e-08
-1.67802e-06
4.82373e-08
-1.73317e-06
5.67539e-08
-1.79671e-06
6.54396e-08
-1.86507e-06
7.06463e-08
-1.94179e-06
7.93925e-08
-2.03004e-06
9.12834e-08
-2.12981e-06
1.03142e-07
-2.2525e-06
1.26315e-07
-2.38093e-06
1.324e-07
-2.51337e-06
1.36646e-07
-2.65216e-06
1.43134e-07
-2.79831e-06
1.50808e-07
-2.95081e-06
1.57415e-07
-3.11255e-06
1.67038e-07
-3.28902e-06
1.8209e-07
-3.47261e-06
1.89425e-07
-3.65482e-06
1.88139e-07
-3.83048e-06
1.8178e-07
-4.01304e-06
1.89043e-07
-4.20525e-06
1.98899e-07
-4.40333e-06
2.04821e-07
-4.60111e-06
2.04573e-07
-4.79588e-06
2.01608e-07
-4.99959e-06
2.10803e-07
-5.21004e-06
2.17753e-07
-5.41657e-06
2.13919e-07
-5.60469e-06
1.9545e-07
-5.79331e-06
1.96019e-07
-5.99452e-06
2.08422e-07
-6.19927e-06
2.11766e-07
-6.39405e-06
2.00752e-07
-6.5638e-06
1.74538e-07
-6.74538e-06
1.86368e-07
-6.9367e-06
1.96617e-07
-7.13069e-06
1.99619e-07
-7.32191e-06
1.97261e-07
-7.48521e-06
1.69113e-07
-7.63286e-06
1.52799e-07
-7.79003e-06
1.62181e-07
-7.95868e-06
1.73785e-07
-8.10252e-06
1.48367e-07
-8.22576e-06
1.27225e-07
-8.34729e-06
1.2549e-07
-8.47453e-06
1.31264e-07
-8.59165e-06
1.21012e-07
-8.68771e-06
9.96847e-08
-8.77109e-06
8.66589e-08
-8.8458e-06
7.75792e-08
-8.9211e-06
7.77545e-08
-8.99356e-06
7.45041e-08
-9.05751e-06
6.5671e-08
-9.11569e-06
5.96673e-08
-9.17668e-06
6.2259e-08
-9.23393e-06
5.8249e-08
-9.27789e-06
4.4689e-08
-9.3101e-06
3.27258e-08
-9.33881e-06
2.88497e-08
-9.36075e-06
2.16141e-08
-9.36889e-06
7.46631e-09
-9.35984e-06
-9.97632e-09
-9.33296e-06
-2.82233e-08
-9.28792e-06
-4.6281e-08
-9.22443e-06
-6.48527e-08
-9.13824e-06
-8.7738e-08
-9.02293e-06
-1.16981e-07
-8.87114e-06
-1.53428e-07
-8.66741e-06
-2.05346e-07
-8.38234e-06
-2.86856e-07
-7.9834e-06
-4.01683e-07
-7.41575e-06
-5.70054e-07
-6.54804e-06
-8.69825e-07
-5.33799e-06
-1.21339e-06
-4.33953e-06
-9.99343e-07
-3.98243e-06
-3.57891e-07
-3.81996e-06
-1.63924e-07
-3.86795e-06
4.62611e-08
-3.90662e-06
3.78889e-08
-3.98912e-06
8.1584e-08
-4.08959e-06
9.95637e-08
-4.0807e-06
-9.92324e-09
-4.06447e-06
-1.71717e-08
-4.06384e-06
-1.49952e-09
-4.08232e-06
1.74631e-08
-4.0933e-06
1.04294e-08
-4.10889e-06
1.47208e-08
-4.11845e-06
8.7109e-09
-4.11185e-06
-7.42635e-09
-4.09949e-06
-1.299e-08
-4.07797e-06
-2.25407e-08
-4.04147e-06
-3.78179e-08
-3.98556e-06
-5.68324e-08
-3.90424e-06
-8.20197e-08
-3.77139e-06
-1.33642e-07
-3.65284e-06
-1.19189e-07
-3.59869e-06
-5.47492e-08
-3.58575e-06
-1.35e-08
-3.58854e-06
2.22507e-09
-3.57518e-06
-1.39199e-08
-3.57213e-06
-3.62122e-09
-3.56656e-06
-6.12248e-09
-3.54574e-06
-2.12791e-08
-3.52311e-06
-2.3058e-08
-3.50057e-06
-2.2895e-08
-3.47737e-06
-2.35208e-08
-3.44983e-06
-2.78321e-08
-3.41906e-06
-3.10676e-08
-3.38264e-06
-3.67578e-08
-3.33757e-06
-4.54294e-08
-3.28043e-06
-5.75641e-08
-3.20686e-06
-7.39994e-08
-3.09205e-06
-1.15183e-07
-2.98767e-06
-1.04736e-07
-2.93259e-06
-5.53965e-08
-2.91052e-06
-2.23881e-08
-2.90097e-06
-9.89567e-09
-2.87873e-06
-2.25677e-08
-2.86466e-06
-1.44176e-08
-2.84976e-06
-1.52943e-08
-2.8256e-06
-2.46165e-08
-2.80193e-06
-2.41705e-08
-2.77774e-06
-2.47201e-08
-2.75137e-06
-2.69004e-08
-2.72426e-06
-2.75926e-08
-2.69612e-06
-2.86145e-08
-2.66667e-06
-2.99057e-08
-2.63657e-06
-3.04744e-08
-2.60574e-06
-3.11515e-08
-2.5742e-06
-3.18031e-08
-2.54208e-06
-3.2324e-08
-2.50946e-06
-3.27792e-08
-2.47648e-06
-3.30894e-08
-2.44319e-06
-3.33561e-08
-2.40957e-06
-3.36534e-08
-2.37565e-06
-3.39324e-08
-2.3414e-06
-3.4215e-08
-2.30686e-06
-3.44768e-08
-2.27207e-06
-3.46921e-08
-2.2371e-06
-3.48313e-08
-2.20188e-06
-3.50362e-08
-2.16643e-06
-3.52287e-08
-2.13084e-06
-3.53441e-08
-2.09522e-06
-3.53535e-08
-2.05957e-06
-3.54032e-08
-2.02394e-06
-3.54215e-08
-1.98837e-06
-3.54088e-08
-1.95289e-06
-3.5384e-08
-1.91754e-06
-3.53285e-08
-1.88235e-06
-3.525e-08
-1.84742e-06
-3.51145e-08
-1.81269e-06
-3.49921e-08
-1.77819e-06
-3.48634e-08
-1.74391e-06
-3.4716e-08
-1.70986e-06
-3.45615e-08
-1.67605e-06
-3.43813e-08
-1.64246e-06
-3.41853e-08
-1.60909e-06
-3.39856e-08
-1.57592e-06
-3.37868e-08
-1.54297e-06
-3.3569e-08
-1.51023e-06
-3.3328e-08
-1.47771e-06
-3.30779e-08
-1.4454e-06
-3.28324e-08
-1.4133e-06
-3.25734e-08
-1.38143e-06
-3.22956e-08
-1.34981e-06
-3.19914e-08
-1.31844e-06
-3.1692e-08
-1.28733e-06
-3.1397e-08
-1.2565e-06
-3.10781e-08
-1.22598e-06
-3.07333e-08
-1.19575e-06
-3.03937e-08
-1.16584e-06
-3.00533e-08
-1.13627e-06
-2.96901e-08
-1.10706e-06
-2.93107e-08
-1.0782e-06
-2.89342e-08
-1.04971e-06
-2.85545e-08
-1.0216e-06
-2.81595e-08
-9.93887e-07
-2.77556e-08
-9.66562e-07
-2.73566e-08
-9.39633e-07
-2.69579e-08
-9.13114e-07
-2.65464e-08
-8.87016e-07
-2.61244e-08
-8.61336e-07
-2.57042e-08
-8.36074e-07
-2.52825e-08
-8.11239e-07
-2.48517e-08
-7.86842e-07
-2.44109e-08
-7.62888e-07
-2.3968e-08
-7.39379e-07
-2.35296e-08
-7.16314e-07
-2.30918e-08
-6.937e-07
-2.26482e-08
-6.71539e-07
-2.21971e-08
-6.49827e-07
-2.17429e-08
-6.28562e-07
-2.12873e-08
-6.07744e-07
-2.083e-08
-5.87375e-07
-2.03736e-08
-5.67456e-07
-1.99235e-08
-5.47986e-07
-1.94791e-08
-5.28964e-07
-1.90387e-08
-5.10388e-07
-1.86003e-08
-4.92255e-07
-1.81608e-08
-4.74562e-07
-1.77177e-08
-4.57304e-07
-1.72754e-08
-4.40473e-07
-1.68393e-08
-4.2406e-07
-1.6411e-08
-4.08057e-07
-1.59948e-08
-3.9245e-07
-1.55955e-08
-3.77233e-07
-1.52072e-08
-3.62414e-07
-1.48156e-08
-3.48003e-07
-1.44171e-08
-3.33999e-07
-1.40193e-08
-3.204e-07
-1.36212e-08
-3.07207e-07
-1.32167e-08
-2.94414e-07
-1.28093e-08
-2.82004e-07
-1.24138e-08
-2.69955e-07
-1.2037e-08
-2.5826e-07
-1.16702e-08
-2.46916e-07
-1.13094e-08
-2.3592e-07
-1.09607e-08
-2.25264e-07
-1.06256e-08
-2.14948e-07
-1.02946e-08
-2.04974e-07
-9.96134e-09
-1.95337e-07
-9.6317e-09
-1.86021e-07
-9.314e-09
-1.77009e-07
-9.00668e-09
-1.68291e-07
-8.70609e-09
-1.59856e-07
-8.41448e-09
-1.51692e-07
-8.13591e-09
-1.43794e-07
-7.86838e-09
-1.36161e-07
-7.60635e-09
-1.28792e-07
-7.34613e-09
-1.21686e-07
-7.08436e-09
-1.1484e-07
-6.81777e-09
-1.08246e-07
-6.54839e-09
-1.01892e-07
-6.28712e-09
-9.57609e-08
-6.04693e-09
-8.9841e-08
-5.83248e-09
-8.41285e-08
-5.63945e-09
-7.86248e-08
-5.45948e-09
-7.33307e-08
-5.28354e-09
-6.8243e-08
-5.10369e-09
-6.3354e-08
-4.91548e-09
-5.86512e-08
-4.72178e-09
-5.41204e-08
-4.52847e-09
-4.97537e-08
-4.33865e-09
-4.55531e-08
-4.15099e-09
-4.15249e-08
-3.96646e-09
-3.76685e-08
-3.79304e-09
-3.39722e-08
-3.6386e-09
-3.04213e-08
-3.50148e-09
-2.70086e-08
-3.37066e-09
-2.37324e-08
-3.23887e-09
-2.05863e-08
-3.11087e-09
-1.7556e-08
-2.99628e-09
-1.46272e-08
-2.89595e-09
-1.1797e-08
-2.79901e-09
-9.07264e-09
-2.69485e-09
-6.46175e-09
-2.58253e-09
-3.96539e-09
-2.46792e-09
-1.58113e-09
-2.35458e-09
6.93119e-10
-2.24268e-09
2.85999e-09
-2.13343e-09
4.92435e-09
-2.02965e-09
6.89104e-09
-1.9315e-09
8.76343e-09
-1.83738e-09
1.05468e-08
-1.74885e-09
1.22505e-08
-1.66956e-09
1.38832e-08
-1.59869e-09
1.54475e-08
-1.5303e-09
1.69421e-08
-1.46033e-09
1.83661e-08
-1.3894e-09
1.97195e-08
-1.3187e-09
2.10019e-08
-1.24699e-09
2.22113e-08
-1.17294e-09
2.33468e-08
-1.09729e-09
2.44079e-08
-1.02079e-09
2.53938e-08
-9.43182e-10
2.63047e-08
-8.66402e-10
2.71467e-08
-7.96335e-10
2.79312e-08
-7.38629e-10
2.86704e-08
-6.93784e-10
2.9373e-08
-6.58131e-10
3.00449e-08
-6.28205e-10
3.0691e-08
-6.03036e-10
3.13161e-08
-5.82671e-10
3.19237e-08
-5.65597e-10
3.25138e-08
-5.48559e-10
3.3083e-08
-5.2806e-10
3.36264e-08
-5.02427e-10
3.41385e-08
-4.71179e-10
3.46127e-08
-4.3321e-10
3.50418e-08
-3.87777e-10
3.54206e-08
-3.37356e-10
3.5748e-08
-2.86031e-10
3.60262e-08
-2.37503e-10
3.62594e-08
-1.93489e-10
3.64503e-08
-1.52486e-10
3.66027e-08
-1.15407e-10
3.67212e-08
-8.28853e-11
3.68123e-08
-5.67971e-11
3.6884e-08
-3.8483e-11
3.69439e-08
-2.78067e-11
3.6998e-08
-2.28429e-11
3.70492e-08
-2.09084e-11
3.70982e-08
-1.96141e-11
3.7144e-08
-1.72976e-11
3.71845e-08
-1.28234e-11
3.72168e-08
-5.43043e-12
3.72379e-08
5.02694e-12
3.72449e-08
1.8249e-11
3.72362e-08
3.32126e-11
3.72115e-08
4.84222e-11
3.71722e-08
6.2345e-11
3.71208e-08
7.37223e-11
3.70604e-08
8.19648e-11
3.69941e-08
8.74037e-11
3.69233e-08
9.12051e-11
3.68486e-08
9.45783e-11
3.677e-08
9.78547e-11
3.66881e-08
1.00576e-10
3.66032e-08
1.02873e-10
3.65135e-08
1.07099e-10
3.64126e-08
1.1763e-10
3.62914e-08
1.37239e-10
3.61439e-08
1.62957e-10
3.59712e-08
1.87615e-10
3.578e-08
2.05475e-10
3.55768e-08
2.16776e-10
3.5365e-08
2.24884e-10
3.51476e-08
2.2985e-10
3.49321e-08
2.27327e-10
3.4728e-08
2.15336e-10
3.45386e-08
2.00138e-10
3.43564e-08
1.92382e-10
3.41701e-08
1.95984e-10
3.39741e-08
2.05291e-10
3.37676e-08
2.15263e-10
3.35483e-08
2.278e-10
3.33097e-08
2.46697e-10
3.30478e-08
2.69598e-10
3.27664e-08
2.88753e-10
3.24737e-08
2.99827e-10
3.21751e-08
3.05227e-10
3.18736e-08
3.07786e-10
3.15731e-08
3.06493e-10
3.12775e-08
3.01261e-10
3.09866e-08
2.96486e-10
3.06955e-08
2.96413e-10
3.03995e-08
3.01234e-10
3.00942e-08
3.10342e-10
2.97743e-08
3.2468e-10
2.94358e-08
3.42817e-10
2.90809e-08
3.58771e-10
2.87171e-08
3.67264e-10
2.83514e-08
3.687e-10
2.79878e-08
3.66187e-10
2.76294e-08
3.60727e-10
2.72791e-08
3.5233e-10
2.69368e-08
3.44178e-10
2.65968e-08
3.41732e-10
2.62506e-08
3.47667e-10
2.58924e-08
3.59457e-10
2.55211e-08
3.72413e-10
2.51386e-08
3.83326e-10
2.47486e-08
3.9063e-10
2.43563e-08
3.92644e-10
2.39686e-08
3.8782e-10
2.35915e-08
3.76959e-10
2.3227e-08
3.64083e-10
2.28723e-08
3.54098e-10
2.25221e-08
3.49398e-10
2.21725e-08
3.48577e-10
2.18225e-08
3.48689e-10
2.14722e-08
3.48684e-10
2.11212e-08
3.49141e-10
2.07709e-08
3.48262e-10
2.04272e-08
3.41606e-10
2.00974e-08
3.27808e-10
1.97837e-08
3.11799e-10
1.94815e-08
3.00524e-10
1.91826e-08
2.97504e-10
1.88788e-08
3.02643e-10
1.85651e-08
3.12864e-10
1.8242e-08
3.22458e-10
1.79156e-08
3.26091e-10
1.75931e-08
3.22437e-10
1.72797e-08
3.13476e-10
1.69774e-08
3.02659e-10
1.66831e-08
2.94704e-10
1.63898e-08
2.93867e-10
1.60896e-08
3.00896e-10
1.57773e-08
3.13234e-10
1.54516e-08
3.26874e-10
1.51159e-08
3.36952e-10
1.4779e-08
3.38485e-10
1.44514e-08
3.29139e-10
1.41401e-08
3.12966e-10
1.38427e-08
2.98898e-10
1.35509e-08
2.93191e-10
1.3258e-08
2.94075e-10
1.29636e-08
2.95378e-10
1.26678e-08
2.96533e-10
1.23718e-08
2.96504e-10
1.20827e-08
2.89431e-10
1.18051e-08
2.77509e-10
1.15356e-08
2.6926e-10
1.12665e-08
2.6854e-10
1.09928e-08
2.72967e-10
1.07152e-08
2.76647e-10
1.0441e-08
2.73236e-10
1.01772e-08
2.6278e-10
9.92345e-09
2.52664e-10
9.67755e-09
2.44852e-10
9.43849e-09
2.38031e-10
9.20097e-09
2.36533e-10
8.96428e-09
2.35752e-10
8.73387e-09
2.29514e-10
8.51084e-09
2.22201e-10
8.28128e-09
2.2879e-10
8.04488e-09
2.35702e-10
7.79624e-09
2.48018e-10
7.5476e-09
2.48078e-10
7.33127e-09
2.1581e-10
7.12029e-09
2.10492e-10
6.92794e-09
1.91871e-10
6.77241e-09
1.55061e-10
6.65759e-09
1.14375e-10
6.55938e-09
9.78168e-11
6.44613e-09
1.12916e-10
6.35707e-09
8.88208e-11
6.26777e-09
8.91435e-11
6.17526e-09
9.24168e-11
6.06107e-09
1.14144e-10
5.93837e-09
1.22659e-10
5.82502e-09
1.13342e-10
5.71133e-09
1.13695e-10
5.62996e-09
8.14057e-11
5.52943e-09
1.0063e-10
5.38346e-09
1.46153e-10
5.24407e-09
1.39656e-10
5.11373e-09
1.30717e-10
5.01283e-09
1.01396e-10
4.90117e-09
1.12299e-10
4.80246e-09
9.95111e-11
4.7448e-09
5.86331e-11
4.71088e-09
3.50787e-11
4.7051e-09
7.10156e-12
4.65583e-09
5.07842e-11
4.64079e-09
1.67475e-11
4.58159e-09
6.1077e-11
4.51252e-09
7.10824e-11
4.41394e-09
1.00637e-10
4.34653e-09
6.94322e-11
4.33009e-09
1.83402e-11
4.2467e-09
8.51373e-11
4.22883e-09
1.94458e-11
4.2305e-09
-2.39459e-13
4.16737e-09
6.44955e-11
4.09511e-09
7.349e-11
3.90047e-09
1.95585e-10
3.81565e-09
8.53487e-11
3.68581e-09
1.3002e-10
3.54369e-09
1.42078e-10
3.68158e-09
-1.38314e-10
3.79152e-09
-1.10986e-10
4.67476e-09
-8.84118e-10
5.48703e-09
-8.13687e-10
5.76443e-09
-2.80235e-10
5.96121e-09
-1.99401e-10
5.96962e-09
-1.10251e-11
5.91251e-09
5.44108e-11
5.81067e-09
9.90952e-11
5.64786e-09
1.60108e-10
5.41812e-09
2.27142e-10
5.14323e-09
2.72427e-10
4.84286e-09
2.98026e-10
4.52381e-09
3.16827e-10
4.20922e-09
3.12494e-10
3.92998e-09
2.77294e-10
3.69235e-09
2.35823e-10
3.47306e-09
2.17603e-10
3.24617e-09
2.25305e-10
3.01392e-09
2.30757e-10
2.79805e-09
2.14447e-10
2.61432e-09
1.82365e-10
2.4611e-09
1.51926e-10
2.32554e-09
1.34337e-10
2.18917e-09
1.35212e-10
2.03533e-09
1.52739e-10
1.85479e-09
1.79503e-10
1.64712e-09
2.06659e-10
1.41957e-09
2.2655e-10
1.18315e-09
2.35426e-10
9.49442e-10
2.32706e-10
7.29983e-10
2.18447e-10
5.40048e-10
1.88919e-10
3.95114e-10
1.43921e-10
3.14076e-10
8.00308e-11
3.10701e-10
2.37574e-12
3.89198e-10
-7.9493e-11
5.44981e-10
-1.56782e-10
7.62432e-10
-2.18458e-10
1.01984e-09
-2.58424e-10
1.29673e-09
-2.77927e-10
1.57625e-09
-2.80561e-10
1.84633e-09
-2.71115e-10
2.09697e-09
-2.51677e-10
2.31605e-09
-2.20119e-10
2.48858e-09
-1.73554e-10
2.60149e-09
-1.13924e-10
2.65284e-09
-5.23649e-11
2.65448e-09
-2.66334e-12
2.63234e-09
2.11009e-11
2.61441e-09
1.68858e-11
2.62465e-09
-1.13053e-11
2.68288e-09
-5.93177e-11
2.80852e-09
-1.26754e-10
3.00209e-09
-1.94696e-10
3.23698e-09
-2.36035e-10
3.45049e-09
-2.14665e-10
3.57243e-09
-1.23108e-10
3.58329e-09
-1.20342e-11
3.54659e-09
3.55159e-11
3.577e-09
-3.16058e-11
3.74482e-09
-1.69018e-10
3.95988e-09
-2.16252e-10
4.03014e-09
-7.14544e-11
3.84789e-09
1.81067e-10
3.49557e-09
3.5114e-10
3.21981e-09
2.7459e-10
3.17489e-09
4.3756e-11
3.17512e-09
-1.40151e-12
2.98886e-09
1.85091e-10
2.60923e-09
3.78447e-10
2.34112e-09
2.66928e-10
2.40518e-09
-6.52745e-11
2.56309e-09
-1.59151e-10
2.53411e-09
2.7707e-11
2.48571e-09
4.70819e-11
2.7193e-09
-2.34937e-10
3.0976e-09
-3.7965e-10
3.14187e-09
-4.55925e-11
2.94857e-09
1.91985e-10
2.84598e-09
1.01263e-10
2.52041e-09
3.24199e-10
2.21691e-09
3.02109e-10
6.75543e-10
-1.82764e-06
-3.69806e-07
-1.78802e-06
-6.5618e-08
-1.74855e-06
-4.23095e-08
-1.73867e-06
-2.96738e-08
-1.75291e-06
2.35004e-08
-1.77584e-06
6.24669e-08
-1.80793e-06
8.16003e-08
-1.85158e-06
1.02594e-07
-1.90604e-06
1.2296e-07
-1.9712e-06
1.39699e-07
-2.04927e-06
1.62122e-07
-2.14044e-06
1.87866e-07
-2.24423e-06
2.12887e-07
-2.35739e-06
2.4595e-07
-2.48023e-06
2.62163e-07
-2.61379e-06
2.77484e-07
-2.75523e-06
2.92244e-07
-2.90095e-06
3.04604e-07
-3.05518e-06
3.20045e-07
-3.2162e-06
3.3701e-07
-3.3797e-06
3.55811e-07
-3.54929e-06
3.6834e-07
-3.72609e-06
3.73501e-07
-3.90636e-06
3.71566e-07
-4.08587e-06
3.80324e-07
-4.26725e-06
3.90469e-07
-4.44975e-06
3.97519e-07
-4.64189e-06
4.06831e-07
-4.83589e-06
4.06076e-07
-5.03254e-06
4.1741e-07
-5.25103e-06
4.45795e-07
-5.47718e-06
4.49148e-07
-5.68918e-06
4.17127e-07
-5.85418e-06
3.70013e-07
-6.01619e-06
3.7916e-07
-6.20934e-06
4.1301e-07
-6.41149e-06
4.11752e-07
-6.61694e-06
3.86451e-07
-6.79407e-06
3.72827e-07
-6.9511e-06
3.6071e-07
-7.12483e-06
3.79668e-07
-7.30387e-06
3.83397e-07
-7.4695e-06
3.3864e-07
-7.62091e-06
3.0751e-07
-7.76484e-06
3.11526e-07
-7.91699e-06
3.30059e-07
-8.06516e-06
2.99485e-07
-8.20905e-06
2.74259e-07
-8.34603e-06
2.66202e-07
-8.47746e-06
2.66285e-07
-8.5985e-06
2.44598e-07
-8.7087e-06
2.11812e-07
-8.81067e-06
1.90095e-07
-8.90019e-06
1.68393e-07
-8.98031e-06
1.59014e-07
-9.05625e-06
1.51108e-07
-9.12369e-06
1.33058e-07
-9.18265e-06
1.18401e-07
-9.23831e-06
1.17893e-07
-9.29069e-06
1.10131e-07
-9.33384e-06
8.58603e-08
-9.36484e-06
6.09102e-08
-9.3938e-06
5.53061e-08
-9.41973e-06
4.47887e-08
-9.43385e-06
1.84355e-08
-9.42546e-06
-2.2096e-08
-9.40127e-06
-5.68248e-08
-9.36128e-06
-9.02644e-08
-9.3042e-06
-1.25604e-07
-9.23311e-06
-1.63607e-07
-9.14712e-06
-2.0793e-07
-9.03871e-06
-2.64945e-07
-8.9044e-06
-3.42843e-07
-8.75999e-06
-4.40675e-07
-8.60038e-06
-5.64557e-07
-8.45271e-06
-7.22221e-07
-8.37587e-06
-9.53595e-07
-8.39287e-06
-1.20066e-06
-8.12575e-06
-1.27048e-06
-7.21828e-06
-1.26972e-06
-6.00513e-06
-1.38087e-06
-4.85258e-06
-1.108e-06
-4.35509e-06
-4.62078e-07
-4.07126e-06
-2.04942e-07
-3.97595e-06
1.52092e-09
-3.95119e-06
-3.77035e-08
-3.96207e-06
-7.70113e-09
-4.05385e-06
8.73387e-08
-4.15707e-06
1.1969e-07
-4.15318e-06
5.16444e-09
-4.1398e-06
-5.75426e-10
-4.13182e-06
-1.55902e-09
-4.12422e-06
-1.75628e-08
-4.12206e-06
-1.80959e-08
-4.11706e-06
-2.91689e-08
-4.10008e-06
-5.63096e-08
-4.08512e-06
-7.4314e-08
-4.07172e-06
-9.81346e-08
-4.07505e-06
-1.31787e-07
-4.05322e-06
-1.42444e-07
-3.97564e-06
-1.34681e-07
-3.83184e-06
-1.58305e-07
-3.69582e-06
-1.35389e-07
-3.62661e-06
-8.42513e-08
-3.59012e-06
-4.27093e-08
-3.57079e-06
-2.61595e-08
-3.54515e-06
-4.82474e-08
-3.52141e-06
-4.84147e-08
-3.50658e-06
-3.91217e-08
-3.49078e-06
-4.03561e-08
-3.46262e-06
-5.61586e-08
-3.43448e-06
-5.975e-08
-3.4057e-06
-6.6626e-08
-3.37498e-06
-7.72934e-08
-3.34534e-06
-8.82419e-08
-3.31725e-06
-1.0306e-07
-3.30591e-06
-1.27454e-07
-3.27768e-06
-1.3383e-07
-3.20789e-06
-1.26116e-07
-3.08714e-06
-1.44826e-07
-2.97053e-06
-1.27088e-07
-2.9067e-06
-8.71599e-08
-2.86922e-06
-5.25117e-08
-2.8484e-06
-3.71415e-08
-2.8214e-06
-5.26779e-08
-2.80113e-06
-4.55068e-08
-2.78036e-06
-4.65741e-08
-2.75228e-06
-5.59703e-08
-2.72451e-06
-5.6313e-08
-2.69666e-06
-5.7419e-08
-2.66751e-06
-6.0193e-08
-2.63737e-06
-6.12498e-08
-2.60639e-06
-6.25267e-08
-2.57457e-06
-6.40643e-08
-2.54216e-06
-6.5109e-08
-2.50944e-06
-6.58716e-08
-2.47635e-06
-6.64476e-08
-2.44279e-06
-6.70362e-08
-2.40889e-06
-6.76045e-08
-2.37473e-06
-6.81245e-08
-2.34026e-06
-6.86397e-08
-2.30552e-06
-6.90912e-08
-2.27051e-06
-6.94805e-08
-2.23534e-06
-6.97628e-08
-2.19994e-06
-7.00874e-08
-2.16433e-06
-7.03869e-08
-2.12874e-06
-7.05921e-08
-2.0931e-06
-7.06825e-08
-2.05742e-06
-7.07952e-08
-2.02173e-06
-7.08454e-08
-1.98621e-06
-7.0851e-08
-1.95079e-06
-7.08599e-08
-1.91551e-06
-7.08261e-08
-1.88041e-06
-7.07376e-08
-1.84548e-06
-7.05734e-08
-1.81075e-06
-7.04113e-08
-1.77622e-06
-7.02086e-08
-1.74192e-06
-6.99503e-08
-1.70784e-06
-6.96555e-08
-1.67399e-06
-6.93128e-08
-1.64035e-06
-6.89348e-08
-1.60695e-06
-6.85223e-08
-1.57377e-06
-6.80862e-08
-1.5408e-06
-6.76206e-08
-1.50802e-06
-6.71225e-08
-1.47545e-06
-6.65965e-08
-1.44309e-06
-6.60568e-08
-1.41095e-06
-6.54886e-08
-1.37905e-06
-6.48885e-08
-1.3474e-06
-6.42423e-08
-1.31602e-06
-6.35943e-08
-1.28492e-06
-6.29476e-08
-1.25411e-06
-6.22713e-08
-1.22359e-06
-6.15643e-08
-1.19338e-06
-6.08628e-08
-1.16348e-06
-6.01578e-08
-1.13391e-06
-5.94217e-08
-1.10468e-06
-5.86598e-08
-1.07581e-06
-5.78985e-08
-1.04731e-06
-5.7134e-08
-1.01917e-06
-5.63461e-08
-9.91425e-07
-5.55388e-08
-9.64074e-07
-5.47312e-08
-9.37126e-07
-5.39188e-08
-9.10594e-07
-5.30818e-08
-8.84488e-07
-5.22261e-08
-8.5881e-07
-5.13727e-08
-8.33558e-07
-5.05228e-08
-8.08737e-07
-4.96609e-08
-7.84358e-07
-4.87774e-08
-7.60433e-07
-4.78822e-08
-7.36963e-07
-4.69876e-08
-7.13951e-07
-4.60916e-08
-6.91396e-07
-4.51873e-08
-6.69298e-07
-4.42779e-08
-6.47648e-07
-4.33741e-08
-6.26441e-07
-4.24741e-08
-6.0568e-07
-4.15693e-08
-5.85368e-07
-4.06629e-08
-5.65502e-07
-3.97652e-08
-5.46076e-07
-3.88764e-08
-5.27087e-07
-3.79926e-08
-5.08533e-07
-3.71127e-08
-4.90411e-07
-3.62344e-08
-4.72723e-07
-3.53539e-08
-4.55471e-07
-3.44745e-08
-4.38658e-07
-3.36014e-08
-4.22288e-07
-3.27364e-08
-4.06358e-07
-3.18868e-08
-3.90856e-07
-3.10623e-08
-3.75766e-07
-3.02626e-08
-3.61072e-07
-2.94692e-08
-3.46764e-07
-2.86754e-08
-3.32833e-07
-2.78887e-08
-3.19274e-07
-2.71075e-08
-3.0609e-07
-2.63211e-08
-2.93286e-07
-2.55304e-08
-2.80866e-07
-2.47533e-08
-2.68828e-07
-2.39991e-08
-2.57169e-07
-2.32578e-08
-2.45884e-07
-2.25261e-08
-2.34961e-07
-2.18151e-08
-2.24383e-07
-2.11316e-08
-2.14133e-07
-2.04662e-08
-2.04199e-07
-1.98096e-08
-1.94572e-07
-1.91669e-08
-1.85247e-07
-1.8545e-08
-1.76225e-07
-1.7938e-08
-1.67506e-07
-1.73373e-08
-1.59092e-07
-1.67456e-08
-1.50973e-07
-1.61713e-08
-1.43137e-07
-1.56163e-08
-1.35569e-07
-1.50779e-08
-1.28256e-07
-1.45553e-08
-1.21185e-07
-1.40468e-08
-1.1435e-07
-1.35458e-08
-1.07749e-07
-1.30497e-08
-1.0138e-07
-1.25671e-08
-9.52398e-08
-1.21099e-08
-8.93222e-08
-1.16814e-08
-8.36197e-08
-1.1276e-08
-7.81242e-08
-1.08857e-08
-7.28284e-08
-1.05013e-08
-6.77288e-08
-1.01139e-08
-6.28261e-08
-9.71805e-09
-5.81201e-08
-9.32062e-09
-5.36035e-08
-8.93654e-09
-4.92647e-08
-8.57374e-09
-4.50917e-08
-8.22954e-09
-4.10778e-08
-7.89684e-09
-3.72204e-08
-7.57655e-09
-3.35152e-08
-7.27634e-09
-2.99542e-08
-6.99747e-09
-2.653e-08
-6.72931e-09
-2.32404e-08
-6.46104e-09
-2.00864e-08
-6.19623e-09
-1.70658e-08
-5.94842e-09
-1.41716e-08
-5.72346e-09
-1.13961e-08
-5.51052e-09
-8.73403e-09
-5.29509e-09
-6.1815e-09
-5.07438e-09
-3.73295e-09
-4.85558e-09
-1.38281e-09
-4.64265e-09
8.71218e-10
-4.43313e-09
3.0294e-09
-4.22683e-09
5.09378e-09
-4.02862e-09
7.06851e-09
-3.8408e-09
8.95684e-09
-3.66051e-09
1.07601e-08
-3.48708e-09
1.248e-08
-3.32408e-09
1.41181e-08
-3.17076e-09
1.56753e-08
-3.02005e-09
1.71517e-08
-2.8677e-09
1.85491e-08
-2.71605e-09
1.98703e-08
-2.56749e-09
2.11176e-08
-2.42026e-09
2.22932e-08
-2.27307e-09
2.34011e-08
-2.12852e-09
2.44469e-08
-1.98884e-09
2.54353e-08
-1.8528e-09
2.63684e-08
-1.71993e-09
2.72473e-08
-1.59526e-09
2.80748e-08
-1.48586e-09
2.88547e-08
-1.39368e-09
2.95908e-08
-1.31473e-09
3.02861e-08
-1.24454e-09
3.09435e-08
-1.1821e-09
3.15663e-08
-1.12785e-09
3.21574e-08
-1.07971e-09
3.27181e-08
-1.03254e-09
3.32476e-08
-9.81146e-10
3.37444e-08
-9.22887e-10
3.42074e-08
-8.57864e-10
3.46358e-08
-7.85251e-10
3.5029e-08
-7.05e-10
3.53862e-08
-6.19258e-10
3.57067e-08
-5.32321e-10
3.59903e-08
-4.48624e-10
3.62378e-08
-3.70613e-10
3.64521e-08
-2.98695e-10
3.66353e-08
-2.3313e-10
3.67908e-08
-1.75288e-10
3.69221e-08
-1.27285e-10
3.70327e-08
-9.05315e-11
3.71259e-08
-6.44416e-11
3.72042e-08
-4.63845e-11
3.7269e-08
-3.28348e-11
3.73212e-08
-2.05748e-11
3.73608e-08
-7.37347e-12
3.73879e-08
8.08805e-12
3.74024e-08
2.6474e-11
3.74047e-08
4.77428e-11
3.73953e-08
7.13686e-11
3.73746e-08
9.6263e-11
3.73432e-08
1.21001e-10
3.73016e-08
1.43994e-10
3.72506e-08
1.63616e-10
3.71918e-08
1.78694e-10
3.71268e-08
1.89242e-10
3.70568e-08
1.97046e-10
3.6981e-08
2.05145e-10
3.68965e-08
2.16044e-10
3.67996e-08
2.30088e-10
3.66882e-08
2.45773e-10
3.6563e-08
2.62638e-10
3.64263e-08
2.83662e-10
3.62786e-08
3.13135e-10
3.61181e-08
3.50652e-10
3.5943e-08
3.88778e-10
3.57556e-08
4.1795e-10
3.55611e-08
4.3521e-10
3.53635e-08
4.45425e-10
3.51624e-08
4.52903e-10
3.49561e-08
4.54497e-10
3.47461e-08
4.45229e-10
3.45355e-08
4.29806e-10
3.43236e-08
4.22453e-10
3.4105e-08
4.31948e-10
3.38746e-08
4.52241e-10
3.36328e-08
4.72966e-10
3.33828e-08
4.9295e-10
3.31256e-08
5.18271e-10
3.28595e-08
5.49404e-10
3.2584e-08
5.77347e-10
3.23014e-08
5.94948e-10
3.20137e-08
6.04917e-10
3.17208e-08
6.12176e-10
3.14225e-08
6.15728e-10
3.11196e-08
6.14576e-10
3.08119e-08
6.14042e-10
3.04982e-08
6.19449e-10
3.01783e-08
6.29941e-10
2.9853e-08
6.43948e-10
2.95219e-08
6.63557e-10
2.91842e-08
6.87879e-10
2.88416e-08
7.084e-10
2.84983e-08
7.17135e-10
2.81576e-08
7.15535e-10
2.7819e-08
7.10555e-10
2.74796e-08
7.05508e-10
2.71371e-08
6.99638e-10
2.67908e-08
6.94833e-10
2.64397e-08
6.96687e-10
2.60825e-08
7.08247e-10
2.5719e-08
7.25921e-10
2.53509e-08
7.4308e-10
2.49809e-08
7.55497e-10
2.46113e-08
7.62004e-10
2.42436e-08
7.61734e-10
2.38787e-08
7.535e-10
2.35178e-08
7.38229e-10
2.31613e-08
7.20547e-10
2.28081e-08
7.06767e-10
2.2456e-08
7.00482e-10
2.21039e-08
6.99448e-10
2.17533e-08
6.9787e-10
2.14073e-08
6.92962e-10
2.10676e-08
6.87002e-10
2.07332e-08
6.80786e-10
2.0403e-08
6.69841e-10
2.00769e-08
6.51957e-10
1.97533e-08
6.33409e-10
1.94292e-08
6.2283e-10
1.91025e-08
6.22627e-10
1.8774e-08
6.29704e-10
1.84465e-08
6.39251e-10
1.81231e-08
6.45072e-10
1.78068e-08
6.42004e-10
1.74986e-08
6.30647e-10
1.71964e-08
6.1618e-10
1.68958e-08
6.04248e-10
1.65922e-08
5.99821e-10
1.62826e-08
6.0546e-10
1.59672e-08
6.18754e-10
1.56484e-08
6.34802e-10
1.53298e-08
6.48562e-10
1.50148e-08
6.55221e-10
1.47051e-08
6.51587e-10
1.43997e-08
6.37798e-10
1.40966e-08
6.19138e-10
1.37937e-08
6.04703e-10
1.34896e-08
5.99878e-10
1.31864e-08
5.99446e-10
1.28903e-08
5.93406e-10
1.26034e-08
5.84851e-10
1.2322e-08
5.78894e-10
1.20417e-08
5.70244e-10
1.17596e-08
5.59766e-10
1.14761e-08
5.52513e-10
1.11948e-08
5.49265e-10
1.09184e-08
5.4853e-10
1.06488e-08
5.45345e-10
1.03872e-08
5.33739e-10
1.01348e-08
5.14181e-10
9.88633e-09
5.00011e-10
9.63899e-09
4.91122e-10
9.39354e-09
4.82427e-10
9.14981e-09
4.79255e-10
8.90709e-09
4.77511e-10
8.67063e-09
4.65077e-10
8.43282e-09
4.59199e-10
8.20045e-09
4.60419e-10
7.98805e-09
4.47438e-10
7.77295e-09
4.62514e-10
7.56049e-09
4.59991e-10
7.38295e-09
3.92858e-10
7.27047e-09
3.2252e-10
7.17052e-09
2.91429e-10
7.02318e-09
3.0208e-10
6.84605e-09
2.91275e-10
6.66821e-09
2.75533e-10
6.51901e-09
2.62093e-10
6.38712e-09
2.20798e-10
6.25814e-09
2.18274e-10
6.13993e-09
2.10834e-10
6.01599e-09
2.38317e-10
5.8972e-09
2.41715e-10
5.77841e-09
2.32445e-10
5.66202e-09
2.30468e-10
5.55824e-09
1.85676e-10
5.44942e-09
2.1009e-10
5.32129e-09
2.75107e-10
5.21017e-09
2.51828e-10
5.10563e-09
2.36564e-10
5.03898e-09
1.69593e-10
4.96895e-09
1.8415e-10
4.8907e-09
1.79878e-10
4.8225e-09
1.29237e-10
4.75788e-09
1.02402e-10
4.68295e-09
8.50491e-11
4.58891e-09
1.48136e-10
4.55244e-09
5.67869e-11
4.50388e-09
1.13374e-10
4.42874e-09
1.49994e-10
4.39298e-09
1.40081e-10
4.37383e-09
9.20597e-11
4.33098e-09
6.43858e-11
4.30846e-09
1.10627e-10
4.2437e-09
8.69166e-11
4.06249e-09
1.8339e-10
3.99984e-09
1.29309e-10
3.93029e-09
1.44557e-10
3.79775e-09
3.29178e-10
4.00821e-09
-1.24933e-10
4.25069e-09
-1.11998e-10
5.28263e-09
-8.89709e-10
6.28055e-09
-1.13717e-09
6.88753e-09
-7.17615e-10
6.90872e-09
-9.05708e-10
6.48331e-09
-3.89979e-10
6.42098e-09
-2.1921e-10
6.36861e-09
-1.48582e-10
6.2768e-09
7.88206e-11
6.14018e-09
1.88755e-10
5.95664e-09
2.80232e-10
5.71252e-09
4.01802e-10
5.47271e-09
4.64571e-10
5.26716e-09
4.75661e-10
5.05834e-09
5.0459e-10
4.8265e-09
5.46523e-10
4.58783e-09
5.49136e-10
4.35135e-09
5.11878e-10
4.10707e-09
4.78317e-10
3.84714e-09
4.75866e-10
3.58869e-09
4.82168e-10
3.35649e-09
4.61437e-10
3.16228e-09
4.07206e-10
3.00406e-09
3.39212e-10
2.86965e-09
2.85057e-10
2.74073e-09
2.62052e-10
2.6005e-09
2.74319e-10
2.43751e-09
3.14661e-10
2.25179e-09
3.64185e-10
2.05185e-09
4.05558e-10
1.85339e-09
4.23947e-10
1.67097e-09
4.16764e-10
1.51413e-09
3.88422e-10
1.39046e-09
3.40973e-10
1.30014e-09
2.78066e-10
1.24675e-09
1.96134e-10
1.22849e-09
9.71195e-11
1.24071e-09
-1.10294e-11
1.28577e-09
-1.25744e-10
1.3576e-09
-2.29803e-10
1.45652e-09
-3.18577e-10
1.58232e-09
-3.8544e-10
1.73456e-09
-4.31383e-10
1.9077e-09
-4.54924e-10
2.09223e-09
-4.5688e-10
2.27264e-09
-4.33316e-10
2.42993e-09
-3.78632e-10
2.5484e-09
-2.93256e-10
2.62489e-09
-1.91645e-10
2.66681e-09
-9.55246e-11
2.69674e-09
-3.38349e-11
2.72947e-09
-1.28726e-11
2.76992e-09
-2.48317e-11
2.82353e-09
-6.61963e-11
2.89645e-09
-1.33534e-10
2.99571e-09
-2.27333e-10
3.13058e-09
-3.30897e-10
3.28894e-09
-3.95729e-10
3.434e-09
-3.61058e-10
3.53161e-09
-2.22043e-10
3.5853e-09
-6.7015e-11
3.63451e-09
-1.49452e-11
3.71955e-09
-1.1783e-10
3.80666e-09
-2.57237e-10
3.81103e-09
-2.21631e-10
3.68164e-09
5.70124e-11
3.47206e-09
3.89842e-10
3.34578e-09
4.76706e-10
3.37279e-09
2.46982e-10
3.38635e-09
2.97144e-11
3.24769e-09
1.36872e-10
2.9581e-09
4.74406e-10
2.78954e-09
5.46835e-10
2.86482e-09
1.91567e-10
2.92085e-09
-1.21297e-10
2.75343e-09
8.33938e-12
2.61571e-09
1.65549e-10
2.71949e-09
-5.65091e-11
2.78576e-09
-3.00939e-10
2.55801e-09
-1.51556e-10
2.36857e-09
1.44244e-10
2.27627e-09
2.84672e-10
2.13011e-09
2.47671e-10
2.0265e-09
4.27814e-10
2.11385e-09
2.14498e-10
1.24928e-09
-1.68337e-06
-5.05512e-07
-1.72058e-06
-3.05763e-08
-1.73447e-06
-2.99105e-08
-1.76777e-06
2.33156e-09
-1.7953e-06
4.96985e-08
-1.81825e-06
8.41144e-08
-1.84771e-06
1.09939e-07
-1.89056e-06
1.4443e-07
-1.94621e-06
1.77781e-07
-2.01664e-06
2.09782e-07
-2.10303e-06
2.48459e-07
-2.20162e-06
2.86676e-07
-2.3118e-06
3.23482e-07
-2.42287e-06
3.57625e-07
-2.54775e-06
3.87803e-07
-2.68388e-06
4.14454e-07
-2.82524e-06
4.34643e-07
-2.97415e-06
4.5476e-07
-3.13057e-06
4.77871e-07
-3.29299e-06
5.00935e-07
-3.45561e-06
5.19964e-07
-3.61952e-06
5.33799e-07
-3.78939e-06
5.44881e-07
-3.96946e-06
5.53137e-07
-4.14995e-06
5.62263e-07
-4.32668e-06
5.68567e-07
-4.50405e-06
5.76157e-07
-4.68773e-06
5.91217e-07
-4.87921e-06
5.97447e-07
-5.06813e-06
6.06618e-07
-5.26213e-06
6.4063e-07
-5.46548e-06
6.51632e-07
-5.6764e-06
6.28115e-07
-5.87395e-06
5.66639e-07
-6.05512e-06
5.60717e-07
-6.23162e-06
5.90554e-07
-6.41484e-06
5.94958e-07
-6.61084e-06
5.82141e-07
-6.78988e-06
5.46922e-07
-6.95305e-06
5.18937e-07
-7.11039e-06
5.32637e-07
-7.26123e-06
5.31636e-07
-7.42781e-06
4.99708e-07
-7.59671e-06
4.70048e-07
-7.75192e-06
4.59199e-07
-7.89083e-06
4.63119e-07
-8.03861e-06
4.44336e-07
-8.19592e-06
4.25493e-07
-8.34395e-06
4.07905e-07
-8.47497e-06
3.90849e-07
-8.60044e-06
3.6289e-07
-8.72468e-06
3.29003e-07
-8.83787e-06
2.96676e-07
-8.93773e-06
2.60933e-07
-9.02924e-06
2.42954e-07
-9.10568e-06
2.21241e-07
-9.17042e-06
1.90213e-07
-9.23826e-06
1.77151e-07
-9.29519e-06
1.67323e-07
-9.33923e-06
1.499e-07
-9.38159e-06
1.18448e-07
-9.42132e-06
9.08666e-08
-9.45194e-06
7.83053e-08
-9.46753e-06
5.6515e-08
-9.47635e-06
1.97852e-08
-9.47771e-06
-3.13874e-08
-9.46422e-06
-7.75731e-08
-9.43517e-06
-1.26404e-07
-9.39209e-06
-1.75395e-07
-9.33602e-06
-2.27601e-07
-9.26434e-06
-2.82676e-07
-9.18902e-06
-3.49244e-07
-9.10373e-06
-4.34151e-07
-9.01917e-06
-5.31055e-07
-8.93512e-06
-6.54385e-07
-8.87442e-06