/*--------------------------------*- C++ -*----------------------------------*\
| =========                 |                                                 |
| \\      /  F ield         | OpenFOAM: The Open Source CFD Toolbox           |
|  \\    /   O peration     | Version:  v2006                                 |
|   \\  /    A nd           | Website:  www.openfoam.com                      |
|    \\/     M anipulation  |                                                 |
\*---------------------------------------------------------------------------*/
FoamFile
{
    version     2.0;
    format      ascii;
    class       volScalarField;
    location    "1.3";
    object      k;
}
// * * * * * * * * * * * * * * * * * * * * * * * * * * * * * * * * * * * * * //

dimensions      [0 2 -2 0 0 0 0];


internalField   nonuniform List<scalar> 
33000
(
2.09441e-08
2.01282e-08
2.02341e-08
2.03412e-08
2.03464e-08
2.03976e-08
2.04246e-08
2.04581e-08
2.04946e-08
2.05349e-08
2.05787e-08
2.0629e-08
2.06882e-08
2.07548e-08
2.07915e-08
2.08194e-08
2.08263e-08
2.08292e-08
2.08314e-08
2.08341e-08
2.08239e-08
2.0809e-08
2.07946e-08
2.07795e-08
2.07641e-08
2.07349e-08
2.06963e-08
2.06559e-08
2.06133e-08
2.05667e-08
2.05139e-08
2.04567e-08
2.04003e-08
2.03466e-08
2.02971e-08
2.02505e-08
2.02032e-08
2.01534e-08
2.01009e-08
2.00458e-08
1.99863e-08
1.99189e-08
1.98433e-08
1.97642e-08
1.96823e-08
1.95964e-08
1.95083e-08
1.94183e-08
1.93269e-08
1.92343e-08
1.91371e-08
1.90364e-08
1.89386e-08
1.88465e-08
1.87592e-08
1.86736e-08
1.8588e-08
1.8502e-08
1.84137e-08
1.83199e-08
1.82215e-08
1.81237e-08
1.80269e-08
1.79298e-08
1.78305e-08
1.77275e-08
1.762e-08
1.75102e-08
1.73992e-08
1.72833e-08
1.71582e-08
1.70174e-08
1.68506e-08
1.66484e-08
1.6405e-08
1.61069e-08
1.57349e-08
1.52489e-08
1.44995e-08
1.46426e-08
1.44192e-08
1.44678e-08
1.44285e-08
1.43728e-08
1.43623e-08
1.43103e-08
1.42355e-08
1.4181e-08
1.41351e-08
1.40858e-08
1.40371e-08
1.39896e-08
1.39428e-08
1.38948e-08
1.38455e-08
1.37904e-08
1.37326e-08
1.36728e-08
1.36131e-08
1.35365e-08
1.34929e-08
1.34387e-08
1.33884e-08
1.33364e-08
1.32864e-08
1.32344e-08
1.31794e-08
1.31251e-08
1.30719e-08
1.30196e-08
1.29674e-08
1.29126e-08
1.28582e-08
1.28045e-08
1.27488e-08
1.26914e-08
1.26365e-08
1.25423e-08
1.25024e-08
1.24464e-08
1.23984e-08
1.23495e-08
1.23003e-08
1.22528e-08
1.22036e-08
1.21535e-08
1.2104e-08
1.2055e-08
1.20063e-08
1.19582e-08
1.19096e-08
1.18609e-08
1.18127e-08
1.1765e-08
1.17168e-08
1.16674e-08
1.16186e-08
1.15705e-08
1.15234e-08
1.14773e-08
1.14302e-08
1.13838e-08
1.13379e-08
1.12922e-08
1.12449e-08
1.11981e-08
1.11524e-08
1.11078e-08
1.10617e-08
1.10163e-08
1.09714e-08
1.0927e-08
1.08834e-08
1.08409e-08
1.07998e-08
1.07594e-08
1.07196e-08
1.06804e-08
1.06418e-08
1.0604e-08
1.05673e-08
1.05319e-08
1.0497e-08
1.04626e-08
1.04288e-08
1.03954e-08
1.03626e-08
1.03302e-08
1.02985e-08
1.02677e-08
1.0238e-08
1.0209e-08
1.01805e-08
1.01523e-08
1.01247e-08
1.00977e-08
1.00718e-08
1.00467e-08
1.00221e-08
9.99785e-09
9.97404e-09
9.95063e-09
9.92765e-09
9.90518e-09
9.88363e-09
9.86304e-09
9.84292e-09
9.82317e-09
9.80379e-09
9.78479e-09
9.76633e-09
9.74885e-09
9.73208e-09
9.71569e-09
9.69961e-09
9.68385e-09
9.66843e-09
9.65346e-09
9.63937e-09
9.62596e-09
9.61287e-09
9.60005e-09
9.58747e-09
9.57516e-09
9.56315e-09
9.55169e-09
9.54105e-09
9.5308e-09
9.52077e-09
9.51095e-09
9.50133e-09
9.49193e-09
9.48281e-09
9.4743e-09
9.46636e-09
9.45864e-09
9.45106e-09
9.44361e-09
9.43631e-09
9.42919e-09
9.42244e-09
9.41628e-09
9.41037e-09
9.40456e-09
9.39883e-09
9.39318e-09
9.38761e-09
9.38215e-09
9.37686e-09
9.37204e-09
9.36756e-09
9.36319e-09
9.35887e-09
9.35461e-09
9.35038e-09
9.3462e-09
9.34207e-09
9.33801e-09
9.33416e-09
9.33071e-09
9.32741e-09
9.32415e-09
9.32093e-09
9.31772e-09
9.31452e-09
9.31133e-09
9.30819e-09
9.3052e-09
9.30241e-09
9.29967e-09
9.29692e-09
9.29418e-09
9.29147e-09
9.2888e-09
9.28623e-09
9.28385e-09
9.28154e-09
9.27926e-09
9.27703e-09
9.27482e-09
9.27261e-09
9.27039e-09
9.26817e-09
9.26598e-09
9.26395e-09
9.262e-09
9.26004e-09
9.25809e-09
9.25613e-09
9.25418e-09
9.25227e-09
9.25047e-09
9.24883e-09
9.24722e-09
9.24561e-09
9.24399e-09
9.24236e-09
9.2407e-09
9.23902e-09
9.23731e-09
9.23556e-09
9.23378e-09
9.23199e-09
9.2302e-09
9.22844e-09
9.2267e-09
9.225e-09
9.22334e-09
9.22172e-09
9.22015e-09
9.21862e-09
9.21713e-09
9.21566e-09
9.21421e-09
9.21276e-09
9.21129e-09
9.20981e-09
9.2083e-09
9.20679e-09
9.20527e-09
9.20374e-09
9.20222e-09
9.20071e-09
9.19922e-09
9.19776e-09
9.19635e-09
9.19498e-09
9.19367e-09
9.1924e-09
9.19117e-09
9.18997e-09
9.18879e-09
9.18761e-09
9.18645e-09
9.18528e-09
9.18412e-09
9.18297e-09
9.18183e-09
9.18073e-09
9.17965e-09
9.1786e-09
9.17759e-09
9.17661e-09
9.17567e-09
9.17476e-09
9.17388e-09
9.173e-09
9.17211e-09
9.17119e-09
9.17026e-09
9.16933e-09
9.16841e-09
9.1675e-09
9.16662e-09
9.16578e-09
9.165e-09
9.16428e-09
9.16358e-09
9.16289e-09
9.16221e-09
9.16152e-09
9.16082e-09
9.16009e-09
9.15933e-09
9.15856e-09
9.15779e-09
9.15703e-09
9.15628e-09
9.15556e-09
9.15488e-09
9.15421e-09
9.15355e-09
9.15289e-09
9.15222e-09
9.15153e-09
9.15081e-09
9.15007e-09
9.14933e-09
9.14861e-09
9.14791e-09
9.14724e-09
9.14659e-09
9.14597e-09
9.14536e-09
9.14474e-09
9.14409e-09
9.14343e-09
9.14275e-09
9.14208e-09
9.14142e-09
9.14077e-09
9.14016e-09
9.13958e-09
9.13902e-09
9.13846e-09
9.13791e-09
9.13736e-09
9.13681e-09
9.13627e-09
9.13573e-09
9.13522e-09
9.13474e-09
9.1343e-09
9.13387e-09
9.13345e-09
9.133e-09
9.13254e-09
9.13205e-09
9.13157e-09
9.1311e-09
9.13066e-09
9.13024e-09
9.12982e-09
9.12941e-09
9.12897e-09
9.1285e-09
9.128e-09
9.12749e-09
9.12699e-09
9.12651e-09
9.12608e-09
9.12566e-09
9.12525e-09
9.12483e-09
9.12441e-09
9.12399e-09
9.12357e-09
9.12318e-09
9.12281e-09
9.12245e-09
9.12209e-09
9.12171e-09
9.12132e-09
9.12096e-09
9.12062e-09
9.1203e-09
9.12e-09
9.11971e-09
9.11941e-09
9.11911e-09
9.11884e-09
9.11856e-09
9.11825e-09
9.11793e-09
9.11759e-09
9.11727e-09
9.11699e-09
9.11671e-09
9.11651e-09
9.11624e-09
9.11617e-09
9.11594e-09
9.11585e-09
9.11576e-09
9.11567e-09
9.11557e-09
9.11541e-09
9.11527e-09
9.11513e-09
9.11502e-09
9.11499e-09
9.11482e-09
9.11463e-09
9.11446e-09
9.11433e-09
9.11424e-09
9.11409e-09
9.11403e-09
9.11402e-09
9.11409e-09
9.11411e-09
9.11412e-09
9.11416e-09
9.11408e-09
9.11404e-09
9.11386e-09
9.11394e-09
9.11393e-09
9.11382e-09
9.11401e-09
9.11398e-09
9.11396e-09
9.11375e-09
9.11364e-09
9.11359e-09
9.11331e-09
9.11335e-09
9.11376e-09
9.11326e-09
9.11638e-09
9.11549e-09
9.11566e-09
9.11565e-09
9.11546e-09
9.11523e-09
9.11495e-09
9.11458e-09
9.11414e-09
9.11367e-09
9.11322e-09
9.11283e-09
9.11253e-09
9.11233e-09
9.1122e-09
9.11211e-09
9.11203e-09
9.11198e-09
9.11195e-09
9.11194e-09
9.11194e-09
9.11195e-09
9.11197e-09
9.11202e-09
9.1121e-09
9.11222e-09
9.11238e-09
9.11256e-09
9.11276e-09
9.11297e-09
9.11314e-09
9.11325e-09
9.11325e-09
9.11316e-09
9.11297e-09
9.1127e-09
9.11239e-09
9.1121e-09
9.11185e-09
9.11166e-09
9.11156e-09
9.11155e-09
9.11159e-09
9.11166e-09
9.11172e-09
9.11174e-09
9.1117e-09
9.11165e-09
9.11161e-09
9.11166e-09
9.11185e-09
9.11217e-09
9.1126e-09
9.11302e-09
9.11333e-09
9.11343e-09
9.11339e-09
9.11337e-09
9.1136e-09
9.11403e-09
9.11431e-09
9.11422e-09
9.1137e-09
9.11304e-09
9.11267e-09
9.1127e-09
9.1126e-09
9.11217e-09
9.11155e-09
9.1113e-09
9.11169e-09
9.11178e-09
9.11165e-09
9.11192e-09
9.11282e-09
9.11318e-09
9.11296e-09
9.1127e-09
9.11239e-09
9.11195e-09
9.11765e-09
1.00989e-08
1.01663e-08
1.01598e-08
1.01434e-08
1.01519e-08
1.01582e-08
1.01558e-08
1.01534e-08
1.01526e-08
1.0151e-08
1.01512e-08
1.01532e-08
1.01556e-08
1.01641e-08
1.01638e-08
1.01627e-08
1.01625e-08
1.01616e-08
1.01611e-08
1.01618e-08
1.01631e-08
1.01626e-08
1.01597e-08
1.01551e-08
1.01538e-08
1.01543e-08
1.01529e-08
1.01497e-08
1.01461e-08
1.01458e-08
1.01448e-08
1.01406e-08
1.01325e-08
1.01291e-08
1.01303e-08
1.01286e-08
1.01229e-08
1.01148e-08
1.01152e-08
1.01164e-08
1.01154e-08
1.0112e-08
1.01023e-08
1.00971e-08
1.00979e-08
1.00983e-08
1.00899e-08
1.00827e-08
1.00813e-08
1.00812e-08
1.00767e-08
1.00703e-08
1.00662e-08
1.00631e-08
1.00621e-08
1.00608e-08
1.00586e-08
1.00564e-08
1.0056e-08
1.00547e-08
1.00518e-08
1.00492e-08
1.00484e-08
1.00479e-08
1.00473e-08
1.00468e-08
1.00465e-08
1.00469e-08
1.00474e-08
1.00479e-08
1.00489e-08
1.00506e-08
1.00535e-08
1.00581e-08
1.00651e-08
1.00745e-08
1.00834e-08
1.00825e-08
1.00637e-08
1.00426e-08
1.00385e-08
1.00419e-08
1.00352e-08
1.00422e-08
1.00472e-08
1.00317e-08
1.00293e-08
1.00268e-08
1.00275e-08
1.00275e-08
1.00266e-08
1.00242e-08
1.00258e-08
1.00234e-08
1.00244e-08
1.00263e-08
1.0027e-08
1.00269e-08
1.0027e-08
1.00266e-08
1.00262e-08
1.00259e-08
1.00258e-08
1.00254e-08
1.00253e-08
1.00251e-08
1.00248e-08
1.00229e-08
1.00207e-08
1.00207e-08
1.00225e-08
1.00228e-08
1.00231e-08
1.00234e-08
1.00235e-08
1.00235e-08
1.00236e-08
1.00229e-08
1.00222e-08
1.00218e-08
1.00215e-08
1.00212e-08
1.00211e-08
1.00206e-08
1.00203e-08
1.0018e-08
1.00176e-08
1.00185e-08
1.00185e-08
1.00182e-08
1.00182e-08
1.0018e-08
1.00179e-08
1.00177e-08
1.00175e-08
1.00172e-08
1.00169e-08
1.00167e-08
1.00163e-08
1.0016e-08
1.00157e-08
1.00154e-08
1.00151e-08
1.00148e-08
1.00145e-08
1.00142e-08
1.00139e-08
1.00136e-08
1.00133e-08
1.0013e-08
1.00127e-08
1.00124e-08
1.00122e-08
1.00119e-08
1.00116e-08
1.00113e-08
1.0011e-08
1.00108e-08
1.00105e-08
1.00102e-08
1.00099e-08
1.00096e-08
1.00093e-08
1.00091e-08
1.00088e-08
1.00085e-08
1.00082e-08
1.00079e-08
1.00076e-08
1.00073e-08
1.0007e-08
1.00068e-08
1.00065e-08
1.00062e-08
1.00059e-08
1.00056e-08
1.00054e-08
1.00051e-08
1.00048e-08
1.00046e-08
1.00043e-08
1.00041e-08
1.00038e-08
1.00036e-08
1.00033e-08
1.00031e-08
1.00028e-08
1.00026e-08
1.00023e-08
1.00021e-08
1.00019e-08
1.00016e-08
1.00014e-08
1.00011e-08
1.00009e-08
1.00007e-08
1.00005e-08
1.00003e-08
1.00001e-08
9.99985e-09
9.99965e-09
9.99945e-09
9.99925e-09
9.99905e-09
9.99886e-09
9.99867e-09
9.99848e-09
9.9983e-09
9.99811e-09
9.99793e-09
9.99776e-09
9.99759e-09
9.99743e-09
9.99726e-09
9.9971e-09
9.99694e-09
9.99679e-09
9.99665e-09
9.9965e-09
9.99635e-09
9.99621e-09
9.99607e-09
9.99594e-09
9.99581e-09
9.99568e-09
9.99556e-09
9.99545e-09
9.99534e-09
9.99523e-09
9.99513e-09
9.99502e-09
9.99492e-09
9.99483e-09
9.99474e-09
9.99465e-09
9.99456e-09
9.99448e-09
9.99441e-09
9.99434e-09
9.99426e-09
9.9942e-09
9.99413e-09
9.99406e-09
9.994e-09
9.99394e-09
9.99388e-09
9.99382e-09
9.99377e-09
9.99372e-09
9.99367e-09
9.99362e-09
9.99358e-09
9.99354e-09
9.9935e-09
9.99347e-09
9.99344e-09
9.99341e-09
9.99339e-09
9.99336e-09
9.99334e-09
9.99332e-09
9.9933e-09
9.99327e-09
9.99325e-09
9.99323e-09
9.99321e-09
9.9932e-09
9.99318e-09
9.99316e-09
9.99315e-09
9.99314e-09
9.99313e-09
9.99311e-09
9.9931e-09
9.99309e-09
9.99308e-09
9.99307e-09
9.99306e-09
9.99305e-09
9.99303e-09
9.99302e-09
9.99301e-09
9.993e-09
9.99299e-09
9.99299e-09
9.99298e-09
9.99297e-09
9.99297e-09
9.99296e-09
9.99295e-09
9.99295e-09
9.99294e-09
9.99293e-09
9.99292e-09
9.99292e-09
9.99291e-09
9.9929e-09
9.99289e-09
9.99289e-09
9.99288e-09
9.99287e-09
9.99287e-09
9.99286e-09
9.99286e-09
9.99285e-09
9.99285e-09
9.99284e-09
9.99284e-09
9.99284e-09
9.99284e-09
9.99283e-09
9.99283e-09
9.99283e-09
9.99282e-09
9.99282e-09
9.99282e-09
9.99281e-09
9.99281e-09
9.99281e-09
9.9928e-09
9.9928e-09
9.9928e-09
9.9928e-09
9.9928e-09
9.9928e-09
9.99279e-09
9.99279e-09
9.99279e-09
9.99278e-09
9.99278e-09
9.99278e-09
9.99277e-09
9.99277e-09
9.99277e-09
9.99277e-09
9.99277e-09
9.99277e-09
9.99276e-09
9.99276e-09
9.99276e-09
9.99276e-09
9.99275e-09
9.99275e-09
9.99275e-09
9.99274e-09
9.99274e-09
9.99274e-09
9.99274e-09
9.99274e-09
9.99273e-09
9.99273e-09
9.99273e-09
9.99273e-09
9.99272e-09
9.99272e-09
9.99272e-09
9.99271e-09
9.99271e-09
9.99271e-09
9.9927e-09
9.9927e-09
9.9927e-09
9.9927e-09
9.9927e-09
9.9927e-09
9.99269e-09
9.99269e-09
9.99269e-09
9.99269e-09
9.99268e-09
9.99268e-09
9.99268e-09
9.99268e-09
9.99268e-09
9.99268e-09
9.99268e-09
9.99268e-09
9.99267e-09
9.99267e-09
9.99267e-09
9.99267e-09
9.99267e-09
9.99267e-09
9.99267e-09
9.99267e-09
9.99267e-09
9.99266e-09
9.99266e-09
9.99266e-09
9.99266e-09
9.99266e-09
9.99266e-09
9.99266e-09
9.99265e-09
9.99265e-09
9.99265e-09
9.99264e-09
9.99264e-09
9.99264e-09
9.99264e-09
9.99264e-09
9.99264e-09
9.99264e-09
9.99264e-09
9.99264e-09
9.99263e-09
9.99263e-09
9.99263e-09
9.99263e-09
9.99263e-09
9.99263e-09
9.99263e-09
9.99263e-09
9.99263e-09
9.99263e-09
9.99263e-09
9.99263e-09
9.99263e-09
9.99263e-09
9.99263e-09
9.99263e-09
9.99262e-09
9.99262e-09
9.99262e-09
9.99262e-09
9.99262e-09
9.99262e-09
9.99262e-09
9.99262e-09
9.99262e-09
9.99262e-09
9.99262e-09
9.99263e-09
9.99263e-09
9.99263e-09
9.99262e-09
9.99262e-09
9.99262e-09
9.99262e-09
9.99262e-09
9.99262e-09
9.99262e-09
9.99262e-09
9.99262e-09
9.99262e-09
9.99262e-09
9.99262e-09
9.99262e-09
9.99262e-09
9.99262e-09
9.99262e-09
9.99262e-09
9.99262e-09
9.99262e-09
9.99261e-09
9.99262e-09
9.99262e-09
9.99262e-09
9.99262e-09
9.99262e-09
9.99262e-09
9.99262e-09
9.99261e-09
9.99263e-09
9.99262e-09
9.99269e-09
9.99269e-09
9.99261e-09
9.99261e-09
9.99261e-09
9.9926e-09
9.99259e-09
9.99259e-09
9.99258e-09
9.99258e-09
9.99258e-09
9.99257e-09
9.99257e-09
9.99257e-09
9.99257e-09
9.99257e-09
9.99257e-09
9.99258e-09
9.99259e-09
9.99259e-09
9.99258e-09
9.99259e-09
9.99259e-09
9.9926e-09
9.9926e-09
9.9926e-09
9.99261e-09
9.99261e-09
9.99261e-09
9.99261e-09
9.99261e-09
9.99261e-09
9.99261e-09
9.99262e-09
9.99263e-09
9.99264e-09
9.99265e-09
9.99265e-09
9.99266e-09
9.99266e-09
9.99266e-09
9.99266e-09
9.99266e-09
9.99266e-09
9.99266e-09
9.99266e-09
9.99266e-09
9.99266e-09
9.99266e-09
9.99266e-09
9.99266e-09
9.99266e-09
9.99266e-09
9.99266e-09
9.99267e-09
9.99267e-09
9.99267e-09
9.99267e-09
9.99267e-09
9.99267e-09
9.99267e-09
9.99267e-09
9.99267e-09
9.99267e-09
9.99268e-09
9.99266e-09
9.99263e-09
9.99264e-09
9.99266e-09
9.99267e-09
9.99266e-09
9.99263e-09
9.99264e-09
9.99267e-09
9.99268e-09
9.99267e-09
9.99267e-09
9.99267e-09
9.99268e-09
9.99267e-09
9.99265e-09
9.99266e-09
9.99263e-09
9.99263e-09
9.9927e-09
1.00007e-08
1.00056e-08
1.00064e-08
1.0007e-08
1.00087e-08
1.00101e-08
1.00111e-08
1.00118e-08
1.00125e-08
1.0013e-08
1.00132e-08
1.00133e-08
1.00133e-08
1.00135e-08
1.00133e-08
1.00129e-08
1.00126e-08
1.00122e-08
1.00118e-08
1.00113e-08
1.00109e-08
1.00105e-08
1.00101e-08
1.00095e-08
1.0009e-08
1.00085e-08
1.0008e-08
1.00075e-08
1.0007e-08
1.00068e-08
1.00067e-08
1.00065e-08
1.00062e-08
1.00059e-08
1.00057e-08
1.00056e-08
1.00053e-08
1.00051e-08
1.0005e-08
1.0005e-08
1.00053e-08
1.00055e-08
1.00056e-08
1.00058e-08
1.0006e-08
1.00061e-08
1.00061e-08
1.0006e-08
1.0006e-08
1.0006e-08
1.0006e-08
1.00059e-08
1.00059e-08
1.00059e-08
1.00059e-08
1.00059e-08
1.00059e-08
1.00059e-08
1.00059e-08
1.00059e-08
1.00059e-08
1.00059e-08
1.0006e-08
1.00061e-08
1.00062e-08
1.00063e-08
1.00066e-08
1.00068e-08
1.00071e-08
1.00073e-08
1.00076e-08
1.00078e-08
1.0008e-08
1.00082e-08
1.00084e-08
1.00085e-08
1.00085e-08
1.00084e-08
1.00083e-08
1.00084e-08
1.00088e-08
1.00093e-08
1.00095e-08
1.00101e-08
1.00105e-08
1.001e-08
1.00099e-08
1.00098e-08
1.00093e-08
1.00089e-08
1.00072e-08
1.0008e-08
1.00083e-08
1.00083e-08
1.00081e-08
1.00083e-08
1.0008e-08
1.00079e-08
1.0008e-08
1.0008e-08
1.0008e-08
1.0008e-08
1.0008e-08
1.0008e-08
1.00083e-08
1.00081e-08
1.00079e-08
1.00078e-08
1.00076e-08
1.00075e-08
1.00074e-08
1.00073e-08
1.00073e-08
1.00072e-08
1.00072e-08
1.00071e-08
1.00071e-08
1.0007e-08
1.00071e-08
1.0007e-08
1.00072e-08
1.00073e-08
1.00079e-08
1.00078e-08
1.0007e-08
1.0007e-08
1.00067e-08
1.00067e-08
1.00065e-08
1.00065e-08
1.00064e-08
1.00063e-08
1.00063e-08
1.00062e-08
1.00062e-08
1.00061e-08
1.00061e-08
1.0006e-08
1.00059e-08
1.00058e-08
1.00058e-08
1.00057e-08
1.00056e-08
1.00056e-08
1.00055e-08
1.00055e-08
1.00054e-08
1.00053e-08
1.00053e-08
1.00053e-08
1.00052e-08
1.00052e-08
1.00052e-08
1.00051e-08
1.00051e-08
1.00051e-08
1.00051e-08
1.00051e-08
1.0005e-08
1.0005e-08
1.0005e-08
1.00049e-08
1.00049e-08
1.00048e-08
1.00048e-08
1.00047e-08
1.00047e-08
1.00047e-08
1.00046e-08
1.00046e-08
1.00045e-08
1.00044e-08
1.00044e-08
1.00043e-08
1.00043e-08
1.00042e-08
1.00042e-08
1.00042e-08
1.00041e-08
1.00041e-08
1.0004e-08
1.0004e-08
1.00039e-08
1.00039e-08
1.00038e-08
1.00038e-08
1.00037e-08
1.00037e-08
1.00036e-08
1.00036e-08
1.00035e-08
1.00035e-08
1.00034e-08
1.00034e-08
1.00033e-08
1.00033e-08
1.00032e-08
1.00032e-08
1.00031e-08
1.00031e-08
1.0003e-08
1.0003e-08
1.00029e-08
1.00029e-08
1.00029e-08
1.00028e-08
1.00027e-08
1.00027e-08
1.00026e-08
1.00026e-08
1.00025e-08
1.00025e-08
1.00024e-08
1.00024e-08
1.00023e-08
1.00023e-08
1.00022e-08
1.00021e-08
1.00021e-08
1.0002e-08
1.0002e-08
1.00019e-08
1.00018e-08
1.00018e-08
1.00017e-08
1.00017e-08
1.00016e-08
1.00016e-08
1.00015e-08
1.00015e-08
1.00014e-08
1.00013e-08
1.00013e-08
1.00012e-08
1.00012e-08
1.00011e-08
1.00011e-08
1.0001e-08
1.00009e-08
1.00009e-08
1.00008e-08
1.00008e-08
1.00007e-08
1.00006e-08
1.00006e-08
1.00006e-08
1.00005e-08
1.00005e-08
1.00004e-08
1.00004e-08
1.00003e-08
1.00003e-08
1.00002e-08
1.00002e-08
1.00002e-08
1.00001e-08
1.00001e-08
1.00001e-08
1.00001e-08
1e-08
9.99999e-09
9.99996e-09
9.99993e-09
9.9999e-09
9.99987e-09
9.99984e-09
9.99982e-09
9.99979e-09
9.99977e-09
9.99976e-09
9.99974e-09
9.99972e-09
9.9997e-09
9.99968e-09
9.99967e-09
9.99965e-09
9.99963e-09
9.9996e-09
9.99958e-09
9.99956e-09
9.99954e-09
9.99952e-09
9.9995e-09
9.99949e-09
9.99947e-09
9.99946e-09
9.99945e-09
9.99944e-09
9.99943e-09
9.99941e-09
9.9994e-09
9.99939e-09
9.99937e-09
9.99935e-09
9.99933e-09
9.99931e-09
9.9993e-09
9.99928e-09
9.99927e-09
9.99925e-09
9.99923e-09
9.99922e-09
9.99921e-09
9.9992e-09
9.99919e-09
9.99918e-09
9.99918e-09
9.99917e-09
9.99916e-09
9.99915e-09
9.99914e-09
9.99913e-09
9.99912e-09
9.9991e-09
9.99909e-09
9.99908e-09
9.99906e-09
9.99905e-09
9.99905e-09
9.99904e-09
9.99903e-09
9.99903e-09
9.99903e-09
9.99903e-09
9.99903e-09
9.99902e-09
9.99902e-09
9.999e-09
9.99899e-09
9.99899e-09
9.99898e-09
9.99897e-09
9.99897e-09
9.99896e-09
9.99897e-09
9.99897e-09
9.99897e-09
9.99896e-09
9.99896e-09
9.99896e-09
9.99895e-09
9.99894e-09
9.99894e-09
9.99893e-09
9.99893e-09
9.99893e-09
9.99893e-09
9.99893e-09
9.99893e-09
9.99893e-09
9.99893e-09
9.99893e-09
9.99892e-09
9.99892e-09
9.99891e-09
9.9989e-09
9.9989e-09
9.9989e-09
9.99889e-09
9.9989e-09
9.9989e-09
9.9989e-09
9.9989e-09
9.9989e-09
9.99889e-09
9.99888e-09
9.99888e-09
9.99887e-09
9.99887e-09
9.99887e-09
9.99887e-09
9.99887e-09
9.99887e-09
9.99887e-09
9.99886e-09
9.99886e-09
9.99885e-09
9.99885e-09
9.99885e-09
9.99885e-09
9.99885e-09
9.99885e-09
9.99885e-09
9.99885e-09
9.99884e-09
9.99884e-09
9.99883e-09
9.99883e-09
9.99883e-09
9.99883e-09
9.99883e-09
9.99883e-09
9.99883e-09
9.99883e-09
9.99882e-09
9.99882e-09
9.99882e-09
9.99882e-09
9.99882e-09
9.99882e-09
9.99882e-09
9.99882e-09
9.99882e-09
9.99881e-09
9.99881e-09
9.99881e-09
9.99881e-09
9.99881e-09
9.99881e-09
9.99881e-09
9.9988e-09
9.9988e-09
9.9988e-09
9.9988e-09
9.9988e-09
9.9988e-09
9.9988e-09
9.9988e-09
9.9988e-09
9.99879e-09
9.99879e-09
9.99878e-09
9.99878e-09
9.99878e-09
9.99878e-09
9.99878e-09
9.99878e-09
9.99878e-09
9.99878e-09
9.99878e-09
9.99878e-09
9.99878e-09
9.99878e-09
9.99878e-09
9.99878e-09
9.99877e-09
9.99877e-09
9.99877e-09
9.99877e-09
9.99877e-09
9.99877e-09
9.99877e-09
9.99877e-09
9.99877e-09
9.99877e-09
9.99877e-09
9.99877e-09
9.99877e-09
9.99877e-09
9.99877e-09
9.99877e-09
9.99877e-09
9.99877e-09
9.99876e-09
9.99877e-09
9.99876e-09
9.99877e-09
9.99876e-09
9.99877e-09
9.99877e-09
9.99887e-09
9.99886e-09
9.99908e-09
9.99917e-09
9.9988e-09
9.99879e-09
9.99877e-09
9.99877e-09
9.99879e-09
9.99877e-09
9.99875e-09
9.99876e-09
9.99875e-09
9.99875e-09
9.99875e-09
9.99875e-09
9.99875e-09
9.99875e-09
9.99875e-09
9.99875e-09
9.99875e-09
9.99876e-09
9.99878e-09
9.99878e-09
9.99878e-09
9.99876e-09
9.99876e-09
9.99876e-09
9.99876e-09
9.99877e-09
9.99878e-09
9.99879e-09
9.99879e-09
9.99878e-09
9.99878e-09
9.99877e-09
9.99877e-09
9.99878e-09
9.99878e-09
9.99879e-09
9.99879e-09
9.99879e-09
9.99879e-09
9.99879e-09
9.99879e-09
9.99879e-09
9.9988e-09
9.9988e-09
9.99881e-09
9.99881e-09
9.99881e-09
9.99881e-09
9.99881e-09
9.99881e-09
9.9988e-09
9.99881e-09
9.9988e-09
9.9988e-09
9.9988e-09
9.99881e-09
9.99881e-09
9.99882e-09
9.99883e-09
9.99883e-09
9.99882e-09
9.99881e-09
9.99881e-09
9.99881e-09
9.99882e-09
9.99883e-09
9.9988e-09
9.99882e-09
9.99882e-09
9.99881e-09
9.99885e-09
9.99881e-09
9.99883e-09
9.99883e-09
9.99884e-09
9.99889e-09
9.99882e-09
9.99883e-09
9.99886e-09
9.99892e-09
9.99881e-09
9.9988e-09
9.99881e-09
9.99884e-09
9.99889e-09
9.99894e-09
1.00195e-08
1.00184e-08
1.00158e-08
1.00151e-08
1.00149e-08
1.00147e-08
1.00148e-08
1.00149e-08
1.00149e-08
1.00148e-08
1.00146e-08
1.00143e-08
1.00141e-08
1.00139e-08
1.00135e-08
1.00131e-08
1.00128e-08
1.00124e-08
1.0012e-08
1.00116e-08
1.00112e-08
1.00109e-08
1.00106e-08
1.00103e-08
1.00099e-08
1.00095e-08
1.00091e-08
1.00086e-08
1.00081e-08
1.00077e-08
1.00074e-08
1.00073e-08
1.00073e-08
1.00074e-08
1.00075e-08
1.00075e-08
1.00075e-08
1.00074e-08
1.00073e-08
1.00072e-08
1.00071e-08
1.0007e-08
1.00068e-08
1.00067e-08
1.00065e-08
1.00063e-08
1.00061e-08
1.00059e-08
1.00057e-08
1.00056e-08
1.00056e-08
1.00056e-08
1.00056e-08
1.00055e-08
1.00055e-08
1.00055e-08
1.00054e-08
1.00053e-08
1.00052e-08
1.00051e-08
1.00051e-08
1.0005e-08
1.0005e-08
1.00051e-08
1.00053e-08
1.00055e-08
1.00057e-08
1.00059e-08
1.00062e-08
1.00064e-08
1.00066e-08
1.00067e-08
1.00069e-08
1.0007e-08
1.0007e-08
1.0007e-08
1.00069e-08
1.00068e-08
1.00067e-08
1.00064e-08
1.00063e-08
1.00068e-08
1.00074e-08
1.00077e-08
1.00077e-08
1.00081e-08
1.00086e-08
1.00093e-08
1.00095e-08
1.00095e-08
1.00092e-08
1.00089e-08
1.00087e-08
1.0007e-08
1.00075e-08
1.00079e-08
1.0008e-08
1.00079e-08
1.0008e-08
1.00076e-08
1.00075e-08
1.00076e-08
1.00075e-08
1.00076e-08
1.00076e-08
1.00076e-08
1.00077e-08
1.00078e-08
1.00079e-08
1.00078e-08
1.00075e-08
1.00074e-08
1.00072e-08
1.00071e-08
1.0007e-08
1.00069e-08
1.00069e-08
1.00069e-08
1.00068e-08
1.00068e-08
1.00068e-08
1.00069e-08
1.00069e-08
1.00071e-08
1.00071e-08
1.00078e-08
1.00077e-08
1.00069e-08
1.00068e-08
1.00065e-08
1.00064e-08
1.00063e-08
1.00062e-08
1.00062e-08
1.00061e-08
1.0006e-08
1.0006e-08
1.00059e-08
1.00059e-08
1.00058e-08
1.00057e-08
1.00057e-08
1.00056e-08
1.00056e-08
1.00055e-08
1.00054e-08
1.00054e-08
1.00053e-08
1.00053e-08
1.00052e-08
1.00052e-08
1.00052e-08
1.00052e-08
1.00051e-08
1.00051e-08
1.00051e-08
1.0005e-08
1.0005e-08
1.0005e-08
1.0005e-08
1.00049e-08
1.00049e-08
1.00049e-08
1.00048e-08
1.00048e-08
1.00047e-08
1.00047e-08
1.00047e-08
1.00046e-08
1.00046e-08
1.00045e-08
1.00044e-08
1.00044e-08
1.00043e-08
1.00043e-08
1.00043e-08
1.00042e-08
1.00042e-08
1.00041e-08
1.00041e-08
1.0004e-08
1.0004e-08
1.00039e-08
1.00039e-08
1.00038e-08
1.00038e-08
1.00037e-08
1.00037e-08
1.00037e-08
1.00036e-08
1.00036e-08
1.00035e-08
1.00035e-08
1.00034e-08
1.00034e-08
1.00033e-08
1.00033e-08
1.00032e-08
1.00032e-08
1.00031e-08
1.00031e-08
1.0003e-08
1.0003e-08
1.00029e-08
1.00029e-08
1.00028e-08
1.00028e-08
1.00027e-08
1.00027e-08
1.00026e-08
1.00026e-08
1.00025e-08
1.00025e-08
1.00024e-08
1.00024e-08
1.00023e-08
1.00023e-08
1.00022e-08
1.00021e-08
1.00021e-08
1.0002e-08
1.0002e-08
1.00019e-08
1.00019e-08
1.00018e-08
1.00017e-08
1.00017e-08
1.00016e-08
1.00016e-08
1.00015e-08
1.00015e-08
1.00014e-08
1.00013e-08
1.00013e-08
1.00012e-08
1.00012e-08
1.00011e-08
1.00011e-08
1.0001e-08
1.0001e-08
1.00009e-08
1.00009e-08
1.00008e-08
1.00007e-08
1.00007e-08
1.00006e-08
1.00006e-08
1.00006e-08
1.00005e-08
1.00005e-08
1.00004e-08
1.00004e-08
1.00003e-08
1.00003e-08
1.00003e-08
1.00002e-08
1.00002e-08
1.00002e-08
1.00001e-08
1.00001e-08
1.00001e-08
1e-08
1e-08
9.99997e-09
9.99994e-09
9.99991e-09
9.99989e-09
9.99987e-09
9.99985e-09
9.99983e-09
9.99981e-09
9.99979e-09
9.99977e-09
9.99975e-09
9.99973e-09
9.99971e-09
9.99969e-09
9.99967e-09
9.99964e-09
9.99962e-09
9.9996e-09
9.99958e-09
9.99957e-09
9.99955e-09
9.99954e-09
9.99953e-09
9.99952e-09
9.99951e-09
9.9995e-09
9.99949e-09
9.99948e-09
9.99946e-09
9.99945e-09
9.99943e-09
9.9994e-09
9.99938e-09
9.99936e-09
9.99934e-09
9.99932e-09
9.9993e-09
9.99929e-09
9.99927e-09
9.99926e-09
9.99926e-09
9.99925e-09
9.99925e-09
9.99925e-09
9.99924e-09
9.99924e-09
9.99923e-09
9.99922e-09
9.9992e-09
9.99919e-09
9.99917e-09
9.99915e-09
9.99914e-09
9.99912e-09
9.99912e-09
9.99911e-09
9.99911e-09
9.99911e-09
9.99911e-09
9.9991e-09
9.9991e-09
9.9991e-09
9.9991e-09
9.99909e-09
9.99907e-09
9.99906e-09
9.99905e-09
9.99904e-09
9.99903e-09
9.99903e-09
9.99903e-09
9.99904e-09
9.99905e-09
9.99905e-09
9.99904e-09
9.99903e-09
9.99903e-09
9.99902e-09
9.99901e-09
9.999e-09
9.99899e-09
9.99899e-09
9.99899e-09
9.99899e-09
9.99899e-09
9.999e-09
9.999e-09
9.999e-09
9.99899e-09
9.99899e-09
9.99898e-09
9.99897e-09
9.99896e-09
9.99896e-09
9.99896e-09
9.99896e-09
9.99896e-09
9.99896e-09
9.99896e-09
9.99896e-09
9.99896e-09
9.99895e-09
9.99894e-09
9.99894e-09
9.99893e-09
9.99893e-09
9.99893e-09
9.99893e-09
9.99893e-09
9.99893e-09
9.99893e-09
9.99892e-09
9.99892e-09
9.99892e-09
9.99891e-09
9.99891e-09
9.99891e-09
9.99891e-09
9.99891e-09
9.99891e-09
9.99891e-09
9.9989e-09
9.9989e-09
9.9989e-09
9.9989e-09
9.9989e-09
9.9989e-09
9.9989e-09
9.9989e-09
9.9989e-09
9.99889e-09
9.99888e-09
9.99888e-09
9.99888e-09
9.99888e-09
9.99888e-09
9.99888e-09
9.99888e-09
9.99888e-09
9.99888e-09
9.99887e-09
9.99887e-09
9.99887e-09
9.99887e-09
9.99888e-09
9.99887e-09
9.99887e-09
9.99886e-09
9.99886e-09
9.99886e-09
9.99886e-09
9.99886e-09
9.99886e-09
9.99886e-09
9.99886e-09
9.99885e-09
9.99885e-09
9.99884e-09
9.99884e-09
9.99885e-09
9.99884e-09
9.99884e-09
9.99884e-09
9.99885e-09
9.99884e-09
9.99884e-09
9.99884e-09
9.99885e-09
9.99885e-09
9.99884e-09
9.99884e-09
9.99884e-09
9.99884e-09
9.99884e-09
9.99884e-09
9.99884e-09
9.99884e-09
9.99883e-09
9.99883e-09
9.99883e-09
9.99883e-09
9.99883e-09
9.99883e-09
9.99883e-09
9.99883e-09
9.99883e-09
9.99883e-09
9.99883e-09
9.99883e-09
9.99883e-09
9.99883e-09
9.99883e-09
9.99883e-09
9.99883e-09
9.99894e-09
9.99893e-09
9.99924e-09
9.99928e-09
9.99891e-09
9.99886e-09
9.99883e-09
9.99885e-09
9.99884e-09
9.99882e-09
9.99881e-09
9.99881e-09
9.99882e-09
9.99882e-09
9.99882e-09
9.99882e-09
9.99882e-09
9.99881e-09
9.9988e-09
9.9988e-09
9.99881e-09
9.99881e-09
9.99881e-09
9.99882e-09
9.99883e-09
9.99883e-09
9.99883e-09
9.99882e-09
9.99882e-09
9.99882e-09
9.99882e-09
9.99883e-09
9.99884e-09
9.99885e-09
9.99886e-09
9.99885e-09
9.99884e-09
9.99883e-09
9.99883e-09
9.99883e-09
9.99884e-09
9.99884e-09
9.99884e-09
9.99884e-09
9.99885e-09
9.99885e-09
9.99885e-09
9.99885e-09
9.99885e-09
9.99885e-09
9.99886e-09
9.99887e-09
9.99887e-09
9.99888e-09
9.99888e-09
9.99887e-09
9.99887e-09
9.99887e-09
9.99887e-09
9.99887e-09
9.99886e-09
9.99886e-09
9.99887e-09
9.99888e-09
9.99888e-09
9.99889e-09
9.9989e-09
9.99888e-09
9.99887e-09
9.99887e-09
9.99888e-09
9.99888e-09
9.99887e-09
9.99887e-09
9.99888e-09
9.99887e-09
9.99888e-09
9.99887e-09
9.99889e-09
9.99891e-09
9.99887e-09
9.99894e-09
9.99888e-09
9.99889e-09
9.99895e-09
9.99898e-09
9.99888e-09
9.99887e-09
9.99888e-09
9.99887e-09
9.9989e-09
9.99908e-09
9.999e-09
1.00129e-08
1.00153e-08
1.0014e-08
1.0014e-08
1.00145e-08
1.00149e-08
1.00153e-08
1.00155e-08
1.00156e-08
1.00157e-08
1.00157e-08
1.00155e-08
1.00153e-08
1.00152e-08
1.0015e-08
1.00148e-08
1.00147e-08
1.00146e-08
1.00144e-08
1.00142e-08
1.0014e-08
1.00139e-08
1.00138e-08
1.00137e-08
1.00137e-08
1.00136e-08
1.00134e-08
1.00132e-08
1.00128e-08
1.00124e-08
1.00121e-08
1.00118e-08
1.00117e-08
1.00118e-08
1.00119e-08
1.0012e-08
1.0012e-08
1.0012e-08
1.00118e-08
1.00115e-08
1.00112e-08
1.00108e-08
1.00104e-08
1.00101e-08
1.00097e-08
1.00094e-08
1.00091e-08
1.00088e-08
1.00086e-08
1.00084e-08
1.00083e-08
1.00081e-08
1.0008e-08
1.00079e-08
1.00078e-08
1.00076e-08
1.00074e-08
1.00072e-08
1.00069e-08
1.00067e-08
1.00065e-08
1.00063e-08
1.00062e-08
1.00061e-08
1.00061e-08
1.00062e-08
1.00063e-08
1.00065e-08
1.00066e-08
1.00066e-08
1.00067e-08
1.00067e-08
1.00067e-08
1.00068e-08
1.00068e-08
1.00068e-08
1.00068e-08
1.00067e-08
1.00066e-08
1.00063e-08
1.0006e-08
1.00058e-08
1.0006e-08
1.00064e-08
1.00067e-08
1.0007e-08
1.00074e-08
1.00077e-08
1.0008e-08
1.00086e-08
1.00094e-08
1.00094e-08
1.00093e-08
1.00089e-08
1.00086e-08
1.00086e-08
1.00069e-08
1.00073e-08
1.00077e-08
1.00078e-08
1.00077e-08
1.00077e-08
1.00072e-08
1.00072e-08
1.00073e-08
1.00073e-08
1.00073e-08
1.00074e-08
1.00074e-08
1.00074e-08
1.00074e-08
1.00076e-08
1.00076e-08
1.00072e-08
1.00071e-08
1.00069e-08
1.00068e-08
1.00067e-08
1.00067e-08
1.00066e-08
1.00066e-08
1.00066e-08
1.00066e-08
1.00066e-08
1.00067e-08
1.00066e-08
1.00069e-08
1.00069e-08
1.00077e-08
1.00075e-08
1.00067e-08
1.00067e-08
1.00063e-08
1.00062e-08
1.0006e-08
1.00059e-08
1.00059e-08
1.00058e-08
1.00058e-08
1.00057e-08
1.00056e-08
1.00056e-08
1.00055e-08
1.00055e-08
1.00054e-08
1.00054e-08
1.00053e-08
1.00053e-08
1.00052e-08
1.00052e-08
1.00052e-08
1.00051e-08
1.00051e-08
1.00051e-08
1.0005e-08
1.0005e-08
1.0005e-08
1.0005e-08
1.00049e-08
1.00049e-08
1.00049e-08
1.00048e-08
1.00048e-08
1.00048e-08
1.00047e-08
1.00047e-08
1.00046e-08
1.00046e-08
1.00046e-08
1.00045e-08
1.00045e-08
1.00044e-08
1.00044e-08
1.00043e-08
1.00043e-08
1.00042e-08
1.00042e-08
1.00041e-08
1.00041e-08
1.00041e-08
1.0004e-08
1.0004e-08
1.00039e-08
1.00039e-08
1.00038e-08
1.00038e-08
1.00037e-08
1.00037e-08
1.00036e-08
1.00036e-08
1.00036e-08
1.00035e-08
1.00035e-08
1.00034e-08
1.00034e-08
1.00033e-08
1.00033e-08
1.00032e-08
1.00032e-08
1.00031e-08
1.00031e-08
1.0003e-08
1.0003e-08
1.00029e-08
1.00029e-08
1.00029e-08
1.00028e-08
1.00027e-08
1.00027e-08
1.00026e-08
1.00026e-08
1.00025e-08
1.00025e-08
1.00024e-08
1.00024e-08
1.00023e-08
1.00023e-08
1.00022e-08
1.00022e-08
1.00021e-08
1.0002e-08
1.0002e-08
1.00019e-08
1.00019e-08
1.00018e-08
1.00018e-08
1.00017e-08
1.00017e-08
1.00016e-08
1.00016e-08
1.00015e-08
1.00014e-08
1.00014e-08
1.00013e-08
1.00013e-08
1.00012e-08
1.00012e-08
1.00011e-08
1.00011e-08
1.0001e-08
1.00009e-08
1.00009e-08
1.00008e-08
1.00008e-08
1.00007e-08
1.00006e-08
1.00006e-08
1.00006e-08
1.00005e-08
1.00005e-08
1.00004e-08