/*--------------------------------*- C++ -*----------------------------------*\
| =========                 |                                                 |
| \\      /  F ield         | OpenFOAM: The Open Source CFD Toolbox           |
|  \\    /   O peration     | Version:  v2006                                 |
|   \\  /    A nd           | Website:  www.openfoam.com                      |
|    \\/     M anipulation  |                                                 |
\*---------------------------------------------------------------------------*/
FoamFile
{
    version     2.0;
    format      ascii;
    class       volScalarField;
    location    "1.3";
    object      nut;
}
// * * * * * * * * * * * * * * * * * * * * * * * * * * * * * * * * * * * * * //

dimensions      [0 2 -1 0 0 0 0];


internalField   nonuniform List<scalar> 
33000
(
1.5809e-08
2.5082e-08
2.52138e-08
2.53468e-08
2.53534e-08
2.54171e-08
2.54506e-08
2.54922e-08
2.55375e-08
2.55877e-08
2.56421e-08
2.57046e-08
2.57781e-08
2.5861e-08
2.59066e-08
2.59413e-08
2.595e-08
2.59536e-08
2.43939e-08
2.28611e-08
2.13162e-08
1.98487e-08
1.85903e-08
1.75763e-08
1.66307e-08
1.56727e-08
1.47763e-08
1.39686e-08
1.32754e-08
1.26114e-08
1.19269e-08
1.12843e-08
1.07792e-08
1.03775e-08
9.96645e-09
9.53695e-09
9.13063e-09
8.82995e-09
8.55373e-09
8.24796e-09
7.96041e-09
7.66797e-09
7.41972e-09
7.24233e-09
7.06068e-09
6.83256e-09
6.63072e-09
6.48451e-09
6.34418e-09
6.18696e-09
6.03131e-09
5.90611e-09
5.79992e-09
5.7059e-09
5.61546e-09
5.52227e-09
5.43928e-09
5.36831e-09
5.29448e-09
5.21406e-09
5.14257e-09
5.08764e-09
5.03386e-09
4.97604e-09
4.92435e-09
4.88306e-09
4.85245e-09
4.8302e-09
4.81406e-09
4.80378e-09
4.80029e-09
4.80009e-09
4.79706e-09
4.79249e-09
4.77672e-09
4.72394e-09
4.66396e-09
4.78334e-09
5.99915e-09
7.13207e-09
7.03615e-09
7.73328e-09
7.7748e-09
8.73295e-09
8.89625e-09
9.05793e-09
9.05859e-09
8.90603e-09
8.52615e-09
8.36991e-09
8.39355e-09
8.34544e-09
8.34179e-09
8.315e-09
8.26544e-09
8.24113e-09
8.22624e-09
8.23567e-09
8.26339e-09
8.85349e-09
9.00132e-09
8.87007e-09
8.95274e-09
8.87419e-09
9.06899e-09
9.05211e-09
9.05824e-09
9.07942e-09
9.07683e-09
9.05519e-09
9.06099e-09
9.08419e-09
9.10194e-09
9.12836e-09
9.15187e-09
9.18265e-09
9.21897e-09
9.86211e-09
1.00511e-08
9.95432e-09
1.01165e-08
1.00648e-08
1.02962e-08
1.03052e-08
1.03397e-08
1.03741e-08
1.03802e-08
1.04157e-08
1.04692e-08
1.0518e-08
1.05751e-08
1.06378e-08
1.07021e-08
1.0773e-08
1.08483e-08
1.09264e-08
1.10086e-08
1.10944e-08
1.11848e-08
1.12804e-08
1.13791e-08
1.1483e-08
1.15925e-08
1.17065e-08
1.18232e-08
1.19464e-08
1.20766e-08
1.22129e-08
1.23524e-08
1.24983e-08
1.26502e-08
1.28083e-08
1.29729e-08
1.31447e-08
1.33237e-08
1.34272e-08
1.33776e-08
1.33288e-08
1.32807e-08
1.32335e-08
1.31879e-08
1.31436e-08
1.31002e-08
1.30574e-08
1.30152e-08
1.29736e-08
1.29327e-08
1.28924e-08
1.28528e-08
1.28144e-08
1.27775e-08
1.27413e-08
1.27057e-08
1.26707e-08
1.26363e-08
1.26026e-08
1.25703e-08
1.2539e-08
1.25083e-08
1.24782e-08
1.24485e-08
1.24193e-08
1.23907e-08
1.23626e-08
1.23358e-08
1.23101e-08
1.2285e-08
1.22604e-08
1.22363e-08
1.22126e-08
1.21896e-08
1.21678e-08
1.21469e-08
1.21265e-08
1.21064e-08
1.20868e-08
1.20675e-08
1.20489e-08
1.20313e-08
1.20146e-08
1.19983e-08
1.19823e-08
1.19666e-08
1.19513e-08
1.19363e-08
1.1922e-08
1.19088e-08
1.1896e-08
1.18835e-08
1.18712e-08
1.18593e-08
1.18475e-08
1.18362e-08
1.18256e-08
1.18157e-08
1.1806e-08
1.17966e-08
1.17873e-08
1.17782e-08
1.17693e-08
1.17609e-08
1.17532e-08
1.17459e-08
1.17386e-08
1.17315e-08
1.17244e-08
1.17175e-08
1.17107e-08
1.17041e-08
1.16981e-08
1.16925e-08
1.1687e-08
1.16817e-08
1.16763e-08
1.16711e-08
1.16659e-08
1.16607e-08
1.16557e-08
1.16509e-08
1.16465e-08
1.16424e-08
1.16384e-08
1.16344e-08
1.16304e-08
1.16264e-08
1.16224e-08
1.16185e-08
1.16147e-08
1.16113e-08
1.16079e-08
1.16044e-08
1.1601e-08
1.15976e-08
1.15943e-08
1.15911e-08
1.15881e-08
1.15853e-08
1.15824e-08
1.15796e-08
1.15769e-08
1.15741e-08
1.15714e-08
1.15686e-08
1.15659e-08
1.15633e-08
1.15609e-08
1.15585e-08
1.1556e-08
1.15536e-08
1.15511e-08
1.15488e-08
1.15465e-08
1.15445e-08
1.15425e-08
1.15405e-08
1.15385e-08
1.15364e-08
1.15343e-08
1.15322e-08
1.15301e-08
1.15279e-08
1.15257e-08
1.15235e-08
1.15213e-08
1.15191e-08
1.15169e-08
1.15148e-08
1.15127e-08
1.15107e-08
1.15087e-08
1.15068e-08
1.1505e-08
1.15031e-08
1.15013e-08
1.14995e-08
1.14977e-08
1.14958e-08
1.1494e-08
1.14921e-08
1.14902e-08
1.14883e-08
1.14864e-08
1.14845e-08
1.14826e-08
1.14808e-08
1.14791e-08
1.14774e-08
1.14757e-08
1.14741e-08
1.14726e-08
1.14711e-08
1.14696e-08
1.14682e-08
1.14667e-08
1.14653e-08
1.14638e-08
1.14624e-08
1.1461e-08
1.14596e-08
1.14583e-08
1.14569e-08
1.14557e-08
1.14545e-08
1.14533e-08
1.14522e-08
1.14511e-08
1.145e-08
1.14489e-08
1.14477e-08
1.14466e-08
1.14454e-08
1.14442e-08
1.14431e-08
1.1442e-08
1.1441e-08
1.144e-08
1.14391e-08
1.14382e-08
1.14374e-08
1.14365e-08
1.14357e-08
1.14348e-08
1.14339e-08
1.14329e-08
1.1432e-08
1.1431e-08
1.14301e-08
1.14291e-08
1.14282e-08
1.14274e-08
1.14265e-08
1.14257e-08
1.14249e-08
1.14241e-08
1.14232e-08
1.14223e-08
1.14214e-08
1.14205e-08
1.14196e-08
1.14187e-08
1.14179e-08
1.14171e-08
1.14163e-08
1.14155e-08
1.14147e-08
1.14139e-08
1.14131e-08
1.14123e-08
1.14114e-08
1.14106e-08
1.14098e-08
1.1409e-08
1.14083e-08
1.14076e-08
1.14069e-08
1.14062e-08
1.14055e-08
1.14049e-08
1.14042e-08
1.14035e-08
1.14029e-08
1.14023e-08
1.14017e-08
1.14012e-08
1.14007e-08
1.14001e-08
1.13995e-08
1.13989e-08
1.13983e-08
1.13977e-08
1.13972e-08
1.13967e-08
1.13961e-08
1.13956e-08
1.13951e-08
1.13945e-08
1.13939e-08
1.13932e-08
1.13926e-08
1.1392e-08
1.13915e-08
1.1391e-08
1.13904e-08
1.13899e-08
1.13894e-08
1.13889e-08
1.13884e-08
1.13879e-08
1.13874e-08
1.1387e-08
1.13865e-08
1.1386e-08
1.13855e-08
1.13851e-08
1.13847e-08
1.13843e-08
1.13839e-08
1.13835e-08
1.13832e-08
1.13828e-08
1.13824e-08
1.13821e-08
1.13817e-08
1.13813e-08
1.13809e-08
1.13805e-08
1.13802e-08
1.13798e-08
1.13795e-08
1.13792e-08
1.13791e-08
1.13788e-08
1.13787e-08
1.13786e-08
1.13785e-08
1.13784e-08
1.13782e-08
1.1378e-08
1.13778e-08
1.13777e-08
1.13777e-08
1.13774e-08
1.13772e-08
1.1377e-08
1.13768e-08
1.13767e-08
1.13765e-08
1.13765e-08
1.13764e-08
1.13765e-08
1.13766e-08
1.13766e-08
1.13766e-08
1.13765e-08
1.13765e-08
1.13763e-08
1.13764e-08
1.13763e-08
1.13762e-08
1.13764e-08
1.13764e-08
1.13764e-08
1.13761e-08
1.1376e-08
1.13759e-08
1.13756e-08
1.13756e-08
1.13761e-08
1.13755e-08
1.13794e-08
1.13783e-08
1.13785e-08
1.13785e-08
1.13782e-08
1.1378e-08
1.13776e-08
1.13771e-08
1.13766e-08
1.1376e-08
1.13754e-08
1.1375e-08
1.13746e-08
1.13743e-08
1.13742e-08
1.13741e-08
1.1374e-08
1.13739e-08
1.13739e-08
1.13738e-08
1.13739e-08
1.13739e-08
1.13739e-08
1.1374e-08
1.13741e-08
1.13742e-08
1.13744e-08
1.13746e-08
1.13749e-08
1.13751e-08
1.13753e-08
1.13755e-08
1.13755e-08
1.13754e-08
1.13751e-08
1.13748e-08
1.13744e-08
1.13741e-08
1.13737e-08
1.13735e-08
1.13734e-08
1.13734e-08
1.13734e-08
1.13735e-08
1.13736e-08
1.13736e-08
1.13736e-08
1.13735e-08
1.13734e-08
1.13735e-08
1.13737e-08
1.13741e-08
1.13747e-08
1.13752e-08
1.13756e-08
1.13757e-08
1.13757e-08
1.13756e-08
1.13759e-08
1.13765e-08
1.13768e-08
1.13767e-08
1.1376e-08
1.13752e-08
1.13748e-08
1.13748e-08
1.13747e-08
1.13741e-08
1.13734e-08
1.1373e-08
1.13735e-08
1.13737e-08
1.13735e-08
1.13738e-08
1.13749e-08
1.13754e-08
1.13751e-08
1.13748e-08
1.13744e-08
1.13739e-08
1.1381e-08
1.93742e-08
1.31625e-08
5.21583e-08
2.51426e-07
2.96124e-07
6.98494e-07
4.73505e-07
3.48984e-07
2.37404e-07
1.7876e-07
1.39714e-07
1.12582e-07
9.5741e-08
8.40423e-08
7.46018e-08
6.81026e-08
6.37387e-08
6.03607e-08
5.67807e-08
5.3889e-08
5.17508e-08
4.97241e-08
4.78283e-08
4.6741e-08
4.6106e-08
4.55747e-08
4.45461e-08
4.27599e-08
4.19537e-08
4.04362e-08
3.7207e-08
3.6068e-08
3.86691e-08
4.52439e-08
4.53478e-08
4.06614e-08
3.86486e-08
3.93537e-08
4.3275e-08
4.5943e-08
4.34427e-08
4.26687e-08
4.54142e-08
4.88551e-08
4.927e-08
4.83726e-08
4.91685e-08
5.06783e-08
5.22077e-08
5.43404e-08
5.75554e-08
6.17987e-08
6.67345e-08
7.35957e-08
7.87312e-08
8.26646e-08
9.00557e-08
9.72324e-08
1.00936e-07
1.03188e-07
1.15017e-07
1.39172e-07
1.4749e-07
1.49617e-07
1.62998e-07
1.88154e-07
1.95285e-07
1.66673e-07
1.31253e-07
1.03438e-07
8.14586e-08
6.18911e-08
4.6426e-08
3.56228e-08
2.67216e-08
1.81741e-08
1.35362e-08
1.37666e-08
1.31138e-08
9.82536e-09
6.12929e-09
6.41333e-09
1.15952e-08
1.42435e-08
2.63931e-08
3.21796e-08
1.34276e-07
7.24085e-08
6.26164e-08
2.17415e-07
3.29319e-07
4.20871e-07
2.62693e-07
4.27247e-07
3.32095e-07
2.53174e-07
1.89637e-07
1.12374e-07
1.36746e-07
1.03028e-07
9.56519e-08
4.75497e-08
5.07475e-08
1.09635e-07
1.04681e-07
1.89759e-07
1.78219e-07
3.72709e-07
1.01947e-06
8.63967e-07
3.55526e-07
3.0749e-07
2.63838e-07
2.28294e-07
2.0173e-07
1.44254e-07
1.91639e-07
1.29823e-07
1.18428e-07
5.77054e-08
6.09053e-08
1.3152e-07
1.27587e-07
2.33678e-07
2.39225e-07
5.05724e-07
5.11044e-07
3.225e-07
3.07445e-07
3.0386e-07
2.8892e-07
2.83891e-07
2.76604e-07
2.66193e-07
2.59973e-07
2.56362e-07
2.53324e-07
2.49862e-07
2.46727e-07
2.43815e-07
2.40976e-07
2.38376e-07
2.35979e-07
2.33886e-07
2.31965e-07
2.30198e-07
2.28715e-07
2.2749e-07
2.26465e-07
2.25738e-07
2.25231e-07
2.24743e-07
2.2441e-07
2.24329e-07
2.244e-07
2.24571e-07
2.24898e-07
2.2541e-07
2.26071e-07
2.2683e-07
2.27675e-07
2.28662e-07
2.29753e-07
2.30864e-07
2.31998e-07
2.33233e-07
2.3459e-07
2.36063e-07
2.37678e-07
2.39478e-07
2.41389e-07
2.43379e-07
2.45485e-07
2.47707e-07
2.50009e-07
2.52408e-07
2.54976e-07
2.57729e-07
2.60604e-07
2.63583e-07
2.66737e-07
2.70099e-07
2.73623e-07
2.77315e-07
2.81247e-07
2.85411e-07
2.89732e-07
2.94171e-07
2.98828e-07
3.03802e-07
3.09089e-07
3.1461e-07
3.2035e-07
3.26333e-07
3.32527e-07
3.3888e-07
3.45455e-07
3.52389e-07
3.59693e-07
3.67276e-07
3.75107e-07
3.83223e-07
3.9164e-07
4.00385e-07
4.09558e-07
4.19259e-07
4.29561e-07
4.40491e-07
4.51989e-07
4.63873e-07
4.75974e-07
4.88295e-07
5.00948e-07
5.13978e-07
5.27473e-07
5.41722e-07
5.56984e-07
5.73287e-07
5.90553e-07
6.08824e-07
6.28083e-07
6.48038e-07
6.6832e-07
6.88853e-07
7.09854e-07
7.31501e-07
7.53956e-07
7.7763e-07
8.03023e-07
8.30214e-07
8.58817e-07
8.88368e-07
9.1846e-07
9.48745e-07
9.79146e-07
1.01029e-06
1.04319e-06
1.07849e-06
1.11631e-06
1.15648e-06
1.19852e-06
1.24179e-06
1.28602e-06
1.33183e-06
1.38046e-06
1.43246e-06
1.48686e-06
1.54219e-06
1.59809e-06
1.65604e-06
1.71168e-06
1.71177e-06
1.71205e-06
1.71232e-06
1.71242e-06
1.71247e-06
1.71271e-06
1.71318e-06
1.71368e-06
1.71401e-06
1.71409e-06
1.71408e-06
1.71407e-06
1.71406e-06
1.71406e-06
1.71414e-06
1.71429e-06
1.71446e-06
1.71463e-06
1.71493e-06
1.71534e-06
1.71573e-06
1.716e-06
1.71621e-06
1.71639e-06
1.71653e-06
1.7166e-06
1.71665e-06
1.71663e-06
1.71653e-06
1.7164e-06
1.71635e-06
1.71651e-06
1.71687e-06
1.71734e-06
1.71786e-06
1.71841e-06
1.71904e-06
1.71971e-06
1.72038e-06
1.72098e-06
1.72147e-06
1.72186e-06
1.72208e-06
1.72214e-06
1.72207e-06
1.72197e-06
1.72193e-06
1.72194e-06
1.72197e-06
1.72204e-06
1.72217e-06
1.7224e-06
1.72279e-06
1.72332e-06
1.72394e-06
1.7246e-06
1.72523e-06
1.72578e-06
1.72624e-06
1.72659e-06
1.72683e-06
1.72697e-06
1.72706e-06
1.72715e-06
1.72727e-06
1.72746e-06
1.72775e-06
1.72812e-06
1.72855e-06
1.72899e-06
1.72943e-06
1.72989e-06
1.73036e-06
1.73075e-06
1.73095e-06
1.73086e-06
1.73057e-06
1.7303e-06
1.73021e-06
1.73029e-06
1.73044e-06
1.73067e-06
1.73111e-06
1.73181e-06
1.73259e-06
1.73314e-06
1.73335e-06
1.73339e-06
1.73341e-06
1.73333e-06
1.73307e-06
1.73267e-06
1.73238e-06
1.73232e-06
1.73241e-06
1.73257e-06
1.73284e-06
1.73321e-06
1.73356e-06
1.73376e-06
1.73382e-06
1.73374e-06
1.7335e-06
1.73315e-06
1.73285e-06
1.73276e-06
1.73287e-06
1.73309e-06
1.73339e-06
1.73376e-06
1.73413e-06
1.73432e-06
1.73426e-06
1.73402e-06
1.73373e-06
1.7335e-06
1.73337e-06
1.73338e-06
1.7336e-06
1.73398e-06
1.73442e-06
1.73478e-06
1.73497e-06
1.73505e-06
1.7351e-06
1.73514e-06
1.73517e-06
1.73524e-06
1.73548e-06
1.73593e-06
1.73645e-06
1.73683e-06
1.73695e-06
1.73684e-06
1.73656e-06
1.7363e-06
1.73622e-06
1.73634e-06
1.73662e-06
1.73696e-06
1.73721e-06
1.73725e-06
1.73706e-06
1.73672e-06
1.73633e-06
1.73604e-06
1.73601e-06
1.73629e-06
1.73677e-06
1.7372e-06
1.73738e-06
1.73736e-06
1.73733e-06
1.73729e-06
1.73729e-06
1.73749e-06
1.73784e-06
1.73807e-06
1.73807e-06
1.73792e-06
1.73779e-06
1.73786e-06
1.73814e-06
1.73841e-06
1.73861e-06
1.73878e-06
1.7388e-06
1.73878e-06
1.7389e-06
1.73909e-06
1.73887e-06
1.73855e-06
1.73832e-06
1.73825e-06
1.73882e-06
1.73914e-06
1.73946e-06
1.73998e-06
1.74043e-06
1.74083e-06
1.74094e-06
1.74166e-06
1.74176e-06
1.7417e-06
1.74118e-06
1.74089e-06
1.74119e-06
1.74113e-06
1.74196e-06
1.74147e-06
1.7402e-06
1.74035e-06
1.74053e-06
1.74138e-06
1.74101e-06
1.74123e-06
1.74222e-06
1.7426e-06
1.74291e-06
1.74238e-06
1.74284e-06
1.74218e-06
1.74194e-06
1.74109e-06
1.74192e-06
1.74286e-06
1.74162e-06
1.74285e-06
1.74299e-06
1.74221e-06
1.74196e-06
1.73983e-06
1.74192e-06
1.74019e-06
1.74132e-06
1.74307e-06
1.74286e-06
1.74279e-06
1.74254e-06
1.74201e-06
1.74268e-06
1.74123e-06
1.74019e-06
1.73968e-06
1.73846e-06
1.73695e-06
1.736e-06
1.73549e-06
1.73513e-06
1.73538e-06
1.73646e-06
1.73769e-06
1.73821e-06
1.738e-06
1.73786e-06
1.73833e-06
1.73925e-06
1.74009e-06
1.74054e-06
1.74049e-06
1.73995e-06
1.73913e-06
1.73833e-06
1.7377e-06
1.73737e-06
1.73737e-06
1.7377e-06
1.73845e-06
1.73968e-06
1.74147e-06
1.74302e-06
1.74306e-06
1.74308e-06
1.74309e-06
1.7431e-06
1.74311e-06
1.74311e-06
1.74311e-06
1.74311e-06
1.7431e-06
1.74308e-06
1.74305e-06
1.743e-06
1.74291e-06
1.7426e-06
1.74269e-06
1.74292e-06
1.74299e-06
1.74303e-06
1.74306e-06
1.74308e-06
1.74307e-06
1.74302e-06
1.74293e-06
1.74223e-06
1.74296e-06
1.74303e-06
1.74304e-06
1.74295e-06
1.73832e-06
1.73368e-06
1.73567e-06
1.74211e-06
1.7429e-06
1.73835e-06
1.7331e-06
1.73605e-06
1.74294e-06
1.743e-06
1.74268e-06
1.7423e-06
1.74306e-06
1.74308e-06
1.74293e-06
1.73815e-06
1.74057e-06
1.73431e-06
1.73463e-06
1.73616e-06
1.84111e-08
1.34981e-08
3.6565e-08
1.54412e-07
1.42711e-07
1.86967e-07
2.14957e-07
2.03384e-07
1.82396e-07
1.43664e-07
1.14554e-07
9.75513e-08
8.68248e-08
8.18083e-08
7.30245e-08
6.63928e-08
6.22713e-08
5.85091e-08
5.51198e-08
5.2803e-08
5.19821e-08
5.06409e-08
4.81108e-08
4.57379e-08
4.53791e-08
4.5533e-08
4.48444e-08
4.32283e-08
4.18876e-08
4.1418e-08
4.00568e-08
3.84636e-08
3.73393e-08
3.94908e-08
4.16809e-08
4.20254e-08
4.05708e-08
3.91523e-08
4.20131e-08
4.50106e-08
4.59772e-08
4.59008e-08
4.36985e-08
4.41792e-08
4.72381e-08
4.93859e-08
4.68728e-08
4.61145e-08
4.87052e-08
5.23328e-08
5.35387e-08
5.488e-08
5.92985e-08
6.52501e-08
7.11313e-08
7.80933e-08
8.59758e-08
9.03365e-08
9.82721e-08
1.03731e-07
1.08434e-07
1.22855e-07
1.40814e-07
1.46748e-07
1.41459e-07
1.45837e-07
1.53362e-07
1.40435e-07
1.19836e-07
1.00369e-07
8.33364e-08
6.73924e-08
5.53537e-08
4.61848e-08
3.90102e-08
3.43536e-08
2.86518e-08
2.45662e-08
1.97887e-08
1.53593e-08
1.39672e-08
1.20749e-08
9.58204e-09
5.62365e-09
5.76697e-09
9.11041e-09
1.1974e-08
1.58099e-08
2.70324e-08
3.35742e-08
7.45983e-08
6.84558e-08
5.01341e-07
4.32784e-07
2.14747e-07
1.664e-07
2.46932e-07
2.06105e-07
2.11282e-07
2.69368e-07
1.43621e-07
1.56221e-07
9.66683e-08
9.06322e-08
4.58685e-08
4.84341e-08
8.28752e-08
9.56745e-08
1.14888e-07
1.82979e-07
1.83667e-07
4.38775e-07
4.02406e-07
2.77481e-07
2.84337e-07
2.8515e-07
3.63705e-07
4.4764e-07
1.94508e-07
1.94922e-07
1.18913e-07
1.15461e-07
5.79889e-08
6.05255e-08
1.23987e-07
1.21298e-07
2.15504e-07
2.22594e-07
3.88323e-07
3.96569e-07
2.82292e-07
2.7201e-07
2.71055e-07
2.59007e-07
2.5558e-07
2.55769e-07
2.53533e-07
2.48385e-07
2.45168e-07
2.4275e-07
2.39791e-07
2.37172e-07
2.34833e-07
2.32761e-07
2.31259e-07
2.3008e-07
2.28875e-07
2.27549e-07
2.26671e-07
2.26121e-07
2.25662e-07
2.25173e-07
2.24777e-07
2.24578e-07
2.24456e-07
2.2456e-07
2.24849e-07
2.25283e-07
2.25917e-07
2.26671e-07
2.27523e-07
2.28456e-07
2.29476e-07
2.30574e-07
2.31743e-07
2.33014e-07
2.34434e-07
2.3598e-07
2.37649e-07
2.39463e-07
2.41388e-07
2.43415e-07
2.45518e-07
2.47688e-07
2.49971e-07
2.52377e-07
2.54959e-07
2.57759e-07
2.60722e-07
2.63763e-07
2.6691e-07
2.70215e-07
2.73659e-07
2.77254e-07
2.81103e-07
2.85268e-07
2.89722e-07
2.94368e-07
2.99243e-07
3.04386e-07
3.09755e-07
3.15241e-07
3.20841e-07
3.26657e-07
3.32698e-07
3.38945e-07
3.45476e-07
3.52468e-07
3.59925e-07
3.677e-07
3.75723e-07
3.83992e-07
3.92465e-07
4.01093e-07
4.10021e-07
4.1951e-07
4.29728e-07
4.40716e-07
4.52497e-07
4.64939e-07
4.77675e-07
4.90391e-07
5.03109e-07
5.16043e-07
5.29337e-07
5.43274e-07
5.58204e-07
5.74378e-07
5.91727e-07
6.10013e-07
6.29059e-07
6.48669e-07
6.68586e-07
6.8872e-07
7.09394e-07
7.3109e-07
7.54061e-07
7.78421e-07
8.04326e-07
8.31821e-07
8.60633e-07
8.90272e-07
9.2013e-07
9.49649e-07
9.78748e-07
1.00817e-06
1.03926e-06
1.07324e-06
1.11079e-06
1.15198e-06
1.19646e-06
1.24308e-06
1.29081e-06
1.33923e-06
1.38856e-06
1.43937e-06
1.49099e-06
1.54195e-06
1.5923e-06
1.64448e-06
1.70157e-06
1.76442e-06
1.83117e-06
1.90068e-06
1.97577e-06
2.061e-06
2.15669e-06
2.25647e-06
2.353e-06
2.44538e-06
2.53773e-06
2.63215e-06
2.72699e-06
2.82249e-06
2.9226e-06
3.03044e-06
3.14728e-06
3.27646e-06
3.42311e-06
3.58874e-06
3.76994e-06
3.96385e-06
4.17049e-06
4.38884e-06
4.61558e-06
4.84753e-06
5.08115e-06
5.31031e-06
5.53007e-06
5.74654e-06
5.97817e-06
6.24439e-06
6.5542e-06
6.90678e-06
7.30223e-06
7.74558e-06
8.24021e-06
8.78329e-06
9.37021e-06
9.65389e-06
9.65358e-06
9.65311e-06
9.65242e-06
9.6516e-06
9.65068e-06
9.64978e-06
9.64901e-06
9.64834e-06
9.64776e-06
9.64728e-06
9.64696e-06
9.64695e-06
9.64706e-06
9.64721e-06
9.64742e-06
9.64765e-06
9.64789e-06
9.64812e-06
9.64832e-06
9.64849e-06
9.64862e-06
9.64872e-06
9.64879e-06
9.64885e-06
9.64891e-06
9.64898e-06
9.64908e-06
9.6492e-06
9.64936e-06
9.64954e-06
9.64972e-06
9.64988e-06
9.65004e-06
9.65019e-06
9.65031e-06
9.65039e-06
9.65039e-06
9.65033e-06
9.65026e-06
9.65024e-06
9.6503e-06
9.65039e-06
9.65049e-06
9.65065e-06
9.65088e-06
9.65114e-06
9.65134e-06
9.65142e-06
9.65143e-06
9.65143e-06
9.65142e-06
9.65136e-06
9.65126e-06
9.65118e-06
9.65117e-06
9.65121e-06
9.65128e-06
9.65136e-06
9.65148e-06
9.65159e-06
9.65165e-06
9.65167e-06
9.65165e-06
9.65158e-06
9.65148e-06
9.65141e-06
9.6514e-06
9.65147e-06
9.65156e-06
9.65166e-06
9.65177e-06
9.65187e-06
9.65192e-06
9.6519e-06
9.65182e-06
9.65174e-06
9.65168e-06
9.65166e-06
9.65169e-06
9.65177e-06
9.6519e-06
9.65205e-06
9.65217e-06
9.65223e-06
9.65226e-06
9.65229e-06
9.65233e-06
9.65237e-06
9.65242e-06
9.65251e-06
9.65265e-06
9.65281e-06
9.65291e-06
9.65294e-06
9.6529e-06
9.65284e-06
9.65279e-06
9.65279e-06
9.65286e-06
9.65296e-06
9.65306e-06
9.65312e-06
9.65311e-06
9.65303e-06
9.65293e-06
9.65282e-06
9.65276e-06
9.65278e-06
9.65287e-06
9.65301e-06
9.65313e-06
9.65317e-06
9.65317e-06
9.65319e-06
9.65322e-06
9.65324e-06
9.6533e-06
9.65339e-06
9.65344e-06
9.65345e-06
9.65342e-06
9.65341e-06
9.65347e-06
9.65357e-06
9.65366e-06
9.65371e-06
9.65376e-06
9.65376e-06
9.65376e-06
9.6538e-06
9.65386e-06
9.65382e-06
9.65376e-06
9.65368e-06
9.65365e-06
9.65389e-06
9.65414e-06
9.65427e-06
9.65429e-06
9.65431e-06
9.65442e-06
9.65455e-06
9.65481e-06
9.65484e-06
9.65486e-06
9.6547e-06
9.65464e-06
9.65471e-06
9.65471e-06
9.65496e-06
9.6548e-06
9.65438e-06
9.65448e-06
9.65454e-06
9.6549e-06
9.65479e-06
9.65482e-06
9.65511e-06
9.65521e-06
9.65529e-06
9.65506e-06
9.65534e-06
9.65516e-06
9.655e-06
9.65494e-06
9.65517e-06
9.65533e-06
9.65511e-06
9.65528e-06
9.65505e-06
9.65513e-06
9.65504e-06
6.68704e-06
5.84803e-06
9.6552e-06
9.65536e-06
9.65541e-06
9.65534e-06
9.65532e-06
9.65512e-06
9.65504e-06
9.65523e-06
9.65448e-06
9.65409e-06
9.65381e-06
9.65328e-06
9.65294e-06
9.65286e-06
9.65274e-06
9.65257e-06
9.65263e-06
9.65294e-06
9.65325e-06
9.65333e-06
9.65328e-06
9.65335e-06
9.65363e-06
9.65402e-06
9.65434e-06
9.65448e-06
9.65442e-06
9.65418e-06
9.65386e-06
9.65358e-06
9.6534e-06
9.65337e-06
9.65346e-06
9.65368e-06
9.65401e-06
9.65449e-06
9.6551e-06
9.65547e-06
9.65548e-06
9.65548e-06
9.65548e-06
9.65549e-06
9.65549e-06
9.6555e-06
9.6555e-06
9.6555e-06
9.65549e-06
9.65548e-06
9.65547e-06
9.65545e-06
9.65541e-06
9.65536e-06
9.65537e-06
9.65541e-06
9.65544e-06
9.65545e-06
9.65547e-06
9.65548e-06
9.65547e-06
9.65546e-06
9.65542e-06
9.65532e-06
9.65542e-06
9.65545e-06
9.65545e-06
9.65531e-06
9.65341e-06
9.65253e-06
9.65372e-06
9.65527e-06
9.65501e-06
9.65311e-06
9.65222e-06
9.65403e-06
9.65542e-06
9.65546e-06
9.65491e-06
9.65538e-06
9.65547e-06
9.6555e-06
9.65501e-06
9.65391e-06
9.65427e-06
9.65282e-06
9.65374e-06
9.65308e-06
1.42183e-08
1.24602e-08
3.45187e-08
1.03554e-07
9.06049e-08
9.95788e-08
1.01427e-07
9.63186e-08
9.38572e-08
8.71e-08
7.97658e-08
7.40967e-08
6.95406e-08
6.65604e-08
6.32644e-08
6.06574e-08
5.79569e-08
5.51467e-08
5.29709e-08
5.14205e-08
5.04814e-08
4.91426e-08
4.71536e-08
4.52455e-08
4.43561e-08
4.37727e-08
4.35142e-08
4.35862e-08
4.27864e-08
4.30606e-08
4.52713e-08
4.48856e-08
4.01622e-08
3.59379e-08
3.6952e-08
4.12256e-08
4.3149e-08
4.17828e-08
3.98702e-08
3.97668e-08
4.30252e-08
4.42466e-08
4.18054e-08
4.11546e-08
4.32066e-08
4.63229e-08
4.60469e-08
4.64794e-08
4.83408e-08
4.99091e-08
5.00458e-08
5.21079e-08
5.64149e-08
5.99784e-08
6.44981e-08
6.90211e-08
7.48802e-08
8.20518e-08
9.03397e-08
9.54475e-08
9.89619e-08
1.11726e-07
1.28391e-07
1.27131e-07
1.16852e-07
1.14553e-07
1.1608e-07
1.11286e-07
1.02243e-07
9.0883e-08
8.03895e-08
6.96023e-08
5.98595e-08
5.01983e-08
4.30533e-08
4.08731e-08
4.03894e-08
4.31677e-08
4.65849e-08
3.317e-08
2.6075e-08
2.00427e-08
1.6091e-08
1.47701e-08
1.37572e-08
1.06612e-08
7.65721e-09
5.37219e-09
5.45449e-09
1.01119e-08
1.24124e-08
2.53589e-08
3.15416e-08
8.77345e-08
8.20442e-08
7.2312e-07
3.1373e-07
1.91711e-07
1.71804e-07
3.53103e-07
3.56856e-07
3.49767e-07
3.63391e-07
1.4875e-07
1.60846e-07
1.08757e-07
8.71475e-08
7.20111e-08
4.60513e-08
4.86311e-08
9.47762e-08
9.26172e-08
1.5948e-07
1.64455e-07
3.66122e-07
3.75664e-07
3.30304e-07
3.82263e-07
4.01426e-07
5.62577e-07
4.56038e-07
1.95456e-07
1.85177e-07
1.13596e-07
1.11281e-07
5.90687e-08
6.15642e-08
1.19888e-07
1.17794e-07
2.05477e-07
2.11049e-07
3.25347e-07
3.28442e-07
2.48441e-07
2.3841e-07
2.43133e-07
2.4992e-07
2.45588e-07
2.4482e-07
2.42855e-07
2.38385e-07
2.35405e-07
2.33455e-07
2.31579e-07
2.30355e-07
2.29267e-07
2.28077e-07
2.26924e-07
2.26144e-07
2.25578e-07
2.25065e-07
2.2464e-07
2.24289e-07
2.24071e-07
2.24021e-07
2.24176e-07
2.24468e-07
2.2491e-07
2.2551e-07
2.2619e-07
2.26959e-07
2.27822e-07
2.28818e-07
2.29958e-07
2.31189e-07
2.32497e-07
2.33965e-07
2.35528e-07
2.37111e-07
2.38765e-07
2.40608e-07
2.42614e-07
2.44694e-07
2.46885e-07
2.49263e-07
2.51765e-07
2.54359e-07
2.57133e-07
2.60116e-07
2.63213e-07
2.66382e-07
2.6968e-07
2.73127e-07
2.76708e-07
2.80523e-07
2.84688e-07
2.89173e-07
2.93859e-07
2.98726e-07
3.03799e-07
3.09026e-07
3.14332e-07
3.19772e-07
3.25525e-07
3.31596e-07
3.37863e-07
3.44307e-07
3.51145e-07
3.58474e-07
3.66195e-07
3.74276e-07
3.82754e-07
3.9153e-07
4.0041e-07
4.09426e-07
4.18808e-07
4.28677e-07
4.39095e-07
4.50282e-07
4.62422e-07
4.75274e-07
4.8842e-07
5.01775e-07
5.15524e-07
5.29666e-07
5.44079e-07
5.58905e-07
5.74531e-07
5.91068e-07
6.08288e-07
6.2613e-07
6.44825e-07
6.64483e-07
6.85002e-07
7.06415e-07
7.28949e-07
7.52592e-07
7.77116e-07
8.0253e-07
8.29101e-07
8.57009e-07
8.8613e-07
9.16045e-07
9.46185e-07
9.76153e-07
1.00609e-06
1.03679e-06
1.06936e-06
1.10493e-06
1.1444e-06
1.18824e-06
1.23586e-06
1.28535e-06
1.33454e-06
1.38242e-06
1.42977e-06
1.47815e-06
1.52834e-06
1.58005e-06
1.63372e-06
1.69147e-06
1.75531e-06
1.82466e-06
1.89747e-06
1.97424e-06
2.05892e-06
2.15385e-06
2.25428e-06
2.35221e-06
2.4459e-06
2.54072e-06
2.63905e-06
2.73584e-06
2.82758e-06
2.92033e-06
3.0235e-06
3.14174e-06
3.27678e-06
3.4304e-06
3.60112e-06
3.78328e-06
3.97293e-06
4.17031e-06
4.37448e-06
4.58057e-06
4.78477e-06
4.98753e-06
5.18966e-06
5.39046e-06
5.5938e-06
5.81344e-06
6.06849e-06
6.37296e-06
6.73259e-06
7.15175e-06
7.6393e-06
8.20538e-06
8.85074e-06
9.55924e-06
9.99744e-06
9.99743e-06
9.99741e-06
9.9974e-06
9.99737e-06
9.99735e-06
9.99733e-06
9.99731e-06
9.99729e-06
9.99727e-06
9.99725e-06
9.99724e-06
9.99723e-06
9.99723e-06
9.99723e-06
9.99723e-06
9.99723e-06
9.99723e-06
9.99723e-06
9.99723e-06
9.99723e-06
9.99722e-06
9.99722e-06
9.99721e-06
9.99721e-06
9.9972e-06
9.99719e-06
9.99719e-06
9.99719e-06
9.99719e-06
9.99719e-06
9.99719e-06
9.99719e-06
9.99719e-06
9.99719e-06
9.99719e-06
9.99719e-06
9.99719e-06
9.99718e-06
9.99717e-06
9.99717e-06
9.99717e-06
9.99717e-06
9.99717e-06
9.99717e-06
9.99717e-06
9.99718e-06
9.99718e-06
9.99718e-06
9.99718e-06
9.99717e-06
9.99717e-06
9.99717e-06
9.99716e-06
9.99716e-06
9.99716e-06
9.99716e-06
9.99716e-06
9.99716e-06
9.99716e-06
9.99717e-06
9.99717e-06
9.99717e-06
9.99716e-06
9.99716e-06
9.99715e-06
9.99715e-06
9.99715e-06
9.99715e-06
9.99715e-06
9.99716e-06
9.99716e-06
9.99716e-06
9.99716e-06
9.99716e-06
9.99715e-06
9.99715e-06
9.99715e-06
9.99714e-06
9.99714e-06
9.99715e-06
9.99715e-06
9.99715e-06
9.99715e-06
9.99715e-06
9.99715e-06
9.99715e-06
9.99715e-06
9.99715e-06
9.99715e-06
9.99715e-06
9.99715e-06
9.99715e-06
9.99715e-06
9.99715e-06
9.99715e-06
9.99715e-06
9.99714e-06
9.99715e-06
9.99715e-06
9.99715e-06
9.99715e-06
9.99715e-06
9.99715e-06
9.99715e-06
9.99714e-06
9.99714e-06
9.99714e-06
9.99714e-06
9.99714e-06
9.99715e-06
9.99715e-06
9.99714e-06
9.99714e-06
9.99714e-06
9.99714e-06
9.99714e-06
9.99715e-06
9.99715e-06
9.99715e-06
9.99714e-06
9.99714e-06
9.99714e-06
9.99714e-06
9.99714e-06
9.99715e-06
9.99715e-06
9.99714e-06
9.99714e-06
9.99714e-06
9.99714e-06
9.99714e-06
9.99714e-06
9.99714e-06
9.99714e-06
9.99714e-06
9.99714e-06
9.99714e-06
9.99714e-06
9.99714e-06
9.99714e-06
9.99715e-06
9.99715e-06
9.99715e-06
9.99715e-06
9.99715e-06
9.99715e-06
9.99715e-06
9.99715e-06
9.99715e-06
9.99715e-06
9.99715e-06
9.99714e-06
9.99714e-06
9.99714e-06
9.99715e-06
9.99715e-06
9.99715e-06
9.99715e-06
9.99715e-06
9.99715e-06
9.99715e-06
9.99715e-06
9.99715e-06
9.99715e-06
9.99715e-06
9.99715e-06
9.99715e-06
9.9972e-06
9.9972e-06
5.80268e-06
5.41967e-06
9.99719e-06
9.9972e-06
9.99724e-06
9.99717e-06
9.99716e-06
9.99716e-06
9.99715e-06
9.99715e-06
9.99715e-06
9.99715e-06
9.99715e-06
9.99714e-06
9.99714e-06
9.99713e-06
9.99712e-06
9.99712e-06
9.99712e-06
9.99712e-06
9.99712e-06
9.99712e-06
9.99713e-06
9.99713e-06
9.99713e-06
9.99713e-06
9.99713e-06
9.99713e-06
9.99714e-06
9.99715e-06
9.99715e-06
9.99715e-06
9.99715e-06
9.99715e-06
9.99714e-06
9.99713e-06
9.99713e-06
9.99713e-06
9.99714e-06
9.99715e-06
9.99715e-06
9.99716e-06
9.99716e-06
9.99716e-06
9.99716e-06
9.99716e-06
9.99716e-06
9.99716e-06
9.99716e-06
9.99716e-06
9.99717e-06
9.99717e-06
9.99717e-06
9.99716e-06
9.99716e-06
9.99716e-06
9.99716e-06
9.99716e-06
9.99716e-06
9.99716e-06
9.99716e-06
9.99717e-06
9.99717e-06
9.99717e-06
9.99717e-06
9.99717e-06
9.99716e-06
9.99716e-06
9.99716e-06
9.99717e-06
9.99716e-06
9.99714e-06
9.99714e-06
9.99715e-06
9.99716e-06
9.99715e-06
9.99714e-06
9.99715e-06
9.99716e-06
9.99719e-06
9.99716e-06
9.99717e-06
9.9972e-06
9.99721e-06
9.99716e-06
9.99716e-06
9.99715e-06
9.99715e-06
9.99716e-06
9.99724e-06
9.9972e-06
1.17696e-08
1.17916e-08
3.50829e-08
7.47931e-08
6.67284e-08
7.37882e-08
7.45722e-08
7.05428e-08
6.90322e-08
6.65233e-08
6.30492e-08
6.01253e-08
5.81273e-08
5.67124e-08
5.58144e-08
5.49848e-08
5.33229e-08
5.13334e-08
4.9714e-08
4.8724e-08
4.79599e-08
4.71098e-08
4.59974e-08
4.45925e-08
4.32765e-08
4.21928e-08
4.18015e-08
4.22098e-08
4.25556e-08
4.36065e-08
4.61021e-08
4.66896e-08
4.41188e-08
3.99089e-08
3.88953e-08
4.01172e-08
4.04701e-08
3.9773e-08
3.87148e-08
3.83936e-08
3.95634e-08
4.01721e-08
3.97641e-08
3.98986e-08
4.1358e-08
4.38361e-08
4.52651e-08
4.64467e-08
4.76288e-08
4.8776e-08
4.92776e-08
5.07977e-08
5.28228e-08
5.52154e-08
6.00556e-08
6.2663e-08
6.61837e-08
7.51836e-08
8.37376e-08
8.81158e-08
9.23712e-08
1.03575e-07
1.11701e-07
1.05559e-07
9.72218e-08
9.50933e-08
9.38814e-08
8.97378e-08
8.4041e-08
7.7888e-08
7.3858e-08
6.90429e-08
6.17604e-08
5.3363e-08
4.70937e-08
4.71977e-08
4.6756e-08
4.48981e-08
4.87964e-08
5.25937e-08
5.97485e-08
6.91103e-08
4.66489e-08
3.55299e-08
3.6621e-08
2.55259e-08
1.42734e-08
1.18399e-08
1.0561e-08
8.90806e-09
5.15453e-09
5.3921e-09
9.72835e-09
1.17868e-08
2.48987e-08
3.11078e-08
9.68189e-08
8.55563e-08
5.64894e-07
3.09147e-07
2.21017e-07
1.99445e-07
4.55109e-07
5.09712e-07
6.6823e-07
5.46317e-07
1.98343e-07
1.2699e-07
1.33681e-07
8.70285e-08
8.56788e-08
4.7981e-08
5.07516e-08
9.62669e-08
9.58311e-08
1.703e-07
1.79671e-07
4.31487e-07
4.51416e-07
3.22875e-07
3.21579e-07
3.36216e-07
4.63571e-07
3.68519e-07
1.90687e-07
1.78965e-07
1.11025e-07
1.09194e-07
6.07852e-08
6.31545e-08
1.16712e-07
1.14851e-07
1.93711e-07
1.89784e-07
2.28904e-07
2.97545e-07
2.98598e-07
2.42479e-07
2.36991e-07
2.41137e-07
2.35656e-07
2.34277e-07
2.32969e-07
2.30326e-07
2.28995e-07
2.28038e-07
2.26663e-07
2.25803e-07
2.25234e-07
2.24586e-07
2.2405e-07
2.23773e-07
2.23572e-07
2.23453e-07
2.23486e-07
2.23639e-07
2.23883e-07
2.2431e-07
2.24894e-07
2.25521e-07
2.26198e-07
2.27053e-07
2.2816e-07
2.29411e-07
2.30652e-07
2.31912e-07
2.33362e-07
2.34963e-07
2.36536e-07
2.38073e-07
2.39858e-07
2.41919e-07
2.44076e-07
2.46317e-07
2.48753e-07
2.51312e-07
2.53885e-07
2.56578e-07
2.59538e-07
2.62722e-07
2.66044e-07
2.69557e-07
2.73276e-07
2.77068e-07
2.80903e-07
2.8492e-07
2.89187e-07
2.93649e-07
2.98259e-07
3.03107e-07
3.08272e-07
3.13727e-07
3.19425e-07
3.25428e-07
3.31712e-07
3.38082e-07
3.44388e-07
3.50811e-07
3.57628e-07
3.64932e-07
3.72797e-07
3.81365e-07
3.90546e-07
4.00021e-07
4.09573e-07
4.19234e-07
4.2904e-07
4.3903e-07
4.49502e-07
4.61005e-07
4.73689e-07
4.87176e-07
5.01182e-07
5.15725e-07
5.30741e-07
5.45818e-07
5.60761e-07
5.75982e-07
5.91938e-07
6.08606e-07
6.25954e-07
6.44341e-07
6.64044e-07
6.84915e-07
7.06759e-07
7.29624e-07
7.53437e-07
7.77821e-07
8.02592e-07
8.28043e-07
8.54731e-07
8.83218e-07
9.13786e-07
9.46086e-07
9.79186e-07
1.01211e-06
1.04446e-06
1.07665e-06
1.10958e-06
1.14477e-06
1.18368e-06
1.22685e-06
1.27336e-06
1.32125e-06
1.36898e-06
1.41709e-06
1.46775e-06
1.52235e-06