/*--------------------------------*- C++ -*----------------------------------*\
| =========                 |                                                 |
| \\      /  F ield         | OpenFOAM: The Open Source CFD Toolbox           |
|  \\    /   O peration     | Version:  v2006                                 |
|   \\  /    A nd           | Website:  www.openfoam.com                      |
|    \\/     M anipulation  |                                                 |
\*---------------------------------------------------------------------------*/
FoamFile
{
    version     2.0;
    format      ascii;
    class       volScalarField;
    location    "1.3";
    object      omega;
}
// * * * * * * * * * * * * * * * * * * * * * * * * * * * * * * * * * * * * * //

dimensions      [0 0 -1 0 0 0 0];


internalField   nonuniform List<scalar> 
33000
(
0.802561
0.802497
0.802502
0.802513
0.802513
0.802518
0.80252
0.802523
0.802527
0.802531
0.802535
0.80254
0.802546
0.802553
0.802556
0.802558
0.802557
0.802556
0.802554
0.802553
0.802549
0.802545
0.802541
0.802536
0.802532
0.802528
0.802523
0.802518
0.802513
0.802507
0.802501
0.802494
0.802487
0.802481
0.802475
0.80247
0.802464
0.802457
0.802451
0.802444
0.802436
0.802428
0.802419
0.802409
0.802399
0.802388
0.802378
0.802366
0.802355
0.802344
0.802332
0.802319
0.802307
0.802296
0.802286
0.802275
0.802265
0.802255
0.802244
0.802233
0.802221
0.802209
0.802198
0.802186
0.802174
0.802161
0.802148
0.802135
0.802122
0.802108
0.802093
0.802076
0.802056
0.802032
0.802003
0.801967
0.801923
0.801866
0.801771
0.801788
0.801759
0.801764
0.801759
0.801752
0.801752
0.801745
0.801736
0.801729
0.801724
0.801718
0.801712
0.801706
0.8017
0.801695
0.801689
0.801682
0.801675
0.801667
0.80166
0.801651
0.801645
0.801639
0.801633
0.801626
0.80162
0.801614
0.801607
0.801601
0.801594
0.801588
0.801581
0.801575
0.801568
0.801562
0.801555
0.801548
0.801541
0.80153
0.801525
0.801518
0.801512
0.801506
0.8015
0.801494
0.801488
0.801482
0.801476
0.80147
0.801464
0.801458
0.801452
0.801446
0.80144
0.801435
0.801429
0.801423
0.801417
0.801411
0.801405
0.8014
0.801394
0.801388
0.801383
0.801377
0.801371
0.801366
0.80136
0.801355
0.801349
0.801344
0.801339
0.801334
0.801329
0.801324
0.801319
0.801315
0.80131
0.801306
0.801301
0.801297
0.801293
0.801289
0.801285
0.801281
0.801277
0.801273
0.801269
0.801266
0.801262
0.801259
0.801255
0.801252
0.801249
0.801246
0.801243
0.80124
0.801237
0.801234
0.801231
0.801229
0.801226
0.801223
0.801221
0.801218
0.801216
0.801214
0.801211
0.801209
0.801207
0.801205
0.801203
0.801201
0.801199
0.801197
0.801196
0.801194
0.801192
0.801191
0.801189
0.801188
0.801186
0.801185
0.801184
0.801182
0.801181
0.80118
0.801179
0.801177
0.801176
0.801175
0.801174
0.801173
0.801172
0.801171
0.801171
0.80117
0.801169
0.801168
0.801167
0.801167
0.801166
0.801165
0.801165
0.801164
0.801164
0.801163
0.801162
0.801162
0.801161
0.801161
0.80116
0.80116
0.801159
0.801159
0.801158
0.801158
0.801158
0.801157
0.801157
0.801156
0.801156
0.801156
0.801155
0.801155
0.801155
0.801154
0.801154
0.801154
0.801153
0.801153
0.801153
0.801152
0.801152
0.801152
0.801152
0.801151
0.801151
0.801151
0.801151
0.80115
0.80115
0.80115
0.80115
0.801149
0.801149
0.801149
0.801149
0.801149
0.801148
0.801148
0.801148
0.801148
0.801147
0.801147
0.801147
0.801147
0.801147
0.801146
0.801146
0.801146
0.801146
0.801145
0.801145
0.801145
0.801145
0.801145
0.801144
0.801144
0.801144
0.801144
0.801143
0.801143
0.801143
0.801143
0.801143
0.801143
0.801142
0.801142
0.801142
0.801142
0.801142
0.801141
0.801141
0.801141
0.801141
0.801141
0.80114
0.80114
0.80114
0.80114
0.80114
0.80114
0.80114
0.801139
0.801139
0.801139
0.801139
0.801139
0.801139
0.801139
0.801138
0.801138
0.801138
0.801138
0.801138
0.801138
0.801138
0.801138
0.801138
0.801137
0.801137
0.801137
0.801137
0.801137
0.801137
0.801137
0.801137
0.801137
0.801136
0.801136
0.801136
0.801136
0.801136
0.801136
0.801136
0.801136
0.801136
0.801136
0.801136
0.801136
0.801135
0.801135
0.801135
0.801135
0.801135
0.801135
0.801135
0.801135
0.801135
0.801135
0.801135
0.801135
0.801134
0.801134
0.801134
0.801134
0.801134
0.801134
0.801134
0.801134
0.801134
0.801134
0.801134
0.801134
0.801134
0.801134
0.801133
0.801133
0.801133
0.801133
0.801133
0.801133
0.801133
0.801133
0.801133
0.801133
0.801133
0.801133
0.801133
0.801133
0.801133
0.801133
0.801133
0.801133
0.801132
0.801132
0.801132
0.801132
0.801132
0.801132
0.801132
0.801132
0.801132
0.801132
0.801132
0.801132
0.801132
0.801132
0.801132
0.801132
0.801132
0.801132
0.801132
0.801132
0.801131
0.801131
0.801131
0.801131
0.801131
0.801131
0.801131
0.801131
0.801131
0.801131
0.801131
0.801131
0.801131
0.801131
0.801131
0.801131
0.801131
0.801131
0.801131
0.801131
0.801131
0.801131
0.801131
0.801131
0.801131
0.801131
0.801131
0.801131
0.801131
0.801131
0.801131
0.801131
0.801131
0.801131
0.801131
0.801131
0.801131
0.801131
0.801131
0.801131
0.801131
0.801131
0.801131
0.801131
0.801131
0.801131
0.801131
0.801131
0.801131
0.801131
0.801131
0.801131
0.801131
0.801131
0.801131
0.801131
0.801131
0.801131
0.801131
0.801131
0.801131
0.801131
0.801131
0.801131
0.801131
0.801131
0.801131
0.801131
0.801131
0.801131
0.80113
0.80113
0.80113
0.80113
0.80113
0.80113
0.80113
0.80113
0.80113
0.801131
0.801131
0.801131
0.801131
0.801131
0.801131
0.801131
0.801131
0.801131
0.801131
0.801131
0.801131
0.801131
0.801131
0.80113
0.80113
0.80113
0.80113
0.80113
0.80113
0.80113
0.80113
0.80113
0.80113
0.80113
0.80113
0.80113
0.801131
0.801131
0.801131
0.801131
0.801131
0.801131
0.801131
0.801131
0.801131
0.801131
0.801131
0.801131
0.801131
0.801131
0.801131
0.801131
0.801131
0.80113
0.80113
0.80113
0.80113
0.80113
0.80113
0.801131
0.801131
0.801131
0.801131
0.801131
0.80113
0.801131
0.00899822
0.0143632
0.0135692
0.012299
0.0132602
0.0140754
0.0139978
0.0138827
0.013866
0.013782
0.0138207
0.0139926
0.0142089
0.0149104
0.0149146
0.0148611
0.0148737
0.0148531
0.0148641
0.014975
0.0151366
0.0151427
0.0149616
0.0146351
0.0145549
0.0146251
0.0145807
0.0144007
0.0141768
0.0142105
0.0141911
0.0138909
0.0132568
0.0130014
0.0131399
0.0130247
0.0125718
0.011908
0.0119241
0.0120617
0.011992
0.0116932
0.0108727
0.0104341
0.0105418
0.0105956
0.00987002
0.009252
0.0091228
0.009115
0.00875971
0.00819418
0.00784785
0.0076144
0.00756559
0.00745926
0.00727663
0.00715502
0.00716476
0.00705726
0.00681936
0.00664955
0.00660523
0.00652612
0.0064172
0.00634001
0.00633005
0.00637418
0.006442
0.0065451
0.00670253
0.00694903
0.0073452
0.00798663
0.00900978
0.0105298
0.0121548
0.0122992
0.00980699
0.0069028
0.00682443
0.00757652
0.0057134
0.00707864
0.00780258
0.00493335
0.00505218
0.0051707
0.00515751
0.00505668
0.00508132
0.00510313
0.00497128
0.00503904
0.00503182
0.00501263
0.0050074
0.00500474
0.00504274
0.00501112
0.00494818
0.00488934
0.0049383
0.00494801
0.00496321
0.0049796
0.00498819
0.00500406
0.00503056
0.00503238
0.00502283
0.00503026
0.00504077
0.00505314
0.00507198
0.0050825
0.00519138
0.00512957
0.00501984
0.00487198
0.00488187
0.00501146
0.00500511
0.00506823
0.00508956
0.00512148
0.00513264
0.00513322
0.00514043
0.00515104
0.00516163
0.00517293
0.00518442
0.00519407
0.00520473
0.00521586
0.00522734
0.00523964
0.00525053
0.00526074
0.00527164
0.00528313
0.00529527
0.00530747
0.0053204
0.00533218
0.00534241
0.00535312
0.00536489
0.00537721
0.00538902
0.00540093
0.00541227
0.00542294
0.00543349
0.00544478
0.00545681
0.00546856
0.00548029
0.00549097
0.00550081
0.00551066
0.00552044
0.00553032
0.00554099
0.00555217
0.00556102
0.00556878
0.00557745
0.00558533
0.00559182
0.00559739
0.00560136
0.00560573
0.00560985
0.00561351
0.00561783
0.00562194
0.00562494
0.00562792
0.00563141
0.0056352
0.0056388
0.00564268
0.00564723
0.0056509
0.00565445
0.00565805
0.00566209
0.00566665
0.0056707
0.00567396
0.0056774
0.00568121
0.00568542
0.00568982
0.00569432
0.00569768
0.00570167
0.00570596
0.00571048
0.00571526
0.00571903
0.00572243
0.00572625
0.00573038
0.00573459
0.00573877
0.00574179
0.0057448
0.00574798
0.00575186
0.00575645
0.00576021
0.00576373
0.00576767
0.00577207
0.00577648
0.00578006
0.00578336
0.00578715
0.00579104
0.00579477
0.00579748
0.00580044
0.00580389
0.00580698
0.00580991
0.00581232
0.00581431
0.0058163
0.00581867
0.00582113
0.00582324
0.00582471
0.00582638
0.00582831
0.00583061
0.00583217
0.00583305
0.00583386
0.00583487
0.00583558
0.00583612
0.00583717
0.00583818
0.00583862
0.00583834
0.00583823
0.00583842
0.0058385
0.00583815
0.00583717
0.00583624
0.00583586
0.00583569
0.00583487
0.00583325
0.00583151
0.00583038
0.0058301
0.00583011
0.00583014
0.00583018
0.00583015
0.00582986
0.00582936
0.00582877
0.00582816
0.00582714
0.00582574
0.00582443
0.00582348
0.00582277
0.00582216
0.00582169
0.00582142
0.00582127
0.00582132
0.00582166
0.0058221
0.00582224
0.00582169
0.00582047
0.00581888
0.00581712
0.00581523
0.00581311
0.00581082
0.00580856
0.00580655
0.00580489
0.00580357
0.00580282
0.00580262
0.00580284
0.00580316
0.00580333
0.00580328
0.00580315
0.00580291
0.00580249
0.0058017
0.00580041
0.00579862
0.0057965
0.00579429
0.00579219
0.00579033
0.0057888
0.00578763
0.00578681
0.00578632
0.00578602
0.00578574
0.00578533
0.00578468
0.00578371
0.00578246
0.00578104
0.00577957
0.00577808
0.00577655
0.005775
0.00577367
0.005773
0.00577331
0.00577426
0.00577517
0.00577547
0.0057752
0.00577469
0.00577392
0.00577246
0.00577013
0.00576753
0.00576569
0.00576499
0.00576486
0.00576482
0.00576505
0.00576594
0.00576725
0.00576822
0.00576843
0.00576813
0.00576758
0.00576669
0.00576545
0.00576429
0.00576361
0.00576343
0.00576369
0.00576448
0.00576565
0.00576664
0.00576692
0.00576656
0.00576583
0.00576485
0.00576359
0.00576238
0.00576175
0.00576195
0.00576275
0.00576369
0.00576445
0.00576489
0.00576484
0.00576413
0.00576285
0.00576138
0.00576021
0.00575956
0.0057593
0.00575915
0.00575899
0.00575889
0.00575865
0.00575786
0.00575638
0.00575466
0.00575341
0.00575299
0.00575338
0.00575428
0.00575513
0.00575542
0.00575501
0.00575408
0.00575297
0.00575213
0.00575198
0.00575261
0.00575376
0.00575504
0.00575599
0.00575611
0.00575517
0.00575356
0.00575215
0.00575156
0.00575161
0.00575173
0.00575185
0.00575186
0.00575119
0.00575004
0.00574928
0.00574926
0.00574976
0.00575019
0.00574995
0.00574904
0.00574814
0.00574747
0.00574692
0.00574687
0.00574691
0.00574653
0.0057459
0.00574661
0.00574766
0.00574842
0.00574865
0.00574678
0.00574574
0.00574468
0.00574295
0.00574148
0.00574016
0.00573977
0.0057374
0.0057371
0.00573729
0.00573901
0.00573994
0.00573897
0.00573915
0.00573643
0.00573803
0.00574222
0.00574172
0.00574113
0.00573835
0.00573954
0.00573883
0.00573558
0.00573432
0.00573328
0.00573505
0.00573352
0.00573568
0.0057365
0.00573927
0.00573654
0.00573346
0.00573755
0.00573349
0.00573302
0.00573561
0.00573642
0.00574343
0.00573658
0.00574227
0.00573856
0.0057328
0.00573346
0.00573368
0.00573452
0.00573625
0.00573404
0.00573881
0.00574224
0.00574392
0.00574794
0.00575294
0.00575608
0.00575777
0.00575897
0.00575815
0.00575457
0.00575051
0.00574877
0.00574947
0.00574992
0.00574839
0.00574536
0.00574259
0.00574108
0.00574126
0.00574304
0.00574574
0.0057484
0.00575047
0.00575156
0.00575158
0.00575049
0.00574802
0.00574395
0.00573806
0.00573294
0.00573281
0.00573276
0.00573272
0.00573269
0.00573268
0.00573267
0.00573267
0.00573268
0.00573271
0.00573276
0.00573286
0.00573302
0.00573333
0.00573435
0.00573405
0.00573329
0.00573304
0.00573293
0.00573283
0.00573278
0.00573282
0.00573296
0.00573325
0.00573555
0.00573317
0.00573294
0.00573289
0.00573319
0.00574846
0.00576382
0.00575722
0.00573596
0.00573336
0.00574835
0.00576574
0.00575595
0.00573321
0.00573302
0.00573408
0.00573534
0.00573284
0.00573278
0.00573325
0.00574901
0.00574102
0.00576172
0.00576067
0.00575562
0.00178201
0.00166422
0.00130532
0.00122101
0.00123533
0.00125012
0.00124873
0.0012497
0.00125295
0.00125558
0.00126175
0.00127038
0.00127962
0.00129773
0.00130137
0.00130351
0.00130516
0.00130472
0.00130659
0.00130966
0.00131205
0.00131168
0.00130779
0.00130013
0.00129619
0.00129488
0.00129174
0.00128896
0.00128324
0.00128242
0.00128678
0.001281
0.00126038
0.00123702
0.00123565
0.00123929
0.00123211
0.00121842
0.00120799
0.00120205
0.00120267
0.00119741
0.00117937
0.00116773
0.00116608
0.00116605
0.00115374
0.00114311
0.00113828
0.00113531
0.00112795
0.00111854
0.0011122
0.00110681
0.00110407
0.00110172
0.00109831
0.00109561
0.0010949
0.00109354
0.00109052
0.00108779
0.00108753
0.00108795
0.00108819
0.00108852
0.00109009
0.00109285
0.00109614
0.00110001
0.00110455
0.00111015
0.00111713
0.00112603
0.00113709
0.00115001
0.00116474
0.00117619
0.00118303
0.00120524
0.00123342
0.00129352
0.00138602
0.00159796
0.00153635
0.00131263
0.00125201
0.00119064
0.0010918
0.00107257
0.00102931
0.00103295
0.00102718
0.00102924
0.00102815
0.00102943
0.00102684
0.00102637
0.00102646
0.00102629
0.00102868
0.00102882
0.00103269
0.00103439
0.00104425
0.00104264
0.00103369
0.00103279
0.00103059
0.00102764
0.00102732
0.00102564
0.00102561
0.00102636
0.00102621
0.0010257
0.00102545
0.00102513
0.0010259
0.00102537
0.00102757
0.00102869
0.00103539
0.00103461
0.0010276
0.0010277
0.00102512
0.00102494
0.00102458
0.00102451
0.0010249
0.00102499
0.00102494
0.00102505
0.00102515
0.00102518
0.00102515
0.00102512
0.00102511
0.0010251
0.00102511
0.00102514
0.00102519
0.00102525
0.00102529
0.00102527
0.00102524
0.00102523
0.00102524
0.00102527
0.00102531
0.00102538
0.00102539
0.00102541
0.00102542
0.00102542
0.00102543
0.00102545
0.00102549
0.00102554
0.00102557
0.00102558
0.00102559
0.0010256
0.00102561
0.00102564
0.00102567
0.0010257
0.00102575
0.00102578
0.00102577
0.00102578
0.00102579
0.00102578
0.00102579
0.00102581
0.00102585
0.00102585
0.00102584
0.00102584
0.00102587
0.00102591
0.00102597
0.00102604
0.00102609
0.00102608
0.00102609
0.0010261
0.00102613
0.00102619
0.00102628
0.00102632
0.00102634
0.00102637
0.00102642
0.0010265
0.00102659
0.00102663
0.00102666
0.0010267
0.00102677
0.00102683
0.00102691
0.00102701
0.00102713
0.00102718
0.00102724
0.00102732
0.0010274
0.00102747
0.00102756
0.00102761
0.0010277
0.00102781
0.00102794
0.00102807
0.00102821
0.0010283
0.00102837
0.00102846
0.00102858
0.00102874
0.00102891
0.00102901
0.00102912
0.00102924
0.00102936
0.00102951
0.00102964
0.00102972
0.00102981
0.0010299
0.00103002
0.00103018
0.00103034
0.00103046
0.0010306
0.00103073
0.00103086
0.00103097
0.0010311
0.00103118
0.00103126
0.00103134
0.00103146
0.00103158
0.00103172
0.00103182
0.00103193
0.00103206
0.00103218
0.0010323
0.00103243
0.00103258
0.00103272
0.00103274
0.00103275
0.00103277
0.00103284
0.00103296
0.00103311
0.00103327
0.00103341
0.00103355
0.00103369
0.00103383
0.00103395
0.00103407
0.00103417
0.00103425
0.00103429
0.00103434
0.0010344
0.00103449
0.00103459
0.00103469
0.00103478
0.00103489
0.00103502
0.00103516
0.0010353
0.00103543
0.00103553
0.00103561
0.00103566
0.00103569
0.00103572
0.00103574
0.00103576
0.00103579
0.00103582
0.00103587
0.00103594
0.00103603
0.00103613
0.00103622
0.0010363
0.00103637
0.00103643
0.00103648
0.00103652
0.00103652
0.0010365
0.00103649
0.00103646
0.00103644
0.00103641
0.00103639
0.00103636
0.00103634
0.00103633
0.00103632
0.00103631
0.0010363
0.00103629
0.00103628
0.00103627
0.00103626
0.00103624
0.00103622
0.0010362
0.00103618
0.00103616
0.00103615
0.00103614
0.00103613
0.00103613
0.00103613
0.00103614
0.00103614
0.00103613
0.00103612
0.00103611
0.00103609
0.00103607
0.00103604
0.00103602
0.00103601
0.00103601
0.00103601
0.00103601
0.00103601
0.00103602
0.00103603
0.00103603
0.00103603
0.00103602
0.00103601
0.001036
0.00103599
0.00103598
0.00103598
0.00103598
0.00103599
0.001036
0.001036
0.001036
0.001036
0.00103599
0.00103598
0.00103597
0.00103595
0.00103595
0.00103595
0.00103596
0.00103597
0.00103597
0.00103597
0.00103597
0.00103596
0.00103595
0.00103593
0.00103592
0.00103591
0.00103591
0.00103591
0.0010359
0.0010359
0.00103589
0.00103588
0.00103587
0.00103585
0.00103584
0.00103583
0.00103584
0.00103584
0.00103585
0.00103585
0.00103584
0.00103583
0.00103582
0.00103581
0.00103581
0.00103582
0.00103583
0.00103584
0.00103585
0.00103585
0.00103584
0.00103582
0.00103581
0.00103581
0.00103581
0.0010358
0.0010358
0.0010358
0.00103579
0.00103578
0.00103578
0.00103578
0.00103578
0.00103578
0.00103577
0.00103576
0.00103575
0.00103575
0.00103574
0.00103574
0.00103574
0.00103574
0.00103573
0.00103573
0.00103574
0.00103575
0.00103575
0.00103573
0.0010357
0.00103569
0.00103568
0.00103568
0.00103567
0.00103565
0.00103563
0.00103562
0.00103562
0.00103564
0.00103564
0.00103564
0.00103564
0.00103561
0.00103563
0.00103567
0.00103566
0.00103565
0.00103562
0.00103563
0.00103562
0.00103559
0.00103558
0.00103557
0.0010356
0.00103557
0.00103559
0.0010356
0.00103561
0.00103559
0.00103557
0.00103559
0.00103558
0.0010356
0.0010356
0.00103561
0.00103523
0.00103465
0.00103559
0.00103557
0.00103556
0.00103557
0.00103557
0.00103559
0.0010356
0.00103558
0.00103566
0.0010357
0.00103573
0.00103579
0.00103582
0.00103583
0.00103585
0.00103586
0.00103586
0.00103583
0.00103579
0.00103579
0.00103579
0.00103578
0.00103575
0.00103571
0.00103568
0.00103566
0.00103567
0.0010357
0.00103573
0.00103576
0.00103578
0.00103578
0.00103577
0.00103575
0.00103571
0.00103566
0.0010356
0.00103556
0.00103556
0.00103556
0.00103556
0.00103556
0.00103556
0.00103556
0.00103556
0.00103556
0.00103556
0.00103556
0.00103556
0.00103556
0.00103557
0.00103557
0.00103557
0.00103556
0.00103556
0.00103556
0.00103556
0.00103556
0.00103556
0.00103556
0.00103557
0.00103557
0.00103556
0.00103556
0.00103556
0.00103558
0.00103578
0.00103587
0.00103575
0.00103558
0.00103561
0.00103581
0.00103591
0.00103572
0.00103557
0.00103557
0.00103562
0.00103557
0.00103556
0.00103557
0.00103561
0.00103573
0.00103569
0.00103585
0.00103575
0.00103583
0.00178747
0.00151566
0.00114722
0.0010762
0.00107135
0.00107297
0.00107384
0.00107579
0.00107761
0.00107959
0.00108146
0.0010832
0.00108478
0.00108609
0.00108735
0.00108826
0.00108901
0.00108966
0.00109015
0.00109047
0.00109057
0.00109059
0.00109083
0.00109108
0.00109108
0.00109083
0.00109026
0.00108954
0.0010891
0.00108813
0.0010866
0.0010863
0.0010876
0.00108826
0.00108623
0.00108337
0.00108176
0.00108164
0.00108185
0.00108081
0.00107906
0.00107855
0.00107897
0.00107848
0.00107717
0.00107592
0.00107546
0.00107469
0.00107355
0.00107268
0.00107232
0.00107161
0.00107042
0.00106932
0.00106847
0.00106798
0.00106733
0.00106659
0.00106632
0.00106657
0.00106667
0.00106629
0.00106631
0.0010674
0.00106881
0.00106981
0.00107077
0.00107198
0.00107335
0.00107479
0.00107598
0.00107673
0.00107723
0.00107761
0.00107677
0.00107303
0.00106648
0.00105767
0.00105096
0.00105532
0.00107115
0.00110284
0.00115102
0.00118618
0.00123802
0.00130451
0.00141904
0.00157516
0.00150979
0.00126232
0.00120819
0.00107345
0.00106375
0.00101721
0.00101921
0.00101808
0.00101893
0.00101702
0.00101785
0.00101476
0.00101406
0.00101425
0.001015
0.00101773
0.00101798
0.0010208
0.00102288
0.00102468
0.00103191
0.00102998
0.00102055
0.00102015
0.00101586
0.00101531
0.00101323
0.0010128
0.00101304
0.00101269
0.00101232
0.00101179
0.00101207
0.00101334
0.00101362
0.00101588
0.00101622
0.00102249
0.00102139
0.00101464
0.00101448
0.00101159
0.00101135
0.00101058
0.00101039
0.00101065
0.00101061
0.00101038
0.00101016
0.00101005
0.00100994
0.0010098
0.00100966
0.00100954
0.0010094
0.00100926
0.00100912
0.00100897
0.00100883
0.00100869
0.00100855
0.00100841
0.00100827
0.00100813
0.001008
0.00100788
0.00100775
0.00100761
0.00100748
0.00100735
0.00100722
0.00100709
0.00100697
0.00100684
0.00100671
0.00100658
0.00100646
0.00100633
0.0010062
0.00100608
0.00100596
0.00100584
0.00100572
0.0010056
0.00100548
0.00100536
0.00100525
0.00100513
0.00100501
0.0010049
0.00100478
0.00100467
0.00100456
0.00100446
0.00100435
0.00100424
0.00100414
0.00100403
0.00100393
0.00100382
0.00100371
0.00100361
0.00100351
0.00100341
0.00100332
0.00100322
0.00100313
0.00100303
0.00100294
0.00100285
0.00100276
0.00100268
0.00100259
0.0010025
0.00100242
0.00100234
0.00100226
0.00100219
0.00100211
0.00100203
0.00100196
0.00100188
0.00100181
0.00100173
0.00100166
0.0010016
0.00100154
0.00100148
0.00100142
0.00100136
0.0010013
0.00100125
0.0010012
0.00100115
0.0010011
0.00100105
0.001001
0.00100096
0.00100091
0.00100087
0.00100083
0.00100079
0.00100075
0.00100071
0.00100068
0.00100065
0.00100061
0.00100059
0.00100056
0.00100053
0.00100051
0.00100048
0.00100045
0.00100043
0.00100041
0.00100039
0.00100037
0.00100036
0.00100034
0.00100033
0.00100032
0.00100031
0.0010003
0.00100029
0.00100028
0.00100027
0.00100026
0.00100026
0.00100025
0.00100024
0.00100024
0.00100023
0.00100023
0.00100023
0.00100022
0.00100022
0.00100022
0.00100022
0.00100022
0.00100021
0.00100021
0.00100021
0.00100021
0.00100021
0.00100021
0.00100021
0.00100021
0.00100021
0.0010002
0.0010002
0.0010002
0.0010002
0.00100021
0.00100021
0.00100021
0.00100021
0.00100021
0.00100021
0.00100021
0.00100021
0.00100021
0.00100021
0.00100021
0.00100021
0.00100021
0.00100021
0.00100021
0.00100021
0.00100021
0.00100021
0.00100021
0.00100021
0.0010002
0.0010002
0.0010002
0.0010002
0.0010002
0.0010002
0.0010002
0.0010002
0.0010002
0.0010002
0.0010002
0.0010002
0.0010002
0.0010002
0.0010002
0.00100019
0.00100019
0.00100019
0.00100019
0.00100019
0.00100019
0.00100019
0.00100019
0.00100019
0.00100019
0.00100019
0.00100019
0.00100019
0.00100019
0.00100019
0.00100019
0.00100019
0.00100019
0.00100019
0.00100019
0.00100019
0.00100019
0.00100019
0.00100019
0.00100019
0.00100018
0.00100018
0.00100018
0.00100018
0.00100018
0.00100018
0.00100018
0.00100018
0.00100018
0.00100018
0.00100018
0.00100018
0.00100018
0.00100018
0.00100018
0.00100018
0.00100018
0.00100018
0.00100018
0.00100018
0.00100018
0.00100018
0.00100018
0.00100018
0.00100018
0.00100018
0.00100018
0.00100018
0.00100018
0.00100018
0.00100018
0.00100018
0.00100018
0.00100018
0.00100018
0.00100018
0.00100018
0.00100018
0.00100018
0.00100018
0.00100018
0.00100018
0.00100018
0.00100018
0.00100018
0.00100018
0.00100018
0.00100018
0.00100018
0.00100018
0.00100018
0.00100017
0.00100017
0.00100017
0.00100017
0.00100017
0.00100017
0.00100017
0.00100017
0.00100017
0.00100017
0.00100017
0.00100017
0.00100017
0.00100017
0.00100017
0.00100017
0.00100017
0.00100017
0.00100017
0.00100017
0.00100017
0.00100017
0.00100017
0.00100017
0.00100017
0.00100017
0.00100017
0.00100017
0.00100017
0.00100017
0.00100017
0.00100017
0.00100017
0.00100017
0.00100017
0.00100017
0.00100017
0.00100017
0.00100017
0.00100017
0.00100017
0.00100017
0.00100017
0.00100017
0.00100017
0.00100017
0.00100017
0.00100017
0.00100017
0.00100017
0.00100017
0.00100017
0.00100017
0.00100017
0.00100017
0.00100017
0.00100017
0.00100017
0.00100017
0.00100017
0.00100017
0.00100017
0.00100017
0.00100017
0.00100017
0.00100017
0.00100017
0.00100017
0.00100019
0.00100019
0.00100017
0.00100017
0.00100016
0.00100017
0.00100017
0.00100017
0.00100017
0.00100017
0.00100017
0.00100017
0.00100017
0.00100017
0.00100017
0.00100017
0.00100017
0.00100017
0.00100017
0.00100017
0.00100017
0.00100017
0.00100017
0.00100017
0.00100017
0.00100017
0.00100017
0.00100017
0.00100017
0.00100017
0.00100017
0.00100017
0.00100017
0.00100017
0.00100017
0.00100017
0.00100017
0.00100017
0.00100017
0.00100017
0.00100017
0.00100017
0.00100017
0.00100017
0.00100017
0.00100017
0.00100017
0.00100017
0.00100017
0.00100017
0.00100017
0.00100017
0.00100017
0.00100017
0.00100017
0.00100017
0.00100017
0.00100017
0.00100017
0.00100017
0.00100017
0.00100017
0.00100017
0.00100017
0.00100017
0.00100017
0.00100017
0.00100017
0.00100017
0.00100017
0.00100017
0.00100017
0.00100017
0.00100017
0.00100017
0.00100017
0.00100017
0.00100018
0.00100017
0.00100017
0.00100017
0.00100017
0.00100018
0.00100018
0.00100017
0.00100017
0.00100017
0.00100017
0.00100017
0.00100018
0.00100018
0.00185381
0.00152473
0.00114595
0.00107395
0.00107134
0.00107388
0.00107564
0.00107819
0.00108011
0.00108178
0.00108327
0.00108467
0.00108582
0.0010867
0.00108733
0.00108776
0.00108825
0.00108871
0.00108909
0.00108932
0.00108941
0.00108937
0.00108939
0.00108964
0.00108992
0.00109008
0.00108982
0.00108916
0.0010885
0.00108747
0.001086
0.0010855
0.00108607
0.00108689
0.00108619
0.00108463
0.00108352
0.00108305
0.00108284
0.00108205
0.00108075
0.00108012
0.00108005
0.00107955
0.00107854
0.00107744
0.00107673
0.00107605
0.00107525
0.00107451
0.00107416
0.00107365
0.0010726
0.00107152
0.0010706
0.00107009
0.00106947
0.00106869
0.00106852
0.00106877
0.00106875
0.00106829
0.00106818
0.00106898
0.00106991
0.0010703
0.00107057
0.00107094
0.00107144
0.00107186
0.00107175
0.00107105
0.00107022
0.00106937
0.00106757
0.00106369
0.00105925
0.00105468
0.00104862
0.00104243
0.00103663
0.00103418
0.00104218
0.00106033
0.00107663
0.00111402
0.0011707
0.00121624
0.00128155
0.00136481
0.00156664
0.00149842
0.00126236
0.00121153
0.00107215
0.00106246
0.00101685
0.00101856
0.00101865
0.00101914
0.00101648
0.0010176
0.00101526
0.00101448
0.00101451
0.00101536
0.0010175
0.00101898
0.00101895
0.00102209
0.00102255
0.00103009
0.00102824
0.00101963
0.00101913
0.00101492
0.00101433
0.0010125
0.00101216
0.00101262
0.00101252
0.0010122
0.00101172
0.00101198
0.00101294
0.00101319
0.00101545
0.00101567
0.00102127
0.00102029
0.00101423
0.00101407
0.00101124
0.00101118
0.00101069
0.00101013
0.00100993
0.00101003
0.00100994
0.00100974
0.00100964
0.00100953
0.00100939
0.00100924
0.00100909
0.00100894
0.0010088
0.00100866
0.00100851
0.00100838
0.00100824
0.0010081
0.00100796
0.00100783
0.00100769
0.00100756
0.00100743
0.0010073
0.00100717
0.00100704
0.00100692
0.00100679
0.00100666
0.00100653
0.0010064
0.00100628
0.00100615
0.00100603
0.00100591
0.00100579
0.00100567
0.00100554
0.00100542
0.0010053
0.00100518
0.00100506
0.00100495
0.00100483
0.00100472
0.0010046
0.00100449
0.00100438
0.00100426
0.00100415
0.00100404
0.00100394
0.00100383
0.00100373
0.00100363
0.00100353
0.00100343
0.00100332
0.00100323
0.00100313
0.00100303
0.00100293
0.00100284
0.00100276
0.00100267
0.00100258
0.00100249
0.0010024
0.00100231
0.00100223
0.00100215
0.00100207
0.00100199
0.00100192
0.00100184
0.00100177
0.0010017
0.00100162
0.00100154
0.00100147
0.00100141
0.00100135
0.00100128
0.00100123
0.00100117
0.00100111
0.00100106
0.00100101
0.00100096
0.0010009
0.00100086
0.00100081
0.00100076
0.00100072
0.00100067
0.00100064
0.0010006
0.00100056
0.00100052
0.00100048
0.00100045
0.00100042
0.00100039
0.00100036
0.00100033
0.00100031
0.00100028
0.00100025
0.00100023
0.00100021
0.00100019
0.00100017
0.00100015
0.00100014
0.00100012
0.00100011
0.0010001
0.00100009
0.00100008
0.00100007
0.00100006
0.00100005
0.00100004
0.00100003
0.00100003
0.00100002
0.00100002
0.00100001
0.00100001
0.001
0.000999996
0.000999992
0.000999989
0.000999986
0.000999982
0.000999979
0.000999977
0.000999974
0.000999972
0.000999969
0.000999967
0.000999964
0.000999962
0.00099996
0.000999957
0.000999956
0.000999954
0.000999952
0.000999951
0.000999949
0.000999948
0.000999948
0.000999947
0.000999947
0.000999946
0.000999945
0.000999945
0.000999943
0.000999942
0.00099994
0.000999939
0.000999937
0.000999935
0.000999934
0.000999932
0.000999931
0.00099993
0.000999929
0.000999929
0.000999928
0.000999928
0.000999928
0.000999928
0.000999928
0.000999928
0.000999927
0.000999927
0.000999926
0.000999925
0.000999924
0.000999923
0.000999922
0.000999922
0.000999921
0.000999921
0.000999921
0.000999922
0.000999922
0.000999921
0.000999921
0.00099992
0.00099992
0.00099992
0.000999919
0.000999918
0.000999917
0.000999917
0.000999917
0.000999917
0.000999917
0.000999917
0.000999918
0.000999918
0.000999917
0.000999917
0.000999916
0.000999916
0.000999915
0.000999915
0.000999914
0.000999914
0.000999914
0.000999914
0.000999914
0.000999914
0.000999914
0.000999914
0.000999914
0.000999914
0.000999913
0.000999913
0.000999912
0.000999912
0.000999912
0.000999913
0.000999913
0.000999912
0.000999912
0.000999912
0.000999912
0.000999911
0.000999911
0.000999911
0.00099991
0.00099991
0.00099991
0.00099991
0.00099991
0.00099991
0.00099991
0.00099991
0.000999909
0.000999909
0.000999909
0.000999909
0.000999909
0.000999909
0.000999909
0.000999909
0.000999909
0.000999909
0.000999908
0.000999908
0.000999908
0.000999908
0.000999908
0.000999908
0.000999908
0.000999908
0.000999908
0.000999907
0.000999907
0.000999907
0.000999907
0.000999907
0.000999907
0.000999907
0.000999907
0.000999907
0.000999907
0.000999907
0.000999907
0.000999907
0.000999907
0.000999906
0.000999906
0.000999906
0.000999906
0.000999906
0.000999906
0.000999906
0.000999906
0.000999905
0.000999905
0.000999905
0.000999905
0.000999905
0.000999905
0.000999905
0.000999905
0.000999905
0.000999905
0.000999905
0.000999905
0.000999905
0.000999905
0.000999905
0.000999905
0.000999905
0.000999905
0.000999905
0.000999904
0.000999904
0.000999904
0.000999904
0.000999904
0.000999904
0.000999904
0.000999904
0.000999904
0.000999904
0.000999904
0.000999904
0.000999904
0.000999904
0.000999904
0.000999904
0.000999904
0.000999904
0.00099991
0.000999909
0.000999912
0.000999942
0.000999935
0.000999909
0.000999907
0.000999906
0.000999906
0.000999904
0.000999904
0.000999903
0.000999903
0.000999903
0.000999903
0.000999903
0.000999903
0.000999902
0.000999902
0.000999902
0.000999902
0.000999902
0.000999902
0.000999902
0.000999902
0.000999902
0.000999902
0.000999902
0.000999903
0.000999903
0.000999903
0.000999902
0.000999903
0.000999903
0.000999903
0.000999904
0.000999905
0.000999905
0.000999905
0.000999904
0.000999904
0.000999903
0.000999904
0.000999904
0.000999904
0.000999904
0.000999905
0.000999905
0.000999905
0.000999905
0.000999905
0.000999905
0.000999905
0.000999906
0.000999906
0.000999906
0.000999907
0.000999907
0.000999907
0.000999907
0.000999907
0.000999907
0.000999907
0.000999907
0.000999907
0.000999907
0.000999907
0.000999908
0.000999908
0.000999908
0.000999909
0.000999908
0.000999907
0.000999907
0.000999907
0.000999907
0.000999907
0.000999907
0.000999907
0.000999907
0.000999907
0.000999908
0.000999909
0.000999907
0.000999911
0.000999908
0.000999907
0.000999908
0.000999916
0.000999908
0.000999907
0.000999907
0.000999908
0.000999906
0.000999907
0.000999919
0.000999913