/*--------------------------------*- C++ -*----------------------------------*\
| =========                 |                                                 |
| \\      /  F ield         | OpenFOAM: The Open Source CFD Toolbox           |
|  \\    /   O peration     | Version:  v2006                                 |
|   \\  /    A nd           | Website:  www.openfoam.com                      |
|    \\/     M anipulation  |                                                 |
\*---------------------------------------------------------------------------*/
FoamFile
{
    version     2.0;
    format      ascii;
    class       volScalarField;
    location    "1.3";
    object      p;
}
// * * * * * * * * * * * * * * * * * * * * * * * * * * * * * * * * * * * * * //

dimensions      [1 -1 -2 0 0 0 0];


internalField   nonuniform List<scalar> 
33000
(
7739.21
7738.56
7738.07
7737.46
7736.8
7736.11
7735.37
7734.6
7733.8
7732.96
7732.09
7731.19
7730.26
7729.3
7728.32
7727.32
7726.29
7725.24
7724.17
7723.09
7721.99
7720.87
7719.75
7718.61
7717.47
7716.31
7715.15
7713.99
7712.83
7711.66
7710.5
7709.34
7708.18
7707.03
7705.88
7704.75
7703.62
7702.5
7701.39
7700.29
7699.21
7698.14
7697.09
7696.05
7695.03
7694.02
7693.04
7692.07
7691.12
7690.19
7689.29
7688.4
7687.54
7686.7
7685.88
7685.08
7684.31
7683.56
7682.83
7682.13
7681.46
7680.81
7680.18
7679.59
7679.01
7678.47
7677.95
7677.46
7676.99
7676.55
7676.13
7675.74
7675.38
7675.04
7674.74
7674.47
7674.23
7674
7673.66
7673.38
7673.19
7672.98
7672.77
7672.6
7672.44
7672.34
7672.26
7672.21
7672.17
7672.16
7672.17
7672.21
7672.27
7672.35
7672.45
7672.56
7672.68
7672.83
7672.9
7673.11
7673.47
7673.76
7674.08
7674.43
7674.79
7675.18
7675.6
7676.03
7676.47
7676.92
7677.39
7677.87
7678.36
7678.86
7679.35
7679.86
7680.3
7680.86
7681.55
7682.18
7682.82
7683.49
7684.15
7684.84
7685.54
7686.24
7686.95
7687.66
7688.38
7689.1
7689.82
7690.54
7691.27
7692
7692.72
7693.45
7694.18
7694.91
7695.64
7696.36
7697.09
7697.82
7698.54
7699.27
7699.99
7700.71
7701.43
7702.15
7702.86
7703.57
7704.27
7704.97
7705.66
7706.35
7707.03
7707.7
7708.37
7709.03
7709.68
7710.33
7710.97
7711.6
7712.22
7712.84
7713.45
7714.05
7714.64
7715.22
7715.8
7716.37
7716.93
7717.48
7718.02
7718.56
7719.09
7719.61
7720.12
7720.63
7721.12
7721.61
7722.09
7722.56
7723.03
7723.48
7723.93
7724.37
7724.8
7725.23
7725.64
7726.05
7726.45
7726.85
7727.23
7727.61
7727.98
7728.34
7728.7
7729.04
7729.39
7729.72
7730.05
7730.36
7730.68
7730.98
7731.28
7731.57
7731.86
7732.14
7732.41
7732.68
7732.94
7733.19
7733.44
7733.68
7733.92
7734.15
7734.38
7734.6
7734.81
7735.02
7735.23
7735.43
7735.62
7735.81
7736
7736.18
7736.35
7736.53
7736.69
7736.86
7737.02
7737.17
7737.32
7737.47
7737.62
7737.76
7737.89
7738.03
7738.16
7738.28
7738.41
7738.53
7738.64
7738.76
7738.87
7738.98
7739.08
7739.18
7739.28
7739.38
7739.47
7739.57
7739.65
7739.74
7739.83
7739.91
7739.99
7740.06
7740.14
7740.21
7740.28
7740.35
7740.41
7740.48
7740.54
7740.6
7740.66
7740.71
7740.77
7740.82
7740.87
7740.92
7740.97
7741.02
7741.06
7741.11
7741.15
7741.19
7741.23
7741.27
7741.31
7741.34
7741.38
7741.41
7741.44
7741.47
7741.51
7741.53
7741.56
7741.59
7741.62
7741.64
7741.67
7741.69
7741.72
7741.74
7741.76
7741.78
7741.8
7741.82
7741.84
7741.86
7741.88
7741.9
7741.91
7741.93
7741.95
7741.96
7741.98
7741.99
7742
7742.02
7742.03
7742.04
7742.05
7742.06
7742.07
7742.08
7742.09
7742.1
7742.11
7742.12
7742.13
7742.14
7742.14
7742.15
7742.16
7742.16
7742.17
7742.18
7742.18
7742.19
7742.19
7742.2
7742.2
7742.21
7742.21
7742.21
7742.22
7742.22
7742.22
7742.23
7742.23
7742.23
7742.23
7742.23
7742.24
7742.24
7742.24
7742.24
7742.24
7742.24
7742.24
7742.24
7742.25
7742.25
7742.25
7742.25
7742.25
7742.25
7742.25
7742.25
7742.25
7742.25
7742.25
7742.25
7742.25
7742.24
7742.24
7742.24
7742.24
7742.24
7742.24
7742.24
7742.24
7742.24
7742.24
7742.24
7742.23
7742.23
7742.23
7742.23
7742.23
7742.23
7742.23
7742.22
7742.22
7742.22
7742.22
7742.22
7742.22
7742.21
7742.21
7742.21
7742.21
7742.21
7742.21
7742.2
7742.2
7742.2
7742.2
7742.2
7742.2
7742.19
7742.19
7742.19
7742.19
7742.19
7742.19
7742.18
7742.18
7742.18
7742.18
7742.18
7742.18
7742.17
7742.17
7742.17
7742.17
7742.17
7742.17
7742.16
7742.16
7742.16
7742.16
7742.16
7742.16
7742.15
7742.15
7742.15
7742.15
7742.15
7742.15
7742.15
7742.14
7742.14
7742.14
7742.14
7742.14
7742.14
7742.14
7742.14
7742.13
7742.13
7742.13
7742.13
7742.13
7742.13
7742.13
7742.13
7742.12
7742.12
7742.12
7742.12
7742.12
7742.12
7742.12
7742.12
7742.12
7742.11
7742.11
7742.11
7742.11
7742.11
7742.11
7742.11
7742.11
7742.11
7742.11
7742.11
7742.11
7742.11
7742.1
7742.1
7742.1
7742.1
7742.1
7742.1
7742.1
7742.1
7742.1
7742.1
7742.1
7742.1
7742.1
7742.1
7742.1
7742.1
7742.1
7742.1
7742.1
7742.09
7742.09
7742.09
7742.09
7742.09
7742.09
7742.09
7742.09
7742.09
7742.09
7742.09
7742.09
7742.09
7742.09
7742.09
7742.09
7742.09
7742.09
7742.09
7742.09
7742.09
7742.09
7742.09
7742.09
7742.09
7742.09
7742.09
7742.09
7742.08
7742.08
7742.08
7742.08
7742.08
7742.08
7742.08
7742.08
7742.08
7742.08
7742.08
7742.08
7742.08
7742.08
7742.08
7742.08
7742.08
7742.08
7742.08
7742.08
7742.08
7742.08
7742.08
7742.08
7742.08
7742.08
7742.08
7742.08
7742.08
7742.08
7742.08
7543.06
7542.43
7541.93
7541.33
7540.68
7539.99
7539.25
7538.49
7537.68
7536.85
7535.98
7535.08
7534.16
7533.2
7532.22
7531.22
7530.19
7529.15
7528.08
7527
7525.9
7524.79
7523.67
7522.53
7521.39
7520.24
7519.08
7517.91
7516.75
7515.58
7514.41
7513.25
7512.09
7510.94
7509.79
7508.64
7507.51
7506.38
7505.27
7504.17
7503.07
7502
7500.93
7499.89
7498.86
7497.85
7496.85
7495.88
7494.92
7493.99
7493.08
7492.19
7491.32
7490.48
7489.66
7488.86
7488.09
7487.34
7486.61
7485.91
7485.24
7484.59
7483.96
7483.36
7482.79
7482.24
7481.72
7481.23
7480.76
7480.32
7479.9
7479.51
7479.15
7478.81
7478.5
7478.21
7477.94
7477.68
7477.43
7477.19
7476.96
7476.65
7476.49
7476.39
7476.3
7476.14
7476.04
7475.96
7475.91
7475.92
7475.95
7476
7476.06
7476.15
7476.25
7476.38
7476.52
7476.68
7476.85
7477.04
7477.28
7477.45
7477.76
7478.21
7478.59
7478.99
7479.4
7479.82
7480.26
7480.72
7481.19
7481.68
7482.18
7482.69
7483.2
7483.73
7484.26
7484.81
7485.38
7485.89
7486.53
7487.28
7487.95
7488.64
7489.34
7490.04
7490.75
7491.46
7492.18
7492.9
7493.63
7494.35
7495.08
7495.81
7496.54
7497.27
7498
7498.72
7499.45
7500.18
7500.91
7501.64
7502.37
7503.09
7503.82
7504.54
7505.26
7505.97
7506.68
7507.39
7508.1
7508.79
7509.49
7510.17
7510.86
7511.53
7512.2
7512.86
7513.51
7514.16
7514.79
7515.42
7516.05
7516.66
7517.27
7517.87
7518.46
7519.05
7519.62
7520.19
7520.75
7521.31
7521.85
7522.39
7522.92
7523.44
7523.95
7524.45
7524.95
7525.44
7525.92
7526.39
7526.85
7527.31
7527.76
7528.2
7528.63
7529.05
7529.47
7529.88
7530.28
7530.67
7531.05
7531.43
7531.8
7532.16
7532.52
7532.87
7533.21
7533.54
7533.87
7534.18
7534.5
7534.8
7535.1
7535.39
7535.68
7535.95
7536.23
7536.49
7536.75
7537.01
7537.26
7537.5
7537.73
7537.96
7538.19
7538.41
7538.62
7538.83
7539.04
7539.24
7539.43
7539.62
7539.81
7539.99
7540.16
7540.34
7540.5
7540.67
7540.83
7540.98
7541.13
7541.28
7541.43
7541.57
7541.7
7541.84
7541.97
7542.09
7542.22
7542.34
7542.45
7542.57
7542.68
7542.78
7542.89
7542.99
7543.09
7543.19
7543.28
7543.37
7543.46
7543.55
7543.63
7543.71
7543.79
7543.87
7543.94
7544.01
7544.08
7544.15
7544.22
7544.28
7544.34
7544.4
7544.46
7544.52
7544.57
7544.63
7544.68
7544.73
7544.78
7544.82
7544.87
7544.91
7544.95
7544.99
7545.03
7545.07
7545.11
7545.14
7545.18
7545.21
7545.25
7545.28
7545.31
7545.34
7545.37
7545.39
7545.42
7545.45
7545.47
7545.5
7545.52
7545.54
7545.56
7545.58
7545.61
7545.63
7545.64
7545.66
7545.68
7545.7
7545.72
7545.73
7545.75
7545.76
7545.78
7545.79
7545.8
7545.82
7545.83
7545.84
7545.85
7545.86
7545.87
7545.88
7545.89
7545.9
7545.91
7545.92
7545.93
7545.94
7545.94
7545.95
7545.96
7545.96
7545.97
7545.98
7545.98
7545.99
7545.99
7546
7546
7546
7546.01
7546.01
7546.02
7546.02
7546.02
7546.02
7546.03
7546.03
7546.03
7546.03
7546.04
7546.04
7546.04
7546.04
7546.04
7546.04
7546.04
7546.04
7546.05
7546.05
7546.05
7546.05
7546.05
7546.05
7546.05
7546.05
7546.05
7546.05
7546.05
7546.05
7546.04
7546.04
7546.04
7546.04
7546.04
7546.04
7546.04
7546.04
7546.04
7546.04
7546.04
7546.04
7546.03
7546.03
7546.03
7546.03
7546.03
7546.03
7546.03
7546.02
7546.02
7546.02
7546.02
7546.02
7546.02
7546.01
7546.01
7546.01
7546.01
7546.01
7546.01
7546
7546
7546
7546
7546
7546
7545.99
7545.99
7545.99
7545.99
7545.99
7545.99
7545.98
7545.98
7545.98
7545.98
7545.98
7545.97
7545.97
7545.97
7545.97
7545.97
7545.97
7545.97
7545.96
7545.96
7545.96
7545.96
7545.96
7545.96
7545.95
7545.95
7545.95
7545.95
7545.95
7545.95
7545.95
7545.94
7545.94
7545.94
7545.94
7545.94
7545.94
7545.94
7545.94
7545.93
7545.93
7545.93
7545.93
7545.93
7545.93
7545.93
7545.93
7545.92
7545.92
7545.92
7545.92
7545.92
7545.92
7545.92
7545.92
7545.92
7545.91
7545.91
7545.91
7545.91
7545.91
7545.91
7545.91
7545.91
7545.91
7545.91
7545.91
7545.91
7545.91
7545.91
7545.9
7545.9
7545.9
7545.9
7545.9
7545.9
7545.9
7545.9
7545.9
7545.9
7545.9
7545.9
7545.9
7545.9
7545.9
7545.9
7545.9
7545.9
7545.9
7545.89
7545.89
7545.89
7545.89
7545.89
7545.89
7545.89
7545.89
7545.89
7545.89
7545.89
7545.89
7545.89
7545.89
7545.89
7545.89
7545.89
7545.89
7545.89
7545.89
7545.89
7545.89
7545.89
7545.89
7545.89
7545.89
7545.88
7545.88
7545.88
7545.88
7545.88
7545.88
7545.88
7545.88
7545.88
7545.88
7545.88
7545.88
7545.88
7545.88
7545.88
7545.88
7545.88
7545.88
7545.88
7545.88
7545.88
7545.88
7545.88
7545.88
7545.88
7545.88
7545.88
7545.88
7545.88
7545.88
7545.88
7545.88
7346.98
7346.33
7345.84
7345.24
7344.59
7343.91
7343.18
7342.42
7341.62
7340.79
7339.93
7339.03
7338.11
7337.16
7336.18
7335.18
7334.16
7333.12
7332.06
7330.98
7329.88
7328.77
7327.65
7326.52
7325.37
7324.22
7323.06
7321.9
7320.73
7319.56
7318.39
7317.22
7316.05
7314.89
7313.73
7312.58
7311.43
7310.29
7309.17
7308.06
7306.95
7305.86
7304.79
7303.73
7302.69
7301.66
7300.66
7299.67
7298.71
7297.77
7296.85
7295.95
7295.08
7294.23
7293.41
7292.61
7291.83
7291.08
7290.35
7289.64
7288.96
7288.31
7287.68
7287.08
7286.5
7285.95
7285.43
7284.94
7284.47
7284.02
7283.6
7283.21
7282.84
7282.5
7282.18
7281.88
7281.6
7281.34
7281.1
7280.88
7280.66
7280.46
7280.27
7280.08
7279.81
7279.72
7279.72
7279.74
7279.72
7279.69
7279.69
7279.71
7279.79
7279.89
7280.01
7280.14
7280.29
7280.46
7280.65
7280.88
7281.13
7281.4
7281.68
7282
7282.24
7282.63
7283.14
7283.59
7284.04
7284.5
7284.97
7285.46
7285.96
7286.48
7287.01
7287.55
7288.1
7288.67
7289.27
7289.86
7290.47
7291.1
7291.66
7292.34
7293.12
7293.82
7294.54
7295.26
7295.97
7296.69
7297.42
7298.15
7298.88
7299.61
7300.35
7301.08
7301.81
7302.54
7303.27
7304
7304.73
7305.46
7306.19
7306.92
7307.65
7308.37
7309.09
7309.81
7310.52
7311.23
7311.93
7312.63
7313.33
7314.01
7314.69
7315.37
7316.04
7316.7
7317.35
7318
7318.64
7319.27
7319.89
7320.51
7321.12
7321.72
7322.31
7322.89
7323.47
7324.04
7324.6
7325.15
7325.7
7326.23
7326.76
7327.28
7327.79
7328.3
7328.79
7329.28
7329.76
7330.23
7330.7
7331.15
7331.6
7332.04
7332.47
7332.89
7333.31
7333.72
7334.12
7334.51
7334.89
7335.27
7335.64
7336
7336.36
7336.7
7337.04
7337.38
7337.7
7338.02
7338.33
7338.64
7338.93
7339.23
7339.51
7339.79
7340.06
7340.32
7340.58
7340.84
7341.09
7341.33
7341.56
7341.79
7342.02
7342.24
7342.45
7342.66
7342.86
7343.06
7343.26
7343.45
7343.63
7343.81
7343.99
7344.16
7344.33
7344.49
7344.65
7344.8
7344.95
7345.1
7345.25
7345.39
7345.52
7345.65
7345.78
7345.91
7346.03
7346.15
7346.27
7346.38
7346.49
7346.6
7346.7
7346.81
7346.91
7347
7347.1
7347.19
7347.27
7347.36
7347.44
7347.53
7347.6
7347.68
7347.75
7347.83
7347.9
7347.96
7348.03
7348.09
7348.15
7348.21
7348.27
7348.33
7348.38
7348.43
7348.49
7348.53
7348.58
7348.63
7348.67
7348.72
7348.76
7348.8
7348.84
7348.88
7348.91
7348.95
7348.98
7349.02
7349.05
7349.08
7349.11
7349.14
7349.17
7349.2
7349.22
7349.25
7349.28
7349.3
7349.32
7349.35
7349.37
7349.39
7349.41
7349.43
7349.45
7349.47
7349.48
7349.5
7349.52
7349.53
7349.55
7349.56
7349.58
7349.59
7349.61
7349.62
7349.63
7349.64
7349.65
7349.66
7349.68
7349.69
7349.69
7349.7
7349.71
7349.72
7349.73
7349.74
7349.74
7349.75
7349.76
7349.76
7349.77
7349.78
7349.78
7349.79
7349.79
7349.8
7349.8
7349.81
7349.81
7349.81
7349.82
7349.82
7349.82
7349.82
7349.83
7349.83
7349.83
7349.83
7349.84
7349.84
7349.84
7349.84
7349.84
7349.84
7349.84
7349.84
7349.84
7349.85
7349.85
7349.85
7349.85
7349.85
7349.85
7349.85
7349.85
7349.85
7349.85
7349.85
7349.84
7349.84
7349.84
7349.84
7349.84
7349.84
7349.84
7349.84
7349.84
7349.84
7349.84
7349.83
7349.83
7349.83
7349.83
7349.83
7349.83
7349.83
7349.83
7349.82
7349.82
7349.82
7349.82
7349.82
7349.82
7349.81
7349.81
7349.81
7349.81
7349.81
7349.81
7349.8
7349.8
7349.8
7349.8
7349.8
7349.8
7349.79
7349.79
7349.79
7349.79
7349.79
7349.78
7349.78
7349.78
7349.78
7349.78
7349.78
7349.77
7349.77
7349.77
7349.77
7349.77
7349.77
7349.76
7349.76
7349.76
7349.76
7349.76
7349.76
7349.76
7349.75
7349.75
7349.75
7349.75
7349.75
7349.75
7349.75
7349.74
7349.74
7349.74
7349.74
7349.74
7349.74
7349.74
7349.73
7349.73
7349.73
7349.73
7349.73
7349.73
7349.73
7349.73
7349.73
7349.72
7349.72
7349.72
7349.72
7349.72
7349.72
7349.72
7349.72
7349.72
7349.72
7349.71
7349.71
7349.71
7349.71
7349.71
7349.71
7349.71
7349.71
7349.71
7349.71
7349.71
7349.71
7349.71
7349.7
7349.7
7349.7
7349.7
7349.7
7349.7
7349.7
7349.7
7349.7
7349.7
7349.7
7349.7
7349.7
7349.7
7349.7
7349.7
7349.7
7349.7
7349.7
7349.69
7349.69
7349.69
7349.69
7349.69
7349.69
7349.69
7349.69
7349.69
7349.69
7349.69
7349.69
7349.69
7349.69
7349.69
7349.69
7349.69
7349.69
7349.69
7349.69
7349.69
7349.69
7349.69
7349.69
7349.69
7349.68
7349.68
7349.68
7349.68
7349.68
7349.68
7349.68
7349.68
7349.68
7349.68
7349.68
7349.68
7349.68
7349.68
7349.68
7349.68
7349.68
7349.68
7349.68
7349.68
7349.68
7349.68
7349.68
7349.68
7349.68
7349.68
7349.68
7349.68
7349.68
7349.68
7349.68
7349.68
7349.68
7151.09
7150.42
7149.93
7149.31
7148.65
7147.96
7147.22
7146.45
7145.65
7144.81
7143.94
7143.04
7142.11
7141.16
7140.18
7139.17
7138.15
7137.11
7136.04
7134.96
7133.86
7132.75
7131.62
7130.49
7129.34
7128.18
7127.02
7125.85
7124.67
7123.5
7122.32
7121.14
7119.96
7118.78
7117.61
7116.44
7115.29
7114.14
7113
7111.87
7110.75
7109.65
7108.57
7107.49
7106.44
7105.41
7104.4
7103.41
7102.44
7101.49
7100.56
7099.66
7098.78
7097.92
7097.09
7096.28
7095.5
7094.74
7094.01
7093.3
7092.62
7091.96
7091.33
7090.73
7090.15
7089.59
7089.07
7088.57
7088.1
7087.65
7087.23
7086.83
7086.46
7086.11
7085.79
7085.49
7085.22
7084.96
7084.72
7084.49
7084.29
7084.11
7083.95
7083.8
7083.66
7083.53
7083.43
7083.34
7083.16
7083.25
7083.35
7083.45
7083.47
7083.56
7083.66
7083.83
7084
7084.19
7084.4
7084.63
7084.88
7085.16
7085.47
7085.81
7086.16
7086.53
7086.91
7087.31
7087.65
7088.1
7088.68
7089.19
7089.71
7090.24
7090.77
7091.33
7091.9
7092.48
7093.08
7093.68
7094.31
7094.95
7095.6
7096.25
7096.91
7097.51
7098.21
7099.01
7099.74
7100.47
7101.2
7101.93
7102.66
7103.4
7104.14
7104.87
7105.61
7106.34
7107.08
7107.81
7108.55
7109.28
7110.01
7110.74
7111.47
7112.19
7112.92
7113.64
7114.35
7115.06
7115.77
7116.47
7117.16
7117.85
7118.54
7119.21
7119.88
7120.54
7121.2
7121.85
7122.49
7123.12
7123.74
7124.36
7124.97
7125.57
7126.16
7126.75
7127.32
7127.89
7128.45
7129.01
7129.55
7130.09
7130.62
7131.14
7131.65
7132.15
7132.65
7133.14
7133.62
7134.09
7134.55
7135.01
7135.46
7135.9
7136.33
7136.75
7137.16
7137.57
7137.97
7138.36
7138.75
7139.12
7139.49
7139.86
7140.21
7140.56
7140.9
7141.23
7141.55
7141.87
7142.18
7142.48
7142.78
7143.07
7143.36
7143.63
7143.91
7144.17
7144.43
7144.68
7144.93
7145.17
7145.4
7145.63
7145.86
7146.08
7146.29
7146.5
7146.7
7146.9
7147.09
7147.28
7147.47
7147.65
7147.82
7147.99
7148.16
7148.32
7148.48
7148.63
7148.78
7148.93
7149.07
7149.21
7149.35
7149.48
7149.61
7149.74
7149.86
7149.98
7150.09
7150.21
7150.32
7150.42
7150.53
7150.63
7150.73
7150.82
7150.92
7151.01
7151.09
7151.18
7151.26
7151.34
7151.42
7151.5
7151.57
7151.64
7151.71
7151.78
7151.84
7151.91
7151.97
7152.03
7152.09
7152.14
7152.2
7152.25
7152.3
7152.35
7152.39
7152.44
7152.49
7152.53
7152.57
7152.61
7152.65
7152.69
7152.72
7152.76
7152.79
7152.83
7152.86
7152.89
7152.92
7152.95
7152.98
7153.01
7153.03
7153.06
7153.08
7153.11
7153.13
7153.15
7153.17
7153.19
7153.21
7153.23
7153.25
7153.27
7153.29
7153.31
7153.32
7153.34
7153.35
7153.37
7153.38
7153.4
7153.41
7153.42
7153.43
7153.45
7153.46
7153.47
7153.48
7153.49
7153.5
7153.51
7153.52
7153.52
7153.53
7153.54
7153.55
7153.55
7153.56
7153.57
7153.57
7153.58
7153.58
7153.59
7153.59
7153.6
7153.6
7153.61
7153.61
7153.61
7153.62
7153.62
7153.62
7153.63
7153.63
7153.63
7153.63
7153.63
7153.64
7153.64
7153.64
7153.64
7153.64
7153.64
7153.64
7153.64
7153.64
7153.65
7153.65
7153.65
7153.65
7153.65
7153.65
7153.65
7153.65
7153.65
7153.65
7153.64
7153.64
7153.64
7153.64
7153.64
7153.64
7153.64
7153.64
7153.64
7153.64
7153.64
7153.64
7153.63
7153.63
7153.63
7153.63
7153.63
7153.63
7153.63
7153.62
7153.62
7153.62
7153.62
7153.62
7153.62
7153.62
7153.61
7153.61
7153.61
7153.61
7153.61
7153.61
7153.6
7153.6
7153.6
7153.6
7153.6
7153.59
7153.59
7153.59
7153.59
7153.59
7153.59
7153.58
7153.58
7153.58
7153.58
7153.58
7153.58
7153.57
7153.57
7153.57
7153.57
7153.57
7153.57
7153.56
7153.56
7153.56
7153.56
7153.56
7153.56
7153.56
7153.55
7153.55
7153.55
7153.55
7153.55
7153.55
7153.55
7153.54
7153.54
7153.54
7153.54
7153.54
7153.54
7153.54
7153.53
7153.53
7153.53
7153.53
7153.53
7153.53
7153.53
7153.53
7153.53
7153.52
7153.52
7153.52
7153.52
7153.52
7153.52
7153.52
7153.52
7153.52
7153.51
7153.51
7153.51
7153.51
7153.51
7153.51
7153.51
7153.51
7153.51
7153.51
7153.51
7153.51
7153.51
7153.51
7153.51
7153.5
7153.5
7153.5
7153.5
7153.5
7153.5
7153.5
7153.5
7153.5
7153.5
7153.5
7153.5
7153.5
7153.5
7153.5
7153.5
7153.5
7153.5
7153.49
7153.49
7153.49
7153.49
7153.49
7153.49
7153.49
7153.49
7153.49
7153.49
7153.49
7153.49
7153.49
7153.49
7153.49
7153.49
7153.49
7153.49
7153.49
7153.49
7153.49
7153.49
7153.49
7153.49
7153.48
7153.48
7153.48
7153.48
7153.48
7153.48
7153.48
7153.48
7153.48
7153.48
7153.48
7153.48
7153.48
7153.48
7153.48
7153.48
7153.48
7153.48
7153.48
7153.48
7153.48
7153.48
7153.48
7153.48
7153.48
7153.48
7153.48
7153.48
7153.48
7153.48
7153.48
7153.48
7153.48
7153.48
6955.24
6954.54
6954.06
6953.44
6952.77
6952.06
6951.32
6950.53
6949.72
6948.87
6947.99
6947.08
6946.14
6945.18
6944.19
6943.18
6942.14
6941.09
6940.01
6938.92
6937.81
6936.69
6935.55
6934.4
6933.24
6932.07
6930.9
6929.72
6928.53
6927.34
6926.15
6924.95
6923.76
6922.56
6921.37
6920.19
6919.02
6917.85
6916.7
6915.56
6914.43
6913.31
6912.22
6911.14
6910.08
6909.04
6908.02
6907.02
6906.04
6905.08
6904.15
6903.24
6902.36
6901.49
6900.66
6899.85
6899.06
6898.31
6897.57
6896.86
6896.18
6895.52
6894.89
6894.29
6893.71
6893.15
6892.63
6892.12
6891.65
6891.2
6890.78
6890.39
6890.02
6889.67
6889.35
6889.05
6888.78
6888.53
6888.29
6888.08
6887.89
6887.71
6887.55
6887.41
6887.3
6887.21
6887.15
6887.09
6887.04
6887
6886.94
6886.82
6887.01
6887.2
6887.38
6887.48
6887.64
6887.81
6888.06
6888.31
6888.59
6888.88
6889.19
6889.52
6889.88
6890.26
6890.67
6891.09
6891.51
6891.95
6892.41
6892.8
6893.31
6893.94
6894.5
6895.07
6895.65
6896.24
6896.85
6897.47
6898.11
6898.75
6899.4
6900.06
6900.74
6901.42
6902.1
6902.79
6903.42
6904.14
6904.95
6905.69
6906.43
6907.17
6907.91
6908.65
6909.39
6910.13
6910.87
6911.61
6912.35
6913.09
6913.82
6914.56
6915.29
6916.02
6916.74
6917.47
6918.18
6918.9
6919.61
6920.31
6921.01
6921.7
6922.38
6923.06
6923.73
6924.4
6925.05
6925.7
6926.34
6926.98
6927.6
6928.22
6928.83
6929.43
6930.03
6930.61
6931.19
6931.76
6932.32
6932.87
6933.42
6933.96
6934.49
6935.01
6935.52
6936.02
6936.52
6937.01
6937.49
6937.96
6938.42
6938.88
6939.33
6939.77
6940.2
6940.62
6941.04
6941.44
6941.84
6942.23
6942.62
6942.99
6943.36
6943.72
6944.08
6944.42
6944.76
6945.09
6945.42
6945.73
6946.04
6946.35
6946.64
6946.93
6947.22
6947.49
6947.76
6948.03
6948.29
6948.54
6948.78
6949.02
6949.26
6949.49
6949.71
6949.93
6950.14
6950.35
6950.55
6950.75
6950.94
6951.13
6951.31
6951.49
6951.66
6951.83
6952
6952.16
6952.32
6952.47
6952.62
6952.77
6952.91
6953.05
6953.19
6953.32
6953.45
6953.57
6953.69
6953.81
6953.93
6954.04
6954.15
6954.25
6954.36
6954.46
6954.56
6954.65
6954.74
6954.83
6954.92
6955.01
6955.09
6955.17
6955.25
6955.32
6955.39
6955.46
6955.53
6955.6
6955.66
6955.73
6955.79
6955.85
6955.9
6955.96
6956.01
6956.06
6956.12
6956.16
6956.21
6956.26
6956.3
6956.34
6956.38
6956.42
6956.46
6956.5
6956.54
6956.57
6956.61
6956.64
6956.67
6956.7
6956.73
6956.76
6956.79
6956.82
6956.84
6956.87
6956.89
6956.92
6956.94
6956.96
6956.98
6957
6957.02
6957.04
6957.06
6957.08
6957.1
6957.11
6957.13
6957.14
6957.16
6957.17
6957.19
6957.2
6957.21
6957.23
6957.24
6957.25
6957.26
6957.27
6957.28
6957.29
6957.3
6957.31
6957.32
6957.33
6957.33
6957.34
6957.35
6957.36
6957.36
6957.37
6957.37
6957.38
6957.39
6957.39
6957.4
6957.4
6957.4
6957.41
6957.41
6957.41
6957.42
6957.42
6957.42
6957.43
6957.43
6957.43
6957.43
6957.44
6957.44
6957.44
6957.44
6957.44
6957.44
6957.44
6957.44
6957.44
6957.45
6957.45
6957.45
6957.45
6957.45
6957.45
6957.45
6957.45
6957.45
6957.45
6957.45
6957.44
6957.44
6957.44
6957.44
6957.44
6957.44
6957.44
6957.44
6957.44
6957.44
6957.44
6957.44
6957.43
6957.43
6957.43
6957.43
6957.43
6957.43
6957.43
6957.42
6957.42
6957.42
6957.42
6957.42
6957.42
6957.41
6957.41
6957.41
6957.41
6957.41
6957.41
6957.4
6957.4
6957.4
6957.4
6957.4
6957.4
6957.39
6957.39
6957.39
6957.39
6957.39
6957.39
6957.38
6957.38
6957.38
6957.38
6957.38
6957.38
6957.37
6957.37
6957.37
6957.37
6957.37
6957.37
6957.36
6957.36
6957.36
6957.36
6957.36
6957.36
6957.36
6957.35
6957.35
6957.35
6957.35
6957.35
6957.35
6957.35
6957.34
6957.34
6957.34
6957.34
6957.34
6957.34
6957.34
6957.33
6957.33
6957.33
6957.33
6957.33
6957.33
6957.33
6957.33
6957.33
6957.32
6957.32
6957.32
6957.32
6957.32
6957.32
6957.32
6957.32
6957.32
6957.32
6957.31
6957.31
6957.31
6957.31
6957.31
6957.31
6957.31
6957.31
6957.31
6957.31
6957.31
6957.31
6957.31
6957.31
6957.3
6957.3
6957.3
6957.3
6957.3
6957.3
6957.3
6957.3
6957.3
6957.3
6957.3
6957.3
6957.3
6957.3
6957.3
6957.3
6957.3
6957.3
6957.29
6957.29
6957.29
6957.29
6957.29
6957.29
6957.29
6957.29
6957.29
6957.29
6957.29
6957.29
6957.29
6957.29
6957.29
6957.29
6957.29
6957.29
6957.29
6957.29
6957.29
6957.29
6957.29
6957.28
6957.28
6957.28
6957.28
6957.28
6957.28
6957.28
6957.28
6957.28
6957.28
6957.28
6957.28
6957.28
6957.28
6957.28
6957.28
6957.28
6957.28
6957.28
6957.28
6957.28
6957.28
6957.28
6957.28
6957.28
6957.28
6957.28
6957.28
6957.28
6957.28
6957.28
6957.28
6957.28
6957.28
6957.28
6759.54
6758.8
6758.32
6757.68
6756.99
6756.26
6755.5
6754.7
6753.87
6753
6752.1
6751.18
6750.22
6749.24
6748.24
6747.21
6746.15
6745.08
6743.99
6742.87
6741.75
6740.6
6739.45
6738.28
6737.1
6735.91
6734.71
6733.51
6732.3
6731.09
6729.89
6728.67
6727.46
6726.25
6725.05
6723.85
6722.66
6721.48
6720.3
6719.15
6718
6716.88
6715.77
6714.68
6713.61
6712.56
6711.53
6710.52
6709.54
6708.57
6707.63
6706.72
6705.83
6704.96
6704.13
6703.31
6702.53
6701.77
6701.03
6700.32
6699.64
6698.98
6698.35
6697.75
6697.17
6696.62
6696.09
6695.59
6695.12
6694.68
6694.26
6693.87
6693.5
6693.16
6692.84
6692.55
6692.28
6692.03
6691.81
6691.61
6691.43
6691.27
6691.12
6691
6690.89
6690.81
6690.75
6690.7
6690.68
6690.68
6690.68
6690.69
6690.72
6690.72
6690.66
6690.96
6691.24
6691.51
6691.69
6691.92
6692.18
6692.51
6692.84
6693.19
6693.56
6693.95
6694.35
6694.77
6695.21
6695.67
6696.15
6696.64
6697.13
6697.65
6698.11
6698.67
6699.35
6699.96
6700.58
6701.21
6701.85
6702.5
6703.17
6703.83
6704.51
6705.19
6705.89
6706.59
6707.3
6708
6708.71
6709.37
6710.1
6710.92
6711.68
6712.43
6713.16
6713.91
6714.65
6715.39
6716.14
6716.88
6717.62
6718.36
6719.1
6719.83
6720.56
6721.29
6722.01
6722.73
6723.44
6724.15
6724.85
6725.54
6726.23
6726.91
6727.58
6728.25
6728.91
6729.56
6730.2
6730.84
6731.47
6732.09
6732.7
6733.3
6733.9
6734.48
6735.06
6735.64
6736.2
6736.75
6737.3
6737.84
6738.37
6738.89
6739.4
6739.91
6740.4
6740.89
6741.37
6741.85
6742.31
6742.76
6743.21
6743.65
6744.08
6744.51
6744.92
6745.33
6745.73
6746.12
6746.5
6746.88
6747.24
6747.6
6747.96
6748.3
6748.64
6748.97
6749.3
6749.61
6749.92
6750.22
6750.52
6750.81
6751.09
6751.37
6751.64
6751.9
6752.16
6752.41
6752.65
6752.89
6753.12
6753.35
6753.57
6753.79
6754
6754.21
6754.41
6754.61
6754.8
6754.99
6755.17
6755.35
6755.52
6755.69
6755.85
6756.01
6756.17
6756.32
6756.47
6756.62
6756.76
6756.9
6757.03
6757.16
6757.29
6757.41
6757.53
6757.65
6757.77
6757.88
6757.99
6758.09
6758.19
6758.29
6758.39
6758.49
6758.58
6758.67
6758.75
6758.84
6758.92
6759
6759.08
6759.15
6759.22
6759.29
6759.36
6759.43
6759.49
6759.55
6759.61
6759.67
6759.73
6759.78
6759.84
6759.89
6759.94
6759.98
6760.03
6760.08
6760.12
6760.16
6760.2
6760.24
6760.28
6760.32
6760.35
6760.39
6760.42
6760.46
6760.49
6760.52
6760.55
6760.57
6760.6
6760.63
6760.65
6760.68
6760.7
6760.73
6760.75
6760.77
6760.79
6760.81
6760.83
6760.85
6760.87
6760.89
6760.91
6760.92
6760.94
6760.95
6760.97
6760.98
6761
6761.01
6761.02
6761.03
6761.05
6761.06
6761.07
6761.08
6761.09
6761.1
6761.11
6761.12
6761.12
6761.13
6761.14
6761.15
6761.15
6761.16
6761.17
6761.17
6761.18
6761.18
6761.19
6761.19
6761.2
6761.2
6761.21
6761.21
6761.21
6761.22
6761.22
6761.22
6761.23
6761.23
6761.23
6761.23
6761.23
6761.24
6761.24
6761.24
6761.24
6761.24
6761.24
6761.24
6761.24
6761.25
6761.25
6761.25
6761.25
6761.25
6761.25
6761.25
6761.25
6761.25
6761.25
6761.25
6761.25
6761.25
6761.24
6761.24
6761.24
6761.24
6761.24
6761.24
6761.24
6761.24
6761.24
6761.24
6761.24
6761.23
6761.23
6761.23
6761.23
6761.23
6761.23
6761.23
6761.22
6761.22
6761.22
6761.22
6761.22
6761.22
6761.21
6761.21
6761.21
6761.21
6761.21
6761.21
6761.2
6761.2
6761.2
6761.2
6761.2
6761.2
6761.19
6761.19
6761.19
6761.19
6761.19
6761.19
6761.18
6761.18
6761.18
6761.18
6761.18
6761.18
6761.17
6761.17
6761.17
6761.17
6761.17
6761.17
6761.16
6761.16
6761.16
6761.16
6761.16
6761.16
6761.15
6761.15
6761.15
6761.15
6761.15
6761.15
6761.15
6761.14
6761.14
6761.14
6761.14
6761.14
6761.14
6761.14
6761.14
6761.13
6761.13
6761.13
6761.13
6761.13
6761.13
6761.13
6761.13
6761.13
6761.12
6761.12
6761.12
6761.12
6761.12
6761.12
6761.12
6761.12
6761.12
6761.12
6761.11
6761.11
6761.11
6761.11
6761.11
6761.11
6761.11
6761.11
6761.11
6761.11
6761.11
6761.11
6761.11
6761.11
6761.11
6761.1
6761.1
6761.1
6761.1
6761.1
6761.1
6761.1
6761.1
6761.1
6761.1
6761.1
6761.1
6761.1
6761.1
6761.1
6761.1
6761.1
6761.09
6761.09
6761.09
6761.09
6761.09
6761.09
6761.09
6761.09
6761.09
6761.09
6761.09
6761.09
6761.09
6761.09
6761.09
6761.09
6761.09
6761.09
6761.09
6761.09
6761.09
6761.09
6761.09
6761.08
6761.08
6761.08
6761.08
6761.08
6761.08
6761.08
6761.08
6761.08
6761.08
6761.08
6761.08
6761.08
6761.08
6761.08
6761.08
6761.08
6761.08
6761.08
6761.08
6761.08
6761.08
6761.08
6761.08
6761.08
6761.08
6761.08
6761.08
6761.08
6761.08
6761.08
6761.08
6761.08
6761.08
6761.07
6563.97
6563.16
6562.71
6562.04
6561.33
6560.58
6559.79
6558.97
6558.12
6557.23
6556.31
6555.36
6554.39
6553.38
6552.35
6551.3
6550.22
6549.12
6548
6546.86
6545.71
6544.54
6543.36
6542.16
6540.96
6539.75
6538.52
6537.3
6536.07
6534.84
6533.61
6532.38
6531.15
6529.93
6528.71
6527.49
6526.28
6525.09
6523.9
6522.73
6521.57
6520.43
6519.3
6518.2
6517.11
6516.05
6515.01
6513.99
6512.99
6512.02
6511.07
6510.15
6509.25
6508.38
6507.53
6506.71
6505.92
6505.16
6504.42
6503.71
6503.03
6502.37
6501.74
6501.13
6500.55
6500
6499.48
6498.98
6498.51
6498.07
6497.66
6497.27
6496.91
6496.57
6496.26
6495.98
6495.72
6495.48
6495.27
6495.08
6494.91
6494.75
6494.62
6494.51
6494.43
6494.36
6494.31
6494.27
6494.26
6494.27
6494.29
6494.34
6494.41
6494.48
6494.56
6494.66
6494.71
6494.72
6495.13
6495.49
6495.84
6496.1
6496.42
6496.75
6497.16
6497.56
6497.99
6498.42
6498.87
6499.34
6499.82
6500.31
6500.83
6501.37
6501.92
6502.48
6503.05
6503.56
6504.18
6504.9
6505.56
6506.22
6506.89
6507.57
6508.25
6508.95
6509.65
6510.36
6511.07
6511.79
6512.52
6513.24
6513.98
6514.71
6515.43
6516.1
6516.85
6517.66
6518.42
6519.17
6519.92
6520.67
6521.42
6522.16
6522.91
6523.65
6524.38
6525.11
6525.84
6526.56
6527.27
6527.98
6528.69
6529.39
6530.08
6530.76
6531.44
6532.11
6532.77
6533.42
6534.07
6534.71
6535.34
6535.96
6536.58
6537.18
6537.78
6538.37
6538.95
6539.52
6540.09
6540.64
6541.19
6541.73
6542.26
6542.78
6543.3
6543.8
6544.3
6544.79
6545.27
6545.74
6546.21
6546.66
6547.11
6547.55
6547.98
6548.4
6548.82
6549.23
6549.62
6550.01
6550.4
6550.77
6551.14
6551.5
6551.85
6552.2
6552.53
6552.86
6553.19
6553.5
6553.81
6554.11
6554.41
6554.7
6554.98
6555.25
6555.52
6555.78
6556.04
6556.29
6556.53
6556.77
6557
6557.23
6557.45
6557.66
6557.88
6558.08
6558.28
6558.48
6558.67
6558.85
6559.03
6559.21
6559.38
6559.55
6559.72
6559.88
6560.03
6560.18
6560.33
6560.47
6560.62
6560.75
6560.89
6561.01
6561.14
6561.26
6561.38
6561.5
6561.61
6561.73
6561.83
6561.94
6562.04
6562.14
6562.23
6562.33
6562.42
6562.51
6562.59
6562.68
6562.76
6562.83
6562.91
6562.98
6563.06
6563.13
6563.19
6563.26
6563.32
6563.38
6563.44
6563.5
6563.56
6563.61
6563.66
6563.71
6563.76
6563.81
6563.86
6563.9
6563.94
6563.99
6564.03
6564.06
6564.1
6564.14
6564.17
6564.21
6564.24
6564.27
6564.3
6564.33
6564.36
6564.39
6564.42
6564.45
6564.47
6564.5
6564.52
6564.54
6564.56
6564.59
6564.61
6564.63
6564.65
6564.66
6564.68
6564.7
6564.72
6564.73
6564.75
6564.76
6564.78
6564.79
6564.81
6564.82
6564.83
6564.84
6564.85
6564.86
6564.88
6564.89
6564.9
6564.9
6564.91
6564.92
6564.93
6564.94
6564.95
6564.95
6564.96
6564.97
6564.97
6564.98
6564.98
6564.99
6564.99
6565
6565
6565.01
6565.01
6565.01
6565.02
6565.02
6565.02
6565.03
6565.03
6565.03
6565.03
6565.03
6565.04
6565.04
6565.04
6565.04
6565.04
6565.04
6565.04
6565.05
6565.05
6565.05
6565.05
6565.05
6565.05
6565.05
6565.05
6565.05
6565.05
6565.05
6565.05
6565.05
6565.05
6565.05
6565.04
6565.04
6565.04
6565.04
6565.04
6565.04
6565.04
6565.04
6565.04
6565.04
6565.04
6565.03
6565.03
6565.03
6565.03
6565.03
6565.03
6565.03
6565.02
6565.02
6565.02
6565.02
6565.02
6565.02
6565.01
6565.01
6565.01
6565.01
6565.01
6565.01
6565
6565
6565
6565