/*--------------------------------*- C++ -*----------------------------------*\
| =========                 |                                                 |
| \\      /  F ield         | OpenFOAM: The Open Source CFD Toolbox           |
|  \\    /   O peration     | Version:  v2006                                 |
|   \\  /    A nd           | Website:  www.openfoam.com                      |
|    \\/     M anipulation  |                                                 |
\*---------------------------------------------------------------------------*/
FoamFile
{
    version     2.0;
    format      ascii;
    class       volScalarField;
    location    "1.3";
    object      p_rgh;
}
// * * * * * * * * * * * * * * * * * * * * * * * * * * * * * * * * * * * * * //

dimensions      [1 -1 -2 0 0 0 0];


internalField   nonuniform List<scalar> 
33000
(
7837.28
7836.57
7836.09
7835.49
7834.85
7834.16
7833.44
7832.67
7831.88
7831.04
7830.17
7829.27
7828.35
7827.39
7826.41
7825.4
7824.38
7823.33
7822.26
7821.17
7820.06
7818.95
7817.83
7816.69
7815.54
7814.39
7813.23
7812.07
7810.9
7809.74
7808.57
7807.41
7806.26
7805.1
7803.95
7802.81
7801.69
7800.58
7799.47
7798.37
7797.28
7796.22
7795.17
7794.13
7793.11
7792.11
7791.12
7790.16
7789.21
7788.29
7787.38
7786.5
7785.63
7784.79
7783.97
7783.17
7782.4
7781.65
7780.92
7780.22
7779.55
7778.9
7778.27
7777.67
7777.1
7776.56
7776.04
7775.54
7775.07
7774.63
7774.21
7773.82
7773.46
7773.13
7772.82
7772.55
7772.31
7772.08
7771.74
7771.46
7771.28
7771.06
7770.85
7770.69
7770.53
7770.43
7770.35
7770.3
7770.25
7770.24
7770.25
7770.29
7770.36
7770.44
7770.54
7770.65
7770.77
7770.92
7770.99
7771.2
7771.56
7771.85
7772.17
7772.52
7772.88
7773.27
7773.69
7774.11
7774.56
7775.01
7775.48
7775.96
7776.45
7776.95
7777.44
7777.95
7778.39
7778.95
7779.64
7780.27
7780.91
7781.58
7782.24
7782.93
7783.63
7784.33
7785.04
7785.75
7786.47
7787.19
7787.91
7788.64
7789.36
7790.09
7790.82
7791.54
7792.27
7793
7793.73
7794.46
7795.18
7795.91
7796.64
7797.36
7798.08
7798.81
7799.52
7800.24
7800.95
7801.66
7802.36
7803.06
7803.75
7804.44
7805.12
7805.8
7806.46
7807.12
7807.78
7808.42
7809.06
7809.69
7810.32
7810.93
7811.54
7812.14
7812.73
7813.32
7813.89
7814.46
7815.02
7815.58
7816.12
7816.66
7817.19
7817.71
7818.22
7818.72
7819.22
7819.71
7820.19
7820.66
7821.12
7821.58
7822.03
7822.47
7822.9
7823.32
7823.74
7824.15
7824.55
7824.94
7825.33
7825.71
7826.08
7826.44
7826.8
7827.14
7827.48
7827.82
7828.14
7828.46
7828.78
7829.08
7829.38
7829.67
7829.96
7830.24
7830.51
7830.78
7831.04
7831.29
7831.54
7831.78
7832.02
7832.25
7832.47
7832.69
7832.91
7833.12
7833.32
7833.52
7833.72
7833.91
7834.1
7834.28
7834.45
7834.63
7834.79
7834.96
7835.12
7835.27
7835.42
7835.57
7835.72
7835.86
7835.99
7836.13
7836.26
7836.38
7836.51
7836.63
7836.74
7836.86
7836.97
7837.08
7837.18
7837.28
7837.38
7837.48
7837.57
7837.67
7837.75
7837.84
7837.93
7838.01
7838.09
7838.16
7838.24
7838.31
7838.38
7838.45
7838.51
7838.58
7838.64
7838.7
7838.76
7838.81
7838.87
7838.92
7838.97
7839.02
7839.07
7839.12
7839.16
7839.21
7839.25
7839.29
7839.33
7839.37
7839.41
7839.44
7839.48
7839.51
7839.54
7839.57
7839.61
7839.64
7839.66
7839.69
7839.72
7839.74
7839.77
7839.79
7839.82
7839.84
7839.86
7839.88
7839.9
7839.92
7839.94
7839.96
7839.98
7840
7840.01
7840.03
7840.05
7840.06
7840.08
7840.09
7840.1
7840.12
7840.13
7840.14
7840.15
7840.16
7840.17
7840.18
7840.19
7840.2
7840.21
7840.22
7840.23
7840.24
7840.24
7840.25
7840.26
7840.26
7840.27
7840.28
7840.28
7840.29
7840.29
7840.3
7840.3
7840.31
7840.31
7840.31
7840.32
7840.32
7840.32
7840.33
7840.33
7840.33
7840.33
7840.33
7840.34
7840.34
7840.34
7840.34
7840.34
7840.34
7840.34
7840.35
7840.35
7840.35
7840.35
7840.35
7840.35
7840.35
7840.35
7840.35
7840.35
7840.35
7840.35
7840.35
7840.35
7840.34
7840.34
7840.34
7840.34
7840.34
7840.34
7840.34
7840.34
7840.34
7840.34
7840.34
7840.33
7840.33
7840.33
7840.33
7840.33
7840.33
7840.33
7840.32
7840.32
7840.32
7840.32
7840.32
7840.32
7840.31
7840.31
7840.31
7840.31
7840.31
7840.31
7840.3
7840.3
7840.3
7840.3
7840.3
7840.3
7840.29
7840.29
7840.29
7840.29
7840.29
7840.29
7840.28
7840.28
7840.28
7840.28
7840.28
7840.28
7840.27
7840.27
7840.27
7840.27
7840.27
7840.27
7840.26
7840.26
7840.26
7840.26
7840.26
7840.26
7840.25
7840.25
7840.25
7840.25
7840.25
7840.25
7840.25
7840.24
7840.24
7840.24
7840.24
7840.24
7840.24
7840.24
7840.24
7840.23
7840.23
7840.23
7840.23
7840.23
7840.23
7840.23
7840.23
7840.22
7840.22
7840.22
7840.22
7840.22
7840.22
7840.22
7840.22
7840.22
7840.21
7840.21
7840.21
7840.21
7840.21
7840.21
7840.21
7840.21
7840.21
7840.21
7840.21
7840.21
7840.21
7840.2
7840.2
7840.2
7840.2
7840.2
7840.2
7840.2
7840.2
7840.2
7840.2
7840.2
7840.2
7840.2
7840.2
7840.2
7840.2
7840.2
7840.2
7840.2
7840.19
7840.19
7840.19
7840.19
7840.19
7840.19
7840.19
7840.19
7840.19
7840.19
7840.19
7840.19
7840.19
7840.19
7840.19
7840.19
7840.19
7840.19
7840.19
7840.19
7840.19
7840.19
7840.19
7840.19
7840.19
7840.19
7840.19
7840.19
7840.18
7840.18
7840.18
7840.18
7840.18
7840.18
7840.18
7840.18
7840.18
7840.18
7840.18
7840.18
7840.18
7840.18
7840.18
7840.18
7840.18
7840.18
7840.18
7840.18
7840.18
7840.18
7840.18
7840.18
7840.18
7840.18
7840.18
7840.18
7840.18
7840.18
7840.18
7837.73
7837.11
7836.56
7835.92
7835.21
7834.46
7833.69
7832.89
7832.06
7831.2
7830.31
7829.39
7828.44
7827.47
7826.48
7825.46
7824.43
7823.37
7822.3
7821.2
7820.08
7818.96
7817.84
7816.71
7815.54
7814.38
7813.22
7812.06
7810.9
7809.72
7808.55
7807.4
7806.25
7805.08
7803.93
7802.78
7801.67
7800.58
7799.42
7798.31
7797.22
7796.15
7795.13
7794.11
7793.07
7792.05
7791.09
7790.13
7789.17
7788.23
7787.32
7786.44
7785.58
7784.74
7783.9
7783.1
7782.33
7781.57
7780.83
7780.13
7779.46
7778.82
7778.18
7777.58
7777.01
7776.46
7775.95
7775.45
7774.98
7774.54
7774.12
7773.72
7773.36
7773.04
7772.71
7772.42
7772.16
7771.93
7771.68
7771.44
7771.17
7770.86
7770.7
7770.62
7770.53
7770.38
7770.3
7770.18
7770.13
7770.14
7770.17
7770.23
7770.3
7770.39
7770.49
7770.62
7770.77
7770.95
7771.1
7771.29
7771.54
7771.69
7772
7772.45
7772.84
7773.23
7773.64
7774.07
7774.5
7774.95
7775.43
7775.92
7776.42
7776.93
7777.45
7777.97
7778.5
7779.05
7779.63
7780.15
7780.78
7781.53
7782.21
7782.9
7783.59
7784.29
7785
7785.72
7786.44
7787.16
7787.89
7788.61
7789.34
7790.07
7790.8
7791.53
7792.25
7792.98
7793.71
7794.44
7795.17
7795.9
7796.62
7797.35
7798.07
7798.8
7799.52
7800.23
7800.95
7801.65
7802.36
7803.06
7803.75
7804.44
7805.12
7805.8
7806.46
7807.13
7807.78
7808.43
7809.07
7809.7
7810.32
7810.94
7811.55
7812.15
7812.74
7813.33
7813.9
7814.47
7815.03
7815.59
7816.13
7816.67
7817.2
7817.72
7818.23
7818.73
7819.23
7819.72
7820.2
7820.67
7821.14
7821.59
7822.04
7822.48
7822.91
7823.34
7823.75
7824.16
7824.56
7824.96
7825.34
7825.72
7826.09
7826.45
7826.81
7827.16
7827.5
7827.83
7828.16
7828.48
7828.79
7829.09
7829.39
7829.68
7829.97
7830.25
7830.52
7830.79
7831.05
7831.3
7831.55
7831.79
7832.03
7832.26
7832.49
7832.71
7832.92
7833.13
7833.34
7833.53
7833.73
7833.92
7834.1
7834.29
7834.46
7834.63
7834.8
7834.97
7835.13
7835.28
7835.43
7835.58
7835.72
7835.86
7836
7836.13
7836.26
7836.39
7836.51
7836.63
7836.75
7836.86
7836.98
7837.08
7837.19
7837.29
7837.39
7837.49
7837.58
7837.67
7837.76
7837.85
7837.93
7838.01
7838.09
7838.17
7838.24
7838.32
7838.39
7838.45
7838.52
7838.58
7838.65
7838.71
7838.76
7838.82
7838.87
7838.93
7838.98
7839.03
7839.08
7839.12
7839.17
7839.21
7839.25
7839.29
7839.33
7839.37
7839.41
7839.45
7839.48
7839.51
7839.55
7839.58
7839.61
7839.64
7839.67
7839.69
7839.72
7839.75
7839.77
7839.8
7839.82
7839.84
7839.87
7839.89
7839.91
7839.93
7839.95
7839.96
7839.98
7840
7840.02
7840.03
7840.05
7840.06
7840.08
7840.09
7840.11
7840.12
7840.13
7840.14
7840.15
7840.17
7840.18
7840.19
7840.2
7840.21
7840.21
7840.22
7840.23
7840.24
7840.25
7840.25
7840.26
7840.27
7840.27
7840.28
7840.28
7840.29
7840.29
7840.3
7840.3
7840.31
7840.31
7840.31
7840.32
7840.32
7840.32
7840.33
7840.33
7840.33
7840.33
7840.34
7840.34
7840.34
7840.34
7840.34
7840.34
7840.34
7840.35
7840.35
7840.35
7840.35
7840.35
7840.35
7840.35
7840.35
7840.35
7840.35
7840.35
7840.35
7840.35
7840.35
7840.35
7840.35
7840.34
7840.34
7840.34
7840.34
7840.34
7840.34
7840.34
7840.34
7840.34
7840.34
7840.33
7840.33
7840.33
7840.33
7840.33
7840.33
7840.33
7840.32
7840.32
7840.32
7840.32
7840.32
7840.32
7840.31
7840.31
7840.31
7840.31
7840.31
7840.31
7840.3
7840.3
7840.3
7840.3
7840.3
7840.3
7840.29
7840.29
7840.29
7840.29
7840.29
7840.29
7840.28
7840.28
7840.28
7840.28
7840.28
7840.28
7840.27
7840.27
7840.27
7840.27
7840.27
7840.27
7840.26
7840.26
7840.26
7840.26
7840.26
7840.26
7840.25
7840.25
7840.25
7840.25
7840.25
7840.25
7840.25
7840.24
7840.24
7840.24
7840.24
7840.24
7840.24
7840.24
7840.24
7840.23
7840.23
7840.23
7840.23
7840.23
7840.23
7840.23
7840.23
7840.22
7840.22
7840.22
7840.22
7840.22
7840.22
7840.22
7840.22
7840.22
7840.21
7840.21
7840.21
7840.21
7840.21
7840.21
7840.21
7840.21
7840.21
7840.21
7840.21
7840.21
7840.21
7840.2
7840.2
7840.2
7840.2
7840.2
7840.2
7840.2
7840.2
7840.2
7840.2
7840.2
7840.2
7840.2
7840.2
7840.2
7840.2
7840.2
7840.2
7840.2
7840.19
7840.19
7840.19
7840.19
7840.19
7840.19
7840.19
7840.19
7840.19
7840.19
7840.19
7840.19
7840.19
7840.19
7840.19
7840.19
7840.19
7840.19
7840.19
7840.19
7840.19
7840.19
7840.19
7840.19
7840.19
7840.19
7840.19
7840.19
7840.19
7840.18
7840.18
7840.18
7840.18
7840.18
7840.18
7840.18
7840.18
7840.18
7840.18
7840.18
7840.18
7840.18
7840.18
7840.18
7840.18
7840.18
7840.18
7840.18
7840.18
7840.18
7840.18
7840.18
7840.18
7840.18
7840.18
7840.18
7840.18
7840.18
7840.18
7837.04
7836.56
7836.17
7835.59
7834.98
7834.34
7833.64
7832.9
7832.12
7831.3
7830.44
7829.55
7828.62
7827.67
7826.69
7825.68
7824.65
7823.6
7822.52
7821.43
7820.32
7819.2
7818.07
7816.92
7815.76
7814.6
7813.42
7812.24
7811.07
7809.87
7808.64
7807.47
7806.34
7805.26
7804.1
7802.86
7801.69
7800.55
7799.47
7798.4
7797.25
7796.14
7795.09
7794.08
7793.06
7792
7790.99
7790.01
7789.05
7788.11
7787.2
7786.31
7785.44
7784.6
7783.78
7782.97
7782.19
7781.45
7780.7
7779.97
7779.32
7778.69
7778.01
7777.4
7776.83
7776.32
7775.82
7775.33
7774.86
7774.4
7773.97
7773.59
7773.26
7772.92
7772.6
7772.3
7772.02
7771.74
7771.48
7771.3
7771.11
7770.9
7770.71
7770.46
7770.24
7770.16
7770.16
7770.13
7770.17
7770.13
7770.14
7770.16
7770.24
7770.33
7770.46
7770.59
7770.75
7770.91
7771.1
7771.33
7771.59
7771.86
7772.13
7772.44
7772.69
7773.07
7773.58
7774.02
7774.48
7774.94
7775.41
7775.9
7776.4
7776.92
7777.45
7777.99
7778.54
7779.12
7779.71
7780.31
7780.92
7781.55
7782.11
7782.79
7783.57
7784.28
7784.99
7785.71
7786.42
7787.15
7787.88
7788.61
7789.34
7790.07
7790.8
7791.53
7792.26
7792.99
7793.72
7794.45
7795.18
7795.91
7796.64
7797.37
7798.09
7798.82
7799.54
7800.26
7800.97
7801.68
7802.39
7803.09
7803.78
7804.47
7805.15
7805.83
7806.5
7807.16
7807.81
7808.46
7809.1
7809.73
7810.36
7810.97
7811.58
7812.18
7812.78
7813.36
7813.94
7814.51
7815.07
7815.62
7816.17
7816.71
7817.23
7817.76
7818.27
7818.77
7819.27
7819.76
7820.24
7820.71
7821.17
7821.63
7822.08
7822.52
7822.95
7823.37
7823.79
7824.2
7824.6
7824.99
7825.38
7825.75
7826.12
7826.49
7826.84
7827.19
7827.53
7827.86
7828.19
7828.51
7828.82
7829.13
7829.42
7829.72
7830
7830.28
7830.55
7830.82
7831.08
7831.33
7831.58
7831.82
7832.06
7832.29
7832.51
7832.73
7832.95
7833.15
7833.36
7833.56
7833.75
7833.94
7834.13
7834.31
7834.48
7834.66
7834.82
7834.99
7835.14
7835.3
7835.45
7835.6
7835.74
7835.88
7836.02
7836.15
7836.28
7836.41
7836.53
7836.65
7836.77
7836.88
7836.99
7837.1
7837.2
7837.31
7837.4
7837.5
7837.59
7837.69
7837.77
7837.86
7837.94
7838.03
7838.1
7838.18
7838.25
7838.33
7838.4
7838.46
7838.53
7838.59
7838.66
7838.72
7838.77
7838.83
7838.88
7838.94
7838.99
7839.04
7839.08
7839.13
7839.18
7839.22
7839.26
7839.3
7839.34
7839.38
7839.42
7839.45
7839.49
7839.52
7839.55
7839.58
7839.61
7839.64
7839.67
7839.7
7839.73
7839.75
7839.78
7839.8
7839.83
7839.85
7839.87
7839.89
7839.91
7839.93
7839.95
7839.97
7839.99
7840
7840.02
7840.04
7840.05
7840.07
7840.08
7840.09
7840.11
7840.12
7840.13
7840.15
7840.16
7840.17
7840.18
7840.19
7840.2
7840.21
7840.22
7840.22
7840.23
7840.24
7840.25
7840.25
7840.26
7840.27
7840.27
7840.28
7840.28
7840.29
7840.29
7840.3
7840.3
7840.31
7840.31
7840.32
7840.32
7840.32
7840.32
7840.33
7840.33
7840.33
7840.33
7840.34
7840.34
7840.34
7840.34
7840.34
7840.34
7840.34
7840.35
7840.35
7840.35
7840.35
7840.35
7840.35
7840.35
7840.35
7840.35
7840.35
7840.35
7840.35
7840.35
7840.35
7840.35
7840.35
7840.34
7840.34
7840.34
7840.34
7840.34
7840.34
7840.34
7840.34
7840.34
7840.34
7840.33
7840.33
7840.33
7840.33
7840.33
7840.33
7840.33
7840.32
7840.32
7840.32
7840.32
7840.32
7840.32
7840.31
7840.31
7840.31
7840.31
7840.31
7840.31
7840.3
7840.3
7840.3
7840.3
7840.3
7840.3
7840.29
7840.29
7840.29
7840.29
7840.29
7840.29
7840.28
7840.28
7840.28
7840.28
7840.28
7840.27
7840.27
7840.27
7840.27
7840.27
7840.27
7840.26
7840.26
7840.26
7840.26
7840.26
7840.26
7840.26
7840.25
7840.25
7840.25
7840.25
7840.25
7840.25
7840.25
7840.24
7840.24
7840.24
7840.24
7840.24
7840.24
7840.24
7840.23
7840.23
7840.23
7840.23
7840.23
7840.23
7840.23
7840.23
7840.23
7840.22
7840.22
7840.22
7840.22
7840.22
7840.22
7840.22
7840.22
7840.22
7840.21
7840.21
7840.21
7840.21
7840.21
7840.21
7840.21
7840.21
7840.21
7840.21
7840.21
7840.21
7840.21
7840.2
7840.2
7840.2
7840.2
7840.2
7840.2
7840.2
7840.2
7840.2
7840.2
7840.2
7840.2
7840.2
7840.2
7840.2
7840.2
7840.2
7840.2
7840.2
7840.19
7840.19
7840.19
7840.19
7840.19
7840.19
7840.19
7840.19
7840.19
7840.19
7840.19
7840.19
7840.19
7840.19
7840.19
7840.19
7840.19
7840.19
7840.19
7840.19
7840.19
7840.19
7840.19
7840.19
7840.19
7840.19
7840.19
7840.19
7840.18
7840.18
7840.18
7840.18
7840.18
7840.18
7840.18
7840.18
7840.18
7840.18
7840.18
7840.18
7840.18
7840.18
7840.18
7840.18
7840.18
7840.18
7840.18
7840.18
7840.18
7840.18
7840.18
7840.18
7840.18
7840.18
7840.18
7840.18
7840.18
7840.18
7840.18
7838.06
7837.35
7836.82
7836.18
7835.52
7834.81
7834.09
7833.32
7832.51
7831.67
7830.79
7829.88
7828.94
7827.98
7826.99
7825.97
7824.94
7823.88
7822.8
7821.71
7820.59
7819.47
7818.33
7817.18
7816.02
7814.85
7813.67
7812.48
7811.29
7810.09
7808.89
7807.68
7806.5
7805.35
7804.21
7803.04
7801.88
7800.73
7799.6
7798.47
7797.35
7796.24
7795.15
7794.08
7793.01
7791.96
7790.94
7789.93
7788.94
7787.99
7787.06
7786.16
7785.3
7784.46
7783.6
7782.8
7782.05
7781.22
7780.47
7779.77
7779.12
7778.42
7777.78
7777.18
7776.61
7776.05
7775.52
7775.06
7774.61
7774.19
7773.77
7773.36
7773.01
7772.67
7772.38
7772.08
7771.75
7771.48
7771.25
7771.06
7770.83
7770.6
7770.48
7770.4
7770.26
7770.14
7769.99
7769.85
7769.68
7769.82
7769.96
7770.04
7770.09
7770.19
7770.28
7770.43
7770.6
7770.8
7771.02
7771.26
7771.52
7771.78
7772.07
7772.44
7772.79
7773.14
7773.51
7773.93
7774.27
7774.71
7775.28
7775.8
7776.33
7776.86
7777.39
7777.94
7778.52
7779.11
7779.7
7780.31
7780.94
7781.58
7782.23
7782.88
7783.55
7784.15
7784.84
7785.64
7786.37
7787.1
7787.83
7788.56
7789.29
7790.03
7790.77
7791.5
7792.24
7792.98
7793.71
7794.44
7795.18
7795.91
7796.64
7797.37
7798.1
7798.83
7799.55
7800.27
7800.98
7801.69
7802.4
7803.1
7803.8
7804.49
7805.18
7805.86
7806.53
7807.19
7807.85
7808.49
7809.14
7809.77
7810.4
7811.01
7811.62
7812.23
7812.82
7813.41
7813.98
7814.55
7815.12
7815.67
7816.21
7816.75
7817.28
7817.8
7818.32
7818.82
7819.32
7819.81
7820.29
7820.76
7821.22
7821.68
7822.13
7822.57
7823
7823.43
7823.84
7824.25
7824.65
7825.04
7825.43
7825.8
7826.17
7826.54
7826.89
7827.24
7827.58
7827.91
7828.24
7828.55
7828.87
7829.17
7829.47
7829.76
7830.04
7830.32
7830.59
7830.86
7831.12
7831.37
7831.62
7831.86
7832.1
7832.33
7832.55
7832.77
7832.98
7833.19
7833.4
7833.59
7833.79
7833.98
7834.16
7834.34
7834.52
7834.69
7834.85
7835.02
7835.18
7835.33
7835.48
7835.63
7835.77
7835.91
7836.05
7836.18
7836.31
7836.43
7836.56
7836.68
7836.79
7836.9
7837.01
7837.12
7837.23
7837.33
7837.43
7837.52
7837.62
7837.71
7837.79
7837.88
7837.96
7838.04
7838.12
7838.2
7838.27
7838.34
7838.41
7838.48
7838.55
7838.61
7838.67
7838.73
7838.79
7838.84
7838.9
7838.95
7839
7839.05
7839.1
7839.14
7839.19
7839.23
7839.27
7839.31
7839.35
7839.39
7839.43
7839.46
7839.5
7839.53
7839.56
7839.59
7839.62
7839.65
7839.68
7839.71
7839.73
7839.76
7839.79
7839.81
7839.83
7839.85
7839.88
7839.9
7839.92
7839.94
7839.96
7839.97
7839.99
7840.01
7840.03
7840.04
7840.06
7840.07
7840.09
7840.1
7840.11
7840.13
7840.14
7840.15
7840.16
7840.17
7840.18
7840.19
7840.2
7840.21
7840.22
7840.23
7840.24
7840.24
7840.25
7840.26
7840.26
7840.27
7840.28
7840.28
7840.29
7840.29
7840.3
7840.3
7840.31
7840.31
7840.31
7840.32
7840.32
7840.32
7840.33
7840.33
7840.33
7840.33
7840.34
7840.34
7840.34
7840.34
7840.34
7840.34
7840.34
7840.35
7840.35
7840.35
7840.35
7840.35
7840.35
7840.35
7840.35
7840.35
7840.35
7840.35
7840.35
7840.35
7840.35
7840.35
7840.35
7840.35
7840.34
7840.34
7840.34
7840.34
7840.34
7840.34
7840.34
7840.34
7840.34
7840.34
7840.33
7840.33
7840.33
7840.33
7840.33
7840.33
7840.33
7840.32
7840.32
7840.32
7840.32
7840.32
7840.32
7840.31
7840.31
7840.31
7840.31
7840.31
7840.31
7840.3
7840.3
7840.3
7840.3
7840.3
7840.3
7840.29
7840.29
7840.29
7840.29
7840.29
7840.28
7840.28
7840.28
7840.28
7840.28
7840.28
7840.27
7840.27
7840.27
7840.27
7840.27
7840.27
7840.26
7840.26
7840.26
7840.26
7840.26
7840.26
7840.26
7840.25
7840.25
7840.25
7840.25
7840.25
7840.25
7840.25
7840.24
7840.24
7840.24
7840.24
7840.24
7840.24
7840.24
7840.23
7840.23
7840.23
7840.23
7840.23
7840.23
7840.23
7840.23
7840.23
7840.22
7840.22
7840.22
7840.22
7840.22
7840.22
7840.22
7840.22
7840.22
7840.21
7840.21
7840.21
7840.21
7840.21
7840.21
7840.21
7840.21
7840.21
7840.21
7840.21
7840.21
7840.21
7840.2
7840.2
7840.2
7840.2
7840.2
7840.2
7840.2
7840.2
7840.2
7840.2
7840.2
7840.2
7840.2
7840.2
7840.2
7840.2
7840.2
7840.2
7840.2
7840.19
7840.19
7840.19
7840.19
7840.19
7840.19
7840.19
7840.19
7840.19
7840.19
7840.19
7840.19
7840.19
7840.19
7840.19
7840.19
7840.19
7840.19
7840.19
7840.19
7840.19
7840.19
7840.19
7840.19
7840.19
7840.19
7840.19
7840.19
7840.18
7840.18
7840.18
7840.18
7840.18
7840.18
7840.18
7840.18
7840.18
7840.18
7840.18
7840.18
7840.18
7840.18
7840.18
7840.18
7840.18
7840.18
7840.18
7840.18
7840.18
7840.18
7840.18
7840.18
7840.18
7840.18
7840.18
7840.18
7840.18
7840.18
7840.18
7838.07
7837.54
7837.08
7836.49
7835.85
7835.16
7834.44
7833.67
7832.86
7832.01
7831.13
7830.21
7829.27
7828.3
7827.3
7826.28
7825.25
7824.19
7823.11
7822.01
7820.89
7819.77
7818.62
7817.47
7816.31
7815.14
7813.96
7812.77
7811.56
7810.35
7809.14
7807.93
7806.72
7805.52
7804.34
7803.18
7802.01
7800.84
7799.69
7798.54
7797.4
7796.26
7795.14
7794.05
7792.97
7791.91
7790.87
7789.85
7788.86
7787.88
7786.92
7786.02
7785.16
7784.28
7783.43
7782.61
7781.82
7781.04
7780.29
7779.56
7778.87
7778.22
7777.56
7776.92
7776.35
7775.82
7775.31
7774.81
7774.35
7773.91
7773.5
7773.08
7772.69
7772.34
7772.04
7771.81
7771.48
7771.28
7771.06
7770.73
7770.51
7770.33
7770.18
7770.11
7770.04
7769.87
7769.82
7769.86
7769.8
7769.77
7769.62
7769.48
7769.67
7769.92
7770.13
7770.27
7770.44
7770.57
7770.81
7771.07
7771.4
7771.64
7771.95
7772.33
7772.64
7773.02
7773.43
7773.86
7774.3
7774.72
7775.17
7775.57
7776.09
7776.73
7777.28
7777.84
7778.43
7779.03
7779.65
7780.27
7780.89
7781.54
7782.2
7782.87
7783.55
7784.22
7784.9
7785.59
7786.22
7786.94
7787.75
7788.49
7789.23
7789.98
7790.72
7791.45
7792.19
7792.94
7793.68
7794.41
7795.15
7795.89
7796.63
7797.36
7798.09
7798.82
7799.55
7800.27
7800.99
7801.71
7802.42
7803.12
7803.82
7804.51
7805.2
7805.88
7806.56
7807.22
7807.88
7808.53
7809.17
7809.81
7810.44
7811.06
7811.67
7812.27
7812.87
7813.46
7814.03
7814.61
7815.17
7815.72
7816.27
7816.81
7817.34
7817.86
7818.38
7818.88
7819.38
7819.87
7820.35
7820.82
7821.29
7821.74
7822.19
7822.63
7823.06
7823.49
7823.9
7824.31
7824.71
7825.11
7825.49
7825.87
7826.24
7826.6
7826.95
7827.3
7827.64
7827.97
7828.3
7828.61
7828.93
7829.23
7829.53
7829.82
7830.1
7830.38
7830.65
7830.92
7831.17
7831.43
7831.67
7831.91
7832.15
7832.38
7832.6
7832.82
7833.03
7833.24
7833.44
7833.64
7833.83
7834.02
7834.21
7834.38
7834.56
7834.73
7834.9
7835.06
7835.22
7835.37
7835.52
7835.67
7835.81
7835.95
7836.08
7836.22
7836.34
7836.47
7836.59
7836.71
7836.82
7836.94
7837.05
7837.15
7837.26
7837.36
7837.46
7837.55
7837.64
7837.73
7837.82
7837.91
7837.99
7838.07
7838.15
7838.22
7838.29
7838.37
7838.43
7838.5
7838.57
7838.63
7838.69
7838.75
7838.81
7838.86
7838.92
7838.97
7839.02
7839.07
7839.11
7839.16
7839.2
7839.25
7839.29
7839.33
7839.37
7839.4
7839.44
7839.48
7839.51
7839.54
7839.57
7839.61
7839.63
7839.66
7839.69
7839.72
7839.75
7839.77
7839.8
7839.82
7839.84
7839.86
7839.89
7839.91
7839.93
7839.95
7839.96
7839.98
7840
7840.02
7840.03
7840.05
7840.06
7840.08
7840.09
7840.11
7840.12
7840.13
7840.14
7840.16
7840.17
7840.18
7840.19
7840.2
7840.21
7840.22
7840.22
7840.23
7840.24
7840.25
7840.25
7840.26
7840.27
7840.27
7840.28
7840.29
7840.29
7840.3
7840.3
7840.3
7840.31
7840.31
7840.32
7840.32
7840.32
7840.33
7840.33
7840.33
7840.33
7840.34
7840.34
7840.34
7840.34
7840.34
7840.34
7840.34
7840.35
7840.35
7840.35
7840.35
7840.35
7840.35
7840.35
7840.35
7840.35
7840.35
7840.35
7840.35
7840.35
7840.35
7840.35
7840.35
7840.35
7840.35
7840.35
7840.34
7840.34
7840.34
7840.34
7840.34
7840.34
7840.34
7840.34
7840.34
7840.33
7840.33
7840.33
7840.33
7840.33
7840.33
7840.33
7840.32
7840.32
7840.32
7840.32
7840.32
7840.32
7840.31
7840.31
7840.31
7840.31
7840.31
7840.31
7840.3
7840.3
7840.3
7840.3
7840.3
7840.3
7840.29
7840.29
7840.29
7840.29
7840.29
7840.28
7840.28
7840.28
7840.28
7840.28
7840.28
7840.27
7840.27
7840.27
7840.27
7840.27
7840.27
7840.26
7840.26
7840.26
7840.26
7840.26
7840.26
7840.26
7840.25
7840.25
7840.25
7840.25
7840.25
7840.25
7840.25
7840.24
7840.24
7840.24
7840.24
7840.24
7840.24
7840.24
7840.23
7840.23
7840.23
7840.23
7840.23
7840.23
7840.23
7840.23
7840.22
7840.22
7840.22
7840.22
7840.22
7840.22
7840.22
7840.22
7840.22
7840.22
7840.21
7840.21
7840.21
7840.21
7840.21
7840.21
7840.21
7840.21
7840.21
7840.21
7840.21
7840.21
7840.21
7840.2
7840.2
7840.2
7840.2
7840.2
7840.2
7840.2
7840.2
7840.2
7840.2
7840.2
7840.2
7840.2
7840.2
7840.2
7840.2
7840.2
7840.2
7840.2
7840.19
7840.19
7840.19
7840.19
7840.19
7840.19
7840.19
7840.19
7840.19
7840.19
7840.19
7840.19
7840.19
7840.19
7840.19
7840.19
7840.19
7840.19
7840.19
7840.19
7840.19
7840.19
7840.19
7840.19
7840.19
7840.19
7840.19
7840.19
7840.18
7840.18
7840.18
7840.18
7840.18
7840.18
7840.18
7840.18
7840.18
7840.18
7840.18
7840.18
7840.18
7840.18
7840.18
7840.18
7840.18
7840.18
7840.18
7840.18
7840.18
7840.18
7840.18
7840.18
7840.18
7840.18
7840.18
7840.18
7840.18
7840.18
7840.18
7838.68
7837.99
7837.6
7836.97
7836.3
7835.57
7834.81
7834
7833.16
7832.3
7831.39
7830.45
7829.49
7828.51
7827.5
7826.48
7825.44
7824.38
7823.29
7822.19
7821.06
7819.93
7818.78
7817.61
7816.43
7815.25
7814.06
7812.87
7811.66
7810.44
7809.21
7807.97
7806.73
7805.5
7804.27
7803.05
7801.84
7800.64
7799.46
7798.29
7797.13
7795.99
7794.86
7793.76
7792.68
7791.63
7790.59
7789.58
7788.58
7787.61
7786.65
7785.77
7784.88
7784.01
7783.17
7782.35
7781.56
7780.79
7780.05
7779.33
7778.64
7777.97
7777.31
7776.7
7776.13
7775.59
7775.07
7774.57
7774.09
7773.67
7773.26
7772.87
7772.46
7772.08
7771.77
7771.53
7771.27
7771.02
7770.79
7770.5
7770.32
7770.24
7770.11
7769.96
7769.77
7769.7
7769.72
7769.68
7769.62
7769.66
7769.7
7769.71
7769.73
7769.68
7769.58
7769.92
7770.23
7770.52
7770.7
7770.93
7771.16
7771.52
7771.85
7772.2
7772.56
7772.94
7773.35
7773.78
7774.22
7774.66
7775.14
7775.64
7776.14
7776.65
7777.09
7777.66
7778.35
7778.97
7779.58
7780.22
7780.86
7781.52
7782.18
7782.85
7783.53
7784.21
7784.9
7785.6
7786.3
7787.01
7787.72
7788.37
7789.11
7789.93
7790.68
7791.43
7792.17
7792.91
7793.65
7794.4
7795.14
7795.89
7796.63
7797.36
7798.1
7798.83
7799.56
7800.29
7801.01
7801.73
7802.44
7803.15
7803.85
7804.55
7805.24
7805.92
7806.6
7807.27
7807.93
7808.58
7809.23
7809.87
7810.5
7811.12
7811.73
7812.33
7812.93
7813.52
7814.1
7814.67
7815.24
7815.79
7816.34
7816.88
7817.41
7817.93
7818.45
7818.96
7819.45
7819.94
7820.42
7820.9
7821.36
7821.82
7822.27
7822.71
7823.14
7823.57
7823.98
7824.39
7824.79
7825.18
7825.57
7825.94
7826.31
7826.67
7827.03
7827.38
7827.71
7828.05
7828.37
7828.69
7829
7829.3
7829.6
7829.89
7830.17
7830.45
7830.72
7830.98
7831.24
7831.49
7831.73
7831.97
7832.21
7832.44
7832.66
7832.88
7833.09
7833.3
7833.5
7833.69
7833.89
7834.07
7834.26
7834.43
7834.61
7834.78
7834.94
7835.1
7835.26
7835.41
7835.56
7835.71
7835.85
7835.99
7836.13
7836.26
7836.39
7836.51
7836.63
7836.75
7836.86
7836.97
7837.08
7837.19
7837.29
7837.39
7837.49
7837.58
7837.68
7837.77
7837.85
7837.94
7838.02
7838.1
7838.18
7838.25
7838.32
7838.39
7838.46
7838.53
7838.59
7838.65
7838.72
7838.77
7838.83
7838.89
7838.94
7838.99
7839.04
7839.09
7839.13
7839.18
7839.22
7839.27
7839.31
7839.35
7839.38
7839.42
7839.46
7839.49
7839.53
7839.56
7839.59
7839.62
7839.65
7839.68
7839.71
7839.73
7839.76
7839.78
7839.81
7839.83
7839.85
7839.88
7839.9
7839.92
7839.94
7839.96
7839.97
7839.99
7840.01
7840.03
7840.04
7840.06
7840.07
7840.09
7840.1
7840.11
7840.13
7840.14
7840.15
7840.16
7840.17
7840.18
7840.19
7840.2
7840.21
7840.22
7840.23
7840.24
7840.25
7840.25
7840.26
7840.27
7840.27
7840.28
7840.28
7840.29
7840.29
7840.3
7840.3
7840.31
7840.31
7840.32
7840.32
7840.32
7840.33
7840.33
7840.33
7840.33
7840.34
7840.34
7840.34
7840.34
7840.34
7840.34
7840.35
7840.35
7840.35
7840.35
7840.35
7840.35
7840.35
7840.35
7840.35
7840.35
7840.35
7840.35
7840.35
7840.35
7840.35
7840.35
7840.35
7840.35
7840.35
7840.35
7840.35
7840.35
7840.34
7840.34
7840.34
7840.34
7840.34
7840.34
7840.34
7840.34
7840.34
7840.33
7840.33
7840.33
7840.33
7840.33
7840.33
7840.32
7840.32
7840.32
7840.32
7840.32
7840.32
7840.31
7840.31
7840.31
7840.31
7840.31
7840.31
7840.3
7840.3
7840.3
7840.3
7840.3
7840.3
7840.29
7840.29
7840.29
7840.29
7840.29
7840.28
7840.28
7840.28
7840.28
7840.28
7840.28
7840.27
7840.27
7840.27
7840.27
7840.27
7840.27
7840.26
7840.26
7840.26
7840.26
7840.26
7840.26
7840.26
7840.25
7840.25
7840.25
7840.25
7840.25
7840.25
7840.25
7840.24
7840.24
7840.24
7840.24
7840.24
7840.24
7840.24
7840.23
7840.23
7840.23
7840.23
7840.23
7840.23
7840.23
7840.23
7840.23
7840.22
7840.22
7840.22
7840.22
7840.22
7840.22
7840.22
7840.22
7840.22
7840.22
7840.21
7840.21
7840.21
7840.21
7840.21
7840.21
7840.21
7840.21
7840.21
7840.21
7840.21
7840.21
7840.21
7840.2
7840.2
7840.2
7840.2
7840.2
7840.2
7840.2
7840.2
7840.2
7840.2
7840.2
7840.2
7840.2
7840.2
7840.2
7840.2
7840.2
7840.2
7840.19
7840.19
7840.19
7840.19
7840.19
7840.19
7840.19
7840.19
7840.19
7840.19
7840.19
7840.19
7840.19
7840.19
7840.19
7840.19
7840.19
7840.19
7840.19
7840.19
7840.19
7840.19
7840.19
7840.19
7840.19
7840.19
7840.19
7840.19
7840.18
7840.18
7840.18
7840.18
7840.18
7840.18
7840.18
7840.18
7840.18
7840.18
7840.18
7840.18
7840.18
7840.18
7840.18
7840.18
7840.18
7840.18
7840.18
7840.18
7840.18
7840.18
7840.18
7840.18
7840.18
7840.18
7840.18
7840.18
7840.18
7840.18
7840.18
7839.26
7838.33
7838.1
7837.47
7836.7
7835.91
7835.13
7834.29
7833.4
7832.51
7831.57
7830.6
7829.61
7828.61
7827.59
7826.55
7825.49
7824.41
7823.3
7822.17
7821.02
7819.86
7818.68
7817.48
7816.27
7815.05
7813.82
7812.6
7811.39
7810.17
7808.94
7807.69
7806.43
7805.15
7803.88
7802.61
7801.36
7800.14
7798.96
7797.75
7796.54
7795.37
7794.27
7793.18
7792.07
7791.03
7790.03
7789.02
7788
7787.02
7786.13
7785.25
7784.36
7783.5
7782.69
7781.89
7781.09
7780.32
7779.64
7778.95
7778.27
7777.61
7776.98
7776.36
7775.74
7775.18
7774.67
7774.17
7773.71
7773.26
7772.85
7772.46
7772.09
7771.71
7771.37
7771.11
7770.87
7770.64
7770.41
7770.19
7770.06
7769.91
7769.78
7769.65
7769.53
7769.51
7769.46
7769.43
7769.4
7769.4
7769.43
7769.46
7769.59
7769.71
7769.78
7769.88
7769.87
7769.94
7770.36
7770.71
7771.04
7771.31
7771.64
7771.99
7772.4
7772.8
7773.2
7773.66
7774.11
7774.57
7775.02
7775.54
7776.06
7776.6
7777.12
7777.7
7778.28
7778.8
7779.41
7780.13
7780.8
7781.46
7782.13
7782.8
7783.48
7784.18
7784.88
7785.58
7786.28
7787
7787.73
7788.45
7789.19
7789.92
7790.64
7791.32
7792.06
7792.88
7793.64
7794.38
7795.14
7795.88
7796.63
7797.38
7798.12
7798.85
7799.59
7800.32
7801.05
7801.77
7802.48
7803.2
7803.9
7804.6
7805.3
7805.98
7806.66
7807.33
7808
7808.65
7809.3
7809.94
7810.57
7811.19
7811.81
7812.42
7813.02
7813.61
7814.19
7814.76
7815.33
7815.89
7816.43
7816.98
7817.51
7818.03
7818.55
7819.05
7819.55
7820.04
7820.52
7821
7821.46
7821.92
7822.37
7822.81
7823.24
7823.67
7824.08
7824.49
7824.89
7825.28
7825.66
7826.04
7826.41
7826.77
7827.12
7827.47
7827.81
7828.14
7828.46
7828.78
7829.09
7829.39
7829.68
7829.97
7830.25
7830.53
7830.8
7831.06
7831.32
7831.57
7831.81
7832.05
7832.28
7832.51
7832.73
7832.95
7833.16
7833.36
7833.56
7833.76
7833.95
7834.14
7834.32
7834.49
7834.67
7834.84
7835
7835.16
7835.31
7835.47
7835.62
7835.76
7835.9
7836.04
7836.17
7836.3
7836.43
7836.56
7836.68
7836.8
7836.91
7837.02
7837.13
7837.23
7837.33
7837.43
7837.53
7837.62
7837.71
7837.8
7837.89
7837.97
7838.05
7838.13
7838.21
7838.28
7838.36
7838.42
7838.49
7838.56
7838.62
7838.68
7838.74
7838.8
7838.86
7838.91
7838.96
7839.01
7839.06
7839.11
7839.16
7839.2
7839.25
7839.29
7839.33
7839.37
7839.41
7839.44
7839.48
7839.51
7839.54
7839.58
7839.61
7839.64
7839.67
7839.69
7839.72
7839.75
7839.77
7839.8
7839.82
7839.84
7839.87
7839.89
7839.91
7839.93
7839.95
7839.97
7839.99
7840
7840.02
7840.04
7840.05
7840.07
7840.08
7840.1
7840.11
7840.12
7840.14
7840.15
7840.16
7840.17
7840.18
7840.19
7840.2
7840.21
7840.22
7840.23
7840.24
7840.24
7840.25
7840.26
7840.26
7840.27
7840.28
7840.28
7840.29
7840.29
7840.3
7840.3
7840.31
7840.31
7840.32
7840.32
7840.32
7840.33
7840.33
7840.33
7840.33
7840.34
7840.34
7840.34
7840.34
7840.34
7840.35
7840.35
7840.35
7840.35
7840.35
7840.35
7840.35
7840.35
7840.35
7840.35
7840.35
7840.35
7840.35
7840.35
7840.35
7840.35
7840.35
7840.35
7840.35
7840.35
7840.35
7840.35
7840.35
7840.35
7840.34
7840.34
7840.34
7840.34
7840.34
7840.34
7840.34
7840.34
7840.34
7840.33
7840.33
7840.33
7840.33
7840.33
7840.33
7840.32
7840.32
7840.32
7840.32
7840.32
7840.32
7840.31
7840.31
7840.31