/*--------------------------------*- C++ -*----------------------------------*\
| =========                 |                                                 |
| \\      /  F ield         | OpenFOAM: The Open Source CFD Toolbox           |
|  \\    /   O peration     | Version:  v2006                                 |
|   \\  /    A nd           | Website:  www.openfoam.com                      |
|    \\/     M anipulation  |                                                 |
\*---------------------------------------------------------------------------*/
FoamFile
{
    version     2.0;
    format      ascii;
    class       surfaceScalarField;
    location    "1.3";
    object      phi;
}
// * * * * * * * * * * * * * * * * * * * * * * * * * * * * * * * * * * * * * //

dimensions      [0 3 -1 0 0 0 0];
oriented        oriented;


internalField   nonuniform List<scalar> 
65390
(
-1.21636e-06
-3.38842e-07
-1.15803e-06
-5.64669e-08
-1.12287e-06
-3.40112e-08
-1.07021e-06
-5.13653e-08
-1.04798e-06
-2.074e-08
-1.05626e-06
9.924e-09
-1.07438e-06
1.98429e-08
-1.10195e-06
2.93175e-08
-1.13904e-06
3.87802e-08
-1.18195e-06
4.44826e-08
-1.23458e-06
5.40102e-08
-1.3003e-06
6.68668e-08
-1.37913e-06
7.96554e-08
-1.48234e-06
1.03664e-07
-1.59249e-06
1.10178e-07
-1.70744e-06
1.14528e-07
-1.82971e-06
1.21374e-07
-1.96085e-06
1.2978e-07
-2.09965e-06
1.36943e-07
-2.24934e-06
1.47337e-07
-2.41685e-06
1.64675e-07
-2.59236e-06
1.72225e-07
-2.76599e-06
1.69917e-07
-2.93336e-06
1.63239e-07
-3.11092e-06
1.73007e-07
-3.29968e-06
1.83773e-07
-3.49576e-06
1.90696e-07
-3.69208e-06
1.90596e-07
-3.88581e-06
1.8778e-07
-4.09097e-06
1.99087e-07
-4.30455e-06
2.07505e-07
-4.51431e-06
2.03754e-07
-4.70448e-06
1.84241e-07
-4.89834e-06
1.8791e-07
-5.10686e-06
2.02448e-07
-5.32117e-06
2.08073e-07
-5.52418e-06
1.96629e-07
-5.69856e-06
1.68029e-07
-5.88976e-06
1.85096e-07
-6.09218e-06
1.9679e-07
-6.29878e-06
2.01575e-07
-6.50391e-06
2.00714e-07
-6.67861e-06
1.70787e-07
-6.83635e-06
1.54161e-07
-7.00702e-06
1.6726e-07
-7.19158e-06
1.81217e-07
-7.34913e-06
1.54238e-07
-7.48593e-06
1.33556e-07
-7.62289e-06
1.33843e-07
-7.76734e-06
1.41524e-07
-7.9013e-06
1.31247e-07
-8.01355e-06
1.09754e-07
-8.1134e-06
9.75438e-08
-8.20501e-06
8.94457e-08
-8.29832e-06
9.12572e-08
-8.38921e-06
8.89526e-08
-8.47148e-06
8.0467e-08
-8.5486e-06
7.55158e-08
-8.62986e-06
7.98976e-08
-8.70752e-06
7.65625e-08
-8.77077e-06
6.24405e-08
-8.82214e-06
5.07776e-08
-8.87128e-06
4.87373e-08
-8.91367e-06
4.21108e-08
-8.94177e-06
2.79038e-08
-8.95204e-06
1.01211e-08
-8.94389e-06
-8.25614e-09
-8.9182e-06
-2.5737e-08
-8.87432e-06
-4.38832e-08
-8.80738e-06
-6.69128e-08
-8.71136e-06
-9.59892e-08
-8.57979e-06
-1.31589e-07
-8.39621e-06
-1.8365e-07
-8.1299e-06
-2.66491e-07
-7.75145e-06
-3.78789e-07
-7.20735e-06
-5.44653e-07
-6.36899e-06
-8.39097e-07
-5.21073e-06
-1.15897e-06
-4.2532e-06
-9.57939e-07
-3.9124e-06
-3.41046e-07
-3.75453e-06
-1.58122e-07
-3.80241e-06
4.75321e-08
-3.85218e-06
4.94417e-08
-3.94322e-06
9.05463e-08
-4.05091e-06
1.07125e-07
-4.05057e-06
-8.99211e-10
-4.04105e-06
-1.02999e-08
-4.04715e-06
5.16942e-09
-4.07223e-06
2.41025e-08
-4.09078e-06
1.75392e-08
-4.11314e-06
2.1329e-08
-4.12889e-06
1.46309e-08
-4.12784e-06
-2.2217e-09
-4.12052e-06
-8.46695e-09
-4.10277e-06
-1.88197e-08
-4.06848e-06
-3.53278e-08
-4.01304e-06
-5.64367e-08
-3.92958e-06
-8.4359e-08
-3.79041e-06
-1.39975e-07
-3.66756e-06
-1.23628e-07
-3.61534e-06
-5.30059e-08
-3.60698e-06
-9.14879e-09
-3.61644e-06
8.65221e-09
-3.60851e-06
-8.79011e-09
-3.61271e-06
3.30677e-09
-3.61403e-06
4.55306e-10
-3.59811e-06
-1.67777e-08
-3.58015e-06
-1.8767e-08
-3.56232e-06
-1.85556e-08
-3.54378e-06
-1.91929e-08
-3.52041e-06
-2.39655e-08
-3.4934e-06
-2.75996e-08
-3.45993e-06
-3.40549e-08
-3.4167e-06
-4.38138e-08
-3.3597e-06
-5.7609e-08
-3.28424e-06
-7.60908e-08
-3.16303e-06
-1.21862e-07
-3.05371e-06
-1.09992e-07
-2.99942e-06
-5.49602e-08
-2.98084e-06
-1.92705e-08
-2.97563e-06
-5.88491e-09
-2.95734e-06
-1.89474e-08
-2.94853e-06
-9.44679e-09
-2.93849e-06
-1.06349e-08
-2.91763e-06
-2.14308e-08
-2.89736e-06
-2.0816e-08
-2.87636e-06
-2.14935e-08
-2.85287e-06
-2.39484e-08
-2.82863e-06
-2.46496e-08
-2.80314e-06
-2.58488e-08
-2.77605e-06
-2.74154e-08
-2.74834e-06
-2.8007e-08
-2.71985e-06
-2.87998e-08
-2.69057e-06
-2.96134e-08
-2.66067e-06
-3.02561e-08
-2.63023e-06
-3.08407e-08
-2.59941e-06
-3.12537e-08
-2.56827e-06
-3.16246e-08
-2.53675e-06
-3.20414e-08
-2.50483e-06
-3.24479e-08
-2.47252e-06
-3.28503e-08
-2.43982e-06
-3.32339e-08
-2.40674e-06
-3.35723e-08
-2.37335e-06
-3.38296e-08
-2.33957e-06
-3.41506e-08
-2.3054e-06
-3.44759e-08
-2.27091e-06
-3.47173e-08
-2.23625e-06
-3.48332e-08
-2.20138e-06
-3.49882e-08
-2.16636e-06
-3.51089e-08
-2.13123e-06
-3.52094e-08
-2.09603e-06
-3.5292e-08
-2.06081e-06
-3.53398e-08
-2.02561e-06
-3.53614e-08
-1.99053e-06
-3.53132e-08
-1.95556e-06
-3.52788e-08
-1.9207e-06
-3.52338e-08
-1.88598e-06
-3.51656e-08
-1.85141e-06
-3.50859e-08
-1.817e-06
-3.49759e-08
-1.78276e-06
-3.48527e-08
-1.74867e-06
-3.47223e-08
-1.71473e-06
-3.45853e-08
-1.68095e-06
-3.44252e-08
-1.64735e-06
-3.42384e-08
-1.61392e-06
-3.40395e-08
-1.58064e-06
-3.3842e-08
-1.54753e-06
-3.36277e-08
-1.51461e-06
-3.33928e-08
-1.4819e-06
-3.31286e-08
-1.4494e-06
-3.2867e-08
-1.41712e-06
-3.26086e-08
-1.38507e-06
-3.23233e-08
-1.3533e-06
-3.20074e-08
-1.3218e-06
-3.16977e-08
-1.29057e-06
-3.13863e-08
-1.25965e-06
-3.10518e-08
-1.22906e-06
-3.07007e-08
-1.1988e-06
-3.03517e-08
-1.16888e-06
-2.99979e-08
-1.13931e-06
-2.9627e-08
-1.1101e-06
-2.92451e-08
-1.08127e-06
-2.88663e-08
-1.0528e-06
-2.8486e-08
-1.02472e-06
-2.8091e-08
-9.97041e-07
-2.7683e-08
-9.69765e-07
-2.72762e-08
-9.42892e-07
-2.68661e-08
-9.16432e-07
-2.64446e-08
-8.90398e-07
-2.60105e-08
-8.64797e-07
-2.55723e-08
-8.3963e-07
-2.51371e-08
-8.149e-07
-2.47014e-08
-7.90614e-07
-2.42591e-08
-7.66779e-07
-2.38086e-08
-7.43393e-07
-2.33545e-08
-7.20455e-07
-2.28978e-08
-6.97966e-07
-2.24383e-08
-6.7593e-07
-2.19781e-08
-6.54346e-07
-2.15233e-08
-6.33217e-07
-2.10736e-08
-6.12543e-07
-2.06276e-08
-5.92324e-07
-2.01832e-08
-5.72561e-07
-1.97371e-08
-5.53255e-07
-1.92861e-08
-5.34401e-07
-1.88339e-08
-5.1599e-07
-1.83852e-08
-4.98015e-07
-1.79414e-08
-4.80464e-07
-1.75073e-08
-4.63324e-07
-1.70882e-08
-4.4659e-07
-1.66793e-08
-4.30271e-07
-1.62672e-08
-4.14379e-07
-1.58491e-08
-3.98917e-07
-1.54331e-08
-3.83884e-07
-1.50173e-08
-3.69283e-07
-1.45953e-08
-3.55107e-07
-1.41696e-08
-3.41338e-07
-1.37549e-08
-3.27952e-07
-1.3358e-08
-3.14939e-07
-1.29699e-08
-3.02299e-07
-1.25872e-08
-2.90028e-07
-1.22167e-08
-2.78121e-07
-1.18599e-08
-2.66577e-07
-1.15071e-08
-2.55398e-07
-1.11515e-08
-2.44578e-07
-1.07997e-08
-2.34098e-07
-1.04606e-08
-2.23941e-07
-1.01338e-08
-2.14098e-07
-9.81604e-09
-2.04559e-07
-9.5095e-09
-1.95316e-07
-9.21729e-09
-1.86365e-07
-8.93598e-09
-1.77703e-07
-8.65864e-09
-1.69328e-07
-8.38089e-09
-1.61234e-07
-8.0997e-09
-1.53417e-07
-7.81286e-09
-1.4587e-07
-7.52404e-09
-1.38581e-07
-7.24539e-09
-1.31535e-07
-6.99034e-09
-1.24722e-07
-6.76309e-09
-1.18135e-07
-6.55784e-09
-1.11774e-07
-6.36466e-09
-1.05637e-07
-6.17374e-09
-9.97195e-08
-5.97718e-09
-9.40144e-08
-5.77128e-09
-8.85102e-08
-5.56001e-09
-8.31938e-08
-5.35015e-09
-7.80575e-08
-5.14466e-09
-7.31023e-08
-4.94168e-09
-6.83332e-08
-4.74143e-09
-6.3748e-08
-4.55142e-09
-5.93343e-08
-4.3797e-09
-5.50781e-08
-4.22519e-09
-5.09731e-08
-4.07763e-09
-4.70193e-08
-3.93035e-09
-4.32111e-08
-3.7885e-09
-3.95337e-08
-3.66163e-09
-3.59722e-08
-3.54995e-09
-3.25225e-08
-3.44174e-09
-2.91915e-08
-3.3256e-09
-2.59866e-08
-3.20031e-09
-2.29093e-08
-3.07199e-09
-1.99578e-08
-2.94458e-09
-1.71307e-08
-2.81859e-09
-1.4426e-08
-2.69551e-09
-1.1839e-08
-2.57836e-09
-9.36446e-09
-2.46736e-09
-6.99866e-09
-2.36085e-09
-4.73572e-09
-2.26025e-09
-2.56569e-09
-2.16923e-09
-4.79335e-10
-2.08687e-09
1.5264e-09
-2.00706e-09
3.45023e-09
-1.92561e-09
5.2913e-09
-1.84317e-09
7.04997e-09
-1.76096e-09
8.72548e-09
-1.67775e-09
1.03159e-08
-1.59223e-09
1.18204e-08
-1.50531e-09
1.32385e-08
-1.41764e-09
1.45693e-08
-1.32907e-09
1.58136e-08
-1.24172e-09
1.6978e-08
-1.16159e-09
1.80745e-08
-1.09447e-09
1.91161e-08
-1.04087e-09
2.01123e-08
-9.96997e-10
2.10691e-08
-9.59236e-10
2.1992e-08
-9.26509e-10
2.28862e-08
-8.98777e-10
2.37555e-08
-8.74444e-10
2.46003e-08
-8.5017e-10
2.54173e-08
-8.22408e-10
2.62016e-08
-7.89489e-10
2.6948e-08
-7.51042e-10
2.76496e-08
-7.05638e-10
2.82993e-08
-6.52943e-10
2.88919e-08
-5.95351e-10
2.94264e-08
-5.37032e-10
2.99056e-08
-4.81716e-10
3.03335e-08
-4.3091e-10
3.07139e-08
-3.83856e-10
3.10504e-08
-3.40616e-10
3.13479e-08
-3.02132e-10
3.16134e-08
-2.70281e-10
3.18551e-08
-2.46406e-10
3.2081e-08
-2.3036e-10
3.22973e-08
-2.20205e-10
3.25072e-08
-2.1324e-10
3.27117e-08
-2.07054e-10
3.29097e-08
-1.99975e-10
3.30991e-08
-1.90813e-10
3.32765e-08
-1.78401e-10
3.34392e-08
-1.63297e-10
3.3585e-08
-1.46106e-10
3.37116e-08
-1.26657e-10
3.38188e-08
-1.07012e-10
3.39078e-08
-8.87503e-11
3.39815e-08
-7.31411e-11
3.40429e-08
-6.07732e-11
3.40951e-08
-5.13014e-11
3.41398e-08
-4.3533e-11
3.41774e-08
-3.62337e-11
3.42082e-08
-2.90643e-11
3.42328e-08
-2.24964e-11
3.42516e-08
-1.64092e-11
3.42627e-08
-8.43008e-12
3.42597e-08
5.87438e-12
3.42336e-08
2.93127e-11
3.41782e-08
5.88762e-11
3.40946e-08
8.72803e-11
3.39898e-08
1.08692e-10
3.38705e-08
1.23345e-10
3.37401e-08
1.34665e-10
3.36017e-08
1.42714e-10
3.34632e-08
1.43087e-10
3.3334e-08
1.33772e-10
3.32177e-08
1.21126e-10
3.31066e-08
1.15962e-10
3.29892e-08
1.22263e-10
3.286e-08
1.34301e-10
3.27181e-08
1.46943e-10
3.2561e-08
1.62114e-10
3.23824e-08
1.8367e-10
3.21783e-08
2.09221e-10
3.19524e-08
2.30901e-10
3.17131e-08
2.44306e-10
3.1466e-08
2.51876e-10
3.12143e-08
2.5649e-10
3.09618e-08
2.57121e-10
3.07127e-08
2.53687e-10
3.04666e-08
2.50666e-10
3.02189e-08
2.52388e-10
2.99648e-08
2.59063e-10
2.96997e-08
2.70081e-10
2.94184e-08
2.86401e-10
2.91168e-08
3.06565e-10
2.87973e-08
3.24477e-10
2.84675e-08
3.34762e-10
2.81345e-08
3.37816e-10
2.78025e-08
3.36795e-10
2.74746e-08
3.32724e-10
2.71539e-08
3.25621e-10
2.68402e-08
3.18723e-10
2.65279e-08
3.17588e-10
2.62083e-08
3.24934e-10
2.58755e-08
3.38197e-10
2.55285e-08
3.52605e-10
2.51692e-08
3.64899e-10
2.48013e-08
3.73487e-10
2.44304e-08
3.76666e-10
2.40632e-08
3.72875e-10
2.37061e-08
3.62932e-10
2.33612e-08
3.50925e-10
2.30255e-08
3.4183e-10
2.26937e-08
3.38068e-10
2.23618e-08
3.38195e-10
2.20289e-08
3.39205e-10
2.16951e-08
3.4003e-10
2.13599e-08
3.41266e-10
2.10249e-08
3.41094e-10
2.06959e-08
3.35003e-10
2.03803e-08
3.21612e-10
2.00805e-08
3.05947e-10
1.97916e-08
2.9505e-10
1.95054e-08
2.9248e-10
1.92134e-08
2.98148e-10
1.89106e-08
3.08946e-10
1.85976e-08
3.19085e-10
1.82803e-08
3.23165e-10
1.79663e-08
3.19856e-10
1.76608e-08
3.11181e-10
1.73657e-08
3.00655e-10
1.70781e-08
2.93079e-10
1.67909e-08
2.92762e-10
1.6496e-08
3.00439e-10
1.61883e-08
3.13488e-10
1.58664e-08
3.27816e-10
1.55339e-08
3.38471e-10
1.51995e-08
3.40409e-10
1.48741e-08
3.31281e-10
1.45647e-08
3.1523e-10
1.42691e-08
3.0134e-10
1.39788e-08
2.95949e-10
1.36872e-08
2.97232e-10
1.33937e-08
2.98889e-10
1.30986e-08
3.00334e-10
1.2803e-08
3.0052e-10
1.25141e-08
2.93523e-10
1.22367e-08
2.81611e-10
1.19672e-08
2.7345e-10
1.1698e-08
2.72975e-10
1.1424e-08
2.77775e-10
1.11459e-08
2.81835e-10
1.0871e-08
2.78695e-10
1.06065e-08
2.68362e-10
1.03519e-08
2.58391e-10
1.0105e-08
2.50746e-10
9.86467e-09
2.44041e-10
9.62552e-09
2.42806e-10
9.38685e-09
2.42233e-10
9.15438e-09
2.35911e-10
8.92894e-09
2.28725e-10
8.69634e-09
2.35697e-10
8.45664e-09
2.4258e-10
8.20312e-09
2.56153e-10
7.94924e-09
2.56275e-10
7.72946e-09
2.21953e-10
7.51396e-09
2.17501e-10
7.3181e-09
1.9773e-10
7.16129e-09
1.58617e-10
7.04865e-09
1.14433e-10
6.95304e-09
9.74468e-11
6.83941e-09
1.15546e-10
6.75e-09
9.13877e-11
6.65943e-09
9.26084e-11
6.56523e-09
9.62771e-11
6.44848e-09
1.1883e-10
6.32287e-09
1.27669e-10
6.20638e-09
1.18494e-10
6.08934e-09
1.18967e-10
6.00479e-09
8.63602e-11
5.90046e-09
1.0599e-10
5.74928e-09
1.5268e-10
5.60446e-09
1.46141e-10
5.46884e-09
1.36797e-10
5.36281e-09
1.07104e-10
5.24578e-09
1.18096e-10
5.14222e-09
1.04688e-10
5.08078e-09
6.26918e-11
5.0437e-09
3.84817e-11
5.03446e-09
1.08221e-11
4.98103e-09
5.5162e-11
4.96207e-09
2.08167e-11
4.89809e-09
6.59258e-11
4.82392e-09
7.61658e-11
4.71953e-09
1.06388e-10
4.64716e-09
7.43154e-11
4.62578e-09
2.3248e-11
4.53652e-09
9.0999e-11
4.51462e-09
2.34967e-11
4.51221e-09
3.86155e-12
4.44368e-09
6.98585e-11
4.36665e-09
7.82001e-11
4.15879e-09
2.08808e-10
4.06493e-09
9.4525e-11
3.93066e-09
1.34666e-10
3.77791e-09
1.52963e-10
3.92394e-09
-1.46156e-10
4.04437e-09
-1.21046e-10
4.98707e-09
-9.43469e-10
5.86362e-09
-8.7796e-10
6.17508e-09
-3.14201e-10
6.39326e-09
-2.20809e-10
6.41404e-09
-2.33668e-11
6.36187e-09
4.96e-11
6.26227e-09
9.70634e-11
6.09868e-09
1.61114e-10
5.86573e-09
2.30584e-10
5.58549e-09
2.78012e-10
5.27844e-09
3.04972e-10
4.95169e-09
3.24851e-10
4.62895e-09
3.21009e-10
4.34183e-09
2.85574e-10
4.09679e-09
2.43652e-10
3.87022e-09
2.25341e-10
3.63575e-09
2.33364e-10
3.39565e-09
2.39116e-10
3.17213e-09
2.22641e-10
2.9813e-09
1.90057e-10
2.82151e-09
1.59099e-10
2.67966e-09
1.41263e-10
2.53692e-09
1.42227e-10
2.37633e-09
1.60135e-10
2.18845e-09
1.87462e-10
1.97288e-09
2.15186e-10
1.73705e-09
2.35469e-10
1.4922e-09
2.44486e-10
1.25018e-09
2.41671e-10
1.0228e-09
2.27058e-10
8.25516e-10
1.96986e-10
6.74195e-10
1.51054e-10
5.88031e-10
8.59256e-11
5.80983e-10
6.83088e-12
6.57542e-10
-7.67651e-11
8.12842e-10
-1.55508e-10
1.03102e-09
-2.18396e-10
1.28999e-09
-2.59199e-10
1.5689e-09
-2.79156e-10
1.85057e-09
-2.81916e-10
2.12268e-09
-2.72364e-10
2.37503e-09
-2.52598e-10
2.59524e-09
-2.2045e-10
2.76798e-09
-1.72981e-10
2.87997e-09
-1.12224e-10
2.92924e-09
-4.95156e-11
2.92799e-09
1.00384e-12
2.90239e-09
2.53447e-11
2.88101e-09
2.11205e-11
2.88865e-09
-7.90349e-12
2.9451e-09
-5.6698e-11
3.07028e-09
-1.25442e-10
3.2647e-09
-1.94667e-10
3.50124e-09
-2.3678e-10
3.71595e-09
-2.1496e-10
3.83733e-09
-1.21639e-10
3.84556e-09
-8.5004e-12
3.80512e-09
4.01595e-11
3.83328e-09
-2.8465e-11
4.00122e-09
-1.68264e-10
4.21693e-09
-2.16066e-10
4.28487e-09
-6.8312e-11
4.09565e-09
1.88824e-10
3.7332e-09
3.62029e-10
3.44906e-09
2.83696e-10
3.39974e-09
4.88457e-11
3.39571e-09
3.53898e-12
3.20199e-09
1.93216e-10
2.81118e-09
3.90291e-10
2.5344e-09
2.76236e-10
2.59614e-09
-6.23363e-11
2.75301e-09
-1.57521e-10
2.71965e-09
3.26268e-11
2.66647e-09
5.23711e-11
2.90093e-09
-2.3528e-10
3.28204e-09
-3.81892e-10
3.32303e-09
-4.1645e-11
3.12274e-09
1.99769e-10
3.01467e-09
1.07548e-10
2.67929e-09
3.3467e-10
2.36691e-09
3.11371e-10
6.99456e-10
-1.42782e-06
-4.25698e-07
-1.35025e-06
-1.22021e-07
-1.27301e-06
-1.0126e-07
-1.22784e-06
-8.77719e-08
-1.20906e-06
-3.1767e-08
-1.20151e-06
9.23797e-09
-1.20488e-06
2.92719e-08
-1.22121e-06
5.09945e-08
-1.24942e-06
7.16775e-08
-1.28955e-06
8.86883e-08
-1.34398e-06
1.11904e-07
-1.41294e-06
1.3866e-07
-1.49575e-06
1.64653e-07
-1.58913e-06
1.98536e-07
-1.6934e-06
2.15263e-07
-1.80979e-06
2.31057e-07
-1.93532e-06
2.46373e-07
-2.06619e-06
2.59461e-07
-2.2069e-06
2.75814e-07
-2.35607e-06
2.94034e-07
-2.50974e-06
3.15252e-07
-2.66951e-06
3.28298e-07
-2.83736e-06
3.33484e-07
-3.01041e-06
3.3146e-07
-3.1859e-06
3.43214e-07
-3.36272e-06
3.54912e-07
-3.54159e-06
3.63594e-07
-3.73194e-06
3.74707e-07
-3.92509e-06
3.74471e-07
-4.12241e-06
3.89752e-07
-4.34476e-06
4.23054e-07
-4.57532e-06
4.27446e-07
-4.79222e-06
3.94323e-07
-4.95906e-06
3.48097e-07
-5.12421e-06
3.61234e-07
-5.32475e-06
4.02627e-07
-5.5361e-06
4.02411e-07
-5.7497e-06
3.76467e-07
-5.93723e-06
3.67832e-07
-6.10237e-06
3.57394e-07
-6.28796e-06
3.82821e-07
-6.4813e-06
3.89813e-07
-6.65813e-06
3.43454e-07
-6.82015e-06
3.12116e-07
-6.97744e-06
3.20629e-07
-7.14448e-06
3.44562e-07
-7.30716e-06
3.13508e-07
-7.46638e-06
2.89678e-07
-7.62019e-06
2.84846e-07
-7.7692e-06
2.87981e-07
-7.90721e-06
2.66887e-07
-8.03447e-06
2.3481e-07
-8.15386e-06
2.14877e-07
-8.26108e-06
1.94779e-07
-8.35938e-06
1.87915e-07
-8.4541e-06
1.8231e-07
-8.53981e-06
1.65156e-07
-8.61721e-06
1.52218e-07
-8.69297e-06
1.55245e-07
-8.76655e-06
1.49952e-07
-8.82833e-06
1.24174e-07
-8.87702e-06
9.94765e-08
-8.92684e-06
9.85751e-08
-8.97426e-06
8.95096e-08
-9.00927e-06
6.28485e-08
-9.02021e-06
2.09699e-08
-9.01456e-06
-1.40606e-08
-8.99384e-06
-4.66746e-08
-8.95659e-06
-8.14589e-08
-8.90493e-06
-1.19053e-07
-8.8393e-06
-1.62279e-07
-8.75267e-06
-2.19083e-07
-8.63931e-06
-2.98096e-07
-8.51029e-06
-3.96873e-07
-8.37213e-06
-5.18634e-07
-8.24303e-06
-6.75682e-07
-8.17466e-06
-9.09265e-07
-8.183e-06
-1.15231e-06
-7.9226e-06
-1.22125e-06
-7.04875e-06
-1.21721e-06
-5.89858e-06
-1.31031e-06
-4.79383e-06
-1.05974e-06
-4.30811e-06
-4.37472e-07
-4.02957e-06
-1.89778e-07
-3.93217e-06
7.66177e-09
-3.91384e-06
-2.08264e-08
-3.93508e-06
9.09242e-09
-4.03826e-06
1.06383e-07
-4.15143e-06
1.35285e-07
-4.15596e-06
1.98828e-08
-4.14853e-06
1.16643e-08
-4.1448e-06
8.68002e-09
-4.14258e-06
-6.67361e-09
-4.14541e-06
-7.81997e-09
-4.14669e-06
-1.96137e-08
-4.13531e-06
-4.86614e-08
-4.12496e-06
-6.86236e-08
-4.1158e-06
-9.52316e-08
-4.12548e-06
-1.31926e-07
-4.10716e-06
-1.43598e-07
-4.02689e-06
-1.34942e-07
-3.87764e-06
-1.60075e-07
-3.73598e-06
-1.34734e-07
-3.66788e-06
-7.86722e-08
-3.6326e-06
-3.37038e-08
-3.61758e-06
-1.62137e-08
-3.59656e-06
-3.93714e-08
-3.57746e-06
-3.93199e-08
-3.56859e-06
-2.87679e-08
-3.55877e-06
-3.02504e-08
-3.53564e-06
-4.82759e-08
-3.51212e-06
-5.22688e-08
-3.48719e-06
-6.0142e-08
-3.45997e-06
-7.2187e-08
-3.43405e-06
-8.47034e-08
-3.40963e-06
-1.01685e-07
-3.40331e-06
-1.29344e-07
-3.37783e-06
-1.36616e-07
-3.30598e-06
-1.27922e-07
-3.17749e-06
-1.48858e-07
-3.0553e-06
-1.2915e-07
-2.99079e-06
-8.44988e-08
-2.95516e-06
-4.60631e-08
-2.93725e-06
-2.94503e-08
-2.91324e-06
-4.62689e-08
-2.89717e-06
-3.7638e-08
-2.88034e-06
-3.89831e-08
-2.85488e-06
-4.99885e-08
-2.82978e-06
-5.02751e-08
-2.80442e-06
-5.16856e-08
-2.77729e-06
-5.50024e-08
-2.74959e-06
-5.61892e-08
-2.72111e-06
-5.78026e-08
-2.69154e-06
-5.97643e-08
-2.66134e-06
-6.11144e-08
-2.63075e-06
-6.21632e-08
-2.59981e-06
-6.29883e-08
-2.56844e-06
-6.38468e-08
-2.53668e-06
-6.46855e-08
-2.50453e-06
-6.54722e-08
-2.47198e-06
-6.62383e-08
-2.43906e-06
-6.69352e-08
-2.40575e-06
-6.75623e-08
-2.3721e-06
-6.80537e-08
-2.33813e-06
-6.85882e-08
-2.30385e-06
-6.91125e-08
-2.26931e-06
-6.95257e-08
-2.23456e-06
-6.97901e-08
-2.19963e-06
-7.0083e-08
-2.16459e-06
-7.03114e-08
-2.12949e-06
-7.04984e-08
-2.09433e-06
-7.0687e-08
-2.05915e-06
-7.08308e-08
-2.02401e-06
-7.09191e-08
-1.98893e-06
-7.09243e-08
-1.95393e-06
-7.09295e-08
-1.91904e-06
-7.08966e-08
-1.88428e-06
-7.08035e-08
-1.84968e-06
-7.06675e-08
-1.81522e-06
-7.04752e-08
-1.78093e-06
-7.02456e-08
-1.7468e-06
-6.99724e-08
-1.71284e-06
-6.96635e-08
-1.67903e-06
-6.9317e-08
-1.64538e-06
-6.89303e-08
-1.61189e-06
-6.85081e-08
-1.57856e-06
-6.80653e-08
-1.5454e-06
-6.75873e-08
-1.51244e-06
-6.70701e-08
-1.47969e-06
-6.65023e-08
-1.44717e-06
-6.59282e-08
-1.41489e-06
-6.53541e-08
-1.38285e-06
-6.47464e-08
-1.35108e-06
-6.41031e-08
-1.31958e-06
-6.34663e-08
-1.28835e-06
-6.28242e-08
-1.25743e-06
-6.2148e-08
-1.22682e-06
-6.14429e-08
-1.19654e-06
-6.07348e-08
-1.16658e-06
-6.00193e-08
-1.13698e-06
-5.92759e-08
-1.10773e-06
-5.8509e-08
-1.07886e-06
-5.77388e-08
-1.05036e-06
-5.69604e-08
-1.02226e-06
-5.6154e-08
-9.94568e-07
-5.53251e-08
-9.67286e-07
-5.44963e-08
-9.40413e-07
-5.36673e-08
-9.13958e-07
-5.28213e-08
-8.87934e-07
-5.19495e-08
-8.62354e-07
-5.10625e-08
-8.37221e-07
-5.01741e-08
-8.1254e-07
-4.92829e-08
-7.88312e-07
-4.83823e-08
-7.64536e-07
-4.74752e-08
-7.41207e-07
-4.65718e-08
-7.18322e-07
-4.56695e-08
-6.95886e-07
-4.47595e-08
-6.73903e-07
-4.38457e-08
-6.52372e-07
-4.29395e-08
-6.31286e-07
-4.20419e-08
-6.10645e-07
-4.11491e-08
-5.90446e-07
-4.0259e-08
-5.7069e-07
-3.93679e-08
-5.51378e-07
-3.84703e-08
-5.32517e-07
-3.75686e-08
-5.14114e-07
-3.66675e-08
-4.96174e-07
-3.57703e-08
-4.78693e-07
-3.48862e-08
-4.61662e-07
-3.40275e-08
-4.45063e-07
-3.31925e-08
-4.28879e-07
-3.2366e-08
-4.131e-07
-3.15398e-08
-3.97715e-07
-3.07213e-08
-3.82722e-07
-2.99072e-08
-3.68123e-07
-2.90863e-08
-3.53926e-07
-2.82585e-08
-3.40137e-07
-2.74416e-08
-3.26754e-07
-2.66459e-08
-3.13777e-07
-2.58617e-08
-3.01198e-07
-2.50866e-08
-2.89006e-07
-2.43326e-08
-2.77182e-07
-2.3607e-08
-2.65707e-07
-2.29004e-08
-2.5457e-07
-2.22037e-08
-2.4376e-07
-2.15226e-08
-2.33272e-07
-2.08646e-08
-2.23105e-07
-2.02237e-08
-2.13262e-07
-1.95907e-08
-2.03745e-07
-1.89672e-08
-1.94547e-07
-1.83606e-08
-1.85658e-07
-1.77727e-08
-1.77062e-07
-1.72015e-08
-1.68742e-07
-1.6647e-08
-1.60684e-07
-1.6108e-08
-1.52879e-07
-1.55776e-08
-1.45324e-07
-1.50522e-08
-1.38019e-07
-1.45389e-08
-1.30963e-07
-1.40489e-08
-1.24152e-07
-1.35852e-08
-1.17577e-07
-1.31447e-08
-1.11228e-07
-1.27199e-08
-1.05095e-07
-1.23029e-08
-9.91705e-08
-1.18849e-08
-9.34535e-08
-1.14597e-08
-8.79444e-08
-1.10328e-08
-8.2638e-08
-1.06175e-08
-7.75243e-08
-1.02215e-08
-7.25922e-08
-9.842e-09
-6.7835e-08
-9.47264e-09
-6.32489e-08
-9.11566e-09
-5.88283e-08
-8.78015e-09
-5.45643e-08
-8.46829e-09
-5.04498e-08
-8.16959e-09
-4.64833e-08
-7.87287e-09
-4.26667e-08
-7.58102e-09
-3.89984e-08
-7.30715e-09
-3.54711e-08
-7.05658e-09
-3.20764e-08
-6.81792e-09
-2.88085e-08
-6.5763e-09
-2.56632e-08
-6.32897e-09
-2.2635e-08
-6.08354e-09
-1.97189e-08
-5.84432e-09
-1.69131e-08
-5.60902e-09
-1.42181e-08
-5.37748e-09
-1.16318e-08
-5.1546e-09
-9.1501e-09
-4.94258e-09
-6.76916e-09
-4.73834e-09
-4.48695e-09
-4.54114e-09
-2.30132e-09
-4.35448e-09
-2.10035e-10
-4.17763e-09
1.78774e-09
-4.00342e-09
3.69236e-09
-3.82768e-09
5.50568e-09
-3.65294e-09
7.23062e-09
-3.48179e-09
8.8695e-09
-3.31247e-09
1.04247e-08
-3.14367e-09
1.19005e-08
-2.97799e-09
1.33026e-08
-2.8176e-09
1.46361e-08
-2.66123e-09
1.59031e-08
-2.50848e-09
1.71052e-08
-2.36459e-09
1.82454e-08
-2.23685e-09
1.93283e-08
-2.12723e-09
2.03581e-08
-2.03158e-09
2.13382e-08
-1.94522e-09
2.22718e-08
-1.86695e-09
2.31629e-08
-1.79713e-09
2.40146e-08
-1.73357e-09
2.48285e-08
-1.67107e-09
2.56041e-08
-1.60437e-09
2.63401e-08
-1.531e-09
2.70356e-08
-1.45096e-09
2.76898e-08
-1.36345e-09
2.83024e-08
-1.26848e-09
2.88726e-08
-1.16818e-09
2.93998e-08
-1.06689e-09
2.9884e-08
-9.69078e-10
3.03266e-08
-8.77236e-10
3.07302e-08
-7.91816e-10
3.10978e-08
-7.13005e-10
3.14329e-08
-6.42174e-10
3.17392e-08
-5.8149e-10
3.20207e-08
-5.324e-10
3.22808e-08
-4.94346e-10
3.25221e-08
-4.647e-10
3.27463e-08
-4.39928e-10
3.29543e-08
-4.16796e-10
3.31462e-08
-3.93101e-10
3.3322e-08
-3.67342e-10
3.3482e-08
-3.38825e-10
3.36264e-08
-3.07745e-10
3.3755e-08
-2.7457e-10
3.38689e-08
-2.40214e-10
3.39687e-08
-2.0613e-10
3.40548e-08
-1.7393e-10
3.41282e-08
-1.45257e-10
3.41905e-08
-1.21289e-10
3.42434e-08
-1.02e-10
3.42881e-08
-8.55681e-11
3.43241e-08
-6.89127e-11
3.43483e-08
-4.94995e-11
3.43571e-08
-2.69972e-11
3.43485e-08
-2.9558e-12
3.43232e-08
2.21338e-11
3.42836e-08
5.12808e-11
3.42303e-08
8.88281e-11
3.41614e-08
1.34367e-10
3.40753e-08
1.80342e-10
3.39743e-08
2.17046e-10
3.38637e-08
2.41471e-10
3.37476e-08
2.58564e-10
3.36257e-08
2.72701e-10
3.34963e-08
2.80686e-10
3.3361e-08
2.77461e-10
3.32229e-08
2.67811e-10
3.30814e-08
2.66184e-10
3.2931e-08
2.81501e-10
3.27665e-08
3.07625e-10
3.25884e-08
3.34019e-10
3.23999e-08
3.5949e-10
3.22022e-08
3.90215e-10
3.19935e-08
4.26684e-10
3.17733e-08
4.59762e-10
3.1544e-08
4.8219e-10
3.13077e-08
4.96727e-10
3.10644e-08
5.0838e-10
3.08139e-08
5.1614e-10
3.05571e-08
5.19003e-10
3.02939e-08
5.22394e-10
3.0023e-08
5.3174e-10
2.97443e-08
5.46192e-10
2.94588e-08
5.64169e-10
2.9166e-08
5.87795e-10
2.88652e-08
6.16162e-10
2.85581e-08
6.4061e-10
2.82491e-08
6.53008e-10
2.79415e-08
6.54815e-10
2.76348e-08
6.5309e-10
2.73261e-08
6.5119e-10
2.70133e-08
6.48349e-10
2.66955e-08
6.46489e-10
2.63719e-08
6.51303e-10
2.6041e-08
6.65896e-10
2.57028e-08
6.86623e-10
2.5359e-08
7.06749e-10
2.50123e-08
7.21984e-10
2.46652e-08
7.31143e-10
2.43191e-08
7.33352e-10
2.39752e-08
7.27407e-10
2.36345e-08
7.14253e-10
2.32975e-08
6.98591e-10
2.29632e-08
6.86826e-10
2.26294e-08
6.8259e-10
2.22948e-08
6.8358e-10
2.19611e-08
6.83883e-10
2.16315e-08
6.80656e-10
2.13077e-08
6.76214e-10
2.09886e-08
6.71368e-10
2.06732e-08
6.61573e-10
2.03611e-08
6.44582e-10
2.00511e-08
6.26782e-10
1.97397e-08
6.16943e-10
1.9425e-08
6.17517e-10
1.91078e-08
6.25395e-10
1.87909e-08
6.35735e-10
1.84774e-08
6.42281e-10
1.81703e-08
6.39818e-10
1.78708e-08
6.28978e-10
1.75766e-08
6.15036e-10
1.72834e-08
6.03727e-10
1.69864e-08
6.00092e-10
1.66826e-08
6.06707e-10
1.63723e-08
6.21098e-10
1.6058e-08
6.3826e-10
1.57432e-08
6.53061e-10
1.54316e-08
6.60607e-10
1.51248e-08
6.57671e-10
1.48219e-08
6.44407e-10
1.4521e-08
6.26202e-10
1.42198e-08
6.12294e-10
1.3917e-08
6.08125e-10
1.36149e-08
6.08375e-10
1.33195e-08
6.02876e-10
1.30334e-08
5.94787e-10
1.27526e-08
5.89324e-10
1.24727e-08
5.81134e-10
1.21907e-08
5.71134e-10
1.19072e-08
5.64425e-10
1.16257e-08
5.61794e-10
1.13491e-08
5.61725e-10
1.10791e-08
5.59143e-10
1.08171e-08
5.47992e-10
1.05641e-08
5.28611e-10
1.03148e-08
5.14769e-10
1.00664e-08
5.06144e-10
9.81971e-09
4.97471e-10
9.57441e-09
4.94604e-10
9.3296e-09
4.9324e-10
9.09091e-09
4.80428e-10
8.84947e-09
4.75597e-10
8.61332e-09
4.76854e-10
8.39872e-09
4.61777e-10
8.18105e-09
4.78018e-10
7.96637e-09
4.74826e-10
7.78772e-09
4.04222e-10
7.67821e-09
3.30452e-10
7.58109e-09
2.98194e-10
7.43247e-09
3.10584e-10
7.25188e-09
2.98418e-10
7.06958e-09
2.83225e-10
6.91742e-09
2.71298e-10
6.78256e-09
2.29919e-10
6.65082e-09
2.28078e-10
6.52985e-09
2.20975e-10
6.40293e-09
2.49397e-10
6.28102e-09
2.53087e-10
6.15888e-09
2.43936e-10
6.03873e-09
2.42175e-10
5.93117e-09
1.96717e-10
5.81841e-09
2.21285e-10
5.68575e-09
2.87678e-10
5.57021e-09
2.63868e-10
5.46125e-09
2.4787e-10
5.3912e-09
1.79277e-10
5.31751e-09
1.94003e-10
5.23469e-09
1.89894e-10
5.16167e-09
1.38297e-10
5.09219e-09
1.10792e-10
5.0122e-09
9.38684e-11
4.91258e-09
1.5804e-10
4.87167e-09
6.51411e-11
4.81763e-09
1.23436e-10
4.73705e-09
1.60197e-10
4.69682e-09
1.49948e-10
4.67426e-09
1.00023e-10
4.62737e-09
7.30596e-11
4.60081e-09
1.20262e-10
4.53191e-09
9.4859e-11
4.33729e-09
2.0066e-10
4.26605e-09
1.42985e-10
4.19317e-09
1.5247e-10
4.05614e-09
3.46866e-10
4.28165e-09
-1.30508e-10
4.5398e-09
-1.22851e-10
5.6423e-09
-9.49145e-10
6.70773e-09
-1.21172e-09
7.3593e-09
-7.72023e-10
7.38831e-09
-9.72381e-10
6.94649e-09
-4.36588e-10
6.88197e-09
-2.50126e-10
6.83052e-09
-1.70097e-10
6.73888e-09
6.71791e-11
6.60272e-09
1.84375e-10
6.41719e-09
2.81054e-10
6.16919e-09
4.0752e-10
5.92459e-09
4.73595e-10
5.71436e-09
4.8669e-10
5.50023e-09
5.17607e-10
5.2622e-09
5.61468e-10
5.0168e-09
5.65077e-10
4.77322e-09
5.27921e-10
4.52143e-09
4.94323e-10
4.25347e-09
4.92294e-10
3.98684e-09
4.99092e-10
3.7469e-09
4.7827e-10
3.54561e-09
4.23254e-10
3.38091e-09
3.54182e-10
3.24037e-09
2.99149e-10
3.10539e-09
2.75824e-10
2.95879e-09
2.88459e-10
2.78893e-09
3.29663e-10
2.59585e-09
3.80227e-10
2.38827e-09
4.22449e-10
2.18222e-09
4.41204e-10
1.99251e-09
4.3388e-10
1.82892e-09
4.04944e-10
1.6991e-09
3.56564e-10
1.60346e-09
2.92333e-10
1.54543e-09
2.08782e-10
1.5233e-09
1.07774e-10
1.53212e-09
-2.26571e-12
1.57442e-09
-1.19324e-10
1.64414e-09
-2.255e-10
1.74157e-09
-3.16078e-10
1.86646e-09
-3.84354e-10
2.0183e-09
-4.31252e-10
2.19147e-09
-4.55352e-10
2.37627e-09
-4.57432e-10
2.55687e-09
-4.3347e-10
2.71392e-09
-3.77782e-10
2.83146e-09
-2.90803e-10
2.90621e-09
-1.87247e-10
2.94575e-09
-8.9311e-11
2.97309e-09
-2.65733e-11
3.00359e-09
-5.34508e-12
3.04187e-09
-1.73234e-11
3.09331e-09
-5.94522e-11
3.1646e-09
-1.28055e-10
3.26275e-09
-2.23623e-10
3.39726e-09
-3.29164e-10
3.55574e-09
-3.95209e-10
3.70065e-09
-3.59784e-10
3.79713e-09
-2.18003e-10
3.84884e-09
-6.00445e-11
3.89598e-09
-6.77709e-12
3.97907e-09
-1.11297e-10
4.06428e-09
-2.53168e-10
4.06527e-09
-2.16688e-10
3.93025e-09
6.71353e-11
3.7134e-09
4.06171e-10
3.58129e-09
4.94706e-10
3.6045e-09
2.61126e-10
3.61481e-09
3.9244e-11
3.47e-09
1.49145e-10
3.17126e-09
4.92817e-10
2.99628e-09
5.66202e-10
3.0689e-09
2.04594e-10
3.12072e-09
-1.13153e-10
2.94716e-09
1.70727e-11
2.80255e-09
1.7829e-10
2.90465e-09
-4.86068e-11
2.96731e-09
-2.96663e-10
2.73151e-09
-1.44614e-10
2.53537e-09
1.56135e-10
2.43709e-09
2.99654e-10
2.28457e-09
2.61308e-10
2.17531e-09
4.4453e-10
2.25909e-09
2.27658e-10
1.29328e-09
-1.27489e-06
-5.94554e-07
-1.27876e-06
-1.1951e-07
-1.26159e-06
-1.19387e-07
-1.25978e-06
-9.03421e-08
-1.25716e-06
-3.50591e-08
-1.24999e-06
1.43339e-09
-1.24997e-06
2.86692e-08
-1.26442e-06
6.4925e-08
-1.29312e-06
9.9926e-08
-1.33835e-06
1.33521e-07
-1.40099e-06
1.74165e-07
-1.47726e-06
2.14559e-07
-1.56627e-06
2.53286e-07
-1.65724e-06
2.89123e-07
-1.7635e-06
3.21159e-07
-1.88241e-06
3.49634e-07
-2.00784e-06
3.71504e-07
-2.14207e-06
3.93462e-07
-2.2852e-06
4.18797e-07
-2.43567e-06
4.44437e-07
-2.58649e-06
4.66055e-07
-2.74014e-06
4.82001e-07
-2.90152e-06
4.94999e-07
-3.07526e-06
5.05434e-07
-3.24909e-06
5.17406e-07
-3.42018e-06
5.26478e-07
-3.59346e-06
5.3744e-07
-3.7743e-06
5.56162e-07
-3.96441e-06
5.6521e-07
-4.15325e-06
5.7923e-07
-4.3495e-06
6.20046e-07
-4.55539e-06
6.34337e-07
-4.77175e-06
6.12107e-07
-4.97152e-06
5.49784e-07
-5.15669e-06
5.48729e-07
-5.33907e-06
5.87494e-07
-5.53059e-06
5.96271e-07
-5.73883e-06
5.86569e-07
-5.92394e-06
5.54136e-07
-6.095e-06
5.28975e-07
-6.26249e-06
5.5032e-07
-6.42656e-06
5.53622e-07
-6.60646e-06
5.23052e-07
-6.78881e-06
4.94289e-07
-6.95532e-06
4.87129e-07
-7.10747e-06
4.96825e-07
-7.27439e-06
4.80551e-07
-7.44898e-06
4.64288e-07
-7.61422e-06
4.49915e-07
-7.76222e-06
4.35609e-07
-7.90518e-06
4.09316e-07
-8.048e-06
3.77031e-07
-8.17986e-06
3.4614e-07
-8.29714e-06
3.11504e-07
-8.40682e-06
2.97072e-07
-8.50218e-06
2.77141e-07
-8.58406e-06
2.46392e-07
-8.67039e-06
2.37708e-07
-8.74707e-06
2.30802e-07
-8.81363e-06
2.15088e-07
-8.87292e-06
1.81755e-07
-8.9315e-06
1.56097e-07
-8.98257e-06
1.47487e-07
-9.02198e-06
1.26582e-07
-9.05098e-06
8.93459e-08
-9.06955e-06
3.68625e-08
-9.07682e-06
-9.66374e-09
-9.06762e-06
-5.89682e-08
-9.04415e-06
-1.08212e-07
-9.00622e-06
-1.60437e-07
-8.95756e-06
-2.14493e-07
-8.89928e-06
-2.80948e-07
-8.83318e-06
-3.6781e-07
-8.7685e-06
-4.65239e-07
-8.70137e-06
-5.89557e-07