/*--------------------------------*- C++ -*----------------------------------*\
| =========                 |                                                 |
| \\      /  F ield         | OpenFOAM: The Open Source CFD Toolbox           |
|  \\    /   O peration     | Version:  v2006                                 |
|   \\  /    A nd           | Website:  www.openfoam.com                      |
|    \\/     M anipulation  |                                                 |
\*---------------------------------------------------------------------------*/
FoamFile
{
    version     2.0;
    format      ascii;
    class       volVectorField;
    location    "1.3";
    object      U;
}
// * * * * * * * * * * * * * * * * * * * * * * * * * * * * * * * * * * * * * //

dimensions      [0 1 -1 0 0 0 0];


internalField   nonuniform List<vector> 
33000
(
(-0.00683974 0 -0.000788364)
(-0.00152637 0 -7.82728e-05)
(-0.00276344 0 -1.01371e-05)
(-0.00279676 0 -9.86778e-05)
(-0.00262533 0 -1.50053e-05)
(-0.00264301 0 5.63529e-05)
(-0.00266296 0 6.41171e-05)
(-0.00272139 0 7.61072e-05)
(-0.00280041 0 8.70976e-05)
(-0.00290114 0 9.0333e-05)
(-0.00302011 0 0.000106697)
(-0.00316729 0 0.000131231)
(-0.00334773 0 0.000157029)
(-0.00357777 0 0.00020629)
(-0.00384412 0 0.000216492)
(-0.004125 0 0.000225595)
(-0.00442198 0 0.000239498)
(-0.00473811 0 0.000255943)
(-0.00507526 0 0.00026918)
(-0.00543628 0 0.00029037)
(-0.00583286 0 0.000324234)
(-0.00626134 0 0.000338654)
(-0.00669892 0 0.000333928)
(-0.00712336 0 0.000321537)
(-0.00755454 0 0.000342184)
(-0.00801347 0 0.000363407)
(-0.00849489 0 0.000375327)
(-0.00898435 0 0.000373291)
(-0.00947065 0 0.000368675)
(-0.00997241 0 0.000390528)
(-0.0104962 0 0.000404644)
(-0.0110247 0 0.000396802)
(-0.0115224 0 0.000364531)
(-0.0120011 0 0.000375018)
(-0.0125061 0 0.000400252)
(-0.0130386 0 0.000405654)
(-0.0135574 0 0.000382547)
(-0.0140257 0 0.000326767)
(-0.0144835 0 0.000369845)
(-0.0149776 0 0.000392005)
(-0.0154893 0 0.000396697)
(-0.0160071 0 0.000395269)
(-0.0164796 0 0.000338663)
(-0.0168896 0 0.000304685)
(-0.0173037 0 0.000332856)
(-0.0177521 0 0.000358167)
(-0.0181785 0 0.000299814)
(-0.0185402 0 0.000258815)
(-0.0188846 0 0.000261469)
(-0.0192393 0 0.000278559)
(-0.0195891 0 0.00025621)
(-0.0198912 0 0.000211152)
(-0.0201586 0 0.000186396)
(-0.0203976 0 0.000170201)
(-0.0206283 0 0.000176704)
(-0.0208598 0 0.000173117)
(-0.0210753 0 0.000157639)
(-0.0212744 0 0.000148417)
(-0.0214728 0 0.000157462)
(-0.0216726 0 0.000150365)
(-0.02185 0 0.000122153)
(-0.0219905 0 9.927e-05)
(-0.0221163 0 9.48677e-05)
(-0.0222332 0 8.08446e-05)
(-0.0223202 0 5.43802e-05)
(-0.0223677 0 1.98898e-05)
(-0.0223704 0 -1.71507e-05)
(-0.022328 0 -5.16689e-05)
(-0.0222417 0 -8.81314e-05)
(-0.0221042 0 -0.000135437)
(-0.0219016 0 -0.000196223)
(-0.021619 0 -0.000272637)
(-0.0212283 0 -0.000390204)
(-0.0206763 0 -0.000589541)
(-0.0198679 0 -0.000882295)
(-0.0185862 0 -0.00135147)
(-0.0168537 0 -0.00217768)
(-0.0154658 0 -0.00318491)
(-0.0110491 0 -0.00171199)
(-0.0101943 0 0.000300839)
(-0.00931681 0 0.000869956)
(-0.00947286 0 0.00121254)
(-0.00955962 0 0.000117485)
(-0.00968517 0 -0.000117254)
(-0.0100547 0 -0.000206162)
(-0.0101782 0 -7.10062e-05)
(-0.0100829 0 2.00003e-05)
(-0.0101078 0 0.00016602)
(-0.0101443 0 0.000195779)
(-0.0102076 0 9.24628e-05)
(-0.0102508 0 5.24589e-05)
(-0.0103137 0 1.04443e-05)
(-0.0103271 0 -7.31305e-06)
(-0.0103122 0 -1.70173e-05)
(-0.0102886 0 -4.15222e-05)
(-0.0102206 0 -8.47044e-05)
(-0.0101312 0 -0.000148703)
(-0.00988074 0 -0.000225179)
(-0.00988496 0 -0.000395903)
(-0.00906805 0 -0.000298107)
(-0.00915137 0 -3.84628e-05)
(-0.00898552 0 0.00015394)
(-0.00904195 0 0.000165936)
(-0.00903205 0 2.17188e-06)
(-0.00902096 0 -2.41554e-05)
(-0.00904146 0 -3.51316e-05)
(-0.0090201 0 -3.61798e-05)
(-0.00897196 0 -3.45912e-05)
(-0.00892814 0 -2.89986e-05)
(-0.00888429 0 -3.30669e-05)
(-0.0088323 0 -4.65186e-05)
(-0.00876961 0 -5.73013e-05)
(-0.00869569 0 -7.32793e-05)
(-0.00859993 0 -9.74352e-05)
(-0.0084892 0 -0.000135321)
(-0.00826801 0 -0.000185833)
(-0.00825696 0 -0.000324722)
(-0.00755917 0 -0.000254995)
(-0.00760306 0 -6.71681e-05)
(-0.00744549 0 7.90483e-05)
(-0.00745315 0 9.1724e-05)
(-0.00741781 0 -2.25303e-05)
(-0.00737799 0 -3.62258e-05)
(-0.00736308 0 -4.15076e-05)
(-0.0073226 0 -4.3273e-05)
(-0.00726793 0 -3.8683e-05)
(-0.00721812 0 -4.04024e-05)
(-0.0071624 0 -4.62786e-05)
(-0.00710218 0 -4.89161e-05)
(-0.00704036 0 -5.13681e-05)
(-0.00697447 0 -5.4227e-05)
(-0.00690578 0 -5.51907e-05)
(-0.0068356 0 -5.68637e-05)
(-0.00676334 0 -5.8321e-05)
(-0.00668931 0 -5.95751e-05)
(-0.00661383 0 -6.07113e-05)
(-0.0065372 0 -6.15085e-05)
(-0.00645977 0 -6.22091e-05)
(-0.00638144 0 -6.30359e-05)
(-0.00630213 0 -6.38403e-05)
(-0.00622187 0 -6.46519e-05)
(-0.00614057 0 -6.54528e-05)
(-0.0060583 0 -6.61384e-05)
(-0.00597523 0 -6.66577e-05)
(-0.0058913 0 -6.73382e-05)
(-0.00580633 0 -6.80259e-05)
(-0.00572044 0 -6.85347e-05)
(-0.00563399 0 -6.87593e-05)
(-0.00554707 0 -6.90769e-05)
(-0.00545967 0 -6.93292e-05)
(-0.00537198 0 -6.9548e-05)
(-0.00528405 0 -6.97107e-05)
(-0.00519599 0 -6.97889e-05)
(-0.00510794 0 -6.98185e-05)
(-0.00502008 0 -6.96841e-05)
(-0.00493251 0 -6.95835e-05)
(-0.00484521 0 -6.9466e-05)
(-0.00475824 0 -6.93117e-05)
(-0.00467162 0 -6.91418e-05)
(-0.00458538 0 -6.88983e-05)
(-0.00449956 0 -6.86234e-05)
(-0.00441416 0 -6.83616e-05)
(-0.00432913 0 -6.81105e-05)
(-0.00424448 0 -6.77957e-05)
(-0.00416024 0 -6.74055e-05)
(-0.00407645 0 -6.69995e-05)
(-0.00399307 0 -6.66191e-05)
(-0.00391008 0 -6.62066e-05)
(-0.00382753 0 -6.57478e-05)
(-0.00374548 0 -6.52306e-05)
(-0.00366399 0 -6.47383e-05)
(-0.003583 0 -6.42617e-05)
(-0.00350257 0 -6.37169e-05)
(-0.00342279 0 -6.30995e-05)
(-0.0033437 0 -6.2503e-05)
(-0.00326528 0 -6.19034e-05)
(-0.00318758 0 -6.12426e-05)
(-0.00311069 0 -6.05412e-05)
(-0.00303463 0 -5.98506e-05)
(-0.00295939 0 -5.91492e-05)
(-0.00288501 0 -5.84079e-05)
(-0.00281154 0 -5.76481e-05)
(-0.00273899 0 -5.69081e-05)
(-0.00266735 0 -5.61731e-05)
(-0.00259666 0 -5.54086e-05)
(-0.00252696 0 -5.46152e-05)
(-0.00245827 0 -5.38205e-05)
(-0.00239058 0 -5.30109e-05)
(-0.00232391 0 -5.21731e-05)
(-0.00225828 0 -5.13136e-05)
(-0.00219374 0 -5.0454e-05)
(-0.00213028 0 -4.96083e-05)
(-0.00206791 0 -4.8767e-05)
(-0.00200663 0 -4.79116e-05)
(-0.00194648 0 -4.7032e-05)
(-0.00188746 0 -4.61331e-05)
(-0.00182955 0 -4.52228e-05)
(-0.00177277 0 -4.43084e-05)
(-0.00171711 0 -4.33952e-05)
(-0.00166259 0 -4.24935e-05)
(-0.00160919 0 -4.16012e-05)
(-0.00155694 0 -4.07183e-05)
(-0.00150583 0 -3.98399e-05)
(-0.00145585 0 -3.89567e-05)
(-0.00140701 0 -3.80623e-05)
(-0.00135932 0 -3.71671e-05)
(-0.00131274 0 -3.62845e-05)
(-0.00126726 0 -3.54182e-05)
(-0.00122286 0 -3.4578e-05)
(-0.00117951 0 -3.37736e-05)
(-0.00113717 0 -3.29851e-05)
(-0.00109584 0 -3.2177e-05)
(-0.00105557 0 -3.13464e-05)
(-0.00101638 0 -3.05158e-05)
(-0.000978266 0 -2.9682e-05)
(-0.000941221 0 -2.88291e-05)
(-0.000905256 0 -2.79683e-05)
(-0.000870339 0 -2.71409e-05)
(-0.000836405 0 -2.63623e-05)
(-0.000803406 0 -2.56066e-05)
(-0.000771341 0 -2.48633e-05)
(-0.000740209 0 -2.41475e-05)
(-0.000709989 0 -2.34599e-05)
(-0.000680671 0 -2.27704e-05)
(-0.000652268 0 -2.20614e-05)
(-0.000624779 0 -2.13503e-05)
(-0.000598164 0 -2.06646e-05)
(-0.000572375 0 -2.00073e-05)
(-0.000547379 0 -1.9375e-05)
(-0.000523157 0 -1.87743e-05)
(-0.000499686 0 -1.82115e-05)
(-0.000476945 0 -1.76739e-05)
(-0.000454929 0 -1.71409e-05)
(-0.000433635 0 -1.65988e-05)
(-0.000413051 0 -1.60366e-05)
(-0.000393165 0 -1.54488e-05)
(-0.000373963 0 -1.48471e-05)
(-0.000355425 0 -1.42667e-05)
(-0.000337516 0 -1.37457e-05)
(-0.000320198 0 -1.3297e-05)
(-0.000303449 0 -1.29057e-05)
(-0.000287265 0 -1.25445e-05)
(-0.000271644 0 -1.21876e-05)
(-0.000256579 0 -1.18162e-05)
(-0.000242055 0 -1.14229e-05)
(-0.00022805 0 -1.10166e-05)
(-0.000214531 0 -1.06089e-05)
(-0.000201467 0 -1.02015e-05)
(-0.000188849 0 -9.78697e-06)
(-0.000176692 0 -9.37099e-06)
(-0.000165005 0 -8.98088e-06)
(-0.000153767 0 -8.6391e-06)
(-0.000142937 0 -8.33964e-06)
(-0.000132486 0 -8.0516e-06)
(-0.000122412 0 -7.75853e-06)
(-0.000112715 0 -7.47756e-06)
(-0.000103369 0 -7.23502e-06)
(-9.43272e-05 0 -7.03006e-06)
(-8.55606e-05 0 -6.83149e-06)
(-7.70787e-05 0 -6.61043e-06)
(-6.89059e-05 0 -6.3627e-06)
(-6.10538e-05 0 -6.10293e-06)
(-5.35192e-05 0 -5.84095e-06)
(-4.62967e-05 0 -5.58116e-06)
(-3.93843e-05 0 -5.33016e-06)
(-3.27733e-05 0 -5.09418e-06)
(-2.64487e-05 0 -4.87013e-06)
(-2.04004e-05 0 -4.65292e-06)
(-1.46194e-05 0 -4.44759e-06)
(-9.08455e-06 0 -4.26764e-06)
(-3.76791e-06 0 -4.11201e-06)
(1.34773e-06 0 -3.96467e-06)
(6.26101e-06 0 -3.81375e-06)
(1.0967e-05 0 -3.65906e-06)
(1.54665e-05 0 -3.503e-06)
(1.97602e-05 0 -3.3433e-06)
(2.38439e-05 0 -3.17703e-06)
(2.77128e-05 0 -3.00493e-06)
(3.13664e-05 0 -2.82543e-06)
(3.48035e-05 0 -2.63732e-06)
(3.8021e-05 0 -2.44837e-06)
(4.10259e-05 0 -2.27693e-06)
(4.38439e-05 0 -2.13887e-06)
(4.65099e-05 0 -2.03411e-06)
(4.90531e-05 0 -1.9519e-06)
(5.14915e-05 0 -1.88321e-06)
(5.38381e-05 0 -1.82573e-06)
(5.61065e-05 0 -1.77973e-06)
(5.83097e-05 0 -1.74131e-06)
(6.04534e-05 0 -1.70258e-06)
(6.25338e-05 0 -1.65515e-06)
(6.45386e-05 0 -1.59586e-06)
(6.64555e-05 0 -1.52505e-06)
(6.82702e-05 0 -1.436e-06)
(6.99635e-05 0 -1.327e-06)
(7.15184e-05 0 -1.20362e-06)
(7.29266e-05 0 -1.07741e-06)
(7.41914e-05 0 -9.58901e-07)
(7.5323e-05 0 -8.5178e-07)
(7.63315e-05 0 -7.54477e-07)
(7.72252e-05 0 -6.64345e-07)
(7.80145e-05 0 -5.8355e-07)
(7.87137e-05 0 -5.17179e-07)
(7.93427e-05 0 -4.69128e-07)
(7.99229e-05 0 -4.40273e-07)
(8.04731e-05 0 -4.2609e-07)
(8.1005e-05 0 -4.19669e-07)
(8.15233e-05 0 -4.1497e-07)
(8.20275e-05 0 -4.07889e-07)
(8.25134e-05 0 -3.9548e-07)
(8.2974e-05 0 -3.75466e-07)
(8.34011e-05 0 -3.46709e-07)
(8.37883e-05 0 -3.09437e-07)
(8.41295e-05 0 -2.67295e-07)
(8.44213e-05 0 -2.24585e-07)
(8.46653e-05 0 -1.8545e-07)
(8.48667e-05 0 -1.52595e-07)
(8.50335e-05 0 -1.26504e-07)
(8.51741e-05 0 -1.05663e-07)
(8.52946e-05 0 -8.78118e-08)
(8.53975e-05 0 -7.24695e-08)
(8.5483e-05 0 -6.17019e-08)
(8.55517e-05 0 -5.75509e-08)
(8.56059e-05 0 -5.67684e-08)
(8.56456e-05 0 -4.88371e-08)
(8.56613e-05 0 -1.99845e-08)
(8.56306e-05 0 3.46056e-08)
(8.55306e-05 0 1.02399e-07)
(8.53537e-05 0 1.63624e-07)
(8.51132e-05 0 2.07845e-07)
(8.48302e-05 0 2.40898e-07)
(8.4517e-05 0 2.70671e-07)
(8.41782e-05 0 2.91345e-07)
(8.38259e-05 0 2.88127e-07)
(8.3486e-05 0 2.58582e-07)
(8.31806e-05 0 2.2258e-07)
(8.29039e-05 0 2.0699e-07)
(8.26245e-05 0 2.17474e-07)
(8.23171e-05 0 2.37704e-07)
(8.19782e-05 0 2.59183e-07)
(8.16077e-05 0 2.91348e-07)
(8.11927e-05 0 3.43213e-07)
(8.07145e-05 0 4.05009e-07)
(8.01722e-05 0 4.55371e-07)
(7.95858e-05 0 4.84998e-07)
(7.89758e-05 0 5.01327e-07)
(7.83507e-05 0 5.10525e-07)
(7.77173e-05 0 5.08627e-07)
(7.70886e-05 0 4.95213e-07)
(7.64718e-05 0 4.81766e-07)
(7.58582e-05 0 4.79655e-07)
(7.52335e-05 0 4.90576e-07)
(7.45872e-05 0 5.13799e-07)
(7.39079e-05 0 5.51209e-07)
(7.31804e-05 0 5.98513e-07)
(7.24005e-05 0 6.41443e-07)
(7.15834e-05 0 6.68279e-07)
(7.07515e-05 0 6.7994e-07)
(6.99186e-05 0 6.81126e-07)
(6.90917e-05 0 6.70725e-07)
(6.82795e-05 0 6.48136e-07)
(6.74884e-05 0 6.24009e-07)
(6.6711e-05 0 6.14868e-07)
(6.59261e-05 0 6.28297e-07)
(6.51128e-05 0 6.5743e-07)
(6.42624e-05 0 6.90477e-07)
(6.33777e-05 0 7.20355e-07)
(6.24662e-05 0 7.43802e-07)
(6.15388e-05 0 7.55606e-07)
(6.06117e-05 0 7.49719e-07)
(5.97035e-05 0 7.26585e-07)
(5.88264e-05 0 6.96503e-07)
(5.79787e-05 0 6.72758e-07)
(5.71476e-05 0 6.61907e-07)
(5.63194e-05 0 6.6084e-07)
(5.54883e-05 0 6.63208e-07)
(5.4655e-05 0 6.67509e-07)
(5.38192e-05 0 6.74906e-07)
(5.29793e-05 0 6.79379e-07)
(5.21442e-05 0 6.68634e-07)
(5.13347e-05 0 6.38042e-07)
(5.05665e-05 0 5.97987e-07)
(4.98353e-05 0 5.65601e-07)
(4.91219e-05 0 5.52392e-07)
(4.84036e-05 0 5.62694e-07)
(4.76619e-05 0 5.91066e-07)
(4.68896e-05 0 6.22232e-07)
(4.6097e-05 0 6.40625e-07)
(4.53038e-05 0 6.40451e-07)
(4.4527e-05 0 6.23899e-07)
(4.37764e-05 0 5.97797e-07)
(4.30515e-05 0 5.74145e-07)
(4.23382e-05 0 5.6549e-07)
(4.1615e-05 0 5.77008e-07)
(4.08639e-05 0 6.05198e-07)
(4.00762e-05 0 6.42209e-07)
(3.92545e-05 0 6.75522e-07)
(3.84142e-05 0 6.88465e-07)
(3.75829e-05 0 6.70198e-07)
(3.67879e-05 0 6.3014e-07)
(3.60358e-05 0 5.92457e-07)
(3.53095e-05 0 5.74494e-07)
(3.45839e-05 0 5.74799e-07)
(3.38514e-05 0 5.81662e-07)
(3.31167e-05 0 5.93455e-07)
(3.23757e-05 0 6.01783e-07)
(3.16393e-05 0 5.86489e-07)
(3.09312e-05 0 5.53033e-07)
(3.02523e-05 0 5.27928e-07)
(2.95834e-05 0 5.25565e-07)
(2.89061e-05 0 5.40436e-07)
(2.82132e-05 0 5.57273e-07)
(2.7516e-05 0 5.5828e-07)
(2.68393e-05 0 5.40056e-07)
(2.61932e-05 0 5.17032e-07)
(2.5566e-05 0 4.94339e-07)
(2.49594e-05 0 4.75656e-07)
(2.43629e-05 0 4.73479e-07)
(2.37644e-05 0 4.76475e-07)
(2.31698e-05 0 4.62857e-07)
(2.26029e-05 0 4.48923e-07)
(2.20389e-05 0 4.61065e-07)
(2.1445e-05 0 4.77791e-07)
(2.08338e-05 0 4.77944e-07)
(2.01782e-05 0 5.07147e-07)
(1.95785e-05 0 4.85314e-07)
(1.90657e-05 0 5.61685e-07)
(1.84922e-05 0 4.94712e-07)
(1.81412e-05 0 3.18003e-07)
(1.75958e-05 0 1.6346e-07)
(1.76556e-05 0 1.2485e-07)
(1.71687e-05 0 2.05723e-07)
(1.70012e-05 0 1.50537e-07)
(1.67569e-05 0 1.51604e-07)
(1.65372e-05 0 1.68174e-07)
(1.62879e-05 0 2.25706e-07)
(1.59518e-05 0 2.56692e-07)
(1.56666e-05 0 2.37759e-07)
(1.53593e-05 0 2.43965e-07)
(1.50929e-05 0 1.54635e-07)
(1.49298e-05 0 1.99242e-07)
(1.45646e-05 0 2.96748e-07)
(1.4189e-05 0 2.94645e-07)
(1.38263e-05 0 2.87157e-07)
(1.35268e-05 0 2.53053e-07)
(1.32789e-05 0 2.78637e-07)
(1.29575e-05 0 2.25633e-07)
(1.27493e-05 0 1.29112e-07)
(1.26419e-05 0 5.82955e-08)
(1.26116e-05 0 -3.98666e-08)
(1.25256e-05 0 6.17588e-08)
(1.24113e-05 0 2.8288e-08)
(1.23721e-05 0 1.365e-07)
(1.21351e-05 0 1.49557e-07)
(1.19737e-05 0 2.73897e-07)
(1.16252e-05 0 1.78414e-07)
(1.16221e-05 0 -3.83117e-09)
(1.14867e-05 0 2.24565e-07)
(1.12128e-05 0 2.69773e-08)
(1.13635e-05 0 -1.42725e-08)
(1.11688e-05 0 2.07902e-07)
(1.11027e-05 0 9.26994e-08)
(1.06442e-05 0 -4.18129e-10)
(1.02125e-05 0 8.25618e-08)
(1.01029e-05 0 4.22474e-07)
(9.53863e-06 0 1.22976e-06)
(9.33126e-06 0 5.22616e-07)
(1.05107e-05 0 2.3491e-07)
(9.24263e-06 0 -1.4271e-06)
(1.5969e-05 0 -2.67028e-06)
(1.48319e-05 0 -7.56865e-07)
(1.57158e-05 0 -5.33876e-07)
(1.60208e-05 0 -1.37828e-07)
(1.59726e-05 0 5.78931e-08)
(1.57828e-05 0 1.52334e-07)
(1.54563e-05 0 2.69595e-07)
(1.49591e-05 0 4.38668e-07)
(1.43152e-05 0 5.73769e-07)
(1.35818e-05 0 6.37415e-07)
(1.27881e-05 0 6.6617e-07)
(1.19667e-05 0 6.50247e-07)
(1.12008e-05 0 5.66638e-07)
(1.05427e-05 0 4.62848e-07)
(9.95768e-06 0 4.17566e-07)
(9.38251e-06 0 4.34763e-07)
(8.78853e-06 0 4.55869e-07)
(8.20432e-06 0 4.34752e-07)
(7.68035e-06 0 3.75328e-07)
(7.24654e-06 0 3.12535e-07)
(6.87695e-06 0 2.72727e-07)
(6.52241e-06 0 2.70019e-07)
(6.14562e-06 0 3.02145e-07)
(5.71056e-06 0 3.55466e-07)
(5.20434e-06 0 4.15347e-07)
(4.63984e-06 0 4.63554e-07)
(4.03775e-06 0 4.9195e-07)
(3.42728e-06 0 4.98778e-07)
(2.83824e-06 0 4.82841e-07)
(2.30402e-06 0 4.32058e-07)
(1.86401e-06 0 3.45117e-07)
(1.5572e-06 0 2.09522e-07)
(1.44033e-06 0 3.81788e-08)
(1.52843e-06 0 -1.56085e-07)
(1.82141e-06 0 -3.34677e-07)
(2.29823e-06 0 -4.75578e-07)
(2.89748e-06 0 -5.62776e-07)
(3.57218e-06 0 -5.97899e-07)
(4.27399e-06 0 -5.93074e-07)
(4.96834e-06 0 -5.62775e-07)
(5.6273e-06 0 -5.15791e-07)
(6.22193e-06 0 -4.47676e-07)
(6.72246e-06 0 -3.52633e-07)
(7.08466e-06 0 -2.28116e-07)
(7.28108e-06 0 -9.36804e-08)
(7.33097e-06 0 2.07541e-08)
(7.28976e-06 0 8.9677e-08)
(7.226e-06 0 9.10787e-08)
(7.20015e-06 0 2.49591e-08)
(7.27363e-06 0 -9.40397e-08)
(7.50252e-06 0 -2.45178e-07)
(7.90933e-06 0 -3.99111e-07)
(8.45641e-06 0 -4.93364e-07)
(9.02565e-06 0 -4.4962e-07)
(9.45829e-06 0 -2.4526e-07)
(9.61289e-06 0 8.34763e-09)
(9.55702e-06 0 1.49981e-07)
(9.53061e-06 0 7.16479e-09)
(9.78155e-06 0 -3.41943e-07)
(1.02852e-05 0 -5.26594e-07)
(1.06663e-05 0 -2.91873e-07)
(1.05278e-05 0 3.40506e-07)
(9.78892e-06 0 8.20896e-07)
(8.92635e-06 0 7.68368e-07)
(8.51724e-06 0 2.16656e-07)
(8.51227e-06 0 -8.01047e-08)
(8.30734e-06 0 2.95073e-07)
(7.53639e-06 0 8.55478e-07)
(6.58043e-06 0 7.75107e-07)
(6.30525e-06 0 -4.93709e-08)
(6.71646e-06 0 -4.57912e-07)
(6.8932e-06 0 -5.96589e-08)
(6.67149e-06 0 2.17459e-07)
(6.86734e-06 0 -5.00204e-07)
(7.7705e-06 0 -1.1336e-06)
(8.35997e-06 0 -3.39948e-07)
(8.06698e-06 0 4.41834e-07)
(7.69072e-06 0 1.85762e-07)
(7.14837e-06 0 7.45983e-07)
(6.75736e-06 0 8.85935e-07)
(3.43602e-06 0 1.3695e-06)
(-0.00736141 0 -0.00158538)
(-0.00214184 0 -0.000393715)
(-0.00314468 0 -0.000269206)
(-0.00318289 0 -0.000324996)
(-0.00302666 0 -0.000118198)
(-0.00302121 0 4.43973e-05)
(-0.00300385 0 0.000104968)
(-0.00303205 0 0.000169447)
(-0.003087 0 0.000224407)
(-0.00317324 0 0.000262227)
(-0.00329169 0 0.000324628)
(-0.00344617 0 0.000402688)
(-0.00363587 0 0.000480607)
(-0.00385533 0 0.000597257)
(-0.0041029 0 0.000639301)
(-0.00437936 0 0.000680106)
(-0.00468164 0 0.00072362)
(-0.00500196 0 0.000765095)
(-0.00534161 0 0.000811082)
(-0.00570386 0 0.000868203)
(-0.00608194 0 0.000944117)
(-0.00647371 0 0.000984242)
(-0.00688353 0 0.000989005)
(-0.00730999 0 0.000972027)
(-0.00774559 0 0.001016)
(-0.00818517 0 0.00105983)
(-0.00862933 0 0.00108813)
(-0.00909189 0 0.00110859)
(-0.00957106 0 0.00110479)
(-0.0100574 0 0.00115854)
(-0.0105846 0 0.00124107)
(-0.0111552 0 0.00124185)
(-0.0117144 0 0.00113365)
(-0.0121839 0 0.00105533)
(-0.0125985 0 0.00111252)
(-0.013061 0 0.0012001)
(-0.0135794 0 0.00117401)
(-0.0141122 0 0.00106614)
(-0.0146082 0 0.00109036)
(-0.0150449 0 0.00109509)
(-0.0154871 0 0.00115245)
(-0.0159623 0 0.00116)
(-0.0164279 0 0.00100762)
(-0.0168469 0 0.000916529)
(-0.0172446 0 0.000963637)
(-0.0176526 0 0.00103373)
(-0.0180651 0 0.000911562)
(-0.0184675 0 0.000820914)
(-0.0188588 0 0.000821054)
(-0.0192374 0 0.000844926)
(-0.0195958 0 0.000778727)
(-0.019927 0 0.000669243)
(-0.0202358 0 0.000608136)
(-0.0205182 0 0.000551593)
(-0.0207749 0 0.000545278)
(-0.0210173 0 0.000530494)
(-0.0212416 0 0.000481753)
(-0.0214448 0 0.000447512)
(-0.0216383 0 0.000463123)
(-0.0218238 0 0.000445321)
(-0.0219952 0 0.000365042)
(-0.0221318 0 0.000293091)
(-0.0222542 0 0.000289522)
(-0.0223782 0 0.000258649)
(-0.0224808 0 0.000177755)
(-0.0225368 0 5.95412e-05)
(-0.0225434 0 -4.57691e-05)
(-0.0225107 0 -0.000144756)
(-0.022438 0 -0.00024994)
(-0.0223271 0 -0.000371496)
(-0.0221808 0 -0.000518777)
(-0.0219895 0 -0.000709065)
(-0.0217373 0 -0.00098361)
(-0.0214299 0 -0.00137644)
(-0.0210829 0 -0.00190483)
(-0.020732 0 -0.00268177)
(-0.0205633 0 -0.00406961)
(-0.0206179 0 -0.0053727)
(-0.0200121 0 -0.00558272)
(-0.0187535 0 -0.00292343)
(-0.0174048 0 -0.00221757)
(-0.0125338 0 -0.000943329)
(-0.0113532 0 0.000209766)
(-0.0101575 0 0.000860951)
(-0.00996041 0 0.00116938)
(-0.00976723 0 0.000110722)
(-0.00977528 0 -8.10816e-05)
(-0.00991242 0 -0.00015034)
(-0.0102953 0 -5.80753e-05)
(-0.0104333 0 1.59104e-05)
(-0.0103551 0 9.89225e-05)
(-0.0103772 0 0.00011246)
(-0.0103556 0 -9.23685e-06)
(-0.0103547 0 -4.87287e-05)
(-0.0103743 0 -0.000107015)
(-0.0103544 0 -0.000183516)
(-0.0103258 0 -0.000271411)
(-0.0102908 0 -0.000401987)
(-0.0102979 0 -0.000614675)
(-0.0103389 0 -0.000607444)
(-0.0101351 0 -0.00040167)
(-0.0101193 0 -0.000321828)
(-0.0092629 0 -0.000191062)
(-0.00930385 0 -9.53779e-05)
(-0.00908668 0 7.45736e-05)
(-0.00906869 0 7.44739e-05)
(-0.00902074 0 -8.7193e-05)
(-0.00896227 0 -0.00011397)
(-0.00892951 0 -0.000129234)
(-0.00891422 0 -0.000128585)
(-0.00887164 0 -0.000146015)
(-0.00880895 0 -0.000157759)
(-0.00875064 0 -0.000188138)
(-0.00868375 0 -0.000236543)
(-0.00861875 0 -0.000297148)
(-0.00854584 0 -0.000381554)
(-0.00851261 0 -0.000550811)
(-0.00850762 0 -0.0005442)
(-0.00833088 0 -0.000383196)
(-0.00830102 0 -0.000328403)
(-0.0075829 0 -0.000222065)
(-0.00759304 0 -0.000151043)
(-0.00740502 0 -1.62736e-05)
(-0.00736861 0 -1.16336e-05)
(-0.00731371 0 -0.000121745)
(-0.00725963 0 -0.000129539)
(-0.00722516 0 -0.000134712)
(-0.00717094 0 -0.000144711)
(-0.00710518 0 -0.000144876)
(-0.00704335 0 -0.000151049)
(-0.0069778 0 -0.000161133)
(-0.0069088 0 -0.000165505)
(-0.00683881 0 -0.000170219)
(-0.00676623 0 -0.000175196)
(-0.0066913 0 -0.000178998)
(-0.00661526 0 -0.000182413)
(-0.00653837 0 -0.000184948)
(-0.0064605 0 -0.000187321)
(-0.00638156 0 -0.000189805)
(-0.00630166 0 -0.000192163)
(-0.00622079 0 -0.000194492)
(-0.00613893 0 -0.000196646)
(-0.00605613 0 -0.000198564)
(-0.00597242 0 -0.000200029)
(-0.00588789 0 -0.000201781)
(-0.00580255 0 -0.000203528)
(-0.00571651 0 -0.000204857)
(-0.00562988 0 -0.000205583)
(-0.00554276 0 -0.000206505)
(-0.00545526 0 -0.00020722)
(-0.00536757 0 -0.000207802)
(-0.00527973 0 -0.000208335)
(-0.00519178 0 -0.000208698)
(-0.00510386 0 -0.000208902)
(-0.00501609 0 -0.000208767)
(-0.00492849 0 -0.000208681)
(-0.00484111 0 -0.000208505)
(-0.00475405 0 -0.000208165)
(-0.00466733 0 -0.000207737)
(-0.00458101 0 -0.000207136)
(-0.00449506 0 -0.000206433)
(-0.00440952 0 -0.000205636)
(-0.00432441 0 -0.000204767)
(-0.00423972 0 -0.000203773)
(-0.0041554 0 -0.000202639)
(-0.00407146 0 -0.000201414)
(-0.00398793 0 -0.00020017)
(-0.00390482 0 -0.00019883)
(-0.00382216 0 -0.000197374)
(-0.00374001 0 -0.000195755)
(-0.00365842 0 -0.000194133)
(-0.00357741 0 -0.000192524)
(-0.003497 0 -0.000190784)
(-0.00341724 0 -0.000188898)
(-0.00333815 0 -0.000187037)
(-0.00325973 0 -0.000185167)
(-0.00318204 0 -0.000183183)
(-0.00310511 0 -0.00018111)
(-0.00302899 0 -0.000179039)
(-0.0029537 0 -0.000176942)
(-0.00287924 0 -0.00017475)
(-0.00280567 0 -0.000172491)
(-0.00273301 0 -0.000170236)
(-0.00266129 0 -0.000167961)
(-0.00259054 0 -0.0001656)
(-0.00252079 0 -0.000163172)
(-0.00245207 0 -0.000160755)
(-0.00238438 0 -0.000158334)
(-0.00231772 0 -0.000155855)
(-0.00225211 0 -0.000153302)
(-0.0021876 0 -0.000150713)
(-0.00212421 0 -0.000148127)
(-0.00206194 0 -0.000145526)
(-0.0020008 0 -0.000142886)
(-0.0019408 0 -0.000140209)
(-0.00188192 0 -0.00013753)
(-0.00182415 0 -0.000134852)
(-0.0017675 0 -0.00013216)
(-0.00171198 0 -0.000129465)
(-0.00165759 0 -0.000126796)
(-0.00160432 0 -0.000124152)
(-0.00155216 0 -0.000121519)
(-0.00150111 0 -0.000118889)
(-0.00145117 0 -0.000116247)
(-0.00140233 0 -0.000113582)
(-0.00135461 0 -0.000110913)
(-0.00130803 0 -0.000108265)
(-0.0012626 0 -0.000105647)
(-0.00121833 0 -0.000103084)
(-0.0011752 0 -0.000100607)
(-0.00113317 0 -9.81903e-05)
(-0.0010922 0 -9.5766e-05)
(-0.00105225 0 -9.33093e-05)
(-0.0010133 0 -9.08604e-05)
(-0.000975329 0 -8.84142e-05)
(-0.000938335 0 -8.59408e-05)
(-0.000902337 0 -8.34523e-05)
(-0.000867355 0 -8.10229e-05)
(-0.000833392 0 -7.86881e-05)
(-0.000800443 0 -7.64019e-05)
(-0.000768502 0 -7.41444e-05)
(-0.000737548 0 -7.19476e-05)
(-0.000707538 0 -6.98244e-05)
(-0.000678423 0 -6.77318e-05)
(-0.000650163 0 -6.56408e-05)
(-0.000622733 0 -6.35868e-05)
(-0.000596114 0 -6.16124e-05)
(-0.000570293 0 -5.9708e-05)
(-0.00054528 0 -5.78467e-05)
(-0.000521082 0 -5.60336e-05)
(-0.000497695 0 -5.42861e-05)
(-0.000475094 0 -5.25929e-05)
(-0.000453246 0 -5.09276e-05)
(-0.000432109 0 -4.92777e-05)
(-0.000411644 0 -4.76366e-05)
(-0.000391818 0 -4.59938e-05)
(-0.000372618 0 -4.43609e-05)
(-0.000354045 0 -4.2788e-05)
(-0.000336096 0 -4.13307e-05)
(-0.000318765 0 -4e-05)
(-0.000302036 0 -3.87676e-05)
(-0.000285887 0 -3.75857e-05)
(-0.000270288 0 -3.64115e-05)
(-0.000255217 0 -3.52096e-05)
(-0.000240664 0 -3.39628e-05)
(-0.000226634 0 -3.26967e-05)
(-0.00021312 0 -3.1453e-05)
(-0.000200104 0 -3.02508e-05)
(-0.000187553 0 -2.90816e-05)
(-0.000175443 0 -2.79383e-05)
(-0.000163765 0 -2.68486e-05)
(-0.00015251 0 -2.58498e-05)
(-0.00014166 0 -2.49392e-05)
(-0.00013119 0 -2.40678e-05)
(-0.000121088 0 -2.31999e-05)
(-0.000111359 0 -2.23585e-05)
(-0.000102006 0 -2.15929e-05)
(-9.30166e-05 0 -2.09078e-05)
(-8.43683e-05 0 -2.0245e-05)
(-7.60418e-05 0 -1.9546e-05)
(-6.80277e-05 0 -1.88053e-05)
(-6.03146e-05 0 -1.80568e-05)
(-5.28865e-05 0 -1.73206e-05)
(-4.57342e-05 0 -1.65946e-05)
(-3.88584e-05 0 -1.58828e-05)
(-3.22591e-05 0 -1.52017e-05)
(-2.59272e-05 0 -1.45566e-05)
(-1.985e-05 0 -1.39392e-05)
(-1.40216e-05 0 -1.33543e-05)
(-8.4383e-06 0 -1.28172e-05)
(-3.09285e-06 0 -1.2322e-05)
(2.01861e-06 0 -1.18371e-05)
(6.89624e-06 0 -1.13428e-05)
(1.1542e-05 0 -1.08451e-05)
(1.59631e-05 0 -1.03519e-05)
(2.01669e-05 0 -9.85651e-06)
(2.41578e-05 0 -9.35182e-06)
(2.79432e-05 0 -8.84393e-06)
(3.15372e-05 0 -8.33885e-06)
(3.49547e-05 0 -7.83644e-06)
(3.82047e-05 0 -7.3448e-06)
(4.12902e-05 0 -6.89108e-06)
(4.42159e-05 0 -6.50374e-06)
(4.69922e-05 0 -6.18685e-06)
(4.96311e-05 0 -5.92221e-06)
(5.21419e-05 0 -5.69136e-06)
(5.45321e-05 0 -5.48855e-06)
(5.68109e-05 0 -5.31341e-06)
(5.89881e-05 0 -5.15752e-06)
(6.10701e-05 0 -5.00274e-06)
(6.30578e-05 0 -4.82962e-06)
(6.49483e-05 0 -4.62828e-06)
(6.67383e-05 0 -4.39607e-06)
(6.84257e-05 0 -4.12701e-06)
(7.00097e-05 0 -3.82238e-06)
(7.14888e-05 0 -3.49466e-06)
(7.28608e-05 0 -3.16439e-06)
(7.41247e-05 0 -2.84946e-06)
(7.52821e-05 0 -2.55715e-06)
(7.63383e-05 0 -2.28675e-06)
(7.73005e-05 0 -2.03773e-06)
(7.81769e-05 0 -1.8165e-06)
(7.89764e-05 0 -1.63272e-06)
(7.97091e-05 0 -1.49288e-06)
(8.03845e-05 0 -1.39484e-06)
(8.10102e-05 0 -1.32786e-06)
(8.15915e-05 0 -1.27777e-06)
(8.21317e-05 0 -1.2319e-06)
(8.26317e-05 0 -1.18136e-06)
(8.30914e-05 0 -1.12031e-06)
(8.35111e-05 0 -1.04502e-06)
(8.38914e-05 0 -9.54497e-07)
(8.42323e-05 0 -8.50557e-07)
(8.45351e-05 0 -7.38733e-07)
(8.4802e-05 0 -6.26309e-07)
(8.5034e-05 0 -5.21099e-07)
(8.52328e-05 0 -4.30359e-07)
(8.54013e-05 0 -3.58397e-07)
(8.55442e-05 0 -3.04208e-07)
(8.5666e-05 0 -2.60669e-07)
(8.5768e-05 0 -2.18254e-07)
(8.58456e-05 0 -1.71766e-07)
(8.5889e-05 0 -1.22687e-07)
(8.58897e-05 0 -7.37262e-08)
(8.58461e-05 0 -1.76032e-08)
(8.57638e-05 0 6.61105e-08)
(8.56482e-05 0 1.94861e-07)
(8.54973e-05 0 3.58458e-07)
(8.53038e-05 0 5.20194e-07)
(8.50671e-05 0 6.44421e-07)
(8.47989e-05 0 7.26378e-07)
(8.45146e-05 0 7.84936e-07)
(8.42185e-05 0 8.27318e-07)
(8.39048e-05 0 8.34552e-07)
(8.35719e-05 0 7.93025e-07)
(8.32288e-05 0 7.31723e-07)
(8.28815e-05 0 7.08047e-07)
(8.2521e-05 0 7.47984e-07)
(8.21292e-05 0 8.23406e-07)
(8.16989e-05 0 9.02188e-07)
(8.12387e-05 0 9.89186e-07)
(8.07566e-05 0 1.10553e-06)
(8.025e-05 0 1.24303e-06)
(7.97131e-05 0 1.36213e-06)
(7.91494e-05 0 1.43761e-06)
(7.8567e-05 0 1.48087e-06)
(7.7968e-05 0 1.50832e-06)
(7.73504e-05 0 1.51606e-06)
(7.67158e-05 0 1.50381e-06)
(7.60665e-05 0 1.49478e-06)
(7.53996e-05 0 1.51116e-06)
(7.47122e-05 0 1.55277e-06)
(7.40066e-05 0 1.61557e-06)
(7.32845e-05 0 1.7054e-06)
(7.25428e-05 0 1.81545e-06)
(7.17807e-05 0 1.91245e-06)
(7.10074e-05 0 1.96594e-06)
(7.02357e-05 0 1.978e-06)
(6.94695e-05 0 1.96885e-06)
(6.87022e-05 0 1.94802e-06)
(6.79261e-05 0 1.91629e-06)
(6.71382e-05 0 1.88789e-06)
(6.63373e-05 0 1.88917e-06)
(6.55199e-05 0 1.93368e-06)
(6.46831e-05 0 2.00846e-06)
(6.3829e-05 0 2.0882e-06)
(6.29642e-05 0 2.15441e-06)
(6.20959e-05 0 2.19776e-06)
(6.12286e-05 0 2.21029e-06)
(6.03655e-05 0 2.18616e-06)
(5.95092e-05 0 2.13157e-06)
(5.86622e-05 0 2.0681e-06)
(5.78241e-05 0 2.02114e-06)
(5.69905e-05 0 2.00294e-06)
(5.61551e-05 0 2.00533e-06)
(5.53178e-05 0 2.01112e-06)
(5.44868e-05 0 2.01333e-06)
(5.36702e-05 0 2.01539e-06)
(5.28676e-05 0 2.00931e-06)
(5.20745e-05 0 1.97235e-06)
(5.12903e-05 0 1.8985e-06)
(5.05145e-05 0 1.81658e-06)
(4.97398e-05 0 1.76453e-06)
(4.89576e-05 0 1.75835e-06)
(4.81663e-05 0 1.79231e-06)
(4.73718e-05 0 1.84732e-06)
(4.65817e-05 0 1.89379e-06)
(4.58044e-05 0 1.90561e-06)
(4.50466e-05 0 1.87859e-06)
(4.43068e-05 0 1.82679e-06)
(4.35756e-05 0 1.77104e-06)
(4.28404e-05 0 1.73661e-06)
(4.20904e-05 0 1.74418e-06)
(4.13217e-05 0 1.79383e-06)
(4.05389e-05 0 1.86806e-06)
(3.97502e-05 0 1.9425e-06)
(3.89654e-05 0 1.99112e-06)
(3.81922e-05 0 1.99191e-06)
(3.74312e-05 0 1.93813e-06)
(3.66778e-05 0 1.8528e-06)
(3.59264e-05 0 1.78226e-06)
(3.51717e-05 0 1.75835e-06)
(3.44125e-05 0 1.76805e-06)
(3.36616e-05 0 1.77342e-06)
(3.2936e-05 0 1.77157e-06)
(3.22305e-05 0 1.76358e-06)
(3.15319e-05 0 1.72419e-06)
(3.0831e-05 0 1.66563e-06)
(3.01221e-05 0 1.62822e-06)
(2.94136e-05 0 1.62742e-06)
(2.87148e-05 0 1.64962e-06)
(2.80308e-05 0 1.66347e-06)
(2.73643e-05 0 1.63646e-06)
(2.67218e-05 0 1.57284e-06)
(2.60979e-05 0 1.51772e-06)
(2.54758e-05 0 1.48211e-06)
(2.48562e-05 0 1.44898e-06)
(2.42423e-05 0 1.44228e-06)
(2.36276e-05 0 1.43174e-06)
(2.30231e-05 0 1.39329e-06)
(2.24268e-05 0 1.34691e-06)
(2.18198e-05 0 1.39547e-06)
(2.12531e-05 0 1.43688e-06)
(2.07432e-05 0 1.56561e-06)
(2.01459e-05 0 1.51961e-06)
(1.97269e-05 0 1.24102e-06)
(1.91429e-05 0 1.06972e-06)
(1.92501e-05 0 9.86438e-07)
(1.87252e-05 0 9.19928e-07)
(1.83939e-05 0 7.7145e-07)
(1.78803e-05 0 6.9045e-07)
(1.74662e-05 0 7.20898e-07)
(1.71236e-05 0 5.86827e-07)
(1.67858e-05 0 5.8944e-07)
(1.64733e-05 0 5.99505e-07)
(1.61708e-05 0 7.15172e-07)
(1.58477e-05 0 7.50663e-07)
(1.55546e-05 0 6.95643e-07)
(1.52405e-05 0 6.9187e-07)
(1.49514e-05 0 5.28042e-07)
(1.47084e-05 0 6.381e-07)
(1.43768e-05 0 9.10162e-07)
(1.40579e-05 0 8.57055e-07)
(1.37915e-05 0 7.85446e-07)
(1.35108e-05 0 5.73687e-07)
(1.34389e-05 0 6.34487e-07)
(1.31645e-05 0 5.95342e-07)
(1.30018e-05 0 3.6988e-07)
(1.28066e-05 0 2.56591e-07)
(1.26601e-05 0 1.35855e-07)
(1.23885e-05 0 3.82317e-07)
(1.21902e-05 0 1.37194e-07)
(1.21566e-05 0 3.80991e-07)
(1.19349e-05 0 4.48902e-07)
(1.17513e-05 0 5.60112e-07)
(1.17385e-05 0 4.07631e-07)
(1.16276e-05 0 2.07691e-07)
(1.15047e-05 0 4.87636e-07)
(1.15234e-05 0 1.55113e-07)
(1.10759e-05 0 1.90124e-08)
(1.06479e-05 0 3.25434e-07)
(1.06931e-05 0 5.28309e-07)
(1.02682e-05 0 1.82986e-06)
(9.97975e-06 0 7.28193e-07)
(1.16834e-05 0 6.25309e-07)
(1.0476e-05 0 -4.13682e-07)
(1.80036e-05 0 -2.29728e-06)
(1.73885e-05 0 -1.54012e-06)
(1.84982e-05 0 -5.42365e-06)
(1.79313e-05 0 -2.93749e-06)
(1.725e-05 0 -1.26645e-06)
(1.71427e-05 0 -9.18046e-07)
(1.69679e-05 0 1.17945e-08)
(1.66828e-05 0 4.34042e-07)
(1.62821e-05 0 7.12501e-07)
(1.57375e-05 0 1.102e-06)
(1.51154e-05 0 1.39334e-06)
(1.45455e-05 0 1.52893e-06)
(1.40184e-05 0 1.65559e-06)
(1.34532e-05 0 1.78848e-06)