/*--------------------------------*- C++ -*----------------------------------*\
| =========                 |                                                 |
| \\      /  F ield         | OpenFOAM: The Open Source CFD Toolbox           |
|  \\    /   O peration     | Version:  v2006                                 |
|   \\  /    A nd           | Website:  www.openfoam.com                      |
|    \\/     M anipulation  |                                                 |
\*---------------------------------------------------------------------------*/
FoamFile
{
    version     2.0;
    format      ascii;
    class       surfaceScalarField;
    location    "9.6";
    object      alphaPhi0.water;
}
// * * * * * * * * * * * * * * * * * * * * * * * * * * * * * * * * * * * * * //

dimensions      [0 3 -1 0 0 0 0];
oriented        oriented;


internalField   nonuniform List<scalar> 
65390
(
-5.46083e-06
9.69899e-06
-9.56222e-06
4.10182e-06
-1.06185e-05
1.05661e-06
-8.56717e-06
-2.05096e-06
-3.46325e-06
-5.10362e-06
2.1419e-06
-5.6049e-06
7.51734e-06
-5.3752e-06
1.27165e-05
-5.19897e-06
1.79599e-05
-5.24321e-06
2.29419e-05
-4.98191e-06
2.66774e-05
-3.73555e-06
2.93388e-05
-2.66188e-06
3.14951e-05
-2.15712e-06
3.34796e-05
-1.98605e-06
3.57744e-05
-2.29746e-06
3.79219e-05
-2.16854e-06
4.02357e-05
-2.31296e-06
4.27762e-05
-2.54135e-06
4.46991e-05
-1.9221e-06
4.51032e-05
-3.84312e-07
4.40743e-05
1.043e-06
4.23938e-05
1.68227e-06
3.98702e-05
2.52358e-06
3.60624e-05
3.80786e-06
3.12994e-05
4.76313e-06
2.71142e-05
4.18525e-06
2.46337e-05
2.4806e-06
2.39005e-05
7.332e-07
2.44591e-05
-5.58494e-07
2.55004e-05
-1.04127e-06
2.60331e-05
-5.32673e-07
2.55146e-05
5.18516e-07
2.38228e-05
1.69188e-06
2.15289e-05
2.2939e-06
1.85171e-05
3.01183e-06
1.3482e-05
5.03515e-06
8.03244e-06
5.44968e-06
3.81042e-06
4.22209e-06
2.94366e-07
3.51566e-06
-2.29804e-06
2.59228e-06
-3.36478e-06
1.06627e-06
-3.85359e-06
4.88877e-07
-4.46986e-06
6.16531e-07
-5.96722e-06
1.49822e-06
-7.75351e-06
1.78527e-06
-8.48062e-06
7.25415e-07
-8.24028e-06
-2.40357e-07
-7.84411e-06
-3.96155e-07
-7.88388e-06
4.22031e-08
-8.82904e-06
9.46887e-07
-9.75059e-06
9.17934e-07
-9.95388e-06
2.01995e-07
-9.27623e-06
-6.77706e-07
-8.18033e-06
-1.09588e-06
-6.8593e-06
-1.32104e-06
-5.43138e-06
-1.42794e-06
-3.98804e-06
-1.44334e-06
-2.70435e-06
-1.28365e-06
-1.68186e-06
-1.02243e-06
-1.20776e-06
-4.7408e-07
-1.31072e-06
1.03143e-07
-1.83763e-06
5.27223e-07
-2.4842e-06
6.47435e-07
-2.97423e-06
4.88573e-07
-3.19059e-06
2.16097e-07
-3.16699e-06
-2.36267e-08
-2.8458e-06
-3.21206e-07
-2.03421e-06
-8.11614e-07
-6.13157e-07
-1.42107e-06
1.26264e-06
-1.87582e-06
3.40188e-06
-2.13925e-06
5.47101e-06
-2.06917e-06
7.28018e-06
-1.8091e-06
8.84078e-06
-1.55999e-06
1.02779e-05
-1.43654e-06
1.17261e-05
-1.44924e-06
1.30887e-05
-1.36632e-06
1.33842e-05
-2.95611e-07
1.28982e-05
4.86046e-07
1.26856e-05
2.14337e-07
1.20545e-05
6.30701e-07
1.15746e-05
4.78147e-07
1.1128e-05
4.46564e-07
1.0938e-05
1.90038e-07
1.09126e-05
2.53078e-08
1.07214e-05
1.94637e-07
1.05666e-05
1.56511e-07
1.06378e-05
-7.11506e-08
1.08557e-05
-2.17937e-07
1.10606e-05
-2.04963e-07
1.13409e-05
-2.80306e-07
1.16378e-05
-2.97019e-07
1.18159e-05
-1.78237e-07
1.19455e-05
-1.3191e-07
1.19392e-05
4.13335e-09
1.19164e-05
2.29891e-08
1.17658e-05
1.53059e-07
1.1534e-05
2.33237e-07
1.05049e-05
1.02914e-06
8.67844e-06
1.82644e-06
7.18121e-06
1.49723e-06
6.56102e-06
6.20193e-07
6.7373e-06
-1.76268e-07
6.90524e-06
-1.68269e-07
7.45986e-06
-5.56219e-07
8.12897e-06
-6.69076e-07
8.59075e-06
-4.61733e-07
8.82556e-06
-2.34772e-07
9.08133e-06
-2.55721e-07
9.48331e-06
-3.99892e-07
9.83523e-06
-3.5144e-07
1.02284e-05
-3.93179e-07
1.05777e-05
-3.49685e-07
1.08423e-05
-2.67254e-07
1.08762e-05
-3.39219e-08
1.07983e-05
7.93882e-08
1.01469e-05
6.52151e-07
9.2608e-06
8.86398e-07
8.80192e-06
4.5831e-07
8.90642e-06
-1.05188e-07
9.32589e-06
-4.19411e-07
9.62024e-06
-2.9367e-07
1.01244e-05
-5.03494e-07
1.06949e-05
-5.70598e-07
1.10775e-05
-3.83615e-07
1.14215e-05
-3.44295e-07
1.17655e-05
-3.43212e-07
1.20797e-05
-3.13159e-07
1.24229e-05
-3.42886e-07
1.27731e-05
-3.50199e-07
1.30895e-05
-3.16366e-07
1.33786e-05
-2.90371e-07
1.36422e-05
-2.63664e-07
1.38975e-05
-2.54228e-07
1.41488e-05
-2.50102e-07
1.43947e-05
-2.45645e-07
1.46312e-05
-2.36435e-07
1.48516e-05
-2.2048e-07
1.50589e-05
-2.07377e-07
1.52538e-05
-1.94954e-07
1.54327e-05
-1.79108e-07
1.55846e-05
-1.55295e-07
1.57155e-05
-1.3161e-07
1.58278e-05
-1.12164e-07
1.59276e-05
-9.66817e-08
1.60116e-05
-8.3557e-08
1.60759e-05
-6.43177e-08
1.61137e-05
-3.78091e-08
1.61189e-05
-6.76743e-09
1.61102e-05
9.85331e-09
1.60898e-05
2.15774e-08
1.60488e-05
4.10042e-08
1.59829e-05
6.59821e-08
1.58901e-05
9.1479e-08
1.57763e-05
1.14071e-07
1.56433e-05
1.33933e-07
1.54918e-05
1.52899e-07
1.5317e-05
1.75263e-07
1.51184e-05
1.98705e-07
1.48973e-05
2.21106e-07
1.46548e-05
2.4223e-07
1.43908e-05
2.63745e-07
1.41066e-05
2.84275e-07
1.3798e-05
3.09143e-07
1.34585e-05
3.39733e-07
1.3096e-05
3.62504e-07
1.27161e-05
3.79866e-07
1.23153e-05
4.00703e-07
1.18836e-05
4.31442e-07
1.14142e-05
4.68332e-07
1.09251e-05
4.89553e-07
1.04226e-05
5.02662e-07
9.90119e-06
5.21398e-07
9.35719e-06
5.43542e-07
8.77955e-06
5.76278e-07
8.16613e-06
6.13218e-07
7.53245e-06
6.33955e-07
6.88873e-06
6.44244e-07
6.24291e-06
6.45743e-07
5.59678e-06
6.46064e-07
4.94222e-06
6.54182e-07
4.28274e-06
6.59586e-07
3.61906e-06
6.63788e-07
2.9502e-06
6.69278e-07
2.29175e-06
6.58692e-07
1.65887e-06
6.33133e-07
1.05046e-06
6.08594e-07
4.57622e-07
5.93049e-07
-1.22545e-07
5.80385e-07
-6.84448e-07
5.62136e-07
-1.2235e-06
5.3912e-07
-1.73498e-06
5.11658e-07
-2.22047e-06
4.85658e-07
-2.68453e-06
4.64218e-07
-3.13121e-06
4.46878e-07
-3.56701e-06
4.36124e-07
-3.99247e-06
4.2564e-07
-4.40225e-06
4.09953e-07
-4.7925e-06
3.8984e-07
-5.15827e-06
3.65655e-07
-5.50719e-06
3.49006e-07
-5.84417e-06
3.3707e-07
-6.17014e-06
3.26362e-07
-6.4842e-06
3.1447e-07
-6.7842e-06
2.99832e-07
-7.06659e-06
2.82486e-07
-7.33535e-06
2.68756e-07
-7.5944e-06
2.59291e-07
-7.84694e-06
2.52886e-07
-8.08894e-06
2.41524e-07
-8.30939e-06
2.20317e-07
-8.51469e-06
2.05336e-07
-8.70984e-06
1.95205e-07
-8.8951e-06
1.85713e-07
-9.07388e-06
1.79578e-07
-9.24829e-06
1.74475e-07
-9.41275e-06
1.63826e-07
-9.56227e-06
1.49113e-07
-9.69582e-06
1.33537e-07
-9.81913e-06
1.23306e-07
-9.93382e-06
1.14734e-07
-1.00416e-05
1.08132e-07
-1.01455e-05
1.04107e-07
-1.02426e-05
9.71749e-08
-1.03307e-05
8.73902e-08
-1.04061e-05
7.53265e-08
-1.04704e-05
6.43609e-08
-1.05266e-05
5.62271e-08
-1.05762e-05
5.01407e-08
-1.0623e-05
4.73884e-08
-1.06663e-05
4.32503e-08
-1.07022e-05
3.54691e-08
-1.07279e-05
2.52604e-08
-1.07439e-05
1.5438e-08
-1.07519e-05
8.46727e-09
-1.07558e-05
3.94164e-09
-1.07555e-05
-3.81423e-10
-1.07506e-05
-5.13373e-09
-1.07408e-05
-9.77225e-09
-1.0727e-05
-1.35655e-08
-1.07087e-05
-1.79218e-08
-1.06858e-05
-2.34483e-08
-1.06545e-05
-3.16128e-08
-1.06162e-05
-3.83403e-08
-1.05741e-05
-4.21153e-08
-1.05291e-05
-4.48305e-08
-1.04834e-05
-4.52598e-08
-1.04374e-05
-4.59589e-08
-1.03849e-05
-5.31268e-08
-1.03224e-05
-6.25277e-08
-1.02565e-05
-6.59122e-08
-1.01887e-05
-6.77934e-08
-1.0119e-05
-6.9477e-08
-1.00489e-05
-6.99964e-08
-9.97584e-06
-7.31161e-08
-9.89766e-06
-7.86133e-08
-9.81435e-06
-8.33302e-08
-9.72784e-06
-8.6525e-08
-9.63978e-06
-8.79897e-08
-9.55004e-06
-8.95828e-08
-9.45718e-06
-9.2878e-08
-9.3609e-06
-9.63384e-08
-9.2606e-06
-1.00611e-07
-9.1559e-06
-1.04762e-07
-9.04955e-06
-1.06363e-07
-8.94357e-06
-1.05735e-07
-8.83757e-06
-1.05625e-07
-8.72944e-06
-1.08725e-07
-8.61322e-06
-1.16271e-07
-8.49281e-06
-1.20437e-07
-8.3706e-06
-1.22239e-07
-8.24625e-06
-1.24354e-07
-8.11988e-06
-1.26274e-07
-7.99313e-06
-1.26516e-07
-7.86652e-06
-1.26616e-07
-7.73725e-06
-1.29589e-07
-7.60264e-06
-1.3472e-07
-7.46393e-06
-1.38748e-07
-7.32267e-06
-1.41289e-07
-7.17887e-06
-1.43833e-07
-7.03211e-06
-1.46774e-07
-6.88348e-06
-1.48577e-07
-6.73575e-06
-1.47638e-07
-6.58746e-06
-1.48342e-07
-6.43349e-06
-1.54015e-07
-6.27406e-06
-1.59448e-07
-6.11267e-06
-1.61386e-07
-5.94928e-06
-1.63392e-07
-5.7832e-06
-1.66074e-07
-5.61483e-06
-1.68317e-07
-5.44632e-06
-1.68443e-07
-5.27583e-06
-1.70488e-07
-5.10131e-06
-1.74566e-07
-4.92262e-06
-1.78708e-07
-4.74094e-06
-1.81684e-07
-4.55652e-06
-1.84418e-07
-4.37004e-06
-1.86471e-07
-4.18322e-06
-1.86807e-07
-3.99479e-06
-1.88432e-07
-3.80405e-06
-1.90798e-07
-3.61052e-06
-1.93541e-07
-3.41414e-06
-1.96391e-07
-3.21616e-06
-1.97985e-07
-3.01919e-06
-1.96958e-07
-2.82281e-06
-1.96421e-07
-2.62598e-06
-1.96866e-07
-2.42835e-06
-1.97648e-07
-2.23157e-06
-1.96806e-07
-2.03754e-06
-1.94051e-07
-1.84646e-06
-1.91096e-07
-1.65806e-06
-1.88434e-07
-1.47258e-06
-1.85503e-07
-1.29155e-06
-1.81051e-07
-1.11652e-06
-1.75046e-07
-9.47959e-07
-1.68576e-07
-7.85746e-07
-1.62223e-07
-6.29611e-07
-1.56144e-07
-4.79701e-07
-1.49917e-07
-3.36421e-07
-1.43289e-07
-2.00039e-07
-1.36392e-07
-7.05309e-08
-1.29513e-07
5.22432e-08
-1.22771e-07
1.6869e-07
-1.16433e-07
2.79092e-07
-1.10379e-07
3.83627e-07
-1.0451e-07
4.82632e-07
-9.89843e-08
5.76553e-07
-9.39083e-08
6.657e-07
-8.91458e-08
7.50095e-07
-8.44031e-08
8.29936e-07
-7.98517e-08
9.05746e-07
-7.58163e-08
9.78031e-07
-7.22833e-08
1.04709e-06
-6.90447e-08
1.11292e-06
-6.58276e-08
1.17553e-06
-6.25927e-08
1.235e-06
-5.94586e-08
1.29183e-06
-5.68175e-08
1.34654e-06
-5.46912e-08
1.39949e-06
-5.29344e-08
1.45072e-06
-5.12156e-08
1.50031e-06
-4.95777e-08
1.54841e-06
-4.80832e-08
1.59516e-06
-4.67397e-08
1.64071e-06
-4.55407e-08
1.68523e-06
-4.4499e-08
1.72894e-06
-4.36993e-08
1.77203e-06
-4.30826e-08
1.81454e-06
-4.25075e-08
1.85653e-06
-4.19883e-08
1.89803e-06
-4.15106e-08
1.9391e-06
-4.10695e-08
1.97973e-06
-4.06401e-08
2.01999e-06
-4.02591e-08
2.06003e-06
-4.00476e-08
2.09993e-06
-3.9906e-08
2.13965e-06
-3.97424e-08
2.17919e-06
-3.95504e-08
2.2184e-06
-3.92334e-08
2.2573e-06
-3.89204e-08
2.29593e-06
-3.86565e-08
2.33431e-06
-3.83869e-08
2.37239e-06
-3.80741e-08
2.41013e-06
-3.7729e-08
2.4475e-06
-3.73553e-08
2.48433e-06
-3.68029e-08
2.52033e-06
-3.59851e-08
2.55553e-06
-3.51882e-08
2.59015e-06
-3.46269e-08
2.62441e-06
-3.42674e-08
2.65809e-06
-3.37056e-08
2.69071e-06
-3.26278e-08
2.72208e-06
-3.13894e-08
2.75261e-06
-3.05375e-08
2.78247e-06
-2.98538e-08
2.81157e-06
-2.91061e-08
2.83968e-06
-2.81143e-08
2.86655e-06
-2.68744e-08
2.89229e-06
-2.57327e-08
2.91664e-06
-2.43329e-08
2.9394e-06
-2.27377e-08
2.961e-06
-2.15614e-08
2.98199e-06
-2.0929e-08
3.00204e-06
-2.00247e-08
3.02077e-06
-1.87189e-08
3.03809e-06
-1.73344e-08
3.05404e-06
-1.59749e-08
3.06854e-06
-1.45409e-08
3.08191e-06
-1.33797e-08
3.0943e-06
-1.23949e-08
3.10537e-06
-1.10585e-08
3.11489e-06
-9.50384e-09
3.12308e-06
-8.176e-09
3.13037e-06
-7.25894e-09
3.13669e-06
-6.28084e-09
3.14184e-06
-5.11101e-09
3.14593e-06
-4.0262e-09
3.149e-06
-2.99331e-09
3.15063e-06
-1.539e-09
3.1509e-06
-2.02457e-10
3.15019e-06
7.74546e-10
3.14855e-06
1.66871e-09
3.14638e-06
2.16771e-09
3.14352e-06
2.8348e-09
3.14011e-06
3.38488e-09
3.13473e-06
5.35146e-09
3.12765e-06
7.05707e-09
3.11995e-06
7.69788e-09
3.11307e-06
6.869e-09
3.10503e-06
8.03812e-09
3.09583e-06
9.19289e-09
3.08504e-06
1.07796e-08
3.07339e-06
1.16621e-08
3.06286e-06
1.0541e-08
3.05118e-06
1.16802e-08
3.03995e-06
1.12274e-08
3.02733e-06
1.2606e-08
3.01413e-06
1.31833e-08
3.00328e-06
1.08204e-08
2.99202e-06
1.1237e-08
2.97677e-06
1.52237e-08
2.96548e-06
1.12728e-08
2.94775e-06
1.77232e-08
2.92867e-06
1.90615e-08
2.92478e-06
3.89068e-09
2.91818e-06
6.59213e-09
2.90337e-06
1.48125e-08
2.90413e-06
-7.61249e-10
2.86546e-06
3.86675e-08
2.79108e-06
7.43843e-08
2.66684e-06
1.24241e-07
2.54874e-06
1.18111e-07
2.48153e-06
6.7207e-08
2.42313e-06
5.84043e-08
2.3832e-06
3.99249e-08
2.34729e-06
3.59124e-08
2.31325e-06
3.40353e-08
2.27834e-06
3.49205e-08
2.24496e-06
3.3388e-08
2.21673e-06
2.82373e-08
2.19187e-06
2.48626e-08
2.16969e-06
2.21847e-08
2.17078e-06
-1.08562e-09
2.15036e-06
2.0417e-08
2.10409e-06
4.62649e-08
2.09451e-06
9.57533e-09
2.04627e-06
4.82338e-08
1.96523e-06
8.10236e-08
1.85477e-06
1.10446e-07
1.82903e-06
2.57222e-08
1.88648e-06
-5.74611e-08
1.90045e-06
-1.39777e-08
1.91205e-06
-1.1611e-08
1.90005e-06
1.19859e-08
1.88782e-06
1.22228e-08
1.86068e-06
2.71364e-08
1.83503e-06
2.56367e-08
1.79222e-06
4.27931e-08
1.76039e-06
3.18049e-08
1.7305e-06
2.98485e-08
1.70017e-06
3.02953e-08
1.66863e-06
3.14924e-08
1.64583e-06
2.27698e-08
1.55572e-06
9.00653e-08
1.48037e-06
7.53174e-08
1.4015e-06
7.88476e-08
1.272e-06
1.2953e-07
1.25796e-06
1.41583e-08
1.12188e-06
1.36421e-07
1.28996e-06
-1.67559e-07
1.74289e-06
-4.51988e-07
2.29185e-06
-5.47278e-07
2.80632e-06
-5.12938e-07
3.29317e-06
-4.8547e-07
3.68871e-06
-3.94345e-07
3.97974e-06
-2.89978e-07
4.1698e-06
-1.89115e-07
4.3041e-06
-1.33413e-07
4.4096e-06
-1.04614e-07
4.50019e-06
-8.98537e-08
4.55962e-06
-5.88303e-08
4.59362e-06
-3.33896e-08
4.61917e-06
-2.50086e-08
4.63843e-06
-1.87842e-08
4.66106e-06
-2.21311e-08
4.68053e-06
-1.91088e-08
4.6863e-06
-5.47688e-09
4.68388e-06
2.72105e-09
4.68246e-06
1.68104e-09
4.68209e-06
6.60316e-10
4.68004e-06
2.29184e-09
4.67628e-06
3.96664e-09
4.67755e-06
-1.08267e-09
4.68382e-06
-6.08826e-09
4.68741e-06
-3.43034e-09
4.68381e-06
3.74874e-09
4.67911e-06
4.84731e-09
4.67628e-06
2.97028e-09
4.67954e-06
-3.11644e-09
4.68677e-06
-7.10181e-09
4.69668e-06
-9.79483e-09
4.71124e-06
-1.44584e-08
4.7274e-06
-1.60488e-08
4.74147e-06
-1.39839e-08
4.75323e-06
-1.16755e-08
4.76941e-06
-1.61063e-08
4.79538e-06
-2.58947e-08
4.83289e-06
-3.74296e-08
4.87971e-06
-4.67554e-08
4.93067e-06
-5.09167e-08
4.98424e-06
-5.35551e-08
5.0392e-06
-5.4965e-08
5.09923e-06
-6.00333e-08
5.1649e-06
-6.56768e-08
5.23422e-06
-6.93397e-08
5.30922e-06
-7.50176e-08
5.39139e-06
-8.21852e-08
5.4798e-06
-8.84402e-08
5.57167e-06
-9.18959e-08
5.66502e-06
-9.33743e-08
5.75909e-06
-9.41037e-08
5.85474e-06
-9.56815e-08
5.9541e-06
-9.93807e-08
6.05856e-06
-1.04473e-07
6.16932e-06
-1.10762e-07
6.28608e-06
-1.16774e-07
6.40775e-06
-1.21684e-07
6.53367e-06
-1.25943e-07
6.66335e-06
-1.29698e-07
6.79656e-06
-1.33222e-07
6.93332e-06
-1.36756e-07
7.07423e-06
-1.40903e-07
7.21934e-06
-1.45092e-07
7.36797e-06
-1.48605e-07
7.51949e-06
-1.51509e-07
7.67263e-06
-1.53135e-07
7.82839e-06
-1.55776e-07
7.98621e-06
-1.57843e-07
8.14826e-06
-1.6207e-07
8.31279e-06
-1.64551e-07
8.47855e-06
-1.65758e-07
8.64623e-06
-1.67669e-07
8.81493e-06
-1.6869e-07
8.98502e-06
-1.70084e-07
9.15692e-06
-1.71912e-07
9.33125e-06
-1.74327e-07
9.51367e-06
-1.82422e-07
9.70269e-06
-1.89019e-07
9.90131e-06
-1.98625e-07
1.01048e-05
-2.03553e-07
-2.19618e-07
6.85957e-07
1.32211e-05
-2.62955e-07
5.05071e-06
-1.86754e-06
2.66117e-06
-7.4004e-07
-3.17845e-06
2.49545e-06
-8.33911e-06
6.71686e-06
-9.82629e-06
1.07137e-05
-9.37207e-06
1.45458e-05
-9.031e-06
1.80354e-05
-8.73282e-06
2.06077e-05
-7.55514e-06
2.18693e-05
-5.00049e-06
2.25902e-05
-3.38813e-06
2.34732e-05
-3.04551e-06
2.50056e-05
-3.51899e-06
2.73414e-05
-4.63363e-06
3.03722e-05
-5.19036e-06
3.33849e-05
-5.32326e-06
3.58407e-05
-4.99678e-06
3.7546e-05
-3.62562e-06
3.81633e-05
-1.00018e-06
3.71827e-05
2.02436e-06
3.49855e-05
3.87962e-06
3.19158e-05
5.59325e-06
2.84808e-05
7.24277e-06
2.55661e-05
7.67773e-06
2.38629e-05
5.88833e-06
2.38286e-05
2.51476e-06
2.48372e-05
-2.75375e-07
2.55797e-05
-1.30114e-06
2.59707e-05
-1.43218e-06
2.60819e-05
-6.43794e-07
2.49736e-05
1.627e-06
2.26124e-05
4.05307e-06
1.91865e-05
5.71989e-06
1.51129e-05
7.08547e-06
1.13079e-05
8.84022e-06
7.68643e-06
9.07117e-06
4.28755e-06
7.621e-06
9.96271e-07
6.80618e-06
-1.38157e-06
4.96937e-06
-2.70768e-06
2.39215e-06
-3.73146e-06
1.51269e-06
-4.77247e-06
1.65816e-06
-5.94058e-06
2.66759e-06
-6.97836e-06
2.82283e-06
-7.80641e-06
1.55023e-06
-7.9837e-06
-6.33796e-08
-7.9787e-06
-4.00957e-07
-7.97357e-06
3.96163e-08
-8.22259e-06
1.19784e-06
-8.59499e-06
1.28801e-06
-8.97244e-06
5.77137e-07
-8.77688e-06
-8.73553e-07
-7.96546e-06
-1.9073e-06
-6.91683e-06
-2.36965e-06
-5.8436e-06
-2.5011e-06
-4.94328e-06
-2.34336e-06
-4.51811e-06
-1.70828e-06
-4.36911e-06
-1.17086e-06
-4.09462e-06
-7.4696e-07
-3.47183e-06
-5.18798e-07
-2.42371e-06
-5.20862e-07
-1.41867e-06
-3.57635e-07
-1.04497e-06
1.14477e-07
-1.22037e-06
3.90753e-07
-1.54676e-06
3.0261e-07
-1.79019e-06
-7.77318e-08
-1.63615e-06
-9.65613e-07
-8.25773e-07
-2.23144e-06
4.03696e-07
-3.10529e-06
1.79492e-06
-3.53052e-06
3.12954e-06
-3.40412e-06
3.98551e-06
-2.66616e-06
4.55842e-06
-2.13301e-06
5.17912e-06
-2.05714e-06
6.15724e-06
-2.42658e-06
7.59345e-06
-2.80195e-06
9.76271e-06
-2.46529e-06
1.16208e-05
-1.37253e-06
1.32464e-05
-1.41137e-06
1.41379e-05
-2.60496e-07
1.40484e-05
5.67475e-07
1.40218e-05
4.72183e-07
1.33982e-05
8.07439e-07
1.28314e-05
5.95558e-07
1.22868e-05
7.42262e-07
1.17366e-05
7.0746e-07
1.15267e-05
1.38688e-07
1.16846e-05
-3.75889e-07
1.16183e-05
-1.38678e-07
1.16805e-05
-3.42591e-07
1.19016e-05
-5.18248e-07
1.20764e-05
-3.53111e-07
1.22267e-05
-2.84156e-07
1.24492e-05
-2.20703e-07
1.25758e-05
-1.03882e-07
1.27733e-05
-4.06245e-08
1.28824e-05
1.24793e-07
1.33786e-05
5.32666e-07
1.37374e-05
1.46736e-06
1.38017e-05
1.43308e-06
1.28644e-05
1.55765e-06
1.0917e-05
1.77116e-06
9.37657e-06
1.37089e-06
8.37054e-06
4.48625e-07
7.95659e-06
-2.55089e-07
7.94969e-06
-4.54791e-07
8.05814e-06
-3.43184e-07
8.65283e-06
-8.49094e-07
9.52829e-06
-1.27459e-06
1.01495e-05
-9.72643e-07
1.05425e-05
-7.8624e-07
1.08502e-05
-6.57817e-07
1.10613e-05
-4.82176e-07
1.13892e-05
-3.61911e-07
1.17376e-05
-2.68929e-07
1.22801e-05
1.12026e-07
1.26286e-05
5.39549e-07
1.26638e-05
4.23078e-07
1.19711e-05
5.86366e-07
1.09566e-05
5.94988e-07
1.04248e-05
2.38926e-07
1.03491e-05
-4.27614e-07
1.05367e-05
-7.58294e-07
1.07468e-05
-5.96566e-07
1.12255e-05
-8.22909e-07
1.17886e-05
-9.06115e-07
1.21754e-05
-6.98213e-07
1.25015e-05
-6.67125e-07
1.2796e-05
-6.44424e-07
1.30576e-05
-5.7808e-07
1.33433e-05
-5.78274e-07
1.36407e-05
-5.61066e-07
1.39195e-05
-5.31953e-07
1.41771e-05
-5.06033e-07
1.44176e-05
-4.85756e-07
1.46472e-05
-4.66015e-07
1.48595e-05
-4.32759e-07
1.50649e-05
-4.12828e-07
1.52618e-05
-3.91959e-07
1.54426e-05
-3.60345e-07
1.55978e-05
-3.14828e-07
1.57358e-05
-2.69466e-07
1.58536e-05
-2.29941e-07
1.59537e-05
-1.96747e-07
1.60392e-05
-1.65747e-07
1.60985e-05
-1.2365e-07
1.61304e-05
-7.11843e-08
1.61404e-05
-1.91457e-08
1.61381e-05
1.56031e-08
1.61175e-05
4.43034e-08
1.60725e-05
8.67213e-08
1.59994e-05
1.39041e-07
1.59037e-05
1.85563e-07
1.57934e-05
2.24592e-07
1.56637e-05
2.63982e-07
1.55112e-05
3.07372e-07
1.53308e-05
3.568e-07
1.51256e-05
4.0403e-07
1.48992e-05
4.47196e-07
1.46549e-05
4.86659e-07
1.43904e-05
5.28254e-07
1.41039e-05
5.70888e-07
1.37909e-05
6.21851e-07
1.34476e-05
6.82268e-07
1.30814e-05
7.29025e-07
1.26967e-05
7.64902e-07
1.229e-05
8.07326e-07
1.18522e-05
8.68163e-07
1.1387e-05
9.32881e-07
1.08984e-05
9.78665e-07
1.03901e-05
1.01125e-06
9.86125e-06
1.05019e-06
9.31055e-06
1.09395e-06
8.73645e-06
1.1488e-06
8.13657e-06
1.21288e-06
7.51618e-06
1.25434e-06
6.87832e-06
1.28257e-06
6.23225e-06
1.29246e-06
5.58621e-06
1.29227e-06
4.93773e-06
1.30274e-06
4.28754e-06
1.30987e-06
3.63493e-06
1.31618e-06
2.97838e-06
1.32597e-06
2.32687e-06
1.31034e-06
1.69118e-06
1.26931e-06
1.07903e-06
1.22099e-06
4.89698e-07
1.18269e-06
-8.10588e-08
1.15144e-06
-6.36295e-07
1.1176e-06
-1.17645e-06
1.07944e-06
-1.69833e-06
1.03346e-06
-2.19598e-06
9.83459e-07
-2.66895e-06
9.37352e-07
-3.12214e-06
9.00422e-07
-3.5594e-06
8.73819e-07
-3.98241e-06
8.4882e-07
-4.39031e-06
8.1803e-07
-4.78075e-06
7.79934e-07
-5.15242e-06
7.3739e-07
-5.5073e-06
7.03964e-07
-5.84811e-06
6.78243e-07
-6.17595e-06
6.54486e-07
-6.48933e-06
6.27839e-07
-6.78728e-06
5.97614e-07
-7.07188e-06
5.67001e-07
-7.34501e-06
5.41891e-07
-7.60744e-06
5.22267e-07
-7.85747e-06
5.0389e-07
-8.09534e-06
4.78337e-07
-8.31744e-06
4.41922e-07
-8.52613e-06
4.14052e-07
-8.72413e-06
3.93253e-07
-8.912e-06
3.74008e-07
-9.09041e-06
3.58938e-07
-9.26104e-06
3.4517e-07
-9.42124e-06
3.24099e-07
-9.57155e-06
2.98323e-07
-9.70783e-06
2.69657e-07
-9.83376e-06
2.49243e-07
-9.95073e-06
2.31956e-07
-1.00584e-05
2.16811e-07
-1.01592e-05
2.04919e-07
-1.02524e-05
1.90414e-07
-1.03383e-05
1.73165e-07
-1.04162e-05
1.52369e-07
-1.04831e-05
1.31256e-07
-1.05414e-05
1.14516e-07
-1.05923e-05
1.01551e-07
-1.06379e-05
9.33913e-08
-1.06785e-05
8.38121e-08
-1.07114e-05
6.83737e-08
-1.07355e-05
4.88531e-08
-1.07518e-05
3.10909e-08
-1.07612e-05
1.78619e-08
-1.07651e-05
7.81351e-09
-1.0765e-05
-3.9827e-10
-1.07616e-05
-8.31048e-09
-1.07532e-05
-1.75764e-08
-1.07388e-05
-2.75709e-08
-1.07174e-05
-3.92601e-08
-1.06892e-05
-5.18901e-08
-1.06577e-05
-6.41261e-08
-1.06218e-05
-7.43691e-08
-1.05823e-05
-8.16514e-08
-1.05391e-05
-8.7634e-08
-1.04928e-05
-9.12252e-08
-1.04419e-05
-9.68187e-08
-1.03868e-05
-1.08989e-07
-1.03259e-05
-1.23531e-07
-1.02618e-05
-1.3007e-07
-1.01959e-05
-1.33645e-07
-1.01272e-05
-1.37721e-07
-1.0055e-05
-1.42172e-07
-9.9782e-06
-1.49895e-07
-9.89737e-06
-1.59539e-07
-9.81471e-06
-1.66701e-07
-9.73001e-06
-1.71261e-07
-9.6444e-06
-1.73646e-07
-9.5553e-06
-1.78499e-07
-9.46036e-06
-1.87796e-07
-9.36182e-06
-1.95079e-07
-9.2611e-06
-2.01556e-07
-9.15782e-06
-2.07976e-07
-9.05257e-06
-2.1144e-07
-8.94633e-06
-2.11772e-07
-8.83826e-06
-2.13699e-07
-8.72701e-06
-2.20229e-07
-8.61121e-06
-2.32345e-07
-8.49177e-06
-2.39922e-07
-8.37037e-06
-2.43666e-07
-8.24742e-06
-2.4731e-07
-8.12233e-06
-2.51235e-07
-7.99422e-06
-2.54474e-07
-7.8635e-06
-2.57334e-07
-7.73071e-06
-2.62464e-07
-7.59646e-06
-2.69349e-07
-7.45936e-06
-2.75932e-07
-7.31917e-06
-2.8153e-07
-7.1758e-06
-2.8724e-07
-7.02926e-06
-2.93304e-07
-6.88076e-06
-2.96974e-07
-6.73138e-06
-2.96899e-07
-6.57967e-06
-3.00057e-07
-6.42465e-06
-3.09187e-07
-6.26551e-06
-3.18623e-07
-6.10456e-06
-3.22344e-07
-5.94226e-06
-3.25701e-07
-5.77735e-06
-3.30943e-07
-5.60868e-06
-3.36841e-07
-5.43761e-06
-3.39504e-07
-5.26386e-06
-3.44233e-07
-5.08736e-06
-3.51093e-07
-4.90938e-06
-3.56768e-07
-4.72961e-06
-3.6149e-07
-4.54692e-06
-3.67105e-07
-4.36035e-06
-3.73006e-07
-4.17068e-06
-3.7648e-07
-3.97932e-06
-3.79788e-07
-3.78835e-06
-3.81856e-07
-3.5969e-06
-3.85082e-07
-3.40291e-06
-3.90446e-07
-3.20581e-06
-3.95107e-07
-3.00762e-06
-3.95176e-07
-2.8105e-06
-3.93571e-07
-2.61548e-06
-3.91963e-07
-2.42055e-06
-3.926e-07
-2.22498e-06
-3.92421e-07
-2.03088e-06
-3.8817e-07
-1.84038e-06
-3.81621e-07
-1.65416e-06
-3.74702e-07
-1.47123e-06
-3.68464e-07
-1.29185e-06
-3.60463e-07
-1.11728e-06
-3.4965e-07
-9.48948e-07
-3.36947e-07
-7.8781e-07
-3.23402e-07
-6.32964e-07
-3.11024e-07
-4.83646e-07
-2.99263e-07
-3.40387e-07
-2.86566e-07
-2.03786e-07
-2.73003e-07
-7.40009e-08
-2.59301e-07
4.89992e-08
-2.4577e-07
1.65687e-07
-2.33118e-07
2.76419e-07
-2.21109e-07
3.81494e-07
-2.09583e-07
4.81101e-07
-1.98585e-07
5.75454e-07
-1.88251e-07
6.6476e-07
-1.78437e-07
7.49225e-07
-1.68851e-07
8.29268e-07
-1.59879e-07
9.05297e-07
-1.51835e-07
9.77699e-07
-1.44684e-07
1.04665e-06
-1.38005e-07
1.11228e-06
-1.31473e-07
1.17477e-06
-1.25099e-07
1.23433e-06
-1.1903e-07
1.29122e-06
-1.13709e-07
1.34575e-06
-1.09222e-07
1.39855e-06
-1.05716e-07
1.44978e-06
-1.0244e-07
1.49946e-06
-9.92413e-08
1.54761e-06
-9.62246e-08
1.59432e-06
-9.34435e-08
1.63966e-06
-9.0885e-08
1.68378e-06
-8.86244e-08
1.72711e-06
-8.70431e-08
1.77001e-06
-8.59975e-08
1.81248e-06
-8.49859e-08
1.85451e-06
-8.40262e-08
1.8961e-06
-8.31127e-08
1.93726e-06
-8.22424e-08
1.97801e-06
-8.13928e-08
2.01837e-06
-8.06346e-08
2.05854e-06
-8.02166e-08
2.09854e-06
-7.99169e-08
2.13838e-06
-7.95799e-08
2.17802e-06
-7.91867e-08
2.21727e-06
-7.84776e-08
2.25616e-06
-7.78025e-08
2.29485e-06
-7.73278e-08
2.33333e-06
-7.68584e-08
2.37154e-06
-7.62808e-08
2.40939e-06
-7.55772e-08
2.44678e-06
-7.47708e-08
2.48364e-06
-7.36896e-08
2.51991e-06
-7.22827e-08
2.55562e-06
-7.09217e-08
2.59071e-06
-6.97302e-08
2.6252e-06
-6.87728e-08
2.65889e-06
-6.73991e-08
2.6914e-06
-6.51337e-08
2.72277e-06
-6.2757e-08
2.7534e-06
-6.11613e-08
2.78344e-06
-5.98611e-08
2.81271e-06
-5.83511e-08
2.8409e-06
-5.62726e-08
2.86763e-06
-5.35822e-08
2.89305e-06
-5.11326e-08
2.91734e-06
-4.86211e-08
2.94076e-06
-4.61592e-08
2.9631e-06
-4.39018e-08
2.98418e-06
-4.20169e-08
3.00397e-06
-3.9808e-08
3.02238e-06
-3.71213e-08
3.03938e-06
-3.43018e-08
3.0552e-06
-3.17625e-08
3.06985e-06
-2.91513e-08
3.08331e-06
-2.68004e-08
3.0955e-06
-2.4561e-08
3.10636e-06
-2.19093e-08
3.11606e-06
-1.91937e-08
3.12462e-06
-1.67284e-08
3.13203e-06
-1.46391e-08
3.13809e-06
-1.23115e-08
3.14288e-06
-9.86232e-09
3.14653e-06
-7.64793e-09
3.14931e-06
-5.75596e-09
3.15116e-06
-3.39036e-09
3.15198e-06
-1.01538e-09
3.15128e-06
1.45789e-09
3.14918e-06
3.75597e-09
3.14641e-06
4.9232e-09
3.14314e-06
6.09217e-09
3.13916e-06
7.36885e-09
3.13386e-06
1.0636e-08
3.12795e-06
1.29812e-08
3.12096e-06
1.47008e-08
3.11413e-06
1.3709e-08
3.10602e-06
1.61483e-08
3.09639e-06
1.88182e-08
3.08598e-06
2.11754e-08
3.07481e-06
2.28379e-08
3.06352e-06
2.18187e-08
3.05181e-06
2.33796e-08
3.04261e-06
2.0402e-08
3.03258e-06
2.26067e-08
3.01838e-06
2.73509e-08
3.00501e-06
2.41558e-08
2.98537e-06
3.08448e-08
2.96813e-06
3.24352e-08
2.96443e-06
1.49525e-08
2.9623e-06
1.9842e-08
2.95532e-06
2.60308e-08
2.94968e-06
9.52563e-09
2.90385e-06
5.24215e-08
2.82058e-06
9.80796e-08
2.70001e-06
1.19814e-07
2.59894e-06
1.39734e-07
2.53211e-06
1.41224e-07
2.48622e-06
1.70138e-07
2.4688e-06
1.35532e-07
2.43666e-06
9.93501e-08
2.40638e-06
8.86958e-08
2.36807e-06
7.82426e-08
2.33607e-06
6.79184e-08
2.30269e-06
6.74338e-08
2.27359e-06
6.40359e-08
2.24563e-06
6.13629e-08
2.23415e-06
3.97371e-08
2.20708e-06
5.19474e-08
2.1519e-06
7.73712e-08
2.11785e-06
3.2979e-08
2.05992e-06
7.83552e-08
1.99803e-06
1.08177e-07
1.90952e-06
9.80982e-08
1.91399e-06
4.37639e-08
1.98135e-06
1.36596e-08
2.021e-06
7.0802e-08
2.02542e-06
2.13045e-08
1.98373e-06
-1.5747e-08
1.95802e-06
1.17568e-08
1.92583e-06
2.06083e-08
1.89434e-06
4.35059e-08
1.87091e-06
3.56756e-08
1.85029e-06
4.77748e-08
1.83431e-06
4.16413e-08
1.8221e-06
5.50361e-08
1.80864e-06
4.52983e-08
1.78993e-06
4.86044e-08
1.69393e-06
1.2634e-07
1.60975e-06
1.15715e-07
1.53973e-06
9.28387e-08
1.44164e-06
1.88194e-07
1.48326e-06
3.36966e-08
1.47491e-06
8.70923e-08
1.90887e-06
-3.04671e-07
2.51509e-06
-5.92697e-07
3.12762e-06
-4.77342e-07
3.57751e-06
-6.19096e-07
3.8462e-06
-7.23131e-07
4.00515e-06
-7.08578e-07
4.10721e-06
-6.17158e-07
4.17125e-06
-5.51519e-07
4.26136e-06
-4.8629e-07
4.36962e-06
-3.99922e-07
4.46855e-06
-2.89585e-07
4.54328e-06
-2.09549e-07
4.60078e-06
-1.63407e-07
4.64279e-06
-1.3306e-07
4.6782e-06
-9.53307e-08
4.70986e-06
-6.60579e-08
4.73563e-06
-5.17023e-08
4.75704e-06
-4.1033e-08
4.77343e-06
-3.92935e-08
4.78014e-06
-2.651e-08
4.78116e-06
-7.11443e-09
4.78106e-06
2.25733e-09
4.78086e-06
1.38206e-09
4.78139e-06
-3.28973e-10
4.77957e-06
3.70448e-09
4.77813e-06
5.05415e-09
4.77821e-06
-1.49168e-09
4.77805e-06
-6.20605e-09
4.77814e-06
-3.75297e-09
4.77902e-06
2.66181e-09
4.78113e-06
2.55695e-09
4.78487e-06
-9.16007e-10
4.78955e-06
-7.9324e-09
4.79797e-06
-1.56368e-08
4.8106e-06
-2.25276e-08
4.82547e-06
-2.94041e-08
4.84152e-06
-3.21662e-08
4.85807e-06
-3.06128e-08
4.87659e-06
-3.02665e-08
4.90003e-06
-3.96291e-08
4.92847e-06
-5.44047e-08
4.96426e-06
-7.32946e-08
5.00464e-06
-8.72116e-08
5.04885e-06
-9.52122e-08
5.09805e-06
-1.02829e-07
5.15273e-06
-1.09715e-07
5.21384e-06
-1.21222e-07
5.28018e-06
-1.32087e-07
5.35059e-06
-1.39813e-07
5.42445e-06
-1.48947e-07
5.50252e-06
-1.60323e-07
5.58483e-06
-1.70821e-07
5.67136e-06
-1.78482e-07
5.76213e-06
-1.84199e-07
5.85772e-06
-1.89753e-07
5.95831e-06
-1.9632e-07
6.0633e-06
-2.04418e-07
6.17275e-06
-2.13965e-07
6.28597e-06
-2.24037e-07
6.40332e-06
-2.3418e-07
6.52549e-06
-2.43885e-07
6.65207e-06
-2.52564e-07
6.78249e-06
-2.60194e-07
6.9165e-06
-2.67259e-07
7.05428e-06
-2.7458e-07
7.19597e-06
-2.8263e-07
7.34142e-06
-2.90607e-07
7.4899e-06
-2.9716e-07
7.64095e-06
-3.02657e-07
7.7944e-06
-3.06666e-07
7.95101e-06
-3.12467e-07
8.11141e-06
-3.18362e-07
8.2743e-06
-3.25052e-07
8.43876e-06
-3.29115e-07
8.60484e-06
-3.31889e-07
8.77232e-06
-3.3519e-07
8.94272e-06
-3.39112e-07
9.11435e-06
-3.41736e-07
9.28726e-06
-3.44906e-07
9.46196e-06
-3.49096e-07
9.63673e-06
-3.5727e-07
9.81221e-06
-3.64583e-07
9.98579e-06
-3.72307e-07
1.01593e-05
-3.77136e-07
-3.84682e-07
3.39298e-06
1.39761e-05
3.24506e-06
5.19898e-06
2.89274e-06
3.01376e-06
4.35522e-06
-4.6407e-06
6.20284e-06
-1.01865e-05
8.2643e-06
-1.18876e-05
1.08965e-05
-1.20041e-05
1.33986e-05
-1.1533e-05
1.50949e-05
-1.04293e-05
1.53693e-05
-7.83338e-06
1.47164e-05
-4.34984e-06
1.43781e-05
-3.05179e-06
1.45678e-05
-3.23213e-06
1.53295e-05
-4.27532e-06
1.61289e-05
-5.43282e-06
1.67577e-05
-5.81893e-06
1.67427e-05
-5.30805e-06
1.59273e-05
-4.18113e-06
1.48668e-05
-2.56496e-06
1.37443e-05
1.22408e-07
1.27288e-05
3.04003e-06
1.13735e-05
5.23508e-06
1.05366e-05
6.43032e-06
1.07413e-05
7.03817e-06
1.21419e-05
6.27731e-06
1.42358e-05
3.79453e-06
1.59758e-05
7.74761e-07
1.66713e-05
-9.71208e-07
1.64757e-05
-1.10573e-06
1.55734e-05
-5.29332e-07
1.40011e-05
9.28783e-07
1.21236e-05
3.50457e-06
9.89971e-06
6.27695e-06
7.09109e-06
8.52849e-06
4.13765e-06
1.00389e-05
2.14169e-06
1.08362e-05
5.73751e-07
1.06391e-05
-1.54936e-06
9.74349e-06
-3.49213e-06
8.74753e-06
-4.32358e-06
5.80006e-06
-4.95424e-06
3.0225e-06
-5.6581e-06
2.21693e-06
-6.36531e-06
2.36754e-06
-6.97351e-06
3.27682e-06
-7.39065e-06
3.24007e-06
-7.71105e-06
1.86761e-06
-7.81581e-06
4.04204e-08
-7.84629e-06
-3.70253e-07
-7.81829e-06
1.40253e-08
-7.90713e-06
1.28789e-06
-8.11488e-06
1.49566e-06
-8.42744e-06
8.87377e-07
-8.55526e-06
-7.4709e-07
-8.34138e-06
-2.12117e-06
-8.0206e-06
-2.6903e-06
-7.69435e-06
-2.82725e-06
-7.45248e-06
-2.58397e-06
-7.34033e-06
-1.81808e-06
-7.02071e-06
-1.49044e-06
-6.05131e-06
-1.7164e-06
-4.52534e-06
-2.04746e-06
-2.70886e-06
-2.33798e-06
-8.73996e-07
-2.19254e-06
2.75605e-07
-1.03533e-06
4.97394e-07
1.68811e-07
2.91886e-07
5.08021e-07
-1.01382e-07
3.15394e-07
-5.55361e-07
-5.11518e-07
-5.08054e-07
-2.27864e-06
1.36188e-07
-3.74961e-06
9.69855e-07
-4.36433e-06
1.96119e-06
-4.39633e-06
2.97326e-06
-3.68006e-06
3.72841e-06
-2.88805e-06
4.40322e-06
-2.73079e-06
5.04297e-06
-3.06552e-06
5.7175e-06
-3.47653e-06
7.08643e-06
-3.83433e-06