/*--------------------------------*- C++ -*----------------------------------*\
| =========                 |                                                 |
| \\      /  F ield         | OpenFOAM: The Open Source CFD Toolbox           |
|  \\    /   O peration     | Version:  v2006                                 |
|   \\  /    A nd           | Website:  www.openfoam.com                      |
|    \\/     M anipulation  |                                                 |
\*---------------------------------------------------------------------------*/
FoamFile
{
    version     2.0;
    format      ascii;
    class       volScalarField;
    location    "9.6";
    object      k;
}
// * * * * * * * * * * * * * * * * * * * * * * * * * * * * * * * * * * * * * //

dimensions      [0 2 -2 0 0 0 0];


internalField   nonuniform List<scalar> 
33000
(
4.69396e-08
4.72398e-08
4.37039e-08
3.83598e-08
3.37479e-08
3.12444e-08
2.99716e-08
2.93812e-08
2.91441e-08
2.95007e-08
3.09244e-08
3.30384e-08
3.54793e-08
3.78729e-08
4.03222e-08
4.29507e-08
4.57482e-08
4.84892e-08
5.05863e-08
5.19078e-08
5.33804e-08
5.5661e-08
5.96926e-08
6.78389e-08
8.54602e-08
1.20547e-07
1.78511e-07
2.67346e-07
3.83076e-07
4.81845e-07
5.34215e-07
5.59091e-07
5.8027e-07
6.06255e-07
6.44496e-07
7.13275e-07
8.57641e-07
1.1257e-06
1.44043e-06
1.66339e-06
1.76203e-06
1.79101e-06
1.80915e-06
1.81756e-06
1.79743e-06
1.75406e-06
1.66934e-06
1.63979e-06
1.66742e-06
1.69947e-06
1.66525e-06
1.59143e-06
1.47091e-06
1.3908e-06
1.34395e-06
1.32825e-06
1.34391e-06
1.39749e-06
1.48633e-06
1.60827e-06
1.71082e-06
1.75039e-06
1.74467e-06
1.70489e-06
1.63952e-06
1.54177e-06
1.41752e-06
1.27159e-06
1.13298e-06
1.0304e-06
9.62317e-07
9.23359e-07
8.97854e-07
8.80259e-07
8.64432e-07
8.51487e-07
8.57759e-07
8.72655e-07
8.73215e-07
8.87268e-07
8.94332e-07
9.13652e-07
9.4415e-07
9.84922e-07
1.03875e-06
1.10321e-06
1.16151e-06
1.20615e-06
1.23525e-06
1.25357e-06
1.2534e-06
1.23909e-06
1.2131e-06
1.16715e-06
1.10823e-06
1.0319e-06
9.63631e-07
9.01272e-07
8.62185e-07
8.25882e-07
8.14666e-07
8.1805e-07
8.30376e-07
8.44245e-07
8.46676e-07
8.51867e-07
8.67151e-07
8.819e-07
8.86873e-07
8.83144e-07
8.79374e-07
8.69837e-07
8.58728e-07
8.42347e-07
8.21274e-07
7.86393e-07
7.52213e-07
7.13264e-07
6.95799e-07
6.90334e-07
6.88129e-07
6.95341e-07
6.96063e-07
7.00679e-07
7.13358e-07
7.23322e-07
7.30295e-07
7.35779e-07
7.38964e-07
7.41936e-07
7.45498e-07
7.48664e-07
7.50907e-07
7.51949e-07
7.52086e-07
7.51674e-07
7.51064e-07
7.5045e-07
7.49702e-07
7.48755e-07
7.47609e-07
7.46264e-07
7.44549e-07
7.42332e-07
7.39491e-07
7.3602e-07
7.32084e-07
7.278e-07
7.23132e-07
7.17994e-07
7.12259e-07
7.0588e-07
6.99021e-07
6.91877e-07
6.84476e-07
6.76744e-07
6.68655e-07
6.60223e-07
6.51524e-07
6.42637e-07
6.33595e-07
6.24383e-07
6.14986e-07
6.05419e-07
5.95754e-07
5.86082e-07
5.76351e-07
5.66451e-07
5.56553e-07
5.4692e-07
5.37632e-07
5.28526e-07
5.19422e-07
5.10543e-07
5.02296e-07
4.94901e-07
4.88347e-07
4.82337e-07
4.76531e-07
4.70825e-07
4.65349e-07
4.60365e-07
4.56114e-07
4.52698e-07
4.49979e-07
4.47614e-07
4.45323e-07
4.43208e-07
4.41655e-07
4.40745e-07
4.40114e-07
4.39358e-07
4.3833e-07
4.37175e-07
4.36194e-07
4.3571e-07
4.3588e-07
4.36519e-07
4.37205e-07
4.37634e-07
4.37918e-07
4.38424e-07
4.39398e-07
4.40735e-07
4.42152e-07
4.43452e-07
4.44682e-07
4.46117e-07
4.47934e-07
4.49885e-07
4.51503e-07
4.52714e-07
4.54024e-07
4.55773e-07
4.57866e-07
4.60206e-07
4.62546e-07
4.64511e-07
4.66047e-07
4.67505e-07
4.69199e-07
4.71188e-07
4.73362e-07
4.75544e-07
4.77398e-07
4.78752e-07
4.79807e-07
4.80814e-07
4.81959e-07
4.83255e-07
4.84545e-07
4.85469e-07
4.8578e-07
4.85715e-07
4.85537e-07
4.85366e-07
4.85193e-07
4.84876e-07
4.8436e-07
4.83665e-07
4.82762e-07
4.81504e-07
4.79789e-07
4.77761e-07
4.7571e-07
4.73749e-07
4.71829e-07
4.69805e-07
4.67255e-07
4.64059e-07
4.60867e-07
4.57862e-07
4.54847e-07
4.51778e-07
4.48501e-07
4.44841e-07
4.40966e-07
4.37063e-07
4.33172e-07
4.29243e-07
4.25151e-07
4.20883e-07
4.1646e-07
4.11943e-07
4.07497e-07
4.0316e-07
3.98787e-07
3.94108e-07
3.8908e-07
3.84014e-07
3.79078e-07
3.74168e-07
3.69242e-07
3.64348e-07
3.59439e-07
3.54318e-07
3.48994e-07
3.43641e-07
3.38333e-07
3.33045e-07
3.27749e-07
3.22484e-07
3.1729e-07
3.12025e-07
3.06532e-07
3.00987e-07
2.95555e-07
2.90152e-07
2.84741e-07
2.79337e-07
2.73972e-07
2.68535e-07
2.62996e-07
2.57411e-07
2.51811e-07
2.46211e-07
2.40645e-07
2.35164e-07
2.29716e-07
2.24324e-07
2.19009e-07
2.13791e-07
2.08702e-07
2.03748e-07
1.98866e-07
1.94051e-07
1.8935e-07
1.84826e-07
1.80517e-07
1.7643e-07
1.72582e-07
1.69007e-07
1.6573e-07
1.62742e-07
1.60012e-07
1.57528e-07
1.55291e-07
1.53304e-07
1.51562e-07
1.50052e-07
1.48765e-07
1.47693e-07
1.46824e-07
1.46136e-07
1.45612e-07
1.45238e-07
1.4501e-07
1.44921e-07
1.44959e-07
1.45101e-07
1.45332e-07
1.45641e-07
1.46024e-07
1.46471e-07
1.46967e-07
1.47492e-07
1.48027e-07
1.48563e-07
1.49088e-07
1.49591e-07
1.50056e-07
1.50477e-07
1.5085e-07
1.51175e-07
1.51448e-07
1.51669e-07
1.51836e-07
1.51947e-07
1.52004e-07
1.52005e-07
1.51949e-07
1.51834e-07
1.51655e-07
1.51412e-07
1.51106e-07
1.50738e-07
1.50307e-07
1.49816e-07
1.49265e-07
1.48655e-07
1.47989e-07
1.47268e-07
1.46494e-07
1.4567e-07
1.44797e-07
1.43878e-07
1.42913e-07
1.41905e-07
1.40857e-07
1.39776e-07
1.3866e-07
1.37509e-07
1.36323e-07
1.35105e-07
1.33857e-07
1.32579e-07
1.31272e-07
1.29937e-07
1.28574e-07
1.27184e-07
1.25765e-07
1.2432e-07
1.22855e-07
1.21369e-07
1.19866e-07
1.18347e-07
1.16815e-07
1.15271e-07
1.13721e-07
1.12166e-07
1.10609e-07
1.0905e-07
1.07492e-07
1.0594e-07
1.04393e-07
1.02858e-07
1.01336e-07
9.98326e-08
9.83403e-08
9.68692e-08
9.5411e-08
9.39802e-08
9.25707e-08
9.1195e-08
8.98472e-08
8.85265e-08
8.72359e-08
8.59778e-08
8.47676e-08
8.35909e-08
8.24606e-08
8.13537e-08
8.0283e-08
7.92449e-08
7.82397e-08
7.72691e-08
7.6326e-08
7.53926e-08
7.4464e-08
7.35893e-08
7.27556e-08
7.19255e-08
7.11749e-08
7.01467e-08
6.90393e-08
6.82981e-08
6.78056e-08
6.68193e-08
6.72195e-08
6.8357e-08
7.15172e-08
7.25362e-08
7.44017e-08
7.52155e-08
7.60667e-08
7.63711e-08
7.66367e-08
7.67081e-08
7.68074e-08
7.67601e-08
7.68031e-08
7.67963e-08
7.63417e-08
7.6066e-08
7.55949e-08
7.37885e-08
7.24667e-08
7.04202e-08
6.95713e-08
6.76532e-08
6.83282e-08
6.87576e-08
6.94658e-08
6.98668e-08
7.0336e-08
7.05966e-08
7.08331e-08
7.0582e-08
7.05004e-08
7.03743e-08
6.988e-08
7.01906e-08
6.88959e-08
6.69959e-08
6.71745e-08
6.66971e-08
6.41861e-08
6.85775e-08
7.40229e-08
8.78674e-08
9.11858e-08
9.70443e-08
1.01165e-07
1.07622e-07
1.14637e-07
1.22217e-07
1.28956e-07
1.34762e-07
1.39711e-07
1.44244e-07
1.48146e-07
1.51291e-07
1.53924e-07
1.56071e-07
1.58022e-07
1.59928e-07
1.61601e-07
1.62964e-07
1.64194e-07
1.65394e-07
1.66504e-07
1.67403e-07
1.68224e-07
1.69149e-07
1.70143e-07
1.71025e-07
1.71809e-07
1.7249e-07
1.73141e-07
1.73772e-07
1.74352e-07
1.7495e-07
1.75591e-07
1.76207e-07
1.7669e-07
1.77033e-07
1.77298e-07
1.77567e-07
1.77904e-07
1.7828e-07
1.78684e-07
1.7905e-07
1.79395e-07
1.79756e-07
1.80098e-07
1.80415e-07
1.80752e-07
1.81154e-07
1.8162e-07
1.82116e-07
1.826e-07
1.83044e-07
1.83449e-07
1.83827e-07
1.84202e-07
1.84594e-07
1.85008e-07
1.85441e-07
1.8589e-07
1.86346e-07
1.86803e-07
1.87264e-07
1.87742e-07
1.88245e-07
1.88779e-07
1.89317e-07
1.89863e-07
1.90394e-07
1.90964e-07
1.91564e-07
1.92188e-07
1.92776e-07
1.93438e-07
1.94151e-07
1.94591e-07
1.94373e-07
1.93031e-07
1.80587e-07
1.5691e-07
9.66079e-08
3.46291e-08
3.03742e-08
2.71247e-08
2.31061e-08
2.01518e-08
1.80567e-08
1.71776e-08
1.68838e-08
1.70563e-08
1.76606e-08
1.87456e-08
2.08452e-08
2.48667e-08
3.00584e-08
3.7214e-08
4.57858e-08
5.47141e-08
6.25007e-08
6.76059e-08
6.84616e-08
6.77263e-08
6.93322e-08
7.64923e-08
9.48545e-08
1.37146e-07
2.31073e-07
4.21808e-07
7.05993e-07
9.03108e-07
1.00254e-06
1.00232e-06
9.37293e-07
9.6149e-07
1.13313e-06
1.32865e-06
1.43925e-06
1.63922e-06
1.8751e-06
1.97509e-06
1.69145e-06
1.16469e-06
7.77498e-07
6.61802e-07
7.04812e-07
6.80853e-07
5.2813e-07
3.79376e-07
3.35336e-07
3.68197e-07
4.39571e-07
4.14961e-07
3.12136e-07
2.21835e-07
1.58696e-07
1.22282e-07
1.05447e-07
1.05154e-07
1.24195e-07
1.67335e-07
2.36332e-07
3.14664e-07
3.95135e-07
4.19611e-07
3.89237e-07
3.32875e-07
2.71893e-07
2.05515e-07
1.51223e-07
1.18741e-07
1.0446e-07
1.03788e-07
1.13977e-07
1.32273e-07
1.58337e-07
1.89085e-07
2.22874e-07
2.61279e-07
3.7873e-07
4.96252e-07
4.88952e-07
5.12003e-07
5.81207e-07
6.45025e-07
6.70356e-07
6.1429e-07
5.60387e-07
4.90743e-07
4.18388e-07
3.56268e-07
2.91896e-07
2.32593e-07
1.85319e-07
1.52849e-07
1.36513e-07
1.34701e-07
1.43415e-07
1.62144e-07
1.89547e-07
2.46236e-07
3.0248e-07
3.23203e-07
3.23484e-07
3.26327e-07
2.83004e-07
2.31395e-07
1.82223e-07
1.43732e-07
1.09218e-07
8.49664e-08
7.00611e-08
6.22825e-08
5.89916e-08
5.83908e-08
5.92898e-08
6.34346e-08
7.03525e-08
9.11561e-08
1.04767e-07
9.71662e-08
7.88835e-08
6.90394e-08
6.32942e-08
6.10037e-08
5.95194e-08
5.81723e-08
5.57655e-08
5.36957e-08
5.25869e-08
5.24479e-08
5.28933e-08
5.36409e-08
5.41959e-08
5.41777e-08
5.4019e-08
5.4252e-08
5.49549e-08
5.57528e-08
5.63364e-08
5.67613e-08
5.73268e-08
5.81945e-08
5.90941e-08
5.97165e-08
5.9853e-08
5.97463e-08
5.99008e-08
6.05894e-08
6.17334e-08
6.2486e-08
6.24083e-08
6.22527e-08
6.2624e-08
6.33851e-08
6.40355e-08
6.43912e-08
6.4491e-08
6.45953e-08
6.48403e-08
6.50907e-08
6.52014e-08
6.51789e-08
6.50621e-08
6.49343e-08
6.50177e-08
6.51847e-08
6.48558e-08
6.41489e-08
6.36118e-08
6.35223e-08
6.3498e-08
6.28067e-08
6.16214e-08
6.05704e-08
5.97586e-08
5.93758e-08
5.91785e-08
5.85353e-08
5.74557e-08
5.60804e-08
5.46061e-08
5.34154e-08
5.2394e-08
5.15162e-08
5.08225e-08
4.98929e-08
4.85868e-08
4.72147e-08
4.61044e-08
4.5268e-08
4.44666e-08
4.35688e-08
4.24968e-08
4.13245e-08
4.02021e-08
3.92353e-08
3.85067e-08
3.79238e-08
3.7251e-08
3.63885e-08
3.53282e-08
3.43318e-08
3.35357e-08
3.28809e-08
3.22408e-08
3.15247e-08
3.07215e-08
2.99581e-08
2.93475e-08
2.88507e-08
2.82634e-08
2.74265e-08
2.65818e-08
2.59394e-08
2.54347e-08
2.5031e-08
2.46682e-08
2.41795e-08
2.3539e-08
2.28568e-08
2.23032e-08
2.18836e-08
2.15488e-08
2.12635e-08
2.09277e-08
2.05036e-08
2.00371e-08
1.96111e-08
1.9283e-08
1.90334e-08
1.88323e-08
1.86093e-08
1.83214e-08
1.80103e-08
1.77383e-08
1.75327e-08
1.73804e-08
1.72612e-08
1.71619e-08
1.70691e-08
1.69754e-08
1.68764e-08
1.67741e-08
1.6687e-08
1.66395e-08
1.66448e-08
1.6691e-08
1.67391e-08
1.67535e-08
1.67403e-08
1.67392e-08
1.67836e-08
1.68682e-08
1.69625e-08
1.70398e-08
1.70934e-08
1.71371e-08
1.71936e-08
1.72706e-08
1.73552e-08
1.74301e-08
1.74852e-08
1.75254e-08
1.75728e-08
1.76499e-08
1.77552e-08
1.78538e-08
1.79007e-08
1.78932e-08
1.78734e-08
1.78767e-08
1.79098e-08
1.7966e-08
1.80315e-08
1.80817e-08
1.80926e-08
1.80643e-08
1.80221e-08
1.79869e-08
1.79624e-08
1.79503e-08
1.79598e-08
1.7982e-08
1.79779e-08
1.79244e-08
1.78479e-08
1.77837e-08
1.77362e-08
1.76968e-08
1.76656e-08
1.76337e-08
1.75825e-08
1.75043e-08
1.74127e-08
1.73217e-08
1.72353e-08
1.71581e-08
1.70859e-08
1.70036e-08
1.69031e-08
1.67889e-08
1.6669e-08
1.65576e-08
1.64591e-08
1.63563e-08
1.62364e-08
1.6101e-08
1.59657e-08
1.58378e-08
1.57112e-08
1.55795e-08
1.54442e-08
1.53167e-08
1.52066e-08
1.51079e-08
1.50059e-08
1.48979e-08
1.4795e-08
1.4704e-08
1.46244e-08
1.45543e-08
1.44923e-08
1.44384e-08
1.43937e-08
1.43599e-08
1.43346e-08
1.43143e-08
1.43017e-08
1.43008e-08
1.43091e-08
1.43204e-08
1.43318e-08
1.43469e-08
1.43712e-08
1.44077e-08
1.44497e-08
1.44851e-08
1.4509e-08
1.45296e-08
1.45526e-08
1.45774e-08
1.4601e-08
1.46206e-08
1.46344e-08
1.46436e-08
1.46506e-08
1.46537e-08
1.46516e-08
1.46447e-08
1.46349e-08
1.46244e-08
1.46145e-08
1.46031e-08
1.45871e-08
1.45659e-08
1.45427e-08
1.45199e-08
1.44973e-08
1.44749e-08
1.44493e-08
1.44194e-08
1.43873e-08
1.43543e-08
1.43202e-08
1.42863e-08
1.42556e-08
1.42252e-08
1.41891e-08
1.41431e-08
1.40915e-08
1.40453e-08
1.40074e-08
1.39656e-08
1.39121e-08
1.38524e-08
1.37953e-08
1.37434e-08
1.3694e-08
1.36438e-08
1.35969e-08
1.35497e-08
1.34919e-08
1.34223e-08
1.33577e-08
1.33012e-08
1.32469e-08
1.31919e-08
1.31351e-08
1.30737e-08
1.30097e-08
1.29515e-08
1.28973e-08
1.28396e-08
1.27739e-08
1.27094e-08
1.26484e-08
1.25887e-08
1.25304e-08
1.24804e-08
1.24297e-08
1.23733e-08
1.23146e-08
1.22526e-08
1.21973e-08
1.21464e-08
1.21163e-08
1.20775e-08
1.20324e-08
1.19642e-08
1.19283e-08
1.18915e-08
1.18563e-08
1.18117e-08
1.17436e-08
1.17073e-08
1.16409e-08
1.16029e-08
1.15732e-08
1.14876e-08
1.14686e-08
1.15021e-08
1.13841e-08
1.14291e-08
1.15531e-08
1.13049e-08
1.1462e-08
1.20213e-08
1.1963e-08
1.2715e-08
1.36252e-08
1.46436e-08
1.43255e-08
1.29762e-08
1.26714e-08
1.21718e-08
1.20012e-08
1.18265e-08
1.17352e-08
1.16206e-08
1.14919e-08
1.14626e-08
1.16354e-08
1.143e-08
1.1813e-08
1.21702e-08
1.15897e-08
1.17842e-08
1.20965e-08
1.21039e-08
1.12102e-08
1.09434e-08
1.09118e-08
1.08291e-08
1.08285e-08
1.08111e-08
1.08713e-08
1.0894e-08
1.09516e-08
1.09218e-08
1.10042e-08
1.10774e-08
1.13073e-08
1.1863e-08
1.231e-08
1.28836e-08
1.38799e-08
1.39144e-08
1.51247e-08
1.71159e-08
2.05567e-08
1.95168e-08
1.3903e-08
1.24054e-08
1.19685e-08
1.19109e-08
1.18678e-08
1.1871e-08
1.192e-08
1.19599e-08
1.20157e-08
1.21544e-08
1.2288e-08
1.23656e-08
1.24248e-08
1.24602e-08
1.25419e-08
1.2674e-08
1.27718e-08
1.28002e-08
1.28448e-08
1.29174e-08
1.29705e-08
1.29648e-08
1.29679e-08
1.3045e-08
1.31724e-08
1.32621e-08
1.32988e-08
1.32873e-08
1.33011e-08
1.33304e-08
1.335e-08
1.3424e-08
1.3552e-08
1.36641e-08
1.36765e-08
1.3599e-08
1.35033e-08
1.3447e-08
1.34626e-08
1.35105e-08
1.35824e-08
1.36123e-08
1.36318e-08
1.36754e-08
1.36938e-08
1.3687e-08
1.36982e-08
1.37562e-08
1.38491e-08
1.39528e-08
1.40401e-08
1.40916e-08
1.41121e-08
1.41135e-08
1.41116e-08
1.41198e-08
1.41394e-08
1.4166e-08
1.41945e-08
1.42191e-08
1.42351e-08
1.42463e-08
1.42613e-08
1.42837e-08
1.43177e-08
1.43407e-08
1.43562e-08
1.43519e-08
1.43664e-08
1.43862e-08
1.44034e-08
1.44177e-08
1.44361e-08
1.44471e-08
1.44274e-08
1.4375e-08
1.42306e-08
1.40586e-08
1.33563e-08
1.19167e-08
2.53926e-08
2.325e-08
2.08216e-08
1.68697e-08
1.42198e-08
1.30671e-08
1.27449e-08
1.2849e-08
1.33948e-08
1.45162e-08
1.64491e-08
2.02919e-08
2.60909e-08
3.50166e-08
4.77693e-08
6.34734e-08
8.01734e-08
9.58707e-08
1.0929e-07
1.11407e-07
1.12272e-07
1.36581e-07
1.78828e-07
2.52105e-07
4.02484e-07
7.70908e-07
1.4505e-06
2.07448e-06
2.18668e-06
2.25469e-06
2.20072e-06
2.22717e-06
2.23393e-06
2.20562e-06
2.09948e-06
2.01651e-06
2.14999e-06
2.09417e-06
1.83598e-06
1.39357e-06
8.09487e-07
4.15456e-07
3.00646e-07
2.97366e-07
2.83612e-07
2.28167e-07
1.51309e-07
1.18279e-07
1.24291e-07
1.40142e-07
1.31287e-07
1.09424e-07
8.1597e-08
5.69543e-08
4.33423e-08
3.77831e-08
3.77346e-08
4.3283e-08
5.52534e-08
6.92362e-08
7.91688e-08
8.56098e-08
9.24654e-08
1.01377e-07
1.00381e-07
8.96284e-08
7.60459e-08
6.35528e-08
5.133e-08
4.45198e-08
4.31143e-08
4.66142e-08
5.44194e-08
6.3874e-08
7.3604e-08
8.32964e-08
9.58856e-08
1.1828e-07
1.60858e-07
2.03874e-07
2.66414e-07
3.23766e-07
3.3592e-07
3.9205e-07
4.73037e-07
5.48718e-07
6.0553e-07
5.72902e-07
4.86323e-07
3.98882e-07
3.03962e-07
2.34433e-07
1.74969e-07
1.32024e-07
1.05514e-07
9.11876e-08
8.66055e-08
8.90756e-08
9.72626e-08
1.13126e-07
1.21e-07
1.28105e-07
1.32574e-07
1.23041e-07
1.12937e-07
9.96886e-08
8.34756e-08
6.60079e-08
5.00394e-08
3.92382e-08
3.22476e-08
2.67003e-08
2.27575e-08
2.00612e-08
1.87284e-08
1.85277e-08
1.99236e-08
2.23275e-08
2.27067e-08
2.25264e-08
2.19438e-08
2.06699e-08
1.96049e-08
1.89139e-08
1.80826e-08
1.71919e-08
1.6384e-08
1.58739e-08
1.54579e-08
1.52119e-08
1.50643e-08
1.49787e-08
1.49076e-08
1.48846e-08
1.49349e-08
1.50548e-08
1.51819e-08
1.52758e-08
1.53491e-08
1.54428e-08
1.55775e-08
1.57209e-08
1.58287e-08
1.5876e-08
1.58987e-08
1.59668e-08
1.61068e-08
1.62878e-08
1.64085e-08
1.64409e-08
1.64843e-08
1.6609e-08
1.67757e-08
1.69057e-08
1.69996e-08
1.70877e-08
1.71971e-08
1.73203e-08
1.743e-08
1.75059e-08
1.75558e-08
1.75996e-08
1.76535e-08
1.77472e-08
1.7848e-08
1.78634e-08
1.78044e-08
1.77693e-08
1.78107e-08
1.78514e-08
1.77875e-08
1.76292e-08
1.74714e-08
1.73448e-08
1.7278e-08
1.72478e-08
1.71474e-08
1.69669e-08
1.67151e-08
1.6423e-08
1.61683e-08
1.59466e-08
1.57574e-08
1.56049e-08
1.54205e-08
1.51753e-08
1.49056e-08
1.46641e-08
1.44669e-08
1.42917e-08
1.41173e-08
1.39259e-08
1.37172e-08
1.35092e-08
1.33236e-08
1.31735e-08
1.30479e-08
1.29195e-08
1.27725e-08
1.26072e-08
1.24499e-08
1.23165e-08
1.22025e-08
1.20933e-08
1.19805e-08
1.18672e-08
1.17632e-08
1.16745e-08
1.15945e-08
1.15081e-08
1.14083e-08
1.13111e-08
1.12311e-08
1.11662e-08
1.11116e-08
1.1061e-08
1.10048e-08
1.09417e-08
1.08777e-08
1.08224e-08
1.07778e-08
1.07408e-08
1.07078e-08
1.06748e-08
1.06398e-08
1.06043e-08
1.05712e-08
1.05434e-08
1.05208e-08
1.05016e-08
1.04832e-08
1.04634e-08
1.04432e-08
1.04253e-08
1.04112e-08
1.04008e-08
1.03927e-08
1.03859e-08
1.03796e-08
1.03733e-08
1.03669e-08
1.03608e-08
1.03557e-08
1.03525e-08
1.03515e-08
1.03524e-08
1.03539e-08
1.03545e-08
1.03541e-08
1.03537e-08
1.0355e-08
1.03581e-08
1.03626e-08
1.03675e-08
1.03723e-08
1.03765e-08
1.03811e-08
1.03863e-08
1.03917e-08
1.03972e-08
1.04022e-08
1.04069e-08
1.04121e-08
1.0419e-08
1.04272e-08
1.04348e-08
1.04393e-08
1.04409e-08
1.04419e-08
1.04445e-08
1.0449e-08
1.0455e-08
1.04613e-08
1.04666e-08
1.04699e-08
1.04715e-08
1.04723e-08
1.04732e-08
1.04744e-08
1.04767e-08
1.04806e-08
1.04855e-08
1.04886e-08
1.04885e-08
1.0487e-08
1.04864e-08
1.04872e-08
1.04885e-08
1.04901e-08
1.04914e-08
1.04916e-08
1.04905e-08
1.04889e-08
1.04873e-08
1.04858e-08
1.04845e-08
1.04835e-08
1.04824e-08
1.04806e-08
1.04777e-08
1.04737e-08
1.04696e-08
1.04665e-08
1.04637e-08
1.04599e-08
1.04543e-08
1.0448e-08
1.04421e-08
1.04369e-08
1.04312e-08
1.04245e-08
1.0418e-08
1.04126e-08
1.04082e-08
1.04034e-08
1.03975e-08
1.03914e-08
1.03861e-08
1.03817e-08
1.03782e-08
1.03751e-08
1.03724e-08
1.03701e-08
1.03685e-08
1.03675e-08
1.0367e-08
1.03672e-08
1.03682e-08
1.03698e-08
1.03712e-08
1.03726e-08
1.03745e-08
1.03773e-08
1.03808e-08
1.03843e-08
1.0387e-08
1.03885e-08
1.03894e-08
1.03904e-08
1.03914e-08
1.03923e-08
1.03926e-08
1.03923e-08
1.03912e-08
1.03896e-08
1.03876e-08
1.03853e-08
1.03826e-08
1.03798e-08
1.03772e-08
1.03747e-08
1.03722e-08
1.03693e-08
1.03662e-08
1.03631e-08
1.03602e-08
1.03576e-08
1.0355e-08
1.03523e-08
1.03492e-08
1.03461e-08
1.03431e-08
1.03401e-08
1.03373e-08
1.03346e-08
1.0332e-08
1.03289e-08
1.03253e-08
1.03215e-08
1.03181e-08
1.03152e-08
1.03118e-08
1.03074e-08
1.03023e-08
1.02972e-08
1.02927e-08
1.02886e-08
1.02843e-08
1.028e-08
1.02755e-08
1.02707e-08
1.02656e-08
1.02607e-08
1.02563e-08
1.02522e-08
1.02478e-08
1.02433e-08
1.02387e-08
1.02341e-08
1.02299e-08
1.02257e-08
1.02214e-08
1.02169e-08
1.02127e-08
1.02087e-08
1.02047e-08
1.02005e-08
1.01967e-08
1.01931e-08
1.01896e-08
1.01862e-08
1.01823e-08
1.01786e-08
1.01752e-08
1.01731e-08
1.01703e-08
1.01683e-08
1.01649e-08
1.01641e-08
1.01608e-08
1.01579e-08
1.01555e-08
1.01522e-08
1.01535e-08
1.01492e-08
1.0153e-08
1.01509e-08
1.01456e-08
1.01474e-08
1.01528e-08
1.01463e-08
1.015e-08
1.01639e-08
1.01585e-08
1.0182e-08
1.02286e-08
1.02508e-08
1.02881e-08
1.03116e-08
1.03594e-08
1.0305e-08
1.02204e-08
1.01953e-08
1.01705e-08
1.01547e-08
1.01492e-08
1.01462e-08
1.01472e-08
1.01443e-08
1.01514e-08
1.01646e-08
1.01496e-08
1.01533e-08
1.01643e-08
1.01333e-08
1.01147e-08
1.00995e-08
1.01136e-08
1.00973e-08
1.00953e-08
1.0095e-08
1.00958e-08
1.00957e-08
1.00986e-08
1.01006e-08
1.0103e-08
1.01065e-08
1.01155e-08
1.01401e-08
1.01745e-08
1.02291e-08
1.03161e-08
1.03953e-08
1.04911e-08
1.06019e-08
1.06982e-08
1.07656e-08
1.07277e-08
1.10731e-08
1.06751e-08
1.02928e-08
1.02226e-08
1.0199e-08
1.01863e-08
1.01763e-08
1.01685e-08
1.01594e-08
1.01481e-08
1.01414e-08
1.01397e-08
1.01387e-08
1.01374e-08
1.01362e-08
1.01346e-08
1.01376e-08
1.01414e-08
1.01443e-08
1.01458e-08
1.01481e-08
1.0152e-08
1.01553e-08
1.01568e-08
1.01587e-08
1.01636e-08
1.01697e-08
1.0174e-08
1.0177e-08
1.01786e-08
1.01806e-08
1.01831e-08
1.01862e-08
1.01914e-08
1.0198e-08
1.0203e-08
1.02041e-08
1.02027e-08
1.02003e-08
1.01991e-08
1.02003e-08
1.02023e-08
1.02048e-08
1.02063e-08
1.02078e-08
1.02102e-08
1.02122e-08
1.02133e-08
1.0215e-08
1.02182e-08
1.02227e-08
1.02274e-08
1.02314e-08
1.02342e-08
1.02359e-08
1.02367e-08
1.02373e-08
1.02379e-08
1.0239e-08
1.02405e-08
1.02422e-08
1.02437e-08
1.02447e-08
1.02456e-08
1.02468e-08
1.02483e-08
1.02503e-08
1.02516e-08
1.02525e-08
1.02529e-08
1.02538e-08
1.02551e-08
1.02561e-08
1.02567e-08
1.02581e-08
1.02591e-08
1.02583e-08
1.0258e-08
1.02555e-08
1.02437e-08
1.0203e-08
1.01195e-08
1.86972e-08
1.7285e-08
1.57547e-08
1.34909e-08
1.22721e-08
1.18013e-08
1.17623e-08
1.20725e-08
1.29004e-08
1.46786e-08
1.79703e-08
2.34587e-08
3.23246e-08
4.61589e-08
6.57627e-08
9.01025e-08
1.19519e-07
1.58511e-07
2.10001e-07
2.57564e-07
3.13239e-07
3.96268e-07
5.24451e-07
7.15859e-07
1.01294e-06
1.49128e-06
2.01177e-06
2.14337e-06
1.87222e-06
1.70238e-06
1.6604e-06
1.66862e-06
1.73785e-06
1.80564e-06
1.80954e-06
1.7394e-06
1.63136e-06
1.45325e-06
1.20728e-06
7.24669e-07
3.56366e-07
1.93405e-07
1.37434e-07
1.32841e-07
1.23828e-07
9.10664e-08
6.41428e-08
5.13114e-08
5.11438e-08
5.5301e-08
5.29822e-08
4.64795e-08
3.5818e-08
2.78818e-08
2.32208e-08
2.10568e-08
2.08804e-08
2.19944e-08
2.33376e-08
2.41443e-08
2.46204e-08
2.54306e-08
2.75512e-08
3.18166e-08
3.62558e-08
3.7305e-08
3.41885e-08
3.14662e-08
2.71068e-08
2.36351e-08
2.24095e-08
2.30162e-08
2.51457e-08
2.8679e-08
3.34744e-08
3.95445e-08
4.55177e-08
5.33593e-08
6.80024e-08
8.65853e-08
1.12776e-07
1.57639e-07
2.05347e-07
2.65839e-07
3.11014e-07
3.25126e-07
3.59032e-07
4.12719e-07
4.77854e-07
5.20001e-07
5.32395e-07
4.5467e-07
3.56572e-07
2.4466e-07
1.698e-07
1.2052e-07
8.95942e-08
7.35928e-08
6.65681e-08
6.3276e-08
6.08496e-08
5.89077e-08
5.98365e-08
5.74603e-08
5.33811e-08
4.90503e-08
4.24851e-08
3.63005e-08
3.13154e-08
2.78809e-08
2.50774e-08
2.25762e-08
2.02596e-08
1.83661e-08
1.67673e-08
1.54648e-08
1.44363e-08
1.36663e-08
1.31354e-08
1.29791e-08
1.29399e-08
1.27913e-08
1.2681e-08
1.25765e-08
1.23717e-08
1.21704e-08
1.19814e-08
1.17654e-08
1.15373e-08
1.13392e-08
1.11905e-08
1.10766e-08
1.0993e-08
1.09409e-08
1.09178e-08
1.09193e-08
1.09339e-08
1.09513e-08
1.09646e-08
1.09775e-08
1.09962e-08
1.10184e-08
1.10384e-08
1.10521e-08
1.10642e-08
1.10832e-08
1.11106e-08
1.11404e-08
1.11616e-08
1.1175e-08
1.11938e-08
1.12242e-08
1.12579e-08
1.12836e-08
1.13042e-08
1.13276e-08
1.13572e-08
1.13885e-08
1.14163e-08
1.1437e-08
1.14513e-08
1.14645e-08
1.14812e-08
1.15049e-08
1.15282e-08
1.15385e-08
1.15343e-08
1.15303e-08
1.15381e-08
1.15449e-08
1.15366e-08
1.15104e-08
1.14786e-08
1.14497e-08
1.14285e-08
1.14144e-08
1.13905e-08
1.13516e-08
1.12974e-08
1.12332e-08
1.11735e-08
1.11198e-08
1.1073e-08
1.10336e-08
1.09909e-08
1.09402e-08
1.08842e-08
1.08303e-08
1.07836e-08
1.07427e-08
1.07053e-08
1.0668e-08
1.06292e-08
1.05901e-08
1.05539e-08
1.05232e-08
1.0497e-08
1.04724e-08
1.0447e-08
1.04203e-08
1.03945e-08
1.03717e-08
1.03518e-08
1.03334e-08
1.03155e-08
1.02985e-08
1.02832e-08
1.02696e-08
1.02568e-08
1.02439e-08
1.02305e-08
1.0218e-08
1.02074e-08
1.01985e-08
1.01906e-08
1.01833e-08
1.01759e-08
1.01684e-08
1.01611e-08
1.01547e-08
1.01492e-08
1.01444e-08
1.01401e-08
1.01361e-08
1.01322e-08
1.01285e-08
1.0125e-08
1.01218e-08
1.01191e-08
1.01167e-08
1.01145e-08
1.01123e-08
1.01102e-08
1.01084e-08
1.01069e-08
1.01056e-08
1.01044e-08
1.01034e-08
1.01024e-08
1.01015e-08
1.01007e-08
1.01e-08
1.00995e-08
1.00991e-08
1.00988e-08
1.00986e-08
1.00984e-08
1.00983e-08
1.00982e-08
1.00982e-08
1.00983e-08
1.00984e-08
1.00986e-08
1.00987e-08
1.00989e-08
1.00991e-08
1.00994e-08
1.00997e-08
1.01e-08
1.01001e-08
1.01002e-08
1.01005e-08
1.01008e-08
1.01012e-08
1.01018e-08
1.01023e-08
1.01026e-08
1.01027e-08
1.01029e-08
1.01032e-08
1.01037e-08
1.01041e-08
1.01045e-08
1.01049e-08
1.01053e-08
1.01056e-08
1.01059e-08
1.01061e-08
1.01063e-08
1.01065e-08
1.01069e-08
1.01074e-08
1.01077e-08
1.01079e-08
1.0108e-08
1.01082e-08
1.01085e-08
1.01087e-08
1.01089e-08
1.01091e-08
1.01093e-08
1.01095e-08
1.01096e-08
1.01096e-08
1.01096e-08
1.01096e-08
1.01096e-08
1.01097e-08
1.01098e-08
1.01097e-08
1.01094e-08
1.01092e-08
1.0109e-08
1.01089e-08
1.01086e-08
1.01081e-08
1.01076e-08
1.01071e-08
1.01067e-08
1.01062e-08
1.01056e-08
1.01049e-08
1.01043e-08
1.01039e-08
1.01033e-08
1.01026e-08
1.01019e-08
1.01012e-08
1.01006e-08
1.01001e-08
1.00996e-08
1.00991e-08
1.00986e-08
1.00982e-08
1.00978e-08
1.00975e-08
1.00973e-08
1.00971e-08
1.0097e-08
1.00968e-08
1.00966e-08
1.00965e-08
1.00965e-08
1.00965e-08
1.00966e-08
1.00966e-08
1.00964e-08
1.00963e-08
1.00961e-08
1.00959e-08
1.00957e-08
1.00955e-08
1.00953e-08
1.00951e-08
1.00949e-08
1.00946e-08
1.00943e-08
1.00939e-08
1.00936e-08
1.00932e-08
1.00929e-08
1.00925e-08
1.00921e-08
1.00917e-08
1.00912e-08
1.00908e-08
1.00904e-08
1.00901e-08
1.00897e-08
1.00892e-08
1.00888e-08
1.00884e-08
1.0088e-08
1.00876e-08
1.00872e-08
1.00868e-08
1.00864e-08
1.0086e-08
1.00856e-08
1.00852e-08
1.00849e-08
1.00845e-08
1.0084e-08
1.00835e-08
1.0083e-08
1.00826e-08
1.00822e-08
1.00817e-08
1.00813e-08
1.00808e-08
1.00804e-08
1.00799e-08
1.00794e-08
1.0079e-08
1.00786e-08
1.00781e-08
1.00776e-08
1.00771e-08
1.00765e-08
1.00759e-08
1.00752e-08
1.00743e-08
1.00734e-08
1.00727e-08
1.00721e-08
1.00714e-08
1.00707e-08
1.00698e-08
1.0069e-08
1.00683e-08
1.00679e-08
1.00677e-08
1.00672e-08
1.00668e-08
1.00668e-08
1.00678e-08
1.00673e-08
1.00677e-08
1.0067e-08
1.0068e-08
1.00688e-08
1.00688e-08
1.0069e-08
1.00691e-08
1.0069e-08
1.00697e-08
1.0071e-08
1.00717e-08
1.00735e-08
1.00762e-08
1.00783e-08
1.00787e-08
1.0078e-08
1.00771e-08
1.0077e-08
1.00778e-08
1.00784e-08
1.00778e-08
1.00763e-08
1.00779e-08
1.00748e-08
1.00718e-08
1.00717e-08
1.00729e-08
1.00741e-08
1.00764e-08
1.00794e-08
1.00823e-08
1.0085e-08
1.00853e-08
1.00835e-08
1.00778e-08
1.0073e-08
1.00675e-08
1.00674e-08
1.00655e-08
1.00642e-08
1.00637e-08
1.00641e-08
1.00648e-08
1.0066e-08
1.00674e-08
1.00713e-08
1.00753e-08
1.00802e-08
1.00905e-08
1.01111e-08
1.01436e-08
1.01845e-08
1.02286e-08
1.02302e-08
1.02165e-08
1.02052e-08
1.02022e-08
1.01873e-08
1.01918e-08
1.01575e-08
1.01177e-08
1.01076e-08
1.00931e-08
1.00843e-08
1.00809e-08
1.00785e-08
1.00767e-08
1.00752e-08
1.00738e-08
1.00723e-08
1.00708e-08
1.00694e-08
1.00682e-08
1.0067e-08
1.00659e-08
1.00648e-08
1.0064e-08
1.00637e-08
1.00637e-08
1.00637e-08
1.00631e-08
1.00627e-08
1.00628e-08
1.00628e-08
1.00628e-08
1.0063e-08
1.00635e-08
1.00638e-08
1.00641e-08
1.00643e-08
1.00644e-08
1.00644e-08
1.00647e-08
1.0065e-08
1.00654e-08
1.00657e-08
1.0066e-08
1.0066e-08
1.00659e-08
1.00658e-08
1.00659e-08
1.0066e-08
1.00662e-08
1.00663e-08
1.00665e-08
1.00666e-08
1.00668e-08
1.0067e-08
1.00672e-08
1.00673e-08
1.00675e-08
1.00678e-08
1.0068e-08
1.00682e-08
1.00683e-08
1.00684e-08
1.00684e-08
1.00685e-08
1.00685e-08
1.00686e-08
1.00687e-08
1.00687e-08
1.00687e-08
1.00687e-08
1.00688e-08
1.00688e-08
1.00688e-08
1.00689e-08
1.00689e-08
1.0069e-08
1.0069e-08
1.0069e-08
1.00691e-08
1.00691e-08
1.00691e-08
1.00693e-08
1.00695e-08
1.00699e-08
1.00706e-08
1.00713e-08
1.00698e-08
1.006e-08
1.00372e-08
1.44622e-08
1.37949e-08
1.30289e-08
1.1996e-08
1.14548e-08
1.12737e-08
1.13409e-08
1.17463e-08
1.26745e-08
1.46578e-08
1.82664e-08
2.42603e-08
3.40715e-08
4.91338e-08
6.92684e-08
9.2783e-08
1.1979e-07
1.52198e-07
1.99012e-07
2.62427e-07
3.40034e-07
4.29041e-07
5.28534e-07
6.35106e-07
7.5053e-07
8.85561e-07
9.4592e-07
8.47994e-07
7.53005e-07
7.59644e-07
8.61804e-07
9.87616e-07
1.08654e-06
1.132e-06
1.11824e-06
1.06315e-06
9.80891e-07
8.62255e-07
5.93064e-07
2.90904e-07
1.37575e-07
8.39785e-08
6.30629e-08
5.72338e-08
4.9857e-08
3.90398e-08
3.13124e-08
2.75314e-08
2.66543e-08
2.77572e-08
2.72275e-08
2.4527e-08
2.10909e-08
1.82743e-08
1.64157e-08
1.53632e-08
1.49087e-08
1.47879e-08
1.47198e-08
1.46081e-08
1.45899e-08
1.48453e-08
1.55589e-08
1.69748e-08
1.87189e-08
1.98949e-08
2.00131e-08
1.91198e-08
1.76598e-08
1.63011e-08
1.55879e-08
1.55834e-08
1.61707e-08
1.73234e-08
1.91331e-08
2.18913e-08
2.5627e-08
3.00855e-08
3.62847e-08
4.3655e-08
5.3393e-08
6.90674e-08
8.93999e-08
1.173e-07
1.56211e-07
1.92453e-07
2.27893e-07
2.64711e-07
2.88414e-07
2.95576e-07
3.34213e-07
3.50721e-07
3.43671e-07
3.18403e-07
2.62987e-07
2.09152e-07
1.45298e-07
1.01138e-07
7.23715e-08
5.38319e-08
4.41216e-08
3.89909e-08
3.53578e-08
3.18927e-08
2.91591e-08
2.74862e-08
2.53346e-08
2.30545e-08
2.1136e-08
1.98576e-08
1.88363e-08
1.79345e-08
1.72635e-08
1.66455e-08
1.59943e-08
1.52643e-08
1.45271e-08
1.3793e-08
1.3113e-08
1.25025e-08
1.19786e-08
1.15607e-08
1.13155e-08
1.11672e-08
1.10563e-08
1.09854e-08
1.09373e-08
1.08892e-08
1.08526e-08
1.08086e-08
1.07318e-08
1.0638e-08
1.05495e-08
1.04763e-08
1.04216e-08
1.03848e-08
1.03587e-08
1.03393e-08
1.03253e-08
1.03174e-08
1.03131e-08
1.03117e-08
1.03119e-08
1.03128e-08
1.03151e-08
1.03191e-08
1.03244e-08
1.03299e-08
1.03344e-08
1.03386e-08
1.03442e-08
1.03516e-08
1.03593e-08
1.03654e-08
1.03709e-08
1.03772e-08
1.03851e-08
1.03934e-08
1.04009e-08
1.04068e-08
1.0411e-08
1.04148e-08
1.04194e-08
1.04253e-08
1.04306e-08
1.04336e-08
1.04336e-08
1.04326e-08
1.04335e-08
1.04342e-08
1.04322e-08
1.04265e-08
1.04186e-08
1.04108e-08
1.0404e-08
1.03985e-08
1.03914e-08
1.03812e-08
1.03677e-08
1.03526e-08
1.0338e-08
1.03244e-08
1.03122e-08
1.03014e-08
1.02906e-08
1.02789e-08
1.02664e-08
1.0254e-08
1.02428e-08
1.02328e-08
1.0224e-08
1.02157e-08
1.02076e-08
1.01995e-08
1.01919e-08
1.01851e-08
1.01791e-08
1.01737e-08
1.01685e-08
1.01633e-08
1.01583e-08
1.01536e-08
1.01495e-08
1.01457e-08
1.01421e-08
1.01387e-08
1.01356e-08
1.01326e-08
1.01299e-08
1.01272e-08
1.01246e-08
1.01221e-08
1.01198e-08
1.01176e-08
1.01157e-08
1.01138e-08
1.01121e-08
1.01103e-08
1.01087e-08
1.01071e-08
1.01056e-08
1.01042e-08
1.01029e-08
1.01016e-08
1.01005e-08
1.00993e-08
1.00983e-08
1.00972e-08
1.00962e-08
1.00952e-08
1.00943e-08
1.00935e-08
1.00927e-08
1.0092e-08
1.00913e-08
1.00906e-08
1.009e-08
1.00894e-08
1.00888e-08
1.00883e-08
1.00879e-08
1.00874e-08
1.0087e-08
1.00866e-08
1.00863e-08
1.0086e-08
1.00857e-08
1.00855e-08
1.00853e-08
1.00851e-08