/*--------------------------------*- C++ -*----------------------------------*\
| =========                 |                                                 |
| \\      /  F ield         | OpenFOAM: The Open Source CFD Toolbox           |
|  \\    /   O peration     | Version:  v2006                                 |
|   \\  /    A nd           | Website:  www.openfoam.com                      |
|    \\/     M anipulation  |                                                 |
\*---------------------------------------------------------------------------*/
FoamFile
{
    version     2.0;
    format      ascii;
    class       volScalarField;
    location    "9.6";
    object      omega;
}
// * * * * * * * * * * * * * * * * * * * * * * * * * * * * * * * * * * * * * //

dimensions      [0 0 -1 0 0 0 0];


internalField   nonuniform List<scalar> 
33000
(
0.8058
0.805829
0.805388
0.804733
0.804168
0.80386
0.803702
0.803629
0.8036
0.803644
0.803821
0.804082
0.804383
0.804678
0.804978
0.805304
0.805652
0.805987
0.806242
0.806401
0.806578
0.806859
0.807361
0.808375
0.810563
0.814883
0.821936
0.832617
0.846275
0.857664
0.863589
0.866382
0.868782
0.87174
0.876085
0.88388
0.900076
0.929238
0.962211
0.984823
0.994691
0.99757
0.999365
1.00019
0.998169
0.993861
0.985353
0.98236
0.985105
0.988364
0.98494
0.977513
0.965253
0.957022
0.952178
0.950561
0.95221
0.957781
0.966933
0.979324
0.989611
0.993564
0.992992
0.989006
0.982434
0.972524
0.959808
0.944654
0.930033
0.919057
0.911667
0.907368
0.904518
0.902536
0.900755
0.899309
0.899969
0.90155
0.90159
0.903144
0.90392
0.90606
0.90941
0.91386
0.919692
0.926624
0.932834
0.937556
0.940621
0.942536
0.942503
0.94098
0.938208
0.933312
0.927004
0.918791
0.911403
0.904614
0.900342
0.896383
0.895192
0.895604
0.896973
0.898509
0.898794
0.899368
0.901038
0.902639
0.903177
0.902764
0.902338
0.901283
0.900047
0.898226
0.895871
0.89199
0.888178
0.883843
0.881911
0.881323
0.881088
0.881898
0.88198
0.882498
0.883911
0.885021
0.885792
0.886395
0.886745
0.887072
0.887464
0.88781
0.888056
0.888165
0.888174
0.888122
0.888049
0.887976
0.887888
0.887778
0.887646
0.887492
0.887298
0.887046
0.886724
0.886331
0.885888
0.885405
0.884882
0.884304
0.883659
0.882943
0.882173
0.881372
0.880542
0.879673
0.878762
0.877813
0.876833
0.875831
0.874811
0.873772
0.87271
0.871627
0.870532
0.869436
0.868332
0.867207
0.866081
0.864986
0.863929
0.862891
0.861852
0.860838
0.859897
0.859055
0.858307
0.85762
0.856957
0.856306
0.855681
0.855112
0.854628
0.85424
0.853932
0.853666
0.853408
0.85317
0.852996
0.852891
0.852812
0.852718
0.852592
0.852452
0.852333
0.852271
0.852287
0.852356
0.85243
0.852475
0.852503
0.852557
0.852667
0.852818
0.852979
0.853126
0.853266
0.853429
0.853637
0.853861
0.854045
0.854183
0.854332
0.854532
0.854773
0.855042
0.855311
0.855536
0.855712
0.855879
0.856073
0.856302
0.856553
0.856805
0.857018
0.857173
0.857294
0.857409
0.857541
0.857691
0.85784
0.857947
0.857982
0.857974
0.857953
0.857934
0.857914
0.857878
0.857818
0.857739
0.857636
0.857492
0.857294
0.85706
0.856823
0.856597
0.856376
0.856144
0.85585
0.85548
0.855111
0.854764
0.854416
0.854061
0.853682
0.853258
0.852809
0.852357
0.851906
0.85145
0.850975
0.850479
0.849965
0.849439
0.848922
0.848417
0.847908
0.847362
0.846775
0.846184
0.845607
0.845033
0.844456
0.843883
0.843308
0.842708
0.842083
0.841454
0.84083
0.840208
0.839585
0.838965
0.838353
0.837732
0.837083
0.836428
0.835786
0.835146
0.834505
0.833865
0.833229
0.832583
0.831925
0.831261
0.830595
0.829928
0.829264
0.828611
0.82796
0.827316
0.82668
0.826056
0.825446
0.824853
0.824267
0.823689
0.823125
0.822581
0.822063
0.821571
0.821108
0.820677
0.820282
0.819922
0.819593
0.819293
0.819023
0.818784
0.818574
0.818391
0.818236
0.818107
0.818001
0.817917
0.817853
0.817807
0.817778
0.817767
0.817771
0.817787
0.817815
0.817852
0.817898
0.817951
0.818011
0.818074
0.818138
0.818203
0.818266
0.818327
0.818383
0.818433
0.818478
0.818517
0.81855
0.818576
0.818596
0.818609
0.818616
0.818616
0.818609
0.818594
0.818572
0.818543
0.818505
0.81846
0.818408
0.818348
0.818281
0.818207
0.818126
0.818038
0.817944
0.817844
0.817738
0.817626
0.817509
0.817386
0.817259
0.817127
0.816992
0.816852
0.816707
0.816559
0.816407
0.816252
0.816093
0.815931
0.815765
0.815596
0.815423
0.815247
0.815069
0.814888
0.814705
0.81452
0.814334
0.814145
0.813957
0.813767
0.813577
0.813387
0.813197
0.813008
0.81282
0.812632
0.812447
0.812263
0.812081
0.811902
0.811724
0.811549
0.811377
0.811209
0.811044
0.810883
0.810725
0.810571
0.810423
0.810279
0.810141
0.810006
0.809875
0.809748
0.809625
0.809506
0.809391
0.809277
0.809163
0.809056
0.808954
0.808852
0.808761
0.808635
0.808499
0.808408
0.808348
0.808227
0.808277
0.808417
0.808805
0.80893
0.809159
0.809259
0.809363
0.8094
0.809433
0.809442
0.809454
0.809449
0.809454
0.809453
0.809398
0.809364
0.809307
0.809085
0.808924
0.808673
0.80857
0.808334
0.808417
0.80847
0.808557
0.808606
0.808663
0.808695
0.808725
0.808694
0.808684
0.808669
0.808608
0.808647
0.808488
0.808255
0.808278
0.80822
0.807912
0.808451
0.809122
0.810816
0.81122
0.811933
0.812432
0.813218
0.814069
0.81499
0.815807
0.81651
0.817109
0.817658
0.81813
0.81851
0.818828
0.819087
0.819323
0.819553
0.819755
0.81992
0.820068
0.820213
0.820347
0.820456
0.820555
0.820666
0.820787
0.820893
0.820988
0.82107
0.821148
0.821225
0.821294
0.821367
0.821444
0.821518
0.821576
0.821617
0.821649
0.821682
0.821722
0.821767
0.821815
0.821859
0.8219
0.821943
0.821984
0.822022
0.822062
0.82211
0.822165
0.822224
0.822282
0.822335
0.822383
0.822428
0.822472
0.822518
0.822567
0.822619
0.822672
0.822726
0.82278
0.822834
0.822891
0.82295
0.823013
0.823077
0.823141
0.823204
0.823271
0.823342
0.823416
0.823485
0.823563
0.823648
0.823699
0.823671
0.823506
0.822002
0.819134
0.811782
0.962448
0.817371
0.806288
0.759504
0.711061
0.691476
0.67959
0.661405
0.656132
0.624542
0.604596
0.621449
0.709521
0.797754
0.863962
0.919534
0.962799
0.996399
1.03224
1.07448
1.12177
1.162
1.17824
1.18622
1.22267
1.35265
1.58014
1.79416
1.8794
1.89802
1.87448
1.82236
1.81354
1.86659
1.85589
1.71338
1.62083
1.58791
1.5288
1.36474
1.14542
0.953677
0.862783
0.834384
0.803013
0.746232
0.665128
0.629153
0.639701
0.659067
0.640028
0.59088
0.533147
0.494295
0.471038
0.454707
0.444622
0.446835
0.469545
0.506644
0.547343
0.589852
0.606824
0.606061
0.607685
0.603747
0.587133
0.569177
0.565649
0.572578
0.589289
0.622301
0.673896
0.746839
0.821555
0.890978
0.955925
1.06953
1.15525
1.144
1.18102
1.29221
1.38672
1.43635
1.39379
1.33376
1.25349
1.17042
1.09292
0.994376
0.890941
0.794882
0.714229
0.662286
0.645003
0.658539
0.700468
0.768892
0.866156
0.95769
1.03536
1.1145
1.19484
1.15697
1.06305
0.936819
0.810918
0.676827
0.560195
0.470222
0.394113
0.336749
0.300591
0.284647
0.287607
0.306685
0.345654
0.375809
0.38371
0.39683
0.413615
0.38179
0.340414
0.302389
0.2732
0.247295
0.228059
0.21317
0.20346
0.197709
0.194938
0.193611
0.192551
0.191866
0.192148
0.193406
0.194986
0.196393
0.197638
0.199091
0.20094
0.20282
0.204266
0.205006
0.205424
0.206277
0.207902
0.210068
0.211666
0.21226
0.212883
0.214313
0.216253
0.217996
0.219437
0.220747
0.222199
0.223813
0.225353
0.226613
0.227665
0.228649
0.229703
0.231136
0.232649
0.233296
0.233177
0.233278
0.234115
0.234918
0.234529
0.233044
0.231463
0.230123
0.229424
0.229067
0.227782
0.225402
0.221985
0.217934
0.214274
0.210969
0.208036
0.205497
0.202376
0.198279
0.193805
0.189809
0.186518
0.183482
0.18028
0.176596
0.172523
0.168488
0.164878
0.1619
0.159309
0.156542
0.153295
0.149543
0.145873
0.14266
0.13983
0.137095
0.134229
0.131191
0.128232
0.125618
0.12328
0.120756
0.117682
0.114551
0.111902
0.109677
0.107756
0.105944
0.103837
0.101341
0.098734
0.0964558
0.0945933
0.0930382
0.0916506
0.0901741
0.0884809
0.0866778
0.0850036
0.083631
0.0825443
0.0816402
0.0807226
0.0796521
0.0785022
0.0774649
0.0766488
0.0760433
0.0755922
0.0752317
0.074906
0.0745857
0.0742523
0.0739021
0.073588
0.0733991
0.0733994
0.07356
0.0737542
0.0738528
0.0738202
0.0737711
0.0738845
0.0741632
0.0744866
0.0747626
0.0749519
0.0750786
0.075237
0.0754696
0.0757377
0.0759751
0.0761386
0.0762618
0.0764234
0.0766958
0.0770849
0.0774736
0.077692
0.0776974
0.0776335
0.0776718
0.0778642
0.0781692
0.0785227
0.0788388
0.079027
0.0790592
0.0790262
0.0790295
0.0791013
0.0792518
0.0795079
0.0798274
0.0800588
0.0800928
0.0800119
0.0799891
0.0800691
0.0802091
0.0804026
0.0806061
0.0807352
0.0807404
0.0806868
0.0806496
0.0806621
0.0807438
0.0808645
0.0809418
0.0809118
0.0807952
0.0806466
0.080553
0.0805363
0.0804928
0.0803326
0.0800651
0.079791
0.079553
0.0792952
0.0789634
0.0785707
0.0782048
0.0779276
0.077685
0.0773582
0.0769326
0.0765076
0.0761409
0.0758298
0.0755584
0.0753223
0.0751266
0.0749797
0.0748953
0.0748566
0.074844
0.0748915
0.0750297
0.0752286
0.0754313
0.0756248
0.0758546
0.0761671
0.076566
0.0769704
0.0772696
0.0774375
0.0775659
0.077716
0.0778826
0.0780334
0.0781418
0.0782029
0.0782375
0.0782636
0.0782536
0.0781868
0.0780696
0.0779326
0.0778083
0.0777028
0.0775894
0.0774372
0.0772513
0.0770645
0.076892
0.0767283
0.0765723
0.0763989
0.0761993
0.0759902
0.0757856
0.0755856
0.0754019
0.0752533
0.0751134
0.074932
0.0746745
0.0743781
0.0741286
0.0739453
0.0737253
0.0734034
0.0730271
0.0726735
0.0723683
0.0720891
0.0718103
0.0715615
0.0713055
0.0709457
0.0704691
0.0700253
0.0696561
0.0693176
0.0689773
0.0686135
0.0681939
0.0677388
0.0673343
0.0669675
0.0665578
0.0660559
0.0655555
0.0650861
0.0646272
0.0641824
0.0638149
0.0634255
0.0629478
0.0624141
0.0618366
0.0613279
0.0608674
0.0606137
0.0602482
0.0597663
0.059007
0.0585903
0.0581581
0.0577658
0.0572518
0.0564593
0.0560133
0.0552459
0.0547862
0.0543412
0.0532944
0.0528864
0.0532794
0.0517577
0.0521827
0.0531243
0.0499177
0.0517164
0.0592293
0.0595456
0.0696601
0.0820305
0.0962096
0.0889827
0.0696573
0.0650966
0.0582434
0.0560825
0.0537587
0.0525663
0.0512377
0.0500523
0.0497627
0.0523467
0.0518078
0.0573231
0.0620805
0.0549678
0.0562507
0.0568673
0.0545548
0.0412956
0.0374199
0.0367796
0.0360548
0.0363531
0.0370089
0.0385154
0.0397073
0.0412607
0.0413883
0.0427048
0.0434252
0.0481915
0.0619942
0.0798714
0.104593
0.13706
0.162929
0.169077
0.181114
0.223782
0.196212
0.115369
0.0902035
0.0787249
0.0727283
0.0672125
0.0623757
0.0582126
0.0547095
0.0522476
0.0512716
0.0509446
0.0507085
0.0507061
0.0507809
0.051347
0.0523383
0.0531466
0.0535301
0.0540272
0.0547199
0.0552781
0.0554621
0.0557024
0.0563991
0.0573934
0.0581312
0.0585265
0.0586246
0.058835
0.0591243
0.0593672
0.0599032
0.0607144
0.0613975
0.0614834
0.0610372
0.0604647
0.0601205
0.0601975
0.0604843
0.0609253
0.0611612
0.0613465
0.0616568
0.0618354
0.0618855
0.0620489
0.062491
0.0631452
0.0638611
0.0644701
0.064852
0.0650279
0.0650731
0.0650876
0.065157
0.0652983
0.0654917
0.0657045
0.0658979
0.0660465
0.0661714
0.0663244
0.0665271
0.066797
0.0670079
0.0671711
0.06722
0.0673665
0.0675357
0.0676898
0.0678701
0.0681752
0.0686621
0.0694499
0.0710925
0.072895
0.0770666
0.070107
0.0428671
0.642635
0.556276
0.494445
0.38531
0.285674
0.230723
0.21826
0.207005
0.19906
0.191516
0.198697
0.242818
0.306502
0.369652
0.438207
0.521866
0.619711
0.734554
0.857292
0.964404
1.10064
1.26406
1.3764
1.46521
1.60144
1.85382
2.16776
2.38852
2.39632
2.41685
2.40366
2.43157
2.42188
2.35194
2.18104
1.9714
1.86872
1.72475
1.52926
1.29311
0.994107
0.735875
0.630457
0.605887
0.585622
0.546473
0.467576
0.424661
0.430284
0.443387
0.42985
0.409966
0.371953
0.328386
0.298693
0.28389
0.279993
0.290328
0.310758
0.33513
0.351109
0.36105
0.373158
0.38901
0.400241
0.401864
0.397143
0.383086
0.350326
0.323998
0.314415
0.324546
0.350622
0.382426
0.413122
0.439721
0.47051
0.520054
0.605554
0.691711
0.809761
0.921344
0.967517
1.06489
1.19135
1.31897
1.43145
1.4496
1.38952
1.30283
1.16351
1.03306
0.896372
0.775279
0.683632
0.621629
0.590236
0.586558
0.607126
0.652105
0.68581
0.721692
0.752332
0.745869
0.733533
0.707347
0.662924
0.599139
0.520835
0.449489
0.38881
0.329022
0.27653
0.223284
0.180611
0.154976
0.149899
0.156936
0.160668
0.165138
0.169729
0.168021
0.181017
0.191448
0.168569
0.13739
0.109648
0.0907837
0.0759576
0.0662353
0.0583959
0.0534816
0.0506286
0.0493552
0.0491939
0.0497767
0.0505369
0.0511083
0.0515803
0.0521107
0.0528351
0.0536656
0.0543892
0.0549116
0.0553979
0.056078
0.0569714
0.0579054
0.0586264
0.059185
0.0599178
0.060948
0.0620205
0.0628686
0.0636545
0.0646143
0.0657702
0.0669105
0.067889
0.0686546
0.0692737
0.069925
0.0707175
0.0716666
0.0725276
0.0730312
0.0731536
0.073268
0.0736785
0.0740328
0.0739779
0.0733994
0.0725718
0.0717763
0.0711777
0.0707555
0.0700251
0.0687946
0.0670493
0.0649576
0.0629454
0.0610676
0.0593664
0.0578701
0.056235
0.0542679
0.0520493
0.0498795
0.0479968
0.0463496
0.0447697
0.0430862
0.0412409
0.0393371
0.0375752
0.0360822
0.0347893
0.0335204
0.0321356
0.0306116
0.0291126
0.0277702
0.0265862
0.0254629
0.0243299
0.0231993
0.0221232
0.0211467
0.0202454
0.0193263
0.0183263
0.0173313
0.0164577
0.0157106
0.015053
0.0144378
0.0137947
0.0131017
0.0123966
0.0117594
0.0112181
0.0107558
0.0103448
0.00994327
0.00952141
0.00908815
0.00867909
0.00832702
0.00803586
0.00778571
0.00754411
0.0072911
0.00703882
0.00681434
0.00663021
0.00648371
0.00636385
0.00625909
0.0061653
0.00608175
0.00600717
0.00593962
0.00588248
0.00584601
0.00583783
0.00585436
0.00588108
0.00590407
0.00591813
0.00593314
0.00596708
0.00602024
0.00608185
0.00614674
0.00620975
0.00626855
0.00633115
0.00639821
0.00646415
0.00652736
0.00658725
0.00664689
0.00671316
0.00679549
0.00689386
0.00698888
0.00705512
0.00709102
0.00712121
0.00716708
0.00723398
0.00731422
0.00739939
0.00748344
0.00755465
0.0076033
0.00763648
0.00766712
0.00770579
0.00776137
0.00783725
0.00792254
0.00799326
0.00803273
0.00805255
0.00808007
0.00812299
0.00817295
0.00822938
0.008289
0.00833828
0.00837023
0.00839342
0.008415
0.00843847
0.00846906
0.00850646
0.00854373
0.00857138
0.00858103
0.00857168
0.0085631
0.00856936
0.00857897
0.00857155
0.00853749
0.00849319
0.0084564
0.00842386
0.008378
0.00831439
0.00825061
0.00820061
0.00815996
0.00810803
0.00803392
0.0079541
0.00788343
0.00782426
0.00777486
0.00773125
0.00769059
0.00765444
0.00762729
0.00760943
0.00759958
0.0076016
0.00761675
0.00763827
0.0076594
0.00768143
0.0077122
0.00775699
0.00781306
0.00786775
0.00790825
0.00792864
0.00794053
0.00795344
0.00796714
0.00797913
0.00798665
0.00798744
0.00798231
0.00797242
0.00795284
0.00792282
0.00788685
0.00785107
0.00781958
0.0077916
0.00776214
0.00772648
0.00768581
0.00764583
0.00760986
0.00757828
0.00755026
0.0075176
0.00747839
0.00743835
0.00740123
0.00736652
0.00733401
0.00730509
0.00727639
0.00724298
0.00720175
0.00715609
0.00711719
0.00708725
0.00704975
0.00699512
0.00693024
0.00686965
0.00682033
0.0067772
0.00673124
0.00668408
0.00663327
0.00657486
0.00650663
0.00644183
0.00638577
0.00633333
0.00627698
0.00621732
0.00615299
0.00608661
0.006025
0.00596466
0.00590009
0.00582944
0.00576153
0.00569618
0.0056289
0.0055624
0.00550349
0.00544525
0.00538202
0.00531299
0.00523038
0.00515527
0.00508558
0.00504092
0.00498083
0.0049221
0.00482182
0.00476149
0.00471133
0.0046457
0.00456101
0.00445341
0.0044056
0.0042797
0.00424777
0.00423029
0.00408716
0.00409916
0.00429437
0.00407111
0.00433728
0.00500541
0.00514389
0.00574307
0.00655122
0.00714996
0.00755656
0.00763604
0.00858818
0.00725482
0.00558678
0.00503815
0.00451063
0.00415652
0.0040109
0.00407019
0.00426118
0.00423447
0.00458428
0.005078
0.00481043
0.00491779
0.00487852
0.00385497
0.00302076
0.00264052
0.00281497
0.00238399
0.00225744
0.00226966
0.00234067
0.00240282
0.00249369
0.00257209
0.00266569
0.00292538
0.00336606
0.00458664
0.0064784
0.00998954
0.0151541
0.0221065
0.02409
0.0253908
0.0308251
0.0291248
0.0245216
0.031722
0.0191586
0.00893937
0.00671465
0.00582213
0.00529845
0.00490665
0.0046161
0.00431552
0.00401828
0.00378985
0.0036621
0.00358437
0.00353031
0.00351082
0.00351754
0.00357005
0.00365641
0.00372401
0.0037674
0.00382069
0.00389201
0.00394929
0.00398201
0.00402796
0.00410699
0.00420623
0.00428693
0.00434972
0.00439428
0.00443194
0.00447117
0.00451916
0.00459912
0.00470206
0.00478694
0.00480575
0.00477825
0.00473445
0.00471524
0.00473586
0.00477285
0.00482003
0.00485143
0.00488403
0.00493362
0.004978
0.00501148
0.00505389
0.00511993
0.00520448
0.00529192
0.00536795
0.00542437
0.00546138
0.00548537
0.00550376
0.00552351
0.0055496
0.00558315
0.00562035
0.00565482
0.00568326
0.00570937
0.00574083
0.00577868
0.00582165
0.00585419
0.00588002
0.00589678
0.0059229
0.00595186
0.00597468
0.00599982
0.00605349
0.00613643
0.0062531
0.00649761
0.00676767
0.00728442
0.00670204
0.00433239
0.388398
0.333219
0.288633
0.215696
0.15604
0.116341
0.103004
0.0986678
0.104942
0.123828
0.143112
0.179563
0.237061
0.317119
0.433197
0.585202
0.762666
0.957172
1.15267
1.29151
1.39919
1.50663
1.61075
1.71531
1.8352
2.00348
2.18918
2.22789
2.11417
2.0487
2.03335
2.02064
2.01784
1.98792
1.89488
1.74799
1.58855
1.41471
1.2238
0.923523
0.656658
0.498667
0.428716
0.417453
0.401109
0.351537
0.301477
0.27459
0.274859
0.284839
0.280035
0.26603
0.236512
0.20921
0.188561
0.176314
0.173282
0.178787
0.184968
0.188022
0.188942
0.190602
0.198988
0.217649
0.236932
0.249143
0.246796
0.239787
0.218847
0.19405
0.180402
0.180048
0.190591
0.206038
0.223786
0.246667
0.270276
0.298206
0.34164
0.393587
0.462915
0.571613
0.681012
0.807184
0.905107
0.95675
1.03619
1.13984
1.25753
1.35657
1.41984
1.35053
1.21866
1.01554
0.843662
0.704671
0.598503
0.531364
0.494517
0.474666
0.462401
0.455225
0.46113
0.454993
0.441973
0.428121
0.400524
0.370942
0.345082
0.328852
0.310139
0.285736
0.254063
0.223553
0.191917
0.163967
0.136616
0.111603
0.0924237
0.0839127
0.0808352
0.077938
0.0768397
0.0778654
0.0767479
0.0839688
0.0886835
0.0755982
0.0586406
0.044233
0.0341128
0.0267175
0.0219915
0.0186318
0.0167045
0.0158316
0.0155027
0.0154683
0.0155097
0.0155603
0.0156507
0.0158066
0.015995
0.016189
0.0164159
0.0166948
0.0169988
0.0172865
0.0175322
0.0177926
0.0181399
0.0185546
0.0189493
0.0192723
0.0195873
0.019968
0.0204219
0.0208808
0.0212876
0.0216112
0.0218593
0.022106
0.0224048
0.0227475
0.0230476
0.0232446
0.023305
0.0233164
0.0234004
0.0234813
0.023448
0.0232269
0.0228805
0.0225248
0.0222115
0.0219527
0.0216154
0.0211133
0.0204465
0.0196821
0.0189188
0.0181777
0.0174913
0.0168842
0.016275
0.0156044
0.0148629
0.0141036
0.0134124
0.0128103
0.0122686
0.0117458
0.0112082
0.0106507
0.010114
0.00964063
0.00922847
0.00884956
0.00846546
0.00805534
0.0076429
0.00726285
0.0069263
0.00661284
0.00630222
0.00599763
0.00570987
0.00544646
0.00520472
0.00497083
0.00473292
0.00449861
0.00428501
0.00409724
0.00392847
0.00377348
0.00362584
0.00347832
0.00333011
0.00318881
0.00306157
0.00295127
0.00285513
0.002768
0.00268249
0.0025951
0.00250881
0.00242778
0.00235661
0.00229608
0.00224294
0.0021929
0.00214342
0.00209587
0.00205302
0.00201496
0.00197993
0.00194878
0.001924
0.00190433
0.00188599
0.00186676
0.00184721
0.00183016
0.00181819
0.0018123
0.00181135
0.00181266
0.00181242
0.00180944
0.00180679
0.00180691
0.00181098
0.00181951
0.00182987
0.00183844
0.0018456
0.00185267
0.00186148
0.00187257
0.00188339
0.0018937
0.00190455
0.00191657
0.00193111
0.00194781
0.00196247
0.00197333
0.00198364
0.0019948
0.0020071
0.00202044
0.00203563
0.00205301
0.00207054
0.00208591
0.00209888
0.00210951
0.00211906
0.00213113
0.00214694
0.00216578
0.00218459
0.00219951
0.00221021
0.00221903
0.00222981
0.00224343
0.00225805
0.00227309
0.00228732
0.00229909
0.00230803
0.00231623
0.00232525
0.00233417
0.00234305
0.00235199
0.00236057
0.00236642
0.00236784
0.00236847
0.00237006
0.00237107
0.00236941
0.00236402
0.00235611
0.00234879
0.00234153
0.00233105
0.00231719
0.00230236
0.00228861
0.00227548
0.00226019
0.00224093
0.00221991
0.00219967
0.00218069
0.00216263
0.00214445
0.00212562
0.00210688
0.00208914
0.00207263
0.00205737
0.00204387
0.00203195
0.00202039
0.00200865
0.00199744
0.00198815
0.00198141
0.00197632
0.0019708
0.0019641
0.00195607
0.00194775
0.00193991
0.00193246
0.0019255
0.00191903
0.0019124
0.00190513
0.00189679
0.00188686
0.0018762
0.00186573
0.00185599
0.00184728
0.00183949
0.00183184
0.00182335
0.0018141
0.00180521
0.00179745
0.00179111
0.00178561
0.0017792
0.00177203
0.0017653
0.0017594
0.00175403
0.00174879
0.00174371
0.00173881
0.00173398
0.00172889
0.00172315
0.00171768
0.00171336
0.0017089
0.00170264
0.00169458
0.00168677
0.00168053
0.00167518
0.00166916
0.00166254
0.00165568
0.00164869
0.00164119
0.00163397
0.00162756
0.00162135
0.00161383
0.00160561
0.00159739
0.00158972
0.00158239
0.0015741
0.00156518
0.00155657
0.001549
0.00154151
0.00153309
0.00152412
0.00151617
0.00150881
0.0015016
0.00149437
0.00148487
0.00147623
0.00146803
0.00146063
0.00145139
0.00144466
0.0014314
0.00142764
0.00142849
0.00142625
0.00142106
0.00141638
0.00141002
0.001391
0.00141226
0.0015194
0.00157222
0.00170657
0.00190791
0.00214118
0.00208289
0.00191481
0.00187304
0.00179755
0.00172901
0.00169427
0.00164728
0.00159091
0.0016206
0.00157043
0.00150941
0.00154426
0.00166574
0.0017245
0.00187014
0.00206627
0.00225934
0.00247049
0.00246302
0.00236128
0.00200942
0.00174623
0.00157954
0.00147684
0.00137667
0.00132617
0.00130172
0.00133798
0.00136931
0.00142467
0.00148471
0.00170193
0.00188849
0.00211365
0.00276338
0.00402622
0.0063784
0.0093939
0.0137655
0.0129504
0.010283
0.00988457
0.0092766
0.00824788
0.00851505
0.00599941
0.00373746
0.00300723
0.00245574
0.00216044
0.00201957
0.00193222
0.0018728
0.0018311
0.00178591
0.00173655
0.00169051
0.00164946
0.00161359
0.00158229
0.00155604
0.00153498
0.0015193
0.00150903
0.00150227
0.00149632
0.00149068
0.0014875
0.0014868
0.0014862
0.00148571
0.0014873
0.00149158
0.00149675
0.00150084
0.00150442
0.00150799
0.00151131
0.00151511
0.00152037
0.00152754
0.00153563
0.00154254
0.00154577
0.00154706
0.00154753
0.00154937
0.00155311
0.00155768
0.0015625
0.00156681
0.00157147
0.00157706
0.00158275
0.00158833
0.00159446
0.00160163
0.00160957
0.00161758
0.00162493
0.00163124
0.00163647
0.00164087
0.00164477
0.00164857
0.00165269
0.0016573
0.00166217
0.00166685
0.00167111
0.0016752
0.00167967
0.00168451
0.00168923
0.00169301
0.00169643
0.00169954
0.00170312
0.00170669
0.00170966
0.00171619
0.00173568
0.00177162
0.00183015
0.00195249
0.00210582
0.00242481
0.00243321
0.00186351
0.221011
0.196071
0.172436
0.132271
0.0967664
0.0722185
0.0630245
0.0655463
0.080449
0.0997191
0.119855
0.154521
0.212654
0.299755
0.412344
0.536094
0.659029
0.770442
0.883202
0.997096
1.1057
1.1956
1.26122
1.30933
1.35549
1.42266
1.44699
1.37103
1.29872
1.30129
1.3747
1.45114
1.48695
1.4652
1.39254
1.29073
1.17576
1.0423
0.81912
0.560797
0.388562
0.308992
0.272055
0.259437
0.24132
0.213278
0.189872
0.177864
0.175439
0.180516
0.17968
0.170014
0.155637
0.140957
0.127379
0.116925
0.111366
0.110308
0.110053
0.108397
0.106955
0.107949
0.113839
0.126579
0.140378
0.149625
0.152694
0.148906
0.139141
0.125335
0.114556
0.110591
0.112828
0.119608
0.1289
0.141942
0.159697
0.179994
0.204812
0.233669
0.271103
0.326125
0.391756
0.471397
0.570556
0.660675
0.746121
0.830947
0.896304
0.936536
1.02212
1.07439
1.0921
1.07173
0.984902
0.874103
0.714433
0.579721
0.476994
0.400704
0.353491
0.324857
0.303887
0.284394
0.268453
0.257595
0.243208
0.226753
0.213186
0.206923
0.202331
0.197491
0.195045
0.1875
0.175087
0.157864
0.140364
0.121636
0.104347
0.0869168
0.0706187
0.0571207
0.0493804
0.0454779
0.0428285
0.0416776
0.0423478
0.0422197
0.0466955
0.0495938
0.0420505
0.0326356
0.0245596
0.0187986
0.0143554
0.0117787
0.0101809
0.00888086
0.0080012
0.00746398
0.00715193
0.00696894
0.00686672
0.00682897
0.006854
0.00691761
0.00699053
0.0070644
0.00715097
0.00726812
0.00741603
0.0075709
0.0077145
0.00785041
0.0079958
0.00815626
0.00833154
0.00851617
0.00869095
0.00883714
0.00895787
0.00907259
0.00919265
0.00931804
0.00942991
0.009513
0.00955532
0.00957104
0.00958593
0.0096037
0.00959425
0.00952391
0.00940664
0.00927397
0.00914007
0.00901511
0.00887316
0.00868566
0.00846021
0.00821243
0.00794794
0.0076797
0.00742086
0.00718421
0.00696767
0.00674992
0.00651541
0.00626358
0.00601643
0.00579535
0.00560098
0.00542315
0.00525071
0.00507544
0.00489852
0.00472862
0.00457479
0.00443901
0.00431225
0.00418357
0.00405245
0.00392703
0.00381215
0.00370466
0.00359819
0.00349103
0.00338859
0.00329569
0.00321139
0.00313002
0.00304601
0.00295896
0.0028744
0.00279609
0.00272329
0.00265701
0.00259607
0.0025353
0.00247208
0.00240798
0.00234722
0.00229248
0.00224279
0.00219708
0.00215371
0.00211018
0.00206604
0.00202168
0.00197845
0.00193962
0.00190677
0.00187714
0.00184711
0.00181669
0.00178813
0.00176163
0.00173654
0.00171402
0.00169594
0.00168056
0.00166409
0.00164635
0.00162881
0.00161337
0.00160238
0.0015963
0.0015927
0.00158866
0.00158278
0.00157576
0.00156964
0.00156642
0.00156659
0.00156866
0.00157104
0.00157256
0.00157359
0.00157537
0.00157951
0.00158581
0.00159094
0.00159457
0.00159829
0.00160165
0.00160662
0.00161563
0.00162626
0.00163471
0.00164056
0.00164526
0.00165033
0.00165753
0.00166755
0.00167783
0.0016866
0.00169501
0.00170384
0.00171249
0.00171967
0.00172659
0.00173554
0.00174648
0.00175794
0.00176815
0.00177607
0.00178167
0.00178826
0.00179879
0.00180945
0.00181778
0.00182606
0.00183345
0.00183849
0.00184464
0.00185298
0.00185961
0.00186433
0.00186875
0.00187292
0.00187657
0.00187946
0.00188126
0.00188123
0.00188016
0.00187883
0.00187709
0.00187365
0.0018687
0.00186329
0.00185679
0.00184892
0.00183998
0.00183019
0.00181973
0.00180844
0.00179606
0.00178272
0.00176881
0.00175453
0.00173969
0.00172422
0.00170841
0.00169254
0.00167659
0.00166045
0.00164422
0.00162822
0.00161261
0.0015971
0.00158151
0.0015662
0.00155172
0.00153828
0.00152537
0.00151225
0.00149926
0.00148712
0.00147578
0.0014651
0.00145501
0.0014455
0.00143647
0.00142773
0.00141912
0.00141064
0.00140265
0.00139527
0.00138831
0.0013817
0.00137555
0.00137005
0.00136511
0.00136022
0.0013553
0.00135065
0.00134652
0.00134305
0.00133991
0.0013368
0.0013339
0.00133136
0.00132918
0.00132721
0.00132527
0.00132338
0.00132163
0.00132002
0.0013185
0.00131707
0.00131562
0.00131421
0.00131304
0.00131186
0.00131047
0.00130895
0.00130733
0.00130575
0.00130426
0.00130285
0.00130136
0.00129982
0.00129818
0.00129661
0.00129511
0.00129361
0.00129189
0.00128985
0.00128784
0.00128603
0.0012843
0.00128182
0.00127918
0.00127673
0.00127485
0.00127257
0.00126994
0.0012669
0.00126429
0.00126159
0.00125956
0.0012581
0.00125567
0.0012522
0.00124953
0.00124558
0.00124541
0.00125331
0.00125743
0.00127301
0.00126882
0.00125942
0.00125352
0.00127647
0.00137864
0.00145365
0.00158817
0.00177463
0.00202161
0.00192771
0.00170285
0.00163546
0.00151485
0.00140041
0.0013131
0.00128149
0.00126989
0.00127195
0.00128817
0.00130702
0.00137652
0.0015453
0.00167716
0.00189869
0.00211695
0.00241608
0.00243383
0.00237113
0.00211758
0.00183467
0.00162007
0.00149121
0.00139722
0.00133924
0.00131298
0.00129125
0.00131875
0.00134866
0.0014139
0.00153766
0.00183194
0.00220755
0.00293746
0.00420055
0.00589906
0.0077065
0.0112507
0.0151031
0.0138689
0.0104572
0.00932281
0.00831626
0.00705601
0.0065137
0.00474157
0.00335765
0.00264629
0.00216272
0.00192028
0.00178554
0.00171695
0.00167675
0.00165681
0.00164942
0.0016419
0.00162684
0.00160239
0.0015789
0.00155703
0.00153515
0.00151248
0.00149084
0.00147209
0.00145608
0.00144144
0.00142941
0.00141967
0.00140988
0.00140082
0.00139394
0.00138915
0.00138535
0.00138176
0.00137872
0.00137671
0.00137539
0.00137433
0.00137376
0.0013736
0.00137352
0.00137377
0.00137452
0.00137573
0.00137712
0.00137836
0.0013793
0.00138021
0.00138121
0.00138248
0.00138397
0.0013856
0.0013873
0.00138903
0.00139083
0.00139266
0.00139451
0.00139638
0.00139828
0.00140026
0.00140227
0.00140425
0.00140616
0.00140798
0.00140969
0.00141133
0.00141292
0.00141446
0.00141595
0.00141742
0.00141885
0.00142022
0.00142153
0.00142281
0.00142407
0.00142529
0.00142636
0.00142738
0.00142833
0.00142922
0.00143026
0.00143131
0.0014323
0.00143703
0.00145321
0.00148448
0.00153674
0.00164614
0.00178615
0.00207735
0.00212112
0.00168727
0.123419
0.117256
0.107241
0.087253
0.0659991
0.0513375
0.0468201
0.0523716
0.0653969
0.080416
0.0970933
0.12485
0.171406
0.238508
0.32051
0.408085
0.490941
0.56072
0.616686
0.665521
0.712486
0.7514
0.779183
0.802217
0.831107
0.863256
0.868023
0.836472
0.828512
0.859715
0.92345
0.987762
1.02315
1.01267
0.973566
0.912509
0.819677
0.665397
0.474377
0.31224
0.23142
0.189827
0.168356
0.156726
0.14603
0.13407
0.124187
0.118185
0.115966
0.11719
0.117094
0.113829
0.108051
0.100218
0.0905658
0.0822025
0.0764701
0.0734736
0.0714035
0.0693146
0.0681971
0.0690453
0.0724746
0.0795598
0.0876597
0.0937396
0.0966281
0.0960371
0.092412
0.0864696
0.0803613
0.0766532
0.076061
0.0784629
0.0837091
0.0919587
0.102102
0.113951
0.126608
0.140675
0.158806
0.183454
0.214063
0.249661
0.29064
0.334624
0.379523
0.432353
0.518896
0.599769
0.685
0.741074
0.746691
0.757378
0.726469
0.675178
0.612729
0.544352
0.47028
0.39463
0.326951
0.274751
0.235725
0.208193
0.189144
0.174335
0.160972
0.149258
0.140737
0.136178
0.132725
0.131688
0.132775
0.132753
0.132169
0.131972
0.127691
0.119747
0.108442
0.096497
0.0836958
0.0717915
0.0598399
0.048809
0.0399788
0.0348946
0.0323415
0.0310068
0.0309944
0.0327273
0.0341587
0.0389021
0.0418733
0.0379131
0.0304674
0.0236479
0.0183247
0.0143793
0.0112911
0.00909546
0.00741229
0.0063169
0.00565963
0.00525517
0.00499598
0.00483103
0.00473065
0.00468645
0.00468834
0.00472151
0.00477015
0.00482454
0.00488306
0.00495328
0.00503304
0.00511169
0.00518567
0.00526477
0.0053469
0.00542435
0.0054976
0.00556152
0.00561267
0.00565857
0.0057053
0.00574685
0.00578033
0.00580157
0.00580507
0.00580291
0.00579871
0.00578431
0.00575611
0.00571204
0.0056565
0.00559615
0.00553458
0.00547112
0.00540514
0.0053246
0.00522795
0.00512767
0.00502405
0.00492038
0.0048325
0.00475626
0.00467672
0.00458607
0.00448335
0.00438062
0.00428984
0.00421035
0.00413597
0.00406236
0.0039836
0.00389767
0.00381429
0.0037396
0.00367197
0.00360938
0.00354658
0.00347897
0.00340818
0.00333803
0.00326843
0.00319922
0.00313481
0.00307623
0.00301917
0.00295913
0.00289469
0.00282889
0.00276587
0.00270656
0.00265011
0.00259549