/*--------------------------------*- C++ -*----------------------------------*\
| =========                 |                                                 |
| \\      /  F ield         | OpenFOAM: The Open Source CFD Toolbox           |
|  \\    /   O peration     | Version:  v2006                                 |
|   \\  /    A nd           | Website:  www.openfoam.com                      |
|    \\/     M anipulation  |                                                 |
\*---------------------------------------------------------------------------*/
FoamFile
{
    version     2.0;
    format      ascii;
    class       volScalarField;
    location    "9.6";
    object      p;
}
// * * * * * * * * * * * * * * * * * * * * * * * * * * * * * * * * * * * * * //

dimensions      [1 -1 -2 0 0 0 0];


internalField   nonuniform List<scalar> 
33000
(
7948.95
7936.24
7934.56
7927.93
7923.34
7918.56
7913.58
7908.46
7903.26
7898.04
7892.82
7887.71
7882.75
7877.93
7873.21
7868.57
7864.01
7859.56
7855.23
7851.15
7847.44
7844.14
7841.11
7838.27
7835.56
7832.8
7829.95
7827.11
7824.37
7821.8
7819.42
7817.28
7815.41
7813.8
7812.42
7811.19
7810.01
7808.78
7807.54
7806.33
7805.23
7804.27
7803.46
7802.78
7802.24
7801.85
7801.58
7801.46
7801.46
7801.6
7801.87
7802.29
7802.83
7803.49
7804.26
7805.12
7806.07
7807.11
7808.25
7809.49
7810.83
7812.26
7813.79
7815.41
7817.12
7818.92
7820.8
7822.77
7824.8
7826.89
7829
7831.12
7833.25
7835.38
7837.53
7839.65
7841.74
7843.65
7845.03
7848.25
7851.61
7854.52
7857.63
7860.72
7863.9
7867.23
7870.81
7874.3
7877.94
7881.54
7885.25
7888.96
7892.82
7896.72
7900.71
7904.72
7909.08
7913.06
7917.98
7921.74
7924.65
7928.54
7932.2
7935.89
7939.71
7943.14
7946.48
7949.67
7952.92
7956.12
7959.07
7961.99
7964.68
7967.15
7969.6
7971.73
7974.47
7975.99
7976.03
7977.18
7977.55
7977.62
7977.55
7976.93
7975.68
7974.21
7972.32
7970.05
7967.46
7964.42
7960.93
7957.06
7952.77
7948.14
7943.12
7937.73
7931.94
7925.76
7919.22
7912.31
7905.05
7897.45
7889.54
7881.35
7872.89
7864.19
7855.25
7846.11
7836.78
7827.32
7817.75
7808.07
7798.3
7788.48
7778.65
7768.82
7759.03
7749.27
7739.59
7730
7720.53
7711.2
7702.02
7693
7684.17
7675.55
7667.15
7658.98
7651.05
7643.36
7635.94
7628.8
7621.92
7615.3
7608.95
7602.85
7597.03
7591.46
7586.15
7581.07
7576.19
7571.53
7567.05
7562.74
7558.6
7554.61
7550.75
7547
7543.35
7539.8
7536.36
7533.04
7529.87
7526.86
7524.01
7521.34
7518.87
7516.6
7514.55
7512.72
7511.1
7509.71
7508.54
7507.61
7506.9
7506.43
7506.18
7506.17
7506.37
7506.8
7507.46
7508.32
7509.39
7510.65
7512.11
7513.76
7515.61
7517.64
7519.84
7522.2
7524.72
7527.38
7530.17
7533.11
7536.17
7539.36
7542.66
7546.06
7549.55
7553.13
7556.79
7560.53
7564.34
7568.21
7572.13
7576.09
7580.09
7584.12
7588.18
7592.26
7596.37
7600.49
7604.61
7608.74
7612.86
7616.97
7621.06
7625.14
7629.21
7633.25
7637.26
7641.25
7645.19
7649.1
7652.97
7656.81
7660.6
7664.34
7668.04
7671.68
7675.28
7678.82
7682.3
7685.73
7689.1
7692.4
7695.65
7698.84
7701.97
7705.03
7708.03
7710.96
7713.83
7716.63
7719.37
7722.04
7724.65
7727.19
7729.66
7732.07
7734.41
7736.69
7738.89
7741.04
7743.12
7745.14
7747.1
7749
7750.83
7752.61
7754.33
7755.99
7757.59
7759.15
7760.65
7762.1
7763.5
7764.85
7766.16
7767.42
7768.65
7769.83
7770.98
7772.09
7773.18
7774.23
7775.25
7776.25
7777.23
7778.18
7779.12
7780.05
7780.95
7781.85
7782.74
7783.62
7784.5
7785.38
7786.25
7787.12
7787.99
7788.87
7789.75
7790.63
7791.51
7792.4
7793.29
7794.18
7795.07
7795.96
7796.86
7797.75
7798.65
7799.55
7800.45
7801.35
7802.25
7803.15
7804.06
7804.96
7805.86
7806.76
7807.65
7808.55
7809.44
7810.33
7811.21
7812.09
7812.96
7813.82
7814.68
7815.53
7816.36
7817.19
7818
7818.8
7819.58
7820.35
7821.1
7821.83
7822.54
7823.24
7823.91
7824.56
7825.18
7825.78
7826.36
7826.91
7827.44
7827.94
7828.41
7828.85
7829.26
7829.64
7829.99
7830.31
7830.61
7830.87
7831.09
7831.29
7831.46
7831.6
7831.7
7831.78
7831.82
7831.84
7831.82
7831.77
7831.7
7831.59
7831.46
7831.3
7831.1
7830.89
7830.64
7830.37
7830.07
7829.75
7829.41
7829.04
7828.65
7828.23
7827.8
7827.34
7826.87
7826.37
7825.86
7825.32
7824.77
7824.2
7823.62
7823.02
7822.41
7821.78
7821.14
7820.49
7819.83
7819.15
7818.47
7817.77
7817.07
7816.36
7815.65
7814.92
7814.2
7813.48
7812.76
7812
7811.3
7810.49
7809.79
7809.22
7808.53
7807.87
7807.16
7806.45
7805.73
7805
7804.26
7803.52
7802.77
7802.02
7801.27
7800.52
7799.77
7799.02
7798.28
7797.51
7796.78
7796.1
7795.37
7794.67
7793.94
7793.24
7792.51
7791.82
7791.09
7790.4
7789.7
7789.02
7788.32
7787.67
7786.96
7786.34
7785.73
7785.11
7784.5
7783.99
7783.12
7782.72
7782.37
7781.95
7781.51
7781.05
7780.58
7780.1
7779.61
7779.13
7778.64
7778.15
7777.67
7777.19
7776.71
7776.24
7775.77
7775.31
7774.86
7774.41
7773.98
7773.55
7773.13
7772.72
7772.32
7771.93
7771.55
7771.19
7770.84
7770.5
7770.18
7769.88
7769.58
7769.31
7769.04
7768.8
7768.57
7768.36
7768.17
7767.99
7767.83
7767.69
7767.57
7767.47
7767.38
7767.32
7767.27
7767.24
7767.23
7767.24
7767.26
7767.31
7767.37
7767.45
7767.55
7767.66
7767.79
7767.94
7768.1
7768.28
7768.47
7768.68
7768.9
7769.14
7769.39
7769.65
7769.92
7770.2
7770.5
7770.81
7771.12
7771.45
7771.78
7772.13
7772.48
7772.85
7773.21
7773.59
7773.98
7774.32
7774.93
7775.01
7751.37
7738.28
7739.48
7728.96
7726.7
7721.67
7716.58
7711.44
7706.22
7701.02
7695.88
7690.91
7686.1
7681.39
7676.71
7672.01
7667.34
7662.72
7658.19
7653.97
7650.24
7647.05
7644.16
7641.5
7639.06
7636.48
7633.63
7630.7
7627.82
7625.12
7622.63
7620.39
7618.51
7616.94
7615.57
7614.42
7613.29
7612.1
7610.91
7609.79
7608.69
7607.72
7606.9
7606.23
7605.71
7605.33
7605.08
7604.95
7604.96
7605.11
7605.39
7605.8
7606.34
7607
7607.76
7608.62
7609.58
7610.64
7611.8
7613.08
7614.46
7615.93
7617.47
7619.07
7620.75
7622.53
7624.4
7626.36
7628.4
7630.5
7632.63
7634.78
7636.95
7639.14
7641.37
7643.63
7645.9
7648.19
7650.44
7652.97
7655.24
7656.82
7660.47
7664.47
7667.87
7671.22
7674.72
7677.92
7681.39
7684.84
7688.77
7692.55
7696.42
7700.3
7704.28
7708.22
7712.38
7716.48
7720.61
7724.67
7728.67
7733.5
7737.1
7739.32
7743.01
7746.25
7750.15
7753.54
7757.35
7760.55
7763.3
7766.03
7768.59
7771.03
7773.44
7775.62
7777.57
7779.27
7780.45
7782.5
7783.05
7781.61
7781.53
7780.71
7779.78
7778.67
7776.95
7774.54
7771.86
7768.74
7765.25
7761.44
7757.22
7752.58
7747.54
7742.11
7736.3
7730.11
7723.57
7716.66
7709.4
7701.79
7693.87
7685.66
7677.18
7668.45
7659.48
7650.31
7640.96
7631.48
7621.87
7612.15
7602.35
7592.51
7582.66
7572.8
7562.97
7553.17
7543.46
7533.85
7524.36
7515
7505.8
7496.76
7487.91
7479.27
7470.86
7462.68
7454.74
7447.05
7439.62
7432.47
7425.58
7418.96
7412.61
7406.51
7400.68
7395.11
7389.78
7384.69
7379.81
7375.14
7370.65
7366.34
7362.18
7358.18
7354.31
7350.55
7346.89
7343.33
7339.88
7336.55
7333.36
7330.33
7327.48
7324.8
7322.33
7320.05
7318
7316.16
7314.54
7313.14
7311.98
7311.05
7310.34
7309.87
7309.63
7309.61
7309.83
7310.26
7310.92
7311.79
7312.86
7314.14
7315.61
7317.28
7319.13
7321.17
7323.38
7325.75
7328.27
7330.95
7333.76
7336.71
7339.78
7342.97
7346.28
7349.69
7353.2
7356.79
7360.46
7364.21
7368.03
7371.91
7375.83
7379.8
7383.81
7387.85
7391.92
7396.02
7400.13
7404.26
7408.39
7412.52
7416.64
7420.75
7424.86
7428.95
7433.01
7437.06
7441.08
7445.06
7449.01
7452.93
7456.81
7460.64
7464.44
7468.18
7471.87
7475.52
7479.12
7482.66
7486.15
7489.58
7492.95
7496.26
7499.51
7502.69
7505.82
7508.89
7511.89
7514.82
7517.69
7520.49
7523.23
7525.9
7528.51
7531.05
7533.52
7535.93
7538.27
7540.54
7542.75
7544.9
7546.98
7548.99
7550.95
7552.84
7554.68
7556.45
7558.17
7559.83
7561.43
7562.98
7564.48
7565.93
7567.33
7568.68
7569.98
7571.25
7572.47
7573.65
7574.8
7575.91
7576.99
7578.04
7579.06
7580.06
7581.03
7581.99
7582.92
7583.84
7584.75
7585.65
7586.54
7587.42
7588.3
7589.17
7590.04
7590.91
7591.79
7592.66
7593.54
7594.42
7595.3
7596.19
7597.08
7597.97
7598.86
7599.75
7600.65
7601.54
7602.44
7603.34
7604.24
7605.14
7606.04
7606.95
7607.85
7608.75
7609.65
7610.56
7611.45
7612.35
7613.24
7614.13
7615.02
7615.9
7616.77
7617.64
7618.49
7619.34
7620.18
7621.01
7621.82
7622.62
7623.41
7624.18
7624.93
7625.67
7626.38
7627.08
7627.75
7628.41
7629.03
7629.64
7630.22
7630.77
7631.3
7631.8
7632.27
7632.71
7633.12
7633.51
7633.86
7634.18
7634.47
7634.74
7634.97
7635.17
7635.33
7635.47
7635.58
7635.65
7635.69
7635.71
7635.69
7635.64
7635.57
7635.46
7635.33
7635.16
7634.97
7634.75
7634.51
7634.23
7633.94
7633.61
7633.27
7632.9
7632.5
7632.09
7631.65
7631.2
7630.72
7630.22
7629.7
7629.17
7628.62
7628.05
7627.46
7626.86
7626.25
7625.62
7624.98
7624.32
7623.66
7622.98
7622.29
7621.6
7620.89
7620.18
7619.47
7618.76
7618
7617.27
7616.46
7615.75
7615.16
7614.45
7613.8
7613.11
7612.42
7611.72
7611.01
7610.29
7609.56
7608.82
7608.08
7607.33
7606.58
7605.83
7605.07
7604.32
7603.54
7602.79
7602.09
7601.36
7600.63
7599.92
7599.18
7598.47
7597.74
7597.03
7596.32
7595.6
7594.91
7594.18
7593.51
7592.75
7592.11
7591.43
7590.83
7590.12
7589.55
7588.56
7588.08
7587.72
7587.24
7586.76
7586.3
7585.84
7585.36
7584.88
7584.4
7583.91
7583.42
7582.93
7582.44
7581.95
7581.46
7580.98
7580.5
7580.03
7579.56
7579.09
7578.64
7578.19
7577.75
7577.32
7576.9
7576.49
7576.09
7575.7
7575.32
7574.96
7574.61
7574.27
7573.95
7573.64
7573.34
7573.07
7572.8
7572.56
7572.33
7572.12
7571.92
7571.75
7571.59
7571.45
7571.32
7571.22
7571.14
7571.07
7571.02
7570.99
7570.98
7570.99
7571.02
7571.06
7571.12
7571.2
7571.3
7571.42
7571.55
7571.7
7571.86
7572.04
7572.24
7572.45
7572.67
7572.91
7573.16
7573.42
7573.69
7573.98
7574.27
7574.58
7574.9
7575.23
7575.56
7575.91
7576.26
7576.63
7577
7577.37
7577.76
7578.11
7578.71
7578.79
7553.03
7543.87
7540.81
7533.93
7529.48
7524.51
7519.41
7514.23
7509.03
7503.86
7498.82
7493.98
7489.26
7484.59
7479.88
7475.15
7470.38
7465.6
7460.99
7456.77
7453.13
7449.96
7447.08
7444.45
7442
7439.42
7436.65
7433.66
7430.64
7427.73
7425.03
7422.69
7420.82
7419.37
7418.09
7416.97
7415.94
7414.9
7413.86
7412.81
7411.74
7410.79
7409.98
7409.34
7408.84
7408.47
7408.22
7408.12
7408.15
7408.31
7408.61
7409.02
7409.57
7410.23
7411
7411.88
7412.86
7413.95
7415.16
7416.48
7417.9
7419.39
7420.95
7422.55
7424.22
7425.99
7427.87
7429.82
7431.86
7434
7436.18
7438.39
7440.64
7442.91
7445.21
7447.54
7449.91
7452.36
7454.83
7457.35
7460
7462.71
7465.57
7468.08
7469.66
7473.4
7477.91
7481.62
7485.48
7488.85
7492.4
7496.09
7499.7
7503.84
7507.79
7511.83
7515.89
7519.97
7524
7528.1
7531.9
7535.93
7539.94
7544
7549.2
7552.39
7554.03
7557.05
7560.16
7563.6
7566.78
7570.3
7573.09
7575.5
7577.67
7579.68
7581.61
7583.26
7584.49
7585.4
7586.21
7586.53
7587.92
7587.42
7584.5
7583.25
7581.18
7579.09
7576.87
7573.96
7570.33
7566.43
7562.08
7557.45
7552.45
7547.12
7541.36
7535.15
7528.56
7521.6
7514.3
7506.67
7498.73
7490.47
7481.94
7473.15
7464.12
7454.9
7445.51
7435.97
7426.29
7416.51
7406.65
7396.75
7386.84
7376.92
7367.02
7357.17
7347.4
7337.73
7328.19
7318.79
7309.54
7300.46
7291.58
7282.9
7274.46
7266.26
7258.29
7250.59
7243.15
7235.97
7229.07
7222.44
7216.08
7209.98
7204.13
7198.54
7193.19
7188.07
7183.18
7178.48
7173.97
7169.64
7165.46
7161.42
7157.53
7153.74
7150.07
7146.5
7143.03
7139.69
7136.48
7133.44
7130.57
7127.89
7125.4
7123.12
7121.05
7119.2
7117.58
7116.19
7115.03
7114.1
7113.4
7112.93
7112.69
7112.69
7112.92
7113.37
7114.04
7114.92
7116.01
7117.3
7118.8
7120.49
7122.37
7124.42
7126.64
7129.03
7131.58
7134.28
7137.12
7140.09
7143.19
7146.4
7149.73
7153.16
7156.68
7160.3
7163.99
7167.76
7171.6
7175.49
7179.44
7183.43
7187.45
7191.51
7195.6
7199.72
7203.85
7207.99
7212.12
7216.26
7220.4
7224.53
7228.65
7232.75
7236.83
7240.88
7244.9
7248.89
7252.85
7256.78
7260.67
7264.51
7268.3
7272.05
7275.75
7279.4
7283.01
7286.55
7290.04
7293.47
7296.85
7300.16
7303.41
7306.61
7309.73
7312.8
7315.8
7318.73
7321.6
7324.41
7327.15
7329.82
7332.43
7334.96
7337.43
7339.84
7342.18
7344.45
7346.66
7348.8
7350.88
7352.9
7354.85
7356.74
7358.57
7360.34
7362.06
7363.71
7365.31
7366.85
7368.35
7369.79
7371.18
7372.53
7373.83
7375.09
7376.31
7377.49
7378.63
7379.73
7380.81
7381.85
7382.87
7383.87
7384.84
7385.79
7386.73
7387.65
7388.55
7389.45
7390.34
7391.22
7392.09
7392.96
7393.83
7394.7
7395.57
7396.45
7397.32
7398.2
7399.08
7399.97
7400.86
7401.74
7402.64
7403.53
7404.42
7405.32
7406.22
7407.12
7408.02
7408.93
7409.83
7410.73
7411.64
7412.54
7413.45
7414.35
7415.25
7416.15
7417.05
7417.94
7418.83
7419.71
7420.59
7421.46
7422.32
7423.18
7424.02
7424.85
7425.67
7426.48
7427.27
7428.04
7428.8
7429.54
7430.27
7430.97
7431.65
7432.3
7432.93
7433.54
7434.13
7434.68
7435.21
7435.72
7436.19
7436.63
7437.05
7437.44
7437.79
7438.12
7438.41
7438.68
7438.91
7439.11
7439.28
7439.41
7439.52
7439.59
7439.63
7439.65
7439.63
7439.58
7439.5
7439.4
7439.26
7439.09
7438.9
7438.68
7438.43
7438.16
7437.86
7437.54
7437.19
7436.82
7436.42
7436
7435.56
7435.1
7434.62
7434.12
7433.6
7433.06
7432.5
7431.93
7431.34
7430.74
7430.12
7429.49
7428.85
7428.18
7427.51
7426.82
7426.14
7425.45
7424.76
7424.01
7423.3
7422.48
7421.78
7421.2
7420.5
7419.82
7419.12
7418.42
7417.71
7417.01
7416.3
7415.59
7414.86
7414.13
7413.4
7412.66
7411.92
7411.16
7410.41
7409.61
7408.87
7408.16
7407.42
7406.68
7405.95
7405.2
7404.47
7403.73
7403
7402.29
7401.55
7400.86
7400.08
7399.41
7398.61
7397.97
7397.25
7396.62
7395.86
7395.26
7394.2
7393.7
7393.3
7392.79
7392.27
7391.75
7391.21
7390.7
7390.2
7389.71
7389.21
7388.72
7388.22
7387.72
7387.22
7386.73
7386.23
7385.74
7385.25
7384.76
7384.28
7383.8
7383.33
7382.86
7382.4
7381.95
7381.51
7381.07
7380.65
7380.24
7379.83
7379.44
7379.06
7378.69
7378.34
7378
7377.68
7377.36
7377.07
7376.79
7376.52
7376.28
7376.05
7375.83
7375.64
7375.46
7375.3
7375.16
7375.03
7374.93
7374.84
7374.78
7374.73
7374.7
7374.69
7374.7
7374.73
7374.77
7374.84
7374.92
7375.02
7375.13
7375.27
7375.42
7375.58
7375.77
7375.96
7376.17
7376.4
7376.64
7376.89
7377.16
7377.43
7377.72
7378.02
7378.33
7378.65
7378.98
7379.32
7379.66
7380.02
7380.38
7380.75
7381.13
7381.52
7381.87
7382.47
7382.56
7356.22
7347.77
7343.67
7337.5
7332.54
7327.44
7322.24
7317.03
7311.84
7306.7
7301.76
7296.97
7292.26
7287.61
7282.93
7278.23
7273.58
7268.83
7264.4
7260.31
7256.62
7253.39
7250.38
7247.57
7245.07
7242.41
7239.62
7236.52
7233.47
7230.57
7227.81
7225.43
7223.48
7221.9
7220.57
7219.43
7218.37
7217.36
7216.37
7215.37
7214.36
7213.47
7212.71
7212.11
7211.65
7211.3
7211.08
7211
7211.05
7211.22
7211.52
7211.96
7212.51
7213.19
7213.98
7214.88
7215.9
7217.03
7218.28
7219.62
7221.04
7222.54
7224.12
7225.77
7227.49
7229.3
7231.19
7233.15
7235.19
7237.39
7239.6
7241.87
7244.19
7246.54
7248.92
7251.34
7253.8
7256.32
7258.91
7261.55
7264.3
7267.06
7269.9
7272.86
7276.04
7279.37
7282.55
7285.26
7286.81
7290.15
7295.72
7299.5
7303.42
7307.11
7311.09
7314.7
7319.05
7323.12
7327.23
7331.28
7335.27
7339.19
7343.19
7346.58
7350.6
7354.09
7358.41
7362.12
7367.7
7370.87
7371.47
7374.16
7376.51
7379.24
7382.25
7384.46
7386.15
7387.59
7388.72
7389.84
7390.56
7390.85
7390.7
7390.6
7389.92
7390.56
7388.96
7384.56
7382.12
7378.77
7375.44
7372.09
7367.99
7363.2
7358.05
7352.57
7346.75
7340.53
7334.02
7327.08
7319.75
7312.07
7304.06
7295.74
7287.15
7278.29
7269.18
7259.89
7250.42
7240.79
7231.02
7221.14
7211.19
7201.2
7191.2
7181.19
7171.21
7161.28
7151.42
7141.68
7132.06
7122.58
7113.27
7104.13
7095.2
7086.48
7077.99
7069.75
7061.75
7054.01
7046.53
7039.32
7032.39
7025.73
7019.34
7013.2
7007.32
7001.69
6996.3
6991.14
6986.2
6981.46
6976.92
6972.54
6968.32
6964.25
6960.31
6956.5
6952.8
6949.21
6945.74
6942.39
6939.18
6936.13
6933.25
6930.56
6928.06
6925.77
6923.69
6921.84
6920.21
6918.82
6917.66
6916.74
6916.05
6915.59
6915.37
6915.39
6915.64
6916.11
6916.79
6917.7
6918.82
6920.14
6921.67
6923.39
6925.3
6927.38
6929.63
6932.05
6934.63
6937.37
6940.25
6943.26
6946.39
6949.63
6952.99
6956.45
6960
6963.65
6967.38
6971.19
6975.05
6978.97
6982.94
6986.96
6991.02
6995.11
6999.22
7003.36
7007.51
7011.66
7015.82
7019.98
7024.14
7028.29
7032.43
7036.55
7040.64
7044.7
7048.73
7052.74
7056.71
7060.65
7064.55
7068.4
7072.2
7075.96
7079.67
7083.33
7086.93
7090.49
7093.98
7097.42
7100.8
7104.12
7107.37
7110.57
7113.7
7116.76
7119.77
7122.7
7125.58
7128.38
7131.13
7133.8
7136.4
7138.94
7141.4
7143.81
7146.15
7148.42
7150.63
7152.77
7154.84
7156.85
7158.79
7160.68
7162.51
7164.27
7165.98
7167.63
7169.22
7170.76
7172.25
7173.68
7175.07
7176.41
7177.71
7178.96
7180.17
7181.34
7182.48
7183.58
7184.65
7185.69
7186.7
7187.69
7188.66
7189.61
7190.54
7191.45
7192.36
7193.25
7194.13
7195.01
7195.88
7196.75
7197.62
7198.49
7199.36
7200.23
7201.1
7201.98
7202.86
7203.74
7204.63
7205.52
7206.41
7207.3
7208.19
7209.09
7209.99
7210.89
7211.79
7212.7
7213.6
7214.51
7215.42
7216.33
7217.23
7218.14
7219.04
7219.95
7220.85
7221.75
7222.64
7223.53
7224.42
7225.3
7226.17
7227.03
7227.88
7228.72
7229.55
7230.36
7231.16
7231.94
7232.71
7233.46
7234.19
7234.89
7235.58
7236.24
7236.88
7237.5
7238.09
7238.65
7239.19
7239.7
7240.18
7240.63
7241.05
7241.44
7241.79
7242.12
7242.42
7242.68
7242.92
7243.12
7243.29
7243.43
7243.53
7243.61
7243.65
7243.66
7243.64
7243.59
7243.51
7243.4
7243.26
7243.09
7242.89
7242.67
7242.42
7242.14
7241.84
7241.51
7241.16
7240.78
7240.39
7239.96
7239.52
7239.05
7238.57
7238.06
7237.54
7237
7236.44
7235.87
7235.27
7234.67
7234.03
7233.4
7232.74
7232.08
7231.42
7230.74
7230.02
7229.32
7228.51
7227.82
7227.26
7226.56
7225.9
7225.2
7224.49
7223.78
7223.09
7222.37
7221.66
7220.94
7220.21
7219.49
7218.76
7218.02
7217.26
7216.51
7215.72
7214.97
7214.26
7213.52
7212.77
7212.03
7211.26
7210.53
7209.75
7209.03
7208.26
7207.55
7206.77
7206.07
7205.27
7204.59
7203.9
7203.19
7202.53
7201.75
7201.1
7199.97
7199.44
7199.01
7198.47
7197.9
7197.34
7196.76
7196.2
7195.67
7195.14
7194.61
7194.1
7193.58
7193.07
7192.56
7192.05
7191.54
7191.03
7190.52
7190.02
7189.52
7189.02
7188.53
7188.04
7187.56
7187.08
7186.61
7186.15
7185.69
7185.24
7184.81
7184.38
7183.96
7183.55
7183.16
7182.77
7182.4
7182.04
7181.7
7181.37
7181.05
7180.75
7180.47
7180.2
7179.95
7179.72
7179.5
7179.3
7179.12
7178.96
7178.82
7178.69
7178.59
7178.5
7178.44
7178.39
7178.36
7178.35
7178.36
7178.39
7178.44
7178.5
7178.59
7178.69
7178.81
7178.95
7179.1
7179.27
7179.45
7179.65
7179.87
7180.1
7180.34
7180.6
7180.86
7181.15
7181.44
7181.74
7182.05
7182.37
7182.71
7183.05
7183.4
7183.75
7184.12
7184.49
7184.87
7185.27
7185.61
7186.22
7186.3
7159.85
7151.52
7146.91
7140.97
7135.68
7130.42
7125.13
7119.88
7114.67
7109.55
7104.61
7099.79
7095.05
7090.38
7085.75
7081.13
7076.58
7072.14
7067.83
7063.76
7059.99
7056.52
7053.3
7050.28
7047.38
7044.52
7041.67
7038.79
7035.93
7033.2
7030.65
7028.36
7026.36
7024.64
7023.14
7021.84
7020.67
7019.59
7018.58
7017.57
7016.63
7015.79
7015.09
7014.52
7014.09
7013.77
7013.58
7013.51
7013.58
7013.78
7014.12
7014.57
7015.14
7015.85
7016.66
7017.59
7018.64
7019.81
7021.09
7022.45
7023.9
7025.43
7027.05
7028.75
7030.55
7032.41
7034.34
7036.34
7038.42
7040.6
7042.88
7045.2
7047.59
7050.02
7052.48
7054.98
7057.53
7060.16
7062.85
7065.6
7068.44
7071.32
7074.25
7077.27
7080.32
7083.39
7086.64
7089.93
7093.38
7096.92
7099.88
7101.33
7104.22
7110.57
7114.63
7118.6
7122.43
7126.57
7130.18
7134.68
7138.58
7142.6
7146.61
7150.5
7154.41
7158.35
7161.38
7165.39
7168.76
7172.86
7176.41
7182.09
7184.6
7184.22
7186.23
7187.96
7190.09
7192.5
7193.92
7194.7
7195.19
7195.38
7195.55
7195.3
7194.54
7193.32
7192.2
7190.41
7190.26
7187.48
7181.53
7177.89
7173.19
7168.79
7164.01
7159.13
7153.51
7147.06
7140.31
7133.17
7125.71
7118.03
7109.97
7101.56
7092.84
7083.85
7074.64
7065.25
7055.66
7045.91
7036.02
7026.02
7015.95
7005.84
6995.71
6985.58
6975.49
6965.46
6955.5
6945.66
6935.95
6926.38
6916.98
6907.77
6898.77
6889.98
6881.43
6873.11
6865.06
6857.26
6849.72
6842.45
6835.46
6828.74
6822.29
6816.1
6810.17
6804.48
6799.03
6793.8
6788.8
6784
6779.4
6774.97
6770.7
6766.58
6762.6
6758.75
6755.03
6751.43
6747.95
6744.6
6741.39
6738.33
6735.44
6732.74
6730.25
6727.96
6725.88
6724.03
6722.4
6721.01
6719.86
6718.95
6718.27
6717.84
6717.65
6717.7
6717.97
6718.47
6719.19
6720.12
6721.28
6722.64
6724.21
6725.97
6727.92
6730.05
6732.35
6734.81
6737.44
6740.21
6743.13
6746.19
6749.37
6752.66
6756.07
6759.57
6763.17
6766.86
6770.63
6774.47
6778.38
6782.34
6786.35
6790.41
6794.5
6798.62
6802.78
6806.94
6811.12
6815.3
6819.49
6823.68
6827.87
6832.04
6836.2
6840.34
6844.45
6848.53
6852.58
6856.6
6860.59
6864.54
6868.45
6872.32
6876.13
6879.9
6883.62
6887.29
6890.9
6894.46
6897.96
6901.41
6904.79
6908.12
6911.38
6914.58
6917.72
6920.79
6923.79
6926.73
6929.61
6932.42
6935.16
6937.83
6940.43
6942.97
6945.44
6947.84
6950.17
6952.44
6954.65
6956.78
6958.85
6960.85
6962.79
6964.67
6966.49
6968.25
6969.95
6971.59
6973.18
6974.71
6976.19
6977.61
6978.99
6980.32
6981.61
6982.86
6984.06
6985.22
6986.35
6987.45
6988.51
6989.54
6990.55
6991.53
6992.5
6993.44
6994.37
6995.28
6996.18
6997.06
6997.94
6998.82
6999.69
7000.55
7001.42
7002.28
7003.14
7004.01
7004.88
7005.75
7006.63
7007.51
7008.39
7009.28
7010.17
7011.06
7011.95
7012.85
7013.75
7014.65
7015.56
7016.46
7017.37
7018.28
7019.19
7020.1
7021.02
7021.93
7022.84
7023.75
7024.66
7025.56
7026.47
7027.37
7028.26
7029.15
7030.03
7030.9
7031.76
7032.61
7033.45
7034.27
7035.08
7035.87
7036.65
7037.41
7038.15
7038.87
7039.56
7040.24
7040.89
7041.51
7042.11
7042.68
7043.22
7043.74
7044.22
7044.68
7045.11
7045.5
7045.86
7046.2
7046.5
7046.76
7047
7047.2
7047.37
7047.51
7047.61
7047.69
7047.73
7047.74
7047.72
7047.67
7047.58
7047.47
7047.33
7047.16
7046.96
7046.73
7046.47
7046.19
7045.88
7045.55
7045.19
7044.81
7044.41
7043.98
7043.53
7043.06
7042.57
7042.06
7041.53
7040.98
7040.42
7039.83
7039.23
7038.61
7037.98
7037.35
7036.7
7036
7035.32
7034.53
7033.87
7033.32
7032.64
7031.99
7031.3
7030.6
7029.9
7029.21
7028.49
7027.79
7027.06
7026.34
7025.61
7024.88
7024.13
7023.39
7022.6
7021.86
7021.17
7020.42
7019.69
7018.93
7018.18
7017.4
7016.66
7015.88
7015.14
7014.37
7013.63
7012.84
7012.12
7011.31
7010.59
7009.91
7009.15
7008.52
7007.67
7007.02
7005.84
7005.29
7004.84
7004.27
7003.67
7003.08
7002.46
7001.86
7001.29
7000.73
7000.17
6999.61
6999.06
6998.52
6997.98
6997.45
6996.92
6996.39
6995.87
6995.35
6994.83
6994.31
6993.8
6993.29
6992.79
6992.29
6991.79
6991.3
6990.82
6990.34
6989.87
6989.41
6988.96
6988.51
6988.08
6987.65
6987.24
6986.84
6986.45
6986.07
6985.71
6985.36
6985.02
6984.7
6984.4
6984.11
6983.84
6983.59
6983.35
6983.13
6982.93
6982.74
6982.58
6982.44
6982.31
6982.2
6982.12
6982.05
6982
6981.97
6981.97
6981.98
6982.01
6982.06
6982.13
6982.21
6982.32
6982.44
6982.58
6982.74
6982.91
6983.1
6983.31
6983.53
6983.76
6984.01
6984.27
6984.54
6984.83
6985.13
6985.43
6985.75
6986.08
6986.41
6986.76
6987.11
6987.47
6987.84
6988.22
6988.6
6988.99
6989.34
6989.94
6990.03
6963.58
6955.18
6950.19
6944.28
6938.79
6933.39
6927.99
6922.66
6917.41
6912.27
6907.27
6902.36
6897.58
6892.9
6888.26
6883.65
6879.13
6874.72
6870.54
6866.52
6862.72
6859.15
6855.77
6852.56
6849.5
6846.54
6843.66
6840.82
6838.06
6835.42
6832.96
6830.71
6828.7
6826.93
6825.37
6823.97
6822.72
6821.57
6820.49
6819.48
6818.57
6817.77
6817.11
6816.57
6816.16
6815.88
6815.72
6815.69
6815.79
6816.02
6816.38
6816.86
6817.47
6818.2
6819.03
6819.99
6821.08
6822.28
6823.59
6824.99
6826.48
6828.07
6829.75
6831.52
6833.38
6835.32
6837.31
6839.36
6841.48
6843.7
6846
6848.38
6850.82
6853.32
6855.87
6858.47
6861.11
6863.83
6866.61
6869.46
6872.39
6875.37
6878.41
6881.5
6884.64
6887.83
6891.03
6894.22
6897.38
6900.67
6904.2
6907.85
6911.7
6914.97
6916.4
6918.9
6925.85
6929.85
6934
6937.97
6941.96
6945.42
6949.87
6953.58
6957.54
6961.28
6965.19
6968.77
6972.67
6976.16
6979.35
6982.7
6986.13
6989.47
6995.07
6997.01
6995.32
6996.53
6997.46
6998.82
7000.51
7001.06
7000.83
7000.28
6999.44
6998.59
6997.3
6995.44
6993.09
6990.92
6988.03
6987.02
6982.97
6975.66
6970.53
6965.03
6959.29
6953.11
6947.08
6940.15
6932.5
6924.54
6916.27
6907.72
6898.97
6889.91
6880.55
6870.99
6861.25
6851.34
6841.3
6831.16
6820.94
6810.68
6800.39
6790.12
6779.89
6769.73
6759.65
6749.69
6739.85
6730.17
6720.67
6711.36
6702.25
6693.37
6684.72
6676.31
6668.16
6660.28
6652.66
6645.31
6638.23
6631.42
6624.89
6618.62
6612.6
6606.83
6601.29
6595.99
6590.91
6586.03
6581.35
6576.86
6572.52
6568.35
6564.32
6560.44
6556.69
6553.07
6549.58
6546.23
6543.03
6539.97
6537.1
6534.41
6531.92
6529.64
6527.58
6525.74
6524.12
6522.75
6521.61
6520.72
6520.07
6519.67
6519.51
6519.59
6519.9
6520.43
6521.19
6522.18
6523.38
6524.79
6526.41
6528.22
6530.22
6532.41
6534.77
6537.3
6539.98
6542.81
6545.78
6548.89
6552.13
6555.49
6558.96
6562.52
6566.17
6569.92
6573.74
6577.63
6581.58
6585.6
6589.66
6593.76
6597.9
6602.07
6606.26
6610.47
6614.69
6618.91
6623.13
6627.36
6631.57
6635.78
6639.96
6644.12
6648.26
6652.37
6656.44
6660.49
6664.5
6668.46
6672.39
6676.27
6680.1
6683.89
6687.62
6691.3
6694.92
6698.49
6702
6705.45
6708.84
6712.18
6715.45
6718.65
6721.79
6724.87
6727.87
6730.82
6733.7
6736.51
6739.25
6741.92
6744.52
6747.06
6749.53
6751.93
6754.26
6756.52
6758.72
6760.85
6762.91
6764.91
6766.85
6768.72
6770.53
6772.28
6773.97
6775.6
6777.18
6778.7
6780.16
6781.58
6782.95
6784.27
6785.55
6786.78
6787.98
6789.13
6790.25
6791.34
6792.4
6793.42
6794.42
6795.4
6796.36
6797.29
6798.21
6799.12
6800.01
6800.89
6801.77
6802.64
6803.5
6804.36
6805.22
6806.08
6806.93
6807.8
6808.66
6809.53
6810.4
6811.27
6812.15
6813.04
6813.92
6814.81
6815.71
6816.6
6817.5
6818.4
6819.31
6820.22
6821.13
6822.04
6822.96
6823.87
6824.79
6825.71
6826.63
6827.55
6828.47
6829.38
6830.3
6831.21
6832.11
6833.01
6833.9
6834.78
6835.66
6836.52
6837.37
6838.21
6839.03
6839.84
6840.63
6841.4
6842.16
6842.89
6843.6
6844.28
6844.94
6845.58
6846.19
6846.77
6847.32
6847.85
6848.34
6848.8
6849.24
6849.64
6850
6850.34
6850.64
6850.92
6851.15
6851.36
6851.53
6851.67
6851.77
6851.85
6851.89
6851.9
6851.87
6851.82
6851.74
6851.62
6851.47
6851.3
6851.09
6850.86
6850.6
6850.31
6849.99
6849.65
6849.29
6848.9
6848.49
6848.05
6847.6
6847.12
6846.62
6846.09
6845.56
6844.99
6844.43
6843.87
6843.26
6842.65
6841.97
6841.33
6840.55
6839.91
6839.39
6838.73
6838.1
6837.42
6836.74
6836.05
6835.37
6834.66
6833.96
6833.24
6832.53
6831.8
6831.08
6830.32
6829.58
6828.79
6828.05
6827.37
6826.62
6825.89
6825.13
6824.38
6823.6
6822.85
6822.06
6821.31
6820.52
6819.78
6818.97
6818.23
6817.38
6816.68
6815.89
6815.21
6814.38
6813.69
6812.49
6811.93
6811.46
6810.88
6810.25
6809.6
6808.95
6808.29
6807.66
6807.05
6806.45
6805.85
6805.26
6804.68
6804.1
6803.53
6802.97
6802.41
6801.86
6801.31
6800.76
6800.22
6799.69
6799.15
6798.62
6798.09
6797.57
6797.05
6796.54
6796.03
6795.53
6795.03
6794.54
6794.05
6793.58
6793.11
6792.65
6792.19
6791.75
6791.32
6790.9
6790.49
6790.1
6789.71
6789.34
6788.98
6788.64
6788.32
6788.01
6787.71
6787.44
6787.18
6786.93
6786.71
6786.51
6786.32
6786.15
6786
6785.88
6785.77
6785.68
6785.61
6785.57
6785.54
6785.53
6785.55
6785.58
6785.63
6785.7
6785.79
6785.9
6786.03
6786.18
6786.34
6786.52
6786.71
6786.92
6787.15
6787.39
6787.64
6787.91
6788.19
6788.48
6788.79
6789.1
6789.42
6789.76
6790.1
6790.45
6790.8
6791.17
6791.54
6791.92
6792.3
6792.7
6793.05
6793.65
6793.74
6767.2
6758.71
6753.44
6747.45
6741.77
6736.21
6730.69
6725.27
6719.95
6714.75
6709.68
6704.74
6699.88
6695.12
6690.46
6685.87
6681.38
6677.02
6672.83
6668.8
6664.96
6661.3
6657.82
6654.5
6651.34
6648.31
6645.39
6642.57
6639.86
6637.28
6634.87
6632.65
6630.64
6628.85
6627.24
6625.79
6624.45
6623.22
6622.1
6621.09
6620.2
6619.42
6618.77
6618.26
6617.88
6617.63
6617.52
6617.53
6617.66
6617.91
6618.28
6618.78
6619.41
6620.16
6621.05
6622.07
6623.2
6624.45
6625.81
6627.26
6628.81
6630.45
6632.19
6634.03
6635.96
6637.98
6640.05
6642.14
6644.33
6646.6
6648.96
6651.4
6653.91
6656.49
6659.13
6661.82
6664.56
6667.36
6670.23
6673.16
6676.17
6679.24
6682.37
6685.53
6688.71
6691.94
6695.22
6698.53
6701.92
6705.36
6708.8
6712.15
6715.58
6719.24
6723.14
6727.33
6730.88
6732.08
6733.8
6741.47
6745.56
6749.51
6753.42
6757.42
6760.58
6765.02
6768.56
6772.3
6776.01
6779.65
6783.09
6786.47
6789.73
6792.37
6795.24
6798.22
6801.13
6806.8
6807.9
6804.56
6804.73
6804.68
6805.13
6805.99
6805.52
6804.15
6802.47
6800.45
6798.59
6796.17
6793.17
6789.89
6786.12
6782.45
6778.21
6775.91
6770.47
6760.94
6754.24
6746.66
6739.14
6731.8
6723.59
6714.74
6705.62
6696.3
6686.78
6677.14
6667.25
6657.14
6646.89
6636.56
6626.16
6615.71
6605.24
6594.78
6584.38
6574.05
6563.82
6553.71
6543.72
6533.89
6524.25
6514.81
6505.58
6496.57
6487.79
6479.26
6470.99
6462.99
6455.26
6447.8
6440.61
6433.69
6427.04
6420.67
6414.54
6408.67
6403.03
6397.62
6392.44
6387.47
6382.7
6378.13
6373.73
6369.49
6365.41
6361.48
6357.7
6354.07
6350.58
6347.23
6344.04
6341.01
6338.15
6335.49
6333.01
6330.75
6328.72
6326.9
6325.31
6323.96
6322.86
6322
6321.4
6321.04
6320.92
6321.04
6321.39
6321.98
6322.8
6323.85
6325.11
6326.59
6328.27
6330.15
6332.22
6334.47
6336.9
6339.5
6342.25
6345.15
6348.2
6351.38
6354.69
6358.11
6361.65
6365.29
6369.01
6372.82
6376.7
6380.66
6384.68
6388.75
6392.87
6397.03
6401.23
6405.45
6409.69
6413.95
6418.21
6422.48
6426.75
6431.01
6435.26
6439.5
6443.72
6447.91
6452.08
6456.22
6460.33
6464.39
6468.42
6472.41
6476.35
6480.25
6484.1
6487.91
6491.65
6495.34
6498.98
6502.56
6506.08
6509.54
6512.94
6516.29
6519.57
6522.78
6525.92
6529
6532.02
6534.97
6537.85
6540.66
6543.4
6546.07
6548.67
6551.21
6553.68
6556.08
6558.4
6560.66
6562.85
6564.98
6567.04
6569.03
6570.95
6572.82
6574.62
6576.36
6578.04
6579.66
6581.22
6582.73
6584.19
6585.59
6586.95
6588.26
6589.53
6590.75
6591.93
6593.08
6594.19
6595.27
6596.31
6597.33
6598.32
6599.29
6600.24
6601.17
6602.08
6602.98
6603.86
6604.74
6605.6
6606.47
6607.32
6608.17
6609.03
6609.88
6610.73
6611.59
6612.44
6613.3
6614.17
6615.04
6615.91
6616.79
6617.67
6618.56
6619.45
6620.34
6621.24
6622.14
6623.05
6623.96
6624.87
6625.79
6626.71
6627.63
6628.56
6629.49
6630.41
6631.34
6632.27
6633.2
6634.12
6635.05
6635.96
6636.88
6637.78
6638.68
6639.57
6640.45
6641.32
6642.17
6643.01
6643.84
6644.65
6645.43
6646.2
6646.95
6647.67
6648.38
6649.05
6649.7
6650.32
6650.92
6651.48
6652.02
6652.52
6652.99
6653.43
6653.84
6654.21
6654.56
6654.87
6655.14
6655.38
6655.59
6655.76
6655.9
6656.01
6656.08
6656.12
6656.13
6656.1
6656.04
6655.95
6655.83
6655.68
6655.5
6655.29
6655.05
6654.78
6654.48
6654.16
6653.81
6653.44
6653.04
6652.62
6652.18
6651.71