/*--------------------------------*- C++ -*----------------------------------*\
| =========                 |                                                 |
| \\      /  F ield         | OpenFOAM: The Open Source CFD Toolbox           |
|  \\    /   O peration     | Version:  v2006                                 |
|   \\  /    A nd           | Website:  www.openfoam.com                      |
|    \\/     M anipulation  |                                                 |
\*---------------------------------------------------------------------------*/
FoamFile
{
    version     2.0;
    format      ascii;
    class       volScalarField;
    location    "9.6";
    object      p_rgh;
}
// * * * * * * * * * * * * * * * * * * * * * * * * * * * * * * * * * * * * * //

dimensions      [1 -1 -2 0 0 0 0];


internalField   nonuniform List<scalar> 
33000
(
8047.05
8034.34
8032.66
8026.03
8021.44
8016.66
8011.68
8006.56
8001.36
7996.14
7990.92
7985.81
7980.85
7976.02
7971.3
7966.63
7962.02
7957.57
7953.24
7949.18
7945.52
7942.24
7939.21
7936.37
7933.66
7930.9
7928.05
7925.21
7922.47
7919.9
7917.52
7915.38
7913.51
7911.9
7910.52
7909.29
7908.11
7906.88
7905.64
7904.4
7903.32
7902.37
7901.56
7900.86
7900.3
7899.94
7899.68
7899.55
7899.55
7899.66
7899.95
7900.38
7900.93
7901.59
7902.36
7903.22
7904.17
7905.21
7906.35
7907.59
7908.93
7910.33
7911.83
7913.49
7915.22
7917.02
7918.9
7920.87
7922.9
7924.99
7927.1
7929.22
7931.34
7933.47
7935.62
7937.74
7939.8
7941.71
7943.09
7946.31
7949.69
7952.57
7955.68
7958.77
7961.95
7965.3
7968.9
7972.4
7976.04
7979.64
7983.35
7987.06
7990.92
7994.81
7998.77
8002.78
8007.15
8011.15
8016.08
8019.84
8022.75
8026.64
8030.3
8033.99
8037.79
8041.21
8044.55
8047.74
8050.99
8054.2
8057.16
8060.09
8062.78
8065.24
8067.66
8069.8
8072.57
8074.09
8074.13
8075.27
8075.64
8075.7
8075.64
8075.03
8073.78
8072.28
8070.4
8068.14
8065.56
8062.52
8059.03
8055.15
8050.84
8046.21
8041.21
8035.82
8030.04
8023.86
8017.32
8010.41
8003.15
7995.54
7987.61
7979.42
7970.97
7962.28
7953.35
7944.2
7934.85
7925.4
7915.84
7906.16
7896.4
7886.57
7876.73
7866.91
7857.12
7847.37
7837.69
7828.1
7818.63
7809.29
7800.11
7791.09
7782.26
7773.65
7765.25
7757.08
7749.15
7741.45
7734.04
7726.9
7720.02
7713.4
7707.03
7700.93
7695.11
7689.56
7684.25
7679.16
7674.29
7669.61
7665.13
7660.83
7656.7
7652.71
7648.84
7645.09
7641.43
7637.88
7634.45
7631.14
7627.97
7624.95
7622.11
7619.43
7616.95
7614.69
7612.64
7610.82
7609.2
7607.81
7606.64
7605.7
7604.99
7604.53
7604.28
7604.26
7604.46
7604.89
7605.56
7606.42
7607.49
7608.75
7610.2
7611.85
7613.7
7615.74
7617.94
7620.3
7622.82
7625.47
7628.26
7631.2
7634.27
7637.46
7640.76
7644.16
7647.65
7651.22
7654.88
7658.62
7662.44
7666.31
7670.23
7674.18
7678.18
7682.22
7686.28
7690.36
7694.46
7698.58
7702.71
7706.84
7710.96
7715.07
7719.16
7723.23
7727.3
7731.35
7735.36
7739.35
7743.29
7747.19
7751.07
7754.91
7758.7
7762.44
7766.14
7769.78
7773.37
7776.91
7780.4
7783.83
7787.2
7790.5
7793.74
7796.93
7800.07
7803.13
7806.13
7809.06
7811.93
7814.73
7817.46
7820.14
7822.75
7825.29
7827.76
7830.17
7832.51
7834.79
7836.99
7839.14
7841.22
7843.24
7845.2
7847.1
7848.93
7850.71
7852.42
7854.08
7855.69
7857.25
7858.75
7860.2
7861.6
7862.95
7864.26
7865.52
7866.75
7867.93
7869.08
7870.19
7871.27
7872.33
7873.35
7874.35
7875.33
7876.28
7877.22
7878.14
7879.05
7879.95
7880.84
7881.72
7882.6
7883.48
7884.35
7885.22
7886.09
7886.97
7887.85
7888.73
7889.61
7890.5
7891.38
7892.28
7893.17
7894.06
7894.96
7895.85
7896.75
7897.65
7898.55
7899.45
7900.35
7901.25
7902.16
7903.06
7903.96
7904.86
7905.75
7906.65
7907.54
7908.43
7909.31
7910.19
7911.06
7911.92
7912.78
7913.63
7914.46
7915.29
7916.1
7916.9
7917.68
7918.45
7919.2
7919.93
7920.64
7921.34
7922.01
7922.66
7923.28
7923.88
7924.46
7925.01
7925.54
7926.04
7926.51
7926.95
7927.36
7927.74
7928.09
7928.41
7928.71
7928.97
7929.19
7929.39
7929.56
7929.7
7929.8
7929.88
7929.92
7929.94
7929.92
7929.87
7929.8
7929.69
7929.56
7929.39
7929.2
7928.99
7928.74
7928.47
7928.17
7927.85
7927.5
7927.14
7926.75
7926.33
7925.9
7925.44
7924.97
7924.47
7923.96
7923.42
7922.87
7922.3
7921.72
7921.12
7920.51
7919.88
7919.24
7918.59
7917.93
7917.25
7916.57
7915.87
7915.17
7914.46
7913.75
7913.02
7912.3
7911.58
7910.86
7910.1
7909.4
7908.59
7907.89
7907.32
7906.63
7905.97
7905.26
7904.55
7903.83
7903.1
7902.36
7901.62
7900.87
7900.12
7899.37
7898.62
7897.87
7897.12
7896.38
7895.61
7894.88
7894.2
7893.47
7892.77
7892.04
7891.34
7890.61
7889.92
7889.19
7888.5
7887.8
7887.12
7886.42
7885.77
7885.06
7884.44
7883.83
7883.21
7882.6
7882.09
7881.22
7880.82
7880.47
7880.05
7879.61
7879.15
7878.68
7878.2
7877.71
7877.23
7876.74
7876.25
7875.77
7875.29
7874.81
7874.34
7873.87
7873.41
7872.96
7872.51
7872.07
7871.65
7871.23
7870.82
7870.42
7870.03
7869.65
7869.29
7868.94
7868.6
7868.28
7867.98
7867.68
7867.41
7867.14
7866.9
7866.67
7866.46
7866.27
7866.09
7865.93
7865.79
7865.67
7865.57
7865.48
7865.42
7865.37
7865.34
7865.33
7865.34
7865.36
7865.41
7865.47
7865.55
7865.65
7865.76
7865.89
7866.04
7866.2
7866.38
7866.57
7866.78
7867
7867.24
7867.49
7867.75
7868.02
7868.3
7868.6
7868.91
7869.22
7869.55
7869.88
7870.23
7870.58
7870.95
7871.31
7871.69
7872.08
7872.42
7873.03
7873.11
8045.67
8032.58
8033.78
8023.25
8021
8015.97
8010.88
8005.73
8000.52
7995.31
7990.13
7985.1
7980.27
7975.45
7970.77
7966.11
7961.52
7956.95
7952.46
7948.25
7944.53
7941.35
7938.46
7935.8
7933.36
7930.78
7927.93
7925
7922.12
7919.42
7916.92
7914.69
7912.8
7911.24
7909.87
7908.72
7907.59
7906.4
7905.18
7903.97
7902.94
7902.01
7901.18
7900.43
7899.79
7899.56
7899.37
7899.25
7899.22
7899.26
7899.54
7900.06
7900.63
7901.29
7902.06
7902.92
7903.88
7904.92
7906.08
7907.33
7908.59
7910.02
7911.57
7913.17
7914.96
7916.82
7918.7
7920.66
7922.7
7924.8
7926.93
7929.07
7931.13
7933.29
7935.52
7937.81
7940.17
7942.48
7944.71
7947.24
7949.52
7951.1
7954.75
7958.67
7962.02
7965.46
7969.01
7972.22
7975.69
7979.14
7983.07
7986.85
7990.72
7994.58
7998.49
8002.41
8006.63
8010.77
8014.91
8018.96
8022.96
8027.8
8031.4
8033.61
8037.23
8040.46
8044.37
8047.75
8051.59
8054.83
8057.6
8060.33
8062.89
8065.28
8067.63
8069.81
8071.78
8073.55
8074.75
8076.79
8077.3
8075.88
8075.82
8075.01
8074.04
8072.88
8071.16
8068.75
8066.13
8063.03
8059.54
8055.7
8051.42
8046.78
8041.8
8036.4
8030.6
8024.41
8017.87
8010.96
8003.7
7996.06
7988.09
7979.88
7971.4
7962.71
7953.77
7944.58
7935.17
7925.69
7916.13
7906.44
7896.64
7886.79
7876.91
7867.05
7857.23
7847.47
7837.76
7828.14
7818.64
7809.29
7800.09
7791.06
7782.18
7773.55
7765.15
7756.98
7749.03
7741.3
7733.89
7726.76
7719.88
7713.26
7706.89
7700.75
7694.92
7689.34
7684.06
7678.98
7674.11
7669.43
7664.93
7660.59
7656.43
7652.47
7648.6
7644.83
7641.15
7637.58
7634.13
7630.83
7627.66
7624.63
7621.77
7619.07
7616.58
7614.31
7612.27
7610.45
7608.83
7607.43
7606.25
7605.32
7604.62
7604.17
7603.92
7603.9
7604.08
7604.53
7605.21
7606.09
7607.16
7608.44
7609.89
7611.54
7613.39
7615.44
7617.68
7620.05
7622.57
7625.23
7628.02
7630.97
7634.04
7637.26
7640.58
7643.99
7647.49
7651.06
7654.73
7658.48
7662.3
7666.2
7670.13
7674.1
7678.11
7682.15
7686.2
7690.28
7694.4
7698.52
7702.67
7706.81
7710.94
7715.05
7719.13
7723.22
7727.3
7731.36
7735.38
7739.36
7743.3
7747.21
7751.09
7754.92
7758.73
7762.48
7766.17
7769.82
7773.41
7776.95
7780.45
7783.88
7787.24
7790.54
7793.79
7796.98
7800.12
7803.19
7806.19
7809.12
7811.98
7814.78
7817.51
7820.19
7822.8
7825.35
7827.82
7830.23
7832.57
7834.84
7837.04
7839.18
7841.27
7843.29
7845.25
7847.14
7848.98
7850.75
7852.46
7854.12
7855.72
7857.28
7858.78
7860.23
7861.62
7862.97
7864.28
7865.54
7866.76
7867.95
7869.1
7870.2
7871.28
7872.33
7873.36
7874.35
7875.33
7876.28
7877.22
7878.14
7879.05
7879.95
7880.84
7881.72
7882.6
7883.47
7884.34
7885.21
7886.08
7886.96
7887.84
7888.72
7889.6
7890.49
7891.37
7892.26
7893.16
7894.05
7894.95
7895.84
7896.74
7897.64
7898.54
7899.44
7900.34
7901.25
7902.15
7903.05
7903.95
7904.86
7905.75
7906.65
7907.54
7908.43
7909.32
7910.2
7911.07
7911.94
7912.79
7913.64
7914.48
7915.31
7916.12
7916.92
7917.71
7918.48
7919.23
7919.97
7920.68
7921.38
7922.05
7922.71
7923.33
7923.94
7924.52
7925.07
7925.6
7926.1
7926.57
7927.01
7927.42
7927.8
7928.16
7928.48
7928.77
7929.03
7929.26
7929.46
7929.63
7929.77
7929.88
7929.95
7929.99
7930.01
7929.99
7929.94
7929.87
7929.76
7929.62
7929.46
7929.27
7929.05
7928.81
7928.53
7928.24
7927.91
7927.57
7927.2
7926.8
7926.39
7925.95
7925.5
7925.02
7924.52
7924
7923.47
7922.92
7922.35
7921.76
7921.16
7920.55
7919.92
7919.28
7918.62
7917.96
7917.28
7916.59
7915.9
7915.19
7914.48
7913.77
7913.06
7912.3
7911.58
7910.76
7910.05
7909.46
7908.75
7908.1
7907.41
7906.72
7906.02
7905.31
7904.59
7903.86
7903.12
7902.38
7901.63
7900.88
7900.13
7899.37
7898.62
7897.84
7897.09
7896.39
7895.66
7894.93
7894.22
7893.48
7892.77
7892.04
7891.33
7890.62
7889.9
7889.21
7888.48
7887.81
7887.05
7886.41
7885.73
7885.12
7884.42
7883.85
7882.86
7882.38
7882.01
7881.53
7881.06
7880.6
7880.13
7879.66
7879.18
7878.7
7878.21
7877.72
7877.23
7876.74
7876.25
7875.77
7875.29
7874.81
7874.33
7873.86
7873.4
7872.94
7872.5
7872.05
7871.62
7871.2
7870.79
7870.39
7870
7869.62
7869.26
7868.91
7868.57
7868.25
7867.94
7867.64
7867.37
7867.1
7866.86
7866.63
7866.42
7866.22
7866.05
7865.89
7865.75
7865.63
7865.52
7865.44
7865.37
7865.32
7865.29
7865.28
7865.29
7865.32
7865.36
7865.42
7865.5
7865.6
7865.72
7865.85
7866
7866.16
7866.34
7866.53
7866.74
7866.97
7867.2
7867.45
7867.72
7867.99
7868.28
7868.57
7868.88
7869.2
7869.52
7869.86
7870.21
7870.56
7870.92
7871.29
7871.67
7872.06
7872.4
7873.01
7873.09
8043.52
8034.37
8031.31
8024.43
8019.97
8015.01
8009.91
8004.73
7999.53
7994.29
7989.02
7984.12
7979.43
7975.02
7970.36
7965.64
7960.88
7956.1
7951.49
7947.27
7943.63
7940.46
7937.58
7934.95
7932.5
7929.92
7927.15
7924.15
7921.12
7918.21
7915.52
7913.18
7911.32
7909.86
7908.59
7907.47
7906.44
7905.37
7904.12
7903.12
7902.2
7901.28
7900.38
7899.5
7898.98
7898.76
7898.69
7898.62
7898.57
7898.55
7898.83
7899.34
7900.03
7900.73
7901.5
7902.38
7903.34
7904.29
7905.42
7906.74
7908.24
7909.84
7911.39
7912.8
7914.35
7916.12
7918.11
7920.25
7922.36
7924.5
7926.67
7928.84
7930.92
7933.15
7935.49
7937.98
7940.41
7942.86
7945.33
7947.85
7950.5
7953.21
7956.06
7958.56
7960.13
7963.83
7968.37
7972.1
7975.97
7979.35
7982.9
7986.59
7990.19
7994.26
7998.11
8002.25
8006.38
8010.45
8014.45
8018.51
8022.33
8026.41
8030.43
8034.5
8039.67
8042.76
8044.38
8047.48
8050.65
8054.1
8057.28
8060.8
8063.59
8065.89
8067.99
8070
8071.97
8073.73
8074.98
8075.89
8076.66
8077
8078.41
8077.91
8074.92
8073.6
8071.53
8069.47
8067.34
8064.45
8060.8
8056.78
8052.42
8047.83
8042.92
8037.61
8031.84
8025.55
8018.99
8012.09
8004.79
7997.12
7989.09
7980.84
7972.31
7963.61
7954.59
7945.28
7935.86
7926.33
7916.74
7906.99
7897.07
7887.13
7877.29
7867.41
7857.51
7847.59
7837.79
7828.15
7818.66
7809.28
7800.03
7790.95
7781.99
7773.32
7764.93
7756.74
7748.73
7741
7733.56
7726.44
7719.57
7712.93
7706.56
7700.38
7694.53
7688.93
7683.61
7678.56
7673.67
7668.98
7664.45
7660.05
7655.86
7651.86
7648.01
7644.24
7640.55
7636.93
7633.45
7630.1
7626.95
7623.94
7621.06
7618.35
7615.83
7613.55
7611.52
7609.7
7608.07
7606.65
7605.49
7604.56
7603.89
7603.42
7603.18
7603.13
7603.34
7603.8
7604.53
7605.42
7606.51
7607.8
7609.27
7610.92
7612.8
7614.87
7617.14
7619.53
7622.07
7624.75
7627.56
7630.53
7633.62
7636.87
7640.22
7643.65
7647.17
7650.75
7654.44
7658.21
7662.09
7665.99
7669.94
7673.92
7677.93
7681.96
7686.04
7690.16
7694.31
7698.48
7702.62
7706.76
7710.89
7715
7719.1
7723.2
7727.29
7731.37
7735.4
7739.39
7743.34
7747.25
7751.15
7755
7758.8
7762.53
7766.22
7769.88
7773.51
7777.05
7780.54
7783.97
7787.33
7790.63
7793.88
7797.08
7800.23
7803.3
7806.3
7809.23
7812.1
7814.9
7817.62
7820.3
7822.9
7825.45
7827.93
7830.34
7832.68
7834.94
7837.14
7839.28
7841.37
7843.39
7845.34
7847.23
7849.06
7850.83
7852.54
7854.2
7855.8
7857.35
7858.84
7860.28
7861.68
7863.03
7864.33
7865.58
7866.79
7867.98
7869.12
7870.23
7871.31
7872.35
7873.37
7874.37
7875.34
7876.29
7877.22
7878.14
7879.05
7879.95
7880.83
7881.71
7882.58
7883.46
7884.33
7885.2
7886.07
7886.95
7887.82
7888.7
7889.58
7890.47
7891.36
7892.25
7893.14
7894.03
7894.93
7895.82
7896.72
7897.62
7898.52
7899.43
7900.33
7901.23
7902.14
7903.04
7903.95
7904.85
7905.75
7906.65
7907.55
7908.44
7909.33
7910.21
7911.09
7911.96
7912.82
7913.68
7914.52
7915.35
7916.17
7916.98
7917.77
7918.54
7919.3
7920.04
7920.76
7921.47
7922.15
7922.8
7923.43
7924.04
7924.62
7925.18
7925.71
7926.21
7926.69
7927.13
7927.55
7927.94
7928.29
7928.62
7928.91
7929.17
7929.41
7929.61
7929.78
7929.91
7930.02
7930.09
7930.13
7930.15
7930.13
7930.08
7930
7929.9
7929.76
7929.59
7929.4
7929.18
7928.93
7928.66
7928.36
7928.04
7927.69
7927.31
7926.91
7926.5
7926.06
7925.6
7925.11
7924.61
7924.09
7923.56
7923
7922.43
7921.84
7921.24
7920.62
7919.99
7919.35
7918.68
7918.01
7917.32
7916.64
7915.95
7915.26
7914.51
7913.79
7912.98
7912.28
7911.7
7911
7910.32
7909.62
7908.92
7908.21
7907.51
7906.8
7906.09
7905.36
7904.63
7903.9
7903.16
7902.42
7901.66
7900.91
7900.11
7899.36
7898.66
7897.92
7897.18
7896.45
7895.7
7894.97
7894.23
7893.5
7892.79
7892.05
7891.36
7890.58
7889.91
7889.11
7888.47
7887.75
7887.12
7886.36
7885.76
7884.7
7884.2
7883.8
7883.29
7882.77
7882.25
7881.71
7881.2
7880.7
7880.2
7879.7
7879.21
7878.72
7878.22
7877.72
7877.22
7876.73
7876.23
7875.74
7875.25
7874.77
7874.3
7873.82
7873.36
7872.9
7872.45
7872.01
7871.57
7871.15
7870.74
7870.33
7869.94
7869.56
7869.19
7868.84
7868.5
7868.18
7867.86
7867.57
7867.29
7867.02
7866.77
7866.54
7866.33
7866.14
7865.96
7865.8
7865.66
7865.53
7865.43
7865.34
7865.28
7865.23
7865.2
7865.19
7865.2
7865.23
7865.27
7865.34
7865.42
7865.52
7865.64
7865.77
7865.92
7866.09
7866.27
7866.46
7866.68
7866.9
7867.14
7867.39
7867.66
7867.93
7868.22
7868.52
7868.83
7869.15
7869.48
7869.82
7870.16
7870.52
7870.88
7871.26
7871.63
7872.02
7872.37
7872.97
7873.06
8042.92
8034.47
8030.37
8024.2
8019.24
8014.14
8008.94
8003.72
7998.51
7993.2
7988.01
7983.24
7978.91
7974.3
7969.63
7964.93
7960.28
7955.53
7951.1
7947.01
7943.32
7940.08
7937.08
7934.27
7931.77
7929.1
7926.24
7923.05
7920.07
7917.25
7914.5
7912.13
7910.18
7908.6
7907.27
7906.12
7904.99
7903.72
7902.72
7901.87
7901.04
7900.16
7899.26
7898.33
7897.84
7897.77
7897.75
7897.69
7897.66
7897.57
7897.84
7898.36
7899.16
7899.89
7900.68
7901.58
7902.55
7903.52
7904.64
7906.17
7907.72
7909.24
7910.81
7912.39
7913.74
7915.48
7917.37
7919.42
7921.75
7924.07
7926.3
7928.57
7930.86
7932.97
7935.39
7937.96
7940.49
7943.02
7945.61
7948.25
7951
7953.73
7956.56
7959.52
7962.64
7965.73
7968.89
7971.6
7973.25
7976.78
7982.41
7986.2
7990.12
7993.75
7997.53
8001.2
8005.7
8009.8
8013.87
8017.85
8021.84
8025.82
8029.88
8033.28
8037.29
8040.73
8045
8048.77
8054.39
8057.57
8058.17
8060.86
8063.19
8065.78
8068.7
8070.96
8072.79
8074.28
8075.42
8076.52
8077.23
8077.53
8077.39
8077.29
8076.56
8077.06
8075.45
8071.17
8068.81
8065.44
8061.97
8058.56
8054.46
8049.81
8044.74
8039.26
8033.42
8027.07
8020.55
8013.66
8006.42
7998.72
7990.58
7982.25
7973.76
7964.93
7955.79
7946.37
7936.9
7927.31
7917.68
7907.78
7897.72
7887.73
7877.82
7867.88
7857.88
7847.84
7837.98
7828.23
7818.65
7809.26
7799.96
7790.8
7781.77
7773.04
7764.57
7756.42
7748.37
7740.58
7733.1
7725.94
7719.07
7712.42
7706.02
7699.8
7693.87
7688.24
7682.9
7677.82
7672.9
7668.16
7663.57
7659.11
7654.89
7650.82
7646.98
7643.19
7639.5
7635.89
7632.35
7628.98
7625.77
7622.8
7619.94
7617.25
7614.72
7612.37
7610.29
7608.46
7606.88
7605.5
7604.33
7603.41
7602.73
7602.27
7601.98
7601.98
7602.23
7602.74
7603.49
7604.4
7605.51
7606.81
7608.28
7610
7611.91
7614.04
7616.33
7618.75
7621.32
7624.06
7626.91
7629.88
7633
7636.25
7639.64
7643.14
7646.69
7650.3
7654
7657.83
7661.74
7665.67
7669.64
7673.63
7677.64
7681.72
7685.84
7690.02
7694.2
7698.36
7702.52
7706.65
7710.77
7714.92
7719.06
7723.22
7727.33
7731.39
7735.4
7739.37
7743.36
7747.34
7751.24
7755.09
7758.88
7762.61
7766.31
7769.98
7773.63
7777.18
7780.68
7784.12
7787.49
7790.79
7794.03
7797.23
7800.39
7803.46
7806.46
7809.38
7812.24
7815.07
7817.82
7820.49
7823.08
7825.6
7828.06
7830.49
7832.84
7835.1
7837.3
7839.44
7841.52
7843.54
7845.47
7847.34
7849.18
7850.96
7852.68
7854.33
7855.92
7857.44
7858.92
7860.37
7861.77
7863.11
7864.4
7865.65
7866.85
7868.02
7869.17
7870.27
7871.33
7872.36
7873.38
7874.39
7875.36
7876.3
7877.22
7878.14
7879.05
7879.95
7880.83
7881.7
7882.57
7883.45
7884.32
7885.19
7886.06
7886.92
7887.8
7888.68
7889.56
7890.44
7891.33
7892.21
7893.1
7893.99
7894.89
7895.79
7896.69
7897.59
7898.49
7899.39
7900.3
7901.2
7902.11
7903.02
7903.93
7904.84
7905.74
7906.65
7907.54
7908.44
7909.34
7910.23
7911.12
7912
7912.87
7913.73
7914.58
7915.42
7916.25
7917.06
7917.86
7918.64
7919.41
7920.15
7920.88
7921.59
7922.28
7922.94
7923.58
7924.2
7924.79
7925.35
7925.89
7926.4
7926.87
7927.32
7927.74
7928.13
7928.49
7928.82
7929.11
7929.38
7929.61
7929.82
7929.99
7930.13
7930.23
7930.31
7930.35
7930.36
7930.34
7930.29
7930.2
7930.09
7929.95
7929.79
7929.59
7929.37
7929.12
7928.84
7928.54
7928.21
7927.86
7927.48
7927.08
7926.65
7926.21
7925.75
7925.27
7924.76
7924.24
7923.69
7923.13
7922.56
7921.97
7921.37
7920.73
7920.1
7919.44
7918.78
7918.12
7917.44
7916.71
7916.01
7915.21
7914.52
7913.95
7913.26
7912.6
7911.9
7911.19
7910.48
7909.79
7909.07
7908.36
7907.64
7906.91
7906.19
7905.46
7904.72
7903.96
7903.21
7902.42
7901.67
7900.96
7900.22
7899.47
7898.73
7897.96
7897.22
7896.45
7895.73
7894.96
7894.25
7893.47
7892.77
7891.97
7891.29
7890.59
7889.89
7889.23
7888.45
7887.8
7886.67
7886.14
7885.71
7885.17
7884.6
7884.04
7883.45
7882.89
7882.36
7881.84
7881.31
7880.8
7880.28
7879.77
7879.26
7878.75
7878.24
7877.73
7877.22
7876.72
7876.22
7875.72
7875.23
7874.74
7874.26
7873.78
7873.31
7872.84
7872.39
7871.94
7871.5
7871.07
7870.66
7870.25
7869.86
7869.47
7869.1
7868.74
7868.4
7868.07
7867.75
7867.45
7867.17
7866.9
7866.65
7866.42
7866.2
7866
7865.82
7865.66
7865.52
7865.39
7865.29
7865.2
7865.14
7865.09
7865.06
7865.05
7865.06
7865.09
7865.14
7865.2
7865.29
7865.39
7865.51
7865.65
7865.8
7865.97
7866.15
7866.35
7866.57
7866.8
7867.04
7867.29
7867.56
7867.84
7868.14
7868.44
7868.75
7869.07
7869.4
7869.75
7870.1
7870.45
7870.82
7871.19
7871.57
7871.96
7872.31
7872.92
7873.01
8042.75
8034.42
8029.81
8023.87
8018.58
8013.32
8008.03
8002.77
7997.53
7992.23
7987.04
7982.54
7977.95
7973.28
7968.65
7964.03
7959.47
7955.04
7950.73
7946.66
7942.89
7939.42
7936.2
7933.17
7930.2
7927.17
7924.28
7921.47
7918.81
7916.09
7913.54
7911.26
7909.26
7907.53
7905.99
7904.48
7903.07
7901.99
7901.1
7900.43
7899.52
7898.68
7897.89
7897.08
7896.58
7896.57
7896.46
7896.41
7896.43
7896.37
7896.53
7897.26
7898.01
7898.74
7899.56
7900.49
7901.52
7902.66
7903.94
7905.33
7906.79
7908.33
7909.94
7911.61
7913.07
7914.64
7916.57
7918.58
7920.96
7923.45
7925.77
7928.1
7930.48
7932.9
7935.29
7937.76
7940.31
7943
7945.74
7948.5
7951.32
7954.08
7956.7
7959.7
7962.75
7965.82
7969.19
7972.67
7976.23
7979.81
7982.78
7984.23
7987.12
7993.45
7997.25
8001.07
8005
8009.38
8013.07
8017.49
8021.31
8025.35
8029.45
8033.39
8037.3
8041.21
8044.14
8048.22
8051.65
8055.76
8059.31
8064.99
8067.5
8067.08
8068.99
8070.78
8072.93
8075.33
8076.74
8077.55
8078.08
8078.28
8078.45
8078.2
8077.42
8075.99
8074.89
8073.25
8073.15
8070.34
8064.17
8060.49
8055.86
8051.63
8046.9
8042.03
8036.4
8029.86
8022.99
8015.85
8008.39
8000.81
7992.83
7984.44
7975.71
7966.69
7957.28
7947.86
7938.28
7928.7
7918.88
7908.75
7898.62
7888.51
7878.5
7868.47
7858.37
7848.22
7838.21
7828.37
7818.7
7809.25
7799.87
7790.57
7781.49
7772.7
7764.16
7755.97
7747.91
7740
7732.45
7725.2
7718.32
7711.64
7705.17
7698.88
7692.87
7687.19
7681.87
7676.7
7671.7
7666.9
7662.25
7657.72
7653.42
7649.3
7645.38
7641.64
7637.92
7634.32
7630.81
7627.38
7624.14
7621.17
7618.33
7615.63
7613.11
7610.74
7608.65
7606.8
7605.23
7603.9
7602.75
7601.84
7601.14
7600.63
7600.42
7600.46
7600.79
7601.36
7602.08
7603.02
7604.13
7605.42
7606.98
7608.76
7610.79
7612.93
7615.21
7617.62
7620.25
7623.06
7626.02
7629.08
7632.25
7635.5
7638.85
7642.35
7645.95
7649.64
7653.49
7657.37
7661.27
7665.24
7669.24
7673.24
7677.29
7681.42
7685.61
7689.83
7694.01
7698.19
7702.32
7706.49
7710.67
7714.85
7719.07
7723.23
7727.34
7731.41
7735.41
7739.42
7743.41
7747.41
7751.35
7755.21
7758.99
7762.73
7766.45
7770.15
7773.8
7777.36
7780.86
7784.3
7787.69
7791
7794.24
7797.45
7800.61
7803.68
7806.66
7809.59
7812.46
7815.3
7818.05
7820.73
7823.32
7825.83
7828.28
7830.69
7833.03
7835.33
7837.54
7839.68
7841.73
7843.71
7845.64
7847.52
7849.36
7851.15
7852.85
7854.49
7856.06
7857.57
7859.05
7860.49
7861.89
7863.22
7864.51
7865.74
7866.93
7868.11
7869.25
7870.33
7871.37
7872.41
7873.42
7874.42
7875.39
7876.32
7877.25
7878.16
7879.07
7879.96
7880.83
7881.7
7882.57
7883.44
7884.31
7885.18
7886.04
7886.9
7887.77
7888.64
7889.52
7890.41
7891.29
7892.17
7893.06
7893.94
7894.84
7895.74
7896.65
7897.55
7898.45
7899.35
7900.25
7901.17
7902.08
7903
7903.91
7904.83
7905.74
7906.64
7907.54
7908.45
7909.36
7910.26
7911.16
7912.05
7912.93
7913.79
7914.65
7915.5
7916.34
7917.17
7917.98
7918.77
7919.55
7920.31
7921.05
7921.77
7922.46
7923.14
7923.79
7924.41
7925.01
7925.58
7926.12
7926.63
7927.12
7927.57
7928
7928.4
7928.76
7929.1
7929.39
7929.66
7929.9
7930.1
7930.27
7930.41
7930.51
7930.58
7930.62
7930.63
7930.62
7930.57
7930.48
7930.37
7930.23
7930.06
7929.86
7929.63
7929.37
7929.09
7928.78
7928.45
7928.09
7927.71
7927.3
7926.87
7926.42
7925.96
7925.47
7924.96
7924.43
7923.88
7923.31
7922.72
7922.13
7921.51
7920.88
7920.25
7919.6
7918.9
7918.22
7917.43
7916.77
7916.22
7915.54
7914.89
7914.2
7913.5
7912.8
7912.11
7911.39
7910.69
7909.96
7909.24
7908.51
7907.78
7907.03
7906.29
7905.5
7904.76
7904.07
7903.32
7902.58
7901.82
7901.08
7900.3
7899.56
7898.78
7898.04
7897.26
7896.53
7895.74
7895.02
7894.21
7893.49
7892.8
7892.05
7891.42
7890.57
7889.92
7888.74
7888.19
7887.74
7887.17
7886.57
7885.97
7885.36
7884.77
7884.19
7883.62
7883.06
7882.5
7881.96
7881.42
7880.88
7880.35
7879.82
7879.29
7878.76
7878.24
7877.72
7877.21
7876.7
7876.19
7875.69
7875.18
7874.69
7874.2
7873.71
7873.24
7872.77
7872.31
7871.86
7871.41
7870.97
7870.55
7870.14
7869.74
7869.35
7868.97
7868.61
7868.26
7867.92
7867.6
7867.3
7867.01
7866.74
7866.49
7866.25
7866.03
7865.83
7865.64
7865.48
7865.34
7865.21
7865.1
7865.02
7864.95
7864.9
7864.88
7864.87
7864.88
7864.91
7864.96
7865.03
7865.11
7865.22
7865.34
7865.48
7865.64
7865.81
7866
7866.21
7866.43
7866.66
7866.91
7867.17
7867.44
7867.73
7868.03
7868.33
7868.65
7868.98
7869.31
7869.66
7870.01
7870.37
7870.74
7871.12
7871.5
7871.89
7872.24
7872.84
7872.93
8042.67
8034.27
8029.29
8023.37
8017.89
8012.49
8007.09
8001.75
7996.48
7991.28
7986.21
7981.39
7976.67
7971.99
7967.36
7962.75
7958.23
7953.82
7949.63
7945.62
7941.82
7938.24
7934.85
7931.55
7928.26
7925.26
7922.43
7919.86
7917.15
7914.52
7912.05
7909.79
7907.73
7905.75
7903.78
7902.25
7900.99
7900.27
7899.51
7898.57
7897.66
7896.87
7896.17
7895.59
7895.18
7894.94
7894.81
7894.78
7894.86
7894.99
7895.23
7895.85
7896.55
7897.29
7898.13
7899.09
7900.18
7901.38
7902.69
7904.09
7905.58
7907.17
7908.85
7910.61
7912.36
7913.75
7915.59
7917.64
7920.13
7922.73
7925.1
7927.48
7929.92
7932.42
7934.97
7937.48
7939.75
7942.58
7945.61
7948.55
7951.49
7954.43
7957.22
7960.28
7963.6
7966.89
7970.09
7973.27
7976.43
7979.75
7983.28
7986.87
7990.37
7993.54
7994.98
7997.48
8004.62
8008.89
8013.1
8017.07
8020.98
8024.34
8028.89
8032.67
8036.62
8040.27
8043.99
8047.71
8051.74
8055.26
8058.45
8061.8
8065.23
8068.55
8074.04
8075.91
8074.22
8075.43
8076.36
8077.8
8079.6
8080.16
8079.93
8079.38
8078.54
8077.58
8076.27
8074.49
8072.19
8070.01
8066.99
8065.75
8061.73
8054.61
8049.61
8044.12
8038.38
8032.19
8026.01
8018.98
8011.33
8003.48
7995.33
7986.81
7978.05
7968.91
7959.32
7949.75
7940.1
7930.39
7920.36
7910.05
7899.75
7889.51
7879.4
7869.21
7858.98
7848.75
7838.51
7828.55
7818.8
7809.25
7799.75
7790.37
7781.14
7772.25
7763.66
7755.38
7747.24
7739.24
7731.55
7724.25
7717.29
7710.52
7703.97
7697.57
7691.46
7685.78
7680.37
7675.09
7670
7665.12
7660.43
7655.87
7651.42
7647.24
7643.21
7639.46
7635.78
7632.16
7628.67
7625.31
7622.08
7618.99
7616.03
7613.33
7610.92
7608.64
7606.52
7604.77
7603.21
7601.84
7600.7
7599.77
7599.03
7598.61
7598.45
7598.6
7598.98
7599.52
7600.29
7601.25
7602.37
7603.74
7605.36
7607.22
7609.3
7611.49
7613.8
7616.28
7618.97
7621.82
7624.87
7627.98
7631.22
7634.57
7637.98
7641.48
7645.13
7648.87
7652.76
7656.72
7660.68
7664.69
7668.75
7672.83
7676.9
7681.04
7685.33
7689.56
7693.77
7697.94
7702.12
7706.34
7710.58
7714.86
7719.06
7723.22
7727.35
7731.41
7735.44
7739.49
7743.52
7747.55
7751.48
7755.36
7759.15
7762.9
7766.65
7770.38
7774.01
7777.58
7781.07
7784.49
7787.89
7791.27
7794.54
7797.75
7800.89
7803.94
7806.92
7809.86
7812.77
7815.6
7818.34
7821.02
7823.62
7826.13
7828.57
7830.96
7833.32
7835.62
7837.82
7839.95
7842
7843.96
7845.89
7847.78
7849.62
7851.38
7853.06
7854.68
7856.23
7857.74
7859.25
7860.68
7862.05
7863.37
7864.64
7865.87
7867.05
7868.22
7869.35
7870.43
7871.47
7872.49
7873.51
7874.49
7875.45
7876.38
7877.29
7878.2
7879.1
7879.99
7880.86
7881.71
7882.58
7883.45
7884.31
7885.17
7886.03
7886.88
7887.75
7888.62
7889.49
7890.37
7891.25
7892.13
7893.02
7893.9
7894.79
7895.69
7896.6
7897.5
7898.4
7899.3
7900.21
7901.14
7902.06
7902.97
7903.89
7904.81
7905.72
7906.63
7907.55
7908.47
7909.39
7910.3
7911.21
7912.11
7913
7913.88
7914.75
7915.61
7916.47
7917.31
7918.13
7918.94
7919.73
7920.5
7921.26
7921.99
7922.69
7923.38
7924.04
7924.68
7925.28
7925.86
7926.42
7926.94
7927.44
7927.9
7928.33
7928.73
7929.1
7929.44
7929.74
7930.01
7930.25
7930.45
7930.62
7930.76
7930.87
7930.94
7930.98
7930.99
7930.97
7930.92
7930.84
7930.71
7930.57
7930.4
7930.19
7929.95
7929.68
7929.4
7929.09
7928.75
7928.39
7927.99
7927.58
7927.14
7926.69
7926.22
7925.72
7925.19
7924.66
7924.09
7923.53
7922.96
7922.36
7921.75
7921.07
7920.43
7919.65
7919.01
7918.49
7917.83
7917.2
7916.52
7915.84
7915.15
7914.47
7913.76
7913.06
7912.34
7911.63
7910.9
7910.18
7909.42
7908.68
7907.89
7907.15
7906.47
7905.72
7904.99
7904.23
7903.48
7902.7
7901.95
7901.16
7900.41
7899.62
7898.88
7898.07
7897.33
7896.48
7895.78
7894.99
7894.31
7893.47
7892.78
7891.59
7891.03
7890.56
7889.98
7889.35
7888.7
7888.05
7887.39
7886.76
7886.15
7885.54
7884.95
7884.36
7883.78
7883.2
7882.63
7882.07
7881.51
7880.96
7880.41
7879.86
7879.32
7878.78
7878.25
7877.72
7877.19
7876.67
7876.15
7875.64
7875.13
7874.62
7874.12
7873.64
7873.15
7872.67
7872.2
7871.74
7871.29
7870.85
7870.42
7870
7869.59
7869.2
7868.81
7868.44
7868.08
7867.74
7867.42
7867.11
7866.81
7866.54
7866.28
7866.04
7865.81
7865.61
7865.42
7865.25
7865.1
7864.98
7864.87
7864.78
7864.71
7864.67
7864.64
7864.63
7864.65
7864.68
7864.73
7864.8
7864.89
7865
7865.13
7865.27
7865.44
7865.62
7865.81
7866.02
7866.25
7866.49
7866.74
7867.01
7867.29
7867.58
7867.89
7868.2
7868.52
7868.86
7869.2
7869.55
7869.9
7870.27
7870.64
7871.02
7871.4
7871.8
7872.15
7872.75
7872.84
8042.49
8034
8028.74
8022.74
8017.06
8011.51
8005.99
8000.56
7995.24
7990.02
7984.91
7979.97
7975.17
7970.42
7965.75
7961.17
7956.68
7952.32
7948.12
7944.1
7940.26
7936.6
7933.11
7929.72
7926.31
7923.16
7920.55
7917.86
7915.16
7912.58
7910.13
7907.63
7905.13
7903.17
7901.56
7900.13
7899.41
7898.45
7897.39
7896.38
7895.49
7894.72
7894.07
7893.55
7893.17
7892.92
7892.81
7892.82
7892.95
7893.2
7893.53
7893.94
7894.58
7895.42
7896.35
7897.37
7898.5
7899.75
7901.11
7902.56
7904.11
7905.75
7907.49
7909.33
7911.25
7913.12
7914.59
7916.48
7919.18
7921.81
7924.25
7926.7
7929.21
7931.79
7934.41
7936.9
7939.3
7942.1
7945.23
7948.41
7951.46
7954.54
7957.66
7960.81
7964
7967.18
7970.32
7973.26
7976.72
7980.45
7984.06
7987.41
7990.75
7994.14
7998.11
8002.5
8006.16
8007.37
8009.1
8016.77
8020.82
8024.73
8028.68
8032.72
8035.86
8040.1
8043.27
8047.19
8051.21
8054.94
8058.39
8061.77
8064.99
8067.54
8070.37
8073.4
8076.38
8082.08
8083.17
8079.74
8079.93
8079.95
8080.41
8081.23
8080.6
8079.31
8077.74
8075.75
8073.89
8071.47
8068.46
8064.95
8061.02
8057.35
8053.32
8051.18
8045.76
8036.23
8029.51
8021.7
8014.2
8007.02
7998.88
7990.03
7980.91
7971.46
7961.68
7952.08
7942.42
7932.42
7922.17
7911.72
7901.12
7890.78
7880.49
7870.07
7859.67
7849.32
7838.89
7828.79
7818.95
7809.18
7799.54
7790.08
7780.67
7771.67
7763.02
7754.54
7746.27
7738.22
7730.37
7723.01
7715.89
7708.98
7702.31
7695.78
7689.61
7683.89
7678.32
7672.92
7667.71
7662.64
7657.91
7653.37
7648.96
7644.65
7640.48
7636.54
7632.9
7629.35
7625.87
7622.52
7619.31
7616.16
7613.22
7610.55
7608.08
7605.89
7603.98
7602.19
7600.61
7599.26
7598.12
7597.16
7596.5
7596.14
7596.08
7596.31
7596.67
7597.26
7598.08
7599.13
7600.38
7601.76
7603.39
7605.27
7607.4
7609.74
7612.18
7614.75
7617.46
7620.38
7623.46
7626.56
7629.83
7633.38
7636.94
7640.56
7644.19
7647.95
7651.85
7655.92
7659.97
7664.05
7668.16
7672.26
7676.37
7680.64
7684.97
7689.24
7693.51
7697.75
7701.94
7706.18
7710.49
7714.79
7719.01
7723.21
7727.37
7731.46
7735.51
7739.57
7743.66
7747.7
7751.65
7755.55
7759.37
7763.11
7766.88
7770.63
7774.27
7777.84
7781.32
7784.75
7788.16
7791.57
7794.86
7798.07
7801.22
7804.26
7807.25
7810.2
7813.12
7815.95
7818.69
7821.36
7823.96
7826.48
7828.92
7831.33
7833.7
7835.96
7838.15
7840.28
7842.33
7844.29
7846.18
7848.09
7849.91
7851.65
7853.33
7854.94
7856.48
7857.97
7859.45
7860.88
7862.24
7863.55
7864.81
7866.04
7867.23
7868.37
7869.48
7870.54
7871.59
7872.62
7873.62
7874.59
7875.53
7876.46
7877.37
7878.27
7879.15
7880.01
7880.88
7881.75
7882.62
7883.47
7884.32
7885.16
7886.01
7886.88
7887.74
7888.6
7889.46
7890.33
7891.2
7892.08
7892.96
7893.85
7894.74
7895.63
7896.53
7897.43
7898.34
7899.25
7900.17
7901.09
7902.01
7902.93
7903.85
7904.77
7905.7
7906.63
7907.56
7908.49
7909.42
7910.34
7911.26
7912.18
7913.08
7913.98
7914.87
7915.74
7916.61
7917.47
7918.31
7919.13
7919.94
7920.73
7921.5
7922.25
7922.97
7923.66
7924.34
7925
7925.62
7926.22
7926.78
7927.32
7927.82
7928.29
7928.72
7929.13
7929.51
7929.85
7930.16
7930.44
7930.68
7930.89
7931.06
7931.2
7931.31
7931.38
7931.41
7931.42
7931.4
7931.34
7931.25
7931.12
7930.97
7930.8
7930.58
7930.34
7930.07
7929.78
7929.46
7929.11
7928.73
7928.34