/*--------------------------------*- C++ -*----------------------------------*\
| =========                 |                                                 |
| \\      /  F ield         | OpenFOAM: The Open Source CFD Toolbox           |
|  \\    /   O peration     | Version:  v2006                                 |
|   \\  /    A nd           | Website:  www.openfoam.com                      |
|    \\/     M anipulation  |                                                 |
\*---------------------------------------------------------------------------*/
FoamFile
{
    version     2.0;
    format      ascii;
    class       surfaceScalarField;
    location    "9.6";
    object      phi;
}
// * * * * * * * * * * * * * * * * * * * * * * * * * * * * * * * * * * * * * //

dimensions      [0 3 -1 0 0 0 0];
oriented        oriented;


internalField   nonuniform List<scalar> 
65390
(
-4.63277e-06
9.69019e-06
-8.75167e-06
4.11844e-06
-9.7341e-06
9.82009e-07
-7.81272e-06
-1.92172e-06
-2.7057e-06
-5.10725e-06
2.88656e-06
-5.5924e-06
8.24902e-06
-5.36252e-06
1.34281e-05
-5.17907e-06
1.86509e-05
-5.2228e-06
2.36201e-05
-4.96914e-06
2.73493e-05
-3.72905e-06
3.00013e-05
-2.65194e-06
3.21445e-05
-2.14312e-06
3.41123e-05
-1.96768e-06
3.63936e-05
-2.28117e-06
3.85472e-05
-2.15352e-06
4.08345e-05
-2.28724e-06
4.3354e-05
-2.51944e-06
4.52777e-05
-1.92363e-06
4.56713e-05
-3.93541e-07
4.46206e-05
1.05071e-06
4.29249e-05
1.69566e-06
4.04052e-05
2.51976e-06
3.66128e-05
3.79235e-06
3.18467e-05
4.76606e-06
2.76239e-05
4.22281e-06
2.50921e-05
2.53177e-06
2.43084e-05
7.83635e-07
2.4823e-05
-5.14609e-07
2.58311e-05
-1.00823e-06
2.63461e-05
-5.15065e-07
2.58151e-05
5.31032e-07
2.41024e-05
1.71265e-06
2.17859e-05
2.31648e-06
1.87661e-05
3.01989e-06
1.37255e-05
5.0406e-06
8.25479e-06
5.47068e-06
4.00806e-06
4.2467e-06
4.72984e-07
3.53505e-06
-2.13858e-06
2.61153e-06
-3.22431e-06
1.08571e-06
-3.73435e-06
5.10033e-07
-4.37452e-06
6.40176e-07
-5.89832e-06
1.52382e-06
-7.70543e-06
1.80715e-06
-8.44229e-06
7.36909e-07
-8.21925e-06
-2.2298e-07
-7.84322e-06
-3.75973e-07
-7.91176e-06
6.85852e-08
-8.882e-06
9.70273e-07
-9.81776e-06
9.35766e-07
-1.00318e-05
2.14043e-07
-9.36616e-06
-6.65695e-07
-8.28427e-06
-1.08191e-06
-6.97816e-06
-1.30613e-06
-5.56556e-06
-1.4126e-06
-4.13805e-06
-1.42749e-06
-2.87107e-06
-1.26696e-06
-1.86513e-06
-1.00591e-06
-1.40622e-06
-4.58889e-07
-1.52408e-06
1.17872e-07
-2.06551e-06
5.41426e-07
-2.72706e-06
6.61547e-07
-3.22896e-06
5.01893e-07
-3.45683e-06
2.27869e-07
-3.44565e-06
-1.11631e-08
-3.13545e-06
-3.10178e-07
-2.33402e-06
-8.01392e-07
-9.22252e-07
-1.41174e-06
9.4556e-07
-1.86779e-06
3.07859e-06
-2.13302e-06
5.14335e-06
-2.06478e-06
6.94826e-06
-1.80494e-06
8.50602e-06
-1.5578e-06
9.94403e-06
-1.43807e-06
1.1404e-05
-1.46e-06
1.27952e-05
-1.39135e-06
1.3136e-05
-3.40862e-07
1.26964e-05
4.39547e-07
1.25068e-05
1.89499e-07
1.1889e-05
6.17765e-07
1.14058e-05
4.83072e-07
1.0955e-05
4.50834e-07
1.07583e-05
1.96574e-07
1.07227e-05
3.55302e-08
1.05228e-05
1.99872e-07
1.0362e-05
1.60865e-07
1.04277e-05
-6.57659e-08
1.06409e-05
-2.13265e-07
1.08418e-05
-2.00905e-07
1.11171e-05
-2.75275e-07
1.14098e-05
-2.92774e-07
1.15848e-05
-1.75032e-07
1.17135e-05
-1.28831e-07
1.17055e-05
8.00231e-09
1.16772e-05
2.82578e-08
1.15191e-05
1.58064e-07
1.12823e-05
2.36828e-07
1.02566e-05
1.02573e-06
8.4359e-06
1.82075e-06
6.93717e-06
1.4988e-06
6.31208e-06
6.2519e-07
6.48389e-06
-1.71713e-07
6.65028e-06
-1.66295e-07
7.20567e-06
-5.55296e-07
7.87334e-06
-6.67586e-07
8.33403e-06
-4.6064e-07
8.56663e-06
-2.32568e-07
8.82024e-06
-2.536e-07
9.21959e-06
-3.99338e-07
9.57113e-06
-3.51546e-07
9.96559e-06
-3.9446e-07
1.03175e-05
-3.51919e-07
1.05881e-05
-2.7059e-07
1.06261e-05
-3.79203e-08
1.05521e-05
7.39749e-08
9.9102e-06
6.41969e-07
9.03504e-06
8.75161e-07
8.58401e-06
4.51025e-07
8.69167e-06
-1.07689e-07
9.1115e-06
-4.19877e-07
9.4068e-06
-2.95345e-07
9.91151e-06
-5.0475e-07
1.04832e-05
-5.71712e-07
1.08689e-05
-3.85755e-07
1.12156e-05
-3.46719e-07
1.15613e-05
-3.45688e-07
1.18772e-05
-3.15812e-07
1.22232e-05
-3.45939e-07
1.25769e-05
-3.53691e-07
1.28972e-05
-3.20163e-07
1.31919e-05
-2.94653e-07
1.34599e-05
-2.67909e-07
1.37186e-05
-2.58568e-07
1.39735e-05
-2.5476e-07
1.42244e-05
-2.50732e-07
1.44663e-05
-2.4186e-07
1.46924e-05
-2.26001e-07
1.49055e-05
-2.13043e-07
1.51063e-05
-2.00789e-07
1.52915e-05
-1.85257e-07
1.54533e-05
-1.61866e-07
1.55914e-05
-1.38159e-07
1.57101e-05
-1.18857e-07
1.58134e-05
-1.03409e-07
1.59038e-05
-9.05292e-08
1.59753e-05
-7.16362e-08
1.60207e-05
-4.54947e-08
1.6035e-05
-1.44488e-08
1.60326e-05
2.31049e-09
1.60188e-05
1.38247e-08
1.59858e-05
3.29313e-08
1.59281e-05
5.76854e-08
1.58451e-05
8.3053e-08
1.57396e-05
1.05623e-07
1.56143e-05
1.25403e-07
1.54702e-05
1.44267e-07
1.5304e-05
1.6644e-07
1.51146e-05
1.89772e-07
1.49028e-05
2.12103e-07
1.46701e-05
2.33116e-07
1.4416e-05
2.54532e-07
1.41414e-05
2.74947e-07
1.38423e-05
2.99563e-07
1.35126e-05
3.29985e-07
1.31602e-05
3.52775e-07
1.27904e-05
3.70108e-07
1.23999e-05
3.90732e-07
1.1979e-05
4.21136e-07
1.15211e-05
4.58019e-07
1.10417e-05
4.79449e-07
1.05489e-05
4.92709e-07
1.00373e-05
5.11546e-07
9.50342e-06
5.33825e-07
8.93663e-06
5.66688e-07
8.33233e-06
6.04193e-07
7.70657e-06
6.25645e-07
7.06973e-06
6.36718e-07
6.4305e-06
6.39101e-07
5.79003e-06
6.40341e-07
5.14045e-06
6.49471e-07
4.48437e-06
6.56004e-07
3.82296e-06
6.6137e-07
3.15477e-06
6.68178e-07
2.49598e-06
6.58797e-07
1.86164e-06
6.34362e-07
1.2508e-06
6.10884e-07
6.54432e-07
5.9643e-07
6.98934e-08
5.84625e-07
-4.96661e-07
5.66658e-07
-1.04006e-06
5.43506e-07
-1.55567e-06
5.15725e-07
-2.04509e-06
4.89524e-07
-2.51297e-06
4.6797e-07
-2.96349e-06
4.50599e-07
-3.40335e-06
4.39925e-07
-3.83272e-06
4.29437e-07
-4.24633e-06
4.13675e-07
-4.63961e-06
3.93366e-07
-5.00857e-06
3.69055e-07
-5.36086e-06
3.52386e-07
-5.70122e-06
3.40437e-07
-6.03085e-06
3.29676e-07
-6.34857e-06
3.17718e-07
-6.6516e-06
3.02981e-07
-6.93723e-06
2.85576e-07
-7.20916e-06
2.71891e-07
-7.47168e-06
2.62504e-07
-7.7278e-06
2.56144e-07
-7.97238e-06
2.44631e-07
-8.1956e-06
2.2328e-07
-8.4039e-06
2.08366e-07
-8.60205e-06
1.98211e-07
-8.79069e-06
1.887e-07
-8.97326e-06
1.82614e-07
-9.15064e-06
1.77403e-07
-9.31724e-06
1.66607e-07
-9.469e-06
1.5174e-07
-9.60518e-06
1.36164e-07
-9.73116e-06
1.25965e-07
-9.84851e-06
1.17377e-07
-9.95926e-06
1.10813e-07
-1.00659e-05
1.06746e-07
-1.01655e-05
9.96901e-08
-1.02552e-05
8.97739e-08
-1.03327e-05
7.7581e-08
-1.03993e-05
6.66013e-08
-1.04578e-05
5.84345e-08
-1.05102e-05
5.23454e-08
-1.05598e-05
4.95927e-08
-1.06051e-05
4.53253e-08
-1.06426e-05
3.74686e-08
-1.06697e-05
2.71971e-08
-1.0687e-05
1.7351e-08
-1.06973e-05
1.03845e-08
-1.07031e-05
5.80023e-09
-1.07044e-05
1.39041e-09
-1.0701e-05
-3.45106e-09
-1.06929e-05
-8.12918e-09
-1.0681e-05
-1.19619e-08
-1.06646e-05
-1.6382e-08
-1.06427e-05
-2.19689e-08
-1.06125e-05
-3.02075e-08
-1.05756e-05
-3.68926e-08
-1.0535e-05
-4.06744e-08
-1.04916e-05
-4.34045e-08
-1.04478e-05
-4.38307e-08
-1.04031e-05
-4.46378e-08
-1.03512e-05
-5.1945e-08
-1.02899e-05
-6.12686e-08
-1.02254e-05
-6.46113e-08
-1.01589e-05
-6.65225e-08
-1.00907e-05
-6.82029e-08
-1.00219e-05
-6.87581e-08
-9.95002e-06
-7.19494e-08
-9.87259e-06
-7.7458e-08
-9.79045e-06
-8.21727e-08
-9.70515e-06
-8.5335e-08
-9.61839e-06
-8.68024e-08
-9.53e-06
-8.84291e-08
-9.4383e-06
-9.1744e-08
-9.34311e-06
-9.52053e-08
-9.24364e-06
-9.94892e-08
-9.14005e-06
-1.03598e-07
-9.03489e-06
-1.05167e-07
-8.93035e-06
-1.04542e-07
-8.82587e-06
-1.04486e-07
-8.71824e-06
-1.07644e-07
-8.60308e-06
-1.15176e-07
-8.48381e-06
-1.19279e-07
-8.36276e-06
-1.21073e-07
-8.23959e-06
-1.23195e-07
-8.11452e-06
-1.251e-07
-7.98922e-06
-1.25334e-07
-7.8638e-06
-1.2547e-07
-7.73537e-06
-1.28465e-07
-7.60183e-06
-1.33576e-07
-7.46429e-06
-1.37565e-07
-7.32423e-06
-1.40083e-07
-7.18162e-06
-1.42627e-07
-7.03608e-06
-1.45556e-07
-6.88877e-06
-1.4733e-07
-6.7424e-06
-1.46393e-07
-6.59528e-06
-1.47136e-07
-6.44249e-06
-1.52804e-07
-6.28432e-06
-1.5818e-07
-6.12424e-06
-1.60087e-07
-5.96216e-06
-1.6208e-07
-5.7974e-06
-1.64751e-07
-5.63042e-06
-1.66969e-07
-5.4633e-06
-1.67102e-07
-5.29414e-06
-1.69155e-07
-5.12091e-06
-1.73225e-07
-4.94356e-06
-1.77344e-07
-4.76325e-06
-1.80299e-07
-4.58022e-06
-1.83023e-07
-4.39514e-06
-1.85072e-07
-4.20971e-06
-1.85424e-07
-4.02264e-06
-1.87064e-07
-3.83319e-06
-1.89446e-07
-3.64099e-06
-1.92206e-07
-3.44593e-06
-1.95073e-07
-3.24926e-06
-1.96687e-07
-3.05359e-06
-1.95691e-07
-2.85841e-06
-1.9519e-07
-2.66274e-06
-1.95678e-07
-2.46624e-06
-1.96507e-07
-2.27053e-06
-1.95724e-07
-2.07752e-06
-1.9303e-07
-1.88739e-06
-1.90143e-07
-1.69986e-06
-1.87547e-07
-1.5152e-06
-1.84684e-07
-1.33491e-06
-1.80302e-07
-1.16056e-06
-1.74366e-07
-9.92612e-07
-1.67963e-07
-8.30961e-07
-1.61673e-07
-6.75335e-07
-1.55652e-07
-5.25888e-07
-1.49476e-07
-3.83024e-07
-1.42889e-07
-2.47017e-07
-1.36025e-07
-1.17856e-07
-1.29172e-07
4.58039e-09
-1.22442e-07
1.20674e-07
-1.16101e-07
2.30695e-07
-1.10032e-07
3.34823e-07
-1.04146e-07
4.33402e-07
-9.85992e-08
5.26886e-07
-9.35012e-08
6.15595e-07
-8.87175e-08
6.99554e-07
-8.39567e-08
7.78958e-07
-7.93936e-08
8.54329e-07
-7.53581e-08
9.26171e-07
-7.18353e-08
9.94781e-07
-6.86149e-08
1.06018e-06
-6.54175e-08
1.12236e-06
-6.22017e-08
1.18141e-06
-5.90833e-08
1.23784e-06
-5.64576e-08
1.29216e-06
-5.43474e-08
1.34475e-06
-5.26119e-08
1.39565e-06
-5.09156e-08
1.44494e-06
-4.93023e-08
1.49276e-06
-4.78354e-08
1.53928e-06
-4.65222e-08
1.58463e-06
-4.5356e-08
1.62898e-06
-4.43496e-08
1.67257e-06
-4.35876e-08
1.71558e-06
-4.30118e-08
1.75806e-06
-4.24793e-08
1.80006e-06
-4.20045e-08
1.84164e-06
-4.15734e-08
1.88281e-06
-4.11812e-08
1.92361e-06
-4.08028e-08
1.96407e-06
-4.04734e-08
2.00438e-06
-4.03145e-08
2.04459e-06
-4.02253e-08
2.08469e-06
-4.01133e-08
2.12466e-06
-3.99716e-08
2.16437e-06
-3.97055e-08
2.20382e-06
-3.94439e-08
2.24308e-06
-3.92349e-08
2.28213e-06
-3.90246e-08
2.32093e-06
-3.87753e-08
2.35944e-06
-3.84956e-08
2.39763e-06
-3.81867e-08
2.43532e-06
-3.76946e-08
2.47222e-06
-3.69268e-08
2.50837e-06
-3.61706e-08
2.54399e-06
-3.56433e-08
2.57929e-06
-3.5316e-08
2.61407e-06
-3.47877e-08
2.64782e-06
-3.37441e-08
2.68037e-06
-3.25375e-08
2.71209e-06
-3.17179e-08
2.74316e-06
-3.10647e-08
2.77351e-06
-3.03471e-08
2.80291e-06
-2.93849e-08
2.83109e-06
-2.81746e-08
2.85816e-06
-2.70653e-08
2.88387e-06
-2.57026e-08
2.908e-06
-2.41407e-08
2.93096e-06
-2.29895e-08
2.95329e-06
-2.23725e-08
2.97471e-06
-2.14713e-08
2.99482e-06
-2.01536e-08
3.01355e-06
-1.87488e-08
3.03092e-06
-1.73701e-08
3.04686e-06
-1.59219e-08
3.06165e-06
-1.47566e-08
3.07546e-06
-1.37769e-08
3.08793e-06
-1.24488e-08
3.09885e-06
-1.08982e-08
3.10844e-06
-9.56868e-09
3.1171e-06
-8.6455e-09
3.12479e-06
-7.66326e-09
3.13131e-06
-6.49108e-09
3.13674e-06
-5.4078e-09
3.14111e-06
-4.37801e-09
3.144e-06
-2.92366e-09
3.14552e-06
-1.57283e-09
3.14602e-06
-5.67106e-10
3.14558e-06
3.67054e-10
3.14462e-06
9.13217e-10
3.14297e-06
1.62709e-09
3.14074e-06
2.22044e-09
3.13653e-06
4.21379e-09
3.13058e-06
5.95849e-09
3.12397e-06
6.624e-09
3.11816e-06
5.82971e-09
3.11116e-06
7.00736e-09
3.10298e-06
8.1864e-09
3.09319e-06
9.79963e-09
3.08248e-06
1.07142e-08
3.07284e-06
9.63289e-09
3.06204e-06
1.07881e-08
3.05164e-06
1.03801e-08
3.03982e-06
1.18038e-08
3.02738e-06
1.24226e-08
3.01721e-06
1.015e-08
3.00661e-06
1.05946e-08
2.99208e-06
1.45283e-08
2.98141e-06
1.06713e-08
2.96427e-06
1.71405e-08
2.94577e-06
1.85009e-08
2.94188e-06
3.89303e-09
2.93531e-06
6.57384e-09
2.92125e-06
1.40671e-08
2.92223e-06
-9.73452e-10
2.88462e-06
3.7607e-08
2.81231e-06
7.23144e-08
2.69145e-06
1.20851e-07
2.57645e-06
1.15005e-07
2.51087e-06
6.55727e-08
2.45404e-06
5.68325e-08
2.41515e-06
3.89024e-08
2.38016e-06
3.49955e-08
2.34686e-06
3.33156e-08
2.3126e-06
3.42785e-08
2.27975e-06
3.28664e-08
2.25196e-06
2.78053e-08
2.22743e-06
2.4539e-08
2.20552e-06
2.19155e-08
2.20656e-06
-1.04046e-09
2.18626e-06
2.02998e-08
2.14031e-06
4.59478e-08
2.13067e-06
9.64271e-09
2.08277e-06
4.7898e-08
2.00235e-06
8.04257e-08
1.89283e-06
1.09513e-07
1.86764e-06
2.519e-08
1.92521e-06
-5.75847e-08
1.9395e-06
-1.42934e-08
1.95122e-06
-1.17322e-08
1.93925e-06
1.19569e-08
1.92704e-06
1.2196e-08
1.89976e-06
2.72509e-08
1.874e-06
2.57378e-08
1.83083e-06
4.31265e-08
1.7986e-06
3.21989e-08
1.76848e-06
3.00795e-08
1.73774e-06
3.07086e-08
1.70587e-06
3.18317e-08
1.68282e-06
2.30229e-08
1.59119e-06
9.15936e-08
1.51434e-06
7.68242e-08
1.43542e-06
7.89156e-08
1.30442e-06
1.31024e-07
1.29258e-06
1.19654e-08
1.15889e-06
1.34059e-07
1.33551e-06
-1.76041e-07
1.7978e-06
-4.61229e-07
2.35228e-06
-5.52602e-07
2.87062e-06
-5.16627e-07
3.36005e-06
-4.87891e-07
3.75754e-06
-3.96107e-07
4.05001e-06
-2.91219e-07
4.24101e-06
-1.89867e-07
4.37576e-06
-1.33729e-07
4.48133e-06
-1.04646e-07
4.57191e-06
-8.97522e-08
4.63123e-06
-5.85874e-08
4.66481e-06
-3.29367e-08
4.68978e-06
-2.4395e-08
4.70833e-06
-1.80357e-08
4.73008e-06
-2.12741e-08
4.7487e-06
-1.81908e-08
4.75355e-06
-4.44442e-09
4.75001e-06
3.90487e-09
4.74736e-06
2.98126e-09
4.74563e-06
2.04027e-09
4.74217e-06
3.73536e-09
4.73693e-06
5.50407e-09
4.73658e-06
5.92859e-10
4.74116e-06
-4.35886e-09
4.74301e-06
-1.63627e-09
4.73758e-06
5.63225e-09
4.73093e-06
6.83697e-09
4.72604e-06
5.05483e-09
4.72717e-06
-9.66921e-10
4.73223e-06
-4.90589e-09
4.73991e-06
-7.5351e-09
4.75217e-06
-1.21395e-08
4.76597e-06
-1.3687e-08
4.77763e-06
-1.15724e-08
4.78691e-06
-9.19313e-09
4.80052e-06
-1.35478e-08
4.82385e-06
-2.32788e-08
4.85868e-06
-3.47859e-08
4.90281e-06
-4.40979e-08
4.95107e-06
-4.82343e-08
5.00192e-06
-5.08353e-08
5.05415e-06
-5.22036e-08
5.11141e-06
-5.72357e-08
5.1743e-06
-6.2862e-08
5.24084e-06
-6.65189e-08
5.31306e-06
-7.21939e-08
5.39244e-06
-7.93689e-08
5.47809e-06
-8.56477e-08
5.56722e-06
-8.91371e-08
5.65787e-06
-9.06495e-08
5.74927e-06
-9.14112e-08
5.84228e-06
-9.30202e-08
5.93903e-06
-9.67562e-08
6.04091e-06
-1.01894e-07
6.14914e-06
-1.08242e-07
6.26344e-06
-1.14317e-07
6.38271e-06
-1.19292e-07
6.50631e-06
-1.23619e-07
6.63373e-06
-1.27449e-07
6.76475e-06
-1.31041e-07
6.89937e-06
-1.34649e-07
7.03822e-06
-1.38876e-07
7.18134e-06
-1.43152e-07
7.32807e-06
-1.46748e-07
7.47778e-06
-1.49732e-07
7.62919e-06
-1.5143e-07
7.78329e-06
-1.54134e-07
7.93949e-06
-1.56258e-07
8.09996e-06
-1.60546e-07
8.26297e-06
-1.63107e-07
8.42725e-06
-1.64371e-07
8.59353e-06
-1.66338e-07
8.76091e-06
-1.67408e-07
8.92974e-06
-1.68838e-07
9.10045e-06
-1.70703e-07
9.27358e-06
-1.73143e-07
9.45482e-06
-1.81276e-07
9.64272e-06
-1.87945e-07
9.84019e-06
-1.97505e-07
1.00426e-05
-2.02476e-07
-2.18668e-07
1.45201e-06
1.32678e-05
5.9989e-07
4.97173e-06
-1.23089e-06
2.81378e-06
8.78301e-08
-3.23957e-06
3.26507e-06
-8.28374e-06
7.46423e-06
-9.79089e-06
1.14461e-05
-9.34377e-06
1.52666e-05
-8.99902e-06
1.87478e-05
-8.7035e-06
2.13159e-05
-7.5368e-06
2.25723e-05
-4.98515e-06
2.32813e-05
-3.36053e-06
2.4149e-05
-3.01049e-06
2.56516e-05
-3.47006e-06
2.79567e-05
-4.58599e-06
3.09527e-05
-5.14926e-06
3.39478e-05
-5.282e-06
3.63968e-05
-4.96823e-06
3.80943e-05
-3.6209e-06
3.87128e-05
-1.01187e-06
3.77377e-05
2.02606e-06
3.55461e-05
3.88735e-06
3.24744e-05
5.59167e-06
2.90206e-05
7.24626e-06
2.60767e-05
7.71003e-06
2.43287e-05
5.97084e-06
2.42523e-05
2.60824e-06
2.52364e-05
-2.00366e-07
2.59586e-05
-1.23679e-06
2.63284e-05
-1.37804e-06
2.64184e-05
-6.05059e-07
2.52927e-05
1.65673e-06
2.29176e-05
4.08777e-06
1.94784e-05
5.75571e-06
1.53841e-05
7.11418e-06
1.15545e-05
8.87013e-06
7.9103e-06
9.11491e-06
4.4915e-06
7.66552e-06
1.17917e-06
6.8474e-06
-1.2201e-06
5.01086e-06
-2.5667e-06
2.43238e-06
-3.61257e-06
1.55599e-06
-4.67812e-06
1.70582e-06
-5.87117e-06
2.71699e-06
-6.93132e-06
2.86743e-06
-7.77357e-06
1.57928e-06
-7.96609e-06
-3.03465e-08
-7.98071e-06
-3.61236e-07
-7.99982e-06
8.77939e-08
-8.27113e-06
1.24168e-06
-8.66195e-06
1.32667e-06
-9.05378e-06
6.05946e-07
-8.87035e-06
-8.49054e-07
-8.0726e-06
-1.8796e-06
-7.03938e-06
-2.33929e-06
-5.98262e-06
-2.46932e-06
-5.09999e-06
-2.31009e-06
-4.6932e-06
-1.67376e-06
-4.55954e-06
-1.13957e-06
-4.29991e-06
-7.18549e-07
-3.68927e-06
-4.92793e-07
-2.65159e-06
-4.96276e-07
-1.65722e-06
-3.32841e-07
-1.29578e-06
1.40448e-07
-1.48519e-06
4.17277e-07
-1.82398e-06
3.27637e-07
-2.08003e-06
-5.41309e-08
-1.93679e-06
-9.44649e-07
-1.13597e-06
-2.21258e-06
8.5795e-08
-3.08961e-06
1.4711e-06
-3.5184e-06
2.8025e-06
-3.39627e-06
3.65685e-06
-2.65941e-06
4.22571e-06
-2.12679e-06
4.84145e-06
-2.05395e-06
5.81074e-06
-2.42945e-06
7.23402e-06
-2.81481e-06
9.38772e-06
-2.49473e-06
1.12514e-05
-1.42423e-06
1.29025e-05
-1.46174e-06
1.3841e-05
-3.20933e-07
1.3805e-05
5.18944e-07
1.38068e-05
4.48994e-07
1.32072e-05
7.96107e-07
1.26407e-05
6.01946e-07
1.20964e-05
7.44139e-07
1.15456e-05
7.11619e-07
1.1328e-05
1.51706e-07
1.14729e-05
-3.58234e-07
1.13999e-05
-1.27962e-07
1.14555e-05
-3.31017e-07
1.1672e-05
-5.09411e-07
1.1845e-05
-3.48112e-07
1.19939e-05
-2.77886e-07
1.22149e-05
-2.13092e-07
1.23382e-05
-9.51323e-08
1.25284e-05
-3.21792e-08
1.26347e-05
1.30617e-07
1.31257e-05
5.34748e-07
1.34777e-05
1.46883e-06
1.35385e-05
1.43807e-06
1.26038e-05
1.56007e-06
1.06627e-05
1.76942e-06
9.12339e-06
1.37313e-06
8.1141e-06
4.5406e-07
7.69618e-06
-2.49619e-07
7.68783e-06
-4.52282e-07
7.79557e-06
-3.40318e-07
8.38926e-06
-8.47323e-07
9.26416e-06
-1.27428e-06
9.88521e-06
-9.72624e-07
1.02786e-05
-7.87845e-07
1.05874e-05
-6.60767e-07
1.0803e-05
-4.86152e-07
1.11324e-05
-3.6728e-07
1.14825e-05
-2.76158e-07
1.20228e-05
1.01614e-07
1.23712e-05
5.2668e-07
1.24121e-05
4.10045e-07
1.17325e-05
5.71899e-07
1.0731e-05
5.81505e-07
1.02066e-05
2.28967e-07
1.01344e-05
-4.32544e-07
1.0324e-05
-7.61384e-07
1.05398e-05
-6.01576e-07
1.10207e-05
-8.27597e-07
1.15858e-05
-9.10684e-07
1.19736e-05
-7.03525e-07
1.23013e-05
-6.73564e-07
1.25992e-05
-6.51381e-07
1.28647e-05
-5.85534e-07
1.31567e-05
-5.86417e-07
1.34585e-05
-5.69438e-07
1.37409e-05
-5.40689e-07
1.40017e-05
-5.15355e-07
1.4247e-05
-4.95876e-07
1.44821e-05
-4.76772e-07
1.46999e-05
-4.43661e-07
1.49109e-05
-4.23977e-07
1.51137e-05
-4.03497e-07
1.53009e-05
-3.72507e-07
1.54668e-05
-3.27745e-07
1.56111e-05
-2.82503e-07
1.57355e-05
-2.4328e-07
1.58423e-05
-2.10284e-07
1.59315e-05
-1.79808e-07
1.59982e-05
-1.38413e-07
1.60392e-05
-8.65113e-08
1.60593e-05
-3.45703e-08
1.60614e-05
2.69224e-10
1.60467e-05
2.85205e-08
1.60094e-05
7.02872e-08
1.59449e-05
1.22243e-07
1.58594e-05
1.6877e-07
1.57575e-05
2.07694e-07
1.56364e-05
2.46838e-07
1.54911e-05
2.899e-07
1.53188e-05
3.39076e-07
1.51228e-05
3.86164e-07
1.49061e-05
4.29293e-07
1.46711e-05
4.68594e-07
1.44162e-05
5.09928e-07
1.41393e-05
5.52271e-07
1.38366e-05
6.02718e-07
1.3504e-05
6.62952e-07
1.31473e-05
7.09698e-07
1.27723e-05
7.454e-07
1.23758e-05
7.87366e-07
1.19494e-05
8.47713e-07
1.14949e-05
9.12517e-07
1.10158e-05
9.58579e-07
1.05171e-05
9.9135e-07
9.99799e-06
1.03052e-06
9.45704e-06
1.07464e-06
8.89368e-06
1.12989e-06
8.3026e-06
1.1951e-06
7.69006e-06
1.23803e-06
7.05877e-06
1.26787e-06
6.41829e-06
1.27951e-06
5.77753e-06
1.28108e-06
5.13351e-06
1.29353e-06
4.48679e-06
1.30283e-06
3.83685e-06
1.31144e-06
3.18127e-06
1.32393e-06
2.52953e-06
1.31072e-06
1.89241e-06
1.2717e-06
1.27823e-06
1.22528e-06
6.86133e-07
1.18875e-06
1.11981e-07
1.159e-06
-4.47138e-07
1.12599e-06
-9.91506e-07
1.08808e-06
-1.51745e-06
1.04187e-06
-2.01916e-06
9.9143e-07
-2.49609e-06
9.4507e-07
-2.95338e-06
9.08039e-07
-3.3948e-06
8.81478e-07
-3.82167e-06
8.56414e-07
-4.23337e-06
8.2546e-07
-4.62694e-06
7.87005e-07
-5.00209e-06
7.44249e-07
-5.36041e-06
7.10755e-07
-5.70498e-06
6.85059e-07
-6.03649e-06
6.6125e-07
-6.3532e-06
6.34502e-07
-6.65428e-06
6.04151e-07
-6.94208e-06
5.73478e-07
-7.2185e-06
5.48409e-07
-7.48476e-06
5.28862e-07
-7.73897e-06
5.10446e-07
-7.97888e-06
4.84635e-07
-8.20351e-06
4.47993e-07
-8.41523e-06
4.20167e-07
-8.61625e-06
3.99293e-07
-8.80747e-06
3.79962e-07
-8.98975e-06
3.64901e-07
-9.16332e-06
3.50962e-07
-9.32641e-06
3.29686e-07
-9.47837e-06
3.03704e-07
-9.61717e-06
2.74992e-07
-9.74577e-06
2.54628e-07
-9.86559e-06
2.37278e-07
-9.97679e-06
2.22105e-07
-1.00801e-05
2.10099e-07
-1.01757e-05
1.95358e-07
-1.02638e-05
1.77887e-07
-1.03431e-05
1.56823e-07
-1.04122e-05
1.35646e-07
-1.04727e-05
1.18885e-07
-1.05264e-05
1.05931e-07
-1.05746e-05
9.77842e-08
-1.06172e-05
8.80032e-08
-1.06521e-05
7.2387e-08
-1.06776e-05
5.27099e-08
-1.06951e-05
3.4866e-08
-1.07063e-05
2.15672e-08
-1.07119e-05
1.14078e-08
-1.07136e-05
3.08946e-09
-1.07122e-05
-4.95886e-09
-1.0706e-05
-1.4342e-08
-1.06936e-05
-2.44345e-08
-1.06738e-05
-3.62436e-08
-1.06469e-05
-4.89211e-08
-1.06159e-05
-6.1229e-08
-1.05814e-05
-7.14645e-08
-1.05433e-05
-7.87849e-08
-1.05019e-05
-8.48096e-08
-1.04573e-05
-8.84563e-08
-1.04078e-05
-9.42237e-08
-1.03532e-05
-1.06543e-07
-1.02935e-05
-1.21007e-07
-1.02307e-05
-1.27477e-07
-1.01661e-05
-1.311e-07
-1.00992e-05
-1.35218e-07
-1.00282e-05
-1.39742e-07
-9.95267e-06
-1.47561e-07
-9.87299e-06
-1.57199e-07
-9.79088e-06
-1.64357e-07
-9.7074e-06
-1.68881e-07
-9.62297e-06
-1.71298e-07
-9.53522e-06
-1.76237e-07
-9.44147e-06
-1.85532e-07
-9.34393e-06
-1.92773e-07
-9.24417e-06
-1.99265e-07
-9.14213e-06
-2.05659e-07
-9.03823e-06
-2.09091e-07
-8.93336e-06
-2.09439e-07
-8.82642e-06
-2.11452e-07
-8.71605e-06
-2.18053e-07
-8.60112e-06
-2.30146e-07
-8.48282e-06
-2.37624e-07
-8.3626e-06
-2.41346e-07
-8.24085e-06
-2.44995e-07
-8.11709e-06
-2.48908e-07
-7.99034e-06
-2.52145e-07
-7.86084e-06
-2.55026e-07
-7.72919e-06
-2.60176e-07
-7.59578e-06
-2.67038e-07
-7.45981e-06
-2.7358e-07
-7.32079e-06
-2.79141e-07
-7.1786e-06
-2.84843e-07
-7.03331e-06
-2.90876e-07
-6.88616e-06
-2.94495e-07
-6.73814e-06
-2.94428e-07
-6.58766e-06
-2.97622e-07
-6.43373e-06
-3.06741e-07
-6.27583e-06
-3.16086e-07
-6.11617e-06
-3.19754e-07
-5.95516e-06
-3.23091e-07
-5.79159e-06
-3.28327e-07
-5.62437e-06
-3.34184e-07
-5.45463e-06
-3.36836e-07
-5.28222e-06
-3.4156e-07
-5.10704e-06
-3.48391e-07
-4.93035e-06
-3.54031e-07
-4.75191e-06
-3.58733e-07
-4.5706e-06
-3.64346e-07
-4.38544e-06
-3.70244e-07
-4.19715e-06
-3.73724e-07
-4.00718e-06
-3.77047e-07
-3.81751e-06
-3.79136e-07
-3.62732e-06
-3.8241e-07
-3.43459e-06
-3.87811e-07
-3.23878e-06
-3.92512e-07
-3.04185e-06
-3.92638e-07
-2.84596e-06
-3.91111e-07
-2.65207e-06
-3.89597e-07
-2.45826e-06
-3.90346e-07
-2.26374e-06
-3.90282e-07
-2.07065e-06
-3.8615e-07
-1.8811e-06
-3.7973e-07
-1.69575e-06
-3.72937e-07
-1.51364e-06
-3.66837e-07
-1.33501e-06
-3.58973e-07
-1.16113e-06
-3.48291e-07
-9.93415e-07
-3.3571e-07
-8.32844e-07
-3.22273e-07
-6.78521e-07
-3.09998e-07
-5.29679e-07
-2.98336e-07
-3.86858e-07
-2.85723e-07
-2.50668e-07
-2.72226e-07
-1.21276e-07
-2.58572e-07
1.33714e-09
-2.4506e-07
1.17641e-07
-2.32403e-07
2.27986e-07
-2.20369e-07
3.32664e-07
-2.0881e-07
4.31859e-07
-1.97776e-07
5.25785e-07
-1.8741e-07
6.14651e-07
-1.77574e-07
6.98667e-07
-1.67972e-07
7.78255e-07
-1.58992e-07
8.53829e-07
-1.5095e-07
9.25779e-07
-1.43807e-07
9.94288e-07
-1.37143e-07
1.05948e-06
-1.30628e-07
1.12155e-06
-1.24276e-07
1.1807e-06
-1.18232e-07
1.23719e-06
-1.12944e-07
1.29134e-06
-1.08495e-07
1.34377e-06
-1.0504e-07
1.39467e-06
-1.01817e-07
1.44403e-06
-9.8671e-08
1.4919e-06
-9.5708e-08
1.53837e-06
-9.29832e-08
1.5835e-06
-9.04844e-08
1.62745e-06
-8.82891e-08
1.67066e-06
-8.67807e-08
1.71348e-06
-8.58183e-08
1.75591e-06
-8.48956e-08
1.79794e-06
-8.40296e-08
1.83959e-06
-8.32147e-08
1.88087e-06
-8.24466e-08
1.92177e-06
-8.17021e-08
1.96235e-06
-8.10493e-08
2.00277e-06
-8.07386e-08
2.0431e-06
-8.05478e-08
2.08331e-06
-8.03211e-08
2.12338e-06
-8.00396e-08
2.16313e-06
-7.94451e-08
2.20257e-06
-7.88844e-08
2.24186e-06
-7.85268e-08
2.28101e-06
-7.81743e-08
2.31994e-06
-7.77108e-08
2.35856e-06
-7.71151e-08
2.39678e-06
-7.64101e-08
2.43452e-06
-7.54241e-08
2.47171e-06
-7.41039e-08
2.50839e-06
-7.28257e-08
2.54448e-06
-7.17173e-08
2.58002e-06
-7.08451e-08
2.61481e-06
-6.95593e-08
2.64845e-06
-6.7378e-08
2.68099e-06
-6.50746e-08
2.71283e-06
-6.35507e-08
2.74408e-06
-6.23209e-08
2.77461e-06
-6.08796e-08
2.80408e-06
-5.88664e-08
2.83212e-06
-5.62342e-08
2.85887e-06
-5.38341e-08
2.88451e-06
-5.1368e-08
2.90931e-06
-4.89398e-08
2.93303e-06
-4.67045e-08
2.95551e-06
-4.48331e-08
2.97669e-06
-4.2633e-08
2.99652e-06
-3.9951e-08
3.01492e-06
-3.71336e-08
3.03215e-06
-3.4598e-08
3.04821e-06
-3.19876e-08
3.06307e-06
-2.96333e-08
3.07667e-06
-2.73845e-08
3.08895e-06
-2.47163e-08
3.10005e-06
-2.19794e-08
3.11001e-06
-1.94937e-08
3.1188e-06
-1.7391e-08
3.12623e-06
-1.50584e-08
3.13237e-06
-1.26068e-08
3.13736e-06
-1.03851e-08
3.14146e-06
-8.47718e-09
3.14461e-06
-6.07945e-09
3.14669e-06
-3.65554e-09
3.14725e-06
-1.11785e-09
3.14637e-06
1.25154e-09
3.14481e-06
2.494e-09
3.14274e-06
3.72326e-09
3.13992e-06
5.05879e-09
3.13579e-06
8.36519e-09
3.13098e-06
1.07817e-08
3.12507e-06
1.25429e-08
3.11929e-06
1.16203e-08
3.11222e-06
1.40817e-08
3.10363e-06
1.67865e-08
3.09422e-06
1.92013e-08
3.08402e-06
2.091e-08
3.07363e-06
2.00041e-08
3.06279e-06
2.16039e-08
3.05436e-06
1.87813e-08
3.04511e-06
2.10301e-08
3.03176e-06
2.57605e-08
3.01919e-06
2.27007e-08
3.00032e-06
2.94611e-08
2.98375e-06
3.1097e-08
2.98014e-06
1.42806e-08
2.97815e-06
1.91323e-08
2.97208e-06
2.45779e-08
2.96739e-06
8.58888e-09
2.92332e-06
5.06557e-08
2.84222e-06
9.51668e-08
2.72516e-06
1.16094e-07
2.62716e-06
1.35606e-07
2.56174e-06
1.37738e-07
2.51654e-06
1.66058e-07
2.49939e-06
1.32164e-07
2.46811e-06
9.68675e-08
2.43847e-06
8.64886e-08
2.40094e-06
7.64576e-08
2.36957e-06
6.63855e-08
2.33682e-06
6.60915e-08
2.30824e-06
6.28937e-08
2.28073e-06
6.04045e-08
2.26942e-06
3.91415e-08
2.24265e-06
5.1332e-08
2.18803e-06
7.65455e-08
2.15434e-06
3.26617e-08
2.09699e-06
7.7657e-08
2.03573e-06
1.07214e-07
1.94834e-06
9.70456e-08
1.9534e-06
4.28475e-08
2.02089e-06
1.29538e-08
2.06067e-06
6.97476e-08
2.06503e-06
2.08515e-08
2.02355e-06
-1.60877e-08
1.99768e-06
1.15875e-08
1.9655e-06
2.0469e-08
1.93365e-06
4.38185e-08
1.91001e-06
3.58545e-08
1.88922e-06
4.80592e-08
1.87322e-06
4.17724e-08
1.86097e-06
5.53999e-08
1.84755e-06
4.56559e-08
1.82879e-06
4.88877e-08
1.73132e-06
1.28221e-07
1.64564e-06
1.17576e-07
1.57566e-06
9.30587e-08
1.47756e-06
1.89739e-07
1.52232e-06
3.20726e-08
1.51723e-06
8.39039e-08
1.96084e-06
-3.12832e-07
2.57581e-06
-6.03673e-07
3.19414e-06
-4.85628e-07
3.64653e-06
-6.30265e-07
3.91501e-06
-7.32471e-07
4.07495e-06
-7.15193e-07
4.17774e-06
-6.21914e-07
4.24242e-06
-5.54893e-07
4.33297e-06
-4.8879e-07
4.4416e-06
-4.01811e-07
4.54082e-06
-2.90886e-07
4.61568e-06
-2.10229e-07
4.67315e-06
-1.636e-07
4.71496e-06
-1.32914e-07
4.75002e-06
-9.48702e-08
4.78122e-06
-6.5243e-08
4.80641e-06
-5.05859e-08
4.82713e-06
-3.96503e-08
4.84275e-06
-3.77071e-08
4.84859e-06
-2.47729e-08
4.84861e-06
-5.13513e-09
4.84743e-06
4.47241e-09
4.84602e-06
3.84312e-09
4.845e-06
2.56113e-09
4.84189e-06
6.40502e-09
4.83901e-06
7.99791e-09
4.83751e-06
1.74684e-09
4.8357e-06
-2.84708e-09
4.83403e-06
-2.28901e-10
4.83301e-06
6.41891e-09
4.83318e-06
6.4671e-09
4.83484e-06
3.20886e-09
4.83745e-06
-3.74817e-09
4.84371e-06
-1.13135e-08
4.8541e-06
-1.80685e-08
4.86666e-06
-2.48232e-08
4.88033e-06
-2.74775e-08
4.89445e-06
-2.58038e-08
4.91045e-06
-2.53004e-08
4.93133e-06
-3.45208e-08
4.95714e-06
-4.91785e-08
4.99027e-06
-6.79918e-08
5.02796e-06
-8.18479e-08
5.06946e-06
-8.97808e-08
5.1159e-06
-9.73274e-08
5.1678e-06
-1.04152e-07
5.22614e-06
-1.15614e-07
5.28969e-06
-1.26468e-07
5.3573e-06
-1.34194e-07
5.42837e-06
-1.43328e-07
5.50365e-06
-1.54721e-07
5.5832e-06
-1.65262e-07
5.66697e-06
-1.72979e-07
5.755e-06
-1.78758e-07
5.8479e-06
-1.84377e-07
5.94583e-06
-1.91015e-07
6.04821e-06
-1.99192e-07
6.1551e-06
-2.08829e-07
6.26581e-06
-2.19001e-07
6.38071e-06
-2.29252e-07
6.50046e-06
-2.39076e-07
6.6247e-06
-2.47882e-07
6.75288e-06
-2.55647e-07
6.88467e-06
-2.62845e-07
7.02033e-06
-2.70302e-07
7.15995e-06
-2.78489e-07
7.30344e-06
-2.86612e-07
7.45004e-06
-2.93309e-07
7.59931e-06
-2.98947e-07
7.75102e-06
-3.03089e-07
7.90593e-06
-3.0902e-07
8.06473e-06
-3.15047e-07
8.22606e-06
-3.2188e-07
8.38904e-06
-3.26092e-07
8.55368e-06
-3.28979e-07
8.71978e-06
-3.32371e-07
8.88884e-06
-3.36379e-07
9.0592e-06
-3.39087e-07
9.23091e-06
-3.42332e-07
9.40443e-06
-3.46591e-07
9.57806e-06
-3.54832e-07
9.75243e-06
-3.62249e-07
9.92497e-06
-3.69989e-07
1.00975e-05
-3.74946e-07
-3.82515e-07
4.26976e-06
1.39691e-05
4.01228e-06
5.22893e-06
3.75101e-06
3.07489e-06
5.10285e-06
-4.5915e-06
6.95665e-06
-1.01375e-05
9.01115e-06
-1.18453e-05
1.16313e-05
-1.19639e-05
1.41276e-05
-1.14952e-05
1.58217e-05
-1.03974e-05
1.60944e-05
-7.80946e-06
1.54274e-05
-4.31806e-06
1.50706e-05
-3.0036e-06
1.52369e-05
-3.17682e-06
1.59773e-05
-4.21038e-06
1.67656e-05
-5.37416e-06
1.73847e-05
-5.76831e-06
1.73694e-05
-5.26662e-06
1.65459e-05
-4.14478e-06
1.54646e-05
-2.53952e-06
1.4324e-05
1.28712e-07
1.32989e-05
3.05124e-06
1.19295e-05
5.25678e-06
1.1056e-05
6.46522e-06
1.12111e-05
7.09122e-06
1.25776e-05
6.34357e-06
1.46587e-05
3.8899e-06
1.64056e-05
8.61371e-07
1.70964e-05
-8.91038e-07
1.68979e-05
-1.03809e-06
1.5985e-05
-4.6512e-07
1.43975e-05
9.82577e-07
1.24999e-05
3.55442e-06
1.02535e-05
6.33424e-06
7.41982e-06
8.58952e-06
4.43213e-06
1.0102e-05
2.39779e-06
1.09047e-05
8.01507e-07
1.07114e-05
-1.34435e-06
9.81164e-06
-3.31136e-06
8.81466e-06
-4.15955e-06
5.85928e-06
-4.81092e-06
3.08396e-06
-5.53857e-06
2.28381e-06
-6.27249e-06
2.43989e-06
-6.90373e-06
3.34835e-06
-7.34162e-06
3.30542e-06
-7.67782e-06
1.91558e-06
-7.8012e-06
9.31323e-08
-7.85038e-06
-3.1195e-07
-7.84615e-06
8.37045e-08
-7.95571e-06
1.35139e-06
-8.18229e-06
1.5534e-06
-8.51156e-06
9.35355e-07
-8.65337e-06
-7.07132e-07
-8.45506e-06
-2.07783e-06
-8.15155e-06
-2.64275e-06
-7.84279e-06
-2.77803e-06
-7.61883e-06
-2.53402e-06
-7.52427e-06
-1.76825e-06
-7.21779e-06
-1.44598e-06
-6.25914e-06
-1.6771e-06
-4.74138e-06
-2.01043e-06
-2.93568e-06
-2.30184e-06
-1.1125e-06
-2.15589e-06
2.51495e-08
-9.9708e-07
2.34099e-07
2.08439e-07
1.50607e-08
5.46773e-07
-3.90996e-07
3.52011e-07
-8.57271e-07
-4.783e-07
-8.21418e-07
-2.24837e-06
-1.85275e-07
-3.72571e-06
6.4029e-07
-4.34395e-06
1.62459e-06
-4.38058e-06
2.63425e-06
-3.6691e-06
3.38691e-06
-2.87949e-06
4.05845e-06
-2.72554e-06
4.69225e-06
-3.06332e-06
5.35701e-06
-3.47967e-06
6.70606e-06
-3.8439e-06
9.03834e-06
-3.75666e-06
1.13907e-05