/*--------------------------------*- C++ -*----------------------------------*\
| =========                 |                                                 |
| \\      /  F ield         | OpenFOAM: The Open Source CFD Toolbox           |
|  \\    /   O peration     | Version:  v2006                                 |
|   \\  /    A nd           | Website:  www.openfoam.com                      |
|    \\/     M anipulation  |                                                 |
\*---------------------------------------------------------------------------*/
FoamFile
{
    version     2.0;
    format      ascii;
    class       volVectorField;
    location    "9.6";
    object      U;
}
// * * * * * * * * * * * * * * * * * * * * * * * * * * * * * * * * * * * * * //

dimensions      [0 1 -1 0 0 0 0];


internalField   nonuniform List<vector> 
33000
(
(-0.032835 0 0.0257476)
(-0.0013557 0 0.00564419)
(-0.0305891 0 -0.00349237)
(-0.0244486 0 -0.0109267)
(-0.0117037 0 -0.0160761)
(-0.000612222 0 -0.0130054)
(0.0155236 0 -0.0149628)
(0.0257185 0 -0.0135474)
(0.0409401 0 -0.0136006)
(0.0525909 0 -0.0139166)
(0.0644964 0 -0.0109343)
(0.0721347 0 -0.00850086)
(0.0781246 0 -0.00678767)
(0.0829956 0 -0.00565846)
(0.0879597 0 -0.00505299)
(0.0935508 0 -0.0030145)
(0.0986308 0 -0.00242616)
(0.10428 0 -0.00319226)
(0.11077 0 -0.00194391)
(0.114885 0 0.00211317)
(0.114238 0 0.0056183)
(0.110429 0 0.00814437)
(0.105134 0 0.00881406)
(0.0986504 0 0.0110369)
(0.085864 0 0.0152496)
(0.0728074 0 0.0121922)
(0.0642337 0 0.0051843)
(0.0604782 0 0.001474)
(0.0603051 0 -0.00177032)
(0.0629511 0 -0.00323106)
(0.065648 0 -0.000882763)
(0.065954 0 0.00232398)
(0.0633058 0 0.00499168)
(0.0578249 0 0.00557299)
(0.0522823 0 0.00826019)
(0.0425847 0 0.0165069)
(0.0263883 0 0.0155576)
(0.0144197 0 0.0095033)
(0.00544458 0 0.00652098)
(-0.00322971 0 0.00451422)
(-0.00744617 0 0.00125201)
(-0.00872939 0 0.000202791)
(-0.00980064 0 0.00082753)
(-0.0121351 0 0.00368686)
(-0.0175129 0 0.00461256)
(-0.0209324 0 0.00122688)
(-0.0211166 0 -0.000980875)
(-0.0199871 0 -0.00120769)
(-0.0190739 0 0.000283711)
(-0.0206967 0 0.00305691)
(-0.0236153 0 0.00277271)
(-0.0253968 0 0.000279563)
(-0.0245142 0 -0.00168565)
(-0.022185 0 -0.00211633)
(-0.0191046 0 -0.00245341)
(-0.0157487 0 -0.00282452)
(-0.0120943 0 -0.00314419)
(-0.0086743 0 -0.00315878)
(-0.00578397 0 -0.0030326)
(-0.00361558 0 -0.00182717)
(-0.00331254 0 0.000415102)
(-0.0043851 0 0.00251825)
(-0.0059699 0 0.00270425)
(-0.00769188 0 0.00161551)
(-0.00846796 0 0.000444408)
(-0.00880132 0 -0.000367511)
(-0.00846252 0 -0.000921156)
(-0.00721706 0 -0.00211551)
(-0.004387 0 -0.00353001)
(-0.000173038 0 -0.00452547)
(0.0047612 0 -0.00512805)
(0.0103725 0 -0.00509493)
(0.0149627 0 -0.00510029)
(0.0193236 0 -0.00497232)
(0.0232673 0 -0.0049117)
(0.0256592 0 -0.0048967)
(0.0330203 0 -0.00343448)
(0.0336821 0 0.00121117)
(0.0312887 0 0.00221185)
(0.0323727 0 0.00205399)
(0.0302303 0 0.0029549)
(0.0291407 0 0.00149012)
(0.0279121 0 0.00182692)
(0.0268537 0 0.000258971)
(0.0269282 0 -2.94211e-05)
(0.0266757 0 -0.000374005)
(0.0259762 0 -0.00040329)
(0.0258063 0 -0.000593056)
(0.0263552 0 -0.00114399)
(0.0268303 0 -0.000677493)
(0.027393 0 -0.00108731)
(0.0281743 0 -0.000804617)
(0.028888 0 -0.000590433)
(0.0290301 0 -0.000144005)
(0.0295443 0 0.000383727)
(0.0289482 0 0.000442978)
(0.0295168 0 0.000865941)
(0.0279341 0 0.00094147)
(0.028708 0 0.00415699)
(0.0225407 0 0.00476217)
(0.0194373 0 0.00277012)
(0.0153835 0 -0.00239965)
(0.0161469 0 -0.00518253)
(0.0162629 0 -0.00292681)
(0.0170437 0 -0.000628938)
(0.0189537 0 0.000947825)
(0.0204173 0 0.000474969)
(0.0212322 0 0.000237002)
(0.0216108 0 -0.000938934)
(0.0225132 0 -0.00166475)
(0.0235604 0 -0.00151732)
(0.0243172 0 -0.00113627)
(0.025509 0 -0.000579664)
(0.0260583 0 -0.000265811)
(0.0269138 0 0.000459807)
(0.0261157 0 0.000736143)
(0.0268432 0 0.00270537)
(0.0227349 0 0.00278603)
(0.0221617 0 0.000812541)
(0.0209616 0 -0.00222544)
(0.0224468 0 -0.00337089)
(0.0230917 0 -0.00174845)
(0.0239867 0 -0.000706785)
(0.0255807 0 -9.95092e-05)
(0.0267899 0 -0.000145548)
(0.0275763 0 -0.000620482)
(0.0284985 0 -0.000990163)
(0.0293002 0 -0.00091586)
(0.0300997 0 -0.000761893)
(0.0310159 0 -0.000615929)
(0.0318623 0 -0.000533437)
(0.032626 0 -0.000544288)
(0.0333274 0 -0.000547809)
(0.033975 0 -0.000546853)
(0.0346182 0 -0.000532251)
(0.0352505 0 -0.000488151)
(0.0358713 0 -0.000447734)
(0.0364575 0 -0.000410834)
(0.0370042 0 -0.000395502)
(0.0375217 0 -0.000381221)
(0.038009 0 -0.000359964)
(0.0384452 0 -0.000311842)
(0.0388181 0 -0.000262818)
(0.0391369 0 -0.000224944)
(0.0394116 0 -0.000200148)
(0.0396548 0 -0.000178202)
(0.0398613 0 -0.000143967)
(0.0400126 0 -9.23089e-05)
(0.0400846 0 -2.4156e-05)
(0.0400899 0 7.66495e-06)
(0.0400723 0 2.58339e-05)
(0.0400187 0 6.07166e-05)
(0.039907 0 0.00010809)
(0.0397302 0 0.00016291)
(0.0394928 0 0.000211414)
(0.0392028 0 0.000250043)
(0.0388671 0 0.000281986)
(0.0384813 0 0.000321348)
(0.0380364 0 0.000368159)
(0.037534 0 0.000417084)
(0.0369784 0 0.000462108)
(0.0363699 0 0.000504528)
(0.0357085 0 0.000543086)
(0.0349972 0 0.000593067)
(0.0342108 0 0.000652589)
(0.0333514 0 0.000696964)
(0.032449 0 0.000733391)
(0.0315022 0 0.000773072)
(0.0304964 0 0.000833308)
(0.0293953 0 0.00091231)
(0.0282107 0 0.00094803)
(0.0269986 0 0.000969924)
(0.025746 0 0.00100528)
(0.0244411 0 0.00105038)
(0.023076 0 0.00112387)
(0.0216056 0 0.00120124)
(0.0200579 0 0.00124227)
(0.018476 0 0.00125258)
(0.0168747 0 0.00125096)
(0.0152799 0 0.00125703)
(0.0136712 0 0.00128282)
(0.0120326 0 0.0013004)
(0.0103909 0 0.0013122)
(0.00872462 0 0.00132304)
(0.00705103 0 0.00129773)
(0.00543095 0 0.00124515)
(0.00387902 0 0.00120138)
(0.0023763 0 0.00118128)
(0.000895804 0 0.00116213)
(-0.000547668 0 0.00112146)
(-0.00193788 0 0.0010672)
(-0.0032637 0 0.0010048)
(-0.00451617 0 0.000954063)
(-0.00571063 0 0.00091477)
(-0.00685535 0 0.000881386)
(-0.00796378 0 0.000863626)
(-0.00905434 0 0.000846432)
(-0.0101098 0 0.000815704)
(-0.0111227 0 0.000774889)
(-0.0120745 0 0.00072206)
(-0.0129694 0 0.000688079)
(-0.0138349 0 0.000665206)
(-0.0146719 0 0.000645717)
(-0.0154824 0 0.000625312)
(-0.0162607 0 0.000597803)
(-0.0169964 0 0.000560182)
(-0.0176898 0 0.00053147)
(-0.0183558 0 0.000513017)
(-0.0190027 0 0.000504489)
(-0.0196365 0 0.000484683)
(-0.0202228 0 0.000437436)
(-0.0207554 0 0.000406724)
(-0.0212634 0 0.000387209)
(-0.0217463 0 0.000368872)
(-0.0222071 0 0.000359708)
(-0.0226593 0 0.00035218)
(-0.0230928 0 0.000330351)
(-0.0234925 0 0.000297193)
(-0.0238507 0 0.000265079)
(-0.024175 0 0.000245665)
(-0.0244797 0 0.000228801)
(-0.0247622 0 0.000217243)
(-0.0250341 0 0.000212162)
(-0.0252946 0 0.000199184)
(-0.0255323 0 0.000177358)
(-0.0257422 0 0.000150454)
(-0.0259205 0 0.000129148)
(-0.0260755 0 0.000113113)
(-0.0262124 0 0.000101582)
(-0.0263386 0 9.83443e-05)
(-0.0264596 0 9.13741e-05)
(-0.0265653 0 7.56818e-05)
(-0.0266465 0 5.40189e-05)
(-0.0267011 0 3.34953e-05)
(-0.0267334 0 1.98171e-05)
(-0.0267528 0 1.20814e-05)
(-0.026762 0 3.33989e-06)
(-0.0267596 0 -8.04603e-06)
(-0.0267447 0 -1.82591e-05)
(-0.0267195 0 -2.45409e-05)
(-0.0266847 0 -3.05558e-05)
(-0.0266382 0 -3.896e-05)
(-0.0265739 0 -5.85815e-05)
(-0.026488 0 -7.44157e-05)
(-0.0263899 0 -8.14999e-05)
(-0.0262844 0 -8.6522e-05)
(-0.0261736 0 -8.5848e-05)
(-0.0260653 0 -8.40266e-05)
(-0.0259494 0 -0.000100571)
(-0.0258054 0 -0.000122247)
(-0.0256444 0 -0.000128201)
(-0.0254819 0 -0.000131683)
(-0.0253122 0 -0.000134622)
(-0.0251413 0 -0.000133703)
(-0.0249681 0 -0.000138868)
(-0.0247815 0 -0.000150564)
(-0.0245811 0 -0.000161819)
(-0.0243709 0 -0.000168932)
(-0.0241548 0 -0.000172419)
(-0.0239371 0 -0.000174484)
(-0.0237126 0 -0.000178442)
(-0.0234788 0 -0.00018491)
(-0.0232363 0 -0.00019502)
(-0.0229816 0 -0.000204748)
(-0.0227186 0 -0.000207906)
(-0.0224562 0 -0.000205868)
(-0.0221955 0 -0.000203441)
(-0.0219341 0 -0.000208972)
(-0.021656 0 -0.000226749)
(-0.0213596 0 -0.000235282)
(-0.0210594 0 -0.00023861)
(-0.0207544 0 -0.000243044)
(-0.0204434 0 -0.000246465)
(-0.0201294 0 -0.000245022)
(-0.0198169 0 -0.000243317)
(-0.019502 0 -0.00025031)
(-0.0191746 0 -0.000263548)
(-0.0188345 0 -0.000271565)
(-0.018487 0 -0.000275429)
(-0.0181341 0 -0.000280346)
(-0.0177741 0 -0.000286387)
(-0.0174063 0 -0.000289944)
(-0.0170379 0 -0.000286599)
(-0.0166742 0 -0.000286628)
(-0.016302 0 -0.000299929)
(-0.0159103 0 -0.000311392)
(-0.0155117 0 -0.000314924)
(-0.0151095 0 -0.000318939)
(-0.0147015 0 -0.000324348)
(-0.0142854 0 -0.000328153)
(-0.0138671 0 -0.000326759)
(-0.0134494 0 -0.000330017)
(-0.0130214 0 -0.000339064)
(-0.0125831 0 -0.000349079)
(-0.0121348 0 -0.000355543)
(-0.0116816 0 -0.000361009)
(-0.0112196 0 -0.000363753)
(-0.0107566 0 -0.000361616)
(-0.0102921 0 -0.00036485)
(-0.0098214 0 -0.000372718)
(-0.00934465 0 -0.000379782)
(-0.00886064 0 -0.000385216)
(-0.00836909 0 -0.000387143)
(-0.0078777 0 -0.000383305)
(-0.0073904 0 -0.00038217)
(-0.00690197 0 -0.000385044)
(-0.0064119 0 -0.000388148)
(-0.00591958 0 -0.00038551)
(-0.00543337 0 -0.000379051)
(-0.00495447 0 -0.000373707)
(-0.00448271 0 -0.00036988)
(-0.00401682 0 -0.000364866)
(-0.00355938 0 -0.000355598)
(-0.00311543 0 -0.000342921)
(-0.00268757 0 -0.000330071)
(-0.00227572 0 -0.000318213)
(-0.00187925 0 -0.000306885)
(-0.0014976 0 -0.000294471)
(-0.00113197 0 -0.00028108)
(-0.000783315 0 -0.00026737)
(-0.000451881 0 -0.000253823)
(-0.000137473 0 -0.000240568)
(0.000160401 0 -0.000228065)
(0.000442993 0 -0.000216043)
(0.000710503 0 -0.000204216)
(0.000963631 0 -0.000193254)
(0.0012034 0 -0.000183404)
(0.00143106 0 -0.000174297)
(0.00164693 0 -0.000164968)
(0.00185085 0 -0.000155697)
(0.00204396 0 -0.000147694)
(0.00222769 0 -0.000140889)
(0.00240319 0 -0.000134834)
(0.00257072 0 -0.000128617)
(0.00273023 0 -0.000122197)
(0.00288156 0 -0.000115982)
(0.00302554 0 -0.000110859)
(0.00316368 0 -0.000106756)
(0.0032972 0 -0.000103326)
(0.00342659 0 -9.9907e-05)
(0.00355171 0 -9.66778e-05)
(0.00367303 0 -9.38096e-05)
(0.00379085 0 -9.13044e-05)
(0.00390561 0 -8.91577e-05)
(0.00401762 0 -8.72653e-05)
(0.00412736 0 -8.57733e-05)
(0.00423558 0 -8.45604e-05)
(0.00434241 0 -8.3423e-05)
(0.00444799 0 -8.24182e-05)
(0.00455243 0 -8.15121e-05)
(0.00465585 0 -8.0716e-05)
(0.00475832 0 -7.99398e-05)
(0.00485983 0 -7.92915e-05)
(0.00496066 0 -7.89727e-05)
(0.00506135 0 -7.88344e-05)
(0.00516172 0 -7.86499e-05)
(0.00526187 0 -7.84149e-05)
(0.00536154 0 -7.79253e-05)
(0.00546042 0 -7.74761e-05)
(0.00555882 0 -7.70744e-05)
(0.00565669 0 -7.66441e-05)
(0.00575406 0 -7.60776e-05)
(0.00585068 0 -7.55135e-05)
(0.00594661 0 -7.49107e-05)
(0.00604165 0 -7.39805e-05)
(0.006135 0 -7.23206e-05)
(0.0062262 0 -7.05479e-05)
(0.00631573 0 -6.93794e-05)
(0.00640432 0 -6.89135e-05)
(0.00649222 0 -6.82048e-05)
(0.00657821 0 -6.63204e-05)
(0.00666092 0 -6.37845e-05)
(0.00674097 0 -6.18986e-05)
(0.00681953 0 -6.05934e-05)
(0.00689632 0 -5.91696e-05)
(0.0069713 0 -5.74115e-05)
(0.00704323 0 -5.50168e-05)
(0.00711226 0 -5.29878e-05)
(0.00717855 0 -4.97555e-05)
(0.00724078 0 -4.61854e-05)
(0.00729917 0 -4.36478e-05)
(0.00735564 0 -4.34279e-05)
(0.00741077 0 -4.14635e-05)
(0.00746277 0 -3.93231e-05)
(0.00751131 0 -3.57661e-05)
(0.00755643 0 -3.35172e-05)
(0.0075981 0 -2.98814e-05)
(0.00763617 0 -2.862e-05)
(0.00767203 0 -2.61841e-05)
(0.0077052 0 -2.45456e-05)
(0.00773439 0 -2.03678e-05)
(0.00775982 0 -1.87226e-05)
(0.00778232 0 -1.64977e-05)
(0.00780317 0 -1.59503e-05)
(0.00782071 0 -1.3077e-05)
(0.00783579 0 -1.1917e-05)
(0.00784779 0 -9.34359e-06)
(0.00785769 0 -6.62711e-06)
(0.00786217 0 -3.90851e-06)
(0.00786543 0 -2.9048e-06)
(0.00786451 0 -2.22286e-06)
(0.00786348 0 -4.26449e-07)
(0.00785946 0 -9.25125e-07)
(0.00785543 0 2.16939e-06)
(0.00784806 0 2.39042e-06)
(0.00783454 0 1.08917e-05)
(0.00781825 0 4.14087e-06)
(0.00780167 0 9.62269e-06)
(0.00778896 0 2.96191e-06)
(0.00776676 0 1.82579e-05)
(0.00774814 0 1.26764e-05)
(0.00771753 0 2.9178e-05)
(0.0076951 0 1.49355e-05)
(0.00766868 0 2.45332e-05)
(0.00764185 0 1.28752e-05)
(0.00761579 0 2.56544e-05)
(0.00758367 0 2.8125e-05)
(0.00755268 0 3.86289e-05)
(0.00753378 0 3.1363e-05)
(0.00749862 0 2.4716e-05)
(0.00746279 0 -8.35821e-06)
(0.00744245 0 6.01395e-06)
(0.00738061 0 5.31081e-05)
(0.00734616 0 8.25517e-05)
(0.00736374 0 0.000103066)
(0.00731295 0 4.01423e-05)
(0.00729715 0 -0.000120963)
(0.00730412 0 -0.000132346)
(0.0071362 0 2.47571e-05)
(0.00690165 0 0.000228583)
(0.00655532 0 0.00040432)
(0.00635241 0 0.000200645)
(0.00618603 0 0.000169364)
(0.00609206 0 0.000101728)
(0.00597888 0 6.874e-05)
(0.00592369 0 7.95522e-05)
(0.00580977 0 3.02161e-05)
(0.00575295 0 9.83452e-05)
(0.00564616 0 4.51202e-05)
(0.00561278 0 0.000107233)
(0.00552492 0 5.05719e-05)
(0.00550204 0 6.62168e-05)
(0.0055305 0 -1.99934e-05)
(0.0054011 0 -5.9517e-06)
(0.00530091 0 -0.000162246)
(0.00535052 0 8.83154e-05)
(0.00506771 0 0.000329942)
(0.00493717 0 0.000307945)
(0.00452531 0 7.19307e-05)
(0.00482345 0 -0.000235831)
(0.00479477 0 -3.34618e-05)
(0.00490879 0 -7.9993e-05)
(0.00484105 0 5.4456e-05)
(0.00486143 0 -4.01964e-06)
(0.00476715 0 5.45893e-05)
(0.00473798 0 -8.9455e-06)
(0.00462552 0 2.40989e-05)
(0.00453406 0 1.5699e-05)
(0.00445406 0 7.60165e-05)
(0.00439434 0 0.000146822)
(0.00428536 0 0.000110068)
(0.00425665 0 2.08609e-05)
(0.00414191 0 -7.89827e-05)
(0.00382152 0 -5.11594e-05)
(0.00375176 0 2.70493e-05)
(0.0034258 0 0.000599268)
(0.00308336 0 0.000514444)
(0.00343247 0 0.000845427)
(0.00226911 0 0.000495773)
(0.0044842 0 -0.000798755)
(0.00490381 0 -0.00137215)
(0.00654608 0 -0.00130199)
(0.00788402 0 -0.00131301)
(0.0088719 0 -0.000983969)
(0.00984778 0 -0.000660547)
(0.010385 0 -0.00040488)
(0.0107923 0 -0.000296063)
(0.0110792 0 -0.000239456)
(0.0113296 0 -0.000217718)
(0.0115175 0 -0.000136782)
(0.011625 0 -6.67207e-05)
(0.0116968 0 -4.57239e-05)
(0.011749 0 -3.08504e-05)
(0.0117971 0 -4.19545e-05)
(0.0118528 0 -4.31238e-05)
(0.0118831 0 -9.90599e-06)
(0.0118792 0 1.32293e-05)
(0.0118681 0 1.00834e-05)
(0.0118678 0 8.17962e-06)
(0.0118629 0 8.64814e-06)
(0.0118472 0 1.45284e-05)
(0.011838 0 1.53309e-06)
(0.0118463 0 -1.37307e-05)
(0.0118582 0 -5.84271e-06)
(0.0118532 0 1.52523e-05)
(0.0118358 0 1.94353e-05)
(0.0118193 0 1.4285e-05)
(0.0118149 0 -2.41113e-06)
(0.0118246 0 -9.77763e-06)
(0.0118391 0 -1.26002e-05)
(0.0118629 0 -2.41451e-05)
(0.0118996 0 -2.81726e-05)
(0.011933 0 -2.23923e-05)
(0.011956 0 -1.55819e-05)
(0.0119812 0 -2.21108e-05)
(0.0120262 0 -4.36349e-05)
(0.0120999 0 -6.92357e-05)
(0.0122009 0 -9.03662e-05)
(0.012317 0 -9.78972e-05)
(0.0124416 0 -0.000101201)
(0.0125707 0 -9.99844e-05)
(0.0127055 0 -0.000109266)
(0.0128561 0 -0.000120436)
(0.0130197 0 -0.000127659)
(0.0131914 0 -0.000141702)
(0.0133791 0 -0.00015868)
(0.0135876 0 -0.000171842)
(0.0138078 0 -0.000177588)
(0.014033 0 -0.00017838)
(0.0142606 0 -0.000176844)
(0.0144901 0 -0.000177383)
(0.0147266 0 -0.000184173)
(0.0149744 0 -0.000195002)
(0.0152364 0 -0.000209324)
(0.0155151 0 -0.00022264)
(0.0158076 0 -0.000233071)
(0.0161109 0 -0.000240965)
(0.0164252 0 -0.00024798)
(0.0167484 0 -0.000255002)
(0.0170803 0 -0.000262)
(0.0174217 0 -0.000270141)
(0.017774 0 -0.000278322)
(0.0181364 0 -0.000285957)
(0.0185092 0 -0.000292324)
(0.0188821 0 -0.000295492)
(0.0192707 0 -0.000300535)
(0.0196435 0 -0.000304077)
(0.0200634 0 -0.000313722)
(0.0204367 0 -0.000318078)
(0.0208915 0 -0.000320541)
(0.0212448 0 -0.000324103)
(0.0217047 0 -0.00032509)
(0.0221685 0 -0.000328144)
(0.0224877 0 -0.000333265)
(0.0229315 0 -0.000339891)
(0.0235108 0 -0.00036451)
(0.0241786 0 -0.000385842)
(0.0225488 0 -0.000422325)
(0.0294639 0 -0.000438303)
(0.0176747 0 -0.000490289)
(-0.0157526 0 0.0478704)
(0.0179626 0 0.0224471)
(-0.0101524 0 0.0119773)
(-0.00164282 0 -0.00654274)
(0.00473459 0 -0.0261634)
(0.0112578 0 -0.0326803)
(0.0257991 0 -0.0291447)
(0.0317523 0 -0.02898)
(0.0436788 0 -0.0293709)
(0.0501812 0 -0.0269855)
(0.0554729 0 -0.0198844)
(0.0577624 0 -0.0134684)
(0.0591688 0 -0.0108291)
(0.0621324 0 -0.0104454)
(0.0664014 0 -0.0134309)
(0.0732411 0 -0.0146055)
(0.0808188 0 -0.0165311)
(0.0874818 0 -0.0178511)
(0.0922362 0 -0.014445)
(0.0967759 0 -0.00582568)
(0.0977615 0 0.0016162)
(0.0929503 0 0.00403979)
(0.0857498 0 0.00979849)
(0.078271 0 0.0182845)
(0.0689559 0 0.0233777)
(0.061353 0 0.0224132)
(0.0588162 0 0.0156789)
(0.0612491 0 0.0050978)
(0.0635959 0 -0.00194492)
(0.0655825 0 -0.00449964)
(0.0656078 0 -0.00300661)
(0.0658804 0 0.00191912)
(0.0617523 0 0.00857946)
(0.0537956 0 0.0127178)
(0.0440744 0 0.015484)
(0.0343952 0 0.0238922)
(0.0234112 0 0.0282299)
(0.0154476 0 0.0242644)
(0.00706184 0 0.0216026)
(-0.00120809 0 0.0162484)
(-0.00519943 0 0.00743839)
(-0.00786033 0 0.00386534)
(-0.0101304 0 0.00426306)
(-0.013243 0 0.00836921)
(-0.016034 0 0.00934536)
(-0.0186747 0 0.00461829)
(-0.0200019 0 -0.000674075)
(-0.0199383 0 -0.00165667)
(-0.0197585 0 0.00028528)
(-0.0203718 0 0.00442293)
(-0.0210545 0 0.0044392)
(-0.0222466 0 0.00142065)
(-0.0228024 0 -0.00364316)
(-0.021369 0 -0.00654759)
(-0.0189595 0 -0.00801971)
(-0.0162135 0 -0.0085214)
(-0.0137216 0 -0.00835128)
(-0.0119318 0 -0.00701665)
(-0.0115811 0 -0.00492418)
(-0.0111676 0 -0.00177709)
(-0.0102129 0 0.000488649)
(-0.00806137 0 0.00162833)
(-0.00515327 0 0.00230801)
(-0.00325032 0 0.00227245)
(-0.00320992 0 0.00139825)
(-0.00417286 0 0.000321562)
(-0.00500796 0 -0.00158244)
(-0.00535907 0 -0.0044044)
(-0.00419415 0 -0.00786859)
(-0.00138337 0 -0.0105358)
(0.00184039 0 -0.0120538)
(0.00546578 0 -0.0115571)
(0.00835511 0 -0.00952124)
(0.00995421 0 -0.00762736)
(0.0113885 0 -0.0066312)
(0.0126891 0 -0.00649135)
(0.0166888 0 -0.00694797)
(0.0188147 0 -0.00343618)
(0.026142 0 0.00170623)
(0.0330093 0 -0.000361318)
(0.034485 0 0.00152441)
(0.0338922 0 0.00196687)
(0.0353107 0 0.00149211)
(0.0338342 0 0.00128154)
(0.0321377 0 0.00042349)
(0.0310442 0 0.00207298)
(0.0294878 0 0.00172358)
(0.0281756 0 5.88099e-05)
(0.0284988 0 -0.000598655)
(0.0288084 0 -0.00098176)
(0.0282618 0 -0.00110143)
(0.0289877 0 -0.00150706)
(0.0293829 0 -0.000776021)
(0.0298314 0 -0.00088097)
(0.030153 0 -0.000333259)
(0.030894 0 -0.000251745)
(0.0308271 0 0.000323783)
(0.0318058 0 0.000888388)
(0.0313788 0 0.00376888)
(0.0342479 0 0.0094496)
(0.0330422 0 0.00907738)
(0.0348781 0 0.0075631)
(0.0281536 0 0.00403488)
(0.0248519 0 0.00151367)
(0.020974 0 -0.00396615)
(0.0194761 0 -0.00644789)
(0.0191316 0 -0.00412136)
(0.0192067 0 -0.00204046)
(0.0198824 0 -0.000910224)
(0.0220463 0 -0.00133992)
(0.0242292 0 -0.00116402)
(0.0252119 0 -0.00196247)
(0.0261755 0 -0.00221921)
(0.0267523 0 -0.00189742)
(0.0272843 0 -0.000785399)
(0.0283783 0 -0.000163422)
(0.0290345 0 0.00222411)
(0.0311102 0 0.00400549)
(0.0305958 0 0.00279922)
(0.0317207 0 0.00160916)
(0.026992 0 0.000332218)
(0.0263047 0 -0.00062376)
(0.0249528 0 -0.0034099)
(0.0256542 0 -0.00458825)
(0.0259713 0 -0.00290732)
(0.026775 0 -0.00207018)
(0.0283368 0 -0.00164606)
(0.0295468 0 -0.00152325)
(0.0303396 0 -0.00195718)
(0.0311587 0 -0.0021898)
(0.0318312 0 -0.00199979)
(0.0325048 0 -0.00177155)
(0.0332778 0 -0.00154662)
(0.0340127 0 -0.00147444)
(0.0346905 0 -0.0014628)
(0.0353166 0 -0.00148526)
(0.03592 0 -0.00146131)
(0.0364859 0 -0.00137373)
(0.0370157 0 -0.00128425)
(0.0375377 0 -0.00119936)
(0.0380294 0 -0.00109627)
(0.0384721 0 -0.000960938)
(0.0388593 0 -0.00082529)
(0.0391937 0 -0.000711412)
(0.0394816 0 -0.000613595)
(0.0397279 0 -0.000533193)
(0.0399269 0 -0.000418441)
(0.0400599 0 -0.000264427)
(0.040134 0 -9.09662e-05)
(0.0401602 0 9.35308e-06)
(0.0401451 0 8.28271e-05)
(0.0400855 0 0.000198374)
(0.0399573 0 0.000346022)
(0.0397647 0 0.000490261)
(0.0395307 0 0.000617731)
(0.0392546 0 0.00073444)
(0.0389247 0 0.00085165)
(0.0385269 0 0.000987683)
(0.0380649 0 0.00112431)
(0.0375469 0 0.00125066)
(0.0369824 0 0.00137043)
(0.0363713 0 0.00149601)
(0.0357076 0 0.00161812)
(0.0349872 0 0.00176166)
(0.0341924 0 0.00194175)
(0.0333264 0 0.0020766)
(0.0324095 0 0.0021763)
(0.0314519 0 0.00229884)
(0.0304249 0 0.0024778)
(0.0293213 0 0.00268805)
(0.0281522 0 0.00282086)
(0.026927 0 0.00290378)
(0.0256586 0 0.00301669)
(0.0243312 0 0.00314688)
(0.0229553 0 0.00333115)
(0.0215119 0 0.00354736)
(0.0200025 0 0.00367526)
(0.0184482 0 0.00375315)
(0.0168473 0 0.0037743)
(0.0152463 0 0.00377807)
(0.0136429 0 0.00382394)
(0.0120261 0 0.0038578)
(0.0104098 0 0.00388865)
(0.00877505 0 0.00393223)
(0.00713324 0 0.0038849)
(0.00551576 0 0.00374596)
(0.00394852 0 0.00360499)
(0.00244378 0 0.00351015)
(0.000987255 0 0.00343563)
(-0.000428687 0 0.00333506)
(-0.00180903 0 0.00320791)
(-0.00315055 0 0.00305217)
(-0.0044382 0 0.002896)
(-0.00565883 0 0.00276509)
(-0.00682304 0 0.00266141)
(-0.00794509 0 0.00259441)
(-0.00902988 0 0.00252853)
(-0.0100795 0 0.00243513)
(-0.0110875 0 0.00231643)
(-0.0120478 0 0.00217889)
(-0.0129627 0 0.0020819)
(-0.0138398 0 0.00201084)
(-0.0146853 0 0.00194557)
(-0.0154972 0 0.00187158)
(-0.0162685 0 0.00178318)
(-0.017003 0 0.00168462)
(-0.0177072 0 0.00160591)
(-0.0183855 0 0.00155056)
(-0.0190378 0 0.0015082)
(-0.0196565 0 0.00143717)
(-0.0202368 0 0.0013175)
(-0.0207803 0 0.00123107)
(-0.0212952 0 0.00117075)
(-0.0217855 0 0.00111421)
(-0.0222513 0 0.00107485)
(-0.0226971 0 0.00104117)
(-0.0231183 0 0.000978302)
(-0.0235133 0 0.000895474)
(-0.0238768 0 0.000805217)
(-0.0242086 0 0.000744481)
(-0.0245193 0 0.000693861)
(-0.0248079 0 0.000653422)
(-0.0250755 0 0.000626013)
(-0.025324 0 0.000583358)
(-0.0255538 0 0.000527824)
(-0.0257643 0 0.000459245)
(-0.0259499 0 0.000394263)
(-0.0261104 0 0.000346253)
(-0.0262524 0 0.000309863)
(-0.026379 0 0.000291056)
(-0.0264933 0 0.000264444)
(-0.026592 0 0.000218347)
(-0.0266675 0 0.000159482)
(-0.0267196 0 0.000102845)
(-0.0267551 0 6.16949e-05)
(-0.0267755 0 3.31376e-05)
(-0.0267835 0 7.32865e-06)
(-0.0267842 0 -1.87965e-05)
(-0.0267759 0 -4.53628e-05)
(-0.0267535 0 -6.93793e-05)
(-0.0267138 0 -9.86203e-05)
(-0.0266543 0 -0.000134402)
(-0.0265802 0 -0.000178649)
(-0.0264988 0 -0.000215235)
(-0.0264079 0 -0.000237951)
(-0.0263081 0 -0.000254288)
(-0.0262014 0 -0.000258745)
(-0.0260844 0 -0.000267423)
(-0.0259542 0 -0.000307519)
(-0.025811 0 -0.00035905)
(-0.0256564 0 -0.000379335)
(-0.0254968 0 -0.000390841)
(-0.0253337 0 -0.000401253)
(-0.0251618 0 -0.000406776)
(-0.0249789 0 -0.000426896)
(-0.0247841 0 -0.000458211)
(-0.0245808 0 -0.000483802)
(-0.0243735 0 -0.000501424)
(-0.0241636 0 -0.000509351)
(-0.0239511 0 -0.000520357)
(-0.0237243 0 -0.000542659)
(-0.023483 0 -0.000563376)
(-0.0232364 0 -0.000586643)
(-0.0229843 0 -0.000609163)
(-0.0227262 0 -0.000618326)
(-0.0224652 0 -0.000615567)
(-0.0222014 0 -0.00061782)
(-0.0219307 0 -0.000637087)
(-0.0216491 0 -0.000678198)
(-0.0213564 0 -0.000701865)
(-0.0210577 0 -0.000712649)
(-0.0207553 0 -0.00072485)
(-0.020449 0 -0.000736455)
(-0.0201363 0 -0.000739963)
(-0.0198154 0 -0.000742811)
(-0.0194887 0 -0.000759195)
(-0.0191574 0 -0.000785855)
(-0.0188214 0 -0.000809282)
(-0.0184777 0 -0.000825267)
(-0.0181261 0 -0.000840327)
(-0.0177669 0 -0.000857273)
(-0.0173996 0 -0.000867637)
(-0.0170315 0 -0.000863773)
(-0.0166591 0 -0.000869639)
(-0.0162795 0 -0.000900686)
(-0.015889 0 -0.00093144)
(-0.0154906 0 -0.000942934)
(-0.0150904 0 -0.000954569)
(-0.0146857 0 -0.00097015)
(-0.0142722 0 -0.000983825)
(-0.0138499 0 -0.000986343)
(-0.0134234 0 -0.00099925)
(-0.0129878 0 -0.0010221)
(-0.0125477 0 -0.00104434)
(-0.0121042 0 -0.00106108)
(-0.0116556 0 -0.00107704)
(-0.0111974 0 -0.00109049)
(-0.0107301 0 -0.00109552)
(-0.0102558 0 -0.00110519)
(-0.00978058 0 -0.00111585)
(-0.00930716 0 -0.0011304)
(-0.0088297 0 -0.00114752)
(-0.00834334 0 -0.00115834)
(-0.00785089 0 -0.00115447)
(-0.00735864 0 -0.00115171)
(-0.00687154 0 -0.00115261)
(-0.006389 0 -0.00115599)
(-0.00590247 0 -0.00115253)
(-0.00541649 0 -0.0011379)
(-0.00493704 0 -0.00112056)
(-0.00446882 0 -0.00110394)
(-0.00401013 0 -0.00108644)
(-0.00355829 0 -0.00106131)
(-0.00311699 0 -0.00102739)
(-0.00268884 0 -0.000989938)
(-0.00227849 0 -0.000952334)
(-0.00188591 0 -0.000916308)
(-0.00150685 0 -0.000880208)
(-0.00114168 0 -0.000841877)
(-0.000792782 0 -0.00080166)
(-0.000460655 0 -0.000761346)
(-0.000145809 0 -0.000721696)
(0.000152521 0 -0.000684327)
(0.000435705 0 -0.000648619)
(0.000704271 0 -0.00061416)
(0.000959069 0 -0.000581515)
(0.00120024 0 -0.000551298)
(0.0014287 0 -0.000522815)
(0.00164456 0 -0.000494753)
(0.00184879 0 -0.000468201)
(0.00204249 0 -0.000444495)
(0.00222668 0 -0.000423587)
(0.00240223 0 -0.000404282)
(0.00256922 0 -0.000385328)
(0.00272822 0 -0.000366453)
(0.00287954 0 -0.000348159)
(0.003024 0 -0.000332655)
(0.00316193 0 -0.000320186)
(0.00329483 0 -0.000309993)
(0.00342405 0 -0.000300096)
(0.00354934 0 -0.000290655)
(0.00367087 0 -0.000281991)
(0.00378871 0 -0.000274167)
(0.00390319 0 -0.000267133)
(0.00401438 0 -0.000261107)
(0.00412295 0 -0.000256611)
(0.00423044 0 -0.000253311)
(0.00433704 0 -0.000250281)
(0.0044426 0 -0.000247574)
(0.00454722 0 -0.00024511)
(0.00465086 0 -0.000242836)
(0.00475358 0 -0.000240648)
(0.00485536 0 -0.000238714)
(0.00495648 0 -0.000237788)
(0.00505749 0 -0.00023723)
(0.0051581 0 -0.000236544)
(0.00525856 0 -0.000235681)
(0.00535846 0 -0.000234097)
(0.00545729 0 -0.000232506)
(0.00555569 0 -0.000231271)
(0.00565375 0 -0.000230041)
(0.00575142 0 -0.000228626)
(0.0058484 0 -0.000226954)
(0.00594449 0 -0.000225085)
(0.00603953 0 -0.000222111)
(0.00613316 0 -0.000217731)
(0.0062255 0 -0.000213588)
(0.0063165 0 -0.000210649)
(0.00640598 0 -0.000208569)
(0.00649421 0 -0.000205139)
(0.00657988 0 -0.000198837)
(0.00666241 0 -0.000191913)
(0.0067426 0 -0.000187392)
(0.00682159 0 -0.000183589)
(0.00689884 0 -0.00017939)
(0.00697425 0 -0.000173586)
(0.00704611 0 -0.000166464)
(0.00711451 0 -0.00015973)
(0.00717981 0 -0.00015222)
(0.00724281 0 -0.000143492)
(0.0073037 0 -0.000136963)
(0.00736144 0 -0.000132264)
(0.00741604 0 -0.000127142)
(0.00746742 0 -0.000118968)
(0.0075151 0 -0.00011157)
(0.00755949 0 -0.000103053)
(0.00760121 0 -9.53721e-05)
(0.00763981 0 -8.74703e-05)
(0.00767552 0 -8.21603e-05)
(0.00770779 0 -7.33072e-05)
(0.00773691 0 -6.5259e-05)
(0.00776329 0 -5.64454e-05)
(0.00778674 0 -5.13762e-05)
(0.00780717 0 -4.4216e-05)
(0.00782395 0 -3.78382e-05)
(0.00783782 0 -3.05114e-05)
(0.00784896 0 -2.4916e-05)
(0.00785823 0 -1.62464e-05)
(0.00786479 0 -8.27343e-06)
(0.00786854 0 -1.4248e-06)
(0.00786763 0 5.31342e-06)
(0.00786417 0 7.67739e-06)
(0.00785987 0 1.38216e-05)
(0.00785375 0 1.52528e-05)
(0.00784578 0 3.07503e-05)
(0.00783312 0 3.58242e-05)
(0.00782167 0 4.79071e-05)
(0.0078037 0 3.6258e-05)
(0.0077926 0 5.22308e-05)
(0.00776858 0 4.63898e-05)
(0.00774931 0 6.44743e-05)
(0.007722 0 5.5361e-05)
(0.00769763 0 6.06839e-05)
(0.00767083 0 6.05609e-05)
(0.00764261 0 6.85033e-05)
(0.00762959 0 6.78374e-05)
(0.0075954 0 6.96342e-05)
(0.00756429 0 4.23068e-05)
(0.00753002 0 5.11766e-05)
(0.00747321 0 8.86402e-05)
(0.00744322 0 8.92291e-05)
(0.00745822 0 0.000129595)
(0.00743325 0 9.45037e-05)
(0.0074304 0 -4.28886e-05)
(0.00739952 0 -4.93261e-05)
(0.00722923 0 6.20619e-05)
(0.0069615 0 9.46647e-05)
(0.00666162 0 0.000403188)
(0.00650169 0 0.000541827)
(0.00628736 0 0.000732339)
(0.00630483 0 0.000519143)
(0.00618885 0 0.000319656)
(0.00615273 0 0.000284183)
(0.00603932 0 0.000206351)
(0.00596537 0 0.000209043)
(0.0058825 0 0.000183681)
(0.00580128 0 0.000239537)
(0.00573984 0 0.000159827)
(0.0056637 0 0.000172478)
(0.00568282 0 8.52774e-05)
(0.00553082 0 0.000121379)
(0.00541023 0 -7.18829e-05)
(0.00535901 0 0.000180036)
(0.00513137 0 0.000364629)
(0.00503812 0 0.000227858)
(0.00470469 0 0.000278764)
(0.00506911 0 0.000299474)
(0.00503228 0 0.000556389)
(0.00526939 0 0.000130392)
(0.00506081 0 -0.000214817)
(0.0050498 0 -7.96312e-05)
(0.00494636 0 -1.34283e-05)
(0.00487348 0 3.7466e-05)
(0.00479974 0 9.60128e-05)
(0.00474905 0 0.000162008)
(0.00469489 0 0.000208543)
(0.00467814 0 0.000323872)
(0.00461476 0 0.000233904)
(0.00464042 0 0.000165712)
(0.0044794 0 7.92254e-05)
(0.00419623 0 0.000142889)
(0.0040191 0 0.000153029)
(0.0038782 0 0.000836184)
(0.00348318 0 0.000667206)
(0.00418933 0 0.00059947)
(0.00329613 0 0.000354019)
(0.00654793 0 -0.000510486)
(0.00701871 0 0.00010264)
(0.0084159 0 -0.00179354)
(0.0098789 0 -0.00245189)
(0.00989177 0 -0.00268158)
(0.0103948 0 -0.00253502)
(0.0105256 0 -0.00236063)
(0.0106853 0 -0.00202666)
(0.0109571 0 -0.00157253)
(0.0112282 0 -0.00106364)
(0.0114487 0 -0.000745465)
(0.0116132 0 -0.000575612)
(0.0117365 0 -0.000476992)
(0.0118322 0 -0.000319564)
(0.011915 0 -0.000197352)
(0.0119854 0 -0.000149855)
(0.0120435 0 -0.000115988)
(0.0120897 0 -0.000125428)
(0.0121168 0 -9.69336e-05)
(0.012122 0 -2.46032e-05)
(0.0121199 0 1.52614e-05)
(0.0121164 0 1.05024e-05)
(0.0121144 0 5.52565e-06)
(0.0121087 0 1.8567e-05)
(0.0121003 0 2.82891e-05)
(0.0120957 0 4.00607e-06)
(0.0120912 0 -1.81699e-05)
(0.0120871 0 -5.23506e-06)
(0.0120835 0 2.87219e-05)
(0.0120826 0 3.39627e-05)
(0.0120852 0 2.47346e-05)
(0.0120904 0 -3.8325e-06)
(0.0120996 0 -2.70573e-05)
(0.0121213 0 -4.50559e-05)
(0.0121516 0 -6.97631e-05)
(0.0121846 0 -7.76537e-05)
(0.0122187 0 -6.63094e-05)
(0.0122555 0 -5.68041e-05)
(0.0123006 0 -8.44031e-05)
(0.0123595 0 -0.000137915)
(0.0124338 0 -0.000203961)
(0.0125221 0 -0.000254008)
(0.0126211 0 -0.000278423)
(0.0127309 0 -0.000297705)
(0.0128537 0 -0.000310763)
(0.0129912 0 -0.000342176)
(0.0131445 0 -0.000375339)
(0.0133087 0 -0.000395906)
(0.0134816 0 -0.000425558)
(0.013665 0 -0.000465054)
(0.0138587 0 -0.000500151)
(0.0140622 0 -0.000521403)
(0.0142766 0 -0.000532661)
(0.0145028 0 -0.000541725)
(0.0147416 0 -0.000555016)
(0.0149927 0 -0.000577653)
(0.0152543 0 -0.000607273)
(0.0155263 0 -0.000641105)
(0.0158078 0 -0.000674831)
(0.016101 0 -0.000704915)
(0.0164064 0 -0.000730763)
(0.0167218 0 -0.000753489)
(0.0170473 0 -0.000774553)
(0.0173816 0 -0.0007962)
(0.0177252 0 -0.000821057)
(0.0180794 0 -0.00084639)
(0.018442 0 -0.000866973)
(0.0188134 0 -0.000884291)
(0.0191855 0 -0.000894756)
(0.0195763 0 -0.000910925)
(0.0199535 0 -0.000926384)
(0.0203804 0 -0.000951187)
(0.0207526 0 -0.000964132)