/*--------------------------------*- C++ -*----------------------------------*\
| =========                 |                                                 |
| \\      /  F ield         | OpenFOAM: The Open Source CFD Toolbox           |
|  \\    /   O peration     | Version:  v2006                                 |
|   \\  /    A nd           | Website:  www.openfoam.com                      |
|    \\/     M anipulation  |                                                 |
\*---------------------------------------------------------------------------*/
FoamFile
{
    version     2.0;
    format      ascii;
    class       volScalarField;
    location    "7.2";
    object      k;
}
// * * * * * * * * * * * * * * * * * * * * * * * * * * * * * * * * * * * * * //

dimensions      [0 2 -2 0 0 0 0];


internalField   nonuniform List<scalar> 
33000
(
1.08214e-08
1.17915e-08
1.3236e-08
1.55318e-08
1.87891e-08
2.24318e-08
2.51576e-08
2.62041e-08
2.66043e-08
2.78046e-08
3.06173e-08
3.51855e-08
4.06817e-08
4.60609e-08
5.11882e-08
5.61631e-08
6.13097e-08
6.73871e-08
7.49558e-08
8.4291e-08
9.48153e-08
1.04742e-07
1.12165e-07
1.1742e-07
1.23832e-07
1.36139e-07
1.59783e-07
2.0213e-07
2.67778e-07
3.50885e-07
4.35917e-07
5.08547e-07
5.62618e-07
5.98439e-07
6.19368e-07
6.29494e-07
6.32459e-07
6.31236e-07
6.27564e-07
6.23955e-07
6.21746e-07
6.19006e-07
6.154e-07
6.10418e-07
6.03028e-07
5.96338e-07
5.93738e-07
5.92562e-07
5.89355e-07
5.83838e-07
5.74837e-07
5.63628e-07
5.54468e-07
5.4796e-07
5.44799e-07
5.46489e-07
5.53102e-07
5.60463e-07
5.64192e-07
5.64081e-07
5.59789e-07
5.51061e-07
5.37716e-07
5.19103e-07
4.93718e-07
4.6035e-07
4.23064e-07
3.90219e-07
3.64866e-07
3.45865e-07
3.29919e-07
3.14088e-07
2.96753e-07
2.78664e-07
2.6213e-07
2.494e-07
2.41521e-07
2.39095e-07
2.43792e-07
2.58691e-07
2.83271e-07
3.14175e-07
3.45105e-07
3.72011e-07
3.91587e-07
4.05354e-07
4.14252e-07
4.18307e-07
4.16095e-07
4.11061e-07
4.00466e-07
3.84745e-07
3.66256e-07
3.44944e-07
3.22503e-07
2.99887e-07
2.79482e-07
2.62712e-07
2.5145e-07
2.47534e-07
2.53221e-07
2.66866e-07
2.80914e-07
2.91363e-07
2.93422e-07
2.93194e-07
2.95755e-07
2.98834e-07
2.99513e-07
2.96796e-07
2.93872e-07
2.89274e-07
2.84563e-07
2.78858e-07
2.71104e-07
2.6164e-07
2.52308e-07
2.45959e-07
2.45457e-07
2.49399e-07
2.51071e-07
2.54314e-07
2.53604e-07
2.5291e-07
2.55354e-07
2.57382e-07
2.58654e-07
2.59644e-07
2.59912e-07
2.60147e-07
2.60642e-07
2.61078e-07
2.61377e-07
2.61434e-07
2.61371e-07
2.61221e-07
2.61029e-07
2.6086e-07
2.60691e-07
2.60514e-07
2.60303e-07
2.60037e-07
2.59704e-07
2.59308e-07
2.58831e-07
2.58258e-07
2.57602e-07
2.56897e-07
2.56163e-07
2.55388e-07
2.54539e-07
2.53601e-07
2.52589e-07
2.51539e-07
2.50456e-07
2.49317e-07
2.481e-07
2.46796e-07
2.45409e-07
2.43942e-07
2.42403e-07
2.40782e-07
2.3907e-07
2.3726e-07
2.3534e-07
2.33316e-07
2.31196e-07
2.28991e-07
2.26699e-07
2.24349e-07
2.22169e-07
2.20278e-07
2.18678e-07
2.17364e-07
2.16379e-07
2.15808e-07
2.15691e-07
2.15996e-07
2.16682e-07
2.17739e-07
2.19126e-07
2.20733e-07
2.22452e-07
2.24154e-07
2.25825e-07
2.2746e-07
2.28959e-07
2.30239e-07
2.31289e-07
2.32148e-07
2.32864e-07
2.33435e-07
2.33823e-07
2.33974e-07
2.33852e-07
2.33476e-07
2.32909e-07
2.32235e-07
2.315e-07
2.30668e-07
2.29649e-07
2.28383e-07
2.26906e-07
2.25317e-07
2.23701e-07
2.22105e-07
2.20492e-07
2.18823e-07
2.17138e-07
2.1553e-07
2.14052e-07
2.12646e-07
2.11212e-07
2.09761e-07
2.08429e-07
2.0732e-07
2.0642e-07
2.05642e-07
2.04873e-07
2.04059e-07
2.03268e-07
2.02618e-07
2.02158e-07
2.01848e-07
2.01584e-07
2.01263e-07
2.00862e-07
2.00447e-07
2.00095e-07
1.99854e-07
1.9971e-07
1.99555e-07
1.99297e-07
1.98948e-07
1.98584e-07
1.98242e-07
1.97922e-07
1.97615e-07
1.97293e-07
1.96943e-07
1.96564e-07
1.96137e-07
1.95629e-07
1.95037e-07
1.94419e-07
1.9383e-07
1.93284e-07
1.9273e-07
1.92061e-07
1.91247e-07
1.90412e-07
1.8963e-07
1.88865e-07
1.88073e-07
1.87216e-07
1.86277e-07
1.85294e-07
1.84299e-07
1.83294e-07
1.8227e-07
1.81203e-07
1.8007e-07
1.78884e-07
1.77679e-07
1.76492e-07
1.75325e-07
1.74126e-07
1.72834e-07
1.71441e-07
1.70023e-07
1.6863e-07
1.67248e-07
1.65859e-07
1.64454e-07
1.63001e-07
1.6148e-07
1.59918e-07
1.58338e-07
1.56742e-07
1.5513e-07
1.53508e-07
1.51885e-07
1.50249e-07
1.48553e-07
1.4678e-07
1.44988e-07
1.43199e-07
1.41392e-07
1.39562e-07
1.37705e-07
1.35811e-07
1.33851e-07
1.31819e-07
1.29701e-07
1.27434e-07
1.25095e-07
1.22763e-07
1.20431e-07
1.18088e-07
1.15742e-07
1.13394e-07
1.11049e-07
1.08709e-07
1.06354e-07
1.03962e-07
1.01542e-07
9.91278e-08
9.67692e-08
9.45031e-08
9.2349e-08
9.03242e-08
8.84413e-08
8.67044e-08
8.51039e-08
8.36317e-08
8.22948e-08
8.11019e-08
8.00494e-08
7.91342e-08
7.83571e-08
7.77211e-08
7.72232e-08
7.68522e-08
7.65956e-08
7.64431e-08
7.63896e-08
7.64274e-08
7.65423e-08
7.67187e-08
7.69454e-08
7.72154e-08
7.75199e-08
7.78498e-08
7.81902e-08
7.85262e-08
7.88513e-08
7.91594e-08
7.94414e-08
7.96855e-08
7.98826e-08
8.00281e-08
8.01235e-08
8.01727e-08
8.01816e-08
8.01527e-08
8.00847e-08
7.9978e-08
7.9836e-08
7.96637e-08
7.94635e-08
7.92355e-08
7.89771e-08
7.86879e-08
7.83714e-08
7.80299e-08
7.76625e-08
7.72701e-08
7.68551e-08
7.64196e-08
7.59644e-08
7.54908e-08
7.5e-08
7.44926e-08
7.39697e-08
7.34328e-08
7.28826e-08
7.23199e-08
7.17455e-08
7.11617e-08
7.05705e-08
6.99724e-08
6.93665e-08
6.87512e-08
6.81271e-08
6.74952e-08
6.68553e-08
6.62061e-08
6.55472e-08
6.48789e-08
6.42016e-08
6.35131e-08
6.28133e-08
6.21034e-08
6.13849e-08
6.06584e-08
5.99244e-08
5.91849e-08
5.84402e-08
5.76916e-08
5.69412e-08
5.61904e-08
5.54382e-08
5.46847e-08
5.39331e-08
5.31849e-08
5.24416e-08
5.17045e-08
5.09758e-08
5.02542e-08
4.95406e-08
4.88354e-08
4.81413e-08
4.74593e-08
4.67901e-08
4.6134e-08
4.54918e-08
4.48631e-08
4.42505e-08
4.36559e-08
4.30786e-08
4.25215e-08
4.19777e-08
4.14516e-08
4.09321e-08
4.04323e-08
3.99421e-08
3.94591e-08
3.89914e-08
3.85167e-08
3.80369e-08
3.75967e-08
3.71518e-08
3.67199e-08
3.6324e-08
3.57685e-08
3.5226e-08
3.49101e-08
3.43636e-08
3.41114e-08
3.38235e-08
3.4419e-08
3.47725e-08
3.51797e-08
3.53242e-08
3.54024e-08
3.5332e-08
3.52052e-08
3.50432e-08
3.48776e-08
3.46974e-08
3.44843e-08
3.43522e-08
3.4053e-08
3.36997e-08
3.35636e-08
3.31514e-08
3.26865e-08
3.19668e-08
3.22011e-08
3.23885e-08
3.27774e-08
3.30992e-08
3.3233e-08
3.33069e-08
3.32895e-08
3.32841e-08
3.319e-08
3.29872e-08
3.28001e-08
3.26149e-08
3.22987e-08
3.23044e-08
3.19622e-08
3.10842e-08
3.08385e-08
3.01395e-08
2.96062e-08
2.97508e-08
3.10965e-08
3.42568e-08
3.65709e-08
4.02464e-08
4.38051e-08
4.72237e-08
5.01227e-08
5.24175e-08
5.42337e-08
5.56784e-08
5.68189e-08
5.76838e-08
5.83629e-08
5.89267e-08
5.93651e-08
5.97164e-08
6.00109e-08
6.02208e-08
6.03983e-08
6.05565e-08
6.06802e-08
6.07443e-08
6.08087e-08
6.08936e-08
6.09648e-08
6.10051e-08
6.10215e-08
6.10364e-08
6.10586e-08
6.10747e-08
6.10922e-08
6.11004e-08
6.11275e-08
6.11338e-08
6.11027e-08
6.10693e-08
6.10507e-08
6.10483e-08
6.10562e-08
6.10634e-08
6.10676e-08
6.10677e-08
6.10656e-08
6.10663e-08
6.10842e-08
6.10819e-08
6.10876e-08
6.11281e-08
6.11768e-08
6.12136e-08
6.12421e-08
6.12665e-08
6.12905e-08
6.132e-08
6.13568e-08
6.14011e-08
6.14535e-08
6.15143e-08
6.15819e-08
6.16513e-08
6.17168e-08
6.17773e-08
6.18361e-08
6.18968e-08
6.19549e-08
6.20017e-08
6.20348e-08
6.20595e-08
6.20867e-08
6.21121e-08
6.21345e-08
6.21353e-08
6.21492e-08
6.21313e-08
6.22434e-08
6.1872e-08
6.24414e-08
6.16702e-08
6.26219e-08
6.23531e-08
6.19379e-08
6.17247e-08
1.00173e-08
1.01125e-08
1.0385e-08
1.0904e-08
1.17115e-08
1.27593e-08
1.35689e-08
1.38046e-08
1.39685e-08
1.44192e-08
1.54615e-08
1.74793e-08
2.06834e-08
2.49997e-08
3.04447e-08
3.78902e-08
4.89622e-08
6.52311e-08
8.80104e-08
1.17555e-07
1.52652e-07
1.90757e-07
2.27933e-07
2.60474e-07
2.863e-07
3.03623e-07
3.1597e-07
3.30909e-07
3.50881e-07
3.6617e-07
3.65736e-07
3.48161e-07
3.24808e-07
3.01261e-07
2.78289e-07
2.52567e-07
2.18699e-07
1.79537e-07
1.47261e-07
1.30944e-07
1.31501e-07
1.41315e-07
1.43421e-07
1.31894e-07
1.14132e-07
1.02621e-07
1.01266e-07
1.08083e-07
1.1262e-07
1.06958e-07
9.33725e-08
7.93661e-08
6.82885e-08
6.11405e-08
5.8328e-08
6.05384e-08
6.85246e-08
8.18752e-08
9.56715e-08
1.01665e-07
9.91948e-08
9.4069e-08
9.00993e-08
8.47927e-08
7.47037e-08
6.19394e-08
5.17349e-08
4.55085e-08
4.34692e-08
4.53507e-08
5.05807e-08
5.80763e-08
6.62027e-08
7.29771e-08
7.85117e-08
8.58465e-08
1.0052e-07
1.24415e-07
1.49488e-07
1.71972e-07
1.97683e-07
2.27928e-07
2.66805e-07
2.99516e-07
2.93699e-07
2.6276e-07
1.98563e-07
1.34087e-07
9.33769e-08
6.59158e-08
4.84644e-08
3.86413e-08
3.44024e-08
3.40295e-08
3.69975e-08
4.21347e-08
4.9845e-08
5.84381e-08
7.32471e-08
8.82746e-08
9.26061e-08
9.19389e-08
8.54871e-08
7.80044e-08
6.74489e-08
5.49073e-08
4.45752e-08
3.58504e-08
2.97213e-08
2.63881e-08
2.487e-08
2.42267e-08
2.39266e-08
2.40677e-08
2.61553e-08
2.8681e-08
3.58037e-08
4.12578e-08
3.97571e-08
3.40014e-08
3.01277e-08
2.804e-08
2.73157e-08
2.67454e-08
2.63252e-08
2.5499e-08
2.48637e-08
2.45596e-08
2.4566e-08
2.47051e-08
2.49221e-08
2.50582e-08
2.51197e-08
2.52477e-08
2.55069e-08
2.58481e-08
2.61628e-08
2.64313e-08
2.66819e-08
2.69854e-08
2.73561e-08
2.77288e-08
2.8029e-08
2.82048e-08
2.82944e-08
2.84295e-08
2.86909e-08
2.90507e-08
2.93713e-08
2.9465e-08
2.94588e-08
2.95657e-08
2.98064e-08
3.0054e-08
3.02159e-08
3.03065e-08
3.03646e-08
3.04319e-08
3.04827e-08
3.05066e-08
3.05885e-08
3.0698e-08
3.06454e-08
3.04918e-08
3.04512e-08
3.05159e-08
3.04134e-08
3.00967e-08
2.9856e-08
2.97673e-08
2.96629e-08
2.93845e-08
2.88918e-08
2.84198e-08
2.80341e-08
2.7741e-08
2.7471e-08
2.7054e-08
2.65479e-08
2.60402e-08
2.54828e-08
2.49277e-08
2.44776e-08
2.40905e-08
2.37513e-08
2.3389e-08
2.29421e-08
2.24695e-08
2.20319e-08
2.16643e-08
2.13386e-08
2.10019e-08
2.06405e-08
2.02504e-08
1.98466e-08
1.94659e-08
1.91406e-08
1.8876e-08
1.86191e-08
1.83307e-08
1.7999e-08
1.76559e-08
1.73597e-08
1.71112e-08
1.68785e-08
1.66437e-08
1.63942e-08
1.61423e-08
1.59256e-08
1.57496e-08
1.5577e-08
1.53588e-08
1.51191e-08
1.49182e-08
1.47605e-08
1.4638e-08
1.45255e-08
1.43872e-08
1.42216e-08
1.40522e-08
1.39146e-08
1.38084e-08
1.37268e-08
1.36512e-08
1.35632e-08
1.34676e-08
1.33756e-08
1.33004e-08
1.3243e-08
1.31991e-08
1.31592e-08
1.31156e-08
1.3068e-08
1.30211e-08
1.29798e-08
1.29461e-08
1.29185e-08
1.28939e-08
1.287e-08
1.28475e-08
1.28273e-08
1.28076e-08
1.27865e-08
1.2766e-08
1.27509e-08
1.27434e-08
1.27393e-08
1.27306e-08
1.27146e-08
1.26968e-08
1.26844e-08
1.26776e-08
1.26722e-08
1.26643e-08
1.26527e-08
1.26386e-08
1.26245e-08
1.2612e-08
1.26009e-08
1.25894e-08
1.25762e-08
1.25614e-08
1.25483e-08
1.25409e-08
1.25388e-08
1.25363e-08
1.25268e-08
1.25096e-08
1.24911e-08
1.24782e-08
1.24733e-08
1.2474e-08
1.24754e-08
1.24724e-08
1.24637e-08
1.24524e-08
1.24417e-08
1.24328e-08
1.24258e-08
1.24217e-08
1.2422e-08
1.24236e-08
1.24202e-08
1.24098e-08
1.23971e-08
1.2387e-08
1.23807e-08
1.23775e-08
1.23761e-08
1.23723e-08
1.23627e-08
1.2349e-08
1.23348e-08
1.23228e-08
1.2314e-08
1.23064e-08
1.22951e-08
1.22789e-08
1.22592e-08
1.2238e-08
1.22189e-08
1.22014e-08
1.21805e-08
1.21543e-08
1.21241e-08
1.20939e-08
1.20636e-08
1.20307e-08
1.19946e-08
1.19573e-08
1.19232e-08
1.1893e-08
1.18632e-08
1.18298e-08
1.17937e-08
1.17597e-08
1.17297e-08
1.17011e-08
1.16726e-08
1.16445e-08
1.16184e-08
1.1596e-08
1.15756e-08
1.15553e-08
1.1536e-08
1.15202e-08
1.15089e-08
1.14996e-08
1.14902e-08
1.14816e-08
1.14763e-08
1.14765e-08
1.148e-08
1.14824e-08
1.14818e-08
1.14795e-08
1.14781e-08
1.14786e-08
1.14809e-08
1.14832e-08
1.14833e-08
1.1481e-08
1.14779e-08
1.14762e-08
1.14763e-08
1.14757e-08
1.14721e-08
1.14663e-08
1.1461e-08
1.14582e-08
1.14569e-08
1.1454e-08
1.14484e-08
1.14432e-08
1.14401e-08
1.14371e-08
1.14331e-08
1.14288e-08
1.14246e-08
1.14205e-08
1.14162e-08
1.14119e-08
1.14074e-08
1.14031e-08
1.13991e-08
1.13948e-08
1.13892e-08
1.13818e-08
1.13736e-08
1.13659e-08
1.13586e-08
1.13504e-08
1.134e-08
1.13279e-08
1.1316e-08
1.13045e-08
1.12927e-08
1.12802e-08
1.12678e-08
1.12557e-08
1.12419e-08
1.12254e-08
1.12078e-08
1.1191e-08
1.11748e-08
1.11587e-08
1.11427e-08
1.11253e-08
1.11065e-08
1.10878e-08
1.10707e-08
1.10536e-08
1.10347e-08
1.10151e-08
1.09966e-08
1.09776e-08
1.09594e-08
1.09425e-08
1.0926e-08
1.09085e-08
1.08891e-08
1.08688e-08
1.08502e-08
1.08324e-08
1.08153e-08
1.07986e-08
1.07792e-08
1.07584e-08
1.07382e-08
1.0719e-08
1.07025e-08
1.0685e-08
1.06694e-08
1.06486e-08
1.06315e-08
1.06175e-08
1.0601e-08
1.05927e-08
1.05842e-08
1.05634e-08
1.05477e-08
1.05439e-08
1.05635e-08
1.0604e-08
1.06345e-08
1.06269e-08
1.06981e-08
1.06948e-08
1.06317e-08
1.0517e-08
1.04417e-08
1.0438e-08
1.04438e-08
1.04454e-08
1.0454e-08
1.04405e-08
1.04227e-08
1.04053e-08
1.04025e-08
1.04147e-08
1.04776e-08
1.06135e-08
1.06899e-08
1.06351e-08
1.07186e-08
1.06567e-08
1.05669e-08
1.04663e-08
1.04285e-08
1.0418e-08
1.03651e-08
1.03018e-08
1.02694e-08
1.02778e-08
1.02888e-08
1.03104e-08
1.03175e-08
1.03169e-08
1.03153e-08
1.03856e-08
1.04364e-08
1.0612e-08
1.08484e-08
1.09137e-08
1.12046e-08
1.10007e-08
1.10362e-08
1.09864e-08
1.14097e-08
1.16011e-08
1.10756e-08
1.10262e-08
1.09773e-08
1.08862e-08
1.0758e-08
1.06656e-08
1.06315e-08
1.06299e-08
1.06359e-08
1.06311e-08
1.06216e-08
1.06244e-08
1.06252e-08
1.06257e-08
1.06315e-08
1.06236e-08
1.06196e-08
1.06242e-08
1.0631e-08
1.06207e-08
1.06111e-08
1.06162e-08
1.06236e-08
1.0626e-08
1.06194e-08
1.06116e-08
1.06094e-08
1.06056e-08
1.06042e-08
1.06002e-08
1.06039e-08
1.06051e-08
1.05931e-08
1.05779e-08
1.05655e-08
1.05578e-08
1.05545e-08
1.05523e-08
1.05491e-08
1.05453e-08
1.05408e-08
1.0535e-08
1.05337e-08
1.05267e-08
1.05191e-08
1.05198e-08
1.05237e-08
1.05247e-08
1.05224e-08
1.05175e-08
1.0511e-08
1.05042e-08
1.04987e-08
1.04944e-08
1.04912e-08
1.04887e-08
1.04863e-08
1.0483e-08
1.0479e-08
1.04751e-08
1.04719e-08
1.04703e-08
1.04696e-08
1.04681e-08
1.0465e-08
1.04612e-08
1.0459e-08
1.0458e-08
1.0458e-08
1.04542e-08
1.04522e-08
1.04538e-08
1.04482e-08
1.04414e-08
1.04369e-08
1.04391e-08
1.04819e-08
1.04998e-08
1.0617e-08
1.05713e-08
1.00062e-08
1.00406e-08
1.01504e-08
1.03841e-08
1.07154e-08
1.09986e-08
1.11471e-08
1.12669e-08
1.14579e-08
1.17799e-08
1.22889e-08
1.30837e-08
1.44809e-08
1.72676e-08
2.19028e-08
2.96507e-08
4.29871e-08
6.47435e-08
9.61204e-08
1.3706e-07
1.86664e-07
2.41313e-07
2.93876e-07
3.33811e-07
3.53977e-07
3.58497e-07
3.53641e-07
3.42227e-07
3.22108e-07
2.9048e-07
2.50934e-07
2.11638e-07
1.79528e-07
1.56878e-07
1.38086e-07
1.19897e-07
1.00124e-07
8.00147e-08
6.36059e-08
5.44807e-08
5.22482e-08
5.34516e-08
5.33202e-08
5.0016e-08
4.4331e-08
3.98875e-08
3.87535e-08
4.00114e-08
4.07829e-08
3.93624e-08
3.56465e-08
3.09215e-08
2.67105e-08
2.3866e-08
2.25528e-08
2.28255e-08
2.46606e-08
2.75381e-08
3.01008e-08
3.11796e-08
3.11281e-08
3.10902e-08
3.15099e-08
3.11459e-08
2.94156e-08
2.66659e-08
2.37994e-08
2.18396e-08
2.13487e-08
2.2141e-08
2.37772e-08
2.59064e-08
2.82843e-08
3.05069e-08
3.22783e-08
3.45584e-08
3.91224e-08
4.83727e-08
6.6122e-08
8.57238e-08
1.10703e-07
1.36562e-07
1.60876e-07
1.85589e-07
2.02694e-07
2.10668e-07
2.01965e-07
1.76637e-07
1.38946e-07
9.98959e-08
6.76544e-08
4.78642e-08
3.45906e-08
2.68498e-08
2.38066e-08
2.36342e-08
2.47796e-08
2.64927e-08
2.89027e-08
3.24491e-08
3.4018e-08
3.43904e-08
3.39518e-08
3.17479e-08
2.79451e-08
2.4178e-08
2.14914e-08
1.94124e-08
1.75942e-08
1.59833e-08
1.46976e-08
1.36299e-08
1.28762e-08
1.23755e-08
1.21329e-08
1.21981e-08
1.27982e-08
1.36895e-08
1.39269e-08
1.39336e-08
1.37933e-08
1.34776e-08
1.29686e-08
1.26565e-08
1.24297e-08
1.22328e-08
1.204e-08
1.19158e-08
1.18268e-08
1.17745e-08
1.17468e-08
1.17256e-08
1.1715e-08
1.17428e-08
1.17858e-08
1.18342e-08
1.18743e-08
1.19089e-08
1.19442e-08
1.19913e-08
1.20491e-08
1.21055e-08
1.21505e-08
1.21782e-08
1.21949e-08
1.22213e-08
1.22667e-08
1.23228e-08
1.23666e-08
1.23802e-08
1.23856e-08
1.24102e-08
1.24526e-08
1.24896e-08
1.25112e-08
1.25283e-08
1.25472e-08
1.25664e-08
1.25779e-08
1.25836e-08
1.25975e-08
1.2614e-08
1.26072e-08
1.25853e-08
1.25803e-08
1.25891e-08
1.25713e-08
1.25177e-08
1.24737e-08
1.24534e-08
1.24272e-08
1.23746e-08
1.22909e-08
1.22057e-08
1.21314e-08
1.20694e-08
1.2013e-08
1.19389e-08
1.18538e-08
1.17682e-08
1.16764e-08
1.15856e-08
1.15084e-08
1.14414e-08
1.13836e-08
1.13272e-08
1.12639e-08
1.1198e-08
1.1135e-08
1.10791e-08
1.103e-08
1.09838e-08
1.09384e-08
1.08918e-08
1.08443e-08
1.07989e-08
1.07591e-08
1.07257e-08
1.0695e-08
1.06638e-08
1.06303e-08
1.05966e-08
1.05663e-08
1.054e-08
1.05158e-08
1.04924e-08
1.0469e-08
1.04466e-08
1.04266e-08
1.04093e-08
1.03925e-08
1.03741e-08
1.03549e-08
1.03376e-08
1.03233e-08
1.03117e-08
1.03015e-08
1.02909e-08
1.02791e-08
1.02668e-08
1.02557e-08
1.02468e-08
1.02398e-08
1.02338e-08
1.02278e-08
1.02214e-08
1.02151e-08
1.02094e-08
1.02049e-08
1.02015e-08
1.01988e-08
1.01959e-08
1.01926e-08
1.01891e-08
1.01861e-08
1.01839e-08
1.01825e-08
1.01814e-08
1.01802e-08
1.0179e-08
1.01777e-08
1.01765e-08
1.01755e-08
1.01748e-08
1.01745e-08
1.01747e-08
1.01749e-08
1.01748e-08
1.01743e-08
1.01738e-08
1.01736e-08
1.01738e-08
1.01741e-08
1.0174e-08
1.01736e-08
1.01733e-08
1.0173e-08
1.01728e-08
1.01726e-08
1.01721e-08
1.01712e-08
1.01703e-08
1.01697e-08
1.01696e-08
1.01697e-08
1.01697e-08
1.01691e-08
1.01678e-08
1.01665e-08
1.01655e-08
1.01652e-08
1.01652e-08
1.01652e-08
1.01648e-08
1.01642e-08
1.01634e-08
1.01626e-08
1.01618e-08
1.01612e-08
1.01608e-08
1.01607e-08
1.01608e-08
1.01605e-08
1.01597e-08
1.01588e-08
1.01581e-08
1.01577e-08
1.01575e-08
1.01574e-08
1.01572e-08
1.01566e-08
1.01559e-08
1.01552e-08
1.01546e-08
1.01543e-08
1.01539e-08
1.01534e-08
1.01528e-08
1.0152e-08
1.01511e-08
1.01502e-08
1.01494e-08
1.01485e-08
1.01475e-08
1.01462e-08
1.01448e-08
1.01435e-08
1.01421e-08
1.01405e-08
1.01389e-08
1.01373e-08
1.01359e-08
1.01347e-08
1.01331e-08
1.01314e-08
1.01296e-08
1.01281e-08
1.01268e-08
1.01255e-08
1.01242e-08
1.0123e-08
1.0122e-08
1.0121e-08
1.01201e-08
1.01193e-08
1.01188e-08
1.01185e-08
1.01182e-08
1.01179e-08
1.01177e-08
1.01177e-08
1.0118e-08
1.01184e-08
1.01188e-08
1.01188e-08
1.01187e-08
1.01186e-08
1.01186e-08
1.01187e-08
1.01187e-08
1.01187e-08
1.01184e-08
1.01181e-08
1.01179e-08
1.01178e-08
1.01176e-08
1.01172e-08
1.01166e-08
1.01162e-08
1.01159e-08
1.01157e-08
1.01153e-08
1.01148e-08
1.01144e-08
1.01141e-08
1.01137e-08
1.01134e-08
1.0113e-08
1.01126e-08
1.01122e-08
1.01119e-08
1.01116e-08
1.01113e-08
1.01109e-08
1.01107e-08
1.01104e-08
1.011e-08
1.01096e-08
1.01091e-08
1.01087e-08
1.01084e-08
1.01079e-08
1.01073e-08
1.01066e-08
1.0106e-08
1.01054e-08
1.01048e-08
1.01041e-08
1.01035e-08
1.01028e-08
1.01021e-08
1.01012e-08
1.01002e-08
1.00993e-08
1.00984e-08
1.00975e-08
1.00966e-08
1.00956e-08
1.00946e-08
1.00935e-08
1.00925e-08
1.00915e-08
1.00905e-08
1.00894e-08
1.00884e-08
1.00873e-08
1.00862e-08
1.00852e-08
1.00843e-08
1.00833e-08
1.00821e-08
1.00809e-08
1.00798e-08
1.00788e-08
1.00778e-08
1.00769e-08
1.00757e-08
1.00746e-08
1.00735e-08
1.00724e-08
1.00715e-08
1.00708e-08
1.00703e-08
1.00693e-08
1.00688e-08
1.00685e-08
1.00677e-08
1.00666e-08
1.00664e-08
1.00665e-08
1.00673e-08
1.00678e-08
1.00669e-08
1.00678e-08
1.00681e-08
1.00667e-08
1.00662e-08
1.00655e-08
1.00654e-08
1.00647e-08
1.00641e-08
1.00631e-08
1.00614e-08
1.00595e-08
1.0058e-08
1.00573e-08
1.00569e-08
1.00572e-08
1.00584e-08
1.00595e-08
1.00596e-08
1.0063e-08
1.00618e-08
1.00585e-08
1.00544e-08
1.00536e-08
1.00538e-08
1.00538e-08
1.00541e-08
1.00536e-08
1.00526e-08
1.00525e-08
1.00516e-08
1.00519e-08
1.00518e-08
1.00515e-08
1.00522e-08
1.0053e-08
1.00556e-08
1.00641e-08
1.00714e-08
1.00831e-08
1.00922e-08
1.00987e-08
1.00902e-08
1.00963e-08
1.01047e-08
1.00934e-08
1.0112e-08
1.01205e-08
1.01154e-08
1.01103e-08
1.00998e-08
1.00879e-08
1.00767e-08
1.00683e-08
1.00627e-08
1.0059e-08
1.00566e-08
1.00546e-08
1.00531e-08
1.00521e-08
1.00514e-08
1.00508e-08
1.00505e-08
1.00501e-08
1.00499e-08
1.005e-08
1.00503e-08
1.00503e-08
1.00503e-08
1.00505e-08
1.00508e-08
1.00511e-08
1.00512e-08
1.00512e-08
1.00513e-08
1.00513e-08
1.00514e-08
1.00514e-08
1.00516e-08
1.00516e-08
1.00513e-08
1.00509e-08
1.00507e-08
1.00505e-08
1.00505e-08
1.00505e-08
1.00505e-08
1.00506e-08
1.00506e-08
1.00506e-08
1.00507e-08
1.00506e-08
1.00506e-08
1.00506e-08
1.00507e-08
1.00508e-08
1.00507e-08
1.00506e-08
1.00505e-08
1.00503e-08
1.00502e-08
1.00502e-08
1.00502e-08
1.00501e-08
1.005e-08
1.00499e-08
1.00497e-08
1.00495e-08
1.00495e-08
1.00495e-08
1.00496e-08
1.00496e-08
1.00495e-08
1.00494e-08
1.00493e-08
1.00493e-08
1.00493e-08
1.00492e-08
1.0049e-08
1.00491e-08
1.00491e-08
1.00488e-08
1.00487e-08
1.00491e-08
1.00503e-08
1.00522e-08
1.00554e-08
1.00553e-08
1.00048e-08
1.00286e-08
1.01057e-08
1.02542e-08
1.04416e-08
1.06029e-08
1.07388e-08
1.09232e-08
1.12283e-08
1.17247e-08
1.24751e-08
1.35248e-08
1.51449e-08
1.77864e-08
2.20291e-08
2.86741e-08
3.8756e-08
5.34835e-08
7.47056e-08
1.02669e-07
1.34675e-07
1.65317e-07
1.87909e-07
2.02064e-07
2.19639e-07
2.3738e-07
2.45703e-07
2.38767e-07
2.12374e-07
1.75466e-07
1.3898e-07
1.09115e-07
8.85296e-08
7.53843e-08
6.57769e-08
5.66363e-08
4.67814e-08
3.78512e-08
3.11676e-08
2.71411e-08
2.55783e-08
2.53662e-08
2.50811e-08
2.40267e-08
2.22553e-08
2.07388e-08
2.01995e-08
2.04299e-08
2.05049e-08
2.00675e-08
1.89574e-08
1.74728e-08
1.61319e-08
1.51267e-08
1.45084e-08
1.43423e-08
1.46462e-08
1.50914e-08
1.53426e-08
1.54604e-08
1.57169e-08
1.62753e-08
1.68526e-08
1.70215e-08
1.6771e-08
1.60947e-08
1.52712e-08
1.45619e-08
1.43467e-08
1.46268e-08
1.52471e-08
1.61343e-08
1.71966e-08
1.84817e-08
2.00407e-08
2.16559e-08
2.34842e-08
2.60031e-08
3.09908e-08
3.85248e-08
5.10228e-08
6.99608e-08
8.92192e-08
1.10393e-07
1.25738e-07
1.33239e-07
1.35823e-07
1.29333e-07
1.15492e-07
9.76265e-08
7.93648e-08
6.17335e-08
4.64e-08
3.46649e-08
2.68089e-08
2.20597e-08
1.94098e-08
1.82572e-08
1.80171e-08
1.80896e-08
1.78954e-08
1.76906e-08
1.76744e-08
1.72362e-08
1.66037e-08
1.59825e-08
1.52801e-08
1.46732e-08
1.41067e-08
1.37356e-08
1.34238e-08
1.30428e-08
1.25647e-08
1.20619e-08
1.15941e-08
1.12176e-08
1.09513e-08
1.07976e-08
1.07021e-08
1.06809e-08
1.0695e-08
1.06783e-08
1.06655e-08
1.06516e-08
1.06128e-08
1.05483e-08
1.05013e-08
1.04579e-08
1.04167e-08
1.03791e-08
1.03535e-08
1.03347e-08
1.03222e-08
1.03155e-08
1.03165e-08
1.03217e-08
1.03269e-08
1.03335e-08
1.03397e-08
1.0346e-08
1.03534e-08
1.03612e-08
1.0368e-08
1.03727e-08
1.03762e-08
1.03812e-08
1.03887e-08
1.03969e-08
1.04028e-08
1.04053e-08
1.0408e-08
1.04136e-08
1.04212e-08
1.04269e-08
1.043e-08
1.04333e-08
1.04379e-08
1.04427e-08
1.04456e-08
1.04472e-08
1.04491e-08
1.04506e-08
1.04493e-08
1.04466e-08
1.04458e-08
1.04458e-08
1.0442e-08
1.04329e-08
1.04243e-08
1.0419e-08
1.04127e-08
1.04028e-08
1.03888e-08
1.03736e-08
1.03596e-08
1.03473e-08
1.03361e-08
1.03232e-08
1.03088e-08
1.02942e-08
1.02788e-08
1.02638e-08
1.02506e-08
1.02389e-08
1.02287e-08
1.02193e-08
1.02094e-08
1.01994e-08
1.01896e-08
1.01806e-08
1.01727e-08
1.01655e-08
1.01588e-08
1.01524e-08
1.01459e-08
1.01396e-08
1.01341e-08
1.01292e-08
1.01249e-08
1.01208e-08
1.01167e-08
1.01125e-08
1.01088e-08
1.01054e-08
1.01024e-08
1.00995e-08
1.00967e-08
1.00942e-08
1.00918e-08
1.00897e-08
1.00876e-08
1.00856e-08
1.00835e-08
1.00817e-08
1.00801e-08
1.00787e-08
1.00774e-08
1.00761e-08
1.00749e-08
1.00736e-08
1.00724e-08
1.00714e-08
1.00705e-08
1.00697e-08
1.00689e-08
1.00682e-08
1.00675e-08
1.00668e-08
1.00662e-08
1.00657e-08
1.00652e-08
1.00647e-08
1.00643e-08
1.00638e-08
1.00634e-08
1.00631e-08
1.00628e-08
1.00625e-08
1.00623e-08
1.0062e-08
1.00618e-08
1.00615e-08
1.00613e-08
1.00611e-08
1.0061e-08
1.00608e-08
1.00607e-08
1.00606e-08
1.00605e-08
1.00603e-08
1.00602e-08
1.00602e-08
1.00601e-08
1.006e-08
1.00599e-08
1.00599e-08
1.00598e-08
1.00597e-08
1.00597e-08
1.00596e-08
1.00595e-08
1.00594e-08
1.00593e-08
1.00592e-08
1.00592e-08
1.00591e-08
1.0059e-08
1.00589e-08
1.00588e-08
1.00587e-08
1.00586e-08
1.00586e-08
1.00585e-08
1.00584e-08
1.00584e-08
1.00583e-08
1.00582e-08
1.00581e-08
1.0058e-08
1.0058e-08
1.00579e-08
1.00579e-08
1.00578e-08
1.00577e-08
1.00577e-08
1.00576e-08
1.00575e-08
1.00575e-08
1.00574e-08
1.00574e-08
1.00573e-08
1.00573e-08
1.00572e-08
1.00571e-08
1.0057e-08
1.00569e-08
1.00568e-08
1.00567e-08
1.00566e-08
1.00565e-08
1.00564e-08
1.00562e-08
1.00561e-08
1.0056e-08
1.00558e-08
1.00556e-08
1.00555e-08
1.00553e-08
1.00551e-08
1.00549e-08
1.00547e-08
1.00545e-08
1.00543e-08
1.00541e-08
1.00539e-08
1.00537e-08
1.00534e-08
1.00532e-08
1.0053e-08
1.00528e-08
1.00526e-08
1.00524e-08
1.00522e-08
1.0052e-08
1.00518e-08
1.00516e-08
1.00515e-08
1.00513e-08
1.00512e-08
1.0051e-08
1.00508e-08
1.00507e-08
1.00506e-08
1.00505e-08
1.00503e-08
1.00502e-08
1.00501e-08
1.00499e-08
1.00498e-08
1.00497e-08
1.00495e-08
1.00494e-08
1.00493e-08
1.00492e-08
1.00491e-08
1.00489e-08
1.00488e-08
1.00487e-08
1.00485e-08
1.00484e-08
1.00483e-08
1.00482e-08
1.00481e-08
1.0048e-08
1.00479e-08
1.00478e-08
1.00477e-08
1.00476e-08
1.00475e-08
1.00474e-08
1.00473e-08
1.00473e-08
1.00472e-08
1.00471e-08
1.0047e-08
1.0047e-08
1.00469e-08
1.00468e-08
1.00467e-08
1.00466e-08
1.00465e-08
1.00465e-08
1.00464e-08
1.00462e-08
1.00461e-08
1.0046e-08
1.00459e-08
1.00458e-08
1.00457e-08
1.00456e-08
1.00455e-08
1.00453e-08
1.00452e-08
1.0045e-08
1.00449e-08
1.00448e-08
1.00447e-08
1.00445e-08
1.00444e-08
1.00443e-08
1.00441e-08
1.0044e-08
1.00439e-08
1.00438e-08
1.00436e-08
1.00435e-08
1.00434e-08
1.00432e-08
1.00431e-08
1.00429e-08
1.00428e-08
1.00427e-08
1.00425e-08
1.00423e-08
1.00422e-08
1.00419e-08
1.00418e-08
1.00417e-08
1.00417e-08
1.00417e-08
1.00417e-08
1.00416e-08
1.00417e-08
1.00417e-08
1.00415e-08
1.00419e-08
1.00422e-08
1.00424e-08
1.00426e-08
1.00428e-08
1.00434e-08
1.00437e-08
1.0043e-08
1.00425e-08
1.0042e-08
1.00418e-08
1.00414e-08
1.00413e-08
1.00409e-08
1.00402e-08
1.00404e-08
1.00406e-08
1.00407e-08
1.00411e-08
1.00413e-08
1.00415e-08
1.00417e-08
1.00421e-08
1.0043e-08
1.00435e-08
1.00427e-08
1.00417e-08
1.00408e-08
1.00405e-08
1.004e-08
1.00397e-08
1.00393e-08
1.00389e-08
1.0039e-08
1.00391e-08
1.00393e-08
1.00392e-08
1.004e-08
1.00404e-08
1.00406e-08
1.00417e-08
1.00446e-08
1.00497e-08
1.00568e-08
1.00648e-08
1.00696e-08
1.00692e-08
1.00656e-08
1.0061e-08
1.00553e-08
1.00519e-08
1.00493e-08
1.0047e-08
1.00454e-08
1.00445e-08
1.00439e-08
1.00433e-08
1.00425e-08
1.00415e-08
1.00406e-08
1.00397e-08
1.00388e-08
1.00381e-08
1.00376e-08
1.0037e-08
1.00365e-08
1.00361e-08
1.00357e-08
1.00354e-08
1.00351e-08
1.00349e-08
1.00348e-08
1.00347e-08
1.00347e-08
1.00347e-08
1.00347e-08
1.00347e-08
1.00347e-08
1.00347e-08
1.00347e-08
1.00348e-08
1.00349e-08
1.0035e-08
1.00351e-08
1.00351e-08
1.00352e-08
1.00352e-08
1.00351e-08
1.00351e-08
1.0035e-08
1.0035e-08
1.0035e-08
1.00351e-08
1.00351e-08
1.00352e-08
1.00352e-08
1.00353e-08
1.00353e-08
1.00353e-08
1.00353e-08
1.00353e-08
1.00353e-08
1.00352e-08
1.00351e-08
1.0035e-08
1.0035e-08
1.00349e-08
1.0035e-08
1.0035e-08
1.0035e-08
1.00349e-08
1.00348e-08
1.00346e-08
1.00345e-08
1.00344e-08
1.00343e-08
1.00343e-08
1.00343e-08
1.00343e-08
1.00342e-08
1.00342e-08
1.00342e-08
1.00342e-08
1.00341e-08
1.0034e-08
1.00339e-08
1.00339e-08
1.00339e-08
1.00338e-08
1.00338e-08
1.00341e-08
1.00347e-08
1.00356e-08
1.00373e-08
1.00372e-08
1.0004e-08
1.00234e-08
1.00793e-08
1.01831e-08
1.03156e-08
1.04455e-08
1.05868e-08
1.07989e-08
1.11578e-08
1.17789e-08
1.28178e-08
1.43856e-08
1.65069e-08
1.92814e-08
2.30468e-08
2.83094e-08
3.55894e-08
4.54349e-08
5.83975e-08
7.44556e-08
9.12574e-08
1.04569e-07
1.1394e-07
1.23541e-07
1.34689e-07
1.44257e-07
1.45351e-07
1.3364e-07
1.12189e-07
8.82441e-08
6.79985e-08
5.33711e-08
4.39594e-08
3.81811e-08
3.37995e-08
2.93949e-08
2.50569e-08
2.14215e-08
1.88032e-08
1.71905e-08
1.62562e-08
1.58491e-08
1.56244e-08
1.524e-08
1.46962e-08
1.42651e-08
1.40649e-08
1.40545e-08
1.40353e-08
1.38605e-08
1.35183e-08
1.3026e-08
1.25636e-08
1.21927e-08
1.19335e-08
1.1789e-08
1.17732e-08
1.17839e-08
1.17955e-08
1.18397e-08
1.19704e-08
1.22273e-08
1.25349e-08
1.27112e-08
1.26857e-08
1.25394e-08
1.23071e-08
1.21161e-08
1.20199e-08
1.20796e-08
1.228e-08
1.26219e-08
1.30993e-08
1.37195e-08
1.44978e-08
1.53688e-08
1.62976e-08
1.76396e-08
1.93498e-08
2.1396e-08
2.41286e-08
2.94181e-08
3.60377e-08
4.61892e-08
5.73738e-08
6.54994e-08
7.14515e-08
7.36211e-08
7.08072e-08
6.42146e-08
5.64916e-08
4.80851e-08
4.01076e-08
3.33346e-08
2.77337e-08
2.31989e-08
1.97193e-08
1.72634e-08
1.56684e-08
1.46405e-08
1.39921e-08
1.35891e-08
1.33015e-08
1.29806e-08
1.2729e-08
1.25712e-08
1.24238e-08
1.22836e-08
1.21803e-08
1.21519e-08
1.2142e-08
1.2107e-08
1.20649e-08
1.19913e-08
1.18428e-08
1.16155e-08
1.13429e-08
1.10599e-08
1.08075e-08
1.05982e-08
1.04447e-08
1.03366e-08
1.02805e-08
1.02541e-08
1.02384e-08
1.02318e-08
1.02301e-08
1.02276e-08
1.02237e-08
1.02183e-08
1.02052e-08
1.0187e-08
1.01689e-08
1.01543e-08
1.01438e-08
1.0137e-08
1.01321e-08
1.01284e-08
1.01258e-08
1.0124e-08
1.01234e-08
1.01236e-08
1.0124e-08
1.01244e-08
1.01249e-08
1.01257e-08
1.01269e-08
1.01281e-08
1.01289e-08
1.01295e-08
1.01302e-08
1.01314e-08
1.01328e-08
1.01337e-08
1.01343e-08
1.0135e-08
1.0136e-08
1.0137e-08
1.01377e-08
1.01381e-08
1.01383e-08
1.01383e-08
1.0138e-08
1.01376e-08
1.01373e-08
1.01369e-08
1.01359e-08
1.01342e-08
1.01323e-08
1.01309e-08
1.01293e-08
1.01272e-08
1.01246e-08
1.01216e-08
1.01187e-08
1.01162e-08
1.01138e-08
1.01113e-08
1.01086e-08
1.01058e-08
1.0103e-08
1.01003e-08
1.00978e-08
1.00956e-08
1.00936e-08
1.00918e-08
1.009e-08
1.00883e-08
1.00866e-08
1.0085e-08
1.00835e-08
1.00822e-08
1.0081e-08
1.00799e-08
1.00788e-08
1.00777e-08
1.00767e-08
1.00758e-08
1.0075e-08
1.00742e-08
1.00735e-08
1.00727e-08
1.0072e-08
1.00713e-08
1.00707e-08
1.00701e-08
1.00695e-08
1.00689e-08
1.00684e-08
1.00678e-08
1.00673e-08
1.00668e-08
1.00663e-08
1.00658e-08
1.00653e-08
1.00648e-08
1.00644e-08
1.0064e-08
1.00636e-08
1.00631e-08
1.00627e-08
1.00623e-08
1.00619e-08
1.00615e-08
1.00612e-08
1.00609e-08
1.00605e-08
1.00602e-08
1.00599e-08
1.00596e-08
1.00593e-08
1.0059e-08
1.00587e-08
1.00585e-08
1.00582e-08
1.0058e-08
1.00577e-08
1.00575e-08
1.00573e-08
1.00571e-08
1.00569e-08
1.00567e-08
1.00565e-08
1.00564e-08
1.00562e-08
1.0056e-08
1.00559e-08
1.00558e-08
1.00556e-08
1.00555e-08