/*--------------------------------*- C++ -*----------------------------------*\
| =========                 |                                                 |
| \\      /  F ield         | OpenFOAM: The Open Source CFD Toolbox           |
|  \\    /   O peration     | Version:  v2006                                 |
|   \\  /    A nd           | Website:  www.openfoam.com                      |
|    \\/     M anipulation  |                                                 |
\*---------------------------------------------------------------------------*/
FoamFile
{
    version     2.0;
    format      ascii;
    class       volScalarField;
    location    "7.2";
    object      p_rgh;
}
// * * * * * * * * * * * * * * * * * * * * * * * * * * * * * * * * * * * * * //

dimensions      [1 -1 -2 0 0 0 0];


internalField   nonuniform List<scalar> 
33000
(
8326.47
8329.7
8332.29
8334.5
8336.62
8338.74
8340.85
8342.97
8344.91
8346.39
8347.02
8346.77
8346.22
8346.02
8346.39
8347.04
8347.58
8348.11
8348.46
8348.62
8348.67
8348.52
8348.26
8348.08
8348.08
8347.97
8348.16
8348.9
8349.4
8349.22
8348.8
8348.26
8347.64
8346.94
8346.14
8345.29
8344.47
8343.62
8342.68
8341.69
8340.66
8339.56
8338.49
8337.4
8336.23
8335.08
8333.88
8332.66
8331.34
8330.08
8328.8
8327.53
8326.21
8324.87
8323.51
8322.13
8320.74
8319.32
8317.92
8316.5
8315.13
8313.79
8312.44
8311.12
8309.81
8308.51
8307.26
8306.02
8304.82
8303.69
8302.62
8301.65
8300.82
8300.23
8299.9
8299.91
8300.52
8300.67
8294.27
8281.15
8288.86
8286.35
8282.45
8281.67
8279.53
8276.13
8275.21
8273.32
8271.59
8269.41
8267.81
8265.93
8264.15
8262.78
8261.67
8260.38
8260.47
8259.19
8262.08
8259.25
8250.91
8248.11
8244.12
8240.28
8237.13
8232.74
8227.99
8223.06
8218.44
8214.03
8209.06
8204.23
8199.05
8193.66
8188.59
8182.8
8179.42
8172.42
8161.24
8153.75
8144.62
8135.09
8125.7
8115.32
8103.93
8092.54
8080.63
8068.34
8055.78
8042.74
8029.25
8015.44
8001.26
7986.89
7972.22
7957.28
7942.08
7926.64
7910.98
7895.12
7879.11
7862.94
7846.67
7830.36
7814.04
7797.74
7781.46
7765.27
7749.18
7733.25
7717.56
7702.08
7686.85
7671.9
7657.27
7643
7629.12
7615.63
7602.56
7589.92
7577.73
7566
7554.76
7544.02
7533.76
7523.98
7514.71
7505.93
7497.64
7489.81
7482.44
7475.51
7469.04
7462.95
7457.23
7451.83
7446.75
7441.97
7437.45
7433.14
7429.01
7425.03
7421.18
7417.5
7414.01
7410.74
7407.72
7404.95
7402.46
7400.24
7398.35
7396.78
7395.55
7394.64
7394.06
7393.81
7393.9
7394.31
7395.08
7396.18
7397.63
7399.4
7401.48
7403.86
7406.56
7409.54
7412.83
7416.4
7420.22
7424.3
7428.63
7433.22
7438.03
7443.04
7448.26
7453.65
7459.24
7465.01
7470.95
7477.03
7483.24
7489.57
7496.01
7502.56
7509.21
7515.95
7522.75
7529.62
7536.53
7543.48
7550.47
7557.49
7564.53
7571.57
7578.62
7585.66
7592.68
7599.68
7606.66
7613.6
7620.51
7627.38
7634.2
7640.98
7647.69
7654.34
7660.91
7667.43
7673.89
7680.27
7686.57
7692.8
7698.93
7704.99
7710.98
7716.88
7722.69
7728.42
7734.05
7739.6
7745.06
7750.43
7755.71
7760.89
7765.99
7770.98
7775.88
7780.7
7785.42
7790.04
7794.57
7799
7803.32
7807.55
7811.69
7815.73
7819.68
7823.52
7827.26
7830.91
7834.45
7837.9
7841.25
7844.5
7847.66
7850.72
7853.68
7856.55
7859.32
7861.99
7864.58
7867.08
7869.49
7871.81
7874.04
7876.19
7878.25
7880.24
7882.15
7883.98
7885.74
7887.43
7889.05
7890.6
7892.1
7893.53
7894.91
7896.23
7897.51
7898.73
7899.92
7901.07
7902.17
7903.25
7904.3
7905.33
7906.33
7907.32
7908.29
7909.26
7910.22
7911.18
7912.13
7913.09
7914.06
7915.04
7916.03
7917.03
7918.05
7919.09
7920.15
7921.22
7922.32
7923.44
7924.58
7925.74
7926.92
7928.12
7929.34
7930.58
7931.83
7933.11
7934.4
7935.71
7937.03
7938.36
7939.71
7941.07
7942.45
7943.83
7945.22
7946.62
7948.02
7949.44
7950.85
7952.27
7953.69
7955.11
7956.52
7957.94
7959.34
7960.74
7962.13
7963.5
7964.86
7966.2
7967.53
7968.83
7970.12
7971.38
7972.61
7973.81
7974.98
7976.12
7977.23
7978.29
7979.32
7980.31
7981.26
7982.16
7983.02
7983.83
7984.59
7985.31
7985.97
7986.59
7987.15
7987.66
7988.12
7988.53
7988.88
7989.18
7989.42
7989.61
7989.75
7989.84
7989.88
7989.86
7989.8
7989.69
7989.52
7989.31
7989.06
7988.76
7988.41
7988.02
7987.59
7987.12
7986.61
7986.06
7985.48
7984.85
7984.2
7983.51
7982.78
7982.03
7981.25
7980.44
7979.61
7978.76
7977.88
7976.97
7976.07
7975.11
7974.16
7973.24
7972.26
7971.25
7970.33
7969.11
7968.18
7967.46
7966.48
7965.56
7964.52
7963.5
7962.42
7961.32
7960.2
7959.03
7957.88
7956.67
7955.48
7954.28
7953.06
7951.81
7950.62
7949.24
7948.03
7946.96
7945.71
7944.51
7943.21
7941.96
7940.62
7939.32
7937.95
7936.63
7935.26
7933.92
7932.53
7931.21
7929.78
7928.49
7927.21
7925.91
7924.59
7923.49
7921.65
7920.82
7920.05
7919.11
7918.12
7917.09
7916.02
7914.94
7913.84
7912.73
7911.61
7910.48
7909.36
7908.23
7907.11
7905.99
7904.87
7903.76
7902.65
7901.55
7900.47
7899.39
7898.32
7897.26
7896.22
7895.18
7894.17
7893.16
7892.17
7891.2
7890.24
7889.31
7888.38
7887.48
7886.59
7885.73
7884.88
7884.05
7883.24
7882.45
7881.68
7880.94
7880.21
7879.51
7878.83
7878.17
7877.53
7876.91
7876.32
7875.75
7875.2
7874.67
7874.17
7873.69
7873.23
7872.8
7872.39
7872.01
7871.64
7871.31
7870.99
7870.7
7870.43
7870.19
7869.96
7869.77
7869.59
7869.44
7869.32
7869.21
7869.14
7869.08
7869.05
7869.04
7869.04
7869.11
7869.13
7869.28
7869.31
7869.54
7869.56
7869.94
8326.65
8329.88
8332.46
8334.62
8336.7
8338.76
8340.72
8342.45
8343.68
8344.75
8345.26
8345.07
8344.67
8345.08
8346.03
8346.96
8347.69
8348.31
8348.69
8348.78
8348.64
8348.19
8347.63
8347.18
8347.03
8347.29
8347.79
8348.51
8349.19
8349.24
8348.95
8348.42
8347.79
8347.08
8346.17
8345.33
8344.49
8343.73
8342.85
8341.85
8340.81
8339.59
8338.45
8337.35
8336.3
8335.18
8333.97
8332.67
8331.34
8330.05
8328.83
8327.57
8326.26
8324.91
8323.53
8322.14
8320.77
8319.28
8317.79
8316.43
8315.05
8313.67
8312.36
8311.02
8309.7
8308.37
8307.13
8305.88
8304.66
8303.42
8302.22
8301.16
8300.19
8299.35
8298.59
8297.75
8296.88
8295.84
8294.73
8295.15
8295.55
8287.9
8272.42
8282.33
8279.6
8277.29
8276.41
8273.87
8272.01
8267.74
8267.46
8265.11
8263.73
8262.06
8260.67
8258.93
8257.87
8256.43
8255.41
8253.63
8251.41
8253.57
8249.46
8238.92
8235.2
8230.23
8227.3
8222.92
8220.22
8215.64
8209.79
8204.5
8198.76
8193.2
8187.77
8181.98
8176
8169.55
8161.88
8157.25
8148.53
8135.02
8125.53
8114.73
8103.97
8093.37
8081.72
8069.05
8056.32
8043.09
8029.6
8015.89
8001.76
7987.34
7972.64
7957.63
7942.41
7926.92
7911.28
7895.41
7879.38
7863.14
7846.84
7830.49
7814.12
7797.79
7781.5
7765.25
7749.09
7733.12
7717.4
7701.92
7686.65
7671.66
7656.98
7642.69
7628.77
7615.27
7602.19
7589.53
7577.33
7565.57
7554.33
7543.6
7533.33
7523.53
7514.27
7505.51
7497.23
7489.39
7482.01
7475.1
7468.64
7462.56
7456.84
7451.44
7446.34
7441.55
7437.01
7432.69
7428.58
7424.61
7420.76
7417.06
7413.53
7410.23
7407.23
7404.46
7401.96
7399.73
7397.82
7396.24
7394.99
7394.1
7393.53
7393.29
7393.36
7393.78
7394.55
7395.66
7397.14
7398.91
7401
7403.38
7406.09
7409.09
7412.4
7415.98
7419.82
7423.89
7428.25
7432.86
7437.69
7442.72
7447.95
7453.35
7458.96
7464.74
7470.7
7476.81
7483.04
7489.38
7495.82
7502.39
7509.05
7515.8
7522.63
7529.51
7536.44
7543.39
7550.39
7557.42
7564.47
7571.54
7578.61
7585.65
7592.69
7599.69
7606.67
7613.61
7620.53
7627.41
7634.24
7641.03
7647.75
7654.4
7660.97
7667.5
7673.96
7680.36
7686.66
7692.89
7699.02
7705.09
7711.07
7716.97
7722.79
7728.52
7734.16
7739.71
7745.17
7750.54
7755.83
7761.01
7766.1
7771.09
7776
7780.82
7785.54
7790.17
7794.69
7799.12
7803.44
7807.67
7811.81
7815.85
7819.8
7823.64
7827.38
7831.03
7834.57
7838.01
7841.35
7844.61
7847.77
7850.82
7853.78
7856.65
7859.41
7862.09
7864.67
7867.16
7869.57
7871.88
7874.11
7876.26
7878.31
7880.3
7882.2
7884.03
7885.78
7887.47
7889.08
7890.63
7892.12
7893.55
7894.92
7896.24
7897.5
7898.73
7899.91
7901.05
7902.15
7903.23
7904.27
7905.3
7906.3
7907.28
7908.25
7909.22
7910.18
7911.13
7912.09
7913.05
7914.01
7914.99
7915.98
7916.98
7918
7919.04
7920.09
7921.17
7922.27
7923.38
7924.52
7925.68
7926.87
7928.07
7929.29
7930.53
7931.78
7933.06
7934.35
7935.66
7936.98
7938.32
7939.67
7941.03
7942.41
7943.79
7945.19
7946.59
7948
7949.41
7950.83
7952.25
7953.68
7955.1
7956.52
7957.93
7959.34
7960.75
7962.14
7963.52
7964.88
7966.23
7967.56
7968.87
7970.16
7971.42
7972.66
7973.86
7975.04
7976.18
7977.29
7978.36
7979.4
7980.39
7981.34
7982.24
7983.1
7983.92
7984.69
7985.4
7986.07
7986.69
7987.25
7987.76
7988.22
7988.63
7988.98
7989.28
7989.53
7989.72
7989.86
7989.95
7989.98
7989.97
7989.9
7989.79
7989.62
7989.41
7989.16
7988.85
7988.51
7988.11
7987.68
7987.21
7986.7
7986.15
7985.56
7984.94
7984.28
7983.59
7982.86
7982.11
7981.33
7980.53
7979.68
7978.83
7977.92
7977.03
7976.15
7975.22
7974.24
7973.29
7972.09
7971.11
7970.46
7969.46
7968.58
7967.63
7966.67
7965.68
7964.65
7963.6
7962.5
7961.4
7960.23
7959.09
7957.93
7956.76
7955.52
7954.33
7952.93
7951.72
7950.68
7949.46
7948.26
7947.08
7945.81
7944.57
7943.26
7941.98
7940.67
7939.34
7938.02
7936.62
7935.3
7933.82
7932.55
7931.19
7929.93
7928.5
7927.24
7925.21
7924.26
7923.44
7922.42
7921.37
7920.35
7919.32
7918.26
7917.19
7916.1
7914.99
7913.88
7912.76
7911.63
7910.5
7909.37
7908.24
7907.11
7905.99
7904.86
7903.75
7902.64
7901.54
7900.45
7899.36
7898.29
7897.23
7896.18
7895.15
7894.13
7893.13
7892.13
7891.16
7890.2
7889.26
7888.34
7887.43
7886.55
7885.68
7884.83
7884
7883.19
7882.4
7881.64
7880.89
7880.16
7879.46
7878.77
7878.11
7877.47
7876.86
7876.26
7875.69
7875.14
7874.62
7874.11
7873.63
7873.18
7872.74
7872.33
7871.95
7871.59
7871.25
7870.93
7870.64
7870.37
7870.13
7869.91
7869.71
7869.53
7869.38
7869.26
7869.16
7869.08
7869.02
7868.99
7868.99
7868.99
7869.06
7869.08
7869.22
7869.26
7869.49
7869.51
7869.89
8327.03
8330.22
8332.78
8334.9
8336.95
8338.99
8340.77
8341.98
8342.37
8342.08
8341.48
8340.93
8341.34
8343.07
8345.07
8346.65
8347.91
8348.77
8349.21
8349.33
8349.15
8348.65
8348.1
8347.65
8347.4
8347.44
8347.79
8348.28
8348.76
8348.92
8348.71
8348.3
8347.76
8346.98
8346.13
8345.33
8344.5
8343.87
8343.04
8342.05
8340.97
8339.66
8338.49
8337.45
8336.49
8335.36
8334.12
8332.73
8331.37
8330.04
8328.87
8327.66
8326.35
8324.99
8323.61
8322.21
8320.64
8319.1
8317.76
8316.46
8315.19
8313.63
8312.12
8310.73
8309.35
8308.17
8306.97
8305.71
8304.44
8303.05
8301.81
8300.64
8299.59
8298.6
8297.52
8296.4
8295.2
8293.83
8292.01
8289.78
8288.19
8287.08
8288.04
8289.26
8281.29
8264.35
8273.76
8273.66
8272.72
8269.16
8268.09
8266.03
8261.91
8261.71
8259.47
8258.06
8256.52
8254.89
8253.13
8251.1
8248.05
8245.89
8243.38
8240.94
8243.67
8238.55
8226.71
8221.52
8216.42
8213
8208.52
8205.38
8200.09
8193.87
8187.71
8181.35
8175.22
8168.47
8160.88
8152.8
8144.84
8136
8130.49
8120.28
8104.61
8093.61
8081.32
8069.39
8057.64
8044.76
8030.72
8016.76
8002.37
7988.06
7973.42
7958.59
7943.33
7927.76
7912.03
7896.09
7879.96
7863.65
7847.25
7830.82
7814.35
7797.97
7781.56
7765.16
7748.93
7732.9
7717.15
7701.57
7686.19
7671.07
7656.4
7642.11
7628.11
7614.48
7601.34
7588.69
7576.47
7564.68
7553.42
7542.68
7532.41
7522.57
7513.31
7504.59
7496.31
7488.45
7481.09
7474.19
7467.75
7461.69
7455.96
7450.56
7445.41
7440.59
7436.03
7431.67
7427.56
7423.6
7419.75
7416.05
7412.5
7409.19
7406.14
7403.4
7400.92
7398.7
7396.78
7395.15
7393.89
7392.98
7392.45
7392.22
7392.3
7392.71
7393.5
7394.65
7396.14
7397.93
7400.01
7402.43
7405.16
7408.21
7411.54
7415.14
7418.98
7423.09
7427.49
7432.16
7437.01
7442.08
7447.34
7452.77
7458.39
7464.21
7470.21
7476.36
7482.62
7489
7495.47
7502.05
7508.74
7515.52
7522.39
7529.3
7536.25
7543.23
7550.24
7557.3
7564.4
7571.49
7578.57
7585.63
7592.67
7599.67
7606.67
7613.65
7620.6
7627.52
7634.36
7641.14
7647.87
7654.52
7661.1
7667.64
7674.12
7680.53
7686.84
7693.07
7699.21
7705.28
7711.29
7717.2
7723.01
7728.73
7734.35
7739.92
7745.41
7750.78
7756.06
7761.25
7766.33
7771.32
7776.23
7781.06
7785.79
7790.41
7794.94
7799.36
7803.69
7807.91
7812.05
7816.08
7820.02
7823.88
7827.62
7831.26
7834.8
7838.23
7841.57
7844.83
7847.99
7851.04
7853.99
7856.84
7859.61
7862.27
7864.85
7867.34
7869.73
7872.04
7874.26
7876.4
7878.45
7880.42
7882.3
7884.12
7885.87
7887.54
7889.15
7890.69
7892.16
7893.57
7894.94
7896.25
7897.51
7898.72
7899.89
7901.02
7902.12
7903.18
7904.22
7905.24
7906.23
7907.21
7908.18
7909.14
7910.09
7911.04
7912
7912.96
7913.92
7914.9
7915.88
7916.88
7917.9
7918.93
7919.99
7921.06
7922.16
7923.28
7924.42
7925.58
7926.76
7927.96
7929.18
7930.43
7931.68
7932.96
7934.26
7935.57
7936.89
7938.23
7939.59
7940.96
7942.34
7943.73
7945.13
7946.53
7947.95
7949.37
7950.8
7952.22
7953.65
7955.08
7956.51
7957.93
7959.35
7960.76
7962.16
7963.55
7964.92
7966.28
7967.62
7968.94
7970.24
7971.51
7972.75
7973.97
7975.15
7976.3
7977.42
7978.5
7979.54
7980.54
7981.49
7982.41
7983.27
7984.1
7984.87
7985.59
7986.26
7986.89
7987.45
7987.97
7988.43
7988.84
7989.2
7989.5
7989.75
7989.94
7990.08
7990.17
7990.2
7990.18
7990.11
7990
7989.83
7989.62
7989.36
7989.05
7988.7
7988.31
7987.88
7987.4
7986.89
7986.32
7985.73
7985.1
7984.44
7983.75
7983.03
7982.25
7981.47
7980.62
7979.8
7978.98
7978.12
7977.17
7976.27
7975.08
7974.16
7973.53
7972.58
7971.72
7970.76
7969.8
7968.82
7967.87
7966.85
7965.85
7964.77
7963.71
7962.67
7961.54
7960.45
7959.22
7958.08
7956.66
7955.5
7954.49
7953.32
7952.14
7950.96
7949.7
7948.48
7947.23
7945.97
7944.73
7943.39
7942.14
7940.72
7939.44
7937.92
7936.69
7935.28
7934.04
7932.55
7931.24
7929.12
7928.14
7927.28
7926.2
7925.07
7923.94
7922.77
7921.65
7920.56
7919.48
7918.39
7917.28
7916.16
7915.04
7913.91
7912.77
7911.63
7910.49
7909.35
7908.21
7907.08
7905.95
7904.82
7903.7
7902.59
7901.48
7900.39
7899.3
7898.23
7897.17
7896.12
7895.08
7894.06
7893.05
7892.05
7891.08
7890.12
7889.17
7888.25
7887.34
7886.45
7885.58
7884.73
7883.9
7883.09
7882.3
7881.53
7880.78
7880.05
7879.35
7878.66
7878
7877.36
7876.74
7876.15
7875.58
7875.03
7874.5
7874
7873.52
7873.06
7872.63
7872.22
7871.83
7871.47
7871.13
7870.81
7870.52
7870.25
7870.01
7869.79
7869.59
7869.42
7869.27
7869.14
7869.04
7868.96
7868.9
7868.87
7868.87
7868.87
7868.94
7868.96
7869.1
7869.14
7869.37
7869.39
7869.77
8327.65
8330.81
8333.34
8335.42
8337.41
8339.24
8341.07
8342.01
8342.34
8341.96
8340.72
8339.5
8339.97
8341.81
8344.4
8346.62
8348.27
8349.27
8349.81
8349.98
8349.89
8349.63
8349.27
8349.09
8348.97
8349.01
8349.05
8349.16
8349.31
8349.43
8349.17
8348.7
8348.03
8347.02
8346.31
8345.52
8344.87
8344.27
8343.4
8342.4
8341.33
8340.1
8338.7
8337.79
8336.81
8335.62
8334.35
8332.96
8331.46
8330.14
8329.03
8327.82
8326.49
8325.12
8323.73
8322.31
8320.72
8319.12
8317.94
8316.68
8315.25
8313.62
8311.97
8310.54
8309.11
8307.84
8306.72
8305.47
8304.15
8302.81
8301.34
8299.93
8298.74
8297.65
8296.39
8295.1
8293.73
8292.24
8290.65
8288.71
8286.99
8284.97
8282.57
8280.58
8278.61
8278.56
8280.81
8281.15
8273.01
8254.7
8267.38
8263.95
8262.89
8260.96
8259.05
8254.73
8254.25
8251.97
8250.29
8248.09
8245.59
8243
8240.21
8235.84
8233.21
8228.81
8227.28
8224.41
8227.63
8223.05
8209.04
8204.1
8197.67
8192.65
8188.51
8182.54
8175.14
8167.8
8159.97
8152.42
8144.19
8135.18
8125.57
8116.28
8105.85
8099.47
8088.03
8070.75
8058.43
8044.71
8031.32
8018.46
8004.48
7989.65
7974.73
7959.45
7944.14
7928.49
7912.86
7896.93
7880.82
7864.39
7847.79
7831.23
7814.69
7798.2
7781.64
7765.06
7748.72
7732.6
7716.76
7701.02
7685.46
7670.29
7655.52
7641.18
7627.12
7613.37
7600.15
7587.39
7575.11
7563.38
7552.15
7541.35
7531
7521.18
7511.9
7503.14
7494.94
7487.06
7479.68
7472.75
7466.25
7460.21
7454.48
7449.06
7443.87
7438.97
7434.37
7430
7425.9
7421.91
7418.06
7414.36
7410.8
7407.5
7404.45
7401.68
7399.25
7397.04
7395.13
7393.52
7392.21
7391.29
7390.74
7390.58
7390.7
7391.16
7391.92
7393.04
7394.57
7396.42
7398.54
7400.99
7403.78
7406.88
7410.23
7413.84
7417.71
7421.9
7426.34
7431.08
7435.99
7441.1
7446.39
7451.85
7457.55
7463.42
7469.5
7475.69
7481.99
7488.42
7494.95
7501.55
7508.28
7515.09
7521.97
7528.97
7535.97
7542.99
7550.02
7557.12
7564.26
7571.4
7578.5
7585.58
7592.62
7599.68
7606.71
7613.75
7620.74
7627.65
7634.5
7641.28
7648
7654.69
7661.31
7667.89
7674.39
7680.79
7687.08
7693.31
7699.49
7705.61
7711.61
7717.52
7723.32
7729.03
7734.68
7740.25
7745.75
7751.13
7756.42
7761.61
7766.7
7771.68
7776.59
7781.42
7786.15
7790.78
7795.29
7799.7
7804.04
7808.3
7812.44
7816.46
7820.38
7824.21
7827.96
7831.61
7835.15
7838.57
7841.91
7845.16
7848.31
7851.35
7854.28
7857.13
7859.9
7862.57
7865.13
7867.6
7869.98
7872.26
7874.47
7876.61
7878.65
7880.6
7882.47
7884.27
7885.99
7887.66
7889.25
7890.76
7892.21
7893.62
7894.98
7896.27
7897.5
7898.7
7899.86
7900.98
7902.07
7903.12
7904.14
7905.14
7906.14
7907.11
7908.07
7909.02
7909.97
7910.92
7911.87
7912.82
7913.79
7914.76
7915.74
7916.73
7917.75
7918.78
7919.83
7920.91
7922
7923.12
7924.26
7925.42
7926.6
7927.8
7929.03
7930.27
7931.54
7932.82
7934.11
7935.43
7936.75
7938.1
7939.46
7940.84
7942.23
7943.62
7945.03
7946.45
7947.87
7949.3
7950.74
7952.18
7953.62
7955.06
7956.49
7957.93
7959.36
7960.78
7962.2
7963.6
7964.99
7966.36
7967.71
7969.04
7970.35
7971.64
7972.9
7974.12
7975.32
7976.48
7977.61
7978.71
7979.75
7980.77
7981.73
7982.66
7983.54
7984.37
7985.15
7985.88
7986.56
7987.18
7987.76
7988.28
7988.75
7989.16
7989.52
7989.82
7990.07
7990.26
7990.4
7990.49
7990.52
7990.5
7990.43
7990.31
7990.14
7989.91
7989.65
7989.34
7988.99
7988.58
7988.15
7987.66
7987.14
7986.6
7985.99
7985.38
7984.68
7984
7983.22
7982.48
7981.72
7980.93
7980.05
7979.2
7978.04
7977.17
7976.6
7975.69
7974.88
7973.94
7973.02
7972.05
7971.14
7970.15
7969.19
7968.17
7967.15
7966.16
7965.09
7964.05
7962.88
7961.77
7960.37
7959.24
7958.29
7957.15
7956.01
7954.85
7953.6
7952.41
7951.15
7949.96
7948.66
7947.44
7946.09
7944.83
7943.4
7942.16
7940.87
7939.54
7938.25
7936.8
7935.41
7933.24
7932.25
7931.35
7930.22
7929.02
7927.82
7926.59
7925.41
7924.27
7923.12
7921.98
7920.84
7919.71
7918.57
7917.42
7916.28
7915.13
7913.98
7912.82
7911.67
7910.51
7909.36
7908.21
7907.06
7905.92
7904.78
7903.65
7902.53
7901.42
7900.31
7899.22
7898.14
7897.07
7896.02
7894.97
7893.94
7892.93
7891.93
7890.95
7889.99
7889.04
7888.11
7887.2
7886.31
7885.44
7884.58
7883.75
7882.94
7882.14
7881.37
7880.62
7879.89
7879.18
7878.5
7877.83
7877.19
7876.58
7875.98
7875.41
7874.86
7874.33
7873.83
7873.35
7872.89
7872.45
7872.04
7871.66
7871.29
7870.96
7870.64
7870.35
7870.08
7869.83
7869.61
7869.42
7869.24
7869.09
7868.97
7868.86
7868.78
7868.73
7868.7
7868.69
7868.69
7868.76
7868.78
7868.93
7868.96
7869.19
7869.21
7869.59
8328.5
8331.65
8334.1
8336.1
8337.94
8339.72
8341.37
8342.37
8342.69
8342.61
8342.89
8343.42
8344.37
8345.7
8346.91
8348.13
8349.25
8350.16
8350.61
8350.82
8350.86
8350.79
8350.66
8350.52
8350.42
8350.37
8350.19
8350.05
8350
8349.96
8349.66
8349.19
8348.34
8347.29
8346.62
8345.98
8345.54
8344.76
8343.8
8342.79
8341.72
8340.56
8339.37
8338.25
8337.14
8335.92
8334.64
8333.29
8331.71
8330.39
8329.26
8328.02
8326.64
8325.25
8323.85
8322.41
8320.93
8319.52
8318.12
8316.69
8315.26
8313.69
8311.81
8310.3
8308.84
8307.55
8306.46
8305.18
8303.8
8302.39
8301
8299.48
8298.01
8296.73
8295.42
8294.03
8292.59
8291.02
8289.25
8287.33
8285.57
8283.8
8282.23
8280.68
8278.8
8276.86
8274.79
8273.11
8272.1
8273.99
8276.42
8266.89
8245.72
8260.28
8257.78
8255.36
8253.43
8251.33
8246.41
8245.81
8242.97
8240.27
8237.64
8234.54
8231.82
8228.91
8223.86
8220.91
8216.72
8214.52
8210.7
8214.9
8208.66
8192.78
8186.85
8179.66
8173.75
8168.49
8161.11
8152.27
8143.39
8134.2
8125.29
8115.73
8105.06
8094.13
8083.7
8072.13
8064.9
8051.94
8032.74
8019.4
8004.45
7990.68
7976.16
7962.14
7947.03
7930.59
7914.5
7898.1
7881.75
7865.44
7848.86
7832.1
7815.32
7798.5
7781.59
7764.96
7748.46
7732.27
7716.21
7700.19
7684.51
7669.21
7654.33
7639.87
7625.71
7611.88
7598.51
7585.67
7573.33
7561.56
7550.3
7539.45
7529.01
7519.2
7509.9
7501.13
7492.93
7485.05
7477.58
7470.62
7464.07
7458.01
7452.24
7446.75
7441.48
7436.54
7431.89
7427.57
7423.42
7419.4
7415.56
7411.89
7408.33
7405.04
7402.02
7399.25
7396.87
7394.69
7392.8
7391.23
7389.92
7388.98
7388.46
7388.33
7388.48
7388.98
7389.75
7390.91
7392.44
7394.3
7396.58
7399.11
7401.93
7405.05
7408.42
7412.07
7416.06
7420.31
7424.89
7429.65
7434.61
7439.76
7445.08
7450.66
7456.43
7462.43
7468.53
7474.74
7481.06
7487.55
7494.22
7500.95
7507.75
7514.58
7521.47
7528.46
7535.51
7542.6
7549.74
7556.95
7564.11
7571.27
7578.41
7585.5
7592.6
7599.7
7606.79
7613.88
7620.87
7627.8
7634.64
7641.46
7648.24
7654.95
7661.63
7668.23
7674.72
7681.12
7687.41
7693.67
7699.85
7705.99
7712.02
7717.93
7723.72
7729.46
7735.12
7740.72
7746.21
7751.6
7756.88
7762.08
7767.18
7772.16
7777.06
7781.9
7786.64
7791.26
7795.76
7800.18
7804.52
7808.79
7812.93
7816.95
7820.86
7824.69
7828.42
7832.05
7835.61
7839.06
7842.39
7845.62
7848.72
7851.75
7854.69
7857.53
7860.3
7862.95
7865.5
7867.94
7870.3
7872.58
7874.77
7876.89
7878.91
7880.85
7882.7
7884.47
7886.18
7887.82
7889.37
7890.87
7892.3
7893.69
7895.03
7896.3
7897.51
7898.69
7899.83
7900.94
7902.01
7903.04
7904.05
7905.04
7906.03
7906.99
7907.94
7908.88
7909.82
7910.76
7911.7
7912.66
7913.61
7914.58
7915.55
7916.54
7917.55
7918.58
7919.64
7920.71
7921.8
7922.91
7924.04
7925.21
7926.39
7927.6
7928.83
7930.07
7931.34
7932.62
7933.91
7935.23
7936.57
7937.93
7939.3
7940.69
7942.08
7943.49
7944.91
7946.33
7947.77
7949.21
7950.66
7952.12
7953.57
7955.03
7956.48
7957.93
7959.38
7960.82
7962.25
7963.67
7965.07
7966.46
7967.83
7969.18
7970.51
7971.81
7973.09
7974.33
7975.54
7976.72
7977.87
7978.98
7980.05
7981.08
7982.06
7983
7983.89
7984.73
7985.53
7986.27
7986.95
7987.59
7988.17
7988.71
7989.18
7989.6
7989.95
7990.27
7990.52
7990.71
7990.85
7990.93
7990.96
7990.95
7990.87
7990.75
7990.57
7990.34
7990.07
7989.75
7989.39
7988.98
7988.55
7988.05
7987.54
7986.94
7986.35
7985.66
7985
7984.33
7983.62
7982.8
7982.02
7980.92
7980.11
7979.6
7978.75
7977.98
7977.09
7976.2
7975.28
7974.42
7973.45
7972.54
7971.53
7970.56
7969.58
7968.58
7967.51
7966.46
7965.15
7964.06
7963.24
7962.11
7961.11
7959.92
7958.83
7957.57
7956.44
7955.18
7954.02
7952.75
7951.55
7950.24
7948.98
7947.6
7946.37
7945.13
7943.8
7942.65
7941.07
7939.68
7937.47
7936.5
7935.57
7934.41
7933.17
7931.93
7930.65
7929.41
7928.21
7927.01
7925.82
7924.63
7923.44
7922.26
7921.08
7919.91
7918.73
7917.56
7916.39
7915.21
7914.04
7912.86
7911.68
7910.51
7909.34
7908.18
7907.02
7905.86
7904.72
7903.58
7902.44
7901.32
7900.21
7899.11
7898.02
7896.94
7895.88
7894.83
7893.79
7892.77
7891.77
7890.78
7889.82
7888.86
7887.93
7887.01
7886.12
7885.24
7884.38
7883.55
7882.73
7881.93
7881.16
7880.41
7879.68
7878.97
7878.28
7877.61
7876.97
7876.35
7875.75
7875.18
7874.63
7874.1
7873.6
7873.11
7872.66
7872.22
7871.81
7871.42
7871.06
7870.72
7870.41
7870.11
7869.84
7869.6
7869.38
7869.18
7869.01
7868.86
7868.73
7868.63
7868.55
7868.5
7868.46
7868.46
7868.46
7868.53
7868.55
7868.69
7868.73
7868.96
7868.98
7869.36
8329.69
8332.79
8335.19
8337.14
8338.96
8340.62
8342.04
8343.27
8344.09
8344.32
8344.84
8346.03
8347.11
8348.03
8348.95
8349.84
8350.6
8351.2
8351.6
8351.85
8351.97
8351.98
8351.94
8351.87
8351.79
8351.69
8351.51
8351.16
8351.02
8350.82
8350.43
8349.92
8349.2
8347.87
8347.31
8346.97
8346.26
8345.32
8344.33
8343.28
8342.2
8341.08
8339.92
8338.73
8337.51
8336.25
8334.99
8333.66
8332.33
8330.92
8329.42
8328.1
8326.79
8325.4
8323.96
8322.54
8321.09
8319.64
8318.18
8316.71
8315.25
8313.76
8312.09
8310.08
8308.56
8307.33
8306.28
8304.87
8303.4
8301.94
8300.48
8299.04
8297.59
8295.88
8294.06
8292.78
8291.44
8289.85
8288.18
8286.21
8284.4
8282.89
8281.25
8279.42
8277.54
8275.59
8274
8272.52
8270.7
8268.57
8266.56
8265.02
8266.64
8269.21
8259.3
8236.34
8252.04
8249.65
8246.09
8243.81
8241.43
8235.46
8234.55
8230.86
8227.96
8224.53
8221.68
8217.89
8215.13
8211.4
8206.86
8202.52
8198.7
8194.52
8198.35
8191.13
8172.84
8165.81
8157.56
8150.64
8144.38
8135.67
8125.35
8114.98
8104.32
8094.2
8083.5
8071.65
8059.44
8047.56
8034.49
8026.42
8012.34
7992.4
7977.58
7962.02
7947.19
7931.5
7916.57
7900.33
7883.36
7866.56
7849.7
7832.79
7815.95
7798.91
7781.7
7764.82
7748.19
7731.82
7715.49
7699.24
7683.34
7667.86
7652.89
7638.24
7623.92
7610.02
7596.45
7583.49
7571.07
7559.27
7547.9
7537
7526.5
7516.6
7507.25
7498.5
7490.21
7482.31
7474.74
7467.67
7461.1
7454.98
7449.11
7443.54
7438.18
7433.18
7428.55
7424.22
7420
7415.98
7412.13
7408.48
7405.02
7401.8
7398.75
7396.02
7393.67
7391.57
7389.71
7388.17
7386.98
7386.1
7385.55
7385.32
7385.56
7386.16
7387.02
7388.18
7389.77
7391.74
7394.08
7396.66
7399.55
7402.67
7406.11
7409.9
7414.01
7418.43
7423.01
7427.83
7432.85
7438.04
7443.5
7449.17
7455.11
7461.14
7467.3
7473.55
7479.99
7486.57
7493.33
7500.13
7507
7513.94
7520.92
7527.92
7535.03
7542.19
7549.4
7556.68
7563.9
7571.11
7578.32
7585.49
7592.61
7599.73
7606.92
7614.02
7621.04
7627.95
7634.87
7641.73
7648.54
7655.35
7662.04
7668.63
7675.13
7681.52
7687.86
7694.13
7700.35
7706.51
7712.54
7718.46
7724.26
7730
7735.7
7741.31
7746.79
7752.17
7757.44
7762.61
7767.76
7772.79
7777.71
7782.53
7787.25
7791.84
7796.36
7800.79
7805.17
7809.41
7813.54
7817.57
7821.49
7825.29
7829.02
7832.65
7836.21
7839.64
7842.97
7846.19
7849.28
7852.29
7855.22
7858.07
7860.8
7863.43
7865.95
7868.37
7870.71
7873
7875.17
7877.25
7879.25
7881.16
7882.98
7884.73
7886.42
7888.03
7889.57
7891.03
7892.43
7893.81
7895.11
7896.35
7897.54
7898.69
7899.82
7900.91
7901.96
7902.97
7903.95
7904.94
7905.91
7906.86
7907.79
7908.72
7909.65
7910.59
7911.52
7912.45
7913.4
7914.36
7915.34
7916.33
7917.32
7918.34
7919.4
7920.47
7921.56
7922.66
7923.8
7924.96
7926.15
7927.35
7928.58
7929.82
7931.09
7932.37
7933.68
7935
7936.35
7937.72
7939.1
7940.49
7941.9
7943.32
7944.75
7946.19
7947.64
7949.1
7950.57
7952.04
7953.52
7954.99
7956.46
7957.93
7959.4
7960.86
7962.31
7963.75
7965.18
7966.59
7967.98
7969.36
7970.71
7972.03
7973.33
7974.6
7975.84
7977.04
7978.21
7979.34
7980.43
7981.48
7982.48
7983.44
7984.34
7985.2
7986.01
7986.77
7987.47
7988.11
7988.71
7989.25
7989.73
7990.15
7990.52
7990.82
7991.09
7991.28
7991.41
7991.49
7991.53
7991.5
7991.43
7991.28
7991.1
7990.86
7990.58
7990.26
7989.89
7989.46
7989
7988.46
7987.93
7987.43
7986.82
7986.23
7985.46
7984.79
7983.73
7982.99
7982.56
7981.76
7981.06
7980.21
7979.38
7978.5
7977.69
7976.77
7975.9
7974.92
7974.01
7973.06
7972.12
7971.09
7970.08
7968.79
7967.73
7967
7965.9
7964.98
7963.82
7962.76
7961.55
7960.44
7959.23
7958.1
7956.86
7955.68
7954.38
7953.15
7951.74
7950.58
7949.25
7948.03
7946.68
7945.26
7943.12
7942.2
7941.27
7940.11
7938.86
7937.55
7936.24
7934.91
7933.64
7932.39
7931.15
7929.9
7928.67
7927.43
7926.2
7924.97
7923.75
7922.54
7921.33
7920.12
7918.91
7917.7
7916.5
7915.3
7914.1
7912.9
7911.7
7910.51
7909.32
7908.14
7906.96
7905.79
7904.63
7903.48
7902.33
7901.2
7900.08
7898.96
7897.87
7896.78
7895.71
7894.65
7893.61
7892.58
7891.57
7890.57
7889.6
7888.64
7887.7
7886.78
7885.88
7885
7884.14
7883.29
7882.47
7881.67
7880.9
7880.14
7879.41
7878.69
7878
7877.34
7876.69
7876.07
7875.47
7874.9
7874.34
7873.81
7873.31
7872.83
7872.37
7871.93
7871.52
7871.13
7870.77
7870.43
7870.11
7869.82
7869.55
7869.31
7869.09
7868.89
7868.71
7868.57
7868.44
7868.34
7868.26
7868.2
7868.17
7868.17
7868.17
7868.24
7868.26
7868.4
7868.44
7868.67
7868.69
7869.07
8331.2
8334.26
8336.65
8338.56
8340.36
8342.01
8343.45
8344.71
8345.72
8345.93
8346.53
8347.58
8349.13
8350.16
8350.89
8351.55
8352.13
8352.64
8353.03
8353.26
8353.38
8353.43
8353.41
8353.32
8353.2
8353.05
8352.84
8352.56
8352.24
8351.84
8351.35
8350.79
8350.09
8349.26
8348.53
8347.81
8346.93
8345.96
8344.92
8343.85
8342.73
8341.6
8340.42
8339.2
8337.91
8336.62
8335.31
8334.01
8332.66
8331.25
8329.43
8327.86
8326.73
8325.5
8324.1
8322.64
8321.18
8319.7
8318.22
8316.72
8315.21
8313.72
8312.2
8310.57
8308.31
8307
8305.88
8304.5
8302.98
8301.48
8299.95
8298.42
8296.84
8294.92
8293.19
8291.67
8290.38
8288.85
8287.16
8285.41
8283.65
8281.88
8280.06
8278.16
8275.9
8274.03
8272.63
8270.99
8269.06
8267.08
8265.18
8263.08
8260.57
8258.3
8256.47
8258.13
8260.98
8250.15
8224.74
8241.57
8239.17
8235.69
8233.25
8230.05
8223.46
8222.33
8218.5
8215.11
8211.55
8207.91
8203.94
8200.08
8195.91
8190.21
8184.92
8179.97
8175.05
8178.92
8170.41
8149.78
8141.34
8131.88
8123.59
8116.05
8105.82
8094.02
8082.44
8070.32
8059.17
8047.12
8034.01
8020.85
8006.74
7994
7980.64
7971.15
7956.14
7934.13
7918.08
7900.95
7884.5
7868.81
7851.81
7834.13
7816.61
7799.16
7781.72
7764.79
7748.02
7731.19
7714.54
7698.12
7681.85
7666.23
7651.05
7636.11
7621.6
7607.55
7593.92
7580.72
7568.26
7556.31
7544.81
7533.82
7523.31
7513.24
7503.88
7495.04
7486.59
7478.6
7470.95
7463.82
7457.21
7450.91
7444.94
7439.23
7433.79
7428.84
7424.22
7419.77
7415.53
7411.48
7407.58
7403.92
7400.69
7397.62
7394.69
7391.98
7389.49
7387.39
7385.71
7384.31
7383.18
7382.38
7381.86
7381.64
7381.89
7382.5
7383.49
7384.93
7386.64
7388.66
7391
7393.64
7396.53
7399.78
7403.38
7407.29
7411.58
7416.02
7420.7
7425.62
7430.77
7436.1
7441.59
7447.36
7453.32
7459.55
7465.83
7472.25
7478.74
7485.41
7492.26
7499.13
7506.04
7513.05
7520.23
7527.4
7534.52
7541.7
7548.95
7556.31
7563.64
7570.93
7578.21
7585.43
7592.6
7599.78
7607.05
7614.19
7621.27
7628.27
7635.17
7642.06
7648.94
7655.78
7662.48
7669.1
7675.63
7682.04
7688.4
7694.7
7700.98
7707.13
7713.17
7719.11
7724.93
7730.66
7736.38
7741.99
7747.48
7752.86
7758.12
7763.31
7768.45
7773.52
7778.44
7783.26
7787.98
7792.57
7797.09
7801.54
7805.91
7810.15
7814.28
7818.31
7822.23
7826.03
7829.74
7833.4
7836.93
7840.35
7843.66
7846.87
7849.97
7852.95
7855.85
7858.7
7861.41
7864.02
7866.52
7868.91
7871.22
7873.49
7875.64
7877.69
7879.65
7881.53
7883.33
7885.07
7886.71
7888.29
7889.79
7891.22
7892.62
7893.94
7895.21
7896.43
7897.6
7898.73
7899.82
7900.88
7901.9
7902.9
7903.88
7904.84
7905.79
7906.71
7907.63
7908.55
7909.47
7910.38
7911.3
7912.23
7913.16
7914.12
7915.08
7916.07
7917.06
7918.08
7919.12
7920.18
7921.26
7922.37
7923.51
7924.67
7925.85
7927.05
7928.28
7929.52
7930.79
7932.09
7933.4
7934.74
7936.08
7937.46
7938.85
7940.26
7941.68
7943.11
7944.56
7946.02
7947.49
7948.97
7950.45
7951.95
7953.44
7954.94
7956.44
7957.93
7959.43
7960.91
7962.38
7963.85
7965.31
7966.75
7968.17
7969.57
7970.95
7972.3
7973.63
7974.93
7976.19
7977.42
7978.62
7979.77
7980.89
7981.96
7982.99
7983.96
7984.9
7985.77
7986.6
7987.37
7988.09
7988.76
7989.36
7989.92
7990.41
7990.84
7991.2
7991.53
7991.78
7991.98
7992.11
7992.2
7992.22
7992.2
7992.1