/*--------------------------------*- C++ -*----------------------------------*\
| =========                 |                                                 |
| \\      /  F ield         | OpenFOAM: The Open Source CFD Toolbox           |
|  \\    /   O peration     | Version:  v2006                                 |
|   \\  /    A nd           | Website:  www.openfoam.com                      |
|    \\/     M anipulation  |                                                 |
\*---------------------------------------------------------------------------*/
FoamFile
{
    version     2.0;
    format      ascii;
    class       volVectorField;
    location    "7.2";
    object      U;
}
// * * * * * * * * * * * * * * * * * * * * * * * * * * * * * * * * * * * * * //

dimensions      [0 1 -1 0 0 0 0];


internalField   nonuniform List<vector> 
33000
(
(0.102382 0 -0.000475459)
(0.0979506 0 -0.000557483)
(0.0969571 0 -0.000301302)
(0.0974529 0 0.000656)
(0.0967378 0 0.00144403)
(0.0958113 0 0.000897209)
(0.0960643 0 -0.000689491)
(0.100576 0 -0.00460801)
(0.11706 0 -0.0134945)
(0.146408 0 -0.0209633)
(0.176667 0 -0.0153674)
(0.19944 0 -0.00535616)
(0.206289 0 4.03851e-05)
(0.20567 0 0.000657214)
(0.201761 0 -0.000252783)
(0.19824 0 -0.00344046)
(0.199186 0 -0.0069119)
(0.202249 0 -0.00758661)
(0.2079 0 -0.00563932)
(0.214403 0 -0.0056287)
(0.222149 0 -0.00832155)
(0.231425 0 -0.00913507)
(0.239848 0 -0.00476838)
(0.244425 0 0.00117509)
(0.245232 0 0.00362249)
(0.243885 0 0.00340166)
(0.238944 0 0.00517291)
(0.225242 0 0.0148208)
(0.207055 0 0.0208014)
(0.191472 0 0.0169698)
(0.180942 0 0.0104506)
(0.174191 0 0.00670343)
(0.168668 0 0.00524533)
(0.164162 0 0.00439033)
(0.160166 0 0.00470919)
(0.155325 0 0.00505863)
(0.150526 0 0.00370932)
(0.147968 0 0.00134774)
(0.147757 0 -0.000209191)
(0.148311 0 -0.000530625)
(0.148829 0 9.15163e-05)
(0.14824 0 0.00213373)
(0.145425 0 0.00294655)
(0.143071 0 0.00140001)
(0.14246 0 -0.000415015)
(0.143297 0 -0.00127793)
(0.144627 0 -0.000864801)
(0.145092 0 0.000838426)
(0.143872 0 0.00198655)
(0.142268 0 0.00123173)
(0.141587 0 -0.000255308)
(0.142157 0 -0.00101783)
(0.143624 0 -0.0011262)
(0.145209 0 -0.00131559)
(0.147102 0 -0.00160892)
(0.149217 0 -0.00165977)
(0.150943 0 -0.00126165)
(0.151645 0 -0.000117025)
(0.150777 0 0.00192174)
(0.148522 0 0.00269413)
(0.146608 0 0.00163978)
(0.145603 0 0.000712473)
(0.145048 0 0.000755763)
(0.143815 0 0.00110339)
(0.142325 0 0.000943858)
(0.141596 0 -0.000144987)
(0.142223 0 -0.00162515)
(0.144698 0 -0.0026863)
(0.146933 0 -0.00263293)
(0.149279 0 -0.00201415)
(0.150194 0 -0.00145849)
(0.150341 0 -0.000582247)
(0.149617 0 -1.90728e-05)
(0.148262 0 0.000392464)
(0.147696 0 0.0015568)
(0.144393 0 0.00389605)
(0.145966 0 0.0101162)
(0.136825 0 0.0197861)
(0.104358 0 0.0135308)
(0.10599 0 0.0028663)
(0.0946952 0 0.00115068)
(0.0915118 0 -0.0026712)
(0.0875727 0 0.00492601)
(0.0820607 0 0.00242374)
(0.0820063 0 0.00154498)
(0.081179 0 -0.000266852)
(0.0781446 0 -0.000573394)
(0.0770522 0 -0.00131502)
(0.0774524 0 -0.00207972)
(0.0775935 0 -0.000619632)
(0.0776067 0 -0.000639503)
(0.0780135 0 -0.000189883)
(0.0781625 0 -2.22756e-05)
(0.0776616 0 0.000213208)
(0.0776492 0 0.000748331)
(0.0763229 0 0.000987926)
(0.0759523 0 0.00259642)
(0.071491 0 0.00319834)
(0.0709457 0 0.00936973)
(0.0579307 0 0.00958636)
(0.052188 0 0.00541366)
(0.044384 0 -0.00339484)
(0.0445263 0 -0.00772405)
(0.0439449 0 -0.00377561)
(0.044184 0 -0.000350939)
(0.0466252 0 0.00237026)
(0.047857 0 0.00149855)
(0.0484401 0 0.000850451)
(0.0481167 0 -0.00101075)
(0.0486527 0 -0.00200859)
(0.0491693 0 -0.00170551)
(0.0495099 0 -0.00107737)
(0.0504286 0 -0.000145097)
(0.0503812 0 0.000317199)
(0.0508723 0 0.00112804)
(0.0491719 0 0.00143496)
(0.0495463 0 0.00433077)
(0.0429496 0 0.00435574)
(0.0416518 0 0.00153203)
(0.039277 0 -0.00258316)
(0.0407943 0 -0.00415567)
(0.0411306 0 -0.00182116)
(0.0417157 0 -0.000420974)
(0.0433495 0 0.000407776)
(0.0443339 0 0.000258841)
(0.0447917 0 -0.000467527)
(0.0455008 0 -0.000972944)
(0.0459958 0 -0.000789636)
(0.0465088 0 -0.000554629)
(0.0471698 0 -0.000333696)
(0.0477085 0 -0.000248584)
(0.0481646 0 -0.000275976)
(0.0485463 0 -0.000326469)
(0.0488652 0 -0.00031411)
(0.0491827 0 -0.000273992)
(0.0494578 0 -0.000181238)
(0.0497241 0 -0.000131913)
(0.0499515 0 -8.58919e-05)
(0.0501327 0 -7.96329e-05)
(0.0502762 0 -6.52589e-05)
(0.0503737 0 -4.0761e-05)
(0.0504122 0 1.02298e-05)
(0.0503854 0 5.79307e-05)
(0.0502993 0 0.00010477)
(0.0501528 0 0.000139471)
(0.04996 0 0.00017343)
(0.0497159 0 0.000214028)
(0.0494093 0 0.000268437)
(0.0490251 0 0.000334336)
(0.0485605 0 0.000389458)
(0.0480459 0 0.000419231)
(0.0474885 0 0.000457005)
(0.0468693 0 0.000508499)
(0.0461761 0 0.000571583)
(0.0454103 0 0.000630145)
(0.0445795 0 0.00067769)
(0.0436896 0 0.000717189)
(0.0427392 0 0.00076571)
(0.0417238 0 0.000824375)
(0.0406437 0 0.000877236)
(0.0395057 0 0.000933292)
(0.0382862 0 0.00100296)
(0.0369823 0 0.00105475)
(0.0356252 0 0.00109626)
(0.0342105 0 0.00115703)
(0.0327021 0 0.00123765)
(0.0310909 0 0.00130003)
(0.02942 0 0.00134312)
(0.0276943 0 0.00139916)
(0.0258763 0 0.00147509)
(0.023955 0 0.00155905)
(0.021935 0 0.00161569)
(0.0198694 0 0.00163543)
(0.0177799 0 0.00166216)
(0.0156428 0 0.0016984)
(0.0134705 0 0.00174803)
(0.0112383 0 0.00178609)
(0.0089932 0 0.00177122)
(0.00679456 0 0.00172031)
(0.00465078 0 0.00166194)
(0.00258511 0 0.00158161)
(0.000632599 0 0.00150322)
(-0.00124007 0 0.00144202)
(-0.00303231 0 0.00138254)
(-0.00475479 0 0.00133038)
(-0.00641818 0 0.00126495)
(-0.00799033 0 0.00119225)
(-0.00947706 0 0.00113011)
(-0.0108864 0 0.00108112)
(-0.0122393 0 0.00104963)
(-0.01355 0 0.00101289)
(-0.0148074 0 0.000967848)
(-0.01601 0 0.000917402)
(-0.0171521 0 0.000867596)
(-0.0182325 0 0.000824368)
(-0.0192593 0 0.000786059)
(-0.0202393 0 0.00075597)
(-0.0211889 0 0.000733998)
(-0.0221052 0 0.000705286)
(-0.0229793 0 0.000670613)
(-0.0238045 0 0.000625901)
(-0.0245732 0 0.000585697)
(-0.0253021 0 0.000558117)
(-0.026001 0 0.000535131)
(-0.026668 0 0.000510998)
(-0.0273023 0 0.000485777)
(-0.0278987 0 0.000452589)
(-0.0284527 0 0.00042086)
(-0.0289735 0 0.000397941)
(-0.0294704 0 0.000382703)
(-0.0299485 0 0.000364372)
(-0.0303898 0 0.000328535)
(-0.0307834 0 0.000295766)
(-0.0311469 0 0.0002738)
(-0.0314849 0 0.000256565)
(-0.0318028 0 0.000246081)
(-0.0321066 0 0.00023146)
(-0.0323853 0 0.00020825)
(-0.0326327 0 0.000179058)
(-0.0328439 0 0.000153335)
(-0.0330273 0 0.000134958)
(-0.0331903 0 0.000119772)
(-0.0333354 0 0.000110895)
(-0.0334695 0 9.98728e-05)
(-0.0335836 0 8.21225e-05)
(-0.0336747 0 6.0872e-05)
(-0.0337397 0 4.07191e-05)
(-0.033781 0 2.4181e-05)
(-0.0338036 0 1.12065e-05)
(-0.0338123 0 4.36346e-06)
(-0.0338138 0 -1.65018e-06)
(-0.0338034 0 -1.54058e-05)
(-0.0337716 0 -3.22227e-05)
(-0.0337211 0 -4.62465e-05)
(-0.0336525 0 -5.92062e-05)
(-0.0335698 0 -6.79465e-05)
(-0.0334778 0 -7.53385e-05)
(-0.0333763 0 -8.46265e-05)
(-0.0332647 0 -9.24026e-05)
(-0.0331454 0 -9.73488e-05)
(-0.0330184 0 -0.000102972)
(-0.0328819 0 -0.000108318)
(-0.0327358 0 -0.00011901)
(-0.0325755 0 -0.00013072)
(-0.0324058 0 -0.00013591)
(-0.0322316 0 -0.000138834)
(-0.0320546 0 -0.000137584)
(-0.0318807 0 -0.000135695)
(-0.0317025 0 -0.000145332)
(-0.0315073 0 -0.000158077)
(-0.0313033 0 -0.000160668)
(-0.0310999 0 -0.000160816)
(-0.0308955 0 -0.00015942)
(-0.0306931 0 -0.000159189)
(-0.0304872 0 -0.000163189)
(-0.0302737 0 -0.000168734)
(-0.0300559 0 -0.000172513)
(-0.0298346 0 -0.000175304)
(-0.0296114 0 -0.000176124)
(-0.0293892 0 -0.000175526)
(-0.0291643 0 -0.000177034)
(-0.0289348 0 -0.000181012)
(-0.0286995 0 -0.000187423)
(-0.0284582 0 -0.000191177)
(-0.028215 0 -0.000190955)
(-0.0279742 0 -0.000188596)
(-0.0277343 0 -0.000187904)
(-0.0274916 0 -0.000193895)
(-0.0272372 0 -0.000204417)
(-0.0269728 0 -0.000208849)
(-0.026707 0 -0.000210997)
(-0.026437 0 -0.000213715)
(-0.0261641 0 -0.000214574)
(-0.02589 0 -0.000215143)
(-0.025613 0 -0.000218776)
(-0.025329 0 -0.000226527)
(-0.0250361 0 -0.000233914)
(-0.0247357 0 -0.000238552)
(-0.0244295 0 -0.00024311)
(-0.0241166 0 -0.00024865)
(-0.0237968 0 -0.000253474)
(-0.0234722 0 -0.000255356)
(-0.023146 0 -0.000256683)
(-0.0228158 0 -0.000263558)
(-0.0224729 0 -0.000274049)
(-0.0221187 0 -0.000280454)
(-0.0217596 0 -0.000284884)
(-0.021394 0 -0.000290351)
(-0.021021 0 -0.000295556)
(-0.0206415 0 -0.000299427)
(-0.0202567 0 -0.000304465)
(-0.0198637 0 -0.000311968)
(-0.0194605 0 -0.000320649)
(-0.0190476 0 -0.000328202)
(-0.0186262 0 -0.000334883)
(-0.018196 0 -0.000340967)
(-0.0177582 0 -0.000345138)
(-0.0173138 0 -0.000351297)
(-0.0168598 0 -0.000360665)
(-0.0163955 0 -0.000369852)
(-0.0159207 0 -0.000378216)
(-0.0154342 0 -0.000385927)
(-0.0149382 0 -0.000390805)
(-0.0144365 0 -0.000397408)
(-0.0139233 0 -0.000407863)
(-0.0133991 0 -0.000416992)
(-0.0128644 0 -0.000424016)
(-0.0123198 0 -0.000430187)
(-0.0117679 0 -0.000436877)
(-0.0112078 0 -0.000444396)
(-0.0106396 0 -0.000451187)
(-0.0100633 0 -0.000455768)
(-0.00948303 0 -0.000456383)
(-0.00890359 0 -0.000455165)
(-0.00832527 0 -0.000455975)
(-0.00774593 0 -0.000456371)
(-0.00716853 0 -0.000453095)
(-0.00659716 0 -0.000446885)
(-0.00603473 0 -0.000438732)
(-0.0054838 0 -0.00042938)
(-0.00494581 0 -0.000418411)
(-0.00442333 0 -0.00040555)
(-0.00391782 0 -0.00039066)
(-0.00343198 0 -0.000373675)
(-0.00296749 0 -0.000357221)
(-0.00252285 0 -0.000342001)
(-0.00209809 0 -0.000326322)
(-0.00169417 0 -0.00030923)
(-0.00131231 0 -0.000291663)
(-0.000951321 0 -0.000275962)
(-0.000608874 0 -0.000261881)
(-0.000284239 0 -0.000248742)
(2.36528e-05 0 -0.000235101)
(0.000313488 0 -0.000220456)
(0.000585521 0 -0.000207225)
(0.000842516 0 -0.000197134)
(0.00108762 0 -0.000188591)
(0.00132205 0 -0.000180189)
(0.00154566 0 -0.000171945)
(0.00175924 0 -0.00016405)
(0.0019633 0 -0.000157008)
(0.00215916 0 -0.000151095)
(0.00234775 0 -0.000146137)
(0.00253056 0 -0.000141856)
(0.002708 0 -0.000137765)
(0.00288037 0 -0.000134058)
(0.00304861 0 -0.000130979)
(0.00321361 0 -0.000128764)
(0.00337631 0 -0.000127283)
(0.0035373 0 -0.000126159)
(0.00369695 0 -0.000125033)
(0.00385515 0 -0.000123974)
(0.00401239 0 -0.00012368)
(0.00416987 0 -0.000124156)
(0.00432809 0 -0.000124732)
(0.00448694 0 -0.000125284)
(0.00464663 0 -0.000126096)
(0.00480745 0 -0.000127076)
(0.00496941 0 -0.000128187)
(0.00513286 0 -0.000129499)
(0.00529816 0 -0.000130859)
(0.00546523 0 -0.000132196)
(0.00563394 0 -0.000133464)
(0.00580426 0 -0.000134879)
(0.00597648 0 -0.000136045)
(0.00614975 0 -0.000136738)
(0.00632382 0 -0.000137114)
(0.00649865 0 -0.000137884)
(0.00667486 0 -0.000139139)
(0.00685254 0 -0.000140253)
(0.00703081 0 -0.000140378)
(0.00720884 0 -0.00013997)
(0.00738617 0 -0.000139516)
(0.00756359 0 -0.000139723)
(0.00774104 0 -0.000139399)
(0.00791803 0 -0.000138774)
(0.00809357 0 -0.000137307)
(0.00826736 0 -0.000136156)
(0.00843935 0 -0.000134225)
(0.00860895 0 -0.000131511)
(0.00877472 0 -0.000128485)
(0.00893775 0 -0.000126916)
(0.00909838 0 -0.000124964)
(0.00925639 0 -0.000122159)
(0.00941019 0 -0.000118732)
(0.00955998 0 -0.000114915)
(0.00970508 0 -0.000111119)
(0.00984516 0 -0.000106568)
(0.00998025 0 -0.000103408)
(0.0101108 0 -9.86815e-05)
(0.010236 0 -9.49558e-05)
(0.0103549 0 -8.81194e-05)
(0.010467 0 -8.47364e-05)
(0.0105738 0 -7.88276e-05)
(0.0106745 0 -7.59939e-05)
(0.0107688 0 -6.86433e-05)
(0.0108567 0 -6.59568e-05)
(0.0109378 0 -5.70889e-05)
(0.0110112 0 -5.35558e-05)
(0.0110769 0 -4.46425e-05)
(0.0111358 0 -4.33037e-05)
(0.0111888 0 -3.45452e-05)
(0.0112358 0 -3.33496e-05)
(0.0112758 0 -2.42339e-05)
(0.0113099 0 -2.18965e-05)
(0.0113362 0 -1.21258e-05)
(0.0113557 0 -9.55924e-06)
(0.0113717 0 -6.12618e-06)
(0.0113822 0 -2.8978e-06)
(0.0113892 0 -6.56145e-06)
(0.0113896 0 1.62441e-06)
(0.0113838 0 -4.09593e-06)
(0.0113732 0 1.16132e-05)
(0.0113537 0 7.28549e-06)
(0.0113402 0 2.56721e-05)
(0.0113099 0 1.71595e-05)
(0.0112793 0 2.27031e-05)
(0.0112422 0 5.83903e-06)
(0.0111852 0 3.50201e-05)
(0.0111294 0 3.48569e-05)
(0.0111004 0 9.19392e-05)
(0.0110266 0 7.46212e-05)
(0.0109812 0 3.12378e-05)
(0.0109237 0 -3.56575e-05)
(0.0107436 0 3.79858e-07)
(0.0106565 0 4.32533e-05)
(0.0106633 0 0.000340903)
(0.010471 0 0.000340945)
(0.010635 0 4.89175e-05)
(0.0105497 0 -0.000307147)
(0.0112321 0 -0.000524609)
(0.0112921 0 -0.000245109)
(0.0115358 0 -0.000152649)
(0.0115018 0 -6.14986e-05)
(0.0115215 0 -1.68918e-05)
(0.0114065 0 -9.30701e-06)
(0.0113478 0 6.59257e-05)
(0.0112267 0 8.52036e-05)
(0.011152 0 0.000186087)
(0.0109923 0 0.000190556)
(0.0108956 0 0.000128116)
(0.0107311 0 4.40093e-05)
(0.0104225 0 2.57241e-05)
(0.0102086 0 0.000138752)
(0.0100373 0 0.00057295)
(0.00974365 0 0.000652735)
(0.00985689 0 0.000358833)
(0.00973396 0 -0.000289265)
(0.0105915 0 -0.000813906)
(0.0108927 0 -0.000540121)
(0.0113492 0 -0.000318913)
(0.0114322 0 -0.000156676)
(0.0114775 0 3.0007e-05)
(0.0114338 0 1.02609e-05)
(0.0113206 0 0.000109002)
(0.0112148 0 3.92505e-05)
(0.0110084 0 0.000110477)
(0.0107816 0 0.000100137)
(0.010574 0 0.000200685)
(0.0103532 0 0.000301334)
(0.010081 0 0.000248261)
(0.0099258 0 0.000136095)
(0.00950946 0 2.18958e-05)
(0.00888057 0 2.78215e-05)
(0.00877594 0 0.000362404)
(0.00813115 0 0.00121262)
(0.0080385 0 0.000785012)
(0.00831853 0 0.0004817)
(0.00899603 0 -0.000771687)
(0.0114786 0 -0.00164515)
(0.0126025 0 -0.00201865)
(0.0138848 0 -0.00130988)
(0.0153631 0 -0.000931609)
(0.0157825 0 -0.00047474)
(0.0162366 0 -0.000262674)
(0.0163298 0 -0.000121752)
(0.0163723 0 -2.14507e-05)
(0.0163031 0 6.03826e-05)
(0.0161539 0 0.000127552)
(0.0159468 0 0.000167684)
(0.0157106 0 0.000191989)
(0.0154452 0 0.000219706)
(0.0151448 0 0.000241381)
(0.014825 0 0.000259324)
(0.0144833 0 0.00027916)
(0.0141253 0 0.000281474)
(0.0137652 0 0.000286239)
(0.0133961 0 0.000298643)
(0.0130073 0 0.000311862)
(0.0126126 0 0.0003064)
(0.0122298 0 0.000300368)
(0.0118442 0 0.000309078)
(0.011445 0 0.000319266)
(0.0110365 0 0.000324931)
(0.0106286 0 0.000319354)
(0.0102272 0 0.000312521)
(0.00982951 0 0.000312443)
(0.00943391 0 0.000310782)
(0.0090392 0 0.000310179)
(0.00864736 0 0.000304826)
(0.00825773 0 0.000309469)
(0.00786115 0 0.000314348)
(0.00746721 0 0.00030377)
(0.00708988 0 0.000289947)
(0.0067276 0 0.00027814)
(0.00637649 0 0.00027106)
(0.0060308 0 0.00026949)
(0.00568715 0 0.000268712)
(0.00534695 0 0.000266174)
(0.00501081 0 0.000262534)
(0.00467971 0 0.000257934)
(0.00435812 0 0.000249659)
(0.00404075 0 0.000249472)
(0.00372656 0 0.000240669)
(0.0034258 0 0.000229832)
(0.00313347 0 0.000229976)
(0.00283796 0 0.000234107)
(0.00253976 0 0.000235187)
(0.00224525 0 0.000232395)
(0.00195544 0 0.000226743)
(0.001674 0 0.000218989)
(0.00140222 0 0.000211154)
(0.00113748 0 0.00020497)
(0.00088014 0 0.000200155)
(0.000629028 0 0.000196063)
(0.000381853 0 0.000192348)
(0.000139578 0 0.000189644)
(-9.7849e-05 0 0.00018553)
(-0.000330673 0 0.000180844)
(-0.000557291 0 0.000176473)
(-0.000777953 0 0.000171948)
(-0.000994439 0 0.0001689)
(-0.00120868 0 0.00016767)
(-0.00142106 0 0.000166315)
(-0.00162981 0 0.00016264)
(-0.00183252 0 0.000157596)
(-0.00203001 0 0.000154547)
(-0.00222553 0 0.000153481)
(-0.0024211 0 0.000156188)
(-0.00261764 0 0.000150011)
(-0.00280576 0 0.000151151)
(-0.00291325 0 0.000148085)
(-0.00344336 0 0.000154576)
(-0.0028416 0 0.000122639)
(-0.00438269 0 0.000130463)
(-0.00242872 0 0.00010413)
(-0.00553755 0 0.000128307)
(-0.00175898 0 0.000103149)
(-0.00703168 0 0.000123594)
(-0.000656051 0 6.55129e-05)
(0.102532 0 -0.00156108)
(0.098347 0 -0.0015965)
(0.0971464 0 -0.000354257)
(0.0980089 0 0.000909032)
(0.0990056 0 0.00145686)
(0.100127 0 0.000470968)
(0.105194 0 -0.00623945)
(0.125414 0 -0.030687)
(0.154386 0 -0.0617024)
(0.17591 0 -0.0745503)
(0.195065 0 -0.067659)
(0.217552 0 -0.0369298)
(0.231013 0 -0.00761417)
(0.230117 0 0.00771983)
(0.221987 0 0.0108035)
(0.213065 0 0.00688383)
(0.205664 0 0.000522209)
(0.19957 0 -0.00695022)
(0.198716 0 -0.0127271)
(0.20286 0 -0.0179139)
(0.208017 0 -0.0203551)
(0.213062 0 -0.0197341)
(0.218523 0 -0.0160925)
(0.222111 0 -0.0105773)
(0.221298 0 -0.00366233)
(0.216189 0 0.00776261)
(0.206171 0 0.0225241)
(0.19548 0 0.0325479)
(0.187013 0 0.0329566)
(0.180157 0 0.0262322)
(0.17509 0 0.0179109)
(0.170831 0 0.0132483)
(0.166568 0 0.0110534)
(0.162151 0 0.00928438)
(0.157908 0 0.00953996)
(0.154063 0 0.0102975)
(0.15068 0 0.00795003)
(0.148524 0 0.00318269)
(0.147917 0 -0.000140434)
(0.147858 0 -0.000891477)
(0.147822 0 -0.000189218)
(0.147123 0 0.00327121)
(0.146319 0 0.00470148)
(0.145628 0 0.00377101)
(0.144542 0 -0.000239201)
(0.144705 0 -0.00204347)
(0.144957 0 -0.00190771)
(0.145125 0 0.00028274)
(0.144807 0 0.00244146)
(0.144447 0 0.00243128)
(0.143311 0 0.000373111)
(0.142904 0 -0.0024301)
(0.143781 0 -0.00365303)
(0.145026 0 -0.0042736)
(0.146441 0 -0.00469079)
(0.14787 0 -0.00424778)
(0.148314 0 -0.00257117)
(0.147769 0 0.000760971)
(0.147457 0 0.00281839)
(0.147647 0 0.00331169)
(0.14796 0 0.00294476)
(0.147773 0 0.00205331)
(0.147337 0 0.00211765)
(0.145782 0 0.00297268)
(0.14421 0 0.00262757)
(0.143083 0 1.33743e-05)
(0.14299 0 -0.00351278)
(0.143902 0 -0.00493265)
(0.144489 0 -0.00472601)
(0.145176 0 -0.00306225)
(0.144862 0 -0.000603909)
(0.143752 0 0.00140873)
(0.142256 0 0.00243251)
(0.14135 0 0.00226377)
(0.141665 0 0.00272312)
(0.142014 0 0.00528916)
(0.146957 0 0.0100346)
(0.148302 0 0.0227742)
(0.15675 0 0.0349945)
(0.155683 0 0.0205137)
(0.146711 0 0.020582)
(0.111288 0 0.0143724)
(0.112238 0 0.00951489)
(0.0997075 0 0.00574746)
(0.0919208 0 -0.000535055)
(0.0879001 0 0.00747076)
(0.0812517 0 0.00683464)
(0.0776463 0 0.00259773)
(0.0793099 0 0.00109245)
(0.0800719 0 0.000435346)
(0.0784854 0 -0.000174325)
(0.0793964 0 -0.000754829)
(0.0794966 0 0.000649696)
(0.0796729 0 0.000576831)
(0.0798125 0 0.00116001)
(0.0798006 0 0.00197666)
(0.0787166 0 0.00414977)
(0.0788562 0 0.00585275)
(0.0773837 0 0.0106928)
(0.0806766 0 0.0186764)
(0.0771496 0 0.0175346)
(0.0778497 0 0.0153694)
(0.0643891 0 0.00891293)
(0.057766 0 0.00437383)
(0.0501881 0 -0.0045019)
(0.0468069 0 -0.00852415)
(0.0459207 0 -0.00440226)
(0.0452128 0 -0.00117143)
(0.0455327 0 0.000916503)
(0.0480884 0 0.000421298)
(0.0505154 0 0.000548272)
(0.0509433 0 -0.000962309)
(0.0515398 0 -0.00132343)
(0.0514731 0 -0.000934133)
(0.0515988 0 0.000369913)
(0.0524227 0 0.00139214)
(0.0526943 0 0.00477902)
(0.0549047 0 0.00718701)
(0.0534871 0 0.00542888)
(0.0542313 0 0.00369375)
(0.0469973 0 0.00166628)
(0.0455383 0 0.000478348)
(0.0429545 0 -0.00333755)
(0.0433666 0 -0.00482932)
(0.0432797 0 -0.00241091)
(0.0437871 0 -0.00137861)
(0.0453934 0 -0.000829155)
(0.046442 0 -0.000721704)
(0.0468725 0 -0.0013225)
(0.0473823 0 -0.00159317)
(0.0476601 0 -0.00131189)
(0.0480346 0 -0.0010586)
(0.0485234 0 -0.000742561)
(0.0489492 0 -0.00068862)
(0.0493112 0 -0.00064747)
(0.0495705 0 -0.000679362)
(0.0497939 0 -0.000658985)
(0.0499874 0 -0.00056378)
(0.0501438 0 -0.000440751)
(0.050301 0 -0.000314105)
(0.0504122 0 -0.000178278)
(0.0504631 0 -2.74572e-05)
(0.0504437 0 0.000116714)
(0.0503657 0 0.000258696)
(0.0502268 0 0.00039415)
(0.0500369 0 0.000510967)
(0.0497885 0 0.000652446)
(0.0494662 0 0.000815542)
(0.0490718 0 0.00100095)
(0.0486176 0 0.00115142)
(0.0481104 0 0.00126354)
(0.0475444 0 0.00139192)
(0.046908 0 0.0015548)
(0.0461931 0 0.00172217)
(0.0454188 0 0.00188054)
(0.0445946 0 0.00202574)
(0.043707 0 0.0021753)
(0.0427399 0 0.00232473)
(0.0417012 0 0.00247022)
(0.0406048 0 0.00261058)
(0.0394424 0 0.00277094)
(0.0382092 0 0.00296644)
(0.0369027 0 0.00312906)
(0.0355325 0 0.00326119)
(0.034092 0 0.00343725)
(0.0325629 0 0.00366912)
(0.030947 0 0.00386115)
(0.0292606 0 0.00399693)
(0.0275156 0 0.00417172)
(0.0256815 0 0.00440504)
(0.0237594 0 0.00463799)
(0.021773 0 0.00480993)
(0.0197255 0 0.00489546)
(0.0176406 0 0.00498404)
(0.0155189 0 0.00507666)
(0.0133786 0 0.00517736)
(0.0112189 0 0.00525463)
(0.00905143 0 0.00521647)
(0.00691093 0 0.0051078)
(0.00480001 0 0.00496019)
(0.00275552 0 0.00473547)
(0.000797384 0 0.00450979)
(-0.00108225 0 0.00432121)
(-0.00288265 0 0.00414372)
(-0.00461129 0 0.0039947)
(-0.00628298 0 0.00382296)
(-0.00788197 0 0.00361686)
(-0.00940308 0 0.00342378)
(-0.0108432 0 0.00325951)
(-0.012206 0 0.00313825)
(-0.0135104 0 0.00302243)
(-0.0147625 0 0.00289929)
(-0.0159693 0 0.00276799)
(-0.0171281 0 0.00262584)
(-0.0182282 0 0.0024874)
(-0.0192676 0 0.00236802)
(-0.0202585 0 0.00227576)
(-0.0212102 0 0.00219953)
(-0.0221207 0 0.00210685)
(-0.0229908 0 0.00200153)
(-0.0238145 0 0.00187738)
(-0.0245919 0 0.00176818)
(-0.0253308 0 0.00168517)
(-0.026036 0 0.00161196)
(-0.0267059 0 0.00153323)
(-0.0273357 0 0.00144907)
(-0.027927 0 0.00135456)
(-0.0284848 0 0.00126841)
(-0.0290135 0 0.00120161)
(-0.0295156 0 0.00114909)
(-0.0299868 0 0.00108234)
(-0.0304202 0 0.000982153)
(-0.0308178 0 0.000894148)
(-0.0311871 0 0.000829076)
(-0.0315303 0 0.000773214)
(-0.0318487 0 0.000731227)
(-0.0321453 0 0.000683379)
(-0.0324168 0 0.000618783)
(-0.0326623 0 0.000541546)
(-0.0328776 0 0.000465918)
(-0.0330652 0 0.000410226)
(-0.0332327 0 0.000363146)
(-0.033378 0 0.000328301)
(-0.0335045 0 0.00028978)
(-0.0336117 0 0.000240226)
(-0.0337004 0 0.000185103)
(-0.0337676 0 0.000125329)
(-0.0338124 0 7.69558e-05)
(-0.0338389 0 3.74042e-05)
(-0.0338484 0 1.14988e-05)
(-0.0338453 0 -1.20085e-05)
(-0.0338291 0 -5.09544e-05)
(-0.0337956 0 -9.75694e-05)
(-0.033742 0 -0.000141015)
(-0.0336715 0 -0.000179166)
(-0.0335891 0 -0.000206736)
(-0.0334961 0 -0.000228863)
(-0.0333965 0 -0.000250349)
(-0.0332893 0 -0.000270829)
(-0.0331713 0 -0.000289301)
(-0.0330412 0 -0.000311691)
(-0.0328975 0 -0.000335898)
(-0.0327433 0 -0.00036256)
(-0.0325836 0 -0.000388703)
(-0.0324187 0 -0.000404171)
(-0.0322478 0 -0.000413857)
(-0.0320734 0 -0.000413768)
(-0.0318937 0 -0.000417437)
(-0.0317061 0 -0.000441132)
(-0.0315111 0 -0.000470381)
(-0.0313112 0 -0.000478777)
(-0.0311104 0 -0.000480812)
(-0.0309089 0 -0.000479403)
(-0.0307035 0 -0.000482703)
(-0.0304918 0 -0.000495965)
(-0.0302748 0 -0.000509374)
(-0.0300556 0 -0.000517573)
(-0.0298363 0 -0.000523271)
(-0.0296176 0 -0.000524012)
(-0.029398 0 -0.000526828)
(-0.0291709 0 -0.000537562)
(-0.0289363 0 -0.000549031)
(-0.0287 0 -0.000562023)
(-0.0284616 0 -0.000570352)
(-0.0282214 0 -0.000569806)
(-0.0279812 0 -0.000566782)
(-0.027738 0 -0.000570502)
(-0.0274902 0 -0.000586768)
(-0.0272353 0 -0.000611639)
(-0.0269738 0 -0.000624057)
(-0.0267093 0 -0.00063112)
(-0.0264418 0 -0.000639375)
(-0.0261709 0 -0.000644997)
(-0.0258945 0 -0.00065101)
(-0.0256115 0 -0.000662765)
(-0.0253232 0 -0.000679881)
(-0.0250313 0 -0.000698451)
(-0.0247334 0 -0.000714788)
(-0.0244279 0 -0.000729654)
(-0.0241153 0 -0.000745447)
(-0.0237953 0 -0.000759421)
(-0.0234709 0 -0.00076719)
(-0.0231417 0 -0.000774846)
(-0.0228062 0 -0.000793799)
(-0.0224614 0 -0.000821813)
(-0.0221074 0 -0.000840309)
(-0.0217483 0 -0.000853895)
(-0.0213834 0 -0.000870177)
(-0.021011 0 -0.000887134)
(-0.0206289 0 -0.000901446)
(-0.0202394 0 -0.000917713)
(-0.0198418 0 -0.000939105)
(-0.019436 0 -0.000961673)
(-0.0190231 0 -0.000982902)
(-0.0186027 0 -0.001003)
(-0.0181726 0 -0.00102322)
(-0.0177314 0 -0.00104097)
(-0.0172804 0 -0.00106053)
(-0.0168217 0 -0.00108227)
(-0.0163571 0 -0.00110595)
(-0.0158837 0 -0.00113201)
(-0.0153973 0 -0.00115812)
(-0.0148986 0 -0.00117688)
(-0.0143908 0 -0.00119736)
(-0.0138758 0 -0.0012225)
(-0.0133548 0 -0.00124691)
(-0.0128205 0 -0.00127209)
(-0.0122737 0 -0.00129267)
(-0.0117205 0 -0.00131045)
(-0.0111626 0 -0.00132863)
(-0.0105991 0 -0.00134735)
(-0.010027 0 -0.00136178)
(-0.0094509 0 -0.001366)
(-0.00887288 0 -0.00136418)
(-0.00829747 0 -0.00136321)
(-0.00772535 0 -0.00136146)
(-0.00715472 0 -0.00135214)
(-0.00658925 0 -0.00133486)
(-0.00603165 0 -0.00131088)
(-0.00548562 0 -0.00128185)
(-0.00495357 0 -0.00124812)
(-0.00443686 0 -0.00120994)
(-0.00393608 0 -0.00116734)
(-0.00345264 0 -0.00111986)
(-0.00298791 0 -0.00107163)
(-0.00254334 0 -0.00102442)
(-0.00211944 0 -0.000976126)
(-0.00171689 0 -0.000925782)
(-0.00133456 0 -0.000875889)
(-0.000971704 0 -0.000829649)
(-0.000627528 0 -0.000786546)
(-0.000301907 0 -0.000745291)
(5.92669e-06 0 -0.000704268)
(0.000296509 0 -0.000662631)
(0.000571238 0 -0.000624241)
(0.000831045 0 -0.000592041)
(0.00107699 0 -0.000565123)
(0.00131157 0 -0.000539766)
(0.00153485 0 -0.000515239)
(0.00174846 0 -0.000492413)
(0.00195333 0 -0.000471559)
(0.00214984 0 -0.000453165)
(0.00233844 0 -0.0004375)
(0.0025209 0 -0.000424271)
(0.00269753 0 -0.000411862)
(0.0028689 0 -0.000401107)
(0.00303694 0 -0.000392565)
(0.00320231 0 -0.000386077)
(0.00336521 0 -0.000381234)
(0.00352587 0 -0.000377567)
(0.00368495 0 -0.000374309)
(0.00384292 0 -0.000371594)
(0.0040004 0 -0.000370771)
(0.00415789 0 -0.000371849)
(0.00431587 0 -0.000373448)
(0.00447473 0 -0.000375187)
(0.00463462 0 -0.000377467)
(0.00479549 0 -0.000380053)
(0.00495709 0 -0.000383046)
(0.00512024 0 -0.000386999)
(0.00528557 0 -0.000391319)
(0.00545292 0 -0.000395339)
(0.00562185 0 -0.000399177)
(0.00579237 0 -0.000403238)
(0.00596467 0 -0.000406776)
(0.00613833 0 -0.000408928)
(0.00631345 0 -0.000411117)
(0.00648992 0 -0.000413594)
(0.00666721 0 -0.000416918)
(0.00684536 0 -0.000418956)
(0.0070239 0 -0.000419432)
(0.00720258 0 -0.000418284)
(0.00738077 0 -0.000417818)
(0.00755905 0 -0.000417716)
(0.0077371 0 -0.000417417)
(0.00791478 0 -0.000414973)
(0.00809094 0 -0.00041142)
(0.00826518 0 -0.000406945)
(0.00843716 0 -0.000402324)
(0.00860726 0 -0.000395279)
(0.00877508 0 -0.000387977)
(0.00893997 0 -0.000381558)
(0.00910141 0 -0.000375549)
(0.0092596 0 -0.000367759)
(0.00941393 0 -0.000358101)
(0.00956363 0 -0.0003485)
(0.00970931 0 -0.000336788)
(0.00984988 0 -0.000325919)
(0.00998625 0 -0.000313793)
(0.0101166 0 -0.000303328)
(0.010242 0 -0.000288412)
(0.0103609 0 -0.000275185)
(0.0104753 0 -0.000258976)
(0.0105824 0 -0.000247455)
(0.0106836 0 -0.000230238)
(0.0107767 0 -0.000217884)
(0.0108648 0 -0.000199526)
(0.0109449 0 -0.000185983)
(0.0110201 0 -0.000164858)
(0.0110867 0 -0.000151363)
(0.011146 0 -0.000132512)
(0.0111982 0 -0.000122733)
(0.0112441 0 -0.000103639)
(0.0112834 0 -9.20813e-05)
(0.0113163 0 -7.35932e-05)
(0.0113448 0 -5.92973e-05)
(0.0113616 0 -4.7337e-05)
(0.0113797 0 -3.50091e-05)
(0.0113808 0 -2.55946e-05)
(0.011392 0 -3.98216e-06)
(0.0113894 0 6.62275e-06)
(0.0113937 0 3.12939e-05)
(0.0113856 0 3.54691e-05)
(0.01137 0 4.56853e-05)
(0.0113497 0 4.12868e-05)
(0.0113062 0 8.11738e-05)
(0.0112686 0 8.1956e-05)
(0.0112592 0 0.000146126)
(0.0112171 0 0.000142238)
(0.0111905 0 9.90074e-05)
(0.0111337 0 6.09507e-05)
(0.0109548 0 0.00011977)
(0.0108635 0 0.000120772)
(0.0109087 0 0.000427499)
(0.0108377 0 0.000433921)
(0.0110505 0 7.11948e-05)
(0.0109876 0 -8.50154e-05)
(0.0117602 0 -0.000280224)
(0.0117986 0 -0.000254892)
(0.012049 0 -0.000565769)
(0.0118611 0 -0.000587071)
(0.0118161 0 -0.000297592)
(0.0116988 0 -0.000124603)
(0.0116288 0 5.79085e-05)
(0.0115673 0 0.000187587)
(0.011491 0 0.00027863)
(0.0114412 0 0.000216874)
(0.0113598 0 0.000225959)
(0.0112479 0 0.000170246)
(0.0109466 0 0.00022157)
(0.0107474 0 0.000268202)
(0.0106416 0 0.000719259)
(0.0105268 0 0.000796781)
(0.0107532 0 0.000466381)
(0.0107406 0 0.000126653)
(0.0116953 0 -0.000362407)
(0.0119879 0 -0.000397436)
(0.012485 0 -0.000825448)
(0.012272 0 -0.000974368)
(0.0121983 0 -0.000693994)
(0.011991 0 -0.000493633)
(0.0119168 0 -7.27643e-05)
(0.011717 0 -1.07298e-05)
(0.0115437 0 0.000212211)
(0.0113899 0 0.000257322)
(0.0112213 0 0.000429074)
(0.0111208 0 0.000598863)
(0.0109305 0 0.000561203)
(0.0108852 0 0.000493796)
(0.0104554 0 0.000437947)
(0.00986783 0 0.000452123)
(0.00964071 0 0.000722345)
(0.00936646 0 0.00169075)
(0.00942432 0 0.00113197)
(0.00990777 0 0.000811176)
(0.011026 0 -0.000152109)
(0.0143343 0 -0.00108324)
(0.0155944 0 -0.0023159)
(0.016288 0 -0.0037697)
(0.0173705 0 -0.00277031)
(0.0170383 0 -0.0029762)
(0.0169723 0 -0.00243824)
(0.0169718 0 -0.00175517)
(0.0169907 0 -0.00093732)
(0.01698 0 -0.000436672)
(0.0168959 0 -0.000117714)
(0.0167735 0 0.000104082)
(0.0166081 0 0.000294768)
(0.0164016 0 0.000450578)
(0.0161631 0 0.000545512)
(0.0159 0 0.000604239)
(0.0156114 0 0.000679805)
(0.0152963 0 0.000738374)
(0.0149623 0 0.000783883)
(0.0146133 0 0.000833739)
(0.0142537 0 0.000847064)
(0.0138861 0 0.000863611)
(0.0135099 0 0.000893245)
(0.0131277 0 0.000924402)
(0.0127411 0 0.000917167)
(0.0123521 0 0.000908564)
(0.0119592 0 0.000927971)
(0.0115631 0 0.000951427)
(0.0111655 0 0.000962145)
(0.0107662 0 0.000953904)
(0.0103672 0 0.0009419)
(0.0099701 0 0.000938731)
(0.00957599 0 0.000930061)
(0.00918602 0 0.000928382)
(0.0087944 0 0.000922637)
(0.00840161 0 0.00092972)
(0.00801533 0 0.000930686)
(0.00763478 0 0.000905284)
(0.00726015 0 0.00087196)
(0.00689263 0 0.000843681)
(0.00653053 0 0.000826136)
(0.00617364 0 0.000815238)
(0.00582431 0 0.000806688)
(0.00548062 0 0.000796654)
(0.00514351 0 0.000784142)
(0.00481402 0 0.000769051)
(0.00448931 0 0.000751667)
(0.00416939 0 0.000746851)
(0.00385415 0 0.000725996)
(0.00354538 0 0.000701025)
(0.00324118 0 0.000696556)
(0.00294174 0 0.000699331)
(0.00264837 0 0.000695818)
(0.00236092 0 0.000685095)
(0.0020803 0 0.000669343)
(0.00180554 0 0.000650757)
(0.00153567 0 0.000631577)
(0.00127148 0 0.000614312)
(0.00101379 0 0.0005994)
(0.000762191 0 0.000586262)
(0.00051618 0 0.000575383)
(0.000274884 0 0.000565356)
(3.86649e-05 0 0.00055357)
(-0.000192335 0 0.000539892)
(-0.000418469 0 0.00052588)
(-0.000639459 0 0.000514534)
(-0.000857328 0 0.000507918)
(-0.00107255 0 0.000502781)
(-0.00128349 0 0.000494558)
(-0.0014888 0 0.000482633)
(-0.00168936 0 0.000469323)
(-0.00188766 0 0.000464152)
(-0.00208535 0 0.000460105)
(-0.00227727 0 0.000459139)
(-0.00246846 0 0.000443697)
(-0.0026554 0 0.00044367)
(-0.00274597 0 0.000442533)
(-0.00329057 0 0.000445963)
(-0.00266144 0 0.000392195)
(-0.00424017 0 0.000388688)
(-0.00228882 0 0.000360234)
(-0.00543332 0 0.00038952)
(-0.00165918 0 0.000370863)
(-0.00697132 0 0.00039228)
(-0.000596465 0 0.000343576)
(0.102927 0 -0.00283735)
(0.0983898 0 -0.00273834)