/*--------------------------------*- C++ -*----------------------------------*\
| =========                 |                                                 |
| \\      /  F ield         | OpenFOAM: The Open Source CFD Toolbox           |
|  \\    /   O peration     | Version:  v2006                                 |
|   \\  /    A nd           | Website:  www.openfoam.com                      |
|    \\/     M anipulation  |                                                 |
\*---------------------------------------------------------------------------*/
FoamFile
{
    version     2.0;
    format      ascii;
    class       volScalarField;
    location    "4.1";
    object      nut;
}
// * * * * * * * * * * * * * * * * * * * * * * * * * * * * * * * * * * * * * //

dimensions      [0 2 -1 0 0 0 0];


internalField   nonuniform List<scalar> 
33000
(
5.22771e-10
1.57284e-09
2.69664e-09
3.90044e-09
5.87138e-09
8.15479e-09
1.07846e-08
1.41279e-08
1.7496e-08
2.02888e-08
2.11941e-08
2.02781e-08
1.84538e-08
1.64522e-08
1.44377e-08
1.25609e-08
1.11189e-08
1.01617e-08
9.58347e-09
9.08226e-09
8.55485e-09
7.97792e-09
7.46931e-09
7.03063e-09
6.63909e-09
6.26067e-09
5.96223e-09
5.75927e-09
5.58728e-09
5.37964e-09
5.11927e-09
4.90218e-09
4.77072e-09
4.68348e-09
4.58889e-09
4.43384e-09
4.24318e-09
4.06802e-09
3.95231e-09
3.89151e-09
3.83612e-09
3.74633e-09
3.63409e-09
3.51929e-09
3.41563e-09
3.33707e-09
3.27532e-09
3.21655e-09
3.15719e-09
3.09253e-09
3.02695e-09
2.98315e-09
2.95645e-09
2.92703e-09
2.87899e-09
2.81975e-09
2.75581e-09
2.69865e-09
2.65602e-09
2.60402e-09
2.53247e-09
2.44569e-09
2.3477e-09
2.25129e-09
2.17542e-09
2.10917e-09
2.04311e-09
1.97452e-09
1.91039e-09
1.86311e-09
1.8442e-09
1.86698e-09
1.95504e-09
2.12036e-09
2.34378e-09
2.58224e-09
2.80497e-09
3.12827e-09
3.59391e-09
4.6843e-09
4.91921e-09
4.72611e-09
4.92565e-09
5.14698e-09
5.30699e-09
5.17126e-09
5.14028e-09
5.06275e-09
4.90033e-09
4.76895e-09
4.79457e-09
4.64944e-09
4.51515e-09
4.33632e-09
4.12996e-09
4.08824e-09
4.17175e-09
4.75138e-09
5.84958e-09
8.27637e-09
9.05099e-09
8.30764e-09
8.12412e-09
9.00836e-09
1.0089e-08
1.02054e-08
1.0009e-08
9.3742e-09
8.64335e-09
8.0133e-09
7.91541e-09
7.81739e-09
7.53762e-09
7.17871e-09
6.82964e-09
6.71145e-09
7.11828e-09
8.83867e-09
9.11713e-09
8.49492e-09
8.19453e-09
8.17162e-09
8.50907e-09
8.39839e-09
8.32542e-09
7.98642e-09
7.67467e-09
7.53626e-09
7.43486e-09
7.31258e-09
7.21025e-09
7.07353e-09
6.9473e-09
6.84354e-09
6.74861e-09
6.65718e-09
6.56781e-09
6.4817e-09
6.39805e-09
6.3177e-09
6.24496e-09
6.17452e-09
6.1115e-09
6.05332e-09
5.99709e-09
5.94449e-09
5.8966e-09
5.85531e-09
5.81881e-09
5.78509e-09
5.75385e-09
5.72489e-09
5.70152e-09
5.68405e-09
5.67099e-09
5.6617e-09
5.65387e-09
5.64867e-09
5.65032e-09
5.65862e-09
5.66992e-09
5.68231e-09
5.6991e-09
5.72349e-09
5.75379e-09
5.7863e-09
5.82063e-09
5.86191e-09
5.91318e-09
5.97033e-09
6.02947e-09
6.09268e-09
6.16686e-09
6.25457e-09
6.35038e-09
6.45149e-09
6.55981e-09
6.68266e-09
6.82237e-09
6.97845e-09
7.14763e-09
7.33011e-09
7.534e-09
7.76608e-09
8.02959e-09
8.31274e-09
8.6146e-09
8.96338e-09
9.37804e-09
9.84038e-09
1.03493e-08
1.09307e-08
1.15961e-08
1.23709e-08
1.32719e-08
1.43093e-08
1.5553e-08
1.7052e-08
1.88438e-08
2.09997e-08
2.36434e-08
2.70131e-08
3.14771e-08
3.73046e-08
4.44465e-08
5.10603e-08
5.13026e-08
5.15796e-08
5.18563e-08
5.20961e-08
4.64017e-08
4.03977e-08
3.53937e-08
3.14367e-08
2.83529e-08
2.58112e-08
2.36634e-08
2.18584e-08
2.0315e-08
1.9013e-08
1.79379e-08
1.70089e-08
1.61777e-08
1.5435e-08
1.47695e-08
1.41852e-08
1.36799e-08
1.32264e-08
1.28092e-08
1.24342e-08
1.20929e-08
1.17772e-08
1.14979e-08
1.12492e-08
1.10178e-08
1.08047e-08
1.06087e-08
1.04286e-08
1.02666e-08
1.01214e-08
9.98688e-09
9.861e-09
9.74822e-09
9.64712e-09
9.5557e-09
9.47007e-09
9.38844e-09
9.3182e-09
9.2595e-09
9.20488e-09
9.15195e-09
9.10522e-09
9.06782e-09
9.03393e-09
9.00311e-09
8.97875e-09
8.95782e-09
8.94051e-09
8.92604e-09
8.9144e-09
8.90827e-09
8.90522e-09
8.90276e-09
8.90139e-09
8.90254e-09
8.90741e-09
8.91591e-09
8.92782e-09
8.93933e-09
8.94943e-09
8.961e-09
8.9746e-09
8.99231e-09
9.01249e-09
9.03183e-09
9.05112e-09
9.07085e-09
9.09263e-09
9.11697e-09
9.14059e-09
9.16215e-09
9.18817e-09
9.21764e-09
9.24577e-09
9.27272e-09
9.29952e-09
9.32749e-09
9.35686e-09
9.38823e-09
9.4206e-09
9.45396e-09
9.48614e-09
9.51705e-09
9.55095e-09
9.58843e-09
9.62631e-09
9.66489e-09
9.70468e-09
9.74479e-09
9.787e-09
9.83196e-09
9.87915e-09
9.92751e-09
9.97582e-09
1.00275e-08
1.00823e-08
1.01402e-08
1.01971e-08
1.02548e-08
1.03181e-08
1.03845e-08
1.0453e-08
1.05216e-08
1.05928e-08
1.06678e-08
1.07474e-08
1.08299e-08
1.09132e-08
1.09998e-08
1.10913e-08
1.11871e-08
1.12857e-08
1.13833e-08
1.1485e-08
1.15941e-08
1.17067e-08
1.18186e-08
1.19311e-08
1.20507e-08
1.21743e-08
1.23012e-08
1.24308e-08
1.25619e-08
1.26954e-08
1.2832e-08
1.29713e-08
1.31145e-08
1.32616e-08
1.34119e-08
1.35621e-08
1.37148e-08
1.38742e-08
1.40381e-08
1.42054e-08
1.43761e-08
1.45469e-08
1.47209e-08
1.49017e-08
1.50892e-08
1.52808e-08
1.54698e-08
1.56652e-08
1.58712e-08
1.60835e-08
1.63019e-08
1.65225e-08
1.67533e-08
1.69964e-08
1.72465e-08
1.75015e-08
1.77647e-08
1.80417e-08
1.83282e-08
1.86269e-08
1.89361e-08
1.92528e-08
1.95852e-08
1.99339e-08
2.01509e-08
1.99914e-08
1.98332e-08
1.96764e-08
1.95212e-08
1.93675e-08
1.92155e-08
1.9065e-08
1.89163e-08
1.87695e-08
1.86245e-08
1.84813e-08
1.83399e-08
1.82002e-08
1.80624e-08
1.79267e-08
1.77931e-08
1.76618e-08
1.75325e-08
1.74053e-08
1.72801e-08
1.71571e-08
1.70362e-08
1.69172e-08
1.67999e-08
1.6685e-08
1.65727e-08
1.64619e-08
1.63537e-08
1.62475e-08
1.61435e-08
1.6041e-08
1.59407e-08
1.5842e-08
1.57458e-08
1.56514e-08
1.55599e-08
1.54701e-08
1.53831e-08
1.52983e-08
1.5215e-08
1.51351e-08
1.50564e-08
1.4981e-08
1.4906e-08
1.48335e-08
1.4764e-08
1.46931e-08
1.46248e-08
1.45573e-08
1.44845e-08
1.44201e-08
1.43671e-08
1.42954e-08
1.42445e-08
1.41763e-08
1.40504e-08
1.3998e-08
1.39891e-08
1.38646e-08
1.39715e-08
1.39819e-08
1.4348e-08
1.43209e-08
1.44393e-08
1.44133e-08
1.44382e-08
1.44003e-08
1.43924e-08
1.43533e-08
1.43302e-08
1.42832e-08
1.42455e-08
1.41958e-08
1.41151e-08
1.40687e-08
1.4039e-08
1.39545e-08
1.39763e-08
1.39505e-08
1.40817e-08
1.40444e-08
1.40565e-08
1.40226e-08
1.39952e-08
1.39572e-08
1.39217e-08
1.38764e-08
1.38311e-08
1.37578e-08
1.3704e-08
1.36691e-08
1.35824e-08
1.35681e-08
1.34828e-08
1.32167e-08
1.31797e-08
1.32317e-08
1.29838e-08
1.36848e-08
1.39322e-08
1.48795e-08
1.45085e-08
1.48412e-08
1.51539e-08
1.51957e-08
1.51443e-08
1.50396e-08
1.49027e-08
1.47474e-08
1.4591e-08
1.44384e-08
1.42919e-08
1.41522e-08
1.40194e-08
1.38932e-08
1.37733e-08
1.36592e-08
1.35509e-08
1.34481e-08
1.335e-08
1.32563e-08
1.31664e-08
1.308e-08
1.29968e-08
1.29161e-08
1.28389e-08
1.27656e-08
1.26943e-08
1.26252e-08
1.2559e-08
1.24951e-08
1.24334e-08
1.23739e-08
1.23165e-08
1.22612e-08
1.22077e-08
1.21564e-08
1.21058e-08
1.20564e-08
1.20097e-08
1.19641e-08
1.19195e-08
1.18761e-08
1.18337e-08
1.1792e-08
1.17511e-08
1.17111e-08
1.16722e-08
1.16345e-08
1.1598e-08
1.15629e-08
1.15293e-08
1.14971e-08
1.14658e-08
1.14342e-08
1.14018e-08
1.1369e-08
1.13373e-08
1.13087e-08
1.12822e-08
1.12546e-08
1.12252e-08
1.11931e-08
1.11612e-08
1.11347e-08
1.11111e-08
1.10853e-08
1.10551e-08
1.10243e-08
1.09999e-08
1.0979e-08
1.09537e-08
1.09246e-08
1.08998e-08
1.08815e-08
1.08625e-08
1.08144e-08
1.07091e-08
1.10918e-08
9.82159e-09
1.21728e-08
3.42514e-10
9.65698e-10
2.5497e-09
2.09673e-09
2.54924e-09
3.38456e-09
4.11464e-09
4.99458e-09
5.76806e-09
6.43331e-09
6.91074e-09
7.275e-09
7.6334e-09
8.06429e-09
8.53298e-09
8.8865e-09
9.02016e-09
8.97361e-09
8.7834e-09
8.65213e-09
8.75262e-09
9.21587e-09
9.75854e-09
1.00671e-08
9.59465e-09
8.68058e-09
8.22555e-09
8.55315e-09
9.71992e-09
1.08702e-08
1.06572e-08
9.63537e-09
9.03255e-09
9.39785e-09
1.00726e-08
1.0382e-08
1.00155e-08
9.42512e-09
9.59948e-09
1.00563e-08
1.05159e-08
1.06354e-08
9.51322e-09
9.08665e-09
9.33885e-09
9.5328e-09
1.05146e-08
1.15055e-08
1.12129e-08
1.09225e-08
1.17242e-08
1.32454e-08
1.43059e-08
1.36567e-08
1.36851e-08
1.56262e-08
1.71301e-08
1.9524e-08
2.00712e-08
1.7152e-08
1.81318e-08
2.02641e-08
1.91038e-08
1.78748e-08
1.88173e-08
1.98779e-08
1.75237e-08
1.48932e-08
1.35782e-08
1.22904e-08
1.08616e-08
9.74177e-09
9.08875e-09
8.57796e-09
7.87362e-09
7.13554e-09
6.59647e-09
6.67961e-09
7.69928e-09
8.7238e-09
7.50107e-09
5.26099e-09
4.95523e-09
4.50957e-09
3.92911e-09
6.18262e-09
1.50413e-08
1.20586e-08
1.52995e-08
6.82623e-08
1.94426e-08
1.22437e-08
1.0253e-08
9.02946e-09
6.95611e-09
5.48669e-09
4.45296e-09
3.29409e-09
2.91268e-09
2.28577e-09
2.00076e-09
2.08684e-09
3.19227e-09
5.2824e-09
5.56824e-09
6.89617e-09
9.89484e-09
1.29861e-08
1.05661e-08
1.75321e-08
5.10251e-08
4.3809e-08
2.24148e-08
1.84582e-08
1.58859e-08
1.2789e-08
1.41517e-08
1.23317e-08
8.3118e-09
6.09271e-09
9.01513e-09
2.43318e-08
1.99197e-08
2.04945e-08
1.98796e-08
1.66266e-08
2.00246e-08
3.16076e-08
3.41005e-08
3.37881e-08
3.2147e-08
3.0142e-08
3.33413e-08
3.76707e-08
3.84302e-08
3.91716e-08
3.95683e-08
4.0386e-08
4.09494e-08
4.32813e-08
4.65049e-08
4.97147e-08
5.33844e-08
5.66373e-08
6.14584e-08
6.94071e-08
7.83566e-08
8.74539e-08
9.83729e-08
1.14661e-07
1.40177e-07
1.82434e-07
2.46012e-07
3.12345e-07
3.10055e-07
3.07045e-07
2.42435e-07
1.75751e-07
1.45159e-07
1.24809e-07
1.07338e-07
9.1697e-08
7.91272e-08
7.02054e-08
6.39854e-08
5.86532e-08
5.31009e-08
4.80976e-08
4.47017e-08
4.22991e-08
3.94779e-08
3.65243e-08
3.39579e-08
3.21483e-08
3.06685e-08
2.8938e-08
2.72706e-08
2.59001e-08
2.47466e-08
2.36414e-08
2.24568e-08
2.13049e-08
2.04647e-08
1.97613e-08
1.91463e-08
1.84556e-08
1.77396e-08
1.70332e-08
1.6457e-08
1.59947e-08
1.55661e-08
1.52269e-08
1.50294e-08
1.48075e-08
1.45384e-08
1.4231e-08
1.40055e-08
1.39293e-08
1.39979e-08
1.40852e-08
1.40737e-08
1.40862e-08
1.42665e-08
1.45864e-08
1.48779e-08
1.51549e-08
1.54906e-08
1.59334e-08
1.64791e-08
1.70527e-08
1.75907e-08
1.81008e-08
1.87256e-08
1.94714e-08
2.02119e-08
2.09149e-08
2.1618e-08
2.23892e-08
2.32378e-08
2.42106e-08
2.53901e-08
2.6576e-08
2.7651e-08
2.87792e-08
3.01468e-08
3.16885e-08
3.3468e-08
3.537e-08
3.73658e-08
3.96076e-08
4.20178e-08
4.46598e-08
4.79727e-08
5.17773e-08
5.58863e-08
6.03198e-08
6.52633e-08
7.11968e-08
7.87836e-08
8.86175e-08
1.00347e-07
1.12934e-07
1.28506e-07
1.48303e-07
1.77167e-07
2.14823e-07
2.59702e-07
3.31677e-07
3.44735e-07
3.44807e-07
3.43535e-07
3.41211e-07
3.38975e-07
3.38248e-07
2.9745e-07
2.5971e-07
2.2735e-07
2.02119e-07
1.81332e-07
1.65047e-07
1.5751e-07
1.51462e-07
1.43719e-07
1.36682e-07
1.30008e-07
1.24489e-07
1.2047e-07
1.17819e-07
1.1635e-07
1.14361e-07
1.11792e-07
1.09469e-07
1.07683e-07
1.06462e-07
1.05374e-07
1.04085e-07
1.03471e-07
1.03218e-07
1.0278e-07
1.02508e-07
1.0199e-07
1.00618e-07
1.0037e-07
1.00953e-07
1.01172e-07
1.00919e-07
1.00678e-07
1.00382e-07
1.00339e-07
1.00624e-07
1.00703e-07
1.0087e-07
1.00876e-07
1.006e-07
1.00895e-07
1.01295e-07
1.00982e-07
1.00657e-07
1.00984e-07
1.01375e-07
1.01462e-07
1.01451e-07
1.01321e-07
1.0128e-07
1.01639e-07
1.01926e-07
1.0184e-07
1.02118e-07
1.01932e-07
1.0203e-07
1.02365e-07
1.02495e-07
1.02488e-07
1.02888e-07
1.03204e-07
1.03412e-07
1.03617e-07
1.03747e-07
1.0413e-07
1.0462e-07
1.05009e-07
1.05448e-07
1.05716e-07
1.05808e-07
1.06625e-07
1.07362e-07
1.07894e-07
1.08381e-07
1.08801e-07
1.09435e-07
1.10279e-07
1.1105e-07
1.11746e-07
1.12579e-07
1.1349e-07
1.1438e-07
1.1516e-07
1.16013e-07
1.16913e-07
1.17848e-07
1.18909e-07
1.19809e-07
1.20598e-07
1.21765e-07
1.22979e-07
1.24034e-07
1.24986e-07
1.2611e-07
1.27279e-07
1.28435e-07
1.2953e-07
1.30537e-07
1.31862e-07
1.33061e-07
1.34229e-07
1.3551e-07
1.36805e-07
1.38231e-07
1.39277e-07
1.4014e-07
1.41398e-07
1.43358e-07
1.44843e-07
1.45883e-07
1.47387e-07
1.48562e-07
1.49934e-07
1.51796e-07
1.53229e-07
1.54727e-07
1.56487e-07
1.58194e-07
1.59927e-07
1.61383e-07
1.63106e-07
1.64835e-07
1.6675e-07
1.69003e-07
1.70772e-07
1.72437e-07
1.74449e-07
1.7658e-07
1.78706e-07
1.80551e-07
1.82398e-07
1.8517e-07
1.87529e-07
1.89757e-07
1.92299e-07
1.94908e-07
1.97519e-07
2.0018e-07
2.02633e-07
2.0534e-07
2.08726e-07
2.12086e-07
2.15121e-07
2.18685e-07
2.21438e-07
2.25639e-07
2.28775e-07
2.33419e-07
2.36289e-07
2.41399e-07
2.43842e-07
2.50331e-07
2.51782e-07
2.5877e-07
2.60013e-07
2.60347e-07
2.65618e-07
2.66506e-07
2.81609e-07
2.84457e-07
3.07263e-07
3.08607e-07
2.83354e-07
2.94205e-07
3.02906e-07
3.27067e-07
6.50443e-07
5.48043e-07
2.07651e-07
2.14079e-07
1.56103e-07
1.36819e-07
8.39273e-08
8.83997e-08
1.47748e-07
1.88881e-07
2.02629e-07
1.885e-07
2.74955e-07
2.51613e-07
2.95509e-07
3.01438e-07
3.4242e-07
3.72963e-07
6.07403e-07
5.65245e-07
2.70908e-07
2.8256e-07
2.21271e-07
1.99873e-07
1.27686e-07
1.35097e-07
2.30763e-07
2.82566e-07
3.15494e-07
2.77107e-07
5.41859e-07
4.32294e-07
7.67016e-07
5.87272e-07
6.39038e-07
4.09799e-07
4.83689e-07
5.11158e-07
5.83439e-07
3.11892e-07
2.95876e-07
1.09223e-07
1.00229e-07
5.0943e-08
4.51189e-08
2.33948e-08
2.26557e-08
3.89659e-08
4.31225e-08
4.50267e-08
5.40587e-08
8.2723e-08
9.86515e-08
1.20732e-07
1.39734e-07
1.5891e-07
1.78795e-07
1.99779e-07
2.21396e-07
2.43443e-07
2.66206e-07
2.89864e-07
3.14226e-07
3.3951e-07
3.66248e-07
3.95104e-07
4.26081e-07
4.5886e-07
4.93213e-07
5.28646e-07
5.64359e-07
6.01443e-07
6.4145e-07
6.84897e-07
7.30342e-07
7.60706e-07
7.62509e-07
7.64555e-07
7.66725e-07
7.69011e-07
7.7132e-07
7.73335e-07
7.74787e-07
7.75964e-07
7.76982e-07
7.77845e-07
7.78565e-07
7.79163e-07
7.79614e-07
7.79977e-07
7.80236e-07
7.80398e-07
7.80512e-07
7.80631e-07
7.80757e-07
7.80968e-07
7.81408e-07
7.81944e-07
7.82416e-07
7.82886e-07
7.83332e-07
7.83647e-07
7.83735e-07
7.83638e-07
7.83523e-07
7.83665e-07
7.84397e-07
7.84652e-07
7.84325e-07
7.83068e-07
7.80586e-07
7.79864e-07
7.82229e-07
7.84584e-07
7.83712e-07
7.81068e-07
7.80227e-07
7.83467e-07
7.8633e-07
7.85932e-07
7.85704e-07
7.86634e-07
7.87238e-07
7.86492e-07
7.84998e-07
7.83937e-07
1.77673e-07
8.64355e-08
4.85144e-08
8.27261e-08
3.93486e-10
1.00647e-09
3.55495e-09
1.72755e-09
1.65235e-09
2.14089e-09
2.57003e-09
3.03801e-09
3.39541e-09
3.659e-09
3.82479e-09
3.94179e-09
4.08184e-09
4.28486e-09
4.60276e-09
4.91785e-09
4.98045e-09
4.74275e-09
4.48262e-09
4.41264e-09
4.63151e-09
5.08997e-09
5.52429e-09
5.67213e-09
5.42982e-09
4.84069e-09
4.41822e-09
4.46308e-09
5.22596e-09
6.08314e-09
6.29163e-09
5.55788e-09
4.7943e-09
4.9039e-09
5.6635e-09
6.31263e-09
6.72273e-09
5.97683e-09
5.13419e-09
5.06735e-09
5.29455e-09
5.86399e-09
6.24784e-09
6.05049e-09
5.83624e-09
5.53609e-09
5.47217e-09
6.1047e-09
7.12973e-09
7.69407e-09
7.41178e-09
7.62475e-09
8.77228e-09
9.78995e-09
1.10595e-08
1.23058e-08
1.1823e-08
1.17076e-08
1.07238e-08
1.05996e-08
1.27304e-08
1.22818e-08
1.04506e-08
1.13055e-08
1.25239e-08
1.38377e-08
1.27132e-08
1.05187e-08
9.23827e-09
7.86324e-09
7.29813e-09
7.39777e-09
7.36771e-09
7.04011e-09
6.41093e-09
6.06563e-09
5.69866e-09
5.07396e-09
4.39047e-09
3.66718e-09
3.40493e-09
3.64464e-09
3.94751e-09
3.21054e-09
2.33682e-09
2.3911e-09
2.46167e-09
2.29991e-09
3.02946e-09
5.20582e-09
8.44504e-09
8.85301e-09
1.95803e-08
1.13761e-08
6.41392e-09
5.69556e-09
5.19751e-09
4.97981e-09
4.79311e-09
3.7644e-09
2.44878e-09
2.2125e-09
1.71281e-09
1.53893e-09
1.50399e-09
2.04023e-09
2.85627e-09
3.97128e-09
5.18193e-09
6.84385e-09
8.89421e-09
9.77503e-09
1.85136e-08
6.80305e-08
2.02142e-08
1.18896e-08
1.0575e-08
1.26194e-08
1.28609e-08
1.78069e-08
1.19909e-08
7.76197e-09
5.16044e-09
7.10004e-09
1.85873e-08
1.66394e-08
1.94393e-08
1.93483e-08
1.62783e-08
2.00274e-08
3.44354e-08
3.88835e-08
3.85271e-08
3.65474e-08
3.30519e-08
3.03532e-08
3.27669e-08
3.77111e-08
3.87612e-08
4.09448e-08
4.31022e-08
4.50952e-08
4.85792e-08
5.30489e-08
5.72407e-08
6.32286e-08
7.01243e-08
7.75164e-08
8.81508e-08
1.02303e-07
1.20317e-07
1.45626e-07
1.78204e-07
2.14904e-07
2.36057e-07
2.07134e-07
1.63893e-07
1.39186e-07
1.25718e-07
1.09885e-07
9.3181e-08
8.04538e-08
7.22989e-08
6.54286e-08
5.88759e-08
5.29886e-08
4.82298e-08
4.46433e-08
4.17958e-08
3.89778e-08
3.60173e-08
3.37436e-08
3.18668e-08
3.00035e-08
2.82948e-08
2.67121e-08
2.53462e-08
2.41976e-08
2.31209e-08
2.19923e-08
2.08672e-08
1.98922e-08
1.92138e-08
1.86593e-08
1.79844e-08
1.71942e-08
1.65794e-08
1.61044e-08
1.56119e-08
1.51317e-08
1.477e-08
1.44847e-08
1.42684e-08
1.40564e-08
1.38174e-08
1.35984e-08
1.34236e-08
1.32934e-08
1.32848e-08
1.33835e-08
1.34577e-08
1.35576e-08
1.36687e-08
1.38138e-08
1.40464e-08
1.43294e-08
1.46531e-08
1.50792e-08
1.55283e-08
1.5925e-08
1.63679e-08
1.68939e-08
1.7561e-08
1.82168e-08
1.88282e-08
1.95362e-08
2.02581e-08
2.10073e-08
2.18619e-08
2.27556e-08
2.37257e-08
2.4804e-08
2.58709e-08
2.71016e-08
2.85653e-08
2.99112e-08
3.1283e-08
3.29991e-08
3.50527e-08
3.73368e-08
3.98057e-08
4.22273e-08
4.4746e-08
4.83151e-08
5.25847e-08
5.666e-08
6.09933e-08
6.64742e-08
7.35327e-08
8.23378e-08
9.29541e-08
1.032e-07
1.14708e-07
1.31438e-07
1.56092e-07
1.87785e-07
2.19024e-07
2.54589e-07
3.18623e-07
3.96502e-07
3.94642e-07
3.47504e-07
3.15278e-07
2.83219e-07
2.55408e-07
2.30084e-07
2.03512e-07
1.80899e-07
1.62622e-07
1.51737e-07
1.4661e-07
1.41354e-07
1.33448e-07
1.26705e-07
1.22044e-07
1.17718e-07
1.14109e-07
1.11477e-07
1.09696e-07
1.07645e-07
1.04538e-07
1.02229e-07
1.02019e-07
1.02476e-07
1.01605e-07
9.88512e-08
9.73581e-08
9.79979e-08
9.8457e-08
9.75547e-08
9.65958e-08
9.65222e-08
9.70643e-08
9.72418e-08
9.67265e-08
9.5789e-08
9.54559e-08
9.6698e-08
9.76117e-08
9.73633e-08
9.67268e-08
9.63315e-08
9.62709e-08
9.68791e-08
9.8099e-08
9.82551e-08
9.74604e-08
9.71182e-08
9.75337e-08
9.8095e-08
9.84797e-08
9.84479e-08
9.78902e-08
9.83707e-08
9.92224e-08
9.92802e-08
9.87188e-08
9.89262e-08
9.94762e-08
9.96969e-08
9.98713e-08
9.97831e-08
9.9852e-08
1.00611e-07
1.00972e-07
1.01139e-07
1.01193e-07
1.01568e-07
1.02065e-07
1.026e-07
1.03384e-07
1.03422e-07
1.03347e-07
1.04137e-07
1.05071e-07
1.05655e-07
1.06019e-07
1.06562e-07
1.07323e-07
1.08188e-07
1.0926e-07
1.09875e-07
1.10264e-07
1.11201e-07
1.12293e-07
1.13163e-07
1.13941e-07
1.14858e-07
1.15582e-07
1.16376e-07
1.17763e-07
1.19041e-07
1.20048e-07
1.21256e-07
1.22235e-07
1.23015e-07
1.24008e-07
1.25308e-07
1.26588e-07
1.27309e-07
1.28506e-07
1.30226e-07
1.31378e-07
1.32412e-07
1.33273e-07
1.34588e-07
1.3662e-07
1.38158e-07
1.38671e-07
1.39157e-07
1.40789e-07
1.43081e-07
1.44669e-07
1.45481e-07
1.46391e-07
1.47779e-07
1.4999e-07
1.51985e-07
1.53024e-07
1.54413e-07
1.5591e-07
1.57675e-07
1.5966e-07
1.61145e-07
1.62373e-07
1.64129e-07
1.66806e-07
1.69363e-07
1.70797e-07
1.7225e-07
1.73808e-07
1.76135e-07
1.78268e-07
1.80346e-07
1.82771e-07
1.85357e-07
1.87629e-07
1.89383e-07
1.91906e-07
1.94774e-07
1.97915e-07
1.99399e-07
2.0201e-07
2.05419e-07
2.08936e-07
2.11477e-07
2.16154e-07
2.19065e-07
2.22415e-07
2.24667e-07
2.28871e-07
2.31636e-07
2.37751e-07
2.40986e-07
2.46424e-07
2.48348e-07
2.468e-07
2.51912e-07
2.52645e-07
2.64816e-07
2.68351e-07
2.86741e-07
2.87609e-07
2.6302e-07
2.71416e-07
2.80454e-07
3.04826e-07
5.67296e-07
4.76341e-07
1.92893e-07
1.93045e-07
1.44168e-07
1.28849e-07
7.93911e-08
8.63839e-08
1.44465e-07
1.55013e-07
1.93739e-07
2.1601e-07
5.90045e-07
3.63711e-07
3.02674e-07
3.42052e-07
3.29503e-07
5.48221e-07
4.37521e-07
2.95679e-07
2.32341e-07
2.23786e-07
1.91713e-07
1.7646e-07
1.17496e-07
1.27887e-07
2.14809e-07
2.28574e-07
2.80809e-07
3.02216e-07
7.92645e-07
5.68116e-07
6.21358e-07
5.63783e-07
4.14098e-07
4.01542e-07
3.60889e-07
3.72523e-07
4.66679e-07
3.64158e-07
3.35987e-07
1.01256e-07
8.94758e-08
4.58135e-08
3.99066e-08
2.22796e-08
2.27955e-08
4.04455e-08
4.20616e-08
4.68088e-08
5.39023e-08
8.28704e-08
1.01726e-07
1.36965e-07
1.45434e-07
1.4454e-07
1.54986e-07
1.68835e-07
1.85588e-07
2.04162e-07
2.24323e-07
2.45837e-07
2.68148e-07
2.90749e-07
3.13881e-07
3.38329e-07
3.65111e-07
3.94977e-07
4.27979e-07
4.63687e-07
5.01532e-07
5.41087e-07
5.81661e-07
6.19038e-07
6.59688e-07
7.06125e-07
7.58866e-07
8.18092e-07
8.86508e-07
9.65623e-07
1.05303e-06
1.14168e-06
1.22914e-06
1.31478e-06
1.40655e-06
1.51665e-06
1.65804e-06
1.84587e-06
2.09014e-06
2.42649e-06
2.8667e-06
3.36359e-06
3.93801e-06
4.60067e-06
5.41831e-06
6.54155e-06
7.98142e-06
8.56576e-06
8.56756e-06
8.48981e-06
7.43076e-06
6.24262e-06
5.20441e-06
4.49362e-06
4.08559e-06
3.84019e-06
3.64726e-06
3.45141e-06
3.26119e-06
3.24387e-06
3.49592e-06
3.66336e-06
3.21996e-06
2.56023e-06
2.20723e-06
2.34994e-06
2.81981e-06
2.84493e-06
2.21853e-06
1.81507e-06
2.01887e-06
2.66246e-06
2.66584e-06
2.03445e-06
2.01544e-06
2.68042e-06
2.44368e-06
2.60014e-06
1.30074e-06
1.78579e-07
8.59971e-08
4.8446e-08
8.41591e-08
5.87555e-10
1.26255e-09
2.85196e-09
1.05945e-09
1.89038e-09
2.40403e-09
2.93611e-09
3.25892e-09
3.40715e-09
3.47595e-09
3.52709e-09
3.58584e-09
3.68041e-09
3.79741e-09
3.95825e-09
4.1212e-09
4.1191e-09
3.96903e-09
3.93511e-09
4.07806e-09
4.29821e-09
4.45186e-09
4.44288e-09
4.41359e-09
4.61051e-09
4.84814e-09
4.7543e-09
4.48389e-09
4.44495e-09
4.56455e-09
4.82403e-09
4.90715e-09
4.68943e-09
4.47164e-09
4.65928e-09
5.10268e-09
5.6787e-09
5.58036e-09
4.80321e-09
4.28404e-09
4.27948e-09
4.92416e-09
5.97759e-09
6.52281e-09
5.88665e-09
5.02175e-09
4.68187e-09
4.92877e-09
5.87946e-09
7.07771e-09
7.12401e-09
6.64602e-09
7.35991e-09
9.09438e-09
1.03666e-08
1.01694e-08
9.93365e-09
1.01774e-08
1.03509e-08
1.14004e-08
1.15642e-08
9.15645e-09
7.70163e-09
7.50021e-09
8.02667e-09
8.51271e-09
7.85409e-09
8.20185e-09
8.21622e-09
6.86382e-09
5.76708e-09
5.20654e-09
4.98696e-09
4.9107e-09
5.41057e-09
6.62174e-09
7.10022e-09
6.49347e-09
5.76262e-09
4.98879e-09
3.98609e-09
3.17103e-09
2.66846e-09
2.67791e-09
3.11718e-09
2.91187e-09
2.68847e-09
2.39387e-09
1.79645e-09
1.76821e-09
1.94828e-09
2.29162e-09
3.91096e-09
7.08378e-09
6.98621e-09
1.5999e-08
1.47985e-08
5.90572e-09
5.60978e-09
5.46061e-09
5.10421e-09
5.02048e-09
3.93861e-09
2.63908e-09
2.29602e-09
1.75256e-09
1.4874e-09
1.46625e-09
1.48724e-09
2.03508e-09
3.75697e-09
4.18327e-09
6.18645e-09
8.333e-09
9.00227e-09
1.50185e-08
3.23658e-08
2.11203e-08
1.26643e-08
9.96472e-09
1.26305e-08
1.24076e-08
1.63406e-08
1.07148e-08
7.26335e-09
4.76524e-09
6.47896e-09
1.68464e-08
1.51971e-08
1.8914e-08
1.97593e-08
1.73265e-08
2.1597e-08
3.91722e-08
4.25669e-08
4.35246e-08
3.76831e-08
3.48697e-08
3.24244e-08
3.56118e-08
4.31652e-08
4.51084e-08
4.81737e-08
5.15968e-08
5.34854e-08
5.77529e-08
6.5195e-08
7.36364e-08
8.3905e-08
9.30774e-08
1.02241e-07
1.16843e-07
1.40315e-07
1.57776e-07
1.58154e-07
1.44544e-07
1.28357e-07
1.1992e-07
1.12601e-07
9.84755e-08
8.42064e-08
7.44337e-08
6.82577e-08
6.26799e-08
5.64215e-08
5.03032e-08
4.61013e-08
4.35851e-08
4.09757e-08
3.76602e-08
3.48134e-08
3.29353e-08
3.12979e-08
2.93032e-08
2.74852e-08
2.61979e-08
2.50448e-08
2.38237e-08
2.25748e-08
2.15072e-08
2.06272e-08
1.9876e-08
1.92119e-08
1.85284e-08
1.77776e-08
1.70325e-08
1.64414e-08
1.60669e-08
1.57175e-08
1.53229e-08
1.49948e-08
1.46697e-08
1.43092e-08
1.40575e-08
1.39289e-08
1.38454e-08
1.37156e-08
1.35664e-08
1.34524e-08
1.34801e-08
1.36298e-08
1.37836e-08
1.3831e-08
1.38458e-08
1.40171e-08
1.43638e-08
1.47291e-08
1.50683e-08
1.53591e-08
1.5631e-08
1.60417e-08
1.66316e-08
1.73135e-08
1.78626e-08
1.83738e-08
1.90666e-08
1.98646e-08
2.06498e-08
2.14772e-08
2.23587e-08
2.31761e-08
2.41367e-08
2.52795e-08
2.65926e-08
2.806e-08
2.94281e-08
3.06673e-08
3.21085e-08
3.40312e-08
3.64214e-08
3.90288e-08
4.1438e-08
4.36947e-08
4.68768e-08
5.09018e-08
5.5079e-08
5.91368e-08
6.41677e-08
7.09299e-08
7.86041e-08
8.73506e-08
9.66494e-08
1.06899e-07
1.20803e-07
1.40258e-07
1.65773e-07
1.87686e-07
2.07087e-07
2.41146e-07
2.78085e-07
2.74236e-07
2.54072e-07
2.47855e-07
2.3747e-07
2.22812e-07
2.05048e-07
1.82438e-07
1.64987e-07
1.54038e-07
1.48526e-07
1.42257e-07
1.34979e-07
1.27582e-07
1.22128e-07
1.19398e-07
1.16287e-07
1.12614e-07
1.09699e-07
1.07713e-07
1.05457e-07
1.02336e-07
1.00721e-07
1.00842e-07
1.01529e-07
1.01069e-07
9.86816e-08
9.68e-08
9.69632e-08
9.7301e-08
9.6306e-08
9.55693e-08
9.68214e-08
9.76974e-08
9.64409e-08
9.52118e-08
9.48543e-08
9.53697e-08
9.69794e-08
9.75525e-08
9.66119e-08
9.59608e-08
9.59493e-08
9.5846e-08
9.65868e-08
9.80058e-08
9.76407e-08
9.71226e-08
9.75708e-08
9.76897e-08
9.76468e-08
9.78709e-08
9.78255e-08
9.79119e-08
9.89928e-08
9.91924e-08
9.86386e-08
9.84034e-08
9.90303e-08
9.98918e-08
9.9682e-08
9.93745e-08
9.94324e-08
1.00112e-07
1.00869e-07
1.00818e-07
1.00819e-07
1.01155e-07
1.02103e-07
1.0219e-07
1.0228e-07
1.03287e-07
1.03495e-07
1.03596e-07
1.04536e-07
1.04896e-07
1.05459e-07
1.06388e-07
1.069e-07
1.07521e-07
1.08301e-07
1.09251e-07
1.09987e-07
1.1057e-07
1.11599e-07
1.12569e-07
1.13299e-07
1.13965e-07
1.1484e-07
1.1569e-07
1.16668e-07
1.17939e-07
1.19122e-07
1.20336e-07
1.21439e-07
1.22568e-07
1.23551e-07
1.24202e-07
1.25211e-07
1.26403e-07
1.2727e-07
1.28915e-07
1.30739e-07
1.31371e-07
1.32202e-07
1.33223e-07
1.34834e-07
1.36756e-07
1.38119e-07
1.38963e-07
1.39722e-07
1.41076e-07
1.4274e-07
1.44517e-07
1.45454e-07
1.46377e-07
1.48141e-07
1.504e-07
1.51943e-07
1.52937e-07
1.54312e-07
1.55694e-07
1.57451e-07
1.59547e-07
1.61211e-07
1.62493e-07
1.6425e-07
1.66947e-07
1.68929e-07
1.7025e-07
1.71937e-07
1.73791e-07
1.761e-07
1.78199e-07
1.80329e-07
1.82821e-07
1.84965e-07
1.87179e-07
1.89253e-07
1.91486e-07
1.94488e-07
1.97345e-07
1.99747e-07
2.02042e-07
2.05964e-07
2.08298e-07
2.11794e-07
2.1537e-07
2.19117e-07
2.21435e-07
2.26015e-07
2.28557e-07
2.34597e-07
2.36724e-07
2.4121e-07
2.43201e-07
2.5527e-07
2.54257e-07
2.76483e-07
2.67258e-07
2.49578e-07
2.47881e-07
2.41768e-07
2.64804e-07
2.76375e-07
4.98956e-07
4.1628e-07
1.79798e-07
1.79286e-07
1.35686e-07
1.20878e-07
7.53035e-08
8.19642e-08
1.35558e-07
1.40419e-07
1.76804e-07
2.04956e-07
6.70228e-07
5.41789e-07
3.81815e-07
4.41983e-07
3.64785e-07
4.50944e-07
3.90061e-07
2.15071e-07
2.13443e-07
1.99371e-07
1.69463e-07
1.41836e-07
1.0753e-07
1.14454e-07
1.89112e-07
1.94235e-07
2.40825e-07
2.70602e-07
7.50557e-07
7.73254e-07
7.78544e-07
7.48809e-07
3.91809e-07
3.74022e-07
4.52478e-07
4.70153e-07
2.93196e-07
4.48402e-07
3.97712e-07
9.1642e-08
7.97198e-08
4.24564e-08
3.72784e-08
2.16243e-08
2.16778e-08
3.66468e-08
3.62624e-08
4.25658e-08
5.48532e-08
8.8122e-08
1.00197e-07
2.65391e-07
2.55671e-07
1.47695e-07
1.43644e-07
1.51417e-07
1.61975e-07
1.76206e-07
1.92783e-07
2.10739e-07
2.28958e-07
2.47743e-07
2.67872e-07
2.89214e-07
3.1085e-07
3.32697e-07
3.55815e-07
3.8128e-07
4.09311e-07
4.39742e-07
4.71787e-07
5.04386e-07
5.38584e-07
5.76001e-07
6.08485e-07
6.45081e-07
6.91167e-07
7.45202e-07
8.08685e-07
8.81935e-07
9.61619e-07
1.04705e-06
1.13109e-06
1.21056e-06
1.28355e-06
1.35983e-06
1.45555e-06
1.58284e-06
1.75139e-06
1.97373e-06
2.25049e-06
2.63415e-06
3.07663e-06
3.55913e-06
4.10117e-06
4.73468e-06
5.46659e-06
6.13491e-06
6.53671e-06
6.70417e-06
6.62296e-06
6.09386e-06
5.21619e-06
4.4273e-06
3.97035e-06
3.82206e-06
3.80981e-06
3.79756e-06
3.70733e-06
3.51734e-06
3.44707e-06
3.52808e-06
3.34256e-06
2.78886e-06
2.31808e-06
2.25658e-06
2.54196e-06
2.74843e-06
2.32086e-06
1.83802e-06
1.85011e-06
2.37292e-06
2.67913e-06
2.25638e-06
2.1114e-06
2.66674e-06
2.6713e-06
1.88781e-06
2.1719e-06
1.34484e-06
1.76059e-07
8.61972e-08
4.86597e-08
8.35328e-08
8.78427e-10
1.3528e-09
1.43242e-09
1.66231e-09
5.65637e-09
4.97839e-09
5.23444e-09
4.65169e-09
4.24784e-09
3.9841e-09
3.86661e-09
3.85015e-09
3.90213e-09
3.93717e-09
3.97104e-09
3.94819e-09
3.90997e-09
3.88905e-09
3.9653e-09
4.16826e-09
4.36419e-09
4.3444e-09
4.19563e-09
4.13149e-09
4.36701e-09
4.88983e-09
5.14427e-09
4.83843e-09
4.49694e-09
4.35001e-09
4.42106e-09
4.64305e-09
4.65051e-09
4.43743e-09
4.41966e-09
4.70702e-09
5.12025e-09
5.1163e-09
4.62837e-09
4.09596e-09
4.08205e-09
4.75715e-09
5.77218e-09
6.35844e-09
6.05209e-09
5.14035e-09
4.61965e-09
4.59973e-09
5.07262e-09
5.94335e-09
6.64853e-09
6.72055e-09
6.85579e-09
8.0478e-09
9.49039e-09
9.55946e-09
9.16287e-09
9.83733e-09
1.16556e-08
1.30232e-08
1.0799e-08
8.04228e-09
6.62446e-09
6.46557e-09
6.95903e-09
6.6667e-09
6.33977e-09
6.74355e-09
6.84106e-09
6.29438e-09
5.30979e-09
4.66481e-09
4.54398e-09
4.65833e-09
4.77047e-09
4.72061e-09
4.97414e-09
5.52743e-09
5.91177e-09
5.81707e-09
5.13114e-09
4.8486e-09
4.59839e-09
3.86779e-09
3.2901e-09
2.92116e-09
2.44381e-09
2.44539e-09
2.60719e-09
2.9051e-09
2.43659e-09
1.9038e-09
1.98633e-09
1.82771e-09
2.04163e-09
3.34243e-09
5.23465e-09
5.27092e-09
1.91402e-08
3.31666e-08
8.57347e-09
8.38585e-09
8.19498e-09
7.00304e-09
6.70592e-09
4.50865e-09
3.08644e-09
2.24197e-09
1.87173e-09
1.57932e-09
1.44115e-09
1.40329e-09
2.01596e-09
3.5073e-09
4.02731e-09
5.90071e-09
7.61976e-09
8.23906e-09
1.4825e-08
3.19027e-08
2.34501e-08
1.33232e-08
1.02012e-08
1.28774e-08
1.19881e-08
1.49773e-08
9.81812e-09
6.75854e-09
4.43044e-09
5.97333e-09
1.56417e-08
1.41331e-08
1.86158e-08
2.16444e-08
2.79963e-08
1.74441e-08
2.09256e-08
4.12884e-08
4.54224e-08
3.96964e-08
3.88099e-08
3.67289e-08
4.23719e-08
5.38221e-08
5.47321e-08
5.54437e-08
5.99868e-08
6.55357e-08
7.50427e-08
8.50701e-08
8.93506e-08
9.72238e-08
1.1375e-07
1.22717e-07
1.17796e-07
1.11149e-07
1.05834e-07
1.04056e-07
9.90645e-08
8.75327e-08
7.63997e-08
6.86166e-08
6.31269e-08
5.82951e-08
5.29735e-08
4.80427e-08
4.47378e-08
4.24236e-08
3.95154e-08
3.61182e-08
3.36387e-08
3.19047e-08
3.03242e-08
2.86031e-08
2.69487e-08
2.56767e-08
2.45452e-08
2.32916e-08
2.21026e-08
2.11787e-08
2.0431e-08
1.98317e-08
1.90794e-08
1.82947e-08
1.7614e-08
1.69577e-08
1.64431e-08
1.61399e-08
1.58912e-08
1.5557e-08
1.51766e-08
1.48005e-08
1.44441e-08
1.42139e-08
1.41118e-08
1.40924e-08
1.40325e-08
1.39019e-08
1.3755e-08
1.36891e-08
1.37992e-08
1.39387e-08
1.40229e-08
1.40343e-08
1.41145e-08
1.43869e-08
1.47321e-08
1.49952e-08
1.51889e-08
1.54555e-08
1.58422e-08
1.63964e-08
1.70499e-08
1.75268e-08
1.79501e-08
1.85582e-08
1.93292e-08
2.02026e-08
2.10817e-08
2.18779e-08
2.25687e-08
2.34517e-08
2.46606e-08
2.6013e-08
2.73441e-08
2.86575e-08
2.99649e-08
3.14104e-08
3.30558e-08
3.51057e-08
3.76649e-08
4.03613e-08
4.28021e-08
4.53924e-08
4.86852e-08
5.28472e-08
5.71566e-08
6.14345e-08
6.71084e-08
7.40705e-08
8.1544e-08
9.00922e-08
1.00107e-07
1.11073e-07
1.24137e-07
1.42828e-07
1.59915e-07
1.72977e-07
1.92437e-07