/*--------------------------------*- C++ -*----------------------------------*\
| =========                 |                                                 |
| \\      /  F ield         | OpenFOAM: The Open Source CFD Toolbox           |
|  \\    /   O peration     | Version:  v2006                                 |
|   \\  /    A nd           | Website:  www.openfoam.com                      |
|    \\/     M anipulation  |                                                 |
\*---------------------------------------------------------------------------*/
FoamFile
{
    version     2.0;
    format      ascii;
    class       volScalarField;
    location    "4.1";
    object      p;
}
// * * * * * * * * * * * * * * * * * * * * * * * * * * * * * * * * * * * * * //

dimensions      [1 -1 -2 0 0 0 0];


internalField   nonuniform List<scalar> 
33000
(
7956.66
7926.93
7904.06
7890.48
7877.95
7866.21
7855.03
7844.17
7833.52
7823.02
7812.53
7802.06
7791.59
7781.11
7770.63
7760.13
7749.61
7739.07
7728.5
7717.92
7707.32
7696.71
7686.08
7675.46
7664.86
7654.26
7643.66
7633.07
7622.49
7611.93
7601.4
7590.91
7580.45
7570.02
7559.63
7549.28
7539
7528.78
7518.63
7508.52
7498.48
7488.51
7478.63
7468.84
7459.15
7449.54
7440.03
7430.62
7421.31
7412.11
7403.03
7394.09
7385.27
7376.58
7368.03
7359.63
7351.41
7343.34
7335.42
7327.65
7320.06
7312.67
7305.48
7298.47
7291.64
7285
7278.56
7272.36
7266.4
7260.68
7255.11
7249.58
7244
7238.49
7233.33
7228.87
7225.48
7220.83
7211.76
7201.37
7199.65
7192.94
7188.52
7182.48
7176.65
7171.53
7167.09
7162.52
7157.9
7153.71
7149.33
7145.28
7141.28
7137.69
7133.77
7130.13
7125.67
7121.16
7115.75
7111.1
7108.82
7105.15
7102.69
7100.04
7097.88
7096.2
7095.01
7093.9
7092.91
7092.23
7091.77
7091.54
7091.51
7091.96
7092.04
7092.79
7092.28
7093.36
7096.64
7098.71
7101.77
7105.06
7108.67
7112.95
7117.89
7123.08
7128.79
7134.85
7141.33
7148.28
7155.66
7163.41
7171.58
7180.11
7189.04
7198.33
7208.01
7218.07
7228.48
7239.26
7250.39
7261.87
7273.68
7285.78
7298.19
7310.89
7323.86
7337.07
7350.51
7364.15
7377.99
7392.01
7406.2
7420.5
7434.92
7449.43
7464.01
7478.66
7493.35
7508.05
7522.74
7537.42
7552.08
7566.67
7581.18
7595.61
7609.94
7624.14
7638.2
7652.1
7665.83
7679.38
7692.73
7705.85
7718.74
7731.39
7743.79
7755.93
7767.79
7779.35
7790.62
7801.6
7812.26
7822.61
7832.64
7842.34
7851.73
7860.8
7869.54
7877.95
7886.05
7893.83
7901.3
7908.48
7915.36
7921.96
7928.29
7934.35
7940.17
7945.76
7951.13
7956.29
7961.27
7966.06
7970.69
7975.17
7979.53
7983.77
7987.87
7991.83
7995.63
7999.26
8002.72
8005.98
8009.05
8011.91
8014.56
8017
8019.21
8021.2
8022.95
8024.49
8025.8
8026.89
8027.75
8028.39
8028.8
8029
8029
8028.79
8028.37
8027.77
8026.97
8025.99
8024.84
8023.53
8022.05
8020.42
8018.65
8016.74
8014.71
8012.56
8010.3
8007.94
8005.48
8002.94
8000.31
7997.62
7994.86
7992.04
7989.18
7986.26
7983.31
7980.33
7977.33
7974.3
7971.26
7968.2
7965.14
7962.08
7959.01
7955.96
7952.91
7949.87
7946.85
7943.84
7940.85
7937.88
7934.93
7932
7929.1
7926.21
7923.35
7920.52
7917.72
7914.94
7912.19
7909.47
7906.78
7904.12
7901.48
7898.88
7896.31
7893.76
7891.25
7888.76
7886.31
7883.88
7881.49
7879.12
7876.79
7874.48
7872.2
7869.95
7867.72
7865.53
7863.36
7861.22
7859.11
7857.03
7854.97
7852.93
7850.93
7848.95
7846.99
7845.05
7843.14
7841.26
7839.39
7837.55
7835.73
7833.94
7832.16
7830.41
7828.67
7826.96
7825.27
7823.6
7821.95
7820.32
7818.71
7817.12
7815.54
7813.99
7812.45
7810.93
7809.43
7807.95
7806.49
7805.04
7803.61
7802.2
7800.8
7799.42
7798.06
7796.71
7795.38
7794.07
7792.77
7791.49
7790.23
7788.98
7787.74
7786.52
7785.32
7784.14
7782.96
7781.81
7780.67
7779.55
7778.44
7777.34
7776.27
7775.2
7774.15
7773.12
7772.1
7771.09
7770.1
7769.13
7768.16
7767.21
7766.28
7765.36
7764.45
7763.56
7762.68
7761.82
7760.97
7760.13
7759.3
7758.49
7757.7
7756.91
7756.14
7755.38
7754.63
7753.9
7753.18
7752.47
7751.78
7751.09
7750.42
7749.76
7749.11
7748.47
7747.84
7747.23
7746.62
7746.03
7745.45
7744.88
7744.32
7743.76
7743.22
7742.69
7742.17
7741.66
7741.16
7740.67
7740.19
7739.72
7739.25
7738.8
7738.36
7737.92
7737.49
7737.08
7736.67
7736.27
7735.88
7735.5
7735.12
7734.76
7734.4
7734.05
7733.71
7733.38
7733.06
7732.75
7732.44
7732.14
7731.85
7731.57
7731.29
7731.03
7730.77
7730.52
7730.27
7730.04
7729.81
7729.58
7729.37
7729.16
7728.96
7728.77
7728.58
7728.4
7728.23
7728.07
7727.91
7727.76
7727.62
7727.48
7727.35
7727.23
7727.11
7727
7726.9
7726.79
7726.7
7726.61
7726.53
7726.46
7726.39
7726.33
7726.28
7726.23
7726.18
7726.15
7726.12
7726.09
7726.07
7726.06
7726.05
7726.05
7726.05
7726.05
7726.06
7726.09
7726.1
7726.12
7726.14
7726.17
7726.2
7726.23
7726.27
7726.31
7726.36
7726.41
7726.47
7726.53
7726.6
7726.67
7726.74
7726.82
7726.91
7727
7727.09
7727.19
7727.29
7727.4
7727.52
7727.64
7727.76
7727.89
7728.03
7728.17
7728.31
7728.46
7728.62
7728.78
7728.95
7729.12
7729.3
7729.49
7729.68
7729.87
7730.08
7730.29
7730.5
7730.72
7730.95
7731.18
7731.42
7731.66
7731.92
7732.17
7732.44
7732.71
7732.99
7733.27
7733.56
7733.86
7734.17
7734.48
7734.8
7735.13
7735.46
7735.8
7736.15
7736.51
7736.87
7737.24
7737.62
7738.01
7738.4
7738.8
7739.21
7739.63
7740.06
7740.49
7740.93
7741.38
7741.84
7742.3
7742.78
7743.26
7743.73
7744.28
7725.98
7701.35
7691.47
7685.2
7676.86
7667.11
7657.01
7646.78
7636.52
7626.23
7615.9
7605.54
7595.15
7584.73
7574.29
7563.81
7553.31
7542.77
7532.21
7521.63
7511.04
7500.45
7489.84
7479.23
7468.62
7458.01
7447.4
7436.81
7426.23
7415.67
7405.13
7394.62
7384.14
7373.7
7363.31
7352.97
7342.68
7332.44
7322.26
7312.14
7302.08
7292.11
7282.24
7272.42
7262.71
7253.09
7243.56
7234.14
7224.83
7215.63
7206.55
7197.59
7188.76
7180.07
7171.52
7163.13
7154.89
7146.79
7138.85
7131.07
7123.46
7116.05
7108.81
7101.75
7094.88
7088.18
7081.67
7075.38
7069.3
7063.41
7057.63
7051.98
7046.47
7041.11
7035.82
7030.49
7025.28
7020.36
7016.01
7012.96
7007.47
6996
6986.53
6986.49
6980.4
6976.64
6971.02
6966.84
6960.63
6956.65
6952.55
6948.43
6944.35
6940.36
6936.32
6932.53
6928.55
6924.2
6919.79
6914.83
6911.24
6906.78
6903.94
6904.28
6901.92
6900.5
6898.43
6897.25
6895.73
6895.22
6895.07
6894.92
6895.01
6895.23
6895.6
6896.32
6897.2
6898.3
6900.26
6900.57
6903.27
6908.36
6912.15
6916.65
6921.19
6926.12
6931.71
6938.03
6944.55
6951.58
6958.9
6966.62
6974.78
6983.36
6992.3
7001.62
7011.3
7021.35
7031.76
7042.56
7053.7
7065.19
7077.01
7089.14
7101.57
7114.29
7127.27
7140.5
7153.95
7167.63
7181.5
7195.54
7209.73
7224.06
7238.5
7253.03
7267.65
7282.31
7297.02
7311.73
7326.45
7341.15
7355.82
7370.43
7384.97
7399.41
7413.75
7427.98
7442.05
7455.97
7469.72
7483.28
7496.64
7509.78
7522.68
7535.35
7547.76
7559.9
7571.76
7583.34
7594.63
7605.61
7616.27
7626.62
7636.65
7646.37
7655.75
7664.82
7673.57
7681.98
7690.08
7697.86
7705.33
7712.5
7719.39
7725.99
7732.32
7738.4
7744.22
7749.8
7755.17
7760.34
7765.32
7770.12
7774.76
7779.25
7783.61
7787.85
7791.96
7795.92
7799.73
7803.38
7806.84
7810.11
7813.18
7816.05
7818.7
7821.14
7823.36
7825.35
7827.11
7828.65
7829.96
7831.04
7831.9
7832.54
7832.95
7833.15
7833.14
7832.92
7832.5
7831.88
7831.08
7830.09
7828.93
7827.6
7826.11
7824.47
7822.69
7820.77
7818.72
7816.56
7814.29
7811.92
7809.45
7806.89
7804.26
7801.56
7798.79
7795.96
7793.09
7790.17
7787.22
7784.23
7781.22
7778.18
7775.13
7772.07
7769
7765.94
7762.87
7759.81
7756.76
7753.71
7750.68
7747.67
7744.67
7741.7
7738.74
7735.81
7732.9
7730.02
7727.16
7724.33
7721.52
7718.74
7715.99
7713.27
7710.58
7707.91
7705.28
7702.67
7700.1
7697.56
7695.04
7692.56
7690.1
7687.68
7685.28
7682.91
7680.58
7678.27
7675.99
7673.74
7671.52
7669.32
7667.15
7665.02
7662.9
7660.82
7658.76
7656.73
7654.72
7652.74
7650.78
7648.85
7646.94
7645.05
7643.19
7641.35
7639.53
7637.73
7635.95
7634.2
7632.47
7630.76
7629.06
7627.39
7625.74
7624.11
7622.5
7620.91
7619.33
7617.78
7616.24
7614.72
7613.22
7611.74
7610.28
7608.83
7607.4
7605.99
7604.59
7603.21
7601.85
7600.5
7599.17
7597.86
7596.56
7595.28
7594.01
7592.76
7591.53
7590.31
7589.11
7587.92
7586.75
7585.59
7584.45
7583.33
7582.22
7581.13
7580.05
7578.98
7577.93
7576.9
7575.88
7574.87
7573.88
7572.9
7571.94
7570.99
7570.06
7569.14
7568.23
7567.34
7566.46
7565.59
7564.74
7563.9
7563.08
7562.27
7561.47
7560.69
7559.92
7559.16
7558.41
7557.68
7556.96
7556.25
7555.55
7554.87
7554.2
7553.53
7552.89
7552.25
7551.62
7551.01
7550.4
7549.81
7549.23
7548.66
7548.09
7547.54
7547
7546.47
7545.95
7545.44
7544.94
7544.45
7543.97
7543.5
7543.03
7542.58
7542.14
7541.7
7541.27
7540.86
7540.45
7540.05
7539.66
7539.28
7538.9
7538.54
7538.18
7537.84
7537.5
7537.16
7536.84
7536.53
7536.22
7535.92
7535.63
7535.35
7535.07
7534.81
7534.55
7534.3
7534.05
7533.82
7533.59
7533.37
7533.15
7532.94
7532.74
7532.55
7532.37
7532.18
7532.02
7531.85
7531.69
7531.54
7531.4
7531.26
7531.14
7531.02
7530.89
7530.78
7530.68
7530.58
7530.48
7530.4
7530.32
7530.24
7530.18
7530.12
7530.06
7530.01
7529.97
7529.93
7529.9
7529.88
7529.86
7529.84
7529.83
7529.81
7529.84
7529.84
7529.85
7529.87
7529.88
7529.9
7529.93
7529.95
7529.99
7530.02
7530.06
7530.1
7530.15
7530.2
7530.26
7530.32
7530.39
7530.46
7530.53
7530.61
7530.7
7530.78
7530.88
7530.98
7531.08
7531.19
7531.3
7531.42
7531.55
7531.68
7531.81
7531.95
7532.1
7532.25
7532.41
7532.57
7532.74
7532.91
7533.09
7533.27
7533.46
7533.66
7533.86
7534.07
7534.28
7534.51
7534.73
7534.96
7535.2
7535.45
7535.7
7535.96
7536.22
7536.49
7536.77
7537.05
7537.35
7537.64
7537.95
7538.26
7538.58
7538.91
7539.24
7539.58
7539.93
7540.29
7540.65
7541.02
7541.4
7541.79
7542.18
7542.59
7543
7543.41
7543.84
7544.27
7544.71
7545.16
7545.62
7546.09
7546.56
7547.05
7547.51
7548.07
7485.95
7462.18
7480.33
7476.96
7473.05
7466.07
7457.75
7448.61
7439.02
7429.15
7419.09
7408.9
7398.62
7388.27
7377.87
7367.42
7356.93
7346.41
7335.85
7325.27
7314.68
7304.09
7293.48
7282.86
7272.23
7261.6
7250.98
7240.38
7229.79
7219.21
7208.65
7198.12
7187.64
7177.19
7166.78
7156.42
7146.11
7135.85
7125.65
7115.51
7105.45
7095.46
7085.56
7075.73
7065.98
7056.36
7046.81
7037.37
7028.05
7018.85
7009.75
7000.77
6991.93
6983.24
6974.67
6966.25
6957.97
6949.84
6941.88
6934.07
6926.44
6919
6911.72
6904.62
6897.69
6890.94
6884.39
6878
6871.79
6865.73
6859.79
6854.04
6848.49
6843.04
6837.56
6832.02
6826.57
6821.18
6815.8
6810.7
6806.33
6802.68
6800.09
6793.55
6780.74
6771.29
6773.62
6769.51
6765.04
6761.18
6756.06
6750.91
6746.8
6743.46
6739.33
6735.43
6731.16
6727.23
6723.34
6720.11
6716.91
6713.55
6709.03
6706.22
6701.69
6700.1
6702.25
6701
6700.1
6699.15
6698.27
6697.68
6697.7
6698.39
6698.83
6699.68
6700.64
6702.09
6704.2
6706.59
6708.81
6711.84
6713.15
6717.13
6723.92
6729.08
6734.97
6740.82
6747.03
6753.92
6761.54
6769.33
6777.61
6786.1
6794.98
6804.21
6813.9
6824
6834.45
6845.29
6856.47
6867.99
6879.84
6892.01
6904.48
6917.24
6930.26
6943.53
6957.04
6970.76
6984.68
6998.77
7013
7027.36
7041.85
7056.43
7071.09
7085.8
7100.54
7115.3
7130.06
7144.8
7159.5
7174.15
7188.73
7203.21
7217.59
7231.85
7245.96
7259.91
7273.69
7287.28
7300.67
7313.83
7326.77
7339.46
7351.88
7364.05
7375.93
7387.52
7398.82
7409.81
7420.49
7430.85
7440.89
7450.61
7460
7469.07
7477.81
7486.23
7494.33
7502.12
7509.59
7516.77
7523.66
7530.27
7536.61
7542.69
7548.53
7554.12
7559.5
7564.68
7569.67
7574.49
7579.14
7583.65
7588.03
7592.27
7596.38
7600.36
7604.18
7607.83
7611.3
7614.58
7617.66
7620.54
7623.2
7625.64
7627.86
7629.86
7631.63
7633.16
7634.47
7635.55
7636.4
7637.03
7637.44
7637.63
7637.6
7637.36
7636.93
7636.29
7635.47
7634.47
7633.28
7631.93
7630.42
7628.76
7626.95
7625.01
7622.95
7620.76
7618.47
7616.07
7613.58
7611.01
7608.35
7605.63
7602.85
7600.01
7597.12
7594.18
7591.21
7588.21
7585.19
7582.14
7579.08
7576.01
7572.93
7569.85
7566.77
7563.7
7560.64
7557.59
7554.55
7551.52
7548.52
7545.54
7542.57
7539.63
7536.72
7533.83
7530.97
7528.13
7525.32
7522.54
7519.79
7517.06
7514.37
7511.7
7509.06
7506.46
7503.88
7501.34
7498.82
7496.34
7493.88
7491.46
7489.06
7486.7
7484.36
7482.05
7479.77
7477.52
7475.3
7473.11
7470.94
7468.8
7466.69
7464.61
7462.55
7460.52
7458.51
7456.53
7454.57
7452.63
7450.72
7448.84
7446.97
7445.13
7443.31
7441.52
7439.74
7437.99
7436.25
7434.54
7432.85
7431.18
7429.53
7427.9
7426.28
7424.69
7423.12
7421.56
7420.02
7418.51
7417
7415.52
7414.06
7412.61
7411.18
7409.76
7408.37
7406.99
7405.62
7404.28
7402.94
7401.63
7400.33
7399.05
7397.78
7396.53
7395.29
7394.07
7392.87
7391.68
7390.51
7389.36
7388.22
7387.09
7385.98
7384.89
7383.81
7382.74
7381.69
7380.66
7379.64
7378.63
7377.64
7376.66
7375.7
7374.75
7373.81
7372.89
7371.98
7371.09
7370.21
7369.35
7368.5
7367.66
7366.83
7366.02
7365.22
7364.44
7363.67
7362.91
7362.16
7361.43
7360.71
7360
7359.31
7358.62
7357.95
7357.29
7356.64
7356
7355.38
7354.76
7354.16
7353.56
7352.98
7352.41
7351.85
7351.3
7350.76
7350.23
7349.71
7349.2
7348.7
7348.21
7347.73
7347.25
7346.79
7346.34
7345.89
7345.46
7345.03
7344.62
7344.21
7343.81
7343.42
7343.04
7342.67
7342.3
7341.95
7341.6
7341.26
7340.93
7340.61
7340.29
7339.99
7339.69
7339.4
7339.12
7338.84
7338.57
7338.32
7338.06
7337.82
7337.59
7337.36
7337.13
7336.92
7336.71
7336.51
7336.32
7336.13
7335.96
7335.78
7335.62
7335.46
7335.32
7335.17
7335.03
7334.9
7334.78
7334.66
7334.55
7334.45
7334.34
7334.26
7334.17
7334.09
7334.01
7333.95
7333.89
7333.83
7333.79
7333.75
7333.71
7333.68
7333.65
7333.61
7333.62
7333.62
7333.62
7333.62
7333.63
7333.64
7333.65
7333.67
7333.68
7333.71
7333.73
7333.77
7333.8
7333.84
7333.88
7333.93
7333.98
7334.04
7334.1
7334.17
7334.24
7334.31
7334.39
7334.47
7334.56
7334.66
7334.76
7334.86
7334.97
7335.08
7335.2
7335.32
7335.45
7335.59
7335.73
7335.87
7336.02
7336.18
7336.34
7336.51
7336.68
7336.86
7337.05
7337.24
7337.43
7337.63
7337.84
7338.06
7338.28
7338.5
7338.73
7338.97
7339.22
7339.47
7339.72
7339.99
7340.26
7340.54
7340.82
7341.11
7341.41
7341.71
7342.03
7342.35
7342.67
7343
7343.35
7343.69
7344.05
7344.41
7344.78
7345.16
7345.55
7345.94
7346.34
7346.75
7347.17
7347.6
7348.03
7348.47
7348.92
7349.38
7349.84
7350.32
7350.8
7351.27
7351.82
7301.47
7269.09
7286.77
7278.72
7276.08
7268.05
7260.08
7251.23
7241.9
7232.23
7222.31
7212.23
7202.03
7191.74
7181.37
7170.95
7160.47
7149.96
7139.42
7128.84
7118.24
7107.62
7097
7086.36
7075.72
7065.08
7054.45
7043.81
7033.19
7022.59
7012.01
7001.46
6990.95
6980.47
6970.03
6959.64
6949.3
6939.02
6928.79
6918.63
6908.53
6898.52
6888.59
6878.74
6868.98
6859.3
6849.72
6840.27
6830.92
6821.7
6812.59
6803.58
6794.71
6785.99
6777.41
6768.96
6760.65
6752.5
6744.51
6736.67
6729.01
6721.52
6714.19
6707.03
6700.04
6693.25
6686.63
6680.16
6673.85
6667.67
6661.68
6655.85
6650.13
6644.47
6638.89
6633.45
6628.05
6622.63
6617.21
6611.83
6606.59
6601.42
6596.42
6591.91
6587.8
6584.54
6582.13
6575.96
6563.99
6556.78
6559.59
6554.07
6551.03
6545.83
6540.96
6537.2
6534.13
6530.28
6526.48
6522.65
6519.13
6516.06
6513.89
6512.17
6509.94
6507.53
6504.85
6502.54
6499.03
6498.53
6501.38
6501.08
6501.1
6501.04
6501.24
6502.17
6503.77
6505.26
6507.22
6509.3
6512.1
6515.53
6519.27
6522.64
6526.89
6529.18
6534.46
6542.87
6549.37
6556.62
6563.75
6571.16
6579.31
6588.13
6597.15
6606.54
6616.22
6626.27
6636.64
6647.48
6658.73
6670.29
6682.2
6694.42
6706.93
6719.74
6732.84
6746.18
6759.76
6773.54
6787.52
6801.68
6815.98
6830.41
6844.97
6859.62
6874.34
6889.11
6903.91
6918.74
6933.56
6948.36
6963.12
6977.83
6992.47
7007.02
7021.45
7035.75
7049.92
7063.93
7077.75
7091.39
7104.81
7118.03
7131
7143.72
7156.18
7168.37
7180.28
7191.9
7203.22
7214.22
7224.92
7235.29
7245.35
7255.08
7264.48
7273.56
7282.31
7290.73
7298.84
7306.64
7314.13
7321.32
7328.22
7334.84
7341.2
7347.3
7353.15
7358.77
7364.18
7369.38
7374.39
7379.24
7383.92
7388.45
7392.84
7397.09
7401.22
7405.2
7409.02
7412.68
7416.15
7419.44
7422.53
7425.42
7428.08
7430.53
7432.75
7434.75
7436.51
7438.05
7439.35
7440.42
7441.25
7441.87
7442.26
7442.43
7442.38
7442.12
7441.66
7441
7440.15
7439.12
7437.91
7436.53
7434.99
7433.3
7431.46
7429.49
7427.39
7425.17
7422.85
7420.42
7417.9
7415.29
7412.6
7409.85
7407.04
7404.18
7401.26
7398.3
7395.31
7392.29
7389.24
7386.18
7383.1
7380.01
7376.91
7373.82
7370.72
7367.64
7364.56
7361.49
7358.44
7355.41
7352.39
7349.39
7346.42
7343.47
7340.54
7337.65
7334.78
7331.93
7329.12
7326.33
7323.58
7320.85
7318.15
7315.48
7312.84
7310.24
7307.66
7305.12
7302.6
7300.11
7297.66
7295.23
7292.84
7290.47
7288.13
7285.83
7283.55
7281.3
7279.08
7276.89
7274.72
7272.58
7270.47
7268.39
7266.33
7264.3
7262.29
7260.31
7258.35
7256.41
7254.5
7252.62
7250.75
7248.91
7247.09
7245.3
7243.52
7241.77
7240.03
7238.32
7236.63
7234.96
7233.31
7231.67
7230.06
7228.47
7226.89
7225.34
7223.8
7222.28
7220.78
7219.29
7217.82
7216.38
7214.94
7213.53
7212.13
7210.75
7209.38
7208.04
7206.7
7205.39
7204.09
7202.8
7201.53
7200.28
7199.05
7197.83
7196.62
7195.43
7194.26
7193.1
7191.96
7190.83
7189.72
7188.63
7187.55
7186.48
7185.43
7184.39
7183.37
7182.36
7181.37
7180.39
7179.43
7178.48
7177.54
7176.62
7175.71
7174.82
7173.94
7173.08
7172.22
7171.39
7170.56
7169.75
7168.95
7168.17
7167.4
7166.64
7165.89
7165.16
7164.44
7163.73
7163.03
7162.35
7161.68
7161.02
7160.37
7159.73
7159.11
7158.49
7157.89
7157.3
7156.72
7156.15
7155.58
7155.03
7154.49
7153.97
7153.45
7152.94
7152.44
7151.95
7151.46
7150.99
7150.53
7150.08
7149.64
7149.2
7148.78
7148.36
7147.95
7147.55
7147.16
7146.78
7146.41
7146.05
7145.69
7145.34
7145.01
7144.67
7144.35
7144.04
7143.73
7143.44
7143.14
7142.86
7142.59
7142.33
7142.07
7141.82
7141.57
7141.33
7141.11
7140.88
7140.67
7140.46
7140.27
7140.07
7139.89
7139.71
7139.55
7139.38
7139.22
7139.07
7138.92
7138.79
7138.66
7138.53
7138.42
7138.3
7138.2
7138.1
7138.01
7137.92
7137.84
7137.78
7137.71
7137.66
7137.61
7137.55
7137.5
7137.44
7137.44
7137.43
7137.41
7137.4
7137.4
7137.4
7137.4
7137.41
7137.42
7137.43
7137.44
7137.46
7137.48
7137.51
7137.54
7137.58
7137.62
7137.66
7137.71
7137.76
7137.81
7137.87
7137.94
7138.01
7138.08
7138.16
7138.24
7138.33
7138.43
7138.52
7138.63
7138.74
7138.85
7138.97
7139.09
7139.22
7139.35
7139.49
7139.64
7139.79
7139.94
7140.1
7140.27
7140.44
7140.62
7140.81
7140.99
7141.19
7141.39
7141.6
7141.81
7142.03
7142.26
7142.49
7142.73
7142.97
7143.22
7143.48
7143.74
7144.01
7144.29
7144.57
7144.86
7145.16
7145.46
7145.77
7146.09
7146.42
7146.75
7147.09
7147.44
7147.79
7148.16
7148.53
7148.91
7149.29
7149.68
7150.09
7150.49
7150.91
7151.34
7151.77
7152.21
7152.66
7153.12
7153.58
7154.06
7154.54
7155.01
7155.56
7129.5
7107.05
7103.17
7090.55
7082.43
7073.38
7064.36
7055.06
7045.51
7035.74
7025.8
7015.72
7005.52
6995.23
6984.87
6974.44
6963.97
6953.45
6942.89
6932.3
6921.67
6911.04
6900.39
6889.72
6879.06
6868.39
6857.73
6847.06
6836.41
6825.77
6815.16
6804.57
6794.02
6783.51
6773.03
6762.6
6752.23
6741.91
6731.65
6721.45
6711.31
6701.27
6691.31
6681.42
6671.61
6661.88
6652.28
6642.8
6633.42
6624.16
6615.02
6606
6597.09
6588.33
6579.72
6571.24
6562.9
6554.72
6546.7
6538.83
6531.13
6523.57
6516.18
6508.97
6501.93
6495.07
6488.38
6481.83
6475.43
6469.17
6463.11
6457.19
6451.37
6445.62
6439.99
6434.48
6429.04
6423.71
6418.52
6413.38
6408.13
6402.74
6397.33
6392.34
6387.72
6383.37
6379.39
6375.92
6373.12
6371.18
6364.89
6352.2
6345.54
6350.77
6345.01
6341.81
6336.77
6332.02
6328.94
6326.82
6323.36
6320.46
6317.4
6314.76
6312.45
6311.01
6310.3
6308.65
6307.87
6304.86
6303.32
6300.2
6300.05
6304.33
6304.65
6305.56
6306.37
6307.62
6309.71
6312.58
6315.27
6318.43
6321.75
6325.81
6330.57
6335.6
6340.14
6345.62
6348.87
6355.39
6365.37
6373.14
6381.78
6390.04
6398.74
6407.57
6417.24
6427.64
6438.18
6449.17
6460.41
6471.98
6483.96
6496.3
6508.91
6521.81
6534.98
6548.4
6562.08
6575.96
6590.03
6604.27
6618.67
6633.2
6647.85
6662.59
6677.39
6692.25
6707.13
6722.04
6736.95
6751.84
6766.68
6781.47
6796.18
6810.8
6825.31
6839.68
6853.92
6868
6881.9
6895.59
6909.08
6922.34
6935.37
6948.14
6960.65
6972.88
6984.83
6996.49
7007.83
7018.87
7029.59
7039.99
7050.07
7059.82
7069.24
7078.33
7087.1
7095.55
7103.68
7111.5
7119.02
7126.23
7133.16
7139.8
7146.18
7152.31
7158.19
7163.85
7169.29
7174.52
7179.57
7184.44
7189.15
7193.71
7198.12
7202.38
7206.51
7210.49
7214.32
7217.97
7221.45
7224.74
7227.84
7230.73
7233.4
7235.84
7238.06
7240.05
7241.81
7243.34
7244.62
7245.67
7246.49
7247.08
7247.45
7247.59
7247.52
7247.23
7246.73
7246.03
7245.14
7244.07
7242.82
7241.4
7239.82
7238.08
7236.2
7234.19
7232.05
7229.79
7227.42
7224.95
7222.39
7219.74
7217.02
7214.23
7211.39
7208.48
7205.53
7202.54
7199.51
7196.46
7193.38
7190.29
7187.19
7184.07
7180.95
7177.83
7174.72
7171.61
7168.51
7165.42
7162.35
7159.3
7156.27
7153.26
7150.27
7147.31
7144.37
7141.47
7138.59
7135.74
7132.91
7130.12
7127.36
7124.63
7121.93
7119.26
7116.62
7114.01
7111.43
7108.88
7106.36
7103.88
7101.42
7099
7096.6
7094.24
7091.9
7089.6
7087.32
7085.07
7082.85
7080.66
7078.49
7076.36
7074.24
7072.16
7070.1
7068.07
7066.06
7064.08
7062.12
7060.19
7058.28
7056.39
7054.53
7052.68
7050.87
7049.07
7047.29
7045.54
7043.81
7042.09
7040.4
7038.73
7037.08
7035.44
7033.83
7032.23
7030.66
7029.1
7027.56
7026.04
7024.54
7023.05
7021.58
7020.13
7018.7
7017.28
7015.88
7014.5
7013.13
7011.78
7010.45
7009.13
7007.83
7006.54
7005.27
7004.02
7002.78
7001.56
7000.35
6999.16
6997.99
6996.83
6995.69
6994.56
6993.45
6992.35
6991.27
6990.2
6989.15
6988.11
6987.08
6986.08
6985.08
6984.1
6983.14
6982.19
6981.25
6980.33
6979.42
6978.53
6977.65
6976.78
6975.93
6975.09
6974.27
6973.46
6972.66
6971.87
6971.1
6970.34
6969.6
6968.86
6968.14
6967.44
6966.74
6966.06
6965.39
6964.73
6964.08
6963.44
6962.82
6962.2
6961.6
6961.01
6960.43
6959.86
6959.3
6958.75
6958.21
6957.68
6957.16
6956.65
6956.15
6955.66
6955.18
6954.71
6954.25
6953.8
6953.35
6952.92
6952.49
6952.08
6951.67
6951.28
6950.89
6950.51
6950.13
6949.77
6949.42
6949.07
6948.73
6948.4
6948.08
6947.77
6947.47
6947.17
6946.88
6946.6
6946.33
6946.06
6945.8
6945.55
6945.31
6945.07
6944.84
6944.62
6944.41
6944.2
6944.01
6943.82
6943.63
6943.45
6943.27
6943.12
6942.95
6942.81
6942.66
6942.53
6942.4
6942.27
6942.16
6942.04
6941.94
6941.83
6941.76
6941.67
6941.6
6941.52
6941.45
6941.39
6941.31
6941.3
6941.27
6941.25
6941.23
6941.21
6941.2
6941.19
6941.18
6941.17
6941.17
6941.18
6941.19
6941.2
6941.21
6941.23
6941.25
6941.28
6941.31
6941.34
6941.38
6941.42
6941.47
6941.52
6941.57
6941.63
6941.7
6941.77
6941.84
6941.92
6942
6942.09
6942.18
6942.28
6942.38
6942.49
6942.6
6942.72
6942.84
6942.97
6943.11
6943.24
6943.39
6943.54
6943.69
6943.85
6944.02
6944.19
6944.37
6944.55
6944.74
6944.93
6945.13
6945.34
6945.55
6945.77
6946
6946.23
6946.46
6946.71
6946.96
6947.21
6947.47
6947.74
6948.02
6948.3
6948.59
6948.89
6949.19
6949.5
6949.82
6950.14
6950.48
6950.82
6951.16
6951.52
6951.88
6952.25
6952.63
6953.01
6953.41
6953.81
6954.21
6954.63
6955.06
6955.49
6955.93
6956.38
6956.84
6957.3
6957.77
6958.26
6958.73
6959.28
6946.04
6919.41
6915.64
6900
6889.55
6879.28
6869.32
6859.45
6849.56
6839.59
6829.53
6819.36
6809.12
6798.79
6788.4
6777.95
6767.46
6756.91
6746.32
6735.7
6725.05
6714.37
6703.69
6692.99
6682.28
6671.57
6660.87
6650.16
6639.47
6628.78
6618.12
6607.49
6596.89
6586.34
6575.82
6565.34
6554.91
6544.55
6534.23
6523.99
6513.82
6503.73
6493.72
6483.77
6473.91
6464.16
6454.52
6444.99
6435.57
6426.28
6417.1
6408.05
6399.1
6390.29
6381.63
6373.11
6364.73
6356.5
6348.44
6340.54
6332.79
6325.18
6317.74
6310.48
6303.39
6296.46
6289.68
6283.06
6276.59
6270.27
6264.1
6258.08
6252.16
6246.37
6240.69
6235.09
6229.61
6224.29
6219.13
6214.02
6208.9
6203.86
6198.99
6194.2
6189.36
6184.51
6179.87
6175.47
6171.29
6167.52
6164.45
6162.12
6160.73
6154.24
6140.52
6134.95
6142.35
6136.44
6133.62
6128.77
6124.42
6122.44
6121.28
6118.73
6116.57
6114.42
6112.33
6110.93
6109.61
6109.36
6109.3
6108.83
6106.55
6105.81
6102.92
6103.68
6109.43
6110.83
6112.83
6114.75
6117.14
6120.46
6124.64
6128.58
6133.01
6137.56
6142.92
6149.01
6155.28
6160.99
6167.63
6171.74
6179.59
6190.88
6200.02
6209.59
6219.21
6229.09
6239.07
6249.95
6261.54
6273.26
6285.39
6297.74
6310.38
6323.37
6336.68
6350.22
6364.01
6378.01
6392.18
6406.54
6421.06
6435.71
6450.48
6465.33
6480.24
6495.19
6510.18
6525.2
6540.21
6555.21
6570.15
6585.04
6599.85
6614.56
6629.16
6643.64
6657.97
6672.14
6686.12
6699.9
6713.46
6726.79
6739.89
6752.73
6765.3
6777.59
6789.59
6801.29
6812.69
6823.76
6834.53
6844.97
6855.08
6864.87
6874.32
6883.45
6892.25
6900.73
6908.89
6916.75
6924.3
6931.56
6938.52
6945.2
6951.62
6957.79
6963.73
6969.43
6974.91
6980.19
6985.27
6990.18
6994.92
6999.5
7003.93
7008.2
7012.33
7016.31
7020.13
7023.78
7027.25
7030.54
7033.63
7036.51
7039.17
7041.61
7043.82
7045.8
7047.54
7049.05
7050.32
7051.35
7052.14
7052.7
7053.03
7053.14
7053.02
7052.69
7052.14
7051.4
7050.46
7049.33
7048.03
7046.56
7044.92
7043.13
7041.2
7039.13
7036.93
7034.62
7032.2
7029.68
7027.07
7024.37
7021.6
7018.76
7015.87
7012.91
7009.92
7006.88
7003.82
7000.73
6997.61
6994.48
6991.34
6988.2
6985.05
6981.9
6978.75
6975.62
6972.49
6969.38
6966.29
6963.22
6960.16
6957.14
6954.13
6951.16
6948.21
6945.29
6942.4
6939.54
6936.71
6933.91
6931.14
6928.4
6925.7
6923.02
6920.38
6917.77
6915.19
6912.64
6910.12
6907.63
6905.18
6902.75
6900.36
6897.99
6895.66
6893.36
6891.08
6888.83
6886.61
6884.42
6882.26
6880.12
6878.01
6875.92
6873.87
6871.83
6869.82
6867.84
6865.88
6863.95
6862.04
6860.15
6858.29
6856.45
6854.63
6852.84
6851.06
6849.31
6847.57
6845.86
6844.16
6842.49
6840.84
6839.2
6837.59
6835.99
6834.41
6832.86
6831.32
6829.79
6828.29
6826.8
6825.33
6823.88
6822.44
6821.02
6819.62
6818.24
6816.87
6815.52
6814.18
6812.86
6811.56
6810.27
6809
6807.74
6806.5
6805.28
6804.07
6802.88
6801.7
6800.54
6799.39
6798.26
6797.15
6796.05
6794.96
6793.89
6792.84
6791.8
6790.78
6789.77
6788.77
6787.79
6786.82
6785.87
6784.94
6784.01
6783.1
6782.21
6781.33
6780.46
6779.61
6778.77
6777.95
6777.14
6776.34
6775.55
6774.78
6774.02
6773.28
6772.54
6771.82
6771.12
6770.42
6769.74
6769.07
6768.41
6767.76
6767.13
6766.5
6765.89
6765.29
6764.69
6764.11
6763.54
6762.98
6762.44
6761.9
6761.37
6760.85
6760.34
6759.84
6759.36
6758.88
6758.41
6757.95
6757.5
6757.05
6756.62
6756.2
6755.78
6755.38
6754.98
6754.59
6754.21
6753.84
6753.48
6753.12
6752.78
6752.44
6752.12
6751.8
6751.48
6751.18
6750.88
6750.59
6750.31
6750.04
6749.78
6749.52
6749.27
6749.02
6748.79
6748.56
6748.34
6748.13
6747.92
6747.73
6747.53
6747.35
6747.17
6747
6746.84
6746.68
6746.53
6746.39
6746.25
6746.12
6746
6745.87
6745.77
6745.67
6745.58
6745.47
6745.39
6745.27
6745.24
6745.21
6745.16
6745.12
6745.09
6745.05
6745.03
6745.01
6744.99
6744.97
6744.96
6744.95
6744.94
6744.94
6744.94
6744.95
6744.96
6744.97
6744.99
6745.01
6745.04
6745.07
6745.1
6745.14
6745.18
6745.22
6745.27
6745.33
6745.39
6745.45
6745.52
6745.59
6745.67
6745.75
6745.84
6745.93
6746.03
6746.13
6746.24
6746.35
6746.46
6746.59
6746.71
6746.85
6746.98
6747.13
6747.28
6747.43
6747.59
6747.75
6747.93
6748.1
6748.28
6748.47
6748.66
6748.86
6749.07
6749.28
6749.5
6749.72
6749.95
6750.19
6750.43
6750.68
6750.93
6751.19
6751.46
6751.74
6752.02
6752.31
6752.6
6752.9
6753.21
6753.53
6753.85
6754.19
6754.52
6754.87
6755.22
6755.59
6755.95
6756.33
6756.72
6757.11
6757.51
6757.92
6758.33
6758.76
6759.19
6759.63
6760.08
6760.53
6761
6761.47
6761.96
6762.42
6762.98
6749.58
6721.59
6726.23
6705.37
6695.05
6684.43
6674.1
6663.9
6653.75
6643.59
6633.4
6623.13
6612.8
6602.41
6591.96
6581.47
6570.93
6560.35
6549.73
6539.06
6528.36
6517.64
6506.9
6496.15
6485.39
6474.64
6463.89
6453.13
6442.39
6431.65
6420.93
6410.24
6399.59
6388.99
6378.42
6367.88
6357.39
6346.95
6336.59
6326.31
6316.08
6305.93
6295.87
6285.87
6275.97
6266.18
6256.49
6246.89
6237.41
6228.06
6218.83
6209.73
6200.74
6191.88
6183.17
6174.6
6166.17
6157.88
6149.76
6141.81
6134.01
6126.35
6118.86
6111.54
6104.39
6097.4
6090.55
6083.86
6077.33
6070.95
6064.71
6058.61
6052.63
6046.79
6041.07
6035.43
6029.91
6024.55
6019.3
6014.12
6009.04
6004.17
5999.47
5994.78
5990.17
5985.72
5981.3
5976.82
5972.39
5968.08
5963.97
5960.1
5956.63
5953.8
5952.09
5951.42
5944.82
5929.84
5925.81
5935.65
5930.12
5927.71
5923.33
5919.49
5918.81
5918.45
5917.03
5915.35
5914.2
5912.68
5911.63
5910.83
5911.22
5911.94
5912.34
5910.67
5910.78
5908.38
5910.25
5917.81
5920.38
5923.59
5926.77
5930.36
5935.08
5940.65
5945.87
5951.61
5957.31
5963.82
5971.03
5978.24
5985.93
5993.11
6001.12
6006.66
6015.94
6029.19
6039.78
6051.16
6062.31
6073.62
6085.74
6098.56
6111.41
6124.6
6137.96
6151.56
6165.49
6179.67
6194
6208.51
6223.16
6237.95
6252.85
6267.85
6282.89
6297.98
6313.1
6328.24
6343.37
6358.49
6373.56
6388.57
6403.49
6418.32
6433.04
6447.63
6462.08
6476.35
6490.44
6504.32
6517.97
6531.4
6544.58
6557.5
6570.15
6582.52
6594.59
6606.36
6617.82
6628.95
6639.77
6650.26
6660.43
6670.26
6679.77
6688.95
6697.8
6706.33
6714.54
6722.44
6730.05
6737.36
6744.38
6751.13
6757.6
6763.83
6769.82
6775.57
6781.11
6786.44
6791.57
6796.51
6801.28
6805.89
6810.33
6814.62
6818.75
6822.71
6826.52
6830.15
6833.61
6836.88
6839.95
6842.81
6845.45
6847.87
6850.06
6852.02
6853.74
6855.22
6856.45
6857.45
6858.21
6858.73
6859.01
6859.07
6858.9
6858.52
6857.92
6857.12
6856.12
6854.93
6853.56
6852.02
6850.31
6848.46
6846.45
6844.32
6842.05
6839.67
6837.18
6834.59
6831.92
6829.16
6826.32
6823.42
6820.47
6817.46
6814.41
6811.32
6808.2
6805.06
6801.9
6798.73
6795.55
6792.37
6789.18
6786
6782.82
6779.66
6776.5
6773.36
6770.24
6767.15
6764.07
6761.02
6758
6755.01
6752.04
6749.11
6746.21
6743.33
6740.49
6737.68
6734.91
6732.17
6729.45
6726.78
6724.13
6721.52
6718.93
6716.38
6713.87
6711.38
6708.92
6706.5
6704.11
6701.74
6699.41
6697.1
6694.83
6692.58
6690.36
6688.17
6686.01
6683.87
6681.76
6679.68
6677.62
6675.59
6673.58
6671.6
6669.64
6667.71
6665.8
6663.91
6662.05
6660.21
6658.39
6656.59
6654.82
6653.06
6651.33
6649.61
6647.92
6646.24
6644.59
6642.95
6641.34
6639.74
6638.16
6636.6
6635.06
6633.54
6632.03
6630.54
6629.07
6627.61
6626.17
6624.75
6623.35
6621.96
6620.59
6619.23
6617.9
6616.57
6615.27
6613.98
6612.7
6611.45
6610.2
6608.98
6607.77
6606.57
6605.39
6604.23
6603.08
6601.95
6600.83
6599.73
6598.64
6597.57
6596.51
6595.47
6594.44
6593.43
6592.44
6591.45
6590.49
6589.53
6588.6
6587.67
6586.76
6585.87
6584.99
6584.12
6583.27
6582.43
6581.6
6580.79
6579.99
6579.21
6578.44
6577.68
6576.93
6576.2
6575.48
6574.77
6574.08
6573.4
6572.73
6572.07
6571.42
6570.79
6570.16
6569.55
6568.95
6568.36
6567.78
6567.21
6566.65
6566.1
6565.57
6565.04
6564.52