/*--------------------------------*- C++ -*----------------------------------*\
| =========                 |                                                 |
| \\      /  F ield         | OpenFOAM: The Open Source CFD Toolbox           |
|  \\    /   O peration     | Version:  v2006                                 |
|   \\  /    A nd           | Website:  www.openfoam.com                      |
|    \\/     M anipulation  |                                                 |
\*---------------------------------------------------------------------------*/
FoamFile
{
    version     2.0;
    format      ascii;
    class       surfaceScalarField;
    location    "4.1";
    object      phi;
}
// * * * * * * * * * * * * * * * * * * * * * * * * * * * * * * * * * * * * * //

dimensions      [0 3 -1 0 0 0 0];
oriented        oriented;


internalField   nonuniform List<scalar> 
65390
(
5.45149e-05
-5.15035e-05
5.63253e-05
-1.81065e-06
4.32843e-05
1.30408e-05
3.17285e-05
1.15558e-05
2.29273e-05
8.8012e-06
1.60351e-05
6.89253e-06
1.04379e-05
5.59772e-06
5.72943e-06
4.7091e-06
1.6523e-06
4.07783e-06
-1.9182e-06
3.57129e-06
-5.05857e-06
3.14116e-06
-7.82556e-06
2.76774e-06
-1.0348e-05
2.52309e-06
-1.27586e-05
2.41119e-06
-1.52634e-05
2.50518e-06
-1.78871e-05
2.62384e-06
-2.04473e-05
2.56017e-06
-2.2673e-05
2.22544e-06
-2.45625e-05
1.88897e-06
-2.63506e-05
1.78747e-06
-2.82359e-05
1.88445e-06
-3.03057e-05
2.06884e-06
-3.24828e-05
2.17597e-06
-3.47074e-05
2.22332e-06
-3.6967e-05
2.25836e-06
-3.91289e-05
2.16051e-06
-4.10425e-05
1.91231e-06
-4.27339e-05
1.69017e-06
-4.44798e-05
1.74468e-06
-4.64252e-05
1.94421e-06
-4.85112e-05
2.08489e-06
-5.03371e-05
1.82496e-06
-5.18206e-05
1.4826e-06
-5.32134e-05
1.39201e-06
-5.4834e-05
1.61987e-06
-5.68055e-05
1.97084e-06
-5.89518e-05
2.14575e-06
-6.08581e-05
1.90584e-06
-6.22976e-05
1.43908e-06
-6.34026e-05
1.10461e-06
-6.45702e-05
1.16725e-06
-6.60356e-05
1.46504e-06
-6.76763e-05
1.64042e-06
-6.93527e-05
1.67624e-06
-7.08597e-05
1.50675e-06
-7.20587e-05
1.19882e-06
-7.30971e-05
1.03822e-06
-7.41184e-05
1.0211e-06
-7.5202e-05
1.08353e-06
-7.63193e-05
1.11713e-06
-7.73437e-05
1.02433e-06
-7.81478e-05
8.0403e-07
-7.89063e-05
7.58417e-07
-7.98342e-05
9.2788e-07
-8.095e-05
1.11568e-06
-8.21229e-05
1.17277e-06
-8.31299e-05
1.0068e-06
-8.37748e-05
6.44731e-07
-8.42213e-05
4.46324e-07
-8.46844e-05
4.6292e-07
-8.52224e-05
5.37854e-07
-8.56624e-05
4.39763e-07
-8.57112e-05
4.85818e-08
-8.51579e-05
-5.5351e-07
-8.406e-05
-1.09816e-06
-8.2684e-05
-1.37616e-06
-8.11246e-05
-1.55963e-06
-7.91804e-05
-1.94448e-06
-7.66121e-05
-2.56843e-06
-7.32107e-05
-3.40145e-06
-6.88948e-05
-4.31594e-06
-6.37549e-05
-5.13994e-06
-5.80442e-05
-5.71072e-06
-5.23941e-05
-5.65001e-06
-4.74195e-05
-4.97458e-06
-4.34e-05
-4.01941e-06
-4.00042e-05
-3.39573e-06
-3.64235e-05
-3.58064e-06
-3.27705e-05
-3.65298e-06
-3.03502e-05
-2.42031e-06
-3.06003e-05
2.50202e-07
-3.13937e-05
7.93377e-07
-3.18713e-05
4.77655e-07
-3.24688e-05
5.97548e-07
-3.33398e-05
8.70961e-07
-3.33102e-05
-2.94986e-08
-3.30522e-05
-2.5798e-07
-3.30033e-05
-4.89359e-08
-3.30327e-05
2.94314e-08
-3.27808e-05
-2.5187e-07
-3.24617e-05
-3.19095e-07
-3.17581e-05
-7.03649e-07
-3.05629e-05
-1.19525e-06
-2.89212e-05
-1.64175e-06
-2.64074e-05
-2.51387e-06
-2.3192e-05
-3.21539e-06
-1.92853e-05
-3.90669e-06
-1.53709e-05
-3.91451e-06
-1.19038e-05
-3.46714e-06
-1.02385e-05
-1.66523e-06
-1.00684e-05
-1.70172e-07
-1.05776e-05
5.09173e-07
-1.13048e-05
7.27245e-07
-1.19354e-05
6.30579e-07
-1.28209e-05
8.8549e-07
-1.3284e-05
4.63113e-07
-1.34352e-05
1.513e-07
-1.36308e-05
1.95563e-07
-1.39644e-05
3.33695e-07
-1.42796e-05
3.15256e-07
-1.45496e-05
2.70013e-07
-1.47862e-05
2.36666e-07
-1.48386e-05
5.23613e-08
-1.46552e-05
-1.83366e-07
-1.41236e-05
-5.31589e-07
-1.32888e-05
-8.34751e-07
-1.21004e-05
-1.18849e-06
-1.13991e-05
-7.01324e-07
-1.14212e-05
2.21243e-08
-1.17026e-05
2.81366e-07
-1.21066e-05
4.04068e-07
-1.24478e-05
3.41116e-07
-1.2978e-05
5.30191e-07
-1.34145e-05
4.36447e-07
-1.37015e-05
2.87026e-07
-1.40156e-05
3.1404e-07
-1.43118e-05
2.96147e-07
-1.46076e-05
2.95751e-07
-1.49219e-05
3.14366e-07
-1.52036e-05
2.81655e-07
-1.54584e-05
2.54734e-07
-1.57123e-05
2.53958e-07
-1.59501e-05
2.37767e-07
-1.61821e-05
2.31995e-07
-1.64088e-05
2.26727e-07
-1.66331e-05
2.24333e-07
-1.68503e-05
2.17176e-07
-1.70566e-05
2.06334e-07
-1.72579e-05
2.0133e-07
-1.74487e-05
1.90754e-07
-1.76303e-05
1.8164e-07
-1.77992e-05
1.68825e-07
-1.79525e-05
1.53276e-07
-1.80973e-05
1.44812e-07
-1.82322e-05
1.3486e-07
-1.8354e-05
1.21703e-07
-1.84594e-05
1.05403e-07
-1.85494e-05
8.99263e-08
-1.86286e-05
7.91818e-08
-1.86985e-05
6.97919e-08
-1.87569e-05
5.83233e-08
-1.87998e-05
4.28234e-08
-1.88242e-05
2.43975e-08
-1.88348e-05
1.05961e-08
-1.88349e-05
-2.50387e-11
-1.88251e-05
-9.7553e-09
-1.88038e-05
-2.13959e-08
-1.87654e-05
-3.83853e-08
-1.87109e-05
-5.45118e-08
-1.86448e-05
-6.61408e-08
-1.85701e-05
-7.46541e-08
-1.84832e-05
-8.69125e-08
-1.83786e-05
-1.04698e-07
-1.82593e-05
-1.19284e-07
-1.81295e-05
-1.29809e-07
-1.79901e-05
-1.39401e-07
-1.78348e-05
-1.55323e-07
-1.76607e-05
-1.74116e-07
-1.74725e-05
-1.88159e-07
-1.7275e-05
-1.9748e-07
-1.70661e-05
-2.08844e-07
-1.68389e-05
-2.27177e-07
-1.65911e-05
-2.47815e-07
-1.63283e-05
-2.62791e-07
-1.60547e-05
-2.73629e-07
-1.57682e-05
-2.86501e-07
-1.54641e-05
-3.04041e-07
-1.51394e-05
-3.24669e-07
-1.47969e-05
-3.42602e-07
-1.44391e-05
-3.57745e-07
-1.4068e-05
-3.71106e-07
-1.36789e-05
-3.89206e-07
-1.32696e-05
-4.0928e-07
-1.28403e-05
-4.29427e-07
-1.23977e-05
-4.42657e-07
-1.1945e-05
-4.52791e-07
-1.14729e-05
-4.72109e-07
-1.09747e-05
-4.98345e-07
-1.04589e-05
-5.15902e-07
-9.93385e-06
-5.25096e-07
-9.39576e-06
-5.38176e-07
-8.84381e-06
-5.52026e-07
-8.27869e-06
-5.65199e-07
-7.70088e-06
-5.77881e-07
-7.11587e-06
-5.85083e-07
-6.5214e-06
-5.94547e-07
-5.91897e-06
-6.0251e-07
-5.31538e-06
-6.03678e-07
-4.71313e-06
-6.02324e-07
-4.11126e-06
-6.01942e-07
-3.50794e-06
-6.03398e-07
-2.90352e-06
-6.04481e-07
-2.30698e-06
-5.96609e-07
-1.72718e-06
-5.79854e-07
-1.16348e-06
-5.63744e-07
-6.13263e-07
-5.50247e-07
-7.52052e-08
-5.38078e-07
4.51116e-07
-5.26328e-07
9.60649e-07
-5.09523e-07
1.44947e-06
-4.88793e-07
1.91999e-06
-4.70473e-07
2.37719e-06
-4.57113e-07
2.82211e-06
-4.44816e-07
3.25011e-06
-4.27869e-07
3.65869e-06
-4.08439e-07
4.05384e-06
-3.94988e-07
4.43674e-06
-3.82738e-07
4.80775e-06
-3.70846e-07
5.16694e-06
-3.59037e-07
5.50933e-06
-3.42245e-07
5.83269e-06
-3.23219e-07
6.14242e-06
-3.0961e-07
6.44102e-06
-2.98509e-07
6.72949e-06
-2.88384e-07
7.00611e-06
-2.76559e-07
7.267e-06
-2.60859e-07
7.51144e-06
-2.44423e-07
7.74355e-06
-2.32115e-07
7.96406e-06
-2.20537e-07
8.17211e-06
-2.08094e-07
8.36931e-06
-1.97263e-07
8.55449e-06
-1.85239e-07
8.7245e-06
-1.70085e-07
8.88206e-06
-1.57624e-07
9.02903e-06
-1.47037e-07
9.16511e-06
-1.36143e-07
9.29074e-06
-1.25685e-07
9.4052e-06
-1.1451e-07
9.50764e-06
-1.02476e-07
9.5992e-06
-9.15801e-08
9.6816e-06
-8.24058e-08
9.75427e-06
-7.26594e-08
9.81623e-06
-6.19334e-08
9.86872e-06
-5.2454e-08
9.91259e-06
-4.38178e-08
9.94956e-06
-3.68949e-08
9.97859e-06
-2.89437e-08
9.99747e-06
-1.87956e-08
1.00081e-05
-1.04873e-08
1.0013e-05
-4.88169e-09
1.00124e-05
6.76983e-10
1.00044e-05
8.11743e-09
9.98931e-06
1.51378e-08
9.96922e-06
2.01552e-08
9.94342e-06
2.58504e-08
9.91221e-06
3.12565e-08
9.87643e-06
3.58002e-08
9.83631e-06
4.01292e-08
9.79255e-06
4.37454e-08
9.74433e-06
4.81812e-08
9.69176e-06
5.2529e-08
9.63646e-06
5.52545e-08
9.57902e-06
5.74084e-08
9.51926e-06
5.97426e-08
9.45628e-06
6.29684e-08
9.39002e-06
6.62666e-08
9.3209e-06
6.91534e-08
9.24999e-06
7.09428e-08
9.17896e-06
7.10877e-08
9.10728e-06
7.17392e-08
9.0342e-06
7.31411e-08
8.95915e-06
7.51169e-08
8.88167e-06
7.75348e-08
8.80327e-06
7.84363e-08
8.72472e-06
7.85596e-08
8.64611e-06
7.86081e-08
8.56705e-06
7.90552e-08
8.48684e-06
8.02071e-08
8.4061e-06
8.07506e-08
8.32593e-06
8.02016e-08
8.24543e-06
8.05492e-08
8.1631e-06
8.23886e-08
8.08065e-06
8.2502e-08
7.99875e-06
8.19337e-08
7.91765e-06
8.11216e-08
7.83672e-06
8.09442e-08
7.75559e-06
8.11361e-08
7.67374e-06
8.18759e-08
7.59147e-06
8.22947e-08
7.50929e-06
8.22093e-08
7.42768e-06
8.16413e-08
7.3471e-06
8.05875e-08
7.26662e-06
8.04578e-08
7.1853e-06
8.12902e-08
7.10363e-06
8.16183e-08
7.02233e-06
8.12594e-08
6.94128e-06
8.10218e-08
6.86072e-06
8.05493e-08
6.78034e-06
8.03933e-08
6.69967e-06
8.06893e-08
6.61886e-06
8.08317e-08
6.53814e-06
8.07381e-08
6.45804e-06
8.01118e-08
6.37811e-06
7.99347e-08
6.2978e-06
8.02966e-08
6.21744e-06
8.03576e-08
6.13749e-06
7.99401e-08
6.05853e-06
7.89664e-08
5.97919e-06
7.93507e-08
5.8995e-06
7.971e-08
5.81983e-06
7.96882e-08
5.74069e-06
7.91636e-08
5.66209e-06
7.86147e-08
5.5836e-06
7.85064e-08
5.50506e-06
7.85521e-08
5.42657e-06
7.84918e-08
5.34868e-06
7.78978e-08
5.27128e-06
7.73919e-08
5.19387e-06
7.7413e-08
5.11648e-06
7.73995e-08
5.03932e-06
7.71632e-08
4.96298e-06
7.63535e-08
4.88736e-06
7.56261e-08
4.81147e-06
7.59075e-08
4.73565e-06
7.58341e-08
4.66054e-06
7.51278e-08
4.5865e-06
7.40589e-08
4.51267e-06
7.38375e-08
4.43881e-06
7.38756e-08
4.36532e-06
7.34971e-08
4.29227e-06
7.30546e-08
4.21996e-06
7.23247e-08
4.14841e-06
7.15554e-08
4.07745e-06
7.09637e-08
4.00704e-06
7.0412e-08
3.93711e-06
6.99387e-08
3.8676e-06
6.95166e-08
3.79864e-06
6.89733e-08
3.73046e-06
6.81811e-08
3.66313e-06
6.73361e-08
3.5961e-06
6.70353e-08
3.52932e-06
6.67891e-08
3.46305e-06
6.62747e-08
3.39738e-06
6.56698e-08
3.33257e-06
6.48031e-08
3.26861e-06
6.39591e-08
3.205e-06
6.36062e-08
3.14175e-06
6.32467e-08
3.07895e-06
6.27917e-08
3.01712e-06
6.18256e-08
2.95609e-06
6.10276e-08
2.89524e-06
6.08517e-08
2.83481e-06
6.04339e-08
2.77495e-06
5.98551e-08
2.71589e-06
5.90602e-08
2.65747e-06
5.84229e-08
2.59928e-06
5.82004e-08
2.54158e-06
5.76962e-08
2.48461e-06
5.69714e-08
2.42835e-06
5.62666e-08
2.37247e-06
5.58763e-08
2.31699e-06
5.54803e-08
2.26205e-06
5.49405e-08
2.20763e-06
5.44268e-08
2.15394e-06
5.36793e-08
2.1008e-06
5.31452e-08
2.04798e-06
5.28178e-08
1.99561e-06
5.23611e-08
1.94373e-06
5.18768e-08
1.89242e-06
5.13078e-08
1.84185e-06
5.05651e-08
1.79186e-06
4.99912e-08
1.74233e-06
4.95243e-08
1.6933e-06
4.90225e-08
1.64493e-06
4.8367e-08
1.59712e-06
4.78072e-08
1.5497e-06
4.74122e-08
1.50274e-06
4.69591e-08
1.45625e-06
4.64916e-08
1.41034e-06
4.59033e-08
1.36515e-06
4.51834e-08
1.32055e-06
4.45967e-08
1.27641e-06
4.41463e-08
1.23268e-06
4.37281e-08
1.18937e-06
4.33045e-08
1.14661e-06
4.27597e-08
1.10439e-06
4.22202e-08
1.06277e-06
4.16114e-08
1.02173e-06
4.10438e-08
9.81037e-07
4.06889e-08
9.40894e-07
4.01399e-08
9.01544e-07
3.93468e-08
8.62827e-07
3.8713e-08
8.24337e-07
3.8486e-08
7.86484e-07
3.78499e-08
7.49281e-07
3.71983e-08
7.12485e-07
3.67919e-08
6.76191e-07
3.62888e-08
6.4053e-07
3.56552e-08
6.0554e-07
3.4983e-08
5.71136e-07
3.43963e-08
5.37352e-07
3.3774e-08
5.04e-07
3.33414e-08
4.71145e-07
3.28437e-08
4.38673e-07
3.24599e-08
4.06805e-07
3.18541e-08
3.75265e-07
3.15264e-08
3.44527e-07
3.07232e-08
3.1407e-07
3.04397e-08
2.84128e-07
2.99242e-08
2.5465e-07
2.94587e-08
2.25788e-07
2.8841e-08
1.97716e-07
2.80493e-08
1.69821e-07
2.78722e-08
1.42859e-07
2.69382e-08
1.16747e-07
2.60871e-08
9.11553e-08
2.5567e-08
6.7301e-08
2.3829e-08
4.42069e-08
2.30684e-08
1.90598e-08
2.51209e-08
-4.00121e-09
2.30347e-08
-2.66351e-08
2.26075e-08
-4.96361e-08
2.29748e-08
-6.08432e-08
1.11812e-08
-7.27512e-08
1.18826e-08
-1.0031e-07
2.7534e-08
-1.16102e-07
1.57675e-08
-1.4938e-07
3.32534e-08
-2.00175e-07
5.07714e-08
-2.84913e-07
8.47139e-08
-3.69051e-07
8.41143e-08
-4.18575e-07
4.95005e-08
-4.64827e-07
4.62279e-08
-4.98404e-07
3.35539e-08
-5.28809e-07
3.03819e-08
-5.54703e-07
2.58707e-08
-5.79948e-07
2.52229e-08
-6.02683e-07
2.27132e-08
-6.23978e-07
2.12727e-08
-6.42291e-07
1.82906e-08
-6.60414e-07
1.81021e-08
-6.69386e-07
8.94922e-09
-6.78435e-07
9.02713e-09
-6.97033e-07
1.8576e-08
-7.07655e-07
1.06001e-08
-7.28801e-07
2.11227e-08
-7.61531e-07
3.27081e-08
-8.14396e-07
5.2843e-08
-8.66188e-07
5.17698e-08
-8.95815e-07
2.96064e-08
-9.23315e-07
2.74786e-08
-9.43578e-07
2.02433e-08
-9.6096e-07
1.73626e-08
-9.77008e-07
1.60285e-08
-9.89822e-07
1.2794e-08
-1.00121e-06
1.13706e-08
-1.00758e-06
6.34569e-09
-1.01163e-06
4.03542e-09
-1.01952e-06
7.87659e-09
-1.02359e-06
4.04581e-09
-1.02962e-06
6.01312e-09
-1.0367e-06
7.05594e-09
-1.01054e-06
-2.61744e-08
-9.83924e-07
-2.66374e-08
-9.94914e-07
1.097e-08
-9.79464e-07
-1.54697e-08
-1.05448e-06
7.49982e-08
-1.16608e-06
1.1157e-07
-1.4642e-06
2.98086e-07
-1.76341e-06
2.99169e-07
-1.9684e-06
2.04934e-07
-2.11921e-06
1.50763e-07
-2.22796e-06
1.08688e-07
-2.3116e-06
8.35977e-08
-2.37825e-06
6.65951e-08
-2.4334e-06
5.51e-08
-2.48036e-06
4.69099e-08
-2.52125e-06
4.08319e-08
-2.55749e-06
3.61914e-08
-2.59008e-06
3.25359e-08
-2.61962e-06
2.94881e-08
-2.64656e-06
2.68862e-08
-2.6713e-06
2.46932e-08
-2.69423e-06
2.28785e-08
-2.71562e-06
2.13313e-08
-2.73558e-06
1.99172e-08
-2.7542e-06
1.85682e-08
-2.77153e-06
1.72758e-08
-2.78767e-06
1.60875e-08
-2.80274e-06
1.50232e-08
-2.81688e-06
1.40997e-08
-2.83017e-06
1.32422e-08
-2.84267e-06
1.24506e-08
-2.8544e-06
1.16896e-08
-2.86528e-06
1.08291e-08
-2.87539e-06
1.00716e-08
-2.8848e-06
9.369e-09
-2.89343e-06
8.59629e-09
-2.90129e-06
7.82019e-09
-2.90835e-06
7.0268e-09
-2.91458e-06
6.19833e-09
-2.91999e-06
5.37359e-09
-2.92461e-06
4.59293e-09
-2.92853e-06
3.89087e-09
-2.93183e-06
3.26891e-09
-2.93461e-06
2.75888e-09
-2.93704e-06
2.411e-09
-2.93904e-06
1.97873e-09
-2.94068e-06
1.62671e-09
-2.94207e-06
1.37326e-09
-2.94325e-06
1.16907e-09
-2.94429e-06
1.02713e-09
-2.94523e-06
9.30558e-10
-2.94606e-06
8.24548e-10
-2.94673e-06
6.6193e-10
-2.94718e-06
4.49044e-10
-2.94732e-06
1.36048e-10
-2.94708e-06
-2.45315e-10
-2.9464e-06
-6.76188e-10
-2.94527e-06
-1.13204e-09
-2.94372e-06
-1.55822e-09
-2.94187e-06
-1.85941e-09
-2.93994e-06
-1.94772e-09
-2.93811e-06
-1.84882e-09
-2.93637e-06
-1.76726e-09
-2.93448e-06
-1.92503e-09
-2.93211e-06
-2.41385e-09
-2.92918e-06
-2.98383e-09
-2.92614e-06
-3.11752e-09
-2.92349e-06
-2.72477e-09
-2.92137e-06
-2.21378e-09
-2.91953e-06
-1.94808e-09
-2.9171e-06
-2.54119e-09
-2.91394e-06
-3.28753e-09
-2.91072e-06
-3.36123e-09
-2.90802e-06
-2.83904e-09
-2.90567e-06
-2.49113e-09
-2.90258e-06
-3.23372e-09
-2.89851e-06
-4.21542e-09
-2.89433e-06
-4.32567e-09
-2.89057e-06
-3.89461e-09
-2.8866e-06
-4.10837e-09
-2.88166e-06
-5.06369e-09
-2.87672e-06
-5.07122e-09
-2.87269e-06
-4.1408e-09
-2.86923e-06
-3.5701e-09
-2.86573e-06
-3.60585e-09
-2.86268e-06
-3.14363e-09
-2.86065e-06
-2.1013e-09
2.63893e-09
4.72146e-05
-9.5691e-05
4.95122e-05
-4.1073e-06
3.70399e-05
2.55139e-05
2.64188e-05
2.21772e-05
1.85399e-05
1.66803e-05
1.24336e-05
1.29987e-05
7.50076e-06
1.05302e-05
3.39472e-06
8.81461e-06
-1.6939e-07
7.64134e-06
-3.33554e-06
6.73679e-06
-6.23274e-06
6.0377e-06
-8.93812e-06
5.47253e-06
-1.15008e-05
5.08537e-06
-1.39478e-05
4.85799e-06
-1.63038e-05
4.8612e-06
-1.85764e-05
4.89682e-06
-2.07723e-05
4.75661e-06
-2.28883e-05
4.34224e-06
-2.49921e-05
3.99386e-06
-2.71062e-05
3.90286e-06
-2.92108e-05
3.99058e-06
-3.12425e-05
4.10222e-06
-3.31801e-05
4.11519e-06
-3.50695e-05
4.11446e-06
-3.70419e-05
4.23232e-06
-3.91731e-05
4.29324e-06
-4.13712e-05
4.11185e-06
-4.34315e-05
3.75165e-06
-4.52285e-05
3.54264e-06
-4.6822e-05
3.53858e-06
-4.84338e-05
3.69728e-06
-5.01862e-05
3.57775e-06
-5.20051e-05
3.30177e-06
-5.37218e-05
3.1088e-06
-5.5338e-05
3.23613e-06
-5.69268e-05
3.55952e-06
-5.86025e-05
3.82125e-06
-6.03136e-05
3.61678e-06
-6.18994e-05
3.02459e-06
-6.33436e-05
2.5486e-06
-6.46883e-05
2.51171e-06
-6.60641e-05
2.84061e-06
-6.76048e-05
3.18089e-06
-6.92069e-05
3.27813e-06
-7.0744e-05
3.04365e-06
-7.21827e-05
2.6373e-06
-7.34328e-05
2.28812e-06
-7.45619e-05
2.15006e-06
-7.57259e-05
2.24742e-06
-7.68914e-05
2.28251e-06
-7.79231e-05
2.05605e-06
-7.88176e-05
1.6985e-06
-7.96999e-05
1.64079e-06
-8.06415e-05
1.86955e-06
-8.15892e-05
2.06352e-06
-8.24301e-05
2.01382e-06
-8.31257e-05
1.7026e-06
-8.37243e-05
1.24362e-06
-8.43686e-05
1.09088e-06
-8.51228e-05
1.21729e-06
-8.58519e-05
1.26712e-06
-8.64094e-05
9.97476e-07
-8.66463e-05
2.8563e-07
-8.65459e-05
-6.53758e-07
-8.6364e-05
-1.27988e-06
-8.6202e-05
-1.53801e-06
-8.60043e-05
-1.75722e-06
-8.57074e-05
-2.2412e-06
-8.52793e-05
-2.99641e-06
-8.4625e-05
-4.05571e-06
-8.35725e-05
-5.36844e-06
-8.20612e-05
-6.65125e-06
-8.00861e-05
-7.68587e-06
-7.74414e-05
-8.29479e-06
-7.36933e-05
-8.72271e-06
-6.85264e-05
-9.18633e-06
-6.22833e-05
-9.63891e-06
-5.68792e-05
-8.98474e-06
-5.28975e-05
-7.63461e-06
-4.95027e-05
-5.81513e-06
-4.42136e-05
-5.03886e-06
-3.80672e-05
-5.35308e-06
-3.40557e-05
-3.53379e-06
-3.26811e-05
-7.77053e-07
-3.22443e-05
4.34197e-07
-3.22971e-05
2.327e-08
-3.27496e-05
1.94442e-07
-3.33639e-05
5.65376e-07
-3.39739e-05
6.39313e-07
-3.37811e-05
-4.44656e-07
-3.33453e-05
-7.5499e-07
-3.31484e-05
-9.0066e-07
-3.29496e-05
-1.39404e-06
-3.28098e-05
-1.7816e-06
-3.25589e-05
-2.76475e-06
-3.21132e-05
-3.66111e-06
-3.15098e-05
-4.51014e-06
-3.00982e-05
-5.32609e-06
-2.78662e-05
-5.69916e-06
-2.43817e-05
-5.14972e-06
-2.01895e-05
-4.36232e-06
-1.61103e-05
-3.57008e-06
-1.36833e-05
-1.69972e-06
-1.2684e-05
-3.68791e-07
-1.2249e-05
4.50558e-07
-1.2423e-05
6.37068e-07
-1.28253e-05
5.53615e-07
-1.34592e-05
8.29423e-07
-1.42535e-05
1.12809e-06
-1.46763e-05
7.38048e-07
-1.4763e-05
3.56706e-07
-1.49161e-05
3.89803e-07
-1.50981e-05
2.34317e-07
-1.53209e-05
3.93839e-08
-1.56392e-05
-2.13306e-07
-1.5881e-05
-5.92951e-07
-1.61296e-05
-9.39932e-07
-1.58836e-05
-9.47311e-07
-1.50484e-05
-8.1316e-07
-1.3823e-05
-9.44082e-07
-1.29886e-05
-4.30375e-07
-1.28732e-05
2.25699e-07
-1.29339e-05
5.90761e-07
-1.31734e-05
6.75943e-07
-1.35002e-05
6.13802e-07
-1.40112e-05
8.24976e-07
-1.44266e-05
7.11479e-07
-1.46751e-05
5.44296e-07
-1.4933e-05
5.72232e-07
-1.51809e-05
5.29509e-07
-1.54424e-05
5.16239e-07
-1.5723e-05
5.3461e-07
-1.59743e-05
4.89038e-07
-1.61976e-05
4.55357e-07
-1.64185e-05
4.47708e-07
-1.66362e-05
4.41965e-07
-1.68514e-05
4.32478e-07
-1.70606e-05
4.15484e-07
-1.72671e-05
4.07891e-07
-1.74612e-05
3.84785e-07
-1.76418e-05
3.62256e-07
-1.78101e-05
3.371e-07
-1.79666e-05
3.09727e-07
-1.81141e-05
2.92267e-07
-1.82494e-05
2.70064e-07
-1.83677e-05
2.39951e-07
-1.84721e-05
2.09696e-07
-1.85655e-05
1.83226e-07
-1.86485e-05
1.62075e-07
-1.87186e-05
1.39804e-07
-1.87735e-05
1.13127e-07
-1.88114e-05
8.06449e-08
-1.88359e-05
4.88102e-08
-1.88493e-05
2.39434e-08
-1.88523e-05
2.95765e-09
-1.88427e-05
-1.94907e-08
-1.88171e-05
-4.69651e-08
-1.87759e-05
-7.9673e-08
-1.87219e-05
-1.08527e-07
-1.86569e-05
-1.31198e-07
-1.85806e-05
-1.51065e-07
-1.84916e-05
-1.7599e-07
-1.83877e-05
-2.08636e-07
-1.82694e-05
-2.37654e-07
-1.81389e-05
-2.60346e-07
-1.79966e-05
-2.81752e-07
-1.78398e-05
-3.12204e-07
-1.7666e-05
-3.47994e-07
-1.74781e-05
-3.76025e-07
-1.72795e-05
-3.96145e-07
-1.70668e-05
-4.21603e-07
-1.68373e-05
-4.56768e-07
-1.65899e-05
-4.95269e-07
-1.63281e-05
-5.24656e-07
-1.60536e-05
-5.48229e-07
-1.57626e-05
-5.7755e-07
-1.54541e-05
-6.1263e-07
-1.51291e-05
-6.49756e-07
-1.47889e-05
-6.82879e-07
-1.44325e-05
-7.14212e-07
-1.40575e-05
-7.46269e-07
-1.36619e-05
-7.84927e-07
-1.32505e-05
-8.20857e-07
-1.28239e-05
-8.56106e-07
-1.23838e-05
-8.82903e-07
-1.19271e-05
-9.09698e-07
-1.14527e-05
-9.4665e-07
-1.09585e-05
-9.92724e-07
-1.04468e-05
-1.02771e-06
-9.92002e-06
-1.05198e-06
-9.37894e-06
-1.07935e-06
-8.82572e-06
-1.10533e-06
-8.2656e-06
-1.12539e-06
-7.69692e-06
-1.14662e-06
-7.11804e-06
-1.16401e-06
-6.52674e-06
-1.18588e-06
-5.92602e-06
-1.20326e-06
-5.32191e-06
-1.2078e-06
-4.72094e-06
-1.2033e-06
-4.12416e-06
-1.19872e-06
-3.52728e-06
-1.20028e-06
-2.93099e-06
-1.20076e-06
-2.34202e-06
-1.18557e-06
-1.76607e-06
-1.15579e-06
-1.20158e-06
-1.12821e-06
-6.47974e-07
-1.10383e-06
-1.06745e-07
-1.07927e-06
4.19309e-07
-1.05234e-06
9.27964e-07
-1.01812e-06
1.41929e-06
-9.80044e-07
1.89525e-06
-9.46353e-07
2.3576e-06
-9.19364e-07
2.80433e-06
-8.91442e-07
3.23369e-06
-8.57118e-07
3.64712e-06
-8.21766e-07
4.04636e-06
-7.94111e-07
4.43231e-06
-7.68578e-07
4.8048e-06
-7.43232e-07
5.1635e-06
-7.17632e-07
5.5076e-06
-6.86253e-07
5.83548e-06
-6.51005e-07
6.14855e-06
-6.22601e-07
6.44912e-06
-5.99012e-07
6.7378e-06
-5.7701e-07
7.01303e-06
-5.51752e-07
7.27467e-06
-5.22461e-07
7.52223e-06
-4.91957e-07
7.75641e-06
-4.6628e-07
7.97777e-06
-4.41882e-07
8.18639e-06
-4.16694e-07
8.38286e-06
-3.93725e-07
8.56746e-06
-3.69825e-07
8.739e-06
-3.4161e-07
8.89791e-06
-3.16526e-07
9.04494e-06
-2.94065e-07
9.18095e-06
-2.72148e-07
9.30642e-06
-2.51158e-07
9.42111e-06
-2.29207e-07
9.52438e-06
-2.05745e-07
9.61608e-06
-1.8328e-07
9.69668e-06
-1.62986e-07
9.76792e-06
-1.43877e-07
9.82993e-06
-1.23911e-07
9.88334e-06
-1.05815e-07
9.92742e-06
-8.78519e-08
9.96305e-06
-7.24646e-08
9.99079e-06
-5.66152e-08
1.00102e-05
-3.81389e-08
1.00208e-05
-2.10005e-08
1.00246e-05
-8.60822e-09
1.00229e-05
2.54036e-09
1.00145e-05
1.66333e-08
9.99899e-06
3.06904e-08
9.97756e-06
4.16529e-08
9.95125e-06
5.2203e-08
9.92052e-06
6.20162e-08
9.88489e-06
7.14248e-08
9.84441e-06
8.05964e-08
9.7991e-06
8.90204e-08
9.74904e-06
9.82074e-08
9.69645e-06
1.0509e-07
9.64168e-06
1.09995e-07
9.5839e-06
1.15174e-07
9.52319e-06
1.20461e-07
9.45932e-06
1.26849e-07
9.39259e-06
1.33021e-07
9.32363e-06
1.38155e-07
9.25308e-06
1.41535e-07
9.18171e-06
1.42496e-07
9.10914e-06
1.44358e-07
9.03494e-06
1.47393e-07
8.95917e-06
1.50936e-07
8.88218e-06
1.54579e-07
8.80431e-06
1.56369e-07
8.72571e-06
1.57233e-07
8.64616e-06
1.58241e-07
8.56621e-06
1.59091e-07
8.48609e-06
1.60418e-07
8.40569e-06
1.61244e-07
8.32509e-06
1.60871e-07
8.24416e-06
1.61544e-07
8.1621e-06
1.64499e-07
8.07993e-06
1.64705e-07
7.99828e-06
1.63606e-07
7.91689e-06
1.62536e-07
7.83533e-06
1.62532e-07
7.75362e-06
1.6288e-07
7.67169e-06
1.63832e-07
7.58976e-06
1.64241e-07
7.50814e-06
1.63841e-07
7.42664e-06
1.63125e-07
7.34533e-06
1.61863e-07
7.26405e-06
1.61684e-07
7.18257e-06
1.62714e-07
7.1014e-06
1.62748e-07
7.02061e-06
1.62021e-07
6.93962e-06
1.62003e-07
6.85842e-06
1.61757e-07
6.77753e-06
1.61297e-07
6.69701e-06
1.61228e-07
6.6166e-06
1.6126e-07
6.53624e-06
1.61101e-07
6.45581e-06
1.60538e-07
6.3754e-06
1.60332e-07
6.29529e-06
1.60397e-07
6.2155e-06
1.60142e-07
6.13567e-06
1.59778e-07
6.05615e-06
1.5851e-07
5.97648e-06
1.59049e-07
5.89695e-06
1.59268e-07
5.81774e-06
1.58937e-07
5.73869e-06
1.58238e-07
5.65966e-06
1.57666e-07
5.58099e-06
1.57184e-07
5.5026e-06
1.56955e-07
5.42442e-06
1.56672e-07
5.34644e-06
1.55875e-07
5.26861e-06
1.55232e-07
5.1911e-06
1.54927e-07
5.114e-06
1.54507e-07
5.03725e-06
1.5393e-07
4.96086e-06
1.52759e-07
4.88472e-06
1.51795e-07
4.80866e-06
1.51993e-07
4.73325e-06
1.51266e-07
4.6584e-06
1.49995e-07
4.58397e-06
1.48509e-07
4.5099e-06
1.47932e-07
4.43615e-06
1.4764e-07
4.36286e-06
1.46793e-07
4.29018e-06
1.45743e-07
4.21805e-06
1.44469e-07
4.1464e-06
1.43215e-07
4.07531e-06
1.42057e-07
4.00483e-06
1.40904e-07
3.93493e-06
1.39848e-07
3.86553e-06
1.38925e-07
3.79668e-06
1.37833e-07
3.72839e-06
1.36477e-07
3.66067e-06
1.35061e-07
3.59357e-06
1.34134e-07
3.52701e-06
1.33353e-07
3.4609e-06
1.3238e-07
3.39546e-06
1.31105e-07
3.33069e-06
1.29568e-07
3.26648e-06
1.28154e-07
3.20278e-06
1.273e-07
3.13966e-06
1.2635e-07
3.07716e-06
1.2529e-07
3.01524e-06
1.23739e-07
2.95385e-06
1.22408e-07
2.89295e-06
1.21751e-07
2.83268e-06
1.20701e-07
2.77297e-06
1.1956e-07
2.7138e-06
1.18234e-07
2.6552e-06
1.17025e-07
2.59716e-06
1.16242e-07
2.53975e-06
1.15118e-07
2.48277e-06
1.13953e-07
2.42615e-06
1.12885e-07
2.37004e-06
1.11984e-07
2.31472e-06
1.10804e-07
2.25997e-06
1.09686e-07
2.20562e-06
1.08773e-07
2.15184e-06
1.07456e-07
2.09848e-06
1.06494e-07
2.04562e-06
1.05669e-07
1.99342e-06
1.04554e-07
1.94172e-06
1.03573e-07
1.89052e-06
1.02494e-07
1.83992e-06
1.01166e-07
1.78986e-06
1.00043e-07
1.74035e-06
9.90258e-08
1.69129e-06
9.80708e-08
1.64276e-06
9.68874e-08
1.59475e-06
9.58146e-08
1.54729e-06
9.48644e-08
1.50048e-06
9.37704e-08
1.45415e-06
9.28154e-08
1.40828e-06
9.17683e-08
1.36294e-06
9.05169e-08
1.31816e-06
8.93756e-08
1.27391e-06
8.83944e-08
1.23012e-06
8.75129e-08
1.18677e-06
8.6647e-08
1.14409e-06
8.54376e-08
1.10194e-06
8.43645e-08
1.0603e-06
8.32493e-08
1.0192e-06
8.21366e-08
9.78665e-07
8.12199e-08
9.38666e-07
8.01335e-08
8.99213e-07
7.8794e-08
8.60222e-07
7.76979e-08
8.21763e-07
7.69382e-08
7.83922e-07
7.56837e-08
7.46701e-07
7.44117e-08
7.0998e-07
7.35034e-08
6.7389e-07
7.23683e-08
6.38221e-07
7.13115e-08
6.03252e-07
6.99381e-08
5.6873e-07
6.89016e-08
5.34928e-07
6.75575e-08
5.01509e-07
6.67413e-08
4.6882e-07
6.5511e-08
4.36446e-07
6.48096e-08
4.04914e-07
6.33608e-08
3.73585e-07
6.28281e-08
3.43081e-07
6.11969e-08
3.12777e-07
6.0711e-08
2.82458e-07
6.02078e-08
2.52821e-07
5.90583e-08
2.232e-07
5.84225e-08
1.95231e-07
5.59772e-08
1.67458e-07
5.56035e-08
1.41923e-07
5.24296e-08
1.1642e-07
5.15457e-08
8.88422e-08
5.30995e-08
6.21144e-08
5.05106e-08
3.63629e-08
4.87732e-08
1.23851e-08
4.90517e-08
5.68156e-10
3.48045e-08
-1.28493e-08
3.59782e-08
-4.36794e-08
5.37586e-08
-7.36581e-08
4.11143e-08
-1.20466e-07
5.86454e-08
-1.74538e-07
8.15626e-08
-2.63579e-07
1.04765e-07
-3.45306e-07
1.14938e-07
-3.91343e-07
9.67653e-08
-4.21853e-07
1.15182e-07
-4.38344e-07
1.00563e-07
-4.66591e-07
7.77054e-08
-4.90187e-07
6.97827e-08
-5.18288e-07
6.16138e-08
-5.43304e-07
5.53582e-08
-5.69505e-07
5.20316e-08
-5.92251e-07
4.79292e-08
-6.1345e-07
4.38727e-08
-6.25294e-07
3.30782e-08
-6.37586e-07
3.05442e-08
-6.6084e-07
4.13163e-08
-6.83343e-07
3.14139e-08
-7.15572e-07
4.12163e-08
-7.52174e-07
5.51387e-08
-8.09559e-07
6.79453e-08
-8.61944e-07
7.34681e-08
-8.89801e-07
6.05255e-08
-9.07821e-07
7.08253e-08
-9.1666e-07
6.05708e-08
-9.34729e-07
4.76389e-08
-9.46763e-07
3.94768e-08
-9.62149e-07
3.55936e-08
-9.6901e-07
2.41886e-08
-9.79465e-07
2.64494e-08
-9.89985e-07
2.32798e-08
-1.00414e-06
2.54883e-08
-1.01773e-06
1.99094e-08
-1.03259e-06
1.88571e-08
-1.04306e-06
1.8318e-08
-1.01767e-06
-2.13769e-08
-9.91535e-07
-2.01615e-08
-1.00582e-06
2.13072e-08
-1.02426e-06
-7.77197e-09
-1.13084e-06
7.99102e-08
-1.26281e-06
1.42889e-07
-1.58388e-06
3.05558e-07
-1.88494e-06
3.75993e-07
-2.09374e-06
3.20291e-07
-2.20766e-06
4.11923e-07
-2.22004e-06
3.11449e-07
-2.25051e-06
2.35314e-07
-2.29317e-06
1.93325e-07
-2.34137e-06
1.56796e-07
-2.3893e-06
1.31439e-07
-2.43523e-06
1.12429e-07
-2.47821e-06
9.79918e-08
-2.51771e-06
8.63186e-08
-2.55376e-06
7.67848e-08
-2.58671e-06
6.90458e-08
-2.6169e-06
6.26365e-08
-2.64461e-06
5.71034e-08
-2.67012e-06
5.22977e-08
-2.6937e-06
4.81856e-08
-2.71556e-06
4.46479e-08
-2.73582e-06
4.14982e-08
-2.75459e-06
3.85935e-08
-2.77193e-06
3.58158e-08
-2.7881e-06
3.33573e-08
-2.80319e-06
3.10883e-08
-2.81732e-06
2.90721e-08
-2.8306e-06
2.72874e-08
-2.8431e-06
2.56617e-08
-2.85485e-06
2.41242e-08
-2.86584e-06
2.25995e-08
-2.87621e-06
2.11251e-08
-2.88586e-06
1.96472e-08
-2.89466e-06
1.81009e-08
-2.90277e-06
1.66437e-08
-2.91021e-06
1.519e-08
-2.91698e-06
1.37397e-08
-2.9231e-06
1.22555e-08
-2.92858e-06
1.0801e-08
-2.93347e-06
9.43214e-09
-2.9378e-06
8.17685e-09
-2.94158e-06
7.01027e-09
-2.94481e-06
5.94773e-09
-2.94739e-06
4.95377e-09
-2.94966e-06
4.21184e-09
-2.9516e-06
3.54024e-09
-2.95321e-06
2.95402e-09
-2.95455e-06
2.48579e-09
-2.95567e-06
2.12848e-09
-2.95658e-06
1.82233e-09
-2.95727e-06
1.49007e-09
-2.95769e-06
1.0675e-09
-2.95779e-06
5.37907e-10
-2.95759e-06
-8.19666e-11
-2.95708e-06
-7.66209e-10
-2.95625e-06
-1.50992e-09
-2.95508e-06
-2.30305e-09
-2.95357e-06
-3.06397e-09
-2.95178e-06
-3.63667e-09
-2.94984e-06
-3.85537e-09
-2.94787e-06
-3.76992e-09
-2.94586e-06
-3.7152e-09
-2.94364e-06
-4.06734e-09
-2.94112e-06
-4.83098e-09
-2.93848e-06
-5.50089e-09
-2.9359e-06
-5.55012e-09
-2.93358e-06
-4.86756e-09
-2.93149e-06
-4.11945e-09
-2.9287e-06
-4.51829e-09
-2.9254e-06
-5.61572e-09
-2.92211e-06
-6.33296e-09
-2.91923e-06
-5.97717e-09
-2.91661e-06
-5.18826e-09
-2.91336e-06
-5.47289e-09
-2.90937e-06
-6.94074e-09
-2.90552e-06
-7.79591e-09
-2.90212e-06
-7.44989e-09
-2.89863e-06
-7.12078e-09
-2.89438e-06
-8.09986e-09
-2.89034e-06
-8.85385e-09
-2.88679e-06
-8.36986e-09
-2.88347e-06
-7.2256e-09
-2.87989e-06
-6.92274e-09
-2.87605e-06
-7.23718e-09
-2.87139e-06
-7.60422e-09
-2.86651e-06
-6.80184e-09
-5.2475e-10
2.27786e-05
-0.000115415
1.35239e-05
5.14722e-06
1.17866e-05
2.72513e-05
1.00484e-05
2.39156e-05
7.816e-06
1.89132e-05
5.16213e-06
1.56531e-05
2.41557e-06
1.32772e-05
-3.06731e-07
1.15375e-05
-2.95186e-06
1.02871e-05
-5.52838e-06
9.31385e-06
-8.0528e-06
8.56255e-06
-1.05328e-05
7.95279e-06
-1.29568e-05
7.50946e-06
-1.5299e-05
7.20016e-06
-1.75044e-05
7.06629e-06
-1.95533e-05
6.94534e-06
-2.15375e-05
6.74012e-06
-2.35867e-05
6.39065e-06
-2.57533e-05
6.15958e-06
-2.79623e-05
6.11081e-06
-3.00782e-05
6.10538e-06
-3.2011e-05
6.03395e-06
-3.37768e-05
5.87989e-06
-3.54972e-05
5.83375e-06
-3.72965e-05
6.03062e-06
-3.93199e-05
6.31573e-06
-4.15213e-05
6.31236e-06
-4.3656e-05
5.88572e-06
-4.54547e-05
5.34081e-06
-4.69908e-05
5.07431e-06
-4.84556e-05
5.16187e-06
-5.01486e-05
5.27062e-06
-5.20588e-05
5.21189e-06
-5.39174e-05
4.9674e-06
-5.55359e-05
4.85476e-06
-5.69594e-05
4.98311e-06
-5.83204e-05
5.18236e-06
-5.98164e-05
5.11297e-06
-6.15161e-05
4.72443e-06
-6.32419e-05
4.27456e-06
-6.48793e-05
4.14934e-06
-6.63835e-05
4.34488e-06
-6.78118e-05
4.6094e-06
-6.92354e-05
4.70178e-06
-7.07148e-05
4.5231e-06
-7.22496e-05
4.17214e-06
-7.37664e-05
3.80492e-06
-7.51486e-05
3.53218e-06
-7.63434e-05
3.44211e-06
-7.74106e-05
3.3495e-06
-7.84566e-05
3.10192e-06
-7.9491e-05
2.73261e-06
-8.04464e-05
2.59599e-06
-8.13088e-05
2.73178e-06
-8.20466e-05
2.80114e-06
-8.26486e-05
2.6155e-06
-8.32012e-05
2.25502e-06
-8.38715e-05
1.91357e-06
-8.46872e-05
1.90633e-06
-8.54864e-05
2.01613e-06
-8.61327e-05
1.91316e-06
-8.65773e-05
1.44175e-06
-8.68459e-05
5.54035e-07
-8.70958e-05
-4.04051e-07
-8.74848e-05
-8.9102e-07
-8.78123e-05
-1.21073e-06
-8.78661e-05
-1.7035e-06
-8.7787e-05
-2.32039e-06
-8.78302e-05
-2.95339e-06
-8.80919e-05
-3.79415e-06
-8.8497e-05
-4.96342e-06
-8.88975e-05
-6.25091e-06
-8.91566e-05
-7.42694e-06
-8.89637e-05
-8.48776e-06
-8.81249e-05
-9.56169e-06
-8.68627e-05
-1.04486e-05
-8.56104e-05
-1.08914e-05
-8.35834e-05
-1.10118e-05
-8.00247e-05
-1.11934e-05
-7.42957e-05