/*--------------------------------*- C++ -*----------------------------------*\
| =========                 |                                                 |
| \\      /  F ield         | OpenFOAM: The Open Source CFD Toolbox           |
|  \\    /   O peration     | Version:  v2006                                 |
|   \\  /    A nd           | Website:  www.openfoam.com                      |
|    \\/     M anipulation  |                                                 |
\*---------------------------------------------------------------------------*/
FoamFile
{
    version     2.0;
    format      ascii;
    class       volVectorField;
    location    "4.1";
    object      U;
}
// * * * * * * * * * * * * * * * * * * * * * * * * * * * * * * * * * * * * * //

dimensions      [0 1 -1 0 0 0 0];


internalField   nonuniform List<vector> 
33000
(
(0.0858776 0 -0.0772683)
(0.154761 0 0.000845775)
(0.129041 0 0.0222739)
(0.0947262 0 0.0228734)
(0.0660415 0 0.0177945)
(0.0486014 0 0.0139203)
(0.0325595 0 0.0112192)
(0.0200373 0 0.00952779)
(0.0090351 0 0.0083178)
(-0.000498145 0 0.00730759)
(-0.00884599 0 0.00637697)
(-0.0162219 0 0.00552381)
(-0.0227508 0 0.00497528)
(-0.0288228 0 0.00480522)
(-0.0348292 0 0.00515796)
(-0.0413642 0 0.00554104)
(-0.0480207 0 0.00539792)
(-0.054257 0 0.0045544)
(-0.059167 0 0.00361808)
(-0.0636106 0 0.00338051)
(-0.068021 0 0.00367839)
(-0.0730958 0 0.0042515)
(-0.0784681 0 0.00457048)
(-0.0840298 0 0.00475325)
(-0.0895265 0 0.00472872)
(-0.0952362 0 0.00436345)
(-0.100474 0 0.00363952)
(-0.104796 0 0.003145)
(-0.108887 0 0.00342387)
(-0.113406 0 0.00423837)
(-0.11868 0 0.00462828)
(-0.123829 0 0.00380395)
(-0.127945 0 0.00280628)
(-0.131292 0 0.00247833)
(-0.134821 0 0.00318885)
(-0.139318 0 0.00426078)
(-0.144646 0 0.00470076)
(-0.150174 0 0.00403522)
(-0.154251 0 0.00284318)
(-0.157206 0 0.00193021)
(-0.159803 0 0.00223141)
(-0.16302 0 0.00307352)
(-0.167094 0 0.00337091)
(-0.171391 0 0.00339489)
(-0.175503 0 0.00298655)
(-0.178837 0 0.00224499)
(-0.18149 0 0.00199645)
(-0.183923 0 0.00197559)
(-0.186536 0 0.00209113)
(-0.189348 0 0.00224457)
(-0.192294 0 0.0021405)
(-0.1945 0 0.0016328)
(-0.196251 0 0.00148604)
(-0.198205 0 0.00181208)
(-0.200921 0 0.00236055)
(-0.20388 0 0.00260206)
(-0.20676 0 0.00233381)
(-0.208825 0 0.00137282)
(-0.209966 0 0.000700813)
(-0.211039 0 0.000603875)
(-0.212427 0 0.000794837)
(-0.213785 0 0.000674745)
(-0.214556 0 -0.000107996)
(-0.214011 0 -0.00157939)
(-0.211603 0 -0.00307697)
(-0.208496 0 -0.00411893)
(-0.205003 0 -0.00498593)
(-0.200708 0 -0.00636428)
(-0.195221 0 -0.00847748)
(-0.187536 0 -0.0111711)
(-0.177392 0 -0.0139446)
(-0.16562 0 -0.0160837)
(-0.152821 0 -0.0166617)
(-0.139688 0 -0.0140455)
(-0.125611 0 -0.00831551)
(-0.109897 0 -0.00198982)
(-0.0976086 0 0.000334764)
(-0.0928665 0 -0.00242892)
(-0.0910588 0 -0.00267423)
(-0.07358 0 -0.00303426)
(-0.0770932 0 0.00366609)
(-0.0764905 0 0.0047614)
(-0.0801595 0 0.000957072)
(-0.0793479 0 -0.00252605)
(-0.0830361 0 -0.000646915)
(-0.0836598 0 0.000284154)
(-0.0828266 0 0.0014004)
(-0.0824385 0 0.00128609)
(-0.0826185 0 0.00142951)
(-0.0824939 0 -0.000547252)
(-0.0814538 0 -0.00116127)
(-0.0808309 0 -0.00205933)
(-0.0779899 0 -0.00319418)
(-0.0747634 0 -0.00489576)
(-0.0698933 0 -0.00779614)
(-0.0620504 0 -0.0105339)
(-0.0539762 0 -0.0127146)
(-0.0423767 0 -0.0112858)
(-0.0346185 0 -0.00695761)
(-0.0250312 0 0.00135652)
(-0.0258543 0 0.00634278)
(-0.0247011 0 0.00729997)
(-0.0280715 0 0.00273573)
(-0.0285081 0 -0.00154223)
(-0.0311683 0 -0.00122289)
(-0.0329365 0 -0.000531545)
(-0.0334495 0 0.00111534)
(-0.0337307 0 0.00156473)
(-0.0344387 0 0.00200358)
(-0.0353759 0 0.00118863)
(-0.0360225 0 0.000345333)
(-0.0367233 0 5.27784e-05)
(-0.0372303 0 -0.000191109)
(-0.0368947 0 -0.000670696)
(-0.0364648 0 -0.00188217)
(-0.0339955 0 -0.00276394)
(-0.0326823 0 -0.00428474)
(-0.0278674 0 -0.00143814)
(-0.0288541 0 0.00174698)
(-0.0284269 0 0.00318048)
(-0.0300273 0 0.00241621)
(-0.0305112 0 0.000295255)
(-0.0317577 0 0.000156498)
(-0.0331303 0 0.000189222)
(-0.0339084 0 0.000729577)
(-0.0346228 0 0.000917545)
(-0.0354408 0 0.000849934)
(-0.0361231 0 0.000558308)
(-0.0369196 0 0.000529644)
(-0.0376859 0 0.00046901)
(-0.0383278 0 0.000531469)
(-0.0389684 0 0.000543136)
(-0.0395877 0 0.000517644)
(-0.0401657 0 0.000456822)
(-0.0407423 0 0.000423501)
(-0.0413033 0 0.000395822)
(-0.0418619 0 0.000395355)
(-0.0423876 0 0.000387212)
(-0.0428971 0 0.000386897)
(-0.0433901 0 0.00037051)
(-0.0438535 0 0.000352802)
(-0.044297 0 0.000327982)
(-0.0446965 0 0.000295594)
(-0.0450661 0 0.000280678)
(-0.0454188 0 0.000263969)
(-0.0457414 0 0.000242462)
(-0.0460263 0 0.000208815)
(-0.0462687 0 0.000174284)
(-0.0464774 0 0.000152315)
(-0.0466646 0 0.000136052)
(-0.0468266 0 0.000116897)
(-0.0469564 0 8.80433e-05)
(-0.0470395 0 4.82762e-05)
(-0.0470802 0 1.96204e-05)
(-0.0470928 0 -2.15044e-06)
(-0.0470802 0 -1.99411e-05)
(-0.0470447 0 -3.87092e-05)
(-0.0469716 0 -7.28033e-05)
(-0.0468534 0 -0.000107457)
(-0.0466997 0 -0.000130881)
(-0.0465236 0 -0.000145638)
(-0.0463259 0 -0.000169618)
(-0.0460876 0 -0.000206443)
(-0.045804 0 -0.000234747)
(-0.0454911 0 -0.000254738)
(-0.0451561 0 -0.00027221)
(-0.0447923 0 -0.000304433)
(-0.0443796 0 -0.000342504)
(-0.0439223 0 -0.000370034)
(-0.0434396 0 -0.000387852)
(-0.0429347 0 -0.000408428)
(-0.0423941 0 -0.000444986)
(-0.0417987 0 -0.000487037)
(-0.041156 0 -0.000517539)
(-0.0404852 0 -0.000537935)
(-0.0397874 0 -0.000559839)
(-0.0390527 0 -0.000593674)
(-0.038266 0 -0.000638504)
(-0.0374308 0 -0.000675965)
(-0.0365527 0 -0.000705576)
(-0.0356431 0 -0.000726547)
(-0.0346962 0 -0.00075846)
(-0.0336979 0 -0.000803037)
(-0.0326492 0 -0.000846423)
(-0.0315527 0 -0.000872355)
(-0.0304362 0 -0.000887097)
(-0.0292885 0 -0.000926309)
(-0.0280751 0 -0.000982854)
(-0.0267983 0 -0.00101727)
(-0.0254972 0 -0.00102937)
(-0.0241722 0 -0.00105294)
(-0.0228071 0 -0.00108177)
(-0.0214127 0 -0.00111489)
(-0.0199809 0 -0.0011445)
(-0.018525 0 -0.00115583)
(-0.0170547 0 -0.00117004)
(-0.0155534 0 -0.00118258)
(-0.0140426 0 -0.00118379)
(-0.0125356 0 -0.00118495)
(-0.0110311 0 -0.00118856)
(-0.00952634 0 -0.00119211)
(-0.00801413 0 -0.00119469)
(-0.00650464 0 -0.00117957)
(-0.00503172 0 -0.00114499)
(-0.00360553 0 -0.001108)
(-0.00221305 0 -0.00107918)
(-0.000853741 0 -0.00105645)
(0.000478734 0 -0.00103626)
(0.00177803 0 -0.00100352)
(0.00302611 0 -0.000960174)
(0.00422199 0 -0.000921389)
(0.00537903 0 -0.000895312)
(0.00650775 0 -0.000873744)
(0.00760371 0 -0.000840861)
(0.00864661 0 -0.000799186)
(0.0096478 0 -0.000773501)
(0.0106218 0 -0.000750633)
(0.0115624 0 -0.000728613)
(0.0124768 0 -0.00070668)
(0.0133581 0 -0.000671188)
(0.0141879 0 -0.000631372)
(0.0149759 0 -0.000606292)
(0.0157361 0 -0.00058599)
(0.0164693 0 -0.000567037)
(0.0171781 0 -0.000544708)
(0.0178522 0 -0.000511978)
(0.0184819 0 -0.000478069)
(0.0190752 0 -0.000454746)
(0.0196423 0 -0.000432724)
(0.0201775 0 -0.000408582)
(0.0206827 0 -0.00038839)
(0.0211637 0 -0.000364241)
(0.0216076 0 -0.000333028)
(0.0220144 0 -0.000308553)
(0.0223955 0 -0.000288686)
(0.022749 0 -0.000267794)
(0.023076 0 -0.000247253)
(0.0233771 0 -0.000224573)
(0.0236481 0 -0.000200097)
(0.0238894 0 -0.00017942)
(0.024106 0 -0.000163384)
(0.0243015 0 -0.000144295)
(0.0244689 0 -0.000122088)
(0.0246117 0 -0.000101976)
(0.0247312 0 -8.55574e-05)
(0.0248314 0 -7.35192e-05)
(0.024916 0 -5.76317e-05)
(0.024976 0 -3.59773e-05)
(0.0250107 0 -2.07355e-05)
(0.0250292 0 -1.07499e-05)
(0.0250355 0 5.93946e-07)
(0.025026 0 1.61201e-05)
(0.0249953 0 2.96882e-05)
(0.024951 0 3.83265e-05)
(0.0248945 0 5.06216e-05)
(0.0248222 0 6.21855e-05)
(0.0247386 0 7.03816e-05)
(0.0246431 0 7.85437e-05)
(0.0245383 0 8.49595e-05)
(0.0244241 0 9.33557e-05)
(0.0242972 0 0.000103694)
(0.0241615 0 0.000109253)
(0.0240205 0 0.000112716)
(0.0238745 0 0.000116958)
(0.0237215 0 0.000123141)
(0.0235596 0 0.000129988)
(0.0233903 0 0.000136513)
(0.0232139 0 0.00014003)
(0.0230362 0 0.000139627)
(0.0228586 0 0.00014052)
(0.0226777 0 0.000143463)
(0.0224933 0 0.000148208)
(0.0223021 0 0.000153679)
(0.0221063 0 0.000154686)
(0.02191 0 0.000154217)
(0.0217136 0 0.000154273)
(0.021517 0 0.000155829)
(0.0213181 0 0.000158761)
(0.0211161 0 0.000159559)
(0.0209144 0 0.000157839)
(0.0207154 0 0.000158962)
(0.0205114 0 0.000163096)
(0.0203044 0 0.000163051)
(0.0200987 0 0.000161622)
(0.0198952 0 0.000159652)
(0.019693 0 0.000159523)
(0.0194907 0 0.000160233)
(0.0192872 0 0.000161634)
(0.0190815 0 0.000162511)
(0.0188759 0 0.000162668)
(0.0186706 0 0.000161284)
(0.0184679 0 0.000158587)
(0.0182676 0 0.000158346)
(0.0180655 0 0.000160398)
(0.0178609 0 0.000161459)
(0.0176573 0 0.000160737)
(0.0174543 0 0.000160012)
(0.0172522 0 0.000158567)
(0.0170515 0 0.000158335)
(0.0168501 0 0.0001594)
(0.0166483 0 0.000159835)
(0.0164461 0 0.000159591)
(0.0162447 0 0.00015799)
(0.0160456 0 0.000157463)
(0.0158448 0 0.000158517)
(0.0156443 0 0.000159028)
(0.0154428 0 0.000157978)
(0.0152448 0 0.000155512)
(0.0150477 0 0.000156256)
(0.0148483 0 0.000157352)
(0.0146492 0 0.000157612)
(0.01445 0 0.000156292)
(0.0142534 0 0.000154764)
(0.0140571 0 0.000154755)
(0.013861 0 0.000155092)
(0.0136643 0 0.000155104)
(0.0134686 0 0.000153623)
(0.0132748 0 0.000152281)
(0.0130816 0 0.000152595)
(0.0128878 0 0.00015295)
(0.0126946 0 0.000152512)
(0.012502 0 0.000150533)
(0.012313 0 0.000148711)
(0.0121238 0 0.000149437)
(0.0119336 0 0.000149855)
(0.0117446 0 0.000148387)
(0.0115582 0 0.000145732)
(0.0113743 0 0.000145368)
(0.0111891 0 0.000145663)
(0.011005 0 0.000144953)
(0.0108216 0 0.000144192)
(0.0106398 0 0.000142613)
(0.01046 0 0.000140911)
(0.010282 0 0.000139754)
(0.0101052 0 0.000138661)
(0.00992999 0 0.000137801)
(0.00975556 0 0.00013702)
(0.00958247 0 0.000135914)
(0.00941072 0 0.000134167)
(0.00924163 0 0.00013228)
(0.00907403 0 0.000131975)
(0.0089065 0 0.00013167)
(0.0087401 0 0.000130546)
(0.00857515 0 0.000129408)
(0.00841174 0 0.000127587)
(0.00825116 0 0.00012573)
(0.00809187 0 0.000125104)
(0.00793316 0 0.000124577)
(0.00777557 0 0.00012383)
(0.00761923 0 0.000121637)
(0.00746641 0 0.000119819)
(0.00731405 0 0.000119643)
(0.00716217 0 0.000119019)
(0.00701187 0 0.000117865)
(0.00686291 0 0.000116129)
(0.00671659 0 0.000114851)
(0.00657076 0 0.000114616)
(0.00642564 0 0.000113728)
(0.00628227 0 0.000112118)
(0.0061408 0 0.000110465)
(0.00600093 0 0.000109728)
(0.00586143 0 0.000109242)
(0.00572355 0 0.000108256)
(0.0055867 0 0.000107159)
(0.00545146 0 0.000105641)
(0.00531826 0 0.000104481)
(0.00518574 0 0.000103868)
(0.00505414 0 0.000103163)
(0.00492394 0 0.000102281)
(0.00479472 0 0.000101142)
(0.0046674 0 9.95325e-05)
(0.00454185 0 9.84053e-05)
(0.00441744 0 9.75334e-05)
(0.0042942 0 9.65418e-05)
(0.00417232 0 9.51586e-05)
(0.00405234 0 9.40609e-05)
(0.00393327 0 9.33069e-05)
(0.00381526 0 9.25889e-05)
(0.00369846 0 9.16752e-05)
(0.00358279 0 9.04383e-05)
(0.00346893 0 8.88616e-05)
(0.00335685 0 8.76226e-05)
(0.00324593 0 8.68263e-05)
(0.00313611 0 8.59009e-05)
(0.00302728 0 8.50649e-05)
(0.00291958 0 8.38945e-05)
(0.00281347 0 8.30245e-05)
(0.00270847 0 8.13726e-05)
(0.00260543 0 8.05546e-05)
(0.00250321 0 7.95038e-05)
(0.002402 0 7.88743e-05)
(0.00230247 0 7.64503e-05)
(0.00220528 0 7.5667e-05)
(0.00210884 0 7.45293e-05)
(0.00201286 0 7.41265e-05)
(0.00191957 0 7.17651e-05)
(0.00182683 0 7.20442e-05)
(0.00173562 0 6.98982e-05)
(0.00164532 0 6.95801e-05)
(0.00155739 0 6.68755e-05)
(0.00147027 0 6.67531e-05)
(0.00138549 0 6.43074e-05)
(0.00130121 0 6.43539e-05)
(0.00121889 0 6.27212e-05)
(0.00113675 0 6.20774e-05)
(0.00105672 0 6.12414e-05)
(0.000977221 0 5.91955e-05)
(0.000899209 0 6.01749e-05)
(0.000823342 0 5.67534e-05)
(0.000747084 0 6.16747e-05)
(0.00067351 0 5.56319e-05)
(0.000599774 0 6.17081e-05)
(0.000529163 0 5.24454e-05)
(0.000459411 0 5.88147e-05)
(0.000389727 0 4.89167e-05)
(0.000324532 0 5.71643e-05)
(0.000259257 0 5.06928e-05)
(0.000196476 0 5.82236e-05)
(0.000140088 0 4.41048e-05)
(8.09089e-05 0 4.75249e-05)
(1.44257e-05 0 2.76338e-05)
(-3.44458e-05 0 4.30658e-05)
(-9.87452e-05 0 5.62141e-05)
(-0.000149403 0 7.37251e-05)
(-0.000154771 0 5.04901e-05)
(-0.000209054 0 2.72711e-05)
(-0.000292491 0 -8.44102e-05)
(-0.000287852 0 -5.18484e-05)
(-0.000459558 0 9.13956e-05)
(-0.000540635 0 0.000207699)
(-0.000883973 0 0.000256882)
(-0.00096185 0 0.000120985)
(-0.00113042 0 0.000124105)
(-0.0011943 0 8.07648e-05)
(-0.00129719 0 7.4134e-05)
(-0.00134726 0 6.48725e-05)
(-0.00142598 0 4.32495e-05)
(-0.00147389 0 4.92738e-05)
(-0.00153955 0 2.0831e-05)
(-0.00158017 0 4.07532e-05)
(-0.00163152 0 3.06595e-05)
(-0.00167032 0 5.49318e-05)
(-0.00167665 0 2.0068e-05)
(-0.00171558 0 2.1173e-05)
(-0.00176968 0 -7.04791e-05)
(-0.00176824 0 -2.83783e-05)
(-0.00187655 0 4.63663e-05)
(-0.00193015 0 0.000136638)
(-0.0021415 0 0.000143692)
(-0.00219103 0 7.03144e-05)
(-0.00228649 0 6.12584e-05)
(-0.00233155 0 3.4679e-05)
(-0.00238491 0 3.03927e-05)
(-0.00242117 0 1.26647e-05)
(-0.00246273 0 3.57436e-05)
(-0.00248734 0 6.72816e-06)
(-0.00251789 0 4.81232e-05)
(-0.00252068 0 -7.81365e-06)
(-0.00253678 0 3.83496e-05)
(-0.00256143 0 -5.49111e-05)
(-0.00255611 0 1.98875e-05)
(-0.00259215 0 -1.2748e-05)
(-0.00259161 0 9.98284e-05)
(-0.00246093 0 3.85133e-06)
(-0.00245801 0 3.9525e-05)
(-0.00251768 0 -0.000375071)
(-0.00237848 0 -0.000244733)
(-0.00289382 0 -5.60546e-05)
(-0.00293975 0 0.000501302)
(-0.00436941 0 0.000922955)
(-0.00458061 0 0.00060596)
(-0.00519055 0 0.000413281)
(-0.005432 0 0.000274001)
(-0.00568099 0 0.000197238)
(-0.00586344 0 0.000148509)
(-0.00601533 0 0.000117882)
(-0.00614251 0 9.77716e-05)
(-0.00625218 0 8.3797e-05)
(-0.0063485 0 7.35157e-05)
(-0.00643452 0 6.56319e-05)
(-0.00651219 0 5.92318e-05)
(-0.00658275 0 5.38727e-05)
(-0.00664733 0 4.93262e-05)
(-0.00670691 0 4.55972e-05)
(-0.00676232 0 4.24813e-05)
(-0.00681402 0 3.9685e-05)
(-0.00686226 0 3.70113e-05)
(-0.00690718 0 3.45023e-05)
(-0.006949 0 3.2154e-05)
(-0.00698799 0 3.00208e-05)
(-0.00702452 0 2.80863e-05)
(-0.00705881 0 2.63604e-05)
(-0.00709105 0 2.47928e-05)
(-0.00712135 0 2.32752e-05)
(-0.0071496 0 2.13766e-05)
(-0.00717583 0 1.98409e-05)
(-0.00720025 0 1.86684e-05)
(-0.00722281 0 1.71365e-05)
(-0.00724343 0 1.5555e-05)
(-0.00726209 0 1.39468e-05)
(-0.00727871 0 1.22449e-05)
(-0.00729328 0 1.05207e-05)
(-0.0073058 0 8.8659e-06)
(-0.00731645 0 7.36877e-06)
(-0.00732545 0 6.11735e-06)
(-0.00733303 0 5.13541e-06)
(-0.00733956 0 4.77176e-06)
(-0.00734509 0 3.69032e-06)
(-0.00734963 0 3.00167e-06)
(-0.00735342 0 2.55644e-06)
(-0.00735663 0 2.21161e-06)
(-0.00735939 0 1.97091e-06)
(-0.00736186 0 1.82132e-06)
(-0.00736409 0 1.69418e-06)
(-0.00736599 0 1.48045e-06)
(-0.0073674 0 1.07222e-06)
(-0.00736814 0 4.55642e-07)
(-0.00736802 0 -3.47389e-07)
(-0.00736688 0 -1.2816e-06)
(-0.00736462 0 -2.26697e-06)
(-0.00736124 0 -3.17137e-06)
(-0.00735695 0 -3.78666e-06)
(-0.0073522 0 -3.92927e-06)
(-0.0073475 0 -3.64442e-06)
(-0.0073431 0 -3.35908e-06)
(-0.00733862 0 -3.55347e-06)
(-0.0073333 0 -4.59098e-06)
(-0.00732659 0 -5.9739e-06)
(-0.00731899 0 -6.40921e-06)
(-0.00731183 0 -5.67441e-06)
(-0.00730598 0 -4.50131e-06)
(-0.00730121 0 -3.22097e-06)
(-0.00729595 0 -4.1872e-06)
(-0.00728882 0 -6.19649e-06)
(-0.00728064 0 -6.75141e-06)
(-0.00727328 0 -5.78833e-06)
(-0.00726721 0 -4.47445e-06)
(-0.00726059 0 -5.51854e-06)
(-0.00725146 0 -8.21546e-06)
(-0.00724089 0 -8.90242e-06)
(-0.00723112 0 -7.95247e-06)
(-0.00722169 0 -7.79749e-06)
(-0.00721057 0 -1.02878e-05)
(-0.00719755 0 -1.09954e-05)
(-0.00718392 0 -8.86886e-06)
(-0.00718931 0 -6.94074e-06)
(-0.00722278 0 -6.89244e-06)
(-0.00687781 0 -4.92045e-06)
(-0.00787626 0 -1.65117e-06)
(-0.00573631 0 9.98183e-06)
(0.0606281 0 -0.328924)
(0.145881 0 -0.017772)
(0.11168 0 0.074732)
(0.0800409 0 0.0661077)
(0.0532096 0 0.0500464)
(0.0383019 0 0.0391738)
(0.024289 0 0.0318)
(0.0133487 0 0.0266246)
(0.00384037 0 0.0230377)
(-0.00448958 0 0.0202006)
(-0.0119771 0 0.0179069)
(-0.0190176 0 0.0159741)
(-0.0255571 0 0.0147015)
(-0.0318711 0 0.0140707)
(-0.0378178 0 0.0144199)
(-0.0436466 0 0.0148727)
(-0.0492186 0 0.014489)
(-0.0546237 0 0.0127926)
(-0.05981 0 0.0112076)
(-0.065097 0 0.0107236)
(-0.0703728 0 0.0112455)
(-0.0756782 0 0.0121082)
(-0.0805606 0 0.0125646)
(-0.0853694 0 0.0126631)
(-0.0899526 0 0.0128384)
(-0.0951829 0 0.0124646)
(-0.100734 0 0.0114142)
(-0.106149 0 0.0102538)
(-0.110981 0 0.0103508)
(-0.11509 0 0.0110013)
(-0.119031 0 0.0116051)
(-0.123231 0 0.0104525)
(-0.127711 0 0.00895102)
(-0.132299 0 0.00858172)
(-0.136321 0 0.00957305)
(-0.140346 0 0.0111715)
(-0.144328 0 0.0120467)
(-0.148683 0 0.0108529)
(-0.152926 0 0.0084003)
(-0.156512 0 0.00673497)
(-0.160191 0 0.00694734)
(-0.163369 0 0.00842073)
(-0.166849 0 0.00952113)
(-0.171155 0 0.00976034)
(-0.175 0 0.00887068)
(-0.178721 0 0.00726046)
(-0.182164 0 0.00622191)
(-0.185031 0 0.00604583)
(-0.187772 0 0.0064453)
(-0.19077 0 0.00657822)
(-0.193666 0 0.0059297)
(-0.195998 0 0.0047119)
(-0.198146 0 0.00451568)
(-0.200303 0 0.00551721)
(-0.202873 0 0.0064436)
(-0.205192 0 0.00656385)
(-0.206907 0 0.00544779)
(-0.208671 0 0.00357633)
(-0.209962 0 0.00274838)
(-0.211771 0 0.00309708)
(-0.213901 0 0.00341785)
(-0.215442 0 0.00274061)
(-0.216516 0 0.000440517)
(-0.216697 0 -0.00292538)
(-0.215948 0 -0.00585513)
(-0.215687 0 -0.00715532)
(-0.215275 0 -0.0079013)
(-0.214651 0 -0.00971481)
(-0.213711 0 -0.0127276)
(-0.212242 0 -0.0168989)
(-0.210344 0 -0.0216906)
(-0.207351 0 -0.0263061)
(-0.202473 0 -0.0301547)
(-0.196161 0 -0.0318877)
(-0.187933 0 -0.0323956)
(-0.178579 0 -0.0322013)
(-0.1669 0 -0.0308145)
(-0.150582 0 -0.0296386)
(-0.132303 0 -0.0247565)
(-0.119082 0 -0.012614)
(-0.117901 0 -0.000467222)
(-0.106128 0 0.00123864)
(-0.0847926 0 0.00184446)
(-0.084249 0 0.00708445)
(-0.079833 0 0.00766692)
(-0.0810499 0 -0.000135031)
(-0.0807018 0 -0.00335564)
(-0.0827609 0 -0.00157386)
(-0.0844106 0 -0.00131015)
(-0.0852656 0 -0.00155383)
(-0.0836499 0 -0.00139179)
(-0.0830818 0 -0.0034693)
(-0.0826624 0 -0.00620471)
(-0.0820756 0 -0.00808901)
(-0.081998 0 -0.0120476)
(-0.0807593 0 -0.0148307)
(-0.0797928 0 -0.0180146)
(-0.0777794 0 -0.0195089)
(-0.0726728 0 -0.020245)
(-0.0668184 0 -0.0145264)
(-0.0549005 0 -0.00790475)
(-0.0462584 0 -0.00366783)
(-0.0344187 0 0.00265268)
(-0.0335185 0 0.00663438)
(-0.0301977 0 0.00840882)
(-0.0309186 0 0.00442875)
(-0.0313208 0 3.33669e-05)
(-0.0327067 0 -7.33155e-05)
(-0.0346976 0 0.000488435)
(-0.0365188 0 0.0011946)
(-0.0368328 0 0.00175303)
(-0.0370009 0 0.00181762)
(-0.0375719 0 0.000627814)
(-0.0379194 0 -0.000791355)
(-0.0387022 0 -0.00229072)
(-0.0394777 0 -0.00380122)
(-0.0399309 0 -0.00492076)
(-0.0407705 0 -0.00395634)
(-0.0384428 0 -0.00159646)
(-0.037128 0 -0.00126257)
(-0.0319863 0 0.000449819)
(-0.0326589 0 0.00235008)
(-0.0318702 0 0.00411645)
(-0.0327454 0 0.00339271)
(-0.0331481 0 0.00152812)
(-0.0343775 0 0.00151421)
(-0.0356814 0 0.00141527)
(-0.0364114 0 0.00175116)
(-0.0369865 0 0.00194903)
(-0.0376625 0 0.00176712)
(-0.0382506 0 0.00147125)
(-0.038965 0 0.00144583)
(-0.0396468 0 0.00133707)
(-0.0402201 0 0.00136222)
(-0.0407702 0 0.00135956)
(-0.0413203 0 0.00137621)
(-0.0418625 0 0.00131981)
(-0.0423923 0 0.0012397)
(-0.0429131 0 0.00119811)
(-0.0434201 0 0.00112959)
(-0.0438849 0 0.00107556)
(-0.0443229 0 0.00099984)
(-0.0447261 0 0.000910659)
(-0.0451062 0 0.000858212)
(-0.0454633 0 0.000795988)
(-0.045781 0 0.000712761)
(-0.0460564 0 0.000619517)
(-0.0463025 0 0.000532898)
(-0.0465238 0 0.000470535)
(-0.046717 0 0.000412578)
(-0.0468744 0 0.000340718)
(-0.0469906 0 0.000247602)
(-0.0470652 0 0.000143606)
(-0.0471124 0 6.39388e-05)
(-0.047133 0 2.50185e-06)
(-0.0471271 0 -5.66615e-05)
(-0.0470842 0 -0.000130365)
(-0.0469997 0 -0.000229089)
(-0.0468785 0 -0.000320906)
(-0.0467299 0 -0.000388571)
(-0.0465535 0 -0.000441367)
(-0.0463484 0 -0.000513263)
(-0.0461076 0 -0.000616215)
(-0.0458293 0 -0.000702459)
(-0.0455165 0 -0.00076528)
(-0.045177 0 -0.000823537)
(-0.0448048 0 -0.000915952)
(-0.044392 0 -0.00102565)
(-0.0439365 0 -0.00110836)
(-0.0434537 0 -0.00116397)
(-0.0429426 0 -0.00123295)
(-0.0423904 0 -0.00134018)
(-0.0417941 0 -0.00146028)
(-0.0411544 0 -0.00154727)
(-0.0404856 0 -0.00161226)
(-0.039781 0 -0.00169187)
(-0.0390311 0 -0.0017959)
(-0.038238 0 -0.00191279)
(-0.0374069 0 -0.00201595)
(-0.0365366 0 -0.00210551)
(-0.0356258 0 -0.00219011)
(-0.0346602 0 -0.00230056)
(-0.0336498 0 -0.00241336)
(-0.0326016 0 -0.00252802)
(-0.0315186 0 -0.00260625)
(-0.0303998 0 -0.00267161)
(-0.0292363 0 -0.00278395)
(-0.0280263 0 -0.00293347)
(-0.0267663 0 -0.00303696)
(-0.0254677 0 -0.00309762)
(-0.0241332 0 -0.00317699)
(-0.0227616 0 -0.00325705)
(-0.0213685 0 -0.00332699)
(-0.0199597 0 -0.00339697)
(-0.0185261 0 -0.00344243)
(-0.0170645 0 -0.00350302)
(-0.0155701 0 -0.00355342)
(-0.0140609 0 -0.00356166)
(-0.0125501 0 -0.00354982)
(-0.011056 0 -0.00354315)
(-0.00956578 0 -0.0035513)
(-0.00807163 0 -0.00355757)
(-0.00658432 0 -0.00351099)
(-0.00512729 0 -0.00341416)
(-0.00370413 0 -0.00332513)
(-0.00230492 0 -0.00324804)
(-0.000935141 0 -0.00317488)
(0.000401819 0 -0.00310213)
(0.00169581 0 -0.00300234)
(0.00294504 0 -0.00288254)
(0.0041524 0 -0.00277725)
(0.00532493 0 -0.00269806)
(0.00646381 0 -0.00262253)
(0.00755838 0 -0.00252194)
(0.00861059 0 -0.0024112)
(0.00962554 0 -0.00233102)
(0.0106067 0 -0.00225738)
(0.0115552 0 -0.00218581)
(0.012469 0 -0.00211469)
(0.0133487 0 -0.00201836)
(0.0141891 0 -0.00190905)
(0.0149884 0 -0.00182697)
(0.0157542 0 -0.00175973)
(0.0164916 0 -0.00169905)
(0.017197 0 -0.00162827)
(0.0178681 0 -0.00153775)
(0.0185047 0 -0.0014428)
(0.0191061 0 -0.00136926)
(0.0196755 0 -0.00130008)
(0.0202129 0 -0.00122645)
(0.0207185 0 -0.00116145)
(0.0211955 0 -0.00109104)
(0.0216411 0 -0.00100343)
(0.0220534 0 -0.000930015)
(0.0224355 0 -0.000866603)
(0.0227886 0 -0.00080187)
(0.0231155 0 -0.000740258)
(0.023416 0 -0.000675228)
(0.0236887 0 -0.000605302)
(0.0239326 0 -0.000540397)
(0.0241468 0 -0.00048398)
(0.0243363 0 -0.000426454)
(0.0245025 0 -0.000364582)
(0.0246468 0 -0.000310438)
(0.024769 0 -0.000258959)
(0.0248676 0 -0.000216401)
(0.0249469 0 -0.000169739)
(0.0250066 0 -0.000111987)
(0.0250437 0 -6.17834e-05)
(0.02506 0 -2.74907e-05)
(0.0250629 0 4.80885e-06)
(0.0250509 0 4.76333e-05)
(0.0250207 0 8.92692e-05)
(0.0249738 0 0.000120135)
(0.0249136 0 0.000152491)
(0.0248424 0 0.000183236)
(0.0247598 0 0.00021081)
(0.0246642 0 0.000236715)
(0.0245576 0 0.000258783)
(0.0244374 0 0.000285373)
(0.0243077 0 0.000308996)
(0.0241744 0 0.000324788)
(0.0240337 0 0.000338369)
(0.0238856 0 0.000352556)
(0.02373 0 0.000371768)
(0.0235664 0 0.000390763)
(0.0233965 0 0.000406828)
(0.0232215 0 0.000417322)
(0.0230439 0 0.000418908)
(0.0228645 0 0.000423193)
(0.0226811 0 0.000431283)
(0.0224935 0 0.000442046)
(0.0223024 0 0.000455452)
(0.0221085 0 0.000461646)
(0.0219131 0 0.000463219)
(0.0217153 0 0.000463644)
(0.0215155 0 0.000465614)
(0.0213155 0 0.000471645)
(0.021115 0 0.000475119)
(0.0209133 0 0.000472537)
(0.0207122 0 0.000474085)
(0.0205084 0 0.000484264)
(0.0203022 0 0.000485196)
(0.0200975 0 0.0004822)
(0.019894 0 0.000477809)
(0.0196904 0 0.000476585)
(0.0194862 0 0.000477374)
(0.0192818 0 0.00048178)
(0.0190766 0 0.000484166)
(0.0188723 0 0.000483282)
(0.0186684 0 0.000480163)
(0.0184648 0 0.000474616)
(0.0182619 0 0.000473844)
(0.0180583 0 0.000478317)
(0.0178546 0 0.0004798)
(0.0176525 0 0.000477736)
(0.0174506 0 0.000476645)
(0.0172475 0 0.000474432)
(0.0170446 0 0.000473443)
(0.0168431 0 0.000474631)
(0.016642 0 0.000475296)
(0.0164411 0 0.000474809)
(0.0162401 0 0.0004715)
(0.0160391 0 0.00047067)
(0.0158379 0 0.000472441)
(0.0156387 0 0.000472376)
(0.0154388 0 0.000470172)
(0.0152397 0 0.000465046)
(0.015041 0 0.000467321)
(0.0148415 0 0.000469029)
(0.0146433 0 0.000468556)
(0.0144455 0 0.000465761)
(0.0142479 0 0.000463006)
(0.0140504 0 0.000462148)
(0.0138545 0 0.000462154)
(0.0136585 0 0.000461651)
(0.0134636 0 0.000458488)
(0.0132686 0 0.000455884)
(0.0130744 0 0.00045573)
(0.0128811 0 0.000455247)
(0.0126889 0 0.000453824)
(0.0124973 0 0.000449462)
(0.0123071 0 0.000445591)
(0.0121165 0 0.000447065)
(0.0119268 0 0.00044604)
(0.0117394 0 0.000441959)
(0.0115527 0 0.000436232)
(0.0113672 0 0.000434862)
(0.0111823 0 0.000434856)
(0.0109984 0 0.000432586)
(0.0108159 0 0.000429864)
(0.010635 0 0.000425715)
(0.0104552 0 0.000421382)
(0.0102768 0 0.00041789)
(0.0100998 0 0.000414648)
(0.00992438 0 0.000411781)
(0.00975025 0 0.000409239)
(0.00957741 0 0.000406075)
(0.00940599 0 0.000401601)
(0.00923597 0 0.00039685)
(0.00906739 0 0.00039478)
(0.0089005 0 0.000393134)
(0.00873454 0 0.000390217)
(0.00856999 0 0.0003866)
(0.00840731 0 0.000381613)
(0.00824613 0 0.000376848)
(0.00808627 0 0.0003747)
(0.00792763 0 0.000372397)
(0.0077707 0 0.000369564)
(0.00761509 0 0.000364175)
(0.0074611 0 0.000359735)
(0.00730816 0 0.000358526)
(0.00715659 0 0.000355864)
(0.00700681 0 0.000352472)
(0.00685806 0 0.00034797)
(0.00671097 0 0.000344243)
(0.00656505 0 0.000342721)
(0.0064208 0 0.000339643)
(0.00627793 0 0.000335562)
(0.00613592 0 0.00033168)
(0.00599484 0 0.000329348)
(0.0058554 0 0.000326709)
(0.0057182 0 0.000323449)
(0.00558165 0 0.00032051)
(0.00544647 0 0.000316153)
(0.00531272 0 0.000313116)
(0.0051797 0 0.000311157)
(0.00504843 0 0.000308264)
(0.0049187 0 0.000305337)
(0.0047899 0 0.000302004)
(0.00466274 0 0.000297783)
(0.00453685 0 0.000294399)
(0.00441245 0 0.000291601)
(0.00428929 0 0.000288647)
(0.00416718 0 0.000284884)
(0.00404664 0 0.000281582)
(0.00392711 0 0.000279234)
(0.00380936 0 0.000276385)
(0.00369302 0 0.000273627)
(0.00357774 0 0.000270243)
(0.00346366 0 0.000266168)
(0.00335107 0 0.000262801)
(0.00323972 0 0.00026005)
(0.00312985 0 0.000257697)
(0.00302074 0 0.000255196)
(0.00291317 0 0.000252099)
(0.00280727 0 0.000248711)
(0.00270248 0 0.000245609)
(0.002599 0 0.000241942)
(0.00249705 0 0.000240232)
(0.00239625 0 0.000236515)
(0.00229713 0 0.000232756)
(0.0021989 0 0.000228525)
(0.00210227 0 0.000227924)
(0.00200649 0 0.00022328)
(0.0019132 0 0.000220576)
(0.00182023 0 0.00021705)
(0.00172977 0 0.000215295)
(0.00163958 0 0.000210591)
(0.00155164 0 0.00020806)
(0.00146452 0 0.000203538)
(0.00137924 0 0.00020112)
(0.00129532 0 0.000197665)
(0.0012123 0 0.000195371)
(0.00113176 0 0.000193035)
(0.00105049 0 0.00018904)
(0.000974131 0 0.000188608)
(0.000893707 0 0.000181183)
(0.000821853 0 0.000182531)
(0.000741831 0 0.000173363)
(0.000670721 0 0.00017594)
(0.000593098 0 0.000164794)
(0.000523224 0 0.000168023)
(0.000452618 0 0.000160068)
(0.000384988 0 0.000162785)
(0.000324352 0 0.000147711)
(0.000258006 0 0.000150199)
(0.000186006 0 0.000128914)
(0.000124729 0 0.000137074)
(5.69614e-05 0 0.000149756)
(5.04826e-06 0 0.000153269)
(-2.1817e-06 0 0.000134595)
(-6.21423e-05 0 0.000124246)
(-0.000156132 0 1.4e-05)
(-0.000212296 0 4.24874e-05)
(-0.000390159 0 0.0001889)
(-0.000482236 0 0.000208399)
(-0.000835361 0 0.000313451)
(-0.00089189 0 0.000307361)
(-0.00106444 0 0.000457536)
(-0.0010447 0 0.000403622)
(-0.00114744 0 0.000267708)
(-0.00118487 0 0.000238972)
(-0.0012669 0 0.00018258)
(-0.00132356 0 0.00016456)
(-0.00139406 0 0.000137949)
(-0.00145231 0 0.000155114)
(-0.00151004 0 0.000128801)
(-0.00155619 0 0.000146694)
(-0.00157106 0 0.000102702)
(-0.00161619 0 0.000111876)
(-0.00168884 0 1.47212e-05)
(-0.00172691 0 5.08056e-05)
(-0.00185227 0 0.000124564)
(-0.00190705 0 0.000154819)
(-0.0021411 0 0.000195216)
(-0.00216932 0 0.000210858)
(-0.00227934 0 0.000278148)
(-0.00225956 0 0.000262363)
(-0.00232425 0 0.000162219)
(-0.00234879 0 0.0001542)
(-0.00238562 0 0.000124424)
(-0.00242468 0 0.0001056)
(-0.00242065 0 0.000113557)
(-0.00247639 0 6.47575e-05)
(-0.00247369 0 8.30617e-05)
(-0.00254678 0 1.94872e-06)
(-0.00254219 0 3.95045e-05)
(-0.00262034 0 2.3115e-05)
(-0.00259582 0 8.60135e-05)
(-0.00249182 0 2.75387e-05)
(-0.00246581 0 6.90977e-05)
(-0.00256317 0 -0.000303168)
(-0.00255832 0 -0.000213147)
(-0.0030948 0 4.51868e-05)
(-0.00322403 0 0.000249253)
(-0.00468014 0 0.000828763)
(-0.00491215 0 0.0009324)
(-0.00547104 0 0.0018485)
(-0.00553602 0 0.0014047)
(-0.00558037 0 0.00097477)
(-0.00568207 0 0.000746644)
(-0.0057941 0 0.000563794)
(-0.0059142 0 0.000448557)
(-0.00603114 0 0.00036764)
(-0.00614216 0 0.000310561)
(-0.00624516 0 0.000268034)
(-0.0063395 0 0.000235331)
(-0.00642568 0 0.000209794)
(-0.00650458 0 0.000189291)
(-0.00657694 0 0.000171875)
(-0.00664344 0 0.000156815)
(-0.0067048 0 0.000144119)
(-0.00676161 0 0.000133557)
(-0.00681427 0 0.000124476)
(-0.00686304 0 0.000116137)
(-0.00690816 0 0.000108226)
(-0.00695005 0 0.00010076)
(-0.00698911 0 9.39407e-05)
(-0.00702563 0 8.78669e-05)
(-0.00705989 0 8.2454e-05)
(-0.00709212 0 7.75525e-05)
(-0.00712244 0 7.29468e-05)
(-0.00715087 0 6.84226e-05)
(-0.00717759 0 6.37943e-05)
(-0.00720262 0 5.93477e-05)
(-0.00722566 0 5.48276e-05)
(-0.00724681 0 5.03627e-05)
(-0.00726625 0 4.58352e-05)
(-0.007284 0 4.12151e-05)
(-0.00730011 0 3.64167e-05)
(-0.0073146 0 3.16759e-05)
(-0.00732756 0 2.72501e-05)
(-0.0073391 0 2.324e-05)
(-0.00734925 0 1.96592e-05)
(-0.007358 0 1.65761e-05)
(-0.00736524 0 1.39829e-05)
(-0.0073713 0 1.17712e-05)
(-0.00737657 0 9.84672e-06)
(-0.00738099 0 8.22824e-06)
(-0.00738467 0 6.96131e-06)
(-0.00738775 0 6.05206e-06)
(-0.0073903 0 5.36263e-06)
(-0.00739231 0 4.6436e-06)
(-0.0073937 0 3.63647e-06)
(-0.00739436 0 2.18037e-06)
(-0.00739423 0 3.0553e-07)
(-0.00739334 0 -1.89135e-06)
(-0.00739168 0 -4.31697e-06)
(-0.00738918 0 -6.86378e-06)
(-0.00738582 0 -9.2425e-06)
(-0.00738167 0 -1.09487e-05)
(-0.00737699 0 -1.14694e-05)
(-0.00737213 0 -1.09635e-05)
(-0.00736719 0 -1.05771e-05)
(-0.0073619 0 -1.16329e-05)
(-0.00735594 0 -1.43753e-05)
(-0.00734944 0 -1.71639e-05)
(-0.00734286 0 -1.75903e-05)
(-0.00733681 0 -1.50926e-05)
(-0.00733143 0 -1.19232e-05)
(-0.00732532 0 -1.1864e-05)
(-0.0073176 0 -1.56029e-05)
(-0.00730926 0 -1.92194e-05)
(-0.00730157 0 -1.87072e-05)
(-0.00729487 0 -1.53968e-05)
(-0.00728764 0 -1.45594e-05)
(-0.00727843 0 -1.95851e-05)
(-0.00726847 0 -2.43632e-05)
(-0.00725953 0 -2.39341e-05)
(-0.00725112 0 -2.15388e-05)
(-0.0072413 0 -2.39524e-05)