/*--------------------------------*- C++ -*----------------------------------*\
| =========                 |                                                 |
| \\      /  F ield         | OpenFOAM: The Open Source CFD Toolbox           |
|  \\    /   O peration     | Version:  v2006                                 |
|   \\  /    A nd           | Website:  www.openfoam.com                      |
|    \\/     M anipulation  |                                                 |
\*---------------------------------------------------------------------------*/
FoamFile
{
    version     2.0;
    format      ascii;
    class       surfaceScalarField;
    location    "2.7";
    object      alphaPhi0.water;
}
// * * * * * * * * * * * * * * * * * * * * * * * * * * * * * * * * * * * * * //

dimensions      [0 3 -1 0 0 0 0];
oriented        oriented;


internalField   nonuniform List<scalar> 
65390
(
0.000105785
-3.9998e-07
0.000106096
-3.2377e-07
0.000106363
-2.72171e-07
0.000106565
-2.06159e-07
0.000106751
-1.89052e-07
0.000106957
-2.12415e-07
0.000107161
-2.19496e-07
0.000107327
-2.14183e-07
0.000107491
-1.66678e-07
0.000107621
-1.27301e-07
0.000107752
-1.0692e-07
0.000107823
-4.3353e-08
0.00010782
7.13809e-09
0.000107782
3.38e-08
0.000107694
8.03289e-08
0.000107515
1.68143e-07
0.000107299
2.1437e-07
0.000106997
3.03465e-07
0.000106672
3.32952e-07
0.000106424
2.57287e-07
0.000106218
2.04857e-07
0.00010584
3.70495e-07
0.000105099
6.67048e-07
0.000104446
7.03768e-07
0.000103901
5.68601e-07
0.000103504
3.96655e-07
0.000102981
5.2209e-07
0.000102086
8.78739e-07
0.00010126
8.26682e-07
0.000100666
5.96651e-07
9.98861e-05
7.56974e-07
9.89597e-05
9.28883e-07
9.79819e-05
9.97562e-07
9.71664e-05
8.13668e-07
9.64724e-05
6.93547e-07
9.54975e-05
9.52566e-07
9.43058e-05
1.19122e-06
9.3261e-05
1.05715e-06
9.23314e-05
9.33729e-07
9.1498e-05
8.32987e-07
9.05075e-05
9.9064e-07
8.9142e-05
1.34551e-06
8.78253e-05
1.33229e-06
8.67961e-05
1.03505e-06
8.58919e-05
9.08985e-07
8.47948e-05
1.09155e-06
8.35247e-05
1.24951e-06
8.23934e-05
1.15448e-06
8.12941e-05
1.10237e-06
8.00977e-05
1.19645e-06
7.88127e-05
1.28503e-06
7.76353e-05
1.17895e-06
7.65461e-05
1.08907e-06
7.53615e-05
1.18468e-06
7.40568e-05
1.30462e-06
7.28578e-05
1.19893e-06
7.1691e-05
1.16654e-06
7.04131e-05
1.27152e-06
6.89381e-05
1.46915e-06
6.73488e-05
1.59118e-06
6.59013e-05
1.44826e-06
6.46585e-05
1.24186e-06
6.33062e-05
1.35196e-06
6.17283e-05
1.58133e-06
6.00646e-05
1.66592e-06
5.85729e-05
1.49161e-06
5.72444e-05
1.32841e-06
5.57761e-05
1.46724e-06
5.41716e-05
1.59899e-06
5.25772e-05
1.59615e-06
5.0859e-05
1.71984e-06
4.8913e-05
1.94621e-06
4.68228e-05
2.0914e-06
4.46827e-05
2.14035e-06
4.19894e-05
2.69321e-06
3.84952e-05
3.49404e-06
3.38623e-05
4.6273e-06
2.71098e-05
6.75029e-06
2.11538e-05
5.95572e-06
1.84732e-05
2.68104e-06
1.71579e-05
1.31815e-06
1.70045e-05
1.5357e-07
1.64367e-05
5.66289e-07
1.62731e-05
1.63579e-07
1.64009e-05
-1.27806e-07
1.59643e-05
4.37875e-07
1.55165e-05
4.47438e-07
1.5054e-05
4.61904e-07
1.46919e-05
3.59976e-07
1.42648e-05
4.2694e-07
1.39449e-05
3.20701e-07
1.3693e-05
2.51744e-07
1.3382e-05
3.1005e-07
1.30333e-05
3.47449e-07
1.26918e-05
3.42266e-07
1.23576e-05
3.33909e-07
1.20723e-05
2.85313e-07
1.18004e-05
2.71063e-07
1.14048e-05
3.94786e-07
1.09919e-05
4.12672e-07
1.06559e-05
3.35615e-07
1.03719e-05
2.83462e-07
1.01157e-05
2.5552e-07
9.84436e-06
2.71239e-07
9.59618e-06
2.47187e-07
9.33714e-06
2.58116e-07
9.06774e-06
2.69484e-07
8.82425e-06
2.43092e-07
8.572e-06
2.51852e-07
8.30912e-06
2.62517e-07
8.05102e-06
2.57672e-07
7.79336e-06
2.57514e-07
7.5515e-06
2.41614e-07
7.32437e-06
2.26865e-07
7.1219e-06
2.02188e-07
6.93821e-06
1.83409e-07
6.72438e-06
2.13449e-07
6.49499e-06
2.29364e-07
6.29747e-06
1.97189e-07
6.14282e-06
1.54433e-07
5.98971e-06
1.52911e-07
5.82068e-06
1.68707e-07
5.6507e-06
1.69823e-07
5.48811e-06
1.62496e-07
5.33027e-06
1.57842e-07
5.18281e-06
1.47313e-07
5.04629e-06
1.36463e-07
4.90023e-06
1.45925e-07
4.74763e-06
1.52762e-07
4.60961e-06
1.37971e-07
4.49023e-06
1.1938e-07
4.36152e-06
1.28718e-07
4.22918e-06
1.32309e-07
4.10121e-06
1.2804e-07
3.98856e-06
1.12609e-07
3.88298e-06
1.05566e-07
3.76515e-06
1.17789e-07
3.64949e-06
1.15634e-07
3.54256e-06
1.06889e-07
3.44782e-06
9.46855e-08
3.33983e-06
1.07824e-07
3.23395e-06
1.05836e-07
3.13539e-06
9.84926e-08
3.03933e-06
9.5943e-08
2.93833e-06
1.00883e-07
2.84077e-06
9.74572e-08
2.7532e-06
8.74813e-08
2.66983e-06
8.32942e-08
2.57478e-06
9.48493e-08
2.48217e-06
9.24931e-08
2.39036e-06
9.16949e-08
2.29783e-06
9.24902e-08
2.22243e-06
7.53285e-08
2.1517e-06
7.04701e-08
2.06572e-06
8.58446e-08
1.97467e-06
9.09636e-08
1.89114e-06
8.34604e-08
1.81974e-06
7.13114e-08
1.74765e-06
7.18791e-08
1.66317e-06
8.43724e-08
1.57695e-06
8.61415e-08
1.50147e-06
7.54121e-08
1.43165e-06
6.96408e-08
1.3511e-06
8.04685e-08
1.26291e-06
8.80972e-08
1.18266e-06
8.01949e-08
1.10923e-06
7.32829e-08
1.02976e-06
7.94018e-08
9.42112e-07
8.75658e-08
8.52814e-07
8.92172e-08
7.72778e-07
7.99601e-08
6.98061e-07
7.46253e-08
6.13023e-07
8.49779e-08
5.21545e-07
9.14056e-08
4.34263e-07
8.72107e-08
3.5195e-07
8.22423e-08
2.70625e-07
8.12584e-08
1.84576e-07
8.5984e-08
9.72877e-08
8.72236e-08
1.01172e-08
8.71017e-08
-7.6595e-08
8.66479e-08
-1.59116e-07
8.24521e-08
-2.42938e-07
8.37567e-08
-3.30494e-07
8.74886e-08
-4.16937e-07
8.63808e-08
-4.99125e-07
8.21209e-08
-5.78248e-07
7.90401e-08
-6.62943e-07
8.46409e-08
-7.49236e-07
8.62548e-08
-8.326e-07
8.32929e-08
-9.12278e-07
7.95868e-08
-9.94348e-07
8.19945e-08
-1.07723e-06
8.28179e-08
-1.15839e-06
8.10985e-08
-1.23819e-06
7.9731e-08
-1.31622e-06
7.7972e-08
-1.39555e-06
7.92451e-08
-1.47436e-06
7.87413e-08
-1.55006e-06
7.56324e-08
-1.62248e-06
7.23354e-08
-1.69719e-06
7.46543e-08
-1.77217e-06
7.49051e-08
-1.84646e-06
7.42226e-08
-1.9175e-06
7.09836e-08
-1.98657e-06
6.896e-08
-2.05202e-06
6.53785e-08
-2.11817e-06
6.60794e-08
-2.18667e-06
6.84281e-08
-2.25176e-06
6.50196e-08
-2.31303e-06
6.1204e-08
-2.37197e-06
5.88878e-08
-2.43341e-06
6.13652e-08
-2.49148e-06
5.80138e-08
-2.54756e-06
5.60159e-08
-2.60093e-06
5.32881e-08
-2.65076e-06
4.97542e-08
-2.70267e-06
5.1909e-08
-2.752e-06
4.92705e-08
-2.79938e-06
4.73573e-08
-2.84601e-06
4.6524e-08
-2.88727e-06
4.12131e-08
-2.92545e-06
3.81403e-08
-2.9648e-06
3.92874e-08
-3.00305e-06
3.82171e-08
-3.03883e-06
3.57473e-08
-3.07201e-06
3.31428e-08
-3.1036e-06
3.1543e-08
-3.13262e-06
2.89586e-08
-3.15781e-06
2.51482e-08
-3.18352e-06
2.57141e-08
-3.20771e-06
2.41623e-08
-3.22987e-06
2.21413e-08
-3.2497e-06
1.98138e-08
-3.26716e-06
1.73704e-08
-3.28147e-06
1.42305e-08
-3.29615e-06
1.4789e-08
-3.3102e-06
1.39503e-08
-3.32197e-06
1.17486e-08
-3.33078e-06
8.78966e-09
-3.33911e-06
8.31665e-09
-3.34579e-06
6.66101e-09
-3.35096e-06
5.15158e-09
-3.35464e-06
3.66334e-09
-3.35707e-06
2.41006e-09
-3.358e-06
9.18022e-10
-3.3574e-06
-6.19422e-10
-3.35749e-06
9.83996e-11
-3.35574e-06
-1.78643e-09
-3.35159e-06
-4.16091e-09
-3.34712e-06
-4.48059e-09
-3.34194e-06
-5.18536e-09
-3.3358e-06
-6.15182e-09
-3.329e-06
-6.8084e-09
-3.32139e-06
-7.60984e-09
-3.31336e-06
-7.98826e-09
-3.30481e-06
-8.61258e-09
-3.29452e-06
-1.02993e-08
-3.28321e-06
-1.13125e-08
-3.27287e-06
-1.03428e-08
-3.26169e-06
-1.11814e-08
-3.24954e-06
-1.21141e-08
-3.23616e-06
-1.34184e-08
-3.22342e-06
-1.27542e-08
-3.21044e-06
-1.29933e-08
-3.19698e-06
-1.34659e-08
-3.18319e-06
-1.37953e-08
-3.16903e-06
-1.41556e-08
-3.1541e-06
-1.49449e-08
-3.13848e-06
-1.56245e-08
-3.12284e-06
-1.56504e-08
-3.10741e-06
-1.54294e-08
-3.09189e-06
-1.55237e-08
-3.07623e-06
-1.56536e-08
-3.06029e-06
-1.5957e-08
-3.04423e-06
-1.60624e-08
-3.02783e-06
-1.64029e-08
-3.01111e-06
-1.67225e-08
-2.99439e-06
-1.67279e-08
-2.97759e-06
-1.68027e-08
-2.96078e-06
-1.68219e-08
-2.94394e-06
-1.68245e-08
-2.92713e-06
-1.6804e-08
-2.90993e-06
-1.7216e-08
-2.89255e-06
-1.73956e-08
-2.87496e-06
-1.75901e-08
-2.85727e-06
-1.76978e-08
-2.83971e-06
-1.75588e-08
-2.82214e-06
-1.75754e-08
-2.80446e-06
-1.7686e-08
-2.78658e-06
-1.78792e-08
-2.76859e-06
-1.80104e-08
-2.75041e-06
-1.81791e-08
-2.73233e-06
-1.80842e-08
-2.71432e-06
-1.80119e-08
-2.69631e-06
-1.80095e-08
-2.67829e-06
-1.80213e-08
-2.6602e-06
-1.8085e-08
-2.64217e-06
-1.80311e-08
-2.62418e-06
-1.79969e-08
-2.6062e-06
-1.79764e-08
-2.58825e-06
-1.79531e-08
-2.5703e-06
-1.79472e-08
-2.55238e-06
-1.79205e-08
-2.5345e-06
-1.78759e-08
-2.51663e-06
-1.78675e-08
-2.49869e-06
-1.79375e-08
-2.48074e-06
-1.79522e-08
-2.46283e-06
-1.79058e-08
-2.44494e-06
-1.78941e-08
-2.427e-06
-1.7938e-08
-2.40905e-06
-1.7948e-08
-2.39111e-06
-1.79365e-08
-2.37317e-06
-1.79371e-08
-2.35523e-06
-1.79355e-08
-2.33729e-06
-1.79329e-08
-2.31935e-06
-1.7939e-08
-2.3014e-06
-1.79421e-08
-2.28346e-06
-1.79357e-08
-2.26552e-06
-1.79378e-08
-2.24757e-06
-1.79513e-08
-2.22959e-06
-1.7972e-08
-2.21159e-06
-1.79914e-08
-2.19359e-06
-1.79992e-08
-2.17557e-06
-1.80164e-08
-2.15751e-06
-1.80451e-08
-2.13943e-06
-1.80774e-08
-2.12132e-06
-1.81078e-08
-2.1032e-06
-1.8113e-08
-2.08505e-06
-1.81354e-08
-2.06687e-06
-1.81767e-08
-2.04863e-06
-1.82379e-08
-2.03031e-06
-1.83132e-08
-2.01192e-06
-1.83832e-08
-1.99344e-06
-1.84662e-08
-1.97486e-06
-1.85735e-08
-1.95618e-06
-1.86794e-08
-1.9374e-06
-1.87758e-08
-1.91852e-06
-1.88655e-08
-1.89957e-06
-1.89448e-08
-1.88054e-06
-1.90227e-08
-1.86144e-06
-1.90977e-08
-1.84227e-06
-1.91639e-08
-1.82303e-06
-1.9231e-08
-1.80372e-06
-1.93063e-08
-1.78433e-06
-1.93857e-08
-1.76486e-06
-1.94591e-08
-1.74531e-06
-1.95381e-08
-1.72568e-06
-1.96226e-08
-1.70597e-06
-1.97055e-08
-1.68618e-06
-1.97849e-08
-1.66632e-06
-1.98578e-08
-1.6464e-06
-1.9915e-08
-1.62644e-06
-1.99473e-08
-1.60645e-06
-1.99786e-08
-1.58644e-06
-2.00015e-08
-1.56642e-06
-2.00183e-08
-1.54637e-06
-2.00355e-08
-1.52631e-06
-2.00536e-08
-1.50623e-06
-2.00714e-08
-1.48613e-06
-2.00916e-08
-1.46603e-06
-2.00992e-08
-1.44592e-06
-2.01055e-08
-1.42582e-06
-2.00925e-08
-1.40575e-06
-2.00592e-08
-1.38573e-06
-2.0012e-08
-1.36577e-06
-1.99567e-08
-1.34586e-06
-1.98998e-08
-1.32602e-06
-1.98431e-08
-1.30622e-06
-1.97878e-08
-1.28647e-06
-1.9743e-08
-1.26677e-06
-1.96969e-08
-1.24712e-06
-1.96431e-08
-1.22754e-06
-1.95774e-08
-1.20804e-06
-1.94971e-08
-1.18863e-06
-1.94047e-08
-1.16932e-06
-1.93037e-08
-1.15012e-06
-1.91946e-08
-1.13104e-06
-1.90769e-08
-1.11208e-06
-1.8955e-08
-1.09323e-06
-1.88369e-08
-1.0745e-06
-1.87246e-08
-1.05589e-06
-1.86086e-08
-1.03741e-06
-1.84781e-08
-1.01908e-06
-1.83284e-08
-1.00091e-06
-1.81607e-08
-9.82926e-07
-1.79852e-08
-9.65115e-07
-1.78073e-08
-9.47475e-07
-1.76367e-08
-9.29999e-07
-1.74723e-08
-9.12682e-07
-1.73125e-08
-8.95521e-07
-1.71564e-08
-8.78521e-07
-1.69957e-08
-8.61694e-07
-1.68222e-08
-8.45058e-07
-1.66309e-08
-8.28623e-07
-1.64306e-08
-8.1239e-07
-1.62276e-08
-7.96357e-07
-1.60281e-08
-7.80511e-07
-1.58405e-08
-7.64835e-07
-1.56711e-08
-7.49321e-07
-1.55086e-08
-7.33976e-07
-1.53397e-08
-7.18816e-07
-1.51549e-08
-7.03854e-07
-1.49571e-08
-6.89095e-07
-1.47534e-08
-6.74543e-07
-1.45466e-08
-6.60195e-07
-1.4343e-08
-6.46047e-07
-1.41437e-08
-6.32084e-07
-1.39588e-08
-6.18317e-07
-1.37639e-08
-6.04762e-07
-1.3551e-08
-5.91419e-07
-1.33396e-08
-5.78285e-07
-1.31314e-08
-5.65334e-07
-1.29481e-08
-5.52581e-07
-1.27503e-08
-5.39994e-07
-1.25845e-08
-5.27533e-07
-1.24588e-08
-5.15287e-07
-1.22444e-08
-5.03123e-07
-1.21628e-08
-4.91134e-07
-1.19871e-08
-4.79531e-07
-1.16009e-08
-4.68016e-07
-1.15137e-08
-4.56547e-07
-1.14671e-08
-4.45549e-07
-1.09958e-08
-4.33703e-07
-1.18436e-08
-4.22066e-07
-1.16337e-08
-4.12298e-07
-9.7653e-09
-4.01667e-07
-1.06288e-08
-3.92125e-07
-9.53988e-09
-3.84508e-07
-7.61443e-09
-3.79926e-07
-4.58119e-09
-3.75568e-07
-4.35664e-09
-3.68527e-07
-7.03981e-09
-3.61333e-07
-7.19431e-09
-3.53372e-07
-7.96215e-09
-3.45317e-07
-8.05635e-09
-3.37131e-07
-8.18742e-09
-3.29006e-07
-8.12675e-09
-3.20873e-07
-8.13633e-09
-3.12786e-07
-8.08956e-09
-3.04632e-07
-8.15742e-09
-2.96667e-07
-7.96782e-09
-2.88611e-07
-8.06002e-09
-2.80635e-07
-7.9803e-09
-2.73133e-07
-7.50586e-09
-2.65437e-07
-7.70127e-09
-2.58063e-07
-7.37887e-09
-2.51181e-07
-6.88884e-09
-2.44962e-07
-6.22637e-09
-2.38847e-07
-6.12333e-09
-2.32149e-07
-6.70773e-09
-2.25599e-07
-6.56203e-09
-2.19117e-07
-6.49437e-09
-2.12734e-07
-6.39664e-09
-2.06648e-07
-6.10188e-09
-2.0067e-07
-5.9953e-09
-1.94951e-07
-5.73846e-09
-1.88692e-07
-6.28103e-09
-1.82767e-07
-5.95025e-09
-1.77501e-07
-5.29452e-09
-1.71903e-07
-5.62938e-09
-1.66436e-07
-5.50156e-09
-1.62416e-07
-4.05867e-09
-1.53339e-07
-9.11688e-09
-1.45406e-07
-7.96936e-09
-1.42794e-07
-2.63106e-09
-1.35459e-07
-7.30414e-09
-1.4085e-07
5.52902e-09
-1.49613e-07
9.16552e-09
-1.85977e-07
3.69894e-08
-2.14776e-07
2.99447e-08
-2.36088e-07
2.3334e-08
-2.48912e-07
1.46775e-08
-2.57555e-07
1.03214e-08
-2.6276e-07
6.72508e-09
-2.65833e-07
4.44992e-09
-2.67177e-07
2.59241e-09
-2.67541e-07
1.49743e-09
-2.67263e-07
7.53364e-10
-2.66522e-07
1.95856e-10
-2.65453e-07
-2.14903e-10
-2.64067e-07
-6.08713e-10
-2.62379e-07
-9.8066e-10
-2.60454e-07
-1.28034e-09
-2.58371e-07
-1.49661e-09
-2.56175e-07
-1.66406e-09
-2.53861e-07
-1.83e-09
-2.51393e-07
-2.02847e-09
-2.48764e-07
-2.23109e-09
-2.45994e-07
-2.40904e-09
-2.43115e-07
-2.55182e-09
-2.40172e-07
-2.64719e-09
-2.37205e-07
-2.6993e-09
-2.34238e-07
-2.72391e-09
-2.31279e-07
-2.73912e-09
-2.28315e-07
-2.76367e-09
-2.25307e-07
-2.82582e-09
-2.22271e-07
-2.87103e-09
-2.19181e-07
-2.93833e-09
-2.16005e-07
-3.03761e-09
-2.12717e-07
-3.16042e-09
-2.09286e-07
-3.31426e-09
-2.05687e-07
-3.49055e-09
-2.01918e-07
-3.66956e-09
-1.97996e-07
-3.82943e-09
-1.93967e-07
-3.94171e-09
-1.89864e-07
-4.02218e-09
-1.85728e-07
-4.06082e-09
-1.81598e-07
-4.05845e-09
-1.77503e-07
-4.02845e-09
-1.73465e-07
-3.97484e-09
-1.69513e-07
-3.89311e-09
-1.65679e-07
-3.77794e-09
-1.6199e-07
-3.63541e-09
-1.58451e-07
-3.48883e-09
-1.55035e-07
-3.36819e-09
-1.51691e-07
-3.29821e-09
-1.4836e-07
-3.28739e-09
-1.44989e-07
-3.32942e-09
-1.41537e-07
-3.41294e-09
-1.37973e-07
-3.52609e-09
-1.34293e-07
-3.64293e-09
-1.30553e-07
-3.7053e-09
-1.26879e-07
-3.64085e-09
-1.23411e-07
-3.4363e-09
-1.20184e-07
-3.1966e-09
-1.17074e-07
-3.08054e-09
-1.13847e-07
-3.19879e-09
-1.10375e-07
-3.44477e-09
-1.06858e-07
-3.49059e-09
-1.03644e-07
-3.18901e-09
-1.00953e-07
-2.66713e-09
-9.85943e-08
-2.33582e-09
-9.6096e-08
-2.47619e-09
-9.31833e-08
-2.89141e-09
-9.02227e-08
-2.94018e-09
-8.76453e-08
-2.55758e-09
-8.54463e-08
-2.17992e-09
-8.30163e-08
-2.41166e-09
-7.99424e-08
-3.05611e-09
-7.67407e-08
-3.18452e-09
-7.38484e-08
-2.87556e-09
-7.09906e-08
-2.84155e-09
-6.75999e-08
-3.3749e-09
-6.39788e-08
-3.60562e-09
-6.09473e-08
-3.01616e-09
-5.83777e-08
-2.55438e-09
-5.56494e-08
-2.71339e-09
-5.31768e-08
-2.45822e-09
-5.05251e-08
-2.63868e-09
-3.20904e-10
0.000105909
-8.107e-07
0.000106251
-6.54836e-07
0.000106538
-5.49983e-07
0.000106728
-3.90352e-07
0.000106887
-3.42452e-07
0.000107046
-3.65561e-07
0.000107225
-3.91883e-07
0.00010742
-4.03224e-07
0.000107588
-3.29986e-07
0.000107722
-2.59431e-07
0.000107817
-2.01272e-07
0.000107848
-7.65709e-08
0.000107826
2.59667e-08
0.000107764
9.24013e-08
0.00010764
2.00373e-07
0.000107468
3.35778e-07
0.000107262
4.17014e-07
0.000106994
5.62677e-07
0.000106684
6.41905e-07
0.000106361
5.83876e-07
0.000106018
5.47928e-07
0.000105575
8.00987e-07
0.000105037
1.17567e-06
0.000104478
1.25331e-06
0.000103998
1.06943e-06
0.000103471
9.36955e-07
0.000102839
1.14822e-06
0.000102059
1.60684e-06
0.000101347
1.56249e-06
0.000100702
1.25056e-06
9.99905e-05
1.46071e-06
9.90691e-05
1.82071e-06
9.80732e-05
2.02562e-06
9.70828e-05
1.82011e-06
9.62649e-05
1.5114e-06
9.54311e-05
1.73845e-06
9.45184e-05
2.10446e-06
9.34942e-05
2.09749e-06
9.24247e-05
2.02533e-06
9.14999e-05
1.75822e-06
9.05121e-05
1.92528e-06
8.94147e-05
2.4411e-06
8.82038e-05
2.54501e-06
8.71217e-05
2.15845e-06
8.61493e-05
1.90733e-06
8.50961e-05
2.12472e-06
8.38982e-05
2.40482e-06
8.26904e-05
2.40095e-06
8.14654e-05
2.33952e-06
8.02263e-05
2.42745e-06
7.90196e-05
2.49301e-06
7.77959e-05
2.40139e-06
7.65695e-05
2.32276e-06
7.52867e-05
2.46142e-06
7.39724e-05
2.6115e-06
7.27252e-05
2.46121e-06
7.15699e-05
2.31594e-06
7.03241e-05
2.48341e-06
6.88696e-05
2.92359e-06
6.73684e-05
3.09241e-06
6.60338e-05
2.80349e-06
6.47644e-05
2.51994e-06
6.33558e-05
2.76164e-06
6.17118e-05
3.20416e-06
6.01498e-05
3.22792e-06
5.87169e-05
2.9402e-06
5.72739e-05
2.77625e-06
5.58293e-05
2.91115e-06
5.43088e-05
3.10328e-06
5.26912e-05
3.21462e-06
5.09823e-05
3.42847e-06
4.93224e-05
3.60625e-06
4.76215e-05
3.79338e-06
4.58889e-05
3.88558e-06
4.41843e-05
4.38994e-06
4.26904e-05
4.98487e-06
4.16989e-05
5.62145e-06
4.1614e-05
6.83889e-06
3.97085e-05
7.85957e-06
3.46001e-05
7.78785e-06
2.79662e-05
7.94668e-06
2.17419e-05
6.37713e-06
1.87853e-05
3.52362e-06
1.69268e-05
2.02333e-06
1.62558e-05
5.42594e-07
1.55615e-05
1.13175e-06
1.50219e-05
9.85142e-07
1.48111e-05
6.68939e-07
1.48783e-05
2.92686e-07
1.44874e-05
8.17964e-07
1.40915e-05
7.17636e-07
1.37338e-05
6.08923e-07
1.33632e-05
6.80314e-07
1.3034e-05
6.74445e-07
1.27341e-05
6.41164e-07
1.23972e-05
6.71137e-07
1.20658e-05
6.1684e-07
1.17403e-05
5.96137e-07
1.14657e-05
6.67212e-07
1.12378e-05
6.39624e-07
1.09815e-05
5.91115e-07
1.06092e-05
6.54767e-07
1.02014e-05
6.63097e-07
9.88104e-06
5.91396e-07
9.61107e-06
5.16054e-07
9.36404e-06
5.03652e-07
9.08849e-06
5.4494e-07
8.81451e-06
5.16822e-07
8.54217e-06
5.21716e-07
8.27913e-06
5.25545e-07
8.03188e-06
5.04937e-07
7.80008e-06
4.89305e-07
7.57474e-06
4.6726e-07
7.34749e-06
4.53506e-07
7.12244e-06
4.2696e-07
6.91146e-06
3.9335e-07
6.72523e-06
3.99433e-07
6.55494e-06
3.99287e-07
6.38123e-06
3.71087e-07
6.1918e-06
3.43634e-07
5.99672e-06
3.4662e-07
5.81562e-06
3.49898e-07
5.64878e-06
3.3665e-07
5.50112e-06
3.10171e-07
5.34769e-06
3.11258e-07
5.18488e-06
3.10236e-07
5.0302e-06
2.91089e-07
4.88646e-06
2.89401e-07
4.74778e-06
2.9139e-07
4.61295e-06
2.73184e-07
4.48259e-06
2.4972e-07
4.35149e-06
2.59651e-07
4.22261e-06
2.61216e-07
4.10003e-06
2.50597e-07
3.98499e-06
2.2804e-07
3.87109e-06
2.19462e-07
3.75284e-06
2.3578e-07
3.6436e-06
2.24887e-07
3.53986e-06
2.10615e-07
3.43675e-06
1.97791e-07
3.32756e-06
2.16646e-07
3.22853e-06
2.04908e-07
3.13438e-06
1.92591e-07
3.03418e-06
1.95771e-07
2.9339e-06
2.01026e-07
2.84332e-06
1.87866e-07
2.75713e-06
1.73576e-07
2.66561e-06
1.74759e-07
2.56826e-06
1.91541e-07
2.48192e-06
1.78816e-07
2.3976e-06
1.76004e-07
2.30995e-06
1.80077e-07
2.22904e-06
1.55989e-07
2.14984e-06
1.49529e-07
2.06504e-06
1.70147e-07
1.97971e-06
1.76306e-07
1.90119e-06
1.6181e-07
1.82668e-06
1.45628e-07
1.74863e-06
1.49767e-07
1.66595e-06
1.66768e-07
1.58253e-06
1.69358e-07
1.50556e-06
1.52323e-07
1.43245e-06
1.42536e-07
1.35338e-06
1.59232e-07
1.26765e-06
1.7375e-07
1.18502e-06
1.62668e-07
1.10771e-06
1.50473e-07
1.03018e-06
1.56707e-07
9.45762e-07
1.71817e-07
8.57463e-07
1.77388e-07
7.76722e-07
1.60553e-07
6.99322e-07
1.51898e-07
6.13609e-07
1.70464e-07
5.239e-07
1.81e-07
4.41188e-07
1.69786e-07
3.58222e-07
1.6506e-07
2.71527e-07
1.67821e-07
1.86347e-07
1.71002e-07
1.02751e-07
1.70678e-07
1.87605e-08
1.70951e-07
-6.68862e-08
1.72146e-07
-1.52819e-07
1.68248e-07
-2.39665e-07
1.70459e-07
-3.26798e-07
1.74476e-07
-4.1165e-07
1.71087e-07
-4.94243e-07
1.64576e-07
-5.75732e-07
1.60385e-07
-6.58963e-07
1.67748e-07
-7.43072e-07
1.70218e-07
-8.27029e-07
1.67081e-07
-9.10671e-07
1.63117e-07
-9.9404e-07
1.65196e-07
-1.07634e-06
1.65013e-07
-1.15625e-06
1.60892e-07
-1.23438e-06
1.5773e-07
-1.31353e-06
1.56949e-07
-1.39474e-06
1.60343e-07
-1.47386e-06
1.57725e-07
-1.54939e-06
1.50994e-07
-1.6233e-06
1.46151e-07
-1.69757e-06
1.48721e-07
-1.77216e-06
1.4947e-07
-1.84691e-06
1.48954e-07
-1.91682e-06
1.40683e-07
-1.98504e-06
1.36953e-07
-2.05291e-06
1.33147e-07
-2.1218e-06
1.3487e-07
-2.18968e-06
1.36242e-07
-2.25287e-06
1.28123e-07
-2.31441e-06
1.22571e-07
-2.37604e-06
1.2046e-07
-2.43758e-06
1.22791e-07
-2.49439e-06
1.14815e-07
-2.54966e-06
1.11285e-07
-2.60386e-06
1.07193e-07
-2.65534e-06
1.01188e-07
-2.70625e-06
1.02684e-07
-2.75487e-06
9.78861e-08
-2.80227e-06
9.47563e-08
-2.84821e-06
9.24352e-08
-2.8902e-06
8.29629e-08
-2.93092e-06
7.88245e-08
-2.96944e-06
7.77822e-08
-3.00669e-06
7.54046e-08
-3.0428e-06
7.17628e-08
-3.07575e-06
6.60771e-08
-3.10685e-06
6.26226e-08
-3.13589e-06
5.78577e-08
-3.16269e-06
5.19447e-08
-3.18783e-06
5.08241e-08
-3.21175e-06
4.80738e-08
-3.23387e-06
4.42692e-08
-3.25304e-06
3.89831e-08
-3.27046e-06
3.46999e-08
-3.28583e-06
2.95241e-08
-3.29953e-06
2.84915e-08
-3.31188e-06
2.6299e-08
-3.32432e-06
2.41246e-08
-3.33518e-06
1.96089e-08
-3.34363e-06
1.67887e-08
-3.34957e-06
1.25974e-08
-3.35425e-06
9.83315e-09
-3.35801e-06
7.38587e-09
-3.36025e-06
4.64919e-09
-3.36064e-06
1.30298e-09
-3.3603e-06
-1.02779e-09
-3.36015e-06
8.65105e-12
-3.35853e-06
-3.43917e-09
-3.35486e-06
-7.88834e-09
-3.34997e-06
-9.36985e-09
-3.34458e-06
-1.05719e-08
-3.3381e-06
-1.26268e-08
-3.33105e-06
-1.3861e-08
-3.32347e-06
-1.52146e-08
-3.31473e-06
-1.67318e-08
-3.30513e-06
-1.8207e-08
-3.29516e-06
-2.0338e-08
-3.28525e-06
-2.12276e-08
-3.27507e-06
-2.05146e-08
-3.26327e-06
-2.29643e-08
-3.25064e-06
-2.47479e-08
-3.2377e-06
-2.63906e-08
-3.22488e-06
-2.55764e-08
-3.21173e-06
-2.61495e-08
-3.19819e-06
-2.70079e-08
-3.18418e-06
-2.78034e-08
-3.16985e-06
-2.84834e-08
-3.15492e-06
-2.98933e-08
-3.13977e-06
-3.08815e-08
-3.12436e-06
-3.10064e-08
-3.10888e-06
-3.09077e-08
-3.09323e-06
-3.11576e-08
-3.0774e-06
-3.14832e-08
-3.06136e-06
-3.1993e-08
-3.04553e-06
-3.19234e-08
-3.02941e-06
-3.25743e-08
-3.0127e-06
-3.34016e-08
-2.99582e-06
-3.36108e-08
-2.97886e-06
-3.376e-08
-2.96177e-06
-3.39161e-08
-2.94465e-06
-3.39395e-08
-2.92783e-06
-3.36111e-08
-2.91059e-06
-3.44457e-08
-2.89312e-06
-3.48809e-08
-2.87563e-06
-3.51234e-08
-2.85809e-06
-3.52801e-08
-2.84045e-06
-3.52013e-08
-2.82276e-06
-3.52626e-08
-2.80502e-06
-3.54335e-08
-2.78714e-06
-3.57208e-08
-2.76925e-06
-3.59321e-08
-2.75131e-06
-3.61554e-08
-2.7333e-06
-3.60981e-08
-2.71527e-06
-3.6036e-08
-2.69722e-06
-3.60569e-08
-2.67917e-06
-3.60806e-08
-2.66112e-06
-3.61291e-08
-2.64314e-06
-3.60236e-08
-2.6251e-06
-3.60279e-08
-2.60709e-06
-3.59931e-08
-2.58909e-06
-3.59521e-08
-2.57106e-06
-3.59536e-08
-2.55309e-06
-3.59069e-08
-2.53512e-06
-3.58432e-08
-2.51717e-06
-3.58216e-08
-2.49918e-06
-3.5895e-08
-2.48124e-06
-3.59118e-08
-2.46329e-06
-3.58548e-08
-2.44536e-06
-3.58232e-08
-2.42742e-06
-3.58606e-08
-2.40949e-06
-3.58708e-08
-2.39157e-06
-3.58576e-08
-2.37364e-06
-3.58555e-08
-2.35573e-06
-3.58475e-08
-2.33782e-06
-3.58386e-08
-2.31991e-06
-3.58455e-08
-2.30199e-06
-3.58527e-08
-2.28407e-06
-3.58494e-08
-2.26614e-06
-3.58553e-08
-2.2482e-06
-3.58792e-08
-2.23025e-06
-3.5916e-08
-2.21229e-06
-3.59499e-08
-2.19431e-06
-3.59661e-08
-2.17632e-06
-3.59947e-08
-2.15831e-06
-3.60457e-08
-2.14027e-06
-3.61089e-08
-2.12221e-06
-3.61726e-08
-2.1041e-06
-3.6216e-08
-2.08594e-06
-3.62812e-08
-2.06773e-06
-3.63728e-08
-2.04945e-06
-3.6498e-08
-2.03111e-06
-3.66468e-08
-2.01269e-06
-3.67899e-08
-1.9942e-06
-3.69469e-08
-1.97563e-06
-3.71369e-08
-1.95697e-06
-3.73322e-08
-1.93821e-06
-3.75175e-08
-1.91938e-06
-3.76899e-08
-1.90047e-06
-3.78474e-08
-1.88148e-06
-3.80067e-08
-1.8624e-06
-3.81665e-08
-1.84324e-06
-3.8319e-08
-1.82399e-06
-3.84685e-08
-1.80465e-06
-3.86249e-08
-1.78524e-06
-3.87867e-08
-1.76575e-06
-3.89405e-08
-1.74618e-06
-3.9097e-08
-1.72654e-06
-3.9256e-08
-1.70682e-06
-3.94125e-08
-1.68703e-06
-3.95592e-08
-1.66719e-06
-3.96912e-08
-1.6473e-06
-3.97998e-08
-1.62735e-06
-3.98865e-08
-1.60735e-06
-3.99649e-08
-1.58732e-06
-4.00272e-08
-1.56725e-06
-4.00784e-08
-1.54715e-06
-4.0125e-08
-1.52702e-06
-4.01653e-08
-1.50689e-06
-4.01916e-08
-1.48677e-06
-4.0206e-08
-1.46666e-06
-4.02028e-08
-1.44654e-06
-4.02079e-08
-1.42644e-06
-4.01839e-08
-1.40636e-06
-4.01273e-08
-1.38632e-06
-4.00476e-08
-1.36631e-06
-3.99513e-08
-1.34635e-06
-3.98489e-08
-1.32644e-06
-3.97477e-08
-1.30658e-06
-3.96411e-08
-1.28677e-06
-3.95409e-08
-1.26702e-06
-3.94348e-08
-1.24734e-06
-3.93144e-08
-1.22774e-06
-3.91719e-08
-1.20822e-06
-3.90038e-08
-1.1888e-06
-3.88151e-08
-1.16949e-06
-3.86145e-08
-1.15027e-06
-3.84039e-08
-1.13116e-06
-3.81792e-08
-1.11216e-06
-3.79421e-08
-1.09329e-06
-3.77e-08
-1.07455e-06
-3.74581e-08
-1.05595e-06
-3.7204e-08
-1.0375e-06
-3.69262e-08
-1.0192e-06
-3.66209e-08
-1.00106e-06
-3.62918e-08
-9.83077e-07
-3.59619e-08
-9.65245e-07
-3.5631e-08
-9.47566e-07
-3.53082e-08
-9.30042e-07
-3.49891e-08
-9.12683e-07
-3.4665e-08
-8.95496e-07
-3.43342e-08
-8.78495e-07
-3.39894e-08
-8.61687e-07
-3.36252e-08
-8.45064e-07
-3.32448e-08
-8.28626e-07
-3.28616e-08
-8.12367e-07
-3.24788e-08
-7.96287e-07
-3.21e-08
-7.80386e-07
-3.17328e-08
-7.64668e-07
-3.13791e-08
-7.49139e-07
-3.10293e-08
-7.33803e-07
-3.06668e-08
-7.1866e-07
-3.02896e-08
-7.03709e-07
-2.98997e-08
-6.8894e-07
-2.95141e-08
-6.7436e-07
-2.91184e-08
-6.59963e-07
-2.87322e-08
-6.45786e-07
-2.83146e-08
-6.3181e-07
-2.79285e-08
-6.18063e-07
-2.75054e-08
-6.04557e-07
-2.70514e-08
-5.91244e-07
-2.66479e-08
-5.78149e-07
-2.62216e-08
-5.65155e-07
-2.59378e-08
-5.52381e-07
-2.55202e-08
-5.39671e-07
-2.52915e-08
-5.27192e-07
-2.49352e-08
-5.15112e-07
-2.43214e-08
-5.03229e-07
-2.40422e-08
-4.91308e-07
-2.39053e-08
-4.79705e-07
-2.32002e-08
-4.67146e-07
-2.4069e-08
-4.54941e-07
-2.36673e-08
-4.44832e-07
-2.10998e-08
-4.3484e-07
-2.18302e-08
-4.25756e-07
-2.07112e-08
-4.17618e-07
-1.78979e-08
-4.13057e-07
-1.5183e-08
-4.08298e-07
-1.42931e-08
-4.00361e-07
-1.55454e-08
-3.91084e-07
-1.38533e-08
-3.81071e-07
-1.43642e-08
-3.72267e-07
-1.5839e-08
-3.6331e-07
-1.61473e-08
-3.54749e-07
-1.65187e-08
-3.46201e-07
-1.65991e-08
-3.37796e-07
-1.65878e-08
-3.29448e-07
-1.64688e-08
-3.21209e-07
-1.63696e-08
-3.12781e-07
-1.65092e-08
-3.04445e-07
-1.64853e-08
-2.96671e-07
-1.57314e-08
-2.89017e-07
-1.57015e-08
-2.8157e-07
-1.54143e-08
-2.74407e-07
-1.46531e-08
-2.67997e-07
-1.40942e-08
-2.61683e-07
-1.36738e-08
-2.54601e-07
-1.39506e-08
-2.47361e-07
-1.34427e-08
-2.4e-07
-1.34592e-08
-2.33194e-07
-1.34864e-08
-2.26095e-07
-1.36318e-08
-2.19448e-07
-1.31085e-08
-2.12118e-07
-1.36914e-08
-2.05689e-07
-1.24916e-08
-1.99812e-07
-1.18298e-08
-1.94618e-07
-1.08865e-08
-1.89751e-07
-1.10982e-08
-1.84234e-07
-1.14118e-08
-1.79665e-07
-9.80269e-09
-1.69364e-07
-1.58639e-08
-1.60732e-07
-1.40631e-08
-1.58056e-07
-6.66739e-09
-1.55159e-07
-1.19631e-08
-1.59712e-07
-3.41428e-09
-1.67047e-07
4.58106e-09
-2.07702e-07
3.30744e-08
-2.49354e-07
4.64214e-08
-2.74768e-07
3.30649e-08
-2.83316e-07
4.35207e-08
-2.79269e-07
2.28743e-08
-2.74755e-07
1.59223e-08
-2.7372e-07
1.09199e-08
-2.73074e-07
7.14796e-09
-2.72947e-07
4.27352e-09
-2.72766e-07
2.14151e-09
-2.72559e-07
4.45231e-10
-2.71727e-07
-1.10371e-09
-2.70649e-07
-1.93524e-09
-2.69337e-07
-2.58235e-09
-2.67751e-07
-3.13466e-09
-2.65903e-07
-3.67074e-09
-2.63942e-07
-4.04466e-09
-2.6194e-07
-4.28375e-09
-2.59781e-07
-4.56563e-09
-2.57449e-07
-4.82115e-09
-2.54931e-07
-5.09512e-09
-2.52234e-07
-5.40237e-09
-2.49368e-07
-5.70956e-09
-2.46365e-07
-5.96449e-09
-2.43283e-07
-6.13323e-09
-2.40169e-07
-6.21184e-09
-2.37054e-07
-6.22129e-09
-2.33945e-07
-6.20058e-09
-2.30826e-07
-6.18982e-09
-2.27676e-07
-6.21411e-09
-2.24524e-07
-6.24944e-09
-2.21277e-07
-6.36559e-09
-2.17936e-07
-6.50337e-09
-2.14527e-07
-6.65226e-09
-2.11041e-07
-6.83322e-09
-2.07485e-07
-7.04135e-09
-2.03868e-07
-7.26567e-09
-2.00192e-07
-7.48995e-09
-1.96457e-07
-7.699e-09
-1.9264e-07
-7.88223e-09
-1.88781e-07
-7.99531e-09
-1.84895e-07
-8.0533e-09
-1.80985e-07
-8.06714e-09
-1.77071e-07
-8.03519e-09
-1.73183e-07
-7.94809e-09
-1.69362e-07
-7.79542e-09
-1.65635e-07
-7.57952e-09
-1.62012e-07
-7.32928e-09
-1.58474e-07
-7.09413e-09
-1.54985e-07
-6.91997e-09
-1.51514e-07
-6.8292e-09
-1.48045e-07
-6.81243e-09
-1.44575e-07
-6.85276e-09
-1.41092e-07
-6.94616e-09
-1.37571e-07
-7.09517e-09
-1.33992e-07
-7.26723e-09
-1.30379e-07
-7.36077e-09
-1.26811e-07
-7.24997e-09
-1.23369e-07
-6.91694e-09
-1.20063e-07
-6.5397e-09
-1.16796e-07
-6.38231e-09
-1.13488e-07
-6.53958e-09
-1.1019e-07
-6.77449e-09
-1.07039e-07
-6.67074e-09
-1.0419e-07
-6.06593e-09
-1.01548e-07
-5.33521e-09
-9.87968e-08
-5.11153e-09
-9.57558e-08
-5.54042e-09
-9.27262e-08
-5.94287e-09
-8.99781e-08
-5.70888e-09
-8.75659e-08
-4.98917e-09
-8.49782e-08
-4.78596e-09
-8.19119e-08
-5.49525e-09
-7.88961e-08
-6.08846e-09
-7.62028e-08
-5.89344e-09
-7.36349e-08
-5.45852e-09
-7.06001e-08
-5.89092e-09
-6.76014e-08
-6.38757e-09
-6.51008e-08
-6.11963e-09
-6.26704e-08
-5.45931e-09
-6.00824e-08
-5.15443e-09
-5.75672e-08
-5.2396e-09
-5.48207e-08
-5.21464e-09
-5.16209e-08
-5.84697e-09
-1.74563e-09
0.000106115
-1.2483e-06
0.000106448
-9.9189e-07
0.000106737
-8.41189e-07
0.000106938
-5.94386e-07
0.000107093
-4.98775e-07
0.000107234
-5.07982e-07
0.000107348
-5.07233e-07
0.000107467
-5.23272e-07
0.000107567
-4.28975e-07
0.000107645
-3.37589e-07
0.00010769
-2.45545e-07
0.000107705
-9.21157e-08
0.000107691
4.04314e-08
0.000107618
1.63774e-07
0.000107488
3.28882e-07
0.00010732
5.0203e-07
0.000107095
6.39735e-07
0.000106843
8.1209e-07
0.00010656
9.22583e-07
0.000106197
9.45947e-07
0.000105741
1.00222e-06
0.00010526
1.27809e-06
0.000104791
1.59317e-06
0.000104378
1.68792e-06
0.00010389
1.58272e-06
0.000103262
1.56042e-06
0.000102544
1.83424e-06
0.000101963
2.17485e-06
0.00010136
2.17923e-06
0.000100663
1.96317e-06
9.99418e-05
2.17014e-06
9.91004e-05
2.62153e-06
9.81875e-05
2.93867e-06
9.71616e-05
2.84591e-06
9.62295e-05
2.48571e-06
9.54432e-05
2.53404e-06
9.46093e-05
2.89243e-06
9.36643e-05
3.05523e-06
9.26094e-05
3.09759e-06
9.15729e-05
2.81415e-06
9.06127e-05
2.88337e-06
8.96845e-05
3.33242e-06
8.86865e-05
3.54072e-06
8.75557e-05
3.31409e-06
8.63984e-05
3.08557e-06
8.53006e-05
3.22048e-06
8.41748e-05
3.50413e-06
8.29359e-05
3.6278e-06
8.16562e-05
3.61895e-06
8.03925e-05
3.69143e-06
7.91665e-05
3.742e-06
7.78549e-05
3.71815e-06
7.65275e-05
3.62695e-06
7.52551e-05
3.73396e-06
7.39998e-05
3.86691e-06
7.27195e-05
3.75339e-06
7.15142e-05
3.53498e-06
7.02039e-05
3.78708e-06
6.88047e-05
4.30061e-06
6.75717e-05
4.32536e-06
6.6328e-05
4.06695e-06
6.48873e-05
3.9656e-06
6.33586e-05
4.27372e-06
6.18457e-05
4.71014e-06
6.05414e-05
4.53221e-06
5.91427e-05
4.36634e-06
5.7507e-05