/*--------------------------------*- C++ -*----------------------------------*\
| =========                 |                                                 |
| \\      /  F ield         | OpenFOAM: The Open Source CFD Toolbox           |
|  \\    /   O peration     | Version:  v2006                                 |
|   \\  /    A nd           | Website:  www.openfoam.com                      |
|    \\/     M anipulation  |                                                 |
\*---------------------------------------------------------------------------*/
FoamFile
{
    version     2.0;
    format      ascii;
    class       volScalarField;
    location    "2.7";
    object      nut;
}
// * * * * * * * * * * * * * * * * * * * * * * * * * * * * * * * * * * * * * //

dimensions      [0 2 -1 0 0 0 0];


internalField   nonuniform List<scalar> 
33000
(
2.41769e-10
2.55395e-10
2.73435e-10
3.03683e-10
3.57756e-10
4.36469e-10
5.33669e-10
6.38394e-10
7.38188e-10
8.27631e-10
9.0018e-10
9.53682e-10
9.90097e-10
1.01364e-09
1.02759e-09
1.03613e-09
1.0416e-09
1.04517e-09
1.04995e-09
1.05368e-09
1.05371e-09
1.05288e-09
1.05859e-09
1.06946e-09
1.07893e-09
1.08226e-09
1.08339e-09
1.09341e-09
1.11058e-09
1.11926e-09
1.1237e-09
1.13624e-09
1.15308e-09
1.16903e-09
1.17616e-09
1.1838e-09
1.20261e-09
1.22274e-09
1.23671e-09
1.24762e-09
1.25613e-09
1.27256e-09
1.29921e-09
1.31941e-09
1.32552e-09
1.33257e-09
1.34942e-09
1.36681e-09
1.37647e-09
1.38488e-09
1.39956e-09
1.41602e-09
1.42608e-09
1.43479e-09
1.45382e-09
1.47657e-09
1.49119e-09
1.50521e-09
1.52612e-09
1.5559e-09
1.58681e-09
1.6047e-09
1.61775e-09
1.64367e-09
1.68219e-09
1.71996e-09
1.74236e-09
1.76312e-09
1.7997e-09
1.83736e-09
1.86766e-09
1.90256e-09
1.94802e-09
1.96896e-09
1.96827e-09
1.94918e-09
1.89201e-09
1.82663e-09
2.33733e-09
2.70134e-09
2.9108e-09
3.50537e-09
3.45023e-09
4.25226e-09
4.34805e-09
4.47225e-09
4.60459e-09
4.70405e-09
4.6597e-09
4.70147e-09
4.89822e-09
4.92173e-09
4.95834e-09
5.01785e-09
5.08178e-09
5.11056e-09
5.1017e-09
4.96028e-09
4.80825e-09
4.79877e-09
4.87412e-09
4.88906e-09
5.09723e-09
5.13495e-09
5.27838e-09
5.38041e-09
5.51589e-09
5.63221e-09
5.72698e-09
5.89314e-09
6.04037e-09
6.18168e-09
6.33173e-09
6.43867e-09
6.55018e-09
6.55517e-09
6.56174e-09
6.70457e-09
6.95643e-09
7.19973e-09
7.49124e-09
7.64038e-09
7.90625e-09
8.10602e-09
8.34048e-09
8.62693e-09
8.89309e-09
9.14511e-09
9.4481e-09
9.77097e-09
1.00142e-08
1.02733e-08
1.06154e-08
1.09766e-08
1.13205e-08
1.15827e-08
1.18977e-08
1.23041e-08
1.2712e-08
1.30277e-08
1.33596e-08
1.38453e-08
1.42712e-08
1.4666e-08
1.51065e-08
1.56465e-08
1.61639e-08
1.65601e-08
1.70625e-08
1.77353e-08
1.83154e-08
1.90862e-08
1.98496e-08
2.02942e-08
2.09188e-08
2.19283e-08
2.30376e-08
2.3392e-08
2.33936e-08
2.33997e-08
2.34093e-08
2.34219e-08
2.34406e-08
2.34667e-08
2.34972e-08
2.35286e-08
2.35604e-08
2.35954e-08
2.36428e-08
2.36979e-08
2.3754e-08
2.38065e-08
2.38701e-08
2.39523e-08
2.40371e-08
2.41238e-08
2.42136e-08
2.43146e-08
2.44286e-08
2.45448e-08
2.46705e-08
2.47942e-08
2.49108e-08
2.50346e-08
2.51533e-08
2.52643e-08
2.53571e-08
2.54506e-08
2.55463e-08
2.56339e-08
2.57074e-08
2.57732e-08
2.58401e-08
2.58954e-08
2.59447e-08
2.5983e-08
2.60145e-08
2.6041e-08
2.60598e-08
2.60642e-08
2.60644e-08
2.60614e-08
2.60496e-08
2.60302e-08
2.60033e-08
2.59706e-08
2.51663e-08
2.42738e-08
2.34555e-08
2.27652e-08
2.21783e-08
2.15481e-08
2.09319e-08
2.04134e-08
1.99e-08
1.94829e-08
1.90463e-08
1.86017e-08
1.82275e-08
1.78366e-08
1.74877e-08
1.72135e-08
1.69201e-08
1.66153e-08
1.63406e-08
1.60932e-08
1.58559e-08
1.5621e-08
1.54358e-08
1.5252e-08
1.50566e-08
1.48831e-08
1.47224e-08
1.457e-08
1.44484e-08
1.43314e-08
1.41948e-08
1.40701e-08
1.3971e-08
1.38791e-08
1.37828e-08
1.36991e-08
1.36213e-08
1.35484e-08
1.34791e-08
1.3426e-08
1.33653e-08
1.32968e-08
1.32546e-08
1.32164e-08
1.31717e-08
1.31337e-08
1.30992e-08
1.30687e-08
1.30396e-08
1.30072e-08
1.29803e-08
1.29698e-08
1.29501e-08
1.29242e-08
1.29055e-08
1.28973e-08
1.28898e-08
1.28733e-08
1.28623e-08
1.28527e-08
1.28424e-08
1.28344e-08
1.28329e-08
1.28331e-08
1.28298e-08
1.2825e-08
1.28215e-08
1.28199e-08
1.28185e-08
1.28164e-08
1.2818e-08
1.28201e-08
1.28222e-08
1.28247e-08
1.2827e-08
1.28276e-08
1.28298e-08
1.28345e-08
1.28391e-08
1.28458e-08
1.2851e-08
1.28547e-08
1.28589e-08
1.28642e-08
1.28702e-08
1.28777e-08
1.28857e-08
1.2892e-08
1.28986e-08
1.29056e-08
1.29134e-08
1.29219e-08
1.29301e-08
1.29387e-08
1.29474e-08
1.29567e-08
1.29665e-08
1.29766e-08
1.29866e-08
1.29975e-08
1.30097e-08
1.30221e-08
1.30345e-08
1.30479e-08
1.30628e-08
1.30791e-08
1.30969e-08
1.31164e-08
1.31376e-08
1.31605e-08
1.31853e-08
1.32118e-08
1.324e-08
1.32701e-08
1.33022e-08
1.33363e-08
1.33723e-08
1.34103e-08
1.34504e-08
1.34927e-08
1.35374e-08
1.35842e-08
1.3633e-08
1.36842e-08
1.37379e-08
1.37942e-08
1.38532e-08
1.39146e-08
1.39788e-08
1.40026e-08
1.39407e-08
1.38797e-08
1.38196e-08
1.37603e-08
1.37019e-08
1.36444e-08
1.35878e-08
1.35321e-08
1.34771e-08
1.34229e-08
1.33693e-08
1.33165e-08
1.32644e-08
1.3213e-08
1.31622e-08
1.31121e-08
1.30625e-08
1.30136e-08
1.29653e-08
1.29177e-08
1.28707e-08
1.28243e-08
1.27785e-08
1.27333e-08
1.26886e-08
1.26444e-08
1.26007e-08
1.25575e-08
1.2515e-08
1.2473e-08
1.24316e-08
1.23907e-08
1.23503e-08
1.23103e-08
1.22709e-08
1.2232e-08
1.21935e-08
1.21555e-08
1.2118e-08
1.20809e-08
1.20444e-08
1.20083e-08
1.19727e-08
1.19377e-08
1.19031e-08
1.18689e-08
1.18352e-08
1.1802e-08
1.17692e-08
1.1737e-08
1.17053e-08
1.16741e-08
1.16433e-08
1.1613e-08
1.15831e-08
1.15537e-08
1.15248e-08
1.14963e-08
1.14683e-08
1.14407e-08
1.14136e-08
1.1387e-08
1.13608e-08
1.1335e-08
1.13097e-08
1.12847e-08
1.12602e-08
1.12361e-08
1.12124e-08
1.11892e-08
1.11664e-08
1.1144e-08
1.1122e-08
1.11004e-08
1.10792e-08
1.10584e-08
1.10381e-08
1.10181e-08
1.09985e-08
1.09793e-08
1.09604e-08
1.09418e-08
1.09235e-08
1.09057e-08
1.08884e-08
1.0871e-08
1.08544e-08
1.08379e-08
1.08207e-08
1.08049e-08
1.07907e-08
1.0774e-08
1.07622e-08
1.07471e-08
1.07434e-08
1.0729e-08
1.07194e-08
1.07067e-08
1.06953e-08
1.06831e-08
1.06715e-08
1.06599e-08
1.06486e-08
1.06374e-08
1.06264e-08
1.06157e-08
1.06048e-08
1.05945e-08
1.05847e-08
1.05743e-08
1.05654e-08
1.05557e-08
1.0549e-08
1.05398e-08
1.05319e-08
1.05236e-08
1.05158e-08
1.05081e-08
1.05006e-08
1.04936e-08
1.04868e-08
1.04796e-08
1.04731e-08
1.04677e-08
1.04603e-08
1.04557e-08
1.04498e-08
1.04377e-08
1.04335e-08
1.04314e-08
1.04187e-08
1.04398e-08
1.04289e-08
1.05184e-08
1.05052e-08
1.05265e-08
1.05346e-08
1.05393e-08
1.05416e-08
1.05421e-08
1.05415e-08
1.05401e-08
1.05381e-08
1.05358e-08
1.05332e-08
1.05306e-08
1.05278e-08
1.0525e-08
1.0522e-08
1.0519e-08
1.0516e-08
1.05128e-08
1.05096e-08
1.05064e-08
1.05031e-08
1.04998e-08
1.04964e-08
1.04931e-08
1.04897e-08
1.04864e-08
1.04831e-08
1.04799e-08
1.04766e-08
1.04732e-08
1.04699e-08
1.04665e-08
1.0463e-08
1.04595e-08
1.0456e-08
1.04525e-08
1.04492e-08
1.04459e-08
1.04428e-08
1.04398e-08
1.04369e-08
1.04342e-08
1.04315e-08
1.04287e-08
1.04259e-08
1.04231e-08
1.04202e-08
1.04175e-08
1.04151e-08
1.04129e-08
1.04112e-08
1.04097e-08
1.04083e-08
1.04066e-08
1.04045e-08
1.04022e-08
1.04e-08
1.03986e-08
1.03976e-08
1.03962e-08
1.03938e-08
1.03904e-08
1.03867e-08
1.03841e-08
1.03823e-08
1.03801e-08
1.03768e-08
1.03732e-08
1.03711e-08
1.03706e-08
1.03693e-08
1.03674e-08
1.03669e-08
1.03683e-08
1.0368e-08
1.03661e-08
1.03638e-08
1.03607e-08
1.03673e-08
1.03524e-08
9.92017e-09
1.63164e-08
1.46629e-08
1.49791e-08
5.05033e-08
5.04881e-08
5.15385e-08
2.76011e-08
2.94055e-08
5.69447e-08
8.28293e-08
9.92499e-08
1.05314e-07
1.04053e-07
1.03071e-07
9.91158e-08
7.59437e-08
5.48728e-08
4.44714e-08
3.90681e-08
3.86522e-08
2.84182e-08
2.38608e-08
2.30914e-08
2.33777e-08
2.33338e-08
1.88422e-08
1.64058e-08
1.59692e-08
1.90896e-08
1.73249e-08
1.33983e-08
1.16275e-08
1.12721e-08
1.36862e-08
1.4854e-08
1.33571e-08
1.13144e-08
1.04353e-08
1.18695e-08
1.20482e-08
1.06175e-08
9.62133e-09
9.66444e-09
1.06738e-08
1.0644e-08
9.79948e-09
8.89904e-09
8.68101e-09
8.6444e-09
8.78818e-09
8.6997e-09
8.61017e-09
8.26934e-09
7.95284e-09
8.03741e-09
8.67652e-09
8.50362e-09
7.32478e-09
6.93222e-09
7.30027e-09
7.6777e-09
7.13056e-09
6.3341e-09
6.38421e-09
6.6767e-09
6.62399e-09
6.53127e-09
6.3769e-09
5.93363e-09
5.55935e-09
5.52694e-09
5.42285e-09
5.05199e-09
4.63721e-09
4.26585e-09
3.51098e-09
3.28561e-09
2.93631e-09
2.49175e-09
1.19388e-09
1.22606e-09
2.10439e-09
2.5644e-09
6.76833e-09
6.06138e-09
1.45308e-08
5.35008e-08
4.42716e-08
2.14807e-08
1.81661e-08
2.25096e-08
2.10833e-08
2.46632e-08
2.67192e-08
2.36977e-08
2.31737e-08
2.36565e-08
2.73869e-08
3.02191e-08
3.5082e-08
2.03326e-08
1.8705e-08
2.69324e-08
2.61674e-08
3.00768e-08
2.84827e-08
2.87811e-08
3.02403e-08
3.08343e-08
3.22878e-08
3.37793e-08
3.44772e-08
3.43211e-08
3.41163e-08
3.67483e-08
4.03933e-08
4.19684e-08
4.80407e-08
3.91303e-08
3.85775e-08
4.62745e-08
4.29796e-08
4.97508e-08
5.06314e-08
4.86493e-08
5.15542e-08
5.46411e-08
5.59787e-08
5.68895e-08
5.91363e-08
5.92655e-08
6.02061e-08
6.28644e-08
6.65735e-08
6.75696e-08
6.57924e-08
7.0067e-08
7.3879e-08
7.43898e-08
7.14096e-08
7.72108e-08
8.1772e-08
7.73087e-08
7.74969e-08
8.47236e-08
8.93895e-08
8.4343e-08
8.05694e-08
8.94148e-08
9.18799e-08
8.86399e-08
9.54785e-08
9.77948e-08
9.17973e-08
9.15098e-08
9.88048e-08
1.04595e-07
9.97893e-08
9.46364e-08
9.43197e-08
1.01475e-07
1.07359e-07
9.89346e-08
9.22049e-08
9.53598e-08
1.02131e-07
1.01602e-07
9.35771e-08
8.99928e-08
9.79596e-08
1.02347e-07
9.21331e-08
8.87829e-08
9.60305e-08
9.59664e-08
9.17906e-08
9.33954e-08
9.52939e-08
9.48484e-08
9.31218e-08
9.27966e-08
9.17462e-08
9.16053e-08
9.40516e-08
9.67303e-08
9.78739e-08
9.57978e-08
9.49305e-08
9.52176e-08
9.55052e-08
9.58485e-08
9.70235e-08
9.99139e-08
1.02246e-07
1.00863e-07
9.83386e-08
1.00791e-07
1.05695e-07
1.0777e-07
1.07534e-07
1.0649e-07
1.06632e-07
1.13746e-07
1.16902e-07
1.1705e-07
1.15357e-07
1.17092e-07
1.2516e-07
1.29104e-07
1.28367e-07
1.29099e-07
1.38588e-07
1.42851e-07
1.46123e-07
1.53144e-07
1.55367e-07
1.61569e-07
1.65635e-07
1.70988e-07
1.86236e-07
1.92998e-07
2.03069e-07
2.09987e-07
2.16202e-07
2.35575e-07
2.4963e-07
2.66363e-07
2.88294e-07
3.07709e-07
3.21263e-07
3.45145e-07
3.92614e-07
4.3242e-07
4.90095e-07
5.52435e-07
5.95086e-07
5.92345e-07
6.64706e-07
8.35068e-07
1.05917e-06
1.06288e-06
1.06583e-06
1.0687e-06
1.0714e-06
1.07284e-06
1.07322e-06
1.07513e-06
1.07717e-06
1.07851e-06
1.07948e-06
1.08078e-06
1.08182e-06
1.08269e-06
9.67169e-07
8.70423e-07
8.31945e-07
8.52464e-07
8.23237e-07
7.04657e-07
6.52602e-07
6.415e-07
6.46467e-07
6.3148e-07
6.10435e-07
5.91699e-07
5.75595e-07
5.51276e-07
5.39416e-07
5.36549e-07
5.31952e-07
5.2634e-07
5.18435e-07
5.12384e-07
5.17356e-07
5.07447e-07
4.91269e-07
4.84758e-07
4.82665e-07
4.7812e-07
4.78513e-07
4.8582e-07
4.74456e-07
4.66376e-07
4.65257e-07
4.63619e-07
4.61941e-07
4.60438e-07
4.58616e-07
4.55979e-07
4.53648e-07
4.52001e-07
4.50905e-07
4.50373e-07
4.49625e-07
4.4903e-07
4.49375e-07
4.50253e-07
4.49268e-07
4.4929e-07
4.49528e-07
4.49154e-07
4.49392e-07
4.49703e-07
4.49775e-07
4.49479e-07
4.49183e-07
4.4922e-07
4.49492e-07
4.49434e-07
4.49183e-07
4.48979e-07
4.48806e-07
4.48726e-07
4.48637e-07
4.48369e-07
4.48011e-07
4.47681e-07
4.47329e-07
4.46814e-07
4.4615e-07
4.45526e-07
4.45051e-07
4.44509e-07
4.43692e-07
4.42662e-07
4.41568e-07
4.40376e-07
4.39073e-07
4.37583e-07
4.35779e-07
4.33778e-07
4.31799e-07
4.29812e-07
4.27645e-07
4.25352e-07
4.23097e-07
4.21004e-07
4.19031e-07
4.17011e-07
4.14935e-07
4.12862e-07
4.10892e-07
4.08966e-07
4.07043e-07
4.05181e-07
4.03405e-07
4.01699e-07
4.00039e-07
3.98512e-07
3.97179e-07
3.95992e-07
3.94785e-07
3.93714e-07
3.92817e-07
3.92026e-07
3.91338e-07
3.90801e-07
3.90524e-07
3.90538e-07
3.90628e-07
3.90559e-07
3.90663e-07
3.91025e-07
3.91568e-07
3.92286e-07
3.93093e-07
3.93902e-07
3.94836e-07
3.95871e-07
3.97e-07
3.98276e-07
3.99765e-07
4.01495e-07
4.0342e-07
4.05435e-07
4.07516e-07
4.09734e-07
4.12164e-07
4.14818e-07
4.17634e-07
4.20681e-07
4.23979e-07
4.27534e-07
4.3127e-07
4.34926e-07
4.38599e-07
4.42322e-07
4.46177e-07
4.50347e-07
4.5487e-07
4.5974e-07
4.64893e-07
4.70122e-07
4.753e-07
4.805e-07
4.85796e-07
4.91231e-07
4.96928e-07
5.02863e-07
5.09132e-07
5.15551e-07
5.2209e-07
5.28515e-07
5.35246e-07
5.4204e-07
5.50279e-07
5.58208e-07
5.6759e-07
5.7761e-07
5.86334e-07
5.95573e-07
6.00594e-07
6.09986e-07
6.13625e-07
6.24721e-07
6.46732e-07
6.56426e-07
6.54385e-07
6.6702e-07
6.17829e-07
6.3705e-07
7.676e-07
7.86744e-07
8.81843e-07
9.22171e-07
1.06192e-06
1.06218e-06
9.1943e-07
8.40906e-07
7.61448e-07
8.59556e-07
8.69772e-07
9.06818e-07
9.14838e-07
9.26496e-07
9.34319e-07
9.43226e-07
9.22008e-07
9.32544e-07
1.00203e-06
1.02026e-06
1.05523e-06
1.06286e-06
1.06328e-06
1.06309e-06
1.0633e-06
1.06387e-06
1.05812e-06
1.06438e-06
1.06403e-06
1.06434e-06
1.05806e-06
1.06355e-06
1.06313e-06
1.0637e-06
1.06403e-06
1.06335e-06
1.06445e-06
7.4675e-07
8.63205e-07
8.30841e-07
1.05837e-06
4.26768e-07
4.47593e-07
1.74363e-07
1.61102e-07
3.83973e-07
3.29422e-07
3.42255e-07
4.4758e-07
6.80231e-07
1.02022e-06
1.03523e-06
1.04134e-06
1.04453e-06
1.04582e-06
1.04707e-06
1.04828e-06
1.04927e-06
1.05086e-06
1.05332e-06
1.05558e-06
1.05683e-06
1.05717e-06
1.05753e-06
1.05845e-06
1.05974e-06
1.06087e-06
1.06152e-06
1.06163e-06
1.06128e-06
1.06065e-06
1.05999e-06
1.05947e-06
1.05923e-06
1.05929e-06
1.05967e-06
1.06045e-06
1.06162e-06
1.06314e-06
1.06462e-06
1.06495e-06
1.06501e-06
1.06503e-06
1.06503e-06
1.065e-06
1.06497e-06
1.06495e-06
1.06494e-06
1.06495e-06
1.06495e-06
1.06494e-06
1.0649e-06
1.06469e-06
1.06433e-06
1.06441e-06
1.06481e-06
1.06498e-06
1.06502e-06
1.06502e-06
1.06501e-06
1.06497e-06
1.06492e-06
1.06472e-06
1.06404e-06
1.06499e-06
1.06524e-06
1.06531e-06
1.06507e-06
1.06007e-06
1.05509e-06
1.05749e-06
1.06387e-06
1.06472e-06
1.0598e-06
1.05388e-06
1.05758e-06
1.06517e-06
1.06543e-06
1.0642e-06
1.06383e-06
1.06553e-06
1.06561e-06
1.06494e-06
1.05996e-06
1.06242e-06
1.05573e-06
8.37945e-07
1.0438e-06
9.8209e-09
1.51497e-08
1.35012e-08
1.3735e-08
4.14631e-08
4.14795e-08
5.88585e-08
2.73028e-08
2.78163e-08
5.00015e-08
5.52219e-08
5.30964e-08
6.38124e-08
6.71898e-08
5.16092e-08
4.85769e-08
4.02742e-08
3.69038e-08
3.31154e-08
2.46677e-08
1.95047e-08
1.74733e-08
2.08277e-08
2.10158e-08
1.69973e-08
1.38816e-08
1.20292e-08
1.50562e-08
1.40695e-08
1.20484e-08
1.20131e-08
1.08879e-08
9.58838e-09
8.18616e-09
8.39286e-09
1.01214e-08
1.10329e-08
9.32924e-09
7.91545e-09
7.81267e-09
8.24137e-09
8.99408e-09
8.87667e-09
7.44722e-09
7.09998e-09
7.3323e-09
7.61748e-09
7.04429e-09
6.50378e-09
6.48785e-09
6.68646e-09
6.42891e-09
6.28111e-09
6.33466e-09
6.49231e-09
6.36968e-09
6.5609e-09
6.2619e-09
5.84639e-09
6.29244e-09
6.45205e-09
5.86463e-09
5.25e-09
5.26665e-09
5.88082e-09
5.79134e-09
5.08551e-09
5.051e-09
5.55769e-09
5.50339e-09
5.14853e-09
5.04182e-09
4.97057e-09
4.9209e-09
5.14723e-09
5.2637e-09
5.3749e-09
7.85945e-09
8.69421e-09
4.49831e-09
2.68248e-09
1.98827e-09
1.96813e-09
1.08013e-09
1.16929e-09
1.79542e-09
2.18813e-09
3.27273e-09
7.90574e-09
7.45125e-09
6.65686e-08
1.06124e-07
1.92743e-08
1.87962e-08
2.37636e-08
2.14507e-08
2.19836e-08
2.26162e-08
2.51246e-08
2.68528e-08
2.64636e-08
2.64412e-08
2.77084e-08
3.40431e-08
2.23963e-08
2.03423e-08
2.67551e-08
2.64702e-08
2.99655e-08
3.14081e-08
3.00076e-08
3.13744e-08
3.43117e-08
3.5159e-08
3.28086e-08
3.3566e-08
3.83734e-08
4.05354e-08
3.9521e-08
3.90836e-08
4.37171e-08
5.35616e-08
4.42083e-08
4.45747e-08
5.16058e-08
4.60427e-08
4.98251e-08
5.287e-08
5.28793e-08
5.33517e-08
5.50032e-08
5.95439e-08
6.48023e-08
6.41897e-08
6.22193e-08
6.14693e-08
6.58451e-08
7.11827e-08
7.11889e-08
6.98746e-08
7.18795e-08
7.95514e-08
8.11883e-08
7.61107e-08
8.03414e-08
8.57839e-08
8.42011e-08
8.0571e-08
8.39383e-08
9.20741e-08
9.4644e-08
9.54475e-08
8.86435e-08
8.41423e-08
9.23993e-08
1.00241e-07
1.01911e-07
9.77225e-08
9.36144e-08
9.88849e-08
9.94361e-08
9.50225e-08
9.64959e-08
9.64879e-08
9.72494e-08
9.67621e-08
9.5058e-08
9.7148e-08
9.50843e-08
9.43934e-08
9.46543e-08
9.38003e-08
9.22883e-08
9.23325e-08
9.62521e-08
9.25877e-08
8.89499e-08
9.29145e-08
9.48577e-08
9.37449e-08
9.06811e-08
9.03161e-08
9.06313e-08
9.20483e-08
9.3401e-08
9.36097e-08
9.36803e-08
9.30585e-08
9.28318e-08
9.37962e-08
9.31468e-08
9.45804e-08
9.44543e-08
9.71944e-08
1.02242e-07
1.00591e-07
9.69362e-08
9.84188e-08
1.02256e-07
1.04349e-07
1.05583e-07
1.05444e-07
1.06846e-07
1.11692e-07
1.13224e-07
1.10963e-07
1.1333e-07
1.20856e-07
1.24512e-07
1.2509e-07
1.24217e-07
1.29986e-07
1.36274e-07
1.40083e-07
1.42651e-07
1.48835e-07
1.56257e-07
1.59086e-07
1.63437e-07
1.74995e-07
1.81667e-07
1.79791e-07
1.99074e-07
2.14835e-07
2.22581e-07
2.33961e-07
2.41734e-07
2.58632e-07
2.71991e-07
3.02964e-07
3.27679e-07
3.45449e-07
3.75705e-07
4.10541e-07
4.62142e-07
5.27277e-07
5.79946e-07
5.83054e-07
6.23844e-07
8.43071e-07
1.10937e-06
1.26214e-06
1.32054e-06
1.46221e-06
1.9087e-06
3.59084e-06
2.95078e-06
1.55781e-06
1.61013e-06
1.73244e-06
1.5459e-06
1.24312e-06
1.09206e-06
9.9625e-07
9.31948e-07
8.45348e-07
8.71125e-07
9.031e-07
7.59344e-07
6.71839e-07
6.51839e-07
6.56636e-07
6.29013e-07
6.05611e-07
5.94665e-07
5.82358e-07
5.74411e-07
5.57234e-07
5.54029e-07
5.51321e-07
5.42916e-07
5.26969e-07
4.95055e-07
4.89025e-07
5.11172e-07
5.11704e-07
4.96086e-07
4.85066e-07
4.82198e-07
4.77465e-07
4.74714e-07
4.76185e-07
4.71188e-07
4.66256e-07
4.66882e-07
4.65833e-07
4.60077e-07
4.55582e-07
4.56636e-07
4.57986e-07
4.57184e-07
4.56354e-07
4.52344e-07
4.49639e-07
4.48759e-07
4.48504e-07
4.49687e-07
4.49193e-07
4.47774e-07
4.4757e-07
4.47371e-07
4.47359e-07
4.47611e-07
4.47404e-07
4.47506e-07
4.4882e-07
4.49235e-07
4.48556e-07
4.48868e-07
4.49954e-07
4.50087e-07
4.49766e-07
4.49787e-07
4.49826e-07
4.49699e-07
4.49524e-07
4.49205e-07
4.48752e-07
4.48451e-07
4.48158e-07
4.47798e-07
4.47353e-07
4.46701e-07
4.46041e-07
4.45296e-07
4.44317e-07
4.42992e-07
4.41207e-07
4.39476e-07
4.3773e-07
4.35904e-07
4.34029e-07
4.32059e-07
4.30268e-07
4.28633e-07
4.26818e-07
4.24759e-07
4.22568e-07
4.20355e-07
4.18156e-07
4.15824e-07
4.13396e-07
4.11113e-07
4.09041e-07
4.07067e-07
4.05179e-07
4.03557e-07
4.02101e-07
4.00626e-07
3.99216e-07
3.98002e-07
3.96752e-07
3.95293e-07
3.94012e-07
3.92885e-07
3.91854e-07
3.90989e-07
3.90347e-07
3.90083e-07
3.90289e-07
3.90485e-07
3.906e-07
3.90761e-07
3.90993e-07
3.91303e-07
3.91701e-07
3.92267e-07
3.93009e-07
3.94005e-07
3.95316e-07
3.96774e-07
3.98312e-07
3.99957e-07
4.01723e-07
4.03583e-07
4.05459e-07
4.07345e-07
4.09381e-07
4.11831e-07
4.14789e-07
4.18019e-07
4.21365e-07
4.24754e-07
4.28118e-07
4.31444e-07
4.34786e-07
4.38319e-07
4.42142e-07
4.46259e-07
4.50751e-07
4.55632e-07
4.60747e-07
4.65788e-07
4.70568e-07
4.75188e-07
4.79951e-07
4.84986e-07
4.90653e-07
4.96903e-07
5.03558e-07
5.10102e-07
5.16434e-07
5.22076e-07
5.28342e-07
5.34593e-07
5.42617e-07
5.52453e-07
5.61463e-07
5.69314e-07
5.76656e-07
5.84567e-07
5.88962e-07
5.99421e-07
6.21467e-07
6.31496e-07
6.26776e-07
6.39151e-07
5.91544e-07
6.12281e-07
7.52888e-07
7.75867e-07
8.51761e-07
8.77317e-07
1.49517e-06
1.46304e-06
8.98072e-07
8.95311e-07
7.91611e-07
8.05138e-07
7.1433e-07
7.3546e-07
8.26695e-07
8.44567e-07
8.77448e-07
8.59793e-07
8.81753e-07
9.42184e-07
9.79652e-07
1.00231e-06
1.02259e-06
1.03803e-06
1.1878e-06
1.19692e-06
1.0443e-06
1.06577e-06
1.04073e-06
1.07221e-06
9.917e-07
1.04968e-06
9.96798e-07
1.09548e-06
1.21745e-06
1.35847e-06
1.1716e-06
1.34271e-06
1.43104e-06
7.23123e-07
8.74045e-07
7.85836e-07
1.07922e-06
3.9216e-07
3.85632e-07
1.51202e-07
1.55241e-07
4.41858e-07
4.43727e-07
4.08844e-07
4.05343e-07
4.44083e-07
6.4015e-07
1.13859e-06
1.52095e-06
1.58932e-06
1.86057e-06
2.2687e-06
2.73596e-06
3.05786e-06
3.24113e-06
3.27331e-06
3.17027e-06
3.06368e-06
3.01874e-06
2.99963e-06
2.938e-06
2.81171e-06
2.6605e-06
2.53179e-06
2.44318e-06
2.39302e-06
2.37394e-06
2.37494e-06
2.38109e-06
2.37677e-06
2.35253e-06
2.30628e-06
2.24791e-06
2.19218e-06
2.1459e-06
2.11608e-06
2.10893e-06
2.1228e-06
2.14879e-06
2.17367e-06
2.18607e-06
2.17663e-06
2.14496e-06
2.10383e-06
2.06979e-06
2.05464e-06
2.06329e-06
2.09271e-06
2.13068e-06
2.16023e-06
2.17086e-06
2.16789e-06
2.16996e-06
2.19297e-06
2.23368e-06
2.26741e-06
2.26737e-06
2.23485e-06
2.20093e-06
2.19155e-06
2.21739e-06
2.27672e-06
2.35271e-06
2.45582e-06
2.61967e-06
2.7732e-06
2.75435e-06
2.55517e-06
2.37281e-06
2.44285e-06
2.806e-06
3.03815e-06
2.73419e-06
2.33509e-06
2.42854e-06
3.09023e-06
3.46007e-06
2.86408e-06
2.67262e-06
3.40607e-06
3.85524e-06
2.95807e-06
2.71626e-06
2.92869e-06
3.58234e-06
8.61148e-07
2.13159e-06
9.54954e-09
1.40278e-08
1.26586e-08
1.27898e-08
3.3716e-08
3.62053e-08
4.09418e-08
2.33631e-08
2.21606e-08
3.08037e-08
3.10233e-08
3.01959e-08
3.25754e-08
3.21321e-08
3.00191e-08
2.99454e-08
2.80288e-08
2.71369e-08
2.68119e-08
2.17084e-08
1.69575e-08
1.67982e-08
2.03412e-08
2.11601e-08
1.55698e-08
1.23755e-08
1.2571e-08
1.58278e-08
1.48475e-08
1.07882e-08
1.02548e-08
1.12375e-08
1.22077e-08
1.04272e-08
8.24374e-09
8.05055e-09
9.04135e-09
9.45747e-09
9.01714e-09
7.52645e-09
7.11251e-09
8.10435e-09
9.04878e-09
7.72868e-09
6.55059e-09
6.37466e-09
6.82289e-09
7.02965e-09
6.83476e-09
6.49349e-09
6.14919e-09
5.97202e-09
6.10874e-09
6.35443e-09
6.56396e-09
6.35009e-09
6.05245e-09
5.75514e-09
6.13373e-09
6.68505e-09
6.49896e-09
5.79027e-09
5.21466e-09
5.56932e-09
6.05527e-09
5.88497e-09
5.16483e-09
4.9986e-09
5.45066e-09
5.86509e-09
5.70339e-09
5.31288e-09
5.08941e-09
5.18334e-09
5.6787e-09
6.00577e-09
6.58048e-09
8.39639e-09
9.94051e-09
9.88359e-09
1.58288e-08
1.37137e-08
6.00567e-09
3.26618e-09
2.30063e-09
2.06729e-09
1.70548e-09
1.18431e-09
1.23596e-09
2.1311e-09
2.56281e-09
7.34002e-09
7.2143e-09
4.10518e-08
9.6735e-08
1.85125e-08
1.67499e-08
2.1004e-08
2.12462e-08
2.31428e-08
2.36521e-08
2.22081e-08
2.44031e-08
2.62392e-08
2.55538e-08
2.65519e-08
2.82261e-08
3.7666e-08
3.02296e-08
2.56624e-08
3.04346e-08
3.11603e-08
3.59562e-08
3.43047e-08
3.00474e-08
3.18364e-08
3.73108e-08
4.0458e-08
3.8506e-08
3.56115e-08
3.67113e-08
4.24323e-08
4.85276e-08
5.25031e-08
6.14396e-08
5.33561e-08
4.95664e-08
5.3225e-08
5.20897e-08
5.59676e-08
5.49164e-08
5.44456e-08
5.93979e-08
6.26179e-08
6.05789e-08
6.58601e-08
7.48687e-08
7.15618e-08
6.59991e-08
6.72667e-08
7.59743e-08
7.90743e-08
8.12259e-08
8.09995e-08
8.31859e-08
8.07081e-08
7.97993e-08
8.7984e-08
9.66833e-08
9.12894e-08
9.07593e-08
9.68967e-08
8.95117e-08
8.47243e-08
9.48867e-08
1.04286e-07
1.02394e-07
9.5227e-08
9.26629e-08
1.02268e-07
1.08072e-07
9.42937e-08
8.90928e-08
9.52904e-08
1.0596e-07
1.02331e-07
9.13276e-08
9.18795e-08
9.86441e-08
1.03231e-07
9.2336e-08
8.862e-08
9.78845e-08
9.79976e-08
9.15042e-08
9.07048e-08
9.42069e-08
9.47725e-08
9.06858e-08
9.04122e-08
9.12825e-08
9.16217e-08
9.12863e-08
9.28918e-08
9.42904e-08
9.23003e-08
8.95759e-08
9.07189e-08
9.29135e-08
9.41421e-08
9.33117e-08
9.42694e-08
9.39486e-08
9.48366e-08
9.87931e-08
1.00761e-07
9.9322e-08
9.88687e-08
9.85198e-08
1.01348e-07
1.0501e-07
1.05966e-07
1.07997e-07
1.0681e-07
1.0779e-07
1.0955e-07
1.16628e-07
1.25352e-07
1.21016e-07
1.19454e-07
1.24806e-07
1.32538e-07
1.32549e-07
1.35706e-07
1.40282e-07
1.46895e-07
1.52884e-07
1.566e-07
1.65147e-07
1.74909e-07
1.77244e-07
1.77248e-07
1.90888e-07
2.10722e-07
2.25667e-07
2.35384e-07
2.39066e-07
2.49897e-07
2.62721e-07
2.88004e-07
3.20713e-07
3.45383e-07
3.53398e-07
3.85739e-07
4.56454e-07
4.94199e-07
5.36226e-07
5.99582e-07
6.41686e-07
7.61208e-07
9.57747e-07
1.05033e-06
1.13746e-06
1.16989e-06
1.38196e-06
2.21594e-06
1.59963e-06
1.12559e-06
1.44279e-06
1.78974e-06
1.3428e-06
1.16214e-06
1.03951e-06
9.00907e-07
8.9953e-07
8.6763e-07
8.66028e-07
7.89399e-07
6.70519e-07
6.7506e-07
6.73056e-07
6.58997e-07
6.28906e-07
5.90911e-07
5.72863e-07
5.71735e-07
5.71729e-07
5.63716e-07
5.64248e-07
5.58586e-07
5.43917e-07
5.2243e-07
4.86206e-07
4.7836e-07
4.96783e-07
5.0179e-07
4.99621e-07
4.93987e-07
4.86674e-07
4.82079e-07
4.72824e-07
4.6179e-07
4.676e-07
4.70185e-07
4.67993e-07
4.64955e-07
4.59162e-07
4.54183e-07
4.57274e-07
4.5978e-07
4.58854e-07
4.57492e-07
4.53282e-07
4.50201e-07
4.49631e-07
4.49362e-07
4.49146e-07
4.47455e-07
4.46935e-07
4.46556e-07
4.46014e-07
4.46379e-07
4.4665e-07
4.46569e-07
4.46882e-07
4.48285e-07
4.49065e-07
4.48864e-07
4.49386e-07
4.50544e-07
4.50875e-07
4.50835e-07
4.51065e-07
4.51171e-07
4.50982e-07
4.50782e-07
4.50557e-07
4.50292e-07
4.5015e-07
4.49987e-07
4.49779e-07
4.49388e-07
4.48546e-07
4.47593e-07
4.46738e-07
4.45686e-07
4.44155e-07
4.42191e-07
4.40238e-07
4.38442e-07
4.36663e-07
4.34734e-07
4.32667e-07
4.30812e-07
4.29362e-07
4.27921e-07
4.26002e-07
4.23549e-07
4.20968e-07
4.18545e-07
4.16059e-07
4.13498e-07
4.11029e-07
4.08813e-07
4.06776e-07
4.04901e-07
4.03304e-07
4.01879e-07
4.00482e-07
3.99092e-07
3.97746e-07
3.96359e-07
3.94979e-07
3.93664e-07
3.92445e-07
3.91341e-07
3.90403e-07
3.89649e-07
3.89225e-07
3.89272e-07
3.89355e-07
3.89638e-07
3.89877e-07
3.90005e-07
3.90151e-07
3.9038e-07
3.90869e-07
3.91717e-07
3.92816e-07
3.9419e-07
3.95776e-07
3.97457e-07
3.99136e-07
4.00798e-07
4.02527e-07
4.04393e-07
4.06365e-07
4.08533e-07
4.11135e-07
4.14172e-07
4.17368e-07
4.20526e-07
4.23706e-07
4.26885e-07
4.30083e-07
4.33627e-07
4.37538e-07
4.41793e-07
4.46271e-07
4.50891e-07
4.55643e-07
4.6041e-07
4.65024e-07
4.69417e-07
4.74016e-07
4.78903e-07
4.84296e-07
4.90157e-07
4.96504e-07
5.02527e-07
5.08904e-07
5.14462e-07
5.20822e-07
5.27781e-07
5.34855e-07
5.38864e-07
5.48893e-07
5.51635e-07
5.65087e-07
5.8479e-07
5.98864e-07
6.10509e-07
5.99028e-07
6.11155e-07
5.65069e-07
5.86657e-07
7.38834e-07
7.62393e-07
8.19228e-07
8.42182e-07
1.50068e-06
1.48634e-06
8.65663e-07
8.71879e-07
7.78706e-07
7.73831e-07
6.69274e-07
6.78832e-07
7.5611e-07
7.5895e-07
7.92726e-07
7.91612e-07
8.17273e-07
8.9385e-07
9.25032e-07
9.20107e-07
9.82283e-07
1.00817e-06
1.16788e-06
1.18433e-06
1.01163e-06
1.0293e-06
1.00461e-06
1.03264e-06
9.48354e-07
9.93717e-07
9.50366e-07
1.01537e-06
1.17374e-06
1.25451e-06
9.85513e-07
1.12458e-06
5.76559e-07
7.5472e-07
1.55678e-06
7.60286e-07
1.1298e-06
3.68803e-07
3.70359e-07
1.39943e-07
1.37559e-07
3.7665e-07
3.34554e-07
3.40705e-07
3.80418e-07
4.39198e-07
4.33308e-07
6.17194e-07
7.05553e-07
8.35619e-07
9.72954e-07
1.09225e-06
1.29001e-06
1.5394e-06
1.82078e-06
2.09053e-06
2.34305e-06
2.55346e-06
2.6526e-06
2.66853e-06
2.68471e-06
2.71919e-06
2.72359e-06
2.66699e-06
2.57284e-06
2.48076e-06
2.41435e-06
2.37894e-06
2.37097e-06
2.38122e-06
2.39433e-06
2.39309e-06
2.36602e-06
2.31267e-06
2.24239e-06
2.16552e-06
2.10869e-06
2.07338e-06
2.06314e-06
2.08259e-06
2.12456e-06
2.17464e-06
2.21486e-06
2.23027e-06
2.21684e-06
2.1785e-06
2.1342e-06
2.10225e-06
2.09269e-06
2.10643e-06
2.13535e-06
2.16315e-06
2.17381e-06
2.16478e-06
2.15387e-06
2.16681e-06
2.21467e-06
2.27969e-06
2.31828e-06
2.29659e-06
2.23675e-06
2.19149e-06
2.19223e-06
2.24874e-06
2.35795e-06
2.49063e-06
2.62082e-06
2.73135e-06
2.7359e-06
2.59473e-06
2.42782e-06
2.40382e-06
2.63514e-06
2.90807e-06
2.7766e-06
2.38191e-06
2.32451e-06
2.81722e-06
3.31515e-06
3.08532e-06
2.88528e-06
3.52357e-06
3.79668e-06
3.1676e-06
2.67583e-06
2.51817e-06
2.66738e-06
3.49285e-06
9.07668e-07
2.07272e-06
9.2551e-09
1.28028e-08
1.16281e-08
1.17857e-08
2.89169e-08
3.23517e-08
3.39062e-08
2.09935e-08
1.89843e-08
2.33907e-08
2.31603e-08
2.36127e-08
2.473e-08
2.33687e-08
2.19565e-08
2.17315e-08
2.13969e-08
2.13794e-08
2.10865e-08
1.87483e-08
1.62268e-08
1.59844e-08
1.72421e-08
1.73159e-08
1.44527e-08
1.25168e-08
1.27969e-08
1.39763e-08
1.35207e-08
1.08557e-08
9.77337e-09
1.07016e-08
1.29609e-08
1.25543e-08
9.62878e-09
8.2256e-09
8.30518e-09
8.72086e-09
8.82852e-09
7.83005e-09
7.09381e-09
7.23408e-09
7.79549e-09
7.49518e-09
6.59561e-09
6.23435e-09
6.51342e-09
6.89795e-09
6.82704e-09
6.37923e-09
6.14565e-09
6.22287e-09
6.1538e-09
6.17282e-09
6.34228e-09
6.17736e-09
5.79135e-09
5.89798e-09
6.63408e-09
6.66991e-09
6.16843e-09
5.90618e-09
5.7633e-09
6.06095e-09
5.85072e-09
5.72455e-09
5.6899e-09
5.61059e-09
5.45449e-09
5.54553e-09
5.79424e-09
5.87496e-09
5.69355e-09
5.47004e-09
5.73705e-09
6.38463e-09
7.65472e-09
9.05727e-09
8.59092e-09
8.63495e-09
1.23951e-08
1.67092e-08
1.38274e-08
1.23588e-08
1.09675e-08
7.32617e-09
3.91547e-09
2.76837e-09
2.0958e-09
2.05022e-09
1.169e-09
1.29815e-09
2.25838e-09
2.67496e-09
8.34555e-09
8.01671e-09
3.75769e-08
6.88095e-08
1.73584e-08
1.59022e-08
2.18591e-08
2.29159e-08
2.3756e-08
2.25978e-08
2.11542e-08
2.43655e-08
2.5718e-08
2.67591e-08
3.07947e-08
3.29523e-08
3.8458e-08
3.28687e-08
3.20319e-08
3.61494e-08
3.3126e-08
3.50652e-08
3.45434e-08
3.26322e-08
3.52722e-08
4.09546e-08
4.05587e-08
3.8997e-08
3.88821e-08
3.87668e-08
4.5876e-08
5.3234e-08
5.74129e-08
6.93907e-08
6.41573e-08
5.98038e-08
5.86683e-08
5.52723e-08
6.45176e-08
6.38474e-08
5.89686e-08
5.91608e-08
6.60706e-08
7.19984e-08
6.93927e-08
7.31729e-08
7.91251e-08
7.61381e-08
7.7905e-08
8.50305e-08
8.47645e-08
8.24067e-08
8.3486e-08
9.15885e-08
9.6307e-08
9.17351e-08
9.2452e-08
9.53343e-08
9.06576e-08
9.53845e-08
1.01016e-07
1.03495e-07
9.99288e-08
9.17848e-08
9.39402e-08
1.02668e-07
1.08265e-07
9.91126e-08
9.13936e-08
9.86465e-08
1.08143e-07
9.97445e-08
9.06775e-08
9.34974e-08
1.02156e-07
1.04193e-07
9.30858e-08
8.93678e-08
9.7982e-08
9.93215e-08
9.09352e-08
9.19422e-08
9.60304e-08
9.40484e-08
8.8976e-08
8.96606e-08
9.33697e-08
9.08806e-08
9.05368e-08
9.32101e-08
9.35828e-08
9.02597e-08
8.66007e-08
9.11172e-08
9.45458e-08
9.28561e-08
9.23794e-08
9.42847e-08
9.57378e-08
9.3311e-08
9.19895e-08
9.67562e-08
1.00833e-07
1.00732e-07
9.82089e-08
9.84201e-08
1.02283e-07
1.05509e-07
1.07269e-07
1.04477e-07
1.05762e-07
1.10818e-07
1.16355e-07
1.20175e-07
1.17734e-07
1.17964e-07
1.24266e-07
1.30314e-07
1.31681e-07
1.35414e-07
1.38498e-07
1.41563e-07
1.47941e-07
1.54982e-07
1.67586e-07
1.69946e-07
1.69915e-07
1.79235e-07
1.8586e-07
2.03455e-07
2.16509e-07
2.2877e-07
2.42952e-07
2.45822e-07
2.58692e-07
2.76715e-07
2.97577e-07
3.38192e-07
3.54776e-07
3.65843e-07
4.24809e-07
4.9577e-07
5.17577e-07
5.61487e-07
6.12297e-07
6.57174e-07
7.71565e-07
8.91671e-07
9.72225e-07
1.07004e-06
1.19891e-06
1.37864e-06
1.07981e-06
1.05367e-06
1.47811e-06
1.44923e-06