/*--------------------------------*- C++ -*----------------------------------*\
| =========                 |                                                 |
| \\      /  F ield         | OpenFOAM: The Open Source CFD Toolbox           |
|  \\    /   O peration     | Version:  v2006                                 |
|   \\  /    A nd           | Website:  www.openfoam.com                      |
|    \\/     M anipulation  |                                                 |
\*---------------------------------------------------------------------------*/
FoamFile
{
    version     2.0;
    format      ascii;
    class       volScalarField;
    location    "2.7";
    object      p_rgh;
}
// * * * * * * * * * * * * * * * * * * * * * * * * * * * * * * * * * * * * * //

dimensions      [1 -1 -2 0 0 0 0];


internalField   nonuniform List<scalar> 
33000
(
8296.28
8301.81
8306.86
8311.11
8315.32
8319.64
8323.68
8327.2
8330.45
8333.61
8336.66
8339.5
8342.04
8344.37
8346.49
8348.37
8350.05
8351.51
8352.76
8353.81
8354.62
8355.23
8355.61
8355.82
8355.86
8355.66
8355.25
8354.63
8353.84
8352.88
8351.68
8350.24
8348.74
8347.06
8345.16
8343.06
8340.72
8338.33
8335.81
8333.07
8330.16
8327.03
8323.82
8320.52
8317.06
8313.41
8309.6
8305.71
8301.72
8297.58
8293.32
8288.95
8284.49
8279.92
8275.24
8270.49
8265.67
8260.76
8255.76
8250.72
8245.63
8240.52
8235.35
8230.14
8224.9
8219.66
8214.43
8209.19
8203.95
8198.77
8193.65
8188.58
8183.65
8178.93
8174.41
8170.18
8166.33
8162.23
8156.15
8145.04
8141.55
8134.54
8128.04
8121.99
8115.54
8108.55
8102.39
8095.85
8089.57
8083.05
8076.82
8070.52
8064.24
8058.05
8051.97
8045.97
8040.23
8034.43
8029.4
8023.45
8016.36
8010.19
8003.97
7997.78
7991.81
7985.86
7979.96
7974.25
7968.64
7963.19
7957.86
7952.67
7947.64
7942.75
7938.07
7933.46
7929.32
7924.79
7919.83
7915.4
7910.99
7906.67
7902.52
7898.46
7894.49
7890.65
7886.92
7883.3
7879.8
7876.42
7873.15
7869.97
7866.91
7863.95
7861.1
7858.34
7855.68
7853.11
7850.64
7848.26
7845.95
7843.73
7841.6
7839.54
7837.55
7835.65
7833.81
7832.04
7830.33
7828.68
7827.1
7825.57
7824.11
7822.69
7821.32
7820
7818.72
7817.5
7816.31
7815.16
7814.05
7812.98
7811.94
7810.93
7809.95
7809.01
7808.09
7807.2
7806.33
7805.48
7804.66
7803.86
7803.08
7802.32
7801.57
7800.84
7800.13
7799.42
7798.73
7798.06
7797.39
7796.74
7796.09
7795.45
7794.83
7794.21
7793.61
7793.01
7792.42
7791.85
7791.28
7790.73
7790.19
7789.66
7789.14
7788.63
7788.14
7787.66
7787.19
7786.74
7786.29
7785.87
7785.45
7785.06
7784.67
7784.31
7783.95
7783.62
7783.3
7782.99
7782.71
7782.43
7782.18
7781.94
7781.72
7781.52
7781.32
7781.15
7781
7780.86
7780.74
7780.64
7780.54
7780.47
7780.41
7780.37
7780.34
7780.32
7780.33
7780.34
7780.37
7780.41
7780.46
7780.53
7780.61
7780.69
7780.79
7780.91
7781.03
7781.16
7781.31
7781.46
7781.62
7781.79
7781.96
7782.15
7782.34
7782.55
7782.75
7782.97
7783.19
7783.42
7783.65
7783.89
7784.14
7784.39
7784.65
7784.91
7785.18
7785.45
7785.73
7786.01
7786.3
7786.59
7786.88
7787.18
7787.48
7787.79
7788.1
7788.41
7788.73
7789.05
7789.37
7789.7
7790.03
7790.37
7790.71
7791.05
7791.39
7791.73
7792.08
7792.43
7792.79
7793.15
7793.51
7793.87
7794.23
7794.6
7794.97
7795.34
7795.71
7796.09
7796.46
7796.84
7797.22
7797.6
7797.99
7798.37
7798.76
7799.15
7799.53
7799.92
7800.32
7800.71
7801.1
7801.5
7801.89
7802.29
7802.69
7803.09
7803.49
7803.88
7804.28
7804.68
7805.08
7805.48
7805.89
7806.29
7806.69
7807.09
7807.49
7807.89
7808.29
7808.68
7809.08
7809.48
7809.88
7810.27
7810.67
7811.06
7811.45
7811.84
7812.23
7812.62
7813.01
7813.39
7813.77
7814.15
7814.53
7814.91
7815.28
7815.65
7816.02
7816.38
7816.75
7817.11
7817.46
7817.82
7818.17
7818.52
7818.86
7819.2
7819.54
7819.87
7820.21
7820.53
7820.86
7821.18
7821.49
7821.81
7822.12
7822.42
7822.72
7823.02
7823.31
7823.6
7823.89
7824.17
7824.45
7824.72
7824.99
7825.26
7825.52
7825.78
7826.03
7826.28
7826.53
7826.77
7827.01
7827.25
7827.48
7827.71
7827.93
7828.15
7828.37
7828.58
7828.79
7829
7829.2
7829.4
7829.59
7829.78
7829.97
7830.16
7830.34
7830.52
7830.69
7830.86
7831.03
7831.2
7831.36
7831.52
7831.68
7831.83
7831.98
7832.13
7832.28
7832.42
7832.56
7832.7
7832.83
7832.96
7833.09
7833.22
7833.34
7833.47
7833.59
7833.7
7833.82
7833.93
7834.04
7834.15
7834.25
7834.36
7834.46
7834.56
7834.65
7834.75
7834.84
7834.94
7835.02
7835.1
7835.19
7835.27
7835.35
7835.43
7835.51
7835.59
7835.66
7835.74
7835.81
7835.88
7835.95
7836.02
7836.09
7836.16
7836.22
7836.28
7836.35
7836.41
7836.47
7836.52
7836.58
7836.64
7836.69
7836.75
7836.8
7836.85
7836.9
7836.95
7837
7837.04
7837.09
7837.14
7837.18
7837.22
7837.26
7837.29
7837.34
7837.37
7837.38
7837.41
7837.44
7837.47
7837.5
7837.53
7837.57
7837.6
7837.63
7837.66
7837.69
7837.73
7837.76
7837.79
7837.82
7837.85
7837.88
7837.92
7837.95
7837.98
7838.01
7838.04
7838.07
7838.1
7838.12
7838.15
7838.18
7838.21
7838.24
7838.26
7838.29
7838.32
7838.35
7838.37
7838.4
7838.42
7838.45
7838.47
7838.5
7838.52
7838.55
7838.57
7838.59
7838.62
7838.64
7838.66
7838.68
7838.7
7838.72
7838.75
7838.77
7838.79
7838.81
7838.83
7838.85
7838.87
7838.88
7838.9
7838.92
7838.94
7838.96
7838.97
7838.99
7839.01
7839.02
7839.04
7839.05
7839.07
7839.09
7839.1
7839.11
7839.13
7839.14
7839.16
7839.17
7839.18
7839.2
7839.21
7839.22
7839.24
8296.79
8302.33
8307.38
8311.63
8315.84
8320.19
8324.26
8327.84
8331.11
8334.29
8337.34
8340.14
8342.69
8344.98
8347.07
8348.95
8350.62
8352.07
8353.3
8354.34
8355.16
8355.76
8356.08
8356.26
8356.27
8356.15
8355.74
8355.02
8354.2
8353.33
8352.08
8350.64
8349.11
8347.48
8345.58
8343.41
8341.07
8338.64
8336.18
8333.46
8330.46
8327.29
8324.06
8320.75
8317.38
8313.73
8309.88
8305.93
8301.97
8297.81
8293.5
8289.12
8284.69
8280.09
8275.34
8270.62
8265.83
8260.84
8255.74
8250.68
8245.61
8240.58
8235.39
8230.09
8224.77
8219.54
8214.35
8209.09
8203.8
8198.54
8193.31
8188.16
8183.08
8178.14
8173.17
8168.24
8163.24
8158.11
8152.83
8148.24
8144.37
8137.98
8125.52
8121.85
8115.02
8108.46
8102.49
8096.09
8089.85
8082.96
8076.79
8070.4
8064.09
8057.82
8051.66
8045.5
8039.55
8033.58
8027.72
8021.9
8015.91
8010.65
8004.58
7997.69
7991.63
7985.57
7979.68
7974
7968.42
7962.94
7957.57
7952.36
7947.28
7942.36
7937.58
7932.9
7928.33
7923.89
7919.46
7915.49
7911.15
7906.48
7902.29
7898.2
7894.24
7890.43
7886.73
7883.08
7879.58
7876.2
7872.95
7869.76
7866.69
7863.73
7860.9
7858.16
7855.48
7852.92
7850.44
7848.09
7845.77
7843.55
7841.42
7839.39
7837.39
7835.49
7833.66
7831.9
7830.19
7828.54
7826.96
7825.44
7824
7822.59
7821.2
7819.88
7818.62
7817.41
7816.23
7815.07
7813.96
7812.9
7811.88
7810.86
7809.88
7808.95
7808.04
7807.14
7806.26
7805.42
7804.62
7803.83
7803.04
7802.26
7801.52
7800.81
7800.1
7799.39
7798.69
7798.02
7797.36
7796.71
7796.07
7795.42
7794.79
7794.19
7793.59
7792.98
7792.39
7791.82
7791.27
7790.71
7790.16
7789.63
7789.11
7788.61
7788.11
7787.63
7787.16
7786.72
7786.26
7785.83
7785.42
7785.03
7784.65
7784.28
7783.93
7783.58
7783.26
7782.96
7782.68
7782.4
7782.14
7781.9
7781.69
7781.49
7781.29
7781.12
7780.96
7780.83
7780.71
7780.61
7780.51
7780.44
7780.38
7780.33
7780.31
7780.29
7780.3
7780.31
7780.34
7780.38
7780.43
7780.5
7780.59
7780.67
7780.77
7780.88
7781.01
7781.14
7781.28
7781.43
7781.59
7781.76
7781.94
7782.13
7782.32
7782.52
7782.74
7782.95
7783.17
7783.4
7783.63
7783.87
7784.12
7784.37
7784.63
7784.9
7785.16
7785.43
7785.71
7786
7786.28
7786.57
7786.86
7787.16
7787.46
7787.77
7788.09
7788.4
7788.71
7789.03
7789.36
7789.69
7790.02
7790.35
7790.69
7791.03
7791.37
7791.72
7792.07
7792.42
7792.78
7793.13
7793.49
7793.86
7794.22
7794.59
7794.95
7795.33
7795.7
7796.08
7796.45
7796.83
7797.21
7797.59
7797.98
7798.36
7798.75
7799.14
7799.52
7799.92
7800.31
7800.7
7801.09
7801.49
7801.89
7802.28
7802.68
7803.08
7803.48
7803.88
7804.28
7804.68
7805.08
7805.48
7805.88
7806.28
7806.68
7807.08
7807.48
7807.88
7808.28
7808.68
7809.08
7809.48
7809.87
7810.27
7810.67
7811.06
7811.45
7811.84
7812.23
7812.62
7813.01
7813.39
7813.77
7814.15
7814.53
7814.91
7815.28
7815.65
7816.02
7816.39
7816.75
7817.11
7817.47
7817.82
7818.17
7818.52
7818.87
7819.21
7819.55
7819.88
7820.21
7820.54
7820.86
7821.18
7821.5
7821.81
7822.12
7822.43
7822.73
7823.03
7823.32
7823.61
7823.89
7824.18
7824.45
7824.73
7825
7825.27
7825.53
7825.79
7826.04
7826.29
7826.54
7826.78
7827.02
7827.25
7827.49
7827.71
7827.94
7828.16
7828.37
7828.59
7828.8
7829
7829.2
7829.4
7829.6
7829.79
7829.98
7830.16
7830.35
7830.52
7830.7
7830.87
7831.04
7831.21
7831.37
7831.53
7831.68
7831.84
7831.99
7832.14
7832.28
7832.42
7832.56
7832.7
7832.84
7832.97
7833.1
7833.22
7833.35
7833.47
7833.59
7833.71
7833.82
7833.93
7834.05
7834.15
7834.26
7834.36
7834.46
7834.56
7834.66
7834.76
7834.84
7834.93
7835.02
7835.11
7835.19
7835.27
7835.35
7835.43
7835.51
7835.59
7835.66
7835.74
7835.81
7835.88
7835.95
7836.02
7836.09
7836.16
7836.22
7836.29
7836.35
7836.41
7836.47
7836.52
7836.58
7836.64
7836.69
7836.75
7836.8
7836.85
7836.9
7836.95
7837
7837.05
7837.09
7837.14
7837.18
7837.25
7837.28
7837.32
7837.36
7837.41
7837.43
7837.46
7837.49
7837.51
7837.54
7837.57
7837.6
7837.63
7837.66
7837.69
7837.72
7837.75
7837.78
7837.81
7837.84
7837.87
7837.9
7837.93
7837.96
7837.99
7838.02
7838.05
7838.08
7838.1
7838.13
7838.16
7838.19
7838.22
7838.24
7838.27
7838.3
7838.33
7838.35
7838.38
7838.4
7838.43
7838.45
7838.48
7838.5
7838.53
7838.55
7838.57
7838.6
7838.62
7838.64
7838.66
7838.69
7838.71
7838.73
7838.75
7838.77
7838.79
7838.81
7838.83
7838.85
7838.87
7838.89
7838.91
7838.92
7838.94
7838.96
7838.98
7838.99
7839.01
7839.03
7839.04
7839.06
7839.07
7839.09
7839.1
7839.12
7839.13
7839.15
7839.16
7839.17
7839.19
7839.2
7839.21
7839.22
7839.24
8297.88
8303.41
8308.44
8312.67
8316.89
8321.24
8325.3
8328.86
8332.12
8335.29
8338.35
8341.14
8343.66
8345.99
8348.11
8350
8351.67
8353.12
8354.36
8355.38
8356.19
8356.79
8357.11
8357.2
8357.31
8357.15
8356.64
8355.88
8355.07
8354.24
8353.07
8351.49
8349.85
8348.09
8346.27
8344.38
8342.03
8339.37
8336.8
8334.19
8331.35
8328.19
8324.67
8321.37
8318.03
8314.41
8310.55
8306.43
8302.35
8298.17
8294
8289.62
8285.07
8280.33
8275.63
8270.83
8266.12
8261.18
8255.96
8250.8
8245.71
8240.7
8235.44
8229.98
8224.68
8219.47
8214.25
8208.89
8203.52
8198.12
8192.8
8187.59
8182.38
8177.13
8171.9
8166.66
8161.29
8155.96
8150.65
8145.07
8139.28
8133.52
8128.59
8124.68
8118.32
8105.73
8101.67
8095.27
8089.21
8082.62
8076.62
8070.33
8063.57
8057.39
8051.11
8044.95
8038.86
8032.8
8026.76
8020.78
8014.7
8008.73
8002.79
7996.95
7991.77
7985.86
7979.28
7973.48
7967.82
7962.41
7957.04
7951.86
7946.76
7941.76
7936.91
7932.22
7927.6
7923.04
7918.57
7914.26
7910.07
7905.89
7902.09
7898.12
7893.87
7890
7886.26
7882.67
7879.17
7875.79
7872.53
7869.37
7866.3
7863.35
7860.52
7857.76
7855.1
7852.56
7850.12
7847.74
7845.42
7843.24
7841.13
7839.07
7837.08
7835.22
7833.4
7831.62
7829.9
7828.31
7826.74
7825.2
7823.78
7822.38
7821
7819.67
7818.44
7817.24
7816.05
7814.9
7813.8
7812.76
7811.74
7810.73
7809.74
7808.81
7807.92
7807.04
7806.17
7805.31
7804.53
7803.75
7802.95
7802.18
7801.46
7800.74
7800.02
7799.33
7798.65
7797.98
7797.31
7796.65
7796
7795.37
7794.76
7794.15
7793.55
7792.95
7792.36
7791.78
7791.21
7790.66
7790.13
7789.6
7789.08
7788.56
7788.05
7787.59
7787.13
7786.67
7786.23
7785.79
7785.37
7784.99
7784.6
7784.24
7783.86
7783.52
7783.22
7782.92
7782.62
7782.34
7782.1
7781.87
7781.64
7781.44
7781.24
7781.07
7780.92
7780.77
7780.67
7780.56
7780.47
7780.38
7780.32
7780.29
7780.27
7780.25
7780.25
7780.27
7780.29
7780.33
7780.4
7780.46
7780.54
7780.63
7780.73
7780.83
7780.95
7781.09
7781.24
7781.4
7781.56
7781.73
7781.91
7782.1
7782.28
7782.48
7782.7
7782.92
7783.14
7783.37
7783.6
7783.84
7784.09
7784.35
7784.6
7784.86
7785.12
7785.41
7785.69
7785.97
7786.25
7786.54
7786.83
7787.14
7787.44
7787.75
7788.06
7788.37
7788.69
7789.01
7789.33
7789.66
7789.99
7790.33
7790.67
7791.01
7791.35
7791.7
7792.05
7792.4
7792.76
7793.11
7793.47
7793.84
7794.2
7794.57
7794.94
7795.31
7795.68
7796.06
7796.43
7796.81
7797.19
7797.58
7797.96
7798.34
7798.73
7799.12
7799.51
7799.9
7800.29
7800.69
7801.08
7801.48
7801.87
7802.27
7802.67
7803.07
7803.47
7803.87
7804.27
7804.67
7805.07
7805.47
7805.87
7806.27
7806.68
7807.08
7807.48
7807.88
7808.28
7808.68
7809.08
7809.47
7809.87
7810.27
7810.66
7811.06
7811.45
7811.84
7812.23
7812.62
7813.01
7813.39
7813.78
7814.16
7814.54
7814.91
7815.29
7815.66
7816.03
7816.39
7816.76
7817.12
7817.48
7817.83
7818.18
7818.53
7818.88
7819.22
7819.56
7819.89
7820.22
7820.55
7820.87
7821.2
7821.51
7821.82
7822.13
7822.44
7822.74
7823.04
7823.33
7823.62
7823.91
7824.19
7824.47
7824.74
7825.01
7825.28
7825.54
7825.8
7826.06
7826.31
7826.55
7826.8
7827.03
7827.27
7827.5
7827.73
7827.95
7828.17
7828.39
7828.6
7828.81
7829.02
7829.22
7829.42
7829.61
7829.8
7829.99
7830.18
7830.36
7830.54
7830.71
7830.88
7831.05
7831.22
7831.38
7831.54
7831.7
7831.85
7832
7832.15
7832.29
7832.44
7832.58
7832.71
7832.85
7832.98
7833.11
7833.24
7833.36
7833.48
7833.6
7833.72
7833.83
7833.94
7834.05
7834.16
7834.27
7834.38
7834.48
7834.57
7834.66
7834.76
7834.85
7834.94
7835.02
7835.11
7835.19
7835.28
7835.36
7835.44
7835.52
7835.59
7835.67
7835.75
7835.82
7835.89
7835.96
7836.03
7836.1
7836.16
7836.23
7836.29
7836.35
7836.41
7836.47
7836.53
7836.59
7836.64
7836.7
7836.75
7836.81
7836.86
7836.91
7836.95
7837.01
7837.05
7837.12
7837.15
7837.17
7837.19
7837.22
7837.24
7837.28
7837.31
7837.35
7837.38
7837.42
7837.45
7837.49
7837.52
7837.56
7837.59
7837.62
7837.66
7837.69
7837.72
7837.76
7837.79
7837.82
7837.85
7837.89
7837.92
7837.95
7837.98
7838.01
7838.04
7838.07
7838.1
7838.13
7838.16
7838.18
7838.21
7838.24
7838.27
7838.29
7838.32
7838.35
7838.37
7838.4
7838.42
7838.45
7838.47
7838.5
7838.52
7838.55
7838.57
7838.59
7838.62
7838.64
7838.66
7838.68
7838.71
7838.73
7838.75
7838.77
7838.79
7838.81
7838.83
7838.85
7838.87
7838.89
7838.9
7838.92
7838.94
7838.96
7838.97
7838.99
7839.01
7839.02
7839.04
7839.06
7839.07
7839.09
7839.1
7839.12
7839.13
7839.14
7839.16
7839.17
7839.18
7839.2
7839.21
7839.22
7839.24
8299.5
8305.06
8310.08
8314.3
8318.52
8322.88
8326.96
8330.53
8333.79
8336.96
8340.01
8342.82
8345.36
8347.66
8349.75
8351.62
8353.27
8354.71
8355.93
8356.94
8357.73
8358.33
8358.68
8358.82
8358.83
8358.63
8358.18
8357.38
8356.59
8355.69
8354.52
8353.08
8351.1
8349.34
8347.67
8345.68
8343.39
8340.84
8338.16
8335.39
8332.47
8329.35
8326.03
8322.59
8319.03
8315.35
8311.5
8307.47
8303.32
8299.07
8294.73
8290.29
8285.77
8281.1
8276.29
8271.5
8266.64
8261.59
8256.23
8251.07
8246.14
8240.89
8235.31
8229.95
8224.63
8219.47
8213.86
8208.38
8203.03
8197.74
8192.18
8186.65
8181.2
8175.9
8170.54
8164.99
8159.38
8153.84
8148.34
8142.69
8136.83
8130.99
8125.14
8118.98
8112.65
8107.24
8102.73
8098.18
8092.15
8080.65
8076.27
8069.66
8063.1
8057.02
8050.78
8044.05
8037.9
8031.71
8025.65
8019.6
8013.57
8007.52
8001.61
7995.63
7989.77
7983.91
7978.19
7972.73
7967.75
7962.31
7956.34
7951.12
7945.99
7940.94
7936.01
7931.29
7926.65
7922.11
7917.64
7913.28
7909.07
7904.89
7900.84
7896.92
7893.09
7889.58
7885.87
7882.04
7878.55
7875.17
7871.88
7868.74
7865.7
7862.77
7859.93
7857.19
7854.53
7852.02
7849.58
7847.23
7844.92
7842.76
7840.65
7838.59
7836.65
7834.79
7832.98
7831.2
7829.5
7827.92
7826.38
7824.88
7823.43
7822.01
7820.68
7819.4
7818.16
7816.97
7815.8
7814.66
7813.56
7812.52
7811.53
7810.52
7809.54
7808.64
7807.76
7806.88
7806
7805.16
7804.39
7803.62
7802.82
7802.05
7801.35
7800.63
7799.91
7799.22
7798.56
7797.89
7797.2
7796.57
7795.93
7795.29
7794.67
7794.06
7793.48
7792.86
7792.26
7791.71
7791.15
7790.6
7790.02
7789.52
7789.02
7788.51
7787.98
7787.49
7787.05
7786.61
7786.13
7785.7
7785.29
7784.91
7784.53
7784.14
7783.77
7783.44
7783.13
7782.84
7782.52
7782.25
7782
7781.77
7781.54
7781.35
7781.16
7780.97
7780.81
7780.69
7780.58
7780.45
7780.38
7780.31
7780.25
7780.19
7780.16
7780.16
7780.17
7780.18
7780.21
7780.26
7780.31
7780.38
7780.47
7780.55
7780.65
7780.76
7780.89
7781.04
7781.19
7781.34
7781.48
7781.66
7781.85
7782.03
7782.22
7782.43
7782.65
7782.87
7783.08
7783.32
7783.56
7783.8
7784.04
7784.29
7784.55
7784.8
7785.08
7785.36
7785.64
7785.92
7786.21
7786.5
7786.79
7787.09
7787.39
7787.7
7788.02
7788.33
7788.64
7788.96
7789.3
7789.63
7789.95
7790.28
7790.63
7790.97
7791.31
7791.66
7792.01
7792.36
7792.72
7793.08
7793.44
7793.8
7794.17
7794.53
7794.9
7795.27
7795.65
7796.03
7796.4
7796.78
7797.16
7797.55
7797.93
7798.32
7798.71
7799.09
7799.48
7799.88
7800.27
7800.66
7801.06
7801.45
7801.85
7802.25
7802.65
7803.05
7803.45
7803.85
7804.25
7804.65
7805.05
7805.46
7805.86
7806.26
7806.66
7807.06
7807.47
7807.87
7808.27
7808.67
7809.07
7809.47
7809.87
7810.26
7810.66
7811.05
7811.45
7811.84
7812.23
7812.62
7813.01
7813.39
7813.78
7814.16
7814.54
7814.92
7815.29
7815.66
7816.03
7816.4
7816.77
7817.13
7817.49
7817.84
7818.19
7818.54
7818.89
7819.23
7819.57
7819.91
7820.24
7820.57
7820.89
7821.21
7821.53
7821.84
7822.15
7822.46
7822.76
7823.06
7823.35
7823.64
7823.93
7824.21
7824.49
7824.76
7825.03
7825.3
7825.56
7825.82
7826.08
7826.33
7826.57
7826.82
7827.06
7827.29
7827.52
7827.75
7827.97
7828.19
7828.41
7828.62
7828.83
7829.04
7829.24
7829.44
7829.63
7829.82
7830.01
7830.2
7830.38
7830.56
7830.73
7830.9
7831.07
7831.24
7831.4
7831.56
7831.71
7831.87
7832.02
7832.17
7832.31
7832.45
7832.59
7832.73
7832.86
7832.99
7833.12
7833.25
7833.38
7833.5
7833.62
7833.73
7833.85
7833.96
7834.08
7834.18
7834.28
7834.38
7834.48
7834.57
7834.67
7834.76
7834.85
7834.94
7835.03
7835.12
7835.2
7835.29
7835.37
7835.45
7835.53
7835.6
7835.68
7835.76
7835.83
7835.9
7835.97
7836.04
7836.1
7836.17
7836.24
7836.3
7836.36
7836.42
7836.48
7836.54
7836.6
7836.65
7836.7
7836.76
7836.81
7836.86
7836.91
7836.99
7837.03
7837.06
7837.1
7837.15
7837.19
7837.23
7837.27
7837.3
7837.33
7837.37
7837.4
7837.43
7837.46
7837.49
7837.52
7837.55
7837.59
7837.62
7837.65
7837.68
7837.71
7837.74
7837.77
7837.8
7837.84
7837.87
7837.9
7837.93
7837.96
7837.99
7838.02
7838.05
7838.08
7838.1
7838.13
7838.16
7838.19
7838.22
7838.25
7838.27
7838.3
7838.33
7838.35
7838.38
7838.41
7838.43
7838.46
7838.48
7838.5
7838.53
7838.55
7838.58
7838.6
7838.62
7838.64
7838.67
7838.69
7838.71
7838.73
7838.75
7838.77
7838.79
7838.81
7838.83
7838.85
7838.87
7838.89
7838.91
7838.93
7838.94
7838.96
7838.98
7839
7839.01
7839.03
7839.04
7839.06
7839.08
7839.09
7839.11
7839.12
7839.13
7839.15
7839.16
7839.17
7839.19
7839.2
7839.21
7839.22
7839.24
8301.67
8307.23
8312.24
8316.45
8320.68
8325.05
8329.14
8332.71
8335.98
8339.15
8342.2
8344.99
8347.53
8349.83
8351.91
8353.78
8355.42
8356.84
8358.04
8359.03
8359.81
8360.39
8360.75
8360.9
8360.85
8360.6
8360.15
8359.5
8358.63
8357.58
8356.34
8354.91
8353.25
8351.42
8349.44
8347.31
8344.98
8342.47
8339.8
8336.96
8333.96
8330.8
8327.49
8324.01
8320.37
8316.59
8312.69
8308.66
8304.5
8300.21
8295.78
8291.24
8286.66
8281.96
8277.15
8272.26
8267.27
8262.17
8256.83
8251.62
8246.52
8241.18
8235.51
8229.92
8224.61
8219.39
8213.7
8207.99
8202.57
8197.2
8191.59
8185.76
8180.11
8174.48
8169.02
8163.48
8157.78
8152.06
8146.2
8140.24
8134.42
8128.54
8122.75
8117.06
8111.1
8105.07
8099.06
8093.2
8087.42
8082.26
8077.95
8071.82
8060.3
8056.03
8049.64
8043.1
8036.98
8030.8
8024.22
8018.25
8012.18
8006.04
8000.09
7994.27
7988.33
7982.54
7976.85
7971.31
7965.81
7960.34
7955.1
7950.4
7945.36
7939.87
7934.86
7930.06
7925.37
7920.89
7916.44
7912.03
7907.77
7903.63
7899.68
7895.76
7891.88
7888.15
7884.54
7881.02
7877.82
7874.48
7871.05
7867.9
7864.86
7861.9
7859.09
7856.43
7853.85
7851.3
7848.82
7846.48
7844.23
7842.1
7840.04
7838
7836.02
7834.16
7832.36
7830.69
7829.04
7827.42
7825.85
7824.37
7822.98
7821.56
7820.23
7818.98
7817.79
7816.62
7815.43
7814.32
7813.28
7812.21
7811.2
7810.23
7809.31
7808.41
7807.5
7806.63
7805.8
7804.99
7804.18
7803.41
7802.68
7801.9
7801.17
7800.46
7799.79
7799.11
7798.4
7797.74
7797.08
7796.45
7795.79
7795.17
7794.58
7793.98
7793.36
7792.75
7792.16
7791.61
7791.02
7790.47
7789.93
7789.43
7788.94
7788.42
7787.88
7787.39
7786.92
7786.49
7786.06
7785.61
7785.17
7784.77
7784.38
7784.01
7783.68
7783.37
7783.02
7782.69
7782.4
7782.14
7781.87
7781.63
7781.41
7781.24
7781.02
7780.85
7780.69
7780.56
7780.47
7780.33
7780.24
7780.17
7780.13
7780.1
7780.05
7780.04
7780.04
7780.06
7780.1
7780.14
7780.19
7780.27
7780.38
7780.45
7780.55
7780.67
7780.79
7780.95
7781.1
7781.23
7781.4
7781.58
7781.75
7781.94
7782.14
7782.36
7782.58
7782.78
7783
7783.23
7783.47
7783.72
7783.96
7784.22
7784.48
7784.74
7785.01
7785.29
7785.58
7785.86
7786.14
7786.43
7786.73
7787.03
7787.33
7787.64
7787.95
7788.26
7788.58
7788.91
7789.25
7789.58
7789.9
7790.23
7790.57
7790.91
7791.26
7791.6
7791.96
7792.32
7792.67
7793.03
7793.39
7793.75
7794.12
7794.49
7794.86
7795.23
7795.6
7795.98
7796.36
7796.74
7797.12
7797.51
7797.89
7798.28
7798.67
7799.06
7799.45
7799.84
7800.24
7800.63
7801.03
7801.42
7801.82
7802.22
7802.62
7803.02
7803.42
7803.82
7804.23
7804.63
7805.03
7805.43
7805.84
7806.24
7806.64
7807.05
7807.45
7807.85
7808.25
7808.66
7809.06
7809.46
7809.86
7810.26
7810.65
7811.05
7811.44
7811.84
7812.23
7812.62
7813.01
7813.4
7813.78
7814.16
7814.55
7814.92
7815.3
7815.67
7816.04
7816.41
7816.78
7817.14
7817.5
7817.86
7818.21
7818.56
7818.91
7819.25
7819.59
7819.93
7820.26
7820.59
7820.91
7821.24
7821.55
7821.87
7822.18
7822.48
7822.79
7823.08
7823.38
7823.67
7823.96
7824.24
7824.52
7824.79
7825.06
7825.33
7825.59
7825.85
7826.11
7826.36
7826.6
7826.85
7827.08
7827.32
7827.55
7827.78
7828
7828.22
7828.44
7828.65
7828.86
7829.06
7829.27
7829.46
7829.66
7829.85
7830.04
7830.22
7830.4
7830.58
7830.76
7830.93
7831.1
7831.26
7831.42
7831.58
7831.74
7831.89
7832.04
7832.19
7832.33
7832.48
7832.62
7832.75
7832.89
7833.02
7833.15
7833.27
7833.39
7833.52
7833.64
7833.76
7833.87
7833.97
7834.08
7834.18
7834.29
7834.39
7834.49
7834.58
7834.68
7834.77
7834.86
7834.95
7835.04
7835.13
7835.21
7835.3
7835.38
7835.46
7835.54
7835.61
7835.69
7835.76
7835.84
7835.91
7835.98
7836.05
7836.12
7836.18
7836.25
7836.31
7836.37
7836.44
7836.49
7836.55
7836.6
7836.66
7836.72
7836.76
7836.84
7836.88
7836.91
7836.95
7836.98
7837.02
7837.06
7837.1
7837.13
7837.17
7837.21
7837.25
7837.29
7837.33
7837.36
7837.4
7837.43
7837.47
7837.5
7837.54
7837.57
7837.6
7837.64
7837.67
7837.7
7837.74
7837.77
7837.8
7837.83
7837.86
7837.89
7837.93
7837.96
7837.99
7838.02
7838.05
7838.08
7838.1
7838.13
7838.16
7838.19
7838.22
7838.25
7838.27
7838.3
7838.33
7838.35
7838.38
7838.41
7838.43
7838.46
7838.48
7838.51
7838.53
7838.55
7838.58
7838.6
7838.62
7838.65
7838.67
7838.69
7838.71
7838.73
7838.75
7838.77
7838.8
7838.82
7838.83
7838.85
7838.87
7838.89
7838.91
7838.93
7838.95
7838.96
7838.98
7839
7839.01
7839.03
7839.05
7839.06
7839.08
7839.09
7839.11
7839.12
7839.14
7839.15
7839.16
7839.18
7839.19
7839.2
7839.22
7839.23
7839.24
8304.39
8309.97
8314.95
8319.16
8323.39
8327.76
8331.85
8335.42
8338.67
8341.83
8344.88
8347.7
8350.2
8352.47
8354.53
8356.39
8358.03
8359.46
8360.66
8361.64
8362.41
8362.97
8363.32
8363.45
8363.38
8363.11
8362.64
8361.96
8361.06
8359.96
8358.67
8357.19
8355.52
8353.66
8351.61
8349.38
8346.97
8344.4
8341.67
8338.77
8335.71
8332.48
8329.11
8325.58
8321.88
8318.04
8314.07
8309.99
8305.76
8301.35
8296.79
8292.25
8287.66
8282.89
8278
8273.03
8267.96
8262.8
8257.49
8252.21
8246.92
8241.49
8235.87
8230.16
8224.8
8219.25
8213.6
8207.9
8202.26
8196.59
8190.86
8185.1
8179.19
8173.4
8167.72
8161.97
8156.15
8150.29
8144.32
8138.18
8132.31
8126.49
8120.63
8114.61
8108.47
8102.45
8096.61
8090.83
8084.97
8079
8072.85
8066.81
8061.63
8057.39
8051.42
8040.25
8035.63
8029.42
8022.89
8016.9
8010.9
8004.53
7998.58
7992.6
7986.64
7980.89
7975.27
7969.65
7964.19
7958.7
7953.48
7948.34
7943.28
7938.29
7933.73
7929.02
7924.02
7919.38
7914.88
7910.57
7906.35
7902.2
7898.17
7894.27
7890.49
7886.79
7883.18
7879.68
7876.34
7873.04
7869.85
7866.97
7864.02
7860.92
7858.06
7855.38
7852.88
7850.36
7847.95
7845.64
7843.44
7841.32
7839.24
7837.22
7835.3
7833.47
7831.72
7830.04
7828.38
7826.79
7825.29
7823.84
7822.42
7821.07
7819.77
7818.53
7817.34
7816.14
7815
7813.93
7812.9
7811.86
7810.87
7809.93
7809.02
7808.11
7807.21
7806.38
7805.58
7804.77
7803.97
7803.22
7802.48
7801.73
7801
7800.32
7799.64
7798.95
7798.27
7797.61
7796.98
7796.33
7795.69
7795.09
7794.48
7793.86
7793.24
7792.67
7792.09
7791.52
7790.96
7790.41
7789.86
7789.32
7788.81
7788.33
7787.81
7787.31
7786.85
7786.4
7785.94
7785.5
7785.08
7784.68
7784.3
7783.92
7783.57
7783.24
7782.9
7782.58
7782.28
7782.03
7781.78
7781.53
7781.29
7781.08
7780.89
7780.75
7780.6
7780.45
7780.29
7780.19
7780.13
7780.08
7780.02
7779.97
7779.94
7779.92
7779.91
7779.93
7779.99
7780.06
7780.1
7780.16
7780.27
7780.36
7780.44
7780.55
7780.71
7780.84
7780.97
7781.13
7781.31
7781.5
7781.66
7781.87
7782.08
7782.28
7782.47
7782.69
7782.92
7783.15
7783.39
7783.65
7783.9
7784.14
7784.4
7784.67
7784.96
7785.22
7785.5
7785.78
7786.07
7786.37
7786.66
7786.96
7787.26
7787.58
7787.88
7788.19
7788.52
7788.85
7789.18
7789.52
7789.84
7790.17
7790.51
7790.86
7791.21
7791.56
7791.91
7792.26
7792.62
7792.98
7793.34
7793.7
7794.07
7794.44
7794.81
7795.18
7795.56
7795.94
7796.32
7796.7
7797.08
7797.47
7797.85
7798.24
7798.63
7799.02
7799.41
7799.81
7800.2
7800.6
7800.99
7801.39
7801.79
7802.19
7802.59
7802.99
7803.4
7803.8
7804.2
7804.61
7805.01
7805.41
7805.82
7806.22
7806.63
7807.03
7807.44
7807.84
7808.24
7808.65
7809.05
7809.45
7809.85
7810.25
7810.65
7811.05
7811.44
7811.84
7812.23
7812.62
7813.01
7813.4
7813.79
7814.17
7814.56
7814.94
7815.31
7815.69
7816.06
7816.43
7816.8
7817.16
7817.52
7817.88
7818.23
7818.58
7818.93
7819.28
7819.62
7819.95
7820.29
7820.62
7820.94
7821.27
7821.59
7821.9
7822.21
7822.52
7822.82
7823.12
7823.41
7823.71
7823.99
7824.27
7824.55
7824.83
7825.1
7825.37
7825.63
7825.89
7826.14
7826.39
7826.64
7826.88
7827.12
7827.36
7827.59
7827.81
7828.04
7828.26
7828.47
7828.69
7828.89
7829.1
7829.3
7829.5
7829.69
7829.88
7830.07
7830.26
7830.44
7830.62
7830.79
7830.96
7831.13
7831.29
7831.46
7831.62
7831.77
7831.92
7832.07
7832.22
7832.36
7832.51
7832.65
7832.78
7832.91
7833.04
7833.17
7833.3
7833.43
7833.55
7833.66
7833.77
7833.88
7833.99
7834.09
7834.2
7834.3
7834.4
7834.5
7834.6
7834.69
7834.79
7834.88
7834.97
7835.06
7835.15
7835.23
7835.31
7835.39
7835.47
7835.55
7835.63
7835.7
7835.78
7835.85
7835.92
7835.99
7836.06
7836.13
7836.19
7836.27
7836.32
7836.39
7836.44
7836.51
7836.56
7836.65
7836.69
7836.73
7836.77
7836.81
7836.86
7836.91
7836.96
7837
7837.04
7837.08
7837.12
7837.16
7837.19
7837.23
7837.27
7837.3
7837.34
7837.37
7837.41
7837.44
7837.48
7837.51
7837.55
7837.58
7837.61
7837.64
7837.68
7837.71
7837.74
7837.77
7837.81
7837.84
7837.87
7837.9
7837.93
7837.96
7837.99
7838.02
7838.05
7838.08
7838.11
7838.14
7838.17
7838.2
7838.22
7838.25
7838.28
7838.31
7838.33
7838.36
7838.39
7838.41
7838.44
7838.46
7838.49
7838.51
7838.54
7838.56
7838.58
7838.61
7838.63
7838.65
7838.67
7838.69
7838.72
7838.74
7838.76
7838.78
7838.8
7838.82
7838.84
7838.86
7838.88
7838.9
7838.91
7838.93
7838.95
7838.97
7838.99
7839
7839.02
7839.04
7839.05
7839.07
7839.08
7839.1
7839.11
7839.13
7839.14
7839.15
7839.17
7839.18
7839.19
7839.21
7839.22
7839.23
7839.25
8307.65
8313.19
8318.24
8322.44
8326.67
8331.02
8335.1
8338.66
8341.89
8345.03
8348.07
8350.86
8353.35
8355.61
8357.66
8359.5
8361.11
8362.52
8363.71
8364.69
8365.45
8365.98
8366.3
8366.4
8366.29
8365.97
8365.47
8364.75
8363.82
8362.68
8361.35
8359.81
8358.08
8356.17
8354.09
8351.81
8349.34
8346.68
8343.87
8340.9
8337.73
8334.12
8330.71
8327.36
8323.59
8319.39
8315.37
8311.48
8307.2
8302.46
8297.48
8293.21
8288.76
8283.86
8278.85
8273.84
8268.69
8263.42
8258.12
8252.81
8247.37
8241.84
8236.24
8230.56
8224.69
8219.02
8213.36
8207.57
8201.74
8195.91
8190.06
8184.17
8178.26
8172.21
8166.27
8160.4
8154.46
8148.47
8142.38
8136.35
8130.36
8124.31
8118.25
8112.01
8105.98
8100.05
8094.04
8088.04
8081.9
8075.92
8070.09
8064.18
8058.2
8052.06
8045.93
8040.73
8036.49
8030.63
8019.81
8014.95
8009.06
8002.71
7996.88
7991.04
7984.83
7979.05
7973.28
7967.68
7962.26
7956.88
7951.62
7946.49
7941.44
7936.38
7931.53
7926.83
7922.22
7917.94
7913.42
7908.88
7904.64
7900.53
7896.5
7892.58
7888.84
7885.17
7881.61
7878.15
7874.81
7871.57
7868.38
7865.38
7862.42
7859.61
7856.9
7854.43
7851.91
7849.29
7846.91
7844.63
7842.41
7840.34
7838.31
7836.35
7834.47
7832.66
7830.91
7829.22
7827.55
7826.09
7824.61
7823.18
7821.75
7820.48
7819.21
7817.98
7816.79
7815.59
7814.54
7813.48
7812.46
7811.47
7810.51
7809.57
7808.67
7807.78
7806.91
7806.11
7805.3
7804.51
7803.75
7803
7802.26
7801.55
7800.83
7800.15
7799.47
7798.8
7798.13
7797.46
7796.84
7796.21
7795.58
7794.98
7794.37
7793.76
7793.14
7792.58
7792
7791.43
7790.87
7790.32
7789.78
7789.23
7788.67
7788.21
7787.72
7787.23
7786.75
7786.29
7785.81
7785.4
7784.98
7784.57
7784.15
7783.81
7783.45
7783.1
7782.76
7782.46
7782.17
7781.86
7781.64
7781.4
7781.17
7780.96
7780.75
7780.56
7780.45
7780.31
7780.19
7780.07
7779.96
7779.93
7779.88
7779.84
7779.81
7779.78
7779.81
7779.83
7779.82
7779.91
7779.98
7780.05
7780.14
7780.24
7780.33
7780.44
7780.6
7780.74
7780.88
7781.02
7781.22
7781.39
7781.57
7781.75
7781.97
7782.18
7782.39
7782.59
7782.84
7783.08
7783.32
7783.56
7783.81
7784.07
7784.33
7784.57
7784.86
7785.14
7785.42
7785.7
7785.97
7786.29
7786.59
7786.89
7787.19
7787.5
7787.82
7788.12
7788.44
7788.77
7789.11
7789.44
7789.77
7790.11
7790.45
7790.78
7791.14
7791.49
7791.84
7792.2
7792.56
7792.92
7793.27
7793.65
7794.01
7794.38
7794.75
7795.12
7795.51
7795.88
7796.27
7796.65
7797.03
7797.42
7797.8
7798.19
7798.59
7798.98
7799.37
7799.77
7800.16
7800.56
7800.96
7801.36
7801.76
7802.16
7802.56
7802.96
7803.36
7803.77
7804.17
7804.58
7804.98
7805.39
7805.79
7806.2
7806.61
7807.01
7807.42
7807.82
7808.23
7808.63
7809.04
7809.44
7809.84
7810.25
7810.65
7811.05
7811.44
7811.84
7812.24
7812.63
7813.02
7813.41
7813.8
7814.19
7814.57
7814.95
7815.33
7815.71
7816.08
7816.45
7816.82
7817.18
7817.55
7817.91
7818.26
7818.61
7818.96
7819.31
7819.65
7819.99
7820.32
7820.65
7820.98
7821.3
7821.62
7821.94
7822.25
7822.56
7822.86
7823.16
7823.46
7823.75
7824.03
7824.32
7824.6
7824.87
7825.14
7825.41
7825.67
7825.93
7826.19
7826.44
7826.68
7826.93
7827.17
7827.4
7827.63
7827.86
7828.08
7828.3
7828.52
7828.73
7828.94
7829.14
7829.34
7829.54
7829.74
7829.93