/*--------------------------------*- C++ -*----------------------------------*\
| =========                 |                                                 |
| \\      /  F ield         | OpenFOAM: The Open Source CFD Toolbox           |
|  \\    /   O peration     | Version:  v2006                                 |
|   \\  /    A nd           | Website:  www.openfoam.com                      |
|    \\/     M anipulation  |                                                 |
\*---------------------------------------------------------------------------*/
FoamFile
{
    version     2.0;
    format      ascii;
    class       volScalarField;
    location    "2.8";
    object      p;
}
// * * * * * * * * * * * * * * * * * * * * * * * * * * * * * * * * * * * * * //

dimensions      [1 -1 -2 0 0 0 0];


internalField   nonuniform List<scalar> 
33000
(
7840.25
7856.42
7871.59
7884.43
7896.58
7908.81
7920.97
7932.76
7944.16
7955.26
7966.16
7976.83
7987.18
7997.21
8006.97
8016.45
8025.64
8034.55
8043.17
8051.51
8059.58
8067.35
8074.84
8082.06
8089.01
8095.69
8102.06
8108.18
8114.05
8119.66
8124.98
8130.01
8134.79
8139.32
8143.6
8147.6
8151.35
8154.88
8158.15
8161.16
8163.92
8166.43
8168.73
8170.8
8172.63
8174.23
8175.59
8176.73
8177.66
8178.37
8178.87
8179.16
8179.27
8179.17
8178.87
8178.38
8177.74
8176.93
8175.93
8174.75
8173.42
8171.97
8170.4
8168.67
8166.81
8164.84
8162.78
8160.65
8158.41
8156.12
8153.79
8151.46
8149.15
8146.94
8144.9
8142.99
8141.32
8139.07
8133.24
8122.31
8122.84
8116.91
8112.2
8107.93
8103.03
8097.24
8092.64
8087.64
8082.56
8077.28
8072.17
8066.89
8061.62
8056.39
8051.26
8046.09
8041.38
8036.39
8032.7
8027.19
8019.22
8013.05
8006.48
7999.89
7993.56
7987.04
7980.42
7973.98
7967.59
7961.33
7955.14
7949.08
7943.15
7937.31
7931.79
7926.23
7921.48
7915.84
7909.07
7903.31
7897.45
7891.62
7886.02
7880.44
7874.88
7869.49
7864.2
7859.01
7853.96
7849.02
7844.21
7839.51
7834.93
7830.48
7826.15
7821.94
7817.84
7813.87
7810.01
7806.27
7802.63
7799.11
7795.69
7792.39
7789.18
7786.09
7783.09
7780.19
7777.39
7774.68
7772.06
7769.54
7767.11
7764.75
7762.47
7760.28
7758.16
7756.11
7754.14
7752.23
7750.38
7748.6
7746.88
7745.22
7743.61
7742.06
7740.56
7739.1
7737.69
7736.33
7735.01
7733.74
7732.49
7731.29
7730.12
7728.99
7727.89
7726.82
7725.78
7724.76
7723.77
7722.81
7721.86
7720.94
7720.04
7719.15
7718.29
7717.43
7716.59
7715.77
7714.96
7714.16
7713.38
7712.61
7711.84
7711.1
7710.36
7709.64
7708.93
7708.23
7707.54
7706.87
7706.2
7705.56
7704.92
7704.3
7703.69
7703.1
7702.52
7701.95
7701.4
7700.86
7700.33
7699.82
7699.32
7698.84
7698.37
7697.92
7697.48
7697.06
7696.65
7696.25
7695.87
7695.51
7695.15
7694.82
7694.5
7694.19
7693.89
7693.61
7693.35
7693.09
7692.85
7692.63
7692.42
7692.21
7692.02
7691.85
7691.69
7691.53
7691.4
7691.27
7691.15
7691.05
7690.95
7690.87
7690.8
7690.74
7690.69
7690.64
7690.61
7690.59
7690.58
7690.58
7690.58
7690.6
7690.63
7690.66
7690.71
7690.76
7690.82
7690.89
7690.97
7691.06
7691.15
7691.26
7691.37
7691.49
7691.61
7691.75
7691.89
7692.04
7692.2
7692.37
7692.54
7692.72
7692.91
7693.1
7693.3
7693.51
7693.73
7693.95
7694.18
7694.41
7694.66
7694.9
7695.16
7695.42
7695.68
7695.95
7696.23
7696.51
7696.8
7697.09
7697.39
7697.69
7698
7698.31
7698.63
7698.95
7699.27
7699.6
7699.94
7700.28
7700.62
7700.97
7701.32
7701.67
7702.03
7702.39
7702.75
7703.12
7703.49
7703.86
7704.23
7704.61
7704.99
7705.37
7705.75
7706.14
7706.52
7706.91
7707.3
7707.69
7708.08
7708.47
7708.87
7709.26
7709.66
7710.05
7710.44
7710.84
7711.23
7711.62
7712.02
7712.41
7712.8
7713.19
7713.58
7713.97
7714.35
7714.73
7715.12
7715.5
7715.87
7716.25
7716.62
7716.99
7717.36
7717.73
7718.09
7718.45
7718.8
7719.15
7719.5
7719.85
7720.19
7720.53
7720.87
7721.2
7721.53
7721.85
7722.17
7722.49
7722.8
7723.11
7723.42
7723.72
7724.01
7724.31
7724.6
7724.88
7725.16
7725.44
7725.71
7725.98
7726.24
7726.51
7726.76
7727.02
7727.26
7727.51
7727.75
7727.99
7728.22
7728.45
7728.68
7728.9
7729.12
7729.33
7729.55
7729.75
7729.96
7730.16
7730.36
7730.55
7730.74
7730.93
7731.11
7731.29
7731.47
7731.64
7731.81
7731.98
7732.15
7732.31
7732.47
7732.62
7732.78
7732.93
7733.07
7733.22
7733.36
7733.5
7733.64
7733.77
7733.91
7734.04
7734.16
7734.29
7734.41
7734.53
7734.65
7734.77
7734.88
7734.99
7735.1
7735.21
7735.31
7735.42
7735.52
7735.61
7735.7
7735.79
7735.88
7735.97
7736.06
7736.15
7736.24
7736.33
7736.41
7736.49
7736.58
7736.66
7736.74
7736.81
7736.89
7736.97
7737.04
7737.11
7737.18
7737.25
7737.32
7737.38
7737.45
7737.51
7737.58
7737.64
7737.7
7737.76
7737.82
7737.87
7737.93
7737.99
7738.04
7738.09
7738.14
7738.18
7738.24
7738.28
7738.3
7738.33
7738.37
7738.41
7738.45
7738.49
7738.53
7738.57
7738.61
7738.65
7738.69
7738.73
7738.77
7738.81
7738.85
7738.88
7738.92
7738.96
7739
7739.04
7739.08
7739.12
7739.15
7739.19
7739.23
7739.26
7739.3
7739.34
7739.37
7739.41
7739.44
7739.48
7739.51
7739.55
7739.58
7739.61
7739.64
7739.68
7739.71
7739.74
7739.77
7739.8
7739.83
7739.86
7739.89
7739.92
7739.95
7739.98
7740.01
7740.04
7740.07
7740.09
7740.12
7740.15
7740.17
7740.2
7740.23
7740.25
7740.28
7740.3
7740.32
7740.35
7740.37
7740.39
7740.42
7740.44
7740.46
7740.48
7740.5
7740.53
7740.55
7740.57
7740.59
7740.61
7740.63
7740.64
7740.66
7740.68
7740.7
7740.72
7644.66
7660.85
7676.03
7688.86
7701.01
7713.24
7725.4
7737.2
7748.6
7759.71
7770.62
7781.28
7791.62
7801.64
7811.39
7820.87
7830.07
7838.98
7847.61
7855.95
7864.02
7871.8
7879.3
7886.54
7893.48
7900.16
7906.55
7912.67
7918.57
7924.16
7929.48
7934.55
7939.36
7943.85
7948.1
7952.12
7955.86
7959.39
7962.64
7965.63
7968.41
7970.9
7973.2
7975.24
7977.04
7978.62
7979.98
7981.11
7982.02
7982.72
7983.19
7983.47
7983.56
7983.45
7983.14
7982.65
7981.98
7981.15
7980.14
7978.95
7977.62
7976.16
7974.55
7972.79
7970.9
7968.91
7966.82
7964.62
7962.34
7960
7957.59
7955.13
7952.64
7950.11
7947.51
7944.78
7941.81
7938.53
7934.99
7932.38
7930.58
7924.6
7911.07
7911.83
7906.62
7901.45
7897.13
7892.11
7887.05
7881.09
7876.14
7870.75
7865.39
7860.11
7854.78
7849.39
7844.19
7838.86
7833.64
7828.35
7822.62
7818.48
7812.28
7803.95
7797.31
7790.6
7784.08
7777.7
7771.47
7765.23
7758.91
7752.78
7746.74
7740.8
7735.02
7729.32
7723.76
7718.23
7712.55
7707.76
7702.06
7695.43
7689.7
7684.07
7678.55
7673.21
7667.94
7662.71
7657.64
7652.69
7647.86
7643.16
7638.58
7634.13
7629.79
7625.58
7621.48
7617.5
7613.64
7609.9
7606.26
7602.75
7599.33
7596.03
7592.82
7589.73
7586.74
7583.84
7581.04
7578.34
7575.73
7573.2
7570.77
7568.42
7566.14
7563.95
7561.84
7559.79
7557.82
7555.91
7554.07
7552.3
7550.58
7548.92
7547.32
7545.77
7544.27
7542.82
7541.41
7540.05
7538.74
7537.47
7536.23
7535.03
7533.87
7532.74
7531.64
7530.57
7529.53
7528.52
7527.53
7526.57
7525.63
7524.7
7523.8
7522.92
7522.06
7521.21
7520.37
7519.55
7518.74
7517.94
7517.16
7516.39
7515.63
7514.88
7514.14
7513.42
7512.71
7512.01
7511.33
7510.65
7509.99
7509.35
7508.71
7508.09
7507.48
7506.88
7506.3
7505.74
7505.18
7504.64
7504.12
7503.61
7503.11
7502.63
7502.16
7501.71
7501.27
7500.84
7500.43
7500.04
7499.66
7499.29
7498.94
7498.6
7498.28
7497.97
7497.68
7497.4
7497.13
7496.88
7496.64
7496.41
7496.2
7496
7495.81
7495.63
7495.47
7495.32
7495.18
7495.05
7494.94
7494.83
7494.74
7494.66
7494.58
7494.52
7494.47
7494.43
7494.4
7494.38
7494.36
7494.36
7494.37
7494.39
7494.41
7494.45
7494.49
7494.54
7494.61
7494.68
7494.75
7494.84
7494.94
7495.04
7495.15
7495.27
7495.4
7495.53
7495.68
7495.83
7495.99
7496.15
7496.32
7496.51
7496.69
7496.89
7497.09
7497.3
7497.51
7497.74
7497.96
7498.2
7498.44
7498.69
7498.94
7499.2
7499.47
7499.74
7500.01
7500.3
7500.58
7500.88
7501.18
7501.48
7501.79
7502.1
7502.42
7502.74
7503.06
7503.39
7503.73
7504.07
7504.41
7504.76
7505.11
7505.46
7505.82
7506.18
7506.54
7506.91
7507.28
7507.65
7508.02
7508.4
7508.78
7509.16
7509.55
7509.93
7510.32
7510.71
7511.1
7511.49
7511.88
7512.27
7512.66
7513.06
7513.45
7513.85
7514.24
7514.64
7515.03
7515.42
7515.82
7516.21
7516.6
7516.99
7517.38
7517.77
7518.15
7518.54
7518.92
7519.3
7519.68
7520.05
7520.42
7520.8
7521.16
7521.53
7521.89
7522.25
7522.61
7522.96
7523.31
7523.66
7524
7524.34
7524.67
7525
7525.33
7525.66
7525.98
7526.29
7526.61
7526.92
7527.22
7527.52
7527.82
7528.11
7528.4
7528.69
7528.97
7529.25
7529.52
7529.79
7530.05
7530.31
7530.57
7530.82
7531.07
7531.32
7531.56
7531.8
7532.03
7532.26
7532.49
7532.71
7532.93
7533.14
7533.35
7533.56
7533.76
7533.97
7534.16
7534.36
7534.55
7534.73
7534.92
7535.1
7535.28
7535.45
7535.62
7535.79
7535.95
7536.11
7536.27
7536.43
7536.58
7536.73
7536.88
7537.03
7537.17
7537.31
7537.44
7537.58
7537.71
7537.84
7537.97
7538.09
7538.22
7538.34
7538.46
7538.57
7538.69
7538.8
7538.91
7539.02
7539.11
7539.21
7539.31
7539.41
7539.5
7539.59
7539.69
7539.78
7539.87
7539.96
7540.04
7540.13
7540.21
7540.3
7540.38
7540.46
7540.54
7540.62
7540.69
7540.77
7540.84
7540.91
7540.98
7541.05
7541.12
7541.18
7541.25
7541.31
7541.38
7541.44
7541.5
7541.56
7541.62
7541.68
7541.73
7541.79
7541.84
7541.92
7541.96
7541.99
7542.03
7542.07
7542.11
7542.15
7542.19
7542.22
7542.26
7542.3
7542.34
7542.38
7542.42
7542.46
7542.5
7542.53
7542.57
7542.61
7542.65
7542.69
7542.73
7542.77
7542.81
7542.84
7542.88
7542.92
7542.96
7542.99
7543.03
7543.07
7543.1
7543.14
7543.18
7543.21
7543.25
7543.28
7543.31
7543.35
7543.38
7543.41
7543.45
7543.48
7543.51
7543.54
7543.57
7543.61
7543.64
7543.67
7543.7
7543.73
7543.75
7543.78
7543.81
7543.84
7543.87
7543.9
7543.92
7543.95
7543.97
7544
7544.03
7544.05
7544.08
7544.1
7544.12
7544.15
7544.17
7544.2
7544.22
7544.24
7544.26
7544.28
7544.31
7544.33
7544.35
7544.37
7544.39
7544.41
7544.43
7544.44
7544.46
7544.48
7544.5
7544.52
7449.68
7465.89
7481.1
7493.95
7506.1
7518.34
7530.52
7542.33
7553.74
7564.85
7575.77
7586.46
7596.81
7606.84
7616.59
7626.08
7635.28
7644.19
7652.83
7661.18
7669.25
7677.03
7684.54
7691.77
7698.72
7705.39
7711.78
7717.91
7723.75
7729.31
7734.66
7739.73
7744.53
7749.04
7753.25
7757.24
7761.01
7764.49
7767.75
7770.72
7773.45
7775.97
7778.22
7780.25
7782.02
7783.57
7784.92
7786.02
7786.91
7787.58
7788.04
7788.29
7788.34
7788.2
7787.87
7787.36
7786.66
7785.78
7784.74
7783.53
7782.17
7780.66
7779
7777.19
7775.25
7773.22
7771.06
7768.78
7766.4
7763.96
7761.42
7758.8
7756.09
7753.29
7750.38
7747.35
7744.19
7740.86
7737.28
7733.4
7729.18
7725
7722.21
7720.3
7714.12
7700.16
7700.14
7695.96
7690.79
7685.3
7680.48
7675
7668.9
7663.77
7658.29
7652.8
7647.42
7641.92
7636.37
7630.74
7624.78
7618.91
7613.14
7607.15
7602.59
7596.23
7588.04
7581.4
7574.83
7568.67
7562.4
7556.39
7550.36
7544.27
7538.37
7532.53
7526.83
7521.12
7515.35
7509.72
7504.21
7498.7
7493.96
7488.47
7482.19
7476.73
7471.41
7466.2
7461.19
7456.24
7451.36
7446.65
7442.05
7437.58
7433.24
7429.02
7424.93
7420.95
7417.09
7413.35
7409.72
7406.2
7402.79
7399.49
7396.29
7393.2
7390.21
7387.32
7384.53
7381.83
7379.23
7376.71
7374.28
7371.93
7369.67
7367.49
7365.38
7363.34
7361.37
7359.48
7357.64
7355.87
7354.17
7352.51
7350.92
7349.38
7347.89
7346.44
7345.05
7343.7
7342.39
7341.12
7339.89
7338.7
7337.55
7336.42
7335.33
7334.27
7333.23
7332.23
7331.24
7330.28
7329.35
7328.43
7327.53
7326.65
7325.79
7324.95
7324.11
7323.29
7322.49
7321.69
7320.91
7320.14
7319.39
7318.64
7317.9
7317.18
7316.47
7315.78
7315.09
7314.42
7313.76
7313.11
7312.48
7311.85
7311.25
7310.65
7310.07
7309.5
7308.95
7308.41
7307.88
7307.37
7306.88
7306.39
7305.93
7305.47
7305.03
7304.61
7304.2
7303.8
7303.42
7303.06
7302.71
7302.37
7302.04
7301.74
7301.44
7301.16
7300.89
7300.64
7300.4
7300.18
7299.96
7299.76
7299.57
7299.4
7299.23
7299.08
7298.94
7298.82
7298.7
7298.6
7298.5
7298.42
7298.35
7298.29
7298.23
7298.19
7298.16
7298.14
7298.13
7298.13
7298.13
7298.15
7298.17
7298.21
7298.25
7298.31
7298.37
7298.44
7298.52
7298.6
7298.7
7298.8
7298.91
7299.03
7299.16
7299.3
7299.44
7299.59
7299.75
7299.92
7300.09
7300.27
7300.46
7300.66
7300.86
7301.07
7301.28
7301.5
7301.73
7301.97
7302.21
7302.46
7302.71
7302.97
7303.24
7303.51
7303.79
7304.07
7304.36
7304.65
7304.95
7305.25
7305.56
7305.87
7306.19
7306.51
7306.84
7307.17
7307.51
7307.84
7308.19
7308.53
7308.89
7309.24
7309.6
7309.96
7310.32
7310.69
7311.06
7311.43
7311.81
7312.18
7312.56
7312.95
7313.33
7313.72
7314.1
7314.49
7314.88
7315.27
7315.67
7316.06
7316.46
7316.85
7317.24
7317.64
7318.04
7318.43
7318.83
7319.22
7319.61
7320.01
7320.4
7320.79
7321.18
7321.57
7321.95
7322.34
7322.72
7323.1
7323.48
7323.86
7324.23
7324.6
7324.97
7325.34
7325.7
7326.06
7326.41
7326.77
7327.12
7327.46
7327.81
7328.15
7328.48
7328.82
7329.14
7329.47
7329.79
7330.11
7330.42
7330.73
7331.03
7331.34
7331.63
7331.93
7332.22
7332.5
7332.78
7333.06
7333.33
7333.6
7333.87
7334.13
7334.38
7334.64
7334.89
7335.13
7335.37
7335.61
7335.84
7336.07
7336.3
7336.52
7336.74
7336.95
7337.17
7337.37
7337.58
7337.78
7337.98
7338.17
7338.36
7338.55
7338.73
7338.91
7339.09
7339.26
7339.43
7339.6
7339.76
7339.93
7340.08
7340.24
7340.39
7340.54
7340.69
7340.84
7340.98
7341.12
7341.26
7341.39
7341.52
7341.65
7341.78
7341.9
7342.03
7342.15
7342.27
7342.39
7342.5
7342.6
7342.71
7342.81
7342.91
7343.01
7343.11
7343.21
7343.3
7343.4
7343.49
7343.58
7343.67
7343.76
7343.85
7343.93
7344.02
7344.1
7344.19
7344.26
7344.34
7344.42
7344.5
7344.57
7344.64
7344.72
7344.79
7344.85
7344.92
7344.99
7345.06
7345.12
7345.19
7345.25
7345.31
7345.36
7345.43
7345.48
7345.56
7345.6
7345.64
7345.68
7345.72
7345.76
7345.8
7345.84
7345.89
7345.93
7345.97
7346.01
7346.05
7346.09
7346.13
7346.17
7346.21
7346.25
7346.29
7346.33
7346.37
7346.41
7346.45
7346.49
7346.53
7346.57
7346.6
7346.64
7346.68
7346.72
7346.76
7346.79
7346.83
7346.87
7346.9
7346.94
7346.98
7347.01
7347.05
7347.08
7347.11
7347.15
7347.18
7347.21
7347.25
7347.28
7347.31
7347.34
7347.38
7347.41
7347.44
7347.47
7347.5
7347.53
7347.56
7347.58
7347.61
7347.64
7347.67
7347.7
7347.72
7347.75
7347.78
7347.8
7347.83
7347.85
7347.88
7347.9
7347.93
7347.95
7347.97
7348
7348.02
7348.04
7348.06
7348.09
7348.11
7348.13
7348.15
7348.17
7348.19
7348.21
7348.23
7348.25
7348.26
7348.28
7348.3
7348.32
7255.32
7271.56
7286.79
7299.66
7311.83
7324.07
7336.26
7348.09
7359.5
7370.62
7381.55
7392.24
7402.6
7412.64
7422.41
7431.9
7441.1
7450.02
7458.66
7467.02
7475.1
7482.89
7490.41
7497.64
7504.59
7511.26
7517.65
7523.8
7529.63
7535.2
7540.52
7545.59
7550.35
7554.83
7559.05
7563.04
7566.79
7570.26
7573.45
7576.39
7579.11
7581.61
7583.83
7585.82
7587.55
7589.07
7590.38
7591.46
7592.31
7592.94
7593.37
7593.59
7593.6
7593.41
7593.04
7592.49
7591.74
7590.82
7589.72
7588.47
7587.06
7585.49
7583.75
7581.87
7579.88
7577.76
7575.51
7573.13
7570.65
7568.07
7565.38
7562.59
7559.69
7556.67
7553.54
7550.3
7546.92
7543.37
7539.62
7535.68
7531.67
7527.48
7523.03
7518.08
7513.02
7509.64
7507.43
7504.26
7497.92
7485.4
7484.55
7478.81
7473.02
7467.9
7462.18
7455.93
7450.56
7444.84
7439.09
7433.35
7427.5
7421.59
7415.61
7409.26
7403.13
7396.82
7390.9
7384.96
7380.08
7373.9
7366.19
7359.84
7353.64
7347.51
7341.59
7335.69
7329.77
7323.99
7318.25
7312.64
7307.03
7301.4
7295.94
7290.58
7285.29
7280.69
7275.47
7269.58
7264.46
7259.49
7254.62
7249.95
7245.36
7240.84
7236.48
7232.25
7228.17
7224.19
7220.33
7216.59
7212.97
7209.45
7206.05
7202.76
7199.57
7196.48
7193.5
7190.62
7187.84
7185.15
7182.55
7180.05
7177.63
7175.29
7173.04
7170.87
7168.77
7166.75
7164.79
7162.91
7161.09
7159.33
7157.63
7156
7154.42
7152.89
7151.4
7149.98
7148.59
7147.26
7145.96
7144.7
7143.48
7142.3
7141.15
7140.04
7138.96
7137.9
7136.88
7135.88
7134.9
7133.95
7133.02
7132.11
7131.22
7130.35
7129.49
7128.65
7127.82
7127.01
7126.2
7125.42
7124.64
7123.87
7123.12
7122.37
7121.64
7120.92
7120.21
7119.52
7118.83
7118.16
7117.5
7116.85
7116.22
7115.6
7114.99
7114.4
7113.81
7113.25
7112.69
7112.15
7111.63
7111.11
7110.62
7110.13
7109.66
7109.21
7108.77
7108.35
7107.94
7107.54
7107.16
7106.79
7106.44
7106.1
7105.78
7105.47
7105.18
7104.9
7104.63
7104.38
7104.14
7103.91
7103.7
7103.5
7103.31
7103.13
7102.97
7102.82
7102.68
7102.55
7102.44
7102.33
7102.24
7102.16
7102.09
7102.02
7101.97
7101.93
7101.9
7101.88
7101.87
7101.86
7101.87
7101.89
7101.91
7101.95
7101.99
7102.05
7102.11
7102.18
7102.26
7102.34
7102.44
7102.54
7102.66
7102.78
7102.9
7103.04
7103.18
7103.34
7103.5
7103.66
7103.84
7104.02
7104.21
7104.4
7104.6
7104.81
7105.03
7105.25
7105.48
7105.72
7105.96
7106.21
7106.46
7106.72
7106.99
7107.26
7107.54
7107.82
7108.11
7108.41
7108.7
7109.01
7109.32
7109.63
7109.95
7110.27
7110.6
7110.93
7111.27
7111.61
7111.95
7112.3
7112.65
7113.01
7113.37
7113.73
7114.09
7114.46
7114.83
7115.2
7115.58
7115.96
7116.34
7116.72
7117.11
7117.49
7117.88
7118.27
7118.66
7119.06
7119.45
7119.85
7120.24
7120.64
7121.03
7121.43
7121.83
7122.22
7122.62
7123.01
7123.41
7123.8
7124.2
7124.59
7124.98
7125.37
7125.75
7126.14
7126.52
7126.91
7127.29
7127.66
7128.04
7128.41
7128.78
7129.15
7129.51
7129.87
7130.23
7130.58
7130.93
7131.28
7131.62
7131.96
7132.3
7132.63
7132.96
7133.29
7133.61
7133.93
7134.24
7134.55
7134.85
7135.16
7135.45
7135.75
7136.04
7136.32
7136.6
7136.88
7137.15
7137.42
7137.69
7137.95
7138.21
7138.46
7138.71
7138.95
7139.19
7139.43
7139.66
7139.89
7140.12
7140.34
7140.56
7140.78
7140.99
7141.19
7141.4
7141.6
7141.8
7141.99
7142.18
7142.37
7142.55
7142.73
7142.91
7143.08
7143.25
7143.42
7143.58
7143.74
7143.9
7144.06
7144.21
7144.36
7144.51
7144.65
7144.79
7144.93
7145.07
7145.21
7145.34
7145.47
7145.6
7145.72
7145.85
7145.97
7146.07
7146.19
7146.3
7146.4
7146.51
7146.62
7146.72
7146.82
7146.92
7147.02
7147.11
7147.21
7147.3
7147.39
7147.48
7147.57
7147.66
7147.75
7147.83
7147.91
7147.99
7148.07
7148.15
7148.23
7148.31
7148.38
7148.45
7148.52
7148.6
7148.66
7148.74
7148.8
7148.86
7148.93
7148.98
7149.05
7149.11
7149.2
7149.25
7149.29
7149.33
7149.38
7149.43
7149.47
7149.52
7149.56
7149.6
7149.65
7149.69
7149.73
7149.77
7149.81
7149.85
7149.89
7149.93
7149.97
7150.01
7150.05
7150.09
7150.13
7150.17
7150.21
7150.25
7150.29
7150.33
7150.37
7150.41
7150.45
7150.48
7150.52
7150.56
7150.6
7150.63
7150.67
7150.71
7150.74
7150.78
7150.81
7150.85
7150.88
7150.92
7150.95
7150.98
7151.02
7151.05
7151.08
7151.11
7151.15
7151.18
7151.21
7151.24
7151.27
7151.3
7151.33
7151.36
7151.39
7151.42
7151.44
7151.47
7151.5
7151.53
7151.55
7151.58
7151.6
7151.63
7151.66
7151.68
7151.7
7151.73
7151.75
7151.78
7151.8
7151.82
7151.84
7151.87
7151.89
7151.91
7151.93
7151.95
7151.97
7151.99
7152.01
7152.03
7152.05
7152.07
7152.09
7152.1
7152.13
7061.59
7077.86
7093.13
7106.02
7118.21
7130.47
7142.69
7154.53
7165.96
7177.09
7188.04
7198.75
7209.12
7219.16
7228.93
7238.43
7247.65
7256.58
7265.22
7273.58
7281.65
7289.45
7296.97
7304.19
7311.14
7317.81
7324.2
7330.33
7336.15
7341.71
7347
7352.06
7356.79
7361.26
7365.48
7369.42
7373.12
7376.57
7379.75
7382.68
7385.36
7387.79
7389.98
7391.93
7393.64
7395.11
7396.35
7397.39
7398.21
7398.8
7399.17
7399.33
7399.29
7399.05
7398.63
7398.02
7397.22
7396.22
7395.06
7393.75
7392.27
7390.62
7388.8
7386.85
7384.77
7382.54
7380.17
7377.69
7375.08
7372.36
7369.52
7366.56
7363.49
7360.29
7356.96
7353.52
7349.94
7346.22
7342.36
7338.36
7334.22
7329.95
7325.55
7321.22
7316.85
7312.33
7307.63
7302.83
7298.21
7294.74
7292.12
7285.75
7272.46
7271.47
7265.68
7259.57
7254.21
7248.28
7241.83
7236.16
7230.13
7224.07
7218.08
7211.98
7205.9
7199.75
7193.43
7187.23
7181.1
7175.11
7169.15
7164.27
7158.19
7150.78
7144.6
7138.59
7132.63
7126.84
7121.06
7115.28
7109.64
7104.07
7098.64
7093.24
7087.85
7082.62
7077.5
7072.47
7068.09
7063.18
7057.71
7052.94
7048.33
7043.84
7039.5
7035.32
7031.25
7027.24
7023.38
7019.64
7016.02
7012.52
7009.12
7005.83
7002.66
6999.58
6996.61
6993.75
6990.98
6988.3
6985.72
6983.23
6980.82
6978.5
6976.27
6974.11
6972.03
6970.02
6968.08
6966.22
6964.41
6962.67
6960.99
6959.37
6957.81
6956.29
6954.83
6953.41
6952.05
6950.73
6949.44
6948.2
6947
6945.83
6944.7
6943.6
6942.53
6941.48
6940.47
6939.48
6938.52
6937.57
6936.65
6935.75
6934.87
6934
6933.15
6932.32
6931.5
6930.69
6929.89
6929.11
6928.34
6927.57
6926.82
6926.08
6925.35
6924.64
6923.93
6923.23
6922.55
6921.88
6921.22
6920.58
6919.94
6919.32
6918.72
6918.12
6917.54
6916.97
6916.41
6915.88
6915.35
6914.83
6914.34
6913.85
6913.38
6912.93
6912.49
6912.06
6911.65
6911.25
6910.87
6910.51
6910.16
6909.82
6909.49
6909.18
6908.89
6908.61
6908.34
6908.09
6907.85
6907.62
6907.41
6907.21
6907.02
6906.85
6906.68
6906.53
6906.39
6906.27
6906.15
6906.05
6905.95
6905.87
6905.8
6905.74
6905.69
6905.64
6905.61
6905.59
6905.58
6905.58
6905.59
6905.61
6905.63
6905.67
6905.71
6905.76
6905.83
6905.9
6905.98
6906.06
6906.16
6906.26
6906.38
6906.5
6906.63
6906.76
6906.91
6907.06
6907.22
6907.39
6907.56
6907.74
6907.93
6908.13
6908.33
6908.54
6908.76
6908.98
6909.21
6909.45
6909.69
6909.94
6910.2
6910.46
6910.73
6911
6911.28
6911.56
6911.85
6912.15
6912.45
6912.75
6913.06
6913.38
6913.7
6914.02
6914.35
6914.68
6915.02
6915.36
6915.71
6916.05
6916.41
6916.76
6917.12
6917.49
6917.85
6918.22
6918.59
6918.97
6919.34
6919.72
6920.11
6920.49
6920.88
6921.27
6921.66
6922.05
6922.44
6922.83
6923.23
6923.63
6924.02
6924.42
6924.82
6925.21
6925.61
6926.01
6926.41
6926.81
6927.2
6927.6
6927.99
6928.38
6928.78
6929.17
6929.56
6929.94
6930.33
6930.71
6931.09
6931.47
6931.85
6932.22
6932.59
6932.96
6933.32
6933.68
6934.04
6934.4
6934.75
6935.1
6935.44
6935.78
6936.12
6936.45
6936.78
6937.11
6937.43
6937.75
6938.06
6938.37
6938.68
6938.98
6939.28
6939.57
6939.86
6940.15
6940.43
6940.71
6940.98
6941.25
6941.51
6941.78
6942.03
6942.29
6942.53
6942.78
6943.02
6943.26
6943.49
6943.72
6943.95
6944.17
6944.39
6944.6
6944.81
6945.02
6945.22
6945.42
6945.62
6945.81
6946
6946.19
6946.37
6946.55
6946.73
6946.9
6947.07
6947.24
6947.41
6947.57
6947.72
6947.88
6948.03
6948.18
6948.33
6948.47
6948.62
6948.75
6948.89
6949.03
6949.16
6949.3
6949.42
6949.53
6949.65
6949.77
6949.88
6949.99
6950.1
6950.21
6950.32
6950.42
6950.53
6950.63
6950.73
6950.83
6950.92
6951.02
6951.11
6951.2
6951.29
6951.38
6951.47
6951.55
6951.64
6951.72
6951.8
6951.88
6951.96
6952.04
6952.11
6952.19
6952.26
6952.34
6952.41
6952.47
6952.54
6952.6
6952.67
6952.73
6952.83
6952.88
6952.92
6952.96
6953.01
6953.06
6953.11
6953.16
6953.21
6953.25
6953.3
6953.35
6953.39
6953.43
6953.48
6953.52
6953.56
6953.6
6953.65
6953.69
6953.73
6953.77
6953.81
6953.85
6953.89
6953.93
6953.97
6954.01
6954.05
6954.09
6954.13
6954.17
6954.21
6954.25
6954.29
6954.33
6954.36
6954.4
6954.44
6954.47
6954.51
6954.55
6954.58
6954.62
6954.65
6954.69
6954.72
6954.75
6954.79
6954.82
6954.85
6954.89
6954.92
6954.95
6954.98
6955.01
6955.04
6955.07
6955.1
6955.13
6955.16
6955.19
6955.22
6955.25
6955.27
6955.3
6955.33
6955.36
6955.38
6955.41
6955.43
6955.46
6955.48
6955.51
6955.53
6955.56
6955.58
6955.6
6955.62
6955.65
6955.67
6955.69
6955.71
6955.73
6955.75
6955.77
6955.79
6955.81
6955.83
6955.85
6955.87
6955.89
6955.9
6955.93
6868.47
6884.78
6900.1
6913.02
6925.22
6937.51
6949.76
6961.63
6973.07
6984.21
6995.18
7005.9
7016.29
7026.35
7036.12
7045.62
7054.85
7063.79
7072.45
7080.81
7088.88
7096.68
7104.19
7111.42
7118.35
7125
7131.4
7137.5
7143.31
7148.84
7154.1
7159.08
7163.83
7168.3
7172.5
7176.43
7180.09
7183.49
7186.64
7189.53
7192.16
7194.56
7196.7
7198.61
7200.26
7201.68
7202.88
7203.85
7204.61
7205.14
7205.45
7205.55
7205.45
7205.15
7204.65
7203.97
7203.09
7202.02
7200.79
7199.4
7197.82
7196.07
7194.16
7192.12
7189.93
7187.57
7185.07
7182.46
7179.73
7176.85
7173.85
7170.73
7167.5
7164.13
7160.63
7157
7153.25
7149.39
7145.4
7141.27
7137.03
7132.7
7128.31
7123.83
7119.23
7114.53
7109.86
7105.26
7100.59
7095.69
7090.42
7085.25
7081.47
7078.6
7072.09
7058.93
7057.36
7051.49
7045.02
7039.37
7033.23
7026.56
7020.65
7014.4
7008.17
7001.97
6995.85
6989.63
6983.63
6977.5
6971.33
6965.26
6959.33
6953.41
6948.46
6942.5
6935.44
6929.44
6923.62
6917.83
6912.22
6906.63
6901.07
6895.65
6890.32
6885.13
6880
6874.89
6869.95
6865.12
6860.39
6856.26
6851.68
6846.66
6842.26
6837.98
6834
6830.03
6826.24
6822.51
6818.88
6815.38
6812
6808.72
6805.56
6802.5
6799.55
6796.69
6793.94
6791.28
6788.72
6786.25
6783.86
6781.56
6779.35
6777.21
6775.15
6773.16
6771.24
6769.39
6767.61
6765.9
6764.24
6762.64
6761.09
6759.6
6758.15
6756.76
6755.41
6754.11
6752.85
6751.62
6750.44
6749.29
6748.17
6747.08
6746.03
6745
6744
6743.03
6742.07
6741.14
6740.23
6739.34
6738.47
6737.62
6736.77
6735.95
6735.14
6734.33
6733.55
6732.77
6732
6731.24
6730.5
6729.76
6729.04
6728.32
6727.62
6726.93
6726.25
6725.58
6724.92
6724.28
6723.64
6723.02
6722.41
6721.82
6721.24
6720.67
6720.11
6719.57
6719.05
6718.53
6718.03
6717.55
6717.08
6716.62
6716.18
6715.75
6715.34
6714.95
6714.56
6714.2
6713.84
6713.51
6713.18
6712.87
6712.58
6712.3
6712.03
6711.78
6711.54
6711.31
6711.1
6710.9
6710.71
6710.54
6710.37
6710.22
6710.08
6709.96
6709.84
6709.74
6709.65
6709.56
6709.49
6709.43
6709.38
6709.34
6709.31
6709.29
6709.28
6709.28
6709.28
6709.3
6709.33
6709.36
6709.41
6709.46
6709.52
6709.59
6709.67
6709.76
6709.86
6709.96
6710.08
6710.2
6710.33
6710.47
6710.61
6710.76
6710.92
6711.09
6711.27
6711.45
6711.64
6711.84
6712.04
6712.25
6712.47
6712.7
6712.93
6713.17
6713.41
6713.66
6713.92
6714.18
6714.45
6714.72
6715
6715.29
6715.58
6715.87
6716.17
6716.48
6716.79
6717.11
6717.43
6717.75
6718.08
6718.42
6718.76
6719.1
6719.45
6719.8
6720.15
6720.51
6720.87
6721.23
6721.6
6721.97
6722.34
6722.72
6723.1
6723.48
6723.86
6724.25
6724.64
6725.03
6725.42
6725.81
6726.21
6726.6
6727
6727.4
6727.8
6728.2
6728.6
6729
6729.4
6729.8
6730.2
6730.59
6730.99
6731.39
6731.79
6732.18
6732.58
6732.97
6733.36
6733.75
6734.13
6734.52
6734.9
6735.28
6735.66
6736.03
6736.41
6736.78
6737.14
6737.5
6737.86
6738.22
6738.57
6738.92
6739.27
6739.61
6739.95
6740.28
6740.61
6740.94
6741.26
6741.58
6741.9
6742.21
6742.51
6742.81
6743.11
6743.41
6743.7
6743.98
6744.26
6744.54
6744.82
6745.08
6745.35
6745.61
6745.87
6746.12
6746.37
6746.61
6746.86
6747.09
6747.33
6747.56
6747.78
6748
6748.22
6748.44
6748.65
6748.85
6749.06
6749.26
6749.45
6749.65
6749.84
6750.02
6750.2
6750.38
6750.56
6750.73
6750.9
6751.07
6751.23
6751.4
6751.55
6751.71
6751.86
6752.01
6752.15
6752.3
6752.44
6752.58
6752.73
6752.86
6752.97
6753.1
6753.22
6753.34
6753.46
6753.58
6753.69
6753.8
6753.91
6754.02
6754.13
6754.24
6754.34
6754.44
6754.54
6754.64
6754.74
6754.83
6754.92
6755.01
6755.1
6755.19
6755.28
6755.36
6755.45
6755.53
6755.62
6755.69
6755.78
6755.85
6755.93
6756
6756.08
6756.14
6756.22
6756.28
6756.39
6756.44
6756.48
6756.53
6756.59
6756.64
6756.7
6756.75
6756.8
6756.85
6756.9
6756.95
6757
6757.05
6757.09
6757.14
6757.18
6757.23
6757.27
6757.32
6757.36
6757.4
6757.44
6757.49
6757.53
6757.57
6757.61
6757.65
6757.7
6757.74
6757.78
6757.82
6757.86
6757.9
6757.94
6757.98
6758.01
6758.05
6758.09
6758.13
6758.17
6758.2
6758.24
6758.28
6758.31
6758.35
6758.39
6758.42
6758.46
6758.49
6758.52
6758.56
6758.59
6758.63
6758.66
6758.69
6758.72
6758.75
6758.79
6758.82
6758.85
6758.88
6758.91
6758.94
6758.97
6758.99
6759.02
6759.05
6759.08
6759.11
6759.13
6759.16
6759.19
6759.21
6759.24
6759.26
6759.29
6759.31
6759.34
6759.36
6759.38
6759.41
6759.43
6759.45
6759.47
6759.49
6759.52
6759.54
6759.56
6759.58
6759.6
6759.62
6759.64
6759.66
6759.67
6759.69
6759.71
6759.73
6675.99
6692.35
6707.73
6720.68
6732.9
6745.22
6757.5
6769.4
6780.87
6792.04
6803.03
6813.77
6824.16
6834.23
6844.02
6853.54
6862.77
6871.71
6880.36
6888.73
6896.81
6904.61
6912.11
6919.33
6926.24
6932.88
6939.25
6945.34
6951.14
6956.66
6961.9
6966.84
6971.55
6975.97
6980.14
6984.04
6987.67
6991.05
6994.15
6996.98
6999.55
7001.9
7004
7005.86
7007.45
7008.82
7009.95
7010.85
7011.53
7012.01
7012.26
7012.28
7012.1
7011.71
7011.13
7010.35
7009.39
7008.25
7006.92
7005.41
7003.73
7001.87
6999.85
6997.68
6995.37
6992.88
6990.25
6987.5
6984.61
6981.59
6978.42
6975.14
6971.74
6968.2
6964.54
6960.75
6956.84
6952.83
6948.69
6944.43
6940.08
6935.63
6931.1
6926.47
6921.75
6917
6912.24
6907.41
6902.47
6897.44
6892.43
6887.39
6882.19
6876.63
6871.1
6867.01
6863.83
6857.28
6844.27
6842.09
6836.15
6829.35
6823.48
6817.22
6810.46
6804.4
6798.15
6791.87
6785.77
6779.65
6773.62
6767.59
6761.6
6755.47
6749.52
6743.62
6737.82
6732.86
6727.05
6720.32
6714.52
6708.94
6703.37
6697.98
6692.64
6687.35
6682.2
6677.15
6672.25
6667.42
6662.62
6658.01
6653.4
6649.08
6644.86
6641.13
6637.09
6632.7
6628.84
6625.14
6621.53
6618.07
6614.7
6611.42
6608.27
6605.23
6602.29
6599.46
6596.72
6594.09
6591.55
6589.1
6586.73
6584.46
6582.27
6580.15
6578.11
6576.15
6574.26
6572.44
6570.68
6568.99
6567.36
6565.78
6564.26
6562.79
6561.38
6560.01
6558.68
6557.4
6556.16
6554.96
6553.79
6552.66
6551.56
6550.5
6549.46
6548.45
6547.47
6546.51
6545.57
6544.66
6543.76
6542.88
6542.02
6541.18
6540.35
6539.53
6538.73
6537.94
6537.16
6536.39
6535.63
6534.88
6534.14
6533.41
6532.69
6531.98
6531.28
6530.59
6529.91
6529.24
6528.59
6527.95
6527.31
6526.69
6526.09
6525.49
6524.91
6524.34
6523.78
6523.24
6522.71
6522.2
6521.7
6521.21
6520.74
6520.28
6519.84
6519.42
6519.01
6518.61
6518.22
6517.86
6517.5
6517.17
6516.84
6516.53
6516.24
6515.96
6515.69
6515.44
6515.2
6514.97
6514.76
6514.56
6514.37
6514.2
6514.04
6513.89
6513.75
6513.62
6513.51
6513.4
6513.31
6513.23
6513.16
6513.1
6513.05
6513.01
6512.98
6512.96
6512.95
6512.94
6512.95
6512.97
6513
6513.03
6513.08
6513.13
6513.2
6513.27
6513.35
6513.44
6513.53
6513.64
6513.75
6513.88
6514.01
6514.15
6514.29
6514.45
6514.61
6514.78
6514.95
6515.14
6515.33
6515.53
6515.73
6515.94
6516.16
6516.39
6516.62
6516.86
6517.11
6517.36
6517.62
6517.88
6518.15
6518.42
6518.71
6518.99
6519.29
6519.58
6519.89
6520.19
6520.51
6520.82
6521.15
6521.47
6521.8
6522.14
6522.48
6522.82
6523.17
6523.52
6523.88
6524.24
6524.6
6524.97
6525.34
6525.71
6526.08
6526.46
6526.84
6527.23
6527.61
6528
6528.39
6528.78
6529.18
6529.57
6529.97
6530.37
6530.77
6531.17
6531.57
6531.97
6532.37
6532.77
6533.18
6533.58
6533.98
6534.38
6534.78
6535.18
6535.58
6535.98
6536.37
6536.77
6537.16
6537.55
6537.94
6538.33
6538.71
6539.09
6539.47
6539.85
6540.22
6540.6
6540.96
6541.33
6541.69
6542.05
6542.4
6542.75
6543.1
6543.44
6543.78
6544.12
6544.45
6544.77
6545.1
6545.42
6545.73
6546.04
6546.35
6546.65
6546.95
6547.25
6547.54
6547.82
6548.11
6548.38
6548.66
6548.93
6549.19
6549.45
6549.71
6549.96
6550.21
6550.46
6550.7
6550.93
6551.17
6551.4
6551.62
6551.84
6552.06
6552.27
6552.49
6552.69
6552.9
6553.09
6553.29
6553.48
6553.67
6553.86
6554.04