/*--------------------------------*- C++ -*----------------------------------*\
| =========                 |                                                 |
| \\      /  F ield         | OpenFOAM: The Open Source CFD Toolbox           |
|  \\    /   O peration     | Version:  v2006                                 |
|   \\  /    A nd           | Website:  www.openfoam.com                      |
|    \\/     M anipulation  |                                                 |
\*---------------------------------------------------------------------------*/
FoamFile
{
    version     2.0;
    format      ascii;
    class       surfaceScalarField;
    location    "2.8";
    object      phi;
}
// * * * * * * * * * * * * * * * * * * * * * * * * * * * * * * * * * * * * * //

dimensions      [0 3 -1 0 0 0 0];
oriented        oriented;


internalField   nonuniform List<scalar> 
65390
(
7.36553e-05
-1.19539e-06
7.48806e-05
-1.22627e-06
7.60463e-05
-1.16645e-06
7.72014e-05
-1.15514e-06
7.82781e-05
-1.0767e-06
7.93126e-05
-1.03368e-06
8.0338e-05
-1.02364e-06
8.13921e-05
-1.05219e-06
8.24524e-05
-1.05789e-06
8.3463e-05
-1.00733e-06
8.44495e-05
-9.82626e-07
8.54166e-05
-9.63034e-07
8.63436e-05
-9.22692e-07
8.72287e-05
-8.80088e-07
8.81072e-05
-8.73126e-07
8.89208e-05
-8.0799e-07
8.96761e-05
-7.49855e-07
9.03674e-05
-6.85821e-07
9.09465e-05
-5.7362e-07
9.14498e-05
-4.97691e-07
9.1992e-05
-5.36892e-07
9.26038e-05
-6.06872e-07
9.32059e-05
-5.97317e-07
9.35911e-05
-3.80729e-07
9.37294e-05
-1.34568e-07
9.38693e-05
-1.36735e-07
9.41689e-05
-2.96743e-07
9.45006e-05
-3.2935e-07
9.46323e-05
-1.29959e-07
9.46485e-05
-1.47476e-08
9.47191e-05
-6.97368e-08
9.47882e-05
-6.86236e-08
9.47293e-05
5.9087e-08
9.4453e-05
2.76294e-07
9.42854e-05
1.67293e-07
9.42908e-05
-6.05724e-09
9.42237e-05
6.64516e-08
9.38971e-05
3.25942e-07
9.34188e-05
4.77386e-07
9.30296e-05
3.88158e-07
9.28853e-05
1.43412e-07
9.27034e-05
1.81284e-07
9.2188e-05
5.1495e-07
9.14296e-05
7.57974e-07
9.08304e-05
5.98669e-07
9.04902e-05
3.39838e-07
9.00884e-05
4.01561e-07
8.94973e-05
5.90778e-07
8.88604e-05
6.36617e-07
8.82985e-05
5.61557e-07
8.76614e-05
6.368e-07
8.69125e-05
7.48807e-07
8.61947e-05
7.1774e-07
8.55892e-05
6.0543e-07
8.48687e-05
7.20304e-07
8.40313e-05
8.37238e-07
8.3213e-05
8.18127e-07
8.24702e-05
7.42723e-07
8.16459e-05
8.24373e-07
8.05631e-05
1.08279e-06
7.92743e-05
1.289e-06
7.81003e-05
1.17416e-06
7.70865e-05
1.01401e-06
7.5997e-05
1.08971e-06
7.46392e-05
1.358e-06
7.31465e-05
1.49277e-06
7.17946e-05
1.35198e-06
7.05073e-05
1.28729e-06
6.90704e-05
1.43692e-06
6.75171e-05
1.55327e-06
6.58183e-05
1.69886e-06
6.38493e-05
1.96899e-06
6.14634e-05
2.38585e-06
5.88537e-05
2.60969e-06
5.5665e-05
3.18872e-06
5.13306e-05
4.33431e-06
4.54735e-05
5.85699e-06
3.70444e-05
8.42891e-06
2.94306e-05
7.61367e-06
2.55897e-05
3.84084e-06
2.37539e-05
1.83567e-06
2.35177e-05
2.35933e-07
2.28747e-05
6.42801e-07
2.27811e-05
9.34975e-08
2.31345e-05
-3.53594e-07
2.27592e-05
3.75082e-07
2.23249e-05
4.34072e-07
2.19234e-05
4.01259e-07
2.16179e-05
3.05412e-07
2.11923e-05
4.25542e-07
2.08365e-05
3.55712e-07
2.0591e-05
2.45412e-07
2.02577e-05
3.33346e-07
1.98615e-05
3.96072e-07
1.94031e-05
4.5838e-07
1.88975e-05
5.05465e-07
1.83215e-05
5.75775e-07
1.77181e-05
6.03133e-07
1.67014e-05
1.0164e-06
1.56402e-05
1.06088e-06
1.49752e-05
6.64617e-07
1.46312e-05
3.43657e-07
1.44755e-05
1.55213e-07
1.42273e-05
2.47908e-07
1.4072e-05
1.54944e-07
1.3926e-05
1.45573e-07
1.36704e-05
2.55317e-07
1.34143e-05
2.55707e-07
1.31525e-05
2.61514e-07
1.28851e-05
2.67122e-07
1.25998e-05
2.84919e-07
1.23067e-05
2.92745e-07
1.20031e-05
3.0326e-07
1.16865e-05
3.16169e-07
1.13354e-05
3.50617e-07
1.09747e-05
3.60205e-07
1.04277e-05
5.46531e-07
9.87596e-06
5.51133e-07
9.5162e-06
3.59168e-07
9.30707e-06
2.08515e-07
9.17801e-06
1.28455e-07
8.98758e-06
1.8985e-07
8.83238e-06
1.54632e-07
8.68959e-06
1.4227e-07
8.50634e-06
1.82774e-07
8.32905e-06
1.76869e-07
8.16067e-06
1.67997e-07
7.97976e-06
1.80577e-07
7.79121e-06
1.88252e-07
7.61006e-06
1.80905e-07
7.44155e-06
1.68297e-07
7.26563e-06
1.75735e-07
7.08333e-06
1.82123e-07
6.9016e-06
1.81574e-07
6.73169e-06
1.69765e-07
6.56908e-06
1.62473e-07
6.39675e-06
1.72203e-07
6.22433e-06
1.72302e-07
6.05912e-06
1.65098e-07
5.90597e-06
1.53049e-07
5.74273e-06
1.63139e-07
5.57975e-06
1.62881e-07
5.42402e-06
1.55629e-07
5.27278e-06
1.51137e-07
5.11689e-06
1.55786e-07
4.9641e-06
1.52687e-07
4.82132e-06
1.42659e-07
4.6846e-06
1.36608e-07
4.53877e-06
1.45708e-07
4.3949e-06
1.43755e-07
4.25319e-06
1.41593e-07
4.11103e-06
1.42047e-07
3.98662e-06
1.24294e-07
3.8697e-06
1.16816e-07
3.74009e-06
1.29494e-07
3.60499e-06
1.34994e-07
3.47826e-06
1.26623e-07
3.36554e-06
1.12607e-07
3.25476e-06
1.10678e-07
3.13301e-06
1.21645e-07
3.00985e-06
1.23057e-07
2.89866e-06
1.11097e-07
2.79595e-06
1.02617e-07
2.68425e-06
1.116e-07
2.56477e-06
1.1939e-07
2.45487e-06
1.09812e-07
2.35399e-06
1.00789e-07
2.24857e-06
1.05335e-07
2.13553e-06
1.12965e-07
2.02124e-06
1.14208e-07
1.91821e-06
1.02955e-07
1.82247e-06
9.56593e-08
1.71702e-06
1.05374e-07
1.60473e-06
1.12213e-07
1.49783e-06
1.06833e-07
1.39774e-06
1.00018e-07
1.29961e-06
9.80541e-08
1.19703e-06
1.02513e-07
1.09339e-06
1.0357e-07
9.90483e-07
1.02841e-07
8.88916e-07
1.01502e-07
7.92859e-07
9.59927e-08
6.9582e-07
9.69757e-08
5.94843e-07
1.00916e-07
4.95687e-07
9.90951e-08
4.02299e-07
9.33288e-08
3.13105e-07
8.9136e-08
2.1794e-07
9.51083e-08
1.21199e-07
9.66848e-08
2.88447e-08
9.22993e-08
-5.88924e-08
8.76829e-08
-1.48635e-07
8.96887e-08
-2.39184e-07
9.04965e-08
-3.27354e-07
8.81173e-08
-4.13516e-07
8.61101e-08
-4.97223e-07
8.36542e-08
-5.8246e-07
8.51846e-08
-6.66744e-07
8.42315e-08
-7.47229e-07
8.04315e-08
-8.23892e-07
7.66095e-08
-9.03225e-07
7.92799e-08
-9.83292e-07
8.0013e-08
-1.06264e-06
7.92891e-08
-1.1379e-06
7.52139e-08
-1.21066e-06
7.27039e-08
-1.2799e-06
6.91858e-08
-1.35038e-06
7.04202e-08
-1.42373e-06
7.32972e-08
-1.49343e-06
6.96467e-08
-1.55864e-06
6.51516e-08
-1.6219e-06
6.32035e-08
-1.68828e-06
6.63252e-08
-1.75131e-06
6.29759e-08
-1.81235e-06
6.0985e-08
-1.87028e-06
5.78706e-08
-1.92471e-06
5.43689e-08
-1.98233e-06
5.75663e-08
-2.03736e-06
5.49742e-08
-2.09065e-06
5.32424e-08
-2.1433e-06
5.25923e-08
-2.18983e-06
4.64799e-08
-2.23388e-06
4.3992e-08
-2.27965e-06
4.57187e-08
-2.32481e-06
4.511e-08
-2.36724e-06
4.23816e-08
-2.4073e-06
4.0009e-08
-2.44608e-06
3.87339e-08
-2.48212e-06
3.5991e-08
-2.51436e-06
3.21932e-08
-2.54781e-06
3.34108e-08
-2.58007e-06
3.22093e-08
-2.61013e-06
3.00194e-08
-2.63813e-06
2.79591e-08
-2.6635e-06
2.53389e-08
-2.68571e-06
2.2171e-08
-2.7093e-06
2.35482e-08
-2.73218e-06
2.2852e-08
-2.75283e-06
2.06175e-08
-2.77043e-06
1.75723e-08
-2.78799e-06
1.75302e-08
-2.80392e-06
1.59017e-08
-2.81834e-06
1.44022e-08
-2.83137e-06
1.29995e-08
-2.84335e-06
1.19608e-08
-2.85383e-06
1.04638e-08
-2.86288e-06
9.02293e-09
-2.87321e-06
1.03136e-08
-2.88132e-06
8.08725e-09
-2.88689e-06
5.55598e-09
-2.89249e-06
5.58421e-09
-2.89748e-06
4.98381e-09
-2.90153e-06
4.03418e-09
-2.90505e-06
3.50917e-09
-2.90769e-06
2.63632e-09
-2.91017e-06
2.468e-09
-2.91198e-06
1.80699e-09
-2.9119e-06
-9.14993e-11
-2.911e-06
-9.00804e-10
-2.91132e-06
3.09314e-10
-2.9107e-06
-6.15543e-10
-2.90904e-06
-1.66246e-09
-2.90587e-06
-3.17007e-09
-2.90368e-06
-2.19223e-09
-2.90128e-06
-2.40288e-09
-2.89839e-06
-2.88897e-09
-2.89514e-06
-3.25213e-09
-2.89153e-06
-3.60133e-09
-2.88686e-06
-4.67925e-09
-2.88131e-06
-5.54384e-09
-2.87606e-06
-5.2523e-09
-2.87104e-06
-5.0271e-09
-2.86588e-06
-5.15734e-09
-2.86051e-06
-5.37643e-09
-2.85472e-06
-5.78971e-09
-2.8488e-06
-5.92114e-09
-2.84232e-06
-6.48517e-09
-2.83557e-06
-6.74991e-09
-2.82875e-06
-6.82284e-09
-2.82177e-06
-6.97385e-09
-2.8147e-06
-7.0723e-09
-2.80763e-06
-7.07451e-09
-2.80057e-06
-7.06133e-09
-2.79284e-06
-7.73929e-09
-2.78481e-06
-8.02815e-09
-2.77648e-06
-8.33389e-09
-2.76794e-06
-8.54569e-09
-2.75956e-06
-8.38016e-09
-2.7511e-06
-8.46209e-09
-2.7424e-06
-8.69542e-09
-2.73342e-06
-8.99015e-09
-2.72408e-06
-9.33517e-09
-2.71444e-06
-9.64599e-09
-2.70492e-06
-9.51764e-09
-2.69537e-06
-9.55553e-09
-2.68569e-06
-9.68227e-09
-2.67588e-06
-9.80953e-09
-2.66588e-06
-1.00041e-08
-2.65581e-06
-1.00674e-08
-2.64566e-06
-1.01465e-08
-2.63542e-06
-1.02458e-08
-2.62508e-06
-1.03425e-08
-2.61461e-06
-1.04648e-08
-2.60403e-06
-1.05857e-08
-2.59339e-06
-1.06441e-08
-2.58264e-06
-1.07492e-08
-2.57167e-06
-1.09699e-08
-2.56051e-06
-1.11588e-08
-2.54928e-06
-1.1224e-08
-2.53797e-06
-1.13135e-08
-2.52648e-06
-1.14881e-08
-2.51481e-06
-1.16713e-08
-2.50301e-06
-1.17947e-08
-2.49107e-06
-1.1935e-08
-2.47899e-06
-1.20789e-08
-2.46677e-06
-1.22226e-08
-2.45438e-06
-1.23801e-08
-2.44184e-06
-1.25354e-08
-2.42916e-06
-1.2676e-08
-2.41633e-06
-1.28287e-08
-2.40332e-06
-1.30012e-08
-2.39013e-06
-1.31867e-08
-2.37676e-06
-1.33663e-08
-2.36322e-06
-1.35336e-08
-2.34951e-06
-1.37002e-08
-2.33561e-06
-1.38907e-08
-2.3215e-06
-1.41025e-08
-2.30718e-06
-1.43181e-08
-2.29271e-06
-1.4466e-08
-2.27805e-06
-1.46531e-08
-2.26318e-06
-1.48594e-08
-2.24809e-06
-1.50825e-08
-2.23275e-06
-1.53354e-08
-2.21717e-06
-1.55737e-08
-2.20134e-06
-1.58198e-08
-2.18524e-06
-1.60897e-08
-2.16888e-06
-1.63545e-08
-2.15227e-06
-1.66088e-08
-2.1354e-06
-1.68568e-08
-2.1183e-06
-1.7094e-08
-2.10096e-06
-1.73303e-08
-2.08339e-06
-1.75625e-08
-2.06561e-06
-1.77724e-08
-2.04762e-06
-1.79857e-08
-2.02941e-06
-1.82074e-08
-2.01096e-06
-1.84379e-08
-1.9923e-06
-1.86533e-08
-1.97343e-06
-1.88653e-08
-1.95434e-06
-1.90828e-08
-1.93503e-06
-1.92972e-08
-1.91552e-06
-1.95028e-08
-1.89581e-06
-1.97051e-08
-1.87593e-06
-1.98784e-08
-1.8559e-06
-2.00231e-08
-1.83572e-06
-2.01688e-08
-1.81541e-06
-2.03042e-08
-1.79497e-06
-2.04276e-08
-1.77442e-06
-2.05468e-08
-1.75375e-06
-2.06608e-08
-1.73297e-06
-2.07723e-08
-1.71208e-06
-2.08882e-08
-1.6911e-06
-2.09769e-08
-1.67003e-06
-2.10637e-08
-1.64889e-06
-2.11294e-08
-1.62772e-06
-2.11721e-08
-1.60651e-06
-2.11978e-08
-1.5853e-06
-2.12107e-08
-1.56407e-06
-2.12186e-08
-1.54284e-06
-2.12257e-08
-1.52161e-06
-2.12283e-08
-1.50037e-06
-2.12384e-08
-1.47911e-06
-2.12494e-08
-1.45786e-06
-2.12442e-08
-1.43664e-06
-2.12232e-08
-1.41545e-06
-2.11856e-08
-1.39431e-06
-2.11336e-08
-1.37323e-06
-2.10706e-08
-1.35223e-06
-2.09957e-08
-1.33132e-06
-2.09091e-08
-1.3105e-06
-2.08166e-08
-1.28977e-06
-2.07266e-08
-1.26912e-06
-2.06395e-08
-1.24858e-06
-2.05456e-08
-1.22814e-06
-2.04342e-08
-1.20783e-06
-2.03008e-08
-1.18768e-06
-2.01467e-08
-1.16769e-06
-1.99861e-08
-1.14787e-06
-1.98218e-08
-1.1282e-06
-1.96636e-08
-1.10869e-06
-1.95088e-08
-1.08933e-06
-1.93557e-08
-1.07012e-06
-1.92046e-08
-1.05106e-06
-1.90526e-08
-1.03217e-06
-1.88874e-08
-1.01347e-06
-1.86938e-08
-9.94972e-07
-1.84977e-08
-9.7667e-07
-1.82974e-08
-9.58568e-07
-1.80982e-08
-9.40654e-07
-1.79092e-08
-9.2291e-07
-1.77396e-08
-9.0533e-07
-1.75749e-08
-8.87923e-07
-1.74014e-08
-8.70707e-07
-1.72111e-08
-8.53696e-07
-1.70069e-08
-8.36896e-07
-1.67952e-08
-8.20314e-07
-1.65772e-08
-8.03946e-07
-1.63643e-08
-7.87793e-07
-1.61482e-08
-7.71837e-07
-1.59534e-08
-7.5609e-07
-1.57435e-08
-7.40572e-07
-1.55148e-08
-7.25278e-07
-1.5291e-08
-7.10205e-07
-1.50705e-08
-6.95321e-07
-1.48823e-08
-6.80658e-07
-1.46611e-08
-6.66165e-07
-1.44914e-08
-6.51783e-07
-1.43798e-08
-6.37644e-07
-1.41379e-08
-6.23544e-07
-1.40991e-08
-6.09626e-07
-1.39169e-08
-5.96217e-07
-1.34073e-08
-5.82857e-07
-1.33591e-08
-5.69501e-07
-1.33539e-08
-5.56744e-07
-1.27547e-08
-5.42633e-07
-1.41082e-08
-5.28761e-07
-1.38684e-08
-5.17612e-07
-1.11452e-08
-5.05085e-07
-1.25231e-08
-4.94219e-07
-1.0863e-08
-4.8607e-07
-8.14517e-09
-4.82386e-07
-3.68019e-09
-4.78982e-07
-3.40052e-09
-4.71501e-07
-7.47809e-09
-4.63786e-07
-7.71253e-09
-4.54828e-07
-8.9557e-09
-4.45689e-07
-9.13654e-09
-4.36248e-07
-9.43912e-09
-4.26844e-07
-9.40077e-09
-4.17356e-07
-9.4847e-09
-4.07887e-07
-9.46591e-09
-3.98271e-07
-9.61099e-09
-3.88868e-07
-9.39654e-09
-3.79201e-07
-9.66012e-09
-3.69605e-07
-9.5879e-09
-3.60686e-07
-8.90925e-09
-3.51431e-07
-9.24296e-09
-3.42616e-07
-8.80246e-09
-3.345e-07
-8.10169e-09
-3.2738e-07
-7.10319e-09
-3.20386e-07
-6.97593e-09
-3.12441e-07
-7.92356e-09
-3.04617e-07
-7.80133e-09
-2.96844e-07
-7.74687e-09
-2.89093e-07
-7.72123e-09
-2.81734e-07
-7.3262e-09
-2.74386e-07
-7.31034e-09
-2.67398e-07
-6.94544e-09
-2.59595e-07
-7.75569e-09
-2.5216e-07
-7.38121e-09
-2.45678e-07
-6.42098e-09
-2.38666e-07
-6.94453e-09
-2.31842e-07
-6.74823e-09
-2.26833e-07
-4.92616e-09
-2.14652e-07
-1.20941e-08
-2.04087e-07
-1.04861e-08
-2.01024e-07
-3.01458e-09
-1.91212e-07
-9.87004e-09
-1.984e-07
6.91854e-09
-2.10296e-07
1.11002e-08
-2.61393e-07
4.98375e-08
-3.05445e-07
4.17679e-08
-3.37971e-07
2.84739e-08
-3.5717e-07
1.55001e-08
-3.69465e-07
8.95221e-09
-3.77302e-07
4.82347e-09
-3.81951e-07
1.93603e-09
-3.84522e-07
1.28196e-10
-3.85835e-07
-8.89083e-10
-3.86024e-07
-1.79623e-09
-3.85472e-07
-2.34633e-09
-3.84364e-07
-2.73001e-09
-3.82758e-07
-3.0765e-09
-3.80784e-07
-3.3097e-09
-3.78456e-07
-3.5417e-09
-3.75845e-07
-3.71913e-09
-3.73045e-07
-3.81255e-09
-3.70079e-07
-3.8944e-09
-3.66925e-07
-4.0074e-09
-3.63566e-07
-4.14423e-09
-3.60019e-07
-4.27228e-09
-3.56323e-07
-4.36559e-09
-3.52529e-07
-4.41335e-09
-3.48682e-07
-4.42094e-09
-3.4481e-07
-4.40468e-09
-3.4092e-07
-4.38306e-09
-3.36996e-07
-4.38166e-09
-3.33004e-07
-4.41698e-09
-3.28966e-07
-4.43335e-09
-3.24851e-07
-4.48271e-09
-3.20628e-07
-4.56585e-09
-3.16273e-07
-4.6756e-09
-3.11755e-07
-4.81906e-09
-3.0705e-07
-4.98683e-09
-3.02157e-07
-5.15833e-09
-2.97097e-07
-5.31139e-09
-2.9192e-07
-5.41567e-09
-2.86668e-07
-5.4775e-09
-2.81376e-07
-5.50844e-09
-2.76085e-07
-5.49683e-09
-2.70829e-07
-5.45349e-09
-2.65632e-07
-5.38601e-09
-2.60524e-07
-5.29026e-09
-2.55538e-07
-5.16041e-09
-2.50703e-07
-5.00262e-09
-2.46024e-07
-4.84107e-09
-2.41472e-07
-4.70704e-09
-2.36995e-07
-4.62627e-09
-2.32532e-07
-4.60749e-09
-2.28027e-07
-4.64402e-09
-2.23437e-07
-4.72386e-09
-2.18731e-07
-4.83461e-09
-2.13906e-07
-4.94903e-09
-2.09019e-07
-5.00665e-09
-2.04201e-07
-4.93261e-09
-1.99599e-07
-4.71336e-09
-1.95249e-07
-4.45729e-09
-1.91022e-07
-4.33041e-09
-1.86672e-07
-4.44921e-09
-1.82068e-07
-4.70095e-09
-1.77417e-07
-4.74377e-09
-1.73089e-07
-4.41764e-09
-1.69295e-07
-3.88203e-09
-1.65862e-07
-3.51696e-09
-1.62282e-07
-3.66231e-09
-1.58267e-07
-4.09406e-09
-1.54204e-07
-4.14069e-09
-1.50539e-07
-3.74041e-09
-1.47278e-07
-3.3349e-09
-1.43772e-07
-3.57903e-09
-1.39595e-07
-4.2487e-09
-1.35291e-07
-4.37398e-09
-1.31305e-07
-4.05629e-09
-1.27358e-07
-4.01551e-09
-1.22858e-07
-4.56911e-09
-1.18122e-07
-4.80533e-09
-1.13994e-07
-4.19596e-09
-1.10347e-07
-3.71553e-09
-1.06527e-07
-3.88558e-09
-1.02962e-07
-3.62653e-09
-9.91968e-08
-3.81907e-09
-1.231e-09
7.37642e-05
-2.41002e-06
7.5016e-05
-2.47545e-06
7.62073e-05
-2.35681e-06
7.73873e-05
-2.33428e-06
7.84825e-05
-2.17204e-06
7.94992e-05
-2.05184e-06
8.04895e-05
-2.01633e-06
8.14824e-05
-2.0484e-06
8.24973e-05
-2.077e-06
8.35146e-05
-2.02987e-06
8.45262e-05
-2.00031e-06
8.5511e-05
-1.95465e-06
8.6441e-05
-1.85998e-06
8.73161e-05
-1.76305e-06
8.8143e-05
-1.7083e-06
8.89074e-05
-1.58125e-06
8.96329e-05
-1.48442e-06
9.03168e-05
-1.37861e-06
9.09503e-05
-1.21588e-06
9.15283e-05
-1.08443e-06
9.20641e-05
-1.08112e-06
9.25642e-05
-1.11458e-06
9.30346e-05
-1.07469e-06
9.34029e-05
-7.55482e-07
9.37183e-05
-4.55548e-07
9.40008e-05
-4.23846e-07
9.42812e-05
-5.81548e-07
9.45233e-05
-5.75421e-07
9.46611e-05
-2.70441e-07
9.47167e-05
-7.21974e-08
9.4791e-05
-1.45731e-07
9.489e-05
-1.68826e-07
9.49334e-05
1.51345e-08
9.47572e-05
4.52359e-07
9.44436e-05
4.80642e-07
9.42074e-05
2.29882e-07
9.40907e-05
1.83265e-07
9.40091e-05
4.07682e-07
9.37421e-05
7.44173e-07
9.33516e-05
7.78676e-07
9.30087e-05
4.8674e-07
9.27525e-05
4.37745e-07
9.242e-05
8.47609e-07
9.19169e-05
1.2613e-06
9.13596e-05
1.15633e-06
9.08711e-05
8.28863e-07
9.04424e-05
8.30724e-07
8.9944e-05
1.08963e-06
8.93467e-05
1.23464e-06
8.86647e-05
1.24441e-06
8.79531e-05
1.34962e-06
8.72184e-05
1.48485e-06
8.6494e-05
1.44356e-06
8.57583e-05
1.34248e-06
8.49627e-05
1.51728e-06
8.40798e-05
1.72155e-06
8.32078e-05
1.69155e-06
8.24594e-05
1.49261e-06
8.16364e-05
1.64891e-06
8.05817e-05
2.13906e-06
7.94216e-05
2.45063e-06
7.83301e-05
2.26723e-06
7.73321e-05
2.01357e-06
7.61551e-05
2.26815e-06
7.47853e-05
2.72924e-06
7.34048e-05
2.87465e-06
7.20652e-05
2.69278e-06
7.07227e-05
2.63108e-06
6.93307e-05
2.83007e-06
6.7842e-05
3.04313e-06
6.61689e-05
3.37313e-06
6.44179e-05
3.7211e-06
6.25914e-05
4.21344e-06
6.06929e-05
4.5091e-06
5.88569e-05
5.02559e-06
5.73426e-05
5.84919e-06
5.651e-05
6.69004e-06
5.65707e-05
8.36835e-06
5.40894e-05
1.00951e-05
4.72783e-05
1.06516e-05
3.87668e-05
1.03467e-05
3.10171e-05
7.98524e-06
2.7038e-05
4.62153e-06
2.43963e-05
2.73471e-06
2.32782e-05
7.64038e-07
2.23156e-05
1.33727e-06
2.16674e-05
1.08181e-06
2.15886e-05
4.79768e-07
2.18337e-05
6.0032e-08
2.1509e-05
7.49982e-07
2.11408e-05
7.23646e-07
2.07719e-05
6.14061e-07
2.03588e-05
7.46241e-07
1.99912e-05
7.63432e-07
1.9672e-05
7.77188e-07
1.92742e-05
9.02951e-07
1.88954e-05
9.54207e-07
1.85104e-05
9.87589e-07
1.82698e-05
1.25644e-06
1.79693e-05
1.36081e-06
1.74446e-05
1.18864e-06
1.64589e-05
1.32878e-06
1.53711e-05
1.24231e-06
1.4687e-05
9.31399e-07
1.42336e-05
6.07683e-07
1.39481e-05
4.30451e-07
1.36449e-05
5.57954e-07
1.33463e-05
5.53721e-07
1.31195e-05
4.87712e-07
1.29165e-05
4.69424e-07
1.26469e-05
5.53945e-07
1.23779e-05
5.60989e-07
1.21134e-05
5.67061e-07
1.18375e-05
5.91315e-07
1.15712e-05
6.16057e-07
1.13099e-05
6.20562e-07
1.11261e-05
7.29431e-07
1.08994e-05
7.76946e-07
1.05642e-05
6.93426e-07
1.0041e-05
7.30807e-07
9.50324e-06
6.65351e-07
9.14967e-06
5.42584e-07
8.87356e-06
4.29957e-07
8.68506e-06
3.30058e-07
8.48853e-06
3.7867e-07
8.32165e-06
3.43184e-07
8.16503e-06
3.24122e-07
7.98123e-06
3.63957e-07
7.79804e-06
3.71086e-07
7.61678e-06
3.61861e-07
7.43698e-06
3.47853e-07
7.25793e-06
3.54565e-07
7.0788e-06
3.61069e-07
6.90168e-06
3.58531e-07
6.7298e-06
3.41503e-07
6.55923e-06
3.32901e-07
6.38482e-06
3.4648e-07
6.21696e-06
3.40029e-07
6.05501e-06
3.26916e-07
5.89466e-06
3.13273e-07
5.72905e-06
3.28628e-07
5.57169e-06
3.20104e-07
5.42026e-06
3.0692e-07
5.265e-06
3.06254e-07
5.10877e-06
3.11862e-07
4.96203e-06
2.99276e-07
4.82123e-06
2.83296e-07
4.67726e-06
2.80422e-07
4.52801e-06
2.94803e-07
4.38921e-06
2.82397e-07
4.25457e-06
2.76083e-07
4.11767e-06
2.78787e-07
3.98879e-06
2.53019e-07
3.86298e-06
2.42468e-07
3.73375e-06
2.58555e-07
3.60401e-06
2.6458e-07
3.48273e-06
2.47736e-07
3.36751e-06
2.27668e-07
3.25048e-06
2.27553e-07
3.13009e-06
2.41879e-07
3.01007e-06
2.42918e-07
2.89781e-06
2.23196e-07
2.79155e-06
2.08732e-07
2.68118e-06
2.2181e-07
2.56441e-06
2.36012e-07
2.45233e-06
2.21746e-07
2.34728e-06
2.05694e-07
2.24373e-06
2.08745e-07
2.13428e-06
2.22276e-07
2.0212e-06
2.27146e-07
1.91744e-06
2.06573e-07
1.81888e-06
1.94086e-07
1.71269e-06
2.11422e-07
1.60238e-06
2.22389e-07
1.50073e-06
2.08346e-07
1.40007e-06
2.00534e-07
1.29602e-06
2.01971e-07
1.19438e-06
2.04021e-07
1.09529e-06
2.02533e-07
9.96476e-07
2.01519e-07
8.96487e-07
2.01363e-07
7.96647e-07
1.95706e-07
6.96298e-07
1.97202e-07
5.96196e-07
2.00897e-07
4.99472e-07
1.95701e-07
4.05902e-07
1.86782e-07
3.1421e-07
1.80714e-07
2.2112e-07
1.88087e-07
1.27421e-07
1.90274e-07
3.44645e-08
1.85148e-07
-5.7771e-08
1.79812e-07
-1.49036e-07
1.80848e-07
-2.38719e-07
1.80076e-07
-3.25053e-07
1.74348e-07
-4.09079e-07
1.70034e-07
-4.94071e-07
1.68545e-07
-5.81533e-07
1.72547e-07
-6.6606e-07
1.68658e-07
-7.46217e-07
1.6049e-07
-8.24534e-07
1.54828e-07
-9.03307e-07
1.57956e-07
-9.82765e-07
1.59375e-07
-1.06247e-06
1.589e-07
-1.13626e-06
1.48906e-07
-1.20819e-06
1.44546e-07
-1.28028e-06
1.41182e-07
-1.35379e-06
1.4384e-07
-1.42632e-06
1.45736e-07
-1.49365e-06
1.36889e-07
-1.55926e-06
1.30664e-07
-1.62564e-06
1.29498e-07
-1.692e-06
1.32603e-07
-1.75349e-06
1.24384e-07
-1.8136e-06
1.21007e-07
-1.87255e-06
1.16741e-07
-1.92895e-06
1.10684e-07
-1.98517e-06
1.13716e-07
-2.03944e-06
1.09166e-07
-2.09272e-06
1.06442e-07
-2.14458e-06
1.04385e-07
-2.19213e-06
9.39533e-08
-2.23904e-06
9.08329e-08
-2.28382e-06
9.04252e-08
-2.32775e-06
8.89777e-08
-2.3706e-06
8.51616e-08
-2.41042e-06
7.97754e-08
-2.44867e-06
7.6922e-08
-2.48483e-06
7.20959e-08
-2.51897e-06
6.62731e-08
-2.55167e-06
6.60568e-08
-2.58367e-06
6.41668e-08
-2.61369e-06
5.99829e-08
-2.6409e-06
5.51322e-08
-2.66645e-06
5.08459e-08
-2.68995e-06
4.56324e-08
-2.71204e-06
4.56034e-08
-2.73325e-06
4.40292e-08
-2.75491e-06
4.22552e-08
-2.77481e-06
3.74396e-08
-2.7924e-06
3.50948e-08
-2.80748e-06
3.09651e-08
-2.82137e-06
2.827e-08
-2.83458e-06
2.61954e-08
-2.84635e-06
2.3707e-08
-2.85627e-06
2.03737e-08
-2.86569e-06
1.8434e-08
-2.87573e-06
2.03374e-08
-2.88406e-06
1.64095e-08
-2.89015e-06
1.16472e-08
-2.89532e-06
1.07398e-08
-2.90012e-06
9.77995e-09
-2.90381e-06
7.7265e-09
-2.90712e-06
6.81018e-09
-2.90982e-06
5.33642e-09
-2.91137e-06
4.00822e-09
-2.91213e-06
2.56993e-09
-2.91262e-06
3.92071e-10
-2.91338e-06
-1.44391e-10
-2.91384e-06
7.61357e-10
-2.91235e-06
-2.11211e-09
-2.91006e-06
-3.95437e-09
-2.90757e-06
-5.66826e-09
-2.90534e-06
-4.42907e-09
-2.90275e-06
-4.99665e-09
-2.89985e-06
-5.79007e-09
-2.89636e-06
-6.75391e-09
-2.89249e-06
-7.47774e-09
-2.88787e-06
-9.30853e-09
-2.88287e-06
-1.05458e-08
-2.87791e-06
-1.02208e-08
-2.87282e-06
-1.01204e-08
-2.86754e-06
-1.04482e-08
-2.86191e-06
-1.10083e-08
-2.85605e-06
-1.16548e-08
-2.85044e-06
-1.15339e-08
-2.84429e-06
-1.26382e-08
-2.83756e-06
-1.34919e-08
-2.83053e-06
-1.38488e-08
-2.82341e-06
-1.41067e-08
-2.81607e-06
-1.44121e-08
-2.80869e-06
-1.44635e-08
-2.80161e-06
-1.41397e-08
-2.79387e-06
-1.54838e-08
-2.78576e-06
-1.61462e-08
-2.77756e-06
-1.65404e-08
-2.76923e-06
-1.68849e-08
-2.76075e-06
-1.68653e-08
-2.75216e-06
-1.70584e-08
-2.74336e-06
-1.74984e-08
-2.73436e-06
-1.7998e-08
-2.72518e-06
-1.85181e-08
-2.71584e-06
-1.89911e-08
-2.70637e-06
-1.89981e-08
-2.69677e-06
-1.91531e-08
-2.68704e-06
-1.94242e-08
-2.67717e-06
-1.96787e-08
-2.66722e-06
-1.99597e-08
-2.65724e-06
-2.00545e-08
-2.64706e-06
-2.03312e-08
-2.63677e-06
-2.05374e-08
-2.62638e-06
-2.07388e-08
-2.61584e-06
-2.10039e-08
-2.60521e-06
-2.12193e-08
-2.59448e-06
-2.13736e-08
-2.58364e-06
-2.15957e-08
-2.57264e-06
-2.19729e-08
-2.56151e-06
-2.22952e-08
-2.55026e-06
-2.24732e-08
-2.53891e-06
-2.2668e-08
-2.52742e-06
-2.29779e-08
-2.51578e-06
-2.33089e-08
-2.504e-06
-2.35739e-08
-2.49208e-06
-2.3853e-08
-2.48003e-06
-2.41319e-08
-2.46783e-06
-2.4415e-08
-2.45548e-06
-2.47259e-08
-2.44297e-06
-2.50405e-08
-2.43031e-06
-2.53341e-08
-2.41749e-06
-2.56403e-08
-2.4045e-06
-2.59815e-08
-2.39133e-06
-2.63491e-08
-2.37799e-06
-2.67014e-08
-2.36448e-06
-2.70347e-08
-2.35081e-06
-2.73688e-08
-2.33694e-06
-2.77493e-08
-2.32287e-06
-2.81618e-08
-2.3086e-06
-2.85794e-08
-2.29413e-06
-2.89306e-08
-2.27945e-06
-2.93265e-08
-2.26455e-06
-2.97484e-08
-2.24942e-06
-3.02011e-08
-2.23406e-06
-3.06956e-08
-2.21845e-06
-3.11726e-08
-2.2026e-06
-3.16566e-08
-2.18651e-06
-3.21737e-08
-2.17017e-06
-3.26903e-08
-2.15357e-06
-3.31929e-08
-2.13674e-06
-3.3682e-08
-2.11967e-06
-3.4156e-08
-2.10236e-06
-3.46316e-08
-2.08481e-06
-3.5103e-08
-2.06702e-06
-3.55496e-08
-2.049e-06
-3.59933e-08
-2.03076e-06
-3.64411e-08
-2.01229e-06
-3.68985e-08
-1.9936e-06
-3.7335e-08
-1.97469e-06
-3.77608e-08
-1.95558e-06
-3.81879e-08
-1.93626e-06
-3.86082e-08
-1.91674e-06
-3.90094e-08
-1.89704e-06
-3.93935e-08
-1.87718e-06
-3.97324e-08
-1.85714e-06
-4.00537e-08
-1.83694e-06
-4.036e-08
-1.8166e-06
-4.06427e-08
-1.79611e-06
-4.09056e-08
-1.77549e-06
-4.11555e-08
-1.75475e-06
-4.13904e-08
-1.73392e-06
-4.16035e-08
-1.713e-06
-4.17983e-08
-1.69201e-06
-4.19554e-08
-1.67093e-06
-4.21354e-08
-1.64978e-06
-4.22732e-08
-1.62858e-06
-4.23673e-08
-1.60734e-06
-4.2432e-08
-1.58607e-06
-4.24696e-08
-1.56479e-06
-4.24941e-08
-1.54348e-06
-4.25226e-08
-1.52217e-06
-4.25327e-08
-1.50086e-06
-4.25414e-08
-1.47956e-06
-4.25455e-08
-1.45827e-06
-4.25236e-08
-1.43702e-06
-4.24708e-08
-1.41581e-06
-4.23872e-08
-1.39466e-06
-4.22789e-08
-1.37357e-06
-4.21543e-08
-1.35255e-06
-4.2012e-08
-1.3316e-06
-4.18505e-08
-1.31074e-06
-4.16731e-08
-1.28997e-06
-4.14861e-08
-1.26931e-06
-4.12932e-08
-1.24877e-06
-4.10827e-08
-1.22835e-06
-4.08443e-08
-1.20807e-06
-4.05729e-08
-1.18795e-06
-4.02694e-08
-1.16796e-06
-3.99722e-08
-1.1481e-06
-3.96685e-08
-1.12839e-06
-3.93687e-08
-1.10883e-06
-3.90688e-08
-1.08942e-06
-3.87592e-08
-1.07018e-06
-3.84395e-08
-1.05112e-06
-3.81085e-08
-1.03224e-06
-3.77553e-08
-1.01356e-06
-3.73752e-08
-9.95047e-07
-3.70013e-08
-9.76715e-07
-3.66233e-08
-9.58562e-07
-3.62449e-08
-9.40589e-07
-3.58756e-08
-9.22803e-07
-3.55188e-08
-9.05205e-07
-3.51659e-08
-8.87806e-07
-3.47929e-08
-8.70602e-07
-3.44081e-08
-8.53599e-07
-3.40032e-08
-8.36782e-07
-3.36057e-08
-8.20169e-07
-3.31844e-08
-8.03739e-07
-3.27889e-08
-7.8755e-07
-3.23326e-08
-7.71567e-07
-3.19321e-08
-7.55837e-07
-3.14702e-08
-7.40384e-07
-3.0964e-08
-7.2513e-07
-3.05421e-08
-7.10129e-07
-3.00693e-08
-6.95189e-07
-2.98206e-08
-6.80506e-07
-2.93431e-08
-6.65825e-07
-2.91712e-08
-6.51413e-07
-2.87912e-08
-6.37521e-07
-2.80289e-08
-6.23839e-07
-2.77804e-08
-6.1004e-07
-2.77152e-08
-5.96611e-07
-2.68353e-08
-5.8168e-07
-2.82881e-08
-5.67197e-07
-2.78347e-08
-5.55765e-07
-2.41837e-08
-5.44411e-07
-2.54585e-08
-5.3446e-07
-2.38156e-08
-5.25748e-07
-1.98536e-08
-5.22286e-07
-1.59817e-08
-5.18429e-07
-1.47176e-08
-5.09809e-07
-1.6763e-08
-4.99189e-07
-1.42985e-08
-4.8735e-07
-1.52389e-08
-4.77268e-07
-1.75608e-08
-4.66868e-07
-1.81147e-08
-4.57021e-07
-1.88065e-08
-4.47111e-07
-1.90509e-08
-4.3736e-07
-1.91947e-08
-4.27614e-07
-1.91533e-08
-4.17973e-07
-1.91322e-08
-4.07959e-07
-1.94865e-08
-3.98041e-07
-1.95369e-08
-3.88912e-07
-1.85341e-08
-3.79894e-07
-1.86875e-08
-3.71161e-07
-1.83303e-08
-3.62807e-07
-1.72749e-08
-3.55565e-07
-1.64977e-08
-3.48421e-07
-1.59624e-08
-3.39999e-07
-1.65422e-08
-3.31319e-07
-1.5805e-08
-3.22337e-07
-1.59845e-08
-3.14172e-07
-1.61188e-08
-3.05467e-07
-1.65421e-08
-2.9745e-07
-1.58033e-08
-2.88316e-07
-1.69025e-08
-2.80425e-07
-1.52705e-08
-2.73223e-07
-1.45727e-08
-2.66991e-07
-1.32482e-08
-2.61142e-07
-1.36845e-08
-2.54516e-07
-1.40994e-08
-2.49007e-07
-1.20349e-08
-2.35337e-07
-2.07329e-08
-2.23756e-07
-1.84557e-08
-2.20602e-07
-8.20301e-09
-2.17016e-07
-1.57666e-08
-2.25567e-07
-1.92817e-09
-2.36768e-07
8.44493e-09
-2.95174e-07
4.91061e-08
-3.54481e-07
6.77712e-08
-3.91047e-07
5.07356e-08
-4.02674e-07
6.55463e-08
-3.94536e-07
3.97593e-08
-3.88941e-07
2.87356e-08
-3.88883e-07
2.09267e-08
-3.89667e-07
1.48054e-08
-3.90389e-07
1.01846e-08
-3.90974e-07
6.74519e-09
-3.91268e-07
4.25315e-09
-3.91118e-07
2.42983e-09
-3.90295e-07
5.23082e-10
-3.88997e-07
-7.98149e-10
-3.87231e-07
-1.91498e-09
-3.85228e-07
-2.73542e-09
-3.82985e-07
-3.41998e-09
-3.80477e-07
-4.104e-09
-3.77748e-07
-4.66986e-09
-3.74779e-07
-5.15212e-09
-3.71559e-07
-5.61719e-09
-3.68098e-07
-6.09098e-09
-3.64426e-07
-6.54551e-09
-3.60589e-07
-6.93395e-09
-3.56645e-07
-7.22356e-09
-3.52641e-07
-7.41035e-09
-3.48611e-07
-7.51745e-09
-3.44563e-07
-7.58605e-09
-3.40483e-07
-7.65839e-09
-3.36364e-07
-7.75246e-09
-3.32226e-07
-7.85886e-09
-3.27957e-07
-8.0533e-09
-3.23582e-07
-8.25289e-09
-3.19119e-07
-8.46248e-09
-3.14565e-07
-8.69978e-09
-3.09926e-07
-8.95951e-09
-3.05212e-07
-9.23028e-09
-3.00431e-07
-9.49579e-09
-2.95581e-07
-9.73995e-09
-2.90642e-07
-9.954e-09
-2.85636e-07
-1.01017e-08
-2.80605e-07
-1.01743e-08
-2.75551e-07
-1.02003e-08
-2.70489e-07
-1.01801e-08
-2.65451e-07
-1.01011e-08
-2.60478e-07
-9.95266e-09
-2.55602e-07
-9.73733e-09
-2.50832e-07
-9.48525e-09
-2.46148e-07
-9.24775e-09
-2.41515e-07
-9.07281e-09
-2.369e-07
-8.98388e-09
-2.32288e-07
-8.97142e-09
-2.27675e-07
-9.01784e-09
-2.2305e-07
-9.11881e-09
-2.18385e-07
-9.27688e-09
-2.13662e-07
-9.45827e-09
-2.08904e-07
-9.55776e-09
-2.04193e-07
-9.44445e-09
-1.99615e-07
-9.09884e-09
-1.95179e-07
-8.70703e-09
-1.90784e-07
-8.54545e-09
-1.86349e-07
-8.71092e-09
-1.81927e-07
-8.95494e-09
-1.77659e-07
-8.84811e-09
-1.73695e-07
-8.22458e-09
-1.69979e-07
-7.44476e-09
-1.66123e-07
-7.22415e-09
-1.61969e-07
-7.67122e-09
-1.57832e-07
-8.08885e-09
-1.53988e-07
-7.84655e-09
-1.50507e-07
-7.08646e-09
-1.46834e-07
-6.87478e-09
-1.42667e-07
-7.61565e-09
-1.38555e-07
-8.23212e-09
-1.34766e-07
-8.03535e-09
-1.31133e-07
-7.56333e-09
-1.2701e-07
-8.01271e-09
-1.22916e-07
-8.53819e-09
-1.19336e-07
-8.26243e-09
-1.1585e-07
-7.55843e-09
-1.12198e-07
-7.24668e-09
-1.08613e-07
-7.35351e-09
-1.0477e-07
-7.3594e-09
-1.00407e-07
-8.08218e-09
-3.64063e-09
7.39381e-05
-3.62597e-06
7.51914e-05
-3.72814e-06
7.63802e-05
-3.54458e-06
7.75636e-05
-3.51611e-06
7.86592e-05
-3.26573e-06
7.97033e-05
-3.09298e-06
8.06957e-05
-3.00496e-06
8.16603e-05
-3.00923e-06
8.26243e-05
-3.03696e-06
8.35826e-05
-2.98337e-06
8.45272e-05
-2.93946e-06
8.54487e-05
-2.87053e-06
8.63449e-05
-2.75053e-06
8.72104e-05
-2.62263e-06
8.80153e-05
-2.50718e-06
8.87834e-05
-2.34328e-06
8.94892e-05
-2.18439e-06
9.01522e-05
-2.03603e-06
9.07991e-05
-1.85732e-06
9.13984e-05
-1.67858e-06
9.19182e-05
-1.59612e-06
9.2367e-05
-1.55889e-06
9.27359e-05
-1.43959e-06
9.31067e-05
-1.12295e-06
9.34991e-05
-8.45221e-07
9.38796e-05
-8.02018e-07
9.41403e-05
-8.4037e-07
9.433e-05
-7.63809e-07
9.44842e-05
-4.23928e-07
9.46318e-05
-2.19453e-07
9.47366e-05
-2.50337e-07
9.48286e-05
-2.60901e-07
9.49199e-05
-7.64684e-08
9.48697e-05
5.02253e-07
9.46412e-05
7.08612e-07
9.43237e-05
5.46635e-07
9.40961e-05
4.10036e-07
9.40207e-05
4.82007e-07
9.39015e-05
8.62369e-07
9.36259e-05
1.05324e-06
9.32219e-05
8.89895e-07
9.28517e-05
8.07075e-07
9.25698e-05
1.12877e-06
9.229e-05
1.54017e-06
9.18832e-05
1.56229e-06
9.13419e-05
1.36913e-06
9.07938e-05
1.37777e-06
9.0266e-05
1.61656e-06
8.9695e-05
1.80502e-06
8.89932e-05
1.94581e-06
8.82518e-05
2.09078e-06
8.74875e-05
2.24893e-06
8.67132e-05
2.21766e-06
8.58814e-05
2.17399e-06
8.50658e-05
2.33265e-06
8.42007e-05
2.58632e-06
8.33455e-05
2.54653e-06
8.25167e-05
2.32114e-06
8.16086e-05
2.55698e-06
8.06329e-05
3.11471e-06
7.96727e-05
3.411e-06
7.86941e-05
3.246e-06
7.76393e-05
3.06865e-06
7.63622e-05
3.54542e-06
7.51127e-05
3.97895e-06
7.3943e-05
4.04458e-06
7.26596e-05