/*--------------------------------*- C++ -*----------------------------------*\
| =========                 |                                                 |
| \\      /  F ield         | OpenFOAM: The Open Source CFD Toolbox           |
|  \\    /   O peration     | Version:  v2006                                 |
|   \\  /    A nd           | Website:  www.openfoam.com                      |
|    \\/     M anipulation  |                                                 |
\*---------------------------------------------------------------------------*/
FoamFile
{
    version     2.0;
    format      ascii;
    class       volVectorField;
    location    "2.8";
    object      U;
}
// * * * * * * * * * * * * * * * * * * * * * * * * * * * * * * * * * * * * * //

dimensions      [0 1 -1 0 0 0 0];


internalField   nonuniform List<vector> 
33000
(
(0.200863 0 -0.00234662)
(0.190108 0 -0.00240369)
(0.187075 0 -0.00227899)
(0.189742 0 -0.00225449)
(0.19546 0 -0.00208729)
(0.197669 0 -0.00204452)
(0.199275 0 -0.0020212)
(0.201428 0 -0.00208154)
(0.204667 0 -0.00205384)
(0.207772 0 -0.00187575)
(0.210129 0 -0.00177362)
(0.212191 0 -0.00170564)
(0.214563 0 -0.00160258)
(0.217004 0 -0.00151001)
(0.219202 0 -0.00152647)
(0.221347 0 -0.00143151)
(0.223239 0 -0.00131073)
(0.225017 0 -0.00116374)
(0.226678 0 -0.000870714)
(0.228 0 -0.00069392)
(0.22923 0 -0.000833521)
(0.230706 0 -0.00111622)
(0.232364 0 -0.00105142)
(0.233666 0 -0.000527707)
(0.234144 0 0.000100409)
(0.234385 0 7.02944e-06)
(0.234944 0 -0.000426547)
(0.235935 0 -0.000539395)
(0.23661 0 5.06942e-05)
(0.236496 0 0.000171989)
(0.236577 0 -5.90112e-06)
(0.236951 0 3.56152e-05)
(0.237101 0 0.000359348)
(0.236533 0 0.000757075)
(0.235603 0 0.000243288)
(0.235624 0 6.63944e-06)
(0.235866 0 0.000390909)
(0.235383 0 0.00103003)
(0.234021 0 0.00112047)
(0.23283 0 0.000751539)
(0.232209 0 0.000193127)
(0.232145 0 0.000419325)
(0.231519 0 0.00133152)
(0.229504 0 0.00174463)
(0.227495 0 0.00111159)
(0.226502 0 0.000539666)
(0.225891 0 0.000887623)
(0.224608 0 0.00130978)
(0.222834 0 0.00127575)
(0.221371 0 0.000989907)
(0.220063 0 0.0012192)
(0.218314 0 0.00153908)
(0.216237 0 0.00145827)
(0.214607 0 0.00114341)
(0.213202 0 0.00150353)
(0.211185 0 0.00180766)
(0.208927 0 0.00166781)
(0.206974 0 0.00157833)
(0.205178 0 0.0018289)
(0.202978 0 0.00233592)
(0.199936 0 0.00275032)
(0.196565 0 0.00237806)
(0.193766 0 0.00203745)
(0.191392 0 0.00219486)
(0.188517 0 0.00271705)
(0.184812 0 0.00309251)
(0.180987 0 0.00265303)
(0.177766 0 0.00249808)
(0.174532 0 0.00294078)
(0.170732 0 0.00315782)
(0.16653 0 0.00324468)
(0.16212 0 0.00376682)
(0.156592 0 0.00482505)
(0.150301 0 0.00516865)
(0.143061 0 0.00643135)
(0.134335 0 0.00913007)
(0.125546 0 0.0136548)
(0.111498 0 0.0214357)
(0.0726263 0 0.0147577)
(0.0721835 0 0.00096335)
(0.0582685 0 -0.0041849)
(0.0594499 0 -0.00658816)
(0.0582459 0 0.000299225)
(0.0562753 0 0.000781378)
(0.0576632 0 0.00132922)
(0.0577283 0 0.00100372)
(0.056287 0 0.000612284)
(0.0552883 0 0.000147916)
(0.0543509 0 -0.000332061)
(0.0536812 0 0.000531502)
(0.0523308 0 0.000505332)
(0.0518269 0 0.000510446)
(0.0511239 0 0.000582106)
(0.0501532 0 0.000769431)
(0.0491776 0 0.000895373)
(0.0477641 0 0.00105037)
(0.0468301 0 0.00127166)
(0.0445533 0 0.00139893)
(0.0444731 0 0.00272027)
(0.0391183 0 0.00260761)
(0.0384979 0 0.00122925)
(0.0366819 0 -0.000271911)
(0.0364243 0 -0.000761902)
(0.0359135 0 8.6394e-05)
(0.035285 0 0.000359453)
(0.0350627 0 0.000505772)
(0.0345283 0 0.00058403)
(0.0338404 0 0.000514841)
(0.0332212 0 0.000494298)
(0.03255 0 0.00050128)
(0.0318665 0 0.000553701)
(0.0311311 0 0.000587382)
(0.0304103 0 0.000618176)
(0.0295742 0 0.000656215)
(0.0289046 0 0.000754411)
(0.0276579 0 0.000796916)
(0.0274504 0 0.00138322)
(0.0247197 0 0.00129011)
(0.0243664 0 0.000645677)
(0.0233693 0 1.47743e-06)
(0.0231451 0 -0.000172793)
(0.0227209 0 0.000258472)
(0.0222444 0 0.000341639)
(0.0219171 0 0.000370216)
(0.0215108 0 0.000385011)
(0.0210298 0 0.000345681)
(0.0206152 0 0.000326408)
(0.0201848 0 0.000352285)
(0.0197154 0 0.000378151)
(0.0192401 0 0.00034929)
(0.0188119 0 0.0003281)
(0.018394 0 0.000345505)
(0.0179342 0 0.000368928)
(0.0174821 0 0.000359322)
(0.0170266 0 0.000334939)
(0.0166335 0 0.000311847)
(0.0162096 0 0.000334531)
(0.0157762 0 0.000339251)
(0.0153437 0 0.00032455)
(0.0149557 0 0.000295051)
(0.0145707 0 0.000317651)
(0.0141454 0 0.000324188)
(0.013752 0 0.000308499)
(0.0133708 0 0.000294333)
(0.0129906 0 0.000303135)
(0.012596 0 0.000303571)
(0.0122238 0 0.000282037)
(0.0118849 0 0.000264055)
(0.0115364 0 0.00028364)
(0.0111587 0 0.000286498)
(0.0108161 0 0.000282521)
(0.0104495 0 0.00028062)
(0.0101074 0 0.000241914)
(0.00982631 0 0.000226692)
(0.00952154 0 0.000254755)
(0.00917893 0 0.000266676)
(0.00884672 0 0.000252645)
(0.00854564 0 0.000221079)
(0.00828249 0 0.000212718)
(0.0079908 0 0.000238316)
(0.00767462 0 0.000243849)
(0.00737534 0 0.00021929)
(0.00711891 0 0.000200141)
(0.00686062 0 0.000220642)
(0.00656014 0 0.000235687)
(0.00626484 0 0.000213389)
(0.00601016 0 0.000195776)
(0.00575967 0 0.000209385)
(0.00548344 0 0.000224709)
(0.00519396 0 0.000224162)
(0.00491335 0 0.000201943)
(0.00467806 0 0.000187271)
(0.00443426 0 0.00020673)
(0.0041505 0 0.000220633)
(0.00387393 0 0.000213236)
(0.00361552 0 0.000196654)
(0.00337356 0 0.000188418)
(0.00312441 0 0.000202883)
(0.00286096 0 0.000206815)
(0.00260625 0 0.000205284)
(0.00234631 0 0.000202488)
(0.00209873 0 0.000185829)
(0.00186577 0 0.000186474)
(0.00161301 0 0.000197805)
(0.00136188 0 0.000197492)
(0.00111628 0 0.000184466)
(0.000896262 0 0.000172825)
(0.000668427 0 0.000189103)
(0.000421915 0 0.000194312)
(0.00018387 0 0.000181396)
(-3.91533e-05 0 0.000167814)
(-0.000255603 0 0.000174046)
(-0.000487632 0 0.000179389)
(-0.000708074 0 0.00017563)
(-0.000929023 0 0.000170617)
(-0.00113792 0 0.000162927)
(-0.00134902 0 0.000165488)
(-0.0015626 0 0.000165953)
(-0.00177177 0 0.000158422)
(-0.00196344 0 0.000149207)
(-0.00215703 0 0.000157112)
(-0.00235846 0 0.000157975)
(-0.00255884 0 0.000154777)
(-0.00275347 0 0.000148815)
(-0.00293655 0 0.00014404)
(-0.0031164 0 0.000134588)
(-0.00328324 0 0.000136013)
(-0.00346919 0 0.000144033)
(-0.00364893 0 0.000138842)
(-0.00381857 0 0.000127606)
(-0.00397392 0 0.000122082)
(-0.00413671 0 0.000130026)
(-0.0043039 0 0.000125299)
(-0.00445306 0 0.000120538)
(-0.00460867 0 0.000113074)
(-0.00474207 0 0.000105674)
(-0.00488257 0 0.000114038)
(-0.0050284 0 0.000108852)
(-0.00515858 0 0.000104932)
(-0.00529497 0 0.000103256)
(-0.00542087 0 9.08113e-05)
(-0.00552847 0 8.50001e-05)
(-0.00564105 0 9.068e-05)
(-0.00575735 0 8.91441e-05)
(-0.00586645 0 8.21327e-05)
(-0.00596984 0 7.91072e-05)
(-0.00606655 0 7.71585e-05)
(-0.00616412 0 7.0609e-05)
(-0.00624573 0 6.19612e-05)
(-0.0063269 0 6.63882e-05)
(-0.00641169 0 6.30529e-05)
(-0.00648892 0 5.86767e-05)
(-0.00656133 0 5.5743e-05)
(-0.00662972 0 4.97912e-05)
(-0.0066869 0 4.26917e-05)
(-0.00674267 0 4.78401e-05)
(-0.00680312 0 4.69124e-05)
(-0.00685834 0 3.95129e-05)
(-0.00690501 0 3.23639e-05)
(-0.00694784 0 3.36363e-05)
(-0.00699159 0 3.17122e-05)
(-0.00702821 0 2.86526e-05)
(-0.00706331 0 2.57142e-05)
(-0.00709354 0 2.40204e-05)
(-0.00712332 0 2.09519e-05)
(-0.00714538 0 1.76341e-05)
(-0.00716967 0 2.02823e-05)
(-0.00719595 0 1.53908e-05)
(-0.00721051 0 1.03488e-05)
(-0.00722408 0 1.13241e-05)
(-0.00723832 0 1.018e-05)
(-0.007249 0 8.14282e-06)
(-0.00725877 0 6.76864e-06)
(-0.00726626 0 4.89487e-06)
(-0.00727237 0 5.83015e-06)
(-0.00727836 0 4.43434e-06)
(-0.00728154 0 -4.36555e-07)
(-0.00727769 0 -2.94946e-06)
(-0.00727782 0 2.45306e-07)
(-0.00727827 0 -5.9649e-07)
(-0.00727567 0 -2.64671e-06)
(-0.00726891 0 -6.63511e-06)
(-0.00726103 0 -4.55358e-06)
(-0.00725702 0 -4.84443e-06)
(-0.00724958 0 -5.72228e-06)
(-0.00724217 0 -6.10823e-06)
(-0.00723366 0 -6.78851e-06)
(-0.00722386 0 -9.21432e-06)
(-0.00721034 0 -1.12692e-05)
(-0.00719635 0 -1.04416e-05)
(-0.00718395 0 -9.65173e-06)
(-0.00717123 0 -9.97832e-06)
(-0.00715823 0 -1.06548e-05)
(-0.00714421 0 -1.16294e-05)
(-0.0071295 0 -1.19447e-05)
(-0.00711435 0 -1.28874e-05)
(-0.00709732 0 -1.32278e-05)
(-0.00708049 0 -1.33178e-05)
(-0.00706321 0 -1.36084e-05)
(-0.00704568 0 -1.3661e-05)
(-0.00702777 0 -1.35748e-05)
(-0.0070105 0 -1.39033e-05)
(-0.00699217 0 -1.52247e-05)
(-0.00697207 0 -1.57234e-05)
(-0.00695192 0 -1.6457e-05)
(-0.00693043 0 -1.69092e-05)
(-0.0069093 0 -1.63737e-05)
(-0.00688844 0 -1.65723e-05)
(-0.00686704 0 -1.70407e-05)
(-0.00684494 0 -1.76364e-05)
(-0.00682212 0 -1.84272e-05)
(-0.00679821 0 -1.91601e-05)
(-0.00677406 0 -1.87377e-05)
(-0.00675049 0 -1.87594e-05)
(-0.00672634 0 -1.89942e-05)
(-0.00670208 0 -1.92423e-05)
(-0.00667727 0 -1.9697e-05)
(-0.00665211 0 -1.98707e-05)
(-0.00662692 0 -1.99239e-05)
(-0.00660139 0 -2.01178e-05)
(-0.00657569 0 -2.03049e-05)
(-0.00654969 0 -2.05152e-05)
(-0.00652335 0 -2.07686e-05)
(-0.00649678 0 -2.08611e-05)
(-0.00647013 0 -2.10686e-05)
(-0.00644303 0 -2.15324e-05)
(-0.00641527 0 -2.19283e-05)
(-0.00638726 0 -2.20317e-05)
(-0.00635915 0 -2.22099e-05)
(-0.00633068 0 -2.25782e-05)
(-0.00630168 0 -2.29533e-05)
(-0.00627234 0 -2.31844e-05)
(-0.00624269 0 -2.34613e-05)
(-0.00621266 0 -2.37518e-05)
(-0.00618228 0 -2.40399e-05)
(-0.00615153 0 -2.43517e-05)
(-0.00612036 0 -2.46527e-05)
(-0.00608883 0 -2.49216e-05)
(-0.00605696 0 -2.52212e-05)
(-0.00602466 0 -2.55582e-05)
(-0.00599192 0 -2.59192e-05)
(-0.0059587 0 -2.6279e-05)
(-0.00592506 0 -2.66149e-05)
(-0.00589101 0 -2.69483e-05)
(-0.00585651 0 -2.7323e-05)
(-0.00582153 0 -2.77418e-05)
(-0.00578595 0 -2.81752e-05)
(-0.00574994 0 -2.84286e-05)
(-0.00571356 0 -2.87806e-05)
(-0.00567665 0 -2.91848e-05)
(-0.00563923 0 -2.96182e-05)
(-0.00560119 0 -3.01142e-05)
(-0.00556252 0 -3.05785e-05)
(-0.00552329 0 -3.10684e-05)
(-0.00548339 0 -3.16162e-05)
(-0.0054428 0 -3.21465e-05)
(-0.00540158 0 -3.26499e-05)
(-0.00535972 0 -3.31449e-05)
(-0.00531726 0 -3.36163e-05)
(-0.00527422 0 -3.4081e-05)
(-0.00523057 0 -3.45337e-05)
(-0.00518638 0 -3.49256e-05)
(-0.00514167 0 -3.53296e-05)
(-0.00509642 0 -3.57634e-05)
(-0.00505059 0 -3.62178e-05)
(-0.00500419 0 -3.66354e-05)
(-0.00495729 0 -3.70475e-05)
(-0.00490983 0 -3.74786e-05)
(-0.00486183 0 -3.79049e-05)
(-0.00481331 0 -3.83194e-05)
(-0.00476428 0 -3.8732e-05)
(-0.00471476 0 -3.90835e-05)
(-0.00466486 0 -3.93459e-05)
(-0.0046146 0 -3.96192e-05)
(-0.00456398 0 -3.98745e-05)
(-0.00451305 0 -4.0102e-05)
(-0.00446181 0 -4.03256e-05)
(-0.00441028 0 -4.05427e-05)
(-0.00435848 0 -4.07705e-05)
(-0.00430638 0 -4.10303e-05)
(-0.00425402 0 -4.12268e-05)
(-0.00420146 0 -4.13947e-05)
(-0.00414868 0 -4.1519e-05)
(-0.00409578 0 -4.15941e-05)
(-0.0040428 0 -4.16311e-05)
(-0.00398977 0 -4.16489e-05)
(-0.00393672 0 -4.16593e-05)
(-0.00388365 0 -4.16595e-05)
(-0.00383057 0 -4.16575e-05)
(-0.00377748 0 -4.16809e-05)
(-0.00372435 0 -4.17119e-05)
(-0.00367121 0 -4.17109e-05)
(-0.00361811 0 -4.16802e-05)
(-0.00356507 0 -4.16141e-05)
(-0.00351216 0 -4.15175e-05)
(-0.00345938 0 -4.1395e-05)
(-0.00340678 0 -4.12445e-05)
(-0.00335439 0 -4.10669e-05)
(-0.00330222 0 -4.08775e-05)
(-0.00325028 0 -4.07003e-05)
(-0.00319856 0 -4.05392e-05)
(-0.00314706 0 -4.03724e-05)
(-0.00309582 0 -4.01699e-05)
(-0.00304487 0 -3.99182e-05)
(-0.0029943 0 -3.96198e-05)
(-0.00294412 0 -3.9287e-05)
(-0.00289435 0 -3.89404e-05)
(-0.00284499 0 -3.86085e-05)
(-0.00279602 0 -3.8288e-05)
(-0.00274743 0 -3.79846e-05)
(-0.00269922 0 -3.7699e-05)
(-0.00265139 0 -3.74226e-05)
(-0.00260393 0 -3.71228e-05)
(-0.00255694 0 -3.67475e-05)
(-0.00251044 0 -3.63524e-05)
(-0.00246443 0 -3.59439e-05)
(-0.00241893 0 -3.55299e-05)
(-0.00237392 0 -3.51502e-05)
(-0.00232936 0 -3.48232e-05)
(-0.0022852 0 -3.45292e-05)
(-0.00224146 0 -3.42042e-05)
(-0.00219817 0 -3.38551e-05)
(-0.00215538 0 -3.34408e-05)
(-0.00211311 0 -3.30325e-05)
(-0.00207138 0 -3.25736e-05)
(-0.00203019 0 -3.21688e-05)
(-0.00198955 0 -3.17413e-05)
(-0.00194942 0 -3.13583e-05)
(-0.00190977 0 -3.09383e-05)
(-0.00187069 0 -3.0365e-05)
(-0.00183217 0 -2.99771e-05)
(-0.00179423 0 -2.93848e-05)
(-0.0017568 0 -2.92561e-05)
(-0.0017198 0 -2.86978e-05)
(-0.00168351 0 -2.86752e-05)
(-0.00164729 0 -2.79145e-05)
(-0.00161168 0 -2.76739e-05)
(-0.00157651 0 -2.68359e-05)
(-0.00154124 0 -2.76243e-05)
(-0.00150689 0 -2.68337e-05)
(-0.00147426 0 -2.83661e-05)
(-0.00143988 0 -2.61895e-05)
(-0.00140786 0 -2.41665e-05)
(-0.00137561 0 -2.15175e-05)
(-0.00133755 0 -2.48714e-05)
(-0.00130653 0 -2.53856e-05)
(-0.00128149 0 -3.99505e-05)
(-0.00124342 0 -3.42234e-05)
(-0.00122918 0 -1.61459e-05)
(-0.00119894 0 -5.76849e-07)
(-0.00121327 0 2.87992e-06)
(-0.00118352 0 -1.23007e-05)
(-0.00117278 0 -1.2056e-05)
(-0.00114681 0 -1.65487e-05)
(-0.00112688 0 -1.67998e-05)
(-0.0011018 0 -1.80057e-05)
(-0.00107929 0 -1.84412e-05)
(-0.00105498 0 -1.86611e-05)
(-0.00103179 0 -1.92347e-05)
(-0.0010076 0 -1.88936e-05)
(-0.000983824 0 -1.84587e-05)
(-0.000960433 0 -1.74329e-05)
(-0.00093559 0 -1.84573e-05)
(-0.000912473 0 -1.82214e-05)
(-0.000890973 0 -2.21643e-05)
(-0.000866022 0 -2.02369e-05)
(-0.000847452 0 -1.6503e-05)
(-0.000824492 0 -1.20255e-05)
(-0.000812446 0 -1.22487e-05)
(-0.000790004 0 -1.48466e-05)
(-0.000771801 0 -1.59503e-05)
(-0.000751615 0 -1.56293e-05)
(-0.000732274 0 -1.64846e-05)
(-0.000713531 0 -1.51956e-05)
(-0.000694786 0 -1.25945e-05)
(-0.000677507 0 -1.36257e-05)
(-0.000659108 0 -9.78559e-06)
(-0.000639155 0 -1.58394e-05)
(-0.000621412 0 -1.06907e-05)
(-0.000607333 0 -2.38563e-05)
(-0.000585377 0 -1.09806e-05)
(-0.000574801 0 -1.24838e-05)
(-0.000558183 0 5.30725e-06)
(-0.000515443 0 -1.24431e-05)
(-0.000505594 0 -4.30845e-06)
(-0.000499094 0 -8.35213e-05)
(-0.000455816 0 -4.79106e-05)
(-0.000541238 0 -1.45736e-05)
(-0.000501745 0 7.55594e-05)
(-0.000809241 0 0.000127278)
(-0.00078013 0 9.43937e-05)
(-0.000875251 0 4.75414e-05)
(-0.000908518 0 2.43813e-05)
(-0.000933642 0 1.0243e-05)
(-0.000949135 0 2.19124e-06)
(-0.000958116 0 -2.16919e-06)
(-0.000962953 0 -4.35389e-06)
(-0.000964829 0 -5.43974e-06)
(-0.000964372 0 -6.05302e-06)
(-0.000962297 0 -6.39e-06)
(-0.000958917 0 -6.57181e-06)
(-0.000954446 0 -6.84765e-06)
(-0.000949059 0 -7.16799e-06)
(-0.000942878 0 -7.3729e-06)
(-0.000936113 0 -7.4658e-06)
(-0.000928907 0 -7.56314e-06)
(-0.000921263 0 -7.75993e-06)
(-0.000913127 0 -8.04058e-06)
(-0.000904489 0 -8.32486e-06)
(-0.000895427 0 -8.54794e-06)
(-0.000886063 0 -8.67804e-06)
(-0.000876508 0 -8.72109e-06)
(-0.000866857 0 -8.70128e-06)
(-0.000857155 0 -8.64831e-06)
(-0.00084739 0 -8.63258e-06)
(-0.000837499 0 -8.78009e-06)
(-0.000827464 0 -8.70982e-06)
(-0.000817277 0 -8.74329e-06)
(-0.00080686 0 -8.90247e-06)
(-0.000796146 0 -9.1092e-06)
(-0.000785066 0 -9.41309e-06)
(-0.000773566 0 -9.79741e-06)
(-0.000761567 0 -1.02044e-05)
(-0.000749098 0 -1.05745e-05)
(-0.000736288 0 -1.08011e-05)
(-0.000723242 0 -1.09479e-05)
(-0.000710057 0 -1.10208e-05)
(-0.000696826 0 -1.09698e-05)
(-0.000683639 0 -1.08385e-05)
(-0.000670568 0 -1.06668e-05)
(-0.000657681 0 -1.04545e-05)
(-0.000645052 0 -1.01846e-05)
(-0.000632769 0 -9.85418e-06)
(-0.000620882 0 -9.50418e-06)
(-0.000609355 0 -9.19733e-06)
(-0.000598081 0 -8.99585e-06)
(-0.000586913 0 -8.94234e-06)
(-0.000575713 0 -9.03353e-06)
(-0.000564358 0 -9.24024e-06)
(-0.000552739 0 -9.51917e-06)
(-0.000540811 0 -9.7999e-06)
(-0.000528657 0 -9.94368e-06)
(-0.000516505 0 -9.78588e-06)
(-0.000504702 0 -9.28992e-06)
(-0.000493528 0 -8.68071e-06)
(-0.000482846 0 -8.31238e-06)
(-0.000472163 0 -8.53899e-06)
(-0.000460962 0 -9.20463e-06)
(-0.000449287 0 -9.48295e-06)
(-0.000437966 0 -8.94179e-06)
(-0.000427823 0 -7.68666e-06)
(-0.000418913 0 -6.55634e-06)
(-0.00041029 0 -6.48856e-06)
(-0.000400783 0 -7.59818e-06)
(-0.000390513 0 -8.08092e-06)
(-0.000380771 0 -7.49076e-06)
(-0.000372226 0 -6.31786e-06)
(-0.000364033 0 -6.32913e-06)
(-0.000354421 0 -8.04024e-06)
(-0.000343541 0 -8.78232e-06)
(-0.000333155 0 -8.21028e-06)
(-0.000323468 0 -7.60508e-06)
(-0.000312964 0 -8.99027e-06)
(-0.000301102 0 -1.02272e-05)
(-0.000289862 0 -8.83489e-06)
(-0.000280721 0 -7.20413e-06)
(-0.000269982 0 -7.68052e-06)
(-0.000257224 0 -6.8357e-06)
(-0.000283413 0 -6.79647e-06)
(-0.000158252 0 -1.87961e-06)
(0.201135 0 -0.00707801)
(0.190403 0 -0.00725271)
(0.187449 0 -0.00690617)
(0.190153 0 -0.00683774)
(0.195957 0 -0.00638596)
(0.198178 0 -0.00606317)
(0.199726 0 -0.00599657)
(0.201762 0 -0.00617471)
(0.204821 0 -0.00631097)
(0.207895 0 -0.00612738)
(0.210297 0 -0.00601946)
(0.212415 0 -0.00591055)
(0.21481 0 -0.00564991)
(0.217213 0 -0.00533963)
(0.219365 0 -0.00525547)
(0.221332 0 -0.00486329)
(0.223152 0 -0.0045624)
(0.22497 0 -0.00422959)
(0.226583 0 -0.00365577)
(0.22814 0 -0.00322722)
(0.229448 0 -0.00334289)
(0.230778 0 -0.00358618)
(0.232085 0 -0.0035554)
(0.233063 0 -0.00243233)
(0.233878 0 -0.00122243)
(0.234688 0 -0.00110327)
(0.235262 0 -0.00185641)
(0.23614 0 -0.00196235)
(0.236464 0 -0.00100852)
(0.236706 0 -0.000250857)
(0.236848 0 -0.000502455)
(0.237131 0 -0.000543308)
(0.237457 0 0.000177319)
(0.237041 0 0.00141458)
(0.236688 0 0.00106628)
(0.235492 0 2.85309e-05)
(0.235405 0 0.0001954)
(0.235219 0 0.00152035)
(0.234715 0 0.0025527)
(0.234023 0 0.00225904)
(0.232651 0 0.000915271)
(0.232181 0 0.00100202)
(0.231727 0 0.00276287)
(0.230429 0 0.00421671)
(0.229042 0 0.00350692)
(0.227584 0 0.00211304)
(0.226648 0 0.00234725)
(0.225601 0 0.00341295)
(0.224163 0 0.0037329)
(0.222502 0 0.00343381)
(0.220746 0 0.00384299)
(0.218953 0 0.00442652)
(0.2171 0 0.00422126)
(0.215314 0 0.00365791)
(0.213489 0 0.00428661)
(0.211339 0 0.00492808)
(0.209002 0 0.00472751)
(0.206889 0 0.00420632)
(0.205187 0 0.004607)
(0.20301 0 0.00612952)
(0.200044 0 0.00746358)
(0.197002 0 0.00689466)
(0.194424 0 0.00589563)
(0.192017 0 0.00634427)
(0.188829 0 0.00787283)
(0.185187 0 0.00874855)
(0.181737 0 0.00802847)
(0.17842 0 0.00744206)
(0.17505 0 0.00822501)
(0.171481 0 0.00900872)
(0.16757 0 0.00981649)
(0.163257 0 0.0110705)
(0.15878 0 0.0129973)
(0.154268 0 0.0139537)
(0.14955 0 0.0163458)
(0.145717 0 0.0212133)
(0.141982 0 0.026426)
(0.140775 0 0.036657)
(0.136945 0 0.0444046)
(0.132597 0 0.0332408)
(0.116792 0 0.0219548)
(0.0761155 0 0.00923776)
(0.0759258 0 0.00341236)
(0.0620716 0 -0.000373616)
(0.0590687 0 -0.00445423)
(0.0572146 0 0.00241908)
(0.0545819 0 0.00298632)
(0.0536579 0 0.00311949)
(0.0544073 0 0.0028548)
(0.0544946 0 0.00277297)
(0.0532527 0 0.00226874)
(0.0523837 0 0.00138565)
(0.0514701 0 0.0020561)
(0.0503419 0 0.00233843)
(0.0496164 0 0.00267873)
(0.0487079 0 0.00286293)
(0.0477068 0 0.00312329)
(0.0467393 0 0.00317045)
(0.0458342 0 0.00485986)
(0.0455708 0 0.00539441)
(0.0439917 0 0.00406498)
(0.0437381 0 0.00350473)
(0.0385627 0 0.00248357)
(0.037768 0 0.00195647)
(0.0359107 0 0.000725331)
(0.0352226 0 0.000448867)
(0.0345218 0 0.00138009)
(0.0337036 0 0.00148912)
(0.0330477 0 0.00161148)
(0.0325617 0 0.00164455)
(0.031983 0 0.00170473)
(0.0312644 0 0.00170907)
(0.0306239 0 0.00174082)
(0.0299361 0 0.00180153)
(0.0292615 0 0.00194087)
(0.0285862 0 0.00195831)
(0.0279781 0 0.00270765)
(0.0276772 0 0.00287381)
(0.0266781 0 0.00220735)
(0.0263893 0 0.00189219)
(0.0238189 0 0.00143593)
(0.0234451 0 0.00127775)
(0.0224148 0 0.000812632)
(0.0219504 0 0.000665657)
(0.0214652 0 0.00103974)
(0.0209941 0 0.00105402)
(0.0206166 0 0.0010113)
(0.0201922 0 0.00107275)
(0.0197205 0 0.00110019)
(0.019268 0 0.00106833)
(0.0188161 0 0.000993614)
(0.0183697 0 0.00103578)
(0.0179197 0 0.00106305)
(0.0174741 0 0.00106827)
(0.0170344 0 0.000999554)
(0.0166156 0 0.000965239)
(0.0161792 0 0.00101862)
(0.0157468 0 0.00101459)
(0.0153373 0 0.000972667)
(0.0149396 0 0.000907924)
(0.0145317 0 0.0009646)
(0.0141157 0 0.000955555)
(0.0137423 0 0.000914434)
(0.0133599 0 0.000893614)
(0.012964 0 0.000921335)
(0.0125818 0 0.000896235)
(0.0122279 0 0.000838968)
(0.0118794 0 0.00080953)
(0.0115055 0 0.000861872)
(0.0111364 0 0.000843109)
(0.01081 0 0.000829894)
(0.0104624 0 0.000835492)
(0.0101273 0 0.000734974)
(0.00981655 0 0.000691584)
(0.00949884 0 0.000762912)
(0.00916963 0 0.00079402)
(0.00885147 0 0.000742161)
(0.00856272 0 0.000663845)
(0.00827494 0 0.000657287)
(0.00797773 0 0.000717649)
(0.00767274 0 0.000722984)
(0.00737847 0 0.000653597)
(0.00711095 0 0.000606373)
(0.00684726 0 0.00065626)
(0.00655802 0 0.000702404)
(0.00626503 0 0.000649593)
(0.00599699 0 0.000596342)
(0.00573977 0 0.000618232)
(0.0054791 0 0.000662738)
(0.00519185 0 0.000673285)
(0.00491529 0 0.000607112)
(0.0046721 0 0.000564412)
(0.00442256 0 0.000621251)
(0.00414036 0 0.000661075)
(0.00387268 0 0.00062601)
(0.00363093 0 0.000589301)
(0.00336951 0 0.000582302)
(0.00311102 0 0.000602531)
(0.00286107 0 0.000606776)
(0.00261564 0 0.000602586)
(0.00236683 0 0.000594931)
(0.00211582 0 0.000568733)
(0.00186764 0 0.000575886)
(0.00161386 0 0.000595253)
(0.00136761 0 0.000580992)
(0.00112973 0 0.0005489)
(0.0009002 0 0.000527838)
(0.000670783 0 0.000558124)
(0.00043498 0 0.000565131)
(0.00020222 0 0.000544038)
(-2.99309e-05 0 0.00052161)
(-0.000258814 0 0.000530973)
(-0.000486489 0 0.000531563)
(-0.000706849 0 0.000516526)
(-0.000918568 0 0.000505863)
(-0.00112662 0 0.000494539)
(-0.00134433 0 0.000504033)
(-0.00156282 0 0.000495809)
(-0.00176771 0 0.000473519)
(-0.00196298 0 0.000452836)
(-0.00216028 0 0.000465691)
(-0.00235571 0 0.000470569)
(-0.00255899 0 0.000468266)
(-0.00275238 0 0.000442092)
(-0.00292946 0 0.00042713)
(-0.00311128 0 0.000409095)
(-0.00329038 0 0.000417496)
(-0.00347879 0 0.000431876)
(-0.0036523 0 0.000408192)
(-0.00381633 0 0.000384326)
(-0.00397974 0 0.000374716)
(-0.00414905 0 0.000391137)
(-0.00431027 0 0.000369342)
(-0.00445759 0 0.000358533)
(-0.00461037 0 0.000341755)
(-0.00475217 0 0.000321677)
(-0.0048929 0 0.000338192)
(-0.00503283 0 0.000322984)
(-0.00516432 0 0.000313324)
(-0.00529966 0 0.000309989)
(-0.00542251 0 0.000274544)
(-0.00553887 0 0.0002608)
(-0.00565578 0 0.000268483)
(-0.00576367 0 0.000265238)
(-0.00587504 0 0.000251033)
(-0.00597775 0 0.000235209)
(-0.00607456 0 0.000227078)
(-0.00616862 0 0.000212248)
(-0.0062556 0 0.000191172)
(-0.00633913 0 0.000196059)
(-0.0064194 0 0.000190103)
(-0.00649885 0 0.000177223)
(-0.0065694 0 0.000163856)
(-0.0066353 0 0.000149391)
(-0.0066966 0 0.000131696)
(-0.00675341 0 0.000136965)
(-0.00680647 0 0.000132452)
(-0.00686027 0 0.000122681)
(-0.00691384 0 0.000106022)
(-0.00696042 0 0.000104247)
(-0.00700125 0 9.32202e-05)
(-0.00703621 0 8.44697e-05)
(-0.00707066 0 7.64697e-05)
(-0.00710221 0 6.99432e-05)
(-0.00712944 0 6.12876e-05)
(-0.00715185 0 5.3333e-05)
(-0.00717686 0 6.07929e-05)
(-0.00720157 0 4.82843e-05)
(-0.00721867 0 3.34119e-05)
(-0.007232 0 3.25706e-05)
(-0.00724475 0 2.89735e-05)
(-0.00725562 0 2.35582e-05)
(-0.00726359 0 2.08708e-05)
(-0.0072719 0 1.5903e-05)
(-0.00727717 0 1.34502e-05)
(-0.00727963 0 9.70743e-06)
(-0.00728106 0 -2.12891e-07)
(-0.00728202 0 -3.96407e-06)
(-0.00728507 0 2.24359e-06)
(-0.00728377 0 -4.34632e-06)
(-0.00727815 0 -1.05243e-05)
(-0.00727199 0 -1.81883e-05)
(-0.00726606 0 -1.26218e-05)
(-0.00726042 0 -1.40163e-05)
(-0.0072535 0 -1.69477e-05)
(-0.00724556 0 -1.94863e-05)
(-0.00723635 0 -2.15802e-05)
(-0.00722595 0 -2.75376e-05)
(-0.00721339 0 -3.22301e-05)
(-0.007201 0 -3.08315e-05)
(-0.00718855 0 -2.98846e-05)
(-0.00717555 0 -3.05561e-05)
(-0.00716214 0 -3.15844e-05)
(-0.00714734 0 -3.38217e-05)
(-0.00713307 0 -3.453e-05)
(-0.007119 0 -3.80549e-05)
(-0.0071025 0 -3.98322e-05)
(-0.00708524 0 -4.03066e-05)
(-0.00706743 0 -4.11852e-05)
(-0.00704962 0 -4.19153e-05)
(-0.00703063 0 -4.20598e-05)
(-0.00701296 0 -4.15872e-05)
(-0.00699492 0 -4.55775e-05)
(-0.0069745 0 -4.73544e-05)
(-0.00695426 0 -4.90035e-05)
(-0.00693355 0 -5.02123e-05)
(-0.00691255 0 -4.94881e-05)
(-0.0068912 0 -4.99179e-05)
(-0.00686954 0 -5.13021e-05)
(-0.00684726 0 -5.30314e-05)
(-0.00682452 0 -5.49052e-05)
(-0.00680137 0 -5.65954e-05)
(-0.00677782 0 -5.6052e-05)
(-0.006754 0 -5.63333e-05)
(-0.00672984 0 -5.70937e-05)
(-0.00670534 0 -5.78474e-05)
(-0.00668048 0 -5.89076e-05)
(-0.00665564 0 -5.9208e-05)
(-0.00663049 0 -5.98019e-05)
(-0.0066048 0 -6.03927e-05)
(-0.00657903 0 -6.09647e-05)
(-0.00655284 0 -6.17196e-05)
(-0.00652636 0 -6.24041e-05)
(-0.00649968 0 -6.2772e-05)
(-0.00647273 0 -6.33963e-05)
(-0.00644544 0 -6.46735e-05)
(-0.00641775 0 -6.57457e-05)
(-0.00638976 0 -6.61517e-05)
(-0.00636152 0 -6.6686e-05)
(-0.00633299 0 -6.76938e-05)
(-0.00630408 0 -6.87506e-05)
(-0.0062748 0 -6.94906e-05)
(-0.00624518 0 -7.03161e-05)
(-0.00621521 0 -7.11534e-05)
(-0.0061849 0 -7.19934e-05)
(-0.00615423 0 -7.29203e-05)
(-0.00612315 0 -7.38409e-05)
(-0.00609168 0 -7.46759e-05)
(-0.00605984 0 -7.55752e-05)
(-0.00602759 0 -7.65945e-05)
(-0.0059949 0 -7.76932e-05)
(-0.00596175 0 -7.87425e-05)
(-0.00592819 0 -7.97176e-05)
(-0.00589421 0 -8.0696e-05)
(-0.0058598 0 -8.18218e-05)
(-0.00582488 0 -8.30644e-05)
(-0.00578946 0 -8.43187e-05)
(-0.00575354 0 -8.52358e-05)
(-0.00571709 0 -8.63564e-05)
(-0.00568013 0 -8.75735e-05)
(-0.00564261 0 -8.88937e-05)
(-0.00560449 0 -9.03835e-05)
(-0.00556577 0 -9.17905e-05)
(-0.00552645 0 -9.32341e-05)
(-0.00548654 0 -9.48069e-05)
(-0.00544599 0 -9.63578e-05)
(-0.00540481 0 -9.78525e-05)
(-0.00536302 0 -9.93053e-05)
(-0.00532064 0 -0.000100698)
(-0.00527767 0 -0.00010209)
(-0.00523409 0 -0.000103459)
(-0.00518992 0 -0.00010472)
(-0.00514516 0 -0.000105994)
(-0.00509983 0 -0.000107301)
(-0.00505394 0 -0.000108657)
(-0.00500749 0 -0.000109931)
(-0.00496049 0 -0.000111186)
(-0.00491296 0 -0.000112465)
(-0.00486491 0 -0.000113723)
(-0.00481636 0 -0.000114924)
(-0.00476733 0 -0.000116097)
(-0.00471788 0 -0.000117106)
(-0.00466801 0 -0.000117984)
(-0.00461769 0 -0.000118857)
(-0.00456701 0 -0.000119666)
(-0.00451596 0 -0.00012041)
(-0.00446458 0 -0.000121124)
(-0.00441287 0 -0.000121805)
(-0.00436089 0 -0.000122453)
(-0.00430868 0 -0.000123098)
(-0.00425631 0 -0.000123594)
(-0.00420373 0 -0.000124114)
(-0.00415092 0 -0.000124508)
(-0.00409797 0 -0.000124767)
(-0.00404491 0 -0.000124931)
(-0.00399176 0 -0.000125014)
(-0.00393858 0 -0.000125065)
(-0.00388534 0 -0.000125122)
(-0.00383206 0 -0.000125145)
(-0.00377879 0 -0.000125201)
(-0.00372552 0 -0.000125255)
(-0.00367227 0 -0.000125215)
(-0.00361909 0 -0.000125079)
(-0.003566 0 -0.00012485)
(-0.00351305 0 -0.000124538)
(-0.00346024 0 -0.000124165)
(-0.0034076 0 -0.000123727)
(-0.00335513 0 -0.000123224)
(-0.00330286 0 -0.000122688)
(-0.00325082 0 -0.000122158)
(-0.00319903 0 -0.000121633)
(-0.00314752 0 -0.000121062)
(-0.00309632 0 -0.000120389)
(-0.00304544 0 -0.000119591)
(-0.00299494 0 -0.000118677)
(-0.0029448 0 -0.000117749)
(-0.00289499 0 -0.000116805)
(-0.00284554 0 -0.000115893)
(-0.00279643 0 -0.000114999)
(-0.00274771 0 -0.0001141)
(-0.00269939 0 -0.000113199)
(-0.00265151 0 -0.00011228)
(-0.00260408 0 -0.000111279)
(-0.00255714 0 -0.000110133)
(-0.00251065 0 -0.000108989)
(-0.00246459 0 -0.000107822)
(-0.00241899 0 -0.000106672)
(-0.00237382 0 -0.000105564)
(-0.00232913 0 -0.00010456)
(-0.00228489 0 -0.000103555)
(-0.00224115 0 -0.000102519)
(-0.00219788 0 -0.000101368)
(-0.00215514 0 -0.000100184)
(-0.00211285 0 -9.89229e-05)
(-0.00207108 0 -9.7674e-05)
(-0.00202976 0 -9.64003e-05)
(-0.00198895 0 -9.5132e-05)
(-0.0019488 0 -9.39912e-05)
(-0.00190903 0 -9.27605e-05)
(-0.00187019 0 -9.15725e-05)
(-0.00183168 0 -9.0179e-05)
(-0.00179405 0 -8.90845e-05)
(-0.00175651 0 -8.76712e-05)
(-0.00171954 0 -8.65358e-05)
(-0.00168289 0 -8.51458e-05)
(-0.00164633 0 -8.51492e-05)
(-0.00161066 0 -8.34228e-05)
(-0.0015771 0 -8.41178e-05)
(-0.00154187 0 -8.16802e-05)
(-0.00150863 0 -7.84603e-05)
(-0.00147406 0 -7.62403e-05)
(-0.00143447 0 -7.87349e-05)
(-0.00140166 0 -7.61685e-05)
(-0.00137736 0 -9.03443e-05)
(-0.00134414 0 -8.4537e-05)
(-0.00132948 0 -6.1702e-05)
(-0.00129716 0 -5.60785e-05)
(-0.00131418 0 -4.88365e-05)
(-0.00128037 0 -4.75819e-05)
(-0.001267 0 -2.9208e-05)
(-0.00122972 0 -3.10516e-05)
(-0.0012068 0 -4.68089e-05)
(-0.00117958 0 -4.9049e-05)
(-0.00115484 0 -5.39888e-05)
(-0.00113016 0 -5.51929e-05)
(-0.0011055 0 -5.62674e-05)
(-0.00108118 0 -5.54331e-05)
(-0.00105701 0 -5.58859e-05)
(-0.00103272 0 -5.50339e-05)
(-0.00100715 0 -5.66562e-05)
(-0.000983035 0 -5.53718e-05)
(-0.000961641 0 -5.87696e-05)
(-0.000937588 0 -5.69511e-05)
(-0.000918667 0 -5.17308e-05)
(-0.000894691 0 -4.98082e-05)
(-0.000883286 0 -4.84324e-05)
(-0.000859194 0 -4.69944e-05)
(-0.000840664 0 -4.41245e-05)
(-0.000815782 0 -4.28285e-05)
(-0.000796265 0 -4.76348e-05)
(-0.000774116 0 -4.53338e-05)
(-0.000753739 0 -4.52715e-05)
(-0.000733013 0 -4.41064e-05)
(-0.000708863 0 -4.22662e-05)
(-0.000693307 0 -4.52249e-05)
(-0.000672479 0 -4.09274e-05)
(-0.000663263 0 -5.21512e-05)
(-0.000641172 0 -4.20322e-05)
(-0.000633206 0 -4.04175e-05)
(-0.000609493 0 -2.94712e-05)
(-0.000568973 0 -4.25375e-05)
(-0.000548647 0 -2.57944e-05)
(-0.000556282 0 -0.000104128)
(-0.000525954 0 -7.10602e-05)
(-0.000608331 0 -1.96005e-05)
(-0.000565033 0 1.42888e-05)
(-0.000917106 0 0.000120476)
(-0.000917556 0 0.000115549)
(-0.000999281 0 0.000314159)
(-0.000997924 0 0.0001811)
(-0.000979113 0 0.000126101)
(-0.00097198 0 7.83903e-05)
(-0.000973146 0 4.89988e-05)
(-0.000975065 0 2.96036e-05)
(-0.000976698 0 1.71717e-05)
(-0.000977803 0 9.31473e-06)
(-0.000977993 0 3.59448e-06)
(-0.000976777 0 -7.01156e-07)
(-0.000974119 0 -4.00359e-06)
(-0.000970287 0 -6.62374e-06)
(-0.000965578 0 -9.16134e-06)
(-0.000960268 0 -1.17667e-05)
(-0.000954326 0 -1.40102e-05)
(-0.000947781 0 -1.56401e-05)
(-0.000940664 0 -1.68251e-05)
(-0.000932933 0 -1.79262e-05)
(-0.000924583 0 -1.91344e-05)
(-0.000915663 0 -2.03796e-05)
(-0.000906272 0 -2.14855e-05)
(-0.000896538 0 -2.23251e-05)
(-0.0008866 0 -2.28576e-05)
(-0.000876559 0 -2.31302e-05)
(-0.000866462 0 -2.32542e-05)
(-0.000856305 0 -2.33509e-05)
(-0.00084606 0 -2.3522e-05)
(-0.000835744 0 -2.37993e-05)
(-0.000825238 0 -2.41902e-05)
(-0.000814439 0 -2.46849e-05)
(-0.000803391 0 -2.5298e-05)
(-0.000792112 0 -2.60576e-05)
(-0.000780621 0 -2.69693e-05)
(-0.000768926 0 -2.79764e-05)
(-0.000757059 0 -2.89778e-05)
(-0.000745022 0 -2.9869e-05)
(-0.000732785 0 -3.05475e-05)
(-0.000720354 0 -3.09662e-05)
(-0.000707806 0 -3.11452e-05)