/*--------------------------------*- C++ -*----------------------------------*\
| =========                 |                                                 |
| \\      /  F ield         | OpenFOAM: The Open Source CFD Toolbox           |
|  \\    /   O peration     | Version:  v2006                                 |
|   \\  /    A nd           | Website:  www.openfoam.com                      |
|    \\/     M anipulation  |                                                 |
\*---------------------------------------------------------------------------*/
FoamFile
{
    version     2.0;
    format      ascii;
    class       volScalarField;
    location    "0.7";
    object      nut;
}
// * * * * * * * * * * * * * * * * * * * * * * * * * * * * * * * * * * * * * //

dimensions      [0 2 -1 0 0 0 0];


internalField   nonuniform List<scalar> 
33000
(
3.96563e-09
2.46891e-09
2.90581e-09
2.92476e-09
2.94732e-09
2.96492e-09
2.98408e-09
3.00602e-09
3.03062e-09
3.05763e-09
3.08685e-09
3.11798e-09
3.15129e-09
3.18727e-09
3.22608e-09
3.26741e-09
3.31035e-09
3.3538e-09
3.39883e-09
3.44616e-09
3.49577e-09
3.54758e-09
3.60187e-09
3.65848e-09
3.71752e-09
3.77924e-09
3.84357e-09
3.91028e-09
3.97969e-09
4.05201e-09
4.12684e-09
4.20196e-09
4.28032e-09
4.36228e-09
4.44821e-09
4.53928e-09
4.63429e-09
4.73337e-09
4.83623e-09
4.9427e-09
5.05401e-09
5.16895e-09
5.28396e-09
5.40242e-09
5.52404e-09
5.64719e-09
5.77416e-09
5.90567e-09
6.04077e-09
6.18196e-09
6.32972e-09
6.48127e-09
6.64061e-09
6.81052e-09
6.99267e-09
7.1862e-09
7.39016e-09
7.60527e-09
7.83218e-09
8.06843e-09
8.31013e-09
8.5639e-09
8.82991e-09
9.10915e-09
9.40334e-09
9.71406e-09
1.00398e-08
1.03841e-08
1.07534e-08
1.11478e-08
1.15694e-08
1.20204e-08
1.24953e-08
1.2983e-08
1.3458e-08
1.38263e-08
1.38481e-08
1.36533e-08
1.29101e-08
1.29612e-08
1.27849e-08
1.28036e-08
1.27882e-08
1.27599e-08
1.27696e-08
1.2761e-08
1.27326e-08
1.27135e-08
1.26989e-08
1.26854e-08
1.26707e-08
1.26589e-08
1.26482e-08
1.26367e-08
1.26257e-08
1.26141e-08
1.26022e-08
1.25884e-08
1.25783e-08
1.25574e-08
1.25477e-08
1.25347e-08
1.25251e-08
1.25156e-08
1.2507e-08
1.24992e-08
1.24907e-08
1.24819e-08
1.24731e-08
1.24644e-08
1.24561e-08
1.24489e-08
1.24422e-08
1.24349e-08
1.2428e-08
1.24167e-08
1.24135e-08
1.23888e-08
1.23859e-08
1.23766e-08
1.23732e-08
1.23679e-08
1.23635e-08
1.23618e-08
1.23594e-08
1.23564e-08
1.23536e-08
1.23505e-08
1.23473e-08
1.2344e-08
1.23404e-08
1.23368e-08
1.2333e-08
1.2329e-08
1.2325e-08
1.23208e-08
1.23166e-08
1.23123e-08
1.23079e-08
1.23034e-08
1.2299e-08
1.22944e-08
1.22899e-08
1.22852e-08
1.22806e-08
1.2276e-08
1.22713e-08
1.22666e-08
1.22618e-08
1.22571e-08
1.22524e-08
1.22476e-08
1.22429e-08
1.22381e-08
1.22334e-08
1.22286e-08
1.22239e-08
1.22192e-08
1.22144e-08
1.22097e-08
1.2205e-08
1.22003e-08
1.21956e-08
1.2191e-08
1.21864e-08
1.21818e-08
1.21772e-08
1.21726e-08
1.21681e-08
1.21636e-08
1.21591e-08
1.21547e-08
1.21503e-08
1.21459e-08
1.21416e-08
1.21373e-08
1.21331e-08
1.21288e-08
1.21247e-08
1.21205e-08
1.21164e-08
1.21123e-08
1.21083e-08
1.21043e-08
1.21004e-08
1.20965e-08
1.20927e-08
1.20889e-08
1.20851e-08
1.20814e-08
1.20777e-08
1.20741e-08
1.20705e-08
1.2067e-08
1.20635e-08
1.20601e-08
1.20567e-08
1.20533e-08
1.205e-08
1.20468e-08
1.20436e-08
1.20404e-08
1.20373e-08
1.20342e-08
1.20312e-08
1.20282e-08
1.20252e-08
1.20223e-08
1.20195e-08
1.20167e-08
1.20139e-08
1.20113e-08
1.20086e-08
1.2006e-08
1.20034e-08
1.20009e-08
1.19984e-08
1.19959e-08
1.19935e-08
1.19911e-08
1.19887e-08
1.19864e-08
1.19841e-08
1.19819e-08
1.19797e-08
1.19775e-08
1.19754e-08
1.19732e-08
1.19712e-08
1.19691e-08
1.19671e-08
1.19652e-08
1.19632e-08
1.19613e-08
1.19595e-08
1.19577e-08
1.19559e-08
1.19541e-08
1.19524e-08
1.19507e-08
1.1949e-08
1.19474e-08
1.19458e-08
1.19442e-08
1.19427e-08
1.19411e-08
1.19396e-08
1.19382e-08
1.19367e-08
1.19353e-08
1.19339e-08
1.19325e-08
1.19311e-08
1.19298e-08
1.19285e-08
1.19272e-08
1.1926e-08
1.19247e-08
1.19235e-08
1.19224e-08
1.19212e-08
1.19201e-08
1.1919e-08
1.19179e-08
1.19168e-08
1.19157e-08
1.19146e-08
1.19136e-08
1.19126e-08
1.19116e-08
1.19107e-08
1.19097e-08
1.19088e-08
1.19079e-08
1.19071e-08
1.19062e-08
1.19054e-08
1.19046e-08
1.19038e-08
1.1903e-08
1.19022e-08
1.19014e-08
1.19006e-08
1.18998e-08
1.18991e-08
1.18983e-08
1.18976e-08
1.1897e-08
1.18963e-08
1.18956e-08
1.1895e-08
1.18944e-08
1.18938e-08
1.18933e-08
1.18927e-08
1.18922e-08
1.18916e-08
1.18911e-08
1.18906e-08
1.189e-08
1.18895e-08
1.1889e-08
1.18885e-08
1.18881e-08
1.18876e-08
1.18872e-08
1.18868e-08
1.18864e-08
1.1886e-08
1.18856e-08
1.18852e-08
1.18849e-08
1.18845e-08
1.18841e-08
1.18838e-08
1.18834e-08
1.18831e-08
1.18827e-08
1.18824e-08
1.18821e-08
1.18817e-08
1.18815e-08
1.18812e-08
1.18809e-08
1.18807e-08
1.18804e-08
1.18802e-08
1.188e-08
1.18797e-08
1.18795e-08
1.18793e-08
1.1879e-08
1.18788e-08
1.18786e-08
1.18784e-08
1.18782e-08
1.1878e-08
1.18779e-08
1.18778e-08
1.18776e-08
1.18775e-08
1.18773e-08
1.18772e-08
1.1877e-08
1.18769e-08
1.18767e-08
1.18765e-08
1.18764e-08
1.18762e-08
1.18761e-08
1.1876e-08
1.18758e-08
1.18757e-08
1.18756e-08
1.18755e-08
1.18753e-08
1.18752e-08
1.1875e-08
1.18749e-08
1.18747e-08
1.18746e-08
1.18745e-08
1.18744e-08
1.18743e-08
1.18742e-08
1.18741e-08
1.1874e-08
1.18738e-08
1.18737e-08
1.18736e-08
1.18735e-08
1.18734e-08
1.18733e-08
1.18733e-08
1.18732e-08
1.18731e-08
1.1873e-08
1.18729e-08
1.18729e-08
1.18728e-08
1.18727e-08
1.18727e-08
1.18726e-08
1.18726e-08
1.18725e-08
1.18724e-08
1.18724e-08
1.18723e-08
1.18722e-08
1.18722e-08
1.18721e-08
1.1872e-08
1.1872e-08
1.18719e-08
1.18719e-08
1.18718e-08
1.18717e-08
1.18716e-08
1.18715e-08
1.18714e-08
1.18713e-08
1.18713e-08
1.18712e-08
1.18711e-08
1.1871e-08
1.1871e-08
1.18709e-08
1.18708e-08
1.18708e-08
1.18707e-08
1.18707e-08
1.18706e-08
1.18705e-08
1.18705e-08
1.18704e-08
1.18704e-08
1.18704e-08
1.18704e-08
1.18703e-08
1.18703e-08
1.18703e-08
1.18702e-08
1.18702e-08
1.18702e-08
1.18701e-08
1.18701e-08
1.187e-08
1.187e-08
1.18699e-08
1.18699e-08
1.18699e-08
1.18698e-08
1.18698e-08
1.18698e-08
1.18698e-08
1.18698e-08
1.18698e-08
1.18698e-08
1.18697e-08
1.18697e-08
1.18698e-08
1.18697e-08
1.18697e-08
1.18697e-08
1.18697e-08
1.18697e-08
1.18697e-08
1.18697e-08
1.18697e-08
1.18698e-08
1.18698e-08
1.18698e-08
1.18699e-08
1.18699e-08
1.18699e-08
1.18699e-08
1.18699e-08
1.18699e-08
1.18699e-08
1.187e-08
1.187e-08
1.187e-08
1.187e-08
1.187e-08
1.187e-08
1.18699e-08
1.187e-08
1.187e-08
1.18699e-08
1.18706e-08
1.18703e-08
1.18703e-08
1.18702e-08
1.18701e-08
1.18701e-08
1.187e-08
1.18699e-08
1.18698e-08
1.18697e-08
1.18697e-08
1.18697e-08
1.18699e-08
1.187e-08
1.18701e-08
1.18702e-08
1.18703e-08
1.18705e-08
1.18706e-08
1.18707e-08
1.18707e-08
1.18708e-08
1.18709e-08
1.1871e-08
1.18711e-08
1.18712e-08
1.18713e-08
1.18714e-08
1.18716e-08
1.18717e-08
1.18717e-08
1.18718e-08
1.18718e-08
1.18717e-08
1.18717e-08
1.18715e-08
1.18714e-08
1.18712e-08
1.1871e-08
1.18708e-08
1.18706e-08
1.18705e-08
1.18704e-08
1.18703e-08
1.18702e-08
1.18702e-08
1.18701e-08
1.18701e-08
1.187e-08
1.187e-08
1.187e-08
1.18701e-08
1.18702e-08
1.18703e-08
1.18703e-08
1.18703e-08
1.18703e-08
1.18702e-08
1.18703e-08
1.18704e-08
1.18705e-08
1.18704e-08
1.18702e-08
1.187e-08
1.18698e-08
1.18698e-08
1.18698e-08
1.18697e-08
1.18696e-08
1.18695e-08
1.18696e-08
1.18696e-08
1.18696e-08
1.18697e-08
1.187e-08
1.18701e-08
1.187e-08
1.18699e-08
1.18698e-08
1.18697e-08
1.18786e-08
5.11688e-09
4.36636e-09
1.85429e-08
1.13121e-07
9.05479e-08
8.57705e-08
7.7836e-08
7.22388e-08
6.79908e-08
6.46659e-08
6.18573e-08
5.92949e-08
5.72211e-08
5.55831e-08
5.41822e-08
5.29185e-08
5.17151e-08
5.06286e-08
4.96777e-08
4.8841e-08
4.81343e-08
4.75477e-08
4.70486e-08
4.6623e-08
4.62749e-08
4.60349e-08
4.58721e-08
4.57632e-08
4.57187e-08
4.57029e-08
4.56959e-08
4.57541e-08
4.58578e-08
4.60012e-08
4.62043e-08
4.64119e-08
4.65962e-08
4.67666e-08
4.69008e-08
4.69896e-08
4.71154e-08
4.7303e-08
4.76154e-08
4.80338e-08
4.85277e-08
4.90963e-08
4.9734e-08
5.04087e-08
5.10676e-08
5.16993e-08
5.22964e-08
5.28493e-08
5.33758e-08
5.39024e-08
5.44612e-08
5.50904e-08
5.58034e-08
5.66444e-08
5.76419e-08
5.87842e-08
6.00126e-08
6.12885e-08
6.25698e-08
6.38108e-08
6.49389e-08
6.59179e-08
6.67486e-08
6.74501e-08
6.80363e-08
6.84815e-08
6.87237e-08
6.86932e-08
6.8246e-08
6.73756e-08
6.62863e-08
6.47363e-08
5.95873e-08
7.47541e-08
4.55706e-08
4.94628e-08
2.13964e-08
2.27749e-08
4.91245e-08
5.21864e-08
2.38548e-07
1.8707e-07
2.46897e-07
2.99977e-07
3.99412e-07
3.58093e-07
3.32665e-07
3.76298e-07
3.67029e-07
3.50713e-07
3.5563e-07
3.74609e-07
3.77964e-07
3.92547e-07
3.90851e-07
4.04894e-07
4.23904e-07
4.49864e-07
4.6509e-07
4.65761e-07
4.78489e-07
4.8124e-07
4.93701e-07
5.04947e-07
5.08533e-07
5.25796e-07
5.59683e-07
5.7962e-07
6.00587e-07
6.19126e-07
6.34845e-07
6.34955e-07
6.07053e-07
6.95168e-07
7.91866e-07
1.16452e-06
1.29658e-06
9.28095e-07
9.40162e-07
8.40436e-07
8.55146e-07
8.19749e-07
8.39298e-07
9.67172e-07
1.01972e-06
1.06147e-06
1.12015e-06
1.16912e-06
1.23034e-06
1.30968e-06
1.38567e-06
1.46362e-06
1.54545e-06
1.63726e-06
1.73348e-06
1.83684e-06
1.94863e-06
2.071e-06
2.20788e-06
2.35586e-06
2.51123e-06
2.55323e-06
2.54824e-06
2.54334e-06
2.53799e-06
2.53245e-06
2.52751e-06
2.52265e-06
2.51743e-06
2.51262e-06
2.50808e-06
2.50306e-06
2.49772e-06
2.49301e-06
2.48859e-06
2.48442e-06
2.48031e-06
2.47655e-06
2.47303e-06
2.46962e-06
2.46594e-06
2.46204e-06
2.45863e-06
2.45623e-06
2.4536e-06
2.45182e-06
2.45118e-06
2.45087e-06
2.4509e-06
2.45085e-06
2.45106e-06
2.45196e-06
2.45264e-06
2.45318e-06
2.45392e-06
2.45477e-06
2.45546e-06
2.45613e-06
2.45706e-06
2.45813e-06
2.45905e-06
2.45986e-06
2.46074e-06
2.46171e-06
2.4626e-06
2.46343e-06
2.46433e-06
2.46539e-06
2.4665e-06
2.46754e-06
2.46849e-06
2.46943e-06
2.47039e-06
2.47133e-06
2.47223e-06
2.47315e-06
2.47406e-06
2.47496e-06
2.47589e-06
2.47683e-06
2.47778e-06
2.47879e-06
2.47987e-06
2.48095e-06
2.48206e-06
2.48324e-06
2.48442e-06
2.48538e-06
2.48613e-06
2.48691e-06
2.48773e-06
2.48845e-06
2.48908e-06
2.48984e-06
2.49077e-06
2.49167e-06
2.49243e-06
2.49321e-06
2.49407e-06
2.49487e-06
2.49551e-06
2.49613e-06
2.49689e-06
2.49774e-06
2.49855e-06
2.49933e-06
2.50014e-06
2.50095e-06
2.50172e-06
2.50249e-06
2.50325e-06
2.50396e-06
2.50459e-06
2.5052e-06
2.50592e-06
2.50672e-06
2.50752e-06
2.50825e-06
2.5089e-06
2.50946e-06
2.50995e-06
2.51044e-06
2.511e-06
2.5116e-06
2.51212e-06
2.51253e-06
2.51294e-06
2.51354e-06
2.51427e-06
2.51494e-06
2.51541e-06
2.51581e-06
2.51637e-06
2.51712e-06
2.51789e-06
2.51847e-06
2.51885e-06
2.51917e-06
2.51948e-06
2.51979e-06
2.52012e-06
2.52052e-06
2.52094e-06
2.52138e-06
2.52184e-06
2.52239e-06
2.52301e-06
2.52356e-06
2.524e-06
2.52435e-06
2.52467e-06
2.52494e-06
2.52518e-06
2.5254e-06
2.52559e-06
2.52575e-06
2.52587e-06
2.52604e-06
2.52632e-06
2.52671e-06
2.52715e-06
2.52758e-06
2.528e-06
2.52845e-06
2.52892e-06
2.52939e-06
2.52983e-06
2.53023e-06
2.53058e-06
2.53085e-06
2.53104e-06
2.53116e-06
2.53127e-06
2.53142e-06
2.53161e-06
2.53182e-06
2.53202e-06
2.53222e-06
2.53247e-06
2.53279e-06
2.53317e-06
2.53359e-06
2.53401e-06
2.53438e-06
2.5347e-06
2.53493e-06
2.53509e-06
2.53519e-06
2.53523e-06
2.53525e-06
2.53528e-06
2.53534e-06
2.53547e-06
2.53566e-06
2.53593e-06
2.53623e-06
2.53656e-06
2.53689e-06
2.53724e-06
2.53759e-06
2.5379e-06
2.53808e-06
2.53808e-06
2.53795e-06
2.53784e-06
2.53782e-06
2.53791e-06
2.53803e-06
2.5382e-06
2.53849e-06
2.53895e-06
2.53945e-06
2.53981e-06
2.53997e-06
2.54002e-06
2.54005e-06
2.54003e-06
2.53989e-06
2.53968e-06
2.53952e-06
2.5395e-06
2.53957e-06
2.53969e-06
2.53987e-06
2.54011e-06
2.54033e-06
2.54047e-06
2.54051e-06
2.54047e-06
2.54034e-06
2.54014e-06
2.53997e-06
2.53992e-06
2.53999e-06
2.54013e-06
2.54031e-06
2.54054e-06
2.54077e-06
2.54088e-06
2.54084e-06
2.54069e-06
2.54051e-06
2.54036e-06
2.54026e-06
2.54026e-06
2.54037e-06
2.5406e-06
2.54085e-06
2.54106e-06
2.54116e-06
2.5412e-06
2.54122e-06
2.54123e-06
2.54124e-06
2.54127e-06
2.54141e-06
2.54167e-06
2.54198e-06
2.54221e-06
2.54227e-06
2.54219e-06
2.54201e-06
2.54184e-06
2.54176e-06
2.54182e-06
2.54198e-06
2.54217e-06
2.54232e-06
2.54234e-06
2.54221e-06
2.54199e-06
2.54175e-06
2.54156e-06
2.54152e-06
2.54169e-06
2.54198e-06
2.54223e-06
2.54234e-06
2.54232e-06
2.54229e-06
2.54225e-06
2.54223e-06
2.54235e-06
2.54255e-06
2.54267e-06
2.54265e-06
2.54254e-06
2.54243e-06
2.54245e-06
2.54258e-06
2.54272e-06
2.54281e-06
2.54288e-06
2.54285e-06
2.54281e-06
2.54283e-06
2.54291e-06
2.54274e-06
2.54246e-06
2.54231e-06
2.5422e-06
2.54237e-06
2.5426e-06
2.54267e-06
2.54272e-06
2.54265e-06
2.54283e-06
2.54309e-06
2.54345e-06
2.54346e-06
2.54343e-06
2.54322e-06
2.54298e-06
2.54316e-06
2.54307e-06
2.54337e-06
2.54322e-06
2.54244e-06
2.54249e-06
2.54255e-06
2.54305e-06
2.54278e-06
2.54281e-06
2.54325e-06
2.54328e-06
2.54337e-06
2.54325e-06
2.54334e-06
2.54321e-06
2.54312e-06
2.5426e-06
2.54308e-06
2.54339e-06
2.54298e-06
2.54341e-06
2.5435e-06
2.54334e-06
2.54339e-06
2.54293e-06
2.54344e-06
2.54247e-06
2.54361e-06
2.54347e-06
2.54303e-06
2.54283e-06
2.54233e-06
2.54162e-06
2.54278e-06
2.54167e-06
2.54156e-06
2.54166e-06
2.54118e-06
2.54053e-06
2.54016e-06
2.53997e-06
2.53983e-06
2.54004e-06
2.54074e-06
2.54149e-06
2.54178e-06
2.54163e-06
2.54154e-06
2.5418e-06
2.54235e-06
2.5428e-06
2.54302e-06
2.54295e-06
2.54257e-06
2.54202e-06
2.54149e-06
2.54103e-06
2.54074e-06
2.54064e-06
2.54076e-06
2.54113e-06
2.54182e-06
2.54286e-06
2.54358e-06
2.54361e-06
2.54362e-06
2.54363e-06
2.54363e-06
2.54363e-06
2.54363e-06
2.54363e-06
2.54363e-06
2.54363e-06
2.54361e-06
2.54357e-06
2.54347e-06
2.54326e-06
2.54296e-06
2.543e-06
2.54328e-06
2.54344e-06
2.5435e-06
2.54355e-06
2.54357e-06
2.54355e-06
2.54348e-06
2.54331e-06
2.54278e-06
2.54336e-06
2.54349e-06
2.54353e-06
2.54342e-06
2.54074e-06
2.53819e-06
2.53927e-06
2.54283e-06
2.54331e-06
2.54089e-06
2.53798e-06
2.53963e-06
2.54339e-06
2.54349e-06
2.54332e-06
2.54322e-06
2.54356e-06
2.54363e-06
2.54338e-06
2.54081e-06
2.54212e-06
2.53839e-06
2.53835e-06
2.55779e-06
5.17015e-09
4.35941e-09
1.81682e-08
9.33423e-08
7.99031e-08
7.74937e-08
7.23803e-08
6.89452e-08
6.60524e-08
6.34477e-08
6.11035e-08
5.88841e-08
5.70355e-08
5.54709e-08
5.39843e-08
5.25542e-08
5.11909e-08
5.01211e-08
4.92472e-08
4.84537e-08
4.77422e-08
4.71069e-08
4.65414e-08
4.60634e-08
4.56736e-08
4.53237e-08
4.50073e-08
4.47885e-08
4.46581e-08
4.45337e-08
4.44547e-08
4.4441e-08
4.44967e-08
4.46038e-08
4.47485e-08
4.48951e-08
4.50889e-08
4.52894e-08
4.54701e-08
4.5617e-08
4.57782e-08
4.59606e-08
4.62989e-08
4.67003e-08
4.71806e-08
4.77898e-08
4.85183e-08
4.93162e-08
5.01422e-08
5.09801e-08
5.17825e-08
5.2571e-08
5.33196e-08
5.40213e-08
5.47284e-08
5.5443e-08
5.62641e-08
5.72185e-08
5.82961e-08
5.94537e-08
6.07149e-08
6.1996e-08
6.32512e-08
6.44395e-08
6.55169e-08
6.64647e-08
6.73219e-08
6.81575e-08
6.90099e-08
6.99256e-08
7.10009e-08
7.23483e-08
7.40876e-08
7.65965e-08
8.05937e-08
8.7954e-08
1.05034e-07
1.54098e-07
1.95752e-07
1.03523e-07
8.6008e-08
4.56002e-08
4.97602e-08
2.22204e-08
2.35768e-08
4.70643e-08
5.55507e-08
6.34638e-08
3.70459e-07
2.51385e-07
3.34966e-07
3.76334e-07
3.52042e-07
3.29617e-07
3.80865e-07
3.74108e-07
3.64519e-07
3.73746e-07
3.90549e-07
3.95264e-07
4.20044e-07
4.28794e-07
4.4435e-07
4.55092e-07
4.86508e-07
5.04804e-07
4.98233e-07
5.18354e-07
5.207e-07
5.39122e-07
5.4969e-07
5.55093e-07
5.71069e-07
6.06288e-07
6.18365e-07
6.24416e-07
5.8917e-07
6.11206e-07
6.79369e-07
7.19319e-07
8.5617e-07
9.12726e-07
1.35385e-06
1.44391e-06
1.05437e-06
1.07949e-06
9.61445e-07
9.75272e-07
9.51335e-07
9.75161e-07
1.1412e-06
1.21008e-06
1.25689e-06
1.3277e-06
1.39358e-06
1.45196e-06
1.52375e-06
1.6176e-06
1.70942e-06
1.80895e-06
1.9209e-06
2.03667e-06
2.16284e-06
2.30426e-06
2.45683e-06
2.62343e-06
2.8134e-06
3.02698e-06
3.2615e-06
3.52682e-06
3.83125e-06
4.16614e-06
4.52128e-06
4.92812e-06
5.42114e-06
5.98267e-06
6.59221e-06
7.30943e-06
8.1905e-06
9.20155e-06
9.90088e-06
9.90057e-06
9.90026e-06
9.90001e-06
9.89996e-06
9.89979e-06
9.89967e-06
9.89964e-06
9.89952e-06
9.8994e-06
9.89932e-06
9.89921e-06
9.89908e-06
9.35369e-06
8.87792e-06
8.42587e-06
7.992e-06
7.60352e-06
7.27534e-06
6.99878e-06
6.75417e-06
6.53446e-06
6.34782e-06
6.19038e-06
6.03915e-06
5.88308e-06
5.73421e-06
5.59828e-06
5.46349e-06
5.3249e-06
5.19946e-06
5.10436e-06
5.03431e-06
4.97393e-06
4.92108e-06
4.87957e-06
4.83924e-06
4.78779e-06
4.73383e-06
4.69388e-06
4.66881e-06
4.65093e-06
4.64045e-06
4.63987e-06
4.64231e-06
4.63945e-06
4.63122e-06
4.61956e-06
4.60303e-06
4.58499e-06
4.57605e-06
4.58265e-06
4.601e-06
4.62481e-06
4.65214e-06
4.68088e-06
4.70526e-06
4.72153e-06
4.73269e-06
4.74429e-06
4.75923e-06
4.78068e-06
4.81408e-06
4.86031e-06
4.91173e-06
4.95932e-06
5.00088e-06
5.03842e-06
5.07223e-06
5.10262e-06
5.13305e-06
5.16826e-06
5.21343e-06
5.27388e-06
5.35144e-06
5.44007e-06
5.52877e-06
5.60865e-06
5.67599e-06
5.73057e-06
5.77554e-06
5.8179e-06
5.86428e-06
5.91511e-06
5.9665e-06
6.01914e-06
6.08418e-06
6.17473e-06
6.28985e-06
6.40999e-06
6.51458e-06
6.60487e-06
6.70106e-06
6.81185e-06
6.91493e-06
6.97979e-06
7.01106e-06
7.04907e-06
7.12753e-06
7.24384e-06
7.37599e-06
7.51595e-06
7.67178e-06
7.84264e-06
8.01403e-06
8.17669e-06
8.32937e-06
8.4634e-06
8.56748e-06
8.64774e-06
8.72509e-06
8.81383e-06
8.91586e-06
9.03314e-06
9.16808e-06
9.31881e-06
9.48534e-06
9.67571e-06
9.87098e-06
9.87101e-06
9.87103e-06
9.87105e-06
9.87109e-06
9.87113e-06
9.87118e-06
9.87123e-06
9.87128e-06
9.87133e-06
9.87138e-06
9.87143e-06
9.87148e-06
9.87153e-06
9.87157e-06
9.8716e-06
9.87162e-06
9.87164e-06
9.87166e-06
9.87168e-06
9.8717e-06
9.87173e-06
9.87175e-06
9.87178e-06
9.87181e-06
9.87185e-06
9.87189e-06
9.87193e-06
9.87198e-06
9.87202e-06
9.87205e-06
9.87208e-06
9.8721e-06
9.87211e-06
9.87212e-06
9.87213e-06
9.87214e-06
9.87215e-06
9.87217e-06
9.87219e-06
9.87223e-06
9.87226e-06
9.8723e-06
9.87234e-06
9.87237e-06
9.8724e-06
9.87243e-06
9.87245e-06
9.87246e-06
9.87245e-06
9.87244e-06
9.87244e-06
9.87246e-06
9.87248e-06
9.8725e-06
9.87253e-06
9.87258e-06
9.87263e-06
9.87266e-06
9.87268e-06
9.87268e-06
9.87269e-06
9.87269e-06
9.87268e-06
9.87266e-06
9.87265e-06
9.87265e-06
9.87266e-06
9.87268e-06
9.87269e-06
9.87272e-06
9.87274e-06
9.87275e-06
9.87275e-06
9.87275e-06
9.87274e-06
9.87272e-06
9.87271e-06
9.87271e-06
9.87272e-06
9.87274e-06
9.87276e-06
9.87278e-06
9.87279e-06
9.8728e-06
9.8728e-06
9.87278e-06
9.87277e-06
9.87276e-06
9.87275e-06
9.87276e-06
9.87277e-06
9.87279e-06
9.87282e-06
9.87284e-06
9.87285e-06
9.87285e-06
9.87285e-06
9.87286e-06
9.87287e-06
9.87287e-06
9.87289e-06
9.87292e-06
9.87294e-06
9.87296e-06
9.87296e-06
9.87296e-06
9.87294e-06
9.87293e-06
9.87293e-06
9.87294e-06
9.87296e-06
9.87298e-06
9.87299e-06
9.87298e-06
9.87297e-06
9.87295e-06
9.87293e-06
9.87292e-06
9.87292e-06
9.87294e-06
9.87296e-06
9.87298e-06
9.87298e-06
9.87298e-06
9.87299e-06
9.87299e-06
9.87299e-06
9.873e-06
9.87302e-06
9.87302e-06
9.87302e-06
9.87302e-06
9.87301e-06
9.87302e-06
9.87303e-06
9.87305e-06
9.87305e-06
9.87306e-06
9.87305e-06
9.87305e-06
9.87305e-06
9.87306e-06
9.87305e-06
9.87302e-06
9.873e-06
9.87299e-06
9.87301e-06
9.87304e-06
9.87305e-06
9.87305e-06
9.87303e-06
9.87305e-06
9.87308e-06
9.87312e-06
9.87312e-06
9.87312e-06
9.87309e-06
9.87307e-06
9.87309e-06
9.87308e-06
9.87311e-06
9.87309e-06
9.87301e-06
9.87302e-06
9.87302e-06
9.87308e-06
9.87306e-06
9.87306e-06
9.8731e-06
9.8731e-06
9.87311e-06
9.87309e-06
9.87311e-06
9.87309e-06
9.87308e-06
9.87307e-06
9.87309e-06
9.87311e-06
9.87309e-06
9.87311e-06
9.87312e-06
9.87311e-06
9.8731e-06
9.87303e-06
9.87312e-06
9.87307e-06
9.8731e-06
9.87307e-06
9.87304e-06
9.87302e-06
9.87289e-06
9.87294e-06
9.87301e-06
9.87289e-06
9.87286e-06
9.87284e-06
9.87277e-06
9.87273e-06
9.87274e-06
9.87273e-06
9.87271e-06
9.87273e-06
9.87279e-06
9.87285e-06
9.87286e-06
9.87285e-06
9.87286e-06
9.87291e-06
9.87299e-06
9.87304e-06
9.87306e-06
9.87304e-06
9.873e-06
9.87293e-06
9.87288e-06
9.87284e-06
9.87282e-06
9.87283e-06
9.87286e-06
9.87292e-06
9.873e-06
9.87311e-06
9.87315e-06
9.87315e-06
9.87315e-06
9.87315e-06
9.87315e-06
9.87316e-06
9.87316e-06
9.87316e-06
9.87316e-06
9.87315e-06
9.87315e-06
9.87314e-06
9.87313e-06
9.87311e-06
9.87309e-06
9.8731e-06
9.87311e-06
9.87312e-06
9.87313e-06
9.87314e-06
9.87314e-06
9.87314e-06
9.87313e-06
9.87311e-06
9.87309e-06
9.87312e-06
9.87313e-06
9.87313e-06
9.8731e-06
9.87276e-06
9.87262e-06
9.87284e-06
9.87308e-06
9.87306e-06
9.87272e-06
9.87258e-06
9.87291e-06
9.87312e-06
9.87313e-06
9.87305e-06
9.87311e-06
9.87314e-06
9.87315e-06
9.87307e-06
9.87288e-06
9.87293e-06
9.87266e-06
9.87284e-06
9.87456e-06
5.16445e-09
4.33139e-09
1.80836e-08
8.51174e-08
7.35032e-08
7.19566e-08
6.87581e-08
6.64371e-08
6.42177e-08
6.21238e-08
6.00895e-08
5.82606e-08
5.66644e-08
5.50968e-08
5.34855e-08
5.19417e-08
5.06251e-08
4.95676e-08
4.86655e-08
4.7835e-08
4.70732e-08
4.63982e-08
4.58218e-08
4.53212e-08
4.48644e-08
4.44238e-08
4.40231e-08
4.36778e-08
4.3379e-08
4.31421e-08
4.29861e-08
4.28776e-08
4.28458e-08
4.29015e-08
4.30264e-08
4.32281e-08
4.3514e-08
4.38549e-08
4.42787e-08
4.46675e-08
4.50347e-08
4.54045e-08
4.58174e-08
4.61911e-08
4.65955e-08
4.70916e-08
4.76652e-08
4.83225e-08
4.90574e-08
4.98701e-08
5.07569e-08
5.16666e-08
5.25883e-08
5.35161e-08
5.44643e-08
5.5399e-08
5.63916e-08
5.74189e-08
5.85005e-08
5.96065e-08
6.07513e-08
6.19255e-08
6.3108e-08
6.42681e-08
6.54019e-08
6.65232e-08
6.76442e-08
6.88227e-08
7.01312e-08
7.16478e-08
7.35262e-08
7.59605e-08
7.92407e-08
8.3744e-08
9.00076e-08
9.91454e-08
1.11994e-07
1.289e-07
1.40803e-07
1.55212e-07
1.8246e-07
1.83201e-07
1.32273e-07
1.05136e-07
5.27146e-08
5.06616e-08
4.61214e-08
2.51086e-08
2.75058e-08
5.64299e-08
6.1482e-08
3.5296e-07
3.01265e-07
3.00214e-07
3.67691e-07
3.73304e-07
3.55988e-07
4.13524e-07
4.01731e-07
3.87587e-07
3.9701e-07
4.16213e-07
4.18596e-07
4.38509e-07
4.56307e-07
4.65442e-07
4.91558e-07
5.05508e-07
5.49504e-07
5.71619e-07
5.68253e-07
5.85134e-07
5.84717e-07
5.97313e-07
5.96115e-07
6.06107e-07
6.34159e-07
6.54325e-07
6.75673e-07
6.43376e-07
6.73472e-07
7.47676e-07
8.03929e-07
9.68707e-07
1.04522e-06
1.50317e-06
1.5779e-06
1.21707e-06
1.23897e-06
1.10221e-06
1.1081e-06
1.10047e-06
1.12853e-06
1.33553e-06
1.43706e-06
1.49979e-06
1.53003e-06
1.60045e-06
1.66992e-06
1.7537e-06
1.87412e-06
1.98732e-06
2.10592e-06
2.24257e-06
2.38681e-06
2.54838e-06
2.73677e-06
2.94429e-06
3.16294e-06
3.40376e-06
3.68346e-06
3.99627e-06
4.3198e-06
4.67842e-06
5.11898e-06
5.6334e-06
6.18171e-06
6.78271e-06
7.46914e-06
8.20918e-06
8.98531e-06
9.81088e-06
9.99886e-06
9.99889e-06
9.99892e-06
9.99896e-06
9.99898e-06
9.99901e-06
9.99904e-06
9.99907e-06
9.9991e-06
9.544e-06
9.03727e-06
8.61202e-06
8.20594e-06
7.79992e-06
7.4375e-06
7.13407e-06
6.87316e-06
6.64521e-06
6.4462e-06
6.26852e-06
6.10862e-06
5.96081e-06
5.81269e-06
5.66453e-06
5.5324e-06
5.42059e-06
5.31504e-06
5.20963e-06
5.11727e-06
5.04561e-06
4.98207e-06
4.91067e-06
4.83995e-06
4.78894e-06
4.75378e-06
4.71731e-06
4.68072e-06
4.65689e-06
4.64373e-06
4.62956e-06
4.61504e-06
4.60689e-06
4.59915e-06
4.58258e-06
4.56314e-06
4.55089e-06
4.54227e-06
4.53114e-06
4.5261e-06
4.5391e-06
4.5643e-06
4.58594e-06
4.60153e-06
4.62052e-06
4.64329e-06
4.66114e-06
4.67508e-06
4.69692e-06
4.73102e-06
4.77035e-06
4.81063e-06
4.85428e-06
4.89969e-06
4.94028e-06
4.97505e-06
5.0093e-06
5.04589e-06
5.08387e-06
5.12338e-06
5.16699e-06
5.21768e-06
5.2773e-06
5.34494e-06
5.41707e-06
5.49004e-06
5.56231e-06
5.6326e-06
5.69692e-06
5.75136e-06
5.79828e-06
5.84771e-06
5.91004e-06
5.98707e-06
6.0711e-06
6.15375e-06
6.23611e-06
6.32703e-06
6.42765e-06
6.52482e-06
6.60744e-06
6.68341e-06
6.76837e-06
6.85814e-06
6.92944e-06
6.97615e-06
7.02845e-06
7.11993e-06
7.2464e-06
7.37673e-06
7.5013e-06
7.64449e-06
7.8208e-06
8.00737e-06
8.17263e-06
8.30754e-06
8.41633e-06
8.50423e-06
8.58387e-06
8.67289e-06
8.77879e-06
8.8984e-06
9.03296e-06
9.18989e-06
9.37124e-06
9.57107e-06
9.78485e-06
9.99943e-06
9.99942e-06
9.99942e-06
9.99942e-06
9.99941e-06
9.99941e-06
9.99941e-06
9.99941e-06
9.99941e-06
9.99941e-06
9.99941e-06
9.99941e-06
9.9994e-06
9.9994e-06
9.9994e-06
9.9994e-06
9.9994e-06
9.9994e-06
9.99939e-06
9.99939e-06
9.99939e-06
9.99939e-06
9.99939e-06
9.99939e-06
9.99939e-06
9.99939e-06
9.99939e-06
9.99939e-06
9.99939e-06
9.99939e-06
9.99939e-06
9.99938e-06
9.99938e-06
9.99938e-06
9.99938e-06
9.99938e-06
9.99938e-06
9.99938e-06
9.99938e-06
9.99938e-06
9.99938e-06
9.99938e-06
9.99938e-06
9.99938e-06
9.99938e-06
9.99938e-06
9.99938e-06
9.99938e-06
9.99938e-06
9.99938e-06
9.99938e-06
9.99938e-06
9.99938e-06
9.99938e-06
9.99937e-06
9.99938e-06
9.99938e-06
9.99938e-06
9.99938e-06
9.99938e-06
9.99938e-06
9.99937e-06
9.99937e-06
9.99937e-06
9.99937e-06
9.99937e-06
9.99937e-06
9.99937e-06
9.99937e-06
9.99937e-06
9.99937e-06
9.99937e-06
9.99937e-06
9.99937e-06
9.99937e-06
9.99937e-06
9.99937e-06
9.99937e-06
9.99937e-06
9.99937e-06
9.99937e-06
9.99937e-06
9.99937e-06
9.99937e-06
9.99937e-06
9.99937e-06
9.99937e-06
9.99937e-06
9.99937e-06
9.99937e-06
9.99937e-06
9.99937e-06
9.99937e-06
9.99937e-06
9.99937e-06
9.99937e-06
9.99937e-06
9.99937e-06
9.99937e-06
9.99937e-06
9.99937e-06
9.99937e-06
9.99937e-06
9.99937e-06
9.99937e-06
9.99937e-06
9.99937e-06
9.99937e-06
9.99937e-06
9.99937e-06
9.99937e-06
9.99937e-06
9.99937e-06
9.99937e-06
9.99937e-06
9.99937e-06
9.99937e-06
9.99937e-06
9.99937e-06
9.99936e-06
9.99937e-06
9.99937e-06
9.99937e-06
9.99936e-06
9.99936e-06
9.99936e-06
9.99936e-06
9.99936e-06
9.99936e-06
9.99936e-06
9.99936e-06
9.99936e-06
9.99936e-06
9.99936e-06
9.99936e-06
9.99936e-06
9.99936e-06
9.99936e-06
9.99936e-06
9.99936e-06
9.99936e-06
9.99936e-06
9.99936e-06
9.99936e-06
9.99936e-06
9.99936e-06
9.99936e-06
9.99936e-06
9.99936e-06
9.99936e-06
9.99936e-06
9.99936e-06
9.99936e-06
9.99936e-06
9.99936e-06
9.99936e-06
9.99936e-06
9.99936e-06
9.99936e-06
9.99936e-06
9.99936e-06
9.99936e-06
9.99936e-06
9.99936e-06
9.99936e-06
9.99936e-06
9.99936e-06
9.99936e-06
9.99936e-06
9.99936e-06
9.99936e-06
9.99936e-06
9.99936e-06
9.99936e-06
9.99936e-06
9.99936e-06
9.99936e-06
9.99936e-06
9.99936e-06
9.99937e-06
9.99937e-06
9.99937e-06
9.99937e-06
9.99936e-06
9.99936e-06
9.99936e-06
9.99936e-06
9.99936e-06
9.99936e-06
9.99936e-06
9.99936e-06
9.99936e-06
9.99936e-06
9.99936e-06
9.99936e-06
9.99936e-06
9.99936e-06
9.99936e-06
9.99936e-06
9.99936e-06
9.99936e-06
9.99936e-06
9.99936e-06
9.99936e-06
9.99936e-06
9.99936e-06
9.99936e-06
9.99936e-06
9.99936e-06
9.99936e-06
9.99936e-06
9.99936e-06
9.99936e-06
9.99936e-06
9.99936e-06
9.99936e-06
9.99936e-06
9.99936e-06
9.99936e-06
9.99936e-06
9.99936e-06
9.99936e-06
9.99937e-06
9.99937e-06
9.99937e-06
9.99937e-06
9.99937e-06
9.99937e-06
9.99937e-06
9.99937e-06
9.99937e-06
9.99937e-06
9.99937e-06
9.99937e-06
9.99937e-06
9.99937e-06
9.99937e-06
9.99937e-06
9.99937e-06
9.99937e-06
9.99937e-06
9.99937e-06
9.99937e-06
9.99937e-06
9.99937e-06
9.99937e-06
9.99937e-06
9.99937e-06
9.99937e-06
9.99937e-06
9.99937e-06
9.99937e-06
9.99937e-06
9.99937e-06
9.99937e-06
9.99937e-06
9.99937e-06
9.99937e-06
9.99937e-06
9.99937e-06
9.99937e-06
9.99937e-06
9.99937e-06
9.99938e-06
9.99938e-06
9.99937e-06
9.99937e-06
9.99937e-06
9.99937e-06
9.99937e-06
9.99938e-06
9.99938e-06
5.10546e-09
4.31135e-09
1.78247e-08
7.99583e-08
7.04633e-08
6.94862e-08
6.69284e-08
6.49156e-08
6.29539e-08
6.10591e-08
5.91244e-08
5.73152e-08
5.56338e-08
5.39663e-08
5.23496e-08
5.08492e-08
4.96207e-08
4.85956e-08
4.76864e-08
4.68541e-08
4.61204e-08
4.5482e-08
4.49345e-08
4.44689e-08
4.40524e-08
4.36524e-08
4.32702e-08
4.29317e-08
4.2654e-08
4.2425e-08
4.22288e-08
4.20918e-08
4.20173e-08
4.20462e-08
4.21858e-08
4.24295e-08
4.28045e-08
4.3338e-08
4.3932e-08
4.45341e-08
4.51411e-08
4.56666e-08
4.61227e-08
4.65064e-08
4.68848e-08
4.72446e-08
4.76097e-08
4.80642e-08
4.86589e-08
4.93496e-08
5.02127e-08
5.11319e-08
5.21061e-08
5.31435e-08
5.41702e-08
5.5177e-08
5.61755e-08
5.71617e-08
5.81372e-08
5.91289e-08
6.01388e-08
6.12358e-08
6.24269e-08
6.36948e-08
6.50554e-08
6.6546e-08
6.81013e-08
6.97151e-08
7.1491e-08
7.35207e-08
7.59328e-08
7.89082e-08
8.27796e-08
8.77667e-08
9.39967e-08
1.01907e-07
1.11357e-07
1.21818e-07
1.32776e-07
1.4552e-07
1.56138e-07
1.57154e-07
1.58749e-07
1.50286e-07
1.14575e-07
1.05906e-07
1.08608e-07
1.13209e-07
5.21053e-08
5.58405e-08
2.7472e-08
3.00321e-08
6.1344e-08
6.50896e-08
4.39304e-07
3.76903e-07
3.13824e-07
3.71594e-07
4.00013e-07
3.78358e-07
4.39145e-07
4.29074e-07
4.1047e-07
4.17117e-07
4.45248e-07
4.49489e-07
4.72805e-07
4.89234e-07
5.00762e-07
5.30897e-07
5.47173e-07
5.93809e-07
6.20761e-07
6.15228e-07
6.29467e-07
6.21193e-07
6.28905e-07
6.33603e-07
6.55186e-07
6.98867e-07
7.33003e-07
7.59204e-07
7.21536e-07
7.5963e-07
8.38351e-07
9.11671e-07
1.1051e-06
1.20404e-06
1.59147e-06
1.63838e-06
1.38287e-06
1.38932e-06
1.25821e-06
1.2649e-06
1.42725e-06
1.31231e-06
1.35764e-06
1.60433e-06
1.70651e-06
1.73854e-06
1.83758e-06
1.92764e-06
2.0322e-06
2.18872e-06
2.33892e-06
2.48201e-06
2.64919e-06
2.84183e-06
3.04684e-06
3.26331e-06
3.5112e-06
3.80008e-06
4.10882e-06
4.4392e-06
4.83012e-06
5.27609e-06
5.72989e-06
6.20129e-06
6.73481e-06
7.3049e-06
7.86607e-06
8.41965e-06
8.94923e-06
9.4146e-06
9.78237e-06
9.96394e-06
9.92251e-06
9.75372e-06
9.53401e-06
9.29161e-06
8.98303e-06
8.59095e-06
8.21292e-06
7.88309e-06
7.54926e-06
7.21702e-06
6.93734e-06
6.70871e-06
6.4977e-06
6.29777e-06
6.11699e-06
5.94823e-06
5.78406e-06
5.6314e-06
5.49904e-06
5.38706e-06
5.29349e-06
5.2171e-06
5.15251e-06
5.0904e-06
5.02486e-06
4.95543e-06
4.88234e-06
4.80505e-06
4.73446e-06
4.68915e-06
4.66948e-06
4.65638e-06
4.64002e-06
4.62474e-06
4.60892e-06
4.58442e-06
4.55488e-06
4.53274e-06
4.51818e-06
4.50231e-06
4.48896e-06
4.49007e-06
4.50039e-06
4.50137e-06
4.49221e-06
4.49045e-06
4.5009e-06
4.51076e-06
4.51658e-06
4.53315e-06
4.56761e-06
4.60769e-06
4.64308e-06
4.68056e-06
4.72586e-06
4.76968e-06
4.8044e-06
4.83632e-06
4.87164e-06
4.90762e-06
4.94222e-06
4.98006e-06
5.02571e-06
5.07882e-06
5.13575e-06
5.19207e-06
5.24489e-06
5.29469e-06
5.34432e-06
5.39679e-06
5.45478e-06
5.52015e-06
5.59208e-06
5.66554e-06
5.73414e-06
5.7971e-06
5.86256e-06
5.94225e-06
6.03957e-06
6.14187e-06
6.22767e-06
6.28892e-06