/*--------------------------------*- C++ -*----------------------------------*\
| =========                 |                                                 |
| \\      /  F ield         | OpenFOAM: The Open Source CFD Toolbox           |
|  \\    /   O peration     | Version:  v2006                                 |
|   \\  /    A nd           | Website:  www.openfoam.com                      |
|    \\/     M anipulation  |                                                 |
\*---------------------------------------------------------------------------*/
FoamFile
{
    version     2.0;
    format      ascii;
    class       volVectorField;
    location    "0.7";
    object      U;
}
// * * * * * * * * * * * * * * * * * * * * * * * * * * * * * * * * * * * * * //

dimensions      [0 1 -1 0 0 0 0];


internalField   nonuniform List<vector> 
33000
(
(-0.0181721 0 -0.000193638)
(-0.0338275 0 -0.000234162)
(-0.0309329 0 -0.000221969)
(-0.0308506 0 -0.000244222)
(-0.0305914 0 -0.000239793)
(-0.0303657 0 -0.0002341)
(-0.0301221 0 -0.000237935)
(-0.0298604 0 -0.00024653)
(-0.02958 0 -0.000256235)
(-0.0292818 0 -0.00026519)
(-0.0289678 0 -0.000272406)
(-0.0286408 0 -0.000277881)
(-0.0283022 0 -0.000284163)
(-0.0279532 0 -0.000289297)
(-0.0275954 0 -0.000293811)
(-0.0272293 0 -0.000298596)
(-0.0268559 0 -0.000302626)
(-0.0264754 0 -0.000307957)
(-0.0260873 0 -0.000313393)
(-0.0256918 0 -0.000318361)
(-0.0252892 0 -0.000323241)
(-0.0248804 0 -0.000327226)
(-0.0244657 0 -0.000329823)
(-0.0240482 0 -0.00033146)
(-0.0236276 0 -0.000332635)
(-0.0232031 0 -0.00033373)
(-0.0227764 0 -0.000334446)
(-0.0223477 0 -0.000334884)
(-0.0219172 0 -0.000334936)
(-0.0214854 0 -0.000334456)
(-0.0210528 0 -0.000333845)
(-0.0206196 0 -0.0003331)
(-0.0201857 0 -0.000332203)
(-0.0197517 0 -0.00033086)
(-0.019318 0 -0.000328798)
(-0.0188857 0 -0.000325686)
(-0.0184553 0 -0.000322953)
(-0.0180257 0 -0.000321596)
(-0.0175975 0 -0.000319483)
(-0.017172 0 -0.000317573)
(-0.0167499 0 -0.000315402)
(-0.0163329 0 -0.000312264)
(-0.0159219 0 -0.000311051)
(-0.015517 0 -0.000309487)
(-0.0151195 0 -0.000307536)
(-0.0147294 0 -0.000305825)
(-0.0143458 0 -0.000304857)
(-0.0139674 0 -0.000304007)
(-0.0135933 0 -0.000303114)
(-0.0132222 0 -0.000302262)
(-0.0128533 0 -0.000300854)
(-0.0124861 0 -0.000299486)
(-0.0121199 0 -0.000297561)
(-0.0117553 0 -0.000294731)
(-0.011393 0 -0.000291347)
(-0.0110339 0 -0.000287035)
(-0.010679 0 -0.000282355)
(-0.010329 0 -0.00027787)
(-0.00998442 0 -0.000273102)
(-0.00964586 0 -0.000267727)
(-0.00931366 0 -0.000262629)
(-0.00898783 0 -0.000257485)
(-0.00866839 0 -0.000252388)
(-0.00835505 0 -0.000247672)
(-0.00804719 0 -0.000243333)
(-0.00774431 0 -0.000239366)
(-0.00744588 0 -0.000236026)
(-0.00715076 0 -0.000233427)
(-0.00685865 0 -0.000231522)
(-0.00656857 0 -0.000230565)
(-0.0062784 0 -0.000231372)
(-0.00598525 0 -0.00023504)
(-0.00568294 0 -0.00024338)
(-0.0053623 0 -0.000261054)
(-0.00500851 0 -0.00029376)
(-0.00458241 0 -0.000356708)
(-0.00404549 0 -0.000484933)
(-0.00398905 0 -0.000753408)
(-0.00190991 0 -0.000315801)
(-0.0020886 0 -0.000130179)
(-0.00179032 0 2.68926e-05)
(-0.00174016 0 8.44258e-05)
(-0.00174212 0 -3.64562e-05)
(-0.00165467 0 -6.35789e-05)
(-0.00158707 0 -3.01305e-05)
(-0.0015359 0 -6.21303e-05)
(-0.00145694 0 -5.92402e-05)
(-0.00138048 0 -6.18459e-05)
(-0.00132762 0 -5.98844e-05)
(-0.00127041 0 -4.85137e-05)
(-0.00121762 0 -4.89758e-05)
(-0.00115667 0 -4.27776e-05)
(-0.001104 0 -4.3619e-05)
(-0.00105192 0 -4.29308e-05)
(-0.000999293 0 -4.27151e-05)
(-0.000949904 0 -4.14678e-05)
(-0.000897836 0 -3.99979e-05)
(-0.00085119 0 -3.93499e-05)
(-0.000801498 0 -3.51723e-05)
(-0.000756754 0 -3.52307e-05)
(-0.000709233 0 -3.84507e-05)
(-0.000667044 0 -4.12219e-05)
(-0.000619556 0 -4.09416e-05)
(-0.00057741 0 -3.57348e-05)
(-0.00053492 0 -3.42021e-05)
(-0.00049203 0 -3.21641e-05)
(-0.000452124 0 -3.1508e-05)
(-0.00041371 0 -3.07434e-05)
(-0.000376103 0 -3.02224e-05)
(-0.000339716 0 -2.92025e-05)
(-0.000304463 0 -2.76981e-05)
(-0.000270824 0 -2.62077e-05)
(-0.000237986 0 -2.44137e-05)
(-0.000208691 0 -2.25474e-05)
(-0.000177352 0 -1.89152e-05)
(-0.000159376 0 -1.66151e-05)
(-0.000124918 0 -5.14849e-06)
(-0.000129706 0 -7.58174e-06)
(-9.67176e-05 0 -1.90317e-05)
(-7.9429e-05 0 -2.99971e-05)
(-4.65353e-05 0 -3.16112e-05)
(-2.05749e-05 0 -2.16904e-05)
(5.88185e-06 0 -1.98327e-05)
(3.50065e-05 0 -1.81285e-05)
(6.04267e-05 0 -1.78129e-05)
(8.38663e-05 0 -1.79992e-05)
(0.000107307 0 -1.75193e-05)
(0.000129249 0 -1.63408e-05)
(0.000150245 0 -1.5546e-05)
(0.000170492 0 -1.47315e-05)
(0.000189573 0 -1.40004e-05)
(0.000207622 0 -1.33534e-05)
(0.000224748 0 -1.26443e-05)
(0.00024084 0 -1.1914e-05)
(0.000256001 0 -1.12563e-05)
(0.000270333 0 -1.06375e-05)
(0.000283861 0 -1.00245e-05)
(0.000296573 0 -9.41071e-06)
(0.000308504 0 -8.84229e-06)
(0.000319748 0 -8.33084e-06)
(0.000330369 0 -7.84904e-06)
(0.000340385 0 -7.36491e-06)
(0.000349784 0 -6.89087e-06)
(0.000358609 0 -6.46059e-06)
(0.00036692 0 -6.04167e-06)
(0.000374707 0 -5.6057e-06)
(0.000381961 0 -5.19833e-06)
(0.000388731 0 -4.83964e-06)
(0.000395065 0 -4.49413e-06)
(0.000400968 0 -4.14506e-06)
(0.00040642 0 -3.80713e-06)
(0.000411453 0 -3.49558e-06)
(0.00041609 0 -3.18118e-06)
(0.000420314 0 -2.86291e-06)
(0.000424129 0 -2.56232e-06)
(0.000427568 0 -2.27786e-06)
(0.000430645 0 -1.9924e-06)
(0.000433358 0 -1.72149e-06)
(0.000435725 0 -1.46799e-06)
(0.00043776 0 -1.20509e-06)
(0.000439452 0 -9.32967e-07)
(0.000440804 0 -6.97679e-07)
(0.000441869 0 -5.04722e-07)
(0.00044267 0 -3.04334e-07)
(0.000443192 0 -7.50091e-08)
(0.000443423 0 1.45803e-07)
(0.000443397 0 3.26251e-07)
(0.000443152 0 4.91531e-07)
(0.000442684 0 6.75716e-07)
(0.000441969 0 8.63884e-07)
(0.000441026 0 1.01235e-06)
(0.000439905 0 1.13085e-06)
(0.000438613 0 1.26911e-06)
(0.000437121 0 1.42135e-06)
(0.000435442 0 1.54667e-06)
(0.000433614 0 1.6532e-06)
(0.00043164 0 1.77521e-06)
(0.000429501 0 1.90322e-06)
(0.000427209 0 2.00979e-06)
(0.000424791 0 2.10465e-06)
(0.000422245 0 2.20915e-06)
(0.000419562 0 2.31069e-06)
(0.00041676 0 2.38889e-06)
(0.000413865 0 2.4545e-06)
(0.000410879 0 2.52837e-06)
(0.000407788 0 2.60742e-06)
(0.000404598 0 2.67906e-06)
(0.000401324 0 2.74427e-06)
(0.000397969 0 2.81113e-06)
(0.000394528 0 2.87651e-06)
(0.000391004 0 2.93139e-06)
(0.000387412 0 2.97322e-06)
(0.000383767 0 3.00936e-06)
(0.00038007 0 3.04942e-06)
(0.000376317 0 3.09588e-06)
(0.000372506 0 3.14278e-06)
(0.000368645 0 3.18479e-06)
(0.000364737 0 3.22158e-06)
(0.000360783 0 3.2534e-06)
(0.000356788 0 3.2817e-06)
(0.000352755 0 3.30942e-06)
(0.000348688 0 3.33514e-06)
(0.000344589 0 3.35612e-06)
(0.000340465 0 3.37406e-06)
(0.00033632 0 3.38952e-06)
(0.000332159 0 3.39764e-06)
(0.000327994 0 3.39677e-06)
(0.00032383 0 3.39075e-06)
(0.00031967 0 3.37773e-06)
(0.000315523 0 3.35364e-06)
(0.000311399 0 3.32874e-06)
(0.000307291 0 3.31949e-06)
(0.000303181 0 3.3235e-06)
(0.000299063 0 3.32447e-06)
(0.000294948 0 3.32114e-06)
(0.000290836 0 3.32508e-06)
(0.000286718 0 3.33349e-06)
(0.000282597 0 3.32878e-06)
(0.000278492 0 3.30739e-06)
(0.000274412 0 3.2856e-06)
(0.000270348 0 3.27049e-06)
(0.000266295 0 3.25072e-06)
(0.000262263 0 3.22241e-06)
(0.000258257 0 3.19911e-06)
(0.000254265 0 3.18862e-06)
(0.000250281 0 3.17915e-06)
(0.000246314 0 3.1576e-06)
(0.000242381 0 3.12776e-06)
(0.000238483 0 3.09764e-06)
(0.000234618 0 3.06653e-06)
(0.000230788 0 3.03084e-06)
(0.000226998 0 2.99343e-06)
(0.000223247 0 2.95822e-06)
(0.000219534 0 2.92477e-06)
(0.000215857 0 2.89311e-06)
(0.000212218 0 2.86749e-06)
(0.000208608 0 2.84842e-06)
(0.000205025 0 2.82822e-06)
(0.000201473 0 2.79767e-06)
(0.000197965 0 2.75694e-06)
(0.000194505 0 2.71362e-06)
(0.000191094 0 2.67478e-06)
(0.000187726 0 2.64285e-06)
(0.000184397 0 2.61708e-06)
(0.000181101 0 2.59443e-06)
(0.000177836 0 2.56916e-06)
(0.000174605 0 2.53788e-06)
(0.000171414 0 2.50586e-06)
(0.000168261 0 2.48252e-06)
(0.000165136 0 2.46855e-06)
(0.000162034 0 2.45074e-06)
(0.000158963 0 2.41637e-06)
(0.000155942 0 2.37014e-06)
(0.000152976 0 2.32945e-06)
(0.000150054 0 2.303e-06)
(0.000147164 0 2.27851e-06)
(0.000144311 0 2.23806e-06)
(0.000141513 0 2.18062e-06)
(0.000138782 0 2.12251e-06)
(0.000136106 0 2.07902e-06)
(0.000133468 0 2.05129e-06)
(0.000130858 0 2.032e-06)
(0.000128273 0 2.01595e-06)
(0.000125715 0 2.00155e-06)
(0.000123182 0 1.9851e-06)
(0.000120677 0 1.96297e-06)
(0.000118207 0 1.93689e-06)
(0.000115772 0 1.91027e-06)
(0.000113373 0 1.88001e-06)
(0.000111016 0 1.83962e-06)
(0.000108709 0 1.79095e-06)
(0.000106456 0 1.74484e-06)
(0.00010425 0 1.7073e-06)
(0.000102082 0 1.67712e-06)
(9.9949e-05 0 1.65118e-06)
(9.78501e-05 0 1.62868e-06)
(9.57809e-05 0 1.60947e-06)
(9.37378e-05 0 1.59269e-06)
(9.17186e-05 0 1.57902e-06)
(8.97198e-05 0 1.57029e-06)
(8.77364e-05 0 1.56419e-06)
(8.57675e-05 0 1.55252e-06)
(8.38216e-05 0 1.52825e-06)
(8.19107e-05 0 1.49324e-06)
(8.0043e-05 0 1.45366e-06)
(7.82205e-05 0 1.41393e-06)
(7.64438e-05 0 1.37406e-06)
(7.47155e-05 0 1.33218e-06)
(7.30402e-05 0 1.28879e-06)
(7.142e-05 0 1.2467e-06)
(6.98538e-05 0 1.20828e-06)
(6.83364e-05 0 1.17556e-06)
(6.68633e-05 0 1.14602e-06)
(6.54287e-05 0 1.1239e-06)
(6.40231e-05 0 1.11062e-06)
(6.26376e-05 0 1.10366e-06)
(6.12672e-05 0 1.09751e-06)
(5.99119e-05 0 1.08752e-06)
(5.85746e-05 0 1.07292e-06)
(5.72571e-05 0 1.05618e-06)
(5.59592e-05 0 1.03946e-06)
(5.46802e-05 0 1.02206e-06)
(5.34222e-05 0 1.00082e-06)
(5.21907e-05 0 9.72978e-07)
(5.09928e-05 0 9.38258e-07)
(4.9834e-05 0 8.99431e-07)
(4.87164e-05 0 8.6035e-07)
(4.76385e-05 0 8.24196e-07)
(4.65964e-05 0 7.92897e-07)
(4.55848e-05 0 7.67536e-07)
(4.45977e-05 0 7.48862e-07)
(4.36293e-05 0 7.36038e-07)
(4.26746e-05 0 7.285e-07)
(4.17301e-05 0 7.23967e-07)
(4.07948e-05 0 7.19526e-07)
(3.98702e-05 0 7.12519e-07)
(3.89604e-05 0 7.01286e-07)
(3.80708e-05 0 6.85333e-07)
(3.72069e-05 0 6.65364e-07)
(3.63732e-05 0 6.42824e-07)
(3.55715e-05 0 6.18262e-07)
(3.48022e-05 0 5.90927e-07)
(3.40657e-05 0 5.59932e-07)
(3.33629e-05 0 5.27429e-07)
(3.26928e-05 0 4.99497e-07)
(3.20486e-05 0 4.84371e-07)
(3.14157e-05 0 4.8572e-07)
(3.0779e-05 0 4.95992e-07)
(3.0133e-05 0 5.03769e-07)
(2.94843e-05 0 5.02718e-07)
(2.88434e-05 0 4.96446e-07)
(2.82159e-05 0 4.89351e-07)
(2.76031e-05 0 4.78094e-07)
(2.70113e-05 0 4.54011e-07)
(2.64545e-05 0 4.15612e-07)
(2.59446e-05 0 3.73886e-07)
(2.54775e-05 0 3.4468e-07)
(2.50338e-05 0 3.3167e-07)
(2.45983e-05 0 3.24618e-07)
(2.41687e-05 0 3.18542e-07)
(2.37442e-05 0 3.18925e-07)
(2.33164e-05 0 3.31131e-07)
(2.28739e-05 0 3.49749e-07)
(2.24156e-05 0 3.62292e-07)
(2.19522e-05 0 3.63344e-07)
(2.14951e-05 0 3.57272e-07)
(2.10486e-05 0 3.47804e-07)
(2.06159e-05 0 3.32657e-07)
(2.02037e-05 0 3.11483e-07)
(1.98152e-05 0 2.9079e-07)
(1.94446e-05 0 2.7703e-07)
(1.9083e-05 0 2.71021e-07)
(1.87238e-05 0 2.72191e-07)
(1.83596e-05 0 2.81706e-07)
(1.79818e-05 0 2.97241e-07)
(1.75876e-05 0 3.10699e-07)
(1.71853e-05 0 3.15288e-07)
(1.67871e-05 0 3.11772e-07)
(1.64003e-05 0 3.0295e-07)
(1.60283e-05 0 2.8818e-07)
(1.56756e-05 0 2.66964e-07)
(1.53453e-05 0 2.45561e-07)
(1.50323e-05 0 2.33348e-07)
(1.47239e-05 0 2.34703e-07)
(1.44073e-05 0 2.45593e-07)
(1.40768e-05 0 2.59239e-07)
(1.37335e-05 0 2.71419e-07)
(1.33812e-05 0 2.80189e-07)
(1.30259e-05 0 2.82428e-07)
(1.26764e-05 0 2.74646e-07)
(1.23435e-05 0 2.57064e-07)
(1.20339e-05 0 2.35759e-07)
(1.17463e-05 0 2.18445e-07)
(1.14731e-05 0 2.08891e-07)
(1.12059e-05 0 2.05266e-07)
(1.09411e-05 0 2.03832e-07)
(1.06789e-05 0 2.03681e-07)
(1.04186e-05 0 2.05438e-07)
(1.01593e-05 0 2.05608e-07)
(9.90608e-06 0 1.97104e-07)
(9.67034e-06 0 1.77156e-07)
(9.46133e-06 0 1.51193e-07)
(9.27696e-06 0 1.30012e-07)
(9.10552e-06 0 1.20711e-07)
(8.9331e-06 0 1.25539e-07)
(8.74831e-06 0 1.40924e-07)
(8.54695e-06 0 1.58023e-07)
(8.33452e-06 0 1.67895e-07)
(8.12237e-06 0 1.67003e-07)
(7.92056e-06 0 1.56711e-07)
(7.73489e-06 0 1.4101e-07)
(7.5652e-06 0 1.26719e-07)
(7.40347e-06 0 1.21323e-07)
(7.23672e-06 0 1.28013e-07)
(7.05422e-06 0 1.44138e-07)
(6.8509e-06 0 1.6525e-07)
(6.62766e-06 0 1.84324e-07)
(6.39337e-06 0 1.91519e-07)
(6.16435e-06 0 1.80252e-07)
(5.95665e-06 0 1.56181e-07)
(5.77477e-06 0 1.33418e-07)
(5.60863e-06 0 1.22464e-07)
(5.4436e-06 0 1.22371e-07)
(5.27524e-06 0 1.26132e-07)
(5.10536e-06 0 1.33049e-07)
(4.93192e-06 0 1.38147e-07)
(4.76134e-06 0 1.29542e-07)
(4.60723e-06 0 1.10567e-07)
(4.47011e-06 0 9.71677e-08)
(4.3382e-06 0 9.71248e-08)
(4.20046e-06 0 1.06976e-07)
(4.05226e-06 0 1.18213e-07)
(3.90004e-06 0 1.20381e-07)
(3.75744e-06 0 1.11953e-07)
(3.63003e-06 0 1.00694e-07)
(3.51259e-06 0 9.06306e-08)
(3.40398e-06 0 8.30242e-08)
(3.29881e-06 0 8.46841e-08)
(3.19029e-06 0 8.76775e-08)
(3.07932e-06 0 8.29947e-08)
(2.97909e-06 0 7.50196e-08)
(2.88055e-06 0 8.85976e-08)
(2.75685e-06 0 1.09031e-07)
(2.62155e-06 0 1.15802e-07)
(2.47716e-06 0 1.23411e-07)
(2.336e-06 0 1.10292e-07)
(2.22311e-06 0 9.65787e-08)
(2.11972e-06 0 8.64726e-08)
(2.03367e-06 0 7.36738e-08)
(1.93138e-06 0 6.95091e-08)
(1.8734e-06 0 5.793e-08)
(1.79688e-06 0 4.11492e-08)
(1.77487e-06 0 3.25139e-09)
(1.77765e-06 0 -1.0543e-08)
(1.78162e-06 0 -4.68601e-09)
(1.77371e-06 0 2.10238e-08)
(1.72529e-06 0 3.86413e-08)
(1.69724e-06 0 2.43661e-08)
(1.65985e-06 0 3.06082e-08)
(1.64866e-06 0 -1.95533e-08)
(1.67911e-06 0 9.39061e-09)
(1.61409e-06 0 6.35387e-08)
(1.53454e-06 0 6.12721e-08)
(1.45912e-06 0 5.71162e-08)
(1.41636e-06 0 2.71417e-08)
(1.39597e-06 0 4.65475e-08)
(1.33236e-06 0 3.9161e-08)
(1.32266e-06 0 1.81535e-09)
(1.33264e-06 0 -2.53057e-08)
(1.41796e-06 0 -9.63608e-08)
(1.46046e-06 0 -3.35264e-08)
(1.49926e-06 0 -6.29023e-08)
(1.55726e-06 0 9.46906e-10)
(1.53424e-06 0 5.75386e-09)
(1.51935e-06 0 7.66134e-08)
(1.43159e-06 0 3.1078e-08)
(1.5121e-06 0 -7.50192e-08)
(1.54165e-06 0 4.4848e-08)
(1.49667e-06 0 -6.80262e-08)
(1.64953e-06 0 -1.33273e-07)
(1.69036e-06 0 2.62504e-08)
(1.69015e-06 0 -1.79225e-08)
(1.61293e-06 0 -7.6865e-09)
(1.62241e-06 0 -3.33373e-08)
(1.59973e-06 0 1.42267e-07)
(1.45457e-06 0 9.81425e-08)
(1.59238e-06 0 -3.09798e-08)
(1.72141e-06 0 5.28274e-08)
(1.49412e-06 0 -2.64939e-07)
(2.66901e-06 0 -3.51261e-07)
(2.2181e-06 0 1.14599e-07)
(2.17536e-06 0 2.26223e-08)
(2.10671e-06 0 1.02403e-07)
(1.95294e-06 0 1.17833e-07)
(1.78765e-06 0 1.1227e-07)
(1.59937e-06 0 1.36881e-07)
(1.35271e-06 0 2.00707e-07)
(1.05489e-06 0 2.54003e-07)
(7.30909e-07 0 2.74089e-07)
(3.87858e-07 0 2.78639e-07)
(4.28687e-08 0 2.62306e-07)
(-2.64447e-07 0 2.11102e-07)
(-5.11584e-07 0 1.52543e-07)
(-7.15941e-07 0 1.26452e-07)
(-9.13614e-07 0 1.35003e-07)
(-1.12037e-06 0 1.47649e-07)
(-1.31998e-06 0 1.3806e-07)
(-1.48562e-06 0 1.07662e-07)
(-1.60792e-06 0 7.45219e-08)
(-1.69942e-06 0 5.51199e-08)
(-1.78248e-06 0 5.53446e-08)
(-1.8814e-06 0 7.42097e-08)
(-2.01483e-06 0 1.0549e-07)
(-2.18858e-06 0 1.40871e-07)
(-2.39713e-06 0 1.70233e-07)
(-2.62945e-06 0 1.8871e-07)
(-2.87118e-06 0 1.95948e-07)
(-3.10664e-06 0 1.90818e-07)
(-3.31689e-06 0 1.69144e-07)
(-3.48134e-06 0 1.26972e-07)
(-3.57518e-06 0 5.87876e-08)
(-3.56418e-06 0 -2.96645e-08)
(-3.45785e-06 0 -1.31812e-07)
(-3.25106e-06 0 -2.2184e-07)
(-2.9424e-06 0 -2.92223e-07)
(-2.57493e-06 0 -3.35049e-07)
(-2.1707e-06 0 -3.50162e-07)
(-1.75392e-06 0 -3.44792e-07)
(-1.34511e-06 0 -3.26127e-07)
(-9.59963e-07 0 -2.98261e-07)
(-6.11664e-07 0 -2.57615e-07)
(-3.13789e-07 0 -2.03891e-07)
(-9.20187e-08 0 -1.35802e-07)
(3.72593e-08 0 -6.26826e-08)
(8.35537e-08 0 -9.04427e-10)
(8.04904e-08 0 3.68103e-08)
(6.60116e-08 0 3.68306e-08)
(6.86939e-08 0 1.41814e-09)
(1.26707e-07 0 -6.19771e-08)
(2.7331e-07 0 -1.44035e-07)
(5.16137e-07 0 -2.28114e-07)
(8.3409e-07 0 -2.80089e-07)
(1.16189e-06 0 -2.58995e-07)
(1.42101e-06 0 -1.49099e-07)
(1.52929e-06 0 -1.43145e-08)
(1.52473e-06 0 6.27686e-08)
(1.54144e-06 0 -1.75929e-08)
(1.70887e-06 0 -2.06935e-07)
(2.01481e-06 0 -3.09234e-07)
(2.25892e-06 0 -1.81208e-07)
(2.23147e-06 0 1.64866e-07)
(1.87382e-06 0 4.2835e-07)
(1.45167e-06 0 3.9077e-07)
(1.27516e-06 0 8.57122e-08)
(1.32724e-06 0 -7.7056e-08)
(1.28354e-06 0 1.31555e-07)
(9.23302e-07 0 4.41417e-07)
(4.46956e-07 0 3.76863e-07)
(3.48148e-07 0 -7.4436e-08)
(6.59335e-07 0 -2.97499e-07)
(8.31159e-07 0 -7.84391e-08)
(7.54017e-07 0 7.35227e-08)
(9.13616e-07 0 -3.25676e-07)
(1.48359e-06 0 -6.54225e-07)
(1.88485e-06 0 -2.22368e-07)
(1.78131e-06 0 1.97688e-07)
(1.63089e-06 0 6.51017e-08)
(1.41332e-06 0 3.79589e-07)
(9.51755e-07 0 4.43797e-07)
(3.55741e-07 0 4.15272e-07)
(-0.0182094 0 -0.000422317)
(-0.0339083 0 -0.000416328)
(-0.030995 0 -0.000436874)
(-0.0309137 0 -0.00051373)
(-0.0306669 0 -0.000547564)
(-0.0304442 0 -0.000577428)
(-0.0301972 0 -0.000619369)
(-0.0299311 0 -0.000664924)
(-0.0296474 0 -0.000707273)
(-0.029349 0 -0.00074424)
(-0.0290375 0 -0.000775794)
(-0.0287122 0 -0.000803285)
(-0.0283737 0 -0.000828918)
(-0.0280241 0 -0.000850124)
(-0.0276649 0 -0.00086851)
(-0.027297 0 -0.000886642)
(-0.0269208 0 -0.000903143)
(-0.0265362 0 -0.000921608)
(-0.0261437 0 -0.000939292)
(-0.025744 0 -0.000955286)
(-0.0253379 0 -0.000969976)
(-0.0249264 0 -0.000982039)
(-0.0245102 0 -0.000990767)
(-0.0240895 0 -0.000997071)
(-0.0236648 0 -0.00100203)
(-0.0232372 0 -0.0010054)
(-0.0228073 0 -0.00100731)
(-0.0223757 0 -0.00100758)
(-0.0219424 0 -0.00100594)
(-0.0215079 0 -0.0010031)
(-0.0210725 0 -0.00100054)
(-0.0206365 0 -0.000996862)
(-0.0202005 0 -0.000992763)
(-0.0197652 0 -0.000987812)
(-0.0193312 0 -0.00098113)
(-0.0188991 0 -0.00097282)
(-0.0184687 0 -0.000966174)
(-0.0180399 0 -0.000962314)
(-0.0176129 0 -0.000957889)
(-0.0171871 0 -0.000955181)
(-0.016763 0 -0.000952671)
(-0.0163415 0 -0.000948512)
(-0.0159238 0 -0.000946992)
(-0.0155116 0 -0.000944089)
(-0.0151055 0 -0.000939876)
(-0.0147059 0 -0.000935251)
(-0.0143131 0 -0.000930967)
(-0.0139271 0 -0.000925958)
(-0.0135472 0 -0.000920481)
(-0.0131725 0 -0.000914661)
(-0.012802 0 -0.000907485)
(-0.0124348 0 -0.00090045)
(-0.0120702 0 -0.000892351)
(-0.0117079 0 -0.000882596)
(-0.0113478 0 -0.000871783)
(-0.0109903 0 -0.000858997)
(-0.0106362 0 -0.000845471)
(-0.010286 0 -0.000831751)
(-0.00994096 0 -0.000817348)
(-0.00960239 0 -0.00080132)
(-0.00927072 0 -0.00078566)
(-0.00894614 0 -0.000769853)
(-0.00862855 0 -0.000754456)
(-0.00831761 0 -0.000740113)
(-0.0080127 0 -0.000727279)
(-0.00771288 0 -0.000715975)
(-0.00741725 0 -0.000706612)
(-0.00712505 0 -0.000699371)
(-0.00683563 0 -0.000693952)
(-0.00654837 0 -0.000690921)
(-0.00626247 0 -0.0006921)
(-0.00597686 0 -0.000700103)
(-0.0056909 0 -0.000718897)
(-0.00540377 0 -0.000755947)
(-0.00511836 0 -0.000819373)
(-0.00484772 0 -0.000926716)
(-0.00463184 0 -0.00111258)
(-0.00456961 0 -0.00143746)
(-0.00449775 0 -0.0015342)
(-0.00409434 0 -0.00101741)
(-0.00398398 0 -0.000789762)
(-0.00180468 0 -0.000257558)
(-0.00194384 0 -0.000215927)
(-0.00164258 0 -9.96636e-05)
(-0.00157192 0 -3.93311e-05)
(-0.00156479 0 -0.000174502)
(-0.00145592 0 -0.000201983)
(-0.00138698 0 -0.000158852)
(-0.00131459 0 -0.000130927)
(-0.00125729 0 -0.000136288)
(-0.00120678 0 -0.000137669)
(-0.00114612 0 -0.000137469)
(-0.00110175 0 -0.000128426)
(-0.00104607 0 -0.000129247)
(-0.000989806 0 -0.000123756)
(-0.000937542 0 -0.000124397)
(-0.000886897 0 -0.000122577)
(-0.000836545 0 -0.000121119)
(-0.000789722 0 -0.000114717)
(-0.000739421 0 -0.000111982)
(-0.000696309 0 -0.000112768)
(-0.00064992 0 -0.000109187)
(-0.000609718 0 -0.000107121)
(-0.000565874 0 -0.000104731)
(-0.000527919 0 -0.000105702)
(-0.000486529 0 -0.000102768)
(-0.000447856 0 -9.59076e-05)
(-0.00040902 0 -9.27421e-05)
(-0.000370768 0 -8.85866e-05)
(-0.000332496 0 -8.54017e-05)
(-0.000296566 0 -8.2012e-05)
(-0.000262524 0 -7.88998e-05)
(-0.000229 0 -7.4887e-05)
(-0.000197263 0 -7.02233e-05)
(-0.000165809 0 -6.37046e-05)
(-0.000135785 0 -5.84371e-05)
(-0.000106539 0 -4.35326e-05)
(-7.15967e-05 0 -4.00206e-05)
(-5.35432e-05 0 -4.9334e-05)
(-2.13998e-05 0 -4.8919e-05)
(-2.95071e-05 0 -5.3655e-05)
(5.47666e-07 0 -5.56784e-05)
(1.4536e-05 0 -6.50764e-05)
(4.09374e-05 0 -6.4718e-05)
(6.33726e-05 0 -5.3885e-05)
(8.70265e-05 0 -5.15908e-05)
(0.000112582 0 -4.8897e-05)
(0.000134855 0 -4.66865e-05)
(0.00015501 0 -4.54709e-05)
(0.000174918 0 -4.35563e-05)
(0.000193515 0 -4.1024e-05)
(0.000211213 0 -3.89791e-05)
(0.000228151 0 -3.68505e-05)
(0.000244038 0 -3.4793e-05)
(0.000258995 0 -3.2963e-05)
(0.000273163 0 -3.12352e-05)
(0.000286571 0 -2.94744e-05)
(0.000299233 0 -2.76679e-05)
(0.000311174 0 -2.60013e-05)
(0.000322464 0 -2.44784e-05)
(0.000333116 0 -2.30389e-05)
(0.00034316 0 -2.15873e-05)
(0.000352599 0 -2.01512e-05)
(0.000361456 0 -1.88334e-05)
(0.000369773 0 -1.75923e-05)
(0.000377582 0 -1.63309e-05)
(0.000384876 0 -1.51083e-05)
(0.000391667 0 -1.40113e-05)
(0.000397994 0 -1.29836e-05)
(0.000403865 0 -1.1948e-05)
(0.000409272 0 -1.09271e-05)
(0.000414238 0 -9.98514e-06)
(0.000418795 0 -9.05908e-06)
(0.000422944 0 -8.12432e-06)
(0.000426685 0 -7.23585e-06)
(0.000430048 0 -6.41248e-06)
(0.000433061 0 -5.60298e-06)
(0.000435725 0 -4.80836e-06)
(0.000438035 0 -4.05138e-06)
(0.000440003 0 -3.30145e-06)
(0.000441643 0 -2.53939e-06)
(0.00044296 0 -1.82821e-06)
(0.000443958 0 -1.19122e-06)
(0.000444656 0 -5.73921e-07)
(0.000445083 0 5.64631e-08)
(0.000445264 0 6.60759e-07)
(0.000445204 0 1.19292e-06)
(0.000444909 0 1.68794e-06)
(0.000444385 0 2.20583e-06)
(0.000443633 0 2.73459e-06)
(0.000442656 0 3.19369e-06)
(0.000441473 0 3.58606e-06)
(0.000440098 0 3.99832e-06)
(0.000438538 0 4.42686e-06)
(0.000436807 0 4.79826e-06)
(0.000434923 0 5.12123e-06)
(0.000432896 0 5.46099e-06)
(0.000430723 0 5.80907e-06)
(0.000428405 0 6.11531e-06)
(0.000425958 0 6.39253e-06)
(0.000423391 0 6.68328e-06)
(0.0004207 0 6.96874e-06)
(0.00041789 0 7.20624e-06)
(0.000414979 0 7.41257e-06)
(0.000411975 0 7.63253e-06)
(0.000408873 0 7.86252e-06)
(0.000405673 0 8.06847e-06)
(0.000402387 0 8.25005e-06)
(0.00039902 0 8.43568e-06)
(0.000395564 0 8.62973e-06)
(0.000392011 0 8.80658e-06)
(0.000388371 0 8.95042e-06)
(0.000384661 0 9.07427e-06)
(0.000380891 0 9.20036e-06)
(0.000377065 0 9.32911e-06)
(0.000373194 0 9.44376e-06)
(0.000369287 0 9.54478e-06)
(0.000365339 0 9.64579e-06)
(0.00036134 0 9.74418e-06)
(0.000357291 0 9.83027e-06)
(0.000353206 0 9.90636e-06)
(0.00034909 0 9.97485e-06)
(0.000344948 0 1.003e-05)
(0.000340789 0 1.00715e-05)
(0.00033662 0 1.01008e-05)
(0.000332447 0 1.01107e-05)
(0.000328273 0 1.01001e-05)
(0.000324099 0 1.00815e-05)
(0.000319921 0 1.00559e-05)
(0.000315735 0 1.00119e-05)
(0.000311547 0 9.96275e-06)
(0.000307362 0 9.94032e-06)
(0.000303178 0 9.94436e-06)
(0.000298996 0 9.94177e-06)
(0.000294826 0 9.92375e-06)
(0.000290673 0 9.91233e-06)
(0.000286536 0 9.90667e-06)
(0.000282413 0 9.87605e-06)
(0.000278307 0 9.81379e-06)
(0.000274219 0 9.7521e-06)
(0.000270142 0 9.70722e-06)
(0.000266072 0 9.65774e-06)
(0.000262016 0 9.59166e-06)
(0.00025798 0 9.52953e-06)
(0.00025397 0 9.48466e-06)
(0.000249986 0 9.435e-06)
(0.000246034 0 9.35768e-06)
(0.000242116 0 9.26351e-06)
(0.000238231 0 9.17339e-06)
(0.000234374 0 9.08718e-06)
(0.000230543 0 8.99543e-06)
(0.000226739 0 8.90041e-06)
(0.000222965 0 8.80758e-06)
(0.000219225 0 8.71299e-06)
(0.000215528 0 8.61413e-06)
(0.00021188 0 8.51915e-06)
(0.000208286 0 8.43387e-06)
(0.00020474 0 8.34863e-06)
(0.000201239 0 8.25076e-06)
(0.000197777 0 8.14202e-06)
(0.000194348 0 8.03508e-06)
(0.000190948 0 7.93778e-06)
(0.000187577 0 7.85089e-06)
(0.000184237 0 7.77456e-06)
(0.000180927 0 7.70773e-06)
(0.00017764 0 7.64027e-06)
(0.000174378 0 7.55907e-06)
(0.000171149 0 7.46531e-06)
(0.000167968 0 7.37567e-06)
(0.000164839 0 7.29964e-06)
(0.000161757 0 7.22218e-06)
(0.000158716 0 7.12028e-06)
(0.000155718 0 6.99496e-06)
(0.000152768 0 6.87413e-06)
(0.000149866 0 6.77791e-06)
(0.000147005 0 6.6904e-06)
(0.000144175 0 6.57921e-06)
(0.000141375 0 6.43859e-06)
(0.000138612 0 6.29822e-06)
(0.000135888 0 6.18772e-06)
(0.000133202 0 6.10779e-06)
(0.000130554 0 6.03899e-06)
(0.000127949 0 5.97065e-06)
(0.00012539 0 5.9053e-06)
(0.000122873 0 5.84139e-06)
(0.000120395 0 5.76972e-06)
(0.000117957 0 5.68793e-06)
(0.00011556 0 5.60132e-06)
(0.000113203 0 5.50773e-06)
(0.000110882 0 5.39852e-06)
(0.000108595 0 5.27806e-06)
(0.000106341 0 5.16566e-06)
(0.000104118 0 5.07145e-06)
(0.000101925 0 4.9904e-06)
(9.97651e-05 0 4.91596e-06)
(9.7638e-05 0 4.84942e-06)
(9.55422e-05 0 4.79225e-06)
(9.34766e-05 0 4.74002e-06)
(9.14438e-05 0 4.68924e-06)
(8.94473e-05 0 4.64184e-06)
(8.74871e-05 0 4.5966e-06)
(8.55603e-05 0 4.54192e-06)
(8.3665e-05 0 4.46536e-06)
(8.18027e-05 0 4.36786e-06)
(7.99761e-05 0 4.2605e-06)
(7.81862e-05 0 4.15275e-06)
(7.64333e-05 0 4.04523e-06)
(7.47189e-05 0 3.93416e-06)
(7.30462e-05 0 3.82004e-06)
(7.1417e-05 0 3.70895e-06)
(6.98308e-05 0 3.6073e-06)
(6.82861e-05 0 3.51953e-06)
(6.67804e-05 0 3.44321e-06)
(6.53116e-05 0 3.38246e-06)
(6.38782e-05 0 3.33743e-06)
(6.24779e-05 0 3.30264e-06)
(6.11078e-05 0 3.26851e-06)
(5.97648e-05 0 3.22747e-06)
(5.84473e-05 0 3.17812e-06)
(5.71543e-05 0 3.12373e-06)
(5.58858e-05 0 3.06679e-06)
(5.46421e-05 0 3.0052e-06)
(5.34238e-05 0 2.93382e-06)
(5.22316e-05 0 2.84896e-06)
(5.10662e-05 0 2.7518e-06)
(4.99279e-05 0 2.64831e-06)
(4.88164e-05 0 2.54607e-06)
(4.77307e-05 0 2.45159e-06)
(4.66691e-05 0 2.36885e-06)
(4.56298e-05 0 2.29986e-06)
(4.46114e-05 0 2.2452e-06)
(4.3613e-05 0 2.2031e-06)
(4.26345e-05 0 2.17111e-06)
(4.16765e-05 0 2.14488e-06)
(4.07397e-05 0 2.11905e-06)
(3.98247e-05 0 2.08834e-06)
(3.89327e-05 0 2.04818e-06)
(3.80655e-05 0 1.99579e-06)
(3.72257e-05 0 1.93168e-06)
(3.64157e-05 0 1.8601e-06)
(3.56356e-05 0 1.78703e-06)
(3.4882e-05 0 1.71595e-06)
(3.41483e-05 0 1.64684e-06)
(3.34286e-05 0 1.57886e-06)
(3.27212e-05 0 1.51703e-06)
(3.20285e-05 0 1.47375e-06)
(3.13528e-05 0 1.46002e-06)
(3.06922e-05 0 1.46943e-06)
(3.00407e-05 0 1.48075e-06)
(2.93969e-05 0 1.47356e-06)
(2.87667e-05 0 1.44563e-06)
(2.8158e-05 0 1.40765e-06)
(2.75727e-05 0 1.3633e-06)
(2.70061e-05 0 1.30118e-06)
(2.64564e-05 0 1.21325e-06)
(2.59277e-05 0 1.11587e-06)
(2.54227e-05 0 1.04238e-06)
(2.49357e-05 0 1.00789e-06)
(2.44556e-05 0 9.94926e-07)
(2.39772e-05 0 9.85132e-07)
(2.35048e-05 0 9.81602e-07)
(2.30424e-05 0 9.96797e-07)
(2.2588e-05 0 1.02597e-06)
(2.21374e-05 0 1.046e-06)
(2.16918e-05 0 1.04232e-06)
(2.12553e-05 0 1.02163e-06)
(2.08286e-05 0 9.93529e-07)
(2.041e-05 0 9.55881e-07)
(1.99998e-05 0 9.08606e-07)
(1.95982e-05 0 8.65128e-07)
(1.92023e-05 0 8.38174e-07)
(1.88093e-05 0 8.27412e-07)
(1.84195e-05 0 8.30095e-07)
(1.80329e-05 0 8.49258e-07)
(1.76474e-05 0 8.80788e-07)
(1.72625e-05 0 9.05577e-07)
(1.68833e-05 0 9.06329e-07)
(1.65172e-05 0 8.8474e-07)
(1.61662e-05 0 8.52608e-07)
(1.58263e-05 0 8.15304e-07)
(1.54922e-05 0 7.73099e-07)
(1.51615e-05 0 7.34272e-07)
(1.4833e-05 0 7.13914e-07)
(1.45043e-05 0 7.19873e-07)
(1.41732e-05 0 7.44642e-07)
(1.38404e-05 0 7.73649e-07)
(1.35089e-05 0 7.96166e-07)
(1.31824e-05 0 8.06795e-07)
(1.2863e-05 0 8.00768e-07)
(1.25521e-05 0 7.74526e-07)
(1.22507e-05 0 7.31354e-07)
(1.19597e-05 0 6.83628e-07)
(1.16786e-05 0 6.46013e-07)
(1.14044e-05 0 6.25649e-07)
(1.11333e-05 0 6.17903e-07)
(1.08651e-05 0 6.12761e-07)
(1.0604e-05 0 6.0596e-07)
(1.03547e-05 0 5.99223e-07)
(1.01171e-05 0 5.87923e-07)
(9.88868e-06 0 5.59193e-07)
(9.66928e-06 0 5.09613e-07)
(9.45797e-06 0 4.55074e-07)
(9.24975e-06 0 4.18488e-07)
(9.0391e-06 0 4.10055e-07)
(8.82463e-06 0 4.2616e-07)
(8.60952e-06 0 4.5512e-07)
(8.39821e-06 0 4.79626e-07)
(8.19546e-06 0 4.84586e-07)
(8.005e-06 0 4.67169e-07)
(7.82587e-06 0 4.35368e-07)
(7.65275e-06 0 4.01109e-07)
(7.47831e-06 0 3.78807e-07)
(7.29603e-06 0 3.80918e-07)
(7.10363e-06 0 4.07637e-07)
(6.90365e-06 0 4.48456e-07)
(6.70077e-06 0 4.89549e-07)
(6.50077e-06 0 5.1647e-07)
(6.30818e-06 0 5.16129e-07)
(6.123e-06 0 4.84335e-07)
(5.94202e-06 0 4.34119e-07)
(5.76194e-06 0 3.9225e-07)
(5.57944e-06 0 3.77894e-07)
(5.39384e-06 0 3.83117e-07)
(5.21288e-06 0 3.86e-07)
(5.0462e-06 0 3.85221e-07)
(4.89186e-06 0 3.81554e-07)
(4.74172e-06 0 3.60202e-07)
(4.5898e-06 0 3.28017e-07)
(4.43285e-06 0 3.0923e-07)
(4.27488e-06 0 3.12203e-07)
(4.12127e-06 0 3.29021e-07)
(3.97487e-06 0 3.41666e-07)
(3.83818e-06 0 3.31358e-07)
(3.71396e-06 0 3.0139e-07)
(3.59875e-06 0 2.75257e-07)
(3.48378e-06 0 2.60249e-07)
(3.3655e-06 0 2.48812e-07)
(3.24614e-06 0 2.49902e-07)
(3.12799e-06 0 2.54761e-07)
(3.00836e-06 0 2.50234e-07)
(2.89524e-06 0 2.33091e-07)
(2.78822e-06 0 2.57978e-07)
(2.68009e-06 0 2.9577e-07)
(2.57227e-06 0 3.16714e-07)
(2.44914e-06 0 3.23145e-07)
(2.33782e-06 0 2.75727e-07)
(2.22991e-06 0 2.24307e-07)
(2.18911e-06 0 2.04368e-07)
(2.10942e-06 0 1.93767e-07)
(2.03377e-06 0 1.96909e-07)
(1.95022e-06 0 1.55078e-07)
(1.88098e-06 0 1.05751e-07)
(1.84048e-06 0 2.05462e-08)
(1.80263e-06 0 4.55364e-09)
(1.77235e-06 0 6.80566e-09)
(1.74377e-06 0 6.4077e-08)
(1.70564e-06 0 8.97179e-08)
(1.67648e-06 0 5.65259e-08)
(1.63871e-06 0 6.23946e-08)
(1.61681e-06 0 -3.10746e-08)
(1.60678e-06 0 3.60126e-08)
(1.5499e-06 0 1.73894e-07)
(1.4969e-06 0 1.52996e-07)
(1.45475e-06 0 1.37535e-07)
(1.42789e-06 0 3.51584e-08)
(1.44284e-06 0 7.62914e-08)
(1.42042e-06 0 6.91662e-08)
(1.4215e-06 0 -3.95022e-08)
(1.43827e-06 0 -8.41707e-08)
(1.45678e-06 0 -1.75303e-07)
(1.41444e-06 0 -1.98147e-08)
(1.4075e-06 0 -1.63103e-07)
(1.48664e-06 0 -1.73143e-08)
(1.4758e-06 0 1.88984e-08)
(1.4683e-06 0 6.70758e-08)
(1.54534e-06 0 -3.3989e-10)
(1.55469e-06 0 -1.70553e-07)
(1.5947e-06 0 2.44949e-08)
(1.64496e-06 0 -1.33312e-07)
(1.54839e-06 0 -2.00896e-07)
(1.55692e-06 0 -5.76433e-08)
(1.64183e-06 0 5.42925e-08)
(1.44949e-06 0 2.83264e-07)
(1.46906e-06 0 -7.83684e-08)
(1.77533e-06 0 1.73333e-07)
(1.58076e-06 0 -1.60542e-07)
(2.8101e-06 0 -5.59423e-07)
(2.69024e-06 0 -1.14851e-07)
(2.7919e-06 0 -9.49795e-07)
(2.60316e-06 0 -7.45877e-08)
(2.41086e-06 0 1.75877e-07)
(2.3896e-06 0 3.93893e-08)
(2.29526e-06 0 3.18319e-07)
(2.14141e-06 0 3.82706e-07)
(1.94178e-06 0 4.17253e-07)
(1.67759e-06 0 5.43932e-07)
(1.38663e-06 0 6.37997e-07)
(1.13866e-06 0 6.61984e-07)
(9.27299e-07 0 6.94044e-07)
(7.04829e-07 0 7.38157e-07)
(4.67708e-07 0 7.14588e-07)
(2.36126e-07 0 6.06523e-07)
(3.86721e-09 0 5.0257e-07)
(-2.43689e-07 0 4.71249e-07)
(-4.97974e-07 0 4.88098e-07)
(-7.32488e-07 0 4.81562e-07)