0 	1.000003
0.006666667 	1.000003
0.01333333 	1.000003
0.02 	1.000004
0.02666667 	1.000004
0.03333333 	1.000004
0.04 	1.000004
0.04666667 	1.000004
0.05333333 	1.000004
0.06 	1.000004
0.06666667 	1.000004
0.07333333 	1.000004
0.08 	1.000004
0.08666667 	1.000004
0.09333333 	1.000003
0.1 	1.000003
0.1066667 	1.000003
0.1133333 	1.000003
0.12 	1.000004
0.1266667 	1.000004
0.1333333 	1.000004
0.14 	1.000004
0.1466667 	1.000004
0.1533333 	1.000004
0.16 	1.000004
0.1666667 	1.000004
0.1733333 	1.000004
0.18 	1.000004
0.1866667 	1.000003
0.1933333 	1.000003
0.2 	1.000003
0.2066667 	1.000003
0.2133333 	1.000003
0.22 	1.000003
0.2266667 	1.000003
0.2333333 	1.000003
0.24 	1.000003
0.2466667 	1.000004
0.2533333 	1.000004
0.26 	1.000004
0.2666667 	1.000004
0.2733333 	1.000004
0.28 	1.000004
0.2866667 	1.000004
0.2933333 	1.000004
0.3 	1.000004
0.3066667 	1.000003
0.3133333 	1.000003
0.32 	1.000003
0.3266667 	1.000003
0.3333333 	1.000002
0.34 	1.000003
0.3466667 	1.000003
0.3533333 	1.000003
0.36 	1.000004
0.3666667 	1.000004
0.3733333 	1.000004
0.38 	1.000004
0.3866667 	1.000004
0.3933333 	1.000004
0.4 	1.000004
0.4066667 	1.000004
0.4133333 	1.000003
0.42 	1.000003
0.4266667 	1.000003
0.4333333 	1.000002
0.44 	1.000002
0.4466667 	1.000002
0.4533333 	1.000002
0.46 	1.000003
0.4666667 	1.000003
0.4733333 	1.000003
0.48 	1.000002
0.4866667 	1.000002
0.4933333 	1.000002
0.5 	1.000002
0.5066667 	1.000002
0.5133333 	1.000002
0.52 	1.000002
0.5266667 	1.000001
0.5333333 	1.000001
0.54 	1.000001
0.5466667 	1.000002
0.5533333 	1.000002
0.56 	1.000002
0.5666667 	1.000002
0.5733333 	1.000002
0.58 	1.000002
0.5866667 	1.000002
0.5933333 	1.000002
0.6 	1.000002
0.6066667 	1.000001
0.6133333 	1.000001
0.62 	1.000001
0.6266667 	1.000001
0.6333333 	1.000001
0.64 	1.000001
0.6466667 	1.000001
0.6533333 	1.000001
0.66 	1.000001
0.6666667 	1.000001
0.6733333 	1.000001
0.68 	1.000001
0.6866667 	1.000001
0.6933333 	1.000001
0.7 	1.000001
0.7066667 	1.000001
0.7133333 	1.000001
0.72 	1.000001
0.7266667 	1.000001
0.7333333 	1.000001
0.74 	1.000001
0.7466667 	1.000001
0.7533333 	1.000001
0.76 	1
0.7666667 	1
0.7733333 	0.9999995
0.78 	0.9999986
0.7866667 	0.9999977
0.7933333 	0.9999969
0.8 	0.999996
0.8066667 	0.9976884
0.8133333 	0.9953808
0.82 	0.9930733
0.8266667 	0.9907657
0.8333333 	0.9884581
0.84 	0.9027197
0.8466667 	0.8169813
0.8533333 	0.7312429
0.86 	0.6455045
0.8666667 	0.5597661
0.8733333 	0.4621814
0.88 	0.3645967
0.8866667 	0.267012
0.8933333 	0.1694273
0.9 	0.07184266
0.9066667 	0.05758188
0.9133333 	0.04332111
0.92 	0.02906034
0.9266667 	0.01479957
0.9333333 	0.0005388016
0.94 	0.0004310676
0.9466667 	0.0003233336
0.9533333 	0.0002155997
0.96 	0.0001078657
0.9666667 	1.317712e-07
0.9733333 	1.054169e-07
0.98 	7.906312e-08
0.9866667 	5.270933e-08
0.9933333 	2.635554e-08
1 	1.754433e-12
1.006667 	1.40355e-12
1.013333 	1.052667e-12
1.02 	7.017847e-13
1.026667 	3.509019e-13
1.033333 	1.916989e-17
1.04 	1.533595e-17
1.046667 	1.150201e-17
1.053333 	7.668064e-18
1.06 	3.834121e-18
1.066667 	1.784432e-22
1.073333 	1.426015e-22
1.08 	1.069515e-22
1.086667 	7.130145e-23
1.093333 	3.565143e-23
1.1 	1.409759e-27
1.106667 	1.127809e-27
1.113333 	8.458591e-28
1.12 	5.639093e-28
1.126667 	2.819595e-28
1.133333 	9.650365e-33
1.14 	7.720304e-33
1.146667 	5.790242e-33
1.153333 	3.860181e-33
1.16 	1.930119e-33
1.166667 	5.815011e-38
1.173333 	4.644295e-38
1.18 	3.483229e-38
1.186667 	2.322163e-38
1.193333 	1.161097e-38
1.2 	3.108394e-43
1.206667 	2.486718e-43
1.213333 	1.865042e-43
1.22 	1.243366e-43
1.226667 	6.216907e-44
1.233333 	1.498413e-48
1.24 	1.198732e-48
1.246667 	8.990507e-49
1.253333 	5.993693e-49
1.26 	2.996879e-49
1.266667 	6.576882e-54
1.273333 	5.249524e-54
1.28 	3.937149e-54
1.286667 	2.624775e-54
1.293333 	1.312401e-54
1.3 	2.63139e-59
1.306667 	2.105114e-59
1.313333 	1.578838e-59
1.32 	1.052562e-59
1.326667 	5.262857e-60
1.333333 	9.712598e-65
1.34 	7.770085e-65
1.346667 	5.827572e-65
1.353333 	3.885059e-65
1.36 	1.942546e-65
1.366667 	3.326797e-70
1.373333 	2.65367e-70
1.38 	1.990255e-70
1.386667 	1.32684e-70
1.393333 	6.634254e-71
1.4 	1.051102e-75
1.406667 	8.40882e-76
1.413333 	6.306623e-76
1.42 	4.204425e-76
1.426667 	2.102228e-76
1.433333 	3.097259e-81
1.44 	2.477809e-81
1.446667 	1.858359e-81
1.453333 	1.238909e-81
1.46 	6.194587e-82
1.466667 	8.54609e-87
1.473333 	6.812098e-87
1.48 	5.109079e-87
1.486667 	3.40606e-87
1.493333 	1.703041e-87
1.5 	2.186056e-92
1.506667 	1.748846e-92
1.513333 	1.311636e-92
1.52 	8.744257e-93
1.526667 	4.372155e-93
1.533333 	5.253266e-98
1.54 	4.202615e-98
1.546667 	3.151965e-98
1.553333 	2.101314e-98
1.56 	1.050663e-98
1.566667 	1.190728e-103
1.573333 	9.483806e-104
1.58 	7.112861e-104
1.586667 	4.741916e-104
1.593333 	2.37097e-104
1.6 	2.516103e-109
1.606667 	2.012883e-109
1.613333 	1.509663e-109
1.62 	1.006444e-109
1.626667 	5.032245e-110
1.633333 	5.037303e-115
1.64 	4.029844e-115
1.646667 	3.022385e-115
1.653333 	2.014927e-115
1.66 	1.007468e-115
1.666667 	9.599974e-121
1.673333 	7.639684e-121
1.68 	5.729767e-121
1.686667 	3.819851e-121
1.693333 	1.909934e-121
1.7 	1.718631e-126
1.706667 	1.374905e-126
1.713333 	1.03118e-126
1.72 	6.874542e-127
1.726667 	3.437285e-127
1.733333 	2.94459e-132
1.74 	2.355673e-132
1.746667 	1.766756e-132
1.753333 	1.177839e-132
1.76 	5.889219e-133
1.766667 	4.849191e-138
1.773333 	3.855797e-138
1.78 	2.89185e-138
1.786667 	1.927902e-138
1.793333 	9.63955e-139
1.8 	7.557669e-144
1.806667 	6.046138e-144
1.813333 	4.534607e-144
1.82 	3.023076e-144
1.826667 	1.511546e-144
1.833333 	1.505783e-149
1.84 	1.20721e-149
1.846667 	9.086371e-150
1.853333 	6.10064e-150
1.86 	3.114909e-150
1.866667 	1.291781e-151
1.873333 	1.036399e-151
1.88 	7.81018e-152
1.886667 	5.256373e-152
1.893333 	2.702567e-152
1.9 	1.487604e-153
1.906667 	1.192886e-153
1.913333 	8.981682e-154
1.92 	6.034504e-154
1.926667 	3.087325e-154
1.933333 	1.401465e-155
1.94 	1.123312e-155
1.946667 	8.45159e-156
1.953333 	5.670062e-156
1.96 	2.888535e-156
1.966667 	1.070071e-157
1.973333 	8.588668e-158
1.98 	6.476637e-158
1.986667 	4.364605e-158
1.993333 	2.252574e-158
2 	1.405428e-159
