/*--------------------------------*- C++ -*----------------------------------*\
| =========                 |                                                 |
| \\      /  F ield         | OpenFOAM: The Open Source CFD Toolbox           |
|  \\    /   O peration     | Version:  v2006                                 |
|   \\  /    A nd           | Website:  www.openfoam.com                      |
|    \\/     M anipulation  |                                                 |
\*---------------------------------------------------------------------------*/
FoamFile
{
    version     2.0;
    format      ascii;
    class       volScalarField;
    location    "8.1";
    object      k;
}
// * * * * * * * * * * * * * * * * * * * * * * * * * * * * * * * * * * * * * //

dimensions      [0 2 -2 0 0 0 0];


internalField   nonuniform List<scalar> 
33000
(
3.06596e-08
3.25507e-08
3.31245e-08
3.21992e-08
2.99945e-08
2.72197e-08
2.49573e-08
2.36739e-08
2.32506e-08
2.33384e-08
2.36146e-08
2.4036e-08
2.47399e-08
2.58664e-08
2.78308e-08
3.15529e-08
3.7815e-08
4.87117e-08
6.0667e-08
7.41651e-08
8.77165e-08
1.01884e-07
1.18241e-07
1.39245e-07
1.6569e-07
1.95663e-07
2.25977e-07
2.5184e-07
2.64907e-07
2.61099e-07
2.47033e-07
2.38128e-07
2.48782e-07
2.83897e-07
3.5838e-07
4.75187e-07
6.129e-07
7.4598e-07
8.60169e-07
9.4941e-07
1.00948e-06
1.0371e-06
1.03226e-06
1.00655e-06
1.00027e-06
1.01843e-06
1.04543e-06
1.05095e-06
1.02825e-06
9.86357e-07
9.51269e-07
9.43584e-07
9.58788e-07
9.78707e-07
9.79268e-07
9.57247e-07
9.21187e-07
8.83373e-07
8.51418e-07
8.25769e-07
8.072e-07
8.05386e-07
8.28042e-07
8.69291e-07
9.10535e-07
9.36912e-07
9.41189e-07
9.34182e-07
9.21298e-07
8.97603e-07
8.59119e-07
8.08392e-07
7.51588e-07
7.00226e-07
6.55924e-07
6.1761e-07
5.85794e-07
5.56444e-07
5.1905e-07
4.92312e-07
4.63867e-07
4.47654e-07
4.43868e-07
4.57341e-07
4.85247e-07
5.21146e-07
5.61034e-07
5.98487e-07
6.29635e-07
6.52397e-07
6.63799e-07
6.67458e-07
6.61657e-07
6.47388e-07
6.25836e-07
5.96054e-07
5.62522e-07
5.22118e-07
4.85999e-07
4.41129e-07
4.0638e-07
3.9398e-07
4.02252e-07
4.04423e-07
4.01944e-07
4.06011e-07
4.20135e-07
4.25838e-07
4.27393e-07
4.25201e-07
4.20183e-07
4.11668e-07
4.04816e-07
4.01253e-07
3.94501e-07
3.83145e-07
3.7011e-07
3.54349e-07
3.46061e-07
3.42637e-07
3.42497e-07
3.43798e-07
3.41485e-07
3.42388e-07
3.47941e-07
3.51732e-07
3.54686e-07
3.56574e-07
3.56472e-07
3.56497e-07
3.57661e-07
3.5858e-07
3.60073e-07
3.61089e-07
3.61287e-07
3.60386e-07
3.59474e-07
3.59401e-07
3.59454e-07
3.59614e-07
3.59459e-07
3.59202e-07
3.59007e-07
3.591e-07
3.59293e-07
3.58946e-07
3.58222e-07
3.57171e-07
3.56145e-07
3.55569e-07
3.55234e-07
3.54416e-07
3.52867e-07
3.51243e-07
3.50013e-07
3.48911e-07
3.47707e-07
3.4632e-07
3.44751e-07
3.43076e-07
3.41345e-07
3.39546e-07
3.37808e-07
3.36115e-07
3.34102e-07
3.31879e-07
3.29802e-07
3.27849e-07
3.25565e-07
3.23002e-07
3.20528e-07
3.18347e-07
3.16348e-07
3.14158e-07
3.11931e-07
3.10032e-07
3.08565e-07
3.07579e-07
3.06967e-07
3.06426e-07
3.0601e-07
3.05762e-07
3.05547e-07
3.05436e-07
3.05469e-07
3.05675e-07
3.05951e-07
3.06113e-07
3.06278e-07
3.06552e-07
3.06926e-07
3.07256e-07
3.07458e-07
3.07506e-07
3.07428e-07
3.07273e-07
3.07102e-07
3.06939e-07
3.06724e-07
3.06362e-07
3.05837e-07
3.05222e-07
3.0458e-07
3.03884e-07
3.03143e-07
3.02337e-07
3.01466e-07
3.00589e-07
2.9979e-07
2.99055e-07
2.98222e-07
2.97435e-07
2.96729e-07
2.96096e-07
2.956e-07
2.95262e-07
2.95002e-07
2.94776e-07
2.94602e-07
2.9447e-07
2.944e-07
2.94455e-07
2.94613e-07
2.94806e-07
2.94973e-07
2.95088e-07
2.95147e-07
2.95191e-07
2.95276e-07
2.95373e-07
2.95436e-07
2.95405e-07
2.9526e-07
2.95023e-07
2.94721e-07
2.94368e-07
2.93966e-07
2.93509e-07
2.92967e-07
2.92331e-07
2.91578e-07
2.90704e-07
2.89716e-07
2.88624e-07
2.8748e-07
2.8631e-07
2.85078e-07
2.83737e-07
2.82265e-07
2.80679e-07
2.79058e-07
2.77422e-07
2.75738e-07
2.73969e-07
2.72098e-07
2.70142e-07
2.68132e-07
2.66077e-07
2.63977e-07
2.61811e-07
2.59563e-07
2.57238e-07
2.54872e-07
2.52491e-07
2.50109e-07
2.4768e-07
2.45159e-07
2.4254e-07
2.39853e-07
2.37155e-07
2.34469e-07
2.31787e-07
2.29084e-07
2.26331e-07
2.23511e-07
2.20635e-07
2.17727e-07
2.14807e-07
2.11875e-07
2.0894e-07
2.06013e-07
2.03075e-07
2.00095e-07
1.97051e-07
1.93968e-07
1.90886e-07
1.87808e-07
1.8472e-07
1.81614e-07
1.78478e-07
1.75294e-07
1.72051e-07
1.68743e-07
1.65355e-07
1.61883e-07
1.58392e-07
1.54926e-07
1.51479e-07
1.4805e-07
1.44643e-07
1.41262e-07
1.37915e-07
1.34595e-07
1.31276e-07
1.27945e-07
1.2463e-07
1.21373e-07
1.18218e-07
1.15197e-07
1.12323e-07
1.09615e-07
1.07087e-07
1.04748e-07
1.02586e-07
1.00586e-07
9.87588e-08
9.71201e-08
9.5671e-08
9.44119e-08
9.33467e-08
9.24781e-08
9.18045e-08
9.13128e-08
9.09809e-08
9.07852e-08
9.07119e-08
9.07561e-08
9.09093e-08
9.1156e-08
9.14794e-08
9.18685e-08
9.23167e-08
9.28193e-08
9.33713e-08
9.39593e-08
9.45634e-08
9.51675e-08
9.57615e-08
9.63348e-08
9.68753e-08
9.73781e-08
9.78409e-08
9.82653e-08
9.86521e-08
9.90023e-08
9.93131e-08
9.95822e-08
9.98121e-08
1.00004e-07
1.0016e-07
1.00277e-07
1.00354e-07
1.00389e-07
1.00382e-07
1.00335e-07
1.00248e-07
1.00121e-07
9.99571e-08
9.97569e-08
9.95201e-08
9.92476e-08
9.89414e-08
9.86022e-08
9.82311e-08
9.78301e-08
9.74024e-08
9.69475e-08
9.64654e-08
9.59566e-08
9.54245e-08
9.48723e-08
9.42995e-08
9.37027e-08
9.30806e-08
9.24356e-08
9.17697e-08
9.10829e-08
9.03752e-08
8.96468e-08
8.88995e-08
8.8131e-08
8.73372e-08
8.6521e-08
8.56882e-08
8.48406e-08
8.39782e-08
8.31032e-08
8.22159e-08
8.13171e-08
8.04093e-08
7.9497e-08
7.85794e-08
7.76552e-08
7.67256e-08
7.57949e-08
7.48669e-08
7.39412e-08
7.30224e-08
7.2109e-08
7.12011e-08
7.02946e-08
6.93984e-08
6.85096e-08
6.76361e-08
6.67729e-08
6.59296e-08
6.50931e-08
6.42702e-08
6.34626e-08
6.26792e-08
6.19192e-08
6.1171e-08
6.04392e-08
5.97048e-08
5.89981e-08
5.8299e-08
5.76116e-08
5.69439e-08
5.62473e-08
5.55348e-08
5.48812e-08
5.42069e-08
5.35835e-08
5.30243e-08
5.22e-08
5.13819e-08
5.0849e-08
4.99043e-08
4.93885e-08
4.87957e-08
4.94527e-08
4.99713e-08
5.07323e-08
5.11217e-08
5.13891e-08
5.1404e-08
5.12136e-08
5.10132e-08
5.07668e-08
5.05529e-08
5.02603e-08
5.03381e-08
5.00474e-08
4.93825e-08
4.91723e-08
4.82716e-08
4.72204e-08
4.54716e-08
4.53364e-08
4.59537e-08
4.71034e-08
4.85011e-08
4.96278e-08
5.05827e-08
5.13207e-08
5.19684e-08
5.2573e-08
5.27596e-08
5.29765e-08
5.30721e-08
5.29025e-08
5.33493e-08
5.34841e-08
5.26854e-08
5.25505e-08
5.1009e-08
4.98167e-08
4.75116e-08
4.70654e-08
4.68175e-08
4.97271e-08
5.3615e-08
5.83254e-08
6.3846e-08
6.98736e-08
7.59028e-08
8.14785e-08
8.63444e-08
9.04749e-08
9.39337e-08
9.67439e-08
9.89781e-08
1.00762e-07
1.02179e-07
1.03341e-07
1.04305e-07
1.05081e-07
1.05683e-07
1.0618e-07
1.06616e-07
1.06961e-07
1.07209e-07
1.07405e-07
1.07588e-07
1.07753e-07
1.07865e-07
1.07923e-07
1.07935e-07
1.07924e-07
1.07892e-07
1.07837e-07
1.07777e-07
1.0771e-07
1.07607e-07
1.0745e-07
1.07249e-07
1.07029e-07
1.06812e-07
1.06606e-07
1.064e-07
1.06191e-07
1.05961e-07
1.05713e-07
1.05459e-07
1.05191e-07
1.04906e-07
1.04621e-07
1.04349e-07
1.04081e-07
1.03803e-07
1.03502e-07
1.03174e-07
1.02825e-07
1.02463e-07
1.02095e-07
1.01727e-07
1.0136e-07
1.00993e-07
1.00624e-07
1.00251e-07
9.98746e-08
9.94968e-08
9.91237e-08
9.87575e-08
9.83966e-08
9.80344e-08
9.76722e-08
9.73123e-08
9.69665e-08
9.66323e-08
9.63021e-08
9.59894e-08
9.56962e-08
9.53958e-08
9.51224e-08
9.48434e-08
9.46555e-08
9.45443e-08
9.45463e-08
9.3736e-08
1.59729e-08
1.58497e-08
1.61997e-08
1.61914e-08
1.59232e-08
1.52698e-08
1.46927e-08
1.44307e-08
1.45134e-08
1.48792e-08
1.54988e-08
1.64051e-08
1.76592e-08
1.92728e-08
2.11829e-08
2.34125e-08
2.68727e-08
3.43999e-08
4.54681e-08
6.01016e-08
7.97584e-08
1.0923e-07
1.49936e-07
2.00697e-07
2.65468e-07
3.38501e-07
4.20398e-07
5.05661e-07
5.86015e-07
6.54626e-07
6.9202e-07
6.64658e-07
6.58441e-07
6.8678e-07
6.90991e-07
7.02629e-07
6.84357e-07
6.01141e-07
5.17168e-07
4.65315e-07
4.15048e-07
3.42992e-07
2.60412e-07
2.06879e-07
1.77332e-07
1.62944e-07
1.55423e-07
1.48073e-07
1.35811e-07
1.24992e-07
1.15836e-07
1.10932e-07
1.09406e-07
1.07862e-07
1.03437e-07
9.64935e-08
8.82795e-08
8.0063e-08
7.31115e-08
6.80288e-08
6.52459e-08
6.5851e-08
7.10361e-08
8.08034e-08
9.31077e-08
1.0475e-07
1.12997e-07
1.19335e-07
1.24677e-07
1.25388e-07
1.15303e-07
9.77259e-08
8.18273e-08
7.19553e-08
7.1224e-08
8.30888e-08
1.12561e-07
1.57492e-07
1.87653e-07
2.0539e-07
2.3043e-07
2.42837e-07
2.43839e-07
2.68676e-07
2.91339e-07
3.26281e-07
3.54377e-07
3.62933e-07
3.46168e-07
3.17492e-07
2.6668e-07
2.01737e-07
1.52282e-07
1.15106e-07
1.00468e-07
9.50283e-08
1.07453e-07
1.2199e-07
1.60515e-07
2.02996e-07
2.31929e-07
2.43305e-07
2.31875e-07
2.00502e-07
1.46903e-07
1.00378e-07
7.76035e-08
6.35838e-08
4.99083e-08
3.57161e-08
3.07186e-08
2.69495e-08
2.58068e-08
2.78846e-08
3.46557e-08
4.41539e-08
5.90975e-08
6.55263e-08
5.93558e-08
4.76094e-08
3.83306e-08
3.29854e-08
2.94212e-08
2.77808e-08
2.7084e-08
2.61784e-08
2.56193e-08
2.52984e-08
2.4952e-08
2.48035e-08
2.49063e-08
2.50477e-08
2.52007e-08
2.53466e-08
2.55336e-08
2.5739e-08
2.59512e-08
2.6209e-08
2.64718e-08
2.67469e-08
2.70356e-08
2.73416e-08
2.76428e-08
2.79217e-08
2.81575e-08
2.83532e-08
2.85761e-08
2.88622e-08
2.9211e-08
2.95688e-08
2.98687e-08
3.01019e-08
3.0335e-08
3.06353e-08
3.09973e-08
3.13543e-08
3.16714e-08
3.19529e-08
3.22141e-08
3.2464e-08
3.2722e-08
3.30106e-08
3.33107e-08
3.35557e-08
3.37357e-08
3.39506e-08
3.42254e-08
3.44453e-08
3.45452e-08
3.46357e-08
3.48234e-08
3.50712e-08
3.52136e-08
3.5177e-08
3.50679e-08
3.50285e-08
3.51343e-08
3.53027e-08
3.53798e-08
3.53156e-08
3.51033e-08
3.47821e-08
3.44786e-08
3.4266e-08
3.417e-08
3.41162e-08
3.39346e-08
3.35801e-08
3.31689e-08
3.28636e-08
3.26676e-08
3.24759e-08
3.21884e-08
3.17591e-08
3.12463e-08
3.07457e-08
3.037e-08
3.01259e-08
2.98772e-08
2.94815e-08
2.88962e-08
2.82874e-08
2.77951e-08
2.73977e-08
2.70138e-08
2.65542e-08
2.60033e-08
2.54778e-08
2.50913e-08
2.47856e-08
2.4292e-08
2.36682e-08
2.30978e-08
2.26466e-08
2.23554e-08
2.21194e-08
2.17857e-08
2.12805e-08
2.07292e-08
2.02586e-08
1.99037e-08
1.96793e-08
1.94765e-08
1.91936e-08
1.88017e-08
1.83765e-08
1.8005e-08
1.7723e-08
1.75655e-08
1.74231e-08
1.7204e-08
1.68935e-08
1.6558e-08
1.6296e-08
1.6118e-08
1.598e-08
1.58541e-08
1.5761e-08
1.5671e-08
1.55708e-08
1.54669e-08
1.53005e-08
1.5177e-08
1.51262e-08
1.51301e-08
1.52199e-08
1.52753e-08
1.51532e-08
1.50346e-08
1.50123e-08
1.50475e-08
1.51308e-08
1.51764e-08
1.51592e-08
1.51233e-08
1.50974e-08
1.51155e-08
1.51596e-08
1.51839e-08
1.5189e-08
1.51658e-08
1.5129e-08
1.51362e-08
1.51982e-08
1.52744e-08
1.53152e-08
1.52402e-08
1.51632e-08
1.51438e-08
1.51417e-08
1.51568e-08
1.51994e-08
1.5231e-08
1.52208e-08
1.5164e-08
1.51015e-08
1.50627e-08
1.50317e-08
1.49962e-08
1.49766e-08
1.49968e-08
1.5001e-08
1.49322e-08
1.48364e-08
1.47777e-08
1.47392e-08
1.46941e-08
1.46576e-08
1.46307e-08
1.45814e-08
1.45064e-08
1.44233e-08
1.43509e-08
1.42836e-08
1.42184e-08
1.41647e-08
1.40994e-08
1.40171e-08
1.39285e-08
1.38403e-08
1.37554e-08
1.36865e-08
1.36145e-08
1.3523e-08
1.34261e-08
1.33297e-08
1.32443e-08
1.3158e-08
1.3067e-08
1.2975e-08
1.28888e-08
1.28164e-08
1.27524e-08
1.26838e-08
1.26071e-08
1.25367e-08
1.24785e-08
1.24256e-08
1.23768e-08
1.23316e-08
1.22916e-08
1.22576e-08
1.22293e-08
1.22064e-08
1.21855e-08
1.21685e-08
1.21605e-08
1.21588e-08
1.21581e-08
1.21574e-08
1.21604e-08
1.2171e-08
1.21887e-08
1.22099e-08
1.22261e-08
1.22342e-08
1.22404e-08
1.22513e-08
1.22638e-08
1.22744e-08
1.22812e-08
1.22835e-08
1.22826e-08
1.22808e-08
1.22789e-08
1.22721e-08
1.22601e-08
1.22448e-08
1.22288e-08
1.22137e-08
1.21983e-08
1.21797e-08
1.21567e-08
1.21323e-08
1.21087e-08
1.20852e-08
1.20607e-08
1.20357e-08
1.20099e-08
1.19826e-08
1.19555e-08
1.19291e-08
1.19027e-08
1.18768e-08
1.18523e-08
1.1828e-08
1.18015e-08
1.17728e-08
1.17435e-08
1.1717e-08
1.16932e-08
1.16686e-08
1.16408e-08
1.16119e-08
1.15849e-08
1.15602e-08
1.15363e-08
1.15127e-08
1.14899e-08
1.14683e-08
1.14442e-08
1.1417e-08
1.13908e-08
1.13673e-08
1.13449e-08
1.13228e-08
1.13008e-08
1.12778e-08
1.1254e-08
1.12314e-08
1.12108e-08
1.11899e-08
1.11676e-08
1.11448e-08
1.11233e-08
1.11025e-08
1.10827e-08
1.10643e-08
1.1046e-08
1.10263e-08
1.10056e-08
1.0985e-08
1.0966e-08
1.0948e-08
1.09306e-08
1.09124e-08
1.08927e-08
1.08719e-08
1.08528e-08
1.08351e-08
1.08185e-08
1.08021e-08
1.07843e-08
1.07644e-08
1.07455e-08
1.07319e-08
1.07229e-08
1.07154e-08
1.07067e-08
1.06834e-08
1.06587e-08
1.06657e-08
1.07231e-08
1.07854e-08
1.08449e-08
1.08637e-08
1.09634e-08
1.0953e-08
1.0883e-08
1.07466e-08
1.06336e-08
1.06177e-08
1.06035e-08
1.06164e-08
1.06166e-08
1.06156e-08
1.06024e-08
1.05764e-08
1.05316e-08
1.05457e-08
1.06955e-08
1.08909e-08
1.10659e-08
1.10248e-08
1.10731e-08
1.09955e-08
1.08997e-08
1.07826e-08
1.07107e-08
1.06845e-08
1.06434e-08
1.05899e-08
1.05226e-08
1.05023e-08
1.0509e-08
1.05428e-08
1.05686e-08
1.05991e-08
1.05596e-08
1.06189e-08
1.06856e-08
1.08898e-08
1.15678e-08
1.17103e-08
1.19266e-08
1.18356e-08
1.16435e-08
1.14871e-08
1.1418e-08
1.14849e-08
1.15831e-08
1.16077e-08
1.15583e-08
1.14844e-08
1.13979e-08
1.12975e-08
1.11911e-08
1.10968e-08
1.1032e-08
1.10028e-08
1.10027e-08
1.10228e-08
1.10569e-08
1.11006e-08
1.11519e-08
1.12066e-08
1.12587e-08
1.13068e-08
1.13553e-08
1.14052e-08
1.14501e-08
1.14878e-08
1.15243e-08
1.15662e-08
1.16122e-08
1.16547e-08
1.16893e-08
1.17173e-08
1.17429e-08
1.17679e-08
1.17936e-08
1.18237e-08
1.18569e-08
1.18845e-08
1.18993e-08
1.19015e-08
1.18983e-08
1.18979e-08
1.19044e-08
1.19168e-08
1.19323e-08
1.19466e-08
1.1959e-08
1.19705e-08
1.19789e-08
1.1984e-08
1.19913e-08
1.20061e-08
1.20279e-08
1.20512e-08
1.207e-08
1.2081e-08
1.20844e-08
1.20832e-08
1.20808e-08
1.20794e-08
1.20803e-08
1.20829e-08
1.2086e-08
1.20878e-08
1.20879e-08
1.20873e-08
1.20879e-08
1.20904e-08
1.20938e-08
1.20952e-08
1.20946e-08
1.20923e-08
1.2093e-08
1.20944e-08
1.20951e-08
1.20973e-08
1.20985e-08
1.20945e-08
1.20765e-08
1.20566e-08
1.20312e-08
1.209e-08
1.21662e-08
1.22131e-08
1.2311e-08
1.22576e-08
1.2398e-08
1.23112e-08
1.20636e-08
1.18576e-08
1.17914e-08
1.19241e-08
1.23091e-08
1.3023e-08
1.41923e-08
1.59539e-08
1.83534e-08
2.1236e-08
2.42529e-08
2.71603e-08
3.05368e-08
3.6761e-08
4.73007e-08
6.30901e-08
8.63979e-08
1.20648e-07
1.68477e-07
2.30073e-07
3.0373e-07
3.86657e-07
4.75684e-07
5.68682e-07
6.61786e-07
7.51533e-07
8.32425e-07
8.45195e-07
8.09592e-07
7.70445e-07
7.15405e-07
6.44871e-07
5.43965e-07
4.20274e-07
3.29871e-07
2.77975e-07
2.38569e-07
1.9275e-07
1.3917e-07
1.03141e-07
8.17461e-08
7.12627e-08
6.57038e-08
6.08794e-08
5.60967e-08
5.10006e-08
4.68291e-08
4.41502e-08
4.29517e-08
4.2087e-08
4.04024e-08
3.76996e-08
3.48683e-08
3.1902e-08
2.90134e-08
2.67274e-08
2.52652e-08
2.48881e-08
2.58717e-08
2.79324e-08
3.02259e-08
3.20826e-08
3.4068e-08
3.67509e-08
3.98711e-08
4.15598e-08
3.96029e-08
3.63456e-08
3.29705e-08
3.03624e-08
2.98178e-08
3.21252e-08
3.92249e-08
5.40187e-08
7.1657e-08
8.48851e-08
9.80771e-08
1.08425e-07
1.1858e-07
1.36415e-07
1.60772e-07
1.9426e-07
2.43397e-07
2.8133e-07
3.01048e-07
3.0149e-07
2.72548e-07
2.32413e-07
1.9479e-07
1.53677e-07
1.13175e-07
8.37943e-08
6.24974e-08
5.43331e-08
5.94228e-08
7.58578e-08
9.54188e-08
1.12123e-07
1.20533e-07
1.1637e-07
9.71163e-08
7.11577e-08
5.06765e-08
3.73888e-08
2.81001e-08
2.29011e-08
1.97818e-08
1.74373e-08
1.55873e-08
1.38845e-08
1.34002e-08
1.37347e-08
1.56667e-08
1.77841e-08
1.8143e-08
1.77544e-08
1.69455e-08
1.58417e-08
1.47362e-08
1.39526e-08
1.33274e-08
1.28375e-08
1.24933e-08
1.22767e-08
1.20637e-08
1.19678e-08
1.1884e-08
1.1832e-08
1.17763e-08
1.17898e-08
1.18396e-08
1.18995e-08
1.19418e-08
1.19721e-08
1.2005e-08
1.2032e-08
1.20704e-08
1.21195e-08
1.217e-08
1.2215e-08
1.22538e-08
1.22852e-08
1.23236e-08
1.23697e-08
1.24185e-08
1.24714e-08
1.25238e-08
1.25717e-08
1.26194e-08
1.26704e-08
1.27286e-08
1.27893e-08
1.28494e-08
1.29101e-08
1.29679e-08
1.30196e-08
1.30694e-08
1.31243e-08
1.31822e-08
1.32334e-08
1.32768e-08
1.33254e-08
1.33824e-08
1.34284e-08
1.34526e-08
1.34759e-08
1.35173e-08
1.35659e-08
1.35936e-08
1.3587e-08
1.3563e-08
1.35489e-08
1.35576e-08
1.35748e-08
1.35746e-08
1.35462e-08
1.34868e-08
1.34021e-08
1.33148e-08
1.32414e-08
1.31898e-08
1.31497e-08
1.30906e-08
1.30004e-08
1.28949e-08
1.28013e-08
1.27263e-08
1.26598e-08
1.25871e-08
1.2496e-08
1.23892e-08
1.22831e-08
1.21965e-08
1.21304e-08
1.20673e-08
1.19881e-08
1.18886e-08
1.17885e-08
1.17044e-08
1.16328e-08
1.15625e-08
1.14865e-08
1.14064e-08
1.13332e-08
1.12748e-08
1.12223e-08
1.11539e-08
1.10771e-08
1.10077e-08
1.09505e-08
1.09081e-08
1.08722e-08
1.0831e-08
1.07787e-08
1.07238e-08
1.06761e-08
1.06379e-08
1.06097e-08
1.05851e-08
1.0558e-08
1.05261e-08
1.04929e-08
1.04635e-08
1.04402e-08
1.04242e-08
1.04103e-08
1.03935e-08
1.03732e-08
1.03533e-08
1.03373e-08
1.03259e-08
1.03176e-08
1.03106e-08
1.03044e-08
1.0298e-08
1.02911e-08
1.02851e-08
1.02793e-08
1.02753e-08
1.02733e-08
1.02733e-08
1.02754e-08
1.02762e-08
1.02723e-08
1.02686e-08
1.02681e-08
1.02696e-08
1.02725e-08
1.0274e-08
1.02735e-08
1.02728e-08
1.02729e-08
1.02747e-08
1.0277e-08
1.02775e-08
1.02772e-08
1.02766e-08
1.02759e-08
1.0277e-08
1.02802e-08
1.02838e-08
1.02857e-08
1.02831e-08
1.02803e-08
1.02796e-08
1.02801e-08
1.02815e-08
1.02838e-08
1.02854e-08
1.02856e-08
1.02843e-08
1.02826e-08
1.02813e-08
1.02802e-08
1.02792e-08
1.02793e-08
1.02812e-08
1.02821e-08
1.02799e-08
1.02763e-08
1.02743e-08
1.02735e-08
1.02724e-08
1.02715e-08
1.02709e-08
1.02695e-08
1.02669e-08
1.02642e-08
1.02619e-08
1.02597e-08
1.02574e-08
1.02555e-08
1.02535e-08
1.0251e-08
1.0248e-08
1.02444e-08
1.02407e-08
1.02379e-08
1.02353e-08
1.02319e-08
1.02278e-08
1.02233e-08
1.02194e-08
1.02158e-08
1.02119e-08
1.02076e-08
1.02034e-08
1.02e-08
1.0197e-08
1.01937e-08
1.01899e-08
1.01861e-08
1.0183e-08
1.01803e-08
1.01779e-08
1.01757e-08
1.01736e-08
1.01718e-08
1.01703e-08
1.01691e-08
1.01681e-08
1.01676e-08
1.01675e-08
1.01675e-08
1.01675e-08
1.01676e-08
1.01681e-08
1.01692e-08
1.01706e-08
1.01718e-08
1.01725e-08
1.0173e-08
1.01733e-08
1.01739e-08
1.01745e-08
1.01749e-08
1.01752e-08
1.01752e-08
1.01751e-08
1.0175e-08
1.01748e-08
1.01742e-08
1.01733e-08
1.01723e-08
1.01714e-08
1.01706e-08
1.01697e-08
1.01687e-08
1.01674e-08
1.01661e-08
1.01649e-08
1.01636e-08
1.01624e-08
1.01611e-08
1.01599e-08
1.01585e-08
1.01571e-08
1.01558e-08
1.01546e-08
1.01534e-08
1.01522e-08
1.0151e-08
1.01497e-08
1.01483e-08
1.01469e-08
1.01456e-08
1.01443e-08
1.01429e-08
1.01413e-08
1.01393e-08
1.01372e-08
1.01355e-08
1.01339e-08
1.01323e-08
1.01307e-08
1.01291e-08
1.01275e-08
1.0126e-08
1.01244e-08
1.01229e-08
1.01216e-08
1.01203e-08
1.01189e-08
1.01175e-08
1.01162e-08
1.01149e-08
1.01137e-08
1.01124e-08
1.01112e-08
1.011e-08
1.01088e-08
1.01077e-08
1.01066e-08
1.01056e-08
1.01046e-08
1.01035e-08
1.01024e-08
1.01012e-08
1.01001e-08
1.00991e-08
1.00982e-08
1.00972e-08
1.0096e-08
1.00947e-08
1.00936e-08
1.00924e-08
1.00914e-08
1.00912e-08
1.00902e-08
1.00892e-08
1.00886e-08
1.00889e-08
1.00877e-08
1.00873e-08
1.00874e-08
1.00879e-08
1.00891e-08
1.00896e-08
1.00888e-08
1.00897e-08
1.00892e-08
1.0087e-08
1.00851e-08
1.00833e-08
1.00828e-08
1.00822e-08
1.00815e-08
1.00806e-08
1.0079e-08
1.0077e-08
1.00754e-08
1.0075e-08
1.00746e-08
1.00757e-08
1.00784e-08
1.00808e-08
1.00809e-08
1.00845e-08
1.0084e-08
1.00799e-08
1.00739e-08
1.00698e-08
1.00683e-08
1.00673e-08
1.00674e-08
1.00674e-08
1.00667e-08
1.00665e-08
1.00662e-08
1.00663e-08
1.00667e-08
1.00671e-08
1.00686e-08
1.00702e-08
1.00745e-08
1.00893e-08
1.01029e-08
1.01181e-08
1.01389e-08
1.0147e-08
1.01429e-08
1.01346e-08
1.01283e-08
1.01239e-08
1.01213e-08
1.0122e-08
1.01256e-08
1.01292e-08
1.013e-08
1.0127e-08
1.01205e-08
1.01118e-08
1.01024e-08
1.00937e-08
1.00868e-08
1.00818e-08
1.00786e-08
1.00768e-08
1.00761e-08
1.00762e-08
1.0077e-08
1.00782e-08
1.00796e-08
1.00811e-08
1.00828e-08
1.00848e-08
1.00867e-08
1.00885e-08
1.00904e-08
1.00925e-08
1.00948e-08
1.00971e-08
1.00991e-08
1.01009e-08
1.01024e-08
1.01039e-08
1.01056e-08
1.01074e-08
1.01092e-08
1.01108e-08
1.01117e-08
1.01119e-08
1.0112e-08
1.01121e-08
1.01126e-08
1.01133e-08
1.01143e-08
1.01152e-08
1.0116e-08
1.01169e-08
1.01177e-08
1.01183e-08
1.0119e-08
1.01201e-08
1.01214e-08
1.01228e-08
1.01239e-08
1.01246e-08
1.0125e-08
1.01251e-08
1.01251e-08
1.01252e-08
1.01254e-08
1.01257e-08
1.0126e-08
1.01263e-08
1.01264e-08
1.01265e-08
1.01267e-08
1.01271e-08
1.01275e-08
1.01277e-08
1.01278e-08
1.01279e-08
1.01281e-08
1.01283e-08
1.01284e-08
1.01286e-08
1.01287e-08
1.01285e-08
1.01278e-08
1.01267e-08
1.01264e-08
1.01276e-08
1.01313e-08
1.01349e-08
1.1156e-08
1.11542e-08
1.12163e-08
1.11773e-08
1.11138e-08
1.10808e-08
1.11501e-08
1.13846e-08
1.18791e-08
1.27995e-08
1.44044e-08
1.69923e-08
2.07785e-08
2.58515e-08
3.218e-08
3.9453e-08
4.80366e-08
5.76853e-08
7.07955e-08
8.85478e-08
1.11248e-07
1.3828e-07
1.6808e-07
1.97673e-07
2.2475e-07
2.47633e-07
2.69011e-07
2.9408e-07
3.28324e-07
3.81928e-07
4.51791e-07
5.10589e-07
5.30067e-07
4.96451e-07
4.27055e-07
3.49969e-07
2.72881e-07
2.1136e-07
1.70316e-07
1.42884e-07
1.14916e-07
8.34794e-08
5.8434e-08
4.52736e-08
3.70964e-08
3.23266e-08
2.94439e-08
2.74571e-08
2.56597e-08
2.40139e-08
2.27056e-08
2.1804e-08
2.12825e-08
2.10047e-08
2.06895e-08
2.01223e-08
1.92893e-08
1.82556e-08
1.71874e-08
1.62593e-08
1.56013e-08
1.52819e-08
1.52471e-08
1.53483e-08
1.54926e-08
1.57328e-08
1.61995e-08
1.70308e-08
1.82238e-08
1.94521e-08
2.01039e-08
1.97979e-08
1.88285e-08
1.80894e-08
1.77727e-08
1.81517e-08
1.95691e-08
2.26081e-08
2.76553e-08
3.32839e-08
3.98036e-08
4.72483e-08
5.39763e-08
6.38683e-08
7.64254e-08
9.5742e-08
1.19999e-07
1.54188e-07
1.91093e-07
2.16227e-07
2.30518e-07
2.22564e-07
2.04984e-07
1.71023e-07
1.36793e-07
1.11539e-07
8.57613e-08
6.35305e-08
4.91053e-08
4.3111e-08
4.38401e-08
4.81126e-08
5.34416e-08
5.68731e-08
5.50607e-08
4.77265e-08
3.92768e-08
3.21818e-08
2.60488e-08
2.13258e-08
1.82916e-08
1.64895e-08
1.52678e-08
1.42935e-08
1.34437e-08
1.27517e-08
1.20439e-08
1.1724e-08
1.14499e-08
1.1532e-08
1.15665e-08
1.14842e-08
1.13234e-08
1.12025e-08
1.10589e-08
1.09185e-08
1.08253e-08
1.07256e-08
1.06269e-08
1.05474e-08
1.04887e-08
1.04405e-08
1.04094e-08
1.03891e-08
1.03765e-08
1.03704e-08
1.0369e-08
1.03722e-08
1.03763e-08
1.03819e-08
1.03883e-08
1.03949e-08
1.0402e-08
1.0409e-08
1.04154e-08
1.04219e-08
1.04295e-08
1.04386e-08
1.04491e-08
1.04588e-08
1.04671e-08
1.04751e-08
1.04845e-08
1.04959e-08
1.05078e-08
1.05183e-08
1.05282e-08
1.05387e-08
1.05502e-08
1.05619e-08
1.05732e-08
1.0584e-08
1.05941e-08
1.06027e-08
1.06107e-08
1.06208e-08
1.06322e-08
1.0641e-08
1.06452e-08
1.06492e-08
1.06558e-08
1.06634e-08
1.06673e-08
1.06652e-08
1.06596e-08
1.06542e-08
1.06519e-08
1.06512e-08
1.06476e-08
1.06391e-08
1.06244e-08
1.0605e-08
1.05848e-08
1.05667e-08
1.05521e-08
1.05397e-08
1.05252e-08
1.05064e-08
1.04847e-08
1.04636e-08
1.04451e-08
1.0429e-08
1.04136e-08
1.03969e-08
1.03781e-08
1.03588e-08
1.03421e-08
1.03282e-08
1.03156e-08
1.0302e-08
1.02866e-08
1.02713e-08
1.02579e-08
1.0246e-08
1.02345e-08
1.02231e-08
1.0212e-08
1.02021e-08
1.01935e-08
1.01853e-08
1.01761e-08
1.01668e-08
1.01584e-08
1.01512e-08
1.01454e-08
1.01404e-08
1.01352e-08
1.01295e-08
1.01238e-08
1.01188e-08
1.01145e-08
1.01109e-08
1.01078e-08
1.01049e-08
1.01019e-08
1.00989e-08
1.00962e-08
1.00938e-08
1.00919e-08
1.00903e-08
1.00886e-08
1.00869e-08
1.00852e-08
1.00838e-08
1.00827e-08
1.00819e-08
1.00811e-08
1.00804e-08
1.00796e-08
1.00789e-08
1.00783e-08
1.00778e-08
1.00774e-08
1.0077e-08
1.00768e-08
1.00766e-08
1.00764e-08
1.00762e-08
1.0076e-08
1.00759e-08
1.00759e-08
1.00759e-08
1.00758e-08
1.00757e-08
1.00756e-08
1.00756e-08
1.00756e-08
1.00758e-08
1.00757e-08
1.00756e-08
1.00754e-08
1.00753e-08
1.00754e-08
1.00755e-08
1.00757e-08
1.00758e-08
1.00756e-08
1.00755e-08
1.00754e-08
1.00754e-08
1.00755e-08
1.00755e-08
1.00756e-08
1.00756e-08
1.00756e-08
1.00755e-08
1.00754e-08
1.00753e-08
1.00752e-08
1.00753e-08
1.00754e-08
1.00754e-08
1.00753e-08
1.00751e-08
1.0075e-08
1.0075e-08
1.00749e-08
1.00748e-08
1.00748e-08
1.00747e-08
1.00746e-08
1.00745e-08
1.00743e-08
1.00741e-08
1.00739e-08
1.00737e-08
1.00736e-08
1.00734e-08
1.00732e-08
1.00729e-08
1.00726e-08
1.00724e-08
1.00722e-08
1.00719e-08
1.00715e-08
1.00711e-08
1.00707e-08
1.00704e-08
1.007e-08
1.00696e-08
1.00691e-08
1.00688e-08
1.00685e-08
1.00681e-08
1.00676e-08
1.00672e-08
1.00668e-08
1.00665e-08
1.00662e-08
1.00659e-08
1.00655e-08
1.00652e-08
1.00649e-08
1.00646e-08
1.00644e-08
1.00642e-08
1.00641e-08
1.00639e-08
1.00637e-08
1.00635e-08
1.00633e-08
1.00632e-08
1.00631e-08
1.0063e-08
1.00628e-08
1.00626e-08
1.00624e-08
1.00622e-08
1.0062e-08
1.00619e-08
1.00617e-08
1.00615e-08
1.00613e-08
1.00612e-08
1.00611e-08
1.0061e-08
1.00609e-08
1.00607e-08
1.00605e-08
1.00604e-08
1.00602e-08
1.006e-08
1.00598e-08
1.00596e-08
1.00594e-08
1.00593e-08
1.00591e-08
1.00589e-08
1.00587e-08
1.00586e-08
1.00584e-08
1.00583e-08
1.00581e-08
1.0058e-08
1.00578e-08
1.00577e-08
1.00575e-08
1.00574e-08
1.00573e-08
1.00571e-08
1.0057e-08
1.00568e-08
1.00567e-08
1.00565e-08
1.00563e-08
1.00562e-08
1.0056e-08
1.00559e-08
1.00557e-08
1.00556e-08
1.00554e-08
1.00552e-08
1.00551e-08
1.00549e-08
1.00547e-08
1.00546e-08
1.00544e-08
1.00541e-08
1.00539e-08
1.00536e-08
1.00533e-08
1.00529e-08
1.00526e-08
1.00523e-08
1.00521e-08
1.0052e-08
1.00517e-08
1.00515e-08
1.00512e-08
1.00511e-08
1.00509e-08
1.00509e-08
1.00507e-08
1.00506e-08
1.00505e-08
1.00507e-08
1.00504e-08
1.00507e-08
1.00504e-08
1.00501e-08
1.00505e-08
1.00502e-08
1.00507e-08
1.00507e-08
1.00507e-08
1.00511e-08
1.00516e-08
1.00521e-08
1.00526e-08
1.00531e-08
1.00542e-08
1.00545e-08
1.00535e-08
1.00524e-08
1.00515e-08
1.0051e-08
1.00504e-08
1.005e-08
1.00496e-08
1.00492e-08
1.00493e-08
1.00495e-08
1.00498e-08
1.00506e-08
1.00514e-08
1.00522e-08
1.00529e-08
1.00538e-08
1.00552e-08
1.00563e-08
1.00555e-08
1.00539e-08
1.00521e-08
1.0051e-08
1.00499e-08
1.00491e-08
1.00485e-08
1.0048e-08
1.00479e-08
1.00479e-08
1.00483e-08
1.00485e-08
1.00493e-08
1.00507e-08
1.00523e-08
1.00544e-08
1.0059e-08
1.00676e-08
1.00793e-08
1.00925e-08
1.01015e-08
1.01043e-08
1.01018e-08
1.00966e-08
1.00898e-08
1.00823e-08
1.00751e-08
1.00688e-08
1.00638e-08
1.00602e-08
1.00576e-08
1.0056e-08
1.00548e-08
1.00539e-08
1.00531e-08
1.00522e-08
1.00513e-08
1.00503e-08
1.00494e-08
1.00486e-08
1.00478e-08
1.00471e-08
1.00465e-08
1.00461e-08
1.00456e-08
1.00453e-08
1.0045e-08
1.00448e-08
1.00447e-08
1.00446e-08
1.00446e-08
1.00446e-08
1.00446e-08
1.00446e-08
1.00447e-08
1.00448e-08
1.00449e-08
1.00451e-08
1.00452e-08
1.00453e-08
1.00455e-08
1.00456e-08
1.00458e-08
1.00459e-08
1.00459e-08
1.00459e-08
1.00459e-08
1.00459e-08
1.0046e-08
1.0046e-08
1.00461e-08
1.00462e-08
1.00463e-08
1.00464e-08
1.00465e-08
1.00466e-08
1.00466e-08
1.00467e-08
1.00467e-08
1.00468e-08
1.00468e-08
1.00467e-08
1.00467e-08
1.00467e-08
1.00467e-08
1.00467e-08
1.00467e-08
1.00467e-08
1.00466e-08
1.00465e-08
1.00464e-08
1.00463e-08
1.00463e-08
1.00463e-08
1.00463e-08
1.00463e-08
1.00462e-08
1.00462e-08
1.00462e-08
1.00462e-08
1.00462e-08
1.00461e-08
1.00461e-08
1.0046e-08
1.00459e-08
1.00459e-08
1.00461e-08
1.00467e-08
1.0048e-08
1.00494e-08
1.06687e-08
1.06798e-08
1.07261e-08
1.0731e-08
1.07253e-08
1.07421e-08
1.08285e-08
1.10339e-08
1.14459e-08
1.22258e-08
1.36211e-08
1.58978e-08
1.92861e-08
2.40232e-08
3.02644e-08
3.7805e-08
4.61937e-08
5.51881e-08
6.46884e-08
7.46826e-08
8.47702e-08
9.43208e-08
1.02748e-07
1.1021e-07
1.16963e-07
1.24725e-07
1.35592e-07
1.53043e-07
1.75612e-07
1.94177e-07
2.04114e-07
2.00903e-07
1.79569e-07
1.51769e-07
1.27964e-07
1.10573e-07
9.73024e-08
8.53343e-08
7.26449e-08
5.88879e-08
4.50777e-08
3.38236e-08
2.74557e-08
2.31812e-08
2.0314e-08
1.8437e-08
1.72261e-08
1.64053e-08
1.57807e-08
1.52746e-08
1.48771e-08
1.45854e-08
1.4388e-08
1.42622e-08
1.41563e-08
1.40071e-08
1.37814e-08
1.34768e-08
1.31209e-08
1.2766e-08
1.24753e-08
1.22774e-08
1.21578e-08
1.20961e-08
1.20829e-08
1.21275e-08
1.22536e-08
1.24934e-08
1.2862e-08
1.33061e-08
1.36849e-08
1.38615e-08
1.38122e-08
1.36224e-08
1.34828e-08
1.34964e-08
1.37748e-08
1.44381e-08
1.56309e-08
1.72496e-08
1.93287e-08
2.19018e-08
2.50682e-08
3.00735e-08
3.72922e-08
4.6272e-08
5.93898e-08
7.82009e-08
9.91101e-08
1.25321e-07
1.47437e-07
1.60686e-07
1.59711e-07
1.49007e-07
1.30145e-07
1.08873e-07
8.54991e-08
6.77784e-08
5.29948e-08
4.09922e-08
3.34561e-08
2.98825e-08
2.89067e-08
2.86592e-08
2.81769e-08
2.72332e-08
2.54567e-08
2.31983e-08
2.08916e-08
1.87018e-08
1.69291e-08
1.55583e-08
1.45161e-08
1.38821e-08
1.34532e-08
1.30439e-08
1.26098e-08
1.21725e-08
1.17968e-08
1.13939e-08
1.10677e-08
1.07567e-08
1.06416e-08
1.0549e-08
1.04758e-08
1.04272e-08
1.03963e-08
1.0373e-08
1.03654e-08
1.03658e-08
1.03432e-08
1.03099e-08
1.02758e-08
1.02417e-08
1.0211e-08
1.01999e-08
1.01863e-08
1.01741e-08
1.01653e-08
1.01587e-08
1.01541e-08
1.01516e-08
1.01501e-08
1.01495e-08
1.01495e-08
1.015e-08
1.0151e-08
1.01524e-08
1.0154e-08
1.01556e-08
1.01572e-08
1.0159e-08
1.0161e-08
1.01634e-08
1.01658e-08
1.0168e-08
1.01702e-08
1.01725e-08
1.01751e-08
1.01777e-08
1.01802e-08
1.01826e-08
1.01846e-08
1.01864e-08
1.01881e-08
1.01902e-08
1.01923e-08
1.0194e-08
1.01949e-08
1.01955e-08
1.01964e-08
1.01974e-08
1.01978e-08
1.01973e-08
1.01959e-08
1.01943e-08
1.0193e-08
1.0192e-08
1.01905e-08
1.01881e-08
1.01846e-08
1.01804e-08
1.0176e-08
1.01718e-08
1.0168e-08
1.01646e-08
1.01611e-08
1.01571e-08
1.01527e-08
1.01482e-08
1.0144e-08
1.01401e-08
1.01366e-08
1.01332e-08
1.01296e-08
1.0126e-08
1.01226e-08
1.01195e-08
1.01168e-08
1.01142e-08
1.01115e-08
1.01088e-08
1.01062e-08
1.01038e-08
1.01017e-08
1.00996e-08
1.00976e-08
1.00958e-08
1.00941e-08
1.00924e-08
1.00908e-08
1.00892e-08
1.00877e-08
1.00864e-08
1.00851e-08
1.0084e-08
1.00829e-08
1.00818e-08
1.00807e-08
1.00798e-08
1.00788e-08
1.00779e-08
1.00771e-08
1.00764e-08
1.00757e-08
1.0075e-08
1.00743e-08
1.00737e-08
1.00731e-08
1.00726e-08
1.0072e-08
1.00715e-08
1.00711e-08
1.00706e-08
1.00702e-08
1.00698e-08
1.00695e-08
1.00691e-08
1.00688e-08
1.00685e-08
1.00682e-08
1.00679e-08
1.00677e-08
1.00674e-08
1.00672e-08
1.0067e-08
1.00668e-08
1.00667e-08
1.00665e-08
1.00663e-08
1.00662e-08
1.0066e-08