/*--------------------------------*- C++ -*----------------------------------*\
| =========                 |                                                 |
| \\      /  F ield         | OpenFOAM: The Open Source CFD Toolbox           |
|  \\    /   O peration     | Version:  v2006                                 |
|   \\  /    A nd           | Website:  www.openfoam.com                      |
|    \\/     M anipulation  |                                                 |
\*---------------------------------------------------------------------------*/
FoamFile
{
    version     2.0;
    format      ascii;
    class       volScalarField;
    location    "8.1";
    object      p_rgh;
}
// * * * * * * * * * * * * * * * * * * * * * * * * * * * * * * * * * * * * * //

dimensions      [1 -1 -2 0 0 0 0];


internalField   nonuniform List<scalar> 
33000
(
7284.42
7279.02
7275.78
7272.86
7270.52
7268.78
7267.43
7266
7264.09
7261.88
7259.73
7257.71
7255.76
7253.9
7252.28
7251.17
7251.01
7251.83
7252.89
7253.82
7254.72
7255.79
7257.05
7258.41
7259.88
7261.45
7263.09
7264.86
7266.85
7269.14
7271.78
7274.82
7278.19
7281.83
7285.63
7289.45
7293.28
7297.16
7301.19
7305.32
7309.57
7314.05
7318.69
7323.4
7328.25
7333.21
7338.24
7343.43
7348.85
7354.34
7359.93
7365.6
7371.37
7377.21
7383.14
7389.24
7395.41
7401.64
7407.94
7414.28
7420.66
7427.07
7433.5
7439.97
7446.46
7452.93
7459.44
7466.03
7472.58
7479.11
7485.61
7492.07
7498.46
7504.73
7510.83
7516.71
7522.19
7526.77
7531.63
7542.46
7549.11
7557.07
7564.81
7572.51
7580.23
7588.89
7596.7
7605.27
7613.13
7621.5
7629.47
7637.66
7645.8
7653.81
7661.79
7669.65
7677.06
7684.76
7690.83
7698.75
7707.75
7715.9
7725.79
7734.63
7743.78
7752.87
7762.04
7771.37
7780.54
7790.07
7799.26
7808.46
7817.34
7826.15
7834.42
7843.05
7849.84
7858.68
7869.92
7879.1
7888.86
7898.64
7908.15
7917.91
7927.85
7937.55
7947.32
7957.04
7966.72
7976.35
7985.89
7995.34
8004.68
8013.92
8023.05
8032.14
8041.06
8049.84
8058.46
8066.94
8075.28
8083.45
8091.47
8099.3
8106.95
8114.47
8121.82
8129.03
8136.03
8142.84
8149.46
8155.9
8162.22
8168.34
8174.26
8179.98
8185.51
8190.88
8196.06
8201.08
8205.9
8210.55
8215.02
8219.31
8223.43
8227.4
8231.2
8234.82
8238.3
8241.64
8244.83
8247.87
8250.77
8253.53
8256.2
8258.74
8261.15
8263.45
8265.64
8267.73
8269.76
8271.7
8273.56
8275.32
8276.97
8278.52
8279.96
8281.31
8282.52
8283.61
8284.56
8285.37
8286.04
8286.58
8286.97
8287.2
8287.26
8287.15
8286.85
8286.39
8285.76
8284.97
8283.97
8282.79
8281.41
8279.83
8278.07
8276.11
8273.95
8271.58
8269.02
8266.28
8263.34
8260.19
8256.85
8253.29
8249.56
8245.64
8241.56
8237.28
8232.82
8228.18
8223.36
8218.39
8213.27
8208.01
8202.6
8197.04
8191.35
8185.52
8179.59
8173.56
8167.44
8161.22
8154.91
8148.53
8142.08
8135.58
8129.02
8122.43
8115.8
8109.16
8102.5
8095.83
8089.16
8082.5
8075.84
8069.23
8062.65
8056.1
8049.59
8043.12
8036.71
8030.36
8024.09
8017.88
8011.74
8005.69
7999.71
7993.82
7988.03
7982.33
7976.72
7971.2
7965.79
7960.47
7955.27
7950.18
7945.18
7940.3
7935.51
7930.84
7926.26
7921.8
7917.46
7913.22
7909.09
7905.06
7901.14
7897.32
7893.61
7889.99
7886.49
7883.09
7879.78
7876.57
7873.46
7870.44
7867.52
7864.69
7861.95
7859.3
7856.73
7854.25
7851.85
7849.53
7847.29
7845.12
7843.03
7841.02
7839.07
7837.19
7835.38
7833.63
7831.95
7830.32
7828.75
7827.25
7825.79
7824.39
7823.04
7821.74
7820.48
7819.27
7818.1
7816.98
7815.9
7814.85
7813.85
7812.88
7811.94
7811.04
7810.17
7809.33
7808.52
7807.74
7807
7806.29
7805.61
7804.97
7804.36
7803.78
7803.24
7802.74
7802.27
7801.83
7801.43
7801.06
7800.73
7800.43
7800.17
7799.93
7799.73
7799.56
7799.43
7799.32
7799.25
7799.21
7799.19
7799.21
7799.26
7799.33
7799.43
7799.56
7799.71
7799.9
7800.1
7800.33
7800.58
7800.86
7801.16
7801.47
7801.81
7802.17
7802.55
7802.94
7803.35
7803.78
7804.23
7804.69
7805.16
7805.65
7806.14
7806.65
7807.17
7807.71
7808.25
7808.79
7809.35
7809.92
7810.49
7811.07
7811.65
7812.24
7812.84
7813.44
7814.04
7814.65
7815.26
7815.87
7816.48
7817.1
7817.71
7818.33
7818.95
7819.57
7820.2
7820.82
7821.44
7822.07
7822.69
7823.32
7823.94
7824.57
7825.19
7825.82
7826.45
7827.09
7827.72
7828.37
7829.01
7829.66
7830.31
7830.96
7831.62
7832.29
7832.96
7833.65
7834.33
7835.01
7835.71
7836.42
7837.12
7837.86
7838.57
7839.25
7839.98
7840.74
7841.39
7842.38
7843.03
7843.42
7844.11
7844.72
7845.46
7846.2
7847.01
7847.84
7848.71
7849.62
7850.55
7851.52
7852.5
7853.51
7854.55
7855.66
7856.71
7857.92
7859.03
7859.98
7861.15
7862.25
7863.48
7864.68
7865.99
7867.28
7868.65
7870
7871.41
7872.8
7874.27
7875.67
7877.22
7878.64
7880.03
7881.47
7882.94
7884.16
7886.28
7887.44
7888.22
7889.31
7890.48
7891.69
7892.95
7894.24
7895.56
7896.91
7898.28
7899.66
7901.06
7902.48
7903.9
7905.34
7906.79
7908.24
7909.69
7911.15
7912.62
7914.09
7915.56
7917.03
7918.5
7919.97
7921.44
7922.91
7924.38
7925.84
7927.3
7928.75
7930.2
7931.64
7933.08
7934.5
7935.92
7937.33
7938.74
7940.13
7941.51
7942.88
7944.24
7945.59
7946.92
7948.24
7949.55
7950.84
7952.11
7953.37
7954.62
7955.84
7957.05
7958.24
7959.41
7960.57
7961.7
7962.81
7963.9
7964.97
7966.01
7967.04
7968.04
7969.02
7969.97
7970.9
7971.8
7972.68
7973.53
7974.36
7975.16
7975.93
7976.68
7977.39
7978.09
7978.75
7979.39
7979.99
7980.57
7981.15
7981.73
7981.87
7282.72
7277.92
7274.66
7271.65
7269.31
7267.37
7265.69
7263.85
7261.85
7259.67
7257.51
7255.58
7253.68
7251.73
7250.04
7249
7249.12
7250.39
7251.77
7252.92
7254.04
7255.27
7256.54
7257.9
7259.31
7260.77
7262.29
7263.91
7265.75
7268.04
7270.82
7273.99
7277.48
7281.23
7285.14
7289.04
7292.85
7296.75
7300.81
7304.91
7309.11
7313.59
7318.36
7323.11
7327.96
7332.9
7337.87
7343.05
7348.4
7354.05
7359.68
7365.37
7371.11
7376.89
7382.85
7388.93
7395.19
7401.44
7407.74
7414.1
7420.49
7426.92
7433.37
7439.87
7446.37
7452.82
7459.38
7465.95
7472.49
7479.07
7485.71
7492.26
7498.74
7505.17
7511.51
7517.73
7523.81
7529.69
7535.82
7541.96
7546.95
7552.92
7565.24
7572.66
7581.35
7588.97
7596.93
7604.84
7612.59
7621.49
7629.37
7637.89
7645.89
7654.13
7662.2
7670.28
7678.18
7686.01
7693.76
7701.15
7709.24
7716.08
7724.15
7733.75
7742.83
7753.14
7762.47
7771.88
7780.98
7790.17
7799.31
7808.49
7817.66
7826.67
7835.42
7844.21
7852.76
7861.24
7870.43
7877.54
7886.92
7898.57
7908.34
7918.32
7928.01
7937.46
7947.15
7957.03
7966.7
7976.44
7985.99
7995.44
8004.75
8014
8023.16
8032.27
8041.23
8050.02
8058.64
8067.12
8075.46
8083.65
8091.67
8099.48
8107.14
8114.66
8122.01
8129.22
8136.25
8143.06
8149.64
8156.1
8162.41
8168.57
8174.48
8180.21
8185.74
8191.09
8196.27
8201.28
8206.12
8210.77
8215.23
8219.51
8223.64
8227.61
8231.41
8235.02
8238.49
8241.84
8245.04
8248.07
8250.94
8253.71
8256.39
8258.94
8261.36
8263.66
8265.83
8267.91
8269.93
8271.87
8273.75
8275.53
8277.2
8278.75
8280.16
8281.5
8282.74
8283.85
8284.8
8285.6
8286.27
8286.8
8287.21
8287.46
8287.52
8287.41
8287.11
8286.65
8286.03
8285.24
8284.26
8283.07
8281.68
8280.11
8278.35
8276.4
8274.24
8271.86
8269.29
8266.57
8263.63
8260.48
8257.13
8253.57
8249.82
8245.9
8241.82
8237.55
8233.08
8228.44
8223.6
8218.62
8213.49
8208.22
8202.81
8197.24
8191.54
8185.7
8179.76
8173.72
8167.58
8161.36
8155.05
8148.65
8142.19
8135.67
8129.09
8122.48
8115.84
8109.19
8102.54
8095.86
8089.18
8082.5
8075.83
8069.21
8062.63
8056.07
8049.55
8043.07
8036.65
8030.3
8024.01
8017.8
8011.67
8005.6
7999.62
7993.73
7987.93
7982.23
7976.61
7971.1
7965.67
7960.35
7955.15
7950.06
7945.07
7940.18
7935.39
7930.71
7926.14
7921.68
7917.33
7913.1
7908.97
7904.94
7901.02
7897.2
7893.49
7889.87
7886.37
7882.97
7879.67
7876.46
7873.35
7870.33
7867.41
7864.57
7861.83
7859.19
7856.62
7854.14
7851.74
7849.42
7847.18
7845.02
7842.93
7840.91
7838.97
7837.09
7835.28
7833.53
7831.85
7830.23
7828.66
7827.15
7825.7
7824.3
7822.95
7821.64
7820.39
7819.18
7818.02
7816.89
7815.81
7814.77
7813.77
7812.8
7811.86
7810.96
7810.09
7809.25
7808.44
7807.66
7806.92
7806.21
7805.54
7804.89
7804.29
7803.71
7803.17
7802.67
7802.2
7801.77
7801.37
7801
7800.67
7800.37
7800.11
7799.88
7799.68
7799.51
7799.38
7799.27
7799.2
7799.16
7799.15
7799.17
7799.21
7799.29
7799.39
7799.52
7799.68
7799.86
7800.07
7800.3
7800.55
7800.83
7801.13
7801.45
7801.79
7802.15
7802.52
7802.92
7803.33
7803.76
7804.21
7804.67
7805.14
7805.63
7806.13
7806.64
7807.16
7807.69
7808.23
7808.78
7809.34
7809.91
7810.48
7811.06
7811.65
7812.24
7812.83
7813.43
7814.04
7814.64
7815.25
7815.87
7816.48
7817.1
7817.71
7818.33
7818.95
7819.58
7820.2
7820.82
7821.44
7822.07
7822.69
7823.32
7823.94
7824.57
7825.19
7825.82
7826.45
7827.08
7827.72
7828.35
7828.99
7829.63
7830.29
7830.94
7831.61
7832.27
7832.94
7833.61
7834.31
7834.99
7835.72
7836.41
7837.07
7837.77
7838.52
7839.23
7840.22
7840.93
7841.28
7841.99
7842.55
7843.21
7843.87
7844.58
7845.32
7846.1
7846.91
7847.74
7848.63
7849.51
7850.46
7851.4
7852.46
7853.44
7854.6
7855.6
7856.55
7857.61
7858.7
7859.78
7860.96
7862.12
7863.36
7864.6
7865.88
7867.21
7868.52
7869.97
7871.3
7872.87
7874.22
7875.65
7877
7878.55
7879.88
7882.16
7883.51
7884.26
7885.45
7886.64
7887.83
7889.05
7890.29
7891.55
7892.85
7894.17
7895.51
7896.87
7898.24
7899.64
7901.04
7902.46
7903.89
7905.33
7906.78
7908.23
7909.69
7911.15
7912.62
7914.09
7915.56
7917.03
7918.51
7919.98
7921.45
7922.92
7924.39
7925.85
7927.31
7928.76
7930.21
7931.65
7933.09
7934.52
7935.94
7937.36
7938.76
7940.15
7941.54
7942.91
7944.27
7945.62
7946.95
7948.27
7949.58
7950.87
7952.15
7953.41
7954.66
7955.88
7957.09
7958.29
7959.46
7960.61
7961.74
7962.86
7963.95
7965.02
7966.07
7967.09
7968.09
7969.07
7970.03
7970.95
7971.86
7972.74
7973.59
7974.42
7975.22
7975.99
7976.74
7977.46
7978.15
7978.82
7979.45
7980.06
7980.65
7981.22
7981.8
7981.97
7280.04
7276.01
7272.97
7270.14
7267.89
7265.66
7263.57
7261.51
7259.31
7257.02
7255.06
7253.43
7251.83
7249.86
7248.06
7246.96
7247.28
7248.53
7250.15
7251.84
7253.37
7254.72
7256.03
7257.3
7258.63
7259.99
7261.44
7263.01
7264.83
7267.14
7269.84
7272.9
7276.38
7280.16
7284.02
7287.98
7291.92
7295.87
7299.88
7303.92
7308.28
7312.79
7317.67
7322.5
7327.37
7332.31
7337.25
7342.4
7347.75
7353.51
7359.19
7364.9
7370.67
7376.43
7382.33
7388.39
7394.64
7401.04
7407.38
7413.75
7420.18
7426.64
7433.05
7439.49
7446.11
7452.82
7459.58
7466.18
7472.6
7479.12
7485.69
7492.27
7499.02
7505.71
7512.26
7518.71
7525.02
7531.34
7537.91
7544.69
7551.55
7558.39
7564.93
7570.19
7576.38
7589.12
7596.62
7606.08
7613.33
7621.67
7629.39
7637.46
7646.41
7654.33
7662.88
7670.7
7678.82
7687
7695.15
7703.23
7711.57
7719.69
7727.78
7736.31
7743.49
7751.58
7761.45
7770.61
7780.12
7790.5
7800.06
7809.31
7818.39
7827.19
7835.98
7845.09
7853.93
7863.09
7872.44
7881.49
7890.28
7899.43
7906.82
7916.35
7928.04
7937.74
7947.66
7957.32
7966.86
7976.5
7986.24
7995.65
8005.01
8014.3
8023.5
8032.64
8041.57
8050.33
8058.9
8067.39
8075.79
8084.02
8092.06
8099.86
8107.53
8115.06
8122.43
8129.69
8136.68
8143.41
8150.04
8156.51
8162.89
8169.02
8174.88
8180.55
8186.14
8191.58
8196.77
8201.73
8206.49
8211.16
8215.63
8219.9
8224.08
8228.05
8231.84
8235.41
8238.87
8242.25
8245.46
8248.47
8251.33
8254.1
8256.77
8259.35
8261.78
8264.09
8266.27
8268.31
8270.33
8272.27
8274.15
8275.96
8277.64
8279.2
8280.6
8281.91
8283.15
8284.3
8285.29
8286.12
8286.77
8287.29
8287.68
8287.95
8288.05
8287.94
8287.63
8287.18
8286.59
8285.81
8284.82
8283.62
8282.24
8280.68
8278.94
8276.99
8274.82
8272.42
8269.86
8267.15
8264.22
8261.07
8257.71
8254.14
8250.37
8246.44
8242.35
8238.08
8233.61
8228.95
8224.09
8219.09
8213.94
8208.66
8203.24
8197.65
8191.93
8186.06
8180.09
8174.04
8167.91
8161.65
8155.31
8148.89
8142.38
8135.81
8129.23
8122.61
8115.99
8109.32
8102.62
8095.91
8089.21
8082.49
8075.81
8069.17
8062.58
8056.01
8049.47
8042.98
8036.53
8030.18
8023.89
8017.66
8011.5
8005.4
7999.43
7993.55
7987.74
7982.03
7976.41
7970.87
7965.44
7960.12
7954.93
7949.83
7944.83
7939.94
7935.15
7930.47
7925.89
7921.43
7917.08
7912.85
7908.72
7904.7
7900.78
7896.97
7893.24
7889.63
7886.13
7882.74
7879.44
7876.23
7873.12
7870.1
7867.18
7864.35
7861.62
7858.97
7856.4
7853.92
7851.53
7849.21
7846.97
7844.8
7842.71
7840.7
7838.77
7836.89
7835.08
7833.33
7831.65
7830.03
7828.47
7826.96
7825.5
7824.11
7822.76
7821.46
7820.21
7819
7817.84
7816.72
7815.64
7814.6
7813.59
7812.63
7811.69
7810.79
7809.92
7809.09
7808.28
7807.51
7806.77
7806.06
7805.39
7804.75
7804.14
7803.57
7803.04
7802.53
7802.07
7801.63
7801.24
7800.88
7800.55
7800.25
7799.99
7799.76
7799.56
7799.4
7799.27
7799.17
7799.1
7799.06
7799.05
7799.08
7799.13
7799.2
7799.31
7799.44
7799.6
7799.79
7800
7800.23
7800.48
7800.77
7801.07
7801.39
7801.73
7802.09
7802.47
7802.87
7803.29
7803.72
7804.17
7804.63
7805.1
7805.59
7806.09
7806.61
7807.13
7807.67
7808.21
7808.76
7809.32
7809.89
7810.47
7811.05
7811.63
7812.23
7812.82
7813.42
7814.03
7814.64
7815.25
7815.86
7816.48
7817.1
7817.71
7818.33
7818.95
7819.57
7820.2
7820.82
7821.44
7822.06
7822.68
7823.31
7823.93
7824.56
7825.18
7825.8
7826.43
7827.06
7827.69
7828.33
7828.97
7829.62
7830.26
7830.92
7831.57
7832.25
7832.9
7833.62
7834.27
7834.92
7835.59
7836.33
7837.02
7838.01
7838.69
7839.02
7839.69
7840.26
7840.93
7841.6
7842.29
7842.94
7843.67
7844.36
7845.13
7845.89
7846.68
7847.54
7848.4
7849.39
7850.28
7851.36
7852.29
7853.14
7854.13
7855.14
7856.18
7857.28
7858.38
7859.51
7860.69
7861.84
7863.12
7864.31
7865.73
7866.99
7868.53
7869.83
7871.25
7872.55
7874.1
7875.41
7877.75
7879.1
7879.86
7881.07
7882.31
7883.59
7884.93
7886.23
7887.49
7888.74
7890.03
7891.33
7892.66
7894
7895.36
7896.73
7898.13
7899.53
7900.95
7902.38
7903.81
7905.26
7906.72
7908.18
7909.64
7911.11
7912.58
7914.06
7915.54
7917.01
7918.49
7919.97
7921.45
7922.92
7924.39
7925.86
7927.32
7928.78
7930.23
7931.68
7933.12
7934.55
7935.97
7937.39
7938.79
7940.19
7941.58
7942.95
7944.32
7945.67
7947.01
7948.33
7949.64
7950.94
7952.22
7953.48
7954.73
7955.96
7957.18
7958.37
7959.55
7960.7
7961.84
7962.96
7964.05
7965.12
7966.17
7967.2
7968.2
7969.19
7970.14
7971.07
7971.98
7972.86
7973.72
7974.55
7975.35
7976.12
7976.87
7977.59
7978.29
7978.95
7979.59
7980.2
7980.78
7981.36
7981.94
7982.11
7277.49
7273.82
7270.97
7268.24
7265.86
7263.64
7261.33
7259.08
7256.84
7254.51
7252.65
7251.33
7250.18
7248.83
7247.73
7247.12
7247.25
7248.03
7249.18
7250.4
7251.69
7252.99
7254.27
7255.58
7256.98
7258.5
7260.17
7261.97
7263.97
7266.31
7269.13
7272.28
7275.84
7279.45
7283.11
7286.85
7290.72
7294.54
7298.4
7302.68
7307.08
7311.75
7316.71
7321.54
7326.44
7331.46
7336.53
7341.6
7347
7352.77
7358.42
7364.15
7369.96
7375.73
7381.57
7387.67
7394.11
7400.47
7406.83
7413.25
7419.73
7426.25
7432.73
7439.17
7446
7452.84
7459.57
7466.27
7472.88
7479.25
7485.89
7492.58
7499.27
7506.22
7513.11
7519.86
7526.52
7533.04
7539.71
7546.61
7553.7
7560.88
7568.23
7575.52
7582.91
7590.06
7596.71
7602.14
7608.54
7621.49
7629.18
7638.33
7646.32
7654.74
7662.77
7671.67
7679.63
7688.27
7696.73
7705.08
7713.49
7721.75
7730.19
7738.76
7747.47
7756.15
7765.08
7773.56
7780.87
7789.32
7798.95
7808.3
7818.74
7828.23
7837.42
7846.41
7855.48
7864.52
7873.83
7882.86
7892.2
7901.63
7910.86
7919.84
7929.1
7936.47
7945.82
7957.41
7967.28
7977.09
7986.58
7995.74
8005.1
8014.62
8023.95
8033.21
8042.11
8050.92
8059.45
8067.92
8076.27
8084.53
8092.64
8100.5
8108.13
8115.67
8123.14
8130.35
8137.28
8144.02
8150.68
8157.19
8163.6
8169.7
8175.49
8181.21
8186.76
8192.25
8197.47
8202.43
8207.15
8211.77
8216.23
8220.52
8224.72
8228.73
8232.49
8236.04
8239.5
8242.85
8246.11
8249.1
8251.96
8254.73
8257.38
8259.95
8262.44
8264.76
8266.95
8268.97
8270.98
8272.92
8274.83
8276.65
8278.33
8279.89
8281.28
8282.58
8283.81
8284.96
8286.01
8286.86
8287.56
8288.04
8288.42
8288.67
8288.82
8288.75
8288.48
8287.98
8287.38
8286.63
8285.66
8284.47
8283.09
8281.56
8279.82
8277.86
8275.65
8273.27
8270.72
8268.02
8265.1
8261.94
8258.57
8254.96
8251.19
8247.26
8243.17
8238.89
8234.39
8229.72
8224.86
8219.8
8214.62
8209.29
8203.84
8198.26
8192.52
8186.62
8180.6
8174.52
8168.36
8162.08
8155.7
8149.21
8142.65
8136.08
8129.48
8122.86
8116.18
8109.46
8102.72
8095.94
8089.2
8082.49
8075.81
8069.16
8062.52
8055.9
8049.3
8042.8
8036.39
8030.01
8023.69
8017.43
8011.23
8005.14
7999.14
7993.26
7987.45
7981.73
7976.1
7970.56
7965.11
7959.78
7954.57
7949.48
7944.48
7939.58
7934.77
7930.1
7925.55
7921.1
7916.74
7912.48
7908.33
7904.32
7900.42
7896.61
7892.88
7889.27
7885.78
7882.39
7879.08
7875.86
7872.76
7869.76
7866.85
7864.03
7861.29
7858.64
7856.06
7853.59
7851.21
7848.9
7846.66
7844.49
7842.4
7840.39
7838.45
7836.59
7834.77
7833.02
7831.34
7829.73
7828.17
7826.66
7825.21
7823.81
7822.48
7821.18
7819.93
7818.71
7817.55
7816.44
7815.37
7814.33
7813.33
7812.36
7811.43
7810.53
7809.67
7808.84
7808.03
7807.26
7806.53
7805.82
7805.16
7804.52
7803.92
7803.36
7802.82
7802.32
7801.86
7801.43
7801.04
7800.68
7800.36
7800.07
7799.81
7799.59
7799.39
7799.23
7799.11
7799.01
7798.95
7798.92
7798.91
7798.94
7798.99
7799.07
7799.18
7799.32
7799.49
7799.68
7799.89
7800.12
7800.39
7800.67
7800.98
7801.3
7801.65
7802.02
7802.4
7802.8
7803.22
7803.65
7804.1
7804.57
7805.05
7805.54
7806.04
7806.56
7807.09
7807.63
7808.17
7808.73
7809.29
7809.86
7810.44
7811.03
7811.62
7812.21
7812.81
7813.41
7814.02
7814.63
7815.24
7815.86
7816.48
7817.1
7817.71
7818.33
7818.95
7819.58
7820.2
7820.82
7821.44
7822.07
7822.68
7823.31
7823.92
7824.55
7825.17
7825.8
7826.42
7827.05
7827.67
7828.28
7828.93
7829.55
7830.22
7830.85
7831.56
7832.19
7832.81
7833.45
7834.18
7834.84
7835.83
7836.48
7836.78
7837.42
7837.97
7838.63
7839.27
7839.95
7840.55
7841.25
7841.89
7842.6
7843.29
7844.01
7844.79
7845.6
7846.46
7847.28
7848.26
7849.1
7849.87
7850.77
7851.71
7852.65
7853.7
7854.69
7855.81
7856.85
7858.04
7859.13
7860.39
7861.56
7862.92
7864.19
7865.4
7866.79
7868.04
7869.55
7870.82
7873.19
7874.56
7875.3
7876.57
7877.85
7879.17
7880.56
7881.9
7883.2
7884.51
7885.81
7887.12
7888.43
7889.76
7891.1
7892.45
7893.82
7895.2
7896.59
7898
7899.42
7900.85
7902.29
7903.74
7905.2
7906.66
7908.13
7909.6
7911.07
7912.55
7914.03
7915.52
7917
7918.48
7919.97
7921.45
7922.93
7924.4
7925.87
7927.34
7928.81
7930.26
7931.71
7933.16
7934.6
7936.02
7937.44
7938.86
7940.26
7941.65
7943.03
7944.39
7945.75
7947.09
7948.42
7949.74
7951.04
7952.33
7953.59
7954.85
7956.08
7957.3
7958.5
7959.68
7960.84
7961.98
7963.1
7964.2
7965.28
7966.33
7967.36
7968.37
7969.35
7970.31
7971.25
7972.16
7973.04
7973.9
7974.73
7975.54
7976.32
7977.07
7977.79
7978.48
7979.15
7979.79
7980.4
7980.99
7981.56
7982.15
7982.31
7274.9
7271.52
7268.79
7266.09
7263.45
7261.15
7258.77
7256.5
7254.42
7252.14
7250.08
7248.93
7248.17
7247.13
7246.37
7246.02
7246.15
7246.62
7247.42
7248.41
7249.5
7250.69
7251.97
7253.38
7254.91
7256.57
7258.37
7260.3
7262.37
7264.9
7267.73
7270.89
7274.4
7277.89
7281.5
7285.2
7288.79
7292.56
7296.77
7301.1
7305.74
7310.66
7315.39
7320.22
7325.16
7330.23
7335.42
7340.7
7346.11
7351.67
7357.35
7363.12
7368.99
7374.89
7380.79
7386.91
7393.35
7399.69
7406.09
7412.56
7419.1
7425.7
7432.36
7439.08
7445.83
7452.61
7459.41
7466.21
7473
7479.58
7486.07
7492.89
7499.72
7506.76
7513.97
7520.93
7527.86
7534.78
7541.58
7548.57
7555.82
7563.06
7570.28
7577.52
7584.96
7592.63
7600.12
7607.43
7614.35
7621.38
7627.06
7634.19
7647.92
7655.95
7664.75
7672.21
7680.54
7688.75
7698.27
7706.78
7715.72
7724.17
7732.71
7741.21
7749.83
7758.54
7767.45
7776.19
7784.97
7793.69
7802.62
7810.49
7818.92
7828.05
7837.18
7847.64
7857.17
7866.6
7875.67
7884.7
7893.88
7903.34
7912.52
7921.92
7931.43
7940.65
7949.5
7958.64
7966.27
7975.74
7987.2
7996.58
8006.18
8015.43
8024.81
8033.67
8042.57
8051.55
8060.2
8068.66
8076.98
8085.2
8093.26
8101.25
8109.11
8116.68
8124.06
8131.19
8138.04
8144.86
8151.53
8158.16
8164.53
8170.53
8176.36
8182.09
8187.64
8193.15
8198.39
8203.37
8208.09
8212.67
8217.13
8221.41
8225.65
8229.65
8233.38
8236.91
8240.39
8243.71
8246.97
8250.07
8252.88
8255.62
8258.27
8260.84
8263.36
8265.69
8267.87
8269.87
8271.89
8273.87
8275.82
8277.61
8279.28
8280.84
8282.22
8283.51
8284.75
8285.88
8286.97
8287.86
8288.57
8289.1
8289.43
8289.7
8289.87
8289.82
8289.58
8289.13
8288.46
8287.67
8286.71
8285.63
8284.3
8282.75
8280.99
8278.99
8276.78
8274.44
8271.92
8269.23
8266.27
8263.1
8259.67
8256.07
8252.31
8248.41
8244.29
8239.94
8235.36
8230.67
8225.85
8220.83
8215.62
8210.21
8204.65
8198.99
8193.2
8187.3
8181.33
8175.23
8168.98
8162.64
8156.2
8149.63
8143.06
8136.44
8129.83
8123.16
8116.41
8109.63
8102.8
8096.02
8089.25
8082.52
8075.82
8069.12
8062.42
8055.74
8049.12
8042.58
8036.14
8029.76
8023.41
8017.11
8010.89
8004.78
7998.79
7992.89
7987.06
7981.32
7975.67
7970.13
7964.68
7959.32
7954.11
7949.02
7944.01
7939.09
7934.29
7929.61
7925.07
7920.62
7916.26
7912
7907.85
7903.82
7899.91
7896.12
7892.43
7888.83
7885.33
7881.9
7878.59
7875.39
7872.3
7869.31
7866.41
7863.58
7860.84
7858.18
7855.62
7853.15
7850.78
7848.47
7846.24
7844.08
7841.98
7839.97
7838.05
7836.17
7834.35
7832.61
7830.94
7829.34
7827.78
7826.27
7824.81
7823.43
7822.09
7820.8
7819.54
7818.33
7817.17
7816.07
7815
7813.97
7812.96
7811.99
7811.07
7810.18
7809.32
7808.5
7807.7
7806.94
7806.2
7805.5
7804.84
7804.21
7803.63
7803.06
7802.53
7802.03
7801.58
7801.16
7800.78
7800.43
7800.11
7799.83
7799.57
7799.35
7799.16
7799.01
7798.89
7798.81
7798.75
7798.72
7798.73
7798.76
7798.81
7798.9
7799.02
7799.16
7799.34
7799.53
7799.75
7799.99
7800.26
7800.55
7800.86
7801.19
7801.54
7801.91
7802.3
7802.71
7803.13
7803.57
7804.02
7804.49
7804.97
7805.47
7805.98
7806.5
7807.03
7807.58
7808.12
7808.69
7809.25
7809.83
7810.41
7811
7811.59
7812.19
7812.79
7813.39
7814.01
7814.62
7815.23
7815.85
7816.47
7817.09
7817.71
7818.33
7818.95
7819.57
7820.2
7820.82
7821.44
7822.06
7822.68
7823.29
7823.91
7824.54
7825.16
7825.78
7826.37
7827.01
7827.61
7828.27
7828.88
7829.57
7830.18
7830.78
7831.4
7832.11
7832.73
7833.7
7834.33
7834.6
7835.22
7835.73
7836.36
7836.98
7837.62
7838.19
7838.86
7839.46
7840.15
7840.79
7841.48
7842.17
7842.97
7843.69
7844.57
7845.31
7845.91
7846.72
7847.49
7848.37
7849.22
7850.19
7851.1
7852.14
7853.1
7854.19
7855.21
7856.39
7857.49
7858.76
7859.95
7861.04
7862.36
7863.33
7864.99
7866.3
7868.59
7870
7870.66
7871.98
7873.25
7874.58
7876.01
7877.37
7878.69
7880.02
7881.35
7882.68
7884.02
7885.37
7886.72
7888.07
7889.43
7890.8
7892.18
7893.58
7894.98
7896.4
7897.83
7899.27
7900.72
7902.17
7903.63
7905.1
7906.57
7908.05
7909.53
7911.02
7912.51
7914
7915.49
7916.98
7918.47
7919.96
7921.45
7922.93
7924.42
7925.89
7927.37
7928.84
7930.3
7931.76
7933.21
7934.66
7936.09
7937.52
7938.94
7940.34
7941.74
7943.13
7944.5
7945.86
7947.21
7948.55
7949.87
7951.18
7952.47
7953.74
7955
7956.24
7957.47
7958.67
7959.86
7961.03
7962.17
7963.3
7964.4
7965.48
7966.54
7967.58
7968.59
7969.58
7970.55
7971.48
7972.4
7973.29
7974.15
7974.98
7975.79
7976.57
7977.33
7978.05
7978.75
7979.42
7980.06
7980.67
7981.26
7981.84
7982.42
7982.59
7272.18
7268.97
7266.26
7263.59
7260.69
7258.3
7255.9
7253.58
7251.46
7249.31
7247.18
7246.09
7245.62
7244.83
7244.22
7243.95
7243.97
7244.37
7245
7245.84
7246.84
7247.99
7249.27
7250.72
7252.35
7254.15
7256.11
7258.28
7260.62
7263.07
7265.95
7269.22
7272.49
7275.93
7279.54
7283.26
7286.8
7290.57
7294.91
7299.82
7304.38
7308.96
7313.67
7318.53
7323.52
7328.64
7333.88
7339.23
7344.68
7350.27
7355.97
7361.79
7367.72
7373.75
7379.87
7386.02
7392.17
7398.47
7405.08
7411.67
7418.3
7424.98
7431.74
7438.53
7445.36
7452.23
7459.13
7466.06
7473
7479.87
7486.38
7493.16
7500.13
7507.6
7514.85
7521.95
7529.05
7536.2
7543.38
7550.6
7557.81
7564.91
7572.36
7579.97
7587.52
7595.05
7602.51
7609.67
7617.11
7624.88
7632.5
7640.33
7647.63
7653.19
7660.15
7673.76
7681.87
7690.99
7699.61
7708.49
7717.11
7726.53
7735.07
7744
7752.63
7761.48
7770.4
7779.29
7787.95
7796.75
7805.45
7814.32
7823.15
7832.2
7839.97
7848.35
7857.56
7866.71
7877.12
7886.69
7896.21
7905.46
7914.7
7923.88
7933.34
7942.46
7951.73
7961.05
7970.39
7979.35
7988.42
7995.76
8004.87
8016.01
8025.43
8035.13
8043.78
8052.67
8061.09
8069.6
8077.98
8086.16
8094.27
8102.37
8110.16
8117.74
8125.14
8132.26
8139.1
8145.95
8152.72
8159.4
8165.71
8171.75
8177.5
8183.24
8188.86
8194.38
8199.58
8204.57
8209.33
8213.83
8218.28
8222.65
8226.87
8230.83
8234.59
8238.08
8241.54
8244.89
8248.2
8251.27
8254.12
8256.79
8259.45
8262.11
8264.59
8266.91
8269.04
8271.06
8273.11
8275.18
8277.09
8278.85
8280.51
8282.07
8283.5
8284.75
8285.97
8287.09
8288.2
8289.13
8289.86
8290.44
8290.83
8291.03
8291.19
8291.17
8290.95
8290.54
8289.87
8289.08
8288.16
8287.1
8285.77
8284.22
8282.41
8280.4
8278.26
8275.96
8273.48
8270.73
8267.76
8264.51
8261.07
8257.49
8253.78
8249.85
8245.67
8241.24
8236.67
8231.94
8227.1
8222.04
8216.8
8211.39
8205.77
8200.01
8194.17
8188.21
8182.19
8176.04
8169.74
8163.35
8156.86
8150.26
8143.57
8136.92
8130.26
8123.51
8116.68
8109.79
8102.96
8096.13
8089.37
8082.59
8075.8
8069.04
8062.28
8055.53
8048.9
8042.33
8035.87
8029.44
8023.06
8016.72
8010.47
8004.35
7998.35
7992.41
7986.55
7980.79
7975.09
7969.55
7964.14
7958.8
7953.57
7948.44
7943.4
7938.47
7933.68
7929.03
7924.47
7920.01
7915.66
7911.41
7907.25
7903.21
7899.3
7895.52
7891.84
7888.24
7884.74
7881.32
7878
7874.81
7871.74
7868.75
7865.84
7863.01
7860.26
7857.61
7855.08
7852.62
7850.24
7847.93
7845.7
7843.53
7841.45
7839.45
7837.52
7835.65
7833.84
7832.09
7830.44
7828.83
7827.27
7825.77
7824.31
7822.93
7821.6
7820.31
7819.06
7817.85
7816.7
7815.6
7814.53
7813.49
7812.49
7811.53
7810.62
7809.73
7808.87
7808.05
7807.27
7806.51
7805.79
7805.1
7804.44
7803.82
7803.24
7802.69
7802.17
7801.68
7801.24
7800.83
7800.45
7800.1
7799.79
7799.51
7799.26
7799.05
7798.87
7798.73
7798.63
7798.55
7798.5
7798.48
7798.49
7798.53
7798.59
7798.68
7798.81
7798.96
7799.14
7799.34
7799.57
7799.82
7800.09
7800.39
7800.71
7801.04
7801.4
7801.78
7802.17
7802.58
7803.01
7803.46
7803.92
7804.4
7804.88
7805.38
7805.9
7806.43
7806.97
7807.51
7808.07
7808.63
7809.21
7809.79
7810.37
7810.96
7811.56
7812.16
7812.76
7813.37
7813.99
7814.61
7815.22
7815.84
7816.46
7817.09
7817.71
7818.33
7818.95
7819.58
7820.2
7820.83
7821.44
7822.07
7822.68
7823.31
7823.92
7824.54
7825.14
7825.78
7826.38
7827.03
7827.63
7828.17
7828.8
7829.35
7830.08
7830.65
7831.64
7832.22
7832.47
7833.06
7833.56
7834.16
7834.75
7835.36
7835.89
7836.53
7837.08
7837.74
7838.33
7838.97
7839.61
7840.36
7841.02
7841.83
7842.52
7842.98
7843.75
7844.38
7845.19
7845.95
7846.84
7847.66
7848.61
7849.47
7850.5
7851.41
7852.54
7853.52
7854.8
7855.82
7857.01
7858.1
7859.34
7860.58
7862.55
7863.86
7864.47
7866.19
7867.23
7868.52
7869.86
7871.32
7872.7
7874.03
7875.38
7876.73
7878.08
7879.44
7880.81
7882.17
7883.54
7884.92
7886.3
7887.69
7889.08
7890.49
7891.9
7893.32
7894.75
7896.19
7897.64
7899.1
7900.56
7902.03
7903.51
7904.99
7906.48
7907.97
7909.47
7910.96
7912.46
7913.96
7915.46
7916.96
7918.46
7919.96
7921.45
7922.95
7924.44
7925.93
7927.41
7928.89
7930.36
7931.83
7933.28
7934.74
7936.18
7937.61
7939.04
7940.45
7941.86
7943.25
7944.64
7946.01
7947.36
7948.71
7950.03
7951.35
7952.65
7953.93
7955.2
7956.45
7957.68
7958.89
7960.09
7961.26
7962.41
7963.54
7964.65
7965.74
7966.81
7967.85
7968.87
7969.87
7970.84
7971.78
7972.7
7973.59
7974.46
7975.3
7976.11
7976.89
7977.65
7978.38
7979.08
7979.75
7980.4
7981.01
7981.6
7982.18
7982.76
7982.93
7269.1
7265.94
7263.22
7260.54
7257.55
7255.03
7252.59
7250.27
7248.19
7246.24
7244.35
7242.95
7242.55
7241.85
7241.35
7241.14
7241.19
7241.48
7242.03
7242.8
7243.78
7244.92
7246.24
7247.72
7249.39
7251.22
7253.26
7255.52
7257.98
7260.66
7263.53
7266.59
7269.86
7273.33
7276.97
7280.77
7284.75
7288.88
7293.17
7297.62
7302.12
7306.74
7311.46
7316.37
7321.5
7326.71
7332
7337.39
7342.89
7348.51
7354.22
7360.12
7366.17
7372.29
7378.47
7384.65
7390.54
7396.51
7403.64
7410.52
7417.29
7424.08
7430.92
7437.81
7444.75
7451.72
7458.73
7465.78
7472.86
7479.96
7486.94
7493.6
7500.69
7508.23
7515.54
7522.82
7530.13
7537.46
7544.83
7552.23
7559.59
7566.73
7574.14
7581.94
7589.84
7597.57
7605.25
7612.82
7620.19
7628.08
7636.07
7644.01
7652.06
7659.88
7667.33
7674.17
7679.96
7687.74
7702.58
7711.09
7720.25
7728.73
7737.49
7746.07
7755.67
7764.24
7773.48
7782.24
7791.07
7799.41
7808.48
7817.59
7826.5
7835.35
7844.08
7852.83
7861.98
7869.95
7878.44
7887.49
7896.57
7907.24
7917.08
7926.64
7935.89
7944.84
7953.9
7963.35
7972.64
7981.91
7991.5
8000.51
8009.71
8018.1
8026.72
8033.84
8042.84
8053.53
8062.32
8070.93
8079.31
8087.34
8095.43
8103.62
8111.42
8119.03
8126.44
8133.51
8140.39
8147.3
8154.27
8160.8
8167.11
8173.21
8178.99
8184.64
8190.43
8195.83
8201.02
8206.01
8210.82
8215.37
8219.79
8224.2
8228.34
8232.3
8236.08
8239.62
8243.02
8246.49
8249.71
8252.75
8255.63
8258.3
8261.05
8263.66
8266.1
8268.4
8270.55
8272.56
8274.75
8276.77
8278.63
8280.39
8281.99
8283.49
8285.04
8286.43
8287.59
8288.62
8289.66
8290.63
8291.44
8292.05
8292.49
8292.78
8292.79
8292.66
8292.45
8292.08
8291.63
8290.93
8290.01
8288.88
8287.54
8285.94
8284.11
8282.18
8280.08
8277.83
8275.3
8272.53
8269.55
8266.33
8262.83
8259.22
8255.45
8251.54
8247.35
8242.93
8238.26
8233.53
8228.63
8223.5
8218.17
8212.72
8207.14
8201.36
8195.36
8189.31
8183.2
8177.01
8170.66
8164.19
8157.64
8150.94
8144.18
8137.51
8130.75
8123.92
8117.05
8110.09
8103.15
8096.28
8089.46
8082.61
8075.75
8068.93
8062.11
8055.31
8048.62
8042.05
8035.53
8029.04
8022.63
8016.28
8009.95
8003.82
7997.79
7991.82
7985.94
7980.12
7974.41
7968.86
7963.45
7958.11
7952.87
7947.73
7942.68
7937.74
7932.95
7928.3
7923.74
7919.28
7914.93
7910.68
7906.53
7902.48
7898.59
7894.81
7891.12
7887.52
7884.03
7880.63
7877.33
7874.1
7871.04
7868.06
7865.15
7862.33
7859.59
7856.92
7854.4
7851.95
7849.57
7847.26
7845.04
7842.89
7840.82
7838.82
7836.88
7835.01
7833.2
7831.48
7829.82
7828.21
7826.66
7825.16
7823.71
7822.32
7820.99
7819.7
7818.46
7817.27
7816.12
7815.01
7813.95
7812.91
7811.92
7810.98
7810.06
7809.18
7808.33
7807.52
7806.74
7806
7805.29
7804.61
7803.96
7803.35
7802.77
7802.23
7801.72
7801.25
7800.82
7800.41
7800.04
7799.71
7799.4
7799.13
7798.9
7798.7
7798.54
7798.4
7798.3
7798.23
7798.19
7798.18
7798.2
7798.25
7798.33
7798.43
7798.56
7798.72
7798.91
7799.12
7799.35
7799.61
7799.89
7800.2
7800.52
7800.86
7801.23
7801.61
7802.02
7802.44
7802.88
7803.33
7803.8
7804.28
7804.78
7805.28
7805.81
7806.34
7806.88
7807.44
7808
7808.57
7809.15
7809.74
7810.33
7810.93
7811.53
7812.13
7812.74
7813.36
7813.98
7814.59
7815.21
7815.83
7816.46
7817.08