/*--------------------------------*- C++ -*----------------------------------*\
| =========                 |                                                 |
| \\      /  F ield         | OpenFOAM: The Open Source CFD Toolbox           |
|  \\    /   O peration     | Version:  v2006                                 |
|   \\  /    A nd           | Website:  www.openfoam.com                      |
|    \\/     M anipulation  |                                                 |
\*---------------------------------------------------------------------------*/
FoamFile
{
    version     2.0;
    format      ascii;
    class       volScalarField;
    location    "6.7";
    object      omega;
}
// * * * * * * * * * * * * * * * * * * * * * * * * * * * * * * * * * * * * * //

dimensions      [0 0 -1 0 0 0 0];


internalField   nonuniform List<scalar> 
33000
(
0.801552
0.802208
0.80293
0.803477
0.803927
0.804361
0.804741
0.805057
0.805351
0.805695
0.806126
0.806672
0.807361
0.808208
0.809174
0.810111
0.810771
0.811187
0.811746
0.812824
0.815313
0.820609
0.829127
0.838486
0.84575
0.850065
0.852239
0.853334
0.853956
0.854305
0.854389
0.854217
0.853836
0.853311
0.852803
0.852488
0.852396
0.852417
0.852306
0.85184
0.851264
0.850862
0.850612
0.850436
0.850243
0.849881
0.849282
0.848682
0.848191
0.847807
0.84759
0.847567
0.847749
0.848081
0.848439
0.848629
0.848476
0.847895
0.84694
0.845665
0.844028
0.842001
0.839605
0.836632
0.833817
0.831691
0.830067
0.828527
0.826941
0.825326
0.823792
0.822401
0.821403
0.820929
0.82096
0.821618
0.823028
0.825342
0.827662
0.829963
0.831898
0.833632
0.835378
0.836257
0.836995
0.837126
0.837015
0.836605
0.83588
0.834734
0.832906
0.830834
0.828685
0.826571
0.824537
0.823043
0.822054
0.82153
0.821694
0.823129
0.825302
0.826249
0.8263
0.826285
0.826436
0.82655
0.826493
0.826224
0.825843
0.825393
0.824929
0.824415
0.82374
0.822822
0.821802
0.821044
0.820769
0.821434
0.822387
0.822617
0.822587
0.822515
0.822581
0.822697
0.822796
0.822848
0.822868
0.822869
0.822898
0.822938
0.822979
0.823012
0.823044
0.823074
0.823116
0.823163
0.823229
0.823301
0.823386
0.823478
0.823576
0.823679
0.823781
0.823876
0.823954
0.824018
0.824075
0.824132
0.824181
0.824213
0.82423
0.824235
0.824235
0.824233
0.824224
0.824203
0.824172
0.824131
0.824083
0.824027
0.823966
0.8239
0.823828
0.823747
0.823656
0.823558
0.823458
0.823353
0.823239
0.823118
0.822999
0.822884
0.822767
0.822643
0.822514
0.822389
0.822274
0.822166
0.82206
0.821958
0.821863
0.821773
0.821682
0.821591
0.821507
0.821438
0.82138
0.821326
0.821267
0.821203
0.821138
0.821076
0.821017
0.820957
0.820888
0.820806
0.82071
0.820606
0.820502
0.820407
0.820316
0.820215
0.820095
0.819956
0.819813
0.819676
0.819546
0.819416
0.819274
0.819124
0.818982
0.818859
0.818749
0.818629
0.818497
0.818377
0.818278
0.8182
0.818141
0.818081
0.818012
0.817941
0.817883
0.817842
0.817819
0.817804
0.817781
0.817749
0.817717
0.817686
0.817665
0.817656
0.81765
0.817631
0.817603
0.817575
0.817547
0.81752
0.817494
0.817466
0.817434
0.817401
0.817367
0.817326
0.817275
0.81722
0.817168
0.817119
0.817074
0.817017
0.816946
0.816875
0.816808
0.816741
0.816674
0.816602
0.816522
0.81644
0.816357
0.816272
0.816187
0.816099
0.816006
0.815909
0.81581
0.815713
0.815619
0.815522
0.815418
0.815307
0.815197
0.815088
0.814981
0.814875
0.814767
0.814656
0.814542
0.814427
0.814313
0.814198
0.814084
0.813971
0.813861
0.813751
0.813637
0.813522
0.81341
0.813301
0.813193
0.813088
0.812983
0.812878
0.812773
0.812671
0.812571
0.812475
0.812379
0.812283
0.812182
0.812076
0.811963
0.811843
0.811716
0.811578
0.811427
0.811263
0.811087
0.810904
0.810721
0.810539
0.810361
0.810189
0.810021
0.809858
0.8097
0.809547
0.809401
0.80926
0.809126
0.808998
0.808876
0.808764
0.80866
0.808567
0.808483
0.808409
0.808345
0.808288
0.808238
0.808195
0.808157
0.808125
0.808097
0.808073
0.808052
0.808034
0.808017
0.807999
0.80798
0.807958
0.807932
0.807905
0.807874
0.807842
0.807808
0.807771
0.807732
0.807691
0.807649
0.807606
0.807561
0.807514
0.807465
0.807415
0.807363
0.80731
0.807255
0.807199
0.807142
0.807084
0.807024
0.806964
0.806903
0.806841
0.806778
0.806714
0.80665
0.806586
0.806521
0.806456
0.80639
0.806325
0.806259
0.806192
0.806126
0.806059
0.805991
0.805923
0.805855
0.805786
0.805716
0.805646
0.805575
0.805504
0.805433
0.805362
0.80529
0.805219
0.805147
0.805076
0.805005
0.804937
0.804869
0.804804
0.80474
0.804679
0.80462
0.804563
0.804508
0.804455
0.804404
0.804355
0.804309
0.804265
0.804223
0.804183
0.804146
0.80411
0.804077
0.804046
0.804017
0.803989
0.803963
0.803938
0.803915
0.803892
0.80387
0.80385
0.803829
0.803805
0.803785
0.803762
0.803739
0.80372
0.803676
0.803637
0.803628
0.803575
0.803571
0.803554
0.803648
0.803682
0.803736
0.803757
0.803776
0.803778
0.803773
0.803765
0.803754
0.803745
0.803729
0.803728
0.803705
0.80367
0.803662
0.803618
0.803576
0.80352
0.803557
0.803578
0.803619
0.80365
0.80367
0.803685
0.803694
0.803703
0.803706
0.803695
0.803686
0.80368
0.803658
0.803676
0.803652
0.803579
0.803555
0.803485
0.803451
0.803445
0.803622
0.8038
0.804174
0.8046
0.805023
0.805409
0.805737
0.806005
0.806225
0.806405
0.806552
0.806669
0.806766
0.80685
0.806919
0.806979
0.807032
0.807075
0.807114
0.80715
0.807182
0.807207
0.807231
0.807254
0.807275
0.807293
0.807306
0.807319
0.80733
0.80734
0.807348
0.807354
0.807361
0.807365
0.807364
0.807361
0.807358
0.807355
0.80735
0.807345
0.807338
0.80733
0.80732
0.807309
0.807298
0.807285
0.807271
0.807259
0.807246
0.807232
0.807216
0.807198
0.807179
0.807159
0.807139
0.807117
0.807095
0.807072
0.807049
0.807026
0.807003
0.806979
0.806956
0.806933
0.806911
0.806889
0.806867
0.806845
0.806823
0.806802
0.806781
0.80676
0.806739
0.806719
0.806697
0.806674
0.806651
0.806631
0.806613
0.806589
0.806556
0.806454
0.0875231
0.338729
0.615387
0.750195
0.816878
0.871471
0.902063
0.879779
0.824993
0.770788
0.774977
0.844756
0.944927
1.0581
1.17907
1.30576
1.4133
1.46132
1.44648
1.38594
1.29259
1.19823
1.14011
1.09506
1.03487
0.954955
0.868248
0.808303
0.784622
0.780924
0.765763
0.719717
0.660283
0.604855
0.552408
0.521866
0.532243
0.567711
0.583678
0.568936
0.518981
0.470179
0.460115
0.48636
0.515088
0.519021
0.495495
0.448251
0.407185
0.388021
0.383337
0.387871
0.398947
0.423938
0.44947
0.457172
0.454239
0.452661
0.463939
0.489395
0.510553
0.516032
0.514142
0.519947
0.541491
0.584289
0.647355
0.723535
0.80529
0.878176
0.930453
0.948996
0.961749
0.985773
1.0201
1.06926
1.13021
1.19399
1.22117
1.2518
1.31861
1.38423
1.26157
1.2394
1.07979
0.956743
0.787464
0.622714
0.481909
0.389689
0.357313
0.368383
0.42115
0.509436
0.617226
0.72963
0.830943
0.903253
0.946132
0.995767
1.01997
0.990604
0.891659
0.735155
0.595137
0.4485
0.317671
0.240985
0.206813
0.179281
0.16392
0.167063
0.178489
0.196049
0.214108
0.226684
0.233633
0.243989
0.261898
0.260787
0.228001
0.197068
0.189051
0.172574
0.156429
0.151853
0.144185
0.139165
0.138688
0.136275
0.134661
0.134237
0.133091
0.133629
0.133951
0.13415
0.133938
0.133522
0.133606
0.133346
0.133136
0.132536
0.131706
0.130656
0.12987
0.129498
0.129351
0.129146
0.128579
0.127659
0.127047
0.126848
0.126752
0.126546
0.126202
0.125917
0.125669
0.125421
0.12513
0.124801
0.124565
0.124398
0.124066
0.123558
0.123185
0.122975
0.122667
0.122058
0.121375
0.120883
0.12052
0.120072
0.119404
0.118535
0.117694
0.116964
0.116323
0.115625
0.114818
0.11391
0.11292
0.111811
0.11056
0.109301
0.108158
0.107142
0.106158
0.105032
0.103725
0.102362
0.101075
0.0999331
0.0988781
0.0977824
0.0965484
0.09517
0.0937521
0.0924373
0.0913045
0.0903036
0.0892937
0.088158
0.086872
0.0855118
0.0842105
0.0830465
0.0819802
0.0809021
0.0797456
0.0785446
0.07741
0.0763473
0.0752369
0.0739907
0.07267
0.0714968
0.0705565
0.0697302
0.0687911
0.0676009
0.0662832
0.0650751
0.0641147
0.06336
0.0626685
0.0618798
0.060929
0.0599263
0.0590275
0.0583281
0.0578191
0.0573525
0.0567983
0.0561614
0.0555452
0.0550418
0.0546788
0.0544354
0.0542243
0.0539926
0.0537901
0.0536454
0.0535042
0.0533225
0.053142
0.0530553
0.0531387
0.053295
0.0533296
0.053214
0.0530987
0.0531065
0.0532233
0.0533467
0.0534138
0.0534166
0.0533761
0.0533478
0.053368
0.0534092
0.0534238
0.0533722
0.0532745
0.0532234
0.0532939
0.0534637
0.0536023
0.0535569
0.0533546
0.0531615
0.0530901
0.0531684
0.0533464
0.0534949
0.0535245
0.0534634
0.0533935
0.0533516
0.0533296
0.053321
0.0533838
0.0535614
0.0537258
0.0537353
0.0536297
0.0535401
0.0535268
0.0535912
0.0537279
0.0538698
0.0539144
0.0538525
0.0537707
0.0537302
0.0537712
0.0538786
0.0539383
0.0539124
0.053838
0.0537317
0.0536597
0.0536478
0.0535991
0.0534689
0.0532847
0.0531147
0.0529531
0.0527455
0.0524705
0.0521586
0.0518905
0.0516875
0.0514743
0.0511611
0.0507677
0.050405
0.0501108
0.0498188
0.0495071
0.0491932
0.048919
0.0487121
0.0485142
0.0482889
0.0480877
0.0479804
0.0479625
0.0479451
0.0478953
0.0478672
0.0479321
0.0481221
0.0483381
0.0484577
0.0484677
0.0484459
0.0484621
0.0485298
0.0486338
0.0487071
0.0487084
0.0486764
0.0486553
0.0486997
0.0487841
0.0487981
0.0487254
0.0486354
0.0486062
0.0486425
0.0486718
0.0486128
0.0484995
0.0484522
0.048449
0.0483929
0.0483058
0.0482285
0.0481547
0.0480635
0.0479655
0.0478728
0.0477823
0.0477079
0.0476328
0.0475359
0.0474023
0.047256
0.0471148
0.0469944
0.0468653
0.0466883
0.0464634
0.0462339
0.0460324
0.0458292
0.0456149
0.0453973
0.0451963
0.044985
0.0447081
0.0443776
0.0440509
0.0437628
0.0434892
0.0432104
0.0429268
0.0425858
0.0422176
0.041883
0.0415905
0.0412439
0.0408443
0.0404743
0.0401312
0.039752
0.0394038
0.0390823
0.0387366
0.0383445
0.0379119
0.0374744
0.0370936
0.0367272
0.0363534
0.0359844
0.0355239
0.0350652
0.0346178
0.0342295
0.033878
0.0334978
0.033158
0.0326666
0.0323272
0.0320346
0.0316973
0.0315934
0.0313419
0.0306151
0.0303472
0.0301339
0.029947
0.0315193
0.0319483
0.0299478
0.0308857
0.0301959
0.0301152
0.0304465
0.0308381
0.0298393
0.0285272
0.0273588
0.0268672
0.0264168
0.0261037
0.0258885
0.0258966
0.0259544
0.0260881
0.0286713
0.0305282
0.0277426
0.0293763
0.0291712
0.0286991
0.0283998
0.0285002
0.0284225
0.0271073
0.0261423
0.025458
0.0251367
0.0251089
0.0251075
0.0255112
0.0258721
0.0254822
0.0260663
0.0260709
0.028376
0.0420165
0.0461406
0.0506879
0.0500567
0.052759
0.0563429
0.0637078
0.0677039
0.0639868
0.0632594
0.0579342
0.0500391
0.0426797
0.0370951
0.0332659
0.0307324
0.0290832
0.0280124
0.0273285
0.0268981
0.0266281
0.0264863
0.0264429
0.0264551
0.0265228
0.0266281
0.0267434
0.026839
0.0269457
0.0270841
0.0272376
0.0273839
0.0275106
0.0276218
0.0277269
0.0278253
0.0279192
0.0280029
0.0280939
0.0281399
0.0281108
0.0280457
0.0279922
0.0279738
0.0279964
0.0280476
0.0281079
0.0281688
0.0282336
0.0283063
0.0283876
0.0284461
0.0285241
0.0286602
0.0288166
0.028935
0.0289945
0.0290016
0.0289741
0.0289348
0.0289061
0.0289066
0.028943
0.0290036
0.0290596
0.0290831
0.0290749
0.0290697
0.0291095
0.0292069
0.02932
0.0293851
0.0293843
0.0293679
0.0293944
0.029448
0.0294651
0.029421
0.0293825
0.0293387
0.0292196
0.0290361
0.02889
0.0289576
0.0291042
0.0297078
0.0314326
0.0312131
0.0677441
0.210134
0.285033
0.297245
0.315463
0.355314
0.392635
0.420003
0.426918
0.426419
0.446423
0.508339
0.620433
0.779614
0.959354
1.13483
1.27438
1.35156
1.34927
1.29077
1.20835
1.11466
1.0135
0.900417
0.776579
0.658847
0.570233
0.519883
0.499946
0.491941
0.475551
0.443231
0.403279
0.367117
0.340423
0.326984
0.326447
0.335559
0.339513
0.332544
0.312125
0.288919
0.278203
0.285462
0.295976
0.296779
0.286995
0.265265
0.240231
0.221604
0.214624
0.216234
0.222265
0.229171
0.233541
0.235734
0.235234
0.238497
0.257816
0.277454
0.287898
0.288325
0.280467
0.2655
0.254653
0.260171
0.277788
0.303282
0.335156
0.362906
0.378863
0.389641
0.401911
0.422965
0.455721
0.500622
0.556713
0.625445
0.723546
0.83235
0.986267
1.06899
1.12106
1.20237
1.2005
1.07609
0.951158
0.770684
0.600577
0.465724
0.365784
0.303507
0.283252
0.288581
0.316831
0.347346
0.373354
0.388866
0.398364
0.403246
0.406515
0.40951
0.417381
0.413011
0.40014
0.367851
0.320526
0.264584
0.205818
0.146829
0.0969315
0.066296
0.0478428
0.0417199
0.0453218
0.0506955
0.0535654
0.0536055
0.0520146
0.0499045
0.0523719
0.0563343
0.0562699
0.0468387
0.0380289
0.0350342
0.0307097
0.0273892
0.0264706
0.0247452
0.0235875
0.023318
0.0228484
0.0229729
0.0232164
0.0233624
0.0232849
0.0230837
0.0230663
0.0229156
0.022872
0.0227287
0.022497
0.0222266
0.022029
0.0219278
0.0218604
0.0217477
0.0215605
0.021359
0.0212409
0.0211933
0.0211414
0.0210442
0.0209284
0.0208623
0.0208286
0.0207825
0.0207017
0.0205981
0.0205073
0.0204249
0.0203176
0.0201856
0.0200752
0.0199848
0.0198682
0.0196937
0.019489
0.0193172
0.0191819
0.0190289
0.0188295
0.0185807
0.0183162
0.0180728
0.0178572
0.0176371
0.0173931
0.0171204
0.0168308
0.016514
0.0161572
0.0157884
0.015442
0.0151339
0.0148515
0.0145544
0.0142219
0.0138663
0.0135117
0.0131826
0.0128829
0.0125962
0.0122995
0.0119777
0.011638
0.0113081
0.0110174
0.0107685
0.0105299
0.0102665
0.00997168
0.00966826
0.00938681
0.00913995
0.00891306
0.00868147
0.00843695
0.00819425
0.00797443
0.00777501
0.00756722
0.00733167
0.00708916
0.00687859
0.00670971
0.00656416
0.00641333
0.00623319
0.00603087
0.0058381
0.00567838
0.00555427
0.00544893
0.00533949
0.00521064
0.00507244
0.00494259
0.00483622
0.00475821
0.00469137
0.00461774
0.00453266
0.00444957
0.00438148
0.00433249
0.00429958
0.00427165
0.00424204
0.00421333
0.00418936
0.00416893
0.00414825
0.00413013
0.00412163
0.00412888
0.00414346
0.00414835
0.0041404
0.00413301
0.00413684
0.0041491
0.00416025
0.0041673
0.00417103
0.00417294
0.00417741
0.00418451
0.0041884
0.00418629
0.00417909
0.00417134
0.00417073
0.0041829
0.0042043
0.00421989
0.00421468
0.00419422
0.0041762
0.00417203
0.00418269
0.0042006
0.00421561
0.00422253
0.00422242
0.00421914
0.00421519
0.00421175
0.0042114
0.0042213
0.00424353
0.00426369
0.00426734
0.00425859
0.00425226
0.00425502
0.00426477
0.00427999
0.0042958
0.00430318
0.00430136
0.00429848
0.00429869
0.00430444
0.00431481
0.0043216
0.00432414
0.00432387
0.00431689
0.00430766
0.00430227
0.00429721
0.0042885
0.00427163
0.00425025
0.00422893
0.00420664
0.00417888
0.00414532
0.00411295
0.00408526
0.00405882
0.00402443
0.00398033
0.00393617
0.00389759
0.00386176
0.00382713
0.00379231
0.00375865
0.00372901
0.00370121
0.00367452
0.00365334
0.00364039
0.00363289
0.00362497
0.00361606
0.00361179
0.00361658
0.00363069
0.00364625
0.00365405
0.0036532
0.00365017
0.0036499
0.00365253
0.00365764
0.00366167
0.00366159
0.00365836
0.00365541
0.0036583
0.00366287
0.00366046
0.00365278
0.00364571
0.00364393
0.00364608
0.00364657
0.00364046
0.00363064
0.00362529
0.00362287
0.00361752
0.00361074
0.00360324
0.00359448
0.00358464
0.00357532
0.00356682
0.00355751
0.00354891
0.00354012
0.00352994
0.00351764
0.00350395
0.00348998
0.00347707
0.00346316
0.00344533
0.00342282
0.00339951
0.00337849
0.00335778
0.00333655
0.00331354
0.0032904
0.0032668
0.00323949
0.00320814
0.00317593
0.00314672
0.00311877
0.0030898
0.00305963
0.00302546
0.0029906
0.00295789
0.00292655
0.00289163
0.00285501
0.00282145
0.00278869
0.0027524
0.00271837
0.00268611
0.00265368
0.00262012
0.00258246
0.00254481
0.00251078
0.00247723
0.00244266
0.00241121
0.00237537
0.00233958
0.00230263
0.00226633
0.0022343
0.00219904
0.00217268
0.00214092
0.00212352
0.00210365
0.00206503
0.00204121
0.00202774
0.00203765
0.00209625
0.0021319
0.00206015
0.00216754
0.00214626
0.00199839
0.00189514
0.00184672
0.0018849
0.00192259
0.00195095
0.00188552
0.00180779
0.00175171
0.00171122
0.00168833
0.00169553
0.00176384
0.00185106
0.00193905
0.00188714
0.00205693
0.00209747
0.00197181
0.00186102
0.00179202
0.00181389
0.00177423
0.00180414
0.00176318
0.00173135
0.0017218
0.00170535
0.00170954
0.00169637
0.0016339
0.00168556
0.00174629
0.00188803
0.00243236
0.00286615
0.00345194
0.00409863
0.00437167
0.00433521
0.00407223
0.00398152
0.00371364
0.00411558
0.00439599
0.00443039
0.00416957
0.0036911
0.00317468
0.00272274
0.00238245
0.00214951
0.00199515
0.0018929
0.00182198
0.00177229
0.00173865
0.00171517
0.00170007
0.00169218
0.00168767
0.00168647
0.00168844
0.00169209
0.00169511
0.00169941
0.00170676
0.00171576
0.0017244
0.0017321
0.00173912
0.00174583
0.00175219
0.00175839
0.00176384
0.00176975
0.00177355
0.00177351
0.0017716
0.0017704
0.00177091
0.00177292
0.00177602
0.00177969
0.00178367
0.00178811
0.00179337
0.00179956
0.0018045
0.00180988
0.00181785
0.00182664
0.00183345
0.00183737
0.00183885
0.00183867
0.0018377
0.00183695
0.00183753
0.00184013
0.00184437
0.00184875
0.00185178
0.00185331
0.00185505
0.00185922
0.00186604
0.00187264
0.00187609
0.00187654
0.00187695
0.00187966
0.00188274
0.00188327
0.00188102
0.00187998
0.00187936
0.00187419
0.0018661
0.00186007
0.00187317
0.001895
0.00196951
0.00213473
0.0021722
0.0649375
0.137328
0.155792
0.155366
0.167125
0.199444
0.236517
0.268795
0.282165
0.28656
0.301179
0.337159
0.395598
0.481601
0.612635
0.772004
0.909487
0.970847
0.973458
0.95126
0.907821
0.828861
0.722272
0.607926
0.497817
0.406157
0.343731
0.31191
0.301218
0.296382
0.284812
0.262107
0.234607
0.211194
0.196378
0.188734
0.184877
0.184786
0.184601
0.18081
0.172085
0.162686
0.156754
0.156058
0.158172
0.158202
0.154259
0.145692
0.135706
0.126119
0.11877
0.114333
0.113591
0.114918
0.116768
0.118983
0.118616
0.121477
0.13265
0.144237
0.151594
0.154477
0.151267
0.142417
0.135551
0.134031
0.138274
0.148771
0.163395
0.179407
0.198671
0.216454
0.232997
0.251562
0.276525
0.310717
0.35042
0.390697
0.428704
0.466189
0.527133
0.587637
0.641693
0.724548
0.721309
0.705529
0.698515
0.674769
0.617441
0.52638
0.438098
0.34237
0.275682
0.231052
0.204043
0.194846
0.195682
0.201045
0.202613
0.201518
0.197352
0.194432
0.193981
0.195564
0.198838
0.205657
0.206946
0.206145
0.200021
0.178728
0.146274
0.117596
0.0858597
0.0546947
0.0339009
0.0214324
0.0156011
0.0138453
0.0136037
0.0135307
0.0134243
0.013786
0.0141982
0.0155529
0.0167369
0.016467
0.0129
0.0100555
0.00895047
0.00777142
0.00688043
0.00648598
0.00594234
0.00566238
0.00561191
0.00560147
0.00557437
0.00552882
0.0055112
0.00541606
0.00536538
0.0053259
0.00526637
0.00521738
0.00517612
0.0051387
0.00510436
0.00506551
0.00502206
0.00499014
0.00497048
0.00495464
0.00493571
0.00491133
0.00488732
0.00487354
0.00486635
0.00485963
0.00484667
0.00482691
0.00480347
0.00477844
0.00475418
0.00472974
0.00470644
0.00468219
0.00465394
0.00461876
0.00457631
0.00453568
0.00450252
0.00446973
0.00442949
0.00437972
0.00432473
0.00427222
0.00422459
0.00417755
0.00412714
0.00407262
0.00401641
0.00395663
0.00388993
0.00381895
0.00375024
0.00368786
0.00363204
0.00357783
0.00351974
0.00345697
0.00339161
0.00332808
0.00326993
0.00321727
0.00316697
0.00311384
0.00305555
0.00299594
0.00294238
0.00289735
0.00285554
0.00280925
0.00275585
0.00270138
0.00265287
0.00261119
0.00257227
0.00253056
0.00248482
0.00243858
0.0023962
0.0023596
0.0023238
0.00228252
0.00223845
0.00219737
0.00216003
0.00212606
0.00209522
0.0020637
0.00202833
0.00199066
0.00195383
0.00192174
0.00189563
0.00187309
0.00184858
0.00182063
0.00179099
0.00176281
0.00173925
0.00171957
0.00170144
0.00168275
0.00166431
0.00164678
0.00163128
0.00161667
0.00160207
0.00158992
0.00158013
0.00157185
0.00156394
0.00155477
0.00154529
0.00153725
0.00153144
0.00152775
0.00152561
0.00152313
0.00151929
0.00151477
0.0015109
0.00150828
0.00150703
0.00150676
0.00150613
0.00150443
0.00150224
0.00150097
0.00150032
0.00149932
0.00149819
0.0014972
0.00149696
0.0014984
0.00150014
0.00150009
0.00149898
0.00149826
0.00149838
0.00149892
0.00149958
0.00150078
0.00150265
0.00150458
0.00150607
0.00150682
0.00150678
0.0015071
0.00150867
0.00151136
0.00151436
0.0015166
0.00151759
0.00151797
0.00151883
0.00152038
0.00152235
0.0015247
0.00152671
0.0015279
0.00152861
0.00152919
0.00152986
0.00153064
0.00153137
0.00153206
0.00153245
0.00153173
0.00153023
0.00152884
0.00152746
0.00152559
0.00152268
0.00151898
0.00151521
0.00151129
0.00150644
0.00150067
0.00149474
0.00148895
0.00148305
0.00147625
0.00146834
0.0014601
0.00145212
0.00144434
0.00143652
0.00142849
0.00142027
0.0014121
0.00140407
0.00139632
0.00138916
0.0013825
0.00137603
0.00136954
0.0013631
0.00135724
0.00135226
0.00134791
0.00134364
0.00133916
0.0013345
0.00132999
0.00132588
0.001322
0.0013184
0.0013152
0.00131207
0.00130882
0.00130576
0.00130305
0.00130044
0.00129766
0.00129498
0.0012927
0.00129092
0.00128943
0.00128793
0.00128605
0.00128397
0.00128222
0.0012808
0.00127952
0.00127832
0.00127692
0.00127539
0.00127395
0.00127274
0.00127168
0.00127047
0.0012692
0.00126797
0.00126682
0.00126566
0.0012643
0.00126272
0.00126123
0.00125986
0.00125829
0.00125625
0.00125396
0.00125179
0.00124973
0.00124762
0.0012452
0.00124269
0.00124018
0.00123757
0.00123472
0.00123165
0.00122865
0.00122575
0.00122265
0.00121934
0.00121584
0.0012125
0.00120911
0.00120563
0.00120193
0.00119829
0.00119485
0.00119145
0.00118776
0.00118402
0.00118037
0.00117681
0.00117336
0.00116977
0.00116597
0.00116235
0.00115875
0.00115521
0.00115216
0.00114869
0.00114446
0.00114089
0.00113779
0.00113513
0.00113383
0.00113328
0.00113265
0.00112662
0.00113171
0.00115675
0.00117283
0.00120306
0.00122434
0.00132506
0.00135553
0.00126978
0.00121335
0.00117406
0.00116503
0.00112705
0.00111992
0.00110654
0.00110352
0.00110661
0.00110583
0.00111639
0.00116864
0.00120258
0.00123574
0.001273
0.00132227
0.00142831
0.00149693
0.00139283
0.00130543
0.00122964
0.00121551
0.00114627
0.00113024
0.00110016
0.00109462
0.00111629
0.0011162
0.00113753
0.00110884
0.00116289
0.00119386
0.00124611
0.00134699
0.00157339
0.0018718
0.00246645
0.00298424
0.00330953
0.00333749
0.00296143
0.00253413
0.00206969
0.00184427
0.00165418
0.00149693
0.0013936
0.00134768
0.00133827
0.00133203
0.00131985
0.00129956
0.00127386
0.00124699
0.00122274
0.00120229
0.00118523
0.00117049
0.00115777
0.0011474
0.00113848
0.00113112
0.00112534
0.00112003
0.00111557
0.00111217
0.00110946
0.00110689
0.00110486
0.00110363
0.00110267
0.0011015
0.00110033
0.00109935
0.00109879
0.00109854
0.00109858
0.00109844
0.00109834
0.00109807
0.00109747
0.00109682
0.00109642
0.00109631
0.00109628
0.00109633
0.00109636
0.00109629
0.00109619
0.00109623
0.00109643
0.00109639
0.00109635
0.00109661
0.00109691
0.00109702
0.00109694
0.00109677
0.00109658
0.00109641
0.00109627
0.00109618
0.00109616
0.00109618
0.00109622
0.00109624
0.00109622
0.00109619
0.00109626
0.00109646
0.00109664
0.00109664
0.00109648
0.00109638
0.00109653
0.00109666
0.00109651
0.00109628
0.00109628
0.00109663
0.00109615
0.00109589
0.00109553
0.00110421
0.0011177
0.00116701
0.00127816
0.00132165
0.0486757
0.0885314
0.0995935
0.108758
0.132508
0.158902
0.181391
0.196252
0.198672
0.200236
0.212652
0.237659
0.272218
0.320507
0.397512
0.500948
0.59499
0.639979
0.641646
0.619118
0.573314
0.505289
0.430052
0.355818
0.288712
0.235793
0.20106
0.183945
0.178633
0.175667
0.168307
0.154693
0.138843
0.12631
0.118832
0.113986
0.109748
0.106424
0.103844
0.101978
0.100087
0.0975986
0.0942343
0.09036
0.0879163
0.0872617
0.0873263
0.086614
0.08375
0.0777619
0.0705667
0.0651389
0.0626739
0.0623071
0.0633283
0.0643734
0.0643588
0.0659036
0.0708224
0.0765178
0.0820288
0.0866515
0.0877492
0.0853719
0.0819612
0.0799494
0.080905
0.0847972
0.091013
0.0991854
0.109943
0.122729
0.134279
0.145718
0.160355
0.178691
0.199795
0.220868
0.238728
0.252622
0.263291
0.271765
0.281797
0.303841
0.311005
0.313154
0.341223
0.360668
0.359708
0.346806
0.342889
0.322838
0.290503
0.246042
0.200023
0.165315
0.141693
0.125811
0.116181
0.110207
0.106757
0.10267
0.0997488
0.0982195
0.0993184
0.103747
0.109049
0.115304
0.122393
0.1276
0.130407
0.126781
0.1143
0.0960895
0.0786226
0.0611399
0.0417022
0.0260113
0.015479
0.0104202
0.00831352
0.0076451
0.00751237
0.00757433
0.00808092
0.00871361
0.00968861
0.0104156
0.0101902
0.00789349
0.00609612
0.00528958
0.00455748
0.00402613
0.00374163
0.00357445
0.0032913
0.00302827
0.00292366
0.00283819
0.00279695
0.00277047
0.00272754
0.00269865
0.00268305
0.00266174
0.00264734
0.00263661
0.00262762
0.00262117
0.00261539
0.00260876
0.00260464
0.00260283
0.00260245
0.00260133
0.00259888
0.00259756
0.00259789
0.00259708
0.00259391
0.00258963
0.00258598
0.00258132
0.00257552
0.00256995
0.00256502
0.00255955
0.00255245
0.00254358
0.00253506
0.00252848
0.00252178
0.00251342
0.00250369
0.00249307
0.00248182
0.00247024
0.00245898
0.00244906
0.00244023
0.00243062
0.00241786
0.002402
0.00238523
0.00236917
0.00235547
0.00234452
0.00233386
0.00232154
0.0023067
0.00228962
0.00227236
0.00225762
0.002246
0.00223453
0.00221999
0.00220182
0.00218334
0.00216775
0.0021544
0.00213999
0.00212177
0.00210247
0.00208596
0.00207123
0.0020553
0.00203623
0.00201462
0.00199291
0.0019742
0.00195924
0.00194408
0.00192447
0.00190132
0.00187787
0.0018554
0.00183543
0.00181879
0.00180218
0.00178223
0.00175905
0.00173546
0.00171453
0.00169609
0.0016797
0.00166337
0.00164579
0.00162723
0.00160751
0.0015881
0.00157108
0.00155662
0.00154344
0.00152994
0.00151546
0.00150216
0.00148954
0.00147668
0.00146599
0.00145789
0.00145008
0.0014411
0.00143132
0.00142188
0.00141409
0.00140827
0.00140433
0.00140144
0.00139758
0.00139217
0.00138648
0.00138231
0.00137965
0.00137745
0.00137584
0.00137399
0.00137127
0.00136868
0.00136778
0.00136799
0.00136762
0.00136628
0.00136451
0.00136274
0.00136229
0.00136335
0.00136452
0.00136501
0.00136494
0.00136437
0.00136365
0.00136406
0.00136547
0.00136657
0.0013673
0.00136834
0.00136967
0.00137046
0.00137066
0.00137116
0.00137246
0.00137433
0.00137617
0.00137746
0.00137786
0.00137815
0.00137942
0.00138105
0.00138228
0.00138333
0.00138403
0.00138443
0.00138513
0.00138594
0.00138633
0.00138648
0.00138652
0.00138636
0.00138601
0.0013854
0.00138455
0.00138335
0.00138171
0.00137989
0.00137785
0.00137551
0.00137291
0.00136976
0.00136621
0.00136249
0.00135859
0.00135439
0.0013497
0.00134466
0.00133949
0.00133419
0.00132865
0.00132281
0.00131683
0.0013108
0.00130467
0.00129845
0.00129213
0.00128574
0.00127939
0.00127316
0.00126697
0.00126077
0.00125469
0.0012488
0.00124311
0.00123754
0.0012321
0.00122693
0.00122208
0.00121753
0.00121316
0.001209
0.00120515
0.00120144
0.00119788
0.00119463
0.00119157
0.00118868
0.00118603
0.00118357
0.0011813
0.00117922
0.00117737
0.00117576
0.00117418
0.00117257
0.00117108
0.00116974
0.00116856
0.0011675
0.0011665
0.00116556
0.00116468
0.00116386
0.00116318
0.00116252
0.00116183
0.00116116
0.00116049
0.00115985
0.00115927
0.00115867
0.001158
0.00115733
0.00115677
0.00115618
0.00115541
0.00115455
0.00115369
0.00115282
0.00115193
0.00115099
0.00114994
0.00114886
0.00114778
0.00114664
0.00114533
0.00114402
0.00114275
0.00114139
0.0011399
0.00113837
0.00113686
0.00113533
0.00113374
0.00113204
0.00113035
0.00112873
0.00112709
0.00112539
0.00112361
0.00112172
0.00111988
0.00111818
0.00111642
0.00111481
0.00111319
0.00111094
0.00110934
0.00110841
0.0011078
0.00111236
0.00111167
0.00110959
0.00110417
0.00110984
0.00113463
0.00115222
0.00118364
0.0012074
0.00131009
0.00134457
0.00126057
0.00120564
0.00116513
0.00115323
0.0011141
0.001103
0.00109168
0.00109353
0.00109243
0.00109099
0.0011063
0.00116092
0.0012016
0.00126921
0.00129401
0.00143605
0.00150231
0.00144229
0.00135064
0.00124862
0.00120274
0.00119558
0.00113243
0.00111695
0.00108694
0.00108032
0.00109666
0.00110207
0.00111068
0.0011004
0.00116108
0.00123443
0.00135978
0.00154426
0.00191073
0.00216031
0.00274791
0.00315865
0.00341804
0.00341131
0.0030638
0.00263131
0.00212813
0.00187608
0.0016311
0.0014267
0.00129483
0.00122807
0.00121285
0.00121901
0.00122452
0.00122361
0.00122033
0.00121584
0.00120977
0.00120162
0.00119153
0.00118037
0.00116939
0.00115847
0.00114875
0.0011405
0.00113328
0.00112647
0.00112024
0.00111461
0.00110951
0.00110526
0.00110189
0.00109899
0.0010963
0.00109403
0.00109211
0.0010904
0.00108887
0.00108764
0.00108663
0.00108566
0.00108478
0.00108423
0.00108385
0.00108338
0.00108282
0.00108218
0.00108157
0.00108107
0.00108071
0.00108044
0.00108025
0.00108009
0.00107988
0.00107964
0.00107943
0.00107924
0.001079
0.00107878
0.00107864
0.00107852
0.00107836
0.00107815
0.00107789
0.00107766
0.00107747
0.00107734
0.00107722
0.00107708
0.00107689
0.0010767
0.00107653
0.00107638
0.00107623
0.0010761
0.00107601
0.0010759
0.0010757
0.00107552
0.0010755
0.00107554
0.00107541
0.0010751
0.00107508
0.00107514
0.00107523
0.00107473
0.00107488
0.00107476
0.00108324
0.00109654
0.0011453
0.00125523
0.00129918
0.0350444
0.060658
0.0728367
0.0885643
0.104673
0.11815
0.127851
0.130476
0.130161
0.134163
0.146323
0.163328
0.18182
0.205692
0.244815
0.298588
0.349456
0.376701
0.376647
0.356494
0.320842
0.27681
0.233777
0.19476
0.161305
0.135903
0.119454
0.110982
0.107432
0.104828
0.100271
0.0929881
0.0851882
0.0795406
0.0761637
0.0732506
0.0696108
0.0657752
0.0631095
0.0626613
0.0637138
0.0640043
0.0616983
0.057123
0.0532195
0.052417
0.0541452
0.0563232
0.0562861
0.0526531
0.0469164
0.0418
0.0388114
0.0380386
0.038983
0.0400739
0.0403954
0.0408323
0.0420883
0.0445907
0.0477705
0.0520226
0.0551926
0.0562864
0.0555636
0.0539232
0.0528692
0.0535835
0.0561382
0.0606493
0.0668643
0.0735988
0.0804295
0.0864467
0.0918546
0.0994311
0.109682
0.121068
0.131641
0.140351
0.147251
0.152746
0.157211
0.16083
0.163331
0.164939
0.167248
0.173556
0.180872
0.184916
0.203203
0.202129
0.198793
0.19654
0.185662
0.167822
0.145707
0.122348
0.103241
0.088365
0.0766339
0.0679783
0.0625089
0.0603051
0.0587964
0.0593653
0.0615814
0.0648201
0.0702469
0.0757294
0.0809499
0.0856067
0.0902455
0.0922918
0.089927
0.0815959
0.0692857
0.057242
0.0457261
0.0336703
0.0221803
0.0134997
0.00926699
0.00753702
0.00701717
0.00694318
0.00707013
0.00767301
0.00845084
0.00948624
0.0102543
0.0103149
0.00814288
0.00637995
0.00531997
0.00474764
0.00411684
0.00368515
0.00333975
0.00297031
0.00268785
0.00256567
0.00248902
0.00244742
0.00241979
0.00238001
0.00235063
0.00234332
0.00233795
0.00233459
0.00232937
0.00232421
0.00232368
0.00232831
0.0023319
0.00233328
0.00233134
0.00232966
0.00233042
0.0023334
0.00233624
0.00233737
0.0023363
0.00233294
0.00232896
0.00232711
0.00232759
0.00232829
0.00232723
0.00232344
0.00231852
0.00231523
0.00231405
0.00231361
0.00231157
0.00230684
0.00230054
0.0022943
0.00229019
0.00228851
0.00228719