/*--------------------------------*- C++ -*----------------------------------*\
| =========                 |                                                 |
| \\      /  F ield         | OpenFOAM: The Open Source CFD Toolbox           |
|  \\    /   O peration     | Version:  v2006                                 |
|   \\  /    A nd           | Website:  www.openfoam.com                      |
|    \\/     M anipulation  |                                                 |
\*---------------------------------------------------------------------------*/
FoamFile
{
    version     2.0;
    format      ascii;
    class       volScalarField;
    location    "6.7";
    object      p_rgh;
}
// * * * * * * * * * * * * * * * * * * * * * * * * * * * * * * * * * * * * * //

dimensions      [1 -1 -2 0 0 0 0];


internalField   nonuniform List<scalar> 
33000
(
8254.19
8251.9
8249.97
8248.58
8246.99
8244.63
8241.71
8239.05
8236.81
8234.72
8232.67
8230.65
8228.59
8226.42
8224.1
8221.63
8219.25
8217.25
8215.19
8213.62
8212.22
8210.95
8209.4
8207.06
8204.48
8201.8
8199.05
8196.26
8193.43
8190.52
8187.52
8184.52
8181.51
8178.44
8175.26
8172.01
8168.68
8165.31
8161.83
8158.35
8154.81
8151.16
8147.43
8143.63
8139.73
8135.74
8131.72
8127.63
8123.43
8119.15
8114.78
8110.32
8105.79
8101.17
8096.49
8091.71
8086.85
8081.97
8077.05
8072.03
8066.92
8061.76
8056.54
8051.25
8045.91
8040.51
8035.06
8029.59
8024.09
8018.61
8013.12
8007.61
8002.08
7996.58
7991.18
7986.06
7981.4
7976.82
7971.17
7961.04
7955.88
7948.62
7940.93
7933.69
7926.2
7917.72
7910.15
7901.69
7894
7885.48
7877.59
7869.12
7860.95
7852.48
7844.45
7835.82
7828.21
7819.15
7812.81
7803.51
7789.92
7779.37
7767.58
7756.34
7745.08
7733.66
7722.09
7710.51
7698.85
7687.36
7675.96
7664.73
7653.68
7642.64
7632.18
7621.39
7612.28
7601.27
7587.85
7576.6
7564.94
7553.5
7542.4
7531.47
7520.65
7510.17
7499.92
7489.96
7480.29
7470.9
7461.86
7453.1
7444.62
7436.4
7428.47
7420.8
7413.38
7406.2
7399.25
7392.5
7385.98
7379.67
7373.54
7367.6
7361.83
7356.29
7350.98
7345.91
7341.13
7336.66
7332.44
7328.52
7324.9
7321.62
7318.66
7316.06
7313.79
7311.85
7310.27
7309.03
7308.15
7307.61
7307.45
7307.63
7308.16
7309.04
7310.26
7311.84
7313.74
7315.97
7318.52
7321.39
7324.59
7328.09
7331.87
7335.93
7340.25
7344.84
7349.7
7354.82
7360.17
7365.74
7371.53
7377.5
7383.66
7389.99
7396.5
7403.18
7409.99
7416.94
7424
7431.16
7438.43
7445.78
7453.23
7460.75
7468.31
7475.92
7483.56
7491.22
7498.9
7506.61
7514.32
7522.04
7529.74
7537.41
7545.06
7552.67
7560.25
7567.8
7575.29
7582.73
7590.11
7597.45
7604.74
7611.95
7619.09
7626.15
7633.15
7640.08
7646.96
7653.76
7660.48
7667.12
7673.68
7680.16
7686.59
7692.95
7699.24
7705.46
7711.61
7717.69
7723.7
7729.67
7735.58
7741.44
7747.24
7752.99
7758.68
7764.34
7769.94
7775.5
7781.03
7786.51
7791.97
7797.39
7802.77
7808.12
7813.43
7818.72
7823.98
7829.22
7834.42
7839.58
7844.71
7849.82
7854.89
7859.94
7864.95
7869.92
7874.86
7879.75
7884.61
7889.43
7894.2
7898.92
7903.59
7908.21
7912.77
7917.29
7921.76
7926.15
7930.49
7934.76
7938.96
7943.1
7947.18
7951.18
7955.12
7958.98
7962.77
7966.48
7970.12
7973.68
7977.18
7980.6
7983.94
7987.21
7990.41
7993.54
7996.59
7999.58
8002.5
8005.36
8008.16
8010.89
8013.57
8016.2
8018.77
8021.28
8023.72
8026.1
8028.4
8030.61
8032.74
8034.79
8036.73
8038.57
8040.31
8041.94
8043.46
8044.86
8046.14
8047.29
8048.32
8049.22
8049.99
8050.63
8051.13
8051.49
8051.72
8051.8
8051.75
8051.56
8051.23
8050.77
8050.17
8049.44
8048.57
8047.58
8046.46
8045.22
8043.86
8042.38
8040.79
8039.09
8037.29
8035.39
8033.39
8031.3
8029.13
8026.87
8024.54
8022.14
8019.67
8017.15
8014.57
8011.94
8009.26
8006.55
8003.81
8001.03
7998.24
7995.42
7992.59
7989.75
7986.91
7984.06
7981.22
7978.38
7975.55
7972.74
7969.94
7967.16
7964.4
7961.67
7958.96
7956.29
7953.64
7951.02
7948.44
7945.9
7943.39
7940.92
7938.49
7936.1
7933.74
7931.43
7929.16
7926.93
7924.73
7922.58
7920.48
7918.41
7916.38
7914.38
7912.43
7910.52
7908.64
7906.8
7905
7903.23
7901.5
7899.8
7898.13
7896.5
7894.9
7893.32
7891.78
7890.26
7888.77
7887.31
7885.88
7884.47
7883.08
7881.72
7880.39
7879.07
7877.78
7876.51
7875.25
7874.02
7872.81
7871.62
7870.44
7869.29
7868.16
7867.04
7865.95
7864.87
7863.81
7862.78
7861.77
7860.79
7859.83
7858.89
7857.99
7857.11
7856.26
7855.46
7854.67
7853.87
7853.14
7852.41
7851.74
7851.09
7850.48
7849.9
7849.36
7848.84
7848.37
7847.92
7847.51
7847.13
7846.78
7846.48
7846.19
7845.96
7845.74
7845.48
7845.33
7845.15
7845.07
7844.96
7844.94
7844.9
7844.94
7844.97
7845.05
7845.14
7845.27
7845.4
7845.6
7845.78
7845.98
7846.21
7846.46
7846.67
7847.12
7847.34
7847.52
7847.78
7848.04
7848.33
7848.63
7848.96
7849.31
7849.67
7850.04
7850.42
7850.82
7851.23
7851.66
7852.09
7852.54
7852.99
7853.46
7853.94
7854.42
7854.92
7855.42
7855.93
7856.45
7856.98
7857.51
7858.05
7858.6
7859.15
7859.71
7860.28
7860.85
7861.43
7862.01
7862.59
7863.18
7863.78
7864.38
7864.98
7865.58
7866.19
7866.8
7867.41
7868.02
7868.64
7869.25
7869.87
7870.49
7871.11
7871.74
7872.36
7872.98
7873.61
7874.23
7874.85
7875.48
7876.1
7876.72
7877.35
7877.97
7878.59
7879.21
7879.83
7880.45
7881.07
7881.68
7882.3
7882.91
7883.52
7884.13
7884.74
7885.35
7885.96
7886.56
7887.16
7887.76
7888.36
7888.96
7889.55
7890.1
7890.97
8253.97
8251.77
8249.76
8248.36
8246.33
8244.44
8241.34
8238.38
8236.35
8234.55
8232.56
8230.58
8228.52
8226.33
8223.91
8221.23
8218.44
8216.06
8214.33
8212.68
8211.21
8210.13
8208.77
8206.66
8204.31
8201.74
8199.03
8196.27
8193.43
8190.43
8187.5
8184.52
8181.57
8178.54
8175.41
8172.17
8168.82
8165.31
8161.87
8158.39
8154.95
8151.36
8147.62
8143.75
8139.81
8135.85
8131.9
8127.85
8123.65
8119.36
8114.99
8110.53
8105.97
8101.26
8096.51
8091.77
8086.95
8082.07
8077.21
8072.16
8066.96
8061.84
8056.67
8051.38
8046.01
8040.54
8035
8029.5
8023.99
8018.48
8013.02
8007.41
8001.72
7995.94
7990.11
7984.29
7978.57
7973.03
7967.6
7962.41
7957.88
7951.64
7940.17
7933.95
7925.66
7917.95
7910.18
7902.45
7894.71
7885.72
7877.81
7868.91
7860.71
7851.93
7843.61
7834.65
7826.09
7816.9
7807.7
7798.52
7788.46
7780.7
7770.6
7757.34
7745.9
7733.52
7722.03
7710.27
7698.98
7687.49
7676.03
7664.6
7653.32
7642.05
7631.03
7620
7609.27
7598.61
7587.46
7577.91
7566.49
7553.46
7542.25
7531.12
7520.43
7509.98
7499.76
7489.7
7479.98
7470.57
7461.5
7452.74
7444.24
7436.01
7428.06
7420.38
7412.95
7405.76
7398.76
7392.02
7385.49
7379.16
7373.01
7367.09
7361.33
7355.77
7350.41
7345.34
7340.56
7336.1
7331.87
7327.94
7324.3
7321.01
7318.05
7315.43
7313.18
7311.25
7309.66
7308.43
7307.52
7306.99
7306.84
7307.04
7307.57
7308.43
7309.66
7311.27
7313.19
7315.41
7317.95
7320.84
7324.07
7327.59
7331.39
7335.46
7339.79
7344.39
7349.25
7354.37
7359.73
7365.34
7371.17
7377.17
7383.34
7389.67
7396.18
7402.86
7409.72
7416.69
7423.77
7430.94
7438.21
7445.58
7453.03
7460.57
7468.17
7475.79
7483.44
7491.1
7498.8
7506.52
7514.25
7521.98
7529.69
7537.36
7545
7552.63
7560.23
7567.79
7575.28
7582.71
7590.09
7597.45
7604.75
7611.97
7619.11
7626.17
7633.16
7640.1
7646.97
7653.79
7660.52
7667.16
7673.71
7680.19
7686.61
7692.97
7699.27
7705.5
7711.65
7717.72
7723.73
7729.69
7735.6
7741.46
7747.28
7753.03
7758.72
7764.37
7769.97
7775.51
7781.03
7786.52
7791.98
7797.41
7802.79
7808.14
7813.44
7818.73
7824
7829.24
7834.44
7839.6
7844.73
7849.84
7854.91
7859.96
7864.97
7869.95
7874.89
7879.78
7884.64
7889.46
7894.24
7898.96
7903.63
7908.24
7912.81
7917.34
7921.81
7926.21
7930.55
7934.82
7939.02
7943.16
7947.24
7951.25
7955.19
7959.05
7962.84
7966.56
7970.2
7973.76
7977.26
7980.68
7984.03
7987.31
7990.51
7993.64
7996.7
7999.69
8002.61
8005.47
8008.28
8011.02
8013.7
8016.32
8018.9
8021.41
8023.87
8026.25
8028.55
8030.77
8032.91
8034.96
8036.91
8038.75
8040.5
8042.13
8043.65
8045.06
8046.34
8047.5
8048.53
8049.43
8050.2
8050.84
8051.34
8051.7
8051.93
8052.02
8051.97
8051.78
8051.45
8050.98
8050.38
8049.65
8048.78
8047.79
8046.67
8045.43
8044.06
8042.58
8040.98
8039.28
8037.47
8035.56
8033.56
8031.46
8029.28
8027.02
8024.68
8022.27
8019.8
8017.27
8014.68
8012.04
8009.36
8006.65
8003.89
8001.11
7998.31
7995.49
7992.66
7989.81
7986.96
7984.11
7981.26
7978.41
7975.58
7972.76
7969.96
7967.18
7964.41
7961.68
7958.97
7956.29
7953.64
7951.02
7948.44
7945.89
7943.38
7940.91
7938.48
7936.08
7933.73
7931.41
7929.14
7926.91
7924.71
7922.56
7920.45
7918.38
7916.35
7914.36
7912.41
7910.49
7908.62
7906.78
7904.98
7903.21
7901.48
7899.78
7898.11
7896.48
7894.87
7893.3
7891.75
7890.24
7888.75
7887.29
7885.85
7884.44
7883.06
7881.69
7880.36
7879.04
7877.75
7876.47
7875.22
7873.98
7872.77
7871.58
7870.4
7869.25
7868.11
7866.99
7865.89
7864.82
7863.76
7862.72
7861.71
7860.72
7859.76
7858.83
7857.94
7857.06
7856.19
7855.37
7854.56
7853.79
7853.05
7852.33
7851.66
7851.01
7850.41
7849.82
7849.28
7848.76
7848.29
7847.83
7847.44
7847.05
7846.74
7846.4
7846.1
7845.83
7845.6
7845.39
7845.23
7845.08
7844.98
7844.9
7844.86
7844.84
7844.85
7844.9
7844.97
7845.09
7845.21
7845.35
7845.51
7845.7
7845.9
7846.29
7846.53
7846.67
7846.92
7847.16
7847.42
7847.69
7847.98
7848.28
7848.6
7848.93
7849.28
7849.64
7850.02
7850.4
7850.8
7851.22
7851.64
7852.07
7852.52
7852.98
7853.44
7853.92
7854.4
7854.9
7855.4
7855.91
7856.43
7856.96
7857.5
7858.04
7858.59
7859.14
7859.7
7860.27
7860.84
7861.42
7862
7862.59
7863.18
7863.77
7864.37
7864.97
7865.58
7866.18
7866.79
7867.4
7868.02
7868.63
7869.25
7869.87
7870.49
7871.11
7871.73
7872.36
7872.98
7873.6
7874.23
7874.85
7875.48
7876.1
7876.73
7877.35
7877.97
7878.59
7879.21
7879.83
7880.45
7881.07
7881.69
7882.3
7882.92
7883.53
7884.14
7884.75
7885.35
7885.96
7886.56
7887.17
7887.77
7888.37
7888.96
7889.56
7890.1
7890.98
8253.26
8250.69
8248.27
8245.46
8243.39
8240.74
8237.86
8236.23
8235.33
8233.98
8232.44
8230.76
8228.86
8226.72
8224.3
8221.64
8218.96
8216.56
8214.57
8212.79
8211.17
8209.73
8207.95
8205.91
8203.74
8201.42
8198.87
8196.15
8193.18
8190.31
8187.47
8184.53
8181.7
8178.78
8175.68
8172.47
8169.16
8165.6
8162.04
8158.6
8155.28
8151.74
8148
8144.07
8140.09
8136.13
8132.16
8128.22
8124.05
8119.77
8115.4
8110.93
8106.29
8101.48
8096.81
8092.05
8087.35
8082.49
8077.35
8072.23
8067.1
8062
8056.95
8051.66
8046.26
8040.74
8035.1
8029.56
8023.97
8018.51
8012.9
8007.18
8001.4
7995.55
7989.64
7983.65
7977.57
7971.51
7965.49
7959.31
7953.18
7947.14
7941.39
7936.33
7929.82
7917.18
7910.44
7901.43
7894.08
7885.45
7877.79
7869.46
7860.32
7851.93
7842.95
7834.19
7825.2
7816.13
7806.75
7797.24
7786.79
7776.59
7766.15
7755.68
7746.74
7736.27
7723.37
7711.41
7698.72
7687.34
7675.55
7664.5
7653.09
7641.78
7630.45
7619.14
7608.09
7597.03
7585.69
7574.64
7563.61
7552.73
7543.05
7532.22
7520.09
7509.52
7499.12
7489.05
7479.34
7469.93
7460.82
7452.01
7443.47
7435.14
7427.13
7419.43
7412.04
7404.83
7397.82
7391
7384.44
7378.1
7371.96
7366.04
7360.23
7354.59
7349.25
7344.18
7339.46
7334.94
7330.67
7326.67
7323.04
7319.84
7316.89
7314.22
7311.88
7309.94
7308.4
7307.2
7306.3
7305.77
7305.62
7305.85
7306.37
7307.23
7308.48
7310.12
7312.07
7314.28
7316.86
7319.77
7323
7326.58
7330.42
7334.52
7338.88
7343.48
7348.37
7353.53
7358.91
7364.55
7370.44
7376.47
7382.68
7389.05
7395.56
7402.26
7409.12
7416.15
7423.3
7430.53
7437.84
7445.2
7452.67
7460.21
7467.87
7475.53
7483.2
7490.88
7498.6
7506.35
7514.13
7521.86
7529.56
7537.24
7544.92
7552.57
7560.2
7567.76
7575.25
7582.67
7590.08
7597.47
7604.79
7612.01
7619.16
7626.22
7633.2
7640.14
7647.01
7653.85
7660.58
7667.23
7673.79
7680.26
7686.68
7693.03
7699.35
7705.57
7711.72
7717.8
7723.79
7729.75
7735.68
7741.56
7747.35
7753.09
7758.77
7764.4
7769.98
7775.55
7781.08
7786.59
7792.05
7797.46
7802.84
7808.17
7813.47
7818.76
7824.02
7829.28
7834.48
7839.64
7844.77
7849.87
7854.97
7860.02
7865.03
7869.99
7874.92
7879.83
7884.71
7889.54
7894.31
7899.03
7903.7
7908.32
7912.9
7917.44
7921.91
7926.32
7930.66
7934.94
7939.15
7943.29
7947.37
7951.38
7955.33
7959.2
7963
7966.72
7970.36
7973.93
7977.43
7980.87
7984.23
7987.51
7990.71
7993.85
7996.91
7999.91
8002.85
8005.72
8008.53
8011.28
8013.97
8016.61
8019.18
8021.7
8024.16
8026.55
8028.87
8031.1
8033.24
8035.29
8037.26
8039.12
8040.87
8042.51
8044.04
8045.45
8046.74
8047.91
8048.94
8049.85
8050.63
8051.27
8051.77
8052.14
8052.36
8052.45
8052.4
8052.22
8051.89
8051.42
8050.82
8050.08
8049.21
8048.21
8047.08
8045.83
8044.46
8042.97
8041.36
8039.65
8037.83
8035.91
8033.89
8031.78
8029.59
8027.31
8024.96
8022.54
8020.05
8017.5
8014.91
8012.26
8009.56
8006.83
8004.07
8001.28
7998.46
7995.62
7992.78
7989.92
7987.06
7984.19
7981.33
7978.48
7975.64
7972.81
7970
7967.21
7964.44
7961.69
7958.98
7956.29
7953.64
7951.01
7948.43
7945.87
7943.36
7940.89
7938.45
7936.05
7933.69
7931.38
7929.1
7926.87
7924.67
7922.52
7920.41
7918.34
7916.31
7914.31
7912.36
7910.45
7908.57
7906.73
7904.93
7903.16
7901.43
7899.73
7898.06
7896.43
7894.82
7893.25
7891.7
7890.19
7888.7
7887.24
7885.8
7884.39
7883
7881.63
7880.29
7878.97
7877.67
7876.4
7875.14
7873.91
7872.69
7871.49
7870.31
7869.15
7868.01
7866.89
7865.79
7864.71
7863.65
7862.6
7861.59
7860.61
7859.65
7858.7
7857.79
7856.9
7856.05
7855.22
7854.42
7853.64
7852.91
7852.19
7851.51
7850.86
7850.24
7849.67
7849.11
7848.62
7848.13
7847.7
7847.28
7846.87
7846.52
7846.19
7845.9
7845.63
7845.42
7845.19
7845.06
7844.88
7844.83
7844.69
7844.71
7844.66
7844.74
7844.76
7844.85
7844.93
7845.05
7845.19
7845.52
7845.72
7845.84
7846.05
7846.25
7846.5
7846.76
7847.03
7847.29
7847.58
7847.88
7848.18
7848.5
7848.83
7849.18
7849.55
7849.93
7850.32
7850.72
7851.14
7851.56
7852
7852.45
7852.91
7853.38
7853.86
7854.35
7854.85
7855.36
7855.87
7856.39
7856.92
7857.46
7858
7858.55
7859.11
7859.67
7860.24
7860.81
7861.39
7861.97
7862.56
7863.15
7863.75
7864.35
7864.95
7865.56
7866.16
7866.78
7867.39
7868
7868.62
7869.24
7869.86
7870.48
7871.11
7871.73
7872.35
7872.98
7873.6
7874.23
7874.85
7875.48
7876.1
7876.73
7877.35
7877.97
7878.6
7879.22
7879.84
7880.46
7881.08
7881.69
7882.31
7882.92
7883.53
7884.15
7884.75
7885.36
7885.97
7886.57
7887.17
7887.77
7888.37
7888.97
7889.57
7890.11
7890.99
8252.55
8249.37
8246.29
8241.28
8236.49
8231.13
8229.78
8231.82
8232.9
8232.65
8231.82
8230.45
8228.81
8226.87
8224.65
8222.25
8219.83
8217.62
8215.57
8213.64
8211.82
8210.01
8207.99
8205.86
8203.62
8201.4
8198.95
8196.26
8193.2
8190.41
8187.59
8184.75
8182.1
8179.18
8176.08
8172.9
8169.63
8166.23
8162.53
8159.17
8155.85
8152.29
8148.57
8144.72
8140.62
8136.6
8132.67
8128.8
8124.65
8120.37
8116
8111.54
8106.92
8102.11
8097.39
8092.83
8088.07
8083
8077.7
8072.63
8067.48
8062.26
8057.31
8052.08
8046.66
8041.17
8035.56
8029.76
8024.03
8018.44
8012.85
8007.05
8001.16
7995.19
7989.07
7982.77
7976.44
7970.23
7963.99
7957.5
7951.41
7945.06
7938.3
7931.36
7924.3
7917.68
7911.55
7906.16
7899.24
7885.66
7878.22
7868.58
7860.6
7851.64
7843.31
7833.26
7824.43
7814.48
7805.12
7795.13
7785.36
7775.05
7765
7753.99
7743.24
7731.91
7721.18
7709.88
7700.59
7689.83
7676.55
7664.61
7652.58
7640.94
7629.62
7618.21
7606.9
7595.59
7584.35
7573.26
7562.13
7551.02
7540.35
7529.66
7519.13
7509.57
7499.17
7487.99
7478.22
7468.78
7459.69
7450.84
7442.23
7433.82
7425.71
7417.91
7410.43
7403.26
7396.28
7389.43
7382.78
7376.39
7370.29
7364.33
7358.5
7352.81
7347.48
7342.43
7337.72
7333.16
7328.79
7324.82
7321.19
7318
7315.06
7312.38
7310.01
7308.06
7306.48
7305.25
7304.4
7303.98
7303.85
7304
7304.51
7305.44
7306.71
7308.35
7310.39
7312.65
7315.22
7318.16
7321.42
7324.99
7328.94
7333.1
7337.51
7342.13
7347.05
7352.25
7357.69
7363.44
7369.34
7375.41
7381.67
7388.08
7394.61
7401.38
7408.28
7415.33
7422.58
7429.86
7437.23
7444.66
7452.13
7459.71
7467.37
7475.12
7482.85
7490.59
7498.31
7506.06
7513.89
7521.66
7529.37
7537.1
7544.82
7552.51
7560.14
7567.7
7575.18
7582.65
7590.08
7597.48
7604.83
7612.06
7619.21
7626.26
7633.26
7640.21
7647.1
7653.95
7660.67
7667.32
7673.9
7680.4
7686.79
7693.13
7699.41
7705.66
7711.83
7717.91
7723.9
7729.85
7735.77
7741.65
7747.45
7753.17
7758.82
7764.45
7770.05
7775.62
7781.19
7786.67
7792.11
7797.51
7802.85
7808.19
7813.51
7818.82
7824.11
7829.33
7834.51
7839.66
7844.82
7849.96
7855.05
7860.1
7865.09
7870.04
7874.99
7879.9
7884.81
7889.64
7894.42
7899.15
7903.83
7908.44
7913.03
7917.58
7922.06
7926.48
7930.81
7935.09
7939.33
7943.5
7947.59
7951.6
7955.54
7959.42
7963.24
7966.98
7970.62
7974.2
7977.71
7981.16
7984.53
7987.81
7991.01
7994.18
7997.27
8000.28
8003.23
8006.11
8008.91
8011.68
8014.4
8017.05
8019.64
8022.16
8024.62
8027.02
8029.36
8031.6
8033.74
8035.81
8037.8
8039.67
8041.43
8043.08
8044.62
8046.05
8047.35
8048.52
8049.56
8050.47
8051.26
8051.91
8052.42
8052.79
8053.02
8053.11
8053.07
8052.88
8052.55
8052.08
8051.47
8050.72
8049.85
8048.84
8047.7
8046.44
8045.05
8043.55
8041.93
8040.2
8038.36
8036.42
8034.39
8032.26
8030.05
8027.75
8025.38
8022.94
8020.43
8017.86
8015.25
8012.58
8009.86
8007.11
8004.32
8001.51
7998.68
7995.82
7992.96
7990.08
7987.2
7984.32
7981.44
7978.58
7975.72
7972.88
7970.05
7967.25
7964.47
7961.72
7958.99
7956.29
7953.63
7951
7948.41
7945.85
7943.33
7940.85
7938.41
7936.01
7933.64
7931.32
7929.05
7926.81
7924.61
7922.46
7920.34
7918.27
7916.24
7914.25
7912.29
7910.38
7908.5
7906.66
7904.86
7903.09
7901.36
7899.65
7897.99
7896.35
7894.75
7893.17
7891.63
7890.11
7888.62
7887.15
7885.71
7884.3
7882.91
7881.54
7880.2
7878.87
7877.57
7876.29
7875.03
7873.79
7872.57
7871.36
7870.18
7869.01
7867.87
7866.74
7865.62
7864.54
7863.48
7862.44
7861.41
7860.42
7859.45
7858.51
7857.59
7856.7
7855.83
7855
7854.19
7853.41
7852.67
7851.94
7851.28
7850.61
7850.02
7849.42
7848.9
7848.36
7847.87
7847.41
7847
7846.6
7846.26
7845.93
7845.65
7845.39
7845.16
7844.96
7844.8
7844.67
7844.59
7844.53
7844.49
7844.49
7844.5
7844.52
7844.59
7844.84
7845
7845.1
7845.27
7845.46
7845.67
7845.91
7846.17
7846.39
7846.64
7846.89
7847.17
7847.45
7847.75
7848.07
7848.39
7848.74
7849.09
7849.46
7849.84
7850.24
7850.64
7851.06
7851.49
7851.93
7852.38
7852.84
7853.31
7853.79
7854.29
7854.79
7855.29
7855.81
7856.34
7856.87
7857.41
7857.95
7858.51
7859.07
7859.63
7860.2
7860.78
7861.36
7861.94
7862.53
7863.13
7863.72
7864.32
7864.93
7865.54
7866.15
7866.76
7867.37
7867.99
7868.61
7869.23
7869.85
7870.47
7871.1
7871.72
7872.35
7872.97
7873.6
7874.23
7874.85
7875.48
7876.1
7876.73
7877.35
7877.98
7878.6
7879.22
7879.84
7880.46
7881.08
7881.7
7882.32
7882.93
7883.54
7884.16
7884.77
7885.37
7885.98
7886.58
7887.19
7887.79
7888.39
7888.98
7889.58
7890.12
7891.01
8252.31
8249.78
8246.96
8242.36
8236.23
8230.89
8230.19
8231.26
8232.08
8232.08
8231.31
8230.16
8228.7
8226.93
8224.95
8222.81
8220.63
8218.5
8216.43
8214.41
8212.43
8210.45
8208.36
8205.97
8203.79
8201.6
8199.19
8196.58
8193.61
8190.61
8187.85
8185.37
8182.67
8179.69
8176.61
8173.45
8170.22
8166.89
8163.43
8160.01
8156.56
8152.97
8149.27
8145.48
8141.52
8137.31
8133.47
8129.56
8125.41
8121.13
8116.76
8112.3
8107.73
8103.08
8098.4
8093.69
8088.83
8083.81
8078.47
8073.18
8068
8062.76
8057.89
8052.65
8047.18
8041.64
8036.03
8030.32
8024.45
8018.54
8012.75
8006.94
8001.07
7994.99
7988.76
7982.27
7975.75
7969.36
7962.93
7956.76
7950.38
7943.74
7936.85
7930.17
7923.3
7915.85
7908.31
7900.82
7893.56
7886.81
7881.13
7873.66
7859.56
7851.63
7841.89
7833.35
7823.86
7814.78
7804.1
7794.66
7784.1
7774.11
7763.35
7752.85
7741.97
7731.34
7720.23
7708.92
7697.61
7686.32
7674.89
7665.23
7654.12
7641.07
7628.96
7617.11
7605.58
7594.31
7582.95
7571.7
7560.32
7549.52
7538.81
7528.2
7517.38
7506.94
7496.55
7486.63
7477.57
7468.04
7457.94
7448.92
7440.33
7431.97
7423.83
7415.91
7408.32
7400.99
7394.01
7387.23
7380.53
7374.13
7367.91
7361.84
7355.89
7350.34
7345.01
7340.09
7335.25
7330.57
7326.24
7322.29
7318.69
7315.51
7312.54
7309.89
7307.51
7305.52
7303.94
7302.72
7301.96
7301.53
7301.4
7301.55
7302.08
7303.04
7304.34
7306.07
7308.13
7310.45
7313.03
7316
7319.31
7322.99
7326.97
7331.18
7335.62
7340.27
7345.28
7350.54
7356.14
7361.92
7367.85
7373.99
7380.32
7386.79
7393.38
7400.2
7407.17
7414.28
7421.61
7428.97
7436.4
7443.92
7451.46
7459.04
7466.76
7474.58
7482.37
7490.17
7497.95
7505.7
7513.51
7521.32
7529.14
7536.98
7544.72
7552.41
7560.04
7567.58
7575.12
7582.63
7590.12
7597.56
7604.88
7612.12
7619.25
7626.31
7633.35
7640.34
7647.27
7654.06
7660.74
7667.39
7673.99
7680.56
7687
7693.34
7699.57
7705.76
7711.91
7717.99
7724
7730.02
7735.95
7741.79
7747.58
7753.28
7758.91
7764.55
7770.15
7775.76
7781.29
7786.76
7792.16
7797.54
7802.92
7808.27
7813.59
7818.93
7824.19
7829.41
7834.56
7839.73
7844.87
7850.03
7855.14
7860.18
7865.16
7870.14
7875.1
7880.04
7884.94
7889.78
7894.56
7899.31
7904
7908.63
7913.21
7917.78
7922.28
7926.69
7931.03
7935.33
7939.58
7943.78
7947.88
7951.91
7955.85
7959.73
7963.55
7967.31
7971
7974.61
7978.14
7981.57
7984.93
7988.23
7991.47
7994.65
7997.76
8000.79
8003.75
8006.64
8009.48
8012.26
8014.99
8017.67
8020.27
8022.8
8025.27
8027.7
8030.03
8032.27
8034.44
8036.52
8038.52
8040.42
8042.19
8043.85
8045.41
8046.86
8048.17
8049.34
8050.4
8051.32
8052.12
8052.78
8053.3
8053.66
8053.9
8053.99
8053.95
8053.76
8053.43
8052.96
8052.33
8051.58
8050.69
8049.68
8048.53
8047.26
8045.85
8044.32
8042.68
8040.93
8039.08
8037.12
8035.06
8032.91
8030.67
8028.34
8025.94
8023.47
8020.94
8018.35
8015.7
8013
8010.26
8007.48
8004.66
8001.82
7998.96
7996.09
7993.2
7990.3
7987.39
7984.49
7981.59
7978.7
7975.83
7972.97
7970.12
7967.31
7964.51
7961.74
7959
7956.29
7953.62
7950.98
7948.38
7945.81
7943.28
7940.79
7938.35
7935.94
7933.57
7931.25
7928.97
7926.73
7924.53
7922.37
7920.26
7918.18
7916.15
7914.16
7912.2
7910.29
7908.41
7906.57
7904.77
7903
7901.26
7899.56
7897.89
7896.25
7894.64
7893.07
7891.51
7890
7888.5
7887.03
7885.58
7884.17
7882.77
7881.41
7880.05
7878.73
7877.41
7876.13
7874.86
7873.62
7872.39
7871.18
7869.99
7868.81
7867.66
7866.52
7865.41
7864.32
7863.26
7862.22
7861.2
7860.19
7859.22
7858.26
7857.34
7856.43
7855.57
7854.72
7853.91
7853.12
7852.38
7851.66
7850.98
7850.33
7849.69
7849.1
7848.53
7848.03
7847.53
7847.08
7846.66
7846.26
7845.91
7845.58
7845.3
7845.02
7844.82
7844.6
7844.49
7844.29
7844.29
7844.05
7844.15
7844.08
7844.29
7844.39
7844.46
7844.58
7844.73
7844.89
7845.09
7845.28
7845.48
7845.7
7845.93
7846.17
7846.43
7846.7
7846.98
7847.27
7847.58
7847.9
7848.23
7848.58
7848.94
7849.32
7849.7
7850.1
7850.51
7850.93
7851.37
7851.81
7852.27
7852.74
7853.21
7853.7
7854.19
7854.7
7855.21
7855.73
7856.26
7856.79
7857.34
7857.89
7858.44
7859
7859.57
7860.15
7860.72
7861.31
7861.9
7862.49
7863.09
7863.69
7864.29
7864.9
7865.51
7866.12
7866.73
7867.35
7867.97
7868.59
7869.21
7869.84
7870.46
7871.09
7871.71
7872.34
7872.97
7873.6
7874.22
7874.85
7875.48
7876.11
7876.73
7877.36
7877.98
7878.61
7879.23
7879.85
7880.48
7881.09
7881.71
7882.33
7882.95
7883.56
7884.17
7884.78
7885.39
7886
7886.6
7887.2
7887.81
7888.4
7889
7889.6
7890.14
7891.02
8252.32
8250.82
8247.96
8244.1
8240.86
8238.36
8236.74
8235.52
8234.48
8233.32
8231.98
8230.53
8228.91
8227.17
8225.3
8223.29
8221.22
8219.16
8217.11
8215.07
8213.02
8210.95
8208.81
8206.53
8204.29
8202.01
8199.59
8197.05
8194.33
8191.31
8188.69
8186.14
8183.3
8180.32
8177.27
8174.14
8170.93
8167.66
8164.31
8160.88
8157.37
8153.79
8150.12
8146.35
8142.49
8138.51
8134.44
8130.36
8126.21
8122.03
8117.69
8113.24
8108.7
8104.08
8099.39
8094.61
8089.74
8084.78
8079.67
8074.26
8068.71
8063.44
8058.63
8053.36
8047.86
8042.27
8036.59
8030.84
8025.01
8019.05
8012.85
8006.67
8000.78
7994.82
7988.54
7982.13
7975.44
7968.64
7962.36
7955.86
7949.1
7942.22
7935.14
7928.11
7921.08
7913.81
7906.35
7898.93
7891.51
7883.54
7875.6
7867.9
7860.57
7854.23
7846.64
7832.16
7823.49
7812.86
7803.68
7793.64
7784.09
7772.83
7762.66
7751.41
7740.81
7729.53
7718.79
7707.35
7696.43
7685.17
7673.67
7661.9
7650.16
7638.62
7628.64
7617.57
7604.83
7592.77
7581.22
7569.84
7558.74
7547.76
7536.94
7526.09
7515.58
7505.1
7494.82
7484.58
7474.95
7465.2
7455.88
7447.16
7438.34
7429.24
7420.99
7412.81
7405.35
7397.93
7391.05
7384.19
7377.53
7371.02
7364.77
7358.54
7352.7
7347.1
7341.98
7336.91
7332.08
7327.41
7323.01
7319.03
7315.56
7312.3
7309.32
7306.67
7304.38
7302.34
7300.71
7299.56
7298.84
7298.38
7298.28
7298.53
7299.05
7300
7301.4
7303.21
7305.26
7307.65
7310.34
7313.29
7316.68
7320.49
7324.48
7328.75
7333.25
7337.97
7343.05
7348.51
7354.16
7359.97
7365.98
7372.17
7378.53
7385.11
7391.94
7398.84
7405.8
7412.99
7420.39
7427.83
7435.33
7442.95
7450.63
7458.35
7466.07
7473.8
7481.71
7489.62
7497.48
7505.27
7513.14
7521.01
7528.95
7536.78
7544.55
7552.24
7559.85
7567.48
7575.08
7582.7
7590.22
7597.62
7604.95
7612.16
7619.3
7626.42
7633.53
7640.54
7647.43
7654.21
7660.9
7667.56
7674.18
7680.75
7687.19
7693.55
7699.83
7705.97
7712.09
7718.16
7724.17
7730.2
7736.13
7741.96
7747.74
7753.45
7759.07
7764.68
7770.34
7775.91
7781.41
7786.83
7792.24
7797.64
7803.01
7808.4
7813.75
7819.04
7824.29
7829.47
7834.64
7839.81
7844.97
7850.15
7855.25
7860.3
7865.28
7870.27
7875.26
7880.22
7885.1
7889.94
7894.72
7899.46
7904.2
7908.88
7913.49
7918.05
7922.54
7926.95
7931.32
7935.65
7939.94
7944.13
7948.25
7952.31
7956.27
7960.16
7963.99
7967.78
7971.5
7975.12
7978.66
7982.12
7985.49
7988.82
7992.11
7995.3
7998.42
8001.46
8004.43
8007.36
8010.23
8013.05
8015.79
8018.48
8021.09
8023.64
8026.13
8028.57
8030.92
8033.19
8035.36
8037.47
8039.48
8041.39
8043.17
8044.85
8046.43
8047.89
8049.22
8050.42
8051.47
8052.42
8053.23
8053.9
8054.41
8054.79
8055.03
8055.13
8055.08
8054.89
8054.55
8054.07
8053.45
8052.68
8051.78
8050.75
8049.58
8048.29
8046.86
8045.31
8043.65
8041.87
8039.99
8038
8035.91
8033.72
8031.44
8029.09
8026.66
8024.15
8021.58
8018.95
8016.27
8013.54
8010.76
8007.95
8005.1
8002.22
7999.33
7996.42
7993.5
7990.57
7987.63
7984.7
7981.78
7978.86
7975.96
7973.08
7970.21
7967.37
7964.56
7961.77
7959.02
7956.29
7953.61
7950.95
7948.34
7945.76
7943.22
7940.72
7938.27
7935.86
7933.48
7931.16
7928.87
7926.63
7924.43
7922.27
7920.15
7918.07
7916.04
7914.04
7912.09
7910.18
7908.3
7906.46
7904.65
7902.88
7901.15
7899.44
7897.76
7896.12
7894.51
7892.93
7891.38
7889.85
7888.35
7886.87
7885.43
7884
7882.61
7881.22
7879.87
7878.53
7877.23
7875.94
7874.67
7873.42
7872.16
7870.94
7869.74
7868.57
7867.42
7866.29
7865.18
7864.08
7863.01
7861.95
7860.91
7859.89
7858.9
7857.93
7857
7856.08
7855.21
7854.35
7853.55
7852.74
7852
7851.25
7850.58
7849.9
7849.3
7848.69
7848.14
7847.61
7847.12
7846.66
7846.23
7845.84
7845.48
7845.16
7844.87
7844.64
7844.41
7844.24
7843.98
7843.9
7843.86
7843.9
7843.89
7843.96
7844
7844.12
7844.21
7844.37
7844.52
7844.68
7844.85
7845.04
7845.25
7845.47
7845.71
7845.95
7846.21
7846.49
7846.77
7847.07
7847.38
7847.71
7848.05
7848.41
7848.77
7849.15
7849.54
7849.95
7850.36
7850.79
7851.23
7851.68
7852.14
7852.61
7853.09
7853.58
7854.08
7854.59
7855.11
7855.63
7856.16
7856.7
7857.25
7857.81
7858.37
7858.93
7859.5
7860.08
7860.66
7861.25
7861.84
7862.44
7863.04
7863.64
7864.25
7864.86
7865.47
7866.09
7866.7
7867.32
7867.95
7868.57
7869.19
7869.82
7870.45
7871.08
7871.7
7872.33
7872.96
7873.59
7874.22
7874.85
7875.48
7876.11
7876.74
7877.37
7877.99
7878.62
7879.24
7879.87
7880.49
7881.11
7881.73
7882.35
7882.96
7883.58
7884.19
7884.8
7885.41
7886.02
7886.62
7887.23
7887.83
7888.43
7889.02
7889.62
7890.16
7891.05
8252.7
8250.64
8248.43
8246.06
8243.76
8240.9
8238.37
8236.89
8235.85
8234.43
8232.82
8231.15
8229.44
8227.68
8225.83
8223.87
8221.86
8219.84
8217.8
8215.74
8213.66
8211.55
8209.39
8207.18
8204.92
8202.57
8200.15
8197.65
8195.05
8192.35
8189.67
8186.93
8184.05
8181.09
8178.03
8174.92
8171.78
8168.57
8165.23
8161.83
8158.3
8154.69
8151.06
8147.38
8143.56
8139.6
8135.4
8130.55
8126.74
8123.03
8118.79
8114.35
8109.83
8105.21
8100.51
8095.72
8090.84
8085.87
8080.81
8075.62
8070.21
8064.73
8059.15
8053.88
8048.63
8043.03
8037.3
8031.47
8025.55
8019.45
8013.05
8006.84
8000.68
7994.78
7988.45
7981.94
7975.29
7968.58
7961.83
7955.01
7948.05
7940.76
7933.37
7926.36
7919.38
7911.93
7904.34
7896.64
7888.84
7880.85
7872.91
7865.05
7856.36
7848.08
7839.92
7832.39
7826.2
7818.17
7802.55
7793.07
7782.06
7772.42
7761.87
7751.55
7739.71
7729.04
7717.51
7706.58
7695.17
7683.75
7672.21
7660.75
7649.49
7637.66
7625.97
7613.87
7602.39
7592.11
7580.91
7568.38
7556.56
7545.5
7534.7
7524.16
7513.41
7503.07
7492.56
7482.37
7472.48
7462.94
7453.51
7444.37
7435.08
7426.39
7417.9
7410.03
7401.9
7394.06
7386.94
7380.31
7373.5
7367.13
7360.72
7354.51
7348.51
7343.15
7337.93
7332.88
7328
7323.44
7319.03
7315.09
7311.59
7308.29
7305.27
7302.59
7300.34
7298.5
7296.93
7295.73
7294.94
7294.53
7294.46
7294.76
7295.43
7296.48
7297.9
7299.67
7301.77
7304.15
7306.89
7310.14
7313.63
7317.39
7321.45
7325.73
7330.26
7335.18
7340.5
7346.02
7351.7
7357.61
7363.7
7369.89
7376.34
7383.06
7390.1
7397.16
7404.33
7411.56
7418.83
7426.33
7433.95
7441.8
7449.58
7457.4
7465.22
7472.99
7480.9
7488.83
7496.78
7504.77
7512.83
7520.77
7528.67
7536.53
7544.3
7551.98
7559.72
7567.41
7575.11
7582.75
7590.25
7597.67
7605.04
7612.33
7619.48
7626.57
7633.62
7640.68
7647.62
7654.45
7661.16
7667.81
7674.46
7680.97
7687.37
7693.72
7700.04
7706.28
7712.39
7718.38
7724.38
7730.37
7736.32
7742.17
7747.94
7753.64
7759.24
7764.83
7770.52
7776.07
7781.57
7787.01
7792.38
7797.75
7803.13
7808.55
7813.87
7819.15
7824.4
7829.57
7834.75
7839.92
7845.14
7850.29
7855.39
7860.46
7865.45
7870.42
7875.45
7880.41
7885.31
7890.15
7894.92
7899.68
7904.45
7909.16
7913.79
7918.37
7922.87
7927.3
7931.69
7936.06
7940.36
7944.58
7948.72
7952.79
7956.79
7960.7
7964.56
7968.38
7972.11
7975.76
7979.33
7982.83
7986.22
7989.59
7992.89
7996.11
7999.25
8002.32
8005.32
8008.28
8011.19
8014.02
8016.78
8019.49
8022.13
8024.71
8027.22
8029.67
8032.04
8034.32
8036.52
8038.64
8040.67
8042.59
8044.4
8046.09
8047.69
8049.17
8050.51
8051.73
8052.82
8053.77
8054.59
8055.26
8055.79
8056.18
8056.42
8056.51
8056.46
8056.26
8055.92
8055.43
8054.8
8054.02
8053.11
8052.05
8050.86
8049.53
8048.08
8046.51
8044.82
8043.01
8041.09
8039.05
8036.92
8034.7
8032.39
8030
8027.52
8024.97
8022.36
8019.69
8016.96
8014.18
8011.36
8008.51
8005.62
8002.7
7999.76
7996.81
7993.85
7990.89
7987.92
7984.95
7982
7979.05
7976.12
7973.21
7970.31
7967.45
7964.61
7961.8
7959.03
7956.29
7953.58
7950.91
7948.28
7945.69
7943.14
7940.63
7938.17
7935.75
7933.37
7931.04
7928.75
7926.5
7924.3
7922.14
7920.02
7917.94
7915.91
7913.91
7911.96
7910.04
7908.16
7906.32
7904.51
7902.74
7901
7899.29
7897.61
7895.97
7894.35
7892.77
7891.2
7889.68