/*--------------------------------*- C++ -*----------------------------------*\
| =========                 |                                                 |
| \\      /  F ield         | OpenFOAM: The Open Source CFD Toolbox           |
|  \\    /   O peration     | Version:  v2006                                 |
|   \\  /    A nd           | Website:  www.openfoam.com                      |
|    \\/     M anipulation  |                                                 |
\*---------------------------------------------------------------------------*/
FoamFile
{
    version     2.0;
    format      ascii;
    class       volVectorField;
    location    "6.7";
    object      U;
}
// * * * * * * * * * * * * * * * * * * * * * * * * * * * * * * * * * * * * * //

dimensions      [0 1 -1 0 0 0 0];


internalField   nonuniform List<vector> 
33000
(
(0.115794 0 0.00144397)
(0.117814 0 0.00144162)
(0.120488 0 -0.00157572)
(0.129604 0 -0.00811904)
(0.148818 0 -0.012026)
(0.165543 0 -0.0110526)
(0.174823 0 -0.00855955)
(0.178799 0 -0.00614993)
(0.18131 0 -0.00769432)
(0.186011 0 -0.00692282)
(0.189098 0 -0.0059573)
(0.192347 0 -0.00575209)
(0.19652 0 -0.00479599)
(0.201027 0 -0.00451754)
(0.206779 0 -0.0061049)
(0.213318 0 -0.008032)
(0.220602 0 -0.00603774)
(0.221819 0 -0.00031367)
(0.219168 0 0.00116693)
(0.210114 0 -0.00107392)
(0.202313 0 0.00599754)
(0.180874 0 0.0237593)
(0.154963 0 0.0264592)
(0.137936 0 0.0184466)
(0.124671 0 0.0119797)
(0.116505 0 0.00675399)
(0.111464 0 0.00439091)
(0.106524 0 0.00452326)
(0.101418 0 0.00528918)
(0.095408 0 0.00581715)
(0.0893052 0 0.00487675)
(0.0844695 0 0.00418302)
(0.0800551 0 0.00411247)
(0.0754506 0 0.00348012)
(0.0726886 0 0.00160337)
(0.0717181 0 0.000418098)
(0.071254 0 0.000838504)
(0.0690808 0 0.00300353)
(0.0642605 0 0.00515637)
(0.0584684 0 0.00439175)
(0.0555385 0 0.00131803)
(0.0549463 0 0.000162812)
(0.0546973 0 0.000573116)
(0.0535541 0 0.00156509)
(0.0508035 0 0.00307449)
(0.0468591 0 0.00384265)
(0.0432554 0 0.00227751)
(0.0417172 0 0.000454947)
(0.0414315 0 0.000228419)
(0.040916 0 0.000456519)
(0.0406617 0 0.000465422)
(0.0399967 0 0.00029435)
(0.0398359 0 0.000190396)
(0.0391374 0 0.000875048)
(0.0370331 0 0.00229577)
(0.0336234 0 0.00344753)
(0.0298717 0 0.00370133)
(0.0266914 0 0.00271133)
(0.0247028 0 0.0012675)
(0.0231235 0 0.00123964)
(0.0209587 0 0.00210367)
(0.0180126 0 0.00189676)
(0.0167166 0 9.51367e-05)
(0.017458 0 -0.00156908)
(0.0193954 0 -0.00267685)
(0.021725 0 -0.00279716)
(0.0237031 0 -0.00228362)
(0.0251597 0 -0.00257172)
(0.0268287 0 -0.00338118)
(0.0292663 0 -0.00461768)
(0.0325898 0 -0.00608637)
(0.0379313 0 -0.00803142)
(0.0448531 0 -0.00942999)
(0.0529099 0 -0.00922058)
(0.059357 0 -0.00723867)
(0.0666791 0 -0.0022635)
(0.0660076 0 0.00736206)
(0.065498 0 0.0229664)
(0.0354973 0 0.0151957)
(0.0365217 0 0.00294249)
(0.0220126 0 -0.000377222)
(0.0211593 0 -0.00344238)
(0.0154131 0 0.00433255)
(0.0136102 0 0.0014327)
(0.0139341 0 0.00274633)
(0.0131601 0 0.000121889)
(0.012342 0 0.000513298)
(0.0121318 0 -0.000971978)
(0.011961 0 -0.000778446)
(0.0123852 0 -0.000539999)
(0.0127082 0 -0.00100843)
(0.0144773 0 -0.0012428)
(0.0160136 0 -0.00275381)
(0.0185876 0 -0.00365371)
(0.0218909 0 -0.0059565)
(0.0267113 0 -0.00677306)
(0.0322101 0 -0.00785878)
(0.0378985 0 -0.00693495)
(0.0452286 0 -0.00316246)
(0.0460508 0 0.00266084)
(0.047603 0 0.0043035)
(0.0467898 0 0.0037269)
(0.0461994 0 0.0016594)
(0.0447659 0 -0.000699646)
(0.0440477 0 -0.00115607)
(0.0428916 0 -0.000583607)
(0.0423872 0 0.000747759)
(0.0420705 0 0.00126945)
(0.0413334 0 0.00159582)
(0.0403779 0 0.00129774)
(0.0393836 0 0.000719428)
(0.038345 0 0.00058636)
(0.0373769 0 0.000589604)
(0.0364733 0 0.000696299)
(0.0359503 0 0.000323404)
(0.0351204 0 0.000121401)
(0.0354109 0 0.000331698)
(0.0334715 0 0.000997162)
(0.033063 0 0.00120608)
(0.0316696 0 0.00119497)
(0.0308536 0 0.000891178)
(0.0298219 0 0.000765537)
(0.0286717 0 0.000679389)
(0.027411 0 0.000749222)
(0.0262655 0 0.00103238)
(0.0250429 0 0.00116844)
(0.0237543 0 0.00122957)
(0.0224682 0 0.00106451)
(0.0210462 0 0.00114471)
(0.0195423 0 0.00110604)
(0.0180689 0 0.00123578)
(0.0165818 0 0.00117034)
(0.0151279 0 0.00123755)
(0.013641 0 0.00116799)
(0.0120911 0 0.00120985)
(0.010574 0 0.001147)
(0.00900791 0 0.00117159)
(0.00750996 0 0.00114988)
(0.0059836 0 0.00117528)
(0.00445906 0 0.00119307)
(0.00293794 0 0.00117047)
(0.00144875 0 0.00115199)
(-2.04371e-06 0 0.00109532)
(-0.00139008 0 0.00105604)
(-0.00271736 0 0.0010175)
(-0.00402908 0 0.00101153)
(-0.00532165 0 0.000996743)
(-0.00660223 0 0.000999679)
(-0.00785956 0 0.000962308)
(-0.0090444 0 0.000902294)
(-0.0101712 0 0.000871814)
(-0.011292 0 0.000863403)
(-0.0123917 0 0.00085321)
(-0.0134751 0 0.000840754)
(-0.0145186 0 0.000813513)
(-0.0155307 0 0.000783826)
(-0.0165101 0 0.000751968)
(-0.017457 0 0.000731994)
(-0.0183805 0 0.000711324)
(-0.0192697 0 0.000689208)
(-0.0201316 0 0.000673384)
(-0.0209781 0 0.000659136)
(-0.021799 0 0.000628493)
(-0.0225731 0 0.000594581)
(-0.0233129 0 0.000575557)
(-0.0240385 0 0.000566271)
(-0.0247517 0 0.000546946)
(-0.0254247 0 0.000508621)
(-0.0260481 0 0.000479378)
(-0.0266471 0 0.000463773)
(-0.0272325 0 0.000452915)
(-0.0277997 0 0.000437324)
(-0.0283379 0 0.000406334)
(-0.0288316 0 0.000370653)
(-0.0292879 0 0.000346696)
(-0.029719 0 0.000330066)
(-0.0301308 0 0.000318719)
(-0.0305256 0 0.000302998)
(-0.0308968 0 0.000283302)
(-0.0312431 0 0.000260567)
(-0.0315604 0 0.000238224)
(-0.0318529 0 0.000213879)
(-0.0321085 0 0.00018517)
(-0.032329 0 0.000165821)
(-0.0325309 0 0.000152708)
(-0.0327141 0 0.000141252)
(-0.0328843 0 0.000129079)
(-0.0330383 0 0.000107304)
(-0.0331603 0 8.15276e-05)
(-0.0332538 0 6.04438e-05)
(-0.0333207 0 4.36334e-05)
(-0.0333675 0 3.50005e-05)
(-0.0334019 0 2.47233e-05)
(-0.0334204 0 9.45415e-06)
(-0.0334187 0 -9.89672e-06)
(-0.0333965 0 -2.99137e-05)
(-0.0333478 0 -5.01005e-05)
(-0.0332737 0 -6.68991e-05)
(-0.0331796 0 -7.84413e-05)
(-0.0330773 0 -8.09047e-05)
(-0.032972 0 -8.55074e-05)
(-0.0328532 0 -9.69107e-05)
(-0.0327164 0 -0.000115789)
(-0.032551 0 -0.000139661)
(-0.0323642 0 -0.000152245)
(-0.0321692 0 -0.000157485)
(-0.0319679 0 -0.00016141)
(-0.0317586 0 -0.000166522)
(-0.0315378 0 -0.000179066)
(-0.031295 0 -0.000198809)
(-0.0310344 0 -0.000207229)
(-0.0307734 0 -0.000203847)
(-0.0305189 0 -0.000196861)
(-0.0302627 0 -0.00021075)
(-0.0299721 0 -0.000239584)
(-0.0296578 0 -0.00025043)
(-0.029342 0 -0.000253139)
(-0.0290204 0 -0.000246814)
(-0.0287132 0 -0.000232448)
(-0.0284161 0 -0.000233972)
(-0.0281082 0 -0.000249411)
(-0.0277815 0 -0.000267517)
(-0.0274356 0 -0.000274484)
(-0.0270903 0 -0.000273081)
(-0.0267487 0 -0.000260668)
(-0.0264274 0 -0.000240323)
(-0.0261239 0 -0.000237611)
(-0.0258128 0 -0.000244707)
(-0.0255029 0 -0.000249002)
(-0.0251835 0 -0.000253139)
(-0.0248651 0 -0.000248672)
(-0.0245582 0 -0.000230174)
(-0.0242796 0 -0.000206119)
(-0.0240235 0 -0.000202306)
(-0.0237596 0 -0.000206618)
(-0.0234997 0 -0.000201551)
(-0.023244 0 -0.000198962)
(-0.0229909 0 -0.000192751)
(-0.0227504 0 -0.000181192)
(-0.0225245 0 -0.000174267)
(-0.0223077 0 -0.00017031)
(-0.0221017 0 -0.000158423)
(-0.0219114 0 -0.000144045)
(-0.0217314 0 -0.000135317)
(-0.0215534 0 -0.000140714)
(-0.0213663 0 -0.000149633)
(-0.0211775 0 -0.000149275)
(-0.0209924 0 -0.000140731)
(-0.0208237 0 -0.00011977)
(-0.0206792 0 -0.000113944)
(-0.0205212 0 -0.000133546)
(-0.0203418 0 -0.000143569)
(-0.0201602 0 -0.000143011)
(-0.0199799 0 -0.000142927)
(-0.0198006 0 -0.000137153)
(-0.0196294 0 -0.000134961)
(-0.0194493 0 -0.000144547)
(-0.0192536 0 -0.000155983)
(-0.0190497 0 -0.000164588)
(-0.0188348 0 -0.000174619)
(-0.0186108 0 -0.000179711)
(-0.0183848 0 -0.000181405)
(-0.0181462 0 -0.000190047)
(-0.0178924 0 -0.000205348)
(-0.0176188 0 -0.000223586)
(-0.0173258 0 -0.000235645)
(-0.0170245 0 -0.000238905)
(-0.016722 0 -0.000238092)
(-0.0164134 0 -0.00024937)
(-0.0160798 0 -0.000273732)
(-0.0157163 0 -0.000294702)
(-0.0153331 0 -0.000308213)
(-0.0149358 0 -0.000321549)
(-0.0145196 0 -0.000331227)
(-0.0140947 0 -0.000334715)
(-0.013661 0 -0.000347353)
(-0.0132058 0 -0.00036686)
(-0.012729 0 -0.00038487)
(-0.0122301 0 -0.000400906)
(-0.0117119 0 -0.000415521)
(-0.0111747 0 -0.000430446)
(-0.0106192 0 -0.000445062)
(-0.0100454 0 -0.000453989)
(-0.00946621 0 -0.000458375)
(-0.00887698 0 -0.000473537)
(-0.00826055 0 -0.000493018)
(-0.00762533 0 -0.000506317)
(-0.00697599 0 -0.000516814)
(-0.00631461 0 -0.000526546)
(-0.00564029 0 -0.000534487)
(-0.00495783 0 -0.000538705)
(-0.00427009 0 -0.000544677)
(-0.0035724 0 -0.000552976)
(-0.00286566 0 -0.000560281)
(-0.00215203 0 -0.000564784)
(-0.00143486 0 -0.000566377)
(-0.000716836 0 -0.000563321)
(-3.46344e-06 0 -0.000558348)
(0.000706179 0 -0.000556766)
(0.00141333 0 -0.000555725)
(0.00211722 0 -0.000553789)
(0.00281942 0 -0.000550146)
(0.00351592 0 -0.000543127)
(0.00420295 0 -0.000536517)
(0.00488379 0 -0.000532915)
(0.00555893 0 -0.000528541)
(0.00622731 0 -0.000521994)
(0.00688746 0 -0.000514315)
(0.00753767 0 -0.000507011)
(0.00817858 0 -0.000500429)
(0.00881064 0 -0.000493659)
(0.00943379 0 -0.000485282)
(0.0100453 0 -0.000474798)
(0.010643 0 -0.000464252)
(0.011228 0 -0.000455392)
(0.011802 0 -0.00044646)
(0.0123638 0 -0.000435985)
(0.0129117 0 -0.000424514)
(0.0134449 0 -0.00041296)
(0.0139634 0 -0.000401505)
(0.014467 0 -0.00038986)
(0.0149554 0 -0.00037758)
(0.0154278 0 -0.000364344)
(0.0158832 0 -0.000350729)
(0.0163217 0 -0.000337919)
(0.0167438 0 -0.000325116)
(0.0171489 0 -0.000311224)
(0.0175355 0 -0.000296344)
(0.0179034 0 -0.000281753)
(0.0182534 0 -0.000267802)
(0.0185856 0 -0.000254093)
(0.0188999 0 -0.000239683)
(0.019195 0 -0.00022378)
(0.0194695 0 -0.000207538)
(0.0197241 0 -0.000192837)
(0.0199605 0 -0.000178763)
(0.0201788 0 -0.0001644)
(0.0203783 0 -0.0001495)
(0.0205588 0 -0.000134178)
(0.0207198 0 -0.000118786)
(0.0208615 0 -0.000104029)
(0.0209845 0 -8.98058e-05)
(0.0210895 0 -7.57202e-05)
(0.0211765 0 -6.14468e-05)
(0.0212451 0 -4.68301e-05)
(0.0212952 0 -3.23409e-05)
(0.0213274 0 -1.87456e-05)
(0.0213428 0 -5.87726e-06)
(0.0213417 0 6.86641e-06)
(0.0213242 0 2.00607e-05)
(0.0212897 0 3.3643e-05)
(0.0212383 0 4.61974e-05)
(0.0211716 0 5.74639e-05)
(0.0210907 0 6.89463e-05)
(0.0209947 0 8.10182e-05)
(0.0208836 0 9.22187e-05)
(0.0207587 0 0.000102809)
(0.0206202 0 0.00011325)
(0.0204684 0 0.000123573)
(0.0203039 0 0.000133378)
(0.0201272 0 0.000142954)
(0.0199384 0 0.000152123)
(0.0197381 0 0.000161125)
(0.0195267 0 0.000169881)
(0.0193041 0 0.000178798)
(0.0190706 0 0.000187141)
(0.0188267 0 0.000194928)
(0.0185733 0 0.000201952)
(0.018311 0 0.000208775)
(0.0180399 0 0.000216127)
(0.0177593 0 0.000223568)
(0.0174699 0 0.000230324)
(0.0171723 0 0.000236072)
(0.0168679 0 0.000241673)
(0.0165563 0 0.000247621)
(0.0162372 0 0.000253513)
(0.0159109 0 0.00025875)
(0.015578 0 0.000264221)
(0.0152385 0 0.000269809)
(0.0148917 0 0.000275842)
(0.0145383 0 0.000279438)
(0.0141801 0 0.000283002)
(0.0138174 0 0.000286283)
(0.01345 0 0.000290989)
(0.0130771 0 0.000294816)
(0.0126995 0 0.000299341)
(0.0123168 0 0.000302834)
(0.0119294 0 0.000306373)
(0.0115391 0 0.00030802)
(0.0111457 0 0.000311358)
(0.0107486 0 0.000314729)
(0.0103471 0 0.000318197)
(0.0099433 0 0.000318746)
(0.00953846 0 0.000319938)
(0.00913149 0 0.000321591)
(0.00872295 0 0.000322689)
(0.00831363 0 0.000324311)
(0.00790243 0 0.000326064)
(0.00748946 0 0.0003276)
(0.00707684 0 0.000326025)
(0.00666453 0 0.000325873)
(0.00625611 0 0.000322842)
(0.00584832 0 0.00032326)
(0.00544363 0 0.000320431)
(0.0050392 0 0.000321675)
(0.00463927 0 0.000317654)
(0.00424033 0 0.000316544)
(0.00385142 0 0.000308698)
(0.00346468 0 0.000305585)
(0.00308807 0 0.000296849)
(0.00271251 0 0.000292684)
(0.002347 0 0.000285429)
(0.00198462 0 0.000279586)
(0.00163304 0 0.000275742)
(0.00129033 0 0.000268253)
(0.000954717 0 0.000264394)
(0.000628851 0 0.00024658)
(0.000310251 0 0.000240602)
(-3.53941e-06 0 0.000225996)
(-0.000304397 0 0.000235642)
(-0.000599046 0 0.000233121)
(-0.000876475 0 0.000240226)
(-0.00114573 0 0.000205267)
(-0.00141021 0 0.000180517)
(-0.00164335 0 0.000132399)
(-0.00188994 0 0.000175768)
(-0.00218735 0 0.000154292)
(-0.00233544 0 0.000227477)
(-0.00264543 0 0.000279189)
(-0.00280899 0 0.000185031)
(-0.00306982 0 3.07708e-05)
(-0.00307526 0 2.46982e-05)
(-0.00327816 0 0.00011681)
(-0.00341092 0 8.30448e-05)
(-0.0036015 0 0.000116194)
(-0.00378799 0 7.18831e-05)
(-0.00394338 0 0.00012393)
(-0.00410415 0 0.000125661)
(-0.00422085 0 0.000178621)
(-0.00437584 0 0.000186444)
(-0.00446134 0 7.96329e-05)
(-0.0045962 0 3.79021e-05)
(-0.00481497 0 -4.86272e-05)
(-0.00495337 0 0.000128826)
(-0.00506206 0 0.000388788)
(-0.00518331 0 0.000544431)
(-0.00500577 0 0.00021885)
(-0.00495796 0 -0.000319202)
(-0.00412391 0 -0.000929877)
(-0.00364099 0 -0.000561909)
(-0.0030787 0 -0.000478694)
(-0.00283546 0 -0.00026692)
(-0.00258286 0 -0.000188624)
(-0.00243236 0 -0.000180252)
(-0.00229105 0 -4.51512e-05)
(-0.00217619 0 -0.000181408)
(-0.00209215 0 2.019e-05)
(-0.00200453 0 -0.000207418)
(-0.00187056 0 7.13214e-05)
(-0.00188842 0 -0.000224695)
(-0.00169317 0 4.90507e-05)
(-0.0016456 0 -0.000199858)
(-0.00169174 0 0.00015031)
(-0.00137724 0 -0.000311993)
(-0.00117465 0 0.000321251)
(-0.00177524 0 -0.000543747)
(-0.000704148 0 -0.00020998)
(-0.00197757 0 0.000135152)
(-8.04058e-05 0 0.000593971)
(-0.00345394 0 0.00115115)
(-0.00196188 0 -0.000647518)
(-0.00207541 0 -0.000592115)
(-0.00112887 0 -0.000566374)
(-0.000875851 0 -0.000391403)
(-0.000466137 0 -0.000322207)
(-0.000199799 0 -0.000281376)
(8.50006e-05 0 -0.000249046)
(0.000338956 0 -0.000221095)
(0.000573746 0 -0.000197673)
(0.000799024 0 -0.000192701)
(0.00103136 0 -0.000193029)
(0.00126573 0 -0.000184597)
(0.00149322 0 -0.000183652)
(0.00172332 0 -0.000183699)
(0.00195436 0 -0.000178192)
(0.00218421 0 -0.000186536)
(0.00242238 0 -0.000190132)
(0.00266507 0 -0.000187481)
(0.00290314 0 -0.000182762)
(0.00314119 0 -0.000194507)
(0.00339308 0 -0.000202654)
(0.00365108 0 -0.000198741)
(0.00390271 0 -0.000193814)
(0.00414973 0 -0.000193297)
(0.0044001 0 -0.000199485)
(0.00465795 0 -0.000205315)
(0.00491975 0 -0.00020648)
(0.00518374 0 -0.000208537)
(0.005449 0 -0.000208443)
(0.00571663 0 -0.000213207)
(0.0059857 0 -0.000206945)
(0.00624858 0 -0.000203259)
(0.00651113 0 -0.00021157)
(0.00678533 0 -0.000221386)
(0.00707066 0 -0.0002282)
(0.00736145 0 -0.000231596)
(0.00765345 0 -0.000230101)
(0.00794451 0 -0.000228435)
(0.00823436 0 -0.000227514)
(0.008524 0 -0.000227641)
(0.0088142 0 -0.000228512)
(0.00910738 0 -0.000231709)
(0.00940046 0 -0.000227082)
(0.00969058 0 -0.00023268)
(0.00998703 0 -0.000237719)
(0.0102873 0 -0.000232697)
(0.0105796 0 -0.000225164)
(0.0108642 0 -0.000221497)
(0.0111468 0 -0.000220397)
(0.01143 0 -0.0002216)
(0.0117151 0 -0.000224473)
(0.0120029 0 -0.000226781)
(0.0122926 0 -0.000228111)
(0.0125833 0 -0.000228494)
(0.0128741 0 -0.000228069)
(0.0131643 0 -0.000227215)
(0.0134532 0 -0.000226026)
(0.013741 0 -0.000225822)
(0.0140291 0 -0.000226569)
(0.0143182 0 -0.00022708)
(0.014608 0 -0.000227694)
(0.0148973 0 -0.000226759)
(0.0151841 0 -0.000224261)
(0.0154684 0 -0.000222428)
(0.0157524 0 -0.00022323)
(0.0160385 0 -0.000225239)
(0.0163259 0 -0.000225071)
(0.0166113 0 -0.000223001)
(0.0168931 0 -0.000218633)
(0.017173 0 -0.000223352)
(0.0174621 0 -0.000219036)
(0.0177353 0 -0.000218625)
(0.0180293 0 -0.000219252)
(0.0182845 0 -0.000234147)
(0.0186352 0 -0.000242212)
(0.0188461 0 -0.000240815)
(0.0193289 0 -0.000238009)
(0.0194209 0 -0.000237394)
(0.01903 0 -0.00023755)
(0.0229056 0 -0.000274489)
(0.115874 0 0.00371217)
(0.117118 0 0.00216693)
(0.121247 0 -0.0125199)
(0.148496 0 -0.0401315)
(0.178963 0 -0.0455166)
(0.205065 0 -0.024555)
(0.211472 0 -0.00666202)
(0.206726 0 -0.00337494)
(0.195035 0 -0.00471182)
(0.187074 0 -0.00544194)
(0.182942 0 -0.00542523)
(0.179073 0 -0.00754443)
(0.176886 0 -0.0106845)
(0.177215 0 -0.0129364)
(0.179384 0 -0.0135652)
(0.181564 0 -0.0123746)
(0.182539 0 -0.00851662)
(0.181523 0 0.00286095)
(0.172524 0 0.0159301)
(0.164812 0 0.026072)
(0.152478 0 0.0377102)
(0.140191 0 0.0446555)
(0.133212 0 0.0398698)
(0.126115 0 0.0311598)
(0.119257 0 0.0225389)
(0.113299 0 0.0147628)
(0.108224 0 0.0116817)
(0.103504 0 0.0113395)
(0.0985121 0 0.0123908)
(0.0934156 0 0.0133265)
(0.0877878 0 0.0122172)
(0.0829747 0 0.0104465)
(0.0788333 0 0.00984436)
(0.0757462 0 0.00822943)
(0.073408 0 0.00417165)
(0.0712481 0 0.00222918)
(0.069829 0 0.00338136)
(0.0672426 0 0.00771812)
(0.063701 0 0.011105)
(0.0611507 0 0.00950826)
(0.0580663 0 0.00393565)
(0.0560088 0 0.0013076)
(0.0550374 0 0.00180349)
(0.0535641 0 0.00432971)
(0.0508334 0 0.00740698)
(0.0479357 0 0.0081662)
(0.0450241 0 0.00579393)
(0.0424989 0 0.00236462)
(0.0408691 0 0.000955625)
(0.040088 0 0.000934627)
(0.0394454 0 0.000944256)
(0.0387158 0 0.000940061)
(0.037396 0 0.00124091)
(0.0358133 0 0.00360469)
(0.0333502 0 0.0063964)
(0.0310584 0 0.00764528)
(0.0297706 0 0.00705405)
(0.0286965 0 0.00535606)
(0.0268652 0 0.00419648)
(0.0243731 0 0.00471951)
(0.0213289 0 0.00600156)
(0.0183773 0 0.00493594)
(0.0166661 0 0.000891853)
(0.0161397 0 -0.00301345)
(0.0163366 0 -0.00419793)
(0.0164935 0 -0.00409451)
(0.0162599 0 -0.00316327)
(0.0155142 0 -0.00258589)
(0.0144015 0 -0.00291191)
(0.0131915 0 -0.00478122)
(0.0130607 0 -0.00803986)
(0.0145649 0 -0.012165)
(0.0171006 0 -0.0151527)
(0.0208755 0 -0.0159558)
(0.0253309 0 -0.0148613)
(0.0310445 0 -0.0099844)
(0.0370578 0 -0.00149561)
(0.0488776 0 0.0171351)
(0.0595957 0 0.0286912)
(0.0566144 0 0.0204289)
(0.057299 0 0.024974)
(0.0271167 0 0.0142234)
(0.0284737 0 0.0075759)
(0.0152571 0 0.000826715)
(0.0146283 0 -0.0024218)
(0.0103155 0 0.00273012)
(0.0103074 0 0.000812796)
(0.00967579 0 0.0019244)
(0.0131615 0 0.000191024)
(0.0131245 0 -0.000388489)
(0.0128045 0 -0.00243795)
(0.0133625 0 -0.00386158)
(0.0128715 0 -0.00382356)
(0.013417 0 -0.00546708)
(0.0136274 0 -0.00706664)
(0.014295 0 -0.0091609)
(0.01509 0 -0.0103966)
(0.0173423 0 -0.0128186)
(0.0202078 0 -0.0103338)
(0.0254697 0 -0.00737624)
(0.031985 0 -0.00455832)
(0.0387762 0 -0.00180574)
(0.0411984 0 0.00205352)
(0.0437142 0 0.00415549)
(0.0444919 0 0.00411887)
(0.0444607 0 0.0030876)
(0.0436191 0 0.000507547)
(0.0426 0 0.000309724)
(0.041231 0 0.00111578)
(0.0400178 0 0.00175886)
(0.0392534 0 0.00250201)
(0.0386991 0 0.00258252)
(0.03788 0 0.00227355)
(0.0369782 0 0.00163697)
(0.03594 0 0.001508)
(0.0346753 0 0.00111625)
(0.0337367 0 0.0018572)
(0.0331829 0 0.00216109)
(0.032525 0 0.00223399)
(0.0327394 0 0.00220235)
(0.0310864 0 0.00224814)
(0.0303429 0 0.0027099)
(0.0287376 0 0.00306201)
(0.0276124 0 0.00295221)
(0.0265033 0 0.00271656)
(0.0251899 0 0.00276495)
(0.0237233 0 0.00283231)
(0.0223681 0 0.00319182)
(0.0209678 0 0.00345539)
(0.0195602 0 0.00357443)
(0.01818 0 0.00341284)
(0.0166791 0 0.00345612)
(0.0151756 0 0.00337969)
(0.0136701 0 0.0036113)
(0.0121367 0 0.00360836)
(0.0105829 0 0.00370137)
(0.00905787 0 0.00364448)
(0.00754473 0 0.00360254)
(0.00603078 0 0.0036229)
(0.00451718 0 0.00359375)
(0.00302769 0 0.00356385)
(0.00155037 0 0.00346596)
(0.000118486 0 0.00337087)
(-0.00127825 0 0.0032097)
(-0.00262451 0 0.00313538)
(-0.00396528 0 0.00308077)
(-0.00528173 0 0.0030513)
(-0.00656239 0 0.00298794)
(-0.00778618 0 0.00287979)
(-0.00896442 0 0.00272725)
(-0.0101238 0 0.0026651)
(-0.0112653 0 0.00262475)
(-0.0123877 0 0.00258117)
(-0.0134643 0 0.0025001)
(-0.0144907 0 0.00241789)
(-0.0154906 0 0.00234606)
(-0.0164801 0 0.00227589)
(-0.0174471 0 0.0022082)
(-0.0183824 0 0.00213815)
(-0.0192812 0 0.00206203)
(-0.0201505 0 0.00201173)
(-0.0209936 0 0.0019617)
(-0.0218059 0 0.00187849)
(-0.0225848 0 0.00178343)
(-0.0233346 0 0.0017275)
(-0.0240663 0 0.00169447)
(-0.0247728 0 0.00163391)
(-0.0254461 0 0.00152703)
(-0.0260795 0 0.00144176)
(-0.0266828 0 0.00139752)
(-0.0272711 0 0.0013587)
(-0.0278317 0 0.00129992)
(-0.028362 0 0.00121598)
(-0.0288631 0 0.0011214)
(-0.0293295 0 0.00104867)
(-0.0297651 0 0.000993467)
(-0.0301753 0 0.000949419)
(-0.0305625 0 0.000900311)
(-0.0309305 0 0.000844868)
(-0.0312752 0 0.000781999)
(-0.0315929 0 0.000720399)
(-0.0318854 0 0.000648769)
(-0.0321429 0 0.000561725)
(-0.0323687 0 0.00049858)
(-0.0325713 0 0.000452025)
(-0.032751 0 0.000413793)
(-0.032914 0 0.000381122)
(-0.0330636 0 0.000327054)
(-0.0331894 0 0.000256692)
(-0.0332919 0 0.000192994)
(-0.033366 0 0.000133481)
(-0.0334105 0 9.35856e-05)
(-0.0334341 0 5.7422e-05)
(-0.0334407 0 1.75479e-05)
(-0.0334341 0 -2.76985e-05)
(-0.0334129 0 -8.07448e-05)
(-0.0333703 0 -0.000143294)
(-0.0333007 0 -0.000196881)
(-0.0332097 0 -0.000230988)
(-0.0331078 0 -0.000244435)
(-0.0329935 0 -0.000266938)
(-0.0328668 0 -0.000304481)
(-0.0327192 0 -0.000358721)
(-0.0325509 0 -0.000414621)
(-0.0323718 0 -0.000447295)
(-0.0321823 0 -0.000465362)
(-0.0319819 0 -0.000483487)
(-0.0317665 0 -0.000509455)
(-0.0315335 0 -0.000548815)
(-0.0312877 0 -0.000592964)
(-0.0310348 0 -0.000611986)
(-0.0307804 0 -0.000606348)
(-0.0305213 0 -0.000604355)
(-0.0302468 0 -0.000647639)
(-0.0299539 0 -0.000712179)
(-0.0296485 0 -0.000738812)
(-0.029339 0 -0.000748831)
(-0.0290245 0 -0.000742052)
(-0.0287113 0 -0.00071599)
(-0.0283996 0 -0.000717441)
(-0.0280849 0 -0.000746303)
(-0.0277614 0 -0.000790619)
(-0.0274249 0 -0.000810808)
(-0.0270902 0 -0.000806463)
(-0.0267584 0 -0.000781512)
(-0.0264298 0 -0.000740385)
(-0.0261081 0 -0.000728369)
(-0.0257945 0 -0.00073061)
(-0.0254862 0 -0.000739933)
(-0.0251743 0 -0.000749256)
(-0.0248685 0 -0.000733884)
(-0.0245691 0 -0.000690917)
(-0.0242844 0 -0.00063314)
(-0.0240156 0 -0.000614913)
(-0.0237547 0 -0.000617011)
(-0.023492 0 -0.000608288)
(-0.0232312 0 -0.000601042)
(-0.0229797 0 -0.000583076)
(-0.0227405 0 -0.00055163)
(-0.0225175 0 -0.000521093)
(-0.0223124 0 -0.000494012)
(-0.0221178 0 -0.000463984)
(-0.021926 0 -0.000437528)
(-0.0217328 0 -0.000427357)
(-0.0215405 0 -0.000432437)
(-0.0213559 0 -0.000441605)
(-0.021179 0 -0.000437552)
(-0.0210079 0 -0.000416225)
(-0.0208436 0 -0.000371958)
(-0.0206827 0 -0.000360679)
(-0.0205185 0 -0.000396905)
(-0.0203462 0 -0.000424257)
(-0.0201703 0 -0.000425057)
(-0.0200004 0 -0.000422702)
(-0.0198298 0 -0.00041334)
(-0.0196529 0 -0.000416981)
(-0.019463 0 -0.000446308)
(-0.0192633 0 -0.000472225)
(-0.0190579 0 -0.000493404)
(-0.0188481 0 -0.000515274)
(-0.0186379 0 -0.000527533)
(-0.018417 0 -0.00054841)
(-0.0181728 0 -0.00058398)
(-0.0179113 0 -0.000623004)
(-0.0176396 0 -0.000667078)
(-0.0173537 0 -0.000698232)
(-0.0170591 0 -0.000709834)
(-0.016756 0 -0.000722092)
(-0.0164373 0 -0.000759262)
(-0.0160999 0 -0.00082172)
(-0.0157385 0 -0.000878753)
(-0.0153606 0 -0.000918076)
(-0.0149671 0 -0.000956521)
(-0.0145602 0 -0.00099069)
(-0.0141344 0 -0.00101446)
(-0.0136895 0 -0.00104927)
(-0.0132296 0 -0.00109766)
(-0.0127523 0 -0.00114828)
(-0.0122586 0 -0.00119737)
(-0.0117437 0 -0.001243)
(-0.0112093 0 -0.00128665)
(-0.0106551 0 -0.0013293)
(-0.0100857 0 -0.00135812)
(-0.009505 0 -0.00137744)
(-0.0089094 0 -0.00142097)
(-0.00829327 0 -0.0014742)
(-0.00766017 0 -0.00151207)
(-0.00701409 0 -0.00154313)
(-0.00635733 0 -0.00157217)
(-0.00568858 0 -0.00159797)
(-0.00500643 0 -0.0016144)
(-0.00431616 0 -0.00163279)
(-0.00361721 0 -0.00165426)
(-0.00291197 0 -0.00167229)
(-0.0022032 0 -0.00168421)
(-0.00149169 0 -0.00168947)
(-0.000776392 0 -0.00168642)
(-5.93338e-05 0 -0.00167811)
(0.000656356 0 -0.00167023)
(0.00136553 0 -0.00166205)
(0.00206857 0 -0.00165614)
(0.0027702 0 -0.00164806)
(0.00346904 0 -0.00163134)
(0.00416307 0 -0.00161301)
(0.00484857 0 -0.00159814)
(0.00552398 0 -0.00158262)
(0.00619414 0 -0.00156581)
(0.00685868 0 -0.0015448)
(0.0075136 0 -0.00152197)
(0.00815724 0 -0.00149996)
(0.00879084 0 -0.00147891)
(0.00941553 0 -0.00145509)
(0.01003 0 -0.00142558)
(0.010632 0 -0.00139431)
(0.0112203 0 -0.00136605)
(0.0117959 0 -0.00133857)
(0.0123595 0 -0.0013081)
(0.0129101 0 -0.00127454)
(0.0134464 0 -0.0012398)
(0.0139674 0 -0.00120464)
(0.0144727 0 -0.0011691)
(0.0149624 0 -0.00113239)
(0.0154365 0 -0.00109381)
(0.0158944 0 -0.00105395)
(0.0163356 0 -0.00101467)
(0.0167594 0 -0.000975013)
(0.0171652 0 -0.000933199)
(0.017553 0 -0.000889691)
(0.0179227 0 -0.000846669)
(0.0182746 0 -0.000804533)
(0.018608 0 -0.000762093)
(0.0189225 0 -0.000718208)
(0.0192178 0 -0.000671593)
(0.0194937 0 -0.000624094)
(0.0197501 0 -0.000579103)
(0.0199874 0 -0.000535981)
(0.0202058 0 -0.000492475)
(0.0204049 0 -0.000447824)
(0.0205852 0 -0.000402623)
(0.0207466 0 -0.000356967)
(0.020889 0 -0.000312137)
(0.0210121 0 -0.000268511)
(0.0211166 0 -0.000225868)
(0.0212029 0 -0.000182942)
(0.0212703 0 -0.000139491)
(0.0213199 0 -9.68636e-05)
(0.0213524 0 -5.59552e-05)
(0.0213675 0 -1.64546e-05)
(0.0213654 0 2.2354e-05)
(0.0213464 0 6.16457e-05)
(0.0213109 0 0.000101392)
(0.0212593 0 0.000139378)
(0.021192 0 0.000174357)
(0.0211096 0 0.000208969)
(0.0210123 0 0.000244456)
(0.0209007 0 0.000278537)
(0.0207747 0 0.000311136)
(0.0206345 0 0.000342863)
(0.0204811 0 0.000373293)
(0.0203152 0 0.000402718)
(0.0201372 0 0.000431319)
(0.019947 0 0.000459222)
(0.019745 0 0.000485766)
(0.019532 0 0.000511884)
(0.019308 0 0.000537813)
(0.0190738 0 0.000562952)
(0.0188294 0 0.000586465)
(0.0185751 0 0.000608173)
(0.0183113 0 0.000629289)
(0.0180384 0 0.000650574)
(0.0177569 0 0.000671984)
(0.0174666 0 0.000691883)
(0.0171682 0 0.000709802)
(0.0168626 0 0.000726159)
(0.0165497 0 0.000743507)
(0.0162297 0 0.000760539)
(0.0159024 0 0.000777158)
(0.0155679 0 0.000792412)
(0.0152272 0 0.000808672)
(0.0148809 0 0.000824405)
(0.0145285 0 0.000838911)
(0.01417 0 0.000849761)
(0.0138061 0 0.000861131)
(0.0134375 0 0.000872499)
(0.0130635 0 0.000884782)
(0.012685 0 0.000895432)
(0.0123016 0 0.000907625)
(0.0119147 0 0.000915893)
(0.011524 0 0.000923623)
(0.0111296 0 0.00093078)
(0.0107313 0 0.000940453)
(0.0103316 0 0.000947449)
(0.00992884 0 0.000952329)
(0.00952383 0 0.000955851)
(0.00911526 0 0.000960406)
(0.00870632 0 0.000962568)
(0.00829622 0 0.000965634)
(0.00788602 0 0.000969054)
(0.00747552 0 0.000970404)
(0.0070645 0 0.000970106)
(0.0066522 0 0.000964631)
(0.00624371 0 0.000959328)
(0.00583509 0 0.000954426)
(0.00542997 0 0.000950336)
(0.00502793 0 0.000943408)
(0.00462927 0 0.000936843)
(0.00423397 0 0.000922749)
(0.00384251 0 0.000909232)
(0.00345607 0 0.000895321)
(0.00307567 0 0.000884349)
(0.00270352 0 0.000873056)
(0.00233681 0 0.000857833)
(0.00198081 0 0.000843134)
(0.00162823 0 0.000814973)
(0.00128614 0 0.000798062)
(0.000943389 0 0.000775079)
(0.000615582 0 0.000766285)
(0.000293363 0 0.000753096)
(-9.76739e-06 0 0.000739695)
(-0.000304532 0 0.000700144)
(-0.000599289 0 0.000665832)
(-0.000868339 0 0.00061893)
(-0.00116096 0 0.000633726)
(-0.00147625 0 0.000600931)
(-0.00169711 0 0.000620419)
(-0.00200363 0 0.000679093)
(-0.00217741 0 0.000548889)
(-0.00244856 0 0.000489099)
(-0.00249492 0 0.000473953)
(-0.00269044 0 0.000474762)
(-0.00284017 0 0.000380292)
(-0.00310601 0 0.000311166)
(-0.00330411 0 0.000401467)
(-0.00350287 0 0.000430982)
(-0.00365304 0 0.000470456)
(-0.00382069 0 0.000469028)
(-0.00391129 0 0.000370074)
(-0.00406558 0 0.000311993)
(-0.00417918 0 0.00024755)
(-0.00447391 0 0.000191306)
(-0.004615 0 0.000266212)
(-0.00475063 0 0.000517038)
(-0.00473356 0 0.000610852)
(-0.00451305 0 0.000258996)
(-0.004363 0 -1.92658e-05)
(-0.00358446 0 -0.000636972)
(-0.00314321 0 -0.00056425)
(-0.00261873 0 -0.00106775)
(-0.00267235 0 -0.00116202)
(-0.00259993 0 -0.00105343)
(-0.00260302 0 -0.000812811)
(-0.00244481 0 -0.000488715)
(-0.00245635 0 -0.000465607)
(-0.00223381 0 -0.000256516)
(-0.00226654 0 -0.000374915)
(-0.00206801 0 -0.000114269)
(-0.0021264 0 -0.000303179)
(-0.00191516 0 -0.000131408)
(-0.0018911 0 -0.000262101)
(-0.00189661 0 -4.52525e-05)
(-0.00160359 0 -0.000437408)
(-0.00141745 0 0.000209916)
(-0.00185121 0 -0.000586897)
(-0.00111646 0 -0.000503735)
(-0.00240266 0 0.000298322)
(-6.40242e-05 0 -0.000172808)
(-0.00373108 0 0.000544872)
(-0.00158513 0 -0.00102048)
(-0.00260496 0 0.00164505)
(-0.000980874 0 0.00125234)
(-0.000933916 0 -0.000992294)
(-0.000763091 0 -0.00124123)
(-0.00055347 0 -0.00116135)
(-0.000340923 0 -0.000846887)
(-0.000127675 0 -0.000699752)
(7.08944e-05 0 -0.000640247)
(0.000278438 0 -0.000604765)
(0.000488353 0 -0.000566837)
(0.000698849 0 -0.000535334)
(0.000914186 0 -0.000542724)
(0.00113639 0 -0.000555895)
(0.00136042 0 -0.000541536)
(0.00158371 0 -0.000544011)
(0.00180977 0 -0.000549266)
(0.00203984 0 -0.000540452)
(0.00227339 0 -0.000560362)
(0.00251112 0 -0.000570527)
(0.00275283 0 -0.000568156)
(0.00299807 0 -0.000560724)
(0.00324629 0 -0.000586322)
(0.00349864 0 -0.000604884)
(0.00375387 0 -0.000598667)
(0.00401027 0 -0.000589252)
(0.00426822 0 -0.000590358)
(0.0045284 0 -0.000602634)
(0.00479036 0 -0.000614613)
(0.0050543 0 -0.000619268)
(0.00532182 0 -0.000628057)
(0.00559207 0 -0.000627872)
(0.00586169 0 -0.000634085)
(0.00612987 0 -0.000623435)
(0.00640163 0 -0.00062057)
(0.00667643 0 -0.000638995)
(0.00695409 0 -0.000661228)
(0.00723455 0 -0.000677193)
(0.00751657 0 -0.00068424)
(0.0078004 0 -0.000685595)
(0.00808694 0 -0.000684742)
(0.00837496 0 -0.000684061)
(0.00866397 0 -0.000685521)
(0.00895461 0 -0.000688623)
(0.00924582 0 -0.000692448)
(0.00953655 0 -0.000684361)
(0.0098263 0 -0.000693828)
(0.0101172 0 -0.000703514)
(0.0104069 0 -0.00069363)
(0.0106961 0 -0.000679327)
(0.0109856 0 -0.000672238)
(0.0112754 0 -0.000670705)
(0.0115654 0 -0.000673025)
(0.0118551 0 -0.000677621)
(0.0121443 0 -0.000681741)
(0.0124338 0 -0.000684665)
(0.0127237 0 -0.00068597)
(0.0130142 0 -0.000685197)
(0.0133044 0 -0.00068281)
(0.0135939 0 -0.000680357)
(0.0138828 0 -0.000679826)
(0.0141714 0 -0.000681476)
(0.0144603 0 -0.000683548)
(0.0147491 0 -0.000682843)
(0.0150363 0 -0.000677865)
(0.0153215 0 -0.000672552)
(0.0156067 0 -0.000671271)
(0.0158934 0 -0.000674047)
(0.0161805 0 -0.000677626)
(0.0164659 0 -0.000673264)
(0.0167487 0 -0.00066903)
(0.0170339 0 -0.000664088)
(0.0173186 0 -0.000673528)
(0.0176097 0 -0.000665104)
(0.017884 0 -0.00065885)
(0.0181848 0 -0.000662853)
(0.0184412 0 -0.00069427)