/*--------------------------------*- C++ -*----------------------------------*\
| =========                 |                                                 |
| \\      /  F ield         | OpenFOAM: The Open Source CFD Toolbox           |
|  \\    /   O peration     | Version:  v2006                                 |
|   \\  /    A nd           | Website:  www.openfoam.com                      |
|    \\/     M anipulation  |                                                 |
\*---------------------------------------------------------------------------*/
FoamFile
{
    version     2.0;
    format      ascii;
    class       volScalarField;
    location    "8.8";
    object      omega;
}
// * * * * * * * * * * * * * * * * * * * * * * * * * * * * * * * * * * * * * //

dimensions      [0 0 -1 0 0 0 0];


internalField   nonuniform List<scalar> 
33000
(
0.801759
0.802883
0.804094
0.804639
0.804371
0.803856
0.803516
0.803352
0.803312
0.803361
0.80347
0.803596
0.80372
0.803843
0.80397
0.804125
0.80433
0.804631
0.805175
0.806306
0.808499
0.811912
0.816147
0.820854
0.826182
0.831824
0.837049
0.841179
0.844221
0.846249
0.847145
0.848151
0.853583
0.87014
0.898342
0.927013
0.947678
0.96015
0.96574
0.967397
0.968057
0.969148
0.970226
0.970468
0.96945
0.967662
0.966427
0.966039
0.965828
0.964574
0.961683
0.957466
0.953035
0.949497
0.947597
0.947871
0.950364
0.954664
0.959657
0.96388
0.965921
0.965045
0.961297
0.954974
0.946467
0.936263
0.924876
0.912721
0.901294
0.892116
0.88474
0.878838
0.874188
0.870589
0.868097
0.866762
0.866556
0.868179
0.872155
0.874809
0.879749
0.883681
0.889571
0.895995
0.903332
0.909075
0.91342
0.91615
0.917254
0.916651
0.914364
0.910432
0.904548
0.897887
0.890291
0.882419
0.875639
0.870644
0.867699
0.867266
0.869855
0.870462
0.871481
0.872371
0.873901
0.875098
0.875374
0.874929
0.874082
0.873017
0.871776
0.870302
0.86827
0.865283
0.861798
0.858721
0.857043
0.857826
0.860193
0.860542
0.861017
0.861323
0.862042
0.86292
0.863591
0.864075
0.864414
0.864632
0.864878
0.865159
0.865436
0.86567
0.865798
0.865812
0.865784
0.86578
0.865818
0.865857
0.865868
0.86585
0.865826
0.865807
0.865769
0.865674
0.865502
0.865269
0.865023
0.864795
0.86457
0.864287
0.863905
0.863454
0.863002
0.86256
0.862099
0.861596
0.861049
0.86047
0.859872
0.85926
0.858633
0.857989
0.85732
0.856616
0.855892
0.85518
0.854461
0.85369
0.852875
0.852073
0.851317
0.850579
0.849803
0.848987
0.848186
0.847446
0.846776
0.846171
0.845585
0.844971
0.844339
0.843709
0.843093
0.842534
0.84204
0.841596
0.841178
0.840728
0.840273
0.839869
0.839533
0.839245
0.838957
0.838664
0.838375
0.838118
0.837933
0.83784
0.837838
0.837855
0.837861
0.837867
0.83792
0.838046
0.838223
0.838424
0.83862
0.838813
0.839045
0.83934
0.839654
0.839917
0.840168
0.840462
0.840793
0.841158
0.841553
0.841932
0.842267
0.842579
0.842902
0.843244
0.8436
0.843967
0.844315
0.844622
0.844898
0.845159
0.845421
0.845687
0.845955
0.846202
0.8464
0.846564
0.84671
0.846846
0.846974
0.847086
0.847175
0.847242
0.847288
0.847305
0.847289
0.847241
0.847177
0.847104
0.847021
0.846929
0.846802
0.846633
0.846449
0.846263
0.846069
0.845865
0.845643
0.845393
0.845126
0.844849
0.844564
0.844269
0.843961
0.843637
0.843299
0.842952
0.842602
0.842249
0.841885
0.841502
0.8411
0.840691
0.84028
0.839867
0.839449
0.839025
0.838592
0.838143
0.837682
0.837216
0.836746
0.836272
0.835794
0.835313
0.834827
0.834327
0.833817
0.833301
0.832782
0.832259
0.831731
0.831197
0.830655
0.830101
0.829537
0.828961
0.828372
0.827773
0.827167
0.826559
0.825949
0.82534
0.824733
0.824128
0.823526
0.822923
0.822319
0.821714
0.821114
0.820522
0.819944
0.819384
0.818846
0.818332
0.817845
0.817383
0.816945
0.816533
0.816148
0.815789
0.815459
0.815156
0.814881
0.814634
0.814414
0.814221
0.814053
0.813908
0.813785
0.813684
0.813602
0.813536
0.813486
0.813448
0.813424
0.81341
0.813406
0.813409
0.813418
0.813432
0.813447
0.813464
0.81348
0.813496
0.813511
0.813526
0.81354
0.813553
0.813563
0.813572
0.813579
0.813584
0.813587
0.813587
0.813584
0.813577
0.813567
0.813554
0.813537
0.813517
0.813494
0.813467
0.813437
0.813403
0.813366
0.813326
0.813283
0.813238
0.813189
0.813138
0.813084
0.813028
0.812969
0.812909
0.812845
0.812779
0.81271
0.812639
0.812565
0.812489
0.81241
0.812329
0.812245
0.812158
0.812069
0.811977
0.811883
0.811788
0.811691
0.811593
0.811493
0.811392
0.81129
0.811188
0.811085
0.810981
0.810877
0.810773
0.81067
0.810567
0.810464
0.81036
0.810256
0.810151
0.810047
0.809944
0.809843
0.809743
0.809644
0.809545
0.809449
0.809356
0.809265
0.809175
0.809085
0.808996
0.808909
0.80882
0.808735
0.808645
0.808552
0.808467
0.808386
0.808294
0.808218
0.808095
0.80796
0.80789
0.807825
0.807696
0.80776
0.807838
0.808187
0.808289
0.808485
0.808554
0.808631
0.808643
0.808649
0.808633
0.808623
0.808598
0.808584
0.808585
0.808528
0.808475
0.808423
0.808213
0.808016
0.807736
0.807584
0.807446
0.807497
0.807573
0.807652
0.807709
0.807762
0.8078
0.807833
0.807814
0.807802
0.807799
0.807732
0.807795
0.807704
0.807499
0.807513
0.80741
0.807072
0.807253
0.807306
0.808446
0.808839
0.809547
0.810179
0.81098
0.811799
0.81264
0.813407
0.814086
0.814671
0.815178
0.815608
0.815965
0.816263
0.816512
0.816728
0.816921
0.81709
0.817232
0.817358
0.817475
0.817579
0.817666
0.817742
0.817816
0.81789
0.817956
0.818011
0.818055
0.818093
0.818125
0.81815
0.81817
0.81819
0.818204
0.818204
0.818189
0.818165
0.818138
0.818114
0.81809
0.818067
0.81804
0.818008
0.817975
0.817939
0.817899
0.817857
0.817819
0.817785
0.817752
0.817715
0.817673
0.817626
0.817574
0.81752
0.817466
0.817413
0.81736
0.817307
0.817255
0.817201
0.817146
0.817091
0.817038
0.816987
0.816935
0.816884
0.816829
0.81678
0.816728
0.816684
0.816634
0.81659
0.816549
0.816543
0.816334
0.816583
0.816066
0.815998
0.812115
0.200243
0.484956
0.686846
0.793929
0.809807
0.743645
0.673357
0.629701
0.619032
0.627435
0.653859
0.695875
0.745371
0.788311
0.824014
0.860674
0.906547
0.965802
1.02609
1.07352
1.12385
1.21125
1.35087
1.48567
1.55932
1.61244
1.6752
1.75765
1.89687
2.06949
2.11727
1.97603
1.75914
1.57813
1.46005
1.38051
1.28386
1.15976
1.02119
0.882206
0.799492
0.775991
0.767015
0.74683
0.69772
0.631286
0.59917
0.607129
0.619642
0.610121
0.577717
0.52401
0.473299
0.444132
0.433699
0.440147
0.458632
0.484056
0.506631
0.522258
0.532873
0.542097
0.553572
0.56492
0.56794
0.565245
0.568398
0.584625
0.614974
0.661158
0.723063
0.797689
0.879807
0.954953
1.01069
1.06014
1.10824
1.15886
1.20326
1.25971
1.31192
1.36383
1.3718
1.31698
1.27015
1.24027
1.202
1.12706
0.989193
0.853432
0.744268
0.664663
0.623445
0.624606
0.667335
0.740992
0.833687
0.944903
1.0478
1.14586
1.19844
1.1874
1.09895
0.946814
0.813723
0.656496
0.515745
0.408903
0.340002
0.285062
0.251468
0.241601
0.248228
0.268372
0.293996
0.315925
0.331452
0.349854
0.366676
0.363239
0.321178
0.276435
0.252185
0.221753
0.198258
0.185617
0.174024
0.16649
0.163013
0.160029
0.158497
0.158005
0.157028
0.156904
0.157498
0.158408
0.159261
0.159952
0.160703
0.161403
0.162321
0.163119
0.163653
0.164
0.164278
0.164787
0.165642
0.166677
0.167632
0.16827
0.16879
0.169596
0.170662
0.171856
0.172995
0.17407
0.175109
0.176136
0.177163
0.178209
0.179278
0.180326
0.181306
0.182206
0.183113
0.184042
0.184819
0.185332
0.185748
0.186282
0.186841
0.187095
0.186821
0.186173
0.185581
0.185266
0.185081
0.184699
0.183751
0.18211
0.18
0.177754
0.1757
0.17402
0.172557
0.170948
0.168839
0.166232
0.16363
0.161467
0.159713
0.157966
0.155791
0.153137
0.150274
0.147617
0.145423
0.143612
0.141901
0.139778
0.137119
0.134281
0.13167
0.129398
0.127274
0.125103
0.122703
0.120205
0.117978
0.116084
0.114033
0.111499
0.108821
0.106387
0.104372
0.102719
0.10113
0.099215
0.0969267
0.0945606
0.0924165
0.0906677
0.0892456
0.0879313
0.0864632
0.0847647
0.0829964
0.0813611
0.0800418
0.0790248
0.0781252
0.077131
0.0759571
0.0747508
0.0736953
0.0728656
0.0722309
0.0717446
0.0713481
0.0709872
0.0706331
0.0702217
0.0697806
0.069428
0.0692594
0.0693505
0.0696468
0.069869
0.0698546
0.0697525
0.0697802
0.0700374
0.0704482
0.0708429
0.0711173
0.0712821
0.0714527
0.0717313
0.0720913
0.0724444
0.072721
0.0728967
0.0730488
0.0733198
0.0737861
0.0743804
0.0748069
0.0749037
0.0748661
0.0749181
0.0751219
0.0754768
0.0759517
0.0764336
0.0767543
0.0768702
0.0769038
0.076973
0.077095
0.0772639
0.0775705
0.0780457
0.078441
0.0785331
0.078477
0.0785086
0.078648
0.0788463
0.0791231
0.0794331
0.0796326
0.0796735
0.0796589
0.0796841
0.0797506
0.0798978
0.0800915
0.0802066
0.0802066
0.080125
0.0800006
0.0799472
0.0799891
0.0799614
0.079796
0.0795167
0.0792538
0.0790283
0.0787603
0.0783969
0.0779725
0.077609
0.0773607
0.0771108
0.0767043
0.0761952
0.0757459
0.0753774
0.0750568
0.0747619
0.0744974
0.0742742
0.0741025
0.0739977
0.0739123
0.0738363
0.0738556
0.0739763
0.0741076
0.074191
0.0742681
0.0744269
0.0746903
0.0750114
0.0752284
0.0752424
0.075141
0.0750993
0.075091
0.0750602
0.0749706
0.0748114
0.0746042
0.0743909
0.0741754
0.0738853
0.0735213
0.0731168
0.0727218
0.0723595
0.0720044
0.0716061
0.0711531
0.0706933
0.0702622
0.069843
0.0694213
0.0690013
0.0685593
0.0681014
0.0676573
0.0672297
0.066814
0.0664268
0.0660714
0.0657039
0.0652878
0.0648207
0.0643688
0.0639866
0.0636355
0.0632142
0.0627197
0.0622295
0.0617918
0.061393
0.0610054
0.0606263
0.0602723
0.0598994
0.0594376
0.0589129
0.058458
0.0580621
0.0576807
0.0572959
0.0568925
0.0564528
0.0560044
0.0556069
0.0552329
0.0548196
0.0543531
0.0539062
0.0534921
0.0530905
0.0527092
0.0523757
0.0520149
0.0515884
0.0511328
0.0506846
0.0502976
0.0499454
0.0496541
0.0492909
0.0488784
0.0483436
0.0479918
0.0475984
0.0472541
0.0468465
0.0463684
0.045991
0.0455116
0.0452056
0.0449362
0.0444965
0.0442079
0.0441098
0.0432251
0.0434864
0.0443994
0.0449289
0.0459004
0.0488161
0.0496145
0.0536597
0.0590274
0.0657025
0.0603062
0.0499844
0.0486239
0.0452848
0.0446816
0.0433044
0.0425354
0.0418033
0.0416043
0.0418134
0.0450424
0.048024
0.0514207
0.0538811
0.0511366
0.0488092
0.0456069
0.039642
0.035542
0.0348755
0.0343055
0.0334177
0.0328546
0.0332959
0.0341225
0.0352979
0.0365867
0.0375366
0.0383528
0.0392003
0.0420139
0.0540342
0.070099
0.0918306
0.115671
0.140053
0.145158
0.130888
0.175595
0.171886
0.10803
0.0899229
0.0789282
0.073027
0.0668519
0.0612022
0.0564542
0.0521968
0.0489488
0.0472881
0.0464539
0.045928
0.0457967
0.0457972
0.046168
0.0469085
0.0475764
0.0479421
0.0483881
0.0489969
0.0495193
0.0497768
0.0500054
0.0504966
0.0511775
0.0516866
0.0520144
0.0521785
0.0523604
0.0525644
0.0527231
0.0529833
0.0533525
0.0536602
0.053717
0.0535187
0.0532263
0.0529981
0.0529375
0.0529784
0.0531261
0.0532428
0.0533295
0.0534525
0.0535476
0.0535908
0.0536636
0.0538444
0.0541289
0.0544587
0.054757
0.0549586
0.0550507
0.0550644
0.0550453
0.055033
0.0550487
0.0550969
0.0551648
0.0552339
0.0552939
0.0553458
0.0554058
0.0554803
0.0555911
0.0556836
0.0557995
0.0558271
0.0559142
0.0559568
0.0560217
0.0561123
0.0561839
0.0563838
0.0571638
0.0573966
0.0609136
0.0636758
0.0710261
0.0502584
0.119473
0.312845
0.466154
0.509373
0.430653
0.329735
0.252376
0.205481
0.185033
0.185293
0.20746
0.25588
0.312995
0.37286
0.437055
0.51555
0.633685
0.792649
0.949246
1.07208
1.16782
1.25498
1.33769
1.4381
1.60709
1.85798
2.10474
2.27243
2.37766
2.44308
2.35734
2.11974
1.87011
1.65223
1.46218
1.28158
1.10537
0.941408
0.778917
0.64234
0.560824
0.524081
0.506872
0.486462
0.452913
0.417231
0.396906
0.395186
0.39676
0.389001
0.370501
0.3426
0.314642
0.294807
0.285921
0.287417
0.295051
0.304781
0.31409
0.322464
0.329559
0.33626
0.346348
0.355675
0.358357
0.354469
0.346954
0.338388
0.334958
0.338995
0.357082
0.387196
0.423975
0.45867
0.488954
0.518606
0.554067
0.598678
0.654594
0.723158
0.806795
0.910604
1.03397
1.1705
1.29435
1.36685
1.33408
1.28426
1.21443
1.10132
0.975206
0.830582
0.703235
0.617963
0.573081
0.56303
0.587037
0.629385
0.671957
0.710495
0.741166
0.735362
0.711704
0.665493
0.60866
0.549869
0.483699
0.419151
0.358467
0.299845
0.239402
0.185275
0.141677
0.117723
0.112906
0.117887
0.1224
0.124616
0.127889
0.131096
0.14012
0.147433
0.14234
0.113528
0.0843949
0.0711007
0.0574476
0.0482194
0.0427808
0.0383561
0.0353124
0.0341263
0.0334728
0.0334179
0.033791
0.0342352
0.0344626
0.0345535
0.0347862
0.0350125
0.035372
0.035757
0.0360596
0.0363078
0.0365472
0.0368359
0.0372013
0.0376186
0.038079
0.0385396
0.0389772
0.0394252
0.0399045
0.0404474
0.0410554
0.0417106
0.0423539
0.0429309
0.0434338
0.0439202
0.0444444
0.0450097
0.0455821
0.0461111
0.0465789
0.0470081
0.0473901
0.0476905
0.0479516
0.0482515
0.0485487
0.0487064
0.0486341
0.0483811
0.0481488
0.0480233
0.0479105
0.0477011
0.047258
0.0465411
0.0456423
0.0446393
0.0436336
0.0427495
0.0419821
0.0412068
0.040255
0.0390551
0.0377729
0.0366349
0.0356902
0.0348141
0.0338528
0.0327268
0.0314726
0.0302621
0.0292326
0.028388
0.0276244
0.0267365
0.0256895
0.0246063
0.0236193
0.0227573
0.021947
0.0211262
0.020274
0.0194265
0.0186609
0.0179891
0.0172961
0.0165048
0.0156966
0.0149653
0.014339
0.0138012
0.0133004
0.0127621
0.012167
0.0115649
0.0110102
0.0105365
0.0101385
0.00978303
0.00942159
0.00903334
0.0086391
0.00827023
0.00795854
0.00770413
0.00747689
0.00724274
0.00699262
0.00674902
0.00653634
0.00636559
0.00623124
0.00612
0.00601995
0.00592304
0.00583224
0.00574858
0.00567584
0.00562197
0.00559517
0.00560134
0.00563025
0.00565342
0.00565851
0.00566304
0.00568803
0.00573862
0.0058031
0.00586479
0.00591875
0.00597015
0.00603091
0.00610699
0.00618443
0.00624963
0.00630419
0.00635441
0.00640902
0.00648221
0.00658138
0.00669337
0.00677767
0.00681718
0.00683975
0.00687637
0.00693663
0.00701658
0.00710612
0.0071932
0.00726461
0.00731616
0.00735553
0.00739204
0.00742957
0.00747426
0.0075428
0.00763567
0.00771594
0.00775369
0.00776985
0.00779997
0.00784666
0.00789717
0.00795309
0.00801219
0.00805827
0.00808847
0.00811526
0.00814422
0.00816957
0.00819858
0.00823398
0.00826959
0.00829954
0.00831209
0.00830246
0.00829295
0.00830154
0.00831365
0.00830807
0.00826949
0.00822109
0.00818498
0.00815586
0.00810957
0.00804167
0.00797921
0.00793566
0.00790006
0.00784508
0.00776265
0.00768252
0.00761841
0.00756713
0.00752443
0.0074846
0.00744519
0.00741038
0.00738669
0.00737049
0.00736077
0.00736576
0.00738201
0.00739637
0.00740461
0.00741576
0.00744102
0.00748055
0.00752396
0.00755091
0.00755322
0.00753463
0.00752001
0.00750733
0.00749007
0.00746688
0.00743528
0.00739509
0.00735147
0.00730223
0.0072354
0.00715912
0.00708145
0.00700742
0.00693797
0.00686821
0.0067919
0.00670822
0.00662396
0.0065449
0.00647012
0.00639828
0.00632724
0.00624991
0.00617003
0.00609532
0.00602537
0.00595776
0.00589314
0.00583226
0.00577074
0.00570601
0.00563792
0.00557218
0.00551447
0.00546032
0.00539705
0.0053243
0.00525102
0.00518684
0.00513087
0.0050766
0.00502082
0.00496565
0.00490944
0.00484897
0.00478463
0.00472596
0.00467379
0.00462364
0.00457134
0.00451817
0.00446325
0.0044088
0.00435831
0.00430931
0.00425816
0.00420576
0.00415587
0.00410842
0.00406078
0.00401745
0.00397716
0.00393515
0.00388823
0.0038387
0.00378609
0.00374103
0.00369793
0.00366257
0.00362056
0.00357774
0.0035183
0.0034682
0.00343448
0.00338914
0.00333067
0.0032804
0.00324893
0.0031976
0.00317912
0.00315293
0.00311934
0.00313402
0.00327326
0.00329473
0.00344414
0.00373551
0.00386031
0.00403963
0.00420673
0.00439881
0.00435682
0.00420366
0.00450702
0.00399762
0.00346828
0.00330176
0.00310738
0.00297299
0.0028982
0.00299397
0.00326151
0.00347594
0.00375347
0.00405828
0.00411808
0.00408306
0.00373383
0.00290878
0.00248126
0.00232899
0.00220449
0.00215852
0.00212846
0.00212194
0.00216288
0.00220247
0.00229795
0.00233052
0.00236224
0.00254649
0.00287655
0.00373071
0.00512871
0.00761877
0.0109308
0.0159861
0.0175936
0.016274
0.0210082
0.020493
0.0139676
0.0192896
0.0135467
0.00718646
0.00624497
0.00551048
0.00505752
0.00469182
0.0044106
0.00410386
0.00379081
0.00353268
0.00337249
0.00326939
0.00319898
0.00316768
0.00315748
0.00318685
0.00324197
0.00329189
0.00332479
0.00336552
0.00342114
0.00346961
0.00350093
0.00353479
0.0035879
0.00365412
0.00370951
0.00375212
0.00378277
0.00380874
0.00383404
0.0038611
0.00389849
0.00394204
0.00397702
0.00398587
0.00397248
0.00395027
0.00393294
0.00392984
0.00393557
0.00394915
0.00396129
0.00397304
0.00399017
0.00400748
0.00402144
0.00403771
0.00406279
0.00409648
0.00413305
0.00416587
0.00419018
0.00420484
0.00421192
0.00421504
0.0042178
0.00422297
0.00423158
0.00424277
0.00425447
0.00426514
0.00427494
0.00428623
0.00429975
0.00431696
0.00433112
0.00434617
0.00435274
0.0043648
0.00437289
0.00438163
0.0043924
0.0044038
0.00443245
0.00452023
0.00455672
0.00479574
0.0051033
0.00570252
0.00441229
0.0766175
0.20274
0.296065
0.302207
0.242956
0.180312
0.13371
0.108099
0.103547
0.118409
0.148013
0.19354
0.252984
0.331839
0.439459
0.567308
0.704314
0.837602
0.968957
1.06203
1.12567
1.17278
1.21888
1.29081
1.40495
1.56783
1.76939
1.84462
1.87389
1.88613
1.80326
1.65484
1.49655
1.34552
1.20153
1.03496
0.864435
0.70382
0.549667
0.432802
0.368521
0.339326
0.324838
0.309254
0.286101
0.262929
0.249532
0.24742
0.247978
0.243469
0.232681
0.215827
0.198436
0.184967
0.176694
0.173172
0.173163
0.175645
0.178859
0.181226
0.1838
0.189217
0.198217
0.207594
0.212245
0.210939
0.204744
0.19581
0.188623
0.187888
0.192533
0.204734
0.223154
0.246143
0.272919
0.303656
0.338633
0.38025
0.431331
0.492685
0.562901
0.639365
0.72081
0.807573
0.903945
1.00899
1.11627
1.20168
1.24938
1.21375
1.0967
0.970216
0.836935
0.712205
0.598939
0.509696
0.461802
0.446719
0.449845
0.459924
0.463443
0.454576
0.437021
0.411474
0.381833
0.354937
0.330217
0.309217
0.291991
0.267432
0.237531
0.207524
0.174092
0.142001
0.111646
0.0842212
0.0649506
0.0566972
0.0537547
0.0511173
0.0486018
0.0486953
0.0502696
0.0552925
0.058739
0.0562927
0.0428542
0.0301802
0.0239423
0.0186014
0.0150488
0.012825
0.0112329
0.0102345
0.0097988
0.00959252
0.00956044
0.00954408
0.00955694
0.00952065
0.00951427
0.00958567
0.00967192
0.00975469
0.00983307
0.00991027
0.0100049
0.0101298
0.010273
0.0104136
0.0105448
0.0106825
0.0108428
0.0110259
0.0112091
0.0113898
0.0115799
0.0117819
0.0119801
0.0121613
0.0123286
0.0124932
0.0126561
0.0128077
0.0129536
0.0131001
0.0132245
0.0133054
0.0133593
0.0134232
0.0134928
0.0135171
0.0134693
0.0133703
0.0132585
0.0131563
0.0130605
0.0129483
0.0127883
0.0125629
0.0122818
0.0119576
0.0116153
0.0113047
0.0110365
0.0107879
0.0105192
0.0101905
0.00982217
0.00946797
0.00916178
0.0088915
0.00863803
0.00837074
0.00806425
0.00774835
0.00746191
0.00721923
0.00701057
0.00679082
0.00653387
0.00626213
0.00601076
0.00579014
0.00558085
0.0053656
0.00514902
0.00493753
0.00474235
0.00456818
0.00439686
0.00421525
0.00403386
0.00386789
0.00371756
0.00357979
0.00345416
0.00333268
0.00321002
0.00308755
0.00296926
0.00286073
0.00276523
0.00268205
0.00260485
0.0025277
0.00245036
0.00237447
0.00230456
0.00224296
0.00218806
0.00213677
0.0020872
0.00204011
0.00199759
0.00196049
0.00192691
0.00189505
0.00186586
0.00184054
0.00181921
0.00180063
0.00178369
0.00176841
0.0017556
0.00174609
0.00174008
0.00173698
0.00173548
0.00173495
0.00173546
0.00173666
0.0017385
0.00174202
0.00174771
0.00175503
0.00176372
0.00177276
0.00178109
0.00178887
0.00179662
0.00180508
0.0018147
0.00182556
0.00183841
0.00185315
0.00186614
0.0018755
0.00188367
0.00189347
0.00190542
0.00191817
0.00193069
0.00194328
0.00195614
0.00196908
0.00198164
0.00199285
0.0020025
0.00201201
0.00202384
0.00203851
0.00205288
0.0020645
0.00207444
0.00208494
0.00209593
0.00210605
0.0021161
0.00212711
0.00213814
0.00214869
0.00215852
0.00216706
0.00217356
0.00217969
0.00218662
0.00219432
0.00220245
0.00220803
0.00220907
0.00220884
0.00221101
0.00221395
0.00221353
0.00220745
0.00219939
0.00219338
0.0021885
0.00218027
0.00216775
0.00215505
0.00214435
0.0021348
0.00212257
0.00210514
0.00208672
0.00207039
0.00205603
0.00204251
0.00202821
0.00201285
0.00199749
0.00198355
0.0019708
0.00195913
0.0019493
0.00194051
0.00193122
0.00192102
0.00191134
0.00190402
0.00189921
0.0018949
0.00188819
0.0018794
0.00186891
0.00185902
0.00184948
0.00183958
0.00182984
0.00182002
0.00180925
0.0017975
0.00178432
0.00176907
0.00175395
0.00173964
0.00172612
0.00171343
0.0017011
0.00168829
0.00167446
0.00166042
0.0016475
0.0016359
0.00162533
0.00161491
0.00160346
0.00159213
0.00158198
0.00157266
0.00156368
0.00155484
0.00154641
0.00153836
0.00153057
0.00152282
0.00151492
0.00150752
0.00150105
0.00149437
0.00148664
0.00147831
0.00147091
0.00146464
0.00145864
0.0014523
0.00144586
0.00143964
0.00143347
0.00142719
0.00142121
0.00141574
0.00141042
0.00140447
0.00139838
0.00139248
0.00138693
0.00138145
0.00137562
0.00136966
0.00136415
0.00135909
0.00135412
0.00134888
0.00134382
0.00133935
0.00133517
0.00133073
0.00132589
0.00132029
0.00131608
0.00131185
0.00130706
0.00130159
0.00129685
0.00129066
0.0012878
0.00128926
0.00128962
0.00128735
0.00128805
0.00128386
0.00129422
0.00131449
0.0013964
0.00144566
0.00154138
0.00166981
0.00183832
0.00177467
0.0016187
0.00156252
0.00149017
0.00142902
0.00138698
0.00134576
0.00131234
0.0013256
0.00132678
0.00133197
0.00137736
0.00150293
0.00160425
0.00175809
0.00191229
0.00206683
0.00228374
0.00240938
0.00227812
0.00194859
0.00168549
0.0015561
0.00141999
0.00134099
0.00127956
0.0012604
0.00128907
0.00132168
0.00138619
0.00139989
0.00158608
0.00176258
0.00196528
0.00240194
0.00334197
0.00501561
0.00710526
0.0106724
0.0109702
0.00915249
0.00864745
0.00797517
0.00633592
0.00623246
0.00469616
0.0030893
0.00270267
0.00228485
0.00204998
0.00194876
0.00187601
0.00181714
0.00177327
0.00173571
0.0016962
0.00165467
0.00161466
0.00157923
0.00154862
0.0015225
0.0015012
0.00148431
0.00147181
0.00146266
0.00145521
0.00144867
0.00144386
0.00144115
0.00143927
0.00143747
0.00143657
0.00143727
0.00143923
0.00144104
0.00144226
0.00144323
0.00144421
0.00144543
0.00144724
0.00144982
0.00145272
0.00145509
0.00145592
0.0014554
0.00145435
0.0014536
0.00145372
0.00145457
0.00145584
0.00145687
0.00145786
0.00145935
0.00146105
0.00146258
0.00146424
0.00146654
0.00146943
0.00147245
0.00147514
0.00147726
0.00147881
0.00147997
0.00148091
0.00148183
0.00148281
0.00148393
0.00148526
0.00148666
0.00148794
0.00148905
0.00149035
0.00149182
0.0014941
0.00149528
0.00149732
0.00149689
0.00149934
0.00149978
0.00150045
0.00150307
0.00150639
0.00151925
0.00156129
0.00158643
0.0017046
0.00186412
0.00219222
0.00182704
0.0504189
0.130938
0.187328
0.186844
0.150582
0.113259
0.0868293
0.0745386
0.0778129
0.0952997
0.121286
0.156804
0.206049
0.278637
0.380194
0.501751
0.613799
0.713032
0.810772
0.885868
0.930514
0.952266
0.972907
1.00828
1.06913
1.16903
1.2886
1.3023
1.29572
1.29549
1.25254
1.17281
1.08055
0.984999
0.878207
0.746888
0.612992
0.479776
0.358543
0.276139
0.234641
0.215167
0.203816
0.193364
0.18017
0.167445
0.159755
0.157317
0.156691
0.154252
0.148805
0.139967
0.130145
0.121257
0.114042
0.108891
0.106063
0.105145
0.105045
0.105118
0.106642
0.110394
0.116252
0.122898
0.127378
0.128118
0.125406
0.120208
0.114915
0.112456
0.113943
0.118298
0.126207
0.137976
0.153741
0.173641
0.197742
0.22678
0.262957
0.3072
0.358509
0.414037
0.470916
0.526151
0.577674
0.627462
0.677458
0.730229
0.790266
0.84689
0.887803
0.889144
0.849314
0.763931
0.654648
0.545573
0.45173
0.377826
0.32681
0.302245
0.292087
0.283634
0.274759
0.262021
0.2463
0.230944
0.216261
0.203853
0.195395
0.189556
0.183894
0.176207
0.16462
0.148576
0.131304
0.111547
0.0922378
0.0735615
0.0559882
0.0419545
0.0340779
0.029615
0.0268703
0.025232
0.0257406
0.0272573
0.0306089
0.0331884
0.0325192
0.0252799
0.0181245
0.0145075
0.0113735
0.00916431
0.00765465
0.00689107
0.00606141
0.00538438
0.00499014
0.00474998
0.00458272
0.00449347
0.00443608
0.00440213
0.00439506
0.00439865
0.00441745
0.00445761
0.0045098
0.00456069
0.00460718
0.00465719
0.00472023
0.00479538
0.00487088
0.00494133
0.0050119
0.00508881
0.00517016
0.00524747
0.00531755
0.00538342
0.00544475
0.00550028
0.00555559
0.00561359
0.00566494
0.00570208
0.00572714
0.00575061
0.00577609
0.00579122
0.00578706
0.00576832
0.00573917
0.00570263
0.00566556
0.0056287
0.00558693
0.00553321
0.00545964
0.00536346
0.00525565
0.00515523
0.00506572
0.00498964
0.00491568
0.00481968
0.00470655
0.00459047
0.00448591
0.00439472
0.00431177
0.00423113
0.00413984
0.00403664
0.00393158
0.00383919
0.00376239
0.00369003
0.00360953
0.00352034
0.00343466
0.00335882
0.00328694
0.00321079
0.00313019
0.00305065
0.002978
0.00291299
0.00284976
0.00278271
0.00271405
0.00264837
0.00258335
0.00251995
0.00246266
0.00240994
0.00235863
0.00230615
0.00225242
0.00219982
0.00215068
0.00210644
0.002066
0.00202671
0.00198806
0.0019497
0.00191086
0.00187318
0.0018387
0.00180768
0.00177893
0.00175116
0.00172474
0.00170038
0.00167711
0.00165391
0.00163261
0.00161493
0.0015997
0.00158533
0.00157105
0.00155677
0.0015438
0.0015336
0.00152645
0.00152149
0.00151746
0.00151342
0.00150895
0.00150471
0.00150198
0.00150118
0.00150184
0.00150318
0.00150466
0.00150569
0.0015072
0.0015103
0.00151396
0.00151764
0.00152144
0.00152464
0.00152769
0.00153207
0.00153778
0.00154373
0.00154955
0.00155509
0.00155993
0.00156448
0.00156983
0.00157613
0.0015827
0.00158918
0.00159587
0.00160265
0.00160877
0.00161424
0.00161987
0.00162627
0.00163334
0.00164073
0.00164799
0.00165427
0.00165947
0.00166493
0.001671
0.00167725
0.00168382
0.00169023
0.00169519
0.00169949
0.00170405
0.00170859
0.00171277
0.00171657
0.00172001
0.00172255
0.00172435
0.00172604
0.00172746
0.0017277
0.00172641
0.00172451
0.00172229
0.00171959
0.00171613
0.00171135
0.00170565
0.00169954
0.00169298
0.00168551
0.00167684
0.00166739
0.0016576
0.00164761
0.00163743
0.0016265
0.00161463
0.00160264
0.00159071
0.00157867
0.00156638
0.00155396
0.00154161
0.00152939
0.0015174
0.00150527
0.00149315
0.00148177
0.00147129
0.00146096
0.00145
0.00143931
0.00142934
0.00141995
0.00141111
0.00140251
0.0013942
0.00138604
0.001378
0.00136995
0.00136202
0.0013546
0.00134747
0.00134054
0.00133396
0.00132776
0.00132212
0.00131694
0.00131165
0.00130612
0.00130092
0.00129633
0.00129225
0.00128841
0.00128465
0.00128106
0.00127778
0.00127485
0.00127209
0.00126934
0.0012667
0.00126424
0.00126193
0.00125984
0.00125785
0.00125572
0.00125371
0.00125214
0.00125065
0.00124885
0.00124687
0.00124493
0.00124327
0.00124177
0.00124024
0.00123862
0.00123704
0.00123545
0.00123389
0.00123233
0.00123099
0.00122956
0.00122789
0.00122617
0.00122452
0.00122302
0.00122111
0.00121913
0.00121707
0.00121542
0.00121372
0.00121198
0.00120983
0.00120798
0.00120612
0.00120474
0.00120375
0.00120192
0.00119947
0.00119802
0.00119764
0.00119774
0.00120393
0.00120761
0.00122068
0.0012138
0.0012088
0.00122455
0.00124875
0.00133103
0.00138873
0.00148512
0.00161127
0.00178653
0.00170306
0.00152504
0.00145805
0.00138031
0.00131651
0.00126179
0.00123055
0.00121449
0.00122341
0.00123672
0.00125975
0.00131782
0.00146775
0.00162264
0.00183626
0.00201181
0.00227789
0.00242304
0.00237185
0.00212488
0.00179295
0.00156138
0.00147216
0.00136665
0.00130757
0.00126286
0.00124904
0.00127226
0.00130616
0.00137211
0.00144566
0.00169515
0.00201527
0.00254826
0.00354343
0.00507077
0.00627951
0.00878082
0.0118295
0.0117721
0.00951153
0.00856547
0.00756813
0.00603498
0.00550498
0.00413677
0.00296374
0.00244261
0.00206065
0.00185233
0.00172859
0.001665
0.00163079
0.00161596
0.00160863
0.00160002
0.00158842
0.00157333
0.00155557
0.0015357
0.00151466
0.00149358
0.00147341
0.00145488
0.00143844
0.0014242
0.00141177
0.00140074
0.00139078
0.00138187
0.0013743
0.00136819
0.00136315
0.00135877
0.0013549
0.00135161
0.00134891
0.00134678
0.00134504
0.00134371
0.0013426
0.00134152
0.00134062
0.00134008
0.00133986
0.00133972
0.00133949
0.00133903
0.00133843
0.00133792
0.00133767
0.00133768
0.00133786
0.00133802
0.0013381
0.00133826
0.0013385
0.00133873
0.00133901
0.00133941
0.00133994
0.00134053
0.00134105
0.00134146
0.00134183
0.00134225
0.00134272
0.00134317
0.00134351
0.00134376
0.00134402
0.00134435
0.0013447
0.00134495
0.00134529
0.00134564
0.00134639
0.00134606
0.00134688
0.00134614
0.00134799
0.00134748
0.00134712
0.00134903
0.0013517
0.00136302
0.00140124
0.001425
0.00153325
0.00167904
0.00198193
0.00167471
0.0332696
0.085
0.121023
0.121537
0.100374
0.0775935
0.0622693
0.0570934
0.0631381
0.0764651
0.0937408
0.116776
0.150115
0.201794
0.274512
0.363483
0.458363
0.539153
0.594321
0.634491
0.66117
0.677995
0.689188
0.705953
0.742319
0.80077
0.851231
0.851692
0.831825
0.815854
0.789634
0.756072
0.713105
0.653774
0.578269
0.490207
0.394669
0.300281
0.223258
0.175664
0.151427
0.138617
0.130475
0.124075
0.117484
0.111309
0.106848
0.104292
0.102944
0.101683
0.0995794
0.0957292
0.0904372
0.0843468
0.0784643
0.0737019
0.0703971
0.0685711
0.0677561
0.0675867
0.0683202
0.0701399
0.0732543
0.0771859
0.0803893
0.0819764
0.0816389
0.079719
0.077139
0.0753138
0.0750443
0.0765373
0.0800003
0.0859443
0.0946223
0.105788
0.119223
0.134793
0.153426
0.177079
0.206623
0.241059
0.278523
0.316824
0.3536
0.387045
0.415977
0.438673
0.455129
0.467731
0.479752
0.491982
0.50193
0.506426
0.497446
0.470049
0.424484
0.362233
0.303938
0.258158
0.223837
0.198994
0.181675
0.170605
0.160683
0.15245
0.144885
0.13819
0.133294
0.129995
0.128001
0.126432
0.125798
0.123961
0.12019
0.113299
0.103096
0.0916539
0.0784701
0.0656062
0.0530751
0.0413341
0.0318099
0.0259811
0.0227653
0.0209886
0.0202905
0.0215599
0.0239605
0.0279657
0.031063
0.0313798
0.025698
0.0195276
0.0153901
0.0124871
0.010185
0.00833844
0.00683756
0.00571174
0.00485978
0.00434954
0.00403795
0.00381089
0.00366375
0.00356751
0.00351067
0.00349832
0.00350602
0.00351434
0.00352498
0.0035461
0.00358104
0.00362473
0.00366599
0.00369969
0.00373149
0.00376848
0.00381386
0.00386113
0.00390272
0.00393628
0.0039627
0.00398644
0.00401404
0.00404681
0.00407769
0.00410054
0.00411342
0.00412034
0.00412971
0.00414435
0.00415659
0.00415914
0.00415021
0.00413289
0.00411572
0.00410574
0.00410373
0.00409811
0.00407584
0.00404005
0.00400007
0.00395822
0.0039179
0.00389145
0.00387277
0.00384126
0.00379648
0.00374213
0.00368684
0.00364173
0.0036026
0.00356605
0.00352904
0.00348108
0.00341977
0.00336177
0.0033122
0.00326716
0.003227
0.00318367
0.00313354
0.00308142
0.0030299
0.00297515
0.00291695
0.00286291
0.00281447