/*--------------------------------*- C++ -*----------------------------------*\
| =========                 |                                                 |
| \\      /  F ield         | OpenFOAM: The Open Source CFD Toolbox           |
|  \\    /   O peration     | Version:  v2006                                 |
|   \\  /    A nd           | Website:  www.openfoam.com                      |
|    \\/     M anipulation  |                                                 |
\*---------------------------------------------------------------------------*/
FoamFile
{
    version     2.0;
    format      ascii;
    class       surfaceScalarField;
    location    "8.8";
    object      phi;
}
// * * * * * * * * * * * * * * * * * * * * * * * * * * * * * * * * * * * * * //

dimensions      [0 3 -1 0 0 0 0];
oriented        oriented;


internalField   nonuniform List<scalar> 
65390
(
3.07505e-05
4.75346e-07
2.7916e-05
2.83416e-06
2.37486e-05
4.16693e-06
2.02908e-05
3.45757e-06
2.0432e-05
-1.41448e-07
2.46926e-05
-4.26085e-06
3.11767e-05
-6.48419e-06
3.8514e-05
-7.33742e-06
4.59172e-05
-7.40332e-06
5.26257e-05
-6.7086e-06
5.78077e-05
-5.18198e-06
6.18945e-05
-4.08691e-06
6.55607e-05
-3.66628e-06
6.94346e-05
-3.87395e-06
7.33437e-05
-3.90917e-06
7.65543e-05
-3.21069e-06
7.83473e-05
-1.79317e-06
7.86332e-05
-2.85927e-07
7.66096e-05
2.02345e-06
7.13475e-05
5.26196e-06
6.44359e-05
6.91143e-06
5.87762e-05
5.65962e-06
5.55104e-05
3.26565e-06
5.46518e-05
8.58423e-07
5.53678e-05
-7.16109e-07
5.67331e-05
-1.36548e-06
5.80912e-05
-1.35827e-06
5.88698e-05
-7.78693e-07
5.83561e-05
5.13499e-07
5.67291e-05
1.62694e-06
5.37548e-05
2.97419e-06
4.85432e-05
5.21147e-06
4.23071e-05
6.23592e-06
3.59739e-05
6.33313e-06
2.98206e-05
6.15318e-06
2.52624e-05
4.55822e-06
2.14833e-05
3.77897e-06
1.74649e-05
4.01842e-06
1.46589e-05
2.80593e-06
1.30717e-05
1.58723e-06
1.16013e-05
1.47043e-06
9.56941e-06
2.03186e-06
6.89697e-06
2.67247e-06
4.11878e-06
2.77824e-06
2.30337e-06
1.81548e-06
1.3118e-06
9.91632e-07
2.5607e-07
1.05582e-06
-1.24665e-06
1.50281e-06
-3.3335e-06
2.08694e-06
-5.59926e-06
2.26587e-06
-7.19581e-06
1.59665e-06
-8.01594e-06
8.20249e-07
-8.52715e-06
5.1132e-07
-8.88907e-06
3.62037e-07
-9.11607e-06
2.27117e-07
-9.38445e-06
2.68489e-07
-9.81044e-06
4.26099e-07
-1.0652e-05
8.41616e-07
-1.20758e-05
1.42391e-06
-1.40151e-05
1.9394e-06
-1.60512e-05
2.03619e-06
-1.79738e-05
1.92274e-06
-1.9681e-05
1.70719e-06
-2.11698e-05
1.4889e-06
-2.24088e-05
1.23909e-06
-2.32663e-05
8.57507e-07
-2.35366e-05
2.70361e-07
-2.31275e-05
-4.09104e-07
-2.22127e-05
-9.14756e-07
-2.10006e-05
-1.21209e-06
-1.95385e-05
-1.4621e-06
-1.78518e-05
-1.68668e-06
-1.59187e-05
-1.93303e-06
-1.36683e-05
-2.25037e-06
-1.12053e-05
-2.46297e-06
-8.85058e-06
-2.35473e-06
-7.14575e-06
-1.70481e-06
-6.72081e-06
-4.2491e-07
-6.33217e-06
-3.88616e-07
-5.58759e-06
-7.44553e-07
-6.56625e-06
9.7869e-07
-7.73701e-06
1.17079e-06
-8.99259e-06
1.2556e-06
-1.00907e-05
1.09815e-06
-1.13852e-05
1.2945e-06
-1.21171e-05
7.31908e-07
-1.26145e-05
4.97387e-07
-1.30726e-05
4.58151e-07
-1.34236e-05
3.51082e-07
-1.36212e-05
1.976e-07
-1.37294e-05
1.08219e-07
-1.37431e-05
1.37357e-08
-1.34256e-05
-3.17456e-07
-1.28347e-05
-5.90851e-07
-1.16514e-05
-1.18325e-06
-9.81749e-06
-1.83384e-06
-7.37219e-06
-2.44526e-06
-4.81394e-06
-2.55821e-06
-2.40797e-06
-2.40595e-06
-1.28361e-06
-1.12435e-06
-1.26544e-06
-1.81558e-08
-1.66315e-06
3.97704e-07
-2.39233e-06
7.29179e-07
-3.01067e-06
6.18337e-07
-3.83683e-06
8.26151e-07
-4.34255e-06
5.05703e-07
-4.57487e-06
2.32312e-07
-4.81883e-06
2.43944e-07
-5.15416e-06
3.35305e-07
-5.51705e-06
3.62876e-07
-5.87029e-06
3.53217e-07
-6.21321e-06
3.42895e-07
-6.406e-06
1.92763e-07
-6.39985e-06
-6.18544e-09
-6.10455e-06
-2.95328e-07
-5.60949e-06
-4.95083e-07
-4.90082e-06
-7.087e-07
-4.57189e-06
-3.28955e-07
-4.74809e-06
1.76172e-07
-5.06198e-06
3.13865e-07
-5.46484e-06
4.02842e-07
-5.82227e-06
3.57417e-07
-6.33779e-06
5.15498e-07
-6.77658e-06
4.38775e-07
-7.09838e-06
3.21784e-07
-7.42894e-06
3.30547e-07
-7.73449e-06
3.05542e-07
-8.04024e-06
3.0574e-07
-8.36965e-06
3.29407e-07
-8.6832e-06
3.13542e-07
-8.97812e-06
2.94916e-07
-9.26386e-06
2.85732e-07
-9.51839e-06
2.54528e-07
-9.76911e-06
2.50717e-07
-1.00207e-05
2.51618e-07
-1.02737e-05
2.52925e-07
-1.0519e-05
2.4536e-07
-1.07504e-05
2.31377e-07
-1.09731e-05
2.22738e-07
-1.11882e-05
2.15048e-07
-1.14024e-05
2.14145e-07
-1.16081e-05
2.05701e-07
-1.18016e-05
1.9353e-07
-1.19792e-05
1.77599e-07
-1.21405e-05
1.61293e-07
-1.22921e-05
1.51579e-07
-1.24387e-05
1.46522e-07
-1.25813e-05
1.42662e-07
-1.27151e-05
1.33742e-07
-1.28279e-05
1.12763e-07
-1.29233e-05
9.53866e-08
-1.30115e-05
8.82589e-08
-1.30942e-05
8.26205e-08
-1.31696e-05
7.54076e-08
-1.32326e-05
6.29767e-08
-1.32837e-05
5.11876e-08
-1.33229e-05
3.91249e-08
-1.33527e-05
2.98716e-08
-1.33745e-05
2.18234e-08
-1.33879e-05
1.34077e-08
-1.33914e-05
3.52627e-09
-1.33841e-05
-7.37122e-09
-1.33658e-05
-1.82415e-08
-1.3337e-05
-2.88136e-08
-1.33016e-05
-3.53592e-08
-1.32619e-05
-3.97103e-08
-1.32121e-05
-4.98154e-08
-1.3147e-05
-6.50593e-08
-1.30703e-05
-7.67424e-08
-1.29881e-05
-8.22005e-08
-1.29034e-05
-8.47009e-08
-1.28113e-05
-9.20729e-08
-1.27034e-05
-1.07869e-07
-1.25809e-05
-1.22505e-07
-1.24478e-05
-1.33153e-07
-1.23065e-05
-1.41284e-07
-1.21623e-05
-1.44206e-07
-1.20169e-05
-1.45387e-07
-1.18636e-05
-1.5327e-07
-1.16978e-05
-1.65773e-07
-1.15191e-05
-1.78679e-07
-1.13244e-05
-1.94792e-07
-1.11173e-05
-2.07061e-07
-1.09026e-05
-2.14726e-07
-1.06812e-05
-2.21327e-07
-1.04574e-05
-2.2387e-07
-1.02278e-05
-2.29589e-07
-9.98114e-06
-2.4664e-07
-9.71581e-06
-2.6533e-07
-9.43626e-06
-2.79541e-07
-9.14977e-06
-2.86483e-07
-8.85832e-06
-2.91433e-07
-8.55692e-06
-3.0139e-07
-8.24075e-06
-3.16166e-07
-7.90389e-06
-3.3684e-07
-7.54589e-06
-3.57989e-07
-7.17078e-06
-3.75102e-07
-6.78837e-06
-3.82393e-07
-6.41183e-06
-3.76513e-07
-6.03741e-06
-3.74403e-07
-5.65543e-06
-3.8195e-07
-5.25678e-06
-3.98636e-07
-4.84427e-06
-4.12486e-07
-4.43231e-06
-4.11929e-07
-4.03101e-06
-4.01281e-07
-3.64315e-06
-3.87833e-07
-3.26355e-06
-3.79576e-07
-2.88331e-06
-3.80208e-07
-2.50572e-06
-3.7756e-07
-2.14526e-06
-3.60429e-07
-1.81571e-06
-3.29529e-07
-1.50011e-06
-3.15573e-07
-1.18054e-06
-3.1955e-07
-8.65812e-07
-3.14717e-07
-5.6371e-07
-3.02096e-07
-2.76467e-07
-2.87245e-07
-1.25418e-08
-2.63933e-07
2.24054e-07
-2.36609e-07
4.47527e-07
-2.23489e-07
6.67355e-07
-2.19846e-07
8.85347e-07
-2.1801e-07
1.09451e-06
-2.09176e-07
1.29281e-06
-1.98317e-07
1.47501e-06
-1.82212e-07
1.63632e-06
-1.61309e-07
1.78538e-06
-1.49066e-07
1.92807e-06
-1.4269e-07
2.06765e-06
-1.39586e-07
2.20292e-06
-1.35261e-07
2.33072e-06
-1.27803e-07
2.44721e-06
-1.16482e-07
2.54612e-06
-9.891e-08
2.63548e-06
-8.93569e-08
2.72106e-06
-8.55668e-08
2.80407e-06
-8.30046e-08
2.8841e-06
-8.00153e-08
2.95816e-06
-7.40385e-08
3.02452e-06
-6.63477e-08
3.08421e-06
-5.96715e-08
3.13829e-06
-5.40594e-08
3.18573e-06
-4.74264e-08
3.22621e-06
-4.0472e-08
3.26265e-06
-3.64299e-08
3.29892e-06
-3.62546e-08
3.33651e-06
-3.75923e-08
3.37287e-06
-3.63573e-08
3.40712e-06
-3.42518e-08
3.43502e-06
-2.79019e-08
3.45495e-06
-1.99256e-08
3.47755e-06
-2.26006e-08
3.50577e-06
-2.82199e-08
3.53513e-06
-2.93566e-08
3.56427e-06
-2.91288e-08
3.59231e-06
-2.80237e-08
3.617e-06
-2.46765e-08
3.64246e-06
-2.54434e-08
3.67148e-06
-2.89906e-08
3.70385e-06
-3.23299e-08
3.73866e-06
-3.47736e-08
3.77412e-06
-3.54049e-08
3.81086e-06
-3.66965e-08
3.84929e-06
-3.83638e-08
3.89059e-06
-4.12436e-08
3.93617e-06
-4.55281e-08
3.98537e-06
-4.91376e-08
4.0358e-06
-5.03821e-08
4.08457e-06
-4.87232e-08
4.13359e-06
-4.89743e-08
4.18749e-06
-5.38695e-08
4.24688e-06
-5.93583e-08
4.30909e-06
-6.21798e-08
4.37323e-06
-6.41269e-08
4.43946e-06
-6.62183e-08
4.5066e-06
-6.71357e-08
4.57237e-06
-6.57722e-08
4.63932e-06
-6.69621e-08
4.70955e-06
-7.0244e-08
4.78294e-06
-7.34092e-08
4.85823e-06
-7.53098e-08
4.93486e-06
-7.66544e-08
5.01306e-06
-7.82242e-08
5.09212e-06
-7.90707e-08
5.16953e-06
-7.74322e-08
5.24583e-06
-7.63033e-08
5.3243e-06
-7.84816e-08
5.40475e-06
-8.04598e-08
5.48537e-06
-8.06246e-08
5.56566e-06
-8.02934e-08
5.64597e-06
-8.03059e-08
5.72537e-06
-7.93975e-08
5.80272e-06
-7.73528e-08
5.87909e-06
-7.63519e-08
5.95531e-06
-7.62051e-08
6.03107e-06
-7.57335e-08
6.10573e-06
-7.46265e-08
6.17909e-06
-7.33124e-08
6.25019e-06
-7.10565e-08
6.31855e-06
-6.83119e-08
6.38474e-06
-6.61355e-08
6.44893e-06
-6.41438e-08
6.51123e-06
-6.22409e-08
6.57147e-06
-6.0194e-08
6.62857e-06
-5.70522e-08
6.68203e-06
-5.33953e-08
6.73226e-06
-5.01741e-08
6.77983e-06
-4.75087e-08
6.82459e-06
-4.46879e-08
6.86573e-06
-4.1071e-08
6.90302e-06
-3.72184e-08
6.93661e-06
-3.35313e-08
6.9669e-06
-3.02253e-08
6.99365e-06
-2.66954e-08
7.01622e-06
-2.25127e-08
7.03418e-06
-1.79192e-08
7.04781e-06
-1.35749e-08
7.05761e-06
-9.75433e-09
7.06353e-06
-5.85986e-09
7.06525e-06
-1.66827e-09
7.0626e-06
2.70589e-09
7.05545e-06
7.19811e-09
7.04379e-06
1.17147e-08
7.02768e-06
1.61728e-08
7.00711e-06
2.06223e-08
6.98186e-06
2.53015e-08
6.9519e-06
3.00137e-08
6.91749e-06
3.44568e-08
6.8786e-06
3.89359e-08
6.83491e-06
4.37331e-08
6.78633e-06
4.86115e-08
6.73324e-06
5.31354e-08
6.676e-06
5.72688e-08
6.61465e-06
6.13763e-08
6.54896e-06
6.57082e-08
6.47846e-06
7.05146e-08
6.4032e-06
7.52719e-08
6.32397e-06
7.92317e-08
6.2415e-06
8.24753e-08
6.15557e-06
8.59189e-08
6.06615e-06
8.9387e-08
5.97336e-06
9.27544e-08
5.87733e-06
9.59736e-08
5.77828e-06
9.89687e-08
5.67649e-06
1.017e-07
5.57213e-06
1.04262e-07
5.46535e-06
1.06675e-07
5.35645e-06
1.08795e-07
5.24564e-06
1.10735e-07
5.1331e-06
1.12479e-07
5.01899e-06
1.14072e-07
4.90339e-06
1.15579e-07
4.78639e-06
1.16996e-07
4.66822e-06
1.18189e-07
4.54919e-06
1.19056e-07
4.42955e-06
1.19669e-07
4.30936e-06
1.20228e-07
4.18866e-06
1.20746e-07
4.06754e-06
1.21179e-07
3.94607e-06
1.21541e-07
3.82457e-06
1.21565e-07
3.70324e-06
1.21412e-07
3.58212e-06
1.21195e-07
3.4613e-06
1.20886e-07
3.3409e-06
1.20449e-07
3.2208e-06
1.20132e-07
3.10087e-06
1.19938e-07
2.98134e-06
1.19526e-07
2.86268e-06
1.1865e-07
2.74535e-06
1.17307e-07
2.62927e-06
1.16048e-07
2.51393e-06
1.15323e-07
2.39916e-06
1.14748e-07
2.28573e-06
1.13425e-07
2.17406e-06
1.11671e-07
2.06402e-06
1.10036e-07
1.95535e-06
1.08684e-07
1.84793e-06
1.07425e-07
1.74185e-06
1.06082e-07
1.63709e-06
1.04762e-07
1.53342e-06
1.0367e-07
1.43112e-06
1.02294e-07
1.33089e-06
1.0022e-07
1.23303e-06
9.78457e-08
1.1368e-06
9.6224e-08
1.04204e-06
9.47608e-08
9.48836e-07
9.3199e-08
8.57273e-07
9.15662e-08
7.6748e-07
8.98016e-08
6.79681e-07
8.78129e-08
5.93866e-07
8.5833e-08
5.0963e-07
8.42565e-08
4.26992e-07
8.26605e-08
3.46261e-07
8.07516e-08
2.67859e-07
7.84212e-08
1.91451e-07
7.64229e-08
1.1698e-07
7.44814e-08
4.44162e-08
7.25687e-08
-2.62632e-08
7.06783e-08
-9.55333e-08
6.92637e-08
-1.63099e-07
6.75546e-08
-2.28693e-07
6.55783e-08
-2.92286e-07
6.35749e-08
-3.53796e-07
6.14906e-08
-4.13625e-07
5.98079e-08
-4.71969e-07
5.83229e-08
-5.30104e-07
5.81137e-08
-5.87006e-07
5.68817e-08
-6.42807e-07
5.57826e-08
-6.95838e-07
5.3015e-08
-7.4875e-07
5.28967e-08
-8.00354e-07
5.15901e-08
-8.50998e-07
5.06332e-08
-8.99888e-07
4.88799e-08
-9.45991e-07
4.60953e-08
-9.92155e-07
4.61579e-08
-1.0351e-06
4.29384e-08
-1.0764e-06
4.12984e-08
-1.11569e-06
3.92912e-08
-1.14811e-06
3.24149e-08
-1.18127e-06
3.31601e-08
-1.2219e-06
4.06269e-08
-1.25398e-06
3.20796e-08
-1.28845e-06
3.44678e-08
-1.32051e-06
3.20663e-08
-1.30745e-06
-1.30593e-08
-1.30606e-06
-1.3959e-09
-1.35671e-06
5.06526e-08
-1.36391e-06
7.20683e-09
-1.45052e-06
8.66103e-08
-1.63319e-06
1.82675e-07
-1.92847e-06
2.95277e-07
-2.18888e-06
2.60415e-07
-2.32527e-06
1.36397e-07
-2.4512e-06
1.2593e-07
-2.53233e-06
8.11389e-08
-2.60461e-06
7.22772e-08
-2.66386e-06
5.92558e-08
-2.71946e-06
5.56074e-08
-2.76826e-06
4.88144e-08
-2.80871e-06
4.04604e-08
-2.83691e-06
2.82086e-08
-2.86755e-06
3.0663e-08
-2.86517e-06
-2.3675e-09
-2.88184e-06
1.66787e-08
-2.94449e-06
6.26593e-08
-2.94415e-06
-3.31264e-10
-2.96442e-06
2.02832e-08
-3.0113e-06
4.68775e-08
-3.0711e-06
5.98015e-08
-3.02437e-06
-4.67385e-08
-2.88356e-06
-1.40812e-07
-2.80291e-06
-8.06516e-08
-2.74321e-06
-5.97049e-08
-2.70775e-06
-3.54714e-08
-2.68794e-06
-1.9814e-08
-2.67633e-06
-1.16158e-08
-2.67391e-06
-2.42764e-09
-2.67239e-06
-1.52941e-09
-2.66113e-06
-1.12698e-08
-2.67079e-06
9.6636e-09
-2.66258e-06
-8.21606e-09
-2.66251e-06
-7.84495e-11
-2.69046e-06
2.79455e-08
-2.60588e-06
-8.45775e-08
-2.5267e-06
-7.91906e-08
-2.64535e-06
1.18655e-07
-2.61174e-06
-3.36068e-08
-2.83937e-06
2.27626e-07
-3.17792e-06
3.3855e-07
-4.23709e-06
1.05918e-06
-5.23182e-06
9.94733e-07
-5.50677e-06
2.74968e-07
-5.58725e-06
8.04915e-08
-5.50991e-06
-7.73202e-08
-5.42164e-06
-8.82538e-08
-5.36906e-06
-5.25631e-08
-5.37511e-06
6.05818e-09
-5.4148e-06
3.97074e-08
-5.46994e-06
5.51527e-08
-5.53039e-06
6.04633e-08
-5.60777e-06
7.73964e-08
-5.69981e-06
9.20498e-08
-5.79571e-06
9.59128e-08
-5.89426e-06
9.85674e-08
-5.98999e-06
9.57522e-08
-6.08625e-06
9.62697e-08
-6.19085e-06
1.04622e-07
-6.30161e-06
1.10774e-07
-6.40964e-06
1.08045e-07
-6.51653e-06
1.06897e-07
-6.62589e-06
1.09373e-07
-6.73749e-06
1.11608e-07
-6.84527e-06
1.07785e-07
-6.94784e-06
1.02569e-07
-7.05149e-06
1.03642e-07
-7.16149e-06
1.09991e-07
-7.27346e-06
1.11969e-07
-7.38462e-06
1.11149e-07
-7.49165e-06
1.07022e-07
-7.59598e-06
1.04323e-07
-7.69864e-06
1.02653e-07
-7.79754e-06
9.88932e-08
-7.89519e-06
9.76459e-08
-7.99508e-06
9.98924e-08
-8.09755e-06
1.02465e-07
-8.19819e-06
1.00635e-07
-8.29192e-06
9.37234e-08
-8.37724e-06
8.53099e-08
-8.45526e-06
7.80204e-08
-8.53e-06
7.47326e-08
-8.60231e-06
7.2309e-08
-8.6748e-06
7.24825e-08
-8.74471e-06
6.9902e-08
-8.81044e-06
6.57318e-08
-8.87443e-06
6.3977e-08
-8.93591e-06
6.14722e-08
-8.99246e-06
5.65357e-08
-9.04419e-06
5.17082e-08
-9.09365e-06
4.94368e-08
-9.14293e-06
4.92515e-08
-9.1929e-06
4.99407e-08
-9.24318e-06
5.02531e-08
-9.29218e-06
4.89699e-08
-9.33833e-06
4.6118e-08
-9.38082e-06
4.24548e-08
-9.41947e-06
3.86262e-08
-9.45479e-06
3.52912e-08
-9.4874e-06
3.25819e-08
-9.51788e-06
3.04526e-08
-9.54657e-06
2.86663e-08
-9.57352e-06
2.6933e-08
-9.5985e-06
2.49621e-08
-9.62109e-06
2.25831e-08
-9.64152e-06
2.0423e-08
-9.65997e-06
1.84551e-08
-9.67797e-06
1.80102e-08
-9.69481e-06
1.68511e-08
-9.71097e-06
1.61829e-08
-9.72422e-06
1.32642e-08
-9.73623e-06
1.20379e-08
-9.74757e-06
1.1355e-08
-9.75836e-06
1.08109e-08
-9.76805e-06
9.69925e-09
-9.77692e-06
8.88796e-09
-9.78508e-06
8.1756e-09
-9.79329e-06
8.21619e-09
-9.79223e-06
-1.05192e-09
-9.79011e-06
-2.10811e-09
-9.77024e-06
-1.98669e-08
-9.7516e-06
-1.86433e-08
-4.75043e-08
3.14252e-05
3.51707e-07
3.05336e-05
3.72665e-06
2.99032e-05
4.79812e-06
2.93663e-05
3.99506e-06
3.01779e-05
-9.52531e-07
3.34431e-05
-7.52561e-06
3.74171e-05
-1.04578e-05
4.16614e-05
-1.15815e-05
4.61367e-05
-1.18784e-05
5.03158e-05
-1.08875e-05
5.39625e-05
-8.82854e-06
5.75716e-05
-7.69592e-06
6.13744e-05
-7.46908e-06
6.52762e-05
-7.77572e-06
6.89869e-05
-7.6199e-06
7.20711e-05
-6.29489e-06
7.33509e-05
-3.07301e-06
7.20427e-05
1.02222e-06
6.87506e-05
5.31545e-06
6.47904e-05
9.22208e-06
6.10969e-05
1.06049e-05
5.7407e-05
9.34947e-06
5.51313e-05
5.54124e-06
5.47773e-05
1.21236e-06
5.5502e-05
-1.44091e-06
5.65099e-05
-2.37351e-06
5.71594e-05
-2.00779e-06
5.69756e-05
-5.94976e-07
5.52295e-05
2.25952e-06
5.1968e-05
4.88841e-06
4.80813e-05
6.86086e-06
4.42366e-05
9.0561e-06
3.97476e-05
1.07249e-05
3.46792e-05
1.14016e-05
3.00945e-05
1.07379e-05
2.58824e-05
8.77036e-06
2.15739e-05
8.08749e-06
1.78547e-05
7.73762e-06
1.51711e-05
5.48959e-06
1.31277e-05
3.63077e-06
1.11717e-05
3.42649e-06
9.15448e-06
4.0492e-06
7.02039e-06
4.80667e-06
4.93357e-06
4.86518e-06
3.07788e-06
3.6713e-06
1.56002e-06
2.50962e-06
2.49385e-07
2.3666e-06
-1.20341e-06
2.95576e-06
-2.87679e-06
3.76048e-06
-4.57734e-06
3.96657e-06
-6.28949e-06
3.30897e-06
-7.62597e-06
2.1569e-06
-8.4555e-06
1.34102e-06
-9.03111e-06
9.37819e-07
-9.64068e-06
8.36855e-07
-1.05321e-05
1.16004e-06
-1.17143e-05
1.60844e-06
-1.3079e-05
2.20648e-06
-1.43395e-05
2.68461e-06
-1.52542e-05
2.85417e-06
-1.60049e-05
2.78705e-06
-1.68783e-05
2.79629e-06
-1.81711e-05
3.00003e-06
-1.98115e-05
3.12944e-06
-2.14755e-05
2.90314e-06
-2.28592e-05
2.24126e-06
-2.38571e-05
1.26836e-06
-2.43285e-05
6.23489e-08
-2.43611e-05
-8.82105e-07
-2.42947e-05
-1.27848e-06
-2.43733e-05
-1.38344e-06
-2.47354e-05
-1.32453e-06
-2.52403e-05
-1.42805e-06
-2.55514e-05
-1.93921e-06
-2.51024e-05
-2.91198e-06
-2.35584e-05
-3.89866e-06
-2.09012e-05
-4.36191e-06
-1.71577e-05
-4.16835e-06
-1.39996e-05
-3.54669e-06
-1.21459e-05
-2.59808e-06
-1.05016e-05
-6.65591e-07
-9.21142e-06
-1.19284e-07
-8.16044e-06
2.04668e-07
-8.93154e-06
1.8693e-06
-9.72653e-06
2.08953e-06
-1.07667e-05
1.77214e-06
-1.18344e-05
1.56512e-06
-1.29725e-05
1.5963e-06
-1.36106e-05
9.89203e-07
-1.40141e-05
6.0123e-07
-1.4231e-05
3.25173e-07
-1.45124e-05
2.95251e-07
-1.46338e-05
-1.96043e-07
-1.47532e-05
-4.7134e-07
-1.47769e-05
-1.15948e-06
-1.47792e-05
-1.83154e-06
-1.48363e-05
-2.38808e-06
-1.44442e-05
-2.95031e-06
-1.34029e-05
-3.44723e-06
-1.12493e-05
-3.27789e-06
-8.48324e-06
-2.78424e-06
-5.75276e-06
-2.33279e-06
-4.17101e-06
-8.52591e-07
-3.63304e-06
8.03507e-08
-3.35949e-06
5.5257e-07
-3.58607e-06
7.32242e-07
-4.01118e-06
6.57387e-07
-4.63695e-06
8.69663e-07
-5.39221e-06
1.09052e-06
-5.87843e-06
8.49045e-07
-6.06014e-06
5.34865e-07
-6.28929e-06
5.71987e-07
-6.55036e-06
4.53777e-07
-6.8404e-06
2.83806e-07
-7.21998e-06
8.419e-08
-7.52539e-06
-1.89715e-07
-7.79644e-06
-4.37703e-07
-7.69793e-06
-4.27503e-07
-7.2066e-06
-3.152e-07
-6.47576e-06
-4.17011e-07
-6.0592e-06
-1.37549e-08
-6.13576e-06
4.33945e-07
-6.29541e-06
6.75122e-07
-6.58198e-06
7.25325e-07
-6.92405e-06
6.63829e-07
-7.41391e-06
8.20389e-07
-7.82001e-06
7.11622e-07
-8.1014e-06
5.87124e-07
-8.39007e-06
6.18058e-07
-8.66878e-06
5.92243e-07
-8.95635e-06
5.82481e-07
-9.2564e-06
5.85778e-07
-9.53119e-06
5.29307e-07
-9.78256e-06
5.0208e-07
-1.00317e-05
5.00773e-07
-1.02776e-05
4.98777e-07
-1.05205e-05
4.88215e-07
-1.07551e-05
4.66031e-07
-1.09855e-05
4.53079e-07
-1.12048e-05
4.34354e-07
-1.14151e-05
4.24352e-07
-1.16168e-05
4.07448e-07
-1.18066e-05
3.83222e-07
-1.19838e-05
3.54792e-07
-1.21492e-05
3.26718e-07
-1.23071e-05
3.0938e-07
-1.24587e-05
2.9818e-07
-1.25992e-05
2.83138e-07
-1.27244e-05
2.58836e-07
-1.28343e-05
2.227e-07
-1.29337e-05
1.94738e-07
-1.30272e-05
1.81782e-07
-1.31137e-05
1.69181e-07
-1.31873e-05
1.48964e-07
-1.32444e-05
1.20125e-07
-1.32905e-05
9.73132e-08
-1.33299e-05
7.85439e-08
-1.33635e-05
6.34548e-08
-1.33884e-05
4.6782e-08
-1.34035e-05
2.85218e-08
-1.34068e-05
6.81141e-09
-1.33972e-05
-1.69436e-08
-1.33771e-05
-3.82853e-08
-1.33483e-05
-5.7621e-08
-1.33136e-05
-7.00526e-08
-1.32728e-05
-8.0534e-08
-1.3222e-05
-1.00595e-07
-1.3158e-05
-1.29063e-07
-1.30822e-05
-1.52574e-07
-1.30004e-05
-1.6405e-07
-1.29125e-05
-1.72569e-07
-1.28153e-05
-1.89233e-07
-1.2708e-05
-2.15237e-07
-1.25882e-05
-2.42315e-07
-1.24571e-05
-2.64252e-07
-1.23166e-05
-2.81726e-07
-1.21686e-05
-2.92242e-07
-1.20163e-05
-2.97625e-07
-1.18579e-05
-3.1168e-07
-1.16908e-05
-3.32859e-07
-1.15122e-05
-3.57252e-07
-1.13183e-05
-3.88759e-07
-1.11112e-05
-4.1413e-07
-1.08944e-05
-4.31581e-07
-1.06693e-05
-4.46349e-07
-1.04398e-05
-4.53353e-07
-1.02057e-05
-4.6369e-07
-9.96054e-06
-4.91831e-07
-9.70004e-06
-5.25819e-07
-9.42278e-06
-5.56789e-07
-9.13024e-06
-5.78996e-07
-8.82637e-06
-5.95283e-07
-8.5145e-06
-6.1324e-07
-8.19571e-06
-6.34936e-07
-7.86528e-06
-6.6724e-07
-7.51757e-06
-7.05667e-07
-7.1536e-06
-7.39034e-07
-6.78103e-06
-7.54933e-07
-6.40344e-06
-7.54059e-07
-6.0214e-06
-7.56409e-07
-5.63333e-06
-7.69974e-07
-5.23714e-06
-7.94791e-07
-4.83779e-06
-8.11791e-07
-4.44018e-06
-8.09503e-07
-4.04897e-06
-7.92446e-07
-3.66042e-06
-7.76345e-07
-3.27398e-06
-7.65967e-07
-2.89391e-06
-7.60245e-07
-2.52518e-06
-7.46251e-07
-2.17267e-06
-7.12908e-07
-1.83551e-06
-6.66666e-07
-1.50912e-06
-6.41945e-07
-1.18931e-06
-6.39346e-07
-8.78371e-07
-6.25657e-07
-5.80879e-07
-5.99591e-07
-2.98137e-07
-5.69997e-07
-3.17688e-08
-5.30315e-07
2.16172e-07
-4.84566e-07
4.4983e-07
-4.57164e-07
6.72362e-07
-4.42394e-07
8.87848e-07
-4.3351e-07
1.09325e-06
-4.1459e-07
1.28736e-06
-3.92431e-07
1.47025e-06
-3.65112e-07
1.63996e-06
-3.31017e-07
1.79652e-06
-3.05631e-07
1.94161e-06
-2.87781e-07
2.07898e-06
-2.76959e-07
2.2103e-06
-2.66583e-07
2.33407e-06
-2.51567e-07
2.44843e-06
-2.3084e-07
2.55081e-06
-2.01287e-07
2.64428e-06
-1.82828e-07
2.73256e-06
-1.73831e-07
2.8169e-06
-1.67331e-07
2.89601e-06
-1.59117e-07
2.96918e-06
-1.47185e-07
3.0351e-06
-1.32256e-07
3.0926e-06
-1.17161e-07
3.14197e-06
-1.03418e-07
3.18648e-06
-9.19282e-08
3.22883e-06
-8.28134e-08
3.27069e-06
-7.8288e-08
3.31015e-06
-7.57136e-08
3.34588e-06
-7.33298e-08
3.37821e-06
-6.86994e-08
3.40743e-06
-6.34785e-08
3.43329e-06
-5.37633e-08
3.45808e-06
-4.47166e-08
3.48336e-06
-4.78857e-08
3.51016e-06
-5.50125e-08
3.53696e-06
-5.61413e-08
3.56222e-06
-5.43676e-08
3.58746e-06
-5.3227e-08
3.61373e-06
-5.09017e-08
3.64242e-06
-5.40776e-08
3.67346e-06
-5.99678e-08
3.70589e-06
-6.46917e-08
3.73823e-06
-6.70294e-08
3.77008e-06
-6.71568e-08
3.80523e-06
-7.17582e-08
3.84527e-06
-7.83034e-08
3.88838e-06
-8.42597e-08
3.93367e-06
-9.07227e-08
3.98114e-06
-9.65211e-08
4.02994e-06
-9.91069e-08
4.0791e-06
-9.78122e-08
4.13042e-06
-1.00234e-07
4.18538e-06
-1.08779e-07
4.24419e-06
-1.18126e-07
4.3055e-06
-1.23469e-07
4.36847e-06
-1.27083e-07
4.43279e-06
-1.3053e-07
4.49917e-06
-1.33524e-07
4.56765e-06
-1.34271e-07
4.63761e-06
-1.36945e-07
4.70864e-06
-1.41301e-07
4.781e-06
-1.45799e-07
4.85513e-06
-1.49465e-07
4.93119e-06
-1.52745e-07
5.00904e-06
-1.56099e-07
5.08771e-06
-1.57756e-07
5.16581e-06
-1.55547e-07
5.24403e-06
-1.54536e-07
5.32336e-06
-1.57827e-07
5.4038e-06
-1.60908e-07
5.48421e-06
-1.61033e-07
5.56392e-06
-1.59992e-07
5.64355e-06
-1.59927e-07
5.72305e-06
-1.58879e-07
5.80187e-06
-1.56148e-07
5.87996e-06
-1.54407e-07
5.95701e-06
-1.5322e-07
6.03246e-06
-1.51142e-07
6.10635e-06
-1.48461e-07
6.17914e-06
-1.46045e-07
6.25084e-06
-1.42695e-07
6.32094e-06
-1.38348e-07
6.3883e-06
-1.33429e-07
6.45237e-06
-1.28143e-07
6.51399e-06
-1.23783e-07
6.57389e-06
-1.20015e-07
6.63166e-06
-1.14737e-07
6.68622e-06
-1.07867e-07
6.73673e-06
-1.00602e-07
6.78387e-06
-9.4564e-08
6.82862e-06
-8.93506e-08
6.87051e-06
-8.28821e-08
6.90837e-06
-7.50075e-08
6.94191e-06
-6.69985e-08
6.97196e-06
-6.0206e-08
6.99859e-06
-5.32603e-08
7.02146e-06
-4.531e-08
7.03993e-06
-3.63268e-08
7.05351e-06
-2.70959e-08
7.06298e-06
-1.91579e-08
7.06874e-06
-1.15467e-08
7.07044e-06
-3.30779e-09
7.06781e-06
5.39935e-09
7.06055e-06
1.45197e-08
7.04858e-06
2.37497e-08
7.03211e-06
3.27049e-08
7.01127e-06
4.15245e-08
6.98597e-06
5.06691e-08
6.9561e-06
5.99496e-08
6.92159e-06
6.90241e-08
6.88233e-06
7.82568e-08
6.83826e-06
8.78573e-08
6.78958e-06
9.73414e-08
6.73652e-06
1.06244e-07
6.67913e-06
1.14697e-07
6.61736e-06
1.23172e-07
6.55117e-06
1.31912e-07
6.48058e-06
1.41101e-07
6.40574e-06
1.50101e-07
6.32656e-06
1.58379e-07
6.24376e-06
1.65218e-07
6.15752e-06
1.7209e-07
6.06798e-06
1.78839e-07
5.97525e-06
1.85385e-07
5.87928e-06
1.91836e-07
5.78013e-06
1.97995e-07
5.67803e-06
2.03683e-07
5.57316e-06
2.0902e-07
5.46591e-06
2.13813e-07
5.35685e-06
2.17767e-07
5.24606e-06
2.21449e-07
5.13354e-06
2.24947e-07
5.01935e-06
2.28238e-07
4.90359e-06
2.31328e-07
4.78647e-06
2.34137e-07
4.66821e-06
2.36474e-07
4.5491e-06
2.38227e-07
4.42933e-06
2.39507e-07
4.30899e-06
2.4066e-07
4.18811e-06
2.4173e-07
4.06667e-06
2.42744e-07
3.94472e-06
2.43614e-07
3.82286e-06
2.43544e-07
3.7013e-06
2.43082e-07
3.57998e-06
2.42611e-07
3.45889e-06
2.42047e-07
3.33813e-06
2.41247e-07
3.2178e-06
2.40483e-07
3.09802e-06
2.39713e-07
2.979e-06
2.3852e-07
2.86082e-06
2.36798e-07
2.74355e-06
2.34542e-07
2.62712e-06
2.32449e-07
2.51131e-06
2.31114e-07
2.39631e-06
2.29735e-07
2.28281e-06
2.2693e-07
2.17097e-06
2.23512e-07
2.0608e-06
2.2022e-07
1.95195e-06
2.17537e-07
1.84413e-06
2.15246e-07
1.73755e-06
2.12669e-07
1.63251e-06
2.0979e-07
1.52924e-06
2.06935e-07
1.42789e-06
2.03623e-07
1.32809e-06
2.00011e-07
1.22984e-06
1.96082e-07
1.13315e-06
1.92901e-07
1.03803e-06
1.89882e-07
9.44546e-07
1.86695e-07
8.5303e-07
1.831e-07
7.63313e-07
1.79544e-07
6.75436e-07
1.75721e-07
5.89286e-07
1.72019e-07
5.05036e-07
1.68543e-07
4.22749e-07
1.64982e-07
3.42471e-07
1.61059e-07
2.6397e-07
1.56946e-07
1.87255e-07
1.53152e-07
1.12346e-07
1.49397e-07
3.95699e-08
1.45341e-07
-3.11615e-08
1.41398e-07
-9.98421e-08
1.37925e-07
-1.66987e-07
1.34674e-07
-2.32634e-07
1.31196e-07
-2.96843e-07
1.27751e-07
-3.58583e-07
1.23195e-07
-4.18776e-07
1.19966e-07
-4.77134e-07
1.16647e-07
-5.34625e-07
1.1557e-07
-5.89825e-07
1.1205e-07
-6.44427e-07
1.10355e-07
-6.96372e-07
1.04932e-07
-7.48898e-07
1.05399e-07
-8.02158e-07
1.04829e-07
-8.53732e-07
1.02189e-07
-9.05034e-07
1.00167e-07
-9.51301e-07
9.23503e-08
-9.96168e-07
9.10152e-08
-1.03251e-06
7.92699e-08
-1.07217e-06
8.09548e-08
-1.12017e-06
8.72902e-08
-1.16526e-06
7.74983e-08
-1.209e-06
7.68931e-08
-1.2411e-06
7.27322e-08
-1.22776e-06
1.87321e-08
-1.22858e-06
3.52928e-08
-1.29025e-06
9.37353e-08
-1.35088e-06
4.75722e-08
-1.4832e-06
1.30924e-07
-1.67688e-06
2.44336e-07
-1.98352e-06
3.13848e-07
-2.2328e-06
3.359e-07
-2.34599e-06
2.95873e-07
-2.40288e-06
3.52168e-07
-2.42293e-06
2.80472e-07
-2.48834e-06
2.01813e-07
-2.53797e-06
1.75576e-07
-2.603e-06
1.46174e-07
-2.65103e-06
1.20316e-07
-2.69688e-06
1.05123e-07
-2.73416e-06
9.29081e-08
-2.7784e-06
9.30725e-08
-2.79721e-06
5.92862e-08
-2.83385e-06
6.48698e-08
-2.91216e-06
1.08994e-07
-2.94217e-06
2.7663e-08
-2.97308e-06
4.76068e-08
-2.99329e-06
8.28853e-08
-3.03104e-06
3.74284e-08
-2.96704e-06
-4.3707e-08
-2.82093e-06
-9.92374e-08
-2.72431e-06
-3.68228e-08
-2.68719e-06
-8.38686e-08
-2.71101e-06
-1.17003e-07
-2.69746e-06
-9.42105e-08
-2.7029e-06
-5.42771e-08
-2.67883e-06
-5.95554e-08
-2.6653e-06
-3.33584e-08
-2.65453e-06
-2.23976e-08
-2.66295e-06
5.98362e-09
-2.66332e-06
-1.16378e-09
-2.66772e-06
-6.87484e-09
-2.69495e-06
3.68883e-08
-2.61379e-06
-8.9383e-08
-2.53657e-06
-7.73057e-08
-2.6229e-06
1.14279e-07
-2.70577e-06
-1.7108e-09
-3.03743e-06
2.52465e-07
-3.3385e-06
4.19724e-07
-4.29047e-06
9.18365e-07
-5.00591e-06
9.43066e-07
-5.21876e-06
5.51409e-07
-5.13906e-06
9.79483e-07
-4.73874e-06
5.9443e-07
-4.68036e-06
2.16613e-07
-4.73387e-06
1.34017e-07
-4.85833e-06
4.71659e-08
-4.96651e-06
1.99514e-08
-5.04988e-06
3.0828e-08
-5.12688e-06
8.3079e-08
-5.21135e-06
1.24199e-07
-5.30093e-06
1.44753e-07
-5.39609e-06
1.55636e-07
-5.49285e-06
1.74172e-07
-5.58855e-06
1.87774e-07
-5.68441e-06
1.91788e-07
-5.78162e-06
1.95798e-07
-5.87967e-06
1.93822e-07
-5.98374e-06
2.00361e-07
-6.09159e-06
2.1249e-07
-6.19955e-06
2.18758e-07
-6.30703e-06
2.15539e-07
-6.41396e-06
2.13835e-07
-6.5224e-06
2.17825e-07
-6.63012e-06
2.19333e-07
-6.73634e-06
2.14003e-07
-6.84294e-06
2.09159e-07
-6.94998e-06
2.10673e-07
-7.05652e-06
2.16525e-07
-7.16226e-06
2.17703e-07
-7.26733e-06
2.16214e-07
-7.37234e-06
2.12028e-07
-7.47511e-06
2.07095e-07
-7.5746e-06
2.02143e-07
-7.67262e-06
1.96913e-07
-7.77052e-06
1.95548e-07
-7.86824e-06
1.97618e-07
-7.96536e-06
1.99583e-07
-8.05905e-06
1.94321e-07
-8.14922e-06
1.83892e-07
-8.23527e-06
1.71361e-07
-8.31764e-06
1.60393e-07
-8.39738e-06
1.54467e-07
-8.47428e-06
1.49205e-07
-8.54761e-06
1.45803e-07
-8.61698e-06
1.39263e-07
-8.68282e-06
1.31555e-07
-8.74603e-06
1.27166e-07
-8.80716e-06
1.22581e-07
-8.86608e-06
1.15433e-07
-8.92266e-06
1.08258e-07
-8.97687e-06
1.03609e-07
-9.02886e-06
1.0121e-07
-9.07829e-06
9.93326e-08
-9.12487e-06
9.67899e-08
-9.16886e-06
9.29243e-08
-9.21058e-06
8.78047e-08
-9.25011e-06
8.19501e-08
-9.28738e-06
7.58642e-08
-9.32206e-06
6.99353e-08
-9.35412e-06
6.46218e-08
-9.38391e-06
6.02286e-08
-9.41186e-06
5.66023e-08
-9.43796e-06
5.30405e-08
-9.46201e-06
4.90167e-08
-9.48385e-06
4.44427e-08
-9.50395e-06
4.05485e-08
-9.52275e-06
3.72931e-08
-9.54072e-06
3.60157e-08
-9.55712e-06
3.33021e-08
-9.57151e-06
3.06302e-08
-9.58453e-06
2.63282e-08
-9.59623e-06
2.3796e-08
-9.60768e-06
2.28492e-08
-9.61807e-06
2.12487e-08
-9.62682e-06
1.84917e-08
-9.63464e-06
1.67522e-08
-9.6425e-06
1.60687e-08
-9.64832e-06
1.40731e-08
-9.65637e-06
7.03277e-09
-9.66094e-06
2.48009e-09
-9.67198e-06
-8.80774e-09
-9.67967e-06
-1.09455e-08
-2.30723e-08
3.1547e-05
2.55037e-07
3.111e-05
4.16335e-06
3.09373e-05
4.97063e-06
3.13323e-05
3.5999e-06
3.36246e-05
-3.2449e-06
3.61827e-05
-1.00838e-05
3.88221e-05
-1.30973e-05
4.12689e-05
-1.40282e-05
4.35358e-05
-1.41454e-05
4.56443e-05
-1.2996e-05
4.66842e-05
-9.86853e-06
4.73959e-05
-8.40765e-06
4.85533e-05
-8.62658e-06
5.01456e-05
-9.3681e-06
5.15735e-05
-9.04787e-06
5.19984e-05
-6.71989e-06
5.09442e-05
-2.01897e-06
4.90568e-05
2.90948e-06
4.7228e-05
7.14414e-06
4.6919e-05
9.53098e-06
4.76156e-05
9.90811e-06
4.83217e-05
8.64322e-06
4.84798e-05
5.38296e-06
4.75762e-05
2.11579e-06
4.6019e-05
1.1609e-07
4.43367e-05
-6.91347e-07
4.24252e-05
-9.64148e-08
3.99581e-05
1.87193e-06
3.72334e-05
4.98405e-06
3.43334e-05
7.78829e-06
3.12094e-05
9.98468e-06
2.84795e-05
1.17859e-05
2.61221e-05
1.30821e-05
2.43036e-05
1.322e-05
2.27831e-05
1.22582e-05
2.00187e-05
1.15347e-05
1.69587e-05
1.11474e-05
1.47353e-05
9.96096e-06
1.30683e-05
7.15653e-06
1.14149e-05
5.28405e-06
9.76859e-06
5.07274e-06
8.17074e-06
5.64697e-06
6.62681e-06
6.35053e-06
5.08758e-06
6.40434e-06
3.49442e-06
5.2644e-06
1.98397e-06
4.02e-06
5.97883e-07
3.75262e-06
-8.61539e-07
4.41511e-06
-2.41978e-06
5.31866e-06
-4.0497e-06
5.59644e-06
-5.82512e-06
5.08433e-06
-7.46172e-06
3.79345e-06
-8.83562e-06
2.71487e-06
-1.00587e-05
2.16087e-06
-1.13353e-05
2.1134e-06
-1.27226e-05
2.54729e-06
-1.41025e-05
2.98836e-06
-1.52034e-05
3.30744e-06
-1.58115e-05
3.29272e-06
-1.59651e-05
3.00778e-06
-1.6083e-05
2.90494e-06
-1.63901e-05
3.10352e-06
-1.72162e-05
3.82617e-06
-1.86644e-05
4.57773e-06
-2.03522e-05
4.59108e-06
-2.20563e-05
3.94543e-06
-2.36297e-05
2.84188e-06
-2.47953e-05
1.22807e-06
-2.54647e-05
-2.12524e-07
-2.59197e-05
-8.23351e-07
-2.64169e-05
-8.8611e-07
-2.70065e-05
-7.34687e-07
-2.77355e-05
-6.98971e-07
-2.85566e-05
-1.11796e-06
-2.92216e-05
-2.24677e-06
-2.95926e-05
-3.52756e-06