/*--------------------------------*- C++ -*----------------------------------*\
| =========                 |                                                 |
| \\      /  F ield         | OpenFOAM: The Open Source CFD Toolbox           |
|  \\    /   O peration     | Version:  v2006                                 |
|   \\  /    A nd           | Website:  www.openfoam.com                      |
|    \\/     M anipulation  |                                                 |
\*---------------------------------------------------------------------------*/
FoamFile
{
    version     2.0;
    format      ascii;
    class       volVectorField;
    location    "8.8";
    object      U;
}
// * * * * * * * * * * * * * * * * * * * * * * * * * * * * * * * * * * * * * //

dimensions      [0 1 -1 0 0 0 0];


internalField   nonuniform List<vector> 
33000
(
(0.0822056 0 0.00213711)
(0.0765828 0 0.0080279)
(0.0651633 0 0.0129031)
(0.0529897 0 0.00876039)
(0.0485216 0 -0.00470163)
(0.0541032 0 -0.0135346)
(0.070467 0 -0.0196648)
(0.0867388 0 -0.0210577)
(0.104802 0 -0.019983)
(0.123023 0 -0.0179297)
(0.138928 0 -0.0123647)
(0.149974 0 -0.00860538)
(0.159314 0 -0.00666117)
(0.16752 0 -0.00665581)
(0.177355 0 -0.00674295)
(0.18767 0 -0.00525294)
(0.195257 0 -0.00186472)
(0.197684 0 0.00111026)
(0.196847 0 0.006059)
(0.188897 0 0.0150844)
(0.167923 0 0.0193955)
(0.151748 0 0.0130717)
(0.140934 0 0.0053029)
(0.136604 0 0.00031083)
(0.136803 0 -0.00121172)
(0.139165 0 -0.00199002)
(0.143518 0 -0.00182744)
(0.146583 0 0.000342264)
(0.147331 0 0.00323229)
(0.145016 0 0.00461859)
(0.139779 0 0.00931847)
(0.129758 0 0.0188395)
(0.114093 0 0.0202473)
(0.0982706 0 0.0166755)
(0.0811845 0 0.0140374)
(0.0671583 0 0.00998051)
(0.0587265 0 0.00733344)
(0.0484312 0 0.0083918)
(0.0387841 0 0.0058863)
(0.0342181 0 0.00280427)
(0.0312571 0 0.0022692)
(0.0268537 0 0.00424355)
(0.0210102 0 0.00611211)
(0.0135864 0 0.00646038)
(0.00705446 0 0.00380507)
(0.00433142 0 0.00135442)
(0.00220236 0 0.00191234)
(-0.000788816 0 0.00323013)
(-0.00544511 0 0.00499256)
(-0.0111564 0 0.00573122)
(-0.0166457 0 0.00333321)
(-0.0194166 0 0.00118265)
(-0.020888 0 0.00105734)
(-0.0219116 0 0.000956977)
(-0.0224831 0 0.000466714)
(-0.0231037 0 9.87051e-05)
(-0.0237503 0 0.000123799)
(-0.0252902 0 0.00100509)
(-0.0279869 0 0.00259311)
(-0.0323576 0 0.00456505)
(-0.0377115 0 0.00520217)
(-0.0426713 0 0.00462976)
(-0.0472956 0 0.00356139)
(-0.0512436 0 0.00295451)
(-0.0545664 0 0.0023097)
(-0.0574445 0 0.00134148)
(-0.0590086 0 -9.79425e-05)
(-0.0587574 0 -0.00177829)
(-0.0568884 0 -0.00290961)
(-0.0541646 0 -0.00358435)
(-0.0506853 0 -0.00457879)
(-0.0466276 0 -0.00601417)
(-0.0421214 0 -0.00755368)
(-0.0372845 0 -0.00896116)
(-0.0318633 0 -0.00938614)
(-0.0254744 0 -0.00746787)
(-0.0189024 0 -0.00222225)
(-0.012789 0 0.005527)
(-0.0209601 0 0.00576168)
(-0.0112762 0 0.00189413)
(-0.0162833 0 0.00345848)
(-0.0166579 0 0.00159841)
(-0.022007 0 0.00281387)
(-0.0229354 0 0.000865848)
(-0.0275136 0 0.00267613)
(-0.0294736 0 0.000591844)
(-0.0310516 0 0.00114595)
(-0.032078 0 0.000155292)
(-0.0332359 0 0.00102044)
(-0.0339054 0 0.000303078)
(-0.034195 0 -1.96544e-05)
(-0.0344496 0 -3.3976e-05)
(-0.0342787 0 -0.00084721)
(-0.0328316 0 -0.00153124)
(-0.0313539 0 -0.00369598)
(-0.0268841 0 -0.00586145)
(-0.0222042 0 -0.00870675)
(-0.0146656 0 -0.00854865)
(-0.00939568 0 -0.00679993)
(-0.00269725 0 0.000923995)
(-0.0036672 0 0.00522263)
(-0.00269446 0 0.00619196)
(-0.0055988 0 0.00279065)
(-0.00637421 0 -0.00102017)
(-0.00867537 0 -0.000763703)
(-0.0105165 0 -0.000428517)
(-0.0111846 0 0.00115788)
(-0.011693 0 0.00145374)
(-0.0124045 0 0.00194021)
(-0.0133636 0 0.00124386)
(-0.0142259 0 0.000598095)
(-0.0151203 0 0.000366152)
(-0.0159621 0 0.000158913)
(-0.0160349 0 -0.000185632)
(-0.016002 0 -0.00122077)
(-0.0144727 0 -0.0018316)
(-0.0136209 0 -0.00285327)
(-0.0109023 0 -0.00059007)
(-0.0118977 0 0.0016616)
(-0.0118874 0 0.00266694)
(-0.0133986 0 0.00199588)
(-0.0139354 0 0.000382018)
(-0.0151802 0 0.000321302)
(-0.0165132 0 0.000323261)
(-0.0173557 0 0.000809229)
(-0.0181472 0 0.000914932)
(-0.0189888 0 0.000858541)
(-0.0196883 0 0.000574074)
(-0.0205133 0 0.00057776)
(-0.0213368 0 0.000526251)
(-0.0220758 0 0.000631354)
(-0.022819 0 0.000609913)
(-0.0234935 0 0.000555669)
(-0.024103 0 0.000477245)
(-0.0247401 0 0.000473367)
(-0.0253657 0 0.000437192)
(-0.0260019 0 0.000441732)
(-0.026592 0 0.000427322)
(-0.0271607 0 0.000421063)
(-0.0277037 0 0.000412052)
(-0.028239 0 0.000412748)
(-0.0287712 0 0.000400348)
(-0.0292695 0 0.000376125)
(-0.0297371 0 0.00034531)
(-0.030158 0 0.000311661)
(-0.0305444 0 0.00029344)
(-0.030916 0 0.000281629)
(-0.0312771 0 0.000279672)
(-0.0316298 0 0.000268673)
(-0.0319432 0 0.000223177)
(-0.0321952 0 0.000184207)
(-0.0324212 0 0.00016931)
(-0.0326355 0 0.000158611)
(-0.0328356 0 0.000149488)
(-0.0330105 0 0.000129359)
(-0.0331522 0 0.000105639)
(-0.033265 0 7.71367e-05)
(-0.0333491 0 5.60723e-05)
(-0.0334138 0 4.04108e-05)
(-0.0334584 0 2.48773e-05)
(-0.0334805 0 7.66801e-06)
(-0.0334758 0 -1.17057e-05)
(-0.0334439 0 -3.38055e-05)
(-0.0333841 0 -5.6123e-05)
(-0.0333004 0 -6.97737e-05)
(-0.0332075 0 -7.77762e-05)
(-0.0331011 0 -9.75969e-05)
(-0.032958 0 -0.000128118)
(-0.0327764 0 -0.000151264)
(-0.0325747 0 -0.00016261)
(-0.0323657 0 -0.000164873)
(-0.032151 0 -0.000176978)
(-0.0319039 0 -0.000212282)
(-0.0316126 0 -0.000243015)
(-0.0312915 0 -0.00026392)
(-0.0309467 0 -0.000278676)
(-0.030586 0 -0.000279786)
(-0.0302256 0 -0.000279448)
(-0.0298583 0 -0.00029692)
(-0.0294589 0 -0.000326701)
(-0.0290299 0 -0.000353803)
(-0.0285645 0 -0.00038476)
(-0.0280571 0 -0.000406809)
(-0.0275292 0 -0.00041883)
(-0.0269834 0 -0.000430541)
(-0.0264232 0 -0.00043572)
(-0.0258638 0 -0.000450364)
(-0.0252742 0 -0.000488624)
(-0.0246312 0 -0.000526232)
(-0.0239473 0 -0.000551198)
(-0.0232344 0 -0.000556189)
(-0.0225146 0 -0.000560268)
(-0.0217771 0 -0.00058333)
(-0.0210075 0 -0.0006214)
(-0.0201959 0 -0.000669615)
(-0.0193234 0 -0.000711569)
(-0.0184061 0 -0.000745681)
(-0.0174477 0 -0.000761003)
(-0.0164953 0 -0.000740338)
(-0.015564 0 -0.000726728)
(-0.0146237 0 -0.000741045)
(-0.0136531 0 -0.000781298)
(-0.012631 0 -0.000820893)
(-0.0115906 0 -0.000822149)
(-0.0105719 0 -0.000798525)
(-0.00958356 0 -0.000762192)
(-0.00863303 0 -0.000738779)
(-0.00768453 0 -0.000746309)
(-0.00673257 0 -0.000749211)
(-0.00579622 0 -0.000714571)
(-0.00493114 0 -0.000641316)
(-0.00414793 0 -0.000611838)
(-0.0033523 0 -0.000629144)
(-0.00255071 0 -0.000623065)
(-0.00177851 0 -0.000599153)
(-0.00104062 0 -0.000569421)
(-0.000341373 0 -0.000515725)
(0.000277734 0 -0.000454602)
(0.000843355 0 -0.000431216)
(0.00139397 0 -0.000431954)
(0.00194372 0 -0.000431853)
(0.00248282 0 -0.000414592)
(0.00298989 0 -0.000393534)
(0.00347436 0 -0.000357659)
(0.00390004 0 -0.000310064)
(0.00428173 0 -0.000286624)
(0.00464511 0 -0.000279661)
(0.00499534 0 -0.000276636)
(0.00534324 0 -0.000268739)
(0.00567093 0 -0.000254856)
(0.00598314 0 -0.000231019)
(0.00625186 0 -0.000191173)
(0.00647902 0 -0.000171391)
(0.00669814 0 -0.000166261)
(0.00690733 0 -0.000163069)
(0.007113 0 -0.000158283)
(0.00730744 0 -0.000145614)
(0.00748311 0 -0.000129187)
(0.00763937 0 -0.000117199)
(0.00778152 0 -0.000110005)
(0.00790985 0 -9.6726e-05)
(0.00801843 0 -7.95193e-05)
(0.00811261 0 -6.70866e-05)
(0.00820052 0 -6.84165e-05)
(0.00829429 0 -7.54286e-05)
(0.00838812 0 -7.38806e-05)
(0.00847609 0 -7.04498e-05)
(0.00855963 0 -5.61928e-05)
(0.00861461 0 -3.47877e-05)
(0.00866058 0 -4.2963e-05)
(0.00872723 0 -5.72229e-05)
(0.00880173 0 -5.95114e-05)
(0.0088737 0 -5.93598e-05)
(0.00894786 0 -5.64692e-05)
(0.00901323 0 -4.72e-05)
(0.00907185 0 -4.73288e-05)
(0.00914056 0 -5.56188e-05)
(0.00921687 0 -6.37956e-05)
(0.00930255 0 -7.00668e-05)
(0.00939061 0 -7.25849e-05)
(0.00948008 0 -7.31478e-05)
(0.00957421 0 -7.36005e-05)
(0.00967229 0 -7.91755e-05)
(0.00978083 0 -8.93667e-05)
(0.00990011 0 -9.77642e-05)
(0.0100269 0 -0.000100661)
(0.010152 0 -9.59291e-05)
(0.0102709 0 -9.41367e-05)
(0.0103972 0 -0.000104861)
(0.0105406 0 -0.000117077)
(0.0106938 0 -0.000122983)
(0.0108518 0 -0.000126926)
(0.0110143 0 -0.000131158)
(0.0111833 0 -0.000132122)
(0.0113494 0 -0.000126839)
(0.0115127 0 -0.000129499)
(0.011684 0 -0.000138118)
(0.011864 0 -0.000145216)
(0.0120508 0 -0.000148396)
(0.0122406 0 -0.000150703)
(0.0124338 0 -0.00015393)
(0.0126317 0 -0.000155526)
(0.012829 0 -0.000151483)
(0.0130186 0 -0.000148469)
(0.0132108 0 -0.000153746)
(0.0134109 0 -0.000158335)
(0.013613 0 -0.000158598)
(0.0138139 0 -0.000157784)
(0.0140145 0 -0.000157859)
(0.0142155 0 -0.000155686)
(0.0144113 0 -0.000150743)
(0.0146025 0 -0.000148758)
(0.0147931 0 -0.000149267)
(0.0149837 0 -0.00014893)
(0.0151717 0 -0.000146906)
(0.0153571 0 -0.000144205)
(0.0155384 0 -0.000138662)
(0.0157125 0 -0.000132513)
(0.0158803 0 -0.000129222)
(0.0160434 0 -0.00012632)
(0.0162013 0 -0.000122642)
(0.0163549 0 -0.000118061)
(0.0165024 0 -0.00011114)
(0.0166404 0 -0.000103744)
(0.0167697 0 -9.78663e-05)
(0.0168916 0 -9.32648e-05)
(0.0170076 0 -8.73554e-05)
(0.0171153 0 -7.96847e-05)
(0.0172133 0 -7.23521e-05)
(0.0173017 0 -6.54404e-05)
(0.0173813 0 -5.90281e-05)
(0.017453 0 -5.19352e-05)
(0.0175151 0 -4.33012e-05)
(0.0175658 0 -3.42262e-05)
(0.0176049 0 -2.59421e-05)
(0.017634 0 -1.86211e-05)
(0.0176539 0 -1.08898e-05)
(0.0176635 0 -2.46674e-06)
(0.0176625 0 6.18861e-06)
(0.0176503 0 1.49419e-05)
(0.0176268 0 2.37714e-05)
(0.017592 0 3.25496e-05)
(0.0175462 0 4.14344e-05)
(0.0174891 0 5.09254e-05)
(0.01742 0 6.02765e-05)
(0.0173393 0 6.87727e-05)
(0.0172479 0 7.73298e-05)
(0.0171448 0 8.68943e-05)
(0.0170295 0 9.69004e-05)
(0.016902 0 0.000105902)
(0.016764 0 0.000113702)
(0.0166158 0 0.00012147)
(0.0164573 0 0.000129951)
(0.0162873 0 0.000139905)
(0.0161048 0 0.000149329)
(0.015911 0 0.000156259)
(0.0157088 0 0.000162512)
(0.0154985 0 0.000169517)
(0.0152791 0 0.00017644)
(0.0150515 0 0.00018311)
(0.0148152 0 0.000189338)
(0.0145713 0 0.000195069)
(0.01432 0 0.000200257)
(0.0140623 0 0.000205223)
(0.0137982 0 0.000209992)
(0.0135285 0 0.000214284)
(0.0132537 0 0.00021822)
(0.0129744 0 0.000221674)
(0.012691 0 0.000224754)
(0.0124038 0 0.00022774)
(0.012113 0 0.000230551)
(0.0118189 0 0.000232933)
(0.0115222 0 0.000234632)
(0.0112237 0 0.000235793)
(0.010924 0 0.00023683)
(0.0106228 0 0.000237793)
(0.0103205 0 0.000238568)
(0.0100171 0 0.000239171)
(0.00971318 0 0.000239173)
(0.00940967 0 0.000238951)
(0.00910652 0 0.0002386)
(0.00880405 0 0.000237936)
(0.00850242 0 0.000237009)
(0.00820205 0 0.000236362)
(0.00790191 0 0.000236215)
(0.00760244 0 0.000235861)
(0.00730427 0 0.000234333)
(0.00700914 0 0.000231406)
(0.0067176 0 0.000228255)
(0.00642878 0 0.000226484)
(0.00614084 0 0.000225651)
(0.00585502 0 0.000223469)
(0.00557364 0 0.00022)
(0.00529669 0 0.000216706)
(0.00502344 0 0.000214028)
(0.00475334 0 0.000211433)
(0.00448631 0 0.000208702)
(0.004223 0 0.000206203)
(0.00396245 0 0.00020465)
(0.00370468 0 0.0002026)
(0.00345092 0 0.000198102)
(0.00320359 0 0.000192415)
(0.00296158 0 0.000189443)
(0.00272247 0 0.000186252)
(0.00248772 0 0.000183604)
(0.00225649 0 0.000179838)
(0.00202991 0 0.00017688)
(0.00180752 0 0.000171723)
(0.00159093 0 0.00016843)
(0.0013784 0 0.000164188)
(0.0011698 0 0.00016253)
(0.000965155 0 0.000157111)
(0.000766205 0 0.000153491)
(0.000573088 0 0.000147265)
(0.000384201 0 0.000145156)
(0.000200718 0 0.00013912)
(2.13435e-05 0 0.000137612)
(-0.000152636 0 0.000132653)
(-0.000325113 0 0.000131187)
(-0.000490279 0 0.000123583)
(-0.000653341 0 0.000121369)
(-0.000807882 0 0.000115026)
(-0.000961352 0 0.000112931)
(-0.00110647 0 0.000108767)
(-0.00125373 0 0.000107943)
(-0.00139643 0 0.000107066)
(-0.00153895 0 9.97502e-05)
(-0.00167472 0 0.000101799)
(-0.00180478 0 9.51645e-05)
(-0.00193876 0 0.0001102)
(-0.00206308 0 9.65411e-05)
(-0.00219195 0 0.000113243)
(-0.00230728 0 8.48981e-05)
(-0.00242292 0 9.98839e-05)
(-0.00253757 0 7.28959e-05)
(-0.00263814 0 9.95768e-05)
(-0.00274365 0 8.83878e-05)
(-0.00283498 0 0.000105001)
(-0.00290518 0 6.02193e-05)
(-0.00300163 0 5.53938e-05)
(-0.00310769 0 -1.30868e-05)
(-0.00316183 0 5.90435e-05)
(-0.00328125 0 0.000137948)
(-0.00332025 0 0.000191139)
(-0.00321666 0 9.88145e-05)
(-0.00331504 0 -6.06081e-05)
(-0.003468 0 -0.000479509)
(-0.00334957 0 -0.000282911)
(-0.0039094 0 0.000335475)
(-0.00424813 0 0.000762224)
(-0.00539414 0 0.00085364)
(-0.00555775 0 0.00035837)
(-0.00606306 0 0.000366852)
(-0.00619669 0 0.000177382)
(-0.00646184 0 0.000158666)
(-0.0065634 0 0.000108957)
(-0.00675432 0 7.7181e-05)
(-0.00684361 0 0.000130538)
(-0.00699791 0 8.46423e-05)
(-0.00704425 0 0.000145347)
(-0.00714223 0 5.04056e-05)
(-0.00719291 0 5.27814e-05)
(-0.00713405 0 -9.24683e-05)
(-0.00727584 0 2.85541e-05)
(-0.00744655 0 -0.000160199)
(-0.00727077 0 0.000161345)
(-0.00756085 0 0.000396094)
(-0.00748184 0 0.000281167)
(-0.00787434 0 -0.000175062)
(-0.00726004 0 -0.000489551)
(-0.00714849 0 -0.000222046)
(-0.00687272 0 -0.000239065)
(-0.00683715 0 -7.1958e-05)
(-0.00670677 0 -0.000138044)
(-0.0067282 0 1.84001e-05)
(-0.00665738 0 -0.000112974)
(-0.00670874 0 6.0927e-05)
(-0.00665596 0 -0.000137941)
(-0.00664698 0 0.000104448)
(-0.0067096 0 -0.000186587)
(-0.0066002 0 9.21411e-05)
(-0.00671566 0 -0.000116709)
(-0.00673382 0 0.000250299)
(-0.00629834 0 -0.000115355)
(-0.00633048 0 0.000309337)
(-0.00690461 0 -0.00118421)
(-0.00614121 0 -0.00057257)
(-0.00806483 0 0.000421705)
(-0.00783282 0 0.00227703)
(-0.0133056 0 0.00367278)
(-0.013262 0 0.000870401)
(-0.0142369 0 0.000143502)
(-0.013767 0 -0.000391991)
(-0.0137153 0 -0.000363162)
(-0.0134132 0 -0.000204621)
(-0.0133979 0 -3.20526e-05)
(-0.0134616 0 3.49711e-05)
(-0.013594 0 6.82673e-05)
(-0.0137362 0 7.91594e-05)
(-0.0139085 0 0.000127806)
(-0.0141281 0 0.000170869)
(-0.0143653 0 0.000185659)
(-0.0146101 0 0.000194148)
(-0.0148563 0 0.000187431)
(-0.0150922 0 0.000185225)
(-0.0153407 0 0.000206026)
(-0.0156147 0 0.000221621)
(-0.0158932 0 0.000214543)
(-0.0161571 0 0.000210951)
(-0.0164243 0 0.000217568)
(-0.0167051 0 0.000224026)
(-0.0169825 0 0.00021372)
(-0.0172433 0 0.000199214)
(-0.0174975 0 0.000201723)
(-0.0177636 0 0.000219508)
(-0.0180431 0 0.000225104)
(-0.0183243 0 0.00022196)
(-0.0185972 0 0.000210516)
(-0.0188594 0 0.000205069)
(-0.0191191 0 0.000204432)
(-0.019373 0 0.000194238)
(-0.0196149 0 0.000190013)
(-0.0198594 0 0.000196248)
(-0.0201148 0 0.000203429)
(-0.0203721 0 0.000201491)
(-0.0206167 0 0.000185892)
(-0.0208401 0 0.000166301)
(-0.0210422 0 0.000149539)
(-0.0212324 0 0.000143816)
(-0.0214155 0 0.000139229)
(-0.0215957 0 0.000142988)
(-0.0217757 0 0.000139347)
(-0.0219455 0 0.00013085)
(-0.0221054 0 0.000127769)
(-0.0222635 0 0.000121835)
(-0.0224137 0 0.000109731)
(-0.0225476 0 9.82636e-05)
(-0.022672 0 9.36157e-05)
(-0.0227946 0 9.46469e-05)
(-0.0229184 0 9.85372e-05)
(-0.0230445 0 0.000101833)
(-0.0231695 0 0.000100353)
(-0.0232888 0 9.4489e-05)
(-0.0234002 0 8.56883e-05)
(-0.0235013 0 7.67505e-05)
(-0.0235932 0 6.93271e-05)
(-0.0236784 0 6.40221e-05)
(-0.0237567 0 6.04968e-05)
(-0.0238303 0 5.69337e-05)
(-0.0239 0 5.34915e-05)
(-0.0239653 0 4.96756e-05)
(-0.0240249 0 4.52904e-05)
(-0.0240793 0 4.06315e-05)
(-0.0241246 0 3.60524e-05)
(-0.0241754 0 3.5086e-05)
(-0.0242082 0 3.28304e-05)
(-0.0242715 0 3.32633e-05)
(-0.0242732 0 2.67185e-05)
(-0.0243537 0 2.41848e-05)
(-0.0243152 0 2.21184e-05)
(-0.0244283 0 2.18833e-05)
(-0.0243831 0 2.01556e-05)
(-0.024384 0 1.91495e-05)
(-0.024367 0 1.71647e-05)
(-0.0250057 0 1.82939e-05)
(-0.0232692 0 -1.02679e-05)
(-0.0266784 0 -1.18704e-05)
(-0.0207345 0 -6.92374e-05)
(-0.0306289 0 -7.04923e-05)
(-0.0146755 0 -0.000186237)
(0.0827736 0 0.00137236)
(0.0794608 0 0.0134057)
(0.0752492 0 0.0186764)
(0.0739751 0 0.0171813)
(0.0729813 0 0.00315958)
(0.0786086 0 -0.021642)
(0.0895498 0 -0.0333086)
(0.0984648 0 -0.0387466)
(0.109055 0 -0.0402952)
(0.120639 0 -0.0366732)
(0.130874 0 -0.0299152)
(0.139758 0 -0.0247899)
(0.147763 0 -0.0233265)
(0.156949 0 -0.025158)
(0.166569 0 -0.0254372)
(0.176066 0 -0.021304)
(0.183646 0 -0.0132112)
(0.184402 0 -0.0036662)
(0.179175 0 0.00865576)
(0.167953 0 0.0262945)
(0.155845 0 0.0355439)
(0.147298 0 0.0315691)
(0.13889 0 0.0203664)
(0.136104 0 0.00647662)
(0.137135 0 -0.00473285)
(0.139725 0 -0.00920969)
(0.141912 0 -0.0092436)
(0.143069 0 -0.00674603)
(0.141789 0 0.000429558)
(0.135237 0 0.00757445)
(0.125675 0 0.0132113)
(0.116007 0 0.021625)
(0.105936 0 0.0286453)
(0.0934021 0 0.0335394)
(0.0799972 0 0.035065)
(0.06963 0 0.0264288)
(0.0592253 0 0.0229482)
(0.0487659 0 0.0235614)
(0.0403397 0 0.0165838)
(0.035171 0 0.00997907)
(0.0304677 0 0.00947428)
(0.0254818 0 0.0118279)
(0.0202243 0 0.0146772)
(0.0149971 0 0.0150032)
(0.00977281 0 0.0104618)
(0.00551631 0 0.00655036)
(0.00212632 0 0.00644294)
(-0.000826808 0 0.00862945)
(-0.00503658 0 0.0114181)
(-0.00928672 0 0.0118441)
(-0.0136243 0 0.0091843)
(-0.0177614 0 0.00534688)
(-0.0205065 0 0.00302457)
(-0.0219288 0 0.00193545)
(-0.0232457 0 0.00133369)
(-0.0249773 0 0.00197774)
(-0.0276174 0 0.00325804)
(-0.0309144 0 0.00571354)
(-0.0345813 0 0.00864049)
(-0.0371592 0 0.0104941)
(-0.0390037 0 0.0104642)
(-0.040977 0 0.0100981)
(-0.0435281 0 0.0096926)
(-0.0473286 0 0.00877926)
(-0.0517514 0 0.00749737)
(-0.0555934 0 0.0054413)
(-0.0587511 0 0.00215977)
(-0.0606758 0 -0.00154249)
(-0.0610169 0 -0.00451727)
(-0.0606771 0 -0.00629542)
(-0.0605857 0 -0.00737193)
(-0.0610378 0 -0.00783352)
(-0.0623959 0 -0.00838026)
(-0.0634564 0 -0.00961954)
(-0.0630486 0 -0.0110249)
(-0.0610793 0 -0.0123907)
(-0.0572083 0 -0.0128616)
(-0.0492949 0 -0.010233)
(-0.0373809 0 -0.00930828)
(-0.0315923 0 -0.00687659)
(-0.0238049 0 0.00569243)
(-0.0290491 0 0.00804275)
(-0.0176282 0 0.00689036)
(-0.0227546 0 0.00757656)
(-0.022074 0 0.00725396)
(-0.0264337 0 0.00521423)
(-0.0274827 0 0.00278498)
(-0.031606 0 0.00358074)
(-0.0332898 0 0.00180304)
(-0.0348075 0 0.00126123)
(-0.0352207 0 0.000871914)
(-0.0359588 0 0.000120964)
(-0.0365854 0 -0.0016443)
(-0.0365973 0 -0.0031369)
(-0.0371471 0 -0.0056083)
(-0.0367633 0 -0.00858793)
(-0.0370995 0 -0.0105241)
(-0.0371053 0 -0.0115836)
(-0.0350909 0 -0.0121263)
(-0.0319879 0 -0.00981815)
(-0.024213 0 -0.00542787)
(-0.0182169 0 -0.00313284)
(-0.0105855 0 0.0028855)
(-0.0101841 0 0.00590467)
(-0.00804479 0 0.00729034)
(-0.00870244 0 0.00446492)
(-0.00928359 0 0.000647784)
(-0.0107262 0 0.000459572)
(-0.012502 0 0.000658114)
(-0.0144373 0 0.00158246)
(-0.0149545 0 0.00216584)
(-0.0153453 0 0.00232615)
(-0.0161033 0 0.00136129)
(-0.0166456 0 0.000124601)
(-0.0175626 0 -0.00110428)
(-0.0185361 0 -0.00207741)
(-0.0190843 0 -0.00270305)
(-0.0199236 0 -0.00198426)
(-0.0185014 0 -0.000277444)
(-0.0176172 0 -0.000266452)
(-0.0147577 0 0.00109981)
(-0.0154762 0 0.00241657)
(-0.0152436 0 0.0037517)
(-0.0162106 0 0.00316731)
(-0.0167117 0 0.0017178)
(-0.0179144 0 0.00167228)
(-0.0191593 0 0.00151748)
(-0.0199249 0 0.00182349)
(-0.0205943 0 0.00201112)
(-0.0213459 0 0.00194776)
(-0.0220042 0 0.00168435)
(-0.0227768 0 0.00163353)
(-0.0235061 0 0.00143749)
(-0.0241468 0 0.00149271)
(-0.0247685 0 0.00150352)
(-0.0253882 0 0.00155584)
(-0.0260015 0 0.00149115)
(-0.0265987 0 0.00139477)
(-0.0271788 0 0.00133195)
(-0.027747 0 0.00127906)
(-0.0282776 0 0.00127092)
(-0.0287972 0 0.00121656)
(-0.0292864 0 0.00114543)
(-0.0297457 0 0.001051)
(-0.0301725 0 0.000956611)
(-0.0305735 0 0.00089829)
(-0.0309618 0 0.000870632)
(-0.0313311 0 0.000841201)
(-0.0316641 0 0.000781311)
(-0.0319565 0 0.00066305)
(-0.0322142 0 0.000565744)
(-0.032454 0 0.000524844)
(-0.0326813 0 0.000491118)
(-0.0328865 0 0.000442641)
(-0.0330483 0 0.000364739)
(-0.0331734 0 0.000295982)
(-0.0332786 0 0.000230498)
(-0.0333708 0 0.000178979)
(-0.0334457 0 0.000131347)
(-0.0334959 0 8.06923e-05)
(-0.0335207 0 1.98598e-05)
(-0.033512 0 -4.6582e-05)
(-0.0334734 0 -0.000109715)
(-0.0334114 0 -0.000170338)
(-0.03333 0 -0.00020801)
(-0.0332377 0 -0.000234329)
(-0.0331257 0 -0.00029374)
(-0.0329834 0 -0.000383072)
(-0.0328057 0 -0.000451643)
(-0.0326052 0 -0.000483075)
(-0.0323961 0 -0.000500977)
(-0.0321657 0 -0.000546844)
(-0.0319106 0 -0.000634994)
(-0.0316281 0 -0.000719311)
(-0.0313122 0 -0.000782019)
(-0.0309725 0 -0.000831361)
(-0.0306099 0 -0.0008538)
(-0.0302333 0 -0.000863349)
(-0.0298477 0 -0.000907538)
(-0.0294416 0 -0.000975616)
(-0.0290122 0 -0.00104981)
(-0.0285478 0 -0.00114562)
(-0.0280433 0 -0.00122022)
(-0.0275124 0 -0.0012685)
(-0.0269591 0 -0.00130866)
(-0.0263877 0 -0.00132342)
(-0.0258118 0 -0.00135348)
(-0.0252166 0 -0.001449)
(-0.0245856 0 -0.00155834)
(-0.0239142 0 -0.00164523)
(-0.0231994 0 -0.0016952)
(-0.022452 0 -0.00173001)
(-0.0216799 0 -0.00178508)
(-0.0208929 0 -0.0018628)
(-0.0200856 0 -0.00197695)
(-0.0192405 0 -0.00210145)
(-0.0183472 0 -0.00220184)
(-0.017421 0 -0.00224379)
(-0.0164846 0 -0.00221846)
(-0.0155329 0 -0.00221564)
(-0.0145746 0 -0.00226077)
(-0.013592 0 -0.00235149)
(-0.0125943 0 -0.00242047)
(-0.0115947 0 -0.00241479)
(-0.0106071 0 -0.00235477)
(-0.00963795 0 -0.00228565)
(-0.00866463 0 -0.00224449)
(-0.00770567 0 -0.00224177)
(-0.00676431 0 -0.00221782)
(-0.00586208 0 -0.00211781)
(-0.00500174 0 -0.00194863)
(-0.0041763 0 -0.00186876)
(-0.00336946 0 -0.00188241)
(-0.00257737 0 -0.00185036)
(-0.00181464 0 -0.00177507)
(-0.00109029 0 -0.00168803)
(-0.000400139 0 -0.00155877)
(0.000240802 0 -0.00140556)
(0.000840694 0 -0.00132573)
(0.00140811 0 -0.00129584)
(0.00195437 0 -0.00128122)
(0.00248472 0 -0.00122903)
(0.00298174 0 -0.00116469)
(0.00345505 0 -0.00107412)
(0.00389619 0 -0.00095788)
(0.00430351 0 -0.000885164)
(0.00467901 0 -0.000841652)
(0.00502894 0 -0.000820047)
(0.00536616 0 -0.000793938)
(0.00568512 0 -0.000749167)
(0.00598535 0 -0.000684081)
(0.00625632 0 -0.0005862)
(0.00649775 0 -0.00053102)
(0.00672346 0 -0.000506261)
(0.0069395 0 -0.000489168)
(0.00714475 0 -0.000470412)
(0.00733537 0 -0.000436136)
(0.00751022 0 -0.000392234)
(0.00766524 0 -0.000351746)
(0.00779731 0 -0.000314543)
(0.00791266 0 -0.000275649)
(0.00801948 0 -0.000238472)
(0.00812491 0 -0.000219504)
(0.00822829 0 -0.000216753)
(0.00832242 0 -0.000219877)
(0.00840674 0 -0.000211654)
(0.00848434 0 -0.0001985)
(0.00855254 0 -0.000162919)
(0.00861396 0 -0.000122122)
(0.00867628 0 -0.000134759)
(0.00874064 0 -0.000164354)
(0.00881017 0 -0.000171015)
(0.00887444 0 -0.000169343)
(0.00893672 0 -0.000163554)
(0.00900049 0 -0.000146688)
(0.00906824 0 -0.000152729)
(0.00914387 0 -0.00017221)
(0.0092234 0 -0.000190135)
(0.00930612 0 -0.000202956)
(0.00938486 0 -0.000205299)
(0.00946566 0 -0.000214966)
(0.00956068 0 -0.000227851)
(0.00966571 0 -0.000244946)
(0.00977627 0 -0.000268292)
(0.00989208 0 -0.000288153)
(0.0100138 0 -0.000295016)
(0.0101358 0 -0.000286774)
(0.0102599 0 -0.000290779)
(0.0103922 0 -0.000318455)
(0.010535 0 -0.000349252)
(0.010686 0 -0.000365498)
(0.0108417 0 -0.000376867)
(0.0110006 0 -0.000389056)
(0.0111635 0 -0.000395347)
(0.0113325 0 -0.000390115)
(0.0115059 0 -0.000396849)
(0.0116822 0 -0.000413825)
(0.0118611 0 -0.000431501)
(0.0120441 0 -0.000443293)
(0.0122318 0 -0.000451583)
(0.0124243 0 -0.000460682)
(0.0126211 0 -0.000465721)
(0.0128174 0 -0.000456907)
(0.0130118 0 -0.000451171)
(0.0132085 0 -0.00046294)
(0.0134085 0 -0.000473815)
(0.0136106 0 -0.000474841)
(0.0138105 0 -0.000473057)
(0.0140092 0 -0.000473069)
(0.0142087 0 -0.000468105)
(0.0144067 0 -0.000457054)
(0.0146028 0 -0.000451214)
(0.0147971 0 -0.000449515)
(0.014988 0 -0.000446073)
(0.0151743 0 -0.000439386)
(0.0153575 0 -0.00043176)
(0.0155382 0 -0.000419617)
(0.015716 0 -0.00040431)
(0.0158887 0 -0.000390464)
(0.0160528 0 -0.000377623)
(0.0162091 0 -0.000366319)
(0.0163609 0 -0.000354846)
(0.0165085 0 -0.000337121)
(0.0166497 0 -0.000315829)
(0.0167812 0 -0.000296393)
(0.0169023 0 -0.000279994)
(0.017017 0 -0.000263733)
(0.017126 0 -0.000243032)
(0.0172265 0 -0.000220103)
(0.0173152 0 -0.000198022)
(0.0173943 0 -0.000178427)
(0.0174654 0 -0.000157788)
(0.0175274 0 -0.000133572)
(0.0175798 0 -0.00010656)
(0.0176197 0 -8.07017e-05)
(0.0176478 0 -5.79859e-05)
(0.017667 0 -3.51147e-05)
(0.0176765 0 -1.06137e-05)
(0.0176755 0 1.50933e-05)
(0.0176633 0 4.1639e-05)
(0.0176392 0 6.8303e-05)
(0.0176035 0 9.45583e-05)
(0.0175569 0 0.000120639)
(0.0174993 0 0.000147912)
(0.0174303 0 0.000175588)
(0.0173499 0 0.000202007)
(0.0172578 0 0.000228656)
(0.0171536 0 0.000256789)
(0.0170375 0 0.000285098)
(0.0169102 0 0.000311635)
(0.0167722 0 0.000336305)
(0.0166232 0 0.00036081)
(0.0164634 0 0.000386358)
(0.0162922 0 0.000414157)
(0.0161106 0 0.000442083)
(0.0159178 0 0.00046625)
(0.0157148 0 0.000485475)
(0.0155038 0 0.000505518)
(0.0152837 0 0.000525837)
(0.0150561 0 0.000545625)
(0.0148201 0 0.000564698)
(0.0145762 0 0.000582515)
(0.0143244 0 0.000598801)
(0.0140656 0 0.00061398)
(0.0138 0 0.000628183)
(0.0135295 0 0.000640545)
(0.0132547 0 0.000651853)
(0.0129755 0 0.000662102)
(0.0126921 0 0.000671546)
(0.0124046 0 0.000680407)
(0.0121133 0 0.000688741)
(0.0118189 0 0.000695754)
(0.0115221 0 0.00070089)
(0.0112234 0 0.000704565)
(0.0109233 0 0.000707936)
(0.0106216 0 0.000711061)
(0.0103189 0 0.000713695)
(0.0100144 0 0.000715929)
(0.00970921 0 0.000716103)
(0.00940507 0 0.000715101)
(0.00910143 0 0.000713727)
(0.00879844 0 0.00071193)
(0.00849598 0 0.000709407)
(0.00819467 0 0.000707542)
(0.00789431 0 0.000706138)
(0.00759578 0 0.000703231)
(0.00729922 0 0.000697869)
(0.00700491 0 0.000690247)
(0.00671287 0 0.000683529)
(0.00642278 0 0.000679618)
(0.00613379 0 0.000675934)
(0.00584784 0 0.000667714)
(0.00556621 0 0.000657412)
(0.0052887 0 0.000647861)
(0.00501528 0 0.000639919)
(0.00474451 0 0.000632625)
(0.00447615 0 0.000624808)
(0.00421164 0 0.000616937)
(0.0039509 0 0.000609885)
(0.00369536 0 0.000601112)
(0.00344407 0 0.000589322)
(0.00319645 0 0.000576399)
(0.00295271 0 0.000566609)
(0.00271315 0 0.000558343)
(0.00247698 0 0.000548687)
(0.00224585 0 0.000539677)
(0.00201925 0 0.000528727)
(0.00179742 0 0.000518335)
(0.00157971 0 0.000506019)
(0.00136683 0 0.000497944)
(0.00115829 0 0.000486979)
(0.000955569 0 0.000477489)
(0.000756708 0 0.000462733)
(0.000563269 0 0.000453355)
(0.000372904 0 0.000440122)
(0.000188977 0 0.000431218)
(8.71892e-06 0 0.000417779)
(-0.000164358 0 0.00041169)
(-0.000335057 0 0.000399666)
(-0.000499681 0 0.00039183)
(-0.000663724 0 0.000378269)
(-0.000820245 0 0.000368256)
(-0.000972902 0 0.00035716)
(-0.00112075 0 0.000349603)
(-0.0012651 0 0.000348901)
(-0.00140791 0 0.000339895)
(-0.0015412 0 0.000338913)
(-0.00168108 0 0.000314765)
(-0.00180039 0 0.000320942)
(-0.00194471 0 0.000295027)
(-0.00206522 0 0.00030167)
(-0.00220445 0 0.00027049)
(-0.00231956 0 0.000277528)
(-0.00243811 0 0.000262569)
(-0.00254153 0 0.0002648)
(-0.00262194 0 0.000224772)
(-0.00273818 0 0.000220322)
(-0.00286345 0 0.000148992)
(-0.00296198 0 0.000199865)
(-0.00308415 0 0.000263714)
(-0.00311991 0 0.000266201)
(-0.00301881 0 0.000212678)
(-0.00312522 0 0.000114072)
(-0.00332583 0 -0.000296965)
(-0.00342742 0 -0.000113015)
(-0.00399372 0 0.00045718)
(-0.00438295 0 0.000541192)
(-0.00553341 0 0.00096975)
(-0.00563913 0 0.00110021)
(-0.00608605 0 0.00155417)
(-0.00592784 0 0.00118818)
(-0.00618965 0 0.000711722)
(-0.00624824 0 0.000621444)
(-0.00644624 0 0.000458556)
(-0.00656384 0 0.000408749)
(-0.00669637 0 0.00035492)
(-0.00678275 0 0.000361098)
(-0.00689301 0 0.00025246)
(-0.00699404 0 0.00023619)
(-0.00699532 0 7.5361e-05)
(-0.00717212 0 0.000191003)
(-0.0073914 0 -7.6466e-05)
(-0.00731504 0 0.000221841)
(-0.00755884 0 0.000465541)
(-0.00739459 0 0.000165902)
(-0.00776083 0 9.93493e-06)
(-0.00708699 0 -2.62874e-05)
(-0.00700866 0 0.00018287)
(-0.00661685 0 -0.000202164)
(-0.00681795 0 -0.000619139)
(-0.00673662 0 -0.000415653)
(-0.00675191 0 -0.000230676)
(-0.006761 0 -0.000208819)
(-0.00663457 0 -1.73742e-05)
(-0.00669048 0 -0.0001107)
(-0.00658317 0 9.4606e-05)
(-0.00673082 0 -7.34414e-05)
(-0.00658579 0 4.97775e-05)
(-0.00675313 0 -2.98921e-05)
(-0.00672187 0 0.000121793)
(-0.00634621 0 -9.35068e-05)
(-0.00633676 0 0.000339528)
(-0.00677838 0 -0.0009115)
(-0.0067458 0 -0.000505538)
(-0.00844659 0 0.000615897)
(-0.00825364 0 0.000911239)
(-0.0131488 0 0.00235242)
(-0.0123387 0 0.00225195)
(-0.0138387 0 0.00606615)
(-0.0117764 0 0.0040075)
(-0.0117746 0 0.00121209)
(-0.0117158 0 0.000450859)
(-0.0119715 0 -0.00024215)
(-0.0123146 0 -0.0003533)
(-0.0125331 0 -0.00022479)
(-0.0127252 0 7.28418e-05)
(-0.0129218 0 0.000265584)
(-0.0131386 0 0.0003552)
(-0.0133698 0 0.000394843)
(-0.0136099 0 0.000480974)
(-0.0138504 0 0.000547212)
(-0.0140904 0 0.000563646)
(-0.0143315 0 0.000576538)
(-0.0145743 0 0.000562146)
(-0.0148267 0 0.00057416)
(-0.0150934 0 0.000618651)
(-0.0153637 0 0.000647265)
(-0.0156335 0 0.00063299)
(-0.0159007 0 0.000625873)
(-0.0161703 0 0.000642791)
(-0.0164415 0 0.000654034)
(-0.0167084 0 0.00063299)
(-0.0169744 0 0.00060968)
(-0.0172415 0 0.000615704)
(-0.0175084 0 0.000644945)
(-0.017774 0 0.000653539)
(-0.0180368 0 0.000649857)
(-0.0182995 0 0.000630878)
(-0.0185612 0 0.000615421)
(-0.0188136 0 0.000603255)
(-0.0190587 0 0.000583082)
(-0.0193033 0 0.000577212)
(-0.0195484 0 0.000589795)
(-0.0197925 0 0.000603021)
(-0.0200321 0 0.000588585)
(-0.0202616 0 0.000550107)
(-0.0204812 0 0.000503558)
(-0.0206922 0 0.000463704)
(-0.0208947 0 0.000444815)
(-0.0210905 0 0.000429133)
(-0.0212784 0 0.00042534)
(-0.0214572 0 0.000408588)
(-0.0216254 0 0.000384354)
(-0.0217864 0 0.000374148)
(-0.0219422 0 0.000361314)
(-0.0220918 0 0.000335259)
(-0.022236 0 0.000308647)
(-0.0223752 0 0.000294579)
(-0.0225084 0 0.000291944)
(-0.0226351 0 0.000293035)
(-0.0227549 0 0.000291772)
(-0.0228673 0 0.00028312)
(-0.0229742 0 0.000267273)
(-0.0230759 0 0.000247618)
(-0.0231723 0 0.000226499)
(-0.0232624 0 0.000207178)
(-0.0233455 0 0.000191203)
(-0.0234229 0 0.000178541)
(-0.0234948 0 0.000168014)
(-0.0235621 0 0.000157873)
(-0.0236252 0 0.000145904)
(-0.0236822 0 0.00013123)
(-0.0237351 0 0.000119004)
(-0.0237812 0 0.000108178)
(-0.023833 0 0.000105676)
(-0.023865 0 9.88142e-05)
(-0.023926 0 9.329e-05)
(-0.0239212 0 7.71673e-05)
(-0.0240028 0 6.93898e-05)