/*--------------------------------*- C++ -*----------------------------------*\
| =========                 |                                                 |
| \\      /  F ield         | OpenFOAM: The Open Source CFD Toolbox           |
|  \\    /   O peration     | Version:  v2006                                 |
|   \\  /    A nd           | Website:  www.openfoam.com                      |
|    \\/     M anipulation  |                                                 |
\*---------------------------------------------------------------------------*/
FoamFile
{
    version     2.0;
    format      ascii;
    class       surfaceScalarField;
    location    "2.2";
    object      alphaPhi0.water;
}
// * * * * * * * * * * * * * * * * * * * * * * * * * * * * * * * * * * * * * //

dimensions      [0 3 -1 0 0 0 0];
oriented        oriented;


internalField   nonuniform List<scalar> 
65390
(
2.37971e-05
7.17886e-07
2.25182e-05
1.23376e-06
2.12781e-05
1.20881e-06
2.00844e-05
1.16189e-06
1.88275e-05
1.22545e-06
1.76149e-05
1.19159e-06
1.64132e-05
1.18643e-06
1.52483e-05
1.15484e-06
1.41095e-05
1.1293e-06
1.29725e-05
1.12921e-06
1.18296e-05
1.13842e-06
1.0702e-05
1.12564e-06
9.59478e-06
1.10548e-06
8.53208e-06
1.06303e-06
7.54013e-06
9.91939e-07
6.57324e-06
9.66385e-07
5.59323e-06
9.77816e-07
4.5719e-06
1.02173e-06
3.49466e-06
1.07708e-06
2.45834e-06
1.03647e-06
1.60881e-06
8.49404e-07
8.55807e-07
7.51912e-07
4.81424e-08
8.06601e-07
-8.82136e-07
9.28778e-07
-1.80485e-06
9.2116e-07
-2.59753e-06
7.9072e-07
-3.27521e-06
6.74467e-07
-3.95535e-06
6.78298e-07
-4.79271e-06
8.35226e-07
-5.56563e-06
7.69024e-07
-6.11995e-06
5.51364e-07
-6.63344e-06
5.10499e-07
-7.23768e-06
6.01033e-07
-7.92503e-06
6.84979e-07
-8.58305e-06
6.53018e-07
-8.98227e-06
3.95831e-07
-9.31611e-06
3.30533e-07
-9.77105e-06
4.50674e-07
-1.02924e-05
5.201e-07
-1.07992e-05
5.06996e-07
-1.12793e-05
4.73462e-07
-1.149e-05
2.06883e-07
-1.16328e-05
1.39244e-07
-1.19254e-05
2.91546e-07
-1.22851e-05
3.54279e-07
-1.25125e-05
2.24693e-07
-1.26293e-05
1.14504e-07
-1.27747e-05
1.43327e-07
-1.29839e-05
2.06528e-07
-1.31173e-05
1.30679e-07
-1.31487e-05
2.95384e-08
-1.31185e-05
-3.18684e-08
-1.31522e-05
3.23152e-08
-1.31812e-05
2.75266e-08
-1.31742e-05
-8.23744e-09
-1.30986e-05
-7.60598e-08
-1.30883e-05
-1.07157e-08
-1.31346e-05
4.57886e-08
-1.31683e-05
3.33371e-08
-1.31167e-05
-5.16658e-08
-1.29561e-05
-1.60412e-07
-1.28232e-05
-1.3299e-07
-1.28284e-05
5.31213e-09
-1.27749e-05
-5.31693e-08
-1.26409e-05
-1.33474e-07
-1.23799e-05
-2.60152e-07
-1.20976e-05
-2.81396e-07
-1.19101e-05
-1.8645e-07
-1.16698e-05
-2.39404e-07
-1.13724e-05
-2.96491e-07
-1.10977e-05
-2.73428e-07
-1.07741e-05
-3.215e-07
-1.03632e-05
-4.10341e-07
-9.7309e-06
-6.32463e-07
-9.11784e-06
-6.1285e-07
-8.28533e-06
-8.32567e-07
-7.15715e-06
-1.12608e-06
-5.77717e-06
-1.37989e-06
-4.6154e-06
-1.16182e-06
-4.07598e-06
-5.40183e-07
-3.8255e-06
-2.50378e-07
-3.82478e-06
-8.18448e-10
-3.81729e-06
-7.16829e-09
-3.78082e-06
-3.64476e-08
-3.7751e-06
-5.5948e-09
-3.65523e-06
-1.2026e-07
-3.52632e-06
-1.28997e-07
-3.44418e-06
-8.24766e-08
-3.38114e-06
-6.30139e-08
-3.3189e-06
-6.22761e-08
-3.21942e-06
-1.00366e-07
-3.10041e-06
-1.19792e-07
-2.9663e-06
-1.3481e-07
-2.8428e-06
-1.23609e-07
-2.69954e-06
-1.44206e-07
-2.52576e-06
-1.7435e-07
-2.27478e-06
-2.51716e-07
-1.98486e-06
-2.90393e-07
-1.64319e-06
-3.41821e-07
-1.36299e-06
-2.80436e-07
-1.20614e-06
-1.56944e-07
-1.11599e-06
-9.01783e-08
-1.06827e-06
-4.76115e-08
-9.91434e-07
-7.67169e-08
-9.48022e-07
-4.31905e-08
-9.08257e-07
-3.9524e-08
-8.37863e-07
-7.0047e-08
-7.56143e-07
-8.14033e-08
-6.89948e-07
-6.58657e-08
-6.36426e-07
-5.31506e-08
-5.77718e-07
-5.83063e-08
-5.22481e-07
-5.4827e-08
-4.49957e-07
-7.21265e-08
-3.59262e-07
-9.02961e-08
-2.28075e-07
-1.30789e-07
-6.49708e-08
-1.62682e-07
1.54631e-07
-2.19161e-07
3.24267e-07
-1.69191e-07
4.00722e-07
-7.60437e-08
4.38369e-07
-3.72198e-08
4.3085e-07
7.93163e-09
4.36148e-07
-4.87468e-09
3.98094e-07
3.84725e-08
3.64871e-07
3.36466e-08
3.55473e-07
9.82299e-09
3.43005e-07
1.28778e-08
3.3313e-07
1.02892e-08
3.10226e-07
2.33066e-08
2.7697e-07
3.367e-08
2.5129e-07
2.60577e-08
2.3355e-07
1.81247e-08
2.01368e-07
3.25402e-08
1.6487e-07
3.68481e-08
1.27309e-07
3.78924e-08
9.43587e-08
3.32597e-08
6.02868e-08
3.43639e-08
1.23281e-08
4.8229e-08
-3.61785e-08
4.8755e-08
-8.42135e-08
4.82608e-08
-1.28436e-07
4.44196e-08
-1.85252e-07
5.69963e-08
-2.42609e-07
5.7515e-08
-2.99745e-07
5.72724e-08
-3.58693e-07
5.90557e-08
-4.22486e-07
6.38795e-08
-4.85716e-07
6.32948e-08
-5.46795e-07
6.11318e-08
-6.07565e-07
6.07957e-08
-6.76806e-07
6.92516e-08
-7.45439e-07
6.86347e-08
-8.15219e-07
6.97685e-08
-8.86261e-07
7.10252e-08
-9.50605e-07
6.42606e-08
-1.01403e-06
6.33704e-08
-1.08592e-06
7.18245e-08
-1.15949e-06
7.35073e-08
-1.23089e-06
7.12811e-08
-1.29764e-06
6.66565e-08
-1.36501e-06
6.72776e-08
-1.43825e-06
7.31297e-08
-1.51138e-06
7.3017e-08
-1.58122e-06
6.97047e-08
-1.64813e-06
6.67815e-08
-1.71988e-06
7.16182e-08
-1.7929e-06
7.28838e-08
-1.86439e-06
7.13481e-08
-1.93186e-06
6.73226e-08
-2.00132e-06
6.93059e-08
-2.0726e-06
7.11306e-08
-2.14405e-06
7.12973e-08
-2.2126e-06
6.83893e-08
-2.27761e-06
6.48508e-08
-2.34503e-06
6.72526e-08
-2.41373e-06
6.85385e-08
-2.48004e-06
6.61478e-08
-2.54457e-06
6.43717e-08
-2.60746e-06
6.27314e-08
-2.67068e-06
6.30563e-08
-2.73285e-06
6.20062e-08
-2.79397e-06
6.09721e-08
-2.85408e-06
5.9978e-08
-2.91221e-06
5.79266e-08
-2.96912e-06
5.67585e-08
-3.02557e-06
5.63053e-08
-3.08046e-06
5.47467e-08
-3.13323e-06
5.25965e-08
-3.18332e-06
4.99584e-08
-3.23377e-06
5.03233e-08
-3.28303e-06
4.91484e-08
-3.33073e-06
4.75134e-08
-3.37502e-06
4.41637e-08
-3.41891e-06
4.37782e-08
-3.46154e-06
4.25135e-08
-3.50211e-06
4.0466e-08
-3.54096e-06
3.87266e-08
-3.57772e-06
3.66664e-08
-3.61333e-06
3.5525e-08
-3.64726e-06
3.38443e-08
-3.67918e-06
3.17902e-08
-3.70848e-06
2.92247e-08
-3.73675e-06
2.81926e-08
-3.76339e-06
2.65778e-08
-3.78856e-06
2.51068e-08
-3.81158e-06
2.29694e-08
-3.83269e-06
2.10847e-08
-3.85148e-06
1.87106e-08
-3.86817e-06
1.66644e-08
-3.88488e-06
1.6677e-08
-3.89904e-06
1.41389e-08
-3.91119e-06
1.21371e-08
-3.92102e-06
9.82706e-09
-3.9301e-06
9.08066e-09
-3.93722e-06
7.13822e-09
-3.94255e-06
5.33103e-09
-3.94601e-06
3.46986e-09
-3.94727e-06
1.2993e-09
-3.94774e-06
5.44143e-10
-3.94657e-06
-1.13739e-09
-3.94374e-06
-2.77523e-09
-3.93954e-06
-4.1301e-09
-3.93332e-06
-6.18187e-09
-3.9244e-06
-8.86461e-09
-3.91521e-06
-9.13006e-09
-3.9046e-06
-1.05217e-08
-3.89275e-06
-1.17607e-08
-3.8793e-06
-1.33672e-08
-3.86438e-06
-1.4845e-08
-3.84797e-06
-1.63318e-08
-3.8298e-06
-1.80717e-08
-3.8108e-06
-1.88997e-08
-3.79056e-06
-2.01454e-08
-3.76914e-06
-2.13283e-08
-3.74647e-06
-2.25713e-08
-3.72249e-06
-2.38689e-08
-3.69737e-06
-2.50247e-08
-3.67147e-06
-2.57977e-08
-3.64468e-06
-2.66407e-08
-3.61694e-06
-2.75853e-08
-3.58803e-06
-2.88596e-08
-3.55834e-06
-2.95975e-08
-3.52792e-06
-3.03202e-08
-3.49663e-06
-3.11615e-08
-3.46468e-06
-3.18378e-08
-3.43199e-06
-3.25679e-08
-3.39864e-06
-3.32353e-08
-3.36471e-06
-3.38095e-08
-3.3303e-06
-3.42839e-08
-3.29544e-06
-3.47456e-08
-3.25993e-06
-3.53881e-08
-3.22404e-06
-3.57824e-08
-3.1878e-06
-3.61285e-08
-3.15124e-06
-3.64521e-08
-3.11438e-06
-3.6749e-08
-3.07728e-06
-3.69816e-08
-3.04003e-06
-3.71444e-08
-3.00253e-06
-3.73822e-08
-2.96468e-06
-3.77353e-08
-2.92668e-06
-3.79081e-08
-2.88865e-06
-3.79439e-08
-2.85051e-06
-3.80477e-08
-2.8123e-06
-3.81188e-08
-2.77407e-06
-3.81341e-08
-2.73592e-06
-3.80658e-08
-2.69783e-06
-3.79986e-08
-2.65981e-06
-3.79411e-08
-2.62185e-06
-3.78773e-08
-2.58397e-06
-3.77983e-08
-2.54619e-06
-3.76947e-08
-2.50854e-06
-3.75691e-08
-2.47104e-06
-3.74257e-08
-2.43373e-06
-3.72338e-08
-2.39668e-06
-3.69769e-08
-2.35992e-06
-3.66834e-08
-2.32345e-06
-3.64043e-08
-2.28723e-06
-3.61476e-08
-2.25128e-06
-3.58898e-08
-2.21561e-06
-3.5601e-08
-2.18025e-06
-3.52963e-08
-2.14521e-06
-3.49738e-08
-2.11051e-06
-3.4642e-08
-2.07615e-06
-3.42962e-08
-2.04213e-06
-3.395e-08
-2.00845e-06
-3.36176e-08
-1.97508e-06
-3.33116e-08
-1.94203e-06
-3.29934e-08
-1.9093e-06
-3.2668e-08
-1.8769e-06
-3.23358e-08
-1.84484e-06
-3.19994e-08
-1.81311e-06
-3.16682e-08
-1.78172e-06
-3.13346e-08
-1.75066e-06
-3.0991e-08
-1.71997e-06
-3.06341e-08
-1.68965e-06
-3.02562e-08
-1.65973e-06
-2.98596e-08
-1.63022e-06
-2.94534e-08
-1.60112e-06
-2.90332e-08
-1.57246e-06
-2.86063e-08
-1.54422e-06
-2.81772e-08
-1.51641e-06
-2.775e-08
-1.48903e-06
-2.73235e-08
-1.46208e-06
-2.68966e-08
-1.43555e-06
-2.64739e-08
-1.40943e-06
-2.60589e-08
-1.38373e-06
-2.56541e-08
-1.35841e-06
-2.52643e-08
-1.33347e-06
-2.48854e-08
-1.30891e-06
-2.45124e-08
-1.28471e-06
-2.41419e-08
-1.26089e-06
-2.37778e-08
-1.23742e-06
-2.34196e-08
-1.21431e-06
-2.30569e-08
-1.19157e-06
-2.26925e-08
-1.16919e-06
-2.23265e-08
-1.14719e-06
-2.19589e-08
-1.12555e-06
-2.15912e-08
-1.10427e-06
-2.1226e-08
-1.08336e-06
-2.08639e-08
-1.06281e-06
-2.05044e-08
-1.04262e-06
-2.01501e-08
-1.02277e-06
-1.97987e-08
-1.00328e-06
-1.94501e-08
-9.8413e-07
-1.91031e-08
-9.65326e-07
-1.876e-08
-9.4686e-07
-1.8422e-08
-9.28732e-07
-1.80848e-08
-9.10944e-07
-1.77445e-08
-8.93503e-07
-1.73982e-08
-8.76411e-07
-1.70504e-08
-8.59658e-07
-1.67108e-08
-8.43229e-07
-1.63877e-08
-8.27108e-07
-1.60808e-08
-8.11282e-07
-1.57858e-08
-7.9574e-07
-1.55019e-08
-7.80466e-07
-1.52354e-08
-7.65438e-07
-1.49894e-08
-7.50646e-07
-1.47536e-08
-7.36095e-07
-1.4513e-08
-7.21796e-07
-1.4262e-08
-7.07752e-07
-1.40077e-08
-6.93959e-07
-1.37574e-08
-6.80414e-07
-1.35092e-08
-6.67122e-07
-1.32577e-08
-6.54082e-07
-1.30058e-08
-6.41284e-07
-1.27639e-08
-6.28713e-07
-1.25375e-08
-6.16358e-07
-1.23231e-08
-6.04209e-07
-1.21173e-08
-5.92256e-07
-1.19217e-08
-5.8049e-07
-1.17365e-08
-5.68906e-07
-1.1555e-08
-5.57506e-07
-1.13708e-08
-5.46295e-07
-1.11833e-08
-5.35275e-07
-1.09931e-08
-5.2445e-07
-1.07985e-08
-5.13824e-07
-1.06012e-08
-5.03389e-07
-1.04097e-08
-4.93133e-07
-1.02316e-08
-4.83043e-07
-1.00667e-08
-4.7311e-07
-9.91096e-09
-4.63326e-07
-9.76329e-09
-4.53683e-07
-9.62352e-09
-4.44179e-07
-9.48615e-09
-4.3482e-07
-9.34243e-09
-4.25617e-07
-9.18812e-09
-4.16576e-07
-9.02709e-09
-4.07697e-07
-8.86674e-09
-3.98974e-07
-8.71224e-09
-3.90398e-07
-8.56608e-09
-3.81959e-07
-8.43055e-09
-3.73644e-07
-8.30728e-09
-3.65443e-07
-8.19466e-09
-3.5735e-07
-8.08645e-09
-3.4937e-07
-7.97514e-09
-3.41507e-07
-7.85715e-09
-3.33768e-07
-7.73455e-09
-3.26152e-07
-7.61157e-09
-3.18659e-07
-7.48952e-09
-3.11287e-07
-7.36749e-09
-3.04035e-07
-7.24836e-09
-2.96892e-07
-7.13916e-09
-2.89847e-07
-7.04192e-09
-2.82894e-07
-6.94888e-09
-2.76041e-07
-6.84962e-09
-2.69299e-07
-6.73844e-09
-2.62681e-07
-6.61561e-09
-2.56192e-07
-6.48605e-09
-2.4983e-07
-6.35847e-09
-2.43586e-07
-6.24084e-09
-2.37448e-07
-6.13519e-09
-2.31407e-07
-6.03851e-09
-2.25458e-07
-5.94563e-09
-2.19604e-07
-5.84953e-09
-2.13857e-07
-5.74385e-09
-2.08225e-07
-5.62739e-09
-2.02716e-07
-5.504e-09
-1.97331e-07
-5.37962e-09
-1.92063e-07
-5.26171e-09
-1.86898e-07
-5.15786e-09
-1.81819e-07
-5.07176e-09
-1.76815e-07
-4.9973e-09
-1.71886e-07
-4.92052e-09
-1.67046e-07
-4.83174e-09
-1.62304e-07
-4.73336e-09
-1.57661e-07
-4.63475e-09
-1.53115e-07
-4.53727e-09
-1.48664e-07
-4.44259e-09
-1.44296e-07
-4.36017e-09
-1.40002e-07
-4.28559e-09
-1.35787e-07
-4.20656e-09
-1.31663e-07
-4.11591e-09
-1.27637e-07
-4.01841e-09
-1.23705e-07
-3.9237e-09
-1.19856e-07
-3.84092e-09
-1.16078e-07
-3.77044e-09
-1.1237e-07
-3.70092e-09
-1.08734e-07
-3.62885e-09
-1.05172e-07
-3.55451e-09
-1.01689e-07
-3.47629e-09
-9.82857e-08
-3.39656e-09
-9.4957e-08
-3.32194e-09
-9.16905e-08
-3.25972e-09
-8.85058e-08
-3.17811e-09
-8.54256e-08
-3.07363e-09
-8.24037e-08
-3.0154e-09
-7.94654e-08
-2.93173e-09
-7.66196e-08
-2.83938e-09
-7.37939e-08
-2.81925e-09
-7.09996e-08
-2.78795e-09
-6.84128e-08
-2.58026e-09
-6.6003e-08
-2.40333e-09
-6.36196e-08
-2.3769e-09
-6.11773e-08
-2.43571e-09
-5.87018e-08
-2.46892e-09
-5.62644e-08
-2.43074e-09
-5.38646e-08
-2.393e-09
-5.15581e-08
-2.29967e-09
-4.93169e-08
-2.2344e-09
-4.71216e-08
-2.18828e-09
-4.49774e-08
-2.13718e-09
-4.2836e-08
-2.13425e-09
-4.07862e-08
-2.04264e-09
-3.8854e-08
-1.92486e-09
-3.69672e-08
-1.8793e-09
-3.51454e-08
-1.8142e-09
-3.33119e-08
-1.82575e-09
-3.15559e-08
-1.74816e-09
-2.98769e-08
-1.67072e-09
-2.82438e-08
-1.62462e-09
-2.66148e-08
-1.62012e-09
-2.49582e-08
-1.64731e-09
-2.34086e-08
-1.53988e-09
-2.1857e-08
-1.54148e-09
-2.04319e-08
-1.4144e-09
-1.90687e-08
-1.35191e-09
-1.78453e-08
-1.21137e-09
-1.66154e-08
-1.21703e-09
-1.53564e-08
-1.2452e-09
-1.42468e-08
-1.09454e-09
-1.30981e-08
-1.13229e-09
-1.19192e-08
-1.16109e-09
-1.08225e-08
-1.07708e-09
-9.91917e-09
-8.82133e-10
-8.94181e-09
-9.55383e-10
-8.01577e-09
-9.05929e-10
-7.48817e-09
-5.14608e-10
-6.65657e-09
-8.42337e-10
-5.67952e-09
-1.03574e-09
-5.78565e-09
-7.00551e-11
-6.68917e-09
6.22821e-10
-7.94869e-09
7.48164e-10
-9.14766e-09
2.89551e-10
-9.45043e-09
-5.28272e-10
-9.59492e-09
-6.0765e-10
-9.56389e-09
-7.10301e-10
-9.41616e-09
-7.60986e-10
-9.28076e-09
-6.89453e-10
-9.19323e-09
-5.8869e-10
-9.12555e-09
-5.2159e-10
-9.07405e-09
-4.6317e-10
-9.04705e-09
-4.00874e-10
-8.99958e-09
-3.87508e-10
-8.86517e-09
-4.44144e-10
-8.63068e-09
-5.17093e-10
-8.37674e-09
-5.12209e-10
-8.14241e-09
-4.70809e-10
-7.91697e-09
-4.42389e-10
-7.66196e-09
-4.54453e-10
-7.35325e-09
-4.92454e-10
-6.99483e-09
-5.28104e-10
-6.60973e-09
-5.42178e-10
-6.24092e-09
-5.14563e-10
-5.89921e-09
-4.77307e-10
-5.6082e-09
-4.17494e-10
-5.36853e-09
-3.57973e-10
-5.1658e-09
-3.1367e-10
-4.98e-09
-2.90144e-10
-4.79039e-09
-2.88031e-10
-4.57423e-09
-3.09241e-10
-4.3219e-09
-3.4062e-10
-4.00253e-09
-4.03339e-10
-3.58786e-09
-4.94767e-10
-3.04771e-09
-6.16732e-10
-2.37597e-09
-7.45181e-10
-1.57988e-09
-8.66663e-10
-6.88269e-10
-9.59612e-10
2.6451e-10
-1.01845e-09
1.2441e-09
-1.04314e-09
2.22219e-09
-1.03973e-09
3.17829e-09
-1.01601e-09
4.09456e-09
-9.74606e-10
4.94943e-09
-9.11791e-10
5.71667e-09
-8.22863e-10
6.37455e-09
-7.12351e-10
6.92319e-09
-6.02066e-10
7.37979e-09
-5.0908e-10
7.78791e-09
-4.5976e-10
8.19504e-09
-4.58013e-10
8.64469e-09
-4.99868e-10
9.17228e-09
-5.77218e-10
9.80447e-09
-6.81302e-10
1.05405e-08
-7.84649e-10
1.13372e-08
-8.45042e-10
1.20905e-08
-8.01181e-10
1.26825e-08
-6.3964e-10
1.30826e-08
-4.4757e-10
1.34005e-08
-3.65194e-10
1.38235e-08
-4.70066e-10
1.44644e-08
-6.87944e-10
1.51657e-08
-7.48278e-10
1.56176e-08
-4.98913e-10
1.56239e-08
-5.33521e-11
1.53633e-08
2.13452e-10
1.52384e-08
7.77183e-11
1.54858e-08
-2.94753e-10
1.57912e-08
-3.52927e-10
1.5745e-08
-1.44162e-12
1.5401e-08
2.96097e-10
1.52676e-08
8.52372e-11
1.56783e-08
-4.59054e-10
1.62147e-08
-5.85056e-10
1.64555e-08
-2.8967e-10
1.66884e-08
-2.82215e-10
1.73705e-08
-7.31611e-10
1.82682e-08
-9.47454e-10
1.86331e-08
-4.14807e-10
1.86097e-08
-2.63861e-11
1.87502e-08
-1.89361e-10
1.85434e-08
1.60241e-10
1.84209e-08
8.15994e-11
1.27711e-09
2.33504e-05
1.94925e-06
2.22378e-05
2.42803e-06
2.10092e-05
2.50735e-06
1.97167e-05
2.51447e-06
1.84822e-05
2.50973e-06
1.72831e-05
2.43233e-06
1.61006e-05
2.40332e-06
1.49114e-05
2.37149e-06
1.37467e-05
2.31612e-06
1.26065e-05
2.28765e-06
1.14721e-05
2.28806e-06
1.03575e-05
2.25317e-06
9.27008e-06
2.20343e-06
8.21137e-06
2.13036e-06
7.16295e-06
2.04762e-06
6.12148e-06
2.01434e-06
5.11931e-06
1.98579e-06
4.14342e-06
2.00225e-06
3.18085e-06
2.04508e-06
2.26644e-06
1.95627e-06
1.3835e-06
1.73727e-06
5.16603e-07
1.62352e-06
-3.5071e-07
1.67818e-06
-1.18965e-06
1.77252e-06
-1.96372e-06
1.69934e-06
-2.72311e-06
1.55399e-06
-3.43645e-06
1.39144e-06
-4.18135e-06
1.42893e-06
-4.95984e-06
1.62009e-06
-5.7538e-06
1.56486e-06
-6.44544e-06
1.24587e-06
-6.9747e-06
1.04829e-06
-7.44805e-06
1.07858e-06
-7.94356e-06
1.18392e-06
-8.50648e-06
1.21899e-06
-9.09768e-06
9.89122e-07
-9.56752e-06
8.069e-07
-9.94913e-06
8.39853e-07
-1.03077e-05
8.82536e-07
-1.07125e-05
9.15633e-07
-1.11527e-05
9.13735e-07
-1.14477e-05
5.03241e-07
-1.16928e-05
3.88905e-07
-1.19046e-05
5.07911e-07
-1.21507e-05
6.02395e-07
-1.24341e-05
5.0823e-07
-1.26755e-05
3.56632e-07
-1.28767e-05
3.50046e-07
-1.30299e-05
3.61244e-07
-1.3154e-05
2.56031e-07
-1.32421e-05
1.15499e-07
-1.33105e-05
3.9774e-08
-1.3362e-05
8.59729e-08
-1.33877e-05
5.34359e-08
-1.33655e-05
-3.51287e-08
-1.33081e-05
-1.25347e-07
-1.32569e-05
-6.09955e-08
-1.32589e-05
4.80456e-08
-1.32712e-05
4.5968e-08
-1.31693e-05
-1.55056e-07
-1.30393e-05
-2.94076e-07
-1.29456e-05
-2.23879e-07
-1.29162e-05
-2.25633e-08
-1.28721e-05
-9.85896e-08
-1.26992e-05
-3.07399e-07
-1.24863e-05
-4.74501e-07
-1.22784e-05
-4.91177e-07
-1.20192e-05
-4.43895e-07
-1.17607e-05
-4.99931e-07
-1.15627e-05
-4.93673e-07
-1.13275e-05
-5.09514e-07
-1.09774e-05
-6.70689e-07
-1.06134e-05
-7.78615e-07
-1.02696e-05
-9.77395e-07
-9.90955e-06
-9.74428e-07
-9.57308e-06
-1.16939e-06
-9.31539e-06
-1.38716e-06
-9.1353e-06
-1.56083e-06
-8.58143e-06
-1.71648e-06
-7.50028e-06
-1.62091e-06
-6.16952e-06
-1.58071e-06
-4.91089e-06
-1.25968e-06
-4.22964e-06
-6.88854e-07
-3.80864e-06
-4.58176e-07
-3.61648e-06
-1.97899e-07
-3.53011e-06
-2.07059e-07
-3.48929e-06
-1.69751e-07
-3.48627e-06
-8.55013e-08
-3.4709e-06
-7.91364e-08
-3.36094e-06
-1.72959e-07
-3.22425e-06
-2.39115e-07
-3.12033e-06
-2.24781e-07
-3.01e-06
-2.46342e-07
-2.90041e-06
-2.33934e-07
-2.79078e-06
-2.54994e-07
-2.67168e-06
-2.94482e-07
-2.55765e-06
-3.66698e-07
-2.44688e-06
-4.01952e-07
-2.35391e-06
-4.34902e-07
-2.17264e-06
-4.62131e-07
-1.90429e-06
-4.25422e-07
-1.56899e-06
-4.25125e-07
-1.28152e-06
-3.34905e-07
-1.10643e-06
-2.51386e-07
-9.5706e-07
-1.92215e-07
-8.59136e-07
-1.36966e-07
-7.80678e-07
-1.47919e-07
-7.2292e-07
-1.38644e-07
-6.98874e-07
-8.91139e-08
-6.73431e-07
-7.79379e-08
-6.08298e-07
-1.22769e-07
-5.43107e-07
-1.19348e-07
-4.78172e-07
-1.36262e-07
-4.21243e-07
-1.46541e-07
-3.78374e-07
-1.73023e-07
-3.32544e-07
-2.07704e-07
-3.05911e-07
-2.45069e-07
-2.33591e-07
-2.40789e-07
-1.00216e-07
-2.08662e-07
1.06156e-07
-2.4289e-07
2.83161e-07
-1.68382e-07
3.54904e-07
-7.58464e-08
4.00846e-07
-6.72283e-09
4.14189e-07
2.10128e-08
4.13439e-07
1.12787e-08
3.66508e-07
6.05658e-08
3.24693e-07
5.27467e-08
3.09495e-07
3.91387e-08
2.89401e-07
5.43949e-08
2.68836e-07
4.72744e-08
2.44001e-07
4.34948e-08
2.10338e-07
6.67545e-08
1.74104e-07
7.35876e-08
1.39119e-07
7.33671e-08
1.03265e-07
6.9549e-08
6.37471e-08
7.42617e-08
1.74178e-08
9.48976e-08
-2.74388e-08
9.39117e-08
-7.48599e-08
9.59401e-08
-1.25597e-07
9.53682e-08
-1.82441e-07
1.14024e-07
-2.36611e-07
1.11814e-07
-2.91781e-07
1.12544e-07
-3.53417e-07
1.20709e-07
-4.16446e-07
1.26946e-07
-4.7677e-07
1.23667e-07
-5.38078e-07
1.22288e-07
-6.04003e-07
1.26689e-07
-6.73366e-07
1.38407e-07
-7.39222e-07
1.34458e-07
-8.06066e-07
1.3654e-07
-8.75879e-07
1.40568e-07
-9.43362e-07
1.31426e-07
-1.01112e-06
1.3097e-07
-1.08202e-06
1.42385e-07
-1.15373e-06
1.45162e-07
-1.22358e-06
1.40778e-07
-1.29233e-06
1.35034e-07
-1.36268e-06
1.37274e-07
-1.43508e-06
1.45234e-07
-1.50761e-06
1.45379e-07
-1.57862e-06
1.40175e-07
-1.64759e-06
1.35502e-07
-1.71844e-06
1.42019e-07
-1.79127e-06
1.45586e-07
-1.86363e-06
1.43125e-07
-1.93297e-06
1.36396e-07
-2.00184e-06
1.37669e-07
-2.07246e-06
1.41578e-07
-2.14399e-06
1.42601e-07
-2.21248e-06
1.36214e-07
-2.2787e-06
1.30811e-07
-2.34676e-06
1.34809e-07
-2.41552e-06
1.37138e-07
-2.48038e-06
1.30826e-07
-2.54486e-06
1.28298e-07
-2.60986e-06
1.27181e-07
-2.67318e-06
1.25911e-07
-2.73442e-06
1.2314e-07
-2.7946e-06
1.2103e-07
-2.85455e-06
1.19551e-07
-2.91337e-06
1.16253e-07
-2.97129e-06
1.14202e-07
-3.02774e-06
1.1255e-07
-3.08259e-06
1.09311e-07
-3.13522e-06
1.04988e-07
-3.18644e-06
1.00625e-07
-3.23618e-06
9.99503e-08
-3.28487e-06
9.75855e-08
-3.33211e-06
9.44938e-08
-3.37814e-06
8.97921e-08
-3.42272e-06
8.80237e-08
-3.46527e-06
8.49798e-08
-3.50547e-06
8.05552e-08
-3.54376e-06
7.69083e-08
-3.58077e-06
7.33199e-08
-3.61703e-06
7.15227e-08
-3.65107e-06
6.7758e-08
-3.68277e-06
6.3403e-08
-3.71297e-06
5.89613e-08
-3.7409e-06
5.60637e-08
-3.76725e-06
5.29017e-08
-3.79263e-06
5.03892e-08
-3.81534e-06
4.55819e-08
-3.83603e-06
4.17619e-08
-3.85508e-06
3.748e-08
-3.87283e-06
3.43848e-08
-3.88958e-06
3.34007e-08
-3.90322e-06
2.77494e-08
-3.91519e-06
2.41647e-08
-3.92588e-06
2.03217e-08
-3.93497e-06
1.82234e-08
-3.94185e-06
1.40432e-08
-3.94692e-06
1.04149e-08
-3.9503e-06
6.86786e-09
-3.95188e-06
2.93221e-09
-3.95201e-06
7.21352e-10
-3.95042e-06
-2.65995e-09
-3.94732e-06
-5.80534e-09
-3.94306e-06
-8.31609e-09
-3.93662e-06
-1.25404e-08
-3.92869e-06
-1.66915e-08
-3.91926e-06
-1.84596e-08
-3.90825e-06
-2.14114e-08
-3.89635e-06
-2.35345e-08
-3.8826e-06
-2.6988e-08
-3.86742e-06
-2.98855e-08
-3.85088e-06
-3.27448e-08
-3.83305e-06
-3.57663e-08
-3.81391e-06
-3.78855e-08
-3.79349e-06
-4.03992e-08
-3.772e-06
-4.26527e-08
-3.74922e-06
-4.51975e-08
-3.72504e-06
-4.77531e-08
-3.69998e-06
-5.00215e-08
-3.6738e-06
-5.17968e-08
-3.64668e-06
-5.35788e-08
-3.61862e-06
-5.54686e-08
-3.58997e-06
-5.7332e-08
-3.56061e-06
-5.8756e-08
-3.53005e-06
-6.06784e-08
-3.49853e-06
-6.24841e-08
-3.46655e-06
-6.36254e-08
-3.43381e-06
-6.51138e-08
-3.40029e-06
-6.65558e-08
-3.36614e-06
-6.77606e-08
-3.33165e-06
-6.8585e-08
-3.29679e-06
-6.93855e-08
-3.26135e-06
-7.06584e-08
-3.22535e-06
-7.15948e-08
-3.18894e-06
-7.2352e-08
-3.15218e-06
-7.30252e-08
-3.11508e-06
-7.3668e-08
-3.07772e-06
-7.41617e-08
-3.04018e-06
-7.45038e-08
-3.0024e-06
-7.49895e-08
-2.96441e-06
-7.54927e-08
-2.92652e-06
-7.57108e-08
-2.88859e-06
-7.57223e-08
-2.85047e-06
-7.60106e-08
-2.81226e-06
-7.61527e-08
-2.77406e-06
-7.62133e-08
-2.73582e-06
-7.61555e-08
-2.69763e-06
-7.6048e-08
-2.65951e-06
-7.59231e-08
-2.62143e-06
-7.57706e-08
-2.58352e-06
-7.55854e-08
-2.54575e-06
-7.53467e-08
-2.50814e-06
-7.50683e-08
-2.4707e-06
-7.47634e-08
-2.43343e-06
-7.43856e-08
-2.39638e-06
-7.39142e-08
-2.35962e-06
-7.33273e-08
-2.32316e-06
-7.27578e-08
-2.28697e-06
-7.22352e-08
-2.25102e-06
-7.17316e-08
-2.21536e-06
-7.11637e-08
-2.17997e-06
-7.05815e-08
-2.14487e-06
-6.99768e-08
-2.11007e-06
-6.93512e-08
-2.07555e-06
-6.86798e-08
-2.04142e-06
-6.79842e-08
-2.00764e-06
-6.73006e-08
-1.9742e-06
-6.6657e-08
-1.9411e-06
-6.59991e-08
-1.90834e-06
-6.53332e-08
-1.87592e-06
-6.46573e-08
-1.84384e-06
-6.39736e-08
-1.81212e-06
-6.32896e-08
-1.78076e-06
-6.25963e-08
-1.74977e-06
-6.18847e-08
-1.71916e-06
-6.1156e-08
-1.68892e-06
-6.04004e-08
-1.65907e-06
-5.96185e-08
-1.6296e-06
-5.88205e-08
-1.60053e-06
-5.80003e-08
-1.57188e-06
-5.71647e-08
-1.54364e-06
-5.63226e-08
-1.51582e-06
-5.54823e-08
-1.48841e-06
-5.46419e-08
-1.46141e-06
-5.38027e-08
-1.43482e-06
-5.2973e-08
-1.40863e-06
-5.21534e-08
-1.38285e-06
-5.13493e-08
-1.35746e-06
-5.05677e-08
-1.33246e-06
-4.97996e-08
-1.30784e-06
-4.9041e-08
-1.28361e-06
-4.82887e-08
-1.25976e-06
-4.75458e-08
-1.23629e-06
-4.68102e-08
-1.2132e-06
-4.60727e-08
-1.19047e-06
-4.53356e-08
-1.16812e-06
-4.45991e-08
-1.14614e-06
-4.38628e-08
-1.12453e-06
-4.31279e-08
-1.10328e-06
-4.2397e-08
-1.08239e-06
-4.16718e-08
-1.06187e-06
-4.09529e-08
-1.0417e-06
-4.02433e-08
-1.02189e-06
-3.95404e-08
-1.00242e-06
-3.88421e-08
-9.8331e-07
-3.8145e-08
-9.64548e-07
-3.74504e-08
-9.46138e-07
-3.67619e-08
-9.28073e-07
-3.60799e-08
-9.10347e-07
-3.54026e-08
-8.92953e-07
-3.47257e-08
-8.75885e-07
-3.40507e-08
-8.59141e-07
-3.33888e-08
-8.4271e-07
-3.27533e-08
-8.26576e-07
-3.2148e-08
-8.10731e-07
-3.15659e-08
-7.9517e-07
-3.10002e-08
-7.79887e-07
-3.04559e-08
-7.64875e-07
-2.99405e-08
-7.50122e-07
-2.94461e-08
-7.35623e-07
-2.89521e-08
-7.21381e-07
-2.84457e-08
-7.07398e-07
-2.79343e-08
-6.93665e-07
-2.74324e-08
-6.80176e-07
-2.69422e-08
-6.66923e-07
-2.64554e-08
-6.53903e-07
-2.59712e-08
-6.41111e-07
-2.55018e-08
-6.2854e-07
-2.5056e-08
-6.16183e-07
-2.46294e-08
-6.04035e-07
-2.4215e-08
-5.92092e-07
-2.38148e-08
-5.80351e-07
-2.34304e-08
-5.68805e-07
-2.30541e-08
-5.57452e-07
-2.26779e-08
-5.46288e-07
-2.2303e-08
-5.35307e-07
-2.19313e-08
-5.24506e-07
-2.15586e-08
-5.13882e-07
-2.11853e-08
-5.03431e-07
-2.08223e-08
-4.93146e-07
-2.04806e-08
-4.8302e-07
-2.01576e-08
-4.73054e-07
-1.98444e-08
-4.63249e-07
-1.9538e-08
-4.53604e-07
-1.92407e-08
-4.44115e-07
-1.89494e-08
-4.3478e-07
-1.86546e-08
-4.25598e-07
-1.83501e-08
-4.16566e-07
-1.80406e-08
-4.07681e-07
-1.77357e-08
-3.98937e-07
-1.74421e-08
-3.90329e-07
-1.71619e-08
-3.81852e-07
-1.68965e-08
-3.73503e-07
-1.66471e-08
-3.65279e-07
-1.64118e-08
-3.57175e-07
-1.61831e-08
-3.49194e-07
-1.59509e-08
-3.41336e-07
-1.57098e-08
-3.33603e-07
-1.54632e-08
-3.25991e-07
-1.52196e-08
-3.18494e-07
-1.49827e-08
-3.11109e-07
-1.47488e-08
-3.03837e-07
-1.45166e-08
-2.96679e-07
-1.42934e-08
-2.89635e-07
-1.4083e-08
-2.82705e-07
-1.3876e-08
-2.75892e-07
-1.36593e-08
-2.69199e-07
-1.34289e-08
-2.62623e-07
-1.31893e-08
-2.56158e-07
-1.2948e-08
-2.49799e-07
-1.27144e-08
-2.4354e-07
-1.24962e-08
-2.37379e-07
-1.22921e-08
-2.3132e-07
-1.2094e-08
-2.25367e-07
-1.18935e-08
-2.19528e-07
-1.16836e-08
-2.13805e-07
-1.14609e-08
-2.08195e-07
-1.12294e-08
-2.02695e-07
-1.09963e-08
-1.97297e-07
-1.07685e-08
-1.91996e-07
-1.05528e-08
-1.86789e-07
-1.03538e-08
-1.81678e-07
-1.01722e-08
-1.76662e-07
-1.00003e-08
-1.71746e-07
-9.8247e-09
-1.66927e-07
-9.63728e-09
-1.62202e-07
-9.44542e-09
-1.5756e-07
-9.2628e-09
-1.52998e-07
-9.08526e-09
-1.48524e-07
-8.90383e-09
-1.44141e-07
-8.72912e-09
-1.39856e-07
-8.55763e-09
-1.35665e-07
-8.38434e-09
-1.31563e-07
-8.20519e-09
-1.27544e-07
-8.02395e-09
-1.23604e-07
-7.8518e-09
-1.1974e-07
-7.69276e-09
-1.15949e-07
-7.54944e-09
-1.12236e-07
-7.40145e-09
-1.08605e-07
-7.24868e-09
-1.0506e-07
-7.08863e-09
-1.01589e-07
-6.93616e-09
-9.81886e-08
-6.78576e-09
-9.48759e-08
-6.62382e-09
-9.1605e-08
-6.52015e-09
-8.8416e-08
-6.35668e-09
-8.53539e-08
-6.12547e-09
-8.23556e-08
-6.00368e-09
-7.93893e-08
-5.8881e-09
-7.66226e-08
-5.59628e-09
-7.40848e-08
-5.34738e-09
-7.15847e-08
-5.27859e-09
-6.89584e-08
-5.19724e-09
-6.6281e-08
-5.07153e-09
-6.36596e-08
-4.98925e-09
-6.11212e-08
-4.96538e-09
-5.86347e-08
-4.94677e-09
-5.62103e-08
-4.84686e-09
-5.38371e-08
-4.75806e-09
-5.15289e-08
-4.6001e-09
-4.92803e-08
-4.47555e-09
-4.70904e-08
-4.37114e-09
-4.49409e-08
-4.28007e-09
-4.28287e-08
-4.24031e-09
-4.08128e-08
-4.05287e-09
-3.88775e-08
-3.85521e-09
-3.69656e-08
-3.78686e-09
-3.51355e-08
-3.6409e-09
-3.33738e-08
-3.58479e-09
-3.16645e-08
-3.45586e-09
-2.9949e-08
-3.38586e-09
-2.8225e-08
-3.34953e-09
-2.65441e-08
-3.30336e-09
-2.49454e-08
-3.24978e-09
-2.34273e-08
-3.06339e-09
-2.18779e-08
-3.09798e-09
-2.04187e-08
-2.88251e-09
-1.90756e-08
-2.70581e-09
-1.77856e-08
-2.51416e-09
-1.65358e-08
-2.48181e-09
-1.53366e-08
-2.46163e-09
-1.40537e-08
-2.39704e-09
-1.30062e-08
-2.20187e-09
-1.18765e-08
-2.31525e-09
-1.08449e-08
-2.13461e-09
-1.02089e-08
-1.54292e-09
-9.54864e-09
-1.63187e-09
-8.23279e-09
-2.21682e-09
-8.11242e-09
-5.71791e-10
-9.7703e-09
9.48748e-10
-1.17293e-08
1.27797e-09
-1.24366e-08
1.33754e-09
-1.21161e-08
1.23166e-09
-1.13017e-08
1.32676e-09
-1.05198e-08
8.39827e-10
-1.01136e-08
3.15823e-10
-9.84337e-09
2.80754e-10
-9.61432e-09
1.25274e-10
-9.44771e-09
4.56324e-11
-9.34949e-09
9.95421e-11
-9.20978e-09
7.93293e-11
-8.98649e-09
-9.73626e-12
-8.74335e-09
-3.70495e-11
-8.5126e-09
-2.19169e-11
-8.2762e-09
-6.7893e-11
-8.03851e-09
-1.74126e-10
-7.83649e-09
-2.54858e-10
-7.64932e-09
-2.7415e-10
-7.4494e-09
-2.80535e-10
-7.19882e-09
-3.3422e-10
-6.89993e-09
-4.22808e-10
-6.55044e-09
-5.36704e-10
-6.16588e-09
-6.30131e-10
-5.77625e-09
-6.69654e-10
-5.40219e-09
-6.44775e-10
-5.07477e-09
-5.77328e-10
-4.78749e-09
-4.92181e-10
-4.52442e-09
-4.21758e-10
-4.26278e-09
-3.88029e-10
-3.98103e-09
-3.95418e-10
-3.66317e-09
-4.39182e-10
-3.30224e-09
-5.12269e-10
-2.88648e-09
-6.06438e-10
-2.41861e-09
-7.28459e-10
-1.89734e-09
-8.79812e-10
-1.32394e-09
-1.05982e-09
-7.09542e-10
-1.23463e-09
-5.74184e-11
-1.39871e-09
6.36714e-10
-1.53811e-09
1.37103e-09
-1.64118e-09
2.1422e-09
-1.70643e-09
2.94063e-09
-1.73368e-09
3.74916e-09
-1.72315e-09
4.54146e-09
-1.66837e-09
5.28658e-09
-1.561e-09
5.9592e-09
-1.40199e-09
6.55388e-09
-1.21575e-09
7.08626e-09
-1.04519e-09
7.58934e-09
-9.24775e-10
8.08997e-09
-8.74696e-10
8.59854e-09
-8.82435e-10
9.11604e-09
-9.3461e-10
9.65257e-09
-1.03225e-09
1.02284e-08
-1.1768e-09
1.08631e-08
-1.33999e-09
1.15338e-08
-1.43725e-09
1.21782e-08
-1.36786e-09
1.27386e-08
-1.12302e-09
1.32129e-08
-8.45411e-10
1.36648e-08
-7.41097e-10
1.41534e-08
-8.83014e-10
1.46353e-08
-1.09458e-09
1.49793e-08
-1.0172e-09
1.51064e-08
-5.51071e-10
1.51075e-08
2.04703e-11
1.52285e-08
1.67315e-10
1.55763e-08
-1.95276e-10
1.58876e-08
-5.31048e-10
1.59415e-08
-3.31771e-10
1.58065e-08
2.08847e-10
1.58412e-08
3.36787e-10
1.62375e-08
-2.35337e-10
1.65775e-08
-7.23125e-10
1.66072e-08
-5.38434e-10
1.66652e-08
-2.71035e-10
1.70979e-08
-6.38003e-10
1.74551e-08
-1.01162e-09
1.73745e-08
-7.89503e-10
1.7345e-08
-3.08443e-10
1.74451e-08
-5.08617e-11
1.7472e-08
-1.43342e-10
1.76189e-08
8.14908e-11
1.80356e-08
-2.73826e-10
2.19347e-09
2.31762e-05
3.14478e-06
2.19005e-05
3.66886e-06
2.05998e-05
3.78045e-06
1.93321e-05
3.7618e-06
1.81303e-05
3.69598e-06
1.69289e-05
3.62378e-06
1.57474e-05
3.5771e-06
1.45728e-05
3.54105e-06
1.34075e-05
3.47887e-06
1.22486e-05
3.44456e-06
1.11093e-05
3.42434e-06
9.99633e-06
3.36586e-06
8.90587e-06
3.29357e-06
7.83138e-06
3.20551e-06
6.75824e-06
3.12103e-06
5.71132e-06
3.06094e-06
4.69193e-06
3.00505e-06
3.71519e-06
2.97888e-06
2.82211e-06
2.93873e-06
1.95835e-06
2.82072e-06
1.03503e-06
2.66027e-06
1.00765e-07
2.5574e-06
-7.64363e-07
2.54272e-06
-1.50861e-06
2.51638e-06
-2.22274e-06
2.41279e-06
-2.94922e-06
2.27923e-06
-3.72609e-06
2.16711e-06
-4.4907e-06
2.19355e-06
-5.1374e-06
2.26471e-06
-5.78498e-06
2.21209e-06
-6.53576e-06
1.98945e-06
-7.17482e-06
1.68521e-06
-7.667e-06
1.56918e-06
-8.09882e-06
1.61518e-06
-8.56188e-06
1.68245e-06
-9.13583e-06
1.55701e-06
-9.66741e-06
1.33152e-06
-1.00558e-05
1.22488e-06
-1.03605e-05
1.18668e-06
-1.06789e-05
1.23382e-06
-1.09901e-05
1.22023e-06
-1.13776e-05
8.85516e-07
-1.17417e-05
7.48982e-07
-1.19924e-05
7.57743e-07
-1.21987e-05
8.08785e-07
-1.24439e-05
7.53235e-07
-1.27131e-05
6.24967e-07
-1.29515e-05
5.81695e-07
-1.31055e-05
5.1382e-07
-1.32528e-05
4.01925e-07
-1.3395e-05
2.55834e-07
-1.35025e-05