/*--------------------------------*- C++ -*----------------------------------*\
| =========                 |                                                 |
| \\      /  F ield         | OpenFOAM: The Open Source CFD Toolbox           |
|  \\    /   O peration     | Version:  v2006                                 |
|   \\  /    A nd           | Website:  www.openfoam.com                      |
|    \\/     M anipulation  |                                                 |
\*---------------------------------------------------------------------------*/
FoamFile
{
    version     2.0;
    format      ascii;
    class       volScalarField;
    location    "2.2";
    object      k;
}
// * * * * * * * * * * * * * * * * * * * * * * * * * * * * * * * * * * * * * //

dimensions      [0 2 -2 0 0 0 0];


internalField   nonuniform List<scalar> 
33000
(
2.62814e-08
3.17799e-08
3.26359e-08
3.26904e-08
3.26622e-08
3.26335e-08
3.26436e-08
3.26936e-08
3.27717e-08
3.27726e-08
3.27513e-08
3.26818e-08
3.26248e-08
3.25848e-08
3.25766e-08
3.25985e-08
3.26188e-08
3.26821e-08
3.27404e-08
3.27369e-08
3.27471e-08
3.27884e-08
3.28534e-08
3.29798e-08
3.31293e-08
3.31867e-08
3.32764e-08
3.34695e-08
3.3703e-08
3.38586e-08
3.39292e-08
3.40187e-08
3.41488e-08
3.42878e-08
3.43432e-08
3.43211e-08
3.43162e-08
3.4457e-08
3.45944e-08
3.46127e-08
3.45611e-08
3.43947e-08
3.42618e-08
3.42864e-08
3.42502e-08
3.4043e-08
3.38161e-08
3.37122e-08
3.36092e-08
3.34024e-08
3.31599e-08
3.29648e-08
3.28717e-08
3.276e-08
3.26198e-08
3.24574e-08
3.23695e-08
3.23017e-08
3.21468e-08
3.19164e-08
3.16815e-08
3.15736e-08
3.15312e-08
3.13147e-08
3.10557e-08
3.0775e-08
3.0585e-08
3.0461e-08
3.02138e-08
2.99479e-08
2.96859e-08
2.92941e-08
2.87748e-08
2.80964e-08
2.74658e-08
2.64787e-08
2.5235e-08
2.40158e-08
2.34037e-08
2.29873e-08
2.30659e-08
2.3043e-08
2.32019e-08
2.32044e-08
2.32735e-08
2.3162e-08
2.29209e-08
2.28327e-08
2.27611e-08
2.26926e-08
2.25758e-08
2.23965e-08
2.21721e-08
2.19297e-08
2.16966e-08
2.13156e-08
2.09044e-08
2.01357e-08
1.96202e-08
1.85242e-08
1.84911e-08
1.82336e-08
1.83917e-08
1.82456e-08
1.8266e-08
1.83465e-08
1.8309e-08
1.82193e-08
1.81642e-08
1.8142e-08
1.81067e-08
1.8053e-08
1.80109e-08
1.78507e-08
1.77232e-08
1.73342e-08
1.72129e-08
1.6649e-08
1.67442e-08
1.67767e-08
1.68587e-08
1.68095e-08
1.68532e-08
1.69302e-08
1.69709e-08
1.70001e-08
1.70376e-08
1.70631e-08
1.71017e-08
1.71392e-08
1.71619e-08
1.71898e-08
1.72227e-08
1.72524e-08
1.72817e-08
1.73028e-08
1.7339e-08
1.73822e-08
1.74267e-08
1.74648e-08
1.75071e-08
1.75567e-08
1.7599e-08
1.76377e-08
1.76761e-08
1.77141e-08
1.77471e-08
1.77734e-08
1.78018e-08
1.78327e-08
1.78567e-08
1.78805e-08
1.78975e-08
1.79061e-08
1.79168e-08
1.7932e-08
1.79411e-08
1.79444e-08
1.794e-08
1.7938e-08
1.79365e-08
1.79287e-08
1.79164e-08
1.79012e-08
1.7886e-08
1.7868e-08
1.78448e-08
1.7817e-08
1.77893e-08
1.7761e-08
1.77273e-08
1.76895e-08
1.76489e-08
1.76059e-08
1.75598e-08
1.75102e-08
1.74583e-08
1.74023e-08
1.73436e-08
1.72815e-08
1.72148e-08
1.71454e-08
1.70724e-08
1.69999e-08
1.6927e-08
1.68549e-08
1.67837e-08
1.67127e-08
1.66407e-08
1.65689e-08
1.64985e-08
1.6429e-08
1.63588e-08
1.6289e-08
1.622e-08
1.61515e-08
1.60823e-08
1.60134e-08
1.59456e-08
1.58776e-08
1.581e-08
1.5743e-08
1.56756e-08
1.56083e-08
1.5542e-08
1.54762e-08
1.54108e-08
1.53464e-08
1.52821e-08
1.52171e-08
1.5153e-08
1.50893e-08
1.50251e-08
1.49624e-08
1.49007e-08
1.48386e-08
1.4777e-08
1.4716e-08
1.46552e-08
1.45941e-08
1.45342e-08
1.44749e-08
1.44153e-08
1.43564e-08
1.4298e-08
1.42388e-08
1.41802e-08
1.41221e-08
1.40634e-08
1.40058e-08
1.39485e-08
1.38908e-08
1.38338e-08
1.37764e-08
1.37192e-08
1.36623e-08
1.36048e-08
1.35481e-08
1.34913e-08
1.3435e-08
1.3379e-08
1.33224e-08
1.32662e-08
1.32093e-08
1.31528e-08
1.3096e-08
1.30392e-08
1.29827e-08
1.2926e-08
1.28696e-08
1.28126e-08
1.27562e-08
1.26989e-08
1.26422e-08
1.2585e-08
1.25284e-08
1.24714e-08
1.24144e-08
1.23568e-08
1.22995e-08
1.22414e-08
1.21837e-08
1.21252e-08
1.20673e-08
1.20087e-08
1.19505e-08
1.1892e-08
1.18333e-08
1.17747e-08
1.17155e-08
1.16569e-08
1.15979e-08
1.15389e-08
1.14797e-08
1.14201e-08
1.13607e-08
1.13012e-08
1.12414e-08
1.11826e-08
1.11248e-08
1.10681e-08
1.10124e-08
1.09578e-08
1.09041e-08
1.08516e-08
1.07999e-08
1.07492e-08
1.06994e-08
1.06505e-08
1.06025e-08
1.05555e-08
1.05094e-08
1.04641e-08
1.04198e-08
1.03763e-08
1.03338e-08
1.02922e-08
1.02516e-08
1.02118e-08
1.0173e-08
1.01349e-08
1.00977e-08
1.00614e-08
1.00259e-08
9.99122e-09
9.9573e-09
9.92411e-09
9.89162e-09
9.85983e-09
9.82879e-09
9.79842e-09
9.76869e-09
9.73958e-09
9.71112e-09
9.68335e-09
9.65622e-09
9.62969e-09
9.60376e-09
9.57843e-09
9.55375e-09
9.52969e-09
9.50621e-09
9.48329e-09
9.46094e-09
9.4392e-09
9.41802e-09
9.39736e-09
9.3772e-09
9.35757e-09
9.33848e-09
9.31988e-09
9.30171e-09
9.28397e-09
9.26665e-09
9.24975e-09
9.23331e-09
9.21731e-09
9.20168e-09
9.1864e-09
9.17148e-09
9.1569e-09
9.14268e-09
9.12885e-09
9.11536e-09
9.10216e-09
9.08926e-09
9.07664e-09
9.06432e-09
9.05233e-09
9.04064e-09
9.02921e-09
9.01802e-09
9.00706e-09
8.99632e-09
8.98581e-09
8.97551e-09
8.96546e-09
8.95566e-09
8.94608e-09
8.93669e-09
8.9275e-09
8.9185e-09
8.90968e-09
8.90104e-09
8.8926e-09
8.88434e-09
8.87622e-09
8.86826e-09
8.86045e-09
8.8528e-09
8.8453e-09
8.83798e-09
8.83081e-09
8.82378e-09
8.81688e-09
8.8101e-09
8.80345e-09
8.79693e-09
8.79056e-09
8.78432e-09
8.77821e-09
8.77222e-09
8.76635e-09
8.76059e-09
8.75496e-09
8.74945e-09
8.74403e-09
8.7387e-09
8.73347e-09
8.72835e-09
8.72333e-09
8.71844e-09
8.71366e-09
8.70897e-09
8.70436e-09
8.69982e-09
8.69535e-09
8.69096e-09
8.68667e-09
8.6825e-09
8.67843e-09
8.67445e-09
8.67055e-09
8.66672e-09
8.66296e-09
8.6593e-09
8.65572e-09
8.65224e-09
8.64883e-09
8.6455e-09
8.64222e-09
8.63902e-09
8.63589e-09
8.63285e-09
8.62989e-09
8.62701e-09
8.6242e-09
8.62145e-09
8.61878e-09
8.61618e-09
8.61365e-09
8.61117e-09
8.60871e-09
8.60629e-09
8.60392e-09
8.60166e-09
8.59946e-09
8.59732e-09
8.59539e-09
8.59334e-09
8.59216e-09
8.59017e-09
8.58867e-09
8.58711e-09
8.58562e-09
8.58414e-09
8.58264e-09
8.58124e-09
8.57987e-09
8.5786e-09
8.57746e-09
8.57616e-09
8.5749e-09
8.57371e-09
8.57263e-09
8.57162e-09
8.57063e-09
8.56976e-09
8.56918e-09
8.56862e-09
8.56804e-09
8.56747e-09
8.56702e-09
8.56637e-09
8.56584e-09
8.56512e-09
8.56494e-09
8.5645e-09
8.564e-09
8.56415e-09
8.56369e-09
8.56359e-09
8.56286e-09
8.56187e-09
8.5617e-09
8.56107e-09
8.56034e-09
8.56319e-09
8.56154e-09
8.57514e-09
8.57293e-09
8.5753e-09
8.57625e-09
8.57652e-09
8.57647e-09
8.57613e-09
8.57547e-09
8.57456e-09
8.57348e-09
8.57233e-09
8.57119e-09
8.57017e-09
8.56936e-09
8.56867e-09
8.56801e-09
8.56735e-09
8.5667e-09
8.56614e-09
8.56569e-09
8.56533e-09
8.56498e-09
8.56461e-09
8.56419e-09
8.5637e-09
8.56319e-09
8.56267e-09
8.56217e-09
8.56171e-09
8.56131e-09
8.561e-09
8.5608e-09
8.56075e-09
8.56091e-09
8.56125e-09
8.56177e-09
8.56246e-09
8.56329e-09
8.56422e-09
8.56526e-09
8.56635e-09
8.56741e-09
8.56838e-09
8.56917e-09
8.5697e-09
8.56998e-09
8.57007e-09
8.57011e-09
8.57023e-09
8.57058e-09
8.57129e-09
8.57238e-09
8.57375e-09
8.57512e-09
8.57616e-09
8.5766e-09
8.5766e-09
8.57669e-09
8.57745e-09
8.57871e-09
8.57959e-09
8.57935e-09
8.57788e-09
8.57611e-09
8.57525e-09
8.57534e-09
8.57496e-09
8.5735e-09
8.57162e-09
8.57107e-09
8.57211e-09
8.57243e-09
8.57206e-09
8.57276e-09
8.57503e-09
8.57613e-09
8.57556e-09
8.57485e-09
8.57334e-09
8.57565e-09
8.56735e-09
1.04676e-08
1.10387e-08
1.11274e-08
1.10923e-08
1.11095e-08
1.10697e-08
1.10422e-08
1.10063e-08
1.09755e-08
1.09651e-08
1.09673e-08
1.09567e-08
1.09373e-08
1.09009e-08
1.08485e-08
1.08273e-08
1.0835e-08
1.08635e-08
1.09019e-08
1.08765e-08
1.07588e-08
1.06874e-08
1.07166e-08
1.07946e-08
1.07963e-08
1.07148e-08
1.06467e-08
1.06501e-08
1.07372e-08
1.07009e-08
1.05718e-08
1.05374e-08
1.05867e-08
1.06371e-08
1.06088e-08
1.04741e-08
1.0438e-08
1.04973e-08
1.05439e-08
1.05303e-08
1.0498e-08
1.03692e-08
1.03376e-08
1.03932e-08
1.04127e-08
1.03474e-08
1.02976e-08
1.03028e-08
1.03181e-08
1.02834e-08
1.02462e-08
1.02279e-08
1.02309e-08
1.02318e-08
1.02278e-08
1.02208e-08
1.02231e-08
1.02347e-08
1.02341e-08
1.02166e-08
1.0207e-08
1.02071e-08
1.02093e-08
1.01985e-08
1.01814e-08
1.01659e-08
1.01566e-08
1.01504e-08
1.01425e-08
1.01381e-08
1.01392e-08
1.01438e-08
1.01519e-08
1.01619e-08
1.01739e-08
1.01801e-08
1.01736e-08
1.01527e-08
1.01289e-08
1.01206e-08
1.01356e-08
1.01739e-08
1.02241e-08
1.02296e-08
1.02139e-08
1.01375e-08
1.01194e-08
1.01204e-08
1.01283e-08
1.01363e-08
1.01204e-08
1.011e-08
1.01027e-08
1.00957e-08
1.00907e-08
1.00911e-08
1.00905e-08
1.00895e-08
1.00886e-08
1.00876e-08
1.00936e-08
1.0126e-08
1.01539e-08
1.01326e-08
1.01659e-08
1.01539e-08
1.0121e-08
1.00954e-08
1.01018e-08
1.01043e-08
1.00923e-08
1.00892e-08
1.00867e-08
1.00833e-08
1.00846e-08
1.00841e-08
1.00836e-08
1.00818e-08
1.00839e-08
1.0119e-08
1.01564e-08
1.01221e-08
1.01547e-08
1.01485e-08
1.0123e-08
1.01273e-08
1.0122e-08
1.01158e-08
1.01175e-08
1.01115e-08
1.01061e-08
1.0115e-08
1.01146e-08
1.01111e-08
1.01075e-08
1.01071e-08
1.01129e-08
1.01109e-08
1.01095e-08
1.01071e-08
1.0111e-08
1.01087e-08
1.01068e-08
1.01075e-08
1.01071e-08
1.01039e-08
1.01013e-08
1.01007e-08
1.01024e-08
1.00995e-08
1.00982e-08
1.00971e-08
1.00925e-08
1.00904e-08
1.00922e-08
1.00912e-08
1.00883e-08
1.00848e-08
1.00837e-08
1.00846e-08
1.0083e-08
1.008e-08
1.00773e-08
1.00776e-08
1.00772e-08
1.00754e-08
1.00721e-08
1.0071e-08
1.00708e-08
1.00699e-08
1.0067e-08
1.00646e-08
1.00642e-08
1.00637e-08
1.00612e-08
1.00595e-08
1.00583e-08
1.0057e-08
1.00555e-08
1.00541e-08
1.00529e-08
1.00514e-08
1.00501e-08
1.00489e-08
1.00475e-08
1.00458e-08
1.00443e-08
1.00434e-08
1.00423e-08
1.00411e-08
1.00396e-08
1.00387e-08
1.00376e-08
1.00363e-08
1.00351e-08
1.00341e-08
1.00333e-08
1.00323e-08
1.00312e-08
1.00302e-08
1.00294e-08
1.00286e-08
1.00279e-08
1.00271e-08
1.00263e-08
1.00255e-08
1.00248e-08
1.00243e-08
1.00237e-08
1.0023e-08
1.00225e-08
1.00221e-08
1.00218e-08
1.00214e-08
1.00211e-08
1.00208e-08
1.00206e-08
1.00205e-08
1.00203e-08
1.00203e-08
1.00203e-08
1.00202e-08
1.00201e-08
1.00201e-08
1.00201e-08
1.00201e-08
1.00201e-08
1.002e-08
1.002e-08
1.00199e-08
1.00198e-08
1.00197e-08
1.00197e-08
1.00196e-08
1.00195e-08
1.00195e-08
1.00194e-08
1.00192e-08
1.0019e-08
1.00188e-08
1.00187e-08
1.00185e-08
1.00183e-08
1.00181e-08
1.00179e-08
1.00177e-08
1.00175e-08
1.00172e-08
1.0017e-08
1.00167e-08
1.00164e-08
1.00162e-08
1.00159e-08
1.00156e-08
1.00153e-08
1.0015e-08
1.00147e-08
1.00143e-08
1.0014e-08
1.00137e-08
1.00133e-08
1.0013e-08
1.00126e-08
1.00123e-08
1.00119e-08
1.00116e-08
1.00112e-08
1.00108e-08
1.00104e-08
1.00101e-08
1.00097e-08
1.00093e-08
1.00088e-08
1.00084e-08
1.0008e-08
1.00076e-08
1.00072e-08
1.00068e-08
1.00064e-08
1.0006e-08
1.00056e-08
1.00053e-08
1.00049e-08
1.00045e-08
1.00041e-08
1.00038e-08
1.00034e-08
1.00031e-08
1.00027e-08
1.00024e-08
1.0002e-08
1.00017e-08
1.00013e-08
1.0001e-08
1.00006e-08
1.00002e-08
9.99988e-09
9.99952e-09
9.99917e-09
9.99882e-09
9.99848e-09
9.99814e-09
9.99782e-09
9.9975e-09
9.9972e-09
9.9969e-09
9.99661e-09
9.99632e-09
9.99604e-09
9.99576e-09
9.99549e-09
9.99521e-09
9.99494e-09
9.99467e-09
9.99441e-09
9.99414e-09
9.99388e-09
9.99362e-09
9.99337e-09
9.99313e-09
9.99288e-09
9.99263e-09
9.99239e-09
9.99214e-09
9.9919e-09
9.99167e-09
9.99143e-09
9.9912e-09
9.99097e-09
9.99075e-09
9.99054e-09
9.99034e-09
9.99015e-09
9.98996e-09
9.98978e-09
9.9896e-09
9.98943e-09
9.98926e-09
9.98908e-09
9.9889e-09
9.98873e-09
9.98857e-09
9.98841e-09
9.98825e-09
9.98809e-09
9.98795e-09
9.9878e-09
9.98766e-09
9.98753e-09
9.9874e-09
9.98727e-09
9.98715e-09
9.98703e-09
9.9869e-09
9.98678e-09
9.98667e-09
9.98656e-09
9.98646e-09
9.98636e-09
9.98626e-09
9.98616e-09
9.98607e-09
9.98597e-09
9.98587e-09
9.98578e-09
9.98569e-09
9.9856e-09
9.98552e-09
9.98544e-09
9.98537e-09
9.9853e-09
9.98523e-09
9.98517e-09
9.9851e-09
9.98503e-09
9.98496e-09
9.9849e-09
9.98484e-09
9.98478e-09
9.98472e-09
9.98466e-09
9.98461e-09
9.98455e-09
9.98449e-09
9.98443e-09
9.98437e-09
9.98431e-09
9.98426e-09
9.98421e-09
9.98416e-09
9.98412e-09
9.98407e-09
9.98401e-09
9.98396e-09
9.98391e-09
9.98386e-09
9.98382e-09
9.98378e-09
9.98375e-09
9.98371e-09
9.98368e-09
9.98365e-09
9.98361e-09
9.98358e-09
9.98355e-09
9.98352e-09
9.9835e-09
9.98347e-09
9.98344e-09
9.98341e-09
9.98339e-09
9.98336e-09
9.98334e-09
9.98332e-09
9.9833e-09
9.98328e-09
9.98326e-09
9.98325e-09
9.98323e-09
9.98321e-09
9.98319e-09
9.98317e-09
9.98315e-09
9.98313e-09
9.98312e-09
9.98312e-09
9.9831e-09
9.98309e-09
9.9831e-09
9.98309e-09
9.98308e-09
9.98308e-09
9.98307e-09
9.98306e-09
9.98305e-09
9.98304e-09
9.98302e-09
9.98302e-09
9.98301e-09
9.98301e-09
9.983e-09
9.98297e-09
9.98297e-09
9.98296e-09
9.98296e-09
9.98295e-09
9.98296e-09
9.98296e-09
9.98296e-09
9.98296e-09
9.98295e-09
9.98296e-09
9.98294e-09
9.98292e-09
9.98291e-09
9.98292e-09
9.98292e-09
9.98291e-09
9.98292e-09
9.98293e-09
9.98288e-09
9.98291e-09
9.9828e-09
9.98304e-09
9.98305e-09
9.98371e-09
9.98388e-09
9.98328e-09
9.98337e-09
9.9836e-09
9.98345e-09
9.98335e-09
9.98328e-09
9.98323e-09
9.98318e-09
9.98313e-09
9.98308e-09
9.98303e-09
9.98299e-09
9.98296e-09
9.98295e-09
9.98295e-09
9.98295e-09
9.98295e-09
9.98294e-09
9.98292e-09
9.98291e-09
9.98292e-09
9.98293e-09
9.98293e-09
9.98293e-09
9.98292e-09
9.98291e-09
9.9829e-09
9.98289e-09
9.98288e-09
9.98288e-09
9.98289e-09
9.9829e-09
9.98292e-09
9.98295e-09
9.98298e-09
9.98298e-09
9.98299e-09
9.98299e-09
9.98299e-09
9.98299e-09
9.98299e-09
9.98299e-09
9.98299e-09
9.98299e-09
9.98298e-09
9.98297e-09
9.98297e-09
9.98296e-09
9.98295e-09
9.98295e-09
9.98296e-09
9.98296e-09
9.98297e-09
9.98298e-09
9.98299e-09
9.98299e-09
9.98299e-09
9.98298e-09
9.98296e-09
9.98298e-09
9.98299e-09
9.98299e-09
9.983e-09
9.98292e-09
9.98282e-09
9.98286e-09
9.98295e-09
9.98298e-09
9.98293e-09
9.9828e-09
9.98285e-09
9.98297e-09
9.98299e-09
9.98296e-09
9.98296e-09
9.98299e-09
9.983e-09
9.98299e-09
9.9829e-09
9.98295e-09
9.98285e-09
9.98298e-09
9.98277e-09
1.00322e-08
1.00684e-08
1.00755e-08
1.00746e-08
1.00751e-08
1.00715e-08
1.0069e-08
1.00664e-08
1.0064e-08
1.00626e-08
1.0062e-08
1.00603e-08
1.00582e-08
1.00551e-08
1.00513e-08
1.00493e-08
1.00485e-08
1.0049e-08
1.00502e-08
1.00475e-08
1.00407e-08
1.0037e-08
1.00379e-08
1.00406e-08
1.00394e-08
1.00354e-08
1.00322e-08
1.0033e-08
1.00371e-08
1.00359e-08
1.003e-08
1.00271e-08
1.00278e-08
1.00297e-08
1.00297e-08
1.0026e-08
1.00241e-08
1.00248e-08
1.00256e-08
1.00256e-08
1.00247e-08
1.00206e-08
1.00197e-08
1.00206e-08
1.00212e-08
1.00201e-08
1.00189e-08
1.00186e-08
1.00183e-08
1.00174e-08
1.00165e-08
1.0016e-08
1.00159e-08
1.00158e-08
1.00156e-08
1.00155e-08
1.00156e-08
1.00157e-08
1.00157e-08
1.00155e-08
1.00154e-08
1.00158e-08
1.00161e-08
1.00161e-08
1.0016e-08
1.00161e-08
1.00163e-08
1.00165e-08
1.00168e-08
1.0017e-08
1.00172e-08
1.00175e-08
1.00178e-08
1.0018e-08
1.0018e-08
1.0018e-08
1.00179e-08
1.00179e-08
1.00181e-08
1.00188e-08
1.00199e-08
1.00213e-08
1.0023e-08
1.0024e-08
1.00233e-08
1.00216e-08
1.00207e-08
1.00205e-08
1.00191e-08
1.00173e-08
1.00156e-08
1.00162e-08
1.00162e-08
1.00156e-08
1.00161e-08
1.0016e-08
1.00157e-08
1.00158e-08
1.00157e-08
1.00156e-08
1.00156e-08
1.00156e-08
1.00158e-08
1.00161e-08
1.00168e-08
1.00168e-08
1.00159e-08
1.00158e-08
1.0016e-08
1.00158e-08
1.00153e-08
1.00151e-08
1.00147e-08
1.00147e-08
1.00146e-08
1.00145e-08
1.00145e-08
1.00145e-08
1.00145e-08
1.00146e-08
1.00149e-08
1.00154e-08
1.00169e-08
1.00169e-08
1.00156e-08
1.00159e-08
1.00155e-08
1.00151e-08
1.0015e-08
1.00148e-08
1.00145e-08
1.00147e-08
1.00149e-08
1.00148e-08
1.00145e-08
1.00144e-08
1.00144e-08
1.00143e-08
1.00142e-08
1.00141e-08
1.00141e-08
1.0014e-08
1.00138e-08
1.00137e-08
1.00137e-08
1.00135e-08
1.00134e-08
1.00133e-08
1.00133e-08
1.00132e-08
1.00132e-08
1.00131e-08
1.0013e-08
1.00129e-08
1.00129e-08
1.00129e-08
1.00128e-08
1.00127e-08
1.00127e-08
1.00126e-08
1.00126e-08
1.00125e-08
1.00124e-08
1.00123e-08
1.00123e-08
1.00123e-08
1.00122e-08
1.00121e-08
1.0012e-08
1.0012e-08
1.00119e-08
1.00117e-08
1.00117e-08
1.00117e-08
1.00116e-08
1.00115e-08
1.00115e-08
1.00114e-08
1.00114e-08
1.00113e-08
1.00113e-08
1.00112e-08
1.00112e-08
1.00111e-08
1.00111e-08
1.0011e-08
1.0011e-08
1.00109e-08
1.00109e-08
1.00108e-08
1.00107e-08
1.00107e-08
1.00106e-08
1.00106e-08
1.00105e-08
1.00104e-08
1.00104e-08
1.00104e-08
1.00103e-08
1.00102e-08
1.00102e-08
1.00101e-08
1.00101e-08
1.00101e-08
1.001e-08
1.00099e-08
1.00098e-08
1.00098e-08
1.00098e-08
1.00097e-08
1.00096e-08
1.00096e-08
1.00095e-08
1.00095e-08
1.00094e-08
1.00093e-08
1.00093e-08
1.00093e-08
1.00092e-08
1.00093e-08
1.00093e-08
1.00092e-08
1.00092e-08
1.00091e-08
1.00091e-08
1.0009e-08
1.0009e-08
1.00089e-08
1.00089e-08
1.00088e-08
1.00087e-08
1.00087e-08
1.00086e-08
1.00086e-08
1.00085e-08
1.00084e-08
1.00084e-08
1.00083e-08
1.00082e-08
1.00082e-08
1.00081e-08
1.00081e-08
1.0008e-08
1.0008e-08
1.00079e-08
1.00078e-08
1.00078e-08
1.00077e-08
1.00077e-08
1.00076e-08
1.00076e-08
1.00075e-08
1.00075e-08
1.00074e-08
1.00074e-08
1.00073e-08
1.00073e-08
1.00072e-08
1.00072e-08
1.00071e-08
1.00071e-08
1.0007e-08
1.0007e-08
1.00069e-08
1.00069e-08
1.00068e-08
1.00068e-08
1.00067e-08
1.00067e-08
1.00066e-08
1.00066e-08
1.00065e-08
1.00065e-08
1.00064e-08
1.00064e-08
1.00063e-08
1.00063e-08
1.00062e-08
1.00062e-08
1.00062e-08
1.00061e-08
1.00061e-08
1.0006e-08
1.0006e-08
1.00059e-08
1.00059e-08
1.00058e-08
1.00058e-08
1.00057e-08
1.00057e-08
1.00056e-08
1.00056e-08
1.00055e-08
1.00055e-08
1.00054e-08
1.00054e-08
1.00053e-08
1.00052e-08
1.00052e-08
1.00051e-08
1.00051e-08
1.0005e-08
1.0005e-08
1.00049e-08
1.00048e-08
1.00048e-08
1.00047e-08
1.00047e-08
1.00046e-08
1.00046e-08
1.00045e-08
1.00045e-08
1.00044e-08
1.00043e-08
1.00043e-08
1.00042e-08
1.00042e-08
1.00041e-08
1.0004e-08
1.0004e-08
1.00039e-08
1.00039e-08
1.00038e-08
1.00037e-08
1.00037e-08
1.00036e-08
1.00035e-08
1.00035e-08
1.00034e-08
1.00033e-08
1.00033e-08
1.00032e-08
1.00031e-08
1.00031e-08
1.0003e-08
1.00029e-08
1.00029e-08
1.00028e-08
1.00027e-08
1.00026e-08
1.00026e-08
1.00025e-08
1.00024e-08
1.00024e-08
1.00023e-08
1.00022e-08
1.00022e-08
1.00021e-08
1.0002e-08
1.0002e-08
1.00019e-08
1.00018e-08
1.00018e-08
1.00017e-08
1.00017e-08
1.00016e-08
1.00015e-08
1.00015e-08
1.00014e-08
1.00013e-08
1.00013e-08
1.00012e-08
1.00012e-08
1.00011e-08
1.0001e-08
1.0001e-08
1.00009e-08
1.00009e-08
1.00008e-08
1.00008e-08
1.00007e-08
1.00007e-08
1.00006e-08
1.00006e-08
1.00005e-08
1.00005e-08
1.00004e-08
1.00004e-08
1.00003e-08
1.00003e-08
1.00002e-08
1.00001e-08
1.00001e-08
1e-08
1e-08
9.99996e-09
9.99992e-09
9.99987e-09
9.99983e-09
9.99978e-09
9.99973e-09
9.99969e-09
9.99964e-09
9.9996e-09
9.99956e-09
9.99953e-09
9.99949e-09
9.99945e-09
9.99941e-09
9.99936e-09
9.99932e-09
9.99929e-09
9.99926e-09
9.99923e-09
9.9992e-09
9.99916e-09
9.99912e-09
9.99908e-09
9.99905e-09
9.99902e-09
9.99899e-09
9.99896e-09
9.99893e-09
9.99891e-09
9.99888e-09
9.99884e-09
9.99881e-09
9.99878e-09
9.99875e-09
9.99873e-09
9.99871e-09
9.99871e-09
9.99869e-09
9.99866e-09
9.99863e-09
9.99862e-09
9.99859e-09
9.99857e-09
9.99855e-09
9.99849e-09
9.99847e-09
9.99846e-09
9.99844e-09
9.99842e-09
9.99841e-09
9.99839e-09
9.99837e-09
9.99833e-09
9.99832e-09
9.99831e-09
9.99829e-09
9.99826e-09
9.99826e-09
9.99825e-09
9.99824e-09
9.99822e-09
9.9982e-09
9.99818e-09
9.99815e-09
9.99812e-09
9.99811e-09
9.99812e-09
9.99816e-09
9.99816e-09
9.9981e-09
9.99808e-09
9.99804e-09
9.99798e-09
9.9981e-09
9.99803e-09
9.99914e-09
9.99899e-09
1.00002e-08
1.00004e-08
9.99867e-09
9.99867e-09
9.9984e-09
9.99827e-09
9.99801e-09
9.99784e-09
9.99767e-09
9.99768e-09
9.99768e-09
9.99766e-09
9.99768e-09
9.99768e-09
9.99768e-09
9.9977e-09
9.99773e-09
9.99774e-09
9.99776e-09
9.99779e-09
9.99784e-09
9.99787e-09
9.99785e-09
9.99782e-09
9.9978e-09
9.99781e-09
9.99784e-09
9.99788e-09
9.99792e-09
9.99794e-09
9.99794e-09
9.99792e-09
9.99789e-09
9.99787e-09
9.99788e-09
9.9979e-09
9.99792e-09
9.99794e-09
9.99794e-09
9.99792e-09
9.99791e-09
9.99789e-09
9.99788e-09
9.99789e-09
9.99791e-09
9.99794e-09
9.99797e-09
9.99797e-09
9.99797e-09
9.99795e-09
9.99792e-09
9.99791e-09
9.9979e-09
9.99789e-09
9.99788e-09
9.99786e-09
9.99785e-09
9.99786e-09
9.99789e-09
9.99791e-09
9.99796e-09
9.99799e-09
9.99793e-09
9.99786e-09
9.99785e-09
9.99784e-09
9.99791e-09
9.99795e-09
9.99784e-09
9.99789e-09
9.9979e-09
9.99786e-09
9.99805e-09
9.99787e-09
9.99795e-09
9.99793e-09
9.99796e-09
9.99819e-09
9.99789e-09
9.99792e-09
9.99808e-09
9.99835e-09
9.99787e-09
9.99782e-09
9.9979e-09
9.99823e-09
9.99889e-09
9.99871e-09
1.00205e-08
1.00266e-08
1.00264e-08
1.0026e-08
1.00256e-08
1.00252e-08
1.00252e-08
1.0025e-08
1.00246e-08
1.0024e-08
1.00236e-08
1.00234e-08
1.0023e-08
1.00224e-08
1.00216e-08
1.00211e-08
1.00208e-08
1.00205e-08
1.00201e-08
1.00196e-08
1.00191e-08
1.00186e-08
1.00182e-08
1.00179e-08
1.00176e-08
1.00171e-08
1.00168e-08
1.00167e-08
1.00168e-08
1.00168e-08
1.00168e-08
1.00168e-08
1.0017e-08
1.00172e-08
1.00173e-08
1.00175e-08
1.00176e-08
1.00177e-08
1.00177e-08
1.00178e-08
1.00178e-08
1.00176e-08
1.00175e-08
1.00174e-08
1.00172e-08
1.0017e-08
1.00167e-08
1.00163e-08
1.0016e-08
1.00156e-08
1.00153e-08
1.00151e-08
1.00149e-08
1.00147e-08
1.00144e-08
1.0014e-08
1.00136e-08
1.00132e-08
1.00129e-08
1.00126e-08
1.00125e-08
1.00124e-08
1.00124e-08
1.00124e-08
1.00126e-08
1.00128e-08
1.0013e-08
1.00132e-08
1.00134e-08
1.00136e-08
1.00137e-08
1.00139e-08
1.0014e-08
1.0014e-08
1.0014e-08
1.0014e-08
1.00137e-08
1.00137e-08
1.00135e-08
1.00135e-08
1.00146e-08
1.00154e-08
1.00161e-08
1.00171e-08
1.00181e-08
1.00199e-08
1.00215e-08
1.00222e-08
1.00216e-08
1.00198e-08
1.00184e-08
1.00171e-08
1.00164e-08
1.00148e-08
1.00152e-08
1.00154e-08
1.00154e-08
1.00153e-08
1.00153e-08
1.00152e-08
1.00152e-08
1.00152e-08
1.00152e-08
1.00153e-08
1.00153e-08
1.00155e-08
1.00156e-08
1.00157e-08
1.0016e-08
1.00159e-08
1.00155e-08
1.00153e-08
1.0015e-08
1.00149e-08
1.00148e-08
1.00147e-08
1.00146e-08
1.00146e-08
1.00145e-08
1.00146e-08
1.00146e-08
1.00146e-08
1.00146e-08
1.00148e-08
1.0015e-08
1.00156e-08
1.00152e-08
1.00144e-08
1.00143e-08
1.00139e-08
1.00138e-08
1.00136e-08
1.00135e-08
1.00133e-08
1.00131e-08
1.00131e-08
1.00133e-08
1.00133e-08
1.00131e-08
1.00131e-08
1.0013e-08
1.00129e-08
1.00128e-08
1.00128e-08
1.00127e-08
1.00126e-08
1.00126e-08
1.00125e-08
1.00124e-08
1.00124e-08
1.00124e-08
1.00124e-08
1.00123e-08
1.00123e-08
1.00123e-08
1.00122e-08
1.00122e-08
1.00122e-08
1.00121e-08
1.00121e-08
1.0012e-08
1.0012e-08
1.00119e-08
1.00118e-08
1.00118e-08
1.00118e-08
1.00117e-08
1.00116e-08
1.00115e-08
1.00115e-08
1.00115e-08
1.00113e-08
1.00113e-08
1.00112e-08
1.00112e-08
1.00111e-08
1.00111e-08
1.00111e-08
1.0011e-08
1.0011e-08
1.00109e-08
1.00109e-08
1.00108e-08
1.00108e-08
1.00107e-08
1.00107e-08
1.00106e-08
1.00105e-08
1.00105e-08
1.00104e-08
1.00104e-08
1.00103e-08
1.00103e-08
1.00103e-08
1.00102e-08
1.00101e-08
1.00101e-08
1.00101e-08
1.001e-08
1.001e-08
1.00099e-08
1.00098e-08
1.00098e-08
1.00098e-08
1.00097e-08
1.00097e-08
1.00096e-08
1.00096e-08
1.00095e-08
1.00094e-08
1.00094e-08
1.00094e-08
1.00093e-08
1.00093e-08
1.00092e-08
1.00092e-08
1.00091e-08
1.00091e-08
1.0009e-08
1.0009e-08
1.00089e-08
1.00089e-08
1.00088e-08
1.00087e-08
1.00087e-08
1.00086e-08
1.00086e-08
1.00085e-08
1.00085e-08
1.00084e-08
1.00084e-08
1.00083e-08
1.00083e-08
1.00082e-08
1.00082e-08
1.00081e-08
1.0008e-08
1.0008e-08
1.00079e-08
1.00079e-08
1.00078e-08
1.00078e-08
1.00077e-08
1.00077e-08
1.00076e-08
1.00076e-08
1.00075e-08
1.00075e-08
1.00074e-08
1.00074e-08
1.00073e-08
1.00073e-08
1.00072e-08
1.00072e-08
1.00071e-08
1.00071e-08
1.0007e-08
1.0007e-08
1.00069e-08
1.00069e-08
1.00068e-08
1.00068e-08
1.00068e-08
1.00067e-08
1.00067e-08
1.00066e-08
1.00066e-08
1.00065e-08
1.00065e-08
1.00064e-08
1.00064e-08
1.00063e-08
1.00063e-08
1.00062e-08
1.00062e-08
1.00061e-08
1.00061e-08
1.0006e-08
1.0006e-08
1.00059e-08
1.00059e-08
1.00059e-08
1.00058e-08
1.00058e-08
1.00057e-08
1.00057e-08
1.00056e-08
1.00056e-08
1.00055e-08
1.00055e-08
1.00054e-08
1.00054e-08
1.00053e-08
1.00053e-08
1.00052e-08
1.00052e-08
1.00051e-08
1.00051e-08
1.0005e-08
1.0005e-08
1.00049e-08
1.00049e-08
1.00048e-08
1.00048e-08
1.00047e-08
1.00047e-08
1.00046e-08
1.00046e-08
1.00045e-08
1.00045e-08
1.00044e-08
1.00044e-08
1.00043e-08
1.00042e-08
1.00042e-08
1.00041e-08
1.00041e-08
1.0004e-08
1.0004e-08
1.00039e-08
1.00039e-08
1.00038e-08
1.00037e-08
1.00037e-08
1.00036e-08
1.00036e-08
1.00035e-08
1.00034e-08
1.00034e-08
1.00033e-08
1.00032e-08
1.00032e-08
1.00031e-08
1.00031e-08
1.0003e-08
1.00029e-08
1.00029e-08
1.00028e-08
1.00027e-08
1.00027e-08
1.00026e-08
1.00025e-08
1.00025e-08
1.00024e-08
1.00024e-08
1.00023e-08
1.00022e-08
1.00022e-08
1.00021e-08
1.0002e-08
1.0002e-08
1.00019e-08
1.00018e-08
1.00018e-08
1.00017e-08
1.00017e-08
1.00016e-08
1.00016e-08
1.00015e-08
1.00015e-08
1.00014e-08
1.00013e-08
1.00013e-08
1.00012e-08
1.00012e-08
1.00011e-08
1.00011e-08
1.0001e-08
1.0001e-08
1.00009e-08
1.00009e-08
1.00008e-08
1.00008e-08
1.00007e-08
1.00007e-08
1.00006e-08
1.00006e-08
1.00006e-08
1.00005e-08
1.00005e-08
1.00004e-08
1.00003e-08
1.00003e-08
1.00003e-08
1.00002e-08
1.00002e-08
1.00001e-08
1.00001e-08
1e-08
9.99998e-09
9.99993e-09
9.99989e-09
9.99985e-09
9.99981e-09
9.99978e-09
9.99975e-09
9.99971e-09
9.99966e-09
9.99962e-09
9.99958e-09
9.99954e-09
9.99951e-09
9.99948e-09
9.99945e-09
9.99941e-09
9.99937e-09
9.99934e-09
9.9993e-09
9.99927e-09
9.99924e-09
9.99922e-09
9.99919e-09
9.99916e-09
9.99913e-09
9.99909e-09
9.99905e-09
9.99903e-09
9.999e-09
9.99901e-09
9.99899e-09
9.99896e-09
9.99893e-09
9.99892e-09
9.9989e-09
9.99886e-09
9.99883e-09
9.99879e-09
9.99877e-09
9.99876e-09
9.99873e-09
9.9987e-09
9.99868e-09
9.99866e-09
9.99863e-09
9.99862e-09
9.99861e-09
9.99859e-09
9.99856e-09
9.99852e-09
9.99851e-09
9.99853e-09
9.99854e-09
9.99853e-09
9.9985e-09
9.99848e-09
9.99844e-09
9.99841e-09
9.9984e-09
9.99837e-09
9.99837e-09
9.99847e-09
9.99843e-09
9.9984e-09
9.99832e-09
9.99823e-09
9.99833e-09
9.99845e-09
9.99941e-09
9.99935e-09
1.00008e-08
1.00008e-08
9.9992e-09
9.99924e-09
9.99902e-09
9.99904e-09
9.99872e-09
9.99857e-09
9.99842e-09
9.99839e-09
9.99847e-09
9.99835e-09
9.99828e-09
9.99824e-09
9.9982e-09
9.99816e-09
9.99814e-09
9.99813e-09
9.99812e-09
9.99812e-09
9.99813e-09
9.99813e-09
9.99816e-09
9.99818e-09
9.99817e-09
9.99813e-09
9.99811e-09
9.9981e-09
9.99812e-09
9.99816e-09
9.99821e-09
9.99824e-09
9.99825e-09
9.99821e-09
9.99816e-09
9.99812e-09
9.99811e-09
9.99813e-09
9.99815e-09
9.99817e-09
9.99817e-09
9.99815e-09
9.99814e-09
9.99812e-09
9.99811e-09
9.9981e-09
9.9981e-09
9.99812e-09
9.99816e-09
9.99819e-09
9.99821e-09
9.99822e-09
9.99821e-09
9.99819e-09
9.99817e-09
9.99816e-09
9.99815e-09
9.99813e-09
9.9981e-09
9.99808e-09
9.9981e-09
9.99814e-09
9.99818e-09
9.99823e-09
9.99826e-09
9.99817e-09
9.99808e-09
9.99809e-09
9.99812e-09
9.99816e-09
9.99813e-09
9.9981e-09
9.99813e-09
9.99809e-09
9.99817e-09
9.99812e-09
9.99818e-09
9.99826e-09
9.99812e-09
9.99841e-09
9.99817e-09
9.99824e-09
9.99847e-09
9.99864e-09
9.99821e-09
9.99811e-09
9.99812e-09
9.99812e-09
9.99847e-09
9.99972e-09
9.99912e-09
1.00198e-08
1.00243e-08
1.00237e-08
1.00233e-08
1.00231e-08
1.00231e-08
1.0023e-08
1.00228e-08
1.00226e-08
1.00223e-08
1.0022e-08
1.00218e-08
1.00216e-08
1.00214e-08
1.00211e-08
1.0021e-08
1.00209e-08
1.00209e-08
1.00208e-08
1.00206e-08
1.00205e-08
1.00205e-08
1.00206e-08
1.00206e-08
1.00205e-08
1.00203e-08
1.00199e-08
1.00194e-08
1.00192e-08
1.00191e-08
1.0019e-08
1.0019e-08
1.00192e-08
1.00196e-08
1.00199e-08
1.00202e-08
1.00204e-08
1.00205e-08
1.00206e-08
1.00204e-08
1.00202e-08
1.00199e-08
1.00197e-08
1.00194e-08
1.0019e-08
1.00187e-08
1.00184e-08
1.00182e-08
1.0018e-08
1.00179e-08
1.00178e-08
1.00178e-08
1.00178e-08
1.00177e-08
1.00176e-08
1.00173e-08
1.00169e-08
1.00164e-08
1.0016e-08
1.00155e-08
1.00151e-08
1.00148e-08
1.00145e-08
1.00144e-08
1.00143e-08
1.00144e-08
1.00144e-08
1.00144e-08
1.00144e-08
1.00145e-08
1.00146e-08
1.00147e-08
1.00147e-08
1.00147e-08
1.00147e-08
1.00145e-08
1.00145e-08
1.00142e-08
1.00137e-08
1.00135e-08
1.00135e-08
1.00137e-08
1.00141e-08
1.00145e-08
1.00152e-08
1.00161e-08
1.00171e-08
1.00182e-08
1.00194e-08
1.00212e-08
1.00223e-08
1.00215e-08
1.00195e-08
1.00181e-08
1.00165e-08
1.00157e-08
1.00149e-08
1.00149e-08
1.00148e-08
1.00148e-08
1.00146e-08
1.00147e-08
1.00146e-08
1.00145e-08
1.00146e-08
1.00147e-08
1.00149e-08
1.00151e-08
1.0015e-08
1.00152e-08
1.00154e-08
1.00158e-08
1.00155e-08
1.0015e-08
1.00149e-08
1.00147e-08
1.00146e-08
1.00145e-08
1.00144e-08
1.00142e-08
1.0014e-08
1.00141e-08
1.00141e-08
1.00141e-08
1.00142e-08
1.00142e-08
1.00145e-08
1.00148e-08
1.00154e-08
1.0015e-08
1.00142e-08
1.0014e-08
1.00137e-08
1.00136e-08
1.00133e-08
1.00131e-08
1.0013e-08
1.0013e-08
1.0013e-08
1.00131e-08
1.00131e-08
1.0013e-08
1.00129e-08
1.00128e-08
1.00128e-08
1.00127e-08
1.00126e-08
1.00126e-08
1.00125e-08
1.00124e-08
1.00124e-08
1.00124e-08
1.00123e-08
1.00123e-08
1.00123e-08
1.00122e-08
1.00122e-08
1.00122e-08
1.00121e-08
1.00121e-08
1.0012e-08
1.0012e-08
1.00119e-08
1.00119e-08
1.00118e-08
1.00118e-08
1.00117e-08
1.00116e-08
1.00116e-08
1.00115e-08
1.00115e-08
1.00114e-08
1.00113e-08
1.00113e-08
1.00113e-08
1.00112e-08
1.00112e-08
1.00111e-08
1.00111e-08
1.0011e-08
1.00109e-08
1.00109e-08
1.00108e-08
1.00108e-08
1.00107e-08
1.00106e-08
1.00106e-08
1.00105e-08
1.00105e-08
1.00105e-08
1.00104e-08
1.00104e-08
1.00103e-08
1.00103e-08
1.00102e-08
1.00102e-08
1.00101e-08
1.00101e-08
1.001e-08
1.001e-08
1.00099e-08
1.00099e-08
1.00098e-08
1.00098e-08
1.00097e-08
1.00097e-08
1.00096e-08
1.00096e-08
1.00095e-08
1.00094e-08
1.00094e-08
1.00093e-08
1.00093e-08
1.00092e-08
1.00091e-08
1.00091e-08
1.0009e-08
1.0009e-08
1.00089e-08
1.00089e-08
1.00088e-08
1.00088e-08
1.00087e-08
1.00086e-08
1.00086e-08
1.00085e-08
1.00085e-08
1.00084e-08
1.00084e-08
1.00083e-08
1.00083e-08
1.00082e-08
1.00082e-08
1.00081e-08
1.00081e-08
1.0008e-08
1.0008e-08
1.00079e-08
1.00079e-08
1.00078e-08
1.00078e-08
1.00077e-08
1.00077e-08
1.00076e-08
1.00076e-08
1.00075e-08
1.00075e-08
1.00074e-08
1.00074e-08
1.00073e-08
1.00073e-08
1.00072e-08
1.00072e-08