/*--------------------------------*- C++ -*----------------------------------*\
| =========                 |                                                 |
| \\      /  F ield         | OpenFOAM: The Open Source CFD Toolbox           |
|  \\    /   O peration     | Version:  v2006                                 |
|   \\  /    A nd           | Website:  www.openfoam.com                      |
|    \\/     M anipulation  |                                                 |
\*---------------------------------------------------------------------------*/
FoamFile
{
    version     2.0;
    format      ascii;
    class       volScalarField;
    location    "2.2";
    object      omega;
}
// * * * * * * * * * * * * * * * * * * * * * * * * * * * * * * * * * * * * * //

dimensions      [0 0 -1 0 0 0 0];


internalField   nonuniform List<scalar> 
33000
(
0.803402
0.803955
0.804008
0.804003
0.803999
0.803997
0.803998
0.804003
0.804012
0.804013
0.80401
0.804002
0.803995
0.80399
0.803987
0.80399
0.803994
0.804004
0.804012
0.804011
0.80401
0.804014
0.804026
0.804054
0.804085
0.804099
0.804113
0.804132
0.804152
0.80416
0.80416
0.804165
0.804181
0.804201
0.804209
0.804202
0.804201
0.804218
0.804236
0.804241
0.804233
0.804211
0.804194
0.804199
0.804195
0.804168
0.80414
0.804127
0.804115
0.80409
0.80406
0.804036
0.804024
0.804011
0.803994
0.803974
0.803964
0.803956
0.803937
0.803909
0.803881
0.803867
0.803862
0.803836
0.803805
0.803771
0.803748
0.803733
0.803703
0.80367
0.803639
0.803593
0.80353
0.803448
0.803371
0.803252
0.803102
0.802953
0.802876
0.80282
0.802828
0.802823
0.802843
0.802844
0.802853
0.802839
0.802809
0.802798
0.80279
0.802783
0.802767
0.802745
0.802719
0.802691
0.802663
0.802618
0.802569
0.802477
0.802416
0.802284
0.802281
0.80225
0.80227
0.802253
0.802256
0.802266
0.802262
0.802252
0.802246
0.802243
0.802239
0.802233
0.802229
0.80221
0.802194
0.802148
0.802132
0.802062
0.802074
0.802076
0.802087
0.802081
0.802086
0.802096
0.802101
0.802105
0.802109
0.802113
0.802118
0.802122
0.802125
0.802129
0.802133
0.802137
0.802141
0.802144
0.802149
0.802154
0.80216
0.802165
0.80217
0.802175
0.80218
0.802184
0.802189
0.802193
0.802196
0.802199
0.802202
0.802205
0.802208
0.80221
0.802211
0.802212
0.802212
0.802214
0.802214
0.802214
0.802213
0.802212
0.802211
0.80221
0.802207
0.802205
0.802202
0.8022
0.802196
0.802192
0.802188
0.802184
0.802179
0.802174
0.802168
0.802163
0.802156
0.80215
0.802143
0.802135
0.802128
0.802119
0.802111
0.802102
0.802093
0.802084
0.802075
0.802066
0.802057
0.802049
0.80204
0.802031
0.802022
0.802014
0.802005
0.801997
0.801988
0.80198
0.801971
0.801963
0.801955
0.801946
0.801938
0.80193
0.801922
0.801913
0.801905
0.801897
0.801889
0.801881
0.801873
0.801865
0.801858
0.80185
0.801842
0.801834
0.801827
0.801819
0.801812
0.801804
0.801797
0.801789
0.801782
0.801775
0.801767
0.80176
0.801753
0.801746
0.801738
0.801731
0.801724
0.801717
0.80171
0.801703
0.801696
0.801689
0.801682
0.801675
0.801668
0.801661
0.801654
0.801647
0.80164
0.801633
0.801626
0.801619
0.801613
0.801606
0.801599
0.801592
0.801585
0.801578
0.801571
0.801564
0.801557
0.80155
0.801543
0.801536
0.801529
0.801522
0.801515
0.801508
0.801501
0.801494
0.801487
0.80148
0.801472
0.801465
0.801458
0.801451
0.801444
0.801436
0.801429
0.801422
0.801415
0.801407
0.8014
0.801393
0.801386
0.801378
0.801371
0.801365
0.801358
0.801351
0.801345
0.801338
0.801332
0.801326
0.80132
0.801314
0.801308
0.801302
0.801297
0.801291
0.801286
0.801281
0.801275
0.80127
0.801265
0.801261
0.801256
0.801251
0.801247
0.801242
0.801238
0.801234
0.80123
0.801226
0.801222
0.801218
0.801214
0.80121
0.801207
0.801203
0.8012
0.801196
0.801193
0.80119
0.801187
0.801184
0.801181
0.801178
0.801175
0.801172
0.801169
0.801167
0.801164
0.801162
0.801159
0.801157
0.801155
0.801152
0.80115
0.801148
0.801146
0.801144
0.801142
0.80114
0.801138
0.801136
0.801134
0.801133
0.801131
0.801129
0.801128
0.801126
0.801124
0.801123
0.801121
0.80112
0.801119
0.801117
0.801116
0.801115
0.801113
0.801112
0.801111
0.80111
0.801108
0.801107
0.801106
0.801105
0.801104
0.801103
0.801102
0.801101
0.8011
0.801099
0.801098
0.801097
0.801096
0.801095
0.801094
0.801093
0.801093
0.801092
0.801091
0.80109
0.801089
0.801089
0.801088
0.801087
0.801087
0.801086
0.801085
0.801084
0.801084
0.801083
0.801083
0.801082
0.801081
0.801081
0.80108
0.80108
0.801079
0.801078
0.801078
0.801077
0.801077
0.801076
0.801076
0.801075
0.801075
0.801074
0.801074
0.801074
0.801073
0.801073
0.801072
0.801072
0.801071
0.801071
0.801071
0.80107
0.80107
0.80107
0.801069
0.801069
0.801069
0.801068
0.801068
0.801068
0.801067
0.801067
0.801067
0.801067
0.801066
0.801066
0.801066
0.801066
0.801065
0.801065
0.801065
0.801065
0.801065
0.801064
0.801064
0.801064
0.801064
0.801064
0.801064
0.801063
0.801063
0.801063
0.801063
0.801063
0.801063
0.801063
0.801062
0.801062
0.801062
0.801062
0.801062
0.801062
0.801062
0.801062
0.801062
0.801062
0.801062
0.801062
0.801062
0.801062
0.801062
0.801062
0.801062
0.801062
0.801062
0.801061
0.801061
0.801062
0.801062
0.801063
0.801063
0.801063
0.801063
0.801063
0.801063
0.801063
0.801063
0.801063
0.801063
0.801063
0.801063
0.801063
0.801062
0.801062
0.801062
0.801062
0.801062
0.801062
0.801062
0.801062
0.801062
0.801062
0.801062
0.801062
0.801062
0.801062
0.801062
0.801062
0.801061
0.801061
0.801061
0.801061
0.801061
0.801061
0.801062
0.801062
0.801062
0.801062
0.801062
0.801062
0.801062
0.801062
0.801062
0.801063
0.801063
0.801063
0.801063
0.801063
0.801063
0.801063
0.801063
0.801063
0.801063
0.801063
0.801063
0.801063
0.801063
0.801063
0.801064
0.801064
0.801064
0.801063
0.801063
0.801063
0.801063
0.801063
0.801063
0.801063
0.801063
0.801063
0.801063
0.801063
0.801063
0.801063
0.801063
0.801063
0.801063
0.801063
0.801063
0.801062
0.0320556
0.0556765
0.0543575
0.0497909
0.0498897
0.0483436
0.0472042
0.0457759
0.0445164
0.0441102
0.0442548
0.0439435
0.0432577
0.0418873
0.039892
0.0390747
0.0393444
0.0404167
0.0418539
0.0408808
0.0364681
0.0337317
0.0347507
0.0375409
0.0375541
0.0345865
0.0321025
0.0322299
0.03528
0.0339334
0.0292026
0.0278361
0.0295859
0.031329
0.0302288
0.0254158
0.0240572
0.0261631
0.0278406
0.0273144
0.0259428
0.0212727
0.0201234
0.0220136
0.0226407
0.0201536
0.0182152
0.0183908
0.0188875
0.0174965
0.0159337
0.0151811
0.0152897
0.0153322
0.0152284
0.015065
0.0152528
0.0157296
0.0156071
0.0148182
0.0143217
0.0143042
0.0144256
0.013694
0.0128326
0.0120015
0.0115052
0.0111834
0.0107277
0.0104399
0.010507
0.0108479
0.0114964
0.0123656
0.0135441
0.0144395
0.0143203
0.0131488
0.0118587
0.0116138
0.0133099
0.0163855
0.0190843
0.0189478
0.0171448
0.0109696
0.00988531
0.0114104
0.0118527
0.0120798
0.0114856
0.0105608
0.00933836
0.00884737
0.00820929
0.00791128
0.00787637
0.00787586
0.00782868
0.00787069
0.00845955
0.0112407
0.0134244
0.0114298
0.0141372
0.0135158
0.0106843
0.0102486
0.0108647
0.0110985
0.0104504
0.0101423
0.00895229
0.00792204
0.0078172
0.00784984
0.00783069
0.0077423
0.00800313
0.0113062
0.0147603
0.0126709
0.016716
0.0159416
0.0129867
0.0134273
0.0130983
0.013461
0.0139126
0.0132361
0.0125074
0.0132043
0.01321
0.0130716
0.0127297
0.0125997
0.0132037
0.013102
0.0129607
0.0126502
0.013055
0.0129893
0.0128624
0.0128255
0.0128805
0.0127187
0.012501
0.0123873
0.0126089
0.0124809
0.0124102
0.0123161
0.0119535
0.0118066
0.0120403
0.0119981
0.0118124
0.0115444
0.0114852
0.011612
0.0115156
0.0113088
0.0111403
0.0112354
0.0111985
0.0110916
0.0108854
0.0108724
0.0108697
0.0108188
0.0106578
0.0105012
0.0104907
0.0104763
0.0103432
0.0102412
0.010146
0.010092
0.0100141
0.00993534
0.00985758
0.00975934
0.00968402
0.00962421
0.00953894
0.00944263
0.00934613
0.00931777
0.00925332
0.00917619
0.00906805
0.00902985
0.00897162
0.00889878
0.00883585
0.0087683
0.0087227
0.00866526
0.00860513
0.0085384
0.00850308
0.00845774
0.00841492
0.00836463
0.00831929
0.00827116
0.00823189
0.00822376
0.00817559
0.00814097
0.00810503
0.00809117
0.00806294
0.00803743
0.00801099
0.00798778
0.00797652
0.00796214
0.00795156
0.00794255
0.00792956
0.00792227
0.0079161
0.00791016
0.00790669
0.00790286
0.00789989
0.0078975
0.00789534
0.00789353
0.00789219
0.00789153
0.00789107
0.00789039
0.0078896
0.00788939
0.00788967
0.0078903
0.00789072
0.00789104
0.00789127
0.00789181
0.00789239
0.00789297
0.00789412
0.0078954
0.00789636
0.00789704
0.00789797
0.00789933
0.00790058
0.00790117
0.0079014
0.00790188
0.00790276
0.00790374
0.00790419
0.00790393
0.00790352
0.00790385
0.00790495
0.00790609
0.00790735
0.00790881
0.00791032
0.00791146
0.00791245
0.00791351
0.00791464
0.00791529
0.00791575
0.00791656
0.00791787
0.0079192
0.00792081
0.00792269
0.0079247
0.00792677
0.00792916
0.00793189
0.00793447
0.00793688
0.00793873
0.00793978
0.00794046
0.00794112
0.00794177
0.00794203
0.0079421
0.00794243
0.00794328
0.00794471
0.00794638
0.00794893
0.00795241
0.00795662
0.00796085
0.00796489
0.0079689
0.00797292
0.00797656
0.00797999
0.00798314
0.00798585
0.00798809
0.00798981
0.00799155
0.00799349
0.00799557
0.00799794
0.00800078
0.00800396
0.00800737
0.00801107
0.00801482
0.00801834
0.00802173
0.00802482
0.00802753
0.00803021
0.00803287
0.00803546
0.00803823
0.00804093
0.00804387
0.00804751
0.00805185
0.00805694
0.00806188
0.0080662
0.00806985
0.008073
0.00807597
0.00807818
0.00807946
0.00808033
0.00808195
0.00808479
0.00808821
0.00809167
0.00809528
0.00809949
0.00810409
0.00810827
0.00811158
0.00811412
0.00811637
0.00811811
0.00811947
0.00812075
0.00812257
0.00812479
0.00812745
0.00813067
0.00813423
0.0081376
0.00813997
0.00814157
0.0081426
0.00814331
0.00814366
0.00814398
0.00814494
0.00814679
0.00814939
0.00815198
0.00815438
0.00815623
0.00815738
0.00815767
0.00815708
0.00815628
0.00815583
0.00815592
0.00815654
0.0081572
0.00815776
0.00815836
0.00815878
0.00815834
0.00815697
0.00815533
0.00815416
0.00815407
0.00815492
0.00815644
0.0081578
0.00815831
0.0081579
0.00815676
0.00815538
0.00815436
0.00815429
0.0081553
0.00815703
0.00815899
0.00816048
0.00816075
0.0081595
0.00815731
0.00815542
0.00815471
0.00815494
0.00815528
0.0081556
0.00815568
0.00815475
0.00815313
0.00815207
0.00815213
0.00815297
0.0081537
0.0081534
0.0081521
0.0081508
0.00814979
0.00814895
0.00814882
0.00814891
0.00814837
0.00814758
0.00814897
0.00815026
0.00815257
0.00815279
0.00814806
0.00814734
0.00814456
0.00814031
0.00813586
0.00813393
0.0081349
0.00813179
0.00813179
0.00813225
0.00813501
0.0081363
0.00813494
0.00813504
0.0081311
0.0081336
0.00814028
0.00813962
0.00813847
0.00813423
0.00813585
0.00813426
0.00812873
0.00812612
0.00812409
0.00812761
0.0081248
0.00812948
0.00813114
0.00813551
0.00813039
0.00812508
0.0081329
0.00812414
0.00812315
0.00813738
0.0081365
0.00817399
0.00815492
0.00814547
0.00815114
0.00812414
0.00813301
0.00813658
0.0081497
0.00816155
0.00815699
0.00816432
0.00816736
0.00816928
0.00817828
0.00818929
0.00819672
0.00820071
0.0082036
0.00820064
0.00818994
0.00817853
0.00817341
0.00817422
0.00817455
0.00816988
0.00816174
0.00815426
0.00815011
0.00815003
0.00815371
0.00815964
0.00816581
0.00817048
0.00817258
0.00817199
0.00816855
0.00816167
0.00815158
0.00813821
0.00812503
0.00812244
0.00812224
0.00812208
0.00812196
0.00812189
0.00812185
0.00812185
0.0081219
0.008122
0.00812217
0.0081224
0.00812269
0.00812446
0.00812773
0.00812718
0.00812386
0.0081227
0.00812245
0.00812222
0.00812209
0.00812218
0.00812252
0.00812461
0.00813154
0.00812354
0.00812248
0.00812249
0.00812371
0.00816803
0.00821078
0.00819063
0.00813492
0.00812772
0.00817074
0.00821978
0.00818947
0.00812419
0.0081231
0.00813208
0.00813483
0.00812248
0.00812254
0.00812539
0.0081699
0.00814895
0.00820419
0.00820557
0.00829696
0.00393261
0.00546156
0.00489535
0.00431026
0.00419733
0.00401238
0.00387968
0.00375308
0.00362562
0.00356331
0.00355744
0.00350958
0.00342875
0.00330247
0.00315145
0.00308212
0.00305987
0.00309759
0.0031665
0.00306652
0.00277445
0.00260305
0.00264043
0.00276183
0.00271822
0.00255081
0.00239913
0.0024204
0.00259331
0.00253138
0.00223875
0.00206239
0.00207595
0.00216169
0.00216189
0.00198266
0.00186486
0.00188584
0.00193217
0.00193441
0.00189246
0.00167575
0.00160517
0.00164618
0.00167456
0.00160895
0.00153456
0.00152289
0.00151848
0.0014723
0.00142089
0.00139438
0.00139263
0.0013888
0.00138203
0.00137237
0.00136827
0.00138051
0.00138698
0.00136217
0.00133347
0.00133349
0.00134343
0.00132844
0.00129961
0.00126399
0.00125875
0.00126813
0.00126771
0.00126108
0.00125806
0.00126362
0.00127879
0.00129659
0.0013197
0.00132992
0.00135016
0.00139214
0.00145207
0.00154739
0.00172088
0.00196286
0.00223172
0.00242592
0.00227178
0.0018728
0.00163554
0.00156278
0.00139076
0.0012485
0.00115708
0.00113528
0.00110471
0.00110445
0.00109576
0.00108925
0.00108109
0.00108303
0.00109012
0.00109002
0.00110715
0.00111189
0.00114452
0.00118439
0.00128407
0.00127543
0.00118612
0.00117186
0.00118765
0.00117532
0.00113408
0.00111687
0.00109576
0.00107441
0.00106901
0.0010752
0.00108367
0.00107886
0.00108553
0.00108263
0.00109656
0.00114532
0.00129411
0.00130149
0.00119033
0.00124263
0.00122029
0.00119336
0.00121031
0.00119462
0.00117207
0.0011873
0.00118441
0.00117924
0.00117484
0.00117548
0.00118727
0.00118199
0.0011802
0.00117542
0.00118316
0.00117852
0.0011755
0.00117767
0.0011766
0.00117066
0.00116639
0.00116556
0.00116846
0.00116335
0.00116093
0.00115905
0.00115149
0.0011483
0.00115101
0.00114926
0.00114439
0.00113897
0.00113749
0.00113886
0.00113653
0.00113211
0.00112788
0.00112859
0.00112817
0.00112546
0.00112053
0.00111923
0.00111924
0.00111824
0.00111373
0.00111043
0.00111001
0.00110965
0.00110562
0.0011035
0.00110205
0.00110021
0.00109801
0.00109616
0.00109468
0.00109267
0.00109099
0.00108951
0.00108764
0.00108546
0.00108348
0.00108245
0.00108112
0.00107961
0.00107783
0.00107676
0.00107539
0.0010738
0.00107245
0.00107121
0.00107049
0.00106926
0.00106801
0.00106682
0.00106594
0.00106514
0.00106447
0.00106352
0.00106274
0.00106196
0.0010614
0.00106117
0.00106032
0.00105981
0.00105935
0.00105913
0.00105878
0.00105854
0.00105836
0.0010582
0.00105822
0.0010582
0.00105822
0.00105833
0.00105843
0.00105855
0.00105878
0.00105897
0.00105916
0.00105931
0.00105947
0.00105965
0.0010598
0.00105995
0.0010601
0.00106026
0.00106045
0.00106065
0.00106085
0.00106102
0.00106119
0.00106134
0.00106146
0.00106161
0.00106177
0.00106185
0.00106189
0.00106197
0.00106208
0.0010622
0.00106231
0.00106239
0.00106249
0.0010626
0.0010627
0.00106279
0.00106289
0.00106298
0.00106304
0.00106298
0.0010629
0.00106285
0.00106285
0.00106292
0.00106301
0.0010631
0.00106317
0.00106325
0.00106332
0.00106337
0.00106341
0.00106344
0.00106346
0.00106346
0.00106343
0.00106341
0.00106342
0.00106344
0.00106348
0.00106352
0.00106356
0.00106362
0.00106371
0.0010638
0.00106389
0.00106398
0.00106404
0.00106409
0.00106411
0.00106413
0.00106415
0.00106418
0.00106421
0.00106424
0.00106427
0.00106432
0.0010644
0.0010645
0.00106461
0.00106471
0.0010648
0.00106489
0.00106497
0.00106506
0.00106511
0.00106513
0.00106514
0.00106516
0.00106518
0.00106519
0.00106519
0.00106521
0.00106523
0.00106526
0.0010653
0.00106533
0.00106536
0.0010654
0.00106545
0.0010655
0.00106556
0.00106562
0.00106567
0.00106573
0.0010658
0.00106589
0.00106598
0.00106608
0.0010662
0.00106632
0.00106641
0.00106652
0.00106665
0.00106678
0.00106689
0.00106699
0.0010671
0.00106724
0.00106737
0.0010675
0.00106763
0.00106776
0.0010679
0.00106806
0.00106821
0.00106836
0.0010685
0.00106866
0.00106881
0.00106898
0.00106915
0.00106931
0.00106948
0.00106965
0.0010698
0.00106995
0.0010701
0.00107025
0.00107041
0.00107056
0.0010707
0.00107084
0.00107099
0.00107117
0.00107133
0.0010715
0.00107167
0.00107182
0.00107198
0.00107213
0.00107228
0.00107241
0.00107254
0.00107268
0.00107282
0.00107294
0.00107306
0.00107318
0.00107332
0.00107344
0.00107353
0.00107362
0.00107373
0.00107387
0.00107401
0.00107415
0.00107428
0.00107442
0.00107453
0.00107464
0.00107475
0.00107486
0.00107498
0.00107512
0.00107527
0.00107543
0.0010756
0.00107574
0.00107586
0.00107598
0.0010761
0.00107625
0.00107642
0.00107659
0.00107674
0.00107687
0.00107698
0.00107706
0.00107715
0.0010773
0.00107746
0.00107765
0.00107782
0.00107793
0.00107802
0.00107813
0.00107825
0.00107835
0.0010785
0.00107869
0.00107886
0.00107911
0.00107924
0.00107916
0.00107924
0.00107918
0.00107931
0.00107936
0.00107956
0.00107971
0.00107978
0.00107993
0.00108005
0.00108041
0.00108055
0.00108059
0.00108063
0.00108073
0.00108078
0.00108098
0.00108116
0.0010814
0.00108155
0.00108151
0.00108167
0.00108205
0.00108207
0.00108207
0.0010821
0.00108228
0.00108238
0.0010825
0.00108269
0.00108296
0.00108308
0.00108295
0.00108277
0.00108274
0.00108337
0.00108354
0.00108359
0.00108418
0.00108439
0.00108452
0.00107695
0.00107883
0.00106916
0.00106739
0.00107991
0.00107969
0.00108168
0.00108269
0.0010839
0.00108429
0.00108441
0.00108438
0.00108452
0.00108461
0.00108473
0.00108494
0.00108511
0.00108519
0.00108527
0.00108536
0.00108535
0.00108524
0.00108513
0.00108511
0.00108512
0.0010851
0.001085
0.00108485
0.00108474
0.00108468
0.00108471
0.0010848
0.00108492
0.00108503
0.0010851
0.00108511
0.00108507
0.00108498
0.00108484
0.00108466
0.00108444
0.00108424
0.00108421
0.00108421
0.00108421
0.0010842
0.0010842
0.0010842
0.00108421
0.00108421
0.00108421
0.00108421
0.00108421
0.00108422
0.00108424
0.00108427
0.00108426
0.00108423
0.00108422
0.00108421
0.00108421
0.00108421
0.00108421
0.00108422
0.00108423
0.0010843
0.00108422
0.00108421
0.00108422
0.00108435
0.00108513
0.00108555
0.00108506
0.00108439
0.0010845
0.00108531
0.00108574
0.00108497
0.00108425
0.0010843
0.00108453
0.00108431
0.00108423
0.00108425
0.00108447
0.00108498
0.00108481
0.00108456
0.00107647
0.00108283
0.00261824
0.00252261
0.00192899
0.00161793
0.00155036
0.00153002
0.00151382
0.00150068
0.00148784
0.00147915
0.001474
0.00146685
0.00145773
0.00144676
0.00143482
0.00142579
0.00141847
0.00141343
0.00141097
0.0014048
0.0013911
0.00137728
0.00136915
0.00136677
0.00136278
0.00135593
0.00134658
0.00133882
0.00133842
0.00133689
0.00132629
0.00131017
0.00129561
0.00129096
0.00129372
0.00129033
0.00127963
0.00126998
0.00126514
0.00126496
0.00126695
0.00125657
0.00124092
0.00123577
0.00123905
0.00123836
0.00123076
0.00122485
0.00122161
0.00121953
0.00121861
0.00121604
0.00121252
0.00121124
0.00121133
0.00120612
0.00120359
0.00121133
0.00121625
0.00120522
0.00119264
0.00119467
0.00119962
0.00120033
0.00119283
0.00118261
0.00118331
0.00119096
0.00120045
0.00120556
0.00119597
0.00118554
0.00118686
0.00119144
0.00119344
0.00118027
0.00117038
0.00116407
0.00116279
0.00120103
0.00126042
0.00136173
0.00146819
0.00159103
0.0017412
0.0019967
0.00228164
0.00237917
0.00216274
0.00170843
0.00145691
0.00125222
0.00115639
0.00108935
0.00106735
0.00104935
0.00105127
0.00105185
0.00105613
0.00104899
0.00105261
0.00106166
0.00106592
0.00108249
0.00107585
0.00109092
0.00112559
0.00116426
0.00120215
0.00116769
0.00109271
0.00109047
0.00106827
0.00105852
0.0010524
0.00104968
0.00103765
0.00103863
0.0010426
0.00105852
0.00105381
0.00105705
0.00105329
0.00106596
0.00108291
0.00114023
0.00111816
0.0010545
0.00105387
0.00104542
0.0010449
0.00104816
0.00104499
0.00103523
0.00103533
0.00103475
0.00103384
0.00103564
0.0010379
0.00103769
0.00103567
0.00103501
0.00103449
0.00103486
0.00103457
0.0010344
0.00103417
0.00103329
0.00103235
0.00103254
0.00103227
0.00103166
0.00103184
0.00103173
0.00103075
0.00102998
0.00102975
0.00102976
0.00102951
0.00102871
0.00102822
0.00102842
0.00102821
0.00102755
0.00102698
0.00102662
0.00102668
0.00102626
0.00102564
0.00102526
0.00102523
0.00102489
0.00102424
0.001024
0.00102393
0.00102346
0.00102302
0.00102276
0.00102256
0.00102219
0.00102188
0.00102162
0.00102127
0.00102094
0.00102068
0.00102037
0.00102012
0.00101978
0.00101949
0.00101925
0.00101898
0.00101866
0.00101843
0.00101824
0.00101795
0.00101759
0.00101739
0.00101727
0.00101708
0.00101686
0.00101657
0.00101636
0.00101621
0.00101611
0.00101597
0.00101581
0.00101565
0.00101559
0.00101548
0.00101529
0.0010152
0.00101514
0.00101512
0.00101509
0.00101509
0.00101506
0.00101507
0.00101513
0.00101516
0.00101524
0.00101527
0.00101524
0.00101532
0.00101541
0.00101551
0.00101551
0.00101548
0.00101548
0.00101548
0.00101549
0.0010155
0.00101554
0.00101558
0.00101559
0.00101558
0.00101557
0.00101556
0.00101553
0.00101553
0.00101554
0.00101547
0.00101536
0.00101528
0.00101521
0.00101514
0.00101508
0.00101503
0.00101497
0.00101488
0.00101479
0.00101469
0.00101459
0.00101447
0.00101435
0.00101423
0.00101408
0.00101393
0.00101378
0.00101365
0.00101351
0.00101337
0.00101323
0.00101309
0.00101295
0.0010128
0.00101265
0.00101248
0.00101232
0.00101215
0.00101198
0.00101182
0.00101167
0.00101151
0.00101136
0.00101119
0.00101102
0.00101085
0.00101069
0.00101053
0.00101037
0.00101021
0.00101006
0.00100989
0.00100972
0.00100955
0.00100937
0.0010092
0.00100903
0.00100886
0.00100869
0.00100854
0.00100838
0.00100824
0.0010081
0.00100796
0.00100782
0.00100768
0.00100755
0.00100741
0.00100728
0.00100714
0.00100701
0.00100687
0.00100673
0.00100659
0.00100645
0.00100631
0.00100617
0.00100603
0.0010059
0.00100577
0.00100565
0.00100553
0.00100541
0.0010053
0.00100519
0.00100507
0.00100496
0.00100484
0.00100473
0.00100462
0.00100451
0.0010044
0.0010043
0.00100419
0.00100409
0.001004
0.00100391
0.00100382
0.00100374
0.00100365
0.00100356
0.00100348
0.00100339
0.0010033
0.00100321
0.00100313
0.00100306
0.00100299
0.00100292
0.00100286
0.0010028
0.00100274
0.00100268
0.00100262
0.00100256
0.0010025
0.00100244
0.00100238
0.00100232
0.00100227
0.00100222
0.00100217
0.00100213
0.00100209
0.00100205
0.00100201
0.00100197
0.00100193
0.00100189
0.00100185
0.00100181
0.00100178
0.00100175
0.00100172
0.00100169
0.00100166
0.00100163
0.0010016
0.00100157
0.00100154
0.00100151
0.00100148
0.00100146
0.00100143
0.00100141
0.00100139
0.00100137
0.00100134
0.00100132
0.00100129
0.00100127
0.00100125
0.00100123
0.00100121
0.00100119
0.00100117
0.00100116
0.00100114
0.00100112
0.0010011
0.00100108
0.00100107
0.00100106
0.00100105
0.00100104
0.00100103
0.00100101
0.001001
0.00100099
0.00100098
0.00100097
0.00100096
0.00100095
0.00100095
0.00100094
0.00100093
0.00100092
0.00100091
0.00100091
0.0010009
0.0010009
0.00100089
0.00100089
0.00100088
0.00100088
0.00100087
0.00100087
0.00100087
0.00100086
0.00100084
0.00100084
0.00100085
0.00100085
0.00100085
0.00100085
0.00100085
0.00100085
0.00100084
0.00100085
0.00100084
0.00100084
0.00100084
0.00100084
0.00100084
0.00100084
0.00100084
0.00100084
0.00100084
0.00100084
0.00100084
0.00100085
0.00100085
0.00100084
0.00100084
0.00100085
0.00100085
0.00100085
0.00100085
0.00100085
0.00100086
0.00100085
0.00100085
0.00100085
0.00100086
0.00100087
0.00100088
0.00100088
0.00100088
0.00100109
0.001001
0.0010008
0.00100065
0.00100063
0.00100083
0.00100083
0.00100086
0.00100086
0.00100088
0.00100089
0.00100089
0.00100088
0.00100088
0.00100088
0.00100088
0.00100088
0.00100089
0.00100089
0.00100089
0.00100089
0.00100089
0.00100089
0.00100089
0.00100089
0.00100089
0.00100088
0.00100088
0.00100088
0.00100088
0.00100088
0.00100089
0.00100089
0.00100089
0.00100089
0.00100088
0.00100088
0.00100088
0.00100088
0.00100088
0.00100088
0.00100087
0.00100087
0.00100087
0.00100087
0.00100087
0.00100087
0.00100087
0.00100087
0.00100087
0.00100088
0.00100088
0.00100088
0.00100087
0.00100087
0.00100087
0.00100087
0.00100087
0.00100087
0.00100087
0.00100087
0.00100087
0.00100087
0.00100088
0.00100088
0.00100087
0.00100087
0.00100087
0.00100087
0.00100087
0.00100088
0.00100088
0.00100089
0.00100088
0.00100088
0.00100088
0.00100089
0.0010009
0.00100088
0.00100089
0.00100088
0.00100088
0.00100089
0.0010009
0.00100088
0.00100088
0.00100088
0.00100088
0.00100088
0.0010008
0.00100085
0.00263228
0.00239851
0.00177177
0.00147552
0.00141443
0.00140491
0.00139954
0.00139395
0.00138811
0.00138276
0.00137993
0.00137711
0.00137268
0.00136742
0.00136208
0.00135731
0.00135314
0.00134917
0.00134598
0.00134374
0.00134038
0.00133484
0.00132872
0.00132401
0.00132117
0.00131935
0.00131669
0.00131241
0.00130992
0.0013094
0.00130646
0.00129869
0.00128793
0.00127989
0.0012768
0.00127479
0.00126935
0.00126239
0.00125655
0.0012539
0.00125304
0.00124859
0.00124125
0.00123798
0.00123883
0.0012382
0.00123279
0.00122806
0.0012265
0.00122791
0.00122646
0.0012192
0.00121377
0.0012149
0.00121414
0.00120902
0.00121371
0.0012236
0.00121994
0.00120783
0.00120437
0.00121035
0.00120698
0.00120216
0.00119515
0.00119495
0.00119259
0.00118802
0.00118584
0.00119019
0.00119217
0.00118307
0.001173
0.00117029
0.00116967
0.00116529
0.00116306
0.00114917
0.00112565
0.0011221
0.00113543
0.00114414
0.00116028
0.00119797
0.00127341
0.00141059
0.00157733
0.00173141
0.00192832
0.00215949
0.00230393
0.00212486
0.00172811
0.00148065
0.0012649
0.00116084
0.00109295
0.00107554
0.00105033
0.00104676
0.00104556
0.00104753
0.00104553
0.00105237
0.00105612
0.00104946
0.00106571
0.00108875
0.00108594
0.00111185
0.00114267
0.00119992
0.0011642
0.00108736
0.00108175
0.0010675
0.00106087
0.00105578
0.00104842
0.00103721
0.00103923
0.00104271
0.00105488
0.00105237
0.00105513
0.00105144
0.00106533
0.00108362
0.00113999
0.00111739
0.00105371
0.00105216
0.00104224
0.00104046
0.00103661
0.00104725
0.00104455
0.00103463
0.00103466
0.00103402
0.00103372
0.00103532
0.00103489
0.00103325
0.00103344
0.00103329
0.00103284
0.00103226
0.00103174
0.00103153
0.0010314
0.00103101
0.00103092
0.00103037
0.0010299
0.00102945
0.00102926
0.00102926
0.00102889
0.00102829
0.00102773
0.00102762
0.00102767
0.00102708
0.00102635
0.00102626
0.00102633
0.00102586
0.00102513
0.00102477
0.0010249
0.00102461
0.00102395
0.00102356
0.00102369
0.00102326
0.00102274
0.00102249
0.00102237
0.00102204
0.00102161
0.00102139
0.00102113
0.00102077
0.00102046
0.00102027
0.00102005
0.00101971
0.00101937
0.00101915
0.00101893
0.00101863
0.00101837
0.00101817
0.00101799
0.00101768
0.00101738
0.00101725
0.0010171
0.00101693
0.00101667
0.00101641
0.00101626
0.00101612
0.00101597
0.00101582
0.00101571
0.00101565
0.0010155
0.00101537
0.00101529
0.0010152
0.00101516
0.0010151
0.00101507
0.00101502
0.00101502
0.00101509
0.00101514
0.00101519
0.00101518
0.00101516
0.0010152
0.00101527
0.00101533
0.00101536
0.00101537
0.00101536
0.00101535
0.00101533
0.00101532
0.00101535
0.0010154
0.0010154
0.00101539
0.00101539
0.00101537
0.00101534
0.00101533
0.00101531
0.0010152
0.0010151
0.00101507
0.00101503
0.00101496
0.00101489
0.00101483
0.00101475
0.00101464
0.00101453
0.00101442
0.0010143
0.00101418
0.00101406
0.00101395
0.00101382
0.00101368
0.00101354
0.00101338
0.00101323
0.00101307
0.00101291
0.00101276
0.00101261
0.00101246
0.0010123
0.00101214
0.00101198
0.00101181
0.00101163
0.00101147
0.00101131
0.00101115
0.00101099
0.00101083
0.00101067
0.0010105
0.00101034
0.00101017
0.00101001
0.00100984
0.00100968
0.0010095
0.00100933
0.00100915
0.00100896
0.00100878
0.0010086
0.00100843
0.00100826
0.0010081
0.00100794
0.00100779
0.00100764
0.0010075
0.00100737
0.00100723
0.00100709
0.00100696
0.00100683
0.00100669
0.00100655
0.00100641
0.00100627
0.00100612
0.00100598
0.00100583
0.00100569
0.00100555
0.00100541
0.00100528
0.00100515
0.00100503
0.0010049
0.00100479
0.00100467
0.00100455
0.00100443
0.00100431
0.00100419
0.00100408
0.00100396
0.00100385
0.00100375
0.00100365
0.00100354
0.00100344
0.00100335
0.00100327
0.00100318
0.00100308
0.00100299
0.0010029
0.00100281
0.00100271
0.00100262
0.00100253
0.00100245
0.00100238
0.00100231
0.00100225
0.00100218
0.00100212
0.00100205
0.00100199
0.00100192
0.00100186
0.0010018
0.00100173
0.00100168
0.00100162
0.00100157
0.00100152
0.00100147
0.00100143
0.00100138
0.00100134
0.00100129
0.00100124
0.0010012
0.00100116
0.00100112
0.00100109
0.00100105
0.00100102
0.00100099
0.00100096
0.00100092
0.00100089
0.00100085
0.00100082
0.00100079
0.00100076
0.00100073
0.0010007
0.00100068
0.00100065
0.00100062
0.00100059
0.00100056
0.00100054
0.00100051
0.00100049
0.00100047
0.00100044
0.00100042
0.0010004
0.00100037
0.00100035
0.00100033
0.00100031
0.00100029
0.00100028
0.00100026
0.00100025
0.00100023
0.00100022
0.0010002
0.00100019
0.00100017
0.00100016
0.00100015
0.00100013
0.00100012
0.00100011
0.0010001
0.00100008
0.00100007
0.00100007
0.00100006
0.00100005
0.00100004
0.00100003
0.00100001
0.00100001
0.00100001
0.001
0.000999977
0.000999972
0.000999982
0.000999975
0.000999966
0.000999963
0.000999957
0.000999954
0.000999948
0.000999942
0.000999938
0.000999933
0.000999928
0.000999919
0.000999915
0.000999912
0.000999907
0.000999899
0.000999898
0.000999902
0.000999898
0.000999897
0.000999893
0.000999893
0.000999897
0.000999894
0.000999887
0.000999881
0.000999878
0.000999875
0.000999886
0.000999882
0.00099988
0.000999869
0.000999864
0.000999878
0.000999983
0.000999962
0.001
0.00100037
0.00100033
0.000999959
0.000999955
0.000999904
0.000999906
0.000999865
0.000999857
0.00099985
0.00099985
0.000999852
0.000999853
0.000999852
0.000999855
0.000999851
0.000999849
0.000999849
0.000999847
0.000999846
0.000999847
0.000999847
0.000999847
0.000999846
0.000999847
0.000999848
0.000999849
0.000999849
0.000999848
0.000999847
0.000999846
0.000999847
0.000999849
0.000999851
0.000999854
0.000999856
0.000999855
0.000999852
0.000999849
0.000999847
0.000999848
0.000999849
0.00099985
0.000999851
0.000999851
0.00099985
0.00099985
0.000999849
0.000999848
0.000999848
0.000999848
0.000999849
0.000999851
0.000999853
0.000999855
0.000999856
0.000999855
0.000999853
0.000999852
0.000999852
0.000999852
0.000999851
0.000999849
0.000999849
0.000999851
0.000999854
0.000999853
0.000999855
0.000999858
0.000999855
0.00099985
0.000999849
0.000999849
0.00099985
0.000999849
0.000999848
0.000999848
0.00099985
0.000999849
0.000999853
0.000999858
0.000999849
0.000999868
0.000999854
0.00099985
0.000999855
0.000999893
0.000999857
0.000999849
0.000999852
0.000999852
0.000999848
0.000999857
0.00100002
0.000999936
0.00273995
0.00245066
0.00178545
0.00148634
0.00142541
0.00141423
0.00141089
0.00140543
0.00139624
0.00138979
0.00139092
0.00139051
0.00138417
0.00137636
0.00136892
0.00136495
0.00136344
0.00136104
0.00135662
0.00135299
0.00134984
0.00134602
0.00134079
0.00133393
0.00132854
0.00132708
0.00132596