/*--------------------------------*- C++ -*----------------------------------*\
| =========                 |                                                 |
| \\      /  F ield         | OpenFOAM: The Open Source CFD Toolbox           |
|  \\    /   O peration     | Version:  v2006                                 |
|   \\  /    A nd           | Website:  www.openfoam.com                      |
|    \\/     M anipulation  |                                                 |
\*---------------------------------------------------------------------------*/
FoamFile
{
    version     2.0;
    format      ascii;
    class       surfaceScalarField;
    location    "2.2";
    object      phi;
}
// * * * * * * * * * * * * * * * * * * * * * * * * * * * * * * * * * * * * * //

dimensions      [0 3 -1 0 0 0 0];
oriented        oriented;


internalField   nonuniform List<scalar> 
65390
(
2.80505e-05
8.31019e-07
2.67741e-05
1.28845e-06
2.54906e-05
1.29314e-06
2.42554e-05
1.24149e-06
2.29565e-05
1.30184e-06
2.16923e-05
1.26456e-06
2.0436e-05
1.25335e-06
1.92138e-05
1.21634e-06
1.802e-05
1.18641e-06
1.68271e-05
1.18393e-06
1.5624e-05
1.19281e-06
1.44329e-05
1.18024e-06
1.3261e-05
1.16103e-06
1.21313e-05
1.11964e-06
1.10748e-05
1.04792e-06
1.00448e-05
1.02326e-06
9.00196e-06
1.03781e-06
7.91117e-06
1.08798e-06
6.76117e-06
1.14964e-06
5.65056e-06
1.11234e-06
4.73381e-06
9.20086e-07
3.9158e-06
8.227e-07
3.03817e-06
8.83476e-07
2.03433e-06
1.01035e-06
1.03625e-06
1.00459e-06
1.71657e-07
8.70809e-07
-5.72388e-07
7.50005e-07
-1.325e-06
7.5841e-07
-2.24286e-06
9.23397e-07
-3.08779e-06
8.49984e-07
-3.7081e-06
6.24804e-07
-4.29291e-06
5.88862e-07
-4.97239e-06
6.83249e-07
-5.7376e-06
7.68724e-07
-6.46774e-06
7.33137e-07
-6.92854e-06
4.62866e-07
-7.32863e-06
4.00742e-07
-7.85635e-06
5.26686e-07
-8.45268e-06
5.93625e-07
-9.03783e-06
5.81124e-07
-9.58022e-06
5.37507e-07
-9.84822e-06
2.62793e-07
-1.00539e-05
2.00596e-07
-1.04201e-05
3.61485e-07
-1.08434e-05
4.19075e-07
-1.11306e-05
2.8342e-07
-1.13061e-05
1.72112e-07
-1.15138e-05
2.04623e-07
-1.17843e-05
2.67604e-07
-1.19738e-05
1.8679e-07
-1.20567e-05
8.05217e-08
-1.20871e-05
2.84304e-08
-1.21783e-05
8.9875e-08
-1.22603e-05
8.15795e-08
-1.22999e-05
4.01774e-08
-1.22758e-05
-2.25826e-08
-1.23186e-05
4.50954e-08
-1.24167e-05
1.01091e-07
-1.24983e-05
8.4873e-08
-1.24884e-05
-6.14058e-09
-1.23712e-05
-1.13288e-07
-1.22871e-05
-8.0184e-08
-1.23362e-05
5.31852e-08
-1.23243e-05
-7.50231e-09
-1.22261e-05
-9.35332e-08
-1.19987e-05
-2.2271e-07
-1.17518e-05
-2.42235e-07
-1.16006e-05
-1.46812e-07
-1.13931e-05
-2.03487e-07
-1.11272e-05
-2.62434e-07
-1.0884e-05
-2.40123e-07
-1.05905e-05
-2.91024e-07
-1.02033e-05
-3.85329e-07
-9.5921e-06
-6.09625e-07
-9.0028e-06
-5.88102e-07
-8.19148e-06
-8.1042e-07
-7.08987e-06
-1.10114e-06
-5.7415e-06
-1.34839e-06
-4.59869e-06
-1.1434e-06
-4.07282e-06
-5.26594e-07
-3.83116e-06
-2.4246e-07
-3.83628e-06
4.38052e-09
-3.83645e-06
-3.12722e-10
-3.80828e-06
-2.86032e-08
-3.81081e-06
2.14593e-09
-3.69561e-06
-1.15462e-07
-3.57266e-06
-1.23164e-07
-3.49548e-06
-7.71848e-08
-3.43784e-06
-5.76195e-08
-3.3799e-06
-5.80829e-08
-3.28298e-06
-9.72006e-08
-3.16601e-06
-1.17287e-07
-3.03393e-06
-1.32598e-07
-2.91351e-06
-1.21199e-07
-2.7716e-06
-1.42974e-07
-2.59879e-06
-1.74162e-07
-2.3475e-06
-2.52552e-07
-2.05694e-06
-2.91505e-07
-1.71473e-06
-3.42893e-07
-1.43402e-06
-2.81358e-07
-1.27663e-06
-1.57915e-07
-1.1854e-06
-9.14549e-08
-1.13647e-06
-4.88773e-08
-1.05764e-06
-7.87108e-08
-1.01164e-06
-4.57798e-08
-9.69102e-07
-4.20737e-08
-8.9579e-07
-7.27511e-08
-8.107e-07
-8.46862e-08
-7.41272e-07
-6.9136e-08
-6.84486e-07
-5.64785e-08
-6.22329e-07
-6.18752e-08
-5.63605e-07
-5.84794e-08
-4.87255e-07
-7.60189e-08
-3.9252e-07
-9.4242e-08
-2.5701e-07
-1.34971e-07
-8.97831e-08
-1.66774e-07
1.3327e-07
-2.22698e-07
3.06203e-07
-1.72648e-07
3.86671e-07
-8.02791e-08
4.28804e-07
-4.20909e-08
4.25377e-07
3.38572e-09
4.34621e-07
-9.25275e-09
4.00811e-07
3.38527e-08
3.71794e-07
2.90659e-08
3.66373e-07
5.47713e-09
3.58177e-07
8.2964e-09
3.5267e-07
5.65079e-09
3.339e-07
1.8922e-08
3.04628e-07
2.94202e-08
2.8314e-07
2.1644e-08
2.6973e-07
1.35776e-08
2.41588e-07
2.83149e-08
2.0892e-07
3.2849e-08
1.75115e-07
3.39881e-08
1.46056e-07
2.92191e-08
1.15728e-07
3.04387e-08
7.10231e-08
4.47537e-08
2.56058e-08
4.53987e-08
-1.94018e-08
4.49125e-08
-6.0625e-08
4.10499e-08
-1.14985e-07
5.41169e-08
-1.69997e-07
5.47095e-08
-2.24861e-07
5.4512e-08
-2.81707e-07
5.64521e-08
-3.43682e-07
6.15533e-08
-4.05186e-07
6.10627e-08
-4.64523e-07
5.88781e-08
-5.23683e-07
5.86861e-08
-5.91705e-07
6.75339e-08
-6.59223e-07
6.70187e-08
-7.28055e-07
6.83291e-08
-7.98307e-07
6.97479e-08
-8.61622e-07
6.28176e-08
-9.24183e-07
6.20731e-08
-9.95631e-07
7.09728e-08
-1.06898e-06
7.28834e-08
-1.14008e-06
7.06483e-08
-1.20648e-06
6.59666e-08
-1.27369e-06
6.67821e-08
-1.34709e-06
7.29854e-08
-1.42051e-06
7.30185e-08
-1.49052e-06
6.96223e-08
-1.55761e-06
6.67364e-08
-1.62983e-06
7.18874e-08
-1.70352e-06
7.33925e-08
-1.77554e-06
7.17866e-08
-1.8435e-06
6.77661e-08
-1.91362e-06
6.99882e-08
-1.98576e-06
7.20525e-08
-2.05813e-06
7.23281e-08
-2.12751e-06
6.93774e-08
-2.19332e-06
6.58396e-08
-2.26185e-06
6.858e-08
-2.33185e-06
7.00487e-08
-2.39952e-06
6.77059e-08
-2.46545e-06
6.59448e-08
-2.52984e-06
6.4375e-08
-2.59478e-06
6.48983e-08
-2.65881e-06
6.39424e-08
-2.72193e-06
6.29942e-08
-2.78418e-06
6.2084e-08
-2.84442e-06
6.00324e-08
-2.90358e-06
5.89287e-08
-2.96243e-06
5.86026e-08
-3.01978e-06
5.70857e-08
-3.07497e-06
5.49198e-08
-3.12747e-06
5.22315e-08
-3.18047e-06
5.27539e-08
-3.23233e-06
5.16288e-08
-3.28254e-06
5.0004e-08
-3.32928e-06
4.65636e-08
-3.3757e-06
4.62773e-08
-3.42086e-06
4.50445e-08
-3.46393e-06
4.29862e-08
-3.50523e-06
4.12414e-08
-3.54443e-06
3.91667e-08
-3.5825e-06
3.80505e-08
-3.61889e-06
3.63914e-08
-3.65316e-06
3.42856e-08
-3.68478e-06
3.16504e-08
-3.71543e-06
3.06785e-08
-3.74446e-06
2.90557e-08
-3.772e-06
2.7583e-08
-3.79736e-06
2.53932e-08
-3.82082e-06
2.34989e-08
-3.84181e-06
2.10221e-08
-3.86074e-06
1.89627e-08
-3.87975e-06
1.90362e-08
-3.89615e-06
1.64314e-08
-3.9105e-06
1.43756e-08
-3.92246e-06
1.19823e-08
-3.93373e-06
1.12874e-08
-3.94297e-06
9.2617e-09
-3.95036e-06
7.40741e-09
-3.95583e-06
5.49369e-09
-3.95907e-06
3.27514e-09
-3.96154e-06
2.50651e-09
-3.96227e-06
7.65225e-10
-3.9613e-06
-9.19376e-10
-3.95896e-06
-2.29266e-09
-3.95448e-06
-4.44259e-09
-3.94721e-06
-7.22826e-09
-3.93969e-06
-7.48065e-09
-3.93072e-06
-8.92198e-09
-3.92047e-06
-1.01859e-08
-3.90853e-06
-1.18676e-08
-3.89506e-06
-1.33845e-08
-3.88006e-06
-1.49138e-08
-3.86321e-06
-1.6756e-08
-3.84553e-06
-1.75827e-08
-3.82654e-06
-1.88735e-08
-3.80634e-06
-2.00904e-08
-3.78482e-06
-2.13923e-08
-3.76194e-06
-2.27354e-08
-3.73783e-06
-2.39732e-08
-3.71293e-06
-2.47603e-08
-3.68715e-06
-2.56376e-08
-3.66039e-06
-2.66286e-08
-3.6323e-06
-2.79733e-08
-3.60342e-06
-2.8757e-08
-3.57379e-06
-2.9519e-08
-3.54327e-06
-3.04075e-08
-3.51204e-06
-3.11151e-08
-3.48004e-06
-3.1892e-08
-3.44732e-06
-3.25961e-08
-3.41399e-06
-3.32046e-08
-3.38016e-06
-3.36984e-08
-3.34585e-06
-3.41925e-08
-3.31084e-06
-3.48915e-08
-3.27541e-06
-3.53238e-08
-3.2396e-06
-3.57067e-08
-3.20345e-06
-3.60658e-08
-3.16697e-06
-3.63942e-08
-3.13023e-06
-3.66532e-08
-3.09331e-06
-3.68367e-08
-3.05612e-06
-3.71012e-08
-3.01854e-06
-3.7496e-08
-2.98075e-06
-3.77028e-08
-2.94293e-06
-3.77419e-08
-2.90498e-06
-3.78753e-08
-2.86693e-06
-3.79713e-08
-2.82885e-06
-3.80144e-08
-2.79082e-06
-3.79633e-08
-2.75283e-06
-3.79164e-08
-2.71489e-06
-3.78818e-08
-2.67699e-06
-3.78412e-08
-2.63916e-06
-3.77917e-08
-2.60141e-06
-3.77119e-08
-2.56377e-06
-3.76044e-08
-2.52625e-06
-3.74776e-08
-2.48891e-06
-3.72952e-08
-2.4518e-06
-3.70454e-08
-2.41498e-06
-3.67581e-08
-2.37842e-06
-3.64922e-08
-2.34211e-06
-3.62492e-08
-2.30604e-06
-3.60074e-08
-2.27024e-06
-3.57316e-08
-2.23473e-06
-3.54385e-08
-2.19954e-06
-3.51272e-08
-2.16466e-06
-3.48067e-08
-2.13013e-06
-3.44713e-08
-2.09593e-06
-3.41383e-08
-2.06205e-06
-3.38186e-08
-2.02847e-06
-3.35253e-08
-1.9952e-06
-3.32169e-08
-1.96224e-06
-3.28985e-08
-1.9296e-06
-3.25719e-08
-1.89728e-06
-3.22401e-08
-1.86529e-06
-3.19145e-08
-1.83362e-06
-3.15871e-08
-1.80228e-06
-3.12491e-08
-1.7713e-06
-3.08978e-08
-1.74068e-06
-3.05251e-08
-1.71045e-06
-3.01333e-08
-1.68063e-06
-2.97319e-08
-1.65122e-06
-2.93172e-08
-1.62223e-06
-2.88963e-08
-1.59367e-06
-2.84725e-08
-1.56553e-06
-2.80508e-08
-1.53781e-06
-2.76296e-08
-1.51053e-06
-2.72075e-08
-1.48366e-06
-2.67893e-08
-1.45721e-06
-2.63783e-08
-1.43115e-06
-2.59779e-08
-1.40549e-06
-2.55918e-08
-1.38021e-06
-2.52168e-08
-1.35529e-06
-2.4847e-08
-1.33075e-06
-2.4479e-08
-1.30656e-06
-2.41173e-08
-1.28274e-06
-2.37617e-08
-1.25927e-06
-2.34012e-08
-1.23616e-06
-2.30386e-08
-1.21341e-06
-2.26745e-08
-1.19104e-06
-2.23086e-08
-1.16902e-06
-2.19425e-08
-1.14737e-06
-2.15788e-08
-1.12608e-06
-2.1218e-08
-1.10514e-06
-2.08596e-08
-1.08456e-06
-2.05061e-08
-1.06433e-06
-2.01557e-08
-1.04445e-06
-1.98079e-08
-1.02492e-06
-1.94617e-08
-1.00572e-06
-1.91193e-08
-9.86872e-07
-1.87821e-08
-9.68356e-07
-1.84455e-08
-9.5018e-07
-1.8106e-08
-9.3235e-07
-1.77605e-08
-9.14867e-07
-1.74133e-08
-8.97724e-07
-1.70744e-08
-8.80903e-07
-1.67518e-08
-8.64388e-07
-1.64453e-08
-8.48167e-07
-1.61509e-08
-8.32229e-07
-1.58678e-08
-8.16557e-07
-1.56022e-08
-8.01131e-07
-1.53572e-08
-7.85941e-07
-1.51221e-08
-7.70992e-07
-1.48817e-08
-7.56293e-07
-1.46304e-08
-7.41848e-07
-1.43755e-08
-7.27651e-07
-1.41249e-08
-7.13702e-07
-1.38773e-08
-7.00004e-07
-1.36271e-08
-6.86559e-07
-1.3377e-08
-6.73358e-07
-1.31364e-08
-6.60385e-07
-1.29101e-08
-6.47627e-07
-1.26947e-08
-6.35075e-07
-1.24867e-08
-6.22718e-07
-1.22888e-08
-6.10547e-07
-1.21019e-08
-5.98558e-07
-1.19197e-08
-5.86756e-07
-1.17358e-08
-5.75143e-07
-1.15494e-08
-5.63723e-07
-1.13606e-08
-5.52498e-07
-1.11675e-08
-5.41473e-07
-1.09718e-08
-5.3064e-07
-1.07819e-08
-5.19987e-07
-1.06052e-08
-5.09502e-07
-1.04412e-08
-4.99175e-07
-1.02858e-08
-4.88997e-07
-1.01376e-08
-4.7896e-07
-9.99646e-09
-4.69062e-07
-9.85691e-09
-4.59309e-07
-9.71056e-09
-4.49711e-07
-9.55348e-09
-4.40277e-07
-9.38984e-09
-4.31006e-07
-9.22722e-09
-4.21894e-07
-9.07078e-09
-4.12931e-07
-8.92298e-09
-4.04107e-07
-8.7859e-09
-3.95411e-07
-8.66114e-09
-3.86831e-07
-8.547e-09
-3.78363e-07
-8.4372e-09
-3.7001e-07
-8.3242e-09
-3.61779e-07
-8.20439e-09
-3.53675e-07
-8.0798e-09
-3.45697e-07
-7.95459e-09
-3.37845e-07
-7.83002e-09
-3.30118e-07
-7.70518e-09
-3.22513e-07
-7.58304e-09
-3.15021e-07
-7.47077e-09
-3.07628e-07
-7.37045e-09
-3.00332e-07
-7.2743e-09
-2.93139e-07
-7.17171e-09
-2.8606e-07
-7.05689e-09
-2.79107e-07
-6.93005e-09
-2.72286e-07
-6.79617e-09
-2.65596e-07
-6.66411e-09
-2.59026e-07
-6.54207e-09
-2.52564e-07
-6.43228e-09
-2.46203e-07
-6.33187e-09
-2.39939e-07
-6.23561e-09
-2.33775e-07
-6.13639e-09
-2.2772e-07
-6.02766e-09
-2.21786e-07
-5.9081e-09
-2.1598e-07
-5.78151e-09
-2.10301e-07
-5.65386e-09
-2.04745e-07
-5.53267e-09
-1.99297e-07
-5.42557e-09
-1.93939e-07
-5.33628e-09
-1.88659e-07
-5.25865e-09
-1.83459e-07
-5.17862e-09
-1.78352e-07
-5.08646e-09
-1.73346e-07
-4.98459e-09
-1.68443e-07
-4.8824e-09
-1.63642e-07
-4.78134e-09
-1.58939e-07
-4.68312e-09
-1.54322e-07
-4.59725e-09
-1.49784e-07
-4.51928e-09
-1.45329e-07
-4.4368e-09
-1.40969e-07
-4.34251e-09
-1.36711e-07
-4.24136e-09
-1.32552e-07
-4.14307e-09
-1.28479e-07
-4.05688e-09
-1.24482e-07
-3.983e-09
-1.20559e-07
-3.91037e-09
-1.16711e-07
-3.8354e-09
-1.12942e-07
-3.75765e-09
-1.09254e-07
-3.67681e-09
-1.0565e-07
-3.5939e-09
-1.02126e-07
-3.51469e-09
-9.86676e-08
-3.45004e-09
-9.5294e-08
-3.36648e-09
-9.20314e-08
-3.25639e-09
-8.88228e-08
-3.20324e-09
-8.5702e-08
-3.11616e-09
-8.269e-08
-3.00741e-09
-7.96928e-08
-2.99248e-09
-7.67345e-08
-2.95306e-09
-7.40064e-08
-2.72248e-09
-7.14837e-08
-2.51675e-09
-6.89902e-08
-2.4874e-09
-6.64158e-08
-2.56833e-09
-6.38058e-08
-2.60402e-09
-6.12297e-08
-2.57033e-09
-5.86909e-08
-2.53355e-09
-5.62461e-08
-2.44007e-09
-5.38681e-08
-2.37397e-09
-5.1538e-08
-2.32701e-09
-4.92611e-08
-2.27528e-09
-4.6989e-08
-2.27222e-09
-4.48123e-08
-2.17908e-09
-4.27545e-08
-2.06206e-09
-4.07447e-08
-2.016e-09
-3.88051e-08
-1.94758e-09
-3.68538e-08
-1.9614e-09
-3.49833e-08
-1.88272e-09
-3.31963e-08
-1.80165e-09
-3.14623e-08
-1.75079e-09
-2.97344e-08
-1.74753e-09
-2.79757e-08
-1.78163e-09
-2.6326e-08
-1.67588e-09
-2.46759e-08
-1.6796e-09
-2.31548e-08
-1.55439e-09
-2.16983e-08
-1.4939e-09
-2.03853e-08
-1.35462e-09
-1.9068e-08
-1.36333e-09
-1.77187e-08
-1.40043e-09
-1.65206e-08
-1.25467e-09
-1.5288e-08
-1.29526e-09
-1.40207e-08
-1.3379e-09
-1.28346e-08
-1.26514e-09
-1.18608e-08
-1.06044e-09
-1.07707e-08
-1.18255e-09
-9.75945e-09
-1.09416e-09
-9.22548e-09
-5.80918e-10
-8.34284e-09
-8.01613e-10
-7.66177e-09
-3.49521e-10
-8.11812e-09
1.41387e-09
-9.74644e-09
3.13891e-09
-1.21437e-08
5.12883e-09
-1.24246e-08
5.11828e-09
-1.23871e-08
4.38883e-09
-1.23612e-08
3.98914e-09
-1.22597e-08
3.53449e-09
-1.20941e-08
3.12802e-09
-1.19556e-08
2.84787e-09
-1.18689e-08
2.62429e-09
-1.18039e-08
2.39816e-09
-1.17499e-08
2.18543e-09
-1.17112e-08
1.99775e-09
-1.16455e-08
1.7859e-09
-1.14941e-08
1.53123e-09
-1.12578e-08
1.29159e-09
-1.09938e-08
1.12215e-09
-1.07461e-08
1.00839e-09
-1.05063e-08
8.9729e-10
-1.02331e-08
7.55323e-10
-9.90071e-09
5.97407e-10
-9.51536e-09
4.5502e-10
-9.10271e-09
3.47049e-10
-8.70181e-09
2.86259e-10
-8.33287e-09
2.53298e-10
-8.01547e-09
2.46941e-10
-7.75015e-09
2.47682e-10
-7.52223e-09
2.39733e-10
-7.31102e-09
2.16533e-10
-7.09546e-09
1.77092e-10
-6.8536e-09
1.19902e-10
-6.56865e-09
4.95608e-11
-6.2132e-09
-4.50602e-11
-5.75969e-09
-1.6451e-10
-5.18009e-09
-3.09619e-10
-4.4679e-09
-4.59176e-10
-3.63045e-09
-5.99609e-10
-2.69613e-09
-7.10069e-10
-1.70011e-09
-7.83954e-10
-6.76947e-10
-8.21989e-10
3.44935e-10
-8.3042e-10
1.34493e-09
-8.17171e-10
2.30506e-09
-7.85017e-10
3.20356e-09
-7.30302e-10
4.01394e-09
-6.48417e-10
4.71414e-09
-5.43902e-10
5.30383e-09
-4.38482e-10
5.80072e-09
-3.50225e-10
6.2484e-09
-3.04973e-10
6.69493e-09
-3.07253e-10
7.18421e-09
-3.53025e-10
7.75175e-09
-4.34011e-10
8.42415e-09
-5.41424e-10
9.2009e-09
-6.48166e-10
1.00384e-08
-7.1109e-10
1.08316e-08
-6.68499e-10
1.14619e-08
-5.0701e-10
1.18985e-08
-3.14271e-10
1.2251e-08
-2.30845e-10
1.27101e-08
-3.37972e-10
1.33887e-08
-5.58143e-10
1.41283e-08
-6.19713e-10
1.46194e-08
-3.71606e-10
1.46526e-08
8.58484e-11
1.44281e-08
3.43455e-10
1.43323e-08
2.14657e-10
1.46133e-08
-1.62085e-10
1.49559e-08
-2.24004e-10
1.49273e-08
1.46997e-10
1.46176e-08
4.27625e-10
1.45125e-08
2.22604e-10
1.49586e-08
-3.28999e-10
1.55314e-08
-4.56126e-10
1.58034e-08
-1.55524e-10
1.60651e-08
-1.4548e-10
1.67851e-08
-6.04002e-10
1.77221e-08
-8.21427e-10
1.81248e-08
-2.87815e-10
1.81191e-08
1.19611e-10
1.82897e-08
-5.90254e-11
1.81177e-08
2.77786e-10
1.80268e-08
1.83345e-10
1.35698e-09
2.76418e-05
2.04747e-06
2.64751e-05
2.43968e-06
2.52055e-05
2.55253e-06
2.38653e-05
2.57878e-06
2.2582e-05
2.58827e-06
2.13353e-05
2.52134e-06
2.01041e-05
2.50033e-06
1.88635e-05
2.47686e-06
1.76458e-05
2.42735e-06
1.64511e-05
2.40308e-06
1.52595e-05
2.40844e-06
1.40846e-05
2.37769e-06
1.2936e-05
2.33003e-06
1.18154e-05
2.25744e-06
1.0703e-05
2.17373e-06
9.59523e-06
2.14045e-06
8.52635e-06
2.11215e-06
7.4845e-06
2.13132e-06
6.4525e-06
2.17918e-06
5.46899e-06
2.08974e-06
4.51623e-06
1.86381e-06
3.57995e-06
1.74788e-06
2.64173e-06
1.80928e-06
1.72777e-06
1.91107e-06
8.81795e-07
1.83692e-06
5.11508e-08
1.68776e-06
-7.3237e-07
1.52007e-06
-1.55436e-06
1.56745e-06
-2.41101e-06
1.76791e-06
-3.27977e-06
1.70776e-06
-4.04099e-06
1.37647e-06
-4.64293e-06
1.18268e-06
-5.18779e-06
1.22119e-06
-5.75566e-06
1.33052e-06
-6.39043e-06
1.36239e-06
-7.0528e-06
1.12013e-06
-7.59174e-06
9.35022e-07
-8.04441e-06
9.75234e-07
-8.47285e-06
1.01862e-06
-8.94918e-06
1.05482e-06
-9.45636e-06
1.04304e-06
-9.81191e-06
6.17783e-07
-1.01216e-05
5.10696e-07
-1.03985e-05
6.39964e-07
-1.07097e-05
7.32613e-07
-1.10567e-05
6.33385e-07
-1.13601e-05
4.78613e-07
-1.16243e-05
4.71903e-07
-1.18356e-05
4.81709e-07
-1.20183e-05
3.71844e-07
-1.21606e-05
2.24642e-07
-1.22859e-05
1.54733e-07
-1.23928e-05
1.97092e-07
-1.24707e-05
1.5877e-07
-1.24938e-05
6.156e-08
-1.24926e-05
-2.67504e-08
-1.2497e-05
4.53527e-08
-1.25502e-05
1.49028e-07
-1.26095e-05
1.37545e-07
-1.25488e-05
-7.42204e-08
-1.24618e-05
-2.0813e-07
-1.24185e-05
-1.31146e-07
-1.24342e-05
6.14001e-08
-1.24286e-05
-2.05229e-08
-1.22911e-05
-2.37904e-07
-1.21148e-05
-4.05483e-07
-1.19409e-05
-4.22384e-07
-1.17174e-05
-3.76296e-07
-1.14916e-05
-4.35118e-07
-1.13283e-05
-4.3157e-07
-1.11226e-05
-4.5156e-07
-1.08016e-05
-6.17805e-07
-1.04616e-05
-7.31003e-07
-1.01435e-05
-9.33088e-07
-9.80736e-06
-9.2928e-07
-9.49498e-06
-1.12763e-06
-9.2533e-06
-1.3477e-06
-9.07839e-06
-1.52705e-06
-8.53268e-06
-1.69065e-06
-7.47378e-06
-1.58746e-06
-6.17387e-06
-1.54455e-06
-4.93052e-06
-1.24017e-06
-4.25864e-06
-6.73255e-07
-3.84e-06
-4.48141e-07
-3.64825e-06
-1.90128e-07
-3.56824e-06
-1.95789e-07
-3.53507e-06
-1.56708e-07
-3.53976e-06
-7.2753e-08
-3.5313e-06
-6.63758e-08
-3.4238e-06
-1.65934e-07
-3.28918e-06
-2.32553e-07
-3.18799e-06
-2.19202e-07
-3.07962e-06
-2.41957e-07
-2.9726e-06
-2.29579e-07
-2.86471e-06
-2.52341e-07
-2.74678e-06
-2.93434e-07
-2.63343e-06
-3.66904e-07
-2.5232e-06
-4.02627e-07
-2.43059e-06
-4.36206e-07
-2.24787e-06
-4.64356e-07
-1.97744e-06
-4.28218e-07
-1.64036e-06
-4.28113e-07
-1.35079e-06
-3.37757e-07
-1.17331e-06
-2.55243e-07
-1.02099e-06
-1.97021e-07
-9.20559e-07
-1.41478e-07
-8.39427e-07
-1.53035e-07
-7.78375e-07
-1.45045e-07
-7.51065e-07
-9.58301e-08
-7.21968e-07
-8.49527e-08
-6.5307e-07
-1.30179e-07
-5.83845e-07
-1.27153e-07
-5.14947e-07
-1.44386e-07
-4.53826e-07
-1.5487e-07
-4.06636e-07
-1.81809e-07
-3.56578e-07
-2.1669e-07
-3.25764e-07
-2.53599e-07
-2.49271e-07
-2.49428e-07
-1.12164e-07
-2.17831e-07
9.75041e-08
-2.52321e-07
2.78022e-07
-1.77751e-07
3.53636e-07
-8.54731e-08
4.03575e-07
-1.66644e-08
4.20954e-07
1.11184e-08
4.24416e-07
1.47355e-09
3.81773e-07
5.04595e-08
3.4434e-07
4.26606e-08
3.33305e-07
2.95699e-08
3.17397e-07
4.4984e-08
3.00939e-07
3.78148e-08
2.80309e-07
3.39755e-08
2.5074e-07
5.76881e-08
2.18467e-07
6.49451e-08
1.87344e-07
6.49276e-08
1.55297e-07
6.10419e-08
1.19384e-07
6.60559e-08
7.63329e-08
8.74237e-08
3.47184e-08
8.65443e-08
-9.6116e-09
8.86855e-08
-5.75156e-08
8.83186e-08
-1.11894e-07
1.07801e-07
-1.63582e-07
1.05665e-07
-2.16425e-07
1.06592e-07
-2.76009e-07
1.15254e-07
-3.37214e-07
1.21964e-07
-3.95751e-07
1.18801e-07
-4.55217e-07
1.17546e-07
-5.19743e-07
1.22416e-07
-5.87849e-07
1.34851e-07
-6.52576e-07
1.30973e-07
-7.1842e-07
1.3342e-07
-7.87284e-07
1.37883e-07
-8.53815e-07
1.28647e-07
-9.20911e-07
1.28494e-07
-9.91263e-07
1.40678e-07
-1.06286e-06
1.43857e-07
-1.13231e-06
1.39495e-07
-1.20071e-06
1.33791e-07
-1.27097e-06
1.36474e-07
-1.34352e-06
1.44998e-07
-1.41648e-06
1.45466e-07
-1.4875e-06
1.4017e-07
-1.55679e-06
1.35613e-07
-1.62799e-06
1.42729e-07
-1.70166e-06
1.46793e-07
-1.7744e-06
1.44328e-07
-1.84438e-06
1.37647e-07
-1.91373e-06
1.39319e-07
-1.98534e-06
1.43722e-07
-2.05792e-06
1.45019e-07
-2.12697e-06
1.38587e-07
-2.19416e-06
1.33214e-07
-2.26322e-06
1.37824e-07
-2.33346e-06
1.40458e-07
-2.39979e-06
1.34167e-07
-2.46551e-06
1.31728e-07
-2.53194e-06
1.30808e-07
-2.59687e-06
1.29758e-07
-2.66019e-06
1.27115e-07
-2.72256e-06
1.25141e-07
-2.78459e-06
1.23832e-07
-2.84546e-06
1.20575e-07
-2.90556e-06
1.18661e-07
-2.96454e-06
1.172e-07
-3.02186e-06
1.14015e-07
-3.07699e-06
1.09673e-07
-3.13042e-06
1.05302e-07
-3.18286e-06
1.04871e-07
-3.23412e-06
1.02625e-07
-3.28393e-06
9.95871e-08
-3.33236e-06
9.48312e-08
-3.37939e-06
9.3197e-08
-3.42461e-06
9.02065e-08
-3.46741e-06
8.57749e-08
-3.50824e-06
8.21052e-08
-3.54755e-06
7.85329e-08
-3.58622e-06
7.68173e-08
-3.62278e-06
7.30738e-08
-3.65695e-06
6.859e-08
-3.68921e-06
6.40692e-08
-3.7196e-06
6.1229e-08
-3.74843e-06
5.80682e-08
-3.77625e-06
5.55761e-08
-3.80128e-06
5.06157e-08
-3.82435e-06
4.67574e-08
-3.84549e-06
4.23471e-08
-3.86559e-06
3.92533e-08
-3.88466e-06
3.82961e-08
-3.90053e-06
3.24854e-08
-3.91478e-06
2.88051e-08
-3.92747e-06
2.48474e-08
-3.93882e-06
2.28137e-08
-3.94781e-06
1.84255e-08
-3.95494e-06
1.4717e-08
-3.96034e-06
1.10739e-08
-3.96392e-06
7.03054e-09
-3.96601e-06
4.77184e-09
-3.96633e-06
1.26827e-09
-3.9651e-06
-1.97931e-09
-3.96269e-06
-4.52396e-09
-3.95798e-06
-8.9706e-09
-3.95175e-06
-1.32659e-08
-3.94397e-06
-1.50743e-08
-3.93457e-06
-1.81288e-08
-3.92428e-06
-2.02822e-08
-3.91203e-06
-2.39305e-08
-3.89831e-06
-2.69156e-08
-3.88316e-06
-2.98748e-08
-3.86666e-06
-3.30588e-08
-3.84882e-06
-3.52264e-08
-3.82966e-06
-3.7831e-08
-3.80939e-06
-4.01572e-08
-3.78774e-06
-4.28462e-08
-3.76477e-06
-4.5514e-08
-3.74063e-06
-4.79333e-08
-3.71545e-06
-4.97735e-08
-3.68928e-06
-5.16482e-08
-3.66213e-06
-5.3633e-08
-3.63439e-06
-5.55865e-08
-3.60588e-06
-5.71416e-08
-3.57612e-06
-5.91676e-08
-3.54534e-06
-6.10774e-08
-3.51409e-06
-6.22695e-08
-3.48202e-06
-6.38604e-08
-3.44913e-06
-6.53983e-08
-3.41557e-06
-6.66803e-08
-3.38166e-06
-6.75292e-08
-3.34738e-06
-6.84121e-08
-3.31242e-06
-6.97924e-08
-3.27687e-06
-7.08187e-08
-3.24089e-06
-7.16457e-08
-3.20454e-06
-7.23866e-08
-3.16781e-06
-7.30916e-08
-3.1308e-06
-7.36369e-08
-3.09359e-06
-7.40255e-08
-3.05609e-06
-7.45756e-08
-3.01842e-06
-7.51499e-08
-2.98069e-06
-7.54141e-08
-2.94297e-06
-7.54455e-08
-2.90504e-06
-7.57978e-08
-2.86701e-06
-7.60018e-08
-2.82892e-06
-7.61174e-08
-2.79081e-06
-7.61019e-08
-2.75272e-06
-7.60364e-08
-2.71469e-06
-7.59534e-08
-2.67672e-06
-7.5839e-08
-2.63884e-06
-7.56942e-08
-2.60108e-06
-7.54878e-08
-2.56346e-06
-7.52367e-08
-2.52598e-06
-7.4967e-08
-2.48867e-06
-7.46161e-08
-2.45157e-06
-7.41693e-08
-2.41475e-06
-7.35942e-08
-2.37821e-06
-7.30541e-08
-2.34192e-06
-7.25488e-08
-2.30586e-06
-7.20729e-08
-2.27006e-06
-7.15266e-08
-2.23453e-06
-7.09661e-08
-2.19927e-06
-7.03844e-08
-2.16429e-06
-6.97832e-08
-2.12963e-06
-6.91318e-08
-2.0953e-06
-6.84555e-08
-2.06132e-06
-6.7792e-08
-2.02767e-06
-6.71698e-08
-1.99434e-06
-6.65296e-08
-1.96134e-06
-6.58789e-08
-1.92868e-06
-6.5217e-08
-1.89635e-06
-6.45463e-08
-1.86436e-06
-6.38755e-08
-1.83272e-06
-6.31955e-08
-1.80144e-06
-6.24965e-08
-1.77053e-06
-6.17808e-08
-1.73999e-06
-6.10378e-08
-1.70982e-06
-6.0268e-08
-1.68005e-06
-5.94826e-08
-1.65066e-06
-5.86757e-08
-1.62169e-06
-5.78524e-08
-1.59312e-06
-5.7022e-08
-1.56497e-06
-5.61936e-08
-1.53722e-06
-5.53642e-08
-1.50989e-06
-5.45354e-08
-1.48296e-06
-5.37155e-08
-1.45644e-06
-5.29047e-08
-1.43031e-06
-5.21088e-08
-1.40458e-06
-5.1334e-08
-1.37923e-06
-5.05721e-08
-1.35427e-06
-4.98185e-08
-1.32968e-06
-4.90698e-08
-1.30547e-06
-4.83298e-08
-1.28164e-06
-4.75973e-08
-1.25818e-06
-4.68619e-08
-1.23509e-06
-4.61266e-08
-1.21237e-06
-4.53916e-08
-1.19002e-06
-4.46566e-08
-1.16803e-06
-4.39227e-08
-1.1464e-06
-4.31929e-08
-1.12513e-06
-4.24687e-08
-1.10423e-06
-4.17504e-08
-1.08367e-06
-4.10415e-08
-1.06347e-06
-4.03393e-08
-1.04362e-06
-3.96416e-08
-1.02412e-06
-3.89449e-08
-1.00497e-06
-3.82506e-08
-9.8617e-07
-3.75623e-08
-9.67717e-07
-3.68803e-08
-9.49601e-07
-3.6203e-08
-9.31815e-07
-3.5526e-08
-9.14357e-07
-3.48508e-08
-8.97221e-07
-3.41888e-08
-8.80397e-07
-3.35531e-08
-8.63871e-07
-3.29476e-08
-8.47632e-07
-3.23652e-08
-8.31675e-07
-3.17992e-08
-8.15994e-07
-3.12546e-08
-8.00583e-07
-3.07391e-08
-7.8543e-07
-3.02445e-08
-7.70531e-07
-2.97502e-08
-7.55887e-07
-2.92433e-08
-7.41502e-07
-2.8731e-08
-7.27368e-07
-2.82281e-08
-7.13477e-07
-2.77369e-08
-6.99819e-07
-2.72489e-08
-6.86394e-07
-2.67636e-08
-6.73195e-07
-2.62929e-08
-6.60218e-07
-2.58458e-08
-6.47455e-07
-2.54178e-08
-6.34903e-07
-2.50024e-08
-6.22558e-07
-2.46013e-08
-6.10414e-07
-2.42163e-08
-5.98466e-07
-2.38391e-08
-5.86712e-07
-2.34621e-08
-5.75148e-07
-2.30865e-08
-5.63766e-07
-2.27145e-08
-5.52565e-07
-2.23423e-08
-5.41542e-07
-2.19699e-08
-5.30692e-07
-2.16079e-08
-5.20008e-07
-2.12666e-08
-5.09486e-07
-2.09429e-08
-4.99123e-07
-2.06276e-08
-4.88923e-07
-2.03178e-08
-4.78883e-07
-2.00161e-08
-4.69e-07
-1.97197e-08
-4.5927e-07
-1.94194e-08
-4.49694e-07
-1.91095e-08
-4.40269e-07
-1.87947e-08
-4.30993e-07
-1.84847e-08
-4.2186e-07
-1.81861e-08
-4.12865e-07
-1.79012e-08
-4.04004e-07
-1.76311e-08
-3.95273e-07
-1.7377e-08
-3.86669e-07
-1.7137e-08
-3.7819e-07
-1.69036e-08
-3.69836e-07
-1.66666e-08
-3.61609e-07
-1.64204e-08
-3.53509e-07
-1.61685e-08
-3.45535e-07
-1.59192e-08
-3.37679e-07
-1.56762e-08
-3.29938e-07
-1.54357e-08
-3.22313e-07
-1.51966e-08
-3.14806e-07
-1.49664e-08
-3.07415e-07
-1.47486e-08
-3.00141e-07
-1.45338e-08
-2.92987e-07
-1.43089e-08
-2.85956e-07
-1.40699e-08
-2.79044e-07
-1.38216e-08
-2.72247e-07
-1.35718e-08
-2.65559e-07
-1.33304e-08
-2.58974e-07
-1.31051e-08
-2.52491e-07
-1.28945e-08
-2.46112e-07
-1.26903e-08
-2.39845e-07
-1.2484e-08
-2.33694e-07
-1.22682e-08
-2.27664e-07
-1.20396e-08
-2.21753e-07
-1.18021e-08
-2.15955e-07
-1.15629e-08
-2.10263e-07
-1.13289e-08
-2.04674e-07
-1.1107e-08
-1.99183e-07
-1.09015e-08
-1.93791e-07
-1.07132e-08
-1.88501e-07
-1.05344e-08
-1.83313e-07
-1.03518e-08
-1.78227e-07
-1.01573e-08
-1.73238e-07
-9.95848e-09
-1.68336e-07
-9.7689e-09
-1.63519e-07
-9.58438e-09
-1.58792e-07
-9.3958e-09
-1.54161e-07
-9.21379e-09
-1.49632e-07
-9.03493e-09
-1.452e-07
-8.85415e-09
-1.40862e-07
-8.66739e-09
-1.36612e-07
-8.47885e-09
-1.32444e-07
-8.29978e-09
-1.28357e-07
-8.13437e-09
-1.24347e-07
-7.98422e-09
-1.20419e-07
-7.83037e-09
-1.16575e-07
-7.67123e-09
-1.12823e-07
-7.50299e-09
-1.09149e-07
-7.34487e-09
-1.05548e-07
-7.18977e-09
-1.02041e-07
-7.01827e-09
-9.8571e-08
-6.91737e-09
-9.51887e-08
-6.74678e-09
-9.19521e-08
-6.49121e-09
-8.87821e-08
-6.37102e-09
-8.56504e-08
-6.24492e-09
-8.27345e-08
-5.91914e-09
-8.00831e-08
-5.63839e-09
-7.74698e-08
-5.55936e-09
-7.46997e-08
-5.48377e-09
-7.18637e-08
-5.34238e-09
-6.90798e-08
-5.2591e-09
-6.63905e-08
-5.24355e-09
-6.37547e-08
-5.2241e-09
-6.11848e-08
-5.12282e-09
-5.86684e-08
-5.03106e-09
-5.62194e-08
-4.86895e-09
-5.38327e-08
-4.73942e-09
-5.15073e-08
-4.63018e-09
-4.92231e-08
-4.53637e-09
-4.69792e-08
-4.4923e-09
-4.48384e-08
-4.2953e-09
-4.27809e-08
-4.0939e-09
-4.07502e-08
-4.01953e-09
-3.88062e-08
-3.86222e-09
-3.694e-08
-3.79557e-09
-3.51278e-08
-3.6593e-09
-3.33036e-08
-3.58621e-09
-3.1469e-08
-3.54164e-09
-2.96785e-08
-3.48958e-09
-2.79749e-08
-3.43233e-09
-2.63526e-08
-3.24051e-09
-2.47033e-08
-3.26563e-09
-2.3143e-08
-3.04494e-09
-2.17066e-08
-2.85262e-09
-2.03312e-08
-2.64364e-09
-1.90017e-08
-2.59514e-09
-1.77244e-08
-2.56889e-09
-1.63561e-08
-2.50073e-09
-1.52329e-08
-2.28161e-09
-1.3969e-08
-2.45139e-09
-1.28183e-08
-2.25422e-09
-1.21101e-08
-1.61131e-09
-1.13685e-08
-1.80927e-09
-9.97266e-09
-2.486e-09
-9.79476e-09
-1.05202e-09
-1.1612e-08
3.50486e-10
-1.34288e-08
-3.56535e-10
-1.45243e-08
-1.12094e-09
-1.4528e-08
-1.69772e-09
-1.47685e-08
-1.91506e-09
-1.42553e-08
-2.36627e-09
-1.37622e-08
-2.65109e-09
-1.34068e-08
-2.43665e-09
-1.31263e-08
-2.32598e-09
-1.29178e-08
-2.18218e-09
-1.27603e-08
-1.95983e-09
-1.25595e-08
-1.80775e-09
-1.22861e-08
-1.7217e-09
-1.19886e-08
-1.60642e-09
-1.16912e-08
-1.47286e-09
-1.13867e-08
-1.39913e-09
-1.10855e-08
-1.38381e-09
-1.08442e-08
-1.32068e-09
-1.06127e-08
-1.25931e-09
-1.03618e-08
-1.19124e-09
-1.00621e-08
-1.16862e-09
-9.71197e-09
-1.19547e-09
-9.31414e-09
-1.25154e-09
-8.88335e-09
-1.29203e-09
-8.44799e-09
-1.2833e-09
-8.03268e-09
-1.21515e-09
-7.66132e-09
-1.10664e-09
-7.3309e-09
-9.84797e-10
-7.02509e-09
-8.81517e-10
-6.72085e-09
-8.18334e-10
-6.39673e-09
-7.99388e-10
-6.03641e-09
-8.1968e-10
-5.63131e-09
-8.72276e-10
-5.17476e-09
-9.49946e-10
-4.66618e-09
-1.05711e-09
-4.10406e-09
-1.19469e-09
-3.48891e-09
-1.36099e-09
-2.83139e-09
-1.52429e-09
-2.13499e-09
-1.67785e-09
-1.39663e-09
-1.80715e-09
-6.17361e-10
-1.90121e-09
1.99227e-10
-1.95806e-09
1.0433e-09
-1.97749e-09
1.89745e-09
-1.95965e-09
2.73512e-09
-1.89794e-09
3.52513e-09
-1.7839e-09
4.24197e-09
-1.6184e-09
4.8802e-09
-1.42595e-09
5.45571e-09
-1.24953e-09
6.00127e-09
-1.12408e-09
6.54395e-09
-1.06967e-09
7.09411e-09
-1.07405e-09
7.65283e-09
-1.12371e-09
8.23029e-09
-1.21937e-09
8.84705e-09
-1.36246e-09
9.52234e-09
-1.52452e-09
1.02334e-08
-1.62036e-09
1.09175e-08
-1.54856e-09
1.15166e-08
-1.30018e-09
1.20286e-08
-1.01893e-09
1.25183e-08
-9.12137e-10
1.30432e-08
-1.05388e-09
1.35596e-08
-1.265e-09
1.39339e-08
-1.18408e-09
1.40815e-08
-7.08849e-10
1.41527e-08
-1.74777e-10
1.4298e-08
9.14928e-12
1.46754e-08
-3.51463e-10
1.50166e-08
-6.91702e-10
1.50958e-08
-4.913e-10
1.50037e-08
5.16759e-11
1.50654e-08
1.79033e-10
1.5496e-08
-3.94199e-10
1.58665e-08
-8.8499e-10
1.5925e-08
-6.9951e-10
1.60155e-08
-4.30282e-10
1.64833e-08
-7.97074e-10
1.68697e-08
-1.17387e-09
1.68133e-08
-9.47729e-10
1.68023e-08
-4.5773e-10
1.69514e-08
-2.06825e-10
1.69935e-08
-2.71599e-10
1.71461e-08
-3.43223e-11
1.75435e-08
-3.58871e-10
2.17517e-09
2.75046e-05
3.33814e-06
2.61843e-05
3.75973e-06
2.48362e-05
3.89694e-06
2.35145e-05
3.89323e-06
2.22598e-05
3.83305e-06
2.10059e-05
3.76383e-06
1.97713e-05
3.7218e-06
1.85419e-05
3.69154e-06
1.73194e-05
3.63449e-06
1.61022e-05
3.60502e-06
1.49038e-05
3.5924e-06
1.37281e-05
3.54057e-06
1.25738e-05
3.47345e-06
1.14343e-05
3.38889e-06
1.02957e-05
3.30784e-06
9.18268e-06
3.25247e-06
8.09565e-06
3.20118e-06
7.05072e-06
3.18113e-06
6.09054e-06
3.14702e-06
5.16066e-06
3.02952e-06
4.16734e-06
2.86848e-06
3.16032e-06
2.76716e-06
2.22403e-06
2.75833e-06
1.41038e-06
2.73751e-06
6.26531e-07
2.633e-06
-1.70371e-07
2.49582e-06
-1.02366e-06
2.38333e-06
-1.86532e-06
2.41797e-06
-2.58336e-06
2.4937e-06
-3.30773e-06
2.43862e-06
-4.13268e-06
2.20647e-06
-4.84358e-06
1.8973e-06
-5.40491e-06
1.78549e-06
-5.90914e-06
1.83794e-06
-6.44935e-06
1.90701e-06
-7.09753e-06
1.77456e-06
-7.69719e-06
1.54286e-06
-8.1494e-06
1.4371e-06
-8.52215e-06
1.40169e-06
-8.9087e-06
1.45154e-06
-9.28606e-06
1.42979e-06
-9.74192e-06
1.082e-06
-1.01719e-05
9.47861e-07
-1.04859e-05
9.60039e-07
-1.07586e-05
1.01074e-06
-1.10703e-05
9.49866e-07
-1.14053e-05
8.18393e-07
-1.17004e-05
7.72095e-07
-1.19141e-05
7.01112e-07
-1.21201e-05
5.84162e-07
-1.23206e-05
4.32118e-07
-1.24841e-05
3.25496e-07
-1.25586e-05
2.78978e-07
-1.26175e-05
2.24846e-07