/*--------------------------------*- C++ -*----------------------------------*\
| =========                 |                                                 |
| \\      /  F ield         | OpenFOAM: The Open Source CFD Toolbox           |
|  \\    /   O peration     | Version:  v2006                                 |
|   \\  /    A nd           | Website:  www.openfoam.com                      |
|    \\/     M anipulation  |                                                 |
\*---------------------------------------------------------------------------*/
FoamFile
{
    version     2.0;
    format      ascii;
    class       volVectorField;
    location    "2.2";
    object      U;
}
// * * * * * * * * * * * * * * * * * * * * * * * * * * * * * * * * * * * * * //

dimensions      [0 1 -1 0 0 0 0];


internalField   nonuniform List<vector> 
33000
(
(0.0384555 0 0.00144193)
(0.0758544 0 0.00264752)
(0.0661176 0 0.00266478)
(0.0615255 0 0.00242972)
(0.0590229 0 0.00265179)
(0.0557817 0 0.0025316)
(0.052666 0 0.00250242)
(0.0495564 0 0.00242656)
(0.0465516 0 0.00235834)
(0.0435685 0 0.00235386)
(0.0405663 0 0.00237229)
(0.0375735 0 0.00234852)
(0.0346132 0 0.00231326)
(0.0317302 0 0.00222315)
(0.0290135 0 0.00205195)
(0.0264159 0 0.00201273)
(0.0238315 0 0.00206348)
(0.0211655 0 0.00217024)
(0.0183211 0 0.00231732)
(0.0154712 0 0.00223952)
(0.0129271 0 0.00179453)
(0.0108726 0 0.00156036)
(0.00876206 0 0.00171731)
(0.00633516 0 0.00204623)
(0.00379405 0 0.00202466)
(0.00147987 0 0.00172414)
(-0.000468664 0 0.00144877)
(-0.00230255 0 0.00145957)
(-0.00449574 0 0.00181355)
(-0.00675202 0 0.00163413)
(-0.00849746 0 0.00118172)
(-0.00991624 0 0.00115782)
(-0.0115449 0 0.00147642)
(-0.0134397 0 0.00162619)
(-0.0153581 0 0.00144753)
(-0.0167414 0 0.000800205)
(-0.0177105 0 0.000671263)
(-0.0189501 0 0.00111975)
(-0.0204147 0 0.00129402)
(-0.0219225 0 0.00118648)
(-0.02336 0 0.00105633)
(-0.0242655 0 0.000508502)
(-0.0247653 0 0.000338842)
(-0.0255835 0 0.000772141)
(-0.026652 0 0.000895003)
(-0.027515 0 0.00050763)
(-0.0279771 0 0.000231382)
(-0.028503 0 0.000381493)
(-0.0291496 0 0.000560705)
(-0.0297429 0 0.000385128)
(-0.0300247 0 0.000114986)
(-0.0301487 0 -1.18389e-05)
(-0.0303285 0 0.000168278)
(-0.0305586 0 0.00016935)
(-0.0307079 0 8.62011e-05)
(-0.0306983 0 -5.02156e-05)
(-0.0307216 0 0.000116226)
(-0.0309402 0 0.000229011)
(-0.0311822 0 0.000164543)
(-0.0312398 0 8.59711e-06)
(-0.0310294 0 -0.000242137)
(-0.0307929 0 -0.000182175)
(-0.0308162 0 0.000115672)
(-0.0308586 0 -2.35027e-05)
(-0.0306942 0 -0.000174679)
(-0.0302538 0 -0.000452116)
(-0.0296691 0 -0.000486852)
(-0.0292086 0 -0.000264767)
(-0.0287471 0 -0.000429089)
(-0.0281451 0 -0.00057435)
(-0.0275299 0 -0.000485206)
(-0.0268762 0 -0.000584497)
(-0.0260127 0 -0.000850018)
(-0.0247675 0 -0.00140577)
(-0.02329 0 -0.0013939)
(-0.021441 0 -0.00201857)
(-0.0187284 0 -0.00291329)
(-0.0168664 0 -0.00361665)
(-0.0122282 0 -0.00171772)
(-0.010672 0 0.000201839)
(-0.00968693 0 0.000871508)
(-0.00948588 0 0.00110863)
(-0.00968647 0 -1.21241e-05)
(-0.00949886 0 -0.000503515)
(-0.00956024 0 -0.000411014)
(-0.00946292 0 -0.000358926)
(-0.00903071 0 -0.000143914)
(-0.00882342 0 2.61565e-05)
(-0.00865746 0 7.4125e-05)
(-0.00853392 0 -2.5072e-05)
(-0.00835703 0 -0.000196994)
(-0.0080628 0 -0.000275792)
(-0.0077602 0 -0.000285102)
(-0.00741546 0 -0.000244765)
(-0.00714895 0 -0.000301011)
(-0.00670593 0 -0.000410879)
(-0.00628967 0 -0.000655338)
(-0.0054383 0 -0.00076276)
(-0.00485986 0 -0.000983212)
(-0.00371709 0 -0.000583704)
(-0.00343151 0 -4.39779e-05)
(-0.00296287 0 0.000272962)
(-0.00296248 0 0.000225802)
(-0.00271804 0 -0.000205495)
(-0.0025677 0 -0.000247372)
(-0.0024934 0 -0.000250018)
(-0.0023499 0 -0.000148763)
(-0.00212762 0 -0.000163183)
(-0.00192649 0 -5.03163e-05)
(-0.00178092 0 -4.80977e-05)
(-0.0016407 0 -0.00010211)
(-0.00146987 0 -0.000124832)
(-0.00135093 0 -0.000189335)
(-0.00107944 0 -0.000230081)
(-0.000888845 0 -0.000366563)
(-0.000391204 0 -0.00044489)
(-5.92045e-05 0 -0.000685783)
(0.000722532 0 -0.000402298)
(0.000812306 0 -6.49653e-06)
(0.00111974 0 0.000273622)
(0.00102289 0 0.000296829)
(0.00110453 0 -1.79994e-05)
(0.00106769 0 -3.53442e-05)
(0.000936681 0 -6.0676e-05)
(0.000922953 0 1.64422e-05)
(0.000907549 0 3.81363e-05)
(0.000886474 0 5.4977e-05)
(0.000872892 0 4.70084e-05)
(0.000798359 0 5.84926e-05)
(0.000723321 0 2.45896e-05)
(0.000695641 0 2.12356e-05)
(0.000648856 0 5.90323e-05)
(0.000561013 0 7.48497e-05)
(0.000481852 0 7.06856e-05)
(0.000394714 0 5.70909e-05)
(0.000336526 0 5.20679e-05)
(0.000238184 0 8.36338e-05)
(0.000119968 0 8.82096e-05)
(4.38103e-06 0 8.71714e-05)
(-9.70131e-05 0 7.557e-05)
(-0.000212003 0 0.00010519)
(-0.000359801 0 0.000109441)
(-0.000492385 0 0.00010872)
(-0.000630846 0 0.000109127)
(-0.000780035 0 0.00012015)
(-0.000937388 0 0.000122438)
(-0.00108977 0 0.000116702)
(-0.00123127 0 0.000112281)
(-0.00139085 0 0.000132758)
(-0.00156606 0 0.000134013)
(-0.00173122 0 0.000136519)
(-0.00191023 0 0.000137727)
(-0.00208002 0 0.000122637)
(-0.00222794 0 0.000120394)
(-0.00239579 0 0.000140009)
(-0.00258201 0 0.000144023)
(-0.00276358 0 0.00014064)
(-0.00293595 0 0.00012934)
(-0.00309672 0 0.000129449)
(-0.00327389 0 0.000143532)
(-0.00346116 0 0.000144159)
(-0.00364196 0 0.000137022)
(-0.00380905 0 0.000130063)
(-0.00398171 0 0.000142153)
(-0.00416711 0 0.000144422)
(-0.00435123 0 0.000140444)
(-0.00452491 0 0.000132025)
(-0.00469438 0 0.000138356)
(-0.00487387 0 0.000142164)
(-0.00505558 0 0.000141868)
(-0.00523494 0 0.000136605)
(-0.00540146 0 0.000128885)
(-0.00556688 0 0.000134627)
(-0.005743 0 0.000137359)
(-0.00591584 0 0.000133951)
(-0.0060822 0 0.000129781)
(-0.00624458 0 0.000125226)
(-0.0064058 0 0.000127855)
(-0.00656795 0 0.000126239)
(-0.00672638 0 0.000124286)
(-0.00688368 0 0.000122405)
(-0.00703692 0 0.000117663)
(-0.00718529 0 0.000114954)
(-0.00733314 0 0.000114804)
(-0.00747887 0 0.000112452)
(-0.00762024 0 0.000108072)
(-0.00775358 0 0.000101991)
(-0.00788498 0 0.000104042)
(-0.00801685 0 0.000102135)
(-0.00814536 0 9.87277e-05)
(-0.00826593 0 9.02945e-05)
(-0.00838129 0 9.02391e-05)
(-0.00849695 0 8.83724e-05)
(-0.00860702 0 8.49328e-05)
(-0.00871265 0 8.13064e-05)
(-0.00881298 0 7.67581e-05)
(-0.00890938 0 7.4213e-05)
(-0.00900283 0 7.14746e-05)
(-0.0090915 0 6.73991e-05)
(-0.00917344 0 6.17902e-05)
(-0.0092509 0 6.04726e-05)
(-0.0093258 0 5.73001e-05)
(-0.00939657 0 5.39247e-05)
(-0.0094629 0 5.01359e-05)
(-0.00952382 0 4.63786e-05)
(-0.00957986 0 4.13402e-05)
(-0.00962841 0 3.65186e-05)
(-0.00967625 0 3.70062e-05)
(-0.00972138 0 3.26749e-05)
(-0.00975955 0 2.81614e-05)
(-0.00979198 0 2.30052e-05)
(-0.00982089 0 2.1949e-05)
(-0.00984708 0 1.82783e-05)
(-0.00986749 0 1.46487e-05)
(-0.00988412 0 1.07342e-05)
(-0.00989432 0 6.15411e-06)
(-0.00990129 0 5.09424e-06)
(-0.00990588 0 1.70454e-06)
(-0.00990521 0 -1.73019e-06)
(-0.00990114 0 -4.65312e-06)
(-0.00989345 0 -8.70756e-06)
(-0.00987782 0 -1.49475e-05)
(-0.00985884 0 -1.46653e-05)
(-0.00983893 0 -1.73789e-05)
(-0.0098147 0 -2.02595e-05)
(-0.00978716 0 -2.32818e-05)
(-0.00975529 0 -2.6246e-05)
(-0.00971988 0 -2.93524e-05)
(-0.00967975 0 -3.32406e-05)
(-0.00963645 0 -3.45677e-05)
(-0.00959082 0 -3.70972e-05)
(-0.00954175 0 -3.96054e-05)
(-0.00948967 0 -4.21059e-05)
(-0.00943415 0 -4.47262e-05)
(-0.00937523 0 -4.71979e-05)
(-0.00931388 0 -4.85318e-05)
(-0.00925057 0 -5.01773e-05)
(-0.00918513 0 -5.21174e-05)
(-0.00911645 0 -5.52377e-05)
(-0.00904498 0 -5.69773e-05)
(-0.008972 0 -5.81652e-05)
(-0.00889676 0 -5.98105e-05)
(-0.00881953 0 -6.13237e-05)
(-0.00874051 0 -6.27603e-05)
(-0.00865955 0 -6.40651e-05)
(-0.00857695 0 -6.52153e-05)
(-0.00849294 0 -6.62574e-05)
(-0.00840786 0 -6.73678e-05)
(-0.00832118 0 -6.87269e-05)
(-0.008233 0 -6.94612e-05)
(-0.00814397 0 -7.01709e-05)
(-0.008054 0 -7.08677e-05)
(-0.00796318 0 -7.14721e-05)
(-0.00787162 0 -7.19524e-05)
(-0.00777953 0 -7.22962e-05)
(-0.007687 0 -7.27754e-05)
(-0.00759351 0 -7.3676e-05)
(-0.00749917 0 -7.41744e-05)
(-0.00740466 0 -7.43171e-05)
(-0.00730996 0 -7.45295e-05)
(-0.00721493 0 -7.47343e-05)
(-0.00711972 0 -7.48032e-05)
(-0.00702455 0 -7.46515e-05)
(-0.00692954 0 -7.45398e-05)
(-0.00683463 0 -7.44713e-05)
(-0.00673982 0 -7.4392e-05)
(-0.00664514 0 -7.43003e-05)
(-0.00655065 0 -7.41616e-05)
(-0.00645641 0 -7.39645e-05)
(-0.00636245 0 -7.3731e-05)
(-0.00626884 0 -7.33805e-05)
(-0.00617574 0 -7.28771e-05)
(-0.00608332 0 -7.23361e-05)
(-0.00599161 0 -7.18476e-05)
(-0.00590053 0 -7.13779e-05)
(-0.00581003 0 -7.08889e-05)
(-0.00572019 0 -7.03403e-05)
(-0.00563105 0 -6.97382e-05)
(-0.00554266 0 -6.90828e-05)
(-0.00545506 0 -6.84098e-05)
(-0.00536829 0 -6.77208e-05)
(-0.00528238 0 -6.70624e-05)
(-0.0051973 0 -6.64501e-05)
(-0.00511299 0 -6.59003e-05)
(-0.00502941 0 -6.53138e-05)
(-0.00494662 0 -6.46984e-05)
(-0.00486461 0 -6.40612e-05)
(-0.00478342 0 -6.34136e-05)
(-0.00470304 0 -6.2785e-05)
(-0.00462345 0 -6.21571e-05)
(-0.00454469 0 -6.15101e-05)
(-0.00446677 0 -6.08314e-05)
(-0.00438975 0 -6.01017e-05)
(-0.00431369 0 -5.93277e-05)
(-0.00423861 0 -5.85296e-05)
(-0.00416456 0 -5.76985e-05)
(-0.00409156 0 -5.68572e-05)
(-0.00401962 0 -5.60124e-05)
(-0.00394875 0 -5.51739e-05)
(-0.00387893 0 -5.43379e-05)
(-0.00381018 0 -5.34978e-05)
(-0.00374249 0 -5.26624e-05)
(-0.00367584 0 -5.18432e-05)
(-0.00361022 0 -5.1048e-05)
(-0.00354559 0 -5.02869e-05)
(-0.00348191 0 -4.95544e-05)
(-0.00341916 0 -4.88345e-05)
(-0.00335734 0 -4.81183e-05)
(-0.00329643 0 -4.74174e-05)
(-0.00323642 0 -4.67313e-05)
(-0.00317729 0 -4.60316e-05)
(-0.00311907 0 -4.53249e-05)
(-0.00306175 0 -4.46124e-05)
(-0.00300535 0 -4.38937e-05)
(-0.00294986 0 -4.31741e-05)
(-0.00289527 0 -4.24603e-05)
(-0.0028416 0 -4.17525e-05)
(-0.00278882 0 -4.10477e-05)
(-0.00273693 0 -4.03514e-05)
(-0.00268591 0 -3.96593e-05)
(-0.00263577 0 -3.89738e-05)
(-0.0025865 0 -3.82961e-05)
(-0.0025381 0 -3.76329e-05)
(-0.00249055 0 -3.69835e-05)
(-0.00244383 0 -3.6329e-05)
(-0.00239797 0 -3.56576e-05)
(-0.00235295 0 -3.49647e-05)
(-0.00230881 0 -3.42675e-05)
(-0.00226554 0 -3.3592e-05)
(-0.0022231 0 -3.2953e-05)
(-0.00218143 0 -3.23424e-05)
(-0.00214052 0 -3.17519e-05)
(-0.00210033 0 -3.1188e-05)
(-0.00206083 0 -3.06716e-05)
(-0.00202197 0 -3.02068e-05)
(-0.0019837 0 -2.97615e-05)
(-0.00194602 0 -2.92982e-05)
(-0.00190895 0 -2.88095e-05)
(-0.00187252 0 -2.83156e-05)
(-0.00183672 0 -2.78288e-05)
(-0.00180154 0 -2.73388e-05)
(-0.00176698 0 -2.68323e-05)
(-0.00173305 0 -2.63225e-05)
(-0.00169976 0 -2.58373e-05)
(-0.00166705 0 -2.53876e-05)
(-0.00163489 0 -2.49631e-05)
(-0.00160326 0 -2.45565e-05)
(-0.00157213 0 -2.41748e-05)
(-0.00154147 0 -2.3819e-05)
(-0.00151127 0 -2.3472e-05)
(-0.00148153 0 -2.31169e-05)
(-0.00145226 0 -2.27501e-05)
(-0.00142347 0 -2.23715e-05)
(-0.00139516 0 -2.19785e-05)
(-0.00136734 0 -2.15773e-05)
(-0.00134003 0 -2.11887e-05)
(-0.00131318 0 -2.08301e-05)
(-0.00128677 0 -2.05007e-05)
(-0.00126075 0 -2.01941e-05)
(-0.00123513 0 -1.99112e-05)
(-0.00120986 0 -1.96506e-05)
(-0.00118494 0 -1.93939e-05)
(-0.00116037 0 -1.91159e-05)
(-0.00113618 0 -1.88061e-05)
(-0.00111239 0 -1.84768e-05)
(-0.00108901 0 -1.81479e-05)
(-0.00106603 0 -1.78309e-05)
(-0.00104344 0 -1.75305e-05)
(-0.00102122 0 -1.72528e-05)
(-0.000999327 0 -1.7005e-05)
(-0.000977737 0 -1.67856e-05)
(-0.000956427 0 -1.65792e-05)
(-0.000935397 0 -1.63658e-05)
(-0.000914663 0 -1.61357e-05)
(-0.000894242 0 -1.58934e-05)
(-0.00087414 0 -1.56475e-05)
(-0.000854353 0 -1.53996e-05)
(-0.000834879 0 -1.51478e-05)
(-0.000815719 0 -1.49018e-05)
(-0.000796856 0 -1.4681e-05)
(-0.000778256 0 -1.44919e-05)
(-0.000759894 0 -1.43178e-05)
(-0.000741775 0 -1.41334e-05)
(-0.000723927 0 -1.39199e-05)
(-0.00070638 0 -1.3671e-05)
(-0.000689161 0 -1.33955e-05)
(-0.000672277 0 -1.31168e-05)
(-0.00065571 0 -1.28589e-05)
(-0.000639427 0 -1.26315e-05)
(-0.000623404 0 -1.2432e-05)
(-0.000607623 0 -1.22507e-05)
(-0.000592083 0 -1.20694e-05)
(-0.000576802 0 -1.18686e-05)
(-0.00056181 0 -1.16391e-05)
(-0.000547132 0 -1.13857e-05)
(-0.000532777 0 -1.11199e-05)
(-0.000518741 0 -1.08615e-05)
(-0.000504996 0 -1.06363e-05)
(-0.000491499 0 -1.04617e-05)
(-0.000478204 0 -1.03231e-05)
(-0.000465099 0 -1.01826e-05)
(-0.000452206 0 -1.00121e-05)
(-0.000439562 0 -9.81445e-06)
(-0.000427179 0 -9.60619e-06)
(-0.000415047 0 -9.39298e-06)
(-0.000403171 0 -9.18685e-06)
(-0.000391531 0 -9.02109e-06)
(-0.000380088 0 -8.88464e-06)
(-0.00036884 0 -8.73727e-06)
(-0.000357814 0 -8.55857e-06)
(-0.00034704 0 -8.35042e-06)
(-0.000336523 0 -8.14903e-06)
(-0.000326243 0 -7.96447e-06)
(-0.000316163 0 -7.82146e-06)
(-0.000306256 0 -7.67446e-06)
(-0.000296544 0 -7.54526e-06)
(-0.000287019 0 -7.39071e-06)
(-0.000277696 0 -7.24546e-06)
(-0.000268578 0 -7.06989e-06)
(-0.000259686 0 -6.94345e-06)
(-0.000250949 0 -6.79569e-06)
(-0.000242387 0 -6.61456e-06)
(-0.000234115 0 -6.34677e-06)
(-0.000226018 0 -6.22183e-06)
(-0.000218093 0 -6.10253e-06)
(-0.000210484 0 -6.04766e-06)
(-0.000202942 0 -6.19679e-06)
(-0.000195463 0 -5.90481e-06)
(-0.000188467 0 -5.22744e-06)
(-0.000181151 0 -4.62582e-06)
(-0.00017629 0 -4.76157e-06)
(-0.000169077 0 -4.96827e-06)
(-0.000162811 0 -5.13745e-06)
(-0.000156281 0 -5.07098e-06)
(-0.000149845 0 -5.01625e-06)
(-0.000143617 0 -4.81058e-06)
(-0.000137619 0 -4.6721e-06)
(-0.000131722 0 -4.58177e-06)
(-0.000125976 0 -4.47383e-06)
(-0.000120328 0 -4.49237e-06)
(-0.000114627 0 -4.28482e-06)
(-0.000109438 0 -4.01005e-06)
(-0.000104329 0 -3.93583e-06)
(-9.94208e-05 0 -3.85951e-06)
(-9.45951e-05 0 -3.9518e-06)
(-8.96659e-05 0 -3.72657e-06)
(-8.5315e-05 0 -3.46733e-06)
(-8.05653e-05 0 -3.30312e-06)
(-7.67674e-05 0 -3.35076e-06)
(-7.19792e-05 0 -3.55918e-06)
(-6.78868e-05 0 -3.33369e-06)
(-6.37339e-05 0 -3.27398e-06)
(-5.96769e-05 0 -2.9926e-06)
(-5.60708e-05 0 -2.80153e-06)
(-5.24581e-05 0 -2.51111e-06)
(-4.94541e-05 0 -2.52407e-06)
(-4.58919e-05 0 -2.89796e-06)
(-4.26892e-05 0 -2.42267e-06)
(-3.99526e-05 0 -2.82896e-06)
(-3.6466e-05 0 -2.71384e-06)
(-3.35948e-05 0 -2.26547e-06)
(-3.0733e-05 0 -1.82104e-06)
(-2.83481e-05 0 -2.22327e-06)
(-2.55444e-05 0 -2.38807e-06)
(-2.35649e-05 0 -1.8631e-06)
(-2.2347e-05 0 -3.2207e-06)
(-1.95016e-05 0 -1.7495e-06)
(-2.0121e-05 0 1.23703e-06)
(-1.74197e-05 0 3.71036e-06)
(-3.29559e-05 0 1.07217e-05)
(-3.0426e-05 0 1.10108e-05)
(-3.09576e-05 0 8.69805e-06)
(-3.09362e-05 0 7.79894e-06)
(-3.07688e-05 0 6.91827e-06)
(-3.04342e-05 0 6.12469e-06)
(-3.00499e-05 0 5.5203e-06)
(-2.97719e-05 0 5.12575e-06)
(-2.95874e-05 0 4.77126e-06)
(-2.94391e-05 0 4.35933e-06)
(-2.93253e-05 0 3.94642e-06)
(-2.92058e-05 0 3.52844e-06)
(-2.89395e-05 0 3.06559e-06)
(-2.84469e-05 0 2.61816e-06)
(-2.78156e-05 0 2.2706e-06)
(-2.71747e-05 0 2.04707e-06)
(-2.65665e-05 0 1.86322e-06)
(-2.59306e-05 0 1.64246e-06)
(-2.51799e-05 0 1.3768e-06)
(-2.42779e-05 0 1.11307e-06)
(-2.32724e-05 0 8.94357e-07)
(-2.22533e-05 0 7.44281e-07)
(-2.12874e-05 0 6.64104e-07)
(-2.04281e-05 0 6.29877e-07)
(-1.97009e-05 0 6.18794e-07)
(-1.90857e-05 0 6.04031e-07)
(-1.854e-05 0 5.73077e-07)
(-1.80093e-05 0 5.19835e-07)
(-1.74409e-05 0 4.37453e-07)
(-1.67877e-05 0 2.99275e-07)
(-1.59941e-05 0 9.59315e-08)
(-1.49957e-05 0 -1.91577e-07)
(-1.37338e-05 0 -5.39326e-07)
(-1.21174e-05 0 -8.958e-07)
(-1.01519e-05 0 -1.23579e-06)
(-7.92436e-06 0 -1.50256e-06)
(-5.50146e-06 0 -1.67001e-06)
(-2.97332e-06 0 -1.74026e-06)
(-4.15271e-07 0 -1.7367e-06)
(2.11458e-06 0 -1.68598e-06)
(4.56866e-06 0 -1.60438e-06)
(6.89659e-06 0 -1.4872e-06)
(9.04248e-06 0 -1.32164e-06)
(1.0937e-05 0 -1.10306e-06)
(1.25441e-05 0 -8.66211e-07)
(1.38916e-05 0 -6.60112e-07)
(1.50636e-05 0 -5.30858e-07)
(1.61755e-05 0 -5.14436e-07)
(1.73359e-05 0 -6.09613e-07)
(1.86491e-05 0 -7.95831e-07)
(2.01997e-05 0 -1.04518e-06)
(2.20191e-05 0 -1.30338e-06)
(2.40475e-05 0 -1.45888e-06)
(2.60962e-05 0 -1.37453e-06)
(2.78935e-05 0 -1.01567e-06)
(2.92175e-05 0 -5.61534e-07)
(3.01803e-05 0 -2.96684e-07)
(3.1174e-05 0 -5.07218e-07)
(3.26025e-05 0 -1.08391e-06)
(3.44149e-05 0 -1.38698e-06)
(3.60031e-05 0 -9.99806e-07)
(3.66733e-05 0 3.75387e-08)
(3.63614e-05 0 8.93492e-07)
(3.58814e-05 0 8.67705e-07)
(3.61214e-05 0 -3.8807e-08)
(3.69922e-05 0 -5.30507e-07)
(3.74392e-05 0 2.22094e-08)
(3.69594e-05 0 9.88544e-07)
(3.62798e-05 0 9.34211e-07)
(3.67022e-05 0 -4.31869e-07)
(3.81545e-05 0 -1.12958e-06)
(3.92336e-05 0 -4.98812e-07)
(3.97512e-05 0 -3.02949e-08)
(4.09394e-05 0 -1.21304e-06)
(4.32015e-05 0 -2.30227e-06)
(4.49601e-05 0 -1.02144e-06)
(4.53218e-05 0 3.04668e-07)
(4.56335e-05 0 -1.14875e-07)
(4.40531e-05 0 7.63016e-07)
(5.17723e-05 0 9.51932e-07)
(3.10264e-05 0 2.75985e-06)
(0.0369191 0 0.00530445)
(0.0754884 0 0.00721868)
(0.0651464 0 0.00750388)
(0.0606802 0 0.00746143)
(0.0580797 0 0.00767906)
(0.0548714 0 0.00741783)
(0.0518082 0 0.00736064)
(0.0487041 0 0.00723365)
(0.0456445 0 0.00706847)
(0.0426262 0 0.00702168)
(0.0396402 0 0.00706249)
(0.0366797 0 0.00698167)
(0.0337795 0 0.00685274)
(0.0309441 0 0.00662191)
(0.0281467 0 0.00629248)
(0.025367 0 0.00619413)
(0.0226436 0 0.00618839)
(0.020019 0 0.00635054)
(0.0174224 0 0.00659985)
(0.0149057 0 0.00634619)
(0.0124783 0 0.00543098)
(0.0101269 0 0.00500087)
(0.00775833 0 0.00529262)
(0.00545641 0 0.00582877)
(0.00327144 0 0.0056645)
(0.00117585 0 0.00501935)
(-0.000848685 0 0.00441832)
(-0.00283516 0 0.00456799)
(-0.00493559 0 0.00536206)
(-0.00713982 0 0.00502561)
(-0.00927756 0 0.0038072)
(-0.0108341 0 0.00348934)
(-0.0122345 0 0.00382332)
(-0.0136075 0 0.00425542)
(-0.0151653 0 0.00416642)
(-0.0169072 0 0.0029754)
(-0.0183096 0 0.00256602)
(-0.0195498 0 0.00302871)
(-0.0205734 0 0.00331186)
(-0.021784 0 0.00327852)
(-0.023055 0 0.00314602)
(-0.0241212 0 0.00163418)
(-0.0248946 0 0.00127384)
(-0.0256101 0 0.00204373)
(-0.0263712 0 0.00233184)
(-0.0272451 0 0.00174704)
(-0.0280163 0 0.00117965)
(-0.0287622 0 0.0012918)
(-0.0293046 0 0.00150503)
(-0.0298275 0 0.00109297)
(-0.0302162 0 0.000517133)
(-0.030563 0 0.00030767)
(-0.030854 0 0.000576608)
(-0.0310789 0 0.000473727)
(-0.0312021 0 0.000201316)
(-0.0312265 0 -0.000100913)
(-0.0312146 0 0.000191307)
(-0.0313239 0 0.000536093)
(-0.0314806 0 0.000503832)
(-0.0314389 0 -0.000144045)
(-0.0312458 0 -0.00069478)
(-0.0310494 0 -0.000430214)
(-0.0311259 0 0.00027377)
(-0.0310987 0 -1.47757e-05)
(-0.0308971 0 -0.000661128)
(-0.0304912 0 -0.00131507)
(-0.0300675 0 -0.00132242)
(-0.0295636 0 -0.000981121)
(-0.029001 0 -0.00126238)
(-0.0285447 0 -0.00139197)
(-0.0280833 0 -0.00137557)
(-0.0273902 0 -0.00183074)
(-0.0265608 0 -0.00228973)
(-0.0257505 0 -0.00321017)
(-0.024896 0 -0.00319597)
(-0.0240553 0 -0.00426389)
(-0.0235371 0 -0.00539991)
(-0.0232153 0 -0.0062691)
(-0.0218278 0 -0.00699635)
(-0.0197857 0 -0.00432616)
(-0.0180452 0 -0.00300238)
(-0.0132048 0 -0.00118358)
(-0.0113082 0 -3.79302e-05)
(-0.00997033 0 0.000311725)
(-0.00923876 0 0.00049781)
(-0.00901829 0 -0.00050848)
(-0.00883055 0 -0.000815105)
(-0.00883423 0 -0.000658952)
(-0.00888476 0 -0.00056785)
(-0.00874305 0 -0.000452966)
(-0.00838218 0 -0.000568426)
(-0.00806855 0 -0.000641019)
(-0.00786036 0 -0.000754447)
(-0.00754747 0 -0.000714754)
(-0.00730902 0 -0.000823623)
(-0.00701494 0 -0.000960588)
(-0.00671817 0 -0.00132606)
(-0.00644841 0 -0.00152486)
(-0.006164 0 -0.00170068)
(-0.0059956 0 -0.00162164)
(-0.00522888 0 -0.0011979)
(-0.00467544 0 -0.00100723)
(-0.00352395 0 -0.000620922)
(-0.00321323 0 -0.000410173)
(-0.00266228 0 -0.000105316)
(-0.00243835 0 -7.34977e-05)
(-0.00217091 0 -0.000424965)
(-0.00201902 0 -0.00050108)
(-0.00187675 0 -0.000498079)
(-0.00187778 0 -0.00039836)
(-0.00173029 0 -0.000386976)
(-0.00153581 0 -0.000337452)
(-0.00138201 0 -0.000408514)
(-0.00119469 0 -0.000513764)
(-0.00107206 0 -0.000694761)
(-0.000964455 0 -0.000871304)
(-0.000812803 0 -0.0010681)
(-0.000823998 0 -0.000961139)
(-0.000413674 0 -0.000625513)
(-0.000154777 0 -0.000609189)
(0.000646229 0 -0.00027283)
(0.000744427 0 -5.59913e-05)
(0.0010205 0 0.000300903)
(0.00100111 0 0.000288195)
(0.00110006 0 2.21632e-05)
(0.00102407 0 2.60529e-05)
(0.000882648 0 -1.40262e-05)
(0.000841792 0 0.000100133)
(0.000821739 0 0.000168839)
(0.00076756 0 0.00014549)
(0.000735245 0 8.40202e-05)
(0.000667142 0 0.000162195)
(0.000585451 0 0.000180409)
(0.000507321 0 0.000195079)
(0.000428694 0 0.000171349)
(0.000348481 0 0.000187458)
(0.000245939 0 0.000268012)
(0.000137854 0 0.00026774)
(3.36764e-05 0 0.000265247)
(-8.06439e-05 0 0.000247627)
(-0.000209782 0 0.000319879)
(-0.000347958 0 0.000319341)
(-0.000470836 0 0.000318794)
(-0.000612383 0 0.000334722)
(-0.000768221 0 0.000363647)
(-0.000917462 0 0.000356452)
(-0.00106175 0 0.00034544)
(-0.00121512 0 0.000349486)
(-0.00138523 0 0.000397968)
(-0.0015528 0 0.000391757)
(-0.00171093 0 0.000399672)
(-0.00188249 0 0.000410168)
(-0.00205313 0 0.000371409)
(-0.00221682 0 0.000367606)
(-0.00238855 0 0.00041772)
(-0.00256841 0 0.000428433)
(-0.00274562 0 0.000414074)
(-0.00291613 0 0.000389142)
(-0.00308826 0 0.000396147)
(-0.00326726 0 0.000430068)
(-0.00345079 0 0.000429515)
(-0.00363156 0 0.000410074)
(-0.00380569 0 0.000394666)
(-0.00397927 0 0.000422734)
(-0.00416144 0 0.000432417)
(-0.00434686 0 0.000424364)
(-0.00452493 0 0.000401368)
(-0.00469717 0 0.000411714)
(-0.00487219 0 0.000424249)
(-0.00505539 0 0.000427012)
(-0.00523347 0 0.000409156)
(-0.00540141 0 0.000389136)
(-0.00557011 0 0.000404854)
(-0.00574716 0 0.000413523)
(-0.00591897 0 0.000398058)
(-0.00608072 0 0.000388603)
(-0.00624741 0 0.000381499)
(-0.00641227 0 0.000382127)
(-0.00657225 0 0.000375955)
(-0.00672879 0 0.000370407)
(-0.00688451 0 0.00036507)
(-0.00703834 0 0.0003542)
(-0.00718931 0 0.00034855)
(-0.00733853 0 0.000345753)
(-0.00748423 0 0.000335803)
(-0.00762482 0 0.000323141)
(-0.00776004 0 0.0003088)
(-0.00789223 0 0.000310326)
(-0.00802205 0 0.00030311)
(-0.00814847 0 0.00029392)
(-0.00827109 0 0.000276404)
(-0.00839056 0 0.000273864)
(-0.00850635 0 0.000265788)
(-0.00861625 0 0.000252776)
(-0.00872066 0 0.000242765)
(-0.0088202 0 0.000231335)
(-0.00891793 0 0.000225383)
(-0.00901276 0 0.000214829)
(-0.00910075 0 0.000202186)
(-0.00918378 0 0.000187464)
(-0.0092621 0 0.000180801)
(-0.00933558 0 0.000171214)
(-0.00940694 0 0.000163392)
(-0.00947337 0 0.00014957)
(-0.00953303 0 0.000138368)
(-0.00958832 0 0.000124154)
(-0.00963898 0 0.000113302)
(-0.0096892 0 0.000113039)
(-0.00973302 0 9.64338e-05)
(-0.00976975 0 8.49772e-05)
(-0.00980364 0 7.16841e-05)
(-0.00983387 0 6.72073e-05)
(-0.00985949 0 5.46174e-05)
(-0.00987934 0 4.36813e-05)
(-0.00989514 0 3.26953e-05)
(-0.00990617 0 1.99134e-05)
(-0.00991329 0 1.47734e-05)
(-0.00991638 0 4.43713e-06)
(-0.00991491 0 -5.35644e-06)
(-0.00991069 0 -1.30361e-05)
(-0.00990194 0 -2.61963e-05)
(-0.00988785 0 -4.13218e-05)
(-0.00987063 0 -4.39792e-05)
(-0.00984875 0 -5.26985e-05)
(-0.00982431 0 -5.93843e-05)
(-0.00979639 0 -6.99141e-05)
(-0.00976365 0 -7.88963e-05)
(-0.00972759 0 -8.78176e-05)
(-0.00968796 0 -9.80813e-05)
(-0.0096451 0 -0.000103494)
(-0.00959872 0 -0.000111151)
(-0.00954945 0 -0.000118103)
(-0.00949715 0 -0.000125981)
(-0.0094413 0 -0.000133975)
(-0.00938232 0 -0.000141121)
(-0.00932063 0 -0.000146171)
(-0.00925645 0 -0.000151518)
(-0.00918975 0 -0.000157396)
(-0.0091209 0 -0.000164483)
(-0.0090509 0 -0.000168903)
(-0.00897823 0 -0.000173875)
(-0.00890215 0 -0.000179357)
(-0.00882461 0 -0.000183292)
(-0.00874562 0 -0.000188072)
(-0.00866435 0 -0.000192348)
(-0.00858117 0 -0.000196022)
(-0.0084967 0 -0.000198768)
(-0.00841159 0 -0.000201488)
(-0.00832512 0 -0.000205602)
(-0.00823688 0 -0.000208385)
(-0.00814743 0 -0.000210694)
(-0.00805699 0 -0.000212808)
(-0.00796563 0 -0.000214794)
(-0.00787338 0 -0.000216348)
(-0.00778061 0 -0.000217469)
(-0.00768724 0 -0.000219144)
(-0.00759319 0 -0.00022126)
(-0.00749888 0 -0.000222296)
(-0.00740465 0 -0.000222424)
(-0.00731011 0 -0.000223352)
(-0.0072151 0 -0.000223927)
(-0.00711994 0 -0.000224198)
(-0.00702466 0 -0.000223994)
(-0.00692939 0 -0.000223743)
(-0.00683423 0 -0.000223533)
(-0.00673922 0 -0.000223279)
(-0.00664439 0 -0.000222941)
(-0.00654983 0 -0.000222418)
(-0.0064556 0 -0.000221747)
(-0.00636171 0 -0.000220996)
(-0.00626822 0 -0.000219947)
(-0.00617517 0 -0.000218534)
(-0.00608273 0 -0.000216788)
(-0.00599104 0 -0.000215184)
(-0.00590002 0 -0.000213719)
(-0.00580957 0 -0.000212309)
(-0.00571975 0 -0.000210679)
(-0.0056306 0 -0.000208971)
(-0.0055421 0 -0.000207184)
(-0.00545429 0 -0.000205352)
(-0.00536721 0 -0.000203402)
(-0.00528096 0 -0.000201428)
(-0.00519559 0 -0.00019951)
(-0.00511105 0 -0.00019774)
(-0.00502732 0 -0.000195895)
(-0.00494441 0 -0.000194012)
(-0.00486233 0 -0.00019209)
(-0.00478108 0 -0.000190139)
(-0.00470068 0 -0.000188212)
(-0.00462115 0 -0.000186265)
(-0.0045425 0 -0.000184255)
(-0.00446476 0 -0.000182174)
(-0.00438793 0 -0.000179981)
(-0.00431204 0 -0.000177685)
(-0.00423711 0 -0.000175337)
(-0.00416315 0 -0.000172914)
(-0.0040902 0 -0.000170451)
(-0.00401827 0 -0.000167967)
(-0.00394737 0 -0.000165494)
(-0.0038775 0 -0.000163021)
(-0.00380866 0 -0.000160546)
(-0.00374083 0 -0.000158098)
(-0.00367402 0 -0.000155688)
(-0.00360821 0 -0.000153336)
(-0.00354339 0 -0.000151062)
(-0.00347953 0 -0.000148843)
(-0.00341665 0 -0.000146652)
(-0.00335471 0 -0.000144474)
(-0.00329373 0 -0.000142328)
(-0.00323368 0 -0.000140212)
(-0.00317456 0 -0.000138074)
(-0.00311638 0 -0.000135926)
(-0.00305911 0 -0.000133772)
(-0.00300277 0 -0.000131611)
(-0.00294734 0 -0.000129449)
(-0.00289282 0 -0.0001273)
(-0.0028392 0 -0.000125169)
(-0.00278649 0 -0.000123055)
(-0.00273466 0 -0.000120972)
(-0.00268372 0 -0.000118908)
(-0.00263366 0 -0.000116859)
(-0.00258446 0 -0.000114814)
(-0.00253615 0 -0.000112785)
(-0.00248872 0 -0.00011078)
(-0.00244216 0 -0.000108786)
(-0.00239645 0 -0.000106787)
(-0.00235157 0 -0.000104761)
(-0.00230752 0 -0.000102728)
(-0.00226428 0 -0.000100737)
(-0.00222184 0 -9.88386e-05)
(-0.00218016 0 -9.70383e-05)
(-0.00213921 0 -9.53117e-05)
(-0.00209897 0 -9.36462e-05)
(-0.00205942 0 -9.20696e-05)
(-0.00202056 0 -9.06023e-05)
(-0.00198236 0 -8.91957e-05)
(-0.0019448 0 -8.77681e-05)
(-0.00190787 0 -8.62827e-05)
(-0.00187158 0 -8.47744e-05)
(-0.00183594 0 -8.32901e-05)
(-0.00180091 0 -8.18284e-05)
(-0.00176648 0 -8.036e-05)
(-0.00173263 0 -7.88948e-05)
(-0.00169935 0 -7.74826e-05)
(-0.00166664 0 -7.61528e-05)
(-0.00163446 0 -7.48886e-05)
(-0.00160282 0 -7.36697e-05)
(-0.0015717 0 -7.25049e-05)
(-0.0015411 0 -7.13966e-05)
(-0.00151098 0 -7.03109e-05)
(-0.00148136 0 -6.92155e-05)
(-0.00145221 0 -6.81098e-05)
(-0.00142353 0 -6.6998e-05)
(-0.00139531 0 -6.58692e-05)
(-0.00136753 0 -6.47305e-05)
(-0.00134019 0 -6.36252e-05)
(-0.00131328 0 -6.25943e-05)
(-0.00128677 0 -6.1633e-05)
(-0.00126066 0 -6.07154e-05)
(-0.00123496 0 -5.98306e-05)
(-0.00120966 0 -5.89796e-05)
(-0.00118476 0 -5.8139e-05)
(-0.00116025 0 -5.72682e-05)
(-0.00113611 0 -5.63456e-05)
(-0.00111236 0 -5.53905e-05)
(-0.00108899 0 -5.44418e-05)
(-0.00106598 0 -5.35282e-05)
(-0.00104333 0 -5.26648e-05)
(-0.00102101 0 -5.18621e-05)
(-0.00099902 0 -5.1126e-05)
(-0.000977354 0 -5.04443e-05)
(-0.000956001 0 -4.97836e-05)
(-0.000934958 0 -4.91049e-05)
(-0.00091423 0 -4.83897e-05)
(-0.000893823 0 -4.76496e-05)
(-0.000873734 0 -4.69087e-05)
(-0.000853949 0 -4.61754e-05)
(-0.000834453 0 -4.54444e-05)
(-0.000815245 0 -4.4729e-05)
(-0.000796331 0 -4.40652e-05)
(-0.000777708 0 -4.34626e-05)
(-0.000759375 0 -4.28768e-05)
(-0.000741337 0 -4.22506e-05)
(-0.000723606 0 -4.1558e-05)
(-0.00070618 0 -4.08083e-05)
(-0.000689048 0 -4.00323e-05)
(-0.000672196 0 -3.92758e-05)
(-0.000655608 0 -3.85787e-05)
(-0.000639272 0 -3.7947e-05)
(-0.000623191 0 -3.73594e-05)
(-0.000607379 0 -3.67844e-05)
(-0.000591854 0 -3.61846e-05)
(-0.000576628 0 -3.5529e-05)
(-0.000561704 0 -3.48172e-05)
(-0.00054707 0 -3.40749e-05)
(-0.000532713 0 -3.33375e-05)
(-0.000518615 0 -3.26435e-05)
(-0.000504764 0 -3.2026e-05)
(-0.00049116 0 -3.14966e-05)
(-0.000477807 0 -3.10221e-05)
(-0.000464707 0 -3.05309e-05)
(-0.000451866 0 -2.99759e-05)
(-0.000439276 0 -2.9373e-05)
(-0.00042692 0 -2.87794e-05)
(-0.000414769 0 -2.81996e-05)
(-0.000402834 0 -2.76343e-05)
(-0.000391134 0 -2.71243e-05)
(-0.000379681 0 -2.66459e-05)
(-0.000368487 0 -2.61443e-05)
(-0.000357525 0 -2.55815e-05)
(-0.000346797 0 -2.49964e-05)
(-0.000336273 0 -2.44256e-05)
(-0.000325959 0 -2.39336e-05)
(-0.000315834 0 -2.34939e-05)
(-0.000305909 0 -2.30712e-05)
(-0.000296189 0 -2.2615e-05)
(-0.000286703 0 -2.21616e-05)
(-0.00027742 0 -2.16769e-05)
(-0.000268323 0 -2.11849e-05)
(-0.000259448 0 -2.06667e-05)
(-0.000250733 0 -2.02835e-05)
(-0.000242126 0 -1.98582e-05)
(-0.000233878 0 -1.9302e-05)
(-0.000225897 0 -1.9156e-05)
(-0.000217932 0 -1.84662e-05)
(-0.00021058 0 -1.74388e-05)
(-0.000202645 0 -1.67567e-05)
(-0.000197788 0 -1.67822e-05)
(-0.000190022 0 -1.60929e-05)
(-0.000183228 0 -1.53838e-05)
(-0.000176156 0 -1.51009e-05)
(-0.000169271 0 -1.53138e-05)
(-0.000162664 0 -1.53987e-05)
(-0.000156132 0 -1.51523e-05)
(-0.000149787 0 -1.49e-05)
(-0.000143565 0 -1.43539e-05)
(-0.000137534 0 -1.3956e-05)
(-0.000131639 0 -1.36673e-05)
(-0.000125894 0 -1.33559e-05)
(-0.000120227 0 -1.33195e-05)
(-0.000114683 0 -1.27997e-05)
(-0.000109524 0 -1.21848e-05)
(-0.000104356 0 -1.18629e-05)
(-9.9465e-05 0 -1.13419e-05)
(-9.44609e-05 0 -1.12561e-05)
(-9.02449e-05 0 -1.08626e-05)
(-8.55052e-05 0 -1.05763e-05)
(-8.09477e-05 0 -1.03967e-05)
(-7.64313e-05 0 -1.03254e-05)
(-7.19557e-05 0 -1.03162e-05)
(-6.7928e-05 0 -9.67876e-06)
(-6.38395e-05 0 -9.74365e-06)
(-5.96738e-05 0 -9.00696e-06)
(-5.60555e-05 0 -8.74377e-06)
(-5.24983e-05 0 -7.92864e-06)
(-4.91624e-05 0 -7.96302e-06)
(-4.58762e-05 0 -7.88516e-06)
(-4.26519e-05 0 -7.06444e-06)
(-3.93027e-05 0 -6.86904e-06)
(-3.65752e-05 0 -7.08449e-06)
(-3.33816e-05 0 -7.2626e-06)
(-3.0822e-05 0 -6.17425e-06)
(-2.9853e-05 0 -7.84466e-06)
(-2.63786e-05 0 -6.52018e-06)
(-2.51526e-05 0 -3.00193e-06)
(-2.08127e-05 0 -2.01886e-06)
(-3.81698e-05 0 -2.64392e-06)
(-3.49889e-05 0 1.50213e-06)
(-3.61074e-05 0 6.29722e-06)
(-3.65411e-05 0 6.91959e-06)
(-3.63493e-05 0 5.88765e-06)
(-3.49652e-05 0 3.71694e-06)
(-3.3926e-05 0 3.45124e-06)
(-3.31586e-05 0 2.78306e-06)
(-3.25442e-05 0 2.20422e-06)
(-3.20906e-05 0 2.05644e-06)