/*--------------------------------*- C++ -*----------------------------------*\
| =========                 |                                                 |
| \\      /  F ield         | OpenFOAM: The Open Source CFD Toolbox           |
|  \\    /   O peration     | Version:  v2006                                 |
|   \\  /    A nd           | Website:  www.openfoam.com                      |
|    \\/     M anipulation  |                                                 |
\*---------------------------------------------------------------------------*/
FoamFile
{
    version     2.0;
    format      ascii;
    class       volScalarField;
    location    "3.8";
    object      nut;
}
// * * * * * * * * * * * * * * * * * * * * * * * * * * * * * * * * * * * * * //

dimensions      [0 2 -1 0 0 0 0];


internalField   nonuniform List<scalar> 
33000
(
1.38145e-09
1.95981e-09
1.9348e-09
2.01159e-09
2.06975e-09
2.11961e-09
2.15502e-09
2.17457e-09
2.18274e-09
2.17958e-09
2.16817e-09
2.14884e-09
2.12588e-09
2.09969e-09
2.07719e-09
2.0568e-09
2.04116e-09
2.0224e-09
1.99775e-09
1.96626e-09
1.93751e-09
1.91662e-09
1.90421e-09
1.89379e-09
1.88048e-09
1.86825e-09
1.85784e-09
1.84902e-09
1.83717e-09
1.81772e-09
1.80116e-09
1.79235e-09
1.78849e-09
1.78198e-09
1.77034e-09
1.75487e-09
1.74427e-09
1.7422e-09
1.74527e-09
1.75046e-09
1.74841e-09
1.73427e-09
1.71621e-09
1.70204e-09
1.69354e-09
1.69273e-09
1.69555e-09
1.69523e-09
1.69089e-09
1.68182e-09
1.66774e-09
1.65612e-09
1.65422e-09
1.65686e-09
1.65608e-09
1.65041e-09
1.64496e-09
1.65235e-09
1.67222e-09
1.69294e-09
1.7024e-09
1.69812e-09
1.69176e-09
1.69447e-09
1.70516e-09
1.71037e-09
1.70164e-09
1.68055e-09
1.65833e-09
1.64132e-09
1.62639e-09
1.6098e-09
1.58892e-09
1.57011e-09
1.56785e-09
1.60929e-09
1.73152e-09
2.02408e-09
2.60966e-09
3.0148e-09
3.02968e-09
3.09613e-09
3.20762e-09
3.53087e-09
3.61429e-09
3.50535e-09
3.46625e-09
3.37572e-09
3.29806e-09
3.28677e-09
3.37701e-09
3.38926e-09
3.3688e-09
3.3613e-09
3.32084e-09
3.26492e-09
3.17442e-09
3.18829e-09
3.3901e-09
4.18523e-09
4.27299e-09
3.94576e-09
3.83734e-09
3.8061e-09
4.08981e-09
4.15888e-09
4.21189e-09
4.16817e-09
4.04351e-09
3.89643e-09
3.83864e-09
3.82852e-09
3.78445e-09
3.74336e-09
3.6645e-09
3.62466e-09
3.72763e-09
4.37873e-09
4.52264e-09
4.33696e-09
4.33444e-09
4.34193e-09
4.55699e-09
4.57178e-09
4.5946e-09
4.54743e-09
4.48047e-09
4.48132e-09
4.50633e-09
4.50919e-09
4.52447e-09
4.54112e-09
4.55803e-09
4.58309e-09
4.61269e-09
4.64641e-09
4.68453e-09
4.72635e-09
4.77245e-09
4.82454e-09
4.88555e-09
4.95007e-09
5.01659e-09
5.09204e-09
5.18107e-09
5.27715e-09
5.37822e-09
5.4878e-09
5.61092e-09
5.75296e-09
5.91199e-09
6.08225e-09
6.26142e-09
6.46011e-09
6.69185e-09
6.95926e-09
7.26089e-09
7.57884e-09
7.93251e-09
8.34825e-09
8.83879e-09
9.40118e-09
1.00134e-08
1.07251e-08
1.15916e-08
1.2641e-08
1.38539e-08
1.52548e-08
1.70117e-08
1.92768e-08
2.21462e-08
2.56566e-08
2.9972e-08
3.53952e-08
4.17631e-08
4.41206e-08
4.43125e-08
4.45016e-08
4.05832e-08
3.51467e-08
3.05996e-08
2.69147e-08
2.39123e-08
2.14382e-08
1.94218e-08
1.78256e-08
1.65065e-08
1.53433e-08
1.43386e-08
1.34998e-08
1.27817e-08
1.21484e-08
1.15871e-08
1.10888e-08
1.06466e-08
1.02524e-08
9.89199e-09
9.56624e-09
9.27653e-09
9.01329e-09
8.76803e-09
8.53895e-09
8.33135e-09
8.14468e-09
7.97431e-09
7.81659e-09
7.66754e-09
7.5274e-09
7.40003e-09
7.28557e-09
7.17981e-09
7.07892e-09
6.98414e-09
6.89969e-09
6.82362e-09
6.75186e-09
6.6845e-09
6.62118e-09
6.56263e-09
6.51267e-09
6.46937e-09
6.42796e-09
6.38872e-09
6.35243e-09
6.32089e-09
6.29539e-09
6.27319e-09
6.25305e-09
6.23686e-09
6.22276e-09
6.20999e-09
6.20252e-09
6.19931e-09
6.19794e-09
6.19857e-09
6.20006e-09
6.20447e-09
6.21321e-09
6.22466e-09
6.23732e-09
6.25188e-09
6.26964e-09
6.28904e-09
6.3102e-09
6.33447e-09
6.35868e-09
6.38441e-09
6.41587e-09
6.44855e-09
6.48004e-09
6.5138e-09
6.55074e-09
6.59047e-09
6.6302e-09
6.67088e-09
6.71579e-09
6.76177e-09
6.80723e-09
6.8548e-09
6.90609e-09
6.95958e-09
7.01255e-09
7.06511e-09
7.1208e-09
7.17949e-09
7.24031e-09
7.30386e-09
7.36866e-09
7.43177e-09
7.49631e-09
7.56388e-09
7.63531e-09
7.71014e-09
7.78569e-09
7.86242e-09
7.94063e-09
8.02103e-09
8.10529e-09
8.19286e-09
8.28073e-09
8.37e-09
8.46775e-09
8.56892e-09
8.67013e-09
8.77259e-09
8.87867e-09
8.9894e-09
9.1063e-09
9.22818e-09
9.3542e-09
9.48449e-09
9.61509e-09
9.75156e-09
9.89873e-09
1.00524e-08
1.02112e-08
1.03778e-08
1.05492e-08
1.07288e-08
1.09192e-08
1.11191e-08
1.133e-08
1.15478e-08
1.1775e-08
1.20184e-08
1.22739e-08
1.25447e-08
1.28194e-08
1.31115e-08
1.34273e-08
1.37576e-08
1.41055e-08
1.44655e-08
1.48485e-08
1.5256e-08
1.56898e-08
1.61459e-08
1.66256e-08
1.71404e-08
1.76961e-08
1.8289e-08
1.89213e-08
1.95789e-08
2.02911e-08
2.10698e-08
2.1898e-08
2.27665e-08
2.274e-08
2.26448e-08
2.25526e-08
2.24634e-08
2.23765e-08
2.22915e-08
2.22082e-08
2.21263e-08
2.20455e-08
2.19657e-08
2.18865e-08
2.18078e-08
2.17291e-08
2.16505e-08
2.15724e-08
2.14944e-08
2.1416e-08
2.1337e-08
2.1257e-08
2.11763e-08
2.10953e-08
2.10135e-08
2.09307e-08
2.08461e-08
2.07611e-08
2.06758e-08
2.05893e-08
2.0502e-08
2.04135e-08
2.03246e-08
2.02352e-08
2.01448e-08
2.00532e-08
1.99607e-08
1.9868e-08
1.97738e-08
1.9678e-08
1.95806e-08
1.94813e-08
1.9381e-08
1.92797e-08
1.9177e-08
1.90734e-08
1.89684e-08
1.88622e-08
1.87553e-08
1.86478e-08
1.85397e-08
1.84309e-08
1.8322e-08
1.82132e-08
1.81042e-08
1.79953e-08
1.78862e-08
1.77768e-08
1.76677e-08
1.7559e-08
1.7451e-08
1.73435e-08
1.72365e-08
1.71301e-08
1.70241e-08
1.69188e-08
1.68143e-08
1.67102e-08
1.66063e-08
1.65036e-08
1.6402e-08
1.63008e-08
1.62007e-08
1.61015e-08
1.60031e-08
1.59052e-08
1.58082e-08
1.57119e-08
1.56166e-08
1.55223e-08
1.54294e-08
1.53374e-08
1.52469e-08
1.51575e-08
1.50687e-08
1.49818e-08
1.48957e-08
1.48109e-08
1.47269e-08
1.46435e-08
1.45626e-08
1.44795e-08
1.43985e-08
1.43174e-08
1.42335e-08
1.41544e-08
1.40833e-08
1.39992e-08
1.39284e-08
1.38481e-08
1.37316e-08
1.36634e-08
1.3624e-08
1.35101e-08
1.35438e-08
1.35083e-08
1.37158e-08
1.36642e-08
1.37107e-08
1.36628e-08
1.36487e-08
1.35955e-08
1.35607e-08
1.35076e-08
1.34642e-08
1.34072e-08
1.33557e-08
1.32987e-08
1.32245e-08
1.3169e-08
1.31247e-08
1.30479e-08
1.30301e-08
1.29819e-08
1.30271e-08
1.29761e-08
1.2955e-08
1.29095e-08
1.28676e-08
1.2822e-08
1.27773e-08
1.27297e-08
1.26814e-08
1.26168e-08
1.25641e-08
1.25277e-08
1.24521e-08
1.24304e-08
1.23663e-08
1.21727e-08
1.21371e-08
1.2166e-08
1.19647e-08
1.24193e-08
1.2471e-08
1.26434e-08
1.23676e-08
1.25664e-08
1.279e-08
1.28058e-08
1.27622e-08
1.26893e-08
1.26081e-08
1.25252e-08
1.24453e-08
1.23709e-08
1.23028e-08
1.2241e-08
1.21854e-08
1.21354e-08
1.20899e-08
1.20484e-08
1.20111e-08
1.19775e-08
1.19473e-08
1.19201e-08
1.18957e-08
1.18736e-08
1.18537e-08
1.18353e-08
1.18191e-08
1.18059e-08
1.17942e-08
1.17838e-08
1.17756e-08
1.17691e-08
1.17642e-08
1.1761e-08
1.17594e-08
1.17594e-08
1.17609e-08
1.1764e-08
1.1768e-08
1.1773e-08
1.17799e-08
1.17877e-08
1.17964e-08
1.18061e-08
1.18165e-08
1.18274e-08
1.18388e-08
1.18509e-08
1.18639e-08
1.18781e-08
1.18934e-08
1.19102e-08
1.19287e-08
1.19489e-08
1.19702e-08
1.19913e-08
1.20112e-08
1.20302e-08
1.20502e-08
1.20739e-08
1.2101e-08
1.21274e-08
1.21513e-08
1.21713e-08
1.2191e-08
1.22179e-08
1.22499e-08
1.22797e-08
1.23034e-08
1.23253e-08
1.23564e-08
1.23943e-08
1.24273e-08
1.2454e-08
1.24867e-08
1.25297e-08
1.2572e-08
1.25896e-08
1.2507e-08
1.27392e-08
1.14609e-08
1.21091e-08
1.66458e-09
2.05826e-09
9.24302e-09
1.09905e-08
9.37521e-09
8.61101e-09
8.09046e-09
7.87107e-09
7.81111e-09
7.8774e-09
7.97999e-09
8.05768e-09
8.08906e-09
8.11147e-09
8.12331e-09
8.24885e-09
8.46372e-09
8.83051e-09
9.18784e-09
9.50406e-09
9.58893e-09
9.67158e-09
9.93021e-09
9.88091e-09
1.01952e-08
1.11383e-08
1.25509e-08
1.41146e-08
1.3552e-08
1.166e-08
1.01872e-08
1.06967e-08
1.48379e-08
2.14412e-08
2.48781e-08
2.19029e-08
1.7366e-08
1.9317e-08
2.73042e-08
3.19906e-08
4.1601e-08
3.22033e-08
2.48763e-08
3.17407e-08
9.07777e-08
9.15609e-08
9.22964e-08
9.31502e-08
9.01793e-08
7.06473e-08
4.68341e-08
4.01592e-08
3.83119e-08
3.14346e-08
3.24268e-08
2.38176e-08
1.61949e-08
1.4575e-08
1.52285e-08
1.79997e-08
1.95748e-08
1.4112e-08
1.07459e-08
1.05638e-08
1.29016e-08
1.5015e-08
1.22789e-08
9.14863e-09
7.71723e-09
7.25944e-09
6.97883e-09
7.07828e-09
7.34238e-09
7.37169e-09
7.22417e-09
6.83195e-09
5.90785e-09
6.02683e-09
6.55819e-09
7.37874e-09
5.99672e-09
5.13444e-09
5.86692e-09
4.77597e-09
3.63709e-09
4.16196e-09
1.2307e-08
7.75048e-09
7.19082e-09
1.32362e-08
1.14553e-08
1.41442e-08
1.14054e-08
1.49159e-08
1.35598e-08
9.40296e-09
8.15111e-09
6.54748e-09
7.15407e-09
4.41675e-09
2.99921e-09
2.24767e-09
2.90063e-09
5.69251e-09
5.50368e-09
8.15425e-09
9.18405e-09
2.43916e-08
1.43514e-08
1.98929e-08
8.69158e-08
7.85079e-08
2.73913e-08
1.77288e-08
1.45855e-08
1.03628e-08
1.26092e-08
9.84195e-09
6.6528e-09
4.21425e-09
5.21871e-09
1.25028e-08
1.20775e-08
1.83013e-08
2.169e-08
3.1027e-08
4.61983e-08
1.39905e-07
1.67167e-07
9.23253e-08
8.5678e-08
1.23662e-07
9.17298e-08
6.32782e-08
5.40206e-08
4.87606e-08
4.65237e-08
4.26233e-08
3.9292e-08
3.60674e-08
3.35932e-08
3.13329e-08
2.89144e-08
2.68851e-08
2.56208e-08
2.44362e-08
2.2944e-08
2.14532e-08
2.04481e-08
1.96984e-08
1.90783e-08
1.82913e-08
1.74056e-08
1.66155e-08
1.60332e-08
1.56782e-08
1.53646e-08
1.48654e-08
1.43442e-08
1.39666e-08
1.37298e-08
1.3597e-08
1.34152e-08
1.31924e-08
1.30047e-08
1.29617e-08
1.3009e-08
1.29679e-08
1.28904e-08
1.29726e-08
1.31952e-08
1.33511e-08
1.34447e-08
1.36282e-08
1.39719e-08
1.4316e-08
1.46082e-08
1.49618e-08
1.5372e-08
1.58123e-08
1.62261e-08
1.65728e-08
1.70247e-08
1.75474e-08
1.81351e-08
1.86999e-08
1.92118e-08
1.96586e-08
2.01796e-08
2.08165e-08
2.14779e-08
2.21959e-08
2.31125e-08
2.39826e-08
2.47274e-08
2.54324e-08
2.62534e-08
2.73529e-08
2.87429e-08
3.00083e-08
3.10355e-08
3.22413e-08
3.39158e-08
3.58831e-08
3.76653e-08
3.94471e-08
4.15815e-08
4.41537e-08
4.72812e-08
5.04784e-08
5.36669e-08
5.75731e-08
6.26187e-08
6.84946e-08
7.4881e-08
8.19742e-08
9.06677e-08
1.0125e-07
1.14229e-07
1.34839e-07
1.63223e-07
1.94605e-07
2.35527e-07
2.92784e-07
3.59895e-07
3.60996e-07
3.6246e-07
3.6466e-07
3.29843e-07
2.6712e-07
2.18342e-07
1.8431e-07
1.6135e-07
1.43554e-07
1.31084e-07
1.2124e-07
1.12001e-07
1.03404e-07
9.59476e-08
9.06286e-08
8.68079e-08
8.35635e-08
8.05475e-08
7.71711e-08
7.46898e-08
7.289e-08
7.05695e-08
6.81799e-08
6.70149e-08
6.62627e-08
6.49984e-08
6.38511e-08
6.26201e-08
6.19978e-08
6.17488e-08
6.10373e-08
6.03697e-08
5.9711e-08
5.89283e-08
5.90113e-08
5.92948e-08
5.91203e-08
5.87845e-08
5.84441e-08
5.81235e-08
5.8029e-08
5.8205e-08
5.85092e-08
5.87128e-08
5.86661e-08
5.85151e-08
5.84998e-08
5.8624e-08
5.8811e-08
5.88427e-08
5.90274e-08
5.92836e-08
5.96336e-08
5.97326e-08
5.99168e-08
5.99484e-08
5.97007e-08
6.01558e-08
6.07208e-08
6.08364e-08
6.09118e-08
6.10913e-08
6.11151e-08
6.14648e-08
6.17374e-08
6.19508e-08
6.2275e-08
6.23745e-08
6.24705e-08
6.29408e-08
6.3187e-08
6.32435e-08
6.35067e-08
6.39056e-08
6.43085e-08
6.4639e-08
6.4981e-08
6.52774e-08
6.56058e-08
6.63499e-08
6.67961e-08
6.72397e-08
6.79176e-08
6.82612e-08
6.90768e-08
6.98242e-08
7.05306e-08
7.12712e-08
7.22463e-08
7.32227e-08
7.4173e-08
7.51969e-08
7.62243e-08
7.7505e-08
7.88681e-08
8.01885e-08
8.16209e-08
8.30277e-08
8.44014e-08
8.63972e-08
8.82699e-08
9.00994e-08
9.20231e-08
9.3994e-08
9.6224e-08
9.86573e-08
1.011e-07
1.03619e-07
1.06385e-07
1.09303e-07
1.12258e-07
1.15275e-07
1.18493e-07
1.21846e-07
1.25386e-07
1.29166e-07
1.32859e-07
1.36636e-07
1.40977e-07
1.45465e-07
1.49986e-07
1.54554e-07
1.59477e-07
1.64557e-07
1.69836e-07
1.75228e-07
1.80635e-07
1.86764e-07
1.92795e-07
1.99021e-07
2.05672e-07
2.12529e-07
2.19804e-07
2.26441e-07
2.32954e-07
2.40608e-07
2.50087e-07
2.58485e-07
2.66088e-07
2.75131e-07
2.83403e-07
2.92346e-07
3.03144e-07
3.12718e-07
3.22712e-07
3.33923e-07
3.45087e-07
3.56511e-07
3.67227e-07
3.79234e-07
3.91393e-07
4.04393e-07
4.19494e-07
4.32455e-07
4.4512e-07
4.59722e-07
4.75063e-07
4.9078e-07
5.05034e-07
5.19403e-07
5.39539e-07
5.57949e-07
5.75585e-07
5.9586e-07
6.16649e-07
6.3784e-07
6.60222e-07
6.81714e-07
7.05121e-07
7.35157e-07
7.66113e-07
7.95147e-07
8.2996e-07
8.30677e-07
8.31471e-07
8.32083e-07
8.32668e-07
8.33023e-07
8.33413e-07
8.33637e-07
8.34164e-07
8.34255e-07
8.34907e-07
8.34808e-07
8.34824e-07
8.35014e-07
8.35104e-07
8.36176e-07
8.36276e-07
8.37807e-07
8.37908e-07
8.36679e-07
8.37604e-07
8.39225e-07
8.38962e-07
8.34862e-07
8.46491e-07
3.36452e-07
3.60039e-07
2.57246e-07
2.19642e-07
1.09231e-07
1.14155e-07
2.23052e-07
2.76583e-07
2.44599e-07
2.57805e-07
5.07041e-07
4.97207e-07
7.66837e-07
8.27735e-07
8.2941e-07
8.33209e-07
8.38373e-07
8.40281e-07
5.19249e-07
5.71386e-07
4.66941e-07
4.26983e-07
2.14617e-07
2.24367e-07
4.47789e-07
4.86043e-07
4.20858e-07
4.61276e-07
8.31839e-07
8.36163e-07
8.4324e-07
8.38596e-07
8.35596e-07
6.4131e-07
8.32028e-07
8.34257e-07
7.77875e-07
1.90978e-07
2.0659e-07
1.07521e-07
1.12111e-07
5.14563e-08
4.80664e-08
2.25185e-08
2.17904e-08
4.14853e-08
4.44426e-08
4.35551e-08
5.25559e-08
8.33133e-08
1.06048e-07
1.37053e-07
1.68761e-07
2.03718e-07
2.4305e-07
2.88267e-07
3.39883e-07
3.9832e-07
4.65048e-07
5.4277e-07
6.34181e-07
7.42364e-07
8.10666e-07
8.14027e-07
8.17048e-07
8.19739e-07
8.21666e-07
8.22849e-07
8.23371e-07
8.23417e-07
8.23239e-07
8.23066e-07
8.23002e-07
8.23149e-07
8.23668e-07
8.24466e-07
8.25534e-07
8.26863e-07
8.28359e-07
8.2971e-07
8.30522e-07
8.31196e-07
8.31851e-07
8.32474e-07
8.33064e-07
8.33513e-07
8.25533e-07
8.06694e-07
7.92732e-07
7.83002e-07
7.74594e-07
7.64764e-07
7.52452e-07
7.38622e-07
7.24828e-07
7.11553e-07
6.97952e-07
6.83354e-07
6.69197e-07
6.58996e-07
6.55477e-07
6.57218e-07
6.57782e-07
6.51204e-07
6.41423e-07
6.38054e-07
6.45155e-07
6.59919e-07
6.67267e-07
6.45536e-07
6.24396e-07
6.26365e-07
6.45337e-07
6.56893e-07
6.3442e-07
6.06519e-07
6.11281e-07
6.29813e-07
6.25046e-07
5.98965e-07
6.04999e-07
6.24126e-07
6.60475e-07
8.33449e-07
1.81701e-07
1.12034e-07
5.59309e-08
1.10633e-07
9.7889e-10
1.13282e-09
6.00675e-09
6.43371e-09
5.8625e-09
5.46935e-09
5.27385e-09
5.16971e-09
5.12649e-09
5.15856e-09
5.2295e-09
5.25353e-09
5.26928e-09
5.27667e-09
5.30116e-09
5.35224e-09
5.5599e-09
6.01398e-09
6.5598e-09
6.77307e-09
6.55021e-09
6.21766e-09
6.29807e-09
6.5918e-09
7.25428e-09
7.77581e-09
8.81248e-09
1.01857e-08
1.02611e-08
9.26917e-09
7.89075e-09
7.14802e-09
9.15627e-09
1.56024e-08
1.95827e-08
1.8233e-08
1.38044e-08
1.16659e-08
1.48699e-08
2.31565e-08
3.91362e-08
6.14995e-08
2.78669e-08
1.77735e-08
1.93472e-08
2.60435e-08
4.30463e-08
1.28692e-07
5.79959e-08
3.26789e-08
2.11336e-08
2.17054e-08
3.40596e-08
3.1282e-08
1.87983e-08
1.27901e-08
1.11953e-08
1.37875e-08
1.45199e-08
1.13527e-08
8.84368e-09
7.05591e-09
7.08942e-09
9.16144e-09
1.11459e-08
9.4854e-09
6.55449e-09
5.54594e-09
5.99166e-09
6.49592e-09
5.82639e-09
5.49098e-09
5.48372e-09
5.30427e-09
5.21349e-09
5.40174e-09
6.57831e-09
7.61655e-09
6.10891e-09
4.77244e-09
4.37777e-09
4.17132e-09
4.46307e-09
3.21397e-09
2.45832e-09
2.4882e-09
2.25369e-09
1.71568e-09
2.54887e-09
3.8984e-09
7.07735e-09
6.85614e-09
2.16453e-08
1.12467e-08
1.13941e-08
8.98014e-09
1.15608e-08
8.95977e-09
7.95277e-09
8.47425e-09
5.40003e-09
6.01739e-09
3.13643e-09
2.31086e-09
1.79951e-09
2.34854e-09
3.63221e-09
4.47482e-09
5.70918e-09
7.52328e-09
8.68723e-09
1.4935e-08
2.06826e-08
5.20582e-08
3.1948e-08
1.60525e-08
1.32111e-08
1.64262e-08
1.09261e-08
1.30023e-08
8.52576e-09
6.36218e-09
3.88401e-09
4.61951e-09
1.02824e-08
1.01322e-08
1.61038e-08
2.06258e-08
4.18416e-08
7.16921e-08
6.82903e-08
6.2609e-08
5.11038e-08
4.58165e-08
4.96273e-08
5.28085e-08
4.86722e-08
3.9887e-08
3.64265e-08
3.4275e-08
3.18641e-08
2.9416e-08
2.70371e-08
2.54523e-08
2.41482e-08
2.28248e-08
2.14796e-08
2.02799e-08
1.94689e-08
1.88146e-08
1.80713e-08
1.71835e-08
1.62938e-08
1.56608e-08
1.53768e-08
1.51243e-08
1.46046e-08
1.40704e-08
1.36859e-08
1.33725e-08
1.31813e-08
1.29484e-08
1.27557e-08
1.26743e-08
1.25769e-08
1.24818e-08
1.23837e-08
1.23775e-08
1.24121e-08
1.24814e-08
1.25729e-08
1.26749e-08
1.28549e-08
1.30555e-08
1.32739e-08
1.35e-08
1.3764e-08
1.40817e-08
1.44694e-08
1.48537e-08
1.52017e-08
1.5515e-08
1.59424e-08
1.64924e-08
1.70313e-08
1.74406e-08
1.79345e-08
1.84929e-08
1.89957e-08
1.954e-08
2.01777e-08
2.08349e-08
2.16557e-08
2.25139e-08
2.32682e-08
2.3953e-08
2.47304e-08
2.56139e-08
2.68224e-08
2.81628e-08
2.93761e-08
3.05593e-08
3.1867e-08
3.34985e-08
3.52888e-08
3.71242e-08
3.93251e-08
4.17973e-08
4.43256e-08
4.69942e-08
5.01442e-08
5.41103e-08
5.85779e-08
6.35153e-08
6.94974e-08
7.6162e-08
8.38906e-08
9.33611e-08
1.0407e-07
1.18684e-07
1.39867e-07
1.64117e-07
1.93621e-07
2.26418e-07
2.55929e-07
2.9128e-07
3.06778e-07
2.77386e-07
2.45053e-07
2.11232e-07
1.83045e-07
1.64627e-07
1.45814e-07
1.30363e-07
1.20881e-07
1.12409e-07
1.03913e-07
9.59973e-08
8.97823e-08
8.53113e-08
8.26987e-08
7.99838e-08
7.6232e-08
7.27486e-08
7.09708e-08
6.89367e-08
6.68139e-08
6.55083e-08
6.43891e-08
6.31948e-08
6.18073e-08
6.07959e-08
6.01613e-08
5.94717e-08
5.92092e-08
5.87852e-08
5.79149e-08
5.68752e-08
5.64718e-08
5.68954e-08
5.71955e-08
5.6796e-08
5.63478e-08
5.63595e-08
5.63028e-08
5.62336e-08
5.62156e-08
5.63295e-08
5.65699e-08
5.64165e-08
5.60952e-08
5.64662e-08
5.72434e-08
5.76405e-08
5.71839e-08
5.67339e-08
5.71726e-08
5.80146e-08
5.82138e-08
5.79701e-08
5.80047e-08
5.85003e-08
5.89644e-08
5.90729e-08
5.89378e-08
5.87652e-08
5.93943e-08
6.02119e-08
6.03841e-08
6.02517e-08
6.02048e-08
6.03549e-08
6.07048e-08
6.13172e-08
6.18999e-08
6.19493e-08
6.17643e-08
6.21108e-08
6.26645e-08
6.30798e-08
6.35114e-08
6.37909e-08
6.393e-08
6.46585e-08
6.54107e-08
6.57177e-08
6.59381e-08
6.66926e-08
6.74847e-08
6.81102e-08
6.88075e-08
6.94226e-08
7.02319e-08
7.13808e-08
7.22833e-08
7.32181e-08
7.41735e-08
7.53671e-08
7.66874e-08
7.80374e-08
7.9562e-08
8.06003e-08
8.19197e-08
8.38722e-08
8.5736e-08
8.74379e-08
8.91522e-08
9.1236e-08
9.34435e-08
9.57613e-08
9.83403e-08
1.00608e-07
1.02876e-07
1.05748e-07
1.08794e-07
1.11649e-07
1.1465e-07
1.17903e-07
1.21037e-07
1.24459e-07
1.2865e-07
1.32731e-07
1.36694e-07
1.41006e-07
1.45227e-07
1.49434e-07
1.54e-07
1.59159e-07
1.6434e-07
1.68916e-07
1.74602e-07
1.81133e-07
1.86784e-07
1.92576e-07
1.98332e-07
2.05106e-07
2.13317e-07
2.20745e-07
2.26282e-07
2.32018e-07
2.40522e-07
2.50603e-07
2.59194e-07
2.66262e-07
2.73848e-07
2.8281e-07
2.94124e-07
3.0496e-07
3.13499e-07
3.23238e-07
3.33383e-07
3.44781e-07
3.57002e-07
3.67819e-07
3.7804e-07
3.9022e-07
4.06508e-07
4.22668e-07
4.3421e-07
4.45967e-07
4.58288e-07
4.74164e-07
4.90091e-07
5.05885e-07
5.23141e-07
5.41906e-07
5.59442e-07
5.74525e-07
5.94081e-07
6.16308e-07
6.40541e-07
6.54728e-07
6.76892e-07
7.06269e-07
7.36785e-07
7.61377e-07
8.05307e-07
8.34068e-07
8.67564e-07
8.90098e-07
9.34995e-07
9.64086e-07
1.04376e-06
1.07492e-06
1.14957e-06
1.15267e-06
1.10394e-06
1.15923e-06
1.15737e-06
1.36708e-06
1.42097e-06
1.78937e-06
1.67442e-06
1.05812e-06
1.17287e-06
1.21409e-06
1.71369e-06
8.75751e-07
1.04615e-06
3.12991e-07
3.19232e-07
2.3365e-07
2.04249e-07
1.02169e-07
1.12072e-07
2.31432e-07
2.50171e-07
2.78826e-07
3.02297e-07
4.66914e-07
4.0605e-07
6.1503e-07
1.03989e-06
1.0216e-06
1.23028e-06
9.76316e-07
7.65707e-07
4.10689e-07
4.17134e-07
3.70166e-07
3.49302e-07
1.89506e-07
2.0825e-07
4.30834e-07
4.56642e-07
4.41405e-07
4.89773e-07
5.40924e-07
5.85714e-07
5.56597e-07
7.32731e-07
6.24441e-07
8.11095e-07
6.37769e-07
7.99341e-07
7.67307e-07
2.01559e-07
2.24076e-07
9.91407e-08
1.00055e-07
4.66543e-08
4.24081e-08
2.09915e-08
2.1299e-08
4.26421e-08
4.40489e-08
4.67328e-08
5.2377e-08
7.35969e-08
9.25243e-08
1.3051e-07
1.49621e-07
1.60066e-07
1.81146e-07
2.08127e-07
2.41288e-07
2.80597e-07
3.27531e-07
3.83216e-07
4.47788e-07
5.21934e-07
6.0897e-07
7.13972e-07
8.4375e-07
1.00764e-06
1.21629e-06
1.47978e-06
1.80341e-06
2.1723e-06
2.52549e-06
2.72116e-06
2.67165e-06
2.45916e-06
2.20531e-06
1.96549e-06
1.74831e-06
1.57936e-06
1.44881e-06
1.34616e-06
1.26982e-06
1.21199e-06
1.16321e-06
1.11598e-06
1.06669e-06
1.01565e-06
9.66536e-07
9.22139e-07
8.83133e-07
8.5242e-07
8.31233e-07
8.16023e-07
8.02288e-07
7.86589e-07
7.68279e-07
7.49708e-07
7.34323e-07
7.23675e-07
7.15822e-07
7.06648e-07
6.93533e-07
6.78214e-07
6.6516e-07
6.57188e-07
6.53716e-07
6.52327e-07
6.524e-07
6.56618e-07
6.65972e-07
6.72235e-07
6.61512e-07
6.35446e-07
6.16065e-07
6.23956e-07
6.50129e-07
6.58069e-07
6.2593e-07
5.91753e-07
6.05474e-07
6.51126e-07
6.60067e-07
6.19366e-07
6.12197e-07
6.58422e-07
6.62207e-07
6.41741e-07
8.24066e-07
1.8225e-07
1.1165e-07
5.60687e-08
1.12956e-07
6.63945e-10
7.65295e-10
4.88551e-09
4.67616e-09
4.60236e-09
4.42064e-09
4.39527e-09
4.4024e-09
4.4388e-09
4.50633e-09
4.57467e-09
4.61566e-09
4.67961e-09
4.77648e-09
4.92498e-09
5.08698e-09
5.33439e-09
5.69371e-09
5.98619e-09
5.98403e-09
5.82643e-09
5.7984e-09
6.15686e-09
6.92751e-09
7.61271e-09
7.53059e-09
7.55147e-09
7.89385e-09
9.02696e-09
1.05791e-08
1.0861e-08
9.64665e-09
9.23803e-09
1.05275e-08
1.27768e-08
1.49351e-08
1.48601e-08
1.34628e-08
1.27796e-08
1.53867e-08
2.43556e-08
2.98909e-08
2.38808e-08
1.78831e-08
1.31727e-08
1.41842e-08
2.02707e-08
2.48649e-08
2.16429e-08
2.15958e-08
2.21843e-08
1.79818e-08
1.81135e-08
2.19132e-08
1.51506e-08
1.03859e-08
1.03631e-08
1.33648e-08
1.43555e-08
9.67368e-09
7.11248e-09
6.44185e-09
7.15552e-09
9.31059e-09
9.0888e-09
6.73821e-09
5.46253e-09
5.49096e-09
6.49244e-09
6.39827e-09
5.25961e-09
4.63844e-09
4.40887e-09
4.56477e-09
4.93724e-09
5.49687e-09
6.19279e-09
7.06554e-09
7.04502e-09
7.17951e-09
6.77124e-09
4.80375e-09
3.50576e-09
3.12173e-09
2.96386e-09
2.60582e-09
2.17609e-09
1.75892e-09
1.36078e-09
1.49597e-09
1.43615e-09
2.16328e-09
3.39083e-09
7.24764e-09
6.54885e-09
2.99337e-08
1.30611e-08
1.53442e-08
1.3784e-08
1.64134e-08
9.4893e-09
7.98276e-09
8.97586e-09
5.75532e-09
6.94485e-09
4.21473e-09
2.6449e-09
2.18545e-09
1.88191e-09
2.37226e-09
4.59307e-09
4.61031e-09
6.91633e-09
8.11973e-09
1.42906e-08
1.7968e-08
7.09319e-08
6.5692e-08
2.57785e-08
1.54204e-08
1.80799e-08
1.08599e-08
1.22205e-08
7.84448e-09
6.13816e-09
3.78746e-09
4.41696e-09
9.25719e-09
9.34688e-09
1.48798e-08
1.89694e-08
6.65938e-08
1.3225e-07
3.96597e-08
3.43489e-08
3.7102e-08
3.99282e-08
3.60986e-08
3.79078e-08
3.53903e-08
3.07221e-08
2.8363e-08
2.66386e-08
2.50475e-08
2.35665e-08
2.2184e-08
2.11513e-08
2.02833e-08
1.94117e-08
1.85162e-08
1.77046e-08
1.69445e-08
1.61992e-08
1.57266e-08
1.55062e-08
1.51056e-08
1.44746e-08
1.4021e-08
1.37761e-08
1.35546e-08
1.33253e-08
1.3013e-08
1.28119e-08
1.27812e-08
1.27922e-08
1.26656e-08
1.24623e-08
1.2452e-08
1.25945e-08
1.26663e-08
1.26337e-08
1.27204e-08
1.29705e-08
1.31526e-08
1.32179e-08
1.34071e-08
1.37347e-08
1.40283e-08
1.42796e-08
1.45784e-08
1.49801e-08
1.53786e-08
1.57921e-08
1.62626e-08
1.67125e-08
1.71034e-08
1.75569e-08
1.81484e-08
1.87566e-08
1.93208e-08
1.99782e-08
2.05946e-08
2.11664e-08
2.19317e-08
2.28785e-08
2.3746e-08
2.45007e-08
2.52469e-08
2.61918e-08
2.75614e-08
2.9004e-08
3.02089e-08
3.1262e-08
3.25775e-08
3.4512e-08
3.67103e-08
3.89223e-08
4.10341e-08
4.29432e-08
4.54166e-08
4.88684e-08
5.28859e-08
5.67772e-08
6.08348e-08
6.63268e-08
7.31891e-08
8.02141e-08
8.79636e-08
9.70442e-08
1.07586e-07
1.23411e-07
1.41892e-07
1.59315e-07
1.77794e-07
1.96408e-07
2.13482e-07
2.16933e-07
2.03853e-07
1.91192e-07
1.74745e-07
1.58498e-07
1.46689e-07
1.33304e-07
1.21925e-07
1.14254e-07
1.06976e-07
9.82701e-08
9.13221e-08
8.72025e-08
8.40734e-08
8.14299e-08
7.7966e-08
7.40319e-08
7.1385e-08
6.9411e-08
6.71683e-08
6.57311e-08
6.51708e-08
6.40851e-08
6.23081e-08
6.08689e-08
5.98976e-08
5.93527e-08
5.90363e-08
5.87531e-08
5.80017e-08
5.7029e-08
5.64367e-08
5.66883e-08
5.67845e-08
5.65328e-08
5.61335e-08
5.5799e-08
5.60206e-08
5.63198e-08
5.63044e-08
5.59715e-08
5.59107e-08
5.61014e-08
5.59355e-08
5.57967e-08
5.62472e-08
5.71322e-08
5.76571e-08
5.73517e-08
5.67007e-08
5.68894e-08
5.76355e-08
5.78701e-08
5.76363e-08
5.7951e-08
5.90277e-08
5.90165e-08
5.84812e-08
5.85209e-08
5.87518e-08
5.95824e-08
6.0422e-08
6.01642e-08
5.98834e-08
6.00927e-08
6.02377e-08
6.05583e-08
6.13634e-08
6.18618e-08
6.16899e-08
6.18335e-08
6.23744e-08
6.26612e-08
6.28927e-08
6.3309e-08
6.36586e-08
6.41332e-08
6.50092e-08
6.52133e-08
6.5449e-08
6.59596e-08
6.68648e-08
6.77034e-08
6.79905e-08
6.85618e-08
6.9338e-08
7.04337e-08
7.14462e-08
7.21402e-08
7.30684e-08
7.42178e-08
7.56679e-08
7.66161e-08
7.77648e-08
7.95009e-08
8.06168e-08
8.20496e-08
8.40279e-08
8.54515e-08
8.72678e-08
8.93808e-08
9.13164e-08
9.34354e-08
9.56942e-08
9.81844e-08
1.00592e-07
1.02985e-07
1.05888e-07
1.08802e-07
1.11549e-07
1.14474e-07
1.17691e-07
1.20958e-07
1.24531e-07
1.28563e-07
1.32606e-07
1.36794e-07
1.40965e-07
1.45461e-07
1.49897e-07
1.53933e-07
1.58744e-07
1.63882e-07
1.68691e-07
1.75028e-07
1.81698e-07
1.86498e-07
1.92052e-07
1.98129e-07
2.05349e-07
2.13319e-07
2.20554e-07
2.26948e-07
2.33223e-07
2.4093e-07
2.49482e-07
2.58732e-07
2.66154e-07
2.73713e-07
2.83719e-07
2.95135e-07
3.04707e-07
3.13215e-07
3.2291e-07
3.32586e-07
3.43927e-07
3.56554e-07
3.68252e-07
3.78551e-07
3.90804e-07
4.07028e-07
4.20805e-07
4.31951e-07
4.44795e-07
4.583e-07
4.74257e-07
4.89957e-07
5.06091e-07
5.24146e-07
5.39781e-07
5.57106e-07
5.73407e-07
5.91271e-07
6.13594e-07
6.36256e-07
6.56249e-07
6.76698e-07
7.10176e-07
7.30424e-07
7.62053e-07
7.94577e-07
8.31452e-07
8.54369e-07
9.08662e-07
9.33741e-07
1.00456e-06
1.02107e-06
1.06962e-06
1.08837e-06
1.34232e-06
1.28779e-06
1.96256e-06
1.40454e-06
1.0025e-06
8.96241e-07
8.37802e-07
1.08004e-06
1.33107e-06
9.15662e-07
1.10963e-06
2.87955e-07
2.90969e-07
2.17816e-07
1.89e-07
9.55131e-08
1.0509e-07
2.17952e-07
2.25098e-07
2.64194e-07
2.87376e-07
4.67967e-07
4.96856e-07
1.64534e-06
2.55411e-06
8.89657e-07
5.88604e-07
6.07269e-07
3.41655e-07
3.5696e-07
3.57661e-07
3.0614e-07
2.31601e-07
1.66623e-07
1.75847e-07
3.61583e-07
3.60869e-07
3.96524e-07
4.32324e-07
5.96887e-07
6.4249e-07
6.82984e-07
7.2615e-07
5.48131e-07
6.44059e-07
8.5316e-07
1.36587e-06
1.67571e-07
2.39777e-07
7.52788e-07
9.13612e-08
9.00049e-08
4.32962e-08
3.9483e-08
2.0003e-08
1.99696e-08
3.87054e-08
3.81574e-08
4.25602e-08
5.19517e-08
7.47742e-08
8.53387e-08
1.78873e-07
1.98828e-07
1.46702e-07
1.46896e-07
1.59421e-07
1.78309e-07
2.03037e-07
2.33034e-07
2.68384e-07
3.08731e-07
3.54797e-07
4.08398e-07
4.71187e-07
5.43907e-07
6.276e-07
7.25159e-07
8.41475e-07
9.81153e-07
1.14885e-06
1.35236e-06
1.58955e-06
1.83707e-06
2.08354e-06
2.25981e-06
2.25987e-06
2.11884e-06
1.92695e-06
1.72972e-06
1.55572e-06
1.42473e-06
1.32438e-06
1.25054e-06
1.19739e-06
1.15707e-06
1.12108e-06
1.08221e-06
1.03806e-06
9.9148e-07
9.46055e-07
9.07216e-07
8.73e-07
8.47646e-07
8.30082e-07
8.15886e-07
8.00596e-07
7.81841e-07
7.61183e-07
7.4303e-07
7.31122e-07
7.25229e-07
7.20554e-07
7.1086e-07
6.94389e-07
6.76285e-07
6.63304e-07
6.58127e-07
6.59075e-07
6.62762e-07
6.66188e-07
6.69563e-07
6.71666e-07
6.65392e-07
6.46054e-07
6.23237e-07
6.20008e-07
6.37178e-07
6.51527e-07
6.33038e-07
5.96463e-07
5.93436e-07
6.325e-07
6.57692e-07
6.37044e-07
6.25233e-07
6.59492e-07
6.6686e-07
6.22257e-07
6.13616e-07
7.82341e-07
1.79652e-07
1.12144e-07
5.63453e-08
1.11988e-07
4.78453e-10
5.43318e-10
3.85974e-09
3.48876e-09
3.6133e-09
3.57356e-09
3.68377e-09
3.85416e-09
4.02027e-09
4.15108e-09
4.21586e-09
4.22123e-09
4.32464e-09
4.51141e-09
4.80596e-09
5.16522e-09
5.44631e-09
5.56618e-09
5.58614e-09
5.52762e-09
5.46806e-09
5.66678e-09
6.16473e-09
6.92485e-09
7.61875e-09
7.70566e-09
7.41823e-09
7.52743e-09
8.18778e-09
9.40138e-09
1.02375e-08
9.84487e-09
9.7289e-09
1.00863e-08
1.13902e-08
1.2788e-08
1.33146e-08
1.30091e-08
1.24476e-08
1.28019e-08
1.62451e-08
1.9844e-08
2.1622e-08
1.85677e-08
1.39135e-08
1.21649e-08
1.31256e-08
1.5189e-08
1.7321e-08
1.83681e-08
2.09648e-08
2.09459e-08
1.73865e-08
1.56996e-08
1.32017e-08
1.07088e-08
1.08781e-08
1.23152e-08
1.16195e-08
8.60928e-09
7.14029e-09
6.9382e-09
7.85381e-09
8.37317e-09
7.07005e-09
5.96467e-09
5.88075e-09
6.54777e-09
6.98631e-09
6.16123e-09
5.39147e-09
5.06612e-09
5.22707e-09
5.31062e-09
5.12152e-09
5.31913e-09
5.9532e-09
6.72867e-09
8.23507e-09
1.37701e-08
2.26361e-08
1.77714e-08
1.21549e-08
6.62628e-09
3.78627e-09
2.74568e-09
1.98885e-09
1.87032e-09
1.89472e-09
2.00245e-09
1.57091e-09
1.33475e-09
1.53559e-09
1.50503e-09
2.10969e-09
3.02749e-09
5.90662e-09
5.47482e-09
5.78606e-08
1.59607e-08
2.83227e-08
3.98723e-08
2.2741e-08
1.30288e-08
1.58272e-08
1.59283e-08
7.23616e-09
5.6625e-09
5.66929e-09
3.31548e-09
2.57349e-09
1.95251e-09
2.53713e-09
4.76649e-09
4.8977e-09
7.53097e-09
8.7756e-09
1.55692e-08
2.13587e-08
2.97343e-07
9.71384e-08
3.89413e-08
1.94086e-08
2.11704e-08
1.08792e-08
1.15191e-08
7.39269e-09
6.05849e-09
3.77336e-09
4.29432e-09
8.38658e-09
8.57095e-09
1.35237e-08
1.49002e-08
4.22568e-08
1.52512e-07
1.30494e-07
3.11649e-08
3.0677e-08
3.16394e-08
2.85477e-08
2.87313e-08
2.66794e-08
2.40962e-08
2.27608e-08
2.17283e-08
2.07625e-08
2.0025e-08
1.91176e-08
1.82898e-08
1.74506e-08
1.67313e-08
1.61989e-08
1.58867e-08
1.55403e-08
1.49778e-08
1.44175e-08
1.40141e-08
1.38391e-08
1.37647e-08
1.35466e-08
1.32069e-08
1.29779e-08
1.29161e-08
1.29361e-08
1.28072e-08
1.26414e-08
1.26643e-08
1.28191e-08
1.28493e-08
1.27604e-08
1.28275e-08
1.30468e-08
1.32194e-08
1.32719e-08
1.34062e-08
1.36995e-08
1.39682e-08
1.4156e-08
1.44014e-08
1.47884e-08
1.5246e-08
1.56097e-08
1.59793e-08
1.64023e-08
1.6803e-08
1.72198e-08
1.78158e-08
1.85124e-08
1.90801e-08
1.96552e-08
2.02393e-08
2.0734e-08
2.13988e-08
2.23726e-08
2.34028e-08
2.42239e-08
2.49255e-08
2.56882e-08
2.68969e-08
2.83273e-08
2.9642e-08
3.07637e-08
3.19163e-08
3.36425e-08
3.5855e-08
3.8002e-08
3.98455e-08
4.17289e-08
4.41583e-08
4.7328e-08
5.11773e-08
5.48834e-08
5.82921e-08
6.26345e-08
6.87389e-08
7.56979e-08
8.25626e-08
8.96755e-08
9.7354e-08
1.08827e-07
1.22461e-07
1.32856e-07
1.43778e-07
1.5737e-07
1.68747e-07
1.68067e-07
1.59747e-07
1.55131e-07
1.48265e-07
1.37248e-07
1.28185e-07
1.20625e-07
1.13884e-07
1.07096e-07
9.96543e-08
9.25196e-08
8.74005e-08
8.44651e-08
8.21403e-08
7.86359e-08
7.44444e-08
7.15e-08
7.01426e-08
6.78968e-08
6.56419e-08
6.50242e-08
6.45212e-08
6.28268e-08
6.07903e-08
5.98218e-08