/*--------------------------------*- C++ -*----------------------------------*\
| =========                 |                                                 |
| \\      /  F ield         | OpenFOAM: The Open Source CFD Toolbox           |
|  \\    /   O peration     | Version:  v2006                                 |
|   \\  /    A nd           | Website:  www.openfoam.com                      |
|    \\/     M anipulation  |                                                 |
\*---------------------------------------------------------------------------*/
FoamFile
{
    version     2.0;
    format      ascii;
    class       volScalarField;
    location    "3.8";
    object      p;
}
// * * * * * * * * * * * * * * * * * * * * * * * * * * * * * * * * * * * * * //

dimensions      [1 -1 -2 0 0 0 0];


internalField   nonuniform List<scalar> 
33000
(
7355.91
7346.19
7337.85
7329.52
7321.36
7313.27
7305.32
7297.51
7289.87
7282.4
7275.12
7268.05
7261.16
7254.47
7247.97
7241.66
7235.52
7229.58
7223.82
7218.27
7212.9
7207.69
7202.66
7197.81
7193.15
7188.67
7184.35
7180.21
7176.28
7172.55
7169
7165.61
7162.4
7159.38
7156.57
7153.94
7151.5
7149.25
7147.17
7145.26
7143.59
7142.1
7140.78
7139.67
7138.67
7137.94
7137.4
7137.02
7136.85
7136.85
7137.03
7137.38
7137.89
7138.61
7139.52
7140.57
7141.79
7143.15
7144.7
7146.43
7148.31
7150.29
7152.48
7154.84
7157.34
7159.98
7162.77
7165.71
7168.83
7172.1
7175.5
7179.02
7182.61
7186.27
7190.08
7194.28
7198.6
7198.51
7191.15
7194.46
7204.39
7203.82
7210.44
7213.12
7216.77
7222.35
7227.67
7233.66
7238.42
7243.92
7248.95
7254.06
7259.4
7264.78
7269.69
7274.97
7278.73
7283.54
7283.85
7288.63
7300.38
7307.33
7315.55
7324.33
7333.09
7342.87
7353.54
7363.87
7374.56
7385.01
7395.99
7406.88
7417.98
7429.34
7439.98
7451.3
7459.42
7471.41
7488.24
7501.84
7516.63
7531.83
7546.93
7562.94
7579.63
7596.23
7613.2
7630.34
7647.57
7665.01
7682.61
7700.23
7717.89
7735.54
7753.15
7770.71
7788.19
7805.57
7822.82
7839.94
7856.89
7873.66
7890.22
7906.58
7922.67
7938.5
7954.05
7969.31
7984.26
7998.88
8013.14
8027.06
8040.62
8053.82
8066.66
8079.1
8091.16
8102.83
8114.13
8125.05
8135.6
8145.76
8155.57
8165.03
8174.14
8182.92
8191.37
8199.52
8207.38
8214.95
8222.26
8229.31
8236.14
8242.74
8249.13
8255.33
8261.35
8267.17
8272.77
8278.14
8283.25
8288.1
8292.67
8296.94
8300.91
8304.56
8307.89
8310.89
8313.55
8315.86
8317.82
8319.43
8320.68
8321.56
8322.09
8322.26
8322.06
8321.51
8320.6
8319.33
8317.73
8315.77
8313.48
8310.84
8307.89
8304.63
8301.05
8297.18
8293.01
8288.57
8283.86
8278.89
8273.67
8268.21
8262.53
8256.65
8250.57
8244.29
8237.85
8231.24
8224.48
8217.6
8210.59
8203.47
8196.25
8188.94
8181.56
8174.13
8166.64
8159.12
8151.56
8143.99
8136.42
8128.85
8121.29
8113.75
8106.24
8098.77
8091.35
8083.98
8076.67
8069.42
8062.25
8055.16
8048.15
8041.23
8034.4
8027.67
8021.03
8014.5
8008.07
8001.74
7995.52
7989.42
7983.42
7977.54
7971.77
7966.11
7960.56
7955.13
7949.8
7944.59
7939.49
7934.5
7929.62
7924.84
7920.17
7915.61
7911.15
7906.8
7902.54
7898.38
7894.32
7890.36
7886.5
7882.72
7879.04
7875.44
7871.93
7868.51
7865.17
7861.91
7858.73
7855.63
7852.61
7849.65
7846.78
7843.97
7841.23
7838.56
7835.96
7833.42
7830.94
7828.52
7826.16
7823.86
7821.62
7819.43
7817.29
7815.21
7813.17
7811.19
7809.25
7807.36
7805.51
7803.71
7801.95
7800.23
7798.54
7796.9
7795.3
7793.73
7792.19
7790.69
7789.22
7787.79
7786.38
7785.01
7783.66
7782.34
7781.05
7779.78
7778.54
7777.32
7776.13
7774.96
7773.81
7772.68
7771.58
7770.49
7769.43
7768.38
7767.35
7766.34
7765.35
7764.37
7763.41
7762.47
7761.54
7760.63
7759.73
7758.85
7757.98
7757.13
7756.29
7755.46
7754.65
7753.85
7753.06
7752.29
7751.52
7750.77
7750.04
7749.31
7748.6
7747.9
7747.21
7746.53
7745.86
7745.21
7744.56
7743.93
7743.31
7742.7
7742.1
7741.51
7740.93
7740.36
7739.8
7739.26
7738.72
7738.2
7737.68
7737.18
7736.69
7736.2
7735.73
7735.27
7734.82
7734.37
7733.94
7733.52
7733.11
7732.7
7732.31
7731.93
7731.55
7731.19
7730.83
7730.49
7730.15
7729.82
7729.5
7729.19
7728.89
7728.59
7728.31
7728.03
7727.76
7727.5
7727.25
7727
7726.76
7726.53
7726.31
7726.1
7725.89
7725.69
7725.49
7725.31
7725.13
7724.95
7724.79
7724.63
7724.47
7724.33
7724.18
7724.05
7723.92
7723.79
7723.68
7723.56
7723.45
7723.35
7723.26
7723.16
7723.07
7722.99
7722.9
7722.84
7722.77
7722.68
7722.61
7722.54
7722.49
7722.43
7722.38
7722.34
7722.3
7722.26
7722.23
7722.2
7722.18
7722.16
7722.14
7722.13
7722.11
7722.11
7722.11
7722.09
7722.09
7722.08
7722.09
7722.09
7722.1
7722.11
7722.13
7722.15
7722.17
7722.19
7722.22
7722.25
7722.29
7722.32
7722.35
7722.38
7722.43
7722.45
7722.52
7722.56
7722.58
7722.61
7722.64
7722.68
7722.72
7722.76
7722.8
7722.84
7722.89
7722.94
7722.99
7723.04
7723.09
7723.14
7723.19
7723.25
7723.3
7723.36
7723.42
7723.48
7723.54
7723.6
7723.66
7723.73
7723.79
7723.86
7723.92
7723.99
7724.06
7724.13
7724.2
7724.27
7724.34
7724.41
7724.49
7724.56
7724.64
7724.71
7724.79
7724.86
7724.94
7725.02
7725.1
7725.18
7725.26
7725.34
7725.42
7725.5
7725.59
7725.67
7725.75
7725.84
7725.92
7726.01
7726.09
7726.18
7726.27
7726.35
7726.44
7726.53
7726.62
7726.71
7726.8
7726.89
7726.98
7727.07
7727.16
7727.25
7727.34
7727.43
7727.53
7727.62
7727.71
7727.81
7727.9
7728
7728.09
7728.19
7728.27
7728.42
7160
7150.09
7141.63
7133.18
7124.9
7116.73
7108.7
7100.84
7093.16
7085.67
7078.39
7071.31
7064.42
7057.73
7051.24
7044.94
7038.82
7032.9
7027.16
7021.61
7016.23
7011.02
7005.99
7001.15
6996.49
6992.02
6987.73
6983.61
6979.67
6975.93
6972.37
6968.98
6965.78
6962.79
6959.97
6957.34
6954.87
6952.62
6950.57
6948.66
6946.98
6945.51
6944.18
6943.06
6942.11
6941.36
6940.8
6940.41
6940.23
6940.24
6940.42
6940.79
6941.28
6942.01
6942.92
6943.99
6945.21
6946.57
6948.13
6949.89
6951.78
6953.77
6955.95
6958.29
6960.78
6963.41
6966.17
6969.09
6972.16
6975.35
6978.65
6982.01
6985.44
6989
6992.63
6995.94
6998.6
7000.84
7004.31
7008.47
7007.55
6999.45
7005.52
7019.29
7021.49
7028.22
7032.06
7037.34
7040.34
7046.48
7052.43
7057.95
7063.35
7068.7
7073.76
7079.34
7084.25
7089.43
7093.97
7097.68
7103.72
7104.92
7112.91
7128.46
7137.91
7147.98
7157.47
7167.2
7176.87
7187.45
7199.19
7210.42
7221.76
7233.19
7244.47
7256.06
7267.58
7279.37
7292.42
7301.68
7316.11
7335.26
7350.9
7367.02
7383.19
7399.26
7416.17
7433.74
7451.09
7468.61
7486.18
7503.77
7521.46
7539.19
7556.84
7574.44
7591.91
7609.32
7626.58
7643.72
7660.69
7677.48
7694.07
7710.44
7726.55
7742.41
7757.98
7773.26
7788.21
7802.84
7817.13
7831.06
7844.64
7857.85
7870.69
7883.14
7895.2
7906.89
7918.2
7929.13
7939.68
7949.85
7959.67
7969.13
7978.25
7987.03
7995.49
8003.65
8011.51
8019.1
8026.41
8033.48
8040.31
8046.92
8053.33
8059.55
8065.58
8071.41
8077.02
8082.41
8087.54
8092.4
8096.99
8101.27
8105.25
8108.92
8112.26
8115.27
8117.94
8120.26
8122.23
8123.84
8125.09
8125.98
8126.5
8126.67
8126.48
8125.92
8125
8123.73
8122.11
8120.15
8117.84
8115.2
8112.24
8108.96
8105.37
8101.48
8097.3
8092.84
8088.11
8083.12
8077.89
8072.42
8066.72
8060.82
8054.72
8048.43
8041.96
8035.34
8028.56
8021.66
8014.63
8007.49
8000.25
7992.93
7985.54
7978.08
7970.58
7963.04
7955.47
7947.88
7940.29
7932.7
7925.13
7917.58
7910.06
7902.58
7895.14
7887.76
7880.44
7873.18
7866.01
7858.9
7851.89
7844.96
7838.12
7831.38
7824.73
7818.2
7811.76
7805.43
7799.21
7793.1
7787.1
7781.22
7775.44
7769.78
7764.23
7758.8
7753.47
7748.26
7743.16
7738.17
7733.29
7728.51
7723.85
7719.29
7714.83
7710.48
7706.22
7702.07
7698.01
7694.05
7690.19
7686.41
7682.73
7679.14
7675.63
7672.21
7668.87
7665.61
7662.44
7659.34
7656.32
7653.37
7650.49
7647.69
7644.95
7642.28
7639.68
7637.14
7634.67
7632.25
7629.89
7627.6
7625.35
7623.16
7621.03
7618.95
7616.91
7614.93
7612.99
7611.1
7609.26
7607.46
7605.7
7603.98
7602.3
7600.65
7599.05
7597.48
7595.95
7594.45
7592.98
7591.55
7590.14
7588.77
7587.42
7586.1
7584.81
7583.54
7582.3
7581.09
7579.89
7578.72
7577.58
7576.45
7575.34
7574.26
7573.19
7572.15
7571.12
7570.11
7569.12
7568.14
7567.18
7566.24
7565.31
7564.4
7563.5
7562.62
7561.75
7560.9
7560.06
7559.23
7558.42
7557.62
7556.83
7556.06
7555.3
7554.55
7553.81
7553.08
7552.37
7551.67
7550.98
7550.3
7549.64
7548.98
7548.34
7547.7
7547.08
7546.47
7545.87
7545.28
7544.7
7544.13
7543.58
7543.03
7542.5
7541.97
7541.46
7540.95
7540.46
7539.98
7539.51
7539.04
7538.59
7538.15
7537.72
7537.3
7536.88
7536.48
7536.09
7535.71
7535.33
7534.97
7534.61
7534.26
7533.93
7533.6
7533.28
7532.97
7532.67
7532.37
7532.09
7531.81
7531.54
7531.28
7531.03
7530.78
7530.55
7530.32
7530.09
7529.88
7529.67
7529.47
7529.28
7529.09
7528.91
7528.74
7528.57
7528.41
7528.26
7528.11
7527.97
7527.83
7527.7
7527.58
7527.46
7527.35
7527.24
7527.14
7527.04
7526.95
7526.87
7526.79
7526.69
7526.61
7526.53
7526.46
7526.39
7526.33
7526.27
7526.22
7526.17
7526.12
7526.09
7526.05
7526.02
7525.99
7525.97
7525.95
7525.94
7525.93
7525.9
7525.89
7525.88
7525.87
7525.87
7525.87
7525.88
7525.88
7525.89
7525.91
7525.92
7525.95
7525.96
7525.99
7526.02
7526.05
7526.07
7526.11
7526.13
7526.2
7526.24
7526.26
7526.29
7526.33
7526.36
7526.4
7526.43
7526.47
7526.51
7526.55
7526.59
7526.64
7526.69
7526.73
7526.78
7526.83
7526.88
7526.94
7526.99
7527.04
7527.1
7527.16
7527.22
7527.28
7527.34
7527.4
7527.46
7527.52
7527.59
7527.65
7527.72
7527.79
7527.86
7527.93
7528
7528.07
7528.14
7528.21
7528.28
7528.36
7528.43
7528.51
7528.59
7528.66
7528.74
7528.82
7528.9
7528.98
7529.06
7529.14
7529.22
7529.3
7529.38
7529.47
7529.55
7529.63
7529.72
7529.8
7529.89
7529.98
7530.06
7530.15
7530.24
7530.33
7530.42
7530.5
7530.59
7530.68
7530.77
7530.87
7530.96
7531.05
7531.14
7531.23
7531.33
7531.42
7531.51
7531.61
7531.7
7531.8
7531.89
7531.99
7532.07
7532.22
6964.07
6954.16
6945.41
6936.66
6928.13
6919.76
6911.59
6903.63
6895.89
6888.37
6881.07
6873.99
6867.12
6860.45
6853.97
6847.69
6841.59
6835.69
6829.97
6824.43
6819.06
6813.86
6808.86
6804.03
6799.38
6794.91
6790.62
6786.51
6782.59
6778.83
6775.27
6771.89
6768.68
6765.7
6762.89
6760.25
6757.79
6755.51
6753.46
6751.62
6749.91
6748.42
6747.1
6745.94
6745.05
6744.32
6743.76
6743.38
6743.19
6743.18
6743.35
6743.72
6744.29
6745
6745.9
6746.98
6748.24
6749.64
6751.19
6752.94
6754.84
6756.86
6759.05
6761.38
6763.84
6766.46
6769.21
6772.12
6775.13
6778.24
6781.46
6784.76
6788.11
6791.52
6794.86
6797.91
6800.63
6803.33
6806.34
6809.53
6812.81
6817.58
6822.71
6821.86
6812.96
6819.69
6836.51
6843.87
6848.43
6852.36
6856.8
6860.28
6866.67
6872.72
6878.29
6883.79
6889.07
6894.36
6900.14
6905.97
6913.17
6919.76
6924.89
6931.93
6933.99
6943.7
6960.11
6971.62
6982.83
6992.46
7003.05
7013.17
7024.45
7036.64
7048.32
7060.28
7072.36
7085
7098.62
7112.18
7125.43
7139.63
7150.03
7165.69
7186.31
7203.07
7220.1
7237.07
7253.87
7271.36
7289.44
7307.17
7324.97
7342.71
7360.36
7377.93
7395.44
7412.92
7430.23
7447.42
7464.44
7481.28
7497.92
7514.34
7530.5
7546.39
7562.01
7577.32
7592.31
7606.97
7621.29
7635.26
7648.86
7662.1
7674.95
7687.41
7699.51
7711.21
7722.54
7733.49
7744.06
7754.25
7764.08
7773.56
7782.69
7791.5
7799.98
7808.16
7816.04
7823.65
7830.99
7838.08
7844.93
7851.58
7858.01
7864.25
7870.3
7876.15
7881.78
7887.18
7892.34
7897.23
7901.83
7906.15
7910.15
7913.84
7917.2
7920.23
7922.92
7925.25
7927.23
7928.85
7930.1
7930.99
7931.52
7931.69
7931.49
7930.92
7929.99
7928.71
7927.07
7925.09
7922.77
7920.11
7917.12
7913.82
7910.2
7906.28
7902.07
7897.58
7892.82
7887.8
7882.53
7877.02
7871.29
7865.35
7859.21
7852.88
7846.38
7839.72
7832.91
7825.97
7818.9
7811.72
7804.45
7797.09
7789.67
7782.18
7774.64
7767.06
7759.46
7751.85
7744.23
7736.61
7729.01
7721.43
7713.88
7706.37
7698.91
7691.51
7684.17
7676.9
7669.7
7662.58
7655.54
7648.6
7641.75
7634.99
7628.34
7621.79
7615.34
7609
7602.78
7596.66
7590.65
7584.76
7578.98
7573.31
7567.76
7562.33
7557.01
7551.8
7546.69
7541.71
7536.83
7532.05
7527.39
7522.83
7518.38
7514.03
7509.78
7505.63
7501.58
7497.62
7493.76
7489.99
7486.31
7482.72
7479.22
7475.81
7472.47
7469.22
7466.05
7462.95
7459.93
7456.99
7454.12
7451.32
7448.59
7445.92
7443.32
7440.79
7438.32
7435.91
7433.55
7431.26
7429.02
7426.83
7424.7
7422.62
7420.59
7418.61
7416.68
7414.79
7412.95
7411.15
7409.39
7407.67
7406
7404.36
7402.75
7401.19
7399.66
7398.16
7396.69
7395.26
7393.86
7392.48
7391.14
7389.82
7388.53
7387.27
7386.03
7384.81
7383.62
7382.45
7381.3
7380.18
7379.07
7377.99
7376.93
7375.88
7374.85
7373.84
7372.85
7371.87
7370.92
7369.97
7369.05
7368.13
7367.24
7366.36
7365.49
7364.64
7363.8
7362.97
7362.16
7361.36
7360.57
7359.8
7359.04
7358.29
7357.55
7356.83
7356.12
7355.41
7354.73
7354.05
7353.38
7352.73
7352.08
7351.45
7350.83
7350.22
7349.62
7349.03
7348.45
7347.88
7347.33
7346.78
7346.25
7345.72
7345.21
7344.7
7344.21
7343.73
7343.26
7342.8
7342.34
7341.9
7341.47
7341.05
7340.64
7340.24
7339.84
7339.46
7339.09
7338.72
7338.37
7338.02
7337.69
7337.36
7337.04
7336.73
7336.43
7336.13
7335.85
7335.57
7335.3
7335.04
7334.79
7334.55
7334.31
7334.08
7333.86
7333.64
7333.44
7333.24
7333.04
7332.86
7332.68
7332.51
7332.34
7332.18
7332.03
7331.88
7331.74
7331.61
7331.48
7331.35
7331.23
7331.12
7331.01
7330.93
7330.83
7330.72
7330.63
7330.54
7330.46
7330.38
7330.31
7330.23
7330.17
7330.1
7330.05
7330
7329.95
7329.9
7329.86
7329.83
7329.8
7329.79
7329.76
7329.73
7329.7
7329.69
7329.67
7329.66
7329.66
7329.65
7329.65
7329.65
7329.66
7329.66
7329.68
7329.69
7329.72
7329.73
7329.76
7329.77
7329.81
7329.82
7329.89
7329.93
7329.94
7329.97
7330
7330.04
7330.07
7330.11
7330.14
7330.18
7330.22
7330.26
7330.3
7330.34
7330.38
7330.43
7330.48
7330.52
7330.57
7330.62
7330.68
7330.73
7330.78
7330.84
7330.89
7330.95
7331.01
7331.07
7331.13
7331.19
7331.26
7331.32
7331.38
7331.45
7331.52
7331.58
7331.65
7331.72
7331.79
7331.86
7331.93
7332.01
7332.08
7332.15
7332.23
7332.3
7332.38
7332.46
7332.54
7332.61
7332.69
7332.77
7332.85
7332.93
7333.02
7333.1
7333.18
7333.26
7333.35
7333.43
7333.52
7333.6
7333.69
7333.77
7333.86
7333.95
7334.04
7334.12
7334.21
7334.3
7334.39
7334.48
7334.57
7334.66
7334.75
7334.85
7334.94
7335.03
7335.12
7335.22
7335.31
7335.41
7335.5
7335.59
7335.69
7335.79
7335.86
7336.02
6768.22
6758.29
6749.05
6739.83
6730.9
6722.25
6713.89
6705.81
6697.99
6690.44
6683.13
6676.07
6669.22
6662.59
6656.15
6649.89
6643.82
6637.95
6632.25
6626.73
6621.38
6616.21
6611.23
6606.42
6601.77
6597.28
6592.99
6588.9
6584.99
6581.25
6577.69
6574.31
6571.1
6568.1
6565.29
6562.65
6560.19
6557.93
6555.88
6554.01
6552.33
6550.82
6549.5
6548.38
6547.5
6546.75
6546.19
6545.85
6545.66
6545.68
6545.87
6546.22
6546.8
6547.54
6548.44
6549.53
6550.81
6552.25
6553.83
6555.58
6557.49
6559.54
6561.74
6564.09
6566.57
6569.17
6571.93
6574.82
6577.79
6580.87
6584.07
6587.35
6590.68
6594.02
6597.28
6600.42
6603.51
6606.62
6609.61
6612.51
6615.71
6619.53
6623.65
6627.72
6632.99
6639.32
6645.42
6645.32
6636.95
6645.65
6662.71
6666.27
6671.93
6676.56
6680.77
6687.8
6694.49
6700.53
6706.49
6712.57
6719.08
6725.83
6733.54
6742.5
6750.39
6758.71
6765.74
6773.87
6776.99
6787.36
6805.74
6817.33
6829.06
6840.39
6851.64
6863.82
6876.91
6889.84
6903.08
6916.51
6930.66
6945.74
6960.68
6975.11
6990.41
7001.72
7018.38
7040.02
7057.49
7075.23
7092.69
7109.91
7127.76
7146
7163.86
7181.61
7199.07
7216.58
7233.86
7251.09
7268.19
7285.1
7301.8
7318.28
7334.51
7350.47
7366.13
7381.49
7396.54
7411.26
7425.63
7439.64
7453.29
7466.56
7479.44
7491.95
7504.08
7515.83
7527.18
7538.16
7548.77
7559
7568.87
7578.38
7587.55
7596.39
7604.92
7613.13
7621.05
7628.7
7636.08
7643.21
7650.11
7656.79
7663.26
7669.53
7675.6
7681.47
7687.13
7692.55
7697.73
7702.64
7707.27
7711.61
7715.64
7719.36
7722.74
7725.79
7728.48
7730.83
7732.82
7734.44
7735.71
7736.6
7737.13
7737.29
7737.08
7736.51
7735.57
7734.27
7732.61
7730.61
7728.26
7725.57
7722.55
7719.21
7715.55
7711.59
7707.34
7702.81
7698
7692.92
7687.6
7682.04
7676.25
7670.25
7664.05
7657.67
7651.11
7644.39
7637.52
7630.52
7623.4
7616.16
7608.84
7601.43
7593.95
7586.41
7578.82
7571.19
7563.54
7555.88
7548.21
7540.55
7532.91
7525.29
7517.7
7510.16
7502.67
7495.23
7487.86
7480.56
7473.33
7466.18
7459.12
7452.15
7445.28
7438.51
7431.84
7425.27
7418.81
7412.46
7406.22
7400.09
7394.08
7388.18
7382.39
7376.72
7371.17
7365.73
7360.41
7355.19
7350.1
7345.11
7340.23
7335.47
7330.8
7326.25
7321.8
7317.46
7313.21
7309.07
7305.03
7301.08
7297.22
7293.46
7289.79
7286.2
7282.71
7279.3
7275.97
7272.73
7269.56
7266.47
7263.46
7260.53
7257.66
7254.87
7252.14
7249.48
7246.89
7244.36
7241.89
7239.49
7237.14
7234.85
7232.62
7230.44
7228.31
7226.24
7224.21
7222.23
7220.31
7218.42
7216.58
7214.79
7213.03
7211.32
7209.64
7208.01
7206.41
7204.85
7203.32
7201.82
7200.36
7198.93
7197.53
7196.16
7194.81
7193.5
7192.21
7190.95
7189.71
7188.5
7187.31
7186.14
7185
7183.87
7182.77
7181.69
7180.62
7179.58
7178.55
7177.54
7176.55
7175.58
7174.62
7173.68
7172.75
7171.84
7170.94
7170.06
7169.2
7168.34
7167.5
7166.68
7165.87
7165.07
7164.28
7163.51
7162.75
7162
7161.27
7160.54
7159.83
7159.13
7158.44
7157.76
7157.1
7156.44
7155.8
7155.17
7154.55
7153.94
7153.34
7152.75
7152.17
7151.6
7151.05
7150.5
7149.97
7149.44
7148.93
7148.43
7147.94
7147.46
7146.98
7146.52
7146.07
7145.63
7145.2
7144.78
7144.37
7143.97
7143.58
7143.19
7142.82
7142.46
7142.1
7141.76
7141.42
7141.09
7140.78
7140.47
7140.17
7139.87
7139.59
7139.31
7139.05
7138.79
7138.53
7138.29
7138.05
7137.83
7137.61
7137.39
7137.19
7136.99
7136.79
7136.61
7136.43
7136.26
7136.09
7135.93
7135.79
7135.64
7135.5
7135.36
7135.23
7135.11
7135.01
7134.9
7134.77
7134.67
7134.56
7134.47
7134.38
7134.29
7134.21
7134.13
7134.06
7133.99
7133.93
7133.86
7133.81
7133.75
7133.72
7133.67
7133.65
7133.61
7133.57
7133.53
7133.51
7133.48
7133.47
7133.45
7133.44
7133.43
7133.43
7133.42
7133.43
7133.42
7133.44
7133.45
7133.46
7133.47
7133.48
7133.51
7133.51
7133.58
7133.61
7133.63
7133.65
7133.68
7133.72
7133.75
7133.79
7133.82
7133.86
7133.89
7133.93
7133.97
7134.01
7134.05
7134.09
7134.13
7134.17
7134.22
7134.27
7134.32
7134.36
7134.42
7134.47
7134.52
7134.57
7134.63
7134.69
7134.74
7134.8
7134.86
7134.92
7134.99
7135.05
7135.11
7135.18
7135.24
7135.31
7135.38
7135.45
7135.52
7135.59
7135.66
7135.73
7135.8
7135.87
7135.95
7136.02
7136.1
7136.18
7136.25
7136.33
7136.41
7136.49
7136.57
7136.65
7136.73
7136.81
7136.89
7136.98
7137.06
7137.14
7137.23
7137.31
7137.4
7137.48
7137.57
7137.66
7137.74
7137.83
7137.92
7138.01
7138.1
7138.19
7138.28
7138.37
7138.46
7138.55
7138.64
7138.74
7138.83
7138.92
7139.01
7139.11
7139.2
7139.3
7139.39
7139.49
7139.59
7139.66
7139.82
6572.32
6562.29
6552.22
6542.35
6532.88
6523.9
6515.34
6507.17
6499.33
6491.79
6484.53
6477.51
6470.72
6464.15
6457.77
6451.56
6445.53
6439.69
6434.02
6428.52
6423.2
6418.06
6413.09
6408.29
6403.64
6399.17
6394.89
6390.8
6386.89
6383.15
6379.59
6376.21
6373.01
6370.01
6367.2
6364.56
6362.1
6359.83
6357.79
6355.93
6354.26
6352.73
6351.41
6350.32
6349.42
6348.7
6348.17
6347.82
6347.64
6347.68
6347.89
6348.27
6348.85
6349.6
6350.52
6351.63
6352.93
6354.4
6356.01
6357.77
6359.7
6361.79
6364.02
6366.38
6368.87
6371.51
6374.28
6377.14
6380.12
6383.21
6386.4
6389.67
6393.02
6396.37
6399.71
6403.03
6406.39
6409.79
6413.19
6416.64
6420.22
6423.8
6427.32
6431.12
6435.98
6441.56
6446.66
6451.34
6457.72
6464.13
6464.38
6456.6
6466.2
6484.64
6488.28
6493.97
6499.21
6503.8
6511.64
6519.29
6526.4
6533.36
6540.58
6548.18
6555.94
6565.08
6574.55
6583.97
6593.49
6600.6
6609.97
6613.43
6624.69
6643.96
6656.48
6668.87
6681.37
6693.78
6707.27
6721.74
6735.92
6750.38
6765.04
6780.3
6796.54
6812.48
6827.91
6844.07
6856.19
6873.47
6895.84
6913.78
6931.79
6949.5
6967.06
6984.3
7001.89
7019.85
7037.33
7054.68
7071.88
7088.85
7105.65
7122.25
7138.58
7154.63
7170.38
7185.82
7200.94
7215.73
7230.18
7244.25
7257.96
7271.29
7284.24
7296.81
7309
7320.8
7332.2
7343.23
7353.89
7364.18
7374.1
7383.67
7392.89
7401.79
7410.37
7418.64
7426.62
7434.32
7441.77
7448.96
7455.91
7462.64
7469.15
7475.46
7481.56
7487.46
7493.13
7498.57
7503.77
7508.7
7513.36
7517.72
7521.78
7525.51
7528.92
7531.98
7534.69
7537.05
7539.05
7540.69
7541.96
7542.85
7543.37
7543.52
7543.29
7542.7
7541.75
7540.42
7538.74
7536.7
7534.31
7531.58
7528.52
7525.12
7521.42
7517.4
7513.1
7508.5
7503.62
7498.48
7493.08
7487.46
7481.6
7475.53
7469.25
7462.79
7456.15
7449.36
7442.42
7435.34
7428.14
7420.83
7413.43
7405.94
7398.39
7390.78
7383.12
7375.42
7367.71
7359.98
7352.25
7344.53
7336.83
7329.16
7321.52
7313.93
7306.39
7298.91
7291.49
7284.15
7276.88
7269.7
7262.61
7255.62
7248.72
7241.92
7235.22
7228.63
7222.15
7215.79
7209.53
7203.4
7197.37
7191.46
7185.67
7179.99
7174.44
7168.99
7163.67
7158.46
7153.36
7148.37
7143.5
7138.74
7134.09
7129.54
7125.1
7120.76
7116.52
7112.39
7108.35
7104.41
7100.57
7096.81
7093.15
7089.57
7086.09
7082.69
7079.37
7076.14
7072.98
7069.9
7066.9
7063.97
7061.11
7058.33
7055.61
7052.96
7050.37
7047.85
7045.39
7043
7040.66
7038.37
7036.15
7033.97
7031.85
7029.79
7027.77
7025.8
7023.87
7021.99
7020.16
7018.37
7016.62
7014.91
7013.24
7011.61
7010.02
7008.46
7006.93
7005.44
7003.98
7002.55
7001.16
6999.79
6998.45
6997.14
6995.85
6994.59
6993.36
6992.15
6990.96
6989.79
6988.65
6987.53
6986.43
6985.34
6984.28
6983.24
6982.21
6981.21
6980.22
6979.24
6978.29
6977.35
6976.42
6975.51
6974.62
6973.74
6972.87
6972.02
6971.18
6970.36
6969.55
6968.75
6967.96
6967.19
6966.43
6965.68
6964.95
6964.23
6963.51
6962.81
6962.13
6961.45
6960.79
6960.13
6959.49
6958.86
6958.24
6957.63
6957.03
6956.44
6955.86
6955.3
6954.74
6954.2
6953.67
6953.14
6952.63
6952.13
6951.64
6951.16
6950.69
6950.23
6949.78
6949.34
6948.91
6948.49
6948.08
6947.68
6947.28
6946.9
6946.53
6946.17
6945.82
6945.47
6945.14
6944.81
6944.49
6944.18
6943.88
6943.59
6943.31
6943.03
6942.77
6942.51
6942.26
6942.02
6941.78
6941.55
6941.33
6941.12
6940.91
6940.72
6940.52
6940.34
6940.16
6940
6939.83
6939.67
6939.52
6939.38
6939.24
6939.12
6938.99
6938.85
6938.73
6938.61
6938.51
6938.4
6938.31
6938.21
6938.12
6938.03
6937.96
6937.88
6937.81
6937.74
6937.68
6937.62
6937.58
6937.53
6937.46
6937.43
6937.37
6937.35
6937.31
6937.29
6937.26
6937.24
6937.22
6937.21
6937.19
6937.19
6937.18
6937.18
6937.19
6937.19
6937.2
6937.19
6937.22
6937.22
6937.28
6937.31
6937.32
6937.34
6937.37
6937.4
6937.43
6937.47
6937.5
6937.53
6937.56
6937.6
6937.63
6937.67
6937.71
6937.75
6937.79
6937.83
6937.87
6937.91
6937.96
6938.01
6938.05
6938.1
6938.15
6938.2
6938.26
6938.31
6938.36
6938.42
6938.48
6938.53
6938.59
6938.65
6938.71
6938.78
6938.84
6938.9
6938.97
6939.03
6939.1
6939.17
6939.24
6939.31
6939.38
6939.45
6939.52
6939.59
6939.67
6939.74
6939.82
6939.89
6939.97
6940.05
6940.12
6940.2
6940.28
6940.36
6940.44
6940.52
6940.6
6940.69
6940.77
6940.85
6940.94
6941.02
6941.11
6941.19
6941.28
6941.37
6941.45
6941.54
6941.63
6941.72
6941.8
6941.89
6941.98
6942.07
6942.16
6942.26
6942.35
6942.44
6942.53
6942.62
6942.72
6942.81
6942.9
6943
6943.09
6943.19
6943.28
6943.38
6943.46
6943.61
6375.84
6365.71
6354.31
6343.59
6333.57
6324.33
6315.69
6307.55
6299.79
6292.35
6285.2
6278.3
6271.62
6265.15
6258.85
6252.71
6246.73
6240.93
6235.3
6229.84
6224.54
6219.43
6214.48
6209.69
6205.05
6200.58
6196.31
6192.21
6188.29
6184.56
6181.01
6177.64
6174.44
6171.42
6168.61
6165.98
6163.53
6161.27
6159.23
6157.39
6155.71
6154.17
6152.88
6151.78
6150.89
6150.19
6149.66
6149.36
6149.22
6149.24
6149.47
6149.88
6150.48
6151.25
6152.17
6153.3
6154.62
6156.12
6157.75
6159.54
6161.5
6163.62
6165.87
6168.25
6170.78
6173.46
6176.25
6179.13
6182.13
6185.26
6188.48
6191.79
6195.16
6198.58
6202.04
6205.53
6209.08
6212.67
6216.34
6220.16
6224.09
6228.06
6232.17
6236.45
6240.92
6245.51
6250.04
6254.72
6259.94
6265.35
6270.59
6277.71
6284.77
6285.38
6277.76
6288.74
6308.69
6313.06
6318.64
6324.96
6330.28
6339.14
6348.02
6356.37
6364.38
6372.92
6381.09
6390.16
6399.17
6408.86
6419.77
6429.83
6438.38
6448.55
6452.92
6465.14
6485.5
6499.12
6512.62
6526.36
6539.99
6554.7
6570.36
6585.63
6601.12
6616.81
6632.96
6650.08
6666.78
6682.93
6699.73
6712.43
6730.36
6752.49
6771.07
6789.15
6805.99
6823.61
6840.56
6857.97
6875.6
6892.72
6909.61
6926.32
6942.73
6958.9
6974.78
6990.33
7005.55
7020.43
7034.97
7049.14
7062.93
7076.35
7089.38
7102.04
7114.3
7126.18
7137.66
7148.76
7159.49
7169.85
7179.85
7189.5
7198.8
7207.77
7216.43
7224.77
7232.83
7240.6
7248.12
7255.38
7262.39
7269.18
7275.75
7282.1
7288.24
7294.16
7299.86
7305.32
7310.53
7315.48
7320.16
7324.54
7328.62
7332.37
7335.8
7338.87
7341.6
7343.97
7345.97
7347.61
7348.88
7349.77
7350.27
7350.4
7350.15
7349.53
7348.54
7347.19
7345.46
7343.37
7340.93
7338.15
7335.02
7331.57
7327.8
7323.71
7319.32
7314.65
7309.69
7304.47
7298.99
7293.28
7287.34
7281.17
7274.81
7268.25
7261.52
7254.63
7247.59
7240.42
7233.12
7225.72
7218.22
7210.64
7202.99
7195.29
7187.54
7179.76
7171.96
7164.15
7156.35
7148.55
7140.78
7133.03
7125.33
7117.67
7110.07
7102.54
7095.07
7087.67
7080.36
7073.14
7066.01
7058.98
7052.04
7045.22
7038.49
7031.88
7025.38
7018.99
7012.72
7006.56
7000.53
6994.61
6988.81
6983.13
6977.56
6972.12
6966.79
6961.58
6956.48
6951.51
6946.64
6941.88
6937.24
6932.7
6928.26
6923.94
6919.71
6915.59
6911.56
6907.63
6903.79
6900.05
6896.4
6892.84
6889.36
6885.98
6882.67
6879.45
6876.3
6873.23
6870.24
6867.32
6864.48
6861.7
6859
6856.36
6853.78
6851.27
6848.82
6846.43
6844.1
6841.83
6839.61
6837.45
6835.33
6833.27
6831.26
6829.3
6827.38
6825.51
6823.68
6821.9
6820.16
6818.45
6816.79
6815.16
6813.57
6812.02
6810.5
6809.01
6807.56
6806.14
6804.74
6803.38
6802.04
6800.73
6799.45
6798.19
6796.96
6795.76
6794.57
6793.41
6792.27
6791.15
6790.05
6788.97
6787.91
6786.87
6785.84
6784.84
6783.85
6782.88
6781.92
6780.99
6780.06
6779.15
6778.26
6777.38
6776.52
6775.67
6774.83
6774.01
6773.2
6772.4
6771.62
6770.84
6770.08
6769.34
6768.6
6767.88
6767.17
6766.47
6765.78
6765.11
6764.44
6763.79
6763.15
6762.52
6761.9
6761.29
6760.69
6760.11
6759.53
6758.97
6758.41
6757.87
6757.34
6756.81
6756.3
6755.8
6755.31
6754.83
6754.36
6753.9
6753.46
6753.02
6752.59
6752.17
6751.76
6751.36
6750.97
6750.59
6750.22
6749.86
6749.51
6749.16
6748.83
6748.51
6748.19
6747.88
6747.58
6747.29
6747.01
6746.74
6746.47
6746.22
6745.97
6745.73
6745.49
6745.27
6745.05
6744.84
6744.63
6744.44
6744.25
6744.06
6743.89
6743.71
6743.55
6743.39
6743.26
6743.12
6742.96
6742.82
6742.69
6742.57
6742.45
6742.34
6742.23
6742.13
6742.02
6741.94
6741.84
6741.76
6741.68
6741.61
6741.54
6741.48
6741.43
6741.35
6741.3
6741.24
6741.2
6741.15
6741.12
6741.08
6741.06
6741.02
6741.01
6740.98
6740.97
6740.95
6740.95
6740.94
6740.94
6740.93
6740.94
6740.93
6740.97
6741
6741.01
6741.02
6741.04
6741.06
6741.09
6741.12
6741.15
6741.18
6741.21
6741.24
6741.27
6741.31
6741.34
6741.38
6741.41
6741.45
6741.49
6741.53
6741.57
6741.61
6741.65
6741.7
6741.74
6741.79
6741.84
6741.89
6741.94
6741.99
6742.04
6742.09
6742.15
6742.21
6742.26
6742.32
6742.38
6742.44
6742.5
6742.56
6742.63
6742.69
6742.76
6742.82
6742.89
6742.96
6743.03
6743.1
6743.17
6743.24
6743.31
6743.38
6743.46
6743.53
6743.61
6743.68
6743.76
6743.84
6743.92
6743.99
6744.07
6744.15
6744.23
6744.32
6744.4
6744.48
6744.56
6744.65
6744.73
6744.82
6744.9
6744.99
6745.07
6745.16
6745.25
6745.33
6745.42
6745.51
6745.6
6745.69
6745.78
6745.87
6745.96
6746.05
6746.14
6746.23
6746.33
6746.42
6746.51
6746.61
6746.7
6746.79
6746.89
6746.98
6747.08
6747.18
6747.25
6747.41
6177.17
6167.21
6153.91
6142.44
6132.17
6123.03
6114.63
6106.78
6099.3
6092.12
6085.18
6078.46
6071.95
6065.63
6059.44
6053.38
6047.48
6041.73
6036.13
6030.69
6025.42
6020.34
6015.42
6010.63
6005.99
6001.53
5997.25
5993.14
5989.22
5985.5
5981.96
5978.6
5975.37
5972.36
5969.56
5966.92
5964.49
5962.26
5960.24
5958.4
5956.67
5955.19
5953.9
5952.79
5951.94
5951.26
5950.73
5950.42
5950.34
5950.4
5950.64
5951.12
5951.72
5952.48
5953.44
5954.57
5955.91
5957.42
5959.09
5960.9
5962.89
5965.05
5967.33
5969.75
5972.31
5975.02
5977.86
5980.8
5983.85
5987.02
5990.29
5993.66
5997.1
6000.62
6004.21
6007.88
6011.61
6015.38
6019.25
6023.26
6027.38
6031.62
6036
6040.56
6045.34
6050.13
6054.87
6059.75
6064.68
6069.57
6074.77
6080.58
6086.49
6092.24
6100.16
6108.02
6109.12
6101.6
6113.95
6135.34
6140.58
6146.48
6153.99
6160.12
6170
6180.08
6189.26
6198.3
6207.82
6216.91
6226.41
6236.22
6246.8
6258.5
6269.46
6279.21
6290.38
6295.73
6309.02
6330.61
6345.43
6360.12
6375.08
6389.84
6405.59
6422.23
6438.49
6454.88
6471.39
6488.27
6506.09
6523.19
6540.7
6557.36
6574.08
6587.26
6604.83
6626.87
6644.63
6661.94
6679.39
6696.25
6713.29
6730.47
6747.07
6763.34
6779.37
6795.03
6810.38
6825.4
6840.06
6854.35
6868.26
6881.79
6894.93
6907.69
6920.06
6932.04
6943.62
6954.82
6965.65
6976.1
6986.2
6995.95
7005.35
7014.41
7023.16
7031.6
7039.75
7047.61
7055.21
7062.55
7069.64
7076.5
7083.12
7089.52
7095.7
7101.65
7107.37
7112.85
7118.08
7123.05
7127.73
7132.13
7136.22
7139.98
7143.41
7146.5
7149.23
7151.6
7153.61
7155.24
7156.49
7157.37
7157.86
7157.96
7157.68
7157.03
7155.99
7154.59
7152.81
7150.66
7148.15
7145.3
7142.11
7138.57
7134.72
7130.54
7126.06
7121.29
7116.24
7110.92
7105.34
7099.52
7093.47
7087.2
7080.72
7074.05
7067.21
7060.2
7053.04
7045.75
7038.34
7030.82
7023.21
7015.52
7007.76
6999.94
6992.09
6984.21
6976.3
6968.4
6960.49
6952.6
6944.74
6936.91
6929.12
6921.39
6913.72
6906.11
6898.58
6891.13
6883.76
6876.48
6869.3
6862.22
6855.25
6848.39
6841.63
6834.99
6828.46
6822.05
6815.76
6809.59
6803.54
6797.61
6791.8
6786.12
6780.55
6775.1
6769.77
6764.56
6759.47
6754.5
6749.63
6744.89
6740.25
6735.72
6731.3
6726.98
6722.77
6718.65
6714.64
6710.72
6706.9
6703.18
6699.54
6695.99
6692.53
6689.16
6685.86
6682.65
6679.52
6676.47
6673.49
6670.59
6667.75
6664.99
6662.3
6659.67
6657.11
6654.61
6652.17
6649.79
6647.47
6645.21
6643
6640.85
6638.75
6636.7
6634.69
6632.74
6630.83
6628.97
6627.15
6625.37
6623.64
6621.94
6620.28
6618.66
6617.08
6615.53
6614.02
6612.54
6611.09
6609.67
6608.28
6606.92
6605.59
6604.29
6603.01
6601.76
6600.53
6599.33
6598.14
6596.98
6595.85
6594.73
6593.63
6592.56
6591.5
6590.46
6589.44
6588.44
6587.45
6586.48
6585.53
6584.59
6583.67
6582.76
6581.87
6580.99
6580.13
6579.28
6578.44
6577.62
6576.81
6576.02
6575.23
6574.46
6573.71
6572.96
6572.23
6571.51
6570.8
6570.1
6569.41
6568.74
6568.08
6567.42
6566.78
6566.15
6565.53
6564.93
6564.33
6563.75
6563.17
6562.61
6562.05
6561.51
6560.98
6560.46
6559.95
6559.45
6558.96
6558.48
6558.02
6557.56
6557.11
6556.67
6556.25
6555.83
6555.42
6555.02
6554.63
6554.26
6553.89
6553.53
6553.18
6552.83
6552.5