/*--------------------------------*- C++ -*----------------------------------*\
| =========                 |                                                 |
| \\      /  F ield         | OpenFOAM: The Open Source CFD Toolbox           |
|  \\    /   O peration     | Version:  v2006                                 |
|   \\  /    A nd           | Website:  www.openfoam.com                      |
|    \\/     M anipulation  |                                                 |
\*---------------------------------------------------------------------------*/
FoamFile
{
    version     2.0;
    format      ascii;
    class       surfaceScalarField;
    location    "3.8";
    object      phi;
}
// * * * * * * * * * * * * * * * * * * * * * * * * * * * * * * * * * * * * * //

dimensions      [0 3 -1 0 0 0 0];
oriented        oriented;


internalField   nonuniform List<scalar> 
65390
(
-7.41074e-05
-5.64153e-06
-7.48986e-05
7.90756e-07
-7.58646e-05
9.66073e-07
-7.69681e-05
1.10372e-06
-7.80825e-05
1.11512e-06
-7.92241e-05
1.14185e-06
-8.04497e-05
1.22554e-06
-8.17548e-05
1.30502e-06
-8.31518e-05
1.39724e-06
-8.46173e-05
1.46586e-06
-8.61608e-05
1.54388e-06
-8.77178e-05
1.55719e-06
-8.92698e-05
1.5521e-06
-9.07426e-05
1.47296e-06
-9.21148e-05
1.37249e-06
-9.34026e-05
1.2879e-06
-9.46856e-05
1.28329e-06
-9.61147e-05
1.42942e-06
-9.77077e-05
1.59328e-06
-9.9337e-05
1.62962e-06
-0.000100777
1.43993e-06
-0.00010191
1.13386e-06
-0.000102873
9.6337e-07
-0.000103833
9.60334e-07
-0.00010492
1.08725e-06
-0.000106017
1.09651e-06
-0.000107125
1.10851e-06
-0.000108245
1.12044e-06
-0.00010947
1.22531e-06
-0.000110663
1.19359e-06
-0.000111609
9.46089e-07
-0.000112283
6.74421e-07
-0.000112927
6.43371e-07
-0.000113702
7.75408e-07
-0.000114589
8.87492e-07
-0.000115399
8.10221e-07
-0.00011592
5.21207e-07
-0.000116165
2.45041e-07
-0.000116372
2.07411e-07
-0.000116762
3.89626e-07
-0.000117473
7.11197e-07
-0.000118238
7.65089e-07
-0.000118821
5.83666e-07
-0.000118967
1.46313e-07
-0.000118815
-1.52345e-07
-0.000118634
-1.80504e-07
-0.000118603
-3.17581e-08
-0.000118748
1.45311e-07
-0.000118935
1.86745e-07
-0.000119071
1.36753e-07
-0.000119024
-4.71861e-08
-0.000118653
-3.71076e-07
-0.000118159
-4.93758e-07
-0.000117754
-4.0486e-07
-0.00011747
-2.83685e-07
-0.000117117
-3.52913e-07
-0.00011647
-6.47759e-07
-0.000115541
-9.28316e-07
-0.000114675
-8.66739e-07
-0.000114094
-5.80912e-07
-0.000113726
-3.67895e-07
-0.000113265
-4.61133e-07
-0.000112447
-8.1714e-07
-0.000111261
-1.18592e-06
-0.000110032
-1.22922e-06
-0.000108972
-1.0603e-06
-0.000107881
-1.09104e-06
-0.00010646
-1.42077e-06
-0.000104395
-2.06492e-06
-0.000101739
-2.65506e-06
-9.86158e-05
-3.12354e-06
-9.49181e-05
-3.6976e-06
-9.04991e-05
-4.41893e-06
-8.50071e-05
-5.492e-06
-7.81413e-05
-6.86576e-06
-7.02106e-05
-7.93065e-06
-6.15247e-05
-8.68589e-06
-5.06839e-05
-1.08407e-05
-4.26417e-05
-8.04214e-06
-3.88678e-05
-3.77394e-06
-3.78839e-05
-9.83849e-07
-3.97034e-05
1.81949e-06
-4.07047e-05
1.00132e-06
-4.16681e-05
9.63429e-07
-4.28728e-05
1.20472e-06
-4.25046e-05
-3.68138e-07
-4.18575e-05
-6.47114e-07
-4.12878e-05
-5.69697e-07
-4.10587e-05
-2.29063e-07
-4.07979e-05
-2.60832e-07
-4.05484e-05
-2.49515e-07
-4.02529e-05
-2.95531e-07
-3.95536e-05
-6.99315e-07
-3.86218e-05
-9.31834e-07
-3.73791e-05
-1.24276e-06
-3.57142e-05
-1.66497e-06
-3.32434e-05
-2.47086e-06
-3.00455e-05
-3.19792e-06
-2.62821e-05
-3.76345e-06
-2.39586e-05
-2.32349e-06
-2.33411e-05
-6.17574e-07
-2.33084e-05
-3.2687e-08
-2.3784e-05
4.75572e-07
-2.41136e-05
3.29497e-07
-2.47101e-05
5.96497e-07
-2.50927e-05
3.82538e-07
-2.51046e-05
1.18273e-08
-2.50988e-05
-5.84542e-09
-2.50973e-05
-1.56641e-09
-2.51595e-05
6.21364e-08
-2.51363e-05
-2.3314e-08
-2.50923e-05
-4.4037e-08
-2.49018e-05
-1.90509e-07
-2.44806e-05
-4.21189e-07
-2.36846e-05
-7.96055e-07
-2.24678e-05
-1.21686e-06
-2.06721e-05
-1.79576e-06
-1.93951e-05
-1.27694e-06
-1.90685e-05
-3.26636e-07
-1.91086e-05
4.00939e-08
-1.93364e-05
2.27791e-07
-1.944e-05
1.03653e-07
-1.97457e-05
3.05677e-07
-1.99686e-05
2.23012e-07
-1.99996e-05
3.09566e-08
-2.00534e-05
5.38142e-08
-2.00883e-05
3.49397e-08
-2.00884e-05
1.74356e-10
-2.01019e-05
1.34558e-08
-2.00884e-05
-1.34168e-08
-2.0027e-05
-6.14168e-08
-1.99484e-05
-7.85189e-08
-1.98504e-05
-9.80213e-08
-1.97306e-05
-1.19768e-07
-1.95919e-05
-1.38701e-07
-1.94337e-05
-1.58168e-07
-1.92594e-05
-1.74286e-07
-1.90662e-05
-1.93185e-07
-1.88561e-05
-2.1019e-07
-1.86252e-05
-2.30924e-07
-1.83788e-05
-2.46455e-07
-1.81181e-05
-2.60779e-07
-1.78372e-05
-2.81002e-07
-1.75294e-05
-3.0779e-07
-1.72022e-05
-3.27259e-07
-1.68619e-05
-3.40359e-07
-1.65047e-05
-3.57357e-07
-1.6126e-05
-3.78762e-07
-1.5721e-05
-4.04998e-07
-1.52931e-05
-4.27946e-07
-1.48511e-05
-4.4213e-07
-1.43977e-05
-4.53388e-07
-1.39287e-05
-4.69119e-07
-1.34338e-05
-4.94938e-07
-1.29133e-05
-5.20585e-07
-1.23733e-05
-5.40176e-07
-1.18255e-05
-5.47925e-07
-1.12691e-05
-5.56472e-07
-1.06911e-05
-5.78193e-07
-1.00932e-05
-5.98057e-07
-9.47974e-06
-6.13578e-07
-8.86514e-06
-6.14743e-07
-8.24411e-06
-6.21156e-07
-7.60653e-06
-6.37704e-07
-6.95724e-06
-6.49383e-07
-6.30805e-06
-6.49257e-07
-5.66612e-06
-6.41966e-07
-5.01863e-06
-6.47491e-07
-4.36394e-06
-6.54659e-07
-3.71301e-06
-6.50852e-07
-3.07616e-06
-6.36732e-07
-2.45016e-06
-6.25851e-07
-1.82608e-06
-6.23891e-07
-1.20695e-06
-6.18922e-07
-6.03043e-07
-6.03667e-07
-2.00291e-08
-5.82757e-07
5.47239e-07
-5.66993e-07
1.10245e-06
-5.54919e-07
1.64674e-06
-5.43986e-07
2.1773e-06
-5.30251e-07
2.69033e-06
-5.12712e-07
3.18785e-06
-4.97216e-07
3.67365e-06
-4.85514e-07
4.14975e-06
-4.75833e-07
4.61211e-06
-4.62119e-07
5.0558e-06
-4.43469e-07
5.48757e-06
-4.31579e-07
5.91338e-06
-4.25641e-07
6.32773e-06
-4.14202e-07
6.72631e-06
-3.98467e-07
7.1113e-06
-3.84899e-07
7.48452e-06
-3.73151e-07
7.84638e-06
-3.6182e-07
8.19667e-06
-3.50286e-07
8.53428e-06
-3.37626e-07
8.86015e-06
-3.25898e-07
9.17553e-06
-3.15437e-07
9.47739e-06
-3.01933e-07
9.76581e-06
-2.885e-07
1.00431e-05
-2.77398e-07
1.03119e-05
-2.68905e-07
1.05705e-05
-2.58634e-07
1.08153e-05
-2.4489e-07
1.10458e-05
-2.30593e-07
1.1264e-05
-2.18214e-07
1.14717e-05
-2.07761e-07
1.16707e-05
-1.98957e-07
1.18592e-05
-1.88572e-07
1.20348e-05
-1.75509e-07
1.21974e-05
-1.62545e-07
1.23497e-05
-1.52255e-07
1.2493e-05
-1.43209e-07
1.26251e-05
-1.31953e-07
1.27439e-05
-1.18679e-07
1.28521e-05
-1.08054e-07
1.29511e-05
-9.88601e-08
1.30415e-05
-9.015e-08
1.31228e-05
-8.11377e-08
1.31927e-05
-6.97359e-08
1.32492e-05
-5.6385e-08
1.32961e-05
-4.6696e-08
1.33356e-05
-3.9336e-08
1.3368e-05
-3.23416e-08
1.3392e-05
-2.38078e-08
1.34053e-05
-1.31876e-08
1.34081e-05
-2.74555e-09
1.34033e-05
4.86163e-09
1.33909e-05
1.25504e-08
1.33708e-05
2.01687e-08
1.33448e-05
2.59995e-08
1.33113e-05
3.35888e-08
1.32683e-05
4.30287e-08
1.32184e-05
4.98996e-08
1.31626e-05
5.59032e-08
1.31015e-05
6.10684e-08
1.30356e-05
6.59403e-08
1.29627e-05
7.2946e-08
1.28833e-05
7.94483e-08
1.27987e-05
8.46077e-08
1.271e-05
8.86472e-08
1.26164e-05
9.36053e-08
1.25181e-05
9.83204e-08
1.24161e-05
1.01994e-07
1.23101e-05
1.06003e-07
1.22003e-05
1.09717e-07
1.20887e-05
1.11599e-07
1.19725e-05
1.16278e-07
1.18517e-05
1.20791e-07
1.173e-05
1.21698e-07
1.16071e-05
1.22895e-07
1.14812e-05
1.25882e-07
1.13524e-05
1.28678e-07
1.12214e-05
1.31002e-07
1.10903e-05
1.31106e-07
1.09569e-05
1.3331e-07
1.08216e-05
1.35317e-07
1.06858e-05
1.35723e-07
1.05501e-05
1.35696e-07
1.04127e-05
1.37489e-07
1.02737e-05
1.38952e-07
1.01345e-05
1.39271e-07
9.99637e-06
1.38181e-07
9.85811e-06
1.3829e-07
9.7186e-06
1.39534e-07
9.578e-06
1.4062e-07
9.4371e-06
1.40921e-07
9.29603e-06
1.411e-07
9.15658e-06
1.39477e-07
9.01837e-06
1.38235e-07
8.88024e-06
1.38168e-07
8.74145e-06
1.38811e-07
8.60168e-06
1.398e-07
8.46194e-06
1.3975e-07
8.32316e-06
1.38788e-07
8.18541e-06
1.37752e-07
8.04856e-06
1.36856e-07
7.91165e-06
1.36913e-07
7.77466e-06
1.36998e-07
7.63816e-06
1.36507e-07
7.50313e-06
1.35049e-07
7.3675e-06
1.35645e-07
7.23108e-06
1.36438e-07
7.09582e-06
1.35273e-07
6.96214e-06
1.33679e-07
6.82962e-06
1.3252e-07
6.69738e-06
1.32244e-07
6.56493e-06
1.32437e-07
6.43194e-06
1.3298e-07
6.29963e-06
1.32307e-07
6.16805e-06
1.31573e-07
6.03811e-06
1.29933e-07
5.90931e-06
1.28789e-07
5.78017e-06
1.2914e-07
5.65059e-06
1.29576e-07
5.52181e-06
1.28778e-07
5.39361e-06
1.28197e-07
5.26647e-06
1.27137e-07
5.14028e-06
1.26184e-07
5.01429e-06
1.25979e-07
4.88865e-06
1.25631e-07
4.7636e-06
1.25031e-07
4.63946e-06
1.24131e-07
4.51678e-06
1.22665e-07
4.39442e-06
1.22344e-07
4.2727e-06
1.21697e-07
4.15187e-06
1.20816e-07
4.03269e-06
1.1917e-07
3.91519e-06
1.17476e-07
3.79763e-06
1.17543e-07
3.68113e-06
1.16484e-07
3.56588e-06
1.15234e-07
3.45241e-06
1.1346e-07
3.34052e-06
1.11865e-07
3.22971e-06
1.10795e-07
3.12017e-06
1.09524e-07
3.01214e-06
1.08013e-07
2.90607e-06
1.06048e-07
2.80166e-06
1.04392e-07
2.69844e-06
1.03195e-07
2.59682e-06
1.01599e-07
2.49699e-06
9.98132e-08
2.39951e-06
9.74629e-08
2.30403e-06
9.54633e-08
2.20952e-06
9.44908e-08
2.11686e-06
9.2639e-08
2.02655e-06
9.02893e-08
1.93873e-06
8.78019e-08
1.85232e-06
8.63974e-08
1.76746e-06
8.48381e-08
1.68461e-06
8.28352e-08
1.60369e-06
8.08992e-08
1.52497e-06
7.87047e-08
1.44845e-06
7.65114e-08
1.37392e-06
7.451e-08
1.30133e-06
7.2575e-08
1.23061e-06
7.07145e-08
1.16172e-06
6.88743e-08
1.09474e-06
6.69695e-08
1.02984e-06
6.48852e-08
9.66982e-07
6.28514e-08
9.05607e-07
6.13657e-08
8.45775e-07
5.98241e-08
7.87665e-07
5.81018e-08
7.31326e-07
5.63328e-08
6.76924e-07
5.43953e-08
6.24354e-07
5.25644e-08
5.73171e-07
5.11769e-08
5.23407e-07
4.97588e-08
4.75125e-07
4.82771e-08
4.28696e-07
4.64247e-08
3.83854e-07
4.4838e-08
3.40068e-07
4.37828e-08
2.97583e-07
4.24819e-08
2.56476e-07
4.1104e-08
2.16856e-07
3.96175e-08
1.78531e-07
3.83214e-08
1.41176e-07
3.73517e-08
1.05003e-07
3.61707e-08
7.01312e-08
3.48684e-08
3.65048e-08
3.36238e-08
3.82584e-09
3.26767e-08
-2.79028e-08
3.17268e-08
-5.86022e-08
3.06979e-08
-8.83363e-08
2.97329e-08
-1.16966e-07
2.86283e-08
-1.44685e-07
2.77177e-08
-1.71698e-07
2.70118e-08
-1.97888e-07
2.6189e-08
-2.23273e-07
2.53835e-08
-2.47822e-07
2.45474e-08
-2.71433e-07
2.36092e-08
-2.94277e-07
2.28419e-08
-3.16436e-07
2.21576e-08
-3.37909e-07
2.14718e-08
-3.58608e-07
2.06979e-08
-3.78634e-07
2.00247e-08
-3.98132e-07
1.94964e-08
-4.17056e-07
1.8923e-08
-4.35421e-07
1.83634e-08
-4.53174e-07
1.77506e-08
-4.70227e-07
1.70524e-08
-4.86699e-07
1.64699e-08
-5.02705e-07
1.60061e-08
-5.18282e-07
1.55766e-08
-5.33434e-07
1.51515e-08
-5.48093e-07
1.46593e-08
-5.6228e-07
1.41873e-08
-5.75965e-07
1.36842e-08
-5.89179e-07
1.32141e-08
-6.02065e-07
1.28843e-08
-6.14512e-07
1.24457e-08
-6.26364e-07
1.18512e-08
-6.37735e-07
1.13695e-08
-6.4892e-07
1.11843e-08
-6.59641e-07
1.07206e-08
-6.69896e-07
1.02552e-08
-6.7986e-07
9.96383e-09
-6.89465e-07
9.60433e-09
-6.98635e-07
9.16931e-09
-7.0736e-07
8.72356e-09
-7.15704e-07
8.34291e-09
-7.23655e-07
7.95038e-09
-7.31323e-07
7.66795e-09
-7.3871e-07
7.38657e-09
-7.4589e-07
7.17988e-09
-7.52718e-07
6.82784e-09
-7.59438e-07
6.71995e-09
-7.65684e-07
6.24588e-09
-7.71817e-07
6.13335e-09
-7.77694e-07
5.87622e-09
-7.83335e-07
5.64123e-09
-7.88629e-07
5.29422e-09
-7.93453e-07
4.82448e-09
-7.98294e-07
4.84105e-09
-8.02557e-07
4.26298e-09
-8.06121e-07
3.56465e-09
-8.09513e-07
3.39165e-09
-8.11451e-07
1.93734e-09
-8.13004e-07
1.55307e-09
-8.1671e-07
3.7047e-09
-8.18844e-07
2.13375e-09
-8.20316e-07
1.47077e-09
-8.22747e-07
2.42977e-09
-8.14135e-07
-8.61234e-09
-8.06389e-07
-7.74709e-09
-8.14365e-07
7.97537e-09
-8.11582e-07
-2.78373e-09
-8.24066e-07
1.24834e-08
-8.53723e-07
2.9656e-08
-9.15398e-07
6.16738e-08
-9.7678e-07
6.13808e-08
-1.00606e-06
2.92823e-08
-1.03242e-06
2.63603e-08
-1.04728e-06
1.48507e-08
-1.05932e-06
1.20457e-08
-1.06731e-06
7.99021e-09
-1.07473e-06
7.41513e-09
-1.08e-06
5.26989e-09
-1.08416e-06
4.16334e-09
-1.08564e-06
1.47805e-09
-1.08731e-06
1.6719e-09
-1.08159e-06
-5.7243e-09
-1.0758e-06
-5.7912e-09
-1.07808e-06
2.28278e-09
-1.07398e-06
-4.09882e-09
-1.07718e-06
3.19471e-09
-1.08955e-06
1.23733e-08
-1.11749e-06
2.79389e-08
-1.14493e-06
2.74368e-08
-1.15516e-06
1.02306e-08
-1.1637e-06
8.54228e-09
-1.1674e-06
3.70468e-09
-1.16843e-06
1.02851e-09
-1.16945e-06
1.01458e-09
-1.16744e-06
-2.00761e-09
-1.1653e-06
-2.13665e-09
-1.15783e-06
-7.47233e-09
-1.14927e-06
-8.55584e-09
-1.14493e-06
-4.34169e-09
-1.13695e-06
-7.98203e-09
-1.13044e-06
-6.50411e-09
-1.12726e-06
-3.1804e-09
-1.08705e-06
-4.02112e-08
-1.05025e-06
-3.68051e-08
-1.05331e-06
3.06178e-09
-1.0238e-06
-2.95088e-08
-1.08613e-06
6.23283e-08
-1.17892e-06
9.27936e-08
-1.47562e-06
2.96696e-07
-1.7791e-06
3.0348e-07
-1.97893e-06
1.99833e-07
-2.11916e-06
1.40229e-07
-2.21694e-06
9.77796e-08
-2.28846e-06
7.15199e-08
-2.34245e-06
5.39921e-08
-2.38455e-06
4.21067e-08
-2.41823e-06
3.36758e-08
-2.44567e-06
2.74388e-08
-2.46835e-06
2.26847e-08
-2.4873e-06
1.89508e-08
-2.50316e-06
1.58581e-08
-2.51639e-06
1.32255e-08
-2.5274e-06
1.10088e-08
-2.53658e-06
9.18032e-09
-2.54422e-06
7.63934e-09
-2.55048e-06
6.25718e-09
-2.55544e-06
4.96098e-09
-2.55915e-06
3.71151e-09
-2.56173e-06
2.58177e-09
-2.56331e-06
1.58168e-09
-2.56405e-06
7.3256e-10
-2.564e-06
-4.29783e-11
-2.56327e-06
-7.37348e-10
-2.56187e-06
-1.39559e-09
-2.55976e-06
-2.10736e-09
-2.55699e-06
-2.77983e-09
-2.55361e-06
-3.3712e-09
-2.5496e-06
-4.0137e-09
-2.54493e-06
-4.66766e-09
-2.5396e-06
-5.33284e-09
-2.53358e-06
-6.01872e-09
-2.52688e-06
-6.70541e-09
-2.51952e-06
-7.36039e-09
-2.51156e-06
-7.95434e-09
-2.5031e-06
-8.46578e-09
-2.49421e-06
-8.8875e-09
-2.48509e-06
-9.11897e-09
-2.47564e-06
-9.45518e-09
-2.46592e-06
-9.71877e-09
-2.45603e-06
-9.88956e-09
-2.44602e-06
-1.00055e-08
-2.43596e-06
-1.00676e-08
-2.42587e-06
-1.0088e-08
-2.41577e-06
-1.01024e-08
-2.40561e-06
-1.01549e-08
-2.39533e-06
-1.02787e-08
-2.38485e-06
-1.04813e-08
-2.3741e-06
-1.0751e-08
-2.36303e-06
-1.10701e-08
-2.35161e-06
-1.1418e-08
-2.33986e-06
-1.17489e-08
-2.32789e-06
-1.19767e-08
-2.31588e-06
-1.20117e-08
-2.30402e-06
-1.18568e-08
-2.29233e-06
-1.16843e-08
-2.28062e-06
-1.17127e-08
-2.26855e-06
-1.20663e-08
-2.25601e-06
-1.25475e-08
-2.24334e-06
-1.26716e-08
-2.23107e-06
-1.22659e-08
-2.21933e-06
-1.17352e-08
-2.20801e-06
-1.13269e-08
-2.19626e-06
-1.1745e-08
-2.18383e-06
-1.24285e-08
-2.1713e-06
-1.25329e-08
-2.15928e-06
-1.20152e-08
-2.14772e-06
-1.15693e-08
-2.13561e-06
-1.21091e-08
-2.12255e-06
-1.30577e-08
-2.10933e-06
-1.32208e-08
-2.09654e-06
-1.27875e-08
-2.08368e-06
-1.28605e-08
-2.06993e-06
-1.37527e-08
-2.05604e-06
-1.38826e-08
-2.04297e-06
-1.30757e-08
-2.03049e-06
-1.24763e-08
-2.01785e-06
-1.26395e-08
-2.00556e-06
-1.22969e-08
-1.99363e-06
-1.19247e-08
-7.42825e-09
-7.43352e-05
-1.1117e-05
-7.49429e-05
1.39812e-06
-7.57176e-05
1.74036e-06
-7.66726e-05
2.05792e-06
-7.78294e-05
2.27168e-06
-7.91385e-05
2.45095e-06
-8.05644e-05
2.65164e-06
-8.20506e-05
2.79121e-06
-8.35727e-05
2.91917e-06
-8.51073e-05
3.00021e-06
-8.66428e-05
3.07954e-06
-8.81632e-05
3.07761e-06
-8.96727e-05
3.06153e-06
-9.11621e-05
2.96223e-06
-9.26478e-05
2.85831e-06
-9.4115e-05
2.75514e-06
-9.55646e-05
2.73299e-06
-9.69795e-05
2.84426e-06
-9.83493e-05
2.96313e-06
-9.96551e-05
2.93547e-06
-0.000100899
2.68404e-06
-0.000102104
2.33931e-06
-0.000103306
2.16457e-06
-0.000104532
2.18677e-06
-0.000105728
2.28296e-06
-0.00010681
2.17937e-06
-0.000107759
2.05708e-06
-0.000108619
1.98088e-06
-0.000109524
2.13102e-06
-0.000110579
2.24877e-06
-0.000111751
2.11826e-06
-0.000112835
1.75782e-06
-0.000113645
1.45397e-06
-0.000114208
1.33838e-06
-0.000114673
1.35277e-06
-0.000115193
1.33024e-06
-0.000115823
1.15149e-06
-0.000116409
8.31593e-07
-0.000116837
6.3569e-07
-0.000117175
7.27652e-07
-0.000117465
1.00097e-06
-0.000117817
1.11764e-06
-0.000118235
1.00164e-06
-0.000118519
4.30854e-07
-0.0001186
-7.17057e-08
-0.000118616
-1.64639e-07
-0.000118571
-7.60424e-08
-0.00011861
1.84366e-07
-0.000118721
2.98486e-07
-0.000118844
2.59633e-07
-0.000118845
-4.66098e-08
-0.000118691
-5.24891e-07
-0.000118418
-7.66731e-07
-0.000118068
-7.53846e-07
-0.000117759
-5.93485e-07
-0.000117429
-6.81989e-07
-0.000116874
-1.20307e-06
-0.000116141
-1.66089e-06
-0.000115387
-1.62056e-06
-0.00011478
-1.18805e-06
-0.000114198
-9.49999e-07
-0.000113418
-1.24123e-06
-0.000112368
-1.86668e-06
-0.000111241
-2.31284e-06
-0.000110298
-2.17201e-06
-0.000109469
-1.88859e-06
-0.00010847
-2.08944e-06
-0.000107166
-2.72473e-06
-0.000105591
-3.63995e-06
-0.000103844
-4.40145e-06
-0.00010197
-4.99736e-06
-0.000100025
-5.64257e-06
-9.80852e-05
-6.35823e-06
-9.6211e-05
-7.36606e-06
-9.40777e-05
-8.99887e-06
-9.11657e-05
-1.08425e-05
-8.67005e-05
-1.3151e-05
-8.31668e-05
-1.43743e-05
-7.74907e-05
-1.37182e-05
-7.01307e-05
-1.11339e-05
-5.85198e-05
-1.25947e-05
-4.75302e-05
-9.17004e-06
-4.17592e-05
-4.76965e-06
-3.94098e-05
-1.38601e-06
-3.98264e-05
1.62134e-06
-4.02909e-05
9.64117e-08
-4.07102e-05
-2.27833e-07
-4.15406e-05
2.60641e-07
-4.23639e-05
5.94235e-07
-4.18651e-05
-7.59726e-07
-4.1094e-05
-1.0206e-06
-4.06558e-05
-7.3387e-07
-4.02128e-05
-1.14239e-06
-3.98263e-05
-1.31837e-06
-3.94935e-05
-1.57566e-06
-3.89878e-05
-2.17076e-06
-3.86654e-05
-2.7934e-06
-3.84635e-05
-3.3999e-06
-3.8237e-05
-3.99002e-06
-3.65086e-05
-4.05206e-06
-3.33071e-05
-3.81914e-06
-2.94413e-05
-3.89861e-06
-2.6629e-05
-2.33689e-06
-2.54199e-05
-8.79696e-07
-2.46654e-05
-1.5822e-07
-2.44781e-05
1.95086e-07
-2.44451e-05
-2.13201e-08
-2.46966e-05
2.45564e-07
-2.52291e-05
5.30778e-07
-2.55882e-05
4.21036e-07
-2.55171e-05
-9.44868e-08
-2.54335e-05
-1.2782e-07
-2.53574e-05
-2.6668e-07
-2.52694e-05
-5.09333e-07
-2.52561e-05
-8.09504e-07
-2.52622e-05
-1.21085e-06
-2.54067e-05
-1.65135e-06
-2.50031e-05
-1.68053e-06
-2.38161e-05
-1.51368e-06
-2.20194e-05
-1.75669e-06
-2.05458e-05
-1.24585e-06
-1.99939e-05
-4.48267e-07
-1.97281e-05
3.98764e-08
-1.97467e-05
2.41599e-07
-1.98108e-05
9.51022e-08
-2.00611e-05
3.0407e-07
-2.02196e-05
1.93415e-07
-2.01719e-05
-4.75735e-08
-2.01329e-05
-2.55459e-08
-2.00933e-05
-5.29639e-08
-2.00288e-05
-1.26005e-07
-1.99695e-05
-1.37827e-07
-1.9883e-05
-1.84538e-07
-1.97533e-05
-2.49409e-07
-1.96027e-05
-2.89308e-07
-1.94351e-05
-3.25821e-07
-1.9261e-05
-3.48436e-07
-1.90684e-05
-3.85907e-07
-1.88596e-05
-4.19044e-07
-1.86308e-05
-4.59837e-07
-1.83849e-05
-4.92473e-07
-1.8121e-05
-5.24769e-07
-1.78352e-05
-5.66895e-07
-1.75271e-05
-6.16061e-07
-1.72032e-05
-6.51248e-07
-1.68632e-05
-6.80393e-07
-1.65015e-05
-7.19138e-07
-1.61142e-05
-7.66102e-07
-1.5708e-05
-8.11205e-07
-1.52854e-05
-8.50604e-07
-1.48489e-05
-8.78626e-07
-1.43933e-05
-9.09011e-07
-1.39149e-05
-9.47616e-07
-1.34141e-05
-9.95821e-07
-1.2895e-05
-1.0398e-06
-1.23633e-05
-1.07196e-06
-1.18205e-05
-1.09089e-06
-1.12596e-05
-1.11748e-06
-1.06787e-05
-1.15921e-06
-1.00821e-05
-1.19487e-06
-9.47428e-06
-1.22153e-06
-8.86031e-06
-1.22885e-06
-8.23838e-06
-1.2432e-06
-7.60622e-06
-1.26994e-06
-6.96422e-06
-1.29144e-06
-6.31945e-06
-1.29403e-06
-5.67712e-06
-1.28425e-06
-5.03316e-06
-1.29137e-06
-4.38503e-06
-1.30265e-06
-3.74022e-06
-1.29549e-06
-3.10608e-06
-1.27066e-06
-2.47959e-06
-1.25209e-06
-1.85784e-06
-1.24536e-06
-1.24391e-06
-1.23254e-06
-6.44792e-07
-1.20245e-06
-5.99911e-08
-1.16721e-06
5.13017e-07
-1.13965e-06
1.07241e-06
-1.11396e-06
1.61685e-06
-1.08807e-06
2.14631e-06
-1.05937e-06
2.66218e-06
-1.02827e-06
3.16762e-06
-1.00236e-06
3.65924e-06
-9.76866e-07
4.13643e-06
-9.52774e-07
4.59798e-06
-9.23449e-07
5.04574e-06
-8.91023e-07
5.48123e-06
-8.66883e-07
5.90675e-06
-8.50999e-07
6.32117e-06
-8.28464e-07
6.72304e-06
-8.00204e-07
7.11242e-06
-7.74154e-07
7.48923e-06
-7.49847e-07
7.85074e-06
-7.23226e-07
8.19917e-06
-6.98631e-07
8.53689e-06
-6.75276e-07
8.86525e-06
-6.54206e-07
9.1831e-06
-6.33242e-07
9.48803e-06
-6.06833e-07
9.77793e-06
-5.78389e-07
1.00555e-05
-5.54935e-07
1.03237e-05
-5.37157e-07
1.05816e-05
-5.16566e-07
1.08266e-05
-4.89891e-07
1.1058e-05
-4.61977e-07
1.12784e-05
-4.3862e-07
1.14887e-05
-4.18035e-07
1.16878e-05
-3.98091e-07
1.18751e-05
-3.75859e-07
1.20497e-05
-3.50033e-07
1.22131e-05
-3.25959e-07
1.23668e-05
-3.05854e-07
1.25098e-05
-2.86049e-07
1.26407e-05
-2.62718e-07
1.27601e-05
-2.37939e-07
1.28693e-05
-2.17082e-07
1.29688e-05
-1.98196e-07
1.30584e-05
-1.79588e-07
1.3138e-05
-1.6055e-07
1.32075e-05
-1.39092e-07
1.32656e-05
-1.14289e-07
1.33133e-05
-9.42016e-08
1.33527e-05
-7.85923e-08
1.33838e-05
-6.32609e-08
1.34058e-05
-4.56563e-08
1.34187e-05
-2.5886e-08
1.34223e-05
-6.26002e-09
1.34179e-05
9.44279e-09
1.34053e-05
2.52224e-08
1.33847e-05
4.08903e-08
1.3357e-05
5.38298e-08
1.33222e-05
6.84804e-08
1.32797e-05
8.56097e-08
1.32302e-05
9.95132e-08
1.31739e-05
1.12309e-07
1.31119e-05
1.23176e-07
1.30448e-05
1.33119e-07
1.2972e-05
1.45711e-07
1.2893e-05
1.58523e-07
1.28076e-05
1.70098e-07
1.27169e-05
1.79303e-07
1.26223e-05
1.88226e-07
1.25239e-05
1.96723e-07
1.2422e-05
2.03959e-07
1.23155e-05
2.12533e-07
1.22053e-05
2.19823e-07
1.20926e-05
2.24359e-07
1.19761e-05
2.32704e-07
1.18554e-05
2.41441e-07
1.17327e-05
2.44403e-07
1.16087e-05
2.46846e-07
1.14822e-05
2.52281e-07
1.13536e-05
2.57278e-07
1.12223e-05
2.6222e-07
1.10899e-05
2.63548e-07
1.09569e-05
2.66238e-07
1.08224e-05
2.69769e-07
1.06865e-05
2.71652e-07
1.05492e-05
2.72982e-07
1.041e-05
2.76709e-07
1.02711e-05
2.77858e-07
1.0133e-05
2.77416e-07
9.99455e-06
2.76655e-07
9.85534e-06
2.77534e-07
9.71532e-06
2.79588e-07
9.57457e-06
2.81422e-07
9.43366e-06
2.81877e-07
9.29325e-06
2.81566e-07
9.15372e-06
2.79062e-07
9.01472e-06
2.77287e-07
8.87566e-06
2.77272e-07
8.73622e-06
2.78287e-07
8.59683e-06
2.79219e-07
8.45775e-06
2.78852e-07
8.31923e-06
2.77322e-07
8.1808e-06
2.76197e-07
8.04293e-06
2.74746e-07
7.90566e-06
2.742e-07
7.7693e-06
2.73386e-07
7.63321e-06
2.72637e-07
7.4976e-06
2.70688e-07
7.36209e-06
2.71178e-07
7.22602e-06
2.72533e-07
7.09113e-06
2.7018e-07
6.95755e-06
2.6727e-07
6.8243e-06
2.65775e-07
6.69122e-06
2.65328e-07
6.55861e-06
2.65041e-07
6.42604e-06
2.65552e-07
6.29435e-06
2.63997e-07
6.16328e-06
2.6264e-07
6.03277e-06
2.60445e-07
5.90296e-06
2.586e-07
5.77341e-06
2.58696e-07
5.64408e-06
2.58907e-07
5.51583e-06
2.57033e-07
5.3881e-06
2.55922e-07
5.26056e-06
2.5467e-07
5.13359e-06
2.53146e-07
5.00746e-06
2.52091e-07
4.88218e-06
2.50903e-07
4.7576e-06
2.49593e-07
4.63373e-06
2.47978e-07
4.51049e-06
2.45893e-07
4.38789e-06
2.44922e-07
4.26673e-06
2.42839e-07
4.14646e-06
2.41067e-07
4.02702e-06
2.38587e-07
3.90885e-06
2.35623e-07
3.79125e-06
2.35119e-07
3.67517e-06
2.32548e-07
3.56035e-06
2.3003e-07
3.44677e-06
2.27013e-07
3.33439e-06
2.24224e-07
3.22359e-06
2.21568e-07
3.11431e-06
2.18782e-07
3.00649e-06
2.15798e-07
2.9002e-06
2.12316e-07
2.79537e-06
2.09196e-07
2.69232e-06
2.06216e-07
2.5911e-06
2.02791e-07
2.49161e-06
1.99272e-07
2.39391e-06
1.95142e-07
2.2979e-06
1.91451e-07
2.20346e-06
1.88904e-07
2.1113e-06
1.84773e-07
2.02113e-06
1.80434e-07
1.93282e-06
1.76085e-07
1.84637e-06
1.72829e-07
1.76177e-06
1.69406e-07
1.67918e-06
1.65405e-07
1.59867e-06
1.61393e-07
1.52013e-06
1.57225e-07
1.44353e-06
1.53093e-07
1.36894e-06
1.49077e-07
1.29637e-06
1.45128e-07
1.22574e-06
1.41335e-07
1.15698e-06
1.37623e-07
1.09011e-06
1.33819e-07
1.02512e-06
1.29869e-07
9.61971e-07
1.2599e-07
9.00679e-07
1.2265e-07
8.41113e-07
1.19383e-07
7.83212e-07
1.15996e-07
7.27122e-07
1.12418e-07
6.72775e-07
1.08738e-07
6.20068e-07
1.05268e-07
5.68918e-07
1.02324e-07
5.19366e-07
9.93081e-08
4.71368e-07
9.62738e-08
4.24875e-07
9.29161e-08
3.79804e-07
8.9908e-08
3.36082e-07
8.7504e-08
2.93813e-07
8.47495e-08
2.52882e-07
8.20354e-08
2.13234e-07
7.9265e-08
1.74866e-07
7.66895e-08
1.37735e-07
7.44838e-08
1.0185e-07
7.20564e-08
6.70171e-08
6.97023e-08
3.31586e-08
6.74834e-08
3.76353e-10
6.54601e-08
-3.11518e-08
6.32559e-08
-6.16552e-08
6.1202e-08
-9.12823e-08
5.93606e-08
-1.19929e-07
5.72757e-08
-1.47749e-07
5.55379e-08
-1.74715e-07
5.39777e-08
-2.00714e-07
5.2188e-08
-2.25917e-07
5.05858e-08
-2.50332e-07
4.89619e-08
-2.73926e-07
4.72024e-08
-2.96761e-07
4.56765e-08
-3.18862e-07
4.4259e-08
-3.40315e-07
4.29237e-08
-3.61083e-07
4.14657e-08
-3.81208e-07
4.01499e-08
-4.00687e-07
3.89749e-08
-4.1946e-07
3.76962e-08
-4.37671e-07
3.65755e-08
-4.55356e-07
3.5436e-08
-4.7248e-07
3.41762e-08
-4.8905e-07
3.30409e-08
-5.05096e-07
3.2052e-08
-5.20684e-07
3.11645e-08
-5.35841e-07
3.03086e-08
-5.50422e-07
2.92402e-08
-5.64526e-07
2.82914e-08
-5.78193e-07
2.73514e-08
-5.91402e-07
2.64225e-08
-6.04161e-07
2.56435e-08
-6.16489e-07
2.47744e-08
-6.28391e-07
2.37547e-08
-6.39936e-07
2.29155e-08
-6.51086e-07
2.23351e-08
-6.61777e-07
2.14128e-08
-6.72026e-07
2.05051e-08
-6.81922e-07
1.98614e-08
-6.91374e-07
1.90565e-08
-7.00536e-07
1.83328e-08
-7.09224e-07
1.74115e-08
-7.17633e-07
1.67537e-08
-7.25566e-07
1.58844e-08
-7.33284e-07
1.53868e-08
-7.40532e-07
1.46357e-08
-7.47638e-07
1.42872e-08
-7.54157e-07
1.33473e-08
-7.60676e-07
1.32408e-08
-7.66645e-07
1.22152e-08
-7.72675e-07
1.21645e-08
-7.78932e-07
1.21347e-08
-7.84795e-07
1.15057e-08
-7.90835e-07
1.13356e-08
-7.95503e-07
9.494e-09
-8.00207e-07
9.54685e-09
-8.03032e-07
7.0896e-09
-8.06166e-07
6.69913e-09
-8.11482e-07
8.70875e-09
-8.16362e-07
6.8168e-09
-8.19934e-07
5.12519e-09
-8.22458e-07
6.22827e-09
-8.1344e-07
-6.88522e-09
-8.0647e-07
-5.4996e-09
-8.17152e-07
1.31117e-08
-8.27322e-07
1.55637e-09
-8.51982e-07
1.69131e-08
-8.83473e-07
3.94656e-08
-9.49257e-07
6.29989e-08
-1.00879e-06
7.20155e-08
-1.03392e-06
5.47844e-08
-1.04429e-06
7.20452e-08
-1.04235e-06
5.94389e-08
-1.05153e-06
3.84627e-08
-1.05674e-06
3.15654e-08
-1.06597e-06
2.40857e-08
-1.07261e-06
1.86836e-08
-1.08014e-06
1.55126e-08
-1.08501e-06
1.22932e-08
-1.08904e-06
9.29316e-09
-1.0852e-06
3.22564e-10
-1.08191e-06
-1.80537e-09
-1.08771e-06
7.47349e-09
-1.09299e-06
-4.44168e-10
-1.10481e-06
6.0226e-09
-1.11989e-06
1.7367e-08
-1.15166e-06
2.76674e-08
-1.18032e-06
3.18604e-08
-1.18873e-06
2.07808e-08
-1.19011e-06
2.93117e-08
-1.18394e-06
2.12759e-08
-1.18564e-06
1.19224e-08
-1.18166e-06
4.56737e-09
-1.18143e-06
3.46766e-09
-1.17261e-06
-7.78721e-09
-1.16866e-06
-2.93204e-09
-1.1655e-06
-5.1712e-09
-1.1668e-06
-8.34426e-10
-1.16789e-06
-6.3765e-09
-1.16913e-06
-7.32452e-09
-1.16821e-06
-5.25906e-09
-1.12675e-06
-4.94409e-08
-1.08913e-06
-4.41219e-08
-1.09448e-06
2.17024e-09
-1.10115e-06
-3.35426e-08
-1.19375e-06
5.57945e-08
-1.30299e-06
1.12306e-07
-1.63248e-06
2.99977e-07
-1.94385e-06
3.73697e-07
-2.15346e-06
3.02411e-07
-2.24853e-06
3.91756e-07
-2.23975e-06
2.94705e-07
-2.25705e-06
2.17124e-07
-2.28834e-06
1.71515e-07
-2.32479e-06
1.34228e-07
-2.36084e-06
1.07565e-07
-2.39438e-06
8.75272e-08
-2.42443e-06
7.2158e-08
-2.45065e-06
5.98983e-08
-2.47322e-06
5.00022e-08
-2.49255e-06
4.2009e-08
-2.50904e-06
3.5437e-08
-2.52301e-06
2.98294e-08
-2.53478e-06
2.49934e-08
-2.54464e-06
2.08636e-08
-2.55279e-06
1.73335e-08
-2.55938e-06
1.42301e-08
-2.56454e-06
1.14099e-08
-2.56831e-06
8.72755e-09
-2.57098e-06
6.38501e-09
-2.57264e-06
4.23507e-09
-2.57339e-06
2.33874e-09
-2.57333e-06
6.66436e-10
-2.5726e-06
-7.70545e-10
-2.57121e-06
-2.13226e-09
-2.56915e-06
-3.45008e-09
-2.56655e-06
-4.7154e-09
-2.56336e-06
-5.96163e-09
-2.55944e-06
-7.29502e-09
-2.55492e-06
-8.53196e-09
-2.54984e-06
-9.75339e-09
-2.54419e-06
-1.09766e-08
-2.53802e-06
-1.21975e-08
-2.53133e-06
-1.33957e-08
-2.52416e-06
-1.4526e-08
-2.51656e-06
-1.55579e-08
-2.50853e-06
-1.64959e-08
-2.50009e-06
-1.73242e-08
-2.49106e-06
-1.81442e-08
-2.48183e-06
-1.86856e-08
-2.4724e-06
-1.91516e-08
-2.46273e-06
-1.95607e-08
-2.45288e-06
-1.98579e-08
-2.4429e-06
-2.00457e-08
-2.43281e-06
-2.01735e-08
-2.4226e-06
-2.03155e-08
-2.41222e-06
-2.05362e-08
-2.40164e-06
-2.08603e-08
-2.39084e-06
-2.12722e-08
-2.37985e-06
-2.17475e-08
-2.36864e-06
-2.22806e-08
-2.35719e-06
-2.28678e-08
-2.34548e-06
-2.34517e-08
-2.33358e-06
-2.38821e-08
-2.32159e-06
-2.39948e-08
-2.30965e-06
-2.38016e-08
-2.29774e-06
-2.35914e-08
-2.28571e-06
-2.37386e-08
-2.27347e-06
-2.43035e-08
-2.26116e-06
-2.48581e-08
-2.24896e-06
-2.48739e-08
-2.23702e-06
-2.42076e-08
-2.22544e-06
-2.3313e-08
-2.2133e-06
-2.34653e-08
-2.20068e-06
-2.43577e-08
-2.18808e-06
-2.5035e-08
-2.17588e-06
-2.47288e-08
-2.16404e-06
-2.38532e-08
-2.15173e-06
-2.38806e-08
-2.1387e-06
-2.51383e-08
-2.12576e-06
-2.59983e-08
-2.11328e-06
-2.56975e-08
-2.10085e-06
-2.52183e-08
-2.08769e-06
-2.60169e-08
-2.07469e-06
-2.67562e-08
-2.06214e-06
-2.64296e-08
-2.04993e-06
-2.52919e-08
-2.03747e-06
-2.4936e-08
-2.02492e-06
-2.51871e-08
-2.01165e-06
-2.55603e-08
-1.99794e-06
-2.56404e-08
-1.91659e-08
-7.33268e-05
-1.76644e-05
-7.41404e-05
2.21179e-06
-7.50748e-05
2.67501e-06
-7.62362e-05
3.2193e-06
-7.75726e-05
3.60851e-06
-7.90517e-05
3.93025e-06
-8.06131e-05
4.21306e-06
-8.22184e-05
4.39631e-06
-8.38358e-05
4.53663e-06
-8.54518e-05
4.61637e-06
-8.70612e-05
4.68904e-06
-8.86597e-05
4.67623e-06
-9.02507e-05
4.65286e-06
-9.18309e-05
4.54262e-06
-9.33986e-05
4.42614e-06
-9.49496e-05
4.30628e-06
-9.64471e-05
4.23062e-06
-9.78486e-05
4.24596e-06
-9.91213e-05
4.23595e-06
-0.000100321
4.13498e-06
-0.000101524
3.8875e-06
-0.000102813
3.62801e-06
-0.000104124
3.47541e-06
-0.000105386
3.4492e-06
-0.000106511
3.40782e-06
-0.000107536
3.20463e-06
-0.000108421
2.94151e-06
-0.000109235
2.79505e-06
-0.000110036
2.9319e-06
-0.000110934
3.14673e-06
-0.000111978
3.1624e-06
-0.000113084
2.86364e-06
-0.000113958
2.32722e-06
-0.00011448
1.86084e-06
-0.000114881
1.75306e-06
-0.000115332
1.78141e-06
-0.000115899
1.71872e-06
-0.000116565
1.49778e-06
-0.000117116
1.1863e-06
-0.000117472
1.08405e-06
-0.000117674
1.20364e-06
-0.000117792
1.23524e-06
-0.000117908
1.11826e-06
-0.000118172
6.94369e-07
-0.000118507
2.63737e-07
-0.000118791
1.1987e-07
-0.000118995
1.27545e-07
-0.000119017
2.07335e-07
-0.000118942
2.2326e-07
-0.000118863
1.80735e-07
-0.000118844
-6.58837e-08
-0.000118916
-4.52342e-07
-0.000118892
-7.90854e-07
-0.000118694
-9.51757e-07
-0.000118303
-9.84376e-07
-0.000117834
-1.15132e-06
-0.000117341
-1.69571e-06
-0.000116871
-2.13113e-06
-0.000116306
-2.18525e-06
-0.000115582
-1.91219e-06
-0.000114669
-1.86273e-06
-0.000113618
-2.29253e-06
-0.000112569
-2.91622e-06
-0.000111693
-3.18835e-06
-0.000110934
-2.9305e-06
-0.000110032
-2.79087e-06
-0.00010885
-3.27169e-06
-0.000107498
-4.07707e-06
-0.00010629
-4.847e-06
-0.000105191