/*--------------------------------*- C++ -*----------------------------------*\
| =========                 |                                                 |
| \\      /  F ield         | OpenFOAM: The Open Source CFD Toolbox           |
|  \\    /   O peration     | Version:  v2006                                 |
|   \\  /    A nd           | Website:  www.openfoam.com                      |
|    \\/     M anipulation  |                                                 |
\*---------------------------------------------------------------------------*/
FoamFile
{
    version     2.0;
    format      ascii;
    class       volVectorField;
    location    "3.8";
    object      U;
}
// * * * * * * * * * * * * * * * * * * * * * * * * * * * * * * * * * * * * * //

dimensions      [0 1 -1 0 0 0 0];


internalField   nonuniform List<vector> 
33000
(
(-0.20983 0 -0.0108728)
(-0.18377 0 0.00183975)
(-0.188791 0 0.00216791)
(-0.191192 0 0.00248278)
(-0.193994 0 0.00229152)
(-0.196749 0 0.00222157)
(-0.199561 0 0.00237378)
(-0.202706 0 0.00255447)
(-0.206081 0 0.00281263)
(-0.209737 0 0.00303808)
(-0.213485 0 0.00327077)
(-0.217396 0 0.00331726)
(-0.221223 0 0.00327222)
(-0.225104 0 0.00303664)
(-0.22856 0 0.00271102)
(-0.231953 0 0.002529)
(-0.235011 0 0.00254064)
(-0.238462 0 0.00301941)
(-0.242227 0 0.00349782)
(-0.246365 0 0.00363214)
(-0.25022 0 0.00306384)
(-0.253492 0 0.00225709)
(-0.256015 0 0.00179672)
(-0.258335 0 0.00183656)
(-0.260931 0 0.00216849)
(-0.263598 0 0.00231159)
(-0.266404 0 0.00244444)
(-0.26923 0 0.00251189)
(-0.272095 0 0.00276764)
(-0.275187 0 0.0025137)
(-0.277933 0 0.0016689)
(-0.279963 0 0.00102393)
(-0.281434 0 0.00127074)
(-0.283331 0 0.00182257)
(-0.285368 0 0.00225418)
(-0.287502 0 0.00190065)
(-0.289357 0 0.000795332)
(-0.290119 0 0.000275964)
(-0.290664 0 0.000278507)
(-0.29136 0 0.000833318)
(-0.292545 0 0.00185172)
(-0.294612 0 0.00183697)
(-0.296521 0 0.00109807)
(-0.297445 0 0.000155929)
(-0.297488 0 -0.000373805)
(-0.296796 0 -0.000410126)
(-0.296399 0 0.000126211)
(-0.296578 0 0.000305639)
(-0.297023 0 0.000355523)
(-0.297453 0 0.000210046)
(-0.297743 0 -0.000105822)
(-0.297306 0 -0.000808307)
(-0.296076 0 -0.0010717)
(-0.294816 0 -0.000753487)
(-0.293846 0 -0.000540697)
(-0.293217 0 -0.000673654)
(-0.292201 0 -0.00122228)
(-0.290181 0 -0.00181308)
(-0.287634 0 -0.00162862)
(-0.28557 0 -0.00104946)
(-0.284559 0 -0.000516716)
(-0.283925 0 -0.000643141)
(-0.282527 0 -0.00139502)
(-0.279775 0 -0.00227638)
(-0.276495 0 -0.00257872)
(-0.273563 0 -0.00233083)
(-0.271033 0 -0.00234928)
(-0.268304 0 -0.00302179)
(-0.264004 0 -0.00444049)
(-0.257883 0 -0.00597253)
(-0.250611 0 -0.00736712)
(-0.241991 0 -0.00925806)
(-0.232107 0 -0.0117989)
(-0.220412 0 -0.0155999)
(-0.204641 0 -0.0198272)
(-0.182312 0 -0.0235165)
(-0.15504 0 -0.0252974)
(-0.142895 0 -0.0277302)
(-0.11539 0 -0.00169014)
(-0.0974666 0 0.00552934)
(-0.0955096 0 0.0110363)
(-0.0953426 0 0.00905649)
(-0.102276 0 -0.000746194)
(-0.101634 0 -0.00483767)
(-0.106787 0 -0.00286839)
(-0.107396 0 -0.00104016)
(-0.105204 0 0.00113786)
(-0.103928 0 0.00170665)
(-0.102673 0 0.00142529)
(-0.102521 0 -0.000254628)
(-0.101514 0 -0.000783118)
(-0.101242 0 -0.0010394)
(-0.100004 0 -0.00128912)
(-0.0977243 0 -0.00215527)
(-0.095452 0 -0.00289011)
(-0.0912877 0 -0.00459176)
(-0.0874976 0 -0.00739994)
(-0.078256 0 -0.0102115)
(-0.0727145 0 -0.0123703)
(-0.0588884 0 -0.00436713)
(-0.0599702 0 0.00372335)
(-0.057217 0 0.00668792)
(-0.0592697 0 0.00485344)
(-0.0596021 0 -0.000317958)
(-0.0610505 0 -0.00113616)
(-0.0624892 0 -0.00121679)
(-0.0628754 0 -0.000302545)
(-0.0627044 0 0.000370721)
(-0.0627409 0 0.000924064)
(-0.0628085 0 0.000824394)
(-0.0629386 0 0.000120188)
(-0.0627666 0 -0.000205877)
(-0.0627004 0 -0.000725097)
(-0.0617278 0 -0.0012604)
(-0.0607894 0 -0.00240874)
(-0.0573172 0 -0.00357384)
(-0.0555949 0 -0.00584756)
(-0.0478378 0 -0.00282123)
(-0.0485 0 0.00120237)
(-0.0471933 0 0.00309094)
(-0.048288 0 0.00237827)
(-0.0483515 0 -2.02759e-05)
(-0.0489304 0 -0.000319835)
(-0.0497799 0 -0.000277865)
(-0.0500018 0 0.000136819)
(-0.0500316 0 0.000351185)
(-0.05022 0 0.000283101)
(-0.0502155 0 1.76564e-05)
(-0.0502356 0 -3.31978e-05)
(-0.0502697 0 -7.91392e-05)
(-0.0501611 0 -0.000117052)
(-0.049976 0 -0.0001404)
(-0.0497623 0 -0.000185235)
(-0.049487 0 -0.000233178)
(-0.0491647 0 -0.000277373)
(-0.0487921 0 -0.000317492)
(-0.0483762 0 -0.000348756)
(-0.0479174 0 -0.000380354)
(-0.0474138 0 -0.000413375)
(-0.0468634 0 -0.000455664)
(-0.0462621 0 -0.000484865)
(-0.0456302 0 -0.000511052)
(-0.0449593 0 -0.000547304)
(-0.0442232 0 -0.000603365)
(-0.0434226 0 -0.000644246)
(-0.0425883 0 -0.00067055)
(-0.0417198 0 -0.000698794)
(-0.0408027 0 -0.000736031)
(-0.039825 0 -0.000794152)
(-0.0387787 0 -0.000844071)
(-0.0376872 0 -0.00087405)
(-0.0365676 0 -0.000890318)
(-0.0354217 0 -0.000913641)
(-0.03422 0 -0.000969031)
(-0.0329483 0 -0.0010238)
(-0.0316182 0 -0.00106674)
(-0.0302485 0 -0.0010814)
(-0.0288807 0 -0.00108885)
(-0.0274634 0 -0.00113314)
(-0.025993 0 -0.00117701)
(-0.0244719 0 -0.00121021)
(-0.022929 0 -0.00120832)
(-0.0213976 0 -0.00122056)
(-0.0198229 0 -0.00125759)
(-0.0182107 0 -0.00128139)
(-0.0165761 0 -0.00127854)
(-0.0149668 0 -0.00126194)
(-0.013364 0 -0.00127607)
(-0.0117302 0 -0.00129174)
(-0.0100905 0 -0.00128422)
(-0.00847624 0 -0.00125476)
(-0.00690619 0 -0.00123145)
(-0.00534522 0 -0.0012295)
(-0.00378632 0 -0.00122218)
(-0.00224943 0 -0.00119218)
(-0.000766305 0 -0.00114541)
(0.000667408 0 -0.00111046)
(0.00207032 0 -0.00108888)
(0.00344363 0 -0.00107032)
(0.00479144 0 -0.0010445)
(0.00609604 0 -0.00100638)
(0.00735655 0 -0.000970471)
(0.00858373 0 -0.00095053)
(0.00978568 0 -0.000935388)
(0.0109641 0 -0.000909681)
(0.0120965 0 -0.000869202)
(0.0131832 0 -0.0008461)
(0.0142559 0 -0.000837332)
(0.0153115 0 -0.000814656)
(0.016327 0 -0.000780416)
(0.0173049 0 -0.000752568)
(0.0182519 0 -0.000730928)
(0.0191708 0 -0.000712481)
(0.0200613 0 -0.000690642)
(0.0209219 0 -0.000663821)
(0.0217494 0 -0.000638423)
(0.0225516 0 -0.00061751)
(0.0233253 0 -0.000591051)
(0.0240615 0 -0.000566443)
(0.024767 0 -0.000545588)
(0.0254487 0 -0.000529123)
(0.0261106 0 -0.000508558)
(0.0267412 0 -0.000481062)
(0.0273343 0 -0.000452745)
(0.0278943 0 -0.000426794)
(0.0284251 0 -0.000406191)
(0.0289331 0 -0.000391005)
(0.0294196 0 -0.000371587)
(0.0298756 0 -0.000345756)
(0.0302972 0 -0.000318834)
(0.030689 0 -0.000298266)
(0.0310589 0 -0.000281746)
(0.0314054 0 -0.000260408)
(0.0317184 0 -0.000232532)
(0.0320005 0 -0.000211273)
(0.0322592 0 -0.00019406)
(0.0324956 0 -0.000177888)
(0.0327109 0 -0.000160794)
(0.032902 0 -0.000136888)
(0.0330595 0 -0.000109108)
(0.0331859 0 -9.13778e-05)
(0.0332935 0 -7.7742e-05)
(0.0333836 0 -6.459e-05)
(0.0334556 0 -4.78784e-05)
(0.0335031 0 -2.60082e-05)
(0.0335217 0 -4.87327e-06)
(0.0335182 0 9.93457e-06)
(0.0334976 0 2.48326e-05)
(0.0334556 0 3.917e-05)
(0.0333975 0 4.9714e-05)
(0.0333259 0 6.53616e-05)
(0.0332291 0 8.50184e-05)
(0.0331118 0 9.86906e-05)
(0.0329796 0 0.000109652)
(0.0328323 0 0.000118822)
(0.032675 0 0.000128813)
(0.0325021 0 0.000143988)
(0.0323109 0 0.000156907)
(0.0321047 0 0.00016557)
(0.0318884 0 0.00017257)
(0.0316612 0 0.00018318)
(0.0314205 0 0.000193157)
(0.0311696 0 0.000200753)
(0.0309106 0 0.000208798)
(0.0306392 0 0.000215321)
(0.0303626 0 0.000218298)
(0.0300804 0 0.000229183)
(0.0297815 0 0.000237244)
(0.0294768 0 0.000238159)
(0.029173 0 0.000241222)
(0.0288618 0 0.000247809)
(0.0285439 0 0.000254045)
(0.0282178 0 0.000257051)
(0.0278897 0 0.000256811)
(0.0275611 0 0.000263825)
(0.0272237 0 0.00026673)
(0.0268838 0 0.000266127)
(0.0265456 0 0.000265939)
(0.0262048 0 0.000269901)
(0.0258587 0 0.000274404)
(0.02551 0 0.000275717)
(0.0251629 0 0.000271829)
(0.0248189 0 0.000272168)
(0.0244718 0 0.000274667)
(0.0241211 0 0.000277021)
(0.0237692 0 0.000278003)
(0.0234162 0 0.000279177)
(0.0230644 0 0.000274932)
(0.0227186 0 0.000271837)
(0.0223734 0 0.000271948)
(0.0220278 0 0.000273916)
(0.0216795 0 0.000276436)
(0.021329 0 0.000275784)
(0.0209809 0 0.000273221)
(0.020635 0 0.000270941)
(0.0202923 0 0.00026976)
(0.0199505 0 0.000270223)
(0.019608 0 0.000270855)
(0.0192653 0 0.000269243)
(0.0189259 0 0.000265839)
(0.0185897 0 0.00026824)
(0.0182479 0 0.000269363)
(0.0179077 0 0.000266686)
(0.0175715 0 0.000263346)
(0.0172395 0 0.000260661)
(0.0169086 0 0.000260727)
(0.0165785 0 0.000261534)
(0.0162461 0 0.000262259)
(0.015914 0 0.000261133)
(0.0155842 0 0.000259749)
(0.0152564 0 0.000255751)
(0.0149342 0 0.000253336)
(0.0146126 0 0.000254543)
(0.0142883 0 0.000255656)
(0.013965 0 0.000254293)
(0.0136441 0 0.000252995)
(0.0133242 0 0.000250395)
(0.0130082 0 0.000248226)
(0.0126933 0 0.000248232)
(0.0123782 0 0.000247906)
(0.0120652 0 0.000246755)
(0.0117528 0 0.000244797)
(0.0114447 0 0.00024142)
(0.0111392 0 0.000240867)
(0.010833 0 0.000240131)
(0.0105306 0 0.000238406)
(0.0102288 0 0.000234645)
(0.00993488 0 0.000230978)
(0.00964101 0 0.000231334)
(0.00934738 0 0.00022977)
(0.00905828 0 0.000227237)
(0.00877133 0 0.000223275)
(0.00849075 0 0.000219854)
(0.00821198 0 0.000218162)
(0.00793664 0 0.000215853)
(0.00766428 0 0.000212776)
(0.0073965 0 0.00020855)
(0.00713393 0 0.000205112)
(0.00687441 0 0.000203236)
(0.00661787 0 0.000200328)
(0.00636632 0 0.000196653)
(0.00611868 0 0.000191574)
(0.00587898 0 0.000187431)
(0.0056411 0 0.000185828)
(0.00540662 0 0.000182664)
(0.00517766 0 0.000177771)
(0.00495524 0 0.000172355)
(0.0047384 0 0.000169897)
(0.00452326 0 0.000167)
(0.00431407 0 0.000163034)
(0.00410903 0 0.000159307)
(0.00390948 0 0.000154832)
(0.00371545 0 0.000150354)
(0.00352682 0 0.000146455)
(0.00334284 0 0.000142669)
(0.00316386 0 0.000139061)
(0.0029892 0 0.000135458)
(0.00281943 0 0.000131678)
(0.00265429 0 0.000127415)
(0.00249498 0 0.00012328)
(0.00233993 0 0.000120669)
(0.00218815 0 0.000117724)
(0.00204073 0 0.000114252)
(0.00189763 0 0.000110821)
(0.00175901 0 0.0001069)
(0.00162566 0 0.000103172)
(0.0014961 0 0.000100549)
(0.0013698 0 9.79024e-05)
(0.00124723 0 9.50665e-05)
(0.00112844 0 9.11732e-05)
(0.00101506 0 8.78838e-05)
(0.000904215 0 8.59859e-05)
(0.000796146 0 8.35895e-05)
(0.000691776 0 8.08488e-05)
(0.000590621 0 7.7805e-05)
(0.000493674 0 7.52638e-05)
(0.000398976 0 7.3522e-05)
(0.000306927 0 7.12744e-05)
(0.00021809 0 6.85556e-05)
(0.000132585 0 6.589e-05)
(4.99354e-05 0 6.4075e-05)
(-3.08047e-05 0 6.24491e-05)
(-0.000108703 0 6.04649e-05)
(-0.000184315 0 5.84974e-05)
(-0.00025735 0 5.63002e-05)
(-0.000327484 0 5.44098e-05)
(-0.000395933 0 5.30686e-05)
(-0.000462555 0 5.16011e-05)
(-0.000526878 0 5.00578e-05)
(-0.000589488 0 4.83803e-05)
(-0.000649608 0 4.6447e-05)
(-0.000707559 0 4.49282e-05)
(-0.000763815 0 4.36223e-05)
(-0.000818366 0 4.22564e-05)
(-0.000871167 0 4.06807e-05)
(-0.000921872 0 3.9346e-05)
(-0.000971294 0 3.83385e-05)
(-0.00101936 0 3.73283e-05)
(-0.00106592 0 3.62376e-05)
(-0.00111118 0 3.4981e-05)
(-0.00115468 0 3.34938e-05)
(-0.00119645 0 3.22997e-05)
(-0.00123703 0 3.14287e-05)
(-0.00127649 0 3.05478e-05)
(-0.00131492 0 2.96622e-05)
(-0.00135224 0 2.8706e-05)
(-0.00138822 0 2.78471e-05)
(-0.00142318 0 2.66632e-05)
(-0.00145663 0 2.58398e-05)
(-0.00148928 0 2.50857e-05)
(-0.00152103 0 2.43973e-05)
(-0.00155153 0 2.28293e-05)
(-0.00158026 0 2.20195e-05)
(-0.00160843 0 2.13904e-05)
(-0.00163615 0 2.08844e-05)
(-0.00166205 0 1.9444e-05)
(-0.00168743 0 1.94202e-05)
(-0.00171186 0 1.8123e-05)
(-0.00173548 0 1.77438e-05)
(-0.00175767 0 1.60482e-05)
(-0.00177915 0 1.59151e-05)
(-0.00179931 0 1.43209e-05)
(-0.001819 0 1.44412e-05)
(-0.00183754 0 1.32715e-05)
(-0.00185607 0 1.31911e-05)
(-0.00187329 0 1.23361e-05)
(-0.00189038 0 1.16193e-05)
(-0.0019067 0 1.20097e-05)
(-0.00192179 0 1.04927e-05)
(-0.00193722 0 1.38002e-05)
(-0.00195129 0 1.02633e-05)
(-0.00196534 0 1.43774e-05)
(-0.00197781 0 7.93683e-06)
(-0.00198944 0 1.24424e-05)
(-0.00200204 0 5.30287e-06)
(-0.00201067 0 1.19558e-05)
(-0.00202 0 7.40258e-06)
(-0.00202747 0 1.39044e-05)
(-0.0020298 0 1.28576e-06)
(-0.00203521 0 4.91148e-06)
(-0.00204843 0 -1.32251e-05)
(-0.00204552 0 2.38808e-06)
(-0.00205646 0 1.44464e-05)
(-0.00205677 0 3.2682e-05)
(-0.00201392 0 7.59006e-06)
(-0.00201838 0 -1.09502e-05)
(-0.00205349 0 -0.000117505)
(-0.00200339 0 -8.37333e-05)
(-0.00211954 0 5.28871e-05)
(-0.00214555 0 0.000162434)
(-0.00243183 0 0.000202233)
(-0.00245485 0 7.89347e-05)
(-0.0025733 0 8.14793e-05)
(-0.00259028 0 4.11544e-05)
(-0.00264497 0 3.67149e-05)
(-0.00265234 0 2.5273e-05)
(-0.0026838 0 1.08183e-05)
(-0.00268997 0 1.24125e-05)
(-0.0027101 0 -7.41671e-06)
(-0.00271039 0 5.45651e-06)
(-0.00271824 0 -1.90836e-07)
(-0.00271781 0 1.77824e-05)
(-0.0026903 0 -9.09066e-06)
(-0.00268876 0 -7.11608e-06)
(-0.00270179 0 -7.9537e-05)
(-0.00266733 0 -4.75926e-05)
(-0.00272029 0 1.12377e-05)
(-0.00272521 0 8.12534e-05)
(-0.00286201 0 8.34379e-05)
(-0.00286537 0 3.10924e-05)
(-0.00290798 0 1.94756e-05)
(-0.00291262 0 3.03594e-06)
(-0.00292233 0 -4.02103e-06)
(-0.00292175 0 -1.372e-05)
(-0.00292364 0 6.99911e-06)
(-0.00291524 0 -1.68947e-05)
(-0.0029097 0 2.20072e-05)
(-0.00288079 0 -3.27908e-05)
(-0.00286429 0 1.29276e-05)
(-0.00286173 0 -8.15418e-05)
(-0.00282149 0 -2.29217e-06)
(-0.00283241 0 -3.2735e-05)
(-0.00280234 0 8.29638e-05)
(-0.00263363 0 -1.83047e-05)
(-0.00261721 0 2.66251e-05)
(-0.00265057 0 -0.000416235)
(-0.00246538 0 -0.000250229)
(-0.00297141 0 -6.23701e-05)
(-0.00291639 0 0.000475328)
(-0.00446032 0 0.000911822)
(-0.00460849 0 0.000578982)
(-0.00518676 0 0.000379584)
(-0.00541998 0 0.000246798)
(-0.00563583 0 0.00017033)
(-0.00578958 0 0.000122375)
(-0.00590926 0 9.18468e-05)
(-0.0060037 0 7.16396e-05)
(-0.00608 0 5.74873e-05)
(-0.00614259 0 4.70153e-05)
(-0.00619462 0 3.89658e-05)
(-0.00623814 0 3.2455e-05)
(-0.00627447 0 2.70226e-05)
(-0.00630475 0 2.2418e-05)
(-0.00632997 0 1.86402e-05)
(-0.00635101 0 1.55136e-05)
(-0.00636839 0 1.27659e-05)
(-0.00638242 0 1.01894e-05)
(-0.00639325 0 7.81988e-06)
(-0.00640111 0 5.61847e-06)
(-0.0064063 0 3.62489e-06)
(-0.00640919 0 1.82987e-06)
(-0.00641005 0 2.60187e-07)
(-0.00640908 0 -1.14621e-06)
(-0.00640642 0 -2.45071e-06)
(-0.00640204 0 -4.01922e-06)
(-0.00639594 0 -5.40958e-06)
(-0.00638826 0 -6.41715e-06)
(-0.00637903 0 -7.68359e-06)
(-0.00636819 0 -9.0077e-06)
(-0.00635569 0 -1.03413e-05)
(-0.00634152 0 -1.17504e-05)
(-0.00632564 0 -1.31899e-05)
(-0.00630804 0 -1.45751e-05)
(-0.00628887 0 -1.58241e-05)
(-0.00626833 0 -1.68487e-05)
(-0.00624663 0 -1.76799e-05)
(-0.00622413 0 -1.80965e-05)
(-0.00620091 0 -1.87596e-05)
(-0.00617693 0 -1.92523e-05)
(-0.00615242 0 -1.95406e-05)
(-0.00612754 0 -1.97396e-05)
(-0.00610244 0 -1.98415e-05)
(-0.00607725 0 -1.98512e-05)
(-0.00605202 0 -1.9834e-05)
(-0.00602671 0 -1.98815e-05)
(-0.00600119 0 -2.00772e-05)
(-0.00597524 0 -2.04646e-05)
(-0.00594871 0 -2.10284e-05)
(-0.00592145 0 -2.17218e-05)
(-0.00589333 0 -2.24793e-05)
(-0.00586435 0 -2.31896e-05)
(-0.00583467 0 -2.36643e-05)
(-0.00580466 0 -2.37117e-05)
(-0.00577481 0 -2.33302e-05)
(-0.00574543 0 -2.28746e-05)
(-0.00571623 0 -2.28146e-05)
(-0.00568653 0 -2.35471e-05)
(-0.00565571 0 -2.47105e-05)
(-0.00562406 0 -2.5143e-05)
(-0.00559281 0 -2.4405e-05)
(-0.00556287 0 -2.31996e-05)
(-0.00553421 0 -2.17985e-05)
(-0.00550547 0 -2.23407e-05)
(-0.00547517 0 -2.40892e-05)
(-0.00544378 0 -2.46964e-05)
(-0.00541308 0 -2.38143e-05)
(-0.00538378 0 -2.24187e-05)
(-0.00535441 0 -2.30265e-05)
(-0.00532285 0 -2.54883e-05)
(-0.00528973 0 -2.62904e-05)
(-0.00525728 0 -2.54399e-05)
(-0.00522546 0 -2.49988e-05)
(-0.00519216 0 -2.7217e-05)
(-0.0051574 0 -2.82305e-05)
(-0.0051225 0 -2.64347e-05)
(-0.00509696 0 -2.44451e-05)
(-0.00510356 0 -2.48418e-05)
(-0.00479689 0 -2.35977e-05)
(-0.00560081 0 -2.21169e-05)
(-0.0038085 0 -1.21375e-05)
(-0.21096 0 -0.03275)
(-0.18393 0 0.00418795)
(-0.188625 0 0.00522682)
(-0.190538 0 0.00606633)
(-0.193224 0 0.00646101)
(-0.196294 0 0.00682124)
(-0.199601 0 0.00738669)
(-0.203292 0 0.00784242)
(-0.207011 0 0.00829575)
(-0.210917 0 0.00860327)
(-0.214685 0 0.0089638)
(-0.218541 0 0.00898241)
(-0.222286 0 0.00893733)
(-0.226086 0 0.00853334)
(-0.229769 0 0.00809194)
(-0.233488 0 0.00765439)
(-0.237086 0 0.00765349)
(-0.240742 0 0.00830227)
(-0.244135 0 0.00904075)
(-0.247564 0 0.00910314)
(-0.250617 0 0.00812481)
(-0.253782 0 0.00655914)
(-0.256752 0 0.00577872)
(-0.259781 0 0.00582536)
(-0.262889 0 0.00649278)
(-0.265696 0 0.0064003)
(-0.268235 0 0.0063144)
(-0.270514 0 0.00625575)
(-0.272577 0 0.00672073)
(-0.275043 0 0.00671744)
(-0.277755 0 0.00573149)
(-0.280919 0 0.00437059)
(-0.28334 0 0.00390362)
(-0.284832 0 0.00432048)
(-0.28613 0 0.00461296)
(-0.287214 0 0.00431697)
(-0.288708 0 0.00325266)
(-0.290467 0 0.00170655)
(-0.291476 0 0.00141459)
(-0.292644 0 0.0022685)
(-0.293313 0 0.00367469)
(-0.293863 0 0.00402823)
(-0.295175 0 0.00336838)
(-0.296118 0 0.000988752)
(-0.296359 0 -0.000728942)
(-0.296632 0 -0.000927828)
(-0.296454 0 -0.000401358)
(-0.296331 0 0.000776078)
(-0.296653 0 0.0010598)
(-0.296964 0 0.000849331)
(-0.297127 0 -0.000243188)
(-0.296925 0 -0.00200026)
(-0.29658 0 -0.00275916)
(-0.295593 0 -0.00247579)
(-0.294694 0 -0.00174686)
(-0.293906 0 -0.00208505)
(-0.293043 0 -0.00379822)
(-0.291348 0 -0.00546442)
(-0.289388 0 -0.00516149)
(-0.287523 0 -0.0034857)
(-0.286055 0 -0.00235983)
(-0.284699 0 -0.00293174)
(-0.282488 0 -0.00512134)
(-0.279447 0 -0.00711938)
(-0.276668 0 -0.00703704)
(-0.274608 0 -0.00602088)
(-0.272493 0 -0.00636599)
(-0.269829 0 -0.00827449)
(-0.265972 0 -0.01179)
(-0.261837 0 -0.0150238)
(-0.257126 0 -0.0175358)
(-0.252186 0 -0.0204814)
(-0.247519 0 -0.0240499)
(-0.242292 0 -0.0289679)
(-0.236633 0 -0.0360042)
(-0.230508 0 -0.0422499)
(-0.22557 0 -0.0486632)
(-0.216488 0 -0.0575941)
(-0.1949 0 -0.057856)
(-0.176769 0 -0.0315691)
(-0.167189 0 -0.0193939)
(-0.130774 0 0.00372039)
(-0.106332 0 0.00718358)
(-0.100925 0 0.0127035)
(-0.0974015 0 0.01303)
(-0.101142 0 -0.00111738)
(-0.100658 0 -0.00619347)
(-0.102592 0 -0.00633586)
(-0.105544 0 -0.00359449)
(-0.106015 0 -0.00201679)
(-0.103288 0 -0.00124223)
(-0.102209 0 -0.00120119)
(-0.101076 0 -0.00416737)
(-0.0999661 0 -0.00516392)
(-0.0992344 0 -0.00688455)
(-0.0981325 0 -0.00846398)
(-0.0968872 0 -0.011887)
(-0.0963636 0 -0.0147544)
(-0.0959404 0 -0.0166703)
(-0.0955024 0 -0.0135802)
(-0.0864444 0 -0.00890582)
(-0.0810497 0 -0.00771397)
(-0.0662088 0 -0.00205732)
(-0.0658503 0 0.00295168)
(-0.0617837 0 0.00629019)
(-0.0614464 0 0.00472168)
(-0.0610107 0 0.000448213)
(-0.0611898 0 -0.00046899)
(-0.0623723 0 -0.00110348)
(-0.0637923 0 -0.000501226)
(-0.0640169 0 -0.000361415)
(-0.0636173 0 -0.000118652)
(-0.0635488 0 -0.000718674)
(-0.0632193 0 -0.00202593)
(-0.0631644 0 -0.00377726)
(-0.0630842 0 -0.00590962)
(-0.0632558 0 -0.00787344)
(-0.0638578 0 -0.00688931)
(-0.060747 0 -0.00385282)
(-0.0590563 0 -0.00324935)
(-0.0510001 0 -0.00118758)
(-0.0510777 0 0.000770937)
(-0.0492082 0 0.00296092)
(-0.0493987 0 0.00229451)
(-0.0493221 0 0.000114853)
(-0.049807 0 -7.48589e-07)
(-0.0504846 0 -8.51741e-05)
(-0.0505428 0 -3.06594e-05)
(-0.0503472 0 0.000157027)
(-0.0503098 0 2.24203e-06)
(-0.0501521 0 -0.000361388)
(-0.0499992 0 -0.000482533)
(-0.0498432 0 -0.000593885)
(-0.0495624 0 -0.000710087)
(-0.0492051 0 -0.000810928)
(-0.0488038 0 -0.000918293)
(-0.0483759 0 -0.0010145)
(-0.0479235 0 -0.00113322)
(-0.04742 0 -0.00123563)
(-0.0468743 0 -0.00135689)
(-0.0462789 0 -0.00145061)
(-0.045644 0 -0.00153725)
(-0.0449596 0 -0.00166065)
(-0.044214 0 -0.00181475)
(-0.0434207 0 -0.0019267)
(-0.0425937 0 -0.00200343)
(-0.0417215 0 -0.00210954)
(-0.0407831 0 -0.00224092)
(-0.0397877 0 -0.00238819)
(-0.0387505 0 -0.00251839)
(-0.0376765 0 -0.00259984)
(-0.0365669 0 -0.00267255)
(-0.035399 0 -0.00277356)
(-0.0341745 0 -0.00292057)
(-0.0328958 0 -0.00306716)
(-0.0315789 0 -0.00317806)
(-0.0302382 0 -0.00322433)
(-0.0288642 0 -0.00328466)
(-0.0274336 0 -0.00341112)
(-0.0259606 0 -0.00352321)
(-0.0244499 0 -0.003612)
(-0.0229226 0 -0.00362333)
(-0.0213799 0 -0.00366163)
(-0.0198129 0 -0.00375456)
(-0.0182186 0 -0.00382267)
(-0.0166035 0 -0.0038248)
(-0.0149953 0 -0.00378453)
(-0.0133916 0 -0.00381387)
(-0.011775 0 -0.00385474)
(-0.0101511 0 -0.00383259)
(-0.00855175 0 -0.00375141)
(-0.00697976 0 -0.00368977)
(-0.00541961 0 -0.00367655)
(-0.00387031 0 -0.00364463)
(-0.00235046 0 -0.00355449)
(-0.000873508 0 -0.00343705)
(0.000574575 0 -0.00334839)
(0.00199205 0 -0.00327444)
(0.00337126 0 -0.00320635)
(0.00471458 0 -0.00312354)
(0.00601771 0 -0.0030238)
(0.00729521 0 -0.0029385)
(0.00854324 0 -0.00286592)
(0.0097544 0 -0.00280433)
(0.0109279 0 -0.00272202)
(0.0120631 0 -0.00261619)
(0.0131659 0 -0.0025458)
(0.0142413 0 -0.00250743)
(0.0152929 0 -0.00244015)
(0.0163135 0 -0.00235112)
(0.0173017 0 -0.00227248)
(0.018261 0 -0.00220168)
(0.0191845 0 -0.00213047)
(0.0200695 0 -0.0020613)
(0.0209262 0 -0.00198895)
(0.0217587 0 -0.0019225)
(0.0225673 0 -0.00186139)
(0.023348 0 -0.0017818)
(0.0240914 0 -0.00170053)
(0.0247979 0 -0.00163399)
(0.0254795 0 -0.00158379)
(0.0261387 0 -0.00152366)
(0.0267689 0 -0.00144318)
(0.0273633 0 -0.00135939)
(0.0279262 0 -0.00128838)
(0.0284652 0 -0.0012269)
(0.0289773 0 -0.00117255)
(0.0294611 0 -0.00111013)
(0.0299132 0 -0.00103333)
(0.0303344 0 -0.00095864)
(0.0307307 0 -0.000898413)
(0.0311027 0 -0.000843625)
(0.0314451 0 -0.000776343)
(0.0317571 0 -0.000700194)
(0.0320424 0 -0.000637944)
(0.032303 0 -0.000582805)
(0.0325399 0 -0.000530401)
(0.032751 0 -0.000476479)
(0.032938 0 -0.000410917)
(0.0330984 0 -0.000334232)
(0.0332286 0 -0.000275611)
(0.0333371 0 -0.000231192)
(0.0334258 0 -0.000189338)
(0.0334922 0 -0.000138889)
(0.033536 0 -7.74526e-05)
(0.0335562 0 -1.68347e-05)
(0.0335546 0 2.8221e-05)
(0.0335338 0 7.38432e-05)
(0.0334919 0 0.000119401)
(0.0334309 0 0.000154766)
(0.0333533 0 0.000198774)
(0.0332567 0 0.000253013)
(0.0331414 0 0.000293298)
(0.0330088 0 0.000329643)
(0.03286 0 0.00036111)
(0.0326987 0 0.00038942)
(0.0325243 0 0.000429145)
(0.0323352 0 0.000467213)
(0.0321292 0 0.00049918)
(0.031908 0 0.000524178)
(0.0316763 0 0.000552517)
(0.0314348 0 0.000579469)
(0.0311848 0 0.00060051)
(0.0309245 0 0.000624049)
(0.0306525 0 0.000646847)
(0.0303739 0 0.000658657)
(0.0300886 0 0.000684308)
(0.0297915 0 0.000711774)
(0.0294854 0 0.000718114)
(0.029178 0 0.000724467)
(0.028865 0 0.000741277)
(0.0285461 0 0.000757002)
(0.0282215 0 0.000772417)
(0.0278902 0 0.000773513)
(0.0275591 0 0.000783595)
(0.0272254 0 0.000796494)
(0.0268866 0 0.000800365)
(0.0265461 0 0.000800384)
(0.0261997 0 0.000810601)
(0.0258506 0 0.00081749)
(0.0255052 0 0.00081854)
(0.0251599 0 0.000813953)
(0.0248129 0 0.000814574)
(0.0244638 0 0.0008219)
(0.0241129 0 0.000828038)
(0.0237601 0 0.0008294)
(0.0234083 0 0.000829573)
(0.0230582 0 0.000821092)
(0.0227105 0 0.000814499)
(0.0223633 0 0.000813861)
(0.022015 0 0.000816921)
(0.0216663 0 0.000822067)
(0.0213178 0 0.000822378)
(0.0209712 0 0.000817436)
(0.020625 0 0.000811617)
(0.0202793 0 0.000805718)
(0.0199354 0 0.000805673)
(0.0195932 0 0.000805699)
(0.0192534 0 0.000803491)
(0.0189128 0 0.000795452)
(0.0185754 0 0.000797663)
(0.0182351 0 0.000802775)
(0.0178953 0 0.000796326)
(0.0175605 0 0.000787145)
(0.0172275 0 0.000780744)
(0.0168941 0 0.000778474)
(0.0165623 0 0.000779187)
(0.0162307 0 0.000782734)
(0.0158998 0 0.000778568)
(0.0155721 0 0.00077416)
(0.0152445 0 0.000765313)
(0.0149194 0 0.000758765)
(0.0145956 0 0.000760304)
(0.0142715 0 0.000762567)
(0.0139492 0 0.000757657)
(0.01363 0 0.000754393)
(0.0133106 0 0.000748679)
(0.0129923 0 0.000743375)
(0.0126758 0 0.000741753)
(0.0123616 0 0.00073932)
(0.0120494 0 0.000735745)
(0.0117387 0 0.000730643)
(0.0114301 0 0.000722524)
(0.0111224 0 0.000720552)
(0.0108171 0 0.000716184)
(0.0105166 0 0.000710973)
(0.0102157 0 0.000701809)
(0.00991966 0 0.000692193)
(0.00962456 0 0.000692352)
(0.00933193 0 0.000685573)
(0.00904391 0 0.000678272)
(0.00875802 0 0.000668307)
(0.00847586 0 0.000659206)
(0.00819625 0 0.000652479)
(0.00792175 0 0.000644787)
(0.00764989 0 0.000635985)
(0.00738265 0 0.000624785)
(0.00711841 0 0.000615224)
(0.00685852 0 0.000607674)
(0.00660313 0 0.000598029)
(0.00635246 0 0.000587669)
(0.00610565 0 0.000574295)
(0.005864 0 0.000562739)
(0.00562547 0 0.000556684)
(0.00539193 0 0.000545272)
(0.00516457 0 0.000531709)
(0.00494116 0 0.0005176)
(0.00472297 0 0.000509014)
(0.00450893 0 0.000499646)
(0.00429998 0 0.00048787)
(0.004096 0 0.000476379)
(0.00389737 0 0.000463615)
(0.00370332 0 0.000450864)
(0.00351436 0 0.000439034)
(0.0033304 0 0.000427613)
(0.00315151 0 0.000416597)
(0.00297722 0 0.000405738)
(0.0028077 0 0.000394552)
(0.00264291 0 0.000382444)
(0.00248272 0 0.000370604)
(0.00232716 0 0.000361526)
(0.00217627 0 0.000352353)
(0.00202931 0 0.000342296)
(0.00188679 0 0.000331822)
(0.00174884 0 0.000320524)
(0.00161506 0 0.000309872)
(0.00148528 0 0.000301589)
(0.00135933 0 0.000293084)
(0.00123752 0 0.000284272)
(0.00111934 0 0.000273623)
(0.00100505 0 0.000264452)
(0.000893981 0 0.00025805)
(0.000786444 0 0.000250219)
(0.000682635 0 0.000242135)
(0.000581781 0 0.000233506)
(0.000484407 0 0.000225865)
(0.000389927 0 0.00021998)
(0.000298769 0 0.000212945)
(0.000210478 0 0.000205439)
(0.000124621 0 0.000198331)
(4.11677e-05 0 0.0001927)
(-3.9273e-05 0 0.000186849)
(-0.000116487 0 0.000180744)
(-0.000191791 0 0.000175131)
(-0.000264612 0 0.000168649)
(-0.000335037 0 0.000163386)
(-0.000403705 0 0.000159179)
(-0.000469862 0 0.000154174)
(-0.000533709 0 0.000149385)
(-0.000595869 0 0.000144493)
(-0.000655784 0 0.00013906)
(-0.000713841 0 0.000134549)
(-0.000769953 0 0.000130476)
(-0.000824358 0 0.000126453)
(-0.000877207 0 0.000121951)
(-0.000928201 0 0.000117996)
(-0.000977835 0 0.000114852)
(-0.00102558 0 0.000111351)
(-0.00107171 0 0.000108045)
(-0.00111663 0 0.000104489)
(-0.00116015 0 0.000100496)
(-0.00120224 0 9.71148e-05)
(-0.00124302 0 9.43372e-05)
(-0.00128244 0 9.18469e-05)
(-0.00132098 0 8.93909e-05)
(-0.0013582 0 8.64857e-05)
(-0.00139392 0 8.36295e-05)
(-0.00142869 0 8.08806e-05)
(-0.00146228 0 7.79984e-05)
(-0.00149471 0 7.6179e-05)
(-0.0015261 0 7.34023e-05)
(-0.00155631 0 7.03347e-05)
(-0.00158567 0 6.73376e-05)
(-0.00161397 0 6.65431e-05)
(-0.00164148 0 6.33688e-05)
(-0.00166734 0 6.11982e-05)
(-0.00169284 0 5.88867e-05)
(-0.00171668 0 5.741e-05)
(-0.00174027 0 5.4328e-05)
(-0.00176231 0 5.25807e-05)
(-0.00178391 0 4.96762e-05)
(-0.00180414 0 4.82389e-05)
(-0.0018238 0 4.58605e-05)
(-0.00184251 0 4.48471e-05)
(-0.00186024 0 4.32988e-05)
(-0.00187787 0 4.13692e-05)
(-0.00189293 0 4.12994e-05)
(-0.00191048 0 3.70794e-05)
(-0.00192262 0 3.7841e-05)
(-0.00194097 0 3.22776e-05)
(-0.00195338 0 3.41809e-05)
(-0.00197098 0 2.70446e-05)
(-0.00198272 0 3.00882e-05)
(-0.00199528 0 2.54335e-05)
(-0.00200524 0 2.83534e-05)
(-0.00201034 0 1.58574e-05)
(-0.0020201 0 1.92812e-05)
(-0.00203776 0 9.33229e-07)
(-0.0020435 0 1.09094e-05)
(-0.00205678 0 2.41227e-05)
(-0.00205481 0 3.04683e-05)
(-0.00201259 0 9.26267e-06)
(-0.00201997 0 4.5516e-06)
(-0.00206592 0 -0.000101739)
(-0.0020701 0 -6.948e-05)
(-0.00219163 0 7.37239e-05)
(-0.00222285 0 9.82142e-05)
(-0.00252294 0 0.000184722)
(-0.00252472 0 0.000180319)
(-0.00264218 0 0.000320952)
(-0.00258044 0 0.000277926)
(-0.00263105 0 0.000150714)
(-0.00262635 0 0.000124865)
(-0.00265801 0 7.51391e-05)
(-0.00267096 0 5.7607e-05)
(-0.00269318 0 3.6976e-05)
(-0.00270628 0 4.77073e-05)
(-0.00272003 0 2.86974e-05)
(-0.00272379 0 4.09663e-05)
(-0.00270323 0 5.95235e-06)
(-0.00270555 0 1.37368e-05)
(-0.00273413 0 -6.40426e-05)
(-0.00272931 0 -3.65315e-05)
(-0.0027971 0 2.5016e-05)
(-0.00279918 0 4.98821e-05)
(-0.00295994 0 7.46495e-05)
(-0.00294311 0 8.67484e-05)
(-0.00299991 0 0.000137307)
(-0.00295018 0 0.000130971)
(-0.00297066 0 4.89342e-05)
(-0.00295614 0 4.72858e-05)
(-0.00295358 0 2.61869e-05)
(-0.00295228 0 1.19495e-05)
(-0.00291157 0 2.23058e-05)
(-0.00293143 0 -2.31193e-05)
(-0.00289579 0 9.35722e-07)
(-0.00293909 0 -8.16046e-05)
(-0.00289892 0 -3.38113e-05)
(-0.00294875 0 -4.81302e-05)
(-0.00288995 0 2.01705e-05)
(-0.00274556 0 -4.91505e-05)
(-0.00269825 0 9.51761e-06)
(-0.00277682 0 -0.000401203)
(-0.00272507 0 -0.000271936)
(-0.00325038 0 -5.25574e-06)
(-0.00325756 0 0.000188037)
(-0.00489926 0 0.000757735)
(-0.00504526 0 0.000804686)
(-0.00558662 0 0.00185205)
(-0.00561348 0 0.0013754)
(-0.00561494 0 0.000928844)
(-0.00568281 0 0.000680775)
(-0.00576703 0 0.000496189)
(-0.00585752 0 0.000375936)
(-0.0059443 0 0.000292474)
(-0.00602372 0 0.000233579)
(-0.00609401 0 0.000189909)
(-0.00615495 0 0.000156351)
(-0.00620728 0 0.000130137)
(-0.00625203 0 0.000109175)
(-0.00629009 0 9.15363e-05)
(-0.00632226 0 7.63432e-05)
(-0.00634929 0 6.35348e-05)
(-0.00637181 0 5.29256e-05)
(-0.00639024 0 4.39252e-05)
(-0.00640493 0 3.58048e-05)
(-0.00641607 0 2.82047e-05)
(-0.00642412 0 2.10881e-05)
(-0.00642952 0 1.46267e-05)
(-0.00643253 0 8.91063e-06)
(-0.00643339 0 3.85338e-06)
(-0.00643241 0 -6.58642e-07)
(-0.00642976 0 -4.78171e-06)
(-0.00642545 0 -8.71509e-06)
(-0.00641964 0 -1.26711e-05)
(-0.00641241 0 -1.64752e-05)
(-0.00640352 0 -2.03019e-05)
(-0.00639297 0 -2.40618e-05)
(-0.00638097 0 -2.78502e-05)
(-0.00636755 0 -3.17115e-05)
(-0.00635277 0 -3.56488e-05)
(-0.00633668 0 -3.95519e-05)
(-0.00631936 0 -4.32342e-05)
(-0.0063009 0 -4.65528e-05)
(-0.00628136 0 -4.94552e-05)
(-0.00626078 0 -5.19e-05)
(-0.00623894 0 -5.39126e-05)
(-0.00621612 0 -5.55779e-05)
(-0.00619279 0 -5.697e-05)
(-0.0061689 0 -5.80769e-05)
(-0.00614449 0 -5.88614e-05)
(-0.0061197 0 -5.93077e-05)
(-0.00609462 0 -5.95215e-05)
(-0.00606926 0 -5.97267e-05)
(-0.00604352 0 -6.01676e-05)
(-0.00601732 0 -6.10011e-05)
(-0.0059906 0 -6.2232e-05)
(-0.00596337 0 -6.37782e-05)
(-0.00593561 0 -6.55534e-05)
(-0.00590729 0 -6.74739e-05)
(-0.00587834 0 -6.93163e-05)
(-0.00584881 0 -7.06081e-05)
(-0.00581894 0 -7.08326e-05)
(-0.00578903 0 -7.00232e-05)
(-0.00575923 0 -6.91529e-05)
(-0.00572933 0 -6.9514e-05)
(-0.00569898 0 -7.15495e-05)
(-0.00566825 0 -7.39117e-05)
(-0.00563755 0 -7.43058e-05)
(-0.0056074 0 -7.19091e-05)
(-0.00557811 0 -6.85064e-05)
(-0.0055485 0 -6.76221e-05)
(-0.00551749 0 -7.04913e-05)
(-0.00548587 0 -7.38322e-05)