/*--------------------------------*- C++ -*----------------------------------*\
| =========                 |                                                 |
| \\      /  F ield         | OpenFOAM: The Open Source CFD Toolbox           |
|  \\    /   O peration     | Version:  v2006                                 |
|   \\  /    A nd           | Website:  www.openfoam.com                      |
|    \\/     M anipulation  |                                                 |
\*---------------------------------------------------------------------------*/
FoamFile
{
    version     2.0;
    format      ascii;
    class       surfaceScalarField;
    location    "3";
    object      alphaPhi0.water;
}
// * * * * * * * * * * * * * * * * * * * * * * * * * * * * * * * * * * * * * //

dimensions      [0 3 -1 0 0 0 0];
oriented        oriented;


internalField   nonuniform List<scalar> 
65390
(
1.67434e-05
-1.77401e-06
1.85018e-05
-1.758e-06
2.02778e-05
-1.77546e-06
2.20881e-05
-1.80983e-06
2.39105e-05
-1.82206e-06
2.57001e-05
-1.78955e-06
2.74445e-05
-1.74426e-06
2.91628e-05
-1.71775e-06
3.09278e-05
-1.76405e-06
3.27408e-05
-1.81278e-06
3.45502e-05
-1.81119e-06
3.63123e-05
-1.77874e-06
3.80974e-05
-1.79045e-06
3.98595e-05
-1.76111e-06
4.16182e-05
-1.75967e-06
4.34279e-05
-1.79052e-06
4.52063e-05
-1.77326e-06
4.69431e-05
-1.73675e-06
4.86578e-05
-1.71538e-06
5.02925e-05
-1.64018e-06
5.18309e-05
-1.54482e-06
5.32921e-05
-1.45984e-06
5.47591e-05
-1.46839e-06
5.63784e-05
-1.61089e-06
5.80445e-05
-1.66679e-06
5.95258e-05
-1.48631e-06
6.07014e-05
-1.19294e-06
6.18143e-05
-1.11215e-06
6.31222e-05
-1.29667e-06
6.45012e-05
-1.37608e-06
6.5759e-05
-1.25947e-06
6.68735e-05
-1.11671e-06
6.80635e-05
-1.19238e-06
6.92449e-05
-1.18721e-06
7.0216e-05
-1.01893e-06
7.10967e-05
-8.54278e-07
7.19632e-05
-8.54504e-07
7.29543e-05
-9.91746e-07
7.40205e-05
-1.06681e-06
7.48852e-05
-8.9296e-07
7.55556e-05
-6.70081e-07
7.62183e-05
-6.43737e-07
7.70143e-05
-7.93157e-07
7.79492e-05
-9.3544e-07
7.87252e-05
-7.80633e-07
7.91913e-05
-5.00325e-07
7.96095e-05
-3.95287e-07
8.01092e-05
-4.8295e-07
8.07114e-05
-5.98624e-07
8.12856e-05
-5.77837e-07
8.179e-05
-5.11699e-07
8.22678e-05
-4.81691e-07
8.26436e-05
-3.59794e-07
8.29182e-05
-2.62387e-07
8.31876e-05
-2.66962e-07
8.3498e-05
-3.1046e-07
8.37802e-05
-2.78367e-07
8.3923e-05
-1.40445e-07
8.40112e-05
-8.61931e-08
8.41287e-05
-1.15908e-07
8.42382e-05
-1.08612e-07
8.42057e-05
3.26486e-08
8.38496e-05
3.56339e-07
8.33225e-05
5.13886e-07
8.29134e-05
4.08685e-07
8.25409e-05
3.78593e-07
8.19105e-05
6.32516e-07
8.10187e-05
8.91336e-07
8.00718e-05
9.46525e-07
7.91117e-05
9.60634e-07
7.79195e-05
1.19015e-06
7.65674e-05
1.35074e-06
7.47322e-05
1.83059e-06
7.21035e-05
2.62334e-06
6.86726e-05
3.44169e-06
6.38324e-05
4.85067e-06
5.70999e-05
6.73253e-06
4.73714e-05
9.72836e-06
3.87756e-05
8.59587e-06
3.42062e-05
4.56634e-06
3.14852e-05
2.71823e-06
3.08382e-05
6.47077e-07
2.99156e-05
9.27201e-07
2.9801e-05
1.17097e-07
3.05112e-05
-7.09583e-07
3.03132e-05
1.96676e-07
2.9975e-05
3.38235e-07
2.98661e-05
1.08839e-07
2.98814e-05
-1.39482e-08
2.97269e-05
1.55191e-07
2.95224e-05
2.02785e-07
2.93845e-05
1.39882e-07
2.9113e-05
2.72255e-07
2.87829e-05
3.31081e-07
2.82492e-05
5.30983e-07
2.75577e-05
6.91652e-07
2.64613e-05
1.09623e-06
2.51755e-05
1.288e-06
2.28769e-05
2.29942e-06
2.02181e-05
2.65787e-06
1.83727e-05
1.84481e-06
1.77391e-05
6.32458e-07
1.78061e-05
-6.79224e-08
1.77094e-05
9.76487e-08
1.79241e-05
-2.14549e-07
1.82096e-05
-2.85664e-07
1.8252e-05
-4.25924e-08
1.81431e-05
1.09069e-07
1.80323e-05
1.10576e-07
1.79595e-05
7.29989e-08
1.78432e-05
1.16081e-07
1.77179e-05
1.25166e-07
1.75472e-05
1.72018e-07
1.73028e-05
2.45925e-07
1.6893e-05
4.10539e-07
1.63817e-05
5.11162e-07
1.53681e-05
1.01374e-06
1.42602e-05
1.10787e-06
1.36072e-05
6.5394e-07
1.34182e-05
1.88976e-07
1.34649e-05
-4.67534e-08
1.3398e-05
6.67387e-08
1.34456e-05
-4.78706e-08
1.3525e-05
-7.9861e-08
1.34805e-05
4.50682e-08
1.34141e-05
6.67023e-08
1.33522e-05
6.18991e-08
1.32661e-05
8.60915e-08
1.3177e-05
8.95916e-08
1.30829e-05
9.44912e-08
1.29773e-05
1.05671e-07
1.28621e-05
1.15128e-07
1.2733e-05
1.28938e-07
1.25931e-05
1.40023e-07
1.24503e-05
1.43058e-07
1.23088e-05
1.41449e-07
1.21598e-05
1.48858e-07
1.20023e-05
1.57231e-07
1.18428e-05
1.59434e-07
1.1687e-05
1.55868e-07
1.15225e-05
1.64395e-07
1.135e-05
1.71656e-07
1.11782e-05
1.72553e-07
1.10063e-05
1.71638e-07
1.08267e-05
1.79576e-07
1.06433e-05
1.83315e-07
1.04609e-05
1.82516e-07
1.02815e-05
1.79214e-07
1.00954e-05
1.85966e-07
9.90442e-06
1.90857e-07
9.71237e-06
1.91478e-07
9.51588e-06
1.96997e-07
9.32756e-06
1.883e-07
9.14675e-06
1.80793e-07
8.95769e-06
1.88635e-07
8.75991e-06
1.97897e-07
8.56469e-06
1.95759e-07
8.37941e-06
1.85393e-07
8.19811e-06
1.81285e-07
8.00871e-06
1.89183e-07
7.81548e-06
1.93662e-07
7.62892e-06
1.8647e-07
7.45249e-06
1.76533e-07
7.27154e-06
1.80519e-07
7.08185e-06
1.89893e-07
6.89873e-06
1.82951e-07
6.72569e-06
1.73037e-07
6.55171e-06
1.7364e-07
6.37187e-06
1.79882e-07
6.18932e-06
1.82476e-07
6.01724e-06
1.72058e-07
5.85491e-06
1.62293e-07
5.68701e-06
1.67763e-07
5.51182e-06
1.75308e-07
5.34151e-06
1.70352e-07
5.17994e-06
1.61559e-07
5.02206e-06
1.57886e-07
4.86199e-06
1.60164e-07
4.7014e-06
1.60688e-07
4.54252e-06
1.58939e-07
4.38615e-06
1.56505e-07
4.23685e-06
1.49268e-07
4.08846e-06
1.48415e-07
3.93663e-06
1.51803e-07
3.78723e-06
1.49483e-07
3.64516e-06
1.42141e-07
3.50964e-06
1.35417e-07
3.36898e-06
1.40644e-07
3.22668e-06
1.42508e-07
3.09007e-06
1.36707e-07
2.95967e-06
1.30431e-07
2.82851e-06
1.31199e-07
2.69658e-06
1.32015e-07
2.56806e-06
1.28645e-07
2.4429e-06
1.25276e-07
2.32194e-06
1.21099e-07
2.19954e-06
1.22492e-07
2.07896e-06
1.20681e-07
1.96372e-06
1.153e-07
1.85421e-06
1.0958e-07
1.7422e-06
1.12106e-07
1.62901e-06
1.13267e-07
1.51694e-06
1.12138e-07
1.41125e-06
1.05739e-07
1.30977e-06
1.01531e-07
1.21272e-06
9.71161e-08
1.11431e-06
9.84534e-08
1.01221e-06
1.02147e-07
9.14851e-07
9.73962e-08
8.24286e-07
9.05933e-08
7.36002e-07
8.8309e-08
6.43739e-07
9.22853e-08
5.55334e-07
8.8421e-08
4.69727e-07
8.56133e-08
3.88909e-07
8.08056e-08
3.12354e-07
7.65487e-08
2.30907e-07
8.14385e-08
1.52342e-07
7.85472e-08
7.57844e-08
7.65347e-08
1.64568e-10
7.55915e-08
-6.70871e-08
6.72241e-08
-1.32162e-07
6.50398e-08
-2.00021e-07
6.78284e-08
-2.67915e-07
6.78579e-08
-3.32134e-07
6.41857e-08
-3.94103e-07
6.19377e-08
-4.55197e-07
6.10597e-08
-5.12582e-07
5.73546e-08
-5.65994e-07
5.33746e-08
-6.21841e-07
5.58365e-08
-6.77135e-07
5.52692e-08
-7.29646e-07
5.24851e-08
-7.80488e-07
5.08128e-08
-8.27895e-07
4.73896e-08
-8.7206e-07
4.41452e-08
-9.19401e-07
4.73679e-08
-9.66186e-07
4.67306e-08
-1.01046e-06
4.42609e-08
-1.05154e-06
4.10661e-08
-1.09334e-06
4.17848e-08
-1.13352e-06
4.0167e-08
-1.1722e-06
3.86701e-08
-1.20954e-06
3.73261e-08
-1.24634e-06
3.679e-08
-1.28166e-06
3.53097e-08
-1.31549e-06
3.38104e-08
-1.35189e-06
3.63908e-08
-1.38546e-06
3.35532e-08
-1.41582e-06
3.03452e-08
-1.44715e-06
3.13209e-08
-1.47806e-06
3.08989e-08
-1.50804e-06
2.99597e-08
-1.5377e-06
2.96536e-08
-1.56619e-06
2.8469e-08
-1.5951e-06
2.89005e-08
-1.62318e-06
2.80307e-08
-1.64882e-06
2.5624e-08
-1.67411e-06
2.52645e-08
-1.70097e-06
2.68435e-08
-1.72676e-06
2.57754e-08
-1.75118e-06
2.4376e-08
-1.77374e-06
2.25294e-08
-1.79781e-06
2.40523e-08
-1.82174e-06
2.39064e-08
-1.84506e-06
2.32931e-08
-1.86796e-06
2.28742e-08
-1.8904e-06
2.24206e-08
-1.91098e-06
2.05413e-08
-1.93066e-06
1.96557e-08
-1.95099e-06
2.0306e-08
-1.9716e-06
2.05884e-08
-1.992e-06
2.03752e-08
-2.01192e-06
1.98915e-08
-2.03119e-06
1.92428e-08
-2.05009e-06
1.88777e-08
-2.06801e-06
1.78946e-08
-2.08588e-06
1.78442e-08
-2.10344e-06
1.75349e-08
-2.12062e-06
1.71664e-08
-2.13749e-06
1.68396e-08
-2.15442e-06
1.69324e-08
-2.17124e-06
1.67663e-08
-2.18688e-06
1.56178e-08
-2.20191e-06
1.5006e-08
-2.21638e-06
1.44424e-08
-2.23045e-06
1.40495e-08
-2.24472e-06
1.42533e-08
-2.25876e-06
1.40143e-08
-2.27224e-06
1.34588e-08
-2.28525e-06
1.29879e-08
-2.29736e-06
1.20943e-08
-2.30891e-06
1.15316e-08
-2.32068e-06
1.1748e-08
-2.33215e-06
1.14602e-08
-2.34318e-06
1.10172e-08
-2.35386e-06
1.06623e-08
-2.36404e-06
1.01681e-08
-2.37387e-06
9.8142e-09
-2.38343e-06
9.54691e-09
-2.39261e-06
9.17185e-09
-2.40142e-06
8.8044e-09
-2.40984e-06
8.40556e-09
-2.4178e-06
7.95292e-09
-2.42547e-06
7.66593e-09
-2.43278e-06
7.29497e-09
-2.43957e-06
6.78384e-09
-2.44578e-06
6.21125e-09
-2.45159e-06
5.79966e-09
-2.45717e-06
5.57155e-09
-2.46227e-06
5.08986e-09
-2.46683e-06
4.55963e-09
-2.47091e-06
4.07387e-09
-2.47455e-06
3.62394e-09
-2.47772e-06
3.16761e-09
-2.48042e-06
2.69366e-09
-2.48261e-06
2.18499e-09
-2.4843e-06
1.68884e-09
-2.48552e-06
1.21366e-09
-2.48627e-06
7.39405e-10
-2.48647e-06
2.02253e-10
-2.48612e-06
-3.55299e-10
-2.48522e-06
-9.02363e-10
-2.48377e-06
-1.4619e-09
-2.48186e-06
-1.90999e-09
-2.4794e-06
-2.45887e-09
-2.47632e-06
-3.08347e-09
-2.47258e-06
-3.74126e-09
-2.46842e-06
-4.17637e-09
-2.46369e-06
-4.72566e-09
-2.45839e-06
-5.30352e-09
-2.45251e-06
-5.88563e-09
-2.446e-06
-6.50762e-09
-2.43887e-06
-7.13721e-09
-2.43113e-06
-7.74284e-09
-2.42277e-06
-8.36611e-09
-2.4138e-06
-8.97418e-09
-2.40423e-06
-9.56881e-09
-2.39407e-06
-1.01587e-08
-2.38334e-06
-1.07396e-08
-2.37201e-06
-1.13292e-08
-2.36012e-06
-1.18954e-08
-2.34773e-06
-1.23979e-08
-2.33481e-06
-1.29233e-08
-2.32135e-06
-1.34602e-08
-2.30735e-06
-1.40035e-08
-2.29281e-06
-1.45412e-08
-2.27778e-06
-1.50342e-08
-2.26226e-06
-1.55237e-08
-2.24625e-06
-1.60053e-08
-2.22976e-06
-1.64929e-08
-2.21279e-06
-1.69782e-08
-2.19541e-06
-1.73752e-08
-2.17765e-06
-1.77609e-08
-2.15951e-06
-1.8148e-08
-2.14098e-06
-1.85241e-08
-2.12211e-06
-1.88739e-08
-2.10291e-06
-1.92042e-08
-2.08338e-06
-1.95205e-08
-2.06355e-06
-1.98332e-08
-2.04339e-06
-2.01596e-08
-2.02297e-06
-2.0417e-08
-2.0023e-06
-2.06741e-08
-1.98139e-06
-2.09119e-08
-1.96027e-06
-2.11202e-08
-1.93896e-06
-2.13055e-08
-1.91749e-06
-2.14733e-08
-1.89587e-06
-2.16176e-08
-1.8741e-06
-2.17661e-08
-1.8522e-06
-2.1895e-08
-1.83018e-06
-2.20254e-08
-1.808e-06
-2.21719e-08
-1.78572e-06
-2.22788e-08
-1.76336e-06
-2.23608e-08
-1.74093e-06
-2.24222e-08
-1.71846e-06
-2.24694e-08
-1.69596e-06
-2.25023e-08
-1.67345e-06
-2.25077e-08
-1.65095e-06
-2.25003e-08
-1.62846e-06
-2.24842e-08
-1.60599e-06
-2.24665e-08
-1.58354e-06
-2.24528e-08
-1.56111e-06
-2.24252e-08
-1.53873e-06
-2.23708e-08
-1.51644e-06
-2.22858e-08
-1.49426e-06
-2.21771e-08
-1.47219e-06
-2.20692e-08
-1.45023e-06
-2.19541e-08
-1.42839e-06
-2.18417e-08
-1.40666e-06
-2.17287e-08
-1.38504e-06
-2.16091e-08
-1.36355e-06
-2.1489e-08
-1.34217e-06
-2.13774e-08
-1.32091e-06
-2.12583e-08
-1.29983e-06
-2.10728e-08
-1.27892e-06
-2.09111e-08
-1.25817e-06
-2.0743e-08
-1.23761e-06
-2.05668e-08
-1.2172e-06
-2.03984e-08
-1.19695e-06
-2.0252e-08
-1.17684e-06
-2.01094e-08
-1.15689e-06
-1.99507e-08
-1.13711e-06
-1.9774e-08
-1.11753e-06
-1.95812e-08
-1.09815e-06
-1.93768e-08
-1.07899e-06
-1.9158e-08
-1.06004e-06
-1.89528e-08
-1.04132e-06
-1.87201e-08
-1.02279e-06
-1.8533e-08
-1.00448e-06
-1.83138e-08
-9.86399e-07
-1.80769e-08
-9.6855e-07
-1.78504e-08
-9.50919e-07
-1.76316e-08
-9.33455e-07
-1.74648e-08
-9.16244e-07
-1.72115e-08
-8.99177e-07
-1.70686e-08
-8.82159e-07
-1.70194e-08
-8.65418e-07
-1.67422e-08
-8.48571e-07
-1.6848e-08
-8.31895e-07
-1.66779e-08
-8.16022e-07
-1.58746e-08
-8.00047e-07
-1.59767e-08
-7.83966e-07
-1.60827e-08
-7.68764e-07
-1.52043e-08
-7.50842e-07
-1.79244e-08
-7.33247e-07
-1.75988e-08
-7.20518e-07
-1.27322e-08
-7.05053e-07
-1.54689e-08
-6.92791e-07
-1.22658e-08
-6.85298e-07
-7.49698e-09
-6.86001e-07
7.00105e-10
-6.87083e-07
1.07823e-09
-6.80395e-07
-6.69046e-09
-6.73208e-07
-7.18931e-09
-6.63483e-07
-9.7261e-09
-6.53314e-07
-1.01696e-08
-6.42356e-07
-1.09579e-08
-6.31361e-07
-1.09935e-08
-6.2005e-07
-1.13092e-08
-6.08655e-07
-1.13926e-08
-5.96868e-07
-1.17841e-08
-5.85343e-07
-1.15239e-08
-5.72989e-07
-1.23529e-08
-5.60673e-07
-1.23168e-08
-5.4963e-07
-1.10465e-08
-5.37784e-07
-1.1851e-08
-5.26742e-07
-1.10508e-08
-5.17017e-07
-9.73746e-09
-5.09316e-07
-7.71778e-09
-5.01757e-07
-7.58053e-09
-4.92078e-07
-9.70639e-09
-4.82405e-07
-9.70587e-09
-4.72617e-07
-9.82638e-09
-4.62604e-07
-1.00572e-08
-4.53165e-07
-9.4883e-09
-4.43433e-07
-9.78675e-09
-4.34232e-07
-9.26102e-09
-4.23545e-07
-1.07526e-08
-4.13248e-07
-1.03678e-08
-4.04558e-07
-8.76708e-09
-3.94858e-07
-9.78267e-09
-3.85507e-07
-9.44023e-09
-3.78709e-07
-6.89029e-09
-3.59647e-07
-1.91571e-08
-3.43198e-07
-1.65336e-08
-3.39545e-07
-3.70308e-09
-3.243e-07
-1.5183e-08
-3.37692e-07
1.36836e-08
-3.58622e-07
2.17871e-08
-4.46565e-07
8.92889e-08
-5.30553e-07
8.6461e-08
-5.85742e-07
5.95805e-08
-6.20203e-07
3.85133e-08
-6.42273e-07
2.57787e-08
-6.56551e-07
1.76794e-08
-6.65826e-07
1.24027e-08
-6.71843e-07
8.90246e-09
-6.75622e-07
6.44557e-09
-6.77624e-07
4.46544e-09
-6.78336e-07
2.98526e-09
-6.77865e-07
1.61994e-09
-6.76446e-07
4.93508e-10
-6.74224e-07
-4.85521e-10
-6.71422e-07
-1.2396e-09
-6.6821e-07
-1.82211e-09
-6.64643e-07
-2.34432e-09
-6.60745e-07
-2.83636e-09
-6.56508e-07
-3.32905e-09
-6.51931e-07
-3.81044e-09
-6.47046e-07
-4.24696e-09
-6.41908e-07
-4.61327e-09
-6.3658e-07
-4.90027e-09
-6.31115e-07
-5.1157e-09
-6.25548e-07
-5.27857e-09
-6.19893e-07
-5.41032e-09
-6.14123e-07
-5.55403e-09
-6.08227e-07
-5.6933e-09
-6.02221e-07
-5.80494e-09
-5.96075e-07
-5.93879e-09
-5.89761e-07
-6.09453e-09
-5.83257e-07
-6.26936e-09
-5.76533e-07
-6.47282e-09
-5.69571e-07
-6.69676e-09
-5.62374e-07
-6.92165e-09
-5.54967e-07
-7.12566e-09
-5.47408e-07
-7.27903e-09
-5.39754e-07
-7.3806e-09
-5.32048e-07
-7.44571e-09
-5.24323e-07
-7.48317e-09
-5.16619e-07
-7.48441e-09
-5.08969e-07
-7.45648e-09
-5.01404e-07
-7.39788e-09
-4.93963e-07
-7.30193e-09
-4.86676e-07
-7.17405e-09
-4.79549e-07
-7.03917e-09
-4.72552e-07
-6.93025e-09
-4.65629e-07
-6.8746e-09
-4.58713e-07
-6.88126e-09
-4.51746e-07
-6.94301e-09
-4.44681e-07
-7.04696e-09
-4.37486e-07
-7.17996e-09
-4.30159e-07
-7.31261e-09
-4.22762e-07
-7.38069e-09
-4.15436e-07
-7.30654e-09
-4.08336e-07
-7.07606e-09
-4.01503e-07
-6.80464e-09
-3.94799e-07
-6.67312e-09
-3.87957e-07
-6.80745e-09
-3.80838e-07
-7.08415e-09
-3.73664e-07
-7.13793e-09
-3.66848e-07
-6.78143e-09
-3.60582e-07
-6.23391e-09
-3.54727e-07
-5.82719e-09
-3.48706e-07
-5.99602e-09
-3.42216e-07
-6.47101e-09
-3.35668e-07
-6.53391e-09
-3.29551e-07
-6.10802e-09
-3.23877e-07
-5.66915e-09
-3.17936e-07
-5.94008e-09
-3.11271e-07
-6.66706e-09
-3.04476e-07
-6.80014e-09
-2.98015e-07
-6.46713e-09
-2.91605e-07
-6.41805e-09
-2.84597e-07
-7.01719e-09
-2.77346e-07
-7.26092e-09
-2.70737e-07
-6.61825e-09
-2.64643e-07
-6.10152e-09
-2.58354e-07
-6.29543e-09
-2.52326e-07
-6.03532e-09
-2.46081e-07
-6.25192e-09
-3.263e-09
1.67884e-05
-3.57067e-06
1.85699e-05
-3.53933e-06
2.03736e-05
-3.57886e-06
2.22077e-05
-3.64306e-06
2.40625e-05
-3.67591e-06
2.58742e-05
-3.60006e-06
2.76369e-05
-3.50551e-06
2.93563e-05
-3.43566e-06
3.10723e-05
-3.47854e-06
3.28028e-05
-3.54168e-06
3.45645e-05
-3.57126e-06
3.63785e-05
-3.59123e-06
3.82221e-05
-3.63256e-06
4.00481e-05
-3.58578e-06
4.18438e-05
-3.55437e-06
4.35897e-05
-3.53561e-06
4.52975e-05
-3.48071e-06
4.69693e-05
-3.40832e-06
4.86246e-05
-3.3706e-06
5.02505e-05
-3.26601e-06
5.18527e-05
-3.14678e-06
5.33847e-05
-2.99127e-06
5.49007e-05
-2.98332e-06
5.64003e-05
-3.10833e-06
5.78804e-05
-3.14428e-06
5.92929e-05
-2.89852e-06
6.06289e-05
-2.5459e-06
6.19255e-05
-2.4054e-06
6.32603e-05
-2.62813e-06
6.45962e-05
-2.68988e-06
6.58245e-05
-2.47999e-06
6.69478e-05
-2.23984e-06
6.80174e-05
-2.26225e-06
6.91989e-05
-2.38767e-06
7.0412e-05
-2.23715e-06
7.14645e-05
-1.9043e-06
7.23294e-05
-1.69838e-06
7.30933e-05
-1.72708e-06
7.39281e-05
-1.90226e-06
7.48831e-05
-1.87928e-06
7.58183e-05
-1.6031e-06
7.66026e-05
-1.42598e-06
7.73447e-05
-1.4979e-06
7.80882e-05
-1.67959e-06
7.8902e-05
-1.59846e-06
7.95866e-05
-1.22461e-06
8.01326e-05
-9.41859e-07
8.06328e-05
-9.82632e-07
8.1223e-05
-1.15548e-06
8.18397e-05
-1.17548e-06
8.23915e-05
-1.06638e-06
8.28136e-05
-9.34703e-07
8.31145e-05
-6.75063e-07
8.33711e-05
-5.02259e-07
8.36315e-05
-5.12116e-07
8.38947e-05
-5.73561e-07
8.41187e-05
-5.0713e-07
8.41636e-05
-2.13917e-07
8.42065e-05
-1.18202e-07
8.42797e-05
-1.72066e-07
8.43523e-05
-1.8346e-07
8.43118e-05
4.90137e-08
8.39613e-05
6.82854e-07
8.36196e-05
8.55753e-07
8.33171e-05
7.37744e-07
8.29431e-05
7.70251e-07
8.23155e-05
1.23721e-06
8.15182e-05
1.67683e-06
8.06004e-05
1.86507e-06
7.96783e-05
1.91244e-06
7.86801e-05
2.19746e-06
7.74799e-05
2.55182e-06
7.60688e-05
3.22413e-06
7.44305e-05
4.25334e-06
7.29207e-05
4.95247e-06
7.17458e-05
6.02461e-06
7.14608e-05
7.02871e-06
7.22981e-05
8.89268e-06
6.92283e-05
1.16531e-05
6.13242e-05
1.24793e-05
5.10728e-05
1.29743e-05
4.18167e-05
9.90311e-06
3.74452e-05
5.2987e-06
3.41026e-05
3.44688e-06
3.23263e-05
1.07455e-06
3.06413e-05
1.88232e-06
2.9542e-05
1.43941e-06
2.97328e-05
-8.17919e-08
3.03393e-05
-6.20873e-07
3.01075e-05
3.78626e-07
2.98958e-05
4.12832e-07
2.9776e-05
2.58941e-07
2.95062e-05
5.4587e-07
2.92441e-05
5.95058e-07
2.90252e-05
7.49841e-07
2.86521e-05
1.05999e-06
2.8308e-05
1.44058e-06
2.79104e-05
1.68596e-06
2.78839e-05
2.327e-06
2.75427e-05
2.99827e-06
2.6519e-05
2.86789e-06
2.42425e-05
2.9066e-06
2.14745e-05
2.69726e-06
1.95392e-05
2.03173e-06
1.85553e-05
7.6949e-07
1.81644e-05
1.05347e-07
1.79422e-05
1.79555e-07
1.7743e-05
3.09543e-07
1.78531e-05
6.20389e-10
1.80723e-05
-1.47241e-07
1.80691e-05
1.1857e-07
1.79546e-05
2.40096e-07
1.78129e-05
3.14217e-07
1.76374e-05
4.2185e-07
1.75076e-05
5.44671e-07
1.73724e-05
6.46477e-07
1.73996e-05
9.85869e-07
1.72878e-05
1.21921e-06
1.68424e-05
1.09933e-06
1.58056e-05
1.22745e-06
1.46402e-05
1.11881e-06
1.39558e-05
7.49841e-07
1.36063e-05
3.0185e-07
1.34704e-05
5.64569e-08
1.33429e-05
1.72913e-07
1.33512e-05
5.88463e-08
1.33976e-05
1.80076e-08
1.33227e-05
1.60316e-07
1.32157e-05
1.96753e-07
1.31031e-05
2.07305e-07
1.29818e-05
2.28636e-07
1.28638e-05
2.31995e-07
1.27419e-05
2.50934e-07
1.26053e-05
2.76665e-07
1.24621e-05
2.86276e-07
1.23144e-05
2.90583e-07
1.21595e-05
3.0279e-07
1.20023e-05
3.14544e-07
1.18457e-05
3.1591e-07
1.16869e-05
3.14173e-07
1.15192e-05
3.31726e-07
1.13496e-05
3.41104e-07
1.11814e-05
3.40939e-07
1.10061e-05
3.45819e-07
1.08242e-05
3.61013e-07
1.06433e-05
3.64256e-07
1.04641e-05
3.61634e-07
1.02818e-05
3.61914e-07
1.00895e-05
3.77156e-07
9.8987e-06
3.81049e-07
9.71105e-06
3.79138e-07
9.5191e-06
3.88931e-07
9.3307e-06
3.77703e-07
9.14231e-06
3.69202e-07
8.95015e-06
3.80333e-07
8.755e-06
3.93125e-07
8.56403e-06
3.86822e-07
8.37892e-06
3.71469e-07
8.19215e-06
3.68073e-07
8.00167e-06
3.79621e-07
7.81043e-06
3.84787e-07
7.6245e-06
3.72831e-07
7.44431e-06
3.5682e-07
7.26319e-06
3.61703e-07
7.07532e-06
3.77293e-07
6.89155e-06
3.67141e-07
6.71445e-06
3.50144e-07
6.54037e-06
3.4743e-07
6.36322e-06
3.56847e-07
6.18224e-06
3.63488e-07
6.00972e-06
3.44957e-07
5.84459e-06
3.27383e-07
5.67502e-06
3.36979e-07
5.50116e-06
3.4917e-07
5.33571e-06
3.35821e-07
5.17446e-06
3.23177e-07
5.01087e-06
3.21474e-07
4.85029e-06
3.20535e-07
4.69382e-06
3.17187e-07
4.53934e-06
3.13441e-07
4.38537e-06
3.10805e-07
4.23239e-06
3.02281e-07
4.07994e-06
3.00769e-07
3.92884e-06
3.02956e-07
3.78238e-06
2.9603e-07
3.64082e-06
2.84016e-07
3.50244e-06
2.73822e-07
3.36393e-06
2.79262e-07
3.22542e-06
2.81184e-07
3.08879e-06
2.73665e-07
2.95359e-06
2.65763e-07
2.82047e-06
2.64424e-07
2.68991e-06
2.62783e-07
2.56428e-06
2.54484e-07
2.44248e-06
2.4739e-07
2.32036e-06
2.43409e-07
2.19544e-06
2.47571e-07
2.07487e-06
2.41393e-07
1.96065e-06
2.29762e-07
1.84937e-06
2.20943e-07
1.73816e-06
2.23463e-07
1.62644e-06
2.25081e-07
1.5147e-06
2.23994e-07
1.4113e-06
2.09363e-07
1.31089e-06
2.02039e-07
1.21042e-06
1.97706e-07
1.10821e-06
2.00724e-07
1.00747e-06
2.02963e-07
9.13873e-07
1.91077e-07
8.22912e-07
1.81665e-07
7.30703e-07
1.80598e-07
6.38699e-07
1.84309e-07
5.52904e-07
1.74251e-07
4.69011e-07
1.69556e-07
3.86521e-07
1.63318e-07
3.07438e-07
1.55616e-07
2.28078e-07
1.60772e-07
1.50879e-07
1.55733e-07
7.47769e-08
1.52598e-07
4.42866e-10
1.49884e-07
-6.86708e-08
1.36289e-07
-1.37461e-07
1.33781e-07
-2.03779e-07
1.34077e-07
-2.69862e-07
1.33896e-07
-3.34701e-07
1.28952e-07
-3.96175e-07
1.23362e-07
-4.56393e-07
1.21228e-07
-5.14455e-07
1.15314e-07
-5.70249e-07
1.0913e-07
-6.24985e-07
1.10484e-07
-6.79824e-07
1.10084e-07
-7.32101e-07
1.04731e-07
-7.8178e-07
1.00463e-07
-8.29959e-07
9.54818e-08
-8.75849e-07
8.99841e-08
-9.20707e-07
9.22044e-08
-9.65646e-07
9.16229e-08
-1.01176e-06
9.03211e-08
-1.05569e-06
8.49653e-08
-1.0974e-06
8.34576e-08
-1.13629e-06
7.90586e-08
-1.17425e-06
7.66207e-08
-1.21219e-06
7.51902e-08
-1.24858e-06
7.31539e-08
-1.28319e-06
6.99007e-08
-1.31783e-06
6.83932e-08
-1.3537e-06
7.22635e-08
-1.38764e-06
6.74451e-08
-1.41895e-06
6.159e-08
-1.4497e-06
6.20725e-08
-1.48035e-06
6.15367e-08
-1.50985e-06
5.94717e-08
-1.5394e-06
5.91543e-08
-1.56808e-06
5.7094e-08
-1.59559e-06
5.63945e-08
-1.62254e-06
5.49518e-08
-1.64948e-06
5.24907e-08
-1.67694e-06
5.2696e-08
-1.7038e-06
5.3682e-08
-1.72818e-06
5.01322e-08
-1.75189e-06
4.8025e-08
-1.77556e-06
4.61761e-08
-1.79966e-06
4.80972e-08
-1.82331e-06
4.75594e-08
-1.84676e-06
4.6703e-08
-1.86932e-06
4.54065e-08
-1.89131e-06
4.43796e-08
-1.91223e-06
4.13768e-08
-1.9327e-06
4.01055e-08
-1.95338e-06
4.09192e-08
-1.97386e-06
4.10547e-08
-1.99399e-06
4.05118e-08
-2.01352e-06
3.93882e-08
-2.03277e-06
3.84513e-08
-2.05229e-06
3.83224e-08
-2.07077e-06
3.63135e-08
-2.08849e-06
3.55592e-08
-2.1057e-06
3.47285e-08
-2.12269e-06
3.41468e-08
-2.13946e-06
3.34846e-08
-2.15597e-06
3.34579e-08
-2.17271e-06
3.34871e-08
-2.18827e-06
3.11658e-08
-2.20326e-06
2.99382e-08
-2.21811e-06
2.92056e-08
-2.23259e-06
2.84922e-08
-2.24669e-06
2.8334e-08
-2.26051e-06
2.78305e-08
-2.27374e-06
2.66983e-08
-2.28665e-06
2.58548e-08
-2.29915e-06
2.45243e-08
-2.31117e-06
2.35399e-08
-2.32294e-06
2.34756e-08
-2.33431e-06
2.28247e-08
-2.3452e-06
2.19152e-08
-2.35576e-06
2.1215e-08
-2.36608e-06
2.04361e-08
-2.37614e-06
1.98321e-08
-2.38565e-06
1.90477e-08
-2.39474e-06
1.82609e-08
-2.40346e-06
1.7526e-08
-2.41177e-06
1.67184e-08
-2.41978e-06
1.59231e-08
-2.42744e-06
1.53037e-08
-2.4346e-06
1.44532e-08
-2.44129e-06
1.34777e-08
-2.4476e-06
1.2503e-08
-2.45353e-06
1.16834e-08
-2.45907e-06
1.11041e-08
-2.46411e-06
1.01355e-08
-2.46868e-06
9.13063e-09
-2.4728e-06
8.18192e-09
-2.47648e-06
7.28e-09
-2.4797e-06
6.38221e-09
-2.48243e-06
5.41907e-09
-2.48466e-06
4.40157e-09
-2.4864e-06
3.41219e-09
-2.48769e-06
2.46011e-09
-2.48843e-06
1.48822e-09
-2.48864e-06
4.01909e-10
-2.48829e-06
-7.01813e-10
-2.48744e-06
-1.76965e-09
-2.48609e-06
-2.8496e-09
-2.48419e-06
-3.79853e-09
-2.48173e-06
-4.93092e-09
-2.47866e-06
-6.14872e-09
-2.47506e-06
-7.37321e-09
-2.47087e-06
-8.36943e-09
-2.4661e-06
-9.49503e-09
-2.46075e-06
-1.06543e-08
-2.4548e-06
-1.18367e-08
-2.44824e-06
-1.30673e-08
-2.44109e-06
-1.42996e-08
-2.43334e-06
-1.55031e-08
-2.42498e-06
-1.67362e-08
-2.41601e-06
-1.79464e-08
-2.40645e-06
-1.91334e-08
-2.39631e-06
-2.03071e-08
-2.38559e-06
-2.14702e-08
-2.37429e-06
-2.26401e-08
-2.36242e-06
-2.37741e-08
-2.34999e-06
-2.48328e-08
-2.33701e-06
-2.5902e-08
-2.32349e-06
-2.69783e-08
-2.30944e-06
-2.80561e-08
-2.29488e-06
-2.91161e-08
-2.27981e-06
-3.01082e-08
-2.26424e-06
-3.10958e-08
-2.24818e-06
-3.20586e-08
-2.23167e-06
-3.30143e-08
-2.21472e-06
-3.3939e-08
-2.19735e-06
-3.47386e-08
-2.17955e-06
-3.55618e-08
-2.16135e-06
-3.63481e-08
-2.14277e-06
-3.71001e-08
-2.12384e-06
-3.78089e-08
-2.10455e-06
-3.8485e-08
-2.08494e-06
-3.91356e-08
-2.06502e-06
-3.97487e-08
-2.04485e-06
-4.03261e-08
-2.02445e-06
-4.08204e-08
-2.00373e-06
-4.13846e-08
-1.98277e-06
-4.18689e-08
-1.9616e-06
-4.22869e-08
-1.94023e-06
-4.26684e-08
-1.91871e-06
-4.29987e-08
-1.89702e-06
-4.32937e-08
-1.87516e-06
-4.36177e-08
-1.85317e-06
-4.38843e-08
-1.83106e-06
-4.41309e-08
-1.80883e-06
-4.4396e-08
-1.7865e-06
-4.45998e-08
-1.7641e-06
-4.47562e-08
-1.74165e-06
-4.48669e-08
-1.71916e-06
-4.4958e-08
-1.69664e-06
-4.50199e-08
-1.6741e-06
-4.50394e-08
-1.65155e-06
-4.50451e-08
-1.62901e-06
-4.50234e-08
-1.60649e-06
-4.49778e-08
-1.58401e-06
-4.49244e-08
-1.56159e-06
-4.48421e-08
-1.53924e-06
-4.47223e-08
-1.51696e-06
-4.45535e-08
-1.4948e-06
-4.43368e-08
-1.4727e-06
-4.41523e-08
-1.45071e-06
-4.39465e-08
-1.42881e-06
-4.37327e-08
-1.40702e-06
-4.35142e-08
-1.38535e-06
-4.32747e-08
-1.36381e-06
-4.30216e-08
-1.34242e-06
-4.27653e-08
-1.32119e-06
-4.24852e-08
-1.30012e-06
-4.21389e-08
-1.27919e-06
-4.18384e-08
-1.2584e-06
-4.15211e-08
-1.23778e-06
-4.11876e-08
-1.21731e-06
-4.08642e-08
-1.19701e-06
-4.05461e-08
-1.17688e-06
-4.02407e-08
-1.15694e-06
-3.98917e-08
-1.13716e-06
-3.9544e-08
-1.11759e-06
-3.91521e-08
-1.09818e-06
-3.87824e-08
-1.07898e-06
-3.83492e-08
-1.05994e-06
-3.79931e-08
-1.04116e-06
-3.74909e-08
-1.02257e-06
-3.71195e-08
-1.00426e-06
-3.66153e-08
-9.86296e-07
-3.60388e-08
-9.68513e-07
-3.56279e-08
-9.51038e-07
-3.51011e-08
-9.33489e-07
-3.5007e-08
-9.16257e-07
-3.44376e-08
-8.98838e-07
-3.44813e-08
-8.81756e-07
-3.40949e-08
-8.65481e-07
-3.301e-08
-8.49399e-07
-3.2922e-08
-8.32997e-07
-3.30716e-08
-8.17036e-07
-3.18269e-08
-7.98123e-07
-3.48807e-08
-7.79901e-07
-3.42948e-08
-7.67122e-07
-2.79731e-08
-7.54305e-07
-3.07311e-08
-7.44252e-07
-2.76405e-08
-7.36211e-07
-2.07629e-08
-7.37748e-07
-1.39213e-08
-7.38317e-07
-1.16861e-08
-7.29921e-07
-1.58819e-08
-7.17795e-07
-1.14166e-08
-7.03117e-07
-1.359e-08
-6.91566e-07
-1.82335e-08
-6.7924e-07
-1.95103e-08
-6.67879e-07
-2.10811e-08
-6.56209e-07
-2.18366e-08
-6.44738e-07
-2.24259e-08
-6.33082e-07
-2.26482e-08
-6.21503e-07
-2.28877e-08
-6.08951e-07
-2.39443e-08
-5.96509e-07
-2.42258e-08
-5.85516e-07
-2.25148e-08
-5.74575e-07
-2.32904e-08
-5.64183e-07
-2.27022e-08
-5.54428e-07
-2.079e-08
-5.46913e-07
-1.93486e-08
-5.39425e-07
-1.85162e-08
-5.29101e-07
-2.00291e-08
-5.18129e-07
-1.86505e-08
-5.06288e-07
-1.93735e-08
-4.95969e-07
-1.99694e-08
-4.84471e-07
-2.11375e-08
-4.74194e-07
-2.00275e-08
-4.61719e-07
-2.24452e-08
-4.51256e-07
-1.98564e-08
-4.41717e-07
-1.92215e-08
-4.33825e-07
-1.7041e-08
-4.26334e-07
-1.81195e-08
-4.1792e-07
-1.86516e-08
-4.10697e-07
-1.58478e-08
-3.89728e-07
-3.0599e-08
-3.71735e-07
-2.72771e-08
-3.67953e-07
-1.05234e-08
-3.63255e-07
-2.37466e-08
-3.8167e-07
1.8867e-09
-4.02857e-07
1.72205e-08
-5.02824e-07
8.41883e-08
-6.01215e-07
1.1044e-07
-6.64653e-07
8.19465e-08
-6.85267e-07
1.05517e-07
-6.73867e-07
6.84533e-08
-6.6877e-07
4.81041e-08
-6.71119e-07
3.48125e-08
-6.75255e-07
2.42328e-08
-6.79334e-07
1.64545e-08
-6.82641e-07
1.0775e-08
-6.84945e-07
6.62642e-09
-6.86128e-07
3.38501e-09
-6.86435e-07
8.52803e-10
-6.85511e-07
-1.54565e-09
-6.83987e-07
-3.20648e-09
-6.81982e-07
-4.51242e-09
-6.79435e-07
-5.73789e-09
-6.76329e-07
-6.76031e-09
-6.72726e-07
-7.55634e-09
-6.68712e-07
-8.21665e-09
-6.64308e-07
-8.8395e-09
-6.59535e-07
-9.45967e-09
-6.54436e-07
-1.0048e-08
-6.4907e-07
-1.05567e-08
-6.43505e-07
-1.0955e-08
-6.37802e-07
-1.1242e-08
-6.32003e-07
-1.14452e-08
-6.26121e-07
-1.16098e-08
-6.20146e-07
-1.17818e-08
-6.14106e-07
-1.19598e-08
-6.0797e-07
-1.21847e-08
-6.01653e-07
-1.24826e-08
-5.95188e-07
-1.27806e-08
-5.88592e-07
-1.30886e-08
-5.81862e-07
-1.34218e-08
-5.75008e-07
-1.3771e-08
-5.68044e-07
-1.41208e-08
-5.6098e-07
-1.44542e-08
-5.5382e-07
-1.47538e-08
-5.46547e-07
-1.50102e-08
-5.39169e-07
-1.51955e-08
-5.31727e-07
-1.52963e-08
-5.24258e-07
-1.53248e-08
-5.1677e-07
-1.53037e-08
-5.09291e-07
-1.52211e-08
-5.01867e-07
-1.50627e-08
-4.94533e-07
-1.48318e-08
-4.87299e-07
-1.45616e-08
-4.80148e-07
-1.43078e-08
-4.73042e-07
-1.41223e-08
-4.65946e-07
-1.40304e-08
-4.58847e-07
-1.40222e-08
-4.51741e-07
-1.40783e-08
-4.44617e-07
-1.41936e-08
-4.37447e-07
-1.43698e-08
-4.30211e-07
-1.45703e-08
-4.22936e-07
-1.46822e-08
-4.15709e-07
-1.45653e-08
-4.08625e-07
-1.41978e-08
-4.01691e-07
-1.37821e-08
-3.94797e-07
-1.36162e-08
-3.87855e-07
-1.37998e-08
-3.80929e-07
-1.40613e-08
-3.74175e-07
-1.39426e-08
-3.67723e-07
-1.328e-08
-3.61584e-07
-1.24138e-08
-3.5525e-07
-1.2196e-08
-3.48596e-07
-1.26767e-08
-3.41965e-07
-1.31205e-08
-3.3566e-07
-1.28497e-08
-3.29749e-07
-1.20223e-08
-3.23623e-07
-1.17913e-08
-3.16961e-07
-1.25919e-08
-3.1036e-07
-1.32519e-08
-3.04101e-07
-1.30404e-08
-2.98038e-07
-1.25101e-08
-2.9144e-07
-1.29946e-08
-2.84868e-07
-1.35688e-08
-2.78827e-07
-1.32801e-08
-2.72939e-07
-1.24856e-08
-2.66865e-07
-1.21543e-08
-2.60854e-07
-1.22884e-08
-2.54542e-07
-1.23317e-08
-2.47647e-07
-1.3126e-08
-8.09798e-09
1.68345e-05
-5.36798e-06
1.86182e-05
-5.32272e-06
2.04211e-05
-5.3814e-06
2.22591e-05
-5.48081e-06
2.41123e-05
-5.5295e-06
2.59414e-05
-5.42967e-06
2.77227e-05
-5.28711e-06
2.94624e-05
-5.17489e-06
3.11869e-05
-5.20258e-06
3.29076e-05
-5.26247e-06
3.46399e-05
-5.30343e-06
3.63976e-05
-5.34874e-06
3.81522e-05
-5.38686e-06
3.99212e-05
-5.35435e-06
4.16828e-05
-5.31566e-06
4.34181e-05
-5.27069e-06
4.51173e-05
-5.17992e-06
4.67803e-05
-5.07159e-06
4.84064e-05
-4.99729e-06
5.00182e-05
-4.8788e-06
5.15998e-05
-4.72957e-06
5.31672e-05
-4.56029e-06
5.4694e-05
-4.5118e-06
5.61442e-05
-4.5604e-06
5.74974e-05
-4.49977e-06
5.88783e-05
-4.28188e-06
6.02852e-05
-3.96543e-06
6.17041e-05
-3.83035e-06
6.30579e-05
-3.97504e-06
6.43315e-05
-3.96563e-06
6.55321e-05
-3.70408e-06
6.67207e-05
-3.43314e-06
6.7839e-05
-3.38332e-06
6.90585e-05
-3.59041e-06
7.03061e-05
-3.48404e-06
7.14633e-05
-3.08111e-06
7.2398e-05
-2.66398e-06
7.31855e-05
-2.51482e-06
7.3965e-05
-2.68148e-06
7.49153e-05
-2.79199e-06
7.58818e-05
-2.58805e-06
7.6774e-05
-2.33721e-06
7.75464e-05
-2.2742e-06
7.82808e-05
-2.38085e-06
7.90326e-05
-2.33875e-06
7.98048e-05
-2.00369e-06
8.05137e-05
-1.68663e-06
8.11544e-05
-1.6239e-06
8.17633e-05
-1.7153e-06
8.22974e-05
-1.69617e-06
8.27705e-05
-1.54199e-06
8.31462e-05
-1.34178e-06
8.35118e-05
-1.04494e-06
8.37816e-05
-7.70624e-07
8.40079e-05
-7.19283e-07
8.41856e-05
-7.38893e-07
8.4312e-05
-6.46987e-07
8.43746e-05
-2.86381e-07
8.44374e-05
-1.8136e-07
8.44997e-05
-2.19667e-07
8.45281e-05
-2.03366e-07
8.43972e-05
1.63292e-07
8.42287e-05
8.31404e-07
8.41149e-05
9.69306e-07
8.39e-05
9.77788e-07
8.34619e-05
1.21798e-06
8.28396e-05
1.83802e-06
8.23027e-05
2.21449e-06
8.16509e-05
2.51614e-06
8.08236e-05
2.77316e-06