/*--------------------------------*- C++ -*----------------------------------*\
| =========                 |                                                 |
| \\      /  F ield         | OpenFOAM: The Open Source CFD Toolbox           |
|  \\    /   O peration     | Version:  v2006                                 |
|   \\  /    A nd           | Website:  www.openfoam.com                      |
|    \\/     M anipulation  |                                                 |
\*---------------------------------------------------------------------------*/
FoamFile
{
    version     2.0;
    format      ascii;
    class       volScalarField;
    location    "3";
    object      k;
}
// * * * * * * * * * * * * * * * * * * * * * * * * * * * * * * * * * * * * * //

dimensions      [0 2 -2 0 0 0 0];


internalField   nonuniform List<scalar> 
33000
(
1.08599e-08
1.13994e-08
1.18564e-08
1.23494e-08
1.30086e-08
1.39934e-08
1.54697e-08
1.75637e-08
2.03126e-08
2.36602e-08
2.7457e-08
3.14702e-08
3.54298e-08
3.91312e-08
4.23847e-08
4.5099e-08
4.72893e-08
4.8989e-08
5.02629e-08
5.12238e-08
5.1929e-08
5.24027e-08
5.26453e-08
5.27179e-08
5.28159e-08
5.30672e-08
5.33822e-08
5.35582e-08
5.35651e-08
5.3607e-08
5.37729e-08
5.39771e-08
5.41078e-08
5.4278e-08
5.45401e-08
5.48129e-08
5.49829e-08
5.50578e-08
5.51659e-08
5.54059e-08
5.56864e-08
5.5859e-08
5.59063e-08
5.59472e-08
5.61249e-08
5.63628e-08
5.65072e-08
5.65071e-08
5.64346e-08
5.63715e-08
5.62931e-08
5.61646e-08
5.60174e-08
5.58241e-08
5.55595e-08
5.52542e-08
5.49625e-08
5.47016e-08
5.44353e-08
5.41636e-08
5.39094e-08
5.3673e-08
5.34178e-08
5.31427e-08
5.28478e-08
5.25365e-08
5.22104e-08
5.18674e-08
5.15059e-08
5.1127e-08
5.07308e-08
5.03117e-08
4.98545e-08
4.93269e-08
4.86791e-08
4.78483e-08
4.67395e-08
4.52105e-08
4.30608e-08
4.04834e-08
3.82723e-08
3.68972e-08
3.6296e-08
3.61167e-08
3.57422e-08
3.59391e-08
3.59597e-08
3.58259e-08
3.56401e-08
3.54667e-08
3.52879e-08
3.50615e-08
3.47584e-08
3.43728e-08
3.39218e-08
3.33639e-08
3.26566e-08
3.16785e-08
3.05187e-08
2.90728e-08
2.78167e-08
2.69827e-08
2.65928e-08
2.63643e-08
2.61528e-08
2.60425e-08
2.59966e-08
2.58424e-08
2.56417e-08
2.54573e-08
2.52882e-08
2.51107e-08
2.49281e-08
2.46674e-08
2.43623e-08
2.38938e-08
2.34956e-08
2.30007e-08
2.27331e-08
2.28065e-08
2.2939e-08
2.2993e-08
2.30181e-08
2.30269e-08
2.30565e-08
2.30869e-08
2.31296e-08
2.3179e-08
2.32056e-08
2.32126e-08
2.32315e-08
2.32637e-08
2.32749e-08
2.32741e-08
2.32637e-08
2.32728e-08
2.32756e-08
2.32634e-08
2.32454e-08
2.32376e-08
2.32323e-08
2.32043e-08
2.31789e-08
2.31528e-08
2.31219e-08
2.3082e-08
2.30427e-08
2.3013e-08
2.29814e-08
2.29362e-08
2.28958e-08
2.28461e-08
2.27961e-08
2.27639e-08
2.27304e-08
2.26855e-08
2.26375e-08
2.25937e-08
2.25588e-08
2.25224e-08
2.24806e-08
2.24384e-08
2.24045e-08
2.23739e-08
2.23353e-08
2.22929e-08
2.22558e-08
2.22204e-08
2.21847e-08
2.21476e-08
2.21087e-08
2.20757e-08
2.20464e-08
2.20154e-08
2.19837e-08
2.19553e-08
2.19318e-08
2.19115e-08
2.1892e-08
2.18734e-08
2.18564e-08
2.18403e-08
2.18278e-08
2.18179e-08
2.18087e-08
2.17991e-08
2.17884e-08
2.17827e-08
2.17763e-08
2.17686e-08
2.17583e-08
2.17513e-08
2.17499e-08
2.17488e-08
2.17496e-08
2.17508e-08
2.17538e-08
2.17594e-08
2.17654e-08
2.17667e-08
2.17725e-08
2.17815e-08
2.17892e-08
2.17959e-08
2.18014e-08
2.18059e-08
2.18077e-08
2.18202e-08
2.18302e-08
2.18353e-08
2.18362e-08
2.1843e-08
2.18516e-08
2.18538e-08
2.18604e-08
2.18559e-08
2.18586e-08
2.1865e-08
2.18637e-08
2.1868e-08
2.18668e-08
2.18565e-08
2.18509e-08
2.18471e-08
2.18373e-08
2.18217e-08
2.18023e-08
2.17817e-08
2.17506e-08
2.17202e-08
2.16915e-08
2.16573e-08
2.16199e-08
2.15796e-08
2.15324e-08
2.14857e-08
2.14408e-08
2.13929e-08
2.13402e-08
2.12866e-08
2.12331e-08
2.11755e-08
2.11172e-08
2.10558e-08
2.09946e-08
2.09293e-08
2.08661e-08
2.08031e-08
2.07339e-08
2.06655e-08
2.05969e-08
2.05268e-08
2.0456e-08
2.03844e-08
2.0312e-08
2.02399e-08
2.01654e-08
2.00884e-08
2.00135e-08
1.99375e-08
1.98597e-08
1.978e-08
1.97002e-08
1.96219e-08
1.95415e-08
1.94614e-08
1.93802e-08
1.92981e-08
1.92142e-08
1.91304e-08
1.90476e-08
1.89641e-08
1.88801e-08
1.87952e-08
1.87098e-08
1.86239e-08
1.85372e-08
1.84506e-08
1.83639e-08
1.82768e-08
1.81892e-08
1.8102e-08
1.8014e-08
1.79248e-08
1.78355e-08
1.77455e-08
1.7655e-08
1.75643e-08
1.7473e-08
1.73811e-08
1.72888e-08
1.71959e-08
1.7103e-08
1.701e-08
1.69168e-08
1.68237e-08
1.67304e-08
1.66372e-08
1.65442e-08
1.64513e-08
1.63583e-08
1.62655e-08
1.61729e-08
1.60805e-08
1.59884e-08
1.58963e-08
1.58042e-08
1.57124e-08
1.56209e-08
1.55297e-08
1.54386e-08
1.53474e-08
1.52563e-08
1.51663e-08
1.50774e-08
1.49897e-08
1.49031e-08
1.48175e-08
1.47331e-08
1.46497e-08
1.45673e-08
1.44859e-08
1.44054e-08
1.43259e-08
1.42474e-08
1.41698e-08
1.4093e-08
1.4017e-08
1.3942e-08
1.38678e-08
1.37943e-08
1.37214e-08
1.36491e-08
1.35773e-08
1.35061e-08
1.34353e-08
1.3365e-08
1.32951e-08
1.32257e-08
1.31568e-08
1.30883e-08
1.30203e-08
1.29528e-08
1.28858e-08
1.28192e-08
1.27529e-08
1.2687e-08
1.26214e-08
1.25563e-08
1.24914e-08
1.24269e-08
1.23628e-08
1.2299e-08
1.22356e-08
1.21726e-08
1.211e-08
1.20479e-08
1.19862e-08
1.19249e-08
1.1864e-08
1.18034e-08
1.17432e-08
1.16835e-08
1.16241e-08
1.15653e-08
1.1507e-08
1.14492e-08
1.13919e-08
1.1335e-08
1.12786e-08
1.12226e-08
1.11671e-08
1.11121e-08
1.10576e-08
1.10035e-08
1.095e-08
1.0897e-08
1.08445e-08
1.07927e-08
1.07414e-08
1.06907e-08
1.06404e-08
1.05907e-08
1.05416e-08
1.04931e-08
1.04453e-08
1.03981e-08
1.03515e-08
1.03055e-08
1.02601e-08
1.02153e-08
1.01711e-08
1.01275e-08
1.00845e-08
1.00421e-08
1.00004e-08
9.95925e-09
9.91876e-09
9.87887e-09
9.83953e-09
9.80075e-09
9.76252e-09
9.72487e-09
9.68783e-09
9.6514e-09
9.6156e-09
9.5804e-09
9.54579e-09
9.51171e-09
9.47823e-09
9.44535e-09
9.41306e-09
9.38135e-09
9.35014e-09
9.31958e-09
9.2893e-09
9.25961e-09
9.2304e-09
9.20135e-09
9.17307e-09
9.146e-09
9.1181e-09
9.09184e-09
9.06563e-09
9.03613e-09
9.01093e-09
8.98996e-09
8.96092e-09
8.94605e-09
8.92202e-09
8.92673e-09
8.90399e-09
8.89289e-09
8.8727e-09
8.85599e-09
8.8364e-09
8.81834e-09
8.79943e-09
8.78125e-09
8.76268e-09
8.74448e-09
8.72658e-09
8.7079e-09
8.69037e-09
8.67419e-09
8.65578e-09
8.64133e-09
8.62437e-09
8.61477e-09
8.59875e-09
8.58535e-09
8.57077e-09
8.55681e-09
8.54321e-09
8.52978e-09
8.51728e-09
8.50454e-09
8.49069e-09
8.4782e-09
8.4683e-09
8.45332e-09
8.44532e-09
8.43445e-09
8.40654e-09
8.3984e-09
8.39783e-09
8.36703e-09
8.41943e-09
8.39967e-09
8.60469e-09
8.58353e-09
8.63985e-09
8.66058e-09
8.67536e-09
8.68402e-09
8.68874e-09
8.6908e-09
8.69093e-09
8.6896e-09
8.68719e-09
8.68401e-09
8.68024e-09
8.67597e-09
8.67129e-09
8.66629e-09
8.66101e-09
8.65547e-09
8.64965e-09
8.64358e-09
8.63728e-09
8.63081e-09
8.6242e-09
8.61752e-09
8.6108e-09
8.60406e-09
8.59729e-09
8.59045e-09
8.58356e-09
8.57656e-09
8.56942e-09
8.5621e-09
8.55459e-09
8.54684e-09
8.53888e-09
8.53078e-09
8.52262e-09
8.51447e-09
8.50639e-09
8.49843e-09
8.49064e-09
8.48303e-09
8.47557e-09
8.46828e-09
8.46109e-09
8.454e-09
8.44696e-09
8.44001e-09
8.43315e-09
8.42643e-09
8.41989e-09
8.41354e-09
8.4073e-09
8.40109e-09
8.3948e-09
8.3884e-09
8.38199e-09
8.3758e-09
8.36998e-09
8.36433e-09
8.35844e-09
8.35215e-09
8.34551e-09
8.33892e-09
8.3328e-09
8.32706e-09
8.32104e-09
8.31466e-09
8.30829e-09
8.30263e-09
8.2977e-09
8.29222e-09
8.28657e-09
8.28187e-09
8.27806e-09
8.27308e-09
8.26756e-09
8.26135e-09
8.2522e-09
8.27197e-09
8.22022e-09
1.00016e-08
1.00039e-08
1.00096e-08
1.00246e-08
1.00576e-08
1.01205e-08
1.02269e-08
1.03892e-08
1.06126e-08
1.08945e-08
1.1223e-08
1.15795e-08
1.19433e-08
1.22977e-08
1.26243e-08
1.29123e-08
1.31598e-08
1.33676e-08
1.35384e-08
1.36795e-08
1.37912e-08
1.38749e-08
1.39317e-08
1.39779e-08
1.40407e-08
1.41297e-08
1.42213e-08
1.42856e-08
1.43186e-08
1.43531e-08
1.44004e-08
1.44486e-08
1.44887e-08
1.45402e-08
1.46071e-08
1.46578e-08
1.4669e-08
1.46638e-08
1.4681e-08
1.47393e-08
1.47864e-08
1.47834e-08
1.47571e-08
1.47578e-08
1.48268e-08
1.49066e-08
1.49128e-08
1.48502e-08
1.47726e-08
1.47152e-08
1.46711e-08
1.46359e-08
1.46186e-08
1.45892e-08
1.4517e-08
1.44314e-08
1.43782e-08
1.43578e-08
1.43145e-08
1.42667e-08
1.43111e-08
1.45142e-08
1.47974e-08
1.49378e-08
1.49211e-08
1.4947e-08
1.51197e-08
1.52754e-08
1.52998e-08
1.52643e-08
1.53039e-08
1.54134e-08
1.57355e-08
1.62807e-08
1.69532e-08
1.79295e-08
1.92715e-08
2.11536e-08
2.21239e-08
2.1527e-08
1.99535e-08
1.71349e-08
1.45499e-08
1.25229e-08
1.13763e-08
1.10579e-08
1.10737e-08
1.09989e-08
1.09088e-08
1.09566e-08
1.09671e-08
1.08486e-08
1.0824e-08
1.08452e-08
1.09307e-08
1.10034e-08
1.11238e-08
1.11707e-08
1.1509e-08
1.16641e-08
1.13745e-08
1.0902e-08
1.05711e-08
1.05289e-08
1.04754e-08
1.04576e-08
1.04728e-08
1.04779e-08
1.04438e-08
1.04246e-08
1.04293e-08
1.04402e-08
1.04482e-08
1.04542e-08
1.04819e-08
1.04925e-08
1.06296e-08
1.06686e-08
1.05406e-08
1.04046e-08
1.03505e-08
1.0372e-08
1.0369e-08
1.03625e-08
1.03653e-08
1.03395e-08
1.03153e-08
1.03258e-08
1.03368e-08
1.03303e-08
1.03158e-08
1.03207e-08
1.03309e-08
1.03335e-08
1.0323e-08
1.03158e-08
1.03297e-08
1.03351e-08
1.03297e-08
1.03193e-08
1.03338e-08
1.03386e-08
1.03332e-08
1.03337e-08
1.03418e-08
1.03389e-08
1.03279e-08
1.03241e-08
1.03388e-08
1.03388e-08
1.03368e-08
1.03397e-08
1.03203e-08
1.03083e-08
1.03247e-08
1.03361e-08
1.03276e-08
1.03091e-08
1.03063e-08
1.03217e-08
1.03272e-08
1.03132e-08
1.02991e-08
1.03101e-08
1.03242e-08
1.03164e-08
1.0301e-08
1.03025e-08
1.03147e-08
1.03203e-08
1.03046e-08
1.02908e-08
1.03035e-08
1.03143e-08
1.03042e-08
1.02953e-08
1.0294e-08
1.02961e-08
1.02946e-08
1.02929e-08
1.02918e-08
1.02853e-08
1.02848e-08
1.02875e-08
1.02828e-08
1.02733e-08
1.02655e-08
1.02712e-08
1.02723e-08
1.02663e-08
1.02586e-08
1.02587e-08
1.02567e-08
1.025e-08
1.02441e-08
1.02401e-08
1.02411e-08
1.02363e-08
1.02267e-08
1.02187e-08
1.02192e-08
1.02182e-08
1.0215e-08
1.02044e-08
1.01976e-08
1.01911e-08
1.01908e-08
1.0191e-08
1.0181e-08
1.01725e-08
1.01684e-08
1.01692e-08
1.01604e-08
1.01549e-08
1.01485e-08
1.01414e-08
1.01422e-08
1.01366e-08
1.01323e-08
1.01286e-08
1.01183e-08
1.01133e-08
1.01126e-08
1.011e-08
1.01056e-08
1.01003e-08
1.0097e-08
1.00923e-08
1.00869e-08
1.00865e-08
1.00844e-08
1.00809e-08
1.00774e-08
1.00739e-08
1.00702e-08
1.00705e-08
1.00695e-08
1.00677e-08
1.00645e-08
1.00636e-08
1.00618e-08
1.00603e-08
1.00591e-08
1.00582e-08
1.00569e-08
1.00558e-08
1.00566e-08
1.0055e-08
1.00531e-08
1.00531e-08
1.00526e-08
1.00519e-08
1.00515e-08
1.00507e-08
1.00504e-08
1.00498e-08
1.00486e-08
1.0048e-08
1.0048e-08
1.00474e-08
1.00466e-08
1.00457e-08
1.00456e-08
1.0045e-08
1.00444e-08
1.00438e-08
1.00431e-08
1.00422e-08
1.00414e-08
1.0041e-08
1.00404e-08
1.00397e-08
1.0039e-08
1.00381e-08
1.00374e-08
1.00366e-08
1.0036e-08
1.00353e-08
1.00346e-08
1.00339e-08
1.00332e-08
1.00325e-08
1.00316e-08
1.00309e-08
1.00302e-08
1.00295e-08
1.00288e-08
1.00282e-08
1.00274e-08
1.00267e-08
1.00259e-08
1.00252e-08
1.00246e-08
1.00238e-08
1.00231e-08
1.00224e-08
1.00216e-08
1.00209e-08
1.00202e-08
1.00194e-08
1.00187e-08
1.0018e-08
1.00173e-08
1.00167e-08
1.0016e-08
1.00153e-08
1.00147e-08
1.00141e-08
1.00135e-08
1.00129e-08
1.00123e-08
1.00117e-08
1.00112e-08
1.00106e-08
1.00101e-08
1.00096e-08
1.00091e-08
1.00086e-08
1.00081e-08
1.00077e-08
1.00072e-08
1.00068e-08
1.00064e-08
1.00059e-08
1.00056e-08
1.00052e-08
1.00048e-08
1.00044e-08
1.00041e-08
1.00038e-08
1.00035e-08
1.00032e-08
1.00029e-08
1.00026e-08
1.00024e-08
1.00021e-08
1.00019e-08
1.00016e-08
1.00014e-08
1.00011e-08
1.00009e-08
1.00007e-08
1.00004e-08
1.00002e-08
1e-08
9.99983e-09
9.99964e-09
9.99945e-09
9.99927e-09
9.99908e-09
9.9989e-09
9.99871e-09
9.99853e-09
9.99834e-09
9.99815e-09
9.99796e-09
9.99778e-09
9.9976e-09
9.99742e-09
9.99722e-09
9.99702e-09
9.99684e-09
9.99664e-09
9.99644e-09
9.99623e-09
9.99601e-09
9.9958e-09
9.9956e-09
9.9954e-09
9.9952e-09
9.995e-09
9.99481e-09
9.9946e-09
9.99438e-09
9.99416e-09
9.99393e-09
9.99371e-09
9.99349e-09
9.99326e-09
9.99303e-09
9.99279e-09
9.99255e-09
9.9923e-09
9.99204e-09
9.99177e-09
9.99152e-09
9.99127e-09
9.99102e-09
9.99078e-09
9.99053e-09
9.99027e-09
9.99e-09
9.98972e-09
9.98944e-09
9.98917e-09
9.98891e-09
9.98865e-09
9.98839e-09
9.98814e-09
9.98789e-09
9.98763e-09
9.98737e-09
9.98711e-09
9.98686e-09
9.98661e-09
9.98637e-09
9.98609e-09
9.98583e-09
9.98554e-09
9.98524e-09
9.98498e-09
9.98472e-09
9.98455e-09
9.98431e-09
9.98418e-09
9.98389e-09
9.98343e-09
9.98321e-09
9.98318e-09
9.98295e-09
9.98378e-09
9.98329e-09
9.98129e-09
9.98094e-09
9.9798e-09
9.97924e-09
9.97611e-09
9.97672e-09
9.97938e-09
9.98016e-09
9.9811e-09
9.97994e-09
9.97971e-09
9.97929e-09
9.97917e-09
9.97901e-09
9.97891e-09
9.9788e-09
9.979e-09
9.97887e-09
9.9782e-09
9.97799e-09
9.97767e-09
9.97747e-09
9.97647e-09
9.9764e-09
9.9774e-09
9.97749e-09
9.97765e-09
9.97708e-09
9.97729e-09
9.97693e-09
9.97755e-09
9.97661e-09
9.97592e-09
9.97515e-09
9.97476e-09
9.97552e-09
9.97523e-09
9.98056e-09
9.97918e-09
9.97976e-09
9.97757e-09
9.98846e-09
9.98799e-09
1.00095e-08
1.001e-08
9.98775e-09
9.98465e-09
9.98635e-09
9.98332e-09
9.97956e-09
9.9772e-09
9.97567e-09
9.97458e-09
9.97377e-09
9.9733e-09
9.97305e-09
9.97294e-09
9.97291e-09
9.97293e-09
9.97298e-09
9.97302e-09
9.97304e-09
9.97306e-09
9.9731e-09
9.97317e-09
9.97324e-09
9.9733e-09
9.97334e-09
9.97334e-09
9.97332e-09
9.97329e-09
9.97328e-09
9.97328e-09
9.9733e-09
9.97337e-09
9.97346e-09
9.97356e-09
9.97367e-09
9.97378e-09
9.97388e-09
9.97395e-09
9.97401e-09
9.97407e-09
9.97412e-09
9.97415e-09
9.97417e-09
9.97416e-09
9.97413e-09
9.97406e-09
9.97396e-09
9.97386e-09
9.97377e-09
9.97371e-09
9.97368e-09
9.97366e-09
9.97366e-09
9.97367e-09
9.97371e-09
9.97375e-09
9.97378e-09
9.97375e-09
9.97365e-09
9.97354e-09
9.97348e-09
9.97352e-09
9.97351e-09
9.97339e-09
9.97322e-09
9.97299e-09
9.97291e-09
9.97312e-09
9.97324e-09
9.9731e-09
9.97286e-09
9.97276e-09
9.97308e-09
9.97322e-09
9.97307e-09
9.973e-09
9.97323e-09
9.97324e-09
9.97298e-09
9.97291e-09
9.9729e-09
9.97334e-09
9.97229e-09
9.97869e-09
9.97347e-09
1.00014e-08
1.00023e-08
1.00031e-08
1.00047e-08
1.00082e-08
1.00151e-08
1.00273e-08
1.00466e-08
1.0074e-08
1.01093e-08
1.01515e-08
1.01981e-08
1.02467e-08
1.02947e-08
1.03398e-08
1.03804e-08
1.04161e-08
1.0447e-08
1.0473e-08
1.0495e-08
1.05131e-08
1.05273e-08
1.05382e-08
1.05485e-08
1.05614e-08
1.05773e-08
1.05929e-08
1.06045e-08
1.0612e-08
1.062e-08
1.06303e-08
1.06404e-08
1.06486e-08
1.06568e-08
1.06694e-08
1.06839e-08
1.06938e-08
1.06964e-08
1.06949e-08
1.06949e-08
1.06966e-08
1.06951e-08
1.06899e-08
1.06867e-08
1.06916e-08
1.07004e-08
1.07015e-08
1.06901e-08
1.06724e-08
1.06565e-08
1.06452e-08
1.06383e-08
1.06351e-08
1.06287e-08
1.06135e-08
1.0596e-08
1.05835e-08
1.05768e-08
1.05648e-08
1.05512e-08
1.05554e-08
1.05886e-08
1.06407e-08
1.06675e-08
1.06702e-08
1.0682e-08
1.07199e-08
1.07546e-08
1.07652e-08
1.07596e-08
1.07658e-08
1.07952e-08
1.08713e-08
1.10018e-08
1.11594e-08
1.13885e-08
1.17179e-08
1.22936e-08
1.3057e-08
1.35312e-08
1.35691e-08
1.29884e-08
1.21287e-08
1.13314e-08
1.07167e-08
1.03626e-08
1.02014e-08
1.01132e-08
1.00717e-08
1.00653e-08
1.0063e-08
1.00554e-08
1.00539e-08
1.00538e-08
1.00558e-08
1.00608e-08
1.00673e-08
1.0071e-08
1.00915e-08
1.01131e-08
1.01033e-08
1.00865e-08
1.00725e-08
1.00634e-08
1.00507e-08
1.00418e-08
1.00399e-08
1.00387e-08
1.00351e-08
1.00333e-08
1.00342e-08
1.00345e-08
1.00342e-08
1.0034e-08
1.00344e-08
1.00346e-08
1.00392e-08
1.00426e-08
1.00394e-08
1.00381e-08
1.00377e-08
1.0036e-08
1.00344e-08
1.00328e-08
1.0032e-08
1.00305e-08
1.00292e-08
1.00294e-08
1.00294e-08
1.0029e-08
1.00281e-08
1.00282e-08
1.00287e-08
1.00287e-08
1.00279e-08
1.00277e-08
1.00284e-08
1.00284e-08
1.00282e-08
1.00278e-08
1.00285e-08
1.00285e-08
1.00281e-08
1.00282e-08
1.00286e-08
1.00283e-08
1.00277e-08
1.00275e-08
1.00282e-08
1.00281e-08
1.0028e-08
1.00281e-08
1.00273e-08
1.00268e-08
1.00274e-08
1.00279e-08
1.00275e-08
1.00267e-08
1.00266e-08
1.00272e-08
1.00274e-08
1.00268e-08
1.00261e-08
1.00265e-08
1.00271e-08
1.00267e-08
1.0026e-08
1.0026e-08
1.00264e-08
1.00266e-08
1.00258e-08
1.00252e-08
1.00256e-08
1.0026e-08
1.00255e-08
1.0025e-08
1.0025e-08
1.0025e-08
1.00248e-08
1.00247e-08
1.00246e-08
1.00243e-08
1.00242e-08
1.00242e-08
1.00239e-08
1.00235e-08
1.00231e-08
1.00232e-08
1.00232e-08
1.00229e-08
1.00225e-08
1.00225e-08
1.00223e-08
1.0022e-08
1.00217e-08
1.00215e-08
1.00215e-08
1.00212e-08
1.00209e-08
1.00206e-08
1.00205e-08
1.00204e-08
1.00203e-08
1.00199e-08
1.00197e-08
1.00194e-08
1.00193e-08
1.00193e-08
1.0019e-08
1.00187e-08
1.00186e-08
1.00185e-08
1.00183e-08
1.00181e-08
1.00179e-08
1.00177e-08
1.00176e-08
1.00175e-08
1.00173e-08
1.00173e-08
1.0017e-08
1.00168e-08
1.00167e-08
1.00166e-08
1.00166e-08
1.00165e-08
1.00163e-08
1.00162e-08
1.00161e-08
1.0016e-08
1.00159e-08
1.00159e-08
1.00158e-08
1.00157e-08
1.00155e-08
1.00153e-08
1.00152e-08
1.00152e-08
1.00151e-08
1.0015e-08
1.00148e-08
1.00147e-08
1.00146e-08
1.00146e-08
1.00145e-08
1.00142e-08
1.00143e-08
1.00144e-08
1.00142e-08
1.0014e-08
1.0014e-08
1.00139e-08
1.00139e-08
1.00138e-08
1.00138e-08
1.00137e-08
1.00137e-08
1.00136e-08
1.00136e-08
1.00136e-08
1.00135e-08
1.00134e-08
1.00133e-08
1.00133e-08
1.00133e-08
1.00132e-08
1.00132e-08
1.00132e-08
1.00131e-08
1.0013e-08
1.0013e-08
1.00129e-08
1.00129e-08
1.00128e-08
1.00128e-08
1.00127e-08
1.00127e-08
1.00126e-08
1.00126e-08
1.00125e-08
1.00125e-08
1.00124e-08
1.00124e-08
1.00123e-08
1.00123e-08
1.00122e-08
1.00121e-08
1.00121e-08
1.0012e-08
1.0012e-08
1.00119e-08
1.00119e-08
1.00118e-08
1.00117e-08
1.00117e-08
1.00116e-08
1.00116e-08
1.00115e-08
1.00114e-08
1.00114e-08
1.00113e-08
1.00112e-08
1.00112e-08
1.00111e-08
1.0011e-08
1.0011e-08
1.00109e-08
1.00109e-08
1.00108e-08
1.00107e-08
1.00107e-08
1.00106e-08
1.00106e-08
1.00105e-08
1.00105e-08
1.00104e-08
1.00104e-08
1.00104e-08
1.00103e-08
1.00103e-08
1.00103e-08
1.00103e-08
1.00103e-08
1.00103e-08
1.00103e-08
1.00103e-08
1.00102e-08
1.00102e-08
1.00102e-08
1.00102e-08
1.00101e-08
1.00101e-08
1.00101e-08
1.001e-08
1.00099e-08
1.00099e-08
1.00098e-08
1.00097e-08
1.00097e-08
1.00096e-08
1.00095e-08
1.00095e-08
1.00094e-08
1.00093e-08
1.00093e-08
1.00092e-08
1.00091e-08
1.00091e-08
1.0009e-08
1.00089e-08
1.00089e-08
1.00088e-08
1.00087e-08
1.00087e-08
1.00086e-08
1.00086e-08
1.00085e-08
1.00084e-08
1.00084e-08
1.00083e-08
1.00083e-08
1.00082e-08
1.00081e-08
1.00081e-08
1.0008e-08
1.0008e-08
1.00079e-08
1.00079e-08
1.00078e-08
1.00078e-08
1.00077e-08
1.00077e-08
1.00076e-08
1.00075e-08
1.00075e-08
1.00074e-08
1.00074e-08
1.00074e-08
1.00073e-08
1.00072e-08
1.00072e-08
1.00071e-08
1.00071e-08
1.0007e-08
1.0007e-08
1.00069e-08
1.00069e-08
1.00068e-08
1.00068e-08
1.00067e-08
1.00067e-08
1.00066e-08
1.00066e-08
1.00065e-08
1.00065e-08
1.00064e-08
1.00064e-08
1.00063e-08
1.00063e-08
1.00062e-08
1.00061e-08
1.00061e-08
1.0006e-08
1.0006e-08
1.00059e-08
1.00059e-08
1.00058e-08
1.00057e-08
1.00057e-08
1.00056e-08
1.00056e-08
1.00055e-08
1.00054e-08
1.00054e-08
1.00053e-08
1.00053e-08
1.00052e-08
1.00052e-08
1.00051e-08
1.00049e-08
1.00048e-08
1.00047e-08
1.00045e-08
1.00027e-08
1.00028e-08
1.00044e-08
1.00043e-08
1.00044e-08
1.00044e-08
1.00044e-08
1.00043e-08
1.00042e-08
1.00041e-08
1.0004e-08
1.0004e-08
1.00039e-08
1.00037e-08
1.00036e-08
1.00035e-08
1.00034e-08
1.00033e-08
1.00028e-08
1.00028e-08
1.00032e-08
1.00031e-08
1.00031e-08
1.0003e-08
1.00031e-08
1.0003e-08
1.0003e-08
1.00028e-08
1.00025e-08
1.00022e-08
1.00027e-08
1.00021e-08
1.00019e-08
1.00033e-08
1.00028e-08
1.00027e-08
1.0002e-08
1.00049e-08
1.00048e-08
1.0007e-08
1.00069e-08
1.00038e-08
1.00042e-08
1.00039e-08
1.00037e-08
1.00033e-08
1.00025e-08
1.00012e-08
1.00006e-08
1.00004e-08
9.99994e-09
9.9994e-09
9.99893e-09
9.99866e-09
9.99852e-09
9.99848e-09
9.99855e-09
9.99864e-09
9.99871e-09
9.9988e-09
9.99893e-09
9.99907e-09
9.99923e-09
9.99939e-09
9.99954e-09
9.99966e-09
9.99974e-09
9.99979e-09
9.99981e-09
9.99982e-09
9.99982e-09
9.99986e-09
9.99993e-09
1e-08
1.00001e-08
1.00002e-08
1.00002e-08
1.00002e-08
1.00001e-08
1.00001e-08
1e-08
1e-08
1.00001e-08
1.00002e-08
1.00003e-08
1.00003e-08
1.00003e-08
1.00003e-08
1.00002e-08
1.00001e-08
1.00001e-08
1.00001e-08
1.00001e-08
1.00001e-08
9.99998e-09
9.99992e-09
9.99994e-09
1e-08
1.00001e-08
1.00002e-08
1.00002e-08
1e-08
9.99982e-09
9.99967e-09
9.99946e-09
9.99937e-09
9.99944e-09
9.99956e-09
9.99984e-09
9.99975e-09
9.9993e-09
9.99929e-09
9.9994e-09
9.99996e-09
9.9998e-09
9.99917e-09
9.99914e-09
9.99928e-09
9.99951e-09
9.99906e-09
9.99909e-09
9.99918e-09
9.99933e-09
9.99939e-09
9.99883e-09
1.00026e-08
9.99992e-09
1.00013e-08
1.00021e-08
1.00027e-08
1.00035e-08
1.00047e-08
1.00066e-08
1.00095e-08
1.00138e-08
1.00196e-08
1.00268e-08
1.00351e-08
1.00438e-08
1.00527e-08
1.00612e-08
1.00689e-08
1.00757e-08
1.00815e-08
1.00864e-08
1.00905e-08
1.00939e-08
1.00966e-08
1.00988e-08
1.01006e-08
1.01022e-08
1.0104e-08
1.0106e-08
1.01079e-08
1.01094e-08
1.01105e-08
1.01116e-08
1.01128e-08
1.0114e-08
1.0115e-08
1.01163e-08
1.01183e-08
1.01209e-08
1.01231e-08
1.01241e-08
1.01239e-08
1.01234e-08
1.01229e-08
1.01222e-08
1.01212e-08
1.01204e-08
1.01203e-08
1.01207e-08
1.01204e-08
1.01188e-08
1.01162e-08
1.01136e-08
1.01116e-08
1.01103e-08
1.01095e-08
1.01085e-08
1.01062e-08
1.01031e-08
1.01005e-08
1.00985e-08
1.00958e-08
1.00931e-08
1.00928e-08
1.00973e-08
1.01042e-08
1.01078e-08
1.01094e-08
1.01134e-08
1.01205e-08
1.01261e-08
1.01287e-08
1.01292e-08
1.01304e-08
1.01349e-08
1.01468e-08
1.01682e-08
1.01966e-08
1.02368e-08
1.02976e-08
1.04079e-08
1.05914e-08
1.07541e-08
1.08718e-08
1.0861e-08
1.07337e-08
1.05534e-08
1.03686e-08
1.02266e-08
1.01369e-08
1.00873e-08
1.00647e-08
1.00545e-08
1.00468e-08
1.00386e-08
1.00326e-08
1.00284e-08
1.00259e-08
1.0025e-08
1.00248e-08
1.00247e-08
1.00254e-08
1.00263e-08
1.00261e-08
1.0026e-08
1.0026e-08
1.00257e-08
1.00253e-08
1.00249e-08
1.00248e-08
1.00247e-08
1.00248e-08
1.00249e-08
1.00244e-08
1.00239e-08
1.00233e-08
1.00229e-08
1.00226e-08
1.00224e-08
1.00223e-08
1.00222e-08
1.0022e-08
1.00221e-08
1.00221e-08
1.00221e-08
1.00222e-08
1.00223e-08
1.00224e-08
1.0023e-08
1.00231e-08
1.00224e-08
1.00218e-08
1.00213e-08
1.0021e-08
1.00208e-08
1.00207e-08
1.00204e-08
1.00202e-08
1.00201e-08
1.00201e-08
1.002e-08
1.00201e-08
1.00201e-08
1.00201e-08
1.002e-08
1.00199e-08
1.00198e-08
1.00198e-08
1.00197e-08
1.00196e-08
1.00195e-08
1.00195e-08
1.00194e-08
1.00194e-08
1.00194e-08
1.00194e-08
1.00193e-08
1.00193e-08
1.00193e-08
1.00193e-08
1.00193e-08
1.00193e-08
1.00192e-08
1.00192e-08
1.00192e-08
1.00191e-08
1.00191e-08
1.0019e-08
1.0019e-08
1.00189e-08
1.00188e-08
1.00188e-08
1.00187e-08
1.00187e-08
1.00185e-08
1.00185e-08
1.00184e-08
1.00184e-08
1.00183e-08
1.00182e-08
1.00182e-08
1.00181e-08
1.0018e-08
1.0018e-08
1.00179e-08
1.00178e-08
1.00178e-08
1.00177e-08
1.00176e-08
1.00175e-08
1.00175e-08
1.00174e-08
1.00174e-08
1.00173e-08
1.00172e-08
1.00172e-08
1.00171e-08
1.0017e-08
1.0017e-08
1.00169e-08
1.00169e-08
1.00168e-08
1.00168e-08
1.00167e-08
1.00166e-08
1.00166e-08
1.00166e-08
1.00165e-08
1.00164e-08
1.00164e-08
1.00163e-08
1.00163e-08
1.00162e-08
1.00161e-08
1.00161e-08
1.0016e-08
1.0016e-08
1.00159e-08
1.00159e-08
1.00158e-08
1.00158e-08
1.00157e-08
1.00157e-08
1.00156e-08
1.00155e-08
1.00155e-08
1.00154e-08
1.00154e-08
1.00153e-08
1.00152e-08
1.00152e-08
1.00151e-08
1.00151e-08
1.0015e-08
1.0015e-08
1.00149e-08
1.00148e-08
1.00148e-08
1.00147e-08
1.00146e-08
1.00146e-08
1.00146e-08
1.00145e-08
1.00143e-08
1.00142e-08
1.00142e-08
1.00142e-08
1.0014e-08
1.00138e-08
1.00138e-08
1.00139e-08
1.00137e-08
1.00135e-08
1.00135e-08
1.00135e-08
1.00134e-08
1.00133e-08
1.00132e-08
1.00132e-08
1.00131e-08
1.0013e-08
1.00131e-08
1.0013e-08
1.00129e-08
1.00128e-08
1.00128e-08
1.00128e-08
1.00127e-08
1.00127e-08
1.00126e-08
1.00126e-08
1.00125e-08
1.00125e-08
1.00124e-08
1.00124e-08
1.00124e-08
1.00123e-08
1.00122e-08
1.00122e-08
1.00121e-08
1.00121e-08
1.0012e-08
1.0012e-08
1.00119e-08
1.00119e-08
1.00118e-08
1.00118e-08
1.00117e-08
1.00117e-08
1.00116e-08
1.00116e-08
1.00115e-08
1.00115e-08
1.00114e-08
1.00114e-08
1.00113e-08
1.00113e-08
1.00112e-08
1.00111e-08
1.00111e-08
1.0011e-08
1.0011e-08
1.00109e-08
1.00109e-08
1.00108e-08
1.00107e-08
1.00107e-08
1.00106e-08
1.00106e-08
1.00105e-08
1.00105e-08
1.00104e-08
1.00103e-08
1.00103e-08
1.00102e-08
1.00102e-08
1.00101e-08
1.00101e-08
1.00101e-08
1.001e-08
1.001e-08
1.001e-08
1.00099e-08
1.00099e-08
1.00099e-08
1.00099e-08
1.00099e-08
1.00099e-08
1.00099e-08
1.00098e-08
1.00098e-08
1.00098e-08
1.00098e-08
1.00097e-08
1.00097e-08
1.00096e-08
1.00096e-08
1.00095e-08
1.00094e-08
1.00094e-08
1.00093e-08
1.00092e-08
1.00092e-08
1.00091e-08
1.0009e-08
1.0009e-08
1.00089e-08
1.00089e-08
1.00088e-08
1.00087e-08
1.00087e-08
1.00086e-08
1.00085e-08
1.00085e-08
1.00084e-08
1.00083e-08
1.00083e-08
1.00082e-08
1.00082e-08
1.00081e-08
1.00081e-08
1.0008e-08
1.00079e-08
1.00079e-08
1.00078e-08
1.00078e-08
1.00077e-08
1.00077e-08
1.00076e-08
1.00076e-08
1.00075e-08
1.00075e-08
1.00074e-08
1.00074e-08
1.00073e-08
1.00073e-08
1.00072e-08
1.00072e-08
1.00071e-08
1.00071e-08
1.0007e-08
1.0007e-08
1.00069e-08
1.00069e-08
1.00068e-08
1.00068e-08
1.00068e-08
1.00067e-08
1.00067e-08
1.00066e-08
1.00066e-08
1.00065e-08
1.00065e-08
1.00064e-08
1.00064e-08
1.00063e-08
1.00063e-08
1.00062e-08
1.00062e-08
1.00061e-08
1.00061e-08
1.0006e-08
1.0006e-08
1.00059e-08
1.00059e-08
1.00058e-08
1.00058e-08
1.00057e-08
1.00057e-08
1.00056e-08
1.00056e-08
1.00055e-08
1.00055e-08
1.00054e-08
1.00054e-08
1.00053e-08
1.00053e-08
1.00052e-08
1.00051e-08
1.0005e-08
1.00049e-08
1.00048e-08
1.00047e-08
1.00033e-08
1.00033e-08
1.00046e-08
1.00046e-08
1.00046e-08
1.00045e-08
1.00046e-08
1.00045e-08
1.00044e-08
1.00043e-08
1.00042e-08
1.00042e-08
1.00041e-08
1.00039e-08
1.00039e-08
1.00038e-08
1.00037e-08
1.00036e-08
1.00032e-08
1.00032e-08
1.00035e-08
1.00035e-08
1.00035e-08
1.00034e-08
1.00034e-08
1.00033e-08
1.00033e-08
1.00031e-08
1.00028e-08
1.00027e-08
1.00033e-08
1.00031e-08
1.00039e-08
1.00034e-08
1.00018e-08
1.00028e-08
1.00021e-08
1.0005e-08
1.00049e-08
1.00072e-08
1.00071e-08
1.00044e-08
1.0005e-08
1.00048e-08
1.00047e-08
1.00045e-08
1.00044e-08
1.00039e-08
1.00036e-08
1.00032e-08
1.00027e-08
1.00024e-08
1.0002e-08
1.00016e-08
1.00011e-08
1.00008e-08
1.00004e-08
1.00002e-08
9.99999e-09
9.99991e-09
9.99986e-09
9.99981e-09
9.9998e-09
9.99984e-09
9.9999e-09
9.99999e-09
1.00001e-08
1.00001e-08
1.00002e-08
1.00002e-08
1.00003e-08
1.00003e-08
1.00003e-08
1.00003e-08
1.00004e-08
1.00005e-08
1.00006e-08
1.00007e-08
1.00007e-08
1.00007e-08
1.00006e-08
1.00005e-08
1.00004e-08
1.00004e-08
1.00004e-08
1.00005e-08
1.00006e-08
1.00007e-08
1.00007e-08
1.00007e-08
1.00007e-08
1.00007e-08
1.00006e-08
1.00006e-08
1.00006e-08
1.00006e-08
1.00005e-08
1.00004e-08
1.00003e-08
1.00003e-08
1.00005e-08
1.00006e-08
1.00007e-08
1.00006e-08
1.00003e-08
1.00001e-08
9.99993e-09
9.99984e-09
9.99989e-09
1e-08
1.00002e-08
1.00003e-08
9.99993e-09
9.99975e-09
9.99985e-09
1.00004e-08
1.00005e-08
9.9998e-09
9.9997e-09
9.99962e-09
9.99987e-09
9.99965e-09
9.99968e-09
9.99961e-09
9.99992e-09
1.00001e-08
1e-08
9.99932e-09
1.00033e-08
1.00006e-08
1.00013e-08
1.00021e-08
1.00026e-08
1.00032e-08
1.00041e-08
1.00054e-08
1.00073e-08
1.00099e-08
1.00132e-08
1.0017e-08
1.00212e-08
1.00253e-08
1.00292e-08
1.00326e-08
1.00355e-08
1.00377e-08
1.00394e-08
1.00407e-08
1.00416e-08
1.00422e-08
1.00426e-08
1.00429e-08
1.0043e-08
1.00432e-08
1.00433e-08
1.00434e-08
1.00435e-08
1.00435e-08
1.00435e-08
1.00435e-08
1.00435e-08
1.00435e-08
1.00435e-08
1.00435e-08
1.00436e-08
1.00437e-08
1.00438e-08
1.00438e-08
1.00437e-08
1.00436e-08
1.00434e-08
1.00434e-08
1.00433e-08
1.00433e-08
1.00434e-08
1.00436e-08
1.00436e-08
1.00433e-08
1.00429e-08
1.00424e-08
1.00419e-08
1.00413e-08
1.00408e-08
1.00404e-08
1.00398e-08
1.00391e-08
1.00384e-08
1.00377e-08
1.0037e-08
1.00363e-08
1.0036e-08
1.00363e-08
1.00367e-08
1.00368e-08
1.00368e-08
1.00373e-08
1.00382e-08
1.00387e-08
1.0039e-08
1.00391e-08
1.00393e-08
1.00398e-08
1.00413e-08
1.00442e-08
1.00488e-08
1.00552e-08
1.00645e-08
1.00811e-08
1.01118e-08
1.01478e-08
1.01815e-08
1.01964e-08
1.01839e-08
1.01583e-08
1.01241e-08
1.00916e-08
1.00676e-08
1.00528e-08
1.00452e-08
1.00419e-08
1.00427e-08
1.00458e-08
1.0046e-08
1.00422e-08
1.0036e-08
1.00305e-08
1.00266e-08
1.00244e-08
1.00233e-08
1.00228e-08
1.00226e-08
1.00225e-08
1.00224e-08
1.00223e-08
1.00223e-08
1.00223e-08
1.00225e-08
1.00227e-08
1.00229e-08
1.00232e-08
1.00234e-08
1.00239e-08
1.00241e-08
1.00236e-08
1.0023e-08
1.00226e-08
1.00222e-08
1.00218e-08
1.00216e-08
1.00215e-08
1.00213e-08
1.00213e-08
1.00213e-08
1.00214e-08
1.00215e-08
1.00216e-08
1.00218e-08
1.0022e-08
1.00227e-08
1.00228e-08
1.00221e-08
1.00215e-08
1.0021e-08
1.00207e-08
1.00203e-08
1.00201e-08
1.002e-08
1.00199e-08
1.00198e-08
1.00199e-08
1.00199e-08
1.00198e-08
1.00197e-08
1.00196e-08
1.00196e-08
1.00195e-08
1.00194e-08
1.00194e-08
1.00193e-08
1.00192e-08
1.00192e-08
1.00192e-08
1.00192e-08
1.00192e-08
1.00191e-08
1.00191e-08
1.00191e-08
1.00191e-08
1.00191e-08
1.00191e-08
1.0019e-08
1.0019e-08
1.0019e-08
1.00189e-08
1.00189e-08
1.00188e-08
1.00188e-08
1.00187e-08
1.00186e-08
1.00186e-08
1.00185e-08
1.00184e-08
1.00183e-08
1.00183e-08
1.00183e-08
1.00182e-08
1.00181e-08
1.00181e-08
1.0018e-08
1.00179e-08
1.00178e-08
1.00178e-08
1.00177e-08
1.00176e-08
1.00176e-08
1.00175e-08
1.00174e-08
1.00174e-08
1.00173e-08
1.00173e-08
1.00172e-08
1.00172e-08
1.00171e-08
1.00171e-08
1.0017e-08
1.00169e-08
1.00169e-08
1.00168e-08
1.00168e-08
1.00167e-08
1.00167e-08
1.00166e-08
1.00165e-08
1.00165e-08
1.00165e-08
1.00164e-08
1.00163e-08
1.00163e-08
1.00162e-08
1.00162e-08
1.00161e-08
1.0016e-08
1.0016e-08
1.00159e-08
1.00158e-08
1.00158e-08
1.00157e-08
1.00157e-08
1.00156e-08
1.00155e-08
1.00155e-08
1.00154e-08
1.00154e-08
1.00153e-08
1.00152e-08
1.00152e-08
1.00151e-08
1.00151e-08
1.0015e-08
1.0015e-08
1.00149e-08
1.00148e-08
1.00148e-08
1.00148e-08
1.00147e-08
1.00147e-08
1.00146e-08
1.00146e-08
1.00145e-08
1.00145e-08
1.00144e-08
1.00143e-08
1.00143e-08
1.00142e-08
1.00141e-08
1.0014e-08
1.0014e-08
1.00139e-08
1.00137e-08
1.00136e-08
1.00136e-08
1.00135e-08
1.00135e-08
1.00133e-08
1.00132e-08