/*--------------------------------*- C++ -*----------------------------------*\
| =========                 |                                                 |
| \\      /  F ield         | OpenFOAM: The Open Source CFD Toolbox           |
|  \\    /   O peration     | Version:  v2006                                 |
|   \\  /    A nd           | Website:  www.openfoam.com                      |
|    \\/     M anipulation  |                                                 |
\*---------------------------------------------------------------------------*/
FoamFile
{
    version     2.0;
    format      ascii;
    class       volScalarField;
    location    "3";
    object      nut;
}
// * * * * * * * * * * * * * * * * * * * * * * * * * * * * * * * * * * * * * //

dimensions      [0 2 -1 0 0 0 0];


internalField   nonuniform List<scalar> 
33000
(
9.57595e-10
1.68089e-09
1.66544e-09
1.56061e-09
1.44017e-09
1.42683e-09
1.50462e-09
1.62664e-09
1.76191e-09
1.91223e-09
2.08957e-09
2.28347e-09
2.45034e-09
2.5722e-09
2.66246e-09
2.71222e-09
2.7274e-09
2.7169e-09
2.68373e-09
2.63476e-09
2.58505e-09
2.5372e-09
2.48696e-09
2.41979e-09
2.34546e-09
2.27884e-09
2.24435e-09
2.22203e-09
2.17922e-09
2.12491e-09
2.08211e-09
2.05914e-09
2.02866e-09
1.99421e-09
1.96552e-09
1.95005e-09
1.93988e-09
1.916e-09
1.88741e-09
1.86629e-09
1.85581e-09
1.85209e-09
1.83861e-09
1.80949e-09
1.78965e-09
1.78256e-09
1.78171e-09
1.77313e-09
1.75454e-09
1.73766e-09
1.7239e-09
1.70707e-09
1.6914e-09
1.68079e-09
1.67022e-09
1.65401e-09
1.63587e-09
1.62458e-09
1.61684e-09
1.60749e-09
1.59375e-09
1.58188e-09
1.57815e-09
1.58285e-09
1.58333e-09
1.57376e-09
1.56882e-09
1.57697e-09
1.58525e-09
1.58726e-09
1.59455e-09
1.6024e-09
1.60324e-09
1.61333e-09
1.61745e-09
1.61969e-09
1.55825e-09
1.54464e-09
1.96141e-09
2.0304e-09
2.1948e-09
2.48277e-09
2.29172e-09
2.74411e-09
2.82457e-09
2.87786e-09
3.00819e-09
3.02499e-09
2.93799e-09
2.87318e-09
2.9094e-09
2.9106e-09
2.90262e-09
2.90057e-09
2.86655e-09
2.84573e-09
2.81024e-09
2.75813e-09
2.64325e-09
2.91845e-09
3.29292e-09
3.35625e-09
3.3041e-09
3.18967e-09
3.40251e-09
3.50131e-09
3.57747e-09
3.61326e-09
3.60561e-09
3.51045e-09
3.44581e-09
3.44325e-09
3.44147e-09
3.43303e-09
3.40781e-09
3.35125e-09
3.2826e-09
3.62296e-09
3.92556e-09
3.95433e-09
3.97648e-09
3.91715e-09
4.1196e-09
4.18913e-09
4.25529e-09
4.29089e-09
4.26043e-09
4.26007e-09
4.30183e-09
4.34095e-09
4.38256e-09
4.42361e-09
4.46181e-09
4.50686e-09
4.55686e-09
4.60819e-09
4.65951e-09
4.71579e-09
4.77646e-09
4.83418e-09
4.8929e-09
4.95913e-09
5.02955e-09
5.09657e-09
5.16663e-09
5.24523e-09
5.32728e-09
5.40795e-09
5.49037e-09
5.58397e-09
5.67855e-09
5.78069e-09
5.89016e-09
5.98965e-09
6.09205e-09
6.21393e-09
6.34861e-09
6.47825e-09
6.59843e-09
6.72846e-09
6.88386e-09
7.04814e-09
7.19804e-09
7.34298e-09
7.5223e-09
7.72207e-09
7.90138e-09
8.07724e-09
8.27558e-09
8.50923e-09
8.75256e-09
8.96612e-09
9.18163e-09
9.45273e-09
9.75486e-09
1.00421e-08
1.03232e-08
1.06289e-08
1.09729e-08
1.13309e-08
1.17216e-08
1.2123e-08
1.25075e-08
1.2954e-08
1.3463e-08
1.39951e-08
1.44779e-08
1.49877e-08
1.56408e-08
1.63407e-08
1.70085e-08
1.76908e-08
1.85174e-08
1.94138e-08
2.03667e-08
2.13297e-08
2.23849e-08
2.36458e-08
2.5024e-08
2.63368e-08
2.71245e-08
2.71357e-08
2.71452e-08
2.71535e-08
2.71602e-08
2.71659e-08
2.71681e-08
2.71836e-08
2.71961e-08
2.72023e-08
2.72035e-08
2.72119e-08
2.72225e-08
2.72252e-08
2.72334e-08
2.72279e-08
2.72312e-08
2.72391e-08
2.72375e-08
2.72428e-08
2.72414e-08
2.72286e-08
2.72215e-08
2.72169e-08
2.72048e-08
2.71854e-08
2.71612e-08
2.71358e-08
2.70971e-08
2.70594e-08
2.70237e-08
2.69813e-08
2.69348e-08
2.68848e-08
2.68263e-08
2.67682e-08
2.67124e-08
2.6653e-08
2.65876e-08
2.6521e-08
2.64546e-08
2.63831e-08
2.63106e-08
2.62344e-08
2.61584e-08
2.60773e-08
2.59989e-08
2.59205e-08
2.58346e-08
2.57497e-08
2.56645e-08
2.55774e-08
2.54894e-08
2.54006e-08
2.53106e-08
2.52211e-08
2.51285e-08
2.50329e-08
2.49398e-08
2.48453e-08
2.47487e-08
2.46497e-08
2.45506e-08
2.44533e-08
2.43535e-08
2.42538e-08
2.4153e-08
2.4051e-08
2.39467e-08
2.38426e-08
2.37398e-08
2.36359e-08
2.35316e-08
2.3426e-08
2.30923e-08
2.27677e-08
2.24595e-08
2.21495e-08
2.18563e-08
2.15717e-08
2.12917e-08
2.10032e-08
2.07343e-08
2.04847e-08
2.02372e-08
2.0003e-08
1.97662e-08
1.9528e-08
1.9301e-08
1.90785e-08
1.88642e-08
1.86669e-08
1.84667e-08
1.82632e-08
1.80699e-08
1.78809e-08
1.76973e-08
1.752e-08
1.73454e-08
1.71745e-08
1.70083e-08
1.6846e-08
1.66891e-08
1.65363e-08
1.63854e-08
1.62387e-08
1.60978e-08
1.59627e-08
1.58287e-08
1.56968e-08
1.55704e-08
1.54481e-08
1.5329e-08
1.5214e-08
1.51034e-08
1.49974e-08
1.4896e-08
1.47989e-08
1.47055e-08
1.46163e-08
1.45317e-08
1.44513e-08
1.43757e-08
1.43036e-08
1.42345e-08
1.41697e-08
1.41108e-08
1.40556e-08
1.40027e-08
1.39544e-08
1.391e-08
1.38694e-08
1.3833e-08
1.38005e-08
1.37717e-08
1.3747e-08
1.37259e-08
1.37086e-08
1.36949e-08
1.3685e-08
1.36793e-08
1.3677e-08
1.3678e-08
1.36828e-08
1.36913e-08
1.37038e-08
1.372e-08
1.37396e-08
1.37628e-08
1.37897e-08
1.38208e-08
1.38556e-08
1.38934e-08
1.3935e-08
1.39803e-08
1.40294e-08
1.40822e-08
1.41386e-08
1.41984e-08
1.42624e-08
1.43303e-08
1.44015e-08
1.44767e-08
1.45042e-08
1.44309e-08
1.43583e-08
1.42862e-08
1.42148e-08
1.4144e-08
1.40738e-08
1.40041e-08
1.39349e-08
1.38664e-08
1.37984e-08
1.37311e-08
1.36644e-08
1.35983e-08
1.3533e-08
1.34684e-08
1.34045e-08
1.33413e-08
1.32787e-08
1.32168e-08
1.31556e-08
1.30952e-08
1.30356e-08
1.29768e-08
1.29187e-08
1.28614e-08
1.28049e-08
1.27491e-08
1.2694e-08
1.26396e-08
1.2586e-08
1.25332e-08
1.24812e-08
1.24299e-08
1.23795e-08
1.23298e-08
1.22807e-08
1.22324e-08
1.21848e-08
1.21379e-08
1.20917e-08
1.20463e-08
1.20017e-08
1.19578e-08
1.19147e-08
1.18722e-08
1.18305e-08
1.17895e-08
1.17492e-08
1.17097e-08
1.16708e-08
1.16327e-08
1.1595e-08
1.1558e-08
1.15216e-08
1.14853e-08
1.14501e-08
1.14164e-08
1.13816e-08
1.13488e-08
1.13162e-08
1.12794e-08
1.1248e-08
1.12218e-08
1.11857e-08
1.11671e-08
1.11372e-08
1.1143e-08
1.11147e-08
1.11008e-08
1.10757e-08
1.10548e-08
1.10304e-08
1.10079e-08
1.09843e-08
1.09617e-08
1.09385e-08
1.09158e-08
1.08935e-08
1.08702e-08
1.08484e-08
1.08282e-08
1.08053e-08
1.07872e-08
1.07661e-08
1.07541e-08
1.07342e-08
1.07175e-08
1.06993e-08
1.06819e-08
1.06649e-08
1.06482e-08
1.06326e-08
1.06167e-08
1.05994e-08
1.05839e-08
1.05715e-08
1.05529e-08
1.05429e-08
1.05293e-08
1.04945e-08
1.04844e-08
1.04837e-08
1.04453e-08
1.05106e-08
1.0486e-08
1.07416e-08
1.07152e-08
1.07854e-08
1.08112e-08
1.08297e-08
1.08405e-08
1.08463e-08
1.08489e-08
1.08491e-08
1.08474e-08
1.08444e-08
1.08404e-08
1.08357e-08
1.08304e-08
1.08246e-08
1.08184e-08
1.08118e-08
1.08049e-08
1.07976e-08
1.07901e-08
1.07822e-08
1.07741e-08
1.07659e-08
1.07576e-08
1.07492e-08
1.07408e-08
1.07323e-08
1.07238e-08
1.07152e-08
1.07065e-08
1.06976e-08
1.06885e-08
1.06791e-08
1.06694e-08
1.06595e-08
1.06494e-08
1.06392e-08
1.06291e-08
1.0619e-08
1.06091e-08
1.05994e-08
1.05899e-08
1.05806e-08
1.05715e-08
1.05625e-08
1.05537e-08
1.05449e-08
1.05362e-08
1.05277e-08
1.05193e-08
1.05112e-08
1.05032e-08
1.04955e-08
1.04877e-08
1.04799e-08
1.04719e-08
1.04639e-08
1.04562e-08
1.04489e-08
1.04419e-08
1.04346e-08
1.04267e-08
1.04184e-08
1.04102e-08
1.04026e-08
1.03954e-08
1.03879e-08
1.038e-08
1.0372e-08
1.0365e-08
1.03588e-08
1.0352e-08
1.03449e-08
1.03391e-08
1.03343e-08
1.03281e-08
1.03212e-08
1.03135e-08
1.03021e-08
1.03267e-08
1.02622e-08
1.78874e-09
2.60112e-09
3.79036e-09
3.68567e-09
3.53323e-09
4.31882e-09
5.09337e-09
5.00225e-09
4.64271e-09
4.66125e-09
5.01979e-09
5.24235e-09
5.18224e-09
5.21091e-09
5.4281e-09
5.74035e-09
5.99338e-09
6.19607e-09
6.36963e-09
6.53555e-09
6.70955e-09
7.00432e-09
7.05763e-09
7.22422e-09
7.367e-09
7.66514e-09
8.12882e-09
8.40785e-09
8.34921e-09
8.35282e-09
8.8941e-09
9.65152e-09
1.0247e-08
9.63266e-09
9.14787e-09
1.03971e-08
1.26996e-08
1.4474e-08
1.38675e-08
1.15164e-08
1.17289e-08
1.40687e-08
1.50082e-08
1.53548e-08
1.38492e-08
1.40604e-08
1.855e-08
2.15505e-08
1.99532e-08
1.81753e-08
1.85391e-08
2.09031e-08
2.57505e-08
3.32862e-08
3.94055e-08
3.56009e-08
3.55217e-08
5.04575e-08
9.25855e-08
1.05961e-07
6.72498e-08
3.70817e-08
2.78342e-08
3.49758e-08
3.87051e-08
2.61961e-08
1.68862e-08
1.41389e-08
1.32553e-08
1.21595e-08
1.11723e-08
9.05584e-09
7.27596e-09
6.02811e-09
5.423e-09
4.29357e-09
4.00672e-09
3.34311e-09
3.32241e-09
3.43572e-09
1.99206e-09
1.9296e-09
1.81578e-09
1.68683e-09
3.40601e-09
2.83102e-09
6.42456e-09
2.82278e-08
1.416e-08
3.31559e-08
2.9882e-08
4.84349e-08
2.16625e-08
2.2276e-08
2.20107e-08
1.39955e-08
1.33641e-08
7.82384e-09
6.96024e-09
5.76765e-09
6.40218e-09
3.35341e-09
2.68635e-09
4.07473e-09
5.51719e-09
9.24757e-09
9.3116e-09
2.09123e-08
4.36862e-08
2.95505e-08
1.19627e-07
6.72722e-08
4.85248e-08
3.01113e-08
3.0078e-08
1.73608e-08
1.70598e-08
1.51628e-08
1.58232e-08
7.19792e-09
6.38596e-09
1.18359e-08
1.48493e-08
2.58667e-08
2.48265e-08
8.83123e-08
1.11494e-07
1.44619e-07
7.54619e-08
7.1671e-08
6.60293e-08
7.12862e-08
6.96836e-08
6.22319e-08
5.86759e-08
5.59605e-08
5.3991e-08
5.29251e-08
5.3225e-08
5.24535e-08
4.96886e-08
4.8943e-08
4.91269e-08
4.74249e-08
4.55558e-08
4.55218e-08
4.59102e-08
4.4916e-08
4.30242e-08
4.31425e-08
4.36034e-08
4.27381e-08
4.30481e-08
4.32774e-08
4.25269e-08
4.18405e-08
4.25717e-08
4.35937e-08
4.3459e-08
4.26902e-08
4.25066e-08
4.34098e-08
4.48329e-08
4.46507e-08
4.33006e-08
4.38328e-08
4.55124e-08
4.64446e-08
4.56543e-08
4.46731e-08
4.64567e-08
4.87013e-08
4.76258e-08
4.64763e-08
4.85319e-08
4.96979e-08
4.91995e-08
5.01358e-08
5.13645e-08
5.19882e-08
5.20423e-08
5.24566e-08
5.27248e-08
5.31671e-08
5.46799e-08
5.64111e-08
5.78688e-08
5.78548e-08
5.78076e-08
5.84281e-08
5.91902e-08
6.00932e-08
6.12274e-08
6.344e-08
6.54593e-08
6.52913e-08
6.4012e-08
6.60397e-08
6.96295e-08
7.14807e-08
7.16835e-08
7.1198e-08
7.1308e-08
7.65289e-08
7.90967e-08
7.89589e-08
7.77241e-08
7.88347e-08
8.43997e-08
8.69837e-08
8.58079e-08
8.61552e-08
9.1961e-08
9.40582e-08
9.55771e-08
9.97218e-08
9.94756e-08
1.02012e-07
1.03388e-07
1.0585e-07
1.13195e-07
1.14467e-07
1.18257e-07
1.18896e-07
1.20843e-07
1.27382e-07
1.30014e-07
1.34538e-07
1.40192e-07
1.42788e-07
1.42511e-07
1.48946e-07
1.56561e-07
1.61508e-07
1.69437e-07
1.73496e-07
1.72541e-07
1.68715e-07
1.76249e-07
1.86236e-07
1.98367e-07
2.03624e-07
2.04011e-07
2.11983e-07
2.22694e-07
2.22653e-07
2.15286e-07
2.26011e-07
2.45602e-07
2.49606e-07
2.50697e-07
2.59221e-07
2.60251e-07
2.67242e-07
2.78315e-07
2.83366e-07
2.84267e-07
2.786e-07
2.85257e-07
3.11084e-07
3.21511e-07
3.211e-07
3.17385e-07
3.20955e-07
3.25352e-07
3.36238e-07
3.45557e-07
3.6227e-07
3.70403e-07
3.67176e-07
3.69758e-07
3.75291e-07
3.87478e-07
3.92656e-07
3.89088e-07
4.08158e-07
4.25388e-07
4.36854e-07
4.42733e-07
4.51589e-07
4.53856e-07
4.50095e-07
4.80322e-07
5.01238e-07
5.06173e-07
5.17845e-07
5.29888e-07
5.40626e-07
5.61486e-07
5.77616e-07
5.96041e-07
6.17564e-07
6.31817e-07
6.50285e-07
6.75986e-07
6.97839e-07
7.15417e-07
7.33854e-07
7.7023e-07
8.03425e-07
8.34953e-07
8.73394e-07
9.08685e-07
9.46954e-07
9.9111e-07
9.92015e-07
9.92923e-07
9.93607e-07
9.94098e-07
9.94785e-07
9.95461e-07
9.96023e-07
9.96517e-07
9.96958e-07
9.9738e-07
9.97818e-07
9.98229e-07
9.9862e-07
9.98995e-07
9.99365e-07
9.99698e-07
9.99965e-07
1.0002e-06
1.00044e-06
1.00068e-06
1.00088e-06
1.00101e-06
1.0011e-06
1.00124e-06
1.00147e-06
1.00179e-06
1.0022e-06
1.00265e-06
1.00319e-06
9.63743e-07
8.97577e-07
8.40637e-07
7.9101e-07
7.46941e-07
7.07721e-07
6.73305e-07
6.42617e-07
6.15028e-07
5.89949e-07
5.67024e-07
5.46397e-07
5.27939e-07
5.10739e-07
4.95102e-07
4.80768e-07
4.68174e-07
4.57037e-07
4.45673e-07
4.35647e-07
4.26701e-07
4.18451e-07
4.10802e-07
4.03686e-07
3.97453e-07
3.92443e-07
3.87688e-07
3.81906e-07
3.77259e-07
3.73465e-07
3.69935e-07
3.67076e-07
3.6441e-07
3.61444e-07
3.59093e-07
3.5713e-07
3.55168e-07
3.53549e-07
3.52328e-07
3.51481e-07
3.50744e-07
3.50236e-07
3.49952e-07
3.49701e-07
3.49732e-07
3.50118e-07
3.50689e-07
3.51498e-07
3.52467e-07
3.5377e-07
3.5541e-07
3.56628e-07
3.58037e-07
3.59659e-07
3.61355e-07
3.63314e-07
3.6552e-07
3.67948e-07
3.707e-07
3.73464e-07
3.75924e-07
3.78563e-07
3.81399e-07
3.84264e-07
3.87427e-07
3.90557e-07
3.9415e-07
3.9759e-07
4.01465e-07
4.04958e-07
4.09269e-07
4.12576e-07
4.18351e-07
4.22505e-07
4.29327e-07
4.37168e-07
4.42409e-07
4.49277e-07
4.48262e-07
4.54971e-07
4.5121e-07
4.59471e-07
4.84148e-07
4.88625e-07
4.78468e-07
4.85904e-07
4.12315e-07
4.28954e-07
5.79559e-07
5.97901e-07
7.70755e-07
8.53234e-07
9.85321e-07
8.70169e-07
7.27113e-07
5.93848e-07
4.82557e-07
5.83721e-07
6.21987e-07
6.72004e-07
6.72563e-07
6.8261e-07
6.74941e-07
6.74151e-07
6.21879e-07
6.26941e-07
7.07485e-07
7.14781e-07
7.62866e-07
7.83197e-07
9.86591e-07
9.86435e-07
7.36336e-07
7.07479e-07
6.57754e-07
7.40611e-07
6.86483e-07
7.47702e-07
6.28143e-07
7.33921e-07
8.21457e-07
9.47694e-07
9.86988e-07
8.85635e-07
9.04673e-07
3.70746e-07
4.22227e-07
3.43085e-07
4.40947e-07
1.73548e-07
1.78637e-07
7.1955e-08
6.78625e-08
1.52725e-07
1.45345e-07
1.40756e-07
1.75133e-07
2.84033e-07
3.99322e-07
5.56775e-07
7.55691e-07
9.54784e-07
9.62015e-07
9.67217e-07
9.70816e-07
9.73291e-07
9.75371e-07
9.7768e-07
9.79619e-07
9.80677e-07
9.80976e-07
9.81296e-07
9.82097e-07
9.83195e-07
9.84154e-07
9.84708e-07
9.84804e-07
9.84502e-07
9.83978e-07
9.83419e-07
9.82991e-07
9.82795e-07
9.82856e-07
9.83199e-07
9.83874e-07
9.84883e-07
9.86183e-07
9.87425e-07
9.87721e-07
9.87783e-07
9.87815e-07
9.87817e-07
9.87795e-07
9.87767e-07
9.87746e-07
9.87737e-07
9.87735e-07
9.87727e-07
9.87701e-07
9.8765e-07
9.8746e-07
9.8716e-07
9.87234e-07
9.87574e-07
9.87721e-07
9.87762e-07
9.87774e-07
9.87763e-07
9.87722e-07
9.87659e-07
9.87463e-07
9.86909e-07
9.87719e-07
9.87952e-07
9.88007e-07
9.87705e-07
9.83429e-07
9.79291e-07
9.81393e-07
9.86757e-07
9.87415e-07
9.83188e-07
9.78261e-07
9.81469e-07
9.87869e-07
9.88094e-07
9.87003e-07
9.86725e-07
9.88218e-07
9.88293e-07
9.87586e-07
9.83431e-07
9.37276e-07
9.39224e-07
2.54317e-07
5.65842e-07
1.78163e-09
2.59465e-09
3.78516e-09
3.66773e-09
3.50282e-09
4.24193e-09
4.93524e-09
4.7811e-09
4.3907e-09
4.35363e-09
4.62885e-09
4.75765e-09
4.63877e-09
4.49377e-09
4.55705e-09
4.74104e-09
4.83886e-09
4.92476e-09
5.06928e-09
5.10726e-09
5.2007e-09
5.25985e-09
5.35034e-09
5.7236e-09
6.04243e-09
6.05788e-09
5.863e-09
5.75061e-09
6.16161e-09
6.44245e-09
6.67933e-09
6.91864e-09
7.23985e-09
7.21024e-09
6.67518e-09
6.7127e-09
8.25488e-09
1.00636e-08
1.08185e-08
9.34048e-09
8.11945e-09
8.84642e-09
1.00927e-08
1.16252e-08
1.09285e-08
9.49911e-09
1.04715e-08
1.2421e-08
1.38614e-08
1.46992e-08
1.49808e-08
1.57605e-08
1.67298e-08
2.2325e-08
3.24037e-08
3.55456e-08
2.9261e-08
2.82785e-08
4.90741e-08
7.66177e-08
4.433e-08
1.91611e-08
1.8142e-08
3.87489e-08
3.02542e-08
1.41424e-08
1.05278e-08
1.12792e-08
1.08582e-08
8.63608e-09
7.49615e-09
6.57195e-09
5.54768e-09
5.25417e-09
4.65894e-09
4.72392e-09
4.65841e-09
4.26845e-09
3.95211e-09
3.55939e-09
2.99034e-09
2.36994e-09
1.5917e-09
7.27558e-10
7.59805e-10
1.04686e-09
1.17969e-09
1.79031e-09
3.20161e-09
3.07602e-09
1.13526e-08
1.06864e-08
1.5185e-08
1.81153e-08
1.62185e-08
1.21495e-08
1.62238e-08
1.54014e-08
1.21088e-08
1.31583e-08
1.0126e-08
7.68978e-09
4.79067e-09
5.41132e-09
2.9448e-09
2.54517e-09
3.44974e-09
4.62548e-09
6.5335e-09
9.58385e-09
9.6361e-09
2.2206e-08
2.71988e-08
8.52235e-08
6.22551e-08
3.4458e-08
2.75273e-08
3.28328e-08
2.39268e-08
2.04952e-08
1.35808e-08
1.45559e-08
6.92675e-09
6.16653e-09
1.11148e-08
1.32991e-08
2.28552e-08
2.31966e-08
8.92637e-08
2.07376e-07
8.06404e-08
5.45464e-08
5.37095e-08
5.22826e-08
5.29673e-08
5.49048e-08
5.6082e-08
5.34644e-08
5.1649e-08
4.93458e-08
4.71767e-08
4.77594e-08
4.79347e-08
4.53476e-08
4.40836e-08
4.44324e-08
4.40146e-08
4.24867e-08
4.15347e-08
4.20423e-08
4.23089e-08
4.24799e-08
4.17105e-08
4.01296e-08
4.02637e-08
4.13808e-08
4.22197e-08
4.19363e-08
4.1196e-08
4.15568e-08
4.21456e-08
4.19186e-08
4.2114e-08
4.2575e-08
4.29844e-08
4.32166e-08
4.33353e-08
4.42524e-08
4.46215e-08
4.46801e-08
4.50181e-08
4.57514e-08
4.62615e-08
4.64676e-08
4.7841e-08
4.79139e-08
4.74336e-08
4.8939e-08
5.05294e-08
5.10409e-08
5.05119e-08
5.08514e-08
5.15691e-08
5.27757e-08
5.40801e-08
5.47519e-08
5.57048e-08
5.61036e-08
5.64439e-08
5.76105e-08
5.78479e-08
5.89555e-08
5.94658e-08
6.19419e-08
6.5428e-08
6.50869e-08
6.32427e-08
6.41607e-08
6.73732e-08
6.9395e-08
7.01401e-08
7.08703e-08
7.18975e-08
7.5035e-08
7.60593e-08
7.46065e-08
7.66247e-08
8.16808e-08
8.4426e-08
8.39042e-08
8.28297e-08
8.68802e-08
9.08639e-08
9.24107e-08
9.29054e-08
9.70201e-08
1.0049e-07
1.00428e-07
1.0211e-07
1.08792e-07
1.10271e-07
1.06872e-07
1.16548e-07
1.22461e-07
1.23753e-07
1.2627e-07
1.26969e-07
1.31166e-07
1.3399e-07
1.42169e-07
1.47158e-07
1.48431e-07
1.53137e-07
1.58229e-07
1.65646e-07
1.70117e-07
1.70754e-07
1.68962e-07
1.75773e-07
1.94643e-07
2.03278e-07
1.99766e-07
1.97002e-07
2.07916e-07
2.19714e-07
2.14913e-07
2.23944e-07
2.36574e-07
2.41793e-07
2.44907e-07
2.45593e-07
2.57723e-07
2.66741e-07
2.71825e-07
2.76722e-07
2.83135e-07
2.71963e-07
2.6973e-07
2.93522e-07
3.1604e-07
3.18384e-07
3.11075e-07
3.21333e-07
3.29639e-07
3.30032e-07
3.37316e-07
3.41733e-07
3.51333e-07
3.53842e-07
3.53676e-07
3.60064e-07
3.78243e-07
4.10587e-07
4.12626e-07
3.86543e-07
3.908e-07
4.17205e-07
4.36264e-07
4.41691e-07
4.46698e-07
4.55419e-07
4.66066e-07
4.79889e-07
4.94631e-07
4.94214e-07
5.00427e-07
5.34418e-07
5.60146e-07
5.63901e-07
5.69099e-07
5.77726e-07
5.94077e-07
6.28123e-07
6.56516e-07
6.78553e-07
6.95035e-07
7.08055e-07
7.32097e-07
7.70121e-07
8.01388e-07
8.3663e-07
8.72682e-07
9.03158e-07
9.53069e-07
1.01037e-06
1.05533e-06
1.10115e-06
1.18379e-06
1.27467e-06
1.35311e-06
1.45112e-06
1.5847e-06
1.74553e-06
1.92339e-06
2.14289e-06
2.42808e-06
2.80556e-06
3.26292e-06
3.72174e-06
4.116e-06
4.39867e-06
4.33224e-06
3.99292e-06
3.37915e-06
2.79732e-06
2.41554e-06
2.14018e-06
1.85486e-06
1.63241e-06
1.45933e-06
1.3146e-06
1.20056e-06
1.10602e-06
1.02178e-06
9.48772e-07
8.87914e-07
8.33461e-07
7.84693e-07
7.41407e-07
7.03168e-07
6.68821e-07
6.3697e-07
6.09082e-07
5.8439e-07
5.62245e-07
5.42522e-07
5.25052e-07
5.08479e-07
4.93115e-07
4.79468e-07
4.67241e-07
4.55288e-07
4.44041e-07
4.34175e-07
4.25156e-07
4.1679e-07
4.08994e-07
4.01681e-07
3.95727e-07
3.91344e-07
3.86272e-07
3.80849e-07
3.76487e-07
3.72625e-07
3.69058e-07
3.65844e-07
3.62818e-07
3.60092e-07
3.57838e-07
3.56016e-07
3.54596e-07
3.53215e-07
3.52054e-07
3.51207e-07
3.50501e-07
3.49949e-07
3.4941e-07
3.48984e-07
3.49148e-07
3.49833e-07
3.50747e-07
3.51756e-07
3.52806e-07
3.53899e-07
3.55086e-07
3.56282e-07
3.57761e-07
3.59518e-07
3.61419e-07
3.63567e-07
3.65876e-07
3.68643e-07
3.71356e-07
3.73613e-07
3.75828e-07
3.78359e-07
3.80813e-07
3.83945e-07
3.87268e-07
3.91201e-07
3.94688e-07
3.98449e-07
4.00947e-07
4.05055e-07
4.08332e-07
4.13928e-07
4.21609e-07
4.2702e-07
4.31767e-07
4.34684e-07
4.39978e-07
4.3837e-07
4.46598e-07
4.72493e-07
4.77736e-07
4.6363e-07
4.70739e-07
3.98146e-07
4.1787e-07
5.87299e-07
6.14598e-07
7.80219e-07
8.31342e-07
9.13891e-07
9.60291e-07
7.84161e-07
7.45335e-07
5.53632e-07
5.57741e-07
4.54718e-07
4.70298e-07
5.79981e-07
5.95958e-07
6.30918e-07
5.87953e-07
6.05333e-07
6.88454e-07
7.13737e-07
7.4025e-07
7.6834e-07
7.85206e-07
1.03129e-06
1.03152e-06
7.31633e-07
7.49147e-07
6.75451e-07
7.09591e-07
6.03145e-07
6.52262e-07
5.89318e-07
6.75015e-07
7.64572e-07
9.13638e-07
7.47699e-07
8.77751e-07
8.93849e-07
3.65586e-07
4.35261e-07
3.21895e-07
4.08378e-07
1.58479e-07
1.55278e-07
6.41027e-08
6.50793e-08
1.65652e-07
1.65341e-07
1.62606e-07
1.69353e-07
2.01962e-07
2.71009e-07
4.12421e-07
5.18276e-07
5.86472e-07
7.14096e-07
8.85725e-07
1.0935e-06
1.3186e-06
1.56939e-06
1.82346e-06
1.97492e-06
1.99479e-06
1.96356e-06
1.90783e-06
1.81081e-06
1.68944e-06
1.57261e-06
1.47812e-06
1.40879e-06
1.36083e-06
1.3291e-06
1.30785e-06
1.29075e-06
1.27224e-06
1.24904e-06
1.22141e-06
1.19267e-06
1.16642e-06
1.14428e-06
1.12856e-06
1.12089e-06
1.12015e-06
1.12299e-06
1.12521e-06
1.12342e-06
1.11566e-06
1.10223e-06
1.08626e-06
1.07249e-06
1.06494e-06
1.06514e-06
1.07168e-06
1.08047e-06
1.0865e-06
1.08706e-06
1.08409e-06
1.08295e-06
1.08793e-06
1.09777e-06
1.10561e-06
1.10461e-06
1.0953e-06
1.08593e-06
1.08406e-06
1.09196e-06
1.10711e-06
1.12589e-06
1.15207e-06
1.1912e-06
1.227e-06
1.22367e-06
1.17573e-06
1.13184e-06
1.15208e-06
1.236e-06
1.28697e-06
1.21949e-06
1.12356e-06
1.15006e-06
1.29731e-06
1.36474e-06
1.2478e-06
1.20898e-06
1.35512e-06
1.42757e-06
1.2697e-06
1.24768e-06
9.40321e-07
9.20765e-07
2.58437e-07
5.97596e-07
1.76959e-09
2.58988e-09
3.77537e-09
3.6501e-09
3.47876e-09
4.21211e-09
4.90434e-09
4.70827e-09
4.30349e-09
4.23625e-09
4.45946e-09
4.57965e-09
4.47091e-09
4.35783e-09
4.44656e-09
4.6328e-09
4.72547e-09
4.78787e-09
4.92291e-09
5.02587e-09
5.08058e-09
5.07565e-09
5.27098e-09
5.62511e-09
5.85022e-09
5.69822e-09
5.3884e-09
5.43739e-09
6.07083e-09
6.35287e-09
6.17001e-09
6.12723e-09
6.26407e-09
6.91196e-09
6.97351e-09
6.43456e-09
6.61697e-09
7.25102e-09
8.15801e-09
8.8348e-09
8.12536e-09
8.02391e-09
8.76687e-09
1.02248e-08
1.05511e-08
9.55604e-09
9.41761e-09
1.05488e-08
1.28844e-08
1.59693e-08
1.70219e-08
1.60072e-08
1.42551e-08
1.70441e-08
2.6033e-08
3.50979e-08
2.76703e-08
2.47997e-08
3.51281e-08
4.40165e-08
2.76607e-08
1.53363e-08
1.73895e-08
3.25312e-08
2.33463e-08
1.18694e-08
9.92104e-09
1.21354e-08
1.10338e-08
8.32282e-09
7.16357e-09
6.86484e-09
6.21866e-09
5.47591e-09
5.00344e-09
4.99295e-09
5.14546e-09
4.46207e-09
4.3967e-09
4.80817e-09
4.56244e-09
4.11867e-09
2.74958e-09
1.74687e-09
1.37242e-09
1.20752e-09
8.77273e-10
6.17498e-10
7.18642e-10
1.06953e-09
1.28638e-09
2.75443e-09
2.73602e-09
9.12857e-09
1.29043e-08
1.16558e-08
1.64424e-08
1.39175e-08
1.15596e-08
2.27511e-08
3.83733e-08
2.39059e-08
1.82976e-08
1.16993e-08
8.63755e-09
5.67634e-09
4.86107e-09
4.43214e-09
2.99132e-09
2.54436e-09
3.9288e-09
4.945e-09
8.66123e-09
9.1327e-09
2.13272e-08
2.91796e-08
6.20463e-08
1.26831e-07
7.7113e-08
5.58995e-08
5.34668e-08
2.66892e-08
2.02824e-08
1.28233e-08
1.35945e-08
6.83457e-09
6.16731e-09
1.08267e-08
1.26761e-08
2.22643e-08
2.30391e-08
7.65323e-08
2.17902e-07
6.12727e-08
4.40959e-08
4.18107e-08
4.86136e-08
5.03441e-08
5.16706e-08
5.04779e-08
4.79845e-08
4.74449e-08
4.67374e-08
4.5106e-08
4.4578e-08
4.37437e-08
4.22494e-08
4.19719e-08
4.29659e-08
4.23627e-08
4.12536e-08
4.18761e-08
4.12088e-08
3.9636e-08
4.01302e-08
4.15626e-08
4.19731e-08
4.11496e-08
4.04399e-08
4.14882e-08
4.28942e-08
4.17871e-08
4.07006e-08
4.16095e-08
4.39052e-08
4.41147e-08
4.26513e-08
4.28849e-08
4.45924e-08
4.63198e-08
4.47865e-08
4.41863e-08
4.70483e-08
4.81166e-08
4.68814e-08
4.70022e-08
4.88813e-08
4.99247e-08
4.94918e-08
4.98599e-08
5.07079e-08
5.16312e-08
5.22376e-08
5.35327e-08
5.4859e-08
5.47324e-08
5.44397e-08
5.53664e-08
5.69847e-08
5.84913e-08
5.8673e-08
5.96535e-08
5.99917e-08
6.11972e-08
6.40622e-08
6.61328e-08
6.59136e-08
6.52261e-08
6.55246e-08
6.83437e-08
7.09366e-08
7.22419e-08
7.36238e-08
7.24446e-08
7.30822e-08
7.45808e-08
8.0455e-08
8.64807e-08
8.24208e-08
8.06442e-08
8.43673e-08
8.99486e-08
8.94469e-08
9.02961e-08
9.24678e-08
9.63013e-08
9.93236e-08
1.00683e-07
1.0478e-07
1.09261e-07
1.08513e-07
1.06357e-07
1.1317e-07
1.22692e-07
1.27097e-07
1.28209e-07
1.27241e-07
1.2892e-07
1.30537e-07
1.38336e-07
1.49941e-07
1.50103e-07
1.48788e-07
1.56198e-07
1.67138e-07
1.65183e-07
1.68007e-07
1.76995e-07
1.84165e-07
1.97848e-07
1.98197e-07
1.91776e-07
1.99083e-07
2.07519e-07
2.08061e-07
2.17069e-07
2.40754e-07
2.48592e-07
2.38335e-07
2.36045e-07
2.45392e-07
2.50911e-07
2.64745e-07
2.7938e-07
2.74261e-07
2.72849e-07
2.72328e-07
2.878e-07
3.07071e-07
3.04414e-07
3.07377e-07
3.08486e-07
3.18285e-07
3.35606e-07
3.41643e-07
3.39935e-07
3.37683e-07
3.41312e-07
3.41711e-07
3.48701e-07
3.59268e-07
3.78312e-07
4.1468e-07
4.24526e-07
4.00329e-07
3.91796e-07
4.06336e-07
4.21394e-07
4.33554e-07
4.39752e-07
4.62093e-07
4.92035e-07
4.74299e-07
4.77e-07
4.90204e-07
5.02928e-07
5.38753e-07
5.65513e-07
5.52533e-07
5.57008e-07
5.73939e-07
5.88136e-07
6.20224e-07
6.54517e-07
6.71874e-07
6.84279e-07
7.07415e-07
7.39159e-07
7.63359e-07
7.91017e-07
8.28047e-07
8.62532e-07
8.9916e-07
9.49467e-07
9.90982e-07
1.02755e-06
1.07805e-06
1.1595e-06
1.2412e-06
1.29962e-06
1.37769e-06
1.4919e-06
1.63211e-06
1.77962e-06
1.9351e-06
2.12804e-06
2.37761e-06
2.64728e-06
2.85456e-06
2.98879e-06
3.10482e-06
3.089e-06
2.92634e-06
2.63134e-06
2.33645e-06
2.10122e-06
1.89731e-06
1.689e-06
1.51201e-06
1.36739e-06
1.24736e-06
1.14807e-06
1.06157e-06
9.84254e-07
9.19227e-07
8.65879e-07
8.15226e-07
7.68483e-07
7.27243e-07
6.90228e-07
6.57241e-07
6.26942e-07
5.99762e-07
5.75916e-07
5.5424e-07
5.35005e-07
5.18857e-07
5.03285e-07
4.88706e-07
4.75515e-07
4.62789e-07
4.50676e-07
4.40745e-07
4.31254e-07
4.22122e-07
4.13813e-07
4.06078e-07
3.98827e-07
3.92951e-07
3.88171e-07
3.82793e-07
3.78612e-07
3.74625e-07
3.70596e-07
3.67007e-07
3.63443e-07
3.60261e-07
3.58088e-07
3.56042e-07
3.54223e-07
3.53011e-07
3.51877e-07
3.50739e-07
3.49708e-07
3.49017e-07
3.48487e-07
3.47951e-07
3.4779e-07
3.48226e-07
3.48944e-07
3.49768e-07
3.50624e-07
3.51634e-07
3.5262e-07
3.5358e-07
3.5521e-07
3.57027e-07
3.58996e-07
3.61162e-07
3.6335e-07
3.6566e-07
3.68121e-07
3.7049e-07
3.72386e-07
3.75039e-07
3.77504e-07
3.80447e-07
3.83473e-07
3.87116e-07
3.89752e-07
3.93671e-07
3.96041e-07
4.00333e-07
4.04617e-07
4.09418e-07
4.07458e-07
4.15871e-07
4.11008e-07
4.25003e-07
4.48549e-07
4.62415e-07
4.74397e-07
4.48589e-07
4.57506e-07
3.84329e-07
4.0571e-07
5.94145e-07
6.23889e-07
7.75832e-07
8.28585e-07
8.22925e-07
8.93087e-07
7.97341e-07
7.68253e-07
5.66819e-07
5.43954e-07
4.27541e-07
4.3502e-07
5.28432e-07
5.19858e-07
5.4959e-07
5.27643e-07
5.50444e-07
6.40376e-07
6.74543e-07
6.69328e-07
7.56295e-07
7.61751e-07
1.04703e-06
1.04391e-06
7.33333e-07
7.49801e-07
6.7889e-07
7.01911e-07
5.9489e-07
6.24908e-07
5.79958e-07
6.29504e-07
7.44594e-07
8.26459e-07
6.21424e-07
7.38303e-07
2.97233e-07
3.98054e-07
1.02384e-06
3.0694e-07
3.99018e-07
1.48363e-07
1.47348e-07
5.97329e-08
5.90335e-08
1.46062e-07
1.35959e-07
1.41701e-07
1.58223e-07
1.9741e-07
2.10801e-07
3.30236e-07
3.77531e-07
3.92628e-07
4.3437e-07
4.90367e-07
5.79527e-07
6.95808e-07
8.35707e-07
9.9564e-07
1.17227e-06
1.33446e-06
1.44776e-06
1.53878e-06
1.61697e-06
1.66111e-06
1.65603e-06
1.60537e-06
1.53285e-06
1.46298e-06
1.40762e-06
1.3684e-06
1.34259e-06
1.32527e-06
1.31016e-06
1.291e-06
1.26446e-06
1.23157e-06
1.19481e-06
1.15944e-06
1.13305e-06
1.11425e-06
1.10471e-06
1.10539e-06
1.11325e-06
1.12325e-06
1.13001e-06
1.12971e-06
1.12182e-06
1.10774e-06
1.09191e-06
1.07977e-06
1.07492e-06
1.07741e-06
1.08428e-06
1.0903e-06
1.0909e-06
1.08592e-06
1.08085e-06
1.08296e-06
1.09489e-06
1.11097e-06
1.11956e-06
1.11278e-06
1.09637e-06
1.08422e-06
1.08579e-06
1.10242e-06
1.1301e-06
1.16094e-06
1.19075e-06
1.21596e-06
1.21914e-06
1.18812e-06
1.14507e-06
1.14044e-06
1.19592e-06
1.25714e-06
1.23017e-06
1.13611e-06
1.12171e-06
1.23777e-06
1.3407e-06
1.29642e-06
1.25554e-06
1.37263e-06
1.42009e-06
1.30892e-06
1.20499e-06
1.19257e-06
8.99686e-07
9.33158e-07
2.63332e-07
5.8772e-07
1.75337e-09
2.58412e-09
3.75969e-09
3.62989e-09
3.44617e-09
4.17026e-09
4.86944e-09
4.6657e-09
4.2648e-09
4.17328e-09
4.38227e-09
4.48415e-09
4.36243e-09
4.29029e-09
4.43859e-09
4.67438e-09
4.81855e-09
4.8865e-09
4.992e-09
5.09627e-09
5.17244e-09
5.25203e-09
5.39377e-09
5.59332e-09
5.65444e-09
5.5757e-09
5.44998e-09
5.60183e-09
6.03805e-09
6.24892e-09
6.10037e-09
5.95614e-09
6.13067e-09
6.85663e-09
7.15502e-09
6.70191e-09
6.26389e-09
6.32777e-09
7.00729e-09
7.9426e-09
8.18925e-09
8.14506e-09
8.33361e-09
9.50514e-09
1.02096e-08
9.92302e-09
9.96663e-09
1.07874e-08
1.29137e-08
1.52694e-08
1.6454e-08
1.59112e-08
1.41296e-08
1.44505e-08
2.03764e-08
2.70678e-08
2.33864e-08
2.17431e-08
2.89893e-08
3.48984e-08
2.0903e-08
1.43287e-08
1.75698e-08
2.53138e-08
1.8566e-08
1.08576e-08
1.01364e-08
1.21773e-08
1.03612e-08
8.5824e-09
8.06919e-09
7.82242e-09
7.06558e-09
5.98371e-09
5.45686e-09
5.53338e-09
5.6512e-09
5.26521e-09
5.49119e-09
5.96944e-09
6.15234e-09
6.52637e-09
8.16293e-09
6.7077e-09
7.10001e-09
5.50737e-09
2.17123e-09
1.39225e-09
1.11849e-09
9.95947e-10
5.56003e-10
6.84554e-10
1.04483e-09
1.2537e-09
2.89337e-09
2.84056e-09
1.05882e-08
1.3341e-08
1.32231e-08
2.27618e-08
2.08289e-08
1.60914e-08
4.04543e-08
3.51328e-07
6.6618e-08
3.60671e-08
6.66109e-08
1.05322e-08
7.44137e-09
4.63767e-09
5.05628e-09
3.03221e-09
2.72614e-09
4.26545e-09
5.20296e-09
9.28244e-09
1.01052e-08
2.60605e-08
3.52388e-08
1.06273e-07
6.89947e-08
5.89973e-08
9.23063e-08
9.51291e-08
2.85513e-08
2.04006e-08
1.22827e-08
1.27712e-08
6.83582e-09
6.30142e-09
1.08943e-08
1.23738e-08
2.15748e-08
2.28867e-08
3.64666e-08
9.28699e-08
1.21704e-07
5.54957e-08
4.37852e-08
4.51258e-08
4.55033e-08
4.79137e-08
4.72382e-08
4.48637e-08
4.39498e-08
4.27489e-08
4.17027e-08
4.20758e-08
4.25111e-08
4.16815e-08
4.08664e-08
4.10871e-08
4.01435e-08
4.00671e-08
4.07413e-08
4.13607e-08
4.1183e-08
3.99746e-08
3.98315e-08
4.10662e-08
4.23535e-08
4.18772e-08
4.06331e-08
4.16151e-08
4.39146e-08
4.35246e-08
4.20994e-08
4.26531e-08
4.48634e-08
4.63934e-08
4.47853e-08
4.40837e-08
4.68427e-08
4.83862e-08
4.67031e-08
4.71943e-08
4.94186e-08
4.99999e-08
4.90636e-08
4.96336e-08
5.1695e-08
5.18941e-08
5.24352e-08
5.40644e-08
5.50592e-08
5.46018e-08
5.35039e-08
5.62015e-08
5.87119e-08
5.85525e-08
5.90874e-08
6.08803e-08
6.23296e-08
6.10773e-08
6.07943e-08
6.47766e-08
6.81381e-08
6.79919e-08
6.63424e-08
6.72506e-08
7.05814e-08
7.29432e-08
7.43355e-08
7.21152e-08
7.30621e-08
7.70365e-08
8.1316e-08
8.42999e-08
8.11441e-08
8.07547e-08
8.54995e-08
8.98974e-08
9.02859e-08
9.1647e-08
9.25547e-08
9.32452e-08
9.70972e-08
1.02246e-07
1.09181e-07
1.06854e-07
1.04493e-07
1.09267e-07
1.12278e-07
1.20564e-07
1.24048e-07
1.27589e-07
1.31595e-07
1.2905e-07
1.30408e-07
1.35209e-07
1.43802e-07
1.53178e-07
1.52671e-07
1.53419e-07
1.62899e-07
1.68751e-07
1.69819e-07
1.78672e-07
1.8822e-07
1.8835e-07
1.85904e-07
1.907e-07
2.08623e-07
2.13587e-07
2.04517e-07
2.25549e-07
2.50513e-07
2.39346e-07
2.27683e-07
2.35091e-07
2.53503e-07