/*--------------------------------*- C++ -*----------------------------------*\
| =========                 |                                                 |
| \\      /  F ield         | OpenFOAM: The Open Source CFD Toolbox           |
|  \\    /   O peration     | Version:  v2006                                 |
|   \\  /    A nd           | Website:  www.openfoam.com                      |
|    \\/     M anipulation  |                                                 |
\*---------------------------------------------------------------------------*/
FoamFile
{
    version     2.0;
    format      ascii;
    class       volScalarField;
    location    "3";
    object      omega;
}
// * * * * * * * * * * * * * * * * * * * * * * * * * * * * * * * * * * * * * //

dimensions      [0 0 -1 0 0 0 0];


internalField   nonuniform List<scalar> 
33000
(
0.801341
0.801408
0.801464
0.801525
0.801607
0.80173
0.801914
0.802175
0.802517
0.802933
0.803404
0.803902
0.804394
0.804849
0.805248
0.805576
0.80584
0.806045
0.806199
0.806315
0.806401
0.806458
0.806486
0.806493
0.806504
0.806536
0.806576
0.806597
0.806596
0.8066
0.80662
0.806645
0.806661
0.806682
0.806719
0.806752
0.806768
0.806776
0.806791
0.806822
0.80686
0.806877
0.806879
0.806885
0.806908
0.806941
0.806956
0.806951
0.806941
0.806933
0.806925
0.806909
0.80689
0.806863
0.806829
0.806792
0.806756
0.806724
0.806691
0.806657
0.806626
0.806597
0.806565
0.806532
0.8065
0.80646
0.806418
0.806375
0.806331
0.806284
0.806235
0.806184
0.806128
0.806066
0.805985
0.805879
0.805741
0.805551
0.805285
0.80497
0.804704
0.80454
0.80447
0.804447
0.804403
0.804427
0.804429
0.804412
0.804388
0.804367
0.804348
0.804319
0.80428
0.804232
0.804177
0.804109
0.804021
0.803899
0.803756
0.803578
0.803424
0.803323
0.803277
0.80325
0.803223
0.80321
0.803205
0.803185
0.80316
0.803138
0.803117
0.803095
0.803073
0.803041
0.803002
0.802944
0.802895
0.802835
0.802803
0.802812
0.802828
0.802835
0.802838
0.802839
0.802843
0.802847
0.802852
0.802858
0.802862
0.802862
0.802864
0.802868
0.802869
0.802869
0.802868
0.802869
0.802869
0.802868
0.802866
0.802865
0.802864
0.802861
0.802858
0.802854
0.802851
0.802846
0.802841
0.802837
0.802833
0.802828
0.802823
0.802817
0.80281
0.802806
0.802802
0.802797
0.802791
0.802785
0.802781
0.802776
0.802771
0.802766
0.802762
0.802758
0.802753
0.802748
0.802743
0.802739
0.802735
0.80273
0.802725
0.802721
0.802718
0.802714
0.80271
0.802707
0.802704
0.802701
0.802699
0.802697
0.802695
0.802692
0.802691
0.80269
0.802689
0.802687
0.802686
0.802685
0.802685
0.802684
0.802682
0.802682
0.802682
0.802683
0.802683
0.802684
0.802685
0.802686
0.802687
0.802687
0.802689
0.80269
0.802691
0.802693
0.802694
0.802695
0.802695
0.802697
0.802699
0.8027
0.8027
0.802701
0.802703
0.802703
0.802704
0.802704
0.802705
0.802706
0.802706
0.802707
0.802707
0.802705
0.802705
0.802704
0.802703
0.8027
0.802698
0.802695
0.802691
0.802687
0.802683
0.802679
0.802674
0.802669
0.802663
0.802657
0.802651
0.802645
0.802638
0.802632
0.802625
0.802618
0.80261
0.802603
0.802595
0.802587
0.802579
0.802571
0.802562
0.802554
0.802545
0.802536
0.802528
0.802519
0.80251
0.8025
0.802491
0.802482
0.802472
0.802463
0.802453
0.802443
0.802433
0.802423
0.802413
0.802403
0.802393
0.802383
0.802373
0.802362
0.802352
0.802342
0.802331
0.802321
0.80231
0.802299
0.802289
0.802278
0.802267
0.802256
0.802245
0.802235
0.802224
0.802213
0.802201
0.80219
0.802179
0.802168
0.802156
0.802145
0.802134
0.802122
0.802111
0.802099
0.802088
0.802076
0.802064
0.802053
0.802041
0.80203
0.802018
0.802007
0.801995
0.801984
0.801973
0.801961
0.80195
0.801938
0.801927
0.801916
0.801905
0.801893
0.801882
0.801871
0.80186
0.801849
0.801838
0.801828
0.801817
0.801807
0.801797
0.801787
0.801777
0.801767
0.801757
0.801748
0.801738
0.801729
0.80172
0.801711
0.801702
0.801693
0.801684
0.801675
0.801666
0.801657
0.801649
0.80164
0.801632
0.801623
0.801615
0.801606
0.801598
0.80159
0.801582
0.801573
0.801565
0.801557
0.801549
0.801541
0.801533
0.801525
0.801518
0.80151
0.801502
0.801494
0.801487
0.801479
0.801472
0.801464
0.801457
0.801449
0.801442
0.801435
0.801428
0.80142
0.801413
0.801406
0.801399
0.801392
0.801386
0.801379
0.801372
0.801365
0.801359
0.801352
0.801346
0.801339
0.801333
0.801327
0.80132
0.801314
0.801308
0.801302
0.801296
0.80129
0.801285
0.801279
0.801273
0.801268
0.801262
0.801257
0.801251
0.801246
0.801241
0.801236
0.801231
0.801226
0.801221
0.801216
0.801211
0.801207
0.801202
0.801198
0.801193
0.801189
0.801184
0.80118
0.801176
0.801172
0.801168
0.801164
0.80116
0.801156
0.801153
0.801149
0.801145
0.801142
0.801138
0.801135
0.801131
0.801128
0.801125
0.801121
0.801118
0.801115
0.801112
0.801109
0.801107
0.801104
0.801104
0.801102
0.8011
0.801098
0.801096
0.801093
0.801091
0.801089
0.801087
0.801084
0.801082
0.80108
0.801078
0.801075
0.801074
0.801071
0.801069
0.801067
0.801066
0.801064
0.801063
0.801061
0.801059
0.801057
0.801056
0.801054
0.801053
0.801051
0.80105
0.801048
0.801047
0.801046
0.801044
0.801041
0.80104
0.80104
0.801036
0.801043
0.80104
0.801065
0.801063
0.80107
0.801072
0.801074
0.801075
0.801075
0.801076
0.801076
0.801075
0.801075
0.801075
0.801074
0.801074
0.801073
0.801072
0.801072
0.801071
0.80107
0.80107
0.801069
0.801068
0.801067
0.801066
0.801066
0.801065
0.801064
0.801063
0.801062
0.801061
0.80106
0.80106
0.801059
0.801058
0.801057
0.801056
0.801055
0.801054
0.801053
0.801052
0.801051
0.80105
0.801049
0.801048
0.801047
0.801046
0.801046
0.801045
0.801044
0.801043
0.801042
0.801042
0.801041
0.80104
0.801039
0.801038
0.801038
0.801037
0.801036
0.801036
0.801035
0.801034
0.801033
0.801032
0.801032
0.801031
0.80103
0.80103
0.801029
0.801028
0.801027
0.801027
0.801026
0.801026
0.801025
0.801024
0.801024
0.801023
0.801022
0.801024
0.801018
0.00175465
0.00223888
0.00303639
0.00504455
0.00872691
0.0139631
0.0211404
0.0307623
0.0427159
0.0559674
0.0693189
0.0822783
0.094573
0.105601
0.114685
0.121792
0.127379
0.131773
0.135204
0.137936
0.139941
0.141239
0.142103
0.142643
0.143664
0.145315
0.146963
0.148058
0.148445
0.148783
0.149076
0.149281
0.149457
0.150556
0.15198
0.152159
0.151147
0.149945
0.149542
0.150412
0.150496
0.149113
0.147456
0.146546
0.147394
0.148302
0.147382
0.14506
0.142459
0.140387
0.13871
0.137375
0.136513
0.13539
0.133343
0.130971
0.129305
0.128339
0.126955
0.12569
0.126723
0.131619
0.138151
0.141442
0.141765
0.143705
0.14908
0.153609
0.154823
0.154488
0.155946
0.160391
0.171108
0.188352
0.210492
0.245774
0.297924
0.390755
0.481143
0.533148
0.642858
0.613799
0.423697
0.243984
0.123036
0.0777976
0.0595489
0.0481802
0.0422854
0.0428235
0.042918
0.0385226
0.0374018
0.0380036
0.040946
0.0440803
0.0491537
0.0530144
0.0700654
0.0821824
0.0723744
0.053814
0.0391772
0.0356162
0.0315189
0.0293713
0.0298861
0.0298967
0.0289886
0.0286808
0.0293387
0.0295697
0.0295148
0.0294373
0.0308242
0.0319992
0.0412046
0.0451026
0.0373062
0.0289442
0.0254991
0.0264943
0.0271504
0.0269923
0.0269506
0.0258183
0.0247413
0.0253452
0.026392
0.0261153
0.0249435
0.0251694
0.0259117
0.0261986
0.025477
0.0247407
0.0256873
0.0262838
0.0260197
0.0250438
0.0259185
0.0264582
0.0262074
0.0260065
0.0265315
0.0265502
0.0258543
0.0253207
0.0262764
0.0265362
0.0265386
0.0266857
0.0252968
0.0244143
0.0255819
0.0264517
0.026006
0.024742
0.024431
0.0255032
0.0259065
0.025007
0.0241242
0.024885
0.0257304
0.0251798
0.0242366
0.0245005
0.0252497
0.0255084
0.0245784
0.0237325
0.0244618
0.0251352
0.0246735
0.0240379
0.0237613
0.0240346
0.0240524
0.0239377
0.0237842
0.0232617
0.0232049
0.0234357
0.0232026
0.0226178
0.0221125
0.0225266
0.0225854
0.0221556
0.0215907
0.0216793
0.0216267
0.0212927
0.020988
0.0206703
0.0206772
0.0204655
0.0199855
0.0195151
0.019613
0.0195387
0.0193482
0.0188591
0.0185053
0.0180546
0.0180314
0.0181726
0.0176948
0.017201
0.0169117
0.0170525
0.0166421
0.0163497
0.0159768
0.0156074
0.0157463
0.0154419
0.0152093
0.0150336
0.0144611
0.0141735
0.014253
0.0141188
0.0138494
0.0135955
0.0134278
0.0131522
0.0128444
0.0128898
0.0127555
0.0125615
0.0123793
0.012163
0.0119521
0.0120279
0.0119529
0.0117808
0.0115924
0.0115794
0.0114754
0.0113819
0.0112974
0.0112372
0.011156
0.0110862
0.0111418
0.0110227
0.0109067
0.0109111
0.0108805
0.0108374
0.0108119
0.0107707
0.0107654
0.0107287
0.0106531
0.010631
0.0106653
0.0106263
0.010582
0.0105317
0.0105608
0.0105502
0.0105294
0.0105136
0.0104967
0.010452
0.010426
0.0104327
0.0104335
0.0104243
0.0104112
0.0103936
0.0103831
0.0103608
0.0103535
0.0103448
0.0103354
0.0103275
0.0103258
0.0103207
0.010296
0.0102808
0.0102667
0.0102557
0.0102546
0.0102457
0.0102322
0.0102193
0.0102019
0.0101898
0.0101892
0.0101827
0.0101746
0.010168
0.0101597
0.0101539
0.0101484
0.0101419
0.0101354
0.0101279
0.0101201
0.0101137
0.0101058
0.010096
0.0100861
0.0100785
0.0100729
0.0100654
0.010058
0.0100517
0.0100462
0.0100412
0.0100364
0.0100315
0.0100268
0.0100224
0.0100182
0.010014
0.0100102
0.0100071
0.0100043
0.0100015
0.00999874
0.0099964
0.00999468
0.00999342
0.00999169
0.00998911
0.00998556
0.00998125
0.0099765
0.0099708
0.00996415
0.00995784
0.00995283
0.00994931
0.00994661
0.00994426
0.00994243
0.00994142
0.00994085
0.00994
0.00993849
0.00993655
0.00993451
0.00993216
0.0099297
0.00992746
0.00992596
0.00992509
0.00992471
0.00992503
0.00992576
0.00992629
0.00992601
0.00992514
0.00992396
0.00992268
0.00992123
0.00991982
0.00991927
0.00991977
0.00992102
0.00992236
0.00992352
0.00992413
0.00992413
0.00992338
0.00992194
0.0099205
0.00991959
0.00991938
0.00991977
0.00992027
0.00992076
0.00992137
0.00992188
0.00992173
0.00992094
0.00992021
0.00992035
0.00992189
0.00992466
0.00992828
0.00993193
0.00993488
0.00993703
0.00993862
0.00994019
0.00994238
0.00994554
0.00994979
0.00995454
0.00995941
0.00996368
0.00996668
0.00996835
0.00996919
0.00997056
0.00997306
0.00997638
0.00997972
0.00998303
0.0099861
0.00998862
0.00999048
0.00999328
0.00999726
0.0100014
0.0100055
0.0100073
0.0100093
0.0100097
0.0100127
0.0100186
0.0100216
0.0100215
0.0100241
0.0100106
0.0100182
0.0100536
0.0100581
0.0100837
0.0100953
0.0101247
0.0101219
0.0100832
0.0100648
0.0100471
0.0100612
0.0100612
0.0100682
0.0100696
0.0100739
0.0100753
0.0100748
0.0100689
0.010067
0.010082
0.0100893
0.0100945
0.0100976
0.0101121
0.0101136
0.0100913
0.0100846
0.0100772
0.0100852
0.0100818
0.0100864
0.0100761
0.0100942
0.0101062
0.0101082
0.0101063
0.0101092
0.0101013
0.0100171
0.010055
0.0100558
0.0101102
0.0100222
0.0100161
0.0100456
0.0105777
0.011006
0.0139815
0.0134809
0.0125867
0.0115909
0.01109
0.0107722
0.0105704
0.0104461
0.0103671
0.0103111
0.0102727
0.0102466
0.0102248
0.0102007
0.0101805
0.0101695
0.0101665
0.0101632
0.010155
0.0101437
0.0101339
0.0101282
0.0101272
0.0101303
0.0101357
0.0101414
0.0101459
0.0101479
0.0101473
0.0101439
0.010137
0.0101267
0.0101135
0.0101009
0.0100979
0.0100974
0.0100971
0.0100971
0.0100974
0.0100977
0.0100979
0.010098
0.0100979
0.0100979
0.0100981
0.0100985
0.0101004
0.0101034
0.0101026
0.0100992
0.0100977
0.0100973
0.0100972
0.0100973
0.0100977
0.0100983
0.0101002
0.0101058
0.0100975
0.0100951
0.0100945
0.0100974
0.010141
0.0101838
0.0101622
0.0101071
0.0101002
0.0101434
0.0101944
0.0101614
0.0100957
0.0100932
0.0101043
0.0101074
0.0100921
0.0100911
0.0100983
0.0101409
0.0101209
0.010177
0.0101117
0.0101641
0.00146041
0.00149966
0.00145472
0.00161315
0.00197469
0.00250102
0.00332803
0.0045995
0.00633807
0.00838318
0.01052
0.0126507
0.0146945
0.0165412
0.0180746
0.019305
0.0203241
0.0211611
0.0218393
0.0224323
0.0229154
0.0232943
0.0235493
0.0237289
0.0240478
0.0245611
0.0251203
0.0254957
0.0256019
0.0257295
0.0259391
0.0261426
0.0262894
0.0265085
0.0269584
0.027368
0.0274137
0.0271907
0.0269091
0.0268136
0.0267752
0.0264867
0.0260271
0.0256637
0.0256793
0.0258471
0.0256631
0.0250661
0.0243279
0.0237129
0.0232924
0.023029
0.0228577
0.022549
0.0220032
0.0214128
0.0210112
0.0207298
0.0202429
0.01978
0.0199409
0.0210708
0.0225899
0.0233017
0.0235683
0.0243229
0.0257168
0.026794
0.027191
0.0271799
0.0274903
0.0285833
0.0312699
0.0357259
0.0414093
0.0497314
0.062526
0.0874151
0.126833
0.164331
0.203975
0.210806
0.179525
0.159662
0.111464
0.0617444
0.0334335
0.0167814
0.00834123
0.00557477
0.00406378
0.00319457
0.00290257
0.00282006
0.00287165
0.00309592
0.00335912
0.00356376
0.00461445
0.00586339
0.00563627
0.00511323
0.00466107
0.00409927
0.00346828
0.00300279
0.00274633
0.00254978
0.00224067
0.00205779
0.00210448
0.00206199
0.001999
0.00196307
0.00197932
0.00200468
0.00232461
0.00257538
0.0024006
0.00233743
0.00233487
0.0022109
0.0022138
0.0021443
0.00200898
0.00187974
0.00176625
0.00179035
0.00180197
0.00177335
0.00172784
0.00173719
0.00176413
0.00177304
0.00174018
0.00171325
0.00176139
0.00178058
0.00176349
0.00172675
0.00177659
0.00179031
0.00177143
0.001777
0.00180644
0.00179439
0.00175779
0.00174682
0.00180015
0.00179778
0.00178963
0.00179991
0.00173811
0.00170257
0.00175413
0.00179024
0.00176
0.00170174
0.00169452
0.00174361
0.0017613
0.00171708
0.00167291
0.0017073
0.00175237
0.00172702
0.00167931
0.00168431
0.00172301
0.00174095
0.00169077
0.00164861
0.00168585
0.00171928
0.00168536
0.00165876
0.00165455
0.00165828
0.00165148
0.00164496
0.00164136
0.00162125
0.00161789
0.00162298
0.00160704
0.0015792
0.00155677
0.00157077
0.00157173
0.00155401
0.00153223
0.00153108
0.0015244
0.00150493
0.00148734
0.00147707
0.0014801
0.00146671
0.00144199
0.00142241
0.00142268
0.00141915
0.00141128
0.00138603
0.0013713
0.00135789
0.00135635
0.0013547
0.00133244
0.00131635
0.00130842
0.00130859
0.00128993
0.00127923
0.00126745
0.00125412
0.00125445
0.00124415
0.00123637
0.00122874
0.00121117
0.001204
0.00120104
0.00119588
0.00118877
0.00117998
0.00117461
0.00116681
0.00115893
0.0011573
0.0011537
0.00114846
0.00114276
0.00113764
0.00113245
0.00113236
0.00113075
0.0011287
0.00112459
0.00112248
0.00111944
0.00111771
0.00111639
0.00111474
0.00111287
0.0011124
0.00111351
0.00111103
0.00110879
0.00110909
0.00110871
0.00110793
0.00110785
0.00110725
0.00110689
0.00110626
0.00110566
0.00110591
0.00110572
0.0011045
0.00110425
0.00110434
0.00110495
0.00110474
0.00110451
0.0011042
0.00110369
0.0011029
0.00110293
0.00110312
0.00110309
0.00110274
0.00110258
0.00110264
0.00110253
0.00110189
0.00110185
0.00110182
0.00110179
0.00110173
0.0011018
0.00110176
0.00110106
0.0011011
0.00110097
0.00110081
0.00110078
0.00110062
0.00110039
0.00110017
0.00109991
0.00109981
0.00109987
0.00109977
0.00109968
0.00109962
0.00109954
0.00109949
0.00109937
0.0010993
0.00109918
0.00109902
0.0010989
0.00109876
0.00109853
0.00109831
0.00109816
0.00109806
0.0010979
0.00109764
0.00109747
0.00109734
0.00109721
0.00109706
0.00109689
0.00109676
0.00109664
0.00109652
0.00109635
0.00109619
0.00109606
0.00109598
0.00109592
0.00109587
0.00109586
0.00109588
0.0010959
0.00109595
0.00109601
0.00109609
0.00109614
0.00109619
0.00109626
0.00109633
0.00109639
0.00109646
0.00109654
0.00109664
0.00109676
0.0010969
0.00109703
0.00109718
0.00109732
0.00109747
0.00109762
0.00109779
0.00109795
0.0010981
0.00109826
0.00109842
0.00109857
0.00109872
0.00109888
0.00109904
0.0010992
0.00109936
0.0010995
0.00109964
0.00109979
0.00109995
0.00110009
0.00110025
0.00110041
0.00110056
0.00110071
0.00110086
0.00110099
0.00110112
0.00110123
0.00110135
0.00110145
0.00110154
0.00110164
0.00110174
0.00110184
0.00110194
0.00110201
0.00110208
0.00110216
0.00110227
0.00110237
0.00110246
0.00110256
0.00110267
0.00110276
0.00110285
0.00110294
0.00110303
0.00110313
0.00110324
0.00110335
0.00110349
0.00110363
0.00110375
0.00110386
0.00110397
0.00110409
0.00110421
0.00110435
0.00110448
0.00110461
0.00110471
0.00110481
0.00110487
0.00110496
0.00110508
0.00110522
0.00110538
0.00110553
0.00110565
0.00110574
0.00110588
0.00110596
0.00110597
0.0011061
0.00110638
0.0011066
0.00110721
0.00110719
0.00110653
0.00110634
0.00110619
0.00110676
0.0011069
0.00110741
0.00110774
0.00110823
0.00110864
0.00110834
0.00110881
0.00110867
0.00110868
0.00110874
0.00110889
0.00110903
0.00110926
0.00110941
0.00110969
0.00110979
0.00110977
0.00111015
0.0011106
0.00111073
0.00111085
0.00111114
0.00111143
0.0011113
0.00111151
0.0011117
0.00111227
0.00111236
0.00111242
0.00111207
0.00111208
0.00111327
0.00111393
0.00111386
0.00111493
0.00111778
0.001118
0.00111063
0.0011124
0.00111611
0.00111316
0.00111949
0.001151
0.00116956
0.00115878
0.00118198
0.00115439
0.00114448
0.00113787
0.00113276
0.00112999
0.00112869
0.00112798
0.00112709
0.00112645
0.00112605
0.00112561
0.00112515
0.00112492
0.00112476
0.00112443
0.00112386
0.0011231
0.00112237
0.00112175
0.00112138
0.00112129
0.00112142
0.00112169
0.00112194
0.00112202
0.00112187
0.0011215
0.00112101
0.00112048
0.00112002
0.0011197
0.00111957
0.00111959
0.0011198
0.00111992
0.00111986
0.00111961
0.00111926
0.00111893
0.00111876
0.00111883
0.00111911
0.00111947
0.00111975
0.00111987
0.00111989
0.00111995
0.00112013
0.00112043
0.00112067
0.00112064
0.00112033
0.00111999
0.00111981
0.00111995
0.00112052
0.00112126
0.00112187
0.00112285
0.00112361
0.0011236
0.0011235
0.0011228
0.00112267
0.00112396
0.00112495
0.00112459
0.00112258
0.00112233
0.00112492
0.00112618
0.00112426
0.00112296
0.00112597
0.00112719
0.00112462
0.00112415
0.0011256
0.00112024
0.00111045
0.00111683
0.00145954
0.00148832
0.00141136
0.00146718
0.00159297
0.0017147
0.00190002
0.002207
0.00262886
0.00310062
0.00355577
0.00397771
0.00436558
0.00469733
0.00494289
0.00511093
0.00523323
0.00532376
0.0053893
0.00544736
0.00550249
0.00555001
0.00557452
0.00559486
0.00564903
0.00574357
0.00584205
0.00588971
0.0058862
0.00590481
0.00595247
0.0059901
0.00600526
0.0060162
0.00609288
0.00620806
0.00626617
0.00624221
0.00616351
0.00609085
0.00604818
0.00598252
0.00588179
0.00578495
0.00574282
0.00573097
0.00568044
0.0055703
0.00543294
0.00531026
0.00522233
0.00517295
0.00514756
0.00509365
0.00499085
0.00487619
0.0047824
0.00468716
0.00455619
0.0044537
0.00448209
0.00467141
0.00487864
0.00497341
0.00508293
0.00532741
0.0056243
0.00580666
0.00592047
0.00599868
0.00608226
0.00625164
0.00669389
0.00751268
0.00862645
0.0101814
0.0125955
0.0173395
0.0259698
0.0351514
0.0458665
0.0523846
0.0522142
0.0491535
0.0395527
0.0282054
0.020798
0.0187331
0.0182902
0.0148024
0.010701
0.00614424
0.00368208
0.00223223
0.0016046
0.00139181
0.00132318
0.00130918
0.00134662
0.00137043
0.00135221
0.00135841
0.00137709
0.00138676
0.00140131
0.00143235
0.00146016
0.00149575
0.0016103
0.00169023
0.00154659
0.00142877
0.00130645
0.00125234
0.00118917
0.00115635
0.0011446
0.00113965
0.00113707
0.00114532
0.0011516
0.00117003
0.00119016
0.00121922
0.00122729
0.00131839
0.00135286
0.00125688
0.00120152
0.0011511
0.00113266
0.00111402
0.00110495
0.00110447
0.00110452
0.00110282
0.00109723
0.00109595
0.00109987
0.00110202
0.00110103
0.00109803
0.00109687
0.00109875
0.0010993
0.00109957
0.00110024
0.0010987
0.00109681
0.00109693
0.0010979
0.00109677
0.00109696
0.00109907
0.00109796
0.00109495
0.00109315
0.00109372
0.00109524
0.00109397
0.00109191
0.00109363
0.00109479
0.00109397
0.00109156
0.00109039
0.00109216
0.00109232
0.00109081
0.00108919
0.00109022
0.00109028
0.00108773
0.00108781
0.00108835
0.00108755
0.00108568
0.00108469
0.00108525
0.00108471
0.00108384
0.00108253
0.0010818
0.00108067
0.00107907
0.00107825
0.00107807
0.00107738
0.001076
0.00107443
0.00107344
0.0010723
0.00107163
0.00107015
0.00106749
0.00106574
0.00106579
0.00106525
0.0010641
0.00106197
0.00106011
0.00105918
0.00105797
0.00105724
0.00105613
0.0010548
0.00105231
0.00104988
0.00104994
0.00104952
0.00104779
0.00104593
0.00104522
0.00104416
0.00104288
0.00104127
0.00104022
0.00103936
0.00103801
0.00103676
0.00103617
0.00103587
0.00103448
0.00103289
0.00103193
0.00103133
0.00103104
0.0010305
0.00102988
0.00102899
0.00102811
0.00102785
0.00102781
0.00102726
0.00102642
0.00102628
0.00102613
0.00102592
0.00102596
0.00102562
0.00102525
0.00102519
0.00102524
0.00102524
0.00102513
0.00102489
0.00102497
0.00102524
0.00102504
0.00102493
0.00102501
0.00102506
0.00102498
0.00102492
0.00102492
0.00102486
0.00102477
0.00102474
0.0010248
0.00102468
0.00102452
0.00102444
0.00102438
0.00102431
0.0010242
0.00102405
0.0010239
0.00102373
0.00102353
0.00102335
0.00102323
0.00102316
0.00102309
0.00102289
0.00102263
0.00102242
0.00102219
0.00102198
0.00102179
0.00102162
0.00102144
0.00102125
0.00102103
0.00102078
0.00102054
0.00102032
0.00102008
0.00101984
0.0010196
0.00101936
0.00101914
0.00101893
0.00101873
0.00101853
0.00101832
0.00101812
0.00101791
0.00101771
0.00101751
0.0010173
0.00101709
0.00101687
0.00101665
0.00101643
0.00101621
0.00101598
0.00101576
0.00101555
0.00101533
0.00101513
0.00101493
0.00101475
0.00101456
0.00101439
0.00101423
0.00101407
0.00101391
0.00101376
0.00101361
0.00101346
0.00101331
0.00101318
0.00101306
0.00101294
0.00101284
0.00101273
0.00101265
0.00101258
0.00101252
0.00101245
0.00101238
0.00101231
0.00101223
0.00101215
0.00101207
0.00101198
0.00101192
0.00101187
0.00101183
0.00101179
0.00101176
0.00101173
0.0010117
0.00101167
0.00101164
0.00101159
0.00101155
0.0010115
0.00101145
0.00101141
0.00101137
0.00101134
0.00101131
0.00101129
0.00101126
0.00101124
0.0010112
0.00101117
0.00101112
0.00101107
0.00101101
0.00101096
0.00101091
0.00101087
0.00101082
0.00101078
0.00101074
0.00101068
0.00101061
0.00101055
0.00101047
0.0010104
0.00101033
0.00101026
0.00101019
0.00101013
0.00101006
0.00100999
0.0010099
0.00100981
0.00100971
0.00100962
0.00100954
0.00100946
0.00100937
0.00100929
0.00100919
0.00100909
0.00100899
0.00100888
0.00100878
0.00100868
0.00100859
0.00100851
0.00100842
0.00100833
0.00100823
0.00100813
0.00100801
0.00100791
0.00100781
0.00100772
0.00100763
0.00100753
0.00100743
0.00100736
0.00100723
0.00100718
0.00100701
0.00100679
0.00100664
0.00100653
0.00100663
0.00100651
0.00100698
0.00100669
0.00100546
0.00100527
0.00100491
0.00100472
0.00100301
0.00100301
0.00100467
0.00100469
0.00100522
0.00100526
0.00100596
0.00100586
0.00100529
0.00100527
0.00100506
0.00100508
0.00100492
0.00100451
0.00100437
0.00100438
0.00100411
0.00100401
0.00100343
0.0010034
0.00100402
0.00100397
0.00100409
0.00100399
0.00100432
0.00100414
0.0010043
0.00100404
0.00100355
0.00100336
0.00100418
0.00100377
0.00100681
0.00100534
0.00100278
0.00100556
0.00100425
0.0010107
0.00101094
0.00102689
0.00102665
0.00101038
0.00101176
0.00101142
0.00101056
0.00100955
0.00100951
0.00100685
0.00100619
0.00100537
0.00100477
0.0010043
0.00100372
0.00100323
0.00100285
0.00100256
0.00100233
0.00100218
0.00100211
0.00100206
0.00100203
0.00100202
0.00100202
0.00100204
0.00100207
0.0010021
0.00100212
0.00100214
0.00100215
0.00100216
0.00100217
0.00100218
0.00100221
0.00100224
0.00100228
0.00100232
0.00100235
0.00100238
0.00100238
0.00100237
0.00100234
0.00100231
0.0010023
0.00100229
0.0010023
0.00100232
0.00100235
0.00100237
0.00100237
0.00100237
0.00100235
0.00100234
0.00100234
0.00100235
0.00100236
0.00100235
0.00100233
0.0010023
0.00100228
0.00100229
0.00100232
0.00100234
0.00100234
0.00100231
0.00100226
0.00100221
0.00100218
0.00100217
0.00100218
0.00100222
0.00100228
0.00100227
0.00100218
0.00100214
0.00100219
0.00100232
0.00100231
0.00100212
0.00100209
0.00100214
0.00100215
0.00100203
0.00100206
0.00100215
0.00100221
0.00100224
0.00100245
0.00100176
0.00100506
0.00100223
0.00146114
0.00148867
0.00141102
0.00146021
0.00156702
0.00164902
0.00176393
0.00195891
0.00222109
0.00249564
0.00273086
0.00291917
0.00306261
0.00314836
0.00316834
0.00314077
0.00309217
0.00303737
0.00298219
0.00293351
0.00289434
0.00286257
0.00283555
0.00281568
0.00280917
0.00281282
0.00281613
0.00280643
0.00278847
0.00277944
0.00278066
0.00277958
0.00276766
0.00275007
0.00274869
0.00276278
0.0027727
0.00276317
0.00273585
0.00270679
0.00268629
0.00266791
0.00264626
0.00262174
0.00260542
0.00259424
0.00257726
0.00255307
0.00252584
0.00249801
0.00247176
0.00245357
0.00244398
0.00242882
0.00240028
0.00237192
0.00234734
0.00231568
0.00227881
0.00225687
0.00226286
0.0022812
0.00228373
0.00228087
0.00230945
0.00237362
0.00242947
0.00245764
0.00248736
0.00251831
0.00254198
0.00256788
0.00262934
0.00275931
0.00295344
0.00320906
0.00359224
0.00431874
0.00570363
0.00747671
0.00959971
0.011256
0.01154
0.0113661
0.0101383
0.00838513
0.00726772
0.00717444
0.00774023
0.00825006
0.0119845
0.0148217
0.0128131
0.00946721
0.00546144
0.00330172
0.0020296
0.00149123
0.0013011
0.00123391
0.00120687
0.00120016
0.00117813
0.00116498
0.00116469
0.00116688
0.00118432
0.00124239
0.00129053
0.00136447
0.00139474
0.0015333
0.00160963
0.00147102
0.00136724
0.00126191
0.00121303
0.00115381
0.00112241
0.00110901
0.00110751
0.00110898
0.00110803
0.00110971
0.00113146
0.00114773
0.00118025
0.00119807
0.00129162
0.00132464
0.0012299
0.00117795
0.00112886
0.00110942
0.00109547
0.00109227
0.00109063
0.00108891
0.00108847
0.0010844
0.00108042
0.00108105
0.00108292
0.00108211
0.00108133
0.0010821
0.00108267
0.00108095
0.00107888
0.00107966
0.00108057
0.00107993
0.0010815
0.00108099
0.00107904
0.00107746
0.00107808
0.00108101
0.00108117
0.00107829
0.00107575
0.00107736
0.00108027
0.00107837
0.0010746
0.00107568
0.00107883
0.00107808
0.00107449
0.00107272
0.00107571
0.00107712
0.00107353
0.00107196
0.00107451
0.00107394
0.0010716
0.00107139
0.00107283
0.00107223
0.00107014
0.00107024
0.00106981
0.00106821
0.00106734
0.00106798
0.00106893
0.00106656
0.0010645
0.00106442
0.00106402
0.00106262
0.0010615
0.00106185
0.00106177
0.00105925
0.00105713
0.00105674
0.00105714
0.00105644
0.0010545
0.0010529
0.00105198
0.00105233
0.00105144
0.00104949
0.00104759
0.0010463
0.00104647
0.00104596
0.0010442
0.00104267
0.00104206
0.00104112
0.00104037
0.00103955
0.00103834
0.00103716
0.00103558
0.0010353
0.00103512
0.00103406
0.00103339
0.001032
0.00103115
0.00103043
0.00102978
0.00102975
0.00102923
0.0010286
0.00102794
0.0010272
0.00102714
0.00102706
0.00102625
0.00102574
0.00102577
0.00102566
0.00102563
0.00102551
0.00102515
0.00102499
0.00102499
0.00102496
0.00102501
0.00102471
0.0010248
0.00102496
0.00102473
0.00102463
0.00102467
0.0010247
0.00102466
0.00102455
0.00102448
0.00102449
0.00102443
0.00102436
0.00102438
0.00102426
0.00102407
0.00102392
0.00102386
0.00102378
0.00102366
0.00102352
0.0010234
0.00102323
0.00102303
0.00102283
0.00102272
0.00102263
0.00102246
0.00102225
0.00102209
0.00102192
0.00102169
0.00102146
0.00102127
0.00102108
0.00102089
0.00102069
0.00102045
0.00102019
0.00101994
0.0010197
0.00101946
0.00101921
0.00101896
0.00101873
0.0010185
0.00101828
0.00101807
0.00101787
0.00101766
0.00101746
0.00101726
0.00101707
0.00101687
0.00101666
0.00101645
0.00101623
0.00101602
0.00101579
0.00101556
0.00101533
0.00101511
0.00101488
0.00101466
0.00101445
0.00101425
0.00101405
0.00101387
0.00101369
0.00101352
0.00101336
0.0010132
0.00101304
0.00101288
0.00101273
0.00101258
0.00101244
0.00101233
0.00101222
0.00101212
0.00101201
0.00101193
0.00101186
0.00101179
0.00101172
0.00101163
0.00101155
0.00101147
0.00101139
0.00101129
0.00101121
0.00101114
0.00101109
0.00101105
0.00101102
0.00101098
0.00101094
0.00101091
0.00101087
0.00101083
0.00101079
0.00101074
0.00101069
0.00101065
0.0010106
0.00101057
0.00101053
0.0010105
0.00101047
0.00101044
0.0010104
0.00101035
0.00101031
0.00101026
0.00101021
0.00101016
0.00101011
0.00101006
0.00101002
0.00100997
0.00100992
0.00100987
0.0010098
0.00100974
0.00100967
0.00100959
0.00100951
0.00100944
0.00100937
0.0010093
0.00100922
0.00100913
0.00100905
0.00100896
0.00100887
0.00100878
0.00100869
0.00100861
0.00100852
0.00100842
0.00100832
0.00100822
0.0010081
0.001008
0.00100789
0.00100779
0.00100769
0.0010076
0.00100751
0.00100741
0.00100731
0.00100721
0.0010071
0.001007
0.00100689
0.00100678
0.00100668
0.00100662
0.00100649
0.00100644
0.00100628
0.00100602
0.0010059
0.00100593
0.00100582
0.00100572
0.0010062
0.00100587
0.00100448
0.00100428
0.001004
0.00100377
0.00100198
0.00100199
0.00100371
0.00100369
0.00100415
0.00100425
0.0010051
0.001005
0.00100442
0.00100438
0.0010042
0.00100427
0.00100416
0.00100365
0.00100346
0.00100326
0.00100309
0.00100231
0.00100233
0.0010029
0.00100288
0.00100302
0.00100289
0.0010029
0.00100329
0.00100314
0.00100324
0.0010029
0.00100238
0.00100214
0.00100299
0.00100269
0.00100574
0.00100434
0.00100451
0.00100293
0.00100929
0.00100987
0.00101447
0.00102892
0.0010286
0.00100982
0.00101062
0.00101026
0.00100921
0.00100815
0.00100618
0.00100304
0.00100213
0.00100283
0.00100316
0.00100348
0.00100332
0.00100289
0.0010024
0.00100197
0.00100162
0.00100135
0.00100113
0.00100094
0.00100078
0.00100066
0.00100057
0.00100051
0.00100048
0.00100049
0.00100051
0.00100053
0.00100055
0.00100056
0.00100056
0.00100055
0.00100055
0.00100055
0.00100057
0.0010006
0.00100064
0.0010007
0.00100075
0.00100078
0.0010008
0.00100079
0.00100077
0.00100074
0.00100071
0.0010007
0.0010007
0.00100071
0.00100073
0.00100075
0.00100077
0.00100077
0.00100076
0.00100075
0.00100074
0.00100074
0.00100075
0.00100076
0.00100074
0.0010007
0.00100067
0.00100066
0.0010007
0.00100073
0.00100073
0.0010007
0.00100064
0.00100057
0.00100052
0.0010005
0.0010005
0.00100052
0.00100055
0.00100055
0.00100049
0.00100044
0.00100049
0.00100064
0.00100067
0.00100045
0.00100031
0.00100038
0.00100052
0.00100034
0.00100022
0.00100033
0.00100046
0.00100036
0.00100044
0.00100076
0.00100012
0.00100399
0.00100075
0.00146314
0.00148985
0.00141425
0.00146597
0.00157532
0.00165622
0.00176662
0.00195318
0.00220454
0.002466
0.0026885
0.00286179
0.00298202
0.0030356
0.00301947
0.00295569
0.00287638
0.00279679
0.00271795
0.00264238
0.00257651
0.002525
0.00248769
0.00245994
0.00244001
0.00242446
0.00240738
0.00238627
0.00236638
0.00235121
0.00234059
0.00232964
0.00231552
0.00229734
0.00228173
0.00226979
0.00225727
0.00224268
0.0022259
0.00220745
0.00218977
0.00217768
0.00217213
0.00216513
0.00215583
0.00214738
0.00214293
0.00213873
0.00212836
0.00211041
0.00209122
0.00207846
0.00207089
0.0020603
0.00204172
0.00202408
0.00201071
0.00199557
0.00197905
0.00196951
0.00196642
0.00195498
0.00193271
0.00191923
0.0019273
0.00194276
0.00194738
0.00195244
0.00196579
0.00197405
0.00197848
0.00198577
0.00199784
0.00201844
0.00204473
0.00207252
0.002115
0.00219486
0.00235306
0.00259657
0.00290591
0.00318534
0.00329309
0.00328911
0.00314567