/*--------------------------------*- C++ -*----------------------------------*\
| =========                 |                                                 |
| \\      /  F ield         | OpenFOAM: The Open Source CFD Toolbox           |
|  \\    /   O peration     | Version:  v2006                                 |
|   \\  /    A nd           | Website:  www.openfoam.com                      |
|    \\/     M anipulation  |                                                 |
\*---------------------------------------------------------------------------*/
FoamFile
{
    version     2.0;
    format      ascii;
    class       volScalarField;
    location    "3";
    object      p;
}
// * * * * * * * * * * * * * * * * * * * * * * * * * * * * * * * * * * * * * //

dimensions      [1 -1 -2 0 0 0 0];


internalField   nonuniform List<scalar> 
33000
(
7918.41
7934.81
7944.55
7953.95
7963.63
7973.36
7983.14
7992.86
8002.46
8011.97
8021.44
8030.86
8040.2
8049.44
8058.59
8067.66
8076.64
8085.53
8094.31
8102.98
8111.54
8120
8128.35
8136.6
8144.73
8152.74
8160.61
8168.36
8176.01
8183.55
8190.95
8198.2
8205.32
8212.31
8219.15
8225.85
8232.42
8238.86
8245.16
8251.31
8257.31
8263.16
8268.87
8274.43
8279.85
8285.09
8290.17
8295.11
8299.91
8304.57
8309.06
8313.37
8317.51
8321.53
8325.4
8329.11
8332.66
8336.07
8339.32
8342.42
8345.37
8348.17
8350.87
8353.41
8355.79
8358.03
8360.21
8362.26
8364.19
8366.03
8367.82
8369.56
8371.31
8373.05
8374.9
8376.84
8378.71
8379.9
8375.83
8364.44
8371.79
8370.04
8368.18
8367.76
8366.24
8363.38
8362.48
8361.06
8359.21
8357.2
8355.26
8353.08
8350.82
8348.66
8346.55
8344.42
8342.8
8340.77
8340.79
8337.35
8329.25
8324.98
8319.81
8314.39
8309.36
8303.6
8297.44
8291.25
8285.17
8279.02
8272.8
8266.58
8260.32
8253.99
8247.94
8241.68
8236.82
8229.84
8220.27
8212.69
8204.56
8196.23
8188.07
8179.6
8170.84
8162.14
8153.42
8144.64
8135.89
8127.14
8118.4
8109.7
8101.05
8092.46
8083.95
8075.54
8067.2
8058.95
8050.81
8042.77
8034.83
8027
8019.29
8011.71
8004.23
7996.89
7989.68
7982.61
7975.67
7968.86
7962.2
7955.67
7949.3
7943.08
7936.98
7931.03
7925.23
7919.58
7914.06
7908.68
7903.44
7898.34
7893.37
7888.52
7883.81
7879.22
7874.76
7870.41
7866.18
7862.06
7858.06
7854.17
7850.39
7846.7
7843.12
7839.64
7836.25
7832.96
7829.75
7826.63
7823.6
7820.65
7817.77
7814.97
7812.24
7809.58
7807
7804.47
7802.01
7799.61
7797.28
7794.99
7792.77
7790.6
7788.48
7786.41
7784.39
7782.41
7780.48
7778.59
7776.74
7774.93
7773.15
7771.41
7769.71
7768.04
7766.4
7764.78
7763.21
7761.65
7760.13
7758.63
7757.15
7755.7
7754.28
7752.88
7751.49
7750.13
7748.79
7747.46
7746.16
7744.87
7743.6
7742.35
7741.12
7739.91
7738.71
7737.54
7736.38
7735.24
7734.12
7733.01
7731.93
7730.86
7729.82
7728.79
7727.78
7726.79
7725.82
7724.86
7723.93
7723.02
7722.12
7721.25
7720.39
7719.55
7718.73
7717.94
7717.16
7716.4
7715.65
7714.93
7714.23
7713.54
7712.88
7712.23
7711.6
7711
7710.4
7709.83
7709.28
7708.75
7708.23
7707.73
7707.25
7706.79
7706.35
7705.92
7705.51
7705.12
7704.75
7704.39
7704.05
7703.73
7703.42
7703.13
7702.86
7702.61
7702.37
7702.14
7701.93
7701.74
7701.57
7701.41
7701.26
7701.13
7701.01
7700.91
7700.83
7700.75
7700.7
7700.65
7700.62
7700.61
7700.6
7700.61
7700.63
7700.67
7700.72
7700.78
7700.85
7700.94
7701.03
7701.14
7701.26
7701.39
7701.53
7701.68
7701.85
7702.02
7702.2
7702.39
7702.59
7702.8
7703.02
7703.25
7703.49
7703.73
7703.98
7704.24
7704.5
7704.77
7705.05
7705.34
7705.63
7705.92
7706.22
7706.53
7706.84
7707.15
7707.47
7707.8
7708.12
7708.45
7708.78
7709.12
7709.45
7709.79
7710.13
7710.47
7710.81
7711.16
7711.5
7711.84
7712.19
7712.53
7712.87
7713.22
7713.56
7713.9
7714.24
7714.58
7714.92
7715.25
7715.58
7715.92
7716.25
7716.57
7716.9
7717.22
7717.54
7717.86
7718.17
7718.48
7718.79
7719.09
7719.4
7719.7
7719.99
7720.28
7720.57
7720.86
7721.14
7721.42
7721.7
7721.97
7722.24
7722.5
7722.76
7723.02
7723.27
7723.53
7723.77
7724.02
7724.26
7724.49
7724.73
7724.96
7725.19
7725.41
7725.63
7725.85
7726.06
7726.27
7726.48
7726.68
7726.88
7727.08
7727.28
7727.47
7727.66
7727.85
7728.03
7728.21
7728.39
7728.56
7728.73
7728.9
7729.07
7729.23
7729.4
7729.56
7729.71
7729.87
7730.02
7730.17
7730.32
7730.46
7730.6
7730.74
7730.88
7731.02
7731.15
7731.28
7731.41
7731.54
7731.66
7731.79
7731.91
7732.03
7732.15
7732.25
7732.36
7732.46
7732.57
7732.68
7732.78
7732.89
7732.99
7733.1
7733.2
7733.3
7733.4
7733.5
7733.6
7733.69
7733.79
7733.88
7733.98
7734.06
7734.15
7734.24
7734.33
7734.41
7734.5
7734.58
7734.67
7734.75
7734.83
7734.91
7734.99
7735.06
7735.14
7735.22
7735.29
7735.36
7735.43
7735.48
7735.56
7735.6
7735.63
7735.67
7735.72
7735.78
7735.83
7735.89
7735.95
7736.01
7736.07
7736.13
7736.19
7736.25
7736.31
7736.36
7736.42
7736.48
7736.54
7736.6
7736.66
7736.71
7736.77
7736.83
7736.88
7736.94
7737
7737.05
7737.11
7737.16
7737.22
7737.27
7737.32
7737.38
7737.43
7737.48
7737.53
7737.59
7737.64
7737.69
7737.74
7737.79
7737.84
7737.88
7737.93
7737.98
7738.03
7738.08
7738.12
7738.17
7738.21
7738.26
7738.3
7738.35
7738.39
7738.43
7738.48
7738.52
7738.56
7738.6
7738.64
7738.69
7738.73
7738.77
7738.81
7738.84
7738.88
7738.92
7738.96
7739
7739.03
7739.07
7739.1
7739.14
7739.17
7739.21
7739.24
7739.28
7739.31
7739.34
7739.37
7739.42
7722.18
7738.61
7748.37
7757.77
7767.45
7777.18
7786.97
7796.69
7806.29
7815.82
7825.29
7834.73
7844.1
7853.35
7862.51
7871.59
7880.58
7889.47
7898.26
7906.95
7915.54
7924.02
7932.38
7940.64
7948.78
7956.81
7964.71
7972.48
7980.14
7987.67
7995.07
8002.33
8009.46
8016.47
8023.35
8030.06
8036.62
8043.04
8049.35
8055.53
8061.54
8067.4
8073.09
8078.65
8084.09
8089.35
8094.43
8099.36
8104.15
8108.8
8113.29
8117.6
8121.75
8125.75
8129.61
8133.31
8136.86
8140.27
8143.52
8146.61
8149.56
8152.41
8155.07
8157.58
8159.94
8162.17
8164.31
8166.35
8168.24
8170.02
8171.72
8173.33
8174.84
8176.23
8177.45
8178.41
8179.01
8179.18
8179.02
8180.08
8181.85
8177.06
8162.63
8171.33
8170.5
8167.97
8167.59
8165.9
8163.92
8160.54
8159.12
8156.91
8154.55
8152.34
8149.92
8147.35
8144.99
8142.36
8139.8
8136.81
8133.04
8132.72
8127.96
8118.17
8112.67
8106.5
8100.92
8095.19
8089.71
8083.69
8077.08
8070.61
8064.13
8057.58
8051.18
8044.62
8038.08
8031.31
8024
8018.51
8010.67
8000.24
7991.83
7983.18
7974.61
7966.26
7957.6
7948.64
7939.82
7931.02
7922.25
7913.56
7904.9
7896.3
7887.77
7879.32
7870.98
7862.72
7854.57
7846.52
7838.57
7830.74
7823.02
7815.42
7807.94
7800.59
7793.37
7786.29
7779.33
7772.52
7765.86
7759.33
7752.95
7746.71
7740.62
7734.67
7728.87
7723.21
7717.69
7712.31
7707.07
7701.96
7696.99
7692.15
7687.44
7682.85
7678.39
7674.04
7669.81
7665.7
7661.7
7657.82
7654.03
7650.35
7646.78
7643.3
7639.91
7636.62
7633.42
7630.31
7627.27
7624.32
7621.45
7618.65
7615.93
7613.27
7610.69
7608.17
7605.71
7603.31
7600.98
7598.7
7596.48
7594.32
7592.2
7590.13
7588.11
7586.14
7584.21
7582.32
7580.47
7578.66
7576.89
7575.15
7573.45
7571.78
7570.14
7568.53
7566.96
7565.41
7563.88
7562.38
7560.91
7559.46
7558.04
7556.64
7555.25
7553.89
7552.55
7551.23
7549.92
7548.64
7547.37
7546.12
7544.89
7543.67
7542.48
7541.3
7540.14
7539
7537.88
7536.78
7535.69
7534.63
7533.58
7532.55
7531.54
7530.55
7529.58
7528.63
7527.7
7526.78
7525.89
7525.01
7524.16
7523.32
7522.5
7521.7
7520.92
7520.16
7519.42
7518.7
7517.99
7517.31
7516.64
7516
7515.37
7514.76
7514.17
7513.6
7513.05
7512.51
7511.99
7511.5
7511.02
7510.56
7510.11
7509.69
7509.28
7508.89
7508.51
7508.16
7507.82
7507.49
7507.19
7506.9
7506.63
7506.37
7506.13
7505.91
7505.7
7505.51
7505.34
7505.18
7505.03
7504.9
7504.78
7504.68
7504.6
7504.53
7504.47
7504.42
7504.39
7504.38
7504.37
7504.38
7504.41
7504.44
7504.49
7504.55
7504.63
7504.71
7504.81
7504.92
7505.04
7505.17
7505.31
7505.46
7505.63
7505.8
7505.98
7506.17
7506.37
7506.58
7506.8
7507.03
7507.27
7507.51
7507.76
7508.02
7508.29
7508.56
7508.84
7509.12
7509.41
7509.71
7510.01
7510.32
7510.63
7510.94
7511.26
7511.59
7511.91
7512.24
7512.57
7512.91
7513.25
7513.58
7513.92
7514.27
7514.61
7514.95
7515.3
7515.64
7515.98
7516.33
7516.67
7517.02
7517.36
7517.7
7518.04
7518.38
7518.72
7519.05
7519.39
7519.72
7520.05
7520.38
7520.7
7521.02
7521.34
7521.66
7521.97
7522.29
7522.59
7522.9
7523.2
7523.5
7523.8
7524.09
7524.38
7524.66
7524.95
7525.23
7525.5
7525.77
7526.04
7526.31
7526.57
7526.83
7527.08
7527.33
7527.58
7527.82
7528.06
7528.3
7528.53
7528.76
7528.99
7529.21
7529.44
7529.65
7529.87
7530.08
7530.28
7530.49
7530.69
7530.89
7531.08
7531.28
7531.46
7531.65
7531.83
7532.01
7532.19
7532.37
7532.54
7532.71
7532.87
7533.04
7533.2
7533.36
7533.52
7533.67
7533.82
7533.97
7534.12
7534.26
7534.41
7534.55
7534.69
7534.82
7534.96
7535.09
7535.22
7535.34
7535.48
7535.6
7535.71
7535.82
7535.93
7536.04
7536.15
7536.26
7536.37
7536.48
7536.58
7536.69
7536.79
7536.9
7537
7537.1
7537.2
7537.3
7537.4
7537.5
7537.59
7537.68
7537.77
7537.86
7537.95
7538.04
7538.13
7538.21
7538.3
7538.38
7538.46
7538.55
7538.63
7538.71
7538.79
7538.86
7538.93
7539.01
7539.08
7539.2
7539.26
7539.31
7539.38
7539.44
7539.49
7539.54
7539.59
7539.64
7539.7
7539.75
7539.8
7539.85
7539.91
7539.96
7540.02
7540.08
7540.14
7540.19
7540.25
7540.31
7540.36
7540.42
7540.47
7540.53
7540.59
7540.64
7540.7
7540.75
7540.81
7540.86
7540.92
7540.97
7541.02
7541.08
7541.13
7541.18
7541.23
7541.29
7541.34
7541.39
7541.44
7541.49
7541.54
7541.59
7541.64
7541.69
7541.73
7541.78
7541.83
7541.88
7541.92
7541.97
7542.01
7542.06
7542.1
7542.15
7542.19
7542.24
7542.28
7542.32
7542.36
7542.41
7542.45
7542.49
7542.53
7542.57
7542.61
7542.65
7542.68
7542.72
7542.76
7542.8
7542.83
7542.87
7542.91
7542.94
7542.98
7543.01
7543.04
7543.08
7543.11
7543.14
7543.17
7543.22
7525.88
7542.34
7552.14
7561.58
7571.29
7581.06
7590.87
7600.62
7610.25
7619.79
7629.28
7638.74
7648.13
7657.4
7666.58
7675.67
7684.67
7693.58
7702.39
7711.1
7719.71
7728.21
7736.6
7744.88
7753.04
7761.09
7769.02
7776.83
7784.51
7792.06
7799.47
7806.76
7813.91
7820.94
7827.85
7834.58
7841.16
7847.6
7853.91
7860.09
7866.13
7872
7877.71
7883.26
7888.69
7893.95
7899.05
7904.01
7908.79
7913.41
7917.89
7922.22
7926.39
7930.38
7934.22
7937.92
7941.48
7944.88
7948.11
7951.21
7954.15
7956.96
7959.59
7962.08
7964.43
7966.65
7968.74
7970.71
7972.52
7974.22
7975.79
7977.22
7978.52
7979.68
7980.62
7981.36
7981.87
7982.11
7981.98
7981.29
7980.27
7979.45
7980.8
7983.09
7978.13
7961.72
7969.7
7970.61
7968.09
7965.94
7964.33
7961.84
7957.9
7956.03
7953.52
7950.78
7948.23
7945.23
7942.1
7938.61
7934.61
7930.55
7926.65
7922.22
7921.43
7915.85
7905.35
7898.86
7892.52
7886.73
7880.59
7874.88
7868.49
7861.65
7854.89
7848.06
7841.22
7834.15
7826.67
7819.16
7811.64
7803.87
7797.92
7789.65
7778.83
7770.06
7761.17
7752.42
7743.92
7735.16
7726.23
7717.45
7708.73
7700.1
7691.56
7683.12
7674.76
7666.48
7658.3
7650.23
7642.25
7634.4
7626.67
7619.04
7611.54
7604.17
7596.94
7589.83
7582.87
7576.04
7569.36
7562.83
7556.43
7550.18
7544.08
7538.13
7532.32
7526.66
7521.13
7515.75
7510.51
7505.4
7500.43
7495.59
7490.88
7486.29
7481.83
7477.49
7473.27
7469.17
7465.17
7461.29
7457.52
7453.84
7450.27
7446.8
7443.42
7440.14
7436.94
7433.83
7430.8
7427.86
7424.99
7422.2
7419.48
7416.84
7414.26
7411.75
7409.3
7406.91
7404.58
7402.31
7400.1
7397.94
7395.83
7393.77
7391.75
7389.78
7387.86
7385.98
7384.13
7382.33
7380.56
7378.83
7377.13
7375.46
7373.83
7372.23
7370.65
7369.1
7367.58
7366.09
7364.62
7363.17
7361.75
7360.35
7358.97
7357.61
7356.27
7354.95
7353.64
7352.36
7351.09
7349.84
7348.61
7347.4
7346.2
7345.03
7343.87
7342.73
7341.61
7340.5
7339.42
7338.35
7337.31
7336.28
7335.27
7334.28
7333.31
7332.35
7331.42
7330.51
7329.61
7328.74
7327.88
7327.04
7326.22
7325.43
7324.65
7323.88
7323.14
7322.42
7321.72
7321.03
7320.37
7319.72
7319.09
7318.48
7317.89
7317.32
7316.77
7316.24
7315.72
7315.22
7314.74
7314.28
7313.84
7313.41
7313
7312.61
7312.24
7311.88
7311.55
7311.22
7310.92
7310.63
7310.36
7310.11
7309.87
7309.64
7309.44
7309.25
7309.07
7308.91
7308.77
7308.64
7308.52
7308.42
7308.34
7308.26
7308.21
7308.16
7308.13
7308.12
7308.12
7308.13
7308.15
7308.19
7308.24
7308.3
7308.37
7308.46
7308.56
7308.67
7308.79
7308.92
7309.06
7309.22
7309.38
7309.55
7309.74
7309.93
7310.13
7310.34
7310.56
7310.79
7311.03
7311.27
7311.53
7311.79
7312.05
7312.33
7312.61
7312.89
7313.19
7313.48
7313.79
7314.09
7314.41
7314.72
7315.04
7315.37
7315.69
7316.02
7316.36
7316.69
7317.03
7317.37
7317.71
7318.05
7318.4
7318.74
7319.09
7319.43
7319.78
7320.12
7320.47
7320.81
7321.16
7321.5
7321.84
7322.18
7322.52
7322.85
7323.19
7323.52
7323.85
7324.18
7324.5
7324.83
7325.15
7325.47
7325.78
7326.09
7326.4
7326.71
7327.01
7327.31
7327.6
7327.9
7328.19
7328.47
7328.76
7329.03
7329.31
7329.58
7329.85
7330.12
7330.38
7330.64
7330.89
7331.14
7331.39
7331.63
7331.87
7332.11
7332.34
7332.57
7332.8
7333.03
7333.25
7333.46
7333.68
7333.89
7334.09
7334.3
7334.5
7334.7
7334.89
7335.09
7335.27
7335.46
7335.64
7335.82
7336
7336.18
7336.35
7336.52
7336.68
7336.85
7337.01
7337.17
7337.33
7337.48
7337.63
7337.78
7337.93
7338.08
7338.22
7338.36
7338.49
7338.63
7338.76
7338.91
7339.03
7339.14
7339.27
7339.38
7339.5
7339.62
7339.73
7339.84
7339.95
7340.06
7340.17
7340.28
7340.39
7340.49
7340.6
7340.7
7340.8
7340.91
7341.01
7341.1
7341.2
7341.3
7341.39
7341.48
7341.58
7341.67
7341.76
7341.84
7341.93
7342.02
7342.11
7342.19
7342.28
7342.36
7342.44
7342.51
7342.6
7342.67
7342.78
7342.84
7342.88
7342.93
7342.98
7343.04
7343.1
7343.16
7343.22
7343.28
7343.33
7343.39
7343.45
7343.51
7343.57
7343.63
7343.69
7343.74
7343.8
7343.86
7343.92
7343.98
7344.03
7344.09
7344.15
7344.21
7344.26
7344.32
7344.38
7344.43
7344.49
7344.55
7344.6
7344.66
7344.71
7344.77
7344.82
7344.87
7344.93
7344.98
7345.03
7345.09
7345.14
7345.19
7345.24
7345.29
7345.34
7345.39
7345.44
7345.49
7345.54
7345.58
7345.63
7345.68
7345.72
7345.77
7345.82
7345.86
7345.91
7345.95
7345.99
7346.04
7346.08
7346.12
7346.17
7346.21
7346.25
7346.29
7346.33
7346.37
7346.41
7346.45
7346.49
7346.52
7346.56
7346.6
7346.63
7346.67
7346.71
7346.74
7346.78
7346.81
7346.85
7346.88
7346.91
7346.95
7346.97
7347.02
7329.55
7346.07
7355.91
7365.38
7375.13
7384.93
7394.78
7404.57
7414.23
7423.8
7433.33
7442.82
7452.23
7461.54
7470.74
7479.87
7488.91
7497.85
7506.69
7515.43
7524.07
7532.6
7541.03
7549.34
7557.53
7565.61
7573.58
7581.41
7589.12
7596.7
7604.14
7611.47
7618.66
7625.7
7632.61
7639.37
7645.99
7652.48
7658.8
7664.98
7671.01
7676.9
7682.63
7688.2
7693.63
7698.89
7704.01
7708.97
7713.77
7718.39
7722.87
7727.2
7731.38
7735.4
7739.23
7742.92
7746.48
7749.86
7753.09
7756.17
7759.1
7761.89
7764.5
7766.97
7769.27
7771.46
7773.49
7775.38
7777.11
7778.7
7780.15
7781.44
7782.58
7783.56
7784.33
7784.89
7785.24
7785.32
7785.11
7784.59
7783.92
7783.02
7781.73
7779.89
7777.81
7778.51
7781.13
7781.52
7775.62
7760.37
7768.05
7766.02
7762.79
7760.92
7757.71
7753.43
7751.01
7747.83
7744.38
7740.92
7736.98
7732.95
7728.59
7723.43
7718.56
7713.04
7708.6
7704.15
7701.97
7696.22
7685.46
7678.74
7671.88
7665.19
7658.87
7651.91
7644.6
7637.26
7629.8
7622.33
7614.64
7606.59
7598.53
7590.55
7582.39
7576.09
7567.52
7556.58
7547.67
7538.78
7529.96
7521.44
7512.73
7503.93
7495.3
7486.76
7478.41
7470.11
7461.94
7453.84
7445.84
7437.95
7430.18
7422.53
7415.01
7407.61
7400.35
7393.23
7386.25
7379.4
7372.7
7366.15
7359.74
7353.48
7347.37
7341.41
7335.6
7329.93
7324.4
7319.01
7313.77
7308.66
7303.69
7298.85
7294.15
7289.57
7285.11
7280.78
7276.56
7272.47
7268.48
7264.6
7260.84
7257.18
7253.61
7250.15
7246.78
7243.5
7240.31
7237.21
7234.19
7231.26
7228.4
7225.62
7222.92
7220.28
7217.71
7215.21
7212.77
7210.4
7208.08
7205.82
7203.62
7201.47
7199.37
7197.32
7195.31
7193.35
7191.43
7189.56
7187.72
7185.92
7184.16
7182.44
7180.75
7179.09
7177.46
7175.86
7174.29
7172.75
7171.23
7169.74
7168.27
7166.83
7165.41
7164.01
7162.63
7161.28
7159.94
7158.62
7157.32
7156.03
7154.77
7153.52
7152.29
7151.08
7149.88
7148.71
7147.55
7146.41
7145.29
7144.18
7143.1
7142.03
7140.99
7139.96
7138.95
7137.96
7136.99
7136.04
7135.1
7134.19
7133.29
7132.42
7131.56
7130.72
7129.91
7129.11
7128.33
7127.56
7126.82
7126.1
7125.4
7124.71
7124.05
7123.4
7122.77
7122.17
7121.58
7121.01
7120.45
7119.92
7119.4
7118.91
7118.43
7117.97
7117.52
7117.1
7116.69
7116.3
7115.93
7115.57
7115.24
7114.92
7114.61
7114.32
7114.05
7113.8
7113.56
7113.34
7113.13
7112.94
7112.77
7112.61
7112.47
7112.34
7112.22
7112.12
7112.04
7111.97
7111.91
7111.87
7111.84
7111.83
7111.83
7111.84
7111.87
7111.9
7111.95
7112.02
7112.09
7112.18
7112.28
7112.39
7112.51
7112.65
7112.79
7112.94
7113.11
7113.28
7113.47
7113.66
7113.87
7114.08
7114.3
7114.53
7114.77
7115.02
7115.27
7115.53
7115.8
7116.08
7116.36
7116.65
7116.94
7117.24
7117.55
7117.86
7118.17
7118.49
7118.81
7119.14
7119.47
7119.8
7120.13
7120.47
7120.81
7121.15
7121.49
7121.84
7122.18
7122.53
7122.88
7123.22
7123.57
7123.92
7124.26
7124.61
7124.95
7125.3
7125.64
7125.98
7126.32
7126.66
7126.99
7127.33
7127.66
7127.99
7128.31
7128.64
7128.96
7129.27
7129.59
7129.9
7130.21
7130.52
7130.82
7131.12
7131.42
7131.71
7132
7132.29
7132.57
7132.85
7133.13
7133.4
7133.67
7133.93
7134.19
7134.45
7134.71
7134.96
7135.2
7135.45
7135.69
7135.93
7136.16
7136.39
7136.62
7136.84
7137.06
7137.28
7137.49
7137.7
7137.91
7138.11
7138.32
7138.51
7138.71
7138.9
7139.09
7139.28
7139.46
7139.64
7139.82
7139.99
7140.16
7140.33
7140.5
7140.66
7140.82
7140.98
7141.14
7141.29
7141.45
7141.59
7141.74
7141.88
7142.03
7142.17
7142.32
7142.45
7142.57
7142.7
7142.82
7142.94
7143.06
7143.18
7143.3
7143.42
7143.53
7143.64
7143.76
7143.87
7143.98
7144.08
7144.19
7144.3
7144.41
7144.51
7144.61
7144.71
7144.81
7144.91
7145.01
7145.1
7145.2
7145.29
7145.38
7145.47
7145.57
7145.65
7145.75
7145.83
7145.91
7145.99
7146.07
7146.16
7146.23
7146.36
7146.43
7146.48
7146.54
7146.61
7146.68
7146.74
7146.81
7146.86
7146.92
7146.98
7147.04
7147.09
7147.15
7147.21
7147.27
7147.32
7147.38
7147.44
7147.5
7147.55
7147.61
7147.67
7147.73
7147.78
7147.84
7147.9
7147.96
7148.01
7148.07
7148.13
7148.18
7148.24
7148.3
7148.35
7148.41
7148.46
7148.52
7148.57
7148.63
7148.68
7148.73
7148.79
7148.84
7148.89
7148.94
7148.99
7149.04
7149.09
7149.14
7149.19
7149.24
7149.29
7149.34
7149.39
7149.43
7149.48
7149.53
7149.57
7149.62
7149.66
7149.71
7149.75
7149.8
7149.84
7149.88
7149.93
7149.97
7150.01
7150.05
7150.09
7150.13
7150.17
7150.21
7150.25
7150.29
7150.33
7150.36
7150.4
7150.44
7150.47
7150.51
7150.55
7150.58
7150.62
7150.65
7150.68
7150.72
7150.75
7150.78
7150.82
7133.19
7149.78
7159.68
7169.2
7179
7188.85
7198.74
7208.57
7218.28
7227.89
7237.46
7246.99
7256.45
7265.79
7275.03
7284.19
7293.27
7302.25
7311.14
7319.92
7328.59
7337.16
7345.63
7353.99
7362.22
7370.34
7378.34
7386.22
7393.96
7401.57
7409.05
7416.41
7423.64
7430.72
7437.65
7444.44
7451.09
7457.6
7463.96
7470.15
7476.2
7482.1
7487.85
7493.45
7498.89
7504.16
7509.29
7514.26
7519.08
7523.73
7528.21
7532.55
7536.74
7540.76
7544.61
7548.29
7551.84
7555.21
7558.44
7561.5
7564.42
7567.15
7569.75
7572.19
7574.46
7576.59
7578.57
7580.38
7582.03
7583.52
7584.86
7586.03
7587.03
7587.86
7588.49
7588.9
7589.1
7589.07
7588.83
7588.37
7587.7
7586.8
7585.73
7584.65
7583.58
7582.42
7581.02
7579.22
7577.68
7578.37
7580.02
7574.04
7556.26
7564.31
7562.29
7557.87
7555.5
7551.8
7546.8
7543.58
7539.55
7535.21
7530.96
7526.27
7521.65
7516.6
7510.99
7505.43
7499.97
7494.86
7489.24
7487.15
7480.57
7469.42
7462.27
7455.02
7447.8
7440.88
7433.33
7425.39
7417.48
7409.54
7401.6
7393.5
7385.05
7376.69
7368.39
7360
7353.44
7344.75
7333.85
7324.96
7316.12
7307.45
7298.94
7290.61
7282.26
7273.81
7265.53
7257.38
7249.34
7241.42
7233.62
7225.92
7218.36
7210.92
7203.63
7196.48
7189.47
7182.6
7175.88
7169.31
7162.88
7156.61
7150.49
7144.52
7138.69
7133.01
7127.48
7122.09
7116.85
7111.74
7106.77
7101.93
7097.24
7092.66
7088.21
7083.88
7079.68
7075.59
7071.61
7067.75
7063.99
7060.34
7056.79
7053.33
7049.98
7046.71
7043.54
7040.45
7037.45
7034.53
7031.68
7028.92
7026.22
7023.6
7021.05
7018.56
7016.14
7013.78
7011.48
7009.23
7007.04
7004.9
7002.81
7000.78
6998.78
6996.83
6994.93
6993.06
6991.24
6989.45
6987.7
6985.98
6984.3
6982.65
6981.03
6979.44
6977.87
6976.34
6974.83
6973.34
6971.88
6970.44
6969.02
6967.63
6966.25
6964.9
6963.56
6962.25
6960.95
6959.66
6958.4
6957.16
6955.93
6954.72
6953.52
6952.35
6951.19
6950.05
6948.93
6947.83
6946.74
6945.68
6944.63
6943.6
6942.59
6941.6
6940.63
6939.68
6938.74
6937.83
6936.93
6936.06
6935.2
6934.36
6933.55
6932.75
6931.97
6931.2
6930.46
6929.74
6929.04
6928.35
6927.69
6927.04
6926.42
6925.81
6925.22
6924.65
6924.09
6923.56
6923.05
6922.55
6922.07
6921.61
6921.17
6920.74
6920.34
6919.95
6919.58
6919.22
6918.89
6918.57
6918.26
6917.98
6917.71
6917.46
6917.22
6917
6916.8
6916.61
6916.43
6916.28
6916.13
6916.01
6915.89
6915.8
6915.71
6915.64
6915.59
6915.55
6915.52
6915.51
6915.51
6915.52
6915.55
6915.59
6915.64
6915.71
6915.79
6915.87
6915.98
6916.09
6916.21
6916.35
6916.49
6916.65
6916.82
6916.99
6917.18
6917.38
6917.58
6917.8
6918.02
6918.25
6918.5
6918.74
6919
6919.26
6919.54
6919.81
6920.1
6920.39
6920.68
6920.99
6921.29
6921.6
6921.92
6922.24
6922.57
6922.9
6923.23
6923.56
6923.9
6924.24
6924.58
6924.92
6925.27
6925.62
6925.96
6926.31
6926.66
6927.01
6927.36
6927.71
6928.05
6928.4
6928.75
6929.09
6929.44
6929.78
6930.12
6930.46
6930.8
6931.13
6931.46
6931.79
6932.12
6932.45
6932.77
6933.09
6933.4
6933.72
6934.03
6934.33
6934.64
6934.94
6935.24
6935.53
6935.82
6936.11
6936.39
6936.67
6936.94
6937.22
6937.49
6937.75
6938.01
6938.27
6938.53
6938.78
6939.03
6939.27
6939.51
6939.75
6939.98
6940.21
6940.44
6940.66
6940.88
6941.1
6941.31
6941.52
6941.73
6941.93
6942.14
6942.33
6942.53
6942.72
6942.91
6943.09
6943.28
6943.46
6943.63
6943.81
6943.98
6944.15
6944.32
6944.48
6944.64
6944.8
6944.96
6945.11
6945.26
6945.41
6945.56
6945.72
6945.86
6945.98
6946.11
6946.24
6946.37
6946.49
6946.62
6946.74
6946.86
6946.98
6947.1
6947.22
6947.33
6947.45
6947.56
6947.67
6947.79
6947.9
6948
6948.1
6948.2
6948.31
6948.41
6948.51
6948.61
6948.71
6948.81
6948.91
6949
6949.1
6949.19
6949.29
6949.37
6949.46
6949.54
6949.63
6949.72
6949.79
6949.93
6949.99
6950.04
6950.11
6950.17
6950.24
6950.31
6950.37
6950.44
6950.5
6950.57
6950.63
6950.69
6950.75
6950.81
6950.87
6950.93
6950.99
6951.05
6951.11
6951.17
6951.23
6951.29
6951.35
6951.41
6951.47
6951.52
6951.58
6951.64
6951.7
6951.76
6951.81
6951.87
6951.93
6951.99
6952.04
6952.1
6952.15
6952.21
6952.27
6952.32
6952.37
6952.43
6952.48
6952.54
6952.59
6952.64
6952.69
6952.74
6952.8
6952.85
6952.9
6952.95
6953
6953.05
6953.09
6953.14
6953.19
6953.24
6953.29
6953.33
6953.38
6953.42
6953.47
6953.51
6953.56
6953.6
6953.65
6953.69
6953.73
6953.77
6953.81
6953.86
6953.9
6953.94
6953.98
6954.02
6954.05
6954.09
6954.13
6954.17
6954.21
6954.24
6954.28
6954.31
6954.35
6954.38
6954.42
6954.45
6954.49
6954.52
6954.55
6954.58
6954.63
6936.77
6953.46
6963.43
6973.01
6982.86
6992.77
7002.72
7012.61
7022.38
7032.04
7041.66
7051.25
7060.76
7070.15
7079.44
7088.64
7097.77
7106.81
7115.75
7124.58
7133.31
7141.92
7150.44
7158.84
7167.13
7175.29
7183.33
7191.25
7199.04
7206.69
7214.22
7221.61
7228.88
7235.99
7242.96
7249.79
7256.48
7263.02
7269.41
7275.65
7281.73
7287.65
7293.43
7299.05
7304.52
7309.81
7314.95
7319.95
7324.78
7329.44
7333.94
7338.28
7342.48
7346.51
7350.36
7354.04
7357.58
7360.95
7364.15
7367.21
7370.12
7372.82
7375.38
7377.79
7380.04
7382.09
7384
7385.74
7387.3
7388.7
7389.93
7390.99
7391.86
7392.56
7393.07
7393.36
7393.45
7393.34
7393.04
7392.53
7391.82
7390.94
7389.94
7388.85
7387.54
7386.07
7384.54
7383.11
7381.58
7379.66
7377.14
7374.58
7374.62
7376.04
7369.49
7351.12
7358.58
7356.25
7350.73
7347.63
7343.33
7337.4
7333.49
7328.7
7323.64
7318.61
7313.38
7308.12
7302.85
7297.28
7291.12
7285.06
7279.2
7273.02
7270.23
7263.05
7251.52
7243.83
7236.13
7228.37
7220.9
7212.86
7204.49
7196.17
7187.88
7179.63
7171.25
7162.59
7154.06
7145.63
7137.16
7130.49
7121.79
7111.13
7102.3
7093.63
7085.46
7077.14
7069.1
7060.94
7052.75
7044.76
7036.9
7029.16
7021.57
7014.11
7006.77
6999.57
6992.53
6985.63
6978.89
6972.29
6965.84
6959.56
6953.42
6947.43
6941.59
6935.9
6930.36
6924.98
6919.73
6914.63
6909.66
6904.83
6900.13
6895.56
6891.12
6886.81
6882.61
6878.54
6874.57
6870.72
6866.98
6863.34
6859.8
6856.36
6853.02
6849.77
6846.61
6843.54
6840.56
6837.65
6834.83
6832.08
6829.4
6826.8
6824.27
6821.8
6819.4
6817.05
6814.77
6812.54
6810.37
6808.24
6806.17
6804.15
6802.17
6800.24
6798.34
6796.49
6794.68
6792.91
6791.17
6789.46
6787.79
6786.15
6784.54
6782.96
6781.4
6779.87
6778.37
6776.89
6775.43
6774
6772.59
6771.2
6769.83
6768.47
6767.14
6765.83
6764.53
6763.25
6761.99
6760.75
6759.52
6758.31
6757.12
6755.95
6754.79
6753.65
6752.53
6751.43
6750.34
6749.28
6748.23
6747.2
6746.19
6745.2
6744.23
6743.28
6742.34
6741.43
6740.53
6739.66
6738.8
6737.96
6737.15
6736.34
6735.56
6734.8
6734.06
6733.34
6732.64
6731.95
6731.29
6730.64
6730.02
6729.41
6728.82
6728.25
6727.7
6727.16
6726.65
6726.15
6725.68
6725.22
6724.77
6724.35
6723.95
6723.56
6723.19
6722.84
6722.5
6722.18
6721.88
6721.6
6721.33
6721.08
6720.84
6720.62
6720.42
6720.23
6720.06
6719.91
6719.76
6719.64
6719.53
6719.43
6719.35
6719.28
6719.23
6719.19
6719.17
6719.16
6719.16
6719.18
6719.21
6719.25
6719.3
6719.37
6719.45
6719.54
6719.64
6719.76
6719.88
6720.02
6720.17
6720.33
6720.5
6720.68
6720.87
6721.07
6721.27
6721.49
6721.72
6721.95
6722.2
6722.45
6722.71
6722.98
6723.25
6723.53
6723.82
6724.11
6724.41
6724.72
6725.03
6725.34
6725.66
6725.98
6726.31
6726.64
6726.98
6727.32
6727.66
6728
6728.34
6728.69
6729.04
6729.39
6729.74
6730.09
6730.44
6730.79
6731.14
6731.49
6731.84
6732.19
6732.54
6732.89
6733.24
6733.58
6733.92
6734.26
6734.6
6734.94
6735.27
6735.6
6735.93
6736.26
6736.58
6736.9
6737.22
6737.53
6737.85
6738.15
6738.46
6738.76
6739.06
6739.35
6739.64
6739.93
6740.21
6740.49
6740.77
6741.04
6741.31
6741.58
6741.84
6742.1
6742.35
6742.6
6742.85
6743.1
6743.34
6743.57
6743.81
6744.04
6744.26
6744.49
6744.71
6744.92
6745.14
6745.35
6745.56
6745.76
6745.96
6746.16
6746.35
6746.55
6746.73
6746.92
6747.1
6747.28
6747.46
6747.63
6747.8
6747.97
6748.14
6748.3
6748.46
6748.62
6748.78
6748.93
6749.1
6749.24
6749.37
6749.51
6749.64
6749.77
6749.91
6750.04
6750.17
6750.29
6750.42
6750.54
6750.67
6750.79
6750.9
6751.02
6751.14
6751.26
6751.37
6751.48
6751.59
6751.69
6751.8
6751.9
6752.01
6752.11
6752.22
6752.32
6752.42
6752.52
6752.62
6752.71
6752.82
6752.91
6753
6753.09
6753.19
6753.27
6753.41
6753.47
6753.53
6753.6
6753.67
6753.74
6753.82
6753.89
6753.96
6754.03
6754.1
6754.16
6754.23
6754.29
6754.36
6754.42
6754.48
6754.55
6754.61
6754.67
6754.73
6754.79
6754.85
6754.91
6754.97
6755.03
6755.09
6755.15
6755.21
6755.27
6755.33
6755.39
6755.44
6755.5
6755.56
6755.62
6755.68
6755.73
6755.79
6755.85
6755.9
6755.96
6756.01
6756.07
6756.12
6756.18
6756.23
6756.29
6756.34
6756.39
6756.45
6756.5
6756.55
6756.6
6756.65
6756.7
6756.75
6756.8
6756.85
6756.9
6756.95
6757
6757.04
6757.09
6757.14
6757.18
6757.23
6757.27
6757.32
6757.36
6757.41
6757.45
6757.49
6757.54
6757.58
6757.62
6757.66
6757.7
6757.74
6757.78
6757.82
6757.86
6757.9
6757.94
6757.97
6758.01
6758.05
6758.08
6758.12
6758.16
6758.19
6758.22
6758.26
6758.29
6758.33
6758.36
6758.39
6758.43
6740.31
6757.11
6767.18
6776.83
6786.75
6796.72
6806.75
6816.71
6826.54
6836.27
6845.96
6855.62
6865.19
6874.64
6883.98
6893.24
6902.43
6911.53
6920.53
6929.42
6938.2
6946.88
6955.45
6963.92
6972.26
6980.48
6988.57
6996.53
7004.37
7012.07
7019.65
7027.1
7034.42
7041.59
7048.6
7055.46
7062.18
7068.76
7075.2
7081.5
7087.62
7093.59
7099.39
7105.04
7110.54
7115.87
7121.04
7126.05
7130.89
7135.56
7140.07
7144.42
7148.62
7152.67
7156.53
7160.22
7163.73
7167.08
7170.27
7173.31
7176.18
7178.88
7181.41
7183.76
7185.96
7187.96
7189.81
7191.47
7192.94
7194.25
7195.38
7196.32
7197.09
7197.67
7198.06
7198.26
7198.25
7198.04
7197.65
7197.06
7196.3
7195.37
7194.3
7193.06
7191.64
7190.1
7188.5
7186.8
7184.89
7182.75
7180.57
7178.31
7175.79
7172.64
7169.4
7168.97
7169.9
7162.79
7143.8
7150.52
7147.77
7141.23
7137.43
7132.5
7125.86
7121.33
7116.05
7110.42
7105.06
7099.28
7093.56
7087.62
7081.51
7074.73
7068.13
7061.61
7054.87
7051.39
7043.68
7031.78
7023.6
7015.52
7007.32
6999.42
6991.02
6982.35
6973.79
6965.26
6956.84
6948.32
6939.53
6931.03
6922.22
6914.03
6905.96
6899.13
6890.85
6880.71
6872.3
6864.12
6855.97
6848.1
6840.21
6832.31
6824.63
6817.11
6809.73
6802.5
6795.42
6788.49
6781.71
6775.08
6768.61
6762.3
6756.14
6750.14
6744.28
6738.59
6733.04
6727.65
6722.4
6717.3
6712.34
6707.52
6702.83
6698.27
6693.84
6689.54
6685.36
6681.29
6677.34
6673.51
6669.78
6666.16
6662.64
6659.22
6655.89
6652.67
6649.53
6646.48
6643.51
6640.63
6637.83
6635.1
6632.45
6629.87
6627.36
6624.91
6622.53
6620.21
6617.95
6615.74
6613.59
6611.48
6609.43
6607.42
6605.46
6603.55
6601.67
6599.84
6598.04
6596.28
6594.56
6592.87
6591.21
6589.58
6587.98
6586.41
6584.86
6583.34
6581.85
6580.38
6578.93
6577.5
6576.1
6574.71
6573.35
6572
6570.67
6569.36
6568.07
6566.79
6565.53
6564.29
6563.06
6561.86
6560.67
6559.5
6558.34
6557.2
6556.08
6554.98
6553.9
6552.83
6551.79
6550.76
6549.75
6548.76
6547.79
6546.83
6545.9
6544.99
6544.09
6543.21
6542.35
6541.52
6540.7
6539.9
6539.12
6538.36
6537.62
6536.89
6536.19
6535.51
6534.84
6534.2
6533.57
6532.96
6532.37
6531.8
6531.25
6530.72
6530.21
6529.71
6529.24
6528.78
6528.34
6527.92
6527.51
6527.13
6526.76
6526.41
6526.07
6525.76
6525.46
6525.17
6524.91
6524.66
6524.43
6524.21
6524.01
6523.82
6523.65
6523.5
6523.36
6523.24
6523.13
6523.04
6522.96
6522.89
6522.84
6522.81
6522.78
6522.78
6522.78
6522.8
6522.83
6522.87
6522.93
6523
6523.08
6523.18
6523.28
6523.4
6523.53
6523.67
6523.82
6523.98
6524.15
6524.34
6524.53
6524.73
6524.94
6525.16
6525.39
6525.63
6525.88
6526.14
6526.4
6526.67
6526.95
6527.23
6527.52
6527.82
6528.12
6528.43
6528.74
6529.06
6529.39
6529.71
6530.05
6530.38
6530.72
6531.06
6531.41
6531.75
6532.1
6532.45
6532.8
6533.15
6533.51
6533.86
6534.22
6534.57
6534.92
6535.28
6535.63
6535.98
6536.33
6536.68
6537.03
6537.38
6537.72
6538.07
6538.41
6538.75
6539.08
6539.42
6539.75
6540.07
6540.4
6540.72
6541.04
6541.35
6541.67
6541.98
6542.28
6542.58
6542.88
6543.18
6543.47
6543.76
6544.04
6544.32
6544.6
6544.87
6545.14
6545.41
6545.67
6545.93
6546.18
6546.43
6546.68
6546.93
6547.17
6547.4
6547.64
6547.87
6548.1
6548.32
6548.54
6548.76
6548.97
6549.18
6549.39
6549.59
6549.79