/*--------------------------------*- C++ -*----------------------------------*\
| =========                 |                                                 |
| \\      /  F ield         | OpenFOAM: The Open Source CFD Toolbox           |
|  \\    /   O peration     | Version:  v2006                                 |
|   \\  /    A nd           | Website:  www.openfoam.com                      |
|    \\/     M anipulation  |                                                 |
\*---------------------------------------------------------------------------*/
FoamFile
{
    version     2.0;
    format      ascii;
    class       volScalarField;
    location    "3";
    object      p_rgh;
}
// * * * * * * * * * * * * * * * * * * * * * * * * * * * * * * * * * * * * * //

dimensions      [1 -1 -2 0 0 0 0];


internalField   nonuniform List<scalar> 
33000
(
8016.51
8032.91
8042.65
8052.05
8061.73
8071.46
8081.24
8090.95
8100.56
8110.07
8119.54
8128.94
8138.24
8147.48
8156.63
8165.72
8174.74
8183.63
8192.41
8201.07
8209.62
8218.08
8226.43
8234.69
8242.83
8250.84
8258.69
8266.42
8274.09
8281.64
8289.05
8296.3
8303.42
8310.4
8317.2
8323.9
8330.51
8336.95
8343.25
8349.39
8355.34
8361.21
8366.95
8372.52
8377.93
8383.13
8388.22
8393.2
8398
8402.66
8407.13
8411.44
8415.59
8419.62
8423.49
8427.2
8430.76
8434.16
8437.42
8440.52
8443.47
8446.27
8448.97
8451.5
8453.84
8456.1
8458.29
8460.35
8462.29
8464.13
8465.92
8467.66
8469.4
8471.11
8472.96
8474.92
8476.8
8477.99
8473.93
8462.53
8469.86
8468.11
8466.25
8465.85
8464.33
8461.46
8460.57
8459.14
8457.31
8455.3
8453.33
8451.16
8448.91
8446.76
8444.63
8442.5
8440.88
8438.86
8438.88
8435.44
8427.34
8423.07
8417.9
8412.47
8407.45
8401.69
8395.53
8389.34
8383.26
8377.11
8370.89
8364.66
8358.4
8352.08
8346.04
8339.77
8334.91
8327.92
8318.36
8310.78
8302.66
8294.32
8286.16
8277.69
8268.92
8260.23
8251.51
8242.73
8233.98
8225.23
8216.49
8207.8
8199.14
8190.55
8182.05
8173.63
8165.29
8157.04
8148.9
8140.86
8132.92
8125.09
8117.38
8109.8
8102.32
8094.99
8087.77
8080.7
8073.76
8066.95
8060.29
8053.76
8047.4
8041.17
8035.08
8029.12
8023.32
8017.67
8012.16
8006.78
8001.53
7996.43
7991.47
7986.62
7981.9
7977.32
7972.85
7968.51
7964.27
7960.16
7956.16
7952.27
7948.48
7944.8
7941.22
7937.74
7934.35
7931.05
7927.85
7924.73
7921.69
7918.74
7915.86
7913.06
7910.33
7907.68
7905.09
7902.57
7900.1
7897.71
7895.37
7893.09
7890.86
7888.69
7886.57
7884.51
7882.48
7880.51
7878.57
7876.69
7874.83
7873.02
7871.25
7869.51
7867.8
7866.13
7864.49
7862.88
7861.3
7859.75
7858.23
7856.72
7855.25
7853.8
7852.38
7850.97
7849.59
7848.22
7846.88
7845.56
7844.26
7842.97
7841.7
7840.45
7839.22
7838
7836.81
7835.63
7834.48
7833.33
7832.21
7831.11
7830.02
7828.96
7827.91
7826.88
7825.87
7824.88
7823.91
7822.96
7822.03
7821.11
7820.22
7819.34
7818.49
7817.65
7816.83
7816.03
7815.25
7814.49
7813.75
7813.03
7812.32
7811.64
7810.97
7810.33
7809.7
7809.09
7808.5
7807.93
7807.38
7806.85
7806.33
7805.83
7805.35
7804.89
7804.44
7804.02
7803.61
7803.22
7802.84
7802.49
7802.15
7801.83
7801.52
7801.23
7800.96
7800.7
7800.46
7800.24
7800.03
7799.84
7799.67
7799.5
7799.36
7799.23
7799.11
7799.01
7798.93
7798.85
7798.8
7798.75
7798.72
7798.7
7798.7
7798.71
7798.73
7798.77
7798.82
7798.88
7798.95
7799.04
7799.13
7799.24
7799.36
7799.49
7799.63
7799.78
7799.95
7800.12
7800.3
7800.49
7800.69
7800.9
7801.12
7801.35
7801.58
7801.83
7802.08
7802.34
7802.6
7802.87
7803.15
7803.44
7803.73
7804.02
7804.32
7804.63
7804.94
7805.25
7805.57
7805.9
7806.22
7806.55
7806.88
7807.22
7807.55
7807.89
7808.23
7808.57
7808.91
7809.26
7809.6
7809.94
7810.29
7810.63
7810.97
7811.32
7811.66
7812
7812.34
7812.68
7813.02
7813.35
7813.68
7814.02
7814.35
7814.67
7815
7815.32
7815.64
7815.96
7816.27
7816.58
7816.89
7817.19
7817.5
7817.8
7818.09
7818.38
7818.67
7818.96
7819.24
7819.52
7819.8
7820.07
7820.34
7820.6
7820.86
7821.12
7821.37
7821.63
7821.87
7822.12
7822.36
7822.59
7822.83
7823.06
7823.29
7823.51
7823.73
7823.95
7824.16
7824.37
7824.58
7824.78
7824.98
7825.18
7825.38
7825.57
7825.76
7825.95
7826.13
7826.31
7826.49
7826.66
7826.83
7827
7827.17
7827.33
7827.5
7827.66
7827.81
7827.97
7828.12
7828.27
7828.42
7828.56
7828.7
7828.84
7828.98
7829.12
7829.25
7829.38
7829.51
7829.64
7829.76
7829.89
7830.01
7830.13
7830.25
7830.35
7830.46
7830.56
7830.67
7830.78
7830.88
7830.99
7831.09
7831.2
7831.3
7831.4
7831.5
7831.6
7831.7
7831.79
7831.89
7831.98
7832.08
7832.16
7832.25
7832.34
7832.43
7832.51
7832.6
7832.68
7832.77
7832.85
7832.93
7833.01
7833.09
7833.16
7833.25
7833.32
7833.39
7833.46
7833.53
7833.58
7833.66
7833.7
7833.72
7833.77
7833.82
7833.87
7833.93
7833.99
7834.05
7834.11
7834.17
7834.23
7834.29
7834.35
7834.4
7834.46
7834.52
7834.58
7834.64
7834.7
7834.75
7834.81
7834.87
7834.93
7834.98
7835.04
7835.1
7835.15
7835.21
7835.26
7835.32
7835.37
7835.42
7835.48
7835.53
7835.58
7835.63
7835.68
7835.74
7835.79
7835.84
7835.89
7835.94
7835.98
7836.03
7836.08
7836.13
7836.17
7836.22
7836.27
7836.31
7836.36
7836.4
7836.45
7836.49
7836.53
7836.58
7836.62
7836.66
7836.7
7836.74
7836.79
7836.83
7836.87
7836.91
7836.94
7836.98
7837.02
7837.06
7837.1
7837.13
7837.17
7837.2
7837.24
7837.27
7837.31
7837.34
7837.38
7837.41
7837.44
7837.47
7837.52
8016.48
8032.9
8042.66
8052.06
8061.74
8071.49
8081.27
8091
8100.61
8110.14
8119.62
8129.07
8138.44
8147.7
8156.86
8165.94
8174.92
8183.81
8192.59
8201.28
8209.86
8218.33
8226.69
8234.94
8243.08
8251.1
8258.94
8266.67
8274.32
8281.88
8289.33
8296.6
8303.72
8310.71
8317.46
8324.16
8330.72
8337.26
8343.62
8349.74
8355.65
8361.5
8367.26
8372.91
8378.35
8383.48
8388.5
8393.43
8398.28
8403.07
8407.58
8411.87
8415.9
8419.9
8423.85
8427.6
8431.15
8434.5
8437.72
8440.87
8443.85
8446.67
8449.19
8451.68
8454.06
8456.4
8458.55
8460.49
8462.36
8464.19
8465.99
8467.61
8469.11
8470.42
8471.63
8472.59
8473.21
8473.45
8473.27
8474.3
8476.12
8471.34
8456.91
8465.57
8464.69
8462.18
8461.86
8460.2
8458.21
8454.81
8453.33
8451.12
8448.76
8446.62
8444.2
8441.6
8439.23
8436.6
8434.08
8431.1
8427.33
8427.01
8422.2
8412.41
8406.94
8400.75
8395.17
8389.45
8383.98
8377.96
8371.29
8364.82
8358.34
8351.8
8345.42
8338.9
8332.36
8325.55
8318.25
8312.77
8304.95
8294.52
8286.06
8277.41
8268.85
8260.49
8251.86
8242.91
8234.06
8225.27
8216.52
8207.83
8199.15
8190.54
8182.01
8173.6
8165.24
8156.97
8148.82
8140.8
8132.83
8124.98
8117.27
8109.69
8102.19
8094.84
8087.62
8080.55
8073.61
8066.77
8060.1
8053.58
8047.21
8041
8034.89
8028.93
8023.13
8017.48
8011.98
8006.59
8001.34
7996.24
7991.29
7986.44
7981.71
7977.13
7972.68
7968.33
7964.09
7959.97
7955.99
7952.11
7948.32
7944.62
7941.04
7937.58
7934.2
7930.9
7927.69
7924.58
7921.55
7918.61
7915.73
7912.92
7910.2
7907.55
7904.98
7902.44
7899.99
7897.6
7895.27
7892.99
7890.76
7888.59
7886.48
7884.42
7882.39
7880.42
7878.49
7876.61
7874.75
7872.94
7871.17
7869.44
7867.74
7866.07
7864.43
7862.81
7861.23
7859.69
7858.17
7856.66
7855.19
7853.74
7852.33
7850.93
7849.53
7848.17
7846.83
7845.51
7844.21
7842.93
7841.65
7840.4
7839.17
7837.95
7836.76
7835.59
7834.44
7833.29
7832.16
7831.06
7829.98
7828.91
7827.87
7826.84
7825.83
7824.84
7823.87
7822.91
7821.98
7821.07
7820.17
7819.3
7818.44
7817.61
7816.78
7815.99
7815.21
7814.45
7813.7
7812.98
7812.28
7811.6
7810.93
7810.28
7809.66
7809.05
7808.46
7807.89
7807.33
7806.81
7806.28
7805.79
7805.31
7804.84
7804.4
7803.98
7803.57
7803.18
7802.8
7802.45
7802.11
7801.79
7801.48
7801.19
7800.92
7800.66
7800.43
7800.2
7799.99
7799.8
7799.63
7799.47
7799.33
7799.2
7799.08
7798.98
7798.89
7798.82
7798.76
7798.72
7798.69
7798.67
7798.67
7798.68
7798.7
7798.74
7798.79
7798.85
7798.92
7799.01
7799.1
7799.21
7799.33
7799.46
7799.61
7799.76
7799.92
7800.09
7800.28
7800.47
7800.67
7800.88
7801.1
7801.33
7801.56
7801.81
7802.06
7802.32
7802.58
7802.86
7803.14
7803.42
7803.71
7804.01
7804.31
7804.62
7804.93
7805.24
7805.56
7805.88
7806.21
7806.54
7806.87
7807.21
7807.54
7807.88
7808.22
7808.56
7808.91
7809.25
7809.59
7809.94
7810.28
7810.63
7810.97
7811.31
7811.66
7812
7812.34
7812.68
7813.02
7813.35
7813.69
7814.02
7814.35
7814.67
7815
7815.32
7815.64
7815.96
7816.27
7816.58
7816.89
7817.2
7817.5
7817.8
7818.09
7818.39
7818.68
7818.96
7819.25
7819.52
7819.8
7820.07
7820.34
7820.61
7820.87
7821.12
7821.38
7821.63
7821.88
7822.12
7822.36
7822.6
7822.83
7823.06
7823.29
7823.51
7823.73
7823.95
7824.17
7824.38
7824.58
7824.79
7824.99
7825.19
7825.38
7825.57
7825.76
7825.95
7826.13
7826.31
7826.49
7826.67
7826.84
7827.01
7827.17
7827.34
7827.5
7827.66
7827.82
7827.97
7828.12
7828.27
7828.42
7828.56
7828.71
7828.85
7828.99
7829.12
7829.26
7829.39
7829.52
7829.64
7829.78
7829.9
7830.01
7830.12
7830.23
7830.34
7830.45
7830.56
7830.67
7830.78
7830.88
7830.99
7831.09
7831.2
7831.3
7831.4
7831.5
7831.6
7831.7
7831.8
7831.89
7831.98
7832.07
7832.16
7832.25
7832.34
7832.43
7832.51
7832.6
7832.68
7832.76
7832.85
7832.93
7833.01
7833.09
7833.16
7833.23
7833.31
7833.38
7833.5
7833.56
7833.62
7833.69
7833.76
7833.81
7833.86
7833.91
7833.96
7834.01
7834.06
7834.11
7834.17
7834.22
7834.27
7834.33
7834.39
7834.44
7834.5
7834.55
7834.61
7834.67
7834.72
7834.78
7834.83
7834.89
7834.94
7835
7835.05
7835.11
7835.16
7835.22
7835.27
7835.32
7835.38
7835.43
7835.48
7835.54
7835.59
7835.64
7835.69
7835.74
7835.79
7835.84
7835.89
7835.94
7835.99
7836.04
7836.08
7836.13
7836.18
7836.22
7836.27
7836.32
7836.36
7836.41
7836.45
7836.49
7836.54
7836.58
7836.62
7836.66
7836.71
7836.75
7836.79
7836.83
7836.87
7836.91
7836.95
7836.98
7837.02
7837.06
7837.1
7837.13
7837.17
7837.21
7837.24
7837.28
7837.31
7837.35
7837.38
7837.41
7837.45
7837.47
7837.52
8016.38
8032.85
8042.65
8052.08
8061.78
8071.54
8081.35
8091.1
8100.74
8110.29
8119.79
8129.25
8138.64
8147.92
8157.1
8166.19
8175.2
8184.11
8192.92
8201.63
8210.23
8218.73
8227.12
8235.39
8243.55
8251.59
8259.49
8267.2
8274.93
8282.54
8289.9
8297.05
8304.2
8311.29
8318.31
8325.01
8331.34
8337.74
8344.04
8350.43
8356.52
8362.21
8367.89
8373.54
8379.15
8384.41
8389.28
8394.13
8399.09
8403.88
8408.38
8412.64
8416.63
8420.62
8424.48
8428.37
8431.9
8435.14
8438.37
8441.47
8444.59
8447.38
8449.78
8452.25
8454.72
8457.04
8459.05
8460.93
8462.74
8464.55
8466.25
8467.69
8468.94
8469.98
8470.94
8471.79
8472.35
8472.6
8472.43
8471.63
8470.65
8469.92
8471.27
8473.51
8468.45
8452.13
8460.18
8461.09
8458.55
8456.29
8454.73
8452.31
8448.38
8446.5
8443.99
8441.2
8438.66
8435.71
8432.58
8429.09
8425.09
8421.04
8417.14
8412.62
8411.84
8406.32
8395.83
8389.29
8382.92
8377.12
8371.01
8365.33
8358.94
8352.03
8345.29
8338.53
8331.7
8324.62
8317.08
8309.57
8302.07
8294.34
8288.38
8280.05
8269.22
8260.46
8251.62
8242.86
8234.35
8225.57
8216.65
8207.9
8199.14
8190.53
8182.02
8173.57
8165.19
8156.9
8148.76
8140.69
8132.68
8124.83
8117.13
8109.49
8101.95
8094.6
8087.4
8080.29
8073.28
8066.47
8059.81
8053.26
8046.89
8040.66
8034.55
8028.56
8022.77
8017.14
8011.61
8006.2
8000.96
7995.88
7990.92
7986.08
7981.33
7976.75
7972.31
7967.98
7963.75
7959.61
7955.64
7951.78
7947.99
7944.29
7940.74
7937.28
7933.88
7930.61
7927.42
7924.31
7921.28
7918.32
7915.45
7912.66
7909.95
7907.32
7904.74
7902.23
7899.77
7897.37
7895.05
7892.78
7890.57
7888.42
7886.31
7884.23
7882.21
7880.26
7878.34
7876.46
7874.62
7872.81
7871.02
7869.31
7867.62
7865.95
7864.3
7862.69
7861.13
7859.59
7858.06
7856.56
7855.1
7853.66
7852.23
7850.83
7849.44
7848.09
7846.75
7845.41
7844.13
7842.84
7841.58
7840.31
7839.08
7837.88
7836.69
7835.51
7834.35
7833.21
7832.08
7830.99
7829.91
7828.84
7827.79
7826.77
7825.75
7824.74
7823.77
7822.82
7821.9
7820.99
7820.1
7819.22
7818.37
7817.53
7816.69
7815.89
7815.13
7814.37
7813.63
7812.91
7812.2
7811.52
7810.85
7810.21
7809.58
7808.96
7808.37
7807.81
7807.26
7806.72
7806.2
7805.7
7805.22
7804.77
7804.33
7803.9
7803.49
7803.1
7802.73
7802.37
7802.03
7801.71
7801.4
7801.12
7800.85
7800.6
7800.36
7800.13
7799.93
7799.73
7799.56
7799.4
7799.26
7799.13
7799.01
7798.91
7798.83
7798.76
7798.7
7798.66
7798.63
7798.61
7798.61
7798.62
7798.64
7798.68
7798.73
7798.79
7798.87
7798.95
7799.05
7799.16
7799.28
7799.41
7799.56
7799.71
7799.87
7800.05
7800.23
7800.43
7800.63
7800.84
7801.06
7801.29
7801.53
7801.77
7802.02
7802.28
7802.55
7802.82
7803.1
7803.39
7803.68
7803.98
7804.28
7804.59
7804.9
7805.22
7805.54
7805.86
7806.19
7806.52
7806.86
7807.19
7807.53
7807.87
7808.21
7808.55
7808.9
7809.24
7809.59
7809.93
7810.28
7810.62
7810.97
7811.31
7811.66
7812
7812.34
7812.68
7813.02
7813.35
7813.69
7814.02
7814.35
7814.68
7815
7815.33
7815.65
7815.96
7816.28
7816.59
7816.9
7817.21
7817.51
7817.81
7818.1
7818.4
7818.69
7818.97
7819.25
7819.53
7819.81
7820.08
7820.35
7820.62
7820.88
7821.14
7821.39
7821.64
7821.89
7822.13
7822.37
7822.61
7822.84
7823.07
7823.3
7823.52
7823.74
7823.96
7824.18
7824.39
7824.59
7824.8
7825
7825.2
7825.39
7825.58
7825.77
7825.96
7826.14
7826.32
7826.5
7826.68
7826.85
7827.02
7827.18
7827.35
7827.51
7827.67
7827.83
7827.98
7828.13
7828.28
7828.43
7828.58
7828.72
7828.86
7828.99
7829.13
7829.26
7829.41
7829.53
7829.64
7829.77
7829.88
7830
7830.12
7830.23
7830.34
7830.45
7830.56
7830.67
7830.78
7830.89
7830.99
7831.1
7831.2
7831.3
7831.41
7831.51
7831.6
7831.7
7831.8
7831.89
7831.98
7832.08
7832.17
7832.26
7832.34
7832.43
7832.52
7832.61
7832.69
7832.78
7832.86
7832.94
7833.01
7833.1
7833.16
7833.28
7833.33
7833.37
7833.42
7833.46
7833.52
7833.57
7833.64
7833.7
7833.76
7833.82
7833.88
7833.94
7833.99
7834.06
7834.12
7834.18
7834.23
7834.29
7834.35
7834.41
7834.47
7834.53
7834.59
7834.65
7834.7
7834.76
7834.82
7834.88
7834.93
7834.99
7835.05
7835.1
7835.16
7835.21
7835.27
7835.32
7835.37
7835.43
7835.48
7835.53
7835.58
7835.64
7835.69
7835.74
7835.79
7835.84
7835.89
7835.94
7835.99
7836.04
7836.08
7836.13
7836.18
7836.22
7836.27
7836.32
7836.36
7836.41
7836.45
7836.49
7836.54
7836.58
7836.62
7836.67
7836.71
7836.75
7836.79
7836.83
7836.87
7836.91
7836.95
7836.99
7837.02
7837.06
7837.1
7837.13
7837.17
7837.21
7837.24
7837.28
7837.31
7837.35
7837.38
7837.41
7837.45
7837.48
7837.52
8016.25
8032.77
8042.61
8052.08
8061.83
8071.64
8081.49
8091.27
8100.94
8110.53
8120.06
8129.57
8138.99
8148.31
8157.52
8166.65
8175.69
8184.63
8193.47
8202.2
8210.83
8219.35
8227.77
8236.07
8244.25
8252.32
8260.27
8268.08
8275.79
8283.38
8290.82
8298.04
8305.12
8312.28
8319.29
8326.05
8332.54
8338.66
8345.12
8351.57
8357.7
8363.58
8369.25
8374.81
8380.28
8385.58
8390.68
8395.6
8400.39
8405.06
8409.56
8413.89
8418.06
8421.84
8425.67
8429.53
8433.16
8436.45
8439.56
8442.75
8445.78
8448.54
8450.81
8453.32
8455.88
8457.97
8459.79
8461.68
8463.52
8465.22
8466.56
8467.86
8469.17
8470.14
8470.79
8471.39
8471.84
8472
8471.75
8471.07
8470.4
8469.6
8468.38
8466.41
8464.2
8465.05
8467.8
8468.2
8462.23
8446.87
8454.55
8452.57
8449.45
8447.57
8444.35
8440.11
8437.69
8434.49
8430.98
8427.54
8423.65
8419.64
8415.27
8410.05
8405.2
8399.72
8395.28
8390.79
8388.56
8382.87
8372.06
8365.37
8358.55
8351.87
8345.51
8338.54
8331.26
8323.93
8316.47
8308.96
8301.26
8293.25
8285.17
8277.17
8269.04
8262.75
8254.13
8243.19
8234.3
8225.42
8216.61
8208.06
8199.31
8190.57
8181.94
8173.41
8165.01
8156.71
8148.58
8140.49
8132.43
8124.57
8116.84
8109.14
8101.59
8094.23
8087
8079.84
8072.82
8065.98
8059.33
8052.8
8046.39
8040.1
8033.97
8028.02
8022.26
8016.6
8011.07
8005.66
8000.41
7995.3
7990.37
7985.52
7980.78
7976.21
7971.79
7967.45
7963.21
7959.09
7955.13
7951.29
7947.49
7943.8
7940.26
7936.81
7933.42
7930.14
7926.98
7923.88
7920.83
7917.91
7915.06
7912.27
7909.56
7906.93
7904.39
7901.86
7899.4
7897.05
7894.73
7892.48
7890.24
7888.12
7886.04
7883.98
7881.95
7879.98
7878.09
7876.23
7874.36
7872.57
7870.81
7869.11
7867.42
7865.74
7864.1
7862.5
7860.96
7859.42
7857.88
7856.39
7854.93
7853.49
7852.07
7850.69
7849.3
7847.92
7846.58
7845.29
7843.99
7842.68
7841.44
7840.19
7838.96
7837.73
7836.53
7835.37
7834.22
7833.08
7831.96
7830.85
7829.76
7828.7
7827.67
7826.62
7825.6
7824.61
7823.66
7822.71
7821.78
7820.86
7819.95
7819.08
7818.24
7817.39
7816.56
7815.78
7815
7814.24
7813.49
7812.78
7812.08
7811.39
7810.72
7810.08
7809.44
7808.83
7808.25
7807.69
7807.14
7806.6
7806.09
7805.59
7805.1
7804.64
7804.2
7803.78
7803.38
7802.97
7802.6
7802.25
7801.92
7801.6
7801.29
7801
7800.73
7800.49
7800.25
7800.02
7799.81
7799.62
7799.45
7799.3
7799.15
7799.02
7798.91
7798.81
7798.73
7798.65
7798.6
7798.56
7798.53
7798.52
7798.52
7798.53
7798.55
7798.59
7798.64
7798.71
7798.78
7798.87
7798.97
7799.08
7799.2
7799.34
7799.48
7799.64
7799.8
7799.98
7800.16
7800.36
7800.56
7800.77
7801
7801.23
7801.47
7801.71
7801.97
7802.23
7802.5
7802.77
7803.05
7803.34
7803.64
7803.94
7804.24
7804.55
7804.86
7805.18
7805.51
7805.83
7806.16
7806.49
7806.83
7807.17
7807.51
7807.85
7808.19
7808.53
7808.88
7809.23
7809.57
7809.92
7810.27
7810.61
7810.96
7811.31
7811.65
7811.99
7812.34
7812.68
7813.02
7813.35
7813.69
7814.02
7814.35
7814.68
7815.01
7815.33
7815.65
7815.97
7816.29
7816.6
7816.91
7817.22
7817.52
7817.82
7818.12
7818.41
7818.7
7818.99
7819.27
7819.55
7819.82
7820.1
7820.36
7820.63
7820.89
7821.15
7821.4
7821.66
7821.9
7822.15
7822.39
7822.62
7822.86
7823.09
7823.32
7823.54
7823.76
7823.98
7824.19
7824.4
7824.61
7824.81
7825.01
7825.21
7825.41
7825.6
7825.79
7825.97
7826.16
7826.34
7826.51
7826.69
7826.86
7827.03
7827.2
7827.36
7827.52
7827.68
7827.84
7827.99
7828.15
7828.29
7828.44
7828.58
7828.73
7828.87
7829.02
7829.15
7829.27
7829.4
7829.52
7829.64
7829.76
7829.88
7830
7830.12
7830.23
7830.34
7830.46
7830.56
7830.67
7830.78
7830.89
7831
7831.11
7831.21
7831.31
7831.41
7831.51
7831.61
7831.7
7831.8
7831.9
7831.99
7832.08
7832.17
7832.27
7832.35
7832.45
7832.53
7832.61
7832.69
7832.77
7832.86
7832.93
7833.06
7833.13
7833.18
7833.25
7833.32
7833.39
7833.46
7833.52
7833.58
7833.64
7833.69
7833.75
7833.8
7833.86
7833.92
7833.97
7834.03
7834.09
7834.14
7834.2
7834.26
7834.31
7834.37
7834.43
7834.49
7834.54
7834.6
7834.66
7834.71
7834.77
7834.83
7834.88
7834.94
7835
7835.05
7835.11
7835.16
7835.22
7835.27
7835.33
7835.38
7835.43
7835.49
7835.54
7835.59
7835.64
7835.69
7835.74
7835.8
7835.85
7835.89
7835.94
7835.99
7836.04
7836.09
7836.14
7836.18
7836.23
7836.28
7836.32
7836.37
7836.41
7836.46
7836.5
7836.54
7836.59
7836.63
7836.67
7836.71
7836.75
7836.79
7836.83
7836.87
7836.91
7836.95
7836.99
7837.03
7837.07
7837.1
7837.14
7837.18
7837.21
7837.25
7837.28
7837.32
7837.35
7837.38
7837.42
7837.45
7837.48
7837.52
8016.09
8032.68
8042.58
8052.1
8061.89
8071.74
8081.64
8091.47
8101.19
8110.81
8120.4
8129.95
8139.42
8148.78
8158.03
8167.2
8176.29
8185.28
8194.16
8202.94
8211.61
8220.17
8228.63
8236.98
8245.2
8253.31
8261.3
8269.17
8276.91
8284.51
8291.98
8299.33
8306.56
8313.63
8320.56
8327.35
8333.99
8340.46
8346.77
8352.99
8359.09
8365
8370.76
8376.37
8381.81
8387.1
8392.23
8397.21
8402.03
8406.67
8411.15
8415.48
8419.65
8423.67
8427.48
8431.14
8434.71
8438.1
8441.32
8444.4
8447.32
8450.02
8452.48
8454.94
8457.31
8459.37
8460.97
8462.79
8464.76
8466.22
8467.38
8468.56
8469.77
8470.73
8471.28
8471.48
8471.67
8471.66
8471.6
8471.21
8470.55
8469.63
8468.33
8467.15
8466.09
8464.98
8463.82
8462.07
8460.37
8461.01
8462.76
8456.9
8439.01
8446.94
8444.92
8440.61
8438.37
8434.68
8429.58
8426.31
8422.28
8417.98
8413.79
8409.14
8404.52
8399.39
8393.75
8388.19
8382.78
8377.73
8372.04
8369.92
8363.34
8352.27
8345.14
8337.83
8330.6
8323.68
8316.19
8308.26
8300.31
8292.34
8284.4
8276.34
8267.92
8259.55
8251.25
8242.78
8236.23
8227.54
8216.63
8207.79
8198.96
8190.25
8181.72
8173.39
8165.08
8156.68
8148.34
8140.14
8132.1
8124.19
8116.46
8108.77
8101.11
8093.67
8086.38
8079.23
8072.3
8065.4
8058.64
8052.07
8045.7
8039.38
8033.25
8027.28
8021.5
8015.88
8010.31
8004.91
7999.69
7994.56
7989.58
7984.74
7980.06
7975.51
7971.04
7966.71
7962.5
7958.42
7954.44
7950.57
7946.85
7943.16
7939.6
7936.15
7932.81
7929.57
7926.35
7923.26
7920.26
7917.35
7914.49
7911.72
7909.06
7906.44
7903.88
7901.37
7898.94
7896.61
7894.28
7892.03
7889.84
7887.74
7885.68
7883.63
7881.59
7879.64
7877.73
7875.91
7874.09
7872.28
7870.51
7868.79
7867.11
7865.46
7863.87
7862.31
7860.71
7859.16
7857.65
7856.18
7854.7
7853.26
7851.85
7850.5
7849.08
7847.72
7846.39
7845.08
7843.81
7842.49
7841.23
7839.98
7838.78
7837.58
7836.35
7835.18
7834.02
7832.89
7831.78
7830.66
7829.57
7828.53
7827.5
7826.44
7825.43
7824.44
7823.47
7822.54
7821.61
7820.67
7819.78
7818.91
7818.05
7817.21
7816.39
7815.62
7814.84
7814.06
7813.32
7812.59
7811.89
7811.23
7810.54
7809.9
7809.27
7808.66
7808.08
7807.52
7806.97
7806.44
7805.91
7805.42
7804.94
7804.48
7804.03
7803.61
7803.2
7802.81
7802.44
7802.09
7801.77
7801.45
7801.13
7800.85
7800.58
7800.33
7800.09
7799.87
7799.67
7799.49
7799.31
7799.15
7799.01
7798.88
7798.78
7798.68
7798.59
7798.52
7798.47
7798.43
7798.4
7798.39
7798.39
7798.4
7798.43
7798.47
7798.52
7798.59
7798.67
7798.76
7798.86
7798.97
7799.1
7799.23
7799.38
7799.54
7799.7
7799.88
7800.07
7800.26
7800.47
7800.69
7800.91
7801.14
7801.38
7801.63
7801.89
7802.15
7802.43
7802.7
7802.99
7803.28
7803.57
7803.88
7804.18
7804.5
7804.81
7805.13
7805.46
7805.79
7806.12
7806.45
7806.79
7807.13
7807.47
7807.82
7808.16
7808.51
7808.86
7809.21
7809.55
7809.9
7810.25
7810.6
7810.95
7811.3
7811.64
7811.99
7812.33
7812.68
7813.02
7813.35
7813.69
7814.03
7814.36
7814.69
7815.02
7815.34
7815.66
7815.98
7816.3
7816.61
7816.92
7817.23
7817.53
7817.83
7818.13
7818.43
7818.72
7819
7819.29
7819.57
7819.84
7820.11
7820.38
7820.65
7820.91
7821.17
7821.42
7821.68
7821.92
7822.17
7822.41
7822.64
7822.88
7823.11
7823.34
7823.56
7823.78
7824
7824.21
7824.42
7824.63
7824.83
7825.03
7825.23
7825.43
7825.62
7825.81
7825.99
7826.18
7826.36
7826.53
7826.71
7826.88
7827.05
7827.21
7827.38
7827.54
7827.7
7827.86
7828.01
7828.16
7828.31
7828.46
7828.62
7828.75
7828.87
7829.01
7829.13
7829.26
7829.39
7829.52
7829.64
7829.76
7829.88
7830
7830.12
7830.23
7830.35
7830.46
7830.57
7830.69
7830.79
7830.9
7831
7831.1
7831.21
7831.31
7831.41
7831.51
7831.61
7831.71
7831.81
7831.9
7832
7832.09
7832.19
7832.27
7832.36
7832.44
7832.52
7832.62
7832.69
7832.82
7832.89
7832.94
7833
7833.06
7833.13
7833.19
7833.26
7833.32
7833.39
7833.45
7833.52
7833.58
7833.64
7833.7
7833.77
7833.83
7833.89
7833.95
7834.01
7834.07
7834.12
7834.18
7834.24
7834.3
7834.36
7834.42
7834.48
7834.54
7834.6
7834.65
7834.71
7834.77
7834.83
7834.88
7834.94
7835
7835.05
7835.11
7835.16
7835.22
7835.27
7835.33
7835.38
7835.43
7835.49
7835.54
7835.59
7835.64
7835.7
7835.75
7835.8
7835.85
7835.9
7835.95
7836
7836.04
7836.09
7836.14
7836.19
7836.23
7836.28
7836.32
7836.37
7836.41
7836.46
7836.5
7836.55
7836.59
7836.63
7836.67
7836.71
7836.76
7836.8
7836.84
7836.88
7836.92
7836.95
7836.99
7837.03
7837.07
7837.11
7837.14
7837.18
7837.21
7837.25
7837.28
7837.32
7837.35
7837.39
7837.42
7837.45
7837.48
7837.53
8015.87
8032.56
8042.53
8052.11
8061.95
8071.86
8081.82
8091.71
8101.48
8111.16
8120.79
8130.39
8139.91
8149.32
8158.62
8167.83
8176.96
8186
8194.95
8203.78
8212.51
8221.13
8229.64
8238.05
8246.34
8254.5
8262.54
8270.47
8278.26
8285.91
8293.43
8300.83
8308.09
8315.2
8322.16
8328.98
8335.65
8342.17
8348.56
8354.78
8360.85
8366.77
8372.55
8378.18
8383.64
8388.93
8394.07
8399.08
8403.91
8408.56
8413.05
8417.39
8421.58
8425.6
8429.39
8433
8436.57
8440.02
8443.25
8446.31
8449.22
8451.91
8454.42
8456.82
8459.12
8461.16
8462.91
8464.48
8466.23
8467.65
8468.83
8469.91
8470.89
8471.65
8472.15
8472.34
8472.15
8472.18
8472.08
8471.62
8470.92
8470.02
8468.74
8467.46
8466.18
8465
8463.57
8462.08
8460.42
8458.49
8456.15
8453.64
8453.67
8454.9
8448.26
8430
8437.64
8435.33
8429.81
8426.66
8422.22
8416.31
8412.51
8407.79
8402.73
8397.65
8392.31
8387.11
8381.92
8376.35
8370.13
8364.02
8358.23
8352.1
8349.29
8342.03
8330.56
8322.9
8315.18
8307.37
8299.94
8291.91
8283.47
8275.2
8266.94
8258.69
8250.27
8241.54
8233.06
8224.64
8216.11
8209.46
8200.82
8190.16
8181.25
8172.58
8164.49
8156.2
8148.13
8139.88
8131.72
8123.79
8115.96
8108.21
8100.54
8093.03
8085.74
8078.62
8071.57
8064.61
8057.85
8051.3
8044.86
8038.53
8032.39
8026.44
8020.66
8014.93
8009.37
8003.98
7998.78
7993.67
7988.66
7983.85
7979.19
7974.61
7970.13
7965.82
7961.66
7957.59
7953.59
7949.75
7946.04
7942.38
7938.8
7935.39
7932.08
7928.82
7925.63
7922.55
7919.59
7916.68
7913.84
7911.11
7908.45
7905.83
7903.28
7900.82
7898.42
7896.08
7893.8
7891.57
7889.39
7887.26
7885.19
7883.21
7881.21
7879.26
7877.38
7875.54
7873.72
7871.93
7870.2
7868.49
7866.82
7865.19
7863.59
7862.02
7860.44
7858.89
7857.39
7855.94
7854.5
7853.05
7851.62
7850.22
7848.85
7847.54
7846.21
7844.87
7843.54
7842.27
7841.05
7839.82
7838.58
7837.36
7836.17
7834.97
7833.8
7832.67
7831.59
7830.5
7829.39
7828.33
7827.31
7826.25
7825.22
7824.23
7823.29
7822.33
7821.38
7820.46
7819.58
7818.72
7817.84
7817.03
7816.22
7815.41
7814.6
7813.84
7813.11
7812.38
7811.69
7811.02
7810.36
7809.69
7809.06
7808.48
7807.89
7807.31
7806.75
7806.22
7805.71
7805.23
7804.74
7804.28
7803.84
7803.43
7803.01
7802.62
7802.25
7801.91
7801.58
7801.26
7800.95
7800.66
7800.4
7800.15
7799.92
7799.7
7799.5
7799.31
7799.14
7798.98
7798.84
7798.72
7798.61
7798.51
7798.42
7798.36
7798.31
7798.27
7798.25
7798.24
7798.24
7798.26
7798.29
7798.33
7798.38
7798.45
7798.53
7798.62
7798.73
7798.84
7798.97
7799.1
7799.25
7799.41
7799.58
7799.76
7799.95
7800.15
7800.36
7800.58
7800.81
7801.04
7801.29
7801.54
7801.8
7802.06
7802.34
7802.62
7802.91
7803.2
7803.5
7803.81
7804.12
7804.43
7804.75
7805.08
7805.4
7805.74
7806.07
7806.41
7806.75
7807.09
7807.44
7807.78
7808.13
7808.48
7808.83
7809.18
7809.53
7809.89
7810.24
7810.59
7810.94
7811.29
7811.64
7811.98
7812.33
7812.68
7813.02
7813.36
7813.7
7814.03
7814.37
7814.7
7815.03
7815.35
7815.68
7816
7816.32
7816.63
7816.94
7817.25
7817.55
7817.86
7818.15
7818.45
7818.74
7819.03
7819.31
7819.59
7819.87
7820.14
7820.41
7820.67
7820.94
7821.2
7821.45
7821.7
7821.95
7822.19
7822.43
7822.67
7822.9
7823.14
7823.36
7823.59
7823.81
7824.02
7824.24
7824.45
7824.65
7824.86
7825.06
7825.26
7825.45
7825.64
7825.83
7826.02
7826.2
7826.38
7826.56
7826.73
7826.9
7827.07
7827.24
7827.4
7827.56
7827.71
7827.88
7828.03
7828.2
7828.34
7828.47
7828.61
7828.74
7828.87
7829.01
7829.14
7829.26
7829.39
7829.52
7829.64
7829.76
7829.89
7830
7830.12
7830.24
7830.36
7830.47
7830.57
7830.69
7830.79
7830.9
7831
7831.11
7831.21
7831.32
7831.42
7831.52
7831.62
7831.72
7831.81
7831.92
7832.01
7832.1
7832.18
7832.29
7832.36
7832.5
7832.57
7832.63
7832.7
7832.77
7832.85
7832.92
7833
7833.07
7833.14
7833.21
7833.27
7833.34
7833.4
7833.46
7833.52
7833.59
7833.65
7833.71
7833.77
7833.83
7833.89
7833.95
7834.01
7834.07
7834.13
7834.19
7834.25
7834.31
7834.37
7834.43
7834.48
7834.54
7834.6
7834.66
7834.72
7834.77
7834.83
7834.89
7834.95
7835
7835.06
7835.11
7835.17
7835.22
7835.28
7835.33
7835.39
7835.44
7835.49
7835.55
7835.6
7835.65
7835.7
7835.75
7835.8
7835.85
7835.9
7835.95
7836
7836.05
7836.1
7836.14
7836.19
7836.24
7836.28
7836.33
7836.38
7836.42
7836.46
7836.51
7836.55
7836.59
7836.64
7836.68
7836.72
7836.76
7836.8
7836.84
7836.88
7836.92
7836.96
7837
7837.04
7837.08
7837.11
7837.15
7837.19
7837.22
7837.26
7837.29
7837.33
7837.36
7837.39
7837.43
7837.46
7837.49
7837.53
8015.61
8032.41
8042.48
8052.12
8062.03
8072.01
8082.03
8092
8101.84
8111.57
8121.26
8130.91
8140.49
8149.94
8159.29
8168.55
8177.73
8186.85
8195.86
8204.76
8213.53
8222.2
8230.78
8239.27
8247.62
8255.85
8263.94
8271.9
8279.74
8287.46
8295.04
8302.49
8309.8
8316.97
8323.97
8330.83
8337.53
8344.09
8350.53
8356.82
8362.93
8368.88
8374.68
8380.32
8385.8
8390.97
8396.03
8401.16
8406.09
8410.65
8415.09
8419.54
8423.87
8427.85
8431.29
8434.71
8438.65
8442.3
8445.52
8448.54
8451.37
8454.07
8456.6
8459.02
8461.25
8463.26
8465.1
8466.75
8468.08
8469.33
8470.58
8471.6
8472.38
8472.96
8473.36
8473.54
8473.45
8473.24
8472.9
8472.35
8471.59
8470.66
8469.49
8468.07
8466.77
8465.34
8463.72
8461.89
8460.04
8457.98
8455.81
8453.55
8451.03
8447.84
8444.59
8444.17
8445.15
8438.06
8419.07
8425.79
8422.91
8416.42
8412.68
8407.78
8401.15
8396.61
8391.33
8385.66
8380.32
8374.55
8368.79
8362.87
8356.79
8350.01
8343.39
8336.76
8330.09
8326.65
8318.89
8306.92
8298.8
8290.77
8282.57
8274.63
8266.18
8257.56
8249.02
8240.49
8232.06
8223.53
8214.66
8206.19
8197.44
8189.22
8181.18
8174.37
8166.1
8155.97
8147.55
8139.37
8131.18
8123.34
8115.46
8107.56
8099.87
8092.36
8084.98
8077.75
8070.57
8063.68
8056.95
8050.32
8043.78
8037.52
8031.39
8025.39
8019.54
8013.78
8008.27
8002.91
7997.68
7992.58
7987.61
7982.79
7978.1
7973.55
7969.1
7964.8
7960.64
7956.57
7952.62
7948.79
7945.06
7941.44
7937.91
7934.5
7931.17
7927.95
7924.8
7921.72
7918.78
7915.89
7913.09
7910.37
7907.72
7905.14
7902.59
7900.17
7897.79
7895.47
7893.21
7891
7888.85
7886.73
7884.65
7882.69
7880.74
7878.82
7876.95
7875.11
7873.29
7871.55
7869.83
7868.14
7866.45
7864.85
7863.25
7861.68
7860.12
7858.61
7857.12
7855.63
7854.21
7852.78
7851.37
7849.99
7848.6
7847.23
7845.95
7844.64
7843.34
7842.05
7840.77
7839.57
7838.34
7837.13
7835.94
7834.75
7833.61
7832.47
7831.31
7830.25
7829.17
7828.11
7827.06
7826.03
7825
7824.01
7823.06
7822.1
7821.16
7820.23
7819.36
7818.48
7817.61
7816.77
7815.97
7815.17
7814.39
7813.6
7812.89
7812.16
7811.46
7810.78
7810.11
7809.47
7808.84
7808.21
7807.64
7807.08
7806.52
7805.99
7805.45
7804.99
7804.51
7804.05
7803.61
7803.19
7802.79
7802.39
7802.01
7801.69
7801.35
7801.04
7800.74
7800.45
7800.19
7799.92
7799.71
7799.49
7799.29
7799.1
7798.94
7798.78
7798.64
7798.52
7798.41
7798.32
7798.24
7798.16
7798.13
7798.09
7798.07
7798.06
7798.06
7798.08
7798.12
7798.16
7798.22
7798.29
7798.37
7798.46
7798.57
7798.69
7798.82
7798.96
7799.1
7799.27
7799.44
7799.63
7799.82
7800.02
7800.23
7800.45
7800.68
7800.92
7801.17
7801.43
7801.69
7801.96
7802.24
7802.52
7802.81
7803.11
7803.41
7803.72
7804.04
7804.36
7804.68
7805.01
7805.34
7805.68
7806.01
7806.36
7806.7
7807.05
7807.39
7807.74
7808.1
7808.45
7808.8
7809.16
7809.51
7809.87
7810.22
7810.57
7810.93
7811.28
7811.63
7811.98
7812.33
7812.68
7813.02
7813.36
7813.7
7814.04
7814.38
7814.71
7815.04
7815.37
7815.7
7816.02
7816.34
7816.65
7816.96
7817.27
7817.58
7817.88
7818.18
7818.47
7818.77
7819.05
7819.34
7819.62
7819.9
7820.17
7820.44
7820.7
7820.97
7821.23
7821.48
7821.73
7821.98
7822.22
7822.47
7822.7
7822.94
7823.17
7823.39
7823.62
7823.84
7824.05
7824.27
7824.48
7824.68
7824.89
7825.09
7825.29
7825.48
7825.67
7825.86