/*--------------------------------*- C++ -*----------------------------------*\
| =========                 |                                                 |
| \\      /  F ield         | OpenFOAM: The Open Source CFD Toolbox           |
|  \\    /   O peration     | Version:  v2006                                 |
|   \\  /    A nd           | Website:  www.openfoam.com                      |
|    \\/     M anipulation  |                                                 |
\*---------------------------------------------------------------------------*/
FoamFile
{
    version     2.0;
    format      ascii;
    class       surfaceScalarField;
    location    "3";
    object      phi;
}
// * * * * * * * * * * * * * * * * * * * * * * * * * * * * * * * * * * * * * //

dimensions      [0 3 -1 0 0 0 0];
oriented        oriented;


internalField   nonuniform List<scalar> 
65390
(
1.48775e-05
-1.77871e-06
1.66369e-05
-1.76191e-06
1.84141e-05
-1.77923e-06
2.0227e-05
-1.81428e-06
2.20541e-05
-1.82775e-06
2.38503e-05
-1.79608e-06
2.56021e-05
-1.75088e-06
2.73268e-05
-1.72312e-06
2.90976e-05
-1.76865e-06
3.09187e-05
-1.81874e-06
3.27409e-05
-1.81953e-06
3.45312e-05
-1.78743e-06
3.63326e-05
-1.79866e-06
3.81063e-05
-1.771e-06
3.98776e-05
-1.76898e-06
4.16816e-05
-1.80205e-06
4.34712e-05
-1.78804e-06
4.52246e-05
-1.75218e-06
4.69581e-05
-1.73292e-06
4.86194e-05
-1.66126e-06
5.01859e-05
-1.56704e-06
5.16651e-05
-1.48015e-06
5.3146e-05
-1.48238e-06
5.47681e-05
-1.62391e-06
5.64567e-05
-1.69086e-06
5.7978e-05
-1.52382e-06
5.92033e-05
-1.22805e-06
6.03304e-05
-1.13009e-06
6.16366e-05
-1.30947e-06
6.30342e-05
-1.40103e-06
6.43246e-05
-1.29402e-06
6.54653e-05
-1.14422e-06
6.66762e-05
-1.21444e-06
6.78927e-05
-1.21993e-06
6.89463e-05
-1.05711e-06
6.98301e-05
-8.87072e-07
7.07021e-05
-8.75068e-07
7.1708e-05
-1.00881e-06
7.28027e-05
-1.09724e-06
7.37377e-05
-9.37318e-07
7.44435e-05
-7.07916e-07
7.51082e-05
-6.66478e-07
7.59146e-05
-8.08046e-07
7.68772e-05
-9.63885e-07
7.77062e-05
-8.29963e-07
7.82516e-05
-5.46073e-07
7.86748e-05
-4.23484e-07
7.91761e-05
-5.01243e-07
7.97986e-05
-6.22033e-07
8.04117e-05
-6.12382e-07
8.09594e-05
-5.46729e-07
8.1479e-05
-5.1849e-07
8.18783e-05
-3.97933e-07
8.21751e-05
-2.95296e-07
8.24704e-05
-2.93755e-07
8.28112e-05
-3.39275e-07
8.31275e-05
-3.14834e-07
8.3308e-05
-1.79059e-07
8.34252e-05
-1.15914e-07
8.35682e-05
-1.41796e-07
8.37111e-05
-1.418e-07
8.37236e-05
-1.15468e-08
8.34232e-05
3.0114e-07
8.29383e-05
4.85646e-07
8.25422e-05
3.9673e-07
8.2191e-05
3.51711e-07
8.16078e-05
5.83639e-07
8.07497e-05
8.58413e-07
7.98217e-05
9.28371e-07
7.88831e-05
9.39008e-07
7.77176e-05
1.16596e-06
7.63937e-05
1.32448e-06
7.46035e-05
1.79097e-06
7.20117e-05
2.59267e-06
6.85931e-05
3.41956e-06
6.37671e-05
4.82715e-06
5.70511e-05
6.71694e-06
4.73571e-05
9.69466e-06
3.87998e-05
8.55781e-06
3.42575e-05
4.54304e-06
3.15311e-05
2.72702e-06
3.0879e-05
6.52516e-07
2.99324e-05
9.47081e-07
2.98066e-05
1.25914e-07
3.0523e-05
-7.16304e-07
3.03318e-05
1.91242e-07
2.99988e-05
3.32956e-07
2.98978e-05
1.00928e-07
2.99242e-05
-2.65158e-08
2.97805e-05
1.43453e-07
2.95874e-05
1.92874e-07
2.94544e-05
1.32944e-07
2.91864e-05
2.6805e-07
2.88604e-05
3.26089e-07
2.83322e-05
5.28296e-07
2.76415e-05
6.90835e-07
2.65359e-05
1.10587e-06
2.52341e-05
1.30216e-06
2.29061e-05
2.32838e-06
2.02065e-05
2.70001e-06
1.83232e-05
1.88376e-06
1.76774e-05
6.46249e-07
1.77502e-05
-7.24217e-08
1.76567e-05
9.38641e-08
1.78825e-05
-2.25537e-07
1.81823e-05
-2.99726e-07
1.82355e-05
-5.31709e-08
1.81322e-05
1.03303e-07
1.80275e-05
1.04703e-07
1.79623e-05
6.52978e-08
1.78549e-05
1.07539e-07
1.77385e-05
1.16609e-07
1.75753e-05
1.6358e-07
1.73372e-05
2.38629e-07
1.69313e-05
4.06487e-07
1.64225e-05
5.09468e-07
1.54046e-05
1.01858e-06
1.42884e-05
1.11683e-06
1.36302e-05
6.58917e-07
1.3445e-05
1.85777e-07
1.34994e-05
-5.38209e-08
1.34392e-05
6.07274e-08
1.34957e-05
-5.6096e-08
1.35848e-05
-8.88209e-08
1.35474e-05
3.76316e-08
1.34875e-05
6.00943e-08
1.34324e-05
5.51639e-08
1.33527e-05
7.96883e-08
1.32696e-05
8.31724e-08
1.31815e-05
8.80221e-08
1.30815e-05
9.98967e-08
1.29719e-05
1.09415e-07
1.28482e-05
1.23429e-07
1.27132e-05
1.34774e-07
1.25746e-05
1.38216e-07
1.24373e-05
1.36859e-07
1.22927e-05
1.44208e-07
1.21394e-05
1.52835e-07
1.19837e-05
1.55349e-07
1.18312e-05
1.52109e-07
1.16702e-05
1.60728e-07
1.15018e-05
1.68233e-07
1.13321e-05
1.69488e-07
1.11631e-05
1.68818e-07
1.09861e-05
1.76942e-07
1.0805e-05
1.80981e-07
1.06243e-05
1.80613e-07
1.04466e-05
1.77601e-07
1.02621e-05
1.84358e-07
1.00724e-05
1.89569e-07
9.88184e-06
1.9043e-07
9.68553e-06
1.96203e-07
9.49745e-06
1.87979e-07
9.31676e-06
1.80584e-07
9.12834e-06
1.88319e-07
8.9305e-06
1.97733e-07
8.73449e-06
1.95895e-07
8.54859e-06
1.85805e-07
8.36679e-06
1.81715e-07
8.17716e-06
1.8956e-07
7.98288e-06
1.94226e-07
7.79548e-06
1.87359e-07
7.61792e-06
1.77539e-07
7.43648e-06
1.81428e-07
7.24559e-06
1.90899e-07
7.06138e-06
1.84232e-07
6.887e-06
1.7442e-07
6.71211e-06
1.74952e-07
6.53099e-06
1.81189e-07
6.34718e-06
1.83898e-07
6.17361e-06
1.73662e-07
6.00982e-06
1.63893e-07
5.84072e-06
1.69213e-07
5.66406e-06
1.76799e-07
5.49225e-06
1.71955e-07
5.32923e-06
1.63192e-07
5.16989e-06
1.59518e-07
5.00835e-06
1.6174e-07
4.84626e-06
1.62289e-07
4.68591e-06
1.60562e-07
4.52795e-06
1.58177e-07
4.37722e-06
1.50953e-07
4.22737e-06
1.50058e-07
4.07413e-06
1.53447e-07
3.92316e-06
1.51166e-07
3.7795e-06
1.43849e-07
3.64262e-06
1.37061e-07
3.50056e-06
1.42235e-07
3.35659e-06
1.44125e-07
3.2184e-06
1.38332e-07
3.08652e-06
1.32016e-07
2.95391e-06
1.32725e-07
2.82048e-06
1.33541e-07
2.69042e-06
1.30155e-07
2.56376e-06
1.26756e-07
2.4413e-06
1.22538e-07
2.31746e-06
1.23918e-07
2.19543e-06
1.22095e-07
2.07879e-06
1.16696e-07
1.96792e-06
1.10918e-07
1.85453e-06
1.13428e-07
1.73996e-06
1.14602e-07
1.6265e-06
1.13482e-07
1.51947e-06
1.0704e-07
1.41667e-06
1.02787e-07
1.3183e-06
9.83482e-08
1.2186e-06
9.96737e-08
1.11516e-06
1.034e-07
1.01647e-06
9.86341e-08
9.24646e-07
9.17696e-08
8.35116e-07
8.94647e-08
7.4157e-07
9.34751e-08
6.51888e-07
8.9607e-08
5.65031e-07
8.67806e-08
4.83028e-07
8.19254e-08
4.05316e-07
7.76356e-08
3.22649e-07
8.25915e-08
2.42873e-07
7.9703e-08
1.65121e-07
7.76811e-08
8.83165e-08
7.67363e-08
1.99635e-08
6.82879e-08
-4.61811e-08
6.6083e-08
-1.15142e-07
6.89036e-08
-1.84147e-07
6.89515e-08
-2.49425e-07
6.52278e-08
-3.12442e-07
6.29708e-08
-3.74581e-07
6.2096e-08
-4.32964e-07
5.83429e-08
-4.87342e-07
5.43399e-08
-5.4422e-07
5.68407e-08
-6.00546e-07
5.62926e-08
-6.54058e-07
5.34796e-08
-7.05898e-07
5.18108e-08
-7.54273e-07
4.83472e-08
-7.9939e-07
4.50906e-08
-8.4779e-07
4.83737e-08
-8.9555e-07
4.7735e-08
-9.40823e-07
4.52484e-08
-9.82888e-07
4.20403e-08
-1.02569e-06
4.27804e-08
-1.06687e-06
4.11585e-08
-1.10655e-06
3.96574e-08
-1.14488e-06
3.83047e-08
-1.18268e-06
3.77822e-08
-1.219e-06
3.62984e-08
-1.25382e-06
3.47886e-08
-1.29126e-06
3.7413e-08
-1.32583e-06
3.45483e-08
-1.35716e-06
3.13092e-08
-1.3895e-06
3.23158e-08
-1.42142e-06
3.18972e-08
-1.4524e-06
3.09547e-08
-1.48307e-06
3.06496e-08
-1.51255e-06
2.94508e-08
-1.54248e-06
2.99018e-08
-1.57153e-06
2.90223e-08
-1.59815e-06
2.65918e-08
-1.62443e-06
2.62449e-08
-1.65229e-06
2.78341e-08
-1.67907e-06
2.67596e-08
-1.70444e-06
2.53441e-08
-1.72795e-06
2.34834e-08
-1.75299e-06
2.50215e-08
-1.77789e-06
2.48778e-08
-1.80217e-06
2.42555e-08
-1.82603e-06
2.3833e-08
-1.84943e-06
2.33726e-08
-1.87091e-06
2.14643e-08
-1.89151e-06
2.05781e-08
-1.91277e-06
2.12353e-08
-1.93431e-06
2.15203e-08
-1.95563e-06
2.1303e-08
-1.97645e-06
2.08078e-08
-1.99662e-06
2.01484e-08
-2.01641e-06
1.97716e-08
-2.0352e-06
1.87767e-08
-2.05395e-06
1.87311e-08
-2.07238e-06
1.8413e-08
-2.09043e-06
1.80358e-08
-2.10814e-06
1.76988e-08
-2.12595e-06
1.77973e-08
-2.14359e-06
1.76224e-08
-2.16006e-06
1.6459e-08
-2.17591e-06
1.58342e-08
-2.19118e-06
1.52603e-08
-2.20606e-06
1.48624e-08
-2.22113e-06
1.50662e-08
-2.23597e-06
1.48212e-08
-2.25023e-06
1.42536e-08
-2.26401e-06
1.37754e-08
-2.27688e-06
1.28628e-08
-2.28918e-06
1.22919e-08
-2.3017e-06
1.25111e-08
-2.31392e-06
1.22147e-08
-2.32569e-06
1.17602e-08
-2.33709e-06
1.13977e-08
-2.34799e-06
1.08925e-08
-2.35852e-06
1.0528e-08
-2.36878e-06
1.0255e-08
-2.37866e-06
9.8697e-09
-2.38815e-06
9.49271e-09
-2.39724e-06
9.08424e-09
-2.40586e-06
8.61988e-09
-2.41418e-06
8.32477e-09
-2.42213e-06
7.94369e-09
-2.42955e-06
7.42296e-09
-2.43639e-06
6.8377e-09
-2.4428e-06
6.41225e-09
-2.44897e-06
6.18032e-09
-2.45466e-06
5.68725e-09
-2.4598e-06
5.14602e-09
-2.46444e-06
4.64698e-09
-2.46862e-06
4.18593e-09
-2.47234e-06
3.71951e-09
-2.47556e-06
3.23392e-09
-2.47827e-06
2.71319e-09
-2.48047e-06
2.2051e-09
-2.48218e-06
1.71824e-09
-2.4834e-06
1.23321e-09
-2.48408e-06
6.83913e-10
-2.48418e-06
1.14014e-10
-2.48372e-06
-4.46487e-10
-2.4827e-06
-1.0195e-09
-2.48121e-06
-1.47619e-09
-2.47916e-06
-2.03757e-09
-2.47648e-06
-2.67597e-09
-2.47312e-06
-3.34884e-09
-2.46932e-06
-3.79348e-09
-2.46495e-06
-4.35463e-09
-2.46e-06
-4.94498e-09
-2.45445e-06
-5.53891e-09
-2.44827e-06
-6.17273e-09
-2.44145e-06
-6.81554e-09
-2.43401e-06
-7.43306e-09
-2.42593e-06
-8.06783e-09
-2.41724e-06
-8.68692e-09
-2.40794e-06
-9.2924e-09
-2.39804e-06
-9.89316e-09
-2.38755e-06
-1.0485e-08
-2.37646e-06
-1.1086e-08
-2.36479e-06
-1.16625e-08
-2.35261e-06
-1.21742e-08
-2.3399e-06
-1.27096e-08
-2.32664e-06
-1.32567e-08
-2.31282e-06
-1.38098e-08
-2.29846e-06
-1.43578e-08
-2.2836e-06
-1.48593e-08
-2.26824e-06
-1.53568e-08
-2.25239e-06
-1.58463e-08
-2.23604e-06
-1.63428e-08
-2.2192e-06
-1.68374e-08
-2.20196e-06
-1.7241e-08
-2.18433e-06
-1.76346e-08
-2.1663e-06
-1.80295e-08
-2.14788e-06
-1.84135e-08
-2.12911e-06
-1.87708e-08
-2.11001e-06
-1.91075e-08
-2.09058e-06
-1.94305e-08
-2.07083e-06
-1.97496e-08
-2.05075e-06
-2.00829e-08
-2.0304e-06
-2.03456e-08
-2.0098e-06
-2.0608e-08
-1.98895e-06
-2.08513e-08
-1.96789e-06
-2.1065e-08
-1.94663e-06
-2.12556e-08
-1.92521e-06
-2.14288e-08
-1.90363e-06
-2.15773e-08
-1.8819e-06
-2.17306e-08
-1.86004e-06
-2.18638e-08
-1.83804e-06
-2.19985e-08
-1.8159e-06
-2.21496e-08
-1.79364e-06
-2.22604e-08
-1.77129e-06
-2.23461e-08
-1.74888e-06
-2.24109e-08
-1.72642e-06
-2.24617e-08
-1.70392e-06
-2.24981e-08
-1.68142e-06
-2.25061e-08
-1.65891e-06
-2.25016e-08
-1.63642e-06
-2.24882e-08
-1.61395e-06
-2.2473e-08
-1.59149e-06
-2.24621e-08
-1.56905e-06
-2.2437e-08
-1.54666e-06
-2.23848e-08
-1.52436e-06
-2.23016e-08
-1.50216e-06
-2.21948e-08
-1.48007e-06
-2.20891e-08
-1.45809e-06
-2.19761e-08
-1.43623e-06
-2.18655e-08
-1.41447e-06
-2.17543e-08
-1.39283e-06
-2.16362e-08
-1.37131e-06
-2.15174e-08
-1.3499e-06
-2.14076e-08
-1.32861e-06
-2.12905e-08
-1.3075e-06
-2.11056e-08
-1.28655e-06
-2.09455e-08
-1.26577e-06
-2.07789e-08
-1.24516e-06
-2.06039e-08
-1.22472e-06
-2.04366e-08
-1.20443e-06
-2.02915e-08
-1.18427e-06
-2.015e-08
-1.16428e-06
-1.99922e-08
-1.14446e-06
-1.98164e-08
-1.12483e-06
-1.96244e-08
-1.10541e-06
-1.94207e-08
-1.08621e-06
-1.92022e-08
-1.06721e-06
-1.89977e-08
-1.04844e-06
-1.87648e-08
-1.02986e-06
-1.85785e-08
-1.0115e-06
-1.83596e-08
-9.93377e-07
-1.81229e-08
-9.7548e-07
-1.78968e-08
-9.57801e-07
-1.76787e-08
-9.40288e-07
-1.75133e-08
-9.23028e-07
-1.72594e-08
-9.05911e-07
-1.71181e-08
-8.8884e-07
-1.70717e-08
-8.72048e-07
-1.67939e-08
-8.55145e-07
-1.69056e-08
-8.38411e-07
-1.67365e-08
-8.2249e-07
-1.59232e-08
-8.06462e-07
-1.60315e-08
-7.90324e-07
-1.61415e-08
-7.75073e-07
-1.52536e-08
-7.57051e-07
-1.80245e-08
-7.39359e-07
-1.76942e-08
-7.2661e-07
-1.27517e-08
-7.11074e-07
-1.55375e-08
-6.98799e-07
-1.22759e-08
-6.91368e-07
-7.43006e-09
-6.92277e-07
9.09578e-10
-6.93566e-07
1.2918e-09
-6.86944e-07
-6.61766e-09
-6.79811e-07
-7.12692e-09
-6.70092e-07
-9.71077e-09
-6.59919e-07
-1.01635e-08
-6.48938e-07
-1.09689e-08
-6.37918e-07
-1.10065e-08
-6.26573e-07
-1.13301e-08
-6.15139e-07
-1.14167e-08
-6.03303e-07
-1.18163e-08
-5.9173e-07
-1.1553e-08
-5.79305e-07
-1.24031e-08
-5.66916e-07
-1.23654e-08
-5.55824e-07
-1.10682e-08
-5.4391e-07
-1.18887e-08
-5.32815e-07
-1.10685e-08
-5.23063e-07
-9.72487e-09
-5.15377e-07
-7.65729e-09
-5.07834e-07
-7.51384e-09
-4.98121e-07
-9.68162e-09
-4.8841e-07
-9.67918e-09
-4.78574e-07
-9.80135e-09
-4.68503e-07
-1.00341e-08
-4.59011e-07
-9.45175e-09
-4.49215e-07
-9.75357e-09
-4.39953e-07
-9.21431e-09
-4.29183e-07
-1.07195e-08
-4.18803e-07
-1.03251e-08
-4.1005e-07
-8.69181e-09
-4.00271e-07
-9.71184e-09
-3.90847e-07
-9.35109e-09
-3.84e-07
-6.76639e-09
-3.64711e-07
-1.92068e-08
-3.4807e-07
-1.65668e-08
-3.44371e-07
-3.65608e-09
-3.2888e-07
-1.55437e-08
-3.42058e-07
1.29276e-08
-3.62993e-07
2.01958e-08
-4.51653e-07
8.74953e-08
-5.35988e-07
8.2221e-08
-5.9363e-07
5.38918e-08
-6.29489e-07
3.24416e-08
-6.52359e-07
1.97897e-08
-6.67094e-07
1.19682e-08
-6.76628e-07
7.05075e-09
-6.82784e-07
3.92917e-09
-6.86632e-07
1.84919e-09
-6.88743e-07
3.13481e-10
-6.89484e-07
-8.78949e-10
-6.88906e-07
-2.04497e-09
-6.87317e-07
-2.9234e-09
-6.84968e-07
-3.57144e-09
-6.8218e-07
-3.91386e-09
-6.78971e-07
-4.25525e-09
-6.75398e-07
-4.55223e-09
-6.71484e-07
-4.83722e-09
-6.67219e-07
-5.13923e-09
-6.62606e-07
-5.44594e-09
-6.57676e-07
-5.7234e-09
-6.52486e-07
-5.94579e-09
-6.471e-07
-6.10354e-09
-6.41572e-07
-6.20386e-09
-6.35939e-07
-6.26494e-09
-6.30216e-07
-6.30719e-09
-6.24375e-07
-6.37236e-09
-6.18407e-07
-6.44319e-09
-6.12329e-07
-6.49336e-09
-6.0611e-07
-6.57286e-09
-5.99723e-07
-6.67929e-09
-5.93144e-07
-6.8087e-09
-5.86345e-07
-6.96962e-09
-5.79307e-07
-7.15314e-09
-5.72032e-07
-7.33924e-09
-5.64548e-07
-7.50595e-09
-5.56909e-07
-7.62364e-09
-5.49174e-07
-7.69135e-09
-5.41386e-07
-7.72396e-09
-5.33578e-07
-7.73232e-09
-5.25789e-07
-7.70764e-09
-5.18054e-07
-7.65699e-09
-5.10404e-07
-7.57935e-09
-5.02877e-07
-7.46819e-09
-4.95506e-07
-7.32889e-09
-4.88294e-07
-7.18618e-09
-4.81213e-07
-7.07273e-09
-4.74206e-07
-7.01537e-09
-4.67207e-07
-7.02256e-09
-4.60158e-07
-7.08638e-09
-4.53011e-07
-7.19326e-09
-4.45734e-07
-7.32936e-09
-4.38326e-07
-7.46468e-09
-4.30847e-07
-7.5344e-09
-4.23441e-07
-7.46043e-09
-4.16261e-07
-7.22844e-09
-4.09348e-07
-6.95405e-09
-4.02564e-07
-6.81851e-09
-3.95642e-07
-6.94815e-09
-3.88441e-07
-7.21942e-09
-3.81185e-07
-7.2665e-09
-3.74287e-07
-6.90198e-09
-3.67939e-07
-6.34697e-09
-3.62002e-07
-5.93193e-09
-3.55899e-07
-6.09518e-09
-3.49326e-07
-6.56597e-09
-3.42693e-07
-6.62501e-09
-3.36492e-07
-6.1949e-09
-3.30736e-07
-5.75296e-09
-3.24712e-07
-6.02381e-09
-3.17962e-07
-6.75273e-09
-3.11082e-07
-6.88759e-09
-3.04539e-07
-6.5556e-09
-2.98046e-07
-6.5092e-09
-2.90953e-07
-7.11302e-09
-2.83618e-07
-7.35911e-09
-2.76925e-07
-6.71813e-09
-2.70749e-07
-6.20245e-09
-2.64378e-07
-6.39855e-09
-2.58267e-07
-6.13873e-09
-2.51939e-07
-6.35332e-09
-3.34532e-09
1.49194e-05
-3.57612e-06
1.67035e-05
-3.54238e-06
1.85092e-05
-3.58265e-06
2.0346e-05
-3.65009e-06
2.22052e-05
-3.68737e-06
2.40232e-05
-3.61558e-06
2.57929e-05
-3.52321e-06
2.75192e-05
-3.45305e-06
2.92418e-05
-3.4956e-06
3.09791e-05
-3.56086e-06
3.27473e-05
-3.5929e-06
3.4569e-05
-3.61423e-06
3.64235e-05
-3.65822e-06
3.8262e-05
-3.61431e-06
4.00723e-05
-3.58345e-06
4.18335e-05
-3.56674e-06
4.35574e-05
-3.51458e-06
4.5246e-05
-3.44268e-06
4.6919e-05
-3.40694e-06
4.85634e-05
-3.30583e-06
5.01865e-05
-3.18932e-06
5.17397e-05
-3.03191e-06
5.32762e-05
-3.01661e-06
5.47961e-05
-3.14099e-06
5.62982e-05
-3.18964e-06
5.77373e-05
-2.95912e-06
5.91185e-05
-2.60505e-06
6.04378e-05
-2.44479e-06
6.17939e-05
-2.66081e-06
6.31375e-05
-2.7397e-06
6.43925e-05
-2.54395e-06
6.55495e-05
-2.29615e-06
6.6645e-05
-2.30488e-06
6.78676e-05
-2.4376e-06
6.91214e-05
-2.30617e-06
7.02166e-05
-1.97779e-06
7.11017e-05
-1.75588e-06
7.18674e-05
-1.77059e-06
7.27219e-05
-1.94829e-06
7.3734e-05
-1.94646e-06
7.47062e-05
-1.67775e-06
7.55274e-05
-1.48578e-06
7.62635e-05
-1.54281e-06
7.70321e-05
-1.73179e-06
7.78793e-05
-1.67703e-06
7.86445e-05
-1.31176e-06
7.92293e-05
-1.00931e-06
7.97549e-05
-1.02834e-06
8.03341e-05
-1.20316e-06
8.09586e-05
-1.2391e-06
8.15466e-05
-1.13728e-06
8.20374e-05
-1.01195e-06
8.23885e-05
-7.5192e-07
8.26573e-05
-5.66964e-07
8.29265e-05
-5.65781e-07
8.32172e-05
-6.32617e-07
8.34779e-05
-5.7786e-07
8.35911e-05
-2.94172e-07
8.36513e-05
-1.77583e-07
8.37309e-05
-2.22203e-07
8.38297e-05
-2.41045e-07
8.38638e-05
-4.57885e-08
8.35804e-05
5.84734e-07
8.32644e-05
8.01888e-07
8.2962e-05
6.99586e-07
8.26045e-05
7.09625e-07
8.20451e-05
1.1433e-06
8.12924e-05
1.61146e-06
8.03973e-05
1.82368e-06
7.94649e-05
1.87171e-06
7.84833e-05
2.14773e-06
7.73116e-05
2.4962e-06
7.59501e-05
3.15246e-06
7.43462e-05
4.19652e-06
7.28605e-05
4.90514e-06
7.17024e-05
5.98506e-06
7.14225e-05
6.99657e-06
7.22738e-05
8.843e-06
6.92147e-05
1.16172e-05
6.13242e-05
1.24334e-05
5.11079e-05
1.29429e-05
4.18772e-05
9.88355e-06
3.75243e-05
5.29958e-06
3.41953e-05
3.45449e-06
3.24156e-05
1.06295e-06
3.07057e-05
1.90043e-06
2.95834e-05
1.45457e-06
2.97751e-05
-9.14378e-08
3.03905e-05
-6.42674e-07
3.01701e-05
3.63037e-07
2.99644e-05
3.97807e-07
2.98539e-05
2.42871e-07
2.95883e-05
5.33088e-07
2.93316e-05
5.82224e-07
2.91188e-05
7.40795e-07
2.87541e-05
1.0553e-06
2.84132e-05
1.44669e-06
2.8016e-05
1.69945e-06
2.79958e-05
2.34875e-06
2.7656e-05
3.04011e-06
2.66236e-05
2.91643e-06
2.43195e-05
2.95066e-06
2.15087e-05
2.73864e-06
1.95336e-05
2.06916e-06
1.85292e-05
7.78952e-07
1.81336e-05
9.59924e-08
1.79148e-05
1.65718e-07
1.77194e-05
2.98823e-07
1.78423e-05
-1.80608e-08
1.80787e-05
-1.70889e-07
1.80888e-05
9.77726e-08
1.79826e-05
2.23298e-07
1.78478e-05
2.98913e-07
1.76783e-05
4.08798e-07
1.75523e-05
5.33188e-07
1.74253e-05
6.3721e-07
1.74631e-05
9.81437e-07
1.73595e-05
1.22115e-06
1.69173e-05
1.10188e-06
1.58731e-05
1.23062e-06
1.46973e-05
1.12268e-06
1.40087e-05
7.49948e-07
1.36616e-05
2.91619e-07
1.35291e-05
4.42393e-08
1.34064e-05
1.6083e-07
1.34236e-05
4.3433e-08
1.34788e-05
4.68734e-10
1.34119e-05
1.46962e-07
1.3311e-05
1.84342e-07
1.32039e-05
1.95342e-07
1.30864e-05
2.17581e-07
1.29752e-05
2.20697e-07
1.28587e-05
2.39929e-07
1.27271e-05
2.66303e-07
1.25884e-05
2.76704e-07
1.24436e-05
2.81443e-07
1.22938e-05
2.93668e-07
1.21404e-05
3.05964e-07
1.19876e-05
3.07766e-07
1.18328e-05
3.06501e-07
1.16687e-05
3.24369e-07
1.1502e-05
3.34388e-07
1.13362e-05
3.34806e-07
1.11645e-05
3.40108e-07
1.09852e-05
3.55793e-07
1.0806e-05
3.59746e-07
1.06285e-05
3.57782e-07
1.04473e-05
3.58477e-07
1.02574e-05
3.73859e-07
1.00682e-05
3.78551e-07
9.88124e-06
3.77046e-07
9.68999e-06
3.87162e-07
9.50099e-06
3.76695e-07
9.31284e-06
3.68477e-07
9.12132e-06
3.79621e-07
8.92608e-06
3.92785e-07
8.73477e-06
3.87083e-07
8.5483e-06
3.72196e-07
8.3611e-06
3.68905e-07
8.17017e-06
3.8053e-07
7.97844e-06
3.86048e-07
7.79127e-06
3.74659e-07
7.61006e-06
3.589e-07
7.42799e-06
3.63666e-07
7.23963e-06
3.79415e-07
7.05432e-06
3.69708e-07
6.87599e-06
3.52907e-07
6.70094e-06
3.50145e-07
6.52275e-06
3.59506e-07
6.34043e-06
3.66345e-07
6.16606e-06
3.48145e-07
5.99951e-06
3.30555e-07
5.82895e-06
3.399e-07
5.65369e-06
3.52209e-07
5.48669e-06
3.39122e-07
5.3236e-06
3.26468e-07
5.15858e-06
3.24755e-07
4.99673e-06
3.23839e-07
4.83875e-06
3.20542e-07
4.68278e-06
3.16823e-07
4.52704e-06
3.14226e-07
4.37259e-06
3.0572e-07
4.21883e-06
3.04132e-07
4.06627e-06
3.06323e-07
3.91829e-06
2.99449e-07
3.77501e-06
2.87432e-07
3.63523e-06
2.77116e-07
3.49527e-06
2.82459e-07
3.35524e-06
2.84395e-07
3.21693e-06
2.76862e-07
3.08029e-06
2.6886e-07
2.94574e-06
2.67449e-07
2.81364e-06
2.6581e-07
2.6865e-06
2.57448e-07
2.56312e-06
2.50278e-07
2.43956e-06
2.46222e-07
2.31322e-06
2.50374e-07
2.19122e-06
2.44195e-07
2.07551e-06
2.32501e-07
1.96292e-06
2.23583e-07
1.85034e-06
2.2607e-07
1.73729e-06
2.27698e-07
1.62416e-06
2.26636e-07
1.51932e-06
2.11895e-07
1.41762e-06
2.04471e-07
1.31584e-06
2.00104e-07
1.21235e-06
2.03124e-07
1.11028e-06
2.05418e-07
1.0154e-06
1.93457e-07
9.23149e-07
1.83947e-07
8.29658e-07
1.82875e-07
7.36399e-07
1.86648e-07
6.49365e-07
1.76552e-07
5.6423e-07
1.71824e-07
4.80521e-07
1.65542e-07
4.00277e-07
1.57787e-07
3.19744e-07
1.63033e-07
2.41351e-07
1.58006e-07
1.64077e-07
1.54868e-07
8.85889e-08
1.5214e-07
1.83714e-08
1.38424e-07
-5.15236e-08
1.35901e-07
-1.18906e-07
1.36212e-07
-1.86084e-07
1.36058e-07
-2.51979e-07
1.31054e-07
-3.14507e-07
1.25431e-07
-3.75773e-07
1.23296e-07
-4.34811e-07
1.17316e-07
-4.91621e-07
1.11086e-07
-5.47324e-07
1.12481e-07
-6.03217e-07
1.12124e-07
-6.56511e-07
1.06712e-07
-7.07202e-07
1.0244e-07
-7.56327e-07
9.7411e-08
-8.0318e-07
9.18831e-08
-8.49038e-07
9.41716e-08
-8.94977e-07
9.36148e-08
-9.42105e-07
9.23193e-08
-9.87046e-07
8.69253e-08
-1.02976e-06
8.54407e-08
-1.06967e-06
8.10133e-08
-1.10864e-06
7.85761e-08
-1.14755e-06
7.71556e-08
-1.18494e-06
7.51228e-08
-1.22055e-06
7.18638e-08
-1.25617e-06
7.03558e-08
-1.2931e-06
7.42943e-08
-1.32803e-06
6.94351e-08
-1.36029e-06
6.35267e-08
-1.39207e-06
6.40513e-08
-1.42374e-06
6.3525e-08
-1.45428e-06
6.14518e-08
-1.48482e-06
6.11464e-08
-1.51447e-06
5.90569e-08
-1.54298e-06
5.83778e-08
-1.57093e-06
5.69295e-08
-1.59882e-06
5.44492e-08
-1.62728e-06
5.46748e-08
-1.65514e-06
5.56621e-08
-1.6805e-06
5.2083e-08
-1.70514e-06
4.99615e-08
-1.72979e-06
4.81014e-08
-1.75484e-06
5.00429e-08
-1.7795e-06
4.95049e-08
-1.80391e-06
4.86409e-08
-1.82743e-06
4.7328e-08
-1.85037e-06
4.62836e-08
-1.87217e-06
4.32386e-08
-1.89358e-06
4.19652e-08
-1.91515e-06
4.27879e-08
-1.93658e-06
4.2925e-08
-1.95767e-06
4.2372e-08
-1.97811e-06
4.12269e-08
-1.99826e-06
4.02757e-08
-2.01864e-06
4.01317e-08
-2.03797e-06
3.80963e-08
-2.0566e-06
3.73406e-08
-2.07469e-06
3.6492e-08
-2.09257e-06
3.58973e-08
-2.11011e-06
3.52203e-08
-2.12752e-06
3.5195e-08
-2.14512e-06
3.52108e-08
-2.16153e-06
3.28553e-08
-2.17731e-06
3.16054e-08
-2.19292e-06
3.08587e-08
-2.20821e-06
3.0133e-08
-2.22312e-06
2.99667e-08
-2.23776e-06
2.9452e-08
-2.25181e-06
2.82937e-08
-2.26547e-06
2.74368e-08
-2.2787e-06
2.60772e-08
-2.29148e-06
2.50751e-08
-2.30399e-06
2.50093e-08
-2.31612e-06
2.4341e-08
-2.32777e-06
2.34068e-08
-2.33907e-06
2.26917e-08
-2.35007e-06
2.18951e-08
-2.36082e-06
2.12712e-08
-2.37104e-06
2.04708e-08
-2.38083e-06
1.96621e-08
-2.39025e-06
1.89086e-08
-2.39924e-06
1.80827e-08
-2.40789e-06
1.72677e-08
-2.41619e-06
1.6632e-08
-2.424e-06
1.57572e-08
-2.43134e-06
1.47633e-08
-2.43826e-06
1.3767e-08
-2.44476e-06
1.29229e-08
-2.45091e-06
1.23328e-08
-2.45655e-06
1.13398e-08
-2.46171e-06
1.03132e-08
-2.46639e-06
9.34068e-09
-2.47061e-06
8.417e-09
-2.47438e-06
7.49855e-09
-2.47764e-06
6.51095e-09
-2.48038e-06
5.46962e-09
-2.48262e-06
4.45671e-09
-2.48437e-06
3.48217e-09
-2.48561e-06
2.48731e-09
-2.48629e-06
1.37542e-09
-2.4864e-06
2.47077e-10
-2.48599e-06
-8.46211e-10
-2.48504e-06
-1.95185e-09
-2.48358e-06
-2.92021e-09
-2.48153e-06
-4.0795e-09
-2.47886e-06
-5.32428e-09
-2.47562e-06
-6.57619e-09
-2.47181e-06
-7.59408e-09
-2.4674e-06
-8.74389e-09
-2.4624e-06
-9.92818e-09
-2.45679e-06
-1.11351e-08
-2.45056e-06
-1.23897e-08
-2.44372e-06
-1.36474e-08
-2.43626e-06
-1.48748e-08
-2.42819e-06
-1.61316e-08
-2.4195e-06
-1.73644e-08
-2.41021e-06
-1.85738e-08
-2.40032e-06
-1.97699e-08
-2.38984e-06
-2.09556e-08
-2.37877e-06
-2.2148e-08
-2.36712e-06
-2.33032e-08
-2.3549e-06
-2.43814e-08
-2.34213e-06
-2.54707e-08
-2.32881e-06
-2.65675e-08
-2.31495e-06
-2.76653e-08
-2.30056e-06
-2.87458e-08
-2.28566e-06
-2.97562e-08
-2.27025e-06
-3.07617e-08
-2.25435e-06
-3.17419e-08
-2.23797e-06
-3.27158e-08
-2.22115e-06
-3.36585e-08
-2.20392e-06
-3.44726e-08
-2.18624e-06
-3.53123e-08
-2.16816e-06
-3.61143e-08
-2.14969e-06
-3.6882e-08
-2.13086e-06
-3.76058e-08
-2.11168e-06
-3.82956e-08
-2.09215e-06
-3.89602e-08
-2.07232e-06
-3.95865e-08
-2.05223e-06
-4.01766e-08
-2.0319e-06
-4.06821e-08
-2.01125e-06
-4.12593e-08
-1.99035e-06
-4.17549e-08
-1.96924e-06
-4.21835e-08
-1.94792e-06
-4.25758e-08
-1.92644e-06
-4.29162e-08
-1.9048e-06
-4.32197e-08
-1.88298e-06
-4.35536e-08
-1.86102e-06
-4.38288e-08
-1.83894e-06
-4.40833e-08
-1.81674e-06
-4.43573e-08
-1.79443e-06
-4.45686e-08
-1.77205e-06
-4.4732e-08
-1.74961e-06
-4.4849e-08
-1.72713e-06
-4.4947e-08
-1.70461e-06
-4.50153e-08
-1.68208e-06
-4.504e-08
-1.65953e-06
-4.50519e-08
-1.63698e-06
-4.50357e-08
-1.61446e-06
-4.4995e-08
-1.59197e-06
-4.49468e-08
-1.56954e-06
-4.48694e-08
-1.54717e-06
-4.47542e-08
-1.52488e-06
-4.45893e-08
-1.5027e-06
-4.43761e-08
-1.48059e-06
-4.41964e-08
-1.45858e-06
-4.39946e-08
-1.43666e-06
-4.37843e-08
-1.41484e-06
-4.35695e-08
-1.39314e-06
-4.33329e-08
-1.37158e-06
-4.30827e-08
-1.35016e-06
-4.28297e-08
-1.32889e-06
-4.25527e-08
-1.30779e-06
-4.2208e-08
-1.28683e-06
-4.19107e-08
-1.26601e-06
-4.15962e-08
-1.24535e-06
-4.12649e-08
-1.22484e-06
-4.0944e-08
-1.2045e-06
-4.06282e-08
-1.18432e-06
-4.03256e-08
-1.16433e-06
-3.99785e-08
-1.14452e-06
-3.96334e-08
-1.1249e-06
-3.92432e-08
-1.10544e-06
-3.88757e-08
-1.0862e-06
-3.84432e-08
-1.06711e-06
-3.809e-08
-1.04828e-06
-3.75872e-08
-1.02964e-06
-3.72182e-08
-1.01129e-06
-3.67134e-08
-9.93278e-07
-3.61355e-08
-9.75449e-07
-3.5726e-08
-9.57929e-07
-3.51984e-08
-9.4033e-07
-3.51109e-08
-9.23049e-07
-3.45396e-08
-9.05575e-07
-3.45923e-08
-8.88439e-07
-3.42069e-08
-8.7212e-07
-3.31119e-08
-8.55994e-07
-3.30313e-08
-8.3954e-07
-3.31893e-08
-8.23529e-07
-3.19336e-08
-8.04512e-07
-3.50471e-08
-7.86196e-07
-3.44557e-08
-7.73406e-07
-2.80411e-08
-7.60575e-07
-3.08541e-08
-7.5056e-07
-2.77079e-08
-7.42586e-07
-2.07248e-08
-7.44348e-07
-1.37761e-08
-7.45121e-07
-1.15049e-08
-7.36774e-07
-1.57803e-08
-7.24626e-07
-1.12445e-08
-7.09877e-07
-1.34652e-08
-6.98308e-07
-1.81969e-08
-6.85946e-07
-1.95022e-08
-6.74566e-07
-2.11068e-08
-6.62865e-07
-2.18834e-08
-6.51365e-07
-2.24904e-08
-6.39672e-07
-2.27243e-08
-6.28054e-07
-2.29755e-08
-6.15439e-07
-2.40623e-08
-6.02933e-07
-2.43539e-08
-5.91903e-07
-2.26165e-08
-5.80921e-07
-2.34202e-08
-5.705e-07
-2.28238e-08
-5.60725e-07
-2.08802e-08
-5.53239e-07
-1.94146e-08
-5.45773e-07
-1.85759e-08
-5.35411e-07
-2.01307e-08
-5.24381e-07
-1.87323e-08
-5.12461e-07
-1.94829e-08
-5.02087e-07
-2.01061e-08
-4.90513e-07
-2.13069e-08
-4.80176e-07
-2.0194e-08
-4.67605e-07
-2.26648e-08
-4.5707e-07
-2.00515e-08
-4.47466e-07
-1.94283e-08
-4.39531e-07
-1.72272e-08
-4.31998e-07
-1.8339e-08
-4.23537e-07
-1.88824e-08
-4.16267e-07
-1.60692e-08
-3.95054e-07
-3.10411e-08
-3.76843e-07
-2.76872e-08
-3.73051e-07
-1.06782e-08
-3.68351e-07
-2.39933e-08
-3.87293e-07
2.37696e-09
-4.09109e-07
1.83952e-08
-5.11086e-07
8.69583e-08
-6.11868e-07
1.15142e-07
-6.76111e-07
8.72742e-08
-6.96707e-07
1.11864e-07
-6.83622e-07
7.48003e-08
-6.78097e-07
5.37696e-08
-6.80433e-07
3.9827e-08
-6.84665e-07
2.86738e-08
-6.88855e-07
2.04021e-08
-6.92248e-07
1.42912e-08
-6.94599e-07
9.75469e-09
-6.95839e-07
6.22539e-09
-6.96427e-07
3.73279e-09
-6.95987e-07
1.24384e-09
-6.94525e-07
-1.17875e-09
-6.92552e-07
-2.76936e-09
-6.90026e-07
-4.14276e-09
-6.86844e-07
-5.28548e-09
-6.83192e-07
-6.21839e-09
-6.79142e-07
-7.01651e-09
-6.74709e-07
-7.77205e-09
-6.69911e-07
-8.51632e-09
-6.64786e-07
-9.21829e-09
-6.59394e-07
-9.82961e-09
-6.53801e-07
-1.03193e-08
-6.48066e-07
-1.06869e-08
-6.42231e-07
-1.09609e-08
-6.3631e-07
-1.11875e-08
-6.30289e-07
-1.14142e-08
-6.242e-07
-1.16403e-08
-6.18011e-07
-1.1908e-08
-6.11635e-07
-1.22457e-08
-6.05108e-07
-1.25797e-08
-5.98447e-07
-1.29216e-08
-5.91649e-07
-1.32871e-08
-5.84724e-07
-1.36673e-08
-5.77689e-07
-1.40469e-08
-5.70553e-07
-1.44089e-08
-5.63319e-07
-1.47357e-08
-5.55972e-07
-1.50175e-08
-5.48521e-07
-1.52261e-08
-5.41004e-07
-1.53486e-08
-5.33459e-07
-1.53952e-08
-5.25896e-07
-1.53891e-08
-5.18343e-07
-1.53189e-08
-5.10843e-07
-1.51699e-08
-5.03433e-07
-1.49455e-08
-4.96124e-07
-1.46793e-08
-4.88895e-07
-1.44273e-08
-4.81711e-07
-1.42422e-08
-4.74537e-07
-1.41497e-08
-4.67358e-07
-1.41403e-08
-4.60171e-07
-1.41951e-08
-4.52964e-07
-1.43093e-08
-4.45712e-07
-1.44851e-08
-4.38393e-07
-1.4686e-08
-4.31033e-07
-1.4799e-08
-4.23722e-07
-1.46837e-08
-4.16554e-07
-1.43184e-08
-4.09537e-07
-1.39057e-08
-4.02558e-07
-1.37442e-08
-3.95533e-07
-1.39336e-08
-3.88525e-07
-1.4201e-08
-3.81687e-07
-1.40874e-08
-3.75153e-07
-1.34288e-08
-3.68935e-07
-1.25647e-08
-3.62519e-07
-1.23514e-08
-3.55783e-07
-1.28368e-08
-3.49071e-07
-1.3284e-08
-3.42685e-07
-1.30141e-08
-3.36694e-07
-1.21857e-08
-3.30486e-07
-1.19545e-08
-3.23741e-07
-1.27566e-08
-3.17059e-07
-1.34169e-08
-3.10719e-07
-1.32031e-08
-3.04574e-07
-1.26698e-08
-2.97894e-07
-1.31533e-08
-2.91239e-07
-1.37265e-08
-2.85114e-07
-1.3436e-08
-2.79143e-07
-1.26371e-08
-2.72986e-07
-1.23051e-08
-2.66891e-07
-1.24416e-08
-2.60491e-07
-1.24892e-08
-2.53503e-07
-1.32901e-08
-8.24944e-09
1.49597e-05
-5.37874e-06
1.67449e-05
-5.32927e-06
1.85496e-05
-5.38791e-06
2.03907e-05
-5.49087e-06
2.22494e-05
-5.54491e-06
2.40856e-05
-5.44991e-06
2.58747e-05
-5.30994e-06
2.76221e-05
-5.19753e-06
2.93547e-05
-5.2249e-06
3.10842e-05
-5.28699e-06
3.28255e-05
-5.33086e-06
3.45934e-05
-5.37891e-06
3.63591e-05
-5.42106e-06
3.814e-05
-5.39264e-06
3.99153e-05
-5.35662e-06
4.16651e-05
-5.31495e-06
4.33795e-05
-5.22796e-06
4.5059e-05
-5.12166e-06
4.67019e-05
-5.04977e-06
4.83308e-05
-4.93525e-06
4.99303e-05
-4.78982e-06
5.1517e-05
-4.62e-06
5.30658e-05
-4.56704e-06
5.45404e-05
-4.61756e-06
5.59157e-05
-4.56723e-06
5.73145e-05
-4.36042e-06
5.87504e-05
-4.0435e-06
6.01969e-05
-3.89392e-06
6.15694e-05
-4.03593e-06
6.28695e-05
-4.04245e-06
6.4116e-05
-3.79314e-06
6.53343e-05
-3.51709e-06
6.64768e-05
-3.44988e-06
6.76963e-05
-3.65955e-06
6.89661e-05
-3.57822e-06
7.01766e-05
-3.19056e-06
7.11833e-05
-2.76457e-06
7.20026e-05
-2.59153e-06
7.28001e-05
-2.74709e-06
7.37279e-05
-2.87506e-06
7.47387e-05
-2.68878e-06
7.56858e-05
-2.43242e-06
7.64989e-05
-2.35502e-06
7.72304e-05
-2.4619e-06
7.79956e-05
-2.44049e-06
7.88047e-05
-2.11879e-06
7.95866e-05
-1.78892e-06
8.02676e-05
-1.70693e-06
8.08651e-05
-1.79824e-06
8.14198e-05
-1.79159e-06
8.19306e-05
-1.6459e-06
8.23734e-05
-1.45294e-06
8.27823e-05
-1.15922e-06
8.30893e-05
-8.72645e-07
8.33314e-05
-8.06622e-07
8.35296e-05
-8.29825e-07
8.37018e-05
-7.49175e-07
8.38094e-05
-4.01057e-07
8.39019e-05
-2.6953e-07
8.39795e-05
-2.99621e-07
8.40296e-05
-2.91097e-07
8.39591e-05
2.44656e-08
8.38335e-05
7.09817e-07
8.37487e-05
8.86128e-07
8.35477e-05
8.99804e-07
8.31473e-05
1.10919e-06
8.25732e-05
1.7166e-06
8.20603e-05
2.1235e-06
8.1445e-05
2.43813e-06
8.06201e-05
2.69567e-06
7.97186e-05
3.04829e-06