/*--------------------------------*- C++ -*----------------------------------*\
| =========                 |                                                 |
| \\      /  F ield         | OpenFOAM: The Open Source CFD Toolbox           |
|  \\    /   O peration     | Version:  v2006                                 |
|   \\  /    A nd           | Website:  www.openfoam.com                      |
|    \\/     M anipulation  |                                                 |
\*---------------------------------------------------------------------------*/
FoamFile
{
    version     2.0;
    format      ascii;
    class       volVectorField;
    location    "3";
    object      U;
}
// * * * * * * * * * * * * * * * * * * * * * * * * * * * * * * * * * * * * * //

dimensions      [0 1 -1 0 0 0 0];


internalField   nonuniform List<vector> 
33000
(
(0.0606484 0 -0.00349111)
(0.0345294 0 -0.00345052)
(0.0410487 0 -0.00347712)
(0.0460612 0 -0.00355573)
(0.0530244 0 -0.00355483)
(0.058781 0 -0.00349624)
(0.0622278 0 -0.00341543)
(0.065518 0 -0.00337914)
(0.0699528 0 -0.00351209)
(0.075127 0 -0.00362263)
(0.0800154 0 -0.00357819)
(0.0841996 0 -0.00343833)
(0.0883282 0 -0.00339616)
(0.0929687 0 -0.00327025)
(0.0975323 0 -0.00321687)
(0.101983 0 -0.00332215)
(0.106465 0 -0.00333595)
(0.110815 0 -0.00331918)
(0.115161 0 -0.0032915)
(0.119516 0 -0.00314602)
(0.12358 0 -0.00280469)
(0.127369 0 -0.00261372)
(0.130963 0 -0.00262321)
(0.134827 0 -0.00309648)
(0.138968 0 -0.00329293)
(0.143123 0 -0.00293193)
(0.146661 0 -0.00203588)
(0.149393 0 -0.00190835)
(0.152383 0 -0.00237286)
(0.155835 0 -0.00258247)
(0.159246 0 -0.00228781)
(0.162214 0 -0.00203831)
(0.165119 0 -0.00232815)
(0.168261 0 -0.00227418)
(0.17117 0 -0.00186756)
(0.173525 0 -0.00142517)
(0.175582 0 -0.00159885)
(0.177961 0 -0.00208185)
(0.180637 0 -0.0021585)
(0.183244 0 -0.00161783)
(0.185312 0 -0.00106141)
(0.186914 0 -0.00103124)
(0.188656 0 -0.00162283)
(0.191011 0 -0.00201245)
(0.193343 0 -0.00143937)
(0.195031 0 -0.000803735)
(0.196134 0 -0.000650892)
(0.197246 0 -0.00102442)
(0.198738 0 -0.00121746)
(0.200272 0 -0.00111975)
(0.201658 0 -0.00102506)
(0.203029 0 -0.00104565)
(0.204322 0 -0.000801448)
(0.205108 0 -0.000578806)
(0.205726 0 -0.000591364)
(0.206532 0 -0.000702288)
(0.207491 0 -0.000575346)
(0.208109 0 -0.000317207)
(0.208335 0 -0.000189568)
(0.208634 0 -0.000222885)
(0.209158 0 -0.000170828)
(0.209477 0 0.000281217)
(0.209119 0 0.000733157)
(0.20776 0 0.00110189)
(0.20664 0 0.00080921)
(0.206016 0 0.000748243)
(0.20499 0 0.00135536)
(0.20289 0 0.00174789)
(0.200442 0 0.00178496)
(0.198306 0 0.0018489)
(0.195652 0 0.0024492)
(0.19218 0 0.00251498)
(0.188981 0 0.00351914)
(0.182641 0 0.00501535)
(0.177313 0 0.00745758)
(0.16474 0 0.0100609)
(0.159498 0 0.01674)
(0.140696 0 0.0257488)
(0.094402 0 0.0165627)
(0.0962503 0 0.00411265)
(0.0786478 0 -0.00308774)
(0.0777986 0 -0.00958356)
(0.0764122 0 -0.000109745)
(0.073575 0 0.000611251)
(0.0754905 0 0.000768424)
(0.0766898 0 0.000188453)
(0.075296 0 -0.000336724)
(0.074688 0 -0.000644929)
(0.074764 0 -0.00129678)
(0.0748268 0 -0.000450769)
(0.0741176 0 1.93193e-05)
(0.073799 0 0.000311311)
(0.0734462 0 0.000575506)
(0.0724951 0 0.000591453)
(0.0718131 0 0.0011553)
(0.0697779 0 0.00153818)
(0.0685536 0 0.00298831)
(0.0637961 0 0.00340798)
(0.0631019 0 0.00736701)
(0.0515842 0 0.0069893)
(0.048333 0 0.0032008)
(0.0439142 0 -0.00223353)
(0.0443867 0 -0.00433089)
(0.0442793 0 -0.00185546)
(0.0441525 0 -6.85466e-05)
(0.0452162 0 0.000860613)
(0.0456467 0 0.000693791)
(0.0455142 0 0.00045197)
(0.0451672 0 -0.000113212)
(0.0449739 0 -0.000360963)
(0.0448265 0 -0.000114335)
(0.0444517 0 0.000149235)
(0.0442472 0 0.000427749)
(0.0435816 0 0.000607528)
(0.0431706 0 0.00109609)
(0.0412735 0 0.00136221)
(0.0412937 0 0.00310721)
(0.0357923 0 0.0029542)
(0.0350526 0 0.00111134)
(0.0334312 0 -0.00112441)
(0.03375 0 -0.00179781)
(0.0336961 0 -0.000531476)
(0.0335653 0 0.000138566)
(0.0339097 0 0.000370229)
(0.0339676 0 0.000304242)
(0.0337829 0 9.147e-05)
(0.0336574 0 -2.40135e-05)
(0.0334927 0 7.98743e-05)
(0.0332764 0 0.000163953)
(0.0330695 0 0.000205114)
(0.0328335 0 0.000210492)
(0.0325738 0 0.000214875)
(0.0322821 0 0.000236726)
(0.0319576 0 0.000260887)
(0.031607 0 0.000270875)
(0.0312671 0 0.000269757)
(0.0309179 0 0.000287265)
(0.0305448 0 0.000306627)
(0.0301513 0 0.000309308)
(0.029769 0 0.000298546)
(0.0293844 0 0.000315378)
(0.0289667 0 0.000334589)
(0.028541 0 0.00033613)
(0.0281209 0 0.000330668)
(0.0276919 0 0.000346419)
(0.0272393 0 0.000357523)
(0.0267843 0 0.000356825)
(0.0263383 0 0.0003468)
(0.0258933 0 0.000360002)
(0.025416 0 0.000374883)
(0.024947 0 0.000377803)
(0.0244601 0 0.000387529)
(0.0239692 0 0.000368067)
(0.0235187 0 0.000351935)
(0.0230642 0 0.000370479)
(0.0225763 0 0.000390974)
(0.0220768 0 0.000387373)
(0.0215967 0 0.000365279)
(0.021147 0 0.000354367)
(0.0206861 0 0.000372292)
(0.0201996 0 0.000384425)
(0.0197155 0 0.000369225)
(0.0192632 0 0.000348175)
(0.0188265 0 0.000358202)
(0.0183545 0 0.000377554)
(0.0178749 0 0.00036113)
(0.0174329 0 0.000341455)
(0.0170023 0 0.000345962)
(0.0165582 0 0.000359786)
(0.0160963 0 0.000362418)
(0.0156409 0 0.00034106)
(0.0152279 0 0.000322139)
(0.0148213 0 0.000333357)
(0.0143816 0 0.0003486)
(0.0139397 0 0.000341425)
(0.0135224 0 0.000320709)
(0.0131242 0 0.000310158)
(0.0127255 0 0.000319505)
(0.0123164 0 0.000322401)
(0.0119154 0 0.000318586)
(0.0115142 0 0.000314015)
(0.0111265 0 0.000293773)
(0.0107599 0 0.000290678)
(0.0103766 0 0.000300967)
(0.00999484 0 0.000300026)
(0.00962096 0 0.00028389)
(0.00927792 0 0.000266545)
(0.00893441 0 0.00028174)
(0.00856886 0 0.000288225)
(0.00821441 0 0.000271819)
(0.00787818 0 0.00025405)
(0.00755461 0 0.000258065)
(0.00721475 0 0.000264354)
(0.00688847 0 0.000259094)
(0.0065633 0 0.000251033)
(0.00625667 0 0.000238941)
(0.005949 0 0.000240872)
(0.00563939 0 0.000240575)
(0.00533721 0 0.00022979)
(0.0050581 0 0.000216185)
(0.0047806 0 0.000224626)
(0.00449301 0 0.000226527)
(0.00420611 0 0.000221851)
(0.00392749 0 0.000211494)
(0.00366956 0 0.000203391)
(0.00341429 0 0.000191633)
(0.00317729 0 0.000192771)
(0.00291539 0 0.000203256)
(0.00266095 0 0.000196543)
(0.00242138 0 0.000179793)
(0.00220248 0 0.000173041)
(0.00197241 0 0.00018348)
(0.00173613 0 0.000178489)
(0.00152315 0 0.000171717)
(0.0013022 0 0.000159779)
(0.00111352 0 0.000150931)
(0.000912342 0 0.000163746)
(0.000701436 0 0.000158082)
(0.000512942 0 0.000153492)
(0.000312303 0 0.000150715)
(0.000129907 0 0.00013298)
(-3.0594e-05 0 0.000128077)
(-0.000200103 0 0.000136658)
(-0.000376095 0 0.000136156)
(-0.000544116 0 0.000126595)
(-0.000703349 0 0.000124717)
(-0.000858692 0 0.000123487)
(-0.00101439 0 0.000114034)
(-0.00114991 0 0.000105063)
(-0.00128747 0 0.000112831)
(-0.00143332 0 0.000110173)
(-0.00156958 0 0.000105002)
(-0.00170048 0 0.000103003)
(-0.00182938 0 9.44454e-05)
(-0.00194111 0 8.73427e-05)
(-0.00205707 0 9.79764e-05)
(-0.00218093 0 9.61285e-05)
(-0.00229765 0 8.70223e-05)
(-0.00240555 0 7.96036e-05)
(-0.00250977 0 8.31203e-05)
(-0.00261806 0 8.17599e-05)
(-0.00271669 0 7.85982e-05)
(-0.00281577 0 7.53594e-05)
(-0.00290873 0 7.49736e-05)
(-0.00300484 0 7.17106e-05)
(-0.00308966 0 6.81097e-05)
(-0.00318019 0 7.35828e-05)
(-0.00327563 0 6.70308e-05)
(-0.00335341 0 6.08193e-05)
(-0.00343262 0 6.40021e-05)
(-0.00351487 0 6.32121e-05)
(-0.00359208 0 6.11127e-05)
(-0.00367018 0 5.98567e-05)
(-0.00374478 0 5.75461e-05)
(-0.00381838 0 6.02994e-05)
(-0.00389377 0 5.78884e-05)
(-0.00396395 0 5.16063e-05)
(-0.00402659 0 4.99679e-05)
(-0.00409601 0 5.43672e-05)
(-0.00416494 0 5.37017e-05)
(-0.00423088 0 5.06565e-05)
(-0.00429064 0 4.53658e-05)
(-0.00434976 0 4.87769e-05)
(-0.00441476 0 4.8725e-05)
(-0.00447499 0 4.75047e-05)
(-0.00453559 0 4.72736e-05)
(-0.00459482 0 4.64527e-05)
(-0.00465196 0 4.19646e-05)
(-0.00470269 0 3.9874e-05)
(-0.00475486 0 4.17352e-05)
(-0.00480901 0 4.26481e-05)
(-0.00486248 0 4.19814e-05)
(-0.00491568 0 4.07513e-05)
(-0.00496645 0 3.91941e-05)
(-0.00501678 0 3.83795e-05)
(-0.00506501 0 3.6779e-05)
(-0.00511121 0 3.69722e-05)
(-0.00515837 0 3.63428e-05)
(-0.00520359 0 3.54923e-05)
(-0.00524846 0 3.49543e-05)
(-0.00529229 0 3.54737e-05)
(-0.0053375 0 3.45958e-05)
(-0.0053803 0 3.23184e-05)
(-0.00542003 0 3.11142e-05)
(-0.00545946 0 2.97727e-05)
(-0.00549642 0 2.90318e-05)
(-0.0055339 0 2.97597e-05)
(-0.00557175 0 2.91334e-05)
(-0.00560801 0 2.81265e-05)
(-0.00564316 0 2.71992e-05)
(-0.00567681 0 2.50728e-05)
(-0.00570754 0 2.3832e-05)
(-0.00573848 0 2.45772e-05)
(-0.00576996 0 2.40491e-05)
(-0.00579964 0 2.31846e-05)
(-0.00582879 0 2.24722e-05)
(-0.00585664 0 2.13292e-05)
(-0.00588328 0 2.04816e-05)
(-0.00590934 0 2.0153e-05)
(-0.00593453 0 1.94463e-05)
(-0.00595872 0 1.86971e-05)
(-0.00598203 0 1.79165e-05)
(-0.0060041 0 1.69298e-05)
(-0.0060252 0 1.63457e-05)
(-0.00604567 0 1.56812e-05)
(-0.00606495 0 1.46618e-05)
(-0.00608276 0 1.34066e-05)
(-0.00609911 0 1.25413e-05)
(-0.00611491 0 1.21361e-05)
(-0.0061299 0 1.11969e-05)
(-0.00614337 0 1.011e-05)
(-0.00615558 0 9.11356e-06)
(-0.0061666 0 8.20413e-06)
(-0.00617647 0 7.26697e-06)
(-0.00618517 0 6.32615e-06)
(-0.0061926 0 5.31248e-06)
(-0.00619871 0 4.30891e-06)
(-0.00620358 0 3.34488e-06)
(-0.00620727 0 2.40507e-06)
(-0.00620969 0 1.35125e-06)
(-0.00621064 0 2.31896e-07)
(-0.00621024 0 -8.97684e-07)
(-0.00620831 0 -2.06053e-06)
(-0.00620517 0 -2.93554e-06)
(-0.00620081 0 -4.00424e-06)
(-0.00619499 0 -5.26683e-06)
(-0.00618731 0 -6.65821e-06)
(-0.0061783 0 -7.44959e-06)
(-0.00616823 0 -8.52837e-06)
(-0.00615652 0 -9.69398e-06)
(-0.00614344 0 -1.08508e-05)
(-0.00612879 0 -1.20951e-05)
(-0.00611252 0 -1.33704e-05)
(-0.0060947 0 -1.45903e-05)
(-0.00607531 0 -1.58478e-05)
(-0.00605433 0 -1.7069e-05)
(-0.00603184 0 -1.82594e-05)
(-0.00600784 0 -1.94483e-05)
(-0.00598234 0 -2.06123e-05)
(-0.00595538 0 -2.17995e-05)
(-0.00592688 0 -2.29365e-05)
(-0.00589706 0 -2.39014e-05)
(-0.00586597 0 -2.4938e-05)
(-0.00583349 0 -2.60153e-05)
(-0.00579966 0 -2.71059e-05)
(-0.00576441 0 -2.81879e-05)
(-0.00572787 0 -2.91656e-05)
(-0.00569009 0 -3.0131e-05)
(-0.00565107 0 -3.1094e-05)
(-0.00561085 0 -3.20837e-05)
(-0.00556933 0 -3.30902e-05)
(-0.00552668 0 -3.38941e-05)
(-0.0054831 0 -3.46258e-05)
(-0.00543851 0 -3.53899e-05)
(-0.00539295 0 -3.61423e-05)
(-0.00534645 0 -3.68344e-05)
(-0.0052991 0 -3.74825e-05)
(-0.00525091 0 -3.80994e-05)
(-0.00520197 0 -3.87362e-05)
(-0.00515215 0 -3.94551e-05)
(-0.00510158 0 -4.00011e-05)
(-0.00505042 0 -4.04705e-05)
(-0.00499857 0 -4.09371e-05)
(-0.00494617 0 -4.13546e-05)
(-0.00489326 0 -4.17154e-05)
(-0.00483989 0 -4.20658e-05)
(-0.00478614 0 -4.23583e-05)
(-0.00473201 0 -4.26303e-05)
(-0.0046775 0 -4.28805e-05)
(-0.0046227 0 -4.31552e-05)
(-0.00456751 0 -4.34658e-05)
(-0.00451197 0 -4.36929e-05)
(-0.00445621 0 -4.38694e-05)
(-0.00440025 0 -4.40075e-05)
(-0.00434416 0 -4.41113e-05)
(-0.00428794 0 -4.41885e-05)
(-0.00423167 0 -4.42016e-05)
(-0.00417541 0 -4.41795e-05)
(-0.00411916 0 -4.41419e-05)
(-0.00406296 0 -4.41137e-05)
(-0.00400679 0 -4.41093e-05)
(-0.00395064 0 -4.40827e-05)
(-0.0038946 0 -4.39935e-05)
(-0.00383871 0 -4.38366e-05)
(-0.00378308 0 -4.36407e-05)
(-0.00372773 0 -4.34082e-05)
(-0.00367263 0 -4.31614e-05)
(-0.00361784 0 -4.29304e-05)
(-0.0035633 0 -4.26967e-05)
(-0.00350906 0 -4.24621e-05)
(-0.0034551 0 -4.22346e-05)
(-0.00340146 0 -4.20499e-05)
(-0.00334804 0 -4.18565e-05)
(-0.00329502 0 -4.14954e-05)
(-0.00324247 0 -4.11545e-05)
(-0.00319029 0 -4.08293e-05)
(-0.00313856 0 -4.04496e-05)
(-0.00308726 0 -4.01332e-05)
(-0.00303635 0 -3.98413e-05)
(-0.00298578 0 -3.96278e-05)
(-0.00293559 0 -3.93082e-05)
(-0.00288581 0 -3.90272e-05)
(-0.0028365 0 -3.85987e-05)
(-0.00278766 0 -3.82495e-05)
(-0.0027394 0 -3.77599e-05)
(-0.00269163 0 -3.74076e-05)
(-0.00264442 0 -3.69479e-05)
(-0.00259777 0 -3.65206e-05)
(-0.00255154 0 -3.61162e-05)
(-0.00250596 0 -3.52849e-05)
(-0.00246093 0 -3.50731e-05)
(-0.00241648 0 -3.4172e-05)
(-0.00237253 0 -3.45163e-05)
(-0.00232891 0 -3.35812e-05)
(-0.00228626 0 -3.41191e-05)
(-0.00224325 0 -3.2738e-05)
(-0.00220103 0 -3.28401e-05)
(-0.00215915 0 -3.13441e-05)
(-0.00211661 0 -3.34683e-05)
(-0.00207544 0 -3.21085e-05)
(-0.0020371 0 -3.56735e-05)
(-0.00199498 0 -3.16343e-05)
(-0.001957 0 -2.82386e-05)
(-0.00191795 0 -2.34175e-05)
(-0.00186728 0 -3.00038e-05)
(-0.00182999 0 -3.16857e-05)
(-0.00180295 0 -5.97359e-05)
(-0.00175162 0 -4.93006e-05)
(-0.00174475 0 -1.50026e-05)
(-0.00170857 0 1.38073e-05)
(-0.00175327 0 2.13195e-05)
(-0.00171742 0 -8.36538e-06)
(-0.00171544 0 -7.72085e-06)
(-0.00168464 0 -1.70296e-05)
(-0.00166511 0 -1.75758e-05)
(-0.00163486 0 -2.03811e-05)
(-0.0016096 0 -2.17151e-05)
(-0.00158007 0 -2.2244e-05)
(-0.00155279 0 -2.40438e-05)
(-0.00152281 0 -2.31138e-05)
(-0.00149385 0 -2.29273e-05)
(-0.00146462 0 -2.0856e-05)
(-0.00143195 0 -2.37419e-05)
(-0.0014027 0 -2.31303e-05)
(-0.00137644 0 -3.24156e-05)
(-0.00134283 0 -2.8113e-05)
(-0.00132196 0 -2.08394e-05)
(-0.00129234 0 -1.09413e-05)
(-0.00128458 0 -1.18722e-05)
(-0.00125561 0 -1.73847e-05)
(-0.00123419 0 -2.02424e-05)
(-0.00120852 0 -2.01781e-05)
(-0.0011837 0 -2.22006e-05)
(-0.00115946 0 -2.09758e-05)
(-0.00113494 0 -1.6053e-05)
(-0.00111177 0 -1.94103e-05)
(-0.00108736 0 -1.08239e-05)
(-0.00105907 0 -2.38406e-05)
(-0.00103451 0 -1.27976e-05)
(-0.00101634 0 -3.82162e-05)
(-0.00098409 0 -1.46877e-05)
(-0.00097154 0 -1.95006e-05)
(-0.000946766 0 1.36113e-05)
(-0.000877419 0 -1.70834e-05)
(-0.000863507 0 -2.37354e-06)
(-0.000858016 0 -0.000141148)
(-0.000784348 0 -7.99101e-05)
(-0.000933215 0 -2.26783e-05)
(-0.000869929 0 0.000134887)
(-0.00139531 0 0.000246305)
(-0.00137428 0 0.00016695)
(-0.00154206 0 9.54682e-05)
(-0.00160267 0 5.73404e-05)
(-0.00164974 0 3.42325e-05)
(-0.00167981 0 2.00468e-05)
(-0.00169933 0 1.1304e-05)
(-0.0017118 0 6.03092e-06)
(-0.00171924 0 2.81966e-06)
(-0.00172279 0 5.23416e-07)
(-0.001723 0 -1.16347e-06)
(-0.0017203 0 -2.51278e-06)
(-0.00171538 0 -3.98145e-06)
(-0.00170894 0 -5.58195e-06)
(-0.00170144 0 -6.91082e-06)
(-0.00169296 0 -7.89765e-06)
(-0.00168361 0 -8.69766e-06)
(-0.00167339 0 -9.45992e-06)
(-0.0016623 0 -1.02055e-05)
(-0.00165036 0 -1.08759e-05)
(-0.0016377 0 -1.14203e-05)
(-0.00162448 0 -1.18168e-05)
(-0.00161083 0 -1.20793e-05)
(-0.00159688 0 -1.22382e-05)
(-0.00158269 0 -1.23287e-05)
(-0.00156823 0 -1.24906e-05)
(-0.00155348 0 -1.27133e-05)
(-0.00153842 0 -1.27043e-05)
(-0.00152306 0 -1.2806e-05)
(-0.0015073 0 -1.30176e-05)
(-0.0014911 0 -1.32677e-05)
(-0.00147439 0 -1.36108e-05)
(-0.00145712 0 -1.40316e-05)
(-0.00143923 0 -1.44725e-05)
(-0.00142075 0 -1.48724e-05)
(-0.00140184 0 -1.51221e-05)
(-0.00138261 0 -1.52748e-05)
(-0.0013632 0 -1.53557e-05)
(-0.0013437 0 -1.53512e-05)
(-0.00132421 0 -1.52588e-05)
(-0.0013048 0 -1.5121e-05)
(-0.00128556 0 -1.49446e-05)
(-0.00126658 0 -1.47113e-05)
(-0.00124795 0 -1.44163e-05)
(-0.00122972 0 -1.41017e-05)
(-0.00121187 0 -1.38337e-05)
(-0.00119427 0 -1.36777e-05)
(-0.00117677 0 -1.36761e-05)
(-0.00115922 0 -1.38232e-05)
(-0.00114149 0 -1.4086e-05)
(-0.00112346 0 -1.44178e-05)
(-0.00110509 0 -1.47421e-05)
(-0.00108647 0 -1.49113e-05)
(-0.00106784 0 -1.47545e-05)
(-0.00104958 0 -1.42338e-05)
(-0.00103198 0 -1.35884e-05)
(-0.0010149 0 -1.32029e-05)
(-0.000997804 0 -1.34534e-05)
(-0.000980139 0 -1.41626e-05)
(-0.00096196 0 -1.44515e-05)
(-0.00094417 0 -1.38328e-05)
(-0.000927625 0 -1.25551e-05)
(-0.000912395 0 -1.13061e-05)
(-0.000897489 0 -1.12743e-05)
(-0.000881627 0 -1.24681e-05)
(-0.000864944 0 -1.29767e-05)
(-0.000848822 0 -1.23377e-05)
(-0.000833992 0 -1.10752e-05)
(-0.000819533 0 -1.11303e-05)
(-0.000803555 0 -1.29706e-05)
(-0.000786237 0 -1.37301e-05)
(-0.000769439 0 -1.31521e-05)
(-0.000753374 0 -1.25117e-05)
(-0.000736442 0 -1.40013e-05)
(-0.000718087 0 -1.52725e-05)
(-0.000700393 0 -1.38264e-05)
(-0.000684924 0 -1.20986e-05)
(-0.000668929 0 -1.26303e-05)
(-0.00063328 0 -1.17687e-05)
(-0.000719825 0 -1.17548e-05)
(-0.000421038 0 -5.9214e-06)
(0.0607692 0 -0.0105137)
(0.0346608 0 -0.0104084)
(0.04124 0 -0.0105167)
(0.0463251 0 -0.0107118)
(0.0533365 0 -0.010826)
(0.0592048 0 -0.0106202)
(0.0626949 0 -0.010331)
(0.0660337 0 -0.0101436)
(0.0704082 0 -0.0103913)
(0.0754098 0 -0.0106868)
(0.0800991 0 -0.0107809)
(0.0842184 0 -0.0107451)
(0.0884885 0 -0.0108969)
(0.0932335 0 -0.0107193)
(0.0979474 0 -0.010659)
(0.102471 0 -0.0107196)
(0.106723 0 -0.0105908)
(0.111019 0 -0.0103918)
(0.115195 0 -0.0103227)
(0.119355 0 -0.00992404)
(0.123457 0 -0.00948174)
(0.127402 0 -0.00895029)
(0.131252 0 -0.00892352)
(0.135196 0 -0.00953507)
(0.13876 0 -0.0099703)
(0.142651 0 -0.00910113)
(0.146019 0 -0.0076515)
(0.149484 0 -0.00694489)
(0.152788 0 -0.00784496)
(0.156103 0 -0.00832911)
(0.159514 0 -0.00775231)
(0.162393 0 -0.00679817)
(0.165435 0 -0.00715289)
(0.167974 0 -0.00733973)
(0.171169 0 -0.0066096)
(0.17432 0 -0.0055444)
(0.176641 0 -0.00513079)
(0.178896 0 -0.00567315)
(0.180674 0 -0.00638568)
(0.18286 0 -0.00586654)
(0.185671 0 -0.00462136)
(0.187807 0 -0.0041149)
(0.189718 0 -0.00459583)
(0.191806 0 -0.00548656)
(0.193419 0 -0.00509553)
(0.195707 0 -0.00359956)
(0.197422 0 -0.00267959)
(0.198734 0 -0.00286544)
(0.20014 0 -0.0036311)
(0.201585 0 -0.00364828)
(0.203049 0 -0.00326631)
(0.204511 0 -0.00303241)
(0.205569 0 -0.00235814)
(0.206378 0 -0.00174003)
(0.206925 0 -0.00171157)
(0.207644 0 -0.00197888)
(0.208493 0 -0.00185608)
(0.2088 0 -0.00103845)
(0.208993 0 -0.000703854)
(0.209141 0 -0.000880998)
(0.209479 0 -0.000919589)
(0.209834 0 -0.000296951)
(0.20928 0 0.00170216)
(0.208368 0 0.00264028)
(0.207759 0 0.00214275)
(0.207039 0 0.00200731)
(0.206002 0 0.00329499)
(0.204046 0 0.00487985)
(0.202029 0 0.00533866)
(0.199793 0 0.00536784)
(0.197377 0 0.00637993)
(0.19494 0 0.00732017)
(0.191657 0 0.00952547)
(0.188487 0 0.0136177)
(0.184264 0 0.0165884)
(0.181777 0 0.0232866)
(0.178148 0 0.0292)
(0.178707 0 0.0411719)
(0.174822 0 0.0506016)
(0.172215 0 0.0374447)
(0.152034 0 0.0288308)
(0.101555 0 0.0153302)
(0.103599 0 0.00522092)
(0.0882339 0 -0.000155922)
(0.081711 0 -0.00664053)
(0.0798661 0 0.00207267)
(0.0741168 0 0.00328929)
(0.0736675 0 0.00153281)
(0.0753523 0 0.00117345)
(0.0761589 0 0.00138663)
(0.0750528 0 0.0013869)
(0.0746858 0 0.000641389)
(0.0745426 0 0.00155211)
(0.0734491 0 0.00195785)
(0.0731984 0 0.00293488)
(0.0723473 0 0.00376761)
(0.0714894 0 0.00546958)
(0.0705297 0 0.00652702)
(0.0696174 0 0.0102541)
(0.0704074 0 0.0136727)
(0.0673161 0 0.0117834)
(0.0668463 0 0.00836237)
(0.0548161 0 0.0044947)
(0.0515091 0 0.00257157)
(0.0468157 0 -0.00214264)
(0.0456655 0 -0.00375739)
(0.045098 0 -0.00120559)
(0.0444253 0 0.000391211)
(0.0442745 0 0.00112132)
(0.0449423 0 0.00105035)
(0.0453561 0 0.00105392)
(0.0451078 0 0.00076367)
(0.0448136 0 0.000808496)
(0.044397 0 0.0012074)
(0.0440331 0 0.0020089)
(0.0437062 0 0.00252718)
(0.0434521 0 0.00453511)
(0.0439041 0 0.00551455)
(0.0425867 0 0.00414503)
(0.0425444 0 0.00309087)
(0.0368474 0 0.00176994)
(0.036042 0 0.00105649)
(0.0342953 0 -0.000742314)
(0.0339724 0 -0.0012854)
(0.033656 0 -4.75225e-05)
(0.0334428 0 0.000427617)
(0.0336727 0 0.000530171)
(0.0336685 0 0.00057937)
(0.0334039 0 0.000483427)
(0.0331503 0 0.000470142)
(0.0328638 0 0.000567989)
(0.0325735 0 0.000646439)
(0.0323005 0 0.0007389)
(0.031989 0 0.000801015)
(0.0316465 0 0.000815833)
(0.0312938 0 0.000803096)
(0.0309243 0 0.000842551)
(0.0305437 0 0.000891177)
(0.0301587 0 0.000909022)
(0.0297792 0 0.000895252)
(0.0293822 0 0.000946331)
(0.0289613 0 0.000985886)
(0.0285492 0 0.000993719)
(0.0281312 0 0.000994801)
(0.0276896 0 0.00104306)
(0.0272371 0 0.00106374)
(0.0267929 0 0.00106109)
(0.0263496 0 0.00104802)
(0.0258851 0 0.00108873)
(0.0254021 0 0.00111435)
(0.0249397 0 0.00111808)
(0.024465 0 0.00115325)
(0.023986 0 0.00110858)
(0.0235185 0 0.00106728)
(0.0230459 0 0.00110946)
(0.0225599 0 0.00116263)
(0.0220714 0 0.00115175)
(0.0216029 0 0.0010949)
(0.0211387 0 0.00107429)
(0.0206665 0 0.00111802)
(0.0201846 0 0.00114205)
(0.0197081 0 0.00110343)
(0.0192489 0 0.00104788)
(0.018802 0 0.00106814)
(0.018337 0 0.0011229)
(0.0178621 0 0.00108704)
(0.0174102 0 0.00102974)
(0.0169701 0 0.00102923)
(0.016535 0 0.00106405)
(0.0160781 0 0.00108277)
(0.0156252 0 0.00102384)
(0.0152057 0 0.000965933)
(0.0147922 0 0.000996384)
(0.0143518 0 0.00104066)
(0.0139181 0 0.0010098)
(0.0135158 0 0.000961761)
(0.0131022 0 0.000943651)
(0.0126914 0 0.000951586)
(0.0122926 0 0.000952909)
(0.0119017 0 0.000943088)
(0.0115124 0 0.000928873)
(0.0111232 0 0.000892782)
(0.0107401 0 0.00088892)
(0.0103542 0 0.000905018)
(0.0099778 0 0.00088783)
(0.00961392 0 0.000846513)
(0.00926169 0 0.000810852)
(0.0089146 0 0.00083597)
(0.00856189 0 0.000844046)
(0.00821471 0 0.000815279)
(0.00787005 0 0.000783654)
(0.00753195 0 0.000785119)
(0.00719667 0 0.000784907)
(0.00687232 0 0.000763432)
(0.00656012 0 0.000744856)
(0.00625616 0 0.000724036)
(0.00594103 0 0.000733007)
(0.005626 0 0.000718753)
(0.00532996 0 0.000687127)
(0.0050484 0 0.000655476)
(0.00476568 0 0.00066653)
(0.00448688 0 0.000673841)
(0.00419878 0 0.00066989)
(0.00392328 0 0.000629523)
(0.00367294 0 0.000604178)
(0.0034156 0 0.000581192)
(0.00316354 0 0.000590601)
(0.0028982 0 0.000609225)
(0.00265383 0 0.000578301)
(0.00242305 0 0.000541319)
(0.002193 0 0.00053013)
(0.00195499 0 0.000551053)
(0.00172762 0 0.000525444)
(0.00151909 0 0.000510087)
(0.00130215 0 0.000484135)
(0.00110076 0 0.000459299)
(0.000900459 0 0.000485173)
(0.000698403 0 0.000468097)
(0.000508553 0 0.000456833)
(0.000311444 0 0.000452304)
(0.000132224 0 0.000403777)
(-4.11966e-05 0 0.000391344)
(-0.000215708 0 0.000404669)
(-0.000379388 0 0.000405574)
(-0.000550791 0 0.00038605)
(-0.000709083 0 0.000369949)
(-0.00086361 0 0.00036427)
(-0.00101507 0 0.000344473)
(-0.00115915 0 0.000322024)
(-0.00129875 0 0.000333649)
(-0.00143825 0 0.00033213)
(-0.00157755 0 0.000315132)
(-0.00170506 0 0.000303928)
(-0.00183104 0 0.000285514)
(-0.00195033 0 0.00026704)
(-0.0020659 0 0.000281712)
(-0.00217899 0 0.000278724)
(-0.00229646 0 0.000268671)
(-0.00241353 0 0.000250973)
(-0.00252213 0 0.000253085)
(-0.00262626 0 0.000241476)
(-0.0027223 0 0.000232877)
(-0.00282095 0 0.000225606)
(-0.00291672 0 0.0002218)
(-0.003008 0 0.000213448)
(-0.00309468 0 0.000205267)
(-0.00318649 0 0.000220356)
(-0.00327877 0 0.000204517)
(-0.00336134 0 0.000185253)
(-0.00344008 0 0.000189865)
(-0.00352043 0 0.000187343)
(-0.00359802 0 0.000182066)
(-0.00367366 0 0.000181034)
(-0.00375019 0 0.000173891)
(-0.00382226 0 0.000174485)
(-0.00389256 0 0.000170096)
(-0.00396213 0 0.000157434)
(-0.00403194 0 0.000156413)
(-0.00410461 0 0.00016439)
(-0.00417073 0 0.000156419)
(-0.004232 0 0.000148403)
(-0.0042935 0 0.000139239)
(-0.00435575 0 0.000147887)
(-0.00441821 0 0.000146768)
(-0.00447954 0 0.000143123)
(-0.00453974 0 0.000139948)
(-0.0045976 0 0.000137118)
(-0.00465402 0 0.00012674)
(-0.0047069 0 0.000121882)
(-0.00476095 0 0.000125107)
(-0.00481484 0 0.000126408)
(-0.00486802 0 0.000125402)
(-0.00492033 0 0.000122757)
(-0.00497011 0 0.000119165)
(-0.00502134 0 0.000117033)
(-0.00507161 0 0.000110768)
(-0.00511837 0 0.000110181)
(-0.0051645 0 0.000108311)
(-0.00520901 0 0.000106233)
(-0.00525384 0 0.000104135)
(-0.0052966 0 0.0001043)
(-0.00534114 0 0.000103873)
(-0.00538424 0 9.70088e-05)
(-0.00542348 0 9.33115e-05)
(-0.00546302 0 9.01765e-05)
(-0.00550163 0 8.77662e-05)
(-0.00553931 0 8.86086e-05)
(-0.00557634 0 8.73369e-05)
(-0.00561231 0 8.38557e-05)
(-0.00564676 0 8.10146e-05)
(-0.00568054 0 7.60267e-05)
(-0.00571291 0 7.27919e-05)
(-0.00574449 0 7.37336e-05)
(-0.00577543 0 7.19258e-05)
(-0.0058051 0 6.92103e-05)
(-0.00583376 0 6.7073e-05)
(-0.00586153 0 6.42712e-05)
(-0.00588885 0 6.22808e-05)
(-0.00591518 0 6.0438e-05)
(-0.00593999 0 5.80971e-05)
(-0.00596412 0 5.5888e-05)
(-0.00598708 0 5.34614e-05)
(-0.0060091 0 5.08157e-05)
(-0.00603034 0 4.90929e-05)
(-0.00605056 0 4.67326e-05)
(-0.00606942 0 4.36578e-05)
(-0.00608725 0 4.03329e-05)
(-0.00610399 0 3.78758e-05)
(-0.00611983 0 3.64488e-05)
(-0.00613464 0 3.34933e-05)
(-0.00614809 0 3.0327e-05)
(-0.00616041 0 2.74165e-05)
(-0.00617151 0 2.47058e-05)
(-0.00618151 0 2.19797e-05)
(-0.00619033 0 1.90961e-05)
(-0.00619783 0 1.60181e-05)
(-0.00620404 0 1.30324e-05)
(-0.00620903 0 1.01802e-05)
(-0.00621279 0 7.29994e-06)
(-0.00621522 0 4.0283e-06)
(-0.00621618 0 6.69722e-07)
(-0.00621581 0 -2.59606e-06)
(-0.00621409 0 -5.92626e-06)
(-0.0062111 0 -8.64473e-06)
(-0.00620676 0 -1.20018e-05)
(-0.00620083 0 -1.57553e-05)
(-0.00619344 0 -1.9631e-05)
(-0.00618463 0 -2.23456e-05)
(-0.00617436 0 -2.568e-05)
(-0.00616261 0 -2.91508e-05)
(-0.00614937 0 -3.26642e-05)
(-0.00613457 0 -3.6401e-05)
(-0.00611821 0 -4.01711e-05)
(-0.00610035 0 -4.38027e-05)
(-0.00608094 0 -4.75342e-05)
(-0.00605997 0 -5.11776e-05)
(-0.00603749 0 -5.47452e-05)
(-0.00601351 0 -5.82762e-05)
(-0.00598805 0 -6.1764e-05)
(-0.0059611 0 -6.52962e-05)
(-0.00593269 0 -6.86889e-05)
(-0.00590285 0 -7.17512e-05)
(-0.00587162 0 -7.4923e-05)
(-0.00583901 0 -7.81437e-05)
(-0.00580503 0 -8.1399e-05)
(-0.00576969 0 -8.46185e-05)
(-0.00573307 0 -8.75821e-05)
(-0.00569518 0 -9.05316e-05)
(-0.00565603 0 -9.34177e-05)
(-0.00561569 0 -9.63297e-05)
(-0.00557415 0 -9.92015e-05)
(-0.00553159 0 -0.00010157)
(-0.00548797 0 -0.000103938)
(-0.00544323 0 -0.000106278)
(-0.00539755 0 -0.000108541)
(-0.0053509 0 -0.000110655)
(-0.00530338 0 -0.000112656)
(-0.00525497 0 -0.00011458)
(-0.00520576 0 -0.000116451)
(-0.00515581 0 -0.00011834)
(-0.00510533 0 -0.000119855)
(-0.00505412 0 -0.000121459)
(-0.00500212 0 -0.000122907)
(-0.00494962 0 -0.000124167)
(-0.00489656 0 -0.000125304)
(-0.00484304 0 -0.000126309)
(-0.00478916 0 -0.000127183)
(-0.00473484 0 -0.000128121)
(-0.00468008 0 -0.000128918)
(-0.00462504 0 -0.000129699)
(-0.00456967 0 -0.000130575)
(-0.00451402 0 -0.000131217)
(-0.00445814 0 -0.000131713)
(-0.00440211 0 -0.000132083)
(-0.00434596 0 -0.000132378)
(-0.00428969 0 -0.000132585)
(-0.00423338 0 -0.000132634)
(-0.00417702 0 -0.000132623)
(-0.00412063 0 -0.000132557)
(-0.00406428 0 -0.000132466)
(-0.00400802 0 -0.000132383)
(-0.00395186 0 -0.000132211)
(-0.00389586 0 -0.000131891)
(-0.00384 0 -0.000131394)
(-0.00378443 0 -0.000130749)
(-0.00372908 0 -0.000130152)
(-0.0036739 0 -0.000129513)
(-0.00361898 0 -0.000128874)
(-0.0035643 0 -0.000128234)
(-0.0035099 0 -0.000127541)
(-0.00345582 0 -0.000126837)
(-0.00340208 0 -0.000126156)
(-0.00334871 0 -0.000125426)
(-0.00329577 0 -0.000124333)
(-0.00324319 0 -0.000123421)
(-0.00319094 0 -0.000122432)
(-0.00313911 0 -0.000121442)
(-0.00308762 0 -0.000120437)
(-0.00303658 0 -0.000119594)
(-0.00298591 0 -0.000118684)
(-0.00293572 0 -0.000117772)
(-0.00288594 0 -0.000116658)
(-0.00283667 0 -0.00011559)
(-0.00278779 0 -0.000114326)
(-0.00273945 0 -0.000113108)
(-0.00269153 0 -0.000111844)
(-0.00264403 0 -0.000110471)
(-0.0025974 0 -0.000109454)
(-0.0025508 0 -0.000108124)
(-0.00250573 0 -0.000107167)
(-0.00246057 0 -0.000105548)
(-0.00241682 0 -0.000104827)
(-0.00237265 0 -0.000103063)
(-0.00232919 0 -0.000102091)
(-0.00228586 0 -0.000100299)
(-0.00224219 0 -0.000101519)
(-0.00219987 0 -9.91225e-05)
(-0.00216098 0 -0.000101763)
(-0.00211862 0 -9.79629e-05)
(-0.00207956 0 -9.29203e-05)
(-0.00203751 0 -8.97157e-05)
(-0.00198525 0 -9.51604e-05)
(-0.00194597 0 -9.17919e-05)
(-0.00192132 0 -0.000119775)
(-0.00188075 0 -0.000109774)
(-0.00187407 0 -6.78101e-05)
(-0.0018356 0 -5.87267e-05)
(-0.00188599 0 -4.36136e-05)
(-0.00184334 0 -4.29237e-05)
(-0.00183793 0 -7.85635e-06)
(-0.00178638 0 -1.31931e-05)
(-0.00176264 0 -4.41764e-05)
(-0.00172896 0 -4.90829e-05)
(-0.00170089 0 -5.95723e-05)
(-0.00167173 0 -6.26361e-05)
(-0.00164281 0 -6.6035e-05)
(-0.00161376 0 -6.47933e-05)
(-0.00158485 0 -6.68718e-05)
(-0.00155511 0 -6.5475e-05)
(-0.00152227 0 -6.98451e-05)
(-0.0014923 0 -6.78667e-05)
(-0.00146748 0 -7.72233e-05)
(-0.00143664 0 -7.35889e-05)
(-0.00141674 0 -6.38079e-05)
(-0.00138556 0 -5.98135e-05)
(-0.00138098 0 -5.79845e-05)
(-0.00134853 0 -5.53228e-05)
(-0.00132828 0 -4.98857e-05)
(-0.00129335 0 -4.77425e-05)
(-0.00126957 0 -5.91065e-05)
(-0.00124009 0 -5.5912e-05)
(-0.0012133 0 -5.69403e-05)
(-0.0011868 0 -5.66346e-05)
(-0.00115171 0 -5.31611e-05)
(-0.00113361 0 -6.11481e-05)
(-0.00110334 0 -5.29571e-05)
(-0.0010953 0 -7.47858e-05)
(-0.00106308 0 -5.718e-05)
(-0.00105689 0 -5.64744e-05)
(-0.00102144 0 -3.65876e-05)
(-0.000956072 0 -5.95526e-05)
(-0.000926687 0 -3.32762e-05)
(-0.000941033 0 -0.000169928)
(-0.000897121 0 -0.000115174)
(-0.00104799 0 -2.7339e-05)
(-0.000983706 0 3.00062e-05)
(-0.00157884 0 0.000209336)
(-0.00158312 0 0.000203356)
(-0.00173238 0 0.000550757)
(-0.00172779 0 0.000356344)
(-0.00170147 0 0.000239441)
(-0.00169776 0 0.000158253)
(-0.00170636 0 0.000105044)
(-0.00171691 0 6.95609e-05)
(-0.00172638 0 4.55042e-05)
(-0.00173357 0 2.8974e-05)
(-0.00173807 0 1.684e-05)
(-0.00174035 0 7.51581e-06)
(-0.00174053 0 8.64367e-07)
(-0.00173815 0 -3.86585e-06)
(-0.00173385 0 -8.13224e-06)
(-0.00172823 0 -1.23082e-05)
(-0.00172109 0 -1.61147e-05)
(-0.00171255 0 -1.9166e-05)
(-0.00170293 0 -2.15884e-05)
(-0.00169233 0 -2.37671e-05)
(-0.00168079 0 -2.59253e-05)
(-0.00166838 0 -2.80129e-05)
(-0.00165523 0 -2.98661e-05)
(-0.00164149 0 -3.13671e-05)
(-0.00162733 0 -3.24867e-05)
(-0.00161287 0 -3.32849e-05)
(-0.00159817 0 -3.38861e-05)
(-0.00158325 0 -3.44243e-05)
(-0.00156811 0 -3.50068e-05)
(-0.00155277 0 -3.56675e-05)
(-0.00153707 0 -3.64173e-05)
(-0.00152094 0 -3.72435e-05)
(-0.00150446 0 -3.81683e-05)
(-0.00148763 0 -3.92254e-05)
(-0.00147047 0 -4.04159e-05)
(-0.00145302 0 -4.16757e-05)
(-0.00143531 0 -4.2902e-05)
(-0.00141735 0 -4.39872e-05)
(-0.00139912 0 -4.48274e-05)
(-0.00138062 0 -4.53738e-05)
(-0.00136191 0 -4.56526e-05)
(-0.00134308 0 -4.57141e-05)
(-0.00132419 0 -4.56077e-05)
(-0.00130529 0 -4.53397e-05)
(-0.00128647 0 -4.48744e-05)
(-0.00126782 0 -4.41832e-05)
(-0.00124943 0 -4.33249e-05)
(-0.00123126 0 -4.24603e-05)
(-0.00121326 0 -4.17832e-05)
(-0.00119531 0 -4.14372e-05)
(-0.00117737 0 -4.14435e-05)
(-0.00115941 0 -4.17447e-05)
(-0.00114142 0 -4.22704e-05)
(-0.00112335 0 -4.29642e-05)
(-0.00110514 0 -4.36747e-05)