/*--------------------------------*- C++ -*----------------------------------*\
| =========                 |                                                 |
| \\      /  F ield         | OpenFOAM: The Open Source CFD Toolbox           |
|  \\    /   O peration     | Version:  v2006                                 |
|   \\  /    A nd           | Website:  www.openfoam.com                      |
|    \\/     M anipulation  |                                                 |
\*---------------------------------------------------------------------------*/
FoamFile
{
    version     2.0;
    format      ascii;
    class       surfaceScalarField;
    location    "2";
    object      alphaPhi0.water;
}
// * * * * * * * * * * * * * * * * * * * * * * * * * * * * * * * * * * * * * //

dimensions      [0 3 -1 0 0 0 0];
oriented        oriented;


internalField   nonuniform List<scalar> 
65390
(
-2.46185e-05
-2.10622e-07
-2.49737e-05
3.39504e-07
-2.52946e-05
2.92137e-07
-2.55448e-05
2.3416e-07
-2.58182e-05
2.61999e-07
-2.60398e-05
2.12376e-07
-2.62363e-05
1.88588e-07
-2.64036e-05
1.5989e-07
-2.65343e-05
1.25625e-07
-2.66422e-05
1.0571e-07
-2.67452e-05
1.01335e-07
-2.68339e-05
8.79305e-08
-2.69043e-05
6.92945e-08
-2.69449e-05
3.91951e-08
-2.69402e-05
-8.40101e-09
-2.68989e-05
-4.28702e-08
-2.68466e-05
-5.04891e-08
-2.6785e-05
-5.2154e-08
-2.67662e-05
-1.8315e-08
-2.67574e-05
-8.68095e-09
-2.66893e-05
-7.03622e-08
-2.65049e-05
-1.85508e-07
-2.62936e-05
-2.15492e-07
-2.61456e-05
-1.43488e-07
-2.60424e-05
-9.7056e-08
-2.59004e-05
-1.4544e-07
-2.56916e-05
-2.08233e-07
-2.54199e-05
-2.7372e-07
-2.52089e-05
-2.05612e-07
-2.50692e-05
-1.37475e-07
-2.48362e-05
-2.34668e-07
-2.44856e-05
-3.50772e-07
-2.41509e-05
-3.346e-07
-2.39111e-05
-2.35496e-07
-2.37084e-05
-2.00467e-07
-2.34387e-05
-2.73745e-07
-2.29946e-05
-4.43751e-07
-2.25742e-05
-4.20739e-07
-2.23045e-05
-2.69527e-07
-2.20118e-05
-2.89107e-07
-2.1764e-05
-2.46859e-07
-2.14284e-05
-3.40187e-07
-2.09196e-05
-5.09075e-07
-2.04475e-05
-4.72094e-07
-2.01284e-05
-3.1771e-07
-1.97928e-05
-3.40528e-07
-1.93259e-05
-4.67808e-07
-1.88591e-05
-4.67639e-07
-1.8479e-05
-3.81105e-07
-1.80953e-05
-3.8554e-07
-1.76566e-05
-4.4061e-07
-1.7157e-05
-5.01201e-07
-1.66801e-05
-4.78376e-07
-1.62359e-05
-4.45643e-07
-1.58083e-05
-4.2941e-07
-1.53617e-05
-4.48108e-07
-1.49046e-05
-4.5821e-07
-1.45251e-05
-3.81037e-07
-1.41795e-05
-3.47261e-07
-1.38121e-05
-3.69052e-07
-1.33803e-05
-4.33597e-07
-1.29335e-05
-4.48603e-07
-1.26105e-05
-3.25359e-07
-1.22805e-05
-3.32073e-07
-1.1925e-05
-3.57411e-07
-1.14986e-05
-4.28364e-07
-1.10416e-05
-4.58927e-07
-1.0655e-05
-3.88537e-07
-1.02554e-05
-4.01643e-07
-9.82795e-06
-4.29342e-07
-9.42763e-06
-4.0254e-07
-9.00815e-06
-4.2039e-07
-8.55854e-06
-4.52053e-07
-7.94365e-06
-6.16424e-07
-7.33958e-06
-6.05651e-07
-6.58848e-06
-7.52828e-07
-5.61127e-06
-9.77749e-07
-4.43792e-06
-1.17419e-06
-3.51808e-06
-9.2006e-07
-3.02203e-06
-4.97442e-07
-2.80884e-06
-2.13853e-07
-2.77375e-06
-3.57494e-08
-2.75525e-06
-1.91179e-08
-2.69861e-06
-5.67204e-08
-2.65837e-06
-4.07057e-08
-2.56882e-06
-8.97971e-08
-2.4521e-06
-1.16735e-07
-2.38454e-06
-6.76635e-08
-2.32579e-06
-5.84807e-08
-2.28127e-06
-4.43298e-08
-2.21078e-06
-7.05569e-08
-2.12807e-06
-8.31927e-08
-2.03252e-06
-9.54118e-08
-1.94262e-06
-8.9547e-08
-1.84064e-06
-1.02026e-07
-1.71605e-06
-1.24517e-07
-1.524e-06
-1.91823e-07
-1.29471e-06
-2.29205e-07
-1.00812e-06
-2.8618e-07
-7.79911e-07
-2.27752e-07
-6.7727e-07
-1.0218e-07
-6.44025e-07
-3.27769e-08
-6.50394e-07
6.85197e-09
-6.33419e-07
-1.65242e-08
-6.54873e-07
2.18917e-08
-6.77653e-07
2.31791e-08
-6.69295e-07
-7.95218e-09
-6.54126e-07
-1.47633e-08
-6.52189e-07
-1.55776e-09
-6.60563e-07
8.78361e-09
-6.64013e-07
3.88362e-09
-6.69575e-07
6.03232e-09
-6.59453e-07
-9.63735e-09
-6.30082e-07
-2.88707e-08
-5.62539e-07
-6.7057e-08
-4.59392e-07
-1.02566e-07
-2.90909e-07
-1.67893e-07
-1.69292e-07
-1.21038e-07
-1.48845e-07
-1.98976e-08
-1.73208e-07
2.49124e-08
-2.36021e-07
6.33436e-08
-2.83153e-07
4.76449e-08
-3.72536e-07
8.98657e-08
-4.55283e-07
8.32209e-08
-5.10431e-07
5.56022e-08
-5.69878e-07
5.98505e-08
-6.26141e-07
5.66654e-08
-6.89704e-07
6.3942e-08
-7.60159e-07
7.08555e-08
-8.24127e-07
6.42814e-08
-8.80506e-07
5.66369e-08
-9.45936e-07
6.56972e-08
-1.01245e-06
6.67869e-08
-1.07831e-06
6.61065e-08
-1.1406e-06
6.25443e-08
-1.20188e-06
6.14482e-08
-1.27129e-06
6.96108e-08
-1.33994e-06
6.88275e-08
-1.4075e-06
6.76921e-08
-1.47095e-06
6.36202e-08
-1.54048e-06
6.97358e-08
-1.60959e-06
6.92584e-08
-1.67741e-06
6.79466e-08
-1.74495e-06
6.76623e-08
-1.81371e-06
6.88793e-08
-1.8809e-06
6.72725e-08
-1.94558e-06
6.47589e-08
-2.00844e-06
6.29816e-08
-2.07488e-06
6.64672e-08
-2.13978e-06
6.49607e-08
-2.20387e-06
6.41568e-08
-2.26705e-06
6.32757e-08
-2.32567e-06
5.85848e-08
-2.38179e-06
5.61722e-08
-2.44133e-06
5.95667e-08
-2.50031e-06
5.90488e-08
-2.55714e-06
5.68481e-08
-2.61008e-06
5.29434e-08
-2.66179e-06
5.17051e-08
-2.71527e-06
5.35204e-08
-2.76755e-06
5.22832e-08
-2.81684e-06
4.93254e-08
-2.86349e-06
4.6626e-08
-2.91124e-06
4.77664e-08
-2.95819e-06
4.69559e-08
-3.00387e-06
4.56869e-08
-3.04626e-06
4.23666e-08
-3.08804e-06
4.17683e-08
-3.12953e-06
4.14903e-08
-3.17033e-06
4.07769e-08
-3.2087e-06
3.83523e-08
-3.24474e-06
3.60233e-08
-3.27994e-06
3.51612e-08
-3.31489e-06
3.49293e-08
-3.34761e-06
3.27001e-08
-3.3788e-06
3.1175e-08
-3.40834e-06
2.95295e-08
-3.43664e-06
2.82972e-08
-3.46356e-06
2.69186e-08
-3.48902e-06
2.54692e-08
-3.51303e-06
2.40286e-08
-3.53533e-06
2.23244e-08
-3.55621e-06
2.08813e-08
-3.57574e-06
1.95362e-08
-3.59364e-06
1.79274e-08
-3.60973e-06
1.61102e-08
-3.62415e-06
1.44284e-08
-3.63759e-06
1.34509e-08
-3.64961e-06
1.2069e-08
-3.66001e-06
1.04826e-08
-3.66845e-06
8.46897e-09
-3.67591e-06
7.43263e-09
-3.68198e-06
6.08595e-09
-3.68649e-06
4.53066e-09
-3.68955e-06
3.09085e-09
-3.69115e-06
1.62372e-09
-3.69157e-06
4.40415e-10
-3.69059e-06
-9.60172e-10
-3.68822e-06
-2.35711e-09
-3.68441e-06
-3.81542e-09
-3.6794e-06
-5.01216e-09
-3.67318e-06
-6.22026e-09
-3.66572e-06
-7.44897e-09
-3.65698e-06
-8.74137e-09
-3.64694e-06
-1.00162e-08
-3.63567e-06
-1.12434e-08
-3.62315e-06
-1.25247e-08
-3.61006e-06
-1.31016e-08
-3.59561e-06
-1.44666e-08
-3.57999e-06
-1.56199e-08
-3.56312e-06
-1.68702e-08
-3.54545e-06
-1.76618e-08
-3.52684e-06
-1.86003e-08
-3.50725e-06
-1.9582e-08
-3.48665e-06
-2.0599e-08
-3.46484e-06
-2.17835e-08
-3.44258e-06
-2.22317e-08
-3.41948e-06
-2.30692e-08
-3.39554e-06
-2.39235e-08
-3.37074e-06
-2.47735e-08
-3.34501e-06
-2.57008e-08
-3.31822e-06
-2.68042e-08
-3.29101e-06
-2.71829e-08
-3.26324e-06
-2.7739e-08
-3.23485e-06
-2.83571e-08
-3.2058e-06
-2.90241e-08
-3.17603e-06
-2.97321e-08
-3.14563e-06
-3.03784e-08
-3.11468e-06
-3.09218e-08
-3.08319e-06
-3.14473e-08
-3.05115e-06
-3.20006e-08
-3.01862e-06
-3.24902e-08
-2.98565e-06
-3.2916e-08
-2.95226e-06
-3.33271e-08
-2.91847e-06
-3.3713e-08
-2.88436e-06
-3.40417e-08
-2.84995e-06
-3.43249e-08
-2.8152e-06
-3.46543e-08
-2.78011e-06
-3.50056e-08
-2.74483e-06
-3.52232e-08
-2.70935e-06
-3.54116e-08
-2.67366e-06
-3.56251e-08
-2.63778e-06
-3.58108e-08
-2.60176e-06
-3.59545e-08
-2.56563e-06
-3.6061e-08
-2.52942e-06
-3.61421e-08
-2.49315e-06
-3.621e-08
-2.45683e-06
-3.62532e-08
-2.42048e-06
-3.62836e-08
-2.38416e-06
-3.62502e-08
-2.34793e-06
-3.6172e-08
-2.31177e-06
-3.60917e-08
-2.27569e-06
-3.60118e-08
-2.23971e-06
-3.5904e-08
-2.20388e-06
-3.57633e-08
-2.16817e-06
-3.56407e-08
-2.13256e-06
-3.55433e-08
-2.0971e-06
-3.54012e-08
-2.0618e-06
-3.52446e-08
-2.02668e-06
-3.50602e-08
-1.99179e-06
-3.48441e-08
-1.95715e-06
-3.45961e-08
-1.92278e-06
-3.43258e-08
-1.88869e-06
-3.40474e-08
-1.85488e-06
-3.37663e-08
-1.82136e-06
-3.34829e-08
-1.78814e-06
-3.31912e-08
-1.75522e-06
-3.28909e-08
-1.72261e-06
-3.258e-08
-1.69032e-06
-3.22573e-08
-1.65838e-06
-3.19177e-08
-1.62681e-06
-3.15517e-08
-1.59563e-06
-3.11596e-08
-1.56485e-06
-3.07712e-08
-1.53446e-06
-3.03852e-08
-1.50447e-06
-2.99941e-08
-1.47488e-06
-2.95951e-08
-1.44569e-06
-2.9188e-08
-1.41693e-06
-2.87741e-08
-1.38857e-06
-2.83596e-08
-1.36063e-06
-2.79437e-08
-1.3331e-06
-2.75303e-08
-1.30597e-06
-2.71297e-08
-1.27922e-06
-2.67512e-08
-1.25284e-06
-2.63767e-08
-1.22684e-06
-2.60082e-08
-1.20121e-06
-2.56415e-08
-1.17594e-06
-2.52777e-08
-1.15103e-06
-2.49171e-08
-1.12649e-06
-2.45554e-08
-1.10232e-06
-2.41879e-08
-1.07853e-06
-2.38126e-08
-1.05513e-06
-2.34259e-08
-1.03212e-06
-2.30268e-08
-1.00953e-06
-2.26168e-08
-9.87359e-07
-2.21966e-08
-9.65611e-07
-2.17747e-08
-9.44286e-07
-2.13537e-08
-9.23377e-07
-2.09379e-08
-9.0288e-07
-2.05266e-08
-8.82791e-07
-2.01196e-08
-8.63104e-07
-1.97193e-08
-8.43805e-07
-1.93296e-08
-8.24883e-07
-1.89542e-08
-8.06321e-07
-1.8594e-08
-7.88105e-07
-1.82477e-08
-7.70226e-07
-1.79103e-08
-7.52677e-07
-1.75807e-08
-7.35449e-07
-1.72576e-08
-7.18542e-07
-1.69366e-08
-7.01954e-07
-1.66164e-08
-6.85686e-07
-1.6296e-08
-6.69739e-07
-1.59747e-08
-6.54112e-07
-1.5653e-08
-6.38806e-07
-1.53324e-08
-6.23817e-07
-1.50146e-08
-6.09141e-07
-1.47015e-08
-5.94772e-07
-1.4394e-08
-5.80705e-07
-1.40917e-08
-5.66937e-07
-1.37932e-08
-5.53464e-07
-1.34975e-08
-5.40283e-07
-1.32047e-08
-5.27392e-07
-1.29157e-08
-5.14785e-07
-1.2631e-08
-5.02461e-07
-1.2348e-08
-4.90423e-07
-1.20613e-08
-4.78679e-07
-1.17677e-08
-4.67231e-07
-1.14715e-08
-4.56072e-07
-1.11826e-08
-4.45185e-07
-1.09092e-08
-4.34557e-07
-1.06511e-08
-4.24176e-07
-1.04039e-08
-4.14032e-07
-1.0167e-08
-4.04108e-07
-9.94639e-09
-3.94385e-07
-9.74442e-09
-3.84855e-07
-9.55224e-09
-3.75521e-07
-9.35508e-09
-3.66396e-07
-9.14725e-09
-3.57481e-07
-8.93577e-09
-3.48774e-07
-8.72748e-09
-3.40274e-07
-8.51981e-09
-3.31987e-07
-8.30767e-09
-3.23912e-07
-8.09438e-09
-3.1604e-07
-7.89057e-09
-3.08357e-07
-7.70205e-09
-3.0085e-07
-7.5253e-09
-2.93511e-07
-7.35635e-09
-2.86332e-07
-7.19675e-09
-2.79302e-07
-7.04681e-09
-2.72417e-07
-6.90044e-09
-2.6568e-07
-6.75155e-09
-2.59095e-07
-6.59948e-09
-2.52663e-07
-6.44466e-09
-2.46389e-07
-6.28545e-09
-2.40277e-07
-6.12385e-09
-2.34319e-07
-5.9685e-09
-2.28503e-07
-5.82704e-09
-2.22815e-07
-5.6991e-09
-2.17246e-07
-5.58023e-09
-2.11789e-07
-5.46878e-09
-2.06437e-07
-5.36441e-09
-2.01186e-07
-5.26243e-09
-1.96044e-07
-5.15489e-09
-1.91018e-07
-5.03782e-09
-1.86114e-07
-4.91471e-09
-1.81333e-07
-4.79224e-09
-1.76668e-07
-4.67507e-09
-1.72112e-07
-4.56561e-09
-1.67654e-07
-4.46625e-09
-1.63284e-07
-4.37889e-09
-1.58989e-07
-4.30225e-09
-1.54766e-07
-4.23035e-09
-1.50617e-07
-4.15602e-09
-1.46548e-07
-4.0757e-09
-1.42563e-07
-3.99143e-09
-1.38661e-07
-3.90743e-09
-1.34842e-07
-3.82506e-09
-1.31103e-07
-3.7434e-09
-1.27443e-07
-3.66494e-09
-1.23851e-07
-3.59609e-09
-1.20316e-07
-3.53875e-09
-1.16835e-07
-3.48575e-09
-1.13411e-07
-3.42754e-09
-1.10057e-07
-3.35865e-09
-1.06782e-07
-3.27897e-09
-1.03594e-07
-3.19277e-09
-1.00491e-07
-3.10829e-09
-9.74624e-08
-3.03322e-09
-9.4498e-08
-2.96952e-09
-9.15888e-08
-2.91429e-09
-8.87313e-08
-2.86259e-09
-8.59286e-08
-2.80766e-09
-8.31899e-08
-2.74362e-09
-8.05252e-08
-2.66946e-09
-7.79411e-08
-2.58881e-09
-7.54385e-08
-2.50734e-09
-7.30111e-08
-2.43203e-09
-7.06459e-08
-2.36993e-09
-6.83262e-08
-2.32432e-09
-6.60413e-08
-2.28948e-09
-6.37932e-08
-2.25243e-09
-6.15931e-08
-2.20429e-09
-5.94497e-08
-2.14743e-09
-5.73627e-08
-2.09063e-09
-5.53312e-08
-2.03492e-09
-5.33528e-08
-1.98164e-09
-5.14164e-08
-1.9395e-09
-4.95149e-08
-1.90461e-09
-4.76524e-08
-1.86558e-09
-4.58393e-08
-1.81625e-09
-4.40827e-08
-1.75992e-09
-4.23806e-08
-1.70548e-09
-4.07228e-08
-1.66141e-09
-3.90973e-08
-1.62904e-09
-3.75049e-08
-1.59595e-09
-3.59491e-08
-1.55924e-09
-3.44291e-08
-1.52327e-09
-3.29541e-08
-1.47808e-09
-3.15222e-08
-1.43451e-09
-3.01201e-08
-1.40442e-09
-2.875e-08
-1.37203e-09
-2.7433e-08
-1.3186e-09
-2.61653e-08
-1.26887e-09
-2.49742e-08
-1.1921e-09
-2.38267e-08
-1.14807e-09
-2.26451e-08
-1.18203e-09
-2.15077e-08
-1.13762e-09
-2.0341e-08
-1.16685e-09
-1.91871e-08
-1.15386e-09
-1.79861e-08
-1.20103e-09
-1.67811e-08
-1.20496e-09
-1.56628e-08
-1.11823e-09
-1.45244e-08
-1.13837e-09
-1.34393e-08
-1.08517e-09
-1.2387e-08
-1.05232e-09
-1.14098e-08
-9.77231e-10
-1.04772e-08
-9.32649e-10
-9.56902e-09
-9.08264e-10
-8.69132e-09
-8.77778e-10
-7.79985e-09
-8.91552e-10
-6.96886e-09
-8.31057e-10
-6.23912e-09
-7.29801e-10
-5.53128e-09
-7.07908e-10
-4.8418e-09
-6.89541e-10
-4.13515e-09
-7.06716e-10
-3.47141e-09
-6.63817e-10
-2.8281e-09
-6.43413e-10
-2.16531e-09
-6.62921e-10
-1.48505e-09
-6.80424e-10
-7.95778e-10
-6.89497e-10
-1.88637e-10
-6.07419e-10
4.39928e-10
-6.28904e-10
9.73279e-10
-5.33742e-10
1.47154e-09
-4.98693e-10
1.87715e-09
-4.06065e-10
2.31428e-09
-4.37583e-10
2.77526e-09
-4.61392e-10
3.11989e-09
-3.44991e-10
3.55335e-09
-4.33748e-10
3.99266e-09
-4.39517e-10
4.34092e-09
-3.48386e-10
4.63962e-09
-2.98786e-10
4.65093e-09
-1.13636e-11
4.77257e-09
-1.21673e-10
4.89248e-09
-1.19855e-10
4.92647e-09
-3.37699e-11
5.69856e-09
-7.71505e-10
6.06685e-09
-3.6675e-10
7.6814e-09
-1.6123e-09
9.15623e-09
-1.47094e-09
9.96392e-09
-8.01231e-10
1.06846e-08
-7.15272e-10
1.11037e-08
-4.15056e-10
1.13675e-08
-2.61017e-10
1.154e-08
-1.71311e-10
1.15756e-08
-3.58429e-11
1.14919e-08
8.19874e-11
1.13529e-08
1.35807e-10
1.11626e-08
1.8592e-10
1.09305e-08
2.26611e-10
1.06999e-08
2.24052e-10
1.05231e-08
1.69675e-10
1.03844e-08
1.30978e-10
1.02624e-08
1.14069e-10
1.0131e-08
1.23573e-10
9.99276e-09
1.30597e-10
9.87467e-09
1.10974e-10
9.79281e-09
7.54807e-11
9.75586e-09
3.15121e-11
9.74268e-09
8.83519e-12
9.72355e-09
1.60088e-11
9.67594e-09
4.58132e-11
9.57469e-09
1.0082e-10
9.4236e-09
1.52034e-10
9.23722e-09
1.88696e-10
9.03452e-09
2.06311e-10
8.83355e-09
2.05802e-10
8.65217e-09
1.87328e-10
8.51191e-09
1.47179e-10
8.43945e-09
8.0217e-11
8.48714e-09
-3.92665e-11
8.63736e-09
-1.41287e-10
8.90975e-09
-2.63128e-10
9.2923e-09
-3.73113e-10
9.76243e-09
-4.60688e-10
1.02909e-08
-5.19214e-10
1.08476e-08
-5.47676e-10
1.14068e-08
-5.50521e-10
1.19495e-08
-5.34539e-10
1.24592e-08
-5.02133e-10
1.2916e-08
-4.4984e-10
1.32959e-08
-3.73671e-10
1.35797e-08
-2.78166e-10
1.37703e-08
-1.85782e-10
1.38771e-08
-1.027e-10
1.39431e-08
-6.27596e-11
1.40111e-08
-6.53991e-11
1.41214e-08
-1.08455e-10
1.4307e-08
-1.84508e-10
1.45932e-08
-2.85744e-10
1.49735e-08
-3.80623e-10
1.5412e-08
-4.39486e-10
1.5816e-08
-4.05472e-10
1.60785e-08
-2.64529e-10
1.61659e-08
-8.99765e-11
1.61663e-08
-3.24704e-12
1.62836e-08
-1.20412e-10
1.66036e-08
-3.23419e-10
1.69818e-08
-3.81651e-10
1.71346e-08
-1.56397e-10
1.68799e-08
2.51289e-10
1.63899e-08
4.86537e-10
1.60238e-08
3.62754e-10
1.59767e-08
4.39374e-11
1.59963e-08
-2.25288e-11
1.57132e-08
2.80362e-10
1.51558e-08
5.54829e-10
1.47883e-08
3.65244e-10
1.49247e-08
-1.38502e-10
1.51876e-08
-2.64638e-10
1.51424e-08
4.37964e-11
1.509e-08
5.11863e-11
1.54871e-08
-3.98028e-10
1.60718e-08
-5.85415e-10
1.61581e-08
-8.67132e-11
1.58982e-08
2.59615e-10
1.57604e-08
1.37574e-10
1.53239e-08
4.36457e-10
1.49507e-08
3.73424e-10
1.33633e-09
-2.51973e-05
1.66128e-08
-2.54142e-05
5.84747e-07
-2.56563e-05
5.59467e-07
-2.59427e-05
5.41279e-07
-2.61795e-05
5.16091e-07
-2.63874e-05
4.33651e-07
-2.65697e-05
3.81755e-07
-2.67343e-05
3.33421e-07
-2.68739e-05
2.72216e-07
-2.6989e-05
2.25806e-07
-2.70885e-05
2.04024e-07
-2.71637e-05
1.65354e-07
-2.72141e-05
1.21608e-07
-2.72424e-05
6.90019e-08
-2.72509e-05
1.09553e-09
-2.72481e-05
-4.53559e-08
-2.72129e-05
-8.44574e-08
-2.71599e-05
-1.0509e-07
-2.70846e-05
-9.33075e-08
-2.69831e-05
-1.0451e-07
-2.68667e-05
-1.96681e-07
-2.6731e-05
-3.21261e-07
-2.65885e-05
-3.56848e-07
-2.64149e-05
-3.09029e-07
-2.62194e-05
-2.91424e-07
-2.60116e-05
-3.54342e-07
-2.57916e-05
-4.34223e-07
-2.55573e-05
-5.10625e-07
-2.53396e-05
-4.17291e-07
-2.51706e-05
-3.06518e-07
-2.50082e-05
-4.00761e-07
-2.47563e-05
-6.0246e-07
-2.43736e-05
-7.08677e-07
-2.39661e-05
-6.42918e-07
-2.36233e-05
-5.43366e-07
-2.33811e-05
-5.22953e-07
-2.31086e-05
-7.17447e-07
-2.27559e-05
-7.62802e-07
-2.23429e-05
-6.82349e-07
-2.19364e-05
-6.95167e-07
-2.16315e-05
-5.51571e-07
-2.12987e-05
-6.77052e-07
-2.08781e-05
-9.35603e-07
-2.04263e-05
-9.20151e-07
-1.99938e-05
-7.45214e-07
-1.96268e-05
-7.10389e-07
-1.92557e-05
-8.37689e-07
-1.8883e-05
-8.39507e-07
-1.84876e-05
-7.75537e-07
-1.80739e-05
-8.00186e-07
-1.76503e-05
-8.65429e-07
-1.72258e-05
-9.29026e-07
-1.67926e-05
-9.06613e-07
-1.63583e-05
-8.80446e-07
-1.59145e-05
-8.73095e-07
-1.54787e-05
-8.90056e-07
-1.50209e-05
-9.11404e-07
-1.46015e-05
-7.99487e-07
-1.42349e-05
-7.14785e-07
-1.38399e-05
-7.61516e-07
-1.3403e-05
-8.75616e-07
-1.29879e-05
-8.66172e-07
-1.2649e-05
-6.63484e-07
-1.23263e-05
-6.55578e-07
-1.19554e-05
-7.27389e-07
-1.1538e-05
-8.50296e-07
-1.11364e-05
-8.64074e-07
-1.07125e-05
-8.11365e-07
-1.02895e-05
-8.26207e-07
-9.92959e-06
-7.90774e-07
-9.57512e-06
-7.57096e-07
-9.14993e-06
-8.46522e-07
-8.71043e-06
-8.93086e-07
-8.30562e-06
-1.0232e-06
-7.89689e-06
-1.01419e-06
-7.51312e-06
-1.13793e-06
-7.20475e-06
-1.28787e-06
-6.99823e-06
-1.38098e-06
-6.50635e-06
-1.41336e-06
-5.62917e-06
-1.37511e-06
-4.53905e-06
-1.30429e-06
-3.58588e-06
-9.8994e-07
-3.00787e-06
-5.97526e-07
-2.70173e-06
-3.63683e-07
-2.54706e-06
-1.95926e-07
-2.46131e-06
-1.75396e-07
-2.41576e-06
-1.62139e-07
-2.40708e-06
-7.58129e-08
-2.38031e-06
-8.52499e-08
-2.3149e-06
-1.09398e-07
-2.21107e-06
-1.75019e-07
-2.13342e-06
-1.61107e-07
-2.06107e-06
-1.67557e-07
-1.98956e-06
-1.60935e-07
-1.9235e-06
-1.67977e-07
-1.85172e-06
-1.96061e-07
-1.78696e-06
-2.56252e-07
-1.72472e-06
-2.91142e-07
-1.68425e-06
-3.25848e-07
-1.56697e-06
-3.44504e-07
-1.36454e-06
-3.0382e-07
-1.08997e-06
-3.06706e-07
-8.6069e-07
-2.21823e-07
-7.4821e-07
-1.28335e-07
-6.65367e-07
-6.04003e-08
-6.28469e-07
-1.3162e-08
-6.10434e-07
-2.54011e-08
-6.16715e-07
-8.01059e-09
-6.5802e-07
4.0471e-08
-6.9747e-07
4.88758e-08
-6.96962e-07
4.06803e-09
-6.98182e-07
7.97653e-09
-6.98055e-07
-8.87634e-09
-7.04461e-07
-2.16652e-08
-7.24012e-07
-4.67581e-08
-7.41266e-07
-8.43339e-08
-7.7587e-07
-1.32389e-07
-7.63761e-07
-1.32291e-07
-6.83275e-07
-9.94558e-08
-5.22629e-07
-1.34889e-07
-3.91397e-07
-6.70942e-08
-3.68963e-07
2.60048e-08
-3.73921e-07
9.56171e-08
-4.1032e-07
1.20322e-07
-4.60122e-07
1.06112e-07
-5.53187e-07
1.53512e-07
-6.39201e-07
1.43237e-07
-6.95443e-07
1.20715e-07
-7.55465e-07
1.31328e-07
-8.14611e-07
1.23852e-07
-8.7558e-07
1.1809e-07
-9.4278e-07
1.33297e-07
-1.00984e-06
1.34193e-07
-1.07388e-06
1.3054e-07
-1.13783e-06
1.26664e-07
-1.20279e-06
1.26781e-07
-1.27098e-06
1.38063e-07
-1.33748e-06
1.35566e-07
-1.40476e-06
1.3522e-07
-1.47261e-06
1.31571e-07
-1.54233e-06
1.39771e-07
-1.60965e-06
1.36742e-07
-1.6762e-06
1.34614e-07
-1.74523e-06
1.36891e-07
-1.81346e-06
1.3721e-07
-1.87905e-06
1.32925e-07
-1.94381e-06
1.29691e-07
-2.00983e-06
1.29082e-07
-2.07601e-06
1.32714e-07
-2.13948e-06
1.28501e-07
-2.20186e-06
1.2661e-07
-2.26422e-06
1.25807e-07
-2.32436e-06
1.18647e-07
-2.38324e-06
1.15061e-07
-2.44193e-06
1.18308e-07
-2.50008e-06
1.17241e-07
-2.55588e-06
1.12769e-07
-2.61006e-06
1.07097e-07
-2.66323e-06
1.04858e-07
-2.7163e-06
1.066e-07
-2.7682e-06
1.04212e-07
-2.81823e-06
9.94191e-08
-2.86649e-06
9.46526e-08
-2.91343e-06
9.48975e-08
-2.96053e-06
9.40485e-08
-3.0065e-06
9.17073e-08
-3.04991e-06
8.54538e-08
-3.09122e-06
8.33606e-08
-3.13253e-06
8.27729e-08
-3.17368e-06
8.19634e-08
-3.21157e-06
7.632e-08
-3.24827e-06
7.23123e-08
-3.28365e-06
7.05717e-08
-3.31891e-06
7.04022e-08
-3.35078e-06
6.47907e-08
-3.38162e-06
6.19808e-08
-3.41204e-06
5.96988e-08
-3.44032e-06
5.67455e-08
-3.46683e-06
5.34734e-08
-3.49188e-06
5.05591e-08
-3.51567e-06
4.79633e-08
-3.53806e-06
4.47875e-08
-3.55914e-06
4.19038e-08
-3.57866e-06
3.91277e-08
-3.59652e-06
3.58633e-08
-3.61249e-06
3.23417e-08
-3.62721e-06
2.90509e-08
-3.64029e-06
2.66283e-08
-3.65202e-06
2.38732e-08
-3.66217e-06
2.08688e-08
-3.67123e-06
1.7462e-08
-3.67898e-06
1.5253e-08
-3.68509e-06
1.22933e-08
-3.68944e-06
8.97422e-09
-3.69232e-06
6.10548e-09
-3.69386e-06
3.26017e-09
-3.69448e-06
1.07482e-09
-3.69347e-06
-1.90529e-09
-3.69098e-06
-4.66069e-09
-3.68741e-06
-7.42589e-09
-3.68228e-06
-1.00653e-08
-3.67588e-06
-1.25495e-08
-3.66836e-06
-1.49021e-08
-3.65939e-06
-1.74882e-08
-3.64923e-06
-2.0091e-08
-3.63798e-06
-2.25451e-08
-3.62581e-06
-2.48046e-08
-3.61279e-06
-2.59554e-08
-3.59812e-06
-2.90225e-08
-3.58247e-06
-3.11691e-08
-3.56593e-06
-3.3393e-08
-3.54829e-06
-3.52261e-08
-3.52958e-06
-3.72239e-08
-3.50986e-06
-3.92291e-08
-3.48915e-06
-4.12553e-08
-3.46745e-06
-4.33656e-08
-3.44492e-06
-4.468e-08
-3.42152e-06
-4.63867e-08
-3.39735e-06
-4.80024e-08
-3.37244e-06
-4.95977e-08
-3.34666e-06
-5.1318e-08
-3.32042e-06
-5.31706e-08
-3.29305e-06
-5.43123e-08
-3.2651e-06
-5.55971e-08
-3.23652e-06
-5.68403e-08
-3.2073e-06
-5.81479e-08
-3.1773e-06
-5.94993e-08
-3.14684e-06
-6.07638e-08
-3.11593e-06
-6.18446e-08
-3.08436e-06
-6.29144e-08
-3.05229e-06
-6.39678e-08
-3.0196e-06
-6.49357e-08
-2.98662e-06
-6.57946e-08
-2.95329e-06
-6.66455e-08
-2.91942e-06
-6.74588e-08
-2.88509e-06
-6.81596e-08
-2.8505e-06
-6.87885e-08
-2.81559e-06
-6.94385e-08
-2.78055e-06
-6.99909e-08
-2.74539e-06
-7.02862e-08
-2.70987e-06
-7.08031e-08
-2.67411e-06
-7.12639e-08
-2.63822e-06
-7.15851e-08
-2.60217e-06
-7.18809e-08
-2.56601e-06
-7.2119e-08
-2.52973e-06
-7.23124e-08
-2.49336e-06
-7.2439e-08
-2.45704e-06
-7.24828e-08
-2.42069e-06
-7.25371e-08
-2.38432e-06
-7.25091e-08
-2.34796e-06
-7.24198e-08
-2.31165e-06
-7.22942e-08
-2.2754e-06
-7.21515e-08
-2.23919e-06
-7.19588e-08
-2.20316e-06
-7.16894e-08
-2.16731e-06
-7.14012e-08
-2.13164e-06
-7.11381e-08
-2.09618e-06
-7.07873e-08
-2.06092e-06
-7.04289e-08
-2.02587e-06
-7.00381e-08
-1.99104e-06
-6.96107e-08
-1.95643e-06
-6.91426e-08
-1.92205e-06
-6.86398e-08
-1.88791e-06
-6.8111e-08
-1.85406e-06
-6.75581e-08
-1.8205e-06
-6.69861e-08
-1.78725e-06
-6.63906e-08
-1.75433e-06
-6.57726e-08
-1.72173e-06
-6.51399e-08
-1.68948e-06
-6.44851e-08
-1.65758e-06
-6.37924e-08
-1.62605e-06
-6.30598e-08
-1.5949e-06
-6.22859e-08
-1.56415e-06
-6.1504e-08
-1.5338e-06
-6.07335e-08
-1.50383e-06
-5.99601e-08
-1.47424e-06
-5.91748e-08
-1.44505e-06
-5.83843e-08
-1.41623e-06
-5.75873e-08
-1.38781e-06
-5.67846e-08
-1.35978e-06
-5.59708e-08
-1.33216e-06
-5.51521e-08
-1.30495e-06
-5.43482e-08
-1.27814e-06
-5.3575e-08
-1.25172e-06
-5.28108e-08
-1.22568e-06
-5.20569e-08
-1.20004e-06
-5.13078e-08
-1.17477e-06
-5.05639e-08
-1.14989e-06
-4.98239e-08
-1.1254e-06
-4.90812e-08
-1.10129e-06
-4.83286e-08
-1.07758e-06
-4.75659e-08
-1.05426e-06
-4.67893e-08
-1.03133e-06
-4.59971e-08
-1.0088e-06
-4.51921e-08
-9.86672e-07
-4.4374e-08
-9.64946e-07
-4.35508e-08
-9.43624e-07
-4.2728e-08
-9.22704e-07
-4.19121e-08
-9.02182e-07
-4.11038e-08
-8.82054e-07
-4.03043e-08
-8.62312e-07
-3.95182e-08
-8.42949e-07
-3.87493e-08
-8.23958e-07
-3.80021e-08
-8.05329e-07
-3.7279e-08
-7.87057e-07
-3.65763e-08
-7.69133e-07
-3.58889e-08
-7.51553e-07
-3.52145e-08
-7.34313e-07
-3.45512e-08
-7.17408e-07
-3.38936e-08
-7.00834e-07
-3.32407e-08
-6.84589e-07
-3.25911e-08
-6.68668e-07
-3.19442e-08
-6.53069e-07
-3.13e-08
-6.37789e-07
-3.06597e-08
-6.22824e-07
-3.00251e-08
-6.08173e-07
-2.93987e-08
-5.9383e-07
-2.87823e-08
-5.7979e-07
-2.81762e-08
-5.6605e-07
-2.75785e-08
-5.52606e-07
-2.69859e-08
-5.39459e-07
-2.63958e-08
-5.2661e-07
-2.58083e-08
-5.14059e-07
-2.52264e-08
-5.01799e-07
-2.46512e-08
-4.89823e-07
-2.40799e-08
-4.78126e-07
-2.35076e-08
-4.66705e-07
-2.29354e-08
-4.55556e-07
-2.23742e-08
-4.4467e-07
-2.18372e-08
-4.34033e-07
-2.13286e-08
-4.23637e-07
-2.08417e-08
-4.13475e-07
-2.03702e-08
-4.03544e-07
-1.99183e-08
-3.93836e-07
-1.94923e-08
-3.84343e-07
-1.9085e-08
-3.7506e-07
-1.86768e-08
-3.65991e-07
-1.82553e-08
-3.57136e-07
-1.78283e-08
-3.48491e-07
-1.74099e-08
-3.40047e-07
-1.70012e-08
-3.31797e-07
-1.65936e-08
-3.2374e-07
-1.61864e-08
-3.15874e-07
-1.5792e-08
-3.08189e-07
-1.54203e-08
-3.00681e-07
-1.50671e-08
-2.93344e-07
-1.47253e-08
-2.86175e-07
-1.43964e-08
-2.7917e-07
-1.40825e-08
-2.72323e-07
-1.37764e-08
-2.65632e-07
-1.34709e-08
-2.59092e-07
-1.31667e-08
-2.52698e-07
-1.28652e-08
-2.46447e-07
-1.25622e-08
-2.40338e-07
-1.22582e-08
-2.34366e-07
-1.1965e-08
-2.28524e-07
-1.16938e-08
-2.22804e-07
-1.1443e-08
-2.17205e-07
-1.12031e-08
-2.11728e-07
-1.09697e-08
-2.06372e-07
-1.07438e-08
-2.01134e-07
-1.05227e-08
-1.96014e-07
-1.02978e-08
-1.91008e-07
-1.00643e-08
-1.86117e-07
-9.82696e-09
-1.81334e-07
-9.59485e-09
-1.76653e-07
-9.37402e-09
-1.7207e-07
-9.16619e-09
-1.67581e-07
-8.97276e-09
-1.6318e-07
-8.79516e-09
-1.58866e-07
-8.63191e-09
-1.54635e-07
-8.47597e-09
-1.50486e-07
-8.31788e-09
-1.46423e-07
-8.15222e-09
-1.42444e-07
-7.98222e-09
-1.38546e-07
-7.81615e-09
-1.34724e-07
-7.65773e-09
-1.30974e-07
-7.50343e-09
-1.27296e-07
-7.35191e-09
-1.23691e-07
-7.20962e-09
-1.20158e-07
-7.07993e-09
-1.16698e-07
-6.95412e-09
-1.13314e-07
-6.82034e-09
-1.10006e-07
-6.67469e-09
-1.06773e-07
-6.52084e-09
-1.03609e-07
-6.36522e-09
-1.0051e-07
-6.21649e-09
-9.747e-08
-6.08205e-09
-9.44877e-08
-5.96111e-09
-9.15651e-08
-5.84635e-09
-8.87074e-08
-5.72974e-09
-8.59202e-08
-5.60433e-09
-8.32064e-08
-5.46676e-09
-8.05647e-08
-5.32055e-09
-7.79903e-08
-5.17251e-09
-7.54774e-08
-5.02945e-09
-7.30204e-08
-4.89802e-09
-7.06165e-08
-4.78266e-09
-6.82658e-08
-4.68352e-09
-6.59703e-08
-4.5932e-09
-6.37316e-08
-4.4989e-09
-6.15502e-08
-4.39311e-09
-5.94217e-08
-4.28286e-09
-5.73371e-08
-4.18188e-09
-5.52924e-08
-4.08591e-09
-5.32934e-08
-3.98681e-09
-5.13449e-08
-3.89406e-09
-4.94514e-08
-3.80412e-09
-4.76104e-08
-3.71263e-09
-4.58164e-08
-3.61652e-09
-4.40655e-08
-3.51709e-09
-4.23535e-08
-3.42393e-09
-4.06808e-08
-3.34049e-09
-3.90423e-08
-3.27382e-09
-3.7448e-08
-3.19633e-09
-3.58966e-08
-3.11636e-09
-3.43844e-08
-3.04085e-09
-3.29119e-08
-2.95535e-09
-3.14848e-08
-2.86588e-09
-3.00947e-08
-2.79821e-09
-2.87674e-08
-2.70249e-09
-2.74743e-08
-2.61425e-09
-2.61697e-08
-2.5756e-09
-2.4901e-08
-2.46242e-09
-2.36217e-08
-2.42867e-09
-2.2388e-08
-2.41673e-09
-2.11006e-08
-2.42581e-09
-1.98329e-08
-2.43516e-09
-1.86593e-08
-2.32799e-09
-1.75424e-08
-2.31845e-09
-1.64896e-08
-2.25829e-09
-1.54198e-08
-2.18854e-09
-1.4375e-08
-2.18378e-09
-1.33527e-08
-2.10806e-09
-1.23543e-08
-2.05132e-09
-1.13944e-08
-1.93777e-09
-1.04653e-08
-1.86236e-09
-9.56878e-09
-1.80534e-09
-8.70147e-09
-1.74562e-09
-7.84704e-09
-1.74646e-09
-7.03618e-09
-1.64231e-09
-6.28121e-09
-1.48508e-09
-5.52434e-09
-1.46499e-09
-4.80225e-09
-1.41174e-09
-4.07186e-09
-1.43711e-09
-3.37265e-09
-1.36294e-09
-2.70025e-09
-1.31564e-09
-2.02768e-09
-1.33525e-09
-1.37938e-09
-1.32842e-09
-7.72911e-10
-1.29561e-09
-2.30818e-10
-1.14911e-09
3.77225e-10
-1.23649e-09
9.03889e-10
-1.05988e-09
1.3792e-09
-9.73392e-10
1.86998e-09
-8.96107e-10
2.37368e-09
-9.40428e-10
2.83203e-09
-9.18737e-10
3.32023e-09
-8.32059e-10
3.69974e-09
-8.12034e-10
3.78464e-09
-5.23133e-10
3.97744e-09
-5.39933e-10
4.19505e-09
-5.15238e-10
4.35138e-09
-1.66759e-10
5.49106e-09
-1.26078e-09
6.15837e-09
-7.86917e-10
7.79064e-09
-1.66638e-09
9.07089e-09
-2.05338e-09
1.0187e-08
-1.48631e-09
1.10998e-08
-2.5296e-09
1.11615e-08
-1.53924e-09
1.14183e-08
-1.06337e-09
1.15923e-08
-8.92902e-10
1.16678e-08
-4.92376e-10
1.17081e-08
-3.00808e-10
1.17069e-08
-1.67255e-10
1.1651e-08
2.53318e-11
1.15914e-08
1.49274e-10
1.15454e-08
1.91693e-10
1.15062e-08
2.37045e-10
1.14414e-08
3.05057e-10
1.13483e-08
3.32111e-10
1.12286e-08
3.05441e-10
1.10882e-08
2.87962e-10
1.09227e-08
2.96243e-10
1.07617e-08
3.00959e-10
1.06317e-08
2.76285e-10
1.05499e-08
2.07437e-10
1.05112e-08
1.27318e-10
1.05036e-08
5.05765e-11
1.04949e-08
2.69735e-11
1.0454e-08
6.42354e-11
1.03817e-08
1.2314e-10
1.02736e-08
2.11679e-10
1.01503e-08
2.75784e-10
1.00292e-08
3.08064e-10
9.92816e-09
3.0351e-10
9.86241e-09
2.6583e-10
9.84312e-09
1.99209e-10
9.8738e-09
1.07642e-10
9.9332e-09
1.07764e-11
1.00309e-08
-1.47951e-10
1.02021e-08
-3.24068e-10
1.04079e-08
-4.80934e-10
1.06545e-08
-6.3178e-10
1.09441e-08
-7.62262e-10
1.12739e-08
-8.60689e-10
1.16408e-08
-9.25505e-10
1.20359e-08
-9.55885e-10
1.24437e-08
-9.51687e-10
1.28403e-08
-9.06844e-10
1.31972e-08
-8.13729e-10
1.34912e-08
-6.7334e-10
1.37173e-08
-5.08547e-10
1.38882e-08
-3.59577e-10
1.40391e-08
-2.55134e-10
1.41922e-08
-2.1595e-10
1.43559e-08
-2.27864e-10
1.45288e-08
-2.78746e-10
1.47204e-08
-3.72359e-10
1.49487e-08
-5.09144e-10
1.52369e-08
-6.62809e-10
1.55609e-08
-7.56557e-10
1.58622e-08
-6.9898e-10
1.60885e-08
-4.82334e-10
1.62431e-08
-2.35436e-10
1.63978e-08
-1.48234e-10
1.65665e-08
-2.78924e-10
1.67317e-08
-4.78075e-10
1.67727e-08
-4.11843e-10
1.66311e-08
-3.92756e-12
1.63829e-08
5.10484e-10
1.62308e-08
6.49571e-10
1.62723e-08
3.31997e-10
1.63336e-08
-6.86606e-12
1.61325e-08
1.88808e-10
1.57528e-08
6.6996e-10
1.55387e-08
7.78474e-10
1.56459e-08
2.67109e-10
1.57033e-08
-1.87171e-10
1.54822e-08
-3.51628e-11
1.53051e-08
2.28784e-10
1.54978e-08
-1.33957e-10
1.55613e-08
-4.54242e-10
1.52379e-08
-2.55104e-10
1.49769e-08
1.80925e-10
1.48311e-08
4.11814e-10
1.46289e-08
3.45848e-10
1.45142e-08
5.56984e-10
1.46389e-08
2.54337e-10
2.36155e-09
-2.53806e-05
2.90228e-07
-2.57418e-05
9.31001e-07
-2.6054e-05
8.60872e-07
-2.6342e-05
8.19144e-07
-2.65524e-05
7.19109e-07
-2.67481e-05
6.23538e-07
-2.69161e-05
5.45441e-07
-2.70714e-05
4.85603e-07
-2.72062e-05
4.03366e-07
-2.73282e-05
3.47212e-07
-2.74271e-05
3.01924e-07
-2.75021e-05
2.41839e-07
-2.75505e-05
1.69666e-07
-2.75755e-05
9.45128e-08
-2.75938e-05
1.72183e-08
-2.75896e-05
-4.99392e-08
-2.75626e-05
-1.10308e-07
-2.75074e-05
-1.5382e-07
-2.74102e-05
-1.89982e-07
-2.72664e-05
-2.46835e-07
-2.71283e-05
-3.38142e-07
-2.70213e-05
-4.30116e-07
-2.69027e-05
-4.7347e-07
-2.67044e-05
-5.01953e-07
-2.64398e-05
-5.5117e-07
-2.61952e-05
-6.04059e-07
-2.59724e-05
-6.63434e-07
-2.57686e-05
-7.06604e-07
-2.55151e-05
-6.62828e-07
-2.52165e-05
-6.05096e-07
-2.49753e-05
-6.41639e-07
-2.47809e-05
-8.08142e-07
-2.44981e-05
-9.93972e-07
-2.40881e-05
-1.04765e-06
-2.36985e-05
-9.27583e-07
-2.33506e-05
-8.72898e-07
-2.30878e-05
-9.84971e-07
-2.27861e-05
-1.06938e-06
-2.23286e-05
-1.1406e-06
-2.19095e-05
-1.10948e-06
-2.1476e-05
-9.80765e-07
-2.10873e-05
-1.07484e-06
-2.07684e-05
-1.25721e-06
-2.04068e-05
-1.28104e-06
-1.99602e-05
-1.19006e-06
-1.95411e-05
-1.12669e-06
-1.91911e-05
-1.18817e-06