/*--------------------------------*- C++ -*----------------------------------*\
| =========                 |                                                 |
| \\      /  F ield         | OpenFOAM: The Open Source CFD Toolbox           |
|  \\    /   O peration     | Version:  v2006                                 |
|   \\  /    A nd           | Website:  www.openfoam.com                      |
|    \\/     M anipulation  |                                                 |
\*---------------------------------------------------------------------------*/
FoamFile
{
    version     2.0;
    format      ascii;
    class       volScalarField;
    location    "2";
    object      k;
}
// * * * * * * * * * * * * * * * * * * * * * * * * * * * * * * * * * * * * * //

dimensions      [0 2 -2 0 0 0 0];


internalField   nonuniform List<scalar> 
33000
(
2.91224e-08
2.9167e-08
2.91315e-08
2.90585e-08
2.90279e-08
2.89882e-08
2.89547e-08
2.89358e-08
2.89324e-08
2.89486e-08
2.89782e-08
2.90078e-08
2.9028e-08
2.90316e-08
2.90187e-08
2.90145e-08
2.90309e-08
2.90664e-08
2.91262e-08
2.91856e-08
2.92089e-08
2.92076e-08
2.92628e-08
2.93816e-08
2.94873e-08
2.95412e-08
2.95831e-08
2.96369e-08
2.97511e-08
2.98599e-08
2.98749e-08
2.98778e-08
2.99584e-08
3.01042e-08
3.02026e-08
3.02199e-08
3.01747e-08
3.02511e-08
3.04088e-08
3.04563e-08
3.04858e-08
3.03963e-08
3.02507e-08
3.02304e-08
3.02546e-08
3.01302e-08
2.99241e-08
2.98065e-08
2.97313e-08
2.95896e-08
2.94012e-08
2.92282e-08
2.91091e-08
2.90086e-08
2.89058e-08
2.87781e-08
2.86543e-08
2.85798e-08
2.84743e-08
2.83127e-08
2.81275e-08
2.79902e-08
2.79181e-08
2.77667e-08
2.75887e-08
2.73847e-08
2.72056e-08
2.70726e-08
2.6884e-08
2.66747e-08
2.64635e-08
2.6174e-08
2.57999e-08
2.52922e-08
2.4798e-08
2.40728e-08
2.30559e-08
2.18852e-08
2.1162e-08
2.04348e-08
2.0397e-08
2.02553e-08
2.04101e-08
2.043e-08
2.05083e-08
2.048e-08
2.03069e-08
2.02502e-08
2.02152e-08
2.01956e-08
2.01585e-08
2.00929e-08
1.99956e-08
1.98833e-08
1.97737e-08
1.95699e-08
1.93535e-08
1.88839e-08
1.85945e-08
1.78525e-08
1.78984e-08
1.77521e-08
1.78902e-08
1.78241e-08
1.78627e-08
1.79495e-08
1.79566e-08
1.79256e-08
1.79145e-08
1.79178e-08
1.79116e-08
1.78927e-08
1.7875e-08
1.77868e-08
1.77002e-08
1.74244e-08
1.72789e-08
1.66822e-08
1.67891e-08
1.67016e-08
1.68244e-08
1.6805e-08
1.68733e-08
1.69863e-08
1.7028e-08
1.70559e-08
1.70914e-08
1.71138e-08
1.71485e-08
1.71794e-08
1.71892e-08
1.72006e-08
1.72159e-08
1.72255e-08
1.72308e-08
1.72266e-08
1.7227e-08
1.72282e-08
1.72273e-08
1.72201e-08
1.72107e-08
1.72011e-08
1.71882e-08
1.71706e-08
1.71499e-08
1.71274e-08
1.71019e-08
1.70731e-08
1.70415e-08
1.70095e-08
1.69733e-08
1.69344e-08
1.6892e-08
1.68473e-08
1.67999e-08
1.67531e-08
1.67022e-08
1.66489e-08
1.65914e-08
1.65326e-08
1.64726e-08
1.64088e-08
1.6345e-08
1.62771e-08
1.62086e-08
1.61408e-08
1.6073e-08
1.60042e-08
1.59364e-08
1.58697e-08
1.58029e-08
1.57363e-08
1.56702e-08
1.56035e-08
1.55367e-08
1.5471e-08
1.5406e-08
1.53405e-08
1.52758e-08
1.52112e-08
1.51456e-08
1.50806e-08
1.50164e-08
1.49529e-08
1.48888e-08
1.48254e-08
1.47629e-08
1.47007e-08
1.46375e-08
1.45743e-08
1.45124e-08
1.44516e-08
1.43899e-08
1.43285e-08
1.42679e-08
1.42079e-08
1.41472e-08
1.40865e-08
1.40271e-08
1.39672e-08
1.39079e-08
1.38491e-08
1.37899e-08
1.37307e-08
1.36725e-08
1.36147e-08
1.35571e-08
1.35005e-08
1.34442e-08
1.3387e-08
1.33307e-08
1.32749e-08
1.32183e-08
1.31631e-08
1.3109e-08
1.30544e-08
1.30001e-08
1.29466e-08
1.28933e-08
1.28394e-08
1.27867e-08
1.27349e-08
1.26823e-08
1.26305e-08
1.25793e-08
1.25272e-08
1.24756e-08
1.24248e-08
1.2373e-08
1.23223e-08
1.2272e-08
1.22212e-08
1.21711e-08
1.21206e-08
1.20702e-08
1.20203e-08
1.19696e-08
1.19196e-08
1.18696e-08
1.182e-08
1.17707e-08
1.17208e-08
1.16715e-08
1.16213e-08
1.15715e-08
1.15215e-08
1.14714e-08
1.14216e-08
1.13716e-08
1.1322e-08
1.12717e-08
1.1222e-08
1.11714e-08
1.11216e-08
1.1071e-08
1.10212e-08
1.09709e-08
1.09207e-08
1.08712e-08
1.08225e-08
1.07744e-08
1.07271e-08
1.06806e-08
1.06349e-08
1.05902e-08
1.05462e-08
1.0503e-08
1.04606e-08
1.04188e-08
1.03778e-08
1.03376e-08
1.02982e-08
1.02596e-08
1.02219e-08
1.01848e-08
1.01485e-08
1.01128e-08
1.00779e-08
1.00439e-08
1.00105e-08
9.9778e-09
9.94576e-09
9.91438e-09
9.88367e-09
9.85366e-09
9.82427e-09
9.79545e-09
9.7672e-09
9.73952e-09
9.71244e-09
9.686e-09
9.66013e-09
9.63479e-09
9.60998e-09
9.58572e-09
9.56204e-09
9.53897e-09
9.51648e-09
9.4945e-09
9.47305e-09
9.45209e-09
9.43163e-09
9.41168e-09
9.39227e-09
9.37338e-09
9.35493e-09
9.33691e-09
9.31931e-09
9.30214e-09
9.28544e-09
9.26914e-09
9.25321e-09
9.23765e-09
9.22245e-09
9.20768e-09
9.19329e-09
9.17924e-09
9.16554e-09
9.15218e-09
9.13923e-09
9.12666e-09
9.11442e-09
9.1025e-09
9.09093e-09
9.07974e-09
9.06888e-09
9.05831e-09
9.04801e-09
9.038e-09
9.02832e-09
9.0189e-09
9.00974e-09
9.0008e-09
8.99211e-09
8.98366e-09
8.97551e-09
8.96765e-09
8.96001e-09
8.95256e-09
8.94528e-09
8.9382e-09
8.93132e-09
8.92467e-09
8.91818e-09
8.91185e-09
8.90567e-09
8.89965e-09
8.89379e-09
8.88814e-09
8.88268e-09
8.87737e-09
8.87218e-09
8.8671e-09
8.86212e-09
8.85724e-09
8.85246e-09
8.84782e-09
8.84332e-09
8.83894e-09
8.83466e-09
8.83049e-09
8.82642e-09
8.82246e-09
8.81859e-09
8.81483e-09
8.81114e-09
8.80751e-09
8.80395e-09
8.80045e-09
8.79703e-09
8.79369e-09
8.79048e-09
8.78736e-09
8.7843e-09
8.78131e-09
8.77837e-09
8.77549e-09
8.77268e-09
8.76994e-09
8.76727e-09
8.76466e-09
8.76214e-09
8.75968e-09
8.75729e-09
8.75495e-09
8.75266e-09
8.75039e-09
8.74815e-09
8.74595e-09
8.7438e-09
8.7417e-09
8.73968e-09
8.73772e-09
8.7358e-09
8.73388e-09
8.73197e-09
8.73006e-09
8.72816e-09
8.72632e-09
8.72456e-09
8.72287e-09
8.72123e-09
8.71961e-09
8.71801e-09
8.71644e-09
8.71491e-09
8.71341e-09
8.71197e-09
8.71058e-09
8.70922e-09
8.70787e-09
8.70653e-09
8.70522e-09
8.70397e-09
8.70276e-09
8.7016e-09
8.70047e-09
8.69937e-09
8.69831e-09
8.69727e-09
8.69627e-09
8.69529e-09
8.69428e-09
8.69327e-09
8.69225e-09
8.6913e-09
8.69043e-09
8.68955e-09
8.68891e-09
8.68812e-09
8.68798e-09
8.68722e-09
8.68689e-09
8.68649e-09
8.68615e-09
8.68577e-09
8.68532e-09
8.68495e-09
8.68458e-09
8.68429e-09
8.68415e-09
8.68375e-09
8.68335e-09
8.68299e-09
8.68273e-09
8.68257e-09
8.68231e-09
8.68225e-09
8.68235e-09
8.68261e-09
8.68275e-09
8.68289e-09
8.68316e-09
8.68311e-09
8.68319e-09
8.68293e-09
8.68328e-09
8.68332e-09
8.68314e-09
8.68376e-09
8.68362e-09
8.68383e-09
8.68327e-09
8.68252e-09
8.68253e-09
8.682e-09
8.68151e-09
8.68424e-09
8.68272e-09
8.6952e-09
8.69325e-09
8.69534e-09
8.69618e-09
8.69637e-09
8.69627e-09
8.69591e-09
8.69524e-09
8.69432e-09
8.69326e-09
8.69213e-09
8.69101e-09
8.69002e-09
8.68924e-09
8.68858e-09
8.68796e-09
8.68733e-09
8.68673e-09
8.6862e-09
8.68579e-09
8.68546e-09
8.68514e-09
8.68481e-09
8.68443e-09
8.684e-09
8.68353e-09
8.68306e-09
8.68261e-09
8.68219e-09
8.68183e-09
8.68155e-09
8.68135e-09
8.68126e-09
8.68133e-09
8.68152e-09
8.68183e-09
8.68223e-09
8.68271e-09
8.68326e-09
8.68387e-09
8.68451e-09
8.68515e-09
8.68574e-09
8.6862e-09
8.68648e-09
8.68655e-09
8.68648e-09
8.68636e-09
8.6863e-09
8.68644e-09
8.68689e-09
8.68766e-09
8.68866e-09
8.68966e-09
8.6904e-09
8.69063e-09
8.69051e-09
8.69045e-09
8.69096e-09
8.69189e-09
8.69252e-09
8.69222e-09
8.69089e-09
8.6893e-09
8.68846e-09
8.68843e-09
8.68803e-09
8.68675e-09
8.68509e-09
8.68451e-09
8.6853e-09
8.68547e-09
8.68506e-09
8.68554e-09
8.68737e-09
8.68819e-09
8.68762e-09
8.68691e-09
8.68578e-09
8.68655e-09
8.68329e-09
1.02677e-08
1.03463e-08
1.03245e-08
1.03128e-08
1.03198e-08
1.03048e-08
1.02962e-08
1.0288e-08
1.02816e-08
1.02809e-08
1.02852e-08
1.02888e-08
1.02905e-08
1.02887e-08
1.02844e-08
1.02842e-08
1.02867e-08
1.029e-08
1.02962e-08
1.03015e-08
1.02992e-08
1.02965e-08
1.0295e-08
1.02985e-08
1.03035e-08
1.03056e-08
1.03056e-08
1.03061e-08
1.03093e-08
1.03116e-08
1.0307e-08
1.02984e-08
1.02966e-08
1.0303e-08
1.03045e-08
1.02962e-08
1.02853e-08
1.02882e-08
1.03014e-08
1.03047e-08
1.02981e-08
1.0279e-08
1.02625e-08
1.02659e-08
1.02728e-08
1.02603e-08
1.02396e-08
1.02353e-08
1.02376e-08
1.02308e-08
1.02135e-08
1.01991e-08
1.01937e-08
1.01933e-08
1.01948e-08
1.01925e-08
1.01906e-08
1.01964e-08
1.02011e-08
1.01917e-08
1.01787e-08
1.0178e-08
1.01849e-08
1.01773e-08
1.01623e-08
1.01455e-08
1.01348e-08
1.01297e-08
1.01214e-08
1.01148e-08
1.01143e-08
1.01178e-08
1.01252e-08
1.01346e-08
1.01471e-08
1.01577e-08
1.01581e-08
1.01414e-08
1.01145e-08
1.00994e-08
1.0108e-08
1.01404e-08
1.01921e-08
1.01983e-08
1.01909e-08
1.01172e-08
1.00977e-08
1.01078e-08
1.01123e-08
1.01137e-08
1.00981e-08
1.00888e-08
1.00836e-08
1.00772e-08
1.00729e-08
1.00741e-08
1.0074e-08
1.00733e-08
1.00727e-08
1.00719e-08
1.00755e-08
1.01046e-08
1.01309e-08
1.01104e-08
1.01403e-08
1.01298e-08
1.01011e-08
1.00827e-08
1.00946e-08
1.00961e-08
1.00783e-08
1.00753e-08
1.00724e-08
1.00683e-08
1.0069e-08
1.00686e-08
1.00682e-08
1.00668e-08
1.00682e-08
1.00977e-08
1.01227e-08
1.00998e-08
1.01249e-08
1.01213e-08
1.01025e-08
1.01015e-08
1.00979e-08
1.00928e-08
1.00931e-08
1.00894e-08
1.00851e-08
1.00885e-08
1.00869e-08
1.00836e-08
1.00809e-08
1.00792e-08
1.00808e-08
1.00789e-08
1.00773e-08
1.0075e-08
1.0075e-08
1.00731e-08
1.00712e-08
1.00702e-08
1.00687e-08
1.00664e-08
1.00643e-08
1.00629e-08
1.00623e-08
1.00604e-08
1.00588e-08
1.00573e-08
1.00549e-08
1.00531e-08
1.00527e-08
1.00516e-08
1.00499e-08
1.00479e-08
1.00466e-08
1.00461e-08
1.0045e-08
1.00434e-08
1.00419e-08
1.00412e-08
1.00404e-08
1.00395e-08
1.00379e-08
1.00369e-08
1.00363e-08
1.00356e-08
1.00344e-08
1.00333e-08
1.00326e-08
1.00321e-08
1.00311e-08
1.00303e-08
1.00297e-08
1.0029e-08
1.00283e-08
1.00277e-08
1.00272e-08
1.00266e-08
1.0026e-08
1.00255e-08
1.0025e-08
1.00245e-08
1.0024e-08
1.00236e-08
1.00232e-08
1.00228e-08
1.00224e-08
1.0022e-08
1.00217e-08
1.00213e-08
1.0021e-08
1.00208e-08
1.00205e-08
1.00204e-08
1.00202e-08
1.00201e-08
1.002e-08
1.00198e-08
1.00197e-08
1.00196e-08
1.00194e-08
1.00193e-08
1.00191e-08
1.00188e-08
1.00187e-08
1.00185e-08
1.00183e-08
1.00181e-08
1.0018e-08
1.00178e-08
1.00176e-08
1.00174e-08
1.00171e-08
1.00169e-08
1.00166e-08
1.00164e-08
1.00161e-08
1.00159e-08
1.00156e-08
1.00154e-08
1.00151e-08
1.00149e-08
1.00146e-08
1.00144e-08
1.00141e-08
1.00139e-08
1.00136e-08
1.00133e-08
1.0013e-08
1.00127e-08
1.00125e-08
1.00123e-08
1.0012e-08
1.00117e-08
1.00114e-08
1.00111e-08
1.00108e-08
1.00105e-08
1.00102e-08
1.00099e-08
1.00097e-08
1.00094e-08
1.00091e-08
1.00088e-08
1.00085e-08
1.00082e-08
1.00079e-08
1.00076e-08
1.00073e-08
1.0007e-08
1.00067e-08
1.00063e-08
1.0006e-08
1.00057e-08
1.00054e-08
1.00051e-08
1.00048e-08
1.00045e-08
1.00042e-08
1.00039e-08
1.00036e-08
1.00033e-08
1.0003e-08
1.00027e-08
1.00024e-08
1.00021e-08
1.00018e-08
1.00015e-08
1.00012e-08
1.00009e-08
1.00006e-08
1.00003e-08
9.99998e-09
9.99968e-09
9.99939e-09
9.99911e-09
9.99883e-09
9.99855e-09
9.99828e-09
9.99801e-09
9.99775e-09
9.9975e-09
9.99726e-09
9.99702e-09
9.99678e-09
9.99654e-09
9.9963e-09
9.99607e-09
9.99583e-09
9.99558e-09
9.99534e-09
9.9951e-09
9.99486e-09
9.99462e-09
9.99439e-09
9.99416e-09
9.99393e-09
9.99371e-09
9.9935e-09
9.99329e-09
9.9931e-09
9.9929e-09
9.99272e-09
9.99254e-09
9.99236e-09
9.99219e-09
9.99201e-09
9.99184e-09
9.99167e-09
9.99151e-09
9.99134e-09
9.99118e-09
9.99102e-09
9.99086e-09
9.9907e-09
9.99055e-09
9.9904e-09
9.99025e-09
9.9901e-09
9.98995e-09
9.9898e-09
9.98965e-09
9.98951e-09
9.98936e-09
9.98922e-09
9.98908e-09
9.98896e-09
9.98884e-09
9.98872e-09
9.9886e-09
9.9885e-09
9.98839e-09
9.98829e-09
9.98819e-09
9.98808e-09
9.98797e-09
9.98787e-09
9.98777e-09
9.98767e-09
9.98758e-09
9.98748e-09
9.9874e-09
9.98731e-09
9.98723e-09
9.98716e-09
9.98708e-09
9.98701e-09
9.98693e-09
9.98686e-09
9.98679e-09
9.98672e-09
9.98665e-09
9.98659e-09
9.98654e-09
9.98648e-09
9.98643e-09
9.98638e-09
9.98634e-09
9.98629e-09
9.98625e-09
9.9862e-09
9.98616e-09
9.98612e-09
9.98608e-09
9.98605e-09
9.98602e-09
9.98599e-09
9.98597e-09
9.98595e-09
9.98592e-09
9.9859e-09
9.98587e-09
9.98585e-09
9.98583e-09
9.98581e-09
9.98579e-09
9.98577e-09
9.98576e-09
9.98574e-09
9.98573e-09
9.98571e-09
9.98569e-09
9.98567e-09
9.98565e-09
9.98564e-09
9.98563e-09
9.98562e-09
9.98561e-09
9.98559e-09
9.98558e-09
9.98556e-09
9.98554e-09
9.98553e-09
9.98552e-09
9.98551e-09
9.98551e-09
9.9855e-09
9.98549e-09
9.98548e-09
9.98547e-09
9.98546e-09
9.98546e-09
9.98545e-09
9.98545e-09
9.98544e-09
9.98543e-09
9.98543e-09
9.98542e-09
9.98541e-09
9.98541e-09
9.9854e-09
9.9854e-09
9.9854e-09
9.98539e-09
9.98539e-09
9.98538e-09
9.98538e-09
9.98537e-09
9.98537e-09
9.98536e-09
9.98536e-09
9.98536e-09
9.98537e-09
9.98537e-09
9.98537e-09
9.98537e-09
9.98537e-09
9.98537e-09
9.98537e-09
9.98537e-09
9.98536e-09
9.98536e-09
9.98535e-09
9.98535e-09
9.98535e-09
9.98535e-09
9.98535e-09
9.98533e-09
9.98533e-09
9.98533e-09
9.98534e-09
9.98533e-09
9.98533e-09
9.98534e-09
9.98534e-09
9.98535e-09
9.98534e-09
9.98534e-09
9.98533e-09
9.98533e-09
9.98532e-09
9.98533e-09
9.98534e-09
9.98532e-09
9.98534e-09
9.98535e-09
9.98531e-09
9.98535e-09
9.98525e-09
9.98544e-09
9.98544e-09
9.98604e-09
9.98614e-09
9.98548e-09
9.98551e-09
9.9856e-09
9.98547e-09
9.98539e-09
9.98536e-09
9.98533e-09
9.98532e-09
9.9853e-09
9.98527e-09
9.98525e-09
9.98524e-09
9.98523e-09
9.98523e-09
9.98524e-09
9.98526e-09
9.98527e-09
9.98526e-09
9.98526e-09
9.98526e-09
9.98527e-09
9.98528e-09
9.98529e-09
9.9853e-09
9.9853e-09
9.98529e-09
9.98529e-09
9.98528e-09
9.98528e-09
9.98528e-09
9.98529e-09
9.9853e-09
9.98532e-09
9.98535e-09
9.98538e-09
9.98538e-09
9.98539e-09
9.98539e-09
9.98539e-09
9.98539e-09
9.98539e-09
9.98539e-09
9.98539e-09
9.98539e-09
9.98538e-09
9.98538e-09
9.98538e-09
9.98537e-09
9.98537e-09
9.98537e-09
9.98537e-09
9.98538e-09
9.98538e-09
9.98539e-09
9.98539e-09
9.9854e-09
9.9854e-09
9.98539e-09
9.98537e-09
9.98539e-09
9.98539e-09
9.98539e-09
9.98541e-09
9.98534e-09
9.98526e-09
9.98529e-09
9.98537e-09
9.9854e-09
9.98535e-09
9.98525e-09
9.98529e-09
9.98538e-09
9.98541e-09
9.98538e-09
9.98537e-09
9.9854e-09
9.98541e-09
9.9854e-09
9.98533e-09
9.98536e-09
9.98527e-09
9.98537e-09
9.98528e-09
1.00182e-08
1.00195e-08
1.00188e-08
1.00193e-08
1.00196e-08
1.00195e-08
1.00195e-08
1.00193e-08
1.00195e-08
1.00197e-08
1.00196e-08
1.00192e-08
1.00191e-08
1.00193e-08
1.00193e-08
1.00192e-08
1.00191e-08
1.00189e-08
1.00188e-08
1.00187e-08
1.00186e-08
1.00185e-08
1.00183e-08
1.00181e-08
1.00178e-08
1.00174e-08
1.00172e-08
1.00173e-08
1.00176e-08
1.00178e-08
1.00176e-08
1.0017e-08
1.00165e-08
1.00165e-08
1.00168e-08
1.00171e-08
1.00173e-08
1.00176e-08
1.0018e-08
1.00183e-08
1.00183e-08
1.00177e-08
1.00172e-08
1.00173e-08
1.00175e-08
1.00173e-08
1.00167e-08
1.00164e-08
1.00162e-08
1.00157e-08
1.00151e-08
1.00146e-08
1.00143e-08
1.00141e-08
1.0014e-08
1.00139e-08
1.00139e-08
1.0014e-08
1.00141e-08
1.00139e-08
1.00138e-08
1.00141e-08
1.00145e-08
1.00146e-08
1.00145e-08
1.00145e-08
1.00147e-08
1.00149e-08
1.00151e-08
1.00154e-08
1.00155e-08
1.00158e-08
1.00161e-08
1.00163e-08
1.00163e-08
1.00163e-08
1.00161e-08
1.00159e-08
1.00159e-08
1.00164e-08
1.00171e-08
1.00181e-08
1.00196e-08
1.00208e-08
1.00203e-08
1.00188e-08
1.00181e-08
1.00181e-08
1.0017e-08
1.00154e-08
1.00138e-08
1.00144e-08
1.00144e-08
1.00138e-08
1.00143e-08
1.00142e-08
1.00139e-08
1.00139e-08
1.00138e-08
1.00138e-08
1.00138e-08
1.00139e-08
1.00141e-08
1.00143e-08
1.00149e-08
1.00149e-08
1.00143e-08
1.00142e-08
1.00143e-08
1.00141e-08
1.00137e-08
1.00136e-08
1.00135e-08
1.00132e-08
1.00131e-08
1.0013e-08
1.0013e-08
1.00129e-08
1.0013e-08
1.0013e-08
1.00132e-08
1.00137e-08
1.00148e-08
1.00147e-08
1.00136e-08
1.00137e-08
1.00134e-08
1.00131e-08
1.00129e-08
1.00127e-08
1.00125e-08
1.00126e-08
1.00128e-08
1.00127e-08
1.00124e-08
1.00123e-08
1.00122e-08
1.00121e-08
1.0012e-08
1.00119e-08
1.00118e-08
1.00117e-08
1.00115e-08
1.00114e-08
1.00113e-08
1.00112e-08
1.00111e-08
1.0011e-08
1.0011e-08
1.00109e-08
1.00109e-08
1.00109e-08
1.00108e-08
1.00108e-08
1.00107e-08
1.00107e-08
1.00107e-08
1.00106e-08
1.00105e-08
1.00105e-08
1.00105e-08
1.00104e-08
1.00103e-08
1.00102e-08
1.00102e-08
1.00102e-08
1.00101e-08
1.00101e-08
1.001e-08
1.00099e-08
1.00099e-08
1.00098e-08
1.00097e-08
1.00097e-08
1.00097e-08
1.00096e-08
1.00095e-08
1.00095e-08
1.00095e-08
1.00094e-08
1.00094e-08
1.00094e-08
1.00093e-08
1.00093e-08
1.00092e-08
1.00092e-08
1.00091e-08
1.00091e-08
1.0009e-08
1.0009e-08
1.0009e-08
1.00089e-08
1.00089e-08
1.00088e-08
1.00088e-08
1.00087e-08
1.00086e-08
1.00086e-08
1.00086e-08
1.00086e-08
1.00086e-08
1.00086e-08
1.00086e-08
1.00086e-08
1.00085e-08
1.00085e-08
1.00084e-08
1.00083e-08
1.00083e-08
1.00082e-08
1.00082e-08
1.00081e-08
1.00081e-08
1.0008e-08
1.0008e-08
1.00079e-08
1.00079e-08
1.00078e-08
1.00077e-08
1.00077e-08
1.00076e-08
1.00076e-08
1.00075e-08
1.00074e-08
1.00074e-08
1.00073e-08
1.00073e-08
1.00072e-08
1.00072e-08
1.00071e-08
1.00071e-08
1.0007e-08
1.0007e-08
1.00069e-08
1.00069e-08
1.00068e-08
1.00067e-08
1.00066e-08
1.00066e-08
1.00065e-08
1.00065e-08
1.00064e-08
1.00063e-08
1.00063e-08
1.00062e-08
1.00062e-08
1.00061e-08
1.00061e-08
1.0006e-08
1.0006e-08
1.00059e-08
1.00059e-08
1.00058e-08
1.00058e-08
1.00057e-08
1.00057e-08
1.00056e-08
1.00056e-08
1.00055e-08
1.00055e-08
1.00054e-08
1.00054e-08
1.00053e-08
1.00053e-08
1.00052e-08
1.00052e-08
1.00051e-08
1.00051e-08
1.0005e-08
1.0005e-08
1.00049e-08
1.00049e-08
1.00048e-08
1.00048e-08
1.00047e-08
1.00047e-08
1.00046e-08
1.00046e-08
1.00045e-08
1.00045e-08
1.00044e-08
1.00044e-08
1.00043e-08
1.00043e-08
1.00042e-08
1.00042e-08
1.00041e-08
1.00041e-08
1.00041e-08
1.0004e-08
1.00039e-08
1.00039e-08
1.00038e-08
1.00038e-08
1.00037e-08
1.00037e-08
1.00036e-08
1.00036e-08
1.00035e-08
1.00035e-08
1.00034e-08
1.00033e-08
1.00033e-08
1.00032e-08
1.00032e-08
1.00031e-08
1.00031e-08
1.0003e-08
1.00029e-08
1.00029e-08
1.00028e-08
1.00028e-08
1.00027e-08
1.00027e-08
1.00026e-08
1.00025e-08
1.00025e-08
1.00024e-08
1.00024e-08
1.00023e-08
1.00022e-08
1.00022e-08
1.00021e-08
1.0002e-08
1.0002e-08
1.00019e-08
1.00018e-08
1.00018e-08
1.00017e-08
1.00016e-08
1.00016e-08
1.00015e-08
1.00014e-08
1.00014e-08
1.00013e-08
1.00012e-08
1.00012e-08
1.00011e-08
1.0001e-08
1.0001e-08
1.00009e-08
1.00008e-08
1.00008e-08
1.00007e-08
1.00006e-08
1.00006e-08
1.00005e-08
1.00004e-08
1.00003e-08
1.00003e-08
1.00002e-08
1.00001e-08
1.00001e-08
1e-08
9.99998e-09
9.99993e-09
9.99987e-09
9.99982e-09
9.99977e-09
9.99972e-09
9.99967e-09
9.99962e-09
9.99958e-09
9.99953e-09
9.99949e-09
9.99945e-09
9.99942e-09
9.99938e-09
9.99934e-09
9.99931e-09
9.99927e-09
9.99924e-09
9.99921e-09
9.99918e-09
9.99914e-09
9.99912e-09
9.99909e-09
9.99906e-09
9.99904e-09
9.99901e-09
9.99898e-09
9.99895e-09
9.99892e-09
9.9989e-09
9.99888e-09
9.99885e-09
9.99883e-09
9.99881e-09
9.99879e-09
9.99877e-09
9.99875e-09
9.99872e-09
9.9987e-09
9.99868e-09
9.99866e-09
9.99865e-09
9.99863e-09
9.99861e-09
9.99859e-09
9.99857e-09
9.99855e-09
9.99854e-09
9.99852e-09
9.99851e-09
9.99849e-09
9.99848e-09
9.99846e-09
9.99845e-09
9.99843e-09
9.99842e-09
9.9984e-09
9.99839e-09
9.99838e-09
9.99837e-09
9.99836e-09
9.99834e-09
9.99833e-09
9.99831e-09
9.9983e-09
9.9983e-09
9.99829e-09
9.9983e-09
9.99829e-09
9.99832e-09
9.99831e-09
9.99826e-09
9.99825e-09
9.99823e-09
9.99823e-09
9.99819e-09
9.99818e-09
9.99818e-09
9.99818e-09
9.99817e-09
9.99816e-09
9.99816e-09
9.99815e-09
9.99814e-09
9.99813e-09
9.99813e-09
9.99812e-09
9.99811e-09
9.99811e-09
9.99811e-09
9.9981e-09
9.99809e-09
9.99809e-09
9.99808e-09
9.99807e-09
9.99806e-09
9.99806e-09
9.99807e-09
9.99809e-09
9.99808e-09
9.99807e-09
9.99807e-09
9.99807e-09
9.99804e-09
9.99825e-09
9.99816e-09
9.99908e-09
9.99901e-09
1.00001e-08
1.00003e-08
9.99885e-09
9.99879e-09
9.99868e-09
9.99857e-09
9.99844e-09
9.99826e-09
9.99807e-09
9.99809e-09
9.99808e-09
9.99805e-09
9.99805e-09
9.99805e-09
9.99804e-09
9.99804e-09
9.99805e-09
9.99805e-09
9.99806e-09
9.99809e-09
9.99814e-09
9.99816e-09
9.99813e-09
9.99809e-09
9.99806e-09
9.99805e-09
9.99807e-09
9.9981e-09
9.99814e-09
9.99816e-09
9.99816e-09
9.99814e-09
9.99811e-09
9.99808e-09
9.99807e-09
9.99808e-09
9.99809e-09
9.9981e-09
9.9981e-09
9.9981e-09
9.99809e-09
9.99808e-09
9.99807e-09
9.99807e-09
9.99808e-09
9.99809e-09
9.99811e-09
9.99812e-09
9.99812e-09
9.99811e-09
9.9981e-09
9.99809e-09
9.99808e-09
9.99808e-09
9.99807e-09
9.99806e-09
9.99806e-09
9.99806e-09
9.99808e-09
9.99809e-09
9.99812e-09
9.99815e-09
9.99811e-09
9.99806e-09
9.99807e-09
9.99808e-09
9.99814e-09
9.99816e-09
9.99807e-09
9.99809e-09
9.9981e-09
9.9981e-09
9.99825e-09
9.9981e-09
9.99813e-09
9.99812e-09
9.99819e-09
9.99838e-09
9.99812e-09
9.99813e-09
9.99829e-09
9.99851e-09
9.9981e-09
9.99805e-09
9.99812e-09
9.99825e-09
9.99881e-09
9.99869e-09
1.00256e-08
1.0024e-08
1.00226e-08
1.0023e-08
1.00228e-08
1.00226e-08
1.00228e-08
1.00226e-08
1.00222e-08
1.00216e-08
1.0021e-08
1.00207e-08
1.00203e-08
1.00199e-08
1.00191e-08
1.00183e-08
1.00179e-08
1.00175e-08
1.00171e-08
1.00167e-08
1.00165e-08
1.00162e-08
1.00157e-08
1.00154e-08
1.00151e-08
1.00149e-08
1.00145e-08
1.00144e-08
1.00144e-08
1.00145e-08
1.00147e-08
1.00148e-08
1.00148e-08
1.0015e-08
1.00151e-08
1.00153e-08
1.00155e-08
1.00156e-08
1.00157e-08
1.00157e-08
1.00156e-08
1.00155e-08
1.00154e-08
1.00152e-08
1.00151e-08
1.00149e-08
1.00147e-08
1.00145e-08
1.00142e-08
1.0014e-08
1.00138e-08
1.00137e-08
1.00136e-08
1.00135e-08
1.00133e-08
1.0013e-08
1.00127e-08
1.00123e-08
1.0012e-08
1.00116e-08
1.00115e-08
1.00113e-08
1.00113e-08
1.00112e-08
1.00113e-08
1.00114e-08
1.00116e-08
1.00117e-08
1.00119e-08
1.0012e-08
1.00121e-08
1.00124e-08
1.00125e-08
1.00125e-08
1.00125e-08
1.00126e-08
1.00123e-08
1.00122e-08
1.0012e-08
1.00117e-08
1.00126e-08
1.00134e-08
1.00141e-08
1.00146e-08
1.00154e-08
1.00167e-08
1.00183e-08
1.00192e-08
1.00188e-08
1.00172e-08
1.00161e-08
1.00151e-08
1.00145e-08
1.00131e-08
1.00135e-08
1.00136e-08
1.00137e-08
1.00136e-08
1.00136e-08
1.00135e-08
1.00135e-08
1.00135e-08
1.00135e-08
1.00136e-08
1.00137e-08
1.00138e-08
1.00139e-08
1.00141e-08
1.00143e-08
1.00142e-08
1.00138e-08
1.00136e-08
1.00134e-08
1.00133e-08
1.00132e-08
1.00131e-08
1.0013e-08
1.00129e-08
1.00129e-08
1.00129e-08
1.00128e-08
1.00129e-08
1.00129e-08
1.00131e-08
1.00133e-08
1.00139e-08
1.00135e-08
1.00128e-08
1.00127e-08
1.00124e-08
1.00123e-08
1.00121e-08
1.0012e-08
1.00118e-08
1.00117e-08
1.00117e-08
1.00118e-08
1.00118e-08
1.00116e-08
1.00115e-08
1.00114e-08
1.00113e-08
1.00112e-08
1.00111e-08
1.00111e-08
1.0011e-08
1.00109e-08
1.00108e-08
1.00108e-08
1.00107e-08
1.00107e-08
1.00107e-08
1.00106e-08
1.00106e-08
1.00106e-08
1.00105e-08
1.00105e-08
1.00104e-08
1.00104e-08
1.00103e-08
1.00103e-08
1.00103e-08
1.00102e-08
1.00101e-08
1.00101e-08
1.001e-08
1.001e-08
1.00099e-08
1.00098e-08
1.00098e-08
1.00098e-08
1.00097e-08
1.00096e-08
1.00096e-08
1.00096e-08
1.00095e-08
1.00094e-08
1.00094e-08
1.00094e-08
1.00093e-08
1.00093e-08
1.00092e-08
1.00092e-08
1.00091e-08
1.00091e-08
1.0009e-08
1.0009e-08
1.00089e-08
1.00089e-08
1.00088e-08
1.00088e-08
1.00087e-08
1.00087e-08
1.00087e-08
1.00086e-08
1.00085e-08
1.00085e-08
1.00085e-08
1.00084e-08
1.00084e-08
1.00084e-08
1.00083e-08
1.00083e-08
1.00083e-08
1.00082e-08
1.00082e-08
1.00081e-08
1.0008e-08
1.0008e-08
1.00079e-08
1.00079e-08
1.00078e-08
1.00078e-08
1.00077e-08
1.00077e-08
1.00076e-08
1.00076e-08
1.00075e-08
1.00074e-08
1.00074e-08
1.00073e-08
1.00073e-08
1.00072e-08
1.00072e-08
1.00071e-08
1.00071e-08
1.0007e-08
1.0007e-08
1.00069e-08
1.00069e-08
1.00068e-08
1.00067e-08
1.00067e-08
1.00066e-08
1.00066e-08
1.00065e-08
1.00064e-08
1.00064e-08
1.00064e-08
1.00063e-08
1.00063e-08
1.00062e-08
1.00062e-08
1.00061e-08
1.00061e-08
1.0006e-08
1.0006e-08
1.00059e-08
1.00059e-08
1.00058e-08
1.00058e-08
1.00057e-08
1.00057e-08
1.00056e-08
1.00056e-08
1.00055e-08
1.00054e-08
1.00054e-08
1.00053e-08
1.00053e-08
1.00053e-08
1.00052e-08
1.00052e-08
1.00051e-08
1.00051e-08
1.0005e-08
1.0005e-08
1.00049e-08
1.00049e-08
1.00048e-08
1.00048e-08
1.00048e-08
1.00047e-08
1.00047e-08
1.00046e-08
1.00046e-08
1.00045e-08
1.00045e-08
1.00044e-08
1.00044e-08
1.00043e-08
1.00043e-08
1.00042e-08
1.00042e-08
1.00041e-08
1.00041e-08
1.0004e-08
1.0004e-08
1.00039e-08
1.00039e-08
1.00039e-08
1.00038e-08
1.00038e-08
1.00037e-08
1.00037e-08
1.00036e-08
1.00036e-08
1.00035e-08
1.00035e-08
1.00034e-08
1.00033e-08
1.00033e-08
1.00032e-08
1.00032e-08
1.00031e-08
1.00031e-08
1.0003e-08
1.0003e-08
1.00029e-08
1.00029e-08
1.00028e-08
1.00028e-08
1.00027e-08
1.00026e-08
1.00026e-08
1.00025e-08
1.00025e-08
1.00024e-08
1.00024e-08
1.00023e-08
1.00022e-08
1.00022e-08
1.00021e-08
1.00021e-08
1.0002e-08
1.0002e-08
1.00019e-08
1.00018e-08
1.00018e-08
1.00017e-08
1.00016e-08
1.00016e-08
1.00015e-08
1.00014e-08
1.00014e-08
1.00013e-08
1.00012e-08
1.00012e-08
1.00011e-08
1.00011e-08
1.0001e-08
1.00009e-08
1.00009e-08
1.00008e-08
1.00007e-08
1.00007e-08
1.00006e-08
1.00005e-08
1.00005e-08
1.00004e-08
1.00004e-08
1.00003e-08
1.00002e-08
1.00002e-08
1.00001e-08
1.00001e-08
1e-08
9.99998e-09
9.99993e-09
9.99988e-09
9.99983e-09
9.99978e-09
9.99974e-09
9.9997e-09
9.99966e-09
9.99962e-09
9.99959e-09
9.99955e-09
9.99951e-09
9.99948e-09
9.99944e-09
9.99941e-09
9.99937e-09
9.99934e-09
9.99931e-09
9.99929e-09
9.99926e-09
9.99923e-09
9.99921e-09
9.99918e-09
9.99915e-09
9.99913e-09
9.9991e-09
9.99908e-09
9.99905e-09
9.99903e-09
9.99901e-09
9.99899e-09
9.99896e-09
9.99894e-09
9.99892e-09
9.9989e-09
9.99888e-09
9.99886e-09
9.99885e-09
9.99883e-09
9.99881e-09
9.99879e-09
9.99877e-09
9.99876e-09
9.99874e-09
9.99872e-09
9.99871e-09
9.99869e-09
9.99868e-09
9.99866e-09
9.99865e-09
9.99863e-09
9.99862e-09
9.99861e-09
9.9986e-09
9.99858e-09
9.99857e-09
9.99856e-09
9.99853e-09
9.99852e-09
9.99853e-09
9.99852e-09
9.99852e-09
9.99851e-09
9.99855e-09
9.99854e-09
9.99849e-09
9.99847e-09
9.99845e-09
9.99844e-09
9.99841e-09
9.9984e-09
9.9984e-09
9.99839e-09
9.99838e-09
9.99837e-09
9.99836e-09
9.99835e-09
9.99835e-09
9.99835e-09
9.99834e-09
9.99833e-09
9.99832e-09
9.99831e-09
9.99832e-09
9.99832e-09
9.99832e-09
9.9983e-09
9.99829e-09
9.99827e-09
9.99826e-09
9.99826e-09
9.99826e-09
9.99826e-09
9.9983e-09
9.99828e-09
9.99825e-09
9.99824e-09
9.99823e-09
9.99844e-09
9.99846e-09
9.99929e-09
9.99925e-09
1.00005e-08
1.00006e-08
9.9992e-09
9.99906e-09
9.99888e-09
9.99889e-09
9.99858e-09
9.99841e-09
9.99828e-09
9.99828e-09
9.99839e-09
9.99834e-09
9.99831e-09
9.9983e-09
9.99828e-09
9.99824e-09
9.99822e-09
9.99821e-09
9.99822e-09
9.99823e-09
9.99823e-09
9.99825e-09
9.99828e-09
9.99831e-09
9.9983e-09
9.99827e-09
9.99824e-09
9.99823e-09
9.99825e-09
9.99828e-09
9.99832e-09
9.99836e-09
9.99837e-09
9.99834e-09
9.99829e-09
9.99825e-09
9.99823e-09
9.99823e-09
9.99825e-09
9.99826e-09
9.99826e-09
9.99826e-09
9.99826e-09
9.99826e-09
9.99825e-09
9.99824e-09
9.99824e-09
9.99824e-09
9.99826e-09
9.99828e-09
9.9983e-09
9.99832e-09
9.99831e-09
9.99829e-09
9.99828e-09
9.99827e-09
9.99826e-09
9.99825e-09
9.99824e-09
9.99823e-09
9.99825e-09
9.99827e-09
9.99828e-09
9.99832e-09
9.99835e-09
9.9983e-09
9.99825e-09
9.99826e-09
9.99829e-09
9.99832e-09
9.99828e-09
9.99825e-09
9.99827e-09
9.99825e-09
9.99834e-09
9.99828e-09
9.9983e-09
9.99836e-09
9.99829e-09
9.99854e-09
9.99833e-09
9.99838e-09
9.99859e-09
9.99873e-09
9.99837e-09
9.99827e-09
9.99827e-09
9.99829e-09
9.99843e-09
9.99948e-09
9.999e-09
1.00226e-08
1.0021e-08
1.00198e-08
1.002e-08
1.002e-08
1.00202e-08
1.00203e-08
1.002e-08
1.002e-08
1.002e-08
1.00198e-08
1.00196e-08
1.00197e-08
1.00196e-08
1.00195e-08
1.00194e-08
1.00194e-08
1.00195e-08
1.00195e-08
1.00192e-08
1.00189e-08
1.00188e-08
1.0019e-08
1.00191e-08
1.0019e-08
1.00189e-08
1.00185e-08
1.00181e-08
1.00178e-08
1.00178e-08
1.00178e-08
1.00178e-08
1.00177e-08
1.00178e-08
1.00179e-08
1.0018e-08
1.00181e-08
1.00181e-08
1.00181e-08
1.00181e-08
1.0018e-08
1.00178e-08
1.00176e-08
1.00174e-08
1.00172e-08
1.00169e-08
1.00167e-08
1.00165e-08
1.00163e-08
1.00161e-08
1.0016e-08
1.0016e-08
1.0016e-08
1.00159e-08
1.00157e-08
1.00155e-08
1.00151e-08
1.00147e-08
1.00143e-08
1.00139e-08
1.00135e-08
1.00132e-08
1.0013e-08
1.00128e-08
1.00128e-08
1.00129e-08
1.0013e-08
1.0013e-08
1.0013e-08
1.00131e-08
1.00132e-08
1.00133e-08
1.00134e-08
1.00136e-08
1.00136e-08
1.00135e-08
1.00135e-08
1.00132e-08
1.00128e-08
1.00125e-08
1.00125e-08
1.00127e-08
1.0013e-08
1.00133e-08
1.00138e-08
1.00147e-08
1.00155e-08
1.00162e-08
1.00171e-08
1.00186e-08
1.00198e-08
1.00191e-08
1.00175e-08
1.00162e-08
1.00149e-08
1.00144e-08
1.00133e-08
1.00134e-08
1.00134e-08
1.00133e-08
1.00133e-08
1.00134e-08
1.00131e-08
1.00131e-08
1.00132e-08
1.00133e-08
1.00135e-08
1.00136e-08
1.00135e-08
1.00137e-08
1.00138e-08
1.0014e-08
1.00138e-08
1.00134e-08
1.00133e-08
1.0013e-08
1.00129e-08
1.00128e-08
1.00127e-08
1.00126e-08
1.00124e-08
1.00125e-08
1.00125e-08
1.00125e-08
1.00126e-08
1.00127e-08
1.00129e-08
1.00131e-08
1.00137e-08
1.00133e-08
1.00126e-08
1.00125e-08
1.00121e-08
1.0012e-08
1.00118e-08
1.00115e-08
1.00114e-08
1.00113e-08
1.00113e-08
1.00115e-08
1.00114e-08
1.00113e-08
1.00112e-08
1.00111e-08
1.0011e-08
1.00109e-08
1.00109e-08
1.00108e-08
1.00107e-08
1.00107e-08
1.00106e-08
1.00106e-08
1.00106e-08
1.00105e-08
1.00105e-08
1.00104e-08
1.00104e-08
1.00104e-08
1.00103e-08
1.00103e-08
1.00102e-08
1.00102e-08
1.00101e-08
1.00101e-08
1.001e-08
1.001e-08
1.00099e-08
1.00099e-08
1.00098e-08
1.00098e-08
1.00097e-08
1.00096e-08
1.00096e-08
1.00096e-08
1.00095e-08
1.00095e-08
1.00094e-08
1.00094e-08
1.00093e-08
1.00093e-08
1.00092e-08
1.00092e-08
1.00091e-08
1.00091e-08
1.0009e-08
1.0009e-08
1.00089e-08
1.00089e-08
1.00089e-08
1.00088e-08
1.00088e-08
1.00087e-08
1.00087e-08
1.00087e-08
1.00086e-08
1.00086e-08
1.00085e-08
1.00085e-08
1.00084e-08
1.00084e-08
1.00083e-08
1.00083e-08
1.00082e-08
1.00082e-08
1.00081e-08
1.00081e-08
1.0008e-08
1.0008e-08
1.00079e-08
1.00079e-08
1.00078e-08
1.00078e-08
1.00077e-08
1.00077e-08
1.00076e-08
1.00076e-08
1.00075e-08
1.00075e-08
1.00074e-08
1.00074e-08
1.00073e-08
1.00072e-08
1.00072e-08
1.00071e-08
1.00071e-08
1.0007e-08
1.0007e-08
1.00069e-08
1.00069e-08
1.00068e-08
1.00068e-08
1.00067e-08
1.00067e-08
1.00066e-08
1.00066e-08
1.00065e-08
1.00065e-08
1.00064e-08
1.00064e-08
1.00063e-08
1.00063e-08
1.00062e-08
1.00062e-08
1.00061e-08
1.00061e-08
1.0006e-08
1.00059e-08
1.00059e-08
1.00059e-08
1.00058e-08