/*--------------------------------*- C++ -*----------------------------------*\
| =========                 |                                                 |
| \\      /  F ield         | OpenFOAM: The Open Source CFD Toolbox           |
|  \\    /   O peration     | Version:  v2006                                 |
|   \\  /    A nd           | Website:  www.openfoam.com                      |
|    \\/     M anipulation  |                                                 |
\*---------------------------------------------------------------------------*/
FoamFile
{
    version     2.0;
    format      ascii;
    class       volScalarField;
    location    "2";
    object      nut;
}
// * * * * * * * * * * * * * * * * * * * * * * * * * * * * * * * * * * * * * //

dimensions      [0 2 -1 0 0 0 0];


internalField   nonuniform List<scalar> 
33000
(
3.28332e-09
3.02836e-09
3.12948e-09
3.06852e-09
3.03097e-09
2.97708e-09
2.94444e-09
2.91052e-09
2.88485e-09
2.86573e-09
2.84774e-09
2.83047e-09
2.81458e-09
2.79811e-09
2.7874e-09
2.78471e-09
2.78428e-09
2.78777e-09
2.79115e-09
2.7845e-09
2.77735e-09
2.79119e-09
2.82479e-09
2.8499e-09
2.857e-09
2.86488e-09
2.88549e-09
2.9243e-09
2.96514e-09
2.97169e-09
2.9765e-09
3.0167e-09
3.07844e-09
3.12552e-09
3.14597e-09
3.16149e-09
3.21103e-09
3.29944e-09
3.3542e-09
3.38797e-09
3.42588e-09
3.43883e-09
3.50057e-09
3.60813e-09
3.66508e-09
3.67373e-09
3.72359e-09
3.81444e-09
3.87823e-09
3.91335e-09
3.96428e-09
4.04889e-09
4.15147e-09
4.24093e-09
4.32404e-09
4.41627e-09
4.54134e-09
4.66249e-09
4.73935e-09
4.80891e-09
4.91356e-09
5.08815e-09
5.22655e-09
5.2902e-09
5.38065e-09
5.50413e-09
5.70931e-09
5.90011e-09
6.03576e-09
6.23645e-09
6.4377e-09
6.59108e-09
6.69728e-09
6.88139e-09
7.12616e-09
7.09434e-09
7.19555e-09
7.56952e-09
9.50025e-09
1.12559e-08
1.2012e-08
1.38582e-08
1.4576e-08
1.6639e-08
1.88073e-08
1.90627e-08
2.00416e-08
2.03246e-08
2.00967e-08
2.01433e-08
2.05929e-08
2.17033e-08
2.25934e-08
2.34555e-08
2.3722e-08
2.38793e-08
2.40159e-08
2.35364e-08
2.31766e-08
2.22542e-08
2.23113e-08
2.21294e-08
2.23011e-08
2.22188e-08
2.22669e-08
2.23748e-08
2.23836e-08
2.23451e-08
2.23313e-08
2.23354e-08
2.23277e-08
2.23042e-08
2.22822e-08
2.21726e-08
2.20648e-08
2.17219e-08
2.15411e-08
2.07989e-08
2.0932e-08
2.08231e-08
2.09759e-08
2.09517e-08
2.10367e-08
2.11772e-08
2.1229e-08
2.12637e-08
2.13079e-08
2.13358e-08
2.1379e-08
2.14174e-08
2.14296e-08
2.14438e-08
2.14629e-08
2.14748e-08
2.14814e-08
2.14762e-08
2.14767e-08
2.14782e-08
2.14771e-08
2.14682e-08
2.14565e-08
2.14445e-08
2.14285e-08
2.14067e-08
2.13809e-08
2.1353e-08
2.13213e-08
2.12855e-08
2.12463e-08
2.09834e-08
2.02935e-08
1.96114e-08
1.90091e-08
1.85233e-08
1.80014e-08
1.74607e-08
1.69722e-08
1.6546e-08
1.61718e-08
1.57763e-08
1.53752e-08
1.50146e-08
1.47071e-08
1.43974e-08
1.40788e-08
1.37771e-08
1.35096e-08
1.3264e-08
1.30145e-08
1.27686e-08
1.25384e-08
1.23337e-08
1.21401e-08
1.19405e-08
1.17512e-08
1.1579e-08
1.14148e-08
1.12574e-08
1.1106e-08
1.09633e-08
1.08257e-08
1.06958e-08
1.05742e-08
1.04576e-08
1.03458e-08
1.02416e-08
1.01469e-08
1.00561e-08
9.96672e-09
9.88208e-09
9.80662e-09
9.73692e-09
9.6679e-09
9.60432e-09
9.54612e-09
9.49296e-09
9.44264e-09
9.39506e-09
9.35234e-09
9.3139e-09
9.27935e-09
9.24762e-09
9.21863e-09
9.19291e-09
9.17134e-09
9.15297e-09
9.13933e-09
9.12709e-09
9.1164e-09
9.10985e-09
9.10752e-09
9.10825e-09
9.10971e-09
9.11523e-09
9.12399e-09
9.13735e-09
9.153e-09
9.16961e-09
9.19003e-09
9.21255e-09
9.23811e-09
9.26952e-09
9.30319e-09
9.33764e-09
9.37551e-09
9.4154e-09
9.45878e-09
9.50593e-09
9.55517e-09
9.60748e-09
9.66312e-09
9.72145e-09
9.78305e-09
9.8472e-09
9.91441e-09
9.98498e-09
1.00574e-08
1.01331e-08
1.02123e-08
1.02951e-08
1.03807e-08
1.0469e-08
1.05612e-08
1.06559e-08
1.07542e-08
1.08554e-08
1.096e-08
1.10681e-08
1.11795e-08
1.1295e-08
1.1413e-08
1.1535e-08
1.16596e-08
1.17888e-08
1.19207e-08
1.20567e-08
1.21963e-08
1.23402e-08
1.24887e-08
1.26421e-08
1.28005e-08
1.29639e-08
1.31325e-08
1.3272e-08
1.32162e-08
1.31615e-08
1.31077e-08
1.30548e-08
1.30028e-08
1.29517e-08
1.29015e-08
1.28524e-08
1.28044e-08
1.27573e-08
1.27111e-08
1.26658e-08
1.26214e-08
1.2578e-08
1.25355e-08
1.24939e-08
1.24531e-08
1.24132e-08
1.23741e-08
1.23358e-08
1.22984e-08
1.22618e-08
1.22259e-08
1.21907e-08
1.21562e-08
1.21224e-08
1.20895e-08
1.20572e-08
1.20256e-08
1.19947e-08
1.19645e-08
1.1935e-08
1.19062e-08
1.18782e-08
1.18508e-08
1.1824e-08
1.17979e-08
1.17724e-08
1.17476e-08
1.17234e-08
1.16998e-08
1.16768e-08
1.16543e-08
1.16324e-08
1.1611e-08
1.15902e-08
1.15699e-08
1.155e-08
1.15306e-08
1.15117e-08
1.14933e-08
1.14753e-08
1.14578e-08
1.14407e-08
1.14241e-08
1.14079e-08
1.13923e-08
1.1377e-08
1.13622e-08
1.13477e-08
1.13338e-08
1.13202e-08
1.13071e-08
1.12942e-08
1.12817e-08
1.12697e-08
1.12579e-08
1.12465e-08
1.12354e-08
1.12245e-08
1.1214e-08
1.12038e-08
1.1194e-08
1.11845e-08
1.11752e-08
1.11662e-08
1.11573e-08
1.11487e-08
1.11405e-08
1.11324e-08
1.11245e-08
1.11168e-08
1.11093e-08
1.1102e-08
1.10949e-08
1.10881e-08
1.10815e-08
1.1075e-08
1.10687e-08
1.10625e-08
1.10564e-08
1.10504e-08
1.10446e-08
1.1039e-08
1.10336e-08
1.10282e-08
1.1023e-08
1.1018e-08
1.1013e-08
1.10082e-08
1.10035e-08
1.09989e-08
1.09944e-08
1.099e-08
1.09856e-08
1.09813e-08
1.09772e-08
1.09732e-08
1.09693e-08
1.09655e-08
1.09617e-08
1.09581e-08
1.09545e-08
1.0951e-08
1.09476e-08
1.09442e-08
1.0941e-08
1.09378e-08
1.09348e-08
1.09318e-08
1.09289e-08
1.0926e-08
1.09232e-08
1.09204e-08
1.09176e-08
1.0915e-08
1.09124e-08
1.09098e-08
1.09074e-08
1.0905e-08
1.09026e-08
1.09002e-08
1.08978e-08
1.08955e-08
1.08932e-08
1.0891e-08
1.08889e-08
1.08868e-08
1.08848e-08
1.08828e-08
1.08809e-08
1.08789e-08
1.08771e-08
1.08753e-08
1.08736e-08
1.08719e-08
1.08702e-08
1.08685e-08
1.08669e-08
1.08653e-08
1.08638e-08
1.08624e-08
1.08609e-08
1.08596e-08
1.08582e-08
1.0857e-08
1.08557e-08
1.08545e-08
1.08532e-08
1.0852e-08
1.08507e-08
1.08495e-08
1.08484e-08
1.08473e-08
1.08465e-08
1.08455e-08
1.08454e-08
1.08444e-08
1.0844e-08
1.08435e-08
1.08431e-08
1.08426e-08
1.08421e-08
1.08416e-08
1.08411e-08
1.08408e-08
1.08406e-08
1.08401e-08
1.08396e-08
1.08391e-08
1.08388e-08
1.08386e-08
1.08383e-08
1.08382e-08
1.08383e-08
1.08387e-08
1.08389e-08
1.0839e-08
1.08394e-08
1.08393e-08
1.08394e-08
1.08391e-08
1.08395e-08
1.08396e-08
1.08393e-08
1.08401e-08
1.08399e-08
1.08402e-08
1.08395e-08
1.08386e-08
1.08386e-08
1.08379e-08
1.08373e-08
1.08407e-08
1.08388e-08
1.08544e-08
1.08519e-08
1.08546e-08
1.08556e-08
1.08558e-08
1.08557e-08
1.08553e-08
1.08544e-08
1.08533e-08
1.0852e-08
1.08505e-08
1.08491e-08
1.08479e-08
1.08469e-08
1.08461e-08
1.08453e-08
1.08446e-08
1.08438e-08
1.08432e-08
1.08426e-08
1.08422e-08
1.08418e-08
1.08414e-08
1.08409e-08
1.08404e-08
1.08398e-08
1.08392e-08
1.08387e-08
1.08382e-08
1.08377e-08
1.08374e-08
1.08371e-08
1.0837e-08
1.08371e-08
1.08373e-08
1.08377e-08
1.08382e-08
1.08388e-08
1.08395e-08
1.08402e-08
1.0841e-08
1.08418e-08
1.08426e-08
1.08432e-08
1.08435e-08
1.08436e-08
1.08435e-08
1.08433e-08
1.08433e-08
1.08435e-08
1.0844e-08
1.0845e-08
1.08462e-08
1.08475e-08
1.08484e-08
1.08487e-08
1.08485e-08
1.08485e-08
1.08491e-08
1.08502e-08
1.0851e-08
1.08507e-08
1.0849e-08
1.0847e-08
1.0846e-08
1.08459e-08
1.08454e-08
1.08438e-08
1.08418e-08
1.08411e-08
1.0842e-08
1.08422e-08
1.08417e-08
1.08423e-08
1.08446e-08
1.08456e-08
1.08449e-08
1.0844e-08
1.08426e-08
1.08436e-08
1.08395e-08
9.47832e-09
1.59925e-08
2.18029e-08
1.99886e-08
2.41062e-08
2.46716e-08
2.74078e-08
2.89054e-08
3.15392e-08
3.49227e-08
3.75991e-08
4.02579e-08
4.36516e-08
4.52051e-08
4.80051e-08
5.49389e-08
6.11306e-08
7.29218e-08
8.2012e-08
6.03024e-08
4.61105e-08
5.17323e-08
7.33589e-08
6.83372e-08
5.07527e-08
4.32911e-08
4.12876e-08
4.53994e-08
5.54244e-08
6.36042e-08
4.1384e-08
3.19547e-08
2.51742e-08
2.4201e-08
3.07193e-08
3.37359e-08
3.00779e-08
2.5293e-08
2.2041e-08
2.41323e-08
2.87227e-08
2.38016e-08
2.03405e-08
1.90995e-08
2.08056e-08
2.31688e-08
2.27552e-08
2.23297e-08
2.14445e-08
2.0531e-08
1.97531e-08
1.94686e-08
1.91155e-08
1.88482e-08
1.86544e-08
1.8192e-08
1.83309e-08
2.00862e-08
2.17021e-08
1.98527e-08
1.8465e-08
2.0054e-08
2.31367e-08
2.36786e-08
2.07616e-08
1.93702e-08
1.94614e-08
1.89187e-08
1.89479e-08
2.08261e-08
2.09203e-08
1.85698e-08
1.76331e-08
1.77237e-08
1.72471e-08
1.58316e-08
1.53455e-08
1.40687e-08
9.95157e-09
8.92826e-09
7.26993e-09
7.38238e-09
1.17296e-08
1.53521e-08
2.59307e-08
4.55975e-08
1.0384e-07
2.34955e-07
1.7864e-07
1.02403e-07
7.23428e-08
9.19107e-08
9.95125e-08
9.92543e-08
1.02187e-07
8.07415e-08
7.34198e-08
5.93256e-08
6.37894e-08
4.59352e-08
3.39059e-08
2.58378e-08
3.09346e-08
5.80199e-08
6.8637e-08
1.01922e-07
1.10751e-07
7.8849e-07
2.17328e-07
2.08947e-07
5.31468e-07
1.05208e-06
3.44448e-07
1.96815e-07
1.44032e-07
8.75699e-08
9.41241e-08
1.01149e-07
6.84945e-08
4.14381e-08
5.27912e-08
1.69329e-07
1.56393e-07
1.32532e-07
1.2481e-07
8.73432e-08
9.4011e-08
1.33596e-07
1.36724e-07
1.39208e-07
1.34856e-07
1.2074e-07
1.205e-07
1.26162e-07
1.26717e-07
1.23181e-07
1.18488e-07
1.20397e-07
1.19364e-07
1.17253e-07
1.14102e-07
1.17637e-07
1.18755e-07
1.1431e-07
1.15467e-07
1.1976e-07
1.20812e-07
1.1835e-07
1.18026e-07
1.2253e-07
1.24437e-07
1.2451e-07
1.28693e-07
1.31244e-07
1.3134e-07
1.32609e-07
1.37233e-07
1.41756e-07
1.43978e-07
1.44231e-07
1.46619e-07
1.51609e-07
1.57788e-07
1.60324e-07
1.59798e-07
1.63227e-07
1.72921e-07
1.78979e-07
1.7902e-07
1.79883e-07
1.91971e-07
2.01316e-07
2.04083e-07
2.05115e-07
2.21582e-07
2.31198e-07
2.35072e-07
2.46835e-07
2.62166e-07
2.75421e-07
2.86604e-07
3.02372e-07
3.20686e-07
3.40498e-07
3.65564e-07
3.97971e-07
4.35875e-07
4.75025e-07
5.16405e-07
5.68024e-07
6.35318e-07
7.09263e-07
8.19767e-07
9.92807e-07
1.21723e-06
1.34627e-06
1.34849e-06
1.35078e-06
1.35273e-06
1.35411e-06
1.35534e-06
1.35675e-06
1.35796e-06
1.1431e-06
9.62969e-07
8.38012e-07
7.69927e-07
7.14578e-07
6.21969e-07
5.72569e-07
5.34818e-07
4.98138e-07
4.65092e-07
4.36995e-07
4.12287e-07
3.92393e-07
3.75267e-07
3.59174e-07
3.46013e-07
3.33903e-07
3.21903e-07
3.11536e-07
3.01884e-07
2.93047e-07
2.85712e-07
2.78632e-07
2.71831e-07
2.65644e-07
2.60305e-07
2.55291e-07
2.50618e-07
2.46427e-07
2.42674e-07
2.39044e-07
2.35588e-07
2.32686e-07
2.30054e-07
2.2764e-07
2.26146e-07
2.25165e-07
2.229e-07
2.21013e-07
2.19954e-07
2.18837e-07
2.17791e-07
2.16911e-07
2.16358e-07
2.16127e-07
2.15795e-07
2.15559e-07
2.15461e-07
2.15556e-07
2.15754e-07
2.16089e-07
2.16703e-07
2.17525e-07
2.18412e-07
2.19528e-07
2.2067e-07
2.21829e-07
2.23042e-07
2.24325e-07
2.25723e-07
2.27271e-07
2.28998e-07
2.30879e-07
2.32892e-07
2.35023e-07
2.37226e-07
2.39553e-07
2.42085e-07
2.44794e-07
2.47695e-07
2.50755e-07
2.53832e-07
2.56969e-07
2.60218e-07
2.63534e-07
2.66922e-07
2.70443e-07
2.74151e-07
2.78047e-07
2.82054e-07
2.86102e-07
2.90216e-07
2.94409e-07
2.98696e-07
3.03094e-07
3.0763e-07
3.12338e-07
3.17251e-07
3.22355e-07
3.27657e-07
3.33179e-07
3.38918e-07
3.44907e-07
3.51163e-07
3.57659e-07
3.64368e-07
3.71274e-07
3.78362e-07
3.85603e-07
3.92998e-07
4.00527e-07
4.08166e-07
4.15949e-07
4.23893e-07
4.32021e-07
4.40359e-07
4.48936e-07
4.57764e-07
4.66856e-07
4.76224e-07
4.85884e-07
4.95859e-07
5.06163e-07
5.16781e-07
5.27696e-07
5.38892e-07
5.504e-07
5.62315e-07
5.74774e-07
5.87859e-07
6.01506e-07
6.1555e-07
6.29883e-07
6.44584e-07
6.59835e-07
6.75632e-07
6.91675e-07
7.07655e-07
7.23639e-07
7.39992e-07
7.56861e-07
7.73988e-07
7.91199e-07
8.08866e-07
8.27571e-07
8.4733e-07
8.67518e-07
8.87724e-07
9.08262e-07
9.29583e-07
9.51522e-07
9.73599e-07
9.9583e-07
1.01861e-06
1.04199e-06
1.06575e-06
1.08997e-06
1.11484e-06
1.14013e-06
1.16567e-06
1.19183e-06
1.21892e-06
1.24637e-06
1.27333e-06
1.29995e-06
1.30499e-06
1.30516e-06
1.30538e-06
1.30559e-06
1.30569e-06
1.30561e-06
1.30541e-06
1.30517e-06
1.30497e-06
1.30483e-06
1.30481e-06
1.30493e-06
1.30517e-06
1.30546e-06
1.30568e-06
1.30579e-06
1.30582e-06
1.30581e-06
1.30581e-06
1.3058e-06
1.30582e-06
1.30598e-06
1.30629e-06
1.30664e-06
1.3069e-06
1.30697e-06
1.30686e-06
1.30662e-06
1.3064e-06
1.30631e-06
1.30638e-06
1.30657e-06
1.30681e-06
1.30699e-06
1.307e-06
1.30682e-06
1.30652e-06
1.30618e-06
1.30592e-06
1.30587e-06
1.30608e-06
1.30646e-06
1.30678e-06
1.3069e-06
1.30686e-06
1.3068e-06
1.30674e-06
1.30672e-06
1.30688e-06
1.30715e-06
1.30733e-06
1.30732e-06
1.30717e-06
1.30704e-06
1.30708e-06
1.30731e-06
1.30753e-06
1.30769e-06
1.30783e-06
1.30784e-06
1.30782e-06
1.30791e-06
1.30804e-06
1.3078e-06
1.30757e-06
1.30713e-06
1.30708e-06
1.30793e-06
1.30804e-06
1.30851e-06
1.30924e-06
1.30999e-06
1.31031e-06
1.31013e-06
1.31066e-06
1.31065e-06
1.31056e-06
1.31006e-06
1.30981e-06
1.31002e-06
1.30997e-06
1.31067e-06
1.31022e-06
1.309e-06
1.30911e-06
1.30931e-06
1.31004e-06
1.30973e-06
1.30999e-06
1.31092e-06
1.31134e-06
1.31165e-06
1.31103e-06
1.31153e-06
1.31076e-06
1.31049e-06
1.30961e-06
1.31047e-06
1.31139e-06
1.30994e-06
1.31144e-06
1.31162e-06
1.30951e-06
1.30946e-06
1.30316e-06
1.30648e-06
1.30782e-06
1.30705e-06
1.31168e-06
1.31102e-06
1.31187e-06
1.31126e-06
1.30903e-06
1.30882e-06
1.30728e-06
1.30639e-06
1.30577e-06
1.30407e-06
1.30209e-06
1.30077e-06
1.30006e-06
1.29956e-06
1.29989e-06
1.30134e-06
1.30296e-06
1.30369e-06
1.3035e-06
1.30339e-06
1.30405e-06
1.30528e-06
1.30644e-06
1.3071e-06
1.30709e-06
1.30646e-06
1.30546e-06
1.30448e-06
1.30377e-06
1.30345e-06
1.30352e-06
1.30402e-06
1.30506e-06
1.30671e-06
1.30902e-06
1.31133e-06
1.31177e-06
1.3118e-06
1.31182e-06
1.31184e-06
1.31185e-06
1.31185e-06
1.31185e-06
1.31185e-06
1.31183e-06
1.31181e-06
1.31178e-06
1.31173e-06
1.31143e-06
1.31085e-06
1.31095e-06
1.31153e-06
1.31173e-06
1.31177e-06
1.3118e-06
1.31182e-06
1.31181e-06
1.31176e-06
1.31141e-06
1.31019e-06
1.3116e-06
1.31177e-06
1.31177e-06
1.3116e-06
1.30456e-06
1.29847e-06
1.30129e-06
1.30964e-06
1.3109e-06
1.30429e-06
1.29733e-06
1.3015e-06
1.31151e-06
1.31169e-06
1.31013e-06
1.30963e-06
1.31178e-06
1.31178e-06
1.31131e-06
1.3043e-06
1.30739e-06
1.29945e-06
1.29946e-06
1.28928e-06
8.69642e-09
1.22923e-08
2.22087e-08
1.9968e-08
2.4699e-08
2.53064e-08
2.7411e-08
2.88617e-08
3.03763e-08
3.2856e-08
3.54061e-08
3.74094e-08
3.97336e-08
4.07187e-08
4.24537e-08
4.70383e-08
5.30156e-08
6.19373e-08
6.00044e-08
4.60806e-08
4.10898e-08
4.82486e-08
6.00672e-08
4.58013e-08
3.57285e-08
3.49268e-08
3.79158e-08
4.59579e-08
3.87619e-08
3.47334e-08
3.5084e-08
3.4299e-08
2.93335e-08
2.32319e-08
2.37508e-08
2.6762e-08
3.0132e-08
2.60569e-08
2.03009e-08
2.05481e-08
2.07831e-08
2.12924e-08
2.48997e-08
2.21217e-08
1.94023e-08
2.09532e-08
2.35489e-08
2.30862e-08
2.07442e-08
2.07392e-08
2.11236e-08
2.07678e-08
1.90329e-08
1.85184e-08
1.82914e-08
1.76401e-08
1.86082e-08
1.93612e-08
1.85153e-08
1.7475e-08
1.90241e-08
2.16238e-08
2.02339e-08
1.97332e-08
1.89602e-08
2.18138e-08
2.22597e-08
1.93008e-08
1.81088e-08
1.87618e-08
2.01677e-08
2.08777e-08
2.10757e-08
2.18349e-08
2.08708e-08
2.55743e-08
3.71953e-08
3.58517e-08
2.87913e-08
2.16232e-08
1.50905e-08
1.03999e-08
9.02542e-09
7.4064e-09
7.38614e-09
1.07461e-08
1.64216e-08
1.79761e-08
3.15068e-08
5.70197e-08
1.76812e-07
1.75673e-07
1.72245e-07
7.12488e-08
8.82963e-08
9.94872e-08
1.51749e-07
2.48027e-07
1.42053e-07
1.2549e-07
6.5483e-08
6.71107e-08
4.44411e-08
3.39879e-08
2.51848e-08
3.03952e-08
4.65385e-08
6.19621e-08
9.09958e-08
1.08013e-07
1.24343e-07
1.79678e-07
2.36182e-07
1.10064e-06
2.60086e-07
1.45996e-07
1.02584e-07
1.15007e-07
9.99021e-08
1.27763e-07
1.24083e-07
8.09454e-08
4.19107e-08
4.97479e-08
1.63525e-07
1.61848e-07
1.33977e-07
1.30215e-07
8.76619e-08
9.00524e-08
1.23314e-07
1.33163e-07
1.45951e-07
1.37608e-07
1.20559e-07
1.08449e-07
1.12701e-07
1.1909e-07
1.15551e-07
1.12227e-07
1.14641e-07
1.18819e-07
1.18283e-07
1.12499e-07
1.17133e-07
1.19668e-07
1.17506e-07
1.15495e-07
1.1998e-07
1.22828e-07
1.25591e-07
1.26908e-07
1.24127e-07
1.23938e-07
1.31518e-07
1.35632e-07
1.37412e-07
1.37443e-07
1.3957e-07
1.45625e-07
1.4742e-07
1.4677e-07
1.52156e-07
1.58787e-07
1.5878e-07
1.63862e-07
1.6908e-07
1.75347e-07
1.77863e-07
1.8107e-07
1.90566e-07
1.97205e-07
2.01996e-07
2.05341e-07
2.19723e-07
2.30367e-07
2.33844e-07
2.43198e-07
2.59762e-07
2.74609e-07
2.83061e-07
2.97684e-07
3.20535e-07
3.41723e-07
3.59694e-07
3.89022e-07
4.25266e-07
4.67165e-07
5.01019e-07
5.40114e-07
6.00336e-07
6.88464e-07
7.75411e-07
8.86796e-07
1.06742e-06
1.33587e-06
1.52959e-06
1.66009e-06
1.83678e-06
1.79797e-06
1.6203e-06
1.44955e-06
1.23042e-06
1.03857e-06
9.01984e-07
8.0687e-07
7.4849e-07
6.6233e-07
5.93585e-07
5.62799e-07
5.29144e-07
4.90212e-07
4.57859e-07
4.30588e-07
4.07543e-07
3.90223e-07
3.70513e-07
3.54613e-07
3.41871e-07
3.29853e-07
3.19819e-07
3.1212e-07
3.00356e-07
2.90077e-07
2.81717e-07
2.75462e-07
2.70337e-07
2.64982e-07
2.59701e-07
2.54821e-07
2.50267e-07
2.45955e-07
2.41944e-07
2.38303e-07
2.34894e-07
2.32065e-07
2.29502e-07
2.27324e-07
2.2578e-07
2.2382e-07
2.21223e-07
2.19641e-07
2.19e-07
2.18148e-07
2.17228e-07
2.16372e-07
2.15773e-07
2.15396e-07
2.15061e-07
2.14698e-07
2.14439e-07
2.14446e-07
2.14653e-07
2.15045e-07
2.15742e-07
2.16852e-07
2.18113e-07
2.19346e-07
2.20538e-07
2.21659e-07
2.22773e-07
2.23965e-07
2.25305e-07
2.26851e-07
2.28644e-07
2.3068e-07
2.32875e-07
2.35157e-07
2.37503e-07
2.399e-07
2.42342e-07
2.44845e-07
2.4747e-07
2.50322e-07
2.53365e-07
2.56519e-07
2.59768e-07
2.63066e-07
2.66413e-07
2.69863e-07
2.73473e-07
2.77261e-07
2.81229e-07
2.85373e-07
2.89634e-07
2.94057e-07
2.98614e-07
3.03295e-07
3.08136e-07
3.13128e-07
3.18262e-07
3.23492e-07
3.28784e-07
3.34167e-07
3.39691e-07
3.45402e-07
3.51356e-07
3.57523e-07
3.63892e-07
3.70454e-07
3.77213e-07
3.84181e-07
3.91392e-07
3.9887e-07
4.06596e-07
4.14581e-07
4.22801e-07
4.31261e-07
4.39969e-07
4.48894e-07
4.58011e-07
4.67316e-07
4.76816e-07
4.86522e-07
4.96471e-07
5.0672e-07
5.17334e-07
5.28361e-07
5.39812e-07
5.51668e-07
5.6394e-07
5.76699e-07
5.90057e-07
6.04017e-07
6.18353e-07
6.32706e-07
6.46908e-07
6.612e-07
6.75989e-07
6.91382e-07
7.07116e-07
7.2308e-07
7.39711e-07
7.57549e-07
7.76435e-07
7.95553e-07
8.14408e-07
8.33409e-07
8.53111e-07
8.73204e-07
8.92903e-07
9.12172e-07
9.31862e-07
9.5258e-07
9.74186e-07
9.96584e-07
1.02012e-06
1.04491e-06
1.0705e-06
1.09647e-06
1.12249e-06
1.14804e-06
1.17263e-06
1.1965e-06
1.22048e-06
1.24513e-06
1.27058e-06
1.29722e-06
1.32577e-06
1.35654e-06
1.38894e-06
1.42177e-06
1.454e-06
1.48509e-06
1.51492e-06
1.54388e-06
1.57301e-06
1.6036e-06
1.6365e-06
1.67169e-06
1.70836e-06
1.74539e-06
1.7821e-06
1.81866e-06
1.85523e-06
1.89066e-06
1.92388e-06
1.95717e-06
1.9953e-06
2.04058e-06
2.09074e-06
2.14224e-06
2.19264e-06
2.23954e-06
2.28163e-06
2.32137e-06
2.3628e-06
2.4083e-06
2.45954e-06
2.5182e-06
2.58392e-06
2.65284e-06
2.71861e-06
2.77613e-06
2.82666e-06
2.87659e-06
2.93312e-06
3.00306e-06
3.08938e-06
3.18538e-06
3.2768e-06
3.35463e-06
3.42016e-06
3.47471e-06
3.53673e-06
3.62456e-06
3.73826e-06
3.86631e-06
3.97967e-06
4.06703e-06
4.13374e-06
4.21247e-06
4.30675e-06
4.40452e-06
4.53578e-06
4.69536e-06
4.84974e-06
5.0631e-06
5.19485e-06
5.14381e-06
5.22438e-06
5.16101e-06
5.28223e-06
5.32015e-06
5.48284e-06
5.71247e-06
5.85383e-06
6.08343e-06
6.25009e-06
6.8339e-06
7.09801e-06
7.09522e-06
7.22835e-06
7.36192e-06
7.41952e-06
7.63831e-06
7.87288e-06
8.30506e-06
8.58757e-06
8.56587e-06
8.77662e-06
9.12803e-06
9.17899e-06
9.32381e-06
9.32454e-06
9.32431e-06
9.32441e-06
9.32507e-06
9.32536e-06
9.32553e-06
9.32495e-06
9.32561e-06
9.32505e-06
9.32469e-06
9.32444e-06
9.32507e-06
9.32549e-06
9.32413e-06
9.32488e-06
9.32338e-06
6.20683e-06
7.65992e-06
5.83797e-06
5.249e-06
7.31543e-06
7.27613e-06
8.44157e-06
9.33658e-06
9.32754e-06
9.32528e-06
9.32463e-06
9.3248e-06
9.32366e-06
9.32283e-06
9.32185e-06
9.32015e-06
9.31887e-06
9.31829e-06
9.31774e-06
9.31708e-06
9.3171e-06
9.3179e-06
9.31873e-06
9.31894e-06
9.31877e-06
9.31893e-06
9.31972e-06
9.32083e-06
9.32179e-06
9.32222e-06
9.32204e-06
9.32133e-06
9.32035e-06
9.31951e-06
9.31901e-06
9.31893e-06
9.31925e-06
9.31995e-06
9.32102e-06
9.32247e-06
9.32424e-06
9.32574e-06
9.32596e-06
9.32598e-06
9.32599e-06
9.326e-06
9.32601e-06
9.32603e-06
9.32604e-06
9.32603e-06
9.32602e-06
9.326e-06
9.32596e-06
9.32592e-06
9.32579e-06
9.32553e-06
9.32561e-06
9.32584e-06
9.3259e-06
9.32593e-06
9.32597e-06
9.32599e-06
9.32599e-06
9.32597e-06
9.32584e-06
9.32529e-06
9.32586e-06
9.32592e-06
9.32593e-06
9.32493e-06
9.31905e-06
9.31622e-06
9.3197e-06
9.32462e-06
9.32377e-06
9.31795e-06
9.31511e-06
9.32046e-06
9.32578e-06
9.32549e-06
9.32341e-06
9.32537e-06
9.326e-06
9.32607e-06
9.32384e-06
9.32021e-06
9.32143e-06
9.3174e-06
4.56479e-06
6.65138e-06
7.77836e-09
1.07852e-08
2.04047e-08
1.97014e-08
2.29386e-08
2.31349e-08
2.48116e-08
2.62364e-08
2.77107e-08
2.98721e-08
3.17063e-08
3.29432e-08
3.46078e-08
3.65228e-08
3.91949e-08
4.30687e-08
4.78273e-08
5.2027e-08
4.94362e-08
4.31023e-08
4.1146e-08
4.46601e-08
4.57612e-08
3.98807e-08
3.56899e-08
3.43966e-08
3.5159e-08
3.67086e-08
3.02034e-08
2.46137e-08
2.4635e-08
2.91409e-08
3.63516e-08
3.23952e-08
2.34343e-08
2.11585e-08
2.36597e-08
2.58118e-08
2.56724e-08
2.26816e-08
1.9003e-08
2.04496e-08
2.5802e-08
2.58629e-08
2.13538e-08
1.95938e-08
2.06846e-08
2.07869e-08
2.08115e-08
2.15113e-08
2.07556e-08
1.94233e-08
1.88854e-08
1.89883e-08
1.86793e-08
1.85259e-08
1.90684e-08
1.80371e-08
1.66982e-08
1.73438e-08
1.95071e-08
1.96209e-08
1.84891e-08
1.84905e-08
1.88527e-08
2.10664e-08
2.19776e-08
2.12975e-08
1.95756e-08
1.79003e-08
1.94131e-08
2.37206e-08
2.60885e-08
2.68825e-08
2.42562e-08
2.62192e-08
2.92523e-08
3.207e-08
6.72122e-08
4.7288e-07
1.65566e-07
4.05145e-08
2.20734e-08
1.55235e-08
1.28219e-08
1.10422e-08
8.85155e-09
8.23148e-09
8.4175e-09
1.17398e-08
1.7673e-08
3.0593e-08
6.01011e-08
1.22965e-07
1.58355e-07
1.8005e-07
9.5443e-08
1.62469e-07
1.91544e-07
7.67126e-07
3.53044e-07
1.52449e-07
1.34038e-07
6.75405e-08
8.06511e-08
6.6086e-08
4.07852e-08
3.08243e-08
2.48928e-08
3.0478e-08
6.15065e-08
6.38954e-08
9.21753e-08
1.30432e-07
1.11034e-07
1.20567e-07
2.38237e-07
1.89946e-07
1.51243e-07
8.28781e-08
9.64387e-08
1.05782e-07
1.35488e-07
1.133e-07
8.34582e-08
4.13764e-08
5.03654e-08
1.6828e-07
1.57068e-07
1.30286e-07
1.18787e-07
8.4139e-08
9.07451e-08
1.25716e-07
1.20832e-07
1.25132e-07
1.34396e-07
1.2022e-07
1.05953e-07
1.05478e-07
1.15042e-07
1.16586e-07
1.18212e-07
1.15286e-07
1.15828e-07
1.14983e-07
1.14842e-07
1.18948e-07
1.24549e-07
1.21647e-07
1.2269e-07
1.26129e-07
1.23452e-07
1.23444e-07
1.30052e-07
1.35577e-07
1.36608e-07
1.35833e-07
1.37154e-07
1.44278e-07
1.48899e-07
1.46496e-07
1.48078e-07
1.54497e-07
1.60705e-07
1.66574e-07
1.64831e-07
1.69344e-07
1.78365e-07
1.86372e-07
1.86629e-07
1.91592e-07
2.03168e-07
2.11057e-07
2.12555e-07
2.23623e-07
2.36137e-07
2.44682e-07
2.52665e-07
2.66593e-07
2.80681e-07
2.94269e-07
3.14111e-07
3.3609e-07
3.5542e-07
3.80323e-07
4.05473e-07
4.41438e-07
4.78913e-07
5.15476e-07
5.68845e-07
6.49598e-07
7.16914e-07
7.81491e-07
8.81884e-07
1.07036e-06
1.20627e-06
1.2113e-06
1.26966e-06
1.24472e-06
1.21389e-06
1.17889e-06
1.03249e-06
9.15164e-07
8.31003e-07
7.60613e-07
6.87563e-07
5.94354e-07
5.60511e-07
5.43459e-07
5.08744e-07
4.75691e-07
4.47232e-07
4.22604e-07
4.01201e-07
3.83877e-07
3.66376e-07
3.50957e-07
3.3717e-07
3.24406e-07
3.14584e-07
3.07196e-07
2.97555e-07
2.87544e-07
2.78152e-07
2.72018e-07
2.67419e-07
2.62758e-07
2.57906e-07
2.53535e-07
2.49403e-07
2.44885e-07
2.40277e-07
2.36576e-07
2.33581e-07
2.3069e-07
2.28258e-07
2.26225e-07
2.23781e-07
2.20835e-07
2.19522e-07
2.19105e-07
2.18152e-07
2.17093e-07
2.16166e-07
2.15307e-07
2.14414e-07
2.13694e-07
2.13483e-07
2.13386e-07
2.13417e-07
2.1365e-07
2.14067e-07
2.146e-07
2.15237e-07
2.16155e-07
2.17284e-07
2.18292e-07
2.19414e-07
2.20636e-07
2.21971e-07
2.2345e-07
2.25005e-07
2.26632e-07
2.2839e-07
2.30396e-07
2.32623e-07
2.34955e-07
2.37405e-07
2.39862e-07
2.42154e-07
2.44469e-07
2.46892e-07
2.49547e-07
2.52561e-07
2.55764e-07
2.59041e-07
2.62368e-07
2.6575e-07
2.69197e-07
2.7273e-07
2.76419e-07
2.80366e-07
2.84588e-07
2.89e-07
2.93615e-07
2.98394e-07
3.03319e-07
3.08367e-07
3.13487e-07
3.18666e-07
3.23887e-07
3.29132e-07
3.34426e-07
3.39845e-07
3.45403e-07
3.51113e-07
3.56997e-07
3.6307e-07
3.69348e-07
3.75874e-07
3.82693e-07
3.89815e-07
3.97277e-07
4.0509e-07
4.13222e-07
4.21643e-07
4.30336e-07
4.39266e-07
4.48391e-07
4.57686e-07
4.67135e-07
4.76741e-07
4.8651e-07
4.96471e-07
5.06711e-07
5.17364e-07
5.2855e-07
5.40322e-07
5.52613e-07
5.65278e-07
5.78202e-07
5.91449e-07
6.05186e-07
6.19408e-07
6.33787e-07
6.47918e-07
6.61825e-07
6.76073e-07
6.91197e-07
7.07108e-07
7.23397e-07
7.40223e-07
7.58408e-07
7.78277e-07
7.98825e-07
8.18659e-07
8.37592e-07
8.56568e-07
8.76032e-07
8.95319e-07
9.14038e-07
9.33095e-07
9.53586e-07
9.75528e-07
9.98485e-07
1.02251e-06
1.04772e-06
1.07372e-06
1.10001e-06
1.12626e-06
1.15185e-06
1.17608e-06
1.19913e-06
1.22222e-06
1.24656e-06
1.27263e-06
1.30041e-06
1.3299e-06
1.36103e-06
1.3932e-06
1.4252e-06
1.45578e-06
1.48439e-06
1.51158e-06
1.5388e-06
1.56758e-06
1.59887e-06
1.63283e-06
1.66922e-06
1.70756e-06
1.74643e-06
1.78368e-06
1.81858e-06
1.85267e-06
1.88735e-06
1.92227e-06
1.95842e-06
1.99934e-06
2.04648e-06
2.09632e-06
2.14453e-06
2.18995e-06
2.23234e-06
2.27189e-06
2.31272e-06
2.36016e-06
2.41537e-06
2.47604e-06
2.53965e-06
2.60372e-06
2.66472e-06
2.71844e-06
2.76381e-06
2.80718e-06
2.85829e-06
2.92217e-06
3.0007e-06
3.09194e-06
3.18636e-06
3.26549e-06
3.32845e-06
3.39016e-06
3.45697e-06
3.53788e-06
3.64521e-06
3.76033e-06
3.8855e-06
3.97164e-06
4.0298e-06
4.08343e-06
4.15184e-06
4.27759e-06
4.41356e-06
4.63634e-06
4.80763e-06
4.81842e-06
4.90809e-06
4.82965e-06
4.91334e-06
4.93635e-06
5.06331e-06
5.2317e-06
5.37978e-06
5.65135e-06
5.80082e-06
6.266e-06
6.363e-06
6.42956e-06
6.7003e-06
7.00878e-06
7.18219e-06
7.35278e-06
7.59132e-06
7.64338e-06
7.67682e-06
7.87546e-06
8.26385e-06
8.83914e-06
8.89383e-06
8.62716e-06
8.48504e-06
8.65282e-06
9.06626e-06
9.61709e-06
9.99166e-06
9.99165e-06
9.99166e-06
9.99166e-06
9.99166e-06
9.99167e-06
9.99168e-06
9.99166e-06
9.99164e-06
9.99164e-06
9.99174e-06
9.99173e-06
5.92647e-06
6.53101e-06
5.572e-06
5.59273e-06
6.67291e-06
6.65575e-06
8.38395e-06
9.42377e-06
9.99227e-06
9.99203e-06
9.99184e-06
9.99171e-06
9.99173e-06
9.99171e-06
9.9917e-06
9.99167e-06
9.99164e-06
9.99161e-06
9.99156e-06
9.99154e-06
9.99154e-06
9.99154e-06
9.99153e-06
9.99153e-06
9.99155e-06
9.99157e-06
9.99156e-06
9.99155e-06
9.99155e-06
9.99156e-06
9.99159e-06
9.99162e-06
9.99164e-06
9.99165e-06
9.99164e-06
9.99161e-06
9.99157e-06
9.99155e-06
9.99155e-06
9.99156e-06
9.99158e-06
9.9916e-06
9.99163e-06
9.99165e-06
9.99167e-06
9.99167e-06
9.99167e-06
9.99166e-06
9.99166e-06
9.99166e-06
9.99167e-06
9.99168e-06
9.99169e-06
9.9917e-06
9.99169e-06
9.99168e-06
9.99168e-06
9.99167e-06
9.99167e-06
9.99166e-06
9.99166e-06
9.99166e-06
9.99166e-06
9.99167e-06
9.99168e-06
9.99169e-06
9.99171e-06
9.99168e-06
9.99166e-06
9.99167e-06
9.99168e-06
9.99169e-06
9.99164e-06
9.99155e-06
9.99154e-06
9.99159e-06
9.99167e-06
9.99161e-06
9.99154e-06
9.99157e-06
9.99163e-06
9.99177e-06
9.99164e-06
9.99167e-06
9.99181e-06
9.99186e-06
9.99167e-06
9.99162e-06
9.99159e-06
9.99159e-06
9.99165e-06
3.76253e-06
5.92923e-06
5.95654e-09
1.12679e-08
1.94446e-08
1.84164e-08
2.02041e-08
2.10865e-08
2.16999e-08
2.29702e-08
2.46922e-08
2.73627e-08
2.84234e-08
2.89614e-08
3.04585e-08
3.32147e-08
3.72042e-08
4.17887e-08
4.55469e-08
4.65073e-08
4.41484e-08
4.10911e-08
4.01297e-08
4.08194e-08
3.9878e-08
3.77424e-08
3.64033e-08
3.52295e-08
3.35203e-08
3.11025e-08
2.70069e-08
2.32242e-08
2.1707e-08
2.31761e-08
2.69823e-08
2.8714e-08
2.49474e-08
2.29009e-08
2.34513e-08
2.4391e-08
2.53006e-08
2.41355e-08
2.19701e-08
2.2212e-08
2.4047e-08
2.4299e-08
2.18604e-08
1.97284e-08
1.97186e-08
2.00225e-08
2.04122e-08
1.98646e-08
1.89101e-08
1.90421e-08
1.99799e-08
1.92145e-08
1.84829e-08
1.9614e-08
1.88254e-08
1.64005e-08
1.61854e-08
1.78362e-08
1.89129e-08
1.72482e-08
1.74914e-08
1.84023e-08
1.9689e-08
1.94016e-08
1.98062e-08
2.13381e-08
2.24342e-08
2.1238e-08
2.01501e-08
2.21981e-08
2.69824e-08
3.22068e-08
3.09851e-08
2.9924e-08
2.86879e-08
3.09162e-08
4.44063e-08
5.9367e-08
3.89698e-08
4.35158e-08
8.32531e-08
9.6121e-08
7.3335e-08
3.13303e-08
1.7154e-08
1.38784e-08
1.08753e-08
1.00195e-08
9.7983e-09
9.6113e-09
1.21378e-08
1.82118e-08
3.04529e-08
6.50218e-08
1.50398e-07
1.29126e-07
8.47648e-07
1.62687e-07
2.56183e-07
3.73582e-07
6.61715e-07
1.84673e-07
1.2673e-07
4.39051e-07
9.89216e-08
6.00878e-08
6.63112e-08
4.75404e-08
3.59417e-08
2.48563e-08
3.07954e-08
6.92332e-08
7.92978e-08
9.14205e-08
1.0551e-07
8.92332e-08
1.09766e-07
1.78761e-07
1.42109e-07
1.27639e-07
8.37671e-08
9.23675e-08
1.07881e-07
1.47253e-07
1.23682e-07
8.4018e-08
4.01602e-08
4.87705e-08
1.67905e-07
1.55132e-07
1.40678e-07
1.38604e-07
1.13728e-07
7.69215e-08
8.13517e-08
1.13522e-07
1.12738e-07
1.19077e-07
1.19917e-07
1.08219e-07
1.08721e-07
1.16664e-07
1.14658e-07
1.14551e-07
1.16008e-07
1.18368e-07
1.20491e-07
1.21251e-07
1.21439e-07
1.23302e-07
1.23172e-07
1.26516e-07
1.29387e-07
1.32353e-07
1.33599e-07
1.33413e-07
1.35945e-07
1.40658e-07
1.4589e-07
1.4753e-07
1.4662e-07
1.5191e-07
1.60721e-07
1.62811e-07
1.61407e-07
1.66767e-07
1.7787e-07
1.858e-07
1.83597e-07
1.87889e-07
2.00305e-07
2.11586e-07
2.08111e-07
2.18034e-07
2.33053e-07
2.43319e-07
2.47337e-07
2.59056e-07
2.77925e-07
2.90155e-07
3.03094e-07
3.24528e-07
3.46841e-07
3.65191e-07
3.87346e-07
4.1951e-07
4.60781e-07
4.96861e-07
5.34846e-07
5.91394e-07
6.49341e-07
7.01971e-07
7.48446e-07
8.50513e-07
9.52834e-07
9.56795e-07
9.78178e-07
9.56122e-07
9.69929e-07
9.51883e-07
8.58878e-07
7.95603e-07
7.41429e-07
6.86779e-07
6.25772e-07
5.63837e-07
5.40944e-07
5.1294e-07
4.80305e-07
4.55507e-07
4.29168e-07
4.08559e-07
3.9124e-07
3.7574e-07
3.59104e-07
3.44089e-07
3.30311e-07
3.18539e-07
3.09362e-07
3.01347e-07
2.93398e-07
2.84276e-07
2.76021e-07
2.6908e-07
2.63333e-07
2.58674e-07
2.54185e-07
2.50275e-07
2.46938e-07
2.42602e-07
2.37815e-07
2.3412e-07
2.31083e-07
2.28169e-07
2.2578e-07
2.23803e-07
2.21598e-07
2.19507e-07
2.18915e-07
2.18393e-07
2.16716e-07
2.15222e-07
2.14082e-07
2.13331e-07
2.12639e-07
2.12064e-07
2.11947e-07
2.12075e-07
2.12363e-07
2.12747e-07