/*--------------------------------*- C++ -*----------------------------------*\
| =========                 |                                                 |
| \\      /  F ield         | OpenFOAM: The Open Source CFD Toolbox           |
|  \\    /   O peration     | Version:  v2006                                 |
|   \\  /    A nd           | Website:  www.openfoam.com                      |
|    \\/     M anipulation  |                                                 |
\*---------------------------------------------------------------------------*/
FoamFile
{
    version     2.0;
    format      ascii;
    class       volScalarField;
    location    "2";
    object      omega;
}
// * * * * * * * * * * * * * * * * * * * * * * * * * * * * * * * * * * * * * //

dimensions      [0 0 -1 0 0 0 0];


internalField   nonuniform List<scalar> 
33000
(
0.803572
0.803577
0.803571
0.803558
0.803555
0.803551
0.803546
0.803543
0.803542
0.803544
0.803548
0.803552
0.803554
0.803555
0.803551
0.80355
0.803553
0.803559
0.803567
0.803575
0.803576
0.803575
0.803581
0.803596
0.803611
0.803617
0.803622
0.803629
0.803643
0.803657
0.803659
0.803659
0.803668
0.803687
0.803703
0.803702
0.803696
0.803705
0.803724
0.803731
0.803736
0.803725
0.803707
0.803704
0.803708
0.803692
0.803666
0.803652
0.803642
0.803625
0.803602
0.803581
0.803566
0.803554
0.803541
0.803526
0.803511
0.803501
0.803489
0.803469
0.803447
0.80343
0.80342
0.803402
0.80338
0.803356
0.803334
0.803318
0.803295
0.803269
0.803243
0.803209
0.803164
0.803102
0.803042
0.802955
0.802832
0.802689
0.802599
0.802506
0.8025
0.802483
0.802501
0.802505
0.802515
0.802512
0.802492
0.802486
0.802483
0.802482
0.802476
0.802469
0.802458
0.802446
0.802433
0.802409
0.802384
0.802328
0.802294
0.802206
0.802212
0.802195
0.802212
0.802204
0.802209
0.802219
0.80222
0.802217
0.802216
0.802216
0.802215
0.802213
0.802211
0.8022
0.80219
0.802157
0.802139
0.802068
0.802081
0.802069
0.802084
0.802082
0.80209
0.802103
0.802108
0.802111
0.802115
0.802117
0.802121
0.802124
0.802124
0.802125
0.802127
0.802127
0.802127
0.802126
0.802126
0.802125
0.802124
0.802123
0.802121
0.802119
0.802117
0.802115
0.802111
0.802108
0.802104
0.8021
0.802096
0.802091
0.802086
0.802081
0.802075
0.802069
0.802062
0.802056
0.802049
0.802042
0.802034
0.802027
0.802019
0.802011
0.802002
0.801994
0.801986
0.801977
0.801969
0.801961
0.801952
0.801944
0.801936
0.801928
0.80192
0.801912
0.801904
0.801895
0.801888
0.80188
0.801872
0.801864
0.801856
0.801848
0.80184
0.801832
0.801824
0.801816
0.801809
0.801801
0.801793
0.801786
0.801778
0.801771
0.801763
0.801756
0.801748
0.801741
0.801733
0.801726
0.801719
0.801711
0.801704
0.801697
0.80169
0.801682
0.801675
0.801668
0.801661
0.801654
0.801647
0.80164
0.801633
0.801626
0.80162
0.801613
0.801606
0.8016
0.801593
0.801586
0.80158
0.801573
0.801567
0.80156
0.801554
0.801548
0.801541
0.801535
0.801529
0.801522
0.801516
0.80151
0.801504
0.801497
0.801491
0.801485
0.801479
0.801473
0.801467
0.801461
0.801454
0.801448
0.801442
0.801436
0.80143
0.801424
0.801418
0.801412
0.801406
0.8014
0.801393
0.801387
0.801381
0.801375
0.801369
0.801363
0.801357
0.80135
0.801344
0.801339
0.801333
0.801327
0.801321
0.801316
0.80131
0.801305
0.801299
0.801294
0.801289
0.801284
0.801279
0.801274
0.80127
0.801265
0.801261
0.801256
0.801252
0.801247
0.801243
0.801239
0.801235
0.801231
0.801227
0.801224
0.80122
0.801216
0.801213
0.801209
0.801206
0.801203
0.801199
0.801196
0.801193
0.80119
0.801187
0.801184
0.801181
0.801179
0.801176
0.801173
0.801171
0.801168
0.801166
0.801163
0.801161
0.801159
0.801157
0.801154
0.801152
0.80115
0.801148
0.801146
0.801144
0.801143
0.801141
0.801139
0.801137
0.801136
0.801134
0.801132
0.801131
0.801129
0.801128
0.801126
0.801125
0.801124
0.801122
0.801121
0.80112
0.801119
0.801117
0.801116
0.801115
0.801114
0.801113
0.801112
0.801111
0.80111
0.801109
0.801108
0.801108
0.801107
0.801106
0.801105
0.801104
0.801104
0.801103
0.801102
0.801101
0.801101
0.8011
0.801099
0.801099
0.801098
0.801098
0.801097
0.801097
0.801096
0.801095
0.801095
0.801094
0.801094
0.801093
0.801093
0.801093
0.801092
0.801092
0.801091
0.801091
0.80109
0.80109
0.80109
0.801089
0.801089
0.801089
0.801088
0.801088
0.801088
0.801087
0.801087
0.801087
0.801086
0.801086
0.801086
0.801085
0.801085
0.801085
0.801085
0.801084
0.801084
0.801084
0.801084
0.801083
0.801083
0.801083
0.801083
0.801082
0.801082
0.801082
0.801082
0.801082
0.801081
0.801081
0.801081
0.801081
0.801081
0.80108
0.80108
0.80108
0.80108
0.80108
0.80108
0.801079
0.801079
0.801079
0.801079
0.801079
0.801079
0.801079
0.801078
0.801078
0.801078
0.801078
0.801078
0.801078
0.801078
0.801078
0.801078
0.801077
0.801077
0.801077
0.801077
0.801077
0.801077
0.801077
0.801077
0.801077
0.801077
0.801077
0.801077
0.801077
0.801077
0.801077
0.801077
0.801077
0.801077
0.801077
0.801077
0.801077
0.801077
0.801077
0.801077
0.801077
0.801077
0.801077
0.801077
0.801077
0.801077
0.801077
0.801077
0.801077
0.801077
0.801077
0.801077
0.801077
0.801077
0.801077
0.801077
0.801076
0.801077
0.801077
0.801078
0.801078
0.801078
0.801078
0.801078
0.801078
0.801078
0.801078
0.801078
0.801078
0.801078
0.801078
0.801077
0.801077
0.801077
0.801077
0.801077
0.801077
0.801077
0.801077
0.801077
0.801077
0.801077
0.801077
0.801077
0.801077
0.801077
0.801077
0.801077
0.801076
0.801076
0.801076
0.801076
0.801076
0.801076
0.801076
0.801077
0.801077
0.801077
0.801077
0.801077
0.801077
0.801077
0.801077
0.801077
0.801077
0.801077
0.801077
0.801077
0.801077
0.801077
0.801077
0.801077
0.801077
0.801077
0.801078
0.801078
0.801077
0.801078
0.801078
0.801078
0.801078
0.801078
0.801077
0.801077
0.801077
0.801077
0.801077
0.801077
0.801077
0.801077
0.801077
0.801077
0.801077
0.801077
0.801077
0.801077
0.801077
0.801077
0.801077
0.801077
0.0211137
0.0229476
0.0198601
0.0189165
0.0193295
0.0187614
0.0184002
0.0180869
0.0178671
0.0179089
0.0181954
0.0184657
0.0186522
0.018651
0.018522
0.0185936
0.0187982
0.0190861
0.0195024
0.0197988
0.0197537
0.0196305
0.0195943
0.019829
0.0201557
0.0203068
0.0203247
0.0203534
0.0205175
0.0206038
0.0203378
0.0199819
0.0200189
0.0204081
0.0203797
0.0198255
0.0192043
0.0194124
0.0202283
0.0203662
0.0199251
0.0188919
0.0179812
0.0181935
0.0185939
0.0178954
0.0166836
0.0164342
0.0166311
0.0163224
0.0153392
0.0145092
0.0142317
0.0142603
0.0144085
0.0143126
0.014235
0.014586
0.0148769
0.0143548
0.0136001
0.0135232
0.0138576
0.0133885
0.0124941
0.0115113
0.0108957
0.0105991
0.0100738
0.00965145
0.00958001
0.00977018
0.0103416
0.0111728
0.0124155
0.0136822
0.014019
0.0129336
0.0110931
0.0101848
0.0111672
0.0139974
0.0175676
0.0177593
0.016968
0.0103574
0.00904609
0.0107737
0.011245
0.0115321
0.0109562
0.0100772
0.00875162
0.00826486
0.00758078
0.00724684
0.00722801
0.00724088
0.00721205
0.00720106
0.00759571
0.0103853
0.0127765
0.0107
0.0135025
0.0129611
0.0100951
0.00965491
0.0102679
0.0105494
0.00988511
0.0095766
0.00837946
0.00731281
0.00721093
0.00724592
0.00724891
0.00715887
0.00735285
0.0105457
0.0131747
0.0115488
0.0143683
0.0137269
0.0115054
0.011845
0.0115991
0.0116449
0.0118214
0.0113564
0.0108523
0.0111742
0.0110812
0.0109302
0.0107115
0.0105578
0.0108085
0.0107052
0.0105846
0.0103774
0.0104727
0.0104067
0.0102956
0.0102187
0.0101715
0.0100444
0.00989131
0.00979162
0.00981914
0.00972422
0.00964285
0.00954113
0.00935722
0.00924031
0.00928589
0.00922363
0.00911303
0.00897024
0.00890731
0.0089123
0.00884077
0.00873071
0.0086402
0.0086399
0.00859336
0.00853675
0.00844193
0.00840118
0.00837125
0.00833378
0.0082604
0.00819486
0.00815295
0.00812458
0.00806712
0.0080189
0.00797427
0.00793496
0.00789688
0.00785823
0.00782097
0.00778269
0.00774835
0.007719
0.00768603
0.0076537
0.00762426
0.00760604
0.00758269
0.00755879
0.00753217
0.00751698
0.00749783
0.00747777
0.00745993
0.00744336
0.00743093
0.00741821
0.00740742
0.00739974
0.00739295
0.00738518
0.0073785
0.00737281
0.00736854
0.0073656
0.00736414
0.00736316
0.00736023
0.00735846
0.00735751
0.00735748
0.00735793
0.00735798
0.00735827
0.00735923
0.00736082
0.00736246
0.00736367
0.00736489
0.00736671
0.00736872
0.00737056
0.00737184
0.00737352
0.00737557
0.00737747
0.0073793
0.00738082
0.00738228
0.00738399
0.0073861
0.00738837
0.00739031
0.00739176
0.00739356
0.00739578
0.00739837
0.00740059
0.0074025
0.00740448
0.00740672
0.00740877
0.0074108
0.00741343
0.00741618
0.00741855
0.00742051
0.00742277
0.00742546
0.00742808
0.00742996
0.00743142
0.00743308
0.00743517
0.00743741
0.00743918
0.00744013
0.00744083
0.00744226
0.00744457
0.0074469
0.00744933
0.00745198
0.00745475
0.00745713
0.00745938
0.00746175
0.00746435
0.00746656
0.00746865
0.00747111
0.00747405
0.00747696
0.0074801
0.0074835
0.00748698
0.00749044
0.00749419
0.00749826
0.00750213
0.00750582
0.00750891
0.00751113
0.00751291
0.0075146
0.0075162
0.0075173
0.0075182
0.00751928
0.00752078
0.00752277
0.00752482
0.00752753
0.00753095
0.00753494
0.00753887
0.00754259
0.00754624
0.00754991
0.00755317
0.0075562
0.00755892
0.00756121
0.007563
0.00756423
0.00756545
0.00756686
0.00756838
0.00757016
0.0075724
0.00757495
0.0075777
0.00758074
0.0075838
0.00758659
0.00758924
0.00759155
0.00759346
0.0075953
0.00759708
0.00759876
0.00760057
0.00760227
0.00760415
0.00760671
0.00760994
0.0076139
0.0076177
0.00762085
0.00762334
0.00762531
0.00762709
0.00762808
0.0076281
0.0076277
0.00762801
0.00762948
0.00763147
0.00763347
0.0076356
0.00763833
0.00764142
0.00764406
0.00764581
0.00764678
0.00764743
0.00764753
0.00764723
0.00764681
0.0076469
0.00764736
0.00764824
0.00764965
0.00765136
0.00765288
0.00765341
0.00765318
0.00765252
0.00765151
0.00765019
0.00764891
0.0076483
0.0076487
0.00764988
0.00765121
0.00765237
0.00765314
0.00765326
0.00765254
0.00765108
0.0076494
0.00764808
0.00764741
0.00764725
0.00764724
0.00764724
0.00764729
0.00764714
0.00764622
0.0076444
0.0076423
0.00764079
0.00764035
0.00764099
0.00764236
0.00764366
0.00764418
0.00764375
0.0076426
0.00764119
0.00764016
0.00764008
0.0076411
0.00764285
0.00764485
0.00764637
0.00764666
0.00764541
0.0076432
0.00764128
0.00764057
0.00764081
0.00764116
0.00764149
0.0076416
0.00764069
0.00763908
0.00763802
0.0076381
0.00763896
0.00763973
0.00763945
0.00763816
0.00763687
0.0076359
0.00763509
0.00763502
0.00763516
0.00763464
0.00763385
0.00763524
0.00763659
0.00763914
0.00763946
0.0076345
0.00763384
0.00763109
0.00762683
0.00762249
0.00762063
0.00762168
0.00761858
0.00761866
0.00761914
0.00762205
0.00762349
0.0076223
0.00762255
0.00761853
0.00762115
0.00762822
0.00762757
0.0076264
0.00762217
0.00762399
0.00762247
0.00761702
0.00761461
0.00761282
0.00761644
0.00761351
0.00761799
0.00761956
0.00762463
0.00761967
0.00761432
0.00762274
0.00761404
0.00761299
0.00762525
0.00762557
0.00766233
0.00764303
0.00763516
0.00764011
0.00761327
0.00761656
0.00761167
0.0076153
0.00762812
0.00762933
0.00763829
0.00764346
0.00764707
0.00765701
0.00766865
0.00767641
0.00768057
0.00768354
0.00768158
0.00767304
0.00766352
0.00765924
0.00766036
0.00766101
0.00765713
0.00764993
0.00764312
0.00763925
0.00763931
0.00764304
0.00764886
0.00765459
0.00765878
0.00766067
0.00766026
0.00765732
0.00765122
0.00764158
0.0076281
0.0076147
0.00761212
0.00761196
0.00761184
0.00761175
0.00761169
0.00761166
0.00761166
0.00761169
0.00761177
0.00761191
0.0076121
0.00761234
0.00761411
0.00761745
0.00761688
0.00761351
0.00761236
0.00761214
0.00761195
0.00761184
0.00761191
0.00761219
0.00761424
0.00762132
0.00761316
0.00761214
0.00761214
0.00761318
0.00765419
0.00769001
0.00767339
0.0076245
0.00761719
0.00765577
0.00769678
0.00767211
0.00761364
0.00761262
0.0076217
0.00762457
0.0076121
0.00761214
0.00761484
0.00765568
0.00763762
0.00768422
0.00768425
0.00774484
0.00243787
0.00208066
0.00163417
0.00155736
0.00155553
0.00153498
0.00152075
0.00151075
0.0015036
0.00150409
0.00151296
0.00152113
0.0015276
0.00152982
0.00152905
0.00153362
0.00154044
0.00155107
0.00156671
0.00157849
0.00157927
0.00157405
0.00157426
0.00158646
0.00159942
0.00160381
0.00160487
0.00160924
0.0016238
0.00163362
0.00161669
0.00158567
0.00157173
0.00158677
0.00160046
0.00158651
0.00155601
0.00155254
0.00157284
0.00158
0.00157046
0.0015243
0.0014791
0.00148358
0.00150087
0.00147986
0.00143763
0.00142752
0.00142885
0.00141162
0.00137722
0.0013522
0.00134253
0.00133739
0.00133587
0.00133108
0.0013226
0.00132714
0.00133512
0.00131975
0.0012932
0.00128927
0.0013035
0.00128936
0.001263
0.00122814
0.00121486
0.00121336
0.00120957
0.00120557
0.00120222
0.00120337
0.00121587
0.00123133
0.00125393
0.00127257
0.00129859
0.00133398
0.00138113
0.00143258
0.00154524
0.00170978
0.00195869
0.00212606
0.0019978
0.00170041
0.00150382
0.00145855
0.00134268
0.00121826
0.00114453
0.00112723
0.00108978
0.00108134
0.00107697
0.00107216
0.00106786
0.00107335
0.00107806
0.00107438
0.00108432
0.00108558
0.00110685
0.00113548
0.00122675
0.00122925
0.00115328
0.00114303
0.00116455
0.0011557
0.00111968
0.001109
0.00108901
0.00106651
0.00106252
0.00106676
0.00107393
0.00107001
0.00107226
0.0010692
0.00107796
0.00112058
0.0012346
0.00123434
0.00115223
0.0011839
0.00116681
0.00114713
0.00115279
0.0011426
0.00112647
0.00113196
0.00112844
0.00112387
0.0011208
0.0011194
0.00112238
0.00111876
0.00111664
0.0011132
0.00111377
0.00111092
0.00110828
0.00110765
0.00110538
0.00110192
0.00109905
0.0010974
0.00109659
0.00109401
0.00109186
0.00108984
0.00108664
0.00108441
0.0010839
0.00108231
0.00108008
0.00107765
0.00107623
0.00107565
0.00107427
0.00107242
0.00107058
0.0010699
0.00106913
0.00106806
0.00106615
0.00106517
0.00106463
0.00106407
0.00106244
0.00106129
0.00106058
0.00106018
0.00105886
0.00105807
0.00105751
0.00105679
0.00105603
0.0010554
0.0010549
0.00105435
0.00105386
0.00105346
0.00105298
0.00105248
0.00105204
0.00105176
0.00105146
0.0010512
0.00105095
0.00105079
0.00105057
0.00105036
0.00105023
0.00105016
0.00105013
0.00105005
0.00105
0.00105002
0.00105009
0.00105014
0.00105022
0.00105035
0.00105049
0.00105056
0.00105062
0.00105072
0.00105081
0.00105086
0.00105093
0.00105101
0.00105113
0.00105126
0.0010514
0.00105153
0.00105166
0.00105173
0.00105178
0.00105185
0.00105195
0.00105208
0.00105223
0.00105232
0.00105241
0.00105249
0.00105257
0.00105267
0.00105275
0.00105278
0.00105283
0.00105289
0.00105298
0.0010531
0.00105321
0.0010533
0.00105339
0.00105347
0.00105354
0.0010536
0.00105367
0.00105369
0.0010537
0.00105373
0.00105378
0.00105385
0.00105392
0.00105397
0.00105403
0.00105411
0.00105417
0.00105424
0.00105431
0.0010544
0.00105445
0.0010544
0.00105432
0.00105427
0.00105428
0.00105434
0.00105444
0.00105454
0.00105462
0.00105471
0.0010548
0.00105488
0.00105494
0.001055
0.00105506
0.00105509
0.00105509
0.00105511
0.00105514
0.0010552
0.00105528
0.00105537
0.00105545
0.00105555
0.00105568
0.00105581
0.00105595
0.00105608
0.0010562
0.00105629
0.00105636
0.00105643
0.0010565
0.00105658
0.00105666
0.00105675
0.00105682
0.00105692
0.00105705
0.00105719
0.00105734
0.00105748
0.00105761
0.00105774
0.00105787
0.00105799
0.00105809
0.00105815
0.0010582
0.00105826
0.00105832
0.00105837
0.00105841
0.00105846
0.00105852
0.00105859
0.00105866
0.00105872
0.00105879
0.00105886
0.00105894
0.00105902
0.00105911
0.0010592
0.00105928
0.00105936
0.00105946
0.00105958
0.0010597
0.00105982
0.00105996
0.0010601
0.00106021
0.00106034
0.00106048
0.00106062
0.00106075
0.00106086
0.00106099
0.00106114
0.00106128
0.00106142
0.00106156
0.0010617
0.00106185
0.00106201
0.00106216
0.00106231
0.00106245
0.0010626
0.00106276
0.00106292
0.0010631
0.00106325
0.00106341
0.00106359
0.00106374
0.00106388
0.00106402
0.00106416
0.00106431
0.00106446
0.00106459
0.00106472
0.00106487
0.00106504
0.00106519
0.00106536
0.00106552
0.00106567
0.00106582
0.00106596
0.0010661
0.00106623
0.00106636
0.00106649
0.00106663
0.00106674
0.00106686
0.00106698
0.00106711
0.00106722
0.0010673
0.00106739
0.00106749
0.00106763
0.00106777
0.00106789
0.00106802
0.00106814
0.00106824
0.00106834
0.00106844
0.00106854
0.00106865
0.00106877
0.0010689
0.00106904
0.00106919
0.00106931
0.00106941
0.00106951
0.00106961
0.00106974
0.00106987
0.00107
0.00107013
0.00107022
0.0010703
0.00107035
0.00107041
0.00107052
0.00107065
0.00107078
0.0010709
0.00107097
0.00107103
0.0010711
0.00107117
0.00107122
0.0010713
0.00107143
0.00107153
0.0010717
0.00107176
0.00107164
0.00107167
0.00107161
0.00107168
0.00107154
0.00107165
0.00107185
0.00107185
0.00107192
0.00107196
0.00107212
0.00107214
0.00107213
0.00107209
0.00107211
0.00107211
0.00107219
0.00107224
0.00107225
0.00107227
0.00107221
0.00107225
0.00107236
0.00107234
0.00107232
0.00107223
0.00107226
0.00107225
0.00107217
0.00107214
0.00107212
0.00107218
0.00107211
0.00107218
0.00107221
0.00107224
0.00107217
0.00107212
0.00107228
0.00107221
0.00107237
0.00106689
0.00106755
0.00105919
0.00105739
0.00106814
0.00106857
0.00106984
0.0010709
0.00107193
0.00107217
0.00107222
0.00107221
0.00107233
0.00107243
0.00107254
0.00107273
0.00107288
0.00107295
0.00107301
0.00107309
0.00107309
0.001073
0.00107291
0.00107289
0.0010729
0.00107288
0.00107279
0.00107266
0.00107255
0.0010725
0.00107253
0.00107261
0.00107272
0.00107282
0.00107287
0.00107288
0.00107284
0.00107276
0.00107264
0.00107247
0.00107227
0.0010721
0.00107207
0.00107207
0.00107207
0.00107206
0.00107206
0.00107206
0.00107206
0.00107207
0.00107207
0.00107207
0.00107207
0.00107208
0.00107209
0.00107212
0.00107211
0.00107208
0.00107207
0.00107207
0.00107207
0.00107207
0.00107207
0.00107208
0.00107209
0.00107214
0.00107208
0.00107207
0.00107208
0.0010722
0.00107286
0.00107319
0.00107279
0.00107223
0.00107234
0.00107299
0.00107332
0.00107271
0.0010721
0.00107216
0.00107237
0.00107214
0.00107209
0.0010721
0.00107232
0.00107273
0.00107259
0.00107307
0.0010682
0.00107253
0.00224375
0.00171725
0.00131805
0.00124392
0.00123975
0.00123841
0.00123662
0.00123553
0.00123474
0.0012339
0.00123402
0.00123494
0.00123601
0.00123705
0.00123777
0.00123832
0.00123903
0.00124055
0.00124305
0.00124491
0.0012443
0.0012422
0.00124222
0.00124468
0.00124622
0.0012456
0.00124413
0.00124367
0.00124811
0.00125256
0.00124696
0.00123393
0.00122469
0.00122828
0.00123791
0.00123762
0.00122749
0.00122045
0.00121858
0.0012213
0.00122322
0.00121251
0.00119949
0.00119759
0.00120251
0.001202
0.00119572
0.00119242
0.00118891
0.00118348
0.00118062
0.00118042
0.00117875
0.00117565
0.00117284
0.00117049
0.00116785
0.00116798
0.00116711
0.0011625
0.00115666
0.00115653
0.00115544
0.00115201
0.00115041
0.00114494
0.00114237
0.00114296
0.00114712
0.00115234
0.00114947
0.00114362
0.00114503
0.00114845
0.00115137
0.00114199
0.00113241
0.00112857
0.00113483
0.00117712
0.00122139
0.00130239
0.00137114
0.00146209
0.00155193
0.00175511
0.00201018
0.00211236
0.00192591
0.00155319
0.00135188
0.00120317
0.00112826
0.0010754
0.00105906
0.0010365
0.00103434
0.00104062
0.00104737
0.00104337
0.00104909
0.00105751
0.00105496
0.00106465
0.00105857
0.00106864
0.00109211
0.00112144
0.00115333
0.00112886
0.00107054
0.00106944
0.00105402
0.00104975
0.00104718
0.00104543
0.00103443
0.00103455
0.00103916
0.00105013
0.0010468
0.00104818
0.00104455
0.00105404
0.00106678
0.00111191
0.00109514
0.0010467
0.00104684
0.00103839
0.001038
0.00103714
0.00103486
0.00102736
0.00102696
0.00102666
0.00102668
0.00102739
0.00102813
0.00102775
0.00102646
0.0010259
0.00102522
0.00102519
0.00102492
0.00102452
0.00102411
0.00102351
0.00102287
0.00102274
0.0010224
0.00102196
0.00102181
0.00102155
0.00102101
0.00102053
0.00102026
0.0010201
0.00101982
0.00101939
0.00101907
0.00101901
0.0010188
0.00101841
0.00101812
0.00101792
0.00101783
0.00101753
0.00101723
0.00101708
0.00101701
0.00101675
0.00101646
0.00101638
0.00101633
0.00101606
0.00101587
0.00101579
0.00101569
0.00101551
0.0010154
0.00101533
0.00101522
0.0010151
0.00101502
0.00101493
0.00101482
0.00101471
0.00101463
0.00101458
0.00101452
0.00101447
0.00101444
0.0010144
0.00101437
0.00101432
0.00101429
0.0010143
0.00101428
0.00101427
0.00101425
0.00101419
0.00101417
0.00101416
0.00101416
0.00101414
0.00101413
0.00101414
0.00101407
0.00101397
0.00101388
0.00101382
0.00101376
0.00101371
0.00101364
0.00101357
0.00101351
0.00101344
0.00101336
0.00101328
0.00101319
0.0010131
0.00101301
0.00101294
0.00101285
0.00101275
0.00101263
0.0010125
0.00101239
0.00101228
0.00101217
0.00101208
0.00101199
0.00101189
0.00101179
0.00101168
0.00101158
0.00101147
0.00101137
0.00101127
0.00101115
0.001011
0.00101086
0.00101073
0.00101061
0.00101049
0.00101038
0.00101027
0.00101015
0.00101004
0.00100992
0.00100979
0.00100966
0.00100952
0.00100939
0.00100924
0.00100909
0.00100895
0.00100881
0.00100868
0.00100855
0.00100842
0.0010083
0.00100818
0.00100805
0.00100793
0.00100779
0.00100766
0.00100752
0.00100739
0.00100726
0.00100713
0.00100701
0.00100688
0.00100676
0.00100663
0.00100651
0.00100639
0.00100628
0.00100616
0.00100605
0.00100594
0.00100582
0.0010057
0.00100558
0.00100546
0.00100534
0.00100522
0.0010051
0.00100499
0.00100488
0.00100478
0.00100468
0.00100459
0.0010045
0.00100441
0.00100432
0.00100423
0.00100415
0.00100406
0.00100397
0.00100389
0.0010038
0.00100371
0.00100362
0.00100353
0.00100344
0.00100336
0.00100327
0.00100319
0.00100311
0.00100304
0.00100296
0.00100289
0.00100282
0.00100275
0.00100269
0.00100262
0.00100255
0.00100248
0.00100241
0.00100234
0.00100228
0.00100222
0.00100215
0.00100209
0.00100204
0.00100199
0.00100194
0.00100189
0.00100184
0.00100179
0.00100173
0.00100168
0.00100163
0.00100158
0.00100153
0.00100149
0.00100144
0.00100141
0.00100137
0.00100134
0.0010013
0.00100127
0.00100123
0.0010012
0.00100116
0.00100113
0.0010011
0.00100106
0.00100104
0.00100101
0.00100099
0.00100097
0.00100095
0.00100093
0.00100091
0.00100089
0.00100088
0.00100086
0.00100084
0.00100083
0.00100082
0.00100081
0.0010008
0.00100079
0.00100078
0.00100077
0.00100076
0.00100075
0.00100074
0.00100073
0.00100073
0.00100072
0.00100072
0.00100071
0.00100071
0.0010007
0.0010007
0.00100069
0.00100069
0.00100068
0.00100068
0.00100068
0.00100068
0.00100067
0.00100067
0.00100067
0.00100067
0.00100066
0.00100066
0.00100066
0.00100066
0.00100066
0.00100066
0.00100066
0.00100066
0.00100066
0.00100066
0.00100066
0.00100066
0.00100066
0.00100066
0.00100066
0.00100065
0.00100065
0.00100066
0.00100066
0.00100066
0.00100066
0.00100066
0.00100066
0.00100066
0.00100066
0.00100066
0.00100066
0.00100066
0.00100066
0.00100066
0.00100066
0.00100066
0.00100066
0.00100066
0.00100066
0.00100066
0.00100066
0.00100066
0.00100066
0.00100066
0.00100067
0.00100067
0.00100067
0.00100066
0.00100066
0.00100066
0.00100066
0.00100067
0.00100067
0.00100067
0.00100066
0.00100066
0.00100067
0.00100067
0.00100066
0.00100066
0.00100066
0.00100066
0.00100066
0.00100066
0.00100066
0.00100066
0.00100066
0.00100066
0.00100066
0.00100066
0.00100067
0.00100067
0.00100068
0.00100068
0.00100084
0.0010008
0.00100061
0.0010005
0.00100048
0.00100062
0.00100063
0.00100064
0.00100064
0.00100066
0.00100067
0.00100066
0.00100066
0.00100066
0.00100066
0.00100066
0.00100067
0.00100067
0.00100067
0.00100067
0.00100067
0.00100067
0.00100067
0.00100067
0.00100067
0.00100067
0.00100067
0.00100067
0.00100067
0.00100067
0.00100067
0.00100067
0.00100067
0.00100067
0.00100067
0.00100067
0.00100067
0.00100067
0.00100067
0.00100067
0.00100066
0.00100066
0.00100066
0.00100066
0.00100066
0.00100066
0.00100066
0.00100066
0.00100066
0.00100066
0.00100066
0.00100066
0.00100066
0.00100066
0.00100066
0.00100066
0.00100066
0.00100066
0.00100066
0.00100066
0.00100066
0.00100066
0.00100066
0.00100066
0.00100066
0.00100066
0.00100066
0.00100066
0.00100066
0.00100066
0.00100066
0.00100067
0.00100067
0.00100067
0.00100067
0.00100067
0.00100068
0.00100068
0.00100067
0.00100068
0.00100067
0.00100067
0.00100068
0.00100069
0.00100067
0.00100067
0.00100067
0.00100067
0.00100068
0.00100064
0.00100068
0.0022985
0.00172549
0.00133212
0.0012499
0.0012439
0.00124163
0.00123981
0.00123884
0.00123819
0.00123702
0.00123697
0.00123805
0.00123954
0.00124102
0.00124207
0.00124236
0.00124246
0.00124323
0.00124468
0.00124587
0.00124597
0.00124534
0.001245
0.00124495
0.00124459
0.00124417
0.00124444
0.00124598
0.00124954
0.00125312
0.00125176
0.00124387
0.00123416
0.00122971
0.00123177
0.0012313
0.00122582
0.00122036
0.00121604
0.00121444
0.00121309
0.00120739
0.00120096
0.00119839
0.00119977
0.00120068
0.0011978
0.00119432
0.00119031
0.00118721
0.00118525
0.00118227
0.00117791
0.00117656
0.00117451
0.00117008
0.00117058
0.00117393
0.00117065
0.00116394
0.00116082
0.0011642
0.00116039
0.0011542
0.00115068
0.00115034
0.0011481
0.00114395
0.00114185
0.00114392
0.00114536
0.00114109
0.00113644
0.00113493
0.00113511
0.00112909
0.00112672
0.00112095
0.00110672
0.00110073
0.00110146
0.00111273
0.00114018
0.0011719
0.00122271
0.00132322
0.00145608
0.0015766
0.00170658
0.00193431
0.00207681
0.00190646
0.00156686
0.0013678
0.00121119
0.00113129
0.00107866
0.00106527
0.0010427
0.00103382
0.00103634
0.00103977
0.00103917
0.00104846
0.00105302
0.00104328
0.00104933
0.00106878
0.00106483
0.00108335
0.00110428
0.00115134
0.00112577
0.0010675
0.00106491
0.00105485
0.0010524
0.00104829
0.00104298
0.00103202
0.0010333
0.00103755
0.00104652
0.00104473
0.00104693
0.00104381
0.00105476
0.00106805
0.00111219
0.00109533
0.00104728
0.00104676
0.00103683
0.00103531
0.00102868
0.00103536
0.00103318
0.00102602
0.00102592
0.00102616
0.00102592
0.00102637
0.00102573
0.00102453
0.00102454
0.00102426
0.00102377
0.00102329
0.00102289
0.00102249
0.00102226
0.00102192
0.00102162
0.00102124
0.0010209
0.00102055
0.00102025
0.00102005
0.0010198
0.00101946
0.00101911
0.0010189
0.00101879
0.00101847
0.0010181
0.00101794
0.00101786
0.00101759
0.00101727
0.00101709
0.00101705
0.00101684
0.00101656
0.00101639
0.00101639
0.00101617
0.00101596
0.00101584
0.00101576
0.00101561
0.00101546
0.00101537
0.00101526
0.00101514
0.00101505
0.00101497
0.00101488
0.00101478
0.00101471
0.00101466
0.0010146
0.00101453
0.00101448
0.00101443
0.00101438
0.00101433
0.00101431
0.00101432
0.00101431
0.00101429
0.00101423
0.00101417
0.00101413
0.00101409
0.00101405
0.00101403
0.00101403
0.00101403
0.00101397
0.00101389
0.00101381
0.0010137
0.00101363
0.00101355
0.00101347
0.00101339
0.00101333
0.00101327
0.0010132
0.00101312
0.00101303
0.00101292
0.00101282
0.00101273
0.00101264
0.00101255
0.00101244
0.00101233
0.00101221
0.00101209
0.00101197
0.00101187
0.00101178
0.00101169
0.00101158
0.00101147
0.00101136
0.00101125
0.00101115
0.00101104
0.00101091
0.00101077
0.00101064
0.00101051
0.0010104
0.00101028
0.00101016
0.00101004
0.00100991
0.00100978
0.00100965
0.00100951
0.00100937
0.00100924
0.00100911
0.00100898
0.00100884
0.0010087
0.00100855
0.0010084
0.00100826
0.00100813
0.00100799
0.00100786
0.00100773
0.0010076
0.00100747
0.00100733
0.0010072
0.00100706
0.00100693
0.0010068
0.00100668
0.00100655
0.00100643
0.00100631
0.00100618
0.00100606
0.00100594
0.00100582
0.0010057
0.00100558
0.00100546
0.00100533
0.0010052
0.00100508
0.00100495
0.00100482
0.0010047
0.00100458
0.00100447
0.00100437
0.00100427
0.00100417
0.00100408
0.00100399
0.0010039
0.00100381
0.00100372
0.00100364
0.00100355
0.00100346
0.00100337
0.00100328
0.00100318
0.00100309
0.001003
0.00100291
0.00100282
0.00100273
0.00100265
0.00100257
0.00100249
0.00100242
0.00100235
0.00100228
0.0010022
0.00100213
0.00100206
0.00100199
0.00100191
0.00100184
0.00100178
0.00100171
0.00100165
0.00100159
0.00100153
0.00100147
0.00100142
0.00100137
0.00100131
0.00100125
0.0010012
0.00100114
0.00100109
0.00100103
0.00100098
0.00100093
0.00100089
0.00100085
0.00100081
0.00100077
0.00100073
0.00100069
0.00100065
0.00100062
0.00100058
0.00100054
0.0010005
0.00100047
0.00100044
0.00100041
0.00100038
0.00100036
0.00100034
0.00100031
0.00100029
0.00100027
0.00100025
0.00100023
0.00100021
0.00100019
0.00100018
0.00100016
0.00100015
0.00100014
0.00100013
0.00100011
0.0010001
0.00100009
0.00100008
0.00100007
0.00100006
0.00100005
0.00100004
0.00100003
0.00100002
0.00100002
0.00100001
0.001
0.000999995
0.000999989
0.000999983
0.000999978
0.000999973
0.000999967
0.000999962
0.000999956
0.000999951
0.000999946
0.000999942
0.000999938
0.000999935
0.000999932
0.000999929
0.000999926
0.000999922
0.000999919
0.000999916
0.000999913
0.00099991
0.000999908
0.000999905
0.000999902
0.0009999
0.000999898
0.000999896
0.000999894
0.000999892
0.000999891
0.000999889
0.000999886
0.000999884
0.000999885
0.000999884
0.000999885
0.000999883
0.000999886
0.000999885
0.00099988
0.000999879
0.000999876
0.000999875
0.000999873
0.000999872
0.000999872
0.000999871
0.00099987
0.000999869
0.000999868
0.000999867
0.000999867
0.000999867
0.000999866
0.000999865
0.000999865
0.000999865
0.000999864
0.000999864
0.000999863
0.000999864
0.000999864
0.000999864
0.000999862
0.000999861
0.000999861
0.000999861
0.000999862
0.000999862
0.000999861
0.00099986
0.00099987
0.000999875
0.000999934
0.000999948
0.000999982
0.00100027
0.00100023
0.000999959
0.000999946
0.00099991
0.000999908
0.000999868
0.000999865
0.000999858
0.000999857
0.000999859
0.000999862
0.000999863
0.000999865
0.000999861
0.00099986
0.00099986
0.000999859
0.000999857
0.000999857
0.000999857
0.000999857
0.000999857
0.000999858
0.000999859
0.00099986
0.00099986
0.000999859
0.000999858
0.000999857
0.000999858
0.00099986
0.000999862
0.000999865
0.000999866
0.000999865
0.000999862
0.00099986
0.000999858
0.000999857
0.000999858
0.000999859
0.000999859
0.00099986
0.00099986
0.00099986
0.00099986
0.000999859
0.000999859
0.000999859
0.000999859
0.00099986
0.000999862
0.000999864
0.000999865
0.000999864
0.000999862
0.000999861
0.000999861
0.000999861
0.000999861
0.00099986
0.00099986
0.000999861
0.000999863
0.000999862
0.000999864
0.000999867
0.000999865
0.000999862
0.000999861
0.000999862
0.000999862
0.000999861
0.00099986
0.000999861
0.000999862
0.000999861
0.000999863
0.000999866
0.000999861
0.000999878
0.000999865
0.000999861
0.000999866
0.000999898
0.000999868
0.000999861
0.000999864
0.000999864
0.00099986
0.000999864
0.000999976
0.000999913
0.00242978
0.00176651
0.00134886
0.00126103
0.00125472
0.00125267
0.00125098
0.00125106
0.00125066
0.00124881
0.00124801
0.00124938
0.00125212
0.00125506
0.00125654
0.00125521
0.00125257
0.0012514
0.00125252
0.00125442
0.00125576
0.00125617