/*--------------------------------*- C++ -*----------------------------------*\
| =========                 |                                                 |
| \\      /  F ield         | OpenFOAM: The Open Source CFD Toolbox           |
|  \\    /   O peration     | Version:  v2006                                 |
|   \\  /    A nd           | Website:  www.openfoam.com                      |
|    \\/     M anipulation  |                                                 |
\*---------------------------------------------------------------------------*/
FoamFile
{
    version     2.0;
    format      ascii;
    class       volScalarField;
    location    "2";
    object      p;
}
// * * * * * * * * * * * * * * * * * * * * * * * * * * * * * * * * * * * * * //

dimensions      [1 -1 -2 0 0 0 0];


internalField   nonuniform List<scalar> 
33000
(
7703.46
7698.85
7694.33
7689.97
7685.76
7681.72
7677.84
7674.12
7670.56
7667.15
7663.9
7660.81
7657.86
7655.06
7652.42
7649.93
7647.57
7645.34
7643.27
7641.34
7639.56
7637.89
7636.35
7634.92
7633.64
7632.48
7631.45
7630.52
7629.7
7628.99
7628.39
7627.9
7627.49
7627.19
7626.98
7626.87
7626.84
7626.88
7626.99
7627.19
7627.46
7627.81
7628.22
7628.67
7629.17
7629.73
7630.33
7630.98
7631.67
7632.4
7633.17
7633.97
7634.78
7635.62
7636.48
7637.36
7638.24
7639.14
7640.05
7640.97
7641.91
7642.84
7643.77
7644.7
7645.64
7646.57
7647.48
7648.38
7649.27
7650.14
7650.98
7651.81
7652.61
7653.39
7654.12
7654.82
7655.46
7655.99
7656.51
7657.62
7658.39
7659.1
7659.85
7660.53
7661.2
7661.87
7662.5
7663.08
7663.64
7664.17
7664.69
7665.17
7665.61
7666.02
7666.4
7666.76
7667.07
7667.35
7667.57
7667.77
7667.95
7668.08
7668.18
7668.24
7668.26
7668.25
7668.21
7668.13
7668.02
7667.87
7667.7
7667.49
7667.25
7666.99
7666.7
7666.39
7666.04
7665.67
7665.29
7664.88
7664.46
7664.03
7663.57
7663.11
7662.64
7662.16
7661.67
7661.17
7660.66
7660.15
7659.64
7659.11
7658.59
7658.06
7657.53
7657
7656.47
7655.95
7655.44
7654.93
7654.43
7653.94
7653.46
7652.99
7652.54
7652.11
7651.69
7651.29
7650.91
7650.54
7650.2
7649.87
7649.57
7649.28
7649.01
7648.77
7648.54
7648.34
7648.16
7647.99
7647.85
7647.73
7647.63
7647.55
7647.49
7647.46
7647.45
7647.46
7647.49
7647.55
7647.64
7647.75
7647.89
7648.06
7648.25
7648.47
7648.72
7649
7649.31
7649.64
7650.01
7650.4
7650.82
7651.27
7651.74
7652.24
7652.77
7653.32
7653.89
7654.49
7655.11
7655.74
7656.4
7657.08
7657.78
7658.49
7659.23
7659.97
7660.73
7661.51
7662.29
7663.09
7663.9
7664.72
7665.56
7666.4
7667.25
7668.1
7668.97
7669.84
7670.72
7671.6
7672.49
7673.38
7674.28
7675.18
7676.08
7676.98
7677.88
7678.78
7679.69
7680.59
7681.48
7682.38
7683.27
7684.16
7685.04
7685.92
7686.8
7687.67
7688.53
7689.39
7690.24
7691.09
7691.92
7692.75
7693.58
7694.39
7695.2
7696
7696.79
7697.58
7698.35
7699.12
7699.88
7700.62
7701.36
7702.09
7702.81
7703.52
7704.23
7704.92
7705.6
7706.27
7706.94
7707.59
7708.24
7708.87
7709.5
7710.11
7710.72
7711.32
7711.9
7712.48
7713.05
7713.61
7714.16
7714.7
7715.23
7715.75
7716.27
7716.77
7717.27
7717.76
7718.24
7718.71
7719.17
7719.63
7720.08
7720.52
7720.95
7721.37
7721.78
7722.19
7722.59
7722.99
7723.37
7723.75
7724.12
7724.49
7724.85
7725.2
7725.54
7725.88
7726.21
7726.54
7726.86
7727.17
7727.48
7727.78
7728.08
7728.37
7728.66
7728.94
7729.21
7729.48
7729.74
7730
7730.26
7730.51
7730.75
7730.99
7731.23
7731.46
7731.69
7731.91
7732.13
7732.34
7732.56
7732.76
7732.96
7733.16
7733.36
7733.55
7733.74
7733.92
7734.11
7734.28
7734.46
7734.63
7734.8
7734.96
7735.12
7735.28
7735.44
7735.59
7735.74
7735.89
7736.03
7736.17
7736.31
7736.45
7736.58
7736.71
7736.84
7736.97
7737.09
7737.21
7737.33
7737.45
7737.57
7737.68
7737.79
7737.9
7738
7738.11
7738.21
7738.31
7738.41
7738.5
7738.6
7738.69
7738.78
7738.87
7738.96
7739.04
7739.13
7739.21
7739.29
7739.37
7739.44
7739.52
7739.59
7739.66
7739.74
7739.8
7739.87
7739.94
7740
7740.07
7740.13
7740.19
7740.25
7740.3
7740.36
7740.41
7740.47
7740.52
7740.57
7740.62
7740.67
7740.72
7740.76
7740.81
7740.85
7740.89
7740.94
7740.98
7741.01
7741.05
7741.09
7741.13
7741.16
7741.2
7741.23
7741.26
7741.29
7741.32
7741.35
7741.38
7741.41
7741.44
7741.46
7741.49
7741.51
7741.54
7741.56
7741.58
7741.6
7741.62
7741.65
7741.67
7741.68
7741.7
7741.72
7741.74
7741.75
7741.77
7741.79
7741.8
7741.82
7741.83
7741.84
7741.86
7741.87
7741.88
7741.89
7741.9
7741.91
7741.92
7741.93
7741.94
7741.95
7741.96
7741.97
7741.98
7741.99
7741.99
7742
7742.01
7742.01
7742.02
7742.02
7742.03
7742.03
7742.04
7742.04
7742.05
7742.05
7742.06
7742.06
7742.06
7742.07
7742.07
7742.07
7742.08
7742.08
7742.08
7742.08
7742.09
7742.09
7742.09
7742.09
7742.09
7742.09
7742.1
7742.1
7742.1
7742.1
7742.1
7742.1
7742.1
7742.11
7742.11
7742.11
7742.11
7742.11
7742.11
7742.11
7742.11
7742.12
7742.12
7742.12
7742.12
7742.12
7742.12
7742.12
7742.12
7742.12
7742.12
7742.12
7742.13
7742.13
7742.13
7742.13
7742.13
7742.13
7742.13
7742.13
7742.13
7742.13
7742.13
7742.13
7742.13
7742.13
7742.13
7742.13
7742.13
7742.13
7742.13
7742.13
7742.13
7742.13
7742.13
7742.13
7742.13
7742.13
7742.13
7742.13
7742.13
7742.13
7742.13
7742.13
7742.13
7742.13
7742.12
7742.12
7742.12
7742.12
7742.12
7742.12
7742.12
7742.12
7742.12
7742.12
7742.12
7742.12
7742.12
7742.12
7742.11
7506.91
7502.21
7497.68
7493.31
7489.1
7485.06
7481.18
7477.46
7473.91
7470.51
7467.27
7464.18
7461.24
7458.47
7455.84
7453.36
7451.02
7448.83
7446.78
7444.87
7443.09
7441.45
7439.92
7438.53
7437.26
7436.12
7435.09
7434.17
7433.36
7432.65
7432.06
7431.57
7431.19
7430.9
7430.69
7430.57
7430.53
7430.58
7430.71
7430.91
7431.18
7431.52
7431.93
7432.39
7432.89
7433.45
7434.05
7434.7
7435.4
7436.13
7436.9
7437.7
7438.52
7439.37
7440.24
7441.12
7442.02
7442.93
7443.84
7444.77
7445.71
7446.65
7447.58
7448.52
7449.46
7450.39
7451.31
7452.21
7453.11
7453.98
7454.83
7455.67
7456.48
7457.27
7458.02
7458.75
7459.45
7460.12
7460.81
7461.47
7462.01
7462.56
7463.66
7464.43
7465.08
7465.77
7466.37
7466.97
7467.53
7468.08
7468.6
7469.07
7469.52
7469.94
7470.32
7470.67
7470.98
7471.25
7471.5
7471.69
7471.87
7471.99
7472.09
7472.16
7472.18
7472.18
7472.12
7472.05
7471.93
7471.78
7471.61
7471.4
7471.16
7470.89
7470.59
7470.27
7469.93
7469.55
7469.18
7468.75
7468.33
7467.9
7467.45
7466.99
7466.51
7466.02
7465.52
7465.03
7464.51
7464
7463.48
7462.95
7462.42
7461.89
7461.36
7460.83
7460.3
7459.77
7459.25
7458.74
7458.24
7457.75
7457.27
7456.8
7456.35
7455.91
7455.49
7455.09
7454.7
7454.34
7453.99
7453.66
7453.35
7453.06
7452.8
7452.55
7452.32
7452.12
7451.93
7451.77
7451.62
7451.5
7451.4
7451.32
7451.26
7451.22
7451.21
7451.22
7451.26
7451.32
7451.41
7451.52
7451.66
7451.82
7452.02
7452.24
7452.49
7452.77
7453.07
7453.41
7453.77
7454.16
7454.58
7455.03
7455.5
7456.01
7456.53
7457.08
7457.66
7458.26
7458.87
7459.52
7460.18
7460.86
7461.55
7462.27
7463
7463.75
7464.51
7465.28
7466.07
7466.87
7467.68
7468.51
7469.34
7470.18
7471.03
7471.89
7472.76
7473.63
7474.51
7475.4
7476.29
7477.18
7478.08
7478.98
7479.88
7480.78
7481.68
7482.59
7483.49
7484.39
7485.29
7486.18
7487.08
7487.97
7488.85
7489.73
7490.61
7491.48
7492.34
7493.2
7494.06
7494.9
7495.74
7496.57
7497.39
7498.21
7499.02
7499.82
7500.61
7501.4
7502.17
7502.94
7503.7
7504.44
7505.18
7505.91
7506.63
7507.35
7508.05
7508.74
7509.42
7510.1
7510.76
7511.41
7512.06
7512.69
7513.32
7513.93
7514.54
7515.14
7515.72
7516.3
7516.87
7517.43
7517.98
7518.52
7519.05
7519.57
7520.09
7520.59
7521.09
7521.58
7522.06
7522.53
7522.99
7523.45
7523.89
7524.33
7524.76
7525.19
7525.6
7526.01
7526.41
7526.8
7527.19
7527.57
7527.94
7528.3
7528.66
7529.01
7529.36
7529.7
7530.03
7530.35
7530.67
7530.99
7531.29
7531.6
7531.89
7532.18
7532.47
7532.75
7533.02
7533.29
7533.56
7533.82
7534.07
7534.32
7534.56
7534.8
7535.04
7535.27
7535.5
7535.72
7535.94
7536.15
7536.36
7536.57
7536.77
7536.97
7537.17
7537.36
7537.55
7537.73
7537.91
7538.09
7538.27
7538.44
7538.6
7538.77
7538.93
7539.09
7539.25
7539.4
7539.55
7539.69
7539.84
7539.98
7540.12
7540.25
7540.39
7540.52
7540.65
7540.77
7540.9
7541.02
7541.14
7541.26
7541.37
7541.48
7541.59
7541.7
7541.81
7541.91
7542.01
7542.11
7542.21
7542.31
7542.4
7542.5
7542.59
7542.67
7542.76
7542.85
7542.93
7543.01
7543.09
7543.17
7543.25
7543.32
7543.4
7543.47
7543.54
7543.61
7543.68
7543.74
7543.81
7543.87
7543.93
7543.99
7544.05
7544.11
7544.16
7544.22
7544.27
7544.32
7544.37
7544.42
7544.47
7544.52
7544.57
7544.61
7544.65
7544.7
7544.74
7544.78
7544.82
7544.86
7544.89
7544.93
7544.96
7545
7545.03
7545.06
7545.09
7545.12
7545.15
7545.18
7545.21
7545.24
7545.26
7545.29
7545.31
7545.34
7545.36
7545.38
7545.41
7545.43
7545.45
7545.47
7545.49
7545.5
7545.52
7545.54
7545.56
7545.57
7545.59
7545.6
7545.62
7545.63
7545.64
7545.66
7545.67
7545.68
7545.69
7545.7
7545.71
7545.72
7545.73
7545.74
7545.75
7545.76
7545.77
7545.78
7545.79
7545.79
7545.8
7545.81
7545.81
7545.82
7545.82
7545.83
7545.84
7545.84
7545.84
7545.85
7545.85
7545.86
7545.86
7545.86
7545.87
7545.87
7545.87
7545.88
7545.88
7545.88
7545.88
7545.88
7545.89
7545.89
7545.89
7545.89
7545.89
7545.9
7545.9
7545.9
7545.9
7545.9
7545.9
7545.9
7545.91
7545.91
7545.91
7545.91
7545.91
7545.91
7545.91
7545.91
7545.92
7545.92
7545.92
7545.92
7545.92
7545.92
7545.92
7545.92
7545.92
7545.92
7545.92
7545.93
7545.93
7545.93
7545.93
7545.93
7545.93
7545.93
7545.93
7545.93
7545.93
7545.93
7545.93
7545.93
7545.93
7545.93
7545.93
7545.93
7545.93
7545.93
7545.93
7545.93
7545.93
7545.93
7545.93
7545.93
7545.93
7545.93
7545.93
7545.93
7545.93
7545.93
7545.93
7545.93
7545.92
7545.92
7545.92
7545.92
7545.92
7545.92
7545.92
7545.92
7545.92
7545.92
7545.92
7545.92
7545.92
7545.92
7545.92
7545.91
7309.83
7305.17
7300.66
7296.32
7292.12
7288.08
7284.22
7280.51
7276.96
7273.57
7270.34
7267.26
7264.34
7261.56
7258.94
7256.48
7254.15
7251.97
7249.93
7248.03
7246.27
7244.63
7243.13
7241.76
7240.52
7239.39
7238.38
7237.48
7236.69
7236.01
7235.44
7234.97
7234.61
7234.34
7234.15
7234.04
7234.02
7234.09
7234.23
7234.45
7234.74
7235.08
7235.49
7235.97
7236.49
7237.07
7237.69
7238.35
7239.06
7239.81
7240.59
7241.4
7242.25
7243.11
7243.99
7244.89
7245.8
7246.72
7247.66
7248.6
7249.53
7250.48
7251.42
7252.37
7253.31
7254.24
7255.16
7256.08
7256.98
7257.87
7258.73
7259.57
7260.4
7261.2
7261.98
7262.73
7263.46
7264.18
7264.88
7265.58
7266.26
7266.96
7267.62
7268.16
7268.68
7269.7
7270.4
7271.03
7271.55
7272.1
7272.59
7273.06
7273.52
7273.95
7274.32
7274.68
7274.99
7275.27
7275.52
7275.73
7275.9
7276.03
7276.12
7276.18
7276.19
7276.18
7276.14
7276.06
7275.96
7275.79
7275.61
7275.39
7275.14
7274.87
7274.56
7274.24
7273.89
7273.52
7273.12
7272.71
7272.27
7271.83
7271.36
7270.89
7270.42
7269.92
7269.43
7268.91
7268.39
7267.86
7267.34
7266.8
7266.27
7265.73
7265.19
7264.65
7264.11
7263.58
7263.06
7262.54
7262.04
7261.54
7261.06
7260.59
7260.14
7259.69
7259.27
7258.86
7258.47
7258.1
7257.75
7257.42
7257.1
7256.81
7256.54
7256.29
7256.06
7255.85
7255.66
7255.5
7255.35
7255.22
7255.12
7255.04
7254.98
7254.94
7254.93
7254.94
7254.97
7255.03
7255.12
7255.23
7255.37
7255.54
7255.73
7255.95
7256.2
7256.48
7256.79
7257.12
7257.49
7257.88
7258.3
7258.75
7259.23
7259.73
7260.26
7260.81
7261.39
7261.98
7262.61
7263.25
7263.91
7264.59
7265.29
7266.01
7266.74
7267.49
7268.26
7269.03
7269.82
7270.63
7271.44
7272.27
7273.1
7273.94
7274.8
7275.66
7276.53
7277.4
7278.29
7279.17
7280.06
7280.96
7281.86
7282.76
7283.67
7284.57
7285.48
7286.38
7287.29
7288.19
7289.09
7289.99
7290.88
7291.78
7292.66
7293.55
7294.42
7295.3
7296.16
7297.02
7297.88
7298.72
7299.56
7300.4
7301.22
7302.04
7302.85
7303.65
7304.44
7305.23
7306
7306.77
7307.53
7308.28
7309.02
7309.75
7310.47
7311.18
7311.88
7312.58
7313.26
7313.93
7314.6
7315.25
7315.9
7316.53
7317.15
7317.77
7318.38
7318.97
7319.56
7320.14
7320.71
7321.26
7321.81
7322.35
7322.89
7323.41
7323.92
7324.43
7324.92
7325.41
7325.89
7326.36
7326.83
7327.28
7327.73
7328.16
7328.6
7329.02
7329.43
7329.84
7330.24
7330.63
7331.02
7331.4
7331.77
7332.13
7332.49
7332.84
7333.18
7333.52
7333.85
7334.18
7334.5
7334.81
7335.12
7335.42
7335.72
7336.01
7336.29
7336.57
7336.84
7337.11
7337.38
7337.64
7337.89
7338.14
7338.38
7338.62
7338.86
7339.09
7339.32
7339.54
7339.76
7339.97
7340.18
7340.39
7340.59
7340.79
7340.98
7341.18
7341.36
7341.55
7341.73
7341.91
7342.08
7342.25
7342.42
7342.58
7342.74
7342.9
7343.06
7343.21
7343.36
7343.51
7343.65
7343.79
7343.93
7344.07
7344.2
7344.33
7344.46
7344.59
7344.71
7344.83
7344.95
7345.07
7345.18
7345.29
7345.4
7345.51
7345.62
7345.72
7345.82
7345.92
7346.02
7346.12
7346.21
7346.3
7346.39
7346.48
7346.57
7346.66
7346.74
7346.82
7346.9
7346.98
7347.06
7347.13
7347.2
7347.28
7347.35
7347.42
7347.48
7347.55
7347.61
7347.68
7347.74
7347.8
7347.86
7347.91
7347.97
7348.02
7348.08
7348.13
7348.18
7348.23
7348.28
7348.32
7348.37
7348.42
7348.46
7348.5
7348.54
7348.58
7348.62
7348.66
7348.7
7348.73
7348.77
7348.8
7348.83
7348.87
7348.9
7348.93
7348.96
7348.99
7349.01
7349.04
7349.07
7349.09
7349.12
7349.14
7349.16
7349.19
7349.21
7349.23
7349.25
7349.27
7349.29
7349.31
7349.33
7349.34
7349.36
7349.37
7349.39
7349.4
7349.42
7349.43
7349.45
7349.46
7349.47
7349.48
7349.49
7349.51
7349.52
7349.53
7349.54
7349.55
7349.56
7349.56
7349.57
7349.58
7349.59
7349.59
7349.6
7349.61
7349.61
7349.62
7349.63
7349.63
7349.64
7349.64
7349.65
7349.65
7349.65
7349.66
7349.66
7349.67
7349.67
7349.67
7349.67
7349.68
7349.68
7349.68
7349.68
7349.69
7349.69
7349.69
7349.69
7349.69
7349.69
7349.7
7349.7
7349.7
7349.7
7349.7
7349.7
7349.7
7349.71
7349.71
7349.71
7349.71
7349.71
7349.71
7349.71
7349.72
7349.72
7349.72
7349.72
7349.72
7349.72
7349.72
7349.72
7349.72
7349.72
7349.72
7349.72
7349.73
7349.73
7349.73
7349.73
7349.73
7349.73
7349.73
7349.73
7349.73
7349.73
7349.73
7349.73
7349.73
7349.73
7349.73
7349.73
7349.73
7349.73
7349.73
7349.73
7349.73
7349.73
7349.73
7349.73
7349.73
7349.73
7349.73
7349.73
7349.73
7349.73
7349.73
7349.73
7349.73
7349.72
7349.72
7349.72
7349.72
7349.72
7349.72
7349.72
7349.72
7349.72
7349.72
7349.72
7349.72
7349.72
7349.72
7349.72
7349.71
7112.4
7107.75
7103.24
7098.89
7094.69
7090.67
7086.8
7083.11
7079.57
7076.19
7072.98
7069.92
7067.02
7064.27
7061.67
7059.23
7056.93
7054.77
7052.76
7050.89
7049.14
7047.54
7046.06
7044.72
7043.5
7042.39
7041.4
7040.53
7039.78
7039.13
7038.57
7038.12
7037.77
7037.53
7037.37
7037.29
7037.28
7037.36
7037.52
7037.76
7038.07
7038.44
7038.87
7039.36
7039.91
7040.52
7041.16
7041.85
7042.58
7043.35
7044.15
7044.98
7045.85
7046.73
7047.63
7048.55
7049.49
7050.44
7051.4
7052.36
7053.32
7054.28
7055.25
7056.21
7057.17
7058.11
7059.05
7059.98
7060.89
7061.8
7062.67
7063.53
7064.37
7065.2
7066
7066.79
7067.56
7068.3
7069.03
7069.74
7070.44
7071.12
7071.8
7072.46
7073.15
7073.81
7074.39
7074.87
7075.33
7076.15
7076.74
7077.13
7077.64
7078.04
7078.44
7078.8
7079.13
7079.39
7079.65
7079.85
7080.02
7080.15
7080.24
7080.3
7080.31
7080.31
7080.24
7080.16
7080.02
7079.86
7079.68
7079.46
7079.21
7078.92
7078.61
7078.27
7077.91
7077.53
7077.13
7076.69
7076.26
7075.8
7075.34
7074.85
7074.36
7073.83
7073.31
7072.82
7072.28
7071.76
7071.21
7070.66
7070.11
7069.57
7069.02
7068.48
7067.94
7067.4
7066.87
7066.34
7065.83
7065.33
7064.84
7064.36
7063.9
7063.45
7063.02
7062.61
7062.21
7061.83
7061.47
7061.14
7060.82
7060.52
7060.24
7059.99
7059.75
7059.54
7059.34
7059.17
7059.02
7058.89
7058.79
7058.7
7058.64
7058.61
7058.59
7058.6
7058.63
7058.69
7058.78
7058.89
7059.03
7059.19
7059.39
7059.61
7059.86
7060.14
7060.45
7060.79
7061.15
7061.55
7061.97
7062.42
7062.9
7063.41
7063.94
7064.49
7065.07
7065.67
7066.3
7066.94
7067.61
7068.29
7069
7069.72
7070.45
7071.21
7071.97
7072.75
7073.55
7074.35
7075.17
7076
7076.84
7077.69
7078.54
7079.41
7080.28
7081.16
7082.04
7082.94
7083.83
7084.73
7085.63
7086.54
7087.45
7088.36
7089.26
7090.17
7091.08
7091.99
7092.89
7093.79
7094.69
7095.58
7096.47
7097.36
7098.24
7099.12
7099.98
7100.85
7101.7
7102.55
7103.4
7104.23
7105.06
7105.88
7106.69
7107.49
7108.29
7109.07
7109.85
7110.62
7111.38
7112.13
7112.87
7113.6
7114.32
7115.04
7115.74
7116.43
7117.11
7117.79
7118.45
7119.11
7119.75
7120.39
7121.01
7121.63
7122.23
7122.83
7123.41
7123.99
7124.56
7125.12
7125.67
7126.21
7126.74
7127.26
7127.78
7128.28
7128.78
7129.26
7129.74
7130.21
7130.68
7131.13
7131.57
7132.01
7132.44
7132.86
7133.28
7133.69
7134.08
7134.48
7134.86
7135.24
7135.61
7135.97
7136.33
7136.68
7137.02
7137.36
7137.69
7138.02
7138.34
7138.65
7138.96
7139.26
7139.55
7139.84
7140.13
7140.4
7140.68
7140.95
7141.21
7141.47
7141.72
7141.97
7142.21
7142.45
7142.69
7142.92
7143.14
7143.37
7143.58
7143.8
7144.01
7144.21
7144.42
7144.61
7144.81
7145
7145.19
7145.37
7145.55
7145.73
7145.9
7146.07
7146.24
7146.4
7146.56
7146.72
7146.88
7147.03
7147.18
7147.33
7147.47
7147.61
7147.75
7147.88
7148.02
7148.15
7148.28
7148.4
7148.53
7148.65
7148.77
7148.88
7149
7149.11
7149.22
7149.33
7149.43
7149.54
7149.64
7149.74
7149.84
7149.93
7150.03
7150.12
7150.21
7150.3
7150.38
7150.47
7150.55
7150.63
7150.71
7150.79
7150.87
7150.94
7151.02
7151.09
7151.16
7151.23
7151.29
7151.36
7151.42
7151.49
7151.55
7151.61
7151.67
7151.72
7151.78
7151.83
7151.89
7151.94
7151.99
7152.04
7152.09
7152.13
7152.18
7152.22
7152.27
7152.31
7152.35
7152.39
7152.43
7152.47
7152.5
7152.54
7152.57
7152.61
7152.64
7152.67
7152.7
7152.73
7152.76
7152.79
7152.82
7152.85
7152.87
7152.9
7152.92
7152.95
7152.97
7152.99
7153.01
7153.03
7153.06
7153.07
7153.09
7153.11
7153.13
7153.15
7153.16
7153.18
7153.19
7153.21
7153.22
7153.24
7153.25
7153.26
7153.27
7153.29
7153.3
7153.31
7153.32
7153.33
7153.34
7153.35
7153.36
7153.37
7153.37
7153.38
7153.39
7153.4
7153.4
7153.41
7153.42
7153.42
7153.43
7153.43
7153.44
7153.44
7153.45
7153.45
7153.46
7153.46
7153.46
7153.47
7153.47
7153.47
7153.47
7153.48
7153.48
7153.48
7153.48
7153.49
7153.49
7153.49
7153.49
7153.49
7153.49
7153.5
7153.5
7153.5
7153.5
7153.5
7153.5
7153.51
7153.51
7153.51
7153.51
7153.51
7153.51
7153.51
7153.51
7153.52
7153.52
7153.52
7153.52
7153.52
7153.52
7153.52
7153.52
7153.52
7153.52
7153.52
7153.52
7153.53
7153.53
7153.53
7153.53
7153.53
7153.53
7153.53
7153.53
7153.53
7153.53
7153.53
7153.53
7153.53
7153.53
7153.53
7153.53
7153.53
7153.53
7153.53
7153.53
7153.53
7153.53
7153.53
7153.53
7153.53
7153.53
7153.53
7153.53
7153.53
7153.53
7153.53
7153.53
7153.52
7153.52
7153.52
7153.52
7153.52
7153.52
7153.52
7153.52
7153.52
7153.52
7153.52
7153.52
7153.52
7153.52
7153.52
7153.52
7153.51
6914.59
6909.93
6905.43
6901.08
6896.89
6892.87
6889.01
6885.33
6881.8
6878.44
6875.24
6872.2
6869.31
6866.58
6864.01
6861.59
6859.32
6857.18
6855.19
6853.35
6851.64
6850.07
6848.63
6847.31
6846.12
6845.04
6844.09
6843.26
6842.53
6841.92
6841.4
6840.98
6840.66
6840.45
6840.32
6840.27
6840.31
6840.42
6840.61
6840.88
6841.22
6841.62
6842.08
6842.61
6843.19
6843.83
6844.51
6845.23
6845.99
6846.79
6847.63
6848.49
6849.38
6850.3
6851.23
6852.19
6853.16
6854.15
6855.14
6856.13
6857.13
6858.12
6859.12
6860.1
6861.08
6862.05
6863.01
6863.96
6864.89
6865.81
6866.71
6867.59
6868.45
6869.29
6870.12
6870.93
6871.72
6872.49
6873.23
6873.97
6874.69
6875.38
6876.06
6876.72
6877.37
6878
6878.61
6879.18
6879.76
6880.3
6880.73
6881.15
6881.84
6882.35
6882.62
6883.02
6883.32
6883.61
6883.85
6884.07
6884.22
6884.36
6884.44
6884.5
6884.51
6884.48
6884.43
6884.33
6884.21
6884.03
6883.84
6883.59
6883.33
6883.06
6882.73
6882.39
6882.01
6881.62
6881.2
6880.77
6880.31
6879.85
6879.36
6878.87
6878.36
6877.85
6877.3
6876.77
6876.2
6875.65
6875.12
6874.55
6874.01
6873.44
6872.88
6872.31
6871.75
6871.21
6870.67
6870.14
6869.62
6869.1
6868.6
6868.12
6867.65
6867.19
6866.75
6866.33
6865.92
6865.54
6865.17
6864.82
6864.5
6864.19
6863.91
6863.64
6863.4
6863.18
6862.98
6862.81
6862.65
6862.52
6862.41
6862.32
6862.26
6862.22
6862.2
6862.21
6862.24
6862.3
6862.39
6862.5
6862.64
6862.8
6863
6863.22
6863.47
6863.76
6864.07
6864.41
6864.78
6865.17
6865.6
6866.05
6866.53
6867.04
6867.58
6868.13
6868.72
6869.32
6869.95
6870.6
6871.27
6871.96
6872.67
6873.39
6874.13
6874.89
6875.66
6876.45
6877.24
6878.06
6878.88
6879.71
6880.56
6881.41
6882.27
6883.14
6884.02
6884.9
6885.79
6886.69
6887.59
6888.49
6889.4
6890.31
6891.22
6892.13
6893.05
6893.96
6894.87
6895.78
6896.69
6897.6
6898.5
6899.4
6900.29
6901.18
6902.06
6902.94
6903.81
6904.68
6905.54
6906.39
6907.24
6908.08
6908.91
6909.73
6910.54
6911.35
6912.14
6912.93
6913.71
6914.48
6915.24
6915.99
6916.74
6917.47
6918.19
6918.91
6919.61
6920.3
6920.99
6921.66
6922.32
6922.98
6923.62
6924.26
6924.88
6925.5
6926.1
6926.7
6927.29
6927.86
6928.43
6928.99
6929.54
6930.08
6930.61
6931.13
6931.64
6932.15
6932.64
6933.13
6933.61
6934.08
6934.54
6934.99
6935.44
6935.88
6936.31
6936.73
6937.14
6937.55
6937.94
6938.34
6938.72
6939.1
6939.47
6939.83
6940.18
6940.53
6940.88
6941.21
6941.54
6941.87
6942.19
6942.5
6942.8
6943.1
6943.4
6943.69
6943.97
6944.25
6944.52
6944.79
6945.05
6945.31
6945.56
6945.81
6946.05
6946.29
6946.53
6946.76
6946.98
6947.2
6947.42
6947.63
6947.84
6948.05
6948.25
6948.45
6948.64
6948.83
6949.02
6949.2
6949.38
6949.56
6949.73
6949.9
6950.07
6950.23
6950.39
6950.55
6950.7
6950.86
6951
6951.15
6951.29
6951.43
6951.57
6951.71
6951.84
6951.97
6952.1
6952.22
6952.35
6952.47
6952.59
6952.7
6952.82
6952.93
6953.04
6953.15
6953.25
6953.35
6953.46
6953.56
6953.65
6953.75
6953.84
6953.93
6954.02
6954.11
6954.2
6954.28
6954.37
6954.45
6954.53
6954.61
6954.68
6954.76
6954.83
6954.9
6954.97
6955.04
6955.11
6955.17
6955.24
6955.3
6955.36
6955.42
6955.48
6955.53
6955.59
6955.64
6955.7
6955.75
6955.8
6955.85
6955.9
6955.94
6955.99
6956.03
6956.08
6956.12
6956.16
6956.2
6956.24
6956.28
6956.31
6956.35
6956.38
6956.42
6956.45
6956.48
6956.51
6956.54
6956.57
6956.6
6956.63
6956.65
6956.68
6956.71
6956.73
6956.75
6956.78
6956.8
6956.82
6956.84
6956.86
6956.88
6956.9
6956.92
6956.93
6956.95
6956.97
6956.98
6957
6957.01
6957.03
6957.04
6957.05
6957.07
6957.08
6957.09
6957.1
6957.11
6957.12
6957.13
6957.14
6957.15
6957.16
6957.17
6957.18
6957.19
6957.19
6957.2
6957.21
6957.21
6957.22
6957.23
6957.23
6957.24
6957.24
6957.25
6957.25
6957.25
6957.26
6957.26
6957.26
6957.27
6957.27
6957.27
6957.27
6957.28
6957.28
6957.28
6957.28
6957.29
6957.29
6957.29
6957.29
6957.29
6957.3
6957.3
6957.3
6957.3
6957.3
6957.3
6957.3
6957.31
6957.31
6957.31
6957.31
6957.31
6957.31
6957.31
6957.31
6957.32
6957.32
6957.32
6957.32
6957.32
6957.32
6957.32
6957.32
6957.32
6957.32
6957.32
6957.33
6957.33
6957.33
6957.33
6957.33
6957.33
6957.33
6957.33
6957.33
6957.33
6957.33
6957.33
6957.33
6957.33
6957.33
6957.33
6957.33
6957.33
6957.33
6957.33
6957.33
6957.33
6957.33
6957.33
6957.33
6957.33
6957.33
6957.33
6957.33
6957.33
6957.33
6957.33
6957.33
6957.32
6957.32
6957.32
6957.32
6957.32
6957.32
6957.32
6957.32
6957.32
6957.32
6957.32
6957.32
6957.32
6957.32
6957.32
6957.32
6957.31
6716.33
6711.71
6707.2
6702.85
6698.67
6694.66
6690.82
6687.16
6683.65
6680.3
6677.12
6674.1
6671.24
6668.55
6666.01
6663.61
6661.36
6659.25
6657.3
6655.49
6653.82
6652.28
6650.87
6649.59
6648.44
6647.4
6646.49
6645.7
6645.01
6644.43
6643.96
6643.59
6643.31
6643.14
6643.05
6643.05
6643.13
6643.29
6643.52
6643.82
6644.2
6644.64
6645.15
6645.72
6646.34
6647.01
6647.74
6648.5
6649.3
6650.14
6651.01
6651.91
6652.84
6653.8
6654.77
6655.77
6656.78
6657.8
6658.83
6659.86
6660.89
6661.93
6662.95
6663.97
6664.98
6665.98
6666.96
6667.94
6668.89
6669.84
6670.77
6671.67
6672.56
6673.43
6674.28
6675.11
6675.92
6676.71
6677.49
6678.24
6678.98
6679.69
6680.38
6681.04
6681.69
6682.32
6682.92
6683.49
6684.04
6684.58
6685.09
6685.61
6686.09
6686.46
6686.82
6687.36
6687.77
6687.9
6688.19
6688.37
6688.54
6688.66
6688.75
6688.78
6688.79
6688.77
6688.69
6688.59
6688.45
6688.28
6688.08
6687.84
6687.55
6687.26
6686.91
6686.55
6686.19
6685.77
6685.35
6684.89
6684.43
6683.94
6683.44
6682.93
6682.4
6681.86
6681.32
6680.76
6680.2
6679.61
6679.05
6678.43
6677.85
6677.31
6676.72
6676.16
6675.6
6675.03
6674.47
6673.92
6673.39
6672.86
6672.35
6671.86
6671.37
6670.9
6670.45
6670.02
6669.6
6669.21
6668.83
6668.47
6668.14
6667.82
6667.53
6667.26
6667.01
6666.78
6666.58
6666.39
6666.23
6666.1
6665.98
6665.89
6665.83
6665.78
6665.76
6665.77
6665.8
6665.86
6665.94
6666.06
6666.19
6666.36
6666.56
6666.78
6667.04
6667.32
6667.63
6667.98
6668.35
6668.75
6669.18
6669.64
6670.12
6670.63
6671.17
6671.73
6672.32
6672.93
6673.57
6674.22
6674.9
6675.59
6676.3
6677.03
6677.78
6678.54
6679.32
6680.11
6680.91
6681.73
6682.56
6683.4
6684.25
6685.11
6685.98
6686.85
6687.74
6688.63
6689.53
6690.43
6691.33
6692.24
6693.16
6694.07
6694.99
6695.91
6696.83
6697.75
6698.66
6699.58
6700.49
6701.4
6702.31
6703.21
6704.11
6705.01
6705.9
6706.78
6707.65
6708.52
6709.39
6710.24
6711.09
6711.93
6712.77
6713.59
6714.41
6715.22
6716.02
6716.81
6717.59
6718.36
6719.12
6719.88
6720.62
6721.35
6722.08
6722.79
6723.5
6724.19
6724.88
6725.55
6726.21
6726.87
6727.51
6728.15
6728.77
6729.39
6730
6730.59
6731.18
6731.75
6732.32
6732.88
6733.43
6733.97
6734.5
6735.02
6735.53
6736.03
6736.53
6737.01
6737.49
6737.96
6738.42
6738.87
6739.32
6739.75
6740.18
6740.6
6741.02
6741.42
6741.82
6742.21
6742.59
6742.97
6743.34
6743.7
6744.05
6744.4
6744.74
6745.08
6745.41
6745.73
6746.05
6746.36
6746.66
6746.96
6747.26
6747.55
6747.83
6748.1
6748.38
6748.64
6748.91
6749.16
6749.41
6749.66
6749.9
6750.14
6750.37
6750.6
6750.83
6751.05
6751.27
6751.48
6751.69
6751.89
6752.09
6752.29
6752.48
6752.67
6752.86
6753.04
6753.22
6753.39
6753.57
6753.74
6753.9
6754.06
6754.22
6754.38
6754.54
6754.69
6754.83
6754.98
6755.12
6755.26
6755.4
6755.54
6755.67
6755.8
6755.93
6756.05
6756.17
6756.29
6756.41
6756.53
6756.64
6756.75
6756.86
6756.97
6757.08
6757.18
6757.28
6757.38
6757.48
6757.57
6757.67
6757.76
6757.85
6757.93
6758.02
6758.11
6758.19
6758.27
6758.35
6758.43
6758.5
6758.58
6758.65
6758.72
6758.79
6758.86
6758.92
6758.99
6759.05
6759.12
6759.18
6759.24
6759.29
6759.35
6759.41
6759.46
6759.51
6759.56
6759.61
6759.66
6759.71
6759.76
6759.8
6759.85
6759.89
6759.93
6759.97
6760.01
6760.05
6760.09
6760.13
6760.16
6760.2
6760.23
6760.26
6760.29
6760.32
6760.35
6760.38
6760.41
6760.44
6760.46
6760.49
6760.52
6760.54
6760.56
6760.59
6760.61
6760.63
6760.65
6760.67
6760.69
6760.71
6760.72
6760.74
6760.76
6760.77
6760.79
6760.81
6760.82
6760.83
6760.85
6760.86
6760.87
6760.88
6760.9
6760.91
6760.92
6760.93
6760.94
6760.95
6760.96
6760.97
6760.97
6760.98
6760.99
6761
6761
6761.01
6761.02
6761.02
6761.03
6761.04
6761.04
6761.04
6761.05
6761.05
6761.05
6761.06
6761.06
6761.06
6761.07
6761.07
6761.07
6761.07
6761.08
6761.08
6761.08
6761.08
6761.09
6761.09
6761.09
6761.09
6761.09
6761.1
6761.1
6761.1
6761.1
6761.1
6761.1
6761.11
6761.11
6761.11
6761.11
6761.11
6761.11
6761.11
6761.11
6761.12
6761.12
6761.12
6761.12
6761.12
6761.12
6761.12
6761.12
6761.12
6761.12
6761.12
6761.13
6761.13
6761.13
6761.13
6761.13
6761.13
6761.13
6761.13
6761.13
6761.13
6761.13
6761.13
6761.13
6761.13
6761.13
6761.13
6761.13
6761.13
6761.13
6761.13
6761.13
6761.13
6761.13
6761.13
6761.13
6761.13
6761.13
6761.13
6761.13
6761.13
6761.13
6761.13
6761.13
6761.13
6761.12
6761.12
6761.12
6761.12
6761.12
6761.12
6761.12
6761.12
6761.12
6761.12
6761.12
6761.12
6761.12
6761.12
6761.12
6761.12
6761.11
6517.71
6513.1
6508.6
6504.26
6500.08
6496.09
6492.26
6488.61
6485.13
6481.8
6478.63
6475.64
6472.81
6470.15
6467.63
6465.26
6463.04
6460.98
6459.06
6457.29
6455.66
6454.17
6452.8
6451.58
6450.47
6449.48
6448.62
6447.87
6447.24
6446.72
6446.3
6445.98
6445.76
6445.63
6445.59
6445.65
6445.79
6446
6446.29
6446.65
6447.08
6447.57
6448.13
6448.74
6449.41
6450.13
6450.9
6451.71
6452.56
6453.44
6454.35
6455.3
6456.27
6457.27
6458.28
6459.32
6460.37
6461.43
6462.5
6463.57
6464.64
6465.71
6466.77
6467.82
6468.86
6469.89
6470.91
6471.92
6472.91
6473.88
6474.84
6475.77
6476.69
6477.59
6478.46
6479.32
6480.15
6480.97
6481.76
6482.54
6483.28
6484.01
6484.71
6485.38
6486.03
6486.66
6487.26
6487.84
6488.39
6488.92
6489.42
6489.91
6490.37
6490.81
6491.25
6491.66
6491.97
6492.26
6492.62
6492.92
6492.92
6493.08
6493.15
6493.19
6493.19
6493.17
6493.08
6492.97
6492.82
6492.63
6492.41
6492.15
6491.86
6491.54
6491.2
6490.81
6490.42
6489.97
6489.52
6489.08
6488.59
6488.09
6487.56
6487.03
6486.48
6485.93
6485.35
6484.78
6484.19
6483.6
6483.01
6482.41
6481.81
6481.18
6480.59
6479.95
6479.35
6478.82
6478.24
6477.7
6477.14
6476.59
6476.06
6475.56
6475.06
6474.58
6474.12
6473.67
6473.24
6472.83
6472.44
6472.08
6471.73
6471.4
6471.1
6470.82
6470.56
6470.33
6470.11
6469.92
6469.76
6469.61
6469.49
6469.4
6469.33
6469.28
6469.26
6469.27
6469.3
6469.35
6469.44
6469.55
6469.69
6469.86
6470.05
6470.28
6470.54
6470.82
6471.14
6471.49
6471.86
6472.27
6472.7
6473.16
6473.65
6474.17
6474.71
6475.28
6475.87
6476.49
6477.13
6477.79
6478.47
6479.17
6479.89
6480.63
6481.38
6482.15
6482.94
6483.74
6484.55
6485.37
6486.21
6487.06
6487.91
6488.78
6489.66
6490.54
6491.43
6492.33
6493.24
6494.15
6495.06
6495.98
6496.9
6497.82
6498.75
6499.67
6500.6
6501.52
6502.45
6503.37
6504.29
6505.21
6506.12
6507.03
6507.93
6508.83
6509.73
6510.62
6511.5
6512.37
6513.24
6514.1
6514.96
6515.8
6516.64
6517.47
6518.29
6519.1
6519.9
6520.7
6521.48
6522.25
6523.02
6523.77
6524.52
6525.25
6525.98
6526.7
6527.4
6528.1
6528.78
6529.46
6530.12
6530.78
6531.42
6532.06
6532.69
6533.3
6533.91
6534.5
6535.09
6535.66
6536.23
6536.79
6537.34
6537.87
6538.4
6538.92
6539.44
6539.94
6540.43
6540.92
6541.39
6541.86
6542.32
6542.77
6543.22
6543.65
6544.08
6544.5
6544.91
6545.31
6545.71
6546.1
6546.48
6546.85
6547.22
6547.58
6547.94
6548.28
6548.62
6548.96
6549.29
6549.61
6549.92
6550.23
6550.54
6550.84
6551.13
6551.42
6551.7
6551.97
6552.24
6552.51
6552.77
6553.03
6553.28
6553.52
6553.76
6554
6554.23
6554.46
6554.69
6554.91
6555.12
6555.33
6555.54
6555.74
6555.94
6556.14
6556.33
6556.52
6556.7
6556.89
6557.06
6557.24
6557.41
6557.58
6557.74
6557.91
6558.07
6558.22
6558.38
6558.53
6558.67
6558.82
6558.96
6559.1
6559.24
6559.37
6559.5
6559.63
6559.76
6559.88
6560.01
6560.13
6560.24
6560.36
6560.47
6560.58
6560.69
6560.8
6560.9
6561.01
6561.11
6561.21
6561.3
6561.4
6561.49
6561.58
6561.67
6561.76
6561.85
6561.93
6562.01
6562.09
6562.17
6562.25
6562.33
6562.4
6562.47
6562.54
6562.61
6562.68
6562.75
6562.81
6562.87
6562.94
6563
6563.06
6563.11
6563.17
6563.22
6563.28
6563.33
6563.38
6563.43
6563.48
6563.53
6563.57
6563.62