/*--------------------------------*- C++ -*----------------------------------*\
| =========                 |                                                 |
| \\      /  F ield         | OpenFOAM: The Open Source CFD Toolbox           |
|  \\    /   O peration     | Version:  v2006                                 |
|   \\  /    A nd           | Website:  www.openfoam.com                      |
|    \\/     M anipulation  |                                                 |
\*---------------------------------------------------------------------------*/
FoamFile
{
    version     2.0;
    format      ascii;
    class       volScalarField;
    location    "2";
    object      p_rgh;
}
// * * * * * * * * * * * * * * * * * * * * * * * * * * * * * * * * * * * * * //

dimensions      [1 -1 -2 0 0 0 0];


internalField   nonuniform List<scalar> 
33000
(
7801.48
7796.87
7792.37
7788.04
7783.83
7779.78
7775.9
7772.2
7768.64
7765.23
7761.98
7758.88
7755.93
7753.14
7750.51
7748.02
7745.65
7743.41
7741.32
7739.4
7737.63
7735.98
7734.43
7733
7731.7
7730.56
7729.53
7728.6
7727.76
7727.06
7726.47
7725.97
7725.57
7725.25
7725.01
7724.95
7724.92
7724.95
7725.07
7725.25
7725.51
7725.89
7726.3
7726.75
7727.24
7727.81
7728.42
7729.07
7729.76
7730.49
7731.26
7732.06
7732.88
7733.71
7734.57
7735.45
7736.33
7737.22
7738.14
7739.06
7739.99
7740.92
7741.85
7742.79
7743.72
7744.65
7745.57
7746.47
7747.35
7748.22
7749.07
7749.89
7750.69
7751.48
7752.21
7752.91
7753.54
7754.06
7754.58
7755.69
7756.48
7757.19
7757.94
7758.61
7759.28
7759.96
7760.59
7761.17
7761.72
7762.25
7762.78
7763.25
7763.7
7764.1
7764.49
7764.84
7765.16
7765.44
7765.66
7765.86
7766.04
7766.17
7766.26
7766.32
7766.35
7766.34
7766.3
7766.22
7766.11
7765.96
7765.78
7765.58
7765.34
7765.08
7764.79
7764.48
7764.13
7763.76
7763.38
7762.97
7762.55
7762.11
7761.66
7761.2
7760.73
7760.25
7759.76
7759.26
7758.75
7758.24
7757.73
7757.2
7756.68
7756.15
7755.62
7755.09
7754.57
7754.05
7753.53
7753.02
7752.52
7752.03
7751.55
7751.09
7750.63
7750.2
7749.78
7749.38
7749
7748.63
7748.29
7747.96
7747.66
7747.37
7747.11
7746.86
7746.64
7746.43
7746.25
7746.09
7745.94
7745.82
7745.72
7745.64
7745.59
7745.55
7745.54
7745.55
7745.59
7745.65
7745.73
7745.85
7745.99
7746.15
7746.35
7746.57
7746.82
7747.1
7747.4
7747.74
7748.1
7748.49
7748.91
7749.36
7749.83
7750.33
7750.86
7751.41
7751.98
7752.58
7753.2
7753.84
7754.5
7755.18
7755.88
7756.59
7757.32
7758.07
7758.83
7759.6
7760.39
7761.19
7762
7762.82
7763.65
7764.49
7765.34
7766.2
7767.07
7767.94
7768.82
7769.7
7770.59
7771.48
7772.38
7773.27
7774.17
7775.08
7775.98
7776.88
7777.78
7778.68
7779.58
7780.47
7781.37
7782.26
7783.14
7784.02
7784.89
7785.76
7786.63
7787.49
7788.34
7789.18
7790.02
7790.85
7791.67
7792.49
7793.3
7794.1
7794.89
7795.67
7796.45
7797.22
7797.97
7798.72
7799.46
7800.19
7800.91
7801.62
7802.32
7803.02
7803.7
7804.37
7805.03
7805.69
7806.33
7806.97
7807.59
7808.21
7808.82
7809.41
7810
7810.58
7811.15
7811.71
7812.26
7812.8
7813.33
7813.85
7814.37
7814.87
7815.37
7815.86
7816.34
7816.81
7817.27
7817.73
7818.18
7818.61
7819.05
7819.47
7819.88
7820.29
7820.69
7821.09
7821.47
7821.85
7822.22
7822.59
7822.95
7823.3
7823.64
7823.98
7824.31
7824.64
7824.96
7825.27
7825.58
7825.88
7826.18
7826.47
7826.76
7827.04
7827.31
7827.58
7827.84
7828.1
7828.36
7828.61
7828.85
7829.09
7829.33
7829.56
7829.79
7830.01
7830.23
7830.44
7830.65
7830.86
7831.06
7831.26
7831.46
7831.65
7831.84
7832.02
7832.21
7832.38
7832.56
7832.73
7832.9
7833.06
7833.22
7833.38
7833.54
7833.69
7833.84
7833.99
7834.13
7834.27
7834.41
7834.55
7834.68
7834.81
7834.94
7835.07
7835.19
7835.31
7835.43
7835.55
7835.67
7835.78
7835.89
7836
7836.1
7836.21
7836.31
7836.41
7836.51
7836.6
7836.7
7836.79
7836.88
7836.97
7837.06
7837.14
7837.23
7837.31
7837.39
7837.47
7837.54
7837.62
7837.69
7837.76
7837.84
7837.9
7837.97
7838.04
7838.1
7838.17
7838.23
7838.29
7838.35
7838.4
7838.46
7838.51
7838.57
7838.62
7838.67
7838.72
7838.77
7838.82
7838.86
7838.91
7838.95
7838.99
7839.04
7839.08
7839.11
7839.15
7839.19
7839.23
7839.26
7839.3
7839.33
7839.36
7839.39
7839.42
7839.45
7839.48
7839.51
7839.54
7839.56
7839.59
7839.61
7839.64
7839.66
7839.68
7839.7
7839.72
7839.75
7839.77
7839.78
7839.8
7839.82
7839.84
7839.85
7839.87
7839.89
7839.9
7839.92
7839.93
7839.94
7839.96
7839.97
7839.98
7839.99
7840
7840.01
7840.02
7840.03
7840.04
7840.05
7840.06
7840.07
7840.08
7840.09
7840.09
7840.1
7840.11
7840.11
7840.12
7840.12
7840.13
7840.13
7840.14
7840.14
7840.15
7840.15
7840.16
7840.16
7840.16
7840.17
7840.17
7840.17
7840.18
7840.18
7840.18
7840.18
7840.19
7840.19
7840.19
7840.19
7840.19
7840.19
7840.2
7840.2
7840.2
7840.2
7840.2
7840.2
7840.2
7840.21
7840.21
7840.21
7840.21
7840.21
7840.21
7840.21
7840.21
7840.22
7840.22
7840.22
7840.22
7840.22
7840.22
7840.22
7840.22
7840.22
7840.22
7840.22
7840.23
7840.23
7840.23
7840.23
7840.23
7840.23
7840.23
7840.23
7840.23
7840.23
7840.23
7840.23
7840.23
7840.23
7840.23
7840.23
7840.23
7840.23
7840.23
7840.23
7840.23
7840.23
7840.23
7840.23
7840.23
7840.23
7840.23
7840.23
7840.23
7840.23
7840.23
7840.23
7840.23
7840.23
7840.22
7840.22
7840.22
7840.22
7840.22
7840.22
7840.22
7840.22
7840.22
7840.22
7840.22
7840.22
7840.22
7840.22
7840.21
7801.46
7796.73
7792.17
7787.77
7783.54
7779.48
7775.59
7771.85
7768.28
7764.88
7761.62
7758.53
7755.58
7752.79
7750.16
7747.67
7745.32
7743.11
7741
7739.05
7737.34
7735.72
7734.18
7732.7
7731.4
7730.25
7729.3
7728.4
7727.51
7726.76
7726.25
7725.8
7725.3
7724.99
7724.78
7724.73
7724.76
7724.73
7724.8
7725
7725.27
7725.68
7726.16
7726.59
7727.04
7727.6
7728.25
7728.92
7729.56
7730.3
7731.08
7731.95
7732.71
7733.53
7734.4
7735.32
7736.17
7737.05
7737.97
7738.9
7739.89
7740.87
7741.72
7742.66
7743.6
7744.6
7745.55
7746.4
7747.29
7748.19
7749.02
7749.86
7750.69
7751.52
7752.22
7752.95
7753.69
7754.38
7755.07
7755.73
7756.22
7756.76
7757.87
7758.69
7759.35
7760.05
7760.64
7761.19
7761.74
7762.29
7762.83
7763.33
7763.79
7764.18
7764.55
7764.9
7765.25
7765.53
7765.74
7765.94
7766.13
7766.22
7766.32
7766.41
7766.45
7766.42
7766.37
7766.31
7766.17
7766.01
7765.83
7765.62
7765.4
7765.14
7764.86
7764.54
7764.18
7763.8
7763.44
7763.02
7762.58
7762.15
7761.69
7761.23
7760.75
7760.28
7759.79
7759.28
7758.76
7758.27
7757.76
7757.21
7756.67
7756.14
7755.63
7755.1
7754.55
7754.03
7753.51
7753.02
7752.49
7752
7751.52
7751.06
7750.6
7750.16
7749.75
7749.36
7748.95
7748.58
7748.24
7747.91
7747.62
7747.34
7747.05
7746.81
7746.58
7746.39
7746.21
7746.03
7745.89
7745.77
7745.68
7745.59
7745.53
7745.49
7745.49
7745.49
7745.52
7745.58
7745.67
7745.79
7745.93
7746.09
7746.28
7746.5
7746.76
7747.03
7747.34
7747.67
7748.04
7748.43
7748.85
7749.3
7749.78
7750.28
7750.81
7751.36
7751.93
7752.53
7753.16
7753.79
7754.45
7755.13
7755.83
7756.55
7757.28
7758.03
7758.79
7759.57
7760.35
7761.15
7761.97
7762.79
7763.62
7764.47
7765.32
7766.17
7767.04
7767.91
7768.8
7769.68
7770.57
7771.46
7772.36
7773.26
7774.16
7775.06
7775.97
7776.87
7777.77
7778.68
7779.57
7780.47
7781.36
7782.25
7783.14
7784.02
7784.9
7785.77
7786.63
7787.49
7788.34
7789.19
7790.03
7790.86
7791.68
7792.5
7793.31
7794.11
7794.9
7795.68
7796.46
7797.23
7797.98
7798.73
7799.47
7800.2
7800.92
7801.63
7802.34
7803.03
7803.71
7804.38
7805.05
7805.7
7806.35
7806.98
7807.61
7808.22
7808.83
7809.43
7810.02
7810.59
7811.16
7811.72
7812.27
7812.81
7813.35
7813.87
7814.38
7814.89
7815.39
7815.87
7816.35
7816.82
7817.29
7817.74
7818.19
7818.63
7819.06
7819.48
7819.9
7820.31
7820.71
7821.1
7821.48
7821.86
7822.24
7822.6
7822.96
7823.31
7823.65
7823.99
7824.33
7824.65
7824.97
7825.28
7825.59
7825.89
7826.19
7826.48
7826.77
7827.05
7827.32
7827.59
7827.85
7828.11
7828.37
7828.62
7828.86
7829.1
7829.34
7829.57
7829.8
7830.02
7830.24
7830.45
7830.66
7830.87
7831.07
7831.27
7831.47
7831.66
7831.85
7832.03
7832.21
7832.39
7832.57
7832.74
7832.9
7833.07
7833.23
7833.39
7833.55
7833.7
7833.85
7833.99
7834.14
7834.28
7834.42
7834.56
7834.69
7834.82
7834.95
7835.07
7835.2
7835.32
7835.44
7835.56
7835.67
7835.78
7835.89
7836
7836.11
7836.21
7836.31
7836.41
7836.51
7836.61
7836.7
7836.8
7836.89
7836.97
7837.06
7837.15
7837.23
7837.31
7837.39
7837.47
7837.55
7837.62
7837.7
7837.77
7837.84
7837.91
7837.98
7838.04
7838.11
7838.17
7838.23
7838.29
7838.35
7838.41
7838.46
7838.52
7838.57
7838.62
7838.67
7838.72
7838.77
7838.82
7838.87
7838.91
7838.95
7839
7839.04
7839.08
7839.12
7839.16
7839.19
7839.23
7839.26
7839.3
7839.33
7839.36
7839.39
7839.42
7839.45
7839.48
7839.51
7839.54
7839.56
7839.59
7839.61
7839.64
7839.66
7839.68
7839.71
7839.73
7839.75
7839.77
7839.79
7839.8
7839.82
7839.84
7839.86
7839.87
7839.89
7839.9
7839.92
7839.93
7839.94
7839.96
7839.97
7839.98
7839.99
7840
7840.01
7840.02
7840.03
7840.04
7840.05
7840.06
7840.07
7840.08
7840.09
7840.09
7840.1
7840.11
7840.11
7840.12
7840.12
7840.13
7840.13
7840.14
7840.14
7840.15
7840.15
7840.16
7840.16
7840.16
7840.17
7840.17
7840.17
7840.18
7840.18
7840.18
7840.18
7840.18
7840.19
7840.19
7840.19
7840.19
7840.19
7840.19
7840.2
7840.2
7840.2
7840.2
7840.2
7840.2
7840.21
7840.21
7840.21
7840.21
7840.21
7840.21
7840.21
7840.21
7840.22
7840.22
7840.22
7840.22
7840.22
7840.22
7840.22
7840.22
7840.22
7840.22
7840.22
7840.23
7840.23
7840.23
7840.23
7840.23
7840.23
7840.23
7840.23
7840.23
7840.23
7840.23
7840.23
7840.23
7840.23
7840.23
7840.23
7840.23
7840.23
7840.23
7840.23
7840.23
7840.23
7840.23
7840.23
7840.23
7840.23
7840.23
7840.23
7840.23
7840.23
7840.23
7840.23
7840.23
7840.23
7840.22
7840.22
7840.22
7840.22
7840.22
7840.22
7840.22
7840.22
7840.22
7840.22
7840.22
7840.22
7840.22
7840.22
7840.21
7800.19
7795.64
7791.11
7786.75
7782.56
7778.56
7774.7
7771
7767.45
7764.06
7760.8
7757.71
7754.78
7752.01
7749.42
7746.94
7744.59
7742.36
7740.29
7738.39
7736.68
7735.07
7733.49
7732.07
7730.82
7729.72
7728.78
7727.82
7726.88
7726.2
7725.62
7725.35
7725.06
7724.74
7724.41
7724.27
7724.28
7724.52
7724.68
7724.81
7724.99
7725.42
7725.95
7726.44
7726.9
7727.4
7728.02
7728.69
7729.46
7730.21
7730.99
7731.78
7732.59
7733.46
7734.37
7735.29
7736.2
7737.09
7737.89
7738.93
7739.93
7740.87
7741.76
7742.61
7743.71
7744.68
7745.6
7746.52
7747.4
7748.22
7749.13
7750.04
7750.86
7751.66
7752.44
7753.18
7753.87
7754.53
7755.32
7756.04
7756.72
7757.4
7758.01
7758.56
7759.13
7760.15
7760.8
7761.4
7761.99
7762.54
7763.03
7763.5
7763.96
7764.37
7764.78
7765.14
7765.45
7765.72
7765.94
7766.18
7766.35
7766.48
7766.54
7766.61
7766.65
7766.62
7766.56
7766.48
7766.38
7766.23
7766.05
7765.83
7765.57
7765.3
7765.02
7764.69
7764.33
7763.94
7763.55
7763.16
7762.73
7762.27
7761.78
7761.33
7760.86
7760.35
7759.87
7759.36
7758.83
7758.3
7757.8
7757.26
7756.72
7756.19
7755.65
7755.1
7754.55
7754.04
7753.52
7752.99
7752.46
7751.99
7751.51
7751.02
7750.55
7750.14
7749.72
7749.29
7748.88
7748.54
7748.19
7747.84
7747.55
7747.27
7746.98
7746.72
7746.52
7746.31
7746.12
7745.94
7745.8
7745.69
7745.59
7745.5
7745.43
7745.39
7745.39
7745.4
7745.43
7745.48
7745.58
7745.69
7745.83
7745.98
7746.19
7746.41
7746.65
7746.94
7747.25
7747.58
7747.95
7748.34
7748.75
7749.2
7749.69
7750.19
7750.72
7751.28
7751.85
7752.45
7753.07
7753.71
7754.38
7755.07
7755.77
7756.48
7757.21
7757.96
7758.73
7759.51
7760.3
7761.1
7761.91
7762.74
7763.58
7764.42
7765.27
7766.13
7767.01
7767.88
7768.76
7769.65
7770.54
7771.44
7772.34
7773.24
7774.15
7775.05
7775.96
7776.86
7777.77
7778.67
7779.57
7780.47
7781.36
7782.26
7783.15
7784.03
7784.91
7785.78
7786.65
7787.51
7788.36
7789.21
7790.05
7790.88
7791.71
7792.52
7793.33
7794.13
7794.92
7795.71
7796.49
7797.25
7798.01
7798.76
7799.5
7800.23
7800.95
7801.67
7802.37
7803.06
7803.75
7804.42
7805.08
7805.74
7806.38
7807.02
7807.64
7808.26
7808.86
7809.46
7810.05
7810.63
7811.2
7811.75
7812.3
7812.85
7813.38
7813.9
7814.41
7814.92
7815.42
7815.9
7816.38
7816.85
7817.32
7817.77
7818.22
7818.66
7819.09
7819.51
7819.93
7820.33
7820.73
7821.13
7821.51
7821.89
7822.26
7822.63
7822.98
7823.34
7823.68
7824.02
7824.35
7824.68
7824.99
7825.31
7825.62
7825.92
7826.21
7826.5
7826.79
7827.07
7827.34
7827.61
7827.87
7828.13
7828.39
7828.64
7828.88
7829.12
7829.36
7829.59
7829.81
7830.04
7830.26
7830.47
7830.68
7830.89
7831.09
7831.29
7831.48
7831.67
7831.86
7832.05
7832.23
7832.41
7832.58
7832.75
7832.92
7833.08
7833.24
7833.4
7833.56
7833.71
7833.86
7834.01
7834.15
7834.29
7834.43
7834.57
7834.7
7834.83
7834.96
7835.09
7835.21
7835.33
7835.45
7835.57
7835.68
7835.79
7835.9
7836.01
7836.12
7836.22
7836.32
7836.42
7836.52
7836.62
7836.71
7836.8
7836.89
7836.98
7837.07
7837.16
7837.24
7837.32
7837.4
7837.48
7837.56
7837.63
7837.7
7837.78
7837.85
7837.92
7837.98
7838.05
7838.11
7838.18
7838.24
7838.3
7838.36
7838.41
7838.47
7838.52
7838.58
7838.63
7838.68
7838.73
7838.78
7838.82
7838.87
7838.92
7838.96
7839
7839.04
7839.08
7839.12
7839.16
7839.2
7839.23
7839.27
7839.3
7839.33
7839.37
7839.4
7839.43
7839.46
7839.49
7839.51
7839.54
7839.57
7839.59
7839.62
7839.64
7839.66
7839.69
7839.71
7839.73
7839.75
7839.77
7839.79
7839.81
7839.83
7839.84
7839.86
7839.87
7839.89
7839.9
7839.92
7839.93
7839.95
7839.96
7839.97
7839.98
7839.99
7840.01
7840.02
7840.03
7840.04
7840.05
7840.06
7840.06
7840.07
7840.08
7840.09
7840.09
7840.1
7840.11
7840.11
7840.12
7840.13
7840.13
7840.14
7840.14
7840.15
7840.15
7840.15
7840.16
7840.16
7840.17
7840.17
7840.17
7840.17
7840.18
7840.18
7840.18
7840.18
7840.18
7840.19
7840.19
7840.19
7840.19
7840.19
7840.2
7840.2
7840.2
7840.2
7840.2
7840.2
7840.2
7840.21
7840.21
7840.21
7840.21
7840.21
7840.21
7840.21
7840.21
7840.22
7840.22
7840.22
7840.22
7840.22
7840.22
7840.22
7840.22
7840.22
7840.22
7840.22
7840.23
7840.23
7840.23
7840.23
7840.23
7840.23
7840.23
7840.23
7840.23
7840.23
7840.23
7840.23
7840.23
7840.23
7840.23
7840.23
7840.23
7840.23
7840.23
7840.23
7840.23
7840.23
7840.23
7840.23
7840.23
7840.23
7840.23
7840.23
7840.23
7840.23
7840.23
7840.23
7840.23
7840.23
7840.22
7840.22
7840.22
7840.22
7840.22
7840.22
7840.22
7840.22
7840.22
7840.22
7840.22
7840.22
7840.22
7840.22
7840.21
7799.28
7794.64
7790.12
7785.78
7781.58
7777.55
7773.69
7769.99
7766.43
7763.04
7759.81
7756.74
7753.83
7751.07
7748.45
7745.98
7743.66
7741.5
7739.48
7737.6
7735.84
7734.22
7732.74
7731.39
7730.15
7729.03
7728.03
7727.14
7726.37
7725.68
7725.1
7724.68
7724.42
7724.2
7724.02
7723.92
7723.93
7724.03
7724.19
7724.42
7724.72
7725.1
7725.54
7726.03
7726.54
7727.13
7727.78
7728.45
7729.13
7729.88
7730.69
7731.58
7732.47
7733.31
7734.19
7735.18
7736.03
7736.85
7737.8
7738.91
7739.82
7740.66
7741.63
7742.6
7743.68
7744.5
7745.44
7746.43
7747.46
7748.35
7749.15
7750
7750.86
7751.77
7752.6
7753.3
7754.02
7754.77
7755.55
7756.29
7756.88
7757.57
7758.34
7759.07
7759.76
7760.35
7760.87
7761.35
7761.85
7762.76
7763.36
7763.72
7764.27
7764.67
7765.07
7765.39
7765.71
7766
7766.3
7766.5
7766.65
7766.75
7766.86
7766.97
7766.97
7766.92
7766.84
7766.81
7766.68
7766.48
7766.28
7766.12
7765.88
7765.56
7765.22
7764.9
7764.57
7764.18
7763.75
7763.31
7762.9
7762.44
7761.96
7761.49
7761.01
7760.45
7759.94
7759.45
7758.93
7758.4
7757.84
7757.29
7756.76
7756.22
7755.67
7755.11
7754.56
7754.04
7753.51
7752.99
7752.45
7751.96
7751.47
7750.96
7750.53
7750.08
7749.65
7749.21
7748.79
7748.45
7748.1
7747.76
7747.44
7747.13
7746.87
7746.62
7746.39
7746.18
7745.99
7745.81
7745.65
7745.52
7745.44
7745.35
7745.26
7745.24
7745.24
7745.25
7745.26
7745.31
7745.42
7745.53
7745.66
7745.81
7746.03
7746.25
7746.49
7746.77
7747.09
7747.43
7747.78
7748.18
7748.61
7749.07
7749.53
7750.04
7750.59
7751.14
7751.71
7752.31
7752.94
7753.59
7754.25
7754.94
7755.65
7756.37
7757.1
7757.85
7758.62
7759.41
7760.2
7761
7761.82
7762.65
7763.49
7764.34
7765.2
7766.06
7766.94
7767.82
7768.7
7769.59
7770.49
7771.39
7772.29
7773.2
7774.11
7775.02
7775.93
7776.83
7777.74
7778.65
7779.55
7780.46
7781.36
7782.25
7783.14
7784.03
7784.91
7785.78
7786.65
7787.52
7788.37
7789.22
7790.06
7790.9
7791.73
7792.55
7793.36
7794.16
7794.96
7795.75
7796.52
7797.29
7798.05
7798.8
7799.54
7800.27
7801
7801.71
7802.41
7803.11
7803.79
7804.47
7805.13
7805.78
7806.43
7807.06
7807.69
7808.31
7808.91
7809.51
7810.1
7810.68
7811.24
7811.8
7812.35
7812.89
7813.42
7813.95
7814.46
7814.97
7815.46
7815.95
7816.43
7816.9
7817.36
7817.82
7818.26
7818.7
7819.13
7819.55
7819.97
7820.37
7820.77
7821.17
7821.55
7821.93
7822.3
7822.66
7823.02
7823.37
7823.72
7824.05
7824.38
7824.71
7825.03
7825.34
7825.65
7825.95
7826.24
7826.53
7826.82
7827.1
7827.37
7827.64
7827.9
7828.16
7828.42
7828.66
7828.91
7829.15
7829.38
7829.61
7829.84
7830.06
7830.28
7830.5
7830.7
7830.91
7831.11
7831.31
7831.51
7831.7
7831.88
7832.07
7832.25
7832.43
7832.6
7832.77
7832.94
7833.1
7833.26
7833.42
7833.58
7833.73
7833.88
7834.02
7834.17
7834.31
7834.45
7834.58
7834.72
7834.85
7834.98
7835.1
7835.23
7835.35
7835.47
7835.58
7835.7
7835.81
7835.92
7836.03
7836.13
7836.24
7836.34
7836.44
7836.54
7836.63
7836.73
7836.82
7836.91
7837
7837.08
7837.17
7837.25
7837.33
7837.41
7837.49
7837.57
7837.64
7837.72
7837.79
7837.86
7837.93
7837.99
7838.06
7838.12
7838.19
7838.25
7838.31
7838.37
7838.42
7838.48
7838.53
7838.59
7838.64
7838.69
7838.74
7838.79
7838.83
7838.88
7838.92
7838.97
7839.01
7839.05
7839.09
7839.13
7839.17
7839.2
7839.24
7839.27
7839.31
7839.34
7839.37
7839.4
7839.43
7839.46
7839.49
7839.52
7839.55
7839.57
7839.6
7839.62
7839.65
7839.67
7839.69
7839.71
7839.73
7839.76
7839.77
7839.79
7839.81
7839.83
7839.85
7839.86
7839.88
7839.89
7839.91
7839.92
7839.94
7839.95
7839.96
7839.97
7839.99
7840
7840.01
7840.02
7840.03
7840.04
7840.05
7840.06
7840.07
7840.07
7840.08
7840.09
7840.1
7840.1
7840.11
7840.12
7840.12
7840.13
7840.13
7840.14
7840.14
7840.15
7840.15
7840.16
7840.16
7840.16
7840.17
7840.17
7840.17
7840.17
7840.18
7840.18
7840.18
7840.18
7840.18
7840.19
7840.19
7840.19
7840.19
7840.19
7840.2
7840.2
7840.2
7840.2
7840.2
7840.2
7840.2
7840.21
7840.21
7840.21
7840.21
7840.21
7840.21
7840.21
7840.22
7840.22
7840.22
7840.22
7840.22
7840.22
7840.22
7840.22
7840.22
7840.22
7840.22
7840.23
7840.23
7840.23
7840.23
7840.23
7840.23
7840.23
7840.23
7840.23
7840.23
7840.23
7840.23
7840.23
7840.23
7840.23
7840.23
7840.23
7840.23
7840.23
7840.23
7840.23
7840.23
7840.23
7840.23
7840.23
7840.23
7840.23
7840.23
7840.23
7840.23
7840.23
7840.23
7840.23
7840.23
7840.23
7840.22
7840.22
7840.22
7840.22
7840.22
7840.22
7840.22
7840.22
7840.22
7840.22
7840.22
7840.22
7840.22
7840.22
7840.21
7797.59
7792.95
7788.45
7784.12
7779.94
7775.92
7772.07
7768.37
7764.83
7761.46
7758.26
7755.22
7752.32
7749.58
7747
7744.58
7742.32
7740.18
7738.18
7736.32
7734.6
7733.02
7731.59
7730.28
7729.09
7728.01
7727.04
7726.19
7725.45
7724.83
7724.31
7723.89
7723.58
7723.37
7723.25
7723.21
7723.25
7723.37
7723.57
7723.84
7724.18
7724.57
7725.03
7725.56
7726.13
7726.75
7727.42
7728.13
7728.85
7729.59
7730.49
7731.37
7732.26
7733.17
7734.09
7735.04
7736
7736.92
7737.89
7738.9
7739.92
7740.83
7741.71
7742.69
7743.82
7744.8
7745.68
7746.61
7747.66
7748.62
7749.42
7750.23
7751.09
7751.96
7752.89
7753.73
7754.49
7755.3
7755.93
7756.54
7757.26
7757.97
7758.75
7759.5
7760.09
7760.68
7761.3
7761.98
7762.56
7763
7763.37
7763.79
7764.5
7765.13
7765.42
7765.84
7766.09
7766.34
7766.58
7766.85
7767.04
7767.11
7767.23
7767.32
7767.25
7767.23
7767.2
7767.17
7767.06
7766.79
7766.6
7766.39
7766.19
7765.9
7765.51
7765.17
7764.79
7764.45
7764.04
7763.56
7763.09
7762.63
7762.2
7761.7
7761.16
7760.65
7760.12
7759.56
7758.98
7758.43
7757.93
7757.39
7756.82
7756.23
7755.67
7755.14
7754.59
7754.02
7753.45
7752.92
7752.4
7751.91
7751.42
7750.9
7750.41
7749.95
7749.51
7749.12
7748.72
7748.32
7747.93
7747.59
7747.27
7746.95
7746.67
7746.43
7746.21
7746
7745.77
7745.6
7745.47
7745.31
7745.2
7745.11
7745.05
7745.04
7745
7745
7745.04
7745.11
7745.18
7745.29
7745.45
7745.6
7745.79
7746.02
7746.27
7746.56
7746.86
7747.2
7747.57
7747.97
7748.4
7748.85
7749.33
7749.87
7750.38
7750.94
7751.52
7752.13
7752.76
7753.41
7754.08
7754.78
7755.49
7756.23
7756.96
7757.71
7758.48
7759.27
7760.08
7760.88
7761.7
7762.54
7763.38
7764.23
7765.1
7765.98
7766.86
7767.73
7768.63
7769.52
7770.42
7771.33
7772.24
7773.16
7774.06
7774.97
7775.89
7776.8
7777.72
7778.63
7779.53
7780.44
7781.35
7782.25
7783.14
7784.03
7784.91
7785.79
7786.66
7787.53
7788.39
7789.25
7790.09
7790.93
7791.76
7792.58
7793.4
7794.21
7795.01
7795.79
7796.57
7797.34
7798.1
7798.86
7799.6
7800.33
7801.06
7801.77
7802.48
7803.17
7803.85
7804.53
7805.19
7805.85
7806.49
7807.13
7807.75
7808.37
7808.98
7809.57
7810.16
7810.74
7811.31
7811.87
7812.42
7812.96
7813.49
7814.01
7814.52
7815.03
7815.53
7816.01
7816.49
7816.96
7817.42
7817.88
7818.32
7818.76
7819.19
7819.61
7820.02
7820.43
7820.83
7821.22
7821.6
7821.98
7822.35
7822.71
7823.07
7823.42
7823.76
7824.1
7824.43
7824.76
7825.07
7825.39
7825.69
7825.99
7826.29
7826.58
7826.86
7827.14
7827.41
7827.68
7827.94
7828.2
7828.45
7828.7
7828.95
7829.19
7829.42
7829.65
7829.88
7830.1
7830.32
7830.53
7830.74
7830.94
7831.15
7831.34
7831.54
7831.73
7831.91
7832.1
7832.28
7832.45
7832.63
7832.8
7832.96
7833.13
7833.29
7833.45
7833.6
7833.75
7833.9
7834.05
7834.19
7834.33
7834.47
7834.61
7834.74
7834.87
7835
7835.12
7835.25
7835.37
7835.49
7835.6
7835.72
7835.83
7835.94
7836.05
7836.15
7836.25
7836.36
7836.46
7836.55
7836.65
7836.74
7836.83
7836.92
7837.01
7837.1
7837.18
7837.27
7837.35
7837.43
7837.51
7837.58
7837.66
7837.73
7837.8
7837.87
7837.94
7838.01
7838.07
7838.14
7838.2
7838.26
7838.32
7838.38
7838.43
7838.49
7838.54
7838.6
7838.65
7838.7
7838.75
7838.8
7838.84
7838.89
7838.93
7838.98
7839.02
7839.06
7839.1
7839.14
7839.18
7839.21
7839.25
7839.28
7839.32
7839.35
7839.38
7839.41
7839.44
7839.47
7839.5
7839.53
7839.55
7839.58
7839.61
7839.63
7839.65
7839.68
7839.7
7839.72
7839.74
7839.76
7839.78
7839.8
7839.82
7839.83
7839.85
7839.87
7839.88
7839.9
7839.91
7839.93
7839.94
7839.95
7839.97
7839.98
7839.99
7840
7840.01
7840.02
7840.03
7840.04
7840.05
7840.06
7840.07
7840.08
7840.09
7840.09
7840.1
7840.11
7840.11
7840.12
7840.13
7840.13
7840.14
7840.14
7840.15
7840.15
7840.15
7840.16
7840.16
7840.16
7840.17
7840.17
7840.17
7840.17
7840.18
7840.18
7840.18
7840.18
7840.18
7840.19
7840.19
7840.19
7840.19
7840.19
7840.2
7840.2
7840.2
7840.2
7840.2
7840.2
7840.21
7840.21
7840.21
7840.21
7840.21
7840.21
7840.21
7840.21
7840.22
7840.22
7840.22
7840.22
7840.22
7840.22
7840.22
7840.22
7840.22
7840.22
7840.22
7840.23
7840.23
7840.23
7840.23
7840.23
7840.23
7840.23
7840.23
7840.23
7840.23
7840.23
7840.23
7840.23
7840.23
7840.23
7840.23
7840.23
7840.23
7840.23
7840.23
7840.23
7840.23
7840.23
7840.23
7840.23
7840.23
7840.23
7840.23
7840.23
7840.23
7840.23
7840.23
7840.23
7840.23
7840.23
7840.23
7840.22
7840.22
7840.22
7840.22
7840.22
7840.22
7840.22
7840.22
7840.22
7840.22
7840.22
7840.22
7840.22
7840.21
7795.55
7790.94
7786.44
7782.09
7777.9
7773.87
7770.04
7766.36
7762.85
7759.5
7756.32
7753.29
7750.43
7747.74
7745.2
7742.82
7740.59
7738.48
7736.52
7734.72
7733.04
7731.5
7730.1
7728.83
7727.67
7726.63
7725.7
7724.89
7724.2
7723.6
7723.11
7722.72
7722.42
7722.23
7722.13
7722.11
7722.17
7722.32
7722.54
7722.82
7723.18
7723.62
7724.11
7724.66
7725.27
7725.96
7726.68
7727.41
7728.18
7729.01
7729.96
7730.9
7731.83
7732.78
7733.78
7734.78
7735.79
7736.8
7737.84
7738.88
7739.91
7740.89
7741.89
7742.94
7744
7745
7745.98
7746.95
7747.96
7748.91
7749.83
7750.74
7751.55
7752.39
7753.36
7754.19
7755
7755.79
7756.48
7757.14
7758.02
7758.73
7759.41
7759.97
7760.58
7761.27
7761.91
7762.49
7763.07
7763.62
7764.13
7764.64
7765.08
7765.41
7765.77
7766.38
7766.81
7766.94
7767.21
7767.34
7767.55
7767.69
7767.79
7767.8
7767.77
7767.77
7767.73
7767.64
7767.47
7767.25
7767.1
7766.89
7766.6
7766.26
7765.87
7765.58
7765.22
7764.78
7764.35
7763.9
7763.45
7762.94
7762.44
7761.93
7761.43
7760.87
7760.3
7759.76
7759.23
7758.62
7758.03
7757.43
7756.87
7756.32
7755.72
7755.17
7754.62
7754.04
7753.46
7752.91
7752.39
7751.88
7751.35
7750.83
7750.34
7749.88
7749.43
7749
7748.57
7748.17
7747.8
7747.45
7747.11
7746.8
7746.51
7746.24
7746
7745.76
7745.56
7745.38
7745.23
7745.09
7744.98
7744.89
7744.83
7744.78
7744.76
7744.77
7744.8
7744.86
7744.94
7745.06
7745.2
7745.36
7745.56
7745.79
7746.04
7746.32
7746.63
7746.98
7747.35
7747.75
7748.18
7748.64
7749.13
7749.64
7750.18
7750.75
7751.34
7751.95
7752.58
7753.24
7753.92
7754.61
7755.33
7756.06
7756.81
7757.58
7758.35
7759.15
7759.95
7760.77
7761.6
7762.44
7763.29
7764.15
7765.02
7765.9
7766.78
7767.67
7768.57
7769.47
7770.38
7771.29
7772.2
7773.11
7774.03
7774.95
7775.88
7776.79
7777.71
7778.63
7779.54
7780.45
7781.36
7782.27
7783.17
7784.06
7784.95
7785.83
7786.71
7787.58
7788.45
7789.3
7790.15
7791
7791.83
7792.65
7793.47
7794.27
7795.07
7795.86
7796.65
7797.42
7798.19
7798.94
7799.69
7800.42
7801.14
7801.86
7802.56
7803.26
7803.94
7804.62
7805.28
7805.94
7806.59
7807.22
7807.85
7808.46
7809.07
7809.67
7810.25
7810.83
7811.4
7811.96
7812.51
7813.05
7813.58
7814.1
7814.61
7815.11
7815.61
7816.1
7816.57
7817.04
7817.5
7817.96
7818.4
7818.84
7819.27
7819.69
7820.1
7820.51
7820.9
7821.29
7821.68
7822.05
7822.42
7822.79
7823.14
7823.49
7823.83
7824.17
7824.5
7824.82
7825.14
7825.45
7825.75
7826.05
7826.35
7826.64
7826.92
7827.2
7827.47
7827.74
7828
7828.26
7828.51
7828.75
7829
7829.24
7829.47
7829.7
7829.92
7830.14
7830.36
7830.57
7830.78
7830.99
7831.19
7831.39
7831.58
7831.77
7831.95
7832.14
7832.32
7832.49
7832.66
7832.83
7833
7833.16
7833.32
7833.48
7833.63
7833.79
7833.93
7834.08
7834.22
7834.36
7834.5
7834.64
7834.77
7834.9
7835.03
7835.15
7835.27
7835.39
7835.51
7835.63
7835.74
7835.85
7835.96
7836.07
7836.18
7836.28
7836.38
7836.48
7836.58
7836.67
7836.77
7836.86
7836.95
7837.03
7837.12
7837.21
7837.29
7837.37
7837.45
7837.53
7837.6
7837.68
7837.75
7837.82
7837.89
7837.96
7838.02
7838.09
7838.15
7838.22
7838.28
7838.34
7838.39
7838.45
7838.51
7838.56
7838.61
7838.66
7838.71
7838.76
7838.81
7838.86
7838.9
7838.95
7838.99
7839.03
7839.07
7839.11
7839.15
7839.19
7839.23
7839.26
7839.3
7839.33
7839.36
7839.39
7839.42
7839.45
7839.48
7839.51
7839.54
7839.56
7839.59
7839.62
7839.64
7839.66
7839.69
7839.71
7839.73
7839.75
7839.77
7839.79
7839.81
7839.82
7839.84
7839.86
7839.87
7839.89
7839.91
7839.92
7839.93
7839.95
7839.96
7839.97
7839.98
7840
7840.01
7840.02
7840.03
7840.04
7840.05
7840.06
7840.07
7840.07
7840.08
7840.09
7840.1
7840.1
7840.11
7840.12
7840.12
7840.13
7840.14
7840.14
7840.14
7840.15
7840.15
7840.15
7840.16
7840.16
7840.16
7840.17
7840.17
7840.17
7840.17
7840.18
7840.18
7840.18
7840.18
7840.19
7840.19
7840.19
7840.19
7840.19
7840.19
7840.2
7840.2
7840.2
7840.2
7840.2
7840.2
7840.21
7840.21
7840.21
7840.21
7840.21
7840.21
7840.21
7840.22
7840.22
7840.22
7840.22
7840.22
7840.22
7840.22
7840.22
7840.22
7840.22
7840.22
7840.23
7840.23
7840.23
7840.23
7840.23
7840.23
7840.23
7840.23
7840.23
7840.23
7840.23
7840.23
7840.23
7840.23
7840.23
7840.23
7840.23
7840.23
7840.23
7840.23
7840.23
7840.23
7840.23
7840.23
7840.23
7840.23
7840.23
7840.23
7840.23
7840.23
7840.23
7840.23
7840.23
7840.23
7840.23
7840.23
7840.23
7840.23
7840.22
7840.22
7840.22
7840.22
7840.22
7840.22
7840.22
7840.22
7840.22
7840.22
7840.22
7840.22
7840.22
7792.94
7788.37
7783.86
7779.51
7775.31
7771.31
7767.49
7763.83
7760.34
7757
7753.82
7750.83
7748.04
7745.4
7742.89
7740.52
7738.3
7736.22
7734.32
7732.56
7730.94
7729.44
7728.08
7726.85
7725.72
7724.68
7723.8
7723.06
7722.45
7721.93
7721.51
7721.17
7720.89
7720.69
7720.61
7720.65
7720.82
7721.03
7721.16
7721.33
7721.69
7722.39
7722.99
7723.39
7724.01
7724.99
7725.87
7726.45
7727.1
7728.21
7729.26
7730.22
7731.18
7732.26
7733.32
7734.34
7735.38
7736.53
7737.68
7738.77
7739.81
7740.87
7741.94
7742.94
7743.91
7745.02
7746.09
7747.1
7748.05
7749.03
7750.03
7750.98
7751.84
7752.65
7753.58
7754.52
7755.37
7756.18
7756.88
7757.66
7758.52
7759.24
7759.86
7760.44
7761.2
7761.86
7762.46
7762.98
7763.47
7764
7764.54
7765.11
7765.59
7766.03
7766.46
7766.83
7767.14
7767.5
7767.82
7768.09
7768.1
7768.31
7768.38
7768.43
7768.43
7768.38
7768.28
7768.2
7768.06
7767.86
7767.6
7767.39
7767.1
7766.76
7766.38
7766.05
7765.66
7765.19
7764.71
7764.31
7763.82
7763.32
7762.77
7762.22
7761.69
7761.15
7760.57
7759.99
7759.4
7758.81
7758.22
7757.61
7757.03
7756.41
7755.82
7755.18
7754.59
7754.06
7753.48
7752.93
7752.35
7751.83
7751.3
7750.8
7750.28
7749.8
7749.33
7748.86
7748.39
7748.05
7747.66
7747.29
7746.88
7746.62
7746.32
7746.04
7745.78
7745.51
7745.33
7745.15
7744.98
7744.84
7744.73
7744.64
7744.57
7744.52
7744.48
7744.5
7744.54
7744.59
7744.67
7744.79
7744.93
7745.1
7745.28
7745.52
7745.78
7746.07
7746.37
7746.71
7747.1
7747.5
7747.93
7748.41
7748.9
7749.41
7749.95
7750.52
7751.12
7751.74
7752.38
7753.04
7753.72
7754.42
7755.14
7755.88
7756.64
7757.42
7758.2
7759
7759.81
7760.64
7761.47
7762.32
7763.16
7764.04
7764.92
7765.8
7766.7
7767.6
7768.5
7769.4
7770.32
7771.24
7772.16
7773.08
7774
7774.92
7775.86
7776.78
7777.71
7778.63
7779.53
7780.46
7781.38
7782.29
7783.19
7784.09
7784.99
7785.88
7786.75
7787.62
7788.5
7789.37
7790.22
7791.06
7791.9
7792.73
7793.55
7794.36
7795.17
7795.95
7796.74
7797.52
7798.28
7799.04
7799.78
7800.52
7801.25
7801.96
7802.67
7803.37
7804.05
7804.73
7805.4
7806.05
7806.7
7807.33
7807.96
7808.57
7809.18
7809.78
7810.36
7810.94
7811.51
7812.06
7812.61
7813.15
7813.68
7814.2
7814.71
7815.22
7815.71
7816.2
7816.67
7817.14
7817.6
7818.05
7818.5
7818.93
7819.36
7819.78
7820.19
7820.6
7820.99
7821.38
7821.76
7822.14
7822.51
7822.87
7823.22
7823.57
7823.91
7824.25
7824.57
7824.9
7825.21
7825.52
7825.83
7826.13
7826.42
7826.71
7826.99
7827.26
7827.54
7827.8
7828.06
7828.32
7828.57
7828.82
7829.06
7829.3
7829.53
7829.76
7829.98
7830.2
7830.42
7830.63
7830.84
7831.04
7831.24
7831.44
7831.63
7831.82
7832
7832.18
7832.36
7832.54
7832.71
7832.88
7833.04
7833.21
7833.36
7833.52
7833.67
7833.82
7833.97
7834.12
7834.26
7834.4
7834.54
7834.67
7834.8
7834.93
7835.06
7835.18
7835.31
7835.43
7835.54
7835.66
7835.77
7835.88
7835.99
7836.1
7836.21
7836.31
7836.41
7836.51
7836.6
7836.7
7836.79
7836.88
7836.97
7837.06
7837.15
7837.23
7837.31
7837.39
7837.47
7837.55
7837.63
7837.7
7837.77
7837.84
7837.91
7837.98
7838.05
7838.11
7838.17
7838.24
7838.3
7838.36
7838.41
7838.47
7838.53
7838.58
7838.63
7838.68
7838.73
7838.78
7838.83
7838.87
7838.92
7838.96
7839.01
7839.05
7839.09
7839.13
7839.17
7839.2