/*--------------------------------*- C++ -*----------------------------------*\
| =========                 |                                                 |
| \\      /  F ield         | OpenFOAM: The Open Source CFD Toolbox           |
|  \\    /   O peration     | Version:  v2006                                 |
|   \\  /    A nd           | Website:  www.openfoam.com                      |
|    \\/     M anipulation  |                                                 |
\*---------------------------------------------------------------------------*/
FoamFile
{
    version     2.0;
    format      ascii;
    class       surfaceScalarField;
    location    "2";
    object      phi;
}
// * * * * * * * * * * * * * * * * * * * * * * * * * * * * * * * * * * * * * //

dimensions      [0 3 -1 0 0 0 0];
oriented        oriented;


internalField   nonuniform List<scalar> 
65390
(
-2.22148e-05
-1.39513e-07
-2.26536e-05
4.27604e-07
-2.30452e-05
3.83037e-07
-2.33791e-05
3.26211e-07
-2.37329e-05
3.55049e-07
-2.40373e-05
3.03631e-07
-2.43177e-05
2.81956e-07
-2.45605e-05
2.5247e-07
-2.47692e-05
2.17554e-07
-2.496e-05
1.97744e-07
-2.51434e-05
1.93589e-07
-2.53096e-05
1.79165e-07
-2.54563e-05
1.5765e-07
-2.55721e-05
1.22619e-07
-2.56359e-05
7.08599e-08
-2.56639e-05
3.64899e-08
-2.56858e-05
2.65067e-08
-2.57109e-05
2.42688e-08
-2.57694e-05
5.52644e-08
-2.58278e-05
5.56007e-08
-2.58157e-05
-1.50626e-08
-2.56889e-05
-1.31872e-07
-2.55399e-05
-1.5846e-07
-2.54695e-05
-8.32557e-08
-2.54389e-05
-4.28476e-08
-2.53511e-05
-9.882e-08
-2.51946e-05
-1.68421e-07
-2.49756e-05
-2.30554e-07
-2.48345e-05
-1.51236e-07
-2.47525e-05
-9.11101e-08
-2.45615e-05
-2.00666e-07
-2.42558e-05
-3.17477e-07
-2.39762e-05
-2.91216e-07
-2.37943e-05
-1.91068e-07
-2.3643e-05
-1.58076e-07
-2.34017e-05
-2.46412e-07
-2.29915e-05
-4.14704e-07
-2.26165e-05
-3.79344e-07
-2.23907e-05
-2.2988e-07
-2.21427e-05
-2.51e-07
-2.19345e-05
-2.09499e-07
-2.16173e-05
-3.16839e-07
-2.11295e-05
-4.85613e-07
-2.06884e-05
-4.37611e-07
-2.04031e-05
-2.81543e-07
-2.00857e-05
-3.13864e-07
-1.96388e-05
-4.43768e-07
-1.91956e-05
-4.40203e-07
-1.88396e-05
-3.5255e-07
-1.84733e-05
-3.61847e-07
-1.80476e-05
-4.20034e-07
-1.75577e-05
-4.83441e-07
-1.70943e-05
-4.56272e-07
-1.6663e-05
-4.2381e-07
-1.62446e-05
-4.10678e-07
-1.58029e-05
-4.33866e-07
-1.53551e-05
-4.40215e-07
-1.49858e-05
-3.61858e-07
-1.46473e-05
-3.31475e-07
-1.42833e-05
-3.57205e-07
-1.38514e-05
-4.25363e-07
-1.3405e-05
-4.39725e-07
-1.30858e-05
-3.12401e-07
-1.27556e-05
-3.23236e-07
-1.23969e-05
-3.51543e-07
-1.19626e-05
-4.2687e-07
-1.14972e-05
-4.57747e-07
-1.11049e-05
-3.84671e-07
-1.0697e-05
-4.00188e-07
-1.02592e-05
-4.3026e-07
-9.84783e-06
-4.03753e-07
-9.41625e-06
-4.2374e-07
-8.94962e-06
-4.58964e-07
-8.31295e-06
-6.29937e-07
-7.68702e-06
-6.20346e-07
-6.90536e-06
-7.76482e-07
-5.88608e-06
-1.01421e-06
-4.65527e-06
-1.22614e-06
-3.6867e-06
-9.63851e-07
-3.17824e-06
-5.06173e-07
-2.95067e-06
-2.24582e-07
-2.91023e-06
-3.77525e-08
-2.88713e-06
-2.14541e-08
-2.82745e-06
-5.76407e-08
-2.78574e-06
-4.00233e-08
-2.68735e-06
-9.65031e-08
-2.5641e-06
-1.22268e-07
-2.49083e-06
-7.28572e-08
-2.42877e-06
-6.24218e-08
-2.37932e-06
-4.95253e-08
-2.30272e-06
-7.65777e-08
-2.2123e-06
-8.95834e-08
-2.11052e-06
-1.02216e-07
-2.01543e-06
-9.61795e-08
-1.90742e-06
-1.09005e-07
-1.77608e-06
-1.3149e-07
-1.57549e-06
-1.99321e-07
-1.33802e-06
-2.3677e-07
-1.04519e-06
-2.93369e-07
-8.10891e-07
-2.34771e-07
-7.01336e-07
-1.09305e-07
-6.60909e-07
-3.99592e-08
-6.60756e-07
7.03174e-11
-6.3713e-07
-2.36735e-08
-6.51615e-07
1.46435e-08
-6.67624e-07
1.64333e-08
-6.52609e-07
-1.4485e-08
-6.30766e-07
-2.1595e-08
-6.22399e-07
-8.31324e-09
-6.24826e-07
2.60607e-09
-6.2244e-07
-2.04173e-09
-6.22577e-07
3.69972e-10
-6.07111e-07
-1.53808e-08
-5.72646e-07
-3.4391e-08
-4.99872e-07
-7.27047e-08
-3.92105e-07
-1.07762e-07
-2.1995e-07
-1.7225e-07
-9.51601e-08
-1.24987e-07
-7.10845e-08
-2.43364e-08
-9.14941e-08
2.00629e-08
-1.51045e-07
5.91097e-08
-1.95194e-07
4.36454e-08
-2.81884e-07
8.61277e-08
-3.62036e-07
7.95243e-08
-4.14859e-07
5.21788e-08
-4.71811e-07
5.63838e-08
-5.25515e-07
5.32631e-08
-5.86918e-07
6.10967e-08
-6.55452e-07
6.83567e-08
-7.17271e-07
6.17411e-08
-7.71443e-07
5.41501e-08
-8.35114e-07
6.36815e-08
-9.00138e-07
6.50596e-08
-9.64682e-07
6.45746e-08
-1.02569e-06
6.1009e-08
-1.08586e-06
6.01795e-08
-1.15469e-06
6.88442e-08
-1.22289e-06
6.82112e-08
-1.29009e-06
6.71829e-08
-1.35329e-06
6.3165e-08
-1.42318e-06
6.98269e-08
-1.49268e-06
6.9414e-08
-1.56101e-06
6.81772e-08
-1.62928e-06
6.80541e-08
-1.69902e-06
6.951e-08
-1.76719e-06
6.79584e-08
-1.83287e-06
6.54988e-08
-1.89681e-06
6.37895e-08
-1.96457e-06
6.76715e-08
-2.03079e-06
6.62005e-08
-2.09628e-06
6.55176e-08
-2.16103e-06
6.47868e-08
-2.22087e-06
5.98846e-08
-2.27831e-06
5.75276e-08
-2.33942e-06
6.12417e-08
-2.40007e-06
6.08301e-08
-2.45846e-06
5.86015e-08
-2.5128e-06
5.4601e-08
-2.5659e-06
5.34481e-08
-2.62106e-06
5.55567e-08
-2.67499e-06
5.43795e-08
-2.72593e-06
5.14209e-08
-2.77415e-06
4.87e-08
-2.82381e-06
5.01138e-08
-2.87283e-06
4.94392e-08
-2.92068e-06
4.82164e-08
-2.9652e-06
4.48282e-08
-3.0094e-06
4.44334e-08
-3.05357e-06
4.43174e-08
-3.0972e-06
4.3696e-08
-3.13849e-06
4.12757e-08
-3.17746e-06
3.8881e-08
-3.21585e-06
3.82294e-08
-3.25424e-06
3.816e-08
-3.29045e-06
3.59194e-08
-3.32522e-06
3.44187e-08
-3.35842e-06
3.27799e-08
-3.39054e-06
3.16391e-08
-3.42134e-06
3.02713e-08
-3.45074e-06
2.88375e-08
-3.47875e-06
2.74124e-08
-3.50504e-06
2.56825e-08
-3.52989e-06
2.42229e-08
-3.55339e-06
2.28869e-08
-3.57523e-06
2.12434e-08
-3.59518e-06
1.93735e-08
-3.61332e-06
1.75975e-08
-3.63047e-06
1.66377e-08
-3.64616e-06
1.52294e-08
-3.66019e-06
1.36033e-08
-3.67204e-06
1.14652e-08
-3.68279e-06
1.04186e-08
-3.69212e-06
9.03909e-09
-3.69979e-06
7.41523e-09
-3.70593e-06
5.93335e-09
-3.7105e-06
4.3929e-09
-3.71384e-06
3.19718e-09
-3.71569e-06
1.74247e-09
-3.71608e-06
2.98733e-10
-3.7149e-06
-1.25451e-09
-3.71249e-06
-2.47188e-09
-3.70882e-06
-3.72504e-09
-3.70388e-06
-4.99618e-09
-3.6976e-06
-6.34659e-09
-3.68997e-06
-7.71143e-09
-3.68104e-06
-9.01028e-09
-3.67075e-06
-1.03698e-08
-3.65991e-06
-1.09057e-08
-3.64761e-06
-1.23691e-08
-3.63406e-06
-1.35867e-08
-3.61918e-06
-1.49136e-08
-3.60345e-06
-1.57427e-08
-3.58671e-06
-1.67705e-08
-3.5689e-06
-1.78446e-08
-3.55e-06
-1.89606e-08
-3.52981e-06
-2.026e-08
-3.50912e-06
-2.07521e-08
-3.48751e-06
-2.16578e-08
-3.46493e-06
-2.25697e-08
-3.44141e-06
-2.34636e-08
-3.41685e-06
-2.44668e-08
-3.39103e-06
-2.56997e-08
-3.36483e-06
-2.60847e-08
-3.338e-06
-2.67323e-08
-3.3105e-06
-2.74423e-08
-3.28227e-06
-2.82014e-08
-3.25326e-06
-2.90038e-08
-3.22353e-06
-2.9742e-08
-3.19317e-06
-3.03579e-08
-3.16224e-06
-3.09291e-08
-3.13069e-06
-3.15356e-08
-3.09861e-06
-3.20903e-08
-3.06604e-06
-3.25829e-08
-3.03301e-06
-3.3054e-08
-2.99955e-06
-3.34832e-08
-2.96571e-06
-3.38576e-08
-2.93156e-06
-3.41875e-08
-2.89704e-06
-3.45568e-08
-2.8621e-06
-3.49703e-08
-2.8269e-06
-3.52204e-08
-2.79147e-06
-3.54405e-08
-2.75576e-06
-3.56931e-08
-2.71983e-06
-3.59159e-08
-2.68372e-06
-3.61014e-08
-2.64746e-06
-3.6252e-08
-2.61109e-06
-3.6376e-08
-2.57462e-06
-3.64815e-08
-2.53806e-06
-3.65621e-08
-2.50144e-06
-3.66399e-08
-2.46483e-06
-3.66466e-08
-2.42828e-06
-3.66075e-08
-2.39178e-06
-3.65606e-08
-2.35534e-06
-3.65065e-08
-2.31896e-06
-3.64195e-08
-2.28268e-06
-3.62986e-08
-2.2465e-06
-3.6197e-08
-2.2104e-06
-3.61277e-08
-2.17444e-06
-3.60015e-08
-2.13862e-06
-3.58505e-08
-2.10296e-06
-3.56618e-08
-2.06748e-06
-3.54368e-08
-2.03222e-06
-3.51837e-08
-1.9972e-06
-3.492e-08
-1.96246e-06
-3.46632e-08
-1.928e-06
-3.44147e-08
-1.89384e-06
-3.41626e-08
-1.85996e-06
-3.38937e-08
-1.82638e-06
-3.36075e-08
-1.79308e-06
-3.33037e-08
-1.7601e-06
-3.2983e-08
-1.72745e-06
-3.26401e-08
-1.69515e-06
-3.2267e-08
-1.66324e-06
-3.18672e-08
-1.63171e-06
-3.14744e-08
-1.60056e-06
-3.10912e-08
-1.5698e-06
-3.07096e-08
-1.53945e-06
-3.03225e-08
-1.5095e-06
-2.99271e-08
-1.47996e-06
-2.95206e-08
-1.45083e-06
-2.91093e-08
-1.42211e-06
-2.86937e-08
-1.3938e-06
-2.82795e-08
-1.3659e-06
-2.78786e-08
-1.33837e-06
-2.75e-08
-1.31123e-06
-2.71239e-08
-1.28446e-06
-2.67518e-08
-1.25805e-06
-2.63796e-08
-1.23201e-06
-2.60095e-08
-1.20633e-06
-2.56434e-08
-1.18102e-06
-2.52769e-08
-1.15609e-06
-2.49051e-08
-1.13154e-06
-2.45254e-08
-1.10738e-06
-2.41336e-08
-1.08363e-06
-2.37295e-08
-1.06029e-06
-2.33145e-08
-1.03738e-06
-2.28896e-08
-1.01489e-06
-2.24631e-08
-9.92834e-07
-2.20373e-08
-9.71198e-07
-2.16164e-08
-9.49979e-07
-2.11992e-08
-9.29173e-07
-2.07858e-08
-9.08774e-07
-2.03788e-08
-8.88772e-07
-1.99822e-08
-8.69155e-07
-1.96e-08
-8.49907e-07
-1.92334e-08
-8.31013e-07
-1.88807e-08
-8.12465e-07
-1.8537e-08
-7.94254e-07
-1.82006e-08
-7.76375e-07
-1.78713e-08
-7.58824e-07
-1.75437e-08
-7.41602e-07
-1.72168e-08
-7.24708e-07
-1.68897e-08
-7.08145e-07
-1.65618e-08
-6.91912e-07
-1.62335e-08
-6.76009e-07
-1.59064e-08
-6.60431e-07
-1.55823e-08
-6.45174e-07
-1.52628e-08
-6.30231e-07
-1.4949e-08
-6.15597e-07
-1.46404e-08
-6.01268e-07
-1.43355e-08
-5.87241e-07
-1.40334e-08
-5.73512e-07
-1.37341e-08
-5.60077e-07
-1.34385e-08
-5.46933e-07
-1.31473e-08
-5.34077e-07
-1.28576e-08
-5.21513e-07
-1.25642e-08
-5.0925e-07
-1.22638e-08
-4.97289e-07
-1.19605e-08
-4.85622e-07
-1.16643e-08
-4.74235e-07
-1.13836e-08
-4.63112e-07
-1.11186e-08
-4.52241e-07
-1.08654e-08
-4.41613e-07
-1.06233e-08
-4.31214e-07
-1.03978e-08
-4.21026e-07
-1.01902e-08
-4.11037e-07
-9.99105e-09
-4.01253e-07
-9.7856e-09
-3.9168e-07
-9.56949e-09
-3.82324e-07
-9.35145e-09
-3.73181e-07
-9.13935e-09
-3.64255e-07
-8.93018e-09
-3.55551e-07
-8.71711e-09
-3.47068e-07
-8.50154e-09
-3.38796e-07
-8.29299e-09
-3.30717e-07
-8.09751e-09
-3.22818e-07
-7.9127e-09
-3.15091e-07
-7.73594e-09
-3.07527e-07
-7.56969e-09
-3.00116e-07
-7.41464e-09
-2.92856e-07
-7.2647e-09
-2.8575e-07
-7.11358e-09
-2.788e-07
-6.9603e-09
-2.7201e-07
-6.80462e-09
-2.65386e-07
-6.6441e-09
-2.58929e-07
-6.47985e-09
-2.52631e-07
-6.32012e-09
-2.46479e-07
-6.17276e-09
-2.40458e-07
-6.03803e-09
-2.34558e-07
-5.91232e-09
-2.28774e-07
-5.79455e-09
-2.231e-07
-5.68457e-09
-2.17533e-07
-5.57752e-09
-2.12077e-07
-5.46514e-09
-2.06742e-07
-5.3433e-09
-2.01533e-07
-5.21564e-09
-1.96449e-07
-5.08905e-09
-1.91486e-07
-4.96835e-09
-1.86636e-07
-4.85589e-09
-1.81888e-07
-4.75378e-09
-1.7723e-07
-4.66368e-09
-1.72651e-07
-4.58406e-09
-1.68146e-07
-4.50886e-09
-1.63718e-07
-4.43092e-09
-1.59373e-07
-4.34678e-09
-1.55115e-07
-4.25859e-09
-1.50945e-07
-4.17066e-09
-1.4686e-07
-4.08447e-09
-1.42859e-07
-3.99912e-09
-1.38941e-07
-3.91709e-09
-1.35096e-07
-3.84478e-09
-1.31312e-07
-3.784e-09
-1.27585e-07
-3.72751e-09
-1.2392e-07
-3.66574e-09
-1.20327e-07
-3.59328e-09
-1.16817e-07
-3.51005e-09
-1.13397e-07
-3.4203e-09
-1.10065e-07
-3.33216e-09
-1.0681e-07
-3.25333e-09
-1.03622e-07
-3.18587e-09
-1.00491e-07
-3.12702e-09
-9.74144e-08
-3.07195e-09
-9.43951e-08
-3.01394e-09
-9.14425e-08
-2.94698e-09
-8.85669e-08
-2.8699e-09
-8.57749e-08
-2.78625e-09
-8.30674e-08
-2.70171e-09
-8.04385e-08
-2.62334e-09
-7.78753e-08
-2.55834e-09
-7.53614e-08
-2.51003e-09
-7.28861e-08
-2.47265e-09
-7.04517e-08
-2.43299e-09
-6.80693e-08
-2.38194e-09
-6.57477e-08
-2.32181e-09
-6.34867e-08
-2.26157e-09
-6.12856e-08
-2.20248e-09
-5.91419e-08
-2.14606e-09
-5.70446e-08
-2.1011e-09
-5.49859e-08
-2.06353e-09
-5.29697e-08
-2.02175e-09
-5.10059e-08
-1.96948e-09
-4.91016e-08
-1.91013e-09
-4.72549e-08
-1.85275e-09
-4.54553e-08
-1.80591e-09
-4.36908e-08
-1.77093e-09
-4.19618e-08
-1.73533e-09
-4.02718e-08
-1.69607e-09
-3.86201e-08
-1.65736e-09
-3.70155e-08
-1.60953e-09
-3.54566e-08
-1.56325e-09
-3.39301e-08
-1.53035e-09
-3.24379e-08
-1.49598e-09
-3.10009e-08
-1.44068e-09
-2.96165e-08
-1.38776e-09
-2.83086e-08
-1.31049e-09
-2.70469e-08
-1.26335e-09
-2.57571e-08
-1.29088e-09
-2.45122e-08
-1.24613e-09
-2.32419e-08
-1.27255e-09
-2.19957e-08
-1.24942e-09
-2.07134e-08
-1.28633e-09
-1.94293e-08
-1.28861e-09
-1.82265e-08
-1.20721e-09
-1.70027e-08
-1.22766e-09
-1.58322e-08
-1.17392e-09
-1.46953e-08
-1.14011e-09
-1.36353e-08
-1.06318e-09
-1.26218e-08
-1.01707e-09
-1.16346e-08
-9.91186e-10
-1.06794e-08
-9.59279e-10
-9.71088e-09
-9.71792e-10
-8.80383e-09
-9.09035e-10
-7.99857e-09
-8.06006e-10
-7.21615e-09
-7.82185e-10
-6.45411e-09
-7.60738e-10
-5.67532e-09
-7.76969e-10
-4.94193e-09
-7.31834e-10
-4.23296e-09
-7.08216e-10
-3.50883e-09
-7.24326e-10
-2.76911e-09
-7.40547e-10
-2.02043e-09
-7.49965e-10
-1.35581e-09
-6.65969e-10
-6.71152e-10
-6.86193e-10
-8.35458e-11
-5.88864e-10
4.66651e-10
-5.52443e-10
9.20412e-10
-4.56712e-10
1.40278e-09
-4.868e-10
1.90957e-09
-5.10097e-10
2.29771e-09
-3.91493e-10
2.77182e-09
-4.78543e-10
3.25216e-09
-4.85807e-10
3.64072e-09
-3.95107e-10
3.97286e-09
-3.37993e-10
4.03838e-09
-6.92835e-11
4.20016e-09
-1.65888e-10
4.34489e-09
-1.4547e-10
4.41392e-09
-6.57696e-11
5.20593e-09
-7.81237e-10
5.55625e-09
-3.16067e-10
7.05606e-09
-1.44719e-09
8.38129e-09
-1.22642e-09
9.15255e-09
-5.92081e-10
9.85588e-09
-5.43313e-10
1.02628e-08
-2.64726e-10
1.05248e-08
-1.3568e-10
1.07016e-08
-6.47137e-11
1.0753e-08
4.77488e-11
1.06888e-08
1.51554e-10
1.05654e-08
1.99663e-10
1.0391e-08
2.4061e-10
1.01743e-08
2.73186e-10
9.95821e-09
2.63549e-10
9.79422e-09
2.03195e-10
9.67371e-09
1.52508e-10
9.56966e-09
1.29972e-10
9.45251e-09
1.38107e-10
9.32789e-09
1.4161e-10
9.22427e-09
1.17672e-10
9.16129e-09
7.51369e-11
9.14599e-09
2.64993e-11
9.15878e-09
-1.94266e-12
9.16269e-09
6.80678e-12
9.13491e-09
3.8251e-11
9.05558e-09
8.93823e-11
8.92658e-09
1.38522e-10
8.76175e-09
1.73825e-10
8.57979e-09
1.90437e-10
8.39873e-09
1.88998e-10
8.23669e-09
1.69363e-10
8.11607e-09
1.27249e-10
8.06544e-09
5.65731e-11
8.12636e-09
-5.56255e-11
8.29546e-09
-1.64442e-10
8.5879e-09
-2.88426e-10
8.99177e-09
-4.00566e-10
9.4843e-09
-4.89944e-10
1.0036e-08
-5.49733e-10
1.06166e-08
-5.7886e-10
1.12004e-08
-5.81798e-10
1.17684e-08
-5.65444e-10
1.2304e-08
-5.32357e-10
1.27869e-08
-4.79219e-10
1.31926e-08
-4.02088e-10
1.35012e-08
-3.05433e-10
1.37153e-08
-2.11608e-10
1.38444e-08
-1.27361e-10
1.39317e-08
-8.6106e-11
1.40202e-08
-8.7586e-11
1.41507e-08
-1.29627e-10
1.43561e-08
-2.0459e-10
1.46617e-08
-3.04516e-10
1.50617e-08
-3.98592e-10
1.55196e-08
-4.55695e-10
1.59414e-08
-4.18673e-10
1.62194e-08
-2.73388e-10
1.63194e-08
-9.40255e-11
1.63388e-08
-1.17027e-11
1.64674e-08
-1.18817e-10
1.6801e-08
-3.21612e-10
1.71933e-08
-3.77623e-10
1.73577e-08
-1.46761e-10
1.71128e-08
2.6547e-10
1.66295e-08
5.06514e-10
1.62697e-08
3.85514e-10
1.62369e-08
6.1041e-11
1.62683e-08
-7.67233e-13
1.59947e-08
3.06619e-10
1.54444e-08
5.854e-10
1.50851e-08
3.96209e-10
1.52338e-08
-1.10432e-10
1.55081e-08
-2.34814e-10
1.5479e-08
6.97517e-11
1.54401e-08
8.06339e-11
1.58517e-08
-3.69109e-10
1.64537e-08
-5.59332e-10
1.65544e-08
-5.79981e-11
1.63047e-08
2.92118e-10
1.618e-08
1.66734e-10
1.57541e-08
4.66137e-10
1.53916e-08
3.98002e-10
1.36372e-09
-2.27317e-05
1.26313e-07
-2.30477e-05
7.4498e-07
-2.3377e-05
7.19176e-07
-2.37569e-05
6.97659e-07
-2.40784e-05
6.69477e-07
-2.43683e-05
5.84975e-07
-2.46359e-05
5.31994e-07
-2.48847e-05
4.81599e-07
-2.51062e-05
4.20231e-07
-2.53018e-05
3.75381e-07
-2.54808e-05
3.53184e-07
-2.56358e-05
3.12031e-07
-2.57656e-05
2.66469e-07
-2.58723e-05
2.1196e-07
-2.59578e-05
1.42335e-07
-2.60281e-05
9.64951e-08
-2.60679e-05
5.81004e-08
-2.60895e-05
4.06917e-08
-2.60872e-05
5.45396e-08
-2.60627e-05
3.83963e-08
-2.60003e-05
-6.70419e-08
-2.5929e-05
-1.92401e-07
-2.58552e-05
-2.21855e-07
-2.57558e-05
-1.6995e-07
-2.56236e-05
-1.5892e-07
-2.54754e-05
-2.30314e-07
-2.53057e-05
-3.21282e-07
-2.51254e-05
-3.93334e-07
-2.49732e-05
-2.87987e-07
-2.48613e-05
-1.9135e-07
-2.47494e-05
-3.04303e-07
-2.45417e-05
-5.17893e-07
-2.42111e-05
-6.14391e-07
-2.3851e-05
-5.43607e-07
-2.35563e-05
-4.45399e-07
-2.33535e-05
-4.43715e-07
-2.31204e-05
-6.44847e-07
-2.28132e-05
-6.85006e-07
-2.24379e-05
-6.03998e-07
-2.20718e-05
-6.15804e-07
-2.18033e-05
-4.76604e-07
-2.14945e-05
-6.23989e-07
-2.10926e-05
-8.86279e-07
-2.06705e-05
-8.59418e-07
-2.02696e-05
-6.83787e-07
-1.99269e-05
-6.59758e-07
-1.95817e-05
-7.93747e-07
-1.92329e-05
-7.9456e-07
-1.88576e-05
-7.33555e-07
-1.84601e-05
-7.64722e-07
-1.80507e-05
-8.34439e-07
-1.7637e-05
-9.01936e-07
-1.72214e-05
-8.76566e-07
-1.67979e-05
-8.51898e-07
-1.63632e-05
-8.49982e-07
-1.59279e-05
-8.73798e-07
-1.54821e-05
-8.9088e-07
-1.50717e-05
-7.77315e-07
-1.47133e-05
-6.95059e-07
-1.43228e-05
-7.5281e-07
-1.38821e-05
-8.70856e-07
-1.34679e-05
-8.58229e-07
-1.3132e-05
-6.51777e-07
-1.28106e-05
-6.47407e-07
-1.24355e-05
-7.28633e-07
-1.20085e-05
-8.55197e-07
-1.15984e-05
-8.68728e-07
-1.11685e-05
-8.1503e-07
-1.07365e-05
-8.32404e-07
-1.03689e-05
-7.9749e-07
-1.00046e-05
-7.66953e-07
-9.5652e-06
-8.61739e-07
-9.11143e-06
-9.12143e-07
-8.69272e-06
-1.0492e-06
-8.27147e-06
-1.0416e-06
-7.87323e-06
-1.17219e-06
-7.55446e-06
-1.32989e-06
-7.34919e-06
-1.43087e-06
-6.83965e-06
-1.4725e-06
-5.91291e-06
-1.43282e-06
-4.76238e-06
-1.3741e-06
-3.75589e-06
-1.04037e-06
-3.15947e-06
-6.16633e-07
-2.83342e-06
-3.83716e-07
-2.67142e-06
-2.0269e-07
-2.58023e-06
-1.87387e-07
-2.52997e-06
-1.71725e-07
-2.51602e-06
-8.56492e-08
-2.48617e-06
-9.37298e-08
-2.4129e-06
-1.23565e-07
-2.30232e-06
-1.89056e-07
-2.2192e-06
-1.73917e-07
-2.14109e-06
-1.81798e-07
-2.0629e-06
-1.74708e-07
-1.98969e-06
-1.82338e-07
-1.91139e-06
-2.11062e-07
-1.83982e-06
-2.7225e-07
-1.7708e-06
-3.06997e-07
-1.72378e-06
-3.41467e-07
-1.59865e-06
-3.60589e-07
-1.38843e-06
-3.19893e-07
-1.10679e-06
-3.22057e-07
-8.7094e-07
-2.36143e-07
-7.51526e-07
-1.43148e-07
-6.61255e-07
-7.57393e-08
-6.17935e-07
-2.75976e-08
-5.93712e-07
-3.94412e-08
-5.93267e-07
-2.21714e-08
-6.28144e-07
2.66716e-08
-6.61501e-07
3.5741e-08
-6.55214e-07
-8.75733e-09
-6.50513e-07
-4.50335e-09
-6.44754e-07
-2.10366e-08
-6.45781e-07
-3.32636e-08
-6.60297e-07
-5.82675e-08
-6.72825e-07
-9.53239e-08
-7.02824e-07
-1.42234e-07
-6.86287e-07
-1.41541e-07
-6.02329e-07
-1.08451e-07
-4.39131e-07
-1.43456e-07
-3.056e-07
-7.48809e-08
-2.80631e-07
1.81607e-08
-2.82789e-07
8.77981e-08
-3.16431e-07
1.1278e-07
-3.63662e-07
9.91569e-08
-4.54409e-07
1.4702e-07
-5.38102e-07
1.37006e-07
-5.92151e-07
1.15365e-07
-6.49944e-07
1.26509e-07
-7.06857e-07
1.19101e-07
-7.65897e-07
1.1368e-07
-8.31362e-07
1.29647e-07
-8.96891e-07
1.31073e-07
-9.59629e-07
1.27758e-07
-1.02224e-06
1.23996e-07
-1.08633e-06
1.24574e-07
-1.15392e-06
1.36662e-07
-1.2199e-06
1.34324e-07
-1.28689e-06
1.34197e-07
-1.3546e-06
1.30758e-07
-1.42477e-06
1.39766e-07
-1.49241e-06
1.36721e-07
-1.55943e-06
1.34785e-07
-1.6293e-06
1.37486e-07
-1.6985e-06
1.38266e-07
-1.76495e-06
1.3402e-07
-1.83076e-06
1.30987e-07
-1.89797e-06
1.30743e-07
-1.96554e-06
1.35061e-07
-2.03028e-06
1.30826e-07
-2.09402e-06
1.29213e-07
-2.158e-06
1.28791e-07
-2.21942e-06
1.21416e-07
-2.27971e-06
1.1804e-07
-2.33994e-06
1.2183e-07
-2.3997e-06
1.21064e-07
-2.45706e-06
1.16558e-07
-2.51263e-06
1.10896e-07
-2.56726e-06
1.08921e-07
-2.62193e-06
1.11171e-07
-2.67549e-06
1.08929e-07
-2.72721e-06
1.04135e-07
-2.7769e-06
9.93509e-08
-2.82586e-06
9.99737e-08
-2.87505e-06
9.94297e-08
-2.92323e-06
9.70876e-08
-2.96856e-06
9.07234e-08
-3.01255e-06
8.88532e-08
-3.05649e-06
8.85421e-08
-3.10053e-06
8.78876e-08
-3.14139e-06
8.2147e-08
-3.1807e-06
7.80712e-08
-3.21934e-06
7.66127e-08
-3.25826e-06
7.66915e-08
-3.29379e-06
7.09362e-08
-3.32817e-06
6.81597e-08
-3.36208e-06
6.59393e-08
-3.39432e-06
6.30384e-08
-3.42471e-06
5.97516e-08
-3.45368e-06
5.68397e-08
-3.48156e-06
5.42773e-08
-3.50797e-06
5.10709e-08
-3.53295e-06
4.81757e-08
-3.55648e-06
4.54146e-08
-3.57828e-06
4.20799e-08
-3.59829e-06
3.84587e-08
-3.6166e-06
3.50453e-08
-3.63341e-06
3.26373e-08
-3.64876e-06
2.98505e-08
-3.66259e-06
2.67852e-08
-3.67497e-06
2.32587e-08
-3.68606e-06
2.10121e-08
-3.69546e-06
1.79978e-08
-3.70295e-06
1.45376e-08
-3.70893e-06
1.1594e-08
-3.71345e-06
8.64934e-09
-3.71695e-06
6.47064e-09
-3.71876e-06
3.36021e-09
-3.71913e-06
4.97776e-10
-3.71813e-06
-2.41667e-09
-3.71561e-06
-5.13983e-09
-3.71177e-06
-7.70943e-09
-3.70679e-06
-1.01113e-08
-3.70042e-06
-1.28434e-08
-3.69265e-06
-1.56018e-08
-3.68359e-06
-1.81828e-08
-3.67352e-06
-2.05556e-08
-3.66287e-06
-2.16748e-08
-3.65039e-06
-2.49831e-08
-3.63685e-06
-2.72506e-08
-3.62229e-06
-2.96082e-08
-3.60661e-06
-3.1539e-08
-3.58978e-06
-3.36957e-08
-3.57184e-06
-3.58481e-08
-3.55279e-06
-3.80238e-08
-3.53273e-06
-4.02957e-08
-3.51172e-06
-4.16917e-08
-3.48975e-06
-4.35259e-08
-3.46694e-06
-4.52729e-08
-3.4433e-06
-4.69913e-08
-3.41876e-06
-4.89014e-08
-3.39339e-06
-5.09863e-08
-3.36718e-06
-5.22159e-08
-3.34016e-06
-5.36595e-08
-3.31247e-06
-5.50153e-08
-3.28404e-06
-5.64624e-08
-3.2549e-06
-5.79465e-08
-3.22507e-06
-5.93479e-08
-3.19465e-06
-6.05571e-08
-3.16362e-06
-6.1744e-08
-3.13203e-06
-6.29404e-08
-3.09992e-06
-6.40499e-08
-3.06731e-06
-6.50581e-08
-3.03422e-06
-6.6052e-08
-3.00065e-06
-6.69935e-08
-2.96668e-06
-6.7808e-08
-2.93232e-06
-6.85357e-08
-2.89761e-06
-6.92752e-08
-2.86265e-06
-6.99192e-08
-2.82758e-06
-7.02606e-08
-2.79212e-06
-7.08596e-08
-2.75635e-06
-7.14054e-08
-2.72042e-06
-7.17863e-08
-2.68429e-06
-7.21545e-08
-2.64799e-06
-7.24713e-08
-2.61154e-06
-7.27392e-08
-2.57499e-06
-7.29402e-08
-2.53842e-06
-7.30404e-08
-2.50179e-06
-7.31935e-08
-2.46512e-06
-7.32376e-08
-2.42844e-06
-7.32124e-08
-2.39178e-06
-7.31414e-08
-2.35515e-06
-7.30469e-08
-2.31857e-06
-7.28962e-08
-2.2821e-06
-7.26601e-08
-2.24577e-06
-7.24049e-08
-2.20957e-06
-7.21789e-08
-2.17358e-06
-7.18493e-08
-2.13777e-06
-7.15126e-08
-2.10216e-06
-7.1149e-08
-2.06675e-06
-7.07499e-08
-2.03154e-06
-7.03113e-08
-1.99655e-06
-6.98357e-08
-1.96178e-06
-6.9333e-08
-1.92728e-06
-6.88062e-08
-1.89306e-06
-6.82578e-08
-1.85914e-06
-6.76839e-08
-1.82554e-06
-6.70859e-08
-1.79224e-06
-6.64712e-08
-1.75927e-06
-6.58297e-08
-1.72665e-06
-6.51433e-08
-1.6944e-06
-6.4414e-08
-1.66252e-06
-6.3643e-08
-1.63104e-06
-6.28655e-08
-1.59994e-06
-6.21059e-08
-1.56921e-06
-6.13424e-08
-1.53886e-06
-6.05623e-08
-1.5089e-06
-5.97739e-08
-1.47931e-06
-5.89778e-08
-1.4501e-06
-5.81769e-08
-1.4213e-06
-5.73662e-08
-1.3929e-06
-5.65509e-08
-1.3649e-06
-5.57496e-08
-1.33731e-06
-5.49773e-08
-1.31011e-06
-5.42109e-08
-1.28331e-06
-5.34531e-08
-1.25688e-06
-5.26993e-08
-1.23085e-06
-5.19506e-08
-1.2052e-06
-5.12057e-08
-1.17993e-06
-5.04573e-08
-1.15506e-06
-4.96975e-08
-1.13059e-06
-4.89263e-08
-1.10651e-06
-4.81402e-08
-1.08284e-06
-4.73383e-08
-1.05956e-06
-4.65235e-08
-1.03669e-06
-4.56949e-08
-1.01423e-06
-4.48605e-08
-9.92174e-07
-4.40257e-08
-9.70526e-07
-4.31972e-08
-9.4928e-07
-4.2376e-08
-9.28434e-07
-4.15637e-08
-9.07981e-07
-4.07655e-08
-8.87916e-07
-3.9985e-08
-8.6823e-07
-3.92267e-08
-8.48915e-07
-3.84933e-08
-8.29964e-07
-3.77805e-08
-8.1137e-07
-3.70828e-08
-7.93129e-07
-3.6398e-08
-7.75235e-07
-3.57249e-08
-7.57685e-07
-3.50572e-08
-7.40476e-07
-3.43941e-08
-7.23605e-07
-3.37342e-08
-7.07068e-07
-3.30769e-08
-6.90862e-07
-3.24222e-08
-6.74984e-07
-3.1771e-08
-6.59431e-07
-3.11252e-08
-6.44198e-07
-3.04872e-08
-6.29282e-07
-2.98588e-08
-6.14675e-07
-2.92404e-08
-6.00374e-07
-2.86297e-08
-5.86376e-07
-2.80239e-08
-5.7268e-07
-2.74201e-08
-5.59288e-07
-2.68186e-08
-5.46199e-07
-2.62224e-08
-5.33408e-07
-2.5633e-08
-5.20906e-07
-2.50474e-08
-5.08689e-07
-2.4461e-08
-4.96753e-07
-2.38749e-08
-4.85097e-07
-2.33e-08
-4.7371e-07
-2.27495e-08
-4.6258e-07
-2.22276e-08
-4.51696e-07
-2.17276e-08
-4.41051e-07
-2.12437e-08
-4.30643e-07
-2.07802e-08
-4.20465e-07
-2.03438e-08
-4.10511e-07
-1.99273e-08
-4.00777e-07
-1.95101e-08
-3.91265e-07
-1.90795e-08
-3.81975e-07
-1.8643e-08
-3.72901e-07
-1.82147e-08
-3.64031e-07
-1.77961e-08
-3.55361e-07
-1.73791e-08
-3.46892e-07
-1.69633e-08
-3.38619e-07
-1.65613e-08
-3.30536e-07
-1.61824e-08
-3.22635e-07
-1.58219e-08
-3.14912e-07
-1.54726e-08
-3.07362e-07
-1.51361e-08
-2.99981e-07
-1.48143e-08
-2.92763e-07
-1.45006e-08
-2.85704e-07
-1.41875e-08
-2.78802e-07
-1.38758e-08
-2.72049e-07
-1.35661e-08
-2.65444e-07
-1.32541e-08
-2.58986e-07
-1.29403e-08
-2.5267e-07
-1.26368e-08
-2.46489e-07
-1.23557e-08
-2.40435e-07
-1.20955e-08
-2.34506e-07
-1.18469e-08
-2.28704e-07
-1.16052e-08
-2.23027e-07
-1.13713e-08
-2.17473e-07
-1.11421e-08
-2.1204e-07
-1.09092e-08
-2.06727e-07
-1.0668e-08
-2.0153e-07
-1.04233e-08
-1.96446e-07
-1.0184e-08
-1.91468e-07
-9.95614e-09
-1.86592e-07
-9.74105e-09
-1.81811e-07
-9.54012e-09
-1.77122e-07
-9.35492e-09
-1.72522e-07
-9.18411e-09
-1.68008e-07
-9.02076e-09
-1.6358e-07
-8.85536e-09
-1.5924e-07
-8.6824e-09
-1.54989e-07
-8.50501e-09
-1.50823e-07
-8.33149e-09
-1.46736e-07
-8.16557e-09
-1.42724e-07
-8.00376e-09
-1.38788e-07
-7.84478e-09
-1.3493e-07
-7.69514e-09
-1.31148e-07
-7.55828e-09
-1.27442e-07
-7.42546e-09
-1.23816e-07
-7.28472e-09
-1.2027e-07
-7.13209e-09
-1.16802e-07
-6.97117e-09
-1.13406e-07
-6.80836e-09
-1.10078e-07
-6.65238e-09
-1.06812e-07
-6.51079e-09
-1.03606e-07
-6.38288e-09
-1.00462e-07
-6.2613e-09
-9.73853e-08
-6.13791e-09
-9.43817e-08
-6.0056e-09
-9.14544e-08
-5.86095e-09
-8.86018e-08
-5.70761e-09
-8.58193e-08
-5.55262e-09
-8.31013e-08
-5.40293e-09
-8.04427e-08
-5.26528e-09
-7.78408e-08
-5.14402e-09
-7.52959e-08
-5.03924e-09
-7.28098e-08
-4.94339e-09
-7.03844e-08
-4.84364e-09
-6.80202e-08
-4.73248e-09
-6.57133e-08
-4.61698e-09
-6.34547e-08
-4.51091e-09
-6.12407e-08
-4.4099e-09
-5.90766e-08
-4.30557e-09
-5.69671e-08
-4.20743e-09
-5.49164e-08
-4.11192e-09
-5.29216e-08
-4.01482e-09
-5.0977e-08
-3.91306e-09
-4.90787e-08
-3.80814e-09
-4.72222e-08
-3.70974e-09
-4.54079e-08
-3.62114e-09
-4.36304e-08
-3.54929e-09
-4.18995e-08
-3.46668e-09
-4.02138e-08
-3.38154e-09
-3.857e-08
-3.30054e-09
-3.69685e-08
-3.21046e-09
-3.54145e-08
-3.11675e-09
-3.39008e-08
-3.04337e-09
-3.24498e-08
-2.94528e-09
-3.10355e-08
-2.85169e-09
-2.96158e-08
-2.80283e-09
-2.82338e-08
-2.68711e-09
-2.68431e-08
-2.64906e-09
-2.55074e-08
-2.62283e-09
-2.41323e-08
-2.61919e-09
-2.27798e-08
-2.62509e-09
-2.15129e-08
-2.51775e-09
-2.02987e-08
-2.5027e-09
-1.91497e-08
-2.43988e-09
-1.79885e-08
-2.37023e-09
-1.68542e-08
-2.36336e-09
-1.57446e-08
-2.28465e-09
-1.4661e-08
-2.2249e-09
-1.36179e-08
-2.10758e-09
-1.26078e-08
-2.02831e-09
-1.16319e-08
-1.96756e-09
-1.0686e-08
-1.9048e-09
-9.75412e-09
-1.90214e-09
-8.86789e-09
-1.79199e-09
-8.03825e-09
-1.63059e-09
-7.20768e-09
-1.60671e-09
-6.41421e-09
-1.54757e-09
-5.61663e-09
-1.56806e-09
-4.85202e-09
-1.49036e-09
-4.1137e-09
-1.44095e-09
-3.37556e-09
-1.45731e-09
-2.66384e-09
-1.44784e-09
-1.9967e-09
-1.41343e-09
-1.39587e-09
-1.2637e-09
-7.31241e-10
-1.34849e-09
-1.49129e-10
-1.16792e-09
3.77906e-10
-1.07673e-09
9.16907e-10
-9.922e-10
1.46373e-09
-1.03249e-09
1.96552e-09
-1.00981e-09
2.49953e-09
-9.23385e-10
2.9171e-09
-8.93794e-10
3.0556e-09
-6.19932e-10
3.29102e-09
-6.26465e-10
3.53285e-09
-5.76388e-10
3.71773e-09
-2.49203e-10
4.89004e-09
-1.33901e-09
5.55856e-09
-8.21601e-10
7.07423e-09
-1.59966e-09
8.19025e-09
-1.9591e-09
9.22512e-09
-1.4771e-09
1.01312e-08
-2.5244e-09
1.02141e-08
-1.57348e-09
1.04966e-08
-1.1232e-09
1.06881e-08
-9.63399e-10
1.07817e-08
-5.67812e-10
1.08381e-08
-3.81435e-10
1.08502e-08
-2.45373e-10
1.08087e-08
-5.91572e-11
1.07632e-08
6.71282e-11
1.07372e-08
1.12363e-10
1.0717e-08
1.62177e-10
1.06709e-08
2.33492e-10
1.05962e-08
2.63381e-10
1.04959e-08
2.38439e-10
1.03711e-08
2.20951e-10
1.02205e-08
2.32102e-10
1.00762e-08
2.41116e-10
9.96418e-09
2.18526e-10
9.90155e-09
1.50664e-10
9.88327e-09
6.84689e-11
9.89711e-09
-8.20459e-12
9.91021e-09
-3.23572e-11
9.89412e-09
8.60968e-12
9.84631e-09
7.41442e-11
9.7613e-09
1.64055e-10
9.66033e-09
2.29878e-10
9.56089e-09
2.63551e-10
9.48087e-09
2.60076e-10
9.43526e-09
2.23233e-10
9.43481e-09
1.57468e-10
9.48163e-09
6.73661e-11
9.56584e-09
-4.10547e-11
9.6851e-09
-1.88252e-10
9.87331e-09
-3.65473e-10
1.00983e-08
-5.25122e-10
1.03649e-08
-6.77231e-10
1.06756e-08
-8.08281e-10
1.10276e-08
-9.06694e-10
1.14176e-08
-9.71014e-10
1.18367e-08
-1.00061e-09
1.22693e-08
-9.95501e-10
1.26908e-08
-9.49675e-10
1.30728e-08
-8.55422e-10
1.33916e-08
-7.13642e-10
1.36421e-08
-5.47235e-10
1.38369e-08
-3.96661e-10
1.40111e-08
-2.91151e-10
1.41868e-08
-2.51501e-10
1.43724e-08
-2.63777e-10
1.45664e-08
-3.15731e-10
1.47784e-08
-4.10773e-10
1.50268e-08
-5.49419e-10
1.53343e-08
-7.05273e-10
1.5677e-08
-8.00878e-10
1.59962e-08
-7.4411e-10
1.62396e-08
-5.27272e-10
1.64108e-08
-2.80403e-10
1.65743e-08
-1.95201e-10
1.67589e-08
-3.28352e-10
1.69385e-08
-5.31005e-10
1.69925e-08
-4.66305e-10
1.68586e-08
-5.23886e-11
1.66196e-08
4.60111e-10
1.64782e-08
5.99151e-10
1.65343e-08
2.76438e-10
1.65999e-08
-6.12075e-11
1.64102e-08
1.29141e-10
1.60385e-08
6.15811e-10
1.58335e-08
7.25334e-10
1.59548e-08
2.07658e-10
1.60262e-08
-2.50962e-10
1.58131e-08
-9.20853e-11
1.56446e-08
1.67091e-10
1.5849e-08
-1.95327e-10
1.59277e-08
-5.19645e-10
1.56143e-08
-3.17908e-10
1.53617e-08
1.23297e-10
1.52263e-08
3.58073e-10
1.50322e-08
2.93915e-10
1.4922e-08
5.12622e-10
1.50477e-08
2.15948e-10
2.3616e-09
-2.29705e-05
4.89291e-07
-2.34104e-05
1.17898e-06
-2.3805e-05
1.11452e-06
-2.41734e-05
1.06963e-06
-2.44657e-05
9.66485e-07
-2.4747e-05
8.69516e-07
-2.49984e-05
7.91263e-07
-2.52319e-05
7.30142e-07
-2.54463e-05
6.46132e-07
-2.56527e-05
5.87717e-07
-2.58322e-05
5.39934e-07
-2.59855e-05
4.76179e-07
-2.61094e-05
3.99302e-07
-2.62142e-05
3.18993e-07
-2.63083e-05
2.36922e-07
-2.63769e-05
1.66314e-07
-2.64238e-05
1.03327e-07
-2.64468e-05
5.74344e-08
-2.6419e-05
1.65782e-08
-2.63437e-05
-4.7516e-08
-2.62726e-05
-1.47685e-07
-2.62319e-05
-2.43534e-07
-2.61799e-05
-2.87209e-07
-2.60469e-05
-3.18553e-07
-2.58475e-05
-3.7309e-07
-2.56578e-05
-4.32104e-07
-2.54899e-05
-4.98851e-07
-2.53516e-05
-5.40498e-07
-2.51573e-05
-4.91863e-07
-2.49147e-05
-4.44078e-07
-2.47327e-05
-4.95381e-07
-2.458e-05
-6.77681e-07
-2.43355e-05
-8.63864e-07
-2.39723e-05
-9.09124e-07
-2.3631e-05
-7.87283e-07
-2.33293e-05
-7.47314e-07
-2.31086e-05
-8.69986e-07
-2.28389e-05
-9.60158e-07
-2.2417e-05
-1.03067e-06
-2.20401e-05
-9.95557e-07
-2.16449e-05
-8.72667e-07
-2.12831e-05
-9.84943e-07
-2.0995e-05
-1.17225e-06
-2.06599e-05
-1.19161e-06
-2.02396e-05
-1.10055e-06
-1.98498e-05
-1.04553e-06
-1.95252e-05
-1.1137e-06
-1.92035e-05
-1.11083e-06
-1.88156e-05
-1.11508e-06
-1.84304e-05
-1.14279e-06