/*--------------------------------*- C++ -*----------------------------------*\
| =========                 |                                                 |
| \\      /  F ield         | OpenFOAM: The Open Source CFD Toolbox           |
|  \\    /   O peration     | Version:  v2006                                 |
|   \\  /    A nd           | Website:  www.openfoam.com                      |
|    \\/     M anipulation  |                                                 |
\*---------------------------------------------------------------------------*/
FoamFile
{
    version     2.0;
    format      ascii;
    class       volVectorField;
    location    "2";
    object      U;
}
// * * * * * * * * * * * * * * * * * * * * * * * * * * * * * * * * * * * * * //

dimensions      [0 1 -1 0 0 0 0];


internalField   nonuniform List<vector> 
33000
(
(-0.0522569 0 -0.000403809)
(-0.0600812 0 0.00100415)
(-0.0568357 0 0.000807029)
(-0.0581417 0 0.000594727)
(-0.0588862 0 0.000761982)
(-0.0597468 0 0.000615762)
(-0.0604407 0 0.000563385)
(-0.0610995 0 0.000504627)
(-0.0616519 0 0.000427204)
(-0.0621506 0 0.000387237)
(-0.0626259 0 0.000382771)
(-0.0630616 0 0.00035732)
(-0.0634565 0 0.000320477)
(-0.0637936 0 0.000253888)
(-0.0640017 0 0.000124222)
(-0.0641112 0 6.37072e-05)
(-0.0641706 0 5.96967e-05)
(-0.0642276 0 6.13517e-05)
(-0.0643505 0 0.000145769)
(-0.0645241 0 0.000176378)
(-0.0645886 0 -1.70576e-05)
(-0.064355 0 -0.000299856)
(-0.0639877 0 -0.000319916)
(-0.0637582 0 -0.000120085)
(-0.0636655 0 -4.02554e-05)
(-0.0635099 0 -0.000179247)
(-0.0631745 0 -0.000341103)
(-0.0626724 0 -0.000468587)
(-0.0622547 0 -0.000296171)
(-0.0620336 0 -0.000187444)
(-0.0616655 0 -0.000439185)
(-0.0609815 0 -0.000631636)
(-0.0602505 0 -0.000504753)
(-0.0597212 0 -0.000271138)
(-0.0593497 0 -0.000285426)
(-0.0588375 0 -0.000542004)
(-0.0579351 0 -0.000883618)
(-0.0569666 0 -0.000744894)
(-0.0562723 0 -0.000351215)
(-0.0556853 0 -0.000458029)
(-0.0551385 0 -0.000419599)
(-0.0544634 0 -0.000630358)
(-0.0533764 0 -0.000968372)
(-0.0522333 0 -0.000832378)
(-0.0514032 0 -0.000507213)
(-0.0506472 0 -0.000632353)
(-0.0496289 0 -0.000918949)
(-0.0485168 0 -0.000888508)
(-0.0475567 0 -0.000683131)
(-0.0466653 0 -0.000708759)
(-0.0456517 0 -0.000846903)
(-0.0444906 0 -0.000981648)
(-0.0433066 0 -0.000914275)
(-0.0421969 0 -0.000835563)
(-0.0411417 0 -0.00080464)
(-0.0400564 0 -0.000857043)
(-0.0389351 0 -0.00086217)
(-0.0379259 0 -0.000698522)
(-0.0370591 0 -0.000649417)
(-0.0361743 0 -0.000699408)
(-0.0351547 0 -0.000835232)
(-0.0340541 0 -0.000869337)
(-0.0331233 0 -0.000619858)
(-0.032319 0 -0.000642882)
(-0.0314478 0 -0.000692638)
(-0.0304417 0 -0.000838041)
(-0.0293159 0 -0.000906356)
(-0.0282589 0 -0.000745655)
(-0.0272559 0 -0.000796771)
(-0.0261952 0 -0.000885344)
(-0.0251424 0 -0.00082202)
(-0.0240986 0 -0.00085002)
(-0.0229764 0 -0.000956015)
(-0.0216047 0 -0.00138653)
(-0.0200328 0 -0.00142253)
(-0.0182164 0 -0.00184297)
(-0.01574 0 -0.00253267)
(-0.013952 0 -0.00307791)
(-0.0096942 0 -0.00133247)
(-0.00837092 0 -3.65088e-05)
(-0.00763088 0 0.000540164)
(-0.00716292 0 0.000614839)
(-0.0073412 0 1.29727e-05)
(-0.00712064 0 -0.000458934)
(-0.00701669 0 -0.000331742)
(-0.00689764 0 -0.000320497)
(-0.00653483 0 -0.000173987)
(-0.0063006 0 -2.38302e-05)
(-0.00614435 0 1.63422e-05)
(-0.00601056 0 -2.56532e-05)
(-0.00587225 0 -0.000143828)
(-0.00564758 0 -0.000216455)
(-0.00541089 0 -0.000221781)
(-0.00514349 0 -0.000206318)
(-0.00493695 0 -0.000230828)
(-0.00459215 0 -0.00032427)
(-0.00429404 0 -0.000538677)
(-0.00357384 0 -0.000643952)
(-0.00312749 0 -0.000874169)
(-0.0021019 0 -0.000517923)
(-0.00193735 0 3.10312e-05)
(-0.00158231 0 0.000364191)
(-0.00171616 0 0.000334379)
(-0.00159127 0 -8.74637e-05)
(-0.00159099 0 -0.000125455)
(-0.00167098 0 -0.000133338)
(-0.00166531 0 -4.18097e-05)
(-0.00159798 0 -3.70366e-05)
(-0.00155558 0 6.24247e-05)
(-0.00155937 0 6.52101e-05)
(-0.0015634 0 1.25532e-05)
(-0.00154898 0 -1.31864e-05)
(-0.00156878 0 -6.90158e-05)
(-0.00145704 0 -0.000116857)
(-0.00142031 0 -0.000241464)
(-0.00106352 0 -0.000336097)
(-0.000909004 0 -0.00058629)
(-0.000194847 0 -0.000323986)
(-0.00026827 0 0.00011493)
(-9.95212e-05 0 0.000408094)
(-0.000352334 0 0.000419704)
(-0.000404713 0 8.23012e-05)
(-0.000574511 0 6.15192e-05)
(-0.000834722 0 3.64078e-05)
(-0.000973517 0 0.000104597)
(-0.00110426 0 0.000135631)
(-0.00125072 0 0.000145281)
(-0.00138117 0 0.000129728)
(-0.00155298 0 0.000131134)
(-0.001725 0 0.000106623)
(-0.0018587 0 0.000101615)
(-0.00200271 0 0.00012833)
(-0.00217153 0 0.00013503)
(-0.00233071 0 0.000130028)
(-0.00249233 0 0.000119427)
(-0.00263536 0 0.000112925)
(-0.00279788 0 0.000132816)
(-0.00297355 0 0.000133463)
(-0.0031436 0 0.000131347)
(-0.0033038 0 0.000121244)
(-0.00346732 0 0.000136597)
(-0.00364697 0 0.000137369)
(-0.00381753 0 0.000134864)
(-0.00398743 0 0.000132774)
(-0.00416039 0 0.000136383)
(-0.0043343 0 0.000134693)
(-0.00450217 0 0.000128787)
(-0.00466098 0 0.000123459)
(-0.00482586 0 0.000133105)
(-0.00499579 0 0.000131277)
(-0.00515874 0 0.000129729)
(-0.00532344 0 0.000127446)
(-0.00548064 0 0.000117083)
(-0.00562298 0 0.000111716)
(-0.00577084 0 0.000120774)
(-0.00592568 0 0.000119882)
(-0.0060751 0 0.000115786)
(-0.00621618 0 0.000106688)
(-0.00634766 0 0.000104093)
(-0.00648333 0 0.000109174)
(-0.00662165 0 0.000107066)
(-0.00675335 0 0.000100714)
(-0.00687528 0 9.46664e-05)
(-0.00699717 0 9.86975e-05)
(-0.00712156 0 9.71115e-05)
(-0.0072434 0 9.4201e-05)
(-0.00735875 0 8.74366e-05)
(-0.00746825 0 8.72549e-05)
(-0.00757895 0 8.71794e-05)
(-0.00768945 0 8.53243e-05)
(-0.0077962 0 8.11027e-05)
(-0.00789592 0 7.60692e-05)
(-0.00799172 0 7.48543e-05)
(-0.00808839 0 7.44375e-05)
(-0.00818214 0 7.0792e-05)
(-0.00827038 0 6.76308e-05)
(-0.00835544 0 6.37537e-05)
(-0.00843692 0 6.21057e-05)
(-0.0085157 0 5.95813e-05)
(-0.00859091 0 5.67499e-05)
(-0.00866278 0 5.38701e-05)
(-0.00873065 0 5.0315e-05)
(-0.00879441 0 4.73192e-05)
(-0.00885491 0 4.47395e-05)
(-0.00891177 0 4.16832e-05)
(-0.00896406 0 3.7928e-05)
(-0.0090113 0 3.43675e-05)
(-0.00905537 0 3.28058e-05)
(-0.00909661 0 3.01282e-05)
(-0.00913406 0 2.68085e-05)
(-0.00916609 0 2.2196e-05)
(-0.00919412 0 2.0054e-05)
(-0.00921947 0 1.76067e-05)
(-0.00924073 0 1.46437e-05)
(-0.00925794 0 1.16597e-05)
(-0.00927127 0 8.54995e-06)
(-0.00928111 0 6.09091e-06)
(-0.0092877 0 3.40011e-06)
(-0.0092905 0 5.06641e-07)
(-0.00928944 0 -2.64443e-06)
(-0.00928487 0 -4.85188e-06)
(-0.0092773 0 -7.243e-06)
(-0.00926659 0 -9.81506e-06)
(-0.00925257 0 -1.24899e-05)
(-0.00923513 0 -1.51296e-05)
(-0.0092145 0 -1.76975e-05)
(-0.00919019 0 -2.05621e-05)
(-0.00916385 0 -2.17384e-05)
(-0.00913514 0 -2.4298e-05)
(-0.00910275 0 -2.68337e-05)
(-0.00906712 0 -2.96306e-05)
(-0.00902872 0 -3.11021e-05)
(-0.00898825 0 -3.30157e-05)
(-0.00894504 0 -3.50997e-05)
(-0.0088993 0 -3.73052e-05)
(-0.00885018 0 -4.00022e-05)
(-0.00879896 0 -4.06831e-05)
(-0.00874631 0 -4.24212e-05)
(-0.00869102 0 -4.43022e-05)
(-0.00863342 0 -4.6133e-05)
(-0.00857343 0 -4.81937e-05)
(-0.00851027 0 -5.0838e-05)
(-0.00844503 0 -5.13814e-05)
(-0.00837888 0 -5.25434e-05)
(-0.00831099 0 -5.39432e-05)
(-0.00824135 0 -5.5457e-05)
(-0.00816981 0 -5.70428e-05)
(-0.00809631 0 -5.84822e-05)
(-0.00802118 0 -5.96725e-05)
(-0.00794459 0 -6.07925e-05)
(-0.00786647 0 -6.20302e-05)
(-0.00778688 0 -6.31386e-05)
(-0.00770605 0 -6.41174e-05)
(-0.00762404 0 -6.50378e-05)
(-0.0075409 0 -6.58555e-05)
(-0.00745674 0 -6.65247e-05)
(-0.00737177 0 -6.7095e-05)
(-0.00728595 0 -6.78104e-05)
(-0.00719908 0 -6.87317e-05)
(-0.00711137 0 -6.93716e-05)
(-0.00702308 0 -6.97547e-05)
(-0.00693416 0 -7.02574e-05)
(-0.00684459 0 -7.07134e-05)
(-0.00675451 0 -7.10512e-05)
(-0.00666404 0 -7.13091e-05)
(-0.00657325 0 -7.15189e-05)
(-0.00648218 0 -7.1717e-05)
(-0.00639088 0 -7.18975e-05)
(-0.00629938 0 -7.20672e-05)
(-0.00620781 0 -7.20668e-05)
(-0.00611634 0 -7.19458e-05)
(-0.00602504 0 -7.18354e-05)
(-0.00593386 0 -7.17171e-05)
(-0.0058428 0 -7.15163e-05)
(-0.00575198 0 -7.12529e-05)
(-0.00566144 0 -7.10655e-05)
(-0.00557107 0 -7.09672e-05)
(-0.00548097 0 -7.07625e-05)
(-0.00539123 0 -7.04999e-05)
(-0.00530187 0 -7.01495e-05)
(-0.00521293 0 -6.97082e-05)
(-0.00512448 0 -6.91945e-05)
(-0.00503662 0 -6.86533e-05)
(-0.00494941 0 -6.81321e-05)
(-0.00486292 0 -6.76393e-05)
(-0.00477714 0 -6.71459e-05)
(-0.00469209 0 -6.66205e-05)
(-0.00460776 0 -6.60613e-05)
(-0.00452415 0 -6.54624e-05)
(-0.00444129 0 -6.48359e-05)
(-0.00435924 0 -6.41767e-05)
(-0.00427803 0 -6.34533e-05)
(-0.00419777 0 -6.26668e-05)
(-0.00411848 0 -6.1904e-05)
(-0.00404013 0 -6.11529e-05)
(-0.00396273 0 -6.03993e-05)
(-0.00388633 0 -5.96324e-05)
(-0.00381095 0 -5.88414e-05)
(-0.00373659 0 -5.80198e-05)
(-0.00366326 0 -5.719e-05)
(-0.00359095 0 -5.6354e-05)
(-0.00351966 0 -5.5528e-05)
(-0.0034494 0 -5.47406e-05)
(-0.00338012 0 -5.4009e-05)
(-0.00331179 0 -5.32823e-05)
(-0.0032444 0 -5.25627e-05)
(-0.00317792 0 -5.18407e-05)
(-0.00311236 0 -5.11237e-05)
(-0.00304771 0 -5.04168e-05)
(-0.00298398 0 -4.971e-05)
(-0.00292117 0 -4.8993e-05)
(-0.00285931 0 -4.82585e-05)
(-0.00279842 0 -4.74961e-05)
(-0.00273852 0 -4.67038e-05)
(-0.00267965 0 -4.58813e-05)
(-0.00262183 0 -4.5032e-05)
(-0.00256509 0 -4.41789e-05)
(-0.00250941 0 -4.33289e-05)
(-0.0024548 0 -4.24923e-05)
(-0.00240123 0 -4.16641e-05)
(-0.0023487 0 -4.08422e-05)
(-0.0022972 0 -4.00314e-05)
(-0.00224671 0 -3.92421e-05)
(-0.00219719 0 -3.84848e-05)
(-0.00214862 0 -3.77634e-05)
(-0.00210095 0 -3.70755e-05)
(-0.00205415 0 -3.6408e-05)
(-0.00200821 0 -3.57577e-05)
(-0.0019631 0 -3.51227e-05)
(-0.00191881 0 -3.44905e-05)
(-0.00187534 0 -3.38579e-05)
(-0.0018327 0 -3.32217e-05)
(-0.00179088 0 -3.25806e-05)
(-0.00174988 0 -3.19359e-05)
(-0.00170971 0 -3.12927e-05)
(-0.00167036 0 -3.06557e-05)
(-0.00163182 0 -3.00283e-05)
(-0.00159408 0 -2.94115e-05)
(-0.00155711 0 -2.88032e-05)
(-0.00152091 0 -2.82004e-05)
(-0.00148546 0 -2.76044e-05)
(-0.00145077 0 -2.7019e-05)
(-0.00141682 0 -2.64482e-05)
(-0.00138359 0 -2.5889e-05)
(-0.00135109 0 -2.53278e-05)
(-0.00131931 0 -2.47479e-05)
(-0.00128828 0 -2.41438e-05)
(-0.001258 0 -2.35327e-05)
(-0.00122847 0 -2.29417e-05)
(-0.00119966 0 -2.23857e-05)
(-0.00117153 0 -2.18583e-05)
(-0.00114404 0 -2.13497e-05)
(-0.00111718 0 -2.08675e-05)
(-0.00109091 0 -2.043e-05)
(-0.00106519 0 -2.00383e-05)
(-0.00103997 0 -1.96631e-05)
(-0.00101524 0 -1.92683e-05)
(-0.000991039 0 -1.88484e-05)
(-0.000967378 0 -1.8427e-05)
(-0.000944257 0 -1.80168e-05)
(-0.000921669 0 -1.76037e-05)
(-0.000899627 0 -1.71719e-05)
(-0.000878146 0 -1.67314e-05)
(-0.000857213 0 -1.63096e-05)
(-0.000836784 0 -1.59197e-05)
(-0.000816816 0 -1.55538e-05)
(-0.000797287 0 -1.52066e-05)
(-0.000778179 0 -1.48856e-05)
(-0.000759466 0 -1.45919e-05)
(-0.000741128 0 -1.43091e-05)
(-0.000723167 0 -1.402e-05)
(-0.000705595 0 -1.37207e-05)
(-0.000688418 0 -1.34102e-05)
(-0.000671647 0 -1.30841e-05)
(-0.000655296 0 -1.27477e-05)
(-0.00063936 0 -1.24207e-05)
(-0.000623808 0 -1.21205e-05)
(-0.000608597 0 -1.18474e-05)
(-0.0005937 0 -1.15963e-05)
(-0.000579101 0 -1.13692e-05)
(-0.000564782 0 -1.11663e-05)
(-0.000550729 0 -1.09716e-05)
(-0.000536945 0 -1.07607e-05)
(-0.000523451 0 -1.05222e-05)
(-0.000510268 0 -1.02663e-05)
(-0.000497405 0 -1.00102e-05)
(-0.00048485 0 -9.76442e-06)
(-0.000472589 0 -9.53387e-06)
(-0.000460598 0 -9.32511e-06)
(-0.000448849 0 -9.14535e-06)
(-0.000437308 0 -8.99348e-06)
(-0.000425953 0 -8.85456e-06)
(-0.000414783 0 -8.70949e-06)
(-0.000403813 0 -8.54887e-06)
(-0.000393059 0 -8.37738e-06)
(-0.000382525 0 -8.20428e-06)
(-0.000372206 0 -8.03167e-06)
(-0.0003621 0 -7.85775e-06)
(-0.000352206 0 -7.6909e-06)
(-0.000342509 0 -7.54849e-06)
(-0.000332979 0 -7.43643e-06)
(-0.000323589 0 -7.33907e-06)
(-0.000314343 0 -7.23358e-06)
(-0.000305263 0 -7.10234e-06)
(-0.000296378 0 -6.93888e-06)
(-0.000287714 0 -6.75069e-06)
(-0.000279278 0 -6.55992e-06)
(-0.000271052 0 -6.38899e-06)
(-0.000263006 0 -6.24644e-06)
(-0.000255111 0 -6.1294e-06)
(-0.000247351 0 -6.02856e-06)
(-0.000239727 0 -5.92686e-06)
(-0.000232255 0 -5.80653e-06)
(-0.000224964 0 -5.65997e-06)
(-0.000217877 0 -5.49148e-06)
(-0.000211004 0 -5.31197e-06)
(-0.00020434 0 -5.13958e-06)
(-0.00019786 0 -4.9983e-06)
(-0.000191524 0 -4.90382e-06)
(-0.00018529 0 -4.84299e-06)
(-0.000179148 0 -4.7804e-06)
(-0.000173119 0 -4.69059e-06)
(-0.000167236 0 -4.57561e-06)
(-0.00016151 0 -4.45143e-06)
(-0.000155931 0 -4.32202e-06)
(-0.000150505 0 -4.19896e-06)
(-0.000145212 0 -4.11287e-06)
(-0.000140018 0 -4.05411e-06)
(-0.000134918 0 -3.98639e-06)
(-0.000129937 0 -3.88896e-06)
(-0.0001251 0 -3.76434e-06)
(-0.000120415 0 -3.64146e-06)
(-0.000115866 0 -3.53503e-06)
(-0.000111416 0 -3.46446e-06)
(-0.000107042 0 -3.39308e-06)
(-0.000102772 0 -3.33604e-06)
(-9.85911e-05 0 -3.26388e-06)
(-9.45151e-05 0 -3.1855e-06)
(-9.05659e-05 0 -3.06969e-06)
(-8.67247e-05 0 -3.00871e-06)
(-8.29274e-05 0 -2.90522e-06)
(-7.92684e-05 0 -2.8289e-06)
(-7.57433e-05 0 -2.72102e-06)
(-7.23393e-05 0 -2.6959e-06)
(-6.92067e-05 0 -2.52453e-06)
(-6.60472e-05 0 -2.48585e-06)
(-6.27308e-05 0 -2.12955e-06)
(-5.98348e-05 0 -2.15104e-06)
(-5.6422e-05 0 -2.36911e-06)
(-5.34756e-05 0 -2.58653e-06)
(-5.00906e-05 0 -2.75466e-06)
(-4.71629e-05 0 -2.41917e-06)
(-4.39418e-05 0 -2.51631e-06)
(-4.10712e-05 0 -2.37001e-06)
(-3.80996e-05 0 -2.30122e-06)
(-3.53739e-05 0 -2.11663e-06)
(-3.28117e-05 0 -2.00368e-06)
(-3.02971e-05 0 -1.94868e-06)
(-2.78818e-05 0 -1.8728e-06)
(-2.55147e-05 0 -1.93289e-06)
(-2.30414e-05 0 -1.7983e-06)
(-2.09844e-05 0 -1.59166e-06)
(-1.9002e-05 0 -1.53028e-06)
(-1.7094e-05 0 -1.48397e-06)
(-1.51681e-05 0 -1.4755e-06)
(-1.3214e-05 0 -1.35712e-06)
(-1.1517e-05 0 -1.33566e-06)
(-9.61476e-06 0 -1.38284e-06)
(-7.94529e-06 0 -1.46825e-06)
(-5.9145e-06 0 -1.55884e-06)
(-4.207e-06 0 -1.36411e-06)
(-2.54677e-06 0 -1.33271e-06)
(-8.45522e-07 0 -1.09792e-06)
(4.55891e-07 0 -1.00988e-06)
(1.84106e-06 0 -8.03084e-07)
(2.77707e-06 0 -8.7722e-07)
(4.22543e-06 0 -1.21235e-06)
(5.32697e-06 0 -7.07033e-07)
(6.13974e-06 0 -1.08826e-06)
(7.74838e-06 0 -7.78587e-07)
(8.48116e-06 0 -6.35622e-07)
(9.7308e-06 0 -5.57737e-07)
(1.01484e-05 0 -1.26316e-06)
(1.00697e-05 0 -8.65551e-07)
(1.08135e-05 0 -6.84444e-07)
(1.10089e-05 0 1.60456e-06)
(1.10676e-05 0 6.13533e-07)
(1.46462e-05 0 5.16082e-07)
(1.3819e-05 0 -2.8123e-06)
(2.10489e-05 0 -5.39138e-06)
(2.11814e-05 0 -1.67801e-06)
(2.38733e-05 0 -1.40519e-06)
(2.51855e-05 0 -6.45957e-07)
(2.59947e-05 0 -3.24119e-07)
(2.65403e-05 0 -2.21529e-07)
(2.68282e-05 0 -1.10902e-07)
(2.68092e-05 0 1.04277e-07)
(2.65706e-05 0 2.92491e-07)
(2.61983e-05 0 3.59077e-07)
(2.57075e-05 0 3.78455e-07)
(2.51565e-05 0 3.4942e-07)
(2.46774e-05 0 2.27918e-07)
(2.43289e-05 0 7.04792e-08)
(2.40531e-05 0 3.91135e-09)
(2.37779e-05 0 4.3211e-08)
(2.34747e-05 0 1.01463e-07)
(2.31844e-05 0 9.88033e-08)
(2.297e-05 0 3.66068e-08)
(2.28768e-05 0 -3.26782e-08)
(2.28813e-05 0 -6.92923e-08)
(2.29038e-05 0 -6.04821e-08)
(2.28767e-05 0 -1.29114e-08)
(2.27436e-05 0 5.92436e-08)
(2.24811e-05 0 1.39288e-07)
(2.21131e-05 0 2.10082e-07)
(2.16781e-05 0 2.62197e-07)
(2.12222e-05 0 2.92551e-07)
(2.07905e-05 0 2.9805e-07)
(2.04329e-05 0 2.60855e-07)
(2.0213e-05 0 1.71666e-07)
(2.02143e-05 0 4.83646e-10)
(2.05003e-05 0 -2.59181e-07)
(2.10786e-05 0 -5.55536e-07)
(2.19534e-05 0 -8.37753e-07)
(2.30854e-05 0 -1.06392e-06)
(2.43953e-05 0 -1.20244e-06)
(2.58141e-05 0 -1.25444e-06)
(2.7271e-05 0 -1.24049e-06)
(2.8713e-05 0 -1.18489e-06)
(3.00962e-05 0 -1.10281e-06)
(3.13737e-05 0 -9.89789e-07)
(3.24941e-05 0 -8.3467e-07)
(3.33934e-05 0 -6.33578e-07)
(3.40415e-05 0 -4.15841e-07)
(3.44599e-05 0 -2.30565e-07)
(3.47222e-05 0 -1.1387e-07)
(3.49364e-05 0 -9.73596e-08)
(3.5201e-05 0 -1.7944e-07)
(3.56134e-05 0 -3.43938e-07)
(3.6253e-05 0 -5.67996e-07)
(3.71427e-05 0 -8.05497e-07)
(3.82251e-05 0 -9.49595e-07)
(3.93337e-05 0 -8.7488e-07)
(4.02251e-05 0 -5.51509e-07)
(4.06886e-05 0 -1.46037e-07)
(4.08161e-05 0 9.04833e-08)
(4.09826e-05 0 -9.116e-08)
(4.15665e-05 0 -6.08944e-07)
(4.25099e-05 0 -8.85547e-07)
(4.32499e-05 0 -5.35641e-07)
(4.3164e-05 0 4.22008e-07)
(4.21867e-05 0 1.18943e-06)
(4.10589e-05 0 1.15155e-06)
(4.05766e-05 0 3.03664e-07)
(4.06588e-05 0 -1.37959e-07)
(4.04082e-05 0 4.05217e-07)
(3.93257e-05 0 1.28647e-06)
(3.80358e-05 0 1.23537e-06)
(3.77681e-05 0 -1.46961e-08)
(3.84672e-05 0 -6.67107e-07)
(3.87967e-05 0 -1.05368e-07)
(3.85686e-05 0 3.14917e-07)
(3.89973e-05 0 -7.37168e-07)
(4.04446e-05 0 -1.73133e-06)
(4.14026e-05 0 -5.49184e-07)
(4.10895e-05 0 6.67175e-07)
(4.06687e-05 0 2.68377e-07)
(3.91489e-05 0 1.09428e-06)
(4.3802e-05 0 1.28809e-06)
(2.51488e-05 0 2.74136e-06)
(-0.0547786 0 -0.000311144)
(-0.0607242 0 0.00228916)
(-0.057793 0 0.00214374)
(-0.0590678 0 0.00199903)
(-0.0597809 0 0.00207941)
(-0.0605859 0 0.00175378)
(-0.0612469 0 0.00160961)
(-0.0619041 0 0.00144634)
(-0.0624797 0 0.00124541)
(-0.0630032 0 0.00111969)
(-0.0634747 0 0.00107765)
(-0.0638933 0 0.000971867)
(-0.0642463 0 0.000844905)
(-0.0645412 0 0.000666867)
(-0.0647876 0 0.000398745)
(-0.0649846 0 0.000251962)
(-0.0651163 0 0.000168635)
(-0.0651939 0 0.000142987)
(-0.0652235 0 0.00026342)
(-0.0651876 0 0.000256256)
(-0.0650707 0 -0.000159036)
(-0.064911 0 -0.000684987)
(-0.0647341 0 -0.000751129)
(-0.0645173 0 -0.000433442)
(-0.0642205 0 -0.000342414)
(-0.0638697 0 -0.000640343)
(-0.0634728 0 -0.000981922)
(-0.0630286 0 -0.00123833)
(-0.0625859 0 -0.000806363)
(-0.0623273 0 -0.000530124)
(-0.0620548 0 -0.00103292)
(-0.0616427 0 -0.00168458)
(-0.0609142 0 -0.00174401)
(-0.0600183 0 -0.00134665)
(-0.059237 0 -0.0011206)
(-0.0586779 0 -0.00138528)
(-0.0581174 0 -0.00216618)
(-0.0574295 0 -0.00208268)
(-0.0565274 0 -0.00154214)
(-0.0556093 0 -0.00164923)
(-0.0548741 0 -0.00130563)
(-0.0541526 0 -0.0018691)
(-0.0532172 0 -0.00277)
(-0.0521819 0 -0.00252947)
(-0.0511569 0 -0.00182833)
(-0.0502637 0 -0.00192715)
(-0.0493892 0 -0.00249998)
(-0.0485238 0 -0.00245404)
(-0.0476149 0 -0.00211947)
(-0.0466488 0 -0.00221822)
(-0.0456351 0 -0.00250213)
(-0.0446086 0 -0.0027564)
(-0.0435744 0 -0.00262776)
(-0.042524 0 -0.00251472)
(-0.0414504 0 -0.00247866)
(-0.0403619 0 -0.0025671)
(-0.0392545 0 -0.00262413)
(-0.0381894 0 -0.00223359)
(-0.0372438 0 -0.00198969)
(-0.036304 0 -0.00216389)
(-0.0352411 0 -0.00257127)
(-0.0341725 0 -0.00258181)
(-0.0332624 0 -0.00186643)
(-0.0324455 0 -0.00188532)
(-0.0315641 0 -0.00211318)
(-0.0305464 0 -0.00255567)
(-0.0295046 0 -0.00262961)
(-0.0284576 0 -0.00234283)
(-0.0273762 0 -0.0024235)
(-0.0263864 0 -0.0024269)
(-0.0254784 0 -0.00231412)
(-0.0244591 0 -0.00256005)
(-0.0233351 0 -0.0027565)
(-0.0222478 0 -0.00343358)
(-0.0211783 0 -0.00343873)
(-0.0201198 0 -0.00419578)
(-0.0193652 0 -0.0050966)
(-0.0188456 0 -0.00556122)
(-0.017619 0 -0.00578542)
(-0.0157897 0 -0.00417978)
(-0.0140162 0 -0.00286477)
(-0.0101067 0 -0.00112576)
(-0.00833182 0 -0.000223446)
(-0.00753558 0 6.4565e-05)
(-0.00670872 0 8.3953e-05)
(-0.00658704 0 -0.000426074)
(-0.00634764 0 -0.000809228)
(-0.00629412 0 -0.000568541)
(-0.0062887 0 -0.000521801)
(-0.00614224 0 -0.000376518)
(-0.00590964 0 -0.000456914)
(-0.00562023 0 -0.000490077)
(-0.005463 0 -0.000579411)
(-0.00524554 0 -0.000553898)
(-0.00506913 0 -0.000626228)
(-0.00487775 0 -0.00071364)
(-0.00468083 0 -0.00102894)
(-0.00451841 0 -0.00121915)
(-0.00433065 0 -0.00142812)
(-0.00429956 0 -0.00133085)
(-0.00367716 0 -0.000891688)
(-0.00328128 0 -0.000689751)
(-0.00225127 0 -0.000341505)
(-0.0020913 0 -9.65653e-05)
(-0.00167804 0 0.000243548)
(-0.00161823 0 0.000268538)
(-0.00148404 0 -7.68613e-05)
(-0.00147516 0 -0.000132242)
(-0.00149623 0 -0.000134246)
(-0.00164587 0 -5.05007e-05)
(-0.00165827 0 -3.28774e-05)
(-0.00162126 0 1.26697e-05)
(-0.00162875 0 -5.0696e-05)
(-0.00159753 0 -0.000155952)
(-0.00163124 0 -0.000328)
(-0.00167266 0 -0.000516163)
(-0.0016854 0 -0.000766479)
(-0.00184364 0 -0.00066282)
(-0.00156714 0 -0.000304699)
(-0.00146612 0 -0.000259628)
(-0.000725116 0 3.58739e-05)
(-0.000792812 0 0.000260838)
(-0.000623887 0 0.000618934)
(-0.000779069 0 0.000596868)
(-0.000810329 0 0.00030374)
(-0.00100791 0 0.000307872)
(-0.0012665 0 0.000268522)
(-0.00141966 0 0.000350097)
(-0.00154544 0 0.00040563)
(-0.00170117 0 0.000382828)
(-0.00183543 0 0.000326043)
(-0.00199458 0 0.00037271)
(-0.00216291 0 0.000374957)
(-0.00232153 0 0.000377449)
(-0.00247732 0 0.000360859)
(-0.00263382 0 0.000362309)
(-0.0028001 0 0.00041006)
(-0.0029682 0 0.00040334)
(-0.00313297 0 0.000397178)
(-0.00330119 0 0.000376434)
(-0.00347405 0 0.000412301)
(-0.0036489 0 0.000407261)
(-0.00381352 0 0.000400052)
(-0.00398513 0 0.000402011)
(-0.00416164 0 0.00040983)
(-0.00433056 0 0.00039829)
(-0.00449438 0 0.000385255)
(-0.00466024 0 0.000378437)
(-0.00483055 0 0.000398553)
(-0.00499633 0 0.000388132)
(-0.00515529 0 0.000384421)
(-0.00531586 0 0.000381561)
(-0.00547328 0 0.000353886)
(-0.00562418 0 0.000341026)
(-0.00577469 0 0.000360736)
(-0.00592549 0 0.000358626)
(-0.00607238 0 0.000344734)
(-0.00621303 0 0.000323323)
(-0.00635014 0 0.000317286)
(-0.00648681 0 0.000328424)
(-0.00662277 0 0.000320942)
(-0.00675471 0 0.000304072)
(-0.00688109 0 0.00028915)
(-0.00700376 0 0.000295442)
(-0.00712617 0 0.000291869)
(-0.00724934 0 0.000285147)
(-0.00736629 0 0.000265535)
(-0.00747687 0 0.000261821)
(-0.00758606 0 0.000260828)
(-0.00769741 0 0.000258033)
(-0.00780421 0 0.000242835)
(-0.00790324 0 0.000229394)
(-0.00799995 0 0.000225091)
(-0.00809809 0 0.000225056)
(-0.00819185 0 0.000210491)
(-0.00827758 0 0.000201901)
(-0.00836352 0 0.000193436)
(-0.00844666 0 0.000185537)
(-0.00852479 0 0.00017719)
(-0.00859865 0 0.000168744)
(-0.0086698 0 0.00016041)
(-0.00873779 0 0.00015058)
(-0.00880193 0 0.000142359)
(-0.00886265 0 0.000134405)
(-0.00891942 0 0.000124308)
(-0.00897165 0 0.000113439)
(-0.00901946 0 0.000103373)
(-0.0090633 0 9.71684e-05)
(-0.00910345 0 8.87033e-05)
(-0.00914004 0 7.92597e-05)
(-0.00917259 0 6.77599e-05)
(-0.00920203 0 6.16531e-05)
(-0.00922792 0 5.3168e-05)
(-0.00924886 0 4.31074e-05)
(-0.00926564 0 3.45349e-05)
(-0.00927859 0 2.57249e-05)
(-0.00928871 0 1.90161e-05)
(-0.00929548 0 1.00312e-05)
(-0.00929806 0 1.57235e-06)
(-0.00929733 0 -7.29411e-06)
(-0.00929295 0 -1.48794e-05)
(-0.00928487 0 -2.2368e-05)
(-0.00927385 0 -2.96398e-05)
(-0.00925975 0 -3.76927e-05)
(-0.00924204 0 -4.57385e-05)
(-0.00922096 0 -5.33661e-05)
(-0.00919668 0 -6.09653e-05)
(-0.00917118 0 -6.40001e-05)
(-0.00914241 0 -7.33116e-05)
(-0.0091095 0 -8.0248e-05)
(-0.0090745 0 -8.77215e-05)
(-0.00903671 0 -9.29128e-05)
(-0.00899606 0 -9.90968e-05)
(-0.00895259 0 -0.000105409)
(-0.00890633 0 -0.000111889)
(-0.00885737 0 -0.000119129)
(-0.00880606 0 -0.000122428)
(-0.00875228 0 -0.000127812)
(-0.00869627 0 -0.000133087)
(-0.00863823 0 -0.000138308)
(-0.00857801 0 -0.000144174)
(-0.00851559 0 -0.00015101)
(-0.00845115 0 -0.000153825)
(-0.00838455 0 -0.000157783)
(-0.00831613 0 -0.000161794)
(-0.00824599 0 -0.000166176)
(-0.00817403 0 -0.000170778)
(-0.00810028 0 -0.000175003)
(-0.00802494 0 -0.000178568)
(-0.00794814 0 -0.000182042)
(-0.00786986 0 -0.000185605)
(-0.0077902 0 -0.000188861)
(-0.00770928 0 -0.000191789)
(-0.00762717 0 -0.000194656)
(-0.00754383 0 -0.000197292)
(-0.00745937 0 -0.000199626)
(-0.00737396 0 -0.000201682)
(-0.00728758 0 -0.000203912)
(-0.00720037 0 -0.00020612)
(-0.00711292 0 -0.000207312)
(-0.00702483 0 -0.000208778)
(-0.0069357 0 -0.000210307)
(-0.00684606 0 -0.000211575)
(-0.00675598 0 -0.000212683)
(-0.00666543 0 -0.000213605)
(-0.00657447 0 -0.000214367)
(-0.00648319 0 -0.00021499)
(-0.00639178 0 -0.000215369)
(-0.00630028 0 -0.000215824)
(-0.00620865 0 -0.000215871)
(-0.00611694 0 -0.000215674)
(-0.00602525 0 -0.000215395)
(-0.00593362 0 -0.000215078)
(-0.0058421 0 -0.000214592)
(-0.00575076 0 -0.000213889)
(-0.00565975 0 -0.000213254)
(-0.00556908 0 -0.00021276)
(-0.00547883 0 -0.000211926)
(-0.00538907 0 -0.000211009)
(-0.0052998 0 -0.000209936)
(-0.00521102 0 -0.000208696)
(-0.00512274 0 -0.00020731)
(-0.00503498 0 -0.00020583)
(-0.00494777 0 -0.00020432)
(-0.00486118 0 -0.000202793)
(-0.00477527 0 -0.000201231)
(-0.00469008 0 -0.00019959)
(-0.00460567 0 -0.000197871)
(-0.00452204 0 -0.000196082)
(-0.0044392 0 -0.000194203)
(-0.0043572 0 -0.000192192)
(-0.0042761 0 -0.00019002)
(-0.00419592 0 -0.000187701)
(-0.00411673 0 -0.000185397)
(-0.0040385 0 -0.000183151)
(-0.00396121 0 -0.000180896)
(-0.00388487 0 -0.00017859)
(-0.00380948 0 -0.000176241)
(-0.00373504 0 -0.000173847)
(-0.00366154 0 -0.000171437)
(-0.00358902 0 -0.000169009)
(-0.00351751 0 -0.000166583)
(-0.00344702 0 -0.000164221)
(-0.00337755 0 -0.000161976)
(-0.00330906 0 -0.000159746)
(-0.00324155 0 -0.000157549)
(-0.00317502 0 -0.00015536)
(-0.00310944 0 -0.000153186)
(-0.00304483 0 -0.000151031)
(-0.00298119 0 -0.000148868)
(-0.00291852 0 -0.000146668)
(-0.00285684 0 -0.000144422)
(-0.00279615 0 -0.000142111)
(-0.00273646 0 -0.000139732)
(-0.00267777 0 -0.000137297)
(-0.00262008 0 -0.000134808)
(-0.00256341 0 -0.000132309)
(-0.00250777 0 -0.000129811)
(-0.00245314 0 -0.000127337)
(-0.00239953 0 -0.000124886)
(-0.00234691 0 -0.00012246)
(-0.00229529 0 -0.000120076)
(-0.00224465 0 -0.000117753)
(-0.00219497 0 -0.000115511)
(-0.00214622 0 -0.000113355)
(-0.00209839 0 -0.000111275)
(-0.00205146 0 -0.000109245)
(-0.00200542 0 -0.000107257)
(-0.00196026 0 -0.000105307)
(-0.00191595 0 -0.00010337)
(-0.00187251 0 -0.000101438)
(-0.00182991 0 -9.95083e-05)
(-0.00178815 0 -9.75772e-05)
(-0.00174722 0 -9.56461e-05)
(-0.00170712 0 -9.37222e-05)
(-0.00166783 0 -9.18139e-05)
(-0.00162935 0 -8.99318e-05)
(-0.00159167 0 -8.80824e-05)
(-0.00155477 0 -8.6265e-05)
(-0.00151864 0 -8.44708e-05)
(-0.00148326 0 -8.26912e-05)
(-0.00144864 0 -8.09217e-05)
(-0.00141478 0 -7.91668e-05)
(-0.00138168 0 -7.74337e-05)
(-0.00134934 0 -7.57148e-05)
(-0.00131772 0 -7.39864e-05)
(-0.00128683 0 -7.2228e-05)
(-0.00125664 0 -7.04554e-05)
(-0.00122715 0 -6.87199e-05)
(-0.00119835 0 -6.70714e-05)
(-0.00117022 0 -6.55174e-05)
(-0.0011427 0 -6.40335e-05)
(-0.00111579 0 -6.26096e-05)
(-0.00108948 0 -6.12698e-05)
(-0.00106375 0 -6.00296e-05)
(-0.00103859 0 -5.88458e-05)
(-0.00101398 0 -5.76392e-05)
(-0.000989923 0 -5.63746e-05)
(-0.000966422 0 -5.50898e-05)
(-0.000943472 0 -5.38294e-05)
(-0.000921047 0 -5.25858e-05)
(-0.000899124 0 -5.13281e-05)
(-0.0008777 0 -5.00648e-05)
(-0.000856776 0 -4.88481e-05)
(-0.000836336 0 -4.77117e-05)
(-0.000816359 0 -4.66402e-05)
(-0.000796831 0 -4.56131e-05)
(-0.000777743 0 -4.46379e-05)
(-0.000759082 0 -4.37175e-05)
(-0.000740834 0 -4.28207e-05)
(-0.000722991 0 -4.19161e-05)
(-0.000705543 0 -4.1001e-05)
(-0.000688476 0 -4.00761e-05)
(-0.00067178 0 -3.91286e-05)
(-0.000655452 0 -3.81654e-05)
(-0.000639489 0 -3.72332e-05)
(-0.000623874 0 -3.63771e-05)
(-0.000608582 0 -3.55974e-05)
(-0.000593604 0 -3.48682e-05)
(-0.000578939 0 -3.41765e-05)
(-0.000564591 0 -3.35195e-05)
(-0.000550555 0 -3.28756e-05)
(-0.000536822 0 -3.22058e-05)
(-0.00052339 0 -3.14899e-05)
(-0.000510254 0 -3.07458e-05)
(-0.000497407 0 -3.00089e-05)
(-0.000484833 0 -2.93056e-05)
(-0.000472517 0 -2.86493e-05)
(-0.000460448 0 -2.80511e-05)
(-0.000448614 0 -2.75176e-05)
(-0.000437005 0 -2.70388e-05)
(-0.000425613 0 -2.65829e-05)
(-0.000414435 0 -2.61131e-05)
(-0.000403474 0 -2.56113e-05)
(-0.000392736 0 -2.50891e-05)
(-0.000382218 0 -2.45709e-05)
(-0.000371905 0 -2.40659e-05)
(-0.000361782 0 -2.35686e-05)
(-0.000351846 0 -2.30901e-05)
(-0.000342104 0 -2.2663e-05)
(-0.000332554 0 -2.22959e-05)
(-0.000323193 0 -2.19478e-05)
(-0.000314027 0 -2.15666e-05)
(-0.000305062 0 -2.11276e-05)
(-0.000296297 0 -2.06366e-05)
(-0.00028772 0 -2.01197e-05)
(-0.000279318 0 -1.96189e-05)
(-0.000271078 0 -1.91719e-05)
(-0.000262988 0 -1.87857e-05)
(-0.000255047 0 -1.84409e-05)
(-0.000247268 0 -1.81081e-05)
(-0.000239665 0 -1.77515e-05)
(-0.00023225 0 -1.73421e-05)
(-0.000225028 0 -1.68797e-05)
(-0.000217987 0 -1.63887e-05)
(-0.000211115 0 -1.5903e-05)
(-0.000204398 0 -1.54598e-05)
(-0.000197823 0 -1.50902e-05)
(-0.000191388 0 -1.48041e-05)
(-0.000185098 0 -1.45691e-05)
(-0.000178958 0 -1.43183e-05)
(-0.000172971 0 -1.40069e-05)
(-0.000167137 0 -1.36512e-05)
(-0.000161437 0 -1.33055e-05)
(-0.000155844 0 -1.29742e-05)
(-0.000150368 0 -1.26567e-05)
(-0.000145023 0 -1.23901e-05)
(-0.00013982 0 -1.21525e-05)
(-0.000134769 0 -1.18912e-05)
(-0.000129846 0 -1.15771e-05)
(-0.000125047 0 -1.12368e-05)
(-0.000120351 0 -1.09088e-05)
(-0.000115767 0 -1.06488e-05)
(-0.000111275 0 -1.04429e-05)
(-0.000106884 0 -1.02358e-05)
(-0.000102616 0 -9.98226e-06)
(-9.84627e-05 0 -9.75246e-06)
(-9.43883e-05 0 -9.45307e-06)
(-9.04616e-05 0 -9.20574e-06)
(-8.66154e-05 0 -8.99951e-06)
(-8.28917e-05 0 -8.83355e-06)
(-7.93556e-05 0 -8.4827e-06)
(-7.58453e-05 0 -8.18824e-06)
(-7.22301e-05 0 -7.63324e-06)
(-6.89344e-05 0 -7.40524e-06)
(-6.53373e-05 0 -7.59601e-06)
(-6.20969e-05 0 -7.50056e-06)
(-5.85792e-05 0 -7.70774e-06)
(-5.54263e-05 0 -7.42891e-06)
(-5.21052e-05 0 -7.59185e-06)
(-4.93849e-05 0 -7.45372e-06)
(-4.63889e-05 0 -7.10099e-06)
(-4.35463e-05 0 -7.1454e-06)
(-4.07352e-05 0 -6.86379e-06)
(-3.79888e-05 0 -6.65988e-06)
(-3.53217e-05 0 -6.23858e-06)
(-3.27707e-05 0 -5.98505e-06)
(-3.02738e-05 0 -5.83387e-06)
(-2.78847e-05 0 -5.65661e-06)
(-2.55496e-05 0 -5.69598e-06)
(-2.32238e-05 0 -5.34097e-06)
(-2.11236e-05 0 -4.74836e-06)
(-1.90566e-05 0 -4.61328e-06)
(-1.70102e-05 0 -4.47136e-06)
(-1.50224e-05 0 -4.57802e-06)
(-1.30679e-05 0 -4.34859e-06)
(-1.12313e-05 0 -4.22419e-06)
(-9.31787e-06 0 -4.32775e-06)
(-7.57731e-06 0 -4.37528e-06)
(-5.73319e-06 0 -4.3352e-06)
(-4.27309e-06 0 -3.8696e-06)
(-2.68734e-06 0 -4.0615e-06)
(-9.93482e-07 0 -3.53194e-06)
(2.56787e-07 0 -3.35271e-06)
(1.61732e-06 0 -2.79582e-06)
(2.95637e-06 0 -2.97034e-06)
(4.37187e-06 0 -2.7859e-06)
(5.45104e-06 0 -2.35702e-06)
(7.04067e-06 0 -2.60343e-06)
(7.55595e-06 0 -2.98272e-06)
(7.74733e-06 0 -2.48887e-06)
(8.60776e-06 0 -2.16219e-06)
(9.08124e-06 0 5.37408e-07)
(9.64527e-06 0 -4.3777e-07)
(1.43588e-05 0 -3.17381e-07)
(1.42964e-05 0 -1.61265e-06)
(2.05481e-05 0 -5.61438e-06)
(2.09596e-05 0 -2.85506e-06)
(2.45745e-05 0 -9.85246e-06)
(2.55154e-05 0 -5.92728e-06)
(2.57929e-05 0 -3.06871e-06)