/*--------------------------------*- C++ -*----------------------------------*\
| =========                 |                                                 |
| \\      /  F ield         | OpenFOAM: The Open Source CFD Toolbox           |
|  \\    /   O peration     | Version:  v2006                                 |
|   \\  /    A nd           | Website:  www.openfoam.com                      |
|    \\/     M anipulation  |                                                 |
\*---------------------------------------------------------------------------*/
FoamFile
{
    version     2.0;
    format      ascii;
    class       volScalarField;
    location    "7.9";
    object      k;
}
// * * * * * * * * * * * * * * * * * * * * * * * * * * * * * * * * * * * * * //

dimensions      [0 2 -2 0 0 0 0];


internalField   nonuniform List<scalar> 
33000
(
1.93903e-08
2.19903e-08
2.51038e-08
2.83338e-08
3.08709e-08
3.18097e-08
3.07001e-08
2.79887e-08
2.52379e-08
2.36082e-08
2.30679e-08
2.30725e-08
2.33986e-08
2.40926e-08
2.55891e-08
2.85646e-08
3.34991e-08
4.04239e-08
4.82042e-08
5.7506e-08
6.73854e-08
7.78992e-08
8.94686e-08
1.02833e-07
1.20587e-07
1.43402e-07
1.68893e-07
1.92992e-07
2.10735e-07
2.19271e-07
2.19248e-07
2.14523e-07
2.20095e-07
2.41868e-07
2.87025e-07
3.63604e-07
4.69022e-07
5.87295e-07
6.99561e-07
7.93733e-07
8.6497e-07
9.12366e-07
9.36681e-07
9.28815e-07
9.1903e-07
9.24368e-07
9.4444e-07
9.60209e-07
9.57092e-07
9.34377e-07
9.06302e-07
8.9292e-07
8.98371e-07
9.12761e-07
9.18943e-07
9.10312e-07
8.88823e-07
8.61715e-07
8.36638e-07
8.16257e-07
8.01334e-07
7.98741e-07
8.14507e-07
8.44557e-07
8.74828e-07
8.93505e-07
8.98591e-07
8.93744e-07
8.79566e-07
8.55402e-07
8.21662e-07
7.80091e-07
7.32721e-07
6.87068e-07
6.45961e-07
6.08417e-07
5.72112e-07
5.36105e-07
4.98317e-07
4.61765e-07
4.34163e-07
4.19483e-07
4.21638e-07
4.38441e-07
4.68617e-07
5.06323e-07
5.47009e-07
5.85288e-07
6.16683e-07
6.3872e-07
6.49906e-07
6.5299e-07
6.46956e-07
6.32702e-07
6.11386e-07
5.82357e-07
5.49423e-07
5.09269e-07
4.7235e-07
4.25693e-07
3.85508e-07
3.5519e-07
3.63533e-07
3.67793e-07
3.6627e-07
3.6849e-07
3.81991e-07
3.88393e-07
3.89486e-07
3.88676e-07
3.86183e-07
3.79581e-07
3.73742e-07
3.70787e-07
3.65798e-07
3.55202e-07
3.44455e-07
3.26826e-07
3.1514e-07
3.10514e-07
3.09748e-07
3.13059e-07
3.10036e-07
3.0936e-07
3.15525e-07
3.19462e-07
3.22729e-07
3.25401e-07
3.25892e-07
3.26113e-07
3.27771e-07
3.2897e-07
3.30829e-07
3.3222e-07
3.33079e-07
3.33004e-07
3.32829e-07
3.33379e-07
3.34016e-07
3.34832e-07
3.35444e-07
3.36007e-07
3.36598e-07
3.374e-07
3.38214e-07
3.3867e-07
3.3886e-07
3.38821e-07
3.38798e-07
3.39054e-07
3.39446e-07
3.39453e-07
3.39015e-07
3.38588e-07
3.38395e-07
3.38252e-07
3.38027e-07
3.37657e-07
3.37171e-07
3.36612e-07
3.36005e-07
3.35314e-07
3.34607e-07
3.33795e-07
3.3267e-07
3.31358e-07
3.30028e-07
3.28591e-07
3.26811e-07
3.24802e-07
3.22765e-07
3.2079e-07
3.18785e-07
3.1661e-07
3.14436e-07
3.12445e-07
3.10701e-07
3.09225e-07
3.07902e-07
3.06618e-07
3.05421e-07
3.04283e-07
3.03138e-07
3.01996e-07
3.00962e-07
3.00083e-07
2.99291e-07
2.98522e-07
2.97807e-07
2.97154e-07
2.96513e-07
2.95824e-07
2.95067e-07
2.94227e-07
2.93301e-07
2.92285e-07
2.91215e-07
2.90109e-07
2.88966e-07
2.87774e-07
2.86509e-07
2.8517e-07
2.8374e-07
2.82241e-07
2.80731e-07
2.79222e-07
2.77719e-07
2.76222e-07
2.7476e-07
2.73341e-07
2.7199e-07
2.70754e-07
2.69541e-07
2.68385e-07
2.6736e-07
2.66519e-07
2.6585e-07
2.65292e-07
2.64773e-07
2.64244e-07
2.63783e-07
2.63451e-07
2.63267e-07
2.6318e-07
2.63095e-07
2.62954e-07
2.62744e-07
2.62541e-07
2.62389e-07
2.623e-07
2.6223e-07
2.62082e-07
2.61823e-07
2.61474e-07
2.6109e-07
2.60699e-07
2.60296e-07
2.59863e-07
2.59377e-07
2.58828e-07
2.58191e-07
2.57452e-07
2.56604e-07
2.5569e-07
2.54766e-07
2.53855e-07
2.52912e-07
2.5185e-07
2.50636e-07
2.49351e-07
2.48081e-07
2.46827e-07
2.45541e-07
2.44168e-07
2.42701e-07
2.41165e-07
2.39601e-07
2.3802e-07
2.3641e-07
2.34739e-07
2.32993e-07
2.31178e-07
2.29338e-07
2.27515e-07
2.2571e-07
2.23869e-07
2.21925e-07
2.19865e-07
2.17761e-07
2.15672e-07
2.13602e-07
2.11545e-07
2.09474e-07
2.07354e-07
2.05161e-07
2.02907e-07
2.00628e-07
1.98341e-07
1.9604e-07
1.93735e-07
1.91444e-07
1.89152e-07
1.86805e-07
1.84372e-07
1.81896e-07
1.79429e-07
1.76959e-07
1.74469e-07
1.7196e-07
1.69416e-07
1.6681e-07
1.6413e-07
1.61373e-07
1.58527e-07
1.55584e-07
1.52623e-07
1.49684e-07
1.46749e-07
1.43814e-07
1.40885e-07
1.37966e-07
1.35063e-07
1.32172e-07
1.29248e-07
1.26275e-07
1.23283e-07
1.20316e-07
1.17423e-07
1.1463e-07
1.11952e-07
1.09406e-07
1.07009e-07
1.04772e-07
1.02681e-07
1.00724e-07
9.89076e-08
9.72507e-08
9.57536e-08
9.44156e-08
9.32401e-08
9.22287e-08
9.13796e-08
9.06834e-08
9.01331e-08
8.97172e-08
8.94256e-08
8.9253e-08
8.91895e-08
8.92196e-08
8.9327e-08
8.95015e-08
8.97359e-08
9.00247e-08
9.03622e-08
9.07355e-08
9.11269e-08
9.1522e-08
9.19106e-08
9.22813e-08
9.26224e-08
9.29285e-08
9.31977e-08
9.3432e-08
9.36329e-08
9.38015e-08
9.39353e-08
9.40322e-08
9.40947e-08
9.41248e-08
9.41235e-08
9.40897e-08
9.4021e-08
9.3916e-08
9.37753e-08
9.36002e-08
9.33906e-08
9.31473e-08
9.28721e-08
9.25665e-08
9.22302e-08
9.1864e-08
9.14697e-08
9.10478e-08
9.05995e-08
9.01262e-08
8.96309e-08
8.91132e-08
8.85733e-08
8.80119e-08
8.74318e-08
8.68363e-08
8.62245e-08
8.55935e-08
8.49423e-08
8.42725e-08
8.35863e-08
8.28833e-08
8.2163e-08
8.14257e-08
8.06735e-08
7.99037e-08
7.91128e-08
7.83031e-08
7.74799e-08
7.66448e-08
7.57976e-08
7.49408e-08
7.40742e-08
7.31989e-08
7.23168e-08
7.14329e-08
7.05458e-08
6.96544e-08
6.87598e-08
6.78666e-08
6.69779e-08
6.60936e-08
6.52179e-08
6.43494e-08
6.34883e-08
6.26306e-08
6.1785e-08
6.09484e-08
6.01287e-08
5.93193e-08
5.85311e-08
5.77501e-08
5.69878e-08
5.62408e-08
5.55187e-08
5.482e-08
5.41357e-08
5.34702e-08
5.28031e-08
5.21641e-08
5.154e-08
5.09218e-08
5.03371e-08
4.97285e-08
4.90866e-08
4.85164e-08
4.79416e-08
4.73852e-08
4.69794e-08
4.6292e-08
4.54744e-08
4.50829e-08
4.42563e-08
4.37778e-08
4.31469e-08
4.38415e-08
4.45912e-08
4.54324e-08
4.59773e-08
4.63755e-08
4.65198e-08
4.65055e-08
4.6447e-08
4.63853e-08
4.63096e-08
4.61911e-08
4.6377e-08
4.61438e-08
4.56251e-08
4.56258e-08
4.49613e-08
4.45687e-08
4.31826e-08
4.41452e-08
4.5346e-08
4.69414e-08
4.84119e-08
4.94882e-08
5.02556e-08
5.07664e-08
5.11205e-08
5.14164e-08
5.13605e-08
5.12503e-08
5.11074e-08
5.06969e-08
5.07001e-08
5.05922e-08
4.97402e-08
4.90625e-08
4.80944e-08
4.62743e-08
4.46343e-08
4.2803e-08
4.33114e-08
4.59625e-08
4.9689e-08
5.42065e-08
5.94257e-08
6.49323e-08
7.02265e-08
7.49571e-08
7.89852e-08
8.23437e-08
8.50937e-08
8.72811e-08
8.90044e-08
9.03749e-08
9.14679e-08
9.23635e-08
9.30918e-08
9.36665e-08
9.41188e-08
9.45036e-08
9.48261e-08
9.50638e-08
9.5238e-08
9.53868e-08
9.55208e-08
9.5622e-08
9.56711e-08
9.56808e-08
9.56627e-08
9.56292e-08
9.55765e-08
9.55087e-08
9.54347e-08
9.53371e-08
9.51967e-08
9.50171e-08
9.48182e-08
9.46196e-08
9.44277e-08
9.42369e-08
9.40376e-08
9.3826e-08
9.3595e-08
9.33555e-08
9.31088e-08
9.2847e-08
9.2581e-08
9.23245e-08
9.2073e-08
9.18115e-08
9.15296e-08
9.12255e-08
9.09038e-08
9.05725e-08
9.02374e-08
8.99018e-08
8.95666e-08
8.92315e-08
8.88951e-08
8.85551e-08
8.82118e-08
8.78677e-08
8.75277e-08
8.71952e-08
8.68677e-08
8.65403e-08
8.6211e-08
8.58861e-08
8.55712e-08
8.52702e-08
8.49792e-08
8.46796e-08
8.44296e-08
8.41787e-08
8.38877e-08
8.37276e-08
8.34387e-08
8.3486e-08
8.34097e-08
8.35871e-08
8.12264e-08
1.09638e-08
1.14273e-08
1.22965e-08
1.33747e-08
1.44506e-08
1.52946e-08
1.56193e-08
1.51417e-08
1.44265e-08
1.40712e-08
1.41052e-08
1.43982e-08
1.49468e-08
1.58274e-08
1.71297e-08
1.88725e-08
2.10683e-08
2.37748e-08
2.88215e-08
3.81182e-08
4.94819e-08
6.51344e-08
8.92041e-08
1.23202e-07
1.67612e-07
2.21121e-07
2.83031e-07
3.50321e-07
4.18125e-07
4.78242e-07
5.25008e-07
5.29671e-07
5.35588e-07
5.61022e-07
5.72122e-07
5.92003e-07
6.15069e-07
5.83714e-07
5.15379e-07
4.63553e-07
4.25766e-07
3.78331e-07
3.05141e-07
2.41141e-07
1.9829e-07
1.73853e-07
1.62551e-07
1.54674e-07
1.45145e-07
1.34397e-07
1.23771e-07
1.16286e-07
1.12942e-07
1.11293e-07
1.08027e-07
1.02281e-07
9.45948e-08
8.60468e-08
7.81087e-08
7.18556e-08
6.79481e-08
6.73735e-08
7.12785e-08
8.0043e-08
9.23432e-08
1.04816e-07
1.13752e-07
1.2032e-07
1.25719e-07
1.26771e-07
1.17781e-07
9.95732e-08
8.28631e-08
7.19179e-08
7.08157e-08
8.37272e-08
1.15485e-07
1.64812e-07
1.93297e-07
2.08257e-07
2.23447e-07
2.33139e-07
2.47934e-07
2.77197e-07
3.00921e-07
3.39139e-07
3.60505e-07
3.6036e-07
3.32857e-07
2.95231e-07
2.41061e-07
1.8092e-07
1.355e-07
1.02174e-07
8.68562e-08
8.04805e-08
8.77286e-08
9.81501e-08
1.26808e-07
1.63359e-07
1.91139e-07
2.03732e-07
1.99467e-07
1.90105e-07
1.55878e-07
1.07127e-07
8.03018e-08
6.48329e-08
5.29322e-08
3.74128e-08
3.19975e-08
2.7332e-08
2.53754e-08
2.52572e-08
3.12826e-08
3.73038e-08
5.42889e-08
6.59546e-08
6.3195e-08
5.12931e-08
4.0414e-08
3.45007e-08
3.00766e-08
2.80157e-08
2.7405e-08
2.63661e-08
2.56767e-08
2.53731e-08
2.49513e-08
2.47221e-08
2.48104e-08
2.49464e-08
2.51005e-08
2.52262e-08
2.53939e-08
2.56119e-08
2.58337e-08
2.60996e-08
2.63634e-08
2.66371e-08
2.69298e-08
2.72493e-08
2.75709e-08
2.78674e-08
2.81105e-08
2.83053e-08
2.85205e-08
2.88079e-08
2.91748e-08
2.95555e-08
2.98663e-08
3.00996e-08
3.03387e-08
3.06534e-08
3.10293e-08
3.1401e-08
3.17311e-08
3.20253e-08
3.23014e-08
3.25644e-08
3.28307e-08
3.3132e-08
3.34501e-08
3.37044e-08
3.38896e-08
3.41162e-08
3.44063e-08
3.46308e-08
3.47324e-08
3.48307e-08
3.50312e-08
3.52876e-08
3.54242e-08
3.53824e-08
3.52779e-08
3.52459e-08
3.53631e-08
3.55348e-08
3.55946e-08
3.55122e-08
3.52855e-08
3.49495e-08
3.46469e-08
3.44398e-08
3.43509e-08
3.42936e-08
3.40777e-08
3.36882e-08
3.32632e-08
3.29714e-08
3.27836e-08
3.25779e-08
3.22569e-08
3.17853e-08
3.1245e-08
3.07383e-08
3.03839e-08
3.0159e-08
2.98898e-08
2.94377e-08
2.87876e-08
2.81675e-08
2.7701e-08
2.73169e-08
2.69205e-08
2.64206e-08
2.58291e-08
2.53078e-08
2.49626e-08
2.46672e-08
2.40831e-08
2.341e-08
2.28599e-08
2.24458e-08
2.22077e-08
2.19751e-08
2.15866e-08
2.10042e-08
2.04387e-08
2.00013e-08
1.96874e-08
1.95054e-08
1.92873e-08
1.89544e-08
1.85128e-08
1.80771e-08
1.77263e-08
1.74707e-08
1.73387e-08
1.71649e-08
1.68915e-08
1.65403e-08
1.62007e-08
1.59601e-08
1.57867e-08
1.56286e-08
1.54721e-08
1.53474e-08
1.52077e-08
1.50571e-08
1.4899e-08
1.46914e-08
1.45549e-08
1.44721e-08
1.443e-08
1.4446e-08
1.43995e-08
1.42248e-08
1.41172e-08
1.40824e-08
1.40758e-08
1.40937e-08
1.40699e-08
1.40112e-08
1.3955e-08
1.39137e-08
1.39047e-08
1.3905e-08
1.38883e-08
1.38622e-08
1.38197e-08
1.37788e-08
1.37753e-08
1.38038e-08
1.38304e-08
1.38259e-08
1.37501e-08
1.36961e-08
1.36798e-08
1.36702e-08
1.36738e-08
1.36934e-08
1.36988e-08
1.36786e-08
1.36334e-08
1.35917e-08
1.35661e-08
1.3544e-08
1.35203e-08
1.35101e-08
1.35214e-08
1.35163e-08
1.34693e-08
1.34123e-08
1.33802e-08
1.3358e-08
1.33322e-08
1.3313e-08
1.32979e-08
1.32682e-08
1.32245e-08
1.31774e-08
1.31371e-08
1.31006e-08
1.30663e-08
1.30373e-08
1.29999e-08
1.29527e-08
1.29019e-08
1.28518e-08
1.28044e-08
1.27646e-08
1.27213e-08
1.26662e-08
1.26076e-08
1.25501e-08
1.24971e-08
1.24424e-08
1.23845e-08
1.23266e-08
1.22731e-08
1.22271e-08
1.21845e-08
1.21382e-08
1.20877e-08
1.20415e-08
1.20024e-08
1.19661e-08
1.19318e-08
1.18995e-08
1.18708e-08
1.18466e-08
1.18259e-08
1.1808e-08
1.17921e-08
1.17798e-08
1.1774e-08
1.17728e-08
1.17728e-08
1.17738e-08
1.17786e-08
1.17898e-08
1.18067e-08
1.1826e-08
1.18421e-08
1.18528e-08
1.18625e-08
1.18757e-08
1.18909e-08
1.19048e-08
1.19154e-08
1.19222e-08
1.19264e-08
1.193e-08
1.19341e-08
1.19344e-08
1.19298e-08
1.19218e-08
1.19132e-08
1.19054e-08
1.18977e-08
1.18873e-08
1.18727e-08
1.18568e-08
1.18418e-08
1.18266e-08
1.18102e-08
1.17934e-08
1.1776e-08
1.17573e-08
1.17386e-08
1.17202e-08
1.17019e-08
1.16836e-08
1.16663e-08
1.16495e-08
1.1631e-08
1.16108e-08
1.15896e-08
1.15701e-08
1.15527e-08
1.15348e-08
1.15144e-08
1.14927e-08
1.14721e-08
1.14531e-08
1.14346e-08
1.14161e-08
1.13982e-08
1.13812e-08
1.13625e-08
1.13411e-08
1.13197e-08
1.13e-08
1.12814e-08
1.12631e-08
1.1245e-08
1.1226e-08
1.12061e-08
1.1187e-08
1.11692e-08
1.11515e-08
1.11327e-08
1.11135e-08
1.10947e-08
1.10761e-08
1.10583e-08
1.10415e-08
1.10247e-08
1.10065e-08
1.09871e-08
1.09673e-08
1.09488e-08
1.09311e-08
1.09141e-08
1.08964e-08
1.08772e-08
1.08562e-08
1.08368e-08
1.08191e-08
1.08023e-08
1.07859e-08
1.07682e-08
1.07483e-08
1.0728e-08
1.07135e-08
1.07047e-08
1.06969e-08
1.06889e-08
1.06674e-08
1.06323e-08
1.06315e-08
1.06904e-08
1.07542e-08
1.08211e-08
1.08182e-08
1.09314e-08
1.09327e-08
1.08618e-08
1.07127e-08
1.0602e-08
1.05947e-08
1.05738e-08
1.05847e-08
1.05838e-08
1.05789e-08
1.05644e-08
1.05435e-08
1.05029e-08
1.05072e-08
1.06254e-08
1.08092e-08
1.09874e-08
1.09367e-08
1.10003e-08
1.09326e-08
1.08403e-08
1.07292e-08
1.06579e-08
1.06287e-08
1.05861e-08
1.05285e-08
1.04587e-08
1.04377e-08
1.04438e-08
1.04787e-08
1.05071e-08
1.05292e-08
1.05029e-08
1.05811e-08
1.06407e-08
1.08616e-08
1.15231e-08
1.16373e-08
1.17884e-08
1.16917e-08
1.14899e-08
1.13399e-08
1.1311e-08
1.14272e-08
1.1528e-08
1.15222e-08
1.14509e-08
1.13651e-08
1.12706e-08
1.11634e-08
1.10556e-08
1.09697e-08
1.09214e-08
1.09102e-08
1.0924e-08
1.09537e-08
1.09946e-08
1.10431e-08
1.1098e-08
1.11534e-08
1.12027e-08
1.12482e-08
1.1298e-08
1.13486e-08
1.13892e-08
1.14227e-08
1.1461e-08
1.1509e-08
1.15583e-08
1.15976e-08
1.16276e-08
1.16531e-08
1.1679e-08
1.17048e-08
1.17333e-08
1.17699e-08
1.18059e-08
1.18269e-08
1.18297e-08
1.18228e-08
1.18186e-08
1.18242e-08
1.18382e-08
1.18559e-08
1.18737e-08
1.1886e-08
1.18979e-08
1.191e-08
1.19151e-08
1.19185e-08
1.19319e-08
1.1957e-08
1.19853e-08
1.2008e-08
1.20206e-08
1.20234e-08
1.20207e-08
1.20172e-08
1.20158e-08
1.2017e-08
1.2021e-08
1.20258e-08
1.20289e-08
1.20293e-08
1.20278e-08
1.20279e-08
1.20316e-08
1.20372e-08
1.20406e-08
1.20387e-08
1.20357e-08
1.20349e-08
1.20395e-08
1.20427e-08
1.20395e-08
1.20477e-08
1.20433e-08
1.20315e-08
1.19932e-08
1.19692e-08
1.20009e-08
1.20457e-08
1.21394e-08
1.20896e-08
1.03737e-08
1.06425e-08
1.10353e-08
1.14716e-08
1.18909e-08
1.20373e-08
1.19388e-08
1.17289e-08
1.16066e-08
1.16796e-08
1.19673e-08
1.25321e-08
1.34995e-08
1.50032e-08
1.7044e-08
1.94258e-08
2.18003e-08
2.41076e-08
2.82965e-08
3.63848e-08
4.82794e-08
6.63753e-08
9.38933e-08
1.3318e-07
1.83749e-07
2.46208e-07
3.18423e-07
3.95625e-07
4.72486e-07
5.37376e-07
6.27676e-07
6.97356e-07
6.9004e-07
6.62783e-07
6.25823e-07
5.85915e-07
5.30458e-07
4.48782e-07
3.50363e-07
2.88198e-07
2.47375e-07
2.14606e-07
1.65769e-07
1.24505e-07
9.53995e-08
7.826e-08
6.91674e-08
6.33209e-08
5.85362e-08
5.37503e-08
4.92839e-08
4.59287e-08
4.39657e-08
4.283e-08
4.13723e-08
3.9044e-08
3.64429e-08
3.36146e-08
3.06699e-08
2.80978e-08
2.62461e-08
2.54312e-08
2.59376e-08
2.76095e-08
2.99357e-08
3.21066e-08
3.42755e-08
3.67968e-08
3.95174e-08
4.10612e-08
3.99212e-08
3.69242e-08
3.33416e-08
3.05471e-08
2.98086e-08
3.20597e-08
3.8582e-08
5.38597e-08
7.24376e-08
8.54505e-08
9.90767e-08
1.09485e-07
1.18882e-07
1.32722e-07
1.56019e-07
1.99587e-07
2.53274e-07
2.92953e-07
3.05962e-07
3.02679e-07
2.65811e-07
2.19699e-07
1.78762e-07
1.38596e-07
1.02148e-07
7.49824e-08
5.60006e-08
4.7523e-08
4.88538e-08
5.99475e-08
7.49841e-08
8.88882e-08
9.52351e-08
9.48635e-08
8.46245e-08
6.67662e-08
4.95577e-08
3.73819e-08
2.82784e-08
2.28771e-08
1.97229e-08
1.74391e-08
1.58035e-08
1.4039e-08
1.33302e-08
1.30131e-08
1.45443e-08
1.72328e-08
1.79545e-08
1.78583e-08
1.72266e-08
1.61875e-08
1.4976e-08
1.41157e-08
1.34881e-08
1.29483e-08
1.25478e-08
1.23382e-08
1.20826e-08
1.19837e-08
1.18895e-08
1.1847e-08
1.17686e-08
1.17613e-08
1.17999e-08
1.18617e-08
1.19125e-08
1.19451e-08
1.19797e-08
1.20049e-08
1.20407e-08
1.20897e-08
1.21422e-08
1.21887e-08
1.22265e-08
1.22561e-08
1.22922e-08
1.23396e-08
1.23935e-08
1.24488e-08
1.24986e-08
1.25429e-08
1.25907e-08
1.26466e-08
1.27086e-08
1.27699e-08
1.28292e-08
1.28895e-08
1.29492e-08
1.3004e-08
1.30566e-08
1.31145e-08
1.3175e-08
1.32262e-08
1.32692e-08
1.33202e-08
1.3381e-08
1.34284e-08
1.34527e-08
1.34776e-08
1.35214e-08
1.35715e-08
1.3598e-08
1.35907e-08
1.3568e-08
1.35547e-08
1.35643e-08
1.35815e-08
1.35779e-08
1.35462e-08
1.34833e-08
1.33944e-08
1.33058e-08
1.32325e-08
1.31817e-08
1.31409e-08
1.30758e-08
1.29792e-08
1.28704e-08
1.27776e-08
1.2704e-08
1.26368e-08
1.25607e-08
1.24639e-08
1.23528e-08
1.22463e-08
1.21636e-08
1.21009e-08
1.20363e-08
1.19509e-08
1.18452e-08
1.17451e-08
1.16653e-08
1.15959e-08
1.15246e-08
1.14458e-08
1.13641e-08
1.12932e-08
1.12393e-08
1.11874e-08
1.11121e-08
1.10332e-08
1.09671e-08
1.09144e-08
1.08773e-08
1.08427e-08
1.07989e-08
1.07425e-08
1.06877e-08
1.06436e-08
1.06093e-08
1.05846e-08
1.05605e-08
1.0532e-08
1.04986e-08
1.04656e-08
1.04381e-08
1.04168e-08
1.04026e-08
1.03883e-08
1.03701e-08
1.0349e-08
1.03296e-08
1.03149e-08
1.03042e-08
1.02959e-08
1.02883e-08
1.02814e-08
1.02738e-08
1.02658e-08
1.02585e-08
1.02513e-08
1.02463e-08
1.0243e-08
1.02413e-08
1.02409e-08
1.0239e-08
1.02341e-08
1.02308e-08
1.02296e-08
1.02295e-08
1.02299e-08
1.02292e-08
1.02275e-08
1.02261e-08
1.02253e-08
1.02255e-08
1.02256e-08
1.02246e-08
1.02232e-08
1.02219e-08
1.02208e-08
1.02208e-08
1.0222e-08
1.02229e-08
1.02225e-08
1.02201e-08
1.02179e-08
1.0217e-08
1.02167e-08
1.02169e-08
1.02175e-08
1.02176e-08
1.02169e-08
1.02157e-08
1.02143e-08
1.02132e-08
1.02122e-08
1.02114e-08
1.02113e-08
1.0212e-08
1.02119e-08
1.02104e-08
1.02084e-08
1.02072e-08
1.02065e-08
1.02059e-08
1.02054e-08
1.0205e-08
1.02041e-08
1.02027e-08
1.02012e-08
1.02e-08
1.01989e-08
1.01978e-08
1.01969e-08
1.01958e-08
1.01945e-08
1.01929e-08
1.0191e-08
1.01891e-08
1.01876e-08
1.01861e-08
1.01842e-08
1.01819e-08
1.01793e-08
1.0177e-08
1.01749e-08
1.01725e-08
1.017e-08
1.01675e-08
1.01655e-08
1.01636e-08
1.01614e-08
1.01589e-08
1.01565e-08
1.01545e-08
1.01528e-08
1.01512e-08
1.01497e-08
1.01483e-08
1.01471e-08
1.01461e-08
1.01453e-08
1.01446e-08
1.01444e-08
1.01444e-08
1.01445e-08
1.01446e-08
1.01448e-08
1.01453e-08
1.01464e-08
1.01476e-08
1.01486e-08
1.01493e-08
1.01498e-08
1.01503e-08
1.01509e-08
1.01516e-08
1.01522e-08
1.01526e-08
1.01528e-08
1.01529e-08
1.0153e-08
1.01532e-08
1.0153e-08
1.01525e-08
1.01519e-08
1.01514e-08
1.0151e-08
1.01506e-08
1.015e-08
1.01491e-08
1.01483e-08
1.01475e-08
1.01467e-08
1.01459e-08
1.01451e-08
1.01442e-08
1.01433e-08
1.01423e-08
1.01414e-08
1.01406e-08
1.01397e-08
1.01389e-08
1.0138e-08
1.0137e-08
1.0136e-08
1.0135e-08
1.01339e-08
1.01329e-08
1.01318e-08
1.01306e-08
1.01293e-08
1.01279e-08
1.01266e-08
1.01255e-08
1.01245e-08
1.01234e-08
1.01224e-08
1.01213e-08
1.01202e-08
1.0119e-08
1.01179e-08
1.01169e-08
1.0116e-08
1.01151e-08
1.01141e-08
1.0113e-08
1.0112e-08
1.01111e-08
1.01102e-08
1.01093e-08
1.01083e-08
1.01073e-08
1.01063e-08
1.01054e-08
1.01045e-08
1.01036e-08
1.01025e-08
1.01013e-08
1.01e-08
1.00989e-08
1.00977e-08
1.00965e-08
1.00953e-08
1.00939e-08
1.00925e-08
1.00911e-08
1.00897e-08
1.00885e-08
1.00875e-08
1.00868e-08
1.0086e-08
1.00853e-08
1.00845e-08
1.00836e-08
1.00823e-08
1.00823e-08
1.00828e-08
1.00841e-08
1.00847e-08
1.00834e-08
1.00843e-08
1.00841e-08
1.00822e-08
1.00803e-08
1.00788e-08
1.00786e-08
1.0078e-08
1.00775e-08
1.00768e-08
1.00752e-08
1.00733e-08
1.00715e-08
1.00711e-08
1.00705e-08
1.00711e-08
1.00734e-08
1.00759e-08
1.00757e-08
1.00792e-08
1.0079e-08
1.00754e-08
1.00701e-08
1.00664e-08
1.00651e-08
1.00644e-08
1.00645e-08
1.00645e-08
1.00638e-08
1.00635e-08
1.00631e-08
1.00632e-08
1.00634e-08
1.00637e-08
1.00651e-08
1.00663e-08
1.00699e-08
1.00836e-08
1.00953e-08
1.01081e-08
1.01259e-08
1.01315e-08
1.01278e-08
1.01214e-08
1.01179e-08
1.01157e-08
1.01152e-08
1.01183e-08
1.01234e-08
1.01268e-08
1.01264e-08
1.01218e-08
1.01139e-08
1.01042e-08
1.00945e-08
1.00863e-08
1.00802e-08
1.00762e-08
1.00739e-08
1.00727e-08
1.00725e-08
1.0073e-08
1.0074e-08
1.00754e-08
1.00769e-08
1.00784e-08
1.00803e-08
1.00823e-08
1.00841e-08
1.00858e-08
1.00877e-08
1.009e-08
1.00924e-08
1.00946e-08
1.00963e-08
1.00978e-08
1.00993e-08
1.01007e-08
1.01024e-08
1.01044e-08
1.01062e-08
1.01073e-08
1.01075e-08
1.01074e-08
1.01073e-08
1.01077e-08
1.01084e-08
1.01093e-08
1.01103e-08
1.01111e-08
1.01119e-08
1.01127e-08
1.01133e-08
1.01138e-08
1.01147e-08
1.0116e-08
1.01175e-08
1.01187e-08
1.01194e-08
1.01197e-08
1.01197e-08
1.01196e-08
1.01196e-08
1.01198e-08
1.01201e-08
1.01204e-08
1.01207e-08
1.01207e-08
1.01207e-08
1.01208e-08
1.01212e-08
1.01216e-08
1.01219e-08
1.01219e-08
1.01219e-08
1.0122e-08
1.01223e-08
1.01224e-08
1.01223e-08
1.01227e-08
1.01226e-08
1.0122e-08
1.01203e-08
1.01193e-08
1.01208e-08
1.01234e-08
1.01297e-08
1.01301e-08
1.02292e-08
1.03851e-08
1.05964e-08
1.08217e-08
1.09949e-08
1.10644e-08
1.10365e-08
1.09771e-08
1.09979e-08
1.1153e-08
1.15056e-08
1.21952e-08
1.34559e-08
1.56297e-08
1.87998e-08
2.30918e-08
2.83484e-08
3.47118e-08
4.2141e-08
5.21385e-08
6.63487e-08
8.48498e-08
1.07513e-07
1.34109e-07
1.64635e-07
1.9514e-07
2.20367e-07
2.36745e-07
2.44851e-07
2.69904e-07
3.17836e-07
3.86369e-07
4.48058e-07
4.51437e-07
4.06071e-07
3.46926e-07
2.85168e-07
2.28735e-07
1.79552e-07
1.48971e-07
1.26339e-07
9.94689e-08
7.25298e-08
5.52363e-08
4.37168e-08
3.6386e-08
3.19978e-08
2.93261e-08
2.72903e-08
2.54898e-08
2.39384e-08
2.27456e-08
2.19571e-08
2.14983e-08
2.1112e-08
2.05902e-08
1.98655e-08
1.89279e-08
1.78584e-08
1.68186e-08
1.59837e-08
1.55157e-08
1.54032e-08
1.54697e-08
1.56297e-08
1.5903e-08
1.63918e-08
1.72112e-08
1.83397e-08
1.94623e-08
2.00116e-08
1.96235e-08
1.88068e-08
1.80817e-08
1.78568e-08
1.81959e-08
1.96476e-08
2.29223e-08
2.78998e-08
3.31716e-08
3.9921e-08
4.78808e-08
5.49909e-08
6.54228e-08
7.85201e-08
9.4039e-08
1.18536e-07
1.48222e-07
1.8147e-07
2.15468e-07
2.3008e-07
2.16819e-07
1.98434e-07
1.59145e-07
1.23201e-07
9.81633e-08
7.5017e-08
5.57227e-08
4.28146e-08
3.68339e-08
3.61552e-08
3.87618e-08
4.23013e-08
4.45875e-08
4.41735e-08
4.02301e-08
3.45971e-08
2.9368e-08
2.46631e-08
2.07534e-08
1.79794e-08
1.62429e-08
1.50941e-08
1.41842e-08
1.33421e-08
1.27032e-08
1.20528e-08
1.17629e-08
1.13975e-08
1.14398e-08
1.15121e-08
1.14397e-08
1.13126e-08
1.12065e-08
1.10745e-08
1.09036e-08
1.08028e-08
1.07231e-08
1.06266e-08
1.05414e-08
1.04821e-08
1.04317e-08
1.03987e-08
1.03771e-08
1.03645e-08
1.03586e-08
1.03569e-08
1.03606e-08
1.03646e-08
1.03702e-08
1.03768e-08
1.03838e-08
1.03913e-08
1.03988e-08
1.04054e-08
1.04118e-08
1.04193e-08
1.04285e-08
1.04392e-08
1.04493e-08
1.04578e-08
1.04659e-08
1.04757e-08
1.04875e-08
1.04996e-08
1.05103e-08
1.05205e-08
1.05316e-08
1.05438e-08
1.05558e-08
1.05671e-08
1.05783e-08
1.05889e-08
1.05979e-08
1.06063e-08
1.06169e-08
1.06287e-08
1.06375e-08
1.06418e-08
1.0646e-08
1.06532e-08
1.06611e-08
1.06648e-08
1.06625e-08
1.06567e-08
1.06515e-08
1.06496e-08
1.0649e-08
1.06448e-08
1.06354e-08
1.06201e-08
1.06001e-08
1.05797e-08
1.05616e-08
1.05472e-08
1.05347e-08
1.05193e-08
1.04995e-08
1.0477e-08
1.04558e-08
1.04377e-08
1.04218e-08
1.04063e-08
1.03888e-08
1.03691e-08
1.03497e-08
1.03334e-08
1.032e-08
1.03075e-08
1.02933e-08
1.02772e-08
1.0262e-08
1.02491e-08
1.02375e-08
1.0226e-08
1.02145e-08
1.02035e-08
1.01939e-08
1.01856e-08
1.01775e-08
1.0168e-08
1.01587e-08
1.01507e-08
1.01441e-08
1.01388e-08
1.01339e-08
1.01287e-08
1.01229e-08
1.01173e-08
1.01127e-08
1.01087e-08
1.01055e-08
1.01026e-08
1.00998e-08
1.00968e-08
1.00939e-08
1.00913e-08
1.00891e-08
1.00875e-08
1.00859e-08
1.00843e-08
1.00825e-08
1.0081e-08
1.00797e-08
1.00787e-08
1.00779e-08
1.00771e-08
1.00764e-08
1.00756e-08
1.00749e-08
1.00743e-08
1.00737e-08
1.00733e-08
1.00729e-08
1.00726e-08
1.00723e-08
1.0072e-08
1.00717e-08
1.00715e-08
1.00713e-08
1.00712e-08
1.00711e-08
1.00709e-08
1.00708e-08
1.00706e-08
1.00704e-08
1.00704e-08
1.00704e-08
1.00703e-08
1.007e-08
1.00698e-08
1.00697e-08
1.00697e-08
1.00697e-08
1.00697e-08
1.00697e-08
1.00695e-08
1.00693e-08
1.00693e-08
1.00692e-08
1.00692e-08
1.00692e-08
1.00691e-08
1.00691e-08
1.0069e-08
1.0069e-08
1.00688e-08
1.00687e-08
1.00686e-08
1.00686e-08
1.00687e-08
1.00686e-08
1.00685e-08
1.00684e-08
1.00684e-08
1.00683e-08
1.00682e-08
1.00682e-08
1.00681e-08
1.00681e-08
1.0068e-08
1.00679e-08
1.00678e-08
1.00677e-08
1.00676e-08
1.00674e-08
1.00674e-08
1.00672e-08
1.00671e-08
1.00669e-08
1.00667e-08
1.00665e-08
1.00664e-08
1.00662e-08
1.00659e-08
1.00656e-08
1.00654e-08
1.00652e-08
1.00649e-08
1.00646e-08
1.00643e-08
1.0064e-08
1.00638e-08
1.00635e-08
1.00631e-08
1.00628e-08
1.00625e-08
1.00623e-08
1.00621e-08
1.00618e-08
1.00615e-08
1.00613e-08
1.0061e-08
1.00608e-08
1.00606e-08
1.00605e-08
1.00604e-08
1.00602e-08
1.006e-08
1.00598e-08
1.00597e-08
1.00595e-08
1.00594e-08
1.00593e-08
1.00592e-08
1.0059e-08
1.00588e-08
1.00586e-08
1.00585e-08
1.00583e-08
1.00581e-08
1.0058e-08
1.00579e-08
1.00578e-08
1.00577e-08
1.00576e-08
1.00575e-08
1.00574e-08
1.00573e-08
1.00572e-08
1.0057e-08
1.00569e-08
1.00567e-08
1.00566e-08
1.00564e-08
1.00563e-08
1.00561e-08
1.0056e-08
1.00559e-08
1.00557e-08
1.00556e-08
1.00555e-08
1.00554e-08
1.00553e-08
1.00551e-08
1.0055e-08
1.00549e-08
1.00548e-08
1.00547e-08
1.00545e-08
1.00544e-08
1.00543e-08
1.00542e-08
1.0054e-08
1.00539e-08
1.00538e-08
1.00536e-08
1.00535e-08
1.00533e-08
1.00532e-08
1.00531e-08
1.00529e-08
1.00527e-08
1.00526e-08
1.00524e-08
1.00523e-08
1.00521e-08
1.00519e-08
1.00517e-08
1.00515e-08
1.00514e-08
1.00513e-08
1.00511e-08
1.0051e-08
1.00509e-08
1.00508e-08
1.00507e-08
1.00505e-08
1.00503e-08
1.00502e-08
1.005e-08
1.00499e-08
1.00497e-08
1.00495e-08
1.00493e-08
1.00491e-08
1.00489e-08
1.00488e-08
1.00488e-08
1.00488e-08
1.00487e-08
1.00487e-08
1.00487e-08
1.00487e-08
1.00486e-08
1.00489e-08
1.00494e-08
1.00498e-08
1.00502e-08
1.00506e-08
1.00516e-08
1.0052e-08
1.00512e-08
1.00502e-08
1.00494e-08
1.0049e-08
1.00484e-08
1.00481e-08
1.00477e-08
1.00472e-08
1.00472e-08
1.00474e-08
1.00477e-08
1.00483e-08
1.00489e-08
1.00495e-08
1.005e-08
1.00507e-08
1.00519e-08
1.0053e-08
1.00525e-08
1.00511e-08
1.00496e-08
1.00486e-08
1.00477e-08
1.0047e-08
1.00465e-08
1.0046e-08
1.00458e-08
1.00458e-08
1.00461e-08
1.00462e-08
1.00468e-08
1.00478e-08
1.0049e-08
1.00506e-08
1.0054e-08
1.00613e-08
1.00709e-08
1.00826e-08
1.00904e-08
1.00928e-08
1.0091e-08
1.00869e-08
1.00813e-08
1.0075e-08
1.00688e-08
1.00635e-08
1.00594e-08
1.00564e-08
1.00543e-08
1.00529e-08
1.0052e-08
1.00512e-08
1.00503e-08
1.00494e-08
1.00485e-08
1.00475e-08
1.00467e-08
1.00459e-08
1.00452e-08
1.00446e-08
1.00441e-08
1.00436e-08
1.00433e-08
1.0043e-08
1.00427e-08
1.00426e-08
1.00425e-08
1.00425e-08
1.00425e-08
1.00425e-08
1.00425e-08
1.00426e-08
1.00427e-08
1.00428e-08
1.0043e-08
1.00431e-08
1.00432e-08
1.00434e-08
1.00435e-08
1.00437e-08
1.00438e-08
1.00439e-08
1.00439e-08
1.00439e-08
1.00439e-08
1.00439e-08
1.00439e-08
1.0044e-08
1.00441e-08
1.00442e-08
1.00443e-08
1.00444e-08
1.00445e-08
1.00445e-08
1.00446e-08
1.00446e-08
1.00447e-08
1.00447e-08
1.00446e-08
1.00446e-08
1.00446e-08
1.00446e-08
1.00446e-08
1.00446e-08
1.00446e-08
1.00445e-08
1.00444e-08
1.00443e-08
1.00442e-08
1.00442e-08
1.00441e-08
1.00441e-08
1.00441e-08
1.00441e-08
1.00441e-08
1.00441e-08
1.00441e-08
1.0044e-08
1.0044e-08
1.00439e-08
1.00438e-08
1.00438e-08
1.00437e-08
1.00438e-08
1.00442e-08
1.00452e-08
1.00471e-08
1.00476e-08
1.01499e-08
1.02439e-08
1.03691e-08
1.0501e-08
1.06073e-08
1.06606e-08
1.06634e-08
1.06581e-08
1.07071e-08
1.08449e-08
1.11303e-08
1.16968e-08
1.2786e-08
1.46635e-08
1.75964e-08
2.18418e-08
2.73999e-08
3.41081e-08
4.17552e-08
5.01681e-08
5.93984e-08
6.96264e-08
8.06932e-08
9.17017e-08
1.01197e-07
1.07844e-07
1.12434e-07
1.1924e-07
1.37825e-07
1.66965e-07
1.92792e-07
2.09691e-07
2.00996e-07
1.7456e-07
1.43362e-07
1.18523e-07
1.00649e-07
8.77487e-08
7.69792e-08
6.56839e-08
5.32653e-08
4.12859e-08
3.31045e-08
2.72162e-08
2.30892e-08
2.02972e-08
1.84788e-08
1.72984e-08
1.64723e-08
1.58325e-08
1.53239e-08
1.49399e-08
1.46707e-08
1.44943e-08
1.43567e-08
1.41946e-08
1.39736e-08
1.3685e-08
1.33389e-08
1.29619e-08
1.26246e-08
1.2382e-08
1.22306e-08
1.21498e-08
1.21276e-08
1.21699e-08
1.22988e-08
1.25452e-08
1.29172e-08
1.33482e-08
1.36945e-08
1.38313e-08
1.37452e-08
1.35485e-08
1.34424e-08
1.34851e-08
1.38106e-08
1.4574e-08
1.59322e-08
1.76119e-08
1.96998e-08
2.23086e-08
2.56285e-08
3.09545e-08
3.87362e-08
4.77587e-08
6.10478e-08
7.94964e-08
9.97288e-08
1.1885e-07
1.36289e-07
1.45893e-07
1.47699e-07
1.36803e-07
1.17131e-07
9.64839e-08
7.45757e-08
5.81485e-08
4.5298e-08
3.55775e-08
2.92473e-08
2.58365e-08
2.4434e-08
2.39012e-08
2.36155e-08
2.30606e-08
2.18365e-08
2.0358e-08
1.88096e-08
1.7286e-08
1.59939e-08
1.49645e-08
1.41339e-08
1.35885e-08
1.32286e-08
1.28984e-08
1.25206e-08
1.20914e-08
1.17395e-08
1.13913e-08
1.10938e-08
1.07814e-08
1.06317e-08
1.05282e-08
1.04531e-08
1.04043e-08
1.03757e-08
1.0352e-08
1.03346e-08
1.03378e-08
1.03264e-08
1.02967e-08
1.02637e-08
1.02335e-08
1.01984e-08
1.01902e-08
1.01777e-08
1.01663e-08
1.01581e-08
1.0152e-08
1.01478e-08
1.01454e-08
1.01441e-08
1.01437e-08
1.01437e-08
1.01443e-08
1.01454e-08
1.01468e-08
1.01485e-08
1.01501e-08
1.01517e-08
1.01535e-08
1.01556e-08
1.0158e-08
1.01604e-08
1.01626e-08
1.01649e-08
1.01673e-08
1.01699e-08
1.01726e-08
1.01752e-08
1.01776e-08
1.01797e-08
1.01816e-08
1.01834e-08
1.01855e-08
1.01877e-08
1.01894e-08
1.01904e-08
1.0191e-08
1.0192e-08
1.0193e-08
1.01935e-08
1.01929e-08
1.01915e-08
1.01899e-08
1.01886e-08
1.01876e-08
1.0186e-08
1.01835e-08
1.01799e-08
1.01756e-08
1.01711e-08
1.01669e-08
1.01631e-08
1.01597e-08
1.01561e-08
1.0152e-08
1.01474e-08
1.01429e-08
1.01387e-08
1.01349e-08
1.01315e-08
1.0128e-08
1.01244e-08
1.01207e-08
1.01174e-08
1.01144e-08
1.01118e-08
1.01092e-08
1.01065e-08
1.01037e-08
1.01013e-08
1.0099e-08
1.00969e-08
1.00949e-08
1.0093e-08
1.00912e-08
1.00896e-08
1.0088e-08
1.00864e-08
1.00849e-08
1.00835e-08
1.00822e-08
1.00811e-08
1.008e-08
1.0079e-08
1.0078e-08
1.0077e-08
1.00761e-08
1.00752e-08
1.00744e-08
1.00737e-08
1.0073e-08
1.00723e-08
1.00717e-08
1.00711e-08
1.00705e-08
1.007e-08
1.00695e-08
1.0069e-08
1.00686e-08
1.00681e-08
1.00677e-08
1.00674e-08
1.0067e-08
1.00667e-08
1.00664e-08
1.00661e-08
1.00658e-08
1.00655e-08
1.00653e-08
1.0065e-08
1.00648e-08
1.00646e-08
1.00644e-08
1.00642e-08
1.00641e-08
1.00639e-08
1.00637e-08
1.00636e-08