/*--------------------------------*- C++ -*----------------------------------*\
| =========                 |                                                 |
| \\      /  F ield         | OpenFOAM: The Open Source CFD Toolbox           |
|  \\    /   O peration     | Version:  v2006                                 |
|   \\  /    A nd           | Website:  www.openfoam.com                      |
|    \\/     M anipulation  |                                                 |
\*---------------------------------------------------------------------------*/
FoamFile
{
    version     2.0;
    format      ascii;
    class       volScalarField;
    location    "7.9";
    object      p_rgh;
}
// * * * * * * * * * * * * * * * * * * * * * * * * * * * * * * * * * * * * * //

dimensions      [1 -1 -2 0 0 0 0];


internalField   nonuniform List<scalar> 
33000
(
7190.13
7198.01
7204.88
7211.7
7218.53
7225.66
7233.17
7241.13
7249.36
7257.39
7264.71
7271.49
7277.94
7284.09
7290.01
7294.9
7301.02
7308
7315.75
7323.85
7331.77
7339.64
7347.56
7355.48
7363.38
7371.22
7378.96
7386.55
7394.07
7401.64
7409.39
7417.36
7425.52
7433.88
7442.43
7450.91
7459.22
7467.43
7475.59
7483.72
7491.77
7499.86
7508.01
7516.14
7524.23
7532.3
7539.82
7547.71
7555.7
7563.65
7571.55
7579.38
7587.15
7594.83
7602.47
7610.15
7617.78
7625.36
7632.89
7640.35
7647.74
7655.05
7662.27
7669.41
7676.47
7683.41
7690.34
7697.22
7704
7710.66
7717.22
7723.65
7729.97
7736.13
7742.09
7747.8
7753.17
7757.91
7761.91
7769.7
7777.65
7784.04
7791.21
7798.1
7804.76
7811.88
7819.1
7826.06
7833.16
7839.94
7846.99
7853.72
7860.76
7867.63
7874.57
7881.49
7888.34
7895.21
7902.04
7908.67
7914.75
7920.98
7927.13
7933.38
7939.56
7945.69
7951.64
7957.73
7963.68
7969.76
7975.6
7981.6
7987.31
7993.05
7998.52
8004.07
8009.2
8014.77
8020.47
8026.05
8031.71
8037.19
8042.7
8048.16
8053.52
8058.88
8064.14
8069.39
8074.62
8079.81
8084.9
8089.95
8094.91
8099.81
8104.63
8109.46
8114.21
8118.88
8123.46
8127.97
8132.4
8136.76
8141.03
8145.23
8149.32
8153.37
8157.35
8161.28
8165.12
8168.89
8172.57
8176.17
8179.75
8183.27
8186.7
8190.07
8193.36
8196.6
8199.8
8202.95
8206.04
8209.08
8212.06
8214.98
8217.83
8220.63
8223.36
8226
8228.57
8231.06
8233.47
8235.78
8237.98
8240.09
8242.11
8244.02
8245.8
8247.46
8248.98
8250.38
8251.67
8252.82
8253.83
8254.67
8255.36
8255.9
8256.27
8256.5
8256.55
8256.44
8256.14
8255.68
8255.04
8254.24
8253.26
8252.09
8250.74
8249.19
8247.46
8245.55
8243.47
8241.22
8238.77
8236.14
8233.33
8230.34
8227.19
8223.87
8220.38
8216.71
8212.92
8208.97
8204.86
8200.61
8196.21
8191.68
8187.03
8182.28
8177.42
8172.43
8167.34
8162.14
8156.85
8151.49
8146.07
8140.57
8135
8129.37
8123.67
8117.94
8112.17
8106.38
8100.55
8094.7
8088.82
8082.93
8077.04
8071.14
8065.25
8059.37
8053.5
8047.66
8041.83
8036.03
8030.26
8024.52
8018.82
8013.18
8007.58
8002.03
7996.53
7991.08
7985.69
7980.38
7975.13
7969.95
7964.83
7959.79
7954.83
7949.94
7945.14
7940.42
7935.78
7931.22
7926.74
7922.36
7918.07
7913.86
7909.74
7905.71
7901.77
7897.91
7894.14
7890.46
7886.88
7883.38
7879.97
7876.65
7873.41
7870.25
7867.18
7864.18
7861.28
7858.45
7855.69
7853.02
7850.41
7847.88
7845.43
7843.04
7840.73
7838.48
7836.3
7834.18
7832.13
7830.13
7828.2
7826.33
7824.51
7822.75
7821.04
7819.39
7817.78
7816.23
7814.74
7813.29
7811.9
7810.55
7809.27
7808.03
7806.85
7805.71
7804.63
7803.6
7802.62
7801.69
7800.81
7799.97
7799.19
7798.45
7797.76
7797.11
7796.52
7795.96
7795.45
7794.99
7794.57
7794.19
7793.86
7793.56
7793.31
7793.1
7792.93
7792.8
7792.71
7792.66
7792.65
7792.67
7792.74
7792.84
7792.98
7793.15
7793.36
7793.61
7793.89
7794.21
7794.55
7794.93
7795.35
7795.79
7796.26
7796.77
7797.3
7797.87
7798.46
7799.07
7799.72
7800.39
7801.08
7801.8
7802.54
7803.31
7804.09
7804.9
7805.73
7806.58
7807.44
7808.33
7809.23
7810.16
7811.1
7812.05
7813.02
7814.01
7815.01
7816.02
7817.05
7818.1
7819.15
7820.22
7821.3
7822.39
7823.5
7824.61
7825.74
7826.88
7828.03
7829.19
7830.36
7831.54
7832.74
7833.94
7835.16
7836.39
7837.63
7838.87
7840.13
7841.4
7842.69
7843.98
7845.28
7846.59
7847.92
7849.26
7850.6
7851.96
7853.33
7854.71
7856.1
7857.5
7858.91
7860.34
7861.77
7863.21
7864.66
7866.13
7867.6
7869.07
7870.56
7872.05
7873.54
7875.05
7876.55
7878.07
7879.57
7881.06
7882.56
7884.11
7885.56
7887.22
7888.66
7889.89
7891.34
7892.74
7894.22
7895.71
7897.24
7898.78
7900.34
7901.91
7903.49
7905.08
7906.69
7908.29
7909.91
7911.53
7913.14
7914.76
7916.38
7917.96
7919.55
7921.11
7922.68
7924.22
7925.77
7927.3
7928.82
7930.31
7931.8
7933.24
7934.7
7936.06
7937.52
7938.83
7940.12
7941.31
7942.68
7943.52
7945.26
7946.26
7946.94
7947.7
7948.52
7949.36
7950.22
7951.09
7951.95
7952.82
7953.68
7954.53
7955.37
7956.19
7957
7957.8
7958.57
7959.33
7960.07
7960.78
7961.48
7962.15
7962.79
7963.41
7964.01
7964.58
7965.12
7965.63
7966.11
7966.56
7966.99
7967.38
7967.74
7968.07
7968.36
7968.62
7968.85
7969.05
7969.2
7969.32
7969.41
7969.46
7969.47
7969.44
7969.37
7969.27
7969.12
7968.94
7968.71
7968.45
7968.14
7967.79
7967.4
7966.97
7966.5
7965.99
7965.43
7964.83
7964.19
7963.5
7962.77
7962
7961.18
7960.32
7959.41
7958.46
7957.46
7956.42
7955.34
7954.21
7953.03
7951.81
7950.54
7949.23
7947.87
7946.47
7945.02
7943.52
7941.98
7940.38
7938.94
7936.19
7189.63
7197.72
7204.32
7211.12
7218.02
7225.06
7232.42
7240.16
7247.91
7255.38
7262.39
7268.98
7275.26
7281.34
7287.08
7292.67
7298.74
7306.47
7314.92
7323.32
7331.29
7339.37
7347.41
7355.4
7363.27
7371.01
7378.6
7386.03
7393.38
7400.83
7408.56
7416.64
7425.01
7433.58
7442.32
7451
7459.41
7467.56
7475.69
7483.82
7491.79
7499.82
7507.98
7516.17
7524.25
7532.24
7540.05
7547.79
7555.69
7563.65
7571.63
7579.49
7587.26
7594.88
7602.5
7610.15
7617.84
7625.45
7632.99
7640.45
7647.84
7655.16
7662.39
7669.55
7676.64
7683.55
7690.49
7697.35
7704.1
7710.8
7717.48
7723.98
7730.37
7736.63
7742.75
7748.74
7754.58
7760.25
7766.07
7771.78
7777.03
7781.39
7790.04
7798.47
7805.2
7812.55
7819.38
7826.12
7832.67
7839.56
7846.91
7853.68
7860.8
7867.56
7874.55
7881.29
7888.25
7894.89
7901.85
7908.2
7914.86
7921.02
7927.38
7933.45
7939.46
7945.59
7951.81
7957.83
7963.92
7969.94
7975.81
7981.78
7987.56
7993.32
7998.91
8004.45
8009.92
8015.36
8020.87
8026.13
8031.56
8037.13
8042.66
8048.25
8053.65
8058.99
8064.23
8069.47
8074.65
8079.85
8084.98
8090.06
8095.01
8099.88
8104.7
8109.51
8114.31
8118.99
8123.58
8128.07
8132.51
8136.87
8141.16
8145.35
8149.42
8153.47
8157.45
8161.36
8165.24
8169.02
8172.66
8176.26
8179.82
8183.37
8186.82
8190.19
8193.49
8196.71
8199.9
8203.05
8206.16
8209.21
8212.19
8215.1
8217.96
8220.77
8223.5
8226.13
8228.7
8231.21
8233.64
8235.95
8238.13
8240.25
8242.3
8244.22
8246.01
8247.68
8249.19
8250.59
8251.87
8253.03
8254.07
8254.94
8255.64
8256.17
8256.52
8256.75
8256.84
8256.74
8256.45
8255.97
8255.34
8254.54
8253.58
8252.43
8251.08
8249.52
8247.79
8245.89
8243.82
8241.58
8239.13
8236.49
8233.67
8230.69
8227.54
8224.22
8220.72
8217.03
8213.24
8209.3
8205.19
8200.93
8196.52
8191.97
8187.31
8182.56
8177.69
8172.7
8167.59
8162.37
8157.07
8151.7
8146.27
8140.77
8135.19
8129.55
8123.83
8118.08
8112.3
8106.49
8100.67
8094.81
8088.92
8083.02
8077.11
8071.19
8065.27
8059.39
8053.51
8047.67
8041.84
8036.03
8030.24
8024.48
8018.78
8013.14
8007.53
8001.97
7996.46
7991
7985.61
7980.29
7975.03
7969.85
7964.73
7959.69
7954.71
7949.82
7945.02
7940.3
7935.65
7931.08
7926.6
7922.21
7917.93
7913.72
7909.6
7905.56
7901.62
7897.75
7893.98
7890.31
7886.73
7883.23
7879.82
7876.49
7873.26
7870.1
7867.02
7864.02
7861.12
7858.3
7855.54
7852.87
7850.26
7847.73
7845.27
7842.89
7840.58
7838.33
7836.16
7834.04
7831.99
7829.99
7828.06
7826.19
7824.38
7822.62
7820.91
7819.25
7817.65
7816.11
7814.61
7813.16
7811.77
7810.43
7809.14
7807.91
7806.73
7805.6
7804.51
7803.48
7802.51
7801.58
7800.7
7799.87
7799.08
7798.35
7797.66
7797.01
7796.42
7795.87
7795.36
7794.9
7794.48
7794.1
7793.77
7793.48
7793.23
7793.02
7792.85
7792.72
7792.63
7792.59
7792.58
7792.61
7792.67
7792.78
7792.92
7793.09
7793.3
7793.55
7793.83
7794.15
7794.5
7794.88
7795.3
7795.74
7796.22
7796.72
7797.26
7797.82
7798.42
7799.03
7799.68
7800.35
7801.05
7801.76
7802.51
7803.27
7804.06
7804.87
7805.7
7806.55
7807.42
7808.3
7809.21
7810.13
7811.07
7812.03
7813
7813.99
7814.99
7816
7817.03
7818.07
7819.13
7820.2
7821.28
7822.37
7823.47
7824.59
7825.72
7826.85
7828
7829.16
7830.34
7831.52
7832.71
7833.92
7835.13
7836.36
7837.6
7838.84
7840.1
7841.37
7842.65
7843.94
7845.24
7846.56
7847.88
7849.22
7850.56
7851.92
7853.29
7854.66
7856.06
7857.45
7858.87
7860.29
7861.72
7863.16
7864.62
7866.08
7867.55
7869.02
7870.52
7872
7873.52
7875.01
7876.49
7877.99
7879.55
7881.04
7882.73
7884.2
7885.41
7886.89
7888.25
7889.7
7891.13
7892.62
7894.11
7895.63
7897.16
7898.71
7900.27
7901.85
7903.45
7905.04
7906.68
7908.27
7909.9
7911.49
7913.11
7914.7
7916.33
7917.91
7919.52
7921.1
7922.68
7924.25
7925.77
7927.33
7928.81
7930.38
7931.78
7933.38
7934.74
7936.18
7937.41
7938.94
7939.9
7941.9
7943.07
7943.86
7944.74
7945.67
7946.59
7947.49
7948.39
7949.28
7950.18
7951.07
7951.95
7952.83
7953.7
7954.56
7955.4
7956.23
7957.05
7957.85
7958.63
7959.39
7960.13
7960.84
7961.54
7962.21
7962.86
7963.48
7964.07
7964.64
7965.18
7965.7
7966.18
7966.64
7967.06
7967.45
7967.82
7968.14
7968.44
7968.7
7968.93
7969.13
7969.29
7969.41
7969.5
7969.54
7969.55
7969.53
7969.46
7969.36
7969.22
7969.03
7968.81
7968.55
7968.24
7967.9
7967.51
7967.08
7966.61
7966.1
7965.54
7964.94
7964.3
7963.62
7962.89
7962.11
7961.3
7960.43
7959.53
7958.58
7957.58
7956.54
7955.46
7954.32
7953.15
7951.93
7950.66
7949.35
7947.99
7946.59
7945.14
7943.64
7942.09
7940.5
7939.05
7936.32
7188.61
7197
7203.55
7210.26
7217.15
7224.18
7231.5
7238.8
7246.13
7253.22
7259.93
7266.3
7272.73
7279.23
7285.11
7290.87
7297.22
7304.75
7313.25
7322.16
7330.94
7339.42
7347.59
7355.5
7363.25
7370.89
7378.4
7385.82
7393.21
7400.68
7408.39
7416.4
7424.69
7433.27
7441.99
7450.65
7459.14
7467.44
7475.63
7483.68
7491.61
7499.77
7507.92
7516.22
7524.34
7532.34
7540.23
7547.9
7555.79
7563.75
7571.81
7579.69
7587.47
7595.14
7602.63
7610.27
7617.9
7625.63
7633.21
7640.68
7648.09
7655.43
7662.65
7669.66
7676.81
7683.94
7691.11
7698
7704.59
7711.22
7717.83
7724.38
7730.98
7737.46
7743.75
7749.93
7755.87
7761.81
7767.68
7773.71
7780.08
7786.47
7792.68
7798.16
7802.32
7810.62
7819.42
7826.59
7833.83
7840.39
7847.19
7853.41
7860.66
7867.67
7874.63
7881.35
7888.2
7895.06
7901.83
7908.47
7914.85
7921.2
7927.32
7933.76
7940.3
7946.29
7952.14
7958.11
7963.61
7969.91
7976.09
7982.27
7988.09
7993.82
7999.38
8004.97
8010.46
8016.04
8021.59
8027.1
8032.48
8037.8
8042.92
8048.3
8053.75
8059.09
8064.39
8069.66
8074.9
8080.16
8085.25
8090.3
8095.17
8100.07
8104.91
8109.8
8114.59
8119.26
8123.77
8128.24
8132.69
8137.1
8141.41
8145.59
8149.64
8153.69
8157.67
8161.65
8165.5
8169.22
8172.84
8176.46
8180.06
8183.63
8187.05
8190.33
8193.65
8196.98
8200.2
8203.31
8206.36
8209.41
8212.42
8215.32
8218.22
8221.06
8223.79
8226.39
8228.96
8231.51
8233.97
8236.26
8238.45
8240.58
8242.64
8244.61
8246.43
8248.11
8249.63
8251.01
8252.31
8253.47
8254.53
8255.45
8256.17
8256.72
8257.05
8257.28
8257.38
8257.34
8257.08
8256.63
8255.96
8255.16
8254.2
8253.09
8251.76
8250.2
8248.46
8246.57
8244.53
8242.28
8239.83
8237.17
8234.36
8231.39
8228.25
8224.91
8221.39
8217.69
8213.9
8209.96
8205.84
8201.57
8197.15
8192.56
8187.88
8183.11
8178.24
8173.23
8168.11
8162.86
8157.53
8152.14
8146.68
8141.17
8135.57
8129.9
8124.16
8118.37
8112.58
8106.77
8100.91
8095.02
8089.1
8083.16
8077.2
8071.28
8065.36
8059.47
8053.59
8047.71
8041.84
8036.01
8030.19
8024.42
8018.7
8013.05
8007.43
8001.86
7996.33
7990.85
7985.45
7980.13
7974.86
7969.66
7964.51
7959.44
7954.49
7949.61
7944.79
7940.05
7935.39
7930.81
7926.32
7921.93
7917.65
7913.43
7909.31
7905.27
7901.32
7897.45
7893.68
7890
7886.41
7882.92
7879.51
7876.19
7872.95
7869.79
7866.7
7863.71
7860.81
7857.99
7855.24
7852.56
7849.96
7847.43
7844.98
7842.6
7840.29
7838.04
7835.87
7833.75
7831.71
7829.72
7827.79
7825.91
7824.09
7822.34
7820.64
7818.99
7817.39
7815.84
7814.35
7812.91
7811.52
7810.19
7808.9
7807.67
7806.49
7805.36
7804.28
7803.26
7802.28
7801.36
7800.48
7799.65
7798.87
7798.14
7797.45
7796.81
7796.22
7795.67
7795.17
7794.71
7794.3
7793.92
7793.59
7793.31
7793.06
7792.86
7792.69
7792.57
7792.48
7792.44
7792.43
7792.47
7792.54
7792.64
7792.79
7792.97
7793.18
7793.44
7793.72
7794.04
7794.39
7794.78
7795.2
7795.65
7796.13
7796.64
7797.17
7797.74
7798.34
7798.96
7799.6
7800.28
7800.97
7801.7
7802.44
7803.21
7804
7804.81
7805.64
7806.49
7807.36
7808.25
7809.16
7810.08
7811.02
7811.98
7812.95
7813.94
7814.94
7815.96
7816.99
7818.03
7819.08
7820.15
7821.23
7822.33
7823.43
7824.54
7825.67
7826.81
7827.95
7829.11
7830.28
7831.47
7832.66
7833.86
7835.08
7836.3
7837.54
7838.78
7840.04
7841.31
7842.59
7843.87
7845.17
7846.48
7847.81
7849.14
7850.48
7851.84
7853.2
7854.58
7855.97
7857.37
7858.77
7860.2
7861.63
7863.07
7864.52
7866
7867.45
7868.96
7870.42
7871.89
7873.37
7874.94
7876.42
7878.13
7879.58
7880.77
7882.23
7883.59
7885.05
7886.51
7887.98
7889.43
7890.93
7892.42
7893.94
7895.46
7897.02
7898.59
7900.17
7901.78
7903.37
7904.98
7906.58
7908.18
7909.8
7911.42
7913.03
7914.66
7916.27
7917.9
7919.5
7921.08
7922.68
7924.23
7925.83
7927.33
7928.98
7930.43
7931.96
7933.28
7934.93
7935.98
7938.17
7939.42
7940.3
7941.27
7942.3
7943.33
7944.37
7945.38
7946.36
7947.32
7948.26
7949.2
7950.13
7951.04
7951.94
7952.83
7953.72
7954.58
7955.44
7956.28
7957.11
7957.91
7958.7
7959.46
7960.21
7960.93
7961.64
7962.31
7962.97
7963.59
7964.2
7964.77
7965.32
7965.84
7966.32
7966.78
7967.21
7967.61
7967.97
7968.3
7968.6
7968.87
7969.1
7969.29
7969.45
7969.58
7969.67
7969.72
7969.73
7969.71
7969.65
7969.55
7969.41
7969.23
7969.01
7968.75
7968.44
7968.1
7967.71
7967.29
7966.82
7966.31
7965.75
7965.15
7964.51
7963.83
7963.1
7962.33
7961.51
7960.65
7959.74
7958.79
7957.8
7956.76
7955.67
7954.54
7953.37
7952.15
7950.89
7949.57
7948.22
7946.81
7945.36
7943.87
7942.32
7940.73
7939.28
7936.55
7187.27
7195.95
7202.53
7209.16
7216.03
7223
7230.26
7237.36
7244.38
7251.27
7257.79
7264.17
7270.79
7277.82
7284.54
7291.19
7298.23
7305.87
7313.94
7322.32
7330.68
7338.96
7347.07
7354.99
7362.75
7370.43
7378.06
7385.68
7393.34
7401.12
7409.04
7417.11
7425.48
7434.02
7442.64
7451.08
7459.38
7467.58
7475.62
7483.46
7491.65
7499.79
7508.05
7516.4
7524.51
7532.52
7540.49
7548.26
7555.99
7564.08
7572.09
7579.94
7587.73
7595.42
7602.85
7610.48
7618.22
7625.98
7633.55
7641.03
7648.46
7655.84
7663.11
7670.08
7677.35
7684.67
7691.78
7698.72
7705.49
7711.9
7718.54
7725.14
7731.68
7738.41
7744.96
7751.33
7757.55
7763.56
7769.73
7775.99
7782.3
7788.45
7794.68
7801.18
7807.99
7814.61
7820.82
7826.13
7829.86
7837.22
7846.85
7854.25
7861.07
7867.67
7874.16
7880.88
7888
7894.87
7901.94
7908.45
7915.09
7921.27
7927.76
7933.86
7940.19
7945.99
7952.61
7958.82
7964.76
7970.91
7976.66
7982.4
7988.35
7994.38
8000.09
8005.7
8011.26
8016.93
8022.46
8027.89
8033.31
8038.69
8043.96
8049.27
8054.53
8059.55
8064.62
8069.8
8075.09
8080.44
8085.53
8090.55
8095.39
8100.3
8105.17
8110.13
8114.92
8119.59
8124.15
8128.56
8132.98
8137.35
8141.72
8145.94
8150.01
8154.02
8158.03
8162.05
8165.85
8169.5
8173.16
8176.8
8180.48
8184.02
8187.37
8190.68
8193.98
8197.33
8200.6
8203.75
8206.74
8209.77
8212.76
8215.69
8218.62
8221.51
8224.24
8226.83
8229.41
8231.95
8234.46
8236.75
8238.96
8241.11
8243.16
8245.14
8247.04
8248.74
8250.3
8251.66
8252.97
8254.16
8255.27
8256.21
8256.95
8257.52
8257.86
8258.1
8258.19
8258.2
8258
8257.58
8256.96
8256.11
8255.15
8254.05
8252.77
8251.26
8249.52
8247.6
8245.54
8243.33
8240.88
8238.22
8235.42
8232.47
8229.3
8225.93
8222.36
8218.7
8214.9
8210.95
8206.82
8202.52
8198.05
8193.44
8188.75
8183.97
8179.07
8174.03
8168.88
8163.63
8158.24
8152.8
8147.29
8141.73
8136.13
8130.43
8124.67
8118.82
8112.99
8107.15
8101.26
8095.33
8089.36
8083.35
8077.39
8071.44
8065.53
8059.6
8053.66
8047.74
8041.82
8035.94
8030.12
8024.35
8018.64
8012.94
8007.28
8001.65
7996.09
7990.64
7985.24
7979.89
7974.59
7969.34
7964.18
7959.11
7954.15
7949.26
7944.43
7939.68
7935.01
7930.42
7925.9
7921.5
7917.21
7913
7908.86
7904.8
7900.84
7896.99
7893.24
7889.56
7885.96
7882.44
7879.02
7875.71
7872.48
7869.32
7866.23
7863.24
7860.34
7857.52
7854.77
7852.08
7849.49
7846.98
7844.54
7842.16
7839.85
7837.6
7835.41
7833.31
7831.27
7829.29
7827.37
7825.49
7823.67
7821.92
7820.23
7818.59
7816.98
7815.43
7813.95
7812.53
7811.15
7809.81
7808.52
7807.3
7806.13
7805.01
7803.93
7802.9
7801.93
7801.02
7800.15
7799.33
7798.55
7797.82
7797.14
7796.51
7795.92
7795.38
7794.88
7794.43
7794.02
7793.65
7793.33
7793.05
7792.81
7792.61
7792.45
7792.33
7792.25
7792.21
7792.21
7792.25
7792.33
7792.45
7792.6
7792.78
7793
7793.26
7793.55
7793.88
7794.24
7794.63
7795.05
7795.5
7795.98
7796.5
7797.04
7797.61
7798.21
7798.84
7799.49
7800.16
7800.87
7801.59
7802.34
7803.11
7803.91
7804.72
7805.56
7806.41
7807.28
7808.17
7809.08
7810.01
7810.95
7811.91
7812.88
7813.87
7814.88
7815.89
7816.92
7817.96
7819.02
7820.09
7821.17
7822.26
7823.36
7824.48
7825.6
7826.73
7827.88
7829.04
7830.21
7831.39
7832.58
7833.78
7834.99
7836.21
7837.44
7838.69
7839.94
7841.21
7842.48
7843.77
7845.07
7846.37
7847.69
7849.03
7850.36
7851.72
7853.08
7854.45
7855.83
7857.21
7858.63
7860.04
7861.49
7862.92
7864.4
7865.84
7867.28
7868.74
7870.3
7871.76
7873.49
7874.93
7876.07
7877.52
7878.86
7880.32
7881.75
7883.23
7884.66
7886.16
7887.62
7889.13
7890.62
7892.17
7893.7
7895.3
7896.85
7898.43
7900
7901.6
7903.19
7904.79
7906.43
7908.02
7909.68
7911.28
7912.99
7914.58
7916.27
7917.86
7919.55
7921.1
7922.82
7924.38
7925.85
7927.45
7928.85
7930.61
7931.73
7934.1
7935.42
7936.37
7937.43
7938.55
7939.68
7940.83
7941.95
7943.05
7944.13
7945.17
7946.19
7947.2
7948.18
7949.15
7950.1
7951.04
7951.97
7952.89
7953.79
7954.67
7955.54
7956.39
7957.23
7958.04
7958.84
7959.61
7960.37
7961.1
7961.8
7962.49
7963.15
7963.78
7964.39
7964.97
7965.52
7966.04
7966.54
7967
7967.44
7967.84
7968.21
7968.54
7968.85
7969.12
7969.35
7969.55
7969.72
7969.84
7969.94
7969.99
7970.01
7969.99
7969.93
7969.83
7969.7
7969.52
7969.3
7969.05
7968.75
7968.41
7968.02
7967.6
7967.13
7966.62
7966.07
7965.47
7964.84
7964.15
7963.43
7962.65
7961.84
7960.98
7960.08
7959.13
7958.13
7957.09
7956.01
7954.88
7953.71
7952.49
7951.22
7949.91
7948.56
7947.15
7945.7
7944.21
7942.66
7941.07
7939.63
7936.9
7185.71
7194.64
7201.18
7207.86
7214.74
7221.68
7228.79
7235.79
7242.66
7249.59
7256.29
7262.59
7269.22
7276.46
7283.86
7291
7298.37
7306.04
7313.97
7322.05
7330.16
7338.25
7346.25
7354.18
7362.06
7369.9
7377.71
7385.51
7393.36
7401.24
7409.13
7417.33
7425.64
7434.16
7442.65
7451
7459.28
7467.37
7475.17
7483.41
7491.63
7499.97
7508.44
7516.62
7524.68
7532.71
7540.72
7548.68
7556.58
7564.47
7572.38
7580.24
7588.05
7595.81
7603.35
7610.92
7618.72
7626.43
7633.99
7641.49
7648.95
7656.37
7663.71
7671
7678.24
7685.42
7692.51
7699.52
7706.43
7712.98
7719.45
7726.12
7732.73
7739.54
7746.34
7752.85
7759.27
7765.59
7771.63
7778
7784.48
7790.87
7797.19
7803.46
7809.67
7815.91
7822.25
7828.38
7834.71
7841.16
7846.93
7850.96
7858.2
7868.26
7875.35
7881.45
7888.17
7894.58
7901.73
7908.87
7915.45
7922.02
7928.29
7934.57
7940.89
7947.2
7953.41
7959.48
7965.35
7971.3
7977.39
7983.98
7989.8
7995.33
8000.71
8006.54
8012.28
8017.94
8023.44
8028.74
8034.2
8039.61
8044.94
8050.25
8055.51
8060.66
8065.77
8070.67
8075.66
8080.85
8085.93
8090.97
8095.81
8100.82
8105.77
8110.74
8115.46
8120.12
8124.68
8129.16
8133.46
8137.81
8142.1
8146.3
8150.59
8154.69
8158.69
8162.57
8166.27
8169.92
8173.62
8177.31
8181.03
8184.52
8187.8
8191.15
8194.47
8197.81
8201.14
8204.3
8207.32
8210.29
8213.29
8216.23
8219.21
8222.1
8224.83
8227.4
8230.01
8232.55
8235.08
8237.5
8239.68
8241.83
8243.9
8245.9
8247.84
8249.59
8251.14
8252.52
8253.87
8255.13
8256.29
8257.24
8258.01
8258.6
8258.95
8259.21
8259.33
8259.34
8259.21
8258.83
8258.26
8257.43
8256.44
8255.36
8254.12
8252.63
8250.94
8248.99
8246.9
8244.64
8242.26
8239.69
8236.88
8233.88
8230.69
8227.25
8223.73
8220.06
8216.28
8212.29
8208.12
8203.77
8199.24
8194.65
8189.95
8185.15
8180.19
8175.05
8169.84
8164.6
8159.25
8153.77
8148.19
8142.5
8136.8
8131.05
8125.25
8119.46
8113.61
8107.69
8101.73
8095.74
8089.68
8083.66
8077.66
8071.69
8065.73
8059.74
8053.75
8047.74
8041.81
8035.91
8030.07
8024.29
8018.53
8012.78
8007.06
8001.4
7995.82
7990.33
7984.92
7979.55
7974.21
7968.93
7963.76
7958.68
7953.7
7948.78
7943.93
7939.16
7934.48
7929.88
7925.35
7920.93
7916.64
7912.42
7908.27
7904.19
7900.23
7896.38
7892.63
7888.95
7885.35
7881.81
7878.39
7875.06
7871.82
7868.7
7865.63
7862.64
7859.72
7856.87
7854.12
7851.45
7848.88
7846.38
7843.94
7841.56
7839.24
7836.99
7834.82
7832.72
7830.7
7828.72
7826.8
7824.93
7823.11
7821.37
7819.69
7818.03
7816.43
7814.9
7813.43
7812.01
7810.64
7809.3
7808.03
7806.81
7805.65
7804.54
7803.46
7802.43
7801.47
7800.57
7799.71
7798.89
7798.12
7797.39
7796.72
7796.1
7795.53
7794.99
7794.5
7794.05
7793.64
7793.28
7792.97
7792.7
7792.47
7792.28
7792.13
7792.01
7791.94
7791.91
7791.93
7791.98
7792.06
7792.18
7792.34
7792.53
7792.75
7793.02
7793.32
7793.66
7794.03
7794.42
7794.85
7795.31
7795.8
7796.31
7796.86
7797.44
7798.05
7798.68
7799.34
7800.02
7800.73
7801.46
7802.21
7802.99
7803.79
7804.6
7805.44
7806.3
7807.18
7808.07
7808.98
7809.91
7810.86
7811.81
7812.79
7813.78
7814.79
7815.81
7816.84
7817.88
7818.94
7820
7821.08
7822.17
7823.27
7824.38
7825.5
7826.64
7827.79
7828.94
7830.11
7831.28
7832.47
7833.67
7834.88
7836.1
7837.32
7838.56
7839.81
7841.08
7842.35
7843.63
7844.93
7846.22
7847.54
7848.87
7850.21
7851.55
7852.9
7854.27
7855.65
7857.05
7858.45
7859.89
7861.3
7862.71
7864.14
7865.68
7867.11
7868.83
7870.24
7871.34
7872.77
7874.07
7875.51
7876.93
7878.38
7879.79
7881.27
7882.72
7884.21
7885.7
7887.22
7888.74
7890.33
7891.86
7893.43
7894.98
7896.51
7898.1
7899.69
7901.29
7902.9
7904.55
7906.18
7907.89
7909.52
7911.23
7912.84
7914.58
7916.17
7917.97
7919.54
7921.13
7922.73
7924.25
7925.9
7927.28
7929.71
7931.12
7932.12
7933.26
7934.48
7935.7
7936.96
7938.19
7939.39
7940.56
7941.7
7942.82
7943.92
7945
7946.06
7947.1
7948.12
7949.12
7950.1
7951.07
7952.02
7952.96
7953.88
7954.78
7955.67
7956.54
7957.39
7958.21
7959.02
7959.81
7960.57
7961.31
7962.03
7962.72
7963.39
7964.03
7964.65
7965.24
7965.8
7966.33
7966.83
7967.3
7967.74
7968.15
7968.52
7968.86
7969.17
7969.45
7969.69
7969.9
7970.07
7970.2
7970.3
7970.36
7970.39
7970.37
7970.32
7970.22
7970.09
7969.92
7969.7
7969.45
7969.15
7968.81
7968.43
7968.01
7967.55
7967.04
7966.49
7965.9
7965.26
7964.58
7963.86
7963.09
7962.27
7961.42
7960.51
7959.57
7958.58
7957.54
7956.46
7955.33
7954.15
7952.94
7951.68
7950.37
7949.01
7947.61
7946.16
7944.66
7943.12
7941.53
7940.09
7937.35
7183.97
7193.02
7199.58
7206.3
7213.2
7220.13
7227.17
7234.15
7240.95
7247.78
7254.59
7261.05
7267.58
7275.01
7282.92
7290.36
7297.9
7305.61
7313.45
7321.4
7329.4
7337.41
7345.41
7353.38
7361.33
7369.28
7377.24
7385.21
7393.23
7401.33
7409.38
7417.46
7425.98
7434.38
7442.73
7451.05
7459.33
7467.35
7475.16
7483.52
7492.17
7500.55
7508.7
7516.78
7524.85
7532.91
7540.95
7548.95
7556.9
7564.81
7572.7
7580.57
7588.41
7596.22
7603.99
7611.7
7619.23
7626.76
7634.41
7642.03
7649.54
7657
7664.4
7671.75
7679.04
7686.24
7693.38
7700.47
7707.47
7714.29
7720.6
7727.27
7734
7741.09
7747.89
7754.46
7760.98
7767.46
7773.9
7780.3
7786.53
7792.74
7799.21
7805.7
7812.15
7818.58
7824.8
7830.67
7836.78
7842.85
7849.34
7856.04
7862.75
7868.41
7871.57
7878.09
7888.82
7896.33
7902.59
7909.21
7915.42
7921.89
7928.9
7934.99
7941.44
7947.56
7954.04
7960.11
7966.33
7972.37
7978.41
7984.46
7990.13
7996.27
8002.5
8007.91
8013.33
8018.67
8024.26
8029.73
8035.2
8040.59
8045.91
8051.3
8056.53
8061.7
8066.79
8071.74
8076.78
8081.93
8086.85
8091.68
8096.39
8101.14
8105.99
8111.06
8115.94
8120.69
8125.29
8129.82
8134.17
8138.37
8142.65
8146.96
8151.23
8155.33
8159.3
8163.2
8166.83
8170.52
8174.23
8178.08
8181.72
8185.21
8188.45
8191.8
8195.14
8198.58
8201.86
8205.02
8208.1
8211.01
8214
8217
8220.02
8222.89
8225.64
8228.2
8230.81
8233.38
8235.98
8238.41
8240.64
8242.74
8244.85
8246.95
8248.89
8250.64
8252.19
8253.61
8255.03
8256.4
8257.56
8258.51
8259.32
8259.96
8260.37
8260.61
8260.77
8260.8
8260.73
8260.39
8259.86
8259.13
8258.12
8257.03
8255.8
8254.35
8252.68
8250.76
8248.64
8246.4
8244.05
8241.47
8238.65
8235.64
8232.35
8228.98
8225.46
8221.85
8218.01
8213.97
8209.74
8205.29
8200.8
8196.2
8191.51
8186.61
8181.54
8176.37
8171.13
8165.84
8160.44
8154.92
8149.3
8143.57
8137.75
8131.94
8126.07
8120.21
8114.32
8108.33
8102.32
8096.28
8090.2
8084.05
8078
8072
8065.97
8059.9
8053.8
8047.79
8041.81
8035.91
8030.05
8024.19
8018.36
8012.56
8006.77
8001.09
7995.48
7989.99
7984.53
7979.11
7973.75
7968.42
7963.22
7958.15
7953.13
7948.18
7943.29
7938.47
7933.76
7929.2
7924.69
7920.27
7915.93
7911.68
7907.49
7903.42
7899.48
7895.63
7891.86
7888.17
7884.57
7881.04
7877.59
7874.26
7871.03
7867.91
7864.84
7861.85
7858.94
7856.09
7853.33
7850.68
7848.12
7845.61
7843.17
7840.78
7838.46
7836.23
7834.09
7832
7829.96
7827.99
7826.07
7824.2
7822.4
7820.67
7818.99
7817.36
7815.77
7814.23
7812.78
7811.36
7810
7808.67
7807.4
7806.2
7805.05
7803.94
7802.88
7801.86
7800.91
7800.02
7799.16
7798.35
7797.58
7796.87
7796.22
7795.6
7795.02
7794.5
7794.02
7793.58
7793.19
7792.84
7792.52
7792.26
7792.05
7791.87
7791.73
7791.62
7791.57
7791.55
7791.57
7791.63
7791.72
7791.85
7792.01
7792.21
7792.45
7792.72
7793.04
7793.38
7793.76
7794.16
7794.6
7795.07
7795.57
7796.09
7796.64
7797.23
7797.85
7798.49
7799.15
7799.83
7800.55
7801.29
7802.05
7802.83
7803.63
7804.46
7805.3
7806.16
7807.04
7807.94
7808.86
7809.79
7810.74
7811.7
7812.68
7813.67
7814.68
7815.7
7816.73
7817.77
7818.83
7819.9
7820.98
7822.07
7823.17
7824.27
7825.39
7826.52
7827.67
7828.82
7829.98
7831.15
7832.33
7833.53
7834.74
7835.95
7837.17
7838.41
7839.66
7840.92
7842.18
7843.46
7844.74
7846.05
7847.36
7848.68
7850.01
7851.37
7852.7
7854.1
7855.44
7856.76
7858.17
7859.53
7861.07
7862.45
7864.19
7865.56
7866.61
7868
7869.27
7870.68
7872.08
7873.51
7874.89
7876.35
7877.76
7879.24
7880.7
7882.21
7883.7
7885.29
7886.78
7888.35
7889.88
7891.36
7892.93
7894.46
7896.05
7897.64
7899.3
7900.92
7902.64
7904.27
7906.01
7907.62
7909.43
7911.01
7912.93
7914.47
7916.27
7917.78
7919.68
7921
7923.61
7925.11
7926.1
7927.34
7928.67
7930.01
7931.36
7932.74
7934.07
7935.37
7936.64
7937.89
7939.11
7940.31
7941.49
7942.64
7943.77
7944.89
7945.98
7947.05
7948.1
7949.13
7950.14
7951.14
7952.12
7953.08
7954.02
7954.94
7955.84
7956.73
7957.59
7958.43
7959.26
7960.06
7960.83
7961.58
7962.31
7963.02
7963.7
7964.35
7964.97
7965.57
7966.14
7966.68
7967.19
7967.67
7968.11
7968.53
7968.92
7969.27
7969.59
7969.87
7970.12
7970.33
7970.51
7970.65
7970.76
7970.82
7970.85
7970.84
7970.79
7970.71
7970.58
7970.41
7970.2
7969.95
7969.65
7969.32
7968.95
7968.53
7968.07
7967.57
7967.02
7966.43
7965.8
7965.12
7964.4
7963.63
7962.82
7961.97
7961.07
7960.12
7959.13
7958.1
7957.01
7955.89
7954.72
7953.5
7952.24
7950.93
7949.58
7948.18
7946.73
7945.23
7943.69
7942.1
7940.66
7937.93
7181.98
7191.09
7197.71
7204.48
7211.42
7218.35
7225.32
7232.29
7239.08
7245.96
7252.88
7259.7
7266.33
7273.57
7281.72
7289.39
7297.02
7304.76
7312.6
7320.52
7328.49
7336.5
7344.52
7352.54
7360.56
7368.59
7376.65
7384.74
7392.89
7401.09
7409.34
7417.62
7425.93
7434.25
7442.59
7450.92
7459.26
7467.55
7475.8
7484.12
7492.42
7500.63
7508.77
7516.86
7524.97
7533.09
7541.19
7549.23
7557.21
7565.13
7573.01
7580.89
7588.79
7596.67
7604.49
7612.23
7619.68
7626.81
7634.65
7642.58
7650.23
7657.72
7665.18
7672.57
7679.91
7687.17
7694.37
7701.52
7708.6
7715.61
7722.37
7728.56
7735.55
7742.69
7749.5
7756.15
7762.75
7769.32
7775.87
7782.37
7788.62
7794.78
7801.22
7807.94
7814.5
7820.89
7827.19
7833.22
7839.46
7845.98
7852.39
7858.5
7864.54
7870.51
7876.5
7883.63
7889.82
7892.97
7899.33
7910.29
7917.64
7923.13
7929.6
7935.65
7942.03
7948.74
7955.16
7961.23
7967.08
7972.74
7979.26
7985.35
7991.54
7997.22
8003.02
8008.31
8014.34
8020.55
8025.77
8031.02
8036.04
8041.56
8047.16
8052.57
8057.85
8062.84
8067.94
8072.95
8078.1
8083.16
8088.13
8093.06
8097.89
8102.71
8107.16
8111.67
8116.39
8121.27
8125.99
8130.55
8135.03
8139.3
8143.53
8147.82
8152.02
8156.09
8160.1
8163.95
8167.55
8171.25
8175.17
8178.94
8182.52
8186.02
8189.34
8192.57
8196.07
8199.46
8202.7
8205.87
8208.99
8211.94
8214.91
8217.99
8220.97
8223.82
8226.6
8229.22
8231.79
8234.5
8237.06
8239.48
8241.78
8243.87
8246.09
8248.2
8250.13
8251.9
8253.5
8254.95
8256.52
8257.9
8259.06
8260.05
8260.83
8261.49
8262.1
8262.48
8262.55
8262.56
8262.47
8262.25
8261.78
8261.1
8260.23
8259.13
8257.71
8256.23
8254.58
8252.84
8250.86
8248.64
8246.24
8243.62
8240.78
8237.66
8234.45
8231.08
8227.64
8223.97
8220.06
8215.99
8211.75
8207.25
8202.69
8198.02
8193.29
8188.37
8183.29
8178.01
8172.71
8167.37
8161.88
8156.26
8150.54
8144.83
8139
8133.04
8127.06
8121.09
8115.14
8109.11
8103.02
8096.91
8090.75
8084.51
8078.42
8072.36
8066.25
8060.13
8053.99
8047.86
8041.82
8035.89
8029.96
8024.03
8018.15
8012.3
8006.44
8000.72
7995.08
7989.55
7984.04
7978.58
7973.19
7967.83
7962.57
7957.47
7952.42
7947.44
7942.52
7937.65
7932.93
7928.36
7923.85
7919.41
7915.05
7910.78
7906.58
7902.5
7898.55
7894.7
7890.91
7887.21
7883.6
7880.08
7876.63
7873.29
7870.09
7866.94
7863.87
7860.89
7857.99
7855.16
7852.39
7849.71
7847.18
7844.67
7842.24
7839.86
7837.54
7835.3
7833.18
7831.1
7829.07
7827.09
7825.19
7823.34
7821.56
7819.82
7818.14
7816.51
7814.94
7813.44
7811.98
7810.57
7809.22
7807.91
7806.65
7805.45
7804.31
7803.21
7802.16
7801.18
7800.24
7799.34
7798.49
7797.69
7796.94
7796.25
7795.6
7794.99
7794.43
7793.91
7793.44
7793.02
7792.64
7792.3
7792.01
7791.75
7791.54
7791.37
7791.25
7791.17
7791.12
7791.11
7791.14
7791.21
7791.31
7791.45
7791.63
7791.85
7792.1
7792.38
7792.7
7793.05
7793.44
7793.86
7794.3
7794.78
7795.29
7795.82
7796.38
7796.98
7797.6
7798.25
7798.92
7799.61
7800.34
7801.09
7801.85
7802.64
7803.45
7804.28
7805.13
7806
7806.89
7807.79
7808.71
7809.65
7810.6
7811.57
7812.55
7813.54
7814.55
7815.57
7816.61
7817.65
7818.71
7819.77
7820.85
7821.94
7823.04
7824.14
7825.26
7826.39
7827.53
7828.68
7829.84
7831
7832.18
7833.37
7834.57
7835.77
7836.99
7838.23
7839.48
7840.72
7841.98
7843.25
7844.53