/*--------------------------------*- C++ -*----------------------------------*\
| =========                 |                                                 |
| \\      /  F ield         | OpenFOAM: The Open Source CFD Toolbox           |
|  \\    /   O peration     | Version:  v2006                                 |
|   \\  /    A nd           | Website:  www.openfoam.com                      |
|    \\/     M anipulation  |                                                 |
\*---------------------------------------------------------------------------*/
FoamFile
{
    version     2.0;
    format      ascii;
    class       surfaceScalarField;
    location    "7.9";
    object      phi;
}
// * * * * * * * * * * * * * * * * * * * * * * * * * * * * * * * * * * * * * //

dimensions      [0 3 -1 0 0 0 0];
oriented        oriented;


internalField   nonuniform List<scalar> 
65390
(
-6.7118e-05
3.04927e-06
-6.79949e-05
8.76429e-07
-6.92706e-05
1.27526e-06
-7.09087e-05
1.63775e-06
-7.26486e-05
1.73963e-06
-7.38434e-05
1.19446e-06
-7.29941e-05
-8.49462e-07
-6.82585e-05
-4.73585e-06
-5.9056e-05
-9.20275e-06
-4.83541e-05
-1.0702e-05
-3.8303e-05
-1.00513e-05
-2.85918e-05
-9.7114e-06
-1.89641e-05
-9.6279e-06
-9.3327e-06
-9.63149e-06
-1.50809e-07
-9.18201e-06
6.85382e-06
-7.00472e-06
9.42853e-06
-2.57478e-06
7.65764e-06
1.77084e-06
3.47484e-06
4.18276e-06
-1.37646e-06
4.85128e-06
-5.23194e-06
3.85547e-06
-7.19281e-06
1.96088e-06
-7.17528e-06
-1.75073e-08
-5.78934e-06
-1.38591e-06
-3.07015e-06
-2.71916e-06
6.84294e-07
-3.75441e-06
4.98598e-06
-4.30165e-06
9.40056e-06
-4.41454e-06
1.32986e-05
-3.89798e-06
1.60875e-05
-2.78888e-06
1.75981e-05
-1.51061e-06
1.77976e-05
-1.99382e-07
1.66664e-05
1.13119e-06
1.44053e-05
2.26109e-06
1.09734e-05
3.43198e-06
6.8263e-06
4.14713e-06
3.32607e-06
3.50027e-06
1.20905e-06
2.11705e-06
-3.11623e-08
1.24025e-06
-1.26059e-06
1.22946e-06
-2.70894e-06
1.44838e-06
-3.84921e-06
1.1403e-06
-4.06091e-06
2.11727e-07
-3.31389e-06
-7.46991e-07
-2.01245e-06
-1.30142e-06
-7.08025e-07
-1.30441e-06
7.66523e-08
-7.84662e-07
2.9974e-07
-2.23077e-07
4.74199e-07
-1.74454e-07
9.9677e-07
-5.22571e-07
2.15368e-06
-1.15692e-06
3.60992e-06
-1.45625e-06
4.88019e-06
-1.27029e-06
5.62767e-06
-7.47505e-07
6.06458e-06
-4.3694e-07
6.5138e-06
-4.49243e-07
7.21507e-06
-7.01301e-07
8.2526e-06
-1.03756e-06
9.54645e-06
-1.29388e-06
1.10313e-05
-1.48492e-06
1.27945e-05
-1.7632e-06
1.4737e-05
-1.94245e-06
1.64614e-05
-1.72449e-06
1.75783e-05
-1.11691e-06
1.80802e-05
-5.01933e-07
1.82096e-05
-1.29348e-07
1.831e-05
-1.00416e-07
1.83984e-05
-8.83777e-08
1.83522e-05
4.6173e-08
1.81512e-05
2.01014e-07
1.79879e-05
1.63287e-07
1.80997e-05
-1.11785e-07
1.85166e-05
-4.16871e-07
1.90569e-05
-5.40306e-07
1.95378e-05
-4.80848e-07
1.9774e-05
-2.36133e-07
1.94196e-05
3.54369e-07
1.77448e-05
1.67481e-06
1.61475e-05
1.59731e-06
1.55434e-05
6.04059e-07
1.50208e-05
5.22672e-07
1.50339e-05
-1.30761e-08
1.49393e-05
9.45815e-08
1.51158e-05
-1.76543e-07
1.50911e-05
2.46992e-08
1.46162e-05
4.74946e-07
1.38485e-05
7.67635e-07
1.29632e-05
8.85329e-07
1.22641e-05
6.9905e-07
1.15369e-05
7.2725e-07
1.1058e-05
4.78857e-07
1.07862e-05
2.71771e-07
1.04275e-05
3.58764e-07
1.0057e-05
3.70525e-07
9.46801e-06
5.88981e-07
8.80494e-06
6.63073e-07
7.66669e-06
1.13825e-06
6.3298e-06
1.33689e-06
4.01647e-06
2.31332e-06
1.05864e-06
2.95782e-06
-1.64372e-06
2.70236e-06
-3.40733e-06
1.76361e-06
-3.83121e-06
4.23892e-07
-4.13237e-06
3.01173e-07
-3.80809e-06
-3.24258e-07
-3.33287e-06
-4.75204e-07
-3.35459e-06
2.17526e-08
-3.71976e-06
3.65198e-07
-4.11752e-06
3.97792e-07
-4.17313e-06
5.56414e-08
-4.23126e-06
5.8157e-08
-4.14419e-06
-8.70508e-08
-3.98257e-06
-1.61598e-07
-3.90614e-06
-7.64067e-08
-3.99521e-06
8.90845e-08
-4.16795e-06
1.72758e-07
-4.64224e-06
4.74308e-07
-5.22536e-06
5.83142e-07
-5.60254e-06
3.772e-07
-5.70799e-06
1.05479e-07
-5.61982e-06
-8.81462e-08
-5.62839e-06
8.60579e-09
-5.51282e-06
-1.1554e-07
-5.35176e-06
-1.61027e-07
-5.2933e-06
-5.84234e-08
-5.25347e-06
-3.9795e-08
-5.22842e-06
-2.50082e-08
-5.22355e-06
-4.82775e-09
-5.17497e-06
-4.85416e-08
-5.09044e-06
-8.44801e-08
-5.00863e-06
-8.17765e-08
-4.91374e-06
-9.48472e-08
-4.83627e-06
-7.74268e-08
-4.77472e-06
-6.1514e-08
-4.7205e-06
-5.41886e-08
-4.62994e-06
-9.0524e-08
-4.497e-06
-1.3291e-07
-4.3551e-06
-1.41866e-07
-4.21008e-06
-1.45001e-07
-4.06913e-06
-1.4092e-07
-3.91865e-06
-1.50451e-07
-3.756e-06
-1.62623e-07
-3.58004e-06
-1.75934e-07
-3.40548e-06
-1.7454e-07
-3.24834e-06
-1.57112e-07
-3.09045e-06
-1.5786e-07
-2.92382e-06
-1.66603e-07
-2.73764e-06
-1.8616e-07
-2.53079e-06
-2.06818e-07
-2.32319e-06
-2.07581e-07
-2.13389e-06
-1.89275e-07
-1.9535e-06
-1.80378e-07
-1.7526e-06
-2.00877e-07
-1.52661e-06
-2.25985e-07
-1.29526e-06
-2.31334e-07
-1.06727e-06
-2.27981e-07
-8.42308e-07
-2.24961e-07
-6.17166e-07
-2.25141e-07
-3.87266e-07
-2.29902e-07
-1.51572e-07
-2.35698e-07
8.87518e-08
-2.40331e-07
3.34252e-07
-2.4551e-07
5.80121e-07
-2.45882e-07
8.19105e-07
-2.38999e-07
1.05993e-06
-2.40842e-07
1.30944e-06
-2.49533e-07
1.55878e-06
-2.49361e-07
1.79691e-06
-2.38159e-07
2.03332e-06
-2.36436e-07
2.27798e-06
-2.44686e-07
2.52782e-06
-2.49872e-07
2.77199e-06
-2.44193e-07
3.0027e-06
-2.30738e-07
3.23197e-06
-2.293e-07
3.46975e-06
-2.37808e-07
3.71272e-06
-2.42993e-07
3.95608e-06
-2.4338e-07
4.19229e-06
-2.36226e-07
4.41381e-06
-2.21545e-07
4.6292e-06
-2.15396e-07
4.84485e-06
-2.15672e-07
5.06299e-06
-2.18145e-07
5.28598e-06
-2.23001e-07
5.50764e-06
-2.21673e-07
5.72352e-06
-2.15895e-07
5.92926e-06
-2.05756e-07
6.12387e-06
-1.94624e-07
6.31787e-06
-1.94016e-07
6.51449e-06
-1.96636e-07
6.709e-06
-1.94535e-07
6.89315e-06
-1.84169e-07
7.06664e-06
-1.73519e-07
7.23239e-06
-1.65776e-07
7.39531e-06
-1.62934e-07
7.55798e-06
-1.62692e-07
7.71894e-06
-1.6098e-07
7.87335e-06
-1.54428e-07
8.01408e-06
-1.40751e-07
8.14109e-06
-1.27019e-07
8.26046e-06
-1.19378e-07
8.38005e-06
-1.19592e-07
8.49916e-06
-1.19119e-07
8.61073e-06
-1.11561e-07
8.71136e-06
-1.0063e-07
8.80119e-06
-8.98199e-08
8.88376e-06
-8.25643e-08
8.96429e-06
-8.05197e-08
9.04043e-06
-7.61218e-08
9.10497e-06
-6.45239e-08
9.15253e-06
-4.75327e-08
9.19942e-06
-4.68751e-08
9.24859e-06
-4.91373e-08
9.29381e-06
-4.51959e-08
9.33197e-06
-3.81268e-08
9.35588e-06
-2.3875e-08
9.36559e-06
-9.67886e-09
9.36922e-06
-3.59078e-09
9.37586e-06
-6.61133e-09
9.38351e-06
-7.61621e-09
9.38701e-06
-3.46656e-09
9.3833e-06
3.7312e-09
9.36627e-06
1.70497e-08
9.3393e-06
2.69944e-08
9.30826e-06
3.10514e-08
9.27863e-06
2.96372e-08
9.24977e-06
2.88746e-08
9.2182e-06
3.15749e-08
9.1812e-06
3.70124e-08
9.13219e-06
4.90261e-08
9.07572e-06
5.64745e-08
9.01673e-06
5.90029e-08
8.95962e-06
5.7116e-08
8.90465e-06
5.49865e-08
8.84645e-06
5.82084e-08
8.78287e-06
6.3596e-08
8.71471e-06
6.81777e-08
8.64273e-06
7.19906e-08
8.56528e-06
7.74588e-08
8.48436e-06
8.09346e-08
8.40096e-06
8.34154e-08
8.31608e-06
8.48951e-08
8.23435e-06
8.1749e-08
8.15131e-06
8.30508e-08
8.06492e-06
8.64154e-08
7.97353e-06
9.14102e-08
7.87289e-06
1.00667e-07
7.76822e-06
1.04696e-07
7.66996e-06
9.82808e-08
7.57271e-06
9.72756e-08
7.47172e-06
1.01021e-07
7.3656e-06
1.06145e-07
7.25228e-06
1.13343e-07
7.1358e-06
1.16501e-07
7.01918e-06
1.16643e-07
6.90237e-06
1.16826e-07
6.78436e-06
1.18024e-07
6.6622e-06
1.22178e-07
6.53523e-06
1.26988e-07
6.40529e-06
1.29948e-07
6.27318e-06
1.32125e-07
6.14089e-06
1.32308e-07
6.00857e-06
1.32331e-07
5.87259e-06
1.35987e-07
5.73013e-06
1.4247e-07
5.58146e-06
1.48677e-07
5.42947e-06
1.52002e-07
5.28201e-06
1.47463e-07
5.13587e-06
1.46147e-07
4.98716e-06
1.4872e-07
4.83626e-06
1.50906e-07
4.68209e-06
1.5417e-07
4.52292e-06
1.59181e-07
4.36025e-06
1.62666e-07
4.19689e-06
1.63366e-07
4.0357e-06
1.61192e-07
3.87599e-06
1.59712e-07
3.71579e-06
1.6019e-07
3.55517e-06
1.60604e-07
3.3947e-06
1.60453e-07
3.23303e-06
1.61656e-07
3.06735e-06
1.65657e-07
2.89981e-06
1.6752e-07
2.73595e-06
1.63835e-07
2.57629e-06
1.59645e-07
2.41738e-06
1.58895e-07
2.25849e-06
1.58885e-07
2.10062e-06
1.57866e-07
1.94287e-06
1.57748e-07
1.78466e-06
1.58217e-07
1.62791e-06
1.56761e-07
1.4743e-06
1.53618e-07
1.32407e-06
1.50242e-07
1.17617e-06
1.47902e-07
1.0304e-06
1.45776e-07
8.86615e-07
1.43792e-07
7.4374e-07
1.4288e-07
6.02862e-07
1.40881e-07
4.65342e-07
1.37523e-07
3.31479e-07
1.33865e-07
2.01222e-07
1.30261e-07
7.44199e-08
1.26807e-07
-5.04719e-08
1.24897e-07
-1.73208e-07
1.22741e-07
-2.92107e-07
1.18904e-07
-4.06999e-07
1.14896e-07
-5.17982e-07
1.10986e-07
-6.26236e-07
1.08256e-07
-7.31611e-07
1.05374e-07
-8.33545e-07
1.01934e-07
-9.31672e-07
9.81242e-08
-1.02606e-06
9.4385e-08
-1.11782e-06
9.17594e-08
-1.20788e-06
9.00592e-08
-1.29571e-06
8.78317e-08
-1.38005e-06
8.43416e-08
-1.46121e-06
8.11728e-08
-1.54024e-06
7.90341e-08
-1.6175e-06
7.726e-08
-1.69331e-06
7.58193e-08
-1.76784e-06
7.45379e-08
-1.84133e-06
7.34916e-08
-1.91405e-06
7.27204e-08
-1.98644e-06
7.23916e-08
-2.05906e-06
7.26243e-08
-2.13174e-06
7.26768e-08
-2.20428e-06
7.25496e-08
-2.27732e-06
7.30381e-08
-2.35139e-06
7.40757e-08
-2.42637e-06
7.49852e-08
-2.5018e-06
7.54404e-08
-2.57745e-06
7.56564e-08
-2.65353e-06
7.60951e-08
-2.73053e-06
7.70077e-08
-2.80896e-06
7.84312e-08
-2.88833e-06
7.93804e-08
-2.96763e-06
7.92944e-08
-3.04638e-06
7.87524e-08
-3.12499e-06
7.86064e-08
-3.20351e-06
7.85215e-08
-3.28186e-06
7.83402e-08
-3.35989e-06
7.80286e-08
-3.43739e-06
7.74966e-08
-3.51413e-06
7.67304e-08
-3.58994e-06
7.58105e-08
-3.6649e-06
7.49554e-08
-3.73876e-06
7.38535e-08
-3.81136e-06
7.25958e-08
-3.88257e-06
7.12117e-08
-3.95232e-06
6.97521e-08
-4.02063e-06
6.83021e-08
-4.08753e-06
6.69084e-08
-4.15302e-06
6.54865e-08
-4.21686e-06
6.38323e-08
-4.27888e-06
6.20234e-08
-4.33912e-06
6.02365e-08
-4.39767e-06
5.85499e-08
-4.45454e-06
5.68653e-08
-4.50974e-06
5.52017e-08
-4.56321e-06
5.34755e-08
-4.6148e-06
5.15933e-08
-4.66456e-06
4.97608e-08
-4.71254e-06
4.79898e-08
-4.75876e-06
4.62244e-08
-4.80318e-06
4.44317e-08
-4.846e-06
4.28253e-08
-4.88735e-06
4.13591e-08
-4.92713e-06
3.97892e-08
-4.96513e-06
3.79996e-08
-5.00115e-06
3.60268e-08
-5.03544e-06
3.42931e-08
-5.06834e-06
3.29103e-08
-5.09991e-06
3.1575e-08
-5.12979e-06
2.98879e-08
-5.15779e-06
2.80068e-08
-5.18404e-06
2.62551e-08
-5.20878e-06
2.47466e-08
-5.23211e-06
2.33433e-08
-5.25402e-06
2.19185e-08
-5.27452e-06
2.05041e-08
-5.29391e-06
1.94045e-08
-5.31196e-06
1.80676e-08
-5.32819e-06
1.62359e-08
-5.34261e-06
1.44327e-08
-5.35565e-06
1.30459e-08
-5.36735e-06
1.17173e-08
-5.3777e-06
1.03568e-08
-5.38668e-06
8.98428e-09
-5.39422e-06
7.54775e-09
-5.40005e-06
5.84359e-09
-5.40424e-06
4.2e-09
-5.40708e-06
2.84559e-09
-5.40859e-06
1.52721e-09
-5.40848e-06
-9.78583e-11
-5.4064e-06
-2.06598e-09
-5.40253e-06
-3.8561e-09
-5.39696e-06
-5.56287e-09
-5.38954e-06
-7.40657e-09
-5.3805e-06
-9.02785e-09
-5.37001e-06
-1.04869e-08
-5.35771e-06
-1.22861e-08
-5.3432e-06
-1.45075e-08
-5.32651e-06
-1.66825e-08
-5.3075e-06
-1.90159e-08
-5.28646e-06
-2.10298e-08
-5.26326e-06
-2.32008e-08
-5.23886e-06
-2.43956e-08
-5.2119e-06
-2.69535e-08
-5.18235e-06
-2.95449e-08
-5.14941e-06
-3.29382e-08
-5.11456e-06
-3.48395e-08
-5.07761e-06
-3.69465e-08
-5.03854e-06
-3.90672e-08
-4.99723e-06
-4.12939e-08
-4.95166e-06
-4.55675e-08
-4.90384e-06
-4.78092e-08
-4.85235e-06
-5.14865e-08
-4.79877e-06
-5.35718e-08
-4.74424e-06
-5.45189e-08
-4.68749e-06
-5.67437e-08
-4.62544e-06
-6.20497e-08
-4.56199e-06
-6.34406e-08
-4.48992e-06
-7.20638e-08
-4.41622e-06
-7.36941e-08
-4.35216e-06
-6.40603e-08
-4.28586e-06
-6.62962e-08
-4.2164e-06
-6.94504e-08
-4.1466e-06
-6.97982e-08
-4.03439e-06
-1.12208e-07
-3.9206e-06
-1.13788e-07
-3.72287e-06
-1.97732e-07
-3.46013e-06
-2.6274e-07
-3.24253e-06
-2.17603e-07
-3.05592e-06
-1.86615e-07
-2.89457e-06
-1.61345e-07
-2.7526e-06
-1.41978e-07
-2.61513e-06
-1.37469e-07
-2.46992e-06
-1.45214e-07
-2.32096e-06
-1.48957e-07
-2.17339e-06
-1.47566e-07
-2.02745e-06
-1.45924e-07
-1.86542e-06
-1.62022e-07
-1.77151e-06
-9.38974e-08
-1.69853e-06
-7.29602e-08
-1.56711e-06
-1.31408e-07
-1.46438e-06
-1.02715e-07
-1.24855e-06
-2.15812e-07
-9.78592e-07
-2.69953e-07
-4.38403e-07
-5.40187e-07
3.12909e-07
-7.51314e-07
9.5591e-07
-6.43008e-07
1.53726e-06
-5.81358e-07
1.96978e-06
-4.32535e-07
2.34311e-06
-3.73336e-07
2.65685e-06
-3.13743e-07
2.93251e-06
-2.75665e-07
3.17598e-06
-2.43462e-07
3.36466e-06
-1.88673e-07
3.55381e-06
-1.89143e-07
3.73828e-06
-1.84464e-07
3.89514e-06
-1.56847e-07
4.11206e-06
-2.16926e-07
4.24989e-06
-1.37832e-07
4.25003e-06
-1.53566e-10
4.3373e-06
-8.72767e-08
4.31057e-06
2.67194e-08
4.37707e-06
-6.65075e-08
4.7446e-06
-3.67534e-07
5.54204e-06
-7.97451e-07
6.78693e-06
-1.24489e-06
8.2536e-06
-1.46667e-06
9.60753e-06
-1.35392e-06
1.08674e-05
-1.25983e-06
1.20242e-05
-1.15678e-06
1.30098e-05
-9.8561e-07
1.38184e-05
-8.08538e-07
1.44886e-05
-6.7026e-07
1.50635e-05
-5.74843e-07
1.55778e-05
-5.14265e-07
1.60439e-05
-4.66152e-07
1.64667e-05
-4.22778e-07
1.686e-05
-3.93241e-07
1.72333e-05
-3.73314e-07
1.75892e-05
-3.55874e-07
1.79332e-05
-3.43964e-07
1.82614e-05
-3.28149e-07
1.85739e-05
-3.1245e-07
1.88759e-05
-3.02011e-07
1.91736e-05
-2.97716e-07
1.94624e-05
-2.88702e-07
1.97381e-05
-2.75693e-07
2.00075e-05
-2.69413e-07
2.02749e-05
-2.67397e-07
2.05372e-05
-2.62245e-07
2.07893e-05
-2.521e-07
2.10305e-05
-2.41145e-07
2.12657e-05
-2.35243e-07
2.14963e-05
-2.30588e-07
2.17233e-05
-2.26913e-07
2.19443e-05
-2.21057e-07
2.21605e-05
-2.16171e-07
2.23725e-05
-2.12048e-07
2.25762e-05
-2.03672e-07
2.27704e-05
-1.94221e-07
2.29588e-05
-1.88452e-07
2.31455e-05
-1.86691e-07
2.3332e-05
-1.86469e-07
2.35168e-05
-1.84876e-07
2.36977e-05
-1.80851e-07
2.38727e-05
-1.75001e-07
2.4042e-05
-1.69359e-07
2.42043e-05
-1.62356e-07
2.4363e-05
-1.58705e-07
2.45172e-05
-1.54156e-07
2.46649e-05
-1.47742e-07
2.48091e-05
-1.442e-07
2.49507e-05
-1.41666e-07
2.50872e-05
-1.36536e-07
2.52161e-05
-1.2892e-07
2.53371e-05
-1.21005e-07
2.54513e-05
-1.14198e-07
2.55602e-05
-1.08886e-07
2.56655e-05
-1.05295e-07
2.57678e-05
-1.02252e-07
2.58668e-05
-9.90593e-08
2.59623e-05
-9.55062e-08
2.60541e-05
-9.16926e-08
2.61416e-05
-8.75234e-08
2.6225e-05
-8.33191e-08
2.63044e-05
-7.94453e-08
2.63805e-05
-7.59918e-08
2.64535e-05
-7.29512e-08
2.65235e-05
-7.00303e-08
2.659e-05
-6.64624e-08
2.66527e-05
-6.26632e-08
2.67119e-05
-5.90804e-08
2.67688e-05
-5.69225e-08
2.68236e-05
-5.47391e-08
2.68766e-05
-5.2991e-08
2.69256e-05
-4.89271e-08
2.69726e-05
-4.69874e-08
2.70175e-05
-4.49263e-08
2.70602e-05
-4.26463e-08
2.71012e-05
-4.09828e-08
2.71432e-05
-4.19561e-08
2.71882e-05
-4.5005e-08
2.72366e-05
-4.83965e-08
2.72871e-05
-5.04983e-08
2.73397e-05
-5.25778e-08
2.73909e-05
-5.12612e-08
-6.8411e-08
-6.65902e-05
5.49498e-06
-6.70647e-05
1.35155e-06
-6.75331e-05
1.74417e-06
-6.79218e-05
2.02693e-06
-6.79068e-05
1.72507e-06
-6.65304e-05
-1.81611e-07
-6.24543e-05
-4.9252e-06
-5.4824e-05
-1.23659e-05
-4.68592e-05
-1.71673e-05
-3.9656e-05
-1.7905e-05
-3.25039e-05
-1.72031e-05
-2.55614e-05
-1.66538e-05
-1.8937e-05
-1.62522e-05
-1.27639e-05
-1.58044e-05
-7.62275e-06
-1.43231e-05
-3.46235e-06
-1.11651e-05
-3.31299e-07
-5.70581e-06
9.52108e-07
4.87407e-07
1.56692e-07
4.97812e-06
-1.26238e-06
6.27026e-06
-2.8743e-06
5.46728e-06
-4.74256e-06
3.82899e-06
-6.18355e-06
1.42332e-06
-5.88267e-06
-1.68698e-06
-4.11493e-06
-4.4871e-06
-1.61948e-06
-6.25009e-06
1.06944e-06
-6.99079e-06
3.71792e-06
-7.06325e-06
6.2341e-06
-6.41438e-06
7.96931e-06
-4.52431e-06
8.77518e-06
-2.3167e-06
8.76809e-06
-1.92518e-07
7.67167e-06
2.2274e-06
5.5988e-06
4.33376e-06
3.37481e-06
5.65577e-06
1.80056e-06
5.7212e-06
7.80116e-07
4.52054e-06
-1.02077e-07
2.99908e-06
-1.03666e-06
2.17469e-06
-1.97806e-06
2.17072e-06
-2.78489e-06
2.25509e-06
-3.40388e-06
1.75919e-06
-3.41872e-06
2.26474e-07
-2.88281e-06
-1.28298e-06
-2.08148e-06
-2.10283e-06
-1.08897e-06
-2.29698e-06
-6.41186e-08
-1.80956e-06
7.37822e-07
-1.02506e-06
1.39083e-06
-8.27497e-07
2.12606e-06
-1.25782e-06
2.98319e-06
-2.01407e-06
3.9891e-06
-2.46216e-06
5.13654e-06
-2.41772e-06
6.16887e-06
-1.77983e-06
6.96322e-06
-1.23127e-06
7.57561e-06
-1.06161e-06
8.15329e-06
-1.27895e-06
9.00421e-06
-1.88844e-06
1.01858e-05
-2.47545e-06
1.15588e-05
-2.85787e-06
1.29353e-05
-3.13959e-06
1.41971e-05
-3.20419e-06
1.51876e-05
-2.71495e-06
1.59101e-05
-1.83942e-06
1.66315e-05
-1.22334e-06
1.75336e-05
-1.03142e-06
1.84982e-05
-1.06502e-06
1.92749e-05
-8.6504e-07
1.96408e-05
-3.19793e-07
1.97242e-05
1.17662e-07
1.97063e-05
1.81154e-07
1.9608e-05
-1.35062e-08
1.97506e-05
-5.59515e-07
2.01558e-05
-9.45548e-07
2.07688e-05
-1.09393e-06
2.14387e-05
-9.0611e-07
2.19718e-05
-1.78721e-07
2.19374e-05
1.70918e-06
2.08652e-05
2.66953e-06
1.94763e-05
1.99296e-06
1.78628e-05
2.13613e-06
1.63504e-05
1.49933e-06
1.61099e-05
3.35048e-07
1.58821e-05
5.12268e-08
1.59196e-05
-1.27687e-08
1.58889e-05
5.05623e-07
1.58907e-05
7.65808e-07
1.58558e-05
9.20183e-07
1.55021e-05
1.05284e-06
1.44011e-05
1.82822e-06
1.31339e-05
1.74611e-06
1.20758e-05
1.32983e-06
1.11976e-05
1.23698e-06
1.0647e-05
9.21221e-07
1.02967e-05
9.39224e-07
9.86184e-06
1.09796e-06
9.55927e-06
1.44082e-06
9.14967e-06
1.74648e-06
9.1828e-06
2.28018e-06
8.80888e-06
3.33175e-06
7.64471e-06
3.86655e-06
5.1991e-06
4.20923e-06
1.81079e-06
3.81223e-06
-1.11233e-06
3.22433e-06
-3.36858e-06
1.93204e-06
-4.43713e-06
5.93399e-07
-4.68071e-06
2.65391e-07
-4.84046e-06
5.25003e-07
-4.50092e-06
5.83064e-08
-3.78007e-06
-6.65152e-07
-3.67591e-06
-4.59533e-08
-3.82159e-06
5.86773e-08
-3.85626e-06
-1.26881e-07
-3.9376e-06
4.97801e-09
-3.90609e-06
5.7615e-08
-3.80639e-06
7.31087e-08
-3.66902e-06
3.36984e-07
-3.68547e-06
5.99639e-07
-3.831e-06
5.22783e-07
-4.25801e-06
5.32545e-07
-4.85421e-06
5.08123e-07
-5.27362e-06
4.28081e-07
-5.48891e-06
9.98138e-08
-5.50029e-06
-1.49579e-07
-5.49649e-06
-6.21448e-08
-5.34896e-06
-1.87247e-07
-5.1823e-06
-1.91596e-07
-5.13572e-06
-5.13276e-08
-5.11367e-06
-7.05174e-08
-5.07216e-06
-1.25913e-07
-5.0363e-06
-1.1757e-07
-4.95645e-06
-1.74623e-07
-4.87568e-06
-1.58127e-07
-4.79977e-06
-1.37364e-07
-4.72077e-06
-1.33126e-07
-4.62401e-06
-1.87228e-07
-4.50106e-06
-2.55796e-07
-4.37237e-06
-2.70501e-07
-4.23567e-06
-2.81649e-07
-4.09817e-06
-2.78375e-07
-3.95265e-06
-2.95915e-07
-3.79225e-06
-3.22979e-07
-3.62365e-06
-3.44481e-07
-3.45345e-06
-3.44693e-07
-3.28665e-06
-3.23861e-07
-3.11503e-06
-3.29442e-07
-2.93671e-06
-3.44872e-07
-2.74388e-06
-3.7896e-07
-2.54684e-06
-4.03816e-07
-2.35587e-06
-3.98517e-07
-2.16683e-06
-3.78292e-07
-1.96935e-06
-3.77835e-07
-1.75867e-06
-4.11547e-07
-1.53513e-06
-4.49513e-07
-1.31453e-06
-4.51926e-07
-1.10062e-06
-4.41891e-07
-8.79529e-07
-4.46052e-07
-6.4295e-07
-4.61728e-07
-3.99073e-07
-4.73792e-07
-1.59051e-07
-4.75737e-07
7.49126e-08
-4.74317e-07
3.13087e-07
-4.8371e-07
5.53626e-07
-4.86452e-07
7.92715e-07
-4.78123e-07
1.03876e-06
-4.86923e-07
1.28999e-06
-5.00807e-07
1.5389e-06
-4.9832e-07
1.77854e-06
-4.77837e-07
2.01634e-06
-4.74286e-07
2.26052e-06
-4.88919e-07
2.50826e-06
-4.97661e-07
2.74983e-06
-4.85809e-07
2.98568e-06
-4.66626e-07
3.22013e-06
-4.63793e-07
3.45536e-06
-4.73083e-07
3.6938e-06
-4.81469e-07
3.9331e-06
-4.82715e-07
4.17047e-06
-4.73627e-07
4.40002e-06
-4.51114e-07
4.62205e-06
-4.37454e-07
4.83956e-06
-4.33211e-07
5.05541e-06
-4.34017e-07
5.27457e-06
-4.42182e-07
5.49494e-06
-4.42072e-07
5.71287e-06
-4.33853e-07
5.92328e-06
-4.16201e-07
6.12139e-06
-3.92761e-07
6.31326e-06
-3.85926e-07
6.50397e-06
-3.87383e-07
6.69505e-06
-3.85652e-07
6.88387e-06
-3.7303e-07
7.066e-06
-3.5569e-07
7.23762e-06
-3.37444e-07
7.40016e-06
-3.2551e-07
7.55885e-06
-3.21413e-07
7.71605e-06
-3.18214e-07
7.86791e-06
-3.06314e-07
8.01041e-06
-2.83268e-07
8.14326e-06
-2.59888e-07
8.26892e-06
-2.45043e-07
8.39077e-06
-2.41452e-07
8.5076e-06
-2.35948e-07
8.61622e-06
-2.20169e-07
8.71506e-06
-1.99466e-07
8.80739e-06
-1.82135e-07
8.89523e-06
-1.70382e-07
8.97699e-06
-1.62252e-07
9.04996e-06
-1.49061e-07
9.11177e-06
-1.26298e-07
9.16489e-06
-1.00614e-07
9.21586e-06
-9.78104e-08
9.26376e-06
-9.69905e-08
9.30545e-06
-8.68348e-08
9.33989e-06
-7.25173e-08
9.36509e-06
-4.90195e-08
9.3809e-06
-2.5438e-08
9.38956e-06
-1.22026e-08
9.39535e-06
-1.23581e-08
9.39929e-06
-1.15193e-08
9.39837e-06
-2.50979e-09
9.39147e-06
1.06662e-08
9.37719e-06
3.13539e-08
9.35579e-06
4.84128e-08
9.32823e-06
5.86377e-08
9.29687e-06
6.10119e-08
9.26377e-06
6.19925e-08
9.22765e-06
6.77122e-08
9.18729e-06
7.73848e-08
9.14024e-06
9.60961e-08
9.08697e-06
1.09772e-07
9.03123e-06
1.14765e-07
8.97569e-06
1.1268e-07
8.91879e-06
1.11908e-07
8.85919e-06
1.17833e-07
8.79499e-06
1.27817e-07
8.72434e-06
1.38857e-07
8.64796e-06
1.48405e-07
8.56884e-06
1.56598e-07
8.48911e-06
1.60703e-07
8.41078e-06
1.61768e-07
8.3311e-06
1.64616e-07
8.24742e-06
1.65455e-07
8.1599e-06
1.70615e-07
8.06933e-06
1.77022e-07
7.97428e-06
1.86493e-07
7.87674e-06
1.98246e-07
7.77895e-06
2.02528e-07
7.68093e-06
1.96343e-07
7.58029e-06
1.97952e-07
7.47536e-06
2.05988e-07
7.36632e-06
2.15215e-07
7.25486e-06
2.24832e-07
7.14248e-06
2.28917e-07
7.02934e-06
2.29807e-07
6.91293e-06
2.33254e-07
6.79212e-06
2.38859e-07
6.66576e-06
2.48561e-07
6.53565e-06
2.57116e-07
6.40723e-06
2.58393e-07
6.27864e-06
2.60733e-07
6.14705e-06
2.63922e-07
6.01239e-06
2.67006e-07
5.87389e-06
2.74505e-07
5.73024e-06
2.86133e-07
5.58321e-06
2.95728e-07
5.43507e-06
3.00154e-07
5.28752e-06
2.95029e-07
5.139e-06
2.94674e-07
4.98818e-06
2.99548e-07
4.83445e-06
3.04647e-07
4.67798e-06
3.10648e-07
4.51974e-06
3.17423e-07
4.36113e-06
3.21273e-07
4.20141e-06
3.23075e-07
4.03936e-06
3.23231e-07
3.87656e-06
3.22494e-07
3.71411e-06
3.22617e-07
3.55211e-06
3.22574e-07
3.39054e-06
3.21991e-07
3.22786e-06
3.24301e-07
3.06325e-06
3.30228e-07
2.89873e-06
3.32012e-07
2.73576e-06
3.26786e-07
2.57491e-06
3.20476e-07
2.4145e-06
3.19288e-07
2.25365e-06
3.19734e-07
2.0939e-06
3.17615e-07
1.93616e-06
3.15498e-07
1.78004e-06
3.14346e-07
1.62566e-06
3.11155e-07
1.47314e-06
3.06141e-07
1.32175e-06
3.01645e-07
1.1718e-06
2.97858e-07
1.02448e-06
2.93107e-07
8.8085e-07
2.87427e-07
7.40417e-07
2.83316e-07
6.02151e-07
2.79151e-07
4.6477e-07
2.74907e-07
3.29206e-07
2.69432e-07
1.97499e-07
2.61972e-07
7.05652e-08
2.53744e-07
-5.27622e-08
2.48228e-07
-1.73955e-07
2.43938e-07
-2.93344e-07
2.38296e-07
-4.09547e-07
2.31101e-07
-5.20484e-07
2.21925e-07
-6.27401e-07
2.15174e-07
-7.32042e-07
2.10015e-07
-8.3469e-07
2.04582e-07
-9.33763e-07
1.97199e-07
-1.02849e-06
1.8911e-07
-1.1201e-06
1.83378e-07
-1.20937e-06
1.79333e-07
-1.29697e-06
1.75438e-07
-1.38231e-06
1.69687e-07
-1.46412e-06
1.62987e-07
-1.54327e-06
1.58196e-07
-1.62059e-06
1.54576e-07
-1.69658e-06
1.51821e-07
-1.77177e-06
1.49726e-07
-1.84605e-06
1.47778e-07
-1.91934e-06
1.46012e-07
-1.99189e-06
1.44937e-07
-2.06416e-06
1.44903e-07
-2.13652e-06
1.45043e-07
-2.20929e-06
1.45328e-07
-2.28276e-06
1.46517e-07
-2.35692e-06
1.48244e-07
-2.43154e-06
1.49614e-07
-2.50658e-06
1.50497e-07
-2.58215e-06
1.51236e-07
-2.65848e-06
1.52439e-07
-2.73565e-06
1.54191e-07
-2.81358e-06
1.56364e-07
-2.89208e-06
1.5789e-07
-2.97115e-06
1.58364e-07
-3.05011e-06
1.57706e-07
-3.12891e-06
1.57399e-07
-3.20748e-06
1.57088e-07
-3.28559e-06
1.56442e-07
-3.36335e-06
1.55788e-07
-3.4408e-06
1.54937e-07
-3.51767e-06
1.53591e-07
-3.59376e-06
1.51903e-07
-3.66903e-06
1.50216e-07
-3.74291e-06
1.47733e-07
-3.81529e-06
1.44966e-07
-3.8863e-06
1.42221e-07
-3.95601e-06
1.39464e-07
-4.02439e-06
1.36672e-07
-4.09132e-06
1.33834e-07
-4.15673e-06
1.30896e-07
-4.22049e-06
1.27588e-07
-4.2825e-06
1.24034e-07
-4.34271e-06
1.20451e-07
-4.40121e-06
1.17046e-07
-4.45808e-06
1.13741e-07
-4.51343e-06
1.10552e-07
-4.56708e-06
1.07135e-07
-4.61872e-06
1.03246e-07
-4.66845e-06
9.95055e-08
-4.71644e-06
9.59874e-08
-4.76272e-06
9.25137e-08
-4.80723e-06
8.89608e-08
-4.85004e-06
8.5646e-08
-4.89114e-06
8.24649e-08
-4.93048e-06
7.91352e-08
-4.96813e-06
7.56665e-08
-5.00414e-06
7.20467e-08
-5.03859e-06
6.87444e-08
-5.07156e-06
6.58945e-08
-5.10307e-06
6.30981e-08
-5.13289e-06
5.97227e-08
-5.16088e-06
5.60063e-08
-5.18712e-06
5.25187e-08
-5.21189e-06
4.95296e-08
-5.23536e-06
4.6834e-08
-5.25748e-06
4.40583e-08
-5.27804e-06
4.10911e-08
-5.297e-06
3.83822e-08
-5.31438e-06
3.54663e-08
-5.33042e-06
3.22956e-08
-5.34497e-06
2.90035e-08
-5.35813e-06
2.62253e-08
-5.36998e-06
2.35826e-08
-5.38046e-06
2.08557e-08
-5.38932e-06
1.78675e-08
-5.3967e-06
1.4949e-08
-5.40258e-06
1.17348e-08
-5.40701e-06
8.65155e-09
-5.40992e-06
5.77904e-09
-5.4111e-06
2.73094e-09
-5.41062e-06
-5.62614e-10
-5.40858e-06
-4.08568e-09
-5.40506e-06
-7.35483e-09
-5.39983e-06
-1.07849e-08
-5.39271e-06
-1.451e-08
-5.38356e-06
-1.81659e-08
-5.37255e-06
-2.14842e-08
-5.3599e-06
-2.49237e-08
-5.34554e-06
-2.88667e-08
-5.32919e-06
-3.30154e-08
-5.31066e-06
-3.75465e-08
-5.2898e-06
-4.18794e-08
-5.26665e-06
-4.63375e-08
-5.24153e-06
-4.9508e-08
-5.21439e-06
-5.4076e-08
-5.18542e-06
-5.85046e-08
-5.15382e-06
-6.45252e-08
-5.1197e-06
-6.89434e-08
-5.08284e-06
-7.37875e-08
-5.04295e-06
-7.89421e-08
-4.99983e-06
-8.44027e-08
-4.95485e-06
-9.05308e-08
-4.90879e-06
-9.38647e-08
-4.86063e-06
-9.96319e-08
-4.80747e-06
-1.06724e-07
-4.75105e-06
-1.10925e-07
-4.68374e-06
-1.2404e-07
-4.61893e-06
-1.26858e-07
-4.56081e-06
-1.21547e-07
-4.50566e-06
-1.27207e-07
-4.45124e-06
-1.28106e-07
-4.37947e-06
-1.3582e-07
-4.25636e-06
-1.89404e-07
-4.13122e-06
-1.94584e-07
-3.9487e-06
-2.5232e-07
-3.72417e-06
-3.36739e-07
-3.52334e-06
-3.14614e-07
-3.36859e-06
-3.52481e-07
-3.26952e-06
-3.61815e-07
-3.15836e-06
-3.28763e-07
-3.04255e-06
-3.02424e-07
-2.89982e-06
-3.04075e-07
-2.75775e-06
-2.84041e-07
-2.59324e-06
-3.0197e-07
-2.42413e-06
-3.14314e-07
-2.25994e-06
-3.13132e-07
-2.16778e-06
-2.39703e-07
-2.10488e-06
-2.08799e-07
-1.9746e-06
-2.92273e-07
-1.80777e-06
-2.60698e-07
-1.48154e-06
-3.99172e-07
-1.12889e-06
-4.84034e-07
-5.3587e-07
-6.95716e-07
1.99005e-07
-9.50677e-07
8.43988e-07
-9.14932e-07
1.32134e-06
-1.01754e-06
1.57393e-06
-1.00391e-06
1.81369e-06
-8.82775e-07
2.05539e-06
-8.23075e-07
2.29915e-06
-6.76303e-07
2.51995e-06
-5.94129e-07
2.74609e-06
-5.39886e-07
2.97092e-06
-5.00476e-07
3.19901e-06
-4.71539e-07
3.41709e-06
-4.0674e-07
3.70544e-06
-4.77474e-07
3.88673e-06
-3.65749e-07
3.91987e-06
-1.89978e-07
3.9901e-06
-2.87165e-07
4.02711e-06
-1.74846e-07
4.26228e-06
-2.35338e-07
4.78171e-06
-6.0672e-07
5.85574e-06
-1.04731e-06
7.2725e-06
-1.48328e-06
8.65625e-06
-1.75129e-06
9.88109e-06
-2.0223e-06
1.09392e-05
-2.303e-06
1.18174e-05
-2.34489e-06
1.25212e-05
-2.0577e-06
1.30599e-05
-1.79853e-06
1.35327e-05
-1.62965e-06
1.40174e-05
-1.47024e-06
1.45076e-05
-1.29877e-06
1.49777e-05
-1.14033e-06
1.54246e-05
-1.02176e-06
1.58491e-05
-9.38673e-07
1.62553e-05
-8.72348e-07
1.66441e-05
-8.11533e-07
1.70177e-05
-7.66802e-07
1.73787e-05
-7.34346e-07
1.77269e-05
-7.04014e-07
1.8061e-05
-6.78036e-07
1.8382e-05
-6.49099e-07
1.86924e-05
-6.22838e-07
1.8994e-05
-6.0363e-07
1.92881e-05
-5.91789e-07
1.9574e-05
-5.74501e-07
1.98527e-05
-5.54379e-07
2.01252e-05
-5.4189e-07
2.03912e-05
-5.33364e-07
2.06503e-05
-5.21327e-07
2.09029e-05
-5.04633e-07
2.11487e-05
-4.86942e-07
2.13881e-05
-4.74665e-07
2.16214e-05
-4.63778e-07
2.18487e-05
-4.54216e-07
2.20719e-05
-4.44185e-07
2.229e-05
-4.34237e-07
2.25008e-05
-4.22827e-07
2.27046e-05
-4.07422e-07
2.29028e-05
-3.92341e-07
2.30961e-05
-3.81761e-07
2.32856e-05
-3.76139e-07
2.3471e-05
-3.71804e-07
2.36516e-05
-3.65427e-07
2.38276e-05
-3.56793e-07
2.39989e-05
-3.46329e-07
2.41655e-05
-3.35903e-07
2.4328e-05
-3.24824e-07
2.44859e-05
-3.16567e-07
2.46385e-05
-3.06672e-07
2.47856e-05
-2.94901e-07
2.49276e-05
-2.86117e-07
2.50643e-05
-2.7841e-07
2.51957e-05
-2.6789e-07
2.53219e-05
-2.55113e-07
2.54433e-05
-2.42385e-07
2.55601e-05
-2.30947e-07
2.56723e-05
-2.21139e-07
2.57798e-05
-2.12757e-07
2.58826e-05
-2.05099e-07
2.59812e-05
-1.97675e-07
2.6076e-05
-1.90286e-07
2.61668e-05
-1.82574e-07
2.62537e-05
-1.74467e-07
2.63366e-05
-1.66233e-07
2.64155e-05
-1.58392e-07
2.64909e-05
-1.5151e-07
2.65632e-05
-1.4533e-07
2.66319e-05
-1.38745e-07
2.66967e-05
-1.31381e-07
2.67582e-05
-1.24198e-07
2.68169e-05
-1.17928e-07
2.68736e-05
-1.13714e-07
2.69275e-05
-1.08722e-07
2.69784e-05
-1.0393e-07
2.70268e-05
-9.73881e-08
2.70738e-05
-9.40126e-08
2.71195e-05
-9.06304e-08
2.7163e-05
-8.62393e-08
2.72048e-05
-8.28103e-08
2.72458e-05
-8.28902e-08
2.72862e-05
-8.53895e-08
2.73256e-05
-8.7793e-08
2.73639e-05
-8.87927e-08
2.73991e-05
-8.77558e-08
2.74341e-05
-8.62815e-08
-9.36226e-08
-6.59481e-05
7.15017e-06
-6.5863e-05
1.266e-06
-6.56325e-05
1.51339e-06
-6.51402e-05
1.53429e-06
-6.38751e-05
4.59794e-07
-6.10052e-05
-3.05174e-06
-5.60202e-05
-9.91039e-06
-5.03032e-05
-1.80831e-05
-4.62936e-05
-2.11771e-05
-4.23308e-05
-2.1868e-05
-3.82249e-05
-2.13091e-05
-3.49917e-05
-1.98871e-05
-3.27589e-05
-1.84851e-05
-3.08873e-05
-1.76761e-05
-2.92998e-05
-1.59106e-05
-2.76244e-05
-1.28406e-05
-2.51885e-05
-8.14174e-06
-2.22464e-05
-2.45472e-06
-1.91554e-05
1.8872e-06
-1.66274e-05
3.74218e-06
-1.49328e-05
3.77278e-06
-1.39068e-05
2.80298e-06
-1.32135e-05
7.30117e-07
-1.28777e-05
-2.02276e-06
-1.32258e-05
-4.1389e-06
-1.39582e-05
-5.51764e-06
-1.45987e-05
-6.3503e-06
-1.49974e-05
-6.66448e-06
-1.50787e-05
-6.33299e-06
-1.50957e-05
-4.50726e-06
-1.55586e-05
-1.85375e-06
-1.63314e-05
5.80327e-07
-1.63539e-05
2.24992e-06
-1.52985e-05
3.2784e-06
-1.31917e-05
3.54909e-06
-1.05766e-05
3.10612e-06
-8.34843e-06
2.29243e-06
-7.13604e-06
1.78674e-06
-6.69638e-06
1.73509e-06
-6.44546e-06
1.91985e-06
-6.08171e-06
1.89139e-06
-5.60572e-06
1.28324e-06
-4.8704e-06
-5.088e-07
-3.95955e-06
-2.1938e-06
-3.00575e-06
-3.05658e-06
-1.97849e-06
-3.32421e-06
-8.16533e-07
-2.9715e-06
3.00894e-07
-2.14247e-06
1.38074e-06
-1.90734e-06
2.51642e-06
-2.3935e-06
3.56389e-06
-3.06154e-06
4.54121e-06
-3.43951e-06
5.54879e-06
-3.42533e-06
6.57478e-06
-2.80586e-06
7.4484e-06
-2.10493e-06
8.18849e-06
-1.80174e-06
8.83431e-06
-1.92483e-06
9.55229e-06
-2.60648e-06
1.0388e-05
-3.31121e-06
1.12641e-05
-3.73405e-06
1.20775e-05
-3.95307e-06
1.28019e-05
-3.92861e-06
1.34802e-05
-3.39334e-06
1.42124e-05
-2.57162e-06
1.5335e-05
-2.34602e-06
1.68902e-05
-2.58667e-06
1.85512e-05
-2.72605e-06
1.99003e-05
-2.21413e-06
2.07482e-05
-1.16772e-06
2.11229e-05
-2.57116e-07
2.12077e-05
9.63169e-08
2.11425e-05
5.17372e-08
2.09645e-05
-3.81569e-07
2.10782e-05
-1.05919e-06
2.13609e-05