/*--------------------------------*- C++ -*----------------------------------*\
| =========                 |                                                 |
| \\      /  F ield         | OpenFOAM: The Open Source CFD Toolbox           |
|  \\    /   O peration     | Version:  v2006                                 |
|   \\  /    A nd           | Website:  www.openfoam.com                      |
|    \\/     M anipulation  |                                                 |
\*---------------------------------------------------------------------------*/
FoamFile
{
    version     2.0;
    format      ascii;
    class       volVectorField;
    location    "7.9";
    object      U;
}
// * * * * * * * * * * * * * * * * * * * * * * * * * * * * * * * * * * * * * //

dimensions      [0 1 -1 0 0 0 0];


internalField   nonuniform List<vector> 
33000
(
(-0.14601 0 0.00652375)
(-0.175602 0 0.00203154)
(-0.169577 0 0.00293701)
(-0.175658 0 0.00432951)
(-0.179062 0 0.00517443)
(-0.184552 0 0.00440046)
(-0.185772 0 0.00120791)
(-0.179637 0 -0.00560466)
(-0.15994 0 -0.0172603)
(-0.132152 0 -0.0258333)
(-0.107733 0 -0.025445)
(-0.083712 0 -0.024282)
(-0.0595103 0 -0.0246314)
(-0.0352724 0 -0.025486)
(-0.0110819 0 -0.0236706)
(0.00956691 0 -0.016459)
(0.0233683 0 -0.002288)
(0.0242405 0 0.00854848)
(0.0157662 0 0.0128682)
(0.00297468 0 0.0124064)
(-0.009744 0 0.00635495)
(-0.0168043 0 -0.00102009)
(-0.0186932 0 -0.00455124)
(-0.0170353 0 -0.00558742)
(-0.0120815 0 -0.00652134)
(-0.00335177 0 -0.00805837)
(0.00661121 0 -0.00959105)
(0.017567 0 -0.0106152)
(0.0283518 0 -0.00969018)
(0.0371932 0 -0.0055548)
(0.0430797 0 0.00120511)
(0.0449382 0 0.00669075)
(0.0436658 0 0.00769857)
(0.0403258 0 0.00703252)
(0.0329905 0 0.00962404)
(0.0217591 0 0.0131199)
(0.0116121 0 0.0110353)
(0.0046197 0 0.00643453)
(0.00116737 0 0.00361873)
(-0.0014545 0 0.00346769)
(-0.00501644 0 0.00406421)
(-0.00861712 0 0.00294112)
(-0.0104785 0 0.000695875)
(-0.00970618 0 -0.0018447)
(-0.00681325 0 -0.00348495)
(-0.00317018 0 -0.00288211)
(-0.000480648 0 -0.00084481)
(0.000665303 0 0.000488739)
(0.00103289 0 0.000382713)
(0.00142817 0 -0.000863026)
(0.00361955 0 -0.00304495)
(0.00712634 0 -0.00352914)
(0.0107491 0 -0.00237238)
(0.0133726 0 -0.000896869)
(0.0147849 0 -0.000199427)
(0.0155769 0 -0.000500745)
(0.0169177 0 -0.00148134)
(0.0191952 0 -0.00223884)
(0.0221367 0 -0.0024892)
(0.0255181 0 -0.00262458)
(0.0295711 0 -0.0035223)
(0.0343114 0 -0.00443926)
(0.0391413 0 -0.00433844)
(0.0428795 0 -0.00248954)
(0.0448893 0 -0.00054557)
(0.0454629 0 0.000491327)
(0.0455648 0 0.00038343)
(0.0457696 0 0.000331923)
(0.0458913 0 0.000389488)
(0.0456135 0 0.000743703)
(0.0448001 0 0.000597054)
(0.044816 0 -0.000321043)
(0.0456856 0 -0.000871145)
(0.0468624 0 -0.00112157)
(0.048661 0 -0.000251195)
(0.0488303 0 0.000521471)
(0.0518774 0 0.00302714)
(0.0478859 0 0.00588029)
(0.040096 0 0.00368328)
(0.0408705 0 0.000992012)
(0.0369697 0 -0.00143482)
(0.0379758 0 -0.00156752)
(0.0372634 0 0.000939699)
(0.0374303 0 0.00122892)
(0.0381031 0 0.00213546)
(0.0373759 0 0.00196291)
(0.035731 0 0.00260702)
(0.0334812 0 0.00132643)
(0.0313672 0 -0.000163319)
(0.0299131 0 0.00023776)
(0.0278111 0 -0.000229777)
(0.0274365 0 0.000417557)
(0.0265279 0 0.000697986)
(0.0255925 0 0.00100491)
(0.0246984 0 0.00158438)
(0.0226446 0 0.0016046)
(0.021375 0 0.00355191)
(0.0169626 0 0.00387681)
(0.0146974 0 0.00906973)
(0.0054086 0 0.00875586)
(-0.000164335 0 0.00474766)
(-0.00803767 0 -0.00307572)
(-0.00901059 0 -0.00683836)
(-0.0101349 0 -0.00232186)
(-0.0105284 0 0.0010837)
(-0.0085027 0 0.00281462)
(-0.00818271 0 0.00203131)
(-0.00857176 0 0.00120436)
(-0.0100457 0 -0.00106064)
(-0.0105158 0 -0.00191896)
(-0.0103777 0 -0.00157778)
(-0.0107484 0 -0.000877035)
(-0.00999515 0 -0.000363555)
(-0.00989681 0 0.000153467)
(-0.00965674 0 0.000456607)
(-0.0102855 0 0.000642691)
(-0.0106098 0 0.00171705)
(-0.0125835 0 0.0016053)
(-0.0135275 0 0.000458939)
(-0.0144964 0 -0.00102131)
(-0.0140275 0 -0.00155559)
(-0.0140843 0 -0.000469671)
(-0.0140531 0 7.12195e-05)
(-0.0135081 0 0.000384898)
(-0.013257 0 0.000201351)
(-0.0132042 0 -9.78252e-05)
(-0.0130668 0 -0.000325381)
(-0.0130741 0 -0.000174385)
(-0.013044 0 -0.000138808)
(-0.0128279 0 -2.08234e-06)
(-0.0126276 0 -4.71968e-05)
(-0.0124111 0 -5.58541e-05)
(-0.0121616 0 -0.000156625)
(-0.0120174 0 -3.99346e-05)
(-0.0118595 0 -6.29753e-05)
(-0.0117398 0 -6.61915e-05)
(-0.0114099 0 -0.000161316)
(-0.0110744 0 -0.000160818)
(-0.0107015 0 -0.000189162)
(-0.0103493 0 -0.000206701)
(-0.00999603 0 -0.000240684)
(-0.00959708 0 -0.000282088)
(-0.00918289 0 -0.000309949)
(-0.0087167 0 -0.000319486)
(-0.00831258 0 -0.000267951)
(-0.00792823 0 -0.000277268)
(-0.00752474 0 -0.000297837)
(-0.00709366 0 -0.000354148)
(-0.00659414 0 -0.000403912)
(-0.00605994 0 -0.000415785)
(-0.00555672 0 -0.000365026)
(-0.00511353 0 -0.000337437)
(-0.00465366 0 -0.000388504)
(-0.00410841 0 -0.000449133)
(-0.00352511 0 -0.000464209)
(-0.00295137 0 -0.000465431)
(-0.00238531 0 -0.000448056)
(-0.00182655 0 -0.000436547)
(-0.00125932 0 -0.000445471)
(-0.000677123 0 -0.000469569)
(-8.04586e-05 0 -0.000486989)
(0.000524329 0 -0.000495045)
(0.00114751 0 -0.000493049)
(0.00175274 0 -0.000476406)
(0.00234331 0 -0.000474554)
(0.00295667 0 -0.000493746)
(0.00359119 0 -0.00049434)
(0.00420223 0 -0.000471103)
(0.00478268 0 -0.000467059)
(0.00538458 0 -0.000482883)
(0.00600579 0 -0.000493953)
(0.00663375 0 -0.000483646)
(0.00722562 0 -0.000451087)
(0.00778829 0 -0.000447172)
(0.00837225 0 -0.000469018)
(0.00897723 0 -0.000480933)
(0.00958649 0 -0.000481318)
(0.0101946 0 -0.000461365)
(0.0107661 0 -0.000426953)
(0.0113033 0 -0.000416709)
(0.0118433 0 -0.000423714)
(0.012381 0 -0.00043239)
(0.0129349 0 -0.000441397)
(0.0134953 0 -0.000434744)
(0.0140429 0 -0.000419147)
(0.0145752 0 -0.000399024)
(0.0150702 0 -0.000381305)
(0.0155502 0 -0.000384974)
(0.0160393 0 -0.000390951)
(0.016534 0 -0.000383428)
(0.0170105 0 -0.000355993)
(0.0174553 0 -0.00033304)
(0.0178778 0 -0.000321916)
(0.0182845 0 -0.000322264)
(0.0186925 0 -0.000323106)
(0.0190975 0 -0.000318773)
(0.0194974 0 -0.000305597)
(0.0198688 0 -0.000276632)
(0.0202013 0 -0.000245013)
(0.020504 0 -0.000228126)
(0.0207987 0 -0.000232269)
(0.0211018 0 -0.000236224)
(0.0213939 0 -0.000221977)
(0.0216593 0 -0.000200316)
(0.0218974 0 -0.000175289)
(0.0221079 0 -0.000157757)
(0.0223116 0 -0.000156942)
(0.0225091 0 -0.00015163)
(0.0226934 0 -0.000129258)
(0.0228294 0 -8.94452e-05)
(0.0229342 0 -8.88838e-05)
(0.0230628 0 -9.79551e-05)
(0.0231798 0 -9.22203e-05)
(0.0232891 0 -7.81411e-05)
(0.0233699 0 -4.50334e-05)
(0.0234087 0 -1.29887e-05)
(0.0234189 0 -2.76362e-06)
(0.0234274 0 -1.48544e-05)
(0.0234519 0 -1.83861e-05)
(0.0234651 0 -1.02379e-05)
(0.0234698 0 4.40766e-06)
(0.0234454 0 3.5316e-05)
(0.0233856 0 5.87108e-05)
(0.0233105 0 6.39503e-05)
(0.0232307 0 5.64061e-05)
(0.0231625 0 5.36373e-05)
(0.0230857 0 5.81321e-05)
(0.0230054 0 6.95484e-05)
(0.0228993 0 9.76891e-05)
(0.0227615 0 0.000114364)
(0.0226165 0 0.000119369)
(0.0224671 0 0.000112736)
(0.0223308 0 0.000105831)
(0.022192 0 0.000113931)
(0.0220398 0 0.000126354)
(0.021874 0 0.000133643)
(0.0216992 0 0.000137986)
(0.0215139 0 0.000150023)
(0.0213121 0 0.000157933)
(0.0211096 0 0.000167959)
(0.0208945 0 0.000171881)
(0.0206863 0 0.000159064)
(0.0204848 0 0.000160414)
(0.0202717 0 0.000167376)
(0.0200524 0 0.000176734)
(0.0198148 0 0.000200278)
(0.019549 0 0.000210981)
(0.0192928 0 0.000193043)
(0.0190565 0 0.000188334)
(0.0188069 0 0.000196063)
(0.0185514 0 0.000207425)
(0.0182761 0 0.000224116)
(0.0179852 0 0.000232119)
(0.0176937 0 0.000232056)
(0.017402 0 0.000229314)
(0.0171097 0 0.000230047)
(0.0168119 0 0.000236782)
(0.0164988 0 0.000246782)
(0.0161773 0 0.000257241)
(0.0158489 0 0.000263323)
(0.0155171 0 0.000261115)
(0.0151872 0 0.000258536)
(0.0148557 0 0.000265086)
(0.0145068 0 0.000277931)
(0.014144 0 0.000293228)
(0.0137628 0 0.000302974)
(0.0133852 0 0.000290412)
(0.0130245 0 0.000285379)
(0.012655 0 0.000290767)
(0.0122807 0 0.000295014)
(0.0119007 0 0.000302026)
(0.0115095 0 0.000313782)
(0.0111052 0 0.000323151)
(0.010696 0 0.000323949)
(0.0102887 0 0.000315629)
(0.00988989 0 0.000312017)
(0.00949008 0 0.00031435)
(0.00908892 0 0.000315271)
(0.008687 0 0.000314709)
(0.0082866 0 0.000316967)
(0.00787848 0 0.000326653)
(0.00745827 0 0.000332115)
(0.00704101 0 0.000322565)
(0.00663888 0 0.000312795)
(0.00624262 0 0.000311549)
(0.00584433 0 0.000311552)
(0.00544822 0 0.000309495)
(0.00505494 0 0.000310164)
(0.00465945 0 0.000312599)
(0.00426397 0 0.000310284)
(0.00387569 0 0.000302992)
(0.00349594 0 0.000294568)
(0.00312448 0 0.00028961)
(0.00275647 0 0.000285658)
(0.00239567 0 0.000282889)
(0.00203743 0 0.000283269)
(0.0016814 0 0.000279499)
(0.00133299 0 0.000270184)
(0.000993841 0 0.000261526)
(0.000663624 0 0.0002551)
(0.000342591 0 0.000249503)
(2.94943e-05 0 0.000247021)
(-0.000281888 0 0.000243097)
(-0.000584088 0 0.000233973)
(-0.000876512 0 0.000224839)
(-0.00115839 0 0.000218152)
(-0.0014316 0 0.000214111)
(-0.00169953 0 0.00020809)
(-0.00195854 0 0.000200035)
(-0.00220914 0 0.000192273)
(-0.00244919 0 0.000185358)
(-0.00268107 0 0.000180593)
(-0.00290802 0 0.000177962)
(-0.00313135 0 0.000173449)
(-0.00334713 0 0.000165548)
(-0.00355305 0 0.000159244)
(-0.003753 0 0.000155517)
(-0.00394816 0 0.000152213)
(-0.00413929 0 0.000149285)
(-0.00432721 0 0.000146414)
(-0.00451197 0 0.000144207)
(-0.00469465 0 0.000142777)
(-0.00487556 0 0.000142528)
(-0.00505661 0 0.000143486)
(-0.00523866 0 0.000143484)
(-0.00541998 0 0.000142683)
(-0.0056014 0 0.000143449)
(-0.00578517 0 0.000145927)
(-0.00597173 0 0.000148243)
(-0.00616007 0 0.000149126)
(-0.00634887 0 0.000149154)
(-0.00653835 0 0.000149584)
(-0.00672927 0 0.000151435)
(-0.00692341 0 0.000154919)
(-0.00712135 0 0.000157)
(-0.00732031 0 0.000156095)
(-0.00751775 0 0.000154892)
(-0.00771413 0 0.000154777)
(-0.00791075 0 0.000154685)
(-0.00810678 0 0.000154541)
(-0.00830247 0 0.000153905)
(-0.00849694 0 0.000152674)
(-0.00868999 0 0.000150975)
(-0.0088806 0 0.000149128)
(-0.00906909 0 0.000147445)
(-0.00925536 0 0.000145441)
(-0.0094384 0 0.000143115)
(-0.00961832 0 0.00014041)
(-0.00979448 0 0.000137426)
(-0.00996708 0 0.000134566)
(-0.010136 0 0.000131853)
(-0.0103016 0 0.00012914)
(-0.0104634 0 0.000125873)
(-0.0106208 0 0.000122251)
(-0.0107736 0 0.000118695)
(-0.010922 0 0.000115367)
(-0.0110663 0 0.000111986)
(-0.0112063 0 0.000108602)
(-0.0113423 0 0.000105146)
(-0.0114737 0 0.000101415)
(-0.0116003 0 9.78845e-05)
(-0.0117225 0 9.43075e-05)
(-0.0118402 0 9.08303e-05)
(-0.0119535 0 8.7116e-05)
(-0.0120623 0 8.40136e-05)
(-0.0121676 0 8.11066e-05)
(-0.0122691 0 7.83848e-05)
(-0.0123665 0 7.46507e-05)
(-0.0124591 0 7.06057e-05)
(-0.0125467 0 6.65675e-05)
(-0.0126305 0 6.39621e-05)
(-0.0127112 0 6.12217e-05)
(-0.0127883 0 5.81954e-05)
(-0.0128607 0 5.41184e-05)
(-0.0129283 0 5.08093e-05)
(-0.0129919 0 4.75384e-05)
(-0.0130519 0 4.48628e-05)
(-0.0131086 0 4.17381e-05)
(-0.0131615 0 3.91749e-05)
(-0.0132111 0 3.73721e-05)
(-0.0132584 0 3.50503e-05)
(-0.0133014 0 3.10231e-05)
(-0.0133395 0 2.71447e-05)
(-0.0133736 0 2.48973e-05)
(-0.0134046 0 2.20253e-05)
(-0.0134322 0 2.01827e-05)
(-0.0134563 0 1.70745e-05)
(-0.0134771 0 1.53954e-05)
(-0.013494 0 1.10971e-05)
(-0.0135063 0 9.23732e-06)
(-0.0135149 0 5.68325e-06)
(-0.0135205 0 5.25305e-06)
(-0.0135224 0 8.47808e-07)
(-0.01352 0 -1.39207e-06)
(-0.013512 0 -6.49158e-06)
(-0.0135007 0 -7.73002e-06)
(-0.013484 0 -1.26686e-05)
(-0.0134638 0 -1.34944e-05)
(-0.0134387 0 -1.69396e-05)
(-0.0134115 0 -1.90011e-05)
(-0.013377 0 -2.40309e-05)
(-0.0133392 0 -2.73763e-05)
(-0.0132933 0 -3.12376e-05)
(-0.0132444 0 -3.59843e-05)
(-0.0131878 0 -3.71172e-05)
(-0.0131287 0 -4.17713e-05)
(-0.0130654 0 -4.04285e-05)
(-0.0129942 0 -5.30351e-05)
(-0.0129175 0 -5.20485e-05)
(-0.0128296 0 -6.90025e-05)
(-0.0127432 0 -6.52654e-05)
(-0.0126448 0 -8.19395e-05)
(-0.0125481 0 -7.7307e-05)
(-0.0124378 0 -9.08327e-05)
(-0.0123209 0 -8.74049e-05)
(-0.0121977 0 -0.000100486)
(-0.0120647 0 -0.000112416)
(-0.0119285 0 -0.00012751)
(-0.0117931 0 -0.00013413)
(-0.011644 0 -0.000123753)
(-0.0114842 0 -0.000101209)
(-0.0113235 0 -9.83747e-05)
(-0.0111289 0 -0.0001534)
(-0.0109492 0 -0.000206008)
(-0.0108115 0 -0.000266042)
(-0.0106206 0 -0.00018603)
(-0.0104626 0 -7.58102e-06)
(-0.010261 0 8.70981e-05)
(-0.00993159 0 -3.32307e-05)
(-0.00964308 0 -0.000393476)
(-0.00897229 0 -0.000818556)
(-0.00835578 0 -0.000574358)
(-0.00783993 0 -0.000462915)
(-0.00744825 0 -0.00042453)
(-0.0070192 0 -0.000350363)
(-0.00674618 0 -0.000427637)
(-0.00632788 0 -0.000283731)
(-0.00602195 0 -0.00032668)
(-0.00558251 0 -0.000120682)
(-0.00528466 0 -0.00014719)
(-0.00485153 0 -0.000213346)
(-0.0044766 0 -0.000405994)
(-0.00438009 0 -0.000455491)
(-0.00411279 0 -0.000374906)
(-0.00372303 0 0.000394077)
(-0.00359718 0 0.000700227)
(-0.00264684 0 0.000291137)
(-0.00224627 0 -0.000820682)
(5.79449e-05 0 -0.00214728)
(0.00150239 0 -0.00167828)
(0.00328014 0 -0.00146842)
(0.00440386 0 -0.00101424)
(0.00544654 0 -0.000765912)
(0.0062681 0 -0.000606567)
(0.00701697 0 -0.000507727)
(0.00764486 0 -0.000541456)
(0.00823636 0 -0.000461048)
(0.00858629 0 -0.000558106)
(0.00918425 0 -0.000304545)
(0.00950362 0 -0.000227563)
(0.00997921 0 -6.5183e-05)
(0.0105692 0 -0.000479444)
(0.0106956 0 -0.000413625)
(0.0105459 0 -0.000981901)
(0.011147 0 0.000156244)
(0.0103868 0 0.00107511)
(0.0115455 0 0.00134657)
(0.0120829 0 0.00034077)
(0.0157352 0 -0.00154722)
(0.0182249 0 -0.00377752)
(0.0217003 0 -0.00373445)
(0.0257066 0 -0.00356345)
(0.0288642 0 -0.00317784)
(0.0313492 0 -0.00252458)
(0.0335955 0 -0.00192816)
(0.0354442 0 -0.00152268)
(0.0369745 0 -0.00126119)
(0.0383233 0 -0.00109989)
(0.039546 0 -0.000975754)
(0.0406536 0 -0.000868603)
(0.0416663 0 -0.00079632)
(0.0426228 0 -0.000747278)
(0.043533 0 -0.000707919)
(0.0444042 0 -0.00068371)
(0.0452472 0 -0.000649241)
(0.0460496 0 -0.000614509)
(0.0468126 0 -0.000593483)
(0.0475598 0 -0.000586834)
(0.0482982 0 -0.000568429)
(0.0490036 0 -0.000538862)
(0.0496798 0 -0.000527486)
(0.0503497 0 -0.000525774)
(0.051015 0 -0.000517478)
(0.0516612 0 -0.000495867)
(0.0522774 0 -0.00047055)
(0.0528701 0 -0.000459271)
(0.0534509 0 -0.000452477)
(0.0540236 0 -0.000446914)
(0.0545851 0 -0.000433447)
(0.0551297 0 -0.00042302)
(0.0556647 0 -0.000418734)
(0.0561888 0 -0.000401905)
(0.0566859 0 -0.000380516)
(0.0571605 0 -0.00036801)
(0.0576269 0 -0.000364972)
(0.058093 0 -0.000367111)
(0.0585587 0 -0.000366682)
(0.0590177 0 -0.000358379)
(0.0594627 0 -0.000345321)
(0.0598937 0 -0.000334028)
(0.0603079 0 -0.000317743)
(0.0607074 0 -0.000310739)
(0.0611 0 -0.000302357)
(0.061478 0 -0.000289311)
(0.0618399 0 -0.000283956)
(0.0621971 0 -0.000281198)
(0.062548 0 -0.000271293)
(0.0628806 0 -0.000254598)
(0.0631928 0 -0.000237007)
(0.0634861 0 -0.000222042)
(0.0637637 0 -0.000210935)
(0.0640313 0 -0.00020458)
(0.0642906 0 -0.000199851)
(0.064542 0 -0.000194419)
(0.0647861 0 -0.000187452)
(0.0650203 0 -0.00018036)
(0.0652442 0 -0.000171785)
(0.0654585 0 -0.000163069)
(0.0656618 0 -0.000155726)
(0.0658558 0 -0.000148752)
(0.0660417 0 -0.000142886)
(0.0662207 0 -0.000137258)
(0.0663926 0 -0.00013103)
(0.0665546 0 -0.000123219)
(0.0667058 0 -0.000115446)
(0.0668513 0 -0.000110737)
(0.0669862 0 -0.000106524)
(0.0671352 0 -0.000104748)
(0.0672352 0 -9.53509e-05)
(0.0674136 0 -9.12097e-05)
(0.0674326 0 -8.61853e-05)
(0.0676538 0 -8.18296e-05)
(0.0676349 0 -7.8588e-05)
(0.0678857 0 -8.24305e-05)
(0.0678062 0 -9.08447e-05)
(0.0681306 0 -0.000100318)
(0.0682708 0 -0.000106642)
(0.0669007 0 -0.000116845)
(0.0735982 0 -0.000115875)
(0.055941 0 -0.000173594)
(-0.144421 0 0.0173474)
(-0.173979 0 0.00493961)
(-0.166945 0 0.00676395)
(-0.169707 0 0.00823156)
(-0.17006 0 0.00819072)
(-0.169955 0 0.00455886)
(-0.163441 0 -0.00821361)
(-0.148057 0 -0.0325601)
(-0.124706 0 -0.057066)
(-0.107236 0 -0.0612039)
(-0.0902891 0 -0.0570332)
(-0.0723091 0 -0.0556934)
(-0.0559052 0 -0.0549754)
(-0.0388204 0 -0.0544312)
(-0.0250981 0 -0.0527423)
(-0.0139009 0 -0.041965)
(-0.00420679 0 -0.0200552)
(0.00305244 0 0.00425786)
(0.0030176 0 0.0195564)
(-0.00154737 0 0.0250656)
(-0.0051574 0 0.0227372)
(-0.00904651 0 0.0156664)
(-0.0144888 0 0.00435666)
(-0.0163823 0 -0.0057506)
(-0.0131716 0 -0.015401)
(-0.00746202 0 -0.0222339)
(-0.000836667 0 -0.0253811)
(0.00560873 0 -0.025536)
(0.0120925 0 -0.0225657)
(0.0182169 0 -0.0178986)
(0.0218247 0 -0.014224)
(0.0230137 0 -0.00863906)
(0.0217123 0 0.000504575)
(0.0175403 0 0.010118)
(0.0115424 0 0.0175878)
(0.00584651 0 0.0204134)
(0.00253986 0 0.0174864)
(0.00066592 0 0.0108672)
(-0.00139088 0 0.00657886)
(-0.00377705 0 0.00661752)
(-0.00616638 0 0.00760601)
(-0.00790551 0 0.00610172)
(-0.00893928 0 0.00104194)
(-0.00812863 0 -0.0038752)
(-0.00620039 0 -0.00659983)
(-0.00409058 0 -0.00723562)
(-0.00157009 0 -0.0052722)
(0.00110814 0 -0.00233177)
(0.00278171 0 -0.00179816)
(0.00418755 0 -0.00317378)
(0.00645195 0 -0.00596409)
(0.00866601 0 -0.00779187)
(0.0111705 0 -0.00753246)
(0.0142577 0 -0.00508383)
(0.0166227 0 -0.00333414)
(0.0182278 0 -0.00299184)
(0.0195237 0 -0.00398821)
(0.0213468 0 -0.0059847)
(0.0238325 0 -0.00776826)
(0.0270784 0 -0.00914398)
(0.0306623 0 -0.0104529)
(0.0340211 0 -0.0109531)
(0.0368788 0 -0.0092605)
(0.038975 0 -0.0062284)
(0.0406458 0 -0.00335862)
(0.0425855 0 -0.00156104)
(0.0449815 0 -0.00121854)
(0.0473083 0 -0.00104316)
(0.0489922 0 -1.11623e-05)
(0.0491549 0 0.000828436)
(0.049419 0 0.000673941)
(0.0491136 0 -0.000529379)
(0.0490841 0 -0.00240911)
(0.0497768 0 -0.00309059)
(0.0512646 0 -0.00337867)
(0.0530053 0 -0.00217891)
(0.054137 0 0.000251767)
(0.05525 0 0.00890773)
(0.0531614 0 0.00967513)
(0.0529732 0 0.00399909)
(0.0478411 0 0.00492266)
(0.0405873 0 0.00118438)
(0.0414508 0 -0.000387113)
(0.039208 0 -0.00257812)
(0.0400526 0 -0.00182536)
(0.0396173 0 0.00190525)
(0.039797 0 0.0034428)
(0.0396637 0 0.00561415)
(0.0395808 0 0.00556485)
(0.0379204 0 0.00540724)
(0.0341567 0 0.00397266)
(0.0314489 0 0.00172528)
(0.0289784 0 0.00213039)
(0.02697 0 0.00189624)
(0.0262966 0 0.00303787)
(0.0251517 0 0.00357998)
(0.0242004 0 0.00538411)
(0.0235515 0 0.00659495)
(0.0222604 0 0.00909498)
(0.0235907 0 0.0144351)
(0.0205038 0 0.0164958)
(0.0176769 0 0.016928)
(0.00834975 0 0.0101898)
(0.000688261 0 0.00467952)
(-0.00626175 0 -0.00367485)
(-0.0105796 0 -0.00658534)
(-0.0115818 0 -0.00185498)
(-0.0118439 0 0.00166295)
(-0.0123475 0 0.00421935)
(-0.0101505 0 0.00237196)
(-0.00877051 0 0.00203933)
(-0.00958979 0 0.000186779)
(-0.00952694 0 -0.000906169)
(-0.00974827 0 -0.000752262)
(-0.00994479 0 0.00025638)
(-0.0095812 0 0.000724446)
(-0.00945507 0 0.00204903)
(-0.00889413 0 0.00300144)
(-0.00951823 0 0.00250925)
(-0.00966485 0 0.00181735)
(-0.0116194 0 0.00081617)
(-0.0126385 0 0.000510023)
(-0.0137376 0 -0.000993942)
(-0.013694 0 -0.00164658)
(-0.0138148 0 -0.000653439)
(-0.0136647 0 -0.000207407)
(-0.0130819 0 0.000130912)
(-0.01283 0 0.00013442)
(-0.0128518 0 -0.000247794)
(-0.01271 0 -0.000665716)
(-0.0126571 0 -0.000598986)
(-0.0125174 0 -0.000691015)
(-0.0122706 0 -0.000452598)
(-0.0121045 0 -0.000445844)
(-0.0118963 0 -0.00036556)
(-0.0117067 0 -0.000649021)
(-0.0114122 0 -0.0008847)
(-0.0110936 0 -0.000956102)
(-0.0107676 0 -0.000950912)
(-0.0104117 0 -0.000901224)
(-0.0100788 0 -0.000941875)
(-0.00968418 0 -0.000996064)
(-0.00927715 0 -0.00107294)
(-0.00884059 0 -0.00105185)
(-0.00842779 0 -0.000967594)
(-0.00800463 0 -0.000963903)
(-0.00757149 0 -0.00101239)
(-0.00711092 0 -0.00110872)
(-0.00660931 0 -0.00122123)
(-0.00612444 0 -0.00121457)
(-0.00565606 0 -0.00112232)
(-0.00517723 0 -0.00108074)
(-0.00467042 0 -0.00119041)
(-0.00412187 0 -0.00132633)
(-0.00355459 0 -0.00135328)
(-0.00301816 0 -0.00132512)
(-0.00248532 0 -0.00131947)
(-0.0019118 0 -0.00133328)
(-0.0013033 0 -0.00136204)
(-0.000691999 0 -0.00138267)
(-0.000103715 0 -0.00140096)
(0.000478646 0 -0.0014336)
(0.0010873 0 -0.00143864)
(0.00168046 0 -0.00140124)
(0.00228416 0 -0.00141796)
(0.00290951 0 -0.0014669)
(0.00354121 0 -0.0014648)
(0.0041527 0 -0.00140006)
(0.00474064 0 -0.00139053)
(0.00534123 0 -0.00143955)
(0.00596224 0 -0.00146917)
(0.0065789 0 -0.00143478)
(0.00717034 0 -0.0013619)
(0.00775861 0 -0.00135482)
(0.00834206 0 -0.00139935)
(0.00893561 0 -0.00142801)
(0.00953347 0 -0.0014307)
(0.0101327 0 -0.00139476)
(0.0107197 0 -0.00131438)
(0.0112804 0 -0.00127621)
(0.0118304 0 -0.0012709)
(0.0123675 0 -0.00128134)
(0.0129104 0 -0.00131046)
(0.0134629 0 -0.00130693)
(0.0140119 0 -0.00127755)
(0.014553 0 -0.00121809)
(0.0150627 0 -0.00114814)
(0.0155448 0 -0.00113927)
(0.0160215 0 -0.00115371)
(0.016499 0 -0.00114487)
(0.0169764 0 -0.0010914)
(0.0174432 0 -0.00103102)
(0.0178865 0 -0.00098102)
(0.0183016 0 -0.000957924)
(0.0186994 0 -0.000954907)
(0.0190953 0 -0.00094593)
(0.0194851 0 -0.000907634)
(0.0198542 0 -0.000829163)
(0.0201978 0 -0.000753336)
(0.0205182 0 -0.0007102)
(0.0208267 0 -0.000707653)
(0.021127 0 -0.000699534)
(0.0214111 0 -0.000654388)
(0.0216695 0 -0.000590168)
(0.0219057 0 -0.000530418)
(0.0221312 0 -0.000491214)
(0.0223448 0 -0.000475832)
(0.0225398 0 -0.000446299)
(0.0227096 0 -0.00037761)
(0.0228487 0 -0.000284317)
(0.0229759 0 -0.000279569)
(0.0231032 0 -0.000288044)
(0.0232152 0 -0.000262739)
(0.0233117 0 -0.000221268)
(0.0233872 0 -0.000142619)
(0.0234377 0 -6.34417e-05)
(0.0234664 0 -2.57069e-05)
(0.0234812 0 -3.70917e-05)
(0.0234955 0 -4.13558e-05)
(0.0235005 0 -1.68895e-05)
(0.0234911 0 2.50165e-05)
(0.0234656 0 9.85056e-05)
(0.0234199 0 0.000153025)
(0.0233586 0 0.000179776)
(0.0232821 0 0.000176475)
(0.0232022 0 0.000173334)
(0.0231162 0 0.000190086)
(0.0230218 0 0.0002214)
(0.022914 0 0.000287442)
(0.0227868 0 0.000329169)
(0.0226476 0 0.000344021)
(0.0225085 0 0.000336024)
(0.0223694 0 0.000326326)
(0.0222242 0 0.000343478)
(0.0220712 0 0.000373284)
(0.0219034 0 0.000402017)
(0.0217176 0 0.000427849)
(0.0215221 0 0.000458752)
(0.0213217 0 0.000478053)
(0.021124 0 0.000487276)
(0.0209295 0 0.000494965)
(0.0207258 0 0.00048336)
(0.0205107 0 0.000492286)
(0.0202887 0 0.000511752)
(0.0200573 0 0.000541678)
(0.0198141 0 0.000590653)
(0.0195694 0 0.00061142)
(0.0193253 0 0.000579206)
(0.0190789 0 0.000576163)
(0.0188223 0 0.00059785)
(0.0185541 0 0.000626716)
(0.0182774 0 0.000666452)
(0.0179967 0 0.000683144)
(0.0177156 0 0.00068434)
(0.0174308 0 0.00068867)
(0.0171337 0 0.000697397)
(0.0168267 0 0.000723333)
(0.0165017 0 0.00075111)
(0.0161769 0 0.000763699)
(0.0158591 0 0.000774676)
(0.0155341 0 0.000778445)
(0.0152009 0 0.000781313)
(0.014861 0 0.000803495)
(0.0145081 0 0.000841619)
(0.0141432 0 0.000874972)
(0.0137727 0 0.000891205)
(0.0134028 0 0.000868287)
(0.0130346 0 0.000863069)
(0.0126605 0 0.000877864)
(0.0122803 0 0.000890801)
(0.0118919 0 0.000909409)
(0.0114979 0 0.000936948)
(0.0111008 0 0.000954823)
(0.0107048 0 0.000959572)
(0.0103022 0 0.000950964)
(0.00989473 0 0.000942925)
(0.0094881 0 0.000944289)
(0.00908253 0 0.000946631)
(0.00867807 0 0.000946017)
(0.00827471 0 0.000953234)
(0.00786455 0 0.000974917)
(0.00745186 0 0.000984018)
(0.00704188 0 0.000964728)
(0.00663707 0 0.000941628)
(0.00623754 0 0.000936968)
(0.00583502 0 0.000936899)
(0.00543334 0 0.000930965)
(0.00503627 0 0.000929339)
(0.00464463 0 0.000930525)
(0.00425565 0 0.000921372)
(0.00387277 0 0.000904034)
(0.00349298 0 0.000886011)
(0.0031159 0 0.000872609)
(0.00274318 0 0.000859866)
(0.0023794 0 0.000847005)
(0.0020249 0 0.000839374)
(0.00167734 0 0.000827454)
(0.00133341 0 0.000810523)
(0.000990563 0 0.000790501)
(0.000655543 0 0.000768566)
(0.000332056 0 0.000746969)
(2.07956e-05 0 0.000734376)
(-0.000284626 0 0.000721342)
(-0.000585155 0 0.00070037)
(-0.000881624 0 0.000678029)
(-0.00116601 0 0.000653923)
(-0.00143646 0 0.000636457)
(-0.0017005 0 0.000619844)
(-0.00195976 0 0.000600914)
(-0.00221362 0 0.00057874)
(-0.00245516 0 0.000556257)
(-0.00268725 0 0.000540376)
(-0.00291323 0 0.00052962)
(-0.00313361 0 0.00051664)
(-0.00335123 0 0.000497147)
(-0.00356022 0 0.000478545)
(-0.00376036 0 0.000465449)
(-0.00395596 0 0.000454805)
(-0.00414695 0 0.000446414)
(-0.00433594 0 0.000439226)
(-0.00452286 0 0.000433215)
(-0.00470736 0 0.000428582)
(-0.00488931 0 0.000426239)
(-0.00507009 0 0.000427099)
(-0.00525067 0 0.000427519)
(-0.00543192 0 0.000427339)
(-0.00561452 0 0.000430418)
(-0.00579927 0 0.000436079)
(-0.00598527 0 0.000440897)
(-0.00617238 0 0.00044359)
(-0.00636046 0 0.000445272)
(-0.00655026 0 0.000448297)
(-0.00674208 0 0.000453616)
(-0.00693618 0 0.000461293)
(-0.00713164 0 0.000466661)
(-0.0073288 0 0.000466912)
(-0.00752688 0 0.000463859)
(-0.00772366 0 0.00046282)
(-0.00792082 0 0.000462246)
(-0.00811654 0 0.000460961)
(-0.00831135 0 0.000459151)
(-0.00850538 0 0.000456207)
(-0.00869859 0 0.000451892)
(-0.00888969 0 0.000446513)
(-0.00907911 0 0.000441477)
(-0.00926596 0 0.000434816)
(-0.00944856 0 0.000427255)
(-0.00962781 0 0.000419083)
(-0.00980364 0 0.000410599)
(-0.00997639 0 0.000402064)
(-0.0101455 0 0.000393825)
(-0.010311 0 0.000385365)
(-0.0104726 0 0.000375635)
(-0.0106298 0 0.000365045)
(-0.0107826 0 0.000354565)
(-0.0109309 0 0.000344644)
(-0.0110751 0 0.000334793)
(-0.0112153 0 0.000325111)
(-0.0113518 0 0.000315008)
(-0.0114835 0 0.000303953)
(-0.0116101 0 0.000293083)
(-0.0117322 0 0.000282748)
(-0.01185 0 0.000272355)
(-0.0119635 0 0.00026199)
(-0.0120726 0 0.000252468)
(-0.0121776 0 0.000243852)
(-0.0122781 0 0.000234226)
(-0.0123743 0 0.000223907)
(-0.0124664 0 0.000212456)
(-0.0125543 0 0.000202894)
(-0.0126385 0 0.000194633)
(-0.0127192 0 0.000186881)
(-0.0127961 0 0.000176648)
(-0.0128684 0 0.000165957)
(-0.012936 0 0.000155507)
(-0.0129996 0 0.000146931)
(-0.0130598 0 0.000138589)
(-0.013117 0 0.000130522)
(-0.0131703 0 0.000121977)
(-0.0132199 0 0.000115122)
(-0.013265 0 0.000106937)
(-0.0133069 0 9.65864e-05)
(-0.0133451 0 8.63152e-05)
(-0.0133797 0 7.76519e-05)
(-0.0134109 0 7.00988e-05)
(-0.013439 0 6.12378e-05)
(-0.0134632 0 5.3571e-05)
(-0.0134835 0 4.39512e-05)
(-0.0135 0 3.48735e-05)
(-0.0135129 0 2.38119e-05)
(-0.0135221 0 1.67267e-05)
(-0.0135275 0 6.78531e-06)
(-0.0135281 0 -1.60246e-06)
(-0.013525 0 -1.48008e-05)
(-0.0135179 0 -2.38085e-05)
(-0.0135074 0 -3.59415e-05)
(-0.0134917 0 -4.55614e-05)
(-0.0134718 0 -5.74127e-05)
(-0.0134461 0 -6.5539e-05)
(-0.0134166 0 -7.74974e-05)
(-0.013383 0 -9.00401e-05)
(-0.0133446 0 -0.000103641)
(-0.0133015 0 -0.000118277)
(-0.0132517 0 -0.000129179)
(-0.0131974 0 -0.000145275)
(-0.0131357 0 -0.000149865)
(-0.0130721 0 -0.000171475)
(-0.0129998 0 -0.000179207)
(-0.0129272 0 -0.000206938)
(-0.0128422 0 -0.000205183)
(-0.0127558 0 -0.000225185)
(-0.012659 0 -0.000225644)
(-0.0125547 0 -0.00024698)
(-0.0124455 0 -0.000267672)
(-0.0123276 0 -0.000287749)
(-0.0122173 0 -0.000305147)
(-0.0120848 0 -0.000308464)
(-0.0119543 0 -0.000302618)
(-0.0117977 0 -0.000310361)
(-0.0116247 0 -0.000362642)
(-0.0114655 0 -0.000392821)
(-0.0113401 0 -0.000468911)
(-0.0111899 0 -0.000427831)
(-0.0110694 0 -0.000310068)
(-0.0108187 0 -0.000257895)
(-0.0104808 0 -0.000349902)
(-0.0101485 0 -0.000507556)
(-0.00959227 0 -0.000937012)
(-0.00906294 0 -0.000857964)
(-0.00852797 0 -0.00117125)
(-0.00832955 0 -0.00126897)
(-0.00801089 0 -0.00114066)
(-0.00778497 0 -0.00101184)
(-0.00742498 0 -0.000844974)
(-0.00707602 0 -0.000767893)
(-0.00671069 0 -0.000652179)
(-0.00625746 0 -0.000858317)
(-0.0058612 0 -0.000843846)
(-0.00543948 0 -0.00103994)
(-0.00540002 0 -0.00100156)
(-0.00512227 0 -0.0010602)
(-0.00475366 0 -0.000332134)
(-0.00428 0 -0.000114373)
(-0.00313277 0 -0.000655887)
(-0.00250691 0 -0.0011975)
(-0.000176655 0 -0.00239638)
(0.00117587 0 -0.00241138)
(0.00303841 0 -0.00342727)
(0.00357497 0 -0.00375781)
(0.00428972 0 -0.00337681)
(0.00478245 0 -0.00310072)
(0.00549191 0 -0.00238443)
(0.00600533 0 -0.00216675)
(0.00659651 0 -0.00185518)
(0.00712802 0 -0.00166023)
(0.00773556 0 -0.00136769)
(0.00824667 0 -0.0010298)
(0.00885647 0 -0.000924729)
(0.00964679 0 -0.00115356)
(0.0098159 0 -0.000988667)
(0.00976111 0 -0.0016443)
(0.0102108 0 -0.000584466)
(0.0098885 0 0.000385939)
(0.0114835 0 0.000286454)
(0.0123151 0 2.02188e-05)
(0.0170897 0 -0.00152642)
(0.0192999 0 -0.00398283)
(0.0225574 0 -0.00639148)
(0.026175 0 -0.00830589)
(0.028975 0 -0.00860364)
(0.0305564 0 -0.00750046)
(0.0319256 0 -0.00672337)
(0.0331993 0 -0.00616771)
(0.0344072 0 -0.00539732)
(0.0356393 0 -0.00454481)
(0.036854 0 -0.00381554)
(0.0380058 0 -0.003299)
(0.0390962 0 -0.00296366)
(0.0401349 0 -0.00270317)
(0.0411281 0 -0.00246841)
(0.0420798 0 -0.00230665)
(0.0429976 0 -0.00219659)
(0.0438846 0 -0.00209735)
(0.0447381 0 -0.00202367)
(0.0455565 0 -0.00193196)
(0.0463443 0 -0.0018442)
(0.0471089 0 -0.00178381)
(0.0478535 0 -0.00175469)
(0.0485787 0 -0.00170136)
(0.0492837 0 -0.00162929)
(0.049972 0 -0.00159189)
(0.0506453 0 -0.00157468)
(0.0513018 0 -0.00154232)
(0.0519418 0 -0.00148677)
(0.0525647 0 -0.00142595)
(0.0531709 0 -0.00138982)
(0.0537624 0 -0.00135961)
(0.0543373 0 -0.00133583)
(0.054899 0 -0.00130353)
(0.0554521 0 -0.00127509)
(0.0559894 0 -0.00124742)
(0.0565071 0 -0.00119822)
(0.057009 0 -0.00114596)
(0.0574978 0 -0.00111273)
(0.0579757 0 -0.00110122)
(0.0584451 0 -0.00109707)
(0.0589027 0 -0.00108566)
(0.059348 0 -0.00106145)
(0.0597824 0 -0.00102899)
(0.0602046 0 -0.000997103)
(0.060616 0 -0.000959629)
(0.0610164 0 -0.000936787)
(0.0614054 0 -0.000908214)
(0.0617797 0 -0.000870101)
(0.0621408 0 -0.000847352)
(0.0624899 0 -0.000830617)
(0.0628251 0 -0.000800335)
(0.0631467 0 -0.000757607)
(0.0634555 0 -0.000713828)
(0.063753 0 -0.000676049)
(0.06404 0 -0.000645533)
(0.0643152 0 -0.000622497)
(0.0645779 0 -0.000602864)
(0.0648294 0 -0.000582856)
(0.0650708 0 -0.000562048)
(0.065303 0 -0.000539762)
(0.0655254 0 -0.000515196)
(0.0657376 0 -0.00049036)
(0.0659402 0 -0.000467346)
(0.0661329 0 -0.000447316)
(0.0663176 0 -0.000430263)
(0.0664943 0 -0.000411992)
(0.0666613 0 -0.000390053)
(0.0668189 0 -0.000367861)
(0.0669682 0 -0.000347382)
(0.0671142 0 -0.000335755)
(0.0672487 0 -0.000322373)
(0.067393 0 -0.000310319)
(0.0674876 0 -0.000287732)