/*--------------------------------*- C++ -*----------------------------------*\
| =========                 |                                                 |
| \\      /  F ield         | OpenFOAM: The Open Source CFD Toolbox           |
|  \\    /   O peration     | Version:  v2006                                 |
|   \\  /    A nd           | Website:  www.openfoam.com                      |
|    \\/     M anipulation  |                                                 |
\*---------------------------------------------------------------------------*/
FoamFile
{
    version     2.0;
    format      ascii;
    class       volScalarField;
    location    "5.1";
    object      k;
}
// * * * * * * * * * * * * * * * * * * * * * * * * * * * * * * * * * * * * * //

dimensions      [0 2 -2 0 0 0 0];


internalField   nonuniform List<scalar> 
33000
(
1.08883e-08
1.14577e-08
1.19387e-08
1.2394e-08
1.28443e-08
1.33374e-08
1.39283e-08
1.46388e-08
1.54666e-08
1.64024e-08
1.73831e-08
1.83292e-08
1.93526e-08
2.06689e-08
2.23828e-08
2.45332e-08
2.71441e-08
3.01839e-08
3.35976e-08
3.74471e-08
4.23843e-08
5.02368e-08
6.24478e-08
7.93023e-08
9.9215e-08
1.1929e-07
1.36963e-07
1.51124e-07
1.61755e-07
1.69255e-07
1.73809e-07
1.76434e-07
1.78419e-07
1.80378e-07
1.82213e-07
1.83473e-07
1.84112e-07
1.84616e-07
1.85356e-07
1.8608e-07
1.86263e-07
1.85739e-07
1.85113e-07
1.8527e-07
1.86247e-07
1.87227e-07
1.8747e-07
1.86746e-07
1.85591e-07
1.84856e-07
1.84776e-07
1.84852e-07
1.84456e-07
1.83532e-07
1.82478e-07
1.81531e-07
1.80641e-07
1.79695e-07
1.7872e-07
1.77966e-07
1.77831e-07
1.77941e-07
1.77436e-07
1.76262e-07
1.74535e-07
1.72273e-07
1.69409e-07
1.65873e-07
1.61624e-07
1.56727e-07
1.51429e-07
1.45842e-07
1.39985e-07
1.33847e-07
1.2749e-07
1.21032e-07
1.14704e-07
1.08797e-07
1.03786e-07
1.00897e-07
1.012e-07
1.04735e-07
1.10475e-07
1.16903e-07
1.21971e-07
1.24707e-07
1.25652e-07
1.25693e-07
1.25098e-07
1.24474e-07
1.23804e-07
1.22489e-07
1.20386e-07
1.17163e-07
1.12868e-07
1.07651e-07
1.01817e-07
9.57365e-08
8.99945e-08
8.52445e-08
8.27254e-08
8.3595e-08
8.68583e-08
9.01302e-08
9.04686e-08
8.93101e-08
8.95635e-08
9.07587e-08
9.11861e-08
9.05193e-08
8.98973e-08
8.88093e-08
8.78204e-08
8.69104e-08
8.57764e-08
8.39203e-08
8.17133e-08
7.96618e-08
7.85466e-08
7.8683e-08
7.85156e-08
7.93406e-08
7.91891e-08
7.88486e-08
7.93513e-08
7.98454e-08
8.01689e-08
8.04639e-08
8.05683e-08
8.06294e-08
8.07619e-08
8.08814e-08
8.09911e-08
8.10675e-08
8.11045e-08
8.10961e-08
8.10623e-08
8.10287e-08
8.09941e-08
8.09554e-08
8.09089e-08
8.08429e-08
8.07534e-08
8.06455e-08
8.05208e-08
8.0374e-08
8.02088e-08
8.00339e-08
7.98555e-08
7.96781e-08
7.95012e-08
7.93204e-08
7.91354e-08
7.89503e-08
7.87687e-08
7.85866e-08
7.83946e-08
7.8191e-08
7.79821e-08
7.77732e-08
7.75633e-08
7.73494e-08
7.71343e-08
7.69213e-08
7.67071e-08
7.64859e-08
7.62582e-08
7.60264e-08
7.57882e-08
7.5538e-08
7.52746e-08
7.50079e-08
7.47473e-08
7.4491e-08
7.42333e-08
7.39833e-08
7.37503e-08
7.35415e-08
7.33547e-08
7.31815e-08
7.30257e-08
7.28886e-08
7.27689e-08
7.26547e-08
7.25519e-08
7.25356e-08
7.26281e-08
7.28215e-08
7.30973e-08
7.34371e-08
7.38334e-08
7.42678e-08
7.46866e-08
7.50417e-08
7.53211e-08
7.55311e-08
7.56711e-08
7.57395e-08
7.57448e-08
7.57051e-08
7.56357e-08
7.55358e-08
7.53951e-08
7.52274e-08
7.50495e-08
7.48752e-08
7.47145e-08
7.45646e-08
7.44129e-08
7.42511e-08
7.4086e-08
7.39294e-08
7.37788e-08
7.36163e-08
7.34318e-08
7.32364e-08
7.30452e-08
7.28613e-08
7.26774e-08
7.2474e-08
7.22346e-08
7.19678e-08
7.16954e-08
7.14318e-08
7.11761e-08
7.0913e-08
7.0629e-08
7.03295e-08
7.00284e-08
6.97313e-08
6.94439e-08
6.91674e-08
6.88846e-08
6.85842e-08
6.8279e-08
6.79783e-08
6.76826e-08
6.73936e-08
6.71028e-08
6.68014e-08
6.64988e-08
6.62019e-08
6.59025e-08
6.55899e-08
6.52664e-08
6.49472e-08
6.46405e-08
6.43389e-08
6.40153e-08
6.36735e-08
6.33375e-08
6.30097e-08
6.26795e-08
6.2341e-08
6.19996e-08
6.16546e-08
6.13002e-08
6.09458e-08
6.05909e-08
6.02354e-08
5.98784e-08
5.9509e-08
5.91316e-08
5.87555e-08
5.83857e-08
5.80229e-08
5.76562e-08
5.72767e-08
5.6883e-08
5.64858e-08
5.60972e-08
5.57156e-08
5.53376e-08
5.49532e-08
5.45539e-08
5.41502e-08
5.3747e-08
5.33443e-08
5.29366e-08
5.25232e-08
5.21121e-08
5.17076e-08
5.12999e-08
5.08777e-08
5.04506e-08
5.00222e-08
4.95953e-08
4.91695e-08
4.87426e-08
4.8313e-08
4.78727e-08
4.7426e-08
4.69763e-08
4.65257e-08
4.60762e-08
4.56246e-08
4.5161e-08
4.46917e-08
4.42173e-08
4.37333e-08
4.32433e-08
4.27472e-08
4.22729e-08
4.18355e-08
4.14362e-08
4.10809e-08
4.07668e-08
4.04934e-08
4.02638e-08
4.00802e-08
3.99429e-08
3.9849e-08
3.9797e-08
3.97872e-08
3.98242e-08
3.99068e-08
4.00289e-08
4.01774e-08
4.03229e-08
4.04514e-08
4.05589e-08
4.06421e-08
4.07011e-08
4.07383e-08
4.07548e-08
4.07494e-08
4.0721e-08
4.06714e-08
4.06038e-08
4.05185e-08
4.04157e-08
4.02956e-08
4.01584e-08
4.00059e-08
3.98394e-08
3.96606e-08
3.94693e-08
3.92666e-08
3.90526e-08
3.88282e-08
3.85945e-08
3.83526e-08
3.81028e-08
3.7846e-08
3.75822e-08
3.73148e-08
3.70454e-08
3.67745e-08
3.65018e-08
3.62269e-08
3.595e-08
3.56714e-08
3.53914e-08
3.511e-08
3.48272e-08
3.45434e-08
3.42588e-08
3.39734e-08
3.3687e-08
3.34001e-08
3.31125e-08
3.28246e-08
3.25363e-08
3.22481e-08
3.196e-08
3.16724e-08
3.13854e-08
3.10989e-08
3.0813e-08
3.05276e-08
3.02427e-08
2.99586e-08
2.96753e-08
2.9393e-08
2.91117e-08
2.88316e-08
2.85528e-08
2.82754e-08
2.79993e-08
2.77247e-08
2.74515e-08
2.71798e-08
2.69096e-08
2.6641e-08
2.6374e-08
2.61087e-08
2.58451e-08
2.55832e-08
2.53231e-08
2.50649e-08
2.4808e-08
2.45531e-08
2.43001e-08
2.40492e-08
2.38002e-08
2.35532e-08
2.33082e-08
2.30651e-08
2.28236e-08
2.25838e-08
2.23458e-08
2.21098e-08
2.18756e-08
2.16435e-08
2.14134e-08
2.11853e-08
2.09594e-08
2.07357e-08
2.05145e-08
2.02951e-08
2.00781e-08
1.98629e-08
1.965e-08
1.94388e-08
1.92301e-08
1.90224e-08
1.8816e-08
1.8611e-08
1.84053e-08
1.82029e-08
1.80076e-08
1.78079e-08
1.76135e-08
1.74173e-08
1.7188e-08
1.69825e-08
1.68366e-08
1.65944e-08
1.65232e-08
1.6395e-08
1.65447e-08
1.64529e-08
1.64303e-08
1.63265e-08
1.62425e-08
1.61267e-08
1.60179e-08
1.59e-08
1.57834e-08
1.56614e-08
1.55391e-08
1.54144e-08
1.52688e-08
1.51388e-08
1.50287e-08
1.48849e-08
1.48059e-08
1.47159e-08
1.474e-08
1.46431e-08
1.45782e-08
1.4491e-08
1.4402e-08
1.43153e-08
1.42256e-08
1.41343e-08
1.40398e-08
1.39104e-08
1.38002e-08
1.37324e-08
1.35788e-08
1.35356e-08
1.33958e-08
1.29671e-08
1.28627e-08
1.29378e-08
1.25235e-08
1.35214e-08
1.37855e-08
1.71671e-08
1.79814e-08
1.92523e-08
1.99863e-08
2.05653e-08
2.10043e-08
2.13369e-08
2.15845e-08
2.17649e-08
2.18994e-08
2.20018e-08
2.20798e-08
2.21391e-08
2.21821e-08
2.22103e-08
2.22283e-08
2.22379e-08
2.22406e-08
2.22367e-08
2.22271e-08
2.22127e-08
2.21939e-08
2.21716e-08
2.2146e-08
2.21177e-08
2.20865e-08
2.20526e-08
2.20163e-08
2.19772e-08
2.19353e-08
2.18903e-08
2.18424e-08
2.17914e-08
2.17373e-08
2.16805e-08
2.16217e-08
2.1561e-08
2.14992e-08
2.14366e-08
2.13733e-08
2.13098e-08
2.12462e-08
2.11829e-08
2.112e-08
2.10575e-08
2.09952e-08
2.09325e-08
2.08692e-08
2.0805e-08
2.07395e-08
2.06727e-08
2.06048e-08
2.05362e-08
2.04679e-08
2.04011e-08
2.03359e-08
2.0272e-08
2.02085e-08
2.01451e-08
2.00827e-08
2.00227e-08
1.99662e-08
1.99125e-08
1.98599e-08
1.98073e-08
1.97562e-08
1.97085e-08
1.96637e-08
1.96197e-08
1.95749e-08
1.95308e-08
1.94892e-08
1.94495e-08
1.94098e-08
1.93699e-08
1.93359e-08
1.92871e-08
1.93587e-08
1.89277e-08
1.89495e-08
1.62822e-08
1.00018e-08
1.00041e-08
1.00096e-08
1.00271e-08
1.00732e-08
1.01762e-08
1.0371e-08
1.06812e-08
1.11089e-08
1.17806e-08
1.28976e-08
1.41659e-08
1.54619e-08
1.71464e-08
1.95078e-08
2.27834e-08
2.72083e-08
3.29548e-08
4.00783e-08
4.84651e-08
5.75401e-08
6.63857e-08
7.53159e-08
8.36663e-08
8.95579e-08
9.1196e-08
8.81834e-08
8.12346e-08
7.31224e-08
6.51404e-08
5.81785e-08
5.28616e-08
4.91966e-08
4.69338e-08
4.55578e-08
4.45794e-08
4.37457e-08
4.30067e-08
4.23643e-08
4.17323e-08
4.10326e-08
4.0278e-08
3.96404e-08
3.93345e-08
3.92937e-08
3.92016e-08
3.88565e-08
3.82537e-08
3.75566e-08
3.69851e-08
3.65739e-08
3.61602e-08
3.56002e-08
3.48915e-08
3.4117e-08
3.33606e-08
3.26847e-08
3.21594e-08
3.18856e-08
3.19911e-08
3.25917e-08
3.35534e-08
3.44412e-08
3.47903e-08
3.47633e-08
3.46964e-08
3.45975e-08
3.3934e-08
3.22898e-08
3.02364e-08
2.8683e-08
2.81399e-08
2.9014e-08
3.08383e-08
3.3762e-08
3.77064e-08
4.30925e-08
4.98585e-08
5.46978e-08
5.74561e-08
6.13748e-08
6.71565e-08
7.54911e-08
8.19963e-08
8.18902e-08
7.52859e-08
6.32015e-08
4.73387e-08
3.31737e-08
2.46686e-08
1.96081e-08
1.6747e-08
1.56715e-08
1.55542e-08
1.63348e-08
1.74294e-08
1.9462e-08
2.15401e-08
2.56012e-08
3.00868e-08
3.25011e-08
3.20168e-08
2.85638e-08
2.50877e-08
2.20076e-08
1.96876e-08
1.82672e-08
1.70173e-08
1.58668e-08
1.49788e-08
1.46084e-08
1.44062e-08
1.42189e-08
1.4265e-08
1.48217e-08
1.58242e-08
1.83504e-08
2.03405e-08
2.00862e-08
1.82117e-08
1.6554e-08
1.54601e-08
1.49225e-08
1.46253e-08
1.45573e-08
1.43906e-08
1.42525e-08
1.41297e-08
1.40786e-08
1.40661e-08
1.40976e-08
1.41519e-08
1.42067e-08
1.42563e-08
1.431e-08
1.43739e-08
1.44432e-08
1.45157e-08
1.45884e-08
1.46572e-08
1.47182e-08
1.47685e-08
1.48201e-08
1.48855e-08
1.49521e-08
1.49992e-08
1.50401e-08
1.50999e-08
1.51822e-08
1.52649e-08
1.53137e-08
1.53357e-08
1.53663e-08
1.54187e-08
1.54769e-08
1.55193e-08
1.5535e-08
1.5548e-08
1.55759e-08
1.55947e-08
1.55897e-08
1.55801e-08
1.55897e-08
1.55962e-08
1.55658e-08
1.55199e-08
1.54999e-08
1.54951e-08
1.54439e-08
1.53594e-08
1.52895e-08
1.52454e-08
1.52004e-08
1.51177e-08
1.49911e-08
1.48764e-08
1.47907e-08
1.47017e-08
1.45903e-08
1.44563e-08
1.43267e-08
1.4215e-08
1.40976e-08
1.39388e-08
1.37738e-08
1.36517e-08
1.35462e-08
1.34274e-08
1.32963e-08
1.3162e-08
1.30346e-08
1.29166e-08
1.28148e-08
1.27108e-08
1.26071e-08
1.25059e-08
1.24009e-08
1.2295e-08
1.22004e-08
1.21245e-08
1.20581e-08
1.19843e-08
1.19006e-08
1.18132e-08
1.17364e-08
1.16736e-08
1.16171e-08
1.15586e-08
1.14954e-08
1.14311e-08
1.13784e-08
1.1337e-08
1.12925e-08
1.12353e-08
1.11784e-08
1.11334e-08
1.10998e-08
1.1073e-08
1.10422e-08
1.10033e-08
1.09611e-08
1.09253e-08
1.09e-08
1.08819e-08
1.08652e-08
1.08446e-08
1.08226e-08
1.08031e-08
1.07869e-08
1.07759e-08
1.07697e-08
1.07637e-08
1.07556e-08
1.07483e-08
1.07442e-08
1.07435e-08
1.07455e-08
1.07477e-08
1.0749e-08
1.07498e-08
1.07511e-08
1.07531e-08
1.07554e-08
1.07577e-08
1.076e-08
1.07632e-08
1.07675e-08
1.07709e-08
1.07724e-08
1.07741e-08
1.07769e-08
1.07798e-08
1.07818e-08
1.07835e-08
1.07857e-08
1.07871e-08
1.07871e-08
1.07867e-08
1.07863e-08
1.07858e-08
1.07846e-08
1.0783e-08
1.07811e-08
1.078e-08
1.07792e-08
1.07775e-08
1.07742e-08
1.07691e-08
1.07633e-08
1.07589e-08
1.07558e-08
1.07537e-08
1.07511e-08
1.0747e-08
1.07411e-08
1.07347e-08
1.07289e-08
1.07242e-08
1.07191e-08
1.07135e-08
1.07088e-08
1.0705e-08
1.06994e-08
1.06919e-08
1.0684e-08
1.06769e-08
1.0671e-08
1.06662e-08
1.06611e-08
1.06546e-08
1.06465e-08
1.06378e-08
1.06302e-08
1.06243e-08
1.06185e-08
1.06116e-08
1.06039e-08
1.05957e-08
1.05876e-08
1.05803e-08
1.05734e-08
1.05662e-08
1.05581e-08
1.055e-08
1.05427e-08
1.05357e-08
1.05279e-08
1.05191e-08
1.05113e-08
1.05044e-08
1.04973e-08
1.04895e-08
1.04811e-08
1.04727e-08
1.04649e-08
1.04572e-08
1.04491e-08
1.04406e-08
1.04322e-08
1.04242e-08
1.04162e-08
1.04074e-08
1.03979e-08
1.0389e-08
1.03806e-08
1.03721e-08
1.03629e-08
1.03542e-08
1.03461e-08
1.03386e-08
1.03312e-08
1.03237e-08
1.03161e-08
1.03087e-08
1.03018e-08
1.02953e-08
1.02895e-08
1.02841e-08
1.02787e-08
1.02733e-08
1.02685e-08
1.02646e-08
1.02613e-08
1.02583e-08
1.02553e-08
1.02523e-08
1.02499e-08
1.02484e-08
1.02475e-08
1.02465e-08
1.02455e-08
1.02449e-08
1.02452e-08
1.02456e-08
1.0246e-08
1.0246e-08
1.02467e-08
1.02476e-08
1.02486e-08
1.02491e-08
1.02499e-08
1.02506e-08
1.0251e-08
1.02511e-08
1.02507e-08
1.02499e-08
1.0249e-08
1.0248e-08
1.02466e-08
1.02451e-08
1.02431e-08
1.02405e-08
1.02379e-08
1.02354e-08
1.02327e-08
1.02296e-08
1.02265e-08
1.02233e-08
1.02201e-08
1.02168e-08
1.02131e-08
1.02091e-08
1.02052e-08
1.02015e-08
1.01978e-08
1.01939e-08
1.01898e-08
1.01857e-08
1.01815e-08
1.01775e-08
1.01736e-08
1.01694e-08
1.0165e-08
1.01611e-08
1.01571e-08
1.01529e-08
1.01488e-08
1.0145e-08
1.01412e-08
1.01371e-08
1.01331e-08
1.0129e-08
1.01251e-08
1.01213e-08
1.01174e-08
1.01138e-08
1.01098e-08
1.01058e-08
1.01018e-08
1.00979e-08
1.00944e-08
1.00907e-08
1.00877e-08
1.00842e-08
1.00814e-08
1.00785e-08
1.0074e-08
1.0071e-08
1.00713e-08
1.00671e-08
1.00703e-08
1.00697e-08
1.00668e-08
1.0069e-08
1.00743e-08
1.00714e-08
1.01234e-08
1.01306e-08
1.00862e-08
1.00681e-08
1.00727e-08
1.00687e-08
1.00507e-08
1.00457e-08
1.00395e-08
1.00371e-08
1.00345e-08
1.00328e-08
1.0031e-08
1.00306e-08
1.00384e-08
1.00386e-08
1.00448e-08
1.00493e-08
1.0072e-08
1.00739e-08
1.00553e-08
1.00456e-08
1.00451e-08
1.00432e-08
1.00339e-08
1.00302e-08
1.00315e-08
1.00267e-08
1.00204e-08
1.00189e-08
1.00143e-08
1.00168e-08
1.00193e-08
1.00711e-08
1.00715e-08
1.01158e-08
1.01291e-08
1.01978e-08
1.02138e-08
1.02731e-08
1.03328e-08
1.03039e-08
1.02739e-08
1.03489e-08
1.03217e-08
1.0233e-08
1.01778e-08
1.01425e-08
1.01182e-08
1.01023e-08
1.00917e-08
1.00849e-08
1.0081e-08
1.00797e-08
1.00801e-08
1.00807e-08
1.00812e-08
1.00819e-08
1.00826e-08
1.00831e-08
1.00836e-08
1.00838e-08
1.0084e-08
1.00842e-08
1.00845e-08
1.00848e-08
1.00849e-08
1.0085e-08
1.00848e-08
1.00848e-08
1.00845e-08
1.00843e-08
1.0084e-08
1.00835e-08
1.00827e-08
1.00818e-08
1.0081e-08
1.00803e-08
1.00797e-08
1.00791e-08
1.00788e-08
1.00782e-08
1.00777e-08
1.00774e-08
1.0077e-08
1.00767e-08
1.00765e-08
1.00761e-08
1.00759e-08
1.00753e-08
1.00746e-08
1.00739e-08
1.00729e-08
1.0072e-08
1.00711e-08
1.00704e-08
1.007e-08
1.00697e-08
1.00695e-08
1.00689e-08
1.00678e-08
1.00666e-08
1.0066e-08
1.00662e-08
1.00665e-08
1.00663e-08
1.00651e-08
1.00639e-08
1.00636e-08
1.00637e-08
1.00637e-08
1.00623e-08
1.0061e-08
1.00607e-08
1.00608e-08
1.00598e-08
1.00584e-08
1.00578e-08
1.00645e-08
1.007e-08
1.00975e-08
1.01253e-08
1.01788e-08
1.00781e-08
1.00013e-08
1.00025e-08
1.00049e-08
1.00124e-08
1.00331e-08
1.00829e-08
1.01854e-08
1.03712e-08
1.06705e-08
1.10995e-08
1.16417e-08
1.22831e-08
1.31658e-08
1.45338e-08
1.66809e-08
1.99497e-08
2.47392e-08
3.13015e-08
3.92876e-08
4.8003e-08
5.56229e-08
6.08164e-08
6.33852e-08
6.34423e-08
6.08684e-08
5.60491e-08
5.01746e-08
4.42886e-08
3.88615e-08
3.40635e-08
3.01936e-08
2.7185e-08
2.49297e-08
2.33798e-08
2.23612e-08
2.16338e-08
2.10527e-08
2.05533e-08
2.01175e-08
1.97159e-08
1.93037e-08
1.88797e-08
1.85063e-08
1.82622e-08
1.81285e-08
1.80021e-08
1.78195e-08
1.7566e-08
1.72795e-08
1.70367e-08
1.68636e-08
1.67005e-08
1.6494e-08
1.62388e-08
1.59525e-08
1.56649e-08
1.54037e-08
1.51914e-08
1.50574e-08
1.504e-08
1.51535e-08
1.53402e-08
1.55302e-08
1.56876e-08
1.58293e-08
1.60013e-08
1.61584e-08
1.61332e-08
1.59039e-08
1.56137e-08
1.54641e-08
1.55945e-08
1.59917e-08
1.6541e-08
1.71975e-08
1.80047e-08
1.91808e-08
2.12716e-08
2.48479e-08
2.83467e-08
3.2873e-08
3.7835e-08
4.27127e-08
4.8149e-08
5.15707e-08
5.16299e-08
4.70199e-08
3.90246e-08
3.04439e-08
2.3358e-08
1.82047e-08
1.48462e-08
1.28725e-08
1.17719e-08
1.12525e-08
1.11322e-08
1.13175e-08
1.16837e-08
1.23657e-08
1.37083e-08
1.48592e-08
1.55708e-08
1.55382e-08
1.49457e-08
1.39415e-08
1.28404e-08
1.19758e-08
1.14462e-08
1.10341e-08
1.07682e-08
1.06198e-08
1.05255e-08
1.0469e-08
1.04471e-08
1.0452e-08
1.04859e-08
1.067e-08
1.09972e-08
1.11267e-08
1.11581e-08
1.10952e-08
1.0959e-08
1.07696e-08
1.06446e-08
1.0563e-08
1.05053e-08
1.04603e-08
1.04381e-08
1.04267e-08
1.04219e-08
1.04223e-08
1.04242e-08
1.0426e-08
1.04324e-08
1.04414e-08
1.04513e-08
1.04597e-08
1.04677e-08
1.04753e-08
1.04835e-08
1.04919e-08
1.04993e-08
1.05063e-08
1.05139e-08
1.05204e-08
1.05244e-08
1.05288e-08
1.05366e-08
1.05472e-08
1.05566e-08
1.05609e-08
1.05623e-08
1.05654e-08
1.05717e-08
1.05779e-08
1.05811e-08
1.05809e-08
1.05815e-08
1.05845e-08
1.05856e-08
1.05828e-08
1.0579e-08
1.05784e-08
1.05776e-08
1.05709e-08
1.05616e-08
1.05566e-08
1.05537e-08
1.0544e-08
1.0529e-08
1.05163e-08
1.05076e-08
1.04986e-08
1.04845e-08
1.04647e-08
1.04462e-08
1.04318e-08
1.0417e-08
1.03994e-08
1.03803e-08
1.03623e-08
1.03457e-08
1.03284e-08
1.03075e-08
1.02871e-08
1.02711e-08
1.02576e-08
1.0244e-08
1.023e-08
1.0216e-08
1.02029e-08
1.01909e-08
1.01806e-08
1.01711e-08
1.01624e-08
1.01543e-08
1.01461e-08
1.0138e-08
1.01309e-08
1.01254e-08
1.01207e-08
1.01159e-08
1.01105e-08
1.01053e-08
1.01009e-08
1.00972e-08
1.0094e-08
1.00908e-08
1.00875e-08
1.00844e-08
1.00817e-08
1.00796e-08
1.00774e-08
1.00748e-08
1.00724e-08
1.00704e-08
1.0069e-08
1.00678e-08
1.00665e-08
1.0065e-08
1.00634e-08
1.0062e-08
1.0061e-08
1.00603e-08
1.00597e-08
1.00589e-08
1.00581e-08
1.00574e-08
1.00568e-08
1.00564e-08
1.00561e-08
1.00559e-08
1.00555e-08
1.00551e-08
1.00549e-08
1.00548e-08
1.00549e-08
1.00551e-08
1.00551e-08
1.00551e-08
1.00551e-08
1.00551e-08
1.00551e-08
1.00552e-08
1.00554e-08
1.00556e-08
1.00559e-08
1.00562e-08
1.00562e-08
1.00563e-08
1.00565e-08
1.00567e-08
1.00569e-08
1.00571e-08
1.00573e-08
1.00574e-08
1.00575e-08
1.00576e-08
1.00577e-08
1.00578e-08
1.00577e-08
1.00576e-08
1.00575e-08
1.00575e-08
1.00576e-08
1.00577e-08
1.00575e-08
1.00572e-08
1.00568e-08
1.00566e-08
1.00566e-08
1.00565e-08
1.00564e-08
1.00562e-08
1.00559e-08
1.00557e-08
1.00554e-08
1.00551e-08
1.00547e-08
1.00545e-08
1.00544e-08
1.00542e-08
1.00539e-08
1.00535e-08
1.0053e-08
1.00527e-08
1.00524e-08
1.00522e-08
1.00519e-08
1.00516e-08
1.00512e-08
1.00507e-08
1.00504e-08
1.00502e-08
1.00499e-08
1.00496e-08
1.00492e-08
1.00488e-08
1.00485e-08
1.00481e-08
1.00478e-08
1.00475e-08
1.00472e-08
1.00468e-08
1.00464e-08
1.00461e-08
1.00457e-08
1.00453e-08
1.0045e-08
1.00447e-08
1.00443e-08
1.00439e-08
1.00435e-08
1.00431e-08
1.00427e-08
1.00423e-08
1.0042e-08
1.00416e-08
1.00412e-08
1.00409e-08
1.00406e-08
1.00402e-08
1.00398e-08
1.00395e-08
1.00392e-08
1.00389e-08
1.00385e-08
1.00382e-08
1.00379e-08
1.00376e-08
1.00373e-08
1.0037e-08
1.00367e-08
1.00364e-08
1.00361e-08
1.00359e-08
1.00357e-08
1.00354e-08
1.00352e-08
1.0035e-08
1.00348e-08
1.00346e-08
1.00345e-08
1.00343e-08
1.00342e-08
1.0034e-08
1.00338e-08
1.00337e-08
1.00336e-08
1.00335e-08
1.00333e-08
1.00332e-08
1.00331e-08
1.0033e-08
1.00329e-08
1.00328e-08
1.00327e-08
1.00326e-08
1.00324e-08
1.00324e-08
1.00323e-08
1.00323e-08
1.00323e-08
1.00323e-08
1.00322e-08
1.00321e-08
1.0032e-08
1.00319e-08
1.00318e-08
1.00317e-08
1.00316e-08
1.00315e-08
1.00313e-08
1.00312e-08
1.00311e-08
1.00309e-08
1.00308e-08
1.00307e-08
1.00305e-08
1.00304e-08
1.00303e-08
1.00301e-08
1.003e-08
1.00298e-08
1.00297e-08
1.00296e-08
1.00294e-08
1.00292e-08
1.0029e-08
1.00289e-08
1.00287e-08
1.00286e-08
1.00284e-08
1.00283e-08
1.00282e-08
1.0028e-08
1.00278e-08
1.00276e-08
1.00275e-08
1.00273e-08
1.00272e-08
1.0027e-08
1.00269e-08
1.00268e-08
1.00266e-08
1.00264e-08
1.00262e-08
1.00261e-08
1.0026e-08
1.00258e-08
1.00257e-08
1.00256e-08
1.00254e-08
1.00254e-08
1.00252e-08
1.00254e-08
1.00253e-08
1.00252e-08
1.00254e-08
1.00257e-08
1.00256e-08
1.00255e-08
1.00253e-08
1.00243e-08
1.00245e-08
1.00255e-08
1.00267e-08
1.00273e-08
1.00269e-08
1.00274e-08
1.00273e-08
1.00262e-08
1.00252e-08
1.00246e-08
1.00241e-08
1.00243e-08
1.00238e-08
1.00239e-08
1.00238e-08
1.00236e-08
1.00235e-08
1.0023e-08
1.00231e-08
1.00239e-08
1.00244e-08
1.00246e-08
1.00242e-08
1.00244e-08
1.00242e-08
1.00238e-08
1.00233e-08
1.00228e-08
1.00225e-08
1.00227e-08
1.00222e-08
1.00222e-08
1.00225e-08
1.00228e-08
1.00231e-08
1.00238e-08
1.00264e-08
1.00279e-08
1.00312e-08
1.00321e-08
1.0033e-08
1.00395e-08
1.00469e-08
1.00501e-08
1.00594e-08
1.00547e-08
1.00424e-08
1.00338e-08
1.00288e-08
1.00256e-08
1.00235e-08
1.0022e-08
1.0021e-08
1.002e-08
1.00193e-08
1.00187e-08
1.00182e-08
1.00177e-08
1.00174e-08
1.00172e-08
1.00172e-08
1.00173e-08
1.00174e-08
1.00175e-08
1.00176e-08
1.00177e-08
1.00178e-08
1.00179e-08
1.00181e-08
1.00182e-08
1.00183e-08
1.00184e-08
1.00185e-08
1.00186e-08
1.00186e-08
1.00186e-08
1.00186e-08
1.00185e-08
1.00185e-08
1.00185e-08
1.00186e-08
1.00188e-08
1.00189e-08
1.0019e-08
1.00192e-08
1.00192e-08
1.00192e-08
1.00191e-08
1.00191e-08
1.00191e-08
1.00191e-08
1.0019e-08
1.0019e-08
1.00189e-08
1.00189e-08
1.00189e-08
1.00189e-08
1.0019e-08
1.0019e-08
1.00189e-08
1.00187e-08
1.00185e-08
1.00183e-08
1.00182e-08
1.00182e-08
1.00182e-08
1.00184e-08
1.00184e-08
1.00182e-08
1.0018e-08
1.0018e-08
1.00182e-08
1.00183e-08
1.0018e-08
1.00177e-08
1.00178e-08
1.00178e-08
1.00178e-08
1.00176e-08
1.00176e-08
1.00179e-08
1.00185e-08
1.00202e-08
1.00213e-08
1.00216e-08
1.00144e-08
1.00014e-08
1.00023e-08
1.00038e-08
1.00077e-08
1.00183e-08
1.00431e-08
1.00938e-08
1.01847e-08
1.03287e-08
1.05295e-08
1.07731e-08
1.1055e-08
1.14458e-08
1.20516e-08
1.30191e-08
1.45517e-08
1.68417e-08
1.99113e-08
2.34395e-08
2.69888e-08
3.01417e-08
3.25417e-08
3.34595e-08
3.25829e-08
3.03766e-08
2.74634e-08
2.44017e-08
2.1645e-08
1.94466e-08
1.77804e-08
1.65139e-08
1.55545e-08
1.48428e-08
1.43389e-08
1.40016e-08
1.37779e-08
1.36072e-08
1.34457e-08
1.3277e-08
1.31008e-08
1.29228e-08
1.27532e-08
1.26076e-08
1.24952e-08
1.2413e-08
1.23443e-08
1.22702e-08
1.21849e-08
1.20974e-08
1.20225e-08
1.19652e-08
1.19153e-08
1.18573e-08
1.17827e-08
1.16926e-08
1.1598e-08
1.15101e-08
1.14318e-08
1.1374e-08
1.13477e-08
1.13537e-08
1.13823e-08
1.14243e-08
1.14797e-08
1.15559e-08
1.16527e-08
1.17469e-08
1.17889e-08
1.17816e-08
1.17693e-08
1.17917e-08
1.18705e-08
1.20228e-08
1.22246e-08
1.24559e-08
1.26955e-08
1.29702e-08
1.33711e-08
1.41127e-08
1.52732e-08
1.73471e-08
2.08654e-08
2.49337e-08
2.96196e-08
3.31166e-08
3.47661e-08
3.47748e-08
3.2713e-08
2.89596e-08
2.43489e-08
2.0132e-08
1.68644e-08
1.45502e-08
1.29967e-08
1.19717e-08
1.13039e-08
1.0879e-08
1.06396e-08
1.05545e-08
1.06424e-08
1.07959e-08
1.09709e-08
1.11463e-08
1.11914e-08
1.11233e-08
1.09737e-08
1.07882e-08
1.06407e-08
1.05145e-08
1.04362e-08
1.03844e-08
1.0327e-08
1.0257e-08
1.01953e-08
1.01525e-08
1.01272e-08
1.01167e-08
1.012e-08
1.01241e-08
1.01383e-08
1.01553e-08
1.01581e-08
1.01576e-08
1.0155e-08
1.01456e-08
1.01304e-08
1.01183e-08
1.01078e-08
1.00987e-08
1.00912e-08
1.00865e-08
1.00836e-08
1.0082e-08
1.00813e-08
1.00814e-08
1.00819e-08
1.00826e-08
1.00836e-08
1.00847e-08
1.00856e-08
1.00865e-08
1.00873e-08
1.00881e-08
1.0089e-08
1.00899e-08
1.00904e-08
1.0091e-08
1.00919e-08
1.00932e-08
1.00942e-08
1.00946e-08
1.00948e-08
1.00952e-08
1.0096e-08
1.00967e-08
1.00969e-08
1.00968e-08
1.00968e-08
1.00971e-08
1.00972e-08
1.00967e-08
1.00961e-08
1.00958e-08
1.00955e-08
1.00944e-08
1.00931e-08
1.00922e-08
1.00915e-08
1.009e-08
1.00879e-08
1.00859e-08
1.00845e-08
1.0083e-08
1.00811e-08
1.00785e-08
1.0076e-08
1.0074e-08
1.00719e-08
1.00697e-08
1.00674e-08
1.00653e-08
1.00632e-08
1.00612e-08
1.00589e-08
1.00569e-08
1.00551e-08
1.00537e-08
1.00524e-08
1.00511e-08
1.00498e-08
1.00485e-08
1.00474e-08
1.00464e-08
1.00456e-08
1.00448e-08
1.00441e-08
1.00435e-08
1.00428e-08
1.00422e-08
1.00418e-08
1.00414e-08
1.0041e-08
1.00406e-08
1.00402e-08
1.00399e-08
1.00395e-08
1.00392e-08
1.0039e-08
1.00387e-08
1.00384e-08
1.00382e-08
1.00379e-08
1.00377e-08
1.00375e-08
1.00372e-08
1.0037e-08
1.00368e-08
1.00367e-08
1.00365e-08
1.00363e-08
1.00362e-08
1.0036e-08
1.00358e-08
1.00357e-08
1.00356e-08
1.00354e-08
1.00353e-08
1.00352e-08
1.0035e-08
1.00349e-08
1.00348e-08
1.00347e-08
1.00347e-08
1.00346e-08
1.00344e-08
1.00344e-08
1.00343e-08
1.00342e-08
1.00341e-08
1.00341e-08
1.0034e-08
1.00339e-08
1.00338e-08
1.00337e-08
1.00336e-08
1.00335e-08
1.00334e-08
1.00334e-08
1.00333e-08
1.00332e-08
1.00331e-08
1.00331e-08
1.0033e-08
1.0033e-08
1.00329e-08
1.00329e-08
1.00328e-08
1.00328e-08
1.00327e-08
1.00327e-08
1.00326e-08
1.00325e-08
1.00325e-08
1.00324e-08
1.00324e-08
1.00323e-08
1.00323e-08
1.00322e-08
1.00322e-08
1.00321e-08
1.0032e-08
1.0032e-08
1.00319e-08
1.00318e-08
1.00318e-08
1.00317e-08
1.00316e-08
1.00316e-08
1.00315e-08
1.00314e-08
1.00313e-08
1.00313e-08
1.00312e-08
1.00311e-08
1.00311e-08
1.0031e-08
1.00309e-08
1.00308e-08
1.00308e-08
1.00307e-08
1.00306e-08
1.00306e-08
1.00305e-08
1.00304e-08
1.00303e-08
1.00302e-08
1.00302e-08
1.00301e-08
1.003e-08
1.00299e-08
1.00298e-08
1.00298e-08
1.00297e-08
1.00296e-08
1.00295e-08
1.00294e-08
1.00293e-08
1.00292e-08
1.00292e-08
1.00291e-08
1.0029e-08
1.00288e-08
1.00287e-08
1.00286e-08
1.00286e-08
1.00285e-08
1.00284e-08
1.00283e-08
1.00283e-08
1.00282e-08
1.00281e-08
1.0028e-08
1.00279e-08
1.00278e-08
1.00278e-08
1.00277e-08
1.00276e-08
1.00276e-08
1.00275e-08
1.00274e-08
1.00273e-08
1.00272e-08
1.00272e-08
1.00271e-08
1.0027e-08
1.0027e-08
1.00269e-08
1.00268e-08
1.00268e-08
1.00267e-08
1.00266e-08
1.00266e-08
1.00265e-08
1.00264e-08
1.00264e-08
1.00263e-08
1.00262e-08
1.00261e-08
1.00261e-08
1.0026e-08
1.00259e-08
1.00259e-08
1.00258e-08
1.00257e-08
1.00256e-08
1.00256e-08
1.00255e-08
1.00254e-08
1.00253e-08
1.00253e-08
1.00252e-08
1.00252e-08
1.00251e-08
1.0025e-08
1.00249e-08
1.00249e-08
1.00248e-08
1.00247e-08
1.00247e-08
1.00246e-08
1.00245e-08
1.00245e-08
1.00244e-08
1.00243e-08
1.00243e-08
1.00242e-08
1.00242e-08
1.00241e-08
1.0024e-08
1.0024e-08
1.00239e-08
1.00238e-08
1.00238e-08
1.00237e-08
1.00237e-08
1.00236e-08
1.00235e-08
1.00235e-08
1.00234e-08
1.00233e-08
1.00233e-08
1.00232e-08
1.00231e-08
1.00231e-08
1.0023e-08
1.0023e-08
1.00229e-08
1.00228e-08
1.00228e-08
1.00227e-08
1.00226e-08
1.00226e-08
1.00225e-08
1.00224e-08
1.00224e-08
1.00223e-08
1.00222e-08
1.00221e-08
1.00221e-08
1.0022e-08
1.0022e-08
1.00219e-08
1.00221e-08
1.00221e-08
1.00223e-08
1.00224e-08
1.00225e-08
1.00224e-08
1.00224e-08
1.00222e-08
1.00215e-08
1.00214e-08
1.00219e-08
1.00221e-08
1.00221e-08
1.00221e-08
1.00221e-08
1.00221e-08
1.00216e-08
1.00211e-08
1.00215e-08
1.00216e-08
1.00216e-08
1.00215e-08
1.00214e-08
1.00213e-08
1.00212e-08
1.00211e-08
1.00209e-08
1.00209e-08
1.0021e-08
1.00209e-08
1.00209e-08
1.00209e-08
1.00209e-08
1.00208e-08
1.00207e-08
1.00205e-08
1.00203e-08
1.00203e-08
1.00205e-08
1.00204e-08
1.00211e-08
1.00202e-08
1.00195e-08
1.00204e-08
1.00208e-08
1.00235e-08
1.00247e-08
1.00274e-08
1.00269e-08
1.00244e-08
1.00241e-08
1.0024e-08
1.00236e-08
1.00236e-08
1.00233e-08
1.00227e-08
1.00226e-08
1.00219e-08
1.00209e-08
1.00203e-08
1.00197e-08
1.0019e-08
1.00186e-08
1.00181e-08
1.00177e-08
1.00174e-08
1.00171e-08
1.00168e-08
1.00165e-08
1.00163e-08
1.00161e-08
1.0016e-08
1.00159e-08
1.0016e-08
1.0016e-08
1.0016e-08
1.0016e-08
1.0016e-08
1.0016e-08
1.00161e-08
1.00161e-08
1.00162e-08
1.00164e-08
1.00166e-08
1.00167e-08
1.00167e-08
1.00167e-08
1.00167e-08
1.00166e-08
1.00165e-08
1.00165e-08
1.00165e-08
1.00165e-08
1.00166e-08
1.00167e-08
1.00168e-08
1.00169e-08
1.00169e-08
1.00169e-08
1.00169e-08
1.0017e-08
1.00169e-08
1.00169e-08
1.00169e-08
1.00169e-08
1.00168e-08
1.00167e-08
1.00168e-08
1.00169e-08
1.00169e-08
1.00169e-08
1.00168e-08
1.00166e-08
1.00164e-08
1.00162e-08
1.00162e-08
1.00162e-08
1.00163e-08
1.00164e-08
1.00163e-08
1.00162e-08
1.00161e-08
1.00163e-08
1.00164e-08
1.00163e-08
1.0016e-08
1.00159e-08
1.00159e-08
1.00159e-08
1.00158e-08
1.00158e-08
1.00158e-08
1.00162e-08
1.00166e-08
1.00176e-08
1.00183e-08
1.00185e-08
1.00128e-08
1.00013e-08
1.00023e-08
1.00032e-08
1.00057e-08
1.00115e-08
1.00244e-08
1.00496e-08
1.00925e-08
1.01565e-08
1.02403e-08
1.0334e-08
1.04316e-08
1.05519e-08
1.07264e-08
1.09924e-08
1.13987e-08
1.20057e-08
1.28008e-08
1.36815e-08
1.45208e-08
1.51993e-08
1.56202e-08
1.57299e-08
1.55291e-08
1.5071e-08
1.44557e-08
1.38101e-08
1.32207e-08
1.27251e-08
1.23253e-08
1.20082e-08
1.17593e-08
1.15684e-08
1.14281e-08
1.13304e-08
1.12632e-08
1.12107e-08
1.11597e-08
1.11043e-08
1.10451e-08
1.09856e-08
1.09293e-08
1.08796e-08
1.08378e-08
1.08028e-08
1.07721e-08
1.07426e-08
1.07133e-08
1.06861e-08
1.0663e-08
1.06439e-08
1.06268e-08
1.0609e-08
1.05877e-08
1.05617e-08
1.05333e-08
1.05037e-08
1.0475e-08
1.04507e-08
1.04337e-08
1.04252e-08
1.04243e-08
1.04308e-08
1.04459e-08
1.04716e-08
1.05077e-08
1.05484e-08
1.05815e-08
1.06028e-08
1.06172e-08
1.06357e-08
1.06693e-08
1.07264e-08
1.08079e-08
1.09085e-08
1.10151e-08
1.11168e-08
1.12299e-08
1.139e-08
1.16849e-08
1.22516e-08
1.33452e-08
1.49254e-08
1.71606e-08
1.96588e-08
2.16511e-08
2.29084e-08
2.32794e-08
2.24445e-08
2.08125e-08
1.88224e-08
1.6741e-08
1.48761e-08
1.34971e-08
1.25483e-08
1.18909e-08
1.14104e-08
1.10421e-08
1.07591e-08
1.055e-08
1.04104e-08
1.03293e-08
1.02972e-08
1.02792e-08
1.027e-08
1.02637e-08
1.02489e-08
1.02351e-08
1.02236e-08
1.0221e-08
1.02249e-08
1.02341e-08
1.0254e-08
1.02659e-08
1.0248e-08
1.02011e-08
1.01516e-08
1.01153e-08
1.00923e-08
1.00763e-08
1.0067e-08
1.00622e-08
1.00613e-08
1.00628e-08
1.00639e-08
1.00647e-08
1.00654e-08
1.00653e-08
1.00654e-08
1.00656e-08
1.00641e-08
1.00609e-08
1.00573e-08
1.00541e-08
1.00517e-08
1.00502e-08
1.00492e-08
1.00485e-08
1.0048e-08
1.00477e-08
1.00475e-08
1.00474e-08
1.00473e-08
1.00473e-08
1.00473e-08
1.00473e-08
1.00472e-08
1.00472e-08
1.00473e-08
1.00474e-08
1.00474e-08
1.00474e-08
1.00474e-08
1.00474e-08
1.00475e-08
1.00475e-08
1.00474e-08
1.00473e-08
1.00473e-08
1.00473e-08
1.00472e-08
1.00471e-08
1.0047e-08
1.00469e-08
1.00466e-08
1.00464e-08
1.00462e-08
1.0046e-08
1.00457e-08
1.00453e-08
1.00449e-08
1.00446e-08
1.00443e-08
1.0044e-08
1.00435e-08
1.00432e-08
1.00428e-08
1.00425e-08
1.00422e-08
1.00419e-08
1.00416e-08
1.00413e-08
1.0041e-08
1.00407e-08
1.00405e-08
1.00402e-08
1.004e-08
1.00398e-08
1.00396e-08
1.00395e-08
1.00393e-08
1.00391e-08
1.0039e-08
1.00387e-08
1.00386e-08
1.00384e-08
1.00383e-08
1.00382e-08
1.00381e-08
1.0038e-08
1.00378e-08
1.00377e-08
1.00376e-08
1.00375e-08
1.00374e-08
1.00372e-08
1.00371e-08
1.0037e-08
1.00368e-08
1.00367e-08
1.00365e-08
1.00364e-08
1.00363e-08
1.00362e-08
1.00361e-08
1.00359e-08
1.00358e-08
1.00356e-08
1.00355e-08
1.00354e-08
1.00353e-08
1.00352e-08
1.00351e-08
1.0035e-08
1.00349e-08
1.00347e-08
1.00347e-08
1.00346e-08
1.00345e-08
1.00344e-08
1.00343e-08
1.00342e-08
1.00341e-08
1.0034e-08
1.0034e-08
1.00339e-08
1.00338e-08
1.00337e-08
1.00336e-08
1.00336e-08
1.00335e-08
1.00334e-08
1.00333e-08
1.00332e-08
1.00331e-08
1.00331e-08
1.0033e-08
1.00329e-08
1.00328e-08
1.00327e-08
1.00326e-08