/*--------------------------------*- C++ -*----------------------------------*\
| =========                 |                                                 |
| \\      /  F ield         | OpenFOAM: The Open Source CFD Toolbox           |
|  \\    /   O peration     | Version:  v2006                                 |
|   \\  /    A nd           | Website:  www.openfoam.com                      |
|    \\/     M anipulation  |                                                 |
\*---------------------------------------------------------------------------*/
FoamFile
{
    version     2.0;
    format      ascii;
    class       volScalarField;
    location    "5.1";
    object      omega;
}
// * * * * * * * * * * * * * * * * * * * * * * * * * * * * * * * * * * * * * //

dimensions      [0 0 -1 0 0 0 0];


internalField   nonuniform List<scalar> 
33000
(
0.801347
0.801417
0.801476
0.801532
0.801588
0.801649
0.801722
0.80181
0.801912
0.802028
0.802149
0.802266
0.802393
0.802557
0.80277
0.803037
0.803361
0.803738
0.80416
0.804638
0.805257
0.806244
0.807768
0.809852
0.812289
0.814723
0.81685
0.818547
0.819815
0.820705
0.821241
0.821551
0.821789
0.822024
0.822246
0.822394
0.822468
0.822529
0.822619
0.82271
0.822728
0.82266
0.822586
0.822609
0.82273
0.82285
0.822873
0.822778
0.822639
0.822554
0.822547
0.822557
0.822506
0.822391
0.822264
0.822151
0.822044
0.82193
0.821812
0.821723
0.821708
0.821719
0.821658
0.82151
0.821296
0.82102
0.820671
0.820241
0.819724
0.819128
0.818486
0.817808
0.817098
0.816354
0.815586
0.814803
0.814036
0.813322
0.812717
0.812374
0.812422
0.812864
0.813569
0.814352
0.814963
0.81529
0.815399
0.8154
0.815325
0.81525
0.815169
0.815008
0.814753
0.814358
0.813832
0.813193
0.812482
0.811742
0.811044
0.810468
0.810165
0.810275
0.810676
0.811076
0.811118
0.810978
0.811008
0.811153
0.811204
0.811121
0.811044
0.810912
0.810792
0.810683
0.810542
0.810313
0.810042
0.809791
0.809657
0.809676
0.809657
0.809758
0.809739
0.809697
0.809759
0.809821
0.809861
0.809895
0.809907
0.809915
0.809932
0.809945
0.809958
0.809967
0.809973
0.809972
0.809967
0.809962
0.809958
0.809953
0.809947
0.80994
0.809929
0.809915
0.809901
0.809883
0.809862
0.80984
0.809818
0.809796
0.809776
0.809753
0.80973
0.809707
0.809685
0.809663
0.80964
0.809615
0.809589
0.809563
0.809537
0.809511
0.809485
0.809459
0.809433
0.809405
0.809378
0.80935
0.80932
0.80929
0.809257
0.809225
0.809193
0.809163
0.80913
0.8091
0.809071
0.809046
0.809024
0.809003
0.808983
0.808966
0.808952
0.808938
0.808926
0.808928
0.808942
0.808968
0.809004
0.809048
0.809098
0.809153
0.809204
0.809245
0.809277
0.8093
0.809315
0.809322
0.809321
0.809315
0.809305
0.809292
0.809273
0.809252
0.80923
0.809209
0.809189
0.809171
0.809153
0.809133
0.809113
0.809094
0.809076
0.809055
0.809032
0.809009
0.808986
0.808964
0.808941
0.808915
0.808886
0.808853
0.80882
0.808789
0.808757
0.808725
0.80869
0.808653
0.808616
0.80858
0.808545
0.808512
0.808476
0.80844
0.808402
0.808366
0.80833
0.808294
0.808258
0.808221
0.808184
0.808148
0.808112
0.808073
0.808033
0.807994
0.807957
0.80792
0.80788
0.807838
0.807797
0.807757
0.807717
0.807675
0.807634
0.807591
0.807548
0.807504
0.807461
0.807417
0.807374
0.807328
0.807282
0.807236
0.80719
0.807146
0.807101
0.807055
0.807006
0.806957
0.80691
0.806863
0.806817
0.80677
0.806721
0.806671
0.806622
0.806572
0.806522
0.806471
0.806421
0.806372
0.806322
0.80627
0.806217
0.806165
0.806112
0.80606
0.806008
0.805955
0.805901
0.805846
0.805791
0.805735
0.80568
0.805625
0.805568
0.80551
0.805452
0.805392
0.805332
0.805272
0.805214
0.805161
0.805112
0.805069
0.805031
0.804998
0.804971
0.804949
0.804932
0.804922
0.804916
0.804915
0.80492
0.804931
0.804947
0.804965
0.804982
0.804998
0.80501
0.80502
0.805027
0.805031
0.805032
0.805031
0.805027
0.805021
0.805012
0.805001
0.804988
0.804973
0.804956
0.804936
0.804916
0.804893
0.804869
0.804844
0.804818
0.80479
0.804761
0.804731
0.8047
0.804668
0.804635
0.804603
0.804569
0.804536
0.804502
0.804469
0.804435
0.8044
0.804366
0.804331
0.804296
0.804261
0.804226
0.804191
0.804156
0.804121
0.804085
0.80405
0.804014
0.803979
0.803944
0.803908
0.803873
0.803838
0.803802
0.803767
0.803732
0.803697
0.803662
0.803627
0.803593
0.803558
0.803524
0.80349
0.803456
0.803422
0.803388
0.803355
0.803322
0.803289
0.803256
0.803223
0.803191
0.803158
0.803126
0.803094
0.803063
0.803031
0.803
0.802969
0.802939
0.802908
0.802878
0.802848
0.802818
0.802789
0.802759
0.80273
0.802701
0.802673
0.802644
0.802616
0.802588
0.802561
0.802534
0.802506
0.80248
0.802453
0.802427
0.802401
0.802375
0.80235
0.802324
0.802299
0.802273
0.802248
0.802224
0.8022
0.802176
0.802152
0.802123
0.802098
0.80208
0.80205
0.802041
0.802025
0.802044
0.802033
0.80203
0.802017
0.802007
0.801992
0.801979
0.801964
0.80195
0.801935
0.80192
0.801904
0.801886
0.80187
0.801857
0.801839
0.801829
0.801818
0.801821
0.801809
0.801801
0.80179
0.801779
0.801769
0.801758
0.801746
0.801735
0.801719
0.801705
0.801697
0.801678
0.801673
0.801655
0.801603
0.80159
0.801599
0.801548
0.801671
0.801704
0.802122
0.802222
0.802379
0.802469
0.802541
0.802595
0.802636
0.802666
0.802688
0.802705
0.802717
0.802727
0.802734
0.802739
0.802743
0.802745
0.802746
0.802746
0.802746
0.802745
0.802743
0.802741
0.802738
0.802735
0.802731
0.802727
0.802723
0.802719
0.802714
0.802709
0.802703
0.802697
0.802691
0.802684
0.802677
0.80267
0.802663
0.802655
0.802647
0.802639
0.802632
0.802624
0.802616
0.802608
0.802601
0.802593
0.802585
0.802577
0.802569
0.802561
0.802553
0.802545
0.802536
0.802528
0.80252
0.802512
0.802504
0.802496
0.802489
0.802481
0.802474
0.802467
0.80246
0.802454
0.802447
0.802441
0.802435
0.80243
0.802425
0.802419
0.802414
0.802409
0.802404
0.802399
0.802394
0.80239
0.802384
0.802393
0.80234
0.802342
0.802014
0.00165391
0.00209013
0.00308856
0.00649595
0.0158737
0.0370528
0.0772821
0.140777
0.228156
0.343967
0.495001
0.618215
0.662686
0.675164
0.689198
0.712479
0.748223
0.803665
0.885273
0.985977
1.06984
1.10285
1.10547
1.09303
1.0698
1.02761
0.959466
0.875477
0.794585
0.722101
0.658295
0.605724
0.565768
0.537737
0.517865
0.502379
0.489168
0.477254
0.466449
0.455986
0.44533
0.434241
0.423983
0.41693
0.412332
0.407257
0.400904
0.393367
0.385688
0.379708
0.375214
0.370336
0.364188
0.356937
0.349181
0.341582
0.33465
0.328967
0.325291
0.324597
0.328194
0.335155
0.343079
0.350578
0.358859
0.369684
0.38295
0.396742
0.410957
0.429324
0.457164
0.498161
0.554308
0.619311
0.686148
0.756902
0.826238
0.893605
0.94467
1.00146
1.11682
1.21579
1.2728
1.31599
1.33879
1.30145
1.19299
0.981817
0.725692
0.511824
0.343536
0.233062
0.178228
0.158515
0.166509
0.195641
0.243573
0.314792
0.429744
0.563513
0.642243
0.722761
0.806762
0.814134
0.740063
0.567312
0.427443
0.290734
0.201974
0.161381
0.13522
0.118322
0.107756
0.10729
0.117627
0.140274
0.182789
0.213816
0.212333
0.20694
0.203196
0.178784
0.155069
0.135601
0.125948
0.11574
0.10917
0.103118
0.0999826
0.0985203
0.0981957
0.0984154
0.0988552
0.0993635
0.100063
0.100983
0.101976
0.102995
0.103991
0.104912
0.105706
0.106346
0.106991
0.107782
0.108519
0.108943
0.109291
0.109957
0.110959
0.111913
0.112328
0.112361
0.112572
0.113168
0.11386
0.114301
0.114373
0.11447
0.114834
0.115057
0.114883
0.114633
0.114721
0.114797
0.114273
0.113478
0.113127
0.113035
0.112202
0.11076
0.10953
0.108754
0.107957
0.106542
0.104381
0.102328
0.100737
0.0991028
0.0970883
0.0947615
0.0924767
0.090403
0.0882259
0.0854495
0.0826014
0.0803891
0.0784993
0.0764947
0.0743168
0.0720666
0.069925
0.0679511
0.066244
0.064554
0.0628971
0.0612834
0.0596026
0.0578969
0.0563793
0.055179
0.0541511
0.0530049
0.0516732
0.0502659
0.0490112
0.0479943
0.0471033
0.0461862
0.045182
0.0441561
0.043302
0.042615
0.0418737
0.0409374
0.0400094
0.0392844
0.0387577
0.0383317
0.0378156
0.0371375
0.036396
0.0357801
0.0353724
0.0350947
0.0348244
0.0344657
0.034061
0.0336816
0.0333746
0.0331883
0.0330985
0.0329975
0.032832
0.0326567
0.032554
0.0325578
0.0326319
0.0327016
0.0327368
0.0327624
0.0328081
0.0328775
0.0329579
0.0330428
0.0331375
0.0332685
0.0334429
0.0335907
0.0336697
0.0337491
0.0338853
0.0340471
0.0341904
0.0343156
0.0344486
0.0345602
0.0346245
0.0346868
0.0347825
0.0348809
0.0349395
0.0349587
0.0349951
0.0350813
0.0351898
0.0352692
0.0352821
0.0352084
0.0351025
0.0350618
0.0351091
0.0351992
0.0352672
0.0352584
0.0351784
0.0350821
0.0350233
0.0350048
0.0349757
0.0349219
0.034911
0.0349377
0.0348899
0.0347514
0.0345884
0.0344658
0.0344164
0.0344155
0.0343983
0.0343165
0.0341538
0.033965
0.0338418
0.0337983
0.0337614
0.0336762
0.0335427
0.0333843
0.0332401
0.0331315
0.0330372
0.0329149
0.0327409
0.0325659
0.0324266
0.0322983
0.0321197
0.0318805
0.0316932
0.0315537
0.0314054
0.0312126
0.0309798
0.0307548
0.0305596
0.0303745
0.0301593
0.0299203
0.029701
0.0295049
0.029309
0.0290742
0.0288084
0.0285869
0.0284019
0.0281991
0.0279506
0.0277158
0.0275305
0.0273665
0.0272015
0.0270209
0.0268228
0.0266271
0.0264491
0.0262935
0.0261606
0.0260412
0.0259172
0.0257835
0.0256749
0.0256085
0.025566
0.0255272
0.0254706
0.0253985
0.0253526
0.0253491
0.0253708
0.0253742
0.0253558
0.0253683
0.025419
0.0254803
0.0255207
0.0255445
0.0255966
0.0256718
0.0257316
0.0257672
0.0258156
0.0258803
0.0259406
0.0259926
0.0260182
0.026031
0.026055
0.0260838
0.0261069
0.026116
0.0260993
0.026064
0.026035
0.0260149
0.0259825
0.0259391
0.0259039
0.0258726
0.025841
0.0257928
0.0257169
0.0256324
0.0255601
0.0255008
0.0254478
0.0253842
0.0253085
0.0252189
0.0251192
0.0250463
0.0249773
0.0248654
0.0247411
0.0246719
0.0245894
0.0244805
0.0243943
0.0243142
0.0242147
0.0240948
0.0239739
0.023853
0.0237532
0.0236596
0.0235624
0.0234602
0.023346
0.0232043
0.0230906
0.0229902
0.0228933
0.0227804
0.0226561
0.0225417
0.0224014
0.022329
0.0221899
0.0220818
0.021962
0.0218172
0.0216603
0.0217405
0.0213967
0.0213605
0.0214081
0.0209553
0.0211436
0.0219431
0.0232022
0.0274389
0.028679
0.0250897
0.0234856
0.0221659
0.0216012
0.0213329
0.0212062
0.0210708
0.0208992
0.0207332
0.0205471
0.0199159
0.0198253
0.0204313
0.0200814
0.0212181
0.0226631
0.0254032
0.0257415
0.0232073
0.022521
0.0214184
0.0210993
0.0206079
0.0204989
0.0199483
0.0200818
0.0197402
0.0193448
0.019389
0.0194602
0.0190057
0.0217408
0.021879
0.0198857
0.0272838
0.035604
0.0443883
0.0644987
0.0658043
0.0536503
0.0423737
0.0345681
0.0298275
0.0268389
0.0249609
0.0237573
0.0229725
0.0224663
0.0221435
0.0219339
0.0217623
0.0216371
0.0215685
0.0215233
0.0214787
0.0214291
0.0213619
0.0213009
0.0212533
0.0212307
0.0212061
0.0211832
0.0211534
0.0210897
0.0210517
0.0210034
0.020937
0.0208604
0.0207684
0.0206665
0.0205588
0.0204715
0.0203981
0.0203348
0.0202953
0.0202789
0.0202376
0.020215
0.020207
0.020207
0.0202151
0.0202271
0.0202341
0.0202376
0.0202182
0.0201787
0.0201267
0.0200661
0.0200027
0.0199482
0.0199184
0.0199248
0.0199559
0.0199739
0.0199441
0.0198635
0.0197952
0.0198138
0.0199121
0.0200285
0.020048
0.0199147
0.0198027
0.0198399
0.0199544
0.0199711
0.0197906
0.0196392
0.0196535
0.0197004
0.0196116
0.0195027
0.019543
0.0197102
0.0197018
0.0195868
0.019603
0.0190986
0.0144795
0.00137151
0.00148069
0.00178392
0.00314148
0.0071269
0.016409
0.0343287
0.0639065
0.106077
0.156679
0.205546
0.233613
0.242255
0.251165
0.273904
0.317078
0.385714
0.482897
0.59686
0.710678
0.802712
0.853025
0.856111
0.824876
0.768128
0.694169
0.615134
0.540406
0.473491
0.415127
0.367176
0.328729
0.298932
0.277946
0.263452
0.25197
0.242179
0.233372
0.225399
0.218062
0.210446
0.201963
0.193796
0.188108
0.184575
0.180861
0.176473
0.171207
0.165417
0.160834
0.157869
0.154806
0.150792
0.14606
0.14081
0.135461
0.130479
0.12617
0.122944
0.12164
0.122851
0.125825
0.129938
0.135075
0.141628
0.150366
0.159874
0.167562
0.173502
0.179937
0.190769
0.209767
0.235478
0.264446
0.293937
0.325915
0.361929
0.412274
0.482593
0.547596
0.628059
0.70823
0.77692
0.854499
0.915707
0.951019
0.9283
0.841452
0.716829
0.586057
0.452709
0.33142
0.235777
0.157663
0.103167
0.0762485
0.069732
0.0784027
0.103764
0.152857
0.199143
0.243888
0.285365
0.299872
0.292562
0.278108
0.253692
0.213031
0.145065
0.0891678
0.0589477
0.039672
0.0294518
0.0218725
0.0180073
0.0172393
0.0220293
0.0304404
0.0343984
0.0366558
0.0371408
0.0336853
0.0300569
0.0286469
0.0248773
0.0210692
0.0178552
0.0160672
0.0146352
0.0138053
0.0131026
0.0127162
0.0125606
0.0126462
0.0128355
0.0130646
0.0132798
0.013471
0.0136502
0.0138262
0.014
0.0141655
0.0143333
0.0145118
0.0146623
0.01476
0.0148671
0.0150498
0.0152869
0.0154867
0.0155733
0.0156041
0.0156811
0.015826
0.0159583
0.0160162
0.0160118
0.016033
0.0161064
0.0161376
0.0160752
0.0159856
0.015961
0.0159345
0.0157831
0.0155715
0.0154493
0.0153707
0.0151488
0.0147979
0.0144818
0.0142609
0.0140315
0.0136934
0.013228
0.0127731
0.0124011
0.0120268
0.0115934
0.0111371
0.0106955
0.0102726
0.00982926
0.00931416
0.00881336
0.00840359
0.00805205
0.00771291
0.00736504
0.00700922
0.0066692
0.00635125
0.00607418
0.00581818
0.00558442
0.00536641
0.00514254
0.00491487
0.00471208
0.00455077
0.00441467
0.00427161
0.00411345
0.00395492
0.00381506
0.00369888
0.0035954
0.00349106
0.00338286
0.00327924
0.00319114
0.00311482
0.00303394
0.00294278
0.00285604
0.00278565
0.00273051
0.0026838
0.00263357
0.00257453
0.00251129
0.00245678
0.00241715
0.0023868
0.00235954
0.00232983
0.00229782
0.00226676
0.00224101
0.00222337
0.00221307
0.00220415
0.00219197
0.00217849
0.00217023
0.00217028
0.00217568
0.0021814
0.00218502
0.00218744
0.00219099
0.00219666
0.00220331
0.00220984
0.00221721
0.00222818
0.00224313
0.00225675
0.0022654
0.00227312
0.00228417
0.00229733
0.00231003
0.00232172
0.00233363
0.0023443
0.00235243
0.00236061
0.00236992
0.00237758
0.00238161
0.00238389
0.00238891
0.00239758
0.00240755
0.0024148
0.00241567
0.00241001
0.00240289
0.00240069
0.00240436
0.00241009
0.00241424
0.00241451
0.00241072
0.00240444
0.00239857
0.0023947
0.00239126
0.00238753
0.00238663
0.00238847
0.00238488
0.00237402
0.0023615
0.00235231
0.00234771
0.00234578
0.00234332
0.00233701
0.00232521
0.0023118
0.00230227
0.00229731
0.00229272
0.00228563
0.00227621
0.00226573
0.00225506
0.00224517
0.00223629
0.00222626
0.00221377
0.00220107
0.00218924
0.00217752
0.00216343
0.00214626
0.00213206
0.00212002
0.00210684
0.00209135
0.00207433
0.00205722
0.00204135
0.00202612
0.00200963
0.00199232
0.00197581
0.0019601
0.00194442
0.00192741
0.00190962
0.00189421
0.00187992
0.00186451
0.00184739
0.00183144
0.00181791
0.00180533
0.00179261
0.00177939
0.00176588
0.00175276
0.00174054
0.00172946
0.00171976
0.00171104
0.0017025
0.001694
0.00168671
0.0016814
0.00167758
0.0016742
0.00167039
0.00166653
0.0016643
0.00166405
0.00166495
0.00166551
0.00166573
0.00166756
0.001671
0.00167503
0.0016787
0.00168202
0.00168634
0.0016914
0.00169626
0.00170085
0.00170612
0.00171116
0.00171535
0.00171955
0.00172287
0.00172568
0.00172854
0.00173094
0.00173304
0.00173462
0.00173492
0.00173423
0.00173349
0.00173314
0.00173236
0.00173097
0.0017295
0.00172764
0.00172584
0.00172366
0.0017204
0.0017164
0.00171267
0.00170959
0.00170676
0.00170292
0.00169851
0.00169385
0.0016888
0.00168448
0.00168004
0.00167433
0.00166839
0.00166446
0.00165939
0.00165353
0.00164838
0.00164354
0.00163824
0.00163228
0.00162591
0.00161968
0.00161403
0.00160859
0.00160273
0.00159733
0.00159124
0.00158421
0.00157792
0.0015719
0.00156668
0.00155929
0.00155352
0.00154565
0.0015396
0.0015361
0.00152752
0.00152469
0.00152361
0.00151297
0.00151373
0.00152043
0.00149408
0.00152086
0.00153451
0.00152088
0.00153344
0.00158455
0.00161515
0.00173301
0.00173451
0.00160942
0.00155363
0.00151543
0.00149501
0.00148682
0.00148011
0.00147428
0.00145991
0.00145597
0.00146508
0.00146204
0.00148038
0.00150451
0.00151974
0.00155233
0.00156896
0.00163239
0.00161991
0.00154302
0.00151934
0.00147866
0.00146994
0.00145134
0.00144045
0.00141679
0.00144383
0.00143762
0.00145502
0.00152164
0.00161318
0.00159366
0.00193409
0.00196339
0.00197583
0.00240368
0.00308502
0.0036186
0.00488615
0.00433153
0.00322074
0.00252785
0.00211508
0.00188078
0.00174064
0.00165354
0.00159668
0.0015587
0.00153385
0.00151796
0.00150731
0.00149892
0.00149282
0.00148859
0.00148489
0.00148118
0.00147752
0.00147421
0.00147163
0.00147005
0.00146966
0.0014692
0.00146846
0.00146707
0.00146513
0.00146261
0.00145979
0.00145692
0.00145391
0.00145033
0.00144653
0.0014428
0.00143975
0.00143696
0.00143421
0.00143164
0.0014296
0.00142829
0.00142731
0.00142693
0.00142704
0.00142739
0.00142755
0.00142731
0.00142671
0.00142551
0.00142399
0.00142209
0.00141974
0.00141703
0.00141453
0.00141306
0.00141324
0.00141466
0.0014158
0.00141522
0.00141324
0.00141222
0.00141361
0.0014173
0.00141993
0.0014182
0.00141422
0.00141302
0.00141555
0.00141768
0.00141536
0.00141006
0.00140867
0.00140997
0.00140935
0.00140599
0.00140559
0.00140802
0.00141348
0.00141719
0.00143621
0.00145979
0.00147353
0.00128253
0.00136941
0.0014381
0.00155487
0.00219708
0.00411597
0.00856597
0.0170569
0.0311331
0.0515943
0.0767276
0.100606
0.113802
0.118167
0.124011
0.139227
0.167967
0.210682
0.262054
0.31567
0.366599
0.408504
0.436577
0.441293
0.420408
0.382408
0.336605
0.290288
0.24847
0.214205
0.187274
0.165961
0.149016
0.135699
0.12581
0.118915
0.113814
0.109433
0.105363
0.101359
0.0971579
0.0926068
0.0878301
0.0833821
0.0800076
0.0777264
0.0757924
0.0735163
0.0707305
0.0678104
0.0654328
0.0638928
0.0626064
0.0610004
0.0589
0.0563987
0.0538176
0.0514163
0.0491479
0.0472132
0.0460851
0.0459987
0.046741
0.0482148
0.0505345
0.0540354
0.058736
0.0637102
0.0679025
0.0716965
0.0760588
0.0820303
0.0904776
0.102056
0.115862
0.131106
0.146411
0.16256
0.180847
0.205605
0.237103
0.285148
0.357304
0.43481
0.521231
0.58992
0.634059
0.65914
0.651512
0.609913
0.544465
0.469614
0.395278
0.327744
0.2615
0.19955
0.148292
0.104562
0.0710813
0.0518683
0.0458404
0.047003
0.0546146
0.0691563
0.0813336
0.0890332
0.0959418
0.0965719
0.0939496
0.0925533
0.102468
0.0993367
0.0817941
0.0536054
0.0331899
0.0199058
0.0132224
0.00870547
0.00653224
0.00554725
0.00572244
0.00645663
0.00672737
0.00684666
0.00704941
0.00679736
0.00707327
0.00766743
0.00698169
0.00592787
0.00493226
0.0042691
0.00374405
0.00343284
0.00317274
0.00303875
0.00301514
0.00302179
0.00306051
0.00309931
0.00312336
0.00313747
0.00315456
0.00318306
0.00321819
0.00324763
0.00326745
0.00328985
0.00332436
0.00336516
0.00339759
0.00341538
0.00343063
0.00345371
0.00348172
0.0035024
0.00351125
0.00351362
0.00352089
0.00353452
0.00354174
0.00353472
0.00351918
0.00350773
0.0034951
0.00346692
0.00343085
0.00340413
0.00337899
0.00333593
0.0032731
0.00321038
0.00316149
0.00311251
0.00304998
0.00297102
0.00288887
0.00281519
0.00274583
0.00267363
0.00259925
0.00252453
0.00245118
0.00237764
0.0023013
0.00222905
0.00216555
0.00210948
0.00205771
0.00200736
0.00195845
0.0019126
0.00186881
0.00182865
0.00179191
0.00175945
0.00173121
0.00170454
0.00167719
0.00165047
0.00162717
0.00160778
0.00159024
0.0015721
0.00155295
0.00153433
0.00151758
0.00150317
0.00149011
0.00147713
0.00146383
0.0014506
0.00143836
0.00142745
0.00141658
0.00140497
0.00139375
0.00138368
0.00137459
0.00136623
0.0013583
0.00134998
0.00134103
0.0013322
0.00132437
0.00131808
0.00131295
0.00130775
0.00130176
0.00129539
0.0012895
0.00128474
0.00128115
0.00127782
0.00127408
0.00127059
0.00126775
0.00126502
0.00126221
0.00125973
0.00125802
0.00125703
0.00125613
0.00125474
0.00125276
0.00125084
0.00124967
0.00124949
0.00124995
0.00125016
0.00124975
0.00124911
0.00124858
0.00124839
0.00124854
0.00124914
0.00124988
0.0012498
0.00124925
0.00124922
0.00124967
0.0012499
0.00124967
0.00124947
0.00124945
0.0012499
0.00125052
0.00125036
0.00124985
0.00124953
0.0012492
0.00124859
0.00124785
0.00124754
0.00124771
0.00124796
0.00124768
0.00124675
0.00124564
0.00124486
0.00124431
0.00124372
0.00124347
0.00124336
0.00124252
0.0012408
0.00123928
0.00123818
0.00123728
0.00123682
0.0012362
0.00123469
0.00123283
0.00123119
0.00122955
0.00122802
0.00122681
0.00122508
0.00122302
0.00122089
0.0012186
0.00121636
0.00121395
0.00121119
0.00120838
0.00120567
0.00120293
0.00119967
0.00119608
0.00119264
0.00118947
0.00118604
0.0011823
0.00117842
0.00117436
0.00117055
0.0011668
0.00116275
0.0011586
0.00115459
0.00115058
0.00114654
0.00114257
0.00113864
0.00113472
0.0011309
0.00112704
0.00112317
0.00111958
0.00111617
0.00111274
0.00110934
0.00110607
0.00110295
0.00109994
0.00109704
0.00109429
0.00109177
0.00108943
0.00108719
0.00108508
0.00108311
0.00108131
0.00107969
0.00107823
0.0010769
0.00107575
0.00107486
0.00107418
0.00107358
0.0010731
0.00107267
0.00107231
0.00107219
0.00107229
0.00107252
0.00107273
0.00107291
0.00107312
0.00107348
0.00107399
0.00107456
0.00107499
0.00107527
0.00107562
0.00107608
0.00107649
0.00107671
0.00107682
0.001077
0.00107721
0.00107736
0.0010774
0.00107731
0.0010772
0.00107717
0.00107711
0.00107688
0.00107656
0.00107631
0.00107608
0.0010758
0.0010754
0.00107495
0.00107453
0.0010741
0.00107357
0.00107302
0.0010725
0.00107197
0.00107137
0.00107068
0.00107006
0.00106946
0.00106887
0.00106823
0.00106759
0.00106684
0.00106614
0.00106544
0.00106488
0.00106418
0.0010635
0.0010627
0.00106188
0.00106097
0.00106074
0.00105991
0.00105954
0.00105835
0.00105644
0.00105499
0.00105375
0.00105539
0.00105499
0.00105813
0.00105793
0.00105627
0.00105627
0.00106093
0.00106524
0.0010966
0.0011021
0.00107487
0.00106687
0.00106509
0.00106371
0.00105866
0.00105814
0.0010526
0.00105352
0.00105341
0.00105151
0.00105008
0.00105269
0.00105213
0.00105458
0.00105687
0.0010639
0.00107407
0.00107414
0.00106143
0.00105751
0.00105461
0.00105143
0.00104653
0.0010448
0.00104733
0.00104667
0.00104569
0.00104328
0.00104623
0.00104458
0.00107682
0.00106463
0.00104511
0.00109928
0.00111571
0.00122143
0.00127593
0.00151402
0.00151918
0.00130382
0.00126495
0.00124988
0.00123075
0.00121208
0.0012102
0.00117016
0.00119203
0.00117369
0.00113764
0.00110872
0.00108917
0.00107562
0.00106568
0.00105828
0.00105273
0.00104855
0.00104538
0.001043
0.00104122
0.0010399
0.00103891
0.00103813
0.00103751
0.001037
0.0010366
0.00103633
0.00103608
0.00103594
0.00103606
0.00103611
0.00103608
0.00103607
0.00103602
0.00103591
0.00103579
0.00103571
0.00103565
0.0010356
0.00103557
0.00103554
0.00103547
0.0010354
0.00103532
0.00103524
0.00103518
0.00103511
0.00103505
0.00103503
0.00103501
0.001035
0.00103497
0.00103491
0.00103483
0.00103476
0.00103467
0.00103459
0.00103449
0.00103435
0.00103421
0.00103409
0.00103402
0.00103399
0.00103396
0.0010339
0.00103382
0.00103378
0.00103378
0.00103376
0.00103373
0.00103365
0.00103358
0.00103358
0.00103354
0.00103345
0.00103331
0.00103327
0.00103325
0.00103315
0.00103306
0.0010331
0.00103312
0.00103293
0.00103681
0.00104475
0.00107307
0.00110451
0.00114074
0.00106083
0.0013708
0.00142197
0.00146059
0.00179688
0.00283295
0.00523444
0.00978374
0.017396
0.0287437
0.0433658
0.0577512
0.0655214
0.0675291
0.0698166
0.076224
0.0880062
0.103972
0.120447
0.135048
0.146871
0.154939
0.158299
0.156474
0.149774
0.139114
0.125976
0.112408
0.0998614
0.0891339
0.0803472
0.073111
0.0669517
0.0617027
0.0575
0.0544765
0.0524904
0.0509221
0.049212
0.0472196
0.0450111
0.0426792
0.0403289
0.0381571
0.0363864
0.035148
0.0341694
0.0330478
0.0317093
0.0303422
0.0292398
0.0285987
0.0281796
0.0275602
0.0266296
0.0255328
0.0243855
0.0232677
0.0221638
0.0211156
0.0203327
0.0199262
0.0198495
0.0201263
0.0209143
0.0224292
0.0245274
0.026846
0.0290636
0.031226
0.0336067
0.0365257
0.0404783
0.0461331
0.0533877
0.0615973
0.0698099
0.07785
0.0863867
0.0959918
0.109199
0.127993
0.157664
0.196128
0.248045
0.306802
0.358689
0.4003
0.427889
0.430217
0.41227
0.383853
0.345708
0.30412
0.26485
0.227038
0.192439
0.156528
0.12157
0.0922129
0.0664888
0.0463541
0.0333136
0.0261647
0.0227974
0.0223354
0.0242944
0.025808
0.0277968
0.0305323
0.0377996
0.044083
0.0541211
0.0679431
0.0718634
0.0644158
0.0450735
0.0282882
0.0166563
0.0106965
0.00652748
0.00432068
0.00325013
0.00293432
0.00302579
0.00317602
0.0033358
0.00360439
0.00375776
0.00439844
0.0051842
0.00489909
0.00422022
0.00350959
0.00299386
0.00252952
0.00227706
0.00215159
0.00202985
0.00195685
0.00192652
0.00192147
0.00191713
0.00191172
0.00190983
0.0019127
0.00191847
0.00192425
0.00192937
0.00193499
0.00194137
0.00194818
0.00195525
0.00196169
0.00196646
0.00197059
0.00197541
0.00198003
0.00198279
0.00198393
0.00198488
0.00198532
0.00198362
0.00197926
0.00197375
0.00196777
0.00196086
0.00195226
0.00194194
0.0019305
0.0019176
0.00190307
0.00188787
0.00187336
0.00185794
0.00183993
0.00182105
0.00180267
0.00178527
0.00176866
0.00174999
0.00172975
0.00171096
0.00169417
0.00167833
0.00166199
0.00164574
0.00162906
0.00161182
0.00159695
0.00158415
0.00157221
0.00156103
0.00154892
0.0015354
0.00152245
0.00151152
0.00150269
0.00149446
0.001485
0.00147467
0.00146498
0.00145699
0.00144987
0.00144179
0.0014326
0.00142376
0.00141643
0.00140985
0.00140275
0.00139469
0.00138625
0.00137869
0.00137268
0.00136686
0.00135967
0.00135148
0.00134352
0.00133652
0.00133081
0.00132572
0.0013198
0.00131258
0.00130528
0.00129907
0.00129391
0.00128928
0.00128461
0.00127979
0.00127484
0.00126955
0.00126439
0.00126024
0.00125723
0.00125448
0.00125105
0.00124714
0.00124361
0.00124074
0.00123841
0.00123671
0.00123508
0.00123278
0.00123015
0.00122779
0.00122582
0.00122427
0.00122347
0.00122334
0.00122279
0.0012213
0.00121964
0.00121861
0.00121813
0.00121752
0.00121689
0.00121661
0.00121617
0.00121541
0.00121506
0.00121546
0.00121563
0.00121486
0.00121382
0.00121298
0.00121279
0.00121328
0.00121352
0.00121334
0.00121296
0.00121212
0.00121116
0.00121071
0.00121086
0.0012108
0.00121032
0.00121007
0.0012099
0.00120919
0.00120818
0.00120744
0.00120717
0.00120703
0.00120692
0.00120628
0.00120491
0.00120357
0.00120302
0.00120286
0.00120213
0.00120097
0.00119965
0.00119855
0.00119766
0.00119648
0.00119509
0.00119377
0.00119205
0.00119038
0.00118897
0.0011872
0.00118519
0.00118303
0.00118073
0.00117858
0.00117632
0.00117392
0.00117128
0.00116844
0.00116551
0.00116269
0.00115986
0.00115669
0.00115345
0.00115022
0.00114696
0.00114359
0.0011401
0.00113665
0.00113331
0.00112988
0.00112634
0.00112278
0.00111931
0.00111595
0.00111269
0.00110933
0.00110592
0.0011027
0.00109968
0.00109674
0.00109377
0.00109087
0.0010881
0.00108548
0.00108301
0.00108058
0.00107827
0.00107612
0.00107408
0.00107217
0.00107043
0.00106883
0.00106731
0.00106592
0.00106469
0.0010636
0.00106267
0.00106189
0.00106121
0.00106062
0.00106012
0.0010597
0.00105942
0.00105929
0.00105925
0.00105925
0.00105925
0.00105931
0.00105939
0.00105956
0.0010598
0.00106002
0.00106019
0.00106035
0.00106055
0.0010607
0.00106081
0.00106092
0.001061
0.00106103
0.00106107
0.00106111
0.00106107
0.00106096
0.00106086
0.00106076
0.00106061
0.00106044
0.00106024
0.00105999
0.00105973
0.00105945
0.00105915
0.00105879
0.00105842
0.00105806
0.00105765
0.00105722
0.00105678
0.0010563
0.00105585
0.00105539
0.00105493
0.00105442
0.00105398
0.00105348
0.00105308
0.00105254
0.00105204
0.00105146
0.00105089
0.00105025
0.00105017
0.00104956
0.00104939
0.00104854
0.00104677
0.00104553
0.00104768
0.00104778
0.00104638
0.00104973
0.00104974
0.00104756
0.0010476
0.00105237
0.00105819
0.00109209
0.00109875
0.00106949
0.00106126
0.00105816
0.00105499
0.00104889
0.00104688
0.00104134
0.00104064
0.00104017
0.00104164
0.00104158
0.00104514
0.00104537
0.00105031
0.00105456
0.00107039
0.001071
0.00106047
0.00105287
0.00105037
0.00104729
0.00104269
0.00103691
0.00103432
0.00103704
0.00103517
0.0010353
0.0010335
0.00103418
0.00103482
0.00106913
0.00106458
0.00109589
0.001102
0.00118504
0.00123985
0.0013454
0.00155136
0.00155509
0.00132281
0.00127234
0.00124363
0.00120602
0.00115204
0.00111814
0.0010721
0.00105542
0.00106087
0.00106556
0.00106725
0.00106688
0.0010639
0.00105961
0.00105525
0.00105113
0.00104727
0.00104376
0.00104068
0.00103806
0.00103593
0.00103415
0.0010327
0.00103153
0.00103065
0.00103
0.00102953
0.00102907
0.00102864
0.0010283
0.00102809
0.00102794
0.00102779
0.00102772
0.00102769
0.00102764
0.0010276
0.00102758
0.00102756
0.00102752
0.00102748
0.00102747
0.00102748
0.00102748
0.00102748
0.00102747
0.00102746
0.00102745
0.00102742
0.00102739
0.00102735
0.00102731
0.00102727
0.00102725
0.00102721
0.00102718
0.00102713
0.00102708
0.00102702
0.00102698
0.00102694
0.00102689
0.0010268
0.00102671
0.00102661
0.00102653
0.00102645
0.00102639
0.00102632
0.00102626
0.00102621
0.00102615
0.00102611
0.00102608
0.00102605
0.00102599
0.00102592
0.00102587
0.00102585
0.00102578
0.00102562
0.00102558
0.00102568
0.00102569
0.00102545
0.00102538
0.00102949
0.00103743
0.00106612
0.00109804
0.00113486
0.00105693
0.0013733
0.00141784
0.00142589
0.00163737
0.0023076
0.00385706
0.0067785
0.0116848
0.0190838
0.0288606
0.038557
0.0437432
0.0450161
0.0460815
0.0490221
0.0543386
0.0603605
0.0645552
0.0666388
0.0671329
0.0664178
0.0646966
0.0621284
0.0589407
0.0553532
0.0514732
0.0474817
0.0437173
0.0404712
0.0377671
0.0353455
0.0330074
0.0308234
0.0289095
0.0274384
0.0264791
0.0257169
0.0248733
0.0239522
0.0229961
0.0219647
0.0208679
0.0198358
0.0190181
0.0185035
0.0181575
0.0177338
0.017174
0.0165708
0.0160431
0.0157086
0.015538
0.0153734
0.0150679
0.0145905
0.0140244
0.0134555
0.0129022
0.0123785
0.0119557
0.0116532
0.0114511
0.011378
0.011577
0.0121748
0.0130841
0.0140714
0.0150484
0.0160406
0.0171212
0.0184352
0.020178
0.0226983
0.0263303
0.0307336
0.0351266
0.0391701
0.0433926
0.0482152
0.0543099
0.0620609
0.0723723
0.0870213
0.106246
0.132344
0.160232
0.186662
0.214293
0.236472
0.248842
0.252904
0.245791
0.231835
0.217284
0.200154
0.182065
0.163902
0.144133
0.124415
0.102567
0.0810213
0.06252
0.0458586
0.0324643
0.0229781
0.0166705
0.0130036
0.01129
0.0111457
0.0131539
0.0165865
0.0220368
0.0312335
0.0387922
0.0467213
0.0551449
0.0576459
0.0531663
0.0402848
0.026633
0.015626
0.0098775
0.00598243
0.00393133
0.00295498
0.00264405
0.00268046
0.00282036
0.00299825
0.0033108
0.00353488
0.0042768
0.00509417
0.0049661
0.00428688
0.00358929
0.0030554
0.00267355
0.00233927
0.00211616
0.00193623
0.00184444
0.00181736
0.00181077
0.00180009
0.00179027
0.0017863
0.00178611
0.0017866
0.00178836
0.00179178
0.00179528
0.00179713
0.00179818
0.00180059
0.00180548
0.00181069
0.00181304
0.00181202
0.00181053
0.00181007