/*--------------------------------*- C++ -*----------------------------------*\
| =========                 |                                                 |
| \\      /  F ield         | OpenFOAM: The Open Source CFD Toolbox           |
|  \\    /   O peration     | Version:  v2006                                 |
|   \\  /    A nd           | Website:  www.openfoam.com                      |
|    \\/     M anipulation  |                                                 |
\*---------------------------------------------------------------------------*/
FoamFile
{
    version     2.0;
    format      ascii;
    class       volScalarField;
    location    "5.1";
    object      p;
}
// * * * * * * * * * * * * * * * * * * * * * * * * * * * * * * * * * * * * * //

dimensions      [1 -1 -2 0 0 0 0];


internalField   nonuniform List<scalar> 
33000
(
7964.54
7981.75
7988.45
7997.09
8006.05
8015.03
8024.04
8033.06
8042.09
8051.14
8060.26
8069.49
8078.81
8088.11
8097.14
8105.53
8113.13
8119.94
8126.25
8132.71
8140.09
8148.69
8157.59
8166.43
8174.87
8182.94
8190.91
8198.74
8206.47
8214.14
8221.75
8229.29
8236.76
8244.15
8251.45
8258.68
8265.86
8272.98
8280.01
8286.95
8293.86
8300.72
8307.5
8314.18
8320.75
8327.23
8333.65
8340.04
8346.35
8352.57
8358.7
8364.73
8370.7
8376.61
8382.45
8388.21
8393.89
8399.5
8405.04
8410.5
8415.88
8421.17
8426.4
8431.58
8436.74
8441.82
8446.86
8451.88
8456.87
8461.82
8466.79
8471.79
8476.85
8482.03
8487.41
8492.91
8498.62
8503.39
8499.83
8485.73
8503.65
8505.17
8508.41
8513.27
8515.03
8517.05
8521.87
8524.46
8528.59
8531.4
8534.8
8538.01
8541.14
8544.59
8548.5
8552.14
8557.02
8560.67
8568.08
8569.28
8563.17
8564.2
8563.96
8563.83
8564.77
8564.14
8562.93
8561.69
8560.84
8560.36
8559.15
8558.13
8556.71
8554.79
8553.1
8550.61
8550.09
8546.4
8538.92
8534.56
8528.62
8522.11
8515.61
8508.06
8499.35
8490.45
8480.85
8470.68
8460.08
8448.8
8436.84
8424.37
8411.29
8397.69
8383.54
8368.89
8353.7
8337.95
8321.69
8304.91
8287.65
8269.95
8251.82
8233.31
8214.43
8195.26
8175.82
8156.15
8136.29
8116.27
8096.16
8076.01
8055.84
8035.7
8015.62
7995.66
7975.85
7956.25
7936.88
7917.77
7898.96
7880.5
7862.4
7844.69
7827.41
7810.58
7794.21
7778.33
7762.96
7748.12
7733.81
7720.03
7706.79
7694.12
7682
7670.42
7659.37
7648.84
7638.84
7629.33
7620.29
7611.69
7603.52
7595.76
7588.35
7581.27
7574.5
7568.01
7561.77
7555.75
7549.93
7544.29
7538.83
7533.58
7528.56
7523.8
7519.31
7515.11
7511.19
7507.58
7504.29
7501.31
7498.67
7496.35
7494.35
7492.68
7491.33
7490.3
7489.59
7489.19
7489.08
7489.28
7489.76
7490.53
7491.57
7492.87
7494.42
7496.21
7498.24
7500.49
7502.96
7505.63
7508.48
7511.5
7514.7
7518.05
7521.56
7525.2
7528.96
7532.84
7536.83
7540.91
7545.09
7549.34
7553.67
7558.06
7562.5
7566.99
7571.53
7576.1
7580.69
7585.32
7589.96
7594.61
7599.27
7603.93
7608.59
7613.24
7617.88
7622.52
7627.13
7631.73
7636.3
7640.85
7645.37
7649.87
7654.34
7658.77
7663.17
7667.54
7671.87
7676.16
7680.42
7684.63
7688.8
7692.92
7697
7701.04
7705.03
7708.97
7712.86
7716.7
7720.49
7724.22
7727.9
7731.52
7735.08
7738.59
7742.03
7745.41
7748.73
7751.98
7755.17
7758.29
7761.34
7764.33
7767.24
7770.09
7772.86
7775.56
7778.19
7780.75
7783.24
7785.65
7788
7790.26
7792.46
7794.59
7796.65
7798.64
7800.56
7802.41
7804.2
7805.93
7807.59
7809.2
7810.76
7812.26
7813.71
7815.12
7816.48
7817.81
7819.09
7820.35
7821.57
7822.76
7823.93
7825.08
7826.2
7827.29
7828.35
7829.38
7830.37
7831.31
7832.22
7833.07
7833.89
7834.65
7835.36
7836.03
7836.64
7837.2
7837.71
7838.17
7838.58
7838.93
7839.24
7839.5
7839.7
7839.86
7839.97
7840.04
7840.06
7840.04
7839.98
7839.88
7839.75
7839.57
7839.36
7839.12
7838.85
7838.54
7838.22
7837.86
7837.48
7837.08
7836.65
7836.21
7835.75
7835.27
7834.77
7834.26
7833.74
7833.2
7832.66
7832.11
7831.55
7830.98
7830.41
7829.83
7829.25
7828.67
7828.08
7827.49
7826.89
7826.3
7825.71
7825.11
7824.52
7823.93
7823.33
7822.74
7822.16
7821.57
7820.99
7820.41
7819.84
7819.27
7818.7
7818.14
7817.58
7817.02
7816.47
7815.92
7815.38
7814.84
7814.31
7813.77
7813.25
7812.73
7812.21
7811.69
7811.18
7810.68
7810.18
7809.68
7809.19
7808.7
7808.21
7807.73
7807.26
7806.78
7806.31
7805.85
7805.38
7804.92
7804.47
7804.02
7803.57
7803.13
7802.7
7802.26
7801.83
7801.4
7800.98
7800.59
7800.18
7799.77
7799.42
7798.93
7798.58
7798.35
7797.99
7797.68
7797.32
7796.98
7796.62
7796.25
7795.89
7795.51
7795.14
7794.75
7794.38
7794.01
7793.63
7793.25
7792.9
7792.46
7792.11
7791.85
7791.49
7791.18
7790.81
7790.47
7790.09
7789.74
7789.35
7788.98
7788.6
7788.22
7787.83
7787.46
7787.05
7786.7
7786.33
7785.97
7785.6
7785.27
7784.73
7784.52
7784.29
7784.01
7783.72
7783.41
7783.09
7782.77
7782.43
7782.09
7781.75
7781.4
7781.05
7780.69
7780.33
7779.97
7779.61
7779.24
7778.87
7778.5
7778.13
7777.75
7777.37
7777
7776.62
7776.24
7775.86
7775.47
7775.09
7774.7
7774.32
7773.93
7773.55
7773.16
7772.77
7772.38
7771.99
7771.6
7771.21
7770.82
7770.43
7770.04
7769.65
7769.26
7768.87
7768.48
7768.08
7767.69
7767.3
7766.91
7766.52
7766.13
7765.73
7765.34
7764.95
7764.56
7764.17
7763.78
7763.39
7763
7762.61
7762.22
7761.83
7761.44
7761.05
7760.67
7760.28
7759.89
7759.5
7759.12
7758.73
7758.35
7757.96
7757.58
7757.19
7756.81
7756.42
7756.04
7755.66
7755.26
7754.95
7754.38
7768.27
7785.49
7792.19
7800.84
7809.8
7818.78
7827.79
7836.8
7845.79
7854.77
7863.8
7872.78
7881.79
7890.63
7899.1
7907.08
7914.39
7921
7927.19
7933.68
7941.17
7949.94
7959.92
7969.7
7978.65
7986.97
7994.99
8002.82
8010.55
8018.2
8025.78
8033.29
8040.76
8048.16
8055.48
8062.71
8069.88
8076.99
8084.04
8091.02
8097.92
8104.75
8111.52
8118.21
8124.79
8131.29
8137.72
8144.08
8150.37
8156.59
8162.71
8168.75
8174.71
8180.6
8186.43
8192.2
8197.88
8203.49
8209.01
8214.47
8219.87
8225.16
8230.4
8235.6
8240.73
8245.81
8250.84
8255.8
8260.71
8265.62
8270.52
8275.36
8280.22
8284.95
8289.56
8293.99
8298.22
8302.3
8306.13
8312.14
8318.45
8313.32
8295.31
8316.26
8319.97
8321.89
8328.02
8329.15
8332.55
8333.01
8337.83
8340.88
8344.3
8347.87
8351.14
8354.16
8358.01
8360.9
8364.76
8366.33
8367.71
8374.52
8373.9
8365.06
8365.6
8364.8
8365.96
8365.82
8367.08
8366.54
8364.03
8362.37
8360.4
8358.32
8356.51
8354.09
8351.34
8348.07
8343.66
8341.78
8336.22
8326.02
8319.44
8311.46
8303.43
8295.31
8286.04
8275.52
8264.7
8253.23
8241.27
8228.94
8215.95
8202.34
8188.17
8173.46
8158.24
8142.47
8126.22
8109.45
8092.19
8074.46
8056.3
8037.74
8018.83
7999.62
7980.13
7960.41
7940.49
7920.42
7900.27
7880.06
7859.83
7839.63
7819.5
7799.49
7779.65
7760
7740.57
7721.42
7702.58
7684.08
7665.95
7648.22
7630.91
7614.06
7597.67
7581.77
7566.39
7551.53
7537.21
7523.42
7510.19
7497.51
7485.38
7473.8
7462.75
7452.23
7442.22
7432.7
7423.65
7415.06
7406.89
7399.11
7391.7
7384.62
7377.84
7371.34
7365.08
7359.06
7353.22
7347.58
7342.11
7336.86
7331.83
7327.06
7322.56
7318.35
7314.43
7310.82
7307.53
7304.56
7301.92
7299.6
7297.6
7295.94
7294.6
7293.58
7292.88
7292.48
7292.39
7292.6
7293.11
7293.89
7294.94
7296.26
7297.83
7299.63
7301.68
7303.95
7306.43
7309.11
7311.98
7315.02
7318.23
7321.6
7325.12
7328.77
7332.55
7336.45
7340.45
7344.54
7348.73
7353
7357.34
7361.74
7366.19
7370.69
7375.23
7379.81
7384.42
7389.05
7393.7
7398.36
7403.02
7407.69
7412.35
7417.01
7421.66
7426.29
7430.91
7435.51
7440.09
7444.64
7449.17
7453.67
7458.14
7462.57
7466.98
7471.34
7475.68
7479.97
7484.23
7488.44
7492.61
7496.74
7500.82
7504.86
7508.85
7512.79
7516.68
7520.52
7524.31
7528.05
7531.72
7535.35
7538.91
7542.42
7545.86
7549.24
7552.56
7555.81
7559
7562.12
7565.17
7568.16
7571.07
7573.92
7576.69
7579.39
7582.02
7584.58
7587.07
7589.48
7591.83
7594.09
7596.29
7598.42
7600.48
7602.46
7604.39
7606.24
7608.03
7609.76
7611.43
7613.04
7614.59
7616.09
7617.55
7618.96
7620.32
7621.65
7622.93
7624.19
7625.41
7626.61
7627.78
7628.93
7630.05
7631.15
7632.21
7633.24
7634.23
7635.18
7636.09
7636.95
7637.76
7638.53
7639.24
7639.91
7640.52
7641.08
7641.59
7642.05
7642.46
7642.82
7643.12
7643.38
7643.58
7643.74
7643.85
7643.92
7643.94
7643.92
7643.85
7643.75
7643.61
7643.43
7643.22
7642.98
7642.7
7642.4
7642.07
7641.71
7641.33
7640.92
7640.49
7640.05
7639.58
7639.1
7638.6
7638.09
7637.57
7637.04
7636.49
7635.94
7635.38
7634.81
7634.23
7633.65
7633.07
7632.48
7631.89
7631.3
7630.71
7630.11
7629.52
7628.92
7628.33
7627.74
7627.14
7626.55
7625.97
7625.38
7624.8
7624.22
7623.64
7623.07
7622.5
7621.94
7621.38
7620.83
7620.27
7619.73
7619.18
7618.64
7618.11
7617.58
7617.05
7616.53
7616.01
7615.49
7614.98
7614.48
7613.98
7613.48
7612.99
7612.5
7612.01
7611.54
7611.06
7610.59
7610.11
7609.65
7609.18
7608.73
7608.27
7607.83
7607.37
7606.93
7606.48
7606.05
7605.64
7605.23
7604.79
7604.39
7603.87
7603.48
7603.25
7602.86
7602.55
7602.21
7601.86
7601.52
7601.16
7600.81
7600.43
7600.07
7599.68
7599.32
7598.95
7598.58
7598.18
7597.81
7597.35
7596.99
7596.72
7596.36
7596.03
7595.7
7595.34
7595
7594.63
7594.28
7593.91
7593.54
7593.17
7592.78
7592.41
7591.99
7591.64
7591.26
7590.91
7590.51
7590.14
7589.55
7589.29
7589.07
7588.77
7588.47
7588.18
7587.87
7587.56
7587.24
7586.92
7586.58
7586.25
7585.91
7585.56
7585.21
7584.86
7584.5
7584.14
7583.78
7583.41
7583.04
7582.68
7582.3
7581.93
7581.56
7581.18
7580.8
7580.42
7580.04
7579.66
7579.28
7578.89
7578.51
7578.12
7577.73
7577.35
7576.96
7576.57
7576.18
7575.79
7575.4
7575.01
7574.62
7574.23
7573.84
7573.45
7573.06
7572.67
7572.28
7571.88
7571.49
7571.1
7570.71
7570.32
7569.93
7569.53
7569.14
7568.75
7568.36
7567.97
7567.58
7567.19
7566.8
7566.41
7566.02
7565.63
7565.24
7564.85
7564.47
7564.08
7563.69
7563.3
7562.92
7562.53
7562.14
7561.76
7561.37
7560.99
7560.61
7560.22
7559.84
7559.46
7559.06
7558.75
7558.18
7571.97
7589.22
7595.92
7604.58
7613.55
7622.53
7631.53
7640.52
7649.47
7658.39
7667.31
7676.18
7684.93
7693.54
7701.9
7709.91
7717.6
7725.04
7732.47
7740.12
7748.18
7756.66
7765.33
7774.08
7782.67
7790.99
7798.99
7806.86
7814.64
7822.33
7829.92
7837.45
7844.93
7852.33
7859.66
7866.91
7874.1
7881.21
7888.26
7895.26
7902.17
7908.98
7915.73
7922.41
7929
7935.53
7941.96
7948.31
7954.57
7960.78
7966.9
7972.94
7978.91
7984.8
7990.62
7996.37
8002.05
8007.65
8013.17
8018.64
8024.03
8029.33
8034.6
8039.78
8044.89
8049.93
8054.89
8059.81
8064.67
8069.53
8074.34
8079.06
8083.76
8088.33
8092.78
8097.14
8101.27
8104.97
8108.1
8110.55
8113.91
8118.28
8124.85
8131.58
8126.31
8106.6
8127.67
8134.32
8139.13
8139.83
8143.64
8146.5
8146.46
8151.21
8154.36
8157.38
8161.14
8163.64
8166.37
8168.66
8169.12
8170.77
8171.74
8172.71
8181.43
8178.93
8168.43
8166.89
8165.64
8166.47
8166.18
8167.53
8166.26
8163.5
8160.59
8157.69
8154.71
8151.38
8147.07
8142.22
8137.24
8131.36
8128.32
8121.03
8108.38
8099.88
8089.89
8080.07
8070.27
8059.23
8046.92
8034.36
8021.08
8007.53
7993.46
7978.98
7963.87
7948.06
7931.73
7914.85
7897.49
7879.71
7861.48
7842.84
7823.84
7804.53
7784.93
7765.1
7745.07
7724.9
7704.64
7684.33
7663.98
7643.67
7623.44
7603.34
7583.4
7563.66
7544.15
7524.92
7506
7487.43
7469.23
7451.44
7434.08
7417.17
7400.74
7384.8
7369.38
7354.48
7340.14
7326.33
7313.09
7300.39
7288.25
7276.66
7265.62
7255.1
7245.08
7235.56
7226.5
7217.89
7209.71
7201.91
7194.47
7187.37
7180.57
7174.05
7167.77
7161.72
7155.87
7150.22
7144.76
7139.5
7134.48
7129.7
7125.2
7120.98
7117.07
7113.46
7110.18
7107.21
7104.58
7102.27
7100.29
7098.64
7097.32
7096.32
7095.64
7095.27
7095.2
7095.45
7095.98
7096.79
7097.87
7099.22
7100.82
7102.67
7104.74
7107.04
7109.55
7112.26
7115.16
7118.24
7121.49
7124.88
7128.43
7132.11
7135.92
7139.84
7143.87
7148
7152.21
7156.5
7160.86
7165.28
7169.76
7174.28
7178.84
7183.44
7188.07
7192.71
7197.38
7202.04
7206.72
7211.4
7216.07
7220.74
7225.4
7230.04
7234.67
7239.28
7243.86
7248.42
7252.96
7257.46
7261.93
7266.37
7270.78
7275.15
7279.49
7283.79
7288.05
7292.26
7296.44
7300.57
7304.65
7308.69
7312.69
7316.63
7320.52
7324.37
7328.16
7331.89
7335.58
7339.2
7342.76
7346.27
7349.71
7353.1
7356.42
7359.67
7362.86
7365.98
7369.03
7372.02
7374.93
7377.78
7380.55
7383.26
7385.89
7388.44
7390.93
7393.34
7395.69
7397.96
7400.15
7402.28
7404.34
7406.33
7408.25
7410.1
7411.89
7413.62
7415.29
7416.91
7418.46
7419.97
7421.43
7422.84
7424.21
7425.54
7426.83
7428.09
7429.32
7430.52
7431.7
7432.85
7433.98
7435.08
7436.14
7437.18
7438.17
7439.13
7440.03
7440.9
7441.72
7442.48
7443.2
7443.87
7444.48
7445.05
7445.56
7446.02
7446.42
7446.78
7447.08
7447.34
7447.54
7447.7
7447.8
7447.87
7447.88
7447.86
7447.79
7447.69
7447.54
7447.36
7447.15
7446.9
7446.62
7446.31
7445.97
7445.61
7445.22
7444.81
7444.38
7443.93
7443.46
7442.98
7442.48
7441.96
7441.44
7440.9
7440.35
7439.79
7439.23
7438.66
7438.08
7437.5
7436.91
7436.32
7435.73
7435.13
7434.54
7433.94
7433.34
7432.75
7432.15
7431.55
7430.96
7430.37
7429.78
7429.2
7428.61
7428.03
7427.46
7426.88
7426.32
7425.75
7425.19
7424.63
7424.08
7423.53
7422.99
7422.45
7421.91
7421.38
7420.85
7420.33
7419.81
7419.3
7418.79
7418.28
7417.78
7417.28
7416.79
7416.3
7415.82
7415.34
7414.86
7414.38
7413.92
7413.45
7412.99
7412.52
7412.07
7411.6
7411.16
7410.74
7410.32
7409.86
7409.44
7408.89
7408.49
7408.25
7407.85
7407.52
7407.14
7406.78
7406.41
7406.07
7405.7
7405.35
7404.98
7404.62
7404.27
7403.9
7403.55
7403.14
7402.78
7402.3
7401.94
7401.67
7401.31
7400.98
7400.62
7400.26
7399.9
7399.56
7399.19
7398.85
7398.47
7398.13
7397.73
7397.37
7396.94
7396.61
7396.21
7395.87
7395.45
7395.07
7394.46
7394.21
7393.97
7393.66
7393.34
7393.01
7392.68
7392.36
7392.05
7391.73
7391.41
7391.08
7390.75
7390.41
7390.07
7389.73
7389.38
7389.03
7388.67
7388.31
7387.95
7387.59
7387.22
7386.85
7386.48
7386.11
7385.74
7385.36
7384.99
7384.61
7384.23
7383.85
7383.46
7383.08
7382.7
7382.31
7381.92
7381.54
7381.15
7380.76
7380.37
7379.98
7379.59
7379.2
7378.81
7378.42
7378.03
7377.64
7377.25
7376.86
7376.47
7376.07
7375.68
7375.29
7374.9
7374.51
7374.12
7373.72
7373.33
7372.94
7372.55
7372.16
7371.77
7371.38
7370.99
7370.6
7370.21
7369.82
7369.43
7369.04
7368.65
7368.26
7367.87
7367.49
7367.1
7366.71
7366.33
7365.94
7365.56
7365.17
7364.79
7364.4
7364.02
7363.63
7363.26
7362.86
7362.54
7361.97
7375.6
7392.89
7399.62
7408.29
7417.27
7426.25
7435.25
7444.24
7453.17
7462.05
7470.89
7479.68
7488.34
7496.87
7505.23
7513.45
7521.57
7529.47
7537.38
7545.33
7553.45
7561.83
7570.32
7578.77
7587.08
7595.24
7603.25
7611.13
7618.91
7626.61
7634.22
7641.76
7649.24
7656.66
7663.99
7671.26
7678.48
7685.6
7692.65
7699.64
7706.55
7713.35
7720.09
7726.76
7733.36
7739.89
7746.34
7752.68
7758.93
7765.13
7771.26
7777.3
7783.28
7789.17
7794.98
7800.72
7806.38
7811.97
7817.49
7822.97
7828.36
7833.67
7838.91
7844.09
7849.19
7854.2
7859.12
7864
7868.81
7873.6
7878.31
7882.92
7887.45
7891.93
7896.26
7900.41
7904.4
7908.12
7911.65
7915.27
7918.72
7921.44
7923.31
7925.79
7928.92
7934.88
7943.96
7949.68
7943.27
7921.82
7945.39
7950.16
7951.12
7955.78
7957.69
7957.7
7962.33
7964.91
7967.18
7969.66
7970.76
7972.45
7973.5
7972.58
7973.04
7971.93
7974.39
7976.29
7984.26
7983.38
7970.45
7969.37
7967
7965.97
7966.11
7963.7
7959.46
7955.15
7950.58
7946.15
7941.1
7935.15
7928.39
7921.86
7914.27
7910.06
7901.02
7886
7875.69
7863.79
7852.16
7840.76
7827.99
7814.05
7799.7
7784.89
7769.69
7753.87
7737.75
7720.94
7703.54
7685.63
7667.27
7648.5
7629.39
7609.95
7590.21
7570.22
7550.03
7529.71
7509.29
7488.81
7468.31
7447.84
7427.47
7407.22
7387.14
7367.27
7347.64
7328.28
7309.25
7290.57
7272.27
7254.4
7236.95
7219.96
7203.45
7187.46
7171.99
7157.05
7142.66
7128.83
7115.55
7102.83
7090.66
7079.05
7067.98
7057.44
7047.39
7037.84
7028.75
7020.11
7011.88
7004.04
6996.56
6989.42
6982.59
6976.03
6969.72
6963.65
6957.79
6952.13
6946.67
6941.42
6936.41
6931.64
6927.15
6922.94
6919.04
6915.44
6912.17
6909.23
6906.61
6904.32
6902.38
6900.76
6899.47
6898.51
6897.86
6897.53
6897.51
6897.8
6898.37
6899.23
6900.36
6901.75
6903.4
6905.3
6907.42
6909.77
6912.33
6915.08
6918.03
6921.16
6924.46
6927.9
6931.49
6935.21
6939.06
6943.03
6947.1
6951.27
6955.52
6959.85
6964.24
6968.7
6973.21
6977.76
6982.35
6986.98
6991.63
6996.3
7000.98
7005.67
7010.36
7015.06
7019.76
7024.44
7029.12
7033.77
7038.41
7043.02
7047.62
7052.19
7056.73
7061.24
7065.72
7070.17
7074.59
7078.97
7083.31
7087.61
7091.87
7096.09
7100.28
7104.41
7108.5
7112.54
7116.54
7120.49
7124.38
7128.23
7132.02
7135.76
7139.45
7143.07
7146.64
7150.15
7153.59
7156.98
7160.3
7163.56
7166.75
7169.87
7172.92
7175.9
7178.82
7181.67
7184.44
7187.15
7189.78
7192.34
7194.82
7197.24
7199.58
7201.85
7204.05
7206.18
7208.24
7210.23
7212.15
7214.01
7215.8
7217.53
7219.21
7220.82
7222.39
7223.9
7225.36
7226.78
7228.16
7229.49
7230.79
7232.06
7233.3
7234.51
7235.69
7236.85
7237.98
7239.08
7240.16
7241.19
7242.19
7243.15
7244.06
7244.93
7245.75
7246.53
7247.25
7247.92
7248.53
7249.1
7249.61
7250.07
7250.47
7250.83
7251.13
7251.38
7251.58
7251.73
7251.84
7251.89
7251.91
7251.88
7251.8
7251.69
7251.54
7251.35
7251.13
7250.88
7250.59
7250.27
7249.93
7249.56
7249.17
7248.75
7248.31
7247.86
7247.38
7246.89
7246.38
7245.87
7245.33
7244.79
7244.24
7243.67
7243.1
7242.53
7241.94
7241.36
7240.77
7240.17
7239.58
7238.98
7238.38
7237.78
7237.18
7236.58
7235.98
7235.38
7234.79
7234.2
7233.61
7233.02
7232.43
7231.85
7231.28
7230.7
7230.13
7229.57
7229
7228.45
7227.89
7227.34
7226.8
7226.26
7225.72
7225.19
7224.66
7224.13
7223.62
7223.1
7222.59
7222.08
7221.58
7221.08
7220.59
7220.1
7219.62
7219.15
7218.67
7218.21
7217.72
7217.26
7216.77
7216.33
7215.89
7215.45
7214.98
7214.55
7213.98
7213.56
7213.31
7212.9
7212.56
7212.16
7211.78
7211.39
7211.05
7210.66
7210.31
7209.94
7209.57
7209.24
7208.86
7208.51
7208.1
7207.75
7207.26
7206.91
7206.63
7206.28
7205.94
7205.58
7205.2
7204.85
7204.49
7204.14
7203.77
7203.42
7203.04
7202.68
7202.28
7201.93
7201.57
7201.21
7200.85
7200.44
7200.05
7199.43
7199.17
7198.92
7198.6
7198.26
7197.92
7197.58
7197.24
7196.91
7196.59
7196.26
7195.93
7195.6
7195.27
7194.94
7194.6
7194.26
7193.91
7193.56
7193.21
7192.85
7192.5
7192.14
7191.77
7191.41
7191.04
7190.67
7190.3
7189.93
7189.55
7189.17
7188.8
7188.42
7188.04
7187.65
7187.27
7186.89
7186.5
7186.12
7185.73
7185.34
7184.95
7184.57
7184.18
7183.79
7183.4
7183.01
7182.62
7182.22
7181.83
7181.44
7181.05
7180.66
7180.27
7179.87
7179.48
7179.09
7178.7
7178.31
7177.91
7177.52
7177.13
7176.74
7176.35
7175.96
7175.57
7175.18
7174.78
7174.39
7174
7173.61
7173.23
7172.84
7172.45
7172.06
7171.67
7171.28
7170.9
7170.51
7170.12
7169.74
7169.35
7168.97
7168.58
7168.2
7167.82
7167.43
7167.06
7166.65
7166.34
7165.77
7179.2
7196.53
7203.28
7211.98
7220.97
7229.97
7238.98
7247.97
7256.9
7265.78
7274.61
7283.36
7292
7300.54
7308.98
7317.39
7325.64
7333.74
7341.92
7350.12
7358.36
7366.65
7374.96
7383.24
7391.44
7399.53
7407.53
7415.41
7423.22
7430.95
7438.59
7446.16
7453.67
7461.09
7468.44
7475.73
7482.96
7490.11
7497.17
7504.15
7511.04
7517.85
7524.59
7531.26
7537.86
7544.39
7550.83
7557.18
7563.44
7569.64
7575.76
7581.82
7587.8
7593.69
7599.48
7605.21
7610.88
7616.45
7621.98
7627.45
7632.83
7638.13
7643.36
7648.52
7653.6
7658.59
7663.5
7668.33
7673.08
7677.78
7682.41
7686.94
7691.39
7695.76
7700
7704.08
7708
7711.8
7715.47
7719.04
7722.36
7725.49
7728.76
7732.07
7735.15
7737.88
7740.76
7743.7
7746.91
7755.1
7763.9
7757.29
7730.78
7757.26
7763.01
7762.82
7767.26
7768.17
7767.4
7771.45
7773.06
7774.43
7776.03
7776.55
7777.86
7778.05
7777.4
7777.61
7776.94
7778.35
7778.52
7788.75
7785.58
7769.82
7767.51
7764.02
7761.91
7760.88
7756.99
7751.01
7744.91
7738.68
7732.59
7725.95
7718.28
7709.77
7701.62
7692.3
7686.91
7676.16
7658.82
7646.95
7633.04
7620.07
7606.44
7592.88
7578.04
7561.66
7545.05
7527.82
7510.2
7492.31
7473.86
7454.94
7435.58
7415.9
7395.93
7375.75
7355.38
7334.85
7314.21
7293.51
7272.79
7252.13
7231.56
7211.12
7190.84
7170.78
7150.98
7131.47
7112.28
7093.45
7075.02
7057.01
7039.44
7022.35
7005.74
6989.67
6974.12
6959.11
6944.66
6930.77
6917.44
6904.67
6892.46
6880.8
6869.68
6859.09
6848.99
6839.39
6830.25
6821.54
6813.26
6805.35
6797.82
6790.62
6783.73
6777.14
6770.8
6764.71
6758.84
6753.18
6747.74
6742.52
6737.54
6732.81
6728.34
6724.16
6720.28
6716.72
6713.48
6710.56
6707.98
6705.74
6703.84
6702.27
6701.03
6700.11
6699.52
6699.25
6699.3
6699.64
6700.28
6701.19
6702.39
6703.85
6705.56
6707.53
6709.72
6712.13
6714.75
6717.57
6720.59
6723.78
6727.14
6730.65
6734.3
6738.09
6741.99
6746.01
6750.14
6754.36
6758.67
6763.04
6767.49
6771.99
6776.54
6781.14
6785.77
6790.43
6795.11
6799.81
6804.52
6809.24
6813.96
6818.69
6823.4
6828.11
6832.8
6837.47
6842.12
6846.75
6851.36
6855.94
6860.5
6865.02
6869.51
6873.97
6878.4
6882.78
6887.13
6891.44
6895.71
6899.93
6904.12
6908.27
6912.36
6916.41
6920.41
6924.36
6928.26
6932.11
6935.91
6939.65
6943.34
6946.97
6950.54
6954.05
6957.5
6960.89
6964.21
6967.47
6970.66
6973.79
6976.84
6979.83
6982.75
6985.6
6988.37
6991.08
6993.71
6996.27
6998.76
7001.17
7003.52
7005.79
7007.99
7010.12
7012.18
7014.18
7016.1
7017.96
7019.76
7021.5
7023.18
7024.81
7026.38
7027.9
7029.37
7030.8
7032.18
7033.53
7034.84
7036.12
7037.37
7038.59
7039.78
7040.94
7042.08
7043.19
7044.26
7045.3
7046.31
7047.27
7048.19
7049.06
7049.89
7050.66
7051.39
7052.06
7052.68
7053.24
7053.75
7054.21
7054.61
7054.96
7055.26
7055.51
7055.7
7055.85
7055.95
7056
7056
7055.97
7055.89
7055.77
7055.61
7055.41
7055.18
7054.92
7054.62
7054.3
7053.94
7053.57
7053.16
7052.74
7052.29
7051.82
7051.34
7050.84
7050.33
7049.8
7049.26
7048.71
7048.15
7047.58
7047
7046.42
7045.83
7045.24
7044.64
7044.04
7043.44
7042.84
7042.23
7041.63
7041.03
7040.42
7039.82
7039.22
7038.63
7038.03
7037.44
7036.85
7036.26
7035.68
7035.1
7034.53
7033.95
7033.39
7032.82
7032.27
7031.71
7031.16
7030.61
7030.07
7029.53
7029
7028.47
7027.95
7027.42
7026.91
7026.4
7025.89
7025.39
7024.89
7024.41
7023.92
7023.44
7022.94
7022.48
7021.98
7021.52
7021.07
7020.63
7020.14
7019.7
7019.1
7018.67
7018.42
7018
7017.65
7017.23
7016.84
7016.44
7016.08
7015.68
7015.32
7014.93
7014.57
7014.2
7013.84
7013.44
7013.08
7012.6
7012.24
7012.01
7011.63
7011.33
7010.94
7010.6
7010.21
7009.86
7009.49
7009.14
7008.77
7008.41
7008.03
7007.66
7007.27
7006.92
7006.57
7006.2
7005.88
7005.44
7005.04
7004.41
7004.16
7003.91
7003.58
7003.23
7002.89
7002.53
7002.18
7001.84
7001.51
7001.17
7000.83
7000.49
7000.16
6999.82
6999.48
6999.14
6998.8
6998.45
6998.11
6997.76
6997.4
6997.05
6996.69
6996.33
6995.96
6995.6
6995.23
6994.86
6994.49
6994.12
6993.74
6993.37
6992.99
6992.61
6992.23
6991.85
6991.46
6991.08
6990.7
6990.31
6989.92
6989.54
6989.15
6988.76
6988.37
6987.98
6987.59
6987.2
6986.81
6986.42
6986.03
6985.64
6985.24
6984.85
6984.46
6984.07
6983.67
6983.28
6982.89
6982.5
6982.11
6981.71
6981.32
6980.93
6980.54
6980.15
6979.75
6979.36
6978.97
6978.58
6978.19
6977.8
6977.41
6977.02
6976.63
6976.24
6975.85
6975.47
6975.08
6974.69
6974.31
6973.92
6973.53
6973.15
6972.76
6972.38
6971.99
6971.61
6971.22
6970.85
6970.45
6970.13
6969.56
6982.75
7000.14
7006.93
7015.64
7024.66
7033.68
7042.7
7051.71
7060.66
7069.55
7078.37
7087.12
7095.78
7104.36
7112.86
7121.33
7129.69
7137.98
7146.31
7154.62
7162.92
7171.21
7179.49
7187.73
7195.89
7203.97
7211.96
7219.86
7227.68
7235.42
7243.09
7250.69
7258.21
7265.65
7273.02
7280.32
7287.56
7294.71
7301.79
7308.78
7315.68
7322.5
7329.24
7335.92
7342.53
7349.05
7355.5
7361.85
7368.11
7374.3
7380.43
7386.48
7392.47
7398.36
7404.14
7409.85
7415.54
7421.11
7426.62
7432.08
7437.45
7442.75
7447.96
7453.1
7458.17
7463.14
7468.03
7472.83
7477.54
7482.16
7486.71
7491.17
7495.54
7499.84
7504.03
7508.09
7512
7515.78
7519.42
7522.96
7526.43
7529.8
7533.08
7536.19
7539.26
7542.32
7545.44
7548.62
7551.47
7553.88
7556.2
7558.71
7567.02
7576.37
7569.07
7539.66
7567.66
7574.26
7571.7
7575.42
7576.26
7573.47
7576.93
7577.63
7578.44
7578.98
7579.62
7579.98
7580.97
7581.47
7579.92
7579.55
7578.58
7578.11
7588.81
7584.13
7565.4
7561.77
7556.92
7553.44
7551.18
7545.76
7538.02
7530.1
7522.22
7514.46
7506.22
7496.79
7486.59
7476.82
7465.84
7459.36
7446.76
7427.68
7413.49
7398.64
7383.72
7368.05
7352.88
7336.12
7318.06
7299.65
7280.8
7261.62
7242.26
7222.45
7202.25
7181.74
7161.09
7140.29
7119.4
7098.44
7077.47
7056.55
7035.72
7015.03
6994.51
6974.22
6954.19
6934.47
6915.09
6896.08
6877.47
6859.29
6841.57
6824.34
6807.62
6791.42
6775.76
6760.66
6746.11
6732.13
6718.71
6705.86
6693.57
6681.83
6670.62
6659.94
6649.76
6640.07
6630.85
6622.06
6613.69
6605.71
6598.1
6590.84
6583.9
6577.26
6570.89
6564.78
6558.92
6553.28
6547.88
6542.7
6537.77
6533.09
6528.69
6524.56
6520.73
6517.22
6514.03
6511.18
6508.66
6506.47
6504.63
6503.12
6501.95
6501.11
6500.59
6500.4
6500.53
6500.95
6501.67
6502.67
6503.95
6505.49
6507.29
6509.34
6511.62
6514.11
6516.82
6519.73
6522.83
6526.1
6529.54
6533.13
6536.86
6540.72
6544.71
6548.8
6552.99
6557.28
6561.65
6566.09
6570.59
6575.15
6579.76
6584.4
6589.08
6593.79
6598.52
6603.26
6608.01
6612.76
6617.52
6622.27
6627.01
6631.74
6636.45
6641.15
6645.82
6650.47
6655.1
6659.69
6664.26
6668.8
6673.3
6677.77
6682.21
6686.6
6690.96
6695.28
6699.55
6703.79
6707.98
6712.13
6716.24
6720.29
6724.3
6728.25
6732.16
6736.02
6739.82
6743.57
6747.26
6750.89
6754.47
6757.99
6761.44
6764.83
6768.16
6771.42
6774.61
6777.74
6780.8
6783.79
6786.71
6789.56
6792.34
6795.05
6797.68
6800.24
6802.74
6805.15
6807.5
6809.78
6811.98
6814.12
6816.18
6818.18
6820.12
6821.98
6823.79
6825.54
6827.23
6828.86
6830.45
6831.98
6833.46
6834.9
6836.3
6837.66
6838.99
6840.28
6841.54
6842.77
6843.97
6845.14
6846.29
6847.4
6848.48
6849.53
6850.53
6851.5
6852.42
6853.3
6854.13
6854.9
6855.63
6856.3
6856.92
6857.48
6857.99
6858.45
6858.85
6859.19
6859.49
6859.73
6859.91
6860.05
6860.14
6860.19
6860.18
6860.13
6860.04
6859.91
6859.74
6859.54
6859.29
6859.02
6858.71
6858.37
6858.01
6857.62
6857.21
6856.77
6856.31
6855.83
6855.34
6854.83
6854.3
6853.77
6853.22
6852.66
6852.09
6851.51
6850.93
6850.33
6849.74
6849.14
6848.53
6847.93
6847.32
6846.71
6846.1
6845.49
6844.89
6844.28
6843.67
6843.07
6842.47
6841.87
6841.28
6840.69
6840.1
6839.51
6838.93
6838.35
6837.78
6837.21
6836.65
6836.08
6835.53
6834.97
6834.43
6833.88
6833.34
6832.8
6832.28
6831.75
6831.23
6830.71
6830.2
6829.69
6829.2
6828.68
6828.2
6827.69
6827.21
6826.78
6826.3
6825.87
6825.34
6824.91
6824.28
6823.85
6823.59
6823.16
6822.79
6822.37
6821.97
6821.55
6821.18
6820.77
6820.4
6819.99
6819.62
6819.25
6818.88
6818.48
6818.11
6817.63
6817.26
6817.04
6816.66
6816.36
6815.96
6815.63
6815.23
6814.88
6814.5
6814.15
6813.78
6813.42
6813.03
6812.67
6812.25
6811.92
6811.54
6811.19
6810.8
6810.4
6809.79
6809.54
6809.29
6808.97
6808.63
6808.26
6807.9
6807.53
6807.17
6806.82
6806.48
6806.13
6805.78
6805.44
6805.09
6804.74
6804.4
6804.06
6803.71
6803.36
6803.02
6802.67
6802.32
6801.96
6801.61
6801.25
6800.89
6800.53
6800.16
6799.8
6799.43
6799.06
6798.69
6798.31
6797.94
6797.56
6797.19
6796.81
6796.43
6796.04
6795.66
6795.28
6794.89
6794.51
6794.12
6793.73
6793.34
6792.96
6792.57
6792.18
6791.79
6791.4
6791
6790.61
6790.22
6789.83
6789.44
6789.04
6788.65
6788.26
6787.87
6787.47
6787.08
6786.69
6786.3
6785.9
6785.51
6785.12
6784.73
6784.33
6783.94
6783.55
6783.16
6782.77
6782.38
6781.99
6781.6
6781.21
6780.82
6780.43
6780.04
6779.65
6779.26
6778.87
6778.49
6778.1
6777.71
6777.33
6776.94
6776.56
6776.17
6775.79
6775.4
6775.02
6774.64
6774.24
6773.93
6773.36
6786.25
6803.72
6810.55
6819.29
6828.34
6837.4
6846.45
6855.48
6864.45
6873.37
6882.22
6890.99
6899.69
6908.3
6916.86
6925.4
6933.82
6942.24
6950.67
6959.06
6967.42
6975.74
6984.02
6992.25
7000.42
7008.5
7016.5
7024.41
7032.24
7040.01
7047.71
7055.34
7062.88
7070.34
7077.73
7085.04
7092.27
7099.44
7106.54
7113.55
7120.47
7127.3
7134.05
7140.74
7147.35
7153.89
7160.35
7166.7
7172.95
7179.13
7185.27
7191.33
7197.32
7203.23
7209.02
7214.72
7220.37
7225.96
7231.45
7236.89
7242.25
7247.54
7252.73
7257.85
7262.89
7267.84
7272.71
7277.48
7282.14
7286.7
7291.18
7295.59
7299.92
7304.16
7308.3
7312.35
7316.21
7319.99
7323.65
7327.21
7330.66
7334.04
7337.33
7340.53
7343.66
7346.68
7349.66
7352.69
7355.62
7358.38
7361.05
7363.46
7365.6
7367.65
7369.84
7377.8
7387.18
7378.95
7346.67
7375.87
7383.2
7378.72
7381.84
7382.51
7378.42
7381.39
7382.13
7382.38
7383
7383.05
7382.72
7382.89
7382.07
7379.45
7377.95
7375.61
7374.27
7385.29
7378.98
7356.8
7351.54
7345.16
7340.21
7336.69
7329.59
7319.94
7310.23
7300.41
7291.34
7281.46
7270.54
7259.42
7247.1
7235.54
7222.98
7214.36
7199.85
7177.37
7161
7142.98
7125.3
7108.18
7089.5
7069.66
7049.6
7029.29
7008.75
6988.17
6967.3
6946.14
6924.86
6903.56
6882.26
6861.04
6839.91
6818.9
6798.08
6777.49
6757.21
6737.24
6717.63
6698.39
6679.56
6661.18
6643.27
6625.86
6608.97
6592.62
6576.81
6561.55
6546.86
6532.75
6519.21
6506.24
6493.83
6481.96
6470.64
6459.83
6449.54
6439.73
6430.39
6421.5
6413.03
6404.97
6397.28
6389.95
6382.96
6376.28
6369.89
6363.78
6357.92
6352.32
6346.97
6341.86
6337.01
6332.41
6328.09
6324.04
6320.3
6316.87
6313.77
6311
6308.57
6306.47
6304.71
6303.29
6302.21
6301.46
6301.05
6300.96
6301.18
6301.7
6302.52
6303.63
6305.01
6306.67
6308.58
6310.73
6313.11
6315.71
6318.53
6321.55
6324.74
6328.11
6331.65
6335.33
6339.16
6343.12
6347.2
6351.38
6355.66
6360.02
6364.47
6368.98
6373.56
6378.19
6382.86
6387.57
6392.31
6397.07
6401.85
6406.64
6411.43
6416.23
6421.02
6425.81
6430.58
6435.34
6440.08
6444.8
6449.5
6454.17
6458.82
6463.43
6468.02
6472.57
6477.09
6481.57
6486.02
6490.42
6494.79
6499.12
6503.41
6507.65
6511.85
6516.01
6520.12
6524.19
6528.2
6532.17
6536.08
6539.94
6543.75
6547.51
6551.2
6554.84
6558.42
6561.95
6565.41
6568.8
6572.13
6575.4
6578.6
6581.73
6584.8
6587.79
6590.71
6593.57
6596.35
6599.06
6601.7
6604.27
6606.77
6609.19
6611.54
6613.82
6616.03
6618.18
6620.25
6622.26
6624.2
6626.08
6627.9
6629.66
6631.37
6633.02
6634.61
6636.16
6637.66
6639.12
6640.54
6641.91
6643.26
6644.56
6645.83
6647.08
6648.29
6649.47
6650.62
6651.74
6652.82
6653.87
6654.88
6655.85
6656.77
6657.65
6658.48
6659.26
6659.98
6660.65
6661.27
6661.83
6662.34
6662.79
6663.18
6663.52
6663.81
6664.04
6664.22
6664.35
6664.43
6664.46
6664.44
6664.38
6664.28
6664.13
6663.95
6663.73
6663.47
6663.18
6662.86
6662.51
6662.13
6661.73
6661.3
6660.85
6660.38
6659.88
6659.38
6658.85
6658.31
6657.76
6657.2
6656.63
6656.05
6655.46
6654.87
6654.27
6653.66
6653.06
6652.44
6651.83
6651.22
6650.6
6649.98
6649.37
6648.76
6648.15
6647.54
6646.93
6646.32
6645.72
6645.12
6644.53
6643.94
6643.35
6642.77
6642.19
6641.61
6641.04
6640.47
6639.91
6639.35
6638.8
6638.24
6637.7