/*--------------------------------*- C++ -*----------------------------------*\
| =========                 |                                                 |
| \\      /  F ield         | OpenFOAM: The Open Source CFD Toolbox           |
|  \\    /   O peration     | Version:  v2006                                 |
|   \\  /    A nd           | Website:  www.openfoam.com                      |
|    \\/     M anipulation  |                                                 |
\*---------------------------------------------------------------------------*/
FoamFile
{
    version     2.0;
    format      ascii;
    class       volScalarField;
    location    "5.1";
    object      p_rgh;
}
// * * * * * * * * * * * * * * * * * * * * * * * * * * * * * * * * * * * * * //

dimensions      [1 -1 -2 0 0 0 0];


internalField   nonuniform List<scalar> 
33000
(
8062.64
8079.85
8086.55
8095.19
8104.15
8113.13
8122.14
8131.16
8140.19
8149.24
8158.36
8167.59
8176.91
8186.21
8195.24
8203.63
8211.24
8218.04
8224.36
8230.81
8238.19
8246.79
8255.69
8264.52
8272.97
8281.04
8289.01
8296.81
8304.53
8312.21
8319.83
8327.39
8334.86
8342.25
8349.51
8356.75
8363.94
8371.06
8378.08
8384.98
8391.91
8398.81
8405.59
8412.28
8418.83
8425.25
8431.7
8438.12
8444.45
8450.67
8456.79
8462.8
8468.76
8474.7
8480.54
8486.3
8491.97
8497.59
8503.13
8508.59
8513.97
8519.26
8524.43
8529.64
8534.83
8539.91
8544.95
8549.97
8554.96
8559.92
8564.89
8569.89
8574.95
8580.11
8585.47
8590.96
8596.68
8601.45
8597.92
8583.83
8601.75
8603.27
8606.51
8611.37
8613.12
8615.13
8619.95
8622.56
8626.69
8629.5
8632.9
8636.1
8639.21
8642.66
8646.58
8650.24
8655.11
8658.76
8666.16
8667.36
8661.26
8662.3
8662.06
8661.93
8662.85
8662.22
8661.01
8659.77
8658.91
8658.44
8657.24
8656.22
8654.8
8652.86
8651.17
8648.7
8648.19
8644.5
8637.01
8632.65
8626.71
8620.2
8613.71
8606.16
8597.45
8588.53
8578.93
8568.77
8558.17
8546.89
8534.92
8522.47
8509.39
8495.79
8481.63
8466.98
8451.79
8436.05
8419.78
8403.01
8385.75
8368.03
8349.91
8331.4
8312.51
8293.34
8273.91
8254.25
8234.38
8214.37
8194.24
8174.09
8153.94
8133.8
8113.72
8093.75
8073.94
8054.34
8034.97
8015.87
7997.06
7978.6
7960.5
7942.78
7925.5
7908.68
7892.31
7876.43
7861.06
7846.22
7831.91
7818.13
7804.89
7792.21
7780.09
7768.51
7757.46
7746.94
7736.92
7727.42
7718.38
7709.79
7701.61
7693.85
7686.45
7679.36
7672.59
7666.1
7659.86
7653.85
7648.03
7642.38
7636.91
7631.66
7626.66
7621.9
7617.41
7613.21
7609.29
7605.68
7602.38
7599.4
7596.76
7594.45
7592.45
7590.78
7589.42
7588.39
7587.68
7587.28
7587.18
7587.37
7587.85
7588.63
7589.67
7590.97
7592.51
7594.3
7596.33
7598.59
7601.06
7603.73
7606.58
7609.59
7612.79
7616.15
7619.65
7623.29
7627.06
7630.94
7634.92
7639
7643.18
7647.44
7651.77
7656.15
7660.6
7665.09
7669.62
7674.2
7678.79
7683.41
7688.05
7692.71
7697.37
7702.03
7706.68
7711.33
7715.98
7720.61
7725.23
7729.82
7734.4
7738.94
7743.47
7747.97
7752.44
7756.87
7761.27
7765.64
7769.96
7774.26
7778.51
7782.73
7786.89
7791.02
7795.1
7799.13
7803.13
7807.07
7810.96
7814.8
7818.58
7822.32
7826
7829.62
7833.18
7836.69
7840.13
7843.51
7846.83
7850.08
7853.27
7856.39
7859.44
7862.43
7865.34
7868.19
7870.96
7873.66
7876.29
7878.85
7881.34
7883.75
7886.09
7888.36
7890.56
7892.69
7894.75
7896.73
7898.65
7900.51
7902.3
7904.03
7905.69
7907.3
7908.86
7910.36
7911.81
7913.22
7914.58
7915.91
7917.19
7918.45
7919.67
7920.86
7922.03
7923.18
7924.3
7925.39
7926.45
7927.48
7928.47
7929.41
7930.32
7931.17
7931.98
7932.75
7933.46
7934.13
7934.74
7935.3
7935.81
7936.27
7936.68
7937.03
7937.34
7937.59
7937.8
7937.96
7938.07
7938.14
7938.16
7938.14
7938.08
7937.98
7937.85
7937.67
7937.46
7937.22
7936.95
7936.64
7936.31
7935.96
7935.58
7935.18
7934.75
7934.31
7933.85
7933.37
7932.87
7932.36
7931.84
7931.3
7930.76
7930.21
7929.65
7929.08
7928.51
7927.93
7927.35
7926.77
7926.18
7925.59
7924.99
7924.4
7923.81
7923.21
7922.62
7922.02
7921.43
7920.84
7920.26
7919.67
7919.09
7918.51
7917.94
7917.37
7916.8
7916.24
7915.68
7915.12
7914.57
7914.02
7913.48
7912.94
7912.41
7911.87
7911.35
7910.83
7910.31
7909.79
7909.28
7908.78
7908.28
7907.78
7907.29
7906.8
7906.31
7905.83
7905.36
7904.88
7904.41
7903.95
7903.48
7903.02
7902.57
7902.12
7901.67
7901.23
7900.8
7900.36
7899.93
7899.5
7899.08
7898.69
7898.28
7897.87
7897.52
7897.03
7896.68
7896.45
7896.09
7895.78
7895.42
7895.08
7894.72
7894.35
7893.99
7893.61
7893.24
7892.85
7892.48
7892.11
7891.73
7891.35
7891
7890.56
7890.21
7889.95
7889.59
7889.28
7888.91
7888.57
7888.19
7887.84
7887.45
7887.08
7886.7
7886.32
7885.93
7885.56
7885.15
7884.8
7884.44
7884.07
7883.7
7883.37
7882.83
7882.61
7882.38
7882.1
7881.81
7881.51
7881.19
7880.86
7880.53
7880.19
7879.85
7879.5
7879.15
7878.79
7878.43
7878.07
7877.71
7877.34
7876.97
7876.6
7876.23
7875.85
7875.47
7875.1
7874.72
7874.34
7873.96
7873.57
7873.19
7872.8
7872.42
7872.03
7871.65
7871.26
7870.87
7870.48
7870.09
7869.7
7869.31
7868.92
7868.53
7868.14
7867.75
7867.36
7866.97
7866.58
7866.18
7865.79
7865.4
7865.01
7864.62
7864.23
7863.83
7863.44
7863.05
7862.66
7862.27
7861.88
7861.49
7861.1
7860.71
7860.32
7859.93
7859.54
7859.15
7858.77
7858.38
7857.99
7857.6
7857.22
7856.83
7856.45
7856.06
7855.68
7855.29
7854.91
7854.52
7854.14
7853.76
7853.36
7853.05
7852.48
8062.57
8079.79
8086.49
8095.14
8104.1
8113.08
8122.09
8131.1
8140.09
8149.08
8158.1
8167.08
8176.09
8184.93
8193.41
8201.39
8208.7
8215.31
8221.5
8227.99
8235.47
8244.24
8254.21
8263.98
8272.94
8281.27
8289.29
8297.09
8304.74
8312.4
8320.04
8327.58
8335.05
8342.42
8349.63
8356.87
8364.09
8371.24
8378.26
8385.1
8392
8398.9
8405.79
8412.5
8419.05
8425.37
8431.79
8438.16
8444.59
8450.88
8456.99
8462.95
8468.85
8474.8
8480.71
8486.47
8492.14
8497.74
8503.28
8508.77
8514.15
8519.34
8524.5
8529.69
8534.91
8540.05
8544.97
8549.9
8554.91
8559.91
8564.82
8569.65
8574.48
8579.11
8583.72
8588.15
8592.43
8596.57
8600.42
8606.43
8612.75
8607.62
8589.61
8610.56
8614.26
8616.12
8622.17
8623.33
8626.81
8627.31
8632.13
8635.12
8638.49
8642.07
8645.4
8648.45
8652.3
8655.15
8659
8660.57
8661.98
8668.81
8668.19
8659.36
8659.87
8659.03
8660.18
8660.05
8661.34
8660.82
8658.32
8656.65
8654.67
8652.52
8650.71
8648.29
8645.57
8642.36
8637.96
8636.04
8630.47
8620.28
8613.73
8605.74
8597.67
8589.53
8580.26
8569.74
8558.98
8547.52
8535.53
8523.19
8510.23
8496.62
8482.42
8467.71
8452.49
8436.76
8420.51
8403.74
8386.44
8368.71
8350.56
8332.01
8313.07
8293.85
8274.37
8254.68
8234.77
8214.68
8194.49
8174.29
8154.1
8133.92
8113.79
8093.76
8073.91
8054.25
8034.85
8015.71
7996.87
7978.38
7960.24
7942.49
7925.19
7908.35
7891.97
7876.04
7860.66
7845.82
7831.5
7817.71
7804.44
7791.77
7779.66
7768.09
7757.02
7746.49
7736.48
7726.97
7717.93
7709.32
7701.14
7693.38
7685.99
7678.89
7672.1
7665.6
7659.36
7653.35
7647.52
7641.86
7636.37
7631.12
7626.09
7621.32
7616.85
7612.65
7608.72
7605.09
7601.79
7598.82
7596.19
7593.89
7591.9
7590.22
7588.87
7587.85
7587.16
7586.78
7586.68
7586.87
7587.37
7588.16
7589.24
7590.56
7592.11
7593.9
7595.95
7598.22
7600.72
7603.41
7606.27
7609.29
7612.5
7615.87
7619.39
7623.06
7626.85
7630.74
7634.72
7638.82
7643
7647.27
7651.62
7656.03
7660.49
7664.98
7669.52
7674.11
7678.7
7683.33
7687.98
7692.64
7697.32
7701.98
7706.64
7711.29
7715.94
7720.59
7725.21
7729.81
7734.38
7738.93
7743.46
7747.96
7752.42
7756.87
7761.27
7765.64
7769.97
7774.26
7778.52
7782.74
7786.9
7791.02
7795.1
7799.14
7803.15
7807.09
7810.98
7814.82
7818.6
7822.33
7826.01
7829.64
7833.21
7836.71
7840.16
7843.54
7846.86
7850.11
7853.29
7856.41
7859.47
7862.46
7865.37
7868.22
7870.99
7873.69
7876.32
7878.88
7881.37
7883.78
7886.12
7888.39
7890.59
7892.71
7894.77
7896.76
7898.68
7900.53
7902.32
7904.05
7905.72
7907.33
7908.89
7910.39
7911.85
7913.26
7914.62
7915.94
7917.23
7918.49
7919.71
7920.91
7922.08
7923.23
7924.35
7925.45
7926.51
7927.54
7928.53
7929.48
7930.39
7931.25
7932.06
7932.83
7933.54
7934.21
7934.82
7935.38
7935.89
7936.35
7936.76
7937.11
7937.42
7937.67
7937.88
7938.04
7938.15
7938.22
7938.24
7938.21
7938.15
7938.05
7937.91
7937.73
7937.52
7937.28
7937
7936.7
7936.37
7936.01
7935.62
7935.22
7934.79
7934.35
7933.88
7933.4
7932.9
7932.39
7931.87
7931.34
7930.79
7930.24
7929.68
7929.11
7928.53
7927.95
7927.37
7926.78
7926.19
7925.6
7925.01
7924.41
7923.82
7923.22
7922.63
7922.03
7921.44
7920.85
7920.27
7919.68
7919.1
7918.52
7917.94
7917.37
7916.8
7916.24
7915.68
7915.12
7914.57
7914.03
7913.48
7912.94
7912.41
7911.88
7911.35
7910.83
7910.31
7909.79
7909.28
7908.78
7908.28
7907.78
7907.29
7906.8
7906.31
7905.84
7905.36
7904.89
7904.41
7903.95
7903.48
7903.03
7902.57
7902.13
7901.67
7901.23
7900.78
7900.35
7899.94
7899.53
7899.09
7898.69
7898.17
7897.78
7897.55
7897.16
7896.85
7896.51
7896.16
7895.82
7895.46
7895.11
7894.73
7894.37
7893.98
7893.62
7893.25
7892.88
7892.48
7892.11
7891.65
7891.29
7891.02
7890.66
7890.33
7890
7889.64
7889.3
7888.93
7888.58
7888.21
7887.84
7887.47
7887.08
7886.71
7886.29
7885.94
7885.56
7885.21
7884.81
7884.44
7883.85
7883.6
7883.38
7883.08
7882.79
7882.49
7882.19
7881.88
7881.56
7881.23
7880.9
7880.56
7880.22
7879.87
7879.52
7879.17
7878.81
7878.45
7878.08
7877.72
7877.35
7876.98
7876.61
7876.23
7875.86
7875.48
7875.1
7874.72
7874.34
7873.96
7873.58
7873.19
7872.81
7872.42
7872.04
7871.65
7871.26
7870.88
7870.49
7870.1
7869.71
7869.32
7868.93
7868.54
7868.14
7867.75
7867.36
7866.97
7866.58
7866.18
7865.79
7865.4
7865.01
7864.62
7864.23
7863.83
7863.44
7863.05
7862.66
7862.27
7861.88
7861.49
7861.1
7860.71
7860.32
7859.93
7859.54
7859.15
7858.76
7858.38
7857.99
7857.6
7857.22
7856.83
7856.44
7856.06
7855.68
7855.29
7854.91
7854.52
7854.14
7853.76
7853.36
7853.05
7852.48
8062.47
8079.72
8086.43
8095.08
8104.05
8113.03
8122.03
8131.02
8139.97
8148.9
8157.81
8166.69
8175.44
8184.05
8192.41
8200.42
8208.11
8215.55
8222.98
8230.63
8238.68
8247.16
8255.83
8264.57
8273.16
8281.49
8289.49
8297.36
8305.14
8312.79
8320.26
8327.79
8335.29
8342.8
8350.13
8357.28
8364.22
8371.33
8378.39
8385.39
8392.33
8399.36
8406.21
8412.9
8419.47
8425.75
8432.08
8438.56
8445.02
8451.27
8457.4
8463.36
8469.15
8475.04
8480.85
8486.73
8492.53
8498.14
8503.67
8509.13
8514.41
8519.5
8524.76
8529.94
8535.22
8540.21
8545.07
8549.99
8554.89
8559.94
8564.83
8569.54
8574.08
8578.59
8583.05
8587.51
8591.74
8595.47
8598.59
8601.04
8604.41
8608.78
8615.35
8622.03
8616.6
8596.85
8617.93
8624.58
8629.43
8630.28
8634.14
8636.97
8636.8
8641.6
8644.83
8647.86
8651.62
8654.09
8656.78
8659.07
8659.58
8661.26
8662.24
8663.21
8671.92
8669.35
8658.86
8657.36
8656.07
8656.86
8656.57
8658
8656.7
8653.84
8650.93
8648.03
8645.15
8641.88
8637.57
8632.68
8627.66
8621.78
8618.79
8611.52
8598.82
8590.24
8580.26
8570.45
8560.74
8549.71
8537.35
8524.74
8511.47
8497.91
8483.87
8469.45
8454.32
8438.47
8422.14
8405.3
8387.96
8370.18
8351.93
8333.23
8314.23
8294.91
8275.37
8255.56
8235.49
8215.28
8195.02
8174.74
8154.46
8134.14
8113.84
8093.74
8073.87
8054.15
8034.6
8015.34
7996.44
7977.92
7959.71
7941.87
7924.51
7907.65
7891.22
7875.22
7859.81
7844.97
7830.62
7816.77
7803.51
7790.82
7778.72
7767.15
7756.07
7745.53
7735.55
7726.03
7716.94
7708.31
7700.13
7692.39
7684.97
7677.87
7671.06
7664.5
7658.19
7652.15
7646.35
7640.71
7635.25
7629.97
7624.91
7620.13
7615.65
7611.47
7607.56
7603.92
7600.62
7597.67
7595.07
7592.76
7590.77
7589.1
7587.78
7586.79
7586.13
7585.76
7585.66
7585.88
7586.45
7587.29
7588.37
7589.72
7591.31
7593.12
7595.19
7597.5
7600.05
7602.76
7605.66
7608.71
7611.94
7615.34
7618.91
7622.6
7626.41
7630.33
7634.34
7638.45
7642.68
7646.99
7651.36
7655.78
7660.25
7664.76
7669.3
7673.9
7678.52
7683.19
7687.87
7692.54
7697.21
7701.89
7706.55
7711.21
7715.87
7720.53
7725.16
7729.77
7734.34
7738.9
7743.45
7747.96
7752.43
7756.86
7761.25
7765.62
7769.98
7774.29
7778.54
7782.76
7786.91
7791.04
7795.13
7799.18
7803.18
7807.13
7811.02
7814.86
7818.65
7822.37
7826.05
7829.68
7833.25
7836.76
7840.21
7843.59
7846.91
7850.15
7853.34
7856.47
7859.53
7862.52
7865.43
7868.27
7871.04
7873.74
7876.38
7878.94
7881.43
7883.84
7886.18
7888.45
7890.65
7892.77
7894.82
7896.82
7898.75
7900.6
7902.39
7904.11
7905.78
7907.4
7908.96
7910.47
7911.92
7913.33
7914.7
7916.03
7917.33
7918.59
7919.82
7921.02
7922.2
7923.35
7924.47
7925.57
7926.64
7927.68
7928.67
7929.63
7930.53
7931.4
7932.22
7932.98
7933.7
7934.37
7934.98
7935.55
7936.06
7936.52
7936.92
7937.28
7937.58
7937.83
7938.04
7938.19
7938.3
7938.36
7938.38
7938.36
7938.29
7938.19
7938.04
7937.86
7937.65
7937.4
7937.12
7936.81
7936.47
7936.11
7935.72
7935.31
7934.88
7934.43
7933.96
7933.48
7932.98
7932.46
7931.94
7931.4
7930.85
7930.29
7929.73
7929.16
7928.58
7927.99
7927.41
7926.82
7926.23
7925.63
7925.04
7924.44
7923.84
7923.25
7922.65
7922.05
7921.46
7920.87
7920.28
7919.7
7919.11
7918.53
7917.96
7917.38
7916.82
7916.25
7915.69
7915.13
7914.58
7914.03
7913.49
7912.95
7912.41
7911.88
7911.35
7910.83
7910.31
7909.8
7909.29
7908.78
7908.28
7907.78
7907.29
7906.8
7906.32
7905.83
7905.36
7904.88
7904.42
7903.95
7903.49
7903.02
7902.57
7902.1
7901.66
7901.24
7900.82
7900.36
7899.94
7899.39
7898.99
7898.75
7898.35
7898.02
7897.64
7897.28
7896.91
7896.57
7896.2
7895.85
7895.48
7895.12
7894.77
7894.4
7894.05
7893.64
7893.28
7892.8
7892.44
7892.17
7891.81
7891.48
7891.12
7890.76
7890.4
7890.06
7889.69
7889.35
7888.97
7888.63
7888.23
7887.87
7887.44
7887.11
7886.71
7886.37
7885.95
7885.57
7884.96
7884.7
7884.46
7884.15
7883.81
7883.49
7883.16
7882.84
7882.53
7882.21
7881.89
7881.56
7881.23
7880.9
7880.56
7880.21
7879.87
7879.52
7879.16
7878.8
7878.44
7878.08
7877.72
7877.35
7876.98
7876.61
7876.24
7875.86
7875.48
7875.11
7874.73
7874.34
7873.96
7873.58
7873.19
7872.81
7872.42
7872.03
7871.65
7871.26
7870.87
7870.48
7870.09
7869.7
7869.31
7868.92
7868.53
7868.14
7867.75
7867.36
7866.97
7866.57
7866.18
7865.79
7865.4
7865.01
7864.62
7864.22
7863.83
7863.44
7863.05
7862.66
7862.27
7861.88
7861.49
7861.1
7860.71
7860.32
7859.93
7859.54
7859.15
7858.76
7858.38
7857.99
7857.6
7857.21
7856.83
7856.44
7856.06
7855.67
7855.29
7854.9
7854.52
7854.13
7853.76
7853.36
7853.04
7852.47
8062.31
8079.59
8086.32
8094.99
8103.97
8112.96
8121.96
8130.94
8139.88
8148.76
8157.59
8166.39
8175.05
8183.58
8191.94
8200.17
8208.29
8216.19
8224.11
8232.05
8240.17
8248.55
8257.03
8265.48
8273.79
8281.95
8289.95
8297.83
8305.61
8313.3
8320.78
8328.23
8335.78
8343.32
8350.68
8357.91
8364.78
8371.78
8378.84
8386.09
8393.14
8399.99
8406.77
8413.46
8420.05
8426.53
8432.81
8439.2
8445.58
8451.83
8457.95
8463.92
8469.63
8475.5
8481.5
8487.37
8493.06
8498.66
8504.19
8509.66
8514.95
8519.96
8525.38
8530.73
8535.76
8540.47
8545.37
8550.25
8555.06
8560.03
8564.97
8569.61
8574.08
8578.32
8582.64
8586.82
8591.01
8594.81
8598.35
8601.96
8605.41
8608.13
8609.89
8612.16
8615.28
8621.24
8630.32
8636.13
8629.89
8608.51
8632.09
8636.86
8637.81
8642.35
8644.15
8644.17
8648.92
8651.59
8653.87
8656.35
8657.44
8659.03
8660.09
8659.24
8659.72
8658.6
8661.07
8662.98
8670.93
8669.93
8656.99
8655.96
8653.68
8652.66
8652.74
8650.26
8646.09
8641.84
8637.27
8632.84
8627.77
8621.83
8615.07
8608.54
8600.9
8596.57
8587.58
8572.66
8562.39
8550.44
8538.7
8527.3
8514.53
8500.59
8486.3
8471.55
8456.35
8440.5
8424.3
8407.48
8390.1
8372.28
8353.93
8335.07
8315.93
8296.52
8276.86
8256.86
8236.56
8216.23
8195.82
8175.46
8154.97
8134.44
8114.01
8093.76
8073.78
8053.95
8034.26
8014.87
7995.83
7977.19
7958.91
7940.99
7923.54
7906.61
7890.12
7874.06
7858.57
7843.64
7829.33
7815.45
7802.14
7789.42
7777.26
7765.68
7754.65
7744.11
7734.06
7724.46
7715.33
7706.69
7698.49
7690.72
7683.26
7676.12
7669.25
7662.63
7656.31
7650.24
7644.4
7638.81
7633.36
7628.11
7623.05
7618.25
7613.76
7609.62
7605.72
7602.11
7598.79
7595.87
7593.29
7591.01
7589.03
7587.4
7586.12
7585.19
7584.55
7584.21
7584.13
7584.41
7584.99
7585.91
7587.05
7588.45
7590.06
7591.92
7594.05
7596.41
7599.02
7601.78
7604.72
7607.84
7611.1
7614.53
7618.12
7621.85
7625.74
7629.71
7633.78
7637.92
7642.16
7646.49
7650.93
7655.39
7659.86
7664.4
7668.99
7673.63
7678.32
7682.99
7687.67
7692.35
7697.02
7701.71
7706.4
7711.09
7715.8
7720.46
7725.09
7729.68
7734.28
7738.88
7743.43
7747.94
7752.41
7756.83
7761.24
7765.62
7769.99
7774.31
7778.57
7782.79
7786.97
7791.08
7795.16
7799.21
7803.23
7807.18
7811.07
7814.9
7818.69
7822.46
7826.14
7829.75
7833.31
7836.82
7840.28
7843.67
7846.98
7850.23
7853.42
7856.55
7859.61
7862.59
7865.5
7868.34
7871.13
7873.84
7876.47
7879.03
7881.5
7883.91
7886.27
7888.55
7890.74
7892.86
7894.92
7896.91
7898.84
7900.7
7902.49
7904.21
7905.89
7907.52
7909.08
7910.58
7912.05
7913.47
7914.85
7916.19
7917.48
7918.75
7919.99
7921.21
7922.39
7923.54
7924.67
7925.78
7926.85
7927.89
7928.89
7929.85
7930.76
7931.63
7932.45
7933.23
7933.95
7934.61
7935.23
7935.8
7936.31
7936.76
7937.17
7937.52
7937.82
7938.08
7938.28
7938.43
7938.53
7938.59
7938.6
7938.57
7938.5
7938.39
7938.24
7938.05
7937.83
7937.57
7937.29
7936.97
7936.63
7936.26
7935.87
7935.45
7935.01
7934.55
7934.08
7933.59
7933.08
7932.56
7932.03
7931.49
7930.94
7930.37
7929.8
7929.23
7928.64
7928.06
7927.46
7926.87
7926.27
7925.68
7925.08
7924.48
7923.88
7923.28
7922.68
7922.08
7921.49
7920.9
7920.31
7919.72
7919.13
7918.55
7917.98
7917.4
7916.83
7916.26
7915.7
7915.15
7914.59
7914.04
7913.5
7912.95
7912.42
7911.89
7911.36
7910.83
7910.31
7909.8
7909.29
7908.78
7908.28
7907.78
7907.29
7906.8
7906.32
7905.85
7905.37
7904.91
7904.42
7903.96
7903.47
7903.03
7902.59
7902.15
7901.68
7901.25
7900.68
7900.26
7900.01
7899.6
7899.26
7898.86
7898.48
7898.09
7897.75
7897.36
7897.01
7896.64
7896.27
7895.94
7895.56
7895.21
7894.8
7894.45
7893.96
7893.61
7893.33
7892.98
7892.63
7892.28
7891.9
7891.55
7891.19
7890.84
7890.47
7890.12
7889.74
7889.38
7888.98
7888.63
7888.27
7887.91
7887.55
7887.14
7886.75
7886.13
7885.87
7885.63
7885.31
7884.97
7884.64
7884.29
7883.96
7883.63
7883.3
7882.97
7882.64
7882.31
7881.98
7881.64
7881.31
7880.96
7880.62
7880.27
7879.92
7879.56
7879.2
7878.84
7878.47
7878.11
7877.74
7877.37
7877
7876.63
7876.25
7875.87
7875.5
7875.12
7874.74
7874.35
7873.97
7873.59
7873.2
7872.82
7872.43
7872.04
7871.66
7871.27
7870.88
7870.49
7870.1
7869.71
7869.32
7868.92
7868.53
7868.14
7867.75
7867.36
7866.97
7866.57
7866.18
7865.79
7865.4
7865.01
7864.61
7864.22
7863.83
7863.44
7863.05
7862.66
7862.27
7861.88
7861.48
7861.09
7860.7
7860.31
7859.93
7859.54
7859.15
7858.76
7858.37
7857.98
7857.6
7857.21
7856.82
7856.44
7856.05
7855.67
7855.28
7854.9
7854.52
7854.13
7853.76
7853.35
7853.04
7852.47
8062.1
8079.44
8086.18
8094.88
8103.87
8112.87
8121.88
8130.87
8139.8
8148.69
8157.51
8166.26
8174.9
8183.45
8191.89
8200.3
8208.56
8216.67
8224.85
8233.05
8241.29
8249.58
8257.89
8266.17
8274.36
8282.45
8290.44
8298.33
8306.12
8313.85
8321.47
8328.99
8336.5
8343.96
8351.33
8358.62
8365.72
8372.57
8379.79
8386.98
8393.93
8400.74
8407.49
8414.16
8420.76
8427.26
8433.69
8440.04
8446.32
8452.53
8458.66
8464.7
8470.57
8476.39
8482.28
8488.09
8493.77
8499.35
8504.88
8510.34
8515.69
8520.92
8526.17
8531.4
8536.48
8541.35
8545.84
8550.65
8555.41
8560.37
8565.26
8569.84
8574.28
8578.59
8582.52
8586.6
8590.76
8594.68
8598.36
8601.94
8605.24
8608.22
8611.23
8614.54
8617.62
8620.38
8623.47
8626.55
8629.8
8638
8646.8
8640.18
8613.67
8640.01
8645.6
8645.41
8649.85
8650.82
8650.23
8654.33
8655.92
8657.16
8658.75
8659.28
8660.69
8660.94
8660.29
8660.5
8659.83
8661.11
8661.21
8671.48
8668.44
8652.71
8650.4
8646.85
8644.72
8643.73
8639.87
8633.9
8627.8
8621.58
8615.48
8608.8
8601.03
8592.5
8584.45
8575.2
8569.8
8558.97
8541.51
8529.65
8515.86
8502.91
8489.22
8475.63
8460.82
8444.52
8427.88
8410.53
8392.9
8375.03
8356.71
8337.8
8318.29
8298.62
8278.76
8258.57
8238.06
8217.52
8196.91
8176.37
8155.62
8134.82
8114.25
8093.81
8073.66
8053.66
8033.85
8014.24
7995.02
7976.19
7957.76
7939.82
7922.32
7905.22
7888.52
7872.42
7856.87
7841.87
7827.52
7813.62
7800.21
7787.44
7775.23
7763.61
7752.57
7741.96
7731.8
7722.14
7713
7704.31
7696.11
7688.24
7680.71
7673.51
7666.58
7659.9
7653.56
7647.46
7641.61
7636.05
7630.63
7625.41
7620.4
7615.61
7611.13
7606.99
7603.17
7599.6
7596.34
7593.36
7590.77
7588.52
7586.67
7585.15
7583.91
7583
7582.38
7582.05
7582.08
7582.43
7583.08
7584.08
7585.28
7586.71
7588.37
7590.33
7592.52
7594.99
7597.63
7600.4
7603.4
7606.6
7610.02
7613.54
7617.15
7620.89
7624.8
7628.82
7632.99
7637.21
7641.49
7645.89
7650.38
7654.86
7659.37
7663.96
7668.59
7673.27
7678
7682.7
7687.38
7692.07
7696.79
7701.52
7706.23
7710.98
7715.69
7720.35
7724.98
7729.59
7734.2
7738.8
7743.39
7747.91
7752.36
7756.81
7761.24
7765.63
7770.02
7774.33
7778.6
7782.83
7787.01
7791.13
7795.22
7799.27
7803.3
7807.26
7811.13
7814.97
7818.77
7822.54
7826.24
7829.86
7833.41
7836.91
7840.37
7843.77
7847.08
7850.34
7853.55
7856.67
7859.7
7862.69
7865.61
7868.47
7871.26
7873.97
7876.59
7879.14
7881.63
7884.04
7886.39
7888.68
7890.88
7893.01
7895.06
7897.05
7898.98
7900.84
7902.64
7904.37
7906.06
7907.7
7909.26
7910.78
7912.25
7913.69
7915.07
7916.41
7917.72
7919
7920.25
7921.48
7922.67
7923.83
7924.97
7926.07
7927.15
7928.2
7929.2
7930.16
7931.07
7931.95
7932.77
7933.55
7934.28
7934.95
7935.57
7936.13
7936.64
7937.1
7937.51
7937.86
7938.16
7938.41
7938.6
7938.74
7938.84
7938.89
7938.9
7938.86
7938.78
7938.66
7938.51
7938.31
7938.07
7937.81
7937.51
7937.19
7936.84
7936.47
7936.06
7935.63
7935.19
7934.72
7934.24
7933.74
7933.23
7932.7
7932.16
7931.61
7931.05
7930.48
7929.9
7929.32
7928.73
7928.14
7927.54
7926.94
7926.34
7925.74
7925.13
7924.53
7923.92
7923.32
7922.72
7922.12
7921.52
7920.93
7920.34
7919.75
7919.16
7918.58
7918
7917.43
7916.85
7916.29
7915.72
7915.16
7914.61
7914.06
7913.51
7912.97
7912.43
7911.9
7911.37
7910.84
7910.32
7909.81
7909.29
7908.79
7908.29
7907.79
7907.31
7906.82
7906.34
7905.84
7905.37
7904.88
7904.42
7903.97
7903.52
7903.03
7902.6
7902
7901.57
7901.32
7900.9
7900.55
7900.13
7899.74
7899.34
7898.98
7898.58
7898.22
7897.83
7897.46
7897.1
7896.74
7896.34
7895.98
7895.5
7895.14
7894.9
7894.53
7894.23
7893.84
7893.5
7893.11
7892.76
7892.39
7892.03
7891.66
7891.31
7890.93
7890.56
7890.17
7889.82
7889.47
7889.1
7888.78
7888.34
7887.94
7887.31
7887.06
7886.81
7886.48
7886.13
7885.77
7885.41
7885.07
7884.73
7884.4
7884.06
7883.72
7883.39
7883.05
7882.71
7882.37
7882.03
7881.69
7881.35
7881
7880.65
7880.3
7879.94
7879.58
7879.22
7878.86
7878.5
7878.13
7877.76
7877.39
7877.02
7876.64
7876.27
7875.89
7875.51
7875.13
7874.74
7874.36
7873.98
7873.59
7873.21
7872.82
7872.43
7872.05
7871.66
7871.27
7870.88
7870.49
7870.1
7869.71
7869.32
7868.93
7868.54
7868.14
7867.75
7867.36
7866.97
7866.57
7866.18
7865.79
7865.4
7865.01
7864.61
7864.22
7863.83
7863.44
7863.05
7862.65
7862.26
7861.87
7861.48
7861.09
7860.7
7860.31
7859.92
7859.53
7859.14
7858.76
7858.37
7857.98
7857.59
7857.21
7856.82
7856.43
7856.05
7855.66
7855.28
7854.89
7854.51
7854.12
7853.75
7853.35
7853.03
7852.46
8061.84
8079.25
8086.02
8094.74
8103.76
8112.79
8121.81
8130.82
8139.77
8148.66
8157.48
8166.23
8174.89
8183.46
8191.96
8200.43
8208.8
8217.1
8225.43
8233.75
8242.06
8250.35
8258.62
8266.86
8275.02
8283.1
8291.09
8298.98
8306.79
8314.53
8322.2
8329.79
8337.31
8344.75
8352.11
8359.42
8366.64
8373.76
8380.83
8387.84
8394.77
8401.59
8408.34
8415.01
8421.62
8428.14
8434.58
8440.93
8447.19
8453.38
8459.51
8465.57
8471.56
8477.45
8483.13
8488.73
8494.47
8500.17
8505.72
8511.17
8516.53
8521.78
8527.02
8532.19
8537.26
8542.22
8546.82
8551.22
8556.07
8561.09
8565.8
8570.27
8574.64
8578.93
8583.11
8587.1
8590.83
8594.62
8598.43
8602.05
8605.51
8608.8
8611.7
8614.76
8618.04
8621.33
8624.51
8627.71
8630.57
8632.98
8635.3
8637.8
8646.11
8655.25
8647.79
8618.38
8646.38
8653.06
8650.74
8654.51
8655.34
8652.46
8655.81
8656.51
8657.39
8658.05
8658.71
8659.08
8660.06
8660.51
8658.84
8658.51
8657.63
8657.19
8667.9
8663.22
8644.49
8640.84
8635.89
8632.4
8630.22
8624.85
8617.08
8609.06
8601.15
8593.48
8585.31
8575.89
8565.69
8555.89
8544.72
8538.21
8525.71
8506.71
8492.48
8477.57
8462.67
8447.11
8431.96
8415.1
8396.92
8378.54
8359.83
8340.7
8321.28
8301.34
8281.21
8260.73
8239.93
8219.14
8198.39
8177.51
8156.5
8135.4
8114.57
8093.97
8073.58
8053.29
8033.27
8013.54
7994.03
7974.99
7956.42
7938.35
7920.66
7903.42
7886.6
7870.34
7854.69
7839.68
7825.19
7811.21
7797.71
7784.8
7772.54
7760.89
7749.71
7739.02
7728.75
7718.99
7709.8
7701.1
7692.77
7684.8
7677.18
7669.87
7662.89
7656.3
7649.93
7643.82
7637.95
7632.26
7626.87
7621.78
7616.86
7612.16
7607.69
7603.58
7599.81
7596.3
7593.11
7590.17
7587.62
7585.44
7583.67
7582.21
7581.04
7580.17
7579.58
7579.36
7579.53
7580.03
7580.75
7581.74
7582.96
7584.48
7586.28
7588.4
7590.69
7593.19
7595.83
7598.72
7601.82
7605.15
7608.62
7612.21
7615.94
7619.76
7623.69
7627.79
7631.98
7636.31
7640.74
7645.18
7649.68
7654.24
7658.81
7663.41
7668.11
7672.88
7677.6
7682.29
7687.02
7691.78
7696.53
7701.32
7706.1
7710.83
7715.54
7720.21
7724.84
7729.49
7734.12
7738.76
7743.35
7747.89
7752.35
7756.8
7761.25
7765.69
7770.05
7774.36
7778.61
7782.85
7787.07
7791.22
7795.31
7799.38
7803.39
7807.34
7811.22
7815.07
7818.9
7822.67
7826.36
7829.99
7833.55
7837.04
7840.49
7843.89
7847.25
7850.51
7853.71
7856.83
7859.86
7862.84
7865.78
7868.65
7871.43
7874.12
7876.75
7879.31
7881.81
7884.24
7886.59
7888.87
7891.07
7893.19
7895.25
7897.27
7899.21
7901.07
7902.86
7904.61
7906.32
7907.96
7909.53
7911.05
7912.54
7914
7915.4
7916.75
7918.07
7919.36
7920.63
7921.86
7923.06
7924.23
7925.38
7926.49
7927.57
7928.61
7929.62
7930.59
7931.52
7932.39
7933.21
7933.99
7934.72
7935.4
7936.01
7936.57
7937.09
7937.54
7937.94
7938.28
7938.58
7938.82
7939.01
7939.14
7939.24
7939.28
7939.27
7939.23
7939.14
7939.01
7938.84
7938.63
7938.39
7938.11
7937.8
7937.47
7937.11
7936.72
7936.3
7935.86
7935.41
7934.93
7934.44
7933.93
7933.4
7932.86
7932.31
7931.76
7931.19
7930.61
7930.02
7929.43
7928.84
7928.24
7927.63
7927.02
7926.42
7925.81
7925.2
7924.59
7923.99
7923.38
7922.77
7922.17
7921.57
7920.97
7920.38
7919.79
7919.2
7918.61
7918.03
7917.45
7916.88
7916.31
7915.74
7915.18
7914.62
7914.07
7913.52
7912.98
7912.44
7911.9
7911.38
7910.84
7910.33
7909.8
7909.3
7908.79
7908.3
7907.78
7907.3
7906.79
7906.31
7905.88
7905.4
7904.97
7904.44
7904.01
7903.38
7902.95
7902.69
7902.26
7901.89
7901.47
7901.07
7900.65
7900.28
7899.87
7899.5
7899.09
7898.72
7898.35
7897.98
7897.58
7897.21
7896.73
7896.36
7896.14
7895.76
7895.46
7895.06
7894.73
7894.33
7893.98
7893.6
7893.25
7892.88
7892.52
7892.13
7891.77
7891.35
7891.02
7890.64
7890.29
7889.9
7889.5
7888.89
7888.64
7888.39
7888.07
7887.73
7887.36
7887
7886.63
7886.27
7885.92
7885.58
7885.23
7884.88
7884.54
7884.19
7883.84
7883.5
7883.16
7882.81
7882.46
7882.12
7881.77
7881.42
7881.06
7880.71
7880.35
7879.99
7879.63
7879.26
7878.9
7878.53
7878.16
7877.79
7877.41
7877.04
7876.66
7876.28
7875.9
7875.52
7875.14
7874.76
7874.38
7873.99
7873.61
7873.22
7872.83
7872.44
7872.06
7871.67
7871.28
7870.89
7870.5
7870.1
7869.71
7869.32
7868.93
7868.54
7868.14
7867.75
7867.36
7866.97
7866.57
7866.18
7865.79
7865.4
7865
7864.61
7864.22
7863.83
7863.43
7863.04
7862.65
7862.26
7861.87
7861.48
7861.09
7860.7
7860.31
7859.92
7859.53
7859.14
7858.75
7858.36
7857.97
7857.59
7857.2
7856.81
7856.43
7856.04
7855.66
7855.27
7854.89
7854.5
7854.12
7853.74
7853.34
7853.03
7852.46
8061.55
8079.03
8085.85
8094.59
8103.65
8112.7
8121.75
8130.78
8139.75
8148.68
8157.52
8166.29
8174.99
8183.58
8192.09
8200.64
8209.1
8217.54
8225.98
8234.38
8242.74
8251.06
8259.34
8267.57
8275.74
8283.82
8291.82
8299.72
8307.55
8315.32
8323.02
8330.65
8338.18
8345.64
8353.03
8360.34
8367.57
8374.73
8381.84
8388.85
8395.77
8402.59
8409.31
8415.9
8422.53
8429.15
8435.64
8441.97
8448.1
8454.19
8460.41
8466.59
8472.61
8478.49
8483.87
8488.94
8495.04
8501.12
8506.73
8512.18
8517.54
8522.81
8528.02
8533.14
8538.18
8543.14
8547.99
8552.43
8556.77
8561.67
8566.41
8570.88
8575.21
8579.46
8583.6
8587.62
8591.29
8594.76
8598.65
8602.46
8605.94
8609.32
8612.58
8615.7
8618.58
8621.57
8624.72
8627.95
8630.91
8633.66
8636.31
8638.71
8640.81
8642.73
8644.92
8652.95
8662.17
8654.02
8621.84
8651.13
8658.5
8654
8656.98
8657.55
8653.54
8656.65
8657.43
8657.66
8658.25
8658.33
8658.01
8658.18
8657.31
8654.54
8653.13
8650.89
8649.56
8660.59
8654.26
8631.84
8626.52
8620.35
8615.49
8611.97
8604.83
8595.03
8585.42
8575.69
8566.63
8556.75
8545.79
8534.46
8522.12
8510.62
8498.12
8489.53
8475.09
8452.66
8436.29
8418.24
8400.37
8383.32
8364.76
8344.94
8324.89
8304.57
8283.9
8263.12
8242.38
8221.38
8200.12
8178.82
8157.52
8136.14
8115.06
8094.15
8073.35
8052.74
8032.46
8012.5
7992.84
7973.57
7954.79
7936.45
7918.55
7901.14
7884.21
7867.8
7852.03
7836.83
7822.15
7808.03
7794.46
7781.43
7769.07
7757.25
7745.92
7735.1
7724.64
7714.91
7705.66
7696.79
7688.32
7680.25
7672.53
7665.05
7658.07
7651.54
7645.17
7639.05
7633.17
7627.45
7622.06
7617.08
7612.29
7607.69
7603.36
7599.26
7595.44
7592.01
7589.01
7586.24
7583.76
7581.62
7579.98
7578.58
7577.49
7576.65
7576.18
7576.09
7576.42
7576.99
7577.81
7578.91
7580.27
7581.86
7583.75
7585.95
7588.38
7590.98
7593.78
7596.72
7599.92
7603.38
7606.93
7610.62
7614.45
7618.4
7622.43
7626.55
7630.83
7635.24
7639.76
7644.27
7648.85
7653.48
7658.13
7662.8
7667.53
7672.35
7677.13
7681.92
7686.66
7691.43
7696.23
7701.08
7705.87
7710.63
7715.37
7720.06
7724.71
7729.38
7734.07
7738.72
7743.31
7747.86
7752.36
7756.8
7761.26
7765.71
7770.08
7774.41
7778.66
7782.88
7787.11
7791.3
7795.42
7799.48
7803.5
7807.44
7811.32
7815.19
7819.05
7822.8
7826.5
7830.14
7833.72
7837.22
7840.65
7844.07
7847.43
7850.69
7853.89
7857.02
7860.07
7863.04
7866
7868.86
7871.64
7874.34
7876.96
7879.55
7882.06
7884.48
7886.83
7889.11
7891.32
7893.46
7895.54
7897.55
7899.5
7901.38
7903.19
7904.95
7906.66
7908.31
7909.91
7911.44
7912.95
7914.42
7915.83
7917.21
7918.54
7919.85
7921.13
7922.37
7923.58
7924.76
7925.91
7927.03
7928.12
7929.16
7930.17
7931.14
7932.07
7932.95
7933.77
7934.55
7935.27
7935.95
7936.56
7937.13
7937.63
7938.08
7938.48
7938.82
7939.1
7939.33
7939.51
7939.64
7939.72
7939.75
7939.74
7939.68
7939.58
7939.43
7939.25
7939.03
7938.77
7938.48
7938.16
7937.81
7937.43
7937.02
7936.6
7936.15
7935.67
7935.18
7934.68
7934.15
7933.61
7933.06
7932.5
7931.93
7931.35
7930.76
7930.17
7929.57
7928.96
7928.35
7927.74
7927.13
7926.51
7925.9
7925.28
7924.67
7924.06
7923.44
7922.84
7922.23
7921.62
7921.02
7920.42
7919.83
7919.24
7918.65
7918.07
7917.49
7916.91