/*--------------------------------*- C++ -*----------------------------------*\
| =========                 |                                                 |
| \\      /  F ield         | OpenFOAM: The Open Source CFD Toolbox           |
|  \\    /   O peration     | Version:  v2006                                 |
|   \\  /    A nd           | Website:  www.openfoam.com                      |
|    \\/     M anipulation  |                                                 |
\*---------------------------------------------------------------------------*/
FoamFile
{
    version     2.0;
    format      ascii;
    class       volScalarField;
    location    "9.4";
    object      k;
}
// * * * * * * * * * * * * * * * * * * * * * * * * * * * * * * * * * * * * * //

dimensions      [0 2 -2 0 0 0 0];


internalField   nonuniform List<scalar> 
33000
(
3.9789e-08
4.4045e-08
4.34512e-08
3.95183e-08
3.46892e-08
3.12755e-08
2.93789e-08
2.84657e-08
2.80863e-08
2.82711e-08
2.94048e-08
3.12499e-08
3.34141e-08
3.53629e-08
3.73756e-08
3.94972e-08
4.16927e-08
4.37494e-08
4.54015e-08
4.69279e-08
4.89588e-08
5.22127e-08
5.82793e-08
7.06408e-08
9.50793e-08
1.3625e-07
1.95836e-07
2.82568e-07
3.74256e-07
4.42655e-07
4.78073e-07
5.00639e-07
5.18807e-07
5.45215e-07
5.91061e-07
6.88697e-07
8.81137e-07
1.17045e-06
1.45484e-06
1.64991e-06
1.75104e-06
1.78423e-06
1.80416e-06
1.81268e-06
1.78281e-06
1.74434e-06
1.67265e-06
1.64757e-06
1.66391e-06
1.68751e-06
1.65733e-06
1.5953e-06
1.50645e-06
1.44642e-06
1.41292e-06
1.40551e-06
1.42585e-06
1.47682e-06
1.55615e-06
1.65206e-06
1.72261e-06
1.74834e-06
1.73784e-06
1.69627e-06
1.62915e-06
1.53484e-06
1.41682e-06
1.27926e-06
1.148e-06
1.0445e-06
9.66634e-07
9.08829e-07
8.62792e-07
8.26278e-07
7.96835e-07
7.78189e-07
7.73899e-07
7.76411e-07
7.87427e-07
8.07147e-07
8.19292e-07
8.48369e-07
8.85911e-07
9.33081e-07
9.93305e-07
1.05861e-06
1.11177e-06
1.15131e-06
1.17416e-06
1.18422e-06
1.17493e-06
1.15029e-06
1.10924e-06
1.05012e-06
9.78897e-07
8.98766e-07
8.35902e-07
7.84281e-07
7.57538e-07
7.44906e-07
7.54605e-07
7.71794e-07
7.86398e-07
7.99301e-07
8.04942e-07
8.10383e-07
8.2091e-07
8.27585e-07
8.27799e-07
8.21601e-07
8.12771e-07
7.99471e-07
7.82766e-07
7.59662e-07
7.29013e-07
6.92497e-07
6.59398e-07
6.35481e-07
6.32664e-07
6.36402e-07
6.39665e-07
6.45245e-07
6.46729e-07
6.51491e-07
6.60125e-07
6.66049e-07
6.69769e-07
6.72158e-07
6.73457e-07
6.74699e-07
6.76025e-07
6.7685e-07
6.76929e-07
6.76166e-07
6.74701e-07
6.72964e-07
6.7132e-07
6.69812e-07
6.6827e-07
6.66571e-07
6.64699e-07
6.62754e-07
6.60634e-07
6.58144e-07
6.55142e-07
6.51646e-07
6.47928e-07
6.44147e-07
6.4024e-07
6.35972e-07
6.31054e-07
6.25653e-07
6.20108e-07
6.14553e-07
6.08856e-07
6.02889e-07
5.96671e-07
5.90267e-07
5.8379e-07
5.77283e-07
5.70737e-07
5.64112e-07
5.57388e-07
5.50608e-07
5.43926e-07
5.37372e-07
5.30732e-07
5.23932e-07
5.17305e-07
5.11169e-07
5.05429e-07
4.9972e-07
4.93942e-07
4.88447e-07
4.83651e-07
4.79746e-07
4.76457e-07
4.73213e-07
4.69649e-07
4.6569e-07
4.61528e-07
4.57458e-07
4.53698e-07
4.50362e-07
4.47335e-07
4.44307e-07
4.41011e-07
4.3754e-07
4.34303e-07
4.31489e-07
4.28934e-07
4.26346e-07
4.23567e-07
4.20698e-07
4.18002e-07
4.15806e-07
4.14308e-07
4.1342e-07
4.12739e-07
4.11878e-07
4.10865e-07
4.10027e-07
4.09708e-07
4.09871e-07
4.10233e-07
4.10544e-07
4.10759e-07
4.11131e-07
4.11973e-07
4.13148e-07
4.14133e-07
4.14622e-07
4.1509e-07
4.1605e-07
4.17409e-07
4.191e-07
4.20984e-07
4.22606e-07
4.23739e-07
4.24707e-07
4.25897e-07
4.27447e-07
4.29253e-07
4.31229e-07
4.33028e-07
4.34316e-07
4.35277e-07
4.36149e-07
4.37159e-07
4.3837e-07
4.39711e-07
4.40893e-07
4.41467e-07
4.41627e-07
4.41659e-07
4.41672e-07
4.41748e-07
4.41741e-07
4.41556e-07
4.41199e-07
4.40707e-07
4.3996e-07
4.38797e-07
4.37258e-07
4.35596e-07
4.3402e-07
4.32491e-07
4.3099e-07
4.29171e-07
4.2661e-07
4.23886e-07
4.21368e-07
4.18868e-07
4.16332e-07
4.13699e-07
4.10709e-07
4.07451e-07
4.0414e-07
4.00825e-07
3.97509e-07
3.9407e-07
3.90473e-07
3.86725e-07
3.82854e-07
3.79007e-07
3.75261e-07
3.71551e-07
3.67605e-07
3.63314e-07
3.58921e-07
3.54641e-07
3.50404e-07
3.46142e-07
3.41895e-07
3.37669e-07
3.33266e-07
3.28664e-07
3.24016e-07
3.19401e-07
3.14811e-07
3.10211e-07
3.05627e-07
3.01102e-07
2.96538e-07
2.91772e-07
2.86943e-07
2.82205e-07
2.77496e-07
2.7278e-07
2.68065e-07
2.63379e-07
2.58628e-07
2.5379e-07
2.48903e-07
2.4399e-07
2.3906e-07
2.34149e-07
2.293e-07
2.2448e-07
2.19713e-07
2.15015e-07
2.10407e-07
2.05913e-07
2.01527e-07
1.97196e-07
1.92923e-07
1.88748e-07
1.84728e-07
1.80894e-07
1.77261e-07
1.73844e-07
1.70656e-07
1.67666e-07
1.64846e-07
1.62176e-07
1.59655e-07
1.573e-07
1.55127e-07
1.5314e-07
1.5134e-07
1.49731e-07
1.48313e-07
1.47088e-07
1.46052e-07
1.45196e-07
1.44508e-07
1.43981e-07
1.43609e-07
1.43376e-07
1.4326e-07
1.43245e-07
1.4332e-07
1.43478e-07
1.43707e-07
1.43993e-07
1.44315e-07
1.44656e-07
1.45005e-07
1.4535e-07
1.45676e-07
1.4597e-07
1.46224e-07
1.46437e-07
1.46607e-07
1.46732e-07
1.4681e-07
1.46839e-07
1.46817e-07
1.46746e-07
1.46624e-07
1.4645e-07
1.46221e-07
1.45934e-07
1.45589e-07
1.45185e-07
1.44723e-07
1.44204e-07
1.4363e-07
1.43e-07
1.42318e-07
1.41584e-07
1.40801e-07
1.3997e-07
1.39094e-07
1.38175e-07
1.37215e-07
1.36217e-07
1.35182e-07
1.34113e-07
1.33015e-07
1.31887e-07
1.30729e-07
1.29543e-07
1.28329e-07
1.2709e-07
1.25825e-07
1.24535e-07
1.23223e-07
1.21887e-07
1.20528e-07
1.19147e-07
1.17744e-07
1.16323e-07
1.14884e-07
1.13433e-07
1.11969e-07
1.10497e-07
1.09016e-07
1.07532e-07
1.06046e-07
1.0456e-07
1.03076e-07
1.01595e-07
1.00121e-07
9.86542e-08
9.72017e-08
9.57626e-08
9.4343e-08
9.29374e-08
9.15531e-08
9.01829e-08
8.88396e-08
8.75177e-08
8.62287e-08
8.49683e-08
8.37378e-08
8.25373e-08
8.13677e-08
8.02418e-08
7.91541e-08
7.81078e-08
7.70903e-08
7.61002e-08
7.51439e-08
7.42186e-08
7.33239e-08
7.24587e-08
7.15971e-08
7.07273e-08
6.99294e-08
6.91722e-08
6.83928e-08
6.77379e-08
6.67381e-08
6.56223e-08
6.49898e-08
6.45788e-08
6.35372e-08
6.42928e-08
6.56592e-08
6.93744e-08
7.03585e-08
7.24931e-08
7.33114e-08
7.42976e-08
7.46244e-08
7.50074e-08
7.51237e-08
7.53313e-08
7.53089e-08
7.54409e-08
7.54573e-08
7.49553e-08
7.48054e-08
7.44014e-08
7.24873e-08
7.14121e-08
6.94207e-08
6.89821e-08
6.69051e-08
6.76437e-08
6.79799e-08
6.87369e-08
6.911e-08
6.96477e-08
6.99144e-08
7.02216e-08
6.99936e-08
6.99548e-08
6.98647e-08
6.93947e-08
6.97623e-08
6.84589e-08
6.66443e-08
6.69161e-08
6.65675e-08
6.4068e-08
6.83744e-08
7.40576e-08
8.83188e-08
9.1844e-08
9.73205e-08
1.00759e-07
1.06706e-07
1.12854e-07
1.19808e-07
1.25963e-07
1.31339e-07
1.35914e-07
1.4008e-07
1.43681e-07
1.46616e-07
1.49087e-07
1.5112e-07
1.52941e-07
1.54702e-07
1.56272e-07
1.57575e-07
1.58747e-07
1.59888e-07
1.60942e-07
1.61798e-07
1.62569e-07
1.63413e-07
1.64316e-07
1.65132e-07
1.65862e-07
1.66498e-07
1.67083e-07
1.67637e-07
1.68136e-07
1.68625e-07
1.69143e-07
1.6964e-07
1.70029e-07
1.70287e-07
1.70451e-07
1.70586e-07
1.70751e-07
1.70938e-07
1.7114e-07
1.71315e-07
1.71457e-07
1.71596e-07
1.7172e-07
1.71814e-07
1.71906e-07
1.72045e-07
1.72235e-07
1.72447e-07
1.72651e-07
1.72819e-07
1.72949e-07
1.73052e-07
1.73141e-07
1.73235e-07
1.73341e-07
1.73457e-07
1.73583e-07
1.73712e-07
1.73838e-07
1.73964e-07
1.741e-07
1.74254e-07
1.74436e-07
1.74612e-07
1.74816e-07
1.74962e-07
1.75213e-07
1.75384e-07
1.75727e-07
1.7585e-07
1.76123e-07
1.76618e-07
1.76548e-07
1.75654e-07
1.73943e-07
1.59472e-07
1.32519e-07
6.86361e-08
2.63174e-08
2.74838e-08
2.64592e-08
2.36179e-08
2.12481e-08
1.86752e-08
1.71981e-08
1.66102e-08
1.65629e-08
1.7069e-08
1.83664e-08
2.03316e-08
2.32893e-08
2.73043e-08
3.31413e-08
3.98812e-08
4.66772e-08
5.19976e-08
5.51108e-08
5.60045e-08
5.62962e-08
6.09354e-08
7.31619e-08
9.95013e-08
1.53204e-07
2.56307e-07
4.63781e-07
6.9952e-07
8.48929e-07
9.31942e-07
9.31839e-07
8.92751e-07
9.56548e-07
1.1205e-06
1.25808e-06
1.35775e-06
1.53658e-06
1.69868e-06
1.74384e-06
1.53806e-06
1.12202e-06
7.85143e-07
6.46633e-07
6.57314e-07
6.48948e-07
5.28904e-07
3.9569e-07
3.38178e-07
3.55255e-07
4.14628e-07
4.11114e-07
3.30137e-07
2.39452e-07
1.70725e-07
1.29364e-07
1.09687e-07
1.08395e-07
1.27831e-07
1.72791e-07
2.43542e-07
3.20547e-07
3.81543e-07
3.94825e-07
3.67999e-07
3.21224e-07
2.61973e-07
1.96621e-07
1.45098e-07
1.15616e-07
1.05105e-07
1.08344e-07
1.22561e-07
1.46274e-07
1.78147e-07
2.10137e-07
2.41005e-07
2.80684e-07
4.02389e-07
4.77021e-07
4.61738e-07
5.2029e-07
6.03971e-07
6.55481e-07
6.48396e-07
5.60421e-07
5.11778e-07
4.48754e-07
3.83532e-07
3.2159e-07
2.55582e-07
1.99065e-07
1.58623e-07
1.36201e-07
1.30303e-07
1.37127e-07
1.52428e-07
1.75109e-07
2.03056e-07
2.45157e-07
2.89181e-07
3.09882e-07
3.04388e-07
2.89225e-07
2.4389e-07
1.9909e-07
1.58539e-07
1.23694e-07
9.36559e-08
7.3947e-08
6.34511e-08
5.90423e-08
5.80403e-08
5.87429e-08
5.99716e-08
6.39361e-08
6.75381e-08
7.86991e-08
8.45699e-08
7.79863e-08
6.72289e-08
6.22847e-08
6.00269e-08
6.02985e-08
5.93514e-08
5.72394e-08
5.47215e-08
5.29051e-08
5.22929e-08
5.27918e-08
5.35355e-08
5.43065e-08
5.46318e-08
5.41469e-08
5.40048e-08
5.4582e-08
5.55595e-08
5.6263e-08
5.65447e-08
5.6796e-08
5.73827e-08
5.82122e-08
5.87338e-08
5.87924e-08
5.82719e-08
5.78344e-08
5.79085e-08
5.84657e-08
5.91133e-08
5.88027e-08
5.79115e-08
5.75187e-08
5.76764e-08
5.7945e-08
5.78558e-08
5.75597e-08
5.71258e-08
5.68464e-08
5.66688e-08
5.64293e-08
5.60457e-08
5.55902e-08
5.50883e-08
5.46368e-08
5.43834e-08
5.40849e-08
5.33232e-08
5.24018e-08
5.17568e-08
5.14343e-08
5.1038e-08
5.01648e-08
4.90288e-08
4.80915e-08
4.73548e-08
4.69027e-08
4.65913e-08
4.60302e-08
4.52177e-08
4.4265e-08
4.32377e-08
4.23755e-08
4.16776e-08
4.10921e-08
4.06356e-08
4.01082e-08
3.93546e-08
3.8485e-08
3.7717e-08
3.71408e-08
3.6648e-08
3.6114e-08
3.54654e-08
3.47013e-08
3.39142e-08
3.32073e-08
3.26494e-08
3.22418e-08
3.18371e-08
3.13025e-08
3.06054e-08
2.98422e-08
2.92033e-08
2.87e-08
2.82485e-08
2.77616e-08
2.72073e-08
2.6622e-08
2.6123e-08
2.57299e-08
2.53455e-08
2.48203e-08
2.41784e-08
2.3643e-08
2.32408e-08
2.29204e-08
2.26445e-08
2.23286e-08
2.19056e-08
2.14317e-08
2.10086e-08
2.06844e-08
2.04381e-08
2.02221e-08
1.99856e-08
1.97e-08
1.93796e-08
1.90707e-08
1.88113e-08
1.8612e-08
1.84444e-08
1.82654e-08
1.80481e-08
1.77998e-08
1.75607e-08
1.73609e-08
1.72043e-08
1.70813e-08
1.69794e-08
1.68868e-08
1.67954e-08
1.66988e-08
1.6592e-08
1.64901e-08
1.64212e-08
1.64072e-08
1.64508e-08
1.65149e-08
1.65447e-08
1.65311e-08
1.65157e-08
1.65444e-08
1.66254e-08
1.6729e-08
1.68192e-08
1.68809e-08
1.6924e-08
1.69753e-08
1.7052e-08
1.71429e-08
1.72286e-08
1.72939e-08
1.73364e-08
1.73768e-08
1.74461e-08
1.75552e-08
1.76752e-08
1.77458e-08
1.77469e-08
1.77239e-08
1.77209e-08
1.77493e-08
1.78051e-08
1.78783e-08
1.7944e-08
1.79701e-08
1.79494e-08
1.79087e-08
1.78739e-08
1.78492e-08
1.78338e-08
1.78419e-08
1.7874e-08
1.78855e-08
1.78402e-08
1.77633e-08
1.7698e-08
1.7651e-08
1.7612e-08
1.75831e-08
1.75575e-08
1.75134e-08
1.74392e-08
1.73492e-08
1.72593e-08
1.71729e-08
1.70962e-08
1.70268e-08
1.69476e-08
1.68495e-08
1.67368e-08
1.66163e-08
1.65036e-08
1.64055e-08
1.63038e-08
1.61848e-08
1.60492e-08
1.59129e-08
1.57841e-08
1.5657e-08
1.55248e-08
1.53887e-08
1.52601e-08
1.51491e-08
1.505e-08
1.49476e-08
1.48391e-08
1.47358e-08
1.46443e-08
1.45646e-08
1.44945e-08
1.44327e-08
1.4379e-08
1.43346e-08
1.43014e-08
1.42766e-08
1.42566e-08
1.42447e-08
1.42447e-08
1.42539e-08
1.42655e-08
1.42771e-08
1.42926e-08
1.43178e-08
1.43556e-08
1.43982e-08
1.44331e-08
1.4456e-08
1.44765e-08
1.44999e-08
1.45251e-08
1.45488e-08
1.45683e-08
1.4582e-08
1.45915e-08
1.45989e-08
1.4602e-08
1.45997e-08
1.45925e-08
1.45825e-08
1.45722e-08
1.45626e-08
1.45513e-08
1.45348e-08
1.45131e-08
1.44898e-08
1.44672e-08
1.44448e-08
1.44226e-08
1.43967e-08
1.43663e-08
1.4334e-08
1.43011e-08
1.42669e-08
1.42326e-08
1.42013e-08
1.41692e-08
1.41302e-08
1.40804e-08
1.40259e-08
1.39779e-08
1.39379e-08
1.38917e-08
1.38334e-08
1.37703e-08
1.37107e-08
1.36564e-08
1.36037e-08
1.35501e-08
1.35e-08
1.34488e-08
1.33867e-08
1.33142e-08
1.32483e-08
1.319e-08
1.31332e-08
1.30756e-08
1.3016e-08
1.29524e-08
1.28869e-08
1.28276e-08
1.27716e-08
1.2712e-08
1.2645e-08
1.25804e-08
1.25191e-08
1.24592e-08
1.2401e-08
1.23505e-08
1.22987e-08
1.22418e-08
1.21832e-08
1.21226e-08
1.20694e-08
1.20205e-08
1.19898e-08
1.19485e-08
1.19041e-08
1.18392e-08
1.18064e-08
1.17689e-08
1.17329e-08
1.16882e-08
1.16245e-08
1.15914e-08
1.15274e-08
1.14923e-08
1.14637e-08
1.13831e-08
1.1371e-08
1.14009e-08
1.12875e-08
1.13376e-08
1.14589e-08
1.1227e-08
1.14109e-08
1.19509e-08
1.18688e-08
1.25891e-08
1.34126e-08
1.43005e-08
1.38833e-08
1.26198e-08
1.2412e-08
1.19549e-08
1.18215e-08
1.16565e-08
1.1573e-08
1.14655e-08
1.13581e-08
1.13425e-08
1.15277e-08
1.13778e-08
1.17281e-08
1.2014e-08
1.14845e-08
1.16376e-08
1.18556e-08
1.1794e-08
1.10653e-08
1.08968e-08
1.08742e-08
1.079e-08
1.07661e-08
1.07477e-08
1.07844e-08
1.08076e-08
1.08409e-08
1.0834e-08
1.09131e-08
1.09845e-08
1.12164e-08
1.17911e-08
1.2155e-08
1.27558e-08
1.36861e-08
1.36374e-08
1.49346e-08
1.67379e-08
2.05537e-08
1.94248e-08
1.33204e-08
1.21967e-08
1.18551e-08
1.183e-08
1.17853e-08
1.17941e-08
1.18549e-08
1.18962e-08
1.1953e-08
1.20991e-08
1.22306e-08
1.23009e-08
1.23589e-08
1.23923e-08
1.24793e-08
1.26174e-08
1.27103e-08
1.27307e-08
1.27776e-08
1.28528e-08
1.29021e-08
1.28906e-08
1.2895e-08
1.29809e-08
1.31122e-08
1.31959e-08
1.32266e-08
1.321e-08
1.32265e-08
1.32565e-08
1.32743e-08
1.33561e-08
1.34913e-08
1.36009e-08
1.35987e-08
1.35083e-08
1.34103e-08
1.33599e-08
1.33865e-08
1.34389e-08
1.35147e-08
1.35375e-08
1.35558e-08
1.36041e-08
1.3618e-08
1.36072e-08
1.36223e-08
1.36894e-08
1.37889e-08
1.38946e-08
1.3979e-08
1.40238e-08
1.40386e-08
1.40366e-08
1.40344e-08
1.4045e-08
1.4067e-08
1.40952e-08
1.41243e-08
1.4148e-08
1.41622e-08
1.41724e-08
1.41886e-08
1.42133e-08
1.42502e-08
1.42703e-08
1.42833e-08
1.4274e-08
1.42945e-08
1.43164e-08
1.43321e-08
1.43418e-08
1.43678e-08
1.43765e-08
1.43365e-08
1.42787e-08
1.41411e-08
1.37948e-08
1.29423e-08
1.13303e-08
1.96925e-08
2.10407e-08
2.04929e-08
1.78872e-08
1.50614e-08
1.33939e-08
1.27915e-08
1.27047e-08
1.30456e-08
1.39616e-08
1.57534e-08
1.8745e-08
2.35152e-08
3.07997e-08
4.11709e-08
5.38511e-08
6.67017e-08
7.71382e-08
8.60042e-08
9.15944e-08
9.47133e-08
1.19151e-07
1.60676e-07
2.35674e-07
3.82659e-07
6.97339e-07
1.17701e-06
1.65752e-06
1.81617e-06
1.9119e-06
1.95227e-06
2.08153e-06
2.10312e-06
2.03344e-06
1.9285e-06
1.87343e-06
1.89694e-06
1.77059e-06
1.54132e-06
1.19298e-06
7.46581e-07
4.18152e-07
2.93573e-07
2.75394e-07
2.62467e-07
2.17772e-07
1.55027e-07
1.20532e-07
1.20983e-07
1.33839e-07
1.29456e-07
1.10492e-07
8.40753e-08
5.96503e-08
4.519e-08
3.88563e-08
3.85043e-08
4.36231e-08
5.48261e-08
6.91932e-08
8.04144e-08
8.76786e-08
9.43477e-08
1.00068e-07
9.72977e-08
8.67977e-08
7.29926e-08
5.96296e-08
4.90165e-08
4.4097e-08
4.44523e-08
4.95994e-08
5.82957e-08
6.8721e-08
8.00811e-08
8.98307e-08
1.02986e-07
1.28304e-07
1.79371e-07
2.19785e-07
2.76155e-07
3.18444e-07
3.3614e-07
3.98801e-07
4.79265e-07
5.56872e-07
5.83955e-07
5.09456e-07
4.10587e-07
3.29567e-07
2.43619e-07
1.85313e-07
1.38072e-07
1.07528e-07
9.05997e-08
8.40483e-08
8.57298e-08
9.17966e-08
9.84153e-08
1.07595e-07
1.11265e-07
1.14678e-07
1.14412e-07
1.04955e-07
9.18646e-08
8.0433e-08
6.55183e-08
5.11277e-08
4.03907e-08
3.26588e-08
2.73972e-08
2.29984e-08
2.01317e-08
1.85085e-08
1.80795e-08
1.84812e-08
1.96861e-08
2.08053e-08
2.06163e-08
2.02017e-08
1.97366e-08
1.90055e-08
1.8442e-08
1.79564e-08
1.72638e-08
1.6599e-08
1.59372e-08
1.55163e-08
1.52191e-08
1.50617e-08
1.49869e-08
1.49547e-08
1.48839e-08
1.48828e-08
1.49798e-08
1.51351e-08
1.52446e-08
1.53034e-08
1.53599e-08
1.54538e-08
1.5579e-08
1.56726e-08
1.57033e-08
1.56638e-08
1.56403e-08
1.56905e-08
1.57922e-08
1.58843e-08
1.58641e-08
1.57935e-08
1.57936e-08
1.58636e-08
1.59268e-08
1.59354e-08
1.59352e-08
1.59432e-08
1.59704e-08
1.59953e-08
1.60027e-08
1.59835e-08
1.59553e-08
1.59301e-08
1.59171e-08
1.59298e-08
1.5929e-08
1.58646e-08
1.57694e-08
1.57082e-08
1.5692e-08
1.56608e-08
1.55697e-08
1.54337e-08
1.53062e-08
1.52023e-08
1.51327e-08
1.50848e-08
1.50071e-08
1.48877e-08
1.47334e-08
1.4554e-08
1.43879e-08
1.42448e-08
1.41233e-08
1.40235e-08
1.39181e-08
1.37822e-08
1.3623e-08
1.34657e-08
1.33304e-08
1.32144e-08
1.31041e-08
1.29869e-08
1.28561e-08
1.27173e-08
1.25852e-08
1.24734e-08
1.23827e-08
1.22981e-08
1.22036e-08
1.2094e-08
1.19797e-08
1.18778e-08
1.17921e-08
1.17138e-08
1.1634e-08
1.15521e-08
1.14733e-08
1.14042e-08
1.13438e-08
1.12829e-08
1.12136e-08
1.1139e-08
1.10728e-08
1.10195e-08
1.09756e-08
1.09363e-08
1.08957e-08
1.08496e-08
1.08008e-08
1.07553e-08
1.07175e-08
1.06872e-08
1.0661e-08
1.06353e-08
1.06078e-08
1.05789e-08
1.05512e-08
1.05269e-08
1.0507e-08
1.04901e-08
1.04737e-08
1.04561e-08
1.04374e-08
1.04199e-08
1.04054e-08
1.03944e-08
1.03859e-08
1.03788e-08
1.03721e-08
1.03651e-08
1.03582e-08
1.03517e-08
1.0346e-08
1.0342e-08
1.03401e-08
1.03405e-08
1.03423e-08
1.03435e-08
1.03433e-08
1.03425e-08
1.03429e-08
1.03455e-08
1.03496e-08
1.03546e-08
1.03597e-08
1.03639e-08
1.03683e-08
1.03733e-08
1.03787e-08
1.03842e-08
1.03896e-08
1.03943e-08
1.0399e-08
1.04052e-08
1.04136e-08
1.04222e-08
1.04278e-08
1.04298e-08
1.04305e-08
1.04325e-08
1.04366e-08
1.04425e-08
1.0449e-08
1.0455e-08
1.04589e-08
1.04609e-08
1.04618e-08
1.04626e-08
1.04637e-08
1.04656e-08
1.04693e-08
1.04747e-08
1.04786e-08
1.0479e-08
1.04774e-08
1.04767e-08
1.04774e-08
1.04787e-08
1.04804e-08
1.04821e-08
1.04827e-08
1.04817e-08
1.04802e-08
1.04787e-08
1.04771e-08
1.04758e-08
1.0475e-08
1.0474e-08
1.04724e-08
1.04697e-08
1.04656e-08
1.04614e-08
1.04583e-08
1.04555e-08
1.04518e-08
1.04461e-08
1.04396e-08
1.04337e-08
1.04284e-08
1.04225e-08
1.04156e-08
1.04089e-08
1.04034e-08
1.03988e-08
1.03938e-08
1.03877e-08
1.03814e-08
1.0376e-08
1.03715e-08
1.03677e-08
1.03645e-08
1.03617e-08
1.03592e-08
1.03575e-08
1.03564e-08
1.03558e-08
1.03559e-08
1.03568e-08
1.03582e-08
1.03595e-08
1.03607e-08
1.03625e-08
1.03651e-08
1.03685e-08
1.03719e-08
1.03743e-08
1.03755e-08
1.03764e-08
1.03774e-08
1.03785e-08
1.03794e-08
1.03799e-08
1.03798e-08
1.0379e-08
1.03778e-08
1.03762e-08
1.03741e-08
1.03716e-08
1.03691e-08
1.03669e-08
1.03648e-08
1.03626e-08
1.036e-08
1.03571e-08
1.03543e-08
1.03518e-08
1.03494e-08
1.03473e-08
1.03448e-08
1.0342e-08
1.03391e-08
1.03363e-08
1.03336e-08
1.0331e-08
1.03284e-08
1.03258e-08
1.03227e-08
1.03191e-08
1.03152e-08
1.03117e-08
1.03087e-08
1.03051e-08
1.03004e-08
1.0295e-08
1.02898e-08
1.02851e-08
1.02807e-08
1.02762e-08
1.02716e-08
1.02669e-08
1.02619e-08
1.02565e-08
1.02514e-08
1.02468e-08
1.02424e-08
1.02378e-08
1.02331e-08
1.02283e-08
1.02236e-08
1.02193e-08
1.0215e-08
1.02105e-08
1.02059e-08
1.02016e-08
1.01976e-08
1.01935e-08
1.01893e-08
1.01855e-08
1.01819e-08
1.01783e-08
1.01748e-08
1.01709e-08
1.01673e-08
1.01641e-08
1.01621e-08
1.01593e-08
1.01571e-08
1.01538e-08
1.0153e-08
1.01496e-08
1.01469e-08
1.01452e-08
1.01421e-08
1.01433e-08
1.01391e-08
1.01431e-08
1.01403e-08
1.01383e-08
1.01411e-08
1.0143e-08
1.01367e-08
1.01407e-08
1.01531e-08
1.01475e-08
1.01695e-08
1.02095e-08
1.02273e-08
1.02568e-08
1.0275e-08
1.03167e-08
1.02617e-08
1.01903e-08
1.01733e-08
1.01525e-08
1.01423e-08
1.01355e-08
1.01334e-08
1.01351e-08
1.01338e-08
1.01403e-08
1.0151e-08
1.01383e-08
1.01412e-08
1.01464e-08
1.01208e-08
1.01048e-08
1.00934e-08
1.01024e-08
1.00909e-08
1.00912e-08
1.00904e-08
1.0091e-08
1.00903e-08
1.00933e-08
1.00948e-08
1.00972e-08
1.00999e-08
1.01087e-08
1.01315e-08
1.01615e-08
1.02104e-08
1.02872e-08
1.03536e-08
1.04513e-08
1.05486e-08
1.06564e-08
1.07322e-08
1.06934e-08
1.10733e-08
1.06036e-08
1.02363e-08
1.02072e-08
1.01881e-08
1.0177e-08
1.01676e-08
1.01602e-08
1.01511e-08
1.01398e-08
1.01338e-08
1.01327e-08
1.01318e-08
1.01305e-08
1.01298e-08
1.01294e-08
1.0133e-08
1.01372e-08
1.01403e-08
1.01416e-08
1.01441e-08
1.01478e-08
1.01504e-08
1.01514e-08
1.01533e-08
1.01582e-08
1.01636e-08
1.01672e-08
1.01697e-08
1.01711e-08
1.0173e-08
1.01753e-08
1.01784e-08
1.01838e-08
1.01901e-08
1.01946e-08
1.01951e-08
1.01935e-08
1.01912e-08
1.01904e-08
1.01919e-08
1.0194e-08
1.01966e-08
1.01979e-08
1.01994e-08
1.0202e-08
1.02039e-08
1.02049e-08
1.02067e-08
1.02102e-08
1.02147e-08
1.02193e-08
1.02232e-08
1.02258e-08
1.02272e-08
1.02279e-08
1.02284e-08
1.02291e-08
1.02303e-08
1.02319e-08
1.02336e-08
1.0235e-08
1.02359e-08
1.02368e-08
1.0238e-08
1.02396e-08
1.02417e-08
1.02428e-08
1.02436e-08
1.02438e-08
1.0245e-08
1.02463e-08
1.02472e-08
1.02476e-08
1.02494e-08
1.02502e-08
1.02483e-08
1.02482e-08
1.02442e-08
1.02285e-08
1.01789e-08
1.00847e-08
1.52231e-08
1.59071e-08
1.54957e-08
1.39474e-08
1.25865e-08
1.19007e-08
1.17143e-08
1.18622e-08
1.24306e-08
1.37286e-08
1.62702e-08
2.06012e-08
2.76408e-08
3.86241e-08
5.41718e-08
7.29311e-08
9.31006e-08
1.16406e-07
1.49675e-07
1.92309e-07
2.47543e-07
3.09605e-07
4.04632e-07
5.48544e-07
7.60437e-07
1.05408e-06
1.42827e-06
1.67493e-06
1.54594e-06
1.45543e-06
1.46285e-06
1.49653e-06
1.54859e-06
1.60077e-06
1.61559e-06
1.54088e-06
1.37388e-06
1.18084e-06
9.96709e-07
6.26638e-07
3.38666e-07
1.94119e-07
1.33264e-07
1.22145e-07
1.12919e-07
8.77468e-08
6.57642e-08
5.23984e-08
5.06207e-08
5.34622e-08
5.22027e-08
4.63558e-08
3.69198e-08
2.89691e-08
2.39055e-08
2.13286e-08
2.10514e-08
2.20852e-08
2.36812e-08
2.48672e-08
2.55824e-08
2.65666e-08
2.89494e-08
3.31075e-08
3.65267e-08
3.6262e-08
3.33101e-08
2.97651e-08
2.59188e-08
2.33125e-08
2.2927e-08
2.42563e-08
2.7041e-08
3.12184e-08
3.68668e-08
4.38738e-08
5.24523e-08
6.17149e-08
7.84737e-08
9.88142e-08
1.31335e-07
1.80863e-07
2.23453e-07
2.72644e-07
3.09763e-07
3.27239e-07
3.6266e-07
4.0531e-07
4.54434e-07
4.77486e-07
4.4844e-07
3.45237e-07
2.53889e-07
1.68631e-07
1.208e-07
8.90678e-08
7.04606e-08
6.25164e-08
6.08378e-08
6.00303e-08
5.83351e-08
5.46717e-08
5.21641e-08
4.73852e-08
4.28153e-08
3.85875e-08
3.31257e-08
2.91426e-08
2.63556e-08
2.42496e-08
2.21287e-08
2.01328e-08
1.82894e-08
1.67656e-08
1.54434e-08
1.43505e-08
1.35274e-08
1.29946e-08
1.26853e-08
1.25604e-08
1.24681e-08
1.23409e-08
1.2266e-08
1.2175e-08
1.20255e-08
1.18615e-08
1.16937e-08
1.15025e-08
1.13281e-08
1.11773e-08
1.10666e-08
1.09882e-08
1.09261e-08
1.08939e-08
1.08972e-08
1.09149e-08
1.09298e-08
1.09386e-08
1.09473e-08
1.09586e-08
1.09762e-08
1.09929e-08
1.10017e-08
1.10023e-08
1.10067e-08
1.10203e-08
1.10384e-08
1.10526e-08
1.10541e-08
1.10528e-08
1.10615e-08
1.10784e-08
1.10919e-08
1.10966e-08
1.11016e-08
1.1111e-08
1.1124e-08
1.1135e-08
1.11424e-08
1.1144e-08
1.11425e-08
1.11418e-08
1.1144e-08
1.11495e-08
1.11521e-08
1.11459e-08
1.11321e-08
1.11206e-08
1.11157e-08
1.11087e-08
1.10935e-08
1.10693e-08
1.10425e-08
1.10182e-08
1.09983e-08
1.09826e-08
1.09633e-08
1.09367e-08
1.09025e-08
1.08629e-08
1.08245e-08
1.07899e-08
1.07597e-08
1.07338e-08
1.07082e-08
1.0679e-08
1.06463e-08
1.06128e-08
1.0582e-08
1.05549e-08
1.05305e-08
1.05072e-08
1.04832e-08
1.04583e-08
1.04339e-08
1.04122e-08
1.03937e-08
1.03771e-08
1.03605e-08
1.03431e-08
1.03253e-08
1.03087e-08
1.02942e-08
1.0281e-08
1.02683e-08
1.0256e-08
1.02446e-08
1.02343e-08
1.0225e-08
1.02157e-08
1.02059e-08
1.01963e-08
1.01878e-08
1.01805e-08
1.01742e-08
1.01684e-08
1.01628e-08
1.01569e-08
1.01512e-08
1.01458e-08
1.01411e-08
1.0137e-08
1.01334e-08
1.013e-08
1.01268e-08
1.01236e-08
1.01206e-08
1.01178e-08
1.01153e-08
1.01131e-08
1.01111e-08
1.01091e-08
1.01072e-08
1.01054e-08
1.01039e-08
1.01026e-08
1.01015e-08
1.01005e-08
1.00996e-08
1.00987e-08
1.00979e-08
1.00972e-08
1.00966e-08
1.00962e-08
1.00959e-08
1.00957e-08
1.00955e-08
1.00954e-08
1.00953e-08
1.00952e-08
1.00953e-08
1.00955e-08
1.00956e-08
1.00958e-08
1.00959e-08
1.00961e-08
1.00964e-08
1.00967e-08
1.0097e-08
1.00971e-08
1.00972e-08
1.00974e-08
1.00977e-08
1.00981e-08
1.00986e-08
1.00992e-08
1.00995e-08
1.00997e-08
1.00998e-08
1.01001e-08
1.01005e-08
1.01009e-08
1.01013e-08
1.01017e-08
1.01021e-08
1.01024e-08
1.01027e-08
1.01029e-08
1.01031e-08
1.01033e-08
1.01037e-08
1.01042e-08
1.01046e-08
1.01047e-08
1.01048e-08
1.0105e-08
1.01053e-08
1.01055e-08
1.01057e-08
1.01059e-08
1.01061e-08
1.01063e-08
1.01064e-08
1.01064e-08
1.01064e-08
1.01064e-08
1.01064e-08
1.01065e-08
1.01065e-08
1.01065e-08
1.01062e-08
1.01059e-08
1.01058e-08
1.01057e-08
1.01054e-08
1.01049e-08
1.01044e-08
1.01039e-08
1.01035e-08
1.0103e-08
1.01023e-08
1.01017e-08
1.01011e-08
1.01006e-08
1.01001e-08
1.00994e-08
1.00986e-08
1.0098e-08
1.00974e-08
1.00969e-08
1.00964e-08
1.00959e-08
1.00954e-08
1.0095e-08
1.00946e-08
1.00943e-08
1.00941e-08
1.0094e-08
1.00938e-08
1.00937e-08
1.00935e-08
1.00934e-08
1.00934e-08
1.00934e-08
1.00935e-08
1.00935e-08
1.00933e-08
1.00931e-08
1.0093e-08
1.00928e-08
1.00926e-08
1.00924e-08
1.00922e-08
1.0092e-08
1.00918e-08
1.00916e-08
1.00912e-08
1.00909e-08
1.00905e-08
1.00902e-08
1.00898e-08
1.00895e-08
1.00891e-08
1.00886e-08
1.00882e-08
1.00878e-08
1.00874e-08
1.00871e-08
1.00867e-08
1.00862e-08
1.00858e-08
1.00854e-08
1.00851e-08
1.00848e-08
1.00844e-08
1.00841e-08
1.00837e-08
1.00833e-08
1.00829e-08
1.00825e-08
1.00822e-08
1.00818e-08
1.00813e-08
1.00808e-08
1.00803e-08
1.00799e-08
1.00795e-08
1.0079e-08
1.00786e-08
1.00781e-08
1.00776e-08
1.00771e-08
1.00767e-08
1.00763e-08
1.00758e-08
1.00754e-08
1.00749e-08
1.00744e-08
1.00738e-08
1.00732e-08
1.00725e-08
1.00716e-08
1.00708e-08
1.00701e-08
1.00695e-08
1.00688e-08
1.00681e-08
1.00672e-08
1.00664e-08
1.00656e-08
1.00653e-08
1.0065e-08
1.00646e-08
1.00641e-08
1.00642e-08
1.00652e-08
1.00646e-08
1.00652e-08
1.00642e-08
1.00655e-08
1.00663e-08
1.00662e-08
1.00664e-08
1.00665e-08
1.00664e-08
1.00672e-08
1.00683e-08
1.00689e-08
1.00706e-08
1.00731e-08
1.00748e-08
1.0075e-08
1.00742e-08
1.00733e-08
1.00731e-08
1.00735e-08
1.00741e-08
1.00731e-08
1.00715e-08
1.00728e-08
1.00702e-08
1.00681e-08
1.00684e-08
1.00697e-08
1.00709e-08
1.00731e-08
1.00758e-08
1.00784e-08
1.00808e-08
1.0081e-08
1.00791e-08
1.00739e-08
1.00696e-08
1.00652e-08
1.00648e-08
1.0063e-08
1.00619e-08
1.00614e-08
1.00618e-08
1.00626e-08
1.00636e-08
1.00649e-08
1.00685e-08
1.00723e-08
1.00768e-08
1.00863e-08
1.01052e-08
1.01343e-08
1.01707e-08
1.02084e-08
1.02104e-08
1.01994e-08
1.01893e-08
1.01888e-08
1.01743e-08
1.01806e-08
1.0145e-08
1.01074e-08
1.01019e-08
1.00875e-08
1.00799e-08
1.00773e-08
1.00752e-08
1.00735e-08
1.0072e-08
1.00707e-08
1.00693e-08
1.00678e-08
1.00666e-08
1.00654e-08
1.00643e-08
1.00632e-08
1.00621e-08
1.00614e-08
1.00612e-08
1.00612e-08
1.00612e-08
1.00608e-08
1.00605e-08
1.00606e-08
1.00606e-08
1.00606e-08
1.00609e-08
1.00614e-08
1.00616e-08
1.00618e-08
1.00619e-08
1.00619e-08
1.00619e-08
1.00622e-08
1.00626e-08
1.0063e-08
1.00632e-08
1.00635e-08
1.00635e-08
1.00634e-08
1.00633e-08
1.00634e-08
1.00635e-08
1.00637e-08
1.00638e-08
1.0064e-08
1.00641e-08
1.00643e-08
1.00645e-08
1.00646e-08
1.00648e-08
1.0065e-08
1.00652e-08
1.00654e-08
1.00656e-08
1.00657e-08
1.00658e-08
1.00658e-08
1.00659e-08
1.00659e-08
1.0066e-08
1.00661e-08
1.00661e-08
1.00661e-08
1.00661e-08
1.00661e-08
1.00661e-08
1.00662e-08
1.00663e-08
1.00663e-08
1.00663e-08
1.00663e-08
1.00664e-08
1.00664e-08
1.00664e-08
1.00664e-08
1.00666e-08
1.00669e-08
1.00672e-08
1.00678e-08
1.00681e-08
1.00654e-08
1.00528e-08
1.00265e-08
1.2677e-08
1.30444e-08
1.28594e-08
1.21619e-08
1.15659e-08
1.12779e-08
1.12643e-08
1.14998e-08
1.21293e-08
1.35e-08
1.61307e-08
2.0596e-08
2.79298e-08
3.94251e-08
5.53501e-08
7.38266e-08
9.28018e-08
1.13591e-07
1.50501e-07
2.05478e-07
2.76542e-07
3.55677e-07
4.33996e-07
5.12901e-07
5.90624e-07
6.80141e-07
7.71493e-07
7.56677e-07
6.89682e-07
6.86902e-07
7.65868e-07
8.70052e-07
9.61262e-07
9.89924e-07
9.56551e-07
8.85894e-07
7.97198e-07
7.06032e-07
4.99019e-07
2.71313e-07
1.39813e-07
8.57936e-08
6.2457e-08
5.34951e-08
4.70288e-08
3.90615e-08
3.21073e-08
2.76252e-08
2.66505e-08
2.71926e-08
2.68259e-08
2.46462e-08
2.15076e-08
1.86645e-08
1.66962e-08
1.55311e-08
1.50305e-08
1.49344e-08
1.49225e-08
1.48596e-08
1.48625e-08
1.51621e-08
1.59932e-08
1.75298e-08
1.91761e-08
2.00152e-08
1.97707e-08
1.86369e-08
1.71956e-08
1.60847e-08
1.56604e-08
1.5963e-08
1.68628e-08
1.83758e-08
2.06627e-08
2.40033e-08
2.84235e-08
3.40749e-08
4.13512e-08
5.02013e-08
6.23503e-08
8.1518e-08
1.04223e-07
1.36085e-07
1.72884e-07
1.9997e-07
2.24661e-07
2.53656e-07
2.79862e-07
2.93558e-07
3.02755e-07
2.99335e-07
2.80124e-07
2.43885e-07
1.93779e-07
1.4376e-07
9.74391e-08
6.92148e-08
5.10331e-08
4.09527e-08
3.6178e-08
3.39834e-08
3.14154e-08
2.84799e-08
2.58426e-08
2.37802e-08
2.169e-08
1.98692e-08
1.8598e-08
1.78653e-08
1.72516e-08
1.6683e-08
1.62408e-08
1.57126e-08
1.51154e-08
1.44506e-08
1.37548e-08
1.30729e-08
1.24484e-08
1.19154e-08
1.14883e-08
1.12085e-08
1.10576e-08
1.09503e-08
1.08772e-08
1.08368e-08
1.08064e-08
1.07765e-08
1.07461e-08
1.06927e-08
1.06127e-08
1.05304e-08
1.04586e-08
1.04052e-08
1.0369e-08
1.03461e-08
1.03278e-08
1.0315e-08
1.03065e-08
1.03004e-08
1.02977e-08
1.02972e-08
1.02966e-08
1.02963e-08
1.02976e-08
1.03002e-08
1.03032e-08
1.03054e-08
1.03063e-08
1.03078e-08
1.0311e-08
1.0315e-08
1.03182e-08
1.03199e-08
1.03218e-08
1.03249e-08
1.03287e-08
1.03321e-08
1.03346e-08
1.03357e-08
1.03359e-08
1.03362e-08
1.03371e-08
1.03383e-08
1.03388e-08
1.03378e-08
1.0335e-08
1.03321e-08
1.03302e-08
1.0328e-08
1.03243e-08
1.03187e-08
1.03122e-08
1.03059e-08
1.03003e-08
1.02953e-08
1.02899e-08
1.0283e-08
1.02746e-08
1.02655e-08
1.02566e-08
1.02483e-08
1.02407e-08
1.02339e-08
1.02274e-08
1.02207e-08
1.02135e-08
1.02061e-08
1.01991e-08
1.01927e-08
1.0187e-08
1.01818e-08
1.01767e-08
1.01716e-08
1.01666e-08
1.0162e-08
1.01579e-08
1.01541e-08
1.01506e-08
1.01471e-08
1.01436e-08
1.01402e-08
1.01372e-08
1.01343e-08
1.01317e-08
1.01291e-08
1.01266e-08
1.01244e-08
1.01222e-08
1.01201e-08
1.0118e-08
1.0116e-08
1.01141e-08
1.01123e-08
1.01106e-08
1.0109e-08
1.01075e-08
1.01061e-08
1.01046e-08
1.01032e-08
1.01019e-08
1.01006e-08
1.00994e-08
1.00983e-08
1.00972e-08
1.00962e-08
1.00952e-08
1.00942e-08
1.00933e-08
1.00924e-08
1.00915e-08
1.00907e-08
1.009e-08
1.00893e-08
1.00886e-08
1.0088e-08
1.00874e-08
1.00868e-08
1.00863e-08
1.00858e-08
1.00853e-08
1.00849e-08
1.00845e-08
1.00841e-08
1.00838e-08
1.00835e-08
1.00832e-08
1.0083e-08
1.00828e-08
1.00826e-08