/*--------------------------------*- C++ -*----------------------------------*\
| =========                 |                                                 |
| \\      /  F ield         | OpenFOAM: The Open Source CFD Toolbox           |
|  \\    /   O peration     | Version:  v2006                                 |
|   \\  /    A nd           | Website:  www.openfoam.com                      |
|    \\/     M anipulation  |                                                 |
\*---------------------------------------------------------------------------*/
FoamFile
{
    version     2.0;
    format      ascii;
    class       volScalarField;
    location    "9.4";
    object      p_rgh;
}
// * * * * * * * * * * * * * * * * * * * * * * * * * * * * * * * * * * * * * //

dimensions      [1 -1 -2 0 0 0 0];


internalField   nonuniform List<scalar> 
33000
(
8013.4
8009.9
8007
8004.42
8002.41
8000.54
7998.65
7996.6
7994.48
7992.3
7990.05
7987.94
7986.03
7984.3
7982.73
7981.2
7979.82
7978.54
7977.48
7976.78
7976.48
7976.55
7976.93
7977.61
7978.38
7979.08
7979.74
7980.45
7981.22
7982.09
7983.12
7984.36
7985.83
7987.56
7989.54
7991.66
7993.8
7995.9
7997.97
7999.98
8002.16
8004.39
8006.66
8008.97
8011.34
8013.83
8016.38
8018.95
8021.57
8024.04
8026.73
8029.49
8032.28
8035.07
8037.86
8040.64
8043.39
8046.12
8048.84
8051.54
8054.23
8056.87
8059.52
8062.2
8064.84
8067.44
8070.02
8072.57
8075.07
8077.52
8079.9
8082.2
8084.41
8086.58
8088.71
8090.75
8092.78
8094.54
8094.61
8094.91
8099
8100.2
8102.01
8103.59
8105.2
8106.22
8107.95
8109.19
8110.49
8111.54
8112.62
8113.52
8114.42
8115.3
8116.28
8117.25
8118.69
8119.47
8122.36
8122.2
8118.93
8118.2
8116.7
8114.91
8113.21
8110.87
8107.94
8104.89
8101.61
8098.21
8094.34
8090.33
8086
8081.39
8076.9
8071.9
8068.7
8062.3
8052.37
8045.02
8036.58
8027.51
8018.45
8008.57
7997.86
7986.99
7975.74
7964.11
7952.21
7939.96
7927.39
7914.56
7901.59
7888.46
7875.18
7861.76
7848.27
7834.7
7821.09
7807.48
7793.85
7780.28
7766.82
7753.49
7740.3
7727.25
7714.39
7701.73
7689.36
7677.29
7665.48
7653.97
7642.78
7631.94
7621.46
7611.37
7601.64
7592.29
7583.32
7574.74
7566.55
7558.73
7551.3
7544.22
7537.5
7531.14
7525.1
7519.37
7513.93
7508.77
7503.89
7499.24
7494.81
7490.58
7486.51
7482.62
7478.91
7475.41
7472.1
7469.02
7466.16
7463.56
7461.22
7459.16
7457.4
7455.92
7454.73
7453.83
7453.23
7452.94
7452.95
7453.28
7453.89
7454.8
7455.99
7457.46
7459.2
7461.23
7463.53
7466.1
7468.93
7471.98
7475.27
7478.77
7482.49
7486.43
7490.57
7494.89
7499.38
7504.04
7508.88
7513.87
7518.99
7524.23
7529.59
7535.05
7540.62
7546.31
7552.08
7557.93
7563.84
7569.8
7575.81
7581.85
7587.95
7594.09
7600.26
7606.43
7612.61
7618.79
7624.96
7631.13
7637.3
7643.46
7649.59
7655.68
7661.75
7667.77
7673.76
7679.7
7685.6
7691.44
7697.24
7702.99
7708.68
7714.29
7719.84
7725.32
7730.73
7736.09
7741.37
7746.56
7751.68
7756.71
7761.67
7766.55
7771.35
7776.07
7780.69
7785.23
7789.68
7794.04
7798.32
7802.51
7806.6
7810.6
7814.51
7818.32
7822.06
7825.7
7829.24
7832.69
7836.04
7839.3
7842.46
7845.54
7848.53
7851.42
7854.22
7856.93
7859.55
7862.08
7864.52
7866.87
7869.14
7871.32
7873.42
7875.44
7877.38
7879.24
7881.02
7882.73
7884.37
7885.95
7887.45
7888.89
7890.27
7891.59
7892.85
7894.06
7895.23
7896.34
7897.42
7898.45
7899.44
7900.41
7901.34
7902.25
7903.14
7904
7904.85
7905.69
7906.52
7907.33
7908.12
7908.9
7909.66
7910.41
7911.14
7911.85
7912.54
7913.21
7913.87
7914.5
7915.12
7915.72
7916.29
7916.85
7917.39
7917.9
7918.4
7918.88
7919.34
7919.77
7920.19
7920.58
7920.96
7921.31
7921.65
7921.96
7922.25
7922.52
7922.77
7923
7923.21
7923.39
7923.55
7923.69
7923.81
7923.91
7923.98
7924.04
7924.07
7924.07
7924.06
7924.03
7923.97
7923.89
7923.79
7923.67
7923.53
7923.37
7923.19
7922.99
7922.77
7922.54
7922.28
7922.01
7921.72
7921.41
7921.09
7920.75
7920.4
7920.03
7919.64
7919.25
7918.84
7918.41
7917.98
7917.53
7917.07
7916.6
7916.13
7915.64
7915.14
7914.63
7914.12
7913.59
7913.05
7912.51
7911.95
7911.39
7910.82
7910.25
7909.66
7909.07
7908.48
7907.87
7907.26
7906.64
7906.01
7905.37
7904.73
7904.08
7903.43
7902.76
7902.1
7901.42
7900.74
7900.05
7899.35
7898.64
7897.93
7897.21
7896.48
7895.74
7895
7894.25
7893.49
7892.72
7891.95
7891.17
7890.39
7889.59
7888.8
7887.99
7887.19
7886.35
7885.54
7884.7
7883.88
7883.09
7882.25
7881.42
7880.56
7879.69
7878.81
7877.92
7877.02
7876.11
7875.2
7874.28
7873.35
7872.42
7871.48
7870.54
7869.59
7868.64
7867.7
7866.76
7865.81
7864.87
7863.92
7862.97
7862.02
7861.07
7860.11
7859.16
7858.22
7857.28
7856.33
7855.41
7854.45
7853.55
7852.7
7851.81
7850.95
7850.2
7848.95
7848.36
7847.83
7847.21
7846.54
7845.85
7845.12
7844.38
7843.62
7842.86
7842.08
7841.3
7840.5
7839.7
7838.9
7838.09
7837.28
7836.46
7835.63
7834.81
7833.97
7833.14
7832.3
7831.45
7830.6
7829.74
7828.88
7828.01
7827.14
7826.25
7825.36
7824.46
7823.55
7822.63
7821.7
7820.75
7819.8
7818.82
7817.84
7816.84
7815.82
7814.78
7813.72
7812.64
7811.54
7810.41
7809.27
7808.09
7806.89
7805.66
7804.4
7803.1
7801.78
7800.42
7799.03
7797.6
7796.13
7794.63
7793.08
7791.5
7789.87
7788.2
7786.49
7784.73
7782.93
7781.08
7779.18
7777.24
7775.24
7773.2
7771.11
7768.96
7766.77
7764.52
7762.22
7759.87
7757.47
7755.01
7752.5
7749.83
7747.51
7743.99
8012.35
8008.99
8006.14
8003.59
8001.41
7999.45
7997.48
7995.41
7993.22
7991.02
7988.8
7986.82
7985.05
7983.38
7981.89
7980.47
7979.03
7977.63
7976.38
7975.55
7975.29
7975.57
7976.21
7977.19
7978.21
7979.04
7979.67
7980.24
7980.85
7981.59
7982.51
7983.69
7985.22
7987.02
7989.04
7991.3
7993.51
7995.63
7997.73
7999.78
8002
8004.25
8006.52
8008.79
8011.07
8013.65
8016.27
8018.86
8021.45
8023.91
8026.57
8029.38
8032.2
8035
8037.8
8040.58
8043.34
8046.08
8048.82
8051.54
8054.14
8056.84
8059.52
8062.15
8064.86
8067.51
8070.08
8072.61
8075.12
8077.57
8079.95
8082.21
8084.33
8086.48
8088.59
8090.7
8092.75
8094.59
8096.48
8098.76
8100.44
8099.96
8099.51
8103.95
8105.28
8106.93
8108.49
8109.69
8110.73
8111.22
8112.72
8113.52
8114.41
8115.16
8115.94
8116.68
8117.45
8118.21
8118.66
8119.26
8119.23
8121.61
8120.15
8114.99
8112.75
8109.94
8107.67
8105.03
8102.55
8099.3
8095.13
8090.79
8086.13
8081.31
8076.43
8071.28
8065.84
8059.88
8052.92
8048.24
8040.09
8027.95
8018.56
8008.39
7998.01
7987.74
7976.65
7964.82
7952.75
7940.38
7927.75
7914.95
7901.98
7888.83
7875.5
7862.04
7848.5
7834.9
7821.28
7807.64
7793.95
7780.35
7766.85
7753.47
7740.27
7727.2
7714.3
7701.57
7689.18
7677.1
7665.28
7653.74
7642.52
7631.65
7621.16
7611.04
7601.31
7591.94
7582.96
7574.37
7566.17
7558.36
7550.91
7543.81
7537.07
7530.72
7524.69
7518.95
7513.48
7508.31
7503.45
7498.81
7494.37
7490.13
7486.04
7482.13
7478.42
7474.89
7471.61
7468.54
7465.68
7463.08
7460.72
7458.63
7456.84
7455.4
7454.23
7453.34
7452.72
7452.43
7452.44
7452.76
7453.41
7454.33
7455.53
7457
7458.75
7460.79
7463.1
7465.7
7468.54
7471.6
7474.89
7478.4
7482.15
7486.11
7490.26
7494.59
7499.08
7503.75
7508.61
7513.63
7518.76
7524.02
7529.39
7534.85
7540.43
7546.12
7551.92
7557.79
7563.71
7569.68
7575.69
7581.74
7587.85
7593.99
7600.18
7606.37
7612.56
7618.74
7624.91
7631.09
7637.27
7643.43
7649.59
7655.7
7661.76
7667.79
7673.78
7679.72
7685.61
7691.47
7697.27
7703.04
7708.73
7714.35
7719.9
7725.37
7730.79
7736.16
7741.44
7746.64
7751.76
7756.79
7761.75
7766.63
7771.43
7776.16
7780.79
7785.33
7789.78
7794.15
7798.43
7802.62
7806.71
7810.71
7814.61
7818.43
7822.16
7825.81
7829.35
7832.8
7836.16
7839.41
7842.57
7845.65
7848.63
7851.53
7854.33
7857.04
7859.66
7862.19
7864.62
7866.96
7869.23
7871.42
7873.52
7875.54
7877.47
7879.33
7881.11
7882.82
7884.45
7886.02
7887.53
7888.97
7890.34
7891.65
7892.91
7894.12
7895.28
7896.4
7897.47
7898.49
7899.49
7900.45
7901.38
7902.29
7903.17
7904.03
7904.88
7905.72
7906.54
7907.35
7908.14
7908.92
7909.68
7910.43
7911.16
7911.86
7912.56
7913.23
7913.88
7914.52
7915.13
7915.73
7916.31
7916.86
7917.4
7917.92
7918.42
7918.89
7919.35
7919.79
7920.21
7920.6
7920.98
7921.33
7921.67
7921.99
7922.28
7922.55
7922.8
7923.03
7923.24
7923.42
7923.59
7923.73
7923.85
7923.95
7924.02
7924.08
7924.11
7924.12
7924.11
7924.07
7924.02
7923.94
7923.84
7923.72
7923.58
7923.42
7923.24
7923.04
7922.82
7922.58
7922.33
7922.06
7921.77
7921.46
7921.14
7920.8
7920.44
7920.07
7919.69
7919.29
7918.88
7918.46
7918.02
7917.58
7917.12
7916.65
7916.17
7915.68
7915.18
7914.68
7914.16
7913.63
7913.09
7912.55
7911.99
7911.43
7910.86
7910.29
7909.7
7909.11
7908.51
7907.91
7907.29
7906.67
7906.04
7905.41
7904.77
7904.12
7903.46
7902.8
7902.13
7901.46
7900.77
7900.08
7899.38
7898.67
7897.96
7897.24
7896.51
7895.77
7895.03
7894.28
7893.52
7892.75
7891.98
7891.2
7890.42
7889.62
7888.81
7888
7887.18
7886.37
7885.6
7884.78
7883.97
7883.14
7882.31
7881.45
7880.6
7879.72
7878.84
7877.94
7877.04
7876.13
7875.22
7874.29
7873.36
7872.43
7871.48
7870.54
7869.6
7868.65
7867.7
7866.76
7865.81
7864.87
7863.91
7862.97
7862.02
7861.07
7860.12
7859.15
7858.22
7857.21
7856.31
7855.4
7854.51
7853.55
7852.73
7851.34
7850.62
7850.12
7849.42
7848.72
7848.06
7847.34
7846.63
7845.91
7845.17
7844.42
7843.66
7842.89
7842.11
7841.32
7840.53
7839.73
7838.92
7838.11
7837.3
7836.48
7835.65
7834.82
7833.99
7833.15
7832.31
7831.47
7830.62
7829.76
7828.9
7828.03
7827.15
7826.27
7825.38
7824.48
7823.57
7822.66
7821.73
7820.79
7819.83
7818.86
7817.88
7816.88
7815.86
7814.83
7813.77
7812.7
7811.6
7810.48
7809.33
7808.16
7806.96
7805.73
7804.47
7803.18
7801.86
7800.51
7799.11
7797.69
7796.22
7794.72
7793.18
7791.6
7789.97
7788.31
7786.6
7784.84
7783.04
7781.19
7779.3
7777.35
7775.36
7773.32
7771.23
7769.08
7766.89
7764.64
7762.35
7759.99
7757.59
7755.13
7752.62
7749.96
7747.64
7744.11
8011.13
8008.12
8005.28
8002.67
8000.28
7998.05
7995.9
7993.74
7991.51
7989.26
7987.02
7985.15
7983.54
7982.31
7980.89
7979.41
7977.89
7976.38
7975.11
7974.37
7974.25
7974.58
7975.33
7976.38
7977.48
7978.45
7979.14
7979.6
7980.06
7980.59
7981.33
7982.43
7983.98
7985.93
7988.05
7990.44
7992.77
7995.05
7997.08
7999.37
8001.71
8003.97
8006.19
8008.29
8010.68
8013.28
8016.03
8018.68
8021.32
8023.59
8026.28
8029.1
8032.04
8034.89
8037.7
8040.5
8043.28
8045.95
8048.65
8051.46
8054.31
8057.18
8059.85
8062.24
8064.77
8067.34
8070.06
8072.75
8075.29
8077.75
8080.15
8082.38
8084.53
8086.71
8088.95
8091.13
8093.11
8095.01
8096.73
8098.34
8100.11
8102.11
8104.4
8106.24
8105.54
8103.9
8108.38
8110.11
8111.22
8112.28
8113.19
8114.07
8113.96
8115.26
8115.85
8116.57
8117.14
8117.48
8117.75
8117.74
8117.3
8116.86
8116.46
8115.82
8117.68
8115.26
8108.86
8105.56
8101.94
8098.78
8095.07
8091.72
8087.3
8082.2
8076.91
8071.33
8065.64
8059.27
8052.19
8044.65
8037.04
8028.74
8022.93
8013.17
7999.19
7988.32
7976.87
7965.36
7953.98
7941.72
7928.72
7915.73
7902.61
7889.42
7876.09
7862.63
7849
7835.36
7821.7
7807.98
7794.21
7780.51
7766.94
7753.5
7740.24
7727.08
7714.03
7701.29
7688.85
7676.74
7664.86
7653.21
7641.93
7631.1
7620.6
7610.42
7600.57
7591.15
7582.16
7573.6
7565.41
7557.57
7550.1
7542.95
7536.17
7529.82
7523.8
7518.03
7512.53
7507.35
7502.46
7497.84
7493.39
7489.14
7485.04
7481.08
7477.37
7473.84
7470.54
7467.51
7464.66
7462.05
7459.68
7457.56
7455.77
7454.31
7453.19
7452.32
7451.74
7451.43
7451.42
7451.75
7452.4
7453.38
7454.61
7456.11
7457.86
7459.91
7462.26
7464.9
7467.75
7470.83
7474.14
7477.69
7481.47
7485.47
7489.64
7493.98
7498.48
7503.19
7508.09
7513.15
7518.31
7523.59
7528.99
7534.47
7540.06
7545.78
7551.59
7557.51
7563.45
7569.44
7575.47
7581.53
7587.66
7593.82
7600.03
7606.25
7612.46
7618.65
7624.83
7631.03
7637.23
7643.44
7649.59
7655.7
7661.78
7667.8
7673.78
7679.74
7685.66
7691.56
7697.39
7703.14
7708.83
7714.46
7720
7725.48
7730.91
7736.29
7741.6
7746.8
7751.92
7756.96
7761.92
7766.83
7771.64
7776.36
7780.97
7785.5
7789.98
7794.37
7798.65
7802.84
7806.93
7810.92
7814.83
7818.65
7822.4
7826.04
7829.58
7833.03
7836.39
7839.65
7842.8
7845.87
7848.85
7851.74
7854.55
7857.26
7859.88
7862.4
7864.82
7867.17
7869.43
7871.62
7873.72
7875.73
7877.66
7879.51
7881.29
7882.99
7884.63
7886.19
7887.68
7889.11
7890.48
7891.8
7893.05
7894.24
7895.39
7896.5
7897.57
7898.6
7899.58
7900.53
7901.46
7902.37
7903.25
7904.11
7904.95
7905.78
7906.6
7907.4
7908.19
7908.96
7909.72
7910.47
7911.19
7911.9
7912.59
7913.26
7913.91
7914.55
7915.16
7915.76
7916.33
7916.89
7917.43
7917.95
7918.44
7918.92
7919.38
7919.82
7920.24
7920.64
7921.02
7921.38
7921.72
7922.03
7922.33
7922.6
7922.86
7923.09
7923.3
7923.49
7923.66
7923.8
7923.92
7924.02
7924.1
7924.16
7924.19
7924.2
7924.19
7924.16
7924.1
7924.03
7923.93
7923.81
7923.67
7923.51
7923.33
7923.14
7922.92
7922.68
7922.43
7922.15
7921.86
7921.55
7921.23
7920.89
7920.54
7920.17
7919.78
7919.39
7918.98
7918.55
7918.12
7917.67
7917.22
7916.75
7916.26
7915.77
7915.27
7914.76
7914.24
7913.71
7913.17
7912.63
7912.08
7911.51
7910.94
7910.37
7909.78
7909.19
7908.59
7907.98
7907.37
7906.74
7906.11
7905.48
7904.84
7904.19
7903.53
7902.87
7902.2
7901.52
7900.83
7900.14
7899.44
7898.73
7898.02
7897.3
7896.57
7895.83
7895.08
7894.33
7893.58
7892.81
7892.04
7891.24
7890.45
7889.64
7888.86
7888.11
7887.32
7886.52
7885.71
7884.89
7884.06
7883.23
7882.38
7881.52
7880.65
7879.78
7878.89
7877.99
7877.09
7876.17
7875.25
7874.32
7873.38
7872.45
7871.51
7870.57
7869.62
7868.67
7867.73
7866.77
7865.83
7864.89
7863.94
7863
7862.02
7861.09
7860.06
7859.14
7858.21
7857.3
7856.3
7855.45
7853.99
7853.23
7852.72
7852
7851.26
7850.5
7849.69
7848.96
7848.22
7847.48
7846.74
7846
7845.25
7844.48
7843.7
7842.92
7842.14
7841.35
7840.55
7839.74
7838.94
7838.13
7837.31
7836.49
7835.66
7834.84
7834.01
7833.17
7832.33
7831.49
7830.64
7829.79
7828.93
7828.06
7827.19
7826.31
7825.43
7824.53
7823.63
7822.71
7821.79
7820.85
7819.9
7818.94
7817.96
7816.96
7815.95
7814.92
7813.87
7812.81
7811.71
7810.6
7809.46
7808.29
7807.1
7805.88
7804.63
7803.34
7802.03
7800.68
7799.3
7797.88
7796.42
7794.92
7793.38
7791.81
7790.19
7788.53
7786.82
7785.07
7783.27
7781.43
7779.54
7777.6
7775.61
7773.57
7771.48
7769.34
7767.15
7764.9
7762.61
7760.26
7757.86
7755.4
7752.89
7750.23
7747.9
7744.38
8009.78
8006.88
8003.98
8001.35
7998.78
7996.41
7994.1
7991.84
7989.58
7987.31
7985.15
7983.34
7982.19
7980.84
7979.41
7977.98
7976.62
7975.41
7974.5
7974
7973.95
7974.32
7974.98
7975.83
7976.78
7977.56
7978.15
7978.56
7979.06
7979.77
7980.66
7981.87
7983.44
7985.32
7987.43
7989.69
7991.96
7993.96
7996.23
7998.73
8001.17
8003.46
8005.73
8007.78
8010.17
8012.9
8015.7
8018.35
8020.97
8023.35
8025.99
8028.83
8031.85
8034.74
8037.58
8040.42
8043.24
8045.92
8048.64
8051.63
8054.59
8057.39
8060.1
8062.65
8064.91
8067.49
8070.06
8072.77
8075.53
8078.08
8080.52
8082.89
8085.08
8087.08
8089.38
8091.58
8093.58
8095.5
8097.37
8099.17
8100.91
8102.38
8103.83
8105.27
8106.72
8108.84
8111.16
8112.9
8111.44
8108.33
8113.9
8114.09
8115.04
8115.32
8116.17
8115.72
8116.74
8116.65
8116.63
8116.57
8116.19
8115.67
8114.78
8113.01
8111.64
8109.68
8108.94
8107.12
8108.92
8105.53
8097.17
8092.33
8087.12
8082.25
8077.86
8072.43
8066.1
8059.36
8052.14
8044.83
8036.89
8028.26
8019.15
8009.98
8000.16
7993.34
7982.48
7967.08
7954.87
7942.14
7929.48
7917.21
7904.29
7890.73
7877.05
7863.31
7849.58
7835.84
7822.19
7808.47
7794.63
7780.74
7767.06
7753.58
7740.17
7726.84
7713.69
7700.87
7688.38
7676.19
7664.18
7652.4
7641.07
7630.21
7619.68
7609.43
7599.48
7590.02
7580.97
7572.34
7564.17
7556.31
7548.79
7541.56
7534.79
7528.36
7522.34
7516.59
7511.02
7505.81
7500.85
7496.23
7491.79
7487.51
7483.41
7479.42
7475.68
7472.16
7468.92
7465.89
7463.03
7460.43
7458.05
7455.92
7454.14
7452.67
7451.56
7450.75
7450.19
7449.93
7449.94
7450.24
7450.89
7451.89
7453.2
7454.74
7456.57
7458.61
7460.96
7463.59
7466.52
7469.68
7473.05
7476.64
7480.47
7484.49
7488.68
7493.02
7497.61
7502.36
7507.33
7512.42
7517.62
7522.94
7528.34
7533.85
7539.51
7545.26
7551.15
7557.07
7563.04
7569.07
7575.16
7581.27
7587.38
7593.56
7599.77
7606.03
7612.29
7618.52
7624.72
7630.93
7637.17
7643.4
7649.57
7655.7
7661.77
7667.79
7673.82
7679.81
7685.79
7691.7
7697.52
7703.28
7708.96
7714.57
7720.15
7725.67
7731.16
7736.54
7741.82
7747
7752.12
7757.2
7762.22
7767.12
7771.93
7776.63
7781.24
7785.79
7790.28
7794.68
7798.97
7803.16
7807.27
7811.27
7815.16
7818.98
7822.73
7826.39
7829.93
7833.37
7836.71
7839.97
7843.16
7846.24
7849.21
7852.08
7854.86
7857.57
7860.2
7862.72
7865.14
7867.48
7869.74
7871.93
7874.01
7876
7877.92
7879.79
7881.57
7883.27
7884.89
7886.43
7887.91
7889.33
7890.7
7892.01
7893.26
7894.44
7895.58
7896.67
7897.74
7898.76
7899.73
7900.66
7901.59
7902.5
7903.37
7904.22
7905.05
7905.88
7906.7
7907.49
7908.27
7909.03
7909.79
7910.53
7911.25
7911.96
7912.64
7913.31
7913.96
7914.59
7915.2
7915.8
7916.37
7916.93
7917.47
7917.98
7918.48
7918.97
7919.43
7919.87
7920.29
7920.69
7921.07
7921.43
7921.78
7922.1
7922.4
7922.68
7922.94
7923.18
7923.39
7923.58
7923.76
7923.91
7924.03
7924.14
7924.22
7924.28
7924.31
7924.33
7924.32
7924.29
7924.24
7924.16
7924.07
7923.95
7923.82
7923.66
7923.48
7923.28
7923.07
7922.83
7922.57
7922.3
7922.01
7921.7
7921.38
7921.03
7920.68
7920.31
7919.93
7919.53
7919.12
7918.7
7918.26
7917.81
7917.35
7916.88
7916.4
7915.9
7915.4
7914.88
7914.36
7913.84
7913.3
7912.75
7912.2
7911.63
7911.06
7910.48
7909.89
7909.3
7908.7
7908.09
7907.48
7906.85
7906.22
7905.58
7904.94
7904.29
7903.64
7902.97
7902.3
7901.62
7900.93
7900.24
7899.54
7898.83
7898.11
7897.39
7896.66
7895.92
7895.18
7894.43
7893.64
7892.88
7892.09
7891.33
7890.61
7889.83
7889.06
7888.27
7887.47
7886.66
7885.85
7885.01
7884.18
7883.33
7882.48
7881.61
7880.74
7879.85
7878.96
7878.06
7877.14
7876.22
7875.31
7874.38
7873.44
7872.5
7871.54
7870.6
7869.63
7868.69
7867.72
7866.78
7865.8
7864.88
7863.85
7862.95
7862.04
7861.11
7860.19
7859.18
7858.32
7856.76
7855.96
7855.44
7854.68
7853.89
7853.11
7852.24
7851.46
7850.7
7849.93
7849.17
7848.41
7847.65
7846.88
7846.11
7845.34
7844.56
7843.78
7842.99
7842.2
7841.4
7840.6
7839.79
7838.98
7838.16
7837.34
7836.52
7835.7
7834.87
7834.04
7833.2
7832.36
7831.52
7830.68
7829.83
7828.97
7828.11
7827.24
7826.37
7825.49
7824.6
7823.7
7822.79
7821.88
7820.95
7820
7819.05
7818.08
7817.09
7816.09
7815.07
7814.03
7812.97
7811.89
7810.78
7809.65
7808.49
7807.31
7806.1
7804.86
7803.58
7802.28
7800.94
7799.56
7798.15
7796.7
7795.21
7793.68
7792.11
7790.5
7788.85
7787.15
7785.4
7783.61
7781.77
7779.89
7777.96
7775.97
7773.94
7771.85
7769.72
7767.53
7765.29
7763
7760.65
7758.25
7755.8
7753.3
7750.63
7748.31
7744.79
8008.22
8005.35
8002.41
7999.73
7997.02
7994.54
7992.11
7989.76
7987.5
7985.26
7983.17
7981.53
7980.4
7978.99
7977.66
7976.42
7975.3
7974.37
7973.68
7973.28
7973.19
7973.39
7973.82
7974.39
7974.98
7975.59
7976.21
7977.01
7978
7979.04
7980.15
7981.47
7983.03
7984.83
7986.8
7988.79
7990.66
7992.91
7995.36
7998.04
8000.42
8002.75
8005.11
8007.33
8009.72
8012.5
8015.25
8017.91
8020.58
8023.08
8025.6
8028.63
8031.67
8034.56
8037.43
8040.31
8043.2
8046.06
8048.96
8051.87
8054.75
8057.56
8060.33
8063
8065.25
8067.75
8070.34
8072.94
8075.86
8078.54
8081.01
8083.42
8085.74
8087.94
8090
8092.13
8094.2
8096.21
8098.11
8099.94
8101.64
8102.98
8104.52
8106.09
8107.49
8108.94
8110.39
8111.78
8113.28
8115.43
8117.35
8115.21
8109.97
8116.08
8115.66
8116.57
8116.93
8117.01
8115.74
8116.09
8115.29
8114.64
8113.78
8112.53
8111.02
8109.5
8106.79
8104.83
8102.36
8100.42
8098.02
8099.13
8094.4
8084.45
8078.51
8072.2
8066.14
8060.28
8053.26
8045.32
8036.96
8028.25
8019.47
8010.06
7999.77
7989.47
7979.22
7968.26
7960.36
7947.95
7931.15
7918.09
7904.64
7891.47
7878.15
7865.08
7851.31
7837.03
7822.95
7809.01
7795.14
7781.28
7767.46
7753.7
7740.03
7726.44
7713.25
7700.32
7687.79
7675.4
7663.14
7651.33
7639.9
7628.97
7618.36
7608.04
7598
7588.43
7579.31
7570.62
7562.41
7554.51
7546.88
7539.61
7532.79
7526.31
7520.27
7514.5
7508.88
7503.56
7498.57
7493.89
7489.46
7485.17
7481.04
7477.02
7473.28
7469.81
7466.64
7463.58
7460.74
7458.16
7455.81
7453.67
7451.89
7450.44
7449.3
7448.58
7448.06
7447.84
7447.92
7448.25
7448.88
7449.92
7451.29
7452.88
7454.76
7456.86
7459.23
7461.92
7464.87
7468.14
7471.6
7475.25
7479.11
7483.13
7487.33
7491.8
7496.45
7501.34
7506.34
7511.45
7516.69
7522.01
7527.45
7533.06
7538.79
7544.67
7550.55
7556.46
7562.44
7568.51
7574.68
7580.89
7587.1
7593.32
7599.51
7605.72
7611.99
7618.26
7624.53
7630.86
7637.14
7643.36
7649.55
7655.7
7661.77
7667.84
7673.89
7679.94
7685.95
7691.85
7697.68
7703.41
7709.12
7714.78
7720.39
7725.98
7731.45
7736.83
7742.11
7747.29
7752.44
7757.51
7762.56
7767.49
7772.3
7776.99
7781.63
7786.19
7790.7
7795.11
7799.4
7803.6
7807.7
7811.72
7815.62
7819.43
7823.2
7826.85
7830.38
7833.81
7837.16
7840.43
7843.63
7846.7
7849.68
7852.55
7855.31
7858
7860.61
7863.16
7865.6
7867.94
7870.19
7872.32
7874.39
7876.39
7878.31
7880.18
7881.95
7883.63
7885.23
7886.76
7888.23
7889.65
7891.02
7892.31
7893.54
7894.72
7895.84
7896.93
7897.99
7898.98
7899.93
7900.87
7901.78
7902.69
7903.56
7904.39
7905.21
7906.03
7906.84
7907.63
7908.39
7909.14
7909.88
7910.62
7911.34
7912.04
7912.71
7913.37
7914.02
7914.64
7915.26
7915.85
7916.43
7916.98
7917.51
7918.03
7918.53
7919.02
7919.49
7919.94
7920.36
7920.75
7921.14
7921.51
7921.87
7922.2
7922.5
7922.79
7923.05
7923.28
7923.5
7923.7
7923.89
7924.05
7924.18
7924.29
7924.38
7924.44
7924.48
7924.5
7924.5
7924.47
7924.42
7924.35
7924.26
7924.15
7924.01
7923.86
7923.68
7923.48
7923.27
7923.03
7922.77
7922.5
7922.21
7921.9
7921.58
7921.23
7920.88
7920.51
7920.13
7919.73
7919.31
7918.89
7918.45
7918
7917.53
7917.06
7916.57
7916.08
7915.57
7915.05
7914.54
7914
7913.46
7912.91
7912.35
7911.79
7911.22
7910.64
7910.04
7909.45
7908.85
7908.24
7907.62
7907
7906.36
7905.72
7905.08
7904.43
7903.77
7903.11
7902.43
7901.75
7901.06
7900.36
7899.66
7898.95
7898.24
7897.52
7896.79
7896.02
7895.28
7894.5
7893.77
7893.08
7892.33
7891.58
7890.81
7890.04
7889.25
7888.46
7887.65
7886.83
7886
7885.17
7884.32
7883.47
7882.6
7881.73
7880.84
7879.95
7879.06
7878.16
7877.24
7876.32
7875.39
7874.45
7873.51
7872.55
7871.6
7870.63
7869.69
7868.7
7867.77
7866.74
7865.82
7864.94
7864.01
7863.17
7862.13
7861.19
7859.64
7858.78
7858.44
7857.42
7856.65
7855.83
7854.94
7854.14
7853.34
7852.54
7851.74
7850.95
7850.16
7849.38
7848.6
7847.81
7847.03
7846.24
7845.45
7844.66
7843.86
7843.07
7842.26
7841.46
7840.65
7839.84
7839.02
7838.2
7837.38
7836.56
7835.74
7834.91
7834.08
7833.24
7832.41
7831.57
7830.73
7829.88
7829.03
7828.18
7827.31
7826.45
7825.57
7824.69
7823.8
7822.9
7822
7821.07
7820.14
7819.2
7818.24
7817.26
7816.27
7815.26
7814.24
7813.19
7812.12
7811.03
7809.91
7808.76
7807.59
7806.39
7805.16
7803.9
7802.61
7801.28
7799.92
7798.52
7797.08
7795.61
7794.09
7792.53
7790.93
7789.28
7787.59
7785.86
7784.08
7782.25
7780.37
7778.44
7776.47
7774.44
7772.36
7770.23
7768.05
7765.81
7763.52
7761.18
7758.78
7756.33
7753.83
7751.17
7748.84
7745.32
8006.32
8003.5
8000.46
7997.7
7994.94
7992.39
7989.88
7987.48
7985.24
7983.14
7981.21
7979.55
7978.18
7976.84
7975.6
7974.47
7973.51
7972.73
7972.18
7971.87
7971.8
7971.94
7972.28
7972.74
7973.24
7973.72
7974.51
7975.49
7976.69
7977.78
7979.01
7980.42
7982.03
7983.74
7985.38
7987.19
7989.43
7991.88
7994.66
7997.1
7999.45
8001.84
8004.28
8006.75
8009.3
8011.94
8014.63
8017.34
8020.09
8022.8
8025.47
8028.38
8031.37
8034.29
8037.21
8040.15
8043.12
8046.08
8049.04
8051.97
8054.88
8057.75
8060.59
8063.39
8065.95
8068.1
8070.72
8073.35
8076.4
8079.15
8081.64
8084.07
8086.43
8088.71
8090.91
8092.82
8094.65
8096.89
8098.97
8100.85
8102.63
8104.12
8105.53
8107.28
8108.93
8110.33
8111.65
8112.8
8113.81
8114.59
8115.33
8116.12
8118.15
8120.12
8117.46
8110.89
8117.56
8116.63
8116.62
8116.05
8115.42
8113.37
8113.07
8111.23
8109.48
8107.7
8105.93
8103.72
8101.58
8098.78
8095.38
8091.9
8088.62
8085.3
8085.59
8079.71
8067.88
8060.44
8052.71
8045.39
8038.16
8029.58
8020.09
8010.23
8000.03
7989.97
7979.4
7967.99
7956.38
7944.53
7932.43
7923.8
7910.9
7893.28
7879.21
7865.09
7851.57
7837.58
7824.09
7810.06
7795.81
7781.68
7767.66
7753.73
7739.81
7726.06
7712.66
7699.67
7686.96
7674.36
7661.9
7649.93
7638.4
7627.37
7616.61
7606.18
7596.1
7586.32
7577.11
7568.38
7560.08
7552.08
7544.4
7537
7530.09
7523.59
7517.5
7511.62
7506
7500.55
7495.49
7490.83
7486.34
7482.01
7477.85
7473.82
7470.08
7466.74
7463.55
7460.51
7457.69
7455.14
7452.85
7450.81
7448.99
7447.55
7446.43
7445.69
7445.31
7445.15
7445.29
7445.73
7446.48
7447.49
7448.74
7450.35
7452.34
7454.63
7457.09
7459.84
7462.96
7466.23
7469.73
7473.44
7477.3
7481.38
7485.73
7490.28
7495.1
7500.02
7505.05
7510.22
7515.52
7520.88
7526.41
7532.08
7537.92
7543.83
7549.77
7555.72
7561.77
7567.9
7574.11
7580.39
7586.64
7592.92
7599.21
7605.46
7611.71
7618.03
7624.33
7630.69
7637.03
7643.3
7649.53
7655.73
7661.85
7667.91
7674
7680.13
7686.12
7692.03
7697.84
7703.62
7709.37
7715.08
7720.78
7726.33
7731.81
7737.19
7742.46
7747.68
7752.85
7757.97
7763.03
7767.95
7772.77
7777.47
7782.12
7786.72
7791.25
7795.64
7799.94
7804.12
7808.21
7812.26
7816.22
7820.06
7823.79
7827.43
7830.94
7834.38
7837.74
7841.04
7844.22
7847.29
7850.26
7853.13
7855.89
7858.57
7861.18
7863.73
7866.16
7868.49
7870.73
7872.86
7874.9
7876.9
7878.84
7880.68
7882.43
7884.1
7885.67
7887.19
7888.67
7890.09
7891.43
7892.7
7893.92
7895.08
7896.19
7897.28
7898.32
7899.31
7900.25
7901.16
7902.08
7902.96
7903.81
7904.63
7905.44
7906.24
7907.04
7907.81
7908.56
7909.29
7910.03
7910.75
7911.46
7912.15
7912.82
7913.46
7914.1
7914.73
7915.34
7915.93
7916.5
7917.06
7917.59
7918.1
7918.6
7919.1
7919.57
7920.02
7920.44
7920.85
7921.24
7921.63
7921.98
7922.31
7922.63
7922.92
7923.18
7923.42
7923.65
7923.87
7924.06
7924.22
7924.36
7924.48
7924.57
7924.64
7924.69
7924.71
7924.72
7924.7
7924.66
7924.59
7924.5
7924.39
7924.26
7924.1
7923.93
7923.73
7923.52
7923.28
7923.03
7922.75
7922.46
7922.16
7921.83
7921.48
7921.12
7920.76
7920.37
7919.97
7919.55
7919.12
7918.68
7918.23
7917.76
7917.29
7916.8
7916.3
7915.78
7915.27
7914.75
7914.21
7913.67
7913.11
7912.55
7911.99
7911.41
7910.82
7910.23
7909.64
7909.04
7908.42
7907.81
7907.17
7906.54
7905.9
7905.26
7904.6
7903.95
7903.27
7902.6
7901.91
7901.23
7900.55
7899.84
7899.14
7898.38
7897.66
7896.89
7896.18
7895.53
7894.8
7894.09
7893.34
7892.59
7891.82
7891.05
7890.26
7889.47
7888.66
7887.85
7887.03
7886.2
7885.34
7884.5
7883.62
7882.76
7881.88
7881
7880.1
7879.2
7878.28
7877.35
7876.43
7875.48
7874.54
7873.58
7872.64
7871.64
7870.71
7869.64
7868.72
7867.75
7866.83
7865.77
7864.97
7863.46
7862.67
7862.22
7861.29
7860.51
7859.64
7858.75
7857.81
7856.95
7856.11
7855.27
7854.45
7853.63
7852.81
7852
7851.19
7850.38
7849.58
7848.78
7847.98
7847.18
7846.37
7845.57
7844.76
7843.96
7843.15
7842.34
7841.52
7840.71
7839.89
7839.07
7838.25
7837.43
7836.61
7835.78
7834.95
7834.12
7833.29
7832.46
7831.63
7830.79
7829.95
7829.1
7828.25
7827.4
7826.54
7825.68
7824.8
7823.92
7823.04
7822.14
7821.23
7820.31
7819.38
7818.44
7817.48
7816.5
7815.5
7814.49
7813.46
7812.41
7811.33
7810.23
7809.1
7807.94
7806.76
7805.55
7804.3
7803.03
7801.71
7800.37
7798.98
7797.56
7796.1
7794.59
7793.05
7791.46
7789.83
7788.15
7786.43
7784.66
7782.84
7780.97
7779.05
7777.08
7775.06
7772.99
7770.87
7768.69
7766.46
7764.18
7761.84
7759.44
7757
7754.5
7751.83
7749.51
7745.99
8004.08
8001.28
7998.18
7995.35
7992.51
7989.88
7987.34
7984.92
7982.69
7980.64
7978.74
7977.05
7975.63
7974.35
7973.18
7972.16
7971.3
7970.63
7970.16
7969.89
7969.83
7969.97
7970.28
7970.74
7971.27
7971.76
7972.52
7973.85
7975
7976.2
7977.55
7979.01
7980.33
7981.69
7983.72
7985.86
7988.33
7991.11
7993.54
7995.88
7998.27
8000.73
8003.25
8005.82
8008.44
8011.12
8013.85
8016.64
8019.47
8022.34
8025.23
8027.89
8030.84
8033.88
8036.92
8039.94
8042.98
8046.02
8049.04
8052.04
8055.02
8057.97
8060.89
8063.78
8066.6
8069.06
8071.18
8073.98
8077.1
8079.87
8082.4
8084.87
8087.27
8089.6
8091.81
8093.61
8095.57
8097.7
8099.98
8101.94
8103.75
8105.46
8107.07
8108.59
8109.99
8111.25
8112.11
8113.23
8114.54
8115.76
8116.58
8117.13
8117.49
8118.1
8118.85
8120.64
8122.39
8118.75
8110.19
8116.77
8115.27
8114.37
8113.26
8111.63
8108.17
8107.1
8104.89
8102.7
8100.02
8097.27
8094.01
8090.73
8087.06
8082.5
8077.97
8073.57
8069.23
8068.58
8061.2
8047.29
8038.23
8028.98
8020.08
8011.31
8001.46
7990.59
7979.39
7968.01
7956.64
7944.74
7931.78
7919.21
7906.06
7893.73
7881.33
7871.36
7857.73
7839.46
7824.68
7810.45
7796.3
7782.46
7768.23
7753.77
7739.46
7725.48
7711.94
7698.83
7685.81
7673.01
7660.42
7648.13
7636.52
7625.3
7614.34
7603.76
7593.58
7583.66
7574.33
7565.52
7557.03
7548.9
7541.16
7533.71
7526.64
7520.1
7513.85
7507.87
7502.18
7496.7
7491.62
7486.87
7482.29
7477.94
7473.73
7469.72
7466.09
7462.8
7459.58
7456.58
7453.76
7451.15
7448.96
7447.15
7445.5
7444.09
7442.91
7442.13
7441.74
7441.79
7442.02
7442.54
7443.37
7444.44
7445.73
7447.45
7449.47
7451.78
7454.48
7457.42
7460.53
7463.88
7467.45
7471.2
7475.12
7479.36
7483.81
7488.55
7493.4
7498.36
7503.47
7508.73
7514.14
7519.65
7525.2
7530.91
7536.75
7542.75
7548.84
7554.93
7561.03
7567.2
7573.48
7579.76
7585.99
7592.32
7598.78
7605.17
7611.51
7617.78
7624.1
7630.46
7636.9
7643.22
7649.51
7655.73
7661.86
7667.97
7674.15
7680.29
7686.32
7692.28
7698.14
7703.91
7709.68
7715.47
7721.16
7726.73
7732.23
7737.64
7742.92
7748.15
7753.34
7758.53
7763.57
7768.51
7773.36
7778.08
7782.71
7787.36
7791.88
7796.28
7800.58
7804.74
7808.85
7812.92
7816.9
7820.75
7824.49
7828.12
7831.64
7835.08
7838.46
7841.76
7844.93
7848
7850.96
7853.84
7856.6
7859.26
7861.9
7864.42
7866.84
7869.16
7871.39
7873.52
7875.54
7877.55
7879.46
7881.29
7883.03
7884.68
7886.24
7887.73
7889.2
7890.61
7891.94
7893.2
7894.4
7895.55
7896.66
7897.72
7898.74
7899.7
7900.64
7901.56
7902.45
7903.31
7904.14
7904.95
7905.74
7906.52
7907.28
7908.03
7908.77
7909.51
7910.22
7910.93
7911.61
7912.28
7912.94
7913.59
7914.23
7914.84
7915.44
7916.02
7916.59
7917.14
7917.68
7918.21
7918.71
7919.19
7919.66
7920.11
7920.55
7920.97
7921.37
7921.75
7922.11
7922.45
7922.77
7923.07
7923.35
7923.61
7923.85
7924.07
7924.27
7924.44
7924.59
7924.71
7924.82
7924.89
7924.94
7924.98
7924.99
7924.98
7924.94
7924.87
7924.79
7924.68
7924.56
7924.4
7924.23
7924.03
7923.82
7923.59
7923.33
7923.06
7922.77
7922.46
7922.13
7921.78
7921.42
7921.05
7920.66
7920.25
7919.84
7919.4
7918.96
7918.5
7918.04
7917.56
7917.07
7916.56
7916.05
7915.53
7915
7914.47
7913.91
7913.36
7912.8
7912.23
7911.64
7911.05
7910.46
7909.87
7909.26
7908.64
7908.02
7907.39