/*--------------------------------*- C++ -*----------------------------------*\
| =========                 |                                                 |
| \\      /  F ield         | OpenFOAM: The Open Source CFD Toolbox           |
|  \\    /   O peration     | Version:  v2006                                 |
|   \\  /    A nd           | Website:  www.openfoam.com                      |
|    \\/     M anipulation  |                                                 |
\*---------------------------------------------------------------------------*/
FoamFile
{
    version     2.0;
    format      ascii;
    class       volScalarField;
    location    "4.5";
    object      k;
}
// * * * * * * * * * * * * * * * * * * * * * * * * * * * * * * * * * * * * * //

dimensions      [0 2 -2 0 0 0 0];


internalField   nonuniform List<scalar> 
33000
(
1.04676e-08
1.12362e-08
1.2344e-08
1.37481e-08
1.57439e-08
1.88335e-08
2.35281e-08
3.05356e-08
4.12424e-08
5.64262e-08
7.4213e-08
9.08093e-08
1.03361e-07
1.11452e-07
1.16158e-07
1.18795e-07
1.20334e-07
1.2133e-07
1.22038e-07
1.22567e-07
1.22988e-07
1.23373e-07
1.23787e-07
1.24262e-07
1.24788e-07
1.25324e-07
1.25816e-07
1.26233e-07
1.26585e-07
1.26903e-07
1.27196e-07
1.27441e-07
1.27619e-07
1.27746e-07
1.27843e-07
1.2789e-07
1.27815e-07
1.27554e-07
1.27151e-07
1.26707e-07
1.26305e-07
1.2594e-07
1.25537e-07
1.25035e-07
1.24428e-07
1.23766e-07
1.23112e-07
1.22497e-07
1.21931e-07
1.21419e-07
1.20962e-07
1.20549e-07
1.20121e-07
1.19554e-07
1.18694e-07
1.17428e-07
1.15756e-07
1.13696e-07
1.11185e-07
1.08097e-07
1.04414e-07
1.0025e-07
9.56336e-08
9.11653e-08
8.72041e-08
8.31433e-08
7.87704e-08
7.43819e-08
7.04599e-08
6.72549e-08
6.49454e-08
6.35867e-08
6.33921e-08
6.46783e-08
6.80214e-08
7.23154e-08
7.69446e-08
8.15338e-08
8.46984e-08
8.79462e-08
8.98198e-08
8.84386e-08
8.7314e-08
8.55002e-08
8.50564e-08
8.4511e-08
8.42558e-08
8.38152e-08
8.25558e-08
8.02929e-08
7.6947e-08
7.30008e-08
6.89966e-08
6.46665e-08
6.04149e-08
5.7074e-08
5.43346e-08
5.29618e-08
5.378e-08
5.78035e-08
6.27632e-08
6.48393e-08
6.41225e-08
6.30108e-08
6.24463e-08
6.21854e-08
6.19616e-08
6.15209e-08
6.1e-08
6.02958e-08
5.94931e-08
5.85749e-08
5.73426e-08
5.56783e-08
5.37432e-08
5.21052e-08
5.14139e-08
5.25485e-08
5.43822e-08
5.50026e-08
5.49324e-08
5.46455e-08
5.46782e-08
5.47967e-08
5.49559e-08
5.50337e-08
5.50829e-08
5.50615e-08
5.50894e-08
5.5096e-08
5.51291e-08
5.51326e-08
5.51766e-08
5.52397e-08
5.53694e-08
5.55446e-08
5.5784e-08
5.60604e-08
5.63443e-08
5.65842e-08
5.67666e-08
5.6886e-08
5.69531e-08
5.69742e-08
5.69454e-08
5.68631e-08
5.67519e-08
5.66397e-08
5.65297e-08
5.64178e-08
5.62964e-08
5.61648e-08
5.60324e-08
5.59088e-08
5.57926e-08
5.56743e-08
5.55474e-08
5.54177e-08
5.52967e-08
5.51854e-08
5.50739e-08
5.49564e-08
5.4839e-08
5.47298e-08
5.46232e-08
5.45088e-08
5.43883e-08
5.42746e-08
5.41716e-08
5.40672e-08
5.39529e-08
5.38373e-08
5.37345e-08
5.36439e-08
5.35524e-08
5.34527e-08
5.33512e-08
5.32602e-08
5.31806e-08
5.3104e-08
5.30243e-08
5.29418e-08
5.28662e-08
5.28036e-08
5.27418e-08
5.26629e-08
5.25743e-08
5.25022e-08
5.24461e-08
5.23858e-08
5.23161e-08
5.22427e-08
5.21693e-08
5.2095e-08
5.20142e-08
5.19281e-08
5.18465e-08
5.17649e-08
5.16723e-08
5.15658e-08
5.14534e-08
5.13537e-08
5.12722e-08
5.1192e-08
5.1097e-08
5.09897e-08
5.08792e-08
5.07793e-08
5.06968e-08
5.06175e-08
5.05243e-08
5.04209e-08
5.03253e-08
5.02453e-08
5.01628e-08
5.00568e-08
4.99426e-08
4.98263e-08
4.97113e-08
4.96087e-08
4.95017e-08
4.93637e-08
4.92038e-08
4.90331e-08
4.88642e-08
4.87044e-08
4.85453e-08
4.83678e-08
4.81806e-08
4.79945e-08
4.78047e-08
4.76154e-08
4.74391e-08
4.72607e-08
4.70686e-08
4.68764e-08
4.6685e-08
4.64933e-08
4.63049e-08
4.61156e-08
4.59338e-08
4.57668e-08
4.56194e-08
4.54865e-08
4.53606e-08
4.52429e-08
4.51371e-08
4.50516e-08
4.49736e-08
4.48948e-08
4.48217e-08
4.47628e-08
4.47122e-08
4.46631e-08
4.46191e-08
4.45748e-08
4.45138e-08
4.44403e-08
4.43522e-08
4.42511e-08
4.41389e-08
4.40106e-08
4.38683e-08
4.37151e-08
4.3553e-08
4.33832e-08
4.32027e-08
4.3011e-08
4.28068e-08
4.25927e-08
4.23729e-08
4.21471e-08
4.1915e-08
4.16743e-08
4.14237e-08
4.11655e-08
4.09011e-08
4.06317e-08
4.03566e-08
4.00797e-08
3.98035e-08
3.95294e-08
3.92546e-08
3.89778e-08
3.87006e-08
3.84238e-08
3.81477e-08
3.78721e-08
3.75968e-08
3.73213e-08
3.70455e-08
3.67702e-08
3.64962e-08
3.6224e-08
3.59536e-08
3.56843e-08
3.54162e-08
3.51505e-08
3.48873e-08
3.46264e-08
3.43682e-08
3.41121e-08
3.38588e-08
3.36085e-08
3.33613e-08
3.31171e-08
3.28751e-08
3.26361e-08
3.24004e-08
3.21676e-08
3.19373e-08
3.1709e-08
3.14832e-08
3.12606e-08
3.10418e-08
3.08267e-08
3.06151e-08
3.04073e-08
3.02031e-08
3.00019e-08
2.98035e-08
2.96075e-08
2.94142e-08
2.92235e-08
2.90348e-08
2.88477e-08
2.8662e-08
2.84779e-08
2.82952e-08
2.81134e-08
2.79323e-08
2.77517e-08
2.75713e-08
2.73909e-08
2.72104e-08
2.70297e-08
2.68485e-08
2.66669e-08
2.64846e-08
2.6302e-08
2.61187e-08
2.59347e-08
2.57501e-08
2.55648e-08
2.53787e-08
2.51919e-08
2.50044e-08
2.48161e-08
2.46269e-08
2.44368e-08
2.42463e-08
2.4055e-08
2.38632e-08
2.36708e-08
2.34779e-08
2.32849e-08
2.30916e-08
2.28979e-08
2.2704e-08
2.251e-08
2.23158e-08
2.21215e-08
2.19271e-08
2.17328e-08
2.15388e-08
2.13453e-08
2.11521e-08
2.09594e-08
2.07669e-08
2.05749e-08
2.03833e-08
2.01923e-08
2.0002e-08
1.98122e-08
1.96233e-08
1.94352e-08
1.9248e-08
1.90618e-08
1.88765e-08
1.86921e-08
1.85088e-08
1.83265e-08
1.81451e-08
1.79649e-08
1.77857e-08
1.76077e-08
1.74309e-08
1.72551e-08
1.70807e-08
1.69073e-08
1.6735e-08
1.65638e-08
1.63942e-08
1.62259e-08
1.60587e-08
1.58931e-08
1.57286e-08
1.55655e-08
1.54031e-08
1.52422e-08
1.50823e-08
1.4924e-08
1.47667e-08
1.46111e-08
1.44583e-08
1.4309e-08
1.4163e-08
1.40204e-08
1.38811e-08
1.37449e-08
1.3612e-08
1.34822e-08
1.33552e-08
1.32313e-08
1.31105e-08
1.29917e-08
1.28754e-08
1.27617e-08
1.26475e-08
1.2539e-08
1.24365e-08
1.23298e-08
1.22328e-08
1.21313e-08
1.2003e-08
1.19099e-08
1.18484e-08
1.17287e-08
1.17287e-08
1.17073e-08
1.18945e-08
1.18256e-08
1.18733e-08
1.18273e-08
1.18206e-08
1.17748e-08
1.17492e-08
1.17076e-08
1.16758e-08
1.16324e-08
1.15952e-08
1.15528e-08
1.14809e-08
1.14418e-08
1.14188e-08
1.13486e-08
1.13845e-08
1.13904e-08
1.15501e-08
1.15327e-08
1.15816e-08
1.15776e-08
1.15887e-08
1.15835e-08
1.15891e-08
1.15766e-08
1.15717e-08
1.15314e-08
1.15154e-08
1.151e-08
1.14625e-08
1.14766e-08
1.14182e-08
1.11812e-08
1.11626e-08
1.1239e-08
1.10577e-08
1.18271e-08
1.23078e-08
1.47237e-08
1.50818e-08
1.60829e-08
1.65217e-08
1.69466e-08
1.72573e-08
1.75067e-08
1.76973e-08
1.78424e-08
1.79587e-08
1.80545e-08
1.81343e-08
1.8201e-08
1.82555e-08
1.82987e-08
1.83349e-08
1.8365e-08
1.83897e-08
1.84091e-08
1.84238e-08
1.84344e-08
1.84414e-08
1.84454e-08
1.84465e-08
1.84451e-08
1.8441e-08
1.84341e-08
1.84247e-08
1.84126e-08
1.83976e-08
1.83796e-08
1.83584e-08
1.83339e-08
1.83061e-08
1.82755e-08
1.82425e-08
1.82076e-08
1.81714e-08
1.81339e-08
1.80956e-08
1.80565e-08
1.80171e-08
1.79776e-08
1.79379e-08
1.78981e-08
1.7858e-08
1.78173e-08
1.77758e-08
1.77331e-08
1.76891e-08
1.76437e-08
1.75969e-08
1.75491e-08
1.75007e-08
1.74524e-08
1.74041e-08
1.73556e-08
1.73061e-08
1.72551e-08
1.72031e-08
1.71514e-08
1.71008e-08
1.70507e-08
1.69997e-08
1.69468e-08
1.68928e-08
1.68393e-08
1.67862e-08
1.67319e-08
1.66753e-08
1.6617e-08
1.65585e-08
1.64996e-08
1.64394e-08
1.6378e-08
1.63176e-08
1.62584e-08
1.61812e-08
1.60744e-08
1.59361e-08
1.39808e-08
1.00944e-08
1.03856e-08
1.08652e-08
1.1689e-08
1.34076e-08
1.67873e-08
2.25725e-08
3.11922e-08
4.16084e-08
5.16576e-08
5.88072e-08
6.14772e-08
6.02056e-08
5.66295e-08
5.22595e-08
4.81841e-08
4.5388e-08
4.38403e-08
4.25292e-08
4.07945e-08
3.88248e-08
3.73219e-08
3.67954e-08
3.70833e-08
3.79204e-08
3.86523e-08
3.85692e-08
3.74865e-08
3.61641e-08
3.56122e-08
3.58943e-08
3.56564e-08
3.43402e-08
3.29151e-08
3.28518e-08
3.43527e-08
3.57402e-08
3.49998e-08
3.24355e-08
2.99968e-08
2.95039e-08
3.07567e-08
3.18217e-08
3.14798e-08
2.98389e-08
2.79514e-08
2.69662e-08
2.69831e-08
2.71027e-08
2.65139e-08
2.57682e-08
2.59766e-08
2.71537e-08
2.83308e-08
2.84014e-08
2.69297e-08
2.52822e-08
2.48692e-08
2.54096e-08
2.52082e-08
2.37382e-08
2.19212e-08
2.11433e-08
2.18498e-08
2.32936e-08
2.50512e-08
2.69316e-08
2.84289e-08
2.88908e-08
2.86158e-08
2.81925e-08
2.7888e-08
2.7839e-08
2.81742e-08
2.92224e-08
3.38825e-08
3.957e-08
4.49884e-08
4.22808e-08
3.68745e-08
3.33486e-08
2.68483e-08
2.21647e-08
1.77818e-08
1.53761e-08
1.43737e-08
1.32818e-08
1.30687e-08
1.25059e-08
1.26631e-08
1.31915e-08
1.38101e-08
1.44775e-08
1.50189e-08
1.52831e-08
1.5311e-08
1.50217e-08
1.45142e-08
1.40798e-08
1.38358e-08
1.43006e-08
1.55156e-08
1.60986e-08
1.58655e-08
1.58597e-08
1.47141e-08
1.3297e-08
1.29691e-08
1.32988e-08
1.32998e-08
1.31505e-08
1.30726e-08
1.28174e-08
1.25805e-08
1.23352e-08
1.2125e-08
1.19142e-08
1.18723e-08
1.2506e-08
1.30809e-08
1.33242e-08
1.32983e-08
1.36678e-08
1.33186e-08
1.2864e-08
1.28406e-08
1.2757e-08
1.27309e-08
1.2724e-08
1.26025e-08
1.25215e-08
1.24839e-08
1.24054e-08
1.23666e-08
1.23381e-08
1.23121e-08
1.22705e-08
1.22267e-08
1.21841e-08
1.21283e-08
1.20741e-08
1.20165e-08
1.19722e-08
1.19238e-08
1.18638e-08
1.17976e-08
1.17486e-08
1.17111e-08
1.16725e-08
1.16227e-08
1.15611e-08
1.1507e-08
1.14679e-08
1.14361e-08
1.14031e-08
1.13619e-08
1.1316e-08
1.12797e-08
1.12536e-08
1.12256e-08
1.11885e-08
1.11529e-08
1.11267e-08
1.11051e-08
1.1077e-08
1.10433e-08
1.10165e-08
1.09992e-08
1.09812e-08
1.09545e-08
1.09258e-08
1.09055e-08
1.0893e-08
1.08808e-08
1.08639e-08
1.08435e-08
1.08271e-08
1.08175e-08
1.08101e-08
1.08018e-08
1.07935e-08
1.07853e-08
1.07806e-08
1.07781e-08
1.07744e-08
1.07691e-08
1.07668e-08
1.07687e-08
1.07722e-08
1.07739e-08
1.07737e-08
1.07733e-08
1.07734e-08
1.07729e-08
1.07718e-08
1.07705e-08
1.07696e-08
1.07677e-08
1.07635e-08
1.07585e-08
1.07556e-08
1.07554e-08
1.07554e-08
1.07522e-08
1.07453e-08
1.07378e-08
1.07329e-08
1.07313e-08
1.07293e-08
1.07241e-08
1.07172e-08
1.07122e-08
1.07088e-08
1.07046e-08
1.06978e-08
1.06891e-08
1.06825e-08
1.06795e-08
1.06784e-08
1.06769e-08
1.06711e-08
1.06616e-08
1.06535e-08
1.06497e-08
1.06487e-08
1.06472e-08
1.06442e-08
1.06396e-08
1.06332e-08
1.06272e-08
1.06248e-08
1.0625e-08
1.06245e-08
1.06216e-08
1.06159e-08
1.06113e-08
1.0611e-08
1.06138e-08
1.06157e-08
1.06157e-08
1.06151e-08
1.06151e-08
1.06153e-08
1.06164e-08
1.06177e-08
1.06175e-08
1.06203e-08
1.06261e-08
1.06285e-08
1.06272e-08
1.06272e-08
1.06297e-08
1.06328e-08
1.06334e-08
1.06338e-08
1.06351e-08
1.06349e-08
1.06333e-08
1.06324e-08
1.06324e-08
1.06313e-08
1.06278e-08
1.06238e-08
1.06212e-08
1.06205e-08
1.06196e-08
1.06176e-08
1.06129e-08
1.0605e-08
1.05979e-08
1.05934e-08
1.05911e-08
1.05892e-08
1.05853e-08
1.05793e-08
1.05722e-08
1.05655e-08
1.05603e-08
1.05551e-08
1.05483e-08
1.05427e-08
1.054e-08
1.05354e-08
1.05278e-08
1.05192e-08
1.05117e-08
1.0506e-08
1.05018e-08
1.04973e-08
1.04915e-08
1.04842e-08
1.04758e-08
1.04689e-08
1.04642e-08
1.04596e-08
1.04536e-08
1.04472e-08
1.04406e-08
1.04341e-08
1.04283e-08
1.04228e-08
1.04169e-08
1.04103e-08
1.0404e-08
1.03982e-08
1.03926e-08
1.03862e-08
1.03787e-08
1.03729e-08
1.03679e-08
1.03623e-08
1.0356e-08
1.03493e-08
1.0343e-08
1.03373e-08
1.03318e-08
1.03257e-08
1.03195e-08
1.03139e-08
1.03088e-08
1.03035e-08
1.02974e-08
1.02911e-08
1.02864e-08
1.02816e-08
1.02759e-08
1.02695e-08
1.0264e-08
1.02595e-08
1.02548e-08
1.02497e-08
1.02444e-08
1.02389e-08
1.02336e-08
1.02286e-08
1.02239e-08
1.02195e-08
1.0215e-08
1.02103e-08
1.02055e-08
1.02013e-08
1.01976e-08
1.01939e-08
1.01899e-08
1.01856e-08
1.01814e-08
1.01778e-08
1.01746e-08
1.01713e-08
1.01676e-08
1.01638e-08
1.01609e-08
1.01579e-08
1.01549e-08
1.01516e-08
1.01484e-08
1.01458e-08
1.0143e-08
1.01401e-08
1.01372e-08
1.01346e-08
1.01319e-08
1.01292e-08
1.01266e-08
1.01238e-08
1.01212e-08
1.01188e-08
1.01163e-08
1.01139e-08
1.01114e-08
1.01087e-08
1.01062e-08
1.01038e-08
1.01014e-08
1.0099e-08
1.00965e-08
1.00942e-08
1.00919e-08
1.00896e-08
1.00873e-08
1.00849e-08
1.00825e-08
1.00802e-08
1.00781e-08
1.00759e-08
1.00736e-08
1.00714e-08
1.00692e-08
1.0067e-08
1.00649e-08
1.00628e-08
1.00606e-08
1.00584e-08
1.00565e-08
1.00544e-08
1.00523e-08
1.00503e-08
1.00484e-08
1.00465e-08
1.00445e-08
1.00426e-08
1.00406e-08
1.00389e-08
1.0037e-08
1.00354e-08
1.00335e-08
1.00319e-08
1.00299e-08
1.00284e-08
1.00269e-08
1.00253e-08
1.00239e-08
1.00219e-08
1.00206e-08
1.00187e-08
1.0017e-08
1.00165e-08
1.00146e-08
1.00145e-08
1.00134e-08
1.00114e-08
1.00099e-08
1.0022e-08
1.00183e-08
1.0027e-08
1.00359e-08
1.0077e-08
1.00755e-08
1.00389e-08
1.00325e-08
1.00379e-08
1.00314e-08
1.00154e-08
1.00128e-08
1.00063e-08
1.00029e-08
1.00003e-08
9.99868e-09
9.99595e-09
9.99584e-09
1.00061e-08
1.0003e-08
1.00076e-08
1.00117e-08
1.00315e-08
1.00294e-08
1.0011e-08
1.0009e-08
1.00095e-08
1.00063e-08
9.99465e-09
9.99499e-09
9.99165e-09
9.9909e-09
9.98661e-09
9.99006e-09
9.98484e-09
9.98673e-09
9.99225e-09
1.00193e-08
1.00195e-08
1.00665e-08
1.00747e-08
1.01277e-08
1.01429e-08
1.01784e-08
1.02235e-08
1.02151e-08
1.02113e-08
1.02737e-08
1.02132e-08
1.0154e-08
1.01201e-08
1.0094e-08
1.00758e-08
1.00621e-08
1.00512e-08
1.00424e-08
1.00353e-08
1.00296e-08
1.00249e-08
1.0021e-08
1.00176e-08
1.00149e-08
1.00126e-08
1.00107e-08
1.0009e-08
1.00075e-08
1.00061e-08
1.0005e-08
1.00039e-08
1.0003e-08
1.00022e-08
1.00015e-08
1.00007e-08
1.00002e-08
9.99972e-09
9.99926e-09
9.99883e-09
9.9984e-09
9.99794e-09
9.99749e-09
9.99705e-09
9.99666e-09
9.99632e-09
9.99601e-09
9.99573e-09
9.99537e-09
9.99498e-09
9.99457e-09
9.99413e-09
9.99369e-09
9.99327e-09
9.99289e-09
9.99253e-09
9.99219e-09
9.99184e-09
9.99148e-09
9.99114e-09
9.99082e-09
9.99049e-09
9.99011e-09
9.98969e-09
9.98929e-09
9.98896e-09
9.98866e-09
9.98827e-09
9.98764e-09
9.98697e-09
9.98648e-09
9.98627e-09
9.98638e-09
9.98625e-09
9.98559e-09
9.98488e-09
9.98462e-09
9.98488e-09
9.98491e-09
9.98426e-09
9.98375e-09
9.98385e-09
9.98393e-09
9.9831e-09
9.98232e-09
9.98375e-09
9.99132e-09
1.00151e-08
1.00513e-08
1.00745e-08
1.00282e-08
1.00409e-08
1.01719e-08
1.04557e-08
1.12043e-08
1.3178e-08
1.73089e-08
2.36542e-08
3.02616e-08
3.57657e-08
3.86463e-08
3.85409e-08
3.60489e-08
3.24282e-08
2.8741e-08
2.55733e-08
2.32033e-08
2.17223e-08
2.08608e-08
2.01534e-08
1.93539e-08
1.8543e-08
1.79331e-08
1.76499e-08
1.76276e-08
1.77856e-08
1.79906e-08
1.80124e-08
1.76741e-08
1.71423e-08
1.67221e-08
1.65584e-08
1.6382e-08
1.59863e-08
1.55568e-08
1.54571e-08
1.57997e-08
1.61623e-08
1.59302e-08
1.51618e-08
1.44063e-08
1.41489e-08
1.44092e-08
1.4723e-08
1.46588e-08
1.41815e-08
1.36161e-08
1.32692e-08
1.32004e-08
1.31985e-08
1.30296e-08
1.28431e-08
1.29162e-08
1.32311e-08
1.35113e-08
1.35101e-08
1.32095e-08
1.29657e-08
1.30336e-08
1.32943e-08
1.33491e-08
1.31213e-08
1.28901e-08
1.29002e-08
1.32251e-08
1.36605e-08
1.39655e-08
1.41037e-08
1.42577e-08
1.43255e-08
1.42421e-08
1.40939e-08
1.39508e-08
1.38431e-08
1.37953e-08
1.3794e-08
1.40658e-08
1.55207e-08
1.78642e-08
1.82678e-08
1.71048e-08
1.7337e-08
1.58046e-08
1.41762e-08
1.32988e-08
1.25166e-08
1.18058e-08
1.11728e-08
1.06364e-08
1.03719e-08
1.03254e-08
1.03449e-08
1.0438e-08
1.05578e-08
1.06764e-08
1.07655e-08
1.07807e-08
1.07226e-08
1.06183e-08
1.05088e-08
1.04182e-08
1.03565e-08
1.03181e-08
1.03058e-08
1.03812e-08
1.04954e-08
1.04356e-08
1.03265e-08
1.03161e-08
1.03505e-08
1.03109e-08
1.0253e-08
1.02399e-08
1.02212e-08
1.02099e-08
1.01986e-08
1.0181e-08
1.01608e-08
1.01468e-08
1.01509e-08
1.01565e-08
1.01977e-08
1.02539e-08
1.03105e-08
1.02805e-08
1.02407e-08
1.02517e-08
1.02305e-08
1.02111e-08
1.02072e-08
1.01926e-08
1.01859e-08
1.01829e-08
1.01737e-08
1.01684e-08
1.01653e-08
1.0162e-08
1.01576e-08
1.01536e-08
1.01496e-08
1.01444e-08
1.01397e-08
1.01349e-08
1.01308e-08
1.01266e-08
1.01217e-08
1.01169e-08
1.01134e-08
1.01107e-08
1.01078e-08
1.01042e-08
1.01001e-08
1.00967e-08
1.00943e-08
1.00924e-08
1.00903e-08
1.00878e-08
1.00853e-08
1.00834e-08
1.00821e-08
1.00807e-08
1.00788e-08
1.00771e-08
1.00758e-08
1.00749e-08
1.00737e-08
1.00722e-08
1.00711e-08
1.00704e-08
1.00696e-08
1.00685e-08
1.00673e-08
1.00664e-08
1.00659e-08
1.00655e-08
1.00647e-08
1.00639e-08
1.00631e-08
1.00627e-08
1.00623e-08
1.00619e-08
1.00615e-08
1.00611e-08
1.00608e-08
1.00605e-08
1.006e-08
1.00595e-08
1.00591e-08
1.00589e-08
1.00588e-08
1.00587e-08
1.00584e-08
1.00581e-08
1.00578e-08
1.00574e-08
1.0057e-08
1.00566e-08
1.00563e-08
1.0056e-08
1.00555e-08
1.0055e-08
1.00546e-08
1.00544e-08
1.00542e-08
1.00538e-08
1.00533e-08
1.00527e-08
1.00523e-08
1.00521e-08
1.00518e-08
1.00514e-08
1.00509e-08
1.00505e-08
1.00502e-08
1.00499e-08
1.00494e-08
1.00489e-08
1.00485e-08
1.00482e-08
1.00481e-08
1.00479e-08
1.00476e-08
1.0047e-08
1.00465e-08
1.00463e-08
1.00462e-08
1.00461e-08
1.00459e-08
1.00456e-08
1.00453e-08
1.0045e-08
1.00449e-08
1.00449e-08
1.00449e-08
1.00447e-08
1.00445e-08
1.00442e-08
1.00442e-08
1.00443e-08
1.00445e-08
1.00446e-08
1.00446e-08
1.00446e-08
1.00446e-08
1.00446e-08
1.00447e-08
1.00448e-08
1.0045e-08
1.00453e-08
1.00456e-08
1.00456e-08
1.00456e-08
1.00458e-08
1.0046e-08
1.00462e-08
1.00463e-08
1.00465e-08
1.00466e-08
1.00466e-08
1.00468e-08
1.00469e-08
1.00469e-08
1.00467e-08
1.00466e-08
1.00466e-08
1.00467e-08
1.00468e-08
1.00468e-08
1.00466e-08
1.00462e-08
1.00459e-08
1.00458e-08
1.00458e-08
1.00458e-08
1.00456e-08
1.00454e-08
1.00451e-08
1.00448e-08
1.00445e-08
1.00443e-08
1.0044e-08
1.00438e-08
1.00438e-08
1.00435e-08
1.00431e-08
1.00427e-08
1.00424e-08
1.00421e-08
1.00419e-08
1.00417e-08
1.00414e-08
1.0041e-08
1.00406e-08
1.00403e-08
1.00401e-08
1.00398e-08
1.00395e-08
1.00392e-08
1.00389e-08
1.00385e-08
1.00382e-08
1.00379e-08
1.00376e-08
1.00373e-08
1.00369e-08
1.00366e-08
1.00363e-08
1.00359e-08
1.00355e-08
1.00352e-08
1.00349e-08
1.00346e-08
1.00342e-08
1.00338e-08
1.00335e-08
1.00332e-08
1.00329e-08
1.00325e-08
1.00322e-08
1.0032e-08
1.00317e-08
1.00314e-08
1.00311e-08
1.00308e-08
1.00306e-08
1.00303e-08
1.003e-08
1.00297e-08
1.00293e-08
1.00291e-08
1.00288e-08
1.00285e-08
1.00282e-08
1.0028e-08
1.00277e-08
1.00274e-08
1.00272e-08
1.00269e-08
1.00267e-08
1.00265e-08
1.00262e-08
1.0026e-08
1.00258e-08
1.00257e-08
1.00255e-08
1.00253e-08
1.00251e-08
1.00249e-08
1.00247e-08
1.00246e-08
1.00244e-08
1.00242e-08
1.00241e-08
1.00239e-08
1.00238e-08
1.00237e-08
1.00235e-08
1.00234e-08
1.00233e-08
1.00231e-08
1.0023e-08
1.00229e-08
1.00228e-08
1.00226e-08
1.00225e-08
1.00224e-08
1.00223e-08
1.00222e-08
1.00221e-08
1.0022e-08
1.00219e-08
1.00218e-08
1.00217e-08
1.00216e-08
1.00215e-08
1.00214e-08
1.00213e-08
1.00212e-08
1.00211e-08
1.00211e-08
1.0021e-08
1.00209e-08
1.00208e-08
1.00207e-08
1.00206e-08
1.00205e-08
1.00204e-08
1.00203e-08
1.00202e-08
1.00202e-08
1.00201e-08
1.002e-08
1.00199e-08
1.00198e-08
1.00197e-08
1.00196e-08
1.00195e-08
1.00195e-08
1.00194e-08
1.00193e-08
1.00192e-08
1.00191e-08
1.0019e-08
1.00189e-08
1.00188e-08
1.00187e-08
1.00186e-08
1.00185e-08
1.00184e-08
1.00184e-08
1.00182e-08
1.00182e-08
1.00182e-08
1.00181e-08
1.00181e-08
1.00179e-08
1.00183e-08
1.00181e-08
1.00182e-08
1.00184e-08
1.00187e-08
1.00186e-08
1.00185e-08
1.00182e-08
1.00169e-08
1.00172e-08
1.00185e-08
1.00192e-08
1.00194e-08
1.00189e-08
1.00191e-08
1.0019e-08
1.00184e-08
1.00177e-08
1.00173e-08
1.00172e-08
1.00175e-08
1.0017e-08
1.00173e-08
1.00172e-08
1.0017e-08
1.00167e-08
1.00162e-08
1.00163e-08
1.0017e-08
1.00172e-08
1.00172e-08
1.0017e-08
1.00171e-08
1.00169e-08
1.00168e-08
1.00164e-08
1.00162e-08
1.0016e-08
1.00162e-08
1.00158e-08
1.00159e-08
1.00163e-08
1.00166e-08
1.00167e-08
1.00169e-08
1.00195e-08
1.00204e-08
1.00228e-08
1.00234e-08
1.00236e-08
1.00296e-08
1.00334e-08
1.00331e-08
1.00378e-08
1.00333e-08
1.0025e-08
1.00203e-08
1.00178e-08
1.0016e-08
1.00147e-08
1.00137e-08
1.00129e-08
1.00123e-08
1.00117e-08
1.00112e-08
1.00108e-08
1.00104e-08
1.00101e-08
1.001e-08
1.001e-08
1.00102e-08
1.00103e-08
1.00105e-08
1.00107e-08
1.00108e-08
1.00109e-08
1.0011e-08
1.00111e-08
1.00113e-08
1.00114e-08
1.00116e-08
1.00117e-08
1.00118e-08
1.00119e-08
1.00119e-08
1.00119e-08
1.00119e-08
1.00119e-08
1.00119e-08
1.0012e-08
1.00122e-08
1.00123e-08
1.00125e-08
1.00125e-08
1.00126e-08
1.00125e-08
1.00125e-08
1.00125e-08
1.00125e-08
1.00125e-08
1.00125e-08
1.00124e-08
1.00124e-08
1.00124e-08
1.00124e-08
1.00125e-08
1.00125e-08
1.00125e-08
1.00124e-08
1.00123e-08
1.00121e-08
1.00119e-08
1.00118e-08
1.00117e-08
1.00118e-08
1.00119e-08
1.0012e-08
1.00118e-08
1.00116e-08
1.00116e-08
1.00118e-08
1.0012e-08
1.00117e-08
1.00114e-08
1.00114e-08
1.00115e-08
1.00115e-08
1.00112e-08
1.00112e-08
1.00115e-08
1.00118e-08
1.00133e-08
1.00138e-08
1.00149e-08
1.00096e-08
1.00219e-08
1.01001e-08
1.02896e-08
1.07873e-08
1.19889e-08
1.42358e-08
1.73065e-08
2.02948e-08
2.21857e-08
2.24878e-08
2.14872e-08
1.98015e-08
1.80016e-08
1.64201e-08
1.51827e-08
1.43064e-08
1.37566e-08
1.3413e-08
1.31324e-08
1.28548e-08
1.26022e-08
1.24123e-08
1.22956e-08
1.22358e-08
1.22312e-08
1.22779e-08
1.23183e-08
1.22574e-08
1.20867e-08
1.18933e-08
1.17633e-08
1.16796e-08
1.15865e-08
1.14834e-08
1.14287e-08
1.14664e-08
1.15264e-08
1.14724e-08
1.12993e-08
1.11151e-08
1.103e-08
1.10629e-08
1.1129e-08
1.11187e-08
1.10071e-08
1.08674e-08
1.07675e-08
1.0724e-08
1.07034e-08
1.06614e-08
1.06216e-08
1.06325e-08
1.06936e-08
1.0744e-08
1.074e-08
1.07019e-08
1.06906e-08
1.07406e-08
1.08157e-08
1.08315e-08
1.07906e-08
1.07618e-08
1.07968e-08
1.09063e-08
1.10319e-08
1.11215e-08
1.11895e-08
1.12461e-08
1.12915e-08
1.13329e-08
1.13416e-08
1.13205e-08
1.12934e-08
1.12739e-08
1.12623e-08
1.12524e-08
1.12791e-08
1.13958e-08
1.15091e-08
1.15234e-08
1.17911e-08
1.17166e-08
1.15501e-08
1.15791e-08
1.14493e-08
1.12938e-08
1.11671e-08
1.10307e-08
1.08356e-08
1.05763e-08
1.03439e-08
1.02093e-08
1.01579e-08
1.01431e-08
1.01375e-08
1.01362e-08
1.01323e-08
1.01247e-08
1.01122e-08
1.00996e-08
1.00901e-08
1.00858e-08
1.00867e-08
1.00917e-08
1.00994e-08
1.01089e-08
1.01163e-08
1.01215e-08
1.01226e-08
1.01013e-08
1.00807e-08
1.00712e-08
1.00626e-08
1.00562e-08
1.00529e-08
1.005e-08
1.00479e-08
1.00469e-08
1.00465e-08
1.00462e-08
1.0048e-08
1.00512e-08
1.00546e-08
1.00568e-08
1.00585e-08
1.00602e-08
1.00559e-08
1.00519e-08
1.0051e-08
1.00483e-08
1.00464e-08
1.00455e-08
1.0044e-08
1.00433e-08
1.0043e-08
1.00427e-08
1.00422e-08
1.00418e-08
1.00414e-08
1.00409e-08
1.00405e-08
1.00401e-08
1.00397e-08
1.00393e-08
1.00389e-08
1.00385e-08
1.00382e-08
1.00379e-08
1.00377e-08
1.00374e-08
1.00371e-08
1.00368e-08
1.00367e-08
1.00365e-08
1.00363e-08
1.00361e-08
1.00359e-08
1.00358e-08
1.00357e-08
1.00355e-08
1.00354e-08
1.00353e-08
1.00351e-08
1.0035e-08
1.00349e-08
1.00347e-08
1.00346e-08
1.00345e-08
1.00344e-08
1.00343e-08
1.00341e-08
1.0034e-08
1.00339e-08
1.00339e-08
1.00338e-08
1.00337e-08
1.00336e-08
1.00335e-08
1.00334e-08
1.00333e-08
1.00332e-08
1.00332e-08
1.00331e-08
1.0033e-08
1.00329e-08
1.00329e-08
1.00328e-08
1.00327e-08
1.00327e-08
1.00326e-08
1.00325e-08
1.00324e-08
1.00324e-08
1.00323e-08
1.00322e-08
1.00321e-08
1.0032e-08
1.00319e-08
1.00318e-08
1.00317e-08
1.00316e-08
1.00315e-08
1.00315e-08
1.00314e-08
1.00313e-08
1.00312e-08
1.00311e-08
1.0031e-08
1.00309e-08
1.00308e-08
1.00307e-08
1.00306e-08
1.00305e-08
1.00304e-08
1.00303e-08
1.00301e-08
1.003e-08
1.00299e-08
1.00299e-08
1.00298e-08
1.00297e-08
1.00296e-08
1.00295e-08
1.00294e-08
1.00293e-08
1.00292e-08
1.00291e-08
1.00291e-08
1.0029e-08
1.00289e-08
1.00288e-08
1.00287e-08
1.00287e-08
1.00286e-08
1.00285e-08
1.00284e-08
1.00283e-08
1.00282e-08
1.00282e-08
1.00281e-08
1.00281e-08
1.0028e-08
1.00279e-08
1.00278e-08
1.00278e-08
1.00277e-08
1.00276e-08
1.00275e-08
1.00274e-08
1.00274e-08
1.00273e-08
1.00272e-08
1.00272e-08
1.00271e-08
1.0027e-08
1.0027e-08
1.00269e-08
1.00269e-08
1.00268e-08
1.00268e-08
1.00268e-08
1.00267e-08
1.00266e-08
1.00266e-08
1.00265e-08
1.00265e-08
1.00264e-08
1.00264e-08
1.00263e-08
1.00263e-08
1.00262e-08
1.00262e-08
1.00261e-08
1.0026e-08
1.0026e-08
1.00259e-08
1.00258e-08
1.00258e-08
1.00257e-08
1.00256e-08
1.00256e-08
1.00255e-08
1.00255e-08
1.00254e-08
1.00253e-08
1.00253e-08
1.00252e-08
1.00251e-08
1.00251e-08
1.0025e-08
1.00249e-08
1.00249e-08
1.00248e-08
1.00247e-08
1.00246e-08
1.00246e-08
1.00245e-08
1.00244e-08
1.00243e-08
1.00243e-08
1.00242e-08
1.00241e-08
1.0024e-08
1.00239e-08
1.00239e-08
1.00238e-08
1.00237e-08
1.00236e-08
1.00236e-08
1.00235e-08
1.00234e-08
1.00234e-08
1.00233e-08
1.00232e-08
1.00231e-08
1.0023e-08
1.0023e-08
1.00229e-08
1.00228e-08
1.00228e-08
1.00227e-08
1.00226e-08
1.00225e-08
1.00225e-08
1.00224e-08
1.00223e-08
1.00222e-08
1.00222e-08
1.00221e-08
1.0022e-08
1.0022e-08
1.00219e-08
1.00219e-08
1.00218e-08
1.00217e-08
1.00217e-08
1.00216e-08
1.00215e-08
1.00215e-08
1.00214e-08
1.00213e-08
1.00213e-08
1.00212e-08
1.00211e-08
1.00211e-08
1.0021e-08
1.00209e-08
1.00209e-08
1.00208e-08
1.00207e-08
1.00206e-08
1.00205e-08
1.00205e-08
1.00204e-08
1.00203e-08
1.00203e-08
1.00202e-08
1.00201e-08
1.002e-08
1.00199e-08
1.00199e-08
1.00198e-08
1.00197e-08
1.00197e-08
1.00196e-08
1.00195e-08
1.00195e-08
1.00194e-08
1.00193e-08
1.00193e-08
1.00192e-08
1.00192e-08
1.00191e-08
1.0019e-08
1.0019e-08
1.00189e-08
1.00189e-08
1.00188e-08
1.00187e-08
1.00187e-08
1.00186e-08
1.00186e-08
1.00185e-08
1.00184e-08
1.00184e-08
1.00183e-08
1.00183e-08
1.00182e-08
1.00181e-08
1.00181e-08
1.0018e-08
1.0018e-08
1.00179e-08
1.00179e-08
1.00178e-08
1.00178e-08
1.00177e-08
1.00176e-08
1.00175e-08
1.00175e-08
1.00174e-08
1.00174e-08
1.00173e-08
1.00172e-08
1.00172e-08
1.00171e-08
1.0017e-08
1.00169e-08
1.0017e-08
1.00169e-08
1.00169e-08
1.00167e-08
1.00171e-08
1.00169e-08
1.00171e-08
1.00173e-08
1.00173e-08
1.00172e-08
1.00172e-08
1.00169e-08
1.00159e-08
1.00161e-08
1.00169e-08
1.00169e-08
1.00169e-08
1.00169e-08
1.0017e-08
1.00169e-08
1.00163e-08
1.00159e-08
1.00166e-08
1.00165e-08
1.00164e-08
1.00163e-08
1.00162e-08
1.00162e-08
1.0016e-08
1.00159e-08
1.00156e-08
1.00156e-08
1.00158e-08
1.00158e-08
1.00158e-08
1.00157e-08
1.00157e-08
1.00156e-08
1.00156e-08
1.00154e-08
1.00151e-08
1.00151e-08
1.00155e-08
1.00153e-08
1.00161e-08
1.00149e-08
1.00143e-08
1.00153e-08
1.00154e-08
1.00181e-08
1.00189e-08
1.00212e-08
1.00202e-08
1.0018e-08
1.00184e-08
1.00181e-08
1.00178e-08
1.00179e-08
1.00176e-08
1.0017e-08
1.00168e-08
1.0016e-08
1.00153e-08
1.00148e-08
1.00143e-08
1.00138e-08
1.00133e-08
1.00129e-08
1.00126e-08
1.00122e-08
1.00119e-08
1.00117e-08
1.00114e-08
1.00112e-08
1.0011e-08
1.00109e-08
1.0011e-08
1.0011e-08
1.0011e-08
1.00111e-08
1.00111e-08
1.00111e-08
1.00111e-08
1.00111e-08
1.00112e-08
1.00113e-08
1.00114e-08
1.00115e-08
1.00116e-08
1.00117e-08
1.00117e-08
1.00116e-08
1.00115e-08
1.00115e-08
1.00114e-08
1.00115e-08
1.00115e-08
1.00117e-08
1.00118e-08
1.00119e-08
1.00119e-08
1.00119e-08
1.00119e-08
1.00119e-08
1.00119e-08
1.0012e-08
1.0012e-08
1.00119e-08
1.00118e-08
1.00118e-08
1.00118e-08
1.00119e-08
1.0012e-08
1.0012e-08
1.00119e-08
1.00118e-08
1.00116e-08
1.00114e-08
1.00113e-08
1.00112e-08
1.00113e-08
1.00114e-08
1.00115e-08
1.00114e-08
1.00112e-08
1.00111e-08
1.00113e-08
1.00115e-08
1.00113e-08
1.0011e-08
1.00109e-08
1.00109e-08
1.0011e-08
1.00109e-08
1.00108e-08
1.00108e-08
1.00112e-08
1.00114e-08
1.00123e-08
1.00128e-08
1.0014e-08
1.00091e-08
1.00132e-08
1.00605e-08
1.01579e-08
1.03353e-08
1.0667e-08
1.12503e-08
1.21049e-08
1.30675e-08
1.37206e-08
1.3831e-08
1.35242e-08
1.3018e-08
1.24865e-08
1.20218e-08
1.16583e-08
1.13987e-08
1.1228e-08
1.11129e-08
1.10178e-08
1.09291e-08
1.08514e-08
1.07912e-08
1.07483e-08
1.07194e-08
1.07053e-08
1.07107e-08
1.07228e-08
1.07094e-08
1.06597e-08
1.05949e-08
1.05422e-08
1.05083e-08
1.04821e-08
1.04564e-08
1.04371e-08
1.04336e-08
1.04364e-08
1.04212e-08
1.03838e-08
1.03423e-08
1.03182e-08
1.03167e-08
1.03239e-08
1.03192e-08
1.02961e-08
1.0265e-08
1.0238e-08
1.02202e-08
1.02082e-08
1.01966e-08
1.01879e-08
1.01884e-08
1.01977e-08
1.02053e-08
1.02045e-08
1.02024e-08
1.02084e-08
1.0226e-08
1.02455e-08
1.02506e-08
1.02458e-08
1.02464e-08
1.02617e-08
1.02901e-08
1.03195e-08
1.03473e-08
1.0382e-08
1.04171e-08
1.04391e-08
1.04443e-08
1.0446e-08
1.04535e-08
1.04642e-08
1.04751e-08
1.04862e-08
1.04961e-08
1.05063e-08
1.05215e-08
1.05454e-08
1.05727e-08
1.06128e-08
1.06465e-08
1.06761e-08
1.07394e-08
1.07632e-08
1.0763e-08
1.07901e-08
1.07959e-08
1.07654e-08
1.07232e-08
1.06627e-08
1.05788e-08
1.04442e-08
1.03062e-08
1.02029e-08
1.01404e-08
1.01089e-08
1.00868e-08
1.00741e-08
1.00651e-08
1.00594e-08
1.00568e-08
1.00565e-08
1.00585e-08
1.00627e-08
1.0069e-08
1.00769e-08
1.00861e-08
1.00959e-08
1.01029e-08
1.01031e-08
1.00947e-08
1.00778e-08
1.00634e-08
1.00549e-08
1.0049e-08
1.00449e-08
1.00421e-08
1.00402e-08
1.00394e-08
1.00395e-08
1.004e-08
1.00408e-08
1.00417e-08
1.00429e-08
1.00442e-08
1.00454e-08
1.00459e-08
1.00453e-08
1.00429e-08
1.00406e-08
1.00393e-08
1.00381e-08
1.00373e-08
1.00367e-08
1.00363e-08
1.00359e-08
1.00355e-08
1.00354e-08
1.00352e-08
1.00351e-08
1.00349e-08
1.00348e-08
1.00347e-08
1.00346e-08
1.00345e-08
1.00344e-08
1.00343e-08
1.00342e-08
1.00342e-08
1.00341e-08
1.00341e-08
1.00341e-08
1.0034e-08
1.0034e-08
1.0034e-08
1.0034e-08
1.00339e-08
1.00339e-08
1.00338e-08
1.00338e-08
1.00337e-08
1.00337e-08
1.00336e-08
1.00336e-08
1.00335e-08
1.00334e-08
1.00333e-08
1.00333e-08
1.00332e-08
1.00331e-08
1.0033e-08
1.00329e-08
1.00328e-08
1.00328e-08
1.00327e-08
1.00326e-08
1.00326e-08
1.00325e-08
1.00324e-08
1.00324e-08
1.00323e-08
1.00322e-08
1.00322e-08
1.00321e-08
1.00321e-08
1.0032e-08
1.0032e-08
1.00319e-08
1.00318e-08
1.00318e-08
1.00317e-08
1.00317e-08
1.00316e-08
1.00316e-08
1.00315e-08
1.00314e-08
1.00313e-08
1.00313e-08
1.00312e-08
1.00311e-08
1.0031e-08
1.00309e-08
1.00308e-08
1.00307e-08
1.00306e-08
1.00305e-08
1.00304e-08
1.00303e-08
1.00302e-08
1.00301e-08
1.003e-08
1.00299e-08
1.00298e-08
1.00297e-08
1.00296e-08
1.00295e-08
1.00294e-08
1.00293e-08
1.00292e-08
1.00291e-08
1.00291e-08
1.0029e-08
1.00289e-08
1.00288e-08
1.00287e-08
1.00286e-08
1.00285e-08
1.00285e-08
1.00284e-08
1.00283e-08
1.00282e-08
1.00282e-08
1.00281e-08
1.0028e-08
1.0028e-08
1.00279e-08
1.00278e-08
1.00278e-08
1.00277e-08
1.00276e-08
1.00276e-08
1.00275e-08
1.00274e-08
1.00274e-08
1.00273e-08
1.00272e-08
1.00271e-08