/*--------------------------------*- C++ -*----------------------------------*\
| =========                 |                                                 |
| \\      /  F ield         | OpenFOAM: The Open Source CFD Toolbox           |
|  \\    /   O peration     | Version:  v2006                                 |
|   \\  /    A nd           | Website:  www.openfoam.com                      |
|    \\/     M anipulation  |                                                 |
\*---------------------------------------------------------------------------*/
FoamFile
{
    version     2.0;
    format      ascii;
    class       volScalarField;
    location    "4.5";
    object      nut;
}
// * * * * * * * * * * * * * * * * * * * * * * * * * * * * * * * * * * * * * //

dimensions      [0 2 -1 0 0 0 0];


internalField   nonuniform List<scalar> 
33000
(
2.63267e-10
2.80806e-10
3.234e-10
3.72834e-10
3.44643e-10
3.25373e-10
3.52708e-10
4.42812e-10
6.29794e-10
9.70776e-10
1.4573e-09
1.96276e-09
2.34812e-09
2.61092e-09
2.79454e-09
2.91358e-09
2.98716e-09
3.06796e-09
3.1661e-09
3.25918e-09
3.32545e-09
3.37201e-09
3.41745e-09
3.46974e-09
3.53003e-09
3.61999e-09
3.72859e-09
3.8257e-09
3.88525e-09
3.91677e-09
3.98595e-09
4.10677e-09
4.21766e-09
4.27009e-09
4.27962e-09
4.31698e-09
4.43349e-09
4.60152e-09
4.71342e-09
4.73287e-09
4.72453e-09
4.77045e-09
4.89332e-09
5.04514e-09
5.15876e-09
5.2172e-09
5.25148e-09
5.30883e-09
5.41877e-09
5.55327e-09
5.64533e-09
5.70212e-09
5.79264e-09
5.93821e-09
6.15942e-09
6.35814e-09
6.42962e-09
6.40992e-09
6.43519e-09
6.56482e-09
6.63306e-09
6.54496e-09
6.30202e-09
6.00586e-09
5.81763e-09
5.68692e-09
5.50747e-09
5.22891e-09
4.84255e-09
4.42943e-09
4.0736e-09
3.78398e-09
3.55954e-09
3.4041e-09
3.34248e-09
3.342e-09
3.53765e-09
3.75139e-09
5.82544e-09
8.59082e-09
8.77087e-09
1.01258e-08
1.00261e-08
1.38855e-08
1.38198e-08
1.50926e-08
1.55346e-08
1.59912e-08
1.45315e-08
1.43216e-08
1.4143e-08
1.34299e-08
1.28394e-08
1.15943e-08
9.91597e-09
8.41123e-09
7.2773e-09
5.99023e-09
5.48395e-09
6.27757e-09
7.07414e-09
7.23412e-09
7.29698e-09
6.90979e-09
6.84821e-09
6.82615e-09
6.97995e-09
7.20404e-09
7.44228e-09
7.70456e-09
7.80741e-09
7.88581e-09
7.96956e-09
8.09813e-09
8.17172e-09
8.19284e-09
8.12095e-09
8.73305e-09
9.42754e-09
9.9358e-09
1.05904e-08
1.09395e-08
1.15844e-08
1.22221e-08
1.29864e-08
1.40615e-08
1.5459e-08
1.68673e-08
1.84893e-08
2.04479e-08
2.27962e-08
2.60571e-08
3.02493e-08
3.54194e-08
4.1677e-08
4.91706e-08
5.62781e-08
6.05299e-08
5.91669e-08
5.37216e-08
4.70548e-08
4.09298e-08
3.5674e-08
3.14655e-08
2.81285e-08
2.54862e-08
2.32748e-08
2.13901e-08
1.98022e-08
1.84574e-08
1.73419e-08
1.638e-08
1.55141e-08
1.47469e-08
1.40668e-08
1.3461e-08
1.29307e-08
1.24559e-08
1.20149e-08
1.16123e-08
1.12549e-08
1.0934e-08
1.06368e-08
1.03588e-08
1.01051e-08
9.87912e-09
9.6726e-09
9.47762e-09
9.29397e-09
9.12879e-09
8.98148e-09
8.84616e-09
8.72039e-09
8.60343e-09
8.49491e-09
8.39875e-09
8.31472e-09
8.23801e-09
8.16777e-09
8.1051e-09
8.04906e-09
8.00121e-09
7.96174e-09
7.92666e-09
7.89426e-09
7.86917e-09
7.85366e-09
7.84358e-09
7.83767e-09
7.83631e-09
7.83895e-09
7.84732e-09
7.86131e-09
7.87905e-09
7.90209e-09
7.93107e-09
7.96451e-09
8.00244e-09
8.04365e-09
8.08886e-09
8.14211e-09
8.20559e-09
8.27575e-09
8.34883e-09
8.42564e-09
8.5089e-09
8.6027e-09
8.70934e-09
8.82564e-09
8.94746e-09
9.07457e-09
9.21428e-09
9.37223e-09
9.5437e-09
9.71683e-09
9.89859e-09
1.01007e-08
1.032e-08
1.05636e-08
1.08312e-08
1.11021e-08
1.13799e-08
1.16824e-08
1.20168e-08
1.23914e-08
1.28044e-08
1.32366e-08
1.36852e-08
1.4186e-08
1.4739e-08
1.53378e-08
1.60163e-08
1.67804e-08
1.7577e-08
1.84463e-08
1.94397e-08
2.05451e-08
2.17968e-08
2.32273e-08
2.48064e-08
2.65825e-08
2.86655e-08
3.11526e-08
3.40016e-08
3.72697e-08
4.11716e-08
4.60192e-08
5.22478e-08
5.58294e-08
5.57323e-08
5.56422e-08
5.55694e-08
5.55071e-08
5.54465e-08
5.53922e-08
5.53376e-08
5.52624e-08
5.51718e-08
5.50632e-08
5.49385e-08
5.48002e-08
5.46421e-08
5.44666e-08
5.13775e-08
4.69829e-08
4.33165e-08
4.02642e-08
3.76738e-08
3.54246e-08
3.33914e-08
3.15567e-08
2.9929e-08
2.84896e-08
2.72327e-08
2.60971e-08
2.50406e-08
2.40636e-08
2.31751e-08
2.23702e-08
2.16242e-08
2.09198e-08
2.02734e-08
1.96951e-08
1.91563e-08
1.86456e-08
1.81632e-08
1.77098e-08
1.7287e-08
1.68928e-08
1.65281e-08
1.6185e-08
1.58577e-08
1.55457e-08
1.52474e-08
1.49691e-08
1.47115e-08
1.44655e-08
1.42306e-08
1.40078e-08
1.37934e-08
1.35922e-08
1.34035e-08
1.3223e-08
1.30504e-08
1.28842e-08
1.27278e-08
1.25815e-08
1.2441e-08
1.23039e-08
1.21739e-08
1.2052e-08
1.19367e-08
1.1827e-08
1.17204e-08
1.16185e-08
1.15238e-08
1.14354e-08
1.13508e-08
1.12698e-08
1.11936e-08
1.11232e-08
1.10579e-08
1.09947e-08
1.09343e-08
1.08792e-08
1.08291e-08
1.07818e-08
1.07361e-08
1.06936e-08
1.06553e-08
1.06207e-08
1.05892e-08
1.05598e-08
1.05323e-08
1.05072e-08
1.04845e-08
1.04645e-08
1.04473e-08
1.04327e-08
1.04194e-08
1.04077e-08
1.03985e-08
1.03921e-08
1.03883e-08
1.03865e-08
1.03857e-08
1.0386e-08
1.03888e-08
1.03945e-08
1.04025e-08
1.04108e-08
1.04204e-08
1.04328e-08
1.04477e-08
1.04645e-08
1.04819e-08
1.05011e-08
1.05233e-08
1.05476e-08
1.05728e-08
1.05994e-08
1.06286e-08
1.06596e-08
1.06928e-08
1.07278e-08
1.07641e-08
1.08025e-08
1.08433e-08
1.08862e-08
1.09316e-08
1.09788e-08
1.10271e-08
1.10775e-08
1.11305e-08
1.1186e-08
1.12429e-08
1.13022e-08
1.13641e-08
1.14289e-08
1.14963e-08
1.15658e-08
1.16367e-08
1.17104e-08
1.17867e-08
1.18665e-08
1.1949e-08
1.20345e-08
1.21226e-08
1.22125e-08
1.23053e-08
1.24038e-08
1.25045e-08
1.2606e-08
1.27113e-08
1.28237e-08
1.29364e-08
1.30534e-08
1.31752e-08
1.33016e-08
1.3431e-08
1.35633e-08
1.37007e-08
1.38398e-08
1.39884e-08
1.41388e-08
1.43033e-08
1.44666e-08
1.46471e-08
1.48192e-08
1.50171e-08
1.52131e-08
1.54299e-08
1.56486e-08
1.58771e-08
1.61179e-08
1.6207e-08
1.60623e-08
1.59207e-08
1.57785e-08
1.56434e-08
1.55157e-08
1.5383e-08
1.52621e-08
1.51357e-08
1.4976e-08
1.486e-08
1.47834e-08
1.46343e-08
1.46344e-08
1.46077e-08
1.48408e-08
1.4755e-08
1.48145e-08
1.47571e-08
1.47488e-08
1.46918e-08
1.46599e-08
1.4608e-08
1.45684e-08
1.45144e-08
1.44681e-08
1.44153e-08
1.43257e-08
1.42769e-08
1.42483e-08
1.41609e-08
1.42056e-08
1.42129e-08
1.44119e-08
1.43902e-08
1.44511e-08
1.44461e-08
1.44599e-08
1.44534e-08
1.44604e-08
1.44448e-08
1.44388e-08
1.43886e-08
1.43686e-08
1.43619e-08
1.43027e-08
1.43203e-08
1.42475e-08
1.39523e-08
1.39292e-08
1.40243e-08
1.37985e-08
1.47569e-08
1.53555e-08
1.83628e-08
1.88084e-08
2.00538e-08
2.05994e-08
2.11278e-08
2.15142e-08
2.18243e-08
2.20612e-08
2.22416e-08
2.23862e-08
2.25053e-08
2.26045e-08
2.26874e-08
2.27551e-08
2.28089e-08
2.28538e-08
2.28913e-08
2.29219e-08
2.2946e-08
2.29643e-08
2.29775e-08
2.29862e-08
2.29911e-08
2.29926e-08
2.29908e-08
2.29857e-08
2.29772e-08
2.29655e-08
2.29504e-08
2.29318e-08
2.29094e-08
2.2883e-08
2.28526e-08
2.28181e-08
2.27801e-08
2.2739e-08
2.26957e-08
2.26506e-08
2.26041e-08
2.23561e-08
2.20243e-08
2.17021e-08
2.13892e-08
2.10847e-08
2.07881e-08
2.04993e-08
2.02186e-08
1.99463e-08
1.96821e-08
1.9426e-08
1.9178e-08
1.8938e-08
1.87051e-08
1.84774e-08
1.82524e-08
1.80291e-08
1.78094e-08
1.75965e-08
1.73935e-08
1.71964e-08
1.69989e-08
1.68006e-08
1.66007e-08
1.64063e-08
1.62251e-08
1.60492e-08
1.58704e-08
1.56871e-08
1.55079e-08
1.53421e-08
1.51814e-08
1.50147e-08
1.48461e-08
1.46876e-08
1.45405e-08
1.43949e-08
1.41789e-08
1.39096e-08
1.4364e-08
1.27448e-08
1.29628e-08
4.71256e-09
3.98024e-09
1.40962e-09
1.14523e-09
1.85903e-09
4.60399e-09
1.12646e-08
1.61178e-08
1.89128e-08
1.83776e-08
2.03476e-08
2.13548e-08
2.30132e-08
2.43524e-08
2.39982e-08
2.39788e-08
2.455e-08
2.46855e-08
2.47025e-08
2.45233e-08
2.34439e-08
2.27386e-08
2.26305e-08
2.4418e-08
2.75786e-08
2.65065e-08
2.22587e-08
1.9771e-08
2.02135e-08
2.43195e-08
2.66496e-08
2.459e-08
2.14352e-08
2.12684e-08
2.26494e-08
2.17118e-08
2.10779e-08
1.9753e-08
2.00529e-08
2.11667e-08
2.09302e-08
1.97012e-08
1.72349e-08
1.6079e-08
1.66732e-08
1.75675e-08
1.87579e-08
1.78808e-08
1.62656e-08
1.6551e-08
1.81402e-08
1.68326e-08
1.51699e-08
1.54199e-08
1.66988e-08
1.72798e-08
1.58517e-08
1.36658e-08
1.27688e-08
1.34343e-08
1.51766e-08
1.65227e-08
1.84794e-08
1.82217e-08
1.77935e-08
1.97109e-08
2.16573e-08
2.24953e-08
2.15145e-08
1.91861e-08
1.72942e-08
1.62037e-08
1.61322e-08
1.7739e-08
2.23437e-08
3.07895e-08
3.71121e-08
4.28558e-08
4.13036e-08
2.53009e-08
1.05544e-08
7.59937e-09
7.32949e-09
3.92577e-09
7.40048e-09
6.13586e-09
2.92118e-08
2.41948e-08
1.25627e-08
1.60688e-08
1.44159e-08
2.37248e-08
1.91104e-08
1.27621e-08
9.82033e-09
7.96084e-09
5.99918e-09
5.98832e-09
4.71272e-09
4.02508e-09
4.14255e-09
7.02595e-09
1.22387e-08
1.52579e-08
1.7386e-08
1.52061e-08
1.52518e-08
1.33128e-08
1.42946e-08
1.74568e-08
1.82495e-08
1.71178e-08
1.57974e-08
1.44644e-08
1.30872e-08
1.32035e-08
1.60682e-08
1.86323e-08
2.50027e-08
2.04018e-08
1.57638e-08
1.42603e-08
1.34082e-08
1.52716e-08
1.4285e-08
1.2465e-08
1.24068e-08
1.28206e-08
1.28521e-08
1.29679e-08
1.26235e-08
1.23533e-08
1.23975e-08
1.24518e-08
1.25348e-08
1.27888e-08
1.31039e-08
1.32778e-08
1.35568e-08
1.38738e-08
1.41541e-08
1.44704e-08
1.49122e-08
1.53994e-08
1.58737e-08
1.61846e-08
1.65019e-08
1.69353e-08
1.75221e-08
1.81674e-08
1.86392e-08
1.90132e-08
1.94321e-08
1.99834e-08
2.08097e-08
2.15831e-08
2.21446e-08
2.26957e-08
2.33907e-08
2.42311e-08
2.52465e-08
2.62661e-08
2.72184e-08
2.82474e-08
2.95649e-08
3.12099e-08
3.26622e-08
3.39953e-08
3.57987e-08
3.81215e-08
4.08359e-08
4.3418e-08
4.59999e-08
4.93379e-08
5.33241e-08
5.83194e-08
6.4323e-08
7.04946e-08
7.85066e-08
9.01e-08
1.02498e-07
1.16654e-07
1.36875e-07
1.6632e-07
2.07573e-07
2.77798e-07
2.86166e-07
2.8623e-07
2.86013e-07
2.76117e-07
2.19258e-07
1.7668e-07
1.45747e-07
1.20845e-07
1.0298e-07
9.15729e-08
8.35761e-08
7.75139e-08
7.13318e-08
6.47604e-08
5.94307e-08
5.59498e-08
5.32755e-08
5.03138e-08
4.72248e-08
4.45246e-08
4.24745e-08
4.08062e-08
3.92609e-08
3.75773e-08
3.58333e-08
3.43888e-08
3.34213e-08
3.26347e-08
3.16176e-08
3.05092e-08
2.94709e-08
2.86155e-08
2.79206e-08
2.74172e-08
2.70629e-08
2.66025e-08
2.59533e-08
2.52978e-08
2.49504e-08
2.47024e-08
2.44876e-08
2.42919e-08
2.41238e-08
2.3914e-08
2.37754e-08
2.36676e-08
2.36652e-08
2.38303e-08
2.3935e-08
2.39714e-08
2.39879e-08
2.40832e-08
2.4324e-08
2.47117e-08
2.52108e-08
2.5611e-08
2.5876e-08
2.62164e-08
2.65813e-08
2.70882e-08
2.75737e-08
2.8118e-08
2.88981e-08
2.97167e-08
3.01864e-08
3.07167e-08
3.16053e-08
3.25771e-08
3.33692e-08
3.40612e-08
3.48052e-08
3.57322e-08
3.67814e-08
3.80132e-08
3.9201e-08
3.98615e-08
4.05271e-08
4.15651e-08
4.27044e-08
4.41198e-08
4.55976e-08
4.69074e-08
4.80967e-08
4.90443e-08
5.02958e-08
5.19396e-08
5.36834e-08
5.542e-08
5.71899e-08
5.91029e-08
6.12553e-08
6.32589e-08
6.52027e-08
6.73321e-08
6.96751e-08
7.27286e-08
7.62654e-08
7.92172e-08
8.18196e-08
8.49408e-08
8.88534e-08
9.30729e-08
9.73175e-08
1.02078e-07
1.06913e-07
1.11996e-07
1.1783e-07
1.24051e-07
1.30908e-07
1.37917e-07
1.45428e-07
1.55315e-07
1.6652e-07
1.75574e-07
1.85127e-07
1.97845e-07
2.14206e-07
2.33179e-07
2.49097e-07
2.66345e-07
2.9166e-07
3.21405e-07
3.4818e-07
3.49331e-07
3.50876e-07
3.53101e-07
3.55729e-07
3.58044e-07
3.6001e-07
3.62021e-07
3.64639e-07
3.67487e-07
3.69802e-07
3.71929e-07
3.74308e-07
3.77547e-07
3.81083e-07
3.83351e-07
3.85551e-07
3.88693e-07
3.92745e-07
3.95903e-07
3.98287e-07
4.00975e-07
3.70177e-07
3.43836e-07
3.20243e-07
2.99945e-07
2.82298e-07
2.67245e-07
2.53304e-07
2.40832e-07
2.2988e-07
2.20016e-07
2.11378e-07
2.03454e-07
1.95878e-07
1.89462e-07
1.83876e-07
1.78476e-07
1.73259e-07
1.68589e-07
1.64553e-07
1.60823e-07
1.57302e-07
1.5392e-07
1.50999e-07
1.48332e-07
1.45757e-07
1.43465e-07
1.41438e-07
1.39638e-07
1.37788e-07
1.35875e-07
1.34186e-07
1.33178e-07
1.32208e-07
1.30927e-07
1.29893e-07
1.28911e-07
1.28078e-07
1.27537e-07
1.26934e-07
1.26325e-07
1.25941e-07
1.25656e-07
1.25451e-07
1.25126e-07
1.24913e-07
1.24815e-07
1.24863e-07
1.25084e-07
1.25176e-07
1.25189e-07
1.2538e-07
1.25743e-07
1.26127e-07
1.26396e-07
1.26648e-07
1.27321e-07
1.27912e-07
1.28413e-07
1.29054e-07
1.29761e-07
1.30517e-07
1.31247e-07
1.31922e-07
1.3261e-07
1.33675e-07
1.34682e-07
1.35665e-07
1.36698e-07
1.37546e-07
1.38763e-07
1.39906e-07
1.41266e-07
1.42406e-07
1.43901e-07
1.45083e-07
1.46761e-07
1.47861e-07
1.49941e-07
1.51196e-07
1.52394e-07
1.5402e-07
1.55192e-07
1.57843e-07
1.59404e-07
1.63661e-07
1.65648e-07
1.63878e-07
1.66835e-07
1.64832e-07
1.69595e-07
1.92502e-07
1.95413e-07
1.73588e-07
1.74723e-07
1.37575e-07
1.24256e-07
9.58471e-08
9.79881e-08
1.23903e-07
1.46919e-07
1.70728e-07
1.58632e-07
1.73923e-07
1.64994e-07
1.72849e-07
1.69877e-07
1.79278e-07
1.86715e-07
2.26788e-07
2.26325e-07
1.68267e-07
1.7137e-07
1.40671e-07
1.29973e-07
9.70658e-08
1.02566e-07
1.42744e-07
1.70302e-07
1.94407e-07
1.72076e-07
1.99875e-07
1.98644e-07
2.14742e-07
2.24764e-07
2.35699e-07
2.46012e-07
2.50093e-07
2.37766e-07
2.76544e-07
2.93757e-07
3.95639e-07
2.85681e-07
1.59723e-07
1.38456e-07
8.24455e-08
9.46851e-08
8.16475e-08
7.77486e-08
9.77508e-08
1.47408e-07
1.76424e-07
2.02931e-07
1.82991e-07
1.85796e-07
1.843e-07
1.84421e-07
1.85995e-07
1.88388e-07
1.90928e-07
1.93608e-07
1.96579e-07
1.99649e-07
2.0257e-07
2.05515e-07
2.08702e-07
2.12186e-07
2.15739e-07
2.19143e-07
2.22291e-07
2.25104e-07
2.27519e-07
2.30013e-07
2.32785e-07
2.35632e-07
2.38255e-07
2.42083e-07
2.46467e-07
2.50301e-07
2.54167e-07
2.58498e-07
2.63166e-07
2.67783e-07
2.72144e-07
2.76408e-07
2.81092e-07
2.86473e-07
2.91965e-07
2.94693e-07
2.97807e-07
3.00984e-07
3.03544e-07
3.05711e-07
3.07955e-07
3.10695e-07
3.14101e-07
3.18007e-07
3.22129e-07
3.26404e-07
3.31097e-07
3.36343e-07
3.41708e-07
3.46215e-07
3.48722e-07
3.49635e-07
3.50966e-07
3.54215e-07
3.58163e-07
3.60417e-07
3.59388e-07
3.55751e-07
3.56618e-07
3.65796e-07
3.72571e-07
3.71775e-07
3.66648e-07
3.67144e-07
3.77554e-07
3.86472e-07
3.83491e-07
3.79026e-07
3.84257e-07
3.92144e-07
3.89056e-07
3.89691e-07
3.41942e-07
2.66842e-07
2.559e-07
1.01463e-07
2.18656e-07
2.63038e-07
3.66469e-09
2.24525e-09
1.181e-09
1.65593e-09
5.50441e-09
1.61061e-08
2.07653e-08
4.53778e-08
4.95363e-08
5.41252e-08
5.571e-08
4.79389e-08
4.09655e-08
3.33991e-08
2.69652e-08
2.32689e-08
2.21034e-08
2.15365e-08
2.03231e-08
1.80302e-08
1.50027e-08
1.28455e-08
1.26302e-08
1.40296e-08
1.81643e-08
1.98248e-08
1.47104e-08
1.06759e-08
9.79868e-09
1.16022e-08
1.53691e-08
1.52935e-08
1.05514e-08
8.62021e-09
9.53879e-09
1.12368e-08
1.35131e-08
1.15707e-08
8.58081e-09
7.8782e-09
8.01673e-09
8.86178e-09
8.88526e-09
7.85923e-09
7.2954e-09
7.01901e-09
7.17129e-09
8.02101e-09
8.52284e-09
7.93798e-09
7.83559e-09
8.1544e-09
8.37622e-09
9.19061e-09
1.00875e-08
8.58981e-09
6.95366e-09
6.35147e-09
6.79324e-09
7.74915e-09
8.04364e-09
7.8838e-09
7.87926e-09
8.16088e-09
9.89873e-09
1.15302e-08
1.05839e-08
9.90103e-09
9.61352e-09
9.75626e-09
1.03054e-08
1.06006e-08
1.11688e-08
1.23227e-08
1.52102e-08
1.63185e-08
1.58047e-08
1.54005e-08
1.61556e-08
2.66304e-08
3.22169e-08
3.22012e-08
1.68178e-08
5.1188e-09
3.95889e-09
3.89862e-09
2.66716e-09
2.88462e-09
5.59325e-09
5.84623e-09
1.6167e-08
1.67765e-08
9.8782e-09
9.14126e-09
9.09134e-09
8.74128e-09
7.29917e-09
7.21952e-09
6.52561e-09
4.26352e-09
3.984e-09
3.22108e-09
2.78111e-09
2.66519e-09
3.60182e-09
4.96297e-09
7.13235e-09
1.07809e-08
9.11409e-09
1.06282e-08
1.07094e-08
9.97477e-09
1.15283e-08
1.29321e-08
1.15383e-08
1.01164e-08
1.02637e-08
1.03534e-08
1.15901e-08
1.36994e-08
1.44144e-08
1.85083e-08
1.66089e-08
1.31262e-08
1.05466e-08
9.74293e-09
1.14212e-08
1.11707e-08
9.51659e-09
9.66373e-09
1.02407e-08
1.04522e-08
1.09773e-08
1.06142e-08
1.04628e-08
1.03478e-08
1.04544e-08
1.08986e-08
1.11581e-08
1.17487e-08
1.18407e-08
1.208e-08
1.24401e-08
1.29044e-08
1.3333e-08
1.37188e-08
1.40597e-08
1.45414e-08
1.5109e-08
1.57005e-08
1.60496e-08
1.63896e-08
1.69045e-08
1.755e-08
1.83158e-08
1.90009e-08
1.95087e-08
2.01183e-08
2.08626e-08
2.16033e-08
2.23545e-08
2.33248e-08
2.44695e-08
2.55723e-08
2.66603e-08
2.79894e-08
2.93607e-08
3.09284e-08
3.26867e-08
3.43615e-08
3.67093e-08
3.95612e-08
4.22266e-08
4.51872e-08
4.85457e-08
5.22367e-08
5.76218e-08
6.45275e-08
7.16825e-08
8.02072e-08
8.97378e-08
1.00441e-07
1.17497e-07
1.40593e-07
1.63354e-07
1.9197e-07
2.3782e-07
2.57392e-07
2.31208e-07
2.01948e-07
1.70555e-07
1.44117e-07
1.22621e-07
1.04923e-07
9.20405e-08
8.26123e-08
7.48617e-08
6.90937e-08
6.41688e-08
5.94338e-08
5.52411e-08
5.16416e-08
4.84158e-08
4.56956e-08
4.33057e-08
4.12427e-08
3.97268e-08
3.81753e-08
3.6286e-08
3.44912e-08
3.30806e-08
3.21668e-08
3.14415e-08
3.04267e-08
2.92652e-08
2.84301e-08
2.76654e-08
2.69593e-08
2.64013e-08
2.58787e-08
2.53099e-08
2.48034e-08
2.43153e-08
2.39799e-08
2.38667e-08
2.35549e-08
2.30605e-08
2.27654e-08
2.27372e-08
2.27316e-08
2.27511e-08
2.27167e-08
2.24933e-08
2.24518e-08
2.27503e-08
2.28698e-08
2.28111e-08
2.29297e-08
2.32319e-08
2.3639e-08
2.40716e-08
2.44123e-08
2.44497e-08
2.46188e-08
2.51258e-08
2.58109e-08
2.64071e-08
2.68255e-08
2.73234e-08
2.79491e-08
2.84648e-08
2.90763e-08
2.98976e-08
3.08398e-08
3.15181e-08
3.18932e-08
3.25648e-08
3.35432e-08
3.46568e-08
3.58815e-08
3.68194e-08
3.74387e-08
3.80896e-08
3.91413e-08
4.03271e-08
4.13752e-08
4.26097e-08
4.39286e-08
4.51228e-08
4.61871e-08
4.7576e-08
4.93907e-08
5.10861e-08
5.22478e-08
5.33675e-08
5.52432e-08
5.78955e-08
6.00992e-08
6.18641e-08
6.38465e-08
6.6368e-08
6.90816e-08
7.16805e-08
7.43434e-08
7.73978e-08
8.10486e-08
8.53816e-08
8.9589e-08
9.22801e-08
9.57943e-08
1.00898e-07
1.06723e-07
1.13667e-07
1.20005e-07
1.24717e-07
1.30247e-07
1.37948e-07
1.47672e-07
1.59355e-07
1.68682e-07
1.76754e-07
1.88046e-07
2.0471e-07
2.23204e-07
2.36147e-07
2.51506e-07
2.76539e-07
3.07773e-07
3.35116e-07
3.6501e-07
4.05943e-07
4.56768e-07
5.32061e-07
6.14341e-07
6.83966e-07
7.8704e-07
9.46856e-07
1.12186e-06
1.22438e-06
1.22387e-06
1.17196e-06
1.04439e-06
8.5579e-07
7.23123e-07
6.45041e-07
5.80554e-07
5.19526e-07
4.60619e-07
4.14055e-07
3.82177e-07
3.56773e-07
3.32426e-07
3.08808e-07
2.88888e-07
2.72484e-07
2.58662e-07
2.45651e-07
2.33949e-07
2.23333e-07
2.13403e-07
2.05232e-07
1.98278e-07
1.9171e-07
1.8593e-07
1.80355e-07
1.74489e-07
1.69291e-07
1.6504e-07
1.61409e-07
1.57539e-07
1.5391e-07
1.51162e-07
1.48576e-07
1.459e-07
1.43109e-07
1.40688e-07
1.39212e-07
1.37831e-07
1.35825e-07
1.33584e-07
1.32004e-07
1.31308e-07
1.30616e-07
1.29348e-07
1.2795e-07
1.26919e-07
1.26519e-07
1.26334e-07
1.25632e-07
1.2495e-07
1.24484e-07
1.2419e-07
1.24172e-07
1.23963e-07
1.23521e-07
1.23353e-07
1.23683e-07
1.24178e-07
1.2425e-07
1.24211e-07
1.24187e-07
1.24625e-07
1.25036e-07
1.25347e-07
1.25922e-07
1.26661e-07
1.27262e-07
1.27579e-07
1.2816e-07
1.29055e-07
1.30088e-07
1.3044e-07
1.31012e-07
1.32087e-07
1.33163e-07
1.33938e-07
1.35345e-07
1.36444e-07
1.37304e-07
1.38145e-07
1.3926e-07
1.404e-07
1.41949e-07
1.43579e-07
1.45156e-07
1.46538e-07
1.46762e-07
1.48626e-07
1.48906e-07
1.52027e-07
1.53498e-07
1.57453e-07
1.59805e-07
1.57988e-07
1.60803e-07
1.57752e-07
1.62896e-07
1.80624e-07
1.83958e-07
1.70224e-07
1.69931e-07
1.31766e-07
1.19274e-07
9.43824e-08
9.78077e-08
1.18715e-07
1.25405e-07
1.50082e-07
1.64239e-07
2.35182e-07
2.09282e-07
1.76807e-07
1.79305e-07
1.76847e-07
2.20268e-07
2.06466e-07
1.7343e-07
1.58504e-07
1.53174e-07
1.30941e-07
1.21634e-07
9.27403e-08
9.91974e-08
1.35064e-07
1.42949e-07
1.72911e-07
1.83935e-07
2.72634e-07
2.51312e-07
2.16214e-07
2.26333e-07
2.18688e-07
2.30831e-07
1.95049e-07
2.04811e-07
2.4202e-07
2.49523e-07
3.39477e-07
2.94177e-07
1.54398e-07
1.18016e-07
7.41286e-08
1.15727e-07
1.19308e-07
9.20029e-08
1.04869e-07
1.25398e-07
1.73889e-07
2.97076e-07
2.08112e-07
1.87901e-07
1.9683e-07
1.80981e-07
1.81089e-07
1.83546e-07
1.86948e-07
1.90302e-07
1.93433e-07
1.96497e-07
1.99344e-07
2.01744e-07
2.03929e-07
2.06425e-07
2.09605e-07
2.13433e-07
2.17575e-07
2.2163e-07
2.25423e-07
2.29016e-07
2.32085e-07
2.33761e-07
2.36417e-07
2.39571e-07
2.42805e-07
2.46197e-07
2.50082e-07
2.54046e-07
2.57653e-07
2.60698e-07
2.63216e-07
2.65344e-07
2.67571e-07
2.70351e-07
2.73869e-07
2.78051e-07
2.82665e-07
2.87621e-07
2.92481e-07
2.96642e-07
3.00026e-07
3.02991e-07
3.06108e-07
3.09913e-07
3.14416e-07
3.19096e-07
3.23247e-07
3.26602e-07
3.29696e-07
3.3352e-07
3.38648e-07
3.44575e-07
3.49958e-07
3.53628e-07
3.55876e-07
3.57433e-07
3.58044e-07
3.57226e-07
3.55778e-07
3.56808e-07
3.63921e-07
3.74944e-07
3.80636e-07
3.75576e-07
3.68005e-07
3.70817e-07
3.87462e-07
3.99134e-07
3.87123e-07
3.71585e-07
3.75426e-07
3.91522e-07
3.87196e-07
3.72154e-07
3.85821e-07
3.54502e-07
2.70915e-07
2.58712e-07
1.00483e-07
2.18094e-07
2.84487e-07
3.54665e-09
2.38564e-09
1.4501e-09
2.40612e-09
6.54017e-09
1.08959e-08
1.94666e-08
3.55741e-08
5.28281e-08
5.65589e-08
5.36989e-08
4.97437e-08
4.2456e-08
3.26217e-08
2.34815e-08
1.80299e-08
1.59189e-08
1.45651e-08
1.2527e-08
1.0905e-08
9.72708e-09
9.04389e-09
8.94017e-09
8.69147e-09
9.52049e-09
1.07253e-08
1.02027e-08
8.79272e-09
7.55414e-09
7.36101e-09
8.31245e-09
8.93524e-09
7.98593e-09
6.64255e-09
6.45494e-09
7.33177e-09
9.27933e-09
9.06322e-09
6.74263e-09
5.53798e-09
5.41058e-09
6.29608e-09
7.59285e-09
7.44447e-09
5.91249e-09
5.02305e-09
5.06908e-09
5.95334e-09
7.09192e-09
6.78561e-09
6.15199e-09
6.51453e-09
7.64345e-09
8.36153e-09
8.19734e-09
7.07571e-09
5.94269e-09
5.66958e-09
6.13785e-09
6.23138e-09
5.7543e-09
5.33834e-09
5.2423e-09
6.11905e-09
8.20885e-09
8.46435e-09
6.76256e-09
5.56643e-09
5.23812e-09
5.57556e-09
6.03704e-09
6.37541e-09
6.85357e-09
7.82958e-09
1.021e-08
1.55596e-08
1.5384e-08
9.99309e-09
8.19896e-09
8.1426e-09
7.9425e-09
8.09278e-09
1.23354e-08
1.94186e-08
3.24918e-08
1.70563e-08
9.89374e-09
3.74785e-09
2.83622e-09
3.33837e-09
2.20873e-09
8.68714e-09
6.35261e-09
1.47748e-08
1.81539e-08
6.94251e-09
6.50224e-09
6.15044e-09
6.87923e-09
6.32393e-09
6.31772e-09
5.67931e-09
4.30967e-09
3.65612e-09
2.96122e-09
2.48575e-09
2.43877e-09
2.77278e-09
3.67809e-09
5.35567e-09
1.0012e-08
9.63893e-09
1.01315e-08
9.37463e-09
8.6671e-09
9.79144e-09
1.07554e-08
9.5564e-09
8.49881e-09
8.24059e-09
9.42393e-09
1.21315e-08
1.59336e-08
1.59143e-08
1.86046e-08
1.67728e-08
1.35286e-08
1.04767e-08
9.75042e-09
1.16012e-08
1.12961e-08
9.46074e-09
9.70974e-09
1.04181e-08
1.04228e-08
1.0614e-08
1.11326e-08
1.09415e-08
1.08341e-08
1.11749e-08
1.16137e-08
1.18814e-08
1.2386e-08
1.25369e-08
1.28886e-08
1.33664e-08
1.38854e-08
1.43025e-08
1.48271e-08
1.52791e-08
1.56837e-08
1.60809e-08
1.66888e-08
1.73716e-08
1.79748e-08
1.84735e-08
1.90563e-08
1.98003e-08
2.05794e-08
2.12365e-08
2.1871e-08
2.2761e-08
2.39767e-08
2.52103e-08
2.62156e-08
2.72629e-08
2.86377e-08
3.03956e-08
3.21034e-08
3.36063e-08
3.56917e-08
3.85216e-08
4.13353e-08
4.39356e-08
4.69139e-08
5.04525e-08
5.54936e-08
6.21786e-08
6.83594e-08
7.40036e-08
8.16556e-08
9.25136e-08
1.06829e-07
1.21696e-07
1.34563e-07
1.49808e-07
1.71061e-07
1.79767e-07
1.72345e-07
1.56464e-07
1.36229e-07
1.19968e-07
1.06654e-07
9.60266e-08
8.72855e-08
7.89529e-08
7.12966e-08
6.51732e-08
6.06305e-08
5.72201e-08
5.39062e-08
5.01784e-08
4.67045e-08
4.40763e-08
4.24045e-08
4.09135e-08
3.92691e-08
3.73102e-08
3.51894e-08
3.36383e-08
3.26696e-08
3.20526e-08
3.12769e-08
2.99512e-08
2.87226e-08
2.80429e-08
2.75079e-08
2.69191e-08
2.64188e-08
2.58784e-08
2.51009e-08
2.44911e-08
2.41642e-08
2.41008e-08
2.4045e-08
2.37046e-08
2.31719e-08
2.27477e-08
2.26622e-08
2.27889e-08
2.29237e-08
2.29548e-08
2.27469e-08
2.26511e-08
2.28216e-08
2.29548e-08
2.30046e-08
2.31425e-08
2.35148e-08
2.39109e-08
2.40987e-08
2.42791e-08
2.44351e-08
2.47314e-08
2.53245e-08
2.60109e-08
2.66319e-08
2.70245e-08
2.72733e-08
2.76945e-08
2.83055e-08
2.9086e-08
2.98647e-08
3.06338e-08
3.13511e-08
3.17599e-08
3.23512e-08
3.34207e-08
3.45465e-08
3.53714e-08
3.60133e-08
3.69136e-08
3.79025e-08
3.90091e-08
4.00806e-08
4.0791e-08
4.18454e-08
4.32693e-08
4.45499e-08
4.57299e-08
4.72082e-08
4.9025e-08
5.06255e-08
5.17868e-08
5.27855e-08
5.43714e-08
5.67673e-08
5.92521e-08
6.13751e-08
6.35009e-08
6.605e-08
6.83461e-08
7.02168e-08
7.28379e-08
7.69178e-08
8.10657e-08
8.47616e-08
8.82576e-08
9.08951e-08
9.45764e-08
1.00087e-07
1.06071e-07
1.12207e-07
1.18536e-07
1.23559e-07
1.28839e-07
1.36716e-07
1.45151e-07
1.54929e-07
1.65522e-07
1.75638e-07
1.87198e-07
2.01985e-07
2.16196e-07
2.28502e-07
2.4608e-07
2.70711e-07
2.98514e-07
3.20465e-07
3.44667e-07
3.84667e-07
4.32463e-07
4.89012e-07
5.48602e-07
5.97925e-07
6.65265e-07
7.57909e-07
8.36078e-07
8.78196e-07
8.86253e-07
8.67355e-07
8.03059e-07
7.07317e-07
6.37479e-07
5.79772e-07
5.2533e-07
4.81853e-07
4.35592e-07
3.95487e-07
3.67308e-07
3.42971e-07
3.20485e-07
3.0034e-07
2.82906e-07
2.67484e-07
2.53772e-07
2.40738e-07
2.29309e-07
2.19406e-07
2.10411e-07
2.02569e-07
1.9557e-07
1.89446e-07
1.83864e-07
1.78413e-07
1.7315e-07
1.68004e-07
1.63376e-07
1.59554e-07
1.55781e-07
1.5274e-07
1.50426e-07
1.47547e-07
1.44558e-07
1.41838e-07
1.39795e-07
1.38393e-07
1.36858e-07
1.34999e-07
1.3305e-07
1.31513e-07
1.3048e-07
1.29762e-07
1.28594e-07
1.27266e-07
1.26456e-07
1.26195e-07
1.25838e-07
1.25065e-07
1.24392e-07
1.23893e-07
1.23594e-07
1.23648e-07
1.23509e-07
1.23149e-07
1.23011e-07
1.23421e-07
1.23705e-07
1.23648e-07
1.23659e-07
1.23809e-07
1.24293e-07
1.24689e-07
1.25072e-07
1.2566e-07
1.26244e-07
1.26798e-07
1.27282e-07
1.27799e-07
1.287e-07
1.29658e-07
1.30289e-07
1.3092e-07
1.32028e-07
1.32861e-07
1.3375e-07
1.35113e-07
1.36148e-07
1.37086e-07
1.37929e-07
1.39062e-07
1.40438e-07
1.41879e-07
1.43137e-07
1.44669e-07
1.4575e-07
1.47034e-07
1.502e-07
1.51968e-07
1.5286e-07
1.54531e-07
1.54984e-07
1.53158e-07
1.55735e-07
1.70728e-07
1.73411e-07
1.68998e-07
1.68724e-07
1.27892e-07
1.15051e-07
9.47196e-08
9.76534e-08
1.13368e-07
1.16783e-07
1.40323e-07
1.60011e-07
2.28535e-07
2.17093e-07
1.81248e-07
1.85843e-07
1.8347e-07
2.14925e-07
2.04998e-07
1.59437e-07
1.55464e-07
1.39439e-07
1.2262e-07
1.11151e-07
8.83475e-08
9.38808e-08
1.2596e-07
1.31054e-07
1.57909e-07
1.76427e-07
2.59751e-07
2.69044e-07
2.18805e-07
2.4041e-07
2.27715e-07
2.23841e-07
1.88839e-07
2.12451e-07
2.03022e-07
2.58937e-07
2.33357e-07
2.7899e-07
1.41318e-07
1.09398e-07
6.9974e-08
1.37646e-07
1.16251e-07
7.93207e-08
8.29667e-08
1.03632e-07
2.03893e-07
4.04522e-07
1.27915e-06
3.52137e-07
2.97729e-07
1.74052e-07
1.67688e-07
1.81481e-07
1.84549e-07
1.88289e-07
1.92295e-07
1.95636e-07
1.97709e-07
1.99453e-07
2.01616e-07
2.03796e-07
2.05426e-07
2.06867e-07
2.08785e-07
2.11359e-07
2.14356e-07
2.17595e-07
2.20483e-07
2.23085e-07
2.26217e-07
2.29041e-07
2.29867e-07
2.32559e-07
2.36349e-07
2.4029e-07
2.44749e-07
2.49641e-07
2.54222e-07
2.58033e-07
2.61112e-07
2.63389e-07
2.65138e-07
2.67099e-07
2.69937e-07
2.73707e-07
2.78029e-07
2.82692e-07
2.87276e-07
2.92287e-07
2.96165e-07
2.99265e-07
3.02265e-07
3.0577e-07
3.10138e-07
3.1497e-07
3.19403e-07
3.22701e-07
3.25001e-07
3.27505e-07
3.31575e-07
3.37599e-07
3.44363e-07
3.49657e-07
3.52374e-07
3.53093e-07
3.53078e-07
3.5303e-07
3.53316e-07
3.55038e-07
3.60173e-07
3.69884e-07
3.78295e-07
3.77135e-07
3.71097e-07
3.70817e-07
3.83389e-07
3.98121e-07
3.93821e-07
3.76778e-07
3.73312e-07
3.83348e-07
3.83539e-07
3.70976e-07
3.7706e-07
4.07863e-07
3.68954e-07
2.79171e-07
2.55838e-07
1.00437e-07
2.20552e-07
2.73425e-07
3.70994e-09
2.84629e-09
1.62355e-09
3.12531e-09
8.0655e-09
5.56443e-09
6.48472e-09
1.17892e-08
1.92327e-08
2.63864e-08
3.42895e-08
4.5482e-08
4.43766e-08
2.50999e-08
1.58933e-08
1.23482e-08
1.1107e-08
1.03371e-08
9.07488e-09
8.09039e-09
7.97118e-09
8.23383e-09
8.27918e-09
7.55296e-09
7.05367e-09
7.56904e-09
9.43159e-09
1.06962e-08
8.66341e-09
7.05164e-09
6.56969e-09
6.9178e-09
7.19478e-09
6.50623e-09
5.91501e-09
6.19467e-09
7.23532e-09
7.40851e-09
6.17798e-09
5.08067e-09
4.89479e-09
5.77997e-09
7.32448e-09
7.51451e-09
5.78416e-09
4.51792e-09
4.47575e-09
5.21082e-09
6.18849e-09
6.40786e-09
5.98205e-09
5.95525e-09
6.98089e-09
7.98901e-09
7.49234e-09
6.83843e-09
6.60476e-09
6.82103e-09
6.79139e-09
5.59165e-09
4.69039e-09
4.4244e-09
4.66985e-09
5.45973e-09
6.04376e-09
5.72922e-09
5.1816e-09
4.68562e-09
4.23659e-09
4.04719e-09
4.11998e-09
4.27132e-09
4.32001e-09
4.70065e-09
5.61651e-09
7.34075e-09
1.11614e-08
1.41618e-08
1.14622e-08
9.13325e-09
7.2413e-09
5.96849e-09
5.99986e-09
5.6675e-09
5.84334e-09
8.19115e-09
1.29111e-08
2.29527e-08
2.1092e-08
1.10221e-08
4.22706e-09
3.66564e-09
4.91508e-09
2.77665e-09
1.0842e-08
6.84893e-09
1.11676e-08
1.37811e-08
6.62477e-09
7.62568e-09
7.17388e-09
7.72377e-09
7.08941e-09
6.96997e-09
6.15999e-09
4.60182e-09
3.58848e-09
3.00453e-09
2.36932e-09
2.39524e-09
2.55039e-09
3.21647e-09
5.15714e-09
9.18955e-09
8.37479e-09
8.84157e-09
8.67171e-09
7.79088e-09
8.84963e-09
9.69497e-09
8.72606e-09
8.08161e-09
7.82019e-09
9.23002e-09
1.32687e-08
1.92672e-08
1.87637e-08
2.12232e-08
1.63785e-08
1.45326e-08
1.08773e-08
9.9843e-09
1.27483e-08
1.23055e-08
1.05057e-08
9.61921e-09
9.50727e-09
1.06416e-08
1.0819e-08
1.19162e-08
1.17649e-08
1.16781e-08
1.19546e-08
1.22638e-08
1.26086e-08
1.33199e-08
1.3751e-08
1.41288e-08
1.44843e-08
1.48802e-08
1.53533e-08
1.59673e-08
1.65282e-08
1.71666e-08
1.76287e-08
1.80493e-08
1.85994e-08
1.94022e-08
2.02929e-08
2.10092e-08
2.16348e-08
2.24278e-08
2.34411e-08
2.45681e-08
2.55528e-08
2.66058e-08
2.80968e-08
2.9799e-08
3.14303e-08
3.29966e-08
3.46984e-08
3.7053e-08
3.99509e-08
4.25404e-08
4.52991e-08
4.89314e-08
5.31966e-08
5.83455e-08
6.38838e-08
6.89766e-08
7.52457e-08
8.45077e-08
9.51574e-08
1.04072e-07
1.11985e-07
1.22219e-07
1.34466e-07
1.3883e-07
1.33623e-07
1.22909e-07
1.11588e-07
1.02121e-07
9.35838e-08
8.69848e-08
8.12969e-08
7.41831e-08
6.73145e-08
6.1717e-08
5.73104e-08
5.42627e-08
5.15461e-08
4.8578e-08
4.5519e-08
4.28512e-08
4.12421e-08
3.99072e-08
3.81595e-08
3.60393e-08
3.42822e-08
3.31825e-08
3.24281e-08
3.18361e-08
3.08742e-08
2.94035e-08
2.82444e-08
2.7674e-08
2.72581e-08
2.68652e-08
2.64577e-08
2.57551e-08
2.48972e-08
2.43882e-08
2.42506e-08
2.42931e-08
2.41046e-08
2.37098e-08
2.32918e-08
2.30253e-08
2.29052e-08
2.28528e-08
2.29549e-08
2.3138e-08
2.31904e-08
2.30794e-08
2.29406e-08
2.30262e-08
2.32952e-08
2.35476e-08
2.37705e-08
2.40607e-08
2.41777e-08
2.43038e-08
2.4715e-08
2.51916e-08
2.56758e-08
2.61727e-08
2.67473e-08