/*--------------------------------*- C++ -*----------------------------------*\
| =========                 |                                                 |
| \\      /  F ield         | OpenFOAM: The Open Source CFD Toolbox           |
|  \\    /   O peration     | Version:  v2006                                 |
|   \\  /    A nd           | Website:  www.openfoam.com                      |
|    \\/     M anipulation  |                                                 |
\*---------------------------------------------------------------------------*/
FoamFile
{
    version     2.0;
    format      ascii;
    class       volScalarField;
    location    "4.5";
    object      p;
}
// * * * * * * * * * * * * * * * * * * * * * * * * * * * * * * * * * * * * * //

dimensions      [1 -1 -2 0 0 0 0];


internalField   nonuniform List<scalar> 
33000
(
8599.19
8592.11
8585.74
8580.52
8574.72
8566.46
8557.12
8549.73
8544.67
8540.83
8536.53
8530.9
8524.87
8518.44
8511.79
8505.02
8498.14
8491.17
8484.12
8476.96
8469.7
8462.36
8454.95
8447.45
8439.83
8432.13
8424.38
8416.54
8408.58
8400.53
8392.39
8384.19
8375.91
8367.52
8359.03
8350.44
8341.78
8333.06
8324.24
8315.32
8306.32
8297.22
8288.05
8278.81
8269.48
8260.06
8250.55
8240.97
8231.31
8221.59
8211.8
8201.92
8191.98
8181.99
8171.96
8161.87
8151.73
8141.53
8131.28
8121
8110.7
8100.35
8089.98
8079.6
8069.22
8058.87
8048.56
8038.25
8027.95
8017.67
8007.43
7997.28
7987.29
7977.62
7968.45
7960.08
7952.79
7945.66
7935.54
7915.41
7908.54
7894.83
7883.08
7871.17
7859.14
7845.53
7833.72
7820.66
7808.76
7795.62
7783.7
7770.92
7758.78
7746.18
7734.55
7721.96
7711.29
7698.8
7690.64
7678.13
7657.61
7642.55
7626.63
7610.57
7595.17
7579.5
7563.65
7548.1
7532.57
7517.63
7502.76
7488.37
7474.31
7460.48
7447.51
7434.32
7423.23
7410.07
7394.19
7381.09
7367.75
7354.88
7342.52
7330.54
7318.85
7307.69
7296.95
7286.66
7276.81
7267.36
7258.31
7249.63
7241.33
7233.35
7225.69
7218.31
7211.2
7204.33
7197.7
7191.35
7185.29
7179.56
7174.17
7169.17
7164.54
7160.32
7156.51
7153.14
7150.21
7147.74
7145.73
7144.19
7143.12
7142.52
7142.41
7142.78
7143.64
7144.97
7146.79
7149.09
7151.86
7155.1
7158.79
7162.94
7167.54
7172.58
7178.03
7183.9
7190.17
7196.84
7203.88
7211.27
7219.01
7227.08
7235.47
7244.17
7253.14
7262.37
7271.85
7281.56
7291.48
7301.61
7311.91
7322.37
7332.99
7343.74
7354.59
7365.53
7376.55
7387.63
7398.76
7409.92
7421.09
7432.27
7443.43
7454.56
7465.65
7476.68
7487.65
7498.54
7509.34
7520.04
7530.61
7541.07
7551.4
7561.6
7571.65
7581.55
7591.28
7600.85
7610.25
7619.47
7628.52
7637.38
7646.05
7654.55
7662.86
7670.98
7678.91
7686.64
7694.18
7701.55
7708.73
7715.73
7722.54
7729.18
7735.64
7741.93
7748.06
7754.04
7759.85
7765.52
7771.03
7776.4
7781.65
7786.76
7791.76
7796.63
7801.39
7806.03
7810.57
7815.02
7819.36
7823.62
7827.79
7831.88
7835.89
7839.82
7843.68
7847.47
7851.19
7854.85
7858.45
7861.98
7865.46
7868.87
7872.23
7875.51
7878.72
7881.85
7884.9
7887.86
7890.74
7893.52
7896.21
7898.79
7901.28
7903.66
7905.94
7908.11
7910.18
7912.13
7913.97
7915.7
7917.31
7918.82
7920.21
7921.49
7922.66
7923.71
7924.66
7925.49
7926.21
7926.82
7927.33
7927.74
7928.04
7928.24
7928.33
7928.33
7928.24
7928.05
7927.76
7927.39
7926.93
7926.38
7925.75
7925.04
7924.25
7923.39
7922.45
7921.44
7920.36
7919.21
7918.01
7916.74
7915.41
7914.03
7912.6
7911.11
7909.58
7908
7906.38
7904.71
7903.01
7901.27
7899.5
7897.69
7895.85
7893.99
7892.1
7890.19
7888.25
7886.3
7884.32
7882.33
7880.33
7878.32
7876.29
7874.26
7872.22
7870.17
7868.12
7866.07
7864.02
7861.97
7859.92
7857.88
7855.84
7853.82
7851.8
7849.79
7847.8
7845.82
7843.85
7841.9
7839.97
7838.05
7836.15
7834.27
7832.41
7830.56
7828.74
7826.94
7825.16
7823.41
7821.68
7819.97
7818.29
7816.63
7815
7813.39
7811.81
7810.25
7808.71
7807.2
7805.72
7804.26
7802.82
7801.41
7800.03
7798.67
7797.34
7796.03
7794.74
7793.48
7792.25
7791.03
7789.85
7788.68
7787.54
7786.42
7785.32
7784.25
7783.2
7782.17
7781.16
7780.17
7779.2
7778.25
7777.32
7776.41
7775.52
7774.64
7773.79
7772.95
7772.13
7771.32
7770.53
7769.76
7769.01
7768.27
7767.54
7766.83
7766.13
7765.45
7764.78
7764.12
7763.48
7762.85
7762.23
7761.62
7761.03
7760.44
7759.87
7759.3
7758.75
7758.21
7757.68
7757.15
7756.64
7756.14
7755.64
7755.15
7754.68
7754.21
7753.75
7753.29
7752.86
7752.4
7751.98
7751.6
7751.19
7750.8
7750.4
7750
7749.61
7749.21
7748.82
7748.43
7748.05
7747.67
7747.3
7746.92
7746.56
7746.19
7745.83
7745.47
7745.12
7744.78
7744.44
7744.11
7743.77
7743.44
7743.11
7742.8
7742.47
7742.16
7741.85
7741.55
7741.24
7740.96
7740.65
7740.38
7740.12
7739.85
7739.59
7739.37
7739
7738.83
7738.68
7738.5
7738.31
7738.11
7737.91
7737.71
7737.5
7737.29
7737.08
7736.86
7736.65
7736.44
7736.23
7736.01
7735.8
7735.59
7735.38
7735.17
7734.97
7734.76
7734.56
7734.35
7734.15
7733.95
7733.75
7733.55
7733.36
7733.16
7732.97
7732.78
7732.59
7732.41
7732.22
7732.04
7731.86
7731.68
7731.51
7731.33
7731.16
7730.99
7730.82
7730.66
7730.49
7730.33
7730.17
7730.02
7729.86
7729.71
7729.56
7729.41
7729.27
7729.12
7728.98
7728.85
7728.71
7728.58
7728.45
7728.32
7728.19
7728.07
7727.94
7727.83
7727.71
7727.59
7727.48
7727.37
7727.27
7727.16
7727.06
7726.96
7726.86
7726.77
7726.68
7726.59
7726.5
7726.42
7726.33
7726.26
7726.17
7726.1
8402.57
8395.14
8387.64
8381.49
8373.27
8364.45
8354.45
8345.74
8343.09
8341.95
8338.9
8334.29
8328.8
8322.41
8315.78
8309
8302.11
8295.14
8288.09
8280.94
8273.69
8266.35
8258.94
8251.44
8243.85
8236.17
8228.41
8220.55
8212.6
8204.57
8196.45
8188.23
8179.93
8171.54
8163.06
8154.48
8145.83
8137.09
8128.25
8119.33
8110.33
8101.23
8092.05
8082.8
8073.46
8064.04
8054.53
8044.94
8035.28
8025.55
8015.75
8005.87
7995.93
7985.95
7975.91
7965.8
7955.64
7945.42
7935.17
7924.89
7914.57
7904.21
7893.83
7883.42
7873.02
7862.64
7852.26
7841.89
7831.51
7821.14
7810.75
7800.37
7790.01
7779.73
7769.68
7760.16
7751
7741.49
7731.71
7723.12
7716.14
7705.19
7683.68
7675.34
7661.73
7649.59
7637.43
7625.5
7613.39
7599.48
7587.51
7574.24
7561.98
7549.12
7536.96
7523.94
7511.72
7498.82
7486.07
7473.49
7459.33
7449.59
7435.42
7415.36
7399.34
7382.72
7367.06
7351.47
7336.52
7321.59
7306.49
7291.8
7277.46
7263.34
7249.75
7236.3
7223.33
7210.54
7197.34
7186.13
7173.07
7158.41
7145.95
7133.8
7122.2
7111.04
7100.32
7089.95
7080.07
7070.6
7061.53
7052.86
7044.53
7036.54
7028.85
7021.47
7014.34
7007.47
7000.85
6994.48
6988.41
6982.67
6977.27
6972.26
6967.62
6963.38
6959.57
6956.19
6953.26
6950.78
6948.76
6947.21
6946.14
6945.55
6945.45
6945.82
6946.68
6948.02
6949.84
6952.14
6954.92
6958.17
6961.88
6966.05
6970.66
6975.71
6981.19
6987.07
6993.36
7000.05
7007.11
7014.53
7022.29
7030.38
7038.8
7047.51
7056.5
7065.76
7075.27
7085.01
7094.95
7105.1
7115.42
7125.91
7136.55
7147.31
7158.19
7169.15
7180.19
7191.29
7202.43
7213.61
7224.81
7236
7247.19
7258.33
7269.44
7280.48
7291.46
7302.36
7313.17
7323.88
7334.47
7344.94
7355.28
7365.48
7375.53
7385.43
7395.17
7404.74
7414.15
7423.37
7432.42
7441.28
7449.96
7458.46
7466.77
7474.88
7482.81
7490.55
7498.09
7505.45
7512.63
7519.63
7526.44
7533.08
7539.54
7545.83
7551.96
7557.93
7563.74
7569.4
7574.92
7580.3
7585.54
7590.66
7595.65
7600.52
7605.28
7609.93
7614.47
7618.91
7623.27
7627.52
7631.7
7635.79
7639.8
7643.74
7647.6
7651.39
7655.12
7658.78
7662.38
7665.92
7669.4
7672.82
7676.18
7679.47
7682.68
7685.82
7688.87
7691.84
7694.72
7697.51
7700.2
7702.79
7705.28
7707.66
7709.95
7712.12
7714.19
7716.14
7717.99
7719.72
7721.34
7722.84
7724.23
7725.51
7726.68
7727.73
7728.68
7729.51
7730.23
7730.84
7731.35
7731.75
7732.05
7732.24
7732.33
7732.33
7732.23
7732.03
7731.74
7731.37
7730.9
7730.35
7729.71
7729
7728.2
7727.33
7726.39
7725.38
7724.29
7723.14
7721.93
7720.66
7719.33
7717.95
7716.51
7715.02
7713.48
7711.9
7710.27
7708.6
7706.9
7705.15
7703.38
7701.57
7699.73
7697.86
7695.96
7694.05
7692.11
7690.15
7688.17
7686.18
7684.17
7682.15
7680.12
7678.09
7676.04
7673.99
7671.94
7669.89
7667.83
7665.78
7663.73
7661.68
7659.65
7657.62
7655.6
7653.59
7651.59
7649.61
7647.64
7645.69
7643.76
7641.84
7639.93
7638.05
7636.18
7634.34
7632.52
7630.72
7628.94
7627.18
7625.45
7623.75
7622.06
7620.4
7618.77
7617.16
7615.58
7614.02
7612.48
7610.97
7609.49
7608.03
7606.59
7605.18
7603.8
7602.44
7601.1
7599.79
7598.51
7597.25
7596.01
7594.8
7593.61
7592.45
7591.31
7590.19
7589.09
7588.02
7586.97
7585.94
7584.93
7583.94
7582.97
7582.02
7581.09
7580.18
7579.29
7578.42
7577.56
7576.72
7575.9
7575.1
7574.31
7573.54
7572.78
7572.04
7571.32
7570.61
7569.91
7569.23
7568.56
7567.9
7567.26
7566.63
7566.01
7565.41
7564.81
7564.23
7563.65
7563.09
7562.54
7562
7561.46
7560.94
7560.42
7559.92
7559.43
7558.95
7558.46
7558
7557.51
7557.06
7556.67
7556.23
7555.83
7555.41
7555.01
7554.6
7554.2
7553.8
7553.4
7553.01
7552.62
7552.23
7551.84
7551.47
7551.09
7550.72
7550.34
7549.98
7549.62
7549.27
7548.92
7548.58
7548.23
7547.9
7547.56
7547.23
7546.91
7546.58
7546.27
7545.94
7545.65
7545.32
7545.04
7544.74
7544.48
7544.17
7543.93
7543.51
7543.3
7543.14
7542.94
7542.74
7542.54
7542.34
7542.14
7541.93
7541.72
7541.51
7541.3
7541.09
7540.88
7540.66
7540.45
7540.24
7540.02
7539.81
7539.6
7539.39
7539.18
7538.97
7538.76
7538.56
7538.35
7538.15
7537.95
7537.75
7537.55
7537.35
7537.15
7536.96
7536.77
7536.58
7536.39
7536.2
7536.02
7535.84
7535.66
7535.48
7535.3
7535.13
7534.96
7534.79
7534.62
7534.45
7534.29
7534.13
7533.97
7533.81
7533.66
7533.5
7533.35
7533.21
7533.06
7532.92
7532.78
7532.64
7532.5
7532.37
7532.24
7532.11
7531.98
7531.86
7531.74
7531.62
7531.5
7531.39
7531.28
7531.17
7531.06
7530.96
7530.85
7530.75
7530.66
7530.56
7530.47
7530.38
7530.29
7530.21
7530.13
7530.05
7529.97
7529.89
8206.77
8199.09
8192.01
8186.88
8179.88
8171.35
8162.68
8155.17
8149.91
8146.2
8142.06
8137.33
8131.69
8125.6
8119.24
8112.66
8105.92
8099.05
8092.07
8084.98
8077.78
8070.48
8063.09
8055.6
8048.01
8040.35
8032.59
8024.74
8016.81
8008.77
8000.65
7992.44
7984.12
7975.73
7967.25
7958.68
7950.02
7941.26
7932.42
7923.51
7914.49
7905.4
7896.21
7886.95
7877.6
7868.17
7858.66
7849.07
7839.4
7829.65
7819.84
7809.96
7800.01
7790
7779.94
7769.81
7759.62
7749.39
7739.13
7728.83
7718.47
7708.08
7697.67
7687.24
7676.8
7666.35
7655.9
7645.45
7634.98
7624.51
7614.03
7603.56
7593.1
7582.69
7572.35
7562.15
7552.09
7542.31
7532.63
7522.48
7511.59
7500.87
7491.58
7483.53
7472.24
7450.21
7440.69
7427.29
7415.92
7402.52
7390.96
7378.28
7364.74
7352.32
7339.25
7326.52
7313.76
7300.96
7287.67
7274.66
7259.75
7245.6
7231.36
7216.7
7205.47
7190.93
7172.06
7155.9
7139.03
7124.63
7109.24
7095.08
7080.59
7066.32
7052.34
7038.69
7025.35
7012.18
6998.81
6986.06
6973.42
6961.07
6950.08
6938.07
6925.01
6913.78
6902.97
6892.64
6882.75
6873.24
6864.12
6855.36
6847.02
6838.96
6831.29
6823.86
6816.72
6809.82
6803.17
6796.82
6790.73
6784.99
6779.57
6774.55
6769.88
6765.65
6761.81
6758.44
6755.49
6753.02
6750.98
6749.43
6748.36
6747.78
6747.68
6748.07
6748.93
6750.29
6752.13
6754.45
6757.25
6760.52
6764.26
6768.46
6773.1
6778.18
6783.69
6789.62
6795.95
6802.67
6809.77
6817.23
6825.04
6833.18
6841.63
6850.39
6859.43
6868.74
6878.29
6888.07
6898.07
6908.25
6918.63
6929.17
6939.85
6950.65
6961.57
6972.58
6983.66
6994.8
7005.98
7017.2
7028.43
7039.66
7050.88
7062.06
7073.2
7084.27
7095.27
7106.2
7117.03
7127.76
7138.37
7148.86
7159.21
7169.42
7179.48
7189.39
7199.15
7208.73
7218.14
7227.37
7236.42
7245.29
7253.97
7262.47
7270.77
7278.89
7286.81
7294.55
7302.09
7309.45
7316.62
7323.61
7330.42
7337.06
7343.52
7349.81
7355.94
7361.91
7367.72
7373.38
7378.9
7384.28
7389.52
7394.64
7399.63
7404.5
7409.26
7413.91
7418.46
7422.91
7427.27
7431.53
7435.71
7439.81
7443.83
7447.77
7451.64
7455.44
7459.18
7462.85
7466.46
7470.01
7473.5
7476.93
7480.29
7483.59
7486.81
7489.95
7493.01
7495.99
7498.88
7501.68
7504.37
7506.97
7509.47
7511.87
7514.16
7516.34
7518.41
7520.37
7522.22
7523.96
7525.58
7527.09
7528.48
7529.76
7530.93
7531.98
7532.92
7533.75
7534.47
7535.08
7535.58
7535.97
7536.26
7536.44
7536.53
7536.52
7536.41
7536.2
7535.91
7535.52
7535.04
7534.48
7533.84
7533.11
7532.31
7531.43
7530.48
7529.45
7528.36
7527.21
7525.99
7524.71
7523.37
7521.98
7520.53
7519.03
7517.49
7515.9
7514.26
7512.59
7510.87
7509.12
7507.33
7505.52
7503.67
7501.79
7499.89
7497.96
7496.02
7494.05
7492.07
7490.07
7488.05
7486.03
7483.99
7481.95
7479.9
7477.84
7475.78
7473.72
7471.66
7469.6
7467.55
7465.5
7463.46
7461.42
7459.4
7457.39
7455.38
7453.4
7451.43
7449.47
7447.53
7445.6
7443.7
7441.81
7439.94
7438.1
7436.27
7434.47
7432.69
7430.93
7429.2
7427.49
7425.81
7424.15
7422.51
7420.9
7419.31
7417.75
7416.22
7414.71
7413.22
7411.76
7410.33
7408.92
7407.53
7406.17
7404.84
7403.53
7402.24
7400.98
7399.75
7398.54
7397.35
7396.19
7395.05
7393.93
7392.83
7391.76
7390.71
7389.68
7388.67
7387.68
7386.72
7385.77
7384.84
7383.93
7383.04
7382.17
7381.31
7380.47
7379.65
7378.85
7378.06
7377.29
7376.54
7375.8
7375.08
7374.37
7373.67
7372.99
7372.32
7371.67
7371.02
7370.39
7369.78
7369.17
7368.58
7367.99
7367.42
7366.85
7366.31
7365.76
7365.23
7364.71
7364.21
7363.69
7363.2
7362.68
7362.21
7361.8
7361.35
7360.92
7360.49
7360.06
7359.63
7359.22
7358.8
7358.4
7357.99
7357.59
7357.19
7356.79
7356.41
7356.01
7355.63
7355.24
7354.87
7354.5
7354.14
7353.77
7353.42
7353.05
7352.71
7352.36
7352.02
7351.68
7351.34
7351.02
7350.68
7350.37
7350.02
7349.73
7349.42
7349.14
7348.81
7348.55
7348.1
7347.87
7347.7
7347.49
7347.27
7347.04
7346.81
7346.59
7346.38
7346.17
7345.96
7345.75
7345.53
7345.32
7345.11
7344.89
7344.68
7344.46
7344.25
7344.03
7343.82
7343.61
7343.4
7343.18
7342.97
7342.76
7342.56
7342.35
7342.14
7341.94
7341.74
7341.54
7341.34
7341.14
7340.95
7340.75
7340.56
7340.37
7340.18
7339.99
7339.81
7339.63
7339.45
7339.27
7339.09
7338.92
7338.74
7338.57
7338.41
7338.24
7338.08
7337.92
7337.76
7337.6
7337.45
7337.29
7337.14
7337
7336.85
7336.71
7336.57
7336.43
7336.29
7336.16
7336.03
7335.9
7335.77
7335.65
7335.53
7335.41
7335.29
7335.18
7335.06
7334.95
7334.85
7334.74
7334.64
7334.54
7334.44
7334.35
7334.26
7334.17
7334.08
7334
7333.91
7333.84
7333.75
7333.68
8011.03
8003.31
7996.64
7990.99
7984.35
7977.68
7971.08
7964.96
7959.08
7953.6
7948
7942.21
7936.18
7929.93
7923.49
7916.9
7910.16
7903.31
7896.35
7889.28
7882.11
7874.82
7867.42
7859.94
7852.38
7844.73
7836.97
7829.11
7821.17
7813.13
7805.01
7796.8
7788.48
7780.08
7771.6
7763.03
7754.37
7745.61
7736.76
7727.83
7718.82
7709.72
7700.52
7691.24
7681.88
7672.44
7662.92
7653.33
7643.64
7633.88
7624.05
7614.16
7604.2
7594.16
7584.07
7573.91
7563.7
7553.45
7543.15
7532.8
7522.41
7511.98
7501.53
7491.05
7480.54
7470.01
7459.46
7448.92
7438.36
7427.8
7417.2
7406.6
7395.98
7385.38
7374.83
7364.33
7353.93
7343.58
7333.11
7322.38
7311.69
7301.01
7289.76
7277.82
7266.07
7255.43
7246.03
7237.41
7226.34
7204.49
7194.65
7180.36
7168.27
7155.05
7142.61
7128.19
7115.52
7101.5
7088.3
7074.42
7060.64
7046.48
7032.58
7017.15
7002.49
6986.89
6972.64
6957.58
6945.95
6931.56
6913.08
6897.65
6883
6868.4
6854.57
6840.69
6827.04
6813.59
6800.52
6787.72
6775.2
6762.57
6750.57
6738.59
6727.16
6716.72
6705.84
6694.48
6684.49
6674.99
6665.83
6657.09
6648.64
6640.55
6632.76
6625.29
6618.13
6611.23
6604.62
6598.26
6592.19
6586.43
6581.04
6575.98
6571.33
6567.07
6563.25
6559.84
6556.91
6554.41
6552.39
6550.83
6549.77
6549.2
6549.11
6549.5
6550.39
6551.77
6553.63
6555.98
6558.81
6562.12
6565.91
6570.15
6574.84
6579.97
6585.53
6591.52
6597.91
6604.69
6611.85
6619.38
6627.25
6635.45
6643.98
6652.8
6661.91
6671.29
6680.91
6690.75
6700.82
6711.08
6721.53
6732.13
6742.88
6753.75
6764.73
6775.8
6786.95
6798.15
6809.4
6820.68
6831.96
6843.24
6854.5
6865.73
6876.92
6888.04
6899.09
6910.04
6920.91
6931.67
6942.32
6952.83
6963.2
6973.44
6983.52
6993.45
7003.22
7012.81
7022.23
7031.47
7040.52
7049.4
7058.09
7066.58
7074.88
7082.99
7090.92
7098.65
7106.19
7113.55
7120.72
7127.7
7134.5
7141.14
7147.6
7153.89
7160.02
7165.98
7171.79
7177.45
7182.97
7188.35
7193.59
7198.71
7203.71
7208.58
7213.35
7218
7222.56
7227.02
7231.38
7235.66
7239.85
7243.95
7247.98
7251.94
7255.82
7259.64
7263.39
7267.07
7270.7
7274.26
7277.76
7281.2
7284.58
7287.88
7291.12
7294.27
7297.35
7300.34
7303.24
7306.05
7308.76
7311.37
7313.88
7316.28
7318.58
7320.77
7322.85
7324.82
7326.67
7328.42
7330.04
7331.56
7332.95
7334.23
7335.4
7336.45
7337.39
7338.21
7338.92
7339.53
7340.02
7340.4
7340.68
7340.85
7340.93
7340.9
7340.78
7340.56
7340.25
7339.85
7339.36
7338.78
7338.13
7337.39
7336.57
7335.68
7334.71
7333.68
7332.57
7331.4
7330.17
7328.88
7327.53
7326.12
7324.66
7323.15
7321.6
7319.99
7318.35
7316.66
7314.93
7313.17
7311.37
7309.54
7307.68
7305.79
7303.88
7301.94
7299.98
7298
7296.01
7294
7291.97
7289.94
7287.89
7285.83
7283.77
7281.71
7279.64
7277.57
7275.5
7273.43
7271.37
7269.32
7267.27
7265.23
7263.2
7261.18
7259.17
7257.17
7255.19
7253.23
7251.28
7249.36
7247.44
7245.55
7243.68
7241.83
7240
7238.2
7236.41
7234.65
7232.92
7231.21
7229.52
7227.86
7226.22
7224.61
7223.02
7221.46
7219.92
7218.41
7216.92
7215.46
7214.03
7212.62
7211.23
7209.87
7208.54
7207.23
7205.95
7204.69
7203.45
7202.24
7201.06
7199.89
7198.75
7197.64
7196.54
7195.47
7194.42
7193.39
7192.39
7191.4
7190.43
7189.49
7188.56
7187.65
7186.76
7185.89
7185.04
7184.2
7183.38
7182.58
7181.8
7181.03
7180.27
7179.53
7178.81
7178.1
7177.41
7176.73
7176.06
7175.41
7174.77
7174.14
7173.52
7172.92
7172.32
7171.75
7171.17
7170.61
7170.06
7169.53
7168.98
7168.47
7167.92
7167.43
7167
7166.52
7166.08
7165.62
7165.17
7164.72
7164.29
7163.86
7163.44
7163.01
7162.6
7162.19
7161.78
7161.38
7160.97
7160.58
7160.17
7159.79
7159.41
7159.04
7158.65
7158.29
7157.91
7157.56
7157.18
7156.84
7156.47
7156.14
7155.77
7155.45
7155.08
7154.77
7154.47
7154.14
7153.85
7153.5
7153.23
7152.74
7152.49
7152.33
7152.09
7151.85
7151.61
7151.36
7151.12
7150.9
7150.67
7150.45
7150.22
7150.01
7149.79
7149.57
7149.35
7149.13
7148.92
7148.7
7148.48
7148.27
7148.05
7147.83
7147.62
7147.4
7147.19
7146.98
7146.77
7146.56
7146.35
7146.14
7145.93
7145.73
7145.53
7145.33
7145.13
7144.93
7144.73
7144.54
7144.35
7144.16
7143.97
7143.78
7143.59
7143.41
7143.23
7143.05
7142.88
7142.7
7142.53
7142.36
7142.19
7142.02
7141.86
7141.7
7141.54
7141.38
7141.23
7141.08
7140.93
7140.78
7140.63
7140.49
7140.35
7140.21
7140.07
7139.94
7139.81
7139.68
7139.55
7139.43
7139.31
7139.19
7139.07
7138.96
7138.85
7138.74
7138.63
7138.52
7138.42
7138.32
7138.23
7138.13
7138.04
7137.95
7137.86
7137.78
7137.7
7137.62
7137.53
7137.46
7815.59
7807.91
7801.03
7795.34
7789.39
7783.47
7777.73
7771.24
7765.09
7759.1
7753.06
7746.95
7740.76
7734.42
7727.95
7721.35
7714.62
7707.77
7700.82
7693.76
7686.59
7679.32
7671.94
7664.46
7656.91
7649.25
7641.49
7633.64
7625.69
7617.64
7609.52
7601.31
7592.99
7584.58
7576.09
7567.52
7558.86
7550.09
7541.23
7532.29
7523.28
7514.16
7504.95
7495.66
7486.28
7476.83
7467.3
7457.69
7447.99
7438.21
7428.35
7418.44
7408.46
7398.4
7388.27
7378.09
7367.85
7357.55
7347.2
7336.81
7326.36
7315.89
7305.37
7294.81
7284.23
7273.61
7262.96
7252.3
7241.63
7230.94
7220.22
7209.48
7198.72
7187.95
7177.18
7166.41
7155.64
7144.86
7134.04
7123.13
7112.16
7101.01
7089.6
7078.37
7067.21
7055.69
7043.81
7031.88
7020.46
7010.28
7001.65
6990.41
6968.7
6957.63
6943.48
6930.98
6917.55
6904.7
6889.69
6876.37
6861.53
6847.71
6833.01
6818.68
6803.99
6789.51
6774.2
6759.01
6743.9
6729.34
6714.45
6702.62
6688.12
6670.9
6656.09
6642.25
6628.41
6615.17
6601.88
6588.96
6576.17
6563.93
6551.86
6540.21
6528.47
6517.42
6506.28
6495.93
6486.19
6476.41
6466.54
6457.62
6449.3
6441.1
6433.37
6425.85
6418.61
6411.66
6404.96
6398.68
6392.58
6386.91
6381.46
6376.45
6371.77
6367.56
6363.71
6360.34
6357.38
6354.9
6352.88
6351.35
6350.3
6349.75
6349.66
6350.09
6351
6352.42
6354.33
6356.73
6359.61
6362.97
6366.81
6371.11
6375.86
6381.06
6386.7
6392.76
6399.23
6406.09
6413.33
6420.94
6428.91
6437.2
6445.82
6454.73
6463.93
6473.4
6483.11
6493.05
6503.21
6513.57
6524.11
6534.81
6545.65
6556.6
6567.67
6578.82
6590.06
6601.36
6612.69
6624.04
6635.4
6646.75
6658.07
6669.37
6680.62
6691.8
6702.9
6713.91
6724.83
6735.63
6746.32
6756.87
6767.28
6777.54
6787.66
6797.61
6807.4
6817.01
6826.43
6835.68
6844.74
6853.63
6862.32
6870.81
6879.11
6887.22
6895.14
6902.87
6910.41
6917.76
6924.92
6931.9
6938.7
6945.32
6951.78
6958.07
6964.2
6970.16
6975.97
6981.63
6987.15
6992.53
6997.78
7002.9
7007.9
7012.78
7017.56
7022.22
7026.79
7031.25
7035.63
7039.92
7044.12
7048.24
7052.29
7056.26
7060.16
7064
7067.76
7071.47
7075.11
7078.69
7082.21
7085.67
7089.06
7092.38
7095.62
7098.8
7101.89
7104.89
7107.81
7110.63
7113.35
7115.98
7118.5
7120.92
7123.23
7125.43
7127.52
7129.49
7131.35
7133.1
7134.73
7136.25
7137.64
7138.92
7140.09
7141.13
7142.06
7142.88
7143.59
7144.18
7144.66
7145.04
7145.31
7145.47
7145.53
7145.49
7145.35
7145.11
7144.78
7144.36
7143.85
7143.26
7142.58
7141.83
7140.99
7140.08
7139.1
7138.04
7136.92
7135.73
7134.48
7133.17
7131.8
7130.38
7128.9
7127.38
7125.81
7124.19
7122.52
7120.82
7119.08
7117.3
7115.48
7113.64
7111.76
7109.85
7107.93
7105.97
7104
7102
7099.99
7097.97
7095.93
7093.88
7091.82
7089.75
7087.67
7085.6
7083.51
7081.43
7079.36
7077.28
7075.21
7073.14
7071.08
7069.03
7066.99
7064.96
7062.94
7060.94
7058.95
7056.98
7055.03
7053.09
7051.17
7049.28
7047.4
7045.55
7043.71
7041.9
7040.11
7038.35
7036.61
7034.89
7033.2
7031.54
7029.9
7028.28
7026.69
7025.13
7023.59
7022.08
7020.59
7019.13
7017.69
7016.28
7014.9
7013.54
7012.21
7010.9
7009.62
7008.36
7007.13
7005.92
7004.73
7003.57
7002.43
7001.32
7000.22
6999.15
6998.11
6997.08
6996.07
6995.09
6994.12
6993.18
6992.25
6991.35
6990.46
6989.59
6988.74
6987.9
6987.08
6986.29
6985.5
6984.73
6983.98
6983.25
6982.52
6981.82
6981.12
6980.45
6979.78
6979.13
6978.49
6977.86
6977.25
6976.64
6976.06
6975.48
6974.92
6974.34
6973.8
6973.21
6972.7
6972.25
6971.75
6971.29
6970.81
6970.34
6969.87
6969.43
6968.97
6968.53
6968.09
6967.66
6967.23
6966.81
6966.38
6965.97
6965.55
6965.14
6964.76
6964.36
6963.98
6963.58
6963.21
6962.81
6962.45
6962.05
6961.7
6961.31
6960.98
6960.59
6960.26
6959.87
6959.55
6959.23
6958.89
6958.59
6958.23
6957.93
6957.43
6957.16
6957
6956.74
6956.49
6956.23
6955.96
6955.71
6955.47
6955.23
6954.99
6954.75
6954.52
6954.29
6954.06
6953.84
6953.61
6953.39
6953.17
6952.95
6952.72
6952.5
6952.28
6952.06
6951.85
6951.63
6951.41
6951.2
6950.98
6950.77
6950.56
6950.35
6950.14
6949.93
6949.72
6949.52
6949.31
6949.11
6948.91
6948.71
6948.52
6948.32
6948.13
6947.94
6947.75
6947.56
6947.38
6947.19
6947.01
6946.83
6946.66
6946.48
6946.31
6946.14
6945.97
6945.8
6945.64
6945.48
6945.32
6945.16
6945.01
6944.85
6944.7
6944.55
6944.41
6944.27
6944.12
6943.99
6943.85
6943.72
6943.58
6943.46
6943.33
6943.21
6943.08
6942.96
6942.85
6942.73
6942.62
6942.51
6942.4
6942.3
6942.2
6942.1
6942
6941.91
6941.82
6941.73
6941.64
6941.55
6941.47
6941.4
6941.31
6941.24
7620.53
7612.87
7605.91
7600.22
7594.67
7588.97
7583.17
7576.91
7570.67
7564.49
7558.27
7552.02
7545.68
7539.26
7532.73
7526.09
7519.34
7512.48
7505.52
7498.46
7491.29
7484.02
7476.64
7469.17
7461.61
7453.94
7446.18
7438.34
7430.38
7422.34
7414.2
7405.98
7397.67
7389.24
7380.75
7372.18
7363.5
7354.72
7345.85
7336.91
7327.88
7318.75
7309.52
7300.21
7290.81
7281.34
7271.8
7262.17
7252.46
7242.66
7232.78
7222.82
7212.81
7202.72
7192.56
7182.33
7172.06
7161.72
7151.31
7140.85
7130.34
7119.8
7109.21
7098.57
7087.88
7077.17
7066.42
7055.64
7044.84
7034
7023.14
7012.24
7001.31
6990.35
6979.37
6968.37
6957.33
6946.26
6935.16
6924
6912.75
6901.41
6889.95
6878.48
6866.88
6855.09
6843.28
6831.76
6820.37
6808.54
6796.28
6784.38
6773.55
6764.53
6753.02
6731.1
6719.04
6704.53
6691.34
6677.4
6663.93
6648.3
6634.37
6619.02
6604.79
6589.58
6575.09
6559.8
6545.42
6530.56
6515.47
6500.6
6485.91
6471.63
6459.53
6445.49
6429.48
6415.45
6402.5
6389.55
6377.06
6364.58
6352.56
6340.64
6329.35
6318.14
6307.41
6296.6
6286.46
6276.2
6266.8
6257.81
6249.04
6240.36
6232.39
6224.74
6217.86
6210.91
6204.38
6197.97
6191.94
6186.19
6180.91
6175.87
6171.29
6167.02
6163.23
6159.84
6156.94
6154.45
6152.47
6150.95
6149.94
6149.39
6149.35
6149.79
6150.75
6152.21
6154.18
6156.63
6159.57
6163
6166.9
6171.28
6176.12
6181.42
6187.15
6193.31
6199.88
6206.85
6214.19
6221.91
6229.99
6238.4
6247.14
6256.17
6265.48
6275.07
6284.9
6294.96
6305.24
6315.72
6326.38
6337.19
6348.14
6359.21
6370.39
6381.65
6392.99
6404.4
6415.83
6427.28
6438.74
6450.18
6461.59
6472.96
6484.29
6495.55
6506.73
6517.8
6528.77
6539.63
6550.37
6560.97
6571.43
6581.74
6591.88
6601.87
6611.67
6621.3
6630.75
6640.01
6649.09
6657.98
6666.67
6675.17
6683.47
6691.57
6699.49
6707.21
6714.75
6722.09
6729.25
6736.22
6743.02
6749.64
6756.09
6762.38
6768.5
6774.46
6780.27
6785.93
6791.45
6796.84
6802.09
6807.22
6812.22
6817.11
6821.9
6826.57
6831.15
6835.63
6840.02
6844.33
6848.55
6852.69
6856.76
6860.75
6864.67
6868.53
6872.32
6876.05
6879.71
6883.32
6886.86
6890.33
6893.74
6897.08
6900.35
6903.54
6906.65
6909.67
6912.6
6915.44
6918.18
6920.82
6923.36
6925.79
6928.11
6930.32
6932.42
6934.4
6936.27
6938.02
6939.65
6941.17
6942.56
6943.84
6945
6946.04
6946.97
6947.78
6948.48
6949.06
6949.53
6949.89
6950.14
6950.29
6950.33
6950.27
6950.1
6949.85
6949.5
6949.06
6948.52
6947.91
6947.21
6946.43
6945.57
6944.64
6943.63
6942.55
6941.41
6940.2
6938.93
6937.6
6936.2
6934.76
6933.26
6931.71
6930.12
6928.48
6926.79
6925.07
6923.3
6921.5
6919.67
6917.8
6915.91
6913.98
6912.03
6910.06
6908.07
6906.06
6904.03
6901.98
6899.92
6897.85
6895.78
6893.69
6891.6
6889.51
6887.41
6885.32
6883.22
6881.13
6879.05
6876.97
6874.9
6872.83
6870.78
6868.74
6866.71
6864.7
6862.7
6860.72
6858.75
6856.81
6854.88
6852.98
6851.1
6849.23
6847.39
6845.58
6843.79
6842.02
6840.27
6838.55
6836.86
6835.19
6833.54
6831.92
6830.33
6828.77
6827.23
6825.71
6824.22
6822.76
6821.33
6819.92
6818.53
6817.18
6815.84
6814.54
6813.25
6812
6810.76
6809.56
6808.37
6807.21
6806.08
6804.96
6803.87
6802.8
6801.76
6800.73
6799.73
6798.75
6797.78
6796.84
6795.92
6795.01
6794.13
6793.26
6792.41
6791.58
6790.76
6789.96
6789.19
6788.42
6787.67
6786.93
6786.22
6785.51
6784.82
6784.14
6783.48
6782.83
6782.19
6781.59
6780.97
6780.39
6779.77
6779.2
6778.58
6778.04
6777.58
6777.05
6776.57
6776.06
6775.58
6775.09
6774.62
6774.14
6773.68
6773.22
6772.77
6772.32
6771.88
6771.44
6771.01
6770.57
6770.15
6769.76
6769.34
6768.95
6768.54
6768.15
6767.74
6767.37
6766.96
6766.6
6766.19
6765.84
6765.43
6765.1
6764.69
6764.36
6763.99
6763.68
6763.28
6762.99
6762.44
6762.15
6762.04
6761.73
6761.47
6761.2
6760.92
6760.63
6760.36
6760.1
6759.84
6759.59
6759.34
6759.09
6758.85
6758.6
6758.37
6758.13
6757.9
6757.67
6757.44
6757.21
6756.98
6756.76
6756.53
6756.31
6756.08
6755.86
6755.64
6755.42
6755.2
6754.99
6754.77
6754.56
6754.34
6754.13
6753.92
6753.71
6753.5
6753.3
6753.09
6752.89
6752.69
6752.49
6752.29
6752.1
6751.9
6751.71
6751.52
6751.34
6751.15
6750.97
6750.79
6750.61
6750.43
6750.25
6750.08
6749.91
6749.74
6749.58
6749.41
6749.25
6749.09
6748.93
6748.78
6748.62
6748.47
6748.33
6748.18
6748.04
6747.9
6747.76
6747.62
6747.49
6747.36
6747.23
6747.1
6746.98
6746.85
6746.73
6746.62
6746.5
6746.39
6746.28
6746.17
6746.07
6745.97
6745.87
6745.77
6745.68
6745.58
6745.49
6745.41
6745.32
6745.24
6745.17
6745.08
6745.01
7425.75
7418.07
7411.06
7405.35
7399.91
7394.2
7388.37
7382.22
7376.04
7369.83
7363.56
7357.24
7350.83
7344.34
7337.75
7331.07
7324.31
7317.44
7310.47
7303.4
7296.22
7288.93
7281.54
7274.07
7266.51
7258.84
7251.08
7243.23
7235.27
7227.21
7219.07
7210.84
7202.52
7194.09
7185.59
7177
7168.3
7159.52
7150.65
7141.69
7132.65
7123.51
7114.26
7104.93
7095.52
7086.03
7076.46
7066.81
7057.07
7047.25
7037.33
7027.34
7017.28
7007.15
6996.94
6986.67
6976.33
6965.93
6955.47
6944.94
6934.37
6923.74
6913.06
6902.33
6891.55
6880.72
6869.85
6858.94
6848
6837.02
6826.01
6814.95
6803.84
6792.7
6781.52
6770.3
6759.04
6747.74
6736.39
6724.99
6713.51
6701.96
6690.33
6678.66
6666.91
6655.04
6643.15
6631.24
6619.26
6607.09
6595.29
6583.48
6571.12
6558.55
6546.25
6534.85
6525.58
6513.86
6491.61
6478.6
6463.78
6450.02
6435.62
6421.64
6405.55
6391.34
6375.88
6361.38
6346.41
6331.8
6316.96
6302.33
6287.91
6272.73
6258.42
6243.8
6230.13
6217.86
6204.36
6189.62
6176.57
6164.62
6152.54
6140.99
6129.34
6118.28
6107.22
6096.87
6086.54
6076.71
6066.84
6057.48
6048.12
6039.47
6031.17
6023.38
6015.73
6008.71
6001.91
5996.1
5990
5984.48
5979.03
5974.1
5969.45
5965.4
5961.58
5958.31
5955.37
5952.95
5950.98
5949.54
5948.55
5948.07
5948.05
5948.56
5949.58
5951.11
5953.14
5955.68
5958.7
5962.21
5966.21
5970.68
5975.63
5981.04
5986.89
5993.17
5999.86
6006.95
6014.43
6022.28
6030.49
6039.05
6047.93
6057.1
6066.56
6076.29
6086.26
6096.47
6106.9
6117.52
6128.31
6139.27
6150.36
6161.57
6172.89
6184.29
6195.76
6207.28
6218.84
6230.41
6241.98
6253.53
6265.05
6276.53
6287.94
6299.29
6310.55
6321.71
6332.76
6343.69
6354.49
6365.15
6375.66
6386.02
6396.21
6406.22
6416.06
6425.71
6435.18
6444.47
6453.56
6462.46
6471.15
6479.65
6487.96
6496.07
6503.98
6511.7
6519.23
6526.57
6533.72
6540.69
6547.49
6554.1
6560.54
6566.82
6572.94
6578.9
6584.71
6590.38
6595.9
6601.29
6606.54
6611.68
6616.69
6621.6
6626.39
6631.08
6635.67
6640.17
6644.58
6648.91
6653.15
6657.32
6661.41
6665.42
6669.37
6673.26
6677.07
6680.83
6684.52
6688.15
6691.71
6695.21
6698.64
6702.01
6705.29
6708.51
6711.63
6714.68
6717.63
6720.48
6723.24
6725.9
6728.45
6730.9
6733.24
6735.46
6737.57
6739.56
6741.44
6743.19
6744.82
6746.34
6747.73
6749
6750.16
6751.19
6752.11
6752.9
6753.59
6754.15
6754.61
6754.95
6755.18
6755.31
6755.33
6755.24
6755.06
6754.78
6754.4
6753.93
6753.37
6752.73
6752
6751.19
6750.31
6749.34
6748.31
6747.21
6746.04
6744.8
6743.5
6742.14
6740.72
6739.25
6737.73
6736.15
6734.53
6732.86
6731.15
6729.4
6727.61
6725.79
6723.93
6722.04
6720.12
6718.17
6716.2
6714.2
6712.19
6710.15
6708.1
6706.03
6703.95
6701.86
6699.77
6697.66
6695.55
6693.44
6691.33
6689.21
6687.1
6685
6682.89
6680.8
6678.71
6676.63
6674.56
6672.51
6670.47
6668.44
6666.43
6664.44
6662.46
6660.51
6658.57
6656.66
6654.77
6652.9
6651.05
6649.23
6647.43
6645.65
6643.9
6642.18
6640.48
6638.8
6637.15
6635.53
6633.94
6632.37
6630.83
6629.31
6627.82
6626.36
6624.93
6623.52
6622.13
6620.78
6619.44
6618.14
6616.86
6615.6
6614.37
6613.16
6611.98
6610.82
6609.69
6608.58
6607.49
6606.42
6605.38
6604.36
6603.36
6602.38
6601.42
6600.48
6599.56
6598.66
6597.77
6596.91
6596.06
6595.23
6594.42