/*--------------------------------*- C++ -*----------------------------------*\
| =========                 |                                                 |
| \\      /  F ield         | OpenFOAM: The Open Source CFD Toolbox           |
|  \\    /   O peration     | Version:  v2006                                 |
|   \\  /    A nd           | Website:  www.openfoam.com                      |
|    \\/     M anipulation  |                                                 |
\*---------------------------------------------------------------------------*/
FoamFile
{
    version     2.0;
    format      ascii;
    class       volScalarField;
    location    "4.5";
    object      p_rgh;
}
// * * * * * * * * * * * * * * * * * * * * * * * * * * * * * * * * * * * * * //

dimensions      [1 -1 -2 0 0 0 0];


internalField   nonuniform List<scalar> 
33000
(
8697.29
8690.21
8683.84
8678.62
8672.82
8664.56
8655.22
8647.83
8642.76
8638.92
8634.62
8628.99
8622.96
8616.52
8609.88
8603.12
8596.24
8589.24
8582.18
8575.03
8567.79
8560.46
8553.05
8545.55
8537.93
8530.16
8522.42
8514.62
8506.67
8498.61
8490.43
8482.24
8473.99
8465.61
8457.12
8448.52
8439.8
8431.1
8422.33
8413.42
8404.42
8395.29
8386.11
8376.9
8367.58
8358.16
8348.65
8339.06
8329.39
8319.68
8309.89
8300.02
8290.08
8280.07
8269.99
8259.93
8249.82
8239.62
8229.37
8219.1
8208.79
8198.45
8188.08
8177.69
8167.28
8156.93
8146.61
8136.3
8126.03
8115.77
8105.53
8095.37
8085.39
8075.72
8066.54
8058.18
8050.84
8043.73
8033.63
8013.51
8006.64
7992.93
7981.18
7969.26
7957.2
7943.6
7931.79
7918.76
7906.86
7893.72
7881.78
7869
7856.86
7844.28
7832.65
7820.06
7809.39
7796.9
7788.73
7776.21
7755.69
7740.63
7724.71
7708.65
7693.26
7677.6
7661.74
7646.19
7630.66
7615.7
7600.84
7586.47
7572.41
7558.58
7545.6
7532.41
7521.31
7508.16
7492.29
7479.19
7465.84
7452.97
7440.6
7428.62
7416.94
7405.79
7395.04
7384.74
7374.9
7365.45
7356.41
7347.72
7339.41
7331.44
7323.78
7316.41
7309.3
7302.43
7295.79
7289.43
7283.38
7277.66
7272.27
7267.25
7262.62
7258.42
7254.6
7251.23
7248.29
7245.82
7243.83
7242.28
7241.21
7240.61
7240.5
7240.86
7241.74
7243.07
7244.88
7247.18
7249.96
7253.2
7256.89
7261.03
7265.64
7270.67
7276.13
7281.99
7288.26
7294.94
7301.98
7309.37
7317.11
7325.17
7333.56
7342.26
7351.23
7360.46
7369.94
7379.64
7389.57
7399.7
7410
7420.47
7431.08
7441.83
7452.69
7463.62
7474.64
7485.72
7496.85
7508.02
7519.19
7530.37
7541.52
7552.65
7563.73
7574.78
7585.75
7596.64
7607.44
7618.13
7628.71
7639.16
7649.49
7659.69
7669.75
7679.64
7689.38
7698.94
7708.34
7717.57
7726.62
7735.47
7744.14
7752.65
7760.96
7769.08
7777.01
7784.73
7792.27
7799.64
7806.83
7813.83
7820.64
7827.28
7833.73
7840.02
7846.16
7852.13
7857.95
7863.61
7869.12
7874.5
7879.75
7884.86
7889.85
7894.72
7899.48
7904.12
7908.67
7913.11
7917.46
7921.71
7925.89
7929.98
7933.99
7937.92
7941.77
7945.56
7949.29
7952.95
7956.54
7960.08
7963.56
7966.97
7970.32
7973.61
7976.82
7979.95
7983
7985.96
7988.83
7991.62
7994.31
7996.89
7999.38
8001.76
8004.04
8006.21
8008.28
8010.23
8012.07
8013.79
8015.41
8016.92
8018.31
8019.59
8020.76
8021.81
8022.76
8023.59
8024.31
8024.92
8025.43
8025.84
8026.14
8026.33
8026.43
8026.43
8026.34
8026.15
8025.86
8025.49
8025.02
8024.48
8023.85
8023.14
8022.35
8021.48
8020.54
8019.53
8018.46
8017.31
8016.11
8014.84
8013.51
8012.13
8010.7
8009.21
8007.68
8006.1
8004.47
8002.81
8001.11
7999.37
7997.6
7995.79
7993.95
7992.09
7990.2
7988.29
7986.35
7984.4
7982.42
7980.43
7978.43
7976.42
7974.39
7972.36
7970.32
7968.27
7966.22
7964.17
7962.12
7960.07
7958.02
7955.98
7953.94
7951.92
7949.9
7947.89
7945.9
7943.92
7941.95
7940
7938.07
7936.15
7934.25
7932.37
7930.5
7928.66
7926.84
7925.04
7923.26
7921.51
7919.78
7918.07
7916.39
7914.73
7913.1
7911.49
7909.91
7908.35
7906.81
7905.3
7903.82
7902.36
7900.92
7899.51
7898.13
7896.77
7895.44
7894.13
7892.84
7891.58
7890.35
7889.13
7887.95
7886.78
7885.64
7884.52
7883.42
7882.35
7881.3
7880.27
7879.26
7878.27
7877.3
7876.35
7875.42
7874.51
7873.62
7872.74
7871.89
7871.05
7870.23
7869.42
7868.63
7867.86
7867.11
7866.37
7865.64
7864.93
7864.23
7863.55
7862.88
7862.22
7861.58
7860.95
7860.33
7859.72
7859.13
7858.54
7857.97
7857.4
7856.85
7856.31
7855.78
7855.25
7854.74
7854.24
7853.74
7853.25
7852.78
7852.31
7851.85
7851.39
7850.96
7850.5
7850.08
7849.7
7849.29
7848.9
7848.5
7848.1
7847.71
7847.31
7846.92
7846.53
7846.15
7845.77
7845.4
7845.02
7844.66
7844.29
7843.93
7843.57
7843.22
7842.88
7842.54
7842.21
7841.87
7841.54
7841.21
7840.9
7840.57
7840.26
7839.95
7839.65
7839.34
7839.06
7838.75
7838.48
7838.22
7837.95
7837.68
7837.47
7837.1
7836.93
7836.77
7836.6
7836.41
7836.21
7836.01
7835.8
7835.59
7835.38
7835.17
7834.96
7834.75
7834.54
7834.32
7834.11
7833.9
7833.69
7833.48
7833.27
7833.07
7832.86
7832.65
7832.45
7832.25
7832.05
7831.85
7831.65
7831.46
7831.26
7831.07
7830.88
7830.69
7830.51
7830.32
7830.14
7829.96
7829.78
7829.61
7829.43
7829.26
7829.09
7828.92
7828.76
7828.59
7828.43
7828.27
7828.12
7827.96
7827.81
7827.66
7827.51
7827.37
7827.22
7827.08
7826.95
7826.81
7826.68
7826.55
7826.42
7826.29
7826.17
7826.04
7825.93
7825.81
7825.69
7825.58
7825.47
7825.37
7825.26
7825.16
7825.06
7824.96
7824.87
7824.78
7824.69
7824.6
7824.52
7824.43
7824.36
7824.27
7824.2
8696.87
8689.44
8681.94
8675.8
8667.58
8658.75
8648.75
8640.04
8637.38
8636.24
8633.2
8628.59
8623.08
8616.7
8610.08
8603.3
8596.4
8589.36
8582.27
8575.15
8567.96
8560.65
8553.24
8545.71
8537.96
8530.26
8522.51
8514.79
8506.87
8498.73
8490.57
8482.35
8474.16
8465.83
8457.31
8448.57
8439.9
8431.2
8422.5
8413.63
8404.61
8395.41
8386.19
8376.98
8367.74
8358.34
8348.83
8339.18
8329.47
8319.8
8310.01
8300.05
8290.03
8280.05
8270.01
8260.02
8249.91
8239.68
8229.29
8219.03
8208.82
8198.5
8188.11
8177.63
8167.18
8156.8
8146.44
8136.16
8125.8
8115.43
8105.03
8094.65
8084.3
8074.01
8063.91
8054.32
8045.16
8035.65
8025.94
8017.41
8010.43
7999.48
7977.95
7969.54
7955.93
7943.79
7931.69
7919.79
7907.68
7893.77
7881.75
7868.48
7856.26
7843.42
7831.26
7818.24
7805.99
7793.06
7780.3
7767.74
7753.56
7743.83
7729.68
7709.64
7693.62
7677.01
7661.34
7645.69
7630.72
7615.79
7600.72
7586.09
7571.75
7557.64
7544.01
7530.55
7517.58
7504.82
7491.62
7480.39
7467.3
7452.64
7440.17
7428.04
7416.48
7405.32
7394.58
7384.19
7374.34
7364.88
7355.77
7347.1
7338.78
7330.83
7323.14
7315.75
7308.61
7301.71
7295.09
7288.73
7282.69
7276.94
7271.51
7266.49
7261.88
7257.66
7253.84
7250.42
7247.49
7245.02
7243.05
7241.5
7240.42
7239.8
7239.7
7240.08
7240.97
7242.3
7244.11
7246.42
7249.22
7252.47
7256.16
7260.31
7264.95
7270.01
7275.48
7281.34
7287.62
7294.34
7301.41
7308.81
7316.55
7324.64
7333.06
7341.8
7350.8
7360.03
7369.53
7379.27
7389.22
7399.38
7409.69
7420.16
7430.8
7441.6
7452.48
7463.42
7474.46
7485.56
7496.71
7507.9
7519.08
7530.28
7541.47
7552.6
7563.7
7574.74
7585.73
7596.65
7607.47
7618.16
7628.73
7639.2
7649.54
7659.75
7669.82
7679.72
7689.45
7699.02
7708.42
7717.66
7726.71
7735.57
7744.23
7752.73
7761.05
7769.18
7777.11
7784.83
7792.36
7799.72
7806.9
7813.92
7820.73
7827.37
7833.81
7840.1
7846.23
7852.2
7858.03
7863.7
7869.21
7874.57
7879.82
7884.93
7889.93
7894.81
7899.57
7904.21
7908.76
7913.21
7917.55
7921.8
7925.98
7930.07
7934.1
7938.02
7941.88
7945.67
7949.41
7953.07
7956.67
7960.21
7963.7
7967.11
7970.47
7973.75
7976.97
7980.11
7983.17
7986.13
7989.01
7991.8
7994.49
7997.08
7999.56
8001.95
8004.23
8006.41
8008.48
8010.44
8012.28
8014.01
8015.62
8017.13
8018.53
8019.81
8020.97
8022.03
8022.97
8023.8
8024.52
8025.13
8025.64
8026.05
8026.35
8026.54
8026.63
8026.62
8026.52
8026.32
8026.04
8025.66
8025.19
8024.64
8024.01
8023.29
8022.5
8021.63
8020.68
8019.67
8018.59
8017.44
8016.23
8014.96
8013.63
8012.24
8010.81
8009.32
8007.78
8006.19
8004.57
8002.9
8001.19
7999.45
7997.67
7995.86
7994.02
7992.16
7990.26
7988.34
7986.41
7984.45
7982.47
7980.48
7978.47
7976.45
7974.42
7972.39
7970.34
7968.29
7966.24
7964.19
7962.13
7960.08
7958.03
7955.98
7953.95
7951.92
7949.9
7947.89
7945.89
7943.91
7941.94
7939.99
7938.06
7936.13
7934.23
7932.35
7930.48
7928.64
7926.82
7925.02
7923.24
7921.48
7919.75
7918.05
7916.36
7914.7
7913.07
7911.46
7909.88
7908.32
7906.78
7905.27
7903.79
7902.32
7900.89
7899.48
7898.1
7896.74
7895.4
7894.09
7892.81
7891.55
7890.31
7889.1
7887.91
7886.75
7885.61
7884.49
7883.39
7882.32
7881.27
7880.24
7879.23
7878.24
7877.27
7876.32
7875.39
7874.48
7873.59
7872.72
7871.86
7871.02
7870.2
7869.4
7868.61
7867.84
7867.08
7866.34
7865.62
7864.91
7864.21
7863.53
7862.86
7862.2
7861.56
7860.93
7860.31
7859.71
7859.11
7858.53
7857.95
7857.39
7856.84
7856.3
7855.76
7855.24
7854.72
7854.22
7853.73
7853.25
7852.76
7852.3
7851.81
7851.36
7850.97
7850.53
7850.13
7849.71
7849.31
7848.9
7848.5
7848.1
7847.7
7847.31
7846.92
7846.53
7846.14
7845.77
7845.39
7845.02
7844.64
7844.28
7843.92
7843.57
7843.22
7842.88
7842.53
7842.2
7841.85
7841.53
7841.21
7840.88
7840.57
7840.24
7839.95
7839.61
7839.34
7839.04
7838.78
7838.47
7838.23
7837.81
7837.6
7837.45
7837.26
7837.06
7836.86
7836.66
7836.45
7836.25
7836.04
7835.83
7835.62
7835.4
7835.19
7834.97
7834.76
7834.55
7834.33
7834.12
7833.91
7833.69
7833.48
7833.27
7833.07
7832.86
7832.65
7832.45
7832.25
7832.05
7831.85
7831.65
7831.46
7831.26
7831.07
7830.88
7830.69
7830.51
7830.32
7830.14
7829.96
7829.78
7829.6
7829.43
7829.26
7829.09
7828.92
7828.75
7828.59
7828.43
7828.27
7828.11
7827.96
7827.81
7827.66
7827.51
7827.36
7827.22
7827.08
7826.94
7826.8
7826.67
7826.54
7826.41
7826.28
7826.16
7826.04
7825.92
7825.8
7825.69
7825.58
7825.47
7825.36
7825.26
7825.16
7825.06
7824.96
7824.86
7824.77
7824.68
7824.6
7824.51
7824.43
7824.36
7824.27
7824.19
8697.27
8689.59
8682.51
8677.38
8670.39
8661.86
8653.19
8645.68
8640.42
8636.71
8632.56
8627.84
8622.2
8616.1
8609.74
8603.16
8596.41
8589.5
8582.51
8575.42
8568.12
8560.81
8553.41
8546.03
8538.44
8530.57
8522.73
8514.88
8507.03
8499.21
8491.01
8482.63
8474.45
8466.2
8457.73
8449.03
8440.14
8431.49
8422.85
8414
8404.97
8395.71
8386.44
8377.18
8367.95
8358.65
8349.13
8339.41
8329.71
8320.07
8310.25
8300.16
8290.17
8280.17
8270.13
8260.19
8250.04
8239.63
8229.31
8219.07
8208.91
8198.57
8188.15
8177.6
8167.07
8156.62
8146.3
8135.93
8125.46
8114.96
8104.47
8094.01
8083.58
8073.12
8062.65
8052.42
8042.36
8032.61
8023.06
8012.97
8002.09
7991.37
7982.07
7973.99
7962.57
7940.54
7931.09
7917.77
7906.41
7892.98
7881.36
7868.7
7855.21
7842.8
7829.72
7817
7804.23
7791.42
7778.15
7765.14
7750.23
7736.06
7721.79
7707.08
7695.86
7681.31
7662.45
7646.32
7629.47
7615.02
7599.63
7585.53
7571.07
7556.81
7542.79
7529.1
7515.76
7502.65
7489.28
7476.48
7463.79
7451.44
7440.45
7428.5
7415.48
7404.25
7393.37
7383.04
7373.15
7363.64
7354.56
7345.82
7337.48
7329.39
7321.69
7314.31
7307.18
7300.28
7293.63
7287.23
7281.12
7275.38
7269.96
7265.01
7260.35
7256.08
7252.19
7248.81
7245.88
7243.49
7241.46
7239.9
7238.76
7238.17
7238.15
7238.56
7239.41
7240.71
7242.55
7244.89
7247.74
7251.01
7254.7
7258.88
7263.55
7268.67
7274.16
7280.04
7286.37
7293.14
7300.26
7307.67
7315.47
7323.61
7332.07
7340.87
7349.91
7359.18
7368.74
7378.55
7388.55
7398.7
7409.05
7419.58
7430.29
7441.14
7452.06
7463.07
7474.15
7485.26
7496.41
7507.63
7518.86
7530.14
7541.37
7552.55
7563.65
7574.7
7585.71
7596.67
7607.52
7618.23
7628.81
7639.3
7649.68
7659.91
7669.97
7679.87
7689.6
7699.18
7708.61
7717.86
7726.9
7735.74
7744.42
7752.94
7761.27
7769.38
7777.31
7785.03
7792.55
7799.9
7807.09
7814.11
7820.92
7827.55
7833.99
7840.27
7846.41
7852.4
7858.21
7863.87
7869.38
7874.74
7880
7885.12
7890.12
7895
7899.76
7904.4
7908.93
7913.37
7917.73
7922
7926.19
7930.3
7934.32
7938.26
7942.12
7945.91
7949.65
7953.34
7956.95
7960.49
7963.98
7967.4
7970.78
7974.08
7977.3
7980.44
7983.48
7986.47
7989.38
7992.17
7994.87
7997.46
7999.95
8002.34
8004.63
8006.83
8008.91
8010.87
8012.72
8014.45
8016.06
8017.57
8018.96
8020.24
8021.42
8022.48
8023.42
8024.24
8024.95
8025.56
8026.07
8026.47
8026.76
8026.94
8027.02
8027
8026.9
8026.7
8026.4
8026.02
8025.54
8024.97
8024.33
8023.61
8022.79
8021.92
8020.97
8019.95
8018.86
8017.7
8016.48
8015.21
8013.87
8012.48
8011.03
8009.53
8007.99
8006.39
8004.76
8003.08
8001.37
7999.62
7997.83
7996.01
7994.17
7992.29
7990.39
7988.46
7986.52
7984.55
7982.56
7980.57
7978.55
7976.53
7974.49
7972.45
7970.39
7968.34
7966.28
7964.22
7962.16
7960.1
7958.05
7956
7953.96
7951.92
7949.9
7947.88
7945.88
7943.9
7941.92
7939.97
7938.03
7936.1
7934.2
7932.31
7930.44
7928.6
7926.77
7924.97
7923.19
7921.43
7919.7
7917.99
7916.31
7914.65
7913.01
7911.4
7909.81
7908.25
7906.72
7905.21
7903.72
7902.26
7900.82
7899.42
7898.03
7896.67
7895.34
7894.03
7892.74
7891.48
7890.25
7889.04
7887.85
7886.69
7885.55
7884.43
7883.33
7882.26
7881.21
7880.18
7879.17
7878.18
7877.22
7876.27
7875.34
7874.43
7873.54
7872.67
7871.81
7870.97
7870.15
7869.35
7868.56
7867.79
7867.04
7866.3
7865.57
7864.87
7864.17
7863.49
7862.82
7862.16
7861.52
7860.89
7860.27
7859.67
7859.08
7858.49
7857.92
7857.35
7856.81
7856.26
7855.73
7855.21
7854.71
7854.19
7853.7
7853.18
7852.71
7852.3
7851.85
7851.42
7850.99
7850.56
7850.13
7849.72
7849.3
7848.9
7848.49
7848.09
7847.69
7847.29
7846.91
7846.51
7846.13
7845.74
7845.37
7845
7844.64
7844.27
7843.92
7843.55
7843.21
7842.86
7842.52
7842.18
7841.84
7841.52
7841.18
7840.87
7840.52
7840.23
7839.92
7839.64
7839.31
7839.05
7838.59
7838.36
7838.2
7837.98
7837.74
7837.52
7837.29
7837.07
7836.86
7836.65
7836.44
7836.23
7836.02
7835.81
7835.59
7835.38
7835.17
7834.95
7834.74
7834.53
7834.31
7834.1
7833.89
7833.68
7833.47
7833.26
7833.05
7832.85
7832.64
7832.44
7832.24
7832.04
7831.84
7831.64
7831.44
7831.25
7831.06
7830.87
7830.68
7830.49
7830.31
7830.12
7829.94
7829.77
7829.59
7829.42
7829.24
7829.07
7828.91
7828.74
7828.58
7828.42
7828.26
7828.1
7827.95
7827.79
7827.64
7827.5
7827.35
7827.21
7827.07
7826.93
7826.79
7826.66
7826.53
7826.4
7826.27
7826.15
7826.03
7825.91
7825.79
7825.68
7825.56
7825.45
7825.35
7825.24
7825.14
7825.04
7824.94
7824.85
7824.76
7824.67
7824.58
7824.5
7824.41
7824.34
7824.25
7824.18
8697.73
8690.01
8683.35
8677.7
8671.06
8664.41
8657.81
8651.69
8645.81
8640.33
8634.73
8628.93
8622.9
8616.65
8610.21
8603.6
8596.86
8590
8583.04
8575.97
8568.7
8561.27
8553.92
8546.58
8539.07
8531.37
8523.26
8515.3
8507.53
8499.77
8491.68
8483.38
8475.02
8466.71
8458.29
8449.69
8440.9
8432.14
8423.4
8414.52
8405.51
8396.38
8386.95
8377.57
8368.43
8359.12
8349.6
8339.93
8330.23
8320.54
8310.71
8300.75
8290.47
8280.52
8270.64
8260.34
8249.96
8239.7
8229.4
8219.26
8209.08
8198.67
8188.21
8177.64
8166.92
8156.38
8145.94
8135.55
8124.98
8114.42
8103.88
8093.29
8082.59
8071.76
8061.2
8050.7
8040.47
8030.26
8019.8
8009.07
7998.39
7987.68
7976.38
7964.29
7952.54
7941.91
7932.65
7924.08
7913
7891.14
7881.34
7867.04
7854.93
7841.62
7829.18
7814.84
7802.22
7788.2
7774.99
7761.1
7747.23
7733.02
7719.13
7703.75
7689.16
7673.56
7659.32
7644.26
7632.63
7618.23
7599.69
7584.25
7569.65
7555.08
7541.25
7527.36
7513.71
7500.26
7487.14
7474.3
7461.81
7449.23
7437.25
7425.26
7413.79
7403.28
7392.4
7381.04
7371.1
7361.58
7352.44
7343.75
7335.3
7327.19
7319.33
7311.85
7304.69
7297.81
7291.27
7284.92
7278.8
7272.97
7267.58
7262.59
7257.98
7253.65
7249.78
7246.37
7243.52
7241.08
7239.04
7237.38
7236.32
7235.74
7235.75
7236.19
7237.07
7238.38
7240.22
7242.57
7245.4
7248.76
7252.54
7256.75
7261.47
7266.65
7272.15
7278.11
7284.5
7291.28
7298.5
7306.05
7313.85
7322.06
7330.58
7339.4
7348.53
7357.95
7367.57
7377.43
7387.46
7397.67
7408.11
7418.72
7429.51
7440.44
7451.42
7462.49
7473.61
7484.75
7496
7507.27
7518.56
7529.89
7541.19
7552.42
7563.6
7574.67
7585.7
7596.69
7607.6
7618.36
7628.97
7639.45
7649.86
7660.12
7670.2
7680.1
7689.86
7699.47
7708.92
7718.15
7727.19
7736.02
7744.71
7753.2
7761.55
7769.69
7777.61
7785.3
7792.82
7800.18
7807.37
7814.38
7821.19
7827.81
7834.27
7840.56
7846.66
7852.62
7858.43
7864.13
7869.65
7875.03
7880.24
7885.35
7890.38
7895.27
7900.03
7904.65
7909.2
7913.66
7918.06
7922.34
7926.53
7930.62
7934.66
7938.61
7942.47
7946.29
7950.07
7953.76
7957.37
7960.91
7964.43
7967.89
7971.27
7974.57
7977.8
7980.93
7984
7987
7989.92
7992.74
7995.45
7998.06
8000.55
8002.95
8005.25
8007.46
8009.55
8011.51
8013.34
8015.09
8016.73
8018.25
8019.63
8020.9
8022.07
8023.14
8024.08
8024.89
8025.6
8026.2
8026.71
8027.1
8027.37
8027.53
8027.61
8027.6
8027.47
8027.26
8026.93
8026.53
8026.05
8025.48
8024.82
8024.07
8023.25
8022.36
8021.41
8020.37
8019.26
8018.09
8016.86
8015.57
8014.22
8012.81
8011.36
8009.85
8008.29
8006.69
8005.04
8003.35
8001.63
7999.87
7998.07
7996.24
7994.38
7992.49
7990.58
7988.64
7986.68
7984.7
7982.7
7980.69
7978.67
7976.63
7974.58
7972.53
7970.47
7968.4
7966.34
7964.27
7962.2
7960.13
7958.07
7956.01
7953.97
7951.92
7949.89
7947.87
7945.87
7943.87
7941.89
7939.93
7937.98
7936.05
7934.14
7932.25
7930.38
7928.53
7926.7
7924.9
7923.11
7921.35
7919.62
7917.91
7916.22
7914.55
7912.92
7911.31
7909.72
7908.16
7906.62
7905.11
7903.62
7902.16
7900.73
7899.31
7897.93
7896.57
7895.24
7893.93
7892.65
7891.39
7890.15
7888.94
7887.76
7886.59
7885.45
7884.34
7883.24
7882.17
7881.12
7880.09
7879.09
7878.1
7877.13
7876.19
7875.26
7874.35
7873.46
7872.59
7871.74
7870.9
7870.08
7869.28
7868.49
7867.72
7866.97
7866.23
7865.51
7864.8
7864.11
7863.43
7862.76
7862.11
7861.47
7860.84
7860.22
7859.62
7859.02
7858.44
7857.87
7857.31
7856.76
7856.23
7855.68
7855.17
7854.62
7854.13
7853.7
7853.22
7852.78
7852.32
7851.87
7851.42
7850.99
7850.56
7850.14
7849.71
7849.3
7848.89
7848.48
7848.08
7847.67
7847.28
7846.87
7846.49
7846.11
7845.74
7845.35
7844.99
7844.61
7844.26
7843.88
7843.54
7843.17
7842.84
7842.47
7842.15
7841.78
7841.47
7841.16
7840.84
7840.55
7840.2
7839.93
7839.44
7839.2
7839.03
7838.8
7838.57
7838.32
7838.07
7837.84
7837.61
7837.38
7837.15
7836.93
7836.71
7836.49
7836.28
7836.06
7835.84
7835.62
7835.4
7835.19
7834.97
7834.75
7834.54
7834.32
7834.1
7833.89
7833.68
7833.47
7833.26
7833.05
7832.84
7832.63
7832.43
7832.23
7832.03
7831.83
7831.63
7831.43
7831.24
7831.05
7830.86
7830.67
7830.48
7830.3
7830.11
7829.93
7829.75
7829.58
7829.4
7829.23
7829.06
7828.89
7828.73
7828.56
7828.4
7828.24
7828.08
7827.93
7827.78
7827.63
7827.48
7827.33
7827.19
7827.05
7826.91
7826.77
7826.64
7826.51
7826.38
7826.25
7826.13
7826.01
7825.89
7825.77
7825.66
7825.55
7825.44
7825.33
7825.23
7825.12
7825.02
7824.93
7824.83
7824.74
7824.65
7824.56
7824.48
7824.4
7824.32
7824.23
7824.16
8698.49
8690.81
8683.93
8678.24
8672.3
8666.4
8660.67
8654.19
8648.04
8642.05
8636
8629.89
8623.69
8617.35
8610.88
8604.26
8597.53
8590.68
8583.72
8576.66
8569.47
8562.13
8554.76
8547.34
8539.8
8532.14
8524.24
8516.15
8508.37
8500.5
8492.42
8484.2
8475.86
8467.46
8458.98
8450.4
8441.74
8432.97
8424.12
8415.19
8406.17
8397.06
8387.8
8378.4
8369.08
8359.69
8350.17
8340.58
8330.88
8321.11
8311.24
8301.28
8291.2
8281.2
8271.15
8260.91
8250.39
8239.88
8229.53
8219.39
8209.21
8198.76
8188.25
8177.69
8167.08
8156.41
8145.61
8134.94
8124.28
8113.77
8103.11
8092.37
8081.59
8070.64
8059.66
8048.91
8038.44
8027.75
8016.93
8006
7994.96
7983.72
7972.31
7961.18
7950.04
7938.52
7926.63
7914.61
7903.17
7892.99
7884.47
7873.3
7851.55
7840.36
7826.2
7813.74
7800.44
7787.6
7772.59
7759.25
7744.33
7730.43
7715.87
7701.56
7686.87
7672.37
7657.07
7641.89
7626.74
7612.15
7597.24
7585.43
7570.98
7553.77
7538.97
7525.13
7511.28
7497.99
7484.65
7471.75
7459.05
7446.82
7434.75
7423.07
7411.2
7400.13
7389
7378.73
7369.04
7359.26
7349.35
7340.37
7332.05
7323.92
7316.23
7308.63
7301.33
7294.37
7287.71
7281.55
7275.46
7269.67
7264.16
7259.15
7254.5
7250.39
7246.5
7243.02
7240.15
7237.76
7235.68
7234.05
7233
7232.49
7232.54
7232.97
7233.88
7235.29
7237.12
7239.49
7242.36
7245.73
7249.66
7253.99
7258.75
7263.9
7269.46
7275.52
7281.99
7288.87
7296.2
7303.82
7311.71
7319.97
7328.59
7337.51
7346.79
7356.29
7365.98
7375.83
7385.96
7396.33
7406.87
7417.63
7428.53
7439.49
7450.55
7461.71
7472.9
7484.13
7495.46
7506.81
7518.17
7529.55
7540.95
7552.25
7563.5
7574.66
7585.71
7596.72
7607.67
7618.51
7629.2
7639.74
7650.08
7660.34
7670.45
7680.43
7690.28
7699.89
7709.32
7718.54
7727.55
7736.43
7745.12
7753.64
7761.95
7770.08
7778
7785.68
7793.21
7800.58
7807.78
7814.76
7821.51
7828.14
7834.61
7840.95
7847.08
7852.99
7858.79
7864.45
7870
7875.37
7880.61
7885.73
7890.76
7895.67
7900.41
7905.04
7909.61
7914.08
7918.49
7922.79
7926.99
7931.08
7935.12
7939.09
7943
7946.84
7950.64
7954.35
7957.97
7961.53
7965.05
7968.52
7971.94
7975.24
7978.47
7981.64
7984.73
7987.74
7990.68
7993.52
7996.25
7998.87
8001.38
8003.78
8006.09
8008.31
8010.41
8012.36
8014.21
8015.96
8017.61
8019.14
8020.52
8021.79
8022.96
8024.01
8024.93
8025.75
8026.46
8027.07
8027.54
8027.9
8028.17
8028.33
8028.41
8028.38
8028.24
8027.99
8027.65
8027.23
8026.73
8026.15
8025.47
8024.72
8023.87
8022.96
8021.97
8020.92
8019.8
8018.61
8017.37
8016.06
8014.69
8013.26
8011.8
8010.27
8008.69
8007.07
8005.41
8003.71
8001.97
8000.19
7998.37
7996.52
7994.65
7992.75
7990.82
7988.87
7986.89
7984.89
7982.88
7980.86
7978.82
7976.77
7974.71
7972.64
7970.56
7968.49
7966.41
7964.33
7962.25
7960.18
7958.1
7956.03
7953.97
7951.92
7949.88
7947.85
7945.84
7943.84
7941.85
7939.88
7937.92
7935.98
7934.07
7932.17
7930.3
7928.44
7926.61
7924.8
7923.01
7921.25
7919.51
7917.79
7916.1
7914.44
7912.79
7911.18
7909.59
7908.03
7906.49
7904.97
7903.49
7902.03
7900.59
7899.18
7897.8
7896.44
7895.11
7893.8
7892.52
7891.26
7890.03
7888.82
7887.63
7886.47
7885.33
7884.22
7883.12
7882.05
7881
7879.98
7878.97
7877.99
7877.02
7876.08
7875.15
7874.24
7873.36
7872.49
7871.63
7870.8
7869.98
7869.19
7868.4
7867.63
7866.88
7866.14
7865.42
7864.72
7864.02
7863.35
7862.68
7862.03
7861.39
7860.76
7860.15
7859.54
7858.95
7858.38
7857.81
7857.23
7856.69
7856.11
7855.6
7855.15
7854.65
7854.19
7853.71
7853.24
7852.77
7852.33
7851.87
7851.43
7850.99
7850.56
7850.13
7849.7
7849.28
7848.87
7848.45
7848.04
7847.66
7847.26
7846.88
7846.48
7846.11
7845.7
7845.35
7844.95
7844.6
7844.21
7843.87
7843.49
7843.16
7842.77
7842.45
7842.13
7841.79
7841.48
7841.13
7840.83
7840.33
7840.06
7839.89
7839.64
7839.38
7839.12
7838.85
7838.6
7838.36
7838.12
7837.88
7837.64
7837.41
7837.18
7836.96
7836.73
7836.51
7836.28
7836.06
7835.84
7835.62
7835.4
7835.18
7834.96
7834.74
7834.53
7834.31
7834.09
7833.88
7833.67
7833.45
7833.24
7833.03
7832.83
7832.62
7832.41
7832.21
7832.01
7831.81
7831.61
7831.41
7831.22
7831.03
7830.84
7830.65
7830.46
7830.27
7830.09
7829.91
7829.73
7829.55
7829.38
7829.21
7829.04
7828.87
7828.7
7828.54
7828.38
7828.22
7828.06
7827.91
7827.75
7827.6
7827.46
7827.31
7827.17
7827.03
7826.89
7826.75
7826.62
7826.49
7826.36
7826.23
7826.11
7825.98
7825.86
7825.75
7825.63
7825.52
7825.41
7825.3
7825.2
7825.1
7825
7824.9
7824.81
7824.72
7824.63
7824.54
7824.45
7824.37
7824.3
7824.21
7824.14
8699.63
8691.97
8685
8679.31
8673.77
8668.08
8662.29
8656.05
8649.82
8643.64
8637.42
8631.16
8624.82
8618.39
8611.86
8605.21
8598.46
8591.59
8584.63
8577.56
8570.39
8563.12
8555.73
8548.27
8540.71
8533.04
8525.26
8517.37
8509.44
8501.42
8493.3
8485.08
8476.76
8468.32
8459.81
8451.25
8442.59
8433.8
8424.93
8415.97
8406.95
8397.84
8388.61
8379.29
8369.79
8360.03
8350.64
8341.22
8331.56
8321.76
8311.86
8301.86
8291.86
8281.8
8271.65
8261.42
8251.09
8240.61
8230.12
8219.51
8209.05
8198.75
8188.29
8177.66
8166.98
8156.27
8145.48
8134.58
8123.5
8112.83
8102.2
8091.33
8080.4
8069.4
8058.25
8047.07
8036.28
8025.27
8014.04
8002.93
7991.82
7980.48
7969.02
7957.49
7945.78
7933.97
7922.16
7910.71
7899.4
7887.6
7875.34
7863.45
7852.61
7843.47
7831.9
7810.03
7798.11
7783.62
7770.43
7756.47
7742.99
7727.37
7713.47
7698.1
7683.78
7668.51
7654.15
7638.89
7624.51
7609.65
7594.54
7579.59
7564.85
7550.56
7538.53
7524.56
7508.56
7494.46
7481.44
7468.55
7456.14
7443.66
7431.65
7419.72
7408.35
7397.01
7386.29
7375.56
7365.49
7355.24
7345.84
7336.74
7327.96
7319.4
7311.47
7303.8
7296.8
7289.79
7283.32
7277.05
7271.02
7265.24
7259.83
7254.72
7250.22
7246.04
7242.25
7238.8
7235.96
7233.51
7231.51
7229.86
7228.85
7228.46
7228.43
7228.85
7229.77
7231.26
7233.26
7235.69
7238.59
7242.03
7245.99
7250.37
7255.21
7260.48
7266.18
7272.33
7278.94
7285.91
7293.27
7300.99
7309.06
7317.41
7326.12
7335.25
7344.57
7354.15
7363.98
7373.97
7384.16
7394.73
7405.45
7416.27
7427.22
7438.29
7449.41
7460.58
7472
7483.47
7494.91
7506.36
7517.81
7529.16
7540.52
7552.01
7563.37
7574.63
7585.78
7596.8
7607.83
7618.71
7629.45
7640.04
7650.42
7660.71
7670.85
7680.92
7690.76
7700.39
7709.81
7718.99
7728.05
7736.99
7745.75
7754.25
7762.54
7770.59
7778.49
7786.21
7793.81
7801.16
7808.32
7815.22
7822.01
7828.64
7835.16
7841.46
7847.58
7853.54
7859.3
7864.93
7870.45
7875.83
7881.14
7886.3
7891.31
7896.2
7900.97
7905.58
7910.17
7914.7
7919.11
7923.37
7927.57
7931.71
7935.77
7939.78
7943.74
7947.62
7951.41
7955.11
7958.74
7962.34
7965.88
7969.37
7972.83
7976.15
7979.38
7982.57
7985.71
7988.76
7991.68
7994.5
7997.24
7999.91
8002.44
8004.85
8007.18
8009.42
8011.5
8013.46
8015.32
8017.09
8018.74
8020.26
8021.65
8022.9
8024.06
8025.1
8026.05
8026.86
8027.56
8028.15
8028.6
8028.95
8029.2
8029.37
8029.42
8029.34
8029.18
8028.92
8028.57
8028.13
8027.61
8027
8026.29
8025.5
8024.65
8023.72
8022.72
8021.64
8020.48
8019.28
8018.02
8016.69
8015.28
8013.84
8012.34
8010.81
8009.21
8007.56
8005.87
8004.16
8002.4
8000.59
7998.76
7996.9
7995
7993.07
7991.12
7989.15
7987.16
7985.15
7983.12
7981.07
7979.01
7976.95
7974.87
7972.79
7970.69
7968.6
7966.51
7964.41
7962.32
7960.23
7958.15
7956.07
7953.99
7951.93
7949.88
7947.83
7945.8
7943.79
7941.79
7939.81
7937.85
7935.9
7933.98
7932.07
7930.19
7928.33
7926.49
7924.68
7922.88
7921.11
7919.37
7917.65
7915.95
7914.28
7912.64
7911.02
7909.43
7907.86
7906.32
7904.81
7903.32
7901.86
7900.43
7899.02
7897.63
7896.27
7894.94
7893.64
7892.35
7891.1
7889.86
7888.66
7887.47
7886.31
7885.17
7884.06
7882.97
7881.9
7880.86
7879.83
7878.83
7877.84
7876.88
7875.94
7875.02
7874.11
7873.23
7872.36
7871.51
7870.68
7869.86
7869.06
7868.28
7867.52
7866.77
7866.03
7865.32
7864.61
7863.92
7863.24
7862.58
7861.93
7861.29
7860.69
7860.07
7859.49
7858.86
7858.3
7857.68
7857.14
7856.68
7856.15
7855.67
7855.16
7854.68
7854.18
7853.72
7853.24
7852.78
7852.32
7851.87
7851.42
7850.98
7850.54
7850.11
7849.67
7849.25
7848.86
7848.44
7848.05
7847.64
7847.25
7846.84
7846.47
7846.06
7845.7
7845.29
7844.94
7844.53
7844.2
7843.78
7843.46
7843.09
7842.78
7842.38
7842.09
7841.54
7841.25
7841.14
7840.84
7840.57
7840.3
7840.02
7839.73
7839.46
7839.2
7838.95
7838.69
7838.44
7838.19
7837.95
7837.71
7837.47
7837.23
7837
7836.77
7836.54
7836.31
7836.08
7835.86
7835.63
7835.41
7835.18
7834.96
7834.74
7834.52
7834.3
7834.08
7833.87
7833.65
7833.44
7833.23
7833.02
7832.81
7832.6
7832.4
7832.19
7831.99
7831.79
7831.59
7831.39
7831.2
7831.01
7830.81
7830.62
7830.44
7830.25
7830.07
7829.89
7829.71
7829.53
7829.35
7829.18
7829.01
7828.84
7828.68
7828.51
7828.35
7828.19
7828.03
7827.88
7827.73
7827.58
7827.43
7827.28
7827.14
7827
7826.86
7826.72
7826.59
7826.46
7826.33
7826.2
7826.08
7825.95
7825.84
7825.72
7825.6
7825.49
7825.38
7825.28
7825.17
7825.07
7824.97
7824.87
7824.78
7824.68
7824.6
7824.51
7824.42
7824.34
7824.27
7824.18
7824.11
8701.05
8693.37
8686.36
8680.62
8675.16
8669.48
8663.67
8657.53
8651.36
8645.16
8638.89
8632.56
8626.16
8619.66
8613.07
8606.39
8599.62
8592.75
8585.77
8578.7
8571.52
8564.23
8556.84
8549.37
8541.81
8534.14
8526.36
8518.51
8510.56
8502.51
8494.37
8486.14
8477.79
8469.21
8460.65
8452.2
8443.59
8434.8
8425.69
8416.5
8407.69
8398.77
8389.55
8380.16
8370.21
8360.26
8350.86
8341.82
8332.35
8322.54
8312.62
8302.62
8292.56
8282.44
8272.23
8261.96
8251.63
8241.21
8230.65
8219.72
8209.11
8198.69
8188.31
8177.63
8166.85
8156.02
8145.13
8134.1
8122.79
8111.8
8101.07
8090.23
8079.14
8067.99
8056.8
8045.52
8034
8022.57
8011.23
8000.12
7988.78
7977.18
7965.31
7953.57
7942
7930.32
7918.42
7906.5
7894.4
7882.09
7870.29
7858.61
7846.34
7833.76
7821.44
7810.11
7800.85
7789.11
7766.76
7753.76
7739.04
7725.31
7710.91
7696.92
7680.71
7666.4
7651.02
7636.66
7621.71
7607.05
7592.02
7577.27
7562.85
7547.77
7533.67
7519.07
7505.4
7493.12
7479.59
7464.79
7451.71
7439.83
7427.82
7416.27
7404.61
7393.44
7382.26
7371.9
7361.59
7351.86
7342.06
7332.73
7323.37
7314.75
7306.45
7298.66
7290.96
7283.81
7277.05
7271.37
7265.28
7259.76
7254.29
7249.31
7244.54
7240.39
7236.81
7233.56
7230.62
7228.17
7226.1
7224.75
7223.82
7223.35
7223.33
7223.77
7224.66
7226.3
7228.43
7230.96
7233.98
7237.5
7241.48
7245.91
7250.83
7256.3
7262.18
7268.46
7275.15
7282.24
7289.71
7297.53
7305.71
7314.26
7323.2
7332.39
7341.85
7351.57
7361.5
7371.59
7382.07
7392.8
7403.59
7414.55
7425.64
7436.85
7448.1
7459.38
7470.85
7482.52
7494.11
7505.68
7517.25
7528.7
7540.16
7551.64
7563.18
7574.57
7585.83
7596.98
7607.94
7618.82
7629.66
7640.39
7650.91
7661.18
7671.36
7681.48
7691.34
7700.98
7710.39
7719.61
7728.7
7737.69
7746.43
7754.93
7763.23
7771.33
7779.19
7786.89
7794.47
7801.83
7808.99
7815.94
7822.66
7829.31
7835.81
7842.1
7848.22
7854.18
7859.99
7865.61
7871.08
7876.51
7881.81
7886.95
7891.98
7896.88
7901.67
7906.31
7910.94
7915.45
7919.86
7924.18
7928.4
7932.52
7936.63
7940.69
7944.65
7948.54
7952.35
7956.08
7959.73
7963.36
7966.97
7970.5
7973.93
7977.29
7980.53
7983.74
7986.91
7989.96
7992.91
7995.76
7998.48
8001.16
8003.74
8006.19
8008.53
8010.75
8012.85
8014.8
8016.69
8018.48
8020.12
8021.63
8023.02
8024.29
8025.41
8026.45
8027.39
8028.19
8028.88
8029.44
8029.89
8030.21
8030.46
8030.6
8030.62
8030.52
8030.33
8030.06
8029.69
8029.22
8028.67
8028.02
8027.28
8026.47
8025.59
8024.64
8023.6
8022.5
8021.32
8020.09
8018.79
8017.44
8016.01
8014.54
8013.02
8011.45
8009.82
8008.15
8006.44
8004.7
8002.91
8001.08
7999.22
7997.34
7995.42
7993.47
7991.5
7989.5
7987.49
7985.45
7983.4
7981.33
7979.25
7977.16
7975.06
7972.96
7970.85
7968.74
7966.63
7964.51
7962.4
7960.29
7958.19
7956.1
7954.01
7951.93
7949.86
7947.81
7945.76
7943.74
7941.73
7939.73
7937.76
7935.81
7933.87
7931.96
7930.07
7928.2
7926.35
7924.53
7922.73
7920.95
7919.2
7917.47
7915.77
7914.1
7912.45
7910.83
7909.24
7907.67
7906.13
7904.61
7903.12
7901.66
7900.23
7898.82
7897.43
7896.07
7894.74
7893.44
7892.16
7890.9
7889.67
7888.46
7887.28
7886.12
7884.99
7883.88
7882.79
7881.72
7880.68
7879.66
7878.66
7877.68
7876.71
7875.78
7874.85
7873.95
7873.07
7872.21
7871.36
7870.53
7869.71