/*--------------------------------*- C++ -*----------------------------------*\
| =========                 |                                                 |
| \\      /  F ield         | OpenFOAM: The Open Source CFD Toolbox           |
|  \\    /   O peration     | Version:  v2006                                 |
|   \\  /    A nd           | Website:  www.openfoam.com                      |
|    \\/     M anipulation  |                                                 |
\*---------------------------------------------------------------------------*/
FoamFile
{
    version     2.0;
    format      ascii;
    class       surfaceScalarField;
    location    "4.5";
    object      phi;
}
// * * * * * * * * * * * * * * * * * * * * * * * * * * * * * * * * * * * * * //

dimensions      [0 3 -1 0 0 0 0];
oriented        oriented;


internalField   nonuniform List<scalar> 
65390
(
9.97384e-05
8.71369e-07
9.8552e-05
1.18622e-06
9.9053e-05
-5.01222e-07
0.000107381
-8.32785e-06
0.000123916
-1.65357e-05
0.000142863
-1.89468e-05
0.000158453
-1.55906e-05
0.000162331
-3.87732e-06
0.000153441
8.89008e-06
0.000140065
1.3376e-05
0.000127559
1.25062e-05
0.000118224
9.33459e-06
0.000111799
6.42477e-06
0.000107215
4.58476e-06
0.000103889
3.32553e-06
0.000101456
2.43281e-06
9.93371e-05
2.11932e-06
9.71202e-05
2.217e-06
9.49458e-05
2.17442e-06
9.30925e-05
1.85337e-06
9.16842e-05
1.40835e-06
9.05641e-05
1.12021e-06
8.94258e-05
1.13832e-06
8.81783e-05
1.24754e-06
8.66221e-05
1.55626e-06
8.48154e-05
1.80668e-06
8.3075e-05
1.74044e-06
8.16926e-05
1.38241e-06
8.06141e-05
1.07845e-06
7.94696e-05
1.14452e-06
7.78958e-05
1.57386e-06
7.6265e-05
1.63079e-06
7.50172e-05
1.24782e-06
7.41595e-05
8.57711e-07
7.32594e-05
9.00085e-07
7.18111e-05
1.44825e-06
6.98353e-05
1.9758e-06
6.80797e-05
1.75555e-06
6.68894e-05
1.19033e-06
6.61363e-05
7.53024e-07
6.52963e-05
8.39973e-07
6.39212e-05
1.37512e-06
6.22826e-05
1.63862e-06
6.07449e-05
1.53763e-06
5.94956e-05
1.24931e-06
5.85255e-05
9.70153e-07
5.75761e-05
9.49425e-07
5.64169e-05
1.1592e-06
5.51132e-05
1.30373e-06
5.39423e-05
1.17092e-06
5.29205e-05
1.02173e-06
5.17904e-05
1.13018e-06
5.03835e-05
1.40684e-06
4.86685e-05
1.71506e-06
4.68548e-05
1.81367e-06
4.54057e-05
1.44909e-06
4.43188e-05
1.08684e-06
4.32264e-05
1.09235e-06
4.18576e-05
1.36882e-06
4.05076e-05
1.34986e-06
3.95535e-05
9.54027e-07
3.91259e-05
4.27564e-07
3.913e-05
-4.25492e-09
3.9215e-05
-8.50591e-08
3.9232e-05
-1.71183e-08
3.93502e-05
-1.18336e-07
3.98451e-05
-4.95077e-07
4.09738e-05
-1.12879e-06
4.27513e-05
-1.77767e-06
4.50632e-05
-2.31202e-06
4.76707e-05
-2.60757e-06
5.03554e-05
-2.68482e-06
5.27158e-05
-2.36056e-06
5.4164e-05
-1.44829e-06
5.37922e-05
3.71668e-07
4.98511e-05
3.94098e-06
4.2145e-05
7.70602e-06
3.01555e-05
1.19894e-05
2.05998e-05
9.55562e-06
1.71254e-05
3.47439e-06
1.51904e-05
1.93501e-06
1.54331e-05
-2.42653e-07
1.4791e-05
6.42149e-07
1.51173e-05
-3.26268e-07
1.53843e-05
-2.67007e-07
1.47731e-05
6.11224e-07
1.42902e-05
4.82919e-07
1.39108e-05
3.79421e-07
1.38319e-05
7.90091e-08
1.37922e-05
3.96613e-08
1.40465e-05
-2.54273e-07
1.45767e-05
-5.30151e-07
1.53028e-05
-7.26127e-07
1.64535e-05
-1.15061e-06
1.80936e-05
-1.64012e-06
2.00285e-05
-1.9349e-06
2.2127e-05
-2.0985e-06
2.43413e-05
-2.21424e-06
2.52111e-05
-8.69762e-07
2.48543e-05
3.56833e-07
2.4417e-05
4.3726e-07
2.37772e-05
6.39835e-07
2.32095e-05
5.67749e-07
2.25524e-05
6.57176e-07
2.19855e-05
5.66933e-07
2.14811e-05
5.04475e-07
2.10452e-05
4.3587e-07
2.05645e-05
4.80757e-07
1.99253e-05
6.3923e-07
1.92811e-05
6.44258e-07
1.86093e-05
6.71784e-07
1.79325e-05
6.76872e-07
1.72781e-05
6.54401e-07
1.66761e-05
6.02001e-07
1.61412e-05
5.34917e-07
1.57074e-05
4.33857e-07
1.51334e-05
5.74066e-07
1.44617e-05
6.71666e-07
1.37818e-05
6.7996e-07
1.31092e-05
6.72631e-07
1.25056e-05
6.03636e-07
1.18489e-05
6.56739e-07
1.11211e-05
7.27794e-07
1.03971e-05
7.23993e-07
9.67533e-06
7.21798e-07
8.92667e-06
7.4867e-07
8.16424e-06
7.62427e-07
7.38045e-06
7.83792e-07
6.57832e-06
8.02124e-07
5.78271e-06
7.95601e-07
4.98503e-06
7.97668e-07
4.18319e-06
8.01813e-07
3.39641e-06
7.86759e-07
2.61586e-06
7.80528e-07
1.84289e-06
7.72951e-07
1.07951e-06
7.63353e-07
3.30714e-07
7.48773e-07
-3.99762e-07
7.30452e-07
-1.11161e-06
7.11826e-07
-1.79974e-06
6.88101e-07
-2.46404e-06
6.64279e-07
-3.10782e-06
6.43759e-07
-3.73883e-06
6.30981e-07
-4.35117e-06
6.1232e-07
-4.94112e-06
5.89931e-07
-5.50748e-06
5.66342e-07
-6.06075e-06
5.53267e-07
-6.60268e-06
5.41915e-07
-7.13062e-06
5.2794e-07
-7.63964e-06
5.09023e-07
-8.12505e-06
4.85404e-07
-8.59567e-06
4.70629e-07
-9.05529e-06
4.59622e-07
-9.50336e-06
4.48069e-07
-9.93789e-06
4.34525e-07
-1.03562e-05
4.18323e-07
-1.07561e-05
3.99905e-07
-1.1144e-05
3.87911e-07
-1.1522e-05
3.77961e-07
-1.1886e-05
3.63978e-07
-1.22322e-05
3.46204e-07
-1.25641e-05
3.31909e-07
-1.28854e-05
3.21259e-07
-1.31956e-05
3.1015e-07
-1.34891e-05
2.93475e-07
-1.37654e-05
2.76261e-07
-1.40291e-05
2.63684e-07
-1.42836e-05
2.54547e-07
-1.45259e-05
2.42271e-07
-1.475e-05
2.24013e-07
-1.49577e-05
2.07692e-07
-1.51533e-05
1.95596e-07
-1.5339e-05
1.85698e-07
-1.55135e-05
1.74449e-07
-1.56737e-05
1.6012e-07
-1.58163e-05
1.42608e-07
-1.59451e-05
1.28739e-07
-1.60636e-05
1.18493e-07
-1.61711e-05
1.07496e-07
-1.62659e-05
9.47394e-08
-1.63474e-05
8.15102e-08
-1.64151e-05
6.76505e-08
-1.64724e-05
5.72061e-08
-1.65207e-05
4.82958e-08
-1.65568e-05
3.60445e-08
-1.65758e-05
1.89673e-08
-1.65816e-05
5.77248e-09
-1.65791e-05
-2.51662e-09
-1.65672e-05
-1.19586e-08
-1.65443e-05
-2.28909e-08
-1.65101e-05
-3.42439e-08
-1.64639e-05
-4.62289e-08
-1.64074e-05
-5.65058e-08
-1.63403e-05
-6.71775e-08
-1.62614e-05
-7.89066e-08
-1.61723e-05
-8.91228e-08
-1.60746e-05
-9.77123e-08
-1.59671e-05
-1.07477e-07
-1.58493e-05
-1.17768e-07
-1.57189e-05
-1.30417e-07
-1.55762e-05
-1.42695e-07
-1.54245e-05
-1.51734e-07
-1.5267e-05
-1.57556e-07
-1.51019e-05
-1.65105e-07
-1.49266e-05
-1.753e-07
-1.47395e-05
-1.87124e-07
-1.45397e-05
-1.99755e-07
-1.43303e-05
-2.09364e-07
-1.41144e-05
-2.15908e-07
-1.38917e-05
-2.22732e-07
-1.3659e-05
-2.32707e-07
-1.3414e-05
-2.44953e-07
-1.31596e-05
-2.54364e-07
-1.2901e-05
-2.58635e-07
-1.26377e-05
-2.63244e-07
-1.2363e-05
-2.74666e-07
-1.20774e-05
-2.85576e-07
-1.17816e-05
-2.9578e-07
-1.1477e-05
-3.04607e-07
-1.11703e-05
-3.06731e-07
-1.08635e-05
-3.06792e-07
-1.05498e-05
-3.13657e-07
-1.02263e-05
-3.23456e-07
-9.89209e-06
-3.34223e-07
-9.55084e-06
-3.4123e-07
-9.20841e-06
-3.42416e-07
-8.86874e-06
-3.39654e-07
-8.52599e-06
-3.42732e-07
-8.17743e-06
-3.48543e-07
-7.82594e-06
-3.5146e-07
-7.47069e-06
-3.55229e-07
-7.11172e-06
-3.58951e-07
-6.75737e-06
-3.54327e-07
-6.40832e-06
-3.49013e-07
-6.05743e-06
-3.50864e-07
-5.70645e-06
-3.50941e-07
-5.3567e-06
-3.49716e-07
-5.00788e-06
-3.48772e-07
-4.66379e-06
-3.44037e-07
-4.32584e-06
-3.3789e-07
-3.99089e-06
-3.34879e-07
-3.65849e-06
-3.32332e-07
-3.33242e-06
-3.25995e-07
-3.01514e-06
-3.172e-07
-2.70247e-06
-3.12592e-07
-2.39276e-06
-3.09624e-07
-2.08517e-06
-3.07512e-07
-1.78643e-06
-2.9867e-07
-1.4987e-06
-2.87647e-07
-1.21647e-06
-2.8216e-07
-9.36911e-07
-2.79492e-07
-6.63124e-07
-2.73719e-07
-3.97937e-07
-2.6512e-07
-1.39495e-07
-2.58375e-07
1.13347e-07
-2.52774e-07
3.57426e-07
-2.44006e-07
5.95729e-07
-2.38228e-07
8.28875e-07
-2.33067e-07
1.05605e-06
-2.2709e-07
1.27828e-06
-2.22147e-07
1.49367e-06
-2.15301e-07
1.70247e-06
-2.08718e-07
1.90703e-06
-2.04477e-07
2.10772e-06
-2.00609e-07
2.30437e-06
-1.96571e-07
2.49473e-06
-1.90288e-07
2.6779e-06
-1.83088e-07
2.85456e-06
-1.76595e-07
3.02677e-06
-1.72136e-07
3.19664e-06
-1.69811e-07
3.36333e-06
-1.66625e-07
3.52528e-06
-1.619e-07
3.68094e-06
-1.55624e-07
3.82969e-06
-1.4873e-07
3.97384e-06
-1.44142e-07
4.11446e-06
-1.40617e-07
4.25127e-06
-1.36814e-07
4.38307e-06
-1.31804e-07
4.51002e-06
-1.26939e-07
4.63331e-06
-1.23273e-07
4.75287e-06
-1.19547e-07
4.86667e-06
-1.13782e-07
4.97453e-06
-1.07865e-07
5.07856e-06
-1.04042e-07
5.17929e-06
-1.00756e-07
5.27688e-06
-9.76302e-08
5.37066e-06
-9.38241e-08
5.46012e-06
-8.95075e-08
5.5447e-06
-8.46084e-08
5.62455e-06
-7.98649e-08
5.70094e-06
-7.64024e-08
5.77431e-06
-7.33729e-08
5.84493e-06
-7.06264e-08
5.91214e-06
-6.72152e-08
5.97479e-06
-6.26657e-08
6.0335e-06
-5.87164e-08
6.08931e-06
-5.583e-08
6.14206e-06
-5.27518e-08
6.1921e-06
-5.0032e-08
6.23924e-06
-4.71231e-08
6.28278e-06
-4.35053e-08
6.3233e-06
-4.04903e-08
6.36122e-06
-3.78792e-08
6.39675e-06
-3.54956e-08
6.42972e-06
-3.29445e-08
6.45958e-06
-2.98279e-08
6.4868e-06
-2.71987e-08
6.51213e-06
-2.53095e-08
6.53549e-06
-2.334e-08
6.55606e-06
-2.05617e-08
6.57398e-06
-1.79115e-08
6.58945e-06
-1.54552e-08
6.60302e-06
-1.3559e-08
6.61488e-06
-1.18545e-08
6.62449e-06
-9.60657e-09
6.63164e-06
-7.14486e-09
6.63674e-06
-5.09593e-09
6.64012e-06
-3.38146e-09
6.64162e-06
-1.50079e-09
6.64087e-06
7.3888e-10
6.63784e-06
3.02246e-09
6.63299e-06
4.85322e-09
6.62666e-06
6.32321e-09
6.61836e-06
8.30238e-09
6.60778e-06
1.0586e-08
6.5952e-06
1.2584e-08
6.58111e-06
1.4096e-08
6.56547e-06
1.56412e-08
6.5478e-06
1.76611e-08
6.52804e-06
1.97672e-08
6.5063e-06
2.17373e-08
6.48283e-06
2.3474e-08
6.45786e-06
2.49754e-08
6.43137e-06
2.65038e-08
6.40323e-06
2.81554e-08
6.37338e-06
2.9863e-08
6.34175e-06
3.16449e-08
6.30839e-06
3.337e-08
6.27353e-06
3.48623e-08
6.23736e-06
3.61625e-08
6.1997e-06
3.76458e-08
6.16035e-06
3.93238e-08
6.11934e-06
4.09872e-08
6.07684e-06
4.2471e-08
6.03315e-06
4.36701e-08
5.98844e-06
4.46901e-08
5.94244e-06
4.5979e-08
5.89499e-06
4.74374e-08
5.84616e-06
4.88231e-08
5.79632e-06
4.98356e-08
5.74569e-06
5.06283e-08
5.69393e-06
5.17608e-08
5.64094e-06
5.29835e-08
5.58689e-06
5.40423e-08
5.53207e-06
5.48094e-08
5.47659e-06
5.54759e-08
5.42011e-06
5.64699e-08
5.3627e-06
5.73994e-08
5.30465e-06
5.80373e-08
5.2461e-06
5.85469e-08
5.18686e-06
5.92269e-08
5.12694e-06
5.99268e-08
5.06644e-06
6.05068e-08
5.00541e-06
6.10337e-08
4.94407e-06
6.13549e-08
4.88239e-06
6.16883e-08
4.82026e-06
6.21435e-08
4.75771e-06
6.25676e-08
4.69481e-06
6.29178e-08
4.63163e-06
6.31932e-08
4.56839e-06
6.32566e-08
4.5051e-06
6.33028e-08
4.44164e-06
6.34706e-08
4.37803e-06
6.36175e-08
4.31442e-06
6.36125e-08
4.25085e-06
6.35682e-08
4.18723e-06
6.36275e-08
4.12355e-06
6.36772e-08
4.05985e-06
6.36915e-08
3.99627e-06
6.35766e-08
3.93297e-06
6.32959e-08
3.86992e-06
6.30418e-08
3.80702e-06
6.2896e-08
3.74424e-06
6.27786e-08
3.68156e-06
6.26719e-08
3.61912e-06
6.24364e-08
3.55696e-06
6.21534e-08
3.49517e-06
6.17799e-08
3.43378e-06
6.13883e-08
3.37252e-06
6.1258e-08
3.31154e-06
6.09738e-08
3.25115e-06
6.03811e-08
3.1913e-06
5.98479e-08
3.13154e-06
5.97586e-08
3.07221e-06
5.93288e-08
3.01343e-06
5.87777e-08
2.95493e-06
5.849e-08
2.8968e-06
5.81315e-08
2.83916e-06
5.76397e-08
2.78213e-06
5.70333e-08
2.72563e-06
5.6498e-08
2.66972e-06
5.59046e-08
2.61421e-06
5.55146e-08
2.55916e-06
5.5044e-08
2.50453e-06
5.46348e-08
2.45047e-06
5.40555e-08
2.39687e-06
5.36025e-08
2.3441e-06
5.27621e-08
2.29173e-06
5.2374e-08
2.23986e-06
5.18644e-08
2.18847e-06
5.13831e-08
2.1377e-06
5.0768e-08
2.08771e-06
4.99917e-08
2.03804e-06
4.9663e-08
1.98927e-06
4.87686e-08
1.94095e-06
4.83229e-08
1.89332e-06
4.76228e-08
1.84677e-06
4.65498e-08
1.80111e-06
4.56624e-08
1.75485e-06
4.62571e-08
1.71018e-06
4.46618e-08
1.66488e-06
4.53022e-08
1.6201e-06
4.47713e-08
1.58125e-06
3.88557e-08
1.54252e-06
3.87277e-08
1.49888e-06
4.36379e-08
1.46147e-06
3.74076e-08
1.41198e-06
4.94944e-08
1.35468e-06
5.72968e-08
1.27502e-06
7.96541e-08
1.19285e-06
8.21756e-08
1.13141e-06
6.1439e-08
1.07334e-06
5.80671e-08
1.02295e-06
5.03883e-08
9.75139e-07
4.7808e-08
9.29846e-07
4.52912e-08
8.8498e-07
4.48649e-08
8.41593e-07
4.33859e-08
7.99378e-07
4.22135e-08
7.59134e-07
4.0243e-08
7.19143e-07
3.99898e-08
6.86976e-07
3.21667e-08
6.54791e-07
3.21838e-08
6.13937e-07
4.08531e-08
5.80505e-07
3.34315e-08
5.357e-07
4.4805e-08
4.80024e-07
5.56765e-08
4.04591e-07
7.54325e-08
3.3059e-07
7.40021e-08
2.77426e-07
5.31638e-08
2.26109e-07
5.1318e-08
1.83249e-07
4.28605e-08
1.42021e-07
4.12279e-08
1.04279e-07
3.77427e-08
6.79211e-08
3.63575e-08
3.53893e-08
3.25314e-08
3.35604e-09
3.20328e-08
-2.518e-08
2.85356e-08
-5.36747e-08
2.84943e-08
-8.0926e-08
2.7251e-08
-1.09595e-07
2.86689e-08
-1.34465e-07
2.48696e-08
-1.57652e-07
2.31861e-08
-1.72117e-07
1.44634e-08
-1.92528e-07
2.04106e-08
-2.19474e-07
2.69456e-08
-2.72416e-07
5.29413e-08
-3.56342e-07
8.39247e-08
-4.52887e-07
9.65441e-08
-5.37386e-07
8.44978e-08
-6.11457e-07
7.40667e-08
-6.80697e-07
6.9237e-08
-7.36484e-07
5.57833e-08
-7.87815e-07
5.13288e-08
-8.35724e-07
4.79061e-08
-8.81491e-07
4.57644e-08
-9.2563e-07
4.41366e-08
-9.68506e-07
4.28732e-08
-1.0104e-06
4.1895e-08
-1.05151e-06
4.11024e-08
-1.09186e-06
4.03453e-08
-1.13149e-06
3.9632e-08
-1.17052e-06
3.90318e-08
-1.2091e-06
3.85746e-08
-1.24729e-06
3.81836e-08
-1.28504e-06
3.77535e-08
-1.32229e-06
3.72504e-08
-1.359e-06
3.67016e-08
-1.39517e-06
3.61695e-08
-1.43086e-06
3.56895e-08
-1.46614e-06
3.52766e-08
-1.50101e-06
3.48722e-08
-1.53549e-06
3.447e-08
-1.56953e-06
3.40367e-08
-1.60292e-06
3.33892e-08
-1.63588e-06
3.29598e-08
-1.66836e-06
3.24764e-08
-1.70026e-06
3.18978e-08
-1.73155e-06
3.12873e-08
-1.76216e-06
3.06114e-08
-1.79203e-06
2.98735e-08
-1.82117e-06
2.91352e-08
-1.84962e-06
2.84444e-08
-1.87745e-06
2.78274e-08
-1.90472e-06
2.7276e-08
-1.93159e-06
2.68646e-08
-1.95823e-06
2.66388e-08
-1.98443e-06
2.61973e-08
-2.01035e-06
2.59128e-08
-2.03607e-06
2.57186e-08
-2.06164e-06
2.55698e-08
-2.08712e-06
2.54765e-08
-2.11253e-06
2.5416e-08
-2.13787e-06
2.53301e-08
-2.16304e-06
2.51709e-08
-2.18797e-06
2.49328e-08
-2.21256e-06
2.45865e-08
-2.23673e-06
2.41691e-08
-2.26043e-06
2.3695e-08
-2.28364e-06
2.32091e-08
-2.30641e-06
2.27733e-08
-2.32891e-06
2.24934e-08
-2.35136e-06
2.24477e-08
-2.37393e-06
2.25727e-08
-2.39656e-06
2.26223e-08
-2.41894e-06
2.23798e-08
-2.44075e-06
2.18072e-08
-2.462e-06
2.12544e-08
-2.48325e-06
2.12447e-08
-2.50497e-06
2.17139e-08
-2.52724e-06
2.22721e-08
-2.54964e-06
2.23985e-08
-2.57128e-06
2.16377e-08
-2.59221e-06
2.09283e-08
-2.61323e-06
2.10147e-08
-2.63483e-06
2.15999e-08
-2.65662e-06
2.17918e-08
-2.67743e-06
2.08121e-08
-2.69732e-06
1.9883e-08
-2.71726e-06
1.99417e-08
-2.7376e-06
2.03358e-08
-2.75749e-06
1.98838e-08
-2.7765e-06
1.90115e-08
-2.79567e-06
1.9166e-08
-2.81595e-06
2.02778e-08
-2.83678e-06
2.08341e-08
-2.85764e-06
2.08497e-08
-2.87941e-06
2.17689e-08
-2.90321e-06
2.38068e-08
2.88285e-08
0.000100546
9.84823e-07
0.000100989
7.43798e-07
0.000105034
-4.54678e-06
0.000115844
-1.91371e-05
0.000124416
-2.51079e-05
0.000128703
-2.32336e-05
0.000126885
-1.37725e-05
0.00012273
2.76895e-07
0.000120248
1.13724e-05
0.000118121
1.55028e-05
0.000115397
1.52298e-05
0.00011194
1.27909e-05
0.0001084
9.96447e-06
0.00010522
7.76449e-06
0.000102472
6.07406e-06
0.000100125
4.77896e-06
9.8054e-05
4.19001e-06
9.61764e-05
4.0943e-06
9.44751e-05
3.87546e-06
9.29357e-05
3.3925e-06
9.14576e-05
2.8861e-06
9.00019e-05
2.5757e-06
8.85636e-05
2.57638e-06
8.72319e-05
2.57895e-06
8.60102e-05
2.77774e-06
8.47249e-05
3.09182e-06
8.31862e-05
3.27899e-06
8.15415e-05
3.02703e-06
8.00125e-05
2.60726e-06
7.87931e-05
2.36389e-06
7.76833e-05
2.68356e-06
7.64677e-05
2.84629e-06
7.51844e-05
2.53107e-06
7.39336e-05
2.10842e-06
7.27549e-05
2.07876e-06
7.15341e-05
2.66892e-06
7.01621e-05
3.34781e-06
6.87332e-05
3.18442e-06
6.74489e-05
2.47451e-06
6.63237e-05
1.87825e-06
6.52439e-05
1.91974e-06
6.40567e-05
2.56225e-06
6.26044e-05
3.09083e-06
6.10297e-05
3.11231e-06
5.96173e-05
2.66168e-06
5.83746e-05
2.21273e-06
5.7232e-05
2.09205e-06
5.60251e-05
2.36603e-06
5.46994e-05
2.62931e-06
5.34845e-05
2.38582e-06
5.23757e-05
2.13037e-06
5.11195e-05
2.3863e-06
4.96745e-05
2.8517e-06
4.82266e-05
3.16283e-06
4.68972e-05
3.14292e-06
4.5697e-05
2.64916e-06
4.44453e-05
2.33839e-06
4.29896e-05
2.54785e-06
4.13855e-05
2.97267e-06
3.99098e-05
2.82544e-06
3.8767e-05
2.09661e-06
3.78823e-05
1.31206e-06
3.70604e-05
8.1739e-07
3.60286e-05
9.46548e-07
3.48379e-05
1.17338e-06
3.37011e-05
1.01827e-06
3.27757e-05
4.30108e-07
3.20951e-05
-4.48305e-07
3.16236e-05
-1.30635e-06
3.13961e-05
-2.08466e-06
3.14928e-05
-2.70443e-06
3.19045e-05
-3.09666e-06
3.26745e-05
-3.13067e-06
3.38016e-05
-2.5755e-06
3.53525e-05
-1.17934e-06
3.79162e-05
1.37715e-06
4.11143e-05
4.50788e-06
4.45701e-05
8.5335e-06
4.37169e-05
1.04088e-05
3.82003e-05
8.99097e-06
2.94328e-05
1.07025e-05
2.1152e-05
8.03823e-06
1.7919e-05
3.87515e-06
1.51849e-05
2.40784e-06
1.4462e-05
4.55998e-07
1.36414e-05
1.43186e-06
1.32789e-05
8.45445e-07
1.36589e-05
-5.38428e-10
1.42307e-05
-4.92811e-07
1.37594e-05
5.10946e-07
1.35107e-05
-5.58361e-09
1.32244e-05
-2.43845e-07
1.30407e-05
-5.42413e-07
1.30056e-05
-1.11542e-06
1.30841e-05
-1.71862e-06
1.32493e-05
-2.10012e-06
1.38108e-05
-2.66001e-06
1.46599e-05
-3.06334e-06
1.64461e-05
-2.65587e-06
1.89189e-05
-2.11598e-06
2.12017e-05
-1.84555e-06
2.24745e-05
-6.32942e-07
2.27842e-05
2.58088e-07
2.28152e-05
6.26273e-07
2.24465e-05
9.35653e-07
2.19316e-05
1.01936e-06
2.1293e-05
1.07449e-06
2.05471e-05
1.22673e-06
1.98288e-05
1.35759e-06
1.92362e-05
1.23679e-06
1.86744e-05
1.23369e-06
1.80732e-05
1.27804e-06
1.7441e-05
1.28661e-06
1.67587e-05
1.28432e-06
1.60274e-05
1.26626e-06
1.53058e-05
1.1554e-06
1.47363e-05
1.14363e-06
1.42625e-05
1.14549e-06
1.38541e-05
1.08835e-06
1.33622e-05
1.16453e-06
1.26938e-05
1.27209e-06
1.19301e-05
1.42043e-06
1.11477e-05
1.51019e-06
1.04711e-05
1.40062e-06
9.76105e-06
1.43183e-06
8.94606e-06
1.56366e-06
8.13402e-06
1.57446e-06
7.3526e-06
1.5652e-06
6.57299e-06
1.58172e-06
5.80659e-06
1.56199e-06
5.024e-06
1.58024e-06
4.22671e-06
1.59908e-06
3.43701e-06
1.57644e-06
2.65382e-06
1.56369e-06
1.87733e-06
1.54941e-06
1.1182e-06
1.52245e-06
3.79569e-07
1.48737e-06
-3.46945e-07
1.45693e-06
-1.05615e-06
1.421e-06
-1.74594e-06
1.37785e-06
-2.41928e-06
1.3376e-06
-3.0745e-06
1.29895e-06
-3.70826e-06
1.26472e-06
-4.31903e-06
1.22307e-06
-4.90879e-06
1.17968e-06
-5.48391e-06
1.14145e-06
-6.04584e-06
1.11519e-06
-6.59148e-06
1.08755e-06
-7.11709e-06
1.05355e-06
-7.62152e-06
1.01345e-06
-8.11082e-06
9.74709e-07
-8.58829e-06
9.48106e-07
-9.05386e-06
9.25195e-07
-9.50537e-06
8.99575e-07
-9.93729e-06
8.66451e-07
-1.03523e-05
8.33288e-07
-1.07551e-05
8.02756e-07
-1.11471e-05
7.79885e-07
-1.15264e-05
7.57221e-07
-1.18914e-05
7.28995e-07
-1.22404e-05
6.95158e-07
-1.25749e-05
6.66376e-07
-1.28969e-05
6.43305e-07
-1.32064e-05
6.19606e-07
-1.35011e-05
5.88125e-07
-1.37793e-05
5.54405e-07
-1.40448e-05
5.29105e-07
-1.42993e-05
5.09074e-07
-1.45402e-05
4.83084e-07
-1.47654e-05
4.49183e-07
-1.49751e-05
4.17363e-07
-1.51722e-05
3.92674e-07
-1.5358e-05
3.71417e-07
-1.55305e-05
3.46882e-07
-1.56893e-05
3.18858e-07
-1.58338e-05
2.87055e-07
-1.59647e-05
2.59609e-07
-1.6084e-05
2.3771e-07
-1.61903e-05
2.13828e-07
-1.6282e-05
1.86408e-07
-1.63621e-05
1.61486e-07
-1.64319e-05
1.3741e-07
-1.64909e-05
1.16192e-07
-1.65377e-05
9.50435e-08
-1.65711e-05
6.94204e-08
-1.65907e-05
3.84631e-08
-1.65982e-05
1.32104e-08
-1.65944e-05
-6.29597e-09
-1.65797e-05
-2.67405e-08
-1.65549e-05
-4.77124e-08
-1.65209e-05
-6.82386e-08
-1.64763e-05
-9.08482e-08
-1.64208e-05
-1.12023e-07
-1.6353e-05
-1.3508e-07
-1.62723e-05
-1.59598e-07
-1.61807e-05
-1.80711e-07
-1.60799e-05
-1.98491e-07
-1.59712e-05
-2.162e-07
-1.58531e-05
-2.35839e-07
-1.5723e-05
-2.60557e-07
-1.55809e-05
-2.84853e-07
-1.54295e-05
-3.03088e-07
-1.52705e-05
-3.16564e-07
-1.51022e-05
-3.33407e-07
-1.4923e-05
-3.54498e-07
-1.4733e-05
-3.7709e-07
-1.45339e-05
-3.98891e-07
-1.43265e-05
-4.16762e-07
-1.4111e-05
-4.31442e-07
-1.38859e-05
-4.47798e-07
-1.36501e-05
-4.68558e-07
-1.34044e-05
-4.90648e-07
-1.31515e-05
-5.072e-07
-1.28927e-05
-5.17422e-07
-1.26258e-05
-5.30209e-07
-1.23494e-05
-5.51028e-07
-1.20634e-05
-5.71553e-07
-1.17689e-05
-5.90235e-07
-1.14671e-05
-6.06373e-07
-1.11598e-05
-6.14043e-07
-1.08487e-05
-6.17879e-07
-1.05324e-05
-6.29913e-07
-1.02086e-05
-6.47256e-07
-9.8763e-06
-6.66467e-07
-9.53958e-06
-6.77926e-07
-9.19944e-06
-6.82527e-07
-8.85651e-06
-6.82557e-07
-8.51085e-06
-6.88372e-07
-8.16309e-06
-6.96273e-07
-7.81238e-06
-7.02133e-07
-7.45977e-06
-7.07806e-07
-7.10554e-06
-7.13143e-07
-6.75132e-06
-7.085e-07
-6.39966e-06
-7.00617e-07
-6.04967e-06
-7.00802e-07
-5.70038e-06
-7.00157e-07
-5.35131e-06
-6.98708e-07
-5.00357e-06
-6.96421e-07
-4.65919e-06
-6.8831e-07
-4.32026e-06
-6.76717e-07
-3.98796e-06
-6.67061e-07
-3.66096e-06
-6.59211e-07
-3.33722e-06
-6.49616e-07
-3.01775e-06
-6.36541e-07
-2.70247e-06
-6.27751e-07
-2.3932e-06
-6.18772e-07
-2.08923e-06
-6.11368e-07
-1.79113e-06
-5.96657e-07
-1.50089e-06
-5.77777e-07
-1.21873e-06
-5.64211e-07
-9.40866e-07
-5.57248e-07
-6.67833e-07
-5.46646e-07
-4.02372e-07
-5.30475e-07
-1.44851e-07
-5.15788e-07
1.06607e-07
-5.04121e-07
3.52957e-07
-4.90244e-07
5.94081e-07
-4.79237e-07
8.28865e-07
-4.67736e-07
1.05693e-06
-4.5504e-07
1.27759e-06
-4.42688e-07
1.49151e-06
-4.29108e-07
1.70187e-06
-4.18964e-07
1.90873e-06
-4.11229e-07
2.11033e-06
-4.02092e-07
2.30651e-06
-3.92646e-07
2.49629e-06
-3.79974e-07
2.67986e-06
-3.66562e-07
2.85829e-06
-3.54946e-07
3.03219e-06
-3.45968e-07
3.20266e-06
-3.40216e-07
3.36873e-06
-3.32645e-07
3.52945e-06
-3.2258e-07
3.68485e-06
-3.10991e-07
3.83538e-06
-2.99226e-07
3.98117e-06
-2.89904e-07
4.12215e-06
-2.81564e-07
4.25801e-06
-2.72653e-07
4.38948e-06
-2.63265e-07
4.51699e-06
-2.54442e-07
4.6404e-06
-2.46686e-07
4.7595e-06
-2.38669e-07
4.87348e-06
-2.27794e-07
4.98213e-06
-2.16555e-07
5.08673e-06
-2.0868e-07
5.1879e-06
-2.01971e-07
5.28524e-06
-1.95009e-07
5.37818e-06
-1.86795e-07
5.46682e-06
-1.78167e-07
5.55153e-06
-1.69337e-07
5.63224e-06
-1.60599e-07
5.70927e-06
-1.53459e-07
5.78275e-06
-1.46878e-07
5.85249e-06
-1.40403e-07
5.91863e-06
-1.33379e-07
5.98122e-06
-1.25283e-07
6.04065e-06
-1.1815e-07
6.09696e-06
-1.12139e-07
6.14961e-06
-1.05387e-07
6.19865e-06
-9.90496e-08
6.24511e-06
-9.35554e-08
6.28911e-06
-8.74688e-08
6.33025e-06
-8.15915e-08
6.36819e-06
-7.57934e-08
6.40298e-06
-7.02526e-08
6.43547e-06
-6.54125e-08
6.46577e-06
-6.0091e-08
6.49342e-06
-5.48164e-08
6.51846e-06
-5.03169e-08
6.54116e-06
-4.59957e-08
6.56141e-06
-4.07774e-08
6.57948e-06
-3.59444e-08
6.59533e-06
-3.12715e-08
6.60874e-06
-2.69459e-08
6.62009e-06
-2.31905e-08
6.62954e-06
-1.90418e-08
6.63693e-06
-1.45365e-08
6.64218e-06
-1.03415e-08
6.64525e-06
-6.45545e-09
6.64631e-06
-2.57032e-09
6.64548e-06
1.57379e-09
6.64278e-06
5.72563e-09
6.63817e-06
9.47286e-09
6.63156e-06
1.29434e-08
6.62283e-06
1.70375e-08
6.61222e-06
2.1206e-08
6.59987e-06
2.49317e-08
6.58577e-06
2.81967e-08
6.56981e-06
3.16041e-08
6.55189e-06
3.55843e-08
6.53208e-06
3.95861e-08
6.51053e-06
4.32976e-08
6.48729e-06
4.67432e-08
6.46229e-06
5.00004e-08
6.43559e-06
5.32319e-08
6.40721e-06
5.65655e-08
6.37722e-06
5.98721e-08
6.34557e-06
6.331e-08
6.31225e-06
6.6686e-08
6.27732e-06
6.97788e-08
6.24082e-06
7.26387e-08
6.20283e-06
7.55999e-08
6.16337e-06
7.87441e-08
6.12238e-06
8.19378e-08
6.08e-06
8.48144e-08
6.03634e-06
8.73034e-08
5.99137e-06
8.96328e-08
5.94507e-06
9.22608e-08
5.8975e-06
9.49962e-08
5.84877e-06
9.75478e-08
5.79891e-06
9.96881e-08
5.74796e-06
1.0158e-07
5.69589e-06
1.03814e-07
5.64283e-06
1.06032e-07
5.58883e-06
1.08034e-07
5.53388e-06
1.09745e-07
5.47806e-06
1.11271e-07
5.42146e-06
1.13051e-07
5.36415e-06
1.14699e-07
5.30608e-06
1.16098e-07
5.24722e-06
1.17411e-07
5.18762e-06
1.18824e-07
5.1276e-06
1.19962e-07
5.06715e-06
1.20969e-07
5.00612e-06
1.22078e-07
4.94463e-06
1.22869e-07
4.88269e-06
1.23657e-07
4.82036e-06
1.24501e-07
4.75778e-06
1.25174e-07
4.69492e-06
1.25804e-07
4.63177e-06
1.26367e-07
4.56845e-06
1.26603e-07
4.50499e-06
1.26776e-07
4.44145e-06
1.27029e-07
4.37775e-06
1.27324e-07
4.31396e-06
1.27409e-07
4.25013e-06
1.27397e-07
4.18634e-06
1.27416e-07
4.12268e-06
1.27335e-07
4.05908e-06
1.27288e-07
3.9955e-06
1.27147e-07
3.93203e-06
1.26755e-07
3.86876e-06
1.26298e-07
3.8057e-06
1.2595e-07
3.74279e-06
1.2568e-07
3.68001e-06
1.25439e-07
3.61758e-06
1.2485e-07
3.55546e-06
1.24269e-07
3.49359e-06
1.23635e-07
3.43205e-06
1.22928e-07
3.37085e-06
1.22447e-07
3.31002e-06
1.21794e-07
3.24955e-06
1.20846e-07
3.1894e-06
1.19997e-07
3.12957e-06
1.19583e-07
3.07023e-06
1.18661e-07
3.01135e-06
1.17653e-07
2.95291e-06
1.16931e-07
2.89492e-06
1.16117e-07
2.83731e-06
1.15255e-07
2.7802e-06
1.14133e-07
2.72359e-06
1.13114e-07
2.66752e-06
1.11973e-07
2.61192e-06
1.11114e-07
2.55689e-06
1.10069e-07
2.50234e-06
1.09185e-07
2.4484e-06
1.07988e-07
2.3949e-06
1.07107e-07
2.34213e-06
1.05522e-07
2.28981e-06
1.04698e-07
2.23792e-06
1.03753e-07
2.18654e-06
1.0275e-07
2.13562e-06
1.01688e-07
2.0855e-06
1.00112e-07
2.03594e-06
9.9217e-08
1.98764e-06
9.70663e-08
1.93996e-06
9.59923e-08
1.89174e-06
9.58367e-08
1.84446e-06
9.38338e-08
1.79643e-06
9.36854e-08
1.74997e-06
9.27153e-08
1.70904e-06
8.55912e-08
1.66866e-06
8.56711e-08
1.62431e-06
8.91276e-08
1.58053e-06
8.26308e-08
1.52378e-06
9.5474e-08
1.46216e-06
1.0526e-07
1.38083e-06
1.18727e-07
1.30177e-06
1.28559e-07
1.24057e-06
1.18497e-07
1.18862e-06
1.31594e-07
1.14843e-06
1.22369e-07
1.10211e-06
1.07757e-07
1.05796e-06
1.02211e-07
1.01087e-06
9.74793e-08
9.6557e-07
9.31055e-08
9.19082e-07
9.17772e-08
8.75082e-07
8.88633e-08
8.32853e-07
8.56127e-08
7.98242e-07
7.68223e-08
7.63847e-07
7.46371e-08
7.19271e-07
8.45642e-08
6.759e-07
7.55364e-08
6.21125e-07
8.69581e-08
5.62431e-07
9.95466e-08
4.83347e-07
1.12515e-07
4.10189e-07
1.17963e-07
3.57866e-07
1.08001e-07
3.16357e-07
1.16942e-07
2.82383e-07
1.07977e-07
2.41778e-07
9.377e-08
2.03535e-07
8.95616e-08
1.65486e-07
8.09105e-08
1.29041e-07
7.76728e-08
9.45727e-08
7.22108e-08
6.18452e-08
6.90846e-08
3.01403e-08
6.42356e-08
-5.41222e-10
6.27137e-08
-3.39246e-08
6.19184e-08
-6.16593e-08
5.62283e-08
-8.85923e-08
5.41831e-08
-1.07045e-07
4.71206e-08
-1.30267e-07
4.80898e-08
-1.622e-07
5.51181e-08
-2.2038e-07
7.26417e-08
-3.13409e-07
1.13438e-07
-3.96224e-07
1.09759e-07
-4.91336e-07
1.48051e-07
-5.57678e-07
1.50263e-07
-6.30452e-07
1.69314e-07
-6.74826e-07
1.28867e-07
-7.11082e-07
1.10318e-07
-7.48652e-07
1.06802e-07
-7.89758e-07
9.68857e-08
-8.31214e-07
9.27804e-08
-8.72997e-07
8.96849e-08
-9.14821e-07
8.7585e-08
-9.56384e-07
8.56958e-08
-9.97522e-07
8.40066e-08
-1.03821e-06
8.25821e-08
-1.0784e-06
8.12826e-08
-1.11798e-06
7.99216e-08
-1.15695e-06
7.86035e-08
-1.19539e-06
7.74699e-08
-1.23331e-06
7.64839e-08
-1.27064e-06
7.55167e-08
-1.30738e-06
7.44866e-08
-1.34349e-06
7.33579e-08
-1.37913e-06
7.2333e-08
-1.41431e-06
7.13487e-08
-1.44911e-06
7.04851e-08
-1.48357e-06
6.97323e-08
-1.5177e-06
6.89962e-08
-1.55145e-06
6.82157e-08
-1.58474e-06
6.73273e-08
-1.61782e-06
6.64618e-08
-1.65031e-06
6.54453e-08
-1.6822e-06
6.43665e-08
-1.71364e-06
6.33346e-08
-1.74462e-06
6.22684e-08
-1.77508e-06
6.10644e-08
-1.80497e-06
5.97575e-08
-1.83432e-06
5.84869e-08
-1.8632e-06
5.73174e-08
-1.89163e-06
5.62576e-08
-1.91959e-06
5.52316e-08
-1.947e-06
5.42708e-08
-1.97374e-06
5.33746e-08
-2.00036e-06
5.28102e-08
-2.02668e-06
5.22322e-08
-2.0527e-06
5.17368e-08
-2.0785e-06
5.1359e-08
-2.1041e-06
5.10786e-08
-2.12951e-06
5.08232e-08
-2.15469e-06
5.05083e-08
-2.1796e-06
5.00725e-08
-2.20418e-06
4.95071e-08
-2.22843e-06
4.88385e-08
-2.25236e-06
4.80941e-08
-2.27595e-06
4.72785e-08
-2.29916e-06
4.64163e-08
-2.32201e-06
4.56238e-08
-2.34458e-06
4.50601e-08
-2.36702e-06
4.48823e-08
-2.38943e-06
4.49739e-08
-2.41175e-06
4.49426e-08
-2.43382e-06
4.44425e-08
-2.45558e-06
4.35657e-08
-2.47723e-06
4.29044e-08
-2.49895e-06
4.29641e-08
-2.52105e-06
4.38079e-08
-2.54316e-06
4.43798e-08
-2.56448e-06
4.37125e-08
-2.58532e-06
4.24737e-08
-2.6063e-06
4.19041e-08
-2.62774e-06
4.2452e-08
-2.64923e-06
4.30921e-08
-2.66995e-06
4.25137e-08
-2.69004e-06
4.08947e-08
-2.71041e-06
4.0249e-08
-2.73117e-06
4.06983e-08
-2.75164e-06
4.08044e-08
-2.77142e-06
3.96665e-08
-2.79149e-06
3.90789e-08
-2.81224e-06
3.99162e-08
-2.83299e-06
4.10275e-08
-2.85343e-06
4.12728e-08
-2.87346e-06
4.08704e-08
-2.89269e-06
4.1002e-08
-2.912e-06
4.31111e-08
4.88744e-08
0.000100285
1.45787e-06
0.000100328
7.0065e-07
0.000101857
-6.07635e-06
0.000102021
-1.93009e-05
9.95774e-05
-2.26645e-05
9.54789e-05
-1.91352e-05
8.85072e-05
-6.8008e-06
8.56468e-05
3.1373e-06
8.8064e-05
8.95515e-06
9.21878e-05
1.1379e-05
9.58555e-05
1.15622e-05
9.80325e-05
1.0614e-05
9.87062e-05
9.29074e-06
9.84549e-05
8.01589e-06
9.76377e-05
6.89125e-06
9.64839e-05
5.93289e-06
9.52181e-05
5.45584e-06
9.40348e-05
5.27756e-06
9.29553e-05
4.95502e-06
9.18233e-05
4.52451e-06
9.04738e-05
4.23567e-06
8.89476e-05
4.10183e-06
8.75062e-05
4.01785e-06
8.62611e-05
3.82405e-06
8.53165e-05
3.72222e-06
8.43976e-05
4.01074e-06
8.30968e-05
4.57978e-06
8.13916e-05
4.73217e-06
7.97303e-05
4.26858e-06
7.84231e-05
3.67103e-06
7.75204e-05
3.58631e-06
7.65852e-05
3.78139e-06
7.53021e-05
3.81418e-06
7.38296e-05
3.58093e-06
7.25251e-05
3.3832e-06
7.14886e-05
3.70534e-06
7.0564e-05
4.27238e-06
6.94582e-05
4.29028e-06
6.80868e-05
3.84587e-06
6.66449e-05
3.32006e-06
6.52918e-05
3.27282e-06
6.40891e-05
3.76495e-06
6.27888e-05
4.3911e-06
6.13236e-05
4.57747e-06
5.98177e-05
4.16748e-06
5.83082e-05
3.72225e-06
5.68663e-05
3.53397e-06
5.55794e-05
3.65287e-06
5.43714e-05
3.83731e-06
5.31227e-05
3.63455e-06
5.18476e-05
3.40542e-06
5.06265e-05
3.60739e-06
4.93868e-05
4.09138e-06
4.82417e-05
4.30786e-06
4.72454e-05
4.13913e-06
4.60359e-05
3.85857e-06
4.45517e-05
3.82262e-06
4.29258e-05
4.17364e-06
4.13903e-05
4.50812e-06
4.01042e-05
4.11144e-06
3.89346e-05
3.2662e-06
3.77334e-05
2.51316e-06
3.64105e-05
2.14022e-06
3.50247e-05
2.33224e-06
3.37179e-05
2.48017e-06
3.25361e-05
2.19991e-06
3.12382e-05
1.72797e-06
2.9621e-05
1.16878e-06
2.78345e-05
4.80102e-07
2.61378e-05
-3.88048e-07
2.46188e-05
-1.18554e-06
2.32528e-05
-1.73077e-06
2.2034e-05
-1.91196e-06
2.09885e-05
-1.5302e-06
2.05614e-05
-7.52318e-07
2.15967e-05
3.41723e-07
2.44828e-05
1.62166e-06
2.96544e-05
3.36178e-06
3.51366e-05
4.92658e-06
3.86852e-05
5.44226e-06
4.1151e-05
8.23672e-06
3.99994e-05
9.18976e-06
3.57802e-05
8.09428e-06
2.78878e-05
1.03002e-05
2.0237e-05
8.10673e-06
1.73576e-05
4.31128e-06
1.44392e-05
3.76383e-06
1.30975e-05
1.34117e-06
1.2468e-05
1.3665e-07
1.23395e-05
6.39509e-07
1.27064e-05
-3.72524e-07
1.30602e-05
-5.97647e-07
1.25341e-05
-1.62089e-08
1.19935e-05