/*--------------------------------*- C++ -*----------------------------------*\
| =========                 |                                                 |
| \\      /  F ield         | OpenFOAM: The Open Source CFD Toolbox           |
|  \\    /   O peration     | Version:  v2006                                 |
|   \\  /    A nd           | Website:  www.openfoam.com                      |
|    \\/     M anipulation  |                                                 |
\*---------------------------------------------------------------------------*/
FoamFile
{
    version     2.0;
    format      ascii;
    class       volVectorField;
    location    "4.5";
    object      U;
}
// * * * * * * * * * * * * * * * * * * * * * * * * * * * * * * * * * * * * * //

dimensions      [0 1 -1 0 0 0 0];


internalField   nonuniform List<vector> 
33000
(
(0.241326 0 0.00253875)
(0.245564 0 0.00452209)
(0.246929 0 0.00329963)
(0.251532 0 -0.0135801)
(0.283784 0 -0.0517403)
(0.332236 0 -0.0686201)
(0.384336 0 -0.0558602)
(0.412601 0 -0.0176457)
(0.400975 0 0.0228949)
(0.36727 0 0.0426014)
(0.332169 0 0.0392422)
(0.304662 0 0.0273418)
(0.285927 0 0.0177483)
(0.272801 0 0.0118419)
(0.263251 0 0.00809234)
(0.256242 0 0.00555826)
(0.251099 0 0.00482993)
(0.245688 0 0.00532888)
(0.239912 0 0.00532142)
(0.234687 0 0.00445928)
(0.230768 0 0.00315484)
(0.227754 0 0.00238912)
(0.22504 0 0.00237837)
(0.221986 0 0.00271915)
(0.218723 0 0.00369532)
(0.214565 0 0.00429251)
(0.209651 0 0.00383658)
(0.20559 0 0.00290578)
(0.202661 0 0.00196665)
(0.200346 0 0.00240632)
(0.197086 0 0.0036812)
(0.192589 0 0.00386203)
(0.188667 0 0.00278441)
(0.186202 0 0.00156389)
(0.184406 0 0.0016836)
(0.181808 0 0.00308627)
(0.177377 0 0.00450879)
(0.171962 0 0.004053)
(0.168242 0 0.00265248)
(0.1661 0 0.00133918)
(0.164471 0 0.00165834)
(0.161902 0 0.00288246)
(0.157844 0 0.00355806)
(0.153578 0 0.00329323)
(0.149987 0 0.00251737)
(0.147364 0 0.00186094)
(0.145148 0 0.00191814)
(0.142649 0 0.00234967)
(0.139502 0 0.00271306)
(0.136208 0 0.00253039)
(0.133373 0 0.00217928)
(0.130988 0 0.00229285)
(0.127932 0 0.00287691)
(0.123985 0 0.0036667)
(0.119291 0 0.00403166)
(0.115048 0 0.00322773)
(0.111933 0 0.00222392)
(0.109535 0 0.00189322)
(0.106496 0 0.00248306)
(0.102798 0 0.00255968)
(0.099675 0 0.00177853)
(0.097973 0 0.000560402)
(0.0975223 0 -0.000674858)
(0.0978978 0 -0.00131983)
(0.0981451 0 -0.00145161)
(0.0980739 0 -0.00189848)
(0.0986769 0 -0.00292955)
(0.100676 0 -0.00481103)
(0.104294 0 -0.00686524)
(0.10955 0 -0.00850283)
(0.115797 0 -0.00914435)
(0.122254 0 -0.00897748)
(0.128614 0 -0.00736269)
(0.133703 0 -0.00342651)
(0.135698 0 0.00407063)
(0.132803 0 0.0164031)
(0.116205 0 0.0275836)
(0.100481 0 0.0370306)
(0.0505483 0 0.0167864)
(0.0512751 0 -0.00429927)
(0.0353603 0 -0.00806263)
(0.0401565 0 -0.00981259)
(0.0371099 0 0.00235022)
(0.0368456 0 0.00135312)
(0.0388132 0 0.00341686)
(0.0379384 0 0.00100167)
(0.0360819 0 0.00115057)
(0.0352457 0 -0.000948408)
(0.0344308 0 -0.000864356)
(0.0346043 0 -0.000772264)
(0.034461 0 -0.00107698)
(0.0356964 0 -0.00128934)
(0.0372418 0 -0.00270899)
(0.0392005 0 -0.00386027)
(0.0431648 0 -0.00600778)
(0.0471559 0 -0.00670974)
(0.0531795 0 -0.00717023)
(0.057139 0 -0.00662914)
(0.065009 0 -0.000312314)
(0.06122 0 0.00488308)
(0.0623963 0 0.00488481)
(0.0599993 0 0.00347439)
(0.0588483 0 0.000956571)
(0.0571609 0 -0.000323201)
(0.0556469 0 -0.000520254)
(0.0542768 0 1.38113e-05)
(0.0531044 0 0.00126338)
(0.0521355 0 0.00171729)
(0.0506589 0 0.00198794)
(0.0489937 0 0.00175816)
(0.0473909 0 0.00120712)
(0.0456632 0 0.0011798)
(0.0440046 0 0.00112355)
(0.0423545 0 0.00130949)
(0.0410793 0 0.000878664)
(0.0395124 0 0.000661412)
(0.0392309 0 0.000888349)
(0.036466 0 0.0014772)
(0.035575 0 0.00158511)
(0.033482 0 0.00166615)
(0.032028 0 0.00142501)
(0.0304992 0 0.00121096)
(0.0287512 0 0.00115278)
(0.0268587 0 0.00115686)
(0.0251147 0 0.00152005)
(0.0232684 0 0.00163502)
(0.0213626 0 0.00176077)
(0.0194593 0 0.00154708)
(0.0174448 0 0.00159396)
(0.0154467 0 0.00146947)
(0.013469 0 0.00164303)
(0.0114553 0 0.00159553)
(0.00946351 0 0.00164794)
(0.00751847 0 0.00152565)
(0.00556289 0 0.00153723)
(0.00365233 0 0.00146)
(0.00174662 0 0.00144234)
(-9.36916e-05 0 0.00140862)
(-0.00190657 0 0.00137713)
(-0.0036528 0 0.00134528)
(-0.00534723 0 0.0012802)
(-0.00697343 0 0.00124994)
(-0.00856793 0 0.001221)
(-0.0101262 0 0.00120217)
(-0.0116312 0 0.0011521)
(-0.0130741 0 0.00110537)
(-0.0144649 0 0.00107504)
(-0.0158392 0 0.00105966)
(-0.0171749 0 0.00103483)
(-0.0184787 0 0.00100386)
(-0.0197188 0 0.000948894)
(-0.0209073 0 0.00091978)
(-0.022071 0 0.000897447)
(-0.0232062 0 0.000876651)
(-0.0243102 0 0.000856114)
(-0.0253798 0 0.000826512)
(-0.0264003 0 0.000784146)
(-0.0273808 0 0.000760123)
(-0.0283392 0 0.000742641)
(-0.0292707 0 0.000715475)
(-0.0301584 0 0.000680139)
(-0.0310025 0 0.000652091)
(-0.0318178 0 0.000631453)
(-0.0326093 0 0.000610748)
(-0.0333674 0 0.000576546)
(-0.0340773 0 0.000542237)
(-0.034749 0 0.000517587)
(-0.0353961 0 0.000500248)
(-0.0360218 0 0.000476994)
(-0.0366064 0 0.000439864)
(-0.0371429 0 0.000407411)
(-0.0376448 0 0.000382914)
(-0.0381215 0 0.000364176)
(-0.0385729 0 0.000344386)
(-0.0389942 0 0.000315928)
(-0.0393726 0 0.000278958)
(-0.0397083 0 0.000251503)
(-0.0400164 0 0.00023135)
(-0.0403009 0 0.000211421)
(-0.0405538 0 0.000189153)
(-0.040775 0 0.000161861)
(-0.0409609 0 0.000131476)
(-0.0411143 0 0.000110325)
(-0.0412466 0 9.5265e-05)
(-0.0413565 0 7.25294e-05)
(-0.0414258 0 3.67046e-05)
(-0.0414523 0 9.9558e-06)
(-0.0414554 0 -3.79732e-06)
(-0.0414393 0 -2.08665e-05)
(-0.041396 0 -4.28872e-05)
(-0.041325 0 -6.78056e-05)
(-0.0412245 0 -9.29892e-05)
(-0.0410947 0 -0.000112951)
(-0.0409415 0 -0.000132023)
(-0.0407592 0 -0.000153229)
(-0.040547 0 -0.000172479)
(-0.040314 0 -0.000189517)
(-0.0400579 0 -0.000211158)
(-0.0397772 0 -0.000232218)
(-0.0394684 0 -0.00025671)
(-0.0391258 0 -0.000280724)
(-0.0387548 0 -0.000298952)
(-0.0383677 0 -0.000309517)
(-0.0379667 0 -0.000321945)
(-0.0375422 0 -0.000340895)
(-0.0370903 0 -0.000365343)
(-0.0366063 0 -0.000393407)
(-0.036092 0 -0.000413283)
(-0.0355596 0 -0.000425325)
(-0.0350124 0 -0.000436471)
(-0.0344459 0 -0.000455114)
(-0.0338484 0 -0.000480783)
(-0.0332216 0 -0.000501135)
(-0.0325764 0 -0.000508362)
(-0.031929 0 -0.000514172)
(-0.0312589 0 -0.000538707)
(-0.0305563 0 -0.00056127)
(-0.0298306 0 -0.000582579)
(-0.0290775 0 -0.000601015)
(-0.0283077 0 -0.000601384)
(-0.0275444 0 -0.000598089)
(-0.0267726 0 -0.000614266)
(-0.0259767 0 -0.000636318)
(-0.0251544 0 -0.000658367)
(-0.0243065 0 -0.000673873)
(-0.0234476 0 -0.000673983)
(-0.0225953 0 -0.000664191)
(-0.0217483 0 -0.00067113)
(-0.0208818 0 -0.000686032)
(-0.0200055 0 -0.000691022)
(-0.0191245 0 -0.000699644)
(-0.018229 0 -0.000708578)
(-0.01733 0 -0.000695269)
(-0.0164574 0 -0.00068359)
(-0.0155841 0 -0.000689967)
(-0.0147034 0 -0.000690777)
(-0.013829 0 -0.000688079)
(-0.0129547 0 -0.000685747)
(-0.0120849 0 -0.000674373)
(-0.0112346 0 -0.000660967)
(-0.0103945 0 -0.000659271)
(-0.00956034 0 -0.000657989)
(-0.00873202 0 -0.000644066)
(-0.00793076 0 -0.000622241)
(-0.00714471 0 -0.000611509)
(-0.00636811 0 -0.000608457)
(-0.00559542 0 -0.000607234)
(-0.0048309 0 -0.000586569)
(-0.00410133 0 -0.000562098)
(-0.00339245 0 -0.000555385)
(-0.00268978 0 -0.000551662)
(-0.00199501 0 -0.000538665)
(-0.00132061 0 -0.000520634)
(-0.000669353 0 -0.000508599)
(-2.7698e-05 0 -0.000498432)
(0.000594311 0 -0.00047772)
(0.00119327 0 -0.000465792)
(0.00178553 0 -0.000457218)
(0.00235907 0 -0.000445818)
(0.0029214 0 -0.000437861)
(0.00347018 0 -0.000424588)
(0.00399818 0 -0.000408511)
(0.00451447 0 -0.000399612)
(0.00502072 0 -0.000393531)
(0.00551818 0 -0.000386643)
(0.00600369 0 -0.000375)
(0.00647005 0 -0.000360032)
(0.00691949 0 -0.000345399)
(0.00735338 0 -0.00033685)
(0.00778062 0 -0.000333417)
(0.00820272 0 -0.000328078)
(0.00861391 0 -0.000319035)
(0.00901258 0 -0.000305377)
(0.00939193 0 -0.000290383)
(0.00975667 0 -0.000282483)
(0.0101125 0 -0.000276805)
(0.0104599 0 -0.000269732)
(0.0107964 0 -0.000258861)
(0.011119 0 -0.000248562)
(0.0114311 0 -0.000242192)
(0.0117355 0 -0.000235306)
(0.0120288 0 -0.000223065)
(0.0123042 0 -0.000211203)
(0.0125685 0 -0.000204146)
(0.0128242 0 -0.000197864)
(0.0130723 0 -0.000192075)
(0.013312 0 -0.000184661)
(0.0135412 0 -0.000175959)
(0.0137593 0 -0.000165938)
(0.013964 0 -0.000156234)
(0.0141587 0 -0.000149622)
(0.0143459 0 -0.000144083)
(0.0145256 0 -0.000139173)
(0.0146989 0 -0.00013259)
(0.0148616 0 -0.000123122)
(0.0150121 0 -0.000114644)
(0.0151553 0 -0.000109145)
(0.0152911 0 -0.000103617)
(0.0154191 0 -9.90154e-05)
(0.0155414 0 -9.30385e-05)
(0.0156546 0 -8.48961e-05)
(0.0157592 0 -7.89123e-05)
(0.0158572 0 -7.42685e-05)
(0.0159487 0 -7.0254e-05)
(0.0160349 0 -6.51448e-05)
(0.0161135 0 -5.81056e-05)
(0.0161843 0 -5.2889e-05)
(0.0162495 0 -4.9776e-05)
(0.0163111 0 -4.62772e-05)
(0.0163661 0 -4.06788e-05)
(0.0164141 0 -3.49861e-05)
(0.0164557 0 -2.98745e-05)
(0.0164915 0 -2.66684e-05)
(0.0165235 0 -2.36125e-05)
(0.0165507 0 -1.89396e-05)
(0.0165716 0 -1.36952e-05)
(0.0165865 0 -9.78332e-06)
(0.0165971 0 -6.84667e-06)
(0.0166035 0 -3.24176e-06)
(0.0166045 0 1.45921e-06)
(0.0165998 0 6.37671e-06)
(0.0165894 0 9.83721e-06)
(0.0165755 0 1.22415e-05)
(0.0165577 0 1.60226e-05)
(0.016534 0 2.08781e-05)
(0.0165048 0 2.50572e-05)
(0.0164711 0 2.78204e-05)
(0.0164343 0 3.06036e-05)
(0.0163929 0 3.46184e-05)
(0.016346 0 3.8876e-05)
(0.0162941 0 4.29361e-05)
(0.0162374 0 4.6345e-05)
(0.0161767 0 4.90779e-05)
(0.0161125 0 5.19963e-05)
(0.0160442 0 5.52249e-05)
(0.0159718 0 5.86687e-05)
(0.015895 0 6.22404e-05)
(0.0158137 0 6.56724e-05)
(0.0157282 0 6.84861e-05)
(0.0156394 0 7.08213e-05)
(0.0155473 0 7.37965e-05)
(0.0154511 0 7.7282e-05)
(0.0153506 0 8.06223e-05)
(0.0152461 0 8.36016e-05)
(0.0151381 0 8.58594e-05)
(0.0150276 0 8.76652e-05)
(0.0149145 0 9.01618e-05)
(0.0147977 0 9.31465e-05)
(0.0146773 0 9.60648e-05)
(0.0145535 0 9.79477e-05)
(0.0144281 0 9.92671e-05)
(0.0143003 0 0.000101493)
(0.0141693 0 0.000104059)
(0.0140354 0 0.00010623)
(0.013899 0 0.000107596)
(0.0137613 0 0.000108806)
(0.0136216 0 0.000110928)
(0.013479 0 0.0001129)
(0.0133345 0 0.000114034)
(0.0131887 0 0.000114839)
(0.0130417 0 0.000116162)
(0.0128926 0 0.000117763)
(0.0127421 0 0.000118993)
(0.0125901 0 0.00011998)
(0.012437 0 0.000120548)
(0.0122833 0 0.000121193)
(0.0121286 0 0.000122087)
(0.0119727 0 0.000123078)
(0.0118159 0 0.000123805)
(0.0116582 0 0.000124405)
(0.0115 0 0.000124366)
(0.011342 0 0.000124495)
(0.0111835 0 0.000124847)
(0.0110247 0 0.000125201)
(0.0108655 0 0.000125117)
(0.0107066 0 0.000125136)
(0.0105477 0 0.000125339)
(0.0103885 0 0.000125607)
(0.0102293 0 0.000125649)
(0.01007 0 0.000125284)
(0.00991136 0 0.000124698)
(0.00975352 0 0.000124089)
(0.00959612 0 0.000124025)
(0.00943902 0 0.000123581)
(0.00928219 0 0.000123558)
(0.00912562 0 0.000122755)
(0.00896998 0 0.000122644)
(0.00881482 0 0.000121195)
(0.00866108 0 0.000120937)
(0.00850782 0 0.000120053)
(0.00835478 0 0.000120291)
(0.00820292 0 0.00011798)
(0.00805287 0 0.000117578)
(0.00790365 0 0.000116426)
(0.00775406 0 0.000116594)
(0.00760701 0 0.000114299)
(0.00746011 0 0.000114796)
(0.0073146 0 0.000113051)
(0.00716939 0 0.000112768)
(0.00702647 0 0.000110555)
(0.00688413 0 0.000109962)
(0.00674406 0 0.000108276)
(0.00660452 0 0.000107471)
(0.00646657 0 0.000106939)
(0.00632922 0 0.000105056)
(0.00619346 0 0.00010549)
(0.00605888 0 0.00010187)
(0.00592549 0 0.000103523)
(0.00579502 0 9.87485e-05)
(0.00566363 0 0.000103489)
(0.0055357 0 9.76379e-05)
(0.00540666 0 0.000102669)
(0.00528193 0 9.56388e-05)
(0.00515655 0 9.97969e-05)
(0.00503382 0 9.30491e-05)
(0.00491238 0 9.69577e-05)
(0.00479257 0 9.38596e-05)
(0.00467384 0 9.71236e-05)
(0.00456023 0 9.18828e-05)
(0.0044451 0 9.04328e-05)
(0.00432948 0 8.09387e-05)
(0.00422093 0 8.37643e-05)
(0.00410408 0 9.33818e-05)
(0.00399584 0 0.000100573)
(0.00391063 0 9.96594e-05)
(0.00380208 0 8.22351e-05)
(0.0036928 0 2.34964e-05)
(0.00361309 0 2.5228e-05)
(0.00344963 0 9.11876e-05)
(0.00332006 0 0.000164138)
(0.00305541 0 0.000222876)
(0.00291213 0 0.000142195)
(0.00274272 0 0.000136483)
(0.00262511 0 0.000114356)
(0.00248893 0 0.000103515)
(0.00238702 0 0.000105439)
(0.00226217 0 8.07232e-05)
(0.00216257 0 9.31615e-05)
(0.00204564 0 6.28943e-05)
(0.00195088 0 8.48854e-05)
(0.00184519 0 7.41156e-05)
(0.00175008 0 9.74807e-05)
(0.00168518 0 6.82045e-05)
(0.00158842 0 6.44709e-05)
(0.00148168 0 -1.43534e-05)
(0.00142031 0 1.72059e-05)
(0.00125883 0 9.71179e-05)
(0.00114061 0 0.000172335)
(0.00088242 0 0.000195222)
(0.000771137 0 0.000109826)
(0.000615302 0 0.000118553)
(0.00051604 0 7.90781e-05)
(0.000399236 0 8.76806e-05)
(0.000311974 0 6.12804e-05)
(0.000208197 0 7.32829e-05)
(0.000132704 0 5.42999e-05)
(4.28887e-05 0 6.57993e-05)
(-2.49493e-05 0 5.5578e-05)
(-0.000102029 0 5.98836e-05)
(-0.000164972 0 4.89122e-05)
(-0.000241609 0 4.79437e-05)
(-0.000303728 0 4.68023e-05)
(-0.00037167 0 5.56155e-05)
(-0.000415201 0 5.25554e-05)
(-0.000444939 0 2.68825e-05)
(-0.000517468 0 -1.91466e-05)
(-0.000583022 0 -7.11522e-05)
(-0.000768181 0 2.03039e-05)
(-0.00103169 0 0.000197257)
(-0.00121765 0 0.000293793)
(-0.00138127 0 0.000260159)
(-0.00169146 0 0.000216218)
(-0.00175917 0 0.000151561)
(-0.0019145 0 0.00012689)
(-0.00203044 0 0.000108893)
(-0.0021476 0 9.81299e-05)
(-0.00225931 0 9.15094e-05)
(-0.0023679 0 8.72878e-05)
(-0.00247375 0 8.43651e-05)
(-0.00257748 0 8.22262e-05)
(-0.00267929 0 8.04229e-05)
(-0.00277922 0 7.88365e-05)
(-0.00287753 0 7.74596e-05)
(-0.00297453 0 7.64377e-05)
(-0.00307051 0 7.56275e-05)
(-0.00316545 0 7.47827e-05)
(-0.00325921 0 7.37752e-05)
(-0.00335164 0 7.27016e-05)
(-0.00344272 0 7.16174e-05)
(-0.00353253 0 7.06149e-05)
(-0.00362125 0 6.96923e-05)
(-0.00370894 0 6.88554e-05)
(-0.00379564 0 6.80567e-05)
(-0.00388129 0 6.71622e-05)
(-0.00396556 0 6.56494e-05)
(-0.0040485 0 6.48355e-05)
(-0.00413032 0 6.40941e-05)
(-0.0042108 0 6.29093e-05)
(-0.00428979 0 6.16507e-05)
(-0.00436718 0 6.02714e-05)
(-0.0044428 0 5.87425e-05)
(-0.00451657 0 5.71801e-05)
(-0.00458853 0 5.56943e-05)
(-0.00465884 0 5.4369e-05)
(-0.0047277 0 5.3266e-05)
(-0.00479538 0 5.25404e-05)
(-0.00486228 0 5.24042e-05)
(-0.00492832 0 5.12389e-05)
(-0.00499344 0 5.07146e-05)
(-0.00505799 0 5.04028e-05)
(-0.0051221 0 5.01652e-05)
(-0.00518591 0 5.00228e-05)
(-0.00524953 0 4.99532e-05)
(-0.00531299 0 4.98707e-05)
(-0.00537614 0 4.96575e-05)
(-0.00543879 0 4.92167e-05)
(-0.0055007 0 4.85382e-05)
(-0.00556165 0 4.76531e-05)
(-0.00562149 0 4.66344e-05)
(-0.00568011 0 4.55755e-05)
(-0.00573754 0 4.46481e-05)
(-0.00579409 0 4.40817e-05)
(-0.00585026 0 4.40382e-05)
(-0.00590657 0 4.43898e-05)
(-0.00596316 0 4.46185e-05)
(-0.00601947 0 4.42482e-05)
(-0.00607467 0 4.30049e-05)
(-0.00612836 0 4.15909e-05)
(-0.00618135 0 4.14181e-05)
(-0.00623505 0 4.23065e-05)
(-0.00629022 0 4.36504e-05)
(-0.00634627 0 4.48267e-05)
(-0.00640131 0 4.33832e-05)
(-0.00645429 0 4.12957e-05)
(-0.00650656 0 4.10295e-05)
(-0.00655999 0 4.22312e-05)
(-0.00661452 0 4.34229e-05)
(-0.00666787 0 4.17841e-05)
(-0.00671844 0 3.89884e-05)
(-0.00676804 0 3.86057e-05)
(-0.00681866 0 3.96862e-05)
(-0.00686915 0 3.93508e-05)
(-0.00691771 0 3.6758e-05)
(-0.0069639 0 3.64901e-05)
(-0.00700848 0 3.91684e-05)
(-0.00708642 0 4.13241e-05)
(-0.0071914 0 4.189e-05)
(-0.00689748 0 4.53255e-05)
(-0.00774798 0 5.09608e-05)
(-0.00668129 0 6.34573e-05)
(0.242366 0 0.00372104)
(0.249111 0 0.00402749)
(0.254576 0 -0.00846074)
(0.273413 0 -0.0575681)
(0.30214 0 -0.0883877)
(0.318043 0 -0.0906639)
(0.321371 0 -0.0760754)
(0.316517 0 -0.017029)
(0.30524 0 0.0395774)
(0.296689 0 0.0585993)
(0.292005 0 0.0586425)
(0.283581 0 0.0472842)
(0.274648 0 0.0341567)
(0.266665 0 0.0252704)
(0.259315 0 0.0188449)
(0.252981 0 0.0140922)
(0.247655 0 0.0120873)
(0.242668 0 0.0122181)
(0.238164 0 0.0119472)
(0.234127 0 0.0103233)
(0.230546 0 0.00814536)
(0.226793 0 0.0066195)
(0.22323 0 0.00668484)
(0.219589 0 0.00704821)
(0.216507 0 0.00838862)
(0.213558 0 0.00989096)
(0.210012 0 0.0100116)
(0.205903 0 0.00816209)
(0.201779 0 0.00656242)
(0.19833 0 0.00644794)
(0.195569 0 0.00853939)
(0.192726 0 0.00906214)
(0.189614 0 0.00717911)
(0.186244 0 0.00531378)
(0.183358 0 0.00536546)
(0.180428 0 0.00811024)
(0.17726 0 0.0108072)
(0.173523 0 0.0098037)
(0.170006 0 0.00682799)
(0.167215 0 0.00469625)
(0.164339 0 0.00501117)
(0.161798 0 0.00772784)
(0.158574 0 0.00925954)
(0.154384 0 0.0089454)
(0.150697 0 0.00743702)
(0.147338 0 0.0058811)
(0.144394 0 0.00565829)
(0.141658 0 0.00672984)
(0.138489 0 0.00754196)
(0.135087 0 0.00675931)
(0.132191 0 0.00593673)
(0.129478 0 0.00667974)
(0.126091 0 0.0082654)
(0.122392 0 0.00969738)
(0.118694 0 0.0100154)
(0.115661 0 0.00808256)
(0.112737 0 0.00640404)
(0.109326 0 0.00680182)
(0.105631 0 0.00829246)
(0.101367 0 0.00810351)
(0.0980751 0 0.0057422)
(0.0956944 0 0.00284112)
(0.093603 0 0.000653325)
(0.0915396 0 0.000629752)
(0.0886351 0 0.0012927)
(0.0855284 0 0.00088968)
(0.0830618 0 -0.00116023)
(0.0809765 0 -0.00438804)
(0.0796896 0 -0.00752958)
(0.0786803 0 -0.0102006)
(0.0782999 0 -0.0120799)
(0.0789908 0 -0.0130854)
(0.0802396 0 -0.0123869)
(0.0827257 0 -0.00919947)
(0.0854632 0 -0.00195353)
(0.09207 0 0.0115773)
(0.0992134 0 0.027909)
(0.107244 0 0.0494397)
(0.112618 0 0.0570343)
(0.103187 0 0.0330625)
(0.095509 0 0.0250974)
(0.0516962 0 0.00848856)
(0.052873 0 0.00237393)
(0.0376434 0 -0.00403337)
(0.0379447 0 -0.00578959)
(0.0344404 0 0.0039147)
(0.033754 0 0.00265325)
(0.0326601 0 0.00405837)
(0.0357171 0 0.00157249)
(0.0352476 0 0.001111)
(0.0337133 0 -0.000909714)
(0.0337226 0 -0.00291669)
(0.0324822 0 -0.0030023)
(0.032655 0 -0.00521698)
(0.0324528 0 -0.00691986)
(0.0328826 0 -0.00857154)
(0.0334396 0 -0.00947991)
(0.0355713 0 -0.0109588)
(0.0377274 0 -0.00697497)
(0.0445936 0 -0.00249329)
(0.0496935 0 -0.00147544)
(0.0567655 0 0.00198465)
(0.0556732 0 0.00403017)
(0.0577629 0 0.00562368)
(0.0565404 0 0.00492724)
(0.055614 0 0.00377869)
(0.0540888 0 0.00209945)
(0.0523479 0 0.00201245)
(0.0504183 0 0.0030831)
(0.0487349 0 0.003335)
(0.0474174 0 0.00409853)
(0.0459581 0 0.00413179)
(0.0444131 0 0.00399783)
(0.0427778 0 0.0033872)
(0.0410342 0 0.0032641)
(0.0390858 0 0.0026766)
(0.0374585 0 0.00344805)
(0.0362519 0 0.00366095)
(0.034942 0 0.00378934)
(0.0345177 0 0.00381321)
(0.0322807 0 0.00351607)
(0.0310028 0 0.00396785)
(0.0287398 0 0.0045311)
(0.0269869 0 0.00448247)
(0.0253738 0 0.00415372)
(0.0234319 0 0.00425178)
(0.0213022 0 0.00423853)
(0.0193618 0 0.00461389)
(0.0174048 0 0.00471033)
(0.0154607 0 0.00478356)
(0.0135723 0 0.00462532)
(0.0115507 0 0.00470833)
(0.0095822 0 0.00453585)
(0.00760543 0 0.00461236)
(0.00566339 0 0.0045391)
(0.00372517 0 0.00454124)
(0.00186643 0 0.00444369)
(3.12207e-05 0 0.00433387)
(-0.00176659 0 0.00421954)
(-0.00351579 0 0.00406402)
(-0.00521546 0 0.00394304)
(-0.00688212 0 0.00381068)
(-0.00849164 0 0.00373952)
(-0.01005 0 0.00360995)
(-0.0115461 0 0.00348506)
(-0.0129988 0 0.003346)
(-0.0144218 0 0.003274)
(-0.015808 0 0.00319939)
(-0.0171498 0 0.00311416)
(-0.0184355 0 0.00299586)
(-0.0196728 0 0.0028661)
(-0.0208818 0 0.00277895)
(-0.0220599 0 0.00271492)
(-0.02321 0 0.00264468)
(-0.0243161 0 0.00255812)
(-0.0253706 0 0.00246019)
(-0.0263906 0 0.00235844)
(-0.0273852 0 0.00228823)
(-0.0283499 0 0.00222726)
(-0.0292818 0 0.00214456)
(-0.0301745 0 0.00204017)
(-0.031027 0 0.00195591)
(-0.031847 0 0.00189277)
(-0.0326373 0 0.00182605)
(-0.0333944 0 0.00172947)
(-0.0341101 0 0.00162849)
(-0.0347861 0 0.00155433)
(-0.0354373 0 0.00149976)
(-0.0360587 0 0.00142653)
(-0.0366414 0 0.00132035)
(-0.0371846 0 0.00122457)
(-0.0376904 0 0.00115416)
(-0.0381702 0 0.00109495)
(-0.0386189 0 0.0010261)
(-0.0390329 0 0.00094213)
(-0.0394124 0 0.00084168)
(-0.0397555 0 0.000760224)
(-0.0400672 0 0.000699848)
(-0.0403518 0 0.000633149)
(-0.0405986 0 0.000554925)
(-0.040811 0 0.000478445)
(-0.0409985 0 0.00040028)
(-0.0411602 0 0.000339372)
(-0.0412934 0 0.000284121)
(-0.0413944 0 0.000210438)
(-0.0414601 0 0.000112547)
(-0.0414926 0 3.56314e-05)
(-0.0414973 0 -1.61905e-05)
(-0.0414741 0 -7.34004e-05)
(-0.0414236 0 -0.000137155)
(-0.0413505 0 -0.000201097)
(-0.0412531 0 -0.000270013)
(-0.041128 0 -0.000330851)
(-0.0409752 0 -0.00039584)
(-0.0407886 0 -0.000466979)
(-0.0405721 0 -0.00052808)
(-0.0403308 0 -0.000578421)
(-0.0400685 0 -0.000633208)
(-0.0397871 0 -0.000693033)
(-0.0394778 0 -0.000767984)
(-0.0391365 0 -0.000840411)
(-0.0387672 0 -0.00089319)
(-0.0383801 0 -0.000928511)
(-0.037972 0 -0.000975527)
(-0.0375385 0 -0.00103676)
(-0.0370761 0 -0.00110503)
(-0.0365889 0 -0.00117604)
(-0.0360804 0 -0.00123164)
(-0.0355521 0 -0.00127113)
(-0.0350026 0 -0.00131371)
(-0.0344267 0 -0.0013735)
(-0.0338234 0 -0.00144393)
(-0.0331982 0 -0.00149742)
(-0.0325595 0 -0.00152384)
(-0.031904 0 -0.00155439)
(-0.0312248 0 -0.00161948)
(-0.0305219 0 -0.00168258)
(-0.0297949 0 -0.00174138)
(-0.0290496 0 -0.00179228)
(-0.0282859 0 -0.00180883)
(-0.0275134 0 -0.00181265)
(-0.0267299 0 -0.00185028)
(-0.0259323 0 -0.00190517)
(-0.0251102 0 -0.0019677)
(-0.0242718 0 -0.00200723)
(-0.023426 0 -0.00201651)
(-0.0225717 0 -0.00200476)
(-0.0217108 0 -0.00202201)
(-0.0208439 0 -0.00205263)
(-0.0199716 0 -0.00207061)
(-0.0190908 0 -0.00209157)
(-0.0182082 0 -0.00211183)
(-0.0173197 0 -0.00208895)
(-0.0164374 0 -0.00205891)
(-0.0155611 0 -0.00206697)
(-0.0146875 0 -0.00206674)
(-0.0138145 0 -0.00205982)
(-0.0129423 0 -0.00205477)
(-0.0120757 0 -0.00202899)
(-0.0112207 0 -0.00199417)
(-0.0103807 0 -0.00197208)
(-0.00955958 0 -0.00195322)
(-0.00874509 0 -0.00191739)
(-0.00794148 0 -0.0018703)
(-0.00714714 0 -0.00184494)
(-0.00636569 0 -0.0018246)
(-0.00560022 0 -0.00180913)
(-0.00484626 0 -0.00176046)
(-0.00410932 0 -0.00169852)
(-0.00339556 0 -0.00166198)
(-0.00269794 0 -0.00164469)
(-0.00200661 0 -0.00161241)
(-0.00133254 0 -0.00156292)
(-0.000679522 0 -0.00152188)
(-4.45137e-05 0 -0.00148795)
(0.000577687 0 -0.0014399)
(0.00118742 0 -0.00140642)
(0.00178315 0 -0.0013743)
(0.00236141 0 -0.00133867)
(0.00292341 0 -0.00130768)
(0.00346465 0 -0.00126708)
(0.00399312 0 -0.00123158)
(0.00451649 0 -0.0012072)
(0.00502725 0 -0.00118278)
(0.00552457 0 -0.00115788)
(0.00600803 0 -0.0011201)
(0.00647347 0 -0.00107855)
(0.00692598 0 -0.00104228)
(0.00736547 0 -0.0010158)
(0.00779569 0 -0.0010009)
(0.00821761 0 -0.00098117)
(0.00862611 0 -0.000953043)
(0.00902109 0 -0.000917427)
(0.00940326 0 -0.000878364)
(0.00977359 0 -0.00085014)
(0.0101323 0 -0.00082803)
(0.0104783 0 -0.000805214)
(0.0108117 0 -0.000776782)
(0.0111357 0 -0.000748928)
(0.0114493 0 -0.000726485)
(0.0117527 0 -0.00070408)
(0.0120448 0 -0.000671051)
(0.0123225 0 -0.000636434)
(0.0125882 0 -0.000613389)
(0.0128454 0 -0.000593811)
(0.013094 0 -0.000574984)
(0.0133321 0 -0.000552456)
(0.0135587 0 -0.000527251)
(0.0137753 0 -0.000498819)
(0.0139822 0 -0.000471332)
(0.0141789 0 -0.000450724)
(0.0143673 0 -0.000432443)
(0.0145462 0 -0.000415755)
(0.0147161 0 -0.000395503)
(0.0148769 0 -0.000369225)
(0.0150291 0 -0.000346716)
(0.015174 0 -0.000329517)
(0.0153107 0 -0.000310825)
(0.0154372 0 -0.000294019)
(0.015556 0 -0.000277168)
(0.0156695 0 -0.000256981)
(0.015776 0 -0.000239302)
(0.0158751 0 -0.000223391)
(0.0159656 0 -0.000208637)
(0.0160492 0 -0.000193697)
(0.016128 0 -0.000176296)
(0.0162007 0 -0.000160824)
(0.0162662 0 -0.000149042)
(0.016326 0 -0.000137032)
(0.0163797 0 -0.000120803)
(0.0164273 0 -0.000105701)
(0.01647 0 -9.15525e-05)
(0.0165065 0 -7.98517e-05)
(0.0165371 0 -6.95061e-05)
(0.0165633 0 -5.65507e-05)
(0.0165843 0 -4.24874e-05)
(0.0166002 0 -3.02923e-05)
(0.0166105 0 -1.97336e-05)
(0.0166156 0 -8.54249e-06)
(0.0166158 0 4.3484e-06)
(0.0166115 0 1.73571e-05)
(0.0166023 0 2.8292e-05)
(0.0165884 0 3.74611e-05)
(0.0165692 0 4.92368e-05)
(0.0165448 0 6.23119e-05)
(0.0165162 0 7.38136e-05)
(0.0164831 0 8.29355e-05)
(0.0164457 0 9.23151e-05)
(0.0164033 0 0.00010418)
(0.0163561 0 0.000116472)
(0.0163042 0 0.00012789)
(0.0162484 0 0.000138121)
(0.016188 0 0.000147192)
(0.0161234 0 0.000156283)
(0.0160545 0 0.000166021)
(0.0159815 0 0.000175976)
(0.0159045 0 0.000186389)
(0.0158232 0 0.000196502)
(0.0157379 0 0.000205413)
(0.0156486 0 0.0002133)
(0.0155554 0 0.000221987)
(0.0154587 0 0.00023169)
(0.0153581 0 0.000241418)
(0.0152537 0 0.000250098)
(0.0151462 0 0.000257275)
(0.0150354 0 0.000263495)
(0.0149214 0 0.00027113)
(0.0148039 0 0.000279597)
(0.0146835 0 0.000287554)
(0.0145603 0 0.000293623)
(0.0144343 0 0.000298535)
(0.0143055 0 0.000305207)
(0.014174 0 0.00031224)
(0.0140402 0 0.000318382)
(0.0139039 0 0.000323049)
(0.0137654 0 0.000327086)
(0.0136249 0 0.000332774)
(0.0134825 0 0.000338101)
(0.0133383 0 0.000341988)
(0.0131921 0 0.000345196)
(0.0130439 0 0.000349222)
(0.0128942 0 0.000353117)
(0.0127438 0 0.000356442)
(0.0125919 0 0.000359593)
(0.0124387 0 0.000361551)
(0.0122845 0 0.000363523)
(0.012129 0 0.000366205)
(0.0119728 0 0.000368541)
(0.0118161 0 0.000370562)
(0.0116585 0 0.000372118)
(0.0115004 0 0.000372657)
(0.0113419 0 0.000372889)
(0.0111831 0 0.000373856)
(0.0110241 0 0.000374653)
(0.0108646 0 0.000374699)
(0.0107052 0 0.000374332)
(0.0105455 0 0.000374598)
(0.0103862 0 0.000374717)
(0.0102272 0 0.000374784)
(0.0100682 0 0.00037425)
(0.00990927 0 0.000372631)
(0.00975091 0 0.000371252)
(0.00959291 0 0.000370164)
(0.00943561 0 0.000369694)
(0.00927832 0 0.00036887)
(0.00912176 0 0.000367832)
(0.00896616 0 0.000365708)
(0.00881116 0 0.000364237)
(0.00865682 0 0.000361408)
(0.00850345 0 0.000361275)
(0.00835082 0 0.000358792)
(0.00819933 0 0.000356458)
(0.00804845 0 0.000352672)
(0.00789856 0 0.000353122)
(0.0077493 0 0.000349581)
(0.00760188 0 0.000347538)
(0.00745491 0 0.000344795)
(0.00730965 0 0.000343699)
(0.00716499 0 0.000340151)
(0.00702153 0 0.000337564)
(0.00687954 0 0.000333997)
(0.00673837 0 0.000330968)
(0.00659928 0 0.000328766)
(0.00646027 0 0.000325542)
(0.00632425 0 0.000324267)
(0.0061874 0 0.00031923)
(0.00605467 0 0.000319335)
(0.00591982 0 0.00031108)
(0.00579083 0 0.000312816)
(0.00565831 0 0.000304149)
(0.00553115 0 0.000306141)
(0.00540178 0 0.000296413)
(0.00527611 0 0.000297145)
(0.00515163 0 0.000290586)
(0.00502781 0 0.000290048)
(0.00491063 0 0.000282993)
(0.00478895 0 0.000280311)
(0.00467016 0 0.000269039)
(0.0045516 0 0.00026673)
(0.00443114 0 0.000273008)
(0.00431809 0 0.000269312)
(0.00422731 0 0.000272379)
(0.00411624 0 0.000258651)
(0.0040057 0 0.00020652)
(0.00389585 0 0.000205135)
(0.00372511 0 0.00025945)
(0.00358261 0 0.000266246)
(0.00332083 0 0.000359594)
(0.00319288 0 0.000358814)
(0.00300624 0 0.00046298)
(0.00293903 0 0.000425573)
(0.00280205 0 0.00034104)
(0.00270906 0 0.000320781)
(0.00258049 0 0.000281816)
(0.00247398 0 0.000272472)
(0.00235382 0 0.000250608)
(0.00224152 0 0.000271721)
(0.00213402 0 0.000247848)
(0.00202999 0 0.00026847)
(0.00196151 0 0.000231535)
(0.00185737 0 0.000239819)
(0.00173957 0 0.000155803)
(0.00163907 0 0.000184294)
(0.00146768 0 0.000256672)
(0.00134303 0 0.00027586)
(0.00107478 0 0.00033465)
(0.000975506 0 0.00033965)
(0.00081478 0 0.000420945)
(0.000765688 0 0.00038593)
(0.000647833 0 0.000308287)
(0.000559278 0 0.000284133)
(0.000460145 0 0.000257533)
(0.000365716 0 0.000235749)
(0.00028039 0 0.000234592)
(0.000192497 0 0.000212955)
(0.000115937 0 0.000200694)
(3.66138e-05 0 0.000187917)
(-4.22059e-05 0 0.000167796)
(-0.000123371 0 0.000165264)
(-0.000190097 0 0.000161899)
(-0.000248884 0 0.000178066)
(-0.000289111 0 0.000147115)
(-0.000357884 0 0.000134238)
(-0.000459263 0 6.3691e-05)
(-0.000629761 0 0.000135127)
(-0.000957417 0 0.000216002)
(-0.00101604 0 0.000446035)
(-0.00130327 0 0.000616479)
(-0.00156029 0 0.00058287)
(-0.00162973 0 0.000453365)
(-0.00172497 0 0.000376919)
(-0.00182772 0 0.00036669)
(-0.00192361 0 0.000313116)
(-0.00202733 0 0.00029379)
(-0.00213084 0 0.0002782)
(-0.00223523 0 0.000267899)
(-0.00233933 0 0.000259446)
(-0.00244259 0 0.000252465)
(-0.0025448 0 0.000246942)
(-0.00264586 0 0.000242321)
(-0.00274554 0 0.000237726)
(-0.00284371 0 0.000233329)
(-0.00294048 0 0.000229704)
(-0.00303592 0 0.000226898)
(-0.00312999 0 0.000224424)
(-0.00322257 0 0.000221728)
(-0.00331361 0 0.000218694)
(-0.00340329 0 0.000215516)
(-0.0034918 0 0.000212502)
(-0.00357927 0 0.000209833)
(-0.00366584 0 0.000207456)
(-0.00375159 0 0.000205194)
(-0.00383643 0 0.000202843)
(-0.00392024 0 0.000200199)
(-0.00400324 0 0.00019717)
(-0.0040852 0 0.000194276)
(-0.00416565 0 0.000191098)
(-0.00424482 0 0.000187838)
(-0.00432286 0 0.00018438)
(-0.00439965 0 0.000180456)
(-0.00447508 0 0.000176168)
(-0.00454912 0 0.000171958)
(-0.00462192 0 0.000168104)
(-0.00469356 0 0.000164657)
(-0.00476407 0 0.000161498)
(-0.00483326 0 0.00015883)
(-0.0049009 0 0.000156671)
(-0.00496761 0 0.00015481)
(-0.00503381 0 0.000153195)
(-0.00509922 0 0.000151879)
(-0.00516397 0 0.000150903)
(-0.00522823 0 0.000150253)
(-0.00529201 0 0.00014975)
(-0.00535527 0 0.000149109)
(-0.00541788 0 0.000148069)
(-0.00547973 0 0.0001465)
(-0.00554077 0 0.000144462)
(-0.00560101 0 0.000142066)
(-0.00566041 0 0.000139416)
(-0.0057189 0 0.000136675)
(-0.00577646 0 0.000134224)
(-0.00583321 0 0.000132593)
(-0.00588946 0 0.000132262)
(-0.00594555 0 0.000132856)
(-0.0060015 0 0.000133001)
(-0.00605698 0 0.000131415)
(-0.00611172 0 0.000128214)
(-0.00616592 0 0.00012545)
(-0.0062201 0 0.00012556)
(-0.00627501 0 0.000128668)
(-0.00633042 0 0.000131682)
(-0.00638462 0 0.000130821)
(-0.00643716 0 0.000126289)
(-0.00648936 0 0.000123003)
(-0.00654248 0 0.000124374)
(-0.00659636 0 0.00012776)
(-0.00664914 0 0.000127573)
(-0.00669993 0 0.000121436)
(-0.00675038 0 0.000117148)
(-0.00680204 0 0.000118315)
(-0.00685369 0 0.000120359)
(-0.00690381 0 0.000116843)
(-0.00695361 0 0.000112545)
(-0.00700377 0 0.00011451)
(-0.0070509 0 0.000120458)
(-0.00712873 0 0.000122078)
(-0.00723191 0 0.000121342)
(-0.00693595 0 0.000124449)
(-0.00777585 0 0.000134522)
(-0.00669865 0 0.000160008)
(0.24148 0 0.00445292)
(0.247436 0 0.00203248)
(0.25577 0 -0.0242812)
(0.256703 0 -0.0853363)
(0.250491 0 -0.100096)