/*--------------------------------*- C++ -*----------------------------------*\
| =========                 |                                                 |
| \\      /  F ield         | OpenFOAM: The Open Source CFD Toolbox           |
|  \\    /   O peration     | Version:  v2006                                 |
|   \\  /    A nd           | Website:  www.openfoam.com                      |
|    \\/     M anipulation  |                                                 |
\*---------------------------------------------------------------------------*/
FoamFile
{
    version     2.0;
    format      ascii;
    class       surfaceScalarField;
    location    "2.9";
    object      alphaPhi0.water;
}
// * * * * * * * * * * * * * * * * * * * * * * * * * * * * * * * * * * * * * //

dimensions      [0 3 -1 0 0 0 0];
oriented        oriented;


internalField   nonuniform List<scalar> 
65390
(
4.47947e-05
-1.60049e-06
4.64311e-05
-1.63469e-06
4.80715e-05
-1.63989e-06
4.97247e-05
-1.65343e-06
5.13447e-05
-1.62199e-06
5.29097e-05
-1.56637e-06
5.44305e-05
-1.52274e-06
5.59538e-05
-1.52428e-06
5.75234e-05
-1.57176e-06
5.90891e-05
-1.57212e-06
6.05854e-05
-1.53122e-06
6.20918e-05
-1.51518e-06
6.36023e-05
-1.50751e-06
6.50606e-05
-1.46134e-06
6.65559e-05
-1.47149e-06
6.80141e-05
-1.45215e-06
6.94113e-05
-1.39881e-06
7.07665e-05
-1.35749e-06
7.2043e-05
-1.28786e-06
7.32102e-05
-1.17096e-06
7.43061e-05
-1.09619e-06
7.54157e-05
-1.10196e-06
7.66291e-05
-1.20414e-06
7.7876e-05
-1.24835e-06
7.89178e-05
-1.04206e-06
7.9632e-05
-7.61019e-07
8.03725e-05
-7.05898e-07
8.12622e-05
-8.72236e-07
8.22115e-05
-9.49139e-07
8.2989e-05
-7.77611e-07
8.36454e-05
-6.57058e-07
8.43265e-05
-6.81733e-07
8.50284e-05
-7.13179e-07
8.55298e-05
-5.20786e-07
8.5926e-05
-3.8395e-07
8.63314e-05
-4.0099e-07
8.68625e-05
-5.3363e-07
8.74092e-05
-5.49342e-07
8.7714e-05
-3.57186e-07
8.78844e-05
-1.61821e-07
8.80926e-05
-1.78917e-07
8.84243e-05
-3.35762e-07
8.88122e-05
-3.88585e-07
8.89525e-05
-2.01261e-07
8.88808e-05
1.00113e-07
8.88324e-05
7.50448e-08
8.89011e-05
-6.87973e-08
8.90251e-05
-1.26137e-07
8.9042e-05
-3.35923e-08
8.89787e-05
6.32156e-08
8.89253e-05
5.15771e-08
8.88289e-05
1.08173e-07
8.85623e-05
2.65013e-07
8.83474e-05
2.12827e-07
8.82108e-05
1.34136e-07
8.7983e-05
2.26281e-07
8.75946e-05
3.86604e-07
8.72066e-05
3.86229e-07
8.69028e-05
3.02551e-07
8.65507e-05
3.51065e-07
8.5918e-05
6.29453e-07
8.50221e-05
8.8691e-07
8.41364e-05
8.69757e-07
8.34263e-05
7.26611e-07
8.26709e-05
7.63198e-07
8.16159e-05
1.05033e-06
8.03775e-05
1.23837e-06
7.92038e-05
1.17435e-06
7.80308e-05
1.17281e-06
7.67234e-05
1.30702e-06
7.52112e-05
1.51254e-06
7.34584e-05
1.74169e-06
7.11591e-05
2.3005e-06
6.83383e-05
2.82547e-06
6.48759e-05
3.47066e-06
6.01012e-05
4.77479e-06
5.35699e-05
6.53116e-06
4.40274e-05
9.5426e-06
3.54435e-05
8.57573e-06
3.09764e-05
4.4675e-06
2.86335e-05
2.34327e-06
2.82541e-05
3.84572e-07
2.75105e-05
7.45519e-07
2.74559e-05
5.48293e-08
2.8008e-05
-5.52864e-07
2.77217e-05
2.85603e-07
2.73331e-05
3.89363e-07
2.70661e-05
2.68827e-07
2.68898e-05
1.76978e-07
2.65609e-05
3.23051e-07
2.624e-05
3.21309e-07
2.60249e-05
2.17539e-07
2.57117e-05
3.14508e-07
2.53231e-05
3.85642e-07
2.4797e-05
5.26171e-07
2.4164e-05
6.32929e-07
2.331e-05
8.54573e-07
2.23519e-05
9.58687e-07
2.06849e-05
1.6653e-06
1.8859e-05
1.82539e-06
1.76905e-05
1.16818e-06
1.72475e-05
4.42278e-07
1.72045e-05
4.25966e-08
1.70273e-05
1.767e-07
1.70422e-05
-1.52831e-08
1.7091e-05
-4.88946e-08
1.69496e-05
1.41047e-07
1.67442e-05
2.04103e-07
1.65354e-05
2.08428e-07
1.63368e-05
1.97992e-07
1.61014e-05
2.33882e-07
1.58572e-05
2.43635e-07
1.55778e-05
2.79466e-07
1.52544e-05
3.23726e-07
1.48285e-05
4.25001e-07
1.43538e-05
4.74491e-07
1.35215e-05
8.30152e-07
1.26624e-05
8.60208e-07
1.21441e-05
5.18668e-07
1.19228e-05
2.19945e-07
1.18624e-05
5.99611e-08
1.17109e-05
1.50539e-07
1.16285e-05
8.1786e-08
1.15689e-05
5.89697e-08
1.14237e-05
1.45481e-07
1.12722e-05
1.51204e-07
1.1128e-05
1.4407e-07
1.09652e-05
1.62707e-07
1.07956e-05
1.69514e-07
1.06256e-05
1.69723e-07
1.04574e-05
1.68002e-07
1.02814e-05
1.75696e-07
1.00952e-05
1.85725e-07
9.90402e-06
1.90982e-07
9.71768e-06
1.85973e-07
9.53651e-06
1.80857e-07
9.34681e-06
1.89266e-07
9.15325e-06
1.93278e-07
8.96268e-06
1.9021e-07
8.78095e-06
1.81337e-07
8.59057e-06
1.89703e-07
8.39739e-06
1.92926e-07
8.20849e-06
1.88653e-07
8.02363e-06
1.8462e-07
7.83305e-06
1.90317e-07
7.64297e-06
1.898e-07
7.46024e-06
1.82906e-07
7.28308e-06
1.76898e-07
7.09858e-06
1.84453e-07
6.91363e-06
1.84892e-07
6.7304e-06
1.83058e-07
6.54564e-06
1.85084e-07
6.37565e-06
1.69787e-07
6.21434e-06
1.61292e-07
6.04274e-06
1.71155e-07
5.86492e-06
1.77956e-07
5.69393e-06
1.71099e-07
5.53642e-06
1.57271e-07
5.38274e-06
1.53529e-07
5.21973e-06
1.6274e-07
5.05504e-06
1.64831e-07
4.90128e-06
1.53695e-07
4.75753e-06
1.43469e-07
4.60744e-06
1.49931e-07
4.44927e-06
1.58172e-07
4.30055e-06
1.48498e-07
4.16227e-06
1.38156e-07
4.0213e-06
1.4065e-07
3.87369e-06
1.47447e-07
3.72474e-06
1.48707e-07
3.58783e-06
1.36693e-07
3.45981e-06
1.27694e-07
3.32413e-06
1.35579e-07
3.18137e-06
1.42639e-07
3.04462e-06
1.3662e-07
2.91623e-06
1.28307e-07
2.7909e-06
1.25216e-07
2.66226e-06
1.28696e-07
2.53299e-06
1.29335e-07
2.40522e-06
1.27877e-07
2.27978e-06
1.25627e-07
2.16093e-06
1.19004e-07
2.04187e-06
1.19201e-07
1.91907e-06
1.22977e-07
1.79861e-06
1.20663e-07
1.68503e-06
1.13767e-07
1.57671e-06
1.08405e-07
1.46245e-06
1.1436e-07
1.34653e-06
1.16059e-07
1.23585e-06
1.10705e-07
1.13058e-06
1.05266e-07
1.02366e-06
1.06853e-07
9.15894e-07
1.07679e-07
8.11077e-07
1.04697e-07
7.08968e-07
1.01953e-07
6.10187e-07
9.85958e-08
5.09879e-07
1.00084e-07
4.11096e-07
9.85331e-08
3.17067e-07
9.37604e-08
2.27802e-07
8.89719e-08
1.35904e-07
9.15914e-08
4.31589e-08
9.2426e-08
-4.84543e-08
9.12866e-08
-1.34701e-07
8.59173e-08
-2.17577e-07
8.2545e-08
-2.96516e-07
7.86154e-08
-3.76781e-07
7.99501e-08
-4.602e-07
8.31128e-08
-5.39388e-07
7.88968e-08
-6.13048e-07
7.33849e-08
-6.84732e-07
7.14287e-08
-7.5991e-07
7.49358e-08
-8.31516e-07
7.13834e-08
-9.00838e-07
6.91104e-08
-9.66345e-07
6.53176e-08
-1.02818e-06
6.16475e-08
-1.09397e-06
6.56583e-08
-1.15713e-06
6.30145e-08
-1.21852e-06
6.12732e-08
-1.2792e-06
6.05873e-08
-1.3329e-06
5.35838e-08
-1.3844e-06
5.14443e-08
-1.43815e-06
5.36916e-08
-1.49161e-06
5.34255e-08
-1.54202e-06
5.03816e-08
-1.59018e-06
4.81469e-08
-1.63732e-06
4.71382e-08
-1.68139e-06
4.40686e-08
-1.7217e-06
4.02871e-08
-1.76375e-06
4.21081e-08
-1.80497e-06
4.12373e-08
-1.84378e-06
3.88276e-08
-1.88079e-06
3.70126e-08
-1.91487e-06
3.41106e-08
-1.94582e-06
3.09541e-08
-1.97888e-06
3.31802e-08
-2.01147e-06
3.25469e-08
-2.04173e-06
3.02544e-08
-2.0689e-06
2.71807e-08
-2.09641e-06
2.7518e-08
-2.12229e-06
2.59157e-08
-2.1467e-06
2.44301e-08
-2.1698e-06
2.31142e-08
-2.19209e-06
2.23128e-08
-2.21292e-06
2.08419e-08
-2.23229e-06
1.94271e-08
-2.25355e-06
2.13112e-08
-2.27235e-06
1.88236e-08
-2.28834e-06
1.60245e-08
-2.3048e-06
1.64867e-08
-2.32074e-06
1.59841e-08
-2.33577e-06
1.50583e-08
-2.35039e-06
1.46672e-08
-2.36404e-06
1.36853e-08
-2.37776e-06
1.37861e-08
-2.39078e-06
1.30433e-08
-2.40173e-06
1.0953e-08
-2.41209e-06
1.03659e-08
-2.42382e-06
1.17577e-08
-2.43454e-06
1.07672e-08
-2.4441e-06
9.58022e-09
-2.45206e-06
7.95071e-09
-2.46122e-06
9.17381e-09
-2.47021e-06
9.00071e-09
-2.47869e-06
8.48459e-09
-2.48677e-06
8.10365e-09
-2.49449e-06
7.73184e-09
-2.50078e-06
6.30361e-09
-2.50621e-06
5.41889e-09
-2.51212e-06
5.91195e-09
-2.51827e-06
6.15898e-09
-2.52426e-06
5.99836e-09
-2.52993e-06
5.67334e-09
-2.5351e-06
5.16482e-09
-2.54005e-06
4.95222e-09
-2.54423e-06
4.17672e-09
-2.54825e-06
4.02738e-09
-2.55211e-06
3.85079e-09
-2.55572e-06
3.61171e-09
-2.55915e-06
3.42789e-09
-2.56258e-06
3.45698e-09
-2.56602e-06
3.4157e-09
-2.56852e-06
2.50876e-09
-2.57061e-06
2.08945e-09
-2.57229e-06
1.67382e-09
-2.57366e-06
1.37272e-09
-2.57522e-06
1.56267e-09
-2.57663e-06
1.41387e-09
-2.57768e-06
1.03939e-09
-2.57836e-06
6.70426e-10
-2.57844e-06
8.10295e-11
-2.5781e-06
-3.47153e-10
-2.57792e-06
-1.78876e-10
-2.5776e-06
-3.27313e-10
-2.57701e-06
-5.91259e-10
-2.5762e-06
-8.22462e-10
-2.57505e-06
-1.15073e-09
-2.57372e-06
-1.33936e-09
-2.57222e-06
-1.51043e-09
-2.57049e-06
-1.72917e-09
-2.56855e-06
-1.94749e-09
-2.56636e-06
-2.19416e-09
-2.5639e-06
-2.46479e-09
-2.56128e-06
-2.6246e-09
-2.55844e-06
-2.8443e-09
-2.55525e-06
-3.19937e-09
-2.55169e-06
-3.56809e-09
-2.54792e-06
-3.77303e-09
-2.54399e-06
-3.93438e-09
-2.53975e-06
-4.24233e-09
-2.53517e-06
-4.59044e-09
-2.53031e-06
-4.86994e-09
-2.52516e-06
-5.14742e-09
-2.51974e-06
-5.43626e-09
-2.51402e-06
-5.72746e-09
-2.50798e-06
-6.04258e-09
-2.50164e-06
-6.35121e-09
-2.49501e-06
-6.64113e-09
-2.48807e-06
-6.94211e-09
-2.4808e-06
-7.28235e-09
-2.47317e-06
-7.63523e-09
-2.46521e-06
-7.97757e-09
-2.4569e-06
-8.32056e-09
-2.44828e-06
-8.62218e-09
-2.43932e-06
-8.97397e-09
-2.42995e-06
-9.37409e-09
-2.42017e-06
-9.78899e-09
-2.41011e-06
-1.00688e-08
-2.3997e-06
-1.04226e-08
-2.38891e-06
-1.07978e-08
-2.37773e-06
-1.11859e-08
-2.36612e-06
-1.1611e-08
-2.3541e-06
-1.20266e-08
-2.34167e-06
-1.24371e-08
-2.32881e-06
-1.28693e-08
-2.31552e-06
-1.32922e-08
-2.30182e-06
-1.37036e-08
-2.28772e-06
-1.41101e-08
-2.27322e-06
-1.45067e-08
-2.25832e-06
-1.49063e-08
-2.24303e-06
-1.52954e-08
-2.2274e-06
-1.56437e-08
-2.2114e-06
-1.60019e-08
-2.19504e-06
-1.63693e-08
-2.1783e-06
-1.67447e-08
-2.1612e-06
-1.71085e-08
-2.14375e-06
-1.74519e-08
-2.12596e-06
-1.77982e-08
-2.10782e-06
-1.81403e-08
-2.08935e-06
-1.84761e-08
-2.07055e-06
-1.88098e-08
-2.05146e-06
-1.90913e-08
-2.03212e-06
-1.93496e-08
-2.01252e-06
-1.96083e-08
-1.99267e-06
-1.98553e-08
-1.97259e-06
-2.00837e-08
-1.95229e-06
-2.03033e-08
-1.93179e-06
-2.0512e-08
-1.91107e-06
-2.07167e-08
-1.89015e-06
-2.09283e-08
-1.86906e-06
-2.10967e-08
-1.8478e-06
-2.12631e-08
-1.82639e-06
-2.14094e-08
-1.80486e-06
-2.15293e-08
-1.78324e-06
-2.16289e-08
-1.76153e-06
-2.17112e-08
-1.73975e-06
-2.17845e-08
-1.71789e-06
-2.18586e-08
-1.69598e-06
-2.19195e-08
-1.674e-06
-2.19846e-08
-1.65194e-06
-2.20574e-08
-1.62984e-06
-2.21035e-08
-1.60771e-06
-2.21294e-08
-1.58558e-06
-2.21368e-08
-1.56345e-06
-2.21292e-08
-1.54135e-06
-2.21082e-08
-1.51928e-06
-2.20706e-08
-1.49727e-06
-2.20191e-08
-1.47531e-06
-2.19602e-08
-1.45341e-06
-2.19024e-08
-1.43157e-06
-2.18463e-08
-1.40979e-06
-2.17804e-08
-1.3881e-06
-2.16936e-08
-1.36652e-06
-2.15812e-08
-1.34508e-06
-2.14456e-08
-1.32377e-06
-2.13063e-08
-1.30261e-06
-2.11618e-08
-1.28159e-06
-2.1022e-08
-1.26071e-06
-2.08837e-08
-1.23997e-06
-2.07437e-08
-1.21937e-06
-2.06039e-08
-1.19891e-06
-2.04672e-08
-1.17859e-06
-2.03194e-08
-1.15847e-06
-2.01274e-08
-1.13853e-06
-1.99434e-08
-1.11877e-06
-1.97539e-08
-1.09921e-06
-1.95623e-08
-1.07984e-06
-1.93793e-08
-1.06062e-06
-1.92166e-08
-1.04157e-06
-1.90582e-08
-1.02268e-06
-1.88876e-08
-1.00399e-06
-1.86994e-08
-9.85494e-07
-1.84964e-08
-9.67212e-07
-1.82844e-08
-9.49151e-07
-1.80627e-08
-9.31305e-07
-1.78491e-08
-9.13685e-07
-1.76224e-08
-8.96262e-07
-1.74266e-08
-8.79056e-07
-1.72089e-08
-8.62087e-07
-1.69727e-08
-8.45346e-07
-1.6744e-08
-8.2883e-07
-1.65196e-08
-8.12497e-07
-1.63367e-08
-7.96403e-07
-1.60974e-08
-7.80473e-07
-1.59348e-08
-7.64629e-07
-1.58472e-08
-7.49047e-07
-1.55846e-08
-7.33445e-07
-1.56044e-08
-7.18023e-07
-1.54243e-08
-7.03244e-07
-1.4781e-08
-6.88455e-07
-1.47916e-08
-6.73622e-07
-1.48355e-08
-6.59517e-07
-1.41069e-08
-6.43468e-07
-1.60495e-08
-6.27691e-07
-1.57762e-08
-6.15589e-07
-1.21004e-08
-6.01518e-07
-1.40677e-08
-5.89772e-07
-1.17424e-08
-5.81622e-07
-8.14525e-09
-5.79565e-07
-2.05079e-09
-5.77832e-07
-1.72588e-09
-5.70423e-07
-7.40007e-09
-5.62678e-07
-7.73518e-09
-5.53132e-07
-9.53336e-09
-5.43299e-07
-9.82047e-09
-5.32955e-07
-1.03299e-08
-5.2262e-07
-1.03208e-08
-5.12105e-07
-1.05012e-08
-5.01568e-07
-1.05221e-08
-4.90784e-07
-1.077e-08
-4.80236e-07
-1.05339e-08
-4.69195e-07
-1.10268e-08
-4.58212e-07
-1.09711e-08
-4.48153e-07
-1.00483e-08
-4.37575e-07
-1.05712e-08
-4.27582e-07
-9.98861e-09
-4.18538e-07
-9.04175e-09
-4.10908e-07
-7.63202e-09
-4.03416e-07
-7.49698e-09
-3.94501e-07
-8.92271e-09
-3.85663e-07
-8.84946e-09
-3.76824e-07
-8.85418e-09
-3.67907e-07
-8.93823e-09
-3.59471e-07
-8.4607e-09
-3.5092e-07
-8.58104e-09
-3.42816e-07
-8.13627e-09
-3.33597e-07
-9.26038e-09
-3.24765e-07
-8.8791e-09
-3.17191e-07
-7.62746e-09
-3.08879e-07
-8.37352e-09
-3.00827e-07
-8.12113e-09
-2.94958e-07
-5.94528e-09
-2.7963e-07
-1.54054e-08
-2.66404e-07
-1.32915e-08
-2.63085e-07
-3.36481e-09
-2.50866e-07
-1.21745e-08
-2.60862e-07
1.02367e-08
-2.7667e-07
1.65251e-08
-3.44155e-07
6.86197e-08
-4.06567e-07
6.45042e-08
-4.48495e-07
4.56445e-08
-4.74097e-07
2.90222e-08
-4.90328e-07
1.93469e-08
-5.00587e-07
1.30994e-08
-5.0703e-07
9.03768e-09
-5.11046e-07
6.39496e-09
-5.13437e-07
4.57595e-09
-5.14467e-07
3.03936e-09
-5.14387e-07
1.76657e-09
-5.1341e-07
7.20256e-10
-5.11789e-07
-6.52398e-11
-5.09567e-07
-8.00724e-10
-5.06973e-07
-1.30371e-09
-5.04076e-07
-1.73172e-09
-5.00904e-07
-2.12893e-09
-4.97477e-07
-2.49952e-09
-4.93786e-07
-2.87627e-09
-4.89825e-07
-3.25132e-09
-4.8562e-07
-3.59379e-09
-4.81219e-07
-3.8795e-09
-4.76678e-07
-4.09917e-09
-4.72047e-07
-4.25954e-09
-4.67356e-07
-4.37805e-09
-4.62618e-07
-4.47435e-09
-4.57808e-07
-4.58286e-09
-4.52909e-07
-4.70003e-09
-4.47934e-07
-4.7927e-09
-4.42856e-07
-4.90579e-09
-4.37643e-07
-5.04109e-09
-4.32274e-07
-5.1938e-09
-4.26716e-07
-5.37248e-09
-4.2095e-07
-5.56878e-09
-4.14976e-07
-5.7632e-09
-4.08815e-07
-5.9344e-09
-4.02522e-07
-6.05282e-09
-3.96147e-07
-6.12171e-09
-3.89724e-07
-6.15927e-09
-3.83293e-07
-6.15913e-09
-3.76892e-07
-6.12486e-09
-3.70547e-07
-6.06657e-09
-3.6429e-07
-5.98113e-09
-3.58157e-07
-5.8626e-09
-3.52177e-07
-5.71705e-09
-3.46356e-07
-5.56914e-09
-3.40665e-07
-5.45098e-09
-3.35051e-07
-5.38893e-09
-3.29448e-07
-5.39163e-09
-3.23802e-07
-5.45173e-09
-3.18066e-07
-5.55638e-09
-3.12209e-07
-5.69226e-09
-3.0623e-07
-5.83059e-09
-3.00186e-07
-5.90857e-09
-2.94214e-07
-5.84975e-09
-2.88465e-07
-5.6396e-09
-2.82976e-07
-5.38912e-09
-2.77615e-07
-5.27215e-09
-2.72125e-07
-5.40951e-09
-2.66369e-07
-5.68296e-09
-2.60563e-07
-5.74052e-09
-2.55097e-07
-5.40562e-09
-2.50172e-07
-4.87026e-09
-2.45634e-07
-4.48911e-09
-2.4094e-07
-4.64968e-09
-2.35794e-07
-5.10571e-09
-2.30596e-07
-5.16276e-09
-2.2581e-07
-4.75356e-09
-2.21448e-07
-4.33318e-09
-2.16831e-07
-4.59191e-09
-2.11518e-07
-5.29189e-09
-2.06079e-07
-5.42214e-09
-2.00964e-07
-5.10214e-09
-1.95894e-07
-5.05811e-09
-1.90251e-07
-5.6341e-09
-1.84367e-07
-5.87926e-09
-1.7911e-07
-5.25459e-09
-1.74351e-07
-4.75824e-09
-1.69409e-07
-4.94138e-09
-1.64722e-07
-4.68481e-09
-1.59826e-07
-4.89835e-09
-2.13651e-09
4.48761e-05
-3.22706e-06
4.65352e-05
-3.29815e-06
4.82036e-05
-3.30915e-06
4.98811e-05
-3.33133e-06
5.15354e-05
-3.27592e-06
5.31122e-05
-3.14053e-06
5.46334e-05
-3.04087e-06
5.61242e-05
-3.01162e-06
5.76248e-05
-3.06796e-06
5.91404e-05
-3.08294e-06
6.06843e-05
-3.07034e-06
6.22411e-05
-3.06754e-06
6.37802e-05
-3.04327e-06
6.52709e-05
-2.95013e-06
6.67109e-05
-2.9109e-06
6.80972e-05
-2.83931e-06
6.94395e-05
-2.74334e-06
7.07423e-05
-2.66398e-06
7.20178e-05
-2.56806e-06
7.32439e-05
-2.40244e-06
7.44205e-05
-2.27879e-06
7.55339e-05
-2.22296e-06
7.66488e-05
-2.32358e-06
7.7714e-05
-2.32005e-06
7.87122e-05
-2.05299e-06
7.96175e-05
-1.6884e-06
8.05006e-05
-1.59855e-06
8.13916e-05
-1.75571e-06
8.22879e-05
-1.8307e-06
8.30294e-05
-1.53823e-06
8.36927e-05
-1.32737e-06
8.43411e-05
-1.33217e-06
8.50245e-05
-1.42715e-06
8.57456e-05
-1.2407e-06
8.62321e-05
-8.69396e-07
8.66124e-05
-7.47002e-07
8.69328e-05
-8.33474e-07
8.73113e-05
-9.31275e-07
8.7788e-05
-8.55146e-07
8.81709e-05
-5.53316e-07
8.84503e-05
-4.29979e-07
8.86943e-05
-5.46155e-07
8.89271e-05
-6.25371e-07
8.91794e-05
-4.88348e-07
8.93184e-05
-4.07222e-08
8.9325e-05
7.37781e-08
8.93703e-05
-7.76186e-08
8.94818e-05
-1.99505e-07
8.95653e-05
-1.13282e-07
8.95342e-05
8.13341e-08
8.93855e-05
1.75473e-07
8.9205e-05
3.2719e-07
8.89529e-05
5.31625e-07
8.87179e-05
4.53649e-07
8.84934e-05
3.62209e-07
8.81923e-05
5.21557e-07
8.77349e-05
8.36013e-07
8.73008e-05
8.34046e-07
8.69529e-05
6.59326e-07
8.65686e-05
7.31663e-07
8.59596e-05
1.19945e-06
8.51656e-05
1.67975e-06
8.44158e-05
1.62068e-06
8.37591e-05
1.41364e-06
8.29255e-05
1.59827e-06
8.1865e-05
2.09206e-06
8.07376e-05
2.36563e-06
7.96001e-05
2.32167e-06
7.8424e-05
2.37064e-06
7.71839e-05
2.54746e-06
7.57826e-05
2.91344e-06
7.41687e-05
3.33806e-06
7.2418e-05
4.05155e-06
7.05437e-05
4.70027e-06
6.87597e-05
5.25505e-06
6.73666e-05
6.18937e-06
6.67574e-05
7.12827e-06
6.72207e-05
9.08234e-06
6.44164e-05
1.13823e-05
5.66592e-05
1.22307e-05
4.66824e-05
1.23194e-05
3.78041e-05
9.25976e-06
3.34373e-05
5.10698e-06
3.03025e-05
3.19116e-06
2.87572e-05
9.96572e-07
2.75011e-05
1.54435e-06
2.6686e-05
1.20436e-06
2.67624e-05
1.92084e-07
2.71744e-05
-2.41e-07
2.68969e-05
5.99533e-07
2.66103e-05
6.08333e-07
2.63394e-05
4.92687e-07
2.59631e-05
6.92888e-07
2.5611e-05
7.38079e-07
2.53127e-05
8.21095e-07
2.49057e-05
1.04003e-06
2.45225e-05
1.2387e-06
2.41217e-05
1.36124e-06
2.39632e-05
1.82362e-06
2.36264e-05
2.16194e-06
2.2835e-05
1.95837e-06
2.11976e-05
2.07689e-06
1.93155e-05
1.92435e-06
1.80955e-05
1.39639e-06
1.74145e-05
6.63399e-07
1.70903e-05
2.74539e-07
1.68173e-05
4.13222e-07
1.65507e-05
4.70383e-07
1.64539e-05
3.05087e-07
1.64133e-05
2.3513e-07
1.62302e-05
4.16969e-07
1.60009e-05
4.72955e-07
1.57682e-05
5.1217e-07
1.55148e-05
5.78837e-07
1.52813e-05
6.58792e-07
1.50445e-05
7.1108e-07
1.4932e-05
9.40267e-07
1.47271e-05
1.06516e-06
1.4298e-05
9.47666e-07
1.34724e-05
1.04636e-06
1.25917e-05
9.40185e-07
1.20649e-05
6.75891e-07
1.17254e-05
4.21287e-07
1.15437e-05
2.40683e-07
1.13576e-05
3.3164e-07
1.12466e-05
2.62532e-07
1.11558e-05
2.34748e-07
1.09898e-05
3.27416e-07
1.08142e-05
3.45363e-07
1.06383e-05
3.45601e-07
1.04573e-05
3.48565e-07
1.02779e-05
3.54416e-07
1.00961e-05
3.67422e-07
9.90833e-06
3.78819e-07
9.72187e-06
3.7346e-07
9.53256e-06
3.6985e-07
9.33911e-06
3.82571e-07
9.1477e-06
3.84645e-07
8.96032e-06
3.77634e-07
8.77333e-06
3.68176e-07
8.58002e-06
3.82955e-07
8.39066e-06
3.82118e-07
8.20595e-06
3.7353e-07
8.01706e-06
3.73205e-07
7.82516e-06
3.82231e-07
7.63955e-06
3.75429e-07
7.45979e-06
3.63404e-07
7.27663e-06
3.5976e-07
7.08693e-06
3.73653e-07
6.90521e-06
3.66689e-07
6.72807e-06
3.60142e-07
6.54886e-06
3.64749e-07
6.37611e-06
3.42629e-07
6.20618e-06
3.30985e-07
6.03321e-06
3.43355e-07
5.85993e-06
3.51288e-07
5.6942e-06
3.36655e-07
5.53509e-06
3.16171e-07
5.37551e-06
3.12965e-07
5.21271e-06
3.2501e-07
5.05087e-06
3.26471e-07
4.89666e-06
3.07745e-07
4.74963e-06
2.90507e-07
4.59983e-06
2.99133e-07
4.44448e-06
3.13447e-07
4.2941e-06
2.98737e-07
4.15169e-06
2.80438e-07
4.01176e-06
2.80043e-07
3.86762e-06
2.91322e-07
3.72025e-06
2.96072e-07
3.58256e-06
2.74195e-07
3.45195e-06
2.5826e-07
3.31486e-06
2.7223e-07
3.17408e-06
2.83439e-07
3.04284e-06
2.67972e-07
2.91409e-06
2.5709e-07
2.78279e-06
2.56663e-07
2.65457e-06
2.56925e-07
2.53002e-06
2.54093e-07
2.4068e-06
2.51359e-07
2.28337e-06
2.49525e-07
2.16056e-06
2.4207e-07
2.03783e-06
2.42196e-07
1.91598e-06
2.45111e-07
1.7984e-06
2.38498e-07
1.68493e-06
2.27556e-07
1.57393e-06
2.19511e-07
1.462e-06
2.26363e-07
1.34969e-06
2.28389e-07
1.2386e-06
2.21769e-07
1.1286e-06
2.15194e-07
1.01999e-06
2.152e-07
9.1354e-07
2.13879e-07
8.11361e-07
2.06641e-07
7.12048e-07
2.00893e-07
6.12044e-07
1.98228e-07
5.09387e-07
2.02284e-07
4.10586e-07
1.9684e-07
3.17199e-07
1.86634e-07
2.26275e-07
1.79364e-07
1.35103e-07
1.82185e-07
4.34338e-08
1.83525e-07
-4.82387e-08
1.82373e-07
-1.32736e-07
1.69837e-07
-2.14795e-07
1.64034e-07
-2.96961e-07
1.60229e-07
-3.80599e-07
1.63054e-07
-4.6295e-07
1.64938e-07
-5.39198e-07
1.54675e-07
-6.13425e-07
1.47115e-07
-6.88605e-07
1.46202e-07
-7.63702e-07
1.49575e-07
-8.3324e-07
1.40654e-07
-9.01395e-07
1.36877e-07
-9.68365e-07
1.31898e-07
-1.03236e-06
1.25382e-07
-1.09656e-06
1.29543e-07
-1.15868e-06
1.24965e-07
-1.2199e-06
1.22285e-07
-1.2796e-06
1.20133e-07
-1.33474e-06
1.0854e-07
-1.38944e-06
1.06043e-07
-1.44198e-06
1.06107e-07
-1.49394e-06
1.05381e-07
-1.54488e-06
1.01256e-07
-1.59268e-06
9.59479e-08
-1.63915e-06
9.36041e-08
-1.68362e-06
8.84767e-08
-1.72602e-06
8.26741e-08
-1.76714e-06
8.32808e-08
-1.80806e-06
8.21632e-08
-1.84675e-06
7.75276e-08
-1.88282e-06
7.30837e-08
-1.91735e-06
6.86258e-08
-1.94975e-06
6.33774e-08
-1.98098e-06
6.44151e-08
-2.0118e-06
6.3371e-08
-2.04345e-06
6.18946e-08
-2.07315e-06
5.68887e-08
-2.10057e-06
5.49867e-08
-2.12546e-06
5.08252e-08
-2.14927e-06
4.82614e-08
-2.1727e-06
4.65777e-08
-2.19469e-06
4.43349e-08
-2.2149e-06
4.10738e-08
-2.23484e-06
3.94105e-08
-2.25573e-06
4.22172e-08
-2.27479e-06
3.79235e-08
-2.29147e-06
3.27323e-08
-2.30744e-06
3.24886e-08
-2.32319e-06
3.17598e-08
-2.33783e-06
2.97326e-08
-2.35224e-06
2.91369e-08
-2.36603e-06
2.74638e-08
-2.37864e-06
2.64198e-08
-2.39059e-06
2.50103e-08
-2.40244e-06
2.27672e-08
-2.41467e-06
2.25951e-08
-2.42647e-06
2.35794e-08
-2.43606e-06
2.03982e-08
-2.44497e-06
1.84637e-08
-2.45382e-06
1.67571e-08
-2.46294e-06
1.83085e-08
-2.47171e-06
1.77724e-08
-2.48024e-06
1.69966e-08
-2.48804e-06
1.59011e-08
-2.4954e-06
1.50827e-08
-2.50193e-06
1.27363e-08
-2.508e-06
1.1476e-08
-2.51423e-06
1.20863e-08
-2.52027e-06
1.22024e-08
-2.52607e-06
1.17958e-08
-2.53141e-06
1.09926e-08
-2.53652e-06
1.02407e-08
-2.54194e-06
1.02946e-08
-2.54659e-06
8.75121e-09
-2.55054e-06
7.97027e-09
-2.55411e-06
7.41558e-09
-2.55755e-06
7.02976e-09
-2.56078e-06
6.58172e-09
-2.56386e-06
6.53568e-09
-2.56721e-06
6.7712e-09
-2.5697e-06
4.9715e-09
-2.57173e-06
4.07021e-09
-2.57365e-06
3.53328e-09
-2.57538e-06
3.01939e-09
-2.5768e-06
2.97347e-09
-2.57803e-06
2.64622e-09
-2.57889e-06
1.90372e-09
-2.5795e-06
1.2546e-09
-2.57985e-06
3.81485e-10
-2.57994e-06
-3.22752e-10
-2.57977e-06
-3.62649e-10
-2.57936e-06
-7.3674e-10
-2.57867e-06
-1.28041e-09
-2.57776e-06
-1.74146e-09
-2.57672e-06
-2.24619e-09
-2.57555e-06
-2.55728e-09
-2.57401e-06
-3.07596e-09
-2.57221e-06
-3.53319e-09
-2.57018e-06
-3.97511e-09
-2.56791e-06
-4.4867e-09
-2.56546e-06
-4.96467e-09
-2.56279e-06
-5.32736e-09
-2.55983e-06
-5.81275e-09
-2.55656e-06
-6.47419e-09
-2.55306e-06
-7.09664e-09
-2.54937e-06
-7.54079e-09
-2.54538e-06
-7.92623e-09
-2.54111e-06
-8.51941e-09
-2.53655e-06
-9.16112e-09
-2.53171e-06
-9.73039e-09
-2.5266e-06
-1.02867e-08
-2.52121e-06
-1.08493e-08
-2.51552e-06
-1.14311e-08
-2.50952e-06
-1.20613e-08
-2.50322e-06
-1.26797e-08
-2.49662e-06
-1.32721e-08
-2.4897e-06
-1.38775e-08
-2.48243e-06
-1.45564e-08
-2.47483e-06
-1.52576e-08
-2.4669e-06
-1.59298e-08
-2.45867e-06
-1.65985e-08
-2.45007e-06
-1.72233e-08
-2.44111e-06
-1.79381e-08
-2.43178e-06
-1.8717e-08
-2.4221e-06
-1.95016e-08
-2.41203e-06
-2.01486e-08
-2.40158e-06
-2.08797e-08
-2.39074e-06
-2.16372e-08
-2.3795e-06
-2.24227e-08
-2.36787e-06
-2.3258e-08
-2.35582e-06
-2.40795e-08
-2.34338e-06
-2.48938e-08
-2.33052e-06
-2.57406e-08
-2.31725e-06
-2.65791e-08
-2.30357e-06
-2.73984e-08
-2.28948e-06
-2.82039e-08
-2.27501e-06
-2.89955e-08
-2.26013e-06
-2.97922e-08
-2.24487e-06
-3.05722e-08
-2.22921e-06
-3.13066e-08
-2.21318e-06
-3.20421e-08
-2.19677e-06
-3.2782e-08
-2.18e-06
-3.35284e-08
-2.16287e-06
-3.4254e-08
-2.14538e-06
-3.49449e-08
-2.12756e-06
-3.5635e-08
-2.10939e-06
-3.63116e-08
-2.0909e-06
-3.69688e-08
-2.07212e-06
-3.76045e-08
-2.05305e-06
-3.81617e-08
-2.03368e-06
-3.8718e-08
-2.01404e-06
-3.92491e-08
-1.99414e-06
-3.97506e-08
-1.97401e-06
-4.02219e-08
-1.95364e-06
-4.06729e-08
-1.93305e-06
-4.11016e-08
-1.91227e-06
-4.15018e-08
-1.89133e-06
-4.18747e-08
-1.87024e-06
-4.21903e-08
-1.84895e-06
-4.25488e-08
-1.82751e-06
-4.28496e-08
-1.80595e-06
-4.30947e-08
-1.78427e-06
-4.33057e-08
-1.76251e-06
-4.34769e-08
-1.74067e-06
-4.3629e-08
-1.71873e-06
-4.37937e-08
-1.69673e-06
-4.39225e-08
-1.67467e-06
-4.404e-08
-1.65256e-06
-4.41621e-08
-1.63042e-06
-4.42438e-08
-1.60826e-06
-4.42864e-08
-1.58611e-06
-4.42915e-08
-1.56396e-06
-4.42725e-08
-1.54184e-06
-4.42309e-08
-1.51975e-06
-4.41631e-08
-1.49769e-06
-4.40746e-08
-1.47569e-06
-4.39659e-08
-1.45374e-06
-4.38423e-08
-1.43188e-06
-4.3709e-08
-1.41011e-06
-4.35531e-08
-1.38844e-06
-4.33654e-08
-1.36689e-06
-4.3138e-08
-1.34546e-06
-4.28706e-08
-1.32415e-06
-4.26201e-08
-1.30296e-06
-4.23568e-08
-1.28189e-06
-4.20921e-08
-1.26095e-06
-4.18243e-08
-1.24016e-06
-4.15416e-08
-1.21951e-06
-4.12463e-08
-1.19904e-06
-4.09429e-08
-1.17875e-06
-4.06164e-08
-1.15864e-06
-4.02468e-08
-1.13868e-06
-3.98989e-08
-1.1189e-06
-3.95414e-08
-1.09929e-06
-3.91774e-08
-1.07984e-06
-3.8822e-08
-1.06059e-06
-3.84761e-08
-1.04151e-06
-3.81375e-08
-1.02263e-06
-3.77687e-08
-1.00394e-06
-3.7393e-08
-9.85459e-07
-3.6987e-08
-9.67153e-07
-3.65943e-08
-9.49058e-07
-3.61609e-08
-9.31136e-07
-3.57746e-08
-9.13471e-07
-3.5291e-08
-8.96007e-07
-3.48945e-08
-8.78815e-07
-3.44067e-08
-8.6193e-07
-3.38611e-08
-8.4524e-07
-3.34368e-08
-8.28832e-07
-3.2931e-08
-8.1243e-07
-3.27428e-08
-7.96317e-07
-3.22157e-08
-7.80125e-07
-3.21302e-08
-7.64236e-07
-3.17405e-08
-7.48998e-07
-3.0827e-08
-7.33969e-07
-3.06384e-08
-7.18732e-07
-3.0666e-08
-7.03904e-07
-2.96145e-08
-6.86945e-07
-3.17574e-08
-6.70535e-07
-3.12523e-08
-6.58243e-07
-2.64057e-08
-6.4598e-07
-2.83211e-08
-6.35703e-07
-2.60634e-08
-6.26978e-07
-2.0837e-08
-6.25389e-07
-1.56706e-08
-6.2316e-07
-1.39882e-08
-6.14361e-07
-1.69635e-08
-6.02817e-07
-1.36158e-08
-5.89484e-07
-1.50814e-08
-5.78514e-07
-1.8395e-08
-5.67027e-07
-1.92492e-08
-5.56271e-07
-2.03176e-08
-5.4535e-07
-2.07709e-08
-5.34606e-07
-2.11032e-08
-5.2379e-07
-2.1168e-08
-5.13072e-07
-2.12511e-08
-5.01739e-07
-2.18875e-08
-4.90506e-07
-2.20333e-08
-4.80336e-07
-2.07315e-08
-4.7026e-07
-2.11297e-08
-4.60572e-07
-2.06816e-08
-4.51369e-07
-1.92714e-08
-4.43731e-07
-1.82258e-08
-4.36174e-07
-1.75572e-08
-4.26702e-07
-1.85197e-08
-4.16828e-07
-1.75055e-08
-4.06419e-07
-1.79007e-08
-3.97132e-07
-1.81984e-08
-3.87019e-07
-1.89426e-08
-3.77842e-07
-1.80035e-08
-3.67063e-07
-1.9684e-08
-3.57881e-07
-1.76001e-08
-3.49509e-07
-1.69065e-08
-3.4241e-07
-1.51779e-08
-3.35725e-07
-1.58766e-08
-3.28168e-07
-1.63582e-08
-3.21792e-07
-1.39102e-08
-3.04712e-07
-2.53483e-08
-2.90108e-07
-2.26123e-08
-2.86536e-07
-9.40626e-09
-2.82309e-07
-1.95597e-08
-2.95206e-07
-3.9565e-10
-3.10538e-07
1.17413e-08
-3.87157e-07
6.39357e-08
-4.63356e-07
8.50525e-08
-5.12164e-07
6.25428e-08
-5.2776e-07
8.04839e-08
-5.18586e-07
4.97237e-08
-5.13125e-07
3.47854e-08
-5.13903e-07
2.47017e-08
-5.16063e-07
1.67468e-08
-5.18319e-07
1.0935e-08
-5.20119e-07
6.74874e-09
-5.21223e-07
3.72333e-09
-5.21763e-07
1.63455e-09
-5.21434e-07
-4.9613e-10
-5.20241e-07
-2.37443e-09
-5.18626e-07
-3.59923e-09
-5.16529e-07
-4.63211e-09
-5.14016e-07
-5.56065e-09
-5.11042e-07
-6.30892e-09
-5.07719e-07
-6.87984e-09
-5.04119e-07
-7.35489e-09
-5.00238e-07
-7.81844e-09
-4.96077e-07
-8.29655e-09
-4.91665e-07
-8.75614e-09
-4.87052e-07
-9.14777e-09
-4.82295e-07
-9.43894e-09
-4.77448e-07
-9.62698e-09
-4.72547e-07
-9.73716e-09
-4.67601e-07
-9.81276e-09
-4.62596e-07
-9.89804e-09
-4.57545e-07
-1.00006e-08
-4.52436e-07
-1.01404e-08
-4.47178e-07
-1.03608e-08
-4.41796e-07
-1.05906e-08
-4.36309e-07
-1.08347e-08
-4.30713e-07
-1.11091e-08
-4.25018e-07
-1.14068e-08
-4.19234e-07
-1.17136e-08
-4.13372e-07
-1.20122e-08
-4.07431e-07
-1.22853e-08
-4.01392e-07
-1.25234e-08
-3.9527e-07
-1.26938e-08
-3.89112e-07
-1.27812e-08
-3.82931e-07
-1.28112e-08
-3.76737e-07
-1.27929e-08
-3.70561e-07
-1.27118e-08
-3.64448e-07
-1.25562e-08
-3.5843e-07
-1.23289e-08
-3.52516e-07
-1.20615e-08
-3.46688e-07
-1.18075e-08
-3.40909e-07
-1.16172e-08
-3.35146e-07
-1.15152e-08
-3.29384e-07
-1.14921e-08
-3.23618e-07
-1.15299e-08
-3.17839e-07
-1.16241e-08
-3.12019e-07
-1.17773e-08
-3.06137e-07
-1.19547e-08
-3.00219e-07
-1.20475e-08
-2.94349e-07
-1.19207e-08
-2.88619e-07
-1.15535e-08
-2.83035e-07
-1.11401e-08
-2.77492e-07
-1.09673e-08
-2.71906e-07
-1.11332e-08
-2.66335e-07
-1.13788e-08
-2.60929e-07
-1.12598e-08
-2.55823e-07
-1.06138e-08
-2.50999e-07
-9.78691e-09
-2.46009e-07
-9.56267e-09
-2.40712e-07
-1.0022e-08
-2.35435e-07
-1.04492e-08
-2.30464e-07
-1.0191e-08
-2.25874e-07
-9.39399e-09
-2.21082e-07
-9.16936e-09
-2.15776e-07
-9.9362e-09
-2.10529e-07
-1.05716e-08
-2.05611e-07
-1.03674e-08
-2.00873e-07
-9.86127e-09
-1.95622e-07
-1.03245e-08
-1.90396e-07
-1.0873e-08
-1.85698e-07
-1.05875e-08
-1.8112e-07
-9.84019e-09
-1.76367e-07
-9.51637e-09
-1.71685e-07
-9.63085e-09
-1.66728e-07
-9.64576e-09
-1.61228e-07
-1.0399e-08
-5.6654e-09
4.49993e-05
-4.84928e-06
4.666e-05
-4.95864e-06
4.83257e-05
-4.97571e-06
5.00053e-05
-5.01356e-06
5.16566e-05
-4.92999e-06
5.32554e-05
-4.74241e-06
5.4795e-05
-4.58304e-06
5.62918e-05
-4.51024e-06
5.7776e-05
-4.55446e-06
5.92564e-05
-4.56679e-06
6.07416e-05
-4.55863e-06
6.2226e-05
-4.55394e-06
6.36921e-05
-4.5108e-06
6.51526e-05
-4.41209e-06
6.65732e-05
-4.33288e-06
6.79578e-05
-4.22475e-06
6.92925e-05
-4.07849e-06
7.0576e-05
-3.94775e-06
7.18311e-05
-3.82355e-06
7.3065e-05
-3.6367e-06
7.42493e-05
-3.46322e-06
7.5389e-05
-3.36253e-06
7.64392e-05
-3.37344e-06
7.74092e-05
-3.28997e-06
7.83628e-05
-3.00729e-06
7.93582e-05
-2.70728e-06
8.03443e-05
-2.58148e-06
8.12589e-05
-2.65558e-06
8.20614e-05
-2.63751e-06
8.28179e-05
-2.321e-06
8.35499e-05
-2.0618e-06
8.42552e-05
-2.03498e-06
8.4976e-05
-2.13249e-06
8.5738e-05
-2.01262e-06
8.63041e-05
-1.49451e-06
8.6726e-05
-1.16962e-06
8.70223e-05
-1.12907e-06
8.73787e-05
-1.26417e-06
8.78396e-05
-1.30594e-06
8.82746e-05
-1.03874e-06
8.86623e-05
-7.97491e-07
8.89096e-05
-7.88048e-07
8.91349e-05
-8.33104e-07
8.93789e-05
-7.36857e-07
8.9617e-05
-3.28072e-07
8.98109e-05
-1.22811e-07
8.99097e-05
-1.54205e-07
8.99415e-05
-2.13107e-07
8.99621e-05
-1.31153e-07
8.99171e-05
1.12299e-07
8.97573e-05
3.06784e-07
8.95285e-05
5.5591e-07
8.9305e-05
7.55237e-07
8.90372e-05
7.51723e-07
8.87069e-05
6.90953e-07
8.83181e-05
8.7821e-07
8.79048e-05
1.24949e-06
8.74847e-05
1.25414e-06
8.71117e-05
1.05712e-06
8.66761e-05
1.17102e-06
8.60506e-05
1.79145e-06
8.54329e-05
2.29856e-06
8.48852e-05
2.16729e-06
8.42213e-05
2.1078e-06
8.33175e-05
2.50054e-06
8.2308e-05
3.07809e-06
8.14015e-05
3.27226e-06
8.04093e-05
3.33061e-06