/*--------------------------------*- C++ -*----------------------------------*\
| =========                 |                                                 |
| \\      /  F ield         | OpenFOAM: The Open Source CFD Toolbox           |
|  \\    /   O peration     | Version:  v2006                                 |
|   \\  /    A nd           | Website:  www.openfoam.com                      |
|    \\/     M anipulation  |                                                 |
\*---------------------------------------------------------------------------*/
FoamFile
{
    version     2.0;
    format      ascii;
    class       volScalarField;
    location    "2.9";
    object      k;
}
// * * * * * * * * * * * * * * * * * * * * * * * * * * * * * * * * * * * * * //

dimensions      [0 2 -2 0 0 0 0];


internalField   nonuniform List<scalar> 
33000
(
1.05519e-08
1.09949e-08
1.14282e-08
1.19639e-08
1.27575e-08
1.39975e-08
1.58598e-08
1.84418e-08
2.17167e-08
2.5537e-08
2.9648e-08
3.37424e-08
3.75499e-08
4.08824e-08
4.36155e-08
4.57545e-08
4.73601e-08
4.85114e-08
4.93221e-08
4.98879e-08
5.02426e-08
5.0418e-08
5.04736e-08
5.05313e-08
5.06938e-08
5.08968e-08
5.10085e-08
5.10166e-08
5.1055e-08
5.12007e-08
5.13642e-08
5.14884e-08
5.16141e-08
5.18117e-08
5.20086e-08
5.21426e-08
5.22246e-08
5.23398e-08
5.25225e-08
5.27038e-08
5.28232e-08
5.28792e-08
5.29506e-08
5.30744e-08
5.31771e-08
5.32175e-08
5.32043e-08
5.31479e-08
5.30654e-08
5.29313e-08
5.27451e-08
5.25167e-08
5.22542e-08
5.19675e-08
5.16698e-08
5.13748e-08
5.10937e-08
5.08327e-08
5.05926e-08
5.03674e-08
5.01427e-08
4.99013e-08
4.96336e-08
4.93443e-08
4.9044e-08
4.87352e-08
4.84113e-08
4.8068e-08
4.77092e-08
4.73384e-08
4.695e-08
4.65277e-08
4.60404e-08
4.54368e-08
4.46651e-08
4.36715e-08
4.23599e-08
4.06248e-08
3.84152e-08
3.61873e-08
3.46718e-08
3.39707e-08
3.37993e-08
3.3807e-08
3.36418e-08
3.37841e-08
3.36836e-08
3.34844e-08
3.33011e-08
3.31505e-08
3.29776e-08
3.27352e-08
3.24081e-08
3.20061e-08
3.1556e-08
3.09786e-08
3.02464e-08
2.92043e-08
2.80745e-08
2.66419e-08
2.56412e-08
2.50398e-08
2.48333e-08
2.46404e-08
2.44906e-08
2.44337e-08
2.4346e-08
2.41644e-08
2.39663e-08
2.38025e-08
2.36491e-08
2.34791e-08
2.33074e-08
2.30354e-08
2.27397e-08
2.22481e-08
2.19119e-08
2.14206e-08
2.12495e-08
2.14053e-08
2.15376e-08
2.15612e-08
2.15843e-08
2.15926e-08
2.16175e-08
2.16471e-08
2.16903e-08
2.17378e-08
2.17565e-08
2.17587e-08
2.17799e-08
2.1813e-08
2.18178e-08
2.18148e-08
2.18031e-08
2.18164e-08
2.18171e-08
2.18025e-08
2.17847e-08
2.17797e-08
2.17752e-08
2.17441e-08
2.17213e-08
2.16968e-08
2.1667e-08
2.16281e-08
2.15917e-08
2.15657e-08
2.15357e-08
2.1491e-08
2.14544e-08
2.14063e-08
2.13597e-08
2.13326e-08
2.13008e-08
2.12571e-08
2.12119e-08
2.11717e-08
2.11403e-08
2.1106e-08
2.10662e-08
2.10269e-08
2.09963e-08
2.09681e-08
2.09309e-08
2.0891e-08
2.08569e-08
2.0824e-08
2.07906e-08
2.07558e-08
2.07193e-08
2.06891e-08
2.0662e-08
2.06329e-08
2.06032e-08
2.0577e-08
2.05555e-08
2.05409e-08
2.05314e-08
2.05271e-08
2.05289e-08
2.05354e-08
2.05483e-08
2.05697e-08
2.05961e-08
2.06257e-08
2.06547e-08
2.06933e-08
2.07387e-08
2.07863e-08
2.08322e-08
2.08822e-08
2.0941e-08
2.09974e-08
2.10557e-08
2.11109e-08
2.11683e-08
2.12288e-08
2.12884e-08
2.13388e-08
2.13937e-08
2.14538e-08
2.15121e-08
2.15678e-08
2.16169e-08
2.16608e-08
2.16941e-08
2.1736e-08
2.17698e-08
2.17927e-08
2.18054e-08
2.18192e-08
2.18311e-08
2.18321e-08
2.18334e-08
2.18207e-08
2.18098e-08
2.17988e-08
2.17782e-08
2.17582e-08
2.17321e-08
2.16968e-08
2.16622e-08
2.16281e-08
2.15894e-08
2.15462e-08
2.15e-08
2.1453e-08
2.13988e-08
2.1345e-08
2.12917e-08
2.12348e-08
2.11756e-08
2.11143e-08
2.1049e-08
2.09835e-08
2.09186e-08
2.08523e-08
2.07828e-08
2.0713e-08
2.06429e-08
2.05705e-08
2.04974e-08
2.04223e-08
2.03472e-08
2.02698e-08
2.01938e-08
2.01173e-08
2.00376e-08
1.99587e-08
1.98792e-08
1.9799e-08
1.97181e-08
1.96371e-08
1.95555e-08
1.94741e-08
1.93912e-08
1.93071e-08
1.9224e-08
1.91401e-08
1.90549e-08
1.89689e-08
1.88829e-08
1.87976e-08
1.8711e-08
1.86246e-08
1.85375e-08
1.84499e-08
1.83615e-08
1.82731e-08
1.81854e-08
1.8097e-08
1.80084e-08
1.79192e-08
1.78297e-08
1.774e-08
1.76499e-08
1.75598e-08
1.74698e-08
1.73797e-08
1.72891e-08
1.71988e-08
1.71081e-08
1.70167e-08
1.69253e-08
1.68336e-08
1.67414e-08
1.6649e-08
1.65561e-08
1.6463e-08
1.63697e-08
1.62762e-08
1.61827e-08
1.60891e-08
1.59955e-08
1.59021e-08
1.58087e-08
1.57156e-08
1.56229e-08
1.55303e-08
1.54378e-08
1.53456e-08
1.52538e-08
1.51623e-08
1.50712e-08
1.49804e-08
1.48897e-08
1.47995e-08
1.47097e-08
1.46204e-08
1.45313e-08
1.44423e-08
1.43535e-08
1.42659e-08
1.41797e-08
1.40947e-08
1.40109e-08
1.39284e-08
1.38471e-08
1.3767e-08
1.36881e-08
1.36103e-08
1.35336e-08
1.3458e-08
1.33835e-08
1.33101e-08
1.32376e-08
1.31662e-08
1.30958e-08
1.30264e-08
1.29579e-08
1.28902e-08
1.28232e-08
1.27569e-08
1.26913e-08
1.26264e-08
1.25621e-08
1.24984e-08
1.24353e-08
1.23729e-08
1.2311e-08
1.22498e-08
1.21893e-08
1.21293e-08
1.20698e-08
1.20109e-08
1.19525e-08
1.18945e-08
1.18371e-08
1.17801e-08
1.17235e-08
1.16674e-08
1.16117e-08
1.15565e-08
1.15018e-08
1.14476e-08
1.13939e-08
1.13407e-08
1.1288e-08
1.12356e-08
1.11837e-08
1.11322e-08
1.10811e-08
1.10306e-08
1.09805e-08
1.09309e-08
1.08819e-08
1.08333e-08
1.07852e-08
1.07375e-08
1.06903e-08
1.06435e-08
1.05972e-08
1.05513e-08
1.05059e-08
1.0461e-08
1.04166e-08
1.03727e-08
1.03293e-08
1.02864e-08
1.02441e-08
1.02022e-08
1.01607e-08
1.01198e-08
1.00794e-08
1.00396e-08
1.00004e-08
9.9617e-09
9.92354e-09
9.88588e-09
9.84873e-09
9.81209e-09
9.77596e-09
9.74037e-09
9.70531e-09
9.6708e-09
9.63683e-09
9.60339e-09
9.57046e-09
9.53802e-09
9.50605e-09
9.47455e-09
9.44355e-09
9.41306e-09
9.38308e-09
9.35363e-09
9.3247e-09
9.29625e-09
9.26827e-09
9.24077e-09
9.21378e-09
9.18728e-09
9.16128e-09
9.13572e-09
9.11067e-09
9.08591e-09
9.06162e-09
9.03776e-09
9.01409e-09
8.99103e-09
8.96884e-09
8.94621e-09
8.92474e-09
8.90342e-09
8.87999e-09
8.85948e-09
8.84193e-09
8.819e-09
8.80565e-09
8.78595e-09
8.78646e-09
8.76787e-09
8.75749e-09
8.741e-09
8.72688e-09
8.71097e-09
8.69608e-09
8.68076e-09
8.66594e-09
8.65099e-09
8.63629e-09
8.6219e-09
8.60706e-09
8.59304e-09
8.57998e-09
8.5655e-09
8.55372e-09
8.54026e-09
8.53191e-09
8.5192e-09
8.50841e-09
8.49684e-09
8.48581e-09
8.47504e-09
8.46446e-09
8.45463e-09
8.4447e-09
8.43406e-09
8.42442e-09
8.41666e-09
8.40534e-09
8.39892e-09
8.39058e-09
8.37026e-09
8.36405e-09
8.36277e-09
8.34071e-09
8.37784e-09
8.36227e-09
8.51012e-09
8.4923e-09
8.53149e-09
8.54594e-09
8.55579e-09
8.56129e-09
8.56397e-09
8.56474e-09
8.56415e-09
8.56254e-09
8.5602e-09
8.55738e-09
8.55418e-09
8.55068e-09
8.5469e-09
8.54292e-09
8.53876e-09
8.53442e-09
8.52992e-09
8.52524e-09
8.52043e-09
8.51549e-09
8.51046e-09
8.50539e-09
8.50031e-09
8.49524e-09
8.49015e-09
8.48504e-09
8.4799e-09
8.47469e-09
8.4694e-09
8.46397e-09
8.45842e-09
8.45271e-09
8.44684e-09
8.44088e-09
8.4349e-09
8.42896e-09
8.42308e-09
8.41733e-09
8.41173e-09
8.40629e-09
8.40098e-09
8.39578e-09
8.39064e-09
8.38554e-09
8.38047e-09
8.37546e-09
8.37055e-09
8.3658e-09
8.36126e-09
8.35695e-09
8.35279e-09
8.34865e-09
8.3444e-09
8.33995e-09
8.33543e-09
8.33111e-09
8.32723e-09
8.32359e-09
8.31968e-09
8.31521e-09
8.31024e-09
8.30525e-09
8.30083e-09
8.29692e-09
8.29267e-09
8.2879e-09
8.28307e-09
8.27911e-09
8.27607e-09
8.27243e-09
8.26852e-09
8.26565e-09
8.26386e-09
8.26084e-09
8.25701e-09
8.25258e-09
8.24683e-09
8.25867e-09
8.22735e-09
1.0001e-08
1.00034e-08
1.00115e-08
1.00329e-08
1.00798e-08
1.01682e-08
1.03144e-08
1.05298e-08
1.08151e-08
1.11596e-08
1.15418e-08
1.19357e-08
1.23184e-08
1.26704e-08
1.29758e-08
1.32315e-08
1.34409e-08
1.36097e-08
1.3745e-08
1.38496e-08
1.39205e-08
1.3965e-08
1.40032e-08
1.40641e-08
1.41584e-08
1.42491e-08
1.43023e-08
1.43232e-08
1.43508e-08
1.44035e-08
1.44521e-08
1.44913e-08
1.45396e-08
1.46178e-08
1.46763e-08
1.46772e-08
1.46573e-08
1.46738e-08
1.47496e-08
1.48155e-08
1.47859e-08
1.47171e-08
1.47167e-08
1.48363e-08
1.49798e-08
1.49497e-08
1.47964e-08
1.46837e-08
1.46497e-08
1.46277e-08
1.45822e-08
1.45667e-08
1.45583e-08
1.44508e-08
1.43159e-08
1.42585e-08
1.42473e-08
1.41838e-08
1.41037e-08
1.41478e-08
1.43546e-08
1.45351e-08
1.45216e-08
1.44037e-08
1.43901e-08
1.4501e-08
1.45457e-08
1.44321e-08
1.43002e-08
1.42452e-08
1.4276e-08
1.43978e-08
1.46804e-08
1.49846e-08
1.53494e-08
1.60123e-08
1.70042e-08
1.84722e-08
1.90462e-08
1.80327e-08
1.61479e-08
1.36722e-08
1.21955e-08
1.12553e-08
1.07774e-08
1.08092e-08
1.08857e-08
1.08571e-08
1.08033e-08
1.08473e-08
1.07977e-08
1.06654e-08
1.06406e-08
1.0663e-08
1.06941e-08
1.07007e-08
1.07072e-08
1.06826e-08
1.08505e-08
1.08852e-08
1.071e-08
1.0531e-08
1.04419e-08
1.04564e-08
1.04312e-08
1.04259e-08
1.04379e-08
1.04022e-08
1.03741e-08
1.03661e-08
1.03749e-08
1.03714e-08
1.03629e-08
1.03512e-08
1.03495e-08
1.03391e-08
1.04003e-08
1.04056e-08
1.03415e-08
1.03053e-08
1.03177e-08
1.03286e-08
1.03396e-08
1.03336e-08
1.03181e-08
1.02973e-08
1.02799e-08
1.02853e-08
1.029e-08
1.0278e-08
1.02593e-08
1.02683e-08
1.02757e-08
1.02727e-08
1.02592e-08
1.02537e-08
1.02699e-08
1.02708e-08
1.02636e-08
1.0254e-08
1.02712e-08
1.02718e-08
1.02652e-08
1.02675e-08
1.02748e-08
1.02694e-08
1.02585e-08
1.02577e-08
1.02733e-08
1.02696e-08
1.02679e-08
1.02707e-08
1.02516e-08
1.02437e-08
1.02616e-08
1.02695e-08
1.02596e-08
1.02439e-08
1.02447e-08
1.02597e-08
1.02628e-08
1.02493e-08
1.02385e-08
1.02511e-08
1.02628e-08
1.02549e-08
1.0242e-08
1.02457e-08
1.02573e-08
1.02615e-08
1.02472e-08
1.02369e-08
1.02502e-08
1.02587e-08
1.02491e-08
1.02428e-08
1.02428e-08
1.0245e-08
1.02436e-08
1.02425e-08
1.0242e-08
1.02368e-08
1.0237e-08
1.02392e-08
1.02351e-08
1.02274e-08
1.02215e-08
1.02266e-08
1.0227e-08
1.0222e-08
1.02157e-08
1.02161e-08
1.0214e-08
1.02084e-08
1.02036e-08
1.02003e-08
1.02007e-08
1.01965e-08
1.01886e-08
1.0182e-08
1.01821e-08
1.01807e-08
1.01776e-08
1.01691e-08
1.01635e-08
1.01578e-08
1.01571e-08
1.01566e-08
1.01483e-08
1.01415e-08
1.01377e-08
1.01377e-08
1.01304e-08
1.01256e-08
1.01204e-08
1.01145e-08
1.01143e-08
1.01095e-08
1.01058e-08
1.01025e-08
1.00945e-08
1.009e-08
1.0089e-08
1.00866e-08
1.00831e-08
1.00787e-08
1.00758e-08
1.00721e-08
1.00678e-08
1.00671e-08
1.00653e-08
1.00627e-08
1.00599e-08
1.00573e-08
1.00546e-08
1.00545e-08
1.00537e-08
1.00523e-08
1.00501e-08
1.00494e-08
1.00482e-08
1.00472e-08
1.00464e-08
1.00459e-08
1.00451e-08
1.00443e-08
1.00447e-08
1.00439e-08
1.00429e-08
1.00428e-08
1.00425e-08
1.00421e-08
1.00419e-08
1.00414e-08
1.00412e-08
1.00409e-08
1.00403e-08
1.00397e-08
1.00396e-08
1.00394e-08
1.0039e-08
1.00384e-08
1.00381e-08
1.00376e-08
1.00372e-08
1.00367e-08
1.00362e-08
1.00357e-08
1.00352e-08
1.00347e-08
1.00342e-08
1.00336e-08
1.0033e-08
1.00324e-08
1.00317e-08
1.00312e-08
1.00307e-08
1.00302e-08
1.00296e-08
1.0029e-08
1.00284e-08
1.00277e-08
1.00271e-08
1.00266e-08
1.0026e-08
1.00254e-08
1.00249e-08
1.00243e-08
1.00237e-08
1.00231e-08
1.00226e-08
1.0022e-08
1.00214e-08
1.00208e-08
1.00202e-08
1.00196e-08
1.00189e-08
1.00183e-08
1.00177e-08
1.00171e-08
1.00165e-08
1.00159e-08
1.00153e-08
1.00147e-08
1.00142e-08
1.00137e-08
1.00131e-08
1.00126e-08
1.00121e-08
1.00116e-08
1.0011e-08
1.00105e-08
1.001e-08
1.00096e-08
1.00091e-08
1.00086e-08
1.00081e-08
1.00076e-08
1.00072e-08
1.00067e-08
1.00063e-08
1.00058e-08
1.00054e-08
1.00049e-08
1.00045e-08
1.00041e-08
1.00037e-08
1.00033e-08
1.00029e-08
1.00025e-08
1.00022e-08
1.00019e-08
1.00015e-08
1.00012e-08
1.00009e-08
1.00007e-08
1.00004e-08
1.00001e-08
9.99983e-09
9.99956e-09
9.99929e-09
9.99904e-09
9.99878e-09
9.99853e-09
9.99829e-09
9.99806e-09
9.99784e-09
9.99762e-09
9.9974e-09
9.99719e-09
9.99698e-09
9.99677e-09
9.99656e-09
9.99635e-09
9.99614e-09
9.99593e-09
9.99573e-09
9.99554e-09
9.99533e-09
9.99513e-09
9.99492e-09
9.99472e-09
9.99452e-09
9.99431e-09
9.9941e-09
9.99388e-09
9.99367e-09
9.99347e-09
9.99327e-09
9.99307e-09
9.99288e-09
9.99269e-09
9.99249e-09
9.99228e-09
9.99207e-09
9.99186e-09
9.99165e-09
9.99145e-09
9.99123e-09
9.99102e-09
9.99081e-09
9.99059e-09
9.99036e-09
9.99012e-09
9.98988e-09
9.98965e-09
9.98943e-09
9.98921e-09
9.98899e-09
9.98877e-09
9.98854e-09
9.9883e-09
9.98805e-09
9.98781e-09
9.98756e-09
9.98733e-09
9.9871e-09
9.98688e-09
9.98666e-09
9.98644e-09
9.98621e-09
9.98598e-09
9.98576e-09
9.98554e-09
9.98533e-09
9.98511e-09
9.98488e-09
9.98465e-09
9.9844e-09
9.98416e-09
9.98393e-09
9.98371e-09
9.98355e-09
9.98335e-09
9.98321e-09
9.98298e-09
9.98262e-09
9.98243e-09
9.98237e-09
9.98216e-09
9.9827e-09
9.98233e-09
9.98086e-09
9.98058e-09
9.97977e-09
9.97937e-09
9.97664e-09
9.97701e-09
9.97933e-09
9.97984e-09
9.98046e-09
9.97961e-09
9.97946e-09
9.97915e-09
9.97904e-09
9.9789e-09
9.9788e-09
9.9787e-09
9.9788e-09
9.97869e-09
9.97818e-09
9.978e-09
9.97777e-09
9.97761e-09
9.97688e-09
9.97679e-09
9.97749e-09
9.97752e-09
9.97761e-09
9.97719e-09
9.97731e-09
9.97706e-09
9.97746e-09
9.97675e-09
9.97621e-09
9.97561e-09
9.97536e-09
9.9759e-09
9.97562e-09
9.97952e-09
9.97842e-09
9.97859e-09
9.97691e-09
9.98482e-09
9.98435e-09
1.00019e-08
1.00026e-08
9.98436e-09
9.98283e-09
9.98397e-09
9.98146e-09
9.97889e-09
9.97704e-09
9.97591e-09
9.9751e-09
9.97463e-09
9.97438e-09
9.97424e-09
9.97418e-09
9.97415e-09
9.97415e-09
9.97418e-09
9.9742e-09
9.9742e-09
9.97419e-09
9.97419e-09
9.97422e-09
9.97426e-09
9.9743e-09
9.97431e-09
9.97429e-09
9.97426e-09
9.97423e-09
9.97421e-09
9.9742e-09
9.97421e-09
9.97425e-09
9.97431e-09
9.97438e-09
9.97446e-09
9.97455e-09
9.97463e-09
9.97468e-09
9.97472e-09
9.97476e-09
9.97479e-09
9.97481e-09
9.97482e-09
9.97482e-09
9.97479e-09
9.97474e-09
9.97467e-09
9.97459e-09
9.97452e-09
9.97447e-09
9.97444e-09
9.97443e-09
9.97444e-09
9.97444e-09
9.97447e-09
9.97451e-09
9.97453e-09
9.97451e-09
9.97445e-09
9.97436e-09
9.97431e-09
9.97435e-09
9.97435e-09
9.97427e-09
9.97415e-09
9.97396e-09
9.97387e-09
9.97403e-09
9.97415e-09
9.97406e-09
9.97388e-09
9.97376e-09
9.974e-09
9.97415e-09
9.97405e-09
9.97399e-09
9.97415e-09
9.97417e-09
9.97399e-09
9.97394e-09
9.97391e-09
9.97405e-09
9.97349e-09
9.97754e-09
9.97405e-09
1.0001e-08
1.00017e-08
1.00026e-08
1.00048e-08
1.00098e-08
1.002e-08
1.00375e-08
1.00641e-08
1.01002e-08
1.0145e-08
1.01961e-08
1.025e-08
1.03034e-08
1.03535e-08
1.03979e-08
1.04361e-08
1.04683e-08
1.04951e-08
1.05171e-08
1.05346e-08
1.05474e-08
1.05565e-08
1.05653e-08
1.05783e-08
1.05957e-08
1.06118e-08
1.06216e-08
1.06264e-08
1.0633e-08
1.06436e-08
1.06529e-08
1.06589e-08
1.06664e-08
1.0681e-08
1.06975e-08
1.07026e-08
1.0696e-08
1.06907e-08
1.06931e-08
1.06988e-08
1.06938e-08
1.06796e-08
1.06744e-08
1.06869e-08
1.07054e-08
1.07016e-08
1.06724e-08
1.06454e-08
1.0632e-08
1.06249e-08
1.06184e-08
1.06141e-08
1.06074e-08
1.05855e-08
1.05596e-08
1.05447e-08
1.05376e-08
1.05208e-08
1.05025e-08
1.05078e-08
1.05439e-08
1.05783e-08
1.05769e-08
1.05593e-08
1.05631e-08
1.05881e-08
1.05983e-08
1.05788e-08
1.05534e-08
1.05399e-08
1.05477e-08
1.05762e-08
1.06329e-08
1.06973e-08
1.07711e-08
1.09011e-08
1.1111e-08
1.15106e-08
1.19712e-08
1.21145e-08
1.18836e-08
1.13422e-08
1.08261e-08
1.04616e-08
1.02334e-08
1.01347e-08
1.00957e-08
1.00684e-08
1.00496e-08
1.00531e-08
1.00507e-08
1.0044e-08
1.00423e-08
1.00422e-08
1.00421e-08
1.0043e-08
1.00428e-08
1.00417e-08
1.00481e-08
1.00523e-08
1.00474e-08
1.00456e-08
1.00451e-08
1.00424e-08
1.00383e-08
1.00356e-08
1.00351e-08
1.00331e-08
1.00314e-08
1.00307e-08
1.00308e-08
1.00302e-08
1.00293e-08
1.00286e-08
1.00282e-08
1.00277e-08
1.0029e-08
1.00297e-08
1.00285e-08
1.00289e-08
1.00298e-08
1.00294e-08
1.00303e-08
1.003e-08
1.00286e-08
1.00278e-08
1.00269e-08
1.00266e-08
1.00265e-08
1.00259e-08
1.00251e-08
1.00254e-08
1.00257e-08
1.00255e-08
1.00246e-08
1.00246e-08
1.00254e-08
1.0025e-08
1.00249e-08
1.00246e-08
1.00252e-08
1.0025e-08
1.00248e-08
1.00249e-08
1.00251e-08
1.00248e-08
1.00243e-08
1.00242e-08
1.00248e-08
1.00246e-08
1.00245e-08
1.00246e-08
1.00239e-08
1.00236e-08
1.00242e-08
1.00245e-08
1.00241e-08
1.00235e-08
1.00235e-08
1.0024e-08
1.00241e-08
1.00235e-08
1.00231e-08
1.00234e-08
1.00238e-08
1.00235e-08
1.0023e-08
1.0023e-08
1.00233e-08
1.00235e-08
1.00228e-08
1.00224e-08
1.00227e-08
1.0023e-08
1.00226e-08
1.00223e-08
1.00222e-08
1.00222e-08
1.00221e-08
1.0022e-08
1.00219e-08
1.00216e-08
1.00216e-08
1.00216e-08
1.00213e-08
1.0021e-08
1.00207e-08
1.00208e-08
1.00208e-08
1.00205e-08
1.00203e-08
1.00202e-08
1.00201e-08
1.00198e-08
1.00196e-08
1.00194e-08
1.00194e-08
1.00192e-08
1.00189e-08
1.00187e-08
1.00186e-08
1.00185e-08
1.00184e-08
1.00182e-08
1.0018e-08
1.00178e-08
1.00177e-08
1.00176e-08
1.00174e-08
1.00172e-08
1.0017e-08
1.0017e-08
1.00168e-08
1.00166e-08
1.00165e-08
1.00163e-08
1.00163e-08
1.00161e-08
1.0016e-08
1.0016e-08
1.00158e-08
1.00156e-08
1.00155e-08
1.00154e-08
1.00154e-08
1.00153e-08
1.00152e-08
1.00151e-08
1.0015e-08
1.00149e-08
1.00148e-08
1.00148e-08
1.00147e-08
1.00146e-08
1.00144e-08
1.00143e-08
1.00142e-08
1.00142e-08
1.00142e-08
1.00141e-08
1.00139e-08
1.00137e-08
1.00137e-08
1.00137e-08
1.00135e-08
1.00133e-08
1.00133e-08
1.00135e-08
1.00132e-08
1.0013e-08
1.0013e-08
1.0013e-08
1.00129e-08
1.00129e-08
1.00129e-08
1.00128e-08
1.00127e-08
1.00127e-08
1.00127e-08
1.00127e-08
1.00126e-08
1.00125e-08
1.00124e-08
1.00124e-08
1.00124e-08
1.00123e-08
1.00123e-08
1.00122e-08
1.00122e-08
1.00121e-08
1.00121e-08
1.0012e-08
1.0012e-08
1.00119e-08
1.00119e-08
1.00118e-08
1.00118e-08
1.00117e-08
1.00117e-08
1.00117e-08
1.00116e-08
1.00116e-08
1.00115e-08
1.00115e-08
1.00114e-08
1.00114e-08
1.00114e-08
1.00113e-08
1.00113e-08
1.00112e-08
1.00112e-08
1.00111e-08
1.00111e-08
1.00111e-08
1.00111e-08
1.0011e-08
1.0011e-08
1.00109e-08
1.00109e-08
1.00109e-08
1.00108e-08
1.00108e-08
1.00107e-08
1.00107e-08
1.00107e-08
1.00106e-08
1.00106e-08
1.00105e-08
1.00105e-08
1.00105e-08
1.00104e-08
1.00104e-08
1.00103e-08
1.00103e-08
1.00103e-08
1.00102e-08
1.00102e-08
1.00101e-08
1.00101e-08
1.001e-08
1.001e-08
1.00099e-08
1.00099e-08
1.00098e-08
1.00097e-08
1.00097e-08
1.00096e-08
1.00095e-08
1.00095e-08
1.00094e-08
1.00093e-08
1.00093e-08
1.00092e-08
1.00091e-08
1.00091e-08
1.0009e-08
1.00089e-08
1.00089e-08
1.00088e-08
1.00087e-08
1.00087e-08
1.00086e-08
1.00085e-08
1.00085e-08
1.00084e-08
1.00083e-08
1.00083e-08
1.00082e-08
1.00081e-08
1.00081e-08
1.0008e-08
1.00079e-08
1.00079e-08
1.00078e-08
1.00077e-08
1.00077e-08
1.00076e-08
1.00076e-08
1.00075e-08
1.00074e-08
1.00074e-08
1.00073e-08
1.00073e-08
1.00072e-08
1.00071e-08
1.00071e-08
1.0007e-08
1.0007e-08
1.00069e-08
1.00069e-08
1.00068e-08
1.00068e-08
1.00067e-08
1.00067e-08
1.00066e-08
1.00066e-08
1.00065e-08
1.00065e-08
1.00064e-08
1.00064e-08
1.00063e-08
1.00063e-08
1.00062e-08
1.00061e-08
1.00061e-08
1.00061e-08
1.0006e-08
1.0006e-08
1.00059e-08
1.00059e-08
1.00058e-08
1.00057e-08
1.00057e-08
1.00056e-08
1.00056e-08
1.00055e-08
1.00055e-08
1.00054e-08
1.00054e-08
1.00053e-08
1.00052e-08
1.00052e-08
1.00051e-08
1.00051e-08
1.0005e-08
1.0005e-08
1.00049e-08
1.00048e-08
1.00048e-08
1.00047e-08
1.00047e-08
1.00046e-08
1.00046e-08
1.00045e-08
1.00044e-08
1.00044e-08
1.00043e-08
1.00043e-08
1.00042e-08
1.0004e-08
1.00039e-08
1.00038e-08
1.00037e-08
1.0002e-08
1.0002e-08
1.00035e-08
1.00035e-08
1.00036e-08
1.00035e-08
1.00035e-08
1.00034e-08
1.00033e-08
1.00032e-08
1.00031e-08
1.00031e-08
1.0003e-08
1.00028e-08
1.00027e-08
1.00026e-08
1.00025e-08
1.00025e-08
1.0002e-08
1.00019e-08
1.00023e-08
1.00023e-08
1.00022e-08
1.00022e-08
1.00023e-08
1.00021e-08
1.00021e-08
1.00019e-08
1.00016e-08
1.00013e-08
1.00018e-08
1.00012e-08
1.0001e-08
1.00024e-08
1.0002e-08
1.00019e-08
1.0001e-08
1.00041e-08
1.00039e-08
1.00061e-08
1.00061e-08
1.00029e-08
1.00033e-08
1.00029e-08
1.00028e-08
1.00024e-08
1.00016e-08
1.00003e-08
9.99964e-09
9.99948e-09
9.99903e-09
9.99856e-09
9.99826e-09
9.99813e-09
9.99807e-09
9.9981e-09
9.99819e-09
9.99828e-09
9.99835e-09
9.99843e-09
9.99852e-09
9.99863e-09
9.99875e-09
9.99888e-09
9.99899e-09
9.99909e-09
9.99916e-09
9.9992e-09
9.99922e-09
9.99921e-09
9.99921e-09
9.99923e-09
9.99928e-09
9.99936e-09
9.99944e-09
9.99951e-09
9.99953e-09
9.99951e-09
9.99945e-09
9.99939e-09
9.99936e-09
9.99936e-09
9.99941e-09
9.99949e-09
9.99958e-09
9.99963e-09
9.99963e-09
9.99958e-09
9.99951e-09
9.99944e-09
9.99941e-09
9.99941e-09
9.99941e-09
9.99936e-09
9.99929e-09
9.99924e-09
9.99925e-09
9.99933e-09
9.99941e-09
9.99947e-09
9.99947e-09
9.99933e-09
9.99915e-09
9.99902e-09
9.99884e-09
9.99877e-09
9.99884e-09
9.99892e-09
9.99917e-09
9.9991e-09
9.9987e-09
9.99873e-09
9.99879e-09
9.99929e-09
9.99916e-09
9.99861e-09
9.99862e-09
9.9987e-09
9.99891e-09
9.99854e-09
9.9986e-09
9.99861e-09
9.99874e-09
9.99864e-09
9.99862e-09
1.00017e-08
9.9994e-09
1.00007e-08
1.00014e-08
1.0002e-08
1.00029e-08
1.00045e-08
1.00069e-08
1.00108e-08
1.00164e-08
1.00237e-08
1.00325e-08
1.0042e-08
1.00518e-08
1.00612e-08
1.00699e-08
1.00773e-08
1.00836e-08
1.00888e-08
1.00931e-08
1.00965e-08
1.00992e-08
1.01013e-08
1.01029e-08
1.01044e-08
1.01062e-08
1.01084e-08
1.01103e-08
1.01116e-08
1.01124e-08
1.01133e-08
1.01145e-08
1.01155e-08
1.01162e-08
1.01173e-08
1.01197e-08
1.01228e-08
1.01248e-08
1.01246e-08
1.01232e-08
1.01221e-08
1.01217e-08
1.01209e-08
1.01191e-08
1.01177e-08
1.01181e-08
1.01195e-08
1.01189e-08
1.01154e-08
1.01113e-08
1.01083e-08
1.01067e-08
1.01057e-08
1.0105e-08
1.01034e-08
1.00998e-08
1.00954e-08
1.00922e-08
1.009e-08
1.00864e-08
1.00828e-08
1.00829e-08
1.00875e-08
1.00919e-08
1.00913e-08
1.00896e-08
1.00913e-08
1.00951e-08
1.00962e-08
1.00937e-08
1.00902e-08
1.00876e-08
1.00878e-08
1.00915e-08
1.00996e-08
1.01096e-08
1.01207e-08
1.01388e-08
1.01717e-08
1.02391e-08
1.03352e-08
1.03906e-08
1.03937e-08
1.03341e-08
1.02495e-08
1.01711e-08
1.01097e-08
1.0072e-08
1.00531e-08
1.00453e-08
1.00435e-08
1.00409e-08
1.0036e-08
1.00306e-08
1.0027e-08
1.00245e-08
1.00232e-08
1.00227e-08
1.00226e-08
1.00225e-08
1.00227e-08
1.00227e-08
1.00226e-08
1.00227e-08
1.00229e-08
1.00229e-08
1.00229e-08
1.0023e-08
1.00231e-08
1.00233e-08
1.00236e-08
1.00236e-08
1.0023e-08
1.00225e-08
1.0022e-08
1.00217e-08
1.00215e-08
1.00213e-08
1.00211e-08
1.0021e-08
1.00209e-08
1.00209e-08
1.0021e-08
1.0021e-08
1.00211e-08
1.00212e-08
1.00214e-08
1.00221e-08
1.00221e-08
1.00212e-08
1.00207e-08
1.00203e-08
1.00201e-08
1.00199e-08
1.00197e-08
1.00195e-08
1.00193e-08
1.00192e-08
1.00193e-08
1.00191e-08
1.00192e-08
1.00192e-08
1.00192e-08
1.00191e-08
1.0019e-08
1.00189e-08
1.00188e-08
1.00188e-08
1.00187e-08
1.00186e-08
1.00186e-08
1.00185e-08
1.00185e-08
1.00185e-08
1.00185e-08
1.00184e-08
1.00184e-08
1.00184e-08
1.00184e-08
1.00183e-08
1.00183e-08
1.00183e-08
1.00183e-08
1.00182e-08
1.00182e-08
1.00181e-08
1.00181e-08
1.0018e-08
1.0018e-08
1.00179e-08
1.00178e-08
1.00178e-08
1.00177e-08
1.00176e-08
1.00175e-08
1.00175e-08
1.00175e-08
1.00174e-08
1.00173e-08
1.00173e-08
1.00172e-08
1.00171e-08
1.00171e-08
1.0017e-08
1.00169e-08
1.00169e-08
1.00168e-08
1.00167e-08
1.00167e-08
1.00166e-08
1.00166e-08
1.00165e-08
1.00164e-08
1.00164e-08
1.00163e-08
1.00163e-08
1.00162e-08
1.00161e-08
1.00161e-08
1.0016e-08
1.0016e-08
1.00159e-08
1.00158e-08
1.00158e-08
1.00157e-08
1.00157e-08
1.00156e-08
1.00156e-08
1.00155e-08
1.00155e-08
1.00154e-08
1.00153e-08
1.00153e-08
1.00152e-08
1.00152e-08
1.00151e-08
1.00151e-08
1.0015e-08
1.00149e-08
1.00149e-08
1.00148e-08
1.00148e-08
1.00147e-08
1.00147e-08
1.00146e-08
1.00146e-08
1.00145e-08
1.00144e-08
1.00144e-08
1.00143e-08
1.00143e-08
1.00142e-08
1.00142e-08
1.00141e-08
1.00141e-08
1.0014e-08
1.00139e-08
1.00138e-08
1.00137e-08
1.00137e-08
1.00137e-08
1.00137e-08
1.00135e-08
1.00133e-08
1.00133e-08
1.00133e-08
1.00132e-08
1.00129e-08
1.0013e-08
1.00131e-08
1.00128e-08
1.00126e-08
1.00127e-08
1.00126e-08
1.00125e-08
1.00125e-08
1.00124e-08
1.00123e-08
1.00122e-08
1.00122e-08
1.00122e-08
1.00122e-08
1.00121e-08
1.0012e-08
1.00119e-08
1.00119e-08
1.00119e-08
1.00118e-08
1.00118e-08
1.00118e-08
1.00117e-08
1.00116e-08
1.00116e-08
1.00116e-08
1.00116e-08
1.00114e-08
1.00114e-08
1.00114e-08
1.00113e-08
1.00113e-08
1.00112e-08
1.00112e-08
1.00111e-08
1.00111e-08
1.00111e-08
1.0011e-08
1.00109e-08
1.00109e-08
1.00109e-08
1.00109e-08
1.00108e-08
1.00108e-08
1.00107e-08
1.00107e-08
1.00107e-08
1.00106e-08
1.00106e-08
1.00105e-08
1.00105e-08
1.00105e-08
1.00104e-08
1.00104e-08
1.00104e-08
1.00103e-08
1.00103e-08
1.00103e-08
1.00102e-08
1.00102e-08
1.00102e-08
1.00101e-08
1.00101e-08
1.001e-08
1.001e-08
1.001e-08
1.00099e-08
1.00099e-08
1.00098e-08
1.00098e-08
1.00097e-08
1.00097e-08
1.00096e-08
1.00096e-08
1.00095e-08
1.00095e-08
1.00094e-08
1.00094e-08
1.00093e-08
1.00093e-08
1.00092e-08
1.00091e-08
1.00091e-08
1.0009e-08
1.00089e-08
1.00089e-08
1.00088e-08
1.00087e-08
1.00087e-08
1.00086e-08
1.00085e-08
1.00085e-08
1.00084e-08
1.00083e-08
1.00083e-08
1.00082e-08
1.00082e-08
1.00081e-08
1.0008e-08
1.0008e-08
1.00079e-08
1.00078e-08
1.00078e-08
1.00077e-08
1.00076e-08
1.00076e-08
1.00075e-08
1.00075e-08
1.00074e-08
1.00074e-08
1.00073e-08
1.00072e-08
1.00072e-08
1.00071e-08
1.00071e-08
1.0007e-08
1.0007e-08
1.00069e-08
1.00069e-08
1.00068e-08
1.00068e-08
1.00067e-08
1.00067e-08
1.00066e-08
1.00066e-08
1.00065e-08
1.00065e-08
1.00064e-08
1.00064e-08
1.00063e-08
1.00063e-08
1.00062e-08
1.00062e-08
1.00061e-08
1.00061e-08
1.0006e-08
1.0006e-08
1.00059e-08
1.00059e-08
1.00058e-08
1.00058e-08
1.00058e-08
1.00057e-08
1.00056e-08
1.00056e-08
1.00055e-08
1.00055e-08
1.00055e-08
1.00054e-08
1.00054e-08
1.00053e-08
1.00053e-08
1.00052e-08
1.00052e-08
1.00051e-08
1.00051e-08
1.0005e-08
1.0005e-08
1.00049e-08
1.00049e-08
1.00048e-08
1.00047e-08
1.00047e-08
1.00046e-08
1.00046e-08
1.00045e-08
1.00045e-08
1.00044e-08
1.00044e-08
1.00043e-08
1.00041e-08
1.00041e-08
1.0004e-08
1.00039e-08
1.00025e-08
1.00025e-08
1.00038e-08
1.00037e-08
1.00038e-08
1.00037e-08
1.00037e-08
1.00037e-08
1.00036e-08
1.00035e-08
1.00034e-08
1.00034e-08
1.00033e-08
1.00031e-08
1.0003e-08
1.0003e-08
1.00029e-08
1.00028e-08
1.00024e-08
1.00024e-08
1.00027e-08
1.00027e-08
1.00027e-08
1.00026e-08
1.00026e-08
1.00025e-08
1.00025e-08
1.00023e-08
1.0002e-08
1.00019e-08
1.00025e-08
1.00022e-08
1.00031e-08
1.00026e-08
1.00009e-08
1.0002e-08
1.00012e-08
1.00041e-08
1.00041e-08
1.00064e-08
1.00064e-08
1.00036e-08
1.00042e-08
1.0004e-08
1.00039e-08
1.00037e-08
1.00036e-08
1.00031e-08
1.00028e-08
1.00024e-08
1.00019e-08
1.00016e-08
1.00012e-08
1.00008e-08
1.00003e-08
1e-08
9.99978e-09
9.99958e-09
9.99948e-09
9.99943e-09
9.99939e-09
9.99936e-09
9.99935e-09
9.99937e-09
9.99941e-09
9.99946e-09
9.99952e-09
9.99957e-09
9.99961e-09
9.99964e-09
9.99966e-09
9.99966e-09
9.99965e-09
9.99965e-09
9.9997e-09
9.99979e-09
9.99989e-09
9.99997e-09
1e-08
9.99998e-09
9.9999e-09
9.99981e-09
9.99974e-09
9.99971e-09
9.99972e-09
9.99978e-09
9.99987e-09
9.99995e-09
1e-08
1e-08
9.99998e-09
9.99993e-09
9.99989e-09
9.99988e-09
9.99988e-09
9.99986e-09
9.99976e-09
9.99965e-09
9.99959e-09
9.99964e-09
9.99976e-09
9.99986e-09
9.99993e-09
9.99988e-09
9.99966e-09
9.99941e-09
9.99928e-09
9.99921e-09
9.99926e-09
9.99937e-09
9.99952e-09
9.99958e-09
9.99929e-09
9.99915e-09
9.99922e-09
9.99967e-09
9.99981e-09
9.99918e-09
9.99914e-09
9.99904e-09
9.99926e-09
9.9991e-09
9.99916e-09
9.99903e-09
9.99928e-09
9.99944e-09
9.99924e-09
9.99909e-09
1.00025e-08
1e-08
1.00007e-08
1.00013e-08
1.00018e-08
1.00025e-08
1.00036e-08
1.00052e-08
1.00075e-08
1.00107e-08
1.00145e-08
1.00188e-08
1.00233e-08
1.00275e-08
1.00312e-08
1.00343e-08
1.00367e-08
1.00385e-08
1.00398e-08
1.00407e-08
1.00413e-08
1.00417e-08
1.00419e-08
1.0042e-08
1.00421e-08
1.00421e-08
1.00422e-08
1.00423e-08
1.00423e-08
1.00422e-08
1.00422e-08
1.00422e-08
1.00421e-08
1.0042e-08
1.00421e-08
1.00422e-08
1.00424e-08
1.00426e-08
1.00425e-08
1.00423e-08
1.0042e-08
1.00418e-08
1.00417e-08
1.00416e-08
1.00416e-08
1.00418e-08
1.00419e-08
1.00418e-08
1.00414e-08
1.00408e-08
1.00402e-08
1.00396e-08
1.0039e-08
1.00385e-08
1.0038e-08
1.00373e-08
1.00364e-08
1.00355e-08
1.00348e-08
1.0034e-08
1.00333e-08
1.0033e-08
1.00332e-08
1.00332e-08
1.00328e-08
1.00323e-08
1.00323e-08
1.00325e-08
1.00324e-08
1.00319e-08
1.00314e-08
1.0031e-08
1.00308e-08
1.00311e-08
1.00321e-08
1.00335e-08
1.00351e-08
1.00373e-08
1.00413e-08
1.005e-08
1.00638e-08
1.0075e-08
1.00801e-08
1.0076e-08
1.0065e-08
1.00536e-08
1.00436e-08
1.00367e-08
1.00333e-08
1.00326e-08
1.00335e-08
1.00346e-08
1.00368e-08
1.00394e-08
1.00381e-08
1.00341e-08
1.00294e-08
1.00259e-08
1.00235e-08
1.00223e-08
1.00218e-08
1.00215e-08
1.00214e-08
1.00213e-08
1.00213e-08
1.00212e-08
1.00212e-08
1.00213e-08
1.00215e-08
1.00218e-08
1.00219e-08
1.00222e-08
1.00225e-08
1.0023e-08
1.0023e-08
1.00223e-08
1.00218e-08
1.00215e-08
1.00212e-08
1.00208e-08
1.00207e-08
1.00205e-08
1.00203e-08
1.00204e-08
1.00205e-08
1.00205e-08
1.00206e-08
1.00206e-08
1.00209e-08
1.00212e-08
1.00219e-08
1.00218e-08
1.00209e-08
1.00204e-08
1.002e-08
1.00198e-08
1.00194e-08
1.00193e-08
1.00191e-08
1.0019e-08
1.0019e-08
1.00191e-08
1.0019e-08
1.0019e-08
1.00189e-08
1.00188e-08
1.00187e-08
1.00187e-08
1.00186e-08
1.00185e-08
1.00185e-08
1.00184e-08
1.00184e-08
1.00184e-08
1.00184e-08
1.00184e-08
1.00183e-08
1.00183e-08
1.00183e-08
1.00183e-08
1.00183e-08
1.00182e-08
1.00182e-08
1.00181e-08
1.00181e-08
1.00181e-08
1.0018e-08
1.00179e-08
1.00179e-08
1.00178e-08
1.00178e-08
1.00177e-08
1.00176e-08
1.00176e-08
1.00175e-08
1.00175e-08
1.00174e-08
1.00173e-08
1.00173e-08
1.00172e-08
1.00172e-08
1.00171e-08
1.0017e-08
1.0017e-08
1.00169e-08
1.00168e-08
1.00167e-08
1.00167e-08
1.00166e-08
1.00166e-08
1.00165e-08
1.00165e-08
1.00164e-08
1.00163e-08
1.00163e-08
1.00163e-08
1.00162e-08
1.00161e-08
1.00161e-08
1.0016e-08
1.0016e-08
1.00159e-08
1.00158e-08
1.00158e-08
1.00157e-08
1.00157e-08
1.00156e-08
1.00156e-08
1.00155e-08
1.00154e-08
1.00154e-08
1.00153e-08
1.00152e-08
1.00152e-08
1.00151e-08
1.0015e-08
1.0015e-08
1.00149e-08
1.00149e-08
1.00148e-08
1.00147e-08
1.00147e-08
1.00146e-08
1.00146e-08
1.00145e-08
1.00144e-08
1.00144e-08
1.00143e-08
1.00143e-08
1.00142e-08
1.00142e-08
1.00141e-08
1.00141e-08
1.0014e-08
1.0014e-08
1.00139e-08
1.00139e-08
1.00138e-08
1.00138e-08
1.00137e-08
1.00137e-08
1.00136e-08
1.00136e-08
1.00135e-08
1.00135e-08
1.00134e-08
1.00133e-08
1.00131e-08
1.00132e-08
1.00131e-08
1.00128e-08
1.00127e-08
1.00128e-08
1.00127e-08