/*--------------------------------*- C++ -*----------------------------------*\
| =========                 |                                                 |
| \\      /  F ield         | OpenFOAM: The Open Source CFD Toolbox           |
|  \\    /   O peration     | Version:  v2006                                 |
|   \\  /    A nd           | Website:  www.openfoam.com                      |
|    \\/     M anipulation  |                                                 |
\*---------------------------------------------------------------------------*/
FoamFile
{
    version     2.0;
    format      ascii;
    class       volScalarField;
    location    "2.9";
    object      nut;
}
// * * * * * * * * * * * * * * * * * * * * * * * * * * * * * * * * * * * * * //

dimensions      [0 2 -1 0 0 0 0];


internalField   nonuniform List<scalar> 
33000
(
4.92983e-10
5.86424e-10
6.20833e-10
6.27921e-10
6.28063e-10
6.66216e-10
7.40749e-10
8.431e-10
9.62434e-10
1.0946e-09
1.23702e-09
1.37696e-09
1.49581e-09
1.58876e-09
1.65726e-09
1.70004e-09
1.72351e-09
1.73035e-09
1.72462e-09
1.713e-09
1.70067e-09
1.68473e-09
1.66126e-09
1.6315e-09
1.60821e-09
1.59641e-09
1.59242e-09
1.57745e-09
1.55454e-09
1.54033e-09
1.53501e-09
1.52828e-09
1.51427e-09
1.50687e-09
1.50544e-09
1.5064e-09
1.50025e-09
1.48866e-09
1.48556e-09
1.48774e-09
1.49111e-09
1.48899e-09
1.47815e-09
1.47225e-09
1.47769e-09
1.48413e-09
1.48295e-09
1.47516e-09
1.47003e-09
1.46827e-09
1.46374e-09
1.45579e-09
1.45266e-09
1.45226e-09
1.44488e-09
1.43598e-09
1.43463e-09
1.43717e-09
1.43593e-09
1.42943e-09
1.42657e-09
1.43612e-09
1.44801e-09
1.45173e-09
1.44803e-09
1.4511e-09
1.46721e-09
1.48087e-09
1.48693e-09
1.49548e-09
1.51017e-09
1.51944e-09
1.53155e-09
1.55147e-09
1.55812e-09
1.55336e-09
1.4897e-09
1.44681e-09
1.85629e-09
1.99771e-09
2.1344e-09
2.42843e-09
2.33151e-09
2.81935e-09
2.8939e-09
2.96405e-09
3.0672e-09
3.09229e-09
3.01517e-09
2.96713e-09
3.02565e-09
3.03843e-09
3.03085e-09
3.03671e-09
3.01547e-09
3.01068e-09
2.97771e-09
2.91943e-09
2.80471e-09
3.03758e-09
3.28342e-09
3.2775e-09
3.28575e-09
3.21541e-09
3.39495e-09
3.46675e-09
3.51956e-09
3.55942e-09
3.56694e-09
3.53807e-09
3.53127e-09
3.55949e-09
3.58045e-09
3.59422e-09
3.59333e-09
3.55765e-09
3.51547e-09
3.83871e-09
4.0949e-09
4.15591e-09
4.23872e-09
4.22034e-09
4.44193e-09
4.52679e-09
4.60848e-09
4.68648e-09
4.71293e-09
4.76668e-09
4.85414e-09
4.93797e-09
5.02113e-09
5.10488e-09
5.194e-09
5.29235e-09
5.39418e-09
5.49265e-09
5.59448e-09
5.70878e-09
5.82925e-09
5.94231e-09
6.057e-09
6.18953e-09
6.32601e-09
6.45565e-09
6.5919e-09
6.74607e-09
6.90327e-09
7.05065e-09
7.20704e-09
7.38823e-09
7.56506e-09
7.76305e-09
7.96899e-09
8.14378e-09
8.33265e-09
8.56831e-09
8.82624e-09
9.06583e-09
9.27872e-09
9.52203e-09
9.82723e-09
1.01435e-08
1.04138e-08
1.06817e-08
1.10418e-08
1.14418e-08
1.17826e-08
1.21198e-08
1.25246e-08
1.30183e-08
1.35326e-08
1.39595e-08
1.44043e-08
1.50143e-08
1.57008e-08
1.63538e-08
1.6994e-08
1.77117e-08
1.85677e-08
1.94798e-08
2.05235e-08
2.16284e-08
2.26961e-08
2.40168e-08
2.56188e-08
2.57003e-08
2.57364e-08
2.57843e-08
2.58407e-08
2.58997e-08
2.59568e-08
2.60188e-08
2.60919e-08
2.61618e-08
2.62342e-08
2.63028e-08
2.63741e-08
2.64491e-08
2.65231e-08
2.65858e-08
2.66539e-08
2.67285e-08
2.6801e-08
2.687e-08
2.6931e-08
2.69856e-08
2.70269e-08
2.7079e-08
2.71209e-08
2.71494e-08
2.71652e-08
2.71824e-08
2.71971e-08
2.71983e-08
2.72e-08
2.71842e-08
2.71706e-08
2.71571e-08
2.71315e-08
2.71066e-08
2.70742e-08
2.70304e-08
2.69874e-08
2.69451e-08
2.6897e-08
2.68435e-08
2.67861e-08
2.67277e-08
2.66604e-08
2.65936e-08
2.65275e-08
2.64568e-08
2.63833e-08
2.63071e-08
2.6226e-08
2.61447e-08
2.60641e-08
2.59817e-08
2.57058e-08
2.52838e-08
2.48392e-08
2.4455e-08
2.40892e-08
2.3739e-08
2.33971e-08
2.312e-08
2.27988e-08
2.24581e-08
2.22196e-08
2.198e-08
2.17138e-08
2.14742e-08
2.12425e-08
2.10262e-08
2.0812e-08
2.05834e-08
2.0384e-08
2.02225e-08
2.00282e-08
1.98252e-08
1.96422e-08
1.94909e-08
1.93384e-08
1.916e-08
1.89989e-08
1.88412e-08
1.86808e-08
1.85291e-08
1.84037e-08
1.82726e-08
1.81292e-08
1.79881e-08
1.78509e-08
1.77216e-08
1.75907e-08
1.74636e-08
1.73445e-08
1.72227e-08
1.71057e-08
1.69905e-08
1.6876e-08
1.67551e-08
1.66412e-08
1.65364e-08
1.64301e-08
1.63301e-08
1.6227e-08
1.6121e-08
1.60188e-08
1.59181e-08
1.58204e-08
1.57302e-08
1.56384e-08
1.55429e-08
1.54514e-08
1.53611e-08
1.52732e-08
1.51876e-08
1.51024e-08
1.50187e-08
1.49364e-08
1.48557e-08
1.47773e-08
1.47004e-08
1.46238e-08
1.45491e-08
1.44778e-08
1.44086e-08
1.43395e-08
1.42716e-08
1.42066e-08
1.41434e-08
1.40814e-08
1.4022e-08
1.39653e-08
1.39114e-08
1.38604e-08
1.3812e-08
1.37661e-08
1.3723e-08
1.3683e-08
1.36459e-08
1.36118e-08
1.35802e-08
1.3551e-08
1.35249e-08
1.35028e-08
1.34833e-08
1.34659e-08
1.34519e-08
1.34408e-08
1.34329e-08
1.34282e-08
1.34265e-08
1.34279e-08
1.34327e-08
1.34407e-08
1.34518e-08
1.34662e-08
1.34837e-08
1.35048e-08
1.35291e-08
1.35565e-08
1.35872e-08
1.36214e-08
1.36593e-08
1.37005e-08
1.37451e-08
1.37933e-08
1.38451e-08
1.39007e-08
1.39602e-08
1.40229e-08
1.40892e-08
1.41594e-08
1.42333e-08
1.42174e-08
1.41511e-08
1.40854e-08
1.40202e-08
1.39555e-08
1.38914e-08
1.38278e-08
1.37648e-08
1.37024e-08
1.36406e-08
1.35795e-08
1.3519e-08
1.3459e-08
1.33997e-08
1.33408e-08
1.32826e-08
1.32249e-08
1.31677e-08
1.31111e-08
1.30552e-08
1.29998e-08
1.29451e-08
1.28911e-08
1.28377e-08
1.27849e-08
1.27326e-08
1.2681e-08
1.263e-08
1.25797e-08
1.25301e-08
1.24812e-08
1.2433e-08
1.23854e-08
1.23385e-08
1.22922e-08
1.22465e-08
1.22015e-08
1.21572e-08
1.21135e-08
1.20705e-08
1.20281e-08
1.19864e-08
1.19454e-08
1.1905e-08
1.18651e-08
1.18259e-08
1.17872e-08
1.17492e-08
1.17119e-08
1.16752e-08
1.16391e-08
1.16036e-08
1.15688e-08
1.15345e-08
1.15008e-08
1.14678e-08
1.14354e-08
1.14035e-08
1.13723e-08
1.13415e-08
1.13112e-08
1.12814e-08
1.12519e-08
1.12232e-08
1.11955e-08
1.11673e-08
1.11406e-08
1.1114e-08
1.10848e-08
1.10592e-08
1.10373e-08
1.10087e-08
1.09921e-08
1.09675e-08
1.09682e-08
1.0945e-08
1.09321e-08
1.09115e-08
1.08939e-08
1.08741e-08
1.08555e-08
1.08364e-08
1.08179e-08
1.07993e-08
1.0781e-08
1.0763e-08
1.07445e-08
1.0727e-08
1.07108e-08
1.06927e-08
1.0678e-08
1.06612e-08
1.06508e-08
1.0635e-08
1.06215e-08
1.06071e-08
1.05933e-08
1.05799e-08
1.05667e-08
1.05545e-08
1.05421e-08
1.05288e-08
1.05168e-08
1.05071e-08
1.0493e-08
1.0485e-08
1.04746e-08
1.04493e-08
1.04415e-08
1.04399e-08
1.04124e-08
1.04587e-08
1.04393e-08
1.06237e-08
1.06014e-08
1.06503e-08
1.06683e-08
1.06806e-08
1.06874e-08
1.06908e-08
1.06918e-08
1.0691e-08
1.0689e-08
1.06861e-08
1.06826e-08
1.06786e-08
1.06742e-08
1.06695e-08
1.06645e-08
1.06594e-08
1.0654e-08
1.06483e-08
1.06425e-08
1.06365e-08
1.06304e-08
1.06241e-08
1.06178e-08
1.06114e-08
1.06051e-08
1.05988e-08
1.05924e-08
1.0586e-08
1.05795e-08
1.05729e-08
1.05661e-08
1.05592e-08
1.05521e-08
1.05448e-08
1.05373e-08
1.05299e-08
1.05225e-08
1.05151e-08
1.0508e-08
1.0501e-08
1.04942e-08
1.04876e-08
1.04811e-08
1.04747e-08
1.04683e-08
1.0462e-08
1.04558e-08
1.04497e-08
1.04437e-08
1.04381e-08
1.04327e-08
1.04275e-08
1.04223e-08
1.0417e-08
1.04115e-08
1.04059e-08
1.04005e-08
1.03956e-08
1.03911e-08
1.03862e-08
1.03807e-08
1.03745e-08
1.03682e-08
1.03627e-08
1.03578e-08
1.03525e-08
1.03466e-08
1.03406e-08
1.03356e-08
1.03319e-08
1.03273e-08
1.03224e-08
1.03189e-08
1.03166e-08
1.03129e-08
1.03081e-08
1.03026e-08
1.02954e-08
1.03101e-08
1.02711e-08
1.72341e-09
3.46227e-09
6.45688e-09
4.04131e-09
3.73193e-09
5.13325e-09
6.02192e-09
5.72432e-09
5.29798e-09
5.47149e-09
6.00622e-09
6.28074e-09
6.28524e-09
6.48924e-09
6.9004e-09
7.36424e-09
7.72649e-09
8.03652e-09
8.32156e-09
8.68536e-09
9.13984e-09
9.51212e-09
9.56784e-09
1.01647e-08
1.06535e-08
1.17016e-08
1.22804e-08
1.22191e-08
1.26207e-08
1.37843e-08
1.59719e-08
1.63012e-08
1.58322e-08
1.5336e-08
1.99566e-08
3.0457e-08
3.22596e-08
2.80996e-08
2.18162e-08
2.41361e-08
4.01361e-08
4.51166e-08
3.84691e-08
2.97639e-08
3.48227e-08
8.59916e-08
1.02683e-07
6.87623e-08
4.48737e-08
4.93061e-08
5.57791e-08
3.88608e-08
3.97518e-08
4.97305e-08
5.181e-08
3.5337e-08
2.51464e-08
2.59679e-08
3.46783e-08
2.96967e-08
1.82008e-08
1.42329e-08
1.55247e-08
1.75409e-08
1.34503e-08
1.05644e-08
1.00578e-08
9.89958e-09
9.40091e-09
8.86449e-09
7.85089e-09
6.60013e-09
5.88497e-09
5.36488e-09
4.76802e-09
3.98403e-09
3.54646e-09
2.97972e-09
2.66741e-09
2.42706e-09
1.12686e-09
1.09404e-09
1.49325e-09
1.61871e-09
3.66342e-09
3.32702e-09
8.74083e-09
4.97725e-08
2.03078e-08
2.96256e-08
2.25199e-08
3.0296e-08
1.94895e-08
2.05268e-08
2.28572e-08
1.6281e-08
1.62133e-08
1.02508e-08
1.02836e-08
8.63371e-09
9.05481e-09
4.5498e-09
3.93007e-09
6.51304e-09
8.18947e-09
1.37791e-08
1.43112e-08
2.60458e-08
9.61634e-08
2.21347e-07
5.16439e-08
3.58504e-08
3.3048e-08
2.79858e-08
2.88638e-08
2.05631e-08
2.35868e-08
1.93587e-08
1.85207e-08
9.10448e-09
8.54023e-09
1.55767e-08
1.75987e-08
3.00127e-08
3.06664e-08
7.38556e-08
1.03434e-07
5.20697e-08
4.56592e-08
4.56803e-08
4.47385e-08
4.55034e-08
4.49542e-08
4.33766e-08
4.31799e-08
4.27065e-08
4.18468e-08
4.21862e-08
4.30468e-08
4.30677e-08
4.18349e-08
4.25283e-08
4.34964e-08
4.26274e-08
4.19911e-08
4.31788e-08
4.43705e-08
4.37555e-08
4.24679e-08
4.39805e-08
4.50915e-08
4.45165e-08
4.59213e-08
4.68931e-08
4.6237e-08
4.60156e-08
4.78462e-08
4.97934e-08
4.97644e-08
4.89801e-08
4.91276e-08
5.12403e-08
5.3781e-08
5.30859e-08
5.12195e-08
5.2586e-08
5.55573e-08
5.68382e-08
5.51752e-08
5.393e-08
5.73588e-08
6.06528e-08
5.80816e-08
5.65897e-08
6.0242e-08
6.15902e-08
6.04938e-08
6.19764e-08
6.37193e-08
6.43655e-08
6.41727e-08
6.46188e-08
6.46983e-08
6.5208e-08
6.74006e-08
6.9775e-08
7.14813e-08
7.09603e-08
7.07624e-08
7.14891e-08
7.2295e-08
7.32953e-08
7.47853e-08
7.77203e-08
8.01868e-08
7.95287e-08
7.77114e-08
8.04884e-08
8.52357e-08
8.74322e-08
8.7446e-08
8.67194e-08
8.70016e-08
9.39034e-08
9.7004e-08
9.67241e-08
9.51006e-08
9.66481e-08
1.03868e-07
1.07044e-07
1.05468e-07
1.05904e-07
1.13558e-07
1.16244e-07
1.18194e-07
1.23469e-07
1.23363e-07
1.26888e-07
1.28748e-07
1.31984e-07
1.4202e-07
1.44108e-07
1.49393e-07
1.51001e-07
1.53735e-07
1.63456e-07
1.68162e-07
1.75207e-07
1.8411e-07
1.89235e-07
1.90394e-07
2.0041e-07
2.14412e-07
2.23853e-07
2.3836e-07
2.48115e-07
2.49569e-07
2.44016e-07
2.58339e-07
2.80272e-07
3.063e-07
3.20633e-07
3.25603e-07
3.4521e-07
3.74641e-07
3.79856e-07
3.64492e-07
3.91564e-07
4.48793e-07
4.69543e-07
4.76035e-07
5.07327e-07
5.17178e-07
5.39892e-07
5.8667e-07
6.13465e-07
6.22598e-07
6.04388e-07
6.27056e-07
7.41541e-07
8.06367e-07
8.16575e-07
7.97715e-07
8.186e-07
8.47329e-07
9.10112e-07
9.62205e-07
1.01335e-06
1.01477e-06
1.01482e-06
1.01506e-06
1.01564e-06
1.01639e-06
1.01724e-06
1.0176e-06
1.01866e-06
1.01941e-06
1.01992e-06
1.02033e-06
1.02072e-06
1.02086e-06
1.02093e-06
1.02202e-06
1.02283e-06
1.02342e-06
1.02397e-06
1.02433e-06
1.02484e-06
1.02549e-06
1.0261e-06
1.02666e-06
1.02709e-06
1.02737e-06
1.02759e-06
1.02779e-06
1.0279e-06
1.02798e-06
1.02803e-06
1.02817e-06
1.02827e-06
1.02838e-06
1.02855e-06
1.02871e-06
1.02891e-06
1.02917e-06
1.02949e-06
1.02979e-06
1.03004e-06
1.03027e-06
1.03048e-06
1.03066e-06
1.03079e-06
1.0309e-06
1.03097e-06
1.03104e-06
1.03114e-06
1.03126e-06
1.0314e-06
1.03158e-06
1.03177e-06
1.03198e-06
1.03218e-06
9.94887e-07
9.54289e-07
9.12552e-07
8.72913e-07
8.38075e-07
8.0588e-07
7.75002e-07
7.46112e-07
7.18314e-07
6.91824e-07
6.67562e-07
6.44992e-07
6.23413e-07
6.03227e-07
5.84595e-07
5.67394e-07
5.51282e-07
5.36014e-07
5.21826e-07
5.08581e-07
4.96246e-07
4.84647e-07
4.73632e-07
4.63376e-07
4.53892e-07
4.44883e-07
4.36442e-07
4.2859e-07
4.2153e-07
4.1518e-07
4.08656e-07
4.0279e-07
3.97513e-07
3.92581e-07
3.87988e-07
3.83733e-07
3.8e-07
3.77002e-07
3.74217e-07
3.70796e-07
3.67993e-07
3.6578e-07
3.63802e-07
3.62235e-07
3.60821e-07
3.59267e-07
3.58067e-07
3.57137e-07
3.5627e-07
3.55625e-07
3.55299e-07
3.55274e-07
3.55404e-07
3.55679e-07
3.56106e-07
3.56652e-07
3.57409e-07
3.58438e-07
3.59658e-07
3.61101e-07
3.62726e-07
3.64632e-07
3.66809e-07
3.68715e-07
3.70738e-07
3.7291e-07
3.75176e-07
3.77707e-07
3.80511e-07
3.83564e-07
3.86895e-07
3.90253e-07
3.93432e-07
3.96716e-07
4.00153e-07
4.03671e-07
4.07444e-07
4.11281e-07
4.15507e-07
4.19694e-07
4.24182e-07
4.28416e-07
4.33258e-07
4.37477e-07
4.43712e-07
4.48814e-07
4.56063e-07
4.64196e-07
4.7023e-07
4.77517e-07
4.78374e-07
4.85619e-07
4.84277e-07
4.92944e-07
5.15691e-07
5.216e-07
5.14246e-07
5.23035e-07
4.59307e-07
4.75685e-07
6.18309e-07
6.34612e-07
7.71595e-07
8.31168e-07
1.00945e-06
1.00967e-06
7.65866e-07
6.51106e-07
5.50541e-07
6.51548e-07
6.73879e-07
7.17061e-07
7.18606e-07
7.27824e-07
7.25315e-07
7.27624e-07
6.88136e-07
6.94158e-07
7.6708e-07
7.76834e-07
8.1667e-07
8.34935e-07
1.00897e-06
1.00866e-06
8.09017e-07
7.88742e-07
7.50057e-07
8.28182e-07
7.77524e-07
8.37154e-07
7.24537e-07
8.37895e-07
9.32761e-07
1.01098e-06
1.0112e-06
9.99603e-07
1.01158e-06
4.54781e-07
5.19085e-07
4.45472e-07
5.79171e-07
2.2725e-07
2.35976e-07
9.36671e-08
8.77643e-08
2.00848e-07
1.85978e-07
1.82238e-07
2.302e-07
3.70347e-07
5.28082e-07
7.39063e-07
9.77126e-07
9.85195e-07
9.89818e-07
9.93124e-07
9.9554e-07
9.97273e-07
9.99166e-07
1.00151e-06
1.00355e-06
1.00467e-06
1.00498e-06
1.0053e-06
1.00614e-06
1.00729e-06
1.0083e-06
1.00888e-06
1.00898e-06
1.00867e-06
1.00811e-06
1.00752e-06
1.00706e-06
1.00685e-06
1.00691e-06
1.00726e-06
1.00796e-06
1.00902e-06
1.01039e-06
1.0117e-06
1.01201e-06
1.01207e-06
1.0121e-06
1.01209e-06
1.01207e-06
1.01204e-06
1.01202e-06
1.01201e-06
1.01201e-06
1.01201e-06
1.01199e-06
1.01194e-06
1.01174e-06
1.01143e-06
1.0115e-06
1.01186e-06
1.01202e-06
1.01206e-06
1.01206e-06
1.01205e-06
1.01201e-06
1.01195e-06
1.01176e-06
1.01116e-06
1.01202e-06
1.01226e-06
1.01232e-06
1.01205e-06
1.00755e-06
1.00314e-06
1.00533e-06
1.01102e-06
1.01174e-06
1.0073e-06
1.00206e-06
1.00541e-06
1.01219e-06
1.01243e-06
1.01129e-06
1.01098e-06
1.01254e-06
1.01263e-06
1.01193e-06
1.00751e-06
1.00965e-06
1.00376e-06
3.59962e-07
8.23388e-07
1.72093e-09
3.45242e-09
6.43202e-09
4.01519e-09
3.68478e-09
4.99204e-09
5.7785e-09
5.44515e-09
4.98591e-09
5.07498e-09
5.49822e-09
5.65273e-09
5.50493e-09
5.43735e-09
5.6831e-09
5.96132e-09
6.12722e-09
6.36127e-09
6.55601e-09
6.64751e-09
6.92917e-09
7.17347e-09
7.74623e-09
8.52732e-09
8.40058e-09
8.26115e-09
8.31217e-09
8.99947e-09
1.02439e-08
1.01389e-08
1.1112e-08
1.15032e-08
1.1716e-08
1.08865e-08
1.1587e-08
1.71566e-08
2.65619e-08
2.37816e-08
1.80578e-08
1.50717e-08
1.95617e-08
3.02574e-08
3.29949e-08
2.30405e-08
1.86908e-08
2.92096e-08
6.92451e-08
7.64554e-08
3.93785e-08
3.27757e-08
3.08299e-08
2.6807e-08
3.26396e-08
2.98238e-08
2.48069e-08
1.92076e-08
1.82157e-08
2.04923e-08
2.16742e-08
1.5966e-08
1.12174e-08
1.28601e-08
1.5629e-08
1.23521e-08
8.25089e-09
7.62638e-09
8.98149e-09
8.12404e-09
6.61404e-09
6.215e-09
6.01304e-09
5.46881e-09
5.06296e-09
4.83821e-09
4.44934e-09
4.66007e-09
4.42401e-09
4.43892e-09
4.35825e-09
3.35713e-09
2.15772e-09
1.51511e-09
1.25241e-09
6.59321e-10
7.78654e-10
1.12376e-09
1.262e-09
1.93889e-09
3.81591e-09
3.69406e-09
1.75595e-08
1.57461e-08
1.85454e-08
1.81881e-08
1.88349e-08
1.50007e-08
2.01061e-08
1.99641e-08
2.03432e-08
3.36979e-08
1.65161e-08
1.16155e-08
7.40697e-09
8.27062e-09
4.35509e-09
3.88088e-09
5.65498e-09
7.3975e-09
9.81828e-09
1.48038e-08
1.53163e-08
4.171e-08
8.1905e-08
4.20215e-08
3.41149e-08
3.16518e-08
4.09839e-08
7.85258e-08
3.04335e-08
2.47577e-08
1.65441e-08
1.71389e-08
9.12905e-09
8.57516e-09
1.52691e-08
1.65962e-08
2.72929e-08
2.86525e-08
5.9927e-08
7.52367e-08
4.33147e-08
3.97951e-08
4.14841e-08
4.12306e-08
4.07641e-08
4.088e-08
4.17885e-08
4.21043e-08
4.18695e-08
4.09337e-08
4.04855e-08
4.21295e-08
4.27102e-08
4.11893e-08
4.13865e-08
4.26361e-08
4.26225e-08
4.17567e-08
4.18354e-08
4.3497e-08
4.44728e-08
4.50645e-08
4.42498e-08
4.30776e-08
4.45615e-08
4.67118e-08
4.79147e-08
4.77424e-08
4.73071e-08
4.86626e-08
4.95919e-08
4.92296e-08
5.01439e-08
5.1195e-08
5.19345e-08
5.23116e-08
5.26704e-08
5.44496e-08
5.48698e-08
5.49207e-08
5.55596e-08
5.67194e-08
5.73597e-08
5.76546e-08
5.98922e-08
5.95645e-08
5.86633e-08
6.11727e-08
6.33547e-08
6.3701e-08
6.2561e-08
6.29739e-08
6.39102e-08
6.55121e-08
6.71476e-08
6.78326e-08
6.88786e-08
6.91157e-08
6.94392e-08
7.08298e-08
7.08637e-08
7.23188e-08
7.28228e-08
7.60823e-08
8.06555e-08
7.96199e-08
7.69147e-08
7.8296e-08
8.2452e-08
8.48498e-08
8.56916e-08
8.63911e-08
8.7752e-08
9.19656e-08
9.31622e-08
9.11022e-08
9.37201e-08
1.0031e-07
1.0358e-07
1.02995e-07
1.01619e-07
1.06785e-07
1.11869e-07
1.13962e-07
1.14779e-07
1.19879e-07
1.24537e-07
1.24762e-07
1.27063e-07
1.35722e-07
1.38133e-07
1.3413e-07
1.47186e-07
1.55631e-07
1.57968e-07
1.6214e-07
1.63867e-07
1.70803e-07
1.7546e-07
1.88261e-07
1.96696e-07
2.00354e-07
2.09145e-07
2.18455e-07
2.32118e-07
2.4287e-07
2.47038e-07
2.44722e-07
2.56506e-07
2.95746e-07
3.17782e-07
3.14624e-07
3.1233e-07
3.35013e-07
3.66921e-07
3.63595e-07
3.85821e-07
4.17492e-07
4.4323e-07
4.57697e-07
4.61933e-07
5.04174e-07
5.39412e-07
5.61516e-07
5.82248e-07
6.15799e-07
5.81919e-07
5.70708e-07
6.63533e-07
7.6374e-07
7.96627e-07
7.71144e-07
8.24779e-07
8.72623e-07
8.81437e-07
9.23059e-07
9.45022e-07
1.00757e-06
1.03258e-06
1.03649e-06
1.0742e-06
1.19337e-06
1.51767e-06
1.58078e-06
1.29413e-06
1.30378e-06
1.55899e-06
1.78915e-06
1.86352e-06
1.96472e-06
2.08905e-06
2.17025e-06
2.32045e-06
2.7254e-06
2.74153e-06
2.87045e-06
3.78973e-06
4.81132e-06
4.88448e-06
4.98023e-06
5.29328e-06
6.52411e-06
9.16081e-06
9.16176e-06
9.16214e-06
9.16238e-06
9.16243e-06
8.92504e-06
6.66046e-06
5.75201e-06
4.88264e-06
4.29416e-06
3.95738e-06
3.46788e-06
3.05029e-06
2.83631e-06
2.67568e-06
2.43154e-06
2.22084e-06
2.07617e-06
1.94972e-06
1.81364e-06
1.69948e-06
1.60154e-06
1.50632e-06
1.42042e-06
1.34289e-06
1.27173e-06
1.20738e-06
1.14784e-06
1.09374e-06
1.04596e-06
1.00067e-06
9.54976e-07
9.12142e-07
8.7575e-07
8.42294e-07
8.04877e-07
7.72326e-07
7.42593e-07
7.14269e-07
6.89145e-07
6.65674e-07
6.43402e-07
6.22657e-07
6.03408e-07
5.85195e-07
5.67805e-07
5.51323e-07
5.3593e-07
5.21419e-07
5.07376e-07
4.94553e-07
4.82825e-07
4.72011e-07
4.61962e-07
4.52853e-07
4.44229e-07
4.36004e-07
4.28367e-07
4.21499e-07
4.1479e-07
4.08115e-07
4.02188e-07
3.96751e-07
3.9164e-07
3.86923e-07
3.82507e-07
3.78876e-07
3.76269e-07
3.73353e-07
3.70207e-07
3.67591e-07
3.65284e-07
3.63181e-07
3.61274e-07
3.59603e-07
3.5817e-07
3.57047e-07
3.56295e-07
3.55846e-07
3.55435e-07
3.55192e-07
3.5519e-07
3.553e-07
3.55491e-07
3.55739e-07
3.56113e-07
3.56942e-07
3.5827e-07
3.59815e-07
3.61463e-07
3.63165e-07
3.64897e-07
3.66673e-07
3.68461e-07
3.70487e-07
3.72779e-07
3.75256e-07
3.77999e-07
3.80977e-07
3.84303e-07
3.87573e-07
3.90498e-07
3.93349e-07
3.96433e-07
3.99575e-07
4.03315e-07
4.07362e-07
4.11902e-07
4.16146e-07
4.20508e-07
4.2386e-07
4.28451e-07
4.32497e-07
4.38549e-07
4.4649e-07
4.52725e-07
4.58134e-07
4.62289e-07
4.68146e-07
4.68473e-07
4.76964e-07
5.00513e-07
5.06983e-07
4.96275e-07
5.04802e-07
4.4224e-07
4.61121e-07
6.19277e-07
6.42676e-07
7.65936e-07
8.01832e-07
1.30604e-06
1.30306e-06
7.86814e-07
7.64564e-07
6.09015e-07
6.16554e-07
5.15379e-07
5.32493e-07
6.32712e-07
6.47711e-07
6.80501e-07
6.4799e-07
6.65675e-07
7.36346e-07
7.65165e-07
7.88194e-07
8.10507e-07
8.24763e-07
1.01843e-06
1.02236e-06
7.93837e-07
8.12235e-07
7.57462e-07
7.90347e-07
6.92792e-07
7.44388e-07
6.81688e-07
7.70621e-07
8.67115e-07
1.01251e-06
8.42467e-07
9.78314e-07
1.01451e-06
4.45568e-07
5.32065e-07
4.19187e-07
5.41432e-07
2.07494e-07
2.03525e-07
8.26943e-08
8.42325e-08
2.21409e-07
2.21281e-07
2.13891e-07
2.20402e-07
2.55261e-07
3.48931e-07
5.45262e-07
6.91564e-07
7.71985e-07
9.37059e-07
1.16404e-06
1.43387e-06
1.70017e-06
1.96683e-06
2.21643e-06
2.31858e-06
2.27779e-06
2.22015e-06
2.15366e-06
2.05361e-06
1.92603e-06
1.80161e-06
1.70126e-06
1.62923e-06
1.58178e-06
1.55324e-06
1.53679e-06
1.52451e-06
1.50918e-06
1.48638e-06
1.45616e-06
1.4231e-06
1.3925e-06
1.36683e-06
1.34933e-06
1.34241e-06
1.34488e-06
1.35235e-06
1.35898e-06
1.36e-06
1.35234e-06
1.33606e-06
1.31578e-06
1.29857e-06
1.28995e-06
1.29192e-06
1.30273e-06
1.31684e-06
1.32707e-06
1.32944e-06
1.32654e-06
1.32609e-06
1.33435e-06
1.34968e-06
1.36218e-06
1.36171e-06
1.34886e-06
1.3357e-06
1.33313e-06
1.34481e-06
1.36786e-06
1.39655e-06
1.43601e-06
1.49551e-06
1.55042e-06
1.54582e-06
1.47408e-06
1.40794e-06
1.43719e-06
1.56558e-06
1.64511e-06
1.54161e-06
1.39632e-06
1.43456e-06
1.66185e-06
1.77148e-06
1.58637e-06
1.5246e-06
1.75535e-06
1.87584e-06
1.61969e-06
1.55965e-06
1.31322e-06
1.42787e-06
3.66986e-07
8.78873e-07
1.71635e-09
3.45274e-09
6.40566e-09
3.99355e-09
3.65701e-09
4.94627e-09
5.70478e-09
5.32166e-09
4.85196e-09
4.89639e-09
5.27154e-09
5.4326e-09
5.30498e-09
5.27525e-09
5.52949e-09
5.7941e-09
5.93535e-09
6.15284e-09
6.40509e-09
6.52e-09
6.65637e-09
6.97805e-09
7.739e-09
8.15589e-09
7.82808e-09
7.46533e-09
7.76189e-09
9.00884e-09
9.94461e-09
9.09302e-09
9.27545e-09
1.02049e-08
1.14007e-08
1.15363e-08
9.88153e-09
1.10259e-08
1.4473e-08
1.74969e-08
1.81431e-08
1.47221e-08
1.53873e-08
2.08846e-08
2.65871e-08
2.16221e-08
1.79228e-08
2.30118e-08
3.89787e-08
4.8157e-08
3.34763e-08
3.28603e-08
3.22293e-08
2.63457e-08
2.75525e-08
2.47603e-08
2.01398e-08
1.6928e-08
2.1259e-08
2.49917e-08
1.87111e-08
1.22474e-08
1.04729e-08
1.54238e-08
1.79227e-08
1.15582e-08
7.80241e-09
7.93727e-09
9.76029e-09
8.49103e-09
6.61093e-09
6.03897e-09
6.22284e-09
6.11095e-09
5.5699e-09
5.17514e-09
5.02012e-09
5.24718e-09
4.9847e-09
4.61509e-09
5.44996e-09
6.64565e-09
6.48864e-09
5.2485e-09
3.079e-09
1.92294e-09
1.46208e-09
1.25556e-09
9.56497e-10
6.92449e-10
7.7955e-10
1.17485e-09
1.42766e-09
3.37651e-09
3.36411e-09
1.44927e-08
2.0281e-08
1.57816e-08
1.76639e-08
1.71699e-08
1.56315e-08
3.20851e-08
4.4937e-08
5.47125e-08
1.05368e-07
2.20937e-08
1.27276e-08
8.79429e-09
7.41135e-09
6.96552e-09
4.63249e-09
4.11006e-09
6.73471e-09
7.88599e-09
1.4234e-08
1.47582e-08
3.51633e-08
6.07139e-08
4.26326e-08
4.44863e-08
4.27821e-08
6.831e-08
8.97019e-08
2.9657e-08
2.49382e-08
1.63258e-08
1.66763e-08
9.41201e-09
8.90373e-09
1.52029e-08
1.64811e-08
2.78608e-08
2.91168e-08
5.15972e-08
6.18956e-08
4.09768e-08
3.64917e-08
3.64012e-08
4.09928e-08
4.17695e-08
4.09248e-08
4.06114e-08
4.11217e-08
4.1914e-08
4.21409e-08
4.16128e-08
4.19725e-08
4.15957e-08
4.09505e-08
4.21202e-08
4.41206e-08
4.35943e-08
4.32183e-08
4.47431e-08
4.40005e-08
4.28261e-08
4.46949e-08
4.7199e-08
4.77803e-08
4.69192e-08
4.66137e-08
4.90271e-08
5.12604e-08
4.90796e-08
4.80023e-08
5.03029e-08
5.4101e-08
5.39685e-08
5.16079e-08
5.25558e-08
5.56616e-08
5.81073e-08
5.5039e-08
5.45135e-08
5.95685e-08
6.05843e-08
5.82135e-08
5.86734e-08
6.15453e-08
6.27382e-08
6.16739e-08
6.21962e-08
6.33096e-08
6.44261e-08
6.51011e-08
6.6836e-08
6.84519e-08
6.7801e-08
6.69415e-08
6.82142e-08
7.03698e-08
7.21224e-08
7.20366e-08
7.31708e-08
7.33758e-08
7.48612e-08
7.86792e-08
8.10141e-08
8.02744e-08
7.9429e-08
7.96802e-08
8.31237e-08
8.6358e-08
8.77999e-08
8.95253e-08
8.79973e-08
8.88196e-08
9.06569e-08
9.79926e-08
1.05624e-07
1.00343e-07
9.82487e-08
1.03004e-07
1.09941e-07
1.09252e-07
1.10618e-07
1.13551e-07
1.18441e-07
1.22316e-07
1.24222e-07
1.29831e-07
1.35907e-07
1.35226e-07
1.32925e-07
1.42131e-07
1.5506e-07
1.61853e-07
1.64285e-07
1.63683e-07
1.6709e-07
1.70533e-07
1.82201e-07
1.99075e-07
2.02639e-07
2.01915e-07
2.1389e-07
2.34401e-07
2.34628e-07
2.41118e-07
2.57732e-07
2.71346e-07
2.99803e-07
3.07904e-07
2.9862e-07
3.15195e-07
3.34123e-07
3.40387e-07
3.66742e-07
4.27582e-07
4.49409e-07
4.36524e-07
4.3248e-07
4.61272e-07
4.82259e-07
5.28694e-07
5.89102e-07
5.76235e-07
5.78125e-07
5.81929e-07
6.42441e-07
7.30413e-07
7.14712e-07
7.41925e-07
7.59439e-07
8.09117e-07
9.05548e-07
9.52363e-07
9.41742e-07
9.2256e-07
9.44834e-07
9.56041e-07
1.00005e-06
1.06647e-06
1.17375e-06
1.53023e-06
1.73932e-06
1.44448e-06
1.3218e-06
1.43064e-06
1.58754e-06
1.74506e-06
1.83944e-06
2.16576e-06
2.66451e-06
2.26186e-06
2.36116e-06
2.61501e-06
2.84215e-06
3.6725e-06
4.83913e-06
4.39902e-06
4.2251e-06
4.62366e-06
5.43105e-06
7.02462e-06
8.06723e-06
9.04155e-06
9.29513e-06
8.42008e-06
6.61989e-06
5.82064e-06
5.23384e-06
4.47923e-06
4.09217e-06
3.716e-06
3.25426e-06
2.95751e-06
2.80713e-06
2.61279e-06
2.37288e-06
2.19293e-06
2.06634e-06
1.9406e-06
1.8074e-06
1.69731e-06
1.59749e-06
1.50151e-06
1.41748e-06
1.34098e-06
1.27037e-06
1.2059e-06
1.14761e-06
1.09512e-06
1.04722e-06
9.98861e-07
9.50729e-07
9.0899e-07
8.72892e-07
8.37954e-07
8.01001e-07
7.67855e-07
7.38069e-07
7.10489e-07
6.85371e-07
6.61609e-07
6.39232e-07
6.19134e-07
6.01004e-07
5.83197e-07
5.65471e-07
5.48668e-07
5.33057e-07
5.18552e-07
5.04612e-07
4.91651e-07
4.7991e-07
4.69048e-07
4.59051e-07
4.50342e-07
4.42045e-07
4.3414e-07
4.26672e-07
4.19455e-07
4.12511e-07
4.06439e-07
4.0064e-07
3.95068e-07
3.89946e-07
3.85213e-07
3.80721e-07
3.77034e-07
3.74176e-07
3.71002e-07
3.68567e-07
3.6622e-07
3.63781e-07
3.61584e-07
3.5944e-07
3.5764e-07
3.5652e-07
3.55568e-07
3.54844e-07
3.54534e-07
3.54324e-07
3.54115e-07
3.5397e-07
3.54029e-07
3.54249e-07
3.54539e-07
3.55079e-07
3.56112e-07
3.57501e-07
3.58991e-07
3.60487e-07
3.62094e-07
3.63702e-07
3.65299e-07
3.67417e-07
3.69774e-07
3.72338e-07
3.75087e-07
3.77898e-07
3.80832e-07
3.8386e-07
3.8679e-07
3.89385e-07
3.92486e-07
3.95584e-07
3.99142e-07
4.02877e-07
4.07148e-07
4.10672e-07
4.15139e-07
4.18383e-07
4.23108e-07
4.28016e-07
4.33301e-07
4.33193e-07
4.41748e-07
4.39337e-07
4.52467e-07
4.73806e-07
4.87083e-07
4.98386e-07
4.78181e-07
4.87921e-07
4.25405e-07
4.45551e-07
6.19785e-07
6.44922e-07
7.50767e-07
7.85805e-07
1.2342e-06
1.28514e-06
7.80616e-07
7.69744e-07
6.14642e-07
5.9873e-07
4.84034e-07
4.91956e-07
5.77224e-07
5.71941e-07
6.02115e-07
5.8818e-07
6.10505e-07
6.93532e-07
7.24369e-07
7.18485e-07
7.90571e-07
8.06112e-07
1.02518e-06
1.03334e-06
7.85378e-07
8.02601e-07
7.5059e-07
7.75044e-07
6.76671e-07
7.10895e-07
6.64351e-07
7.17888e-07
8.43081e-07
9.25025e-07
7.02405e-07
8.25029e-07
3.60035e-07
4.78638e-07
1.13452e-06
4.01008e-07
5.39753e-07
1.94599e-07
1.94343e-07
7.69605e-08
7.59502e-08
1.9328e-07
1.7795e-07
1.83422e-07
2.04023e-07
2.49711e-07
2.61354e-07
3.97021e-07
4.53587e-07
4.91728e-07
5.52913e-07
6.25179e-07
7.43432e-07
8.97881e-07
1.08055e-06
1.28047e-06
1.47991e-06
1.62856e-06
1.73101e-06
1.82217e-06
1.89081e-06
1.92577e-06
1.91323e-06
1.85255e-06
1.76893e-06
1.69029e-06
1.63016e-06
1.59021e-06
1.56707e-06
1.55465e-06
1.54469e-06
1.52884e-06
1.50241e-06
1.4662e-06
1.42375e-06
1.38114e-06
1.34994e-06
1.32855e-06
1.31919e-06
1.32349e-06
1.33767e-06
1.35494e-06
1.36776e-06
1.37051e-06
1.36224e-06
1.34466e-06
1.32416e-06
1.30905e-06
1.30402e-06
1.30915e-06
1.32053e-06
1.3309e-06
1.33366e-06
1.3283e-06
1.32255e-06
1.32692e-06
1.34544e-06
1.37019e-06
1.38411e-06
1.37519e-06
1.35175e-06
1.33425e-06
1.33629e-06
1.36047e-06
1.40207e-06
1.4494e-06
1.4953e-06
1.53413e-06
1.53855e-06
1.49096e-06
1.42727e-06
1.41986e-06
1.504e-06
1.59834e-06
1.55656e-06
1.41405e-06
1.39246e-06
1.56911e-06
1.73069e-06
1.66053e-06
1.59644e-06
1.78479e-06
1.86234e-06
1.68283e-06
1.52106e-06
1.48039e-06
1.24228e-06
1.44307e-06
3.7648e-07
8.62194e-07
1.70951e-09
3.45013e-09
6.35637e-09
3.97007e-09
3.61775e-09
4.88366e-09
5.64857e-09
5.26238e-09
4.79585e-09
4.80164e-09
5.15773e-09
5.29598e-09
5.19459e-09
5.24926e-09
5.56277e-09
5.87032e-09
6.05976e-09
6.2614e-09
6.50349e-09
6.65886e-09
6.83603e-09
7.17597e-09
7.63429e-09
7.82464e-09
7.60856e-09
7.52549e-09
7.95436e-09
9.01713e-09
9.46489e-09
8.87445e-09
8.86853e-09
9.84102e-09
1.14738e-08
1.16541e-08
1.00347e-08
9.72014e-09
1.08553e-08
1.34243e-08
1.5673e-08
1.5155e-08
1.54374e-08
1.76487e-08
2.05615e-08
2.00947e-08
1.89999e-08
2.2379e-08
3.01261e-08
2.83034e-08
2.49418e-08
3.15613e-08
2.93683e-08
2.21749e-08
2.19954e-08
2.47334e-08
1.99572e-08
1.71572e-08
2.09214e-08
2.23434e-08
1.49612e-08
1.15382e-08
1.17318e-08
1.64716e-08
1.58041e-08
1.08223e-08
8.38726e-09
9.09499e-09
9.60384e-09
8.29626e-09
7.40423e-09
7.09536e-09
6.80203e-09
6.45645e-09
6.04795e-09
5.76827e-09
5.79167e-09
5.80418e-09
5.6084e-09
5.93584e-09
7.19009e-09
8.09305e-09
8.6919e-09
9.37059e-09
1.77244e-08
9.65476e-09
9.13545e-09
6.21614e-09
2.41172e-09
1.52949e-09
1.19679e-09
1.10447e-09
6.38372e-10
7.66965e-10
1.18653e-09
1.4286e-09
3.64286e-09
3.53355e-09
1.74318e-08
2.19011e-08
1.8072e-08
1.98301e-08
2.22485e-08
1.85615e-08
3.05046e-08
3.62871e-08
4.55986e-08
7.26645e-08
2.67986e-08
1.37769e-08
1.16176e-08
7.42933e-09
8.12085e-09
4.92201e-09
4.6197e-09
7.55969e-09
8.46908e-09
1.58235e-08
1.75636e-08
5.02603e-08
8.29555e-08
4.24453e-08
3.62446e-08
3.54657e-08
5.86539e-08
6.47888e-08
2.97445e-08
2.51842e-08
1.59842e-08
1.63577e-08
9.89136e-09
9.51639e-09
1.57336e-08
1.65871e-08
2.78072e-08
2.96835e-08
3.51437e-08
4.85792e-08
5.47151e-08
4.10412e-08
3.79188e-08
3.96854e-08
4.10339e-08
4.15773e-08
4.14934e-08
4.16403e-08
4.17324e-08
4.11343e-08
4.0971e-08
4.2434e-08
4.36757e-08
4.30705e-08
4.30666e-08
4.39746e-08
4.32704e-08
4.4279e-08
4.58102e-08
4.6891e-08
4.69152e-08
4.57075e-08
4.63143e-08
4.87414e-08
5.08906e-08
4.99066e-08
4.84048e-08
5.07983e-08
5.44726e-08
5.3365e-08
5.12672e-08
5.27514e-08
5.66606e-08
5.86836e-08
5.55306e-08
5.47843e-08
5.96735e-08
6.15664e-08
5.83577e-08
5.94656e-08
6.2824e-08
6.31524e-08
6.13195e-08
6.2275e-08
6.52812e-08
6.49736e-08
6.56197e-08
6.7931e-08
6.89183e-08
6.76301e-08
6.57242e-08
6.97154e-08
7.29455e-08
7.21846e-08
7.26206e-08
7.48143e-08
7.64508e-08
7.43819e-08
7.38611e-08
7.89959e-08
8.31188e-08
8.27707e-08
8.03976e-08
8.12436e-08
8.53498e-08
8.82894e-08
8.99084e-08
8.6925e-08
8.80899e-08
9.30657e-08
9.83087e-08
1.01852e-07
9.80476e-08
9.76604e-08
1.0356e-07
1.08973e-07
1.09452e-07
1.11398e-07
1.12807e-07
1.13928e-07
1.18729e-07
1.25001e-07
1.34232e-07
1.3222e-07
1.29559e-07
1.35899e-07
1.39942e-07
1.51374e-07
1.57054e-07
1.62447e-07
1.68736e-07
1.66492e-07
1.69745e-07
1.77352e-07
1.89387e-07
2.05592e-07
2.06812e-07
2.08988e-07
2.27031e-07
2.40048e-07
2.42984e-07
2.58874e-07
2.78177e-07
2.81703e-07
2.82515e-07
2.94918e-07
3.3275e-07
3.49677e-07
3.33638e-07
3.82145e-07
4.50384e-07
4.29399e-07
4.07508e-07
4.29524e-07
4.8444e-07
4.82645e-07