/*--------------------------------*- C++ -*----------------------------------*\
| =========                 |                                                 |
| \\      /  F ield         | OpenFOAM: The Open Source CFD Toolbox           |
|  \\    /   O peration     | Version:  v2006                                 |
|   \\  /    A nd           | Website:  www.openfoam.com                      |
|    \\/     M anipulation  |                                                 |
\*---------------------------------------------------------------------------*/
FoamFile
{
    version     2.0;
    format      ascii;
    class       volScalarField;
    location    "2.9";
    object      omega;
}
// * * * * * * * * * * * * * * * * * * * * * * * * * * * * * * * * * * * * * //

dimensions      [0 0 -1 0 0 0 0];


internalField   nonuniform List<scalar> 
33000
(
0.801305
0.801359
0.801413
0.80148
0.80158
0.801736
0.801971
0.802295
0.802705
0.803181
0.803693
0.804201
0.804668
0.805074
0.805402
0.805657
0.805848
0.805985
0.806082
0.80615
0.806191
0.80621
0.806215
0.806222
0.806242
0.806269
0.806282
0.80628
0.806285
0.806303
0.806322
0.806337
0.806353
0.806383
0.806405
0.806417
0.806427
0.806442
0.806467
0.806491
0.806501
0.806506
0.806515
0.806532
0.806547
0.806547
0.806543
0.806536
0.806526
0.80651
0.806487
0.806456
0.806423
0.806387
0.806351
0.806315
0.80628
0.806249
0.806219
0.806192
0.806165
0.806135
0.806103
0.80607
0.806032
0.805993
0.805952
0.80591
0.805866
0.80582
0.805772
0.805721
0.805663
0.805588
0.80549
0.805365
0.805203
0.804988
0.804717
0.804448
0.804266
0.804184
0.804163
0.804164
0.804145
0.804163
0.804149
0.804124
0.804101
0.804083
0.804064
0.804032
0.803991
0.803942
0.803887
0.803816
0.803724
0.803595
0.803456
0.803279
0.803158
0.803085
0.803061
0.803037
0.803019
0.803012
0.803002
0.802979
0.802954
0.802934
0.802915
0.802895
0.802874
0.80284
0.802803
0.802742
0.802701
0.802641
0.80262
0.80264
0.802656
0.802659
0.802661
0.802663
0.802666
0.802669
0.802675
0.80268
0.802683
0.802683
0.802685
0.802689
0.80269
0.80269
0.802688
0.80269
0.80269
0.802688
0.802686
0.802685
0.802685
0.802681
0.802678
0.802675
0.802672
0.802667
0.802662
0.802659
0.802655
0.80265
0.802645
0.80264
0.802634
0.80263
0.802626
0.802621
0.802615
0.80261
0.802606
0.802602
0.802597
0.802592
0.802588
0.802585
0.80258
0.802576
0.802571
0.802567
0.802563
0.802559
0.802554
0.802551
0.802547
0.802544
0.80254
0.802537
0.802535
0.802533
0.802533
0.802533
0.802533
0.802534
0.802536
0.80254
0.802543
0.802547
0.802551
0.802556
0.802563
0.802569
0.802575
0.802581
0.802589
0.802596
0.802604
0.802611
0.802618
0.802626
0.802634
0.80264
0.802648
0.802655
0.802663
0.80267
0.802676
0.802681
0.802685
0.80269
0.802693
0.802696
0.802697
0.802699
0.8027
0.8027
0.8027
0.802698
0.802697
0.802695
0.802692
0.802689
0.802686
0.802681
0.802677
0.802673
0.802668
0.802662
0.802656
0.80265
0.802643
0.802637
0.80263
0.802623
0.802615
0.802608
0.802599
0.802591
0.802583
0.802575
0.802566
0.802557
0.802549
0.80254
0.80253
0.802521
0.802512
0.802502
0.802493
0.802483
0.802473
0.802463
0.802454
0.802444
0.802434
0.802424
0.802414
0.802403
0.802393
0.802383
0.802372
0.802362
0.802351
0.802341
0.80233
0.802319
0.802309
0.802298
0.802287
0.802276
0.802265
0.802255
0.802244
0.802233
0.802222
0.802211
0.8022
0.802189
0.802177
0.802166
0.802155
0.802144
0.802133
0.802122
0.802111
0.802099
0.802088
0.802077
0.802065
0.802054
0.802042
0.802031
0.802019
0.802008
0.801996
0.801985
0.801973
0.801962
0.80195
0.801939
0.801927
0.801916
0.801904
0.801893
0.801882
0.80187
0.801859
0.801848
0.801837
0.801825
0.801814
0.801803
0.801792
0.801781
0.80177
0.80176
0.801749
0.801739
0.801728
0.801718
0.801708
0.801698
0.801688
0.801679
0.801669
0.80166
0.801651
0.801642
0.801633
0.801624
0.801615
0.801607
0.801598
0.80159
0.801582
0.801574
0.801566
0.801558
0.80155
0.801542
0.801534
0.801527
0.801519
0.801511
0.801504
0.801497
0.801489
0.801482
0.801475
0.801468
0.801461
0.801454
0.801447
0.80144
0.801433
0.801426
0.80142
0.801413
0.801406
0.8014
0.801393
0.801387
0.801381
0.801374
0.801368
0.801362
0.801356
0.80135
0.801344
0.801338
0.801332
0.801326
0.80132
0.801314
0.801309
0.801303
0.801298
0.801292
0.801287
0.801281
0.801276
0.801271
0.801266
0.80126
0.801255
0.80125
0.801245
0.801241
0.801236
0.801231
0.801226
0.801222
0.801217
0.801213
0.801208
0.801204
0.8012
0.801195
0.801191
0.801187
0.801183
0.801179
0.801175
0.801171
0.801168
0.801164
0.80116
0.801157
0.801153
0.80115
0.801146
0.801143
0.80114
0.801136
0.801133
0.80113
0.801127
0.801124
0.801121
0.801118
0.801115
0.801112
0.80111
0.801107
0.801104
0.801102
0.801099
0.801096
0.801094
0.801091
0.80109
0.801087
0.801087
0.801085
0.801084
0.801082
0.80108
0.801078
0.801076
0.801074
0.801073
0.801071
0.801069
0.801067
0.801065
0.801064
0.801062
0.80106
0.801059
0.801057
0.801056
0.801055
0.801053
0.801052
0.801051
0.801049
0.801048
0.801047
0.801046
0.801044
0.801043
0.801042
0.801041
0.80104
0.801039
0.801037
0.801036
0.801036
0.801033
0.801038
0.801036
0.801054
0.801052
0.801057
0.801058
0.801059
0.80106
0.80106
0.80106
0.80106
0.80106
0.80106
0.801059
0.801059
0.801059
0.801058
0.801058
0.801057
0.801056
0.801056
0.801055
0.801055
0.801054
0.801053
0.801053
0.801052
0.801052
0.801051
0.80105
0.80105
0.801049
0.801048
0.801048
0.801047
0.801046
0.801046
0.801045
0.801044
0.801044
0.801043
0.801042
0.801041
0.801041
0.80104
0.801039
0.801039
0.801038
0.801038
0.801037
0.801036
0.801036
0.801035
0.801035
0.801034
0.801034
0.801033
0.801033
0.801032
0.801032
0.801031
0.801031
0.80103
0.80103
0.801029
0.801029
0.801028
0.801028
0.801027
0.801026
0.801026
0.801025
0.801025
0.801025
0.801024
0.801024
0.801024
0.801023
0.801023
0.801022
0.801021
0.801023
0.801019
0.00149039
0.00206469
0.00326568
0.00602338
0.0107812
0.0174754
0.0264786
0.0379443
0.0513621
0.0654524
0.079018
0.0915591
0.102773
0.112173
0.119487
0.125029
0.129283
0.132575
0.135153
0.137058
0.138198
0.138853
0.139515
0.140636
0.142643
0.14448
0.145516
0.14578
0.146078
0.146895
0.147554
0.148081
0.148883
0.150464
0.151526
0.151226
0.150083
0.149366
0.149887
0.150293
0.148868
0.146602
0.145739
0.147454
0.149584
0.148176
0.144097
0.140597
0.138859
0.13772
0.13642
0.135723
0.13491
0.131983
0.128534
0.126801
0.126145
0.124218
0.122055
0.123402
0.129152
0.13429
0.134178
0.13168
0.132552
0.136395
0.137886
0.135033
0.131529
0.130077
0.131594
0.136482
0.145844
0.156527
0.170766
0.197109
0.239974
0.314254
0.382175
0.390001
0.407159
0.293489
0.179085
0.106363
0.0595697
0.0495469
0.0448292
0.0408298
0.0378372
0.0393918
0.0377632
0.032495
0.0313184
0.0320197
0.0330705
0.033565
0.034172
0.0342998
0.0436697
0.0484194
0.0413699
0.0340044
0.0301382
0.0300854
0.0282631
0.0275652
0.0281648
0.0266322
0.0260425
0.0263587
0.0266515
0.0264148
0.025439
0.0242532
0.0239104
0.0235835
0.0281818
0.0295013
0.0251294
0.0224779
0.0232372
0.0241936
0.0262338
0.0262073
0.0248043
0.0236109
0.0226842
0.0233054
0.0243256
0.0236164
0.0221278
0.0226359
0.0232696
0.0232731
0.0223142
0.021647
0.0228668
0.0232298
0.0227843
0.0217558
0.0229157
0.0232531
0.0228698
0.0227249
0.0232763
0.0231566
0.02239
0.0219723
0.0230828
0.0231472
0.0231319
0.0232374
0.0217802
0.0211361
0.0224885
0.0231512
0.0225843
0.0214121
0.0213129
0.0224341
0.0226773
0.0217605
0.0210621
0.0219516
0.0226451
0.0220653
0.0212571
0.0216485
0.0223384
0.022506
0.0216478
0.0209775
0.0217503
0.0222922
0.0218324
0.0213264
0.0211283
0.0214104
0.021406
0.0213116
0.0211932
0.0207548
0.0207366
0.0209332
0.020716
0.0202299
0.0198284
0.0202058
0.0202182
0.019855
0.0193765
0.0194798
0.019412
0.0191231
0.0188726
0.0186116
0.0186026
0.0184163
0.0180154
0.0176294
0.0177009
0.0176051
0.0174299
0.0170361
0.0167469
0.0163579
0.0163174
0.0164103
0.0160028
0.0156069
0.0153487
0.015437
0.0150855
0.0148347
0.0145291
0.0142197
0.0142935
0.0140308
0.0138268
0.0136681
0.0132131
0.0129531
0.0129978
0.0128661
0.0126483
0.0124279
0.012276
0.0120536
0.0117985
0.0118144
0.0116911
0.0115375
0.0113824
0.0112147
0.0110462
0.0110829
0.0110199
0.0108842
0.0107393
0.0107202
0.0106402
0.0105691
0.0105043
0.0104543
0.0103947
0.0103441
0.0103705
0.0102918
0.0102174
0.0102109
0.0101879
0.010158
0.0101383
0.0101126
0.0101026
0.0100792
0.0100372
0.0100216
0.0100349
0.0100082
0.00998255
0.00995746
0.0099675
0.00995968
0.00994714
0.00993615
0.00992534
0.0099035
0.00988908
0.00988812
0.00988529
0.00987908
0.00987126
0.00986234
0.00985827
0.00984741
0.00983971
0.00983429
0.00982977
0.00982546
0.00982344
0.00982206
0.00981106
0.00980279
0.00979661
0.00979078
0.00978678
0.00978127
0.00977457
0.00976816
0.0097623
0.0097576
0.0097544
0.00975171
0.00974927
0.00974758
0.00974627
0.00974517
0.00974325
0.00974173
0.00974002
0.00973787
0.00973576
0.00973336
0.00973036
0.00972677
0.00972348
0.00972057
0.00971791
0.0097154
0.00971322
0.0097115
0.00971002
0.0097089
0.00970775
0.00970632
0.00970477
0.00970295
0.00970086
0.00969859
0.00969619
0.00969385
0.00969191
0.00969012
0.0096886
0.00968781
0.00968789
0.00968866
0.00968927
0.00968931
0.00968871
0.0096877
0.00968653
0.00968471
0.00968213
0.00967946
0.00967775
0.00967728
0.00967744
0.00967775
0.00967837
0.00967964
0.00968125
0.00968247
0.00968292
0.00968279
0.00968246
0.00968174
0.0096808
0.00967999
0.00967983
0.0096802
0.00968106
0.00968256
0.00968442
0.00968607
0.00968683
0.00968697
0.00968673
0.00968632
0.0096857
0.00968516
0.00968541
0.00968666
0.00968868
0.00969076
0.00969267
0.00969406
0.00969483
0.00969485
0.00969419
0.00969356
0.00969351
0.00969427
0.00969579
0.00969764
0.00969967
0.00970197
0.00970419
0.00970566
0.00970636
0.00970698
0.00970829
0.00971078
0.00971424
0.00971826
0.00972204
0.00972497
0.00972705
0.00972854
0.00972998
0.00973204
0.00973504
0.00973914
0.00974376
0.0097485
0.00975266
0.00975555
0.00975708
0.00975775
0.0097589
0.00976122
0.00976434
0.0097675
0.00977058
0.00977348
0.00977573
0.00977735
0.0097798
0.0097834
0.00978731
0.00979106
0.00979286
0.00979454
0.00979503
0.0097975
0.00980239
0.00980517
0.00980544
0.00980784
0.00979709
0.00980374
0.00983264
0.00983669
0.0098551
0.00986189
0.00988325
0.00988141
0.00985378
0.00983798
0.00982258
0.00983776
0.00983658
0.00984176
0.0098432
0.00984722
0.00984893
0.00984843
0.00984478
0.00984244
0.0098538
0.00986098
0.00986416
0.00986581
0.00987114
0.00987282
0.00986122
0.00985531
0.00984995
0.00985437
0.00985359
0.00985538
0.00985059
0.0098632
0.00987105
0.00986724
0.00986482
0.00987063
0.00986139
0.00980316
0.00983866
0.00983903
0.00989243
0.00980307
0.00979755
0.00978089
0.0101241
0.010465
0.0125455
0.012119
0.011602
0.0109006
0.010569
0.0103522
0.0102086
0.0101245
0.010077
0.0100433
0.0100189
0.0100014
0.00998248
0.00995912
0.00993888
0.00992784
0.00992479
0.00992158
0.00991339
0.00990208
0.0098922
0.00988649
0.00988548
0.00988858
0.00989399
0.0098998
0.00990427
0.00990637
0.00990585
0.00990244
0.00989559
0.00988531
0.00987203
0.00985928
0.00985633
0.00985579
0.00985555
0.00985559
0.00985584
0.00985615
0.00985636
0.00985641
0.00985634
0.00985631
0.00985644
0.00985683
0.00985869
0.00986177
0.00986101
0.00985751
0.00985602
0.00985566
0.00985561
0.00985575
0.00985612
0.00985663
0.00985845
0.00986419
0.00985588
0.00985355
0.00985286
0.00985541
0.00989923
0.00994263
0.00992115
0.00986547
0.00985828
0.00990156
0.00995328
0.00992033
0.00985404
0.00985159
0.00986263
0.00986585
0.0098506
0.00984959
0.00985635
0.00989955
0.00987876
0.00993612
0.0098986
0.00998451
0.0012562
0.00129754
0.0013199
0.00154821
0.00201663
0.00274466
0.00386922
0.00547522
0.00751653
0.00978069
0.0120412
0.0141815
0.016132
0.0178105
0.0191487
0.0202055
0.02106
0.0217492
0.0223248
0.022805
0.0231457
0.0233832
0.0235946
0.0239552
0.0245291
0.0250734
0.0253811
0.0254603
0.0255691
0.0258432
0.0260433
0.026155
0.02635
0.0268467
0.027353
0.0274036
0.0270533
0.0266788
0.0265543
0.0265304
0.0261594
0.0255419
0.0252021
0.0254398
0.025813
0.0255021
0.0245249
0.0236032
0.0230708
0.0227988
0.0225854
0.0224295
0.0221402
0.0214237
0.0205898
0.0200733
0.0197463
0.019109
0.0184748
0.0186971
0.0198794
0.0208893
0.0208223
0.0204414
0.0208353
0.0217047
0.0219407
0.0213253
0.0205578
0.0200886
0.0203123
0.0213328
0.023332
0.0256908
0.0286089
0.0336992
0.042599
0.0604883
0.0852289
0.100985
0.108476
0.0936693
0.0676531
0.0521064
0.0338685
0.0198197
0.0122859
0.00729817
0.00423968
0.00366102
0.00297355
0.00244498
0.00230818
0.0022875
0.00225677
0.00229498
0.00227491
0.002241
0.00259766
0.00289015
0.00272189
0.0027395
0.00280398
0.00261891
0.00245943
0.00233948
0.0022278
0.00207711
0.00195294
0.00189322
0.00189475
0.00182559
0.00173893
0.00167906
0.00164198
0.00161553
0.00171549
0.0017735
0.00170703
0.00173535
0.00180733
0.00177907
0.0019213
0.00191622
0.00177416
0.00171882
0.00165197
0.00164667
0.00166288
0.00162816
0.00156997
0.00158737
0.00160517
0.00159855
0.00156149
0.00154212
0.00159406
0.00159712
0.0015766
0.0015456
0.00159829
0.00159748
0.00157754
0.00158797
0.00161098
0.00159214
0.00156075
0.0015589
0.00160796
0.0015945
0.00158885
0.00159777
0.00154276
0.00152186
0.0015719
0.00159447
0.00156413
0.00151987
0.0015227
0.00156577
0.00157521
0.001537
0.00150652
0.00154199
0.00157556
0.00155221
0.00151643
0.00152618
0.0015588
0.0015705
0.00152921
0.00150063
0.00153548
0.00155912
0.00152957
0.00151269
0.00151201
0.0015153
0.00150955
0.00150531
0.0015036
0.00148877
0.00148726
0.0014909
0.00147827
0.00145773
0.00144194
0.0014533
0.00145273
0.00143945
0.00142314
0.00142287
0.00141696
0.00140209
0.00138897
0.00138149
0.00138311
0.00137253
0.001354
0.00133955
0.00133907
0.00133541
0.00132881
0.00131016
0.00129922
0.00128865
0.0012867
0.00128448
0.00126753
0.00125573
0.00124906
0.00124823
0.00123393
0.00122556
0.00121657
0.00120647
0.00120549
0.00119736
0.00119112
0.00118507
0.00117217
0.00116616
0.00116343
0.00115896
0.00115368
0.0011468
0.0011424
0.0011366
0.00113068
0.00112901
0.00112601
0.00112227
0.00111794
0.0011143
0.00111061
0.00111018
0.00110889
0.00110742
0.0011047
0.00110324
0.00110125
0.00110008
0.00109916
0.00109811
0.00109704
0.00109688
0.00109748
0.00109608
0.00109496
0.00109527
0.00109505
0.00109475
0.00109485
0.00109465
0.00109446
0.00109415
0.00109396
0.00109424
0.00109399
0.00109341
0.00109354
0.00109396
0.00109431
0.00109421
0.00109414
0.00109407
0.00109374
0.00109342
0.00109368
0.00109375
0.00109372
0.00109348
0.00109352
0.00109375
0.00109364
0.00109328
0.00109339
0.00109351
0.00109356
0.0010936
0.00109368
0.00109365
0.00109328
0.00109349
0.00109348
0.00109342
0.00109336
0.00109323
0.00109315
0.00109306
0.00109296
0.00109293
0.00109282
0.0010927
0.00109265
0.00109262
0.00109261
0.00109257
0.00109251
0.00109247
0.00109242
0.00109234
0.00109227
0.00109219
0.00109211
0.00109203
0.00109195
0.00109188
0.00109182
0.00109177
0.00109173
0.00109169
0.00109165
0.00109162
0.0010916
0.00109159
0.00109158
0.00109158
0.00109156
0.00109155
0.00109156
0.00109158
0.00109161
0.00109165
0.0010917
0.00109176
0.00109181
0.00109188
0.00109197
0.00109205
0.00109212
0.00109219
0.00109227
0.00109237
0.00109245
0.00109254
0.00109264
0.00109275
0.00109288
0.00109302
0.00109315
0.0010933
0.00109344
0.00109358
0.00109373
0.00109388
0.00109404
0.00109418
0.00109433
0.00109448
0.00109462
0.00109476
0.0010949
0.00109505
0.00109521
0.00109536
0.00109549
0.00109561
0.00109575
0.0010959
0.00109604
0.00109619
0.00109635
0.00109649
0.00109663
0.00109677
0.0010969
0.00109702
0.00109714
0.00109725
0.00109736
0.00109745
0.00109754
0.00109764
0.00109776
0.00109786
0.00109794
0.00109802
0.00109812
0.00109824
0.00109836
0.00109846
0.00109858
0.0010987
0.0010988
0.00109889
0.00109899
0.00109909
0.00109919
0.00109931
0.00109943
0.00109957
0.00109972
0.00109985
0.00109996
0.00110008
0.0011002
0.00110033
0.00110048
0.00110061
0.00110075
0.00110086
0.00110096
0.00110103
0.00110112
0.00110126
0.00110141
0.00110158
0.00110174
0.00110186
0.00110196
0.00110209
0.00110219
0.00110224
0.00110238
0.00110263
0.00110284
0.00110331
0.00110335
0.00110292
0.00110281
0.00110272
0.00110321
0.00110337
0.0011038
0.00110401
0.00110438
0.00110468
0.00110453
0.00110493
0.00110489
0.00110497
0.00110504
0.00110519
0.0011053
0.00110554
0.00110574
0.00110604
0.00110617
0.00110616
0.0011065
0.001107
0.0011071
0.00110714
0.00110732
0.00110758
0.00110759
0.00110776
0.00110802
0.0011085
0.00110867
0.00110874
0.00110847
0.00110837
0.00110955
0.00111015
0.00110958
0.00111083
0.00111335
0.00111426
0.00110499
0.00110673
0.0011059
0.001103
0.00111116
0.00113229
0.0011458
0.0011386
0.0011532
0.00113486
0.00113046
0.00112736
0.00112445
0.00112315
0.00112284
0.00112286
0.0011225
0.00112222
0.00112201
0.00112158
0.00112114
0.00112093
0.00112081
0.00112052
0.00112
0.00111928
0.00111858
0.00111799
0.00111763
0.00111754
0.00111768
0.00111795
0.0011182
0.00111828
0.00111813
0.00111777
0.00111728
0.00111676
0.00111629
0.00111598
0.00111584
0.00111587
0.00111608
0.00111621
0.00111615
0.0011159
0.00111554
0.00111521
0.00111504
0.00111511
0.00111539
0.00111575
0.00111604
0.00111616
0.00111617
0.00111623
0.00111641
0.00111671
0.00111696
0.00111693
0.00111661
0.00111627
0.00111609
0.00111623
0.00111679
0.00111754
0.00111815
0.00111913
0.00111989
0.00111988
0.00111977
0.00111906
0.00111892
0.00112023
0.00112122
0.00112086
0.00111883
0.00111858
0.00112118
0.00112243
0.00112053
0.00111922
0.00112221
0.00112343
0.00112088
0.0011204
0.00112189
0.00111679
0.00110608
0.001114
0.00125356
0.0012802
0.00125207
0.00132907
0.00147032
0.00164416
0.00190754
0.00228636
0.00275587
0.00324636
0.00369857
0.00409763
0.00443955
0.0047074
0.0048939
0.00502338
0.00512085
0.00519625
0.00526069
0.0053217
0.00537172
0.00540783
0.00544221
0.00551006
0.00561073
0.00570078
0.00574414
0.00574932
0.00577248
0.00582592
0.00585595
0.00586189
0.00588853
0.00598657
0.00611911
0.00616545
0.00611154
0.00601882
0.00594973
0.00591047
0.00583036
0.0057123
0.00562996
0.00562322
0.00562968
0.0055562
0.00541394
0.0052772
0.00517303
0.00509919
0.00504931
0.00502109
0.00496351
0.00484076
0.00467979
0.00454561
0.00442301
0.00426602
0.00414292
0.00417055
0.00433294
0.00444587
0.00441693
0.00441216
0.00454008
0.00467889
0.00468245
0.00459613
0.00450122
0.00440531
0.00437826
0.00449401
0.00479864
0.00519843
0.0056552
0.00638664
0.00780287
0.0107984
0.0153638
0.0187447
0.0210217
0.0204861
0.0177571
0.0150356
0.0117037
0.00887752
0.00769468
0.00878467
0.00999798
0.0080194
0.00557563
0.00323164
0.00217929
0.00154978
0.00128961
0.00122821
0.00121634
0.00120638
0.0012133
0.00120203
0.00118977
0.00119977
0.00121418
0.00123375
0.00125507
0.00128077
0.00131615
0.00135583
0.00143771
0.00145676
0.00134298
0.00127887
0.00121032
0.00117581
0.00114146
0.0011234
0.00111321
0.00110601
0.00110577
0.00111651
0.00112093
0.00113436
0.00114468
0.00116468
0.00117708
0.00125552
0.00126503
0.00117934
0.00114425
0.00111418
0.00110237
0.00109717
0.00109208
0.00108629
0.00108453
0.00108248
0.0010773
0.00107714
0.00108239
0.00108416
0.00108134
0.00107806
0.00107761
0.00107953
0.00107924
0.0010796
0.00108049
0.00107868
0.00107637
0.00107693
0.00107795
0.00107659
0.00107772
0.00108
0.00107799
0.00107494
0.00107407
0.00107551
0.00107699
0.00107515
0.00107336
0.00107585
0.00107717
0.00107609
0.00107369
0.00107314
0.00107544
0.00107551
0.00107391
0.00107254
0.00107411
0.00107447
0.00107203
0.00107218
0.00107296
0.00107242
0.00107093
0.00107025
0.00107095
0.00107051
0.00106982
0.0010689
0.00106836
0.00106742
0.00106624
0.00106574
0.00106577
0.00106507
0.00106391
0.00106276
0.00106202
0.00106104
0.0010605
0.00105938
0.00105726
0.00105585
0.00105584
0.00105534
0.00105447
0.00105281
0.00105121
0.00105045
0.00104942
0.00104884
0.00104791
0.00104679
0.00104478
0.0010428
0.00104279
0.00104236
0.00104093
0.00103943
0.00103884
0.00103791
0.00103684
0.00103553
0.00103463
0.0010339
0.00103278
0.00103178
0.00103126
0.00103093
0.00102984
0.0010286
0.00102781
0.00102729
0.00102701
0.00102657
0.00102606
0.00102538
0.00102476
0.00102455
0.00102453
0.00102417
0.00102355
0.00102338
0.0010233
0.00102323
0.00102341
0.00102328
0.00102293
0.00102281
0.00102296
0.00102307
0.001023
0.00102285
0.00102313
0.0010235
0.00102325
0.00102311
0.00102327
0.00102337
0.0010234
0.00102344
0.00102342
0.00102336
0.00102327
0.00102332
0.0010235
0.00102338
0.00102324
0.00102317
0.00102315
0.00102316
0.00102308
0.00102293
0.00102277
0.00102262
0.00102243
0.00102227
0.00102218
0.00102218
0.00102223
0.00102208
0.00102174
0.0010215
0.00102131
0.00102114
0.001021
0.00102084
0.00102072
0.0010206
0.00102034
0.00102009
0.00101988
0.00101968
0.00101951
0.00101932
0.00101906
0.00101882
0.00101863
0.00101844
0.00101827
0.00101811
0.00101792
0.00101773
0.00101754
0.00101737
0.00101718
0.001017
0.00101681
0.00101661
0.00101641
0.00101621
0.001016
0.00101579
0.00101558
0.00101538
0.00101519
0.00101498
0.00101479
0.00101462
0.00101444
0.00101427
0.00101411
0.00101394
0.00101378
0.00101362
0.00101345
0.00101328
0.00101312
0.00101296
0.00101281
0.00101266
0.00101252
0.00101238
0.00101226
0.00101215
0.00101204
0.00101193
0.00101182
0.00101171
0.0010116
0.00101149
0.00101137
0.00101126
0.00101116
0.00101108
0.00101101
0.00101094
0.00101087
0.00101081
0.00101075
0.00101069
0.00101062
0.00101056
0.00101048
0.00101041
0.00101034
0.00101027
0.00101021
0.00101015
0.0010101
0.00101005
0.00101001
0.00100996
0.00100991
0.00100985
0.00100979
0.00100972
0.00100965
0.00100959
0.00100952
0.00100947
0.00100942
0.00100937
0.00100931
0.00100924
0.00100918
0.0010091
0.00100902
0.00100895
0.00100887
0.00100881
0.00100874
0.00100867
0.0010086
0.00100853
0.00100845
0.00100836
0.00100827
0.00100818
0.0010081
0.00100803
0.00100795
0.00100787
0.00100778
0.00100769
0.0010076
0.0010075
0.00100741
0.00100732
0.00100724
0.00100716
0.00100708
0.001007
0.00100692
0.00100682
0.00100672
0.00100663
0.00100654
0.00100646
0.00100638
0.00100629
0.00100621
0.00100614
0.00100603
0.00100597
0.00100584
0.00100568
0.00100556
0.00100547
0.00100552
0.00100542
0.00100571
0.0010055
0.0010046
0.00100446
0.00100423
0.00100409
0.00100249
0.00100251
0.00100401
0.001004
0.00100434
0.00100434
0.00100482
0.00100475
0.00100435
0.00100432
0.00100416
0.00100415
0.00100403
0.00100373
0.00100362
0.00100363
0.00100343
0.00100334
0.00100291
0.00100288
0.00100332
0.00100329
0.00100335
0.00100327
0.00100349
0.00100335
0.00100346
0.00100327
0.00100289
0.00100274
0.00100339
0.00100306
0.00100525
0.00100416
0.00100226
0.00100409
0.00100306
0.00100766
0.00100776
0.00101924
0.00101909
0.00100726
0.00100831
0.00100807
0.00100757
0.00100697
0.00100706
0.00100522
0.00100471
0.00100404
0.00100359
0.00100327
0.00100286
0.00100251
0.00100225
0.00100207
0.00100195
0.00100188
0.00100184
0.00100182
0.00100181
0.0010018
0.0010018
0.00100181
0.00100182
0.00100183
0.00100184
0.00100185
0.00100185
0.00100185
0.00100186
0.00100187
0.00100188
0.0010019
0.00100192
0.00100194
0.00100196
0.00100197
0.00100197
0.00100196
0.00100194
0.00100192
0.00100191
0.0010019
0.00100191
0.00100192
0.00100193
0.00100194
0.00100195
0.00100194
0.00100193
0.00100193
0.00100193
0.00100193
0.00100194
0.00100193
0.00100192
0.0010019
0.00100189
0.0010019
0.00100191
0.00100193
0.00100192
0.00100191
0.00100188
0.00100185
0.00100183
0.00100183
0.00100184
0.00100187
0.00100191
0.0010019
0.00100184
0.00100182
0.00100186
0.00100194
0.00100192
0.0010018
0.00100181
0.00100184
0.00100184
0.00100176
0.00100181
0.00100185
0.00100187
0.00100189
0.00100196
0.00100156
0.00100343
0.00100171
0.00125356
0.00127982
0.00124951
0.00131468
0.00142542
0.00153974
0.00170248
0.00192988
0.00219694
0.00244999
0.00264837
0.00278857
0.00287399
0.0029035
0.00288633
0.0028448
0.00279697
0.00275139
0.00271303
0.00268476
0.00266391
0.00264761
0.00263754
0.00263789
0.00264608
0.00265143
0.00264708
0.00263653
0.00263339
0.00263765
0.00263602
0.002627
0.00262103
0.00262923
0.00264423
0.00264536
0.00263023
0.00260996
0.00259491
0.00258302
0.00256401
0.00254221
0.00252924
0.00252375
0.00251306
0.00249263
0.00247185
0.00245738
0.00243804
0.00240965
0.00238658
0.00237471
0.00236003
0.00233464
0.0023026
0.00226695
0.00222577
0.00218764
0.00216572
0.00215876
0.00215593
0.00214349
0.00213081
0.00214008
0.00216763
0.00218172
0.00217688
0.00216826
0.00215838
0.00214224
0.00212906
0.00213143
0.00216259
0.00221737
0.0022817
0.00236942
0.002535
0.0028896
0.00348323
0.00404483
0.00448014
0.0045651
0.0042132
0.00388895
0.00351434
0.00321787
0.00331764
0.00396469
0.00485298
0.0053689
0.00759271
0.0090068
0.00718897
0.00506072
0.00296917
0.00203274
0.00146832
0.00124426
0.00119238
0.00118314
0.00116515
0.00115769
0.00114559
0.00114435
0.00114758
0.00114554
0.00116885
0.00120525
0.00122346
0.00126471
0.00129621
0.00139443
0.00141048
0.00129693
0.00123805
0.00118316
0.001155
0.0011236
0.00110498
0.00109658
0.00109416
0.00109549
0.00109969
0.00110294
0.00111585
0.00112106
0.00114211
0.00116067
0.00123833
0.0012455
0.00116057
0.00112643
0.00109635
0.00108434
0.0010776
0.00108375
0.00108305
0.00107609
0.0010744
0.00107021
0.0010666
0.00106871
0.00107062
0.00106884
0.00106805
0.00106885
0.00106916
0.00106734
0.00106553
0.00106662
0.00106736
0.00106666
0.00106835
0.00106757
0.00106577
0.00106455
0.00106551
0.00106841
0.00106818
0.00106543
0.00106343
0.00106538
0.00106806
0.00106599
0.00106277
0.00106429
0.00106722
0.00106627
0.00106309
0.00106192
0.0010649
0.00106598
0.00106274
0.00106169
0.00106416
0.00106347
0.00106153
0.0010616
0.00106293
0.00106232
0.00106056
0.00106083
0.00106047
0.0010591
0.00105844
0.00105908
0.00105983
0.00105778
0.00105612
0.0010561
0.00105576
0.00105458
0.00105365
0.00105388
0.00105378
0.0010517
0.00104996
0.0010496
0.00104984
0.00104921
0.00104761
0.00104625
0.00104547
0.00104564
0.00104483
0.00104322
0.00104167
0.00104062
0.00104058
0.00104004
0.00103861
0.00103737
0.0010368
0.00103595
0.00103526
0.0010345
0.0010335
0.00103257
0.00103129
0.00103094
0.00103067
0.00102981
0.00102928
0.00102818
0.00102746
0.00102684
0.0010263
0.00102622
0.00102576
0.00102527
0.00102482
0.00102428
0.00102423
0.00102418
0.00102357
0.00102315
0.00102321
0.00102324
0.00102335
0.00102325
0.00102287
0.00102278
0.001023
0.00102303
0.00102299
0.0010229
0.00102321
0.0010233
0.00102297
0.00102294
0.00102313
0.00102314
0.00102316
0.00102317
0.00102315
0.00102313
0.00102308
0.00102313
0.00102322
0.00102303
0.00102285
0.00102271
0.00102269
0.00102274
0.00102264
0.0010225
0.00102238
0.00102223
0.00102201
0.00102185
0.00102179
0.00102175
0.0010216
0.00102144
0.00102131
0.00102113
0.00102089
0.00102068
0.00102055
0.00102039
0.00102025
0.0010201
0.00101983
0.00101957
0.00101935
0.00101916
0.00101895
0.00101872
0.00101848
0.00101825
0.00101806
0.00101786
0.00101768
0.0010175
0.00101732
0.00101714
0.00101697
0.00101679
0.00101661
0.00101642
0.00101623
0.00101603
0.00101583
0.00101563
0.00101541
0.00101519
0.00101498
0.00101476
0.00101456
0.00101436
0.00101416
0.00101397
0.00101378
0.00101361
0.00101344
0.00101326
0.0010131
0.00101293
0.00101275
0.00101258
0.00101241
0.00101224
0.0010121
0.00101195
0.00101181
0.00101167
0.00101154
0.00101143
0.00101132
0.00101121
0.00101108
0.00101096
0.00101085
0.00101074
0.00101062
0.0010105
0.0010104
0.00101032
0.00101024
0.00101017
0.0010101
0.00101004
0.00100997
0.00100991
0.00100983
0.00100976
0.00100969
0.00100962
0.00100955
0.00100948
0.00100941
0.00100936
0.0010093
0.00100925
0.00100919
0.00100914
0.00100907
0.00100901
0.00100894
0.00100888
0.00100882
0.00100875
0.00100869
0.00100864
0.00100858
0.00100852
0.00100846
0.00100839
0.00100831
0.00100824
0.00100816
0.00100808
0.001008
0.00100793
0.00100786
0.00100778
0.0010077
0.00100761
0.00100753
0.00100744
0.00100736
0.00100727
0.00100719
0.00100711
0.00100702
0.00100693
0.00100683
0.00100673
0.00100663
0.00100653
0.00100644
0.00100636
0.00100627
0.00100619
0.0010061
0.00100601
0.00100592
0.00100582
0.00100573
0.00100563
0.00100554
0.00100545
0.00100539
0.00100528
0.00100522
0.00100509
0.00100489
0.00100479
0.0010048
0.0010047
0.00100461
0.00100491
0.00100467
0.00100366
0.0010035
0.00100334
0.00100317
0.00100143
0.00100145
0.00100307
0.00100303
0.0010033
0.00100335
0.00100395
0.00100387
0.00100346
0.00100342
0.00100328
0.0010033
0.00100321
0.00100283
0.00100269
0.00100255
0.00100242
0.00100183
0.00100183
0.00100224
0.00100222
0.0010023
0.00100219
0.00100219
0.00100247
0.00100235
0.00100241
0.00100214
0.00100173
0.00100155
0.00100223
0.00100198
0.00100416
0.00100311
0.001003
0.00100175
0.00100654
0.00100669
0.00100995
0.0010205
0.00102034
0.00100655
0.00100721
0.00100699
0.00100632
0.00100575
0.00100432
0.00100208
0.00100139
0.00100189
0.00100213
0.00100239
0.00100227
0.00100194
0.00100157
0.00100124
0.00100098
0.00100079
0.00100063
0.0010005
0.00100041
0.00100034
0.00100029
0.00100026
0.00100024
0.00100024
0.00100026
0.00100028
0.00100029
0.00100029
0.00100029
0.00100028
0.00100027
0.00100027
0.00100028
0.0010003
0.00100033
0.00100036
0.0010004
0.00100042
0.00100043
0.00100043
0.00100041
0.00100038
0.00100036
0.00100035
0.00100035
0.00100035
0.00100037
0.00100038
0.00100039
0.0010004
0.00100039
0.00100038
0.00100037
0.00100037
0.00100038
0.00100038
0.00100037
0.00100034
0.00100032
0.00100032
0.00100034
0.00100037
0.00100037
0.00100034
0.0010003
0.00100025
0.00100022
0.0010002
0.0010002
0.00100022
0.00100024
0.00100024
0.0010002
0.00100016
0.0010002
0.0010003
0.00100033
0.00100017
0.00100008
0.00100012
0.00100022
0.0010001
0.00100003
0.00100009
0.00100018
0.00100011
0.00100017
0.00100029
0.00099996
0.00100236
0.00100029
0.00125372
0.00128061
0.00125244
0.00131923
0.00143006
0.00154028
0.00169462
0.00190849
0.00215832
0.00239127
0.00256761
0.00268152
0.00273489
0.00272946
0.00267773
0.00260397
0.00252868
0.00245901
0.00239681
0.00234491
0.00230482
0.0022755
0.00225522
0.00224151
0.00223154
0.00222091
0.00220758
0.00219392
0.00218405
0.00217682
0.00216893
0.00215907
0.00214985
0.00214221
0.00213303
0.00211824
0.00210125
0.00208791
0.00208034
0.00207544
0.002069
0.00206628
0.00206939
0.00207249
0.00206967
0.00206425
0.00206372
0.00206394
0.00205057
0.00202661
0.0020108
0.00200369
0.00199279
0.00197666
0.00196428
0.00195132
0.0019322
0.00191676
0.00190783
0.00189342
0.00186744
0.00184124
0.00183263
0.00183435
0.001831
0.00182346
0.00182695
0.00183291
0.00182708