/*--------------------------------*- C++ -*----------------------------------*\
| =========                 |                                                 |
| \\      /  F ield         | OpenFOAM: The Open Source CFD Toolbox           |
|  \\    /   O peration     | Version:  v2006                                 |
|   \\  /    A nd           | Website:  www.openfoam.com                      |
|    \\/     M anipulation  |                                                 |
\*---------------------------------------------------------------------------*/
FoamFile
{
    version     2.0;
    format      ascii;
    class       volScalarField;
    location    "2.9";
    object      p;
}
// * * * * * * * * * * * * * * * * * * * * * * * * * * * * * * * * * * * * * //

dimensions      [1 -1 -2 0 0 0 0];


internalField   nonuniform List<scalar> 
33000
(
8295.85
8304.39
8310.39
8314.88
8319.08
8323.48
8328.04
8332.51
8336.82
8341
8345.15
8349.26
8353.27
8357.16
8360.96
8364.67
8368.27
8371.77
8375.16
8378.44
8381.61
8384.67
8387.62
8390.45
8393.17
8395.76
8398.23
8400.58
8402.83
8404.95
8406.93
8408.76
8410.47
8412.05
8413.5
8414.84
8416.03
8417.09
8418.02
8418.81
8419.48
8420.01
8420.4
8420.67
8420.8
8420.81
8420.69
8420.44
8420.07
8419.57
8418.91
8418.12
8417.23
8416.22
8415.06
8413.77
8412.38
8410.88
8409.25
8407.49
8405.65
8403.7
8401.67
8399.55
8397.34
8395.06
8392.72
8390.35
8387.93
8385.48
8383.05
8380.65
8378.34
8376.15
8374.25
8372.51
8371
8369.08
8362.06
8347.64
8349.81
8343.44
8338.22
8333.62
8328.16
8321.56
8316.59
8311.29
8305.6
8299.79
8294.17
8288.31
8282.49
8276.69
8271.06
8265.39
8260.27
8254.83
8251.26
8244.88
8234.68
8227.45
8219.5
8211.45
8203.75
8195.56
8187.17
8178.92
8170.74
8162.65
8154.57
8146.61
8138.76
8130.96
8123.53
8116.02
8109.7
8101.85
8092.03
8083.84
8075.34
8066.82
8058.56
8050.18
8041.73
8033.46
8025.26
8017.15
8009.17
8001.31
7993.57
7985.96
7978.49
7971.16
7963.99
7956.96
7950.08
7943.34
7936.76
7930.33
7924.04
7917.9
7911.9
7906.05
7900.34
7894.79
7889.37
7884.1
7878.96
7873.96
7869.11
7864.38
7859.81
7855.35
7851.03
7846.82
7842.75
7838.8
7834.97
7831.25
7827.64
7824.15
7820.76
7817.48
7814.29
7811.21
7808.22
7805.32
7802.51
7799.78
7797.14
7794.58
7792.09
7789.68
7787.34
7785.07
7782.87
7780.73
7778.65
7776.64
7774.68
7772.79
7770.95
7769.16
7767.42
7765.73
7764.09
7762.49
7760.93
7759.41
7757.93
7756.47
7755.05
7753.66
7752.3
7750.96
7749.65
7748.36
7747.09
7745.83
7744.59
7743.37
7742.17
7740.98
7739.8
7738.63
7737.48
7736.34
7735.21
7734.1
7733
7731.91
7730.84
7729.79
7728.75
7727.72
7726.71
7725.72
7724.74
7723.78
7722.83
7721.91
7721
7720.1
7719.23
7718.37
7717.53
7716.71
7715.91
7715.12
7714.35
7713.61
7712.88
7712.16
7711.47
7710.79
7710.13
7709.49
7708.87
7708.26
7707.67
7707.1
7706.54
7706.01
7705.49
7704.98
7704.49
7704.03
7703.57
7703.14
7702.72
7702.32
7701.93
7701.56
7701.2
7700.87
7700.54
7700.24
7699.94
7699.66
7699.4
7699.15
7698.92
7698.7
7698.5
7698.31
7698.13
7697.97
7697.82
7697.68
7697.56
7697.45
7697.35
7697.27
7697.2
7697.14
7697.09
7697.06
7697.04
7697.03
7697.03
7697.04
7697.07
7697.1
7697.15
7697.21
7697.28
7697.36
7697.45
7697.55
7697.66
7697.78
7697.91
7698.06
7698.21
7698.37
7698.54
7698.71
7698.9
7699.1
7699.3
7699.51
7699.74
7699.96
7700.2
7700.45
7700.7
7700.96
7701.22
7701.5
7701.77
7702.06
7702.35
7702.65
7702.95
7703.26
7703.58
7703.9
7704.22
7704.55
7704.88
7705.22
7705.56
7705.91
7706.25
7706.6
7706.96
7707.32
7707.68
7708.04
7708.4
7708.77
7709.13
7709.5
7709.87
7710.24
7710.61
7710.98
7711.36
7711.73
7712.1
7712.47
7712.84
7713.21
7713.58
7713.95
7714.31
7714.68
7715.04
7715.4
7715.76
7716.12
7716.48
7716.83
7717.18
7717.53
7717.87
7718.21
7718.55
7718.89
7719.22
7719.55
7719.88
7720.2
7720.52
7720.84
7721.15
7721.46
7721.76
7722.06
7722.36
7722.66
7722.95
7723.23
7723.51
7723.79
7724.07
7724.34
7724.61
7724.87
7725.13
7725.38
7725.63
7725.88
7726.12
7726.36
7726.6
7726.83
7727.06
7727.29
7727.51
7727.73
7727.94
7728.15
7728.36
7728.56
7728.76
7728.96
7729.16
7729.35
7729.54
7729.72
7729.9
7730.08
7730.25
7730.43
7730.6
7730.76
7730.93
7731.09
7731.25
7731.4
7731.56
7731.71
7731.85
7732
7732.14
7732.28
7732.42
7732.56
7732.69
7732.82
7732.95
7733.07
7733.2
7733.32
7733.44
7733.55
7733.67
7733.79
7733.89
7733.99
7734.09
7734.19
7734.3
7734.39
7734.49
7734.59
7734.69
7734.79
7734.88
7734.97
7735.07
7735.16
7735.25
7735.33
7735.42
7735.51
7735.59
7735.67
7735.75
7735.83
7735.91
7735.99
7736.06
7736.14
7736.21
7736.28
7736.36
7736.43
7736.5
7736.56
7736.63
7736.7
7736.76
7736.82
7736.88
7736.92
7736.99
7737.02
7737.04
7737.08
7737.12
7737.17
7737.22
7737.27
7737.32
7737.37
7737.42
7737.47
7737.52
7737.57
7737.62
7737.67
7737.72
7737.77
7737.82
7737.87
7737.92
7737.96
7738.01
7738.06
7738.11
7738.15
7738.2
7738.25
7738.29
7738.34
7738.38
7738.43
7738.47
7738.52
7738.56
7738.6
7738.65
7738.69
7738.73
7738.77
7738.81
7738.85
7738.89
7738.93
7738.97
7739.01
7739.05
7739.09
7739.12
7739.16
7739.2
7739.23
7739.27
7739.31
7739.34
7739.37
7739.41
7739.44
7739.48
7739.51
7739.54
7739.57
7739.61
7739.64
7739.67
7739.7
7739.73
7739.76
7739.79
7739.82
7739.84
7739.87
7739.9
7739.93
7739.95
7739.98
7740.01
7740.03
7740.06
7740.08
7740.1
7740.14
8099.68
8108.24
8114.24
8118.75
8122.95
8127.35
8131.9
8136.38
8140.69
8144.88
8149.04
8153.18
8157.2
8161.1
8164.9
8168.61
8172.23
8175.74
8179.15
8182.44
8185.63
8188.71
8191.67
8194.52
8197.25
8199.85
8202.34
8204.7
8206.94
8209.06
8211.03
8212.88
8214.61
8216.23
8217.68
8218.99
8220.18
8221.25
8222.21
8223.02
8223.67
8224.2
8224.59
8224.88
8225.04
8225.01
8224.87
8224.62
8224.25
8223.73
8223.05
8222.25
8221.32
8220.29
8219.13
8217.85
8216.45
8214.93
8213.29
8211.51
8209.68
8207.75
8205.71
8203.57
8201.33
8199.04
8196.68
8194.26
8191.79
8189.29
8186.76
8184.22
8181.66
8179.09
8176.46
8173.68
8170.62
8167.18
8163.39
8160.77
8159.21
8151.81
8134.23
8137.26
8131.93
8125.99
8121.41
8115.91
8110.18
8103.29
8098.02
8092.05
8086.09
8080.3
8074.33
8068.33
8062.56
8056.6
8050.76
8044.75
8038.05
8034.07
8026.6
8015.4
8007.26
7998.76
7990.67
7982.66
7974.81
7966.78
7958.5
7950.39
7942.36
7934.4
7926.63
7918.85
7911.22
7903.51
7895.5
7888.96
7880.72
7870.69
7862.21
7853.72
7845.37
7837.26
7829.1
7820.89
7812.88
7804.98
7797.23
7789.62
7782.14
7774.8
7767.61
7760.57
7753.68
7746.94
7740.36
7733.93
7727.63
7721.49
7715.5
7709.65
7703.94
7698.38
7692.96
7687.69
7682.55
7677.56
7672.7
7667.98
7663.4
7658.95
7654.62
7650.42
7646.36
7642.41
7638.57
7634.86
7631.25
7627.76
7624.38
7621.1
7617.92
7614.84
7611.86
7608.96
7606.16
7603.43
7600.8
7598.24
7595.76
7593.35
7591.01
7588.75
7586.55
7584.41
7582.34
7580.33
7578.38
7576.49
7574.65
7572.87
7571.14
7569.45
7567.81
7566.21
7564.66
7563.14
7561.66
7560.21
7558.79
7557.41
7556.05
7554.71
7553.4
7552.11
7550.84
7549.59
7548.35
7547.14
7545.93
7544.74
7543.56
7542.4
7541.24
7540.1
7538.98
7537.87
7536.77
7535.68
7534.61
7533.56
7532.52
7531.49
7530.48
7529.49
7528.51
7527.55
7526.61
7525.68
7524.77
7523.87
7523
7522.14
7521.3
7520.48
7519.68
7518.89
7518.13
7517.38
7516.65
7515.94
7515.24
7514.56
7513.9
7513.26
7512.64
7512.03
7511.44
7510.87
7510.32
7509.78
7509.26
7508.75
7508.27
7507.8
7507.35
7506.91
7506.49
7506.09
7505.7
7505.33
7504.98
7504.64
7504.32
7504.01
7503.71
7503.44
7503.18
7502.93
7502.69
7502.47
7502.27
7502.08
7501.9
7501.74
7501.59
7501.46
7501.33
7501.22
7501.13
7501.04
7500.97
7500.91
7500.87
7500.83
7500.81
7500.8
7500.8
7500.82
7500.84
7500.88
7500.93
7500.99
7501.06
7501.14
7501.23
7501.33
7501.44
7501.56
7501.69
7501.83
7501.99
7502.15
7502.32
7502.49
7502.68
7502.88
7503.08
7503.3
7503.52
7503.75
7503.98
7504.23
7504.48
7504.74
7505.01
7505.28
7505.56
7505.85
7506.14
7506.44
7506.74
7507.05
7507.37
7507.68
7508.01
7508.34
7508.67
7509.01
7509.35
7509.7
7510.04
7510.4
7510.75
7511.11
7511.47
7511.83
7512.19
7512.56
7512.93
7513.3
7513.67
7514.04
7514.41
7514.78
7515.15
7515.52
7515.9
7516.27
7516.64
7517.01
7517.38
7517.75
7518.11
7518.48
7518.84
7519.2
7519.56
7519.92
7520.28
7520.63
7520.98
7521.33
7521.67
7522.02
7522.36
7522.69
7523.03
7523.36
7523.68
7524.01
7524.33
7524.64
7524.95
7525.26
7525.57
7525.87
7526.17
7526.46
7526.75
7527.04
7527.32
7527.6
7527.87
7528.15
7528.41
7528.67
7528.93
7529.19
7529.44
7529.69
7529.93
7530.17
7530.41
7530.64
7530.87
7531.09
7531.32
7531.53
7531.75
7531.96
7532.17
7532.37
7532.57
7532.77
7532.96
7533.15
7533.34
7533.53
7533.71
7533.89
7534.06
7534.23
7534.4
7534.57
7534.73
7534.89
7535.05
7535.21
7535.36
7535.51
7535.66
7535.8
7535.95
7536.09
7536.23
7536.36
7536.49
7536.62
7536.75
7536.88
7537
7537.12
7537.25
7537.37
7537.47
7537.58
7537.68
7537.79
7537.89
7537.99
7538.1
7538.2
7538.3
7538.39
7538.49
7538.59
7538.68
7538.78
7538.87
7538.96
7539.05
7539.14
7539.22
7539.31
7539.39
7539.47
7539.55
7539.63
7539.71
7539.79
7539.86
7539.94
7540.01
7540.08
7540.15
7540.23
7540.29
7540.36
7540.42
7540.49
7540.55
7540.65
7540.71
7540.75
7540.81
7540.86
7540.91
7540.95
7540.99
7541.04
7541.08
7541.13
7541.17
7541.22
7541.26
7541.31
7541.36
7541.41
7541.45
7541.5
7541.55
7541.59
7541.64
7541.69
7541.74
7541.78
7541.83
7541.87
7541.92
7541.97
7542.01
7542.06
7542.1
7542.15
7542.19
7542.24
7542.28
7542.32
7542.37
7542.41
7542.45
7542.49
7542.53
7542.57
7542.62
7542.66
7542.7
7542.74
7542.77
7542.81
7542.85
7542.89
7542.93
7542.96
7543
7543.04
7543.07
7543.11
7543.14
7543.18
7543.21
7543.25
7543.28
7543.31
7543.34
7543.38
7543.41
7543.44
7543.47
7543.5
7543.53
7543.56
7543.59
7543.62
7543.65
7543.67
7543.7
7543.73
7543.76
7543.78
7543.81
7543.83
7543.86
7543.88
7543.91
7543.94
7903.49
7912.07
7918.12
7922.65
7926.88
7931.3
7935.88
7940.39
7944.71
7948.92
7953.1
7957.25
7961.29
7965.21
7969.02
7972.75
7976.38
7979.91
7983.33
7986.64
7989.85
7992.95
7995.93
7998.8
8001.55
8004.18
8006.69
8009.07
8011.33
8013.46
8015.45
8017.33
8019.07
8020.7
8022.18
8023.49
8024.69
8025.76
8026.73
8027.56
8028.21
8028.74
8029.13
8029.41
8029.55
8029.53
8029.42
8029.14
8028.75
8028.21
8027.55
8026.75
8025.81
8024.76
8023.6
8022.3
8020.88
8019.35
8017.69
8015.9
8014.03
8012.08
8010
8007.81
8005.55
8003.21
8000.8
7998.29
7995.71
7993.09
7990.41
7987.68
7984.87
7981.97
7978.96
7975.83
7972.54
7969.06
7965.22
7960.94
7956.33
7951.74
7949.21
7947.86
7940
7921.35
7923.5
7919.93
7913.93
7907.89
7902.6
7896.51
7889.31
7883.72
7877.67
7871.49
7865.5
7859.24
7852.91
7846.4
7839.42
7832.52
7825.75
7818.59
7814.1
7806.17
7794.8
7786.29
7777.85
7769.95
7761.86
7754.15
7746.14
7737.97
7729.96
7721.97
7714.1
7706.12
7697.95
7689.88
7681.93
7673.88
7667.19
7658.97
7649.13
7640.77
7632.5
7624.36
7616.5
7608.63
7600.75
7593.1
7585.58
7578.23
7571.03
7563.98
7557.1
7550.35
7543.76
7537.31
7531.01
7524.87
7518.87
7513.01
7507.31
7501.75
7496.33
7491.05
7485.92
7480.93
7476.07
7471.36
7466.77
7462.32
7458
7453.81
7449.75
7445.8
7441.97
7438.26
7434.66
7431.18
7427.8
7424.53
7421.36
7418.29
7415.31
7412.43
7409.64
7406.93
7404.3
7401.75
7399.28
7396.88
7394.55
7392.29
7390.1
7387.97
7385.91
7383.91
7381.97
7380.08
7378.25
7376.48
7374.75
7373.07
7371.44
7369.85
7368.3
7366.79
7365.31
7363.87
7362.46
7361.08
7359.73
7358.4
7357.09
7355.8
7354.54
7353.29
7352.06
7350.84
7349.64
7348.45
7347.27
7346.11
7344.96
7343.83
7342.7
7341.59
7340.49
7339.41
7338.34
7337.29
7336.25
7335.23
7334.22
7333.22
7332.24
7331.28
7330.34
7329.41
7328.5
7327.61
7326.74
7325.88
7325.04
7324.22
7323.41
7322.63
7321.86
7321.12
7320.39
7319.67
7318.98
7318.3
7317.64
7317
7316.37
7315.77
7315.18
7314.61
7314.05
7313.52
7313
7312.49
7312.01
7311.54
7311.09
7310.65
7310.23
7309.83
7309.44
7309.07
7308.72
7308.38
7308.05
7307.75
7307.45
7307.18
7306.92
7306.67
7306.43
7306.22
7306.01
7305.82
7305.64
7305.48
7305.33
7305.2
7305.08
7304.97
7304.87
7304.79
7304.72
7304.66
7304.61
7304.58
7304.56
7304.55
7304.55
7304.57
7304.59
7304.63
7304.68
7304.74
7304.81
7304.89
7304.98
7305.08
7305.19
7305.32
7305.45
7305.59
7305.74
7305.9
7306.07
7306.25
7306.44
7306.64
7306.84
7307.06
7307.28
7307.51
7307.75
7307.99
7308.25
7308.51
7308.77
7309.05
7309.33
7309.61
7309.91
7310.21
7310.51
7310.82
7311.14
7311.46
7311.78
7312.11
7312.45
7312.79
7313.13
7313.48
7313.83
7314.18
7314.53
7314.89
7315.25
7315.62
7315.98
7316.35
7316.72
7317.09
7317.46
7317.83
7318.2
7318.57
7318.95
7319.32
7319.69
7320.06
7320.44
7320.81
7321.18
7321.55
7321.91
7322.28
7322.64
7323.01
7323.37
7323.73
7324.08
7324.44
7324.79
7325.14
7325.48
7325.83
7326.16
7326.5
7326.84
7327.17
7327.49
7327.82
7328.14
7328.45
7328.77
7329.08
7329.38
7329.68
7329.98
7330.27
7330.56
7330.85
7331.13
7331.41
7331.69
7331.96
7332.22
7332.49
7332.75
7333
7333.25
7333.5
7333.74
7333.98
7334.22
7334.45
7334.68
7334.91
7335.13
7335.35
7335.56
7335.77
7335.98
7336.18
7336.38
7336.58
7336.77
7336.97
7337.15
7337.34
7337.52
7337.7
7337.87
7338.04
7338.21
7338.38
7338.54
7338.7
7338.86
7339.02
7339.17
7339.32
7339.47
7339.61
7339.76
7339.9
7340.03
7340.17
7340.3
7340.43
7340.56
7340.7
7340.82
7340.93
7341.04
7341.15
7341.27
7341.38
7341.48
7341.59
7341.7
7341.8
7341.9
7342
7342.1
7342.2
7342.3
7342.39
7342.49
7342.59
7342.68
7342.76
7342.85
7342.94
7343.03
7343.11
7343.19
7343.28
7343.36
7343.44
7343.52
7343.59
7343.67
7343.74
7343.82
7343.89
7343.96
7344.03
7344.1
7344.16
7344.26
7344.31
7344.35
7344.39
7344.44
7344.48
7344.53
7344.59
7344.64
7344.69
7344.74
7344.79
7344.84
7344.89
7344.94
7344.99
7345.04
7345.09
7345.14
7345.19
7345.23
7345.28
7345.33
7345.38
7345.43
7345.48
7345.53
7345.57
7345.62
7345.67
7345.71
7345.76
7345.81
7345.85
7345.9
7345.94
7345.99
7346.03
7346.08
7346.12
7346.16
7346.21
7346.25
7346.29
7346.33
7346.37
7346.41
7346.46
7346.5
7346.53
7346.57
7346.61
7346.65
7346.69
7346.73
7346.76
7346.8
7346.84
7346.87
7346.91
7346.94
7346.98
7347.01
7347.05
7347.08
7347.11
7347.14
7347.18
7347.21
7347.24
7347.27
7347.3
7347.33
7347.36
7347.39
7347.42
7347.45
7347.47
7347.5
7347.53
7347.56
7347.58
7347.61
7347.63
7347.66
7347.68
7347.71
7347.74
7707.34
7715.96
7722.04
7726.6
7730.86
7735.3
7739.92
7744.45
7748.81
7753.04
7757.25
7761.43
7765.51
7769.45
7773.29
7777.05
7780.71
7784.26
7787.71
7791.05
7794.28
7797.4
7800.42
7803.31
7806.09
7808.75
7811.28
7813.69
7815.97
7818.12
7820.14
7822.04
7823.81
7825.44
7826.94
7828.29
7829.51
7830.61
7831.56
7832.37
7833.04
7833.57
7833.98
7834.27
7834.39
7834.38
7834.25
7833.98
7833.58
7833.03
7832.35
7831.55
7830.61
7829.54
7828.34
7827.03
7825.6
7824.03
7822.35
7820.55
7818.65
7816.65
7814.52
7812.26
7809.95
7807.57
7805.06
7802.45
7799.76
7797
7794.15
7791.22
7788.19
7785.05
7781.77
7778.38
7774.83
7771.08
7767.07
7762.8
7758.44
7753.88
7748.96
7743.46
7737.72
7734.35
7732.86
7729.87
7721.69
7704.77
7706.29
7700.26
7693.57
7687.98
7681.41
7674.05
7668.12
7661.62
7655
7648.42
7641.55
7634.57
7627.46
7619.74
7612.33
7604.46
7597.36
7590.29
7584.84
7577.03
7566.01
7557.62
7549.29
7541.1
7533.23
7525.12
7516.88
7508.76
7500.62
7492.59
7484.47
7476.2
7468.08
7460.11
7452.11
7445.42
7437.35
7427.83
7419.73
7411.8
7403.99
7396.46
7388.96
7381.49
7374.25
7367.16
7360.29
7353.53
7346.94
7340.49
7334.19
7328.03
7322.03
7316.17
7310.46
7304.89
7299.47
7294.2
7289.07
7284.07
7279.22
7274.5
7269.92
7265.47
7261.16
7256.98
7252.92
7248.98
7245.16
7241.46
7237.87
7234.4
7231.03
7227.77
7224.62
7221.56
7218.6
7215.73
7212.95
7210.26
7207.64
7205.1
7202.65
7200.26
7197.94
7195.7
7193.52
7191.41
7189.35
7187.37
7185.43
7183.56
7181.74
7179.98
7178.26
7176.59
7174.97
7173.39
7171.85
7170.35
7168.88
7167.45
7166.05
7164.68
7163.33
7162.01
7160.71
7159.43
7158.17
7156.93
7155.7
7154.49
7153.29
7152.11
7150.94
7149.78
7148.63
7147.5
7146.38
7145.27
7144.18
7143.1
7142.03
7140.98
7139.94
7138.92
7137.91
7136.92
7135.94
7134.98
7134.04
7133.11
7132.2
7131.31
7130.44
7129.58
7128.74
7127.92
7127.11
7126.33
7125.56
7124.82
7124.08
7123.37
7122.68
7122
7121.34
7120.7
7120.08
7119.47
7118.88
7118.31
7117.75
7117.22
7116.7
7116.19
7115.71
7115.24
7114.79
7114.35
7113.93
7113.53
7113.15
7112.78
7112.42
7112.08
7111.76
7111.45
7111.16
7110.88
7110.62
7110.37
7110.14
7109.92
7109.72
7109.53
7109.35
7109.19
7109.04
7108.91
7108.79
7108.68
7108.58
7108.5
7108.43
7108.37
7108.33
7108.3
7108.28
7108.27
7108.27
7108.29
7108.31
7108.35
7108.4
7108.46
7108.53
7108.61
7108.71
7108.81
7108.92
7109.05
7109.18
7109.32
7109.47
7109.64
7109.81
7109.99
7110.18
7110.38
7110.58
7110.8
7111.02
7111.25
7111.49
7111.74
7111.99
7112.25
7112.52
7112.8
7113.08
7113.37
7113.66
7113.96
7114.27
7114.58
7114.9
7115.22
7115.55
7115.88
7116.21
7116.55
7116.9
7117.24
7117.6
7117.95
7118.31
7118.67
7119.03
7119.39
7119.76
7120.13
7120.5
7120.87
7121.24
7121.62
7121.99
7122.36
7122.74
7123.11
7123.49
7123.86
7124.23
7124.61
7124.98
7125.35
7125.72
7126.08
7126.45
7126.81
7127.17
7127.53
7127.89
7128.25
7128.6
7128.95
7129.29
7129.64
7129.98
7130.32
7130.65
7130.98
7131.31
7131.63
7131.95
7132.27
7132.58
7132.89
7133.2
7133.5
7133.8
7134.09
7134.38
7134.67
7134.95
7135.23
7135.51
7135.78
7136.04
7136.31
7136.57
7136.82
7137.07
7137.32
7137.56
7137.8
7138.04
7138.27
7138.5
7138.73
7138.95
7139.16
7139.38
7139.59
7139.8
7140
7140.2
7140.4
7140.59
7140.78
7140.97
7141.15
7141.34
7141.51
7141.69
7141.86
7142.03
7142.2
7142.36
7142.52
7142.68
7142.83
7142.99
7143.14
7143.28
7143.43
7143.57
7143.71
7143.85
7143.98
7144.13
7144.25
7144.37
7144.49
7144.61
7144.73
7144.84
7144.96
7145.07
7145.18
7145.29
7145.39
7145.5
7145.6
7145.71
7145.81
7145.91
7146.01
7146.11
7146.2
7146.3
7146.39
7146.48
7146.57
7146.66
7146.75
7146.83
7146.92
7147
7147.08
7147.17
7147.24
7147.33
7147.4
7147.47
7147.55
7147.62
7147.7
7147.76
7147.87
7147.93
7147.98
7148.03
7148.09
7148.15
7148.21
7148.26
7148.31
7148.36
7148.41
7148.46
7148.51
7148.56
7148.6
7148.65
7148.7
7148.75
7148.8
7148.85
7148.9
7148.95
7149
7149.04
7149.09
7149.14
7149.19
7149.24
7149.29
7149.33
7149.38
7149.43
7149.47
7149.52
7149.57
7149.61
7149.66
7149.7
7149.75
7149.79
7149.84
7149.88
7149.93
7149.97
7150.01
7150.05
7150.1
7150.14
7150.18
7150.22
7150.26
7150.3
7150.34
7150.38
7150.42
7150.45
7150.49
7150.53
7150.57
7150.6
7150.64
7150.68
7150.71
7150.75
7150.78
7150.82
7150.85
7150.88
7150.92
7150.95
7150.98
7151.01
7151.04
7151.07
7151.1
7151.13
7151.16
7151.19
7151.22
7151.25
7151.28
7151.31
7151.33
7151.36
7151.39
7151.41
7151.44
7151.46
7151.49
7151.51
7151.54
7511.22
7519.89
7526.03
7530.64
7534.93
7539.42
7544.08
7548.66
7553.05
7557.32
7561.57
7565.78
7569.89
7573.87
7577.74
7581.52
7585.22
7588.81
7592.3
7595.67
7598.93
7602.09
7605.14
7608.07
7610.87
7613.56
7616.13
7618.58
7620.89
7623.06
7625.11
7627.03
7628.82
7630.48
7631.99
7633.37
7634.6
7635.7
7636.67
7637.49
7638.18
7638.72
7639.14
7639.42
7639.55
7639.55
7639.41
7639.14
7638.72
7638.16
7637.47
7636.65
7635.7
7634.6
7633.37
7632.04
7630.59
7628.99
7627.27
7625.44
7623.5
7621.45
7619.27
7616.96
7614.56
7612.09
7609.48
7606.76
7603.96
7601.05
7598.05
7594.93
7591.71
7588.36
7584.87
7581.25
7577.47
7573.53
7569.42
7565.13
7560.68
7556.04
7551.26
7546.55
7541.84
7536.96
7531.88
7526.57
7521.51
7518.24
7516.11
7507.93
7489.49
7491.09
7485.09
7477.7
7471.79
7464.89
7457.09
7450.66
7443.61
7436.41
7429.34
7422.01
7414.68
7407.14
7399.29
7391.51
7383.85
7376.42
7368.85
7363.48
7355.42
7344.53
7336.11
7327.8
7319.55
7311.55
7303.33
7294.97
7286.77
7278.59
7270.56
7262.49
7254.3
7246.3
7238.43
7230.62
7224.03
7216.22
7207.13
7199.38
7191.84
7184.45
7177.26
7170.28
7163.41
7156.57
7149.95
7143.48
7137.16
7131
7124.98
7119.11
7113.39
7107.82
7102.39
7097.11
7091.98
7086.99
7082.14
7077.43
7072.85
7068.41
7064.11
7059.93
7055.88
7051.95
7048.14
7044.45
7040.88
7037.42
7034.07
7030.83
7027.69
7024.65
7021.7
7018.85
7016.09
7013.42
7010.82
7008.3
7005.87
7003.5
7001.2
6998.97
6996.81
6994.71
6992.68
6990.71
6988.79
6986.93
6985.13
6983.38
6981.68
6980.02
6978.41
6976.85
6975.32
6973.84
6972.38
6970.96
6969.57
6968.21
6966.87
6965.56
6964.27
6963
6961.75
6960.51
6959.29
6958.09
6956.9
6955.72
6954.55
6953.4
6952.26
6951.13
6950.01
6948.91
6947.82
6946.74
6945.68
6944.63
6943.59
6942.57
6941.56
6940.57
6939.6
6938.64
6937.7
6936.77
6935.86
6934.97
6934.1
6933.24
6932.41
6931.58
6930.78
6930
6929.23
6928.48
6927.75
6927.04
6926.34
6925.67
6925.01
6924.37
6923.74
6923.14
6922.55
6921.97
6921.42
6920.89
6920.36
6919.86
6919.38
6918.91
6918.46
6918.02
6917.6
6917.2
6916.81
6916.45
6916.09
6915.75
6915.43
6915.12
6914.83
6914.56
6914.29
6914.05
6913.81
6913.6
6913.39
6913.2
6913.03
6912.87
6912.72
6912.59
6912.47
6912.36
6912.27
6912.18
6912.12
6912.06
6912.02
6911.98
6911.97
6911.96
6911.96
6911.98
6912.01
6912.05
6912.1
6912.16
6912.23
6912.31
6912.41
6912.51
6912.63
6912.75
6912.89
6913.03
6913.18
6913.35
6913.52
6913.7
6913.89
6914.09
6914.3
6914.52
6914.74
6914.98
6915.22
6915.46
6915.72
6915.98
6916.25
6916.53
6916.81
6917.1
6917.4
6917.7
6918.01
6918.32
6918.64
6918.96
6919.29
6919.63
6919.96
6920.31
6920.65
6921
6921.36
6921.71
6922.07
6922.43
6922.8
6923.16
6923.53
6923.9
6924.27
6924.65
6925.02
6925.4
6925.77
6926.15
6926.53
6926.9
6927.28
6927.65
6928.03
6928.4
6928.78
6929.15
6929.52
6929.89
6930.25
6930.62
6930.98
6931.34
6931.7
6932.06
6932.41
6932.76
6933.11
6933.45
6933.79
6934.13
6934.47
6934.8
6935.13
6935.45
6935.77
6936.09
6936.41
6936.72
6937.02
6937.32
6937.62
6937.92
6938.21
6938.5
6938.78
6939.06
6939.33
6939.6
6939.87
6940.13
6940.39
6940.65
6940.9
6941.15
6941.39
6941.63
6941.86
6942.1
6942.33
6942.55
6942.77
6942.99
6943.2
6943.41
6943.62
6943.82
6944.02
6944.22
6944.42
6944.61
6944.79
6944.98
6945.16
6945.34
6945.51
6945.68
6945.85
6946.02
6946.18
6946.34
6946.5
6946.65
6946.81
6946.95
6947.1
6947.25
6947.39
6947.54
6947.68
6947.79
6947.92
6948.05
6948.17
6948.29
6948.41
6948.53
6948.65
6948.76
6948.87
6948.99
6949.09
6949.2
6949.31
6949.41
6949.52
6949.62
6949.72
6949.82
6949.91
6950.01
6950.1
6950.2
6950.29
6950.38
6950.47
6950.56
6950.64
6950.73
6950.81
6950.9
6950.98
6951.05
6951.13
6951.2
6951.29
6951.35
6951.47
6951.53
6951.57
6951.63
6951.68
6951.74
6951.8
6951.86
6951.91
6951.97
6952.02
6952.08
6952.13
6952.19
6952.24
6952.29
6952.34
6952.39
6952.44
6952.49
6952.54
6952.59
6952.64
6952.69
6952.74
6952.79
6952.84
6952.89
6952.94
6952.99
6953.04
6953.09
6953.13
6953.18
6953.23
6953.28
6953.32
6953.37
6953.41
6953.46
6953.51
6953.55
6953.6
6953.64
6953.68
6953.73
6953.77
6953.81
6953.86
6953.9
6953.94
6953.98
6954.02
6954.06
6954.1
6954.14
6954.18
6954.22
6954.26
6954.3
6954.33
6954.37
6954.41
6954.44
6954.48
6954.51
6954.55
6954.58
6954.62
6954.65
6954.69
6954.72
6954.75
6954.78
6954.81
6954.85
6954.88
6954.91
6954.94
6954.97
6955
6955.03
6955.05
6955.08
6955.11
6955.14
6955.16
6955.19
6955.22
6955.24
6955.27
6955.29
6955.31
6955.35
7315.12
7323.86
7330.07
7334.73
7339.07
7343.61
7348.33
7352.96
7357.41
7361.72
7366.02
7370.28
7374.44
7378.46
7382.37
7386.19
7389.93
7393.57
7397.1
7400.51
7403.82
7407.01
7410.1
7413.07
7415.92
7418.64
7421.24
7423.72
7426.07
7428.28
7430.36
7432.31
7434.12
7435.8
7437.34
7438.74
7439.99
7441.11
7442.09
7442.93
7443.62
7444.16
7444.58
7444.87
7444.99
7444.98
7444.85
7444.6
7444.14
7443.56
7442.86
7442.04
7441.07
7439.95
7438.7
7437.33
7435.84
7434.2
7432.45
7430.58
7428.59
7426.47
7424.23
7421.87
7419.39
7416.81
7414.09
7411.25
7408.33
7405.29
7402.12
7398.83
7395.44
7391.91
7388.24
7384.43
7380.46
7376.37
7372.14
7367.74
7363.19
7358.53
7353.78
7348.95
7343.93
7338.8
7333.73
7328.78
7323.69
7318.29
7312.39
7306.49
7302.75
7300.42
7291.98
7273.38
7274.36
7268.24
7260.17
7253.79
7246.51
7238.2
7231.34
7223.8
7216.24
7208.69
7201.13
7193.46
7186.01
7178.29
7170.3
7162.46
7154.83
7147.07
7141.33
7133.14
7122.42
7113.95
7105.65
7097.33
7089.27
7081.05
7072.73
7064.58
7056.5
7048.59
7040.67
7032.68
7024.89
7017.24
7009.7
7003.3
6995.81
6987.25
6979.88
6972.7
6966
6959.24
6952.73
6946.28
6939.89
6933.71
6927.68
6921.8
6916.08
6910.51
6905.07
6899.79
6894.66
6889.67
6884.82
6880.12
6875.55
6871.12
6866.82
6862.66
6858.62
6854.7
6850.91
6847.24
6843.69
6840.25
6836.92
6833.7
6830.58
6827.56
6824.64
6821.81
6819.07
6816.42
6813.85
6811.35
6808.94
6806.59
6804.32
6802.11
6799.97
6797.89
6795.88
6793.93
6792.03
6790.19
6788.41
6786.68
6784.99
6783.36
6781.76
6780.22
6778.71
6777.23
6775.8
6774.39
6773.01
6771.66
6770.34
6769.04
6767.76
6766.5
6765.26
6764.03
6762.82
6761.62
6760.44
6759.27
6758.11
6756.97
6755.83
6754.71
6753.6
6752.5
6751.42
6750.34
6749.28
6748.24
6747.2
6746.18
6745.18
6744.19
6743.22
6742.26
6741.32
6740.4
6739.49
6738.6
6737.73
6736.87
6736.03
6735.21
6734.41
6733.63
6732.86
6732.11
6731.38
6730.67
6729.97
6729.3
6728.64
6728
6727.38
6726.77
6726.18
6725.61
6725.05
6724.52
6724
6723.5
6723.01
6722.54
6722.09
6721.66
6721.24
6720.84
6720.45
6720.08
6719.73
6719.39
6719.07
6718.76
6718.47
6718.19
6717.93
6717.69
6717.46
6717.24
6717.04
6716.85
6716.68
6716.51
6716.37
6716.24
6716.12
6716.01
6715.92
6715.84
6715.77
6715.72
6715.67
6715.64
6715.63
6715.62
6715.63
6715.64
6715.67
6715.71
6715.77
6715.83
6715.9
6715.99
6716.08
6716.19
6716.31
6716.43
6716.57
6716.72
6716.87
6717.04
6717.21
6717.39
6717.59
6717.79
6718
6718.22
6718.44
6718.68
6718.92
6719.17
6719.43
6719.69
6719.97
6720.24
6720.53
6720.82
6721.12
6721.42
6721.73
6722.05
6722.37
6722.7
6723.03
6723.36
6723.7
6724.05
6724.4
6724.75
6725.1
6725.46
6725.83
6726.19
6726.56
6726.93
6727.3
6727.67
6728.05
6728.42
6728.8
6729.18
6729.55
6729.93
6730.31
6730.69
6731.07
6731.45
6731.82
6732.2
6732.57
6732.95
6733.32
6733.69
6734.06
6734.43
6734.79
6735.15
6735.51
6735.87
6736.23
6736.58
6736.93
6737.27
6737.62
6737.96
6738.29
6738.62
6738.95
6739.28
6739.6
6739.92
6740.23
6740.54
6740.85
6741.15
6741.45
6741.75
6742.04
6742.33
6742.61
6742.89
6743.16
6743.43
6743.7
6743.96
6744.22
6744.48
6744.73
6744.98
6745.22
6745.46
6745.7
6745.93
6746.16
6746.38
6746.6
6746.82
6747.03
6747.24
6747.45
6747.65
6747.85
6748.05
6748.24
6748.44
6748.62
6748.81
6748.99
6749.16
6749.34
6749.51
6749.68
6749.85
6750.01
6750.16
6750.32
6750.47
6750.63
6750.78
6750.94
6751.08
6751.2
6751.34
6751.47
6751.6
6751.73
6751.85
6751.98
6752.1
6752.22
6752.34
6752.46
6752.57
6752.68
6752.8
6752.9
6753.02
6753.12
6753.22
6753.33
6753.42
6753.53
6753.62
6753.72
6753.82
6753.91
6754
6754.1
6754.19
6754.28
6754.37
6754.46
6754.54
6754.63
6754.7
6754.79
6754.86
6754.99
6755.05
6755.1
6755.16
6755.22
6755.28
6755.35
6755.41
6755.48
6755.54
6755.59
6755.65
6755.71
6755.76
6755.82
6755.87
6755.93
6755.98
6756.03
6756.09
6756.14
6756.19
6756.24
6756.29
6756.34
6756.4
6756.45
6756.5
6756.55
6756.6
6756.65
6756.69
6756.74
6756.79
6756.84
6756.89
6756.94
6756.99
6757.03
6757.08
6757.13
6757.17
6757.22
6757.27
6757.31
6757.36
6757.4
6757.45
6757.49
6757.53
6757.58
6757.62
6757.66
6757.7
6757.74
6757.79
6757.83
6757.87
6757.91
6757.95
6757.99
6758.02
6758.06
6758.1
6758.14
6758.18
6758.21
6758.25
6758.28
6758.32
6758.35
6758.39
6758.42
6758.46
6758.49
6758.52
6758.56
6758.59
6758.62
6758.65
6758.68
6758.71
6758.74
6758.77
6758.8
6758.83
6758.86
6758.89
6758.91
6758.94
6758.97
6758.99
6759.02
6759.05
6759.07
6759.1
6759.12
6759.15
7119.06
7127.88
7134.17
7138.9
7143.3
7147.9
7152.68
7157.38
7161.89
7166.27
7170.62
7174.94
7179.15
7183.22
7187.18
7191.06
7194.85
7198.54
7202.12
7205.58
7208.94
7212.19
7215.33
7218.35
7221.24
7224
7226.63
7229.15
7231.54
7233.79
7235.91
7237.9
7239.75
7241.45
7243
7244.42
7245.7
7246.85
7247.86
7248.71
7249.4
7249.95
7250.36
7250.65
7250.78
7250.76
7250.59
7250.26
7249.85
7249.29
7248.58
7247.76
7246.78
7245.65
7244.37
7242.96
7241.41
7239.74
7237.94
7236.02
7233.96
7231.77
7229.44
7227
7224.43
7221.74
7218.91
7215.95
7212.89
7209.71
7206.39
7202.95
7199.39
7195.7
7191.88
7187.9
7183.78
7179.53
7175.16
7170.64
7165.99
7161.23
7156.37
7151.38
7146.26
7141.07
7135.89
7130.64
7125.21
7119.63
7114.05
7108.45
7102.65
7096.32
7089.92
7085.76
7083.02
7074.36
7055.72
7055.97
7049.63
7040.92
7034.13
7026.55
7017.94
7010.71
7003.03
6995.2
6987.57
6979.83
6972.16
6964.38
6956.62
6948.42
6940.45
6932.59
6924.71
6918.67
6910.41
6899.83
6891.35
6883.12
6874.84
6866.81
6858.7
6850.52
6842.53
6834.64
6826.92
6819.24
6811.5
6804.04
6796.48
6789.41
6782.46
6776.42
6769.58
6761.82
6755.12
6748.7
6742.34
6736.21
6730.19
6724.25
6718.51
6712.93
6707.49
6702.21
6697.08
6692.1
6687.26
6682.56
6678
6673.58
6669.3
6665.15
6661.12
6657.23
6653.46
6649.81
6646.28
6642.86
6639.56
6636.36
6633.27
6630.28
6627.39
6624.59
6621.87
6619.25
6616.7
6614.24
6611.85
6609.53
6607.28
6605.1
6602.99
6600.94
6598.95
6597.02
6595.15
6593.33
6591.57
6589.86
6588.2
6586.59
6585.01
6583.49
6582
6580.54
6579.12
6577.73
6576.37
6575.04
6573.73
6572.44
6571.18
6569.93
6568.7
6567.48
6566.29
6565.1
6563.93
6562.77
6561.62
6560.48
6559.36
6558.24
6557.14
6556.04
6554.96
6553.89
6552.84
6551.79
6550.77
6549.75
6548.75
6547.76
6546.79
6545.84
6544.9
6543.98
6543.07
6542.18
6541.31
6540.46
6539.62
6538.8
6538
6537.22
6536.45
6535.7
6534.97
6534.26
6533.57
6532.89
6532.23
6531.59
6530.97
6530.36
6529.77
6529.2
6528.65
6528.11
6527.59
6527.09
6526.61
6526.14
6525.69
6525.25
6524.84
6524.44
6524.05
6523.68
6523.33
6522.99
6522.67
6522.37
6522.07
6521.8
6521.54
6521.29
6521.06
6520.85
6520.65
6520.46
6520.29
6520.13
6519.98
6519.85
6519.73
6519.63
6519.54
6519.46
6519.39
6519.34
6519.3
6519.27
6519.26
6519.25
6519.26
6519.28
6519.31
6519.35
6519.41
6519.47
6519.55
6519.64
6519.73
6519.84
6519.96
6520.09
6520.23
6520.37
6520.53
6520.7
6520.88
6521.06
6521.26
6521.46
6521.67
6521.89
6522.12
6522.36
6522.6
6522.86
6523.12
6523.38
6523.66
6523.94
6524.23
6524.52
6524.82
6525.13
6525.44
6525.76
6526.09
6526.42
6526.75
6527.09
6527.43
6527.78
6528.13
6528.49
6528.84
6529.21
6529.57
6529.94
6530.31
6530.68
6531.06
6531.43
6531.81
6532.19
6532.57
6532.95
6533.33
6533.71
6534.09
6534.47
6534.86
6535.24
6535.62
6535.99
6536.37
6536.75
6537.12
6537.5
6537.87
6538.24
6538.6
6538.97
6539.33
6539.69
6540.05
6540.4
6540.75
6541.1
6541.44
6541.78
6542.12
6542.45
6542.78
6543.11
6543.43
6543.75
6544.07
6544.38
6544.69
6544.99
6545.29
6545.58
6545.88
6546.16
6546.45
6546.73
6547
6547.27
6547.54
6547.8
6548.06
6548.32
6548.57
6548.82
6549.06
6549.3
6549.53
6549.77
6549.99
6550.22
6550.44
6550.66
6550.87
6551.08
6551.29
6551.49
6551.69
6551.89
6552.08