/*--------------------------------*- C++ -*----------------------------------*\
| =========                 |                                                 |
| \\      /  F ield         | OpenFOAM: The Open Source CFD Toolbox           |
|  \\    /   O peration     | Version:  v2006                                 |
|   \\  /    A nd           | Website:  www.openfoam.com                      |
|    \\/     M anipulation  |                                                 |
\*---------------------------------------------------------------------------*/
FoamFile
{
    version     2.0;
    format      ascii;
    class       surfaceScalarField;
    location    "2.9";
    object      phi;
}
// * * * * * * * * * * * * * * * * * * * * * * * * * * * * * * * * * * * * * //

dimensions      [0 3 -1 0 0 0 0];
oriented        oriented;


internalField   nonuniform List<scalar> 
65390
(
4.38333e-05
-1.60885e-06
4.5472e-05
-1.63997e-06
4.71184e-05
-1.64745e-06
4.87795e-05
-1.66161e-06
5.04121e-05
-1.63283e-06
5.19894e-05
-1.57718e-06
5.35216e-05
-1.53173e-06
5.5053e-05
-1.53063e-06
5.66323e-05
-1.57833e-06
5.82154e-05
-1.58195e-06
5.97585e-05
-1.54184e-06
6.1284e-05
-1.52418e-06
6.28044e-05
-1.51884e-06
6.42789e-05
-1.47282e-06
6.57639e-05
-1.48346e-06
6.72334e-05
-1.46804e-06
6.86513e-05
-1.41632e-06
7.00292e-05
-1.37618e-06
7.13416e-05
-1.31069e-06
7.25385e-05
-1.19527e-06
7.36572e-05
-1.11702e-06
7.47748e-05
-1.11588e-06
7.59934e-05
-1.21682e-06
7.72695e-05
-1.27426e-06
7.83552e-05
-1.08387e-06
7.91537e-05
-7.96745e-07
7.98771e-05
-7.21629e-07
8.07603e-05
-8.81438e-07
8.17371e-05
-9.75217e-07
8.25524e-05
-8.13928e-07
8.32378e-05
-6.8415e-07
8.39399e-05
-7.01189e-07
8.46836e-05
-7.43095e-07
8.52415e-05
-5.57725e-07
8.56538e-05
-4.12653e-07
8.60695e-05
-4.16607e-07
8.66178e-05
-5.49548e-07
8.71969e-05
-5.8079e-07
8.75939e-05
-3.99092e-07
8.77849e-05
-1.93425e-07
8.79778e-05
-1.95592e-07
8.83235e-05
-3.48505e-07
8.87392e-05
-4.18582e-07
8.89878e-05
-2.51493e-07
8.89259e-05
5.91761e-08
8.88671e-05
5.64941e-08
8.89401e-05
-7.49895e-08
8.90885e-05
-1.49961e-07
8.9158e-05
-7.0536e-08
8.91242e-05
3.34865e-08
8.90939e-05
3.05996e-08
8.90155e-05
7.92915e-08
8.87788e-05
2.38049e-07
8.85794e-05
2.01037e-07
8.84641e-05
1.17278e-07
8.82719e-05
1.94401e-07
8.79137e-05
3.60663e-07
8.75422e-05
3.74014e-07
8.72564e-05
2.88243e-07
8.6935e-05
3.23706e-07
8.63538e-05
5.8325e-07
8.54957e-05
8.59779e-07
8.4632e-05
8.65146e-07
8.39104e-05
7.22769e-07
8.31747e-05
7.36449e-07
8.21598e-05
1.01524e-06
8.09357e-05
1.22408e-06
7.97622e-05
1.17303e-06
7.85982e-05
1.1631e-06
7.7305e-05
1.29194e-06
7.58023e-05
1.50097e-06
7.40745e-05
1.726e-06
7.17838e-05
2.28868e-06
6.89475e-05
2.83428e-06
6.54567e-05
3.48892e-06
6.06511e-05
4.80394e-06
5.40772e-05
6.5726e-06
4.4463e-05
9.61328e-06
3.58325e-05
8.62988e-06
3.13286e-05
4.50354e-06
2.89536e-05
2.37485e-06
2.85584e-05
3.9544e-07
2.78039e-05
7.54675e-07
2.77483e-05
5.6178e-08
2.83124e-05
-5.6351e-07
2.8032e-05
2.81027e-07
2.76443e-05
3.88349e-07
2.73847e-05
2.60299e-07
2.72172e-05
1.68038e-07
2.69013e-05
3.16388e-07
2.65833e-05
3.18539e-07
2.63674e-05
2.16391e-07
2.60534e-05
3.14483e-07
2.56684e-05
3.85536e-07
2.51383e-05
5.30706e-07
2.44976e-05
6.41409e-07
2.36247e-05
8.73538e-07
2.26422e-05
9.83088e-07
2.0934e-05
1.70896e-06
1.90557e-05
1.87902e-06
1.78484e-05
1.20812e-06
1.73962e-05
4.53121e-07
1.73601e-05
3.69467e-08
1.71872e-05
1.73746e-07
1.72137e-05
-2.58214e-08
1.72738e-05
-5.95598e-08
1.71411e-05
1.3297e-07
1.69403e-05
2.00832e-07
1.67351e-05
2.05096e-07
1.65415e-05
1.934e-07
1.6311e-05
2.30121e-07
1.60708e-05
2.39701e-07
1.57937e-05
2.7666e-07
1.54705e-05
3.22683e-07
1.5042e-05
4.27888e-07
1.45611e-05
4.80416e-07
1.37145e-05
8.46086e-07
1.28347e-05
8.79296e-07
1.2305e-05
5.29144e-07
1.20845e-05
2.20013e-07
1.20285e-05
5.55784e-08
1.18808e-05
1.47333e-07
1.18044e-05
7.61834e-08
1.17515e-05
5.26209e-08
1.16096e-05
1.41786e-07
1.1461e-05
1.48478e-07
1.13195e-05
1.4147e-07
1.11589e-05
1.60479e-07
1.09917e-05
1.67199e-07
1.08239e-05
1.67871e-07
1.06569e-05
1.66972e-07
1.04822e-05
1.74797e-07
1.02972e-05
1.85111e-07
1.01066e-05
1.90799e-07
9.92054e-06
1.86316e-07
9.73945e-06
1.81394e-07
9.55004e-06
1.89753e-07
9.35637e-06
1.94022e-07
9.1655e-06
1.91245e-07
8.98325e-06
1.8262e-07
8.79271e-06
1.90905e-07
8.59873e-06
1.94329e-07
8.40879e-06
1.90294e-07
8.2228e-06
1.86353e-07
8.03105e-06
1.9212e-07
7.83962e-06
1.91786e-07
7.6548e-06
1.8516e-07
7.47593e-06
1.79196e-07
7.28958e-06
1.86665e-07
7.10257e-06
1.87301e-07
6.91732e-06
1.85526e-07
6.72985e-06
1.8772e-07
6.5574e-06
1.72655e-07
6.39344e-06
1.64137e-07
6.21974e-06
1.73817e-07
6.0391e-06
1.80717e-07
5.86511e-06
1.74032e-07
5.70484e-06
1.60281e-07
5.54839e-06
1.56458e-07
5.38283e-06
1.65565e-07
5.21509e-06
1.6775e-07
5.05837e-06
1.5675e-07
4.91195e-06
1.46465e-07
4.75924e-06
1.52762e-07
4.59824e-06
1.61057e-07
4.44686e-06
1.51439e-07
4.30586e-06
1.41047e-07
4.16251e-06
1.43398e-07
4.01241e-06
1.50141e-07
3.86104e-06
1.51422e-07
3.72167e-06
1.39407e-07
3.59141e-06
1.30308e-07
3.45341e-06
1.38049e-07
3.30833e-06
1.45128e-07
3.16928e-06
1.39105e-07
3.03863e-06
1.30716e-07
2.91114e-06
1.27565e-07
2.78025e-06
1.30968e-07
2.64877e-06
1.31577e-07
2.51881e-06
1.30074e-07
2.39116e-06
1.27772e-07
2.27021e-06
1.21076e-07
2.14915e-06
1.21194e-07
2.02436e-06
1.24934e-07
1.90193e-06
1.22574e-07
1.78646e-06
1.15602e-07
1.67646e-06
1.10134e-07
1.56054e-06
1.16047e-07
1.44291e-06
1.1773e-07
1.3307e-06
1.12305e-07
1.22398e-06
1.06788e-07
1.11571e-06
1.08317e-07
1.00662e-06
1.09125e-07
9.00541e-07
1.06095e-07
7.9725e-07
1.03291e-07
6.97365e-07
9.98729e-08
5.95989e-07
1.01352e-07
4.96189e-07
9.97668e-08
4.01209e-07
9.49406e-08
3.1107e-07
9.00924e-08
2.18302e-07
9.27183e-08
1.24678e-07
9.35719e-08
3.22091e-08
9.24164e-08
-5.48026e-08
8.69592e-08
-1.38371e-07
8.35172e-08
-2.17963e-07
7.95414e-08
-2.98881e-07
8.08703e-08
-3.82978e-07
8.40515e-08
-4.62811e-07
7.97901e-08
-5.37051e-07
7.41989e-08
-6.09319e-07
7.22308e-08
-6.85118e-07
7.57642e-08
-7.57346e-07
7.21954e-08
-8.27273e-07
6.98965e-08
-8.93355e-07
6.60532e-08
-9.55748e-07
6.23662e-08
-1.02221e-06
6.64346e-08
-1.08602e-06
6.37855e-08
-1.14808e-06
6.204e-08
-1.20945e-06
6.13498e-08
-1.26375e-06
5.42814e-08
-1.31592e-06
5.21567e-08
-1.37038e-06
5.44388e-08
-1.42458e-06
5.41939e-08
-1.47572e-06
5.11197e-08
-1.52462e-06
4.88879e-08
-1.57252e-06
4.78913e-08
-1.61733e-06
4.47912e-08
-1.65834e-06
4.10043e-08
-1.70122e-06
4.28626e-08
-1.74324e-06
4.20068e-08
-1.78283e-06
3.95763e-08
-1.82061e-06
3.77719e-08
-1.85547e-06
3.48452e-08
-1.88717e-06
3.16881e-08
-1.92115e-06
3.39714e-08
-1.95451e-06
3.33396e-08
-1.98556e-06
3.10401e-08
-2.01354e-06
2.79617e-08
-2.04188e-06
2.83226e-08
-2.06861e-06
2.67191e-08
-2.09386e-06
2.52331e-08
-2.11779e-06
2.39178e-08
-2.14094e-06
2.31268e-08
-2.16262e-06
2.16522e-08
-2.18287e-06
2.02327e-08
-2.20505e-06
2.2152e-08
-2.22471e-06
1.96457e-08
-2.24156e-06
1.68255e-08
-2.25889e-06
1.73145e-08
-2.27572e-06
1.68138e-08
-2.29162e-06
1.58845e-08
-2.30714e-06
1.54959e-08
-2.32166e-06
1.45002e-08
-2.33629e-06
1.46153e-08
-2.35018e-06
1.38638e-08
-2.36196e-06
1.17565e-08
-2.37316e-06
1.11807e-08
-2.38576e-06
1.25837e-08
-2.39737e-06
1.1588e-08
-2.40777e-06
1.03907e-08
-2.41653e-06
8.7466e-09
-2.42654e-06
9.98707e-09
-2.43636e-06
9.81273e-09
-2.44567e-06
9.29066e-09
-2.45459e-06
8.90623e-09
-2.46314e-06
8.5301e-09
-2.47023e-06
7.07649e-09
-2.47643e-06
6.19114e-09
-2.48313e-06
6.6949e-09
-2.49009e-06
6.94359e-09
-2.49688e-06
6.78003e-09
-2.50334e-06
6.44641e-09
-2.50928e-06
5.93063e-09
-2.515e-06
5.7109e-09
-2.51993e-06
4.92276e-09
-2.52472e-06
4.78051e-09
-2.52933e-06
4.59667e-09
-2.53369e-06
4.35049e-09
-2.53786e-06
4.1592e-09
-2.54206e-06
4.19071e-09
-2.54621e-06
4.14351e-09
-2.54945e-06
3.22254e-09
-2.55225e-06
2.79407e-09
-2.55464e-06
2.37142e-09
-2.55671e-06
2.0652e-09
-2.55898e-06
2.25731e-09
-2.5611e-06
2.10478e-09
-2.56283e-06
1.72167e-09
-2.56419e-06
1.3476e-09
-2.56494e-06
7.41035e-10
-2.56525e-06
3.07869e-10
-2.56574e-06
4.7797e-10
-2.56607e-06
3.22883e-10
-2.56613e-06
4.97869e-11
-2.56595e-06
-1.88054e-10
-2.56543e-06
-5.25172e-10
-2.56472e-06
-7.22846e-10
-2.56383e-06
-9.00052e-10
-2.56271e-06
-1.12744e-09
-2.56136e-06
-1.35438e-09
-2.55976e-06
-1.61001e-09
-2.55788e-06
-1.891e-09
-2.55583e-06
-2.05831e-09
-2.55355e-06
-2.28645e-09
-2.5509e-06
-2.65084e-09
-2.54788e-06
-3.03182e-09
-2.54464e-06
-3.24777e-09
-2.54123e-06
-3.41363e-09
-2.5375e-06
-3.73117e-09
-2.53342e-06
-4.09002e-09
-2.52904e-06
-4.38078e-09
-2.52438e-06
-4.66764e-09
-2.51941e-06
-4.96612e-09
-2.51415e-06
-5.26729e-09
-2.50856e-06
-5.59319e-09
-2.50265e-06
-5.91202e-09
-2.49644e-06
-6.21195e-09
-2.48992e-06
-6.5227e-09
-2.48305e-06
-6.87418e-09
-2.47581e-06
-7.23816e-09
-2.46822e-06
-7.59135e-09
-2.46028e-06
-7.94615e-09
-2.45202e-06
-8.25601e-09
-2.4434e-06
-8.61834e-09
-2.43437e-06
-9.03089e-09
-2.42492e-06
-9.45918e-09
-2.41517e-06
-9.74773e-09
-2.40506e-06
-1.01125e-08
-2.39456e-06
-1.04988e-08
-2.38367e-06
-1.08973e-08
-2.37234e-06
-1.13329e-08
-2.36058e-06
-1.17598e-08
-2.3484e-06
-1.21813e-08
-2.33578e-06
-1.26248e-08
-2.32273e-06
-1.3059e-08
-2.30925e-06
-1.34809e-08
-2.29536e-06
-1.38972e-08
-2.28106e-06
-1.43029e-08
-2.26636e-06
-1.47118e-08
-2.25125e-06
-1.51102e-08
-2.23579e-06
-1.54672e-08
-2.21996e-06
-1.58356e-08
-2.20375e-06
-1.62134e-08
-2.18716e-06
-1.65993e-08
-2.1702e-06
-1.69733e-08
-2.15288e-06
-1.73251e-08
-2.13521e-06
-1.76794e-08
-2.11719e-06
-1.80289e-08
-2.09883e-06
-1.83724e-08
-2.08012e-06
-1.87141e-08
-2.06113e-06
-1.90022e-08
-2.04187e-06
-1.92681e-08
-2.02235e-06
-1.95347e-08
-2.00257e-06
-1.97898e-08
-1.98255e-06
-2.00257e-08
-1.96231e-06
-2.02523e-08
-1.94185e-06
-2.04678e-08
-1.92118e-06
-2.06794e-08
-1.90029e-06
-2.08983e-08
-1.87922e-06
-2.10727e-08
-1.85799e-06
-2.1245e-08
-1.8366e-06
-2.13969e-08
-1.81508e-06
-2.15222e-08
-1.79346e-06
-2.16268e-08
-1.77176e-06
-2.1714e-08
-1.74997e-06
-2.17918e-08
-1.7281e-06
-2.18703e-08
-1.70617e-06
-2.19354e-08
-1.68417e-06
-2.20044e-08
-1.66209e-06
-2.20816e-08
-1.63997e-06
-2.21315e-08
-1.61781e-06
-2.2161e-08
-1.59564e-06
-2.21719e-08
-1.57347e-06
-2.21676e-08
-1.55132e-06
-2.21496e-08
-1.52921e-06
-2.21144e-08
-1.50714e-06
-2.20654e-08
-1.48513e-06
-2.20089e-08
-1.46318e-06
-2.19535e-08
-1.44128e-06
-2.18997e-08
-1.41944e-06
-2.18357e-08
-1.39769e-06
-2.17508e-08
-1.37605e-06
-2.16399e-08
-1.35454e-06
-2.15061e-08
-1.33317e-06
-2.13689e-08
-1.31194e-06
-2.12263e-08
-1.29085e-06
-2.10879e-08
-1.2699e-06
-2.09507e-08
-1.24909e-06
-2.08114e-08
-1.22842e-06
-2.06723e-08
-1.20788e-06
-2.05367e-08
-1.18749e-06
-2.03901e-08
-1.16729e-06
-2.01983e-08
-1.14727e-06
-2.00154e-08
-1.12744e-06
-1.98267e-08
-1.1078e-06
-1.96356e-08
-1.08835e-06
-1.9453e-08
-1.06905e-06
-1.92909e-08
-1.04992e-06
-1.91332e-08
-1.03095e-06
-1.89632e-08
-1.01217e-06
-1.87757e-08
-9.93599e-07
-1.85732e-08
-9.75236e-07
-1.83615e-08
-9.57096e-07
-1.81398e-08
-9.39168e-07
-1.79264e-08
-9.21469e-07
-1.76992e-08
-9.03965e-07
-1.75038e-08
-8.8668e-07
-1.72861e-08
-8.69631e-07
-1.70499e-08
-8.52811e-07
-1.68215e-08
-8.36215e-07
-1.65974e-08
-8.19802e-07
-1.64154e-08
-8.03629e-07
-1.61753e-08
-7.87617e-07
-1.60137e-08
-7.71692e-07
-1.59283e-08
-7.5603e-07
-1.56652e-08
-7.40344e-07
-1.56899e-08
-7.24838e-07
-1.55105e-08
-7.09983e-07
-1.48586e-08
-6.95113e-07
-1.48738e-08
-6.80196e-07
-1.49212e-08
-6.66015e-07
-1.41844e-08
-6.49849e-07
-1.61684e-08
-6.33958e-07
-1.5893e-08
-6.21807e-07
-1.21529e-08
-6.07645e-07
-1.41619e-08
-5.95855e-07
-1.17905e-08
-5.87722e-07
-8.13119e-09
-5.85797e-07
-1.92305e-09
-5.84196e-07
-1.59645e-09
-5.7681e-07
-7.38133e-09
-5.69079e-07
-7.72483e-09
-5.5951e-07
-9.56181e-09
-5.49644e-07
-9.85646e-09
-5.39254e-07
-1.03798e-08
-5.2887e-07
-1.03721e-08
-5.18299e-07
-1.05584e-08
-5.07703e-07
-1.05812e-08
-4.96852e-07
-1.08349e-08
-4.86239e-07
-1.05954e-08
-4.75117e-07
-1.11028e-08
-4.64051e-07
-1.10453e-08
-4.53927e-07
-1.01012e-08
-4.43269e-07
-1.06341e-08
-4.33206e-07
-1.00359e-08
-4.24113e-07
-9.0652e-09
-4.16463e-07
-7.61918e-09
-4.08952e-07
-7.47749e-09
-3.99984e-07
-8.93203e-09
-3.91089e-07
-8.85572e-09
-3.82189e-07
-8.85807e-09
-3.73201e-07
-8.94205e-09
-3.647e-07
-8.45114e-09
-3.56074e-07
-8.57246e-09
-3.47903e-07
-8.11305e-09
-3.38594e-07
-9.24653e-09
-3.29675e-07
-8.85274e-09
-3.22034e-07
-7.56877e-09
-3.1364e-07
-8.31572e-09
-3.05509e-07
-8.04564e-09
-2.99582e-07
-5.83613e-09
-2.8404e-07
-1.54491e-08
-2.70635e-07
-1.3321e-08
-2.67251e-07
-3.33641e-09
-2.54791e-07
-1.25192e-08
-2.6457e-07
9.5008e-09
-2.80347e-07
1.49553e-08
-3.48433e-07
6.67889e-08
-4.10978e-07
6.01876e-08
-4.55185e-07
4.0017e-08
-4.82064e-07
2.30504e-08
-4.99003e-07
1.34735e-08
-5.09658e-07
7.52391e-09
-5.16318e-07
3.83146e-09
-5.20429e-07
1.55495e-09
-5.22792e-07
5.08118e-11
-5.23813e-07
-1.07332e-09
-5.23727e-07
-1.98578e-09
-5.22678e-07
-2.77385e-09
-5.20951e-07
-3.29647e-09
-5.18779e-07
-3.60003e-09
-5.16172e-07
-3.91011e-09
-5.1323e-07
-4.13346e-09
-5.10014e-07
-4.30649e-09
-5.06545e-07
-4.47138e-09
-5.02807e-07
-4.65982e-09
-4.98795e-07
-4.86234e-09
-4.94535e-07
-5.04716e-09
-4.90075e-07
-5.18953e-09
-4.85471e-07
-5.27974e-09
-4.80774e-07
-5.32417e-09
-4.76016e-07
-5.33986e-09
-4.71209e-07
-5.3459e-09
-4.6633e-07
-5.37548e-09
-4.61358e-07
-5.42664e-09
-4.56312e-07
-5.46032e-09
-4.51162e-07
-5.52449e-09
-4.45877e-07
-5.61818e-09
-4.40434e-07
-5.7354e-09
-4.34802e-07
-5.88359e-09
-4.28962e-07
-6.05325e-09
-4.22911e-07
-6.22391e-09
-4.16675e-07
-6.37341e-09
-4.10304e-07
-6.47154e-09
-4.03852e-07
-6.52084e-09
-3.97352e-07
-6.53977e-09
-3.90843e-07
-6.52152e-09
-3.84365e-07
-6.4696e-09
-3.77943e-07
-6.39426e-09
-3.71609e-07
-6.2925e-09
-3.65399e-07
-6.15855e-09
-3.59343e-07
-5.99865e-09
-3.53445e-07
-5.83764e-09
-3.47678e-07
-5.70778e-09
-3.41987e-07
-5.63551e-09
-3.36308e-07
-5.62945e-09
-3.30584e-07
-5.68219e-09
-3.24771e-07
-5.78074e-09
-3.18836e-07
-5.91162e-09
-3.12778e-07
-6.04579e-09
-3.06655e-07
-6.12012e-09
-3.00604e-07
-6.05786e-09
-2.94776e-07
-5.84424e-09
-2.8921e-07
-5.59026e-09
-2.83771e-07
-5.47005e-09
-2.78204e-07
-5.60451e-09
-2.7237e-07
-5.87496e-09
-2.66486e-07
-5.92884e-09
-2.60944e-07
-5.58868e-09
-2.55944e-07
-5.04843e-09
-2.51332e-07
-4.66094e-09
-2.46564e-07
-4.81696e-09
-2.41343e-07
-5.2688e-09
-2.36069e-07
-5.32066e-09
-2.31209e-07
-4.90575e-09
-2.26775e-07
-4.47915e-09
-2.22084e-07
-4.73364e-09
-2.16695e-07
-5.43048e-09
-2.1118e-07
-5.55619e-09
-2.05988e-07
-5.23198e-09
-2.00844e-07
-5.18421e-09
-1.95125e-07
-5.75856e-09
-1.89162e-07
-6.00183e-09
-1.83827e-07
-5.37337e-09
-1.7899e-07
-4.87379e-09
-1.7397e-07
-5.0561e-09
-1.69209e-07
-4.7964e-09
-1.64235e-07
-5.00415e-09
-2.21581e-09
4.39126e-05
-3.23853e-06
4.55774e-05
-3.30329e-06
4.72516e-05
-3.32055e-06
4.89363e-05
-3.34531e-06
5.06012e-05
-3.29713e-06
5.21894e-05
-3.16515e-06
5.3722e-05
-3.06443e-06
5.52227e-05
-3.03165e-06
5.67315e-05
-3.08802e-06
5.82556e-05
-3.10708e-06
5.9809e-05
-3.09644e-06
6.13786e-05
-3.09512e-06
6.29335e-05
-3.07541e-06
6.44429e-05
-2.98405e-06
6.59026e-05
-2.94515e-06
6.73095e-05
-2.87707e-06
6.86734e-05
-2.78238e-06
6.99984e-05
-2.70345e-06
7.12972e-05
-2.61205e-06
7.25482e-05
-2.44887e-06
7.37503e-05
-2.32188e-06
7.48888e-05
-2.25725e-06
7.6025e-05
-2.35598e-06
7.71168e-05
-2.36894e-06
7.815e-05
-2.11997e-06
7.90998e-05
-1.74918e-06
8.00116e-05
-1.63605e-06
8.09136e-05
-1.7857e-06
8.18199e-05
-1.88352e-06
8.26104e-05
-1.60601e-06
8.33073e-05
-1.38194e-06
8.39787e-05
-1.37291e-06
8.4713e-05
-1.47703e-06
8.54696e-05
-1.31327e-06
8.60003e-05
-9.41502e-07
8.63815e-05
-7.95117e-07
8.67066e-05
-8.71338e-07
8.71076e-05
-9.77641e-07
8.7635e-05
-9.21961e-07
8.80728e-05
-6.26134e-07
8.83631e-05
-4.80502e-07
8.86047e-05
-5.84567e-07
8.88695e-05
-6.77574e-07
8.91877e-05
-5.63988e-07
8.9379e-05
-1.26816e-07
8.94197e-05
2.06306e-08
8.94549e-05
-1.05457e-07
8.95522e-05
-2.4333e-07
8.96634e-05
-1.78625e-07
8.96872e-05
1.21857e-08
8.96025e-05
1.16825e-07
8.94187e-05
2.63871e-07
8.9179e-05
4.77671e-07
8.89629e-05
4.16383e-07
8.87659e-05
3.12923e-07
8.85078e-05
4.50733e-07
8.80888e-05
7.77243e-07
8.76587e-05
8.01454e-07
8.73202e-05
6.23956e-07
8.69686e-05
6.72506e-07
8.64439e-05
1.10524e-06
8.56762e-05
1.62487e-06
8.49338e-05
1.60517e-06
8.42647e-05
1.38977e-06
8.34619e-05
1.53749e-06
8.24465e-05
2.0293e-06
8.13332e-05
2.33648e-06
8.01941e-05
2.31166e-06
7.90044e-05
2.3527e-06
7.77751e-05
2.52155e-06
7.63905e-05
2.88621e-06
7.48052e-05
3.31223e-06
7.30606e-05
4.03455e-06
7.11858e-05
4.71048e-06
6.94034e-05
5.273e-06
6.7993e-05
6.2162e-06
6.74093e-05
7.15808e-06
6.78991e-05
9.12515e-06
6.50666e-05
1.14638e-05
5.72541e-05
1.23174e-05
4.71884e-05
1.24423e-05
3.82332e-05
9.35185e-06
3.38469e-05
5.14206e-06
3.06877e-05
3.21653e-06
2.91126e-05
1.01274e-06
2.78316e-05
1.5629e-06
2.70011e-05
1.21959e-06
2.70861e-05
1.75875e-07
2.75149e-05
-2.60412e-07
2.72405e-05
5.91186e-07
2.69575e-05
6.01826e-07
2.66902e-05
4.84053e-07
2.63147e-05
6.90289e-07
2.59639e-05
7.36707e-07
2.56706e-05
8.24481e-07
2.5263e-05
1.04964e-06
2.48785e-05
1.25877e-06
2.44743e-05
1.38814e-06
2.43218e-05
1.86236e-06
2.39831e-05
2.21866e-06
2.31755e-05
2.01666e-06
2.1498e-05
2.13154e-06
1.95601e-05
1.97554e-06
1.82982e-05
1.43617e-06
1.76009e-05
6.71706e-07
1.72738e-05
2.67645e-07
1.70021e-05
4.04505e-07
1.6737e-05
4.65695e-07
1.66487e-05
2.93075e-07
1.66233e-05
2.18351e-07
1.64476e-05
4.05304e-07
1.62219e-05
4.64981e-07
1.59916e-05
5.06563e-07
1.57383e-05
5.75582e-07
1.55071e-05
6.58803e-07
1.52731e-05
7.14279e-07
1.51683e-05
9.50833e-07
1.49658e-05
1.08178e-06
1.45319e-05
9.63152e-07
1.36874e-05
1.06463e-06
1.2786e-05
9.57119e-07
1.2249e-05
6.84471e-07
1.19065e-05
4.18822e-07
1.17258e-05
2.33269e-07
1.15411e-05
3.26481e-07
1.14344e-05
2.55198e-07
1.13488e-05
2.26956e-07
1.11866e-05
3.22731e-07
1.10121e-05
3.41756e-07
1.08374e-05
3.42637e-07
1.06578e-05
3.46782e-07
1.04803e-05
3.52623e-07
1.02997e-05
3.6605e-07
1.01124e-05
3.78372e-07
9.92525e-06
3.7384e-07
9.73638e-06
3.7064e-07
9.54322e-06
3.83328e-07
9.35163e-06
3.86053e-07
9.16386e-06
3.79495e-07
8.97659e-06
3.70412e-07
8.78275e-06
3.85306e-07
8.59264e-06
3.8502e-07
8.40671e-06
3.76813e-07
8.21705e-06
3.76613e-07
8.02388e-06
3.85872e-07
7.8367e-06
3.79508e-07
7.65451e-06
3.67844e-07
7.46993e-06
3.64212e-07
7.27887e-06
3.7808e-07
7.09479e-06
3.71654e-07
6.91538e-06
3.65129e-07
6.73327e-06
3.69928e-07
6.55778e-06
3.48192e-07
6.38533e-06
3.36574e-07
6.21034e-06
3.48776e-07
6.03408e-06
3.56923e-07
5.86547e-06
3.42592e-07
5.70349e-06
3.22215e-07
5.54103e-06
3.18897e-07
5.37573e-06
3.30879e-07
5.21103e-06
3.32498e-07
5.05387e-06
3.13986e-07
4.90377e-06
2.96664e-07
4.75162e-06
3.05013e-07
4.59341e-06
3.19372e-07
4.44024e-06
3.04709e-07
4.29508e-06
2.86305e-07
4.1529e-06
2.85669e-07
4.00635e-06
2.96775e-07
3.85632e-06
3.01538e-07
3.71618e-06
2.79629e-07
3.58312e-06
2.63458e-07
3.44409e-06
2.77162e-07
3.30091e-06
2.88404e-07
3.16722e-06
2.72899e-07
3.03623e-06
2.61827e-07
2.90266e-06
2.61275e-07
2.77235e-06
2.6144e-07
2.64559e-06
2.58526e-07
2.52019e-06
2.55685e-07
2.39444e-06
2.53749e-07
2.26958e-06
2.46179e-07
2.14485e-06
2.46184e-07
2.021e-06
2.49043e-07
1.90149e-06
2.42352e-07
1.78607e-06
2.31282e-07
1.67337e-06
2.23079e-07
1.55978e-06
2.29858e-07
1.44586e-06
2.31859e-07
1.33321e-06
2.2513e-07
1.22172e-06
2.1843e-07
1.11181e-06
2.18356e-07
1.00404e-06
2.16991e-07
9.00575e-07
2.09639e-07
8.0014e-07
2.03782e-07
6.99022e-07
2.01028e-07
5.95294e-07
2.05101e-07
4.95488e-07
1.99578e-07
4.0117e-07
1.89252e-07
3.09365e-07
1.81881e-07
2.1736e-07
1.84698e-07
1.24852e-07
1.86048e-07
3.23631e-08
1.84867e-07
-5.2859e-08
1.72138e-07
-1.35592e-07
1.66203e-07
-2.1843e-07
1.6233e-07
-3.0275e-07
1.65137e-07
-3.85767e-07
1.67014e-07
-4.62641e-07
1.56608e-07
-5.37419e-07
1.48918e-07
-6.13235e-07
1.47986e-07
-6.88905e-07
1.51371e-07
-7.59144e-07
1.4237e-07
-8.27855e-07
1.38542e-07
-8.95358e-07
1.3349e-07
-9.59975e-07
1.26916e-07
-1.02475e-06
1.31139e-07
-1.08757e-06
1.26548e-07
-1.14945e-06
1.23851e-07
-1.20983e-06
1.2167e-07
-1.26559e-06
1.09974e-07
-1.32099e-06
1.07493e-07
-1.37418e-06
1.07575e-07
-1.42693e-06
1.06883e-07
-1.47859e-06
1.02722e-07
-1.52715e-06
9.74032e-08
-1.57439e-06
9.50809e-08
-1.61957e-06
8.99149e-08
-1.6627e-06
8.40982e-08
-1.70464e-06
8.47523e-08
-1.74635e-06
8.36827e-08
-1.78582e-06
7.90083e-08
-1.82267e-06
7.4584e-08
-1.85797e-06
7.0105e-08
-1.89116e-06
6.48469e-08
-1.92318e-06
6.59545e-08
-1.95481e-06
6.49393e-08
-1.98728e-06
6.34757e-08
-2.0178e-06
5.8452e-08
-2.04609e-06
5.65804e-08
-2.07181e-06
5.24033e-08
-2.09646e-06
4.98438e-08
-2.12075e-06
4.81774e-08
-2.1436e-06
4.59421e-08
-2.16465e-06
4.26807e-08
-2.18548e-06
4.10311e-08
-2.20725e-06
4.38953e-08
-2.2272e-06
3.95733e-08
-2.24475e-06
3.43459e-08
-2.26159e-06
3.41388e-08
-2.27822e-06
3.34184e-08
-2.29374e-06
3.1384e-08
-2.30907e-06
3.08022e-08
-2.3237e-06
2.91085e-08
-2.33719e-06
2.80813e-08
-2.35001e-06
2.66694e-08
-2.36269e-06
2.44158e-08
-2.37578e-06
2.42632e-08
-2.38846e-06
2.52491e-08
-2.39893e-06
2.20472e-08
-2.40866e-06
2.01053e-08
-2.41831e-06
1.839e-08
-2.4283e-06
1.99636e-08
-2.43792e-06
1.94257e-08
-2.44728e-06
1.86475e-08
-2.45592e-06
1.75412e-08
-2.46411e-06
1.67138e-08
-2.47137e-06
1.43316e-08
-2.47825e-06
1.30708e-08
-2.48525e-06
1.36962e-08
-2.49213e-06
1.38136e-08
-2.49875e-06
1.34009e-08
-2.50488e-06
1.25812e-08
-2.51078e-06
1.1821e-08
-2.51693e-06
1.18684e-08
-2.52231e-06
1.02962e-08
-2.52705e-06
9.51794e-09
-2.5314e-06
8.94712e-09
-2.5356e-06
8.54952e-09
-2.53953e-06
8.08907e-09
-2.54338e-06
8.04177e-09
-2.54751e-06
8.26704e-09
-2.55073e-06
6.4363e-09
-2.55345e-06
5.51628e-09
-2.55606e-06
4.96821e-09
-2.55844e-06
4.44199e-09
-2.56058e-06
4.38944e-09
-2.56253e-06
4.05218e-09
-2.56411e-06
3.28786e-09
-2.5654e-06
2.62781e-09
-2.5664e-06
1.72805e-09
-2.56711e-06
1.00823e-09
-2.56761e-06
9.64115e-10
-2.56788e-06
5.75193e-10
-2.56785e-06
1.16091e-11
-2.56759e-06
-4.63643e-10
-2.56715e-06
-9.83881e-10
-2.56658e-06
-1.31105e-09
-2.56565e-06
-1.8458e-09
-2.56447e-06
-2.32081e-09
-2.56307e-06
-2.77933e-09
-2.56138e-06
-3.30783e-09
-2.55949e-06
-3.80363e-09
-2.55738e-06
-4.18094e-09
-2.55499e-06
-4.68594e-09
-2.55229e-06
-5.3661e-09
-2.54932e-06
-6.00901e-09
-2.54611e-06
-6.47298e-09
-2.54266e-06
-6.87066e-09
-2.53891e-06
-7.48411e-09
-2.53486e-06
-8.14673e-09
-2.53051e-06
-8.73743e-09
-2.52587e-06
-9.31298e-09
-2.52095e-06
-9.89483e-09
-2.51572e-06
-1.04975e-08
-2.51017e-06
-1.11497e-08
-2.50429e-06
-1.17887e-08
-2.4981e-06
-1.24015e-08
-2.4916e-06
-1.30272e-08
-2.48474e-06
-1.37294e-08
-2.47752e-06
-1.4453e-08
-2.46997e-06
-1.5147e-08
-2.46207e-06
-1.58389e-08
-2.45384e-06
-1.64828e-08
-2.44524e-06
-1.72207e-08
-2.43625e-06
-1.80247e-08
-2.42687e-06
-1.88342e-08
-2.41712e-06
-1.95014e-08
-2.40698e-06
-2.02555e-08
-2.39644e-06
-2.10362e-08
-2.3855e-06
-2.18447e-08
-2.37413e-06
-2.2703e-08
-2.36235e-06
-2.35477e-08
-2.35016e-06
-2.4384e-08
-2.33754e-06
-2.52525e-08
-2.32449e-06
-2.61121e-08
-2.31103e-06
-2.69525e-08
-2.29716e-06
-2.77793e-08
-2.28289e-06
-2.85925e-08
-2.2682e-06
-2.94109e-08
-2.25311e-06
-3.02115e-08
-2.23763e-06
-3.09646e-08
-2.22177e-06
-3.17192e-08
-2.20552e-06
-3.24783e-08
-2.18889e-06
-3.32439e-08
-2.17189e-06
-3.3989e-08
-2.15454e-06
-3.46977e-08
-2.13683e-06
-3.54057e-08
-2.11878e-06
-3.60996e-08
-2.1004e-06
-3.67749e-08
-2.08171e-06
-3.74283e-08
-2.06273e-06
-3.80008e-08
-2.04345e-06
-3.85732e-08
-2.02389e-06
-3.91195e-08
-2.00406e-06
-3.96358e-08
-1.98399e-06
-4.0121e-08
-1.96368e-06
-4.05857e-08
-1.94314e-06
-4.10278e-08
-1.92239e-06
-4.1441e-08
-1.90148e-06
-4.18262e-08
-1.88042e-06
-4.21525e-08
-1.85916e-06
-4.25233e-08
-1.83774e-06
-4.28351e-08
-1.81619e-06
-4.30906e-08
-1.79452e-06
-4.33119e-08
-1.77275e-06
-4.34925e-08
-1.75091e-06
-4.36533e-08
-1.72896e-06
-4.38277e-08
-1.70694e-06
-4.39648e-08
-1.68487e-06
-4.409e-08
-1.66274e-06
-4.42203e-08
-1.64056e-06
-4.4309e-08
-1.61837e-06
-4.4358e-08
-1.59618e-06
-4.43687e-08
-1.574e-06
-4.43553e-08
-1.55183e-06
-4.4319e-08
-1.52969e-06
-4.42558e-08
-1.50758e-06
-4.41722e-08
-1.48552e-06
-4.4068e-08
-1.46353e-06
-4.39483e-08
-1.44161e-06
-4.38191e-08
-1.41978e-06
-4.36671e-08
-1.39804e-06
-4.34832e-08
-1.37642e-06
-4.32591e-08
-1.35493e-06
-4.29942e-08
-1.33355e-06
-4.27469e-08
-1.31229e-06
-4.2486e-08
-1.29116e-06
-4.22233e-08
-1.27015e-06
-4.19576e-08
-1.24928e-06
-4.16769e-08
-1.22857e-06
-4.13837e-08
-1.20802e-06
-4.10826e-08
-1.18765e-06
-4.07582e-08
-1.16746e-06
-4.03895e-08
-1.14743e-06
-4.00436e-08
-1.12757e-06
-3.96878e-08
-1.10788e-06
-3.9325e-08
-1.08836e-06
-3.89707e-08
-1.06902e-06
-3.86257e-08
-1.04987e-06
-3.82883e-08
-1.03091e-06
-3.792e-08
-1.01214e-06
-3.75452e-08
-9.93571e-07
-3.71395e-08
-9.75183e-07
-3.67477e-08
-9.57008e-07
-3.6314e-08
-9.39005e-07
-3.59289e-08
-9.2126e-07
-3.5444e-08
-9.03714e-07
-3.50485e-08
-8.8644e-07
-3.45593e-08
-8.69477e-07
-3.40114e-08
-8.5271e-07
-3.35872e-08
-8.36225e-07
-3.30794e-08
-8.19742e-07
-3.28957e-08
-8.03548e-07
-3.23658e-08
-7.87272e-07
-3.22871e-08
-7.713e-07
-3.18973e-08
-7.55988e-07
-3.09743e-08
-7.40885e-07
-3.07908e-08
-7.25568e-07
-3.08249e-08
-7.10662e-07
-2.97624e-08
-6.9358e-07
-3.19533e-08
-6.77056e-07
-3.14445e-08
-6.64722e-07
-2.65169e-08
-6.52413e-07
-2.84774e-08
-6.4213e-07
-2.61764e-08
-6.33424e-07
-2.08613e-08
-6.31985e-07
-1.56042e-08
-6.29888e-07
-1.38924e-08
-6.21093e-07
-1.69332e-08
-6.095e-07
-1.35248e-08
-5.9608e-07
-1.50279e-08
-5.85063e-07
-1.84115e-08
-5.73516e-07
-1.92877e-08
-5.62713e-07
-2.03831e-08
-5.51737e-07
-2.08524e-08
-5.40941e-07
-2.11988e-08
-5.30066e-07
-2.12722e-08
-5.19288e-07
-2.13641e-08
-5.07876e-07
-2.20227e-08
-4.96566e-07
-2.21773e-08
-4.86339e-07
-2.08566e-08
-4.76202e-07
-2.12755e-08
-4.66463e-07
-2.08233e-08
-4.57215e-07
-1.93904e-08
-4.49565e-07
-1.83281e-08
-4.41995e-07
-1.76543e-08
-4.32464e-07
-1.8649e-08
-4.22519e-07
-1.76205e-08
-4.12021e-07
-1.80368e-08
-4.02666e-07
-1.8353e-08
-3.92467e-07
-1.91247e-08
-3.83221e-07
-1.81795e-08
-3.72337e-07
-1.99055e-08
-3.63075e-07
-1.77985e-08
-3.54627e-07
-1.71131e-08
-3.47474e-07
-1.53669e-08
-3.40735e-07
-1.6094e-08
-3.33119e-07
-1.65885e-08
-3.26687e-07
-1.41302e-08
-3.09383e-07
-2.57584e-08
-2.94582e-07
-2.29927e-08
-2.91e-07
-9.55699e-09
-2.8676e-07
-1.97903e-08
-3.00129e-07
4.66717e-11
-3.15999e-07
1.27898e-08
-3.94391e-07
6.64523e-08
-4.72771e-07
8.9469e-08
-5.22259e-07
6.75951e-08
-5.37744e-07
8.64785e-08
-5.2694e-07
5.57097e-08
-5.21031e-07
4.01579e-08
-5.21784e-07
2.948e-08
-5.24043e-07
2.09907e-08
-5.26411e-07
1.47179e-08
-5.28306e-07
1.01327e-08
-5.29528e-07
6.78595e-09
-5.30084e-07
4.25076e-09
-5.30053e-07
2.2042e-09
-5.28955e-07
-7.90032e-11
-5.27394e-07
-1.60482e-09
-5.25361e-07
-2.84481e-09
-5.22771e-07
-3.92788e-09
-5.19772e-07
-4.84531e-09
-5.16443e-07
-5.57594e-09
-5.12827e-07
-6.19319e-09
-5.08924e-07
-6.7866e-09
-5.04738e-07
-7.38401e-09
-5.00298e-07
-7.95259e-09
-4.95653e-07
-8.44291e-09
-4.90863e-07
-8.82263e-09
-4.8598e-07
-9.08942e-09
-4.8104e-07
-9.26905e-09
-4.76054e-07
-9.40542e-09
-4.71006e-07
-9.54352e-09
-4.65908e-07
-9.69205e-09
-4.60752e-07
-9.86978e-09
-4.55441e-07
-1.01252e-08
-4.50003e-07
-1.03838e-08
-4.44458e-07
-1.06529e-08
-4.388e-07
-1.09493e-08
-4.33039e-07
-1.12665e-08
-4.27188e-07
-1.15909e-08
-4.21256e-07
-1.19057e-08
-4.15243e-07
-1.2194e-08
-4.09132e-07
-1.24465e-08
-4.02935e-07
-1.26311e-08
-3.96702e-07
-1.27317e-08
-3.90446e-07
-1.27743e-08
-3.84177e-07
-1.27681e-08
-3.77927e-07
-1.26986e-08
-3.71739e-07
-1.25536e-08
-3.65648e-07
-1.23361e-08
-3.59661e-07
-1.20775e-08
-3.53759e-07
-1.18313e-08
-3.47907e-07
-1.16479e-08
-3.42071e-07
-1.15519e-08
-3.36234e-07
-1.15339e-08
-3.30394e-07
-1.1576e-08
-3.2454e-07
-1.16738e-08
-3.18643e-07
-1.18301e-08
-3.12684e-07
-1.20102e-08
-3.06688e-07
-1.21053e-08
-3.0074e-07
-1.19801e-08
-2.94931e-07
-1.1614e-08
-2.89268e-07
-1.12018e-08
-2.83646e-07
-1.10311e-08
-2.77981e-07
-1.12001e-08
-2.72332e-07
-1.1449e-08
-2.66849e-07
-1.13329e-08
-2.61666e-07
-1.06893e-08
-2.56767e-07
-9.86342e-09
-2.51701e-07
-9.64322e-09
-2.46327e-07
-1.01077e-08
-2.40974e-07
-1.05397e-08
-2.35929e-07
-1.0285e-08
-2.31267e-07
-9.48974e-09
-2.26402e-07
-9.26823e-09
-2.2102e-07
-1.00406e-08
-2.15697e-07
-1.06803e-08
-2.10704e-07
-1.04785e-08
-2.05894e-07
-9.97293e-09
-2.0057e-07
-1.04398e-08
-1.95268e-07
-1.09921e-08
-1.90494e-07
-1.07071e-08
-1.85841e-07
-9.95814e-09
-1.81012e-07
-9.63554e-09
-1.7625e-07
-9.75496e-09
-1.71209e-07
-9.77796e-09
-1.65612e-07
-1.05417e-08
-5.8024e-09
4.40296e-05
-4.86975e-06
4.56941e-05
-4.96851e-06
4.73668e-05
-4.99347e-06
4.90558e-05
-5.03418e-06
5.07194e-05
-4.96047e-06
5.23313e-05
-4.77664e-06
5.38833e-05
-4.61597e-06
5.53915e-05
-4.53929e-06
5.6887e-05
-4.58286e-06
5.83796e-05
-4.59887e-06
5.98775e-05
-4.59359e-06
6.13755e-05
-4.59247e-06
6.28558e-05
-4.55489e-06
6.43325e-05
-4.45972e-06
6.57713e-05
-4.383e-06
6.71745e-05
-4.27921e-06
6.8529e-05
-4.13574e-06
6.98331e-05
-4.00629e-06
7.11084e-05
-3.88607e-06
7.23637e-05
-3.70278e-06
7.3571e-05
-3.52776e-06
7.47362e-05
-3.42093e-06
7.58141e-05
-3.43224e-06
7.68095e-05
-3.36278e-06
7.77835e-05
-3.0924e-06
7.88233e-05
-2.7876e-06
7.98328e-05
-2.64445e-06
8.0763e-05
-2.71492e-06
8.15969e-05
-2.71686e-06
8.24041e-05
-2.4129e-06
8.31627e-05
-2.14077e-06
8.38881e-05
-2.09898e-06
8.46119e-05
-2.20198e-06
8.54087e-05
-2.11173e-06
8.6072e-05
-1.60701e-06
8.65316e-05
-1.25756e-06
8.68512e-05
-1.19406e-06
8.71973e-05
-1.32734e-06
8.76601e-05
-1.38857e-06
8.81689e-05
-1.13873e-06
8.85688e-05
-8.84291e-07
8.88403e-05
-8.59877e-07
8.90706e-05
-9.11692e-07
8.93346e-05
-8.31585e-07
8.96477e-05
-4.43481e-07
8.98728e-05
-2.07813e-07
8.99843e-05
-2.20247e-07
9.00238e-05
-2.86031e-07
9.00653e-05
-2.22964e-07
9.00623e-05
1.27922e-08
8.9964e-05
2.13275e-07
8.97646e-05
4.6187e-07
8.9567e-05
6.74407e-07
8.92962e-05
6.86894e-07
8.89925e-05
6.1684e-07
8.86612e-05
7.82602e-07
8.82729e-05
1.16637e-06
8.78734e-05
1.20182e-06
8.74969e-05
1.00138e-06
8.70877e-05
1.08229e-06
8.65234e-05
1.66986e-06
8.59212e-05
2.22705e-06
8.53953e-05
2.13058e-06
8.4733e-05
2.0512e-06
8.38628e-05
2.40665e-06
8.28867e-05
3.00437e-06
8.19918e-05
3.23032e-06
8.10097e-05
3.29286e-06
7.98246e-05
3.53702e-06