/*--------------------------------*- C++ -*----------------------------------*\
| =========                 |                                                 |
| \\      /  F ield         | OpenFOAM: The Open Source CFD Toolbox           |
|  \\    /   O peration     | Version:  v2006                                 |
|   \\  /    A nd           | Website:  www.openfoam.com                      |
|    \\/     M anipulation  |                                                 |
\*---------------------------------------------------------------------------*/
FoamFile
{
    version     2.0;
    format      ascii;
    class       surfaceScalarField;
    location    "1.1";
    object      alphaPhi0.water;
}
// * * * * * * * * * * * * * * * * * * * * * * * * * * * * * * * * * * * * * //

dimensions      [0 3 -1 0 0 0 0];
oriented        oriented;


internalField   nonuniform List<scalar> 
65390
(
-7.12698e-06
-1.59046e-08
-7.26627e-06
1.65382e-07
-7.41833e-06
1.75811e-07
-7.55226e-06
1.52325e-07
-7.70347e-06
1.66689e-07
-7.8677e-06
1.76963e-07
-8.02949e-06
1.72042e-07
-8.18619e-06
1.6573e-07
-8.34002e-06
1.61674e-07
-8.49017e-06
1.56641e-07
-8.63705e-06
1.52592e-07
-8.78211e-06
1.50422e-07
-8.92469e-06
1.47406e-07
-9.07689e-06
1.56278e-07
-9.22625e-06
1.53147e-07
-9.37156e-06
1.48982e-07
-9.51499e-06
1.4637e-07
-9.65389e-06
1.41572e-07
-9.78858e-06
1.37384e-07
-9.92093e-06
1.34951e-07
-1.00499e-05
1.31726e-07
-1.01749e-05
1.27445e-07
-1.02966e-05
1.23459e-07
-1.04126e-05
1.17317e-07
-1.05223e-05
1.10819e-07
-1.06276e-05
1.06327e-07
-1.07288e-05
1.01961e-07
-1.08254e-05
9.68176e-08
-1.09165e-05
9.09364e-08
-1.10037e-05
8.65142e-08
-1.10868e-05
8.22663e-08
-1.11644e-05
7.66755e-08
-1.12328e-05
6.67886e-08
-1.12904e-05
5.63909e-08
-1.13438e-05
5.22297e-08
-1.13929e-05
4.74593e-08
-1.14356e-05
4.00515e-08
-1.14692e-05
3.06595e-08
-1.14944e-05
2.16792e-08
-1.15171e-05
1.89706e-08
-1.15365e-05
1.54595e-08
-1.15506e-05
1.07181e-08
-1.15534e-05
-4.48457e-10
-1.15448e-05
-1.20498e-08
-1.15353e-05
-1.27778e-08
-1.15239e-05
-1.40301e-08
-1.15012e-05
-2.47293e-08
-1.14636e-05
-3.97316e-08
-1.14186e-05
-4.69918e-08
-1.13716e-05
-4.88562e-08
-1.13189e-05
-5.44927e-08
-1.12534e-05
-6.72487e-08
-1.11778e-05
-7.75281e-08
-1.10935e-05
-8.61572e-08
-1.10059e-05
-8.93583e-08
-1.09149e-05
-9.26925e-08
-1.08186e-05
-9.77715e-08
-1.07166e-05
-1.03234e-07
-1.06128e-05
-1.04865e-07
-1.05064e-05
-1.07382e-07
-1.03945e-05
-1.12927e-07
-1.02763e-05
-1.1912e-07
-1.01534e-05
-1.23954e-07
-1.0025e-05
-1.29466e-07
-9.88938e-06
-1.36967e-07
-9.74481e-06
-1.45954e-07
-9.58999e-06
-1.56478e-07
-9.42297e-06
-1.68457e-07
-9.24235e-06
-1.82005e-07
-9.04591e-06
-1.9775e-07
-8.82922e-06
-2.17917e-07
-8.58479e-06
-2.45552e-07
-8.29992e-06
-2.85839e-07
-7.95398e-06
-3.46834e-07
-7.51369e-06
-4.41301e-07
-6.92556e-06
-5.88814e-07
-6.07789e-06
-8.47899e-07
-4.84492e-06
-1.2333e-06
-3.84863e-06
-9.97201e-07
-3.48096e-06
-3.67693e-07
-3.30984e-06
-1.72176e-07
-3.3443e-06
3.31164e-08
-3.31313e-06
-3.1763e-08
-3.33106e-06
1.74721e-08
-3.37385e-06
4.23043e-08
-3.31795e-06
-5.63647e-08
-3.26595e-06
-5.21378e-08
-3.22716e-06
-3.8946e-08
-3.20758e-06
-2.00143e-08
-3.17879e-06
-2.9071e-08
-3.15305e-06
-2.59688e-08
-3.12597e-06
-2.75123e-08
-3.09028e-06
-3.57754e-08
-3.05228e-06
-3.79954e-08
-3.01101e-06
-4.11749e-08
-2.96338e-06
-4.74653e-08
-2.90948e-06
-5.37144e-08
-2.84746e-06
-6.17735e-08
-2.76687e-06
-8.03413e-08
-2.6901e-06
-7.66105e-08
-2.63495e-06
-5.50902e-08
-2.59614e-06
-3.88711e-08
-2.56379e-06
-3.24288e-08
-2.52412e-06
-3.98262e-08
-2.48642e-06
-3.77742e-08
-2.44821e-06
-3.81934e-08
-2.4063e-06
-4.17381e-08
-2.36369e-06
-4.22648e-08
-2.32127e-06
-4.18956e-08
-2.27891e-06
-4.1699e-08
-2.23585e-06
-4.22829e-08
-2.19229e-06
-4.2729e-08
-2.148e-06
-4.34589e-08
-2.10218e-06
-4.5054e-08
-2.0544e-06
-4.71188e-08
-2.00259e-06
-5.13003e-08
-1.94139e-06
-6.0851e-08
-1.88287e-06
-5.83403e-08
-1.83737e-06
-4.54599e-08
-1.80257e-06
-3.48766e-08
-1.77196e-06
-3.08084e-08
-1.73727e-06
-3.49734e-08
-1.70324e-06
-3.43344e-08
-1.66962e-06
-3.39356e-08
-1.63506e-06
-3.48491e-08
-1.60055e-06
-3.47673e-08
-1.56629e-06
-3.44415e-08
-1.53187e-06
-3.45187e-08
-1.49739e-06
-3.44745e-08
-1.46304e-06
-3.42522e-08
-1.42882e-06
-3.40128e-08
-1.39476e-06
-3.37672e-08
-1.36096e-06
-3.34299e-08
-1.32744e-06
-3.30795e-08
-1.29421e-06
-3.27413e-08
-1.26128e-06
-3.23865e-08
-1.22871e-06
-3.19916e-08
-1.19655e-06
-3.15579e-08
-1.16478e-06
-3.1142e-08
-1.13341e-06
-3.07174e-08
-1.10244e-06
-3.03145e-08
-1.07189e-06
-2.98889e-08
-1.04178e-06
-2.94436e-08
-1.01211e-06
-2.90143e-08
-9.82868e-07
-2.85917e-08
-9.5408e-07
-2.81526e-08
-9.2576e-07
-2.76985e-08
-8.97889e-07
-2.72608e-08
-8.70455e-07
-2.6834e-08
-8.43477e-07
-2.6389e-08
-8.1696e-07
-2.59387e-08
-7.90898e-07
-2.54949e-08
-7.65302e-07
-2.504e-08
-7.40185e-07
-2.45721e-08
-7.15546e-07
-2.41054e-08
-6.91376e-07
-2.3648e-08
-6.67676e-07
-2.31882e-08
-6.44446e-07
-2.27279e-08
-6.21677e-07
-2.22753e-08
-5.99375e-07
-2.18175e-08
-5.77547e-07
-2.13528e-08
-5.56179e-07
-2.09013e-08
-5.35252e-07
-2.04696e-08
-5.14768e-07
-2.00365e-08
-4.94734e-07
-1.95956e-08
-4.75144e-07
-1.91603e-08
-4.55977e-07
-1.87459e-08
-4.37226e-07
-1.8338e-08
-4.18896e-07
-1.79245e-08
-4.00994e-07
-1.75047e-08
-3.83501e-07
-1.71036e-08
-3.66399e-07
-1.67196e-08
-3.49698e-07
-1.63273e-08
-3.33403e-07
-1.59276e-08
-3.175e-07
-1.55423e-08
-3.01975e-07
-1.51688e-08
-2.86835e-07
-1.47888e-08
-2.72082e-07
-1.44059e-08
-2.57701e-07
-1.40366e-08
-2.43687e-07
-1.36751e-08
-2.30041e-07
-1.33102e-08
-2.16765e-07
-1.29466e-08
-2.03845e-07
-1.25968e-08
-1.91272e-07
-1.22562e-08
-1.79048e-07
-1.19126e-08
-1.67175e-07
-1.15676e-08
-1.55644e-07
-1.12302e-08
-1.44448e-07
-1.08995e-08
-1.33586e-07
-1.05687e-08
-1.2306e-07
-1.02372e-08
-1.12863e-07
-9.91168e-09
-1.02986e-07
-9.59635e-09
-9.34236e-08
-9.28835e-09
-8.41741e-08
-8.98245e-09
-7.52371e-08
-8.67781e-09
-6.66083e-08
-8.37806e-09
-5.8282e-08
-8.08352e-09
-5.02548e-08
-7.79138e-09
-4.25226e-08
-7.50196e-09
-3.50783e-08
-7.21746e-09
-2.79155e-08
-6.93769e-09
-2.10281e-08
-6.6628e-09
-1.44094e-08
-6.39439e-09
-8.05395e-09
-6.13234e-09
-1.95785e-09
-5.87616e-09
3.88505e-09
-5.62869e-09
9.48306e-09
-5.39203e-09
1.48428e-08
-5.16375e-09
1.99718e-08
-4.94381e-09
2.48817e-08
-4.73457e-09
2.95796e-08
-4.5306e-09
3.40628e-08
-4.32134e-09
3.83283e-08
-4.1067e-09
4.23817e-08
-3.89583e-09
4.62295e-08
-3.69078e-09
4.98709e-08
-3.48523e-09
5.33063e-08
-3.28172e-09
5.65465e-08
-3.09069e-09
5.96047e-08
-2.91469e-09
6.24855e-08
-2.74449e-09
6.51895e-08
-2.57519e-09
6.77236e-08
-2.41199e-09
7.00973e-08
-2.25696e-09
7.23137e-08
-2.10313e-09
7.43718e-08
-1.94624e-09
7.62776e-08
-1.79405e-09
7.80428e-08
-1.65281e-09
7.96768e-08
-1.52126e-09
8.11835e-08
-1.3949e-09
8.25667e-08
-1.27402e-09
8.38316e-08
-1.16004e-09
8.49841e-08
-1.0534e-09
8.60257e-08
-9.4897e-10
8.69592e-08
-8.4725e-10
8.7788e-08
-7.48116e-10
8.85135e-08
-6.49265e-10
8.91362e-08
-5.49284e-10
8.96624e-08
-4.54355e-10
9.01013e-08
-3.67061e-10
9.04625e-08
-2.88321e-10
9.07517e-08
-2.14543e-10
9.09715e-08
-1.42783e-10
9.11228e-08
-7.21195e-11
9.12059e-08
-2.29213e-12
9.12208e-08
6.61724e-11
9.11698e-08
1.30622e-10
9.10578e-08
1.8844e-10
9.08881e-08
2.41338e-10
9.06596e-08
2.94462e-10
9.03701e-08
3.4962e-10
9.00236e-08
4.01277e-10
8.96317e-08
4.42468e-10
8.92052e-08
4.73981e-10
8.87467e-08
5.0417e-10
8.82526e-08
5.38501e-10
8.77239e-08
5.72055e-10
8.71701e-08
5.95778e-10
8.66016e-08
6.08573e-10
8.602e-08
6.19268e-10
8.54181e-08
6.36673e-10
8.47888e-08
6.61305e-10
8.413e-08
6.88253e-10
8.34428e-08
7.14707e-10
8.27279e-08
7.40962e-10
8.19868e-08
7.66244e-10
8.1223e-08
7.88369e-10
8.04397e-08
8.07321e-10
7.96385e-08
8.24588e-10
7.8822e-08
8.38811e-10
7.79959e-08
8.46642e-10
7.71658e-08
8.4867e-10
7.63317e-08
8.50078e-10
7.5491e-08
8.54118e-10
7.46419e-08
8.59962e-10
7.37843e-08
8.6628e-10
7.29174e-08
8.73787e-10
7.20399e-08
8.83376e-10
7.11506e-08
8.94589e-10
7.02486e-08
9.07215e-10
6.93323e-08
9.21857e-10
6.8401e-08
9.37317e-10
6.74585e-08
9.49004e-10
6.65129e-08
9.52309e-10
6.55728e-08
9.46883e-10
6.46434e-08
9.35665e-10
6.37278e-08
9.21193e-10
6.28285e-08
9.03854e-10
6.19484e-08
8.83229e-10
6.10898e-08
8.60328e-10
6.02521e-08
8.37763e-10
5.94322e-08
8.18501e-10
5.86253e-08
8.0385e-10
5.78269e-08
7.93882e-10
5.70311e-08
7.90154e-10
5.62312e-08
7.93018e-10
5.54228e-08
8.00638e-10
5.46047e-08
8.09623e-10
5.37787e-08
8.16977e-10
5.29477e-08
8.21588e-10
5.21142e-08
8.23873e-10
5.12804e-08
8.2416e-10
5.04492e-08
8.21547e-10
4.96251e-08
8.14434e-10
4.8814e-08
8.01683e-10
4.80212e-08
7.83379e-10
4.72508e-08
7.61203e-10
4.65041e-08
7.37503e-10
4.57807e-08
7.14344e-10
4.50786e-08
6.93127e-10
4.43949e-08
6.74753e-10
4.37262e-08
6.59768e-10
4.30692e-08
6.48132e-10
4.24207e-08
6.39475e-10
4.17789e-08
6.32798e-10
4.1143e-08
6.26714e-10
4.05139e-08
6.19834e-10
3.98936e-08
6.11023e-10
3.92844e-08
5.99723e-10
3.86886e-08
5.86182e-10
3.81076e-08
5.71386e-10
3.75416e-08
5.56378e-10
3.69905e-08
5.41453e-10
3.64546e-08
5.26263e-10
3.5934e-08
5.10992e-10
3.54267e-08
4.97757e-10
3.49269e-08
4.90411e-10
3.44262e-08
4.91389e-10
3.3919e-08
4.98049e-10
3.34057e-08
5.04204e-10
3.28918e-08
5.04949e-10
3.23823e-08
5.00586e-10
3.18796e-08
4.94014e-10
3.13857e-08
4.85199e-10
3.09069e-08
4.70328e-10
3.04508e-08
4.47703e-10
3.00199e-08
4.22729e-10
2.96072e-08
4.04623e-10
2.92026e-08
3.96693e-10
2.88009e-08
3.93902e-10
2.84014e-08
3.91935e-10
2.80015e-08
3.92483e-10
2.75954e-08
3.98837e-10
2.71794e-08
4.08939e-10
2.67565e-08
4.16071e-10
2.63333e-08
4.16502e-10
2.59144e-08
4.12338e-10
2.5502e-08
4.0604e-10
2.5099e-08
3.96741e-10
2.47086e-08
3.84375e-10
2.43301e-08
3.72718e-10
2.3959e-08
3.65393e-10
2.35911e-08
3.62523e-10
2.32223e-08
3.63539e-10
2.28479e-08
3.69226e-10
2.24645e-08
3.78345e-10
2.20736e-08
3.85763e-10
2.16815e-08
3.86971e-10
2.12938e-08
3.82365e-10
2.09136e-08
3.74618e-10
2.05433e-08
3.64556e-10
2.01853e-08
3.52157e-10
1.98392e-08
3.4019e-10
1.94998e-08
3.33368e-10
1.91598e-08
3.34004e-10
1.88139e-08
3.3993e-10
1.84609e-08
3.47108e-10
1.81023e-08
3.52763e-10
1.77409e-08
3.55518e-10
1.73812e-08
3.53881e-10
1.70288e-08
3.46481e-10
1.66889e-08
3.33989e-10
1.63632e-08
3.1989e-10
1.60489e-08
3.08431e-10
1.57413e-08
3.01683e-10
1.54371e-08
2.98441e-10
1.51351e-08
2.96149e-10
1.48355e-08
2.93871e-10
1.45375e-08
2.92053e-10
1.42425e-08
2.89125e-10
1.39552e-08
2.81277e-10
1.36818e-08
2.67346e-10
1.34242e-08
2.51434e-10
1.31783e-08
2.39663e-10
1.29369e-08
2.35222e-10
1.26929e-08
2.37997e-10
1.24418e-08
2.45281e-10
1.2184e-08
2.52127e-10
1.19249e-08
2.53925e-10
1.16704e-08
2.49496e-10
1.14253e-08
2.40565e-10
1.1191e-08
2.30106e-10
1.09649e-08
2.22141e-10
1.07408e-08
2.2035e-10
1.05119e-08
2.25416e-10
1.02734e-08
2.35097e-10
1.00242e-08
2.45947e-10
9.76727e-09
2.5381e-10
9.50989e-09
2.54344e-10
9.26146e-09
2.45495e-10
9.02783e-09
2.30761e-10
8.80722e-09
2.17827e-10
8.59231e-09
2.12169e-10
8.3773e-09
2.12302e-10
8.16169e-09
2.12912e-10
7.94547e-09
2.13517e-10
7.72957e-09
2.13184e-10
7.52005e-09
2.06798e-10
7.32112e-09
1.96219e-10
7.12949e-09
1.88942e-10
6.9386e-09
1.88269e-10
6.74402e-09
1.92041e-10
6.54634e-09
1.95239e-10
6.35168e-09
1.92338e-10
6.166e-09
1.83466e-10
5.98919e-09
1.74694e-10
5.81921e-09
1.67921e-10
5.65499e-09
1.62204e-10
5.49219e-09
1.60785e-10
5.32988e-09
1.60253e-10
5.1719e-09
1.55854e-10
5.02039e-09
1.49278e-10
4.86339e-09
1.54651e-10
4.69859e-09
1.62324e-10
4.52778e-09
1.68213e-10
4.35633e-09
1.68729e-10
4.20383e-09
1.49682e-10
4.0605e-09
1.40437e-10
3.92838e-09
1.29203e-10
3.81579e-09
1.09653e-10
3.721e-09
9.18891e-11
3.63906e-09
7.90967e-11
3.5589e-09
7.7382e-11
3.50144e-09
5.47787e-11
3.44789e-09
5.09719e-11
3.39299e-09
5.24107e-11
3.32145e-09
6.915e-11
3.24289e-09
7.62505e-11
3.17325e-09
6.73987e-11
3.10311e-09
6.79585e-11
3.06113e-09
3.98372e-11
3.00244e-09
5.65807e-11
2.9066e-09
9.3755e-11
2.81629e-09
8.82675e-11
2.73198e-09
8.23044e-11
2.67316e-09
5.68716e-11
2.60449e-09
6.68003e-11
2.54407e-09
5.86309e-11
2.51571e-09
2.6669e-11
2.50561e-09
8.50645e-12
2.52388e-09
-1.97723e-11
2.50372e-09
1.87509e-11
2.51381e-09
-1.14295e-11
2.48579e-09
2.6709e-11
2.44969e-09
3.47938e-11
2.38852e-09
5.98446e-11
2.35226e-09
3.49036e-11
2.36452e-09
-1.36532e-11
2.31779e-09
4.53213e-11
2.32467e-09
-8.29737e-12
2.35244e-09
-2.9154e-11
2.32339e-09
2.77173e-11
2.28349e-09
3.86346e-11
2.17546e-09
1.06819e-10
2.14889e-09
2.54104e-11
2.05284e-09
9.49136e-11
1.9817e-09
7.0013e-11
2.07777e-09
-9.71496e-11
2.11901e-09
-4.28648e-11
2.61436e-09
-4.96895e-10
3.0103e-09
-3.97935e-10
3.07501e-09
-6.75541e-11
3.13623e-09
-6.38315e-11
3.09262e-09
4.10914e-11
3.00768e-09
8.24686e-11
2.90195e-09
1.03312e-10
2.757e-09
1.42595e-10
2.5634e-09
1.9131e-10
2.33887e-09
2.22276e-10
2.09766e-09
2.39001e-10
1.84446e-09
2.51002e-10
1.59778e-09
2.4449e-10
1.38262e-09
2.12989e-10
1.20376e-09
1.76708e-10
1.04112e-09
1.60519e-10
8.72688e-10
1.6634e-10
7.00623e-10
1.70013e-10
5.42797e-10
1.55817e-10
4.1218e-10
1.28648e-10
3.06903e-10
1.03344e-10
2.16465e-10
8.85351e-11
1.25294e-10
8.92894e-11
1.92917e-11
1.04138e-10
-1.09572e-10
1.2701e-10
-2.61224e-10
1.49808e-10
-4.29713e-10
1.66654e-10
-6.06234e-10
1.74695e-10
-7.81257e-10
1.7321e-10
-9.44818e-10
1.61764e-10
-1.08515e-09
1.38556e-10
-1.1881e-09
1.01188e-10
-1.23772e-09
4.78861e-11
-1.22404e-09
-1.5387e-11
-1.13914e-09
-8.65817e-11
-9.90171e-10
-1.50634e-10
-7.90094e-10
-2.01716e-10
-5.57055e-10
-2.34657e-10
-3.087e-10
-2.49953e-10
-5.90955e-11
-2.51188e-10
1.81802e-10
-2.42468e-10
4.0586e-10
-2.25619e-10
6.03129e-10
-1.98823e-10
7.61256e-10
-1.59676e-10
8.69127e-10
-1.09419e-10
9.25148e-10
-5.75676e-11
9.39035e-10
-1.5435e-11
9.33517e-10
3.96945e-12
9.31878e-10
8.9467e-14
9.5218e-10
-2.1851e-11
1.0137e-09
-6.30674e-11
1.13155e-09
-1.19392e-10
1.30652e-09
-1.76503e-10
1.51627e-09
-2.11276e-10
1.7084e-09
-1.93648e-10
1.82382e-09
-1.16926e-10
1.84581e-09
-2.34863e-11
1.82876e-09
1.55592e-11
1.86681e-09
-3.95274e-11
2.02165e-09
-1.56329e-10
2.21804e-09
-1.97878e-10
2.29407e-09
-7.75227e-11
2.15692e-09
1.3566e-10
1.87733e-09
2.78092e-10
1.6593e-09
2.16555e-10
1.6372e-09
2.06361e-11
1.65713e-09
-2.13479e-11
1.51837e-09
1.37372e-10
1.21893e-09
2.98113e-10
1.00992e-09
2.07721e-10
1.07993e-09
-7.12596e-11
1.23376e-09
-1.55039e-10
1.22557e-09
6.97673e-12
1.20248e-09
2.1886e-11
1.41527e-09
-2.14018e-10
1.75389e-09
-3.39872e-10
1.81076e-09
-5.81529e-11
1.664e-09
1.45468e-10
1.59368e-09
6.90416e-11
1.336e-09
2.56402e-10
1.09172e-09
2.43012e-10
4.96834e-10
-7.28173e-06
6.38919e-08
-7.4079e-06
2.65232e-07
-7.55251e-06
2.97324e-07
-7.70583e-06
2.8715e-07
-7.85973e-06
3.06362e-07
-8.00962e-06
3.16713e-07
-8.15611e-06
3.1131e-07
-8.30156e-06
3.06368e-07
-8.44664e-06
3.03986e-07
-8.59145e-06
3.00203e-07
-8.73736e-06
2.98377e-07
-8.88383e-06
2.97696e-07
-9.03097e-06
2.96184e-07
-9.17727e-06
3.04766e-07
-9.32313e-06
3.00944e-07
-9.4676e-06
2.95843e-07
-9.60912e-06
2.90351e-07
-9.74657e-06
2.81652e-07
-9.88094e-06
2.74617e-07
-1.00112e-05
2.68259e-07
-1.01366e-05
2.60193e-07
-1.02551e-05
2.51601e-07
-1.03728e-05
2.43675e-07
-1.04855e-05
2.31903e-07
-1.05947e-05
2.19981e-07
-1.06927e-05
2.09065e-07
-1.07877e-05
1.9807e-07
-1.088e-05
1.89362e-07
-1.09701e-05
1.80464e-07
-1.10531e-05
1.69149e-07
-1.11356e-05
1.64179e-07
-1.12204e-05
1.60218e-07
-1.12976e-05
1.40203e-07
-1.13486e-05
1.04285e-07
-1.13892e-05
9.22785e-08
-1.1431e-05
8.78473e-08
-1.14761e-05
7.94555e-08
-1.15217e-05
6.90777e-08
-1.15489e-05
4.3126e-08
-1.15558e-05
2.46456e-08
-1.15622e-05
1.92901e-08
-1.1566e-05
1.24214e-08
-1.15643e-05
-7.04831e-09
-1.15531e-05
-2.74827e-08
-1.1536e-05
-3.32796e-08
-1.15128e-05
-3.92822e-08
-1.14871e-05
-5.45132e-08
-1.14548e-05
-7.50936e-08
-1.14166e-05
-8.77003e-08
-1.1372e-05
-9.56285e-08
-1.13202e-05
-1.08808e-07
-1.12605e-05
-1.2989e-07
-1.11936e-05
-1.47202e-07
-1.11186e-05
-1.63606e-07
-1.10355e-05
-1.74535e-07
-1.09465e-05
-1.83558e-07
-1.08517e-05
-1.94338e-07
-1.07509e-05
-2.05612e-07
-1.06458e-05
-2.11133e-07
-1.05367e-05
-2.17639e-07
-1.04235e-05
-2.27551e-07
-1.03061e-05
-2.38435e-07
-1.01834e-05
-2.48584e-07
-1.0056e-05
-2.58666e-07
-9.92155e-06
-2.73383e-07
-9.77756e-06
-2.9204e-07
-9.62469e-06
-3.11462e-07
-9.46153e-06
-3.33697e-07
-9.28681e-06
-3.58579e-07
-9.1002e-06
-3.86e-07
-8.90113e-06
-4.18667e-07
-8.68799e-06
-4.60283e-07
-8.45989e-06
-5.15017e-07
-8.2193e-06
-5.88604e-07
-7.97608e-06
-6.85919e-07
-7.75196e-06
-8.13268e-07
-7.61757e-06
-9.82565e-07
-7.66802e-06
-1.18644e-06
-7.40609e-06
-1.2611e-06
-6.50109e-06
-1.27464e-06
-5.23329e-06
-1.44171e-06
-4.09028e-06
-1.11113e-06
-3.63885e-06
-4.84201e-07
-3.37513e-06
-2.47777e-07
-3.30782e-06
-2.62595e-08
-3.24408e-06
-1.20935e-07
-3.2019e-06
-9.56327e-08
-3.21191e-06
-2.95538e-08
-3.25139e-06
1.90185e-08
-3.20368e-06
-7.72853e-08
-3.16185e-06
-6.84776e-08
-3.13046e-06
-5.93292e-08
-3.09131e-06
-7.52387e-08
-3.05573e-06
-7.38556e-08
-3.01908e-06
-7.77168e-08
-2.97683e-06
-8.96044e-08
-2.93515e-06
-9.5596e-08
-2.89511e-06
-1.02105e-07
-2.86173e-06
-1.13761e-07
-2.82124e-06
-1.17098e-07
-2.76199e-06
-1.15102e-07
-2.67725e-06
-1.23779e-07
-2.59393e-06
-1.16039e-07
-2.53514e-06
-9.88657e-08
-2.48918e-06
-8.40484e-08
-2.45022e-06
-7.69943e-08
-2.4064e-06
-8.52031e-08
-2.36251e-06
-8.54858e-08
-2.32085e-06
-8.26902e-08
-2.27975e-06
-8.17778e-08
-2.23669e-06
-8.42431e-08
-2.19381e-06
-8.45425e-08
-2.15116e-06
-8.51449e-08
-2.10857e-06
-8.68602e-08
-2.06656e-06
-8.8433e-08
-2.0263e-06
-9.10843e-08
-1.99212e-06
-9.49588e-08
-1.95512e-06
-9.55682e-08
-1.90668e-06
-9.43626e-08
-1.84424e-06
-9.79424e-08
-1.78316e-06
-9.26209e-08
-1.73703e-06
-8.19061e-08
-1.69995e-06
-7.22218e-08
-1.66777e-06
-6.68654e-08
-1.63273e-06
-7.05738e-08
-1.59802e-06
-7.00113e-08
-1.56371e-06
-6.91235e-08
-1.52906e-06
-6.93771e-08
-1.4946e-06
-6.89828e-08
-1.46051e-06
-6.8234e-08
-1.42639e-06
-6.78652e-08
-1.39234e-06
-6.74093e-08
-1.35854e-06
-6.67142e-08
-1.32498e-06
-6.60008e-08
-1.29168e-06
-6.53081e-08
-1.25872e-06
-6.45372e-08
-1.22611e-06
-6.3728e-08
-1.19388e-06
-6.28622e-08
-1.16202e-06
-6.2039e-08
-1.13057e-06
-6.1189e-08
-1.09953e-06
-6.03629e-08
-1.06892e-06
-5.95057e-08
-1.03877e-06
-5.86155e-08
-1.00907e-06
-5.77432e-08
-9.79827e-07
-5.68863e-08
-9.51035e-07
-5.60087e-08
-9.22712e-07
-5.51012e-08
-8.9486e-07
-5.42098e-08
-8.67469e-07
-5.33379e-08
-8.4055e-07
-5.24387e-08
-8.14109e-07
-5.15268e-08
-7.88133e-07
-5.06358e-08
-7.62618e-07
-4.97356e-08
-7.37574e-07
-4.88124e-08
-7.13e-07
-4.78915e-08
-6.88883e-07
-4.69904e-08
-6.65222e-07
-4.60887e-08
-6.42023e-07
-4.51795e-08
-6.19288e-07
-4.42756e-08
-5.97015e-07
-4.337e-08
-5.752e-07
-4.24612e-08
-5.53845e-07
-4.15639e-08
-5.32949e-07
-4.06882e-08
-5.125e-07
-3.98221e-08
-4.92482e-07
-3.89623e-08
-4.72891e-07
-3.81124e-08
-4.53726e-07
-3.72838e-08
-4.34983e-07
-3.64639e-08
-4.16663e-07
-3.56381e-08
-3.98766e-07
-3.4805e-08
-3.81288e-07
-3.39951e-08
-3.64219e-07
-3.32108e-08
-3.47554e-07
-3.2423e-08
-3.3129e-07
-3.16319e-08
-3.15417e-07
-3.08641e-08
-2.99926e-07
-3.01157e-08
-2.84816e-07
-2.93625e-08
-2.70084e-07
-2.86077e-08
-2.55724e-07
-2.78737e-08
-2.41727e-07
-2.71566e-08
-2.2809e-07
-2.64376e-08
-2.14815e-07
-2.57194e-08
-2.01897e-07
-2.50188e-08
-1.89332e-07
-2.43324e-08
-1.77118e-07
-2.36422e-08
-1.65259e-07
-2.29493e-08
-1.53748e-07
-2.22699e-08
-1.42576e-07
-2.1606e-08
-1.31741e-07
-2.0945e-08
-1.21246e-07
-2.02803e-08
-1.11092e-07
-1.96222e-08
-1.01271e-07
-1.89821e-08
-9.17753e-08
-1.83581e-08
-8.25977e-08
-1.77423e-08
-7.37311e-08
-1.71352e-08
-6.51645e-08
-1.65433e-08
-5.68911e-08
-1.59628e-08
-4.89114e-08
-1.53838e-08
-4.12249e-08
-1.48074e-08
-3.38255e-08
-1.42418e-08
-2.67057e-08
-1.36884e-08
-1.98599e-08
-1.3146e-08
-1.32818e-08
-1.26173e-08
-6.96393e-09
-1.21032e-08
-9.0022e-10
-1.1602e-08
4.91432e-09
-1.11153e-08
1.04837e-08
-1.06436e-08
1.58103e-08
-1.01824e-08
2.08964e-08
-9.73128e-09
2.57483e-08
-9.29586e-09
3.0375e-08
-8.87353e-09
3.47842e-08
-8.45234e-09
3.89812e-08
-8.03051e-09
4.29733e-08
-7.61944e-09
4.67684e-08
-7.22256e-09
5.03712e-08
-6.83079e-09
5.37834e-08
-6.44347e-09
5.70075e-08
-6.07202e-09
6.00476e-08
-5.71958e-09
6.29055e-08
-5.37448e-09
6.55827e-08
-5.03093e-09
6.80852e-08
-4.69795e-09
7.04226e-08
-4.38184e-09
7.26048e-08
-4.07569e-09
7.46389e-08
-3.77328e-09
7.65307e-08
-3.48135e-09
7.82872e-08
-3.20812e-09
7.99128e-08
-2.94999e-09
8.14082e-08
-2.69899e-09
8.27746e-08
-2.45571e-09
8.4016e-08
-2.224e-09
8.51362e-08
-2.00356e-09
8.61426e-08
-1.79214e-09
8.70437e-08
-1.59103e-09
8.78495e-08
-1.40086e-09
8.85677e-08
-1.21717e-09
8.92016e-08
-1.03449e-09
8.97535e-08
-8.58375e-10
9.02234e-08
-6.89813e-10
9.06111e-08
-5.29916e-10
9.09163e-08
-3.75366e-10
9.11402e-08
-2.25079e-10
9.12861e-08
-7.99365e-11
9.13566e-08
6.08073e-11
9.1353e-08
1.98241e-10
9.12778e-08
3.28823e-10
9.11378e-08
4.457e-10
9.09434e-08
5.47289e-10
9.07034e-08
6.40837e-10
9.04204e-08
7.3424e-10
9.0093e-08
8.26024e-10
8.97216e-08
9.07679e-10
8.931e-08
9.76122e-10
8.8862e-08
1.03935e-09
8.83779e-08
1.1063e-09
8.78556e-08
1.17408e-09
8.72957e-08
1.2309e-09
8.67031e-08
1.27169e-09
8.60829e-08
1.30518e-09
8.54377e-08
1.34313e-09
8.47689e-08
1.38743e-09
8.40793e-08
1.43188e-09
8.33723e-08
1.4734e-09
8.26486e-08
1.51451e-09
8.19074e-08
1.55569e-09
8.11496e-08
1.59285e-09
8.03777e-08
1.62401e-09
7.95932e-08
1.65142e-09
7.8796e-08
1.67529e-09
7.79859e-08
1.69241e-09
7.71628e-08
1.70332e-09
7.63262e-08
1.7142e-09
7.54753e-08
1.72874e-09
7.46106e-08
1.74499e-09
7.37337e-08
1.76092e-09
7.28453e-08
1.77796e-09
7.19464e-08
1.79704e-09
7.10394e-08
1.81585e-09
7.01284e-08
1.83252e-09
6.92165e-08
1.84833e-09
6.83046e-08
1.86402e-09
6.73929e-08
1.87558e-09
6.64825e-08
1.87713e-09
6.55759e-08
1.86711e-09
6.4675e-08
1.84883e-09
6.37809e-08
1.82581e-09
6.28944e-08
1.79854e-09
6.20173e-08
1.76616e-09
6.11508e-08
1.73004e-09
6.02948e-08
1.6942e-09
5.94482e-08
1.66299e-09
5.86091e-08
1.63834e-09
5.77758e-08
1.62028e-09
5.69474e-08
1.60973e-09
5.61229e-08
1.60694e-09
5.53013e-08
1.61029e-09
5.44818e-08
1.61622e-09
5.36639e-08
1.62105e-09
5.28485e-08
1.62278e-09
5.20368e-08
1.62107e-09
5.12305e-08
1.61584e-09
5.04315e-08
1.60596e-09
4.96418e-08
1.58962e-09
4.88635e-08
1.56563e-09
4.80983e-08
1.53445e-09
4.73472e-08
1.49832e-09
4.66105e-08
1.46024e-09
4.58881e-08
1.42295e-09
4.5179e-08
1.3883e-09
4.44825e-08
1.3573e-09
4.37978e-08
1.33035e-09
4.31245e-08
1.30717e-09
4.24625e-08
1.28711e-09
4.18116e-08
1.269e-09
4.11719e-08
1.25149e-09
4.05435e-08
1.23311e-09
3.99269e-08
1.21239e-09
3.93228e-08
1.18829e-09
3.87326e-08
1.16082e-09
3.81568e-08
1.13154e-09
3.75944e-08
1.1031e-09
3.70425e-08
1.07768e-09
3.64976e-08
1.0556e-09
3.59575e-08
1.0356e-09
3.54226e-08
1.01732e-09
3.48944e-08
1.00339e-09
3.4373e-08
9.97607e-10
3.38565e-08
9.99632e-10
3.33428e-08
1.00307e-09
3.28335e-08
9.99683e-10
3.23326e-08
9.86948e-10
3.18432e-08
9.6907e-10
3.13645e-08
9.49731e-10
3.08947e-08
9.26174e-10
3.04345e-08
8.94061e-10
2.99863e-08
8.57403e-10
2.95491e-08
8.28462e-10
2.91179e-08
8.14755e-10
2.8688e-08
8.10935e-10
2.82593e-08
8.08058e-10
2.78343e-08
8.05144e-10
2.74135e-08
8.07451e-10
2.69953e-08
8.1536e-10
2.65788e-08
8.21061e-10
2.61656e-08
8.18353e-10
2.57574e-08
8.09557e-10
2.53538e-08
7.98933e-10
2.49543e-08
7.85697e-10
2.45593e-08
7.69096e-10
2.41682e-08
7.53783e-10
2.37793e-08
7.44322e-10
2.33922e-08
7.39872e-10
2.30072e-08
7.38919e-10
2.26237e-08
7.43091e-10
2.2241e-08
7.51505e-10
2.18603e-08
7.56815e-10
2.14853e-08
7.52217e-10
2.11188e-08
7.39094e-10
2.076e-08
7.23548e-10
2.04061e-08
7.08499e-10
2.00549e-08
6.93303e-10
1.97054e-08
6.79549e-10
1.93567e-08
6.71983e-10
1.90074e-08
6.73186e-10
1.86572e-08
6.80063e-10
1.83073e-08
6.86931e-10
1.79598e-08
6.90151e-10
1.76164e-08
6.88696e-10
1.72784e-08
6.81785e-10
1.69463e-08
6.68372e-10
1.66208e-08
6.49232e-10
1.63022e-08
6.28325e-10
1.59893e-08
6.1105e-10
1.56804e-08
6.00472e-10
1.5374e-08
5.94647e-10
1.50715e-08
5.8856e-10
1.47754e-08
5.79756e-10
1.44872e-08
5.70115e-10
1.42059e-08
5.60262e-10
1.39307e-08
5.46364e-10
1.36612e-08
5.26612e-10
1.33961e-08
5.06435e-10
1.31324e-08
4.93411e-10
1.28681e-08
4.89767e-10
1.26038e-08
4.9279e-10
1.23416e-08
4.98218e-10
1.20843e-08
5.0063e-10
1.18344e-08
4.95514e-10
1.15926e-08
4.83314e-10
1.13573e-08
4.68462e-10
1.11246e-08
4.55813e-10
1.08905e-08
4.49638e-10
1.06523e-08
4.52217e-10
1.04103e-08
4.61532e-10
1.01664e-08
4.73349e-10
9.92357e-09
4.8333e-10
9.68479e-09
4.87372e-10
9.45138e-09
4.82713e-10
9.22252e-09
4.69464e-10
8.99637e-09
4.52123e-10
8.77103e-09
4.38474e-10
8.5453e-09
4.33258e-10
8.32102e-09
4.31955e-10
8.10338e-09
4.25941e-10
7.89443e-09
4.17849e-10
7.6909e-09
4.12104e-10
7.48889e-09
4.04214e-10
7.28575e-09
3.94833e-10
7.08173e-09
3.88521e-10
6.87985e-09
3.85826e-10
6.68244e-09
3.85282e-10
6.49109e-09
3.82577e-10
6.30713e-09
3.72449e-10
6.13102e-09
3.55853e-10
5.95879e-09
3.43302e-10
5.78739e-09
3.35748e-10
5.61683e-09
3.29173e-10
5.44787e-09
3.26088e-10
5.28042e-09
3.23925e-10
5.11704e-09
3.15281e-10
4.95698e-09
3.05192e-10
4.80048e-09
3.0679e-10
4.65224e-09
3.06002e-10
4.5014e-09
3.14306e-10
4.34966e-09
3.15561e-10
4.22006e-09
2.74274e-10
4.12598e-09
2.29447e-10
4.04279e-09
2.07322e-10
3.93817e-09
2.09253e-10
3.81804e-09
2.07107e-10
3.70164e-09
1.90703e-10
3.60317e-09
1.71215e-10
3.51986e-09
1.33623e-10
3.43754e-09
1.28977e-10
3.36451e-09
1.21264e-10
3.28637e-09
1.43241e-10
3.21266e-09
1.46014e-10
3.13883e-09
1.37357e-10
3.06806e-09
1.34918e-10
3.00751e-09
9.66256e-11
2.94122e-09
1.19163e-10
2.8581e-09
1.73236e-10
2.78881e-09
1.54007e-10
2.72375e-09
1.43918e-10
2.6875e-09
8.9812e-11
2.64838e-09
1.02767e-10
2.60558e-09
9.84383e-11
2.57332e-09
5.61217e-11
2.54424e-09
3.49481e-11
2.50541e-09
1.65528e-11
2.45049e-09
7.12704e-11
2.4436e-09
-6.89864e-12
2.42942e-09
3.85402e-11
2.3892e-09
7.26338e-11
2.38099e-09
6.56271e-11
2.38248e-09
3.09433e-11
2.36624e-09
7.91667e-14
2.36823e-09
4.08402e-11
2.33077e-09
2.67325e-11
2.23264e-09
6.66454e-11
2.22245e-09
3.56748e-11
2.17458e-09
8.43825e-11
2.07391e-09
2.05416e-10
2.20621e-09
-1.08916e-10
2.34304e-09
-4.44874e-11
2.91183e-09
-5.01264e-10
3.45426e-09
-6.43045e-10
3.76634e-09
-3.59126e-10
3.74829e-09
-4.83136e-10
3.45615e-09
-1.10757e-10
3.41715e-09
-3.31498e-11
3.368e-09
-1.91623e-11
3.27129e-09
1.33416e-10
3.15041e-09
1.99067e-10
2.99378e-09
2.55762e-10
2.78986e-09
3.4243e-10
2.59438e-09
3.82787e-10
2.43086e-09
3.81852e-10
2.26786e-09
3.98089e-10
2.0878e-09
4.2718e-10
1.904e-09
4.24438e-10
1.72404e-09
3.89128e-10
1.53881e-09
3.58156e-10
1.34154e-09
3.54071e-10
1.14636e-09
3.57865e-10
9.73402e-10
3.39382e-10
8.32524e-10
2.93169e-10
7.221e-10
2.35604e-10
6.31859e-10
1.90164e-10
5.45928e-10
1.71084e-10
4.50476e-10
1.81389e-10
3.35701e-10
2.15582e-10
2.01941e-10
2.57458e-10
5.57953e-11
2.92661e-10
-8.97264e-11
3.08902e-10
-2.22203e-10
3.03921e-10
-3.33361e-10
2.81146e-10
-4.17625e-10
2.42838e-10
-4.72485e-10
1.90262e-10
-4.97388e-10
1.22975e-10
-4.93976e-10
4.13974e-11
-4.62659e-10
-4.97428e-11
-4.07582e-10
-1.4466e-10
-3.30106e-10
-2.31075e-10
-2.30494e-10
-3.04263e-10
-1.09146e-10
-3.58911e-10
3.4483e-11
-3.96464e-10
1.95365e-10
-4.14932e-10
3.65468e-10
-4.15417e-10
5.31832e-10
-3.94816e-10
6.78387e-10
-3.482e-10
7.91877e-10
-2.75982e-10
8.70104e-10
-1.90455e-10
9.19187e-10
-1.09453e-10
9.58126e-10
-5.71714e-11
9.98419e-10
-3.91143e-11
1.04528e-09
-4.95563e-11
1.10429e-09
-8.36318e-11
1.17866e-09
-1.40195e-10
1.2756e-09
-2.19076e-10
1.40229e-09
-3.05932e-10
1.54867e-09
-3.60364e-10
1.68389e-09
-3.31567e-10
1.77988e-09
-2.15603e-10
1.83906e-09
-8.53329e-11
1.89447e-09
-4.25104e-11
1.98275e-09
-1.30456e-10
2.07276e-09
-2.48965e-10
2.09288e-09
-2.20623e-10
1.99863e-09
1.41292e-11
1.83748e-09
2.94222e-10
1.74587e-09
3.67133e-10
1.78789e-09
1.72006e-10
1.81933e-09
-1.32971e-11
1.71829e-09
7.72324e-11
1.49106e-09
3.6218e-10
1.36213e-09
4.24671e-10
1.44417e-09
1.23327e-10
1.51438e-09
-1.43806e-10
1.3957e-09
-3.86887e-11
1.29764e-09
1.0269e-10
1.40094e-09
-8.37894e-11
1.48085e-09
-2.96329e-10
1.30757e-09
-1.69019e-10
1.16332e-09
8.3659e-11
1.10683e-09
1.99538e-10
9.9948e-10
1.73996e-10
9.2868e-10
3.24833e-10
1.02494e-09
1.4437e-10
9.27219e-10
-7.16842e-06
1.31243e-07
-7.3689e-06
4.84963e-07
-7.54145e-06
4.81527e-07
-7.71848e-06
4.7411e-07
-7.88486e-06
4.81166e-07
-8.03921e-06
4.78253e-07
-8.19014e-06
4.685e-07
-8.34228e-06
4.64576e-07
-8.49428e-06
4.61649e-07
-8.64766e-06
4.58649e-07
-8.80275e-06
4.58352e-07
-8.95718e-06
4.57045e-07
-9.11293e-06
4.56756e-07
-9.26046e-06
4.56767e-07
-9.40807e-06
4.52824e-07
-9.55414e-06
4.46216e-07
-9.69511e-06
4.35329e-07
-9.83316e-06
4.24089e-07
-9.96827e-06
4.1406e-07
-1.00987e-05
4.03057e-07
-1.0224e-05
3.8982e-07
-1.03435e-05
3.75259e-07
-1.04572e-05
3.61214e-07
-1.05669e-05
3.4517e-07
-1.06723e-05
3.2878e-07
-1.07711e-05
3.10929e-07
-1.08627e-05
2.92439e-07
-1.09499e-05
2.79143e-07
-1.10343e-05
2.65968e-07
-1.11117e-05
2.47464e-07
-1.11832e-05
2.38842e-07
-1.12559e-05
2.32434e-07
-1.13224e-05
2.07201e-07
-1.13847e-05
1.64638e-07
-1.1437e-05
1.43058e-07
-1.14796e-05
1.31253e-07
-1.15135e-05
1.16447e-07
-1.15454e-05
1.01238e-07
-1.15678e-05
6.771e-08
-1.15802e-05
3.74888e-08
-1.15827e-05
2.34022e-08
-1.1577e-05
8.61439e-09
-1.15688e-05
-1.43008e-08
-1.15598e-05
-3.73804e-08
-1.15422e-05
-5.3779e-08
-1.15126e-05
-6.8863e-08
-1.14818e-05
-8.5672e-08
-1.14532e-05
-1.04266e-07
-1.14188e-05
-1.22992e-07
-1.13738e-05
-1.41234e-07
-1.13218e-05
-1.61647e-07
-1.12665e-05
-1.85857e-07
-1.12046e-05
-2.09642e-07
-1.11359e-05
-2.32962e-07
-1.10578e-05
-2.53411e-07
-1.09708e-05
-2.71014e-07
-1.08772e-05
-2.882e-07
-1.07794e-05
-3.03911e-07
-1.06751e-05
-3.15716e-07
-1.05655e-05
-3.27059e-07
-1.04521e-05
-3.40922e-07
-1.03357e-05
-3.55515e-07
-1.02138e-05
-3.70643e-07
-1.00846e-05
-3.86738e-07
-9.94904e-06
-4.07886e-07
-9.80768e-06
-4.33844e-07
-9.65837e-06
-4.61168e-07
-9.50292e-06
-4.90952e-07
-9.33803e-06
-5.23286e-07
-9.16512e-06
-5.59205e-07
-8.98366e-06
-5.98971e-07
-8.7978e-06
-6.45738e-07
-8.61037e-06
-7.02857e-07
-8.42575e-06
-7.74847e-07
-8.25182e-06
-8.60948e-07
-8.10444e-06
-9.61299e-07
-8.01709e-06
-1.07074e-06
-8.03199e-06
-1.17335e-06
-8.04293e-06
-1.25075e-06
-7.98513e-06
-1.33517e-06
-7.98497e-06