/*--------------------------------*- C++ -*----------------------------------*\
| =========                 |                                                 |
| \\      /  F ield         | OpenFOAM: The Open Source CFD Toolbox           |
|  \\    /   O peration     | Version:  v2006                                 |
|   \\  /    A nd           | Website:  www.openfoam.com                      |
|    \\/     M anipulation  |                                                 |
\*---------------------------------------------------------------------------*/
FoamFile
{
    version     2.0;
    format      ascii;
    class       volScalarField;
    location    "1.1";
    object      omega;
}
// * * * * * * * * * * * * * * * * * * * * * * * * * * * * * * * * * * * * * //

dimensions      [0 0 -1 0 0 0 0];


internalField   nonuniform List<scalar> 
33000
(
0.802248
0.802292
0.802288
0.802283
0.80228
0.802276
0.802272
0.802269
0.802265
0.802262
0.802258
0.802255
0.802253
0.802251
0.802249
0.802247
0.802245
0.802242
0.802238
0.802235
0.802232
0.802228
0.802224
0.80222
0.802217
0.802213
0.802209
0.802205
0.8022
0.802196
0.80219
0.802184
0.802178
0.802173
0.802167
0.802163
0.802158
0.802152
0.802147
0.802141
0.802135
0.802128
0.80212
0.802112
0.802103
0.802094
0.802084
0.802075
0.802065
0.802055
0.802045
0.802034
0.802024
0.802014
0.802004
0.801995
0.801986
0.801978
0.801969
0.801959
0.801949
0.801939
0.801929
0.801918
0.801908
0.801898
0.801887
0.801876
0.801865
0.801853
0.801841
0.801828
0.801813
0.801795
0.801773
0.801747
0.801715
0.801679
0.801565
0.801576
0.801542
0.801545
0.801541
0.801534
0.801534
0.801529
0.801521
0.801514
0.801509
0.801504
0.801499
0.801494
0.801489
0.801484
0.801479
0.801473
0.801467
0.801461
0.801456
0.801447
0.801441
0.801435
0.80143
0.801424
0.801419
0.801413
0.801408
0.801402
0.801396
0.801391
0.801385
0.801379
0.801374
0.801368
0.801362
0.801356
0.801351
0.801342
0.801338
0.801333
0.801328
0.801324
0.801319
0.801315
0.801311
0.801307
0.801303
0.801299
0.801295
0.801291
0.801287
0.801283
0.80128
0.801277
0.801273
0.80127
0.801266
0.801263
0.80126
0.801257
0.801254
0.801251
0.801249
0.801246
0.801243
0.80124
0.801238
0.801236
0.801233
0.801231
0.801229
0.801227
0.801225
0.801223
0.801221
0.801219
0.801217
0.801216
0.801214
0.801212
0.801211
0.801209
0.801208
0.801206
0.801205
0.801204
0.801202
0.801201
0.8012
0.801199
0.801198
0.801196
0.801195
0.801194
0.801193
0.801192
0.801192
0.801191
0.80119
0.801189
0.801189
0.801188
0.801187
0.801186
0.801186
0.801185
0.801185
0.801184
0.801183
0.801183
0.801182
0.801182
0.801182
0.801181
0.801181
0.80118
0.80118
0.80118
0.801179
0.801179
0.801179
0.801179
0.801179
0.801178
0.801178
0.801178
0.801178
0.801178
0.801177
0.801177
0.801177
0.801177
0.801177
0.801177
0.801176
0.801176
0.801176
0.801176
0.801176
0.801175
0.801175
0.801175
0.801175
0.801174
0.801174
0.801174
0.801173
0.801173
0.801173
0.801173
0.801172
0.801172
0.801172
0.801171
0.801171
0.801171
0.801171
0.80117
0.80117
0.80117
0.801169
0.801169
0.801169
0.801168
0.801168
0.801168
0.801168
0.801167
0.801167
0.801167
0.801166
0.801166
0.801166
0.801165
0.801165
0.801165
0.801165
0.801164
0.801164
0.801164
0.801163
0.801163
0.801163
0.801163
0.801162
0.801162
0.801162
0.801162
0.801161
0.801161
0.801161
0.801161
0.80116
0.80116
0.80116
0.80116
0.801159
0.801159
0.801159
0.801159
0.801159
0.801158
0.801158
0.801158
0.801158
0.801157
0.801157
0.801157
0.801157
0.801157
0.801156
0.801156
0.801156
0.801156
0.801156
0.801156
0.801155
0.801155
0.801155
0.801155
0.801155
0.801155
0.801154
0.801154
0.801154
0.801154
0.801154
0.801154
0.801154
0.801153
0.801153
0.801153
0.801153
0.801153
0.801153
0.801153
0.801153
0.801153
0.801152
0.801152
0.801152
0.801152
0.801152
0.801152
0.801152
0.801152
0.801152
0.801152
0.801152
0.801151
0.801151
0.801151
0.801151
0.801151
0.801151
0.801151
0.801151
0.801151
0.801151
0.801151
0.801151
0.801151
0.801151
0.801151
0.80115
0.80115
0.80115
0.80115
0.80115
0.80115
0.80115
0.80115
0.80115
0.80115
0.80115
0.80115
0.80115
0.80115
0.80115
0.80115
0.80115
0.80115
0.801149
0.801149
0.801149
0.801149
0.801149
0.801149
0.801149
0.801149
0.801149
0.801149
0.801149
0.801149
0.801149
0.801149
0.801149
0.801149
0.801149
0.801149
0.801149
0.801149
0.801149
0.801149
0.801149
0.801149
0.801149
0.801149
0.801148
0.801148
0.801148
0.801148
0.801148
0.801148
0.801148
0.801148
0.801148
0.801148
0.801148
0.801148
0.801148
0.801148
0.801148
0.801148
0.801148
0.801148
0.801148
0.801148
0.801148
0.801148
0.801148
0.801148
0.801148
0.801148
0.801148
0.801148
0.801148
0.801148
0.801148
0.801148
0.801148
0.801148
0.801148
0.801148
0.801148
0.801148
0.801148
0.801148
0.801148
0.801148
0.801148
0.801147
0.801147
0.801147
0.801147
0.801147
0.801147
0.801147
0.801147
0.801147
0.801147
0.801147
0.801147
0.801147
0.801147
0.801147
0.801147
0.801147
0.801147
0.801147
0.801147
0.801147
0.801147
0.801147
0.801147
0.801147
0.801147
0.801147
0.801147
0.801147
0.801147
0.801147
0.801147
0.801147
0.801147
0.801147
0.801147
0.801147
0.801147
0.801148
0.801148
0.801148
0.801148
0.801147
0.801147
0.801147
0.801147
0.801147
0.801147
0.801147
0.801147
0.801147
0.801147
0.801147
0.801147
0.801147
0.801147
0.801147
0.801147
0.801147
0.801147
0.801147
0.801147
0.801147
0.801147
0.801147
0.801148
0.801148
0.801148
0.801148
0.801148
0.801148
0.801148
0.801148
0.801148
0.801147
0.801147
0.801147
0.801147
0.801147
0.801147
0.801147
0.801147
0.801147
0.801147
0.801147
0.801147
0.801147
0.801147
0.801147
0.801147
0.801147
0.801147
0.801147
0.801147
0.801147
0.801147
0.801147
0.801147
0.801147
0.801147
0.801147
0.801147
0.801147
0.801147
0.801147
0.801147
0.801147
0.801147
0.801147
0.801147
0.801147
0.801147
0.801147
0.801147
0.801147
0.801147
0.801147
0.801147
0.801148
0.00745183
0.0111931
0.0106077
0.00971056
0.00999419
0.0101357
0.00985936
0.00955555
0.00934645
0.00915542
0.00900642
0.00891792
0.00884175
0.00900784
0.00891367
0.00880223
0.00871018
0.00856932
0.00847018
0.00840432
0.00831912
0.00821464
0.00811165
0.00797506
0.0078529
0.0077618
0.0076625
0.00755548
0.00744415
0.00735658
0.00727184
0.00716677
0.00700708
0.0068538
0.0067957
0.00671783
0.00660167
0.00648786
0.00639094
0.00636616
0.00632454
0.00624972
0.00610799
0.00603438
0.00600935
0.00598202
0.00589577
0.00580658
0.00578593
0.00576618
0.00574676
0.00572752
0.00571029
0.0056951
0.00568242
0.00567155
0.00566163
0.00565236
0.0056445
0.00563757
0.00563109
0.00562738
0.00562816
0.00563483
0.00564837
0.00566905
0.00569768
0.00573863
0.00579896
0.00588828
0.00602132
0.00622409
0.00654642
0.00707098
0.00792173
0.00929539
0.0112206
0.0124648
0.0102302
0.00624453
0.00569943
0.0054793
0.00420188
0.00419484
0.00481694
0.00427943
0.00447337
0.00460964
0.00432927
0.00436669
0.00431445
0.0044357
0.00440636
0.00447398
0.00447891
0.00447006
0.00446992
0.00446442
0.00451966
0.00449683
0.00443375
0.00434523
0.00434782
0.00442398
0.00441906
0.00444973
0.00446482
0.00448079
0.00449979
0.00450616
0.00450738
0.00451761
0.00453092
0.00454567
0.00456979
0.0045703
0.00470461
0.00465314
0.00454795
0.00437057
0.00436756
0.00452359
0.00450682
0.00457311
0.00459688
0.00462866
0.0046419
0.00464799
0.0046568
0.00466903
0.0046816
0.00469466
0.00470802
0.00471927
0.00473154
0.00474427
0.00475734
0.00477147
0.00478419
0.00479621
0.00480908
0.00482265
0.00483677
0.00485059
0.0048653
0.00487905
0.00489108
0.00490322
0.00491627
0.00493002
0.00494336
0.00495678
0.00496934
0.00498098
0.00499252
0.00500494
0.00501813
0.00503085
0.00504358
0.00505529
0.00506597
0.00507649
0.00508698
0.00509753
0.0051087
0.00512041
0.00512972
0.0051377
0.00514634
0.00515406
0.00516034
0.0051657
0.00516936
0.00517341
0.00517721
0.00518049
0.00518442
0.00518815
0.0051907
0.00519319
0.00519615
0.0051994
0.0052024
0.00520565
0.00520956
0.00521251
0.00521529
0.00521808
0.00522125
0.00522491
0.00522798
0.00523018
0.00523251
0.00523514
0.00523812
0.00524123
0.00524441
0.00524632
0.00524877
0.00525145
0.00525427
0.00525728
0.00525917
0.00526058
0.0052623
0.00526421
0.00526605
0.0052677
0.00526801
0.00526816
0.00526835
0.00526912
0.00527044
0.00527074
0.00527063
0.00527069
0.0052709
0.00527078
0.00527039
0.00527019
0.00527024
0.00527015
0.00526975
0.00526953
0.00526966
0.00527016
0.00527014
0.00526975
0.00526939
0.00526907
0.00526862
0.00526843
0.00526825
0.00526802
0.00526776
0.00526764
0.00526769
0.00526799
0.00526796
0.00526754
0.00526701
0.00526658
0.0052663
0.0052662
0.00526657
0.00526687
0.00526686
0.00526662
0.00526654
0.00526678
0.00526692
0.00526663
0.0052657
0.00526484
0.00526454
0.00526441
0.00526361
0.005262
0.00526027
0.00525916
0.00525874
0.00525857
0.00525839
0.00525822
0.00525798
0.0052575
0.00525683
0.00525609
0.00525521
0.00525393
0.0052523
0.00525077
0.00524959
0.00524866
0.00524782
0.00524711
0.00524655
0.00524608
0.00524569
0.00524546
0.00524533
0.00524497
0.00524408
0.00524263
0.0052409
0.00523907
0.00523715
0.00523507
0.00523285
0.00523066
0.00522868
0.00522698
0.00522553
0.00522448
0.00522387
0.00522358
0.00522339
0.00522306
0.00522255
0.00522193
0.00522126
0.00522049
0.00521947
0.00521809
0.00521636
0.00521441
0.00521241
0.00521053
0.00520886
0.00520747
0.00520637
0.00520555
0.00520497
0.00520452
0.00520409
0.00520355
0.00520282
0.00520185
0.00520066
0.00519934
0.00519797
0.00519658
0.00519516
0.00519372
0.00519246
0.00519169
0.00519161
0.00519201
0.00519238
0.00519233
0.00519188
0.00519127
0.00519048
0.00518921
0.00518731
0.00518523
0.0051837
0.00518301
0.00518272
0.00518251
0.0051825
0.00518296
0.00518374
0.00518428
0.00518428
0.0051839
0.00518336
0.00518258
0.00518156
0.0051806
0.00517999
0.00517975
0.00517983
0.00518029
0.00518103
0.00518163
0.00518174
0.00518138
0.00518077
0.00517998
0.005179
0.00517805
0.00517753
0.00517762
0.00517814
0.00517876
0.00517927
0.00517955
0.00517947
0.00517893
0.00517798
0.00517689
0.00517601
0.00517551
0.00517531
0.00517517
0.00517504
0.00517495
0.00517476
0.00517418
0.00517309
0.00517184
0.00517091
0.00517059
0.00517087
0.00517152
0.00517213
0.00517235
0.00517205
0.00517138
0.00517057
0.00516996
0.00516985
0.0051703
0.00517113
0.00517205
0.00517274
0.00517284
0.00517217
0.005171
0.00516998
0.00516955
0.0051696
0.00516969
0.00516979
0.00516981
0.00516934
0.00516852
0.00516798
0.005168
0.00516838
0.00516872
0.00516858
0.00516796
0.00516733
0.00516688
0.00516652
0.00516652
0.00516659
0.00516637
0.00516595
0.0051665
0.00516736
0.00516783
0.00516807
0.00516701
0.00516615
0.00516557
0.00516479
0.00516432
0.00516345
0.00516276
0.00516105
0.00516078
0.00516089
0.00516204
0.00516275
0.00516204
0.00516222
0.00516038
0.00516146
0.00516445
0.00516413
0.00516377
0.00516178
0.00516269
0.00516231
0.00516016
0.00515956
0.00515929
0.00515989
0.00515933
0.00516024
0.00516078
0.00516278
0.00516087
0.00515926
0.00516149
0.00515924
0.0051591
0.0051601
0.00516062
0.00516412
0.00515974
0.0051649
0.00516114
0.00515904
0.00515969
0.00515995
0.00516072
0.00516252
0.00516019
0.00516478
0.00516659
0.00516713
0.00516958
0.00517281
0.00517476
0.00517578
0.00517651
0.00517582
0.00517319
0.00517026
0.00516902
0.00516953
0.00516984
0.00516875
0.00516659
0.00516464
0.00516361
0.00516377
0.00516508
0.00516707
0.005169
0.00517054
0.0051714
0.0051715
0.00517079
0.00516912
0.00516626
0.00516209
0.005159
0.00515893
0.00515889
0.00515887
0.00515885
0.00515884
0.00515884
0.00515884
0.00515885
0.00515886
0.0051589
0.00515899
0.00515914
0.00515945
0.00516001
0.00515983
0.00515942
0.00515917
0.00515907
0.00515899
0.00515894
0.00515898
0.0051591
0.00515937
0.00516083
0.0051593
0.00515908
0.00515903
0.00515927
0.00516978
0.00518057
0.00517601
0.00516094
0.00515943
0.00516955
0.00518177
0.00517494
0.0051593
0.00515913
0.00515953
0.00516027
0.00515898
0.00515891
0.00515933
0.00517004
0.00516442
0.0051792
0.00517871
0.00516263
0.00162539
0.00149995
0.00120746
0.0011327
0.00113295
0.00113438
0.00112991
0.00112615
0.00112398
0.00112218
0.00112122
0.0011209
0.00112064
0.00112296
0.00112222
0.00112101
0.00111956
0.00111739
0.00111587
0.00111453
0.00111281
0.00111089
0.00110905
0.00110678
0.00110477
0.00110292
0.0011009
0.00109919
0.00109758
0.00109571
0.00109452
0.00109358
0.0010911
0.00108686
0.00108503
0.00108425
0.00108319
0.0010823
0.00108046
0.00107909
0.00107872
0.00107833
0.0010771
0.00107608
0.00107564
0.00107522
0.00107422
0.00107296
0.00107259
0.00107263
0.00107275
0.00107275
0.0010729
0.0010731
0.0010734
0.00107366
0.00107372
0.00107359
0.00107348
0.00107337
0.0010732
0.00107311
0.00107323
0.00107359
0.0010742
0.00107501
0.00107602
0.00107723
0.00107868
0.00108045
0.00108257
0.00108521
0.00108873
0.00109357
0.00110035
0.00110984
0.00112229
0.00113387
0.00112884
0.00112988
0.00114053
0.00117401
0.00120847
0.00135942
0.00132914
0.00118463
0.00115405
0.00111834
0.00104343
0.00104601
0.00101706
0.0010194
0.00102177
0.00102308
0.00102094
0.00102175
0.00102093
0.00102032
0.00102065
0.00102072
0.00102071
0.0010206
0.00102154
0.00102197
0.00102461
0.00102432
0.00102154
0.00102153
0.00102078
0.00102
0.00101987
0.00101976
0.00101963
0.00101967
0.00101964
0.00101934
0.00101982
0.00101962
0.00101889
0.00101814
0.00101814
0.00101864
0.0010198
0.00101979
0.00101829
0.00101834
0.00101807
0.00101802
0.00101858
0.00101857
0.0010184
0.00101842
0.00101838
0.0010184
0.00101847
0.00101852
0.00101848
0.00101843
0.00101841
0.00101839
0.00101839
0.00101842
0.00101847
0.00101854
0.00101859
0.00101858
0.00101856
0.00101856
0.00101859
0.00101863
0.00101869
0.00101878
0.00101881
0.00101885
0.00101888
0.0010189
0.00101894
0.00101898
0.00101905
0.00101913
0.0010192
0.00101924
0.00101928
0.00101933
0.00101937
0.00101943
0.0010195
0.00101957
0.00101966
0.00101972
0.00101976
0.0010198
0.00101985
0.00101988
0.00101993
0.00101999
0.00102007
0.00102011
0.00102014
0.00102019
0.00102025
0.00102034
0.00102043
0.00102055
0.00102064
0.00102068
0.00102072
0.00102078
0.00102085
0.00102095
0.00102107
0.00102115
0.00102122
0.00102128
0.00102137
0.00102148
0.00102161
0.00102168
0.00102174
0.00102181
0.0010219
0.001022
0.0010221
0.00102222
0.00102237
0.00102244
0.00102252
0.00102261
0.00102271
0.0010228
0.0010229
0.00102296
0.00102306
0.00102318
0.00102331
0.00102345
0.00102358
0.00102366
0.00102373
0.00102382
0.00102393
0.00102408
0.00102424
0.00102433
0.00102442
0.00102452
0.00102462
0.00102474
0.00102483
0.00102488
0.00102493
0.00102497
0.00102503
0.00102513
0.00102522
0.00102528
0.00102534
0.00102539
0.00102541
0.0010254
0.00102537
0.00102534
0.00102532
0.00102531
0.00102531
0.00102531
0.0010253
0.00102533
0.00102539
0.00102546
0.0010255
0.00102553
0.00102555
0.0010256
0.00102563
0.00102559
0.00102552
0.00102546
0.00102545
0.00102549
0.00102556
0.00102563
0.00102571
0.0010258
0.0010259
0.00102598
0.00102605
0.00102609
0.00102611
0.00102609
0.00102607
0.00102606
0.00102606
0.00102608
0.0010261
0.00102615
0.00102621
0.00102629
0.00102639
0.0010265
0.00102661
0.00102671
0.00102677
0.00102682
0.00102687
0.0010269
0.00102693
0.00102696
0.00102699
0.00102702
0.00102706
0.00102711
0.00102719
0.00102727
0.00102737
0.00102746
0.00102754
0.0010276
0.00102766
0.00102771
0.00102774
0.00102773
0.00102772
0.00102771
0.00102769
0.00102767
0.00102764
0.00102762
0.00102761
0.00102759
0.00102758
0.00102757
0.00102756
0.00102755
0.00102754
0.00102754
0.00102752
0.00102751
0.0010275
0.00102748
0.00102747
0.00102745
0.00102744
0.00102742
0.00102741
0.0010274
0.0010274
0.0010274
0.0010274
0.0010274
0.00102739
0.00102738
0.00102737
0.00102736
0.00102734
0.00102732
0.0010273
0.0010273
0.00102729
0.00102729
0.00102729
0.00102729
0.0010273
0.0010273
0.0010273
0.00102729
0.00102729
0.00102728
0.00102727
0.00102726
0.00102726
0.00102725
0.00102725
0.00102726
0.00102726
0.00102727
0.00102726
0.00102726
0.00102725
0.00102724
0.00102724
0.00102723
0.00102722
0.00102722
0.00102723
0.00102723
0.00102724
0.00102724
0.00102723
0.00102723
0.00102722
0.00102721
0.0010272
0.0010272
0.00102719
0.00102719
0.00102719
0.00102718
0.00102718
0.00102717
0.00102716
0.00102715
0.00102715
0.00102714
0.00102715
0.00102715
0.00102715
0.00102715
0.00102715
0.00102714
0.00102713
0.00102713
0.00102713
0.00102714
0.00102714
0.00102715
0.00102715
0.00102715
0.00102715
0.00102714
0.00102713
0.00102713
0.00102713
0.00102712
0.00102712
0.00102712
0.00102712
0.00102711
0.00102711
0.00102711
0.00102711
0.00102711
0.00102711
0.0010271
0.00102709
0.00102709
0.00102709
0.00102709
0.00102709
0.00102709
0.00102708
0.00102709
0.00102709
0.0010271
0.0010271
0.00102709
0.00102707
0.00102707
0.00102706
0.00102707
0.00102706
0.00102705
0.00102703
0.00102703
0.00102703
0.00102704
0.00102704
0.00102704
0.00102704
0.00102702
0.00102703
0.00102706
0.00102705
0.00102705
0.00102703
0.00102704
0.00102703
0.00102702
0.00102701
0.00102701
0.00102702
0.00102701
0.00102701
0.00102702
0.00102703
0.00102701
0.00102701
0.00102702
0.00102701
0.00102701
0.00102701
0.00102703
0.00102707
0.00102701
0.00102702
0.00102701
0.00102701
0.00102701
0.00102701
0.00102703
0.00102704
0.00102702
0.00102708
0.0010271
0.00102711
0.00102714
0.00102716
0.00102717
0.00102717
0.00102718
0.00102718
0.00102716
0.00102714
0.00102713
0.00102713
0.00102713
0.00102711
0.00102708
0.00102706
0.00102705
0.00102706
0.00102708
0.0010271
0.00102712
0.00102713
0.00102713
0.00102713
0.00102711
0.00102709
0.00102706
0.00102702
0.001027
0.001027
0.001027
0.001027
0.001027
0.001027
0.001027
0.001027
0.001027
0.001027
0.001027
0.001027
0.00102701
0.00102701
0.00102701
0.00102701
0.00102701
0.00102701
0.00102701
0.00102701
0.001027
0.00102701
0.00102701
0.00102701
0.00102702
0.00102701
0.00102701
0.00102701
0.00102701
0.00102714
0.0010272
0.00102712
0.00102702
0.00102703
0.00102716
0.00102722
0.0010271
0.00102701
0.00102701
0.00102704
0.00102701
0.00102701
0.00102701
0.00102703
0.0010271
0.00102708
0.00102718
0.00102712
0.00102704
0.00162329
0.00141715
0.00112199
0.00105621
0.00105293
0.00105368
0.00105409
0.00105482
0.00105564
0.00105651
0.00105726
0.00105796
0.00105864
0.00105928
0.00105998
0.00106055
0.00106097
0.00106128
0.00106151
0.00106171
0.00106183
0.00106186
0.0010619
0.00106201
0.00106211
0.00106217
0.00106209
0.00106193
0.00106189
0.00106166
0.00106118
0.00106109
0.00106122
0.00106083
0.00106005
0.00105947
0.00105913
0.00105907
0.001059
0.00105868
0.00105854
0.00105873
0.00105896
0.00105901
0.00105903
0.00105905
0.00105898
0.00105879
0.00105858
0.00105841
0.00105829
0.00105828
0.00105832
0.00105821
0.00105822
0.00105831
0.00105832
0.00105825
0.00105823
0.00105828
0.00105827
0.00105822
0.00105818
0.00105825
0.00105845
0.00105867
0.00105892
0.00105914
0.00105929
0.00105935
0.00105918
0.00105861
0.0010576
0.00105604
0.00105366
0.00105001
0.00104474
0.00103804
0.00103182
0.00102784
0.0010311
0.00104572
0.00108122
0.00110252
0.00114015
0.00116802
0.00122314
0.00133413
0.00130368
0.00115146
0.00112929
0.00103742
0.00103839
0.00100984
0.00100982
0.00101406
0.00101438
0.00101175
0.00101251
0.00101157
0.00101104
0.00101121
0.00101143
0.00101166
0.0010117
0.00101231
0.00101272
0.0010127
0.00101472
0.00101419
0.00101138
0.00101115
0.00100993
0.00100967
0.00100933
0.00100906
0.00100896
0.00100878
0.00100856
0.00100853
0.00100841
0.00100823
0.00100809
0.00100825
0.0010081
0.00100947
0.00100917
0.00100742
0.00100732
0.00100671
0.0010066
0.00100657
0.00100642
0.00100616
0.00100604
0.00100589
0.00100576
0.00100563
0.00100552
0.00100539
0.00100524
0.00100511
0.00100499
0.00100486
0.00100473
0.0010046
0.00100448
0.00100436
0.00100424
0.00100413
0.00100401
0.0010039
0.0010038
0.00100369
0.00100359
0.00100349
0.00100339
0.00100329
0.0010032
0.00100311
0.00100302
0.00100293
0.00100284
0.00100275
0.00100267
0.00100258
0.0010025
0.00100243
0.00100235
0.00100228
0.0010022
0.00100213
0.00100206
0.00100199
0.00100193
0.00100186
0.00100179
0.00100173
0.00100167
0.00100161
0.00100155
0.0010015
0.00100144
0.00100138
0.00100133
0.00100128
0.00100123
0.00100118
0.00100113
0.00100108
0.00100103
0.00100098
0.00100094
0.0010009
0.00100086
0.00100081
0.00100077
0.00100074
0.0010007
0.00100067
0.00100063
0.00100059
0.00100056
0.00100053
0.0010005
0.00100047
0.00100044
0.00100041
0.00100039
0.00100036
0.00100034
0.00100032
0.0010003
0.00100028
0.00100027
0.00100025
0.00100024
0.00100023
0.00100022
0.00100021
0.0010002
0.00100019
0.00100018
0.00100018
0.00100017
0.00100017
0.00100016
0.00100016
0.00100016
0.00100015
0.00100015
0.00100015
0.00100015
0.00100014
0.00100014
0.00100014
0.00100014
0.00100014
0.00100014
0.00100014
0.00100014
0.00100013
0.00100013
0.00100013
0.00100013
0.00100013
0.00100013
0.00100013
0.00100013
0.00100013
0.00100013
0.00100013
0.00100013
0.00100013
0.00100013
0.00100013
0.00100013
0.00100013
0.00100013
0.00100013
0.00100013
0.00100013
0.00100013
0.00100013
0.00100013
0.00100013
0.00100013
0.00100013
0.00100013
0.00100013
0.00100012
0.00100012
0.00100012
0.00100012
0.00100012
0.00100012
0.00100012
0.00100012
0.00100012
0.00100012
0.00100012
0.00100012
0.00100012
0.00100012
0.00100012
0.00100012
0.00100012
0.00100012
0.00100012
0.00100012
0.00100012
0.00100012
0.00100012
0.00100012
0.00100012
0.00100012
0.00100012
0.00100012
0.00100012
0.00100012
0.00100012
0.00100012
0.00100012
0.00100012
0.00100012
0.00100012
0.00100012
0.00100012
0.00100012
0.00100012
0.00100012
0.00100011
0.00100011
0.00100011
0.00100011
0.00100011
0.00100011
0.00100011
0.00100011
0.00100011
0.00100011
0.00100011
0.00100011
0.00100011
0.00100011
0.00100011
0.00100011
0.00100011
0.00100011
0.00100011
0.0010001
0.0010001
0.0010001
0.0010001
0.0010001
0.0010001
0.0010001
0.0010001
0.0010001
0.0010001
0.0010001
0.0010001
0.0010001
0.0010001
0.0010001
0.0010001
0.0010001
0.0010001
0.0010001
0.0010001
0.0010001
0.0010001
0.0010001
0.0010001
0.0010001
0.0010001
0.0010001
0.0010001
0.0010001
0.0010001
0.0010001
0.0010001
0.0010001
0.0010001
0.0010001
0.0010001
0.0010001
0.0010001
0.0010001
0.0010001
0.0010001
0.0010001
0.0010001
0.0010001
0.0010001
0.0010001
0.00100009
0.00100009
0.00100009
0.00100009
0.00100009
0.00100009
0.00100009
0.00100009
0.00100009
0.00100009
0.00100009
0.00100009
0.00100009
0.00100009
0.00100009
0.00100009
0.00100009
0.00100009
0.00100009
0.00100009
0.00100009
0.00100009
0.00100009
0.00100009
0.00100009
0.00100009
0.00100009
0.00100009
0.00100009
0.00100009
0.00100009
0.00100009
0.00100009
0.00100009
0.00100009
0.00100009
0.00100009
0.00100009
0.00100009
0.00100009
0.00100009
0.00100009
0.00100009
0.00100009
0.00100009
0.00100009
0.00100009
0.00100009
0.00100009
0.00100009
0.00100009
0.00100009
0.00100009
0.00100009
0.00100009
0.00100009
0.00100009
0.00100009
0.00100009
0.00100009
0.00100009
0.00100009
0.00100009
0.00100009
0.00100009
0.00100009
0.00100009
0.00100009
0.00100009
0.00100009
0.00100009
0.00100009
0.00100009
0.00100009
0.00100009
0.00100009
0.00100009
0.00100009
0.00100009
0.00100009
0.00100009
0.00100009
0.00100009
0.0010001
0.0010001
0.00100009
0.00100009
0.00100009
0.00100009
0.00100009
0.00100009
0.00100009
0.00100009
0.00100009
0.00100009
0.00100009
0.00100009
0.00100009
0.00100009
0.00100009
0.00100009
0.00100009
0.00100009
0.00100009
0.00100009
0.00100009
0.00100009
0.00100009
0.00100009
0.00100009
0.00100009
0.00100009
0.00100009
0.00100009
0.00100009
0.00100009
0.00100009
0.00100009
0.00100009
0.00100009
0.00100009
0.00100009
0.00100009
0.00100009
0.00100009
0.00100009
0.00100009
0.00100009
0.00100009
0.00100009
0.00100009
0.00100009
0.00100009
0.00100009
0.00100009
0.00100009
0.00100009
0.00100009
0.00100009
0.00100009
0.00100009
0.00100009
0.00100009
0.00100009
0.00100009
0.00100009
0.00100009
0.00100009
0.00100009
0.00100009
0.00100009
0.00100009
0.00100009
0.00100009
0.00100009
0.00100009
0.00100009
0.00100009
0.00100009
0.00100009
0.0010001
0.00100009
0.00100009
0.00100009
0.00100009
0.00100009
0.0010001
0.00100009
0.00100009
0.00100009
0.00100009
0.00100009
0.0010001
0.0010001
0.00166115
0.00141974
0.00112235
0.00105495
0.00105245
0.001054
0.00105495
0.00105607
0.00105708
0.00105798
0.00105872
0.00105943
0.00106009
0.00106073
0.00106133
0.00106179
0.00106214
0.0010624
0.00106267
0.00106292
0.00106313
0.00106321
0.00106325
0.00106335
0.00106348
0.00106362
0.00106367
0.00106367
0.00106373
0.00106372
0.00106361
0.00106369
0.00106372
0.00106339
0.0010628
0.00106218
0.00106156
0.00106101
0.00106061
0.00106013
0.00105969
0.0010596
0.00105975
0.00105981
0.00105987
0.00106003
0.00106015
0.00106015
0.00105998
0.00105974
0.00105956
0.0010595
0.00105919
0.00105884
0.00105879
0.00105874
0.00105869
0.00105869
0.00105886
0.00105905
0.00105909
0.00105899
0.00105873
0.00105853
0.0010584
0.00105817
0.00105788
0.00105754
0.00105712
0.00105659
0.00105581
0.00105453
0.00105277
0.00105062
0.00104793
0.00104451
0.00104053
0.00103634
0.00103224
0.00102817
0.00102421
0.00102196
0.00102173
0.00103289
0.00104379
0.00106247
0.00109107
0.00111368
0.00115796
0.00118733
0.001324
0.00129242
0.00114815
0.00112846
0.00103526
0.00103647
0.00101032
0.00100961
0.00101407
0.0010144
0.00101148
0.00101232
0.00101167
0.00101117
0.00101123
0.00101143
0.00101162
0.00101169
0.00101155
0.00101211
0.00101191
0.00101376
0.00101321
0.00101068
0.00101046
0.00100932
0.00100909
0.0010088
0.00100854
0.00100842
0.00100827
0.00100808
0.00100807
0.00100795
0.00100773
0.00100757
0.00100776
0.00100758
0.00100878
0.00100851
0.00100696
0.00100687
0.00100624
0.00100617
0.00100601
0.001006
0.00100585
0.00100558
0.00100545
0.00100533
0.0010052
0.00100509
0.00100497
0.00100482
0.00100469
0.00100456
0.00100444
0.00100432
0.0010042
0.00100409
0.00100397
0.00100386
0.00100375
0.00100364
0.00100354
0.00100344
0.00100334
0.00100324
0.00100315
0.00100305
0.00100297
0.00100288
0.00100279
0.0010027
0.00100261
0.00100253
0.00100245
0.00100237
0.0010023
0.00100223
0.00100215
0.00100207
0.001002
0.00100193
0.00100187
0.0010018
0.00100173
0.00100167
0.0010016
0.00100154
0.00100148
0.00100142
0.00100136
0.0010013
0.00100125
0.0010012
0.00100115
0.0010011
0.00100105
0.001001
0.00100095
0.0010009
0.00100086
0.00100082
0.00100077
0.00100073
0.00100069
0.00100065
0.00100062
0.00100058
0.00100054
0.0010005
0.00100047
0.00100044
0.00100041
0.00100037
0.00100034
0.00100031
0.00100029
0.00100026
0.00100024
0.00100021
0.00100019
0.00100017
0.00100016
0.00100014
0.00100013
0.00100011
0.0010001
0.00100009
0.00100008
0.00100007
0.00100006
0.00100005
0.00100005
0.00100004
0.00100004
0.00100003
0.00100003
0.00100002
0.00100002
0.00100002
0.00100001
0.00100001
0.00100001
0.00100001
0.001
0.001
0.001
0.000999998
0.000999997
0.000999995
0.000999994
0.000999993
0.000999992
0.00099999
0.000999989
0.000999989
0.000999989
0.000999989
0.000999988
0.000999988
0.000999988
0.000999988
0.000999987
0.000999986
0.000999985
0.000999985
0.000999985
0.000999984
0.000999983
0.000999982
0.000999981
0.00099998
0.000999978
0.000999977
0.000999976
0.000999976
0.000999975
0.000999974
0.000999973
0.000999973
0.000999972
0.000999971
0.000999969
0.000999968
0.000999966
0.000999965
0.000999963
0.000999962
0.000999961
0.00099996
0.000999959
0.000999958
0.000999958
0.000999958
0.000999957
0.000999957
0.000999957
0.000999956
0.000999956
0.000999955
0.000999953
0.000999952
0.00099995
0.000999949
0.000999947
0.000999946
0.000999945
0.000999944
0.000999943
0.000999942
0.000999941
0.000999941
0.000999941
0.000999941
0.00099994
0.00099994
0.00099994
0.000999939
0.000999939
0.000999938
0.000999937
0.000999936
0.000999935
0.000999935
0.000999934
0.000999934
0.000999934
0.000999934
0.000999934
0.000999934
0.000999933
0.000999933
0.000999932
0.000999932
0.000999932
0.000999931
0.00099993
0.00099993
0.00099993
0.00099993
0.000999929
0.000999929
0.000999929
0.00099993
0.00099993
0.000999929
0.000999929
0.000999928
0.000999928
0.000999927
0.000999927
0.000999927
0.000999926
0.000999926
0.000999926
0.000999926
0.000999926
0.000999926
0.000999926
0.000999926
0.000999925
0.000999925
0.000999925
0.000999925
0.000999924
0.000999924
0.000999924
0.000999924
0.000999924
0.000999924
0.000999924
0.000999924
0.000999923
0.000999923
0.000999923
0.000999923
0.000999923
0.000999923
0.000999923
0.000999922
0.000999922
0.000999922
0.000999922
0.000999922
0.000999922
0.000999922
0.000999922
0.000999922
0.000999922
0.000999922
0.000999921
0.000999921
0.000999921
0.000999921
0.000999921
0.000999921
0.000999921
0.000999921
0.000999921
0.000999921
0.000999921
0.00099992
0.00099992
0.00099992
0.00099992
0.00099992
0.00099992
0.00099992
0.00099992
0.00099992
0.00099992
0.00099992
0.00099992
0.00099992
0.00099992
0.000999919
0.000999919
0.000999919
0.000999919
0.000999919
0.000999919
0.000999919
0.000999919
0.000999919
0.000999919
0.000999919
0.000999919
0.000999919
0.000999919
0.000999919
0.000999919
0.000999919
0.000999919
0.000999919
0.000999919
0.000999919
0.000999919
0.000999919
0.000999919
0.000999919
0.000999919
0.000999919
0.000999919
0.000999918
0.000999918
0.000999918
0.000999918
0.000999918
0.000999918
0.000999918
0.000999918
0.000999918
0.000999918
0.000999918
0.000999918
0.000999918
0.000999918
0.000999918
0.000999918
0.000999918
0.000999918
0.00099992
0.00099992
0.00099992
0.000999929
0.000999926
0.000999919
0.000999918
0.000999918
0.000999918
0.000999917
0.000999917
0.000999917
0.000999917
0.000999917
0.000999917
0.000999917
0.000999917
0.000999916
0.000999916
0.000999916
0.000999916
0.000999916
0.000999916
0.000999916
0.000999916
0.000999916
0.000999916
0.000999916
0.000999916
0.000999916
0.000999916
0.000999916
0.000999916
0.000999917
0.000999917
0.000999917
0.000999918
0.000999918
0.000999918
0.000999918
0.000999918
0.000999918
0.000999918
0.000999918
0.000999918
0.000999919
0.000999919
0.000999919
0.000999919
0.000999919
0.000999919
0.000999919
0.00099992
0.00099992
0.00099992
0.00099992
0.000999921
0.000999921
0.000999921
0.000999921
0.000999921
0.000999921
0.000999921
0.000999921
0.000999921
0.000999921
0.000999921
0.000999922
0.000999922
0.000999922
0.000999922
0.000999922
0.000999921
0.000999921
0.000999921
0.000999921
0.000999921
0.000999921
0.000999921
0.000999921
0.000999921
0.000999922
0.000999923
0.000999921
0.000999923
0.000999921
0.000999921
0.000999921
0.000999926
0.000999921
0.000999921
0.000999921
0.000999921
0.000999921
0.000999921
0.000999927
0.000999924
0.00170454
0.0014249