/*--------------------------------*- C++ -*----------------------------------*\
| =========                 |                                                 |
| \\      /  F ield         | OpenFOAM: The Open Source CFD Toolbox           |
|  \\    /   O peration     | Version:  v2006                                 |
|   \\  /    A nd           | Website:  www.openfoam.com                      |
|    \\/     M anipulation  |                                                 |
\*---------------------------------------------------------------------------*/
FoamFile
{
    version     2.0;
    format      ascii;
    class       volScalarField;
    location    "1.1";
    object      p;
}
// * * * * * * * * * * * * * * * * * * * * * * * * * * * * * * * * * * * * * //

dimensions      [1 -1 -2 0 0 0 0];


internalField   nonuniform List<scalar> 
33000
(
7738.79
7736.94
7735.13
7733.36
7731.59
7729.84
7728.09
7726.36
7724.64
7722.94
7721.26
7719.6
7717.96
7716.35
7714.76
7713.19
7711.66
7710.15
7708.67
7707.22
7705.8
7704.42
7703.08
7701.77
7700.49
7699.25
7698.05
7696.89
7695.76
7694.67
7693.62
7692.6
7691.63
7690.69
7689.79
7688.93
7688.11
7687.32
7686.57
7685.86
7685.19
7684.55
7683.95
7683.39
7682.87
7682.38
7681.93
7681.51
7681.13
7680.78
7680.46
7680.18
7679.93
7679.7
7679.51
7679.34
7679.2
7679.09
7679.01
7678.95
7678.92
7678.91
7678.93
7678.98
7679.04
7679.13
7679.24
7679.36
7679.51
7679.67
7679.84
7680.03
7680.24
7680.45
7680.67
7680.89
7681.11
7681.3
7681.45
7681.92
7682.27
7682.65
7683.04
7683.43
7683.86
7684.33
7684.79
7685.28
7685.77
7686.27
7686.79
7687.32
7687.86
7688.41
7688.97
7689.54
7690.1
7690.67
7691.21
7691.82
7692.49
7693.14
7693.79
7694.45
7695.11
7695.78
7696.45
7697.13
7697.8
7698.48
7699.16
7699.83
7700.51
7701.19
7701.86
7702.53
7703.17
7703.85
7704.58
7705.27
7705.96
7706.65
7707.33
7708.01
7708.68
7709.34
7709.99
7710.64
7711.28
7711.92
7712.55
7713.17
7713.78
7714.4
7715
7715.6
7716.19
7716.78
7717.36
7717.94
7718.51
7719.07
7719.62
7720.17
7720.71
7721.24
7721.76
7722.28
7722.79
7723.28
7723.78
7724.26
7724.73
7725.2
7725.65
7726.1
7726.54
7726.97
7727.39
7727.81
7728.22
7728.61
7729
7729.39
7729.76
7730.13
7730.49
7730.84
7731.19
7731.52
7731.85
7732.17
7732.49
7732.8
7733.1
7733.39
7733.68
7733.96
7734.23
7734.5
7734.76
7735.01
7735.26
7735.5
7735.74
7735.97
7736.19
7736.41
7736.62
7736.82
7737.02
7737.22
7737.41
7737.59
7737.77
7737.94
7738.11
7738.28
7738.44
7738.59
7738.74
7738.88
7739.03
7739.16
7739.29
7739.42
7739.55
7739.67
7739.78
7739.9
7740.01
7740.11
7740.21
7740.31
7740.41
7740.5
7740.59
7740.67
7740.76
7740.84
7740.92
7740.99
7741.06
7741.13
7741.2
7741.26
7741.32
7741.38
7741.44
7741.5
7741.55
7741.6
7741.65
7741.7
7741.74
7741.79
7741.83
7741.87
7741.91
7741.94
7741.98
7742.01
7742.05
7742.08
7742.11
7742.14
7742.16
7742.19
7742.22
7742.24
7742.26
7742.28
7742.31
7742.33
7742.34
7742.36
7742.38
7742.4
7742.41
7742.43
7742.44
7742.45
7742.46
7742.48
7742.49
7742.5
7742.51
7742.52
7742.52
7742.53
7742.54
7742.55
7742.55
7742.56
7742.56
7742.57
7742.57
7742.58
7742.58
7742.58
7742.59
7742.59
7742.59
7742.59
7742.59
7742.59
7742.6
7742.6
7742.6
7742.6
7742.6
7742.6
7742.59
7742.59
7742.59
7742.59
7742.59
7742.59
7742.59
7742.58
7742.58
7742.58
7742.58
7742.57
7742.57
7742.57
7742.56
7742.56
7742.56
7742.55
7742.55
7742.55
7742.54
7742.54
7742.53
7742.53
7742.53
7742.52
7742.52
7742.51
7742.51
7742.5
7742.5
7742.49
7742.49
7742.48
7742.48
7742.48
7742.47
7742.47
7742.46
7742.46
7742.45
7742.45
7742.44
7742.44
7742.43
7742.43
7742.42
7742.41
7742.41
7742.4
7742.4
7742.39
7742.39
7742.38
7742.38
7742.37
7742.37
7742.36
7742.36
7742.35
7742.35
7742.34
7742.34
7742.34
7742.33
7742.33
7742.32
7742.32
7742.31
7742.31
7742.3
7742.3
7742.29
7742.29
7742.29
7742.28
7742.28
7742.27
7742.27
7742.26
7742.26
7742.26
7742.25
7742.25
7742.24
7742.24
7742.24
7742.23
7742.23
7742.23
7742.22
7742.22
7742.22
7742.21
7742.21
7742.21
7742.2
7742.2
7742.2
7742.19
7742.19
7742.19
7742.18
7742.18
7742.18
7742.18
7742.17
7742.17
7742.17
7742.17
7742.16
7742.16
7742.16
7742.16
7742.15
7742.15
7742.15
7742.15
7742.15
7742.14
7742.14
7742.14
7742.14
7742.14
7742.13
7742.13
7742.13
7742.13
7742.13
7742.13
7742.12
7742.12
7742.12
7742.12
7742.12
7742.12
7742.12
7742.11
7742.11
7742.11
7742.11
7742.11
7742.11
7742.11
7742.11
7742.1
7742.1
7742.1
7742.1
7742.1
7742.1
7742.1
7742.1
7742.1
7742.1
7742.1
7742.09
7742.09
7742.09
7742.09
7742.09
7742.09
7742.09
7742.09
7742.09
7742.09
7742.09
7742.09
7742.09
7742.09
7742.08
7742.08
7742.08
7742.08
7742.08
7742.08
7742.08
7742.08
7742.08
7742.08
7742.08
7742.08
7742.08
7742.08
7742.08
7742.08
7742.08
7742.08
7742.08
7742.08
7742.08
7742.08
7742.08
7742.08
7742.08
7742.07
7742.07
7742.07
7742.07
7742.07
7742.07
7742.07
7742.07
7742.07
7742.07
7742.07
7742.07
7742.07
7742.07
7742.07
7742.07
7742.07
7742.07
7742.07
7742.07
7742.07
7742.07
7742.07
7742.07
7742.07
7742.07
7742.07
7742.07
7742.07
7742.07
7742.07
7742.07
7742.07
7742.07
7742.07
7742.07
7742.07
7742.07
7742.07
7742.07
7742.07
7742.07
7742.07
7742.07
7742.07
7742.07
7742.07
7742.07
7742.07
7742.07
7742.07
7742.07
7742.07
7742.07
7742.07
7742.07
7742.07
7742.07
7742.06
7742.06
7742.06
7742.06
7742.06
7542.53
7540.72
7538.92
7537.15
7535.37
7533.61
7531.86
7530.13
7528.41
7526.7
7525.02
7523.36
7521.72
7520.1
7518.51
7516.95
7515.41
7513.9
7512.42
7510.97
7509.56
7508.18
7506.83
7505.52
7504.24
7503.01
7501.8
7500.64
7499.51
7498.42
7497.36
7496.35
7495.37
7494.44
7493.54
7492.68
7491.85
7491.07
7490.32
7489.61
7488.93
7488.29
7487.69
7487.13
7486.6
7486.11
7485.66
7485.24
7484.86
7484.51
7484.19
7483.91
7483.66
7483.44
7483.24
7483.08
7482.95
7482.84
7482.77
7482.71
7482.69
7482.68
7482.71
7482.75
7482.82
7482.91
7483.02
7483.16
7483.3
7483.47
7483.65
7483.85
7484.05
7484.28
7484.51
7484.75
7484.99
7485.23
7485.49
7485.75
7485.97
7486.2
7486.79
7487.25
7487.72
7488.14
7488.59
7489.04
7489.52
7490.06
7490.58
7491.12
7491.67
7492.22
7492.78
7493.36
7493.93
7494.52
7495.11
7495.71
7496.32
7496.91
7497.56
7498.26
7498.93
7499.6
7500.27
7500.95
7501.62
7502.3
7502.98
7503.67
7504.35
7505.03
7505.71
7506.39
7507.07
7507.74
7508.42
7509.07
7509.76
7510.48
7511.16
7511.83
7512.5
7513.17
7513.82
7514.47
7515.11
7515.75
7516.38
7517
7517.62
7518.23
7518.84
7519.44
7520.03
7520.62
7521.2
7521.77
7522.34
7522.9
7523.46
7524
7524.54
7525.07
7525.6
7526.11
7526.62
7527.12
7527.61
7528.09
7528.56
7529.03
7529.48
7529.93
7530.37
7530.8
7531.22
7531.64
7532.04
7532.44
7532.83
7533.22
7533.59
7533.96
7534.32
7534.67
7535.01
7535.35
7535.68
7536
7536.31
7536.62
7536.92
7537.21
7537.5
7537.78
7538.05
7538.32
7538.58
7538.83
7539.08
7539.32
7539.55
7539.78
7540.01
7540.22
7540.43
7540.64
7540.84
7541.03
7541.22
7541.41
7541.58
7541.76
7541.93
7542.09
7542.25
7542.4
7542.55
7542.7
7542.84
7542.97
7543.11
7543.23
7543.36
7543.48
7543.59
7543.71
7543.81
7543.92
7544.02
7544.12
7544.22
7544.31
7544.4
7544.48
7544.56
7544.64
7544.72
7544.8
7544.87
7544.94
7545
7545.07
7545.13
7545.19
7545.25
7545.3
7545.35
7545.4
7545.45
7545.5
7545.55
7545.59
7545.63
7545.67
7545.71
7545.75
7545.78
7545.82
7545.85
7545.88
7545.91
7545.94
7545.97
7545.99
7546.02
7546.04
7546.06
7546.09
7546.11
7546.13
7546.15
7546.16
7546.18
7546.2
7546.21
7546.23
7546.24
7546.25
7546.27
7546.28
7546.29
7546.3
7546.31
7546.32
7546.32
7546.33
7546.34
7546.35
7546.35
7546.36
7546.36
7546.37
7546.37
7546.38
7546.38
7546.38
7546.39
7546.39
7546.39
7546.39
7546.39
7546.39
7546.39
7546.4
7546.4
7546.4
7546.4
7546.39
7546.39
7546.39
7546.39
7546.39
7546.39
7546.39
7546.38
7546.38
7546.38
7546.38
7546.38
7546.37
7546.37
7546.37
7546.36
7546.36
7546.36
7546.35
7546.35
7546.34
7546.34
7546.34
7546.33
7546.33
7546.32
7546.32
7546.32
7546.31
7546.31
7546.3
7546.3
7546.29
7546.29
7546.28
7546.28
7546.27
7546.27
7546.26
7546.26
7546.25
7546.25
7546.24
7546.24
7546.23
7546.23
7546.22
7546.22
7546.21
7546.21
7546.2
7546.2
7546.19
7546.19
7546.18
7546.18
7546.17
7546.17
7546.16
7546.16
7546.15
7546.15
7546.14
7546.14
7546.13
7546.13
7546.12
7546.12
7546.12
7546.11
7546.11
7546.1
7546.1
7546.09
7546.09
7546.08
7546.08
7546.08
7546.07
7546.07
7546.06
7546.06
7546.06
7546.05
7546.05
7546.04
7546.04
7546.04
7546.03
7546.03
7546.03
7546.02
7546.02
7546.02
7546.01
7546.01
7546.01
7546
7546
7546
7545.99
7545.99
7545.99
7545.98
7545.98
7545.98
7545.98
7545.97
7545.97
7545.97
7545.97
7545.96
7545.96
7545.96
7545.96
7545.95
7545.95
7545.95
7545.95
7545.94
7545.94
7545.94
7545.94
7545.94
7545.94
7545.93
7545.93
7545.93
7545.93
7545.93
7545.93
7545.92
7545.92
7545.92
7545.92
7545.92
7545.92
7545.92
7545.91
7545.91
7545.91
7545.91
7545.91
7545.91
7545.91
7545.91
7545.9
7545.9
7545.9
7545.9
7545.9
7545.9
7545.9
7545.9
7545.9
7545.9
7545.9
7545.89
7545.89
7545.89
7545.89
7545.89
7545.89
7545.89
7545.89
7545.89
7545.89
7545.89
7545.89
7545.89
7545.89
7545.88
7545.88
7545.88
7545.88
7545.88
7545.88
7545.88
7545.88
7545.88
7545.88
7545.88
7545.88
7545.88
7545.88
7545.88
7545.88
7545.88
7545.88
7545.88
7545.88
7545.88
7545.88
7545.88
7545.88
7545.88
7545.88
7545.87
7545.87
7545.87
7545.87
7545.87
7545.87
7545.87
7545.87
7545.87
7545.87
7545.87
7545.87
7545.87
7545.87
7545.87
7545.87
7545.87
7545.87
7545.87
7545.87
7545.87
7545.87
7545.87
7545.87
7545.87
7545.87
7545.87
7545.87
7545.87
7545.87
7545.87
7545.87
7545.87
7545.87
7545.87
7545.87
7545.87
7545.87
7545.87
7545.87
7545.87
7545.87
7545.87
7545.87
7545.87
7545.87
7545.87
7545.87
7545.87
7545.87
7545.87
7545.87
7545.87
7545.87
7545.86
7545.86
7545.86
7545.86
7545.86
7545.86
7545.86
7545.86
7346.21
7344.37
7342.57
7340.8
7339.04
7337.28
7335.54
7333.81
7332.09
7330.39
7328.71
7327.05
7325.41
7323.79
7322.2
7320.63
7319.09
7317.58
7316.1
7314.65
7313.23
7311.85
7310.5
7309.18
7307.9
7306.66
7305.46
7304.29
7303.16
7302.06
7301.01
7299.99
7299.01
7298.08
7297.18
7296.32
7295.49
7294.71
7293.96
7293.25
7292.57
7291.94
7291.34
7290.77
7290.25
7289.76
7289.31
7288.89
7288.51
7288.16
7287.85
7287.57
7287.32
7287.11
7286.93
7286.77
7286.64
7286.55
7286.47
7286.43
7286.41
7286.41
7286.44
7286.49
7286.57
7286.66
7286.78
7286.92
7287.07
7287.24
7287.43
7287.63
7287.85
7288.08
7288.32
7288.56
7288.82
7289.09
7289.38
7289.68
7289.99
7290.31
7290.63
7290.9
7291.17
7291.84
7292.35
7292.9
7293.38
7293.86
7294.35
7294.87
7295.44
7296
7296.58
7297.15
7297.74
7298.33
7298.94
7299.55
7300.18
7300.81
7301.44
7302.08
7302.7
7303.37
7304.08
7304.77
7305.45
7306.13
7306.82
7307.5
7308.19
7308.88
7309.57
7310.25
7310.93
7311.62
7312.3
7312.98
7313.66
7314.33
7314.97
7315.64
7316.34
7317
7317.66
7318.31
7318.95
7319.59
7320.22
7320.85
7321.47
7322.08
7322.69
7323.29
7323.89
7324.47
7325.06
7325.63
7326.2
7326.76
7327.31
7327.86
7328.4
7328.93
7329.45
7329.97
7330.47
7330.97
7331.46
7331.94
7332.41
7332.88
7333.33
7333.78
7334.22
7334.65
7335.07
7335.49
7335.89
7336.29
7336.68
7337.06
7337.44
7337.8
7338.16
7338.51
7338.86
7339.19
7339.52
7339.84
7340.15
7340.46
7340.76
7341.05
7341.34
7341.62
7341.89
7342.16
7342.42
7342.67
7342.91
7343.15
7343.39
7343.62
7343.84
7344.05
7344.26
7344.47
7344.67
7344.86
7345.05
7345.23
7345.41
7345.58
7345.75
7345.91
7346.07
7346.23
7346.37
7346.52
7346.66
7346.79
7346.93
7347.05
7347.18
7347.3
7347.41
7347.52
7347.63
7347.74
7347.84
7347.94
7348.03
7348.12
7348.21
7348.3
7348.38
7348.46
7348.53
7348.61
7348.68
7348.75
7348.81
7348.88
7348.94
7349
7349.06
7349.11
7349.16
7349.21
7349.26
7349.31
7349.35
7349.4
7349.44
7349.48
7349.52
7349.55
7349.59
7349.62
7349.65
7349.69
7349.72
7349.74
7349.77
7349.8
7349.82
7349.85
7349.87
7349.89
7349.91
7349.93
7349.95
7349.97
7349.98
7350
7350.01
7350.03
7350.04
7350.05
7350.07
7350.08
7350.09
7350.1
7350.11
7350.12
7350.13
7350.13
7350.14
7350.15
7350.15
7350.16
7350.16
7350.17
7350.17
7350.18
7350.18
7350.18
7350.19
7350.19
7350.19
7350.19
7350.19
7350.19
7350.19
7350.19
7350.19
7350.19
7350.19
7350.19
7350.19
7350.19
7350.19
7350.19
7350.19
7350.19
7350.18
7350.18
7350.18
7350.18
7350.17
7350.17
7350.17
7350.17
7350.16
7350.16
7350.15
7350.15
7350.15
7350.14
7350.14
7350.14
7350.13
7350.13
7350.12
7350.12
7350.11
7350.11
7350.11
7350.1
7350.1
7350.09
7350.09
7350.08
7350.08
7350.07
7350.07
7350.06
7350.06
7350.05
7350.05
7350.04
7350.04
7350.03
7350.03
7350.02
7350.02
7350.01
7350.01
7350
7350
7349.99
7349.99
7349.98
7349.98
7349.97
7349.97
7349.96
7349.96
7349.95
7349.95
7349.94
7349.94
7349.93
7349.93
7349.92
7349.92
7349.91
7349.91
7349.91
7349.9
7349.9
7349.89
7349.89
7349.88
7349.88
7349.88
7349.87
7349.87
7349.86
7349.86
7349.85
7349.85
7349.85
7349.84
7349.84
7349.84
7349.83
7349.83
7349.82
7349.82
7349.82
7349.81
7349.81
7349.81
7349.8
7349.8
7349.8
7349.8
7349.79
7349.79
7349.79
7349.78
7349.78
7349.78
7349.78
7349.77
7349.77
7349.77
7349.76
7349.76
7349.76
7349.76
7349.76
7349.75
7349.75
7349.75
7349.75
7349.74
7349.74
7349.74
7349.74
7349.74
7349.74
7349.73
7349.73
7349.73
7349.73
7349.73
7349.73
7349.72
7349.72
7349.72
7349.72
7349.72
7349.72
7349.72
7349.71
7349.71
7349.71
7349.71
7349.71
7349.71
7349.71
7349.71
7349.7
7349.7
7349.7
7349.7
7349.7
7349.7
7349.7
7349.7
7349.7
7349.7
7349.7
7349.69
7349.69
7349.69
7349.69
7349.69
7349.69
7349.69
7349.69
7349.69
7349.69
7349.69
7349.69
7349.69
7349.69
7349.68
7349.68
7349.68
7349.68
7349.68
7349.68
7349.68
7349.68
7349.68
7349.68
7349.68
7349.68
7349.68
7349.68
7349.68
7349.68
7349.68
7349.68
7349.68
7349.68
7349.68
7349.68
7349.68
7349.68
7349.68
7349.68
7349.67
7349.67
7349.67
7349.67
7349.67
7349.67
7349.67
7349.67
7349.67
7349.67
7349.67
7349.67
7349.67
7349.67
7349.67
7349.67
7349.67
7349.67
7349.67
7349.67
7349.67
7349.67
7349.67
7349.67
7349.67
7349.67
7349.67
7349.67
7349.67
7349.67
7349.67
7349.67
7349.67
7349.67
7349.67
7349.67
7349.67
7349.67
7349.67
7349.67
7349.67
7349.67
7349.67
7349.67
7349.67
7349.67
7349.67
7349.67
7349.67
7349.67
7349.67
7349.67
7349.66
7349.66
7349.66
7349.66
7349.66
7349.66
7349.66
7349.66
7349.66
7349.66
7150.11
7148.24
7146.42
7144.62
7142.83
7141.06
7139.29
7137.54
7135.81
7134.09
7132.4
7130.72
7129.07
7127.44
7125.84
7124.26
7122.71
7121.19
7119.7
7118.25
7116.82
7115.43
7114.07
7112.75
7111.47
7110.22
7109
7107.83
7106.69
7105.6
7104.54
7103.52
7102.53
7101.59
7100.68
7099.82
7099
7098.21
7097.47
7096.76
7096.09
7095.45
7094.86
7094.3
7093.78
7093.3
7092.86
7092.45
7092.08
7091.74
7091.43
7091.16
7090.92
7090.72
7090.54
7090.4
7090.28
7090.19
7090.13
7090.09
7090.08
7090.1
7090.13
7090.19
7090.27
7090.38
7090.5
7090.64
7090.8
7090.98
7091.18
7091.39
7091.61
7091.85
7092.1
7092.36
7092.64
7092.93
7093.23
7093.54
7093.87
7094.22
7094.59
7094.96
7095.34
7095.74
7096.12
7096.44
7096.78
7097.53
7098.1
7098.68
7099.21
7099.75
7100.32
7100.93
7101.53
7102.14
7102.75
7103.37
7104
7104.64
7105.28
7105.94
7106.59
7107.26
7107.93
7108.59
7109.24
7109.92
7110.65
7111.34
7112.04
7112.73
7113.42
7114.11
7114.8
7115.49
7116.17
7116.85
7117.53
7118.21
7118.88
7119.54
7120.2
7120.83
7121.49
7122.16
7122.81
7123.45
7124.09
7124.71
7125.34
7125.95
7126.56
7127.16
7127.76
7128.35
7128.93
7129.51
7130.07
7130.63
7131.19
7131.73
7132.27
7132.8
7133.32
7133.84
7134.34
7134.84
7135.33
7135.81
7136.28
7136.75
7137.2
7137.65
7138.09
7138.52
7138.94
7139.35
7139.76
7140.16
7140.55
7140.93
7141.3
7141.67
7142.02
7142.38
7142.72
7143.05
7143.38
7143.7
7144.01
7144.32
7144.62
7144.91
7145.2
7145.47
7145.75
7146.01
7146.27
7146.52
7146.77
7147
7147.24
7147.46
7147.69
7147.9
7148.11
7148.31
7148.51
7148.7
7148.89
7149.07
7149.25
7149.42
7149.59
7149.75
7149.91
7150.06
7150.21
7150.35
7150.49
7150.63
7150.76
7150.88
7151.01
7151.12
7151.24
7151.35
7151.46
7151.56
7151.66
7151.76
7151.85
7151.94
7152.03
7152.12
7152.2
7152.28
7152.35
7152.43
7152.5
7152.57
7152.63
7152.69
7152.75
7152.81
7152.87
7152.92
7152.98
7153.03
7153.08
7153.12
7153.17
7153.21
7153.25
7153.29
7153.33
7153.36
7153.4
7153.43
7153.46
7153.49
7153.52
7153.55
7153.58
7153.6
7153.63
7153.65
7153.67
7153.7
7153.72
7153.74
7153.75
7153.77
7153.79
7153.8
7153.82
7153.83
7153.85
7153.86
7153.87
7153.88
7153.89
7153.9
7153.91
7153.92
7153.93
7153.94
7153.94
7153.95
7153.96
7153.96
7153.97
7153.97
7153.97
7153.98
7153.98
7153.98
7153.99
7153.99
7153.99
7153.99
7153.99
7153.99
7153.99
7154
7154
7154
7153.99
7153.99
7153.99
7153.99
7153.99
7153.99
7153.99
7153.99
7153.98
7153.98
7153.98
7153.98
7153.97
7153.97
7153.97
7153.96
7153.96
7153.96
7153.95
7153.95
7153.95
7153.94
7153.94
7153.93
7153.93
7153.93
7153.92
7153.92
7153.91
7153.91
7153.9
7153.9
7153.89
7153.89
7153.89
7153.88
7153.88
7153.87
7153.87
7153.86
7153.86
7153.85
7153.85
7153.84
7153.84
7153.83
7153.83
7153.82
7153.82
7153.81
7153.81
7153.8
7153.8
7153.79
7153.79
7153.78
7153.78
7153.77
7153.77
7153.76
7153.76
7153.75
7153.75
7153.74
7153.74
7153.73
7153.73
7153.72
7153.72
7153.71
7153.71
7153.7
7153.7
7153.7
7153.69
7153.69
7153.68
7153.68
7153.67
7153.67
7153.67
7153.66
7153.66
7153.65
7153.65
7153.65
7153.64
7153.64
7153.63
7153.63
7153.63
7153.62
7153.62
7153.62
7153.61
7153.61
7153.61
7153.6
7153.6
7153.6
7153.59
7153.59
7153.59
7153.59
7153.58
7153.58
7153.58
7153.57
7153.57
7153.57
7153.57
7153.56
7153.56
7153.56
7153.56
7153.55
7153.55
7153.55
7153.55
7153.55
7153.54
7153.54
7153.54
7153.54
7153.54
7153.53
7153.53
7153.53
7153.53
7153.53
7153.53
7153.52
7153.52
7153.52
7153.52
7153.52
7153.52
7153.52
7153.51
7153.51
7153.51
7153.51
7153.51
7153.51
7153.51
7153.51
7153.51
7153.5
7153.5
7153.5
7153.5
7153.5
7153.5
7153.5
7153.5
7153.5
7153.5
7153.5
7153.49
7153.49
7153.49
7153.49
7153.49
7153.49
7153.49
7153.49
7153.49
7153.49
7153.49
7153.49
7153.49
7153.49
7153.48
7153.48
7153.48
7153.48
7153.48
7153.48
7153.48
7153.48
7153.48
7153.48
7153.48
7153.48
7153.48
7153.48
7153.48
7153.48
7153.48
7153.48
7153.48
7153.48
7153.48
7153.48
7153.48
7153.48
7153.48
7153.48
7153.48
7153.47
7153.47
7153.47
7153.47
7153.47
7153.47
7153.47
7153.47
7153.47
7153.47
7153.47
7153.47
7153.47
7153.47
7153.47
7153.47
7153.47
7153.47
7153.47
7153.47
7153.47
7153.47
7153.47
7153.47
7153.47
7153.47
7153.47
7153.47
7153.47
7153.47
7153.47
7153.47
7153.47
7153.47
7153.47
7153.47
7153.47
7153.47
7153.47
7153.47
7153.47
7153.47
7153.47
7153.47
7153.47
7153.47
7153.47
7153.47
7153.46
7153.46
7153.46
7153.46
7153.46
7153.46
7153.46
7153.46
7153.46
7153.46
7153.46
7153.46
7153.46
6953.91
6952.03
6950.19
6948.38
6946.58
6944.78
6943
6941.24
6939.49
6937.75
6936.04
6934.35
6932.69
6931.04
6929.43
6927.84
6926.28
6924.75
6923.25
6921.78
6920.34
6918.94
6917.57
6916.24
6914.94
6913.68
6912.46
6911.27
6910.13
6909.02
6907.96
6906.93
6905.94
6904.99
6904.08
6903.21
6902.38
6901.6
6900.85
6900.14
6899.48
6898.85
6898.26
6897.72
6897.21
6896.73
6896.3
6895.9
6895.54
6895.21
6894.92
6894.66
6894.44
6894.24
6894.08
6893.95
6893.84
6893.76
6893.72
6893.69
6893.69
6893.72
6893.77
6893.84
6893.93
6894.04
6894.17
6894.33
6894.5
6894.69
6894.89
6895.11
6895.35
6895.6
6895.87
6896.14
6896.44
6896.74
6897.06
6897.39
6897.74
6898.1
6898.47
6898.85
6899.25
6899.68
6900.1
6900.52
6900.95
6901.37
6901.73
6902.11
6902.92
6903.54
6904.15
6904.73
6905.31
6905.91
6906.56
6907.19
6907.83
6908.48
6909.12
6909.78
6910.44
6911.11
6911.79
6912.47
6913.14
6913.83
6914.51
6915.17
6915.86
6916.59
6917.29
6917.98
6918.68
6919.37
6920.06
6920.74
6921.42
6922.1
6922.77
6923.43
6924.1
6924.75
6925.4
6926.05
6926.67
6927.31
6927.97
6928.6
6929.23
6929.85
6930.46
6931.06
6931.65
6932.24
6932.83
6933.4
6933.97
6934.53
6935.08
6935.63
6936.17
6936.7
6937.22
6937.73
6938.24
6938.74
6939.22
6939.7
6940.18
6940.64
6941.09
6941.54
6941.98
6942.41
6942.83
6943.24
6943.65
6944.04
6944.43
6944.81
6945.19
6945.55
6945.91
6946.26
6946.6
6946.93
6947.26
6947.58
6947.89
6948.2
6948.5
6948.79
6949.07
6949.35
6949.62
6949.88
6950.14
6950.39
6950.63
6950.87
6951.1
6951.33
6951.55
6951.76
6951.97
6952.17
6952.37
6952.56
6952.75
6952.93
6953.1
6953.27
6953.44
6953.6
6953.76
6953.91
6954.06
6954.2
6954.34
6954.47
6954.6
6954.72
6954.85
6954.96
6955.08
6955.19
6955.29
6955.4
6955.5
6955.59
6955.69
6955.77
6955.86
6955.95
6956.03
6956.1
6956.18
6956.25
6956.32
6956.39
6956.45
6956.52
6956.58
6956.63
6956.69
6956.74
6956.8
6956.85
6956.89
6956.94
6956.98
6957.03
6957.07
6957.1
6957.14
6957.18
6957.21
6957.25
6957.28
6957.31
6957.34
6957.36
6957.39
6957.41
6957.44
6957.46
6957.48
6957.5
6957.52
6957.54
6957.56
6957.58
6957.59
6957.61
6957.62
6957.64
6957.65
6957.66
6957.68
6957.69
6957.7
6957.71
6957.72
6957.72
6957.73
6957.74
6957.75
6957.75
6957.76
6957.76
6957.77
6957.77
6957.78
6957.78
6957.78
6957.79
6957.79
6957.79
6957.79
6957.79
6957.79
6957.8
6957.8
6957.8
6957.8
6957.8
6957.8
6957.79
6957.79
6957.79
6957.79
6957.79
6957.79
6957.79
6957.78
6957.78
6957.78
6957.78
6957.77
6957.77
6957.77
6957.76
6957.76
6957.76
6957.75
6957.75
6957.75
6957.74
6957.74
6957.73
6957.73
6957.73
6957.72
6957.72
6957.71
6957.71
6957.7
6957.7
6957.69
6957.69
6957.68
6957.68
6957.67
6957.67
6957.66
6957.66
6957.65
6957.65
6957.64
6957.64
6957.63
6957.63
6957.62
6957.62
6957.61
6957.61
6957.6
6957.6
6957.59
6957.59
6957.58
6957.58
6957.57
6957.57
6957.56
6957.56
6957.55
6957.55
6957.54
6957.54
6957.54
6957.53
6957.53
6957.52
6957.52
6957.51
6957.51
6957.5
6957.5
6957.49
6957.49
6957.49
6957.48
6957.48
6957.47
6957.47
6957.46
6957.46
6957.46
6957.45
6957.45
6957.45
6957.44
6957.44
6957.43
6957.43
6957.43
6957.42
6957.42
6957.42
6957.41
6957.41
6957.41
6957.4
6957.4
6957.4
6957.39
6957.39
6957.39
6957.38
6957.38
6957.38
6957.38
6957.37
6957.37
6957.37
6957.37
6957.36
6957.36
6957.36
6957.36
6957.35
6957.35
6957.35
6957.35
6957.35
6957.34
6957.34
6957.34
6957.34
6957.34
6957.33
6957.33
6957.33
6957.33
6957.33
6957.33
6957.32
6957.32
6957.32
6957.32
6957.32
6957.32
6957.32
6957.31
6957.31
6957.31
6957.31
6957.31
6957.31
6957.31
6957.31
6957.31
6957.3
6957.3
6957.3
6957.3
6957.3
6957.3
6957.3
6957.3
6957.3
6957.3
6957.3
6957.29
6957.29
6957.29
6957.29
6957.29
6957.29
6957.29
6957.29
6957.29
6957.29
6957.29
6957.29
6957.29
6957.29
6957.29
6957.28
6957.28
6957.28
6957.28
6957.28
6957.28
6957.28
6957.28
6957.28
6957.28
6957.28
6957.28
6957.28
6957.28
6957.28
6957.28
6957.28
6957.28
6957.28
6957.28
6957.28
6957.28
6957.28
6957.28
6957.28
6957.28
6957.27
6957.27
6957.27
6957.27
6957.27
6957.27
6957.27
6957.27
6957.27
6957.27
6957.27
6957.27
6957.27
6957.27
6957.27
6957.27
6957.27
6957.27
6957.27
6957.27
6957.27
6957.27
6957.27
6957.27
6957.27
6957.27
6957.27
6957.27
6957.27
6957.27
6957.27
6957.27
6957.27
6957.27
6957.27
6957.27
6957.27
6957.27
6957.27
6957.27
6957.27
6957.27
6957.27
6957.27
6957.27
6957.27
6957.27
6957.26
6957.26
6957.26
6957.26
6957.26
6957.26
6957.26
6957.26
6957.26
6957.26
6957.26
6957.26
6957.26
6957.26
6757.78
6755.86
6754
6752.16
6750.33
6748.51
6746.71
6744.92
6743.14
6741.39
6739.66
6737.95
6736.26
6734.6
6732.97
6731.36
6729.78
6728.24
6726.72
6725.24
6723.79
6722.37
6720.99
6719.65
6718.34
6717.07
6715.83
6714.64
6713.48
6712.37
6711.29
6710.25
6709.26
6708.3
6707.39
6706.52
6705.69
6704.9
6704.15
6703.45
6702.78
6702.16
6701.58
6701.04
6700.54
6700.07
6699.65
6699.26
6698.91
6698.6
6698.32
6698.07
6697.86
6697.67
6697.52
6697.41
6697.31
6697.25
6697.22
6697.21
6697.22
6697.26
6697.32
6697.41
6697.51
6697.64
6697.79
6697.95
6698.14
6698.34
6698.56
6698.79
6699.05
6699.31
6699.59
6699.89
6700.2
6700.52
6700.86
6701.21
6701.58
6701.95
6702.34
6702.74
6703.15
6703.58
6704.01
6704.45
6704.9
6705.36
6705.82
6706.3
6706.77
6707.17
6707.59
6708.46
6709.11
6709.76
6710.37
6710.98
6711.62
6712.29
6712.95
6713.62
6714.29
6714.97
6715.65
6716.33
6717.02
6717.71
6718.4
6719.09
6719.78
6720.47
6721.14
6721.83
6722.55
6723.25
6723.94
6724.63
6725.31
6725.99
6726.66
6727.33
6728
6728.66
6729.31
6729.96
6730.61
6731.25
6731.88
6732.49
6733.11
6733.75
6734.37
6734.97
6735.57
6736.16
6736.74
6737.31
6737.88
6738.44
6739
6739.54
6740.08
6740.61
6741.13
6741.65
6742.15
6742.65
6743.13
6743.61
6744.09
6744.55
6745
6745.45
6745.89
6746.32
6746.74
6747.15
6747.55
6747.95
6748.34
6748.72
6749.09
6749.45
6749.81
6750.16
6750.5
6750.83
6751.16
6751.48
6751.79
6752.09
6752.39
6752.68
6752.96
6753.23
6753.5
6753.77
6754.02
6754.27
6754.51
6754.75
6754.98
6755.21
6755.42
6755.64
6755.84
6756.04
6756.24
6756.43
6756.61
6756.79
6756.97
6757.14
6757.3
6757.46
6757.62
6757.77
6757.91
6758.05
6758.19
6758.32
6758.45
6758.57
6758.69
6758.81
6758.92
6759.03
6759.14
6759.24
6759.34
6759.43
6759.52
6759.61
6759.7
6759.78
6759.86
6759.94
6760.01
6760.08
6760.15
6760.22
6760.28
6760.34
6760.4
6760.46
6760.52
6760.57
6760.62
6760.67
6760.72
6760.76
6760.8
6760.85
6760.89
6760.92
6760.96
6761
6761.03
6761.06
6761.09
6761.12
6761.15
6761.18
6761.2
6761.23
6761.25
6761.27
6761.3
6761.32
6761.34
6761.35
6761.37
6761.39
6761.4
6761.42
6761.43
6761.45
6761.46
6761.47
6761.48
6761.49
6761.5
6761.51
6761.52
6761.53
6761.54
6761.54
6761.55
6761.56
6761.56
6761.57
6761.57
6761.58
6761.58
6761.58
6761.59
6761.59
6761.59
6761.59
6761.6
6761.6
6761.6
6761.6
6761.6
6761.6
6761.6
6761.6
6761.6
6761.6
6761.59
6761.59
6761.59
6761.59
6761.59
6761.59
6761.58
6761.58
6761.58
6761.58
6761.57
6761.57
6761.57
6761.56
6761.56
6761.56
6761.55
6761.55
6761.55
6761.54
6761.54
6761.53
6761.53
6761.52
6761.52
6761.52
6761.51
6761.51
6761.5
6761.5
6761.49
6761.49
6761.48
6761.48
6761.47
6761.47
6761.46
6761.46
6761.45
6761.45
6761.44
6761.44
6761.43
6761.43
6761.42
6761.42
6761.41
6761.41
6761.4
6761.4
6761.39
6761.39
6761.38
6761.38
6761.37
6761.37
6761.36
6761.36
6761.35
6761.35
6761.34
6761.34
6761.33
6761.33
6761.32
6761.32
6761.32
6761.31
6761.31
6761.3
6761.3
6761.29
6761.29
6761.28
6761.28
6761.28
6761.27
6761.27
6761.26
6761.26
6761.26
6761.25
6761.25
6761.24
6761.24
6761.24
6761.23
6761.23
6761.23
6761.22
6761.22
6761.22
6761.21
6761.21
6761.21
6761.2
6761.2
6761.2
6761.19
6761.19
6761.19
6761.18
6761.18
6761.18
6761.18
6761.17
6761.17
6761.17
6761.17
6761.16
6761.16
6761.16
6761.16
6761.15
6761.15
6761.15
6761.15
6761.14
6761.14
6761.14
6761.14
6761.14
6761.14
6761.13
6761.13
6761.13
6761.13
6761.13
6761.13
6761.12
6761.12
6761.12
6761.12
6761.12
6761.12
6761.12
6761.11
6761.11
6761.11
6761.11
6761.11
6761.11
6761.11
6761.11
6761.11
6761.1
6761.1
6761.1
6761.1
6761.1
6761.1
6761.1
6761.1
6761.1
6761.1
6761.09
6761.09
6761.09
6761.09
6761.09
6761.09
6761.09
6761.09
6761.09
6761.09
6761.09
6761.09
6761.09
6761.09
6761.09
6761.09
6761.09
6761.08
6761.08
6761.08
6761.08
6761.08
6761.08
6761.08
6761.08
6761.08
6761.08
6761.08
6761.08
6761.08
6761.08
6761.08
6761.08
6761.08
6761.08
6761.08
6761.08
6761.08
6761.08
6761.08
6761.08
6761.08
6761.08
6761.07
6761.07
6761.07
6761.07
6761.07
6761.07
6761.07
6761.07
6761.07
6761.07
6761.07
6761.07
6761.07
6761.07
6761.07
6761.07
6761.07
6761.07
6761.07
6761.07
6761.07
6761.07
6761.07
6761.07
6761.07
6761.07
6761.07
6761.07
6761.07
6761.07
6761.07
6761.07
6761.07
6761.07
6761.07
6761.07
6761.07
6761.07
6761.07
6761.07
6761.07
6761.07
6761.07
6761.07
6761.06
6761.06
6761.06
6761.06
6761.06
6761.06
6761.06
6761.06
6761.06
6761.06
6761.06
6761.06
6761.06
6761.06
6761.06
6761.06
6561.64
6559.69
6557.8
6555.93
6554.07
6552.22
6550.38
6548.57
6546.76
6544.99
6543.23
6541.49
6539.78
6538.1
6536.44
6534.81
6533.22
6531.65
6530.12
6528.62
6527.15
6525.72
6524.33
6522.98
6521.66
6520.38
6519.13
6517.93
6516.77
6515.64
6514.56
6513.52
6512.52
6511.56
6510.64
6509.77
6508.94
6508.15
6507.4
6506.7
6506.04
6505.42
6504.84
6504.3
6503.8
6503.35
6502.93
6502.55
6502.21
6501.9
6501.63
6501.4
6501.2
6501.03
6500.89
6500.78
6500.7
6500.65
6500.63
6500.64
6500.67
6500.72
6500.8
6500.9
6501.02
6501.16
6501.32
6501.5
6501.71
6501.93
6502.16
6502.42
6502.69
6502.97
6503.27
6503.58
6503.91
6504.26
6504.61
6504.98
6505.36
6505.76
6506.16
6506.58
6507.01
6507.45
6507.9
6508.35
6508.82
6509.29
6509.77
6510.27
6510.78
6511.28
6511.8
6512.31
6512.74
6513.19
6514.11
6514.79
6515.47
6516.11
6516.76
6517.42
6518.12
6518.81
6519.5
6520.2
6520.89
6521.58
6522.27
6522.97
6523.67
6524.36
6525.06
6525.75
6526.44
6527.11
6527.8
6528.51
6529.2
6529.88
6530.56
6531.23
6531.9
6532.57
6533.23
6533.88
6534.53
6535.17
6535.81
6536.44
6537.06
6537.68
6538.29
6538.87
6539.47
6540.08
6540.67
6541.24
6541.81
6542.37
6542.92
6543.47
6544.01
6544.54
6545.06
6545.57
6546.08
6546.57
6547.06
6547.54
6548.01
6548.47
6548.93
6549.37
6549.81
6550.24
6550.66
6551.07
6551.47
6551.87
6552.26
6552.64
6553.01
6553.37
6553.72
6554.07
6554.41
6554.74
6555.07
6555.39
6555.7
6556
6556.29
6556.58
6556.86
6557.14
6557.4
6557.67
6557.92
6558.17
6558.41
6558.64
6558.87
6559.1
6559.31
6559.52
6559.73
6559.93
6560.12
6560.31
6560.49
6560.67
6560.85
6561.01
6561.18
6561.33
6561.49
6561.64
6561.78
6561.92
6562.05
6562.19
6562.31
6562.43
6562.55
6562.67
6562.78
6562.89
6562.99
6563.09
6563.19
6563.28
6563.37
6563.46
6563.54
6563.63
6563.7
6563.78
6563.85
6563.92
6563.99
6564.06
6564.12
6564.18
6564.24
6564.29
6564.35
6564.4
6564.45
6564.5
6564.54
6564.59
6564.63
6564.67
6564.71
6564.75
6564.78
6564.82
6564.85
6564.88
6564.91
6564.94
6564.97
6565
6565.02
6565.04
6565.07
6565.09
6565.11
6565.13
6565.15
6565.17
6565.18
6565.2
6565.22
6565.23
6565.24
6565.26
6565.27
6565.28
6565.29
6565.3
6565.31
6565.32
6565.33
6565.34
6565.34
6565.35
6565.36
6565.36
6565.37
6565.37
6565.38
6565.38
6565.39
6565.39
6565.39
6565.39
6565.4
6565.4
6565.4
6565.4
6565.4
6565.4
6565.4
6565.4
6565.4
6565.4
6565.4
6565.4
6565.4
6565.4
6565.39
6565.39
6565.39
6565.39
6565.39
6565.38
6565.38
6565.38
6565.37
6565.37
6565.37
6565.36
6565.36
6565.36
6565.35
6565.35
6565.35
6565.34
6565.34
6565.33
6565.33
6565.32
6565.32
6565.32
6565.31
6565.31
6565.3
6565.3
6565.29
6565.29
6565.28
6565.28
6565.27
6565.27
6565.26
6565.26
6565.25
6565.25
6565.24
6565.24
6565.23
6565.23
6565.22
6565.22
6565.21
6565.21
6565.2
6565.2
6565.19
6565.19
6565.18
6565.18
6565.17
6565.17
6565.16
6565.16
6565.15
6565.15
6565.14
6565.14
6565.13
6565.13
6565.12
6565.12
6565.11
6565.11
6565.1
6565.1
6565.1
6565.09
6565.09
6565.08
6565.08
6565.07
6565.07
6565.07
6565.06
6565.06
6565.05
6565.05
6565.05
6565.04
6565.04
6565.04
6565.03
6565.03
6565.02
6565.02
6565.02
6565.01
6565.01
6565.01
6565
6565
6565
6564.99
6564.99
6564.99
6564.99
6564.98
6564.98
6564.98