/*--------------------------------*- C++ -*----------------------------------*\
| =========                 |                                                 |
| \\      /  F ield         | OpenFOAM: The Open Source CFD Toolbox           |
|  \\    /   O peration     | Version:  v2006                                 |
|   \\  /    A nd           | Website:  www.openfoam.com                      |
|    \\/     M anipulation  |                                                 |
\*---------------------------------------------------------------------------*/
FoamFile
{
    version     2.0;
    format      ascii;
    class       surfaceScalarField;
    location    "1.1";
    object      phi;
}
// * * * * * * * * * * * * * * * * * * * * * * * * * * * * * * * * * * * * * //

dimensions      [0 3 -1 0 0 0 0];
oriented        oriented;


internalField   nonuniform List<scalar> 
65390
(
-5.25027e-06
-5.4903e-08
-5.40861e-06
1.45851e-07
-5.57475e-06
1.55633e-07
-5.7155e-06
1.32412e-07
-5.87641e-06
1.53547e-07
-6.05257e-06
1.70314e-07
-6.2273e-06
1.7028e-07
-6.39924e-06
1.68711e-07
-6.57057e-06
1.68637e-07
-6.73976e-06
1.66674e-07
-6.90733e-06
1.65692e-07
-7.0749e-06
1.66489e-07
-7.24215e-06
1.66453e-07
-7.42118e-06
1.78224e-07
-7.5984e-06
1.76695e-07
-7.77235e-06
1.74002e-07
-7.94502e-06
1.73154e-07
-8.1146e-06
1.70283e-07
-8.28175e-06
1.68047e-07
-8.44816e-06
1.67635e-07
-8.613e-06
1.66462e-07
-8.77533e-06
1.6429e-07
-8.93454e-06
1.61438e-07
-9.08779e-06
1.55788e-07
-9.23425e-06
1.4937e-07
-9.37819e-06
1.4724e-07
-9.51908e-06
1.445e-07
-9.65512e-06
1.39885e-07
-9.78495e-06
1.33859e-07
-9.91145e-06
1.3071e-07
-1.00348e-05
1.27725e-07
-1.01523e-05
1.22057e-07
-1.02586e-05
1.10828e-07
-1.03539e-05
9.97568e-08
-1.0448e-05
9.82177e-08
-1.05379e-05
9.36655e-08
-1.06194e-05
8.45256e-08
-1.06907e-05
7.37442e-08
-1.07536e-05
6.45431e-08
-1.08167e-05
6.41381e-08
-1.08773e-05
6.11359e-08
-1.09321e-05
5.48667e-08
-1.09717e-05
3.96868e-08
-1.09997e-05
2.81497e-08
-1.10263e-05
2.6971e-08
-1.10522e-05
2.64718e-08
-1.10655e-05
1.40053e-08
-1.10614e-05
-3.45697e-09
-1.10497e-05
-1.11774e-08
-1.10369e-05
-1.26708e-08
-1.10177e-05
-1.94071e-08
-1.09838e-05
-3.43218e-08
-1.09386e-05
-4.59015e-08
-1.08838e-05
-5.54943e-08
-1.08257e-05
-5.86793e-08
-1.07639e-05
-6.24189e-08
-1.0696e-05
-6.83928e-08
-1.06219e-05
-7.45669e-08
-1.05461e-05
-7.62242e-08
-1.04673e-05
-7.93729e-08
-1.03817e-05
-8.62227e-08
-1.02887e-05
-9.37244e-08
-1.01903e-05
-9.92279e-08
-1.00856e-05
-1.0548e-07
-9.97234e-06
-1.14139e-07
-9.84861e-06
-1.24521e-07
-9.71296e-06
-1.36381e-07
-9.56388e-06
-1.49707e-07
-9.3998e-06
-1.64602e-07
-9.21843e-06
-1.81767e-07
-9.01496e-06
-2.03749e-07
-8.78159e-06
-2.33575e-07
-8.50533e-06
-2.76423e-07
-8.16426e-06
-3.41235e-07
-7.72346e-06
-4.40961e-07
-7.12884e-06
-5.94649e-07
-6.26379e-06
-8.64798e-07
-5.01177e-06
-1.25138e-06
-3.99681e-06
-1.01443e-06
-3.62598e-06
-3.70731e-07
-3.45268e-06
-1.72819e-07
-3.48703e-06
3.52184e-08
-3.46541e-06
-2.11245e-08
-3.49312e-06
2.83513e-08
-3.54498e-06
5.24226e-08
-3.49398e-06
-5.02432e-08
-3.44623e-06
-4.6888e-08
-3.41261e-06
-3.2949e-08
-3.39813e-06
-1.39452e-08
-3.37438e-06
-2.3151e-08
-3.35374e-06
-1.98223e-08
-3.33087e-06
-2.19339e-08
-3.29851e-06
-3.1409e-08
-3.26344e-06
-3.40568e-08
-3.22429e-06
-3.80783e-08
-3.17754e-06
-4.56379e-08
-3.12294e-06
-5.35432e-08
-3.05838e-06
-6.36116e-08
-2.97068e-06
-8.68446e-08
-2.88785e-06
-8.20844e-08
-2.83183e-06
-5.53784e-08
-2.79585e-06
-3.53678e-08
-2.76766e-06
-2.75844e-08
-2.73032e-06
-3.6724e-08
-2.69581e-06
-3.38871e-08
-2.66059e-06
-3.45791e-08
-2.62064e-06
-3.93248e-08
-2.57997e-06
-4.00638e-08
-2.53965e-06
-3.97859e-08
-2.49941e-06
-3.98001e-08
-2.45813e-06
-4.09145e-08
-2.41595e-06
-4.18723e-08
-2.37238e-06
-4.33042e-08
-2.32629e-06
-4.5833e-08
-2.27684e-06
-4.91521e-08
-2.22157e-06
-5.48824e-08
-2.15283e-06
-6.82619e-08
-2.08716e-06
-6.50808e-08
-2.03847e-06
-4.79986e-08
-2.00329e-06
-3.43934e-08
-1.97331e-06
-2.91537e-08
-1.93778e-06
-3.46806e-08
-1.90357e-06
-3.3371e-08
-1.86976e-06
-3.30188e-08
-1.83435e-06
-3.46845e-08
-1.79911e-06
-3.45939e-08
-1.76423e-06
-3.43321e-08
-1.72917e-06
-3.46289e-08
-1.69414e-06
-3.46982e-08
-1.6593e-06
-3.4616e-08
-1.62461e-06
-3.45502e-08
-1.59011e-06
-3.44461e-08
-1.55584e-06
-3.42534e-08
-1.52182e-06
-3.40367e-08
-1.488e-06
-3.38296e-08
-1.45439e-06
-3.35957e-08
-1.42104e-06
-3.331e-08
-1.38796e-06
-3.29797e-08
-1.35515e-06
-3.26656e-08
-1.32261e-06
-3.23346e-08
-1.29032e-06
-3.20264e-08
-1.25831e-06
-3.16904e-08
-1.22661e-06
-3.13281e-08
-1.19521e-06
-3.09767e-08
-1.16411e-06
-3.06257e-08
-1.13335e-06
-3.02516e-08
-1.10295e-06
-2.98529e-08
-1.07292e-06
-2.94636e-08
-1.04324e-06
-2.9082e-08
-1.01396e-06
-2.86764e-08
-9.85087e-07
-2.82617e-08
-9.56629e-07
-2.78489e-08
-9.28606e-07
-2.74195e-08
-9.01038e-07
-2.6972e-08
-8.73926e-07
-2.65217e-08
-8.47267e-07
-2.6078e-08
-8.21064e-07
-2.56298e-08
-7.95323e-07
-2.51785e-08
-7.70038e-07
-2.47342e-08
-7.45218e-07
-2.4283e-08
-7.20872e-07
-2.38235e-08
-6.96988e-07
-2.33758e-08
-6.73546e-07
-2.29464e-08
-6.50548e-07
-2.25132e-08
-6.28004e-07
-2.20701e-08
-6.05908e-07
-2.16308e-08
-5.84241e-07
-2.12108e-08
-5.62999e-07
-2.07953e-08
-5.42188e-07
-2.03734e-08
-5.21818e-07
-1.99434e-08
-5.0187e-07
-1.95313e-08
-4.82328e-07
-1.91356e-08
-4.63201e-07
-1.87303e-08
-4.44497e-07
-1.8316e-08
-4.262e-07
-1.7915e-08
-4.08298e-07
-1.75247e-08
-3.90798e-07
-1.71265e-08
-3.73704e-07
-1.67246e-08
-3.57006e-07
-1.63358e-08
-3.40696e-07
-1.59542e-08
-3.24782e-07
-1.55677e-08
-3.09264e-07
-1.5181e-08
-2.9413e-07
-1.48067e-08
-2.79371e-07
-1.44401e-08
-2.64989e-07
-1.40694e-08
-2.50985e-07
-1.36965e-08
-2.3735e-07
-1.33314e-08
-2.24077e-07
-1.2973e-08
-2.11168e-07
-1.26144e-08
-1.98626e-07
-1.22545e-08
-1.86446e-07
-1.18997e-08
-1.74618e-07
-1.15543e-08
-1.63135e-07
-1.12152e-08
-1.51996e-07
-1.08774e-08
-1.41199e-07
-1.05402e-08
-1.3074e-07
-1.02078e-08
-1.20614e-07
-9.88052e-09
-1.10819e-07
-9.5557e-09
-1.01354e-07
-9.23354e-09
-9.22116e-08
-8.91613e-09
-8.3386e-08
-8.6031e-09
-7.48705e-08
-8.29445e-09
-6.6657e-08
-7.9918e-09
-5.8739e-08
-7.69519e-09
-5.11121e-08
-7.40452e-09
-4.37703e-08
-7.12315e-09
-3.67059e-08
-6.85363e-09
-2.99132e-08
-6.59374e-09
-2.33849e-08
-6.34324e-09
-1.71095e-08
-6.1039e-09
-1.10795e-08
-5.86932e-09
-5.29688e-09
-5.628e-09
2.36004e-10
-5.37969e-09
5.52536e-09
-5.13393e-09
1.05782e-08
-4.89379e-09
1.53934e-08
-4.65367e-09
1.99713e-08
-4.41694e-09
2.43225e-08
-4.19474e-09
2.84607e-08
-3.98965e-09
3.23912e-08
-3.79172e-09
3.61155e-08
-3.59521e-09
3.96421e-08
-3.40509e-09
4.29819e-08
-3.22307e-09
4.61391e-08
-3.04191e-09
4.91131e-08
-2.85805e-09
5.19091e-08
-2.6788e-09
5.45386e-08
-2.51193e-09
5.70104e-08
-2.35613e-09
5.93284e-08
-2.2069e-09
6.14967e-08
-2.06422e-09
6.35224e-08
-1.92973e-09
6.54124e-08
-1.80166e-09
6.71706e-08
-1.6759e-09
6.88017e-08
-1.55252e-09
7.03098e-08
-1.43117e-09
7.16964e-08
-1.30989e-09
7.29617e-08
-1.1883e-09
7.41101e-08
-1.07158e-09
7.51502e-08
-9.64176e-10
7.60915e-08
-8.66553e-10
7.69402e-08
-7.74818e-10
7.76996e-08
-6.85702e-10
7.83722e-08
-5.98041e-10
7.8957e-08
-5.08951e-10
7.946e-08
-4.26372e-10
7.98819e-08
-3.4575e-10
8.0228e-08
-2.72457e-10
8.05023e-08
-2.04824e-10
8.07039e-08
-1.3744e-10
8.08311e-08
-6.82935e-11
8.08885e-08
-2.94914e-12
8.08884e-08
5.14756e-11
8.08425e-08
9.57065e-11
8.07535e-08
1.38188e-10
8.06179e-08
1.84451e-10
8.04367e-08
2.29454e-10
8.02196e-08
2.63965e-10
7.99776e-08
2.86944e-10
7.97127e-08
3.07569e-10
7.94181e-08
3.35025e-10
7.90869e-08
3.6995e-10
7.87175e-08
4.07325e-10
7.83109e-08
4.44197e-10
7.78679e-08
4.80768e-10
7.73896e-08
5.16134e-10
7.68793e-08
5.47952e-10
7.63401e-08
5.76125e-10
7.57735e-08
6.02132e-10
7.51825e-08
6.24586e-10
7.45738e-08
6.40085e-10
7.39539e-08
6.4929e-10
7.33237e-08
6.57591e-10
7.26813e-08
6.68428e-10
7.20253e-08
6.81051e-10
7.13557e-08
6.94179e-10
7.06712e-08
7.0861e-10
6.99698e-08
7.25258e-10
6.92496e-08
7.43571e-10
6.8509e-08
7.63241e-10
6.77458e-08
7.84787e-10
6.69588e-08
8.06865e-10
6.61522e-08
8.24675e-10
6.53349e-08
8.33436e-10
6.45163e-08
8.32771e-10
6.37031e-08
8.25741e-10
6.28993e-08
8.1505e-10
6.21087e-08
8.0121e-10
6.13352e-08
7.83897e-10
6.05816e-08
7.64235e-10
5.98479e-08
7.44967e-10
5.91307e-08
7.29155e-10
5.84255e-08
7.18161e-10
5.77271e-08
7.12098e-10
5.70289e-08
7.12521e-10
5.63238e-08
7.19748e-10
5.56069e-08
7.31842e-10
5.48764e-08
7.4528e-10
5.4134e-08
7.56938e-10
5.33825e-08
7.6563e-10
5.26241e-08
7.71745e-10
5.18612e-08
7.75596e-10
5.10967e-08
7.76244e-10
5.03356e-08
7.72041e-10
4.95837e-08
7.61826e-10
4.8847e-08
7.45714e-10
4.81297e-08
7.25447e-10
4.74337e-08
7.03449e-10
4.67587e-08
6.8186e-10
4.61029e-08
6.62138e-10
4.54637e-08
6.45231e-10
4.48378e-08
6.31722e-10
4.42221e-08
6.21599e-10
4.36135e-08
6.14492e-10
4.30101e-08
6.09385e-10
4.24112e-08
6.0486e-10
4.18177e-08
5.99494e-10
4.12315e-08
5.92123e-10
4.06551e-08
5.82183e-10
4.00909e-08
5.69934e-10
3.95402e-08
5.56395e-10
3.9003e-08
5.42636e-10
3.84793e-08
5.28961e-10
3.79695e-08
5.14999e-10
3.74736e-08
5.00929e-10
3.69896e-08
4.88908e-10
3.65114e-08
4.8288e-10
3.60306e-08
4.85333e-10
3.55414e-08
4.93567e-10
3.50443e-08
5.01229e-10
3.4545e-08
5.03284e-10
3.40487e-08
5.00032e-10
3.35578e-08
4.94453e-10
3.30747e-08
4.86526e-10
3.26056e-08
4.72344e-10
3.21586e-08
4.50162e-10
3.1736e-08
4.25531e-10
3.13309e-08
4.07908e-10
3.09329e-08
4.00693e-10
3.05367e-08
3.98742e-10
3.01414e-08
3.97621e-10
2.97446e-08
3.99063e-10
2.93402e-08
4.06439e-10
2.89245e-08
4.17637e-10
2.85005e-08
4.2576e-10
2.80752e-08
4.26975e-10
2.76533e-08
4.23437e-10
2.72369e-08
4.17668e-10
2.68292e-08
4.08781e-10
2.64334e-08
3.9671e-10
2.60488e-08
3.85347e-10
2.5671e-08
3.78425e-10
2.52955e-08
3.76082e-10
2.49183e-08
3.77742e-10
2.45345e-08
3.84209e-10
2.41407e-08
3.94203e-10
2.37384e-08
4.02444e-10
2.3334e-08
4.04294e-10
2.29335e-08
4.00152e-10
2.25401e-08
3.92768e-10
2.21563e-08
3.82996e-10
2.17845e-08
3.7082e-10
2.14245e-08
3.59071e-10
2.1071e-08
3.5258e-10
2.07164e-08
3.53709e-10
2.03554e-08
3.60219e-10
1.99868e-08
3.67959e-10
1.9612e-08
3.74081e-10
1.92341e-08
3.77179e-10
1.88575e-08
3.75733e-10
1.84882e-08
3.68348e-10
1.81315e-08
3.55721e-10
1.77889e-08
3.41435e-10
1.74578e-08
3.29855e-10
1.71335e-08
3.23106e-10
1.68123e-08
3.19951e-10
1.64932e-08
3.17764e-10
1.61761e-08
3.15583e-10
1.58608e-08
3.13865e-10
1.55481e-08
3.10987e-10
1.52433e-08
3.03028e-10
1.49525e-08
2.88786e-10
1.46779e-08
2.72508e-10
1.44152e-08
2.60454e-10
1.41569e-08
2.5588e-10
1.38958e-08
2.58692e-10
1.36272e-08
2.6613e-10
1.33516e-08
2.73125e-10
1.30743e-08
2.74949e-10
1.28016e-08
2.70396e-10
1.25382e-08
2.61232e-10
1.22855e-08
2.50503e-10
1.20411e-08
2.42334e-10
1.17985e-08
2.40494e-10
1.15507e-08
2.45673e-10
1.1293e-08
2.55571e-10
1.10241e-08
2.66648e-10
1.07472e-08
2.74632e-10
1.04699e-08
2.75075e-10
1.02019e-08
2.65878e-10
9.94906e-09
2.50638e-10
9.7097e-09
2.37254e-10
9.47632e-09
2.31332e-10
9.24296e-09
2.31346e-10
9.00913e-09
2.31844e-10
8.77482e-09
2.32331e-10
8.541e-09
2.31853e-10
8.31387e-09
2.25168e-10
8.09772e-09
2.1419e-10
7.88922e-09
2.06583e-10
7.68159e-09
2.05749e-10
7.47028e-09
2.09482e-10
7.25588e-09
2.12616e-10
7.04465e-09
2.09488e-10
6.84273e-09
2.00222e-10
6.64998e-09
1.91092e-10
6.46433e-09
1.84018e-10
6.28473e-09
1.78022e-10
6.10672e-09
1.76477e-10
5.92944e-09
1.75824e-10
5.75694e-09
1.7112e-10
5.59133e-09
1.64328e-10
5.42034e-09
1.69792e-10
5.24186e-09
1.77393e-10
5.05695e-09
1.83904e-10
4.87173e-09
1.84296e-10
4.70724e-09
1.6364e-10
4.55172e-09
1.54731e-10
4.40842e-09
1.42539e-10
4.28714e-09
1.2052e-10
4.18655e-09
9.98103e-11
4.09932e-09
8.63914e-11
4.01193e-09
8.64496e-11
3.94742e-09
6.34378e-11
3.88634e-09
5.98743e-11
3.82361e-09
6.13558e-11
3.74348e-09
7.86212e-11
3.65609e-09
8.57552e-11
3.57777e-09
7.65838e-11
3.499e-09
7.69604e-11
3.44921e-09
4.79508e-11
3.38235e-09
6.50049e-11
3.27713e-09
1.03357e-10
3.17766e-09
9.76215e-11
3.08461e-09
9.12124e-11
3.01771e-09
6.50774e-11
2.94075e-09
7.51466e-11
2.87274e-09
6.62089e-11
2.83816e-09
3.27943e-11
2.82265e-09
1.3752e-11
2.83575e-09
-1.48116e-11
2.80953e-09
2.45778e-11
2.81436e-09
-6.37724e-12
2.78022e-09
3.26828e-11
2.73793e-09
4.09248e-11
2.66999e-09
6.66379e-11
2.62809e-09
4.06585e-11
2.63571e-09
-8.83233e-12
2.58287e-09
5.16325e-11
2.58548e-09
-3.80578e-12
2.60898e-09
-2.46878e-11
2.57432e-09
3.34951e-11
2.52884e-09
4.43514e-11
2.40897e-09
1.18793e-10
2.37472e-09
3.32247e-11
2.27244e-09
1.01289e-10
2.19073e-09
8.07606e-11
2.29132e-09
-1.01488e-10
2.34108e-09
-5.11014e-11
2.88771e-09
-5.47897e-10
3.33751e-09
-4.51464e-10
3.42797e-09
-9.28809e-11
3.50511e-09
-7.93738e-11
3.46738e-09
3.55645e-11
3.38436e-09
8.09029e-11
3.27736e-09
1.04936e-10
3.12824e-09
1.47096e-10
2.92779e-09
1.98449e-10
2.69445e-09
2.31373e-10
2.44321e-09
2.49282e-10
2.17908e-09
2.6217e-10
1.92129e-09
2.55845e-10
1.69573e-09
2.23602e-10
1.50742e-09
1.86364e-10
1.33572e-09
1.69747e-10
1.15797e-09
1.75804e-10
9.76323e-10
1.79706e-10
8.09263e-10
1.65124e-10
6.70212e-10
1.37125e-10
5.57347e-10
1.1095e-10
4.59784e-10
9.56613e-11
3.61485e-10
9.64135e-11
2.47921e-10
1.11696e-10
1.11172e-10
1.34899e-10
-4.90419e-11
1.58383e-10
-2.26572e-10
1.75718e-10
-4.12266e-10
1.83901e-10
-5.9629e-10
1.82248e-10
-7.68366e-10
1.70318e-10
-9.16387e-10
1.46278e-10
-1.02576e-09
1.07647e-10
-1.08011e-09
5.26328e-11
-1.06895e-09
-1.28731e-11
-9.84457e-10
-8.61866e-11
-8.3381e-10
-1.52338e-10
-6.30393e-10
-2.05102e-10
-3.9291e-10
-2.39161e-10
-1.39495e-10
-2.55086e-10
1.15387e-10
-2.56546e-10
3.61403e-10
-2.47671e-10
5.90149e-10
-2.30391e-10
7.91343e-10
-2.0283e-10
9.52211e-10
-1.62495e-10
1.06132e-09
-1.10732e-10
1.11701e-09
-5.72995e-11
1.12924e-09
-1.38456e-11
1.12145e-09
6.19041e-12
1.11793e-09
1.91181e-12
1.13685e-09
-2.05304e-11
1.19819e-09
-6.2947e-11
1.31765e-09
-1.21071e-10
1.49595e-09
-1.79916e-10
1.71007e-09
-2.15734e-10
1.90594e-09
-1.97484e-10
2.02267e-09
-1.18349e-10
2.04302e-09
-2.19741e-11
2.02308e-09
1.83184e-11
2.05994e-09
-3.84924e-11
2.217e-09
-1.587e-10
2.41659e-09
-2.0123e-10
2.49199e-09
-7.70405e-11
2.34763e-09
1.42713e-10
2.05624e-09
2.89748e-10
1.82871e-09
2.25892e-10
1.8028e-09
2.42733e-11
1.81992e-09
-1.87696e-11
1.67345e-09
1.44829e-10
1.36093e-09
3.10871e-10
1.1421e-09
2.17174e-10
1.21085e-09
-7.04244e-11
1.36538e-09
-1.56209e-10
1.35367e-09
1.00175e-11
1.3261e-09
2.58527e-11
1.54185e-09
-2.1748e-10
1.88686e-09
-3.4674e-10
1.94166e-09
-5.65259e-11
1.78695e-09
1.53013e-10
1.71119e-09
7.41011e-11
1.44234e-09
2.67205e-10
1.18806e-09
2.52631e-10
5.2439e-10
-5.42572e-06
6.56362e-08
-5.54704e-06
2.77838e-07
-5.69197e-06
3.10099e-07
-5.85287e-06
3.01371e-07
-6.01817e-06
3.25248e-07
-6.18142e-06
3.38942e-07
-6.34337e-06
3.36338e-07
-6.50643e-06
3.34716e-07
-6.67085e-06
3.35304e-07
-6.83649e-06
3.34189e-07
-7.00476e-06
3.35589e-07
-7.17526e-06
3.38418e-07
-7.34823e-06
3.40702e-07
-7.52159e-06
3.52911e-07
-7.69499e-06
3.51706e-07
-7.86847e-06
3.49404e-07
-8.04002e-06
3.46864e-07
-8.20866e-06
3.41287e-07
-8.3757e-06
3.3774e-07
-8.53998e-06
3.34922e-07
-8.70035e-06
3.30162e-07
-8.85758e-06
3.25179e-07
-9.012e-06
3.19896e-07
-9.16174e-06
3.10026e-07
-9.30685e-06
2.99508e-07
-9.44602e-06
2.91952e-07
-9.57934e-06
2.83834e-07
-9.71065e-06
2.77644e-07
-9.83946e-06
2.69512e-07
-9.96167e-06
2.60077e-07
-1.00864e-05
2.59822e-07
-1.02133e-05
2.56174e-07
-1.03295e-05
2.34097e-07
-1.04168e-05
1.93766e-07
-1.04963e-05
1.84024e-07
-1.05793e-05
1.82423e-07
-1.06633e-05
1.739e-07
-1.0746e-05
1.61415e-07
-1.08093e-05
1.32397e-07
-1.08565e-05
1.15404e-07
-1.09027e-05
1.11025e-07
-1.09475e-05
1.03077e-07
-1.09836e-05
7.88525e-08
-1.1008e-05
5.54065e-08
-1.10268e-05
4.83163e-08
-1.10413e-05
4.32594e-08
-1.10507e-05
2.52443e-08
-1.10538e-05
1.07916e-09
-1.10509e-05
-1.30193e-08
-1.10415e-05
-2.14561e-08
-1.10234e-05
-3.71145e-08
-1.09959e-05
-6.16878e-08
-1.09604e-05
-8.12461e-08
-1.0916e-05
-9.98875e-08
-1.08627e-05
-1.12002e-07
-1.08032e-05
-1.221e-07
-1.07371e-05
-1.34796e-07
-1.06641e-05
-1.47984e-07
-1.05868e-05
-1.54246e-07
-1.0505e-05
-1.62141e-07
-1.0418e-05
-1.74385e-07
-1.03252e-05
-1.87841e-07
-1.02264e-05
-1.99495e-07
-1.01231e-05
-2.10295e-07
-1.00116e-05
-2.272e-07
-9.88832e-06
-2.49308e-07
-9.75497e-06
-2.71211e-07
-9.60992e-06
-2.9614e-07
-9.45208e-06
-3.2371e-07
-9.28126e-06
-3.53727e-07
-9.09684e-06
-3.89201e-07
-8.89716e-06
-4.34261e-07
-8.68164e-06
-4.92961e-07
-8.45215e-06
-5.7175e-07
-8.21867e-06
-6.75354e-07
-8.00423e-06
-8.09684e-07
-7.87835e-06
-9.90771e-07
-7.92317e-06
-1.20687e-06
-7.65686e-06
-1.28261e-06
-6.73382e-06
-1.29434e-06
-5.44896e-06
-1.45707e-06
-4.28458e-06
-1.12965e-06
-3.81791e-06
-4.86994e-07
-3.54568e-06
-2.43749e-07
-3.47209e-06
-2.13004e-08
-3.4124e-06
-1.09262e-07
-3.37599e-06
-8.28751e-08
-3.39864e-06
-1.01079e-08
-3.44838e-06
3.60497e-08
-3.4049e-06
-6.62406e-08
-3.36599e-06
-5.79447e-08
-3.3377e-06
-4.93346e-08
-3.30178e-06
-6.64715e-08
-3.26976e-06
-6.52191e-08
-3.23662e-06
-7.02871e-08
-3.19692e-06
-8.4478e-08
-3.15763e-06
-9.21339e-08
-3.12004e-06
-1.00657e-07
-3.09111e-06
-1.15347e-07
-3.05317e-06
-1.19678e-07
-2.99103e-06
-1.17201e-07
-2.89793e-06
-1.28173e-07
-2.8065e-06
-1.18685e-07
-2.74553e-06
-9.73185e-08
-2.70011e-06
-7.8957e-08
-2.66368e-06
-7.07049e-08
-2.62155e-06
-8.12059e-08
-2.57959e-06
-8.18905e-08
-2.54062e-06
-7.8732e-08
-2.50223e-06
-7.82687e-08
-2.46097e-06
-8.23005e-08
-2.41969e-06
-8.32955e-08
-2.37831e-06
-8.47915e-08
-2.3365e-06
-8.76555e-08
-2.29513e-06
-9.0384e-08
-2.25534e-06
-9.43736e-08
-2.22268e-06
-1.00467e-07
-2.1854e-06
-1.01742e-07
-2.13269e-06
-9.99321e-08
-2.06097e-06
-1.05234e-07
-1.99075e-06
-9.84416e-08
-1.94018e-06
-8.43232e-08
-1.90109e-06
-7.16146e-08
-1.86843e-06
-6.49418e-08
-1.83225e-06
-7.02816e-08
-1.79708e-06
-6.93351e-08
-1.76247e-06
-6.87009e-08
-1.72708e-06
-6.99363e-08
-1.69203e-06
-6.98279e-08
-1.65745e-06
-6.93987e-08
-1.62283e-06
-6.94809e-08
-1.58829e-06
-6.93449e-08
-1.55398e-06
-6.8955e-08
-1.51984e-06
-6.85571e-08
-1.4859e-06
-6.81203e-08
-1.4522e-06
-6.75643e-08
-1.41876e-06
-6.69419e-08
-1.38557e-06
-6.62485e-08
-1.35263e-06
-6.55829e-08
-1.31996e-06
-6.48714e-08
-1.28756e-06
-6.41787e-08
-1.25546e-06
-6.34426e-08
-1.22367e-06
-6.26619e-08
-1.19221e-06
-6.18923e-08
-1.16109e-06
-6.11324e-08
-1.1303e-06
-6.03467e-08
-1.09989e-06
-5.9522e-08
-1.06987e-06
-5.87065e-08
-1.04023e-06
-5.79076e-08
-1.01101e-06
-5.70741e-08
-9.82217e-07
-5.6221e-08
-9.53849e-07
-5.53828e-08
-9.25912e-07
-5.45279e-08
-8.9842e-07
-5.36428e-08
-8.71376e-07
-5.27547e-08
-8.44772e-07
-5.1883e-08
-8.18611e-07
-5.10073e-08
-7.92902e-07
-5.01202e-08
-7.67651e-07
-4.92355e-08
-7.42857e-07
-4.83447e-08
-7.18518e-07
-4.74472e-08
-6.94639e-07
-4.65562e-08
-6.71218e-07
-4.56825e-08
-6.48245e-07
-4.48145e-08
-6.25707e-07
-4.39491e-08
-6.036e-07
-4.30904e-08
-5.81925e-07
-4.22503e-08
-5.60682e-07
-4.14152e-08
-5.39873e-07
-4.05724e-08
-5.19501e-07
-3.97187e-08
-4.99561e-07
-3.88858e-08
-4.80045e-07
-3.80765e-08
-4.60951e-07
-3.72611e-08
-4.42273e-07
-3.644e-08
-4.24002e-07
-3.56402e-08
-4.06132e-07
-3.48583e-08
-3.88661e-07
-3.40694e-08
-3.71589e-07
-3.32774e-08
-3.54909e-07
-3.2505e-08
-3.38614e-07
-3.17478e-08
-3.22705e-07
-3.09857e-08
-3.07183e-07
-3.02209e-08
-2.92045e-07
-2.94703e-08
-2.77289e-07
-2.87309e-08
-2.62915e-07
-2.79852e-08
-2.48924e-07
-2.72358e-08
-2.3531e-07
-2.65002e-08
-2.22065e-07
-2.57808e-08
-2.09184e-07
-2.5064e-08
-1.96673e-07
-2.43418e-08
-1.84534e-07
-2.36236e-08
-1.72758e-07
-2.29205e-08
-1.6134e-07
-2.22308e-08
-1.50273e-07
-2.15474e-08
-1.39549e-07
-2.0872e-08
-1.29157e-07
-2.02128e-08
-1.19089e-07
-1.95663e-08
-1.09346e-07
-1.89221e-08
-9.99286e-08
-1.8281e-08
-9.08306e-08
-1.76508e-08
-8.20459e-08
-1.70322e-08
-7.35694e-08
-1.64237e-08
-6.53946e-08
-1.58278e-08
-5.75141e-08
-1.52456e-08
-4.99214e-08
-1.46758e-08
-4.26114e-08
-1.41202e-08
-3.55801e-08
-1.35801e-08
-2.88252e-08
-1.3051e-08
-2.23443e-08
-1.25327e-08
-1.61308e-08
-1.20308e-08
-1.01751e-08
-1.15422e-08
-4.46909e-09
-1.10546e-08
9.93234e-10
-1.0566e-08
6.21958e-09
-1.00886e-08
1.1218e-08
-9.62647e-09
1.59931e-08
-9.17064e-09
2.05462e-08
-8.72073e-09
2.48798e-08
-8.28837e-09
2.8998e-08
-7.87659e-09
3.29033e-08
-7.47296e-09
3.65984e-08
-7.07131e-09
4.00899e-08
-6.68088e-09
4.33894e-08
-6.30866e-09
4.65079e-08
-5.9481e-09
4.94531e-08
-5.59328e-09
5.22315e-08
-5.25129e-09
5.485e-08
-4.93043e-09
5.73124e-08
-4.62634e-09
5.96193e-08
-4.33015e-09
6.17713e-08
-4.04142e-09
6.37728e-08
-3.76418e-09
6.56299e-08
-3.49766e-09
6.7351e-08
-3.23974e-09
6.89465e-08
-2.99238e-09
7.04277e-08
-2.75696e-09
7.18033e-08
-2.52944e-09
7.30768e-08
-2.30556e-09
7.42494e-08
-2.08891e-09
7.53207e-08
-1.88281e-09
7.62895e-08
-1.6872e-09
7.71553e-08
-1.49833e-09
7.79199e-08
-1.31455e-09
7.8587e-08
-1.13632e-09
7.9163e-08
-9.62501e-10
7.9646e-08
-7.92591e-10
8.00418e-08
-6.29618e-10
8.03583e-08
-4.80789e-10
8.06065e-08
-3.47901e-10
8.07959e-08
-2.23673e-10
8.09294e-08
-1.00172e-10
8.10062e-08
2.08923e-11
8.10268e-08
1.30574e-10
8.09954e-08
2.25508e-10
8.09161e-08
3.13791e-10
8.07893e-08
4.04677e-10
8.06132e-08
4.95472e-10
8.03886e-08
5.74452e-10
8.01207e-08
6.3673e-10
7.98152e-08
6.91495e-10
7.9475e-08
7.50889e-10
7.91021e-08
8.16782e-10
7.86996e-08
8.82597e-10
7.82709e-08
9.44876e-10
7.78168e-08
1.00593e-09
7.73365e-08
1.06616e-09
7.68306e-08
1.12138e-09
7.63017e-08
1.16966e-09
7.57517e-08
1.21355e-09
7.51806e-08
1.2535e-09
7.45888e-08
1.2864e-09
7.39768e-08
1.3129e-09
7.33447e-08
1.33929e-09
7.26918e-08
1.36925e-09
7.20191e-08
1.4006e-09
7.13281e-08
1.43107e-09
7.06196e-08
1.46198e-09
6.9894e-08
1.49422e-09
6.91536e-08
1.52541e-09
6.84021e-08
1.55373e-09
6.76422e-08
1.58059e-09
6.68747e-08
1.6069e-09
6.60999e-08
1.62868e-09
6.53194e-08
1.64001e-09
6.45363e-08
1.63936e-09
6.37534e-08
1.6302e-09
6.29726e-08
1.61622e-09
6.21959e-08
1.59793e-09
6.14255e-08
1.57449e-09
6.06636e-08
1.54725e-09
5.99104e-08
1.52032e-09
5.91649e-08
1.49806e-09
5.84251e-08
1.48239e-09
5.76893e-08
1.47328e-09
5.6956e-08
1.4716e-09
5.62242e-08
1.47752e-09
5.54924e-08
1.48934e-09
5.47593e-08
1.50337e-09
5.40244e-08
1.51583e-09
5.32881e-08
1.52463e-09
5.25516e-08
1.52944e-09
5.18166e-08
1.53018e-09
5.10851e-08
1.52571e-09
5.03593e-08
1.51423e-09
4.96413e-08
1.49455e-09
4.89332e-08
1.46723e-09
4.82362e-08
1.43462e-09
4.7551e-08
1.39985e-09
4.68776e-08
1.36577e-09
4.62153e-08
1.33429e-09
4.55635e-08
1.30647e-09
4.49217e-08
1.28272e-09
4.42895e-08
1.26276e-09
4.36671e-08
1.24592e-09
4.30543e-08
1.23103e-09
4.24513e-08
1.21666e-09
4.18581e-08
1.20133e-09
4.12753e-08
1.18353e-09
4.07036e-08
1.1622e-09
4.01444e-08
1.13734e-09
3.95982e-08
1.11055e-09
3.9064e-08
1.08455e-09
3.85389e-08
1.06157e-09
3.80191e-08
1.04194e-09
3.75026e-08
1.02436e-09
3.69896e-08
1.00844e-09
3.64819e-08
9.96902e-10
3.59795e-08
9.93616e-10
3.54804e-08
9.98246e-10
3.49827e-08
1.00423e-09
3.44878e-08
1.00312e-09
3.40002e-08
9.92317e-10
3.35229e-08
9.76141e-10
3.30552e-08
9.58377e-10
3.25952e-08
9.36196e-10
3.21439e-08
9.05148e-10
3.17035e-08
8.69358e-10
3.12731e-08
8.4141e-10
3.08477e-08
8.29028e-10
3.04224e-08
8.26744e-10
2.9997e-08
8.25379e-10
2.95742e-08
8.23925e-10
2.91547e-08
8.27774e-10
2.87365e-08
8.37318e-10
2.83189e-08
8.44545e-10
2.79038e-08
8.43092e-10
2.74925e-08
8.35344e-10
2.7085e-08
8.25675e-10
2.66807e-08
8.13278e-10
2.62799e-08
7.97377e-10
2.58822e-08
7.82751e-10
2.5486e-08
7.74099e-10
2.50907e-08
7.70578e-10
2.46968e-08
7.7066e-10
2.43037e-08
7.76034e-10
2.39106e-08
7.85807e-10
2.35189e-08
7.92437e-10
2.31324e-08
7.88926e-10
2.27538e-08
7.76675e-10
2.23824e-08
7.61933e-10
2.20155e-08
7.47679e-10
2.16508e-08
7.33233e-10
2.12875e-08
7.20206e-10
2.09243e-08
7.13455e-10
2.05602e-08
7.15609e-10
2.01947e-08
7.23483e-10
1.98291e-08
7.31235e-10
1.94656e-08
7.35139e-10
1.91061e-08
7.34157e-10
1.87516e-08
7.27507e-10
1.8403e-08
7.14132e-10
1.8061e-08
6.94837e-10
1.77257e-08
6.73692e-10
1.73962e-08
6.56247e-10
1.70704e-08
6.45653e-10
1.6747e-08
6.39914e-10
1.64274e-08
6.33888e-10
1.61141e-08
6.25063e-10
1.58087e-08
6.15372e-10
1.55101e-08
6.05455e-10
1.52175e-08
5.9136e-10
1.49307e-08
5.71208e-10
1.46482e-08
5.50566e-10
1.4367e-08
5.37197e-10
1.4085e-08
5.33367e-10
1.38029e-08
5.36306e-10
1.35229e-08
5.41669e-10
1.32477e-08
5.43913e-10
1.29798e-08
5.38421e-10
1.27202e-08
5.25665e-10
1.24668e-08
5.10198e-10
1.22158e-08
4.97e-10
1.19631e-08
4.90456e-10
1.17061e-08
4.92896e-10
1.14448e-08
5.02242e-10
1.11815e-08
5.14155e-10
1.09191e-08
5.24186e-10
1.06609e-08
5.28117e-10
1.04082e-08
5.23117e-10
1.01601e-08
5.09299e-10
9.91501e-09
4.91285e-10
9.67083e-09
4.77073e-10
9.42639e-09
4.71508e-10
9.18361e-09
4.69956e-10
8.94779e-09
4.63566e-10
8.72104e-09
4.5504e-10
8.49998e-09
4.48914e-10
8.28062e-09
4.40567e-10
8.06022e-09
4.30674e-10
7.83905e-09
4.23885e-10
7.62021e-09
4.20784e-10
7.40608e-09
4.19887e-10
7.19825e-09
4.1678e-10
6.99807e-09
4.06084e-10
6.80605e-09
3.88735e-10
6.61806e-09
3.75649e-10
6.43104e-09
3.67693e-10
6.2451e-09
3.60716e-10
6.06093e-09
3.57518e-10
5.87842e-09
3.5534e-10
5.70047e-09
3.46228e-10
5.52566e-09
3.3647e-10
5.35489e-09
3.38069e-10
5.1939e-09
3.36066e-10
5.03041e-09
3.45245e-10
4.86656e-09
3.46118e-10
4.72711e-09
3.01171e-10
4.62727e-09
2.52691e-10
4.53872e-09
2.29213e-10
4.42538e-09
2.31914e-10
4.29454e-09
2.28597e-10
4.16701e-09
2.11706e-10
4.05886e-09
1.92194e-10
3.96629e-09
1.53387e-10
3.87489e-09
1.48422e-10
3.79302e-09
1.40167e-10
3.70592e-09
1.62477e-10
3.62339e-09
1.64885e-10
3.54078e-09
1.55668e-10
3.46126e-09
1.52889e-10
3.39236e-09
1.13204e-10
3.3178e-09
1.35894e-10
3.226e-09
1.91493e-10
3.14853e-09
1.71433e-10
3.07576e-09
1.60345e-10
3.03322e-09
1.04012e-10
2.9877e-09
1.17097e-10
2.93781e-09
1.12593e-10
2.89839e-09
6.87971e-11
2.86222e-09
4.66246e-11
2.81625e-09
2.8004e-11
2.75385e-09
8.39726e-11
2.74106e-09
3.56627e-12
2.72049e-09
5.05305e-11
2.67383e-09
8.4987e-11
2.66048e-09
7.74763e-11
2.65771e-09
4.09815e-11
2.63699e-09
9.49566e-12
2.63451e-09
5.17716e-11
2.59191e-09
3.6524e-11
2.48239e-09
8.26519e-11
2.46521e-09
4.85813e-11
2.413e-09
9.45897e-11
2.30528e-09
2.24617e-10
2.44575e-09
-1.09041e-10
2.59652e-09
-5.17987e-11
3.22779e-09
-5.52752e-10
3.83262e-09
-7.09464e-10
4.18275e-09
-4.05162e-10
4.16669e-09
-5.35918e-10
3.85309e-09
-1.42618e-10
3.81015e-09
-5.4391e-11
3.75985e-09
-3.33602e-11
3.66171e-09
1.29534e-10
3.53736e-09
2.01192e-10
3.37566e-09
2.62679e-10
3.16455e-09
3.54316e-10
2.96142e-09
3.97741e-10
2.79071e-09
3.98272e-10
2.62003e-09
4.16157e-10
2.43144e-09
4.46981e-10
2.2387e-09
4.44804e-10
2.04962e-09
4.08908e-10
1.85493e-09
3.77297e-10
1.64765e-09
3.73293e-10
1.44239e-09
3.7734e-10
1.26001e-09
3.58375e-10
1.11068e-09
3.10769e-10
9.92706e-10
2.51436e-10
8.95516e-10
2.04504e-10
8.02867e-10
1.84704e-10
7.00475e-10
1.95235e-10
5.7832e-10
2.30318e-10
4.36426e-10
2.733e-10
2.81935e-10
3.0942e-10
1.28264e-10
3.25975e-10
-1.18777e-11
3.20665e-10
-1.29938e-10
2.96964e-10
-2.202e-10
2.57265e-10
-2.80066e-10
2.02853e-10
-3.08961e-10
1.33272e-10
-3.08516e-10
4.89356e-11
-2.79456e-10
-4.51717e-11
-2.25696e-10
-1.43172e-10
-1.48748e-10
-2.32498e-10
-4.88555e-11
-3.08196e-10
7.36017e-11
-3.64806e-10
2.1901e-10
-4.03667e-10
3.82178e-10
-4.22874e-10
5.5497e-10
-4.23609e-10
7.23993e-10
-4.02546e-10
8.72694e-10
-3.54651e-10
9.87421e-10
-2.80331e-10
1.06581e-09
-1.92221e-10
1.11419e-09
-1.08782e-10
1.15217e-09
-5.4918e-11
1.1916e-09
-3.63324e-11
1.23757e-09
-4.71526e-11
1.29629e-09
-8.23528e-11
1.37087e-09
-1.40636e-10
1.46856e-09
-2.21881e-10
1.59691e-09
-3.11384e-10
1.74549e-09
-3.67457e-10
1.88256e-09
-3.37697e-10
1.97905e-09
-2.17995e-10
2.03758e-09
-8.36665e-11
2.09212e-09
-3.94e-11
2.18026e-09
-1.29811e-10
2.27004e-09
-2.51675e-10
2.28776e-09
-2.22155e-10
2.18773e-09
1.97732e-11
2.01879e-09
3.08436e-10
1.9217e-09
3.83609e-10
1.96158e-09
1.82772e-10
1.98987e-09
-7.25132e-12
1.8825e-09
8.53532e-11
1.64511e-09
3.78959e-10
1.5095e-09
4.43227e-10
1.59036e-09
1.33039e-10
1.65846e-09
-1.41823e-10
1.53219e-09
-3.32712e-11
1.42721e-09
1.11648e-10
1.53017e-09
-8.04798e-11
1.60802e-09
-2.98718e-10
1.42565e-09
-1.67734e-10
1.27348e-09
9.23086e-11
1.21111e-09
2.1209e-10
1.09733e-09
1.84628e-10
1.02077e-09
3.40508e-10
1.11576e-09
1.54355e-10
9.76528e-10
-5.30656e-06
9.22909e-08
-5.52092e-06
4.7801e-07
-5.69906e-06
4.77178e-07
-5.88396e-06
4.77145e-07
-6.05939e-06
4.92148e-07
-6.22437e-06
4.95738e-07
-6.38779e-06
4.92023e-07
-6.55458e-06
4.94496e-07
-6.72348e-06
4.97397e-07
-6.89602e-06
4.99735e-07
-7.0724e-06
5.05172e-07
-7.24991e-06
5.09702e-07
-7.43009e-06
5.15004e-07
-7.60317e-06
5.2028e-07
-7.77807e-06
5.21259e-07
-7.95302e-06
5.19633e-07
-8.12377e-06
5.13438e-07
-8.29334e-06
5.0704e-07
-8.4613e-06
5.02179e-07
-8.62591e-06
4.9643e-07
-8.78648e-06
4.88127e-07
-8.9415e-06
4.78161e-07
-9.09139e-06
4.68326e-07
-9.23838e-06
4.56189e-07
-9.38262e-06
4.43633e-07
-9.51961e-06
4.29582e-07
-9.64946e-06
4.15104e-07
-9.77594e-06
4.06301e-07
-9.89976e-06
3.96204e-07
-1.00167e-05
3.80535e-07
-1.01309e-05
3.78146e-07
-1.02437e-05
3.7356e-07
-1.03521e-05
3.47877e-07
-1.04536e-05
3.01277e-07
-1.05427e-05
2.80055e-07
-1.06237e-05
2.71233e-07
-1.06994e-05
2.58362e-07
-1.07705e-05
2.41808e-07
-1.08332e-05
2.04465e-07
-1.08811e-05
1.72537e-07
-1.09207e-05
1.59106e-07
-1.09535e-05
1.43461e-07
-1.09849e-05
1.16903e-07
-1.10143e-05
9.04349e-08
-1.10328e-05
7.16411e-08
-1.10406e-05
5.5454e-08
-1.10476e-05
3.61737e-08
-1.10571e-05
1.43971e-08
-1.10591e-05
-7.29928e-09
-1.10489e-05
-2.7952e-08
-1.10306e-05
-5.19591e-08
-1.10089e-05
-8.02082e-08
-1.09795e-05
-1.07724e-07
-1.0942e-05
-1.3494e-07
-1.08938e-05
-1.58288e-07
-1.08361e-05
-1.78371e-07
-1.0771e-05
-1.98959e-07
-1.07008e-05
-2.17742e-07
-1.06235e-05
-2.31446e-07
-1.05407e-05
-2.4519e-07
-1.04531e-05
-2.62557e-07
-1.0361e-05
-2.80757e-07
-1.02634e-05
-2.98306e-07
-1.01585e-05
-3.16593e-07
-1.00463e-05
-3.4118e-07
-9.92582e-06
-3.71764e-07
-9.79636e-06
-4.02841e-07
-9.65805e-06
-4.36766e-07
-9.51116e-06
-4.73003e-07
-9.35431e-06
-5.13032e-07
-9.18928e-06
-5.56793e-07
-9.0181e-06
-6.08169e-07
-8.84388e-06
-6.70146e-07
-8.671e-06
-7.47805e-07
-8.50865e-06
-8.41012e-07
-8.37228e-06
-9.49347e-07
-8.30134e-06
-1.06514e-06
-8.33763e-06
-1.17439e-06
-8.36653e-06
-1.25685e-06
-8.31e-06
-1.35327e-06
-8.29696e-06
-1.47279e-06