/*--------------------------------*- C++ -*----------------------------------*\
| =========                 |                                                 |
| \\      /  F ield         | OpenFOAM: The Open Source CFD Toolbox           |
|  \\    /   O peration     | Version:  v2006                                 |
|   \\  /    A nd           | Website:  www.openfoam.com                      |
|    \\/     M anipulation  |                                                 |
\*---------------------------------------------------------------------------*/
FoamFile
{
    version     2.0;
    format      ascii;
    class       volVectorField;
    location    "1.1";
    object      U;
}
// * * * * * * * * * * * * * * * * * * * * * * * * * * * * * * * * * * * * * //

dimensions      [0 1 -1 0 0 0 0];


internalField   nonuniform List<vector> 
33000
(
(-0.0155326 0 -0.000110031)
(-0.0156759 0 0.000343952)
(-0.0134712 0 0.000361376)
(-0.0141603 0 0.000304041)
(-0.0144718 0 0.000350521)
(-0.0149225 0 0.000378422)
(-0.0153497 0 0.000364071)
(-0.0157839 0 0.000353429)
(-0.0162115 0 0.000344244)
(-0.0166379 0 0.000331578)
(-0.0170585 0 0.00032689)
(-0.0174769 0 0.000327513)
(-0.017895 0 0.000327561)
(-0.0183297 0 0.00035244)
(-0.0187748 0 0.000347516)
(-0.0192136 0 0.000342682)
(-0.0196472 0 0.000341204)
(-0.0200746 0 0.000335552)
(-0.0204953 0 0.000330296)
(-0.0209125 0 0.000329786)
(-0.0213265 0 0.000327171)
(-0.0217346 0 0.000322877)
(-0.0221379 0 0.000317681)
(-0.0225276 0 0.000307143)
(-0.0229022 0 0.000295168)
(-0.0232656 0 0.000290876)
(-0.0236216 0 0.000284507)
(-0.0239674 0 0.000274438)
(-0.0242988 0 0.000262753)
(-0.0246217 0 0.000256883)
(-0.0249334 0 0.000249952)
(-0.025234 0 0.000237815)
(-0.0255134 0 0.000218849)
(-0.0257646 0 0.000197722)
(-0.0260011 0 0.000193776)
(-0.026234 0 0.000183663)
(-0.0264471 0 0.000165271)
(-0.0266367 0 0.000143477)
(-0.0268045 0 0.00012839)
(-0.0269624 0 0.000128183)
(-0.0271161 0 0.000121342)
(-0.0272631 0 0.000108789)
(-0.0273824 0 8.13172e-05)
(-0.0274631 0 5.59907e-05)
(-0.0275315 0 5.46867e-05)
(-0.0275995 0 5.32145e-05)
(-0.0276475 0 2.62381e-05)
(-0.0276576 0 -8.22882e-06)
(-0.0276381 0 -2.24534e-05)
(-0.0276088 0 -2.48862e-05)
(-0.0275691 0 -3.87898e-05)
(-0.0275018 0 -6.85988e-05)
(-0.0274022 0 -9.10036e-05)
(-0.0272771 0 -0.00010919)
(-0.0271365 0 -0.000115)
(-0.0269871 0 -0.000122502)
(-0.0268247 0 -0.000134463)
(-0.0266469 0 -0.000146652)
(-0.02646 0 -0.000149892)
(-0.0262671 0 -0.000156111)
(-0.0260614 0 -0.000169859)
(-0.025838 0 -0.000184484)
(-0.0255989 0 -0.000195201)
(-0.0253452 0 -0.000207513)
(-0.0250728 0 -0.000224425)
(-0.0247765 0 -0.000244891)
(-0.0244523 0 -0.000268344)
(-0.0240962 0 -0.000294618)
(-0.023705 0 -0.000324174)
(-0.0232737 0 -0.000358502)
(-0.0227932 0 -0.000402941)
(-0.022248 0 -0.000464246)
(-0.0216121 0 -0.000554583)
(-0.0208453 0 -0.000699383)
(-0.0198724 0 -0.000935622)
(-0.0184901 0 -0.00133183)
(-0.0166991 0 -0.00204953)
(-0.0157206 0 -0.00310912)
(-0.00990005 0 -0.00157597)
(-0.00972131 0 -1.5221e-05)
(-0.00853388 0 0.000609063)
(-0.00871838 0 0.000962364)
(-0.00870944 0 -1.27558e-05)
(-0.00863811 0 -0.000138377)
(-0.00884117 0 -0.000180075)
(-0.00884088 0 -0.000124544)
(-0.00865107 0 -5.99386e-05)
(-0.00856538 0 1.45085e-05)
(-0.00851183 0 4.91335e-05)
(-0.00846955 0 -1.78567e-05)
(-0.00840751 0 -3.65542e-05)
(-0.00835926 0 -4.89803e-05)
(-0.00829081 0 -6.31523e-05)
(-0.0082028 0 -6.55492e-05)
(-0.00811264 0 -7.65203e-05)
(-0.00800547 0 -9.27398e-05)
(-0.00788426 0 -0.000114188)
(-0.0077071 0 -0.000140509)
(-0.00765206 0 -0.00020416)
(-0.00720138 0 -0.000176178)
(-0.00716871 0 -9.46774e-05)
(-0.00702052 0 -2.53387e-05)
(-0.00695743 0 -1.87384e-05)
(-0.00687434 0 -6.58194e-05)
(-0.00678134 0 -7.18519e-05)
(-0.00669693 0 -7.37108e-05)
(-0.00660284 0 -7.74653e-05)
(-0.00650063 0 -7.79306e-05)
(-0.00639936 0 -7.75939e-05)
(-0.00629907 0 -7.83263e-05)
(-0.00619708 0 -8.07923e-05)
(-0.00609318 0 -8.30514e-05)
(-0.00598535 0 -8.60769e-05)
(-0.00587485 0 -9.20005e-05)
(-0.00575671 0 -9.9564e-05)
(-0.00561136 0 -0.000115)
(-0.00554719 0 -0.000149296)
(-0.00521593 0 -0.000133783)
(-0.00516765 0 -8.59613e-05)
(-0.00504611 0 -4.59677e-05)
(-0.00497072 0 -4.21887e-05)
(-0.00489057 0 -6.48043e-05)
(-0.00480127 0 -6.71952e-05)
(-0.00471649 0 -6.58448e-05)
(-0.00463047 0 -6.80824e-05)
(-0.00454181 0 -6.79952e-05)
(-0.004454 0 -6.82864e-05)
(-0.0043669 0 -6.84295e-05)
(-0.00427911 0 -6.85056e-05)
(-0.00419167 0 -6.81964e-05)
(-0.00410482 0 -6.82296e-05)
(-0.00401829 0 -6.8097e-05)
(-0.00393227 0 -6.78065e-05)
(-0.00384693 0 -6.7322e-05)
(-0.00376211 0 -6.68866e-05)
(-0.00367781 0 -6.63843e-05)
(-0.00359407 0 -6.58142e-05)
(-0.00351103 0 -6.51724e-05)
(-0.00342867 0 -6.45588e-05)
(-0.00334699 0 -6.39082e-05)
(-0.00326595 0 -6.33029e-05)
(-0.00318555 0 -6.26397e-05)
(-0.00310591 0 -6.19243e-05)
(-0.00302704 0 -6.12356e-05)
(-0.0029489 0 -6.05355e-05)
(-0.00287157 0 -5.97814e-05)
(-0.00279512 0 -5.89904e-05)
(-0.0027196 0 -5.8227e-05)
(-0.00264495 0 -5.74717e-05)
(-0.00257124 0 -5.66697e-05)
(-0.00249855 0 -5.58599e-05)
(-0.00242689 0 -5.50508e-05)
(-0.00235628 0 -5.41991e-05)
(-0.00228679 0 -5.33126e-05)
(-0.00221844 0 -5.24217e-05)
(-0.00215123 0 -5.15396e-05)
(-0.00208515 0 -5.06446e-05)
(-0.00202022 0 -4.97532e-05)
(-0.00195644 0 -4.88816e-05)
(-0.00189381 0 -4.79841e-05)
(-0.00183235 0 -4.70635e-05)
(-0.00177208 0 -4.61862e-05)
(-0.00171292 0 -4.53644e-05)
(-0.00165487 0 -4.45192e-05)
(-0.00159793 0 -4.36281e-05)
(-0.00154215 0 -4.27451e-05)
(-0.00148745 0 -4.19184e-05)
(-0.00143381 0 -4.11021e-05)
(-0.00138124 0 -4.0264e-05)
(-0.00132977 0 -3.9407e-05)
(-0.00127939 0 -3.8603e-05)
(-0.00123003 0 -3.78389e-05)
(-0.00118168 0 -3.70424e-05)
(-0.00113439 0 -3.62182e-05)
(-0.00108815 0 -3.54288e-05)
(-0.00104291 0 -3.46628e-05)
(-0.000998646 0 -3.38699e-05)
(-0.00095541 0 -3.30647e-05)
(-0.000913179 0 -3.22929e-05)
(-0.000871917 0 -3.15357e-05)
(-0.000831634 0 -3.07636e-05)
(-0.00079235 0 -2.99926e-05)
(-0.000754045 0 -2.92558e-05)
(-0.00071668 0 -2.85391e-05)
(-0.000680249 0 -2.78126e-05)
(-0.000644768 0 -2.70807e-05)
(-0.000610225 0 -2.6364e-05)
(-0.000576592 0 -2.56573e-05)
(-0.000543865 0 -2.4948e-05)
(-0.000512052 0 -2.42389e-05)
(-0.000481155 0 -2.35443e-05)
(-0.000451149 0 -2.28705e-05)
(-0.000422013 0 -2.22098e-05)
(-0.000393734 0 -2.15498e-05)
(-0.000366315 0 -2.08858e-05)
(-0.000339749 0 -2.02249e-05)
(-0.00031402 0 -1.95731e-05)
(-0.000289121 0 -1.89297e-05)
(-0.000265049 0 -1.82939e-05)
(-0.000241794 0 -1.7666e-05)
(-0.000219337 0 -1.7044e-05)
(-0.000197665 0 -1.64302e-05)
(-0.000176757 0 -1.58291e-05)
(-0.000156596 0 -1.52394e-05)
(-0.000137166 0 -1.46603e-05)
(-0.00011846 0 -1.41009e-05)
(-0.000100457 0 -1.35682e-05)
(-8.31388e-05 0 -1.30582e-05)
(-6.64941e-05 0 -1.25721e-05)
(-5.04966e-05 0 -1.2113e-05)
(-3.5116e-05 0 -1.16616e-05)
(-2.03452e-05 0 -1.11884e-05)
(-6.20203e-06 0 -1.06964e-05)
(7.31965e-06 0 -1.02071e-05)
(2.02463e-05 0 -9.72784e-06)
(3.25833e-05 0 -9.24195e-06)
(4.43214e-05 0 -8.76023e-06)
(5.54734e-05 0 -8.3137e-06)
(6.60788e-05 0 -7.90839e-06)
(7.61654e-05 0 -7.51921e-06)
(8.57326e-05 0 -7.13303e-06)
(9.47896e-05 0 -6.7634e-06)
(0.000103368 0 -6.41301e-06)
(0.000111491 0 -6.06027e-06)
(0.000119154 0 -5.69507e-06)
(0.00012636 0 -5.33174e-06)
(0.000133135 0 -4.99593e-06)
(0.000139508 0 -4.68487e-06)
(0.000145494 0 -4.38927e-06)
(0.000151099 0 -4.11009e-06)
(0.000156337 0 -3.85139e-06)
(0.00016123 0 -3.60358e-06)
(0.00016579 0 -3.35977e-06)
(0.000170024 0 -3.11767e-06)
(0.000173946 0 -2.87521e-06)
(0.000177565 0 -2.62704e-06)
(0.000180878 0 -2.37448e-06)
(0.000183891 0 -2.13121e-06)
(0.00018662 0 -1.91325e-06)
(0.000189092 0 -1.7223e-06)
(0.000191328 0 -1.54771e-06)
(0.000193337 0 -1.37872e-06)
(0.000195127 0 -1.21088e-06)
(0.000196699 0 -1.04401e-06)
(0.000198058 0 -8.77842e-07)
(0.000199212 0 -7.2325e-07)
(0.000200169 0 -5.83675e-07)
(0.000200943 0 -4.50028e-07)
(0.00020154 0 -3.07665e-07)
(0.000201952 0 -1.55992e-07)
(0.000202178 0 -1.55531e-08)
(0.000202241 0 9.35105e-08)
(0.000202179 0 1.76626e-07)
(0.000202012 0 2.58836e-07)
(0.000201734 0 3.53636e-07)
(0.000201335 0 4.44793e-07)
(0.000200829 0 5.07508e-07)
(0.00020025 0 5.40938e-07)
(0.000199619 0 5.69998e-07)
(0.000198926 0 6.18303e-07)
(0.000198147 0 6.87751e-07)
(0.000197271 0 7.67046e-07)
(0.0001963 0 8.48467e-07)
(0.000195238 0 9.29665e-07)
(0.000194085 0 1.00565e-06)
(0.000192846 0 1.07154e-06)
(0.000191533 0 1.13021e-06)
(0.00019015 0 1.18657e-06)
(0.000188701 0 1.23543e-06)
(0.000187197 0 1.26594e-06)
(0.000185659 0 1.27898e-06)
(0.000184098 0 1.2888e-06)
(0.000182509 0 1.30487e-06)
(0.000180887 0 1.32626e-06)
(0.00017923 0 1.34978e-06)
(0.000177538 0 1.37629e-06)
(0.000175807 0 1.40753e-06)
(0.00017403 0 1.44364e-06)
(0.000172205 0 1.48633e-06)
(0.000170326 0 1.53793e-06)
(0.000168388 0 1.59349e-06)
(0.000166392 0 1.6384e-06)
(0.000164357 0 1.65968e-06)
(0.000162307 0 1.65767e-06)
(0.000160265 0 1.64103e-06)
(0.000158243 0 1.61638e-06)
(0.000156248 0 1.58464e-06)
(0.000154291 0 1.5447e-06)
(0.000152382 0 1.49933e-06)
(0.000150524 0 1.455e-06)
(0.000148713 0 1.41913e-06)
(0.000146938 0 1.39408e-06)
(0.000145186 0 1.37887e-06)
(0.000143444 0 1.37932e-06)
(0.000141694 0 1.3977e-06)
(0.000139918 0 1.42932e-06)
(0.000138109 0 1.46456e-06)
(0.000136266 0 1.49466e-06)
(0.000134397 0 1.51661e-06)
(0.000132508 0 1.53232e-06)
(0.000130605 0 1.54361e-06)
(0.000128694 0 1.54858e-06)
(0.000126784 0 1.54279e-06)
(0.000124889 0 1.52294e-06)
(0.000123025 0 1.4882e-06)
(0.000121206 0 1.44266e-06)
(0.000119439 0 1.39255e-06)
(0.000117726 0 1.34331e-06)
(0.000116064 0 1.29854e-06)
(0.000114448 0 1.2607e-06)
(0.000112868 0 1.23159e-06)
(0.000111318 0 1.21125e-06)
(0.00010979 0 1.19916e-06)
(0.000108275 0 1.19255e-06)
(0.000106773 0 1.18747e-06)
(0.000105281 0 1.18012e-06)
(0.000103805 0 1.168e-06)
(0.00010235 0 1.15046e-06)
(0.000100924 0 1.12863e-06)
(9.95294e-05 0 1.1044e-06)
(9.81695e-05 0 1.07822e-06)
(9.68435e-05 0 1.04843e-06)
(9.55513e-05 0 1.01338e-06)
(9.42944e-05 0 9.75993e-07)
(9.30718e-05 0 9.4543e-07)
(9.18739e-05 0 9.33797e-07)
(9.06803e-05 0 9.45498e-07)
(8.94696e-05 0 9.6958e-07)
(8.82343e-05 0 9.88932e-07)
(8.69847e-05 0 9.94455e-07)
(8.57381e-05 0 9.91334e-07)
(8.45036e-05 0 9.86408e-07)
(8.32838e-05 0 9.74632e-07)
(8.20885e-05 0 9.43139e-07)
(8.09392e-05 0 8.8979e-07)
(7.98536e-05 0 8.31675e-07)
(7.88258e-05 0 7.92291e-07)
(7.78273e-05 0 7.76534e-07)
(7.68354e-05 0 7.69805e-07)
(7.58463e-05 0 7.64689e-07)
(7.4859e-05 0 7.69368e-07)
(7.38615e-05 0 7.9172e-07)
(7.28369e-05 0 8.23372e-07)
(7.17834e-05 0 8.45754e-07)
(7.07177e-05 0 8.50771e-07)
(6.96571e-05 0 8.44921e-07)
(6.8608e-05 0 8.33635e-07)
(6.75755e-05 0 8.13485e-07)
(6.657e-05 0 7.8405e-07)
(6.55965e-05 0 7.55179e-07)
(6.46467e-05 0 7.36595e-07)
(6.37073e-05 0 7.29647e-07)
(6.27689e-05 0 7.33644e-07)
(6.18208e-05 0 7.50285e-07)
(6.08498e-05 0 7.75958e-07)
(5.98517e-05 0 7.98371e-07)
(5.8839e-05 0 8.07359e-07)
(5.78303e-05 0 8.03813e-07)
(5.68367e-05 0 7.91849e-07)
(5.58636e-05 0 7.70484e-07)
(5.49179e-05 0 7.39129e-07)
(5.40048e-05 0 7.07026e-07)
(5.31174e-05 0 6.88408e-07)
(5.22367e-05 0 6.89824e-07)
(5.13443e-05 0 7.05321e-07)
(5.04319e-05 0 7.2468e-07)
(4.95012e-05 0 7.41663e-07)
(4.85582e-05 0 7.53331e-07)
(4.76119e-05 0 7.55075e-07)
(4.66758e-05 0 7.41657e-07)
(4.57658e-05 0 7.13513e-07)
(4.48921e-05 0 6.79697e-07)
(4.40528e-05 0 6.51789e-07)
(4.32365e-05 0 6.35494e-07)
(4.24308e-05 0 6.28131e-07)
(4.16303e-05 0 6.24154e-07)
(4.08354e-05 0 6.22162e-07)
(4.00452e-05 0 6.23051e-07)
(3.92584e-05 0 6.21564e-07)
(3.84824e-05 0 6.07089e-07)
(3.77348e-05 0 5.75614e-07)
(3.70289e-05 0 5.35635e-07)
(3.63613e-05 0 5.02427e-07)
(3.57148e-05 0 4.86385e-07)
(3.50695e-05 0 4.91071e-07)
(3.44087e-05 0 5.11587e-07)
(3.37265e-05 0 5.34687e-07)
(3.30313e-05 0 5.46876e-07)
(3.23403e-05 0 5.43077e-07)
(3.16682e-05 0 5.25338e-07)
(3.10232e-05 0 4.9962e-07)
(3.04048e-05 0 4.76141e-07)
(2.98006e-05 0 4.65753e-07)
(2.91914e-05 0 4.73057e-07)
(2.85613e-05 0 4.94817e-07)
(2.79026e-05 0 5.24209e-07)
(2.72173e-05 0 5.50461e-07)
(2.65189e-05 0 5.59047e-07)
(2.58316e-05 0 5.40519e-07)
(2.5179e-05 0 5.03146e-07)
(2.45674e-05 0 4.67798e-07)
(2.39817e-05 0 4.49713e-07)
(2.33999e-05 0 4.47837e-07)
(2.28151e-05 0 4.51918e-07)
(2.22308e-05 0 4.60566e-07)
(2.16434e-05 0 4.66449e-07)
(2.10624e-05 0 4.51975e-07)
(2.05081e-05 0 4.21789e-07)
(1.99814e-05 0 3.99189e-07)
(1.9465e-05 0 3.96453e-07)
(1.89429e-05 0 4.08398e-07)
(1.84084e-05 0 4.22125e-07)
(1.78714e-05 0 4.22007e-07)
(1.73529e-05 0 4.05482e-07)
(1.68616e-05 0 3.84641e-07)
(1.63887e-05 0 3.64809e-07)
(1.59341e-05 0 3.48594e-07)
(1.54894e-05 0 3.4651e-07)
(1.50448e-05 0 3.47421e-07)
(1.46028e-05 0 3.35657e-07)
(1.41837e-05 0 3.20611e-07)
(1.3772e-05 0 3.34384e-07)
(1.33307e-05 0 3.55647e-07)
(1.28776e-05 0 3.5973e-07)
(1.24054e-05 0 3.74217e-07)
(1.19603e-05 0 3.51521e-07)
(1.15746e-05 0 3.65522e-07)
(1.11793e-05 0 3.26861e-07)
(1.08875e-05 0 2.42202e-07)
(1.05055e-05 0 1.73872e-07)
(1.04332e-05 0 1.49506e-07)
(1.01005e-05 0 1.65208e-07)
(9.94793e-06 0 1.11572e-07)
(9.79067e-06 0 9.85581e-08)
(9.64104e-06 0 1.08091e-07)
(9.47524e-06 0 1.51144e-07)
(9.2396e-06 0 1.75668e-07)
(9.04602e-06 0 1.55549e-07)
(8.83652e-06 0 1.60574e-07)
(8.6662e-06 0 8.2616e-08)
(8.5777e-06 0 1.22314e-07)
(8.32687e-06 0 2.05076e-07)
(8.06634e-06 0 2.00668e-07)
(7.81533e-06 0 1.92983e-07)
(7.61708e-06 0 1.53448e-07)
(7.46461e-06 0 1.77857e-07)
(7.24362e-06 0 1.46693e-07)
(7.12025e-06 0 7.48632e-08)
(7.0583e-06 0 2.03061e-08)
(7.08691e-06 0 -7.67557e-08)
(7.05978e-06 0 1.21686e-08)
(7.0178e-06 0 -2.3737e-08)
(7.02922e-06 0 6.95472e-08)
(6.88699e-06 0 7.9695e-08)
(6.79388e-06 0 1.88538e-07)
(6.55525e-06 0 1.10752e-07)
(6.60227e-06 0 -4.68387e-08)
(6.55227e-06 0 1.41287e-07)
(6.38061e-06 0 -2.78092e-08)
(6.54836e-06 0 -9.69563e-08)
(6.47439e-06 0 1.21642e-07)
(6.43459e-06 0 4.08873e-08)
(6.1448e-06 0 1.14461e-08)
(5.95954e-06 0 2.56346e-08)
(5.88661e-06 0 3.21405e-07)
(5.47228e-06 0 6.31672e-07)
(5.49093e-06 0 1.99537e-07)
(6.08793e-06 0 1.42044e-07)
(5.29808e-06 0 -8.2404e-07)
(9.27098e-06 0 -1.45054e-06)
(8.34405e-06 0 -2.11832e-07)
(8.66662e-06 0 -1.91828e-07)
(8.72454e-06 0 4.89362e-08)
(8.56695e-06 0 1.4681e-07)
(8.32928e-06 0 1.83225e-07)
(8.01143e-06 0 2.5355e-07)
(7.57304e-06 0 3.75893e-07)
(7.0287e-06 0 4.75798e-07)
(6.4238e-06 0 5.19178e-07)
(5.77831e-06 0 5.35553e-07)
(5.11641e-06 0 5.15988e-07)
(4.50874e-06 0 4.41266e-07)
(3.99857e-06 0 3.505e-07)
(3.55286e-06 0 3.09913e-07)
(3.11715e-06 0 3.22557e-07)
(2.66719e-06 0 3.39133e-07)
(2.22674e-06 0 3.2045e-07)
(1.83809e-06 0 2.69785e-07)
(1.52762e-06 0 2.16609e-07)
(1.27197e-06 0 1.82696e-07)
(1.02818e-06 0 1.80222e-07)
(7.65472e-07 0 2.07342e-07)
(4.52692e-07 0 2.52435e-07)
(7.92365e-08 0 3.03558e-07)
(-3.44009e-07 0 3.44737e-07)
(-7.98651e-07 0 3.69332e-07)
(-1.26113e-06 0 3.76175e-07)
(-1.70672e-06 0 3.62982e-07)
(-2.10667e-06 0 3.23545e-07)
(-2.42877e-06 0 2.50898e-07)
(-2.63511e-06 0 1.37477e-07)
(-2.67943e-06 0 -8.55345e-09)
(-2.56037e-06 0 -1.72885e-07)
(-2.27245e-06 0 -3.21049e-07)
(-1.82555e-06 0 -4.37913e-07)
(-1.27709e-06 0 -5.10172e-07)
(-6.65825e-07 0 -5.384e-07)
(-3.0557e-08 0 -5.33246e-07)
(5.9756e-07 0 -5.06834e-07)
(1.19431e-06 0 -4.66379e-07)
(1.73557e-06 0 -4.07686e-07)
(2.19752e-06 0 -3.26578e-07)
(2.54132e-06 0 -2.20833e-07)
(2.74214e-06 0 -1.06921e-07)
(2.817e-06 0 -1.00268e-08)
(2.81509e-06 0 4.90877e-08)
(2.79604e-06 0 5.01287e-08)
(2.80675e-06 0 -7.02608e-09)
(2.90076e-06 0 -1.07196e-07)
(3.12902e-06 0 -2.34758e-07)
(3.50841e-06 0 -3.64818e-07)
(4.00669e-06 0 -4.44604e-07)
(4.52299e-06 0 -4.08341e-07)
(4.92486e-06 0 -2.35667e-07)
(5.08949e-06 0 -2.2126e-08)
(5.07632e-06 0 9.80654e-08)
(5.08917e-06 0 -2.49141e-08)
(5.3374e-06 0 -3.19625e-07)
(5.80323e-06 0 -4.75481e-07)
(6.16802e-06 0 -2.75381e-07)
(6.09402e-06 0 2.60624e-07)
(5.50533e-06 0 6.66996e-07)
(4.80957e-06 0 6.18539e-07)
(4.50038e-06 0 1.514e-07)
(4.54332e-06 0 -9.84228e-08)
(4.42032e-06 0 2.20451e-07)
(3.80999e-06 0 6.96216e-07)
(3.0349e-06 0 6.18017e-07)
(2.84058e-06 0 -8.28481e-08)
(3.24691e-06 0 -4.27959e-07)
(3.4475e-06 0 -8.8574e-08)
(3.29475e-06 0 1.49648e-07)
(3.50177e-06 0 -4.61461e-07)
(4.32074e-06 0 -9.90369e-07)
(4.8756e-06 0 -3.15847e-07)
(4.66862e-06 0 3.42219e-07)
(4.38781e-06 0 1.24709e-07)
(3.98585e-06 0 6.01951e-07)
(3.45485e-06 0 7.16966e-07)
(1.6529e-06 0 1.0177e-06)
(-0.0158139 0 -8.58957e-05)
(-0.0160748 0 0.000811976)
(-0.0137927 0 0.000907967)
(-0.014482 0 0.00083454)
(-0.0148237 0 0.000940058)
(-0.0152565 0 0.00100874)
(-0.0156526 0 0.00100495)
(-0.0160617 0 0.00100274)
(-0.0164706 0 0.00099872)
(-0.0168839 0 0.000985427)
(-0.0173015 0 0.000984022)
(-0.017725 0 0.000991161)
(-0.0181544 0 0.000996513)
(-0.0185868 0 0.00104636)
(-0.0190205 0 0.00103851)
(-0.0194546 0 0.00102963)
(-0.0198858 0 0.00102282)
(-0.020311 0 0.00100558)
(-0.0207306 0 0.000993782)
(-0.0211446 0 0.000987842)
(-0.0215502 0 0.00097601)
(-0.0219472 0 0.000961995)
(-0.0223369 0 0.000946177)
(-0.022717 0 0.000915877)
(-0.0230857 0 0.000883047)
(-0.0234409 0 0.000863285)
(-0.0237811 0 0.000840229)
(-0.0241123 0 0.000818737)
(-0.0244377 0 0.000792538)
(-0.0247506 0 0.000768911)
(-0.0250599 0 0.000764377)
(-0.025376 0 0.000747929)
(-0.0256812 0 0.000677007)
(-0.025931 0 0.000576909)
(-0.0261393 0 0.000555503)
(-0.0263441 0 0.000543161)
(-0.026554 0 0.000507711)
(-0.0267632 0 0.000461522)
(-0.0269447 0 0.000387503)
(-0.0270806 0 0.000354643)
(-0.0271983 0 0.000340779)
(-0.0273114 0 0.000312076)
(-0.0274163 0 0.000234855)
(-0.0274903 0 0.000165175)
(-0.0275419 0 0.000150535)
(-0.0275851 0 0.000138304)
(-0.027615 0 7.49464e-05)
(-0.0276306 0 -6.72274e-06)
(-0.027631 0 -4.77331e-05)
(-0.0276157 0 -6.67918e-05)
(-0.0275812 0 -0.000112292)
(-0.027524 0 -0.000190547)
(-0.0274453 0 -0.000250979)
(-0.0273454 0 -0.000305647)
(-0.0272232 0 -0.000334932)
(-0.0270822 0 -0.000362248)
(-0.0269251 0 -0.000399394)
(-0.0267511 0 -0.000437045)
(-0.0265635 0 -0.000452834)
(-0.0263648 0 -0.000474709)
(-0.0261538 0 -0.000512634)
(-0.0259291 0 -0.00055362)
(-0.0256896 0 -0.000587065)
(-0.0254372 0 -0.000620644)
(-0.0251686 0 -0.000671018)
(-0.024875 0 -0.000734967)
(-0.0245542 0 -0.000801515)
(-0.0242062 0 -0.00087704)
(-0.0238276 0 -0.000960971)
(-0.0234167 0 -0.0010546)
(-0.0229726 0 -0.00116945)
(-0.0224922 0 -0.00132033)
(-0.0219722 0 -0.00152717)
(-0.0214136 0 -0.00182759)
(-0.0208287 0 -0.00226602)
(-0.0202609 0 -0.00291799)
(-0.0198665 0 -0.00403233)
(-0.0198609 0 -0.00550413)
(-0.0193963 0 -0.005873)
(-0.0180458 0 -0.00318127)
(-0.0170514 0 -0.00250189)
(-0.0106747 0 -0.000953872)
(-0.0103321 0 -0.00022018)
(-0.00889489 0 0.000418659)
(-0.00879032 0 0.000753754)
(-0.00861164 0 -0.000227209)
(-0.00844727 0 -0.000308226)
(-0.00843913 0 -0.000335986)
(-0.00858232 0 -0.000227273)
(-0.00860548 0 -0.000196539)
(-0.00844047 0 -0.000129717)
(-0.00838377 0 -0.00011408)
(-0.00830332 0 -0.000182077)
(-0.00820986 0 -0.000201943)
(-0.00813705 0 -0.000222149)
(-0.00804332 0 -0.000260454)
(-0.00794267 0 -0.000291867)
(-0.00784345 0 -0.000335133)
(-0.0077629 0 -0.000420102)
(-0.00769323 0 -0.000421635)
(-0.00754368 0 -0.000348679)
(-0.00747097 0 -0.000322133)
(-0.00701601 0 -0.000268271)
(-0.0069567 0 -0.000240014)
(-0.00679504 0 -0.000183359)
(-0.00670625 0 -0.000182063)
(-0.00660856 0 -0.000229934)
(-0.00650005 0 -0.000238677)
(-0.00639959 0 -0.000239188)
(-0.00630396 0 -0.000237467)
(-0.00620452 0 -0.00024222)
(-0.00610066 0 -0.000245672)
(-0.00599728 0 -0.000252194)
(-0.00589343 0 -0.000263564)
(-0.00578922 0 -0.000276822)
(-0.0056849 0 -0.00029862)
(-0.00559733 0 -0.00034253)
(-0.00551476 0 -0.000339905)
(-0.00539197 0 -0.000295878)
(-0.00531476 0 -0.000274844)
(-0.00498793 0 -0.000238107)
(-0.00492196 0 -0.000219307)
(-0.00479625 0 -0.000186589)
(-0.00471133 0 -0.000182719)
(-0.00462736 0 -0.000203553)
(-0.00453633 0 -0.000205194)
(-0.00444915 0 -0.000202795)
(-0.004362 0 -0.00020485)
(-0.00427383 0 -0.000204867)
(-0.00418663 0 -0.000204597)
(-0.00410042 0 -0.000204247)
(-0.00401381 0 -0.000203667)
(-0.00392767 0 -0.000202385)
(-0.00384215 0 -0.00020125)
(-0.00375701 0 -0.000200005)
(-0.00367243 0 -0.000198604)
(-0.0035885 0 -0.000196842)
(-0.0035052 0 -0.000194798)
(-0.00342255 0 -0.00019283)
(-0.00334051 0 -0.000190778)
(-0.00325918 0 -0.000188841)
(-0.00317853 0 -0.000186742)
(-0.00309866 0 -0.000184494)
(-0.00301961 0 -0.000182305)
(-0.00294138 0 -0.000180144)
(-0.00286398 0 -0.000177871)
(-0.00278748 0 -0.000175467)
(-0.00271194 0 -0.000173118)
(-0.00263737 0 -0.000170832)
(-0.00256378 0 -0.00016842)
(-0.00249127 0 -0.000165942)
(-0.00241983 0 -0.000163493)
(-0.00234944 0 -0.000160969)
(-0.00228015 0 -0.000158346)
(-0.00221199 0 -0.00015571)
(-0.00214493 0 -0.000153121)
(-0.00207897 0 -0.000150511)
(-0.00201413 0 -0.000147876)
(-0.00195043 0 -0.000145273)
(-0.00188788 0 -0.000142641)
(-0.00182646 0 -0.000139971)
(-0.00176619 0 -0.00013734)
(-0.00170707 0 -0.000134789)
(-0.00164908 0 -0.000132236)
(-0.0015922 0 -0.000129655)
(-0.00153639 0 -0.000127095)
(-0.00148167 0 -0.000124625)
(-0.00142802 0 -0.000122182)
(-0.00137545 0 -0.000119708)
(-0.00132398 0 -0.00011719)
(-0.00127359 0 -0.000114754)
(-0.00122428 0 -0.000112402)
(-0.00117602 0 -0.000110009)
(-0.0011288 0 -0.000107575)
(-0.00108262 0 -0.00010521)
(-0.00103745 0 -0.000102907)
(-0.000993274 0 -0.000100574)
(-0.000950097 0 -9.82276e-05)
(-0.000907913 0 -9.59504e-05)
(-0.000866699 0 -9.37159e-05)
(-0.000826442 0 -9.14585e-05)
(-0.000787153 0 -8.91964e-05)
(-0.000748833 0 -8.69914e-05)
(-0.000711467 0 -8.48229e-05)
(-0.000675052 0 -8.26295e-05)
(-0.000639596 0 -8.04262e-05)
(-0.000605096 0 -7.82718e-05)
(-0.000571526 0 -7.61649e-05)
(-0.000538866 0 -7.40619e-05)
(-0.000507125 0 -7.19479e-05)
(-0.000476315 0 -6.98551e-05)
(-0.000446427 0 -6.78099e-05)
(-0.000417439 0 -6.57973e-05)
(-0.000389336 0 -6.37931e-05)
(-0.000362103 0 -6.18009e-05)
(-0.000335715 0 -5.98481e-05)
(-0.000310141 0 -5.79322e-05)
(-0.000285375 0 -5.60291e-05)
(-0.000261426 0 -5.41392e-05)
(-0.000238287 0 -5.22782e-05)
(-0.000215937 0 -5.04454e-05)
(-0.000194364 0 -4.86387e-05)
(-0.000173554 0 -4.68672e-05)
(-0.000153489 0 -4.51331e-05)
(-0.00013415 0 -4.34353e-05)
(-0.000115525 0 -4.17883e-05)
(-9.75998e-05 0 -4.02024e-05)
(-8.03678e-05 0 -3.86632e-05)
(-6.3825e-05 0 -3.71684e-05)
(-4.79623e-05 0 -3.57314e-05)
(-3.27558e-05 0 -3.43267e-05)
(-1.81828e-05 0 -3.28992e-05)
(-4.22522e-06 0 -3.14448e-05)
(9.13098e-06 0 -3.00126e-05)
(2.19067e-05 0 -2.86204e-05)
(3.41227e-05 0 -2.7239e-05)
(4.57819e-05 0 -2.5878e-05)
(5.68877e-05 0 -2.45883e-05)
(6.74505e-05 0 -2.33822e-05)
(7.74794e-05 0 -2.22092e-05)
(8.69784e-05 0 -2.1041e-05)
(9.59566e-05 0 -1.99051e-05)
(0.000104439 0 -1.88164e-05)
(0.000112456 0 -1.77444e-05)
(0.000120033 0 -1.66725e-05)
(0.000127184 0 -1.56345e-05)
(0.000133926 0 -1.46703e-05)
(0.000140276 0 -1.37677e-05)
(0.000146237 0 -1.28967e-05)
(0.000151809 0 -1.20554e-05)
(0.000156999 0 -1.12553e-05)
(0.000161819 0 -1.0486e-05)
(0.000166287 0 -9.73403e-06)
(0.000170427 0 -9.00131e-06)
(0.000174267 0 -8.28959e-06)
(0.000177835 0 -7.5887e-06)
(0.000181146 0 -6.89454e-06)
(0.000184203 0 -6.22482e-06)
(0.000187008 0 -5.60338e-06)
(0.000189558 0 -5.02951e-06)
(0.000191851 0 -4.48439e-06)
(0.000193888 0 -3.95457e-06)
(0.000195676 0 -3.43672e-06)
(0.000197229 0 -2.92864e-06)
(0.000198552 0 -2.4286e-06)
(0.000199648 0 -1.95235e-06)
(0.000200532 0 -1.5176e-06)
(0.000201232 0 -1.12033e-06)
(0.000201775 0 -7.33636e-07)
(0.000202179 0 -3.419e-07)
(0.000202443 0 3.3114e-08)
(0.000202564 0 3.55975e-07)
(0.000202547 0 6.25182e-07)
(0.000202407 0 8.79545e-07)
(0.000202151 0 1.14824e-06)
(0.000201774 0 1.40933e-06)
(0.000201271 0 1.61711e-06)
(0.000200652 0 1.76491e-06)
(0.000199933 0 1.89919e-06)
(0.000199125 0 2.06763e-06)
(0.000198232 0 2.27289e-06)
(0.000197261 0 2.48678e-06)
(0.000196221 0 2.69366e-06)
(0.000195118 0 2.89755e-06)
(0.00019395 0 3.09658e-06)
(0.000192716 0 3.27715e-06)
(0.000191421 0 3.43521e-06)
(0.000190072 0 3.5777e-06)
(0.000188671 0 3.70029e-06)
(0.000187217 0 3.78879e-06)
(0.000185713 0 3.84829e-06)
(0.000184158 0 3.9063e-06)
(0.000182552 0 3.97923e-06)
(0.000180894 0 4.06101e-06)
(0.000179189 0 4.14382e-06)
(0.00017744 0 4.23225e-06)
(0.000175646 0 4.33121e-06)
(0.000173812 0 4.43611e-06)
(0.000171944 0 4.54268e-06)
(0.000170054 0 4.65302e-06)
(0.000168145 0 4.76291e-06)
(0.000166217 0 4.85114e-06)
(0.000164271 0 4.89446e-06)
(0.000162315 0 4.88977e-06)
(0.000160357 0 4.85189e-06)
(0.000158402 0 4.79488e-06)
(0.000156454 0 4.72149e-06)
(0.00015452 0 4.62995e-06)
(0.000152604 0 4.52581e-06)
(0.00015071 0 4.42354e-06)
(0.000148838 0 4.33942e-06)
(0.000146982 0 4.28157e-06)
(0.000145139 0 4.25147e-06)
(0.000143303 0 4.255e-06)
(0.000141472 0 4.2921e-06)
(0.000139643 0 4.35261e-06)
(0.000137813 0 4.41927e-06)
(0.000135978 0 4.47708e-06)
(0.000134138 0 4.52005e-06)
(0.000132296 0 4.54924e-06)
(0.000130456 0 4.56506e-06)
(0.000128621 0 4.56207e-06)
(0.000126798 0 4.53205e-06)
(0.000124993 0 4.4696e-06)
(0.000123209 0 4.37662e-06)
(0.000121452 0 4.26271e-06)
(0.000119725 0 4.14049e-06)
(0.000118027 0 4.02114e-06)
(0.000116358 0 3.91229e-06)
(0.000114716 0 3.81871e-06)
(0.000113099 0 3.74297e-06)
(0.000111507 0 3.68464e-06)
(0.000109939 0 3.6413e-06)
(0.000108394 0 3.60784e-06)
(0.000106875 0 3.57735e-06)
(0.000105379 0 3.54263e-06)
(0.000103909 0 3.4971e-06)
(0.000102465 0 3.43676e-06)
(0.000101051 0 3.36231e-06)
(9.96692e-05 0 3.27986e-06)
(9.832e-05 0 3.19774e-06)
(9.69981e-05 0 3.12055e-06)
(9.5694e-05 0 3.04726e-06)
(9.43991e-05 0 2.97581e-06)
(9.31113e-05 0 2.91286e-06)
(9.18345e-05 0 2.87644e-06)
(9.05726e-05 0 2.88196e-06)
(8.93226e-05 0 2.92039e-06)
(8.8077e-05 0 2.95994e-06)
(8.68341e-05 0 2.96988e-06)
(8.56031e-05 0 2.94638e-06)
(8.43963e-05 0 2.90581e-06)
(8.32166e-05 0 2.85421e-06)
(8.20576e-05 0 2.77485e-06)
(8.0917e-05 0 2.65587e-06)
(7.98013e-05 0 2.52231e-06)
(7.87149e-05 0 2.42409e-06)
(7.76492e-05 0 2.38351e-06)
(7.65874e-05 0 2.37552e-06)
(7.55225e-05 0 2.37234e-06)
(7.44608e-05 0 2.37834e-06)
(7.34087e-05 0 2.41191e-06)
(7.2363e-05 0 2.46585e-06)
(7.13178e-05 0 2.50562e-06)
(7.02754e-05 0 2.50931e-06)
(6.92421e-05 0 2.48687e-06)
(6.82192e-05 0 2.45267e-06)
(6.72043e-05 0 2.40351e-06)
(6.61978e-05 0 2.33926e-06)
(6.52007e-05 0 2.28008e-06)
(6.42093e-05 0 2.24498e-06)
(6.32197e-05 0 2.23343e-06)
(6.2233e-05 0 2.24151e-06)
(6.125e-05 0 2.27392e-06)
(6.02675e-05 0 2.32465e-06)
(5.92846e-05 0 2.36496e-06)
(5.83093e-05 0 2.36879e-06)
(5.73522e-05 0 2.3384e-06)
(5.64163e-05 0 2.2916e-06)
(5.54953e-05 0 2.23664e-06)
(5.45816e-05 0 2.17404e-06)
(5.36719e-05 0 2.11598e-06)
(5.27646e-05 0 2.08507e-06)
(5.18563e-05 0 2.09289e-06)
(5.0944e-05 0 2.12808e-06)
(5.00288e-05 0 2.16872e-06)
(4.91162e-05 0 2.19875e-06)
(4.82116e-05 0 2.21009e-06)
(4.73187e-05 0 2.19575e-06)
(4.64394e-05 0 2.15062e-06)
(4.55758e-05 0 2.07999e-06)
(4.47293e-05 0 2.00258e-06)
(4.38994e-05 0 1.94044e-06)
(4.30816e-05 0 1.90422e-06)
(4.22702e-05 0 1.88689e-06)
(4.14649e-05 0 1.87344e-06)
(4.06721e-05 0 1.8576e-06)
(3.98989e-05 0 1.84212e-06)
(3.91448e-05 0 1.81999e-06)
(3.84059e-05 0 1.77164e-06)
(3.76819e-05 0 1.69203e-06)
(3.69719e-05 0 1.60571e-06)
(3.62691e-05 0 1.54611e-06)
(3.55655e-05 0 1.52771e-06)
(3.48593e-05 0 1.5453e-06)
(3.41552e-05 0 1.58189e-06)
(3.34595e-05 0 1.61161e-06)
(3.27793e-05 0 1.61169e-06)
(3.21202e-05 0 1.57828e-06)
(3.14808e-05 0 1.52362e-06)
(3.0853e-05 0 1.46573e-06)
(3.02257e-05 0 1.42632e-06)
(2.95894e-05 0 1.42345e-06)
(2.89406e-05 0 1.45735e-06)
(2.82832e-05 0 1.51281e-06)
(2.76241e-05 0 1.56882e-06)
(2.69718e-05 0 1.60308e-06)
(2.63331e-05 0 1.59635e-06)
(2.57082e-05 0 1.54268e-06)
(2.50929e-05 0 1.46186e-06)
(2.44824e-05 0 1.3939e-06)
(2.38719e-05 0 1.36678e-06)
(2.32602e-05 0 1.36925e-06)
(2.26586e-05 0 1.36851e-06)
(2.20813e-05 0 1.36216e-06)
(2.15244e-05 0 1.35116e-06)
(2.09759e-05 0 1.31344e-06)
(2.04273e-05 0 1.25921e-06)
(1.98738e-05 0 1.22384e-06)
(1.93219e-05 0 1.22045e-06)
(1.87797e-05 0 1.2369e-06)
(1.82515e-05 0 1.24627e-06)
(1.77403e-05 0 1.22055e-06)
(1.72512e-05 0 1.16392e-06)
(1.67793e-05 0 1.11378e-06)
(1.63113e-05 0 1.07987e-06)
(1.58445e-05 0 1.05028e-06)
(1.53814e-05 0 1.0407e-06)
(1.49231e-05 0 1.03352e-06)
(1.44706e-05 0 1.00807e-06)
(1.40309e-05 0 9.69199e-07)
(1.35975e-05 0 1.00106e-06)
(1.31813e-05 0 1.04086e-06)
(1.27894e-05 0 1.09997e-06)
(1.23549e-05 0 1.07735e-06)
(1.20027e-05 0 9.17506e-07)
(1.15911e-05 0 7.96684e-07)
(1.15479e-05 0 7.43697e-07)
(1.11889e-05 0 6.97893e-07)
(1.09138e-05 0 6.33615e-07)
(1.05665e-05 0 5.59945e-07)
(1.02686e-05 0 5.24718e-07)
(1.00299e-05 0 3.96594e-07)
(9.79734e-06 0 3.78959e-07)
(9.58276e-06 0 3.78578e-07)
(9.37737e-06 0 4.67853e-07)
(9.15622e-06 0 4.96619e-07)
(8.95856e-06 0 4.43892e-07)
(8.74647e-06 0 4.41031e-07)
(8.55948e-06 0 2.95074e-07)
(8.40567e-06 0 3.89092e-07)
(8.17649e-06 0 6.08382e-07)
(7.96109e-06 0 5.64494e-07)
(7.77807e-06 0 5.173e-07)
(7.60092e-06 0 3.42131e-07)
(7.55942e-06 0 3.96334e-07)
(7.39063e-06 0 3.67526e-07)
(7.29522e-06 0 1.82916e-07)
(7.19531e-06 0 9.33243e-08)
(7.1214e-06 0 -3.00386e-08)
(6.94894e-06 0 1.8862e-07)
(6.83491e-06 0 -2.65814e-08)
(6.86302e-06 0 1.84521e-07)
(6.73864e-06 0 2.40363e-07)
(6.63509e-06 0 3.25347e-07)
(6.67081e-06 0 2.04986e-07)
(6.61213e-06 0 -8.95212e-09)
(6.57511e-06 0 2.57041e-07)
(6.60616e-06 0 -2.66086e-09)
(6.31677e-06 0 -1.08514e-07)
(6.12482e-06 0 1.2799e-07)
(6.20693e-06 0 3.19371e-07)
(5.83485e-06 0 1.05176e-06)
(5.70573e-06 0 2.71843e-07)
(6.67096e-06 0 4.3304e-07)
(5.93562e-06 0 -2.79143e-07)
(1.03554e-05 0 -1.46369e-06)
(9.92957e-06 0 -7.54124e-07)
(1.04649e-05 0 -3.06952e-06)
(1.00307e-05 0 -1.28043e-06)
(9.55377e-06 0 -3.40718e-07)
(9.46495e-06 0 -3.05441e-07)
(9.28234e-06 0 3.16137e-07)
(9.0045e-06 0 5.53973e-07)
(8.64802e-06 0 7.05579e-07)
(8.17932e-06 0 9.74946e-07)
(7.6557e-06 0 1.1762e-06)
(7.18715e-06 0 1.25619e-06)
(6.76351e-06 0 1.33691e-06)
(6.31432e-06 0 1.42867e-06)
(5.83606e-06 0 1.40762e-06)
(5.36031e-06 0 1.25078e-06)
(4.88279e-06 0 1.09317e-06)
(4.37912e-06 0 1.04529e-06)
(3.85943e-06 0 1.06978e-06)