/*--------------------------------*- C++ -*----------------------------------*\
| =========                 |                                                 |
| \\      /  F ield         | OpenFOAM: The Open Source CFD Toolbox           |
|  \\    /   O peration     | Version:  v2006                                 |
|   \\  /    A nd           | Website:  www.openfoam.com                      |
|    \\/     M anipulation  |                                                 |
\*---------------------------------------------------------------------------*/
FoamFile
{
    version     2.0;
    format      ascii;
    class       surfaceScalarField;
    location    "7.5";
    object      alphaPhi0.water;
}
// * * * * * * * * * * * * * * * * * * * * * * * * * * * * * * * * * * * * * //

dimensions      [0 3 -1 0 0 0 0];
oriented        oriented;


internalField   nonuniform List<scalar> 
65390
(
6.06585e-06
-8.98919e-07
6.8333e-06
-7.67297e-07
7.52588e-06
-6.92437e-07
8.04048e-06
-5.14456e-07
8.12103e-06
-8.04142e-08
7.8871e-06
2.34017e-07
7.6246e-06
2.62581e-07
7.81269e-06
-1.88029e-07
1.00883e-05
-2.27555e-06
1.69225e-05
-6.83421e-06
2.73371e-05
-1.04145e-05
3.96e-05
-1.22628e-05
5.26317e-05
-1.30316e-05
6.38836e-05
-1.12517e-05
7.02978e-05
-6.4141e-06
7.18819e-05
-1.58394e-06
7.06063e-05
1.27568e-06
6.80768e-05
2.52966e-06
6.59365e-05
2.14042e-06
6.5209e-05
7.27576e-07
6.59608e-05
-7.51794e-07
6.78511e-05
-1.89018e-06
7.07661e-05
-2.91494e-06
7.45759e-05
-3.80978e-06
7.88363e-05
-4.26035e-06
8.28207e-05
-3.98437e-06
8.58257e-05
-3.00499e-06
8.74875e-05
-1.66174e-06
8.79797e-05
-4.92258e-07
8.70896e-05
8.89965e-07
8.43228e-05
2.7665e-06
7.97063e-05
4.61598e-06
7.45673e-05
5.1339e-06
7.01894e-05
4.3802e-06
6.7047e-05
3.14386e-06
6.51101e-05
1.93698e-06
6.36512e-05
1.45627e-06
6.19256e-05
1.69827e-06
6.0146e-05
1.77948e-06
5.89408e-05
1.22009e-06
5.86325e-05
3.20318e-07
5.89602e-05
-3.26711e-07
5.94992e-05
-5.3979e-07
5.98843e-05
-3.93356e-07
5.96375e-05
2.06631e-07
5.91923e-05
4.72312e-07
5.89108e-05
3.0079e-07
5.91481e-05
-2.35574e-07
5.97967e-05
-6.48105e-07
6.0396e-05
-6.00715e-07
6.05758e-05
-2.00671e-07
6.04118e-05
1.63969e-07
6.02627e-05
1.64428e-07
6.03103e-05
-4.04993e-08
6.06997e-05
-3.88945e-07
6.13782e-05
-6.7871e-07
6.22179e-05
-8.39906e-07
6.31935e-05
-9.75642e-07
6.42394e-05
-1.04597e-06
6.50703e-05
-8.30944e-07
6.5258e-05
-1.88502e-07
6.47881e-05
4.51544e-07
6.40918e-05
6.92895e-07
6.34641e-05
6.35438e-07
6.29119e-05
5.62906e-07
6.22897e-05
6.25096e-07
6.15318e-05
7.57976e-07
6.07676e-05
7.64349e-07
6.03902e-05
3.77841e-07
6.04496e-05
-5.91703e-08
6.06892e-05
-2.39544e-07
6.08595e-05
-1.70385e-07
6.06588e-05
2.00668e-07
5.97755e-05
8.82885e-07
5.7865e-05
1.90399e-06
5.49176e-05
2.9273e-06
5.02766e-05
4.64111e-06
4.30742e-05
7.20258e-06
3.73993e-05
5.67491e-06
3.55561e-05
1.84321e-06
3.46021e-05
9.54088e-07
3.47118e-05
-1.09679e-07
3.38798e-05
8.4034e-07
3.32849e-05
6.01977e-07
3.28075e-05
4.78304e-07
3.14461e-05
1.36141e-06
3.00826e-05
1.36357e-06
2.90204e-05
1.06219e-06
2.85569e-05
4.63426e-07
2.82589e-05
2.98026e-07
2.80427e-05
2.16225e-07
2.78501e-05
1.92447e-07
2.74556e-05
3.92241e-07
2.69897e-05
4.59754e-07
2.62675e-05
7.22251e-07
2.54581e-05
8.09429e-07
2.41296e-05
1.33266e-06
2.25447e-05
1.58787e-06
1.96405e-05
2.9044e-06
1.57504e-05
3.88977e-06
1.23454e-05
3.4049e-06
1.03443e-05
2.00115e-06
9.93369e-06
4.10593e-07
9.56867e-06
3.64424e-07
9.91206e-06
-3.45236e-07
1.04708e-05
-5.58711e-07
1.05719e-05
-1.01023e-07
1.02989e-05
2.73032e-07
9.97373e-06
3.25199e-07
9.95275e-06
2.21481e-08
9.93237e-06
2.15924e-08
1.00351e-05
-1.02692e-07
1.01616e-05
-1.26674e-07
1.01995e-05
-3.92414e-08
1.00153e-05
1.82901e-07
9.73103e-06
2.85608e-07
8.9161e-06
8.1618e-07
7.88002e-06
1.03608e-06
7.22316e-06
6.56857e-07
7.07727e-06
1.44793e-07
7.27388e-06
-1.96604e-07
7.33465e-06
-6.07727e-08
7.62123e-06
-2.85739e-07
7.97875e-06
-3.57226e-07
8.15665e-06
-1.7789e-07
8.31428e-06
-1.58993e-07
8.47536e-06
-1.61062e-07
8.60976e-06
-1.33688e-07
8.79701e-06
-1.86373e-07
9.01664e-06
-2.19612e-07
9.2097e-06
-1.93074e-07
9.41e-06
-2.00289e-07
9.59175e-06
-1.82401e-07
9.76674e-06
-1.75975e-07
9.94996e-06
-1.82099e-07
1.01547e-05
-2.03864e-07
1.03773e-05
-2.22556e-07
1.05966e-05
-2.19342e-07
1.08161e-05
-2.19415e-07
1.10317e-05
-2.15561e-07
1.12463e-05
-2.14641e-07
1.14607e-05
-2.14316e-07
1.16705e-05
-2.09881e-07
1.18646e-05
-1.96811e-07
1.20526e-05
-1.87937e-07
1.22338e-05
-1.8116e-07
1.24141e-05
-1.77841e-07
1.25904e-05
-1.76217e-07
1.27593e-05
-1.68858e-07
1.29135e-05
-1.542e-07
1.305e-05
-1.37619e-07
1.31836e-05
-1.3258e-07
1.33157e-05
-1.31551e-07
1.3439e-05
-1.23285e-07
1.35497e-05
-1.10656e-07
1.3646e-05
-9.76974e-08
1.37326e-05
-8.61377e-08
1.38089e-05
-7.6154e-08
1.38764e-05
-6.64543e-08
1.39326e-05
-5.59069e-08
1.39782e-05
-4.56364e-08
1.40122e-05
-3.40554e-08
1.40296e-05
-1.78586e-08
1.40334e-05
-3.97488e-09
1.40283e-05
5.29856e-09
1.40094e-05
1.89034e-08
1.397e-05
3.90984e-08
1.39145e-05
5.564e-08
1.38479e-05
6.68744e-08
1.37671e-05
8.07554e-08
1.36655e-05
1.01615e-07
1.35369e-05
1.27163e-07
1.33919e-05
1.45767e-07
1.32328e-05
1.59697e-07
1.30562e-05
1.76613e-07
1.28582e-05
1.97762e-07
1.26288e-05
2.28236e-07
1.23675e-05
2.60587e-07
1.20835e-05
2.85087e-07
1.17751e-05
3.09153e-07
1.14465e-05
3.2862e-07
1.10993e-05
3.47234e-07
1.07255e-05
3.72627e-07
1.03262e-05
3.99354e-07
9.89481e-06
4.31334e-07
9.43653e-06
4.59062e-07
8.96204e-06
4.74419e-07
8.47519e-06
4.8678e-07
7.97209e-06
5.02525e-07
7.44501e-06
5.26499e-07
6.89908e-06
5.45935e-07
6.34083e-06
5.58678e-07
5.77878e-06
5.62479e-07
5.21894e-06
5.59772e-07
4.66123e-06
5.57678e-07
4.10385e-06
5.57288e-07
3.54069e-06
5.6276e-07
2.97538e-06
5.65186e-07
2.41745e-06
5.57947e-07
1.87753e-06
5.40055e-07
1.36088e-06
5.16755e-07
8.59876e-07
5.01019e-07
3.70425e-07
4.89469e-07
-1.05328e-07
4.75766e-07
-5.64591e-07
4.59312e-07
-1.00336e-06
4.38728e-07
-1.42072e-06
4.1736e-07
-1.8229e-06
4.02171e-07
-2.21563e-06
3.9282e-07
-2.59713e-06
3.81538e-07
-2.95528e-06
3.57929e-07
-3.29254e-06
3.37238e-07
-3.61578e-06
3.23249e-07
-3.92745e-06
3.11845e-07
-4.2318e-06
3.04545e-07
-4.52661e-06
2.94809e-07
-4.8065e-06
2.79508e-07
-5.06663e-06
2.60011e-07
-5.30957e-06
2.42943e-07
-5.54018e-06
2.30606e-07
-5.76021e-06
2.20258e-07
-5.97285e-06
2.1292e-07
-6.17634e-06
2.03515e-07
-6.36745e-06
1.90693e-07
-6.54335e-06
1.75834e-07
-6.70454e-06
1.6118e-07
-6.85414e-06
1.49602e-07
-6.99368e-06
1.39797e-07
-7.12649e-06
1.33211e-07
-7.25222e-06
1.25723e-07
-7.36707e-06
1.14664e-07
-7.46918e-06
1.01971e-07
-7.55932e-06
8.98639e-08
-7.63911e-06
8.00603e-08
-7.71153e-06
7.24027e-08
-7.77677e-06
6.51085e-08
-7.83418e-06
5.7276e-08
-7.88467e-06
5.05066e-08
-7.92837e-06
4.37518e-08
-7.96441e-06
3.62966e-08
-7.99353e-06
2.89207e-08
-8.01338e-06
1.96569e-08
-8.0253e-06
1.19086e-08
-8.03177e-06
6.45753e-09
-8.03362e-06
1.90685e-09
-8.03288e-06
-4.32114e-10
-8.0292e-06
-3.66712e-09
-8.01766e-06
-1.18484e-08
-7.99799e-06
-1.96749e-08
-7.97477e-06
-2.32147e-08
-7.94887e-06
-2.57783e-08
-7.92143e-06
-2.71528e-08
-7.89186e-06
-2.95682e-08
-7.85833e-06
-3.37834e-08
-7.82049e-06
-3.7963e-08
-7.77917e-06
-4.1329e-08
-7.73582e-06
-4.33579e-08
-7.69128e-06
-4.44353e-08
-7.64544e-06
-4.57671e-08
-7.5974e-06
-4.80461e-08
-7.54697e-06
-5.06095e-08
-7.49334e-06
-5.36627e-08
-7.43812e-06
-5.52188e-08
-7.38331e-06
-5.47818e-08
-7.32932e-06
-5.37973e-08
-7.27533e-06
-5.38236e-08
-7.21915e-06
-5.65679e-08
-7.15843e-06
-6.0737e-08
-7.09647e-06
-6.19692e-08
-7.03428e-06
-6.21928e-08
-6.97175e-06
-6.25074e-08
-6.90982e-06
-6.18307e-08
-6.84853e-06
-6.12308e-08
-6.78679e-06
-6.1746e-08
-6.72358e-06
-6.33704e-08
-6.6582e-06
-6.53888e-08
-6.59177e-06
-6.64322e-08
-6.5249e-06
-6.68781e-08
-6.45729e-06
-6.76184e-08
-6.38921e-06
-6.80508e-08
-6.32215e-06
-6.69764e-08
-6.2564e-06
-6.56785e-08
-6.19019e-06
-6.63482e-08
-6.12125e-06
-6.89447e-08
-6.05121e-06
-7.00451e-08
-5.98148e-06
-6.9726e-08
-5.91187e-06
-6.9604e-08
-5.84213e-06
-6.9678e-08
-5.77309e-06
-6.89889e-08
-5.70437e-06
-6.87224e-08
-5.6353e-06
-6.9146e-08
-5.56527e-06
-7.00481e-08
-5.49462e-06
-7.06545e-08
-5.42386e-06
-7.07677e-08
-5.35297e-06
-7.08589e-08
-5.2825e-06
-7.04298e-08
-5.21242e-06
-7.00909e-08
-5.14216e-06
-7.03099e-08
-5.0712e-06
-7.0961e-08
-4.99949e-06
-7.17052e-08
-4.92689e-06
-7.2589e-08
-4.85405e-06
-7.28047e-08
-4.78167e-06
-7.23835e-08
-4.70876e-06
-7.29357e-08
-4.6345e-06
-7.42669e-08
-4.55905e-06
-7.54499e-08
-4.48262e-06
-7.63705e-08
-4.40564e-06
-7.70223e-08
-4.32779e-06
-7.78737e-08
-4.24857e-06
-7.92183e-08
-4.16777e-06
-8.08102e-08
-4.08602e-06
-8.17485e-08
-4.00446e-06
-8.15695e-08
-3.92318e-06
-8.12826e-08
-3.84125e-06
-8.1959e-08
-3.75856e-06
-8.2706e-08
-3.67603e-06
-8.25235e-08
-3.59446e-06
-8.1571e-08
-3.51438e-06
-8.00785e-08
-3.43622e-06
-7.81597e-08
-3.36041e-06
-7.57947e-08
-3.2875e-06
-7.28991e-08
-3.21812e-06
-6.93688e-08
-3.15311e-06
-6.50105e-08
-3.09251e-06
-6.05994e-08
-3.03616e-06
-5.63625e-08
-2.98451e-06
-5.16552e-08
-2.93831e-06
-4.61962e-08
-2.89774e-06
-4.0569e-08
-2.86228e-06
-3.54554e-08
-2.83155e-06
-3.07441e-08
-2.80548e-06
-2.60728e-08
-2.78445e-06
-2.10239e-08
-2.76907e-06
-1.53647e-08
-2.75904e-06
-1.00217e-08
-2.75312e-06
-5.9284e-09
-2.75049e-06
-2.62827e-09
-2.75114e-06
6.56822e-10
-2.75513e-06
3.99382e-09
-2.76227e-06
7.14203e-09
-2.77225e-06
9.97865e-09
-2.78463e-06
1.23662e-08
-2.79892e-06
1.42897e-08
-2.8147e-06
1.57688e-08
-2.83186e-06
1.71614e-08
-2.85011e-06
1.82498e-08
-2.86901e-06
1.88982e-08
-2.88813e-06
1.91168e-08
-2.90711e-06
1.89768e-08
-2.9257e-06
1.8598e-08
-2.94382e-06
1.81205e-08
-2.96134e-06
1.75225e-08
-2.97782e-06
1.648e-08
-2.99279e-06
1.49673e-08
-3.00604e-06
1.32556e-08
-3.01751e-06
1.14683e-08
-3.02701e-06
9.49593e-09
-3.03438e-06
7.36539e-09
-3.03945e-06
5.06818e-09
-3.04189e-06
2.43539e-09
-3.04152e-06
-3.78967e-10
-3.03825e-06
-3.27023e-09
-3.03201e-06
-6.23896e-09
-3.02257e-06
-9.43717e-09
-3.00993e-06
-1.2646e-08
-2.99427e-06
-1.56561e-08
-2.97546e-06
-1.88066e-08
-2.95324e-06
-2.22268e-08
-2.9271e-06
-2.61485e-08
-2.89706e-06
-3.0066e-08
-2.86347e-06
-3.36012e-08
-2.82651e-06
-3.69635e-08
-2.78593e-06
-4.05863e-08
-2.74129e-06
-4.46522e-08
-2.69249e-06
-4.88112e-08
-2.63981e-06
-5.26964e-08
-2.58344e-06
-5.63836e-08
-2.52339e-06
-6.00583e-08
-2.4596e-06
-6.37951e-08
-2.39251e-06
-6.70714e-08
-2.3222e-06
-7.03053e-08
-2.24809e-06
-7.41152e-08
-2.16989e-06
-7.81919e-08
-2.08808e-06
-8.1811e-08
-2.00302e-06
-8.50648e-08
-1.91479e-06
-8.82287e-08
-1.82363e-06
-9.11627e-08
-1.72963e-06
-9.39962e-08
-1.63269e-06
-9.69439e-08
-1.53274e-06
-9.99411e-08
-1.4304e-06
-1.02337e-07
-1.32605e-06
-1.04337e-07
-1.21974e-06
-1.06297e-07
-1.11113e-06
-1.08604e-07
-1.00055e-06
-1.10573e-07
-8.88311e-07
-1.12228e-07
-7.7462e-07
-1.13679e-07
-6.5988e-07
-1.14723e-07
-5.44725e-07
-1.15139e-07
-4.29082e-07
-1.15625e-07
-3.12617e-07
-1.16448e-07
-1.955e-07
-1.17101e-07
-7.78005e-08
-1.17686e-07
3.97966e-08
-1.17584e-07
1.57564e-07
-1.17752e-07
2.73833e-07
-1.16253e-07
3.90598e-07
-1.16743e-07
5.06713e-07
-1.16091e-07
6.23719e-07
-1.16985e-07
7.3955e-07
-1.15818e-07
8.54022e-07
-1.14465e-07
9.66736e-07
-1.12716e-07
1.07686e-06
-1.1012e-07
1.18769e-06
-1.10822e-07
1.29637e-06
-1.08676e-07
1.40203e-06
-1.05655e-07
1.50681e-06
-1.04769e-07
1.60388e-06
-9.70739e-08
1.69547e-06
-9.15841e-08
1.79552e-06
-1.00061e-07
1.89008e-06
-9.4574e-08
1.98167e-06
-9.16105e-08
2.08089e-06
-9.9233e-08
2.13473e-06
-5.38599e-08
2.175e-06
-4.02792e-08
2.27128e-06
-9.63007e-08
2.33255e-06
-6.12877e-08
2.44748e-06
-1.14932e-07
2.60772e-06
-1.60252e-07
2.92796e-06
-3.20233e-07
3.31635e-06
-3.88394e-07
3.58001e-06
-2.63651e-07
3.79507e-06
-2.15047e-07
3.94834e-06
-1.53275e-07
4.0689e-06
-1.20555e-07
4.16589e-06
-9.69959e-08
4.26136e-06
-9.54825e-08
4.34974e-06
-8.83902e-08
4.43075e-06
-8.10207e-08
4.4989e-06
-6.81632e-08
4.57311e-06
-7.42228e-08
4.57685e-06
-3.75073e-09
4.55391e-06
2.29312e-08
4.59335e-06
-3.94578e-08
4.59505e-06
-1.71028e-09
4.68104e-06
-8.59905e-08
4.84111e-06
-1.60071e-07
5.25367e-06
-4.1258e-07
5.81445e-06
-5.60792e-07
6.24058e-06
-4.26157e-07
6.59634e-06
-3.55798e-07
6.82401e-06
-2.27718e-07
6.99904e-06
-1.75071e-07
7.12597e-06
-1.26961e-07
7.21938e-06
-9.34328e-08
7.28324e-06
-6.38857e-08
7.29414e-06
-1.09098e-08
7.30541e-06
-1.12946e-08
7.31135e-06
-5.96824e-09
7.29767e-06
1.36549e-08
7.31824e-06
-2.05923e-08
7.28145e-06
3.67759e-08
7.04658e-06
2.3486e-07
6.87935e-06
1.6724e-07
6.76153e-06
1.17821e-07
6.62057e-06
1.40975e-07
6.93057e-06
-3.1e-07
7.55665e-06
-6.26085e-07
9.21497e-06
-1.65834e-06
1.1111e-05
-1.89609e-06
1.25916e-05
-1.48063e-06
1.37586e-05
-1.16704e-06
1.46656e-05
-9.07391e-07
1.5305e-05
-6.39692e-07
1.57559e-05
-4.5086e-07
1.60815e-05
-3.25581e-07
1.63227e-05
-2.41123e-07
1.64981e-05
-1.755e-07
1.66178e-05
-1.19706e-07
1.66958e-05
-7.80118e-08
1.67456e-05
-4.97879e-08
1.67698e-05
-2.40045e-08
1.67702e-05
-4.25002e-10
1.67504e-05
1.97339e-08
1.6709e-05
4.14516e-08
1.66534e-05
5.56527e-08
1.65869e-05
6.65257e-08
1.65068e-05
8.00391e-08
1.64101e-05
9.67167e-08
1.6304e-05
1.0617e-07
1.61931e-05
1.10865e-07
1.60724e-05
1.2066e-07
1.5939e-05
1.33378e-07
1.57936e-05
1.4542e-07
1.56411e-05
1.52489e-07
1.54844e-05
1.56721e-07
1.53211e-05
1.63247e-07
1.51521e-05
1.69073e-07
1.49763e-05
1.75715e-07
1.47958e-05
1.80587e-07
1.46076e-05
1.88118e-07
1.44102e-05
1.97401e-07
1.42095e-05
2.00723e-07
1.40087e-05
2.00813e-07
1.3808e-05
2.00634e-07
1.36059e-05
2.02182e-07
1.33999e-05
2.05968e-07
1.31891e-05
2.10683e-07
1.29744e-05
2.14703e-07
1.2756e-05
2.18374e-07
1.25346e-05
2.21433e-07
1.23121e-05
2.2253e-07
1.20855e-05
2.26587e-07
1.18572e-05
2.28273e-07
1.16294e-05
2.27759e-07
1.13986e-05
2.3078e-07
1.11624e-05
2.36209e-07
1.09215e-05
2.40881e-07
1.06777e-05
2.43741e-07
1.04325e-05
2.45243e-07
1.01869e-05
2.45615e-07
9.94147e-06
2.45405e-07
9.69578e-06
2.45673e-07
9.44944e-06
2.46332e-07
9.20219e-06
2.47238e-07
8.95392e-06
2.48255e-07
8.70436e-06
2.49553e-07
8.45408e-06
2.50277e-07
8.2035e-06
2.50565e-07
7.95283e-06
2.50664e-07
7.70196e-06
2.5086e-07
7.45015e-06
2.5181e-07
7.19715e-06
2.52991e-07
6.94337e-06
2.5377e-07
6.68969e-06
2.5367e-07
6.4367e-06
2.5299e-07
6.18323e-06
2.53458e-07
5.92909e-06
2.54136e-07
5.67324e-06
2.55838e-07
5.41875e-06
2.54481e-07
5.16271e-06
2.56033e-07
4.90616e-06
2.56544e-07
4.65008e-06
2.56067e-07
4.39944e-06
2.50632e-07
4.15438e-06
2.45039e-07
3.90883e-06
2.45545e-07
3.66301e-06
2.45814e-07
3.41606e-06
2.46935e-07
3.16755e-06
2.48495e-07
2.3813e-07
6.1709e-06
-1.86577e-06
7.01005e-06
-1.60674e-06
7.79829e-06
-1.48092e-06
8.44528e-06
-1.16165e-06
8.93106e-06
-5.66373e-07
9.47788e-06
-3.12952e-07
1.04236e-05
-6.83233e-07
1.31685e-05
-2.933e-06
2.0772e-05
-9.87913e-06
3.07556e-05
-1.68179e-05
4.01733e-05
-1.98322e-05
4.88111e-05
-2.09e-05
5.6856e-05
-2.1076e-05
6.46785e-05
-1.90737e-05
7.12927e-05
-1.30281e-05
7.49244e-05
-5.21553e-06
7.51692e-05
1.03105e-06
7.35381e-05
4.16092e-06
7.12672e-05
4.41148e-06
6.85929e-05
3.40202e-06
6.6597e-05
1.24423e-06
6.6696e-05
-1.9891e-06
6.838e-05
-4.59888e-06
7.08745e-05
-6.3043e-06
7.34773e-05
-6.86307e-06
7.59927e-05
-6.49969e-06
7.82743e-05
-5.28659e-06
7.94953e-05
-2.88264e-06
7.92844e-05
-2.8138e-07
7.73539e-05
2.82025e-06
7.4274e-05
5.84617e-06
7.13593e-05
7.52821e-06
6.89464e-05
7.54446e-06
6.70281e-05
6.30053e-06
6.55515e-05
4.62132e-06
6.41556e-05
3.33294e-06
6.27285e-05
2.88107e-06
6.13539e-05
3.0289e-06
6.01596e-05
2.97384e-06
5.92255e-05
2.17408e-06
5.89707e-05
5.92733e-07
5.90827e-05
-4.32535e-07
5.92944e-05
-7.517e-07
5.95701e-05
-6.76561e-07
5.97858e-05
-3.94795e-08
5.98953e-05
3.62258e-07
5.9937e-05
2.77661e-07
6.00638e-05
-3.44429e-07
6.02874e-05
-8.7014e-07
6.06045e-05
-9.20267e-07
6.09716e-05
-5.90251e-07
6.1115e-05
2.06554e-08
6.11351e-05
1.53986e-07
6.10838e-05
2.40376e-08
6.1241e-05
-5.42787e-07
6.17454e-05
-1.183e-06
6.24313e-05
-1.5258e-06
6.30988e-05
-1.64305e-06
6.36084e-05
-1.55573e-06
6.38173e-05
-1.04084e-06
6.37696e-05
-1.50858e-07
6.3779e-05
4.11227e-07
6.39086e-05
5.63134e-07
6.39709e-05
5.73251e-07
6.38384e-05
6.95323e-07
6.34408e-05
1.03855e-06
6.27595e-05
1.45771e-06
6.19984e-05
1.52967e-06
6.13507e-05
1.02649e-06
6.10391e-05
2.53153e-07
6.08138e-05
-1.42271e-08
6.05887e-05
5.36626e-08
6.02969e-05
4.78918e-07
5.95021e-05
1.66275e-06
5.86216e-05
2.78459e-06
5.7767e-05
3.78195e-06
5.77847e-05
4.6414e-06
5.88908e-05
6.10599e-06
5.69099e-05
7.65597e-06
5.25617e-05
6.19109e-06
4.63206e-05
7.19737e-06
4.05021e-05
5.711e-06
3.85989e-05
2.74564e-06
3.68369e-05
2.36519e-06
3.59031e-05
1.41229e-06
3.46596e-05
2.60493e-06
3.29737e-05
3.04943e-06
3.17776e-05
2.25829e-06
3.12805e-05
9.60484e-07
2.99862e-05
1.59233e-06
2.88161e-05
1.38625e-06
2.82383e-05
7.69823e-07
2.78455e-05
7.80427e-07
2.7603e-05
6.98572e-07
2.74734e-05
8.51945e-07
2.71067e-05
1.17607e-06
2.68101e-05
1.63557e-06
2.62486e-05
2.15143e-06
2.6228e-05
2.92375e-06
2.56815e-05
4.43475e-06
2.4366e-05
4.72118e-06
2.13827e-05
4.98525e-06
1.71268e-05
4.66652e-06
1.35499e-05
3.94126e-06
1.09269e-05
2.27648e-06
9.67888e-06
6.88009e-07
9.25949e-06
3.18388e-07
8.93296e-06
5.99594e-07
9.33848e-06
-8.02939e-08
1.02458e-05
-8.82973e-07
1.05666e-05
-2.98901e-07
1.05253e-05
-6.13989e-08
1.04705e-05
-7.19312e-08
1.03321e-05
9.70179e-08
1.03759e-05
1.37804e-07
1.04904e-05
1.71099e-07
1.07762e-05
5.30344e-07
1.08743e-05
9.39959e-07
1.06923e-05
8.40144e-07
9.89662e-06
9.39988e-07
8.78489e-06
9.14084e-07
8.08246e-06
6.41655e-07
7.77178e-06
2.58635e-08
7.77756e-06
-3.6283e-07
7.81137e-06
-2.12216e-07
8.11633e-06
-4.65535e-07
8.50696e-06
-5.5165e-07
8.71156e-06
-3.38244e-07
8.87269e-06
-3.47466e-07
9.02378e-06
-3.68431e-07
9.15664e-06
-3.25662e-07
9.34733e-06
-3.90992e-07
9.55894e-06
-3.95479e-07
9.75977e-06
-3.77799e-07
9.95707e-06
-3.79476e-07
1.01586e-05
-4.03244e-07
1.03709e-05
-4.33777e-07
1.0578e-05
-4.26494e-07
1.07925e-05
-4.33874e-07
1.10109e-05
-4.3387e-07
1.12301e-05
-4.33762e-07
1.14478e-05
-4.32017e-07
1.16576e-05
-4.20271e-07
1.18555e-05
-3.96777e-07
1.20487e-05
-3.81074e-07
1.22357e-05
-3.68104e-07
1.24182e-05
-3.60345e-07
1.25965e-05
-3.52261e-07
1.27612e-05
-3.33548e-07
1.29107e-05
-3.06007e-07
1.30537e-05
-2.81604e-07
1.31937e-05
-2.70624e-07
1.33279e-05
-2.63541e-07
1.34488e-05
-2.43919e-07
1.35548e-05
-2.16697e-07
1.36504e-05
-1.94169e-07
1.37405e-05
-1.77125e-07
1.38224e-05
-1.58164e-07
1.38916e-05
-1.34464e-07
1.39461e-05
-1.09314e-07
1.39891e-05
-8.86418e-08
1.40211e-05
-6.61146e-08
1.40376e-05
-3.57226e-08
1.40444e-05
-1.03613e-08
1.40398e-05
1.03411e-08
1.40194e-05
3.92243e-08
1.39785e-05
7.87461e-08
1.3923e-05
1.11717e-07
1.38552e-05
1.35514e-07
1.37712e-05
1.64754e-07
1.36653e-05
2.06911e-07
1.35381e-05
2.53321e-07
1.33933e-05
2.91504e-07
1.32298e-05
3.23858e-07
1.30469e-05
3.59561e-07
1.28429e-05
4.0166e-07
1.26129e-05
4.56594e-07
1.23557e-05
5.17239e-07
1.20724e-05
5.68365e-07
1.17622e-05
6.19408e-07
1.1431e-05
6.61233e-07
1.10795e-05
6.9912e-07
1.07057e-05
7.46197e-07
1.03082e-05
7.9651e-07
9.88156e-06
8.56802e-07
9.42708e-06
9.13466e-07
8.95146e-06
9.50966e-07
8.45919e-06
9.79012e-07
7.95479e-06
1.00668e-06
7.43737e-06
1.04309e-06
6.90636e-06
1.07694e-06
6.35932e-06
1.10572e-06
5.80005e-06
1.12209e-06
5.2372e-06
1.12289e-06
4.67751e-06
1.11734e-06
4.11965e-06
1.11495e-06
3.56174e-06
1.12037e-06
3.00704e-06
1.11991e-06
2.459e-06
1.10597e-06
1.9243e-06
1.07492e-06
1.40441e-06
1.03675e-06
8.98304e-07
1.00712e-06
4.04491e-07
9.83213e-07
-7.37293e-08
9.53976e-07
-5.32666e-07
9.18239e-07
-9.72822e-07
8.78861e-07
-1.39704e-06
8.41571e-07
-1.8073e-06
8.12475e-07
-2.20388e-06
7.8951e-07
-2.58402e-06
7.61487e-07
-2.94388e-06
7.17679e-07
-3.287e-06
6.80348e-07
-3.61622e-06
6.52485e-07
-3.93207e-06
6.27909e-07
-4.2361e-06
6.08831e-07
-4.52826e-06
5.86978e-07
-4.80688e-06
5.58027e-07
-5.07041e-06
5.23106e-07
-5.31766e-06
4.90164e-07
-5.55214e-06
4.65103e-07
-5.7744e-06
4.42827e-07
-5.98551e-06
4.24312e-07
-6.18613e-06
4.04163e-07
-6.37546e-06
3.80044e-07
-6.55333e-06
3.53179e-07
-6.71756e-06
3.25377e-07
-6.8698e-06
3.01835e-07
-7.01103e-06
2.81337e-07
-7.14296e-06
2.6545e-07
-7.26645e-06
2.49212e-07
-7.37939e-06
2.27601e-07
-7.4806e-06
2.02935e-07
-7.57091e-06
1.79705e-07
-7.65148e-06
1.60598e-07
-7.72395e-06
1.44883e-07
-7.78972e-06
1.30891e-07
-7.84877e-06
1.16606e-07
-7.89969e-06
1.01918e-07
-7.94234e-06
8.63952e-08
-7.97574e-06
6.97011e-08
-8.0011e-06
5.40227e-08
-8.02079e-06
3.88261e-08
-8.0345e-06
2.56028e-08
-8.04266e-06
1.46133e-08
-8.04559e-06
5.06737e-09
-8.04378e-06
-2.02058e-09
-8.036e-06
-1.14397e-08
-8.02272e-06
-2.54843e-08
-8.00412e-06
-3.82708e-08
-7.98231e-06
-4.50242e-08
-7.95747e-06
-5.04021e-08
-7.92939e-06
-5.50242e-08
-7.89735e-06
-6.16055e-08
-7.86108e-06
-7.00482e-08
-7.8221e-06
-7.71789e-08
-7.78138e-06
-8.22812e-08
-7.73948e-06
-8.52712e-08
-7.69642e-06
-8.74578e-08
-7.65009e-06
-9.19532e-08
-7.59993e-06
-9.82019e-08
-7.54797e-06
-1.02747e-07
-7.49484e-06
-1.06855e-07
-7.44063e-06
-1.09323e-07
-7.38606e-06
-1.09034e-07
-7.33149e-06
-1.08366e-07
-7.27559e-06
-1.09719e-07
-7.21793e-06
-1.14596e-07
-7.15784e-06
-1.20884e-07
-7.09674e-06
-1.23071e-07
-7.03535e-06
-1.23572e-07
-6.97372e-06
-1.24018e-07
-6.91158e-06
-1.23807e-07
-6.84854e-06
-1.2427e-07
-6.78438e-06
-1.25909e-07
-6.72026e-06
-1.27707e-07
-6.65592e-06
-1.29786e-07
-6.59049e-06
-1.31865e-07
-6.52402e-06
-1.33348e-07
-6.45657e-06
-1.35067e-07
-6.38866e-06
-1.35881e-07
-6.32119e-06
-1.34281e-07
-6.25391e-06
-1.32967e-07
-6.1862e-06
-1.34157e-07
-6.11721e-06
-1.38051e-07
-6.04756e-06
-1.39695e-07
-5.97838e-06
-1.38911e-07
-5.90948e-06
-1.3849e-07
-5.83988e-06
-1.39224e-07
-5.76978e-06
-1.3903e-07
-5.69958e-06
-1.38926e-07
-5.62916e-06
-1.39565e-07
-5.55892e-06
-1.40382e-07
-5.48892e-06
-1.40663e-07
-5.41894e-06
-1.40756e-07
-5.34816e-06
-1.41598e-07
-5.27649e-06
-1.42068e-07
-5.20452e-06
-1.42049e-07
-5.13313e-06
-1.41727e-07
-5.06254e-06
-1.4162e-07
-4.99159e-06
-1.42664e-07
-4.91917e-06
-1.45e-07
-4.8454e-06
-1.46533e-07
-4.77142e-06
-1.46368e-07
-4.69782e-06
-1.46565e-07
-4.62421e-06
-1.47877e-07
-4.5489e-06
-1.50757e-07
-4.47148e-06
-1.53766e-07
-4.39342e-06
-1.55093e-07
-4.31555e-06
-1.55765e-07
-4.23712e-06
-1.57675e-07
-4.15692e-06
-1.61015e-07
-4.07549e-06
-1.63185e-07
-3.99366e-06
-1.634e-07
-3.91221e-06
-1.62733e-07
-3.83137e-06
-1.62825e-07
-3.75008e-06
-1.63996e-07
-3.66861e-06
-1.63989e-07
-3.58789e-06
-1.62282e-07
-3.50871e-06
-1.59255e-07
-3.43188e-06
-1.5499e-07
-3.35772e-06
-1.49943e-07
-3.28637e-06
-1.4425e-07
-3.21808e-06
-1.37655e-07
-3.1534e-06
-1.29688e-07
-3.09291e-06
-1.21095e-07
-3.03708e-06
-1.12197e-07
-2.9863e-06
-1.02438e-07
-2.94072e-06
-9.17687e-08
-2.90011e-06
-8.11721e-08
-2.86443e-06
-7.11346e-08
-2.83368e-06
-6.14874e-08
-2.80804e-06
-5.171e-08
-2.7875e-06
-4.15483e-08
-2.77195e-06
-3.08947e-08
-2.76112e-06
-2.08568e-08
-2.75485e-06
-1.21993e-08
-2.75248e-06
-5.00731e-09
-2.75358e-06
1.75511e-09
-2.75799e-06
8.39243e-09
-2.76519e-06
1.43387e-08
-2.77505e-06
1.98286e-08
-2.78749e-06
2.47932e-08
-2.80211e-06
2.88974e-08
-2.81841e-06
3.20666e-08
-2.83628e-06
3.50221e-08
-2.85504e-06
3.70163e-08
-2.87407e-06
3.79262e-08
-2.8932e-06
3.82518e-08
-2.91237e-06
3.8152e-08
-2.93137e-06
3.76081e-08
-2.94989e-06
3.66435e-08
-2.96763e-06
3.52718e-08
-2.98428e-06
3.31279e-08
-2.99954e-06
3.02213e-08
-3.0131e-06
2.68139e-08
-3.02479e-06
2.31565e-08
-3.03452e-06
1.92176e-08
-3.04229e-06
1.51284e-08
-3.0479e-06
1.06747e-08
-3.05078e-06
5.31037e-09
-3.05068e-06
-4.79364e-10
-3.04766e-06
-6.29599e-09
-3.0417e-06
-1.22011e-08
-3.03261e-06
-1.85389e-08
-3.02027e-06
-2.49817e-08
-3.00464e-06
-3.12927e-08
-2.98553e-06
-3.79318e-08
-2.9629e-06
-4.48808e-08
-2.93675e-06
-5.23253e-08
-2.90698e-06
-5.98559e-08
-2.87368e-06
-6.69181e-08
-2.83682e-06
-7.38438e-08
-2.79627e-06
-8.11496e-08
-2.75169e-06
-8.92622e-08
-2.70301e-06
-9.75089e-08
-2.65041e-06
-1.05303e-07
-2.59422e-06
-1.12581e-07
-2.53449e-06
-1.19793e-07
-2.47105e-06
-1.2724e-07
-2.4037e-06
-1.34411e-07
-2.33253e-06
-1.41488e-07
-2.25783e-06
-1.48818e-07
-2.1796e-06
-1.56434e-07
-2.09787e-06
-1.63548e-07
-2.01289e-06
-1.70042e-07
-1.92479e-06
-1.76319e-07
-1.83346e-06
-1.82478e-07
-1.73909e-06
-1.88351e-07
-1.64182e-06
-1.94205e-07
-1.54194e-06
-1.99804e-07
-1.43955e-06
-2.04713e-07
-1.33473e-06
-2.0915e-07
-1.2275e-06
-2.13509e-07
-1.11848e-06
-2.17616e-07
-1.00782e-06
-2.21218e-07
-8.95766e-07
-2.24264e-07
-7.82077e-07
-2.27346e-07
-6.67187e-07
-2.2959e-07
-5.50942e-07
-2.31361e-07
-4.34562e-07
-2.3198e-07
-3.1759e-07
-2.33395e-07
-2.00662e-07
-2.34005e-07
-8.30151e-08
-2.35307e-07
3.44464e-08
-2.35022e-07
1.52717e-07
-2.36004e-07
2.69693e-07
-2.33216e-07
3.86962e-07
-2.34002e-07
5.02228e-07
-2.31348e-07
6.17523e-07
-2.32273e-07
7.34123e-07
-2.32409e-07
8.49651e-07
-2.29988e-07
9.66485e-07
-2.29538e-07
1.07928e-06
-2.22909e-07
1.19158e-06
-2.231e-07
1.29511e-06
-2.12203e-07
1.39471e-06
-2.05243e-07
1.5032e-06
-2.13255e-07
1.61151e-06
-2.0539e-07
1.71972e-06
-1.99802e-07
1.82701e-06
-2.0736e-07
1.8858e-06
-1.53376e-07
1.92947e-06
-1.35297e-07
2.03054e-06
-2.00318e-07
2.14145e-06
-1.64787e-07
2.31855e-06
-2.17397e-07
2.5092e-06
-2.8697e-07
2.85039e-06
-4.02488e-07
3.23333e-06
-4.97875e-07
3.49753e-06
-4.2446e-07
3.65616e-06
-4.78868e-07
3.72411e-06
-4.56338e-07
3.81922e-06
-3.58758e-07
3.902e-06
-2.97832e-07
4.01008e-06
-2.61356e-07
4.11133e-06
-2.2181e-07
4.22513e-06
-2.10802e-07
4.33321e-06
-2.03577e-07
4.43092e-06
-1.86101e-07
4.45313e-06
-1.03242e-07
4.43939e-06
-5.44322e-08
4.49633e-06
-1.31171e-07
4.57555e-06
-8.29898e-08
4.76735e-06
-1.68865e-07
4.99954e-06
-2.7166e-07
5.4703e-06
-4.72461e-07
6.04842e-06
-6.64128e-07
6.49289e-06
-6.04578e-07
6.76488e-06
-6.84593e-07
6.84726e-06
-6.43191e-07
6.94021e-06
-5.19122e-07
7.01581e-06
-4.31404e-07
7.0984e-06
-3.10343e-07
7.13723e-06
-2.13953e-07
7.18857e-06
-1.78394e-07
7.243e-06
-1.47891e-07
7.30921e-06
-1.30116e-07
7.37651e-06
-7.82463e-08
7.47541e-06
-1.10216e-07
7.49371e-06
-2.42904e-08
7.28083e-06
2.26512e-07
7.1001e-06
1.60109e-07
7.0439e-06
9.29726e-08
7.13195e-06
1.46819e-07
7.6555e-06
-3.56297e-07
8.55852e-06
-7.85207e-07
1.05499e-05
-1.85043e-06
1.25035e-05
-2.2636e-06
1.3976e-05
-2.09859e-06
1.4731e-05
-2.41334e-06
1.50089e-05
-2.17393e-06
1.52688e-05
-1.74041e-06
1.55198e-05
-1.41798e-06
1.57734e-05
-1.16076e-06
1.60336e-05
-8.99777e-07
1.62575e-05
-6.74665e-07
1.64407e-05
-5.08718e-07
1.6588e-05
-3.88325e-07
1.67015e-05
-2.88968e-07
1.67851e-05
-2.03273e-07
1.68415e-05
-1.34394e-07
1.68755e-05
-8.37684e-08
1.68872e-05
-3.5784e-08
1.68775e-05
9.20491e-09
1.68492e-05
4.79907e-08
1.68045e-05
8.6074e-08
1.6746e-05
1.14154e-07
1.66744e-05
1.38048e-07
1.65909e-05
1.63502e-07
1.64961e-05
1.91408e-07
1.63914e-05
2.10807e-07
1.6277e-05
2.25148e-07
1.61534e-05
2.44282e-07
1.60203e-05
2.66354e-07
1.5879e-05
2.86654e-07
1.57296e-05
3.01829e-07
1.55727e-05
3.13642e-07
1.54094e-05
3.26535e-07
1.52408e-05
3.37628e-07
1.50666e-05
3.49969e-07
1.48844e-05
3.6281e-07
1.46952e-05
3.77319e-07
1.45023e-05
3.9026e-07
1.43053e-05
3.97795e-07
1.41049e-05
4.01157e-07
1.39012e-05
4.04362e-07
1.36936e-05
4.09877e-07
1.34828e-05
4.16745e-07
1.32692e-05
4.24236e-07
1.30524e-05
4.31504e-07
1.28331e-05
4.37683e-07
1.26116e-05
4.42861e-07
1.23869e-05
4.47254e-07
1.21589e-05
4.54563e-07
1.19286e-05
4.58554e-07
1.16956e-05
4.6075e-07
1.146e-05
4.66278e-07
1.12224e-05
4.7382e-07
1.09831e-05
4.80132e-07
1.07423e-05
4.84579e-07
1.04999e-05
4.87612e-07
1.0256e-05
4.89502e-07
1.00106e-05
4.90747e-07
9.76427e-06
4.91988e-07
9.51723e-06
4.93355e-07
9.26954e-06
4.94909e-07
9.02079e-06
4.96998e-07
8.7713e-06
4.99026e-07
8.52096e-06
5.00602e-07
8.27007e-06
5.01453e-07
8.01892e-06
5.01801e-07
7.76707e-06
5.02702e-07
7.51429e-06
5.04588e-07
7.26073e-06
5.06536e-07
7.00727e-06
5.0723e-07
6.75402e-06
5.06903e-07
6.50051e-06
5.06495e-07
6.24609e-06
5.07876e-07
5.99137e-06
5.08841e-07
5.73722e-06
5.09982e-07
5.48355e-06
5.08142e-07
5.22955e-06
5.10022e-07
4.97482e-06
5.11252e-07
4.71985e-06
5.11026e-07
4.46695e-06
5.03523e-07
4.21252e-06
4.99463e-07
3.95925e-06
4.98806e-07
3.70333e-06
5.01715e-07
3.44757e-06
5.0267e-07
3.19153e-06
5.04515e-07
5.00244e-07
6.30315e-06
-2.88983e-06
7.23335e-06
-2.53682e-06
8.16818e-06
-2.41564e-06
9.08793e-06
-2.08131e-06
1.00693e-05
-1.54769e-06
1.12962e-05
-1.53981e-06
1.32944e-05
-2.6814e-06
1.83441e-05
-7.98271e-06
2.61082e-05
-1.76432e-05
3.27458e-05
-2.34557e-05
3.85114e-05
-2.55992e-05
4.37671e-05
-2.61503e-05
4.82231e-05
-2.5525e-05
5.16657e-05
-2.25127e-05
5.48065e-05
-1.61682e-05
5.76546e-05
-8.06359e-06
5.97307e-05
-1.04496e-06
6.10798e-05
2.81191e-06
6.14674e-05
4.02393e-06
6.10262e-05
3.84328e-06
6.0269e-05
2.00147e-06
5.95016e-05
-1.22178e-06
5.87909e-05
-3.88813e-06
5.79615e-05
-5.47497e-06
5.71457e-05
-6.04729e-06
5.65222e-05
-5.87625e-06
5.59232e-05
-4.68756e-06
5.49986e-05
-1.95808e-06
5.36911e-05
1.02608e-06
5.28036e-05
3.7068e-06
5.29651e-05
5.67411e-06
5.40842e-05
6.40924e-06
5.56611e-05
5.97344e-06
5.72829e-05
4.68111e-06
5.83796e-05
3.5247e-06
5.85823e-05
3.12983e-06
5.82523e-05
3.19892e-06
5.79597e-05
3.29316e-06
5.78216e-05
3.11199e-06
5.77175e-05
2.27828e-06
5.78973e-05
4.41132e-07
5.82193e-05
-7.43291e-07
5.85587e-05
-1.09117e-06
5.89225e-05
-1.04672e-06
5.93706e-05
-5.17785e-07
5.97792e-05
-4.57913e-08
6.01692e-05
-9.74936e-08
6.0555e-05
-7.12032e-07
6.08589e-05
-1.17013e-06
6.11335e-05
-1.19672e-06
6.13931e-05
-8.7441e-07
6.15392e-05
-1.32869e-07
6.16003e-05
9.29404e-08
6.1619e-05
2.40254e-08
6.16084e-05
-5.18875e-07
6.17903e-05
-1.36338e-06
6.20177e-05
-1.75324e-06
6.21779e-05
-1.80335e-06
6.23037e-05
-1.68296e-06
6.23121e-05
-1.07617e-06
6.24481e-05
-2.97551e-07
6.29335e-05
-7.50012e-08
6.37111e-05
-1.90342e-07
6.44489e-05
-1.61203e-07
6.47469e-05
3.66036e-07
6.44981e-05
1.28752e-06
6.40218e-05
1.93463e-06
6.34461e-05
2.10545e-06
6.26645e-05
1.83366e-06
6.19982e-05
9.33892e-07
6.16158e-05
3.68932e-07
6.13152e-05
3.5299e-07
6.10668e-05
7.03434e-07
6.08735e-05
1.85246e-06
6.04647e-05
3.19336e-06
6.02341e-05
4.02753e-06
6.02998e-05
4.58933e-06
6.1472e-05
4.93616e-06
6.38263e-05
5.30179e-06
6.46028e-05
5.41466e-06
6.50185e-05
6.78195e-06
6.18609e-05