/*--------------------------------*- C++ -*----------------------------------*\
| =========                 |                                                 |
| \\      /  F ield         | OpenFOAM: The Open Source CFD Toolbox           |
|  \\    /   O peration     | Version:  v2006                                 |
|   \\  /    A nd           | Website:  www.openfoam.com                      |
|    \\/     M anipulation  |                                                 |
\*---------------------------------------------------------------------------*/
FoamFile
{
    version     2.0;
    format      ascii;
    class       volScalarField;
    location    "7.5";
    object      k;
}
// * * * * * * * * * * * * * * * * * * * * * * * * * * * * * * * * * * * * * //

dimensions      [0 2 -2 0 0 0 0];


internalField   nonuniform List<scalar> 
33000
(
1.15659e-08
1.2677e-08
1.3894e-08
1.55784e-08
1.80865e-08
2.1423e-08
2.5095e-08
2.77377e-08
2.78622e-08
2.6327e-08
2.52381e-08
2.51311e-08
2.61081e-08
2.85724e-08
3.28685e-08
3.87107e-08
4.51187e-08
5.17975e-08
5.87081e-08
6.58167e-08
7.34564e-08
8.2555e-08
9.37962e-08
1.07029e-07
1.20845e-07
1.33005e-07
1.41774e-07
1.47497e-07
1.5361e-07
1.66322e-07
1.91545e-07
2.35691e-07
3.03149e-07
3.903e-07
4.85193e-07
5.73907e-07
6.46997e-07
7.0136e-07
7.37927e-07
7.5936e-07
7.68723e-07
7.68233e-07
7.65613e-07
7.65251e-07
7.64773e-07
7.61128e-07
7.54408e-07
7.43054e-07
7.32302e-07
7.27879e-07
7.27913e-07
7.2566e-07
7.19245e-07
7.07629e-07
6.91473e-07
6.75464e-07
6.62875e-07
6.55301e-07
6.54756e-07
6.62704e-07
6.75364e-07
6.84105e-07
6.87574e-07
6.85595e-07
6.77808e-07
6.63644e-07
6.42283e-07
6.1317e-07
5.76993e-07
5.36735e-07
4.98308e-07
4.66491e-07
4.40966e-07
4.18265e-07
3.96473e-07
3.7461e-07
3.52871e-07
3.32364e-07
3.15245e-07
3.06285e-07
3.09278e-07
3.24825e-07
3.50816e-07
3.84031e-07
4.18848e-07
4.50071e-07
4.75449e-07
4.93808e-07
5.04508e-07
5.08266e-07
5.05753e-07
4.97061e-07
4.82739e-07
4.63433e-07
4.40109e-07
4.13916e-07
3.86583e-07
3.59907e-07
3.36379e-07
3.18403e-07
3.1037e-07
3.14235e-07
3.28317e-07
3.40938e-07
3.43932e-07
3.44961e-07
3.51189e-07
3.57837e-07
3.60478e-07
3.59062e-07
3.56687e-07
3.51112e-07
3.46477e-07
3.42057e-07
3.36241e-07
3.26497e-07
3.15945e-07
3.03106e-07
2.96251e-07
2.94813e-07
2.94712e-07
2.98605e-07
2.97502e-07
2.96911e-07
3.00782e-07
3.04046e-07
3.06595e-07
3.08832e-07
3.09583e-07
3.10131e-07
3.1131e-07
3.12347e-07
3.13496e-07
3.14242e-07
3.14632e-07
3.14728e-07
3.14761e-07
3.14926e-07
3.15075e-07
3.15232e-07
3.15341e-07
3.15412e-07
3.15466e-07
3.15457e-07
3.15292e-07
3.14963e-07
3.14461e-07
3.13846e-07
3.13189e-07
3.12502e-07
3.11713e-07
3.10746e-07
3.0966e-07
3.08526e-07
3.07341e-07
3.06086e-07
3.04732e-07
3.03267e-07
3.01689e-07
3.00002e-07
2.98206e-07
2.96307e-07
2.94297e-07
2.92158e-07
2.89881e-07
2.87469e-07
2.84925e-07
2.82259e-07
2.79475e-07
2.76589e-07
2.73656e-07
2.70734e-07
2.67862e-07
2.6507e-07
2.62394e-07
2.59906e-07
2.57645e-07
2.556e-07
2.5376e-07
2.52113e-07
2.50628e-07
2.49246e-07
2.47901e-07
2.46766e-07
2.45913e-07
2.45325e-07
2.44964e-07
2.44728e-07
2.44568e-07
2.44475e-07
2.44473e-07
2.44571e-07
2.44723e-07
2.44874e-07
2.44967e-07
2.4501e-07
2.45067e-07
2.45218e-07
2.45481e-07
2.45784e-07
2.46006e-07
2.46094e-07
2.46114e-07
2.46146e-07
2.46212e-07
2.46211e-07
2.46046e-07
2.45716e-07
2.45307e-07
2.44914e-07
2.44529e-07
2.44053e-07
2.43469e-07
2.42859e-07
2.42358e-07
2.42039e-07
2.41835e-07
2.41637e-07
2.41357e-07
2.41018e-07
2.40724e-07
2.40567e-07
2.40562e-07
2.40621e-07
2.40636e-07
2.40543e-07
2.40368e-07
2.40198e-07
2.40097e-07
2.40081e-07
2.4008e-07
2.39988e-07
2.39763e-07
2.39452e-07
2.39124e-07
2.38807e-07
2.38489e-07
2.38151e-07
2.37776e-07
2.37345e-07
2.36845e-07
2.36248e-07
2.35539e-07
2.34778e-07
2.3402e-07
2.333e-07
2.32582e-07
2.31751e-07
2.30757e-07
2.29699e-07
2.28668e-07
2.27675e-07
2.26667e-07
2.25582e-07
2.24405e-07
2.2316e-07
2.21885e-07
2.20601e-07
2.19296e-07
2.17942e-07
2.16517e-07
2.15019e-07
2.13484e-07
2.1196e-07
2.10459e-07
2.0894e-07
2.07333e-07
2.05597e-07
2.03796e-07
2.02003e-07
2.00227e-07
1.98456e-07
1.96671e-07
1.94841e-07
1.92937e-07
1.90959e-07
1.88944e-07
1.86912e-07
1.84857e-07
1.82783e-07
1.80705e-07
1.7862e-07
1.76486e-07
1.7426e-07
1.71966e-07
1.69662e-07
1.67348e-07
1.64999e-07
1.62616e-07
1.60188e-07
1.57695e-07
1.55119e-07
1.52458e-07
1.49696e-07
1.46811e-07
1.4388e-07
1.4096e-07
1.38036e-07
1.35101e-07
1.32164e-07
1.29226e-07
1.26295e-07
1.23371e-07
1.20428e-07
1.17446e-07
1.14449e-07
1.11476e-07
1.08576e-07
1.05781e-07
1.03107e-07
1.00571e-07
9.81867e-08
9.59621e-08
9.38859e-08
9.19466e-08
9.01516e-08
8.85135e-08
8.70312e-08
8.57021e-08
8.45278e-08
8.35105e-08
8.26476e-08
8.19285e-08
8.13436e-08
8.08812e-08
8.05332e-08
8.02932e-08
8.0149e-08
8.00854e-08
8.00878e-08
8.01473e-08
8.02562e-08
8.0408e-08
8.05962e-08
8.08085e-08
8.10314e-08
8.12543e-08
8.14679e-08
8.16592e-08
8.18166e-08
8.19341e-08
8.20107e-08
8.2049e-08
8.20529e-08
8.20246e-08
8.19619e-08
8.18637e-08
8.17327e-08
8.15729e-08
8.13862e-08
8.11727e-08
8.09296e-08
8.06556e-08
8.03532e-08
8.00248e-08
7.967e-08
7.92893e-08
7.88851e-08
7.84593e-08
7.80122e-08
7.75454e-08
7.70606e-08
7.65588e-08
7.60409e-08
7.5509e-08
7.4965e-08
7.44088e-08
7.38411e-08
7.32636e-08
7.26797e-08
7.20913e-08
7.14974e-08
7.08956e-08
7.02861e-08
6.96709e-08
6.90511e-08
6.84256e-08
6.77938e-08
6.71559e-08
6.65138e-08
6.58643e-08
6.52063e-08
6.45419e-08
6.38743e-08
6.3204e-08
6.25308e-08
6.18573e-08
6.11829e-08
6.05092e-08
5.98382e-08
5.91729e-08
5.85111e-08
5.78526e-08
5.71992e-08
5.65552e-08
5.59201e-08
5.52966e-08
5.46854e-08
5.40869e-08
5.3498e-08
5.2922e-08
5.23595e-08
5.18154e-08
5.12864e-08
5.07749e-08
5.02746e-08
4.97797e-08
4.9298e-08
4.88264e-08
4.83718e-08
4.79275e-08
4.74922e-08
4.70655e-08
4.66345e-08
4.62253e-08
4.58156e-08
4.54059e-08
4.50129e-08
4.45903e-08
4.41424e-08
4.37629e-08
4.335e-08
4.29575e-08
4.26425e-08
4.20492e-08
4.14328e-08
4.11895e-08
4.05399e-08
4.03578e-08
3.99057e-08
4.07691e-08
4.14874e-08
4.21894e-08
4.25724e-08
4.28033e-08
4.28182e-08
4.27203e-08
4.25583e-08
4.23808e-08
4.21834e-08
4.19332e-08
4.17868e-08
4.14723e-08
4.10525e-08
4.08359e-08
4.03633e-08
3.97405e-08
3.86701e-08
3.84848e-08
3.8799e-08
3.92929e-08
3.98425e-08
4.01578e-08
4.03403e-08
4.03958e-08
4.04155e-08
4.03579e-08
4.01581e-08
3.99329e-08
3.97077e-08
3.9368e-08
3.92678e-08
3.89564e-08
3.80776e-08
3.75811e-08
3.68232e-08
3.59067e-08
3.55504e-08
3.57531e-08
3.82097e-08
4.10667e-08
4.4894e-08
4.9166e-08
5.35872e-08
5.7657e-08
6.10974e-08
6.38894e-08
6.6126e-08
6.78973e-08
6.92587e-08
7.02999e-08
7.11249e-08
7.17757e-08
7.22893e-08
7.27071e-08
7.30307e-08
7.32864e-08
7.35017e-08
7.36784e-08
7.37935e-08
7.38716e-08
7.39462e-08
7.40094e-08
7.40393e-08
7.403e-08
7.3997e-08
7.39555e-08
7.39026e-08
7.38395e-08
7.37604e-08
7.36814e-08
7.35821e-08
7.34388e-08
7.32706e-08
7.31025e-08
7.29445e-08
7.27931e-08
7.26372e-08
7.24702e-08
7.22897e-08
7.20965e-08
7.18968e-08
7.17025e-08
7.14881e-08
7.1269e-08
7.10725e-08
7.08811e-08
7.06705e-08
7.04389e-08
7.01907e-08
6.99328e-08
6.96729e-08
6.94129e-08
6.9154e-08
6.88962e-08
6.86383e-08
6.83799e-08
6.81181e-08
6.78523e-08
6.75872e-08
6.73263e-08
6.70748e-08
6.68288e-08
6.65798e-08
6.63266e-08
6.60752e-08
6.5838e-08
6.56119e-08
6.53953e-08
6.51821e-08
6.49289e-08
6.48571e-08
6.4637e-08
6.43516e-08
6.46909e-08
6.39053e-08
6.51588e-08
6.40925e-08
6.53026e-08
5.92824e-08
1.00089e-08
1.00479e-08
1.01768e-08
1.04813e-08
1.10055e-08
1.17554e-08
1.274e-08
1.40213e-08
1.42142e-08
1.40331e-08
1.3988e-08
1.41754e-08
1.4682e-08
1.56775e-08
1.74454e-08
2.02654e-08
2.38583e-08
2.99238e-08
3.86563e-08
5.03913e-08
6.73729e-08
9.11466e-08
1.22381e-07
1.60738e-07
2.04558e-07
2.50651e-07
2.94303e-07
3.31144e-07
3.58047e-07
3.78829e-07
3.93422e-07
4.08242e-07
4.28332e-07
4.46482e-07
4.49576e-07
4.2838e-07
3.96931e-07
3.66695e-07
3.33258e-07
2.88681e-07
2.3669e-07
1.93456e-07
1.65962e-07
1.53666e-07
1.52307e-07
1.49807e-07
1.3988e-07
1.26595e-07
1.1657e-07
1.12142e-07
1.12428e-07
1.12968e-07
1.07965e-07
9.81595e-08
8.71652e-08
7.71546e-08
6.95804e-08
6.54197e-08
6.54917e-08
7.06056e-08
8.12816e-08
9.56451e-08
1.05775e-07
1.09462e-07
1.09325e-07
1.07526e-07
1.02815e-07
9.27222e-08
7.77702e-08
6.41306e-08
5.51816e-08
5.07696e-08
5.26757e-08
6.13237e-08
7.43867e-08
8.94324e-08
1.08528e-07
1.32713e-07
1.50627e-07
1.62863e-07
1.81141e-07
2.08275e-07
2.50632e-07
3.01276e-07
3.25451e-07
3.59117e-07
3.44104e-07
2.8455e-07
2.10763e-07
1.52886e-07
1.07935e-07
7.59688e-08
5.84535e-08
4.91555e-08
4.70108e-08
4.85531e-08
5.64346e-08
6.6909e-08
8.82036e-08
1.14117e-07
1.30651e-07
1.35127e-07
1.27195e-07
1.17249e-07
1.01288e-07
7.94862e-08
6.15339e-08
4.81294e-08
3.8604e-08
3.07794e-08
2.72604e-08
2.55402e-08
2.44941e-08
2.43618e-08
2.72125e-08
3.11727e-08
4.25459e-08
5.19167e-08
5.13157e-08
4.33476e-08
3.65095e-08
3.16611e-08
2.89762e-08
2.74519e-08
2.69053e-08
2.60798e-08
2.53725e-08
2.48887e-08
2.46481e-08
2.45886e-08
2.47228e-08
2.48841e-08
2.50152e-08
2.51275e-08
2.52961e-08
2.55432e-08
2.58288e-08
2.61186e-08
2.63885e-08
2.66677e-08
2.69843e-08
2.7334e-08
2.76783e-08
2.79693e-08
2.81861e-08
2.83741e-08
2.86139e-08
2.89601e-08
2.93873e-08
2.97752e-08
3.00385e-08
3.02473e-08
3.05319e-08
3.0917e-08
3.13297e-08
3.1702e-08
3.20181e-08
3.23104e-08
3.25968e-08
3.28696e-08
3.31537e-08
3.34964e-08
3.38265e-08
3.40267e-08
3.41876e-08
3.44726e-08
3.47849e-08
3.49046e-08
3.4911e-08
3.50239e-08
3.52645e-08
3.5454e-08
3.53853e-08
3.51745e-08
3.50051e-08
3.49699e-08
3.50745e-08
3.50654e-08
3.48479e-08
3.45341e-08
3.40788e-08
3.35708e-08
3.31759e-08
3.28541e-08
3.26133e-08
3.22803e-08
3.17335e-08
3.11059e-08
3.05339e-08
3.01091e-08
2.96926e-08
2.92066e-08
2.86181e-08
2.79445e-08
2.72722e-08
2.66631e-08
2.61816e-08
2.57522e-08
2.52539e-08
2.46503e-08
2.39678e-08
2.33672e-08
2.28712e-08
2.24141e-08
2.19481e-08
2.14486e-08
2.09271e-08
2.04697e-08
2.00979e-08
1.97463e-08
1.92937e-08
1.87999e-08
1.83763e-08
1.80293e-08
1.77562e-08
1.75043e-08
1.72007e-08
1.68386e-08
1.64671e-08
1.61539e-08
1.58998e-08
1.56993e-08
1.55124e-08
1.52938e-08
1.50467e-08
1.47951e-08
1.45767e-08
1.43982e-08
1.4262e-08
1.41422e-08
1.39942e-08
1.38282e-08
1.36703e-08
1.35373e-08
1.34353e-08
1.335e-08
1.32715e-08
1.32027e-08
1.31415e-08
1.30822e-08
1.30297e-08
1.29793e-08
1.29402e-08
1.29149e-08
1.28999e-08
1.28925e-08
1.28855e-08
1.28733e-08
1.28566e-08
1.28415e-08
1.28314e-08
1.28245e-08
1.28172e-08
1.28069e-08
1.27935e-08
1.27788e-08
1.27646e-08
1.27519e-08
1.27398e-08
1.27269e-08
1.27126e-08
1.26984e-08
1.26873e-08
1.2681e-08
1.26769e-08
1.26698e-08
1.26563e-08
1.26383e-08
1.26221e-08
1.26121e-08
1.26083e-08
1.26077e-08
1.26058e-08
1.25993e-08
1.25885e-08
1.25763e-08
1.25654e-08
1.25566e-08
1.25499e-08
1.25463e-08
1.25452e-08
1.25431e-08
1.25358e-08
1.25235e-08
1.25108e-08
1.2501e-08
1.24944e-08
1.24902e-08
1.24862e-08
1.24788e-08
1.24664e-08
1.24512e-08
1.24364e-08
1.24238e-08
1.24135e-08
1.2403e-08
1.23885e-08
1.23695e-08
1.23477e-08
1.23257e-08
1.23056e-08
1.22857e-08
1.2262e-08
1.22333e-08
1.22017e-08
1.21704e-08
1.21386e-08
1.2104e-08
1.20667e-08
1.20294e-08
1.19956e-08
1.19649e-08
1.19337e-08
1.18992e-08
1.18629e-08
1.18293e-08
1.17992e-08
1.17701e-08
1.1741e-08
1.17125e-08
1.16861e-08
1.16631e-08
1.16419e-08
1.16208e-08
1.16009e-08
1.15844e-08
1.15719e-08
1.15613e-08
1.15509e-08
1.15416e-08
1.15356e-08
1.15346e-08
1.15366e-08
1.15375e-08
1.15356e-08
1.15324e-08
1.15303e-08
1.15303e-08
1.15325e-08
1.15351e-08
1.15359e-08
1.15346e-08
1.15327e-08
1.15319e-08
1.15329e-08
1.15328e-08
1.15296e-08
1.15241e-08
1.15186e-08
1.15153e-08
1.15133e-08
1.15095e-08
1.1503e-08
1.14966e-08
1.14921e-08
1.14879e-08
1.14828e-08
1.14775e-08
1.14727e-08
1.1468e-08
1.14637e-08
1.14595e-08
1.14552e-08
1.14511e-08
1.14473e-08
1.14432e-08
1.14378e-08
1.14308e-08
1.14229e-08
1.14154e-08
1.14082e-08
1.14001e-08
1.13899e-08
1.13781e-08
1.13664e-08
1.1355e-08
1.13433e-08
1.13309e-08
1.13186e-08
1.13065e-08
1.12929e-08
1.12766e-08
1.12592e-08
1.12423e-08
1.12261e-08
1.12098e-08
1.11937e-08
1.11763e-08
1.11575e-08
1.11386e-08
1.11211e-08
1.11037e-08
1.10847e-08
1.10648e-08
1.10457e-08
1.10263e-08
1.10075e-08
1.09899e-08
1.09728e-08
1.09546e-08
1.09348e-08
1.09139e-08
1.08944e-08
1.08757e-08
1.08579e-08
1.08401e-08
1.08205e-08
1.07988e-08
1.07782e-08
1.07588e-08
1.07412e-08
1.07237e-08
1.07064e-08
1.06858e-08
1.06661e-08
1.06507e-08
1.06375e-08
1.06289e-08
1.06203e-08
1.06006e-08
1.05765e-08
1.05718e-08
1.06061e-08
1.06616e-08
1.0714e-08
1.06919e-08
1.07908e-08
1.07982e-08
1.07309e-08
1.06052e-08
1.05149e-08
1.04993e-08
1.0487e-08
1.04884e-08
1.04915e-08
1.04803e-08
1.04643e-08
1.04469e-08
1.0441e-08
1.04634e-08
1.05309e-08
1.07036e-08
1.08401e-08
1.07704e-08
1.08697e-08
1.07914e-08
1.06941e-08
1.05879e-08
1.05288e-08
1.0507e-08
1.04529e-08
1.03852e-08
1.03287e-08
1.03252e-08
1.03391e-08
1.03756e-08
1.04143e-08
1.04161e-08
1.04196e-08
1.05423e-08
1.05767e-08
1.07799e-08
1.12275e-08
1.12971e-08
1.1463e-08
1.13804e-08
1.1186e-08
1.11152e-08
1.13169e-08
1.15711e-08
1.14291e-08
1.1265e-08
1.11693e-08
1.10823e-08
1.09593e-08
1.08349e-08
1.07526e-08
1.07264e-08
1.07468e-08
1.07862e-08
1.08261e-08
1.08786e-08
1.0939e-08
1.09979e-08
1.10593e-08
1.10978e-08
1.11254e-08
1.11619e-08
1.12076e-08
1.12289e-08
1.1233e-08
1.12541e-08
1.12888e-08
1.13207e-08
1.13335e-08
1.1334e-08
1.13398e-08
1.13451e-08
1.13532e-08
1.13576e-08
1.13717e-08
1.13889e-08
1.13831e-08
1.13609e-08
1.13372e-08
1.13218e-08
1.13169e-08
1.13172e-08
1.13163e-08
1.13133e-08
1.13075e-08
1.12968e-08
1.12952e-08
1.12849e-08
1.12678e-08
1.12654e-08
1.12743e-08
1.12804e-08
1.12785e-08
1.12697e-08
1.1256e-08
1.12403e-08
1.12266e-08
1.12155e-08
1.12066e-08
1.11992e-08
1.11932e-08
1.11852e-08
1.11753e-08
1.1165e-08
1.11562e-08
1.11515e-08
1.11488e-08
1.11444e-08
1.11362e-08
1.1126e-08
1.11212e-08
1.11185e-08
1.11191e-08
1.11115e-08
1.11028e-08
1.11188e-08
1.10905e-08
1.10873e-08
1.10431e-08
1.10694e-08
1.10942e-08
1.11342e-08
1.12462e-08
1.10813e-08
1.00038e-08
1.00187e-08
1.00729e-08
1.02163e-08
1.04962e-08
1.08931e-08
1.12748e-08
1.14463e-08
1.14619e-08
1.15256e-08
1.17229e-08
1.21082e-08
1.27364e-08
1.36244e-08
1.47519e-08
1.63077e-08
1.91237e-08
2.41466e-08
3.21975e-08
4.51431e-08
6.56383e-08
9.57411e-08
1.36275e-07
1.87436e-07
2.47862e-07
3.13344e-07
3.75743e-07
4.25445e-07
4.58044e-07
4.64589e-07
4.54184e-07
4.36001e-07
4.1092e-07
3.76709e-07
3.33441e-07
2.83532e-07
2.39007e-07
2.04083e-07
1.74946e-07
1.46113e-07
1.15833e-07
9.00234e-08
7.28493e-08
6.35138e-08
5.92543e-08
5.63424e-08
5.2753e-08
4.84158e-08
4.46799e-08
4.25849e-08
4.18411e-08
4.11375e-08
3.95644e-08
3.69661e-08
3.36627e-08
3.01199e-08
2.71287e-08
2.51964e-08
2.45924e-08
2.54397e-08
2.74714e-08
3.01837e-08
3.23758e-08
3.37442e-08
3.47432e-08
3.56172e-08
3.55914e-08
3.39672e-08
3.10287e-08
2.77186e-08
2.52638e-08
2.43006e-08
2.50308e-08
2.73097e-08
3.05965e-08
3.4613e-08
3.96091e-08
4.72847e-08
5.87098e-08
6.99657e-08
8.62202e-08
1.05341e-07
1.26362e-07
1.5475e-07
1.87995e-07
2.28758e-07
2.60112e-07
2.70419e-07
2.50801e-07
2.20019e-07
1.62578e-07
1.14653e-07
8.26398e-08
5.91505e-08
4.31285e-08
3.4029e-08
3.03378e-08
3.04167e-08
3.39399e-08
4.18316e-08
4.9104e-08
5.4116e-08
5.54599e-08
5.34401e-08
4.71514e-08
3.84956e-08
3.09551e-08
2.58408e-08
2.19033e-08
1.90877e-08
1.706e-08
1.54309e-08
1.42529e-08
1.3262e-08
1.26641e-08
1.24276e-08
1.32282e-08
1.48311e-08
1.55107e-08
1.56848e-08
1.54397e-08
1.48021e-08
1.39643e-08
1.33881e-08
1.29733e-08
1.2633e-08
1.23326e-08
1.21466e-08
1.19837e-08
1.18762e-08
1.18284e-08
1.17926e-08
1.17509e-08
1.17517e-08
1.17817e-08
1.18301e-08
1.18739e-08
1.19143e-08
1.19475e-08
1.19803e-08
1.20232e-08
1.20767e-08
1.21297e-08
1.21725e-08
1.22035e-08
1.22327e-08
1.22729e-08
1.23297e-08
1.23949e-08
1.24513e-08
1.24921e-08
1.25318e-08
1.2587e-08
1.26563e-08
1.27245e-08
1.27847e-08
1.28421e-08
1.29034e-08
1.29652e-08
1.30217e-08
1.30784e-08
1.31439e-08
1.32055e-08
1.32475e-08
1.32881e-08
1.33505e-08
1.34149e-08
1.34438e-08
1.34513e-08
1.34787e-08
1.35271e-08
1.35617e-08
1.35509e-08
1.35103e-08
1.34708e-08
1.34503e-08
1.3452e-08
1.34338e-08
1.33775e-08
1.32988e-08
1.31882e-08
1.30632e-08
1.29554e-08
1.28624e-08
1.27874e-08
1.27029e-08
1.25855e-08
1.24524e-08
1.23246e-08
1.22193e-08
1.21237e-08
1.20273e-08
1.19229e-08
1.18081e-08
1.16928e-08
1.15894e-08
1.15055e-08
1.14319e-08
1.13558e-08
1.12717e-08
1.11831e-08
1.11046e-08
1.10392e-08
1.098e-08
1.0922e-08
1.08645e-08
1.08089e-08
1.07602e-08
1.07192e-08
1.06804e-08
1.06368e-08
1.05923e-08
1.05534e-08
1.05208e-08
1.04944e-08
1.04711e-08
1.04465e-08
1.04197e-08
1.03926e-08
1.0369e-08
1.03495e-08
1.03338e-08
1.03202e-08
1.03064e-08
1.02921e-08
1.02778e-08
1.02651e-08
1.02545e-08
1.02461e-08
1.02391e-08
1.02319e-08
1.02244e-08
1.02169e-08
1.02105e-08
1.02055e-08
1.02019e-08
1.01991e-08
1.01967e-08
1.01943e-08
1.01918e-08
1.01894e-08
1.01874e-08
1.0186e-08
1.01853e-08
1.01853e-08
1.01857e-08
1.01862e-08
1.0186e-08
1.01854e-08
1.01851e-08
1.01852e-08
1.01854e-08
1.01854e-08
1.01852e-08
1.01848e-08
1.01844e-08
1.01841e-08
1.01839e-08
1.01834e-08
1.01827e-08
1.01818e-08
1.01811e-08
1.01807e-08
1.01806e-08
1.01806e-08
1.01803e-08
1.01793e-08
1.0178e-08
1.01769e-08
1.01762e-08
1.0176e-08
1.0176e-08
1.01758e-08
1.01753e-08
1.01745e-08
1.01737e-08
1.01729e-08
1.01722e-08
1.01717e-08
1.01715e-08
1.01715e-08
1.01714e-08
1.01709e-08
1.017e-08
1.01692e-08
1.01686e-08
1.01683e-08
1.01682e-08
1.0168e-08
1.01676e-08
1.0167e-08
1.01662e-08
1.01656e-08
1.01651e-08
1.01647e-08
1.01643e-08
1.01638e-08
1.01631e-08
1.01623e-08
1.01613e-08
1.01604e-08
1.01595e-08
1.01586e-08
1.01574e-08
1.01561e-08
1.01546e-08
1.01531e-08
1.01516e-08
1.015e-08
1.01483e-08
1.01467e-08
1.01453e-08
1.01439e-08
1.01422e-08
1.01404e-08
1.01386e-08
1.01371e-08
1.01357e-08
1.01344e-08
1.01331e-08
1.01319e-08
1.01309e-08
1.01299e-08
1.0129e-08
1.01283e-08
1.01278e-08
1.01276e-08
1.01273e-08
1.01271e-08
1.01269e-08
1.0127e-08
1.01274e-08
1.01279e-08
1.01281e-08
1.01279e-08
1.01275e-08
1.01271e-08
1.01268e-08
1.01266e-08
1.01265e-08
1.01263e-08
1.0126e-08
1.01256e-08
1.01255e-08
1.01254e-08
1.01253e-08
1.01249e-08
1.01245e-08
1.01241e-08
1.01238e-08
1.01237e-08
1.01234e-08
1.0123e-08
1.01226e-08
1.01223e-08
1.01221e-08
1.01218e-08
1.01215e-08
1.01213e-08
1.01211e-08
1.01209e-08
1.01207e-08
1.01206e-08
1.01204e-08
1.01203e-08
1.01201e-08
1.01199e-08
1.01195e-08
1.0119e-08
1.01186e-08
1.01182e-08
1.01177e-08
1.01171e-08
1.01163e-08
1.01157e-08
1.0115e-08
1.01144e-08
1.01137e-08
1.0113e-08
1.01123e-08
1.01115e-08
1.01106e-08
1.01095e-08
1.01086e-08
1.01077e-08
1.01067e-08
1.01058e-08
1.01048e-08
1.01037e-08
1.01026e-08
1.01015e-08
1.01005e-08
1.00994e-08
1.00982e-08
1.00972e-08
1.0096e-08
1.00949e-08
1.00939e-08
1.00929e-08
1.00918e-08
1.00906e-08
1.00894e-08
1.00882e-08
1.0087e-08
1.0086e-08
1.00849e-08
1.00837e-08
1.00824e-08
1.00811e-08
1.00798e-08
1.00787e-08
1.00778e-08
1.00772e-08
1.00765e-08
1.00759e-08
1.00753e-08
1.00746e-08
1.0073e-08
1.00731e-08
1.00735e-08
1.00746e-08
1.00754e-08
1.00741e-08
1.00748e-08
1.0075e-08
1.00736e-08
1.00724e-08
1.00714e-08
1.00713e-08
1.00707e-08
1.00702e-08
1.00693e-08
1.00678e-08
1.00658e-08
1.00637e-08
1.00635e-08
1.0063e-08
1.00633e-08
1.00652e-08
1.00671e-08
1.00669e-08
1.00704e-08
1.00697e-08
1.0066e-08
1.00614e-08
1.00591e-08
1.00587e-08
1.00585e-08
1.00588e-08
1.00585e-08
1.00577e-08
1.00573e-08
1.00569e-08
1.0057e-08
1.00572e-08
1.00572e-08
1.00583e-08
1.00591e-08
1.00625e-08
1.00753e-08
1.00838e-08
1.00955e-08
1.01114e-08
1.01101e-08
1.01046e-08
1.01035e-08
1.01079e-08
1.01052e-08
1.01112e-08
1.01211e-08
1.01242e-08
1.01218e-08
1.01147e-08
1.01042e-08
1.00925e-08
1.00821e-08
1.00743e-08
1.00692e-08
1.00665e-08
1.00651e-08
1.00643e-08
1.00644e-08
1.00651e-08
1.00661e-08
1.00673e-08
1.00682e-08
1.00689e-08
1.007e-08
1.00715e-08
1.00724e-08
1.00729e-08
1.00738e-08
1.00752e-08
1.00765e-08
1.00773e-08
1.00776e-08
1.0078e-08
1.00783e-08
1.00787e-08
1.00791e-08
1.00797e-08
1.00803e-08
1.00801e-08
1.00792e-08
1.00783e-08
1.00777e-08
1.00775e-08
1.00775e-08
1.00775e-08
1.00775e-08
1.00774e-08
1.00771e-08
1.00772e-08
1.00769e-08
1.00764e-08
1.00764e-08
1.00768e-08
1.0077e-08
1.00769e-08
1.00766e-08
1.00761e-08
1.00756e-08
1.00751e-08
1.00747e-08
1.00744e-08
1.00741e-08
1.00739e-08
1.00736e-08
1.00731e-08
1.00727e-08
1.00724e-08
1.00723e-08
1.00723e-08
1.00722e-08
1.00719e-08
1.00715e-08
1.00713e-08
1.00713e-08
1.00712e-08
1.00708e-08
1.00705e-08
1.00708e-08
1.00704e-08
1.00696e-08
1.00687e-08
1.00695e-08
1.00716e-08
1.00746e-08
1.00802e-08
1.00741e-08
1.00035e-08
1.00148e-08
1.00546e-08
1.01536e-08
1.03287e-08
1.05501e-08
1.07412e-08
1.08377e-08
1.09102e-08
1.10561e-08
1.13543e-08
1.19102e-08
1.28657e-08
1.4358e-08
1.64449e-08
1.91911e-08
2.28881e-08
2.83036e-08
3.6636e-08
4.89346e-08
6.60058e-08
8.84149e-08
1.16646e-07
1.49113e-07
1.81469e-07
2.07485e-07
2.22484e-07
2.40139e-07
2.67233e-07
2.93756e-07
3.09656e-07
2.99243e-07
2.67324e-07
2.26204e-07
1.8459e-07
1.47811e-07
1.2062e-07
1.00742e-07
8.47802e-08
6.89449e-08
5.41267e-08
4.26437e-08
3.48916e-08
3.0561e-08
2.84337e-08
2.70494e-08
2.56538e-08
2.40888e-08
2.25881e-08
2.16748e-08
2.13401e-08
2.10212e-08
2.04547e-08
1.9687e-08
1.87286e-08
1.75729e-08
1.64521e-08
1.55798e-08
1.51034e-08
1.50683e-08
1.52729e-08
1.55127e-08
1.58081e-08
1.62783e-08
1.7031e-08
1.78344e-08
1.83096e-08
1.8223e-08
1.76533e-08
1.67904e-08
1.60549e-08
1.56978e-08
1.58651e-08
1.66348e-08
1.78655e-08
1.93769e-08
2.11401e-08
2.32768e-08
2.62517e-08
3.04753e-08
3.78993e-08
5.01789e-08
6.47641e-08
8.4754e-08
1.06185e-07
1.27086e-07
1.49915e-07
1.67179e-07
1.74544e-07
1.70733e-07
1.541e-07
1.30368e-07
1.04301e-07
7.92271e-08
5.89295e-08
4.41116e-08
3.35248e-08
2.69318e-08
2.36223e-08
2.28766e-08
2.33197e-08
2.42193e-08
2.53431e-08
2.56231e-08
2.48498e-08
2.31226e-08
2.09646e-08
1.90896e-08
1.73523e-08
1.59455e-08
1.49981e-08
1.43233e-08
1.36985e-08
1.30712e-08
1.24546e-08
1.19435e-08
1.15331e-08
1.12445e-08
1.10071e-08
1.09818e-08
1.10108e-08
1.09737e-08
1.09269e-08
1.08807e-08
1.08076e-08
1.0709e-08
1.06404e-08
1.0578e-08
1.05143e-08
1.04559e-08
1.04135e-08
1.03792e-08
1.03554e-08
1.03409e-08
1.03341e-08
1.03332e-08
1.03355e-08
1.03407e-08
1.03464e-08
1.03526e-08
1.03597e-08
1.03676e-08
1.03757e-08
1.03832e-08
1.03896e-08
1.0396e-08
1.04041e-08
1.04144e-08
1.04252e-08
1.04346e-08
1.04423e-08
1.04507e-08
1.04618e-08
1.04744e-08
1.04857e-08
1.04953e-08
1.05055e-08
1.05176e-08
1.05301e-08
1.05411e-08
1.05516e-08
1.05629e-08
1.05731e-08
1.05811e-08
1.059e-08
1.06018e-08
1.06129e-08
1.06181e-08
1.06192e-08
1.06228e-08
1.06293e-08
1.06333e-08
1.06304e-08
1.06217e-08
1.06119e-08
1.06043e-08
1.06e-08
1.05931e-08
1.05801e-08
1.05629e-08
1.05402e-08
1.05151e-08
1.04923e-08
1.04718e-08
1.04545e-08
1.04367e-08
1.04152e-08
1.03915e-08
1.03676e-08
1.03467e-08
1.03283e-08
1.03111e-08
1.02941e-08
1.02764e-08
1.02584e-08
1.02421e-08
1.02284e-08
1.02166e-08
1.02054e-08
1.0194e-08
1.01823e-08
1.01718e-08
1.01629e-08
1.01549e-08
1.01474e-08
1.01403e-08
1.01338e-08
1.0128e-08
1.01229e-08
1.01181e-08
1.01132e-08
1.01085e-08
1.01044e-08
1.01008e-08
1.00978e-08
1.00951e-08
1.00925e-08
1.00898e-08
1.00872e-08
1.00849e-08
1.00829e-08
1.00812e-08
1.00796e-08
1.00782e-08
1.00769e-08
1.00755e-08
1.00743e-08
1.00732e-08
1.00723e-08
1.00715e-08
1.00707e-08
1.00699e-08
1.00692e-08
1.00686e-08
1.0068e-08
1.00675e-08
1.00671e-08
1.00667e-08
1.00664e-08
1.0066e-08
1.00657e-08
1.00654e-08
1.00652e-08
1.0065e-08
1.00648e-08
1.00646e-08
1.00645e-08
1.00644e-08
1.00643e-08
1.00641e-08
1.0064e-08
1.00639e-08
1.00639e-08
1.00638e-08
1.00637e-08
1.00636e-08
1.00636e-08
1.00635e-08
1.00634e-08
1.00633e-08
1.00632e-08
1.00631e-08
1.0063e-08
1.0063e-08
1.00629e-08
1.00629e-08
1.00628e-08
1.00627e-08
1.00626e-08
1.00625e-08
1.00624e-08
1.00624e-08
1.00623e-08
1.00622e-08
1.00622e-08
1.00621e-08
1.0062e-08
1.00619e-08
1.00619e-08
1.00618e-08
1.00618e-08
1.00617e-08
1.00617e-08
1.00616e-08
1.00616e-08
1.00615e-08
1.00614e-08
1.00614e-08
1.00614e-08
1.00613e-08
1.00613e-08
1.00612e-08
1.00611e-08
1.00611e-08
1.0061e-08
1.00609e-08
1.00608e-08
1.00607e-08
1.00606e-08
1.00605e-08
1.00604e-08
1.00602e-08
1.00601e-08
1.006e-08
1.00598e-08
1.00596e-08
1.00594e-08
1.00592e-08
1.0059e-08
1.00588e-08
1.00586e-08
1.00584e-08
1.00582e-08
1.0058e-08
1.00577e-08
1.00575e-08
1.00572e-08
1.0057e-08
1.00568e-08
1.00566e-08
1.00563e-08
1.00561e-08
1.00559e-08
1.00556e-08
1.00554e-08
1.00552e-08
1.0055e-08
1.00549e-08
1.00547e-08
1.00545e-08
1.00543e-08
1.00542e-08
1.0054e-08
1.00539e-08
1.00538e-08
1.00536e-08
1.00534e-08
1.00532e-08
1.0053e-08
1.00528e-08
1.00526e-08
1.00524e-08
1.00523e-08
1.00522e-08
1.00521e-08
1.00521e-08
1.0052e-08
1.00519e-08
1.00518e-08
1.00517e-08
1.00516e-08
1.00515e-08
1.00514e-08
1.00512e-08
1.00511e-08
1.0051e-08
1.00509e-08
1.00508e-08
1.00507e-08
1.00506e-08
1.00506e-08
1.00505e-08
1.00504e-08
1.00504e-08
1.00503e-08
1.00502e-08
1.00501e-08
1.005e-08
1.00499e-08
1.00499e-08
1.00498e-08
1.00497e-08
1.00496e-08
1.00495e-08
1.00493e-08
1.00492e-08
1.00491e-08
1.0049e-08
1.00489e-08
1.00488e-08
1.00486e-08
1.00485e-08
1.00484e-08
1.00482e-08
1.00481e-08
1.0048e-08
1.00478e-08
1.00477e-08
1.00476e-08
1.00474e-08
1.00473e-08
1.00471e-08
1.0047e-08
1.00469e-08
1.00467e-08
1.00466e-08
1.00465e-08
1.00463e-08
1.00462e-08
1.0046e-08
1.00459e-08
1.00457e-08
1.00456e-08
1.00454e-08
1.00452e-08
1.0045e-08
1.00448e-08
1.00447e-08
1.00447e-08
1.00447e-08
1.00447e-08
1.00446e-08
1.00446e-08
1.00446e-08
1.00445e-08
1.00448e-08
1.00451e-08
1.00454e-08
1.00457e-08
1.00459e-08
1.00467e-08
1.00471e-08
1.00465e-08
1.00458e-08
1.00452e-08
1.00449e-08
1.00444e-08
1.00442e-08
1.00438e-08
1.00433e-08
1.00433e-08
1.00435e-08
1.00436e-08
1.0044e-08
1.00444e-08
1.00447e-08
1.0045e-08
1.00455e-08
1.00465e-08
1.00473e-08
1.00468e-08
1.00456e-08
1.00445e-08
1.00439e-08
1.00432e-08
1.00428e-08
1.00424e-08
1.00419e-08
1.00419e-08
1.00419e-08
1.00421e-08
1.00421e-08
1.00428e-08
1.00433e-08
1.00437e-08
1.00449e-08
1.00478e-08
1.00533e-08
1.00612e-08
1.00705e-08
1.00764e-08
1.00775e-08
1.00751e-08
1.00709e-08
1.00653e-08
1.00601e-08
1.0056e-08
1.00528e-08
1.00505e-08
1.00488e-08
1.00478e-08
1.00471e-08
1.00464e-08
1.00455e-08
1.00446e-08
1.00436e-08
1.00427e-08
1.00419e-08
1.00412e-08
1.00406e-08
1.00401e-08
1.00397e-08
1.00393e-08
1.0039e-08
1.00387e-08
1.00385e-08
1.00384e-08
1.00383e-08
1.00383e-08
1.00383e-08
1.00383e-08
1.00383e-08
1.00383e-08
1.00384e-08
1.00384e-08
1.00385e-08
1.00386e-08
1.00387e-08
1.00388e-08
1.00389e-08
1.0039e-08
1.0039e-08
1.0039e-08
1.00389e-08
1.00389e-08
1.00388e-08
1.00388e-08
1.00388e-08
1.00389e-08
1.00389e-08
1.0039e-08
1.0039e-08
1.00391e-08
1.00391e-08
1.00391e-08
1.00391e-08
1.0039e-08
1.0039e-08
1.00389e-08
1.00388e-08
1.00387e-08
1.00387e-08
1.00387e-08
1.00387e-08
1.00386e-08
1.00386e-08
1.00385e-08
1.00383e-08
1.00381e-08
1.0038e-08
1.0038e-08
1.0038e-08
1.00379e-08
1.00379e-08
1.00379e-08
1.00378e-08
1.00378e-08
1.00378e-08
1.00377e-08
1.00376e-08
1.00375e-08
1.00375e-08
1.00374e-08
1.00374e-08
1.00374e-08
1.00377e-08
1.00384e-08
1.00396e-08
1.00416e-08
1.00392e-08
1.00032e-08
1.00122e-08
1.00414e-08
1.011e-08
1.02257e-08
1.03677e-08
1.04925e-08
1.05714e-08
1.06523e-08
1.07956e-08
1.10647e-08
1.15766e-08
1.25284e-08
1.41654e-08
1.66764e-08
2.01508e-08
2.46643e-08
3.03987e-08
3.76906e-08
4.67596e-08
5.77666e-08
7.10349e-08
8.57091e-08
9.9203e-08
1.08706e-07
1.17096e-07
1.2948e-07
1.48373e-07
1.67931e-07
1.79903e-07
1.76392e-07
1.58033e-07
1.32434e-07
1.07137e-07
8.63947e-08
7.08055e-08
5.91038e-08
4.9779e-08
4.16738e-08
3.4261e-08
2.79987e-08
2.34139e-08
2.0214e-08
1.82958e-08
1.72239e-08
1.65188e-08
1.59574e-08
1.54285e-08
1.4927e-08
1.46206e-08
1.45148e-08
1.44017e-08
1.41926e-08
1.38726e-08
1.35451e-08
1.31491e-08
1.27533e-08
1.24013e-08
1.21293e-08
1.20219e-08
1.19833e-08
1.19869e-08
1.20482e-08
1.21959e-08
1.24648e-08
1.28251e-08
1.31021e-08
1.31905e-08
1.30937e-08
1.29145e-08
1.2708e-08
1.25852e-08
1.26132e-08
1.28483e-08
1.33036e-08
1.3942e-08
1.47235e-08
1.56366e-08
1.6755e-08
1.83104e-08
2.06481e-08
2.45787e-08
3.03838e-08
3.97095e-08
5.24493e-08
6.58944e-08
8.10201e-08
9.62918e-08
1.0644e-07
1.09518e-07
1.06665e-07
9.67651e-08
8.32216e-08
6.85364e-08
5.48087e-08
4.34783e-08
3.45112e-08
2.7825e-08
2.31292e-08
1.99762e-08
1.80006e-08
1.68598e-08
1.63224e-08
1.59562e-08
1.56583e-08
1.53264e-08
1.48777e-08
1.44184e-08
1.39553e-08
1.35429e-08
1.32187e-08
1.29424e-08
1.27129e-08
1.25661e-08
1.24198e-08
1.22024e-08
1.19154e-08
1.15875e-08
1.12866e-08
1.10019e-08
1.07626e-08
1.05635e-08
1.04427e-08
1.0373e-08
1.03282e-08
1.03022e-08
1.02878e-08
1.02757e-08
1.02678e-08
1.0266e-08
1.02565e-08
1.02369e-08
1.02139e-08
1.01925e-08
1.01743e-08
1.01613e-08
1.0152e-08
1.01449e-08
1.01396e-08
1.01359e-08
1.01336e-08
1.01325e-08
1.01322e-08
1.01324e-08
1.01329e-08
1.01338e-08
1.01352e-08
1.01368e-08
1.01386e-08
1.01402e-08
1.01417e-08
1.01436e-08
1.01459e-08
1.01483e-08
1.01506e-08
1.01526e-08
1.01548e-08
1.01574e-08
1.016e-08
1.01626e-08
1.01649e-08
1.0167e-08
1.01689e-08
1.01705e-08
1.01722e-08
1.01743e-08
1.01762e-08
1.0177e-08
1.01771e-08
1.01774e-08
1.01782e-08
1.01785e-08
1.01777e-08
1.01757e-08
1.01733e-08
1.01711e-08
1.01694e-08
1.01673e-08
1.01642e-08
1.01603e-08
1.01555e-08
1.01504e-08
1.01456e-08
1.01411e-08
1.01371e-08
1.01332e-08
1.0129e-08
1.01245e-08
1.012e-08
1.01158e-08
1.01121e-08
1.01088e-08
1.01056e-08
1.01025e-08
1.00995e-08
1.00967e-08
1.00942e-08
1.0092e-08
1.009e-08
1.00881e-08
1.00862e-08
1.00845e-08
1.00829e-08
1.00815e-08
1.00802e-08
1.0079e-08
1.00779e-08
1.00768e-08
1.00758e-08
1.00749e-08
1.0074e-08
1.00732e-08
1.00724e-08
1.00716e-08
1.00709e-08
1.00703e-08
1.00696e-08
1.0069e-08
1.00685e-08
1.00679e-08
1.00673e-08
1.00668e-08
1.00663e-08
1.00659e-08
1.00654e-08
1.0065e-08
1.00646e-08
1.00642e-08
1.00638e-08
1.00634e-08
1.00631e-08
1.00628e-08
1.00625e-08
1.00622e-08
1.00619e-08
1.00616e-08
1.00613e-08
1.00611e-08
1.00609e-08
1.00607e-08
1.00604e-08
1.00602e-08
1.006e-08
1.00598e-08
1.00597e-08
1.00595e-08
1.00594e-08
1.00592e-08