/*--------------------------------*- C++ -*----------------------------------*\
| =========                 |                                                 |
| \\      /  F ield         | OpenFOAM: The Open Source CFD Toolbox           |
|  \\    /   O peration     | Version:  v2006                                 |
|   \\  /    A nd           | Website:  www.openfoam.com                      |
|    \\/     M anipulation  |                                                 |
\*---------------------------------------------------------------------------*/
FoamFile
{
    version     2.0;
    format      ascii;
    class       volScalarField;
    location    "7.5";
    object      omega;
}
// * * * * * * * * * * * * * * * * * * * * * * * * * * * * * * * * * * * * * //

dimensions      [0 0 -1 0 0 0 0];


internalField   nonuniform List<scalar> 
33000
(
0.80143
0.801568
0.801718
0.801926
0.802236
0.802648
0.803101
0.803426
0.803442
0.803255
0.803123
0.803111
0.803235
0.803544
0.804079
0.804802
0.805591
0.806412
0.807259
0.808131
0.809068
0.810185
0.811563
0.813178
0.814855
0.816319
0.817369
0.818057
0.818811
0.820386
0.823487
0.828864
0.836976
0.847283
0.858304
0.868433
0.876658
0.882704
0.886735
0.889069
0.890066
0.88999
0.889699
0.889662
0.8896
0.889184
0.888423
0.887149
0.885964
0.885489
0.885496
0.885233
0.8845
0.883181
0.881365
0.879575
0.878173
0.87734
0.877305
0.878224
0.879646
0.88061
0.880986
0.880743
0.879844
0.878227
0.875792
0.872471
0.868335
0.863723
0.859319
0.855667
0.852727
0.850098
0.847562
0.845011
0.842466
0.840063
0.83806
0.837024
0.837403
0.839264
0.842343
0.846246
0.850309
0.853928
0.856851
0.858956
0.860174
0.860595
0.860296
0.859286
0.857627
0.855391
0.852683
0.849634
0.846443
0.84332
0.840559
0.83845
0.837514
0.837992
0.839661
0.841153
0.841509
0.841628
0.842356
0.843137
0.843448
0.843279
0.842998
0.842342
0.841796
0.841275
0.84059
0.83944
0.838191
0.836679
0.835873
0.83571
0.8357
0.836161
0.836031
0.835959
0.836416
0.836802
0.837105
0.837367
0.837454
0.837518
0.837656
0.837778
0.837912
0.838002
0.838046
0.838055
0.838058
0.838076
0.838093
0.83811
0.838122
0.838129
0.838134
0.838132
0.838113
0.838073
0.838011
0.837936
0.837858
0.837776
0.837685
0.837569
0.837439
0.837305
0.837165
0.837017
0.836857
0.836683
0.836496
0.836295
0.836082
0.835857
0.835619
0.835366
0.835095
0.834809
0.834507
0.834191
0.83386
0.833518
0.833169
0.832822
0.832482
0.832149
0.83183
0.831535
0.831267
0.831024
0.830805
0.830608
0.83043
0.830266
0.830107
0.829974
0.829874
0.829806
0.829765
0.829739
0.829722
0.829715
0.829717
0.829731
0.829751
0.829772
0.829786
0.829794
0.829803
0.829825
0.829859
0.829898
0.829926
0.829939
0.829943
0.829949
0.829958
0.829956
0.829934
0.829892
0.829842
0.829794
0.829745
0.829686
0.829615
0.829541
0.82948
0.829441
0.829414
0.829389
0.829354
0.829312
0.829276
0.829257
0.829256
0.829261
0.829262
0.82925
0.829228
0.829207
0.829195
0.829193
0.829192
0.82918
0.829153
0.829115
0.829076
0.829037
0.828999
0.828958
0.828913
0.828862
0.828802
0.82873
0.828645
0.828554
0.828463
0.828378
0.828292
0.828192
0.828073
0.827947
0.827824
0.827705
0.827585
0.827455
0.827314
0.827165
0.827012
0.826859
0.826703
0.826541
0.82637
0.826191
0.826007
0.825824
0.825644
0.825462
0.82527
0.825061
0.824845
0.82463
0.824417
0.824204
0.82399
0.82377
0.823541
0.823303
0.823061
0.822817
0.822569
0.82232
0.822069
0.821818
0.821561
0.821293
0.821016
0.820738
0.820459
0.820176
0.819888
0.819595
0.819294
0.818982
0.81866
0.818326
0.817977
0.817622
0.817268
0.816914
0.816558
0.816201
0.815845
0.815489
0.815134
0.814776
0.814413
0.814049
0.813687
0.813334
0.812993
0.812668
0.812358
0.812068
0.811796
0.811543
0.811306
0.811087
0.810887
0.810706
0.810544
0.8104
0.810276
0.810171
0.810083
0.810012
0.809955
0.809913
0.809883
0.809866
0.809858
0.809859
0.809866
0.809879
0.809898
0.809921
0.809947
0.809974
0.810001
0.810028
0.810051
0.81007
0.810085
0.810094
0.810099
0.810099
0.810096
0.810088
0.810076
0.81006
0.81004
0.810017
0.809991
0.809961
0.809928
0.809891
0.80985
0.809807
0.80976
0.809711
0.809659
0.809604
0.809547
0.809487
0.809426
0.809363
0.809297
0.809231
0.809163
0.809093
0.809023
0.808951
0.808879
0.808807
0.808733
0.808658
0.808583
0.808507
0.808431
0.808353
0.808275
0.808197
0.808117
0.808037
0.807955
0.807874
0.807792
0.807709
0.807627
0.807544
0.807462
0.80738
0.807298
0.807217
0.807137
0.807057
0.806978
0.8069
0.806823
0.806749
0.806675
0.806603
0.806533
0.806464
0.806397
0.806332
0.806269
0.806208
0.806147
0.806087
0.806029
0.805973
0.805918
0.805864
0.805811
0.805758
0.805707
0.805657
0.805606
0.805557
0.805505
0.80545
0.805403
0.805352
0.805303
0.805264
0.805191
0.805115
0.805085
0.805005
0.804982
0.804927
0.805032
0.80512
0.805206
0.805252
0.80528
0.805282
0.805269
0.805249
0.805227
0.805203
0.805172
0.805154
0.805115
0.805064
0.805037
0.804979
0.804902
0.804771
0.804749
0.804787
0.804848
0.804915
0.804954
0.804976
0.804983
0.804985
0.804978
0.804954
0.804926
0.804898
0.804856
0.804844
0.804806
0.804697
0.804636
0.804543
0.804431
0.804388
0.804414
0.804718
0.80507
0.805541
0.806066
0.806609
0.807108
0.807529
0.80787
0.808144
0.80836
0.808526
0.808653
0.808754
0.808833
0.808896
0.808947
0.808987
0.809018
0.809044
0.809066
0.80908
0.809089
0.809098
0.809106
0.809109
0.809108
0.809104
0.809099
0.809093
0.809085
0.809075
0.809066
0.809053
0.809036
0.809015
0.808995
0.808975
0.808957
0.808938
0.808917
0.808895
0.808872
0.808847
0.808823
0.808797
0.80877
0.808746
0.808723
0.808697
0.808669
0.808638
0.808607
0.808575
0.808543
0.808511
0.80848
0.808448
0.808417
0.808385
0.808352
0.808319
0.808288
0.808257
0.808227
0.808196
0.808165
0.808134
0.808105
0.808078
0.808051
0.808025
0.807994
0.807986
0.80796
0.807925
0.807969
0.807871
0.808028
0.807895
0.808046
0.807307
0.00260235
0.00710841
0.0208036
0.0542669
0.120901
0.232254
0.402122
0.64696
0.786473
0.792447
0.75456
0.727822
0.726761
0.763077
0.826964
0.89143
0.936202
0.989427
1.05014
1.10138
1.13547
1.15103
1.17443
1.22362
1.2993
1.39072
1.48168
1.55365
1.58423
1.56374
1.49428
1.40353
1.32274
1.25665
1.19394
1.12037
1.04289
0.970866
0.903872
0.835232
0.763423
0.69873
0.650861
0.621274
0.604432
0.589037
0.57017
0.548899
0.531441
0.521764
0.517986
0.51292
0.500757
0.481543
0.458288
0.436176
0.418521
0.407104
0.404069
0.411127
0.4268
0.446359
0.463437
0.476995
0.490007
0.504086
0.515519
0.519449
0.517116
0.51632
0.52524
0.549272
0.592158
0.650524
0.714018
0.775981
0.835927
0.897912
0.945384
1.00416
1.11742
1.21571
1.28709
1.37272
1.42304
1.48759
1.46239
1.33757
1.16421
0.997012
0.831379
0.681687
0.569103
0.49077
0.454144
0.45837
0.499986
0.579901
0.694031
0.811923
0.890752
0.978265
1.08225
1.12519
1.09738
0.961897
0.814739
0.634499
0.484803
0.390347
0.311774
0.255147
0.215837
0.197835
0.201848
0.223239
0.270958
0.310769
0.321748
0.333381
0.359021
0.336337
0.293967
0.25094
0.222502
0.197943
0.181268
0.168218
0.159398
0.153691
0.150979
0.149749
0.149403
0.149472
0.150109
0.151274
0.152689
0.154194
0.155608
0.157043
0.158584
0.160214
0.161774
0.163062
0.164003
0.164844
0.165934
0.167461
0.169255
0.170847
0.171998
0.173034
0.174428
0.176183
0.177969
0.179612
0.181164
0.18273
0.18426
0.185675
0.187106
0.188737
0.190293
0.19139
0.192401
0.193873
0.195379
0.196073
0.196295
0.196951
0.19803
0.19879
0.198477
0.197453
0.196417
0.195782
0.195633
0.194976
0.193388
0.191219
0.188206
0.184789
0.181746
0.179034
0.176765
0.174207
0.170718
0.166719
0.162803
0.159504
0.156467
0.15336
0.149913
0.146022
0.14202
0.138333
0.135275
0.132535
0.129624
0.126317
0.1227
0.119369
0.116462
0.113748
0.111043
0.108274
0.105464
0.102885
0.100613
0.0984104
0.0958343
0.0930859
0.0905858
0.0884117
0.086584
0.0848913
0.0830001
0.0808263
0.0785575
0.0765279
0.0748143
0.073406
0.0721165
0.0707159
0.0691771
0.0676013
0.0661801
0.0649908
0.0640506
0.0632351
0.062331
0.0613454
0.0603903
0.0595698
0.0589359
0.0584351
0.0580087
0.0576399
0.0573076
0.0569906
0.0567066
0.0564358
0.0562171
0.0560829
0.0560391
0.0560665
0.0560945
0.0560595
0.0559735
0.0559143
0.0559254
0.0559845
0.056037
0.0560458
0.0560144
0.0559692
0.0559359
0.0559207
0.055904
0.0558628
0.0557966
0.0557315
0.0557089
0.0557456
0.0558043
0.0558134
0.0557266
0.0555703
0.0554361
0.0553904
0.055433
0.0555168
0.0555798
0.0555802
0.0555235
0.0554479
0.055391
0.055367
0.0553802
0.0554384
0.0555337
0.0556165
0.0556278
0.0555708
0.0555119
0.0555066
0.0555611
0.055656
0.0557566
0.0558121
0.055801
0.0557575
0.0557347
0.0557606
0.0558305
0.0559018
0.0559213
0.0558785
0.0558005
0.0557286
0.0556959
0.0556739
0.0555994
0.0554537
0.0552745
0.0551124
0.0549452
0.0547188
0.0544323
0.0541359
0.0538833
0.0536602
0.0534006
0.0530552
0.0526563
0.05229
0.0519704
0.0516487
0.0513103
0.0509717
0.0506688
0.0504194
0.0501869
0.0499473
0.0497303
0.0495857
0.0495183
0.0494747
0.0494233
0.0493903
0.0494289
0.0495683
0.0497533
0.0498928
0.0499492
0.0499599
0.0499832
0.0500481
0.0501539
0.0502572
0.0503172
0.0503403
0.0503579
0.0504113
0.050503
0.0505665
0.0505617
0.0505163
0.0504907
0.0505179
0.0505707
0.0505884
0.0505584
0.0505457
0.050578
0.0506103
0.050625
0.0506417
0.0506674
0.0506917
0.0507161
0.0507481
0.0507862
0.0508362
0.0508958
0.050949
0.0509772
0.050981
0.0509765
0.0509858
0.0510033
0.0509966
0.0509434
0.0508606
0.0507861
0.0507232
0.0506596
0.0505892
0.050528
0.0504727
0.0503758
0.0502135
0.0500249
0.0498569
0.0497149
0.049578
0.0494437
0.0492707
0.0490548
0.0488408
0.0486692
0.0484893
0.0482559
0.0480044
0.0477777
0.0475379
0.0473113
0.0471171
0.046925
0.04669
0.0463919
0.0460554
0.0457549
0.0454817
0.0452209
0.0449623
0.0446129
0.0442017
0.0437893
0.0434118
0.0431012
0.0427696
0.0424682
0.0420106
0.0416282
0.0413682
0.0410241
0.0409484
0.0408052
0.0401016
0.0396905
0.0395008
0.039135
0.0407764
0.041863
0.0399
0.0406215
0.040045
0.038729
0.0374617
0.0365229
0.0359081
0.0356955
0.035421
0.0356455
0.0355742
0.0352179
0.0348954
0.0351429
0.0354221
0.0355596
0.0402248
0.0437204
0.0404472
0.0423821
0.0393689
0.035623
0.0324454
0.0313776
0.0312581
0.030217
0.0291343
0.0285995
0.029175
0.0299251
0.0309923
0.032998
0.0334221
0.0339175
0.0357215
0.0349903
0.0402501
0.0570385
0.0635139
0.0722694
0.0772794
0.0738436
0.0679957
0.0754672
0.085296
0.0798638
0.0721189
0.0658107
0.0592004
0.051693
0.0449374
0.0400985
0.0373119
0.0361229
0.0357681
0.0357443
0.0361266
0.0367618
0.0374625
0.0382675
0.0387927
0.0391948
0.0397519
0.0404577
0.0408125
0.0409192
0.041277
0.0418472
0.0423852
0.0426471
0.0427237
0.0428627
0.0429857
0.0431491
0.0432626
0.0435106
0.0437846
0.0437004
0.0433499
0.0429683
0.0427218
0.0426503
0.0426808
0.0427141
0.0427248
0.0427017
0.042619
0.042676
0.0426041
0.0424368
0.0425047
0.0427546
0.0429581
0.0430147
0.0429373
0.0427619
0.0425425
0.0423507
0.0422102
0.0421261
0.0420868
0.0420714
0.0420112
0.0419
0.0417764
0.0416989
0.0417213
0.0417909
0.041811
0.0417288
0.0415968
0.0415631
0.0415764
0.0416139
0.0415096
0.0413332
0.0416143
0.0410713
0.0410803
0.0400998
0.0408091
0.0408736
0.0419401
0.0447455
0.0395477
0.0015649
0.00348195
0.0111243
0.0328682
0.0795635
0.152521
0.239201
0.299836
0.298805
0.271976
0.252104
0.244121
0.246759
0.262643
0.296612
0.350363
0.437922
0.533982
0.606958
0.658057
0.702032
0.766405
0.862731
0.991084
1.14169
1.29681
1.4344
1.53254
1.57737
1.55575
1.48469
1.3886
1.28266
1.17252
1.06027
0.946599
0.845583
0.762584
0.691976
0.623785
0.551945
0.485931
0.43796
0.408934
0.393138
0.380973
0.367358
0.351313
0.337241
0.328985
0.325636
0.322214
0.315106
0.303376
0.286957
0.268081
0.251137
0.239159
0.233839
0.235963
0.243918
0.255826
0.267533
0.277362
0.287936
0.300498
0.310194
0.312831
0.307479
0.295359
0.285261
0.284931
0.29943
0.325832
0.355546
0.386953
0.419808
0.462092
0.519183
0.5744
0.652433
0.735999
0.816767
0.917306
1.03386
1.1749
1.29717
1.37349
1.37189
1.30891
1.12493
0.928913
0.762481
0.614488
0.495847
0.418393
0.379418
0.372681
0.394759
0.446585
0.498861
0.549036
0.593205
0.616013
0.601188
0.565201
0.526428
0.486968
0.431617
0.372641
0.324053
0.26499
0.219915
0.159677
0.113333
0.0842568
0.0791133
0.0894716
0.09776
0.104844
0.109611
0.104907
0.103548
0.107147
0.0962898
0.0797576
0.0643445
0.054069
0.0455466
0.040129
0.0357133
0.0327761
0.030776
0.0300394
0.0300542
0.0305749
0.0311763
0.031643
0.0320222
0.0323576
0.0327889
0.0333488
0.0339154
0.0343864
0.0347544
0.0351235
0.0356008
0.0362066
0.0368502
0.03741
0.0378784
0.0383831
0.0390298
0.0397583
0.0404323
0.0410381
0.0416716
0.0423842
0.0431017
0.0437488
0.0443557
0.044978
0.0455486
0.0460018
0.0464709
0.0470748
0.0476506
0.0479321
0.048011
0.0482226
0.0485627
0.0487676
0.0486305
0.0482004
0.047688
0.0472649
0.046991
0.0465777
0.0458454
0.0448646
0.0435659
0.0421116
0.0407456
0.0394861
0.0383949
0.0372731
0.035921
0.0344037
0.0328494
0.0314519
0.0301945
0.0290065
0.0278045
0.0265106
0.0251631
0.0238956
0.0228119
0.0218563
0.0209242
0.0199353
0.0188944
0.0179235
0.0170683
0.016281
0.0155177
0.0147752
0.0140623
0.0134109
0.012824
0.0122583
0.0116521
0.0110404
0.0104843
0.00999789
0.00958409
0.00921038
0.0088262
0.00841467
0.00799462
0.00761511
0.00728919
0.00701544
0.0067745
0.00653664
0.00629073
0.00604151
0.00581141
0.00561434
0.00545444
0.00531892
0.00518108
0.00503658
0.00489783
0.00477961
0.00468667
0.00461445
0.00455459
0.00450112
0.00445203
0.0044069
0.00436825
0.00433609
0.00431106
0.00429589
0.00429205
0.00429771
0.00430572
0.00430796
0.0043041
0.00430189
0.00430627
0.00431606
0.00432662
0.00433411
0.00433815
0.0043404
0.00434273
0.00434561
0.00434731
0.00434644
0.00434385
0.00434281
0.00434744
0.00435873
0.00437166
0.00437786
0.00437294
0.00436105
0.00435217
0.00435283
0.00436268
0.00437731
0.00439111
0.00439959
0.00440154
0.00439913
0.00439648
0.00439717
0.00440352
0.00441657
0.00443443
0.00445053
0.00445779
0.00445615
0.00445349
0.00445716
0.00446782
0.00448283
0.00449845
0.00450926
0.00451274
0.00451236
0.00451351
0.00451901
0.00452875
0.004539
0.00454521
0.00454642
0.00454269
0.00453556
0.00452989
0.00452632
0.00451998
0.00450711
0.00448846
0.00446883
0.00444876
0.0044247
0.00439468
0.004362
0.00433191
0.00430475
0.00427573
0.00423836
0.00419358
0.00415015
0.00411168
0.00407512
0.00403867
0.00400169
0.00396605
0.00393389
0.00390387
0.00387549
0.00385135
0.00383367
0.00382086
0.00380902
0.00379741
0.00378948
0.00378908
0.00379686
0.00380748
0.00381365
0.00381282
0.00380829
0.00380497
0.00380497
0.00380834
0.00381255
0.00381419
0.00381277
0.00381052
0.00381154
0.0038151
0.00381478
0.00380918
0.00380177
0.00379712
0.003797
0.00379874
0.00379797
0.00379423
0.00379262
0.00379519
0.00379899
0.00380291
0.00380728
0.003812
0.0038169
0.00382296
0.00383072
0.00383906
0.00384821
0.00385809
0.00386763
0.00387556
0.00388143
0.00388619
0.00389162
0.00389721
0.0039002
0.00389828
0.00389302
0.00388823
0.00388443
0.00388094
0.00387593
0.00387014
0.00386386
0.00385474
0.00384024
0.00382258
0.00380596
0.0037915
0.00377682
0.00376137
0.00374186
0.00371917
0.00369692
0.00367649
0.00365434
0.00362861
0.00360334
0.00357951
0.00355302
0.00352623
0.003502
0.00347807
0.00345376
0.00342279
0.00338839
0.0033555
0.00332471
0.00329244
0.0032635
0.00322847
0.00318933
0.00314843
0.00310304
0.0030651
0.00302102
0.00298998
0.00295161
0.00292712
0.00290593
0.00285772
0.00282173
0.00280699
0.00281209
0.00288518
0.00296077
0.0028601
0.00299258
0.0030143
0.00279719
0.00257446
0.00242648
0.0024237
0.00244609
0.00247908
0.0024634
0.00241563
0.00236133
0.00235027
0.00233007
0.00230672
0.00239703
0.00259958
0.00278883
0.00270479
0.00299533
0.00301254
0.00270348
0.00229312
0.00205777
0.00200761
0.00195691
0.00197525
0.00195855
0.00190896
0.00193313
0.00195811
0.00199212
0.00201832
0.00202013
0.00216829
0.00222232
0.00256316
0.00340733
0.00408787
0.00508108
0.00697456
0.00718226
0.00616666
0.00577322
0.00581824
0.00521956
0.00508313
0.00522815
0.00514836
0.0048807
0.00446202
0.00395129
0.00343452
0.00300415
0.00270046
0.00251988
0.00243144
0.00239423
0.00238305
0.00240534
0.00244993
0.00249936
0.00255396
0.00259378
0.00262821
0.00267105
0.00272187
0.0027522
0.00276929
0.00280142
0.00284713
0.00289003
0.0029165
0.0029309
0.00294591
0.00295698
0.00297134
0.00298715
0.00300878
0.00302555
0.00301949
0.00299499
0.0029685
0.00295147
0.00294397
0.00294257
0.00294269
0.00294095
0.00293702
0.00293245
0.00293726
0.00293312
0.0029241
0.00292893
0.00294407
0.00295541
0.00295713
0.00295014
0.00293673
0.00292013
0.00290431
0.00289151
0.00288301
0.00287921
0.00287708
0.00287264
0.0028644
0.00285494
0.00285023
0.00285305
0.0028581
0.00285732
0.00284934
0.00284006
0.00283875
0.00283866
0.00283705
0.00282739
0.00281384
0.00283705
0.00279736
0.002808
0.0027443
0.00281362
0.00284599
0.00299919
0.00330824
0.00300871
0.00155067
0.00319301
0.00972265
0.0269238
0.0595333
0.101347
0.142022
0.157127
0.146087
0.130067
0.123954
0.130961
0.149961
0.183029
0.231352
0.290843
0.353585
0.413285
0.462782
0.507467
0.55625
0.623673
0.716168
0.824594
0.930703
1.01307
1.058
1.09356
1.13221
1.15284
1.13969
1.07363
0.97049
0.854906
0.743282
0.644887
0.567892
0.506991
0.454033
0.399299
0.344968
0.299294
0.266063
0.245637
0.234208
0.225836
0.21676
0.206618
0.197214
0.191183
0.188681
0.186881
0.183586
0.178298
0.170907
0.16085
0.149557
0.139848
0.133699
0.132131
0.134103
0.137108
0.140581
0.146128
0.155168
0.165235
0.173264
0.177086
0.175825
0.169605
0.16214
0.158469
0.161728
0.172425
0.186913
0.202462
0.218906
0.237209
0.260938
0.292299
0.34218
0.416227
0.49654
0.595577
0.695096
0.790257
0.894393
0.983557
1.04347
1.06656
1.03376
0.957236
0.849516
0.721798
0.595236
0.483612
0.390444
0.32338
0.284799
0.270374
0.26982
0.278275
0.296098
0.310995
0.318501
0.317886
0.309309
0.299258
0.283023
0.270289
0.258556
0.242818
0.216986
0.189493
0.154819
0.127965
0.0961648
0.0685989
0.0476757
0.03787
0.0347628
0.0327918
0.0317042
0.0316439
0.0301946
0.0314785
0.0348605
0.0318241
0.026049
0.0206746
0.0167468
0.0136362
0.0116372
0.00996143
0.00889527
0.00839692
0.00816191
0.00815699
0.00826105
0.00835801
0.00840864
0.00847414
0.008569
0.00868562
0.00880879
0.008939
0.00908552
0.00924767
0.00941083
0.00956084
0.00971034
0.0098868
0.0100973
0.0103132
0.0105048
0.0106808
0.0108776
0.0111097
0.0113504
0.0115723
0.0117723
0.0119562
0.0121185
0.0122693
0.0124403
0.0126305
0.0127955
0.0128863
0.0129162
0.0129618
0.0130336
0.0130727
0.0130307
0.0128979
0.0127222
0.0125563
0.0124221
0.0122608
0.0120176
0.0116995
0.0113099
0.0108921
0.0104841
0.0100923
0.00973759
0.00938599
0.00900594
0.00859845
0.0081672
0.00775945
0.00739074
0.00705265
0.00673451
0.00641467
0.00608397
0.0057634
0.00547763
0.00522705
0.00500108
0.00477808
0.00454881
0.00432882
0.00413091
0.0039541
0.00379069
0.00363808
0.00349451
0.00335979
0.00323389
0.00311586
0.00300157
0.0028914
0.00278841
0.00269495
0.00261152
0.00253543
0.002463
0.00239221
0.00232285
0.00225687
0.00219523
0.00213946
0.00209091
0.00204782
0.00200672
0.00196529
0.0019236
0.00188399
0.00184908
0.00181939
0.00179298
0.00176791
0.00174329
0.00171979
0.00169851
0.00167972
0.00166305
0.00164858
0.00163639
0.00162588
0.00161572
0.00160547
0.00159553
0.00158713
0.00158133
0.00157834
0.0015769
0.0015749
0.00157124
0.00156681
0.00156326
0.00156161
0.00156169
0.00156224
0.00156215
0.00156113
0.00155986
0.00155949
0.00156023
0.00156117
0.00156161
0.00156176
0.00156239
0.00156432
0.00156742
0.00157042
0.00157243
0.00157367
0.0015749
0.00157652
0.00157893
0.00158264
0.00158756
0.00159263
0.00159696
0.00160029
0.0016029
0.00160559
0.00160918
0.00161424
0.00162063
0.00162718
0.00163261
0.0016362
0.00163882
0.00164228
0.00164734
0.00165347
0.00165965
0.001665
0.00166904
0.00167215
0.00167537
0.00167932
0.00168352
0.00168749
0.00169106
0.00169401
0.00169592
0.00169685
0.00169762
0.00169809
0.00169752
0.00169615
0.00169436
0.00169211
0.00168899
0.00168467
0.00167898
0.00167266
0.00166623
0.00165943
0.0016516
0.00164224
0.00163174
0.00162109
0.00161064
0.00159974
0.00158804
0.00157581
0.0015635
0.00155108
0.0015387
0.00152645
0.00151443
0.00150278
0.00149115
0.00147938
0.0014678
0.00145705
0.00144742
0.00143841
0.00142943
0.00142033
0.00141158
0.0014032
0.00139519
0.00138773
0.00138079
0.00137442
0.00136844
0.00136262
0.00135712
0.00135206
0.00134741
0.00134298
0.00133863
0.00133457
0.00133109
0.00132819
0.00132559
0.00132301
0.00132053
0.00131852
0.00131708
0.00131604
0.0013153
0.00131474
0.00131444
0.00131438
0.0013146
0.00131513
0.00131579
0.00131655
0.00131743
0.00131845
0.00131951
0.00132042
0.00132113
0.00132193
0.00132281
0.00132354
0.00132378
0.0013237
0.00132356
0.0013235
0.0013234
0.00132305
0.00132248
0.00132181
0.00132096
0.0013198
0.00131827
0.00131665
0.00131507
0.00131328
0.00131128
0.00130896
0.00130655
0.00130397
0.00130131
0.00129837
0.00129535
0.00129235
0.00128947
0.00128616
0.00128272
0.0012793
0.00127595
0.00127256
0.001269
0.0012649
0.00126099
0.00125705
0.0012531
0.00124901
0.00124511
0.0012395
0.00123528
0.00123156
0.00122807
0.00122544
0.00122308
0.00122169
0.00121373
0.00121618
0.00124544
0.00126748
0.00130491
0.0013246
0.00143774
0.00150349
0.00142495
0.00134854
0.00128943
0.00126749
0.00122362
0.00120604
0.00118645
0.00117329
0.00117457
0.00118506
0.00120018
0.00125535
0.0013023
0.00134454
0.00139761
0.00147536
0.00161958
0.00175625
0.00167515
0.00153678
0.00140267
0.0013458
0.00127162
0.00124107
0.00120407
0.00117465
0.00118064
0.00117445
0.00117633
0.00117067
0.00123933
0.00126703
0.00132061
0.00148382
0.00172801
0.00224255
0.00301038
0.00433701
0.00496164
0.00464365
0.00426241
0.0037977
0.00315276
0.00259468
0.00220058
0.00192146
0.00172438
0.00158961
0.00151393
0.00147695
0.00145515
0.00143305
0.00140268
0.00136796
0.00133522
0.00130704
0.00128362
0.00126507
0.00125127
0.00124148
0.00123433
0.00122885
0.00122485
0.00122197
0.00122023
0.00121936
0.00121915
0.00121887
0.0012187
0.00121933
0.00122058
0.00122189
0.00122289
0.00122355
0.00122415
0.0012245
0.00122492
0.00122551
0.00122634
0.00122692
0.00122659
0.00122546
0.0012241
0.00122308
0.00122242
0.00122202
0.00122168
0.00122125
0.00122071
0.00122018
0.00122004
0.00121961
0.00121897
0.00121879
0.00121899
0.00121899
0.00121857
0.00121775
0.00121664
0.00121541
0.00121416
0.00121304
0.00121215
0.00121151
0.001211
0.00121043
0.00120969
0.0012089
0.00120835
0.00120815
0.00120806
0.00120764
0.00120685
0.0012061
0.00120583
0.00120557
0.00120477
0.00120555
0.00119999
0.00121277
0.00119835
0.00122183
0.00120212
0.00124158
0.00125699
0.00134246
0.0015101
0.0014428
0.00152873
0.00280616
0.00776566
0.019975
0.0413849
0.0662932
0.0877694
0.0930911
0.0854886
0.0777937
0.0785322
0.0914337
0.115885
0.14815
0.187552
0.23142
0.276045
0.318275
0.357502
0.394617
0.436454
0.490313
0.552883
0.613107
0.658298
0.69182
0.725329
0.76526
0.79774
0.801942
0.764063
0.690653
0.601784
0.516715
0.446537
0.392321
0.349316
0.312047
0.276407
0.240682
0.207351
0.180749
0.160757
0.147262
0.138484
0.132157
0.12662
0.121304
0.116517
0.113113
0.111399
0.110359
0.108802
0.106445
0.103497
0.0988992
0.0924945
0.0856654
0.0801559
0.0772508
0.0762696
0.0760864
0.0768881
0.0799123
0.0857747
0.0928527
0.0984298
0.101694
0.102484
0.101082
0.0981935
0.0958592
0.0959043
0.0994314
0.105987
0.114147
0.123386
0.133907
0.146499
0.162808
0.185149
0.21826
0.262344
0.324725
0.401993
0.479729
0.564021
0.649757
0.714429
0.749178
0.758076
0.729559
0.678333
0.609126
0.531789
0.456906
0.385817
0.322154
0.269185
0.227443
0.197408
0.178667
0.169075
0.163677
0.161745
0.162473
0.162521
0.162757
0.161859
0.162236
0.162176
0.161167
0.160264
0.158196
0.151488
0.13757
0.121898
0.101665
0.0854638
0.0657963
0.04785
0.0324601
0.0230133
0.01835
0.0158535
0.0145927
0.014425
0.0142125
0.0161709
0.0193269
0.018389
0.0154099
0.0124279
0.010087
0.00788838
0.00664399
0.0058871
0.00512885
0.00459822
0.00424111
0.0040438
0.00395673
0.00390682
0.00386731
0.0038512
0.00386219
0.00389256
0.00392952
0.00396537
0.00400311
0.0040494
0.00410811
0.00417434
0.0042386
0.00429853
0.00435973
0.00442754
0.00450348
0.00458296
0.00466001
0.00472881
0.00478897
0.00484312
0.00489767
0.00495707
0.00501616
0.00506441
0.0050948
0.00511054
0.00512402
0.0051399
0.00514809
0.00513512
0.00509754
0.00504667
0.00499417
0.00494406
0.00488431
0.00480245
0.00470184
0.00459209
0.00447862
0.00436205
0.00424447
0.00412804
0.00401311
0.00390225
0.00379266
0.00367831
0.0035632
0.00345318
0.00334972
0.00325433
0.00316684
0.00308402
0.00300223
0.0029199
0.0028422
0.00277384
0.002712
0.00265131
0.00258916
0.00252877
0.00247533
0.0024277
0.00238162
0.00233484
0.00228785
0.00224339
0.00220404
0.00216854
0.00213265
0.00209485
0.002057
0.00202094
0.00198798
0.00195821
0.00193035
0.00190207
0.00187216
0.00184208
0.00181351
0.00178764
0.00176462
0.00174297
0.00172129
0.00169911
0.00167644
0.00165425
0.00163419
0.00161689
0.0016012
0.00158551
0.00156929
0.00155348
0.00153929
0.00152695
0.00151616
0.00150663
0.00149736
0.00148757
0.00147757
0.00146835
0.00146093
0.00145571
0.00145222
0.00144919
0.00144532
0.00144026
0.00143517
0.00143149
0.00142947
0.00142844
0.00142744
0.00142609
0.00142456
0.00142332
0.00142323
0.00142432
0.00142529
0.0014254
0.00142483
0.00142435
0.00142523
0.00142799
0.00143158
0.00143457
0.00143632
0.00143733
0.00143854
0.00144091
0.00144476
0.0014492
0.00145301
0.0014564
0.00146001
0.00146363
0.00146696
0.00147029
0.00147447
0.00147975
0.00148523
0.00149003
0.00149368
0.00149661
0.00150025
0.00150544
0.00151116
0.00151582
0.00151956
0.00152294
0.00152617
0.00153016
0.00153483
0.00153849
0.00154112
0.00154364
0.00154617
0.00154857
0.00155062
0.00155181
0.00155193
0.00155175
0.00155154
0.00155114
0.0015498
0.0015472
0.00154436
0.00154102
0.00153672
0.0015318
0.00152623
0.00152027
0.00151382
0.00150664
0.00149882
0.00149032
0.0014812
0.00147172
0.00146217
0.00145248
0.00144215
0.00143126
0.00142018
0.00140904
0.00139799
0.00138708
0.00137597
0.00136447
0.00135321
0.00134251
0.00133221
0.00132201
0.00131188
0.00130232
0.00129338
0.00128474
0.0012765
0.00126868
0.00126124
0.00125427
0.00124786
0.00124192
0.00123641
0.00123136
0.00122676
0.00122245
0.00121846
0.00121485
0.00121164
0.00120877
0.00120611
0.00120369
0.00120164
0.00119985
0.00119829
0.00119697
0.00119592
0.0011952
0.00119462
0.00119414
0.00119386
0.00119375
0.00119376
0.00119386
0.00119401
0.0011942
0.00119446
0.00119478
0.00119504
0.0011953
0.00119562
0.0011959
0.00119607
0.00119616
0.00119616
0.00119617
0.00119609
0.00119597
0.0011957
0.00119538
0.00119497
0.0011945
0.00119383
0.00119313
0.00119235
0.00119147
0.00119054
0.00118944
0.00118827
0.00118693
0.00118566
0.00118422
0.00118273
0.00118118
0.00117964
0.00117792
0.00117624
0.00117433
0.00117246
0.00117073
0.00116895
0.00116683
0.00116513
0.00116238
0.00116058
0.0011606
0.00115954
0.00116332
0.00116341
0.00116201
0.00115467
0.00115783
0.00118793
0.0012111
0.00125019
0.0012752
0.00139078
0.00146222
0.00138999
0.0013193
0.00126243
0.00123871
0.00119405
0.00117291
0.00115213
0.00114077
0.00113884
0.00114527
0.00116507
0.00122414
0.00127761
0.00135855
0.00140911
0.00159802
0.00174264
0.00172989
0.00162317
0.00146372
0.00135544
0.00131807
0.00125741
0.00122969
0.00119311
0.0011621
0.00115907
0.00115784
0.00115335
0.00116438
0.00123751
0.0013181
0.00148137
0.00167769
0.00218057
0.0027275
0.00361086
0.00490365
0.00538956
0.00492482
0.00446342
0.00398127
0.00332504
0.00271562
0.00225529
0.00190668
0.00166146
0.0015002
0.00140981
0.00136714
0.00134852
0.0013442
0.00133996
0.00133229
0.00132044
0.00130513
0.00128833
0.00127169
0.00125546
0.00124009
0.00122663
0.00121539
0.00120569
0.0011971
0.00118962
0.00118345
0.00117857
0.00117459
0.00117112
0.00116818
0.0011659
0.00116412
0.00116258
0.00116128
0.00116019
0.00115931
0.00115853
0.00115783
0.00115729
0.00115682
0.00115631
0.0011559
0.00115556
0.00115519
0.0011548
0.00115437
0.00115393
0.00115353
0.00115317
0.00115283
0.00115249
0.00115212
0.00115173
0.00115133
0.00115092
0.00115047
0.00115003
0.00114963
0.00114923
0.00114878
0.00114828
0.00114779
0.00114731
0.00114684
0.00114637
0.00114591
0.00114545
0.001145
0.00114457
0.00114415
0.00114372
0.0011433
0.00114295
0.00114261
0.00114222
0.0011418
0.00114149
0.00114129
0.001141
0.00114036
0.00114166
0.00113658
0.00114872
0.00113545
0.0011593
0.00114177
0.00117946
0.00119455
0.00127678
0.00143869
0.00138056
0.00147459
0.00236116
0.00586802
0.0142215
0.0282118
0.0443284
0.0579036
0.0613021
0.0568474
0.0530995
0.0560388
0.0662827
0.081165
0.0992188
0.121242
0.146763
0.174418
0.203051
0.231646
0.261444
0.294441
0.330099
0.364685
0.394105
0.418704
0.43894
0.457026
0.471783
0.474646
0.460996
0.425111
0.37454
0.321523
0.27605
0.242193
0.217591
0.197409
0.17838
0.15915
0.140089
0.123664
0.110369
0.0998901
0.0920178
0.0864372
0.0823841
0.0790955
0.0762174
0.0736478
0.0715059
0.0701707
0.0695651
0.069172
0.0686502
0.0676956
0.0656347
0.061821
0.0570797
0.0529807
0.0502235
0.0484151
0.0472927
0.0472587
0.0488835
0.0523518
0.0568546
0.0606687
0.0630545
0.0642022
0.0644385
0.0639468
0.0629414
0.0624374
0.0634767
0.0666164
0.0713549
0.0768183
0.0827035
0.0891075
0.0967979
0.106684
0.120658
0.140223
0.16543
0.198839
0.235838
0.279715
0.336853
0.400165
0.448458
0.484203
0.491355
0.476364
0.450578
0.413123
0.373584
0.332963
0.292583
0.255452
0.220797
0.189438
0.162681
0.140501
0.122972
0.110407
0.101618
0.0954781
0.0915194
0.0896283
0.0911246
0.0943506
0.0986179
0.103318
0.106896
0.109045
0.110552
0.110341
0.106471
0.097369
0.0866754
0.0728702
0.0619409
0.0487325
0.036518
0.0254924
0.0181987
0.0143786
0.0123827
0.0114197
0.0115624
0.0118308
0.0144055
0.0179165
0.0180885
0.0155228
0.0124559
0.0102401
0.00843659
0.00693681
0.00581272
0.00474247
0.00402062
0.00358082
0.00334325
0.00321546
0.00313088
0.00306509
0.00302242
0.00300648
0.00301094
0.00302541
0.00304364
0.0030638
0.00308512
0.00311031
0.00314031
0.00317191
0.00320201
0.00323123
0.00326116
0.00329017
0.00331815
0.00334521
0.00336981
0.00339119
0.00340987
0.00342563
0.00343872
0.0034505
0.00345833
0.00346063
0.00345788
0.00345053
0.00344046
0.00342779
0.00341134
0.00338928
0.00335962
0.003325
0.00329103
0.00325904
0.00322398
0.00318512
0.00314223
0.00309168
0.00304018
0.00299524
0.00295619
0.00292062
0.0028796
0.00283151
0.00278181
0.0027348
0.00269363