/*--------------------------------*- C++ -*----------------------------------*\
| =========                 |                                                 |
| \\      /  F ield         | OpenFOAM: The Open Source CFD Toolbox           |
|  \\    /   O peration     | Version:  v2006                                 |
|   \\  /    A nd           | Website:  www.openfoam.com                      |
|    \\/     M anipulation  |                                                 |
\*---------------------------------------------------------------------------*/
FoamFile
{
    version     2.0;
    format      ascii;
    class       volScalarField;
    location    "7.5";
    object      p_rgh;
}
// * * * * * * * * * * * * * * * * * * * * * * * * * * * * * * * * * * * * * //

dimensions      [1 -1 -2 0 0 0 0];


internalField   nonuniform List<scalar> 
33000
(
8024.88
8033.09
8035.73
8040.39
8044.99
8049.6
8054.25
8058.95
8063.77
8068.77
8073.53
8077.7
8080.95
8083.04
8084.53
8086.24
8088.41
8091.11
8094.2
8097.24
8100.34
8103.41
8106.21
8108.85
8111.3
8113.55
8115.71
8117.91
8120.25
8122.66
8125.09
8128.13
8131.05
8133.41
8135.56
8137.58
8139.49
8141.3
8143
8144.71
8146.37
8147.95
8149.45
8150.87
8152.21
8153.48
8154.76
8155.98
8157.14
8158.24
8159.28
8160.19
8161.14
8162.09
8162.96
8163.78
8164.55
8165.28
8165.97
8166.61
8167.22
8167.8
8168.31
8168.87
8169.46
8170.03
8170.59
8171.13
8171.68
8172.26
8172.88
8173.54
8174.31
8175.16
8176.18
8177.39
8178.83
8179.88
8176.13
8166.5
8174.74
8172.42
8172.63
8173.32
8172.11
8171.49
8172.46
8172.18
8172.63
8172.2
8172.7
8172.58
8172.98
8173.39
8174.01
8174.75
8176.09
8176.88
8179.75
8179.45
8175.86
8175.86
8175.21
8174.88
8175.05
8174.67
8174.19
8173.88
8173.84
8174.22
8174.32
8174.71
8174.99
8175.25
8175.62
8175.93
8176.94
8177.15
8176.38
8176.77
8176.68
8176.65
8176.75
8176.67
8176.35
8176.13
8175.77
8175.42
8175.06
8174.62
8174.01
8173.38
8172.57
8171.69
8170.72
8169.66
8168.44
8167.04
8165.49
8163.74
8161.82
8159.7
8157.39
8154.86
8152.13
8149.22
8146.12
8142.82
8139.3
8135.57
8131.61
8127.5
8123.2
8118.69
8113.98
8109.07
8103.99
8098.73
8093.32
8087.74
8082
8076.11
8070.07
8063.9
8057.63
8051.24
8044.76
8038.19
8031.57
8024.89
8018.16
8011.4
8004.64
7997.9
7991.17
7984.46
7977.78
7971.16
7964.64
7958.22
7951.9
7945.69
7939.59
7933.61
7927.78
7922.09
7916.57
7911.18
7905.95
7900.85
7895.92
7891.13
7886.5
7882
7877.62
7873.35
7869.19
7865.12
7861.15
7857.28
7853.49
7849.75
7846.06
7842.42
7838.83
7835.3
7831.84
7828.45
7825.16
7821.96
7818.9
7815.95
7813.12
7810.41
7807.84
7805.41
7803.14
7801.02
7799.03
7797.19
7795.48
7793.91
7792.49
7791.21
7790.07
7789.06
7788.18
7787.41
7786.75
7786.22
7785.79
7785.48
7785.26
7785.12
7785.07
7785.1
7785.2
7785.37
7785.6
7785.89
7786.24
7786.64
7787.08
7787.55
7788.06
7788.58
7789.14
7789.73
7790.33
7790.94
7791.57
7792.2
7792.84
7793.48
7794.14
7794.79
7795.43
7796.08
7796.71
7797.35
7797.98
7798.6
7799.21
7799.81
7800.41
7800.99
7801.58
7802.15
7802.71
7803.27
7803.81
7804.34
7804.86
7805.38
7805.89
7806.4
7806.89
7807.38
7807.86
7808.34
7808.8
7809.26
7809.72
7810.17
7810.62
7811.07
7811.51
7811.95
7812.38
7812.82
7813.26
7813.69
7814.13
7814.57
7815.01
7815.45
7815.89
7816.34
7816.79
7817.24
7817.7
7818.17
7818.63
7819.11
7819.59
7820.08
7820.57
7821.08
7821.58
7822.1
7822.63
7823.16
7823.7
7824.25
7824.81
7825.38
7825.95
7826.54
7827.14
7827.75
7828.37
7829
7829.65
7830.31
7830.98
7831.67
7832.37
7833.1
7833.83
7834.59
7835.36
7836.15
7836.97
7837.8
7838.65
7839.53
7840.43
7841.36
7842.31
7843.28
7844.28
7845.3
7846.35
7847.42
7848.52
7849.65
7850.81
7851.99
7853.2
7854.44
7855.7
7856.99
7858.31
7859.66
7861.04
7862.44
7863.87
7865.32
7866.8
7868.31
7869.84
7871.4
7872.98
7874.59
7876.22
7877.87
7879.54
7881.24
7882.96
7884.69
7886.45
7888.23
7890.02
7891.83
7893.65
7895.49
7897.35
7899.21
7901.09
7902.98
7904.88
7906.78
7908.7
7910.62
7912.55
7914.49
7916.42
7918.36
7920.3
7922.24
7924.18
7926.12
7928.06
7929.99
7931.92
7933.84
7935.75
7937.65
7939.55
7941.43
7943.3
7945.16
7947.01
7948.83
7950.65
7952.44
7954.22
7955.97
7957.7
7959.4
7961.07
7962.71
7964.32
7965.89
7967.42
7968.92
7970.37
7971.78
7973.15
7974.47
7975.75
7976.98
7978.16
7979.28
7980.37
7981.43
7982.41
7983.35
7984.28
7985.03
7985.87
7986.76
7987.48
7988.22
7988.84
7989.45
7989.99
7990.48
7990.93
7991.31
7991.68
7991.96
7992.23
7992.49
7992.69
7992.84
7993.03
7992.91
7993.06
7993.37
7993.42
7993.52
7993.45
7993.42
7993.25
7993.11
7992.86
7992.63
7992.32
7991.99
7991.63
7991.19
7990.73
7990.34
7989.86
7989.33
7988.93
7988.13
7987.38
7987.24
7986.85
7986.28
7985.68
7985.04
7984.36
7983.65
7982.92
7982.15
7981.35
7980.53
7979.68
7978.81
7977.91
7976.99
7976.04
7975.07
7974.07
7973.05
7972.01
7970.95
7969.86
7968.75
7967.63
7966.48
7965.31
7964.13
7962.92
7961.7
7960.46
7959.21
7957.93
7956.65
7955.35
7954.03
7952.71
7951.37
7950.02
7948.65
7947.28
7945.9
7944.51
7943.11
7941.7
7940.28
7938.86
7937.43
7936
7934.56
7933.12
7931.68
7930.23
7928.78
7927.33
7925.87
7924.42
7922.97
7921.51
7920.06
7918.61
7917.16
7915.72
7914.27
7912.83
7911.39
7909.96
7908.53
7907.1
7905.68
7904.27
7902.86
7901.45
7900.05
7898.66
7897.28
7895.89
7894.52
7893.15
7891.79
7890.55
7888.71
8024.85
8033.06
8035.71
8040.34
8044.9
8049.48
8054.07
8058.7
8063.36
8067.9
8072.14
8075.77
8078.57
8080.59
8082.3
8084.36
8087.28
8090.55
8093.92
8097.26
8100.47
8103.5
8106.33
8108.85
8111.11
8113.16
8115.16
8117.23
8119.53
8122.13
8124.98
8128.02
8131.03
8133.6
8135.84
8137.84
8139.72
8141.47
8143.13
8144.79
8146.51
8148.14
8149.65
8151.08
8152.31
8153.51
8154.8
8156.1
8157.29
8158.4
8159.38
8160.26
8161.19
8162.18
8163.06
8163.88
8164.64
8165.36
8166.04
8166.7
8167.29
8167.76
8168.3
8168.86
8169.37
8169.88
8170.51
8171.1
8171.6
8172.14
8172.71
8173.27
8173.86
8174.39
8175.01
8175.59
8176.11
8176.59
8176.79
8178.25
8180.04
8175.17
8163.74
8173
8172.27
8172.36
8173.3
8172.56
8172.35
8171.16
8172.27
8171.99
8172.55
8172.79
8173.34
8173.59
8174.65
8174.97
8176.15
8175.91
8175.93
8178.56
8177.68
8173.31
8173.61
8173.12
8173.85
8173.83
8174.68
8174.87
8174.41
8174.59
8174.71
8174.96
8175.3
8175.67
8176.01
8176.35
8176.47
8177.47
8177.44
8176.31
8176.5
8176.3
8176.23
8176.18
8175.95
8175.44
8175.04
8174.54
8174.01
8173.41
8172.66
8171.74
8170.78
8169.71
8168.55
8167.16
8165.63
8163.91
8162.02
8159.92
8157.63
8155.08
8152.37
8149.47
8146.37
8143.09
8139.6
8135.85
8131.88
8127.76
8123.5
8119.01
8114.3
8109.39
8104.29
8099.03
8093.61
8088.04
8082.3
8076.4
8070.35
8064.17
8057.9
8051.51
8045
8038.42
8031.8
8025.12
8018.38
8011.57
8004.81
7998.08
7991.34
7984.62
7977.94
7971.28
7964.74
7958.3
7951.98
7945.79
7939.69
7933.71
7927.84
7922.11
7916.59
7911.22
7905.98
7900.87
7895.91
7891.11
7886.46
7881.96
7877.57
7873.29
7869.1
7865.03
7861.05
7857.17
7853.38
7849.63
7845.92
7842.26
7838.67
7835.13
7831.67
7828.27
7824.95
7821.74
7818.69
7815.74
7812.9
7810.19
7807.6
7805.17
7802.89
7800.78
7798.8
7796.96
7795.25
7793.67
7792.26
7790.98
7789.85
7788.86
7787.98
7787.22
7786.56
7786.03
7785.62
7785.3
7785.11
7784.99
7784.94
7784.97
7785.08
7785.24
7785.47
7785.78
7786.13
7786.55
7787
7787.48
7787.98
7788.51
7789.07
7789.67
7790.28
7790.9
7791.53
7792.15
7792.8
7793.45
7794.1
7794.76
7795.41
7796.05
7796.69
7797.32
7797.95
7798.58
7799.19
7799.79
7800.38
7800.96
7801.55
7802.13
7802.7
7803.25
7803.79
7804.31
7804.84
7805.35
7805.86
7806.37
7806.87
7807.36
7807.84
7808.31
7808.77
7809.22
7809.68
7810.14
7810.59
7811.03
7811.47
7811.91
7812.34
7812.78
7813.21
7813.65
7814.09
7814.52
7814.96
7815.4
7815.84
7816.29
7816.74
7817.19
7817.65
7818.12
7818.58
7819.06
7819.54
7820.03
7820.52
7821.02
7821.53
7822.05
7822.57
7823.1
7823.64
7824.19
7824.75
7825.32
7825.9
7826.48
7827.08
7827.69
7828.31
7828.95
7829.59
7830.25
7830.92
7831.61
7832.32
7833.04
7833.78
7834.53
7835.31
7836.1
7836.91
7837.74
7838.6
7839.47
7840.37
7841.3
7842.25
7843.22
7844.22
7845.24
7846.29
7847.36
7848.46
7849.59
7850.75
7851.93
7853.14
7854.37
7855.64
7856.93
7858.25
7859.6
7860.97
7862.38
7863.8
7865.26
7866.74
7868.25
7869.78
7871.34
7872.92
7874.53
7876.15
7877.81
7879.48
7881.18
7882.9
7884.64
7886.4
7888.17
7889.96
7891.78
7893.6
7895.44
7897.3
7899.17
7901.05
7902.94
7904.84
7906.75
7908.67
7910.59
7912.52
7914.46
7916.4
7918.34
7920.29
7922.23
7924.17
7926.11
7928.05
7929.99
7931.92
7933.84
7935.76
7937.67
7939.56
7941.45
7943.33
7945.19
7947.04
7948.87
7950.69
7952.49
7954.27
7956.03
7957.76
7959.47
7961.14
7962.78
7964.39
7965.97
7967.5
7969
7970.46
7971.87
7973.24
7974.57
7975.84
7977.07
7978.27
7979.4
7980.5
7981.54
7982.43
7983.36
7984.4
7985.23
7986.09
7986.89
7987.62
7988.35
7988.96
7989.59
7990.09
7990.59
7990.99
7991.39
7991.78
7992.09
7992.35
7992.6
7992.53
7992.7
7993.13
7993.23
7993.46
7993.55
7993.61
7993.63
7993.58
7993.52
7993.37
7993.22
7992.98
7992.73
7992.38
7992.01
7991.72
7991.32
7990.91
7990.54
7989.65
7988.91
7988.84
7988.52
7988
7987.47
7986.95
7986.38
7985.77
7985.13
7984.45
7983.74
7983
7982.23
7981.43
7980.61
7979.76
7978.89
7977.99
7977.06
7976.11
7975.13
7974.14
7973.11
7972.07
7971
7969.92
7968.81
7967.68
7966.53
7965.36
7964.17
7962.96
7961.74
7960.5
7959.24
7957.97
7956.68
7955.38
7954.07
7952.74
7951.4
7950.05
7948.68
7947.31
7945.92
7944.53
7943.13
7941.72
7940.3
7938.88
7937.45
7936.01
7934.57
7933.13
7931.68
7930.23
7928.78
7927.33
7925.87
7924.42
7922.96
7921.51
7920.06
7918.61
7917.15
7915.71
7914.26
7912.82
7911.38
7909.95
7908.52
7907.09
7905.67
7904.25
7902.84
7901.44
7900.04
7898.64
7897.26
7895.87
7894.51
7893.13
7891.77
7890.53
7888.69
8024.82
8033.02
8035.69
8040.28
8044.82
8049.36
8053.92
8058.38
8062.83
8066.92
8070.5
8073.43
8075.65
8077.23
8078.74
8081.1
8084.67
8089.05
8093.38
8097.32
8100.87
8104.07
8106.81
8109.28
8111.53
8113.57
8115.5
8117.53
8119.71
8122.2
8125
8127.95
8130.96
8133.57
8135.82
8137.94
8139.82
8141.46
8143.24
8144.93
8146.71
8148.46
8149.98
8151.42
8152.55
8153.69
8155
8156.4
8157.6
8158.7
8159.66
8160.42
8161.33
8162.27
8163.25
8164.09
8164.84
8165.55
8166.23
8166.8
8167.18
8167.78
8168.44
8169.13
8169.56
8169.86
8170.32
8170.76
8171.31
8171.97
8172.54
8173.02
8173.44
8173.79
8174.26
8174.71
8175.16
8175.37
8175.21
8174.74
8174.85
8175.53
8177.43
8179.35
8173.96
8161.29
8171.09
8172.79
8174.3
8172.17
8172.74
8172.35
8171.02
8172.32
8172.58
8173.21
8173.84
8174.17
8174.48
8174.87
8174.38
8174.83
8174.57
8174.71
8178.41
8176.91
8172.23
8172.04
8171.69
8173.07
8173.3
8174.86
8174.99
8174.89
8174.83
8175.07
8175.43
8175.85
8176.14
8176.24
8176.42
8176.37
8177.43
8177.4
8175.93
8175.9
8175.4
8175.24
8175.16
8174.92
8174.18
8173.63
8172.65
8171.92
8170.99
8170.13
8169.03
8167.62
8166.04
8164.29
8162.46
8160.41
8158.14
8155.59
8152.89
8150
8146.94
8143.7
8140.18
8136.37
8132.46
8128.36
8124.13
8119.63
8114.85
8109.93
8104.92
8099.7
8094.23
8088.58
8082.84
8076.97
8070.88
8064.72
8058.46
8052.04
8045.48
8038.87
8032.26
8025.57
8018.77
8011.95
8005.15
7998.4
7991.67
7984.93
7978.22
7971.52
7964.95
7958.48
7952.13
7945.94
7939.84
7933.84
7927.95
7922.17
7916.6
7911.23
7906
7900.89
7895.91
7891.04
7886.35
7881.83
7877.44
7873.14
7868.92
7864.8
7860.8
7856.93
7853.1
7849.32
7845.57
7841.91
7838.3
7834.77
7831.28
7827.86
7824.51
7821.3
7818.26
7815.29
7812.45
7809.73
7807.13
7804.68
7802.4
7800.3
7798.34
7796.5
7794.8
7793.22
7791.8
7790.54
7789.43
7788.45
7787.59
7786.84
7786.19
7785.66
7785.27
7785.01
7784.81
7784.7
7784.66
7784.69
7784.79
7784.99
7785.25
7785.6
7785.98
7786.39
7786.84
7787.33
7787.83
7788.37
7788.95
7789.57
7790.19
7790.81
7791.45
7792.08
7792.73
7793.4
7794.06
7794.71
7795.34
7795.97
7796.64
7797.29
7797.92
7798.54
7799.15
7799.74
7800.33
7800.92
7801.52
7802.09
7802.66
7803.21
7803.75
7804.27
7804.79
7805.3
7805.81
7806.31
7806.81
7807.3
7807.78
7808.25
7808.7
7809.16
7809.61
7810.08
7810.52
7810.96
7811.4
7811.83
7812.26
7812.7
7813.14
7813.57
7814
7814.44
7814.87
7815.32
7815.75
7816.19
7816.64
7817.09
7817.55
7818.02
7818.48
7818.95
7819.43
7819.92
7820.42
7820.92
7821.42
7821.93
7822.46
7822.99
7823.53
7824.08
7824.64
7825.21
7825.78
7826.37
7826.97
7827.58
7828.2
7828.83
7829.48
7830.14
7830.81
7831.5
7832.21
7832.93
7833.66
7834.42
7835.19
7835.99
7836.8
7837.63
7838.48
7839.36
7840.26
7841.18
7842.13
7843.1
7844.1
7845.12
7846.17
7847.24
7848.34
7849.47
7850.62
7851.8
7853.01
7854.25
7855.52
7856.81
7858.13
7859.47
7860.85
7862.25
7863.68
7865.13
7866.61
7868.12
7869.65
7871.21
7872.8
7874.4
7876.03
7877.69
7879.37
7881.06
7882.78
7884.52
7886.28
7888.06
7889.86
7891.67
7893.5
7895.34
7897.2
7899.07
7900.96
7902.85
7904.76
7906.67
7908.6
7910.53
7912.46
7914.41
7916.35
7918.3
7920.25
7922.2
7924.15
7926.1
7928.05
7929.99
7931.93
7933.86
7935.78
7937.7
7939.61
7941.5
7943.38
7945.25
7947.11
7948.95
7950.79
7952.59
7954.38
7956.14
7957.89
7959.59
7961.28
7962.92
7964.54
7966.13
7967.67
7969.17
7970.63
7972.04
7973.41
7974.76
7976.04
7977.29
7978.47
7979.52
7980.6
7981.76
7982.74
7983.72
7984.62
7985.48
7986.31
7987.1
7987.83
7988.53
7989.14
7989.73
7990.32
7990.8
7991.3
7991.64
7992.04
7992.04
7992.35
7992.85
7993.08
7993.37
7993.54
7993.64
7993.76
7993.85
7993.9
7993.92
7993.87
7993.79
7993.59
7993.38
7993.09
7992.92
7992.62
7992.31
7992.05
7991.16
7990.52
7990.55
7990.26
7989.77
7989.25
7988.74
7988.2
7987.64
7987.09
7986.51
7985.91
7985.26
7984.57
7983.86
7983.11
7982.34
7981.55
7980.72
7979.87
7978.99
7978.09
7977.16
7976.21
7975.24
7974.24
7973.21
7972.17
7971.1
7970.01
7968.9
7967.77
7966.62
7965.45
7964.26
7963.05
7961.82
7960.58
7959.32
7958.04
7956.75
7955.44
7954.12
7952.79
7951.45
7950.09
7948.72
7947.35
7945.96
7944.56
7943.16
7941.75
7940.33
7938.9
7937.47
7936.03
7934.59
7933.14
7931.69
7930.24
7928.79
7927.33
7925.87
7924.42
7922.96
7921.5
7920.05
7918.59
7917.14
7915.69
7914.24
7912.8
7911.36
7909.92
7908.49
7907.06
7905.64
7904.22
7902.81
7901.4
7900
7898.61
7897.22
7895.83
7894.47
7893.09
7891.73
7890.49
7888.66
8024.79
8033
8035.69
8040.24
8044.73
8049.21
8053.62
8057.95
8062.09
8065.88
8069.19
8071.83
8074.53
8076.89
8079.09
8081.86
8085.47
8089.58
8093.69
8097.64
8101.32
8104.47
8107.22
8109.74
8112.1
8114.36
8116.52
8118.81
8121.34
8123.82
8126.38
8129.07
8131.77
8134.32
8136.51
8138.49
8140.12
8141.8
8143.63
8145.39
8147.32
8149
8150.49
8151.94
8153.19
8154.09
8155.49
8156.91
8158.05
8159.12
8160.07
8160.75
8161.61
8162.6
8163.63
8164.42
8165.16
8165.85
8166.51
8167.05
8167.33
8168.07
8168.81
8169.37
8169.8
8169.9
8170.27
8170.67
8171.05
8171.68
8172.34
8172.77
8173.13
8173.34
8173.53
8173.84
8174.22
8174.41
8174.46
8174.49
8174.53
8174.08
8173.17
8172.71
8172.56
8173.94
8177.06
8178.81
8173.22
8159.9
8171.45
8171.84
8171.17
8171.79
8171.77
8170.95
8172.2
8172.29
8172.58
8172.73
8172.7
8172.92
8173.16
8172.19
8172.54
8171.46
8172.95
8173.69
8177.14
8176.99
8172.27
8172.99
8173.13
8173.84
8174.93
8175.26
8175.13
8175.26
8175.34
8175.7
8175.93
8176.11
8175.97
8176.18
8176.07
8177.13
8176.76
8175.02
8175.03
8174.42
8174.05
8173.66
8173.03
8172.11
8171.3
8170.35
8169.27
8167.93
8166.47
8164.81
8162.97
8161.02
8158.82
8156.34
8153.62
8150.77
8147.79
8144.56
8141
8137.22
8133.32
8129.3
8125.09
8120.53
8115.73
8110.83
8105.83
8100.65
8095.2
8089.49
8083.7
8077.77
8071.71
8065.58
8059.31
8052.85
8046.23
8039.59
8032.92
8026.25
8019.39
8012.54
8005.7
7998.87
7992.14
7985.39
7978.66
7971.92
7965.28
7958.78
7952.4
7946.2
7940.07
7934.03
7928.1
7922.27
7916.66
7911.21
7905.99
7900.86
7895.86
7890.95
7886.17
7881.57
7877.16
7872.85
7868.62
7864.46
7860.37
7856.41
7852.59
7848.79
7845
7841.31
7837.72
7834.15
7830.63
7827.15
7823.82
7820.61
7817.57
7814.6
7811.74
7808.99
7806.37
7803.94
7801.66
7799.59
7797.62
7795.79
7794.11
7792.55
7791.12
7789.87
7788.75
7787.79
7786.98
7786.26
7785.64
7785.11
7784.74
7784.51
7784.35
7784.25
7784.21
7784.26
7784.41
7784.64
7784.97
7785.31
7785.7
7786.12
7786.56
7787.05
7787.6
7788.17
7788.81
7789.43
7790.05
7790.65
7791.28
7791.97
7792.65
7793.31
7793.97
7794.6
7795.24
7795.89
7796.56
7797.23
7797.86
7798.48
7799.1
7799.69
7800.27
7800.85
7801.45
7802.03
7802.59
7803.13
7803.65
7804.19
7804.74
7805.25
7805.75
7806.22
7806.71
7807.2
7807.69
7808.16
7808.61
7809.06
7809.52
7809.97
7810.41
7810.83
7811.27
7811.72
7812.16
7812.59
7813.02
7813.44
7813.86
7814.29
7814.74
7815.18
7815.62
7816.05
7816.49
7816.94
7817.4
7817.87
7818.32
7818.78
7819.26
7819.76
7820.26
7820.75
7821.25
7821.76
7822.29
7822.83
7823.36
7823.9
7824.45
7825.03
7825.62
7826.2
7826.8
7827.41
7828.03
7828.66
7829.31
7829.97
7830.65
7831.33
7832.04
7832.75
7833.49
7834.25
7835.02
7835.81
7836.62
7837.45
7838.31
7839.18
7840.08
7841
7841.95
7842.92
7843.92
7844.94
7845.98
7847.05
7848.15
7849.28
7850.44
7851.62
7852.83
7854.06
7855.33
7856.62
7857.94
7859.28
7860.66
7862.06
7863.49
7864.94
7866.42
7867.93
7869.47
7871.03
7872.61
7874.22
7875.85
7877.51
7879.19
7880.89
7882.61
7884.35
7886.12
7887.9
7889.69
7891.51
7893.35
7895.2
7897.06
7898.94
7900.83
7902.73
7904.64
7906.57
7908.5
7910.43
7912.38
7914.33
7916.28
7918.24
7920.2
7922.16
7924.12
7926.08
7928.04
7929.99
7931.94
7933.88
7935.81
7937.74
7939.66
7941.57
7943.46
7945.34
7947.21
7949.07
7950.91
7952.73
7954.53
7956.31
7958.05
7959.79
7961.47
7963.15
7964.77
7966.37
7967.91
7969.42
7970.9
7972.33
7973.73
7975.06
7976.27
7977.5
7978.8
7979.92
7981.05
7982.08
7983.08
7984.04
7984.98
7985.85
7986.68
7987.45
7988.16
7988.93
7989.52
7990.23
7990.66
7991.17
7991.31
7991.71
7992.34
7992.66
7993.07
7993.31
7993.51
7993.71
7993.9
7994.04
7994.17
7994.23
7994.28
7994.19
7994.11
7994.07
7993.94
7993.8
7993.55
7993.45
7992.53
7992.03
7992.15
7991.92
7991.46
7990.98
7990.51
7989.99
7989.5
7989
7988.49
7987.94
7987.37
7986.77
7986.14
7985.48
7984.79
7984.08
7983.33
7982.56
7981.76
7980.93
7980.07
7979.19
7978.29
7977.35
7976.4
7975.42
7974.41
7973.39
7972.34
7971.26
7970.17
7969.05
7967.92
7966.76
7965.58
7964.39
7963.18
7961.95
7960.7
7959.43
7958.15
7956.86
7955.55
7954.22
7952.88
7951.53
7950.17
7948.8
7947.42
7946.02
7944.62
7943.21
7941.79
7940.37
7938.94
7937.5
7936.06
7934.61
7933.16
7931.71
7930.25
7928.79
7927.33
7925.87
7924.41
7922.95
7921.49
7920.03
7918.57
7917.12
7915.66
7914.21
7912.77
7911.32
7909.88
7908.45
7907.02
7905.6
7904.18
7902.76
7901.35
7899.95
7898.55
7897.17
7895.78
7894.41
7893.04
7891.68
7890.44
7888.6
8024.78
8033.01
8035.73
8040.25
8044.72
8049.15
8053.49
8057.73
8061.71
8065.41
8068.7
8071.42
8074.43
8077.9
8081.21
8084.44
8087.88
8091.46
8095.08
8098.57
8101.88
8104.92
8107.74
8110.37
8112.9
8115.36
8117.77
8120.2
8122.62
8124.92
8127.45
8129.98
8132.59
8134.98
8137.12
8138.99
8140.47
8142.35
8144.17
8146.19
8148.1
8149.67
8151.13
8152.55
8153.86
8155.05
8156.25
8157.48
8158.61
8159.66
8160.62
8161.32
8162.08
8163.13
8164.08
8164.83
8165.55
8166.23
8166.86
8167.42
8167.99
8168.55
8169.08
8169.58
8170
8170.19
8170.23
8170.58
8170.92
8171.51
8172.13
8172.52
8172.8
8173.04
8173.16
8173.16
8173.44
8173.63
8173.67
8173.62
8173.5
8173.34
8173.01
8172.69
8172.47
8172.08
8171.95
8172.3
8172.73
8174.9
8177.84
8171.88
8157.16
8170.87
8171.91
8170.93
8171.8
8170.91
8170.23
8171.34
8171.07
8171.48
8171.61
8171.62
8171.88
8171.85
8171.4
8171.88
8171.78
8172.92
8173.51
8178.44
8177.38
8172.13
8172.8
8173.16
8173.92
8175.28
8175.4
8175.01
8174.99
8175.04
8175.35
8175.54
8175.66
8175.36
8175.31
8175.1
8176.4
8176.2
8174.02
8173.86
8172.68
8172.44
8171.83
8171.41
8170.46
8168.98
8167.58
8165.69
8163.84
8161.88
8159.72
8157.39
8154.88
8152.06
8149.01
8145.69
8142.05
8138.39
8134.52
8130.6
8126.34
8121.69
8116.95
8112.06
8107.05
8101.9
8096.45
8090.74
8084.89
8078.94
8072.86
8066.73
8060.43
8053.91
8047.23
8040.57
8033.83
8027.13
8020.31
8013.33
8006.44
7999.55
7992.76
7986
7979.21
7972.4
7965.7
7959.16
7952.8
7946.54
7940.33
7934.25
7928.25
7922.35
7916.69
7911.17
7905.89
7900.74
7895.68
7890.74
7885.88
7881.18
7876.7
7872.36
7868.06
7863.86
7859.68
7855.65
7851.73
7847.93
7844.19
7840.47
7836.81
7833.2
7829.61
7826.17
7822.83
7819.68
7816.6
7813.61
7810.72
7807.93
7805.35
7802.92
7800.71
7798.6
7796.61
7794.74
7793.07
7791.62
7790.27
7789.03
7787.89
7786.91
7786.08
7785.39
7784.81
7784.42
7784.11
7783.87
7783.72
7783.65
7783.62
7783.72
7783.9
7784.19
7784.55
7784.91
7785.3
7785.71
7786.21
7786.75
7787.32
7787.97
7788.6
7789.22
7789.84
7790.45
7791.11
7791.79
7792.51
7793.19
7793.85
7794.47
7795.13
7795.79
7796.49
7797.14
7797.78
7798.4
7799.02
7799.62
7800.2
7800.77
7801.37
7801.95
7802.5
7803.02
7803.56
7804.1
7804.65
7805.16
7805.66
7806.13
7806.6
7807.08
7807.55
7808.04
7808.51
7808.96
7809.4
7809.82
7810.25
7810.68
7811.12
7811.57
7812.01
7812.43
7812.85
7813.26
7813.68
7814.11
7814.56
7815
7815.43
7815.87
7816.3
7816.74
7817.2
7817.66
7818.1
7818.57
7819.05
7819.55
7820.04
7820.53
7821.03
7821.54
7822.07
7822.61
7823.14
7823.67
7824.23
7824.8
7825.39
7825.98
7826.57
7827.18
7827.8
7828.43
7829.09
7829.75
7830.42
7831.11
7831.81
7832.52
7833.26
7834.01
7834.79
7835.59
7836.4
7837.22
7838.07
7838.94
7839.85
7840.77
7841.72
7842.68
7843.68
7844.69
7845.73
7846.8
7847.9
7849.03
7850.19
7851.37
7852.58
7853.82
7855.08
7856.36
7857.68
7859.03
7860.4
7861.81
7863.24
7864.69
7866.17
7867.68
7869.22
7870.78
7872.36
7873.97
7875.61
7877.27
7878.95
7880.65
7882.38
7884.13
7885.89
7887.68
7889.48
7891.3
7893.14
7895
7896.87
7898.75
7900.65
7902.56
7904.49
7906.42
7908.36
7910.31
7912.26
7914.22
7916.18
7918.16
7920.13
7922.1
7924.07
7926.05
7928.02
7929.99
7931.95
7933.91
7935.86
7937.81
7939.75
7941.67
7943.59
7945.48
7947.37
7949.24
7951.11
7952.94
7954.77
7956.54
7958.33
7960.05
7961.77
7963.43
7965.07
7966.69
7968.25
7969.8
7971.27
7972.64
7974.02
7975.45
7976.73
7977.99
7979.18
7980.32
7981.43
7982.51
7983.52
7984.5
7985.39
7986.26
7987.12
7987.91
7988.66
7989.34
7989.73
7990.31
7991.1
7991.59
7992.18
7992.53
7992.97
7993.22
7993.57
7993.84
7994.1
7994.33
7994.49
7994.65
7994.68
7994.71
7994.83
7994.79
7994.87
7994.8
7994.49
7993.72
7993.31
7993.59
7993.43
7993.02
7992.58
7992.17
7991.71
7991.27
7990.82
7990.36
7989.87
7989.36
7988.83
7988.27
7987.68
7987.07
7986.43
7985.76
7985.07
7984.35
7983.6
7982.82
7982.01
7981.18
7980.33
7979.44
7978.53
7977.59
7976.64
7975.65
7974.64
7973.61
7972.55
7971.48
7970.38
7969.25
7968.11
7966.95
7965.77
7964.56
7963.34
7962.11
7960.85
7959.58
7958.3
7956.99
7955.68
7954.34
7953
7951.64
7950.28
7948.9
7947.51
7946.11
7944.7
7943.28
7941.86
7940.43
7938.99
7937.54
7936.1
7934.64
7933.19
7931.73
7930.26
7928.8
7927.33
7925.87
7924.4
7922.94
7921.47
7920.01
7918.54
7917.08
7915.63
7914.17
7912.72
7911.28
7909.83
7908.4
7906.96
7905.54
7904.11
7902.7
7901.29
7899.88
7898.48
7897.1
7895.71
7894.34
7892.96
7891.6
7890.36
7888.52
8024.82
8033.08
8035.84
8040.34
8044.82
8049.24
8053.54
8057.69
8061.65
8065.44
8069
8071.77
8074.82
8078.41
8082.32
8085.85
8089.24
8092.66
8096.05
8099.37
8102.56
8105.58
8108.45
8111.21
8113.88
8116.47
8119.02
8121.53
8124.04
8126.4
8128.7
8131.28
8133.75
8136
8138.09
8139.96
8141.31
8143.22
8145.43
8147.37
8148.98
8150.47
8151.91
8153.31
8154.63
8155.88
8157.07
8158.2
8159.28
8160.3
8161.27
8162.19
8163.05
8163.71
8164.45
8165.28
8166.01
8166.67
8167.3
8167.88
8168.41
8168.91
8169.4
8169.85
8170.26
8170.59
8170.44
8170.55
8170.85
8171.56
8172.04
8172.29
8172.5
8172.66
8172.82
8172.95
8172.92
8172.6
8172.69
8172.81
8172.76
8172.65
8172.32
8171.8
8171.67
8171.81
8171.99
8172.09
8171.83
8171.2
8170.45
8170.4
8173.65
8177.35
8171.2
8155.48
8169.7
8171.47
8169.36
8170.04
8169.53
8168.06
8169.37
8168.93
8169.44
8169.11
8169.64
8170
8170.96
8171.5
8171.46
8172.13
8172.24
8173.19
8178.71
8177.59
8171.76
8172.44
8172.77
8173.47
8175.01
8175.22
8174.79
8174.65
8174.62
8174.79
8174.79
8174.83
8174.53
8174.62
8174.21
8175.42
8174.63
8172.32
8171.86
8171.09
8170.35
8169.23
8168.43
8167.01
8164.97
8163.01
8160.77
8158.58
8156.17
8153.44
8150.43
8147.1
8143.46
8139.82
8136.11
8132.21
8127.92
8123.26
8118.51
8113.63
8108.71
8103.53
8098.08
8092.4
8086.45
8080.47
8074.38
8068.24
8061.87
8055.31
8048.54
8041.82
8035.04
8028.3
8021.42
8014.38
8007.36
8000.44
7993.62
7986.76
7979.9
7972.99
7966.24
7959.68
7953.28
7946.9
7940.62
7934.46
7928.4
7922.42
7916.65
7911.05
7905.69
7900.47
7895.33
7890.31
7885.43
7880.65
7876.01
7871.54
7867.2
7862.94
7858.73
7854.58
7850.6
7846.78
7842.99
7839.24
7835.52
7831.82
7828.27
7824.84
7821.6
7818.4
7815.28
7812.26
7809.32
7806.58
7804.01
7801.68
7799.43
7797.31
7795.28
7793.47
7791.83
7790.42
7789.09
7787.89
7786.84
7785.86
7785.03
7784.38
7783.84
7783.5
7783.24
7783.04
7782.94
7782.92
7782.97
7783.06
7783.27
7783.64
7784.01
7784.39
7784.78
7785.27
7785.8
7786.4
7787.06
7787.68
7788.32
7788.95
7789.56
7790.23
7790.91
7791.63
7792.36
7793.04
7793.71
7794.34
7795
7795.7
7796.39
7797.04
7797.67
7798.27
7798.86
7799.52
7800.13
7800.72
7801.3
7801.85
7802.37
7802.9
7803.45
7804.01
7804.53
7805.04
7805.54
7806.01
7806.47
7806.93
7807.4
7807.9
7808.36
7808.81
7809.24
7809.66
7810.07
7810.5
7810.96
7811.39
7811.81
7812.22
7812.62
7813.03
7813.48
7813.92
7814.34
7814.77
7815.2
7815.62
7816.05
7816.5
7816.96
7817.41
7817.86
7818.31
7818.8
7819.29
7819.78
7820.27
7820.76
7821.27
7821.8
7822.33
7822.86
7823.4
7823.95
7824.53
7825.11
7825.7
7826.29
7826.9
7827.53
7828.17
7828.81
7829.47
7830.14
7830.83
7831.54
7832.25
7832.98
7833.73
7834.51
7835.31
7836.11
7836.93
7837.79
7838.67
7839.56
7840.48
7841.42
7842.38
7843.37
7844.38
7845.42
7846.5
7847.6
7848.73
7849.88
7851.06
7852.27
7853.5
7854.76
7856.05
7857.36
7858.71
7860.09
7861.49
7862.92
7864.37
7865.85
7867.37
7868.91
7870.47
7872.05
7873.67
7875.31
7876.97
7878.65
7880.36
7882.09
7883.84
7885.61
7887.41
7889.21
7891.04
7892.89
7894.76
7896.64
7898.53
7900.44
7902.36
7904.29
7906.23
7908.19
7910.15
7912.11
7914.08
7916.07
7918.06
7920.05
7922.03
7924.02
7926.01
7928.01
7929.99
7931.97
7933.95
7935.92
7937.89
7939.85
7941.79
7943.72
7945.65
7947.56
7949.45
7951.33
7953.19
7955.02
7956.84
7958.61
7960.39
7962.11
7963.82
7965.49
7967.12
7968.64
7970.17
7971.73
7973.17
7974.58
7975.92
7977.22
7978.49
7979.72
7980.89
7982.02
7983.06
7984.08
7985.09
7986.02
7986.94
7987.76
7988.31
7989
7989.95
7990.54
7991.26
7991.73
7992.28
7992.67
7993.13
7993.51
7993.89
7994.23
7994.49
7994.75
7994.87
7995.02
7995.2
7995.35
7995.38
7995.65
7994.87
7994.74
7995.1
7995.03
7994.73
7994.38
7994.02
7993.67
7993.29
7992.91
7992.53
7992.13
7991.71
7991.26
7990.78
7990.28
7989.76
7989.22
7988.65
7988.06
7987.44
7986.8
7986.12
7985.42
7984.7
7983.94
7983.16
7982.35
7981.51
7980.64
7979.76
7978.84
7977.9
7976.93
7975.94
7974.93
7973.89
7972.83
7971.74
7970.64
7969.51
7968.36
7967.19
7966
7964.79
7963.56
7962.32
7961.05
7959.77
7958.48
7957.17
7955.84
7954.5
7953.15
7951.78
7950.41
7949.02
7947.62
7946.21
7944.79
7943.37
7941.94
7940.5
7939.05
7937.6
7936.14
7934.68
7933.22
7931.75
7930.28
7928.81
7927.34
7925.86
7924.39
7922.92
7921.45
7919.98
7918.51
7917.04
7915.58
7914.12
7912.67
7911.22
7909.77
7908.33
7906.89
7905.46
7904.04
7902.62
7901.2
7899.8
7898.4
7897.01
7895.62
7894.25
7892.87
7891.51
7890.27
7888.43
8024.92
8033.21
8036.03
8040.54
8045.03
8049.46
8053.77
8057.94
8061.91
8065.76
8069.52
8072.81
8075.48
8079.1
8083.28
8087.05
8090.5
8093.87
8097.18
8100.42
8103.55
8106.57
8109.49
8112.3
8115.03
8117.7
8120.31
8122.87
8125.39
8127.86
8130.26
8132.62
8134.9
8137.08
8139.17
8141.12
8142.87
8144.75
8146.63
8148.35
8149.91
8151.39
8152.81
8154.19
8155.51
8156.75
8157.93
8159.01
8160.02
8161.02
8162.01
8162.92
8163.74
8164.3
8164.68
8165.58
8166.52
8167.19
8167.78
8168.33
8168.85
8169.32
8169.76
8170.17
8170.55
8170.86
8171.1
8170.74
8170.89
8171.54
8171.93
8172.11
8172.25
8172.35
8172.42
8172.46
8172.28
8171.93
8171.82
8172.01
8172.09
8171.96
8171.73
8171.46
8171.35
8171.29
8171.15
8170.89
8170.31
8170.21
8170.3
8170.15
8169.82
8169.42
8169.14
8172.27
8175.85
8169.36
8152.92
8168.03
8170.74
8167.6
8168.21
8167.31
8165.69
8167.17
8167.67
8168.29
8169.05
8169.24
8169.82
8170.49
8171.07
8170.73
8171.56
8171.72
8172.89
8179.02
8177.53
8170.78
8171.51
8172.12
8173
8174.68
8174.8
8173.85
8173.75
8173.49
8174.04
8174.15
8174.11
8174.22
8173.66
8173.56
8173.02
8173.96
8173.45
8170.51
8169.64
8167.69
8166.19
8164.55
8162.74
8160.36
8157.89
8155.02
8152.05
8148.76
8145.24
8141.74
8138.12
8134.09
8129.82
8125.24
8120.4
8115.63
8110.7
8105.44
8099.98
8094.33
8088.37
8082.31
8076.28
8070.04
8063.59
8057.01
8050.17
8043.34
8036.6
8029.72
8022.73
8015.66
8008.5
8001.56
7994.64
7987.66
7980.67
7973.67
7966.89
7960.31
7953.76
7947.26
7940.86
7934.5
7928.39
7922.48
7916.61
7910.87
7905.21
7899.87
7894.7
7889.62
7884.64
7879.79
7875.01
7870.3
7865.83
7861.51
7857.31
7853.21
7849.18
7845.25
7841.38
7837.54
7833.72
7830.08
7826.54
7823.2
7819.92
7816.68
7813.56
7810.57
7807.65
7804.87
7802.32
7799.94
7797.79
7795.7
7793.76
7791.92
7790.32
7788.93
7787.63
7786.42
7785.4
7784.6
7783.86
7783.18
7782.66
7782.31
7782.15
7782.03
7781.98
7782.01
7782.1
7782.25
7782.5
7782.95
7783.36
7783.81
7784.27
7784.75
7785.32
7785.98
7786.66
7787.32
7787.99
7788.64
7789.27
7789.96
7790.68
7791.45
7792.17
7792.87
7793.56
7794.21
7794.85
7795.58
7796.26
7796.92
7797.54
7798.13
7798.74
7799.38
7800.02
7800.61
7801.18
7801.73
7802.25
7802.77
7803.32
7803.88
7804.4
7804.9
7805.39
7805.86
7806.31
7806.76
7807.26
7807.73
7808.17
7808.62
7809.05
7809.47
7809.87
7810.27
7810.74
7811.16
7811.58
7811.99
7812.38
7812.77
7813.21
7813.65
7814.07
7814.48
7814.91
7815.34
7815.78
7816.22
7816.66
7817.1
7817.54
7818.01
7818.49
7818.97
7819.45
7819.94
7820.44
7820.94
7821.47
7821.99
7822.52
7823.08
7823.64
7824.2
7824.78
7825.36
7825.96
7826.58
7827.2
7827.84
7828.48
7829.14
7829.81
7830.5
7831.2
7831.92
7832.66
7833.41
7834.18
7834.96
7835.77
7836.6
7837.45
7838.32
7839.22
7840.13
7841.06
7842.02
7843.01
7844.03
7845.08
7846.14
7847.23
7848.36
7849.51
7850.69
7851.89
7853.13
7854.39
7855.68
7856.99
7858.33
7859.71
7861.11
7862.54
7864
7865.48
7866.99
7868.53
7870.09
7871.68
7873.3
7874.94
7876.6
7878.29
7880.01
7881.74
7883.5
7885.28
7887.07
7888.89
7890.73
7892.59
7894.46
7896.35
7898.26
7900.17
7902.11
7904.05
7906.01
7907.98
7909.95
7911.94
7913.93
7915.93
7917.94
7919.95
7921.96
7923.96
7925.98
7927.99
7930
7932.01
7934.01
7936.02
7938.01
7939.99
7941.96
7943.93