/*--------------------------------*- C++ -*----------------------------------*\
| =========                 |                                                 |
| \\      /  F ield         | OpenFOAM: The Open Source CFD Toolbox           |
|  \\    /   O peration     | Version:  v2006                                 |
|   \\  /    A nd           | Website:  www.openfoam.com                      |
|    \\/     M anipulation  |                                                 |
\*---------------------------------------------------------------------------*/
FoamFile
{
    version     2.0;
    format      ascii;
    class       surfaceScalarField;
    location    "5";
    object      alphaPhi0.water;
}
// * * * * * * * * * * * * * * * * * * * * * * * * * * * * * * * * * * * * * //

dimensions      [0 3 -1 0 0 0 0];
oriented        oriented;


internalField   nonuniform List<scalar> 
65390
(
4.55225e-05
-1.38528e-06
4.68716e-05
-1.3491e-06
4.80305e-05
-1.15889e-06
4.90636e-05
-1.03293e-06
5.01396e-05
-1.07597e-06
5.09625e-05
-8.22749e-07
5.12682e-05
-3.05676e-07
5.12088e-05
5.94492e-08
5.10969e-05
1.11991e-07
5.12966e-05
-1.99721e-07
5.28944e-05
-1.59771e-06
5.8005e-05
-5.11046e-06
6.64335e-05
-8.42836e-06
7.68039e-05
-1.03704e-05
8.8396e-05
-1.15922e-05
0.000100511
-1.21156e-05
0.000111653
-1.11418e-05
0.000119875
-8.22197e-06
0.000123469
-3.59437e-06
0.000121255
2.21312e-06
0.000114538
6.71533e-06
0.000106497
8.03445e-06
9.92763e-05
7.22177e-06
9.41013e-05
5.17518e-06
9.10221e-05
3.07895e-06
8.91021e-05
1.89838e-06
8.77513e-05
1.34435e-06
8.68708e-05
8.80886e-07
8.65558e-05
3.29662e-07
8.6741e-05
-1.70971e-07
8.72191e-05
-4.77781e-07
8.77363e-05
-5.17514e-07
8.80453e-05
-3.25656e-07
8.81535e-05
-1.21172e-07
8.82805e-05
-1.14745e-07
8.85474e-05
-2.68381e-07
8.89133e-05
-3.64413e-07
8.9154e-05
-2.76059e-07
8.93382e-05
-1.83981e-07
8.96319e-05
-2.55719e-07
9.01623e-05
-5.22295e-07
9.09359e-05
-7.70371e-07
9.15851e-05
-6.6689e-07
9.18458e-05
-3.0123e-07
9.19513e-05
-1.05494e-07
9.21397e-05
-1.39619e-07
9.25439e-05
-3.95581e-07
9.31971e-05
-6.50824e-07
9.38244e-05
-6.33345e-07
9.41794e-05
-3.95193e-07
9.44417e-05
-2.40846e-07
9.47432e-05
-2.78843e-07
9.51694e-05
-4.2356e-07
9.5664e-05
-4.94169e-07
9.61149e-05
-4.6434e-07
9.65794e-05
-4.55103e-07
9.70837e-05
-4.98138e-07
9.76409e-05
-5.57133e-07
9.81572e-05
-5.16413e-07
9.83653e-05
-2.11369e-07
9.80443e-05
2.41719e-07
9.77462e-05
3.44655e-07
9.75494e-05
2.26277e-07
9.74088e-05
1.40545e-07
9.71886e-05
2.20218e-07
9.67089e-05
4.79722e-07
9.61932e-05
5.17521e-07
9.59856e-05
2.11846e-07
9.60664e-05
-8.02349e-08
9.61608e-05
-9.44428e-08
9.60944e-05
6.55037e-08
9.56266e-05
4.51874e-07
9.46747e-05
9.23801e-07
9.32977e-05
1.37693e-06
9.08335e-05
2.4642e-06
8.69865e-05
3.84694e-06
8.03756e-05
6.64016e-06
6.96926e-05
1.06926e-05
6.04622e-05
9.23012e-06
5.67487e-05
3.71326e-06
5.40026e-05
2.74573e-06
5.24899e-05
1.51265e-06
4.95093e-05
2.97921e-06
4.69034e-05
2.59488e-06
4.61981e-05
7.10408e-07
4.48002e-05
1.40328e-06
4.36704e-05
1.13131e-06
4.32134e-05
4.56902e-07
4.3459e-05
-2.45522e-07
4.35357e-05
-7.89315e-08
4.35434e-05
-1.79639e-08
4.35973e-05
-5.38119e-08
4.3397e-05
2.04741e-07
4.30467e-05
3.56599e-07
4.23536e-05
6.93105e-07
4.14319e-05
9.20333e-07
3.97124e-05
1.71557e-06
3.75312e-05
2.18129e-06
3.34016e-05
4.12973e-06
2.78928e-05
5.51349e-06
2.32833e-05
4.61025e-06
2.08523e-05
2.4311e-06
2.04918e-05
3.60225e-07
2.02811e-05
2.06582e-07
2.09204e-05
-6.3947e-07
2.19309e-05
-1.01042e-06
2.24546e-05
-5.23583e-07
2.24063e-05
4.84329e-08
2.23486e-05
6.07355e-08
2.2578e-05
-2.2827e-07
2.27598e-05
-1.81844e-07
2.30808e-05
-3.20974e-07
2.33525e-05
-2.76604e-07
2.34955e-05
-1.42932e-07
2.33233e-05
1.77404e-07
2.29232e-05
4.01255e-07
2.15715e-05
1.35158e-06
1.98764e-05
1.69496e-06
1.88637e-05
1.01045e-06
1.87718e-05
9.18938e-08
1.91987e-05
-4.26105e-07
1.94166e-05
-2.17304e-07
1.99201e-05
-5.03617e-07
2.05243e-05
-6.0431e-07
2.08583e-05
-3.37108e-07
2.1144e-05
-2.85713e-07
2.14327e-05
-2.86268e-07
2.16703e-05
-2.37948e-07
2.19343e-05
-2.64376e-07
2.21961e-05
-2.63353e-07
2.24175e-05
-2.19528e-07
2.26129e-05
-1.9529e-07
2.27791e-05
-1.66329e-07
2.29183e-05
-1.42641e-07
2.30441e-05
-1.22435e-07
2.31571e-05
-1.1114e-07
2.32583e-05
-1.01169e-07
2.33413e-05
-8.30427e-08
2.34039e-05
-6.25123e-08
2.34432e-05
-3.93377e-08
2.34545e-05
-1.35604e-08
2.34452e-05
1.00263e-08
2.34117e-05
3.37281e-08
2.33461e-05
6.3419e-08
2.32515e-05
9.47263e-08
2.31332e-05
1.20096e-07
2.29883e-05
1.44778e-07
2.28143e-05
1.73916e-07
2.26084e-05
2.05813e-07
2.23657e-05
2.39463e-07
2.21009e-05
2.67072e-07
2.18119e-05
2.90825e-07
2.1493e-05
3.18857e-07
2.11426e-05
3.50432e-07
2.07588e-05
3.82553e-07
2.03459e-05
4.12947e-07
1.99069e-05
4.4005e-07
1.94401e-05
4.67769e-07
1.89398e-05
5.00294e-07
1.8409e-05
5.30706e-07
1.78511e-05
5.57823e-07
1.72643e-05
5.86808e-07
1.66415e-05
6.21972e-07
1.59863e-05
6.55481e-07
1.53047e-05
6.81778e-07
1.45965e-05
7.08239e-07
1.38531e-05
7.43103e-07
1.30724e-05
7.80671e-07
1.22688e-05
8.03929e-07
1.14448e-05
8.23975e-07
1.05947e-05
8.50163e-07
9.71491e-06
8.79405e-07
8.81046e-06
9.04121e-07
7.89514e-06
9.1565e-07
6.97956e-06
9.15781e-07
6.05999e-06
9.19643e-07
5.13433e-06
9.25545e-07
4.21174e-06
9.22322e-07
3.30335e-06
9.08405e-07
2.41953e-06
8.83954e-07
1.56092e-06
8.58614e-07
7.27344e-07
8.33496e-07
-7.42966e-08
8.01658e-07
-8.31901e-07
7.57666e-07
-1.54886e-06
7.17052e-07
-2.23819e-06
6.89447e-07
-2.902e-06
6.63816e-07
-3.53749e-06
6.35233e-07
-4.14228e-06
6.04692e-07
-4.71722e-06
5.74955e-07
-5.26507e-06
5.47813e-07
-5.7873e-06
5.22572e-07
-6.28999e-06
5.02688e-07
-6.77088e-06
4.80931e-07
-7.23038e-06
4.58832e-07
-7.66787e-06
4.37409e-07
-8.08258e-06
4.14826e-07
-8.47439e-06
3.91935e-07
-8.8461e-06
3.72061e-07
-9.20168e-06
3.56222e-07
-9.54355e-06
3.42109e-07
-9.86846e-06
3.25261e-07
-1.01761e-05
3.06398e-07
-1.04631e-05
2.86165e-07
-1.07322e-05
2.68962e-07
-1.09875e-05
2.55096e-07
-1.12294e-05
2.42277e-07
-1.14575e-05
2.28547e-07
-1.16708e-05
2.13517e-07
-1.18679e-05
1.96953e-07
-1.20515e-05
1.83655e-07
-1.22253e-05
1.74027e-07
-1.23895e-05
1.64159e-07
-1.25394e-05
1.49012e-07
-1.26727e-05
1.33454e-07
-1.27936e-05
1.21102e-07
-1.29043e-05
1.1141e-07
-1.30082e-05
1.04346e-07
-1.31042e-05
9.60464e-08
-1.31899e-05
8.48475e-08
-1.3262e-05
7.20769e-08
-1.33221e-05
6.00903e-08
-1.33731e-05
5.10993e-08
-1.34164e-05
4.4301e-08
-1.3455e-05
3.87296e-08
-1.34862e-05
3.08094e-08
-1.35081e-05
2.1588e-08
-1.35211e-05
1.28993e-08
-1.35255e-05
4.43703e-09
-1.35223e-05
-3.03044e-09
-1.35137e-05
-8.10736e-09
-1.35017e-05
-1.19517e-08
-1.34841e-05
-1.81355e-08
-1.34584e-05
-2.56769e-08
-1.34266e-05
-3.1771e-08
-1.33883e-05
-3.79372e-08
-1.33452e-05
-4.30744e-08
-1.32988e-05
-4.63612e-08
-1.32494e-05
-4.99529e-08
-1.31942e-05
-5.52511e-08
-1.31348e-05
-5.93733e-08
-1.30726e-05
-6.19003e-08
-1.30074e-05
-6.50658e-08
-1.29384e-05
-6.93977e-08
-1.2864e-05
-7.43606e-08
-1.27861e-05
-7.79538e-08
-1.27061e-05
-7.96995e-08
-1.26261e-05
-7.9389e-08
-1.25446e-05
-8.23017e-08
-1.24566e-05
-8.80821e-08
-1.23653e-05
-9.12858e-08
-1.22724e-05
-9.2889e-08
-1.21781e-05
-9.43643e-08
-1.20814e-05
-9.6236e-08
-1.1983e-05
-9.84362e-08
-1.18821e-05
-1.01241e-07
-1.17776e-05
-1.04561e-07
-1.16707e-05
-1.06877e-07
-1.15612e-05
-1.09442e-07
-1.14497e-05
-1.1137e-07
-1.13368e-05
-1.12894e-07
-1.12202e-05
-1.16571e-07
-1.10994e-05
-1.20873e-07
-1.09746e-05
-1.24917e-07
-1.0847e-05
-1.27646e-07
-1.07181e-05
-1.28726e-07
-1.05878e-05
-1.30177e-07
-1.04546e-05
-1.33339e-07
-1.03154e-05
-1.39317e-07
-1.01697e-05
-1.4575e-07
-1.00197e-05
-1.50022e-07
-9.8662e-06
-1.53412e-07
-9.71054e-06
-1.55594e-07
-9.55216e-06
-1.5844e-07
-9.3878e-06
-1.64366e-07
-9.21749e-06
-1.70309e-07
-9.0419e-06
-1.75578e-07
-8.86146e-06
-1.80463e-07
-8.67553e-06
-1.85978e-07
-8.48298e-06
-1.92555e-07
-8.28421e-06
-1.98784e-07
-8.08155e-06
-2.02608e-07
-7.87549e-06
-2.06092e-07
-7.6622e-06
-2.13343e-07
-7.44108e-06
-2.21152e-07
-7.21214e-06
-2.28943e-07
-6.97652e-06
-2.35632e-07
-6.73501e-06
-2.41461e-07
-6.48829e-06
-2.46616e-07
-6.2373e-06
-2.50996e-07
-5.97949e-06
-2.57875e-07
-5.71407e-06
-2.65459e-07
-5.44133e-06
-2.72742e-07
-5.16201e-06
-2.7932e-07
-4.87824e-06
-2.83677e-07
-4.59186e-06
-2.86321e-07
-4.29982e-06
-2.92089e-07
-4.00278e-06
-2.97046e-07
-3.7017e-06
-3.01069e-07
-3.39617e-06
-3.05511e-07
-3.08885e-06
-3.07239e-07
-2.78094e-06
-3.079e-07
-2.47149e-06
-3.0945e-07
-2.16132e-06
-3.10156e-07
-1.85088e-06
-3.10415e-07
-1.54324e-06
-3.07603e-07
-1.23866e-06
-3.04573e-07
-9.3728e-07
-3.01363e-07
-6.39774e-07
-2.9748e-07
-3.47502e-07
-2.92246e-07
-6.28243e-08
-2.8465e-07
2.13604e-07
-2.76403e-07
4.82198e-07
-2.6857e-07
7.44032e-07
-2.6181e-07
9.98789e-07
-2.54745e-07
1.2453e-06
-2.46492e-07
1.48371e-06
-2.38407e-07
1.71462e-06
-2.30883e-07
1.93818e-06
-2.2356e-07
2.15424e-06
-2.16054e-07
2.36217e-06
-2.07935e-07
2.56213e-06
-1.99952e-07
2.75478e-06
-1.92629e-07
2.94023e-06
-1.85433e-07
3.11801e-06
-1.77773e-07
3.28774e-06
-1.69727e-07
3.44989e-06
-1.62153e-07
3.60506e-06
-1.55153e-07
3.75316e-06
-1.48093e-07
3.89379e-06
-1.40647e-07
4.02677e-06
-1.33001e-07
4.15218e-06
-1.25426e-07
4.27058e-06
-1.18404e-07
4.38238e-06
-1.118e-07
4.48766e-06
-1.05288e-07
4.58631e-06
-9.86571e-08
4.67823e-06
-9.1953e-08
4.76347e-06
-8.52586e-08
4.84229e-06
-7.88311e-08
4.9151e-06
-7.28357e-08
4.98212e-06
-6.70477e-08
5.04339e-06
-6.12915e-08
5.09887e-06
-5.55112e-08
5.14842e-06
-4.95986e-08
5.19263e-06
-4.42109e-08
5.23193e-06
-3.93126e-08
5.26652e-06
-3.46017e-08
5.29627e-06
-2.97753e-08
5.3211e-06
-2.48829e-08
5.34135e-06
-2.02738e-08
5.35742e-06
-1.60921e-08
5.36967e-06
-1.22359e-08
5.37794e-06
-8.28855e-09
5.38225e-06
-4.35074e-09
5.38296e-06
-7.40691e-10
5.38041e-06
2.49037e-09
5.3747e-06
5.62589e-09
5.36582e-06
8.81225e-09
5.35397e-06
1.18045e-08
5.33949e-06
1.44737e-08
5.32248e-06
1.70409e-08
5.303e-06
1.95211e-08
5.28117e-06
2.18826e-08
5.25707e-06
2.41548e-08
5.23093e-06
2.61712e-08
5.20296e-06
2.79953e-08
5.17328e-06
2.96922e-08
5.14192e-06
3.13468e-08
5.10893e-06
3.29505e-08
5.07446e-06
3.44304e-08
5.03864e-06
3.57886e-08
5.00176e-06
3.68623e-08
4.96391e-06
3.7858e-08
4.92503e-06
3.88919e-08
4.88522e-06
3.98299e-08
4.8446e-06
4.06322e-08
4.80323e-06
4.13776e-08
4.76116e-06
4.20715e-08
4.71837e-06
4.27753e-08
4.67505e-06
4.33219e-08
4.63137e-06
4.36789e-08
4.58744e-06
4.39293e-08
4.54325e-06
4.41818e-08
4.49879e-06
4.44567e-08
4.45406e-06
4.47224e-08
4.40912e-06
4.49363e-08
4.36405e-06
4.50566e-08
4.31898e-06
4.50648e-08
4.27403e-06
4.49459e-08
4.22902e-06
4.49998e-08
4.18383e-06
4.51895e-08
4.13881e-06
4.50235e-08
4.0941e-06
4.47129e-08
4.04934e-06
4.47424e-08
4.00466e-06
4.46776e-08
3.96021e-06
4.44341e-08
3.91583e-06
4.43575e-08
3.87147e-06
4.43404e-08
3.82727e-06
4.41814e-08
3.78335e-06
4.3898e-08
3.73979e-06
4.35383e-08
3.69657e-06
4.31883e-08
3.65363e-06
4.29143e-08
3.61089e-06
4.27117e-08
3.56862e-06
4.22493e-08
3.52658e-06
4.20222e-08
3.48533e-06
4.1236e-08
3.44466e-06
4.06648e-08
3.40468e-06
3.9973e-08
3.36508e-06
3.95985e-08
3.32583e-06
3.92515e-08
3.287e-06
3.88429e-08
3.24828e-06
3.87275e-08
3.21051e-06
3.77723e-08
3.17311e-06
3.74095e-08
3.13476e-06
3.83543e-08
3.09733e-06
3.74319e-08
3.05819e-06
3.9144e-08
3.01833e-06
3.9866e-08
2.98366e-06
3.46649e-08
2.94833e-06
3.5326e-08
2.91008e-06
3.82442e-08
2.87742e-06
3.26624e-08
2.82595e-06
5.14569e-08
2.7704e-06
5.55393e-08
2.74842e-06
2.198e-08
2.71055e-06
3.78599e-08
2.69054e-06
2.00007e-08
2.6981e-06
-7.55875e-09
2.76123e-06
-6.31381e-08
2.83303e-06
-7.18029e-08
2.85176e-06
-1.87358e-08
2.86347e-06
-1.1707e-08
2.85722e-06
6.24787e-09
2.84555e-06
1.16698e-08
2.82677e-06
1.8776e-08
2.80661e-06
2.01513e-08
2.78317e-06
2.34397e-08
2.75844e-06
2.47221e-08
2.72947e-06
2.89729e-08
2.70152e-06
2.79455e-08
2.6657e-06
3.58138e-08
2.62822e-06
3.74817e-08
2.60094e-06
2.7271e-08
2.5677e-06
3.32372e-08
2.53556e-06
3.21386e-08
2.50994e-06
2.56134e-08
2.49431e-06
1.56264e-08
2.47808e-06
1.62304e-08
2.4484e-06
2.96672e-08
2.41698e-06
3.14126e-08
2.38472e-06
3.22542e-08
2.34878e-06
3.59306e-08
2.31595e-06
3.28246e-08
2.27834e-06
3.76013e-08
2.24387e-06
3.44601e-08
2.20027e-06
4.35923e-08
2.15656e-06
4.36965e-08
2.12151e-06
3.5041e-08
2.07974e-06
4.17708e-08
2.03974e-06
3.99896e-08
2.00881e-06
3.09276e-08
1.90887e-06
9.99359e-08
1.82198e-06
8.68843e-08
1.80464e-06
1.73328e-08
1.71457e-06
9.00634e-08
1.76548e-06
-5.09021e-08
1.83569e-06
-7.02103e-08
2.27733e-06
-4.4165e-07
2.81804e-06
-5.40743e-07
3.12879e-06
-3.1065e-07
3.32831e-06
-1.99418e-07
3.46281e-06
-1.3435e-07
3.55002e-06
-8.71135e-08
3.60614e-06
-5.6016e-08
3.64016e-06
-3.39267e-08
3.65821e-06
-1.79692e-08
3.66461e-06
-6.31779e-09
3.66217e-06
2.51433e-09
3.65283e-06
9.40751e-09
3.63789e-06
1.50013e-08
3.61835e-06
1.95887e-08
3.59492e-06
2.34872e-08
3.56805e-06
2.69139e-08
3.53817e-06
2.99234e-08
3.50571e-06
3.24963e-08
3.47108e-06
3.46615e-08
3.43461e-06
3.64997e-08
3.39651e-06
3.81227e-08
3.35692e-06
3.96113e-08
3.31594e-06
4.10044e-08
3.27368e-06
4.2267e-08
3.2303e-06
4.33994e-08
3.18593e-06
4.43763e-08
3.14099e-06
4.49523e-08
3.09517e-06
4.58296e-08
3.04869e-06
4.6487e-08
3.00168e-06
4.70088e-08
2.95427e-06
4.74194e-08
2.90662e-06
4.76553e-08
2.85885e-06
4.77705e-08
2.81101e-06
4.78453e-08
2.76308e-06
4.79415e-08
2.715e-06
4.80798e-08
2.66676e-06
4.82416e-08
2.61821e-06
4.8554e-08
2.5692e-06
4.90136e-08
2.52001e-06
4.91971e-08
2.47048e-06
4.9531e-08
2.42055e-06
4.99372e-08
2.37018e-06
5.03701e-08
2.31935e-06
5.0837e-08
2.26804e-06
5.1313e-08
2.2163e-06
5.17367e-08
2.16425e-06
5.20543e-08
2.112e-06
5.22557e-08
2.05968e-06
5.23163e-08
2.00741e-06
5.22733e-08
1.95526e-06
5.21498e-08
1.90326e-06
5.19986e-08
1.85137e-06
5.18918e-08
1.79943e-06
5.1944e-08
1.74719e-06
5.22367e-08
1.6945e-06
5.26878e-08
1.64148e-06
5.30215e-08
1.58847e-06
5.30105e-08
1.53583e-06
5.26353e-08
1.48353e-06
5.22987e-08
1.43096e-06
5.25653e-08
1.37766e-06
5.33038e-08
1.32352e-06
5.41399e-08
1.2691e-06
5.44128e-08
1.21539e-06
5.37152e-08
1.16223e-06
5.31491e-08
1.10878e-06
5.3457e-08
1.05452e-06
5.42514e-08
1.00001e-06
5.45151e-08
9.46516e-07
5.34932e-08
8.93849e-07
5.26661e-08
8.40956e-07
5.28917e-08
7.87577e-07
5.33766e-08
7.34728e-07
5.2846e-08
6.82597e-07
5.21299e-08
6.30198e-07
5.23993e-08
5.76566e-07
5.36331e-08
5.21967e-07
5.45983e-08
4.68389e-07
5.35763e-08
4.11584e-07
5.6805e-08
3.54397e-07
5.71892e-08
6.45767e-08
4.55896e-05
-2.80386e-06
4.69514e-05
-2.7109e-06
4.81687e-05
-2.37618e-06
4.92982e-05
-2.16235e-06
5.03598e-05
-2.13753e-06
5.13654e-05
-1.82828e-06
5.23239e-05
-1.26411e-06
5.323e-05
-8.46467e-07
5.42227e-05
-8.80524e-07
5.58211e-05
-1.79786e-06
5.95204e-05
-5.2968e-06
6.52953e-05
-1.08851e-05
7.13648e-05
-1.44975e-05
7.7355e-05
-1.63603e-05
8.3019e-05
-1.7256e-05
8.77982e-05
-1.68946e-05
9.04538e-05
-1.37973e-05
9.08698e-05
-8.63786e-06
8.96896e-05
-2.41437e-06
8.92832e-05
2.61919e-06
8.98363e-05
6.1616e-06
9.02583e-05
7.60846e-06
9.0142e-05
7.33714e-06
8.94251e-05
5.89682e-06
8.84717e-05
4.03274e-06
8.7678e-05
2.68939e-06
8.71614e-05
1.83973e-06
8.68586e-05
1.18325e-06
8.67099e-05
4.91114e-07
8.6713e-05
-1.61205e-07
8.68348e-05
-5.98531e-07
8.71251e-05
-8.10108e-07
8.75633e-05
-7.94431e-07
8.80054e-05
-5.60421e-07
8.82936e-05
-3.9959e-07
8.84737e-05
-4.35336e-07
8.86872e-05
-5.79374e-07
8.89824e-05
-6.00332e-07
8.93492e-05
-5.51025e-07
8.98295e-05
-7.19031e-07
9.03853e-05
-1.05319e-06
9.09054e-05
-1.28696e-06
9.14822e-05
-1.25068e-06
9.19826e-05
-8.54863e-07
9.23963e-05
-5.19162e-07
9.2764e-05
-5.07395e-07
9.32464e-05
-8.31734e-07
9.37536e-05
-1.13863e-06
9.42934e-05
-1.17886e-06
9.47662e-05
-8.87633e-07
9.50746e-05
-5.71052e-07
9.5342e-05
-5.27818e-07
9.56149e-05
-6.72552e-07
9.59181e-05
-8.00771e-07
9.62639e-05
-8.18045e-07
9.66497e-05
-8.43132e-07
9.70621e-05
-9.04904e-07
9.74424e-05
-9.33336e-07
9.77252e-05
-8.01019e-07
9.77918e-05
-3.24536e-07
9.78612e-05
1.58309e-07
9.79226e-05
2.83247e-07
9.79143e-05
2.58637e-07
9.78186e-05
2.55843e-07
9.75253e-05
4.86308e-07
9.70641e-05
9.4092e-07
9.66149e-05
9.89669e-07
9.62461e-05
6.02373e-07
9.5956e-05
2.12951e-07
9.56293e-05
2.30438e-07
9.50497e-05
6.29413e-07
9.40071e-05
1.46925e-06
9.28839e-05
2.0469e-06
9.17745e-05
2.48647e-06
9.12594e-05
3.0057e-06
9.12748e-05
3.84615e-06
9.26659e-05
5.25137e-06
9.57567e-05
7.60283e-06
9.2865e-05
1.2122e-05
8.50834e-05
1.14943e-05
7.44179e-05
1.34109e-05
6.41917e-05
1.17385e-05
5.99787e-05
7.19021e-06
5.58332e-05
6.71497e-06
5.30511e-05
3.49255e-06
4.98674e-05
4.58724e-06
4.67449e-05
4.27189e-06
4.53369e-05
1.86848e-06
4.56945e-05
-6.03655e-07
4.4977e-05
6.3024e-07
4.44318e-05
5.2112e-07
4.42614e-05
1.1658e-07
4.40697e-05
4.05025e-07
4.39449e-05
4.86461e-07
4.39297e-05
7.08323e-07
4.35947e-05
1.24887e-06
4.32521e-05
2.05832e-06
4.26966e-05
2.737e-06
4.30442e-05
3.78857e-06
4.26261e-05
5.93409e-06
4.10222e-05
6.21443e-06
3.68366e-05
6.61662e-06
3.08435e-05
6.353e-06
2.59544e-05
5.08995e-06
2.28018e-05
2.51326e-06
2.13698e-05
4.21709e-07
2.09381e-05
-9.17664e-08
2.06769e-05
3.13132e-07
2.14241e-05
-6.85075e-07
2.27545e-05
-1.55867e-06
2.35031e-05
-9.30424e-07
2.37798e-05
-5.99395e-07
2.392e-05
-4.20834e-07
2.3927e-05
-1.49928e-07
2.41574e-05
-5.29681e-08
2.44454e-05
1.17415e-07
2.50576e-05
7.42778e-07
2.53496e-05
1.4026e-06
2.50661e-05
1.29087e-06
2.36273e-05
1.5307e-06
2.17312e-05
1.47038e-06
2.06126e-05
9.02921e-07
2.02451e-05
-1.37579e-07
2.03246e-05
-6.88792e-07
2.04223e-05
-4.34829e-07
2.08978e-05
-7.61207e-07
2.1492e-05
-8.80509e-07
2.18297e-05
-5.70495e-07
2.20541e-05
-4.90573e-07
2.22404e-05
-4.52821e-07
2.23963e-05
-3.72569e-07
2.25917e-05
-3.88285e-07
2.27872e-05
-3.62735e-07
2.29565e-05
-3.1303e-07
2.30874e-05
-2.53347e-07
2.31915e-05
-2.1363e-07
2.32832e-05
-1.91173e-07
2.3356e-05
-1.55799e-07
2.34176e-05
-1.24159e-07
2.346e-05
-8.45818e-08
2.34822e-05
-3.57683e-08
2.34756e-05
1.662e-08
2.34398e-05
6.95112e-08
2.33736e-05
1.28041e-07
2.32818e-05
1.86661e-07
2.31643e-05
2.38483e-07
2.30186e-05
2.91807e-07
2.28398e-05
3.52573e-07
2.26261e-05
4.16093e-07
2.23864e-05
4.78755e-07
2.21207e-05
5.3298e-07
2.18313e-05
5.85003e-07
2.15065e-05
6.43986e-07
2.11481e-05
7.08829e-07
2.0758e-05
7.7059e-07
2.03444e-05
8.26512e-07
1.99027e-05
8.81715e-07
1.94312e-05
9.41793e-07
1.89238e-05
1.0072e-06
1.83867e-05
1.06765e-06
1.78224e-05
1.12267e-06
1.72283e-05
1.18065e-06
1.65999e-05
1.24908e-06
1.59408e-05
1.31503e-06
1.52542e-05
1.36907e-06
1.45396e-05
1.4228e-06
1.37913e-05
1.49077e-06
1.3011e-05
1.56051e-06
1.22064e-05
1.6094e-06
1.13796e-05
1.65098e-06
1.0528e-05
1.70152e-06
9.65141e-06
1.75505e-06
8.75885e-06
1.79669e-06
7.85506e-06
1.81985e-06
6.94507e-06
1.82597e-06
6.03249e-06
1.83198e-06
5.11938e-06
1.83827e-06
4.21515e-06
1.82656e-06
3.32684e-06
1.79673e-06
2.454e-06
1.75703e-06
1.59949e-06
1.71311e-06
7.71398e-07
1.66137e-06
-2.40522e-08
1.59701e-06
-7.84003e-07
1.51749e-06
-1.51147e-06
1.44451e-06
-2.20647e-06
1.38462e-06
-2.87105e-06
1.3284e-06
-3.50924e-06
1.27343e-06
-4.12199e-06
1.21696e-06
-4.70632e-06
1.15927e-06
-5.26223e-06
1.10374e-06
-5.78899e-06
1.04963e-06
-6.2903e-06
1.00433e-06
-6.76932e-06
9.5999e-07
-7.2287e-06
9.18247e-07
-7.66958e-06
8.78028e-07
-8.08942e-06
8.33924e-07
-8.4851e-06
7.87582e-07
-8.85984e-06
7.46779e-07
-9.21735e-06
7.13419e-07
-9.55834e-06
6.83365e-07
-9.88191e-06
6.49035e-07
-1.01874e-05
6.11234e-07
-1.04755e-05
5.73997e-07
-1.07477e-05
5.41259e-07
-1.10046e-05
5.12841e-07
-1.12471e-05
4.85309e-07
-1.14745e-05
4.5587e-07
-1.16862e-05
4.24822e-07
-1.18844e-05
3.9469e-07
-1.20702e-05
3.69532e-07
-1.2244e-05
3.4887e-07
-1.24057e-05
3.25809e-07
-1.25535e-05
2.96492e-07
-1.26884e-05
2.67894e-07
-1.28113e-05
2.44083e-07
-1.29228e-05
2.23654e-07
-1.30247e-05
2.06991e-07
-1.31181e-05
1.89509e-07
-1.32017e-05
1.6849e-07
-1.32753e-05
1.4445e-07
-1.33369e-05
1.21355e-07
-1.33889e-05
1.03598e-07
-1.34322e-05
8.85383e-08
-1.34685e-05
7.51607e-08
-1.34971e-05
5.952e-08
-1.3518e-05
4.25765e-08
-1.35314e-05
2.55578e-08
-1.35369e-05
9.71562e-09
-1.35349e-05
-4.98566e-09
-1.35255e-05
-1.6727e-08
-1.35114e-05
-2.60188e-08
-1.34921e-05
-3.74486e-08
-1.34662e-05
-5.16139e-08
-1.3434e-05
-6.42642e-08
-1.33958e-05
-7.65334e-08
-1.33523e-05
-8.66449e-08
-1.33051e-05
-9.35821e-08
-1.32547e-05
-1.00258e-07
-1.32007e-05
-1.09204e-07
-1.31415e-05
-1.17788e-07
-1.30785e-05
-1.24946e-07
-1.30107e-05
-1.32808e-07
-1.29401e-05
-1.40486e-07
-1.28666e-05
-1.48165e-07
-1.279e-05
-1.5454e-07
-1.27103e-05
-1.5907e-07
-1.26284e-05
-1.60833e-07
-1.25448e-05
-1.66282e-07
-1.24575e-05
-1.7581e-07
-1.23664e-05
-1.82353e-07
-1.22738e-05
-1.85556e-07
-1.21796e-05
-1.88116e-07
-1.20834e-05
-1.92419e-07
-1.19836e-05
-1.98306e-07
-1.18805e-05
-2.0429e-07
-1.17753e-05
-2.09766e-07
-1.16688e-05
-2.13768e-07
-1.15605e-05
-2.17746e-07
-1.14505e-05
-2.21308e-07
-1.13368e-05
-2.26453e-07
-1.12183e-05
-2.35034e-07
-1.1097e-05
-2.42436e-07
-1.09728e-05
-2.49065e-07
-1.08462e-05
-2.54186e-07
-1.07173e-05
-2.5724e-07
-1.05859e-05
-2.6164e-07
-1.04506e-05
-2.68626e-07
-1.03111e-05
-2.79282e-07
-1.0166e-05
-2.90953e-07
-1.0017e-05
-2.98984e-07
-9.8648e-06
-3.05522e-07
-9.7085e-06
-3.11698e-07
-9.5477e-06
-3.19228e-07
-9.38217e-06
-3.299e-07
-9.2121e-06
-3.40606e-07
-9.03736e-06
-3.50364e-07
-8.85701e-06
-3.60838e-07
-8.67049e-06
-3.72551e-07
-8.47787e-06
-3.85212e-07
-8.27975e-06
-3.96908e-07
-8.07696e-06
-4.05301e-07
-7.86915e-06
-4.13834e-07
-7.65463e-06
-4.27794e-07
-7.4328e-06
-4.43212e-07
-7.20421e-06
-4.57603e-07
-6.9699e-06
-4.69945e-07
-6.72993e-06
-4.81421e-07
-6.48311e-06
-4.93299e-07
-6.23001e-06
-5.04088e-07
-5.97065e-06
-5.17237e-07
-5.70489e-06
-5.31271e-07
-5.43344e-06
-5.44244e-07
-5.15656e-06
-5.56197e-07
-4.87384e-06
-5.66277e-07
-4.586e-06
-5.74159e-07
-4.29281e-06
-5.8527e-07
-3.99609e-06
-5.93763e-07
-3.69713e-06
-6.00082e-07
-3.39454e-06
-6.08087e-07
-3.088e-06
-6.13708e-07
-2.77907e-06
-6.16822e-07
-2.46989e-06
-6.18622e-07
-2.16219e-06
-6.17858e-07
-1.8548e-06
-6.17769e-07
-1.54782e-06
-6.14529e-07
-1.24339e-06
-6.08969e-07
-9.43331e-07
-6.01394e-07
-6.47955e-07
-5.92842e-07
-3.5763e-07
-5.82544e-07
-7.3226e-08
-5.69035e-07
2.0472e-07
-5.54341e-07
4.74915e-07
-5.38755e-07
7.37501e-07
-5.24392e-07
9.93038e-07
-5.10269e-07
1.24124e-06
-4.94706e-07
1.48167e-06
-4.78822e-07
1.71397e-06
-4.63176e-07
1.93817e-06
-4.47751e-07
2.15477e-06
-4.32648e-07
2.36395e-06
-4.17119e-07
2.56562e-06
-4.01612e-07
2.75949e-06
-3.86494e-07
2.9455e-06
-3.71414e-07
3.12356e-06
-3.55827e-07
3.29409e-06
-3.4026e-07
3.45729e-06
-3.25353e-07
3.61315e-06
-3.10986e-07
3.76146e-06
-2.96409e-07
3.90218e-06
-2.81375e-07
4.03548e-06
-2.66337e-07
4.16161e-06
-2.51562e-07
4.28065e-06
-2.37441e-07
4.39273e-06
-2.23872e-07
4.49795e-06
-2.1051e-07
4.5964e-06
-1.97122e-07
4.68829e-06
-1.83855e-07
4.77371e-06
-1.70721e-07
4.85277e-06
-1.579e-07
4.92555e-06
-1.45634e-07
4.99229e-06
-1.33813e-07
5.05316e-06
-1.22219e-07
5.10831e-06
-1.10737e-07
5.15791e-06
-9.92733e-08
5.20222e-06
-8.85848e-08
5.24141e-06
-7.85398e-08
5.27559e-06
-6.88025e-08
5.30486e-06
-5.90893e-08
5.32948e-06
-4.95206e-08
5.34968e-06
-4.04836e-08
5.36562e-06
-3.20346e-08
5.37743e-06
-2.40704e-08
5.38529e-06
-1.62087e-08
5.38945e-06
-8.55955e-09
5.39e-06
-1.34255e-09
5.3871e-06
5.34336e-09
5.38098e-06
1.17151e-08
5.37184e-06
1.79324e-08
5.35983e-06
2.38107e-08
5.34504e-06
2.92643e-08
5.32756e-06
3.45446e-08
5.30762e-06
3.94809e-08
5.28549e-06
4.40161e-08
5.26126e-06
4.83951e-08
5.23498e-06
5.24468e-08
5.20676e-06
5.62056e-08
5.17674e-06
5.96864e-08
5.14511e-06
6.29548e-08
5.11192e-06
6.60909e-08
5.07735e-06
6.89955e-08
5.04145e-06
7.16844e-08
5.0044e-06
7.39358e-08
4.96632e-06
7.5969e-08
4.92724e-06
7.79927e-08
4.8872e-06
7.98873e-08
4.8463e-06
8.15356e-08
4.80464e-06
8.30344e-08
4.76239e-06
8.43039e-08
4.71963e-06
8.55311e-08
4.67634e-06
8.66081e-08
4.63255e-06
8.74696e-08
4.5884e-06
8.8075e-08
4.54401e-06
8.85666e-08
4.49936e-06
8.90923e-08
4.45445e-06
8.96171e-08
4.40943e-06
8.99447e-08
4.36438e-06
9.00918e-08
4.31927e-06
9.01747e-08
4.27412e-06
9.00863e-08
4.229e-06
9.01087e-08
4.18401e-06
9.01896e-08
4.13904e-06
8.99846e-08
4.09416e-06
8.95883e-08
4.04922e-06
8.96544e-08
4.00451e-06
8.93622e-08
3.95992e-06
8.89985e-08
3.91558e-06
8.86574e-08
3.87135e-06
8.85338e-08
3.8273e-06
8.81885e-08
3.78326e-06
8.7899e-08
3.73965e-06
8.7105e-08
3.69614e-06
8.66517e-08
3.65313e-06
8.58729e-08
3.61026e-06
8.55429e-08
3.56814e-06
8.43488e-08
3.52581e-06
8.43308e-08
3.48428e-06
8.27484e-08
3.4429e-06
8.2047e-08
3.40231e-06
8.056e-08
3.36337e-06
7.85441e-08
3.32474e-06
7.78865e-08
3.28765e-06
7.59488e-08
3.24886e-06
7.75274e-08
3.21115e-06
7.55e-08
3.17106e-06
7.75052e-08
3.13132e-06
7.80985e-08
3.09683e-06
7.19284e-08
3.06389e-06
7.20865e-08
3.02732e-06
7.64306e-08
2.99289e-06
6.90967e-08
2.93779e-06
9.04184e-08
2.88026e-06
9.57566e-08
2.85931e-06
5.36044e-08
2.84166e-06
6.90935e-08
2.8435e-06
5.36878e-08
2.85289e-06
1.25731e-08
2.92425e-06
-3.35131e-08
2.99792e-06
-5.36769e-08
3.01165e-06
-2.12989e-08
2.99275e-06
-4.42446e-08
2.95374e-06
-3.27991e-08
2.93375e-06
1.25436e-09
2.90873e-06
1.33069e-08
2.88906e-06
2.59204e-08
2.86656e-06
3.4164e-08
2.84365e-06
4.1678e-08
2.81793e-06
4.58647e-08
2.79269e-06
4.86681e-08
2.75863e-06
5.8778e-08
2.72422e-06
6.33779e-08
2.701e-06
5.11573e-08
2.67733e-06
5.9475e-08
2.65362e-06
6.11861e-08
2.63023e-06
5.06572e-08
2.62025e-06
4.32069e-08
2.60989e-06
4.24946e-08
2.57845e-06
5.70442e-08
2.54211e-06
5.19622e-08
2.50084e-06
5.74896e-08
2.46754e-06
6.29582e-08
2.42663e-06
7.23104e-08
2.39161e-06
6.72531e-08
2.34333e-06
8.41969e-08
2.30261e-06
7.35382e-08
2.26603e-06
7.41788e-08
2.2386e-06
6.18738e-08
2.21157e-06
7.06035e-08
2.1845e-06
7.0757e-08
2.15873e-06
6.07991e-08
2.05721e-06
1.43299e-07
1.96469e-06
1.32506e-07
1.94588e-06
4.97432e-08
1.9212e-06
1.2462e-07
2.0447e-06
-3.66079e-08
2.15521e-06
-9.31703e-08
2.67849e-06
-4.33207e-07
3.1732e-06
-5.45601e-07
3.4758e-06
-3.72829e-07
3.57085e-06
-5.36734e-07
3.51373e-06
-4.83722e-07
3.5363e-06
-3.33351e-07
3.56986e-06
-2.33132e-07
3.60228e-06
-1.66928e-07
3.63016e-06
-1.15144e-07
3.65045e-06
-7.64532e-08
3.66244e-06
-4.60632e-08
3.66697e-06
-2.26365e-08
3.6649e-06
-4.37363e-09
3.65701e-06
1.02824e-08
3.6439e-06
2.24047e-08
3.62643e-06
3.23733e-08
3.6052e-06
4.07269e-08
3.58062e-06
4.79759e-08
3.55312e-06
5.4342e-08
3.5231e-06
5.98712e-08
3.49091e-06
6.46069e-08
3.45685e-06
6.86572e-08
3.42102e-06
7.22706e-08
3.38356e-06
7.55249e-08
3.34457e-06
7.85493e-08
3.30413e-06
8.14009e-08
3.26237e-06
8.39814e-08
3.21949e-06
8.62388e-08
3.17571e-06
8.81242e-08
3.13073e-06
8.98953e-08
3.08527e-06
9.12621e-08
3.03921e-06
9.25264e-08
2.99245e-06
9.37411e-08
2.94506e-06
9.47891e-08
2.89734e-06
9.53661e-08
2.84934e-06
9.5751e-08
2.80105e-06
9.61264e-08
2.75241e-06
9.65704e-08
2.7034e-06
9.70705e-08
2.65415e-06
9.74852e-08
2.60484e-06
9.78531e-08
2.55554e-06
9.83039e-08
2.50569e-06
9.90431e-08
2.45551e-06
9.96975e-08
2.40506e-06
1.00386e-07
2.35427e-06
1.01154e-07
2.30312e-06
1.01977e-07
2.25165e-06
1.02775e-07
2.19992e-06
1.03453e-07
2.14802e-06
1.03946e-07
2.09602e-06
1.04249e-07
2.04394e-06
1.04394e-07
1.99179e-06
1.04411e-07
1.93962e-06
1.04311e-07
1.88747e-06
1.04137e-07
1.83534e-06
1.04013e-07
1.78317e-06
1.04102e-07
1.73082e-06
1.0458e-07
1.67819e-06
1.05301e-07
1.62537e-06
1.05829e-07
1.57257e-06
1.05802e-07
1.51983e-06
1.05359e-07
1.46695e-06
1.05174e-07
1.41375e-06
1.05752e-07
1.35983e-06
1.07208e-07
1.30582e-06
1.08138e-07
1.25252e-06
1.07701e-07
1.19955e-06
1.06679e-07
1.14615e-06
1.06536e-07
1.09204e-06
1.07556e-07
1.03786e-06
1.08418e-07
9.84441e-07
1.07924e-07
9.31548e-07
1.06375e-07
8.7812e-07
1.06082e-07
8.24229e-07
1.06769e-07
7.7065e-07
1.06943e-07
7.17664e-07
1.0582e-07
6.64331e-07
1.05454e-07
6.09952e-07
1.0677e-07
5.5567e-07
1.07904e-07
5.02071e-07
1.08186e-07
4.48047e-07
1.07591e-07
3.96401e-07
1.08446e-07
3.42716e-07
1.10858e-07
1.17479e-07
4.56675e-05
-4.23306e-06
4.70364e-05
-4.07976e-06
4.82975e-05
-3.63722e-06
4.94863e-05
-3.3511e-06
5.06148e-05
-3.26595e-06
5.17858e-05
-2.99926e-06
5.30713e-05
-2.54955e-06
5.44552e-05
-2.23029e-06
5.5948e-05
-2.37323e-06
5.77113e-05
-3.56098e-06
6.01136e-05
-7.69891e-06
6.22143e-05
-1.29855e-05
6.38855e-05
-1.61685e-05
6.48932e-05
-1.73678e-05
6.50515e-05
-1.74142e-05
6.42413e-05
-1.60846e-05
6.26783e-05
-1.22348e-05
6.20569e-05
-8.01708e-06
6.33921e-05
-3.75013e-06
6.60068e-05
4.13552e-09
6.94892e-05
2.67848e-06
7.32865e-05
3.81015e-06
7.68191e-05
3.8049e-06
7.94456e-05
3.27096e-06
8.10243e-05
2.45386e-06
8.21315e-05
1.58174e-06
8.31626e-05
8.07966e-07
8.40443e-05
2.98745e-07
8.45586e-05
-4.85391e-08
8.48883e-05
-4.90263e-07
8.52122e-05
-9.2269e-07
8.57038e-05
-1.28119e-06
8.63676e-05
-1.45659e-06
8.70764e-05
-1.28388e-06
8.7571e-05
-9.40066e-07
8.78878e-05
-7.52239e-07
8.81692e-05
-8.60678e-07
8.85635e-05
-9.94686e-07
8.91033e-05
-1.09064e-06
8.97581e-05
-1.33086e-06
9.03379e-05
-1.61272e-06
9.08513e-05
-1.80197e-06
9.13895e-05
-1.78924e-06
9.1967e-05
-1.48874e-06
9.25753e-05
-1.12753e-06
9.31951e-05
-1.10057e-06
9.37737e-05
-1.38224e-06
9.42465e-05
-1.60414e-06
9.46807e-05
-1.61433e-06
9.51055e-05
-1.33004e-06
9.54177e-05
-9.1303e-07
9.56731e-05
-7.83141e-07
9.58626e-05
-8.621e-07
9.60645e-05
-9.69904e-07
9.62843e-05
-1.02182e-06
9.6551e-05
-1.10991e-06
9.68475e-05
-1.20134e-06
9.71127e-05
-1.20059e-06
9.73073e-05
-1.0291e-06
9.74644e-05
-5.10885e-07
9.77731e-05
-1.50401e-07
9.80871e-05
-3.07885e-08
9.83437e-05
3.39726e-08
9.83647e-05
2.34954e-07
9.80782e-05
7.48503e-07
9.77935e-05
1.22561e-06
9.75013e-05
1.28188e-06
9.71649e-05
9.87368e-07
9.67846e-05
6.0265e-07
9.63487e-05
6.62522e-07
9.57532e-05
1.18416e-06
9.51691e-05
2.05347e-06
9.44786e-05
2.73753e-06
9.36673e-05
3.33034e-06
9.27512e-05
3.93339e-06
9.22106e-05
4.38737e-06
9.22572e-05
5.2048e-06
9.36549e-05
6.20494e-06
9.81221e-05
7.65465e-06
0.000101128
8.48743e-06
0.000103334
1.12026e-05
9.87227e-05
1.63288e-05
8.87658e-05
1.71176e-05
7.59668e-05
1.95142e-05
6.46751e-05
1.47843e-05
6.00066e-05
9.25582e-06
5.55501e-05
8.7432e-06
5.20712e-05
5.35859e-06
4.99841e-05
1.48424e-06
4.79119e-05
2.70165e-06
4.68579e-05
1.56205e-06
4.71098e-05
-1.32328e-07
4.61458e-05
1.3786e-06
4.5241e-05