/*--------------------------------*- C++ -*----------------------------------*\
| =========                 |                                                 |
| \\      /  F ield         | OpenFOAM: The Open Source CFD Toolbox           |
|  \\    /   O peration     | Version:  v2006                                 |
|   \\  /    A nd           | Website:  www.openfoam.com                      |
|    \\/     M anipulation  |                                                 |
\*---------------------------------------------------------------------------*/
FoamFile
{
    version     2.0;
    format      ascii;
    class       volScalarField;
    location    "5";
    object      nut;
}
// * * * * * * * * * * * * * * * * * * * * * * * * * * * * * * * * * * * * * //

dimensions      [0 2 -1 0 0 0 0];


internalField   nonuniform List<scalar> 
33000
(
5.0751e-10
5.93663e-10
6.15567e-10
6.26557e-10
6.2738e-10
6.28539e-10
6.46798e-10
6.83109e-10
7.24358e-10
7.70984e-10
8.32353e-10
8.46413e-10
7.66221e-10
7.00359e-10
6.78951e-10
6.84309e-10
7.04517e-10
7.3666e-10
7.89854e-10
9.10614e-10
1.17332e-09
1.63997e-09
2.28718e-09
2.96862e-09
3.53772e-09
3.96131e-09
4.29128e-09
4.55552e-09
4.73491e-09
4.82598e-09
4.84632e-09
4.83625e-09
4.85467e-09
4.88531e-09
4.91631e-09
4.92432e-09
4.90499e-09
4.89731e-09
4.904e-09
4.9124e-09
4.89693e-09
4.83086e-09
4.77283e-09
4.76672e-09
4.7788e-09
4.78395e-09
4.759e-09
4.68939e-09
4.62839e-09
4.59788e-09
4.58469e-09
4.56882e-09
4.52852e-09
4.47651e-09
4.43231e-09
4.3948e-09
4.35838e-09
4.31432e-09
4.26317e-09
4.22374e-09
4.2103e-09
4.21289e-09
4.19072e-09
4.13574e-09
4.064e-09
4.00283e-09
3.94442e-09
3.86086e-09
3.72646e-09
3.57771e-09
3.43857e-09
3.30195e-09
3.16749e-09
3.03659e-09
2.86241e-09
2.72758e-09
2.47872e-09
2.50358e-09
3.12176e-09
3.20024e-09
3.50682e-09
4.23748e-09
4.40143e-09
5.5221e-09
6.11299e-09
6.17835e-09
6.47209e-09
6.60696e-09
6.44505e-09
6.36497e-09
6.45847e-09
6.39318e-09
6.26167e-09
6.05699e-09
5.78192e-09
5.47007e-09
5.15006e-09
4.81778e-09
4.51229e-09
4.98853e-09
6.20255e-09
7.50952e-09
7.84067e-09
7.63865e-09
8.49228e-09
9.28053e-09
9.93701e-09
1.04471e-08
1.05727e-08
9.71846e-09
8.97966e-09
8.68556e-09
8.48499e-09
8.37952e-09
8.1994e-09
7.83803e-09
7.47449e-09
8.18754e-09
9.14294e-09
9.23529e-09
8.91504e-09
8.65307e-09
8.99493e-09
9.00055e-09
9.18884e-09
9.20173e-09
8.89429e-09
8.67054e-09
8.57229e-09
8.49798e-09
8.46582e-09
8.4224e-09
8.34778e-09
8.27684e-09
8.21883e-09
8.17548e-09
8.13595e-09
8.10121e-09
8.07092e-09
8.04171e-09
8.01977e-09
8.00581e-09
7.99657e-09
7.99465e-09
8.00504e-09
8.02415e-09
8.04802e-09
8.08046e-09
8.12518e-09
8.18515e-09
8.25916e-09
8.34055e-09
8.43117e-09
8.53709e-09
8.66181e-09
8.80529e-09
8.96335e-09
9.13491e-09
9.32997e-09
9.5543e-09
9.80436e-09
1.0079e-08
1.03895e-08
1.07502e-08
1.11587e-08
1.16096e-08
1.21187e-08
1.27221e-08
1.34289e-08
1.42265e-08
1.51409e-08
1.62239e-08
1.75415e-08
1.91594e-08
2.11057e-08
2.34303e-08
2.63243e-08
3.00487e-08
3.49359e-08
4.12948e-08
4.91821e-08
5.82112e-08
6.68927e-08
7.20091e-08
7.03078e-08
6.33191e-08
5.53324e-08
4.83809e-08
4.27589e-08
3.82579e-08
3.46001e-08
3.16213e-08
2.91203e-08
2.70096e-08
2.52507e-08
2.37534e-08
2.24683e-08
2.13649e-08
2.04075e-08
1.95604e-08
1.87981e-08
1.81166e-08
1.75123e-08
1.69791e-08
1.65053e-08
1.60734e-08
1.56787e-08
1.53208e-08
1.4995e-08
1.47031e-08
1.44422e-08
1.42006e-08
1.39708e-08
1.37601e-08
1.35746e-08
1.34067e-08
1.32531e-08
1.31092e-08
1.29717e-08
1.28439e-08
1.27258e-08
1.26177e-08
1.25192e-08
1.24294e-08
1.23451e-08
1.22652e-08
1.21923e-08
1.21251e-08
1.20647e-08
1.20134e-08
1.19699e-08
1.19297e-08
1.18921e-08
1.18602e-08
1.18335e-08
1.18126e-08
1.17987e-08
1.17886e-08
1.17789e-08
1.17724e-08
1.17717e-08
1.17742e-08
1.17776e-08
1.17819e-08
1.17897e-08
1.18031e-08
1.1822e-08
1.184e-08
1.18522e-08
1.18696e-08
1.18949e-08
1.19219e-08
1.19493e-08
1.19771e-08
1.20072e-08
1.20393e-08
1.20742e-08
1.21128e-08
1.21532e-08
1.21976e-08
1.22427e-08
1.22879e-08
1.23385e-08
1.23961e-08
1.24611e-08
1.25305e-08
1.26e-08
1.26685e-08
1.27419e-08
1.28285e-08
1.29266e-08
1.30332e-08
1.3147e-08
1.32612e-08
1.33832e-08
1.35212e-08
1.36714e-08
1.38334e-08
1.40063e-08
1.41959e-08
1.44097e-08
1.46453e-08
1.4889e-08
1.51494e-08
1.54431e-08
1.57696e-08
1.61342e-08
1.65353e-08
1.69796e-08
1.74629e-08
1.79899e-08
1.85852e-08
1.92571e-08
2.00189e-08
2.08916e-08
2.18594e-08
2.29415e-08
2.42121e-08
2.56913e-08
2.7444e-08
2.95586e-08
3.20566e-08
3.50678e-08
3.87699e-08
4.34014e-08
4.92923e-08
4.93399e-08
4.92466e-08
4.92046e-08
4.92166e-08
4.92785e-08
4.93804e-08
4.94934e-08
4.95902e-08
4.9669e-08
4.9727e-08
4.97605e-08
4.97704e-08
4.97582e-08
4.68035e-08
4.27933e-08
3.94791e-08
3.66787e-08
3.42774e-08
3.22109e-08
3.04291e-08
2.88746e-08
2.74953e-08
2.62634e-08
2.51645e-08
2.41822e-08
2.33014e-08
2.25051e-08
2.17778e-08
2.11151e-08
2.05125e-08
1.99644e-08
1.94654e-08
1.90105e-08
1.85928e-08
1.82072e-08
1.78516e-08
1.75233e-08
1.72228e-08
1.69472e-08
1.66907e-08
1.64512e-08
1.62284e-08
1.60232e-08
1.58342e-08
1.56591e-08
1.54949e-08
1.53412e-08
1.51998e-08
1.50696e-08
1.49482e-08
1.48344e-08
1.47291e-08
1.46326e-08
1.4543e-08
1.44593e-08
1.4382e-08
1.43105e-08
1.42449e-08
1.41848e-08
1.41294e-08
1.40784e-08
1.40315e-08
1.39888e-08
1.39502e-08
1.39158e-08
1.38846e-08
1.38554e-08
1.38291e-08
1.38061e-08
1.37858e-08
1.37679e-08
1.37522e-08
1.37391e-08
1.37288e-08
1.37203e-08
1.37129e-08
1.37068e-08
1.37022e-08
1.36994e-08
1.36984e-08
1.36988e-08
1.37006e-08
1.37023e-08
1.37044e-08
1.3709e-08
1.37159e-08
1.37208e-08
1.37271e-08
1.37357e-08
1.37448e-08
1.37533e-08
1.37647e-08
1.37763e-08
1.37895e-08
1.38016e-08
1.38151e-08
1.38275e-08
1.38423e-08
1.38564e-08
1.38707e-08
1.38902e-08
1.3902e-08
1.39226e-08
1.39278e-08
1.39437e-08
1.39449e-08
1.39576e-08
1.39697e-08
1.39852e-08
1.40125e-08
1.4035e-08
1.40066e-08
1.40241e-08
1.40237e-08
1.40499e-08
1.4242e-08
1.43052e-08
1.41029e-08
1.4096e-08
1.37037e-08
1.37532e-08
1.393e-08
1.41497e-08
1.37328e-08
1.30026e-08
1.29225e-08
1.30523e-08
1.30451e-08
1.30731e-08
1.30752e-08
1.31067e-08
1.31137e-08
1.31563e-08
1.32199e-08
1.32761e-08
1.32217e-08
1.32904e-08
1.32127e-08
1.33253e-08
1.33978e-08
1.3556e-08
1.35181e-08
1.34882e-08
1.35888e-08
1.37474e-08
1.38895e-08
1.3994e-08
1.42799e-08
1.43238e-08
1.45666e-08
1.44693e-08
1.46906e-08
1.4594e-08
1.49209e-08
1.57697e-08
1.59132e-08
1.56881e-08
1.53002e-08
1.34458e-08
1.43099e-08
1.28632e-08
1.40909e-08
1.26262e-08
1.12015e-08
1.14595e-08
1.23435e-08
1.28027e-08
1.30754e-08
1.32623e-08
1.34079e-08
1.35257e-08
1.36278e-08
1.37254e-08
1.3825e-08
1.39291e-08
1.40381e-08
1.41514e-08
1.42692e-08
1.4394e-08
1.45263e-08
1.46653e-08
1.48104e-08
1.49618e-08
1.51197e-08
1.5285e-08
1.54582e-08
1.56395e-08
1.583e-08
1.60264e-08
1.62291e-08
1.64418e-08
1.66622e-08
1.68908e-08
1.71275e-08
1.73715e-08
1.76224e-08
1.7881e-08
1.81481e-08
1.84244e-08
1.87104e-08
1.90119e-08
1.9327e-08
1.96538e-08
1.99985e-08
2.03615e-08
2.07446e-08
2.11497e-08
2.15787e-08
2.20327e-08
2.25118e-08
2.30161e-08
2.35461e-08
2.41024e-08
2.44166e-08
2.43633e-08
2.43101e-08
2.4258e-08
2.42077e-08
2.41597e-08
2.41131e-08
2.40669e-08
2.40205e-08
2.39753e-08
2.39334e-08
2.38961e-08
2.38625e-08
2.38299e-08
2.3797e-08
2.37658e-08
2.37389e-08
2.37162e-08
2.3694e-08
2.367e-08
2.36469e-08
2.36271e-08
2.36094e-08
2.35912e-08
2.35724e-08
2.35569e-08
2.35591e-08
2.35902e-08
2.32641e-08
2.30055e-08
2.02037e-08
2.22155e-09
4.37879e-09
7.67754e-09
6.24915e-09
6.12576e-09
6.75853e-09
7.32953e-09
7.96547e-09
8.30463e-09
6.61723e-09
3.59038e-09
3.11377e-09
3.63935e-09
4.34895e-09
5.41623e-09
7.809e-09
1.38159e-08
2.18819e-08
2.52806e-08
2.79759e-08
3.13424e-08
3.80253e-08
4.67698e-08
5.20579e-08
5.96635e-08
7.46209e-08
8.86496e-08
8.89097e-08
8.5709e-08
8.65512e-08
8.59933e-08
8.62295e-08
8.71477e-08
8.7265e-08
8.89944e-08
8.95884e-08
9.02036e-08
9.09503e-08
9.1706e-08
7.14978e-08
5.80199e-08
6.19727e-08
5.6047e-08
5.06726e-08
6.79935e-08
8.78718e-08
6.83504e-08
6.01952e-08
5.06331e-08
4.76181e-08
6.53184e-08
9.75309e-08
9.73884e-08
8.39897e-08
7.28892e-08
6.38392e-08
5.8767e-08
6.30604e-08
8.59956e-08
9.94565e-08
1.00555e-07
1.0021e-07
9.80357e-08
9.47671e-08
6.50727e-08
5.0846e-08
5.96188e-08
6.48777e-08
6.44516e-08
5.71637e-08
3.82056e-08
2.90856e-08
2.90321e-08
3.36805e-08
3.97671e-08
3.10834e-08
2.7636e-08
2.12329e-08
2.63738e-08
2.79609e-08
1.51294e-08
2.24622e-08
3.80385e-08
4.5851e-08
5.32866e-08
4.52136e-08
3.44327e-08
3.60626e-08
3.80479e-08
1.36766e-08
1.66455e-08
1.69107e-08
1.33146e-08
1.7934e-08
2.04059e-08
1.33342e-08
1.26167e-08
7.82066e-09
6.52668e-09
7.03724e-09
9.29107e-09
7.02772e-09
5.59208e-09
6.21232e-09
5.85839e-09
6.3531e-09
5.52962e-09
9.43503e-09
1.33832e-08
8.01846e-09
1.22279e-08
1.83299e-08
7.77976e-08
3.18811e-08
2.20087e-08
1.32895e-08
1.20907e-08
1.4703e-08
1.91563e-08
7.93535e-09
5.75339e-09
9.96903e-09
1.50618e-08
2.03609e-08
1.70053e-08
2.04493e-08
1.75314e-08
3.04873e-08
4.26278e-08
6.16027e-08
6.38466e-08
5.29353e-08
5.19077e-08
6.2128e-08
8.19462e-08
1.06932e-07
1.22148e-07
1.3633e-07
1.39635e-07
1.39141e-07
1.38777e-07
1.38535e-07
1.38261e-07
1.37929e-07
1.19968e-07
9.78456e-08
7.99964e-08
6.64432e-08
5.69181e-08
5.04131e-08
4.54911e-08
4.11075e-08
3.71718e-08
3.37883e-08
3.12564e-08
2.93084e-08
2.73886e-08
2.54843e-08
2.38224e-08
2.2448e-08
2.12689e-08
2.01601e-08
1.90576e-08
1.80666e-08
1.72393e-08
1.6479e-08
1.56875e-08
1.49767e-08
1.43888e-08
1.38869e-08
1.33851e-08
1.29291e-08
1.25929e-08
1.23139e-08
1.20909e-08
1.19369e-08
1.18292e-08
1.18326e-08
1.19219e-08
1.19981e-08
1.21343e-08
1.24057e-08
1.27948e-08
1.32465e-08
1.36954e-08
1.42153e-08
1.47694e-08
1.52681e-08
1.57937e-08
1.64182e-08
1.71286e-08
1.79352e-08
1.8728e-08
1.94833e-08
2.01965e-08
2.09275e-08
2.18567e-08
2.29884e-08
2.41261e-08
2.51832e-08
2.62463e-08
2.75298e-08
2.90744e-08
3.06462e-08
3.22432e-08
3.39292e-08
3.58216e-08
3.81048e-08
4.0738e-08
4.33596e-08
4.59872e-08
4.8794e-08
5.24506e-08
5.70835e-08
6.23095e-08
6.79389e-08
7.41994e-08
8.08072e-08
8.80327e-08
9.72348e-08
1.10853e-07
1.29566e-07
1.50601e-07
1.76402e-07
2.08367e-07
2.49135e-07
3.114e-07
3.27804e-07
3.29561e-07
3.3039e-07
3.30549e-07
3.30722e-07
3.31434e-07
3.10805e-07
2.55823e-07
2.19066e-07
1.96352e-07
1.81911e-07
1.70072e-07
1.5826e-07
1.46564e-07
1.35778e-07
1.26573e-07
1.20449e-07
1.16101e-07
1.1196e-07
1.08175e-07
1.0538e-07
1.01972e-07
9.76381e-08
9.42112e-08
9.26339e-08
9.15429e-08
8.91783e-08
8.59086e-08
8.32809e-08
8.15751e-08
8.03118e-08
7.92572e-08
7.80508e-08
7.55361e-08
7.24331e-08
7.05468e-08
6.9103e-08
6.77969e-08
6.67411e-08
6.52319e-08
6.33393e-08
6.11563e-08
5.89538e-08
5.74571e-08
5.62637e-08
5.48072e-08
5.3181e-08
5.1602e-08
5.014e-08
4.88116e-08
4.72816e-08
4.56737e-08
4.41989e-08
4.29608e-08
4.19702e-08
4.09155e-08
3.95853e-08
3.81968e-08
3.70574e-08
3.61398e-08
3.52568e-08
3.42732e-08
3.33673e-08
3.25224e-08
3.16928e-08
3.09961e-08
3.03625e-08
2.97242e-08
2.91459e-08
2.85848e-08
2.82097e-08
2.79567e-08
2.75942e-08
2.72155e-08
2.69658e-08
2.69116e-08
2.70011e-08
2.69986e-08
2.70025e-08
2.71934e-08
2.75507e-08
2.79497e-08
2.8404e-08
2.8959e-08
2.96011e-08
3.04162e-08
3.12671e-08
3.20987e-08
3.30148e-08
3.40531e-08
3.52109e-08
3.64449e-08
3.76871e-08
3.89788e-08
4.03931e-08
4.19655e-08
4.36937e-08
4.55792e-08
4.7537e-08
4.96152e-08
5.18968e-08
5.44464e-08
5.72942e-08
6.03829e-08
6.37419e-08
6.74501e-08
7.15303e-08
7.60506e-08
8.1107e-08
8.67199e-08
9.30537e-08
1.00362e-07
1.08745e-07
1.18244e-07
1.29136e-07
1.41883e-07
1.57034e-07
1.75029e-07
1.96706e-07
2.23358e-07
2.56845e-07
3.00026e-07
3.5739e-07
4.08183e-07
4.08e-07
4.07211e-07
4.063e-07
4.05755e-07
4.05461e-07
4.04756e-07
4.03833e-07
4.03319e-07
4.03252e-07
4.0301e-07
4.02561e-07
3.67402e-07
3.36273e-07
3.10633e-07
2.89462e-07
2.72253e-07
2.58275e-07
2.46324e-07
2.36127e-07
2.27384e-07
2.20118e-07
2.14039e-07
2.08484e-07
2.03389e-07
1.99025e-07
1.95306e-07
1.92501e-07
1.90039e-07
1.876e-07
1.85344e-07
1.83742e-07
1.82642e-07
1.81511e-07
1.80358e-07
1.79807e-07
1.7959e-07
1.79212e-07
1.78978e-07
1.79042e-07
1.79339e-07
1.79435e-07
1.7961e-07
1.79449e-07
1.80152e-07
1.8064e-07
1.81505e-07
1.81977e-07
1.82478e-07
1.8258e-07
1.84057e-07
1.84662e-07
1.86474e-07
1.87239e-07
1.90091e-07
1.89281e-07
1.9264e-07
1.93218e-07
1.97435e-07
2.05333e-07
2.08163e-07
2.15319e-07
2.07085e-07
2.10636e-07
1.99585e-07
2.00538e-07
2.32953e-07
2.42883e-07
2.14271e-07
2.16765e-07
1.42706e-07
1.36989e-07
2.01569e-07
2.22189e-07
2.6776e-07
3.24258e-07
9.07e-08
8.02745e-08
1.61848e-07
1.66606e-07
1.27231e-07
1.43653e-07
2.24991e-07
2.73459e-07
3.16786e-07
3.40022e-07
3.13016e-07
3.09045e-07
2.26411e-07
2.24607e-07
2.94562e-07
3.15506e-07
3.36797e-07
3.09846e-07
4.06067e-07
3.6544e-07
2.22418e-07
2.1378e-07
1.89064e-07
2.20619e-07
1.97369e-07
2.20919e-07
1.65508e-07
1.87463e-07
2.17906e-07
2.46979e-07
2.81721e-07
2.49886e-07
2.31932e-07
7.78704e-08
8.4096e-08
6.41117e-08
8.23792e-08
3.27175e-08
3.37018e-08
1.39507e-08
1.33846e-08
2.97299e-08
3.35018e-08
2.76883e-08
2.85947e-08
4.86414e-08
7.20404e-08
1.01652e-07
1.49264e-07
2.18707e-07
3.26918e-07
4.44972e-07
4.54855e-07
4.62261e-07
4.34393e-07
3.70334e-07
3.23493e-07
2.90009e-07
2.65892e-07
2.48012e-07
2.34066e-07
2.22651e-07
2.13007e-07
2.04642e-07
1.97229e-07
1.91064e-07
1.86047e-07
1.81744e-07
1.77726e-07
1.75036e-07
1.72752e-07
1.70303e-07
1.68164e-07
1.66725e-07
1.656e-07
1.64482e-07
1.63294e-07
1.62154e-07
1.61344e-07
1.60936e-07
1.60506e-07
1.59196e-07
1.58116e-07
1.5715e-07
1.56077e-07
1.54973e-07
1.5398e-07
1.53204e-07
1.52669e-07
1.52305e-07
1.52027e-07
1.51821e-07
1.5174e-07
1.51785e-07
1.51845e-07
1.51718e-07
1.51208e-07
1.50474e-07
1.49947e-07
1.49865e-07
1.49883e-07
1.49503e-07
1.48492e-07
1.4709e-07
1.46904e-07
1.48239e-07
1.48856e-07
1.47913e-07
1.46437e-07
1.46379e-07
1.47996e-07
1.49016e-07
1.47901e-07
1.46929e-07
1.4774e-07
1.48786e-07
1.47493e-07
1.49827e-07
1.22002e-07
2.06762e-07
7.93388e-08
1.66822e-07
6.11054e-08
1.95012e-07
2.20665e-09
4.35268e-09
7.24775e-09
5.94236e-09
5.7767e-09
5.90282e-09
5.93527e-09
5.94333e-09
5.86371e-09
4.49994e-09
3.42916e-09
4.00338e-09
6.43089e-09
1.13453e-08
2.05786e-08
4.69569e-08
6.15301e-08
6.26181e-08
6.45702e-08
6.64872e-08
6.90052e-08
7.19128e-08
7.45853e-08
7.66377e-08
7.80602e-08
7.90283e-08
7.97071e-08
7.87836e-08
7.01451e-08
6.27978e-08
5.84385e-08
5.61231e-08
4.84173e-08
4.09626e-08
5.02607e-08
7.07987e-08
6.95736e-08
5.83083e-08
4.10003e-08
3.17074e-08
3.09028e-08
3.53075e-08
3.15581e-08
2.39532e-08
2.57034e-08
2.77367e-08
2.61378e-08
3.09947e-08
3.19684e-08
2.59736e-08
3.09199e-08
5.19614e-08
6.69341e-08
7.1111e-08
6.46026e-08
4.49807e-08
3.69688e-08
4.37361e-08
4.39544e-08
3.37054e-08
3.63787e-08
3.92359e-08
4.77033e-08
4.6053e-08
2.51751e-08
2.5216e-08
4.22285e-08
3.48962e-08
3.37151e-08
2.46317e-08
1.74552e-08
1.6529e-08
2.06194e-08
2.11675e-08
2.55608e-08
2.72328e-08
3.49681e-08
2.53497e-08
3.08813e-08
4.72284e-08
5.15169e-08
5.33016e-08
5.45541e-08
5.17272e-08
5.20889e-08
4.803e-08
4.3498e-08
3.95692e-08
3.72991e-08
1.58328e-08
1.70452e-08
1.11548e-08
5.63968e-09
6.28703e-09
6.40429e-09
5.50498e-09
6.65848e-09
7.36431e-09
5.81627e-09
5.92009e-09
5.78233e-09
5.40245e-09
4.38865e-09
4.40484e-09
2.51367e-09
1.84817e-09
1.84843e-09
1.87565e-09
2.62042e-09
3.4287e-09
3.28534e-09
5.03385e-09
4.78982e-09
9.08345e-09
2.06838e-08
3.84579e-08
1.21354e-08
9.24696e-09
8.84591e-09
9.77358e-09
9.54387e-09
1.2062e-08
4.767e-09
3.60945e-09
6.31075e-09
9.14285e-09
1.32091e-08
1.16997e-08
1.63134e-08
1.39684e-08
2.71641e-08
4.38362e-08
8.1103e-08
5.96896e-08
5.60865e-08
5.29619e-08
5.03287e-08
6.38889e-08
1.00611e-07
1.23305e-07
1.13112e-07
1.05949e-07
9.91555e-08
8.47317e-08
7.19493e-08
6.05936e-08
5.01734e-08
4.24851e-08
3.72918e-08
3.37386e-08
3.07061e-08
2.75197e-08
2.47456e-08
2.26334e-08
2.10688e-08
1.98359e-08
1.85711e-08
1.72726e-08
1.61891e-08
1.52803e-08
1.44546e-08
1.37402e-08
1.30997e-08
1.2519e-08
1.19799e-08
1.14613e-08
1.09967e-08
1.06412e-08
1.02697e-08
9.96675e-09
9.73747e-09
9.51799e-09
9.36462e-09
9.21893e-09
9.09048e-09
9.0808e-09
9.1435e-09
9.20767e-09
9.28261e-09
9.36669e-09
9.53588e-09
9.81228e-09
1.01413e-08
1.04694e-08
1.08197e-08
1.12918e-08
1.18016e-08
1.22705e-08
1.27818e-08
1.33403e-08
1.39607e-08
1.47214e-08
1.55316e-08
1.62957e-08
1.70427e-08
1.776e-08
1.85272e-08
1.94933e-08
2.0625e-08
2.17906e-08
2.29176e-08
2.40615e-08
2.53852e-08
2.67714e-08
2.82449e-08
2.99986e-08
3.1988e-08
3.41603e-08
3.64421e-08
3.86027e-08
4.10288e-08
4.40999e-08
4.76738e-08
5.1484e-08
5.6044e-08
6.1033e-08
6.65726e-08
7.31455e-08
8.05966e-08
8.88743e-08
9.94963e-08
1.13185e-07
1.29398e-07
1.51603e-07
1.81595e-07
2.13595e-07
2.49593e-07
2.93895e-07
3.39545e-07
3.84088e-07
3.96834e-07
3.43526e-07
2.8929e-07
2.50796e-07
2.16034e-07
1.91103e-07
1.78243e-07
1.67719e-07
1.55204e-07
1.44105e-07
1.31833e-07
1.20653e-07
1.14354e-07
1.11202e-07
1.0892e-07
1.0567e-07
1.01244e-07
9.63845e-08
9.23824e-08
8.97518e-08
8.80135e-08
8.71014e-08
8.568e-08
8.24838e-08
7.9002e-08
7.68291e-08
7.57841e-08
7.5243e-08
7.44279e-08
7.25857e-08
6.98702e-08
6.7337e-08
6.58774e-08
6.48999e-08
6.34221e-08
6.17396e-08
6.03414e-08
5.8715e-08
5.68742e-08
5.52235e-08
5.40794e-08
5.3161e-08
5.15267e-08
4.94052e-08
4.76747e-08
4.66198e-08
4.57837e-08
4.4483e-08
4.29399e-08
4.15433e-08
4.05469e-08
3.94591e-08
3.81077e-08
3.68918e-08
3.59018e-08
3.5109e-08
3.4352e-08
3.35179e-08
3.23663e-08
3.13085e-08
3.06233e-08
3.00518e-08
2.95788e-08
2.90653e-08
2.83486e-08
2.76496e-08
2.71993e-08
2.69275e-08
2.67363e-08
2.64882e-08
2.61321e-08
2.58915e-08
2.58909e-08
2.60039e-08
2.60075e-08
2.59799e-08
2.62029e-08
2.65861e-08
2.69536e-08
2.73213e-08
2.77777e-08
2.83505e-08
2.90726e-08
2.98826e-08
3.066e-08
3.14657e-08
3.24522e-08
3.3582e-08
3.47907e-08
3.60159e-08
3.72353e-08
3.85667e-08
4.01097e-08
4.18647e-08
4.37238e-08
4.56015e-08
4.76152e-08
4.98304e-08
5.2341e-08
5.51416e-08
5.80582e-08
6.12078e-08
6.47869e-08
6.87985e-08
7.32638e-08
7.81863e-08
8.35343e-08
8.94909e-08
9.64326e-08
1.04511e-07
1.13666e-07
1.24025e-07
1.35808e-07
1.49362e-07
1.65594e-07
1.85386e-07
2.09729e-07
2.3901e-07
2.75027e-07
3.20991e-07
3.81372e-07
4.5716e-07
5.43617e-07
6.37158e-07
7.16178e-07
7.3339e-07
6.81823e-07
6.08506e-07
5.35221e-07
4.67343e-07
4.12001e-07
3.72438e-07
3.43348e-07
3.18363e-07
2.95343e-07
2.75128e-07
2.597e-07
2.48393e-07
2.38305e-07
2.28494e-07
2.19935e-07
2.12971e-07
2.07522e-07
2.02758e-07
1.97834e-07
1.93332e-07
1.90152e-07
1.87977e-07
1.85955e-07
1.83585e-07
1.81164e-07
1.79485e-07
1.78645e-07
1.77485e-07
1.76641e-07
1.76635e-07
1.76774e-07
1.76524e-07
1.75796e-07
1.76242e-07
1.77027e-07
1.77373e-07
1.7678e-07
1.77259e-07
1.77692e-07
1.78393e-07
1.78837e-07
1.80353e-07
1.8036e-07
1.81243e-07
1.81562e-07
1.834e-07
1.827e-07
1.85517e-07
1.86639e-07
1.89584e-07
1.95858e-07
1.98892e-07
2.00073e-07
1.98266e-07
2.02061e-07
1.94433e-07
1.97426e-07
2.33311e-07
2.47294e-07
2.10361e-07
2.10361e-07
1.36968e-07
1.32901e-07
2.03673e-07
2.20261e-07
2.44865e-07
3.02712e-07
8.03872e-08
7.43701e-08
1.9092e-07
2.21934e-07
1.64606e-07
1.51806e-07
1.41338e-07
1.32899e-07
2.02888e-07
2.26868e-07
2.63865e-07
2.05898e-07
2.07724e-07
3.31298e-07
3.01779e-07
3.661e-07
3.72916e-07
3.36642e-07
3.40418e-07
3.45043e-07
2.28713e-07
2.38761e-07
1.98249e-07
2.20046e-07
1.74352e-07
1.86699e-07
1.56005e-07
1.7919e-07
2.06423e-07
2.6657e-07
2.32014e-07
2.40076e-07
2.35158e-07
7.78113e-08
8.63608e-08
5.90984e-08
7.19551e-08
2.95914e-08
3.0186e-08
1.25385e-08
1.19149e-08
2.63286e-08
2.78445e-08
2.84695e-08
2.85317e-08
4.1147e-08
4.26841e-08
5.65122e-08
7.24453e-08
9.26833e-08
1.15454e-07
1.44202e-07
1.79025e-07
2.18141e-07
2.5424e-07
2.80262e-07
2.92298e-07
2.90006e-07
2.78466e-07
2.64389e-07
2.51628e-07
2.40852e-07
2.31546e-07
2.23078e-07
2.15323e-07
2.08502e-07
2.01988e-07
1.9484e-07
1.89757e-07
1.85645e-07
1.81829e-07
1.78512e-07
1.7591e-07
1.73593e-07
1.71256e-07
1.68872e-07
1.66426e-07
1.64059e-07
1.61964e-07
1.6029e-07
1.59055e-07
1.58143e-07
1.57441e-07
1.56913e-07
1.56409e-07
1.55741e-07
1.54889e-07
1.53993e-07
1.53223e-07
1.52712e-07
1.52433e-07
1.52231e-07
1.51925e-07
1.51471e-07
1.51007e-07
1.50758e-07
1.50816e-07
1.51032e-07
1.51114e-07
1.50867e-07
1.50413e-07
1.49894e-07
1.49255e-07
1.4835e-07
1.47344e-07
1.46926e-07
1.47713e-07
1.49098e-07
1.49427e-07
1.47934e-07
1.46239e-07
1.46494e-07
1.48929e-07
1.5016e-07
1.47693e-07
1.45055e-07
1.45697e-07
1.47896e-07
1.46657e-07
1.43622e-07
1.4866e-07
1.23127e-07
2.08231e-07
7.83912e-08
1.66986e-07
6.05433e-08
2.02784e-07
2.18707e-09
4.32269e-09
6.94433e-09
5.66653e-09
5.37542e-09
5.42429e-09
5.5598e-09
5.44465e-09
5.05675e-09
3.82526e-09
3.28516e-09
4.58657e-09
1.09148e-08
5.37176e-08
6.575e-08
3.26078e-08
4.17627e-08
7.04238e-08
7.07363e-08
7.12615e-08
7.23929e-08
7.41077e-08
7.62022e-08
7.85823e-08
7.60106e-08
5.96412e-08
4.5909e-08
3.84301e-08
3.37631e-08
2.91947e-08
2.57972e-08
2.41064e-08
2.32429e-08
2.03273e-08
2.01883e-08
2.39766e-08
2.33117e-08
1.9344e-08
1.72357e-08
1.72178e-08
1.88892e-08
2.2024e-08
2.09991e-08
1.55291e-08
1.41313e-08
1.488e-08
1.75943e-08
2.37399e-08
2.77319e-08
2.10866e-08
2.00161e-08
2.68181e-08
3.87012e-08
6.39921e-08
6.7e-08
4.11783e-08
3.46193e-08
4.20423e-08
3.32406e-08
2.24693e-08
1.94567e-08
1.80482e-08
2.04278e-08
1.98433e-08
1.6124e-08
2.13434e-08
3.99697e-08
3.10902e-08
1.82366e-08
1.53178e-08
1.29674e-08
1.21285e-08
1.19529e-08
1.2356e-08
1.39516e-08
1.65797e-08
1.83209e-08
2.46126e-08
3.06367e-08
4.75112e-08
4.60163e-08
5.6343e-08
5.52229e-08
5.40271e-08
5.22773e-08
5.00069e-08
4.73446e-08
4.03198e-08
3.19362e-08
2.7563e-08
2.07536e-08
2.59559e-08
1.27609e-08
1.49626e-08
1.17927e-08
4.67176e-09
4.8613e-09
4.89959e-09
4.12894e-09
5.40155e-09
7.7812e-09
6.50445e-09
5.47341e-09
4.15293e-09
3.55972e-09
2.49742e-09
2.04792e-09
1.82427e-09
1.35327e-09
1.09365e-09
1.41126e-09
1.70969e-09
2.53979e-09
2.72804e-09
4.75562e-09
4.6228e-09
8.45848e-09
1.55147e-08
4.14073e-08
1.52256e-08
9.29061e-09
8.48997e-09
9.52715e-09
8.13389e-09
1.00779e-08
4.14012e-09
3.21979e-09
5.58782e-09
7.79991e-09
1.13951e-08
1.06183e-08
1.64799e-08
1.47547e-08
3.26699e-08
7.22356e-08
8.2936e-08
1.21086e-07
5.14372e-08
4.77037e-08
5.2577e-08
7.29308e-08
9.10285e-08
7.10447e-08
5.83966e-08
5.46941e-08
4.99251e-08
4.28036e-08
3.70017e-08
3.3163e-08
3.03388e-08
2.7677e-08
2.4793e-08
2.24385e-08
2.08301e-08
1.95481e-08
1.8272e-08
1.70337e-08
1.59877e-08
1.5106e-08
1.42774e-08
1.34799e-08
1.28205e-08
1.233e-08
1.18719e-08
1.13676e-08
1.08671e-08
1.05067e-08
1.02471e-08
9.94114e-09
9.6882e-09
9.52853e-09
9.38717e-09
9.26519e-09
9.16231e-09
9.08399e-09
9.10708e-09
9.19716e-09
9.24578e-09
9.26703e-09
9.378e-09
9.58342e-09
9.8276e-09
1.0081e-08
1.03097e-08
1.06091e-08
1.1004e-08
1.1456e-08
1.19635e-08
1.25082e-08
1.30576e-08
1.36143e-08
1.42435e-08
1.49844e-08
1.57912e-08
1.66447e-08
1.74612e-08
1.81789e-08
1.89857e-08
2.00673e-08
2.13037e-08
2.25668e-08
2.3658e-08
2.47093e-08
2.60189e-08
2.76163e-08
2.96011e-08
3.16158e-08
3.35234e-08
3.54418e-08
3.7462e-08
4.00636e-08
4.35365e-08
4.68678e-08
5.00238e-08
5.4195e-08
5.89835e-08
6.40884e-08
7.0485e-08
7.81273e-08
8.60081e-08
9.47653e-08
1.05344e-07
1.18082e-07
1.34881e-07
1.58282e-07
1.84264e-07
2.09955e-07
2.34484e-07
2.53413e-07
2.6944e-07
2.79758e-07
2.6239e-07
2.33757e-07
2.10396e-07
1.89297e-07
1.75719e-07
1.69355e-07
1.60467e-07
1.46552e-07
1.33473e-07
1.22834e-07
1.15909e-07
1.13055e-07
1.10802e-07
1.07623e-07
1.03685e-07
9.89088e-08
9.35179e-08
8.94158e-08
8.80746e-08
8.7804e-08
8.67865e-08
8.42362e-08
8.12101e-08
7.84108e-08
7.64201e-08
7.57322e-08
7.52729e-08
7.34597e-08
7.07955e-08
6.86353e-08
6.72836e-08
6.61585e-08
6.49706e-08
6.30544e-08
6.09624e-08
5.96007e-08
5.81093e-08
5.6407e-08
5.50776e-08
5.41295e-08
5.30742e-08
5.11999e-08
4.90105e-08
4.73023e-08
4.61928e-08
4.52599e-08
4.41665e-08
4.28427e-08
4.15818e-08
4.04948e-08
3.91133e-08
3.75897e-08
3.65168e-08
3.59661e-08
3.52946e-08
3.43266e-08
3.32556e-08
3.21613e-08
3.12689e-08
3.06852e-08
3.02006e-08
2.96296e-08
2.90393e-08
2.84132e-08
2.77706e-08
2.73802e-08
2.70929e-08
2.67869e-08
2.65553e-08
2.63547e-08
2.62307e-08
2.62028e-08
2.61503e-08
2.61184e-08
2.6187e-08
2.64455e-08
2.67448e-08
2.70109e-08
2.73012e-08
2.77325e-08
2.82979e-08
2.88901e-08
2.95668e-08
3.02831e-08
3.10733e-08
3.20429e-08
3.30714e-08
3.41382e-08
3.53554e-08
3.66282e-08
3.79532e-08
3.94383e-08
4.10864e-08
4.28321e-08
4.4767e-08
4.68685e-08
4.8994e-08
5.13234e-08
5.40053e-08
5.69409e-08
6.00881e-08
6.35564e-08
6.73738e-08
7.16105e-08
7.63475e-08
8.15663e-08
8.74046e-08
9.41066e-08
1.01717e-07
1.10274e-07
1.20015e-07
1.3099e-07
1.43526e-07
1.58437e-07
1.75904e-07
1.9644e-07
2.20917e-07
2.50846e-07
2.87299e-07
3.3074e-07
3.78798e-07
4.27559e-07
4.73595e-07
5.09083e-07
5.23928e-07
5.14346e-07
4.85988e-07
4.47261e-07
4.06808e-07
3.71255e-07
3.43013e-07
3.20347e-07
2.99868e-07
2.805e-07
2.63848e-07
2.51315e-07
2.41618e-07
2.32353e-07
2.23193e-07
2.15324e-07
2.0884e-07
2.03769e-07
1.99688e-07
1.95196e-07
1.91004e-07
1.88191e-07
1.86092e-07
1.83764e-07
1.81488e-07
1.7934e-07
1.78032e-07
1.77206e-07
1.76298e-07
1.75644e-07
1.75481e-07
1.75507e-07
1.75245e-07
1.74922e-07
1.75209e-07
1.7615e-07
1.76255e-07
1.76575e-07
1.76548e-07
1.77298e-07
1.77299e-07
1.78885e-07
1.79534e-07
1.81155e-07
1.79273e-07
1.80615e-07
1.79831e-07
1.82695e-07
1.85486e-07
1.91273e-07
1.80556e-07
1.85868e-07
1.72914e-07
1.81658e-07
2.15127e-07
2.41193e-07
2.7534e-07
2.10547e-07
2.08067e-07
1.33749e-07
1.29124e-07
2.01595e-07
2.15276e-07
2.30871e-07
2.91822e-07
7.21183e-08
6.57556e-08
1.8214e-07
2.17175e-07
1.7174e-07
1.46495e-07
1.33436e-07
1.25304e-07
1.92342e-07
1.83479e-07
2.01421e-07
1.61597e-07
1.70957e-07
2.1673e-07
2.67876e-07
2.51672e-07
3.6293e-07
2.50098e-07
2.54482e-07
2.28449e-07
2.36414e-07
2.44778e-07
2.07517e-07
2.24773e-07
1.80394e-07
1.81732e-07
1.62071e-07
1.71708e-07
2.01591e-07
2.31207e-07
1.9388e-07
2.22838e-07
6.69612e-08
8.21524e-08
2.66306e-07
5.79076e-08
6.78e-08
2.73019e-08
2.73682e-08
1.16228e-08
1.10984e-08
2.5126e-08
2.69323e-08
2.85361e-08
2.73242e-08
3.77756e-08
4.39372e-08
8.94497e-08
1.15269e-07
8.30364e-08
7.72132e-08
8.82597e-08
1.01641e-07
1.17856e-07
1.37098e-07
1.58323e-07
1.79862e-07
1.99797e-07
2.16542e-07
2.2777e-07
2.32218e-07
2.31197e-07
2.27418e-07
2.22538e-07
2.17286e-07
2.12065e-07
2.06218e-07
2.00571e-07
1.96264e-07
1.91365e-07
1.85057e-07
1.8154e-07
1.78888e-07
1.76286e-07
1.74296e-07
1.72916e-07
1.71492e-07
1.69621e-07
1.67576e-07
1.65182e-07
1.6281e-07
1.60744e-07
1.59243e-07
1.58248e-07
1.57466e-07
1.56791e-07
1.56171e-07
1.55725e-07
1.54971e-07
1.54059e-07
1.53209e-07
1.52586e-07
1.52263e-07
1.52091e-07
1.51831e-07
1.5132e-07
1.50633e-07
1.50073e-07
1.49934e-07
1.50237e-07
1.50636e-07
1.50667e-07
1.50215e-07
1.49474e-07
1.48695e-07
1.47977e-07
1.47325e-07
1.46949e-07
1.47287e-07
1.48524e-07
1.49362e-07
1.48525e-07
1.46936e-07
1.46602e-07
1.48472e-07
1.50292e-07
1.4897e-07
1.45868e-07
1.45245e-07
1.46624e-07
1.46233e-07
1.4401e-07
1.44568e-07
1.5209e-07
1.252e-07
2.11057e-07
7.87725e-08
1.65061e-07
6.00354e-08
1.99032e-07
2.16384e-09
4.28728e-09
6.69461e-09
5.52719e-09
5.1984e-09
5.23254e-09
5.46186e-09
5.28329e-09
4.70594e-09
3.30753e-09
2.81472e-09
3.88125e-09
8.13791e-09
1.66954e-08
1.34788e-08
1.01253e-08
1.2159e-08
1.8541e-08
2.61326e-08
3.30374e-08
3.71414e-08
3.77942e-08
3.48166e-08
2.93228e-08
2.47083e-08
2.10608e-08
1.8338e-08
1.66463e-08
1.45995e-08
1.27265e-08
1.20816e-08
1.27418e-08
1.39104e-08
1.32725e-08
1.17464e-08
1.06268e-08
1.03678e-08
1.06982e-08
1.11644e-08
1.23068e-08
1.44429e-08
1.75596e-08
1.86309e-08
1.54685e-08
1.25956e-08
1.36492e-08
1.91051e-08
2.94304e-08
3.61215e-08
2.12822e-08
1.47121e-08
1.71718e-08
3.30771e-08
9.92879e-08
1.16769e-07
4.6083e-08
3.92332e-08
5.07138e-08
3.51092e-08
2.1467e-08
1.81023e-08
1.72377e-08
1.71772e-08
1.29729e-08
1.16736e-08
1.60509e-08
2.4314e-08
2.61507e-08
1.59197e-08
1.40323e-08
1.33015e-08
9.847e-09
8.58692e-09
9.37787e-09
1.10351e-08
1.44629e-08
1.48512e-08
1.69633e-08
1.96803e-08
2.07474e-08
4.00686e-08
4.59889e-08
6.59338e-08
6.05282e-08
5.96577e-08
5.594e-08
5.28963e-08
5.03703e-08
4.87966e-08
4.44627e-08
1.66784e-08
1.48853e-08
1.53608e-08
1.3213e-08
1.9128e-08
1.10538e-08
1.41114e-08
1.34041e-08
5.4172e-09
6.20889e-09
6.33326e-09
5.00086e-09
6.93597e-09
9.76631e-09
8.68597e-09
6.13869e-09
7.43802e-09
4.95712e-09
3.49203e-09
1.90788e-09
1.91023e-09
1.29078e-09
1.1934e-09
1.55885e-09
1.72374e-09
2.51732e-09
2.67326e-09
4.49917e-09
4.4162e-09
8.10909e-09
1.46187e-08
5.53036e-08
1.82126e-08
9.93618e-09
8.69566e-09
9.57089e-09
7.51416e-09
8.84278e-09
3.77088e-09
2.99103e-09
5.16163e-09
7.08286e-09
1.06507e-08
9.79897e-09
2.27467e-08
2.08718e-08
1.61817e-08
3.6551e-08
1.25652e-07
8.12365e-08
4.11744e-08
4.30921e-08
5.05258e-08
5.44269e-08
4.90179e-08
4.09678e-08
3.54799e-08
3.29134e-08
3.06607e-08
2.80605e-08
2.52775e-08
2.2844e-08
2.0982e-08
1.96859e-08
1.85096e-08
1.72318e-08
1.60439e-08
1.51324e-08
1.44037e-08
1.36744e-08
1.2967e-08
1.23692e-08
1.19319e-08
1.15121e-08
1.10623e-08
1.06498e-08
1.03674e-08
1.01546e-08
9.93958e-09
9.72558e-09
9.57106e-09
9.4958e-09
9.41091e-09
9.35473e-09
9.34418e-09
9.34602e-09
9.38632e-09
9.43306e-09
9.46615e-09
9.59359e-09
9.78792e-09
9.9748e-09
1.01479e-08
1.03225e-08
1.05733e-08
1.08674e-08
1.12729e-08
1.18271e-08
1.23489e-08
1.28733e-08
1.34158e-08
1.38999e-08
1.45205e-08
1.53432e-08
1.6244e-08
1.71387e-08
1.79171e-08
1.86422e-08
1.95737e-08
2.07242e-08
2.20364e-08
2.32485e-08
2.42711e-08
2.54822e-08
2.70888e-08
2.90548e-08
3.09291e-08
3.26485e-08
3.4404e-08
3.64558e-08
3.91879e-08
4.26955e-08
4.59668e-08
4.87478e-08
5.21072e-08
5.65123e-08
6.165e-08
6.78076e-08
7.48041e-08
8.16556e-08
8.87836e-08
9.79568e-08
1.08997e-07
1.2107e-07
1.36835e-07
1.54971e-07
1.7505e-07
1.93441e-07
2.02899e-07
2.09164e-07
2.14732e-07
2.1143e-07
1.94577e-07
1.76601e-07
1.66682e-07
1.62704e-07
1.5728e-07
1.47689e-07
1.35939e-07
1.23681e-07
1.16539e-07
1.13836e-07
1.11684e-07
1.08354e-07
1.04346e-07
1.00046e-07
9.49485e-08
9.0454e-08
8.81133e-08
8.77884e-08
8.75647e-08
8.55401e-08