/*--------------------------------*- C++ -*----------------------------------*\
| =========                 |                                                 |
| \\      /  F ield         | OpenFOAM: The Open Source CFD Toolbox           |
|  \\    /   O peration     | Version:  v2006                                 |
|   \\  /    A nd           | Website:  www.openfoam.com                      |
|    \\/     M anipulation  |                                                 |
\*---------------------------------------------------------------------------*/
FoamFile
{
    version     2.0;
    format      ascii;
    class       volScalarField;
    location    "5";
    object      omega;
}
// * * * * * * * * * * * * * * * * * * * * * * * * * * * * * * * * * * * * * //

dimensions      [0 0 -1 0 0 0 0];


internalField   nonuniform List<scalar> 
33000
(
0.801308
0.801367
0.801422
0.801475
0.80153
0.801593
0.801668
0.801757
0.801863
0.80198
0.802104
0.802241
0.802412
0.802632
0.802908
0.803245
0.80364
0.804099
0.804673
0.805527
0.806844
0.808688
0.810924
0.813248
0.81535
0.817058
0.818349
0.81927
0.819899
0.820283
0.820518
0.820709
0.820891
0.821049
0.821152
0.821214
0.821277
0.821359
0.821432
0.821447
0.821411
0.821386
0.821433
0.821524
0.821579
0.821553
0.821455
0.821356
0.821309
0.821303
0.821277
0.821193
0.821074
0.820962
0.820866
0.820769
0.820664
0.820565
0.820492
0.820447
0.820366
0.820231
0.820042
0.819801
0.819498
0.819122
0.818663
0.818117
0.817496
0.81685
0.816195
0.81551
0.814796
0.814063
0.813341
0.812668
0.812083
0.811627
0.811371
0.81144
0.811888
0.812637
0.813457
0.814125
0.814429
0.814479
0.814445
0.814403
0.814308
0.814258
0.814153
0.813928
0.813584
0.813109
0.812525
0.811862
0.811168
0.810495
0.809916
0.809515
0.809426
0.809705
0.810152
0.810508
0.810527
0.8104
0.810404
0.810493
0.810509
0.810426
0.81035
0.810232
0.810119
0.809993
0.809811
0.809567
0.809302
0.809086
0.809011
0.809079
0.809113
0.809211
0.809195
0.809164
0.809218
0.80927
0.809299
0.809323
0.809333
0.80934
0.80935
0.80936
0.809369
0.809373
0.809373
0.809368
0.809362
0.809356
0.809349
0.809341
0.809333
0.80932
0.809306
0.809289
0.809273
0.809253
0.809231
0.80921
0.809189
0.80917
0.80915
0.809128
0.809106
0.809085
0.809065
0.809045
0.809023
0.808998
0.808974
0.80895
0.808926
0.808902
0.808877
0.808854
0.808829
0.808803
0.808777
0.808751
0.808724
0.808695
0.808665
0.808635
0.808606
0.808578
0.808548
0.80852
0.808494
0.808478
0.808478
0.808493
0.808521
0.808564
0.808621
0.808681
0.808736
0.808782
0.80882
0.80885
0.80887
0.808881
0.808883
0.808878
0.808866
0.808851
0.808834
0.808818
0.808801
0.808782
0.808763
0.808743
0.808726
0.808709
0.808692
0.808672
0.808652
0.808631
0.808613
0.808596
0.80858
0.808561
0.808542
0.808524
0.808508
0.808489
0.808468
0.808445
0.808424
0.808403
0.808383
0.80836
0.808333
0.808303
0.808271
0.808241
0.808213
0.808183
0.808151
0.808116
0.808082
0.808047
0.808015
0.807984
0.807952
0.807918
0.807883
0.807849
0.807816
0.807783
0.80775
0.807716
0.807682
0.807648
0.807615
0.80758
0.807543
0.807506
0.807471
0.807438
0.807401
0.807362
0.807324
0.807286
0.807249
0.80721
0.807171
0.807132
0.807091
0.807051
0.80701
0.806969
0.806929
0.806887
0.806844
0.8068
0.806758
0.806716
0.806674
0.806631
0.806586
0.806541
0.806496
0.806452
0.806409
0.806366
0.80632
0.806274
0.806227
0.806181
0.806135
0.806088
0.80604
0.805994
0.805948
0.805899
0.80585
0.805801
0.805752
0.805704
0.805655
0.805606
0.805555
0.805504
0.805452
0.8054
0.805349
0.805297
0.805243
0.805191
0.805143
0.805098
0.805057
0.805021
0.804988
0.80496
0.804936
0.804918
0.804905
0.804896
0.804893
0.804895
0.804902
0.804912
0.804923
0.804932
0.804939
0.804944
0.804947
0.804947
0.804945
0.804941
0.804935
0.804927
0.804916
0.804903
0.804888
0.804871
0.804852
0.804831
0.804809
0.804785
0.804759
0.804732
0.804704
0.804675
0.804645
0.804616
0.804587
0.804557
0.804527
0.804497
0.804467
0.804436
0.804406
0.804375
0.804344
0.804313
0.804282
0.80425
0.804218
0.804186
0.804154
0.804122
0.804089
0.804056
0.804024
0.803991
0.803958
0.803925
0.803891
0.803858
0.803825
0.803792
0.803759
0.803725
0.803692
0.803659
0.803626
0.803593
0.80356
0.803527
0.803494
0.803461
0.803429
0.803396
0.803364
0.803332
0.803299
0.803267
0.803236
0.803204
0.803172
0.803141
0.80311
0.803079
0.803048
0.803018
0.802987
0.802957
0.802927
0.802897
0.802868
0.802838
0.802809
0.80278
0.802751
0.802723
0.802695
0.802667
0.802639
0.802611
0.802584
0.802556
0.802529
0.802503
0.802476
0.80245
0.802424
0.802398
0.802372
0.802347
0.802322
0.802297
0.802273
0.802248
0.802224
0.8022
0.802176
0.802153
0.802129
0.802106
0.802083
0.80206
0.802038
0.802015
0.801988
0.801965
0.801948
0.801921
0.801913
0.801898
0.801918
0.801904
0.801902
0.801889
0.80188
0.801866
0.801854
0.80184
0.801826
0.801812
0.801798
0.801784
0.801767
0.801752
0.801739
0.801722
0.801714
0.801703
0.801707
0.801695
0.801688
0.801678
0.801668
0.801659
0.801649
0.801639
0.801629
0.801615
0.801603
0.801596
0.80158
0.801576
0.801562
0.801516
0.801506
0.801515
0.801473
0.801586
0.801624
0.802018
0.802094
0.802245
0.802324
0.802388
0.802437
0.802474
0.802501
0.802521
0.802536
0.802547
0.802556
0.802563
0.802568
0.802571
0.802573
0.802574
0.802574
0.802573
0.802572
0.80257
0.802568
0.802565
0.802562
0.802559
0.802556
0.802552
0.802547
0.802543
0.802538
0.802533
0.802528
0.802523
0.802517
0.802511
0.802505
0.802499
0.802493
0.802487
0.802481
0.802475
0.802469
0.802463
0.802457
0.802452
0.802447
0.802442
0.802437
0.802432
0.802426
0.802421
0.802416
0.802411
0.802406
0.802401
0.802396
0.802392
0.802387
0.802383
0.802378
0.802374
0.802371
0.802367
0.802364
0.802361
0.802358
0.802356
0.802353
0.802351
0.802349
0.802347
0.802345
0.802343
0.802342
0.80234
0.802338
0.802339
0.802342
0.80231
0.802283
0.802006
0.00139595
0.00187146
0.00338107
0.00844932
0.0220154
0.0513419
0.10304
0.180535
0.288064
0.43077
0.570509
0.642581
0.670765
0.691258
0.718107
0.75743
0.818775
0.906476
0.999785
1.05858
1.08027
1.07987
1.06514
1.03407
0.979574
0.903831
0.82153
0.746477
0.681073
0.625428
0.580758
0.547795
0.525425
0.510025
0.497866
0.486772
0.475811
0.465062
0.454117
0.442713
0.431538
0.422116
0.416122
0.412349
0.407461
0.400423
0.392018
0.384235
0.378749
0.37479
0.370105
0.363703
0.355798
0.347364
0.339289
0.332236
0.327047
0.32485
0.326758
0.332945
0.341344
0.348869
0.355741
0.364491
0.376564
0.390254
0.403561
0.418378
0.440374
0.474265
0.52302
0.584266
0.650787
0.71546
0.77455
0.832963
0.888542
0.942676
0.984134
1.03113
1.13472
1.22907
1.28344
1.31841
1.29718
1.20237
1.02663
0.754001
0.505644
0.330077
0.21763
0.158153
0.139865
0.144576
0.167869
0.205755
0.256374
0.323961
0.425842
0.539998
0.599827
0.665008
0.732221
0.713795
0.61628
0.454431
0.337207
0.234343
0.16913
0.139763
0.121824
0.110439
0.104842
0.107192
0.119195
0.139894
0.176398
0.201998
0.196884
0.188117
0.182042
0.162447
0.144757
0.1288
0.120878
0.111342
0.105402
0.100945
0.0992259
0.0985228
0.0984715
0.0987798
0.0992283
0.0998215
0.100641
0.10168
0.1027
0.103706
0.104661
0.105513
0.106206
0.106728
0.107316
0.108041
0.10851
0.108537
0.108626
0.109134
0.109852
0.110249
0.109944
0.109475
0.109404
0.10968
0.10987
0.109679
0.109133
0.108793
0.108732
0.108313
0.107467
0.1067
0.106309
0.10569
0.104365
0.102963
0.102092
0.101255
0.09955
0.0974338
0.0956875
0.0943436
0.0928909
0.0908689
0.0882993
0.0860096
0.0841752
0.0823132
0.0801988
0.0779474
0.0758093
0.0739176
0.0720416
0.0698158
0.0675832
0.0658625
0.0644692
0.0630338
0.061506
0.0599102
0.0583885
0.0569763
0.0557276
0.0545204
0.0533332
0.0521829
0.050995
0.0497483
0.0485993
0.0476921
0.0469742
0.0462064
0.0452825
0.0442606
0.0433039
0.0425475
0.0419377
0.041335
0.0406517
0.0399157
0.0392763
0.0387863
0.0383064
0.0376759
0.0369908
0.0364469
0.0360731
0.0357997
0.035493
0.0350438
0.0345129
0.0340504
0.0337669
0.033602
0.0334635
0.0332648
0.0330158
0.0327676
0.0325759
0.0324878
0.0324724
0.032455
0.0323802
0.0322601
0.032176
0.0321942
0.0322851
0.0323705
0.0324144
0.032442
0.0324876
0.0325593
0.032644
0.0327323
0.0328238
0.0329466
0.0331295
0.0332975
0.0333815
0.0334511
0.0335833
0.0337524
0.0339034
0.0340282
0.0341676
0.0342937
0.0343619
0.0344181
0.0345147
0.034624
0.0346929
0.0347098
0.0347368
0.0348197
0.0349355
0.0350293
0.0350611
0.0349951
0.0348761
0.0348167
0.0348548
0.0349493
0.0350313
0.0350346
0.034957
0.0348519
0.0347827
0.0347625
0.0347344
0.0346687
0.0346464
0.0346819
0.0346438
0.0345018
0.0343225
0.0341797
0.0341155
0.0341089
0.0340894
0.0340061
0.0338352
0.0336262
0.0334845
0.0334332
0.033394
0.0333063
0.0331709
0.0330096
0.0328619
0.0327507
0.0326552
0.032534
0.0323599
0.0321834
0.0320429
0.0319144
0.0317377
0.0314971
0.031309
0.0311704
0.0310229
0.0308307
0.0305992
0.030376
0.030182
0.0299977
0.0297837
0.0295465
0.0293297
0.0291358
0.0289416
0.0287097
0.0284505
0.0282412
0.0280679
0.0278724
0.0276284
0.0274011
0.0272256
0.0270694
0.0269099
0.0267328
0.0265375
0.0263455
0.0261719
0.0260206
0.0258916
0.0257749
0.0256517
0.0255179
0.0254119
0.0253494
0.0253088
0.0252694
0.0252098
0.0251344
0.025089
0.0250871
0.025108
0.0251055
0.0250801
0.0250914
0.0251422
0.0252013
0.0252373
0.025257
0.0253028
0.0253626
0.0253956
0.0253991
0.0254135
0.0254405
0.0254632
0.0254783
0.0254692
0.0254518
0.0254506
0.025454
0.0254515
0.025436
0.0253953
0.025341
0.025297
0.0252614
0.0252121
0.0251542
0.0251074
0.0250647
0.0250212
0.0249618
0.0248769
0.0247867
0.0247109
0.0246475
0.02459
0.0245211
0.0244415
0.0243496
0.0242501
0.0241781
0.0241054
0.0239915
0.0238703
0.0238047
0.023721
0.0236128
0.0235292
0.0234487
0.0233493
0.0232314
0.0231154
0.0229992
0.0229043
0.0228136
0.0227232
0.0226229
0.0225208
0.0223849
0.0222842
0.0221897
0.022098
0.0219894
0.0218646
0.0217672
0.0216296
0.0215446
0.0214156
0.0212761
0.0211421
0.0210879
0.0209084
0.0209551
0.0206887
0.0203358
0.0203195
0.0204164
0.0203156
0.021485
0.0230602
0.027511
0.0285432
0.0246303
0.023162
0.0218348
0.0212465
0.0208634
0.0207255
0.0205331
0.0203415
0.0200961
0.0199298
0.019097
0.0190001
0.0198757
0.0193318
0.0206301
0.0222576
0.0252879
0.0254824
0.0225289
0.02191
0.0207226
0.0203756
0.0199129
0.0197351
0.0191965
0.0192088
0.0188334
0.0185797
0.0184699
0.018589
0.0181805
0.0199217
0.0199849
0.0191153
0.0253653
0.0350454
0.0445054
0.0661267
0.0656386
0.0521579
0.0412671
0.0337589
0.0292547
0.0263931
0.0245893
0.0234235
0.0226542
0.0221557
0.0217974
0.0214998
0.0212546
0.0210713
0.0209458
0.0208545
0.0207688
0.0206749
0.0205767
0.0204889
0.0204181
0.0203655
0.02032
0.0202776
0.02023
0.0201518
0.0200996
0.0200376
0.0199592
0.0198719
0.0197722
0.0196642
0.0195602
0.0194694
0.0193918
0.0193255
0.0192805
0.0192573
0.019211
0.0191837
0.0191697
0.019163
0.0191641
0.0191693
0.0191704
0.0191607
0.0191376
0.0190966
0.019044
0.0189842
0.0189231
0.01887
0.0188402
0.0188434
0.0188684
0.0188803
0.0188482
0.0187706
0.0187076
0.0187256
0.0188157
0.0189201
0.0189315
0.0188026
0.0186997
0.0187375
0.0188421
0.0188516
0.0186797
0.0185409
0.0185561
0.0185956
0.0185185
0.0184185
0.0184608
0.0185967
0.0185855
0.0184323
0.0184627
0.0177811
0.0131193
0.00120141
0.00132952
0.00186151
0.00391184
0.00968768
0.0225214
0.0459497
0.0823565
0.130915
0.184128
0.223542
0.243754
0.261028
0.291508
0.343333
0.420949
0.523305
0.63388
0.737382
0.808558
0.833517
0.819151
0.774672
0.709181
0.633536
0.558365
0.490454
0.432065
0.382561
0.341244
0.308222
0.283248
0.266319
0.25524
0.246675
0.239015
0.231206
0.22305
0.214749
0.206243
0.197783
0.19048
0.18548
0.182118
0.178157
0.173255
0.167747
0.162498
0.158768
0.156267
0.153367
0.149413
0.144455
0.138819
0.133025
0.127677
0.123438
0.121022
0.121144
0.123661
0.127575
0.13211
0.13768
0.145386
0.154943
0.163537
0.16958
0.174262
0.180638
0.192876
0.212119
0.235647
0.259657
0.283497
0.306139
0.330762
0.36239
0.412897
0.492506
0.570326
0.666802
0.760813
0.836455
0.903857
0.9277
0.904572
0.826936
0.707805
0.575016
0.453424
0.328526
0.221419
0.14156
0.0872561
0.0597564
0.0526372
0.0574056
0.0691158
0.0908218
0.130352
0.163899
0.196057
0.226803
0.23072
0.219641
0.211276
0.187988
0.146377
0.0950853
0.0601076
0.0415377
0.029313
0.0225546
0.0181814
0.0163908
0.0169679
0.0215692
0.0281942
0.0305211
0.0315956
0.0318037
0.0290436
0.0261098
0.0250512
0.0219682
0.0189905
0.0163887
0.0150395
0.0139142
0.013261
0.01274
0.0125429
0.012518
0.0126768
0.0128844
0.0131075
0.0133029
0.0134974
0.0136903
0.0138708
0.0140368
0.014188
0.0143476
0.0145054
0.0145948
0.0146082
0.0146472
0.0147621
0.0148902
0.0149287
0.0148429
0.0147473
0.0147285
0.0147613
0.0147419
0.0146439
0.0145053
0.0144187
0.0143729
0.0142513
0.0140418
0.01384
0.0137099
0.0135437
0.0132463
0.0129339
0.0127231
0.012516
0.012163
0.0117289
0.0113586
0.0110661
0.0107531
0.0103574
0.00988498
0.00945075
0.00909149
0.00873844
0.00835836
0.007985
0.00763682
0.0073149
0.00699567
0.00664703
0.00631641
0.00604942
0.00582852
0.00562143
0.00541451
0.00520167
0.00499736
0.00480411
0.00463048
0.00447171
0.00432695
0.00419411
0.00405888
0.00391624
0.00378323
0.00367686
0.00359245
0.00350715
0.00340932
0.00330585
0.00321138
0.00313415
0.0030688
0.00300423
0.00293489
0.00286562
0.00280528
0.00275489
0.00270415
0.00264524
0.00258546
0.00253618
0.00249906
0.0024693
0.00243915
0.00240182
0.00235969
0.00232121
0.00229443
0.00227583
0.00226088
0.00224484
0.00222643
0.00220716
0.00219137
0.00218265
0.00217966
0.00217759
0.00217202
0.00216277
0.00215587
0.00215659
0.00216269
0.00216898
0.00217275
0.00217476
0.00217742
0.00218243
0.00218898
0.00219533
0.00220184
0.00221155
0.00222639
0.00224084
0.00224952
0.00225637
0.00226678
0.00228
0.0022928
0.00230401
0.0023158
0.00232694
0.00233505
0.00234294
0.0023525
0.00236073
0.00236485
0.00236626
0.00237035
0.0023786
0.00238882
0.00239706
0.00239914
0.00239365
0.0023853
0.00238164
0.00238468
0.00239054
0.00239499
0.00239542
0.00239172
0.00238522
0.00237882
0.00237449
0.00237064
0.00236597
0.00236422
0.00236647
0.00236343
0.00235237
0.00233901
0.00232882
0.00232346
0.0023211
0.00231835
0.00231202
0.00230005
0.00228584
0.00227546
0.00227007
0.00226506
0.00225745
0.00224774
0.00223702
0.00222606
0.0022158
0.00220651
0.00219627
0.00218372
0.00217099
0.002159
0.00214714
0.00213326
0.00211623
0.00210217
0.00209032
0.00207739
0.00206225
0.00204569
0.00202911
0.0020137
0.0019989
0.00198296
0.00196631
0.00195047
0.00193539
0.00192027
0.0019038
0.00188664
0.001872
0.00185841
0.00184352
0.0018269
0.00181159
0.0017988
0.00178686
0.00177468
0.00176194
0.00174896
0.00173642
0.0017248
0.00171431
0.00170519
0.00169699
0.00168892
0.00168088
0.00167414
0.0016694
0.00166608
0.00166307
0.00165955
0.00165602
0.00165425
0.00165445
0.00165565
0.00165635
0.00165668
0.00165878
0.00166244
0.00166656
0.00167023
0.0016735
0.00167739
0.00168143
0.0016847
0.0016873
0.00169024
0.00169265
0.00169435
0.00169619
0.00169724
0.00169795
0.00169892
0.00169948
0.00169983
0.00169976
0.00169848
0.00169648
0.00169464
0.00169323
0.00169136
0.001689
0.0016867
0.00168411
0.00168165
0.00167886
0.00167507
0.00167073
0.00166681
0.00166352
0.00166045
0.00165638
0.00165191
0.00164726
0.00164229
0.00163808
0.00163364
0.00162805
0.0016224
0.00161865
0.00161369
0.00160806
0.0016032
0.00159853
0.00159345
0.00158771
0.00158182
0.00157597
0.00157078
0.00156564
0.00156042
0.00155518
0.00155005
0.00154343
0.001538
0.00153294
0.00152821
0.00152147
0.00151524
0.0015089
0.00150229
0.0014982
0.00149218
0.0014876
0.00148482
0.00147865
0.0014709
0.00147548
0.00146623
0.00148177
0.00150134
0.00150954
0.00152573
0.0015781
0.00160568
0.00172778
0.00172068
0.00159136
0.00154004
0.00149955
0.00147542
0.00146495
0.00145798
0.00145051
0.00143129
0.00142621
0.00144279
0.0014341
0.00145429
0.00148406
0.00150425
0.00153732
0.00154409
0.00161055
0.00158994
0.00150732
0.0014835
0.00144521
0.00143219
0.00141754
0.00140665
0.00138746
0.0014067
0.00140033
0.00141759
0.00145665
0.00153537
0.00154276
0.00182166
0.00188068
0.00193783
0.00240334
0.00310272
0.00360864
0.00496013
0.00423143
0.00309507
0.00244943
0.00206463
0.00184783
0.00171725
0.00163574
0.00158214
0.00154609
0.00152197
0.00150381
0.00148912
0.00147744
0.00146855
0.00146163
0.00145565
0.00144994
0.00144435
0.00143959
0.00143571
0.00143293
0.00143115
0.00142958
0.00142783
0.00142555
0.00142286
0.00141971
0.00141633
0.001413
0.0014096
0.00140582
0.00140191
0.00139832
0.00139519
0.0013923
0.00138942
0.00138673
0.00138452
0.00138301
0.0013818
0.00138115
0.00138094
0.00138092
0.00138075
0.0013802
0.0013792
0.00137792
0.00137638
0.00137454
0.00137231
0.00136976
0.00136743
0.00136602
0.00136606
0.00136717
0.00136803
0.00136742
0.00136568
0.00136487
0.00136608
0.00136912
0.00137113
0.00136934
0.00136591
0.00136506
0.00136726
0.00136885
0.00136655
0.00136206
0.00136113
0.00136224
0.00136143
0.0013587
0.00135865
0.00136081
0.00136428
0.00137015
0.00138445
0.00141136
0.00141465
0.00124081
0.00119602
0.00126615
0.00151452
0.00250777
0.00530331
0.0114691
0.0226821
0.0402815
0.0641358
0.090348
0.109694
0.120579
0.131906
0.152347
0.186834
0.233925
0.287679
0.341278
0.389224
0.425459
0.442188
0.430265
0.397308
0.354134
0.308843
0.266484
0.229305
0.198762
0.17442
0.155433
0.140498
0.128914
0.120497
0.114857
0.110621
0.106639
0.102653
0.0985188
0.0940445
0.0893026
0.0846584
0.0806014
0.0777076
0.0756723
0.07359
0.0710996
0.0683142
0.0656821
0.0637975
0.0626318
0.0613427
0.0595718
0.057437
0.0550047
0.0523732
0.0497348
0.0473523
0.0456023
0.0449227
0.0452543
0.0462885
0.0480493
0.0508619
0.0551514
0.0602675
0.0648046
0.0685388
0.072247
0.0765032
0.0819779
0.0898398
0.10023
0.112554
0.125685
0.138393
0.150298
0.163382
0.180347
0.208193
0.248031
0.311458
0.40104
0.488978
0.571235
0.619486
0.632865
0.620746
0.581413
0.520931
0.449292
0.381381
0.317827
0.259887
0.198596
0.140557
0.0952419
0.0601284
0.0392851
0.0304413
0.0295971
0.0315595
0.0365812
0.0464073
0.0535008
0.0582098
0.0634891
0.0638059
0.0620216
0.0634292
0.0736997
0.0690556
0.0532217
0.033938
0.0209557
0.0128978
0.00883404
0.00641339
0.00537006
0.00490657
0.00514496
0.00570116
0.00589865
0.00605706
0.00634091
0.0062011
0.00644542
0.00684556
0.00612549
0.0052084
0.00435613
0.00383843
0.00342926
0.00319555
0.0030216
0.00297114
0.00299322
0.00301283
0.00305422
0.00308406
0.00310084
0.00311891
0.0031444
0.00317524
0.00320466
0.00322201
0.00322779
0.0032377
0.00325743
0.00327513
0.00327774
0.00326697
0.00325922
0.00325921
0.00326048
0.00325068
0.00323134
0.0032093
0.00319397
0.00318241
0.00316123
0.00312707
0.00308867
0.00305588
0.00301999
0.00296964
0.0029169
0.00287351
0.00282844
0.00276887
0.00269734
0.00263066
0.00257571
0.00252049
0.0024573
0.00238629
0.00231716
0.00225638
0.00220117
0.0021468
0.00209339
0.00204179
0.00199335
0.00194732
0.00190221
0.00186039
0.00182366
0.00179155
0.00176254
0.00173515
0.00170887
0.00168428
0.00166064
0.00163801
0.00161698
0.00159838
0.00158251
0.00156794
0.00155266
0.0015367
0.0015221
0.00151019
0.00149999
0.00148942
0.00147744
0.00146509
0.00145383
0.00144431
0.00143605
0.00142769
0.00141854
0.00140899
0.00140011
0.00139253
0.00138524
0.00137684
0.00136813
0.0013602
0.00135315
0.00134685
0.00134112
0.00133505
0.00132794
0.00132047
0.0013138
0.00130873
0.00130498
0.0013012
0.00129637
0.00129084
0.00128563
0.00128143
0.00127837
0.00127548
0.00127186
0.00126832
0.00126558
0.00126299
0.00125997
0.00125693
0.00125464
0.00125324
0.00125222
0.00125089
0.0012488
0.00124653
0.00124487
0.00124422
0.00124434
0.00124442
0.00124402
0.00124335
0.00124266
0.00124216
0.00124192
0.00124222
0.00124299
0.001243
0.0012423
0.00124195
0.00124214
0.00124225
0.00124188
0.00124154
0.00124128
0.00124141
0.0012419
0.00124164
0.00124085
0.00124027
0.00123979
0.00123908
0.00123806
0.00123726
0.00123692
0.00123689
0.00123648
0.00123536
0.0012339
0.0012327
0.00123178
0.00123078
0.00123
0.00122941
0.0012283
0.00122635
0.00122446
0.00122286
0.00122133
0.00122027
0.00121926
0.00121744
0.00121522
0.00121317
0.00121106
0.001209
0.0012073
0.00120526
0.00120291
0.00120045
0.00119787
0.00119537
0.00119278
0.0011899
0.00118692
0.00118406
0.00118128
0.00117815
0.00117469
0.00117135
0.00116832
0.00116514
0.00116174
0.00115821
0.00115454
0.00115113
0.00114781
0.00114428
0.00114067
0.00113718
0.00113375
0.00113028
0.00112686
0.00112352
0.00112019
0.00111695
0.00111367
0.00111037
0.00110733
0.00110445
0.00110157
0.00109871
0.00109596
0.00109335
0.00109085
0.00108844
0.00108618
0.00108414
0.00108226
0.00108048
0.00107881
0.00107727
0.00107589
0.00107467
0.00107359
0.00107263
0.00107184
0.00107131
0.00107096
0.00107068
0.0010705
0.00107035
0.00107024
0.00107035
0.00107067
0.00107108
0.00107143
0.00107168
0.00107191
0.00107223
0.00107265
0.00107307
0.00107332
0.00107342
0.0010736
0.00107387
0.00107408
0.00107411
0.00107405
0.00107408
0.00107414
0.00107413
0.00107403
0.00107382
0.00107361
0.00107348
0.00107331
0.00107299
0.0010726
0.0010723
0.00107201
0.00107167
0.00107122
0.00107074
0.0010703
0.00106984
0.0010693
0.00106875
0.00106823
0.00106769
0.00106709
0.00106642
0.00106581
0.00106523
0.00106464
0.00106402
0.00106339
0.00106267
0.00106199
0.00106133
0.00106076
0.00106009
0.00105941
0.00105867
0.00105791
0.00105711
0.00105676
0.00105602
0.00105545
0.0010544
0.00105295
0.00105184
0.00105092
0.00105211
0.00105161
0.00105343
0.00105281
0.00105243
0.0010523
0.00105706
0.00106228
0.00108864
0.00109183
0.00106908
0.0010633
0.00106152
0.00105951
0.00105417
0.00105364
0.00104951
0.00105069
0.00105073
0.00104776
0.00104645
0.0010497
0.00104922
0.00105185
0.00105489
0.00106119
0.00107084
0.00106998
0.00105804
0.00105484
0.00105147
0.00104819
0.00104269
0.00104101
0.00104343
0.00104256
0.00104195
0.00103985
0.00104289
0.00104139
0.00106925
0.00105652
0.0010414
0.00109056
0.00110543
0.00120024
0.00125122
0.00145822
0.0014482
0.00125739
0.0012368
0.00122595
0.00120574
0.00119458
0.00119617
0.0011597
0.00118895
0.00116419
0.00112626
0.00109923
0.0010815
0.00106934
0.00106046
0.0010539
0.001049
0.00104532
0.00104244
0.00104017
0.00103842
0.00103706
0.00103599
0.00103512
0.00103439
0.00103378
0.00103328
0.0010329
0.00103255
0.00103231
0.00103232
0.00103226
0.00103215
0.00103207
0.00103196
0.0010318
0.00103164
0.00103151
0.0010314
0.0010313
0.00103122
0.00103114
0.00103104
0.00103094
0.00103084
0.00103075
0.00103067
0.00103058
0.0010305
0.00103045
0.0010304
0.00103036
0.00103031
0.00103024
0.00103015
0.00103006
0.00102996
0.00102986
0.00102976
0.00102964
0.00102951
0.00102939
0.00102931
0.00102925
0.00102919
0.00102911
0.00102902
0.00102897
0.00102897
0.00102896
0.00102893
0.00102884
0.00102875
0.00102874
0.00102873
0.00102867
0.00102851
0.00102842
0.00102839
0.00102831
0.00102822
0.00102822
0.00102824
0.00102825
0.0010313
0.00104118
0.00106533
0.00109958
0.001127
0.00105428
0.00119484
0.0012398
0.00136505
0.00190108
0.00341357
0.00673233
0.012772
0.0223991
0.0358169
0.0509691
0.0619167
0.0671616
0.0718441
0.0806838
0.0947685
0.112278
0.129588
0.144474
0.156014
0.163247
0.165383
0.161863
0.152356
0.138737
0.123446
0.1083
0.0952403
0.0845414
0.0760452
0.0692086
0.0634911
0.0586924
0.0549603
0.0523992
0.0506148
0.0490448
0.0472364
0.0451231
0.0428517
0.0405665
0.0384129
0.0365431
0.0350621
0.0339109
0.0328808
0.0317257
0.0304844
0.0293411
0.0284832
0.0279136
0.0273751
0.0266427
0.0257468
0.0247569
0.0236764
0.0225022
0.0212729
0.0202059
0.0195139
0.0191936
0.0192133
0.0196633
0.0207459
0.0225941
0.0248457
0.0270157
0.0291298
0.0313444
0.0337387
0.0364294
0.0400927
0.0453939
0.0521248
0.0594305
0.0666783
0.0733987
0.0802827
0.0880775
0.0982315
0.113746
0.137161
0.174048
0.217043
0.268937
0.319672
0.355447
0.376123
0.382334
0.368665
0.342025
0.313092
0.280837
0.248125
0.217636
0.186526
0.155731
0.12144
0.0884329
0.062219
0.040646
0.026452
0.0186628
0.0150205
0.0134155
0.0135273
0.0154837
0.0173941
0.0195784
0.022785
0.0296118
0.0350047
0.0437426
0.0560607
0.0559391
0.0449434
0.0288381
0.0175929
0.010415
0.00674709
0.00445869
0.00331835
0.00277523
0.00269562
0.00284482
0.0030022
0.00317711
0.00346443
0.00363226
0.00419561
0.00473756
0.00431989
0.00367919
0.00304876
0.0026259
0.002285
0.00209691
0.00201144
0.00193778
0.00191041
0.00190124
0.0018976
0.00189041
0.00188658
0.00189072
0.00189738
0.00190003
0.0019006
0.00190146
0.00190321
0.00190497
0.00190634
0.00190676
0.00190575
0.0019034
0.00190153
0.00190061
0.00189842
0.00189356
0.00188772
0.00188243
0.00187659
0.00186833
0.00185772
0.00184688
0.00183618
0.00182438
0.00181063
0.00179617
0.001782
0.00176736
0.00175133
0.00173487
0.0017199
0.001705
0.00168887
0.0016729
0.0016577
0.00164356
0.00163037
0.00161593
0.00160086
0.00158755
0.0015761
0.00156546
0.00155439
0.00154316
0.00153165
0.00151997
0.00151014
0.00150211
0.00149463
0.00148752
0.00147987
0.00147099
0.00146224
0.00145492
0.00144915
0.00144395
0.00143781
0.00143063
0.00142375
0.00141806
0.00141313
0.00140746
0.0014007
0.00139403
0.00138854
0.00138371
0.00137836
0.001372
0.00136521
0.00135918
0.00135453
0.00135016
0.00134447
0.00133755
0.00133065
0.00132461
0.00131988
0.00131593
0.0013112
0.00130493
0.00129823
0.0012926
0.00128819
0.00128434
0.00128039
0.00127618
0.00127173
0.00126682
0.00126183
0.00125772
0.00125476
0.00125214
0.00124886
0.00124503
0.00124141
0.00123824
0.00123538
0.0012332
0.00123153
0.00122927
0.00122649
0.00122386
0.00122157
0.00121956
0.00121824
0.00121789
0.00121743
0.001216
0.00121418
0.00121282
0.00121209
0.00121129
0.0012104
0.00121003
0.00120958
0.00120863
0.00120788
0.001208
0.0012082
0.00120745
0.0012063
0.00120519
0.00120458
0.00120477
0.00120481
0.00120442
0.00120394
0.00120303
0.00120182
0.00120091
0.00120062
0.00120027
0.00119952
0.00119894
0.00119849
0.00119753
0.0011962
0.00119505
0.00119426
0.00119356
0.00119305
0.00119219
0.0011906
0.00118878
0.00118759
0.00118686
0.00118577
0.00118431
0.0011826
0.00118102
0.00117964
0.00117801
0.00117621
0.00117455
0.00117253
0.00117051
0.00116871
0.00116666
0.00116448
0.00116218
0.00115973
0.00115738
0.00115503
0.00115265
0.00115007
0.00114731
0.00114448
0.00114182
0.00113919
0.00113629
0.00113334
0.00113042
0.00112754
0.00112462
0.0011216
0.00111861
0.00111574
0.00111286
0.00110992
0.00110695
0.00110405
0.00110124
0.00109853
0.00109577
0.00109298
0.00109034
0.00108786
0.00108544
0.00108302
0.00108067
0.00107842
0.00107631
0.00107435
0.00107242
0.00107059
0.00106891
0.00106733
0.00106586
0.00106455
0.00106337
0.00106226
0.00106126
0.0010604
0.00105967
0.00105908
0.00105863
0.00105826
0.00105797
0.00105775
0.00105759
0.00105753
0.00105759
0.00105772
0.00105786
0.00105798
0.0010581
0.0010582
0.00105836
0.00105857
0.00105874
0.00105884
0.00105891
0.00105901
0.00105907
0.00105909
0.00105911
0.00105909
0.00105903
0.001059
0.00105895
0.00105884
0.00105866
0.0010585
0.00105834
0.00105814
0.00105792
0.00105767
0.00105738
0.00105709
0.00105678
0.00105645
0.00105607
0.00105569
0.00105532
0.00105491
0.00105448
0.00105403
0.00105356
0.00105311
0.00105266
0.00105219
0.00105169
0.00105125
0.00105077
0.00105034
0.00104981
0.0010493
0.00104875
0.00104822
0.00104765
0.00104744
0.00104686
0.0010465
0.00104571
0.00104442
0.00104346
0.00104542
0.00104517
0.00104387
0.00104602
0.00104561
0.00104456
0.00104458
0.00104955
0.00105594
0.00108448
0.00108829
0.00106344
0.00105764
0.00105455
0.00105067
0.00104434
0.00104234
0.00103839
0.00103791
0.00103773
0.00103815
0.0010379
0.00104238
0.00104282
0.00104843
0.001053
0.00106701
0.00106678
0.00105672
0.00105021
0.00104731
0.00104438
0.00103961
0.00103348
0.001031
0.00103396
0.00103199
0.00103252
0.00103099
0.00103204
0.00103269
0.00106256
0.0010574
0.00108628
0.0010922
0.00116881
0.00121554
0.00131185
0.00148877
0.00147686
0.00126973
0.00123936
0.00121563
0.00117764
0.00113099
0.00110026
0.00105992
0.00104886
0.00105548
0.00105937
0.00106073
0.00106023
0.00105727
0.00105339
0.00104962
0.00104608
0.00104277
0.00103974
0.00103708
0.00103482
0.00103295
0.00103137
0.00103007
0.00102899
0.00102816
0.00102752
0.00102704
0.00102655
0.00102608
0.00102569
0.00102542
0.00102519
0.00102499
0.00102488
0.00102481
0.00102472
0.00102465
0.00102459
0.00102453
0.00102445
0.00102437
0.00102432
0.00102428
0.00102424
0.00102421
0.00102418
0.00102415
0.00102412
0.00102407
0.00102402
0.00102396
0.0010239
0.00102385
0.00102381
0.00102377
0.00102373
0.00102367
0.0010236
0.00102353
0.00102348
0.00102344
0.0010234
0.00102331
0.0010232
0.00102308
0.00102298
0.00102289
0.00102282
0.00102275
0.00102269
0.00102264
0.00102259
0.00102254
0.0010225
0.00102247
0.00102244
0.0010224
0.00102232
0.00102223
0.00102215
0.00102204
0.001022
0.00102203
0.00102202
0.00102185
0.00102195
0.00102516
0.00103508
0.00105963
0.00109429
0.00112232
0.00105114
0.00119538
0.00123106
0.0013068
0.00165643
0.00264097
0.00478737
0.00869393
0.0149677
0.0238442
0.0339712
0.0411983
0.0444758
0.0469067
0.0509202
0.0569035
0.0631417
0.0673799
0.0693224
0.0694826
0.0682424
0.0658655
0.0625557
0.058588
0.0542915
0.0499114
0.0456198
0.0416977
0.03838
0.0356245
0.0331906
0.0309327
0.0289107
0.0272618
0.0260307
0.0251606
0.0244141
0.0235525
0.0225976
0.0216324
0.0206629
0.0197097
0.0188685
0.0182141
0.0177609
0.0174192
0.0170284
0.0165602
0.0160586
0.0155851
0.0152319
0.0150119
0.0148033
0.0145105
0.0141292
0.0136608
0.0130821
0.0124255
0.011825
0.0113632
0.0110432
0.0108623
0.0108884
0.0112418
0.0119734
0.0129335
0.0139192
0.0149323
0.0160178
0.0171532
0.0184225
0.0200686
0.0224758
0.0258436
0.0296905
0.0334587
0.037021
0.0406258
0.0448401
0.0498119
0.0560659
0.0641228
0.0750774
0.0900366
0.10926
0.13395
0.155916
0.173849
0.190995
0.202895
0.207796
0.207556
0.200896
0.190273
0.180724
0.169072
0.155103
0.139777
0.121853
0.1031
0.0814588
0.0606898
0.0438099
0.0294388
0.0194882
0.0135381
0.0101572
0.0085564
0.0081595
0.00885773
0.0113739
0.0150075
0.0203053
0.0283666
0.0341192
0.0410436
0.0485339
0.048276
0.0406224
0.0270329
0.0165097
0.00954909
0.00608005
0.00400785
0.00300048
0.00254074
0.00246367
0.00256753
0.00272361
0.00291996
0.00324052
0.00346713
0.00410675
0.00465428
0.00433511
0.00367738
0.00310434
0.00265966
0.00236032
0.00209702
0.00193508
0.0018339
0.00180496
0.00179072
0.00177919
0.00176843
0.00176409
0.00176472
0.00176369
0.00176048
0.00176053
0.00176271
0.00176278
0.0017602
0.00175814
0.00175848
0.00176085
0.0017619
0.00175912