/*--------------------------------*- C++ -*----------------------------------*\
| =========                 |                                                 |
| \\      /  F ield         | OpenFOAM: The Open Source CFD Toolbox           |
|  \\    /   O peration     | Version:  v2006                                 |
|   \\  /    A nd           | Website:  www.openfoam.com                      |
|    \\/     M anipulation  |                                                 |
\*---------------------------------------------------------------------------*/
FoamFile
{
    version     2.0;
    format      ascii;
    class       volScalarField;
    location    "5";
    object      p;
}
// * * * * * * * * * * * * * * * * * * * * * * * * * * * * * * * * * * * * * //

dimensions      [1 -1 -2 0 0 0 0];


internalField   nonuniform List<scalar> 
33000
(
8119.51
8131.51
8141.06
8149.49
8157.84
8166.23
8174.65
8183.06
8191.44
8199.84
8208.29
8216.8
8225.16
8233.23
8240.63
8247.08
8252.61
8257.7
8263.4
8270.59
8278.37
8286.28
8293.82
8300.77
8307.59
8314.21
8320.67
8327.03
8333.29
8339.46
8345.53
8351.49
8357.37
8363.13
8368.79
8374.37
8379.86
8385.24
8390.52
8395.74
8400.89
8405.9
8410.81
8415.61
8420.28
8424.92
8429.46
8433.9
8438.23
8442.47
8446.58
8450.63
8454.61
8458.49
8462.27
8465.95
8469.56
8473.07
8476.5
8479.86
8483.1
8486.3
8489.44
8492.52
8495.53
8498.53
8501.48
8504.36
8507.27
8510.17
8513.1
8516.09
8519.31
8522.79
8526.53
8530.65
8535.32
8538.74
8531.29
8508.38
8526.37
8527.23
8523.96
8526.76
8527.06
8523.88
8525.99
8525.77
8526.44
8525.98
8526
8525.94
8525.76
8525.89
8526.6
8527.1
8528.95
8529.67
8535.17
8532.46
8520.42
8516.89
8512.28
8507.5
8503.85
8498.47
8492.24
8485.86
8479.94
8474.29
8467.86
8461.54
8454.76
8447.54
8440.53
8432.74
8427.75
8418.07
8403.05
8392.2
8379.66
8366.25
8352.93
8338.38
8322.52
8306.43
8289.68
8272.31
8254.54
8236.13
8217.12
8197.67
8177.73
8157.38
8136.66
8115.59
8094.18
8072.44
8050.4
8028.1
8005.59
7982.91
7960.12
7937.23
7914.33
7891.46
7868.68
7846.01
7823.52
7801.26
7779.29
7757.66
7736.38
7715.51
7695.08
7675.15
7655.75
7636.9
7618.62
7600.95
7583.91
7567.51
7551.76
7536.68
7522.28
7508.56
7495.51
7483.12
7471.4
7460.33
7449.88
7440.03
7430.77
7422.07
7413.89
7406.19
7398.94
7392.11
7385.66
7379.56
7373.76
7368.24
7362.96
7357.89
7353.05
7348.46
7344.15
7340.16
7336.49
7333.17
7330.19
7327.59
7325.35
7323.5
7322.04
7320.96
7320.27
7319.96
7320.02
7320.46
7321.27
7322.45
7323.98
7325.87
7328.1
7330.64
7333.5
7336.67
7340.14
7343.89
7347.91
7352.18
7356.7
7361.46
7366.44
7371.63
7377
7382.56
7388.28
7394.17
7400.21
7406.38
7412.66
7419.05
7425.54
7432.11
7438.77
7445.49
7452.28
7459.1
7465.96
7472.85
7479.76
7486.68
7493.61
7500.54
7507.45
7514.35
7521.22
7528.07
7534.89
7541.66
7548.4
7555.09
7561.73
7568.32
7574.85
7581.31
7587.72
7594.07
7600.35
7606.56
7612.69
7618.76
7624.75
7630.67
7636.52
7642.29
7647.98
7653.6
7659.13
7664.59
7669.96
7675.26
7680.47
7685.59
7690.64
7695.6
7700.48
7705.27
7709.98
7714.6
7719.13
7723.57
7727.92
7732.19
7736.37
7740.45
7744.45
7748.35
7752.16
7755.88
7759.5
7763.04
7766.48
7769.83
7773.08
7776.24
7779.31
7782.28
7785.16
7787.96
7790.67
7793.28
7795.81
7798.26
7800.62
7802.9
7805.11
7807.24
7809.29
7811.28
7813.2
7815.05
7816.85
7818.58
7820.27
7821.9
7823.49
7825.04
7826.54
7828.01
7829.44
7830.84
7832.19
7833.49
7834.73
7835.92
7837.06
7838.13
7839.14
7840.09
7840.97
7841.78
7842.52
7843.2
7843.8
7844.34
7844.81
7845.21
7845.55
7845.82
7846.02
7846.16
7846.24
7846.26
7846.22
7846.12
7845.97
7845.77
7845.52
7845.22
7844.87
7844.49
7844.06
7843.6
7843.1
7842.56
7842
7841.4
7840.78
7840.14
7839.48
7838.79
7838.08
7837.36
7836.63
7835.88
7835.12
7834.36
7833.58
7832.8
7832.01
7831.22
7830.43
7829.63
7828.83
7828.04
7827.25
7826.45
7825.67
7824.88
7824.1
7823.32
7822.55
7821.79
7821.03
7820.28
7819.53
7818.79
7818.06
7817.34
7816.62
7815.91
7815.21
7814.52
7813.84
7813.16
7812.5
7811.84
7811.19
7810.54
7809.91
7809.28
7808.66
7808.05
7807.44
7806.85
7806.26
7805.68
7805.1
7804.54
7803.98
7803.42
7802.88
7802.34
7801.8
7801.28
7800.76
7800.24
7799.73
7799.23
7798.73
7798.23
7797.74
7797.26
7796.78
7796.31
7795.84
7795.38
7794.92
7794.46
7794.02
7793.57
7793.13
7792.72
7792.29
7791.87
7791.49
7790.99
7790.63
7790.37
7790
7789.67
7789.3
7788.93
7788.56
7788.17
7787.79
7787.4
7787.01
7786.61
7786.22
7785.83
7785.44
7785.04
7784.66
7784.23
7783.85
7783.55
7783.17
7782.83
7782.44
7782.08
7781.68
7781.3
7780.9
7780.52
7780.11
7779.73
7779.32
7778.94
7778.52
7778.15
7777.78
7777.4
7777.02
7776.69
7776.14
7775.91
7775.67
7775.39
7775.1
7774.79
7774.46
7774.14
7773.8
7773.46
7773.11
7772.76
7772.4
7772.05
7771.68
7771.32
7770.96
7770.59
7770.22
7769.85
7769.48
7769.1
7768.73
7768.35
7767.98
7767.6
7767.22
7766.84
7766.47
7766.09
7765.71
7765.33
7764.95
7764.57
7764.19
7763.81
7763.43
7763.05
7762.67
7762.29
7761.91
7761.53
7761.15
7760.77
7760.39
7760.01
7759.63
7759.26
7758.88
7758.51
7758.13
7757.76
7757.38
7757.01
7756.63
7756.26
7755.89
7755.52
7755.15
7754.78
7754.41
7754.05
7753.68
7753.31
7752.95
7752.58
7752.22
7751.86
7751.5
7751.14
7750.78
7750.42
7750.06
7749.7
7749.35
7748.99
7748.64
7748.28
7747.95
7747.56
7747.26
7746.79
7923.39
7935.4
7944.95
7953.38
7961.73
7970.1
7978.49
7986.87
7995.22
8003.56
8011.72
8019.91
8027.84
8035.25
8042.05
8048.13
8053.47
8058.5
8064.33
8071.29
8080.14
8089.18
8097.39
8104.78
8111.73
8118.36
8124.83
8131.17
8137.42
8143.57
8149.6
8155.59
8161.49
8167.23
8172.88
8178.46
8183.95
8189.35
8194.65
8199.86
8204.98
8209.98
8214.92
8219.73
8224.39
8229.02
8233.55
8237.96
8242.32
8246.56
8250.65
8254.7
8258.65
8262.52
8266.31
8270
8273.59
8277.09
8280.53
8283.89
8287.14
8290.33
8293.46
8296.51
8299.52
8302.48
8305.38
8308.2
8311.07
8313.86
8316.67
8319.48
8322.36
8325.14
8327.81
8330.3
8332.47
8334.29
8335.82
8340.33
8345.19
8335.9
8308.91
8329.61
8332.19
8328.29
8332.2
8330.96
8330.83
8327.67
8329.01
8328.98
8328.83
8328.98
8328.9
8328.65
8329.05
8328.73
8329.12
8327.27
8325.1
8329.55
8324.71
8309.19
8304.41
8298.69
8294.81
8289.83
8286.33
8280.76
8273.01
8265.9
8258.45
8250.89
8243.55
8235.58
8227.29
8218.17
8207.74
8200.78
8188.66
8170.35
8156.66
8141.7
8126.5
8111.4
8094.97
8077.22
8059.15
8040.54
8021.49
8002.16
7982.26
7961.9
7941.1
7919.95
7898.49
7876.7
7854.65
7832.33
7809.79
7787.06
7764.2
7741.26
7718.3
7695.38
7672.53
7649.8
7627.25
7604.94
7582.92
7561.22
7539.89
7518.96
7498.49
7478.53
7459.09
7440.2
7421.89
7404.19
7387.13
7370.72
7354.96
7339.88
7325.47
7311.75
7298.69
7286.31
7274.59
7263.52
7253.07
7243.23
7233.97
7225.27
7217.09
7209.4
7202.15
7195.33
7188.88
7182.77
7176.96
7171.43
7166.14
7161.07
7156.23
7151.64
7147.33
7143.32
7139.65
7136.32
7133.35
7130.75
7128.52
7126.67
7125.21
7124.13
7123.44
7123.14
7123.22
7123.67
7124.5
7125.69
7127.25
7129.14
7131.38
7133.94
7136.82
7140.01
7143.5
7147.26
7151.3
7155.6
7160.14
7164.92
7169.91
7175.12
7180.51
7186.08
7191.83
7197.73
7203.78
7209.97
7216.27
7222.68
7229.18
7235.78
7242.45
7249.18
7255.98
7262.81
7269.69
7276.59
7283.51
7290.45
7297.38
7304.32
7311.24
7318.15
7325.03
7331.88
7338.7
7345.49
7352.23
7358.93
7365.57
7372.16
7378.69
7385.17
7391.58
7397.93
7404.21
7410.42
7416.56
7422.62
7428.62
7434.54
7440.39
7446.16
7451.85
7457.46
7463
7468.45
7473.83
7479.12
7484.33
7489.46
7494.5
7499.46
7504.34
7509.13
7513.84
7518.46
7522.99
7527.43
7531.79
7536.05
7540.23
7544.31
7548.31
7552.21
7556.02
7559.74
7563.36
7566.89
7570.33
7573.68
7576.93
7580.09
7583.16
7586.14
7589.02
7591.82
7594.52
7597.14
7599.67
7602.12
7604.48
7606.76
7608.97
7611.1
7613.15
7615.14
7617.06
7618.92
7620.71
7622.45
7624.14
7625.78
7627.37
7628.91
7630.42
7631.9
7633.33
7634.73
7636.08
7637.38
7638.63
7639.82
7640.96
7642.04
7643.05
7644
7644.88
7645.69
7646.43
7647.11
7647.72
7648.25
7648.72
7649.12
7649.45
7649.72
7649.92
7650.06
7650.14
7650.15
7650.11
7650.01
7649.86
7649.66
7649.4
7649.1
7648.75
7648.36
7647.93
7647.46
7646.96
7646.42
7645.86
7645.26
7644.64
7643.99
7643.32
7642.63
7641.92
7641.2
7640.46
7639.71
7638.95
7638.18
7637.41
7636.62
7635.83
7635.04
7634.24
7633.45
7632.65
7631.85
7631.06
7630.27
7629.48
7628.69
7627.91
7627.13
7626.36
7625.59
7624.83
7624.08
7623.33
7622.59
7621.86
7621.14
7620.42
7619.72
7619.02
7618.32
7617.64
7616.96
7616.3
7615.64
7614.98
7614.34
7613.71
7613.08
7612.46
7611.85
7611.24
7610.65
7610.06
7609.47
7608.9
7608.33
7607.77
7607.22
7606.68
7606.13
7605.6
7605.08
7604.55
7604.04
7603.53
7603.03
7602.53
7602.04
7601.54
7601.06
7600.58
7600.11
7599.63
7599.18
7598.7
7598.26
7597.83
7597.39
7596.94
7596.52
7595.99
7595.58
7595.32
7594.92
7594.59
7594.23
7593.87
7593.51
7593.13
7592.76
7592.37
7591.99
7591.59
7591.21
7590.82
7590.43
7590.02
7589.64
7589.18
7588.8
7588.48
7588.11
7587.75
7587.39
7587.01
7586.65
7586.26
7585.88
7585.49
7585.11
7584.72
7584.31
7583.93
7583.5
7583.13
7582.73
7582.37
7581.95
7581.59
7580.99
7580.71
7580.48
7580.17
7579.87
7579.56
7579.25
7578.94
7578.62
7578.29
7577.95
7577.61
7577.27
7576.92
7576.57
7576.21
7575.85
7575.49
7575.13
7574.76
7574.39
7574.02
7573.65
7573.28
7572.91
7572.53
7572.16
7571.78
7571.4
7571.02
7570.65
7570.27
7569.89
7569.51
7569.13
7568.75
7568.37
7567.99
7567.61
7567.22
7566.84
7566.46
7566.08
7565.7
7565.32
7564.95
7564.57
7564.19
7563.81
7563.43
7563.06
7562.68
7562.3
7561.93
7561.55
7561.18
7560.81
7560.43
7560.06
7559.69
7559.32
7558.95
7558.58
7558.21
7557.84
7557.48
7557.11
7556.75
7556.38
7556.02
7555.66
7555.29
7554.93
7554.57
7554.21
7553.86
7553.5
7553.14
7552.79
7552.43
7552.08
7551.74
7551.35
7551.06
7550.58
7727.34
7739.37
7748.92
7757.37
7765.72
7774.07
7782.44
7790.78
7799.05
7807.28
7815.34
7823.26
7831.01
7838.43
7845.35
7851.92
7858.2
7864.55
7871.19
7878.48
7886.13
7893.96
7901.57
7908.93
7915.82
7922.47
7928.98
7935.38
7941.66
7947.82
7953.89
7959.88
7965.78
7971.56
7977.21
7982.8
7988.29
7993.7
7999.02
8004.23
8009.32
8014.32
8019.25
8024.06
8028.75
8033.38
8037.89
8042.27
8046.62
8050.86
8054.95
8058.99
8062.95
8066.8
8070.57
8074.26
8077.84
8081.34
8084.79
8088.12
8091.37
8094.57
8097.68
8100.7
8103.64
8106.54
8109.34
8112.13
8114.94
8117.6
8120.26
8122.9
8125.45
8127.88
8130.21
8132.41
8134.29
8135.78
8136.52
8136.33
8136.77
8138.15
8142.78
8148.48
8139.56
8110.41
8130.99
8136.16
8136.66
8134.25
8135.14
8134.84
8130.68
8131.93
8132.05
8131.35
8131.59
8130.57
8129.82
8128.15
8124.71
8122.42
8119.3
8116.66
8122.64
8115.78
8098.15
8090.75
8084.69
8080.34
8074.99
8071.03
8064.48
8056.16
8047.55
8038.83
8030.12
8020.79
8010.26
7999.15
7987.8
7975.48
7967.04
7952.82
7931.79
7915.92
7898.79
7881.64
7864.77
7846.55
7827.07
7807.35
7787.16
7766.75
7746.01
7725.02
7703.59
7681.73
7659.52
7637.06
7614.39
7591.56
7568.59
7545.53
7522.44
7499.39
7476.41
7453.55
7430.89
7408.47
7386.33
7364.51
7343.07
7322.04
7301.49
7281.44
7261.93
7242.96
7224.59
7206.84
7189.73
7173.28
7157.5
7142.39
7127.97
7114.24
7101.18
7088.8
7077.08
7066.01
7055.58
7045.74
7036.49
7027.78
7019.59
7011.89
7004.64
6997.8
6991.34
6985.21
6979.39
6973.85
6968.55
6963.49
6958.65
6954.07
6949.77
6945.77
6942.1
6938.77
6935.81
6933.21
6930.99
6929.16
6927.71
6926.64
6925.97
6925.69
6925.8
6926.28
6927.14
6928.36
6929.94
6931.86
6934.13
6936.73
6939.66
6942.88
6946.4
6950.2
6954.28
6958.61
6963.19
6968.01
6973.04
6978.28
6983.71
6989.33
6995.11
7001.05
7007.13
7013.35
7019.68
7026.13
7032.67
7039.29
7045.99
7052.75
7059.57
7066.43
7073.33
7080.26
7087.21
7094.16
7101.12
7108.07
7115.01
7121.93
7128.83
7135.7
7142.54
7149.34
7156.09
7162.8
7169.45
7176.05
7182.59
7189.07
7195.49
7201.84
7208.12
7214.33
7220.48
7226.55
7232.55
7238.47
7244.32
7250.09
7255.78
7261.39
7266.93
7272.38
7277.76
7283.05
7288.26
7293.39
7298.43
7303.39
7308.27
7313.06
7317.76
7322.38
7326.91
7331.35
7335.71
7339.97
7344.14
7348.23
7352.22
7356.12
7359.93
7363.65
7367.27
7370.81
7374.24
7377.59
7380.84
7384
7387.07
7390.05
7392.93
7395.73
7398.43
7401.05
7403.58
7406.03
7408.4
7410.68
7412.89
7415.02
7417.08
7419.07
7421
7422.86
7424.66
7426.4
7428.09
7429.74
7431.33
7432.89
7434.4
7435.88
7437.32
7438.72
7440.07
7441.38
7442.63
7443.83
7444.97
7446.05
7447.07
7448.02
7448.9
7449.71
7450.46
7451.13
7451.74
7452.28
7452.74
7453.14
7453.47
7453.73
7453.93
7454.07
7454.14
7454.15
7454.1
7454
7453.84
7453.63
7453.37
7453.06
7452.71
7452.31
7451.87
7451.4
7450.89
7450.34
7449.77
7449.17
7448.54
7447.89
7447.21
7446.52
7445.8
7445.08
7444.33
7443.58
7442.81
7442.04
7441.26
7440.47
7439.67
7438.88
7438.08
7437.28
7436.48
7435.68
7434.88
7434.09
7433.29
7432.51
7431.72
7430.94
7430.17
7429.4
7428.64
7427.89
7427.14
7426.4
7425.67
7424.94
7424.23
7423.52
7422.82
7422.12
7421.44
7420.76
7420.1
7419.44
7418.78
7418.14
7417.5
7416.88
7416.26
7415.65
7415.04
7414.44
7413.86
7413.27
7412.7
7412.13
7411.57
7411.02
7410.47
7409.93
7409.4
7408.88
7408.36
7407.84
7407.33
7406.82
7406.33
7405.83
7405.35
7404.85
7404.38
7403.89
7403.43
7402.98
7402.53
7402.06
7401.62
7401.07
7400.65
7400.37
7399.97
7399.61
7399.22
7398.84
7398.45
7398.09
7397.71
7397.34
7396.95
7396.58
7396.21
7395.82
7395.44
7395.02
7394.64
7394.17
7393.8
7393.48
7393.11
7392.74
7392.37
7391.99
7391.61
7391.24
7390.85
7390.49
7390.09
7389.73
7389.3
7388.93
7388.49
7388.13
7387.72
7387.36
7386.93
7386.55
7385.93
7385.65
7385.4
7385.08
7384.75
7384.42
7384.08
7383.76
7383.44
7383.11
7382.79
7382.46
7382.12
7381.78
7381.44
7381.09
7380.74
7380.38
7380.02
7379.66
7379.3
7378.94
7378.57
7378.2
7377.83
7377.46
7377.09
7376.71
7376.34
7375.96
7375.58
7375.21
7374.83
7374.45
7374.07
7373.69
7373.31
7372.93
7372.55
7372.17
7371.79
7371.4
7371.02
7370.64
7370.26
7369.88
7369.5
7369.12
7368.74
7368.36
7367.99
7367.61
7367.23
7366.85
7366.48
7366.1
7365.72
7365.35
7364.98
7364.6
7364.23
7363.86
7363.49
7363.11
7362.74
7362.38
7362.01
7361.64
7361.27
7360.91
7360.54
7360.18
7359.81
7359.45
7359.09
7358.73
7358.37
7358.01
7357.65
7357.29
7356.94
7356.58
7356.23
7355.87
7355.54
7355.15
7354.86
7354.38
7531.39
7543.45
7553.01
7561.46
7569.82
7578.17
7586.52
7594.85
7603.06
7611.2
7619.19
7626.99
7634.66
7642.12
7649.39
7656.55
7663.39
7670.28
7677.26
7684.53
7691.85
7699.24
7706.46
7713.5
7720.33
7726.99
7733.51
7739.91
7746.2
7752.37
7758.44
7764.42
7770.32
7776.11
7781.8
7787.39
7792.9
7798.29
7803.59
7808.8
7813.88
7818.87
7823.79
7828.59
7833.31
7837.92
7842.42
7846.81
7851.14
7855.37
7859.48
7863.51
7867.46
7871.3
7875.06
7878.72
7882.29
7885.79
7889.24
7892.57
7895.8
7898.96
7902.04
7905.07
7907.93
7910.75
7913.49
7916.24
7918.91
7921.48
7923.93
7926.39
7928.74
7930.94
7933
7934.88
7936.5
7937.74
7938.8
7939.7
7940.35
7940.57
7939.78
7939
7938.4
7941.92
7950.07
7954.32
7944.01
7913.23
7935.86
7938.36
7935.1
7936.57
7935.3
7931.2
7932.12
7931.16
7929.56
7928.16
7925.4
7923.26
7919.89
7914.74
7910.76
7905.24
7903.05
7900.91
7906.2
7900.49
7880.2
7873.03
7865.15
7858.37
7852.87
7844.72
7834.52
7824.03
7813.24
7802.5
7790.99
7778.35
7764.94
7751.64
7737.32
7727.48
7711.31
7687.76
7669.94
7650.92
7631.99
7613.58
7593.77
7572.84
7551.66
7530.26
7508.72
7486.78
7464.68
7442.2
7419.41
7396.36
7373.21
7349.97
7326.72
7303.48
7280.31
7257.27
7234.43
7211.83
7189.52
7167.53
7145.93
7124.76
7104.08
7083.9
7064.26
7045.2
7026.74
7008.92
6991.74
6975.23
6959.41
6944.27
6929.82
6916.06
6902.98
6890.59
6878.86
6867.78
6857.33
6847.49
6838.21
6829.49
6821.27
6813.55
6806.28
6799.41
6792.91
6786.76
6780.93
6775.37
6770.07
6765.01
6760.21
6755.65
6751.38
6747.41
6743.76
6740.45
6737.5
6734.92
6732.73
6730.92
6729.5
6728.47
6727.83
6727.58
6727.73
6728.25
6729.15
6730.42
6732.04
6734.02
6736.35
6739.01
6741.98
6745.27
6748.84
6752.7
6756.83
6761.23
6765.87
6770.74
6775.83
6781.13
6786.61
6792.29
6798.13
6804.12
6810.25
6816.52
6822.9
6829.39
6835.98
6842.66
6849.4
6856.2
6863.06
6869.96
6876.9
6883.86
6890.84
6897.83
6904.82
6911.8
6918.77
6925.72
6932.64
6939.53
6946.39
6953.21
6959.98
6966.7
6973.36
6979.97
6986.53
6993.02
6999.45
7005.8
7012.09
7018.31
7024.46
7030.53
7036.54
7042.46
7048.31
7054.08
7059.77
7065.39
7070.92
7076.38
7081.75
7087.04
7092.25
7097.38
7102.42
7107.38
7112.25
7117.04
7121.74
7126.36
7130.89
7135.33
7139.69
7143.95
7148.12
7152.2
7156.19
7160.09
7163.9
7167.62
7171.25
7174.78
7178.21
7181.56
7184.81
7187.97
7191.04
7194.02
7196.9
7199.7
7202.41
7205.03
7207.56
7210.02
7212.39
7214.68
7216.89
7219.03
7221.09
7223.09
7225.02
7226.89
7228.7
7230.45
7232.15
7233.8
7235.41
7236.97
7238.49
7239.98
7241.42
7242.82
7244.18
7245.49
7246.75
7247.96
7249.1
7250.18
7251.2
7252.15
7253.04
7253.85
7254.6
7255.27
7255.88
7256.41
7256.88
7257.27
7257.6
7257.86
7258.05
7258.18
7258.24
7258.24
7258.19
7258.08
7257.91
7257.69
7257.42
7257.1
7256.74
7256.33
7255.88
7255.4
7254.88
7254.33
7253.74
7253.13
7252.49
7251.83
7251.15
7250.44
7249.72
7248.99
7248.24
7247.47
7246.7
7245.92
7245.13
7244.34
7243.54
7242.74
7241.93
7241.13
7240.32
7239.52
7238.72
7237.92
7237.12
7236.33
7235.54
7234.76
7233.99
7233.22
7232.45
7231.7
7230.95
7230.21
7229.47
7228.75
7228.03
7227.32
7226.62
7225.92
7225.24
7224.56
7223.89
7223.23
7222.58
7221.94
7221.3
7220.67
7220.05
7219.44
7218.84
7218.24
7217.65
7217.07
7216.49
7215.93
7215.37
7214.81
7214.27
7213.73
7213.2
7212.67
7212.15
7211.65
7211.13
7210.64
7210.12
7209.64
7209.13
7208.66
7208.19
7207.73
7207.24
7206.79
7206.2
7205.77
7205.49
7205.07
7204.7
7204.29
7203.89
7203.49
7203.12
7202.72
7202.35
7201.96
7201.58
7201.22
7200.83
7200.46
7200.04
7199.66
7199.18
7198.81
7198.5
7198.13
7197.76
7197.38
7196.99
7196.62
7196.23
7195.86
7195.46
7195.09
7194.69
7194.32
7193.89
7193.52
7193.15
7192.76
7192.38
7191.96
7191.56
7190.93
7190.64
7190.38
7190.05
7189.71
7189.36
7189.01
7188.66
7188.33
7187.99
7187.66
7187.32
7186.99
7186.65
7186.31
7185.97
7185.62
7185.27
7184.92
7184.57
7184.21
7183.85
7183.48
7183.12
7182.75
7182.38
7182.01
7181.64
7181.27
7180.9
7180.52
7180.14
7179.77
7179.39
7179.01
7178.63
7178.25
7177.87
7177.49
7177.11
7176.73
7176.35
7175.97
7175.59
7175.2
7174.82
7174.44
7174.06
7173.68
7173.3
7172.92
7172.54
7172.16
7171.78
7171.4
7171.03
7170.65
7170.27
7169.9
7169.52
7169.14
7168.77
7168.4
7168.02
7167.65
7167.28
7166.91
7166.54
7166.17
7165.8
7165.43
7165.07
7164.7
7164.33
7163.97
7163.61
7163.24
7162.88
7162.52
7162.16
7161.8
7161.44
7161.09
7160.73
7160.37
7160.02
7159.66
7159.33
7158.94
7158.65
7158.17
7335.52
7347.62
7357.2
7365.67
7374.04
7382.39
7390.74
7399.06
7407.28
7415.4
7423.35
7431.14
7438.82
7446.42
7453.92
7461.19
7468.33
7475.5
7482.65
7489.82
7496.99
7504.11
7511.17
7518.11
7524.9
7531.57
7538.12
7544.54
7550.86
7557.06
7563.15
7569.15
7575.06
7580.85
7586.56
7592.18
7597.68
7603.07
7608.37
7613.56
7618.64
7623.63
7628.54
7633.35
7638.06
7642.66
7647.16
7651.55
7655.87
7660.09
7664.22
7668.25
7672.17
7675.99
7679.74
7683.39
7686.96
7690.45
7693.87
7697.17
7700.38
7703.5
7706.55
7709.51
7712.36
7715.13
7717.82
7720.44
7722.98
7725.46
7727.8
7730.08
7732.27
7734.29
7736.13
7737.81
7739.31
7740.63
7741.79
7742.68
7743.23
7743.68
7744.09
7744.48
7744.91
7745.16
7745.24
7744.96
7744.84
7751.06
7758.62
7748.26
7711.93
7737.33
7740.8
7735.39
7736.43
7734.44
7729.11
7729.04
7726.78
7723.78
7721.23
7717.51
7714.37
7710.32
7704.96
7700.55
7695.4
7692.08
7687.69
7694.71
7686.38
7662.81
7654.07
7644.71
7636.48
7629.36
7619.19
7606.86
7594.13
7581.3
7568.51
7555.06
7540.39
7524.98
7509.75
7493.5
7482.28
7464.25
7438.44
7418.99
7398.16
7378.02
7357.53
7337.41
7316.07
7293.37
7270.7
7247.75
7224.67
7201.56
7178.24
7154.73
7131.16
7107.65
7084.21
7060.95
7037.86
7015.01
6992.45
6970.24
6948.43
6927.07
6906.19
6885.84
6866.04
6846.83
6828.26
6810.32
6793.05
6776.45
6760.56
6745.37
6730.86
6717.06
6703.95
6691.53
6679.77
6668.66
6658.17
6648.3
6638.99
6630.22
6621.97
6614.2
6606.88
6599.97
6593.45
6587.27
6581.41
6575.85
6570.56
6565.53
6560.76
6556.26
6552.04
6548.12
6544.53
6541.26
6538.36
6535.82
6533.66
6531.9
6530.53
6529.55
6528.97
6528.77
6528.97
6529.56
6530.53
6531.87
6533.56
6535.61
6538.01
6540.75
6543.8
6547.16
6550.81
6554.75
6558.96
6563.44
6568.16
6573.11
6578.27
6583.65
6589.21
6594.96
6600.87
6606.94
6613.14
6619.47
6625.92
6632.48
6639.14
6645.87
6652.67
6659.54
6666.45
6673.4
6680.39
6687.4
6694.43
6701.46
6708.49
6715.51
6722.52
6729.5
6736.45
6743.38
6750.26
6757.1
6763.89
6770.63
6777.32
6783.95
6790.52
6797.02
6803.46
6809.82
6816.12
6822.35
6828.5
6834.58
6840.58
6846.51
6852.36
6858.14
6863.83
6869.45
6874.98
6880.43
6885.8
6891.09
6896.3
6901.43
6906.47
6911.43
6916.3
6921.09
6925.79
6930.4
6934.93
6939.37
6943.72
6947.99
6952.16
6956.24
6960.23
6964.13
6967.94
6971.65
6975.28
6978.81
6982.24
6985.59
6988.84
6992.01
6995.08
6998.05
7000.94
7003.74
7006.46
7009.08
7011.62
7014.08
7016.46
7018.75
7020.98
7023.12
7025.2
7027.2
7029.15
7031.03
7032.85
7034.61
7036.33
7037.99
7039.61
7041.18
7042.72
7044.21
7045.66
7047.07
7048.43
7049.74
7051.01
7052.21
7053.36
7054.45
7055.47
7056.42
7057.31
7058.12
7058.87
7059.54
7060.14
7060.67
7061.13
7061.52
7061.84
7062.09
7062.28
7062.39
7062.45
7062.44
7062.37
7062.25
7062.07
7061.84
7061.55
7061.22
7060.85
7060.43
7059.97
7059.47
7058.94
7058.37
7057.77
7057.15
7056.5
7055.82
7055.13
7054.41
7053.68
7052.93
7052.17
7051.4
7050.62
7049.83
7049.03
7048.23
7047.42
7046.61
7045.8
7044.99
7044.18
7043.37
7042.56
7041.76
7040.96
7040.16
7039.37
7038.59
7037.81
7037.03
7036.27
7035.51
7034.76
7034.01
7033.28
7032.55
7031.83
7031.12
7030.42
7029.72
7029.04
7028.36
7027.69
7027.03
7026.38
7025.74
7025.1
7024.47
7023.85
7023.24
7022.63
7022.04
7021.45
7020.87
7020.29
7019.73
7019.16
7018.61
7018.07
7017.53
7017.01
7016.48
7015.96
7015.43
7014.93
7014.41
7013.92
7013.44
7012.97
7012.46
7011.99
7011.38
7010.94
7010.65
7010.22
7009.84
7009.42
7009.01
7008.59
7008.21
7007.8
7007.42
7007.01
7006.63
7006.24
7005.86
7005.45
7005.07
7004.6
7004.22
7003.94
7003.55
7003.21
7002.81
7002.45
7002.04
7001.67
7001.27
7000.9
7000.51
7000.13
6999.73
6999.35
6998.93
6998.56
6998.19
6997.79
6997.46
6997
6996.6
6995.96
6995.67
6995.41
6995.07
6994.71
6994.35
6993.99
6993.63
6993.28
6992.94
6992.59
6992.24
6991.9
6991.55
6991.21
6990.87
6990.52
6990.17
6989.82
6989.47
6989.12
6988.76
6988.4
6988.04
6987.67
6987.31
6986.94
6986.57
6986.2
6985.83
6985.46
6985.08
6984.71
6984.33
6983.95
6983.57
6983.2
6982.82
6982.44
6982.06
6981.67
6981.29
6980.91
6980.53
6980.15
6979.77
6979.38
6979
6978.62
6978.24
6977.86
6977.48
6977.1
6976.72
6976.34
6975.96
6975.58
6975.2
6974.82
6974.44
6974.07
6973.69
6973.31
6972.94
6972.56
6972.19
6971.82
6971.44
6971.07
6970.7
6970.33
6969.96
6969.59
6969.22
6968.86
6968.49
6968.13
6967.76
6967.4
6967.03
6966.67
6966.31
6965.95
6965.59
6965.23
6964.88
6964.52
6964.17
6963.81
6963.45
6963.12
6962.73
6962.44
6961.96
7139.76
7151.91
7161.51
7170
7178.38
7186.75
7195.11
7203.43
7211.66
7219.79
7227.73
7235.54
7243.27
7250.95
7258.57
7265.92
7273.19
7280.49
7287.72
7294.91
7302.06
7309.14
7316.14
7323.03
7329.8
7336.46
7343
7349.43
7355.76
7361.97
7368.08
7374.1
7380.01
7385.81
7391.52
7397.15
7402.65
7408.05
7413.35
7418.55
7423.62
7428.61
7433.51
7438.33
7443.04
7447.63
7452.12
7456.51
7460.81
7465.02
7469.15
7473.18
7477.11
7480.89
7484.62
7488.28
7491.83
7495.31
7498.69
7501.97
7505.16
7508.25
7511.27
7514.19
7517.01
7519.72
7522.33
7524.86
7527.29
7529.64
7531.9
7534.03
7536.05
7537.98
7539.69
7541.25
7542.67
7543.92
7544.98
7545.89
7546.61
7547.18
7547.65
7547.96
7548.22
7548.25
7548.36
7548.65
7548.73
7548.38
7547.49
7546.73
7552.13
7559.67
7548.53
7510.04
7536.02
7540.15
7532.27
7532.29
7529.6
7522.1
7521.03
7517.78
7513.74
7509.69
7505.81
7501.62
7497.89
7493.75
7487.45
7481.76
7475.83
7470.34
7477.26
7467.1
7440.28
7429.7
7418.7
7408.66
7399.82
7387.66
7373.21
7358.32
7343.51
7328.78
7313.49
7296.8
7279.58
7262.52
7244.55
7232.13
7212.37
7184.97
7163.49
7141.92
7120.66
7098.58
7077.29
7054.54
7030.79
7006.96
6983.2
6959.41
6935.73
6911.96
6888.17
6864.54
6841.14
6817.99
6795.14
6772.65
6750.57
6728.95
6707.83
6687.25
6667.24
6647.85
6629.11
6611.02
6593.62
6576.92
6560.92
6545.62
6531.04
6517.17
6504
6491.51
6479.69
6468.51
6457.96
6448.02
6438.65
6429.82
6421.51
6413.68
6406.3
6399.35
6392.79
6386.59
6380.72
6375.16
6369.9
6364.91
6360.2
6355.78
6351.64
6347.81
6344.29
6341.11
6338.28
6335.81
6333.73
6332.04
6330.75
6329.85
6329.34
6329.23
6329.51
6330.19
6331.25
6332.68
6334.47
6336.62
6339.11
6341.93
6345.08
6348.54
6352.3
6356.34
6360.66
6365.24
6370.06
6375.1
6380.37
6385.84
6391.5
6397.34
6403.35
6409.5
6415.8
6422.22
6428.76
6435.39
6442.13
6448.94
6455.81
6462.75
6469.74
6476.76
6483.81
6490.88
6497.96
6505.05
6512.13
6519.2
6526.25
6533.28
6540.27
6547.23
6554.15
6561.02
6567.84
6574.61
6581.32
6587.97
6594.55
6601.07
6607.52
6613.9
6620.21
6626.44
6632.61
6638.69
6644.7
6650.63
6656.48
6662.26
6667.95
6673.57
6679.1
6684.55
6689.92
6695.21
6700.41
6705.54
6710.58
6715.54
6720.41
6725.19
6729.89
6734.51
6739.03
6743.47
6747.82
6752.08
6756.26
6760.34
6764.33
6768.22
6772.03
6775.75
6779.37
6782.91
6786.34
6789.69
6792.95
6796.11
6799.19
6802.17
6805.06
6807.87
6810.59
6813.22
6815.77
6818.24
6820.62
6822.93
6825.17
6827.33
6829.42
6831.44
6833.4
6835.29
6837.13
6838.91
6840.64
6842.32
6843.95
6845.54
6847.08
6848.59
6850.04
6851.46
6852.82
6854.14
6855.41
6856.62
6857.77
6858.85
6859.87
6860.83
6861.71
6862.53
6863.27
6863.94
6864.54
6865.06
6865.52
6865.9
6866.21
6866.45
6866.62
6866.73
6866.77
6866.74
6866.66
6866.52
6866.33
6866.08
6865.78
6865.43
6865.04
6864.6
6864.12
6863.61
6863.06
6862.47
6861.86
6861.22
6860.55
6859.86
6859.15
6858.42
6857.68
6856.92
6856.14
6855.36
6854.56
6853.76
6852.95
6852.14
6851.33
6850.51
6849.69
6848.87
6848.05
6847.23
6846.42
6845.61
6844.8
6844
6843.21
6842.42
6841.63
6840.86
6840.09
6839.32
6838.57
6837.82
6837.09
6836.36
6835.64
6834.92
6834.22
6833.52
6832.84
6832.16
6831.49
6830.83
6830.18
6829.53
6828.89
6828.26
6827.64
6827.03
6826.43
6825.83
6825.24
6824.65
6824.08
6823.51
6822.96
6822.4
6821.86
6821.31
6820.78
6820.24
6819.73
6819.26
6818.75
6818.28
6817.73
6817.27
6816.62
6816.17
6815.88
6815.44
6815.05
6814.61
6814.19
6813.76
6813.37
6812.94
6812.55
6812.13
6811.74
6811.34
6810.95
6810.53
6810.14
6809.67
6809.28
6809.01
6808.62
6808.29
6807.88
6807.52
6807.11
6806.74
6806.34
6805.97
6805.57
6805.19
6804.78
6804.41
6803.97
6803.61
6803.2
6802.84
6802.42
6802.03
6801.39
6801.11
6800.84
6800.51
6800.15
6799.77
6799.4
6799.02
6798.65
6798.29
6797.93
6797.58
6797.22
6796.86
6796.51
6796.16
6795.8
6795.45
6795.1
6794.75
6794.39
6794.04
6793.68
6793.32
6792.96
6792.6
6792.24
6791.87
6791.51
6791.14
6790.77
6790.4
6790.02
6789.65
6789.28
6788.9
6788.52
6788.14
6787.76
6787.39
6787
6786.62
6786.24
6785.86
6785.48
6785.1
6784.71
6784.33
6783.95
6783.57
6783.18
6782.8
6782.42
6782.04
6781.66
6781.27
6780.89
6780.51
6780.13
6779.75
6779.37
6778.99
6778.61
6778.24
6777.86
6777.48
6777.1
6776.73
6776.35
6775.98
6775.61
6775.23
6774.86
6774.49
6774.12
6773.75
6773.38
6773.01
6772.65
6772.28
6771.91
6771.55
6771.19
6770.82
6770.46
6770.1
6769.74
6769.38
6769.02
6768.67
6768.31
6767.95
6767.6
6767.24
6766.91
6766.52
6766.23
6765.75
6944.1
6956.32
6965.95
6974.47
6982.87
6991.26
6999.64
7007.98
7016.23
7024.37
7032.34
7040.18
7047.95
7055.68
7063.35
7070.75
7078.13
7085.51
7092.8
7100.03
7107.18
7114.25
7121.24
7128.12
7134.89
7141.55
7148.09
7154.52
7160.86
7167.1
7173.23
7179.26
7185.17
7190.98
7196.7
7202.32
7207.83
7213.24
7218.55
7223.75
7228.83
7233.82
7238.73
7243.54
7248.24
7252.85
7257.33
7261.7
7266
7270.21
7274.32
7278.36
7282.3
7286.05
7289.75
7293.41
7296.93
7300.38
7303.74
7307
7310.16
7313.22
7316.18
7319.05
7321.83
7324.51
7327.05
7329.48
7331.81
7334.06
7336.21
7338.25
7340.15
7341.98
7343.62
7345.07
7346.4
7347.59
7348.59
7349.44
7350.17
7350.76
7351.21
7351.46
7351.56
7351.61
7351.74
7351.81
7351.61
7351.21
7350.77
7350.14
7349.16
7347.71
7346.24
7350.99
7358.5
7346.59
7304.99
7331.67
7336.03
7325.96
7324.92
7321.86
7312.81
7310.9
7307.25
7302.59
7298.3
7293.61
7288.43
7283.45
7277.7
7269.93
7262.69
7255
7248.17
7254.88
7242.7
7212.29
7199.56
7186.78
7174.75
7164.15
7149.91
7133.27
7116.35
7099.37
7083.04
7065.9
7047.58
7029.15
7009.45
6990.69
6971.65
6957.13
6935.94
6906.19
6883.1
6859.57
6836.09
6813.49
6789.65
6764.93
6740.39
6716.16
6691.98
6668.11
6644.35
6620.76
6597.51
6574.66
6552.25
6530.31
6508.89
6488.01
6467.74
6448.11
6429.17
6410.9
6393.33
6376.47
6360.33
6344.9
6330.21
6316.23
6302.95
6290.36
6278.43
6267.16
6256.51
6246.48
6237.02
6228.1
6219.71
6211.81
6204.38
6197.37
6190.78
6184.56
6178.7
6173.17
6167.95
6163.03
6158.41
6154.09
6150.06
6146.34
6142.95
6139.88
6137.17
6134.82
6132.86
6131.27
6130.09
6129.29
6128.9
6128.9
6129.29
6130.08
6131.25
6132.8
6134.72
6136.99
6139.6
6142.55
6145.82
6149.41
6153.29
6157.47
6161.91
6166.6
6171.54
6176.71
6182.1
6187.7
6193.48
6199.43
6205.55
6211.82
6218.22
6224.75
6231.39
6238.13
6244.95
6251.85
6258.82
6265.85
6272.92
6280.03
6287.15
6294.3
6301.44
6308.6
6315.74
6322.87
6329.98
6337.06
6344.1
6351.1
6358.06
6364.97
6371.83
6378.63
6385.36
6392.04
6398.64
6405.18
6411.65
6418.04
6424.36
6430.61
6436.77
6442.87
6448.88
6454.81
6460.67
6466.45
6472.14
6477.75
6483.28
6488.74
6494.11
6499.39
6504.6
6509.72
6514.76
6519.71
6524.58
6529.37
6534.06
6538.68
6543.2
6547.64
6551.99
6556.24
6560.42
6564.5
6568.49
6572.39
6576.2
6579.91
6583.54
6587.07
6590.52
6593.87
6597.13
6600.3
6603.38
6606.37
6609.27
6612.09
6614.82
6617.46
6620.02
6622.5
6624.9
6627.23
6629.48
6631.66
6633.77
6635.81
6637.79
6639.7
6641.56
6643.36
6645.11
6646.81
6648.46
6650.06
6651.62
6653.13
6654.59
6656.01
6657.39
6658.71
6659.97
6661.18
6662.33
6663.42
6664.44
6665.39
6666.27
6667.08
6667.82
6668.49
6669.08
6669.59
6670.03
6670.4
6670.7
6670.93
6671.08
6671.17
6671.2
6671.16
6671.06
6670.9
6670.68
6670.41
6670.09
6669.72
6669.31
6668.85
6668.35
6667.81
6667.24
6666.64
6666.01
6665.35
6664.66
6663.95
6663.22
6662.48
6661.71
6660.94
6660.15
6659.35
6658.54
6657.72
6656.9
6656.08
6655.25
6654.42
6653.59
6652.76
6651.93
6651.11
6650.29
6649.47
6648.66
6647.85
6647.05
6646.25
6645.46
6644.68
6643.91
6643.14
6642.38
6641.63
6640.89
6640.16
6639.44
6638.72
6638.02
6637.32
6636.64
6635.96
6635.29
6634.63
6633.97