/*--------------------------------*- C++ -*----------------------------------*\
| =========                 |                                                 |
| \\      /  F ield         | OpenFOAM: The Open Source CFD Toolbox           |
|  \\    /   O peration     | Version:  v2006                                 |
|   \\  /    A nd           | Website:  www.openfoam.com                      |
|    \\/     M anipulation  |                                                 |
\*---------------------------------------------------------------------------*/
FoamFile
{
    version     2.0;
    format      ascii;
    class       volScalarField;
    location    "5";
    object      p_rgh;
}
// * * * * * * * * * * * * * * * * * * * * * * * * * * * * * * * * * * * * * //

dimensions      [1 -1 -2 0 0 0 0];


internalField   nonuniform List<scalar> 
33000
(
8217.61
8229.61
8239.16
8247.59
8255.94
8264.33
8272.75
8281.16
8289.54
8297.94
8306.39
8314.9
8323.26
8331.33
8338.73
8345.18
8350.71
8355.8
8361.5
8368.69
8376.47
8384.38
8391.92
8398.87
8405.69
8412.3
8418.74
8425.09
8431.36
8437.55
8443.62
8449.59
8455.47
8461.18
8466.87
8472.45
8477.94
8483.31
8488.55
8493.8
8498.98
8504
8508.9
8513.66
8518.31
8522.98
8527.56
8532
8536.33
8540.55
8544.64
8548.72
8552.7
8556.58
8560.35
8564.04
8567.65
8571.17
8574.6
8577.95
8581.16
8584.34
8587.52
8590.61
8593.62
8596.62
8599.57
8602.45
8605.37
8608.27
8611.2
8614.19
8617.37
8620.85
8624.59
8628.71
8633.39
8636.84
8629.39
8606.48
8624.47
8625.33
8622.05
8624.85
8625.14
8621.97
8624.09
8623.87
8624.54
8624.08
8624.08
8624
8623.83
8623.98
8624.69
8625.2
8627.03
8627.75
8633.25
8630.55
8618.52
8614.99
8610.38
8605.6
8601.92
8596.55
8590.31
8583.93
8578.02
8572.38
8565.96
8559.64
8552.84
8545.61
8538.61
8530.84
8525.85
8516.17
8501.14
8490.29
8477.75
8464.34
8451.02
8436.48
8420.61
8404.5
8387.76
8370.4
8352.63
8334.22
8315.21
8295.76
8275.82
8255.47
8234.74
8213.68
8192.28
8170.53
8148.5
8126.2
8103.68
8081
8058.21
8035.32
8012.41
7989.55
7966.77
7944.11
7921.62
7899.35
7877.38
7855.75
7834.48
7813.6
7793.18
7773.24
7753.83
7734.99
7716.72
7699.05
7682.01
7665.61
7649.86
7634.78
7620.38
7606.66
7593.61
7581.21
7569.5
7558.43
7547.98
7538.13
7528.86
7520.16
7511.99
7504.29
7497.04
7490.2
7483.75
7477.65
7471.86
7466.34
7461.04
7455.98
7451.14
7446.55
7442.24
7438.25
7434.59
7431.26
7428.29
7425.68
7423.44
7421.59
7420.13
7419.05
7418.36
7418.06
7418.12
7418.56
7419.36
7420.54
7422.07
7423.97
7426.19
7428.74
7431.6
7434.77
7438.23
7441.99
7446.01
7450.28
7454.79
7459.56
7464.54
7469.73
7475.1
7480.65
7486.37
7492.26
7498.31
7504.47
7510.76
7517.15
7523.63
7530.21
7536.87
7543.59
7550.37
7557.2
7564.05
7570.94
7577.85
7584.78
7591.71
7598.63
7605.54
7612.44
7619.32
7626.17
7632.98
7639.76
7646.49
7653.19
7659.83
7666.42
7672.94
7679.41
7685.82
7692.17
7698.45
7704.65
7710.79
7716.86
7722.85
7728.77
7734.62
7740.39
7746.08
7751.69
7757.23
7762.68
7768.06
7773.36
7778.57
7783.69
7788.73
7793.69
7798.58
7803.37
7808.08
7812.7
7817.22
7821.66
7826.02
7830.29
7834.47
7838.55
7842.55
7846.45
7850.26
7853.98
7857.6
7861.14
7864.58
7867.93
7871.18
7874.34
7877.4
7880.38
7883.26
7886.06
7888.77
7891.38
7893.91
7896.36
7898.72
7901
7903.21
7905.34
7907.39
7909.38
7911.3
7913.15
7914.95
7916.68
7918.37
7920
7921.59
7923.14
7924.64
7926.11
7927.54
7928.94
7930.29
7931.58
7932.83
7934.02
7935.16
7936.23
7937.24
7938.19
7939.07
7939.88
7940.62
7941.3
7941.9
7942.44
7942.91
7943.31
7943.65
7943.91
7944.12
7944.26
7944.34
7944.36
7944.32
7944.22
7944.07
7943.87
7943.62
7943.32
7942.97
7942.59
7942.16
7941.7
7941.2
7940.66
7940.1
7939.5
7938.88
7938.24
7937.57
7936.89
7936.18
7935.46
7934.73
7933.98
7933.22
7932.46
7931.68
7930.9
7930.11
7929.32
7928.53
7927.73
7926.93
7926.14
7925.35
7924.55
7923.76
7922.98
7922.2
7921.42
7920.65
7919.89
7919.13
7918.38
7917.63
7916.89
7916.16
7915.44
7914.72
7914.01
7913.31
7912.62
7911.94
7911.26
7910.6
7909.94
7909.28
7908.64
7908.01
7907.38
7906.76
7906.15
7905.54
7904.95
7904.36
7903.78
7903.2
7902.64
7902.08
7901.52
7900.98
7900.44
7899.9
7899.38
7898.86
7898.34
7897.83
7897.33
7896.83
7896.33
7895.84
7895.36
7894.88
7894.41
7893.94
7893.48
7893.02
7892.56
7892.12
7891.67
7891.23
7890.82
7890.39
7889.97
7889.59
7889.09
7888.73
7888.47
7888.1
7887.77
7887.4
7887.03
7886.66
7886.27
7885.89
7885.5
7885.11
7884.71
7884.32
7883.93
7883.54
7883.14
7882.76
7882.33
7881.95
7881.65
7881.27
7880.93
7880.54
7880.18
7879.78
7879.4
7879
7878.62
7878.21
7877.83
7877.42
7877.04
7876.62
7876.25
7875.88
7875.5
7875.12
7874.79
7874.24
7874
7873.77
7873.49
7873.19
7872.88
7872.56
7872.23
7871.9
7871.55
7871.21
7870.86
7870.5
7870.14
7869.78
7869.42
7869.05
7868.69
7868.32
7867.95
7867.58
7867.2
7866.83
7866.45
7866.08
7865.7
7865.32
7864.94
7864.57
7864.19
7863.81
7863.43
7863.05
7862.67
7862.29
7861.91
7861.52
7861.14
7860.76
7860.38
7860.01
7859.63
7859.25
7858.87
7858.49
7858.11
7857.73
7857.36
7856.98
7856.61
7856.23
7855.86
7855.48
7855.11
7854.73
7854.36
7853.99
7853.62
7853.25
7852.88
7852.51
7852.15
7851.78
7851.41
7851.05
7850.68
7850.32
7849.96
7849.6
7849.24
7848.88
7848.52
7848.16
7847.8
7847.45
7847.09
7846.74
7846.38
7846.05
7845.66
7845.36
7844.89
8217.69
8229.7
8239.25
8247.68
8256.03
8264.4
8272.79
8281.18
8289.52
8297.87
8306.02
8314.22
8322.14
8329.56
8336.36
8342.44
8347.78
8352.81
8358.64
8365.59
8374.44
8383.47
8391.67
8399.07
8406.02
8412.66
8419.07
8425.37
8431.63
8437.84
8443.9
8449.88
8455.7
8461.38
8467.02
8472.69
8478.2
8483.53
8488.73
8493.95
8499.19
8504.27
8509.21
8513.89
8518.47
8523.1
8527.71
8532.24
8536.61
8540.78
8544.81
8548.86
8552.91
8556.81
8560.56
8564.25
8567.84
8571.38
8574.82
8578.13
8581.24
8584.43
8587.57
8590.76
8593.74
8596.59
8599.53
8602.45
8605.37
8608.16
8610.95
8613.66
8616.52
8619.3
8622.01
8624.57
8626.76
8628.58
8630.11
8634.63
8639.48
8630.2
8603.21
8623.85
8626.34
8622.45
8626.43
8625.25
8625.13
8621.95
8623.21
8623.18
8623.05
8623.27
8623.19
8622.93
8623.29
8622.97
8623.38
8621.56
8619.4
8623.85
8619.01
8603.47
8598.64
8592.92
8589.04
8584.08
8580.61
8575.05
8567.3
8560.18
8552.67
8545.09
8537.76
8529.79
8521.56
8512.46
8502.01
8495.03
8482.91
8464.64
8450.95
8435.96
8420.72
8405.62
8389.19
8371.48
8353.43
8334.81
8315.73
8296.43
8276.54
8256.15
8235.34
8214.19
8192.77
8170.98
8148.94
8126.6
8104.04
8081.3
8058.47
8035.52
8012.54
7989.61
7966.8
7944.08
7921.52
7899.16
7877.14
7855.48
7834.17
7813.25
7792.77
7772.78
7753.34
7734.48
7716.17
7698.48
7681.42
7665.01
7649.25
7634.15
7619.76
7606.04
7592.98
7580.56
7568.87
7557.81
7547.37
7537.5
7528.23
7519.54
7511.38
7503.69
7496.42
7489.59
7483.14
7477.05
7471.24
7465.69
7460.4
7455.34
7450.52
7445.91
7441.59
7437.59
7433.92
7430.61
7427.64
7425.03
7422.78
7420.93
7419.47
7418.39
7417.73
7417.44
7417.51
7417.95
7418.76
7419.96
7421.51
7423.44
7425.68
7428.23
7431.1
7434.29
7437.77
7441.56
7445.6
7449.87
7454.41
7459.19
7464.21
7469.41
7474.8
7480.36
7486.1
7492
7498.07
7504.27
7510.57
7516.96
7523.46
7530.05
7536.72
7543.46
7550.27
7557.11
7563.97
7570.86
7577.79
7584.72
7591.66
7598.61
7605.54
7612.43
7619.31
7626.18
7632.99
7639.76
7646.51
7653.2
7659.87
7666.46
7672.99
7679.45
7685.86
7692.22
7698.5
7704.71
7710.85
7716.91
7722.91
7728.83
7734.67
7740.45
7746.14
7751.76
7757.29
7762.74
7768.12
7773.42
7778.63
7783.75
7788.79
7793.75
7798.63
7803.43
7808.14
7812.76
7817.28
7821.72
7826.07
7830.34
7834.52
7838.61
7842.6
7846.51
7850.32
7854.03
7857.65
7861.18
7864.63
7867.98
7871.23
7874.39
7877.46
7880.43
7883.31
7886.11
7888.82
7891.44
7893.97
7896.41
7898.77
7901.06
7903.26
7905.4
7907.45
7909.43
7911.35
7913.21
7915.01
7916.75
7918.43
7920.07
7921.66
7923.21
7924.72
7926.19
7927.63
7929.02
7930.38
7931.68
7932.93
7934.12
7935.26
7936.34
7937.35
7938.29
7939.17
7939.99
7940.73
7941.41
7942.01
7942.55
7943.02
7943.42
7943.75
7944.02
7944.22
7944.36
7944.44
7944.45
7944.41
7944.31
7944.16
7943.95
7943.7
7943.4
7943.05
7942.66
7942.23
7941.76
7941.26
7940.72
7940.15
7939.56
7938.93
7938.29
7937.62
7936.93
7936.22
7935.5
7934.76
7934.01
7933.25
7932.48
7931.71
7930.92
7930.13
7929.34
7928.54
7927.75
7926.95
7926.15
7925.36
7924.56
7923.77
7922.99
7922.21
7921.43
7920.66
7919.89
7919.13
7918.38
7917.63
7916.89
7916.16
7915.44
7914.72
7914.02
7913.31
7912.62
7911.94
7911.26
7910.6
7909.94
7909.28
7908.64
7908.01
7907.38
7906.76
7906.15
7905.54
7904.94
7904.36
7903.77
7903.2
7902.63
7902.07
7901.52
7900.97
7900.43
7899.9
7899.38
7898.85
7898.34
7897.83
7897.33
7896.83
7896.34
7895.84
7895.36
7894.88
7894.41
7893.93
7893.48
7893
7892.56
7892.13
7891.69
7891.24
7890.82
7890.29
7889.88
7889.62
7889.22
7888.89
7888.53
7888.17
7887.81
7887.43
7887.06
7886.67
7886.29
7885.89
7885.51
7885.12
7884.73
7884.32
7883.93
7883.48
7883.1
7882.78
7882.41
7882.05
7881.69
7881.31
7880.95
7880.56
7880.18
7879.79
7879.41
7879.02
7878.61
7878.22
7877.79
7877.43
7877.03
7876.67
7876.25
7875.89
7875.29
7875.02
7874.79
7874.48
7874.18
7873.88
7873.57
7873.25
7872.93
7872.6
7872.27
7871.93
7871.58
7871.23
7870.88
7870.52
7870.16
7869.8
7869.43
7869.07
7868.7
7868.33
7867.96
7867.58
7867.21
7866.83
7866.46
7866.08
7865.7
7865.32
7864.95
7864.57
7864.19
7863.81
7863.43
7863.05
7862.67
7862.29
7861.91
7861.53
7861.15
7860.77
7860.39
7860.01
7859.63
7859.25
7858.87
7858.49
7858.11
7857.73
7857.36
7856.98
7856.6
7856.23
7855.85
7855.48
7855.11
7854.73
7854.36
7853.99
7853.62
7853.25
7852.88
7852.51
7852.14
7851.78
7851.41
7851.05
7850.68
7850.32
7849.96
7849.59
7849.23
7848.87
7848.52
7848.16
7847.8
7847.44
7847.09
7846.73
7846.38
7846.05
7845.66
7845.36
7844.88
8217.84
8229.87
8239.43
8247.87
8256.22
8264.58
8272.95
8281.29
8289.56
8297.78
8305.84
8313.76
8321.52
8328.94
8335.86
8342.43
8348.71
8355.05
8361.7
8368.98
8376.63
8384.45
8392.06
8399.43
8406.32
8412.97
8419.48
8425.87
8432.08
8438.16
8444.22
8450.28
8456.26
8462.01
8467.43
8472.93
8478.43
8483.83
8489.15
8494.48
8499.77
8504.8
8509.74
8514.44
8518.87
8523.54
8528.26
8532.76
8537.11
8541.32
8545.23
8549.23
8553.19
8557.11
8561.03
8564.75
8568.33
8571.83
8575.22
8578.31
8581.53
8584.73
8587.86
8591.09
8593.87
8596.72
8599.52
8602.48
8605.42
8608.09
8610.65
8613.17
8615.72
8618.22
8620.67
8622.89
8624.78
8626.27
8627.01
8626.82
8627.26
8628.61
8633.07
8638.74
8629.82
8600.68
8621.29
8626.6
8627.16
8624.74
8625.57
8625.17
8621.11
8622.41
8622.53
8621.83
8622.01
8620.98
8620.25
8618.64
8615.21
8612.92
8609.8
8607.13
8613.04
8606.22
8588.63
8581.21
8575.07
8570.72
8565.44
8561.48
8554.84
8546.49
8537.88
8529.26
8520.61
8511.28
8500.74
8489.57
8478.22
8465.95
8457.53
8443.28
8422.16
8406.28
8389.16
8372.09
8355.25
8337
8317.45
8297.74
8277.55
8257.15
8236.48
8215.48
8194
8172.12
8149.96
8127.52
8104.85
8082.01
8058.97
8035.91
8012.83
7989.82
7966.87
7944
7921.27
7898.84
7876.72
7854.98
7833.55
7812.48
7791.88
7771.88
7752.41
7733.43
7715.01
7697.26
7680.2
7663.77
7647.95
7632.82
7618.42
7604.73
7591.65
7579.22
7567.52
7556.5
7546.04
7536.17
7526.91
7518.22
7510.08
7502.38
7495.09
7488.25
7481.81
7475.68
7469.82
7464.27
7458.98
7453.97
7449.15
7444.57
7440.26
7436.22
7432.52
7429.2
7426.27
7423.7
7421.49
7419.64
7418.15
7417.08
7416.42
7416.18
7416.29
7416.75
7417.58
7418.81
7420.42
7422.35
7424.62
7427.19
7430.11
7433.34
7436.89
7440.69
7444.75
7449.05
7453.65
7458.5
7463.54
7468.78
7474.21
7479.8
7485.56
7491.5
7497.61
7503.84
7510.18
7516.61
7523.12
7529.75
7536.46
7543.24
7550.06
7556.93
7563.81
7570.72
7577.67
7584.65
7591.62
7598.57
7605.51
7612.42
7619.3
7626.16
7633
7639.8
7646.58
7653.29
7659.94
7666.54
7673.07
7679.54
7685.95
7692.32
7698.61
7704.83
7710.96
7717.02
7723.03
7728.97
7734.81
7740.58
7746.25
7751.86
7757.41
7762.88
7768.26
7773.55
7778.74
7783.86
7788.91
7793.87
7798.76
7803.56
7808.26
7812.88
7817.4
7821.84
7826.19
7830.45
7834.62
7838.72
7842.72
7846.62
7850.43
7854.13
7857.76
7861.29
7864.74
7868.09
7871.34
7874.5
7877.56
7880.53
7883.42
7886.22
7888.93
7891.55
7894.08
7896.52
7898.89
7901.18
7903.38
7905.51
7907.58
7909.57
7911.49
7913.35
7915.15
7916.9
7918.59
7920.23
7921.83
7923.38
7924.9
7926.38
7927.81
7929.21
7930.57
7931.88
7933.13
7934.33
7935.47
7936.55
7937.56
7938.52
7939.4
7940.21
7940.96
7941.63
7942.24
7942.78
7943.24
7943.64
7943.97
7944.23
7944.43
7944.57
7944.64
7944.65
7944.6
7944.5
7944.34
7944.13
7943.86
7943.56
7943.2
7942.81
7942.37
7941.9
7941.39
7940.84
7940.27
7939.67
7939.04
7938.39
7937.71
7937.02
7936.3
7935.57
7934.83
7934.08
7933.31
7932.54
7931.76
7930.97
7930.17
7929.38
7928.58
7927.78
7926.98
7926.18
7925.38
7924.59
7923.79
7923.01
7922.22
7921.44
7920.67
7919.9
7919.14
7918.39
7917.64
7916.9
7916.17
7915.44
7914.73
7914.02
7913.32
7912.62
7911.94
7911.26
7910.59
7909.94
7909.28
7908.64
7908
7907.38
7906.76
7906.14
7905.54
7904.94
7904.35
7903.77
7903.2
7902.63
7902.07
7901.52
7900.97
7900.43
7899.9
7899.38
7898.86
7898.34
7897.83
7897.32
7896.83
7896.33
7895.85
7895.35
7894.88
7894.39
7893.93
7893.48
7893.03
7892.56
7892.13
7891.57
7891.15
7890.87
7890.47
7890.11
7889.72
7889.34
7888.95
7888.59
7888.21
7887.84
7887.45
7887.08
7886.71
7886.32
7885.94
7885.52
7885.14
7884.67
7884.3
7883.98
7883.61
7883.24
7882.87
7882.49
7882.11
7881.74
7881.35
7880.99
7880.59
7880.23
7879.8
7879.43
7878.99
7878.63
7878.22
7877.86
7877.43
7877.05
7876.43
7876.15
7875.9
7875.57
7875.23
7874.9
7874.56
7874.24
7873.92
7873.6
7873.27
7872.94
7872.61
7872.27
7871.92
7871.58
7871.23
7870.87
7870.51
7870.16
7869.79
7869.43
7869.06
7868.7
7868.33
7867.96
7867.58
7867.21
7866.83
7866.46
7866.08
7865.7
7865.33
7864.95
7864.57
7864.19
7863.81
7863.43
7863.05
7862.66
7862.28
7861.9
7861.52
7861.14
7860.76
7860.38
7860
7859.62
7859.24
7858.86
7858.49
7858.11
7857.73
7857.35
7856.98
7856.6
7856.22
7855.85
7855.48
7855.1
7854.73
7854.36
7853.99
7853.61
7853.24
7852.88
7852.51
7852.14
7851.77
7851.41
7851.04
7850.68
7850.31
7849.95
7849.59
7849.23
7848.87
7848.51
7848.15
7847.79
7847.44
7847.08
7846.73
7846.37
7846.04
7845.65
7845.36
7844.88
8218.09
8230.15
8239.71
8248.17
8256.52
8264.87
8273.23
8281.55
8289.77
8297.91
8305.9
8313.7
8321.37
8328.84
8336.11
8343.27
8350.12
8357.01
8363.99
8371.25
8378.57
8385.95
8393.18
8400.21
8407.04
8413.7
8420.22
8426.61
8432.87
8438.88
8444.91
8450.99
8457.01
8462.8
8468.33
8473.58
8479.09
8484.63
8490.16
8495.38
8500.5
8505.55
8510.48
8515.27
8519.85
8524.39
8529.01
8533.49
8537.84
8542.04
8545.93
8549.84
8553.92
8557.93
8561.71
8565.38
8568.98
8572.48
8575.91
8578.92
8582.15
8585.55
8588.66
8591.41
8594.19
8597.01
8599.74
8602.61
8605.54
8608.17
8610.6
8612.84
8615.11
8617.31
8619.57
8621.56
8623.2
8624.43
8625.5
8626.37
8626.84
8626.94
8626.15
8625.36
8624.77
8628.37
8636.7
8641.02
8630.71
8599.92
8622.55
8624.96
8621.56
8623.03
8621.85
8617.87
8618.81
8617.85
8616.25
8614.78
8611.96
8609.88
8606.56
8601.43
8597.44
8591.93
8589.74
8587.54
8592.74
8587.03
8566.79
8559.71
8551.84
8545.03
8539.43
8531.34
8521.2
8510.73
8499.93
8489.18
8477.66
8465.04
8451.63
8438.28
8423.83
8414.03
8397.95
8374.45
8356.6
8337.47
8318.54
8300.12
8280.31
8259.43
8238.32
8216.92
8195.37
8173.33
8151.23
8128.75
8106.04
8083.01
8059.82
8036.51
8013.26
7990.12
7966.96
7943.83
7920.96
7898.35
7876.14
7854.19
7832.55
7811.3
7790.62
7770.5
7750.95
7731.86
7713.33
7695.5
7678.33
7661.89
7646.02
7630.87
7616.43
7602.73
7589.61
7577.18
7565.44
7554.4
7544
7534.09
7524.81
7516.08
7507.88
7500.2
7492.95
7486.08
7479.58
7473.37
7467.51
7461.95
7456.69
7451.7
7446.9
7442.35
7438.04
7434.01
7430.35
7427.05
7424.11
7421.61
7419.42
7417.61
7416.16
7415.08
7414.44
7414.25
7414.42
7414.93
7415.78
7417.04
7418.71
7420.71
7423.01
7425.64
7428.62
7431.94
7435.53
7439.38
7443.47
7447.84
7452.48
7457.39
7462.52
7467.82
7473.29
7478.91
7484.75
7490.74
7496.93
7503.21
7509.59
7516.08
7522.66
7529.29
7536.03
7542.84
7549.71
7556.64
7563.58
7570.54
7577.49
7584.47
7591.49
7598.5
7605.45
7612.36
7619.28
7626.17
7633.07
7639.9
7646.66
7653.38
7660.03
7666.62
7673.17
7679.67
7686.11
7692.49
7698.78
7704.97
7711.11
7717.22
7723.23
7729.15
7735
7740.74
7746.42
7752.04
7757.58
7763.07
7768.45
7773.74
7778.95
7784.05
7789.08
7794.04
7798.94
7803.74
7808.44
7813.03
7817.55
7822.02
7826.38
7830.64
7834.79
7838.87
7842.87
7846.79
7850.59
7854.29
7857.92
7861.46
7864.91
7868.25
7871.49
7874.64
7877.73
7880.71
7883.6
7886.39
7889.09
7891.7
7894.25
7896.71
7899.08
7901.36
7903.57
7905.71
7907.78
7909.78
7911.71
7913.57
7915.38
7917.14
7918.84
7920.49
7922.09
7923.66
7925.19
7926.67
7928.11
7929.51
7930.88
7932.19
7933.45
7934.65
7935.79
7936.88
7937.9
7938.85
7939.74
7940.55
7941.29
7941.97
7942.58
7943.11
7943.58
7943.97
7944.29
7944.55
7944.75
7944.87
7944.94
7944.94
7944.88
7944.77
7944.61
7944.39
7944.12
7943.8
7943.43
7943.03
7942.58
7942.1
7941.58
7941.02
7940.44
7939.83
7939.19
7938.53
7937.85
7937.14
7936.42
7935.68
7934.93
7934.17
7933.4
7932.62
7931.83
7931.04
7930.24
7929.44
7928.63
7927.83
7927.02
7926.22
7925.42
7924.62
7923.82
7923.03
7922.24
7921.46
7920.68
7919.91
7919.15
7918.4
7917.65
7916.91
7916.17
7915.44
7914.73
7914.02
7913.32
7912.62
7911.94
7911.26
7910.59
7909.93
7909.28
7908.64
7908
7907.37
7906.75
7906.14
7905.54
7904.94
7904.35
7903.77
7903.19
7902.62
7902.07
7901.51
7900.97
7900.43
7899.9
7899.37
7898.85
7898.34
7897.83
7897.34
7896.82
7896.34
7895.83
7895.36
7894.89
7894.43
7893.94
7893.49
7892.9
7892.47
7892.19
7891.77
7891.4
7890.99
7890.59
7890.19
7889.82
7889.42
7889.05
7888.66
7888.28
7887.92
7887.53
7887.16
7886.74
7886.36
7885.88
7885.51
7885.2
7884.83
7884.46
7884.08
7883.69
7883.32
7882.92
7882.55
7882.16
7881.79
7881.39
7881.02
7880.59
7880.22
7879.84
7879.46
7879.08
7878.66
7878.26
7877.63
7877.34
7877.09
7876.76
7876.42
7876.07
7875.72
7875.37
7875.04
7874.7
7874.37
7874.03
7873.7
7873.36
7873.02
7872.67
7872.33
7871.98
7871.62
7871.27
7870.91
7870.55
7870.19
7869.82
7869.45
7869.08
7868.71
7868.34
7867.97
7867.6
7867.22
7866.84
7866.47
7866.09
7865.71
7865.33
7864.95
7864.57
7864.19
7863.81
7863.43
7863.05
7862.67
7862.29
7861.91
7861.52
7861.14
7860.76
7860.38
7860
7859.62
7859.24
7858.86
7858.48
7858.11
7857.73
7857.35
7856.97
7856.6
7856.22
7855.85
7855.47
7855.1
7854.72
7854.35
7853.98
7853.61
7853.24
7852.87
7852.5
7852.13
7851.77
7851.4
7851.04
7850.67
7850.31
7849.95
7849.58
7849.22
7848.86
7848.5
7848.15
7847.79
7847.43
7847.08
7846.72
7846.36
7846.03
7845.64
7845.35
7844.87
8218.42
8230.53
8240.1
8248.57
8256.94
8265.29
8273.65
8281.96
8290.18
8298.3
8306.26
8314.04
8321.73
8329.33
8336.83
8344.11
8351.26
8358.43
8365.59
8372.76
8379.92
8387.04
8394.1
8401.04
8407.82
8414.48
8421.03
8427.44
8433.76
8439.93
8445.96
8451.98
8457.94
8463.75
8469.42
8474.76
8480.16
8485.78
8491.24
8496.45
8501.53
8506.53
8511.43
8516.23
8520.92
8525.53
8530.03
8534.44
8538.76
8542.98
8547.06
8550.94
8554.91
8558.85
8562.64
8566.29
8569.85
8573.35
8576.75
8579.96
8583.16
8586.35
8589.43
8592.33
8594.78
8597.46
8600.14
8602.94
8605.8
8608.36
8610.7
8612.96
8614.95
8616.77
8618.79
8620.66
8622.2
8623.52
8624.68
8625.46
8625.7
8626.15
8626.57
8627.15
8627.71
8628.02
8628.13
8627.86
8627.74
8633.96
8641.47
8630.92
8594.52
8619.92
8623.39
8617.99
8619.23
8617.33
8611.99
8611.8
8609.5
8606.5
8604.03
8600.39
8597.26
8593.22
8587.85
8583.34
8578.09
8574.79
8570.53
8577.6
8569.28
8545.71
8536.92
8527.5
8519.31
8512.24
8502.09
8489.75
8477.02
8464.19
8451.35
8437.82
8423.14
8407.8
8392.64
8376.39
8365.11
8346.95
8321.14
8301.78
8281.01
8260.83
8240.29
8220.18
8198.92
8176.21
8153.42
8130.46
8107.38
8084.37
8061.12
8037.51
8013.86
7990.4
7967.04
7943.68
7920.53
7897.7
7875.29
7853.09
7831.14
7809.76
7788.89
7768.63
7748.92
7729.71
7711.07
7693.07
7675.8
7659.2
7643.36
7628.22
7613.73
7599.88
7586.7
7574.28
7562.52
7551.46
7541.05
7531.11
7521.75
7512.99
7504.74
7497.06
7489.77
7482.83
7476.22
7470.02
7464.17
7458.64
7453.43
7448.42
7443.65
7439.15
7434.88
7430.89
7427.29
7424.03
7421.13
7418.69
7416.55
7414.79
7413.41
7412.37
7411.75
7411.59
7411.85
7412.45
7413.4
7414.68
7416.35
7418.4
7420.82
7423.62
7426.69
7430.04
7433.69
7437.57
7441.75
7446.23
7450.95
7455.96
7461.16
7466.53
7472.04
7477.76
7483.68
7489.78
7496.01
7502.33
7508.73
7515.29
7521.98
7528.76
7535.55
7542.36
7549.26
7556.21
7563.21
7570.27
7577.26
7584.29
7591.37
7598.4
7605.36
7612.32
7619.28
7626.2
7633.14
7639.99
7646.77
7653.47
7660.15
7666.78
7673.35
7679.87
7686.34
7692.71
7699
7705.18
7711.34
7717.42
7723.47
7729.4
7735.22
7740.98
7746.67
7752.29
7757.85
7763.32
7768.7
7773.99
7779.2
7784.31
7789.33
7794.28
7799.18
7803.98
7808.67
7813.26
7817.79
7822.25
7826.62
7830.88
7835.03
7839.1
7843.1
7847.01
7850.8
7854.52
7858.16
7861.7
7865.11
7868.45
7871.71
7874.87
7877.96
7880.95
7883.83
7886.62
7889.33
7891.95
7894.49
7896.97
7899.35
7901.64
7903.85
7906
7908.07
7910.08
7912.02
7913.9
7915.73
7917.51
7919.21
7920.87
7922.49
7924.08
7925.6
7927.09
7928.54
7929.95
7931.31
7932.64
7933.9
7935.1
7936.25
7937.33
7938.36
7939.32
7940.2
7941.01
7941.75
7942.43
7943.03
7943.57
7944.03
7944.42
7944.73
7944.98
7945.16
7945.29
7945.35
7945.34
7945.27
7945.15
7944.96
7944.73
7944.44
7944.11
7943.74
7943.32
7942.86
7942.37
7941.83
7941.27
7940.67
7940.04
7939.39
7938.72
7938.03
7937.31
7936.58
7935.83
7935.07
7934.3
7933.52
7932.73
7931.93
7931.13
7930.32
7929.51
7928.7
7927.89
7927.08
7926.27
7925.46
7924.66
7923.85
7923.06
7922.27
7921.49
7920.71
7919.93
7919.17
7918.41
7917.66
7916.91
7916.18
7915.45
7914.73
7914.02
7913.32
7912.62
7911.94
7911.26
7910.59
7909.93
7909.28
7908.64
7908
7907.37
7906.75
7906.14
7905.53
7904.94
7904.34
7903.76
7903.19
7902.62
7902.06
7901.51
7900.97
7900.43
7899.9
7899.37
7898.86
7898.33
7897.83
7897.31
7896.82
7896.34
7895.87
7895.35
7894.89
7894.28
7893.83
7893.55
7893.12
7892.74
7892.32
7891.91
7891.49
7891.11
7890.7
7890.32
7889.91
7889.53
7889.14
7888.76
7888.35
7887.97
7887.5
7887.12
7886.84
7886.45
7886.11
7885.71
7885.35
7884.94
7884.57
7884.17
7883.8
7883.41
7883.03
7882.63
7882.25
7881.83
7881.45
7881.09
7880.69
7880.36
7879.9
7879.5
7878.86
7878.57
7878.3
7877.96
7877.6
7877.24
7876.87
7876.52
7876.17
7875.83
7875.48
7875.14
7874.79
7874.45
7874.1
7873.76
7873.41
7873.07
7872.72
7872.36
7872.01
7871.65
7871.3
7870.93
7870.57
7870.21
7869.84
7869.47
7869.1
7868.73
7868.36
7867.98
7867.61
7867.23
7866.85
7866.47
7866.09
7865.71
7865.33
7864.95
7864.57
7864.19
7863.81
7863.43
7863.05
7862.67
7862.28
7861.9
7861.52
7861.14
7860.76
7860.38
7860
7859.62
7859.24
7858.86
7858.48
7858.1
7857.72
7857.34
7856.97
7856.59
7856.21
7855.84
7855.46
7855.09
7854.72
7854.34
7853.97
7853.6
7853.23
7852.86
7852.49
7852.12
7851.76
7851.39
7851.03
7850.66
7850.3
7849.94
7849.57
7849.21
7848.85
7848.49
7848.13
7847.78
7847.42
7847.07
7846.71
7846.35
7846.02
7845.63
7845.34
7844.86
8218.86
8231.01
8240.62
8249.11
8257.49
8265.85
8274.22
8282.54
8290.77
8298.89
8306.83
8314.64
8322.37
8330.05
8337.68
8345.03
8352.32
8359.62
8366.86
8374.05
8381.2
8388.28
8395.27
8402.16
8408.93
8415.58
8422.12
8428.55
8434.87
8441.08
8447.19
8453.2
8459.11
8464.91
8470.62
8476.22
8481.69
8487.09
8492.43
8497.64
8502.72
8507.7
8512.6
8517.41
8522.12
8526.72
8531.21
8535.6
8539.9
8544.11
8548.24
8552.27
8556.16
8559.81
8563.54
8567.3
8570.92
8574.41
8577.78
8581.01
8584.2
8587.33
8590.37
8593.28
8595.99
8598.19
8600.74
8603.68
8606.36
8608.74
8611
8613.13
8615.14
8617.03
8618.6
8620.02
8621.62
8623
8624.07
8624.95
8625.36
8625.75
8626.49
8627
8627.27
8627.31
8627.45
8627.75
8627.82
8627.48
8626.58
8625.69
8630.85
8638.4
8627.25
8588.95
8615.09
8619.24
8611.36
8611.33
8608.49
8600.98
8599.96
8596.84
8592.83
8588.79
8584.89
8580.64
8576.91
8572.81
8566.49
8560.79
8554.89
8549.43
8556.35
8546.19
8519.36
8508.64
8497.64
8487.7
8478.91
8466.71
8452.17
8437.26
8422.54
8407.87
8392.58
8375.89
8358.65
8341.41
8323.4
8311.05
8291.41
8263.99
8242.42
8220.85
8199.69
8177.66
8156.31
8133.41
8109.66
8085.96
8062.28
8038.47
8014.63
7990.83
7967.16
7943.51
7919.97
7896.91
7874.2
7851.7
7829.45
7807.79
7786.74
7766.3
7746.32
7726.92
7708.18
7690.02
7672.54
7655.85
7639.96
7624.7
7610.12
7596.22
7582.92
7570.43
7558.67
7547.58
7537.04
7527.08
7517.62
7508.76
7500.54
7492.77
7485.39
7478.41
7471.75
7465.5
7459.72
7454.23
7448.98
7444
7439.26
7434.78
7430.62
7426.86
7423.35
7420.16
7417.33
7414.79
7412.7
7411.12
7409.83
7408.92
7408.37
7408.24
7408.59
7409.27
7410.33
7411.7
7413.43
7415.58
7418.12
7421.02
7424.17
7427.62
7431.31
7435.3
7439.64
7444.3
7449.14
7454.19
7459.41
7464.84
7470.5
7476.37
7482.42
7488.58
7494.84
7501.21
7507.75
7514.41
7521.21
7528.02
7534.9
7541.82
7548.74
7555.75
7562.8
7569.87
7577.04
7584.14
7591.22
7598.29
7605.33
7612.3
7619.28
7626.3
7633.24
7640.09
7646.86
7653.62
7660.33
7666.99
7673.64
7680.16
7686.61
7692.98
7699.24
7705.47
7711.63
7717.73
7723.78
7729.72
7735.55
7741.29
7746.98
7752.65
7758.19
7763.64
7768.99
7774.27
7779.5
7784.63
7789.66
7794.61
7799.5
7804.28
7808.95
7813.55
7818.1
7822.57
7826.92
7831.18
7835.34
7839.39
7843.38
7847.28
7851.12
7854.84
7858.47
7861.99
7865.41
7868.75
7872.01
7875.2
7878.28
7881.24
7884.13
7886.94
7889.66
7892.3
7894.86
7897.33
7899.71
7902.01
7904.24
7906.41
7908.51
7910.53
7912.47
7914.36
7916.22
7918.01
7919.73
7921.4
7923.03
7924.63
7926.18
7927.68
7929.12
7930.54
7931.92
7933.23
7934.49
7935.7
7936.86
7937.95
7938.96
7939.92
7940.8
7941.62
7942.37
7943.03
7943.62
7944.15
7944.61
7944.99
7945.3
7945.54
7945.71
7945.82
7945.86
7945.84
7945.75
7945.62
7945.42
7945.17
7944.87
7944.53
7944.13
7943.69
7943.22
7942.71
7942.16
7941.57
7940.96
7940.31
7939.65
7938.96
7938.25
7937.52
7936.78
7936.01
7935.24
7934.46
7933.66
7932.86
7932.05
7931.24
7930.42
7929.61
7928.79
7927.97
7927.15
7926.33
7925.52
7924.71
7923.9
7923.1
7922.3
7921.52
7920.73
7919.95
7919.19
7918.42
7917.67
7916.92
7916.18
7915.45
7914.73
7914.02
7913.32
7912.62
7911.94
7911.26
7910.59
7909.93
7909.27
7908.63
7907.99
7907.36
7906.74
7906.13
7905.53
7904.93
7904.34
7903.75
7903.18
7902.61
7902.05
7901.5
7900.96
7900.41
7899.88
7899.34
7898.83
7898.36
7897.85
7897.38
7896.83
7896.36
7895.72
7895.27
7894.98
7894.54
7894.15
7893.71
7893.29
7892.86
7892.47
7892.04
7891.65
7891.23
7890.84
7890.44
7890.05
7889.63
7889.24
7888.77
7888.38
7888.11
7887.72
7887.39
7886.98
7886.62
7886.21
7885.84
7885.44
7885.07
7884.67
7884.29
7883.88
7883.5
7883.07
7882.71
7882.3
7881.93
7881.52
7881.12
7880.49
7880.21
7879.94
7879.61
7879.25
7878.87
7878.5
7878.12
7877.75
7877.4
7877.04
7876.68
7876.32
7875.96
7875.61
7875.26
7874.9
7874.55
7874.2
7873.85
7873.49
7873.14
7872.78
7872.42
7872.06
7871.7
7871.34
7870.97
7870.61
7870.24
7869.87
7869.5
7869.12
7868.75
7868.37
7868
7867.62
7867.24
7866.86
7866.48
7866.1
7865.72
7865.34
7864.96
7864.58
7864.2
7863.82
7863.43
7863.05
7862.67
7862.29
7861.9
7861.52
7861.14
7860.76
7860.38
7859.99
7859.61
7859.23
7858.85
7858.47
7858.09
7857.71
7857.34
7856.96
7856.58
7856.21
7855.83
7855.46
7855.08
7854.71
7854.34
7853.96
7853.59
7853.22
7852.85
7852.48
7852.11
7851.75
7851.38
7851.02
7850.65
7850.29
7849.92
7849.56
7849.2
7848.84
7848.48
7848.12
7847.77
7847.41
7847.05
7846.7
7846.34
7846.01
7845.62
7845.33
7844.85
8219.4
8231.62
8241.25
8249.77
8258.18
8266.56
8274.95
8283.29
8291.54
8299.68
8307.64
8315.48
8323.24
8330.96
8338.63
8346.05
8353.43
8360.82
8368.13
8375.35
8382.5
8389.58
8396.57
8403.45
8410.21
8416.86
8423.4
8429.84
8436.17
8442.41
8448.54
8454.57
8460.47
8466.28
8472
8477.62
8483.13
8488.54
8493.85
8499.05
8504.13
8509.06
8513.9
8518.75
8523.52
8528.13
8532.57
8536.8
8541.12
8545.43
8549.61
8553.65
8557.44
8560.34
8564.26
8568.47
8572.21
8575.67
8579.03
8582.27
8585.43
8588.51
8591.48
8594.35
8597.13
8599.73
8601.68
8604.32
8606.94
8609.32
8611.51
8613.55
8615.45
8617.27
8618.77
8619.84
8621.33
8622.8
8623.87
8624.73
8625.44
8626
8626.23
8626.31
8626.51
8626.81
8627.02
8627.08
8626.8
8626.33
8625.89
8625.34
8624.33
8622.88
8621.41
8626.05
8633.59
8621.78
8580.27
8606.96
8611.23
8601
8600.04
8597.11
8588.1
8586.18
8582.5
8577.87
8573.59
8568.9
8563.67
8558.51
8552.85
8545.2
8537.99
8530.29
8523.46
8530.02
8517.65
8487.27
8474.75
8462.06
8450.04
8439.38
8425
8408.46
8391.63
8374.66
8358.33
8341.15
8322.62
8304.16
8284.59
8265.9
8246.79
8232.32
8211.2
8181.48
8158.38
8134.66
8111.22
8088.74
8064.93
8040.21
8015.66
7991.37
7966.94
7943.17
7919.57
7896.02
7872.76
7849.92
7827.38
7805.45
7784.13
7763.29
7743
7723.34
7704.42
7686.15
7668.55
7651.69
7635.59
7620.18
7605.48
7591.48
7578.16
7565.58
7553.7
7542.44
7531.79
7521.74
7512.24
7503.34
7494.99
7487.1
7479.66
7472.61
7465.88
7459.77
7453.98
7448.45
7443.24
7438.31
7433.64
7429.18
7425.16
7421.61
7418.22
7415.16
7412.43
7409.97
7407.96
7406.45
7405.36
7404.58
7404.18
7404.14
7404.45
7405.2
7406.47
7408.04
7409.94
7412.13
7414.83
7417.83
7421.1
7424.63
7428.43
7432.6
7437.09
7441.89
7446.83
7452
7457.38
7462.92
7468.66
7474.62
7480.8
7487.09
7493.49
7499.96
7506.57
7513.35
7520.24
7527.14
7534.11
7541.14
7548.19
7555.23
7562.32
7569.48
7576.72
7583.89
7591.03
7598.16
7605.26
7612.3
7619.31
7626.38
7633.35
7640.26
7647.09
7653.83
7660.56
7667.28
7673.93
7680.47
7686.93
7693.31
7699.58
7705.81
7712
7718.15
7724.17
7730.1
7735.95
7741.69
7747.36
7753.04
7758.57
7764.02
7769.38
7774.62
7779.83
7785
7790.05
7795.01
7799.88
7804.65
7809.31
7813.91
7818.48
7822.93
7827.28
7831.54
7835.71
7839.78
7843.74
7847.64
7851.49
7855.21
7858.83
7862.37
7865.8
7869.12
7872.41
7875.59
7878.67
7881.65
7884.53
7887.37
7890.11
7892.75
7895.31
7897.79
7900.19
7902.51
7904.77
7906.95
7909.06
7911.1
7913.08
7914.99
7916.85
7918.66
7920.41
7922.09
7923.75
7925.35
7926.91
7928.42
7929.88
7931.31
7932.68
7934
7935.26
7936.47
7937.63
7938.71
7939.73
7940.68
7941.57
7942.38
7943.12
7943.78
7944.37
7944.89
7945.33
7945.7
7945.99
7946.22
7946.38
7946.47
7946.5
7946.45
7946.35
7946.19
7945.98
7945.71
7945.39
7945.02
7944.6
7944.15
7943.65
7943.11
7942.54
7941.94
7941.31
7940.64
7939.96
7939.25
7938.52
7937.78
7937.01
7936.23
7935.44
7934.64
7933.84
7933.02
7932.2
7931.37
7930.55
7929.72
7928.89
7928.06
7927.23
7926.41
7925.58
7924.77
7923.95
7923.15
7922.34
7921.55
7920.76
7919.98
7919.21
7918.44
7917.68
7916.93
7916.19
7915.46
7914.74
7914.02
7913.32
7912.62
7911.93
7911.26
7910.58
7909.93
7909.27
7908.63