/*--------------------------------*- C++ -*----------------------------------*\
| =========                 |                                                 |
| \\      /  F ield         | OpenFOAM: The Open Source CFD Toolbox           |
|  \\    /   O peration     | Version:  v2006                                 |
|   \\  /    A nd           | Website:  www.openfoam.com                      |
|    \\/     M anipulation  |                                                 |
\*---------------------------------------------------------------------------*/
FoamFile
{
    version     2.0;
    format      ascii;
    class       surfaceScalarField;
    location    "5";
    object      phi;
}
// * * * * * * * * * * * * * * * * * * * * * * * * * * * * * * * * * * * * * //

dimensions      [0 3 -1 0 0 0 0];
oriented        oriented;


internalField   nonuniform List<scalar> 
65390
(
4.45458e-05
-1.39444e-06
4.59011e-05
-1.35543e-06
4.70717e-05
-1.17067e-06
4.81115e-05
-1.03991e-06
4.91956e-05
-1.08409e-06
5.00353e-05
-8.39699e-07
5.03593e-05
-3.23932e-07
5.03099e-05
4.95258e-08
5.01947e-05
1.15334e-07
5.03737e-05
-1.78828e-07
5.18773e-05
-1.50343e-06
5.68459e-05
-4.96846e-06
6.51611e-05
-8.31494e-06
7.54492e-05
-1.02879e-05
8.69748e-05
-1.15254e-05
9.90695e-05
-1.20944e-05
0.000110282
-1.12125e-05
0.000118702
-8.4192e-06
0.000122602
-3.90013e-06
0.000120768
1.83411e-06
0.000114255
6.51279e-06
0.000106246
8.00878e-06
9.89538e-05
7.29232e-06
9.36421e-05
5.3116e-06
9.04723e-05
3.16962e-06
8.85305e-05
1.94156e-06
8.71648e-05
1.36543e-06
8.62632e-05
9.01208e-07
8.59127e-05
3.50157e-07
8.60697e-05
-1.57404e-07
8.65474e-05
-4.78015e-07
8.70789e-05
-5.31936e-07
8.74274e-05
-3.48918e-07
8.7565e-05
-1.38023e-07
8.7686e-05
-1.21364e-07
8.79559e-05
-2.70241e-07
8.833e-05
-3.74351e-07
8.86209e-05
-2.91104e-07
8.88143e-05
-1.93646e-07
8.9071e-05
-2.56845e-07
8.95883e-05
-5.17484e-07
9.03646e-05
-7.76324e-07
9.10562e-05
-6.91664e-07
9.13869e-05
-3.3066e-07
9.15061e-05
-1.19105e-07
9.16492e-05
-1.42951e-07
9.20368e-05
-3.87527e-07
9.26903e-05
-6.53279e-07
9.3342e-05
-6.51485e-07
9.37618e-05
-4.19524e-07
9.40153e-05
-2.53382e-07
9.42984e-05
-2.82842e-07
9.47244e-05
-4.25712e-07
9.52268e-05
-5.02235e-07
9.57021e-05
-4.75028e-07
9.61661e-05
-4.63824e-07
9.66707e-05
-5.04352e-07
9.72367e-05
-5.6581e-07
9.77712e-05
-5.34438e-07
9.80177e-05
-2.46382e-07
9.78011e-05
2.16683e-07
9.74633e-05
3.37847e-07
9.72362e-05
2.27086e-07
9.71001e-05
1.36109e-07
9.68947e-05
2.05321e-07
9.64317e-05
4.629e-07
9.59111e-05
5.20451e-07
9.56776e-05
2.33393e-07
9.57484e-05
-7.09664e-08
9.58409e-05
-9.26597e-08
9.57822e-05
5.86239e-08
9.53434e-05
4.38606e-07
9.44214e-05
9.21859e-07
9.30412e-05
1.38006e-06
9.05653e-05
2.47577e-06
8.67122e-05
3.85294e-06
8.00808e-05
6.63131e-06
6.94166e-05
1.06641e-05
6.02355e-05
9.18107e-06
5.65621e-05
3.67345e-06
5.38743e-05
2.68774e-06
5.24052e-05
1.46912e-06
4.9461e-05
2.9442e-06
4.68811e-05
2.57982e-06
4.61477e-05
7.33355e-07
4.4717e-05
1.43068e-06
4.35662e-05
1.15074e-06
4.30939e-05
4.72297e-07
4.33341e-05
-2.40163e-07
4.3416e-05
-8.18494e-08
4.34359e-05
-1.99124e-08
4.34911e-05
-5.51779e-08
4.32872e-05
2.03926e-07
4.29311e-05
3.5618e-07
4.22382e-05
6.92994e-07
4.13175e-05
9.20688e-07
3.95987e-05
1.71887e-06
3.74139e-05
2.18486e-06
3.32803e-05
4.13367e-06
2.77638e-05
5.51662e-06
2.31466e-05
4.61721e-06
2.07093e-05
2.43736e-06
2.0347e-05
3.62434e-07
2.01387e-05
2.08376e-07
2.07785e-05
-6.39682e-07
2.17908e-05
-1.01227e-06
2.23149e-05
-5.24081e-07
2.22649e-05
5.00647e-08
2.22023e-05
6.25735e-08
2.24308e-05
-2.28424e-07
2.26135e-05
-1.82637e-07
2.29366e-05
-3.2299e-07
2.32169e-05
-2.80188e-07
2.33636e-05
-1.46608e-07
2.31904e-05
1.73307e-07
2.27942e-05
3.9631e-07
2.14507e-05
1.34354e-06
1.97643e-05
1.68643e-06
1.87599e-05
1.00433e-06
1.86703e-05
8.94019e-08
1.90977e-05
-4.27575e-07
1.9317e-05
-2.19531e-07
1.98225e-05
-5.05737e-07
2.04288e-05
-6.06526e-07
2.07683e-05
-3.39775e-07
2.10568e-05
-2.88736e-07
2.1346e-05
-2.89334e-07
2.15869e-05
-2.41063e-07
2.18548e-05
-2.67936e-07
2.21221e-05
-2.6737e-07
2.23455e-05
-2.23326e-07
2.25452e-05
-1.99532e-07
2.27162e-05
-1.70881e-07
2.28638e-05
-1.47369e-07
2.29914e-05
-1.27356e-07
2.3108e-05
-1.16292e-07
2.32148e-05
-1.06582e-07
2.33036e-05
-8.86602e-08
2.3372e-05
-6.83183e-08
2.34174e-05
-4.5311e-08
2.3437e-05
-1.96318e-08
2.3433e-05
3.88812e-09
2.34054e-05
2.74337e-08
2.33483e-05
5.69097e-08
2.32599e-05
8.82036e-08
2.31461e-05
1.13588e-07
2.30078e-05
1.3809e-07
2.28407e-05
1.67044e-07
2.26418e-05
1.98772e-07
2.24094e-05
2.32399e-07
2.21494e-05
2.60068e-07
2.18657e-05
2.83734e-07
2.15543e-05
3.11529e-07
2.12115e-05
3.4295e-07
2.08367e-05
3.74957e-07
2.04314e-05
4.05332e-07
1.99992e-05
4.32363e-07
1.95393e-05
4.59907e-07
1.90471e-05
4.92191e-07
1.85246e-05
5.2251e-07
1.79749e-05
5.49556e-07
1.73965e-05
5.78352e-07
1.67832e-05
6.13308e-07
1.61363e-05
6.46866e-07
1.5463e-05
6.73212e-07
1.47633e-05
6.99649e-07
1.40288e-05
7.34472e-07
1.32565e-05
7.72322e-07
1.24604e-05
7.96041e-07
1.16439e-05
8.16519e-07
1.08007e-05
8.43192e-07
9.92754e-06
8.73144e-07
9.02868e-06
8.98891e-07
8.11714e-06
9.11589e-07
7.20431e-06
9.12888e-07
6.28638e-06
9.17994e-07
5.36115e-06
9.25289e-07
4.43758e-06
9.23619e-07
3.52639e-06
9.11213e-07
2.63829e-06
8.88101e-07
1.77422e-06
8.64061e-07
9.3406e-07
8.40175e-07
1.2494e-07
8.0917e-07
-6.40199e-07
7.65196e-07
-1.36439e-06
7.24212e-07
-2.06075e-06
6.96319e-07
-2.73118e-06
6.7036e-07
-3.37265e-06
6.41433e-07
-3.9831e-06
6.10483e-07
-4.56346e-06
5.80433e-07
-5.11645e-06
5.53012e-07
-5.64411e-06
5.27573e-07
-6.15184e-06
5.07553e-07
-6.63766e-06
4.85609e-07
-7.10114e-06
4.63329e-07
-7.54287e-06
4.41713e-07
-7.96165e-06
4.1892e-07
-8.35729e-06
3.95887e-07
-8.73294e-06
3.75912e-07
-9.09283e-06
3.60018e-07
-9.43872e-06
3.45817e-07
-9.76782e-06
3.28822e-07
-1.0078e-05
3.09823e-07
-1.03679e-05
2.89458e-07
-1.06402e-05
2.72206e-07
-1.08985e-05
2.58271e-07
-1.11437e-05
2.45339e-07
-1.13749e-05
2.31479e-07
-1.15911e-05
2.16322e-07
-1.17908e-05
1.99653e-07
-1.19772e-05
1.86326e-07
-1.2154e-05
1.76688e-07
-1.23208e-05
1.66686e-07
-1.24722e-05
1.51404e-07
-1.26079e-05
1.35778e-07
-1.27311e-05
1.23387e-07
-1.28446e-05
1.13658e-07
-1.2951e-05
1.06549e-07
-1.3049e-05
9.81244e-08
-1.31359e-05
8.68146e-08
-1.32098e-05
7.39463e-08
-1.32718e-05
6.19421e-08
-1.33247e-05
5.29208e-08
-1.33707e-05
4.61025e-08
-1.3411e-05
4.04462e-08
-1.34434e-05
3.24227e-08
-1.34664e-05
2.3133e-08
-1.34808e-05
1.43929e-08
-1.34868e-05
5.88488e-09
-1.34852e-05
-1.60298e-09
-1.34785e-05
-6.67506e-09
-1.34679e-05
-1.05954e-08
-1.3451e-05
-1.68681e-08
-1.34265e-05
-2.44429e-08
-1.33959e-05
-3.0561e-08
-1.33591e-05
-3.6769e-08
-1.33172e-05
-4.19094e-08
-1.3272e-05
-4.52149e-08
-1.32232e-05
-4.88519e-08
-1.3169e-05
-5.41855e-08
-1.31106e-05
-5.83057e-08
-1.30497e-05
-6.08551e-08
-1.29856e-05
-6.40716e-08
-1.29172e-05
-6.84307e-08
-1.28438e-05
-7.33977e-08
-1.27668e-05
-7.69691e-08
-1.26881e-05
-7.87027e-08
-1.26097e-05
-7.84063e-08
-1.25283e-05
-8.13672e-08
-1.24412e-05
-8.71401e-08
-1.23509e-05
-9.0308e-08
-1.2259e-05
-9.19008e-08
-1.21656e-05
-9.33672e-08
-1.20704e-05
-9.52159e-08
-1.1973e-05
-9.74192e-08
-1.18727e-05
-1.00224e-07
-1.17692e-05
-1.03503e-07
-1.16634e-05
-1.05796e-07
-1.1555e-05
-1.08328e-07
-1.14448e-05
-1.10219e-07
-1.13331e-05
-1.11739e-07
-1.12177e-05
-1.15398e-07
-1.1098e-05
-1.19661e-07
-1.09743e-05
-1.23654e-07
-1.0848e-05
-1.26322e-07
-1.07207e-05
-1.27369e-07
-1.05919e-05
-1.28809e-07
-1.04599e-05
-1.31953e-07
-1.0322e-05
-1.37915e-07
-1.01777e-05
-1.4427e-07
-1.00293e-05
-1.48477e-07
-9.87744e-06
-1.51821e-07
-9.72348e-06
-1.5397e-07
-9.56667e-06
-1.56814e-07
-9.40397e-06
-1.62708e-07
-9.23538e-06
-1.68602e-07
-9.06157e-06
-1.73819e-07
-8.8829e-06
-1.78682e-07
-8.69874e-06
-1.84172e-07
-8.50804e-06
-1.90714e-07
-8.31115e-06
-1.96901e-07
-8.11045e-06
-2.007e-07
-7.90627e-06
-2.04194e-07
-7.69483e-06
-2.11447e-07
-7.4756e-06
-2.19246e-07
-7.24858e-06
-2.27017e-07
-7.01489e-06
-2.33699e-07
-6.77534e-06
-2.39539e-07
-6.53062e-06
-2.44719e-07
-6.28147e-06
-2.49151e-07
-6.02539e-06
-2.56078e-07
-5.76168e-06
-2.63709e-07
-5.49064e-06
-2.71044e-07
-5.21295e-06
-2.77684e-07
-4.93082e-06
-2.82124e-07
-4.64592e-06
-2.84879e-07
-4.35515e-06
-2.90763e-07
-4.0593e-06
-2.95836e-07
-3.7593e-06
-2.99986e-07
-3.45471e-06
-3.04567e-07
-3.14824e-06
-3.0645e-07
-2.84095e-06
-3.07276e-07
-2.53194e-06
-3.08996e-07
-2.22204e-06
-3.0988e-07
-1.91172e-06
-3.10315e-07
-1.60402e-06
-3.07689e-07
-1.29915e-06
-3.04846e-07
-9.97315e-07
-3.0182e-07
-6.9918e-07
-2.98115e-07
-4.06108e-07
-2.93052e-07
-1.20496e-07
-2.85592e-07
1.56938e-07
-2.77415e-07
4.26537e-07
-2.69581e-07
6.89353e-07
-2.62798e-07
9.45075e-07
-2.55705e-07
1.19251e-06
-2.47423e-07
1.43183e-06
-2.3931e-07
1.6636e-06
-2.31766e-07
1.88803e-06
-2.24425e-07
2.10494e-06
-2.16908e-07
2.31372e-06
-2.08779e-07
2.51451e-06
-2.00784e-07
2.70798e-06
-1.93452e-07
2.89424e-06
-1.86252e-07
3.07284e-06
-1.7859e-07
3.24339e-06
-1.70538e-07
3.40635e-06
-1.62957e-07
3.56231e-06
-1.55956e-07
3.7112e-06
-1.48897e-07
3.85264e-06
-1.41451e-07
3.98643e-06
-1.33801e-07
4.11264e-06
-1.26221e-07
4.23182e-06
-1.19196e-07
4.3444e-06
-1.12591e-07
4.45047e-06
-1.06079e-07
4.5499e-06
-9.9446e-08
4.64263e-06
-9.27383e-08
4.72865e-06
-8.60392e-08
4.80823e-06
-7.96053e-08
4.8818e-06
-7.36041e-08
4.94958e-06
-6.78122e-08
5.0116e-06
-6.20526e-08
5.06784e-06
-5.62678e-08
5.11817e-06
-5.03466e-08
5.1631e-06
-4.49485e-08
5.20312e-06
-4.00405e-08
5.23843e-06
-3.53213e-08
5.26889e-06
-3.04877e-08
5.29445e-06
-2.55857e-08
5.31539e-06
-2.09653e-08
5.33215e-06
-1.67719e-08
5.34504e-06
-1.29059e-08
5.35398e-06
-8.94842e-09
5.35896e-06
-4.99768e-09
5.36029e-06
-1.37525e-09
5.35837e-06
1.8672e-09
5.35329e-06
5.01116e-09
5.34502e-06
8.20553e-09
5.33377e-06
1.12069e-08
5.31987e-06
1.3886e-08
5.30343e-06
1.64629e-08
5.28452e-06
1.89533e-08
5.26325e-06
2.13249e-08
5.2397e-06
2.36089e-08
5.2141e-06
2.56366e-08
5.18666e-06
2.7472e-08
5.15748e-06
2.91783e-08
5.12662e-06
3.08422e-08
5.09413e-06
3.24552e-08
5.06015e-06
3.3945e-08
5.0248e-06
3.53134e-08
4.98838e-06
3.63968e-08
4.95098e-06
3.74004e-08
4.91256e-06
3.84424e-08
4.87319e-06
3.93894e-08
4.83301e-06
4.02007e-08
4.79207e-06
4.09541e-08
4.75042e-06
4.16553e-08
4.70804e-06
4.23668e-08
4.66511e-06
4.29214e-08
4.62182e-06
4.32856e-08
4.57827e-06
4.35427e-08
4.53446e-06
4.38016e-08
4.49038e-06
4.40833e-08
4.44602e-06
4.43556e-08
4.40143e-06
4.45763e-08
4.35672e-06
4.47035e-08
4.312e-06
4.47178e-08
4.26739e-06
4.46044e-08
4.22272e-06
4.46629e-08
4.17786e-06
4.48594e-08
4.13316e-06
4.46992e-08
4.08876e-06
4.43938e-08
4.04433e-06
4.44273e-08
3.99996e-06
4.43681e-08
3.95581e-06
4.41301e-08
3.91174e-06
4.40584e-08
3.86767e-06
4.40473e-08
3.82376e-06
4.3894e-08
3.78012e-06
4.36162e-08
3.73683e-06
4.3261e-08
3.69389e-06
4.29157e-08
3.65122e-06
4.26462e-08
3.60875e-06
4.24488e-08
3.56673e-06
4.19894e-08
3.52495e-06
4.17682e-08
3.48395e-06
4.09825e-08
3.44353e-06
4.04163e-08
3.4038e-06
3.97246e-08
3.36445e-06
3.93543e-08
3.32544e-06
3.90108e-08
3.28684e-06
3.86067e-08
3.24835e-06
3.84995e-08
3.21081e-06
3.75413e-08
3.17363e-06
3.71839e-08
3.1355e-06
3.81398e-08
3.09828e-06
3.72181e-08
3.05933e-06
3.89533e-08
3.01964e-06
3.96936e-08
2.98519e-06
3.44552e-08
2.95005e-06
3.51287e-08
2.91199e-06
3.80579e-08
2.87954e-06
3.24449e-08
2.82814e-06
5.13926e-08
2.7726e-06
5.55335e-08
2.75082e-06
2.17688e-08
2.71306e-06
3.77525e-08
2.69337e-06
1.96891e-08
2.70145e-06
-8.08127e-09
2.76573e-06
-6.42937e-08
2.83889e-06
-7.31631e-08
2.85848e-06
-1.95891e-08
2.87088e-06
-1.23979e-08
2.86512e-06
5.75245e-09
2.85386e-06
1.12642e-08
2.83542e-06
1.84365e-08
2.81559e-06
1.98301e-08
2.79244e-06
2.31444e-08
2.76799e-06
2.44487e-08
2.73923e-06
2.87544e-08
2.71152e-06
2.7709e-08
2.67575e-06
3.57613e-08
2.63827e-06
3.74795e-08
2.61126e-06
2.70044e-08
2.57812e-06
3.31401e-08
2.54626e-06
3.18528e-08
2.52115e-06
2.51056e-08
2.5065e-06
1.46474e-08
2.49131e-06
1.51878e-08
2.46219e-06
2.91154e-08
2.43126e-06
3.09191e-08
2.39933e-06
3.19223e-08
2.36367e-06
3.56503e-08
2.33108e-06
3.25849e-08
2.29365e-06
3.742e-08
2.25931e-06
3.43265e-08
2.21579e-06
4.35119e-08
2.17212e-06
4.36645e-08
2.13714e-06
3.49705e-08
2.09539e-06
4.17408e-08
2.05545e-06
3.99358e-08
2.02454e-06
3.09059e-08
1.9242e-06
1.00334e-07
1.8369e-06
8.72971e-08
1.81958e-06
1.73172e-08
1.72927e-06
9.03164e-08
1.78106e-06
-5.17829e-08
1.85279e-06
-7.16904e-08
2.29837e-06
-4.45543e-07
2.84391e-06
-5.45454e-07
3.15805e-06
-3.14001e-07
3.35987e-06
-2.017e-07
3.49599e-06
-1.36005e-07
3.58446e-06
-8.83672e-08
3.64155e-06
-5.69946e-08
3.67634e-06
-3.47146e-08
3.69504e-06
-1.86214e-08
3.70197e-06
-6.86549e-09
3.69998e-06
2.05525e-09
3.69103e-06
9.00845e-09
3.67643e-06
1.46497e-08
3.65719e-06
1.92769e-08
3.63402e-06
2.32096e-08
3.60739e-06
2.66662e-08
3.57772e-06
2.97022e-08
3.54545e-06
3.22986e-08
3.51099e-06
3.44849e-08
3.47467e-06
3.63418e-08
3.43671e-06
3.79817e-08
3.39724e-06
3.94857e-08
3.35636e-06
4.08929e-08
3.31421e-06
4.21687e-08
3.2709e-06
4.33133e-08
3.22661e-06
4.43015e-08
3.18173e-06
4.48874e-08
3.13597e-06
4.57747e-08
3.08953e-06
4.64413e-08
3.04256e-06
4.69719e-08
2.99518e-06
4.73909e-08
2.94755e-06
4.76342e-08
2.8998e-06
4.77561e-08
2.85197e-06
4.78373e-08
2.80403e-06
4.79396e-08
2.75595e-06
4.80837e-08
2.70771e-06
4.8251e-08
2.65914e-06
4.85686e-08
2.61011e-06
4.90334e-08
2.56089e-06
4.92219e-08
2.51134e-06
4.95603e-08
2.46137e-06
4.99708e-08
2.41096e-06
5.04081e-08
2.36009e-06
5.08791e-08
2.30873e-06
5.13591e-08
2.25694e-06
5.17867e-08
2.20484e-06
5.2108e-08
2.15252e-06
5.23129e-08
2.10015e-06
5.23767e-08
2.04781e-06
5.23365e-08
1.9956e-06
5.22158e-08
1.94353e-06
5.2067e-08
1.89157e-06
5.19625e-08
1.83955e-06
5.20168e-08
1.78724e-06
5.23116e-08
1.73447e-06
5.27651e-08
1.68137e-06
5.31011e-08
1.62828e-06
5.30924e-08
1.57556e-06
5.27189e-08
1.52317e-06
5.23834e-08
1.47052e-06
5.26512e-08
1.41713e-06
5.33914e-08
1.3629e-06
5.42299e-08
1.30839e-06
5.4505e-08
1.25458e-06
5.38084e-08
1.20134e-06
5.32425e-08
1.14779e-06
5.35511e-08
1.09344e-06
5.43472e-08
1.03883e-06
5.46125e-08
9.85237e-07
5.3591e-08
9.32473e-07
5.27636e-08
8.79483e-07
5.29894e-08
8.26005e-07
5.34753e-08
7.73058e-07
5.29447e-08
7.20828e-07
5.22286e-08
6.68332e-07
5.24968e-08
6.14603e-07
5.373e-08
5.59895e-07
5.47071e-08
5.06211e-07
5.3682e-08
4.49322e-07
5.68885e-08
3.92006e-07
5.73175e-08
6.46599e-08
4.46112e-05
-2.82121e-06
4.59801e-05
-2.72415e-06
4.72083e-05
-2.39882e-06
4.83458e-05
-2.17743e-06
4.94146e-05
-2.15291e-06
5.04271e-05
-1.85228e-06
5.13925e-05
-1.28938e-06
5.23023e-05
-8.60421e-07
5.32877e-05
-8.70188e-07
5.48497e-05
-1.741e-06
5.84473e-05
-5.10119e-06
6.41671e-05
-1.06885e-05
7.02182e-05
-1.43662e-05
7.62046e-05
-1.62745e-05
8.18845e-05
-1.72055e-05
8.67375e-05
-1.69476e-05
8.95403e-05
-1.40154e-05
9.00852e-05
-8.96416e-06
8.8986e-05
-2.801e-06
8.84807e-05
2.33941e-06
8.90302e-05
5.96342e-06
8.94953e-05
7.54384e-06
8.94355e-05
7.35228e-06
8.87574e-05
5.99001e-06
8.78191e-05
4.10827e-06
8.70267e-05
2.73436e-06
8.65284e-05
1.86418e-06
8.62276e-05
1.20259e-06
8.60679e-05
5.10412e-07
8.60607e-05
-1.49595e-07
8.61829e-05
-5.99557e-07
8.64758e-05
-8.24172e-07
8.69501e-05
-8.22531e-07
8.74066e-05
-5.93947e-07
8.77092e-05
-4.23407e-07
8.78893e-05
-4.49837e-07
8.81101e-05
-5.94737e-07
8.84403e-05
-6.20967e-07
8.88142e-05
-5.67259e-07
8.92828e-05
-7.25201e-07
8.98231e-05
-1.05771e-06
9.03502e-05
-1.30335e-06
9.09419e-05
-1.28346e-06
9.15119e-05
-9.00777e-07
9.19419e-05
-5.49368e-07
9.23182e-05
-5.1963e-07
9.27609e-05
-8.30601e-07
9.32562e-05
-1.14896e-06
9.38099e-05
-1.20569e-06
9.43197e-05
-9.29882e-07
9.46675e-05
-6.01677e-07
9.49285e-05
-5.44337e-07
9.51841e-05
-6.81871e-07
9.54968e-05
-8.15387e-07
9.58574e-05
-8.36137e-07
9.62528e-05
-8.59705e-07
9.66689e-05
-9.20934e-07
9.70581e-05
-9.55507e-07
9.73575e-05
-8.34258e-07
9.74874e-05
-3.76614e-07
9.75799e-05
1.23808e-07
9.76522e-05
2.65249e-07
9.76314e-05
2.47594e-07
9.75272e-05
2.40163e-07
9.72814e-05
4.50936e-07
9.68303e-05
9.13926e-07
9.63633e-05
9.8732e-07
9.59665e-05
6.30201e-07
9.56725e-05
2.23065e-07
9.53524e-05
2.27496e-07
9.48141e-05
5.96983e-07
9.3814e-05
1.43879e-06
9.26909e-05
2.04511e-06
9.15711e-05
2.50004e-06
9.10205e-05
3.02654e-06
9.10116e-05
3.862e-06
9.23843e-05
5.25879e-06
9.5442e-05
7.60639e-06
9.25362e-05
1.20869e-05
8.47749e-05
1.14348e-05
7.41578e-05
1.33048e-05
6.39984e-05
1.16285e-05
5.98448e-05
7.09779e-06
5.5777e-05
6.64754e-06
5.30186e-05
3.49174e-06
4.98495e-05
4.59979e-06
4.67102e-05
4.29004e-06
4.52766e-05
1.90601e-06
4.56114e-05
-5.74983e-07
4.48873e-05
6.4228e-07
4.43383e-05
5.29181e-07
4.4161e-05
1.22191e-07
4.39583e-05
4.06709e-07
4.3829e-05
4.85513e-07
4.38151e-05
7.07017e-07
4.34911e-05
1.24479e-06
4.31522e-05
2.05792e-06
4.25954e-05
2.74179e-06
4.29351e-05
3.79413e-06
4.2512e-05
5.93977e-06
4.09034e-05
6.226e-06
3.67111e-05
6.62976e-06
3.07128e-05
6.3608e-06
2.58207e-05
5.10047e-06
2.2659e-05
2.52209e-06
2.12228e-05
4.24057e-07
2.07898e-05
-9.10078e-08
2.05256e-05
3.14398e-07
2.12735e-05
-6.85153e-07
2.26085e-05
-1.56318e-06
2.33589e-05
-9.32843e-07
2.36381e-05
-6.01984e-07
2.37847e-05
-4.26553e-07
2.37932e-05
-1.54924e-07
2.4026e-05
-5.93812e-08
2.4313e-05
1.09382e-07
2.49237e-05
7.32842e-07
2.52187e-05
1.39137e-06
2.49433e-05
1.27958e-06
2.35124e-05
1.52002e-06
2.1624e-05
1.46054e-06
2.05096e-05
8.94588e-07
2.01478e-05
-1.4416e-07
2.02343e-05
-6.93397e-07
2.03345e-05
-4.40237e-07
2.08124e-05
-7.66793e-07
2.14094e-05
-8.86479e-07
2.17451e-05
-5.76832e-07
2.19752e-05
-4.98048e-07
2.21687e-05
-4.60794e-07
2.23257e-05
-3.80125e-07
2.25233e-05
-3.96786e-07
2.27247e-05
-3.71976e-07
2.28999e-05
-3.22258e-07
2.30361e-05
-2.63315e-07
2.31442e-05
-2.24153e-07
2.32399e-05
-2.0212e-07
2.33184e-05
-1.67006e-07
2.33857e-05
-1.35684e-07
2.34368e-05
-9.64458e-08
2.3465e-05
-4.79671e-08
2.34645e-05
4.16959e-09
2.34348e-05
5.68437e-08
2.33764e-05
1.15067e-07
2.32908e-05
1.73576e-07
2.31789e-05
2.25315e-07
2.30387e-05
2.78286e-07
2.2867e-05
3.38692e-07
2.26638e-05
4.02033e-07
2.24317e-05
4.64651e-07
2.2173e-05
5.18916e-07
2.18862e-05
5.70656e-07
2.15687e-05
6.29214e-07
2.1218e-05
6.93755e-07
2.08375e-05
7.55495e-07
2.04316e-05
8.11339e-07
1.99977e-05
8.66279e-07
1.95317e-05
9.2591e-07
1.90329e-05
9.91022e-07
1.8504e-05
1.05134e-06
1.79474e-05
1.10612e-06
1.7362e-05
1.16373e-06
1.67434e-05
1.23188e-06
1.60924e-05
1.29787e-06
1.54135e-05
1.35208e-06
1.47074e-05
1.40574e-06
1.39681e-05
1.47378e-06
1.31962e-05
1.5443e-06
1.23983e-05
1.59401e-06
1.15785e-05
1.63642e-06
1.07337e-05
1.68804e-06
9.86357e-06
1.7433e-06
8.97563e-06
1.78688e-06
8.07502e-06
1.81224e-06
7.16738e-06
1.82054e-06
6.25633e-06
1.82906e-06
5.34347e-06
1.83817e-06
4.43787e-06
1.82927e-06
3.54698e-06
1.80218e-06
2.67012e-06
1.76502e-06
1.81076e-06
1.72342e-06
9.76965e-07
1.67391e-06
1.75204e-07
1.61084e-06
-5.91359e-07
1.53169e-06
-1.32563e-06
1.45846e-06
-2.02752e-06
1.39821e-06
-2.69866e-06
1.34149e-06
-3.34321e-06
1.28593e-06
-3.96158e-06
1.22878e-06
-4.55161e-06
1.17038e-06
-5.11292e-06
1.11427e-06
-5.64509e-06
1.05972e-06
-6.15169e-06
1.01416e-06
-6.6355e-06
9.69471e-07
-7.09953e-06
9.27415e-07
-7.54463e-06
8.86845e-07
-7.96802e-06
8.42288e-07
-8.36783e-06
7.95583e-07
-8.74671e-06
7.54587e-07
-9.10808e-06
7.21128e-07
-9.45338e-06
6.90876e-07
-9.78095e-06
6.56263e-07
-1.00893e-05
6.18174e-07
-1.03803e-05
5.80662e-07
-1.06555e-05
5.47752e-07
-1.09162e-05
5.19174e-07
-1.11621e-05
4.91432e-07
-1.13923e-05
4.61757e-07
-1.16066e-05
4.30512e-07
-1.18072e-05
4.00224e-07
-1.19959e-05
3.74982e-07
-1.21734e-05
3.54209e-07
-1.23374e-05
3.30886e-07
-1.24871e-05
3.01315e-07
-1.26237e-05
2.72555e-07
-1.27488e-05
2.48635e-07
-1.28631e-05
2.28111e-07
-1.29679e-05
2.11367e-07
-1.30635e-05
1.93683e-07
-1.31492e-05
1.72482e-07
-1.32234e-05
1.48222e-07
-1.32865e-05
1.25069e-07
-1.33407e-05
1.07225e-07
-1.33866e-05
9.20866e-08
-1.34246e-05
7.85736e-08
-1.34549e-05
6.27817e-08
-1.34775e-05
4.57051e-08
-1.34916e-05
2.85884e-08
-1.34984e-05
1.26472e-08
-1.34978e-05
-2.1249e-09
-1.34906e-05
-1.38955e-08
-1.34779e-05
-2.32977e-08
-1.34598e-05
-3.48757e-08
-1.34351e-05
-4.9129e-08
-1.34038e-05
-6.18366e-08
-1.33663e-05
-7.41779e-08
-1.33239e-05
-8.43069e-08
-1.32778e-05
-9.12818e-08
-1.32286e-05
-9.80363e-08
-1.31756e-05
-1.07079e-07
-1.31182e-05
-1.15701e-07
-1.30562e-05
-1.22897e-07
-1.29894e-05
-1.30818e-07
-1.29193e-05
-1.38514e-07
-1.28465e-05
-1.46214e-07
-1.27709e-05
-1.52573e-07
-1.26925e-05
-1.57096e-07
-1.2612e-05
-1.58882e-07
-1.2529e-05
-1.64401e-07
-1.24422e-05
-1.73924e-07
-1.23521e-05
-1.80398e-07
-1.22604e-05
-1.83568e-07
-1.21677e-05
-1.86119e-07
-1.20725e-05
-1.90414e-07
-1.19736e-05
-1.96285e-07
-1.18716e-05
-2.02229e-07
-1.17674e-05
-2.07633e-07
-1.16616e-05
-2.11583e-07
-1.15544e-05
-2.15514e-07
-1.14456e-05
-2.19038e-07
-1.13332e-05
-2.24164e-07
-1.12159e-05
-2.32671e-07
-1.10956e-05
-2.3998e-07
-1.09727e-05
-2.46526e-07
-1.08475e-05
-2.51552e-07
-1.07203e-05
-2.54548e-07
-1.05902e-05
-2.5891e-07
-1.04563e-05
-2.65845e-07
-1.03178e-05
-2.76453e-07
-1.01741e-05
-2.87985e-07
-1.00267e-05
-2.95899e-07
-9.87616e-06
-3.02356e-07
-9.72168e-06
-3.08468e-07
-9.56255e-06
-3.15966e-07
-9.3987e-06
-3.26576e-07
-9.23013e-06
-3.37194e-07
-9.0571e-06
-3.46869e-07
-8.87851e-06
-3.57285e-07
-8.69377e-06
-3.68932e-07
-8.50298e-06
-3.81528e-07
-8.30674e-06
-3.93152e-07
-8.10594e-06
-4.01502e-07
-7.90009e-06
-4.10053e-07
-7.68753e-06
-4.24e-07
-7.46738e-06
-4.39392e-07
-7.24065e-06
-4.53755e-07
-7.00826e-06
-4.66094e-07
-6.7702e-06
-4.77603e-07
-6.52539e-06
-4.89537e-07
-6.27413e-06
-5.00412e-07
-6.01656e-06
-5.1365e-07
-5.75248e-06
-5.27777e-07
-5.48265e-06
-5.40862e-07
-5.20738e-06
-5.52952e-07
-4.92629e-06
-5.63203e-07
-4.63986e-06
-5.71299e-07
-4.34799e-06
-5.82627e-07
-4.05247e-06
-5.91348e-07
-3.75451e-06
-5.97938e-07
-3.45283e-06
-6.06227e-07
-3.14712e-06
-6.1215e-07
-2.8388e-06
-6.15582e-07
-2.53006e-06
-6.17718e-07
-2.22262e-06
-6.17297e-07
-1.91533e-06
-6.17575e-07
-1.60829e-06
-6.14707e-07
-1.30361e-06
-6.09495e-07
-1.00314e-06
-6.0226e-07
-7.07184e-07
-5.94044e-07
-4.16162e-07
-5.84053e-07
-1.30961e-07
-5.70778e-07
1.47861e-07
-5.56227e-07
4.1898e-07
-5.40693e-07
6.82513e-07
-5.26328e-07
9.38991e-07
-5.12181e-07
1.18814e-06
-4.96576e-07
1.42948e-06
-4.80645e-07
1.66268e-06
-4.64961e-07
1.88775e-06
-4.49498e-07
2.10522e-06
-4.34371e-07
2.31527e-06
-4.18821e-07
2.51779e-06
-4.03291e-07
2.7125e-06
-3.88156e-07
2.89933e-06
-3.73064e-07
3.07822e-06
-3.57468e-07
3.24958e-06
-3.41891e-07
3.4136e-06
-3.26974e-07
3.57025e-06
-3.12603e-07
3.71938e-06
-2.98027e-07
3.86092e-06
-2.8299e-07
3.99506e-06
-2.67947e-07
4.122e-06
-2.53164e-07
4.24183e-06
-2.39038e-07
4.35469e-06
-2.25465e-07
4.46069e-06
-2.121e-07
4.55993e-06
-1.98707e-07
4.65261e-06
-1.85434e-07
4.73884e-06
-1.72292e-07
4.81867e-06
-1.59459e-07
4.89222e-06
-1.47181e-07
4.95972e-06
-1.35348e-07
5.02136e-06
-1.23743e-07
5.07729e-06
-1.12248e-07
5.12764e-06
-1.00767e-07
5.17269e-06
-9.0062e-08
5.21259e-06
-8.00014e-08
5.24748e-06
-7.02487e-08
5.27749e-06
-6.052e-08
5.30283e-06
-5.09303e-08
5.32373e-06
-4.18696e-08
5.34034e-06
-3.33951e-08
5.35282e-06
-2.5408e-08
5.36136e-06
-1.75242e-08
5.36616e-06
-9.8523e-09
5.36735e-06
-2.61627e-09
5.36508e-06
4.09026e-09
5.35958e-06
1.04792e-08
5.35105e-06
1.67136e-08
5.33964e-06
2.26113e-08
5.32544e-06
2.80859e-08
5.30853e-06
3.33868e-08
5.28916e-06
3.83455e-08
5.2676e-06
4.29024e-08
5.24392e-06
4.7304e-08
5.21817e-06
5.13777e-08
5.19047e-06
5.51587e-08
5.16096e-06
5.86594e-08
5.12983e-06
6.1947e-08
5.09716e-06
6.51021e-08
5.06306e-06
6.80254e-08
5.02764e-06
7.07338e-08
4.99105e-06
7.30043e-08
4.95342e-06
7.50545e-08
4.9148e-06
7.7095e-08
4.8752e-06
7.90072e-08
4.83473e-06
8.06728e-08
4.7935e-06
8.21875e-08
4.75168e-06
8.34716e-08
4.70932e-06
8.47136e-08
4.66643e-06
8.58057e-08
4.62302e-06
8.66825e-08
4.57925e-06
8.73029e-08
4.53524e-06
8.78082e-08
4.49097e-06
8.83476e-08
4.44643e-06
8.88854e-08
4.40177e-06
8.92265e-08
4.35708e-06
8.9386e-08
4.31232e-06
8.94801e-08
4.26751e-06
8.9403e-08
4.22274e-06
8.94356e-08
4.17807e-06
8.95286e-08
4.13342e-06
8.93348e-08
4.08886e-06
8.8949e-08
4.04424e-06
8.90256e-08
3.99984e-06
8.87444e-08
3.95555e-06
8.8392e-08
3.91152e-06
8.80606e-08
3.86758e-06
8.79485e-08
3.82382e-06
8.76138e-08
3.78005e-06
8.73373e-08
3.73672e-06
8.65516e-08
3.69348e-06
8.61088e-08
3.65075e-06
8.53376e-08
3.60815e-06
8.50187e-08
3.56628e-06
8.38283e-08
3.5242e-06
8.38253e-08
3.48293e-06
8.22438e-08
3.44178e-06
8.1556e-08
3.40144e-06
8.00699e-08
3.36274e-06
7.80533e-08
3.32436e-06
7.74011e-08
3.28752e-06
7.54624e-08
3.24896e-06
7.70662e-08
3.21148e-06
7.5036e-08
3.17159e-06
7.70768e-08
3.13205e-06
7.76921e-08
3.09778e-06
7.14856e-08
3.06508e-06
7.16582e-08
3.02874e-06
7.60281e-08
2.99453e-06
6.86597e-08
2.9395e-06
9.01586e-08
2.88198e-06
9.55637e-08
2.86123e-06
5.31771e-08
2.84384e-06
6.87707e-08
2.8462e-06
5.31642e-08
2.85622e-06
1.1734e-08
2.92879e-06
-3.48308e-08
3.00379e-06
-5.53198e-08
3.01837e-06
-2.26688e-08
2.99994e-06
-4.58627e-08
2.96108e-06
-3.43126e-08
2.94138e-06
1.12048e-10
2.91663e-06
1.23474e-08
2.89729e-06
2.50872e-08
2.87511e-06
3.34411e-08
2.85254e-06
4.10057e-08
2.82711e-06
4.52549e-08
2.80215e-06
4.80972e-08
2.76818e-06
5.84157e-08
2.73382e-06
6.31102e-08
2.71091e-06
5.06056e-08
2.68756e-06
5.91086e-08
2.66438e-06
6.06595e-08
2.64156e-06
4.98205e-08
2.63265e-06
4.20366e-08
2.62335e-06
4.11534e-08
2.59244e-06
5.60066e-08
2.55637e-06
5.07075e-08
2.51517e-06
5.63812e-08
2.48211e-06
6.21604e-08
2.44137e-06
7.16476e-08
2.40657e-06
6.67152e-08
2.3584e-06
8.38043e-08
2.3178e-06
7.31747e-08
2.28134e-06
7.38685e-08
2.2541e-06
6.15498e-08
2.22725e-06
7.03599e-08
2.20039e-06
7.0512e-08
2.17472e-06
6.06339e-08
2.07283e-06
1.4363e-07
1.97989e-06
1.32878e-07
1.96113e-06
4.96634e-08
1.9367e-06
1.24767e-07
2.06164e-06
-3.76489e-08
2.17413e-06
-9.51753e-08
2.70169e-06
-4.37262e-07
3.201e-06
-5.5114e-07
3.50672e-06
-3.77513e-07
3.60316e-06
-5.42113e-07
3.54628e-06
-4.88775e-07
3.56934e-06
-3.37251e-07
3.60359e-06
-2.36132e-07
3.63673e-06
-1.69316e-07
3.66531e-06
-1.17095e-07
3.68624e-06
-7.80729e-08
3.69882e-06
-4.74252e-08
3.70387e-06
-2.3795e-08
3.70226e-06
-5.36378e-09
3.69479e-06
9.42384e-09
3.68207e-06
2.16446e-08
3.66493e-06
3.16982e-08
3.64401e-06
4.01247e-08
3.61971e-06
4.74374e-08
3.59245e-06
5.38597e-08
3.56265e-06
5.94393e-08
3.53067e-06
6.422e-08
3.49679e-06
6.8311e-08
3.46112e-06
7.19607e-08
3.42381e-06
7.52481e-08
3.38495e-06
7.83028e-08
3.34462e-06
8.11827e-08
3.30296e-06
8.37894e-08
3.26017e-06
8.60708e-08
3.21646e-06
8.79781e-08
3.17154e-06
8.97698e-08
3.12614e-06
9.11553e-08
3.08011e-06
9.24378e-08
3.03339e-06
9.36701e-08
2.98603e-06
9.47348e-08
2.93832e-06
9.53257e-08
2.89033e-06
9.57237e-08
2.84204e-06
9.61115e-08
2.7934e-06
9.65677e-08
2.74439e-06
9.70796e-08
2.69513e-06
9.75053e-08
2.6458e-06
9.78832e-08
2.59648e-06
9.83438e-08
2.5466e-06
9.90927e-08
2.4964e-06
9.97564e-08
2.44591e-06
1.00454e-07
2.39508e-06
1.0123e-07
2.34388e-06
1.02061e-07
2.29237e-06
1.02867e-07
2.24059e-06
1.03553e-07
2.18864e-06
1.04053e-07
2.13658e-06
1.04363e-07
2.08444e-06
1.04514e-07
2.03223e-06
1.04538e-07
1.97999e-06
1.04444e-07
1.92777e-06
1.04275e-07
1.87557e-06
1.04155e-07
1.82333e-06
1.04249e-07
1.7709e-06
1.0473e-07
1.71819e-06
1.05456e-07
1.6653e-06
1.05989e-07
1.61241e-06
1.05966e-07
1.55959e-06
1.05526e-07
1.50662e-06
1.05344e-07
1.45333e-06
1.05924e-07
1.39933e-06
1.07385e-07
1.34522e-06
1.08319e-07
1.29183e-06
1.07885e-07
1.23876e-06
1.06864e-07
1.18527e-06
1.06722e-07
1.13107e-06
1.07744e-07
1.07679e-06
1.08609e-07
1.02328e-06
1.08118e-07
9.70285e-07
1.06569e-07
9.16759e-07
1.06277e-07
8.62769e-07
1.06966e-07
8.09089e-07
1.07141e-07
7.56004e-07
1.06018e-07
7.02571e-07
1.05652e-07
6.48089e-07
1.0697e-07
5.93702e-07
1.08107e-07
5.40003e-07
1.08394e-07
4.85896e-07
1.0778e-07
4.34121e-07
1.08659e-07
3.80366e-07
1.11057e-07
1.17685e-07
4.46878e-05
-4.25872e-06
4.6064e-05
-4.10041e-06
4.73351e-05
-3.66994e-06
4.85319e-05
-3.37422e-06
4.96666e-05
-3.28752e-06
5.08415e-05
-3.02709e-06
5.21303e-05
-2.57805e-06
5.35178e-05
-2.2477e-06
5.50107e-05
-2.36294e-06
5.67662e-05
-3.49619e-06
5.91657e-05
-7.50052e-06
6.12952e-05
-1.28177e-05
6.30031e-05
-1.60739e-05
6.40675e-05
-1.73387e-05
6.4283e-05
-1.74209e-05
6.35484e-05
-1.62127e-05
6.20025e-05
-1.24694e-05
6.13115e-05
-8.27305e-06
6.25346e-05
-4.02409e-06
6.50887e-05
-2.1465e-07
6.85324e-05
2.51967e-06
7.23391e-05
3.73703e-06
7.59046e-05
3.78668e-06
7.86117e-05
3.28262e-06
8.02452e-05
2.4745e-06
8.13785e-05
1.6008e-06
8.24254e-05
8.16885e-07
8.33322e-05
2.95424e-07
8.38979e-05
-5.56603e-08
8.42433e-05
-4.95358e-07
8.45734e-05
-9.30049e-07
8.50455e-05
-1.29661e-06
8.57101e-05
-1.48746e-06
8.64466e-05
-1.3307e-06
8.70097e-05
-9.86832e-07
8.73443e-05
-7.84634e-07
8.7633e-05
-8.83553e-07
8.80299e-05
-1.01789e-06
8.8574e-05
-1.1115e-06
8.91958e-05
-1.34702e-06
8.97691e-05
-1.63101e-06
9.0295e-05
-1.82915e-06
9.08409e-05
-1.82923e-06
9.14815e-05
-1.54131e-06
9.2103e-05
-1.17061e-06
9.27077e-05
-1.12415e-06
9.32738e-05
-1.3964e-06
9.37533e-05
-1.62824e-06
9.41993e-05
-1.65129e-06
9.46548e-05
-1.38508e-06
9.50135e-05
-9.60082e-07
9.52833e-05
-8.13868e-07
9.54854e-05
-8.83676e-07
9.56638e-05
-9.93536e-07
9.58747e-05
-1.04683e-06
9.61479e-05
-1.13275e-06
9.64536e-05
-1.22647e-06
9.67314e-05
-1.23322e-06
9.69713e-05
-1.07406e-06
9.71635e-05
-5.68785e-07
9.74768e-05
-1.89518e-07
9.78014e-05
-5.9399e-08
9.80445e-05
4.47286e-09
9.80895e-05
1.95092e-07
9.78451e-05
6.95199e-07
9.75646e-05
1.19432e-06
9.72817e-05
1.27011e-06
9.69038e-05
1.00805e-06
9.65189e-05
6.07878e-07
9.60966e-05
6.49726e-07
9.55552e-05
1.13842e-06
9.4976e-05
2.01792e-06
9.43014e-05
2.71972e-06
9.34763e-05
3.32517e-06
9.25588e-05
3.9441e-06
9.20135e-05
4.40733e-06
9.20513e-05
5.22107e-06
9.34459e-05
6.21187e-06
9.78938e-05
7.63906e-06
0.000100873
8.45564e-06
0.000103045
1.11324e-05
9.84526e-05
1.62214e-05
8.85555e-05
1.69949e-05
7.57985e-05
1.94045e-05
6.45626e-05
1.47277e-05
5.99311e-05
9.23127e-06
5.54901e-05
8.73115e-06
5.20167e-05
5.37944e-06
4.99322e-05
1.50958e-06
4.78603e-05
2.71418e-06
4.68158e-05
1.57375e-06
4.70526e-05
-1.14516e-07