/*--------------------------------*- C++ -*----------------------------------*\
| =========                 |                                                 |
| \\      /  F ield         | OpenFOAM: The Open Source CFD Toolbox           |
|  \\    /   O peration     | Version:  v2006                                 |
|   \\  /    A nd           | Website:  www.openfoam.com                      |
|    \\/     M anipulation  |                                                 |
\*---------------------------------------------------------------------------*/
FoamFile
{
    version     2.0;
    format      ascii;
    class       volVectorField;
    location    "5";
    object      U;
}
// * * * * * * * * * * * * * * * * * * * * * * * * * * * * * * * * * * * * * //

dimensions      [0 1 -1 0 0 0 0];


internalField   nonuniform List<vector> 
33000
(
(0.125579 0 -0.00273458)
(0.114091 0 -0.00267308)
(0.114807 0 -0.00226371)
(0.117393 0 -0.00192278)
(0.121333 0 -0.00230077)
(0.124589 0 -0.00166262)
(0.126098 0 6.0686e-05)
(0.126007 0 0.00116566)
(0.125606 0 0.00136971)
(0.125576 0 0.00122055)
(0.1267 0 -0.000394183)
(0.132941 0 -0.00787456)
(0.151435 0 -0.0213969)
(0.174287 0 -0.0293826)
(0.2015 0 -0.0336121)
(0.231398 0 -0.0379839)
(0.261966 0 -0.040883)
(0.289187 0 -0.0392863)
(0.306634 0 -0.0276383)
(0.30891 0 -0.00517513)
(0.295958 0 0.0172651)
(0.275298 0 0.0276113)
(0.255002 0 0.0247814)
(0.239197 0 0.0165486)
(0.228979 0 0.00955834)
(0.22315 0 0.00567262)
(0.21932 0 0.00395568)
(0.216433 0 0.00255351)
(0.214892 0 0.00102697)
(0.21469 0 -0.000206774)
(0.215649 0 -0.00115529)
(0.217145 0 -0.0010863)
(0.218179 0 -0.000165164)
(0.218813 0 0.000281047)
(0.219021 0 0.000162909)
(0.219474 0 -0.000445463)
(0.220307 0 -0.000726095)
(0.221186 0 -0.000296766)
(0.221862 0 2.2456e-05)
(0.222362 0 -9.34435e-05)
(0.222995 0 -0.000845988)
(0.224873 0 -0.00180986)
(0.226878 0 -0.00125667)
(0.228152 0 -0.000124134)
(0.228748 0 0.000262008)
(0.228921 0 0.00011734)
(0.229311 0 -0.000675801)
(0.230788 0 -0.00140564)
(0.23258 0 -0.00114614)
(0.233998 0 -0.000559733)
(0.234819 0 -0.000213584)
(0.235306 0 -0.000437928)
(0.23615 0 -0.000873412)
(0.237382 0 -0.00102234)
(0.238637 0 -0.000890365)
(0.239818 0 -0.00075221)
(0.240989 0 -0.000825112)
(0.24232 0 -0.00111363)
(0.243795 0 -0.00112305)
(0.244943 0 -0.000360849)
(0.244911 0 0.000909359)
(0.243999 0 0.00125746)
(0.243177 0 0.000655068)
(0.242756 0 0.00030206)
(0.242533 0 0.000501129)
(0.241676 0 0.00106273)
(0.240182 0 0.00120215)
(0.239117 0 0.000466114)
(0.239119 0 -0.000488646)
(0.239476 0 -0.000546355)
(0.239483 0 -0.000350336)
(0.238866 0 -0.000154536)
(0.237313 0 0.00120279)
(0.233186 0 0.00160987)
(0.230557 0 0.0055334)
(0.22064 0 0.00864825)
(0.220008 0 0.0191412)
(0.198878 0 0.0322871)
(0.146204 0 0.0178763)
(0.150841 0 0.00398627)
(0.136268 0 -0.000163719)
(0.132116 0 -0.00328749)
(0.129122 0 0.0077507)
(0.118842 0 0.0073481)
(0.115651 0 0.00272643)
(0.114381 0 0.000207634)
(0.109811 0 -0.00264829)
(0.107771 0 -0.00294641)
(0.107847 0 -0.00280465)
(0.108703 0 -0.00104258)
(0.108421 0 -0.000116825)
(0.108761 0 0.000290402)
(0.10866 0 0.000666146)
(0.107756 0 0.000573649)
(0.106959 0 0.001759)
(0.104111 0 0.00204889)
(0.10267 0 0.00527292)
(0.0948631 0 0.00628891)
(0.0932119 0 0.0152118)
(0.073273 0 0.0146222)
(0.0641692 0 0.00828621)
(0.0523134 0 -0.00500174)
(0.0511624 0 -0.011481)
(0.0504731 0 -0.00623993)
(0.0504412 0 -0.000317853)
(0.0533837 0 0.0032222)
(0.0555142 0 0.00260261)
(0.0560135 0 0.00145383)
(0.0553253 0 -0.00114219)
(0.0557674 0 -0.00282834)
(0.0563187 0 -0.00255053)
(0.0567931 0 -0.00166417)
(0.057888 0 -0.000476327)
(0.0581464 0 0.000187454)
(0.0587468 0 0.00122429)
(0.0569346 0 0.00168814)
(0.0576029 0 0.0047939)
(0.0497025 0 0.00488267)
(0.0483874 0 0.00177574)
(0.045867 0 -0.00286334)
(0.0474209 0 -0.00459646)
(0.0479937 0 -0.00221432)
(0.0486929 0 -0.000533858)
(0.0504271 0 0.000287774)
(0.051632 0 0.000241055)
(0.0522439 0 -0.000510451)
(0.0530366 0 -0.00101048)
(0.0536764 0 -0.000895983)
(0.054277 0 -0.000628907)
(0.0549939 0 -0.000403696)
(0.0556048 0 -0.000291688)
(0.0561262 0 -0.00034066)
(0.0565928 0 -0.000374277)
(0.0569869 0 -0.000348902)
(0.057329 0 -0.000283533)
(0.057628 0 -0.000211674)
(0.0579111 0 -0.000163328)
(0.0581593 0 -0.000119795)
(0.0583563 0 -9.86705e-05)
(0.0585003 0 -6.80056e-05)
(0.0585824 0 -2.66614e-05)
(0.0585993 0 1.57756e-05)
(0.0585625 0 5.70599e-05)
(0.0584598 0 0.00011732)
(0.0582765 0 0.00017841)
(0.0580201 0 0.000225963)
(0.0577071 0 0.000269567)
(0.0573276 0 0.000326281)
(0.0568718 0 0.000388384)
(0.0563323 0 0.000458852)
(0.0557119 0 0.000511474)
(0.0550329 0 0.000554938)
(0.0542924 0 0.000607588)
(0.0534758 0 0.000670741)
(0.0525783 0 0.000739128)
(0.0516022 0 0.000802894)
(0.0505531 0 0.000851228)
(0.0494412 0 0.000904857)
(0.0482526 0 0.000972175)
(0.0469813 0 0.00103424)
(0.0456404 0 0.00108885)
(0.0442337 0 0.00114621)
(0.0427475 0 0.00121689)
(0.0411675 0 0.00128285)
(0.0395145 0 0.00133338)
(0.0378011 0 0.0013849)
(0.036016 0 0.00145473)
(0.0341272 0 0.00152884)
(0.0321575 0 0.00157076)
(0.0301462 0 0.00160941)
(0.0280749 0 0.00165899)
(0.0259298 0 0.00171855)
(0.0237098 0 0.00177497)
(0.0214363 0 0.00180079)
(0.0191528 0 0.00179908)
(0.0168715 0 0.00180972)
(0.0145626 0 0.00182574)
(0.0122461 0 0.00182949)
(0.00994426 0 0.00181094)
(0.00769105 0 0.0017585)
(0.0055027 0 0.00170449)
(0.00337134 0 0.00165871)
(0.00129992 0 0.00159974)
(-0.000675792 0 0.0015049)
(-0.00252749 0 0.00141658)
(-0.004297 0 0.00136643)
(-0.00600848 0 0.00131979)
(-0.00764902 0 0.0012601)
(-0.00921521 0 0.00119356)
(-0.010701 0 0.00113348)
(-0.0121174 0 0.00108134)
(-0.013465 0 0.00103453)
(-0.0147571 0 0.000999992)
(-0.0160018 0 0.000957261)
(-0.0171869 0 0.000910093)
(-0.0183187 0 0.000864396)
(-0.0193953 0 0.000819632)
(-0.0204123 0 0.000775648)
(-0.0213738 0 0.000736846)
(-0.0222907 0 0.00070627)
(-0.0231736 0 0.000680121)
(-0.0240192 0 0.00064806)
(-0.0248194 0 0.000610871)
(-0.0255693 0 0.000567731)
(-0.0262693 0 0.000532392)
(-0.0269311 0 0.000505426)
(-0.0275608 0 0.000480995)
(-0.0281566 0 0.000455331)
(-0.0287175 0 0.000426906)
(-0.0292366 0 0.000391782)
(-0.0297165 0 0.000364343)
(-0.0301688 0 0.000346237)
(-0.030601 0 0.000329439)
(-0.0310014 0 0.000298776)
(-0.0313583 0 0.000265638)
(-0.0316801 0 0.000240696)
(-0.0319743 0 0.00022266)
(-0.0322482 0 0.000211074)
(-0.0325059 0 0.000194968)
(-0.0327382 0 0.000171061)
(-0.0329398 0 0.000144367)
(-0.0331082 0 0.00012075)
(-0.0332501 0 0.00010284)
(-0.0333726 0 9.0535e-05)
(-0.0334807 0 8.102e-05)
(-0.0335735 0 6.50526e-05)
(-0.0336423 0 4.52949e-05)
(-0.0336891 0 2.82248e-05)
(-0.0337142 0 1.11749e-05)
(-0.0337188 0 -4.06705e-06)
(-0.0337068 0 -1.28043e-05)
(-0.0336855 0 -1.9385e-05)
(-0.0336532 0 -3.26348e-05)
(-0.0336008 0 -4.82514e-05)
(-0.0335313 0 -5.97268e-05)
(-0.0334475 0 -7.18293e-05)
(-0.0333478 0 -8.16825e-05)
(-0.033238 0 -8.76259e-05)
(-0.0331218 0 -9.54814e-05)
(-0.0329933 0 -0.000107736)
(-0.0328511 0 -0.000116055)
(-0.0327019 0 -0.000119667)
(-0.0325464 0 -0.000123975)
(-0.0323815 0 -0.000133079)
(-0.0322038 0 -0.000144736)
(-0.032015 0 -0.000152234)
(-0.0318186 0 -0.000154651)
(-0.0316223 0 -0.000152237)
(-0.0314261 0 -0.000158821)
(-0.0312149 0 -0.00017219)
(-0.030991 0 -0.000177663)
(-0.0307631 0 -0.000180516)
(-0.0305316 0 -0.000183802)
(-0.0302963 0 -0.00018744)
(-0.0300554 0 -0.000190483)
(-0.0298093 0 -0.000195384)
(-0.0295541 0 -0.000203143)
(-0.0292919 0 -0.000208003)
(-0.0290249 0 -0.000213545)
(-0.0287503 0 -0.000217874)
(-0.0284739 0 -0.00021905)
(-0.0281912 0 -0.000224846)
(-0.027897 0 -0.000234483)
(-0.0275928 0 -0.00024354)
(-0.027279 0 -0.000249235)
(-0.0269613 0 -0.000251089)
(-0.026642 0 -0.000252185)
(-0.0263174 0 -0.000257388)
(-0.0259817 0 -0.000270736)
(-0.025628 0 -0.000284093)
(-0.0252607 0 -0.000292635)
(-0.0248855 0 -0.000299149)
(-0.0245018 0 -0.000301451)
(-0.0241157 0 -0.000305934)
(-0.0237174 0 -0.000319709)
(-0.0233024 0 -0.00033206)
(-0.0228744 0 -0.000342165)
(-0.0224334 0 -0.000350753)
(-0.0219811 0 -0.000361033)
(-0.0215125 0 -0.0003748)
(-0.0210276 0 -0.000387496)
(-0.0205282 0 -0.000394074)
(-0.0200244 0 -0.000399985)
(-0.0195067 0 -0.000415141)
(-0.0189675 0 -0.000430535)
(-0.0184103 0 -0.000446378)
(-0.0178326 0 -0.000459966)
(-0.0172419 0 -0.000471265)
(-0.0166348 0 -0.000480517)
(-0.0160186 0 -0.000487963)
(-0.0153886 0 -0.000502209)
(-0.0147385 0 -0.000518196)
(-0.0140698 0 -0.000533282)
(-0.0133836 0 -0.000547107)
(-0.0126811 0 -0.000555183)
(-0.0119735 0 -0.000558399)
(-0.011256 0 -0.000570156)
(-0.01052 0 -0.000581518)
(-0.00977658 0 -0.000591233)
(-0.00902013 0 -0.000600845)
(-0.00825359 0 -0.000602522)
(-0.00748808 0 -0.000602348)
(-0.0067167 0 -0.000607071)
(-0.00594343 0 -0.000611027)
(-0.0051668 0 -0.000612599)
(-0.00439227 0 -0.000605118)
(-0.00362795 0 -0.000599097)
(-0.00286814 0 -0.000594465)
(-0.00211865 0 -0.000588149)
(-0.00137753 0 -0.000578462)
(-0.000653294 0 -0.000562472)
(5.08818e-05 0 -0.000544352)
(0.000734118 0 -0.000528788)
(0.00139893 0 -0.0005163)
(0.00204816 0 -0.00050234)
(0.00267746 0 -0.000485168)
(0.00328532 0 -0.000468958)
(0.00387407 0 -0.000454736)
(0.00444412 0 -0.000440998)
(0.00499622 0 -0.000426278)
(0.00552859 0 -0.000409573)
(0.00604011 0 -0.000393346)
(0.00653257 0 -0.000379453)
(0.00700738 0 -0.000365874)
(0.00746388 0 -0.000350957)
(0.0079003 0 -0.00033459)
(0.00831664 0 -0.000319462)
(0.00871509 0 -0.000306013)
(0.00909642 0 -0.000292492)
(0.00945949 0 -0.000277953)
(0.00980363 0 -0.000262788)
(0.0101284 0 -0.000247525)
(0.0104347 0 -0.000233801)
(0.0107243 0 -0.000221113)
(0.0109976 0 -0.000208489)
(0.0112546 0 -0.000195506)
(0.0114948 0 -0.000182174)
(0.0117182 0 -0.00016881)
(0.0119249 0 -0.000156142)
(0.0121161 0 -0.000144598)
(0.0122928 0 -0.000133425)
(0.0124549 0 -0.000122177)
(0.0126029 0 -0.000110735)
(0.012736 0 -9.87586e-05)
(0.0128546 0 -8.81121e-05)
(0.0129607 0 -7.87103e-05)
(0.0130548 0 -6.96443e-05)
(0.0131372 0 -6.01921e-05)
(0.0132071 0 -5.03825e-05)
(0.013265 0 -4.11297e-05)
(0.0133118 0 -3.29436e-05)
(0.0133488 0 -2.55716e-05)
(0.0133762 0 -1.78021e-05)
(0.0133935 0 -9.83526e-06)
(0.0134011 0 -2.7064e-06)
(0.0134002 0 3.49427e-06)
(0.0133915 0 9.60473e-06)
(0.0133748 0 1.60034e-05)
(0.0133502 0 2.19483e-05)
(0.0133186 0 2.7096e-05)
(0.0132807 0 3.20275e-05)
(0.0132364 0 3.69282e-05)
(0.0131861 0 4.1708e-05)
(0.01313 0 4.63121e-05)
(0.0130684 0 5.02808e-05)
(0.013002 0 5.38952e-05)
(0.0129312 0 5.71848e-05)
(0.0128561 0 6.04548e-05)
(0.0127769 0 6.36192e-05)
(0.0126937 0 6.66411e-05)
(0.0126069 0 6.93956e-05)
(0.012517 0 7.14383e-05)
(0.0124248 0 7.33361e-05)
(0.01233 0 7.54157e-05)
(0.0122327 0 7.72735e-05)
(0.0121332 0 7.88669e-05)
(0.0120318 0 8.03687e-05)
(0.0119285 0 8.18223e-05)
(0.0118235 0 8.34327e-05)
(0.0117167 0 8.44663e-05)
(0.0116088 0 8.51369e-05)
(0.0115002 0 8.5521e-05)
(0.0113911 0 8.61969e-05)
(0.0112812 0 8.67633e-05)
(0.0111707 0 8.74699e-05)
(0.0110594 0 8.78912e-05)
(0.0109478 0 8.83284e-05)
(0.0108359 0 8.8216e-05)
(0.0107242 0 8.79973e-05)
(0.0106128 0 8.82506e-05)
(0.0105008 0 8.88284e-05)
(0.0103885 0 8.83918e-05)
(0.0102773 0 8.74894e-05)
(0.0101665 0 8.78137e-05)
(0.0100552 0 8.7467e-05)
(0.00994463 0 8.73538e-05)
(0.00983444 0 8.68033e-05)
(0.00972424 0 8.75688e-05)
(0.00961415 0 8.63461e-05)
(0.00950462 0 8.67065e-05)
(0.00939602 0 8.49894e-05)
(0.0092881 0 8.55791e-05)
(0.00918142 0 8.37896e-05)
(0.00907458 0 8.48384e-05)
(0.00896928 0 8.27522e-05)
(0.00886425 0 8.36502e-05)
(0.00876068 0 8.14721e-05)
(0.00865896 0 7.99137e-05)
(0.00855884 0 7.82963e-05)
(0.00846008 0 7.40442e-05)
(0.00836225 0 7.56477e-05)
(0.00826492 0 6.97962e-05)
(0.00816931 0 7.62461e-05)
(0.00807238 0 6.97983e-05)
(0.00798189 0 7.78615e-05)
(0.00788591 0 6.79198e-05)
(0.00779202 0 7.22841e-05)
(0.00769898 0 5.95081e-05)
(0.00759783 0 8.01678e-05)
(0.00750042 0 7.09307e-05)
(0.00742603 0 0.000101879)
(0.00732289 0 7.86902e-05)
(0.00723909 0 5.60116e-05)
(0.00715641 0 1.55272e-05)
(0.00698394 0 6.23746e-05)
(0.00688191 0 7.26661e-05)
(0.00687138 0 0.00027064)
(0.00668963 0 0.000235508)
(0.00679072 0 1.24895e-05)
(0.00669681 0 -0.00021164)
(0.00713405 0 -0.00027514)
(0.00707687 0 -7.50961e-05)
(0.00720444 0 -6.83087e-05)
(0.00715606 0 -4.83467e-06)
(0.00716535 0 4.53981e-06)
(0.007106 0 2.98431e-05)
(0.00707021 0 4.07119e-05)
(0.00700765 0 4.73613e-05)
(0.00695512 0 6.13478e-05)
(0.00688349 0 5.38548e-05)
(0.00681424 0 5.87802e-05)
(0.0067416 0 4.33497e-05)
(0.00663738 0 7.55928e-05)
(0.00655509 0 5.93299e-05)
(0.00650108 0 0.000132139)
(0.00638691 0 9.47351e-05)
(0.0063516 0 5.67847e-05)
(0.00624381 0 -1.11004e-05)
(0.00628862 0 2.19553e-05)
(0.00617921 0 4.438e-05)
(0.00612317 0 7.24215e-05)
(0.00603934 0 6.81019e-05)
(0.00595167 0 8.55739e-05)
(0.00587157 0 8.44344e-05)
(0.00577922 0 5.63706e-05)
(0.00569301 0 7.9009e-05)
(0.0055998 0 2.20078e-05)
(0.00548218 0 0.000107256)
(0.00537597 0 3.8518e-05)
(0.00531207 0 0.000189112)
(0.00516175 0 6.74837e-05)
(0.00512017 0 0.000100622)
(0.00499599 0 -8.80433e-05)
(0.0046289 0 5.8683e-05)
(0.00455573 0 -2.50127e-05)
(0.00454229 0 0.000753994)
(0.00409932 0 0.000450444)
(0.00482751 0 0.000146404)
(0.00439494 0 -0.000663674)
(0.00714193 0 -0.00153919)
(0.00737768 0 -0.000823332)
(0.00819295 0 -0.000504236)
(0.00859157 0 -0.000333248)
(0.00884743 0 -0.00020993)
(0.00903719 0 -0.000133634)
(0.0091486 0 -8.16031e-05)
(0.00921531 0 -4.50293e-05)
(0.00924715 0 -1.88116e-05)
(0.00925274 0 1.00728e-06)
(0.00923898 0 1.63772e-05)
(0.00920941 0 2.84205e-05)
(0.00916712 0 3.80566e-05)
(0.00911411 0 4.59967e-05)
(0.00905185 0 5.29035e-05)
(0.00898145 0 5.89764e-05)
(0.00890399 0 6.41692e-05)
(0.00882055 0 6.8498e-05)
(0.00873208 0 7.21701e-05)
(0.00863924 0 7.53648e-05)
(0.00854246 0 7.82662e-05)
(0.00844202 0 8.09321e-05)
(0.00833823 0 8.33947e-05)
(0.00823139 0 8.56385e-05)
(0.00812188 0 8.75659e-05)
(0.00801042 0 8.83941e-05)
(0.00789712 0 9.02182e-05)
(0.00778185 0 9.17467e-05)
(0.00766509 0 9.27399e-05)
(0.00754714 0 9.34875e-05)
(0.00742836 0 9.3914e-05)
(0.00730912 0 9.40773e-05)
(0.00718963 0 9.41201e-05)
(0.00706994 0 9.41773e-05)
(0.00694996 0 9.43274e-05)
(0.00682958 0 9.46169e-05)
(0.00670858 0 9.53581e-05)
(0.00658656 0 9.66076e-05)
(0.00646377 0 9.66574e-05)
(0.00634032 0 9.73424e-05)
(0.00621591 0 9.82292e-05)
(0.00609045 0 9.91474e-05)
(0.00596385 0 0.000100118)
(0.00583605 0 0.000101115)
(0.0057071 0 0.000102043)
(0.00557721 0 0.000102772)
(0.00544667 0 0.000103202)
(0.0053158 0 0.000103324)
(0.0051849 0 0.000103175)
(0.00505421 0 0.000102845)
(0.00492388 0 0.000102444)
(0.00479389 0 0.000102164)
(0.00466396 0 0.000102254)
(0.00453357 0 0.000102881)
(0.00440218 0 0.000103879)
(0.00426975 0 0.000104669)
(0.00413694 0 0.000104746)
(0.00400472 0 0.00010387)
(0.0038735 0 0.000102874)
(0.00374236 0 0.000103251)
(0.0036098 0 0.000104645)
(0.00347506 0 0.000106616)
(0.00333889 0 0.000108096)
(0.00320353 0 0.000106686)
(0.00307 0 0.000104838)
(0.00293668 0 0.000105015)
(0.00280159 0 0.000106718)
(0.00266506 0 0.000108076)
(0.00252975 0 0.000106237)
(0.00239717 0 0.000103586)
(0.00226515 0 0.000103588)
(0.00213174 0 0.000104918)
(0.00199849 0 0.000104353)
(0.0018671 0 0.000101992)
(0.0017369 0 0.000101964)
(0.00161813 0 0.000105056)
(0.00137225 0 0.000108139)
(0.00160015 0 0.000106812)
(0.000710217 0 0.000114933)
(0.0017983 0 0.000118023)
(-0.000208813 0 0.000135497)
(0.125721 0 -0.00827447)
(0.114249 0 -0.00802167)
(0.115018 0 -0.00697958)
(0.117891 0 -0.00628501)
(0.121881 0 -0.00633817)
(0.125274 0 -0.00508148)
(0.127828 0 -0.00268972)
(0.129741 0 -0.000842489)
(0.131959 0 -0.000516708)
(0.134504 0 -0.00275388)
(0.139662 0 -0.0123475)
(0.152828 0 -0.033292)
(0.167501 0 -0.0474913)
(0.182729 0 -0.0564398)
(0.197342 0 -0.0631113)
(0.210801 0 -0.0639816)
(0.221322 0 -0.0544321)
(0.226726 0 -0.0333422)
(0.225811 0 -0.00712687)
(0.223086 0 0.0155233)
(0.222379 0 0.0292542)
(0.22318 0 0.0334513)
(0.223618 0 0.032612)
(0.22276 0 0.0259711)
(0.220539 0 0.0161282)
(0.218211 0 0.0101769)
(0.216771 0 0.00719821)
(0.215897 0 0.00481015)
(0.215198 0 0.0018695)
(0.214988 0 -0.000879649)
(0.215281 0 -0.0024502)
(0.215826 0 -0.00294092)
(0.216491 0 -0.00253119)
(0.218091 0 -0.00142572)
(0.219047 0 -0.00108287)
(0.219465 0 -0.0015744)
(0.219999 0 -0.00213331)
(0.220555 0 -0.0020231)
(0.221627 0 -0.00160598)
(0.222496 0 -0.00189772)
(0.223861 0 -0.00313521)
(0.225334 0 -0.00418399)
(0.226456 0 -0.00412812)
(0.228028 0 -0.00251494)
(0.229518 0 -0.00125569)
(0.230315 0 -0.0012221)
(0.231225 0 -0.0023127)
(0.2326 0 -0.00365197)
(0.233712 0 -0.00389695)
(0.235145 0 -0.0027677)
(0.236396 0 -0.00178786)
(0.237017 0 -0.00172261)
(0.237588 0 -0.00239911)
(0.238333 0 -0.00288185)
(0.239114 0 -0.00283609)
(0.240074 0 -0.00286083)
(0.241121 0 -0.00309334)
(0.242212 0 -0.00328141)
(0.243127 0 -0.00297422)
(0.2435 0 -0.00153421)
(0.243812 0 0.000670363)
(0.244096 0 0.00131148)
(0.244142 0 0.00112159)
(0.243905 0 0.000793392)
(0.24372 0 0.00120011)
(0.242535 0 0.00266398)
(0.241424 0 0.00289402)
(0.240321 0 0.00132113)
(0.2395 0 -0.000141679)
(0.238733 0 -0.00027783)
(0.238235 0 0.000711563)
(0.235595 0 0.00326862)
(0.233763 0 0.00532194)
(0.229447 0 0.00789457)
(0.22964 0 0.0114835)
(0.226708 0 0.0175888)
(0.230102 0 0.0260459)
(0.23098 0 0.0418725)
(0.235207 0 0.0552063)
(0.234103 0 0.0323381)
(0.212521 0 0.0267715)
(0.155305 0 0.0153624)
(0.159918 0 0.0124098)
(0.14415 0 0.0121086)
(0.133849 0 0.0029883)
(0.130149 0 0.0120934)
(0.120102 0 0.0121729)
(0.112953 0 0.00672516)
(0.113761 0 0.00087607)
(0.113705 0 0.000123862)
(0.111185 0 -0.000169926)
(0.11041 0 -0.000874089)
(0.110362 0 0.000956539)
(0.109472 0 0.00219687)
(0.109667 0 0.00356933)
(0.109344 0 0.00501506)
(0.108221 0 0.0079256)
(0.107427 0 0.0105041)
(0.105783 0 0.0164478)
(0.108742 0 0.0279913)
(0.103281 0 0.0282842)
(0.102468 0 0.0255206)
(0.0811847 0 0.0153915)
(0.0707307 0 0.00752928)
(0.0592842 0 -0.00564876)
(0.053795 0 -0.0121214)
(0.0525452 0 -0.00682212)
(0.0512046 0 -0.000928848)
(0.0516969 0 0.00199663)
(0.0546803 0 0.00144776)
(0.0581441 0 0.00132175)
(0.0587265 0 -0.000884408)
(0.0594468 0 -0.00184347)
(0.0594504 0 -0.00145252)
(0.0595832 0 5.28893e-05)
(0.0605214 0 0.00135738)
(0.0610837 0 0.00539784)
(0.0635718 0 0.00806682)
(0.0621546 0 0.0062621)
(0.0632227 0 0.0040831)
(0.0544159 0 0.00189346)
(0.0528778 0 0.00045436)
(0.0501248 0 -0.00375634)
(0.0505351 0 -0.00543976)
(0.0506093 0 -0.00296606)
(0.0511755 0 -0.00168178)
(0.0528839 0 -0.00112318)
(0.0540869 0 -0.000921003)
(0.0546538 0 -0.00148704)
(0.0552158 0 -0.00174641)
(0.0556143 0 -0.00149534)
(0.0560374 0 -0.00122716)
(0.0565711 0 -0.000949797)
(0.0570497 0 -0.000792173)
(0.0574433 0 -0.000711359)
(0.0577346 0 -0.000710784)
(0.0579877 0 -0.000688354)
(0.0582069 0 -0.000591443)
(0.0583856 0 -0.000446653)
(0.0585395 0 -0.000292157)
(0.0586416 0 -0.000129525)
(0.0586787 0 1.27435e-05)
(0.0586396 0 0.000157102)
(0.0585298 0 0.000328408)
(0.0583485 0 0.000512938)
(0.0581023 0 0.00066554)
(0.0577886 0 0.000815617)
(0.0574002 0 0.000986509)
(0.0569304 0 0.00117404)
(0.0563847 0 0.00136695)
(0.055771 0 0.00153185)
(0.0550905 0 0.00167492)
(0.0543372 0 0.00184128)
(0.0535023 0 0.00202514)
(0.0525845 0 0.00220854)
(0.0516014 0 0.00238243)
(0.0505545 0 0.00254639)
(0.0494315 0 0.00271013)
(0.0482245 0 0.00289739)
(0.0469383 0 0.00307374)
(0.0455807 0 0.00323171)
(0.0441559 0 0.00340081)
(0.0426528 0 0.00360503)
(0.0410638 0 0.00380278)
(0.0393981 0 0.00395968)
(0.0376704 0 0.00411607)
(0.0358666 0 0.00432004)
(0.0339746 0 0.00454338)
(0.0320077 0 0.00468785)
(0.0299856 0 0.00481024)
(0.0279085 0 0.00497032)
(0.0257611 0 0.00514614)
(0.0235592 0 0.00529162)
(0.0213213 0 0.00536589)
(0.0190567 0 0.00537845)
(0.0167833 0 0.00540852)
(0.0145009 0 0.00545055)
(0.0122194 0 0.00543382)
(0.00997286 0 0.00535506)
(0.00776467 0 0.00522689)
(0.00558832 0 0.00509266)
(0.00346803 0 0.00495021)
(0.00141794 0 0.00476454)
(-0.000542354 0 0.00451385)
(-0.0024169 0 0.00427993)
(-0.00421318 0 0.00410937)
(-0.00592638 0 0.00395078)
(-0.0075686 0 0.00378269)
(-0.00914895 0 0.00360606)
(-0.0106598 0 0.00342964)
(-0.0120991 0 0.00326577)
(-0.0134655 0 0.00311217)
(-0.0147606 0 0.0029887)
(-0.0159978 0 0.00285898)
(-0.0171802 0 0.00273148)
(-0.0183175 0 0.00260741)
(-0.0194055 0 0.00247288)
(-0.020434 0 0.00233538)
(-0.0214049 0 0.00221701)
(-0.0223284 0 0.00212255)
(-0.0232117 0 0.00203699)
(-0.0240546 0 0.00193561)
(-0.0248491 0 0.00182372)
(-0.0255966 0 0.00170753)
(-0.0263039 0 0.00160732)
(-0.0269732 0 0.00152456)
(-0.0276068 0 0.00144704)
(-0.0282028 0 0.00136338)
(-0.0287576 0 0.00127244)
(-0.0292747 0 0.00117715)
(-0.0297605 0 0.00110016)
(-0.0302185 0 0.00104235)
(-0.030647 0 0.000980063)
(-0.0310388 0 0.000890956)
(-0.0313954 0 0.00080152)
(-0.0317219 0 0.000729111)
(-0.0320208 0 0.000670407)
(-0.0322941 0 0.00062572)
(-0.0325447 0 0.000575656)
(-0.032772 0 0.000511086)
(-0.0329728 0 0.000436804)
(-0.0331432 0 0.000366168)
(-0.0332887 0 0.000313205)
(-0.033414 0 0.000271639)
(-0.0335185 0 0.000236461)
(-0.0336038 0 0.000189479)
(-0.0336702 0 0.000136476)
(-0.0337161 0 8.48795e-05)
(-0.0337415 0 3.5272e-05)
(-0.0337495 0 -8.31102e-06)
(-0.0337391 0 -3.97846e-05)
(-0.0337134 0 -6.40452e-05)
(-0.0336755 0 -9.99233e-05)
(-0.0336227 0 -0.00014383)
(-0.0335523 0 -0.000180468)
(-0.0334659 0 -0.000217116)
(-0.0333652 0 -0.000247663)
(-0.0332538 0 -0.000267784)
(-0.0331348 0 -0.000288298)
(-0.0330076 0 -0.000317823)
(-0.0328701 0 -0.000341916)
(-0.0327209 0 -0.000358553)
(-0.0325594 0 -0.000379814)
(-0.0323876 0 -0.000404703)
(-0.0322087 0 -0.00043189)
(-0.0320236 0 -0.000452427)
(-0.0318306 0 -0.000463726)
(-0.0316318 0 -0.000464033)
(-0.0314281 0 -0.000480616)
(-0.0312163 0 -0.000512434)
(-0.0309943 0 -0.000531871)
(-0.0307661 0 -0.000541541)
(-0.030536 0 -0.000549727)
(-0.0303023 0 -0.00056073)
(-0.0300599 0 -0.000575115)
(-0.0298081 0 -0.000592206)
(-0.0295499 0 -0.000610098)
(-0.0292873 0 -0.000623251)
(-0.0290209 0 -0.000637492)
(-0.0287513 0 -0.000648004)
(-0.0284766 0 -0.000659024)
(-0.0281889 0 -0.000682039)
(-0.0278907 0 -0.000705731)
(-0.0275871 0 -0.000727971)
(-0.0272765 0 -0.000743182)
(-0.026961 0 -0.00074961)
(-0.0266405 0 -0.000759981)
(-0.0263105 0 -0.000779552)
(-0.025971 0 -0.000812875)
(-0.0256177 0 -0.000849402)
(-0.0252527 0 -0.000873921)
(-0.0248807 0 -0.000893692)
(-0.0245001 0 -0.000908436)
(-0.0241082 0 -0.000926337)
(-0.0237046 0 -0.000958737)
(-0.0232888 0 -0.000992648)
(-0.0228619 0 -0.00102356)
(-0.0224234 0 -0.00105324)
(-0.0219691 0 -0.0010861)
(-0.0214997 0 -0.00112371)
(-0.0210152 0 -0.00115958)
(-0.0205186 0 -0.0011829)
(-0.0200111 0 -0.00120452)
(-0.0194893 0 -0.0012463)
(-0.0189482 0 -0.00129217)
(-0.0183888 0 -0.00133739)
(-0.0178144 0 -0.0013763)
(-0.017227 0 -0.00141091)
(-0.0166239 0 -0.00144243)
(-0.0160032 0 -0.00146985)
(-0.0153675 0 -0.00151001)
(-0.0147154 0 -0.00155395)
(-0.0140471 0 -0.00159649)
(-0.0133664 0 -0.00163484)
(-0.0126705 0 -0.0016617)
(-0.0119612 0 -0.00168025)
(-0.0112382 0 -0.00171474)
(-0.010502 0 -0.00174321)
(-0.00976059 0 -0.00176607)
(-0.00901214 0 -0.00179247)
(-0.00825215 0 -0.00180571)
(-0.00748374 0 -0.00181251)
(-0.00671046 0 -0.00182131)
(-0.00594024 0 -0.00182425)
(-0.00517305 0 -0.00182614)
(-0.00440387 0 -0.00181317)
(-0.00363783 0 -0.00179697)
(-0.00288052 0 -0.00177785)
(-0.00213546 0 -0.00175508)
(-0.00140069 0 -0.00172497)
(-0.000680346 0 -0.00168237)
(2.56516e-05 0 -0.00163628)
(0.00071387 0 -0.00159022)
(0.00138139 0 -0.00154926)
(0.00203149 0 -0.00150737)
(0.00266379 0 -0.00145941)
(0.00327717 0 -0.0014118)
(0.00387048 0 -0.00136664)
(0.00444305 0 -0.0013226)
(0.00499592 0 -0.00127821)
(0.00553031 0 -0.00123104)
(0.0060462 0 -0.00118448)
(0.00654279 0 -0.00114072)
(0.00701981 0 -0.00109766)
(0.00747682 0 -0.00105235)
(0.0079143 0 -0.00100549)
(0.00833358 0 -0.000961067)
(0.00873442 0 -0.000919483)
(0.00911679 0 -0.000877503)
(0.00948004 0 -0.000833515)
(0.00982447 0 -0.000788586)
(0.0101507 0 -0.000744316)
(0.0104591 0 -0.000702836)
(0.0107499 0 -0.000663605)
(0.0110234 0 -0.000625049)
(0.0112799 0 -0.00058591)
(0.0115196 0 -0.000546547)
(0.0117432 0 -0.000507286)
(0.0119508 0 -0.000469398)
(0.0121424 0 -0.00043376)
(0.0123185 0 -0.000399407)
(0.0124799 0 -0.000365405)
(0.0126268 0 -0.000331417)
(0.0127595 0 -0.000296903)
(0.0128786 0 -0.000265151)
(0.0129847 0 -0.00023596)
(0.0130781 0 -0.000207909)
(0.0131591 0 -0.000179349)
(0.0132281 0 -0.000150631)
(0.0132858 0 -0.000123592)
(0.0133326 0 -9.88343e-05)
(0.0133689 0 -7.58296e-05)
(0.013395 0 -5.25235e-05)
(0.0134116 0 -2.94777e-05)
(0.013419 0 -8.13975e-06)
(0.0134176 0 1.11617e-05)
(0.0134077 0 2.97793e-05)
(0.0133901 0 4.84906e-05)
(0.0133651 0 6.61318e-05)
(0.013333 0 8.20355e-05)
(0.0132941 0 9.73467e-05)
(0.0132485 0 0.000112004)
(0.0131972 0 0.000125846)
(0.0131407 0 0.000139172)
(0.0130788 0 0.000151131)
(0.013012 0 0.000161937)
(0.0129403 0 0.000172062)
(0.0128644 0 0.000181877)
(0.0127846 0 0.000191404)
(0.0127011 0 0.000200097)
(0.0126141 0 0.000208096)
(0.012524 0 0.000214582)
(0.0124312 0 0.000220575)
(0.0123359 0 0.000226678)
(0.012238 0 0.000232246)
(0.0121379 0 0.000237018)
(0.0120357 0 0.000241428)
(0.0119318 0 0.00024548)
(0.0118266 0 0.000249447)
(0.01172 0 0.000252771)
(0.0116121 0 0.000254973)
(0.011503 0 0.000256617)
(0.0113933 0 0.000257974)
(0.0112829 0 0.000259611)
(0.0111719 0 0.000261042)
(0.0110602 0 0.000262341)
(0.0109486 0 0.000262905)
(0.0108368 0 0.000263111)
(0.0107248 0 0.000262464)
(0.0106127 0 0.000262635)
(0.010501 0 0.000263611)
(0.0103892 0 0.00026275)
(0.0102779 0 0.000261304)
(0.0101663 0 0.000261186)
(0.010055 0 0.000261119)
(0.00994407 0 0.000259289)
(0.0098338 0 0.000259344)
(0.00972365 0 0.000258382)
(0.00961438 0 0.000258492)
(0.00950453 0 0.000255837)
(0.00939594 0 0.000254854)
(0.00928745 0 0.000251432)
(0.0091802 0 0.000251203)
(0.00907333 0 0.000248505)
(0.00896764 0 0.000247021)
(0.00886355 0 0.00024434)
(0.00875758 0 0.000240262)
(0.0086571 0 0.000237573)
(0.00855158 0 0.000233587)
(0.00845618 0 0.000235534)
(0.00835681 0 0.000230818)
(0.00826601 0 0.000234215)
(0.0081704 0 0.000226103)
(0.00807561 0 0.000225582)
(0.00798054 0 0.000213779)
(0.00787839 0 0.000232424)
(0.00778113 0 0.00022034)
(0.00770912 0 0.000248297)
(0.00761435 0 0.00023171)
(0.00753167 0 0.000199393)
(0.00743817 0 0.000171061)
(0.00725981 0 0.000219595)
(0.0071519 0 0.000199714)
(0.00715508 0 0.00039673)
(0.00706044 0 0.000379251)
(0.00718139 0 9.57631e-05)
(0.00708209 0 7.84779e-06)
(0.00755958 0 -9.90564e-05)
(0.00748182 0 -7.75705e-05)
(0.00759419 0 -0.000286392)
(0.00741235 0 -0.00028736)
(0.00739145 0 -7.60916e-05)
(0.00731508 0 -2.48178e-05)
(0.00726957 0 5.18397e-05)
(0.0072149 0 8.59551e-05)
(0.00716294 0 0.000116723)
(0.00709714 0 0.000114348)
(0.00704108 0 0.000134736)
(0.00696666 0 0.000128079)
(0.00687595 0 0.00017225)
(0.00679255 0 0.000158433)
(0.00676402 0 0.000242598)
(0.00666991 0 0.000220213)
(0.00665974 0 0.00015086)
(0.00653609 0 0.000116006)
(0.0066284 0 0.000144626)
(0.00649818 0 0.000138189)
(0.00645803 0 0.000130625)
(0.00632489 0 0.000103783)
(0.00625269 0 0.000185924)
(0.00615503 0 0.000172167)
(0.00605497 0 0.000182279)
(0.00597467 0 0.000194705)
(0.00581981 0 0.00017011)
(0.00576773 0 0.000238766)
(0.0056393 0 0.0001899)
(0.00563247 0 0.000323264)
(0.00550067 0 0.00023448)
(0.0055066 0 0.000237673)
(0.0053583 0 0.000132725)
(0.00501328 0 0.000247134)
(0.00488128 0 0.000140665)
(0.00493112 0 0.00089289)
(0.00474405 0 0.000632477)
(0.00558651 0 0.000161224)
(0.00524079 0 -7.92153e-05)
(0.00829893 0 -0.00093071)
(0.00815833 0 -0.000747054)
(0.00902972 0 -0.00278463)
(0.00894483 0 -0.00246913)
(0.00888475 0 -0.00150249)
(0.00896355 0 -0.00099271)
(0.00905046 0 -0.000682204)
(0.00912676 0 -0.00045301)
(0.00918951 0 -0.000295928)
(0.00923143 0 -0.000181226)
(0.00925348 0 -9.68816e-05)
(0.00925784 0 -3.35062e-05)
(0.00924641 0 1.66271e-05)
(0.00922115 0 5.6929e-05)
(0.0091838 0 8.92107e-05)
(0.00913622 0 0.000115609)
(0.00907969 0 0.000138192)
(0.00901522 0 0.000158073)
(0.00894387 0 0.000175481)
(0.00886665 0 0.000190357)
(0.00878434 0 0.000202961)
(0.0086974 0 0.000213823)
(0.00860618 0 0.000223511)
(0.00851098 0 0.000232454)
(0.00841198 0 0.0002408)
(0.00830948 0 0.000248405)
(0.00820391 0 0.000255118)
(0.00809578 0 0.000260765)
(0.00798497 0 0.00026533)
(0.00787206 0 0.000269778)
(0.00775779 0 0.000273504)
(0.00764186 0 0.00027687)
(0.00752425 0 0.000279616)
(0.00740541 0 0.000281026)
(0.00728579 0 0.000281778)
(0.00716546 0 0.000282427)
(0.00704429 0 0.000283306)
(0.00692222 0 0.000284429)
(0.00679936 0 0.000285523)
(0.00667614 0 0.000286935)
(0.00655288 0 0.000288801)
(0.00642887 0 0.000290773)
(0.00630374 0 0.000292819)
(0.00617789 0 0.000295049)
(0.00605125 0 0.000297497)
(0.00592372 0 0.000300148)
(0.00579532 0 0.000302802)
(0.00566619 0 0.000305141)
(0.00553652 0 0.000306884)
(0.00540651 0 0.000307907)
(0.00527626 0 0.000308286)
(0.00514581 0 0.00030814)
(0.00501524 0 0.000307604)
(0.00488468 0 0.000306892)
(0.00475418 0 0.000306417)
(0.00462365 0 0.000306742)
(0.00449283 0 0.000308383)
(0.00436137 0 0.000310872)
(0.00422933 0 0.000312679)
(0.0040971 0 0.000312473)
(0.00396503 0 0.000310511)
(0.00383286 0 0.000309126)
(0.00370009 0 0.00031084)
(0.00356581 0 0.000315708)
(0.00343048 0 0.000320007)
(0.00329622 0 0.000319843)
(0.00316335 0 0.000315813)
(0.00303022 0 0.00031369)
(0.00289546 0 0.000316501)
(0.00275963 0 0.000320791)
(0.00262492 0 0.000320818)
(0.00249205 0 0.000314637)
(0.00235905 0 0.000311316)
(0.00222437 0 0.000313413)
(0.00208962 0 0.000315737)
(0.0019564 0 0.00031194)
(0.0018232 0 0.000308386)
(0.0016878 0 0.000311708)
(0.00156676 0 0.000317982)
(0.00131742 0 0.000320442)
(0.00155273 0 0.000317392)
(0.000662189 0 0.00032675)
(0.00176374 0 0.000334956)
(-0.000225312 0 0.000366775)
(0.125901 0 -0.0139053)
(0.114486 0 -0.0134159)
(0.115214 0 -0.0119089)
(0.118318 0 -0.0108674)
(0.122339 0 -0.0106595)
(0.126024 0 -0.00958251)
(0.129242 0 -0.00760382)
(0.132144 0 -0.00612035)
(0.135696 0 -0.00650245)
(0.139397 0 -0.0108089)
(0.144931 0 -0.0267151)