/*--------------------------------*- C++ -*----------------------------------*\
| =========                 |                                                 |
| \\      /  F ield         | OpenFOAM: The Open Source CFD Toolbox           |
|  \\    /   O peration     | Version:  v2006                                 |
|   \\  /    A nd           | Website:  www.openfoam.com                      |
|    \\/     M anipulation  |                                                 |
\*---------------------------------------------------------------------------*/
FoamFile
{
    version     2.0;
    format      ascii;
    class       surfaceScalarField;
    location    "8.4";
    object      alphaPhi0.water;
}
// * * * * * * * * * * * * * * * * * * * * * * * * * * * * * * * * * * * * * //

dimensions      [0 3 -1 0 0 0 0];
oriented        oriented;


internalField   nonuniform List<scalar> 
65390
(
-5.94652e-06
1.1619e-05
-1.08816e-05
4.93499e-06
-1.11784e-05
2.96787e-07
-8.06639e-06
-3.11201e-06
-1.04081e-06
-7.02556e-06
6.19489e-06
-7.2357e-06
1.26806e-05
-6.48582e-06
1.77705e-05
-5.09042e-06
2.15945e-05
-3.82513e-06
2.48655e-05
-3.2703e-06
2.84015e-05
-3.53203e-06
3.22133e-05
-3.80857e-06
3.54659e-05
-3.25148e-06
3.74805e-05
-2.01443e-06
3.7441e-05
3.93791e-08
3.418e-05
3.2609e-06
2.70942e-05
7.0858e-06
1.81141e-05
8.98005e-06
1.00476e-05
8.06647e-06
4.76271e-06
5.28485e-06
2.20963e-06
2.55303e-06
1.26349e-06
9.46101e-07
1.68023e-06
-4.1677e-07
2.93096e-06
-1.25074e-06
4.3467e-06
-1.41574e-06
5.48622e-06
-1.13949e-06
5.89128e-06
-4.05032e-07
5.20958e-06
6.81743e-07
3.21226e-06
1.99738e-06
-6.43229e-08
3.27664e-06
-4.80754e-06
4.74329e-06
-1.07217e-05
5.91431e-06
-1.69728e-05
6.25123e-06
-2.3336e-05
6.36326e-06
-2.91789e-05
5.84291e-06
-3.34704e-05
4.29165e-06
-3.68672e-05
3.39978e-06
-4.0542e-05
3.68657e-06
-4.39879e-05
3.45158e-06
-4.62341e-05
2.22163e-06
-4.73653e-05
1.13054e-06
-4.82701e-05
9.04798e-07
-4.9408e-05
1.14008e-06
-5.10393e-05
1.64666e-06
-5.31769e-05
2.15996e-06
-5.51356e-05
1.91901e-06
-5.6312e-05
1.1734e-06
-5.68736e-05
5.61522e-07
-5.73129e-05
4.39405e-07
-5.7982e-05
6.76249e-07
-5.91954e-05
1.22965e-06
-6.07228e-05
1.52738e-06
-6.20269e-05
1.28054e-06
-6.28379e-05
8.08915e-07
-6.31258e-05
2.8769e-07
-6.30218e-05
-1.04092e-07
-6.26777e-05
-3.44217e-07
-6.215e-05
-5.27682e-07
-6.14762e-05
-6.73664e-07
-6.08356e-05
-6.40626e-07
-6.05696e-05
-2.65978e-07
-6.08766e-05
3.09792e-07
-6.14883e-05
6.22452e-07
-6.21886e-05
7.06276e-07
-6.27435e-05
5.5351e-07
-6.31602e-05
3.98822e-07
-6.34871e-05
3.26768e-07
-6.3755e-05
2.67701e-07
-6.37044e-05
-5.12996e-08
-6.30178e-05
-6.87261e-07
-6.16371e-05
-1.38076e-06
-5.96026e-05
-2.03451e-06
-5.68834e-05
-2.71931e-06
-5.35043e-05
-3.37893e-06
-4.92927e-05
-4.21032e-06
-4.42065e-05
-5.0822e-06
-3.82064e-05
-5.99168e-06
-3.07139e-05
-7.4832e-06
-2.47313e-05
-5.98248e-06
-2.2175e-05
-2.55635e-06
-2.07764e-05
-1.39922e-06
-2.13842e-05
6.07806e-07
-2.2256e-05
8.71804e-07
-2.31574e-05
9.01407e-07
-2.4491e-05
1.33361e-06
-2.5356e-05
8.5392e-07
-2.59021e-05
5.44829e-07
-2.64272e-05
5.25039e-07
-2.69198e-05
4.92576e-07
-2.73402e-05
4.20319e-07
-2.74591e-05
1.18883e-07
-2.75053e-05
4.61669e-08
-2.74e-05
-1.05087e-07
-2.71786e-05
-2.19143e-07
-2.6823e-05
-3.49419e-07
-2.63254e-05
-4.97669e-07
-2.5299e-05
-1.02969e-06
-2.37505e-05
-1.5529e-06
-2.15509e-05
-2.19961e-06
-2.00391e-05
-1.51188e-06
-1.96687e-05
-3.70168e-07
-1.96076e-05
-5.85824e-08
-1.98715e-05
2.66386e-07
-2.00351e-05
1.63648e-07
-2.0511e-05
4.75812e-07
-2.08406e-05
3.29671e-07
-2.08722e-05
3.16743e-08
-2.08754e-05
-2.12361e-09
-2.08249e-05
-5.12969e-08
-2.08029e-05
-2.19671e-08
-2.07141e-05
-8.85895e-08
-2.06323e-05
-7.92969e-08
-2.04417e-05
-1.88903e-07
-2.00835e-05
-3.58167e-07
-1.9381e-05
-7.05736e-07
-1.8349e-05
-1.03254e-06
-1.68004e-05
-1.54863e-06
-1.57075e-05
-1.09143e-06
-1.54339e-05
-2.73373e-07
-1.54259e-05
-8.28416e-09
-1.56046e-05
1.77139e-07
-1.56682e-05
6.34005e-08
-1.59322e-05
2.63767e-07
-1.61263e-05
1.95663e-07
-1.61638e-05
3.82725e-08
-1.62307e-05
6.68579e-08
-1.62883e-05
5.50954e-08
-1.6323e-05
3.46991e-08
-1.63738e-05
5.07368e-08
-1.64022e-05
2.84066e-08
-1.64066e-05
5.27813e-09
-1.64111e-05
7.34378e-09
-1.64094e-05
-1.62665e-09
-1.63977e-05
-1.52707e-08
-1.63668e-05
-3.11987e-08
-1.6331e-05
-3.58875e-08
-1.62945e-05
-3.64421e-08
-1.62516e-05
-4.26673e-08
-1.62063e-05
-4.55706e-08
-1.61492e-05
-5.71391e-08
-1.60822e-05
-6.69503e-08
-1.60075e-05
-7.30582e-08
-1.59314e-05
-7.39225e-08
-1.58525e-05
-7.89107e-08
-1.57648e-05
-8.82293e-08
-1.56663e-05
-1.01328e-07
-1.555e-05
-1.1625e-07
-1.54242e-05
-1.25888e-07
-1.52958e-05
-1.28004e-07
-1.51676e-05
-1.27102e-07
-1.50352e-05
-1.33202e-07
-1.48829e-05
-1.5341e-07
-1.47121e-05
-1.70743e-07
-1.45366e-05
-1.75538e-07
-1.43571e-05
-1.77991e-07
-1.41738e-05
-1.83002e-07
-1.39809e-05
-1.9292e-07
-1.37789e-05
-2.03424e-07
-1.3566e-05
-2.13663e-07
-1.33438e-05
-2.22213e-07
-1.31148e-05
-2.29077e-07
-1.28775e-05
-2.37218e-07
-1.26349e-05
-2.42309e-07
-1.23846e-05
-2.49719e-07
-1.21214e-05
-2.63919e-07
-1.1847e-05
-2.74496e-07
-1.15712e-05
-2.75554e-07
-1.12958e-05
-2.75673e-07
-1.10068e-05
-2.89279e-07
-1.06995e-05
-3.07327e-07
-1.03824e-05
-3.17118e-07
-1.00661e-05
-3.15673e-07
-9.75176e-06
-3.13758e-07
-9.42594e-06
-3.26824e-07
-9.07594e-06
-3.50144e-07
-8.70967e-06
-3.66268e-07
-8.33146e-06
-3.77856e-07
-7.9488e-06
-3.81518e-07
-7.5746e-06
-3.7427e-07
-7.1979e-06
-3.77157e-07
-6.80434e-06
-3.94216e-07
-6.39427e-06
-4.10064e-07
-5.95971e-06
-4.34561e-07
-5.50795e-06
-4.51374e-07
-5.05082e-06
-4.57097e-07
-4.59228e-06
-4.58569e-07
-4.14189e-06
-4.50568e-07
-3.68544e-06
-4.56652e-07
-3.2102e-06
-4.75248e-07
-2.72135e-06
-4.8884e-07
-2.23326e-06
-4.8783e-07
-1.76008e-06
-4.73176e-07
-1.29754e-06
-4.62526e-07
-8.40771e-07
-4.5681e-07
-3.83631e-07
-4.57156e-07
7.30204e-08
-4.56643e-07
5.22142e-07
-4.49109e-07
9.54181e-07
-4.32031e-07
1.3584e-06
-4.04333e-07
1.74092e-06
-3.82509e-07
2.11315e-06
-3.72203e-07
2.48485e-06
-3.71466e-07
2.85384e-06
-3.68857e-07
3.21141e-06
-3.57574e-07
3.55336e-06
-3.41943e-07
3.87985e-06
-3.26806e-07
4.19774e-06
-3.17661e-07
4.51254e-06
-3.14621e-07
4.82049e-06
-3.08002e-07
5.11328e-06
-2.9278e-07
5.3875e-06
-2.74409e-07
5.6585e-06
-2.70803e-07
5.92985e-06
-2.71183e-07
6.19536e-06
-2.65475e-07
6.45301e-06
-2.57699e-07
6.6988e-06
-2.4607e-07
6.92749e-06
-2.29156e-07
7.14603e-06
-2.18532e-07
7.36127e-06
-2.14707e-07
7.57531e-06
-2.13738e-07
7.78423e-06
-2.08925e-07
7.98607e-06
-2.01849e-07
8.17765e-06
-1.91855e-07
8.35506e-06
-1.78014e-07
8.52382e-06
-1.68743e-07
8.68777e-06
-1.63347e-07
8.84813e-06
-1.60137e-07
9.00429e-06
-1.56184e-07
9.15441e-06
-1.50144e-07
9.29578e-06
-1.41618e-07
9.42454e-06
-1.29398e-07
9.54607e-06
-1.21514e-07
9.66361e-06
-1.17092e-07
9.77757e-06
-1.13839e-07
9.88759e-06
-1.09963e-07
9.99112e-06
-1.03775e-07
1.00877e-05
-9.65918e-08
1.01777e-05
-8.99917e-08
1.02619e-05
-8.39535e-08
1.03393e-05
-7.7341e-08
1.041e-05
-7.08821e-08
1.04755e-05
-6.55862e-08
1.05381e-05
-6.23928e-08
1.05981e-05
-5.97458e-08
1.06535e-05
-5.5427e-08
1.07042e-05
-5.06837e-08
1.07472e-05
-4.32679e-08
1.07819e-05
-3.49369e-08
1.08148e-05
-3.27475e-08
1.0847e-05
-3.19738e-08
1.08754e-05
-2.84144e-08
1.08992e-05
-2.38262e-08
1.09171e-05
-1.81988e-08
1.09285e-05
-1.18048e-08
1.09366e-05
-8.06153e-09
1.09425e-05
-5.39616e-09
1.09451e-05
-2.58066e-09
1.09438e-05
1.28548e-09
1.09377e-05
6.14717e-09
1.0927e-05
1.04377e-08
1.09124e-05
1.46048e-08
1.08946e-05
1.78031e-08
1.08746e-05
2.02753e-08
1.08511e-05
2.34783e-08
1.08228e-05
2.83119e-08
1.07876e-05
3.50161e-08
1.07475e-05
4.00417e-08
1.07061e-05
4.15348e-08
1.0663e-05
4.31916e-08
1.06163e-05
4.67175e-08
1.05658e-05
5.05186e-08
1.05114e-05
5.43951e-08
1.04518e-05
5.94347e-08
1.0386e-05
6.51266e-08
1.03178e-05
6.87814e-08
1.02469e-05
7.11122e-08
1.01734e-05
7.35303e-08
1.00965e-05
7.68332e-08
1.00162e-05
8.02996e-08
9.93296e-06
8.32083e-08
9.846e-06
8.69025e-08
9.75277e-06
9.29352e-08
9.65538e-06
9.7425e-08
9.55655e-06
9.88769e-08
9.45575e-06
1.0076e-07
9.3515e-06
1.04203e-07
9.24374e-06
1.0772e-07
9.13295e-06
1.10743e-07
9.01811e-06
1.14687e-07
8.89885e-06
1.19146e-07
8.77663e-06
1.22203e-07
8.65243e-06
1.24333e-07
8.52566e-06
1.26765e-07
8.39598e-06
1.29675e-07
8.26366e-06
1.32315e-07
8.12768e-06
1.35919e-07
7.98793e-06
1.39765e-07
7.84536e-06
1.42644e-07
7.70046e-06
1.4498e-07
7.55324e-06
1.4722e-07
7.40411e-06
1.49138e-07
7.25198e-06
1.52092e-07
7.09616e-06
1.55804e-07
6.93781e-06
1.58366e-07
6.77764e-06
1.60239e-07
6.61595e-06
1.6167e-07
6.45197e-06
1.63965e-07
6.28559e-06
1.66432e-07
6.11725e-06
1.68374e-07
5.94757e-06
1.69675e-07
5.77695e-06
1.70621e-07
5.60476e-06
1.72182e-07
5.43004e-06
1.74703e-07
5.25327e-06
1.76768e-07
5.07596e-06
1.77336e-07
4.89839e-06
1.77572e-07
4.71995e-06
1.78445e-07
4.54051e-06
1.79438e-07
4.36007e-06
1.80436e-07
4.17878e-06
1.81289e-07
3.99676e-06
1.82012e-07
3.81414e-06
1.82613e-07
3.63084e-06
1.83297e-07
3.44662e-06
1.84224e-07
3.26204e-06
1.84599e-07
3.07775e-06
1.84327e-07
2.89335e-06
1.84425e-07
2.70859e-06
1.84793e-07
2.52395e-06
1.8466e-07
2.34034e-06
1.83633e-07
2.15835e-06
1.82016e-07
1.97791e-06
1.80461e-07
1.79863e-06
1.79282e-07
1.62018e-06
1.78454e-07
1.4435e-06
1.76686e-07
1.2701e-06
1.73406e-07
1.10054e-06
1.69566e-07
9.34294e-07
1.66257e-07
7.71523e-07
1.62779e-07
6.12394e-07
1.59135e-07
4.57138e-07
1.55262e-07
3.06046e-07
1.51096e-07
1.59363e-07
1.46684e-07
1.71409e-08
1.4222e-07
-1.20656e-07
1.37793e-07
-2.53916e-07
1.33256e-07
-3.82752e-07
1.28831e-07
-5.07245e-07
1.24489e-07
-6.27546e-07
1.20299e-07
-7.43861e-07
1.16313e-07
-8.56365e-07
1.12504e-07
-9.65086e-07
1.08721e-07
-1.06997e-06
1.0488e-07
-1.17104e-06
1.01075e-07
-1.26853e-06
9.74834e-08
-1.36261e-06
9.4076e-08
-1.45339e-06
9.07853e-08
-1.54098e-06
8.75858e-08
-1.6253e-06
8.43138e-08
-1.70636e-06
8.10607e-08
-1.78432e-06
7.7964e-08
-1.85929e-06
7.49662e-08
-1.93131e-06
7.20286e-08
-2.0006e-06
6.92913e-08
-2.06738e-06
6.67839e-08
-2.13163e-06
6.42644e-08
-2.19324e-06
6.16144e-08
-2.25196e-06
5.87149e-08
-2.30794e-06
5.59873e-08
-2.36162e-06
5.36845e-08
-2.41327e-06
5.16535e-08
-2.46257e-06
4.92976e-08
-2.50922e-06
4.66607e-08
-2.55338e-06
4.41591e-08
-2.59534e-06
4.19619e-08
-2.63527e-06
3.99346e-08
-2.67323e-06
3.79596e-08
-2.70926e-06
3.60285e-08
-2.74356e-06
3.43063e-08
-2.77615e-06
3.25998e-08
-2.80676e-06
3.05874e-08
-2.83503e-06
2.82672e-08
-2.86153e-06
2.64941e-08
-2.88651e-06
2.4976e-08
-2.90995e-06
2.34426e-08
-2.93186e-06
2.19079e-08
-2.95223e-06
2.037e-08
-2.97099e-06
1.87605e-08
-2.98812e-06
1.71276e-08
-3.00388e-06
1.57735e-08
-3.01846e-06
1.45748e-08
-3.03171e-06
1.32548e-08
-3.04339e-06
1.16691e-08
-3.0536e-06
1.02159e-08
-3.06256e-06
8.96093e-09
-3.07032e-06
7.76157e-09
-3.07689e-06
6.57474e-09
-3.08264e-06
5.7538e-09
-3.08758e-06
4.93296e-09
-3.09145e-06
3.86669e-09
-3.09429e-06
2.83515e-09
-3.09609e-06
1.79279e-09
-3.09715e-06
1.05545e-09
-3.09761e-06
4.59523e-10
-3.09831e-06
7.07758e-10
-3.099e-06
6.86246e-10
-3.09994e-06
9.18563e-10
-3.09951e-06
-4.36007e-10
-3.09972e-06
2.10371e-10
-3.09974e-06
1.69599e-11
-3.10008e-06
3.44752e-10
-3.09992e-06
-1.55706e-10
-3.09912e-06
-8.15298e-10
-3.09901e-06
-1.12117e-10
-3.09751e-06
-1.49713e-09
-3.09493e-06
-2.58052e-09
-3.09262e-06
-2.30697e-09
-3.08494e-06
-7.66751e-09
-3.07941e-06
-5.53209e-09
-3.08335e-06
3.9419e-09
-3.0804e-06
-2.94135e-09
-3.07848e-06
-1.92456e-09
-3.07821e-06
-2.61646e-10
-3.03248e-06
-4.5731e-08
-3.00061e-06
-3.18693e-08
-3.03017e-06
2.95534e-08
-3.01467e-06
-1.54929e-08
-3.07275e-06
5.80802e-08
-3.22098e-06
1.48225e-07
-3.49127e-06
2.70292e-07
-3.73172e-06
2.40454e-07
-3.84608e-06
1.1437e-07
-3.95884e-06
1.12763e-07
-4.0295e-06
7.06547e-08
-4.09689e-06
6.73947e-08
-4.14836e-06
5.14766e-08
-4.19465e-06
4.62885e-08
-4.2331e-06
3.84613e-08
-4.26976e-06
3.66576e-08
-4.29003e-06
2.02773e-08
-4.32043e-06
3.04082e-08
-4.34459e-06
2.41694e-08
-4.3704e-06
2.58265e-08
-4.44032e-06
6.99215e-08
-4.46251e-06
2.22068e-08
-4.43291e-06
-2.96049e-08
-4.40813e-06
-2.47677e-08
-4.29494e-06
-1.13188e-07
-4.04236e-06
-2.52569e-07
-3.76108e-06
-2.81282e-07
-3.53686e-06
-2.24228e-07
-3.38786e-06
-1.49002e-07
-3.26759e-06
-1.20262e-07
-3.18663e-06
-8.09654e-08
-3.11478e-06
-7.1841e-08
-3.06279e-06
-5.19974e-08
-3.01567e-06
-4.71171e-08
-2.9567e-06
-5.89747e-08
-2.92689e-06
-2.98043e-08
-2.88124e-06
-4.56517e-08
-2.82067e-06
-6.05711e-08
-2.83221e-06
1.15357e-08
-2.69995e-06
-1.32256e-07
-2.51798e-06
-1.81963e-07
-2.65273e-06
1.3476e-07
-2.49887e-06
-1.5386e-07
-2.7063e-06
2.07431e-07
-2.71783e-06
1.15273e-08
-3.69188e-06
9.74039e-07
-4.80158e-06
1.10968e-06
-4.95988e-06
1.58247e-07
-4.89815e-06
-6.17796e-08
-4.64615e-06
-2.52049e-07
-4.37328e-06
-2.72896e-07
-4.12871e-06
-2.44536e-07
-3.93914e-06
-1.89573e-07
-3.78817e-06
-1.5102e-07
-3.65488e-06
-1.33346e-07
-3.52599e-06
-1.28964e-07
-3.40726e-06
-1.18789e-07
-3.29701e-06
-1.10261e-07
-3.18644e-06
-1.10595e-07
-3.074e-06
-1.1246e-07
-2.95453e-06
-1.1953e-07
-2.82904e-06
-1.25548e-07
-2.70405e-06
-1.25025e-07
-2.58029e-06
-1.23774e-07
-2.44994e-06
-1.30368e-07
-2.31177e-06
-1.38187e-07
-2.17134e-06
-1.40449e-07
-2.02996e-06
-1.41398e-07
-1.88187e-06
-1.48097e-07
-1.72427e-06
-1.57618e-07
-1.56148e-06
-1.62792e-07
-1.40019e-06
-1.61294e-07
-1.23835e-06
-1.61834e-07
-1.07391e-06
-1.64434e-07
-9.03371e-07
-1.70537e-07
-7.27488e-07
-1.75878e-07
-5.48125e-07
-1.79357e-07
-3.63143e-07
-1.84978e-07
-1.73715e-07
-1.89424e-07
1.61671e-08
-1.8988e-07
2.04746e-07
-1.88577e-07
3.9481e-07
-1.90064e-07
5.90956e-07
-1.96146e-07
7.95415e-07
-2.04459e-07
1.00823e-06
-2.12818e-07
1.22557e-06
-2.17336e-07
1.44669e-06
-2.21126e-07
1.66835e-06
-2.2167e-07
1.8919e-06
-2.2356e-07
2.11972e-06
-2.27821e-07
2.34989e-06
-2.3018e-07
2.58185e-06
-2.31962e-07
2.81768e-06
-2.35834e-07
3.05853e-06
-2.40855e-07
3.30262e-06
-2.44095e-07
3.54744e-06
-2.44832e-07
3.79166e-06
-2.44233e-07
4.03523e-06
-2.43574e-07
4.27947e-06
-2.44243e-07
4.52591e-06
-2.46437e-07
4.77566e-06
-2.49742e-07
5.02894e-06
-2.53277e-07
5.28551e-06
-2.56566e-07
5.5449e-06
-2.59392e-07
5.80655e-06
-2.61646e-07
6.07007e-06
-2.63513e-07
6.3352e-06
-2.65122e-07
6.60202e-06
-2.66807e-07
6.87123e-06
-2.69203e-07
7.14268e-06
-2.71428e-07
7.41643e-06
-2.73732e-07
7.69085e-06
-2.74405e-07
7.96649e-06
-2.75609e-07
8.2425e-06
-2.7597e-07
8.52138e-06
-2.78836e-07
8.80201e-06
-2.8058e-07
9.08348e-06
-2.81412e-07
9.36533e-06
-2.818e-07
9.6485e-06
-2.83109e-07
9.93256e-06
-2.84013e-07
1.02165e-05
-2.83934e-07
1.05029e-05
-2.86385e-07
1.07927e-05
-2.89767e-07
1.10913e-05
-2.98593e-07
1.14009e-05
-3.09583e-07
1.17115e-05
-3.10549e-07
-3.52006e-07
-1.26752e-06
1.85657e-05
-1.96034e-06
5.62786e-06
-7.30528e-07
-9.32956e-07
3.00708e-06
-6.8496e-06
6.37012e-06
-1.03886e-05
9.5293e-06
-1.03949e-05
1.29013e-05
-9.85856e-06
1.61642e-05
-8.3568e-06
1.89682e-05
-6.63017e-06
2.15699e-05
-5.87194e-06
2.40499e-05
-6.00105e-06
2.64304e-05
-6.18294e-06
2.82349e-05
-5.05522e-06
2.83409e-05
-2.12025e-06
2.6267e-05
2.11344e-06
2.20737e-05
7.45444e-06
1.76315e-05
1.15282e-05
1.32683e-05
1.33436e-05
8.76848e-06
1.25665e-05
5.1242e-06
8.92933e-06
2.38549e-06
5.29193e-06
8.16535e-07
2.51525e-06
5.83006e-07
-1.83058e-07
7.34318e-07
-1.40187e-06
7.61106e-07
-1.44237e-06
5.77001e-07
-9.55252e-07
-3.52032e-07
5.24117e-07
-2.44179e-06
2.77159e-06
-5.70179e-06
5.25745e-06
-9.52804e-06
7.10294e-06
-1.33751e-05
8.59038e-06
-1.75787e-05
1.01179e-05
-2.22893e-05
1.09619e-05
-2.67279e-05
1.08017e-05
-3.02014e-05
9.31626e-06
-3.36781e-05
7.76858e-06
-3.74123e-05
7.14067e-06
-4.08522e-05
7.14035e-06
-4.37632e-05
6.36218e-06
-4.58489e-05
4.28482e-06
-4.73605e-05
2.63816e-06
-4.87009e-05
2.2452e-06
-4.99975e-05
2.44555e-06
-5.13324e-05
3.00884e-06
-5.27179e-05
3.54545e-06
-5.41566e-05
3.34857e-06
-5.54934e-05
2.47996e-06
-5.64193e-05
1.48602e-06
-5.7211e-05
1.2321e-06
-5.79985e-05
1.47709e-06
-5.88177e-05
2.06321e-06
-5.98517e-05
2.56137e-06
-6.09861e-05
2.39574e-06
-6.20088e-05
1.81952e-06
-6.26418e-05
9.19919e-07
-6.27647e-05
1.86365e-08
-6.26756e-05
-4.33417e-07
-6.25448e-05
-6.58351e-07
-6.25328e-05
-6.85303e-07
-6.26701e-05
-5.02816e-07
-6.29866e-05
5.39118e-08
-6.31568e-05
4.98922e-07
-6.30918e-05
5.78161e-07
-6.26991e-05
3.13693e-07
-6.21966e-05
5.09529e-08
-6.20617e-05
2.63901e-07
-6.22619e-05
5.20476e-07
-6.2555e-05
5.29136e-07
-6.27943e-05
1.84406e-07
-6.28362e-05
-6.46155e-07
-6.24386e-05
-1.77919e-06
-6.14854e-05
-2.98794e-06
-6.00773e-05
-4.12712e-06
-5.85739e-05
-4.87683e-06
-5.73119e-05
-5.44769e-06
-5.63746e-05
-6.01954e-06
-5.53064e-05
-7.05987e-06
-5.45546e-05
-8.23503e-06
-5.15174e-05
-9.04189e-06
-4.57534e-05
-8.32644e-06
-3.77037e-05
-9.44984e-06
-2.9659e-05
-7.43451e-06
-2.51879e-05
-3.59464e-06
-2.25505e-05
-1.73153e-06
-2.1812e-05
5.87415e-07
-2.20842e-05
1.12393e-06
-2.26754e-05
1.13553e-06
-2.41849e-05
2.03452e-06
-2.5958e-05
2.2656e-06
-2.68632e-05
1.32548e-06
-2.73242e-05
5.79917e-07
-2.76615e-05
3.83394e-07
-2.78323e-05
6.58404e-08
-2.78575e-05
-1.91943e-07
-2.78806e-05
-3.19086e-07
-2.77472e-05
-6.31049e-07
-2.76641e-05
-1.11276e-06
-2.77178e-05
-1.50808e-06
-2.80597e-05
-1.85847e-06
-2.76862e-05
-1.88546e-06
-2.62186e-05
-1.83771e-06
-2.39204e-05
-2.35524e-06
-2.20648e-05
-1.58453e-06
-2.12475e-05
-6.53747e-07
-2.05961e-05
-1.75575e-07
-2.03408e-05
7.4398e-08
-2.02611e-05
-5.14565e-08
-2.0435e-05
1.69858e-07
-2.08694e-05
3.82948e-07
-2.11705e-05
2.79085e-07
-2.10716e-05
-1.85889e-07
-2.09464e-05
-1.98868e-07
-2.08302e-05
-3.05123e-07
-2.07212e-05
-4.67184e-07
-2.07088e-05
-7.18136e-07
-2.07025e-05
-1.04527e-06
-2.07922e-05
-1.45925e-06
-2.03763e-05
-1.50668e-06
-1.93384e-05
-1.30983e-06
-1.78209e-05
-1.52556e-06
-1.66204e-05
-1.02532e-06
-1.61737e-05
-3.83617e-07
-1.59017e-05
-5.95996e-09
-1.58974e-05
1.93567e-07
-1.59654e-05
1.0627e-07
-1.6231e-05
3.32494e-07
-1.64103e-05
2.33386e-07
-1.64015e-05
2.22468e-08
-1.63956e-05
4.48665e-08
-1.63936e-05
2.63662e-08
-1.64012e-05
1.54631e-08
-1.64322e-05
4.05079e-08
-1.64423e-05
8.41988e-09
-1.64165e-05
-4.36165e-08
-1.63794e-05
-7.05179e-08
-1.63352e-05
-8.00846e-08
-1.62953e-05
-7.6124e-08
-1.62531e-05
-8.48358e-08
-1.62133e-05
-8.57105e-08
-1.61611e-05
-1.09287e-07
-1.60971e-05
-1.30699e-07
-1.60231e-05
-1.43596e-07
-1.59463e-05
-1.5065e-07
-1.58627e-05
-1.62557e-07
-1.57703e-05
-1.80581e-07
-1.56678e-05
-2.05313e-07
-1.55546e-05
-2.31048e-07
-1.54344e-05
-2.46059e-07
-1.53103e-05
-2.50403e-07
-1.51789e-05
-2.57923e-07
-1.50347e-05
-2.76694e-07
-1.48807e-05
-3.10825e-07
-1.47134e-05
-3.38414e-07
-1.45431e-05
-3.45884e-07
-1.43689e-05
-3.51415e-07
-1.41833e-05
-3.67511e-07
-1.39829e-05
-3.93405e-07
-1.37713e-05
-4.14944e-07
-1.35572e-05
-4.29796e-07
-1.33388e-05
-4.40921e-07
-1.31135e-05
-4.5444e-07
-1.28776e-05
-4.72664e-07
-1.26344e-05
-4.8526e-07
-1.23806e-05
-5.03789e-07
-1.21138e-05
-5.31264e-07
-1.18394e-05
-5.48871e-07
-1.15626e-05
-5.51507e-07
-1.12833e-05
-5.54911e-07
-1.09939e-05
-5.79818e-07
-1.06878e-05
-6.13437e-07
-1.03723e-05
-6.32219e-07
-1.00553e-05
-6.31739e-07
-9.73267e-06
-6.3635e-07
-9.40057e-06
-6.60012e-07
-9.05576e-06
-6.95205e-07
-8.69542e-06
-7.26607e-07
-8.32257e-06
-7.50662e-07
-7.93943e-06
-7.63905e-07
-7.55236e-06
-7.60595e-07
-7.16447e-06
-7.65047e-07
-6.7686e-06
-7.90074e-07
-6.36236e-06
-8.1699e-07
-5.93684e-06
-8.60527e-07
-5.4933e-06
-8.95e-07
-5.03825e-06
-9.12122e-07
-4.57794e-06
-9.18611e-07
-4.12291e-06
-9.05278e-07
-3.67085e-06
-9.08707e-07
-3.2125e-06
-9.33899e-07
-2.74276e-06
-9.58588e-07
-2.26358e-06
-9.66921e-07
-1.78286e-06
-9.53803e-07
-1.31119e-06
-9.34202e-07
-8.54712e-07
-9.1328e-07
-4.09334e-07
-9.02525e-07
3.29573e-08
-8.98908e-07
4.72634e-07
-8.88762e-07
9.0119e-07
-8.60577e-07
1.31237e-06
-8.15534e-07
1.70695e-06
-7.77073e-07
2.08979e-06
-7.55028e-07
2.46582e-06
-7.473e-07
2.83262e-06
-7.35511e-07
3.18702e-06
-7.11991e-07
3.52793e-06
-6.83031e-07
3.86003e-06
-6.58904e-07
4.18454e-06
-6.4217e-07
4.50082e-06
-6.30611e-07
4.80589e-06
-6.1314e-07
5.0975e-06
-5.84611e-07
5.37896e-06
-5.55902e-07
5.65471e-06
-5.46325e-07
5.92592e-06
-5.42139e-07
6.18978e-06
-5.29299e-07
6.4448e-06
-5.12731e-07
6.69008e-06
-4.9155e-07
6.9236e-06
-4.63246e-07
7.14809e-06
-4.43017e-07
7.36559e-06
-4.3192e-07
7.57854e-06
-4.26261e-07
7.78517e-06
-4.15493e-07
7.98425e-06
-4.00936e-07
8.17525e-06
-3.83187e-07
8.35692e-06
-3.60293e-07
8.53017e-06
-3.42011e-07
8.69539e-06
-3.28553e-07
8.85495e-06
-3.19181e-07
9.00905e-06
-3.10053e-07
9.15679e-06
-2.97903e-07
9.29696e-06
-2.82008e-07
9.42765e-06
-2.60865e-07
9.55175e-06
-2.45631e-07
9.67083e-06
-2.36152e-07
9.78586e-06
-2.2847e-07
9.89564e-06
-2.19275e-07
9.99917e-06
-2.07212e-07
1.00956e-05
-1.93067e-07
1.01845e-05
-1.78846e-07
1.0266e-05
-1.65589e-07
1.03414e-05
-1.53663e-07
1.04136e-05
-1.43185e-07
1.04826e-05
-1.34581e-07
1.05474e-05
-1.26656e-07
1.06066e-05
-1.1843e-07
1.066e-05
-1.08737e-07
1.07079e-05
-9.87156e-08
1.07496e-05
-8.55785e-08
1.07878e-05
-7.31382e-08
1.08228e-05
-6.7524e-08
1.08545e-05
-6.3415e-08
1.08815e-05
-5.53727e-08
1.09031e-05
-4.54974e-08
1.09199e-05
-3.5322e-08
1.09329e-05
-2.50959e-08
1.09431e-05
-1.82708e-08
1.09498e-05
-1.21629e-08
1.09528e-05
-5.10125e-09
1.09501e-05
4.12498e-09
1.09419e-05
1.43691e-08
1.09308e-05
2.14331e-08
1.09174e-05
2.78035e-08
1.09009e-05
3.44349e-08
1.08806e-05
4.08286e-08
1.0856e-05
4.80595e-08
1.08264e-05
5.7729e-08
1.07914e-05
6.96524e-08
1.07531e-05
7.84046e-08
1.07124e-05
8.25532e-08
1.06688e-05
8.69817e-08
1.06214e-05
9.41736e-08
1.05697e-05
1.02185e-07
1.05137e-05
1.10354e-07
1.04535e-05
1.19159e-07
1.03902e-05
1.28385e-07
1.03233e-05
1.3573e-07
1.02525e-05
1.42175e-07
1.01779e-05
1.48281e-07
1.00999e-05
1.54871e-07
1.00188e-05
1.61306e-07
9.93482e-06
1.67128e-07
9.84699e-06
1.74631e-07
9.75425e-06
1.8531e-07
9.65807e-06
1.93613e-07
9.55932e-06
1.97742e-07
9.45791e-06
2.02233e-07
9.35277e-06
2.09311e-07
9.24373e-06
2.16727e-07
9.13166e-06
2.22767e-07
9.01651e-06
2.29697e-07
8.89822e-06
2.37308e-07
8.77708e-06
2.43366e-07
8.65271e-06
2.48782e-07
8.52479e-06
2.54789e-07
8.39354e-06
2.60946e-07
8.2599e-06
2.65966e-07
8.12399e-06
2.7175e-07
7.9857e-06
2.78071e-07
7.84368e-06
2.84677e-07
7.69769e-06
2.91105e-07
7.54886e-06
2.96076e-07
7.39851e-06
2.99501e-07
7.24646e-06
3.04099e-07
7.0917e-06
3.1058e-07
6.93323e-06
3.16892e-07
6.77162e-06
3.21876e-07
6.60909e-06
3.24218e-07
6.44562e-06
3.27416e-07
6.27979e-06
3.32259e-07
6.11073e-06
3.37449e-07
5.93996e-06
3.40459e-07
5.76862e-06
3.41959e-07
5.59613e-06
3.4468e-07
5.42197e-06
3.4886e-07
5.24538e-06
3.53369e-07
5.06707e-06
3.55672e-07
4.88873e-06
3.55932e-07
4.71004e-06
3.57138e-07
4.53053e-06
3.5894e-07
4.34998e-06
3.60983e-07
4.16811e-06
3.63152e-07
3.98535e-06
3.64773e-07
3.80225e-06
3.65714e-07
3.61895e-06
3.66619e-07
3.4353e-06
3.67903e-07
3.25132e-06
3.68624e-07
3.06702e-06
3.6868e-07
2.88243e-06
3.69066e-07
2.69796e-06
3.69309e-07
2.51419e-06
3.68467e-07
2.33152e-06
3.66344e-07
2.14997e-06
3.63581e-07
1.96966e-06
3.60788e-07
1.79075e-06
3.582e-07
1.61364e-06
3.55569e-07
1.43861e-06
3.51716e-07
1.26588e-06
3.46153e-07
1.09651e-06
3.38944e-07
9.30591e-07
3.32194e-07
7.68382e-07
3.25001e-07
6.10035e-07
3.17492e-07
4.55415e-07
3.09888e-07
3.04626e-07
3.01887e-07
1.57908e-07
2.934e-07
1.53804e-08
2.84743e-07
-1.22722e-07
2.75889e-07
-2.56028e-07
2.66555e-07
-3.84807e-07
2.57604e-07
-5.09361e-07
2.49038e-07
-6.29872e-07
2.40807e-07
-7.46456e-07
2.32896e-07
-8.59156e-07
2.25204e-07
-9.67988e-07
2.17552e-07
-1.07297e-06
2.09866e-07
-1.17417e-06
2.02273e-07
-1.27177e-06
1.95078e-07
-1.36597e-06
1.88272e-07
-1.45699e-06
1.81802e-07
-1.5449e-06
1.755e-07
-1.62945e-06
1.68861e-07
-1.71062e-06
1.62228e-07
-1.78868e-06
1.56023e-07
-1.86379e-06
1.50081e-07
-1.93602e-06
1.44264e-07
-2.00542e-06
1.38704e-07
-2.07208e-06
1.33447e-07
-2.13598e-06
1.28169e-07
-2.1972e-06
1.22844e-07
-2.25582e-06
1.17343e-07
-2.31199e-06
1.12166e-07
-2.3659e-06
1.07604e-07
-2.41762e-06
1.03383e-07
-2.46688e-06
9.85664e-08
-2.51359e-06
9.33639e-08
-2.55777e-06
8.83403e-08
-2.59975e-06
8.39498e-08
-2.63983e-06
8.0016e-08
-2.67803e-06
7.61514e-08
-2.71419e-06
7.21937e-08
-2.74827e-06
6.83848e-08
-2.78024e-06
6.45758e-08
-2.81038e-06
6.07084e-08
-2.83879e-06
5.667e-08
-2.8655e-06
5.3196e-08
-2.89061e-06
5.00845e-08
-2.91419e-06
4.70182e-08
-2.93605e-06
4.37656e-08
-2.95628e-06
4.06017e-08
-2.97498e-06
3.745e-08
-2.99224e-06
3.43938e-08
-3.00805e-06
3.1587e-08
-3.02241e-06
2.89369e-08
-3.03525e-06
2.60909e-08
-3.04683e-06
2.32391e-08
-3.05716e-06
2.05486e-08
-3.06638e-06
1.81838e-08
-3.07424e-06
1.56186e-08
-3.08084e-06
1.31788e-08
-3.08616e-06
1.10745e-08
-3.09062e-06
9.3819e-09
-3.09425e-06
7.48308e-09
-3.09734e-06
5.91303e-09
-3.09913e-06
3.57481e-09
-3.10033e-06
2.2431e-09
-3.10059e-06
7.18467e-10
-3.10079e-06
9.0253e-10
-3.09987e-06
-2.32157e-10
-3.09945e-06
4.65611e-10
-3.09777e-06
-2.12353e-09
-3.09767e-06
1.07063e-10
-3.09938e-06
1.72556e-09
-3.10078e-06
1.74513e-09
-3.10304e-06
2.11251e-09
-3.1015e-06
-2.36713e-09
-3.10037e-06
-1.24037e-09
-3.09244e-06
-9.42229e-09
-3.08905e-06
-5.96634e-09
-3.09554e-06
4.18521e-09
-3.10013e-06
-3.0691e-09
-3.10221e-06
-3.44878e-09
-3.09726e-06
-1.00683e-09
-3.0462e-06
-5.40011e-08
-3.0138e-06
-3.43148e-08
-3.05157e-06
3.75068e-08
-3.08794e-06
-9.35674e-09
-3.18893e-06
6.91213e-08
-3.33939e-06
1.80017e-07
-3.62209e-06
2.67204e-07
-3.85283e-06
2.88822e-07
-3.94043e-06
2.35829e-07
-3.97475e-06
3.04615e-07
-3.97639e-06
2.42099e-07
-4.03125e-06
1.69235e-07
-4.06636e-06
1.47882e-07
-4.1144e-06
1.18701e-07
-4.14739e-06
1.00386e-07
-4.17283e-06
7.69281e-08
-4.18993e-06
6.33941e-08
-4.22788e-06
7.64208e-08
-4.26474e-06
7.35189e-08
-4.31028e-06
6.58281e-08
-4.38567e-06
1.05817e-07
-4.40262e-06
4.11488e-08
-4.3501e-06
-2.66768e-08
-4.27469e-06
-5.4756e-09
-4.12825e-06
-1.24231e-07
-3.88732e-06
-2.70525e-07
-3.60921e-06
-3.02871e-07
-3.42186e-06
-3.00518e-07
-3.35831e-06
-3.16112e-07
-3.3416e-06
-2.97996e-07
-3.28868e-06
-2.77156e-07
-3.25367e-06
-1.8401e-07
-3.18336e-06
-1.9057e-07
-3.12727e-06
-1.37036e-07
-3.07116e-06
-1.27941e-07
-3.04241e-06
-8.07443e-08
-3.00696e-06
-8.25624e-08
-2.95435e-06
-1.11592e-07
-2.96429e-06
-1.98663e-08
-2.831e-06
-1.78952e-07
-2.66326e-06
-2.28297e-07
-2.73866e-06
8.69425e-08
-2.69117e-06
-1.79738e-07
-3.05655e-06
1.83411e-07
-3.02914e-06
1.07352e-07
-4.02097e-06
8.37966e-07
-4.89856e-06
1.08503e-06
-5.03941e-06
1.52401e-07
-4.80099e-06
7.35673e-07
-4.11263e-06
4.21383e-07
-3.89494e-06
-5.9382e-08
-3.80402e-06
-1.52648e-07
-3.79356e-06
-2.62478e-07
-3.76303e-06
-3.03404e-07
-3.70319e-06
-3.04347e-07
-3.62656e-06
-2.66168e-07
-3.54649e-06
-2.31059e-07
-3.46305e-06
-2.16749e-07
-3.3757e-06
-2.1629e-07
-3.28312e-06
-2.11336e-07
-3.18392e-06
-2.09441e-07
-3.07741e-06
-2.17076e-07
-2.96487e-06
-2.24979e-07
-2.84659e-06
-2.37781e-07
-2.72709e-06
-2.45024e-07
-2.60538e-06
-2.46704e-07
-2.47914e-06
-2.49989e-07
-2.34718e-06
-2.62294e-07
-2.20988e-06
-2.75454e-07
-2.06865e-06
-2.81648e-07
-1.92221e-06
-2.87807e-07
-1.7702e-06
-3.0008e-07
-1.6142e-06
-3.13587e-07
-1.45431e-06
-3.22652e-07
-1.29056e-06
-3.25015e-07
-1.12306e-06
-3.29315e-07
-9.51729e-07
-3.35734e-07
-7.77744e-07
-3.44499e-07
-5.99903e-07
-3.537e-07
-4.16562e-07
-3.62683e-07
-2.29365e-07
-3.72163e-07
-3.98228e-08
-3.78958e-07
1.51438e-07
-3.81134e-07
3.44534e-07
-3.81668e-07
5.4157e-07
-3.87096e-07
7.42895e-07
-3.97466e-07
9.48719e-07
-4.1028e-07
1.15849e-06
-4.22589e-07
1.37176e-06
-4.30599e-07
1.58834e-06
-4.3771e-07
1.80853e-06
-4.41852e-07
2.03242e-06
-4.47456e-07
2.26004e-06
-4.55443e-07
2.49046e-06
-4.60613e-07
2.72299e-06
-4.64507e-07
2.95789e-06
-4.7074e-07
3.19502e-06
-4.77999e-07
3.43423e-06
-4.83324e-07
3.67551e-06
-4.86136e-07
3.91904e-06
-4.87783e-07
4.1652e-06
-4.89752e-07
4.41378e-06
-4.92848e-07
4.66451e-06
-4.97194e-07
4.91719e-06
-5.02439e-07
5.17199e-06
-5.08096e-07
5.4292e-06
-5.13796e-07
5.6889e-06
-5.19106e-07
5.95091e-06
-5.23683e-07
6.21482e-06
-5.27454e-07
6.48054e-06
-5.3087e-07
6.74825e-06
-5.34548e-07
7.01805e-06
-5.39042e-07
7.28978e-06
-5.432e-07
7.56296e-06
-5.4696e-07
7.83704e-06
-5.48527e-07
8.11258e-06
-5.51204e-07
8.39021e-06
-5.53647e-07
8.66968e-06
-5.58363e-07
8.95007e-06
-5.61032e-07
9.23107e-06
-5.62487e-07
9.51349e-06
-5.64304e-07
9.79777e-06
-5.67488e-07
1.00832e-05
-5.69519e-07
1.03694e-05
-5.70289e-07
1.06563e-05
-5.73461e-07
1.0944e-05
-5.77613e-07
1.12318e-05
-5.86541e-07
1.15179e-05
-5.95744e-07
1.18081e-05
-6.00871e-07
-6.07417e-07
2.2814e-07
2.40301e-05
1.84265e-06
4.01334e-06
3.63364e-06
-2.72398e-06
5.76426e-06
-8.98022e-06
6.54615e-06
-1.11705e-05
7.40306e-06
-1.1252e-05
8.43283e-06
-1.08912e-05
9.19405e-06
-9.12148e-06
9.14691e-06
-6.58293e-06
8.12167e-06
-4.84676e-06
6.83353e-06
-4.70955e-06
5.66016e-06
-5.00905e-06
4.5944e-06
-3.98958e-06
3.12414e-06
-6.50105e-07
1.30038e-06
3.93709e-06
-3.79848e-07
9.13457e-06
-8.44302e-07
1.19925e-05
-4.63406e-07
1.29625e-05
-3.59597e-07
1.24625e-05
-1.54635e-06
1.0116e-05
-3.7729e-06
7.51835e-06
-6.44684e-06
5.18907e-06
-9.72709e-06
3.09708e-06
-1.3272e-05
2.14297e-06
-1.65084e-05
1.79388e-06
-1.95738e-05
2.1101e-06
-2.25445e-05
3.49478e-06
-2.54801e-05
5.70727e-06
-2.84155e-05
8.1928e-06
-3.11394e-05
9.82647e-06
-3.32878e-05
1.07384e-05
-3.4622e-05
1.14501e-05
-3.52727e-05
1.16124e-05
-3.57366e-05
1.12654e-05
-3.6813e-05
1.03929e-05
-3.90865e-05
1.00478e-05
-4.18381e-05
9.91236e-06
-4.4136e-05
9.4377e-06
-4.58887e-05
8.11547e-06
-4.7342e-05
5.70443e-06
-4.86643e-05
3.95838e-06
-4.99286e-05
3.50986e-06
-5.11045e-05
3.63334e-06
-5.21437e-05
4.07396e-06
-5.30814e-05
4.48319e-06
-5.40723e-05
4.33933e-06
-5.51514e-05
3.52225e-06
-5.60858e-05
2.4185e-06
-5.70079e-05
2.1541e-06
-5.79021e-05
2.38147e-06
-5.87209e-05
2.90157e-06
-5.95826e-05
3.42316e-06
-6.05612e-05
3.37428e-06
-6.16004e-05
2.83282e-06
-6.24889e-05
1.80254e-06
-6.31555e-05
6.84881e-07
-6.37017e-05
1.12716e-07
-6.42104e-05
-1.49451e-07
-6.47154e-05
-1.73818e-07
-6.51696e-05
-2.48879e-08
-6.53987e-05
2.84292e-07
-6.5252e-05
3.50987e-07
-6.45952e-05
-9.55691e-08
-6.34856e-05
-8.04888e-07
-6.24146e-05
-1.01474e-06
-6.17352e-05
-3.82653e-07
-6.16711e-05
4.56533e-07
-6.18107e-05
6.68835e-07
-6.21266e-05