/*--------------------------------*- C++ -*----------------------------------*\
| =========                 |                                                 |
| \\      /  F ield         | OpenFOAM: The Open Source CFD Toolbox           |
|  \\    /   O peration     | Version:  v2006                                 |
|   \\  /    A nd           | Website:  www.openfoam.com                      |
|    \\/     M anipulation  |                                                 |
\*---------------------------------------------------------------------------*/
FoamFile
{
    version     2.0;
    format      ascii;
    class       volScalarField;
    location    "8.4";
    object      p_rgh;
}
// * * * * * * * * * * * * * * * * * * * * * * * * * * * * * * * * * * * * * //

dimensions      [1 -1 -2 0 0 0 0];


internalField   nonuniform List<scalar> 
33000
(
7576.58
7561.14
7561.4
7551.87
7548.14
7542.43
7536.76
7530.85
7524.9
7519.01
7513.21
7507.49
7501.85
7496.4
7491.35
7486.85
7482.94
7479.19
7475.1
7470.64
7465.91
7461.19
7456.52
7451.9
7447.34
7442.91
7438.64
7434.58
7430.85
7427.4
7424.47
7421.54
7418.68
7415.73
7412.65
7409.53
7406.48
7403.53
7400.64
7397.97
7395.46
7393.12
7390.92
7388.88
7386.98
7385.28
7383.8
7382.46
7381.28
7380.25
7379.35
7378.61
7378.08
7377.71
7377.5
7377.44
7377.53
7377.74
7378.09
7378.59
7379.23
7380.03
7380.96
7382.01
7383.2
7384.61
7386.11
7387.73
7389.49
7391.37
7393.4
7395.53
7397.74
7400.01
7402.32
7404.7
7407.16
7408.01
7406.11
7408.84
7414.45
7415.59
7418.73
7421.7
7424.38
7427.78
7431.81
7435.37
7439.2
7442.64
7446.61
7450.24
7454.02
7457.91
7461.32
7465.16
7467.83
7471.48
7472.02
7475.85
7484.23
7489.37
7495.31
7501.66
7507.75
7514.54
7522.05
7529.16
7536.64
7543.76
7551.26
7558.56
7565.93
7573.54
7580.53
7588.09
7593.31
7600.99
7612.15
7620.78
7630.31
7640.04
7649.59
7659.73
7670.31
7680.78
7691.55
7702.38
7713.27
7724.3
7735.43
7746.56
7757.78
7769.05
7780.36
7791.64
7802.92
7814.21
7825.48
7836.75
7847.98
7859.17
7870.28
7881.37
7892.39
7903.37
7914.24
7925
7935.64
7946.15
7956.53
7966.83
7976.95
7986.88
7996.65
8006.22
8015.62
8024.83
8033.84
8042.63
8051.2
8059.55
8067.66
8075.54
8083.19
8090.6
8097.75
8104.66
8111.34
8117.77
8123.94
8129.86
8135.52
8140.96
8146.17
8151.12
8155.82
8160.26
8164.47
8168.46
8172.26
8175.82
8179.17
8182.31
8185.23
8187.95
8190.49
8192.86
8195.07
8197.12
8199.01
8200.75
8202.39
8203.92
8205.35
8206.7
8207.96
8209.14
8210.22
8211.2
8212.1
8212.89
8213.58
8214.14
8214.58
8214.89
8215.06
8215.13
8215.05
8214.85
8214.49
8214.02
8213.42
8212.69
8211.81
8210.8
8209.64
8208.37
8206.98
8205.48
8203.84
8202.07
8200.18
8198.17
8196.05
8193.83
8191.51
8189.09
8186.56
8183.94
8181.21
8178.4
8175.52
8172.57
8169.53
8166.42
8163.23
8159.98
8156.67
8153.29
8149.86
8146.37
8142.84
8139.26
8135.63
8131.95
8128.22
8124.45
8120.65
8116.83
8112.96
8109.05
8105.12
8101.14
8097.15
8093.14
8089.1
8085.04
8080.96
8076.86
8072.74
8068.61
8064.47
8060.31
8056.15
8051.98
8047.8
8043.63
8039.46
8035.29
8031.12
8026.97
8022.82
8018.67
8014.55
8010.46
8006.38
8002.32
7998.29
7994.29
7990.31
7986.37
7982.46
7978.59
7974.76
7970.98
7967.23
7963.53
7959.88
7956.28
7952.72
7949.23
7945.79
7942.4
7939.07
7935.79
7932.58
7929.42
7926.33
7923.3
7920.33
7917.43
7914.58
7911.8
7909.08
7906.43
7903.84
7901.31
7898.85
7896.45
7894.1
7891.82
7889.59
7887.42
7885.31
7883.26
7881.26
7879.31
7877.42
7875.58
7873.79
7872.06
7870.37
7868.72
7867.13
7865.57
7864.06
7862.59
7861.16
7859.76
7858.41
7857.08
7855.79
7854.53
7853.31
7852.11
7850.93
7849.78
7848.66
7847.55
7846.47
7845.41
7844.36
7843.34
7842.33
7841.33
7840.36
7839.4
7838.46
7837.54
7836.64
7835.76
7834.91
7834.07
7833.26
7832.47
7831.71
7830.96
7830.24
7829.55
7828.87
7828.22
7827.6
7826.99
7826.41
7825.85
7825.32
7824.8
7824.31
7823.84
7823.39
7822.96
7822.55
7822.16
7821.8
7821.44
7821.11
7820.79
7820.5
7820.21
7819.95
7819.69
7819.46
7819.23
7819.02
7818.83
7818.64
7818.47
7818.31
7818.16
7818.03
7817.9
7817.79
7817.68
7817.58
7817.49
7817.41
7817.34
7817.27
7817.21
7817.15
7817.1
7817.05
7817.01
7816.97
7816.93
7816.89
7816.86
7816.83
7816.8
7816.78
7816.75
7816.73
7816.71
7816.69
7816.67
7816.64
7816.63
7816.6
7816.57
7816.55
7816.53
7816.49
7816.48
7816.43
7816.37
7816.32
7816.29
7816.18
7816.27
7816.17
7815.92
7815.82
7815.67
7815.59
7815.48
7815.41
7815.35
7815.29
7815.27
7815.23
7815.23
7815.21
7815.19
7815.21
7815.28
7815.25
7815.44
7815.44
7815.24
7815.3
7815.24
7815.36
7815.39
7815.59
7815.7
7815.95
7816.15
7816.46
7816.73
7817.11
7817.44
7817.91
7818.32
7818.79
7819.26
7819.85
7820.25
7821.22
7821.71
7822.11
7822.63
7823.19
7823.81
7824.48
7825.19
7825.94
7826.73
7827.57
7828.44
7829.35
7830.29
7831.28
7832.3
7833.36
7834.45
7835.58
7836.75
7837.95
7839.18
7840.46
7841.76
7843.1
7844.47
7845.88
7847.31
7848.79
7850.29
7851.82
7853.39
7854.98
7856.61
7858.26
7859.95
7861.66
7863.4
7865.17
7866.97
7868.8
7870.65
7872.53
7874.43
7876.36
7878.32
7880.3
7882.31
7884.35
7886.4
7888.49
7890.59
7892.72
7894.88
7897.05
7899.25
7901.48
7903.72
7905.99
7908.29
7910.6
7912.94
7915.3
7917.68
7920.08
7922.5
7924.95
7927.41
7929.9
7932.41
7934.94
7937.49
7940.06
7942.65
7945.26
7947.89
7950.54
7953.22
7955.9
7958.65
7960.76
7965.29
7576.15
7557.75
7564.41
7549.48
7547.39
7541.03
7535.61
7529.82
7523.91
7518.06
7512.35
7506.58
7500.64
7494.87
7489.62
7485.14
7481.6
7478.3
7474.46
7470.15
7465.58
7460.94
7456.24
7451.52
7446.85
7442.26
7437.87
7433.56
7429.86
7426.58
7423.55
7420.61
7417.77
7414.89
7411.89
7408.81
7405.8
7402.84
7399.98
7397.42
7394.96
7392.65
7390.44
7388.32
7386.4
7384.72
7383.33
7382.04
7380.88
7379.81
7378.85
7378.13
7377.6
7377.32
7377.13
7377.06
7377.14
7377.37
7377.72
7378.21
7378.87
7379.64
7380.5
7381.6
7382.84
7384.16
7385.64
7387.37
7389.16
7391.05
7393.06
7395.16
7397.34
7399.54
7401.72
7403.86
7405.87
7407.61
7409.97
7412.86
7413.55
7411.03
7414.79
7422.93
7425.33
7428.59
7431.98
7435.48
7438.48
7442.21
7446.56
7450.31
7454.27
7458.22
7461.86
7465.87
7469.48
7473.43
7476.71
7479.87
7484.81
7485.18
7491.06
7501.8
7508.42
7515.64
7522.15
7529.04
7535.58
7542.84
7550.88
7558.38
7565.92
7573.54
7580.97
7588.66
7596.29
7603.87
7612.49
7618.12
7627.36
7639.92
7649.8
7660.01
7670.19
7680.26
7690.93
7702.16
7713.11
7724.22
7735.28
7746.36
7757.59
7768.93
7780.3
7791.63
7802.9
7814.19
7825.45
7836.74
7847.98
7859.16
7870.28
7881.38
7892.42
7903.39
7914.32
7925.09
7935.73
7946.22
7956.63
7966.95
7977.11
7987.05
7996.82
8006.4
8015.81
8025.03
8034.05
8042.86
8051.43
8059.78
8067.89
8075.79
8083.45
8090.86
8098
8104.9
8111.6
8118.04
8124.21
8130.1
8135.76
8141.21
8146.43
8151.38
8156.08
8160.53
8164.71
8168.69
8172.46
8176.02
8179.4
8182.54
8185.46
8188.17
8190.68
8193.03
8195.26
8197.31
8199.2
8200.94
8202.56
8204.08
8205.51
8206.87
8208.14
8209.32
8210.38
8211.37
8212.26
8213.07
8213.76
8214.33
8214.75
8215.05
8215.24
8215.3
8215.23
8215.02
8214.64
8214.18
8213.59
8212.86
8211.98
8210.96
8209.79
8208.51
8207.11
8205.61
8203.97
8202.2
8200.31
8198.28
8196.15
8193.92
8191.6
8189.19
8186.66
8184.03
8181.29
8178.48
8175.59
8172.63
8169.6
8166.5
8163.31
8160.05
8156.73
8153.34
8149.89
8146.41
8142.87
8139.31
8135.68
8132
8128.27
8124.49
8120.69
8116.87
8113.01
8109.1
8105.17
8101.19
8097.2
8093.18
8089.15
8085.09
8081.01
8076.91
8072.79
8068.66
8064.52
8060.37
8056.2
8052.01
8047.84
8043.66
8039.5
8035.33
8031.16
8027
8022.84
8018.7
8014.57
8010.47
8006.4
8002.34
7998.3
7994.3
7990.32
7986.37
7982.45
7978.58
7974.76
7970.97
7967.22
7963.52
7959.87
7956.26
7952.7
7949.2
7945.76
7942.37
7939.04
7935.76
7932.54
7929.39
7926.3
7923.27
7920.3
7917.39
7914.54
7911.76
7909.04
7906.39
7903.8
7901.27
7898.8
7896.4
7894.05
7891.77
7889.54
7887.37
7885.26
7883.21
7881.21
7879.26
7877.37
7875.53
7873.75
7872.01
7870.32
7868.68
7867.08
7865.53
7864.02
7862.55
7861.11
7859.72
7858.36
7857.04
7855.75
7854.49
7853.26
7852.06
7850.89
7849.74
7848.61
7847.51
7846.43
7845.37
7844.32
7843.29
7842.28
7841.29
7840.31
7839.35
7838.41
7837.5
7836.6
7835.72
7834.86
7834.03
7833.22
7832.43
7831.66
7830.92
7830.2
7829.5
7828.83
7828.18
7827.55
7826.95
7826.37
7825.81
7825.27
7824.76
7824.27
7823.8
7823.35
7822.92
7822.52
7822.13
7821.76
7821.41
7821.08
7820.76
7820.46
7820.18
7819.91
7819.66
7819.43
7819.21
7819
7818.8
7818.62
7818.45
7818.29
7818.14
7818.01
7817.88
7817.77
7817.66
7817.56
7817.48
7817.4
7817.32
7817.25
7817.2
7817.14
7817.09
7817.04
7817
7816.96
7816.92
7816.89
7816.86
7816.83
7816.8
7816.77
7816.74
7816.73
7816.7
7816.69
7816.66
7816.64
7816.61
7816.6
7816.57
7816.57
7816.54
7816.48
7816.43
7816.41
7816.35
7816.46
7816.41
7816.17
7816.11
7815.97
7815.85
7815.75
7815.63
7815.56
7815.45
7815.41
7815.32
7815.3
7815.23
7815.2
7815.16
7815.22
7815.19
7815.36
7815.33
7815.15
7815.16
7815.11
7815.09
7815.12
7815.14
7815.25
7815.33
7815.48
7815.64
7815.84
7816.09
7816.34
7816.7
7817.01
7817.39
7817.75
7818.22
7818.59
7819.47
7819.98
7820.32
7820.8
7821.31
7821.85
7822.41
7823.02
7823.67
7824.36
7825.08
7825.84
7826.64
7827.48
7828.35
7829.26
7830.21
7831.2
7832.22
7833.28
7834.37
7835.5
7836.67
7837.87
7839.1
7840.38
7841.68
7843.02
7844.39
7845.8
7847.24
7848.71
7850.21
7851.74
7853.31
7854.91
7856.53
7858.19
7859.87
7861.59
7863.33
7865.1
7866.9
7868.73
7870.58
7872.46
7874.37
7876.3
7878.26
7880.24
7882.25
7884.28
7886.34
7888.43
7890.53
7892.66
7894.82
7897
7899.2
7901.42
7903.67
7905.94
7908.23
7910.55
7912.88
7915.24
7917.62
7920.02
7922.45
7924.89
7927.36
7929.85
7932.36
7934.89
7937.44
7940.01
7942.6
7945.21
7947.84
7950.49
7953.17
7955.85
7958.6
7960.71
7965.25
7573.24
7560.34
7560.12
7550.48
7547.07
7540.45
7535.05
7529.02
7523.16
7517.48
7512.05
7506.26
7500.13
7494.06
7488.5
7483.56
7480.42
7476.9
7473.35
7469.65
7465.21
7460.7
7456.06
7451.33
7446.55
7441.78
7437.14
7432.79
7428.95
7425.44
7422.15
7419.09
7416.19
7413.29
7410.38
7407.4
7404.33
7401.39
7398.72
7396.33
7393.99
7391.71
7389.5
7387.31
7385.38
7383.73
7382.42
7381.22
7380.07
7379.01
7378
7377.24
7376.71
7376.4
7376.36
7376.32
7376.42
7376.66
7377.02
7377.42
7377.99
7378.85
7379.89
7381.17
7382.41
7383.62
7384.96
7386.56
7388.28
7390.19
7392.42
7394.54
7396.7
7398.85
7400.92
7403.04
7405.16
7407.29
7409.71
7412.17
7414.5
7417.46
7420.69
7421.47
7418.64
7423.06
7431.95
7435.75
7439.65
7442.66
7446.91
7449.7
7454.02
7458.48
7462.3
7466.52
7470.54
7474.6
7478.8
7482.98
7487.97
7492.78
7496.94
7502.27
7503.36
7510.03
7521.63
7529.28
7537.52
7543.92
7551.27
7557.79
7565.24
7573.47
7581.15
7589.16
7597.05
7605.25
7614.05
7622.86
7631.29
7640.53
7646.78
7656.54
7669.9
7680.44
7691.31
7702.07
7712.57
7723.55
7734.99
7746.16
7757.53
7768.85
7780.17
7791.38
7802.62
7813.93
7825.26
7836.64
7847.93
7859.14
7870.26
7881.4
7892.48
7903.54
7914.46
7925.23
7935.83
7946.41
7956.87
7967.27
7977.42
7987.32
7997.08
8006.76
8016.27
8025.51
8034.49
8043.23
8051.82
8060.21
8068.37
8076.3
8083.98
8091.38
8098.5
8105.39
8112.1
8118.58
8124.74
8130.6
8136.28
8141.7
8146.94
8151.91
8156.61
8161.06
8165.22
8169.17
8172.93
8176.47
8179.84
8183
8185.92
8188.63
8191.1
8193.43
8195.62
8197.71
8199.62
8201.38
8202.98
8204.47
8205.89
8207.25
8208.54
8209.71
8210.76
8211.73
8212.63
8213.46
8214.14
8214.69
8215.1
8215.41
8215.6
8215.68
8215.59
8215.35
8214.97
8214.5
8213.93
8213.19
8212.31
8211.28
8210.1
8208.79
8207.38
8205.88
8204.24
8202.47
8200.56
8198.52
8196.37
8194.13
8191.8
8189.39
8186.85
8184.21
8181.46
8178.63
8175.74
8172.8
8169.76
8166.64
8163.44
8160.17
8156.81
8153.43
8149.99
8146.53
8143.01
8139.42
8135.78
8132.1
8128.35
8124.58
8120.78
8116.97
8113.11
8109.21
8105.27
8101.29
8097.3
8093.31
8089.27
8085.2
8081.09
8077
8072.9
8068.77
8064.63
8060.47
8056.29
8052.1
8047.92
8043.75
8039.59
8035.41
8031.24
8027.07
8022.91
8018.75
8014.62
8010.51
8006.42
8002.37
7998.33
7994.31
7990.33
7986.37
7982.45
7978.58
7974.75
7970.96
7967.2
7963.49
7959.83
7956.22
7952.66
7949.16
7945.71
7942.32
7938.98
7935.7
7932.48
7929.32
7926.21
7923.18
7920.21
7917.31
7914.46
7911.67
7908.95
7906.29
7903.7
7901.17
7898.7
7896.29
7893.95
7891.66
7889.44
7887.27
7885.16
7883.1
7881.11
7879.16
7877.27
7875.43
7873.65
7871.91
7870.22
7868.58
7866.99
7865.43
7863.92
7862.45
7861.02
7859.63
7858.27
7856.95
7855.66
7854.4
7853.17
7851.97
7850.8
7849.65
7848.52
7847.42
7846.34
7845.27
7844.23
7843.2
7842.19
7841.2
7840.22
7839.26
7838.32
7837.4
7836.5
7835.63
7834.77
7833.93
7833.12
7832.33
7831.57
7830.83
7830.11
7829.41
7828.74
7828.09
7827.47
7826.86
7826.28
7825.73
7825.19
7824.68
7824.19
7823.72
7823.27
7822.85
7822.44
7822.06
7821.69
7821.34
7821.01
7820.7
7820.4
7820.12
7819.86
7819.61
7819.37
7819.15
7818.94
7818.75
7818.57
7818.4
7818.24
7818.1
7817.97
7817.84
7817.73
7817.62
7817.53
7817.44
7817.36
7817.29
7817.23
7817.17
7817.11
7817.06
7817.02
7816.98
7816.94
7816.9
7816.87
7816.84
7816.81
7816.79
7816.76
7816.75
7816.72
7816.7
7816.68
7816.67
7816.64
7816.65
7816.62
7816.57
7816.53
7816.52
7816.47
7816.6
7816.57
7816.33
7816.28
7816.16
7816.09
7816
7815.92
7815.79
7815.72
7815.6
7815.53
7815.43
7815.33
7815.28
7815.18
7815.23
7815.15
7815.29
7815.22
7815.01
7814.99
7814.91
7814.9
7814.87
7814.91
7814.85
7814.95
7814.91
7815.08
7815.08
7815.33
7815.4
7815.73
7815.9
7816.22
7816.45
7816.82
7817.08
7817.84
7818.27
7818.57
7818.98
7819.46
7819.97
7820.52
7821.06
7821.62
7822.2
7822.81
7823.46
7824.15
7824.87
7825.63
7826.43
7827.27
7828.15
7829.06
7830.01
7831
7832.02
7833.08
7834.18
7835.31
7836.48
7837.68
7838.92
7840.2
7841.51
7842.85
7844.22
7845.63
7847.07
7848.55
7850.05
7851.59
7853.16
7854.75
7856.38
7858.04
7859.73
7861.44
7863.19
7864.96
7866.76
7868.59
7870.44
7872.32
7874.23
7876.17
7878.12
7880.11
7882.12
7884.16
7886.22
7888.3
7890.41
7892.54
7894.7
7896.87
7899.08
7901.3
7903.55
7905.82
7908.11
7910.43
7912.77
7915.13
7917.51
7919.91
7922.34
7924.78
7927.25
7929.74
7932.24
7934.77
7937.32
7939.89
7942.49
7945.1
7947.73
7950.38
7953.06
7955.74
7958.49
7960.6
7965.14
7570.79
7561.15
7558.78
7550.4
7546.59
7540.08
7534.72
7528.67
7522.69
7517.19
7512.13
7506.45
7500.55
7494.79
7489.33
7484.55
7480.45
7476.47
7472.49
7468.42
7464.09
7459.63
7455.01
7450.31
7445.64
7440.94
7436.27
7431.93
7428.07
7424.59
7421.15
7417.9
7414.76
7411.64
7408.55
7405.35
7402.37
7399.64
7397.1
7394.9
7392.57
7390.31
7388.17
7386.1
7384.07
7382.4
7381.22
7379.97
7378.82
7377.79
7376.79
7375.91
7375.41
7375.25
7375.22
7375.2
7375.32
7375.59
7375.97
7376.44
7376.97
7377.83
7379.14
7380.28
7381.48
7382.84
7384.11
7385.6
7387.33
7389.21
7391.29
7393.72
7395.94
7398.18
7400.39
7402.5
7404.65
7407.06
7409.62
7412.02
7414.42
7417.08
7419.98
7422.81
7426.28
7429.95
7433.38
7434.72
7432.83
7438.86
7447.74
7450.5
7455.02
7458.94
7462.28
7466.75
7472.01
7476.41
7480.94
7485.37
7490.04
7495
7500.42
7506.61
7511.98
7518.39
7522.78
7528.97
7530.71
7537.86
7550.59
7558.31
7566.09
7573.62
7581.16
7589.15
7597.83
7606.16
7614.78
7623.31
7632.43
7642.05
7651.71
7660.66
7670.38
7677.06
7687.59
7701.68
7712.62
7723.68
7734.65
7745.4
7756.82
7768.63
7780.03
7791.5
7802.65
7813.91
7825.12
7836.46
7847.88
7859.16
7870.36
7881.47
7892.63
7903.76
7914.67
7925.4
7936.1
7946.72
7957.29
7967.72
7977.85
7987.76
7997.59
8007.28
8016.87
8026.15
8035.14
8043.9
8052.5
8060.88
8069.03
8077.05
8084.76
8092.16
8099.26
8106.18
8112.85
8119.36
8125.56
8131.41
8137.08
8142.5
8147.68
8152.7
8157.41
8161.85
8166
8169.91
8173.66
8177.19
8180.6
8183.73
8186.64
8189.33
8191.78
8194.09
8196.27
8198.33
8200.29
8202.06
8203.7
8205.16
8206.54
8207.87
8209.18
8210.36
8211.43
8212.36
8213.21
8214.01
8214.72
8215.26
8215.66
8215.98
8216.19
8216.23
8216.13
8215.84
8215.49
8215.01
8214.44
8213.7
8212.8
8211.75
8210.53
8209.22
8207.8
8206.3
8204.65
8202.85
8200.94
8198.9
8196.71
8194.44
8192.08
8189.64
8187.12
8184.48
8181.73
8178.86
8175.97
8173.02
8169.98
8166.84
8163.61
8160.29
8156.97
8153.58
8150.19
8146.72
8143.17
8139.57
8135.9
8132.19
8128.47
8124.72
8120.96
8117.14
8113.26
8109.32
8105.38
8101.46
8097.49
8093.47
8089.43
8085.34
8081.24
8077.14
8073.06
8068.94
8064.79
8060.63
8056.45
8052.25
8048.06
8043.88
8039.71
8035.54
8031.35
8027.16
8022.99
8018.86
8014.73
8010.61
8006.48
8002.39
7998.35
7994.35
7990.35
7986.38
7982.45
7978.57
7974.73
7970.93
7967.14
7963.43
7959.78
7956.17
7952.61
7949.09
7945.63
7942.21
7938.88
7935.6
7932.38
7929.21
7926.1
7923.06
7920.08
7917.18
7914.33
7911.53
7908.8
7906.15
7903.56
7901.02
7898.54
7896.13
7893.79
7891.51
7889.28
7887.11
7884.99
7882.95
7880.96
7879.01
7877.12
7875.28
7873.5
7871.76
7870.08
7868.44
7866.84
7865.29
7863.78
7862.31
7860.88
7859.49
7858.13
7856.81
7855.52
7854.26
7853.03
7851.83
7850.65
7849.5
7848.38
7847.28
7846.19
7845.13
7844.08
7843.05
7842.04
7841.05
7840.07
7839.12
7838.18
7837.26
7836.36
7835.48
7834.62
7833.79
7832.98
7832.19
7831.43
7830.68
7829.97
7829.28
7828.6
7827.96
7827.33
7826.73
7826.16
7825.6
7825.07
7824.56
7824.07
7823.61
7823.16
7822.73
7822.33
7821.95
7821.59
7821.24
7820.91
7820.6
7820.31
7820.03
7819.77
7819.52
7819.29
7819.07
7818.86
7818.67
7818.49
7818.33
7818.18
7818.03
7817.9
7817.78
7817.67
7817.57
7817.48
7817.4
7817.32
7817.25
7817.19
7817.13
7817.08
7817.04
7816.99
7816.96
7816.92
7816.89
7816.86
7816.83
7816.81
7816.76
7816.75
7816.71
7816.72
7816.68
7816.7
7816.66
7816.62
7816.59
7816.59
7816.55
7816.7
7816.67
7816.44
7816.39
7816.29
7816.24
7816.16
7816.1
7815.99
7815.91
7815.8
7815.71
7815.62
7815.48
7815.43
7815.32
7815.32
7815.2
7815.3
7815.2
7814.98
7814.91
7814.83
7814.77
7814.74
7814.69
7814.65
7814.63
7814.63
7814.62
7814.67
7814.7
7814.83
7814.94
7815.07
7815.24
7815.4
7815.63
7815.8
7816.41
7816.77
7817.01
7817.36
7817.76
7818.21
7818.68
7819.16
7819.67
7820.2
7820.72
7821.28
7821.87
7822.5
7823.16
7823.85
7824.58
7825.35
7826.15
7826.99
7827.87
7828.79
7829.74
7830.73
7831.75
7832.82
7833.91
7835.05
7836.22
7837.43
7838.67
7839.94
7841.25
7842.6
7843.98
7845.39
7846.83
7848.31
7849.82
7851.36
7852.93
7854.53
7856.16
7857.82
7859.51
7861.23
7862.97
7864.75
7866.55
7868.38
7870.24
7872.12
7874.03
7875.97
7877.93
7879.92
7881.93
7883.97
7886.03
7888.12
7890.23
7892.36
7894.52
7896.7
7898.9
7901.13
7903.38
7905.65
7907.95
7910.26
7912.6
7914.96
7917.34
7919.75
7922.17
7924.62
7927.09
7929.57
7932.08
7934.61
7937.16
7939.73
7942.32
7944.94
7947.57
7950.22
7952.9
7955.58
7958.33
7960.44
7964.98
7570.22
7560.86
7558.16
7550.22
7546.17
7539.71
7534.44
7528.52
7522.53
7516.96
7512.05
7506.6
7500.94
7495.32
7489.91
7484.9
7480.22
7475.78
7471.4
7467
7462.54
7458.03
7453.48
7448.89
7444.24
7439.52
7435.05
7430.81
7426.89
7423.28
7419.69
7416.25
7412.91
7409.54
7406.1
7403.07
7400.24
7397.63
7395.48
7393.05
7390.7
7388.45
7386.35
7384.38
7382.56
7380.93
7379.52
7378.25
7377.11
7376.12
7375.23
7374.39
7373.84
7373.76
7373.64
7373.64
7373.78
7374.07
7374.49
7375.07
7375.79
7376.71
7377.77
7378.98
7380.22
7381.64
7383.08
7384.41
7386.11
7388
7390.08
7392.66
7394.99
7397.28
7399.63
7401.97
7404.3
7406.73
7409.37
7412
7414.71
7417.53
7420.29
7423.11
7426.27
7429.72
7433.31
7436.85
7440.85
7445.01
7446.95
7445.41
7451.59
7460.74
7463.6
7468.4
7472.89
7476.89
7482.05
7487.66
7492.52
7497.77
7502.91
7508.37
7514.08
7520.23
7526.84
7533.07
7539.6
7544.8
7551.57
7553.34
7560.93
7574.1
7582.34
7590.52
7598.56
7606.48
7615.24
7624.8
7633.81
7643.08
7652.3
7661.93
7672.13
7682.23
7692.01
7702.35
7709.43
7720.04
7734.51
7745.67
7757.52
7768.59
7779.78
7790.56
7801.89
7813.58
7824.87
7836.29
7847.64
7858.96
7870.42
7881.74
7892.91
7903.99
7914.85
7925.66
7936.46
7947.19
7957.91
7968.3
7978.38
7988.4
7998.29
8008.03
8017.69
8027.01
8036.07
8044.83
8053.43
8061.84
8070.03
8078.1
8085.81
8093.2
8100.3
8107.24
8113.93
8120.42
8126.69
8132.57
8138.16
8143.58
8148.76
8153.8
8158.5
8162.93
8167.03
8170.94
8174.68
8178.29
8181.65
8184.76
8187.65
8190.34
8192.78
8195.06
8197.24
8199.26
8201.26
8203.05
8204.69
8206.19
8207.51
8208.81
8210.1
8211.29
8212.34
8213.3
8214.07
8214.82
8215.46
8216.04
8216.52
8216.82
8216.98
8216.99
8216.81
8216.56
8216.2
8215.76
8215.16
8214.39
8213.45
8212.33
8211.12
8209.82
8208.44
8206.88
8205.16
8203.3
8201.37
8199.37
8197.23
8194.96
8192.55
8190
8187.42
8184.75
8181.99
8179.2
8176.33
8173.34
8170.26
8167.1
8163.83
8160.52
8157.19
8153.83
8150.43
8146.93
8143.37
8139.71
8136.06
8132.38
8128.67
8124.96
8121.18
8117.34
8113.45
8109.5
8105.57
8101.64
8097.7
8093.69
8089.64
8085.53
8081.45
8077.37
8073.28
8069.16
8065
8060.84
8056.66
8052.47
8048.24
8044.06
8039.9
8035.7
8031.49
8027.3
8023.13
8018.99
8014.85
8010.72
8006.59
8002.47
7998.4
7994.37
7990.38
7986.42
7982.48
7978.58
7974.69
7970.86
7967.08
7963.37
7959.71
7956.09
7952.51
7948.98
7945.5
7942.09
7938.75
7935.47
7932.24
7929.07
7925.95
7922.89
7919.92
7917
7914.13
7911.33
7908.61
7905.96
7903.37
7900.82
7898.34
7895.93
7893.59
7891.3
7889.07
7886.89
7884.78
7882.73
7880.75
7878.81
7876.92
7875.07
7873.29
7871.56
7869.88
7868.24
7866.64
7865.09
7863.58
7862.11
7860.68
7859.29
7857.94
7856.62
7855.32
7854.06
7852.83
7851.63
7850.46
7849.31
7848.18
7847.08
7845.99
7844.91
7843.87
7842.84
7841.83
7840.85
7839.87
7838.92
7837.98
7837.06
7836.16
7835.28
7834.43
7833.6
7832.79
7832
7831.24
7830.5
7829.78
7829.09
7828.42
7827.78
7827.16
7826.56
7825.99
7825.43
7824.9
7824.4
7823.91
7823.45
7823.01
7822.58
7822.18
7821.81
7821.45
7821.1
7820.78
7820.47
7820.18
7819.91
7819.65
7819.4
7819.17
7818.95
7818.75
7818.57
7818.4
7818.23
7818.08
7817.94
7817.82
7817.7
7817.59
7817.49
7817.4
7817.32
7817.26
7817.19
7817.13
7817.08
7817.03
7816.98
7816.95
7816.92
7816.88
7816.86
7816.81
7816.8
7816.75
7816.76
7816.73
7816.75
7816.72
7816.68
7816.65
7816.65
7816.61
7816.77
7816.75
7816.53
7816.5
7816.4
7816.37
7816.3
7816.25
7816.14
7816.09
7815.98
7815.93
7815.82
7815.73
7815.62
7815.59
7815.47
7815.51
7815.39
7815.11
7815.03
7814.85
7814.81
7814.68
7814.65
7814.55
7814.48
7814.41
7814.35
7814.32
7814.28
7814.3
7814.28
7814.38
7814.32
7814.5
7814.38
7814.69
7814.7
7815.24
7815.51
7815.7
7815.97
7816.3
7816.65
7817.04
7817.44
7817.85
7818.28
7818.72
7819.19
7819.7
7820.27
7820.85
7821.46
7822.09
7822.76
7823.45
7824.19
7824.96
7825.77
7826.61
7827.49
7828.41
7829.37
7830.36
7831.39
7832.45
7833.55
7834.69
7835.87
7837.08
7838.32
7839.6
7840.92
7842.26
7843.65
7845.06
7846.51
7847.99
7849.5
7851.04
7852.62
7854.22
7855.86
7857.52
7859.22
7860.94
7862.69
7864.47
7866.27
7868.11
7869.97
7871.86
7873.77
7875.71
7877.67
7879.66
7881.68
7883.72
7885.78
7887.87
7889.98
7892.12
7894.28
7896.46
7898.67
7900.9
7903.15
7905.42
7907.72
7910.04
7912.38
7914.74
7917.12
7919.53
7921.95
7924.4
7926.87
7929.36
7931.87
7934.4
7936.95
7939.52
7942.11
7944.72
7947.36
7950.01
7952.68
7955.37
7958.12
7960.23
7964.77
7570.21
7560.78
7557.79
7550.11
7545.88
7539.4
7534.28
7528.2
7522.13
7516.34
7511.68
7506.23
7500.72
7495.22
7489.84
7484.64
7479.63
7474.81
7470.11
7465.48
7460.87
7456.26
7451.67
7447.11
7442.55
7437.93
7433.36
7429.21
7425.42
7421.59
7417.86
7414.29
7410.77
7407.04
7403.66
7400.69
7398.17
7395.81
7393.25
7390.75
7388.4
7386.18
7384.08
7382.15
7380.39
7378.79
7377.35
7376.08
7374.97
7374
7373.18
7372.53
7372.02
7371.6
7371.41
7371.56
7371.8
7372.15
7372.63
7373.27
7374.08
7375
7376.06
7377.28
7378.64
7380.1
7381.7
7383.21
7384.64
7386.56
7388.81
7391.51
7393.83
7396.2
7398.65
7401.15
7403.7
7406.31
7408.89
7411.47
7414.39
7417.63
7420.72
7423.91
7427.13
7430.2
7433.55
7437.05
7441.18
7445.4
7449.35
7453.84
7458.13
7459.86
7458.45
7465.46
7475.83
7479.59
7484.76
7489.72
7493.77
7499.56
7505.79
7511.56
7517.46
7523.61
7529.13
7535.46
7541.48
7548.23
7555.33
7562.2
7568.16
7575.32
7577.43
7585.54
7599.31
7608.06
7616.8
7625.64
7634.31
7643.63
7653.81
7663.35
7673.1
7682.8
7693.14
7703.95
7714.6
7724.48
7735.03
7742.22
7753.46
7768.13
7779.94
7791.75
7802.58
7813.88
7824.56
7835.86
7847.58
7859.1
7870.59
7881.91
7893.1
7904.24
7915.18
7926.06
7936.95
7947.92
7958.6
7969.05
7979.22
7989.23
7999.18
8009.1
8018.74
8028.09
8037.21
8046.06
8054.61
8063.05
8071.38
8079.42
8087.13
8094.57
8101.67
8108.59
8115.33
8121.91
8128.11
8134.03
8139.59
8144.97
8150.25
8155.23
8159.91
8164.31
8168.38
8172.28
8176.11
8179.72
8183.02
8186.11
8188.98
8191.66
8194.15
8196.41
8198.55
8200.57
8202.54
8204.37
8206.02
8207.53
8208.92
8210.16
8211.37
8212.5
8213.53
8214.46
8215.27
8215.94
8216.59
8217.17
8217.6
8217.86
8217.98
8217.89
8217.76
8217.51
8217.21
8216.73
8216.07
8215.26
8214.23
8213.11
8211.9
8210.64
8209.2
8207.6
8205.81
8203.95
8201.98
8199.96
8197.81
8195.51
8193.11
8190.57
8187.89
8185.19
8182.41
8179.59
8176.71
8173.71
8170.61
8167.44
8164.18
8160.81
8157.49
8154.14
8150.71
8147.19
8143.56
8139.94
8136.29
8132.65
8128.98
8125.24
8121.44
8117.6
8113.67
8109.75
8105.83
8101.93
8097.98
8093.97
8089.91
8085.8
8081.73
8077.67
8073.57
8069.43
8065.27
8061.06
8056.88
8052.72
8048.53
8044.33
8040.13
8035.9
8031.67
8027.47
8023.32
8019.16
8015
8010.85
8006.72
8002.58
7998.48
7994.43
7990.43
7986.46
7982.5
7978.58
7974.67
7970.81
7967.03
7963.31
7959.63
7955.99
7952.39
7948.82
7945.35
7941.95
7938.6
7935.3
7932.06
7928.87
7925.74
7922.69
7919.71
7916.78
7913.92
7911.1
7908.38
7905.72
7903.12
7900.57
7898.08
7895.67
7893.33
7891.04
7888.81
7886.62
7884.51
7882.47
7880.48
7878.54
7876.65
7874.81
7873.03
7871.3
7869.61
7867.97
7866.38
7864.84
7863.33
7861.86
7860.42
7859.03
7857.69
7856.36
7855.07
7853.8
7852.58
7851.38
7850.2
7849.05
7847.92
7846.81
7845.71
7844.64
7843.6
7842.58
7841.57
7840.58
7839.61
7838.66
7837.72
7836.8
7835.9
7835.02
7834.17
7833.35
7832.54
7831.76
7830.99
7830.26
7829.55
7828.86
7828.19
7827.55
7826.93
7826.34
7825.77
7825.22
7824.7
7824.19
7823.71
7823.25
7822.81
7822.39
7822
7821.63
7821.27
7820.93
7820.61
7820.31
7820.02
7819.75
7819.49
7819.25
7819.03
7818.81
7818.62
7818.44
7818.27
7818.11
7817.96
7817.83
7817.71
7817.6
7817.5
7817.4
7817.32
7817.25
7817.18
7817.13
7817.07
7817.02
7816.97
7816.95
7816.91
7816.88
7816.85
7816.84
7816.8
7816.8
7816.78
7816.71
7816.71
7816.64
7816.69
7816.62
7816.81
7816.78
7816.57
7816.54
7816.46
7816.43
7816.39
7816.34
7816.25
7816.21
7816.11
7816.06
7815.96
7815.87
7815.78
7815.73
7815.64
7815.64
7815.55
7815.22
7815.16
7814.95
7814.89
7814.73
7814.68
7814.54
7814.45
7814.34
7814.26
7814.16
7814.11
7814.03
7814.01
7813.98
7813.97
7813.94
7813.93
7813.91
7814.16
7814.37
7814.45
7814.61
7814.78
7815.05
7815.32
7815.63
7815.94
7816.27
7816.62
7817
7817.4
7817.83
7818.28
7818.77
7819.27
7819.81
7820.38
7820.98
7821.62
7822.28
7822.98
7823.72
7824.49
7825.3
7826.15
7827.03
7827.95
7828.91
7829.9
7830.93
7832
7833.11
7834.25
7835.43
7836.64
7837.89
7839.18
7840.5
7841.85
7843.23
7844.65
7846.11
7847.59
7849.11
7850.66
7852.24
7853.85
7855.49
7857.16
7858.85
7860.58
7862.34
7864.12
7865.93
7867.77
7869.63
7871.52
7873.44
7875.38
7877.35
7879.35
7881.36
7883.41
7885.47
7887.57
7889.68
7891.82
7893.98
7896.17
7898.37
7900.61
7902.86
7905.14
7907.43
7909.75
7912.1
7914.46
7916.85
7919.25
7921.68
7924.13
7926.6
7929.09
7931.6
7934.13
7936.68
7939.25
7941.84
7944.46
7947.09
7949.74
7952.42
7955.1
7957.86
7959.97
7964.51
7570.52
7560.97
7557.6
7549.99
7545.63
7539.07
7534.54
7527.64
7521.83
7516.11
7511.07
7505.59
7500.05
7494.54
7489.11
7483.78
7478.61
7473.56
7468.63
7463.8
7459.03
7454.32
7449.65
7445.04
7440.47
7435.95
7431.53
7427.32
7423.32
7419.4
7415.62
7411.96
7408.39
7404.81
7401.42
7398.58
7395.93
7393.19
7390.54
7388.01
7385.64
7383.45
7381.38
7379.47
7377.72
7376.11
7374.67
7373.42
7372.35
7371.43
7370.62
7370
7369.48
7368.81
7368.18
7368.67
7369.37
7369.79
7370.32
7371.01
7371.86
7372.85
7373.98
7375.24
7376.66
7378.21
7379.89
7381.68
7383.42
7385.08
7387.18
7389.96
7392.37
7394.85
7397.44
7400.07
7402.77
7405.52
7408.2
7410.84
7413.86
7417.18
7420.77
7424.21
7427.71
7431.14
7434.65
7438.51
7442.41
7446.17
7450.06
7454.14
7458.44
7462.72
7467.9
7473.18
7475.48
7474.04
7481.94
7493.04
7497.06
7502.65
7508.15
7512.6
7519.27
7526.44
7532.58
7538.8
7545.02
7551.8
7558.21
7564.95
7571.91
7579.49
7586.67
7593.27
7600.87
7603.22
7612.05
7626.99
7636.36
7645.7
7654.98
7664.02
7673.84
7684.87
7695
7705.32
7715.54
7726
7737.3
7747.71
7758.74
7768.81
7779.62
7787.51
7798.61
7813.44
7824.9
7836.35
7847.64
7858.79
7870.29
7882.04
7893.39
7904.6
7915.57
7926.5
7937.64
7948.7
7959.39
7969.94
7980.27
7990.33
8000.35
8010.38
8020
8029.4
8038.57
8047.53
8056.19
8064.66
8073
8081
8088.75
8096.24
8103.42
8110.34
8117.15
8123.64
8129.84
8135.75
8141.38
8146.82
8152.07
8156.99
8161.65
8165.99
8170.09
8174.06
8177.95
8181.46
8184.75
8187.8
8190.59
8193.25
8195.9
8198.27
8200.38
8202.29
8204.15
8205.99
8207.71
8209.24
8210.63
8211.92
8213.02
8213.97
8214.96
8215.85
8216.69
8217.5
8218.13
8218.61
8218.96
8219.16
8219.15
8219.11
8218.97
8218.76
8218.42
8217.87
8217.18
8216.34
8215.34
8214.12
8212.87
8211.51
8210.1
8208.48
8206.71
8204.75
8202.81
8200.71
8198.48
8196.12
8193.7
8191.2
8188.57
8185.75
8182.91
8180.04
8177.15
8174.14
8171.03
8167.84
8164.53
8161.14
8157.85
8154.49
8151.03
8147.51
8143.91
8140.23
8136.6
8132.98
8129.3
8125.54
8121.75
8117.9
8113.96
8110.06
8106.17
8102.28
8098.31
8094.31
8090.26
8086.13
8082.07
8078.01
8073.9
8069.75
8065.56
8061.34
8057.17
8053.02
8048.83
8044.61
8040.4
8036.15
8031.9
8027.69
8023.52
8019.34
8015.16
8010.99
8006.85
8002.7
7998.57
7994.52
7990.5
7986.49
7982.52
7978.58
7974.67
7970.77
7966.98
7963.24
7959.53
7955.87
7952.26
7948.66
7945.18
7941.77
7938.4
7935.09
7931.83
7928.64
7925.51
7922.45
7919.45
7916.51
7913.62
7910.82
7908.09
7905.42
7902.81
7900.26
7897.77
7895.35
7893
7890.71
7888.47
7886.31
7884.2
7882.15
7880.15
7878.21
7876.32
7874.49
7872.71
7870.98
7869.29
7867.65
7866.06
7864.51
7863.01
7861.54
7860.11
7858.72
7857.36
7856.04
7854.75
7853.49
7852.26
7851.05
7849.87
7848.72
7847.58
7846.47
7845.39
7844.32
7843.28
7842.25
7841.24
7840.26
7839.28
7838.33
7837.4
7836.49
7835.59
7834.72
7833.87
7833.05
7832.24
7831.46
7830.7
7829.97
7829.26
7828.58
7827.91
7827.27
7826.66
7826.07
7825.51
7824.96
7824.44
7823.95
7823.47
7823.02
7822.58
7822.17
7821.78
7821.41
7821.06
7820.72
7820.41
7820.11
7819.83
7819.56
7819.31
7819.08
7818.86
7818.65
7818.46
7818.28
7818.12
7817.97
7817.82
7817.69
7817.58
7817.47
7817.37
7817.28
7817.21
7817.14
7817.09
7817.02
7816.98
7816.93
7816.9