/*--------------------------------*- C++ -*----------------------------------*\
| =========                 |                                                 |
| \\      /  F ield         | OpenFOAM: The Open Source CFD Toolbox           |
|  \\    /   O peration     | Version:  v2006                                 |
|   \\  /    A nd           | Website:  www.openfoam.com                      |
|    \\/     M anipulation  |                                                 |
\*---------------------------------------------------------------------------*/
FoamFile
{
    version     2.0;
    format      ascii;
    class       volVectorField;
    location    "8.4";
    object      U;
}
// * * * * * * * * * * * * * * * * * * * * * * * * * * * * * * * * * * * * * //

dimensions      [0 1 -1 0 0 0 0];


internalField   nonuniform List<vector> 
33000
(
(-0.0378384 0 0.032427)
(0.000990745 0 0.0119914)
(-0.0416821 0 0.00117344)
(-0.0208947 0 -0.00840641)
(-0.0119373 0 -0.0191768)
(0.0082874 0 -0.0221013)
(0.025207 0 -0.0192078)
(0.0396393 0 -0.0132627)
(0.0509523 0 -0.0090047)
(0.0589553 0 -0.0063785)
(0.0673145 0 -0.00764702)
(0.0767014 0 -0.00883916)
(0.0854711 0 -0.00731531)
(0.0923483 0 -0.00523477)
(0.0959136 0 -0.000697852)
(0.0929874 0 0.00556722)
(0.0812635 0 0.0164024)
(0.0579964 0 0.0222779)
(0.0352446 0 0.0167339)
(0.0167693 0 0.0077115)
(0.00843432 0 0.00235741)
(0.00456209 0 6.88974e-05)
(0.00366415 0 -0.000570134)
(0.00639459 0 -0.00217582)
(0.00992554 0 -0.00226468)
(0.0134272 0 -0.00195268)
(0.0154031 0 -0.000424135)
(0.0154372 0 0.00206182)
(0.0120524 0 0.00609688)
(0.00535937 0 0.0115777)
(-0.00429516 0 0.0170882)
(-0.0180263 0 0.0175483)
(-0.0336597 0 0.0139968)
(-0.0493045 0 0.0135342)
(-0.066132 0 0.0143388)
(-0.0795676 0 0.010005)
(-0.0877307 0 0.00653905)
(-0.0961629 0 0.00789874)
(-0.105964 0 0.00734397)
(-0.11387 0 0.00449605)
(-0.116826 0 0.00165676)
(-0.118999 0 0.00116325)
(-0.121517 0 0.00207159)
(-0.124763 0 0.00385606)
(-0.129908 0 0.00549549)
(-0.135748 0 0.00424115)
(-0.139774 0 0.0018801)
(-0.141316 0 0.000510762)
(-0.142439 0 0.000415477)
(-0.143745 0 0.00132633)
(-0.145863 0 0.00334354)
(-0.150077 0 0.0037978)
(-0.153712 0 0.00269655)
(-0.156582 0 0.00130687)
(-0.157597 0 0.000325181)
(-0.157819 0 -8.63568e-05)
(-0.157094 0 -0.000525141)
(-0.156097 0 -0.00102734)
(-0.154587 0 -0.0018954)
(-0.152729 0 -0.00208197)
(-0.151562 0 -0.00115394)
(-0.15174 0 0.000686061)
(-0.15308 0 0.00195149)
(-0.154964 0 0.00221116)
(-0.156652 0 0.00182277)
(-0.157722 0 0.00118095)
(-0.15856 0 0.000767717)
(-0.159515 0 0.000567939)
(-0.159967 0 -0.000274477)
(-0.159143 0 -0.00193047)
(-0.15642 0 -0.00360463)
(-0.151943 0 -0.00495124)
(-0.145949 0 -0.00644998)
(-0.138383 0 -0.00840236)
(-0.128967 0 -0.0111555)
(-0.116802 0 -0.014625)
(-0.09948 0 -0.0184204)
(-0.0893146 0 -0.0237316)
(-0.066012 0 -0.00890212)
(-0.0579381 0 0.00487595)
(-0.052865 0 0.00916846)
(-0.0517138 0 0.0105575)
(-0.0554712 0 0.00155141)
(-0.0562258 0 -0.0018315)
(-0.0600683 0 -0.000828573)
(-0.0628839 0 0.00157777)
(-0.0642877 0 0.00195218)
(-0.0656987 0 0.00188101)
(-0.0668166 0 0.00112229)
(-0.0682441 0 0.000312112)
(-0.0687983 0 3.13806e-05)
(-0.0688981 0 -2.98116e-05)
(-0.0689905 0 -0.000101967)
(-0.0683294 0 -0.000547106)
(-0.0679547 0 -0.000745512)
(-0.0664028 0 -0.0013136)
(-0.0656213 0 -0.00275701)
(-0.0607894 0 -0.00497206)
(-0.0583254 0 -0.0082498)
(-0.0493753 0 -0.00467952)
(-0.0502 0 0.0015739)
(-0.0481651 0 0.00470516)
(-0.0496557 0 0.0040861)
(-0.0495036 0 -1.14215e-05)
(-0.050584 0 -0.000960224)
(-0.0518397 0 -0.00135627)
(-0.0521732 0 -0.000482168)
(-0.0521033 0 7.41159e-07)
(-0.0520762 0 0.000718659)
(-0.0519355 0 0.000640801)
(-0.051903 0 3.3492e-05)
(-0.0515499 0 -0.000257682)
(-0.0515136 0 -0.000723269)
(-0.050555 0 -0.00105939)
(-0.049842 0 -0.00216678)
(-0.0467921 0 -0.00299934)
(-0.0451033 0 -0.00518814)
(-0.0388355 0 -0.002348)
(-0.0392667 0 0.00112376)
(-0.037997 0 0.00276336)
(-0.0390048 0 0.0020949)
(-0.0389047 0 -0.000132643)
(-0.0393937 0 -0.000398923)
(-0.0401777 0 -0.000330607)
(-0.0403546 0 0.000205635)
(-0.0404277 0 0.000433284)
(-0.0406637 0 0.00040247)
(-0.0407168 0 8.76125e-05)
(-0.0408498 0 3.38752e-05)
(-0.0409686 0 -1.37451e-05)
(-0.0409952 0 4.44472e-05)
(-0.0410102 0 7.10694e-05)
(-0.0410313 0 6.93121e-05)
(-0.0410111 0 -1.4344e-05)
(-0.040957 0 -6.4175e-05)
(-0.040864 0 -0.000108262)
(-0.0407844 0 -9.79106e-05)
(-0.040686 0 -0.000103964)
(-0.0405811 0 -9.93457e-05)
(-0.0404606 0 -0.000118869)
(-0.0403044 0 -0.000137328)
(-0.0401305 0 -0.0001493)
(-0.0399483 0 -0.000145415)
(-0.0397653 0 -0.000150795)
(-0.0395608 0 -0.000168233)
(-0.0393289 0 -0.000197299)
(-0.0390593 0 -0.00022882)
(-0.0387541 0 -0.000250525)
(-0.0384363 0 -0.000254749)
(-0.0381204 0 -0.000247156)
(-0.0378068 0 -0.000252273)
(-0.0374566 0 -0.000299689)
(-0.0370453 0 -0.000337496)
(-0.0366095 0 -0.00034839)
(-0.0361723 0 -0.000353369)
(-0.0357257 0 -0.000359063)
(-0.0352606 0 -0.000371598)
(-0.0347663 0 -0.000392825)
(-0.0342471 0 -0.000418047)
(-0.0337026 0 -0.000440699)
(-0.0331409 0 -0.000453506)
(-0.032561 0 -0.000467346)
(-0.0319599 0 -0.000475668)
(-0.0313533 0 -0.000487534)
(-0.0307145 0 -0.00051504)
(-0.030038 0 -0.000538952)
(-0.0293467 0 -0.000540682)
(-0.0286652 0 -0.000539402)
(-0.0279703 0 -0.000567502)
(-0.0272231 0 -0.00060333)
(-0.0264375 0 -0.000623659)
(-0.025643 0 -0.000620346)
(-0.024863 0 -0.000609748)
(-0.0240775 0 -0.000635856)
(-0.0232312 0 -0.000690892)
(-0.0223318 0 -0.00072384)
(-0.0214034 0 -0.000745548)
(-0.0204473 0 -0.000745859)
(-0.0195004 0 -0.000721016)
(-0.0185793 0 -0.000729228)
(-0.017616 0 -0.000774907)
(-0.0166124 0 -0.000811825)
(-0.0155667 0 -0.000861986)
(-0.0144431 0 -0.000890906)
(-0.0133126 0 -0.000893212)
(-0.012159 0 -0.00089416)
(-0.011022 0 -0.000881102)
(-0.00990567 0 -0.000904877)
(-0.00873779 0 -0.000949714)
(-0.00752852 0 -0.000975655)
(-0.00629122 0 -0.000963129)
(-0.00508698 0 -0.000919948)
(-0.00392009 0 -0.000901869)
(-0.00276905 0 -0.000903556)
(-0.00162935 0 -0.000915655)
(-0.000475701 0 -0.00091342)
(0.000662323 0 -0.000892558)
(0.00177857 0 -0.000855714)
(0.00282911 0 -0.000793686)
(0.00380743 0 -0.000743607)
(0.00474728 0 -0.000723101)
(0.00567416 0 -0.00072776)
(0.00660901 0 -0.000729277)
(0.00752257 0 -0.000708222)
(0.00840009 0 -0.000675792)
(0.00923587 0 -0.000639645)
(0.0100363 0 -0.000619974)
(0.0108274 0 -0.000618188)
(0.0116101 0 -0.000608304)
(0.0123696 0 -0.000576993)
(0.0130735 0 -0.000534095)
(0.0137442 0 -0.000528929)
(0.014427 0 -0.000533756)
(0.0151002 0 -0.000523616)
(0.0157536 0 -0.000509024)
(0.0163888 0 -0.000483734)
(0.016982 0 -0.000445236)
(0.0175351 0 -0.00042392)
(0.018073 0 -0.000420068)
(0.018608 0 -0.000421074)
(0.0191393 0 -0.000411926)
(0.019651 0 -0.000398341)
(0.0201471 0 -0.000376927)
(0.0206076 0 -0.000345454)
(0.0210362 0 -0.00032665)
(0.021449 0 -0.000318961)
(0.0218509 0 -0.000314805)
(0.0222473 0 -0.000307621)
(0.0226289 0 -0.000296255)
(0.0229961 0 -0.00027872)
(0.0233337 0 -0.000251563)
(0.0236419 0 -0.000235113)
(0.0239386 0 -0.000227523)
(0.0242252 0 -0.000222642)
(0.0245054 0 -0.000216049)
(0.0247727 0 -0.000203087)
(0.0250222 0 -0.000188209)
(0.0252539 0 -0.000176086)
(0.0254706 0 -0.000166183)
(0.025672 0 -0.000152954)
(0.025856 0 -0.000138498)
(0.0260254 0 -0.000125519)
(0.026183 0 -0.000120518)
(0.0263367 0 -0.000117966)
(0.0264808 0 -0.000109951)
(0.0266137 0 -0.000101211)
(0.0267343 0 -8.60368e-05)
(0.0268297 0 -6.61259e-05)
(0.0269104 0 -6.32626e-05)
(0.0269938 0 -6.3813e-05)
(0.027071 0 -5.73138e-05)
(0.027137 0 -4.85202e-05)
(0.027192 0 -3.70796e-05)
(0.0272295 0 -2.29115e-05)
(0.0272538 0 -1.49408e-05)
(0.027272 0 -1.06709e-05)
(0.0272835 0 -6.35206e-06)
(0.0272879 0 1.77904e-07)
(0.0272801 0 8.86082e-06)
(0.0272609 0 1.88397e-05)
(0.0272315 0 2.86553e-05)
(0.027192 0 3.462e-05)
(0.0271467 0 3.82489e-05)
(0.0270949 0 4.36753e-05)
(0.0270339 0 5.25651e-05)
(0.026958 0 6.69138e-05)
(0.026864 0 7.83744e-05)
(0.0267633 0 8.03746e-05)
(0.0266614 0 8.25094e-05)
(0.0265524 0 8.91147e-05)
(0.0264334 0 9.63588e-05)
(0.0263054 0 0.000104292)
(0.0261672 0 0.000115224)
(0.0260137 0 0.000127644)
(0.0258477 0 0.000134335)
(0.0256754 0 0.000137292)
(0.025498 0 0.000141437)
(0.0253134 0 0.00014842)
(0.0251197 0 0.000155759)
(0.0249176 0 0.000161406)
(0.0247095 0 0.000168957)
(0.0244886 0 0.000182246)
(0.0242507 0 0.000190559)
(0.0240073 0 0.00019192)
(0.0237617 0 0.000195178)
(0.0235088 0 0.000202391)
(0.023246 0 0.000209885)
(0.0229756 0 0.000216321)
(0.0226977 0 0.000224763)
(0.0224075 0 0.000234663)
(0.0221076 0 0.000239582)
(0.0218017 0 0.000242009)
(0.0214912 0 0.000246918)
(0.0211729 0 0.000253548)
(0.0208481 0 0.00025909)
(0.0205163 0 0.000267539)
(0.0201736 0 0.000276258)
(0.0198226 0 0.000279182)
(0.0194655 0 0.000282508)
(0.0191026 0 0.000288009)
(0.0187343 0 0.000292741)
(0.0183617 0 0.00029964)
(0.0179783 0 0.000307447)
(0.0175873 0 0.000311315)
(0.0171907 0 0.000314211)
(0.0167905 0 0.000317595)
(0.0163864 0 0.000323362)
(0.0159748 0 0.000327899)
(0.0155582 0 0.000330567)
(0.015137 0 0.000333237)
(0.0147136 0 0.00033558)
(0.0142877 0 0.000339036)
(0.0138563 0 0.0003447)
(0.0134177 0 0.00034836)
(0.0129757 0 0.000348789)
(0.0125341 0 0.000349377)
(0.0120907 0 0.00035153)
(0.0116446 0 0.000353759)
(0.011196 0 0.000355586)
(0.0107447 0 0.000356944)
(0.0102917 0 0.000358353)
(0.00983667 0 0.000359707)
(0.00938048 0 0.000361486)
(0.0089219 0 0.000363734)
(0.00846098 0 0.000364173)
(0.00800042 0 0.000362938)
(0.00754069 0 0.00036298)
(0.0070795 0 0.000364367)
(0.00661776 0 0.000364724)
(0.006157 0 0.000362739)
(0.00570019 0 0.00035899)
(0.00524721 0 0.000355556)
(0.00479802 0 0.000353496)
(0.00435062 0 0.000352936)
(0.00390549 0 0.000349721)
(0.00346665 0 0.000342301)
(0.00303784 0 0.00033478)
(0.00261792 0 0.000328631)
(0.00220562 0 0.000321924)
(0.00180283 0 0.00031503)
(0.00140868 0 0.000307347)
(0.00102501 0 0.000298942)
(0.0006516 0 0.000290061)
(0.000289783 0 0.000281199)
(-6.14364e-05 0 0.000272416)
(-0.000401161 0 0.000263553)
(-0.000729619 0 0.000254883)
(-0.00104716 0 0.000246262)
(-0.00135386 0 0.000237901)
(-0.00165039 0 0.000230059)
(-0.00193714 0 0.000222568)
(-0.00221456 0 0.00021515)
(-0.00248239 0 0.000207539)
(-0.00274056 0 0.000199988)
(-0.00298937 0 0.000192863)
(-0.00322957 0 0.000186097)
(-0.00346134 0 0.00017954)
(-0.00368507 0 0.000173127)
(-0.00390082 0 0.000166656)
(-0.00410818 0 0.000160276)
(-0.00430763 0 0.000154226)
(-0.00449948 0 0.000148225)
(-0.00468393 0 0.000142398)
(-0.00486106 0 0.000136917)
(-0.00503183 0 0.000132142)
(-0.00519637 0 0.000127389)
(-0.00535459 0 0.000122363)
(-0.0055058 0 0.000116354)
(-0.00564957 0 0.000110591)
(-0.00578707 0 0.000105737)
(-0.00591939 0 0.000101941)
(-0.00604662 0 9.7453e-05)
(-0.00616721 0 9.22951e-05)
(-0.00628116 0 8.72139e-05)
(-0.00638928 0 8.28981e-05)
(-0.00649215 0 7.87843e-05)
(-0.00659016 0 7.48072e-05)
(-0.00668307 0 7.10189e-05)
(-0.00677148 0 6.78769e-05)
(-0.00685567 0 6.49791e-05)
(-0.00693561 0 6.0843e-05)
(-0.00700961 0 5.56866e-05)
(-0.00707807 0 5.2102e-05)
(-0.00714307 0 4.92345e-05)
(-0.007204 0 4.61497e-05)
(-0.00726128 0 4.32158e-05)
(-0.00731455 0 4.01467e-05)
(-0.00736411 0 3.68032e-05)
(-0.00740931 0 3.34567e-05)
(-0.00745073 0 3.06874e-05)
(-0.0074891 0 2.87449e-05)
(-0.00752456 0 2.59758e-05)
(-0.00755623 0 2.29596e-05)
(-0.00758382 0 1.93163e-05)
(-0.00760813 0 1.73811e-05)
(-0.00762945 0 1.42879e-05)
(-0.00764771 0 1.28666e-05)
(-0.00766306 0 1.04393e-05)
(-0.00767725 0 9.8706e-06)
(-0.00768827 0 5.6353e-06)
(-0.00769737 0 4.57098e-06)
(-0.00770278 0 1.03822e-06)
(-0.00770719 0 7.34065e-07)
(-0.0077081 0 -1.9258e-06)
(-0.00771053 0 -5.98565e-07)
(-0.00771135 0 -1.12251e-06)
(-0.00771519 0 -1.82631e-06)
(-0.00771533 0 -1.41191e-06)
(-0.00771432 0 -1.54842e-06)
(-0.00771581 0 7.74856e-06)
(-0.00771541 0 2.09196e-06)
(-0.00771724 0 1.34432e-05)
(-0.00771517 0 -3.94285e-06)
(-0.00771315 0 7.99239e-06)
(-0.00771499 0 -1.15098e-05)
(-0.00770522 0 1.18424e-05)
(-0.00770309 0 1.65707e-06)
(-0.00769245 0 1.98854e-05)
(-0.00766577 0 -2.31068e-05)
(-0.0076643 0 -1.3506e-05)
(-0.00768592 0 -7.87142e-05)
(-0.00764754 0 -4.09744e-06)
(-0.00768017 0 5.66541e-05)
(-0.00764038 0 0.000115279)
(-0.0074549 0 6.83774e-06)
(-0.00748263 0 -0.000103754)
(-0.00759997 0 -0.000531351)
(-0.00739979 0 -0.000316543)
(-0.0079108 0 0.000297302)
(-0.00810728 0 0.000712548)
(-0.00928551 0 0.000770512)
(-0.00932827 0 0.000285654)
(-0.00982922 0 0.000331213)
(-0.00991229 0 0.000134405)
(-0.0101705 0 0.00013678)
(-0.0102585 0 5.21495e-05)
(-0.0104233 0 8.05633e-05)
(-0.0104927 0 0.000101107)
(-0.0106174 0 0.000134799)
(-0.0106735 0 0.000164963)
(-0.0107247 0 5.139e-05)
(-0.0108214 0 1.10966e-05)
(-0.010848 0 -0.00016493)
(-0.0109528 0 9.0313e-05)
(-0.0111988 0 0.000154533)
(-0.0110531 0 0.000447494)
(-0.011082 0 0.000438135)
(-0.0108923 0 1.04414e-05)
(-0.0105491 0 -0.000858979)
(-0.00966892 0 -0.000843214)
(-0.00910185 0 -0.000632726)
(-0.0085974 0 -0.000460552)
(-0.00832878 0 -0.000265411)
(-0.00803416 0 -0.000283432)
(-0.00790052 0 -6.23997e-05)
(-0.00770743 0 -0.000242721)
(-0.00762225 0 2.98971e-05)
(-0.00749663 0 -0.000301083)
(-0.00731594 0 9.52493e-05)
(-0.00736748 0 -0.000360652)
(-0.00707722 0 9.74968e-05)
(-0.00708822 0 -0.000291643)
(-0.00711966 0 0.000323428)
(-0.00644602 0 -0.000395088)
(-0.0062065 0 0.000575718)
(-0.00713168 0 -0.00147059)
(-0.00542003 0 -0.0007179)
(-0.00823876 0 -8.07874e-06)
(-0.00539144 0 0.00194632)
(-0.0132348 0 0.0042463)
(-0.0115743 0 0.000722653)
(-0.013023 0 -0.000228294)
(-0.0118498 0 -0.00094412)
(-0.0114655 0 -0.000886668)
(-0.0106874 0 -0.00069713)
(-0.0101815 0 -0.000493997)
(-0.00977588 0 -0.000377912)
(-0.00944426 0 -0.000323508)
(-0.00912663 0 -0.000303496)
(-0.00882287 0 -0.000266161)
(-0.00855032 0 -0.000233521)
(-0.00828511 0 -0.000224096)
(-0.00801516 0 -0.000221318)
(-0.00773716 0 -0.000234505)
(-0.0074358 0 -0.000247403)
(-0.00712492 0 -0.000242935)
(-0.00682333 0 -0.000237021)
(-0.00651961 0 -0.000250711)
(-0.00618825 0 -0.000268164)
(-0.00584165 0 -0.00026993)
(-0.00549895 0 -0.000269678)
(-0.00514808 0 -0.000283482)
(-0.00477248 0 -0.000305756)
(-0.00437486 0 -0.000317988)
(-0.00397328 0 -0.000311336)
(-0.0035768 0 -0.000309657)
(-0.00317776 0 -0.00031485)
(-0.00276662 0 -0.000330033)
(-0.00233779 0 -0.000341591)
(-0.00189961 0 -0.000345514)
(-0.00145306 0 -0.000358295)
(-0.000988233 0 -0.000369677)
(-0.000516122 0 -0.000369883)
(-4.96556e-05 0 -0.000365299)
(0.000414855 0 -0.00036635)
(0.000889735 0 -0.000378612)
(0.00138431 0 -0.00039786)
(0.00190209 0 -0.000416986)
(0.0024356 0 -0.000425502)
(0.00297897 0 -0.000434076)
(0.00352903 0 -0.000433184)
(0.00407888 0 -0.000434459)
(0.00463641 0 -0.000442891)
(0.00520633 0 -0.000446976)
(0.00577885 0 -0.000450191)
(0.00635538 0 -0.000459557)
(0.00694682 0 -0.000471887)
(0.00755036 0 -0.000479313)
(0.00815788 0 -0.000480058)
(0.00876522 0 -0.000477253)
(0.00936972 0 -0.000473571)
(0.00997406 0 -0.000473198)
(0.0105823 0 -0.000477305)
(0.011197 0 -0.000485082)
(0.0118213 0 -0.000493003)
(0.0124548 0 -0.00050033)
(0.013095 0 -0.000506378)
(0.0137424 0 -0.000510329)
(0.0143949 0 -0.000513899)
(0.0150513 0 -0.000517178)
(0.0157115 0 -0.000520757)
(0.0163772 0 -0.000524711)
(0.0170474 0 -0.000529263)
(0.0177293 0 -0.000534505)
(0.0184024 0 -0.000536018)
(0.019103 0 -0.000538924)
(0.0197546 0 -0.00053745)
(0.0204988 0 -0.000543745)
(0.0211148 0 -0.000547565)
(0.0219161 0 -0.00054994)
(0.022509 0 -0.000550197)
(0.0233037 0 -0.000551981)
(0.023931 0 -0.00055277)
(0.0246721 0 -0.000551741)
(0.0254548 0 -0.000557062)
(0.0259139 0 -0.000563245)
(0.0269349 0 -0.000584797)
(0.0284656 0 -0.00061588)
(0.0236355 0 -0.000618591)
(0.0400828 0 -0.000744744)
(-0.0277447 0 0.0563848)
(0.0186193 0 0.0239709)
(-0.0193406 0 0.00209538)
(0.0141909 0 -0.0187895)
(0.0075276 0 -0.0372745)
(0.0227569 0 -0.0370747)
(0.0288968 0 -0.0340135)
(0.0371401 0 -0.0285458)
(0.0455779 0 -0.0224932)
(0.0516902 0 -0.0205694)
(0.0585071 0 -0.0214381)
(0.0637296 0 -0.022667)
(0.0692287 0 -0.0199294)
(0.0725486 0 -0.0120294)
(0.0699913 0 0.000791845)
(0.0625051 0 0.0182115)
(0.0518612 0 0.0370376)
(0.0402289 0 0.0470794)
(0.0279538 0 0.0456175)
(0.0172921 0 0.0327537)
(0.00973106 0 0.0171312)
(0.00410101 0 0.00707693)
(0.00183283 0 -0.00295006)
(0.00272428 0 -0.00819648)
(0.00269759 0 -0.00946679)
(0.00275588 0 -0.00763671)
(0.00165342 0 -0.00312649)
(-0.00223647 0 0.00288502)
(-0.00888251 0 0.00880836)
(-0.0177912 0 0.0133281)
(-0.0277656 0 0.019459)
(-0.0371688 0 0.0282326)
(-0.0484955 0 0.0345013)
(-0.060721 0 0.0361792)
(-0.0709373 0 0.031989)
(-0.0798796 0 0.0238231)
(-0.0887896 0 0.0202432)
(-0.0976876 0 0.0214127)
(-0.105878 0 0.0198869)
(-0.11244 0 0.0129035)
(-0.116429 0 0.00731695)
(-0.119574 0 0.00611679)
(-0.123094 0 0.00708745)
(-0.126399 0 0.00925798)
(-0.129781 0 0.01151)
(-0.133303 0 0.010657)
(-0.137346 0 0.00723725)
(-0.139931 0 0.0039582)
(-0.141679 0 0.00318887)
(-0.14393 0 0.00421156)
(-0.145958 0 0.00648925)
(-0.148058 0 0.0082121)
(-0.15113 0 0.00726204)
(-0.154022 0 0.00501367)
(-0.156156 0 0.0019701)
(-0.156938 0 -0.000689625)
(-0.156833 0 -0.00218742)
(-0.156333 0 -0.00315295)
(-0.156332 0 -0.00342217)
(-0.156542 0 -0.00297137)
(-0.15717 0 -0.000848206)
(-0.158066 0 0.00194637)
(-0.158276 0 0.00299914)
(-0.157704 0 0.00327393)
(-0.156094 0 0.00245489)
(-0.155441 0 0.00199064)
(-0.155681 0 0.00188349)
(-0.1564 0 0.00158286)
(-0.157266 0 -0.000160372)
(-0.15753 0 -0.00349066)
(-0.157144 0 -0.00728685)
(-0.155442 0 -0.0111618)
(-0.152157 0 -0.0150674)
(-0.148371 0 -0.0183147)
(-0.144622 0 -0.0221434)
(-0.141781 0 -0.025842)
(-0.140637 0 -0.0302534)
(-0.140373 0 -0.0342744)
(-0.131744 0 -0.0371256)
(-0.119422 0 -0.0240148)
(-0.108838 0 -0.0205883)
(-0.0817823 0 -0.00623898)
(-0.066776 0 0.00488276)
(-0.0589215 0 0.00909856)
(-0.0545758 0 0.0116916)
(-0.0548228 0 0.00539342)
(-0.0560095 0 0.00232091)
(-0.0577911 0 0.00221765)
(-0.0636964 0 0.00264103)
(-0.0665976 0 0.00291383)
(-0.0681335 0 0.000859777)
(-0.0689694 0 0.000406648)
(-0.0697367 0 -0.000718891)
(-0.0698 0 -0.00120098)
(-0.0699129 0 -0.00203503)
(-0.0698616 0 -0.00266466)
(-0.0693247 0 -0.00541951)
(-0.0693493 0 -0.00732985)
(-0.0696372 0 -0.00895888)
(-0.0711016 0 -0.00713418)
(-0.0671936 0 -0.00457896)
(-0.064543 0 -0.00555577)
(-0.0549581 0 -0.00241711)
(-0.0547454 0 0.00132561)
(-0.0515962 0 0.00493604)
(-0.051137 0 0.00421236)
(-0.0504667 0 0.000754119)
(-0.0506474 0 -3.19039e-05)
(-0.0514348 0 -0.00123402)
(-0.0527823 0 -0.000878789)
(-0.0528667 0 -0.000750654)
(-0.0523957 0 -0.000337304)
(-0.0522419 0 -0.000722525)
(-0.0518104 0 -0.00175112)
(-0.0517409 0 -0.00335549)
(-0.0517226 0 -0.00509778)
(-0.0516989 0 -0.00679942)
(-0.052232 0 -0.00606421)
(-0.0493316 0 -0.00329056)
(-0.0476391 0 -0.00304324)
(-0.0413593 0 -0.00100075)
(-0.0413202 0 0.000612156)
(-0.0396203 0 0.00259986)
(-0.0397926 0 0.00201434)
(-0.0396364 0 0.000107858)
(-0.0401834 0 6.1207e-05)
(-0.0409268 0 -1.01854e-05)
(-0.0410412 0 0.000184346)
(-0.0409355 0 0.000382121)
(-0.040982 0 0.000263081)
(-0.0409489 0 5.40796e-06)
(-0.0410367 0 -8.88753e-06)
(-0.0411181 0 -8.15117e-05)
(-0.0410852 0 -9.84631e-05)
(-0.0409921 0 -0.00017029)
(-0.0408877 0 -0.000155313)
(-0.0407855 0 -0.000170836)
(-0.0406886 0 -0.000215209)
(-0.0405883 0 -0.000245373)
(-0.0404879 0 -0.000317902)
(-0.0403373 0 -0.000376433)
(-0.0401743 0 -0.000411978)
(-0.0399923 0 -0.000423642)
(-0.0397963 0 -0.00045913)
(-0.0395806 0 -0.00051548)
(-0.0393399 0 -0.00058971)
(-0.0390668 0 -0.000674912)
(-0.0387721 0 -0.000728065)
(-0.038473 0 -0.000740233)
(-0.0381645 0 -0.000742601)
(-0.0378245 0 -0.000787429)
(-0.0374515 0 -0.000898621)
(-0.0370428 0 -0.000995457)
(-0.0366197 0 -0.00102157)
(-0.036196 0 -0.00103653)
(-0.035757 0 -0.00107165)
(-0.0352774 0 -0.001138)
(-0.0347601 0 -0.00119935)
(-0.0342252 0 -0.00125396)
(-0.0336846 0 -0.00129791)
(-0.0331358 0 -0.00133918)
(-0.0325613 0 -0.00138935)
(-0.0319635 0 -0.00142166)
(-0.03135 0 -0.00146903)
(-0.0306972 0 -0.00155263)
(-0.0300177 0 -0.00161102)
(-0.0293302 0 -0.00161748)
(-0.0286421 0 -0.00162078)
(-0.0279371 0 -0.00169998)
(-0.0271927 0 -0.00180538)
(-0.0264106 0 -0.00186122)
(-0.0256223 0 -0.00185336)
(-0.0248331 0 -0.00185042)
(-0.0240133 0 -0.00192729)
(-0.0231703 0 -0.00205463)
(-0.0222914 0 -0.00214786)
(-0.0213727 0 -0.00221702)
(-0.020431 0 -0.002246)
(-0.019465 0 -0.00221505)
(-0.0185031 0 -0.0022306)
(-0.0175275 0 -0.00231884)
(-0.0165272 0 -0.00240656)
(-0.0154939 0 -0.00254887)
(-0.0143998 0 -0.00265245)
(-0.0132777 0 -0.00269614)
(-0.0121262 0 -0.00270801)
(-0.010979 0 -0.00265948)
(-0.0098523 0 -0.00268493)
(-0.00871718 0 -0.0027873)
(-0.00755712 0 -0.00286963)
(-0.00636591 0 -0.00287637)
(-0.0051588 0 -0.00280692)
(-0.00395888 0 -0.00274323)
(-0.00279538 0 -0.00269787)
(-0.0016702 0 -0.00268946)
(-0.000561574 0 -0.00268861)
(0.000548443 0 -0.00265049)
(0.00164365 0 -0.00255212)
(0.00269791 0 -0.00239522)
(0.00370671 0 -0.00227254)
(0.00467658 0 -0.0022108)
(0.00562694 0 -0.00219921)
(0.00655977 0 -0.00217593)
(0.00746498 0 -0.00210741)
(0.00833501 0 -0.00201617)
(0.0091744 0 -0.00193282)
(0.00999803 0 -0.00188)
(0.0107994 0 -0.00185699)
(0.0115796 0 -0.00181422)
(0.0123263 0 -0.00172555)
(0.0130402 0 -0.0016237)
(0.0137346 0 -0.00159959)
(0.0144183 0 -0.00159718)
(0.0150893 0 -0.00156209)
(0.0157369 0 -0.00151517)
(0.0163642 0 -0.00144899)
(0.0169631 0 -0.00135463)
(0.0175343 0 -0.00129178)
(0.0180841 0 -0.00126474)
(0.0186195 0 -0.00125555)
(0.0191449 0 -0.00122675)
(0.0196505 0 -0.00118454)
(0.0201385 0 -0.00112752)
(0.020605 0 -0.00105038)
(0.021048 0 -0.000995963)
(0.0214692 0 -0.000960763)
(0.0218718 0 -0.000939272)
(0.0222621 0 -0.000915398)
(0.0226383 0 -0.000879373)
(0.0229985 0 -0.000830202)
(0.0233374 0 -0.000761666)
(0.0236538 0 -0.00071603)
(0.0239556 0 -0.000688781)
(0.0242469 0 -0.000668085)
(0.0245261 0 -0.000644408)
(0.0247914 0 -0.00060908)
(0.0250411 0 -0.000567815)
(0.0252721 0 -0.000528267)
(0.0254834 0 -0.000490726)
(0.0256791 0 -0.000452382)
(0.0258635 0 -0.00041644)
(0.0260397 0 -0.000388295)
(0.026207 0 -0.000368412)
(0.0263604 0 -0.000350318)
(0.0264996 0 -0.000324823)
(0.0266269 0 -0.000296753)
(0.0267393 0 -0.000254308)
(0.026839 0 -0.000209272)
(0.0269305 0 -0.000194963)
(0.0270137 0 -0.0001887)
(0.0270885 0 -0.000167842)
(0.0271497 0 -0.000141073)
(0.0271986 0 -0.000108932)
(0.0272371 0 -7.33198e-05)
(0.0272674 0 -5.22636e-05)
(0.0272905 0 -3.59639e-05)
(0.0273039 0 -1.85229e-05)
(0.0273062 0 4.84485e-06)
(0.0272929 0 3.39387e-05)
(0.0272691 0 5.72374e-05)
(0.0272416 0 7.96417e-05)
(0.027207 0 9.85305e-05)
(0.0271626 0 0.000114113)
(0.0271087 0 0.000133528)
(0.0270444 0 0.000162171)
(0.0269664 0 0.000200175)
(0.0268765 0 0.000227998)
(0.0267797 0 0.000237753)
(0.0266768 0 0.00024842)
(0.0265659 0 0.000269284)
(0.0264451 0 0.000291787)
(0.0263132 0 0.00031418)
(0.0261711 0 0.000342612)
(0.0260202 0 0.000374832)
(0.0258607 0 0.000396965)
(0.0256912 0 0.000412488)
(0.0255113 0 0.000427361)
(0.0253232 0 0.000446249)
(0.0251269 0 0.00046616)
(0.0249238 0 0.00048342)
(0.0247129 0 0.000504788)
(0.0244906 0 0.00053878)
(0.0242569 0 0.000565852)
(0.0240152 0 0.000576092)
(0.0237681 0 0.000587592)
(0.0235134 0 0.000607374)
(0.023248 0 0.000627544)
(0.022974 0 0.000644923)
(0.0226933 0 0.000667453)
(0.0224043 0 0.00069265)
(0.022108 0 0.000711885)
(0.0218039 0 0.000726361)
(0.0214911 0 0.000740687)
(0.0211691 0 0.000757028)
(0.0208402 0 0.000772347)
(0.020506 0 0.000792227)
(0.0201662 0 0.000813814)
(0.0198194 0 0.000833684)
(0.0194611 0 0.000848949)
(0.0190938 0 0.000861245)
(0.0187216 0 0.00087172)
(0.0183467 0 0.000888083)
(0.0179661 0 0.000909538)
(0.0175774 0 0.000925996)
(0.0171779 0 0.00093807)
(0.0167737 0 0.000946136)
(0.0163692 0 0.00095855)
(0.0159606 0 0.000973619)
(0.015544 0 0.000986515)
(0.0151192 0 0.000994355)
(0.0146938 0 0.000999677)
(0.0142662 0 0.00100867)
(0.0138349 0 0.00102295)
(0.0133988 0 0.0010357)
(0.0129552 0 0.00103997)
(0.0125104 0 0.00104145)
(0.0120663 0 0.00104633)
(0.0116196 0 0.0010521)
(0.0111712 0 0.00105835)
(0.0107192 0 0.00106394)
(0.010264 0 0.00106847)
(0.00980737 0 0.0010721)
(0.00935043 0 0.00107595)
(0.00889255 0 0.00108123)
(0.00843373 0 0.001084)
(0.00797402 0 0.00108338)
(0.00751342 0 0.00108436)
(0.0070521 0 0.00108613)
(0.0065919 0 0.00108499)
(0.00613386 0 0.0010792)
(0.00567891 0 0.00107054)
(0.00522633 0 0.00106205)
(0.00477738 0 0.00105515)
(0.00433157 0 0.00104951)
(0.00389153 0 0.00103917)
(0.00345585 0 0.00102118)
(0.00302723 0 0.000998861)
(0.00260808 0 0.000979329)
(0.00219666 0 0.000959017)
(0.0017958 0 0.00093758)
(0.00140364 0 0.000915108)
(0.0010212 0 0.000891034)
(0.000648119 0 0.000865467)
(0.000285874 0 0.00083941)
(-6.63151e-05 0 0.000813467)
(-0.000406472 0 0.000786629)
(-0.000734669 0 0.000760446)
(-0.00105216 0 0.000734858)
(-0.00135921 0 0.000710217)
(-0.00165643 0 0.000686666)
(-0.00194384 0 0.000664164)
(-0.00222159 0 0.000641796)
(-0.00248966 0 0.000619169)
(-0.00274815 0 0.00059677)
(-0.00299728 0 0.000575632)
(-0.00323773 0 0.000555584)
(-0.00346986 0 0.000536246)
(-0.0036944 0 0.000517487)
(-0.00391099 0 0.000498215)
(-0.00411869 0 0.000479004)
(-0.00431834 0 0.000460696)
(-0.00451047 0 0.00044312)
(-0.00469539 0 0.000425842)
(-0.00487309 0 0.000409796)
(-0.00504389 0 0.000394841)
(-0.0052078 0 0.000379757)
(-0.00536483 0 0.000363918)
(-0.0055153 0 0.000347104)
(-0.00565937 0 0.000331414)
(-0.00579752 0 0.000318152)
(-0.00593034 0 0.000305953)
(-0.00605744 0 0.000291867)
(-0.00617802 0 0.000276266)
(-0.00629218 0 0.000261657)
(-0.0064002 0 0.000248683)
(-0.00650332 0 0.00023684)
(-0.00660181 0 0.000225273)
(-0.00669542 0 0.000213858)
(-0.00678381 0 0.000203439)
(-0.00686689 0 0.000192875)
(-0.00694484 0 0.000181172)
(-0.00701854 0 0.000168088)
(-0.00708796 0 0.00015772)
(-0.00715305 0 0.000148646)
(-0.0072146 0 0.000139646)
(-0.00727189 0 0.000130517)
(-0.00732498 0 0.000121455)
(-0.00737396 0 0.000112163)
(-0.0074195 0 0.000102626)
(-0.00746116 0 9.47783e-05)
(-0.00749962 0 8.72151e-05)
(-0.00753377 0 7.96339e-05)
(-0.00756485 0 7.00962e-05)
(-0.00759235 0 6.23692e-05)
(-0.00761757 0 5.43296e-05)
(-0.00763908 0 4.80427e-05)
(-0.00765791 0 4.0005e-05)
(-0.00767257 0 3.60327e-05)
(-0.0076856 0 3.00104e-05)
(-0.0076951 0 2.59553e-05)
(-0.00770483 0 1.87899e-05)
(-0.00771051 0 1.41809e-05)
(-0.00771494 0 8.57008e-06)
(-0.00771628 0 6.5585e-06)
(-0.00771745 0 7.17867e-06)
(-0.00771697 0 7.40347e-06)
(-0.00771386 0 1.01279e-05)
(-0.00771476 0 -1.36392e-06)
(-0.00770555 0 4.16971e-06)
(-0.0077156 0 -7.4323e-06)
(-0.00771247 0 1.31073e-06)
(-0.00772553 0 -1.50528e-05)
(-0.00772057 0 -1.84031e-06)
(-0.00772195 0 -9.15698e-06)
(-0.00771069 0 6.41805e-07)
(-0.00768656 0 -3.28843e-05)
(-0.00769042 0 -1.98352e-05)
(-0.00772237 0 -8.23594e-05)
(-0.00770903 0 -2.0631e-05)
(-0.00773848 0 4.43849e-05)
(-0.00767705 0 5.84567e-05)
(-0.00748772 0 -9.86401e-06)
(-0.00751614 0 -5.94834e-05)
(-0.00767419 0 -0.000483759)
(-0.00769459 0 -0.000264476)
(-0.00819397 0 0.000335126)
(-0.00841911 0 0.000424508)
(-0.00962509 0 0.000791047)
(-0.00959831 0 0.000871196)
(-0.010028 0 0.00140702)
(-0.00979048 0 0.00110905)
(-0.01003 0 0.000612469)
(-0.0100638 0 0.000551843)
(-0.0102115 0 0.000419425)
(-0.0102958 0 0.00039184)
(-0.0103877 0 0.000351279)
(-0.0104122 0 0.000286588)
(-0.0104867 0 0.00020173)
(-0.0105907 0 0.000158676)
(-0.010681 0 -6.49873e-06)
(-0.0108117 0 0.00018974)
(-0.0110682 0 0.000169555)
(-0.010881 0 0.000368852)
(-0.0108384 0 0.000467507)
(-0.0104701 0 4.23125e-05)
(-0.0101403 0 -0.000656377)
(-0.00929519 0 -0.000623354)
(-0.00872132 0 -0.00089342)
(-0.00838478 0 -0.00112365)
(-0.00840292 0 -0.00135582)
(-0.00830004 0 -0.00112137)
(-0.00815259 0 -0.000698112)
(-0.00811707 0 -0.000671512)
(-0.00781749 0 -0.000339191)
(-0.00783186 0 -0.000495341)
(-0.00754773 0 -0.000152958)
(-0.00769179 0 -0.000396503)
(-0.00737097 0 -0.000151614)
(-0.00744593 0 -0.000326062)
(-0.00740807 0 1.56997e-05)
(-0.00680038 0 -0.00056405)
(-0.00656022 0 0.000396917)
(-0.00719618 0 -0.0013732)
(-0.00630998 0 -0.00103517)
(-0.00908156 0 0.000474791)
(-0.00610949 0 0.000302492)
(-0.014118 0 0.00248259)
(-0.0113131 0 0.000170066)
(-0.01357 0 0.00570399)
(-0.0107406 0 0.00399486)
(-0.0100175 0 0.00042219)
(-0.0096838 0 -0.000311172)
(-0.00958968 0 -0.00114378)
(-0.00960431 0 -0.00134454)
(-0.00948423 0 -0.00128394)
(-0.00931161 0 -0.0010335)
(-0.00911555 0 -0.000830362)
(-0.00891664 0 -0.000736201)
(-0.00871074 0 -0.000712759)
(-0.00849319 0 -0.000663555)
(-0.00826121 0 -0.000627289)
(-0.00801181 0 -0.000638173)
(-0.00774539 0 -0.000653643)
(-0.0074629 0 -0.000695554)
(-0.00717173 0 -0.000723705)
(-0.00687837 0 -0.000722388)
(-0.00657628 0 -0.000721042)
(-0.00626127 0 -0.000759551)
(-0.00593099 0 -0.000803633)
(-0.00558941 0 -0.000815833)
(-0.00523759 0 -0.000825098)
(-0.00487116 0 -0.000863303)
(-0.00449237 0 -0.000912417)
(-0.00410394 0 -0.000941923)
(-0.00370564 0 -0.000939299)
(-0.00329833 0 -0.000946096)
(-0.00288045 0 -0.000961881)
(-0.00245434 0 -0.00099347)
(-0.00202266 0 -0.00102296)
(-0.00157768 0 -0.0010465)
(-0.00111867 0 -0.00107901)
(-0.000652778 0 -0.00110284)
(-0.000182807 0 -0.00110561)
(0.000291768 0 -0.00109979)
(0.00077267 0 -0.00111177)
(0.001265 0 -0.00114658)
(0.00176904 0 -0.00119349)
(0.0022828 0 -0.00123824)
(0.00280641 0 -0.00126455)
(0.00333845 0 -0.00128777)
(0.00387924 0 -0.00129581)
(0.00442852 0 -0.00130911)
(0.00498839 0 -0.00133412)
(0.00555647 0 -0.0013477)
(0.00612985 0 -0.00135682)
(0.0067096 0 -0.00137792)
(0.00729507 0 -0.00140541)
(0.0078856 0 -0.00142412)
(0.00848096 0 -0.00142991)
(0.00908173 0 -0.00142935)
(0.00968929 0 -0.00142893)
(0.0103039 0 -0.00143417)
(0.0109238 0 -0.00144701)
(0.0115484 0 -0.0014646)
(0.0121778 0 -0.00148383)
(0.012813 0 -0.0015028)
(0.013455 0 -0.00151933)
(0.0141026 0 -0.00153272)
(0.0147561 0 -0.00154374)
(0.0154141 0 -0.00155341)
(0.016076 0 -0.00156417)
(0.016744 0 -0.00157847)
(0.0174156 0 -0.00159122)
(0.0180965 0 -0.00160389)
(0.0187679 0 -0.0016076)
(0.019468 0 -0.00161502)
(0.0201214 0 -0.00161921)