/*--------------------------------*- C++ -*----------------------------------*\
| =========                 |                                                 |
| \\      /  F ield         | OpenFOAM: The Open Source CFD Toolbox           |
|  \\    /   O peration     | Version:  v2006                                 |
|   \\  /    A nd           | Website:  www.openfoam.com                      |
|    \\/     M anipulation  |                                                 |
\*---------------------------------------------------------------------------*/
FoamFile
{
    version     2.0;
    format      ascii;
    class       surfaceScalarField;
    location    "5.8";
    object      alphaPhi0.water;
}
// * * * * * * * * * * * * * * * * * * * * * * * * * * * * * * * * * * * * * //

dimensions      [0 3 -1 0 0 0 0];
oriented        oriented;


internalField   nonuniform List<scalar> 
65390
(
-9.68707e-05
7.48404e-06
-9.82062e-05
1.33535e-06
-9.8787e-05
5.80651e-07
-9.74107e-05
-1.37631e-06
-9.40641e-05
-3.34667e-06
-8.90028e-05
-5.06124e-06
-8.29687e-05
-6.03398e-06
-7.70224e-05
-5.94612e-06
-7.16937e-05
-5.32846e-06
-6.70258e-05
-4.66774e-06
-6.23587e-05
-4.66682e-06
-5.73634e-05
-4.99493e-06
-5.21511e-05
-5.21193e-06
-4.74912e-05
-4.65961e-06
-4.39275e-05
-3.56331e-06
-4.18275e-05
-2.09966e-06
-4.15498e-05
-2.77426e-07
-4.35507e-05
2.00129e-06
-4.73907e-05
3.84033e-06
-5.26749e-05
5.28456e-06
-6.00387e-05
7.36391e-06
-6.8809e-05
8.77113e-06
-7.51055e-05
6.30568e-06
-7.78984e-05
2.81108e-06
-7.96859e-05
1.78761e-06
-8.12334e-05
1.54752e-06
-8.22473e-05
9.85571e-07
-8.25132e-05
2.65883e-07
-8.25371e-05
2.38945e-08
-8.25351e-05
-1.96186e-09
-8.27063e-05
1.7135e-07
-8.3079e-05
3.8388e-07
-8.35309e-05
4.6331e-07
-8.39083e-05
3.80872e-07
-8.41013e-05
1.87761e-07
-8.4289e-05
1.92897e-07
-8.45733e-05
3.04983e-07
-8.49043e-05
3.3095e-07
-8.49585e-05
1.02128e-08
-8.42647e-05
-6.97767e-07
-8.31792e-05
-1.08637e-06
-8.22376e-05
-9.35782e-07
-8.18254e-05
-3.88713e-07
-8.18851e-05
7.62474e-08
-8.20898e-05
2.04699e-07
-8.21632e-05
3.39918e-08
-8.15968e-05
-5.71107e-07
-8.04503e-05
-1.14715e-06
-7.92913e-05
-1.15875e-06
-7.84563e-05
-8.31152e-07
-7.79552e-05
-4.91245e-07
-7.76703e-05
-2.76095e-07
-7.72968e-05
-3.75918e-07
-7.66218e-05
-6.82256e-07
-7.56721e-05
-9.51591e-07
-7.46626e-05
-1.01163e-06
-7.36053e-05
-1.05973e-06
-7.23881e-05
-1.22141e-06
-7.09572e-05
-1.43155e-06
-6.93327e-05
-1.6241e-06
-6.78344e-05
-1.49784e-06
-6.68027e-05
-1.0217e-06
-6.61609e-05
-6.21906e-07
-6.5595e-05
-5.65799e-07
-6.47101e-05
-9.0562e-07
-6.34135e-05
-1.2971e-06
-6.22034e-05
-1.20962e-06
-6.13107e-05
-8.90753e-07
-6.04689e-05
-8.43788e-07
-5.92077e-05
-1.26599e-06
-5.74072e-05
-1.80179e-06
-5.50105e-05
-2.39672e-06
-5.21503e-05
-2.86024e-06
-4.87611e-05
-3.38925e-06
-4.48271e-05
-3.93136e-06
-4.01245e-05
-4.69277e-06
-3.41554e-05
-5.95985e-06
-2.63334e-05
-7.822e-06
-1.98026e-05
-6.53076e-06
-1.69448e-05
-2.85795e-06
-1.50226e-05
-1.92238e-06
-1.50625e-05
3.61954e-08
-1.5524e-05
4.57399e-07
-1.65467e-05
1.02208e-06
-1.8016e-05
1.46932e-06
-1.94029e-05
1.38686e-06
-2.06592e-05
1.25691e-06
-2.1656e-05
9.98864e-07
-2.24007e-05
7.44257e-07
-2.28505e-05
4.47602e-07
-2.29674e-05
1.16872e-07
-2.29191e-05
-4.82534e-08
-2.27943e-05
-1.2334e-07
-2.26389e-05
-1.49584e-07
-2.24741e-05
-1.64834e-07
-2.23562e-05
-1.20123e-07
-2.21899e-05
-1.69698e-07
-2.19428e-05
-2.48791e-07
-2.10928e-05
-8.48859e-07
-2.06231e-05
-4.70123e-07
-2.06993e-05
7.60397e-08
-2.08136e-05
1.14451e-07
-2.09376e-05
1.2847e-07
-2.0927e-05
-1.06332e-08
-2.13478e-05
4.20786e-07
-2.16876e-05
3.39896e-07
-2.18163e-05
1.28732e-07
-2.19165e-05
9.56934e-08
-2.18894e-05
-2.71001e-08
-2.17935e-05
-9.59326e-08
-2.16418e-05
-1.51664e-07
-2.14772e-05
-1.62483e-07
-2.12286e-05
-2.47397e-07
-2.08959e-05
-3.32711e-07
-2.02565e-05
-6.42401e-07
-1.93324e-05
-9.24127e-07
-1.78885e-05
-1.44384e-06
-1.68132e-05
-1.0742e-06
-1.65226e-05
-2.89727e-07
-1.65153e-05
-7.32884e-09
-1.66986e-05
1.81707e-07
-1.67536e-05
5.4454e-08
-1.70136e-05
2.60108e-07
-1.72116e-05
1.98559e-07
-1.72441e-05
3.56477e-08
-1.73122e-05
6.81722e-08
-1.73737e-05
5.78899e-08
-1.74055e-05
3.18041e-08
-1.74511e-05
4.55115e-08
-1.74764e-05
2.52959e-08
-1.74747e-05
-1.309e-09
-1.74701e-05
-4.53586e-09
-1.74455e-05
-2.46586e-08
-1.7404e-05
-4.14598e-08
-1.73569e-05
-4.5982e-08
-1.73019e-05
-5.59373e-08
-1.72352e-05
-6.73824e-08
-1.71546e-05
-8.05957e-08
-1.70668e-05
-8.78479e-08
-1.69696e-05
-9.72047e-08
-1.68635e-05
-1.06056e-07
-1.67467e-05
-1.16809e-07
-1.66169e-05
-1.29944e-07
-1.64725e-05
-1.40789e-07
-1.63297e-05
-1.42769e-07
-1.61803e-05
-1.49448e-07
-1.60188e-05
-1.62538e-07
-1.58412e-05
-1.79465e-07
-1.56442e-05
-1.97019e-07
-1.54356e-05
-2.08584e-07
-1.52227e-05
-2.12286e-07
-1.50063e-05
-2.1479e-07
-1.4781e-05
-2.27329e-07
-1.45313e-05
-2.5027e-07
-1.42625e-05
-2.68843e-07
-1.39838e-05
-2.7874e-07
-1.36964e-05
-2.86809e-07
-1.33995e-05
-2.95823e-07
-1.30904e-05
-3.09096e-07
-1.27667e-05
-3.23966e-07
-1.24315e-05
-3.36568e-07
-1.20812e-05
-3.50452e-07
-1.17156e-05
-3.65585e-07
-1.13344e-05
-3.81236e-07
-1.09432e-05
-3.909e-07
-1.05484e-05
-3.94655e-07
-1.01395e-05
-4.09133e-07
-9.70932e-06
-4.30204e-07
-9.26764e-06
-4.4169e-07
-8.82515e-06
-4.42224e-07
-8.37682e-06
-4.48309e-07
-7.90882e-06
-4.68317e-07
-7.42312e-06
-4.85709e-07
-6.93133e-06
-4.9178e-07
-6.44209e-06
-4.88704e-07
-5.95091e-06
-4.91009e-07
-5.44367e-06
-5.07715e-07
-4.92285e-06
-5.20823e-07
-4.40066e-06
-5.22194e-07
-3.8812e-06
-5.19216e-07
-3.35966e-06
-5.21693e-07
-2.83023e-06
-5.29e-07
-2.30754e-06
-5.22623e-07
-1.79552e-06
-5.11964e-07
-1.28598e-06
-5.09648e-07
-7.7307e-07
-5.12906e-07
-2.59801e-07
-5.13229e-07
2.41811e-07
-5.01604e-07
7.27759e-07
-4.85928e-07
1.20085e-06
-4.73081e-07
1.66549e-06
-4.64469e-07
2.12491e-06
-4.59406e-07
2.57903e-06
-4.54122e-07
3.02484e-06
-4.45971e-07
3.45625e-06
-4.31524e-07
3.87629e-06
-4.20029e-07
4.28746e-06
-4.10757e-07
4.69216e-06
-4.04406e-07
5.09363e-06
-4.01457e-07
5.49042e-06
-3.968e-07
5.87723e-06
-3.86807e-07
6.24836e-06
-3.71712e-07
6.60829e-06
-3.5998e-07
6.96109e-06
-3.52787e-07
7.31066e-06
-3.48883e-07
7.65475e-06
-3.4391e-07
7.98897e-06
-3.34214e-07
8.31127e-06
-3.22303e-07
8.62231e-06
-3.11335e-07
8.92745e-06
-3.04925e-07
9.22684e-06
-2.99388e-07
9.51552e-06
-2.88683e-07
9.78867e-06
-2.7404e-07
1.00538e-05
-2.64443e-07
1.03136e-05
-2.59399e-07
1.05672e-05
-2.53634e-07
1.08117e-05
-2.44564e-07
1.10419e-05
-2.30655e-07
1.12573e-05
-2.15722e-07
1.14635e-05
-2.05736e-07
1.16635e-05
-1.99434e-07
1.1857e-05
-1.93451e-07
1.20414e-05
-1.84392e-07
1.22126e-05
-1.71736e-07
1.23688e-05
-1.56764e-07
1.25144e-05
-1.45631e-07
1.26519e-05
-1.36398e-07
1.27799e-05
-1.27953e-07
1.29e-05
-1.20139e-07
1.30099e-05
-1.09939e-07
1.31049e-05
-9.58067e-08
1.31877e-05
-8.27703e-08
1.32617e-05
-7.33856e-08
1.3326e-05
-6.43263e-08
1.33814e-05
-5.53614e-08
1.34275e-05
-4.64144e-08
1.34632e-05
-3.57581e-08
1.34871e-05
-2.38663e-08
1.35008e-05
-1.32309e-08
1.35049e-05
-4.10819e-09
1.34988e-05
6.03132e-09
1.3482e-05
1.6403e-08
1.3457e-05
2.52136e-08
1.34248e-05
3.24132e-08
1.33847e-05
4.00611e-08
1.33363e-05
4.84305e-08
1.32759e-05
6.01612e-08
1.32042e-05
7.15572e-08
1.31279e-05
7.6508e-08
1.30468e-05
8.1093e-08
1.29584e-05
8.8425e-08
1.28616e-05
9.67641e-08
1.27552e-05
1.06007e-07
1.26421e-05
1.13112e-07
1.25236e-05
1.18529e-07
1.23998e-05
1.23981e-07
1.22708e-05
1.28998e-07
1.21363e-05
1.34526e-07
1.19949e-05
1.41109e-07
1.18478e-05
1.46914e-07
1.16965e-05
1.5132e-07
1.15426e-05
1.54159e-07
1.13859e-05
1.56747e-07
1.12244e-05
1.61457e-07
1.10566e-05
1.67769e-07
1.08821e-05
1.73957e-07
1.07052e-05
1.77271e-07
1.05292e-05
1.76199e-07
1.03522e-05
1.77022e-07
1.01724e-05
1.79756e-07
9.98968e-06
1.82671e-07
9.80226e-06
1.87235e-07
9.61047e-06
1.91746e-07
9.418e-06
1.92613e-07
9.22569e-06
1.92304e-07
9.0323e-06
1.93385e-07
8.83761e-06
1.94687e-07
8.64196e-06
1.95637e-07
8.44609e-06
1.95924e-07
8.24975e-06
1.96299e-07
8.05042e-06
1.99231e-07
7.84749e-06
2.02947e-07
7.6455e-06
2.02119e-07
7.44601e-06
1.99514e-07
7.24721e-06
1.98825e-07
7.04804e-06
1.99177e-07
6.84864e-06
1.99391e-07
6.64812e-06
2.00465e-07
6.44592e-06
2.02156e-07
6.24434e-06
2.01661e-07
6.04509e-06
1.99322e-07
5.84777e-06
1.97328e-07
5.65154e-06
1.96237e-07
5.45604e-06
1.95472e-07
5.25956e-06
1.96429e-07
5.06315e-06
1.96404e-07
4.86988e-06
1.93366e-07
4.67885e-06
1.91036e-07
4.49006e-06
1.88784e-07
4.30413e-06
1.85906e-07
4.11859e-06
1.8548e-07
3.93444e-06
1.84143e-07
3.7545e-06
1.79974e-07
3.57819e-06
1.76302e-07
3.4053e-06
1.72853e-07
3.23463e-06
1.70663e-07
3.06766e-06
1.66995e-07
2.90537e-06
1.62294e-07
2.74832e-06
1.57058e-07
2.596e-06
1.52317e-07
2.44627e-06
1.49723e-07
2.29948e-06
1.46784e-07
2.15751e-06
1.42001e-07
2.02189e-06
1.35608e-07
1.89175e-06
1.30147e-07
1.7648e-06
1.26941e-07
1.64112e-06
1.23675e-07
1.5221e-06
1.19022e-07
1.40725e-06
1.14857e-07
1.29615e-06
1.11087e-07
1.18729e-06
1.08853e-07
1.07979e-06
1.07491e-07
9.75039e-07
1.04745e-07
8.73117e-07
1.01914e-07
7.72568e-07
1.00538e-07
6.71552e-07
1.00998e-07
5.69944e-07
1.01599e-07
4.69393e-07
1.00541e-07
3.70117e-07
9.92654e-08
2.71153e-07
9.89536e-08
1.71185e-07
9.99574e-08
6.95496e-08
1.01625e-07
-3.16999e-08
1.0124e-07
-1.3082e-07
9.91103e-08
-2.27328e-07
9.6499e-08
-3.21606e-07
9.42696e-08
-4.14037e-07
9.24236e-08
-5.04643e-07
9.0598e-08
-5.93312e-07
8.86594e-08
-6.78868e-07
8.55462e-08
-7.60575e-07
8.16992e-08
-8.38485e-07
7.79036e-08
-9.12697e-07
7.42061e-08
-9.8393e-07
7.12309e-08
-1.05198e-06
6.80435e-08
-1.11556e-06
6.35695e-08
-1.17421e-06
5.86454e-08
-1.22813e-06
5.39125e-08
-1.27802e-06
4.98886e-08
-1.32422e-06
4.62007e-08
-1.36627e-06
4.20407e-08
-1.40324e-06
3.69584e-08
-1.43509e-06
3.18453e-08
-1.46287e-06
2.77789e-08
-1.48656e-06
2.36875e-08
-1.50553e-06
1.89556e-08
-1.51976e-06
1.42296e-08
-1.52953e-06
9.77161e-09
-1.535e-06
5.4634e-09
-1.53609e-06
1.08619e-09
-1.5329e-06
-3.19287e-09
-1.52556e-06
-7.34404e-09
-1.51417e-06
-1.13904e-08
-1.49909e-06
-1.50761e-08
-1.48046e-06
-1.86336e-08
-1.45828e-06
-2.21712e-08
-1.43239e-06
-2.58987e-08
-1.4029e-06
-2.94915e-08
-1.37007e-06
-3.28259e-08
-1.33436e-06
-3.57077e-08
-1.29595e-06
-3.84114e-08
-1.25473e-06
-4.12205e-08
-1.21059e-06
-4.41438e-08
-1.16375e-06
-4.68326e-08
-1.11469e-06
-4.90651e-08
-1.06362e-06
-5.10705e-08
-1.01058e-06
-5.30359e-08
-9.55763e-07
-5.48202e-08
-8.99526e-07
-5.62344e-08
-8.42123e-07
-5.74028e-08
-7.83301e-07
-5.88242e-08
-7.23039e-07
-6.02635e-08
-6.61461e-07
-6.15803e-08
-5.99046e-07
-6.24164e-08
-5.36002e-07
-6.30452e-08
-4.7252e-07
-6.34834e-08
-4.08892e-07
-6.36289e-08
-3.44923e-07
-6.39705e-08
-2.8057e-07
-6.43544e-08
-2.16139e-07
-6.4432e-08
-1.52241e-07
-6.3899e-08
-8.86906e-08
-6.35502e-08
-2.53273e-08
-6.33643e-08
3.77291e-08
-6.30574e-08
1.0007e-07
-6.23417e-08
1.6183e-07
-6.17615e-08
2.22777e-07
-6.09472e-08
2.8259e-07
-5.98136e-08
3.41314e-07
-5.87226e-08
3.99057e-07
-5.77417e-08
4.56051e-07
-5.69934e-08
5.12316e-07
-5.62632e-08
5.67601e-07
-5.52852e-08
6.2152e-07
-5.39182e-08
6.74657e-07
-5.31351e-08
7.26103e-07
-5.14467e-08
7.77514e-07
-5.14087e-08
8.27718e-07
-5.02018e-08
8.77762e-07
-5.00443e-08
9.2647e-07
-4.87083e-08
9.73726e-07
-4.72575e-08
1.01978e-06
-4.605e-08
1.06332e-06
-4.35421e-08
1.10747e-06
-4.41514e-08
1.14985e-06
-4.2381e-08
1.18995e-06
-4.01025e-08
1.22914e-06
-3.91946e-08
1.263e-06
-3.3867e-08
1.29206e-06
-2.90571e-08
1.32826e-06
-3.62075e-08
1.36167e-06
-3.34044e-08
1.39292e-06
-3.1256e-08
1.42957e-06
-3.66486e-08
1.43333e-06
-3.77068e-09
1.42509e-06
8.2363e-09
1.45953e-06
-3.44411e-08
1.46995e-06
-1.04155e-08
1.52287e-06
-5.29214e-08
1.61025e-06
-8.7384e-08
1.82738e-06
-2.17132e-07
2.10372e-06
-2.76347e-07
2.28398e-06
-1.80259e-07
2.42406e-06
-1.4008e-07
2.51621e-06
-9.21499e-08
2.58529e-06
-6.90855e-08
2.63691e-06
-5.16145e-08
2.68714e-06
-5.02359e-08
2.73242e-06
-4.52789e-08
2.77409e-06
-4.16694e-08
2.80517e-06
-3.10828e-08
2.84117e-06
-3.6002e-08
2.8309e-06
1.02702e-08
2.80273e-06
2.81587e-08
2.82419e-06
-2.14469e-08
2.82178e-06
2.41181e-09
2.87056e-06
-4.87895e-08
2.96598e-06
-9.542e-08
3.22238e-06
-2.56395e-07
3.54803e-06
-3.25643e-07
3.75954e-06
-2.1151e-07
3.93204e-06
-1.72505e-07
4.03626e-06
-1.04216e-07
4.12338e-06
-8.71236e-08
4.18673e-06
-6.33504e-08
4.23727e-06
-5.05407e-08
4.26946e-06
-3.21893e-08
4.28011e-06
-1.06472e-08
4.29024e-06
-1.01329e-08
4.29881e-06
-8.56994e-09
4.2985e-06
3.11736e-10
4.3218e-06
-2.32975e-08
4.3047e-06
1.70982e-08
4.18102e-06
1.23679e-07
4.08945e-06
9.15708e-08
4.02434e-06
6.51117e-08
3.97535e-06
4.89788e-08
4.19026e-06
-2.14926e-07
4.58671e-06
-3.96488e-07
5.5802e-06
-9.93518e-07
6.81383e-06
-1.23372e-06
7.79e-06
-9.76439e-07
8.48864e-06
-6.98752e-07
8.98988e-06
-5.01311e-07
9.3599e-06
-3.70021e-07
9.64402e-06
-2.84111e-07
9.87069e-06
-2.26716e-07
1.00524e-05
-1.81712e-07
1.02015e-05
-1.49109e-07
1.03269e-05
-1.2539e-07
1.04363e-05
-1.0935e-07
1.05291e-05
-9.2762e-08
1.06084e-05
-7.92842e-08
1.06797e-05
-7.13188e-08
1.07412e-05
-6.14777e-08
1.07945e-05
-5.32877e-08
1.08439e-05
-4.93406e-08
1.08857e-05
-4.1849e-08
1.09218e-05
-3.60261e-08
1.09541e-05
-3.22712e-08
1.09852e-05
-3.11123e-08
1.10107e-05
-2.54912e-08
1.1031e-05
-2.032e-08
1.10485e-05
-1.74634e-08
1.10639e-05
-1.5402e-08
1.10773e-05
-1.34015e-08
1.10885e-05
-1.11737e-08
1.10974e-05
-8.9432e-09
1.11045e-05
-7.06561e-09
1.11092e-05
-4.72183e-09
1.1112e-05
-2.81452e-09
1.11115e-05
5.40742e-10
1.11122e-05
-7.6691e-10
1.1114e-05
-1.81579e-09
1.11151e-05
-1.06716e-09
1.11149e-05
1.59791e-10
1.11133e-05
1.63843e-09
1.111e-05
3.31996e-09
1.11053e-05
4.6722e-09
1.10998e-05
5.54515e-09
1.10933e-05
6.48882e-09
1.10857e-05
7.59998e-09
1.1077e-05
8.70653e-09
1.10674e-05
9.64591e-09
1.10591e-05
8.24151e-09
1.1047e-05
1.20787e-08
1.10323e-05
1.47779e-08
1.10167e-05
1.55207e-08
1.10011e-05
1.5638e-08
1.09853e-05
1.58569e-08
1.09695e-05
1.57706e-08
1.09536e-05
1.58509e-08
1.09375e-05
1.6147e-08
1.09208e-05
1.66692e-08
1.09034e-05
1.74579e-08
1.0885e-05
1.83112e-08
1.08661e-05
1.8963e-08
1.08469e-05
1.92019e-08
1.08278e-05
1.91104e-08
1.08085e-05
1.92482e-08
1.07886e-05
1.99085e-08
1.07676e-05
2.10289e-08
1.07455e-05
2.2118e-08
1.07232e-05
2.2269e-08
1.07015e-05
2.17433e-08
1.06799e-05
2.15801e-08
1.06573e-05
2.25222e-08
1.06335e-05
2.38264e-08
1.06097e-05
2.37649e-08
1.05866e-05
2.31363e-08
1.05635e-05
2.30752e-08
1.0538e-05
2.54762e-08
1.05159e-05
2.21277e-08
1.04962e-05
1.97348e-08
1.04788e-05
1.73674e-08
1.0457e-05
2.18058e-08
1.04329e-05
2.4055e-08
1.04083e-05
2.45552e-08
1.03834e-05
2.4921e-08
1.03586e-05
2.48034e-08
2.57708e-08
-9.12484e-05
9.30338e-06
-9.13371e-05
1.42414e-06
-9.08295e-05
7.30195e-08
-8.93985e-05
-2.80734e-06
-8.69442e-05
-5.80103e-06
-8.39815e-05
-8.0241e-06
-8.12493e-05
-8.7665e-06
-7.87011e-05
-8.49464e-06
-7.64726e-05
-7.5573e-06
-7.45023e-05
-6.63838e-06
-7.30001e-05
-6.16941e-06
-7.20495e-05
-5.94584e-06
-7.17175e-05
-5.54408e-06
-7.15424e-05
-4.83481e-06
-7.1322e-05
-3.78375e-06
-7.13543e-05
-2.06735e-06
-7.2569e-05
9.37284e-07
-7.4821e-05
4.25331e-06
-7.76421e-05
6.66217e-06
-7.98118e-05
7.45446e-06
-8.02379e-05
7.78802e-06
-7.90794e-05
7.61281e-06
-7.84119e-05
5.64409e-06
-7.92301e-05
3.65192e-06
-8.03919e-05
2.94945e-06
-8.13564e-05
2.51205e-06
-8.21629e-05
1.76724e-06
-8.28543e-05
9.54783e-07
-8.33097e-05
4.79361e-07
-8.35423e-05
2.30631e-07
-8.35779e-05
2.14274e-07
-8.35667e-05
4.21699e-07
-8.38256e-05
7.20839e-07
-8.42339e-05
7.58794e-07
-8.46583e-05
6.17364e-07
-8.49254e-05
4.82095e-07
-8.49564e-05
3.36035e-07
-8.47685e-05
1.43053e-07
-8.44346e-05
-3.66042e-07
-8.39584e-05
-1.18506e-06
-8.3502e-05
-1.54355e-06
-8.29242e-05
-1.50307e-06
-8.22316e-05
-1.0279e-06
-8.17681e-05
-3.87268e-07
-8.14681e-05
-9.53152e-08
-8.11307e-05
-3.10452e-07
-8.06292e-05
-1.12517e-06
-7.99123e-05
-1.86751e-06
-7.908e-05
-1.99085e-06
-7.82412e-05
-1.65542e-06
-7.75333e-05
-1.1753e-06
-7.69876e-05
-8.21729e-07
-7.65554e-05
-8.0807e-07
-7.61289e-05
-1.13134e-06
-7.55012e-05
-1.58722e-06
-7.46373e-05
-1.87798e-06
-7.36215e-05
-2.07622e-06
-7.24817e-05
-2.3648e-06
-7.12711e-05
-2.64338e-06
-7.00875e-05
-2.8066e-06
-6.89809e-05
-2.59072e-06
-6.79356e-05
-2.03592e-06
-6.69237e-05
-1.63382e-06
-6.57328e-05
-1.75668e-06
-6.43106e-05
-2.32779e-06
-6.29974e-05
-2.6329e-06
-6.18928e-05
-2.2949e-06
-6.10161e-05
-1.76745e-06
-6.00699e-05
-1.78997e-06
-5.90432e-05
-2.3188e-06
-5.77897e-05
-3.0618e-06
-5.61745e-05
-4.01261e-06
-5.42476e-05
-4.7871e-06
-5.22823e-05
-5.34788e-06
-5.04923e-05
-5.70179e-06
-4.9077e-05
-6.10802e-06
-4.77763e-05
-7.26056e-06
-4.6977e-05
-8.6213e-06
-4.44296e-05
-9.09393e-06
-3.84998e-05
-8.796e-06
-3.08011e-05
-9.62253e-06
-2.32952e-05
-7.46975e-06
-1.91493e-05
-3.68847e-06
-1.61278e-05
-1.9994e-06
-1.50706e-05
4.12022e-07
-1.49189e-05
1.23521e-06
-1.54914e-05
1.82939e-06
-1.73301e-05
2.83821e-06
-1.95433e-05
2.96061e-06
-2.09585e-05
1.86586e-06
-2.20356e-05
1.18666e-06
-2.25941e-05
5.09795e-07
-2.27998e-05
8.47404e-08
-2.27603e-05
-1.84465e-07
-2.2672e-05
-2.53142e-07
-2.24924e-05
-3.02589e-07
-2.2318e-05
-3.4784e-07
-2.21953e-05
-3.7152e-07
-2.2752e-05
-2.9125e-07
-2.35114e-05
2.90776e-07
-2.37739e-05
3.36702e-07
-2.29751e-05
-6.85389e-07
-2.23419e-05
-5.02611e-07
-2.23182e-05
-3.11758e-08
-2.2007e-05
1.09623e-07
-2.16898e-05
2.27169e-08
-2.14322e-05
-1.30344e-07
-2.13689e-05
2.96347e-08
-2.16273e-05
2.31282e-07
-2.19207e-05
1.97474e-07
-2.19414e-05
-1.29824e-07
-2.18947e-05
-2.03758e-07
-2.17483e-05
-3.93705e-07
-2.15707e-05
-5.10385e-07
-2.14626e-05
-7.50476e-07
-2.13971e-05
-9.95228e-07
-2.1507e-05
-1.33517e-06
-2.11915e-05
-1.38957e-06
-2.02849e-05
-1.19363e-06
-1.88785e-05
-1.4137e-06
-1.7717e-05
-9.80185e-07
-1.72728e-05
-3.91432e-07
-1.70077e-05
-4.23746e-09
-1.69978e-05
1.91928e-07
-1.70441e-05
8.19167e-08
-1.72971e-05
3.21156e-07
-1.74809e-05
2.41758e-07
-1.7477e-05
2.4544e-08
-1.74767e-05
4.45872e-08
-1.74728e-05
2.14107e-08
-1.74676e-05
-5.23913e-09
-1.74807e-05
9.85711e-09
-1.74775e-05
-2.99333e-08
-1.74345e-05
-8.37324e-08
-1.7379e-05
-1.00375e-07
-1.73073e-05
-1.27708e-07
-1.72353e-05
-1.3976e-07
-1.71556e-05
-1.6259e-07
-1.70726e-05
-1.70874e-07
-1.69789e-05
-1.89962e-07
-1.6874e-05
-2.11017e-07
-1.67578e-05
-2.33593e-07
-1.66305e-05
-2.57761e-07
-1.64886e-05
-2.79176e-07
-1.63434e-05
-2.87979e-07
-1.61887e-05
-3.04157e-07
-1.60215e-05
-3.29721e-07
-1.58405e-05
-3.62118e-07
-1.56472e-05
-3.91427e-07
-1.54461e-05
-4.09676e-07
-1.52376e-05
-4.19686e-07
-1.50155e-05
-4.3599e-07
-1.4778e-05
-4.64039e-07
-1.45266e-05
-5.04239e-07
-1.42609e-05
-5.35432e-07
-1.39888e-05
-5.50881e-07
-1.37083e-05
-5.66795e-07
-1.34113e-05
-5.9173e-07
-1.30945e-05
-6.25947e-07
-1.27623e-05
-6.56117e-07
-1.2423e-05
-6.76012e-07
-1.2077e-05
-6.97799e-07
-1.17163e-05
-7.26576e-07
-1.13382e-05
-7.59398e-07
-1.09487e-05
-7.79748e-07
-1.0552e-05
-7.90826e-07
-1.01415e-05
-8.20196e-07
-9.71296e-06
-8.59019e-07
-9.27403e-06
-8.80429e-07
-8.83127e-06
-8.84275e-07
-8.37955e-06
-8.9995e-07
-7.91398e-06
-9.34649e-07
-7.43322e-06
-9.66468e-07
-6.94637e-06
-9.78184e-07
-6.45702e-06
-9.77571e-07
-5.96035e-06
-9.87671e-07
-5.45664e-06
-1.01181e-06
-4.94471e-06
-1.03275e-06
-4.42809e-06
-1.03839e-06
-3.90839e-06
-1.0389e-06
-3.38311e-06
-1.04707e-06
-2.85912e-06
-1.05331e-06
-2.34113e-06
-1.04012e-06
-1.82786e-06
-1.02525e-06
-1.31856e-06
-1.01889e-06
-8.11312e-07
-1.0202e-06
-3.04631e-07
-1.01989e-06
1.97177e-07
-1.00342e-06
6.90721e-07
-9.79548e-07
1.17095e-06
-9.53286e-07
1.6361e-06
-9.29537e-07
2.09207e-06
-9.15114e-07
2.54236e-06
-9.04398e-07
2.9887e-06
-8.92353e-07
3.42825e-06
-8.71455e-07
3.85731e-06
-8.49052e-07
4.27271e-06
-8.26105e-07
4.67777e-06
-8.09144e-07
5.07793e-06
-8.01213e-07
5.47341e-06
-7.92265e-07
5.85945e-06
-7.72927e-07
6.23282e-06
-7.45534e-07
6.59789e-06
-7.25043e-07
6.95645e-06
-7.11337e-07
7.30842e-06
-7.00355e-07
7.65129e-06
-6.86395e-07
7.98334e-06
-6.66404e-07
8.30572e-06
-6.4506e-07
8.6208e-06
-6.26465e-07
8.92904e-06
-6.12913e-07
9.22829e-06
-5.9833e-07
9.51512e-06
-5.75701e-07
9.79056e-06
-5.49904e-07
1.00586e-05
-5.32638e-07
1.03203e-05
-5.20589e-07
1.05733e-05
-5.06128e-07
1.0816e-05
-4.87382e-07
1.10471e-05
-4.6255e-07
1.12664e-05
-4.35388e-07
1.14751e-05
-4.14408e-07
1.16757e-05
-3.99348e-07
1.18683e-05
-3.85508e-07
1.20506e-05
-3.66738e-07
1.22218e-05
-3.43301e-07
1.23809e-05
-3.16556e-07
1.25292e-05
-2.9388e-07
1.26667e-05
-2.73856e-07
1.2795e-05
-2.55703e-07
1.29136e-05
-2.38312e-07
1.30218e-05
-2.18062e-07
1.31175e-05
-1.92545e-07
1.32024e-05
-1.67638e-07
1.32765e-05
-1.47488e-07
1.33411e-05
-1.28974e-07
1.33973e-05
-1.11005e-07
1.3444e-05
-9.25658e-08
1.34795e-05
-7.12755e-08
1.35028e-05
-4.74667e-08
1.35143e-05
-2.51734e-08
1.35165e-05
-6.40182e-09
1.35098e-05
1.24968e-08
1.34954e-05
3.08415e-08
1.34721e-05
4.84354e-08
1.34397e-05
6.54233e-08
1.33975e-05
8.2471e-08
1.33462e-05
9.9687e-08
1.32844e-05
1.21059e-07
1.32158e-05
1.40545e-07
1.31401e-05
1.52279e-07
1.30577e-05
1.6367e-07
1.29674e-05
1.78783e-07
1.2868e-05
1.95898e-07
1.27609e-05
2.12619e-07
1.2649e-05
2.24983e-07
1.2532e-05
2.35565e-07
1.24085e-05
2.47459e-07
1.22787e-05
2.59134e-07
1.21415e-05
2.7178e-07
1.19977e-05
2.84933e-07
1.18506e-05
2.93618e-07
1.17011e-05
3.00871e-07
1.15472e-05
3.08114e-07
1.13888e-05
3.15192e-07
1.12253e-05
3.24877e-07
1.10562e-05
3.36507e-07
1.08834e-05
3.4677e-07
1.0708e-05
3.52698e-07
1.05317e-05
3.52827e-07
1.03531e-05
3.55687e-07
1.01715e-05
3.61294e-07
9.98673e-06
3.67389e-07
9.79893e-06
3.74668e-07
9.60966e-06
3.81086e-07
9.41856e-06
3.83787e-07
9.22552e-06
3.85513e-07
9.0307e-06
3.88224e-07
8.83525e-06
3.90134e-07
8.63931e-06
3.9155e-07
8.44297e-06
3.92264e-07
8.2457e-06
3.93551e-07
8.0459e-06
3.98889e-07
7.84458e-06
4.04233e-07
7.64388e-06
4.02929e-07
7.44434e-06
3.99181e-07
7.24458e-06
3.98623e-07
7.04384e-06
3.99954e-07
6.84291e-06
4.00337e-07
6.64241e-06
4.00904e-07
6.44219e-06
4.02333e-07
6.24254e-06
4.01318e-07
6.04378e-06
3.98157e-07
5.84536e-06
3.95833e-07
5.6473e-06
3.94315e-07
5.45071e-06
3.92047e-07
5.25565e-06
3.91424e-07
5.06227e-06
3.8978e-07
4.87006e-06
3.85598e-07
4.67782e-06
3.83311e-07
4.48717e-06
3.79436e-07
4.30032e-06
3.72725e-07
4.11695e-06
3.68768e-07
3.93596e-06
3.65135e-07
3.7558e-06
3.60147e-07
3.57751e-06
3.54578e-07
3.40457e-06
3.45763e-07
3.23625e-06
3.38969e-07
3.07065e-06
3.32597e-07
2.90766e-06
3.25317e-07
2.74906e-06
3.15664e-07
2.59551e-06
3.05867e-07
2.44644e-06
2.98773e-07
2.30138e-06
2.91847e-07
2.15924e-06
2.8415e-07
2.02171e-06
2.73148e-07
1.88982e-06
2.62036e-07
1.7627e-06
2.54039e-07
1.63951e-06
2.46861e-07
1.51912e-06
2.39413e-07
1.40128e-06
2.32692e-07
1.28707e-06
2.25285e-07
1.17663e-06
2.19266e-07
1.06918e-06
2.14922e-07
9.63675e-07
2.10234e-07
8.59248e-07
2.06322e-07
7.55366e-07
2.04403e-07
6.52555e-07
2.03782e-07
5.50997e-07
2.03136e-07
4.50268e-07
2.0125e-07
3.49884e-07
1.99632e-07
2.49257e-07
1.99561e-07
1.48756e-07
2.00439e-07
4.87705e-08
2.01592e-07
-5.05992e-08
2.00592e-07
-1.48685e-07
1.97178e-07
-2.45186e-07
1.9298e-07
-3.39999e-07
1.89065e-07
-4.32566e-07
1.84974e-07
-5.22437e-07
1.80456e-07
-6.09705e-07
1.75913e-07
-6.94423e-07
1.70247e-07
-7.76292e-07
1.63553e-07
-8.54644e-07
1.56243e-07
-9.2935e-07
1.48902e-07
-1.00064e-06
1.42516e-07
-1.06772e-06
1.35105e-07
-1.13038e-06
1.26217e-07
-1.18895e-06
1.17207e-07
-1.24335e-06
1.08298e-07
-1.29346e-06
9.99976e-08
-1.33909e-06
9.18191e-08
-1.38016e-06
8.30976e-08
-1.41672e-06
7.35034e-08
-1.44876e-06
6.38734e-08
-1.47618e-06
5.51974e-08
-1.49907e-06
4.65679e-08
-1.51767e-06
3.75494e-08
-1.53203e-06
2.85835e-08
-1.54184e-06
1.95675e-08
-1.54701e-06
1.06339e-08
-1.54778e-06
1.85146e-09
-1.54438e-06
-6.59865e-09
-1.53694e-06
-1.47822e-08
-1.52539e-06
-2.29464e-08
-1.50985e-06
-3.06101e-08
-1.49048e-06
-3.80024e-08
-1.46744e-06
-4.521e-08
-1.44097e-06
-5.23685e-08
-1.41113e-06
-5.93345e-08
-1.3781e-06
-6.58572e-08
-1.342e-06
-7.18001e-08
-1.30299e-06
-7.74233e-08
-1.26121e-06
-8.30003e-08
-1.21669e-06
-8.86614e-08
-1.16955e-06
-9.39708e-08
-1.12011e-06
-9.85106e-08
-1.06863e-06
-1.02548e-07
-1.01539e-06
-1.06276e-07
-9.60317e-07
-1.09894e-07
-9.03453e-07
-1.13098e-07
-8.45055e-07
-1.15801e-07
-7.85447e-07
-1.18433e-07
-7.24808e-07
-1.20906e-07
-6.63038e-07
-1.23353e-07
-6.00463e-07
-1.24994e-07
-5.37243e-07
-1.26267e-07
-4.73568e-07
-1.27159e-07
-4.09423e-07
-1.27774e-07
-3.44962e-07
-1.28434e-07
-2.80404e-07
-1.28913e-07
-2.16015e-07
-1.28823e-07
-1.51626e-07
-1.28288e-07
-8.74167e-08
-1.27761e-07
-2.36119e-08
-1.2717e-07
3.93734e-08
-1.26044e-07
1.01753e-07
-1.24722e-07
1.63475e-07
-1.23484e-07
2.24603e-07
-1.22075e-07
2.84884e-07
-1.20094e-07
3.44354e-07
-1.18192e-07
4.0227e-07
-1.15656e-07
4.59445e-07
-1.14166e-07
5.15373e-07
-1.12189e-07
5.70536e-07
-1.10448e-07
6.24426e-07
-1.0781e-07
6.77983e-07
-1.0669e-07
7.29525e-07
-1.02989e-07
7.80645e-07
-1.02528e-07
8.29504e-07
-9.90598e-08
8.77707e-07
-9.82483e-08
9.26691e-07
-9.76934e-08
9.74564e-07
-9.51342e-08
1.02358e-06
-9.50651e-08
1.06891e-06
-8.88768e-08
1.11375e-06
-8.8999e-08
1.15169e-06
-8.03257e-08
1.18606e-06
-7.44755e-08
1.22765e-06
-8.07847e-08
1.27062e-06
-7.68398e-08
1.31359e-06
-7.2031e-08
1.35539e-06
-7.80138e-08
1.36033e-06
-3.8352e-08
1.35184e-06
-2.27641e-08
1.38808e-06
-7.29016e-08
1.43467e-06
-5.03629e-08
1.53307e-06
-9.01628e-08
1.64511e-06
-1.4649e-07
1.87567e-06
-2.4098e-07
2.14586e-06
-3.23108e-07
2.32484e-06
-2.66375e-07
2.41757e-06
-3.09856e-07
2.43727e-06
-2.96051e-07
2.48074e-06
-2.23734e-07
2.51724e-06
-1.7658e-07
2.57359e-06
-1.48499e-07
2.62559e-06
-1.21088e-07
2.68532e-06
-1.11346e-07
2.73727e-06
-1.0219e-07
2.78417e-06
-9.21767e-08
2.78446e-06
-4.19596e-08
2.76241e-06
-9.03765e-09
2.79574e-06
-6.93337e-08
2.84293e-06
-3.69214e-08
2.95845e-06
-8.73586e-08
3.09312e-06
-1.56115e-07
3.37327e-06
-2.77745e-07
3.6975e-06
-3.73027e-07
3.91225e-06
-3.10171e-07
4.01826e-06
-3.62402e-07
4.03391e-06
-3.41295e-07
4.08234e-06
-2.59928e-07
4.12197e-06
-2.12135e-07
4.16575e-06
-1.48008e-07
4.18514e-06
-1.06514e-07
4.21022e-06
-8.84384e-08
4.23975e-06
-8.00655e-08
4.28096e-06
-7.33939e-08
4.32372e-06
-5.34075e-08
4.38582e-06
-7.22386e-08
4.39628e-06
-1.90417e-08
4.28093e-06
1.15656e-07
4.17767e-06
7.99673e-08
4.14225e-06
5.25185e-08
4.22238e-06
4.35516e-08
4.58039e-06
-2.66433e-07
5.1726e-06
-5.2708e-07
6.31827e-06
-1.09667e-06
7.47423e-06
-1.37083e-06
8.34622e-06
-1.26836e-06
8.79649e-06
-1.44362e-06
8.92393e-06
-1.36097e-06
9.11304e-06
-1.16535e-06
9.31072e-06
-8.96255e-07
9.50869e-06
-6.99149e-07
9.69556e-06
-5.56802e-07
9.86598e-06
-4.54448e-07
1.00198e-05
-3.80505e-07
1.01568e-05
-3.18682e-07
1.02775e-05
-2.69717e-07
1.03857e-05
-2.3364e-07
1.04816e-05
-2.05206e-07
1.05656e-05
-1.76765e-07
1.06399e-05
-1.53564e-07
1.07062e-05
-1.37638e-07
1.07649e-05
-1.20281e-07
1.08171e-05
-1.05508e-07
1.0864e-05
-9.62683e-08
1.09057e-05
-8.34971e-08
1.09427e-05
-7.31305e-08
1.09757e-05
-6.52974e-08
1.10052e-05
-6.06033e-08
1.10307e-05
-5.10181e-08
1.10526e-05
-4.22448e-08
1.10715e-05
-3.6441e-08
1.10878e-05
-3.17133e-08
1.11013e-05
-2.68719e-08
1.11125e-05
-2.24113e-08
1.11217e-05
-1.81359e-08
1.1129e-05
-1.42746e-08
1.11339e-05
-9.6907e-09
1.11372e-05
-6.10765e-09
1.11391e-05
-1.30978e-09
1.11399e-05
-1.5416e-09
1.11396e-05
-1.49007e-09
1.11383e-05
2.9584e-10
1.11358e-05
2.61895e-09
1.11323e-05
5.19766e-09
1.1128e-05
7.57939e-09
1.11226e-05
1.01096e-08
1.11161e-05
1.19684e-08
1.11088e-05
1.38271e-08
1.11003e-05
1.60379e-08
1.10905e-05
1.85226e-08
1.108e-05
2.01187e-08
1.10686e-05
1.96986e-08
1.10558e-05
2.48216e-08
1.10424e-05
2.81481e-08
1.10283e-05
2.95516e-08
1.10136e-05
3.0345e-08
1.09984e-05
3.10935e-08
1.09825e-05
3.16982e-08
1.09661e-05
3.22259e-08
1.09494e-05
3.2853e-08
1.09322e-05
3.37914e-08
1.09145e-05
3.51632e-08
1.08961e-05
3.67034e-08
1.08772e-05
3.79073e-08
1.08579e-05
3.84647e-08
1.08384e-05
3.86824e-08
1.08184e-05
3.92097e-08
1.07975e-05
4.07935e-08
1.07757e-05
4.28329e-08
1.07539e-05
4.39577e-08
1.07324e-05
4.37599e-08
1.07107e-05
4.34112e-08
1.06881e-05
4.41596e-08
1.06648e-05
4.57805e-08
1.06418e-05
4.69032e-08
1.06195e-05
4.60548e-08
1.05967e-05
4.59135e-08
1.05731e-05
4.67357e-08
1.0549e-05
4.95088e-08
1.05259e-05
4.52597e-08
1.05034e-05
4.23108e-08
1.04801e-05
4.07117e-08
1.04556e-05
4.62583e-08
1.04311e-05
4.853e-08
1.0407e-05
4.86344e-08
1.03834e-05
4.85076e-08
1.03592e-05
4.90335e-08
5.21555e-08
-8.8044e-05
7.83516e-06
-8.75346e-05
9.14724e-07
-8.70857e-05
-3.75677e-07
-8.61393e-05
-3.75354e-06
-8.47977e-05
-7.14244e-06
-8.35564e-05
-9.26512e-06
-8.26206e-05
-9.70202e-06
-8.16461e-05
-9.46886e-06
-8.07627e-05
-8.44048e-06
-8.04152e-05
-6.98565e-06
-8.11347e-05
-5.4496e-06
-8.29546e-05
-4.12553e-06
-8.55179e-05
-2.98024e-06
-8.80242e-05
-2.3279e-06
-8.9927e-05
-1.88044e-06
-9.10935e-05
-9.00464e-07
-9.11726e-05
1.01782e-06
-9.01912e-05
3.27303e-06
-8.86631e-05
5.13412e-06
-8.73955e-05
6.18674e-06
-8.61958e-05
6.58659e-06
-8.47333e-05
6.15026e-06
-8.37571e-05
4.66813e-06
-8.37254e-05
3.62229e-06
-8.38692e-05
3.10401e-06
-8.39893e-05
2.64753e-06
-8.4326e-05
2.10443e-06
-8.48666e-05
1.49487e-06
-8.52337e-05
8.27441e-07
-8.52949e-05
2.86075e-07
-8.52178e-05
1.39544e-07
-8.50022e-05
2.35191e-07
-8.49387e-05
6.88687e-07
-8.51375e-05
9.57559e-07
-8.54605e-05
9.4043e-07
-8.55835e-05
6.05062e-07
-8.5291e-05
4.35746e-08
-8.4745e-05
-4.58581e-07
-8.41503e-05
-9.68943e-07
-8.38831e-05
-1.4529e-06
-8.37147e-05
-1.71195e-06
-8.34572e-05
-1.75979e-06
-8.29088e-05
-1.56304e-06
-8.20715e-05
-1.18034e-06
-8.1267e-05
-8.99837e-07
-8.05336e-05
-1.0847e-06
-7.99385e-05
-1.73552e-06
-7.95218e-05
-2.28484e-06
-7.90964e-05
-2.41621e-06
-7.84846e-05
-2.26116e-06
-7.77374e-05
-1.88717e-06
-7.6991e-05
-1.56801e-06
-7.63777e-05
-1.42134e-06
-7.58798e-05
-1.62915e-06
-7.5422e-05
-2.08156e-06
-7.47785e-05
-2.52644e-06
-7.39945e-05
-2.86056e-06
-7.31165e-05
-3.24282e-06
-7.21924e-05
-3.56744e-06
-7.12814e-05
-3.71392e-06
-7.0337e-05
-3.51577e-06
-6.92437e-05
-3.10999e-06
-6.78948e-05
-2.98277e-06
-6.62522e-05
-3.41977e-06
-6.4533e-05
-4.05793e-06
-6.3107e-05
-4.02869e-06
-6.19689e-05
-3.43299e-06
-6.08894e-05
-2.847e-06
-5.98126e-05
-2.86673e-06
-5.88032e-05
-3.32821e-06
-5.78128e-05
-4.0799e-06
-5.66931e-05
-5.13973e-06