/*--------------------------------*- C++ -*----------------------------------*\
| =========                 |                                                 |
| \\      /  F ield         | OpenFOAM: The Open Source CFD Toolbox           |
|  \\    /   O peration     | Version:  v2006                                 |
|   \\  /    A nd           | Website:  www.openfoam.com                      |
|    \\/     M anipulation  |                                                 |
\*---------------------------------------------------------------------------*/
FoamFile
{
    version     2.0;
    format      ascii;
    class       volScalarField;
    location    "5.8";
    object      k;
}
// * * * * * * * * * * * * * * * * * * * * * * * * * * * * * * * * * * * * * //

dimensions      [0 2 -2 0 0 0 0];


internalField   nonuniform List<scalar> 
33000
(
2.61072e-08
2.68563e-08
2.73818e-08
2.76588e-08
2.78477e-08
2.82295e-08
2.89923e-08
3.02543e-08
3.20336e-08
3.43087e-08
3.7054e-08
4.0318e-08
4.41273e-08
4.83473e-08
5.26765e-08
5.67473e-08
6.04086e-08
6.51092e-08
7.38979e-08
9.02197e-08
1.16876e-07
1.51535e-07
1.85832e-07
2.13152e-07
2.32443e-07
2.44628e-07
2.51201e-07
2.54032e-07
2.55175e-07
2.56565e-07
2.59151e-07
2.61971e-07
2.64072e-07
2.65058e-07
2.6521e-07
2.65027e-07
2.64507e-07
2.62675e-07
2.58946e-07
2.53898e-07
2.5089e-07
2.52001e-07
2.5628e-07
2.60629e-07
2.61996e-07
2.59566e-07
2.54209e-07
2.49296e-07
2.47838e-07
2.49435e-07
2.51876e-07
2.53002e-07
2.5149e-07
2.48122e-07
2.4457e-07
2.41842e-07
2.39435e-07
2.36897e-07
2.34824e-07
2.34477e-07
2.37286e-07
2.42683e-07
2.4756e-07
2.49028e-07
2.46624e-07
2.42947e-07
2.40828e-07
2.39138e-07
2.34818e-07
2.26604e-07
2.16397e-07
2.05935e-07
1.965e-07
1.87888e-07
1.80079e-07
1.72434e-07
1.64338e-07
1.56347e-07
1.54146e-07
1.56851e-07
1.53778e-07
1.5635e-07
1.55676e-07
1.60527e-07
1.67976e-07
1.75579e-07
1.80991e-07
1.83691e-07
1.84858e-07
1.84794e-07
1.83772e-07
1.82127e-07
1.79701e-07
1.76263e-07
1.71386e-07
1.6513e-07
1.57723e-07
1.49507e-07
1.40969e-07
1.33011e-07
1.29333e-07
1.30277e-07
1.31105e-07
1.29297e-07
1.28412e-07
1.30176e-07
1.32843e-07
1.33686e-07
1.32483e-07
1.30004e-07
1.27618e-07
1.25271e-07
1.24064e-07
1.23399e-07
1.21617e-07
1.18972e-07
1.15897e-07
1.14738e-07
1.14808e-07
1.14409e-07
1.13768e-07
1.13258e-07
1.12661e-07
1.12965e-07
1.13903e-07
1.14582e-07
1.1502e-07
1.15166e-07
1.15069e-07
1.15085e-07
1.15282e-07
1.1544e-07
1.15536e-07
1.15518e-07
1.15504e-07
1.15395e-07
1.15252e-07
1.15164e-07
1.15096e-07
1.15061e-07
1.15023e-07
1.14971e-07
1.14876e-07
1.14769e-07
1.14711e-07
1.14643e-07
1.14478e-07
1.14256e-07
1.14016e-07
1.13812e-07
1.13677e-07
1.13549e-07
1.13339e-07
1.1305e-07
1.12773e-07
1.12544e-07
1.12331e-07
1.12097e-07
1.1183e-07
1.11538e-07
1.11245e-07
1.10936e-07
1.1061e-07
1.10282e-07
1.0998e-07
1.09691e-07
1.09338e-07
1.08944e-07
1.08581e-07
1.0824e-07
1.07846e-07
1.07379e-07
1.06905e-07
1.06464e-07
1.06052e-07
1.05649e-07
1.05246e-07
1.04917e-07
1.04699e-07
1.04565e-07
1.04482e-07
1.04465e-07
1.04573e-07
1.04765e-07
1.05e-07
1.05295e-07
1.05707e-07
1.06244e-07
1.06836e-07
1.07408e-07
1.07929e-07
1.08407e-07
1.08847e-07
1.09259e-07
1.09628e-07
1.09932e-07
1.10174e-07
1.10349e-07
1.1046e-07
1.10532e-07
1.10582e-07
1.10601e-07
1.10559e-07
1.10442e-07
1.10255e-07
1.10021e-07
1.09792e-07
1.09573e-07
1.09347e-07
1.09096e-07
1.08836e-07
1.08588e-07
1.08346e-07
1.08075e-07
1.07773e-07
1.07455e-07
1.07142e-07
1.06841e-07
1.06534e-07
1.06195e-07
1.05813e-07
1.05396e-07
1.04968e-07
1.04546e-07
1.04128e-07
1.03695e-07
1.03242e-07
1.02768e-07
1.02287e-07
1.01812e-07
1.01351e-07
1.00893e-07
1.00428e-07
9.99509e-08
9.94654e-08
9.89814e-08
9.85043e-08
9.80325e-08
9.75574e-08
9.7074e-08
9.65867e-08
9.60995e-08
9.56071e-08
9.51034e-08
9.45917e-08
9.40843e-08
9.35875e-08
9.30899e-08
9.25739e-08
9.2044e-08
9.15169e-08
9.09966e-08
9.04756e-08
8.99478e-08
8.9413e-08
8.88719e-08
8.83242e-08
8.77748e-08
8.72248e-08
8.66726e-08
8.6112e-08
8.55377e-08
8.49553e-08
8.43755e-08
8.38026e-08
8.3232e-08
8.26491e-08
8.20457e-08
8.14254e-08
8.08041e-08
8.01903e-08
7.95822e-08
7.89699e-08
7.83405e-08
7.76918e-08
7.70348e-08
7.63744e-08
7.57067e-08
7.50284e-08
7.43427e-08
7.36584e-08
7.29727e-08
7.2269e-08
7.15423e-08
7.08051e-08
7.00642e-08
6.93203e-08
6.85715e-08
6.78134e-08
6.7038e-08
6.62393e-08
6.54259e-08
6.46027e-08
6.37719e-08
6.29348e-08
6.20867e-08
6.12213e-08
6.03515e-08
5.94736e-08
5.85831e-08
5.76867e-08
5.67716e-08
5.58287e-08
5.48552e-08
5.38286e-08
5.27395e-08
5.1675e-08
5.06489e-08
4.96681e-08
4.87347e-08
4.78572e-08
4.70297e-08
4.62473e-08
4.5509e-08
4.48223e-08
4.41944e-08
4.36207e-08
4.30963e-08
4.26238e-08
4.22051e-08
4.18425e-08
4.15357e-08
4.12804e-08
4.10798e-08
4.09377e-08
4.08526e-08
4.0817e-08
4.08242e-08
4.08736e-08
4.09631e-08
4.10904e-08
4.12549e-08
4.14527e-08
4.16719e-08
4.18919e-08
4.2103e-08
4.22997e-08
4.24777e-08
4.26339e-08
4.27656e-08
4.28735e-08
4.29587e-08
4.30219e-08
4.30638e-08
4.30822e-08
4.30767e-08
4.30497e-08
4.30036e-08
4.2939e-08
4.28552e-08
4.27518e-08
4.26294e-08
4.2491e-08
4.23385e-08
4.21706e-08
4.19875e-08
4.17915e-08
4.15844e-08
4.13658e-08
4.11365e-08
4.08979e-08
4.06512e-08
4.0397e-08
4.01368e-08
3.98704e-08
3.95989e-08
3.93227e-08
3.90434e-08
3.87614e-08
3.84773e-08
3.8191e-08
3.79026e-08
3.76133e-08
3.73243e-08
3.70358e-08
3.67479e-08
3.64609e-08
3.61754e-08
3.58919e-08
3.561e-08
3.53296e-08
3.5052e-08
3.47775e-08
3.45068e-08
3.42392e-08
3.3975e-08
3.37142e-08
3.34562e-08
3.32025e-08
3.29532e-08
3.27079e-08
3.24646e-08
3.2226e-08
3.19911e-08
3.17594e-08
3.15265e-08
3.12948e-08
3.10607e-08
3.08259e-08
3.05879e-08
3.03506e-08
3.01111e-08
2.98742e-08
2.96335e-08
2.93948e-08
2.9154e-08
2.89128e-08
2.86756e-08
2.84363e-08
2.82034e-08
2.79655e-08
2.77321e-08
2.74949e-08
2.72549e-08
2.7025e-08
2.67869e-08
2.65472e-08
2.63113e-08
2.60508e-08
2.57849e-08
2.5572e-08
2.53119e-08
2.50808e-08
2.48641e-08
2.44313e-08
2.40812e-08
2.39912e-08
2.35246e-08
2.3623e-08
2.33877e-08
2.42895e-08
2.46266e-08
2.49597e-08
2.50119e-08
2.50492e-08
2.49555e-08
2.48687e-08
2.47342e-08
2.46173e-08
2.44674e-08
2.43136e-08
2.41634e-08
2.39207e-08
2.37005e-08
2.35704e-08
2.33071e-08
2.32057e-08
2.29598e-08
2.29415e-08
2.29411e-08
2.28769e-08
2.28046e-08
2.26885e-08
2.2569e-08
2.24404e-08
2.23097e-08
2.2172e-08
2.19917e-08
2.18115e-08
2.16775e-08
2.14787e-08
2.13569e-08
2.11807e-08
2.06767e-08
2.03425e-08
2.03145e-08
1.97518e-08
2.04304e-08
2.05777e-08
2.29949e-08
2.53124e-08
2.74387e-08
2.91978e-08
3.05799e-08
3.16497e-08
3.24734e-08
3.31101e-08
3.3593e-08
3.39559e-08
3.42282e-08
3.44409e-08
3.46048e-08
3.47263e-08
3.48196e-08
3.48865e-08
3.49295e-08
3.496e-08
3.49758e-08
3.49778e-08
3.49678e-08
3.49528e-08
3.49302e-08
3.48992e-08
3.48619e-08
3.48195e-08
3.47725e-08
3.47209e-08
3.46648e-08
3.46043e-08
3.45389e-08
3.44687e-08
3.43934e-08
3.43133e-08
3.42286e-08
3.41397e-08
3.40473e-08
3.39521e-08
3.38548e-08
3.37561e-08
3.36563e-08
3.35561e-08
3.34558e-08
3.33557e-08
3.32562e-08
3.31572e-08
3.30582e-08
3.29587e-08
3.28582e-08
3.27563e-08
3.26525e-08
3.25469e-08
3.24396e-08
3.23312e-08
3.22225e-08
3.21143e-08
3.20067e-08
3.1899e-08
3.17907e-08
3.16818e-08
3.15734e-08
3.14672e-08
3.13635e-08
3.12615e-08
3.11599e-08
3.10583e-08
3.09583e-08
3.08605e-08
3.07642e-08
3.06675e-08
3.05702e-08
3.04731e-08
3.03771e-08
3.0282e-08
3.01861e-08
3.00971e-08
2.99785e-08
2.99848e-08
2.95928e-08
2.9477e-08
2.72316e-08
1.5575e-08
1.5773e-08
1.64148e-08
1.72996e-08
1.83695e-08
1.95807e-08
2.10753e-08
2.32368e-08
2.63944e-08
3.09092e-08
3.70142e-08
4.48413e-08
5.47199e-08
6.65923e-08
8.00741e-08
9.44781e-08
1.08558e-07
1.19981e-07
1.2827e-07
1.34661e-07
1.39679e-07
1.42552e-07
1.39256e-07
1.26007e-07
1.06608e-07
8.772e-08
7.23872e-08
6.05237e-08
5.27544e-08
4.83199e-08
4.57748e-08
4.43939e-08
4.3373e-08
4.22485e-08
4.10628e-08
4.02786e-08
3.97705e-08
3.9173e-08
3.80616e-08
3.71017e-08
3.64355e-08
3.61932e-08
3.62774e-08
3.63992e-08
3.6317e-08
3.56573e-08
3.48528e-08
3.41019e-08
3.36331e-08
3.34116e-08
3.32172e-08
3.28781e-08
3.23278e-08
3.16672e-08
3.10346e-08
3.05255e-08
3.01286e-08
2.9832e-08
2.96937e-08
2.98069e-08
3.02772e-08
3.10407e-08
3.18183e-08
3.23459e-08
3.25312e-08
3.25468e-08
3.25908e-08
3.25247e-08
3.20776e-08
3.12884e-08
3.05832e-08
3.05035e-08
3.16333e-08
3.45313e-08
3.96652e-08
4.70228e-08
5.5051e-08
6.173e-08
6.73622e-08
7.29132e-08
7.85658e-08
8.55321e-08
9.3084e-08
1.00049e-07
9.51187e-08
9.96584e-08
1.02435e-07
9.94557e-08
8.70179e-08
6.42757e-08
4.29368e-08
2.83468e-08
2.32299e-08
2.24312e-08
2.44724e-08
2.8574e-08
3.52387e-08
4.35443e-08
5.44183e-08
6.21309e-08
6.12831e-08
5.3353e-08
4.32488e-08
3.46635e-08
2.76977e-08
2.31041e-08
2.04624e-08
1.84536e-08
1.64995e-08
1.54035e-08
1.49273e-08
1.46709e-08
1.48075e-08
1.56367e-08
1.73095e-08
1.97641e-08
2.18289e-08
2.18833e-08
2.03028e-08
1.85816e-08
1.73026e-08
1.58626e-08
1.55743e-08
1.5132e-08
1.47249e-08
1.46009e-08
1.44494e-08
1.42902e-08
1.42366e-08
1.42038e-08
1.42219e-08
1.4272e-08
1.4324e-08
1.43707e-08
1.44219e-08
1.4478e-08
1.45351e-08
1.45955e-08
1.46581e-08
1.47193e-08
1.47759e-08
1.48277e-08
1.48764e-08
1.49275e-08
1.49816e-08
1.50327e-08
1.50789e-08
1.51284e-08
1.51857e-08
1.5248e-08
1.53078e-08
1.53599e-08
1.54057e-08
1.54548e-08
1.55126e-08
1.55733e-08
1.563e-08
1.56825e-08
1.57347e-08
1.57848e-08
1.58284e-08
1.58658e-08
1.59056e-08
1.59511e-08
1.59928e-08
1.60227e-08
1.60471e-08
1.60798e-08
1.61153e-08
1.61364e-08
1.61418e-08
1.61485e-08
1.61698e-08
1.61963e-08
1.6205e-08
1.61905e-08
1.61723e-08
1.61689e-08
1.61737e-08
1.61688e-08
1.6148e-08
1.61249e-08
1.61139e-08
1.60891e-08
1.60299e-08
1.59641e-08
1.59208e-08
1.58943e-08
1.58605e-08
1.58054e-08
1.57329e-08
1.56551e-08
1.55917e-08
1.55392e-08
1.54842e-08
1.54188e-08
1.53358e-08
1.52359e-08
1.51357e-08
1.50578e-08
1.50052e-08
1.49532e-08
1.48765e-08
1.47712e-08
1.46621e-08
1.45737e-08
1.4504e-08
1.44366e-08
1.43519e-08
1.42508e-08
1.41617e-08
1.41012e-08
1.4039e-08
1.39417e-08
1.3824e-08
1.37203e-08
1.36546e-08
1.36127e-08
1.35568e-08
1.34651e-08
1.33502e-08
1.32457e-08
1.31727e-08
1.31307e-08
1.3087e-08
1.30214e-08
1.29407e-08
1.28546e-08
1.27785e-08
1.2732e-08
1.27076e-08
1.26707e-08
1.2615e-08
1.25571e-08
1.25009e-08
1.24573e-08
1.24341e-08
1.24213e-08
1.23993e-08
1.23718e-08
1.2356e-08
1.23421e-08
1.23166e-08
1.22821e-08
1.22563e-08
1.22452e-08
1.22584e-08
1.22568e-08
1.22123e-08
1.21738e-08
1.21562e-08
1.21497e-08
1.21453e-08
1.21268e-08
1.20989e-08
1.20717e-08
1.20437e-08
1.20218e-08
1.20047e-08
1.19821e-08
1.19513e-08
1.19122e-08
1.18764e-08
1.18551e-08
1.18434e-08
1.18286e-08
1.17964e-08
1.17418e-08
1.16974e-08
1.1667e-08
1.16429e-08
1.16272e-08
1.16088e-08
1.15745e-08
1.15354e-08
1.15029e-08
1.14736e-08
1.14446e-08
1.14147e-08
1.13876e-08
1.13718e-08
1.13581e-08
1.13288e-08
1.1293e-08
1.12646e-08
1.12425e-08
1.12225e-08
1.12063e-08
1.11919e-08
1.11706e-08
1.11439e-08
1.11192e-08
1.10988e-08
1.10814e-08
1.10686e-08
1.10528e-08
1.10299e-08
1.10093e-08
1.09894e-08
1.09693e-08
1.09549e-08
1.09383e-08
1.09162e-08
1.08954e-08
1.08758e-08
1.08586e-08
1.08389e-08
1.08177e-08
1.07974e-08
1.07793e-08
1.07648e-08
1.07496e-08
1.07321e-08
1.07134e-08
1.06969e-08
1.06838e-08
1.06705e-08
1.06557e-08
1.0642e-08
1.06293e-08
1.06184e-08
1.06077e-08
1.05951e-08
1.05827e-08
1.05717e-08
1.05619e-08
1.0552e-08
1.05408e-08
1.05301e-08
1.05207e-08
1.0513e-08
1.05061e-08
1.04974e-08
1.04871e-08
1.04766e-08
1.04668e-08
1.0458e-08
1.04495e-08
1.04409e-08
1.04309e-08
1.04205e-08
1.04109e-08
1.0402e-08
1.03942e-08
1.03862e-08
1.03771e-08
1.0368e-08
1.03601e-08
1.03535e-08
1.03476e-08
1.03415e-08
1.03354e-08
1.03303e-08
1.03265e-08
1.03231e-08
1.03195e-08
1.03167e-08
1.0315e-08
1.03139e-08
1.0313e-08
1.03125e-08
1.03122e-08
1.03119e-08
1.03115e-08
1.0311e-08
1.03101e-08
1.03092e-08
1.03084e-08
1.03075e-08
1.03065e-08
1.03053e-08
1.03035e-08
1.03015e-08
1.02997e-08
1.02977e-08
1.02953e-08
1.02927e-08
1.029e-08
1.02873e-08
1.02845e-08
1.0281e-08
1.02772e-08
1.02732e-08
1.02694e-08
1.02656e-08
1.02617e-08
1.02575e-08
1.02531e-08
1.02484e-08
1.02438e-08
1.02396e-08
1.0235e-08
1.02299e-08
1.02252e-08
1.02206e-08
1.02158e-08
1.02111e-08
1.02066e-08
1.02021e-08
1.01972e-08
1.01923e-08
1.01872e-08
1.01824e-08
1.01778e-08
1.01729e-08
1.01684e-08
1.0163e-08
1.01577e-08
1.01524e-08
1.01475e-08
1.01427e-08
1.01382e-08
1.01344e-08
1.01294e-08
1.01256e-08
1.01234e-08
1.01194e-08
1.01175e-08
1.01199e-08
1.01143e-08
1.01191e-08
1.01301e-08
1.01364e-08
1.01699e-08
1.02043e-08
1.01647e-08
1.02672e-08
1.02759e-08
1.02325e-08
1.01686e-08
1.0156e-08
1.0159e-08
1.01204e-08
1.01029e-08
1.00844e-08
1.00691e-08
1.00605e-08
1.00564e-08
1.00564e-08
1.00696e-08
1.00939e-08
1.01278e-08
1.01621e-08
1.01345e-08
1.01924e-08
1.01983e-08
1.01712e-08
1.01379e-08
1.01271e-08
1.01264e-08
1.00918e-08
1.00763e-08
1.0064e-08
1.00639e-08
1.00605e-08
1.00664e-08
1.00603e-08
1.00624e-08
1.00599e-08
1.01551e-08
1.01817e-08
1.02554e-08
1.03889e-08
1.04412e-08
1.04023e-08
1.04612e-08
1.04848e-08
1.05184e-08
1.05533e-08
1.06147e-08
1.06398e-08
1.0582e-08
1.04819e-08
1.0386e-08
1.03094e-08
1.02549e-08
1.02164e-08
1.01881e-08
1.01676e-08
1.0153e-08
1.01427e-08
1.01353e-08
1.0131e-08
1.01291e-08
1.01286e-08
1.01294e-08
1.01318e-08
1.01345e-08
1.0137e-08
1.01398e-08
1.01445e-08
1.01493e-08
1.01534e-08
1.01571e-08
1.01608e-08
1.01647e-08
1.01685e-08
1.01723e-08
1.01764e-08
1.01803e-08
1.01847e-08
1.01833e-08
1.01821e-08
1.0183e-08
1.01846e-08
1.01867e-08
1.01891e-08
1.01911e-08
1.01926e-08
1.01942e-08
1.0196e-08
1.01978e-08
1.01991e-08
1.01986e-08
1.02034e-08
1.0207e-08
1.02078e-08
1.02075e-08
1.02068e-08
1.02057e-08
1.02046e-08
1.02039e-08
1.02038e-08
1.02043e-08
1.02052e-08
1.02056e-08
1.02049e-08
1.02034e-08
1.02024e-08
1.02029e-08
1.02045e-08
1.02057e-08
1.02048e-08
1.02027e-08
1.02015e-08
1.02022e-08
1.02032e-08
1.02018e-08
1.01993e-08
1.01982e-08
1.01995e-08
1.01948e-08
1.01903e-08
1.01849e-08
1.01996e-08
1.01911e-08
1.02532e-08
1.02952e-08
1.0367e-08
1.03187e-08
1.24512e-08
1.26182e-08
1.29037e-08
1.32316e-08
1.36226e-08
1.42649e-08
1.53708e-08
1.71768e-08
1.99674e-08
2.41095e-08
3.02348e-08
3.85802e-08
4.88779e-08
6.05399e-08
7.26587e-08
8.42492e-08
9.37929e-08
1.01739e-07
1.0726e-07
1.07066e-07
1.02644e-07
9.42966e-08
8.18956e-08
6.77142e-08
5.50331e-08
4.4832e-08
3.70574e-08
3.14707e-08
2.76776e-08
2.51001e-08
2.33551e-08
2.22356e-08
2.14833e-08
2.08907e-08
2.03459e-08
1.98303e-08
1.93586e-08
1.88925e-08
1.83826e-08
1.78672e-08
1.74795e-08
1.72875e-08
1.72445e-08
1.7228e-08
1.71215e-08
1.68982e-08
1.65859e-08
1.62655e-08
1.60532e-08
1.59592e-08
1.59019e-08
1.58023e-08
1.56274e-08
1.53952e-08
1.51433e-08
1.49119e-08
1.4718e-08
1.45663e-08
1.44827e-08
1.44952e-08
1.4609e-08
1.4791e-08
1.49708e-08
1.51098e-08
1.52407e-08
1.54349e-08
1.56846e-08
1.58968e-08
1.59775e-08
1.59491e-08
1.5924e-08
1.6041e-08
1.64609e-08
1.73402e-08
1.88015e-08
2.0902e-08
2.35707e-08
2.66354e-08
2.99077e-08
3.32279e-08
3.68585e-08
4.11119e-08
4.62077e-08
5.2472e-08
6.1766e-08
7.24365e-08
7.76727e-08
7.12676e-08
6.05838e-08
5.11498e-08
4.27053e-08
3.36109e-08
2.49162e-08
1.90525e-08
1.57911e-08
1.45373e-08
1.50307e-08
1.73192e-08
2.18816e-08
2.76228e-08
3.05661e-08
3.05261e-08
2.84179e-08
2.44906e-08
1.98105e-08
1.63276e-08
1.4223e-08
1.28075e-08
1.18311e-08
1.13149e-08
1.10201e-08
1.08136e-08
1.0695e-08
1.06363e-08
1.06885e-08
1.0866e-08
1.11633e-08
1.14204e-08
1.15131e-08
1.14899e-08
1.13392e-08
1.11218e-08
1.09387e-08
1.08059e-08
1.06837e-08
1.0614e-08
1.05513e-08
1.05029e-08
1.04764e-08
1.0466e-08
1.04636e-08
1.04631e-08
1.04664e-08
1.04702e-08
1.04756e-08
1.04812e-08
1.04885e-08
1.04975e-08
1.05054e-08
1.05137e-08
1.05217e-08
1.05293e-08
1.05366e-08
1.0544e-08
1.05513e-08
1.05579e-08
1.05638e-08
1.05704e-08
1.05787e-08
1.05877e-08
1.05954e-08
1.06012e-08
1.06064e-08
1.06128e-08
1.06209e-08
1.06294e-08
1.06366e-08
1.06426e-08
1.0649e-08
1.06559e-08
1.06623e-08
1.06675e-08
1.06724e-08
1.0678e-08
1.06832e-08
1.06864e-08
1.06884e-08
1.06919e-08
1.06962e-08
1.06979e-08
1.06963e-08
1.06949e-08
1.0696e-08
1.06979e-08
1.06966e-08
1.06912e-08
1.06852e-08
1.06811e-08
1.06776e-08
1.06723e-08
1.06654e-08
1.06587e-08
1.06526e-08
1.06432e-08
1.0629e-08
1.06138e-08
1.06016e-08
1.05922e-08
1.05829e-08
1.05713e-08
1.05569e-08
1.0541e-08
1.05262e-08
1.05132e-08
1.0501e-08
1.04889e-08
1.04751e-08
1.04588e-08
1.04421e-08
1.04286e-08
1.04186e-08
1.04088e-08
1.03963e-08
1.03813e-08
1.03666e-08
1.03544e-08
1.03441e-08
1.03338e-08
1.03221e-08
1.03098e-08
1.02992e-08
1.02911e-08
1.02824e-08
1.02709e-08
1.02586e-08
1.02478e-08
1.02403e-08
1.02348e-08
1.02286e-08
1.02199e-08
1.02095e-08
1.02003e-08
1.01935e-08
1.0189e-08
1.01848e-08
1.01794e-08
1.01732e-08
1.01667e-08
1.01611e-08
1.01573e-08
1.01549e-08
1.01521e-08
1.01483e-08
1.01443e-08
1.01405e-08
1.01377e-08
1.01363e-08
1.01356e-08
1.01344e-08
1.01327e-08
1.01314e-08
1.01301e-08
1.01287e-08
1.01271e-08
1.0126e-08
1.01255e-08
1.01261e-08
1.0126e-08
1.0124e-08
1.01222e-08
1.01215e-08
1.01214e-08
1.01213e-08
1.01205e-08
1.01192e-08
1.01181e-08
1.01171e-08
1.01164e-08
1.01157e-08
1.01145e-08
1.01129e-08
1.01111e-08
1.01096e-08
1.01088e-08
1.01084e-08
1.01077e-08
1.01062e-08
1.01037e-08
1.01016e-08
1.01002e-08
1.00992e-08
1.00985e-08
1.00976e-08
1.00962e-08
1.00945e-08
1.00931e-08
1.00917e-08
1.00904e-08
1.00891e-08
1.00879e-08
1.00872e-08
1.00866e-08
1.00854e-08
1.00838e-08
1.00825e-08
1.00815e-08
1.00807e-08
1.00799e-08
1.00792e-08
1.00782e-08
1.00771e-08
1.0076e-08
1.00751e-08
1.00744e-08
1.00737e-08
1.0073e-08
1.0072e-08
1.00712e-08
1.00704e-08
1.00695e-08
1.00687e-08
1.0068e-08
1.00672e-08
1.00664e-08
1.00655e-08
1.00647e-08
1.00638e-08
1.0063e-08
1.00622e-08
1.00615e-08
1.00607e-08
1.00601e-08
1.00593e-08
1.00585e-08
1.00577e-08
1.0057e-08
1.00564e-08
1.00558e-08
1.00552e-08
1.00546e-08
1.00541e-08
1.00536e-08
1.0053e-08
1.00525e-08
1.00521e-08
1.00517e-08
1.00512e-08
1.00508e-08
1.00504e-08
1.005e-08
1.00496e-08
1.00493e-08
1.0049e-08
1.00486e-08
1.00482e-08
1.00478e-08
1.00475e-08
1.00471e-08
1.00468e-08
1.00465e-08
1.00461e-08
1.00458e-08
1.00456e-08
1.00453e-08
1.00451e-08
1.00448e-08
1.00445e-08
1.00443e-08
1.00441e-08
1.0044e-08
1.00437e-08
1.00436e-08
1.00434e-08
1.00433e-08
1.00432e-08
1.0043e-08
1.00429e-08
1.00428e-08
1.00427e-08
1.00426e-08
1.00425e-08
1.00424e-08
1.00423e-08
1.00422e-08
1.00421e-08
1.0042e-08
1.00418e-08
1.00417e-08
1.00415e-08
1.00415e-08
1.00414e-08
1.00413e-08
1.00411e-08
1.0041e-08
1.00409e-08
1.00408e-08
1.00406e-08
1.00405e-08
1.00404e-08
1.00403e-08
1.00401e-08
1.00399e-08
1.00398e-08
1.00396e-08
1.00395e-08
1.00393e-08
1.00391e-08
1.0039e-08
1.00387e-08
1.00386e-08
1.00384e-08
1.00382e-08
1.0038e-08
1.00378e-08
1.00377e-08
1.00374e-08
1.00373e-08
1.0037e-08
1.00369e-08
1.00366e-08
1.00364e-08
1.00362e-08
1.0036e-08
1.00358e-08
1.00356e-08
1.00354e-08
1.00351e-08
1.00349e-08
1.00349e-08
1.00345e-08
1.00344e-08
1.00341e-08
1.00343e-08
1.00346e-08
1.00346e-08
1.00348e-08
1.00348e-08
1.00336e-08
1.00347e-08
1.00349e-08
1.00353e-08
1.00356e-08
1.00346e-08
1.00342e-08
1.0034e-08
1.00342e-08
1.00352e-08
1.00362e-08
1.00363e-08
1.0037e-08
1.00373e-08
1.00362e-08
1.00348e-08
1.00338e-08
1.00328e-08
1.0033e-08
1.00326e-08
1.00326e-08
1.00326e-08
1.00326e-08
1.00323e-08
1.00321e-08
1.00321e-08
1.00324e-08
1.0033e-08
1.00334e-08
1.00335e-08
1.00337e-08
1.00337e-08
1.00332e-08
1.00326e-08
1.00319e-08
1.00315e-08
1.00314e-08
1.0031e-08
1.00308e-08
1.00311e-08
1.00314e-08
1.0032e-08
1.0035e-08
1.0038e-08
1.00393e-08
1.0044e-08
1.00445e-08
1.00444e-08
1.00469e-08
1.00528e-08
1.006e-08
1.00696e-08
1.0075e-08
1.00707e-08
1.00605e-08
1.00504e-08
1.00429e-08
1.00378e-08
1.00345e-08
1.00323e-08
1.00306e-08
1.00294e-08
1.00285e-08
1.00278e-08
1.00272e-08
1.00267e-08
1.00264e-08
1.00262e-08
1.00262e-08
1.00263e-08
1.00265e-08
1.00266e-08
1.00268e-08
1.0027e-08
1.00272e-08
1.00273e-08
1.00274e-08
1.00275e-08
1.00275e-08
1.00276e-08
1.00277e-08
1.00279e-08
1.0028e-08
1.00279e-08
1.00279e-08
1.00281e-08
1.00282e-08
1.00284e-08
1.00285e-08
1.00287e-08
1.00289e-08
1.00291e-08
1.00292e-08
1.00293e-08
1.00294e-08
1.00294e-08
1.00294e-08
1.00295e-08
1.00295e-08
1.00295e-08
1.00295e-08
1.00294e-08
1.00294e-08
1.00294e-08
1.00294e-08
1.00294e-08
1.00294e-08
1.00294e-08
1.00292e-08
1.0029e-08
1.00289e-08
1.00288e-08
1.00288e-08
1.00289e-08
1.0029e-08
1.00289e-08
1.00287e-08
1.00286e-08
1.00287e-08
1.00288e-08
1.00287e-08
1.00285e-08
1.00284e-08
1.00283e-08
1.00283e-08
1.00281e-08
1.0028e-08
1.00283e-08
1.00287e-08
1.00302e-08
1.0032e-08
1.00339e-08
1.00303e-08
1.10162e-08
1.10778e-08
1.11755e-08
1.1272e-08
1.14047e-08
1.16299e-08
1.2023e-08
1.2686e-08
1.37287e-08
1.5299e-08
1.75076e-08
2.03395e-08
2.3614e-08
2.70537e-08
3.0519e-08
3.40439e-08
3.78106e-08
4.1678e-08
4.45152e-08
4.46916e-08
4.20609e-08
3.70924e-08
3.09321e-08
2.54901e-08
2.15796e-08
1.89097e-08
1.70785e-08
1.57952e-08
1.48884e-08
1.42663e-08
1.38558e-08
1.35817e-08
1.34242e-08
1.33002e-08
1.3158e-08
1.29736e-08
1.27681e-08
1.2587e-08
1.24212e-08
1.22699e-08
1.21494e-08
1.20682e-08
1.20213e-08
1.1977e-08
1.19248e-08
1.1865e-08
1.17976e-08
1.17287e-08
1.16727e-08
1.16413e-08
1.16132e-08
1.15828e-08
1.1544e-08
1.14904e-08
1.14235e-08
1.13512e-08
1.12821e-08
1.12241e-08
1.11849e-08
1.11698e-08
1.11779e-08
1.12022e-08
1.12343e-08
1.12726e-08
1.1329e-08
1.14159e-08
1.15271e-08
1.16419e-08
1.17386e-08
1.18069e-08
1.1858e-08
1.19231e-08
1.20442e-08
1.22662e-08
1.26229e-08
1.31452e-08
1.38511e-08
1.47472e-08
1.58682e-08
1.73762e-08
1.9473e-08
2.20906e-08
2.53397e-08
2.94864e-08
3.4538e-08
4.01025e-08
4.49476e-08
4.92187e-08
5.00032e-08
4.72783e-08
4.08124e-08
3.17013e-08
2.64873e-08
2.29134e-08
1.86885e-08
1.5744e-08
1.39379e-08
1.31052e-08
1.32521e-08
1.42951e-08
1.55044e-08
1.64536e-08
1.71408e-08
1.6802e-08
1.56972e-08
1.43527e-08
1.32726e-08
1.24581e-08
1.18252e-08
1.14673e-08
1.12205e-08
1.09337e-08
1.06851e-08
1.05038e-08
1.03736e-08
1.02804e-08
1.02142e-08
1.01912e-08
1.01904e-08
1.02009e-08
1.021e-08
1.02086e-08
1.02038e-08
1.01952e-08
1.01839e-08
1.01735e-08
1.01619e-08
1.01449e-08
1.01309e-08
1.01198e-08
1.01113e-08
1.01054e-08
1.01013e-08
1.00983e-08
1.00966e-08
1.00959e-08
1.00959e-08
1.00963e-08
1.00969e-08
1.00977e-08
1.00984e-08
1.00991e-08
1.00999e-08
1.01007e-08
1.01016e-08
1.01023e-08
1.01031e-08
1.01039e-08
1.0105e-08
1.01061e-08
1.0107e-08
1.01077e-08
1.01085e-08
1.01094e-08
1.01105e-08
1.01116e-08
1.01125e-08
1.01133e-08
1.01141e-08
1.01151e-08
1.0116e-08
1.01167e-08
1.01174e-08
1.01181e-08
1.01187e-08
1.0119e-08
1.01192e-08
1.01196e-08
1.012e-08
1.01201e-08
1.01197e-08
1.01194e-08
1.01192e-08
1.01192e-08
1.01188e-08
1.01179e-08
1.01168e-08
1.01158e-08
1.01149e-08
1.01138e-08
1.01127e-08
1.01115e-08
1.01102e-08
1.01085e-08
1.01063e-08
1.0104e-08
1.0102e-08
1.01003e-08
1.00987e-08
1.0097e-08
1.0095e-08
1.00927e-08
1.00905e-08
1.00884e-08
1.00865e-08
1.00848e-08
1.0083e-08
1.0081e-08
1.00789e-08
1.00771e-08
1.00756e-08
1.00743e-08
1.00728e-08
1.00711e-08
1.00694e-08
1.00679e-08
1.00666e-08
1.00654e-08
1.00641e-08
1.00628e-08
1.00616e-08
1.00606e-08
1.00596e-08
1.00584e-08
1.00572e-08
1.00562e-08
1.00553e-08
1.00547e-08
1.0054e-08
1.00531e-08
1.00522e-08
1.00514e-08
1.00507e-08
1.00502e-08
1.00497e-08
1.00492e-08
1.00487e-08
1.00481e-08
1.00476e-08
1.00473e-08
1.00469e-08
1.00466e-08
1.00463e-08
1.0046e-08
1.00456e-08
1.00454e-08
1.00452e-08
1.0045e-08
1.00449e-08
1.00447e-08
1.00445e-08
1.00443e-08
1.00442e-08
1.0044e-08
1.00438e-08
1.00437e-08
1.00436e-08
1.00435e-08
1.00434e-08
1.00432e-08
1.00431e-08
1.0043e-08
1.0043e-08
1.00429e-08
1.00427e-08
1.00426e-08
1.00426e-08
1.00425e-08
1.00424e-08
1.00423e-08
1.00421e-08
1.00419e-08
1.00418e-08
1.00417e-08
1.00416e-08
1.00416e-08
1.00414e-08
1.00413e-08
1.00411e-08
1.0041e-08
1.00408e-08
1.00407e-08
1.00406e-08
1.00405e-08
1.00404e-08
1.00402e-08
1.00401e-08
1.004e-08
1.00398e-08
1.00397e-08
1.00396e-08
1.00395e-08
1.00394e-08
1.00392e-08
1.00391e-08
1.0039e-08
1.00389e-08
1.00388e-08
1.00387e-08
1.00386e-08
1.00385e-08
1.00384e-08
1.00383e-08
1.00381e-08
1.0038e-08
1.00379e-08
1.00378e-08
1.00376e-08
1.00375e-08
1.00374e-08
1.00373e-08
1.00372e-08
1.00371e-08
1.0037e-08
1.00368e-08
1.00367e-08
1.00365e-08
1.00364e-08
1.00364e-08
1.00362e-08
1.00361e-08
1.0036e-08
1.00358e-08
1.00358e-08
1.00357e-08
1.00355e-08
1.00354e-08
1.00353e-08
1.00352e-08
1.00351e-08
1.0035e-08
1.00349e-08
1.00348e-08
1.00346e-08
1.00346e-08
1.00345e-08
1.00343e-08
1.00343e-08
1.00342e-08
1.00341e-08
1.00339e-08
1.00338e-08
1.00338e-08
1.00336e-08
1.00335e-08
1.00335e-08
1.00334e-08
1.00332e-08
1.00332e-08
1.00331e-08
1.0033e-08
1.00329e-08
1.00328e-08
1.00327e-08
1.00327e-08
1.00326e-08
1.00325e-08
1.00324e-08
1.00323e-08
1.00322e-08
1.00321e-08
1.00321e-08
1.0032e-08
1.00319e-08
1.00318e-08
1.00318e-08
1.00317e-08
1.00316e-08
1.00315e-08
1.00314e-08
1.00314e-08
1.00314e-08
1.00313e-08
1.00312e-08
1.00311e-08
1.00311e-08
1.0031e-08
1.00309e-08
1.00309e-08
1.00308e-08
1.00307e-08
1.00307e-08
1.00306e-08
1.00305e-08
1.00304e-08
1.00303e-08
1.00303e-08
1.00302e-08
1.003e-08
1.003e-08
1.00299e-08
1.00298e-08
1.00297e-08
1.00296e-08
1.00296e-08
1.00295e-08
1.00294e-08
1.00294e-08
1.00293e-08
1.00292e-08
1.00291e-08
1.0029e-08
1.0029e-08
1.00289e-08
1.00288e-08
1.00288e-08
1.00287e-08
1.00286e-08
1.00286e-08
1.00285e-08
1.00284e-08
1.00284e-08
1.00283e-08
1.00281e-08
1.00281e-08
1.0028e-08
1.00279e-08
1.00277e-08
1.00279e-08
1.00279e-08
1.0028e-08
1.0028e-08
1.00281e-08
1.00282e-08
1.00278e-08
1.00284e-08
1.00285e-08
1.00285e-08
1.00286e-08
1.00284e-08
1.00282e-08
1.00281e-08
1.00282e-08
1.00282e-08
1.00282e-08
1.00282e-08
1.00282e-08
1.00281e-08
1.00278e-08
1.00268e-08
1.00274e-08
1.00276e-08
1.00276e-08
1.00276e-08
1.00275e-08
1.00274e-08
1.00273e-08
1.00273e-08
1.00273e-08
1.00273e-08
1.00272e-08
1.00271e-08
1.0027e-08
1.0027e-08
1.00269e-08
1.00268e-08
1.00267e-08
1.00266e-08
1.00264e-08
1.00263e-08
1.00264e-08
1.00264e-08
1.0027e-08
1.00268e-08
1.0026e-08
1.00266e-08
1.00273e-08
1.00299e-08
1.00321e-08
1.00354e-08
1.00367e-08
1.00352e-08
1.00334e-08
1.00322e-08
1.00314e-08
1.00308e-08
1.00304e-08
1.00299e-08
1.00295e-08
1.00292e-08
1.00285e-08
1.00277e-08
1.00269e-08
1.00261e-08
1.00255e-08
1.00249e-08
1.00244e-08
1.00239e-08
1.00235e-08
1.00232e-08
1.00228e-08
1.00226e-08
1.00223e-08
1.00221e-08
1.0022e-08
1.0022e-08
1.0022e-08
1.0022e-08
1.0022e-08
1.0022e-08
1.0022e-08
1.0022e-08
1.00221e-08
1.00221e-08
1.00223e-08
1.00224e-08
1.00225e-08
1.00226e-08
1.00226e-08
1.00227e-08
1.00226e-08
1.00226e-08
1.00225e-08
1.00225e-08
1.00225e-08
1.00226e-08
1.00227e-08
1.00228e-08
1.00229e-08
1.00229e-08
1.0023e-08
1.0023e-08
1.0023e-08
1.0023e-08
1.0023e-08
1.0023e-08
1.0023e-08
1.00229e-08
1.00228e-08
1.00228e-08
1.00229e-08
1.00229e-08
1.0023e-08
1.00229e-08
1.00228e-08
1.00226e-08
1.00224e-08
1.00223e-08
1.00223e-08
1.00223e-08
1.00224e-08
1.00224e-08
1.00223e-08
1.00223e-08
1.00223e-08
1.00224e-08
1.00224e-08
1.00223e-08
1.00221e-08
1.0022e-08
1.0022e-08
1.00219e-08
1.00219e-08
1.00219e-08
1.00221e-08
1.00224e-08
1.00232e-08
1.00241e-08
1.0025e-08
1.00226e-08
1.0469e-08
1.05188e-08
1.05627e-08
1.06007e-08
1.06408e-08
1.07007e-08
1.07957e-08
1.09602e-08
1.12171e-08
1.15712e-08
1.20336e-08
1.25721e-08
1.31112e-08
1.3595e-08
1.40192e-08
1.44471e-08
1.49814e-08
1.5556e-08
1.59679e-08
1.60344e-08
1.56693e-08
1.48826e-08
1.39307e-08
1.31498e-08
1.25923e-08
1.21979e-08
1.18921e-08
1.16511e-08
1.14654e-08
1.13313e-08
1.12386e-08
1.11694e-08
1.11255e-08
1.1088e-08
1.10406e-08
1.09852e-08
1.09309e-08
1.08796e-08
1.08339e-08
1.07938e-08
1.07588e-08
1.07294e-08
1.07035e-08
1.06807e-08
1.06607e-08
1.06423e-08
1.06241e-08
1.06065e-08
1.05905e-08
1.05763e-08
1.05635e-08
1.05519e-08
1.054e-08
1.05255e-08
1.05072e-08
1.04859e-08
1.04632e-08
1.04417e-08
1.04249e-08
1.04147e-08
1.04106e-08
1.04116e-08
1.04167e-08
1.04268e-08
1.04441e-08
1.04708e-08
1.05058e-08
1.05454e-08
1.0585e-08
1.06205e-08
1.06518e-08
1.06854e-08
1.07324e-08
1.08042e-08
1.09086e-08
1.10538e-08
1.12463e-08
1.14925e-08
1.18064e-08
1.22236e-08
1.28217e-08
1.36891e-08
1.51356e-08
1.71931e-08
1.97658e-08
2.29701e-08
2.61713e-08
2.89784e-08
3.11002e-08
3.22306e-08
3.16469e-08
3.00861e-08
2.72641e-08
2.36661e-08
1.95562e-08
1.70886e-08
1.53821e-08
1.38476e-08
1.28431e-08
1.22742e-08
1.20441e-08
1.20426e-08
1.21821e-08
1.22238e-08
1.21127e-08
1.19198e-08
1.16624e-08
1.13955e-08
1.115e-08
1.09828e-08
1.0884e-08
1.08293e-08
1.08142e-08
1.07903e-08
1.0683e-08
1.05393e-08
1.04145e-08
1.03139e-08
1.02294e-08
1.01593e-08
1.01227e-08
1.01028e-08
1.00918e-08
1.00886e-08
1.00874e-08
1.00872e-08
1.00884e-08
1.00907e-08
1.00942e-08
1.00956e-08
1.00919e-08
1.00867e-08
1.00815e-08
1.00766e-08
1.0072e-08
1.00686e-08
1.00661e-08
1.00639e-08
1.00621e-08
1.00608e-08
1.00598e-08
1.00592e-08
1.00588e-08
1.00585e-08
1.00584e-08
1.00583e-08
1.00582e-08
1.00581e-08
1.00581e-08
1.00582e-08
1.00582e-08
1.00583e-08
1.00583e-08
1.00584e-08
1.00585e-08
1.00586e-08
1.00587e-08
1.00587e-08
1.00588e-08
1.00589e-08
1.0059e-08
1.00591e-08
1.00591e-08
1.00592e-08
1.00592e-08
1.00591e-08
1.00591e-08
1.0059e-08
1.0059e-08
1.00589e-08
1.00587e-08
1.00585e-08
1.00584e-08
1.00582e-08
1.0058e-08
1.00578e-08
1.00575e-08
1.00572e-08
1.0057e-08
1.00567e-08
1.00564e-08
1.00561e-08
1.00558e-08
1.00555e-08
1.00551e-08
1.00547e-08
1.00543e-08
1.0054e-08
1.00536e-08
1.00533e-08
1.00529e-08
1.00525e-08
1.00521e-08
1.00517e-08
1.00513e-08
1.0051e-08
1.00506e-08
1.00503e-08
1.00499e-08
1.00496e-08
1.00493e-08
1.0049e-08
1.00487e-08
1.00484e-08
1.00481e-08
1.00477e-08
1.00474e-08
1.00471e-08
1.00469e-08
1.00466e-08
1.00463e-08
1.0046e-08
1.00458e-08
1.00455e-08
1.00453e-08
1.0045e-08
1.00447e-08
1.00445e-08
1.00443e-08
1.00441e-08
1.00439e-08
1.00437e-08
1.00434e-08
1.00433e-08
1.00431e-08
1.00429e-08
1.00427e-08
1.00425e-08
1.00424e-08
1.00422e-08
1.00421e-08
1.00419e-08
1.00418e-08
1.00416e-08
1.00415e-08
1.00414e-08
1.00413e-08
1.00412e-08
1.00411e-08
1.0041e-08
1.00409e-08
1.00407e-08
1.00406e-08
1.00405e-08
1.00404e-08
1.00403e-08
1.00402e-08
1.00401e-08
1.004e-08
1.00399e-08
1.00398e-08
1.00397e-08