/*--------------------------------*- C++ -*----------------------------------*\
| =========                 |                                                 |
| \\      /  F ield         | OpenFOAM: The Open Source CFD Toolbox           |
|  \\    /   O peration     | Version:  v2006                                 |
|   \\  /    A nd           | Website:  www.openfoam.com                      |
|    \\/     M anipulation  |                                                 |
\*---------------------------------------------------------------------------*/
FoamFile
{
    version     2.0;
    format      ascii;
    class       volScalarField;
    location    "5.8";
    object      omega;
}
// * * * * * * * * * * * * * * * * * * * * * * * * * * * * * * * * * * * * * //

dimensions      [0 0 -1 0 0 0 0];


internalField   nonuniform List<scalar> 
33000
(
0.803221
0.803315
0.803381
0.803416
0.803439
0.803485
0.803578
0.803731
0.803949
0.804227
0.804563
0.804963
0.80543
0.805948
0.80648
0.806982
0.807432
0.808
0.809058
0.811023
0.814238
0.818429
0.822583
0.825893
0.828228
0.829704
0.8305
0.830842
0.830978
0.831139
0.831446
0.831785
0.832042
0.832165
0.832181
0.83216
0.832106
0.831899
0.831455
0.83085
0.830479
0.830597
0.831104
0.831634
0.831813
0.83153
0.830893
0.830299
0.830114
0.830298
0.830592
0.830737
0.830565
0.830163
0.829738
0.829412
0.829125
0.828822
0.828569
0.828519
0.828846
0.829489
0.830081
0.83027
0.829986
0.829545
0.829289
0.829092
0.828587
0.827612
0.826394
0.825139
0.824005
0.822969
0.822029
0.82111
0.820137
0.819166
0.818886
0.819203
0.818822
0.819128
0.819039
0.819622
0.820521
0.821439
0.822094
0.822421
0.822563
0.822556
0.822433
0.822236
0.821946
0.821535
0.82095
0.820196
0.8193
0.818306
0.817274
0.816303
0.81585
0.815965
0.816069
0.81585
0.81574
0.815953
0.816278
0.816382
0.816236
0.815936
0.815646
0.815361
0.815216
0.815137
0.814921
0.8146
0.814226
0.814083
0.814089
0.81404
0.813961
0.813898
0.813825
0.813861
0.813977
0.814061
0.814114
0.81413
0.814118
0.81412
0.814145
0.814164
0.814175
0.814173
0.814173
0.81416
0.814141
0.81413
0.814122
0.814118
0.814113
0.814107
0.814095
0.814083
0.814078
0.814069
0.814049
0.814021
0.813991
0.813967
0.81395
0.813936
0.813911
0.813874
0.81384
0.813812
0.813787
0.813759
0.813727
0.813692
0.813655
0.813617
0.813577
0.813537
0.813501
0.813466
0.813423
0.813375
0.813331
0.813289
0.813242
0.813184
0.813127
0.813073
0.813024
0.812977
0.812928
0.812889
0.812864
0.812849
0.812841
0.812841
0.812855
0.81288
0.812909
0.812946
0.812998
0.813065
0.813137
0.813205
0.813267
0.813324
0.813376
0.813425
0.81347
0.813506
0.813534
0.813553
0.813566
0.813573
0.813578
0.81358
0.813575
0.813559
0.813535
0.813505
0.813477
0.813451
0.813424
0.813393
0.813361
0.813331
0.813301
0.813269
0.813231
0.813192
0.813154
0.813118
0.813081
0.81304
0.812992
0.812941
0.812889
0.812838
0.812787
0.812735
0.812679
0.812621
0.812562
0.812504
0.812448
0.812393
0.812336
0.812277
0.812218
0.812159
0.812101
0.812044
0.811985
0.811926
0.811867
0.811808
0.811747
0.811686
0.811623
0.811561
0.811501
0.811441
0.811377
0.811312
0.811248
0.811185
0.811121
0.811057
0.810992
0.810925
0.810858
0.810791
0.810724
0.810657
0.810588
0.810518
0.810447
0.810376
0.810306
0.810236
0.810165
0.810091
0.810015
0.809939
0.809864
0.80979
0.809716
0.809638
0.809559
0.809478
0.809398
0.809316
0.809233
0.809149
0.809065
0.808982
0.808895
0.808806
0.808716
0.808625
0.808534
0.808443
0.80835
0.808255
0.808157
0.808057
0.807956
0.807854
0.807752
0.807649
0.807543
0.807436
0.807329
0.80722
0.80711
0.806998
0.806883
0.806764
0.806638
0.806504
0.806374
0.806248
0.806128
0.806013
0.805906
0.805804
0.805708
0.805617
0.805533
0.805456
0.805386
0.805321
0.805263
0.805212
0.805168
0.80513
0.805099
0.805074
0.805057
0.805047
0.805042
0.805044
0.80505
0.805061
0.805077
0.805097
0.805122
0.805149
0.805176
0.805201
0.805225
0.805247
0.805266
0.805282
0.805296
0.805306
0.805314
0.805319
0.805321
0.80532
0.805316
0.805311
0.805303
0.805292
0.80528
0.805264
0.805247
0.805228
0.805208
0.805185
0.805161
0.805135
0.805109
0.80508
0.805051
0.805021
0.804989
0.804957
0.804924
0.804891
0.804857
0.804823
0.804788
0.804753
0.804718
0.804682
0.804647
0.804611
0.804576
0.80454
0.804505
0.80447
0.804435
0.804401
0.804366
0.804332
0.804298
0.804265
0.804232
0.8042
0.804167
0.804136
0.804105
0.804074
0.804044
0.804014
0.803985
0.803956
0.803927
0.803898
0.80387
0.803841
0.803812
0.803782
0.803753
0.803723
0.803694
0.803664
0.803634
0.803605
0.803575
0.803546
0.803516
0.803487
0.803458
0.803429
0.803399
0.80337
0.803341
0.803312
0.803282
0.803253
0.803221
0.803188
0.803162
0.80313
0.803101
0.803074
0.803021
0.802978
0.802966
0.802909
0.802921
0.802892
0.803003
0.803044
0.803085
0.803091
0.803096
0.803084
0.803073
0.803057
0.803042
0.803024
0.803004
0.802986
0.802956
0.802929
0.802913
0.80288
0.802868
0.802837
0.802835
0.802835
0.802827
0.802818
0.802803
0.802789
0.802773
0.802757
0.80274
0.802717
0.802695
0.802679
0.802654
0.802639
0.802617
0.802555
0.802514
0.80251
0.802441
0.802525
0.802544
0.802843
0.803129
0.803391
0.803607
0.803778
0.803909
0.80401
0.804089
0.804148
0.804193
0.804226
0.804252
0.804272
0.804287
0.804299
0.804307
0.804312
0.804316
0.804318
0.804318
0.804317
0.804315
0.804312
0.804308
0.804303
0.804298
0.804292
0.804286
0.804279
0.804272
0.804264
0.804255
0.804246
0.804236
0.804225
0.804215
0.804203
0.804191
0.804179
0.804167
0.804155
0.804143
0.80413
0.804118
0.804106
0.804093
0.804081
0.804069
0.804057
0.804044
0.804031
0.804018
0.804005
0.803992
0.803978
0.803965
0.803952
0.803939
0.803925
0.803912
0.803898
0.803885
0.803873
0.80386
0.803847
0.803835
0.803823
0.803811
0.803799
0.803787
0.803775
0.803763
0.803751
0.803739
0.803728
0.803717
0.803702
0.803703
0.803654
0.80364
0.803362
0.567052
0.55302
0.57759
0.610622
0.635711
0.648975
0.648441
0.652028
0.669698
0.709191
0.766194
0.834071
0.91578
1.00948
1.10527
1.19111
1.25475
1.27872
1.26316
1.21546
1.14994
1.08828
1.02956
0.954194
0.859561
0.767047
0.689629
0.625579
0.574677
0.53788
0.512419
0.49401
0.478744
0.464981
0.453084
0.444232
0.43827
0.43332
0.426683
0.418595
0.411094
0.406979
0.405379
0.402422
0.396943
0.389906
0.38333
0.377852
0.374267
0.370724
0.364405
0.355517
0.345973
0.338669
0.334968
0.334495
0.33506
0.334872
0.33333
0.331154
0.331596
0.336735
0.345251
0.355137
0.362704
0.365993
0.369719
0.377367
0.389009
0.404498
0.426995
0.459337
0.501784
0.55412
0.617934
0.694855
0.774309
0.837371
0.916113
1.00875
1.10423
1.17569
1.22923
1.28223
1.24951
1.25426
1.24477
1.21335
1.11218
0.924116
0.712278
0.504263
0.35578
0.276285
0.256259
0.283724
0.357739
0.484127
0.662716
0.829095
0.929245
0.995995
1.01254
0.925041
0.75855
0.572954
0.407065
0.281978
0.217986
0.175835
0.140748
0.122483
0.117062
0.128666
0.154955
0.191512
0.221004
0.231429
0.230919
0.230497
0.210775
0.173471
0.152969
0.136383
0.124945
0.11717
0.110161
0.10362
0.100116
0.0980876
0.0976457
0.0980892
0.0985167
0.0988493
0.0994178
0.100154
0.100925
0.10171
0.102558
0.103355
0.10407
0.104708
0.10526
0.105814
0.106389
0.106915
0.10738
0.107915
0.108558
0.109243
0.10988
0.110429
0.11089
0.111403
0.112029
0.112667
0.113263
0.113868
0.114522
0.115121
0.115568
0.115913
0.116332
0.116859
0.117301
0.117551
0.117751
0.118084
0.118412
0.11849
0.118346
0.11823
0.118312
0.118418
0.118248
0.117738
0.117137
0.116716
0.116373
0.115885
0.115186
0.114398
0.113698
0.112785
0.111405
0.109933
0.108758
0.107834
0.106859
0.105606
0.104105
0.102525
0.101119
0.0998802
0.0986657
0.0973627
0.0958491
0.0941159
0.0923825
0.0909584
0.0898858
0.0888458
0.0875092
0.0858291
0.0841061
0.0826469
0.0814381
0.0802727
0.0789184
0.0773946
0.0760329
0.0750058
0.0739511
0.0724962
0.0708274
0.069351
0.0683454
0.0676474
0.0668055
0.06554
0.0639909
0.0625797
0.0615753
0.0609668
0.0603717
0.0595286
0.0584982
0.0574049
0.0564412
0.0558365
0.0555142
0.0550708
0.0544001
0.0536906
0.0530201
0.0525326
0.0523076
0.0522077
0.0519933
0.0517052
0.0515441
0.0514166
0.0511857
0.0508767
0.0506782
0.0506629
0.050929
0.0510221
0.0506279
0.050306
0.0502423
0.0503227
0.0504225
0.0503542
0.050178
0.050003
0.0498093
0.0496895
0.0496343
0.0495058
0.0492608
0.0489125
0.0486179
0.0485193
0.0485421
0.0485034
0.0482085
0.0475995
0.04711
0.04683
0.0466721
0.0466328
0.0465342
0.0461937
0.0457583
0.0454033
0.0451014
0.0448144
0.0445093
0.0442414
0.0441389
0.0440607
0.0437229
0.0432525
0.0428778
0.0426189
0.0424265
0.0422995
0.0421773
0.0419158
0.0415354
0.0411846
0.040936
0.0407615
0.0406553
0.0404738
0.0401531
0.0398599
0.0395871
0.0393235
0.0391553
0.0389286
0.0385827
0.03826
0.0379722
0.0377291
0.0373997
0.0370106
0.0366529
0.0363513
0.0361072
0.035817
0.0354483
0.0350483
0.0347061
0.0344349
0.0341377
0.0337882
0.0334706
0.0331876
0.0329452
0.0326885
0.032371
0.0320883
0.0318669
0.0316746
0.0314491
0.0311951
0.0309805
0.030813
0.0306827
0.0305606
0.0303738
0.0301454
0.0299205
0.0297264
0.0295637
0.0294151
0.0292608
0.0290671
0.0288738
0.0287185
0.0285915
0.0284906
0.0283717
0.0282088
0.0280561
0.027948
0.0278854
0.0278237
0.0277383
0.02766
0.0276219
0.0276223
0.0276155
0.0275931
0.0275964
0.0276318
0.0276703
0.0276984
0.0277391
0.0277952
0.0278556
0.0279158
0.0279605
0.0279952
0.0280377
0.0280895
0.0281436
0.0281909
0.0282191
0.0282262
0.0282306
0.0282435
0.0282531
0.0282521
0.0282525
0.028256
0.0282626
0.0282564
0.0282199
0.0281658
0.0281156
0.0280794
0.0280519
0.0280187
0.0279739
0.0279097
0.0278291
0.0277675
0.027725
0.0276444
0.0275366
0.0274685
0.0274075
0.0273208
0.027246
0.0271866
0.0271137
0.0270153
0.0269017
0.0267861
0.0266895
0.0266092
0.0265092
0.0264278
0.0262862
0.0261502
0.0260027
0.0258969
0.0258003
0.0256937
0.0256139
0.025446
0.0253197
0.0253133
0.0251725
0.0252379
0.0253179
0.0247763
0.024647
0.0248346
0.024276
0.0261829
0.0274957
0.0240042
0.0255703
0.0250137
0.0250974
0.0272992
0.0291729
0.0277788
0.0258042
0.0243605
0.023541
0.0232022
0.0230691
0.023026
0.0230024
0.0230811
0.0229233
0.0244704
0.0256801
0.0232459
0.0243465
0.0241387
0.0243829
0.025797
0.0268039
0.0258618
0.0246445
0.0237497
0.0233368
0.022971
0.0229691
0.0228334
0.0235204
0.0237448
0.0231579
0.0239122
0.0235624
0.025108
0.0355344
0.0384711
0.0324315
0.0403626
0.0434528
0.0468603
0.0556148
0.0637899
0.0644383
0.0566616
0.0466494
0.0385391
0.0329666
0.0294137
0.027188
0.02578
0.0248905
0.0243353
0.0240021
0.023808
0.0237099
0.0237099
0.0237771
0.0238692
0.0240091
0.024147
0.0242572
0.0243405
0.0245058
0.0246939
0.0248479
0.0249733
0.0250747
0.0251759
0.0252791
0.0253684
0.0254583
0.0255316
0.0256305
0.0254991
0.0253702
0.0253347
0.0253471
0.0253948
0.0254786
0.0255438
0.0255921
0.025654
0.0257322
0.0258175
0.0258917
0.0258902
0.0261067
0.0262821
0.0263306
0.0263145
0.0262813
0.0262222
0.0261671
0.0261383
0.0261535
0.0262177
0.0263009
0.0263521
0.0263329
0.026266
0.0262415
0.026321
0.0264891
0.0266409
0.0266389
0.0265218
0.0264626
0.0265595
0.0266909
0.0266425
0.0264722
0.026388
0.0264784
0.0262911
0.0260553
0.025906
0.0262201
0.0264385
0.0269573
0.0274234
0.0287849
0.0260156
0.244581
0.235177
0.234228
0.237955
0.233146
0.225789
0.2236
0.232915
0.25514
0.292539
0.352112
0.435154
0.534658
0.643077
0.75219
0.853472
0.935698
0.99345
1.01448
0.985782
0.923555
0.839077
0.737649
0.631549
0.53665
0.45771
0.394668
0.347142
0.31256
0.287437
0.269466
0.257104
0.247863
0.239842
0.23299
0.227558
0.223386
0.218893
0.211676
0.201976
0.194511
0.191941
0.193571
0.195975
0.194806
0.18939
0.180887
0.171786
0.166272
0.164644
0.16382
0.160758
0.154941
0.148428
0.142981
0.139398
0.137066
0.135006
0.133496
0.133732
0.137311
0.144644
0.153568
0.161132
0.16482
0.166233
0.169443
0.174241
0.178387
0.182628
0.189748
0.201067
0.217298
0.239108
0.267867
0.303267
0.345404
0.392746
0.442211
0.492217
0.544999
0.604218
0.668658
0.743062
0.854359
0.985189
1.06238
1.04942
0.975133
0.882243
0.768178
0.625586
0.479198
0.366152
0.283774
0.225555
0.195129
0.210617
0.279666
0.378468
0.457823
0.514435
0.550069
0.535997
0.477648
0.412087
0.349992
0.278117
0.205486
0.147667
0.104212
0.0718989
0.0484934
0.0311658
0.0259323
0.0278219
0.034639
0.041687
0.0456893
0.0459373
0.0439241
0.0407193
0.0390375
0.0346087
0.027136
0.022931
0.0196166
0.0173499
0.0158011
0.0147148
0.0138427
0.0133401
0.0130897
0.0130856
0.0132452
0.0134727
0.0136802
0.0138515
0.014004
0.0141372
0.0142884
0.0144556
0.014626
0.0147875
0.0149424
0.0150735
0.0151964
0.0153398
0.0155006
0.0156676
0.0158295
0.0159702
0.0160976
0.0162329
0.0163797
0.0165315
0.0166768
0.0168159
0.016969
0.017124
0.0172501
0.0173379
0.017423
0.0175276
0.0176253
0.0176864
0.0177212
0.0177758
0.0178389
0.0178495
0.0177911
0.0177253
0.0177111
0.0177124
0.0176496
0.0174969
0.0173108
0.0171587
0.01703
0.0168735
0.0166735
0.0164604
0.0162551
0.0159892
0.0156272
0.0152444
0.0149168
0.0146523
0.0143998
0.0141043
0.0137541
0.01337
0.0130035
0.0126735
0.0123717
0.012079
0.0117569
0.0113865
0.0110082
0.0106885
0.0104398
0.0102016
0.00991677
0.00958747
0.00926144
0.00898034
0.00873724
0.00849738
0.00823573
0.00796517
0.0077288
0.0075359
0.0073306
0.0070767
0.00680825
0.00657233
0.00639733
0.00626354
0.00611908
0.0059278
0.00570447
0.00550126
0.00534688
0.00523832
0.00513846
0.00501955
0.00488333
0.00474313
0.00461775
0.00452777
0.00446969
0.0044074
0.00432548
0.00423735
0.00415521
0.00409729
0.00407036
0.00405969
0.00403813
0.00400417
0.00397709
0.00395363
0.00393123
0.00390919
0.00389496
0.00389393
0.00391419
0.00391766
0.00388392
0.00385705
0.0038542
0.00386445
0.00386911
0.00385594
0.00383716
0.00382416
0.00381233
0.00380608
0.00379915
0.00377446
0.00374116
0.00370816
0.00368248
0.0036727
0.00367184
0.00366157
0.00362701
0.00356699
0.00351786
0.00348846
0.00347123
0.00345968
0.00344086
0.00340761
0.00336972
0.00333538
0.00330163
0.003269
0.00323713
0.00321129
0.00319986
0.00318791
0.00315557
0.003113
0.00307894
0.00305559
0.00303647
0.00302027
0.00300501
0.00298142
0.00294987
0.00292112
0.00289921
0.00288075
0.00286612
0.00284767
0.00282274
0.00280107
0.00277738
0.00275075
0.0027303
0.00270909
0.00268385
0.00265792
0.00262915
0.00260384
0.0025765
0.00254626
0.0025163
0.00248897
0.00246444
0.00243791
0.00240899
0.00237662
0.00234641
0.00232084
0.00229483
0.00226767
0.00224229
0.00221747
0.00219446
0.00217165
0.00214749
0.00212626
0.0021082
0.00209055
0.00207118
0.00205164
0.00203472
0.00202031
0.00200706
0.00199381
0.00197818
0.00196061
0.00194319
0.00192733
0.0019129
0.00189916
0.0018856
0.00187099
0.00185666
0.00184382
0.00183269
0.00182318
0.00181268
0.0018009
0.00179052
0.00178251
0.00177667
0.0017712
0.00176538
0.00176067
0.00175808
0.00175737
0.00175701
0.00175661
0.00175761
0.00176019
0.00176353
0.00176729
0.00177207
0.00177706
0.00178189
0.00178703
0.00179184
0.00179634
0.001801
0.00180574
0.00181058
0.00181511
0.00181863
0.00182106
0.00182318
0.00182559
0.00182791
0.00182959
0.00183102
0.00183199
0.00183294
0.00183346
0.00183276
0.00183093
0.0018289
0.0018274
0.00182632
0.00182457
0.00182192
0.00181861
0.00181448
0.00181103
0.00180783
0.00180347
0.00179786
0.00179434
0.00179023
0.00178537
0.00178036
0.00177641
0.00177163
0.00176679
0.00176031
0.00175433
0.00174826
0.00174361
0.00173618
0.00173168
0.00172468
0.00171759
0.00170821
0.00169934
0.00169229
0.0016826
0.00167976
0.00167015
0.00166968
0.00167146
0.00165388
0.0016552
0.00166571
0.00165578
0.00171595
0.00177267
0.00165894
0.00175352
0.00176109
0.00167063
0.00163251
0.0016488
0.00169094
0.00176412
0.00181235
0.00172989
0.00164255
0.00159062
0.00156433
0.00155967
0.00155258
0.0015739
0.00159939
0.00164302
0.00159718
0.00165807
0.0016776
0.00163397
0.00161424
0.00162569
0.00165302
0.00168466
0.00170911
0.00166415
0.00162849
0.00159688
0.00158957
0.00157176
0.00156231
0.00152789
0.00159081
0.00160825
0.00170484
0.00207377
0.00236122
0.00234868
0.00303982
0.00310967
0.00281938
0.00277141
0.00304538
0.00353058
0.00419582
0.00456925
0.00424889
0.00353955
0.00287351
0.00239622
0.00209024
0.00190033
0.00178122
0.00170354
0.00165177
0.00161702
0.00159407
0.0015791
0.00157022
0.001567
0.0015672
0.00156918
0.0015736
0.00157873
0.00158387
0.00158939
0.00159872
0.00160922
0.00161863
0.00162721
0.0016351
0.00164203
0.00164843
0.00165439
0.00166044
0.00166557
0.00167096
0.00166883
0.0016667
0.00166741
0.00166961
0.00167246
0.00167552
0.00167925
0.00168273
0.00168687
0.00169214
0.0016983
0.00170327
0.00170606
0.00171546
0.00172227
0.00172497
0.00172554
0.00172505
0.00172356
0.00172164
0.00172047
0.00172147
0.00172525
0.0017304
0.00173413
0.00173465
0.00173354
0.00173455
0.00174065
0.00174943
0.00175452
0.00175278
0.00174908
0.00175007
0.00175557
0.00175876
0.00175414
0.00174892
0.00174854
0.00175192
0.00174354
0.0017358
0.00173271
0.00175296
0.00176168
0.00182277
0.00188934
0.00203089
0.00186904
0.115552
0.116031
0.119118
0.121537
0.118844
0.113586
0.11138
0.116192
0.128599
0.149201
0.178272
0.214215
0.253199
0.291648
0.328863
0.365409
0.402058
0.437055
0.45822
0.453563
0.423146
0.372743
0.313078
0.260038
0.220282
0.191109
0.16924
0.152351
0.139044
0.128791
0.121521
0.116917
0.114669
0.113134
0.111224
0.108311
0.104191
0.0993207
0.0936269
0.088016
0.0839307
0.0820456
0.0821439
0.0828312
0.0820797
0.0790886
0.0744476
0.0699126
0.0672218
0.0668192
0.067374
0.0672106
0.0654377
0.0621448
0.0582898
0.0549926
0.0527696
0.0514462
0.0508375
0.0512534
0.0532193
0.0564741
0.0599635
0.0628346
0.0651544
0.0682289
0.0725038
0.0764438
0.0789161
0.0809134
0.0838855
0.0883953
0.0949775
0.104969
0.118497
0.134414
0.151018
0.169561
0.192297
0.221915
0.259539
0.303568
0.354742
0.417863
0.492775
0.574498
0.648352
0.722102
0.759334
0.760776
0.701914
0.599355
0.514369
0.435536
0.347426
0.272839
0.217083
0.17886
0.161594
0.164153
0.180032
0.206696
0.244158
0.265194
0.260318
0.246559
0.232198
0.215609
0.198764
0.186031
0.166356
0.135617
0.100296
0.0691908
0.0448727
0.0287742
0.0163538
0.011209
0.00913197
0.00867266
0.00899684
0.00910307
0.00880908
0.00882246
0.00914664
0.0099648
0.00965614
0.00797472
0.00682768
0.00588418
0.00518302
0.00461215
0.00417877
0.00382115
0.00359663
0.00348724
0.00342343
0.00341386
0.00343847
0.00345488
0.00345744
0.00346278
0.00347191
0.00349477
0.00352438
0.00354932
0.00357005
0.00359266
0.00361479
0.00364163
0.00367279
0.00370318
0.00373224
0.00375885
0.00378392
0.00381309
0.00384321
0.00387052
0.00389903
0.00393035
0.00396024
0.00398209
0.00399581
0.00400897
0.00402506
0.00403939
0.00404695
0.00405253
0.00405953
0.00405948
0.00404583
0.00402755
0.00401806
0.00401342
0.0039973
0.00396421
0.00392312
0.00388483
0.00385231
0.00381728
0.00377386
0.00372666
0.00367846
0.00361998
0.00354976
0.00347653
0.00340903
0.00335078
0.003296
0.00323722
0.00317188
0.00310036
0.00302838
0.00296078
0.00289892
0.00284234
0.00278539
0.00272213
0.0026562
0.00259644
0.00254633
0.00250014
0.00245027
0.00239629
0.0023423
0.00229231
0.00224702
0.00220352
0.00216025
0.00211796
0.00207845
0.00204184
0.00200455
0.00196427
0.00192436
0.00188834
0.00185752
0.00182994
0.00180243
0.00177264
0.00174196
0.0017136
0.00168811
0.00166516
0.00164416
0.00162432
0.00160543
0.00158678
0.00156846
0.00155181
0.0015373
0.00152427
0.00151192
0.00149906
0.00148692
0.00147798
0.00147165
0.00146575
0.00145906
0.00145178
0.00144592
0.00144195
0.00143873
0.00143538
0.00143193
0.00142889
0.00142663
0.00142421
0.00142158
0.0014198
0.00141886
0.0014178
0.00141548
0.0014124
0.00141004
0.00140901
0.00140806
0.00140629
0.00140391
0.00140063
0.00139703
0.00139394
0.00139126
0.00138878
0.00138714
0.00138558
0.00138257
0.00137777
0.0013733
0.00137024
0.00136799
0.00136521
0.00136192
0.00135888
0.00135629
0.00135399
0.0013513
0.00134815
0.0013449
0.00134227
0.00134083
0.00133952
0.00133775
0.00133534
0.00133258
0.00133048
0.00132887
0.00132749
0.00132651
0.00132538
0.00132357
0.0013216
0.00132002
0.0013185
0.00131715
0.00131596
0.00131432
0.00131271
0.00131094
0.00130869
0.00130642
0.00130425
0.00130185
0.00129932
0.00129653
0.00129352
0.00129014
0.00128649
0.00128281
0.00127919
0.00127528
0.00127094
0.00126644
0.00126164
0.00125682
0.00125196
0.0012467
0.00124137
0.00123618
0.00123069
0.00122506
0.00121951
0.00121385
0.00120811
0.00120252
0.00119683
0.00119103
0.00118556
0.00118023
0.0011748
0.00116947
0.00116435
0.00115936
0.00115441
0.00114954
0.00114483
0.00114043
0.00113621
0.00113207
0.00112811
0.00112439
0.00112078
0.00111738
0.00111429
0.00111138
0.00110857
0.00110602
0.00110375
0.00110168
0.00109978
0.00109804
0.00109652
0.00109527
0.0010943
0.0010935
0.00109274
0.00109214
0.00109176
0.00109153
0.00109149
0.00109159
0.00109164
0.00109172
0.00109196
0.0010923
0.00109261
0.00109278
0.00109296
0.00109327
0.00109361
0.00109382
0.00109394
0.00109399
0.0010941
0.00109423
0.00109431
0.00109421
0.00109405
0.0010939
0.00109379
0.00109356
0.00109319
0.00109278
0.00109239
0.00109195
0.00109142
0.00109088
0.0010903
0.00108967
0.00108897
0.00108823
0.00108748
0.00108676
0.00108602
0.00108522
0.0010844
0.00108354
0.00108269
0.00108185
0.00108104
0.00108016
0.00107922
0.00107833
0.00107731
0.00107626
0.00107572
0.00107473
0.00107397
0.00107287
0.00107105
0.00106978
0.00106937
0.00107015
0.00107147
0.00107436
0.00107996
0.00108893
0.00109648
0.00111265
0.00111561
0.00119259
0.00122829
0.00116884
0.0011314
0.00111168
0.00111101
0.00109251
0.00109131
0.00107394
0.00106552
0.00106562
0.00107393
0.00107669
0.00109297
0.00110009
0.00110502
0.00111332
0.00113379
0.00117533
0.00119692
0.00115067
0.00112405
0.00110703
0.00110271
0.00108253
0.0010808
0.00107371
0.00107075
0.00107533
0.00106991
0.00106394
0.00105915
0.00111734
0.00112311
0.001102
0.00119746
0.00127023
0.00149718
0.00168196
0.00218354
0.00239815
0.0021203
0.00185202
0.00166428
0.00155363
0.0014536
0.00138533
0.00131258
0.00125775
0.00124604
0.00124057
0.00122086
0.00119236
0.00116469
0.00114136
0.00112252
0.00110751
0.00109524
0.00108549
0.00107772
0.00107121
0.00106597
0.00106187
0.00105879
0.00105637
0.00105449
0.00105313
0.00105213
0.00105146
0.00105118
0.0010513
0.00105148
0.00105172
0.00105207
0.00105245
0.00105279
0.00105313
0.00105356
0.00105402
0.00105448
0.00105497
0.00105558
0.00105624
0.00105683
0.00105728
0.00105765
0.00105803
0.0010584
0.00105881
0.00105929
0.00105978
0.00106026
0.00106073
0.00106119
0.00106144
0.00106166
0.00106193
0.0010622
0.00106241
0.0010625
0.0010625
0.0010625
0.00106261
0.00106287
0.00106321
0.00106352
0.00106375
0.00106394
0.00106414
0.00106431
0.00106441
0.00106449
0.00106464
0.00106484
0.00106493
0.0010648
0.00106468
0.00106482
0.00106506
0.00106506
0.00106496
0.00106511
0.0010656
0.00106434
0.00107101
0.00107396
0.0011225
0.00118029
0.00129428
0.00123618
0.0654415
0.0688374
0.0734948
0.0748581
0.0723604
0.0678643
0.0651253
0.0661878
0.071351
0.0791814
0.0883666
0.0977142
0.105636
0.11216
0.117817
0.123411
0.12998
0.136568
0.140542
0.140009
0.134169
0.123223
0.110075
0.0986279
0.0898299
0.0831047
0.0774242
0.0722757
0.0676077
0.0637216
0.0609786
0.0595031
0.0593914
0.0598385
0.0595974
0.0581105
0.0554798
0.0520793
0.0484567
0.0452452
0.0428856
0.0416238
0.0413292
0.0413368
0.0406153
0.0385977
0.0359001
0.0336649
0.0326497
0.0329067
0.033802
0.0341971
0.0333407
0.031285
0.0287079
0.0265908
0.0254406
0.024957
0.0248431
0.0252147
0.0261886
0.0274473
0.0285768
0.0296191
0.0311668
0.033756
0.0368085
0.0391498
0.04015
0.0403594
0.0408567
0.0422393
0.044846
0.0495858
0.0564173
0.0644248
0.0724674
0.079657
0.0873619
0.0972794
0.111105
0.130764
0.159543
0.199154
0.247952
0.303891
0.361382
0.414328
0.45949
0.492443
0.501578
0.498029
0.470799
0.422133
0.358629
0.304313
0.254505
0.207446
0.169789
0.140253
0.11939
0.10865
0.106855
0.1082
0.10947
0.112322
0.112807
0.110963
0.109333
0.112218
0.115042
0.116775
0.117859
0.111938
0.0958759
0.0750396
0.0558128
0.038835
0.0253534
0.0142178
0.00907844
0.00637088
0.00491901
0.00455081
0.00445306
0.00437591
0.00466277
0.00526576
0.0062614
0.00654282
0.00575447
0.00513939
0.00455028
0.00405384
0.00354358
0.00323833
0.00298515
0.00275361
0.00257534
0.00242733
0.00233202
0.00228374
0.00225381
0.00223447
0.00222528
0.00221695
0.00221152
0.00220829
0.00220659
0.0022102
0.00221862
0.00222564
0.00223004
0.0022318
0.0022354
0.00224322
0.00225234
0.0022602
0.00226494
0.00226876
0.00227543
0.0022819
0.00228375
0.00228306
0.00228505
0.00228804
0.00228728
0.00228406
0.00228172
0.00227894
0.00227369
0.00226669
0.00225992
0.00225453
0.00224729
0.0022359
0.00222349
0.0022119
0.00220097
0.00218866
0.00217319
0.0021567
0.00214115
0.00212498
0.00210786
0.00208952
0.00207048
0.00205071
0.00203106
0.00201246
0.00199375
0.00197527
0.00195645
0.00193623
0.00191565
0.00189626
0.00187838
0.00186045
0.00184203
0.00182323
0.0018049
0.00178808
0.00177184
0.00175494
0.00173686
0.0017185
0.00170143
0.00168581
0.00167102
0.0016556
0.00163877
0.00162181
0.00160626
0.00159205
0.00157816
0.00156377
0.00154862
0.00153327
0.00151896
0.00150629
0.00149461
0.00148261
0.00146966
0.00145618
0.00144371
0.00143287
0.00142317
0.00141414
0.00140525
0.00139606
0.00138645
0.00137706
0.0013692
0.00136263
0.0013565
0.0013504
0.00134464
0.0013392
0.00133371
0.00132912
0.00132574
0.00132283
0.00131971
0.00131626
0.00131256
0.0013091
0.00130646
0.00130494
0.00130401
0.0013028
0.00130069
0.00129841
0.00129662
0.00129493
0.00129333
0.00129208
0.00129101
0.00128948
0.00128778
0.00128708
0.00128623
0.00128482
0.00128338
0.00128134
0.00127941
0.00127846
0.00127806
0.00127737
0.00127592
0.00127428
0.00127268
0.00127128
0.00127052
0.00126966
0.00126836
0.0012675
0.00126714
0.00126658
0.0012654
0.00126399
0.00126336
0.00126336
0.00126333
0.00126284
0.00126192
0.00126118
0.00126117
0.00126137
0.00126103
0.00126058
0.00126024
0.00125997
0.00125989
0.0012598
0.0012594
0.00125886
0.00125816
0.00125762
0.00125733
0.00125666
0.00125546
0.00125418
0.00125292
0.00125183
0.00125042
0.0012485
0.00124642
0.00124421
0.00124186
0.00123928
0.00123654
0.00123343
0.00123025
0.00122705
0.00122339
0.00121933
0.00121519
0.00121119
0.0012072
0.00120278
0.00119801
0.00119312
0.00118832
0.00118364
0.00117898
0.00117397
0.00116876
0.00116381
0.00115903
0.00115426
0.00114947
0.00114476
0.00114024
0.00113587
0.00113157
0.00112732
0.00112329
0.00111944
0.00111567
0.00111214
0.00110889
0.00110571
0.00110262
0.00109981
0.00109719
0.00109469
0.00109238
0.00109028
0.00108833
0.00108651
0.00108488
0.00108347
0.00108221
0.00108111
0.00108017
0.00107932
0.00107864
0.00107809
0.00107757
0.00107718
0.00107693
0.00107671
0.00107654
0.00107646
0.00107644
0.00107643
0.0010764
0.00107637
0.00107637
0.00107636
0.00107638
0.00107632
0.00107624
0.00107615
0.00107609
0.00107597
0.00107582
0.00107558
0.00107537
0.00107509
0.00107481
0.0010744
0.00107404
0.00107362
0.00107321
0.0010727
0.0010722
0.00107171
0.00107113
0.00107055
0.0010699
0.0010693
0.00106869
0.00106804
0.00106738
0.00106671
0.00106605
0.00106534
0.00106471
0.001064
0.00106329
0.00106246
0.00106184
0.00106112
0.00106091
0.00106039
0.00105929
0.00105805
0.00106142
0.00106232
0.00106129
0.00106256
0.00106839
0.00107824
0.00108643
0.00110185
0.00110792
0.00118852
0.00122898
0.00116844
0.00112889
0.00110677
0.00110381
0.00108267
0.00107818
0.00105983
0.00105366
0.0010505
0.00106009
0.00106913
0.00108624
0.00109482
0.00111063
0.00111498
0.00117597
0.00120051
0.00117158
0.00113509
0.00110821
0.00109994
0.00109618
0.00107469
0.00107132
0.00106264
0.00105753
0.00106268
0.00105979
0.00104861
0.00104762
0.00110945
0.00112917
0.00120389
0.00125249
0.00140999
0.00159734
0.00184792
0.00229854
0.00249688
0.00221762
0.00193309
0.0017186
0.00157697
0.00143538
0.00132778
0.00123505
0.00115661
0.00112571
0.00112733
0.00113432
0.00113708
0.00113596
0.00113094
0.00112303
0.00111385
0.00110439
0.00109524
0.00108672
0.00107891
0.00107214
0.00106647
0.0010614
0.00105698
0.0010533
0.00105031
0.00104787
0.00104588
0.00104428
0.00104298
0.00104199
0.00104142
0.00104106
0.00104068
0.00104039
0.00104024
0.00104019
0.00104018
0.00104031
0.00104055
0.00104077
0.00104101
0.00104132
0.00104169
0.00104208
0.00104244
0.00104275
0.00104302
0.00104327
0.0010435
0.00104376
0.00104404
0.00104432
0.00104455
0.00104476
0.00104493
0.00104505
0.00104518
0.00104534
0.00104552
0.00104567
0.00104574
0.00104578
0.00104583
0.00104595
0.00104612
0.00104629
0.00104641
0.00104648
0.00104653
0.00104656
0.00104655
0.00104655
0.00104665
0.00104679
0.00104676
0.00104654
0.00104645
0.00104674
0.00104708
0.00104697
0.00104672
0.00104699
0.00104737
0.00104743
0.00104596
0.00105298
0.00105585
0.00110418
0.00116201
0.00127551
0.00122068
0.0435859
0.0456995
0.0492602
0.0499372
0.0480524
0.04517
0.0435344
0.0440396
0.0465025
0.0499108
0.053043
0.0551439
0.0562927
0.0569983
0.0574137
0.0577321
0.0580242
0.0583221
0.0585728
0.0582095
0.0567347
0.0542485
0.051375
0.0488999
0.0468711
0.0452393
0.0436122
0.041713
0.0395716
0.0373957
0.0355393
0.0343191
0.0339002
0.0340443
0.0342306
0.0339534
0.0328857
0.0311281
0.0291175
0.0273494
0.0262192
0.0258725
0.0260379
0.0260863
0.0254575
0.0240155
0.0221896
0.0207419
0.0201995
0.0205162
0.0212465
0.0218534
0.0218956
0.0210589
0.0194781
0.0178952
0.0169658
0.016664
0.0168019
0.0173652
0.0181353
0.0187436
0.0190552
0.0193611
0.0201192
0.0215573
0.0233016
0.0246934
0.0252533
0.0248878
0.0241439
0.0238149
0.0244681
0.0265094
0.0300232
0.0345855
0.0394311
0.0432918
0.0462158
0.0493643
0.0541304
0.061343
0.0722855
0.0882223
0.109691
0.137367
0.172217
0.211536
0.249412
0.279308
0.300431
0.314015
0.319839
0.312681
0.302444
0.281723
0.251878
0.217994
0.187925
0.159148
0.13341
0.112393
0.0940824
0.0795138
0.0685676
0.0607245
0.054357
0.0492388
0.0465409
0.0496851
0.0555668
0.0629176
0.0708921
0.0773249
0.0818006
0.0847737
0.0824665
0.0731763
0.0600822
0.047509
0.0357427
0.0244777
0.014267
0.00926707
0.006435
0.00474801
0.00422809
0.00400885
0.00391945
0.00422452
0.00488825
0.0059999
0.00648747
0.00598081
0.00535661
0.00482878
0.00436778
0.00395544
0.00353974
0.0031755
0.00283663
0.00257742
0.00237892
0.00225481
0.0021947
0.00215751
0.00212873
0.0021058
0.00208645
0.0020806
0.00208408
0.00208541
0.0020829
0.00207979
0.00208018
0.00208645
0.00209256
0.00209735
0.00209758
0.00209559
0.00209645
0.00209928
0.00210098
0.00210023
0.00209975
0.00209751
0.0020923
0.00208728
0.00208408