/*--------------------------------*- C++ -*----------------------------------*\
| =========                 |                                                 |
| \\      /  F ield         | OpenFOAM: The Open Source CFD Toolbox           |
|  \\    /   O peration     | Version:  v2006                                 |
|   \\  /    A nd           | Website:  www.openfoam.com                      |
|    \\/     M anipulation  |                                                 |
\*---------------------------------------------------------------------------*/
FoamFile
{
    version     2.0;
    format      ascii;
    class       volScalarField;
    location    "5.8";
    object      p;
}
// * * * * * * * * * * * * * * * * * * * * * * * * * * * * * * * * * * * * * //

dimensions      [1 -1 -2 0 0 0 0];


internalField   nonuniform List<scalar> 
33000
(
7203.97
7194.21
7189.76
7185.49
7181.28
7177.24
7173.22
7169.09
7164.92
7160.81
7156.77
7152.71
7148.64
7144.61
7140.77
7137.27
7134.15
7131.62
7129.92
7128.59
7127.46
7126.29
7124.47
7122.39
7120.98
7119.52
7118.24
7117.21
7116.35
7115.67
7115.2
7114.86
7114.69
7114.7
7114.89
7115.27
7115.81
7116.51
7117.4
7118.45
7119.62
7120.98
7122.45
7124.06
7125.83
7127.77
7129.9
7132.14
7134.52
7137.03
7139.65
7142.39
7145.27
7148.33
7151.53
7154.84
7158.25
7161.76
7165.38
7169.09
7172.86
7176.72
7180.67
7184.74
7188.9
7193.13
7197.4
7201.72
7206.14
7210.64
7215.2
7219.79
7224.37
7228.92
7233.41
7237.84
7242.09
7244.98
7245.97
7252.26
7259.44
7263.91
7268.99
7274.93
7280.21
7286.06
7292.52
7298.51
7304.72
7310.57
7316.94
7323.06
7329.19
7335.32
7341.12
7347.11
7351.97
7357.78
7360.31
7366.19
7377.3
7384.36
7393.16
7402.12
7410.38
7419.72
7429.5
7439.08
7449.04
7458.68
7468.57
7478.3
7488
7497.94
7507.07
7517.03
7524.17
7534.29
7548.39
7559.4
7571.57
7583.95
7596.06
7608.9
7622.27
7635.44
7648.95
7662.57
7676.24
7690.08
7704.05
7718.03
7732.11
7746.19
7760.28
7774.37
7788.45
7802.53
7816.54
7830.53
7844.45
7858.32
7872.09
7885.77
7899.33
7912.8
7926.13
7939.34
7952.39
7965.27
7977.97
7990.48
8002.8
8014.94
8026.85
8038.52
8049.96
8061.15
8072.1
8082.79
8093.22
8103.38
8113.27
8122.87
8132.2
8141.24
8150
8158.49
8166.68
8174.59
8182.22
8189.59
8196.69
8203.52
8210.07
8216.38
8222.45
8228.29
8233.88
8239.26
8244.42
8249.39
8254.15
8258.74
8263.17
8267.44
8271.56
8275.54
8279.39
8283.11
8286.66
8290.06
8293.28
8296.3
8299.12
8301.73
8304.11
8306.27
8308.2
8309.87
8311.28
8312.43
8313.31
8313.92
8314.25
8314.3
8314.06
8313.52
8312.69
8311.57
8310.15
8308.44
8306.42
8304.12
8301.52
8298.64
8295.46
8291.99
8288.24
8284.22
8279.93
8275.39
8270.58
8265.52
8260.21
8254.67
8248.91
8242.94
8236.76
8230.38
8223.81
8217.06
8210.15
8203.09
8195.89
8188.56
8181.1
8173.53
8165.87
8158.12
8150.29
8142.4
8134.46
8126.48
8118.47
8110.44
8102.39
8094.34
8086.3
8078.28
8070.29
8062.33
8054.41
8046.54
8038.74
8031
8023.33
8015.74
8008.23
8000.81
7993.49
7986.27
7979.15
7972.14
7965.23
7958.44
7951.78
7945.23
7938.81
7932.51
7926.34
7920.29
7914.37
7908.59
7902.94
7897.42
7892.04
7886.78
7881.66
7876.68
7871.82
7867.1
7862.51
7858.05
7853.72
7849.52
7845.45
7841.5
7837.68
7833.98
7830.41
7826.95
7823.62
7820.4
7817.29
7814.3
7811.41
7808.64
7805.97
7803.41
7800.95
7798.58
7796.32
7794.14
7792.06
7790.07
7788.17
7786.35
7784.61
7782.96
7781.38
7779.88
7778.45
7777.1
7775.82
7774.6
7773.45
7772.37
7771.34
7770.38
7769.48
7768.63
7767.84
7767.1
7766.42
7765.78
7765.2
7764.67
7764.18
7763.74
7763.34
7762.99
7762.68
7762.41
7762.18
7762
7761.86
7761.75
7761.69
7761.67
7761.69
7761.75
7761.86
7762
7762.18
7762.4
7762.66
7762.96
7763.3
7763.67
7764.08
7764.52
7765
7765.51
7766.05
7766.63
7767.24
7767.87
7768.53
7769.22
7769.94
7770.67
7771.44
7772.22
7773.02
7773.84
7774.68
7775.53
7776.4
7777.28
7778.18
7779.08
7779.99
7780.92
7781.84
7782.78
7783.71
7784.65
7785.59
7786.54
7787.48
7788.42
7789.36
7790.29
7791.23
7792.15
7793.07
7793.99
7794.9
7795.8
7796.69
7797.57
7798.44
7799.31
7800.16
7801
7801.84
7802.65
7803.46
7804.25
7805.03
7805.79
7806.54
7807.26
7807.98
7808.68
7809.36
7810.02
7810.67
7811.3
7811.91
7812.5
7813.07
7813.63
7814.17
7814.69
7815.19
7815.68
7816.14
7816.6
7817.03
7817.44
7817.84
7818.22
7818.59
7818.95
7819.28
7819.61
7819.93
7820.19
7820.48
7820.81
7821.07
7821.34
7821.57
7821.8
7822.01
7822.2
7822.39
7822.55
7822.71
7822.84
7822.98
7823.12
7823.24
7823.34
7823.48
7823.49
7823.62
7823.8
7823.9
7824.02
7824.09
7824.17
7824.21
7824.27
7824.29
7824.32
7824.34
7824.34
7824.35
7824.32
7824.31
7824.31
7824.29
7824.23
7824.27
7824.1
7824.08
7824.16
7824.13
7824.06
7823.99
7823.92
7823.84
7823.76
7823.68
7823.6
7823.51
7823.42
7823.32
7823.22
7823.12
7823.02
7822.91
7822.8
7822.68
7822.56
7822.44
7822.32
7822.19
7822.05
7821.92
7821.78
7821.64
7821.49
7821.35
7821.19
7821.04
7820.88
7820.72
7820.56
7820.39
7820.22
7820.05
7819.87
7819.69
7819.51
7819.32
7819.14
7818.94
7818.75
7818.55
7818.35
7818.15
7817.94
7817.73
7817.52
7817.3
7817.08
7816.86
7816.64
7816.41
7816.18
7815.95
7815.71
7815.47
7815.23
7814.99
7814.74
7814.49
7814.24
7813.98
7813.72
7813.46
7813.19
7812.93
7812.66
7812.38
7812.11
7811.83
7811.54
7811.26
7810.97
7810.68
7810.39
7810.09
7809.77
7809.56
7809
7005.68
6998.27
6993.32
6988.77
6984.55
6980.25
6976.08
6971.89
6967.69
6963.57
6959.59
6955.6
6951.57
6947.6
6943.72
6940.07
6936.96
6934.45
6932.17
6930.37
6929.36
6928.48
6927.16
6925.68
6924.13
6922.77
6921.6
6920.59
6919.78
6919.13
6918.62
6918.28
6918.15
6918.17
6918.36
6918.71
6919.28
6920.01
6920.89
6921.93
6923.09
6924.42
6925.92
6927.58
6929.34
6931.26
6933.39
6935.61
6937.98
6940.5
6943.16
6945.92
6948.8
6951.85
6955.04
6958.34
6961.76
6965.28
6968.91
6972.62
6976.42
6980.31
6984.32
6988.42
6992.57
6996.79
7001.06
7005.4
7009.82
7014.3
7018.84
7023.42
7028
7032.54
7037.04
7041.46
7045.67
7049.54
7053.86
7058.52
7061.38
7062.5
7070.67
7079.4
7085.31
7090.52
7096.48
7102.18
7107.91
7114.2
7120.56
7127.02
7133.14
7139.73
7145.71
7152.05
7157.86
7163.95
7169.7
7175.19
7181.92
7184.92
7192.53
7205.65
7214.62
7224.88
7233.8
7243.14
7252.04
7261.6
7271.89
7281.9
7291.99
7302.03
7311.79
7321.77
7331.59
7341.34
7352.64
7360.18
7372.04
7387.64
7400.11
7413.13
7426.01
7438.73
7452.11
7466.12
7479.83
7493.78
7507.68
7521.65
7535.71
7549.89
7564.01
7578.16
7592.23
7606.32
7620.32
7634.32
7648.25
7662.13
7675.92
7689.62
7703.21
7716.69
7730.04
7743.25
7756.31
7769.2
7781.91
7794.44
7806.78
7818.92
7830.83
7842.51
7853.95
7865.16
7876.13
7886.82
7897.25
7907.41
7917.29
7926.91
7936.24
7945.28
7954.05
7962.53
7970.74
7978.65
7986.29
7993.65
8000.75
8007.58
8014.14
8020.46
8026.53
8032.36
8037.96
8043.34
8048.51
8053.48
8058.25
8062.84
8067.27
8071.54
8075.67
8079.66
8083.52
8087.24
8090.8
8094.2
8097.43
8100.47
8103.3
8105.92
8108.31
8110.48
8112.4
8114.08
8115.5
8116.66
8117.55
8118.16
8118.5
8118.55
8118.31
8117.77
8116.95
8115.83
8114.41
8112.69
8110.68
8108.37
8105.77
8102.88
8099.7
8096.23
8092.48
8088.45
8084.15
8079.6
8074.78
8069.71
8064.4
8058.85
8053.08
8047.09
8040.89
8034.5
8027.92
8021.17
8014.24
8007.17
7999.96
7992.61
7985.13
7977.55
7969.87
7962.1
7954.27
7946.37
7938.41
7930.41
7922.38
7914.33
7906.27
7898.21
7890.16
7882.13
7874.12
7866.15
7858.22
7850.35
7842.53
7834.78
7827.1
7819.5
7811.98
7804.56
7797.23
7790
7782.87
7775.85
7768.94
7762.15
7755.47
7748.92
7742.49
7736.19
7730.01
7723.96
7718.04
7712.25
7706.6
7701.07
7695.68
7690.43
7685.31
7680.32
7675.46
7670.73
7666.14
7661.68
7657.35
7653.15
7649.08
7645.13
7641.31
7637.61
7634.03
7630.58
7627.24
7624.02
7620.92
7617.93
7615.04
7612.27
7609.6
7607.04
7604.58
7602.22
7599.95
7597.78
7595.7
7593.71
7591.81
7589.99
7588.26
7586.61
7585.03
7583.53
7582.11
7580.76
7579.47
7578.26
7577.11
7576.03
7575.01
7574.05
7573.15
7572.3
7571.51
7570.78
7570.1
7569.47
7568.89
7568.35
7567.87
7567.43
7567.03
7566.68
7566.37
7566.11
7565.88
7565.7
7565.56
7565.45
7565.39
7565.37
7565.4
7565.46
7565.56
7565.71
7565.89
7566.11
7566.37
7566.67
7567.01
7567.38
7567.8
7568.24
7568.72
7569.23
7569.78
7570.36
7570.97
7571.6
7572.27
7572.96
7573.68
7574.42
7575.18
7575.97
7576.77
7577.6
7578.44
7579.29
7580.17
7581.05
7581.95
7582.85
7583.77
7584.69
7585.62
7586.56
7587.5
7588.44
7589.39
7590.33
7591.28
7592.22
7593.16
7594.1
7595.03
7595.96
7596.89
7597.8
7598.71
7599.61
7600.51
7601.39
7602.27
7603.13
7603.99
7604.83
7605.66
7606.48
7607.29
7608.08
7608.86
7609.62
7610.37
7611.1
7611.82
7612.51
7613.19
7613.86
7614.5
7615.14
7615.74
7616.34
7616.91
7617.47
7618.01
7618.53
7619.03
7619.52
7619.98
7620.43
7620.86
7621.28
7621.68
7622.07
7622.44
7622.79
7623.08
7623.4
7623.77
7624.06
7624.36
7624.66
7624.91
7625.18
7625.4
7625.65
7625.83
7626.04
7626.2
7626.37
7626.54
7626.68
7626.82
7626.94
7626.97
7627.07
7627.31
7627.39
7627.56
7627.66
7627.76
7627.86
7627.92
7628
7628.04
7628.1
7628.11
7628.16
7628.14
7628.16
7628.16
7628.17
7628.14
7628.17
7627.97
7627.95
7628.06
7628.06
7627.99
7627.95
7627.91
7627.86
7627.79
7627.72
7627.65
7627.57
7627.49
7627.41
7627.32
7627.23
7627.13
7627.03
7626.93
7626.83
7626.72
7626.6
7626.49
7626.37
7626.25
7626.12
7625.99
7625.86
7625.73
7625.59
7625.45
7625.3
7625.15
7625
7624.85
7624.69
7624.53
7624.37
7624.2
7624.03
7623.85
7623.68
7623.5
7623.32
7623.13
7622.94
7622.75
7622.56
7622.36
7622.16
7621.95
7621.75
7621.54
7621.33
7621.11
7620.89
7620.67
7620.45
7620.22
7619.99
7619.76
7619.52
7619.28
7619.04
7618.8
7618.55
7618.3
7618.04
7617.79
7617.53
7617.27
7617
7616.73
7616.46
7616.19
7615.91
7615.63
7615.35
7615.07
7614.78
7614.49
7614.19
7613.9
7613.58
7613.36
7612.81
6807.74
6801.7
6796.95
6792.21
6787.8
6783.31
6778.88
6774.61
6770.44
6766.37
6762.4
6758.51
6754.68
6750.98
6747.44
6744.07
6741
6738.54
6736.51
6734.71
6733.04
6731.48
6729.93
6728.46
6726.94
6725.62
6724.49
6723.53
6722.73
6722.06
6721.57
6721.29
6721.17
6721.22
6721.41
6721.8
6722.35
6723.08
6723.95
6724.98
6726.17
6727.5
6729.03
6730.7
6732.49
6734.42
6736.52
6738.76
6741.11
6743.64
6746.32
6749.11
6752.02
6755.06
6758.24
6761.54
6764.97
6768.51
6772.16
6775.9
6779.74
6783.69
6787.74
6791.86
6796.03
6800.26
6804.55
6808.93
6813.35
6817.83
6822.37
6826.95
6831.55
6836.12
6840.69
6845.18
6849.57
6853.96
6858.49
6863.16
6867.64
6872.65
6877.71
6880.83
6882.24
6890.48
6900
6906.29
6912.65
6918.22
6924.89
6930.53
6937.38
6943.81
6950.46
6956.7
6963.08
6969.52
6975.79
6982.52
6989.62
6996.8
7003.47
7010.54
7014.39
7022.5
7036.4
7046.28
7057.43
7066.58
7076.53
7085.49
7095.32
7105.71
7115.74
7126.18
7136.48
7147.07
7158.35
7169.59
7180.29
7192.11
7200.43
7212.94
7229.53
7242.71
7256.4
7269.81
7283.04
7296.86
7311.3
7325.32
7339.55
7353.6
7367.72
7381.74
7395.83
7409.97
7424.01
7438.05
7452.01
7465.91
7479.74
7493.48
7507.11
7520.62
7534
7547.24
7560.31
7573.22
7585.97
7598.53
7610.9
7623.05
7634.98
7646.67
7658.14
7669.36
7680.35
7691.06
7701.5
7711.67
7721.56
7731.18
7740.52
7749.58
7758.35
7766.84
7775.05
7782.97
7790.62
7797.98
7805.09
7811.93
7818.5
7824.82
7830.89
7836.73
7842.34
7847.73
7852.91
7857.89
7862.67
7867.28
7871.72
7876
7880.14
7884.14
7888.01
7891.74
7895.31
7898.72
7901.96
7905.01
7907.86
7910.5
7912.91
7915.09
7917.03
7918.72
7920.15
7921.32
7922.22
7922.84
7923.19
7923.24
7923
7922.48
7921.66
7920.54
7919.12
7917.4
7915.39
7913.08
7910.47
7907.57
7904.38
7900.9
7897.14
7893.1
7888.79
7884.22
7879.38
7874.29
7868.96
7863.4
7857.6
7851.59
7845.37
7838.95
7832.34
7825.56
7818.62
7811.51
7804.27
7796.89
7789.39
7781.77
7774.06
7766.27
7758.41
7750.48
7742.49
7734.46
7726.4
7718.33
7710.24
7702.16
7694.08
7686.02
7677.99
7669.99
7662.05
7654.15
7646.31
7638.54
7630.84
7623.22
7615.68
7608.24
7600.9
7593.65
7586.51
7579.47
7572.55
7565.74
7559.06
7552.49
7546.05
7539.74
7533.55
7527.49
7521.56
7515.77
7510.11
7504.58
7499.18
7493.92
7488.79
7483.8
7478.93
7474.21
7469.61
7465.15
7460.81
7456.61
7452.53
7448.58
7444.76
7441.06
7437.49
7434.03
7430.69
7427.48
7424.37
7421.38
7418.5
7415.73
7413.06
7410.5
7408.04
7405.68
7403.42
7401.25
7399.18
7397.19
7395.29
7393.48
7391.75
7390.1
7388.53
7387.03
7385.61
7384.27
7382.99
7381.78
7380.64
7379.56
7378.54
7377.58
7376.69
7375.85
7375.06
7374.33
7373.66
7373.03
7372.45
7371.92
7371.44
7371
7370.61
7370.26
7369.96
7369.7
7369.47
7369.29
7369.15
7369.05
7368.99
7368.98
7369
7369.07
7369.17
7369.32
7369.51
7369.73
7370
7370.3
7370.64
7371.02
7371.43
7371.88
7372.36
7372.88
7373.43
7374.01
7374.63
7375.27
7375.94
7376.63
7377.36
7378.1
7378.87
7379.66
7380.47
7381.3
7382.15
7383.01
7383.89
7384.78
7385.69
7386.6
7387.52
7388.45
7389.39
7390.33
7391.27
7392.22
7393.17
7394.12
7395.07
7396.02
7396.97
7397.91
7398.85
7399.78
7400.71
7401.63
7402.54
7403.45
7404.35
7405.24
7406.12
7406.99
7407.84
7408.69
7409.52
7410.35
7411.16
7411.95
7412.73
7413.49
7414.24
7414.98
7415.69
7416.39
7417.08
7417.74
7418.39
7419.01
7419.63
7420.22
7420.79
7421.35
7421.89
7422.41
7422.91
7423.39
7423.85
7424.31
7424.74
7425.16
7425.56
7425.89
7426.26
7426.67
7427
7427.34
7427.64
7427.94
7428.23
7428.51
7428.77
7429.03
7429.25
7429.47
7429.7
7429.89
7430.1
7430.24
7430.41
7430.44
7430.59
7430.82
7430.95
7431.11
7431.23
7431.33
7431.45
7431.55
7431.65
7431.73
7431.81
7431.86
7431.9
7431.92
7431.95
7431.99
7432.02
7432
7432.07
7431.85
7431.86
7431.99
7432.01
7431.94
7431.89
7431.85
7431.8
7431.76
7431.71
7431.66
7431.6
7431.53
7431.46
7431.38
7431.3
7431.22
7431.13
7431.04
7430.95
7430.85
7430.75
7430.64
7430.53
7430.42
7430.3
7430.19
7430.06
7429.94
7429.81
7429.68
7429.54
7429.4
7429.26
7429.12
7428.97
7428.82
7428.66
7428.51
7428.34
7428.18
7428.01
7427.84
7427.67
7427.49
7427.31
7427.13
7426.95
7426.76
7426.57
7426.37
7426.17
7425.97
7425.77
7425.56
7425.35
7425.14
7424.93
7424.71
7424.49
7424.26
7424.03
7423.8
7423.57
7423.33
7423.1
7422.85
7422.61
7422.36
7422.11
7421.86
7421.6
7421.34
7421.08
7420.82
7420.55
7420.28
7420
7419.73
7419.45
7419.17
7418.88
7418.59
7418.3
7418.01
7417.71
7417.39
7417.18
7416.63
6610.43
6604.77
6600.2
6595.37
6590.62
6586.17
6581.67
6577.27
6573.05
6568.97
6565.02
6561.18
6557.44
6553.82
6550.43
6547.21
6544.24
6541.6
6539.28
6537.28
6535.54
6533.94
6532.33
6530.79
6529.34
6528.08
6526.97
6526.01
6525.23
6524.62
6524.16
6523.88
6523.77
6523.84
6524.06
6524.46
6525.01
6525.72
6526.58
6527.62
6528.84
6530.18
6531.7
6533.39
6535.21
6537.16
6539.25
6541.52
6543.88
6546.42
6549.12
6551.96
6554.89
6557.95
6561.12
6564.43
6567.87
6571.45
6575.12
6578.89
6582.78
6586.78
6590.88
6595.02
6599.22
6603.5
6607.86
6612.27
6616.73
6621.24
6625.81
6630.43
6635.08
6639.75
6644.42
6649.08
6653.69
6658.31
6663.01
6667.75
6672.54
6677.55
6682.85
6687.88
6693.54
6699.23
6704.44
6708.49
6710.99
6720.62
6729.46
6735.31
6741.95
6748.61
6754.66
6761.9
6768.41
6775.56
6782.23
6789.24
6796.26
6803.5
6811.07
6819.52
6827.5
6836.25
6842.83
6851.53
6855.21
6864.4
6878.47
6889.21
6900.03
6910.31
6919.99
6930.24
6941.16
6951.81
6963.16
6974.13
6985.79
6997.9
7010.04
7021.4
7033.9
7042.73
7055.85
7073.11
7086.75
7100.87
7114.69
7128.26
7142.4
7157.05
7171.26
7185.6
7199.61
7213.78
7227.73
7241.79
7255.8
7269.73
7283.6
7297.39
7311.06
7324.61
7338.03
7351.3
7364.42
7377.38
7390.16
7402.77
7415.16
7427.35
7439.3
7451.03
7462.53
7473.78
7484.77
7495.51
7505.98
7516.17
7526.07
7535.7
7545.06
7554.14
7562.92
7571.42
7579.64
7587.57
7595.23
7602.61
7609.72
7616.58
7623.17
7629.5
7635.58
7641.43
7647.06
7652.46
7657.66
7662.65
7667.46
7672.09
7676.55
7680.86
7685.02
7689.03
7692.91
7696.65
7700.23
7703.66
7706.91
7709.97
7712.84
7715.49
7717.93
7720.12
7722.08
7723.79
7725.24
7726.43
7727.34
7727.97
7728.32
7728.39
7728.17
7727.65
7726.83
7725.71
7724.29
7722.57
7720.56
7718.24
7715.62
7712.71
7709.5
7706.01
7702.23
7698.18
7693.85
7689.24
7684.38
7679.26
7673.91
7668.31
7662.49
7656.43
7650.17
7643.72
7637.07
7630.25
7623.27
7616.12
7608.83
7601.41
7593.86
7586.21
7578.46
7570.62
7562.71
7554.74
7546.71
7538.63
7530.53
7522.42
7514.29
7506.17
7498.06
7489.96
7481.89
7473.86
7465.87
7457.95
7450.08
7442.27
7434.54
7426.89
7419.33
7411.86
7404.49
7397.22
7390.06
7383
7376.06
7369.24
7362.53
7355.95
7349.49
7343.16
7336.95
7330.88
7324.95
7319.14
7313.47
7307.93
7302.52
7297.25
7292.11
7287.11
7282.24
7277.51
7272.91
7268.44
7264.1
7259.89
7255.82
7251.87
7248.04
7244.34
7240.76
7237.31
7233.97
7230.75
7227.65
7224.66
7221.78
7219.01
7216.35
7213.79
7211.33
7208.98
7206.72
7204.55
7202.48
7200.5
7198.61
7196.8
7195.08
7193.44
7191.87
7190.38
7188.97
7187.63
7186.36
7185.16
7184.02
7182.95
7181.94
7180.99
7180.1
7179.26
7178.49
7177.76
7177.09
7176.47
7175.9
7175.38
7174.9
7174.47
7174.08
7173.74
7173.43
7173.17
7172.95
7172.78
7172.64
7172.55
7172.49
7172.48
7172.51
7172.58
7172.69
7172.84
7173.03
7173.26
7173.53
7173.83
7174.18
7174.56
7174.98
7175.44
7175.93
7176.45
7177.01
7177.59
7178.21
7178.86
7179.54
7180.24
7180.97
7181.73
7182.51
7183.31
7184.13
7184.97
7185.82
7186.69
7187.58
7188.48
7189.39
7190.32
7191.25
7192.19
7193.13
7194.08
7195.04
7195.99
7196.95
7197.91
7198.87
7199.83
7200.78
7201.73
7202.68
7203.61
7204.55
7205.48
7206.4
7207.31
7208.21
7209.1
7209.99
7210.86
7211.72
7212.57
7213.41
7214.24
7215.05
7215.85
7216.63
7217.4
7218.15
7218.88
7219.6
7220.3
7220.98
7221.65
7222.3
7222.93
7223.54
7224.14
7224.71
7225.27
7225.8
7226.32
7226.83
7227.32
7227.79
7228.23
7228.62
7229.03
7229.48
7229.86
7230.24
7230.58
7230.92
7231.24
7231.56
7231.87
7232.15
7232.42
7232.67
7232.96
7233.16
7233.44
7233.59
7233.79
7233.86
7234.02
7234.3
7234.43
7234.63
7234.75
7234.89
7235
7235.14
7235.24
7235.37
7235.44
7235.55
7235.6
7235.66
7235.75
7235.78
7235.85
7235.84
7235.94
7235.71
7235.75
7235.9
7235.93
7235.87
7235.82
7235.78
7235.74
7235.71
7235.67
7235.63
7235.59
7235.54
7235.48
7235.42
7235.35
7235.28
7235.21
7235.13
7235.05
7234.96
7234.87
7234.77
7234.67
7234.57
7234.47
7234.36
7234.25
7234.13
7234.01
7233.89
7233.76
7233.64
7233.5
7233.37
7233.23
7233.09
7232.94
7232.79
7232.64
7232.49
7232.33
7232.17
7232
7231.84
7231.67
7231.49
7231.32
7231.14
7230.95
7230.77
7230.58
7230.39
7230.19
7230
7229.79
7229.59
7229.38
7229.17
7228.96
7228.75
7228.53
7228.31
7228.08
7227.86
7227.63
7227.39
7227.16
7226.92
7226.68
7226.43
7226.18
7225.93
7225.68
7225.42
7225.16
7224.9
7224.64
7224.37
7224.1
7223.83
7223.55
7223.27
7222.99
7222.7
7222.41
7222.12
7221.83
7221.54
7221.21
7221
7220.45
6413.11
6407.82
6403.32
6398.4
6393.37
6388.73
6384.15
6379.65
6375.32
6371.21
6367.28
6363.51
6359.9
6356.44
6353.05
6349.89
6346.99
6344.33
6341.9
6339.71
6337.74
6335.96
6334.29
6332.75
6331.33
6330.07
6328.99
6328.05
6327.28
6326.7
6326.26
6325.98
6325.92
6325.99
6326.24
6326.66
6327.22
6327.93
6328.81
6329.85
6331.06
6332.44
6333.98
6335.68
6337.51
6339.49
6341.6
6343.86
6346.27
6348.84
6351.57
6354.43
6357.4
6360.48
6363.68
6366.99
6370.45
6374.06
6377.77
6381.59
6385.53
6389.58
6393.7
6397.88
6402.13
6406.49
6410.92
6415.4
6419.91
6424.48
6429.11
6433.78
6438.49
6443.26
6448.05
6452.86
6457.71
6462.59
6467.48
6472.43
6477.47
6482.58
6487.79
6493.11
6498.68
6504.6
6510.46
6516.29
6522.21
6527.89
6532.1
6535.19
6545.18
6554.11
6560.48
6567.14
6574.2
6580.61
6588.31
6595.37
6603.02
6610.51
6618.16
6625.69
6633.68
6641.76
6651.08
6659.13
6668.67
6676.58
6684.93
6690.01
6698.57
6712.94
6724.18
6735.48
6746.39
6756.73
6767.75
6779.48
6790.89
6802.96
6814.67
6826.98
6839.88
6852.61
6864.59
6877.64
6886.98
6900.59
6918.56
6932.48
6947.11
6960.9
6974.92
6988.47
7002.59
7017.16
7031.3
7045.47
7059.52
7073.47
7087.38
7101.27
7115.01
7128.63
7142.11
7155.44
7168.61
7181.63
7194.48
7207.13
7219.57
7231.8
7243.81
7255.58
7267.12
7278.41
7289.43
7300.2
7310.69
7320.92
7330.85
7340.51
7349.88
7358.98
7367.78
7376.3
7384.54
7392.49
7400.17
7407.57
7414.7
7421.57
7428.18
7434.53
7440.64
7446.51
7452.16
7457.59
7462.82
7467.84
7472.68
7477.34
7481.83
7486.16
7490.34
7494.38
7498.27
7502.02
7505.62
7509.05
7512.32
7515.39
7518.27
7520.94
7523.4
7525.62
7527.59
7529.32
7530.79
7531.99
7532.92
7533.57
7533.94
7534.01
7533.8
7533.29
7532.47
7531.35
7529.93
7528.21
7526.2
7523.87
7521.24
7518.31
7515.08
7511.57
7507.77
7503.69
7499.33
7494.69
7489.79
7484.64
7479.24
7473.6
7467.73
7461.64
7455.33
7448.81
7442.12
7435.24
7428.2
7421
7413.65
7406.17
7398.57
7390.85
7383.04
7375.15
7367.18
7359.14
7351.06
7342.93
7334.78
7326.61
7318.43
7310.25
7302.08
7293.93
7285.82
7277.74
7269.71
7261.74
7253.82
7245.98
7238.21
7230.53
7222.93
7215.43
7208.02
7200.71
7193.52
7186.43
7179.47
7172.62
7165.89
7159.28
7152.8
7146.45
7140.23
7134.14
7128.18
7122.36
7116.67
7111.12
7105.7
7100.42
7095.27
7090.26
7085.39
7080.65
7076.04
7071.56
7067.22
7063.01
7058.93
7054.97
7051.14
7047.44
7043.86
7040.41
7037.07
7033.85
7030.75
7027.76
7024.89
7022.12
7019.46
7016.91
7014.45
7012.1
7009.85
7007.69
7005.63
7003.65
7001.77
6999.97
6998.25
6996.62
6995.06
6993.58
6992.18
6990.85
6989.58
6988.39
6987.26
6986.2
6985.2
6984.26
6983.38
6982.55
6981.78
6981.07
6980.4
6979.79
6979.23
6978.71
6978.24
6977.81
6977.43
6977.09
6976.8
6976.54
6976.33
6976.16
6976.03
6975.94
6975.89
6975.88
6975.91
6975.99
6976.1
6976.26
6976.46
6976.69
6976.97
6977.28
6977.63
6978.02
6978.45
6978.91
6979.41
6979.94
6980.5
6981.1
6981.73
6982.39
6983.08
6983.79
6984.53
6985.3
6986.09
6986.9
6987.73
6988.58
6989.45
6990.33
6991.23
6992.14
6993.07
6994
6994.95
6995.9
6996.86
6997.82
6998.79
6999.75
7000.72
7001.69
7002.66
7003.63
7004.59
7005.55
7006.51
7007.46
7008.4
7009.34
7010.27
7011.19
7012.1
7013
7013.89
7014.77
7015.64
7016.5
7017.34
7018.17
7018.99
7019.79
7020.57
7021.34
7022.1
7022.84
7023.56
7024.26
7024.95
7025.61
7026.27
7026.89
7027.51
7028.09
7028.67
7029.23
7029.77
7030.3
7030.79
7031.23
7031.69
7032.19
7032.61
7033.04
7033.42
7033.8
7034.17
7034.53
7034.87
7035.2
7035.49
7035.79
7036.09
7036.36
7036.62
7036.87
7036.99
7037.21
7037.53
7037.71
7037.95
7038.1
7038.29
7038.41
7038.57
7038.72
7038.85
7038.99
7039.1
7039.22
7039.29
7039.38
7039.5
7039.56
7039.67
7039.71
7039.73
7039.54
7039.6
7039.78
7039.82
7039.77
7039.73
7039.7
7039.66
7039.64
7039.62
7039.59
7039.55
7039.52
7039.47
7039.42
7039.37
7039.31
7039.25
7039.19
7039.12
7039.04
7038.96
7038.88
7038.79
7038.7
7038.61
7038.51
7038.41
7038.3
7038.19
7038.08
7037.96
7037.85
7037.72
7037.6
7037.47
7037.34
7037.2
7037.06
7036.92
7036.77
7036.63
7036.47
7036.32
7036.16
7036
7035.84
7035.67
7035.5
7035.32
7035.15
7034.97
7034.78
7034.6
7034.41
7034.22
7034.02
7033.83
7033.62
7033.42
7033.21
7033
7032.79
7032.58
7032.36
7032.14
7031.91
7031.68
7031.45
7031.22
7030.99
7030.75
7030.5
7030.26
7030.01
7029.76
7029.51
7029.25
7028.99
7028.73
7028.47
7028.2
7027.93
7027.65
7027.38
7027.1
7026.82
7026.53
7026.24
7025.95
7025.66
7025.36
7025.04
7024.83
7024.28
6215.7
6210.63
6205.83
6200.91
6195.8
6191.03
6186.36
6181.76
6177.33
6173.13
6169.13
6165.29
6161.72
6158.27
6154.97
6151.84
6148.92
6146.27
6143.81
6141.56
6139.52
6137.66
6135.92
6134.34
6132.92
6131.67
6130.59
6129.67
6128.93
6128.36
6127.93
6127.69
6127.62
6127.72
6128
6128.43
6129
6129.71
6130.6
6131.68
6132.9
6134.3
6135.87
6137.58
6139.43
6141.43
6143.58
6145.87
6148.28
6150.89
6153.66
6156.54
6159.54
6162.7
6165.96
6169.27
6172.72
6176.36
6180.13
6184.01
6188
6192.08
6196.24
6200.48
6204.8
6209.22
6213.72
6218.28
6222.89
6227.54
6232.23
6236.97
6241.78
6246.66
6251.59
6256.55
6261.58
6266.65
6271.74
6276.92
6282.18
6287.54
6293
6298.53
6304.15
6309.95
6315.77
6321.58
6327.61
6333.89
6340.02
6346.33
6352.37
6356.85
6360.33
6371.21
6380.28
6387.19
6394.27
6401.91
6408.75
6417.3
6424.88
6433.47
6441.49
6450.05
6457.96
6466.75
6474.75
6483.91
6492.91
6502.55
6511.09
6520.2
6525.81
6534.62
6549.63
6561.37
6573.49
6585.06
6596.18
6607.85
6620.19
6632.23
6644.94
6657.22
6670.07
6683.41
6696.59
6709
6722.47
6732.14
6746.28
6764.23
6778.75
6793.53
6806.99
6821.2
6834.66
6848.83
6863.28
6877.34
6891.35
6905.25
6919.01
6932.69
6946.28
6959.68
6972.93
6986.03
6998.93
7011.65
7024.15
7036.44
7048.51
7060.35
7071.93
7083.27
7094.33
7105.13
7115.67
7125.93
7135.91
7145.6
7155
7164.12
7172.95
7181.5
7189.77
7197.76
7205.46
7212.89
7220.04
7226.94
7233.58
7239.97
7246.12
7252.03
7257.71
7263.17
7268.43
7273.5
7278.38
7283.07
7287.6
7291.96
7296.17
7300.22
7304.14
7307.9
7311.51
7314.96
7318.23
7321.31
7324.2
7326.89
7329.36
7331.6
7333.6
7335.34
7336.83
7338.05
7339
7339.66
7340.05
7340.14
7339.93
7339.42
7338.61
7337.49
7336.07
7334.35
7332.32
7329.98
7327.33
7324.38
7321.13
7317.59
7313.76
7309.65
7305.24
7300.57
7295.62
7290.42
7284.97
7279.28
7273.35
7267.19
7260.82
7254.25
7247.48
7240.54
7233.42
7226.15
7218.73
7211.17
7203.5
7195.71
7187.83
7179.86
7171.81
7163.71
7155.55
7147.35
7139.13
7130.89
7122.64
7114.4
7106.17
7097.95
7089.78
7081.64
7073.56
7065.52
7057.56
7049.66
7041.85
7034.11
7026.47
7018.92
7011.47
7004.13
6996.89
6989.77
6982.77
6975.89
6969.13
6962.49
6955.98
6949.6
6943.36
6937.25
6931.27
6925.42
6919.72
6914.15
6908.71
6903.42
6898.26
6893.23
6888.35
6883.6
6878.98
6874.5
6870.15
6865.93
6861.84
6857.89
6854.06
6850.35
6846.77
6843.32
6839.98
6836.76
6833.66
6830.68
6827.8
6825.04
6822.39
6819.84
6817.39
6815.05
6812.8
6810.65
6808.59
6806.63
6804.75
6802.96
6801.26
6799.63
6798.09
6796.62
6795.23
6793.91
6792.66
6791.48
6790.36
6789.31
6788.32
6787.39
6786.52
6785.71
6784.95
6784.24
6783.59
6782.99
6782.43
6781.92
6781.46
6781.04
6780.67
6780.33
6780.04
6779.8
6779.59
6779.42
6779.3
6779.22
6779.18
6779.18
6779.22
6779.3
6779.42
6779.58
6779.79
6780.03
6780.31
6780.63
6780.99
6781.39
6781.83
6782.3
6782.8
6783.35
6783.92
6784.53
6785.17
6785.84
6786.54
6787.27
6788.03
6788.81
6789.61
6790.44
6791.28
6792.15
6793.03
6793.93
6794.85
6795.78
6796.72
6797.67
6798.63
6799.59
6800.57
6801.54
6802.53
6803.51
6804.49
6805.48
6806.46
6807.44
6808.42
6809.39
6810.36
6811.32
6812.28
6813.22
6814.16
6815.09
6816.01
6816.92
6817.82
6818.71
6819.58
6820.44
6821.29
6822.13
6822.95
6823.76
6824.55
6825.32
6826.08
6826.82
6827.54
6828.25
6828.93
6829.6
6830.25
6830.89
6831.5
6832.11
6832.67
6833.24
6833.73
6834.25
6834.8
6835.27
6835.74
6836.18
6836.61
6837.02
6837.43
6837.81
6838.18
6838.52
6838.86
6839.19
6839.5
6839.82
6840.09
6840.26
6840.5
6840.87
6841.06
6841.35
6841.51
6841.73
6841.89
6842.07
6842.25
6842.4
6842.57
6842.69
6842.85
6842.92
6843.06
6843.15
6843.3
6843.34
6843.53
6843.32
6843.43
6843.63
6843.68
6843.66
6843.63
6843.61
6843.59
6843.57
6843.56
6843.55
6843.53
6843.51
6843.48
6843.44
6843.41
6843.37
6843.32
6843.27
6843.22
6843.16
6843.1
6843.03
6842.96
6842.89
6842.81
6842.72
6842.64
6842.54
6842.45
6842.35
6842.25
6842.14
6842.04
6841.92
6841.81
6841.69
6841.57
6841.44
6841.31
6841.18
6841.04
6840.9
6840.76
6840.61
6840.47
6840.31
6840.16
6840
6839.84
6839.67
6839.51
6839.34
6839.16
6838.99
6838.81
6838.62
6838.44
6838.25
6838.06
6837.86
6837.66
6837.46
6837.26
6837.05
6836.84
6836.63
6836.41
6836.19
6835.97
6835.75
6835.52
6835.29
6835.06
6834.82
6834.58
6834.34
6834.1
6833.85
6833.6
6833.34
6833.09
6832.83
6832.57
6832.3
6832.03
6831.76
6831.49
6831.21
6830.93
6830.65
6830.37
6830.08
6829.79
6829.49
6829.2
6828.88
6828.67
6828.11
6018.02
6013.1
6008.19
6003.11
5997.91
5993.03
5988.26
5983.58
5979.07
5974.8
5970.76
5966.89
5963.2
5959.73
5956.45
5953.35
5950.42
5947.72
5945.19
5942.88
5940.81
5938.89
5937.12
5935.52
5934.1
5932.86
5931.79
5930.87
5930.13
5929.57
5929.14
5928.92
5928.85
5928.96
5929.28
5929.76
5930.34
5931.08
5931.99
5933.13
5934.36
5935.79
5937.41
5939.12
5940.99
5943.01
5945.17
5947.53
5949.98
5952.58
5955.4
5958.35
5961.39
5964.59
5967.92
5971.31
5974.76
5978.41
5982.21
5986.14
5990.17
5994.31
5998.52
6002.82
6007.21
6011.69
6016.26
6020.9
6025.61
6030.36
6035.15
6040
6044.91
6049.91
6054.97
6060.1
6065.28
6070.52
6075.84
6081.22
6086.64
6092.19
6097.82
6103.57
6109.42
6115.36
6121.34
6127.35
6133.46
6139.63
6145.82
6152.21
6158.82
6165.32
6172.06
6178.57
6183.38
6187.47
6199.17
6208.48
6215.92
6223.56
6231.77
6239.16
6248.41
6256.51
6265.75
6274.15
6283.24
6291.76
6300.7
6309.49
6318.76
6328.52
6338.15
6347.66
6357.43
6363.54
6372.77
6388.35
6400.48
6413.67
6425.91
6437.83
6450.16
6462.96
6475.59
6488.86
6501.75
6515.12
6529.33
6542.63
6556.52
6569.21
6582.68
6592.63
6606.52
6624.57
6638.73
6653
6667.11
6680.79
6694.82
6709.19
6723.07
6736.88
6750.54
6763.99
6777.32
6790.53
6803.52
6816.31
6828.9
6841.26
6853.41
6865.33
6876.99
6888.39
6899.5
6910.36
6920.94
6931.25
6941.28
6951.02
6960.46
6969.61
6978.48
6987.06
6995.37
7003.41
7011.15
7018.62
7025.81
7032.75
7039.43
7045.87
7052.06
7058.02
7063.74
7069.26
7074.57
7079.68
7084.6
7089.34
7093.9
7098.3
7102.54
7106.63
7110.56
7114.34
7117.96
7121.41
7124.7
7127.79
7130.69
7133.38
7135.87
7138.12
7140.14
7141.89
7143.4
7144.63
7145.6
7146.28
7146.68
7146.78
7146.57
7146.07
7145.25
7144.14
7142.72
7140.99
7138.94
7136.58
7133.91
7130.94
7127.66
7124.09
7120.22
7116.05
7111.6
7106.88
7101.88
7096.62
7091.1
7085.34
7079.33
7073.11
7066.67
7060.02
7053.17
7046.14
7038.93
7031.57
7024.06
7016.42
7008.65
7000.78
6992.81
6984.75
6976.61
6968.42
6960.18
6951.89
6943.59
6935.26
6926.93
6918.61
6910.3
6902.01
6893.76
6885.56
6877.4
6869.3
6861.27
6853.31
6845.44
6837.65
6829.95
6822.34
6814.84
6807.45
6800.17
6793.01
6785.96
6779.04
6772.24
6765.57
6759.03
6752.62
6746.34
6740.2
6734.2
6728.33
6722.6
6717.01
6711.56
6706.24
6701.07
6696.03
6691.13
6686.36
6681.74
6677.25
6672.89
6668.66
6664.57
6660.61
6656.78
6653.07
6649.49
6646.03
6642.7
6639.48
6636.38
6633.4
6630.53
6627.78
6625.13
6622.58
6620.15
6617.81
6615.57
6613.43
6611.39
6609.43
6607.57
6605.79
6604.1
6602.49
6600.96
6599.5
6598.13
6596.82
6595.58
6594.42
6593.31
6592.28
6591.3
6590.39
6589.53
6588.73
6587.98
6587.29
6586.65
6586.06
6585.51
6585.01
6584.56
6584.15
6583.78
6583.46
6583.18
6582.94
6582.74
6582.58
6582.47
6582.39
6582.36
6582.37
6582.42
6582.5
6582.63
6582.81
6583.02
6583.27
6583.56
6583.89
6584.26
6584.67
6585.12
6585.6
6586.12
6586.67
6587.26
6587.89
6588.54
6589.23
6589.94
6590.69
6591.46
6592.25
6593.08
6593.92
6594.78
6595.67
6596.57
6597.49
6598.43
6599.37
6600.33
6601.3
6602.28
6603.27
6604.26
6605.25
6606.25
6607.25
6608.26
6609.26
6610.26
6611.26
6612.25
6613.24
6614.22
6615.2
6616.16
6617.12
6618.07
6619.02
6619.95
6620.87
6621.78
6622.68
6623.56
6624.43
6625.29
6626.13
6626.96