/*--------------------------------*- C++ -*----------------------------------*\
| =========                 |                                                 |
| \\      /  F ield         | OpenFOAM: The Open Source CFD Toolbox           |
|  \\    /   O peration     | Version:  v2006                                 |
|   \\  /    A nd           | Website:  www.openfoam.com                      |
|    \\/     M anipulation  |                                                 |
\*---------------------------------------------------------------------------*/
FoamFile
{
    version     2.0;
    format      ascii;
    class       volScalarField;
    location    "5.8";
    object      p_rgh;
}
// * * * * * * * * * * * * * * * * * * * * * * * * * * * * * * * * * * * * * //

dimensions      [1 -1 -2 0 0 0 0];


internalField   nonuniform List<scalar> 
33000
(
7302.07
7292.31
7287.86
7283.59
7279.38
7275.34
7271.33
7267.2
7263.02
7258.91
7254.87
7250.81
7246.74
7242.71
7238.87
7235.37
7232.25
7229.72
7228.02
7226.69
7225.56
7224.38
7222.57
7220.47
7219.05
7217.58
7216.33
7215.3
7214.44
7213.77
7213.29
7212.95
7212.75
7212.74
7212.97
7213.34
7213.87
7214.54
7215.47
7216.55
7217.72
7219.07
7220.53
7222.09
7223.85
7225.83
7227.99
7230.24
7232.61
7235.12
7237.74
7240.44
7243.32
7246.42
7249.63
7252.93
7256.34
7259.86
7263.48
7267.19
7270.96
7274.81
7278.73
7282.77
7286.98
7291.22
7295.49
7299.81
7304.23
7308.74
7313.3
7317.89
7322.47
7327.02
7331.51
7335.92
7340.15
7343.03
7344.02
7350.31
7357.49
7361.96
7367.08
7373.02
7378.31
7384.16
7390.62
7396.6
7402.81
7408.66
7415.04
7421.16
7427.28
7433.4
7439.19
7445.18
7450.06
7455.88
7458.4
7464.28
7475.4
7482.46
7491.25
7500.19
7508.46
7517.8
7527.58
7537.17
7547.14
7556.77
7566.67
7576.39
7586.07
7596.01
7605.17
7615.12
7622.27
7632.38
7646.47
7657.48
7669.65
7682.05
7694.15
7706.99
7720.35
7733.51
7747.04
7760.67
7774.34
7788.18
7802.14
7816.12
7830.2
7844.29
7858.37
7872.45
7886.55
7900.62
7914.64
7928.63
7942.55
7956.41
7970.19
7983.86
7997.41
8010.87
8024.21
8037.43
8050.49
8063.37
8076.06
8088.56
8100.88
8113.03
8124.95
8136.62
8148.06
8159.24
8170.18
8180.88
8191.31
8201.48
8211.36
8220.97
8230.3
8239.33
8248.1
8256.58
8264.78
8272.69
8280.32
8287.69
8294.79
8301.61
8308.17
8314.47
8320.55
8326.38
8331.98
8337.35
8342.51
8347.48
8352.24
8356.83
8361.26
8365.53
8369.66
8373.63
8377.48
8381.19
8384.76
8388.16
8391.37
8394.4
8397.2
8399.81
8402.2
8404.37
8406.29
8407.97
8409.38
8410.52
8411.39
8412
8412.34
8412.4
8412.15
8411.62
8410.78
8409.67
8408.25
8406.54
8404.52
8402.21
8399.62
8396.73
8393.56
8390.08
8386.33
8382.31
8378.03
8373.49
8368.68
8363.62
8358.3
8352.76
8347.01
8341.03
8334.85
8328.48
8321.9
8315.15
8308.25
8301.19
8293.99
8286.65
8279.2
8271.63
8263.97
8256.22
8248.39
8240.5
8232.56
8224.58
8216.57
8208.53
8200.48
8192.43
8184.4
8176.38
8168.39
8160.43
8152.51
8144.64
8136.83
8129.1
8121.43
8113.84
8106.33
8098.91
8091.59
8084.37
8077.25
8070.24
8063.33
8056.54
8049.87
8043.33
8036.91
8030.61
8024.44
8018.39
8012.47
8006.69
8001.04
7995.52
7990.14
7984.88
7979.76
7974.78
7969.92
7965.19
7960.61
7956.15
7951.82
7947.62
7943.55
7939.6
7935.77
7932.08
7928.51
7925.05
7921.72
7918.5
7915.39
7912.39
7909.51
7906.74
7904.07
7901.51
7899.04
7896.68
7894.41
7892.24
7890.16
7888.17
7886.27
7884.45
7882.71
7881.06
7879.48
7877.98
7876.55
7875.2
7873.92
7872.7
7871.55
7870.47
7869.44
7868.48
7867.58
7866.73
7865.94
7865.2
7864.52
7863.88
7863.3
7862.77
7862.28
7861.84
7861.44
7861.09
7860.78
7860.51
7860.28
7860.1
7859.96
7859.85
7859.79
7859.77
7859.79
7859.85
7859.96
7860.1
7860.28
7860.5
7860.76
7861.06
7861.4
7861.77
7862.18
7862.62
7863.1
7863.61
7864.15
7864.73
7865.34
7865.97
7866.63
7867.32
7868.04
7868.77
7869.54
7870.32
7871.12
7871.94
7872.78
7873.63
7874.5
7875.38
7876.28
7877.18
7878.09
7879.02
7879.94
7880.88
7881.81
7882.75
7883.69
7884.64
7885.58
7886.52
7887.46
7888.39
7889.33
7890.25
7891.17
7892.09
7893
7893.9
7894.79
7895.67
7896.54
7897.41
7898.26
7899.1
7899.94
7900.75
7901.56
7902.35
7903.13
7903.89
7904.64
7905.36
7906.08
7906.78
7907.46
7908.12
7908.77
7909.4
7910.01
7910.6
7911.17
7911.73
7912.27
7912.79
7913.29
7913.78
7914.24
7914.7
7915.13
7915.54
7915.94
7916.32
7916.69
7917.05
7917.38
7917.71
7918.03
7918.29
7918.58
7918.91
7919.17
7919.44
7919.67
7919.9
7920.11
7920.3
7920.49
7920.65
7920.81
7920.94
7921.08
7921.22
7921.34
7921.44
7921.58
7921.59
7921.72
7921.9
7922
7922.12
7922.19
7922.27
7922.31
7922.37
7922.39
7922.42
7922.44
7922.44
7922.45
7922.42
7922.41
7922.41
7922.39
7922.33
7922.37
7922.2
7922.18
7922.25
7922.23
7922.15
7922.09
7922.01
7921.94
7921.86
7921.78
7921.69
7921.61
7921.52
7921.42
7921.32
7921.22
7921.12
7921.01
7920.9
7920.78
7920.66
7920.54
7920.41
7920.29
7920.15
7920.02
7919.88
7919.74
7919.59
7919.45
7919.29
7919.14
7918.98
7918.82
7918.66
7918.49
7918.32
7918.15
7917.97
7917.79
7917.61
7917.42
7917.24
7917.04
7916.85
7916.65
7916.45
7916.25
7916.04
7915.83
7915.62
7915.4
7915.18
7914.96
7914.74
7914.51
7914.28
7914.05
7913.81
7913.57
7913.33
7913.09
7912.84
7912.59
7912.34
7912.08
7911.82
7911.56
7911.29
7911.03
7910.76
7910.48
7910.21
7909.93
7909.64
7909.36
7909.07
7908.78
7908.49
7908.19
7907.87
7907.66
7907.1
7299.98
7292.57
7287.63
7283.07
7278.86
7274.56
7270.38
7266.19
7262
7257.87
7253.89
7249.9
7245.87
7241.91
7238.02
7234.37
7231.26
7228.74
7226.47
7224.67
7223.65
7222.78
7221.45
7219.92
7218.32
7216.96
7215.84
7214.88
7214.07
7213.42
7212.89
7212.48
7212.25
7212.27
7212.59
7212.87
7213.35
7214.08
7215.03
7216.21
7217.39
7218.71
7220.11
7221.65
7223.41
7225.33
7227.62
7229.91
7232.28
7234.77
7237.34
7240.06
7242.94
7246.03
7249.31
7252.63
7256.04
7259.57
7263.21
7266.92
7270.69
7274.49
7278.42
7282.52
7286.68
7290.98
7295.28
7299.5
7303.92
7308.47
7313.12
7317.72
7322.3
7326.83
7331.26
7335.61
7339.82
7343.69
7348.05
7352.79
7355.67
7356.79
7364.96
7373.7
7379.61
7384.82
7390.78
7396.47
7402.17
7408.41
7414.79
7421.31
7427.43
7433.95
7439.91
7446.26
7452.13
7458.24
7463.98
7469.45
7476.17
7479.21
7486.81
7499.89
7508.84
7519.11
7528.03
7537.42
7546.32
7555.89
7566.17
7576.13
7586.18
7596.23
7605.99
7616
7625.88
7635.63
7646.92
7654.43
7666.28
7681.92
7694.41
7707.38
7720.22
7732.95
7746.33
7760.36
7774.12
7788.06
7801.95
7815.88
7829.98
7844.17
7858.25
7872.41
7886.47
7900.6
7914.61
7928.61
7942.53
7956.4
7970.21
7983.89
7997.44
8010.92
8024.26
8037.48
8050.59
8063.48
8076.16
8088.66
8101
8113.15
8125.11
8136.8
8148.24
8159.42
8170.38
8181.08
8191.5
8201.69
8211.59
8221.2
8230.53
8239.55
8248.32
8256.83
8265.03
8272.92
8280.54
8287.94
8295.05
8301.87
8308.41
8314.71
8320.8
8326.65
8332.24
8337.6
8342.77
8347.76
8352.53
8357.09
8361.52
8365.8
8369.96
8373.95
8377.79
8381.5
8385.07
8388.49
8391.72
8394.76
8397.57
8400.17
8402.57
8404.73
8406.69
8408.38
8409.8
8410.93
8411.81
8412.42
8412.77
8412.84
8412.6
8412.05
8411.22
8410.1
8408.7
8406.99
8404.95
8402.64
8400.05
8397.17
8394
8390.52
8386.74
8382.71
8378.42
8373.89
8369.08
8364.01
8358.67
8353.12
8347.35
8341.36
8335.19
8328.8
8322.21
8315.44
8308.52
8301.44
8294.23
8286.9
8279.43
8271.85
8264.16
8256.39
8248.54
8240.64
8232.69
8224.7
8216.68
8208.63
8200.56
8192.49
8184.45
8176.43
8168.42
8160.45
8152.51
8144.63
8136.82
8129.07
8121.39
8113.8
8106.28
8098.85
8091.52
8084.29
8077.17
8070.15
8063.23
8056.43
8049.76
8043.21
8036.79
8030.49
8024.31
8018.25
8012.33
8006.54
8000.89
7995.37
7989.98
7984.73
7979.61
7974.62
7969.76
7965.02
7960.43
7955.98
7951.65
7947.45
7943.38
7939.43
7935.6
7931.9
7928.33
7924.88
7921.54
7918.32
7915.21
7912.22
7909.34
7906.57
7903.9
7901.34
7898.87
7896.51
7894.25
7892.08
7890
7888.01
7886.1
7884.29
7882.56
7880.9
7879.33
7877.83
7876.4
7875.06
7873.77
7872.56
7871.41
7870.33
7869.31
7868.35
7867.45
7866.6
7865.81
7865.08
7864.4
7863.77
7863.18
7862.65
7862.17
7861.73
7861.33
7860.98
7860.67
7860.4
7860.18
7860
7859.86
7859.75
7859.69
7859.67
7859.7
7859.76
7859.86
7860.01
7860.19
7860.41
7860.67
7860.97
7861.31
7861.68
7862.09
7862.54
7863.02
7863.53
7864.08
7864.66
7865.27
7865.9
7866.57
7867.26
7867.98
7868.72
7869.48
7870.27
7871.07
7871.89
7872.74
7873.59
7874.47
7875.35
7876.25
7877.15
7878.07
7878.99
7879.92
7880.86
7881.8
7882.74
7883.69
7884.63
7885.58
7886.52
7887.46
7888.4
7889.33
7890.26
7891.19
7892.1
7893.01
7893.91
7894.81
7895.69
7896.57
7897.43
7898.29
7899.13
7899.96
7900.78
7901.59
7902.38
7903.16
7903.92
7904.67
7905.4
7906.11
7906.81
7907.49
7908.16
7908.8
7909.44
7910.04
7910.64
7911.21
7911.77
7912.31
7912.83
7913.33
7913.82
7914.28
7914.73
7915.16
7915.58
7915.98
7916.37
7916.74
7917.09
7917.38
7917.7
7918.07
7918.36
7918.66
7918.96
7919.21
7919.48
7919.7
7919.95
7920.13
7920.34
7920.5
7920.67
7920.84
7920.98
7921.12
7921.24
7921.27
7921.37
7921.61
7921.69
7921.85
7921.96
7922.06
7922.15
7922.22
7922.3
7922.34
7922.4
7922.41
7922.46
7922.44
7922.45
7922.46
7922.47
7922.44
7922.47
7922.27
7922.25
7922.36
7922.37
7922.3
7922.26
7922.22
7922.17
7922.1
7922.04
7921.96
7921.89
7921.8
7921.72
7921.63
7921.54
7921.44
7921.34
7921.24
7921.13
7921.02
7920.91
7920.79
7920.67
7920.55
7920.43
7920.3
7920.16
7920.03
7919.89
7919.75
7919.6
7919.45
7919.3
7919.15
7918.99
7918.83
7918.67
7918.5
7918.33
7918.16
7917.98
7917.8
7917.62
7917.43
7917.25
7917.05
7916.86
7916.66
7916.46
7916.26
7916.05
7915.84
7915.63
7915.41
7915.19
7914.97
7914.75
7914.52
7914.29
7914.06
7913.82
7913.58
7913.34
7913.1
7912.85
7912.6
7912.34
7912.09
7911.83
7911.57
7911.3
7911.03
7910.76
7910.49
7910.21
7909.93
7909.65
7909.37
7909.08
7908.79
7908.49
7908.2
7907.88
7907.66
7907.11
7298.24
7292.2
7287.45
7282.71
7278.3
7273.81
7269.38
7265.11
7260.94
7256.87
7252.91
7249.02
7245.19
7241.48
7237.94
7234.57
7231.49
7229.03
7227
7225.19
7223.53
7221.98
7220.43
7218.95
7217.41
7216
7214.83
7213.87
7213.11
7212.54
7212.06
7211.68
7211.34
7211.35
7211.54
7211.92
7212.48
7213.38
7214.43
7215.48
7216.67
7218
7219.5
7220.99
7222.61
7224.63
7226.98
7229.25
7231.6
7234.12
7236.7
7239.34
7242.25
7245.29
7248.59
7252.03
7255.46
7259.01
7262.66
7266.39
7270.14
7273.9
7277.92
7282.09
7286.44
7290.58
7294.73
7299.1
7303.53
7308.01
7312.64
7317.42
7322.04
7326.57
7331
7335.44
7339.83
7344.26
7348.96
7353.66
7358.14
7363.15
7368.21
7371.32
7372.74
7380.98
7390.5
7396.79
7403.11
7408.53
7415.14
7420.83
7427.82
7434.28
7440.85
7447.06
7453.56
7460
7466.27
7472.97
7480.04
7487.22
7493.93
7501.02
7504.88
7512.95
7526.8
7536.68
7547.82
7557.03
7567
7575.93
7585.65
7596.04
7606.07
7616.63
7626.97
7637.56
7648.83
7660.02
7670.71
7682.58
7690.92
7703.4
7719.91
7733.07
7746.76
7760.27
7773.53
7787.33
7801.7
7815.7
7829.93
7843.98
7858.12
7872.22
7886.31
7900.38
7914.4
7928.44
7942.47
7956.38
7970.21
7983.91
7997.49
8011
8024.38
8037.69
8050.78
8063.64
8076.34
8088.9
8101.29
8113.52
8125.45
8137.08
8148.52
8159.77
8170.82
8181.54
8191.93
8202.08
8211.99
8221.66
8230.97
8239.99
8248.79
8257.32
8265.52
8273.39
8281.03
8288.44
8295.58
8302.38
8308.92
8315.24
8321.32
8327.2
8332.81
8338.17
8343.38
8348.36
8353.1
8357.69
8362.13
8366.43
8370.62
8374.64
8378.51
8382.21
8385.73
8389.14
8392.4
8395.49
8398.35
8400.97
8403.34
8405.51
8407.48
8409.21
8410.64
8411.77
8412.66
8413.3
8413.68
8413.73
8413.48
8412.93
8412.11
8411.02
8409.61
8407.88
8405.82
8403.53
8400.96
8398.07
8394.88
8391.39
8387.6
8383.54
8379.24
8374.7
8369.88
8364.79
8359.42
8353.85
8348.05
8342.07
8335.86
8329.44
8322.82
8316.02
8309.07
8302
8294.76
8287.38
8279.88
8272.26
8264.52
8256.73
8248.86
8240.94
8232.98
8224.96
8216.9
8208.82
8200.72
8192.62
8184.55
8176.51
8168.48
8160.49
8152.52
8144.63
8136.8
8129.04
8121.33
8113.71
8106.15
8098.72
8091.39
8084.15
8077
8069.96
8063.02
8056.22
8049.54
8042.99
8036.55
8030.24
8024.05
8017.99
8012.05
8006.25
8000.59
7995.06
7989.67
7984.42
7979.29
7974.29
7969.42
7964.69
7960.1
7955.65
7951.31
7947.11
7943.03
7939.08
7935.25
7931.56
7927.99
7924.53
7921.19
7917.97
7914.87
7911.88
7909
7906.22
7903.55
7901
7898.54
7896.18
7893.91
7891.74
7889.67
7887.69
7885.79
7883.97
7882.24
7880.6
7879.03
7877.53
7876.11
7874.76
7873.49
7872.28
7871.14
7870.06
7869.04
7868.08
7867.19
7866.35
7865.57
7864.83
7864.16
7863.53
7862.95
7862.42
7861.94
7861.51
7861.11
7860.76
7860.46
7860.19
7859.97
7859.79
7859.65
7859.55
7859.49
7859.48
7859.5
7859.57
7859.67
7859.82
7860
7860.23
7860.5
7860.8
7861.14
7861.52
7861.93
7862.38
7862.86
7863.38
7863.93
7864.51
7865.12
7865.77
7866.44
7867.13
7867.86
7868.6
7869.37
7870.16
7870.97
7871.8
7872.65
7873.51
7874.39
7875.28
7876.18
7877.1
7878.02
7878.95
7879.89
7880.83
7881.77
7882.72
7883.67
7884.62
7885.57
7886.52
7887.47
7888.41
7889.35
7890.28
7891.21
7892.13
7893.04
7893.95
7894.85
7895.74
7896.62
7897.48
7898.34
7899.19
7900.02
7900.85
7901.66
7902.45
7903.23
7903.99
7904.74
7905.47
7906.19
7906.89
7907.58
7908.24
7908.89
7909.51
7910.13
7910.72
7911.29
7911.85
7912.39
7912.91
7913.41
7913.89
7914.35
7914.81
7915.24
7915.66
7916.06
7916.39
7916.76
7917.17
7917.5
7917.84
7918.14
7918.44
7918.73
7919.01
7919.27
7919.53
7919.75
7919.97
7920.2
7920.39
7920.6
7920.74
7920.91
7920.94
7921.08
7921.32
7921.45
7921.61
7921.73
7921.83
7921.94
7922.05
7922.15
7922.23
7922.31
7922.36
7922.4
7922.42
7922.45
7922.49
7922.52
7922.5
7922.57
7922.35
7922.36
7922.49
7922.51
7922.44
7922.39
7922.33
7922.28
7922.23
7922.2
7922.15
7922.09
7922.02
7921.94
7921.87
7921.79
7921.71
7921.62
7921.53
7921.44
7921.34
7921.24
7921.13
7921.03
7920.92
7920.8
7920.68
7920.56
7920.44
7920.31
7920.18
7920.04
7919.9
7919.76
7919.62
7919.47
7919.32
7919.16
7919
7918.84
7918.68
7918.51
7918.34
7918.17
7917.99
7917.81
7917.63
7917.44
7917.26
7917.06
7916.87
7916.67
7916.47
7916.27
7916.06
7915.85
7915.64
7915.43
7915.21
7914.99
7914.76
7914.53
7914.3
7914.07
7913.84
7913.6
7913.35
7913.11
7912.86
7912.61
7912.36
7912.1
7911.84
7911.58
7911.32
7911.05
7910.78
7910.5
7910.23
7909.95
7909.67
7909.38
7909.09
7908.8
7908.51
7908.21
7907.89
7907.68
7907.13
7297.14
7291.47
7286.9
7282.07
7277.32
7272.87
7268.37
7263.97
7259.75
7255.67
7251.73
7247.89
7244.15
7240.53
7237.14
7233.92
7230.95
7228.3
7225.99
7223.98
7222.24
7220.64
7219.03
7217.49
7216.04
7214.74
7213.52
7212.49
7211.83
7211.31
7210.85
7210.56
7210.29
7210.05
7210.24
7210.7
7211.63
7212.42
7213.28
7214.32
7215.54
7216.88
7218.39
7220.03
7221.81
7223.77
7225.93
7228.22
7230.57
7233.11
7235.78
7238.44
7241.22
7244.43
7247.8
7251.12
7254.57
7258.14
7261.82
7265.58
7269.4
7273.27
7277.36
7281.68
7285.91
7290.12
7294.23
7298.52
7302.97
7307.49
7312.06
7316.99
7321.76
7326.44
7331.06
7335.54
7340.06
7344.68
7349.62
7354.45
7359.24
7364.25
7369.55
7374.57
7380.22
7385.88
7390.98
7394.88
7397.35
7406.98
7415.82
7421.67
7428.39
7435.27
7441.35
7448.58
7455.04
7462.1
7468.72
7475.85
7482.91
7490.16
7497.73
7506.2
7514.17
7522.91
7529.5
7538.2
7541.86
7551
7565.07
7575.85
7586.68
7596.95
7606.57
7616.87
7627.85
7638.5
7649.85
7660.81
7672.47
7684.59
7696.74
7708.07
7720.48
7729.23
7742.47
7759.8
7773.44
7787.46
7801.22
7814.8
7828.93
7843.59
7857.91
7872.26
7886.28
7900.44
7914.3
7928.34
7942.34
7956.32
7970.26
7984.03
7997.6
8011.14
8024.62
8037.96
8051.06
8063.91
8076.68
8089.28
8101.78
8114.02
8125.92
8137.56
8149.06
8160.31
8171.42
8182.2
8192.62
8202.74
8212.65
8222.31
8231.65
8240.71
8249.53
8258.1
8266.3
8274.15
8281.81
8289.2
8296.39
8303.22
8309.75
8316.08
8322.17
8328.02
8333.67
8339.14
8344.34
8349.32
8354.04
8358.67
8363.13
8367.47
8371.7
8375.73
8379.6
8383.3
8386.82
8390.24
8393.49
8396.62
8399.52
8402.18
8404.56
8406.72
8408.69
8410.46
8411.92
8413.07
8413.95
8414.63
8415.01
8415.07
8414.81
8414.28
8413.48
8412.4
8410.98
8409.21
8407.16
8404.85
8402.28
8399.4
8396.2
8392.69
8388.86
8384.8
8380.48
8375.92
8371.08
8365.96
8360.59
8354.95
8349.11
8343.06
8336.83
8330.4
8323.76
8316.92
8309.91
8302.77
8295.51
8288.1
8280.55
8272.84
8265.09
8257.26
8249.38
8241.43
8233.4
8225.32
8217.2
8209.06
8200.94
8192.82
8184.74
8176.65
8168.57
8160.5
8152.54
8144.64
8136.77
8128.97
8121.22
8113.55
8105.99
8098.53
8091.19
8083.92
8076.75
8069.7
8062.74
8055.9
8049.2
8042.63
8036.19
8029.85
8023.64
8017.55
8011.63
8005.84
8000.16
7994.6
7989.19
7983.93
7978.81
7973.81
7968.92
7964.19
7959.59
7955.14
7950.8
7946.58
7942.49
7938.56
7934.74
7931.04
7927.46
7924
7920.65
7917.44
7914.35
7911.36
7908.48
7905.69
7903.03
7900.48
7898.03
7895.67
7893.4
7891.24
7889.18
7887.2
7885.3
7883.49
7881.77
7880.13
7878.57
7877.08
7875.66
7874.32
7873.06
7871.86
7870.72
7869.64
7868.63
7867.68
7866.8
7865.97
7865.19
7864.46
7863.79
7863.16
7862.6
7862.08
7861.6
7861.16
7860.77
7860.43
7860.13
7859.87
7859.65
7859.47
7859.34
7859.24
7859.19
7859.18
7859.21
7859.28
7859.38
7859.53
7859.72
7859.96
7860.22
7860.53
7860.88
7861.26
7861.68
7862.13
7862.63
7863.15
7863.71
7864.29
7864.91
7865.56
7866.24
7866.94
7867.67
7868.43
7869.21
7870.01
7870.83
7871.66
7872.52
7873.39
7874.28
7875.18
7876.09
7877.01
7877.95
7878.89
7879.83
7880.78
7881.74
7882.69
7883.65
7884.61
7885.57
7886.52
7887.48
7888.43
7889.37
7890.31
7891.25
7892.18
7893.1
7894.01
7894.91
7895.8
7896.69
7897.56
7898.42
7899.27
7900.11
7900.94
7901.75
7902.55
7903.33
7904.09
7904.85
7905.58
7906.3
7907
7907.68
7908.35
7908.99
7909.63
7910.24
7910.84
7911.41
7911.97
7912.5
7913.02
7913.53
7914.02
7914.49
7914.93
7915.32
7915.73
7916.18
7916.56
7916.94
7917.28
7917.62
7917.94
7918.26
7918.57
7918.85
7919.12
7919.37
7919.66
7919.86
7920.14
7920.29
7920.49
7920.56
7920.72
7921
7921.13
7921.33
7921.45
7921.58
7921.7
7921.84
7921.94
7922.06
7922.14
7922.25
7922.3
7922.36
7922.45
7922.48
7922.55
7922.54
7922.64
7922.41
7922.45
7922.6
7922.63
7922.57
7922.52
7922.48
7922.44
7922.42
7922.38
7922.34
7922.29
7922.24
7922.19
7922.13
7922.06
7921.99
7921.91
7921.83
7921.75
7921.66
7921.57
7921.47
7921.38
7921.27
7921.17
7921.06
7920.95
7920.83
7920.71
7920.59
7920.46
7920.33
7920.2
7920.07
7919.93
7919.79
7919.64
7919.49
7919.34
7919.19
7919.03
7918.87
7918.71
7918.54
7918.37
7918.19
7918.02
7917.84
7917.65
7917.47
7917.28
7917.09
7916.89
7916.7
7916.5
7916.29
7916.08
7915.88
7915.66
7915.45
7915.23
7915.01
7914.78
7914.56
7914.33
7914.09
7913.86
7913.62
7913.38
7913.13
7912.88
7912.63
7912.38
7912.12
7911.86
7911.6
7911.34
7911.07
7910.8
7910.53
7910.25
7909.97
7909.69
7909.4
7909.11
7908.82
7908.53
7908.24
7907.91
7907.7
7907.15
7296
7290.72
7286.22
7281.3
7276.27
7271.61
7266.98
7262.42
7258.12
7254.1
7250.18
7246.42
7242.81
7239.35
7235.97
7232.81
7229.91
7227.25
7224.82
7222.62
7220.65
7218.86
7217.19
7215.65
7214.23
7212.96
7211.87
7210.92
7210.16
7209.59
7209.15
7208.87
7208.76
7208.72
7208.93
7209.47
7210.11
7210.83
7211.7
7212.74
7213.95
7215.33
7216.87
7218.56
7220.39
7222.37
7224.49
7226.76
7229.16
7231.73
7234.46
7237.28
7240.2
7243.25
7246.51
7249.82
7253.31
7256.95
7260.67
7264.49
7268.41
7272.44
7276.57
7280.77
7285.03
7289.38
7293.74
7297.91
7302.23
7306.8
7311.51
7316.6
7321.39
7326.16
7330.95
7335.72
7340.43
7345.17
7350.21
7355.27
7360.33
7365.48
7370.68
7376.01
7381.49
7387.14
7392.92
7398.75
7404.67
7410.35
7414.6
7417.94
7428
7436.99
7443.38
7450.04
7457.09
7463.4
7470.93
7477.93
7485.75
7493.38
7501.04
7508.57
7516.51
7524.49
7533.82
7541.99
7551.55
7559.46
7567.76
7572.8
7581.37
7595.8
7607.05
7618.33
7629.24
7639.59
7650.64
7662.37
7673.78
7685.85
7697.56
7709.84
7722.63
7735.27
7747.46
7760.53
7769.87
7783.4
7801.25
7815.17
7829.93
7843.73
7857.74
7871.19
7885.41
7900.04
7914.17
7928.24
7942.22
7956.17
7970.13
7984.14
7997.87
8011.41
8024.89
8038.28
8051.4
8064.29
8077.14
8089.84
8102.43
8114.66
8126.54
8138.27
8149.8
8161.11
8172.28
8183.08
8193.58
8203.74
8213.59
8223.24
8232.62
8241.75
8250.65
8259.18
8267.36
8275.24
8282.91
8290.31
8297.5
8304.45
8311
8317.28
8323.39
8329.27
8335
8340.48
8345.69
8350.63
8355.42
8360.08
8364.59
8369.01
8373.23
8377.27
8381.16
8384.85
8388.37
8391.8
8395.07
8398.19
8401.15
8403.83
8406.27
8408.4
8410.37
8412.15
8413.67
8414.88
8415.8
8416.36
8416.72
8416.79
8416.63
8416.17
8415.36
8414.24
8412.8
8411
8408.98
8406.65
8404.08
8401.2
8397.97
8394.39
8390.57
8386.49
8382.16
8377.56
8372.64
8367.45
8362.08
8356.49
8350.61
8344.45
8338.13
8331.62
8324.93
8318.08
8311.04
8303.85
8296.54
8289.06
8281.41
8273.67
8265.86
8257.97
8250.05
8242.03
8233.93
8225.76
8217.6
8209.43
8201.25
8193.11
8184.98
8176.82
8168.67
8160.57
8152.54
8144.6
8136.72
8128.86
8121.05
8113.37
8105.77
8098.29
8090.91
8083.61
8076.42
8069.33
8062.36
8055.47
8048.74
8042.16
8035.7
8029.34
8023.08
8017
8011.06
8005.26
7999.57
7993.99
7988.56
7983.28
7978.15
7973.15
7968.26
7963.53
7958.93
7954.43
7950.08
7945.87
7941.8
7937.86
7934.04
7930.34
7926.74
7923.28
7919.94
7916.73
7913.64
7910.66
7907.78
7905
7902.33
7899.78
7897.34
7894.98
7892.72
7890.57
7888.52
7886.55
7884.65
7882.85
7881.14
7879.52
7877.95
7876.46
7875.06
7873.73
7872.48
7871.29
7870.15
7869.09
7868.09
7867.15
7866.27
7865.45
7864.68
7863.96
7863.29
7862.68
7862.11
7861.6
7861.14
7860.71
7860.32
7859.98
7859.68
7859.43
7859.22
7859.05
7858.92
7858.83
7858.78
7858.77
7858.81
7858.88
7859
7859.16
7859.35
7859.59
7859.87
7860.18
7860.53
7860.91
7861.34
7861.81
7862.31
7862.84
7863.4
7864
7864.63
7865.29
7865.98
7866.69
7867.43
7868.2
7868.99
7869.8
7870.63
7871.48
7872.35
7873.23
7874.13
7875.04
7875.97
7876.9
7877.84
7878.8
7879.76
7880.72
7881.68
7882.65
7883.62
7884.59
7885.56
7886.53
7887.49
7888.45
7889.41
7890.36
7891.3
7892.24
7893.16
7894.08
7894.99
7895.9
7896.79
7897.67
7898.53
7899.39
7900.24
7901.07
7901.88
7902.69
7903.47
7904.24
7905
7905.73
7906.46
7907.16
7907.85
7908.51
7909.17
7909.79
7910.41
7910.99
7911.57
7912.13
7912.67
7913.2
7913.69
7914.13
7914.59
7915.09
7915.51
7915.94
7916.32
7916.7
7917.07
7917.43
7917.77
7918.1
7918.39
7918.69
7918.98
7919.26
7919.52
7919.77
7919.89
7920.11
7920.43
7920.61
7920.85
7921
7921.19
7921.31
7921.47
7921.62
7921.75
7921.89
7922
7922.12
7922.19
7922.28
7922.4
7922.46
7922.57
7922.61
7922.62
7922.44
7922.5
7922.68
7922.72
7922.67
7922.63
7922.59
7922.55
7922.53
7922.51
7922.48
7922.45
7922.41
7922.37
7922.32
7922.27
7922.21
7922.15
7922.08
7922.01
7921.94
7921.86
7921.77
7921.69
7921.6
7921.5
7921.4
7921.3
7921.2
7921.09
7920.98
7920.86
7920.74
7920.62
7920.5
7920.37
7920.24
7920.1
7919.96
7919.82
7919.67
7919.52
7919.37
7919.22
7919.06
7918.9
7918.73
7918.57
7918.4
7918.22
7918.05
7917.87
7917.68
7917.5
7917.31
7917.12
7916.92
7916.73
7916.52
7916.32
7916.11
7915.9
7915.69
7915.48
7915.26
7915.04
7914.81
7914.59
7914.35
7914.12
7913.89
7913.65
7913.41
7913.16
7912.91
7912.66
7912.41
7912.15
7911.89
7911.63
7911.37
7911.1
7910.83
7910.55
7910.28
7910
7909.72
7909.43
7909.14
7908.85
7908.56
7908.26
7907.94
7907.73
7907.18
7294.8
7289.72
7284.92
7280
7274.9
7270.09
7265.15
7260.09
7255.74
7252.15
7248.22
7244.39
7240.83
7237.37
7234.08
7230.95
7228.03
7225.38
7222.92
7220.67
7218.63
7216.76
7215.02
7213.44
7212.02
7210.77
7209.69
7208.77
7208.03
7207.45
7207.03
7206.78
7206.7
7206.79
7207.07
7207.52
7208.1
7208.81
7209.69
7210.72
7211.89
7213.29
7214.94
7216.68
7218.53
7220.52
7222.61
7224.79
7227.19
7229.92
7232.75
7235.63
7238.62
7241.68
7244.53
7247.48
7251.5
7255.41
7259.22
7263.1
7267.09
7271.17
7275.33
7279.57
7283.9
7288.32
7292.81
7297.29
7301.55
7305.92
7310.94
7316.01
7320.87
7325.76
7330.68
7335.65
7340.68
7345.74
7350.75
7355.71
7360.92
7366.58
7372.09
7377.62
7383.18
7388.71
7394.33
7400.14
7406.17
7412.76
7419.09
7425.43
7431.47
7435.95
7439.43
7450.31
7459.37
7466.27
7473.21
7480.61
7487.44
7496.1
7503.93
7512.54
7520.54
7528.96
7536.84
7545.63
7553.78
7562.99
7572
7581.62
7590.09
7599.18
7604.8
7613.69
7628.7
7640.42
7652.47
7664.03
7675.2
7686.93
7699.26
7711.22
7723.86
7736.21
7749.15
7762.5
7775.68
7788.07
7801.44
7811
7825.23
7843.24
7857.68
7872.38
7886.05
7900.29
7913.75
7927.9
7942.22
7956.2
7970.3
7984.33
7998.09
8011.78
8025.35
8038.69
8051.77
8064.83
8077.81
8090.7
8103.22
8115.51
8127.48
8139.19
8150.78
8162.29
8173.41
8184.22
8194.75
8205
8214.88
8224.5
8233.95
8243.19
8252.03
8260.58
8268.82
8276.7
8284.37
8291.85
8299.11
8306.02
8312.65
8318.93
8325.04
8331.03
8336.79
8342.26
8347.49
8352.44
8357.28
8362.03
8366.65
8371.05
8375.26
8379.3
8383.2
8386.95
8390.49
8393.88
8397.17
8400.33
8403.26
8405.97
8408.44
8410.64
8412.57
8414.38
8415.9
8417.13
8418.07
8418.64
8419
8419.09
8418.95
8418.5
8417.69
8416.55
8415.03
8413.3
8411.3
8409.05
8406.42
8403.44
8400.11
8396.57
8392.77
8388.72
8384.32
8379.58
8374.61
8369.41
8364
8358.36
8352.43
8346.27
8339.82
8333.23
8326.46
8319.52
8312.47
8305.24
8297.82
8290.26
8282.56
8274.71
8266.83
8258.92
8250.9
8242.77
8234.55
8226.36
8218.14
8209.92
8201.72
8193.49
8185.26
8177.01
8168.79
8160.66
8152.57
8144.59
8136.65
8128.75
8120.88
8113.14
8105.53
8098.01
8090.57
8083.21
8075.95
8068.85
8061.86
8054.97
8048.21
8041.58
8035.07
8028.67
8022.41
8016.31
8010.36
8004.52
7998.82
7993.24
7987.77
7982.47
7977.32
7972.32
7967.44
7962.69
7958.07
7953.57
7949.2
7944.99
7940.93
7936.98
7933.15
7929.42
7925.84
7922.39
7919.07
7915.86
7912.76
7909.77
7906.89
7904.12
7901.47
7898.93
7896.49
7894.13
7891.87
7889.74
7887.69
7885.73
7883.84
7882.04
7880.35
7878.73
7877.19
7875.71
7874.3
7873
7871.76
7870.57
7869.45
7868.4
7867.42
7866.49
7865.61
7864.8
7864.04
7863.34
7862.69
7862.08
7861.52
7861.01
7860.55
7860.14
7859.76
7859.42
7859.14
7858.89
7858.69
7858.52
7858.39
7858.31
7858.27
7858.27
7858.31
7858.4
7858.52
7858.68
7858.88
7859.13
7859.41
7859.73
7860.09
7860.49
7860.92
7861.39
7861.9
7862.45
7863.02
7863.63
7864.27
7864.94
7865.64
7866.37
7867.13
7867.9
7868.71
7869.54
7870.38
7871.25
7872.13
7873.03
7873.95
7874.88
7875.81
7876.76
7877.72
7878.69
7879.67
7880.64
7881.63
7882.61
7883.59
7884.58
7885.56
7886.54
7887.52
7888.49
7889.46
7890.42
7891.37
7892.32
7893.26
7894.19
7895.11
7896.02
7896.92
7897.8
7898.68
7899.54
7900.39
7901.23
7902.05
7902.85
7903.64
7904.42
7905.17
7905.92
7906.64
7907.35
7908.03
7908.7
7909.34
7909.99
7910.59
7911.21
7911.77
7912.34
7912.83
7913.35
7913.9
7914.37
7914.84
7915.28
7915.71
7916.12
7916.53
7916.91
7917.28
7917.62
7917.96
7918.3
7918.6
7918.92
7919.19
7919.36
7919.6
7919.97
7920.16
7920.44
7920.61
7920.83
7920.99
7921.17
7921.35
7921.5
7921.67
7921.79
7921.95
7922.02
7922.16
7922.25
7922.4
7922.43
7922.62
7922.42
7922.53
7922.73
7922.78
7922.76
7922.73
7922.71
7922.69
7922.67
7922.66
7922.65
7922.63
7922.61
7922.58
7922.54
7922.51
7922.46
7922.42
7922.37
7922.32
7922.26
7922.2
7922.13
7922.06
7921.99
7921.91
7921.82
7921.73
7921.64
7921.55
7921.45
7921.35
7921.24
7921.13
7921.02
7920.91
7920.79
7920.66
7920.54
7920.41
7920.28
7920.14
7920
7919.86
7919.72
7919.57
7919.41
7919.26
7919.1
7918.94
7918.77
7918.61
7918.44
7918.26
7918.09
7917.91
7917.72
7917.54
7917.35
7917.16
7916.96
7916.76
7916.56
7916.36
7916.15
7915.94
7915.73
7915.51
7915.29
7915.07
7914.85
7914.62
7914.39
7914.16
7913.92
7913.68
7913.44
7913.2
7912.95
7912.7
7912.45
7912.19
7911.93
7911.67
7911.4
7911.13
7910.86
7910.59
7910.31
7910.03
7909.75
7909.47
7909.18
7908.89
7908.59
7908.3
7907.98
7907.77
7907.21
7293.31
7288.39
7283.49
7278.41
7273.21
7268.2
7262.75
7257.5
7253
7249.67
7246.04
7242.18
7238.49
7235.01
7231.73
7228.63
7225.71
7223.01
7220.49
7218.18
7216.1
7214.17
7212.36
7210.76
7209.35
7208.14
7207.09
7206.17
7205.43
7204.87
7204.41
7204.11
7204
7204.13
7204.55
7205.05
7205.63
7206.37
7207.21
7208.02
7208.83
7210.62
7212.67
7214.42
7216.29
7218.29
7220.25
7221.96
7223.94
7227.54
7230.65
7233.63
7236.66
7239.55
7242.18
7245.45
7248.91
7252.97
7257.37
7261.4
7265.47
7269.6
7273.82
7278.12
7282.51
7286.99
7291.56
7296.2
7300.86
7305.48
7310.11
7314.76
7319.97
7325.1
7330.24
7335.39
7340.58
7345.82
7351.08
7356.16
7361.42
7367.02
7373.03
7378.85
7384.7
7390.63
7396.41
7402.08
7408.16
7414.79
7421.1
7427.51
7434.12
7440.61
7447.35
7453.86
7458.68
7462.76
7474.41
7483.47
7490.72
7498.37
7506.89
7514.43
7523.69
7531.75
7540.84
7549.19
7558.29
7566.98
7575.99
7584.79
7594.05
7603.74
7613.31
7622.82
7632.66
7638.81
7648.03
7663.5
7675.61
7688.81
7701.16
7713.08
7725.41
7738.11
7750.7
7764.13
7777.04
7790.41
7804.62
7817.85
7831.61
7844.19
7857.66
7867.64
7881.74
7899.85
7914.02
7928.3
7942.36
7955.96
7969.97
7984.45
7998.36
8012.17
8025.82
8039.14
8052.3
8065.52
8078.77
8091.58
8104.17
8116.52
8128.59
8140.46
8152.22
8163.66
8174.77
8185.59
8196.15
8206.51
8216.51
8226.23
8235.72
8244.88
8253.74
8262.33
8270.64
8278.64
8286.36
8293.89
8301.1
8308.03
8314.66
8321.06
8327.28
8333.29
8339.03
8344.54
8349.72
8354.76
8359.81
8364.62
8369.19
8373.59
8377.83
8381.81
8385.63
8389.51
8393.24
8396.69
8399.98
8402.95
8405.77
8408.55
8411.13
8413.4
8415.41
8417.13
8418.53
8419.82
8420.84
8421.48
8421.81
8421.95
8421.83
8421.35
8420.52
8419.3
8417.84
8416.13
8414.19
8411.86
8409.19
8406.21
8402.83
8399.24
8395.41
8391.32
8386.87
8382.11
8377.05
8371.8
8366.35
8360.62
8354.62
8348.39
8341.94
8335.19
8328.33
8321.3
8314.17
8306.86
8299.35
8291.71
8283.94
8275.97
8268.03
8260.02
8251.9
8243.7
8235.39
8227.08
8218.78
8210.52
8202.22
8193.9
8185.59
8177.25
8168.96
8160.76
8152.65
8144.59
8136.56
8128.6
8120.68
8112.87
8105.21
8097.63
8090.14
8082.73
8075.4
8068.25
8061.24
8054.34
8047.54
8040.87
8034.32
8027.86
8021.59
8015.48
8009.5
8003.63
7997.9
7992.3
7986.84
7981.49
7976.33
7971.32
7966.43
7961.66
7957.04
7952.54
7948.15
7943.94
7939.86
7935.91
7932.07
7928.34
7924.76
7921.33
7918
7914.78
7911.68
7908.69
7905.81
7903.07
7900.42
7897.88
7895.44
7893.11
7890.86
7888.73
7886.69
7884.73
7882.86
7881.08
7879.4
7877.79
7876.25
7874.8
7873.42
7872.12
7870.88
7869.71
7868.61
7867.57
7866.6
7865.69
7864.83
7864.02
7863.28
7862.59
7861.95
7861.35
7860.81
7860.31
7859.85
7859.44
7859.08
7858.75
7858.48
7858.24
7858.04
7857.88
7857.76
7857.69
7857.66
7857.66
7857.71
7857.8
7857.93
7858.1
7858.32
7858.57
7858.86
7859.19
7859.56
7859.97
7860.41
7860.9
7861.42
7861.97
7862.56
7863.19
7863.84
7864.53
7865.24
7865.99
7866.76
7867.55
7868.37
7869.22
7870.09
7870.97
7871.87
7872.79
7873.73
7874.67
7875.63
7876.6
7877.58
7878.56
7879.56
7880.55
7881.55
7882.55
7883.56
7884.56
7885.56
7886.55
7887.55
7888.54
7889.52
7890.5
7891.46
7892.42
7893.37
7894.32
7895.25
7896.17
7897.08
7897.97
7898.86
7899.73
7900.59
7901.43
7902.26
7903.07
7903.87