/*--------------------------------*- C++ -*----------------------------------*\
| =========                 |                                                 |
| \\      /  F ield         | OpenFOAM: The Open Source CFD Toolbox           |
|  \\    /   O peration     | Version:  v2006                                 |
|   \\  /    A nd           | Website:  www.openfoam.com                      |
|    \\/     M anipulation  |                                                 |
\*---------------------------------------------------------------------------*/
FoamFile
{
    version     2.0;
    format      ascii;
    class       surfaceScalarField;
    location    "5.8";
    object      phi;
}
// * * * * * * * * * * * * * * * * * * * * * * * * * * * * * * * * * * * * * //

dimensions      [0 3 -1 0 0 0 0];
oriented        oriented;


internalField   nonuniform List<scalar> 
65390
(
-9.66343e-05
7.53428e-06
-9.79478e-05
1.3107e-06
-9.84877e-05
5.37416e-07
-9.70496e-05
-1.44019e-06
-9.36456e-05
-3.40565e-06
-8.85488e-05
-5.09813e-06
-8.25126e-05
-6.03708e-06
-7.65912e-05
-5.92216e-06
-7.12962e-05
-5.29548e-06
-6.6653e-05
-4.64362e-06
-6.19954e-05
-4.65782e-06
-5.7009e-05
-4.98645e-06
-5.18167e-05
-5.19237e-06
-4.71906e-05
-4.62613e-06
-4.36714e-05
-3.51916e-06
-4.16263e-05
-2.04514e-06
-4.14081e-05
-2.18079e-07
-4.34756e-05
2.06752e-06
-4.73646e-05
3.88909e-06
-5.26996e-05
5.33508e-06
-6.01198e-05
7.42017e-06
-6.88951e-05
8.77541e-06
-7.51171e-05
6.22204e-06
-7.78925e-05
2.77541e-06
-7.96774e-05
1.78493e-06
-8.12264e-05
1.54902e-06
-8.22015e-05
9.75183e-07
-8.24636e-05
2.62116e-07
-8.2495e-05
3.14134e-08
-8.25086e-05
1.37017e-08
-8.26966e-05
1.88033e-07
-8.30956e-05
3.99079e-07
-8.357e-05
4.7445e-07
-8.39577e-05
3.87686e-07
-8.41528e-05
1.95199e-07
-8.43589e-05
2.06195e-07
-8.4677e-05
3.18147e-07
-8.50143e-05
3.373e-07
-8.50165e-05
2.29722e-09
-8.43076e-05
-7.08848e-07
-8.32278e-05
-1.07967e-06
-8.23145e-05
-9.1326e-07
-8.19531e-05
-3.61336e-07
-8.20471e-05
9.41259e-08
-8.22605e-05
2.13498e-07
-8.22919e-05
3.14653e-08
-8.17085e-05
-5.8335e-07
-8.0562e-05
-1.14636e-06
-7.94167e-05
-1.14528e-06
-7.86046e-05
-8.1199e-07
-7.81312e-05
-4.73396e-07
-7.78642e-05
-2.66899e-07
-7.74908e-05
-3.7337e-07
-7.6808e-05
-6.82671e-07
-7.58595e-05
-9.48509e-07
-7.48536e-05
-1.00577e-06
-7.37977e-05
-1.05582e-06
-7.25775e-05
-1.22019e-06
-7.11466e-05
-1.43084e-06
-6.95278e-05
-1.61876e-06
-6.80441e-05
-1.48363e-06
-6.704e-05
-1.00407e-06
-6.64298e-05
-6.1017e-07
-6.58653e-05
-5.64438e-07
-6.49544e-05
-9.10916e-07
-6.36576e-05
-1.29675e-06
-6.24572e-05
-1.20034e-06
-6.15752e-05
-8.82021e-07
-6.07311e-05
-8.44081e-07
-5.94579e-05
-1.2731e-06
-5.76469e-05
-1.81105e-06
-5.52413e-05
-2.4055e-06
-5.23729e-05
-2.86838e-06
-4.89751e-05
-3.39778e-06
-4.50333e-05
-3.9418e-06
-4.03234e-05
-4.70985e-06
-3.43391e-05
-5.98428e-06
-2.64891e-05
-7.84997e-06
-1.99376e-05
-6.55145e-06
-1.7069e-05
-2.86859e-06
-1.51422e-05
-1.92679e-06
-1.51818e-05
3.96035e-08
-1.56514e-05
4.69638e-07
-1.66802e-05
1.02885e-06
-1.81557e-05
1.47548e-06
-1.95478e-05
1.39216e-06
-2.08011e-05
1.25329e-06
-2.17948e-05
9.93746e-07
-2.25346e-05
7.39776e-07
-2.29788e-05
4.44248e-07
-2.30916e-05
1.12885e-07
-2.30418e-05
-4.97746e-08
-2.29164e-05
-1.25383e-07
-2.27631e-05
-1.53308e-07
-2.25935e-05
-1.69571e-07
-2.24662e-05
-1.27326e-07
-2.22823e-05
-1.8386e-07
-2.20108e-05
-2.71479e-07
-2.1134e-05
-8.76824e-07
-2.06425e-05
-4.91505e-07
-2.07074e-05
6.49432e-08
-2.08166e-05
1.09277e-07
-2.09482e-05
1.31587e-07
-2.09415e-05
-6.66346e-09
-2.13662e-05
4.24719e-07
-2.17079e-05
3.41668e-07
-2.18353e-05
1.27385e-07
-2.19298e-05
9.45446e-08
-2.19017e-05
-2.81026e-08
-2.18073e-05
-9.43283e-08
-2.16575e-05
-1.49809e-07
-2.14976e-05
-1.59898e-07
-2.1252e-05
-2.45553e-07
-2.09192e-05
-3.32791e-07
-2.02746e-05
-6.44563e-07
-1.93468e-05
-9.27796e-07
-1.78986e-05
-1.44814e-06
-1.68225e-05
-1.07612e-06
-1.65336e-05
-2.88915e-07
-1.65273e-05
-6.19612e-09
-1.67103e-05
1.82989e-07
-1.6766e-05
5.56844e-08
-1.70279e-05
2.61953e-07
-1.72279e-05
1.99938e-07
-1.72646e-05
3.67897e-08
-1.73341e-05
6.94446e-08
-1.73931e-05
5.90531e-08
-1.74261e-05
3.30246e-08
-1.74731e-05
4.69557e-08
-1.74997e-05
2.66978e-08
-1.74997e-05
1.02371e-11
-1.74965e-05
-3.21338e-09
-1.74731e-05
-2.33768e-08
-1.7433e-05
-4.00315e-08
-1.73885e-05
-4.44867e-08
-1.73341e-05
-5.43583e-08
-1.72684e-05
-6.56947e-08
-1.71895e-05
-7.88962e-08
-1.71034e-05
-8.60393e-08
-1.7008e-05
-9.53806e-08
-1.69038e-05
-1.04232e-07
-1.67888e-05
-1.14984e-07
-1.66607e-05
-1.28094e-07
-1.65218e-05
-1.38813e-07
-1.6381e-05
-1.40828e-07
-1.62333e-05
-1.47626e-07
-1.60726e-05
-1.60726e-07
-1.58949e-05
-1.77645e-07
-1.56998e-05
-1.95092e-07
-1.54932e-05
-2.0654e-07
-1.5283e-05
-2.10246e-07
-1.50701e-05
-2.12869e-07
-1.48446e-05
-2.25499e-07
-1.45961e-05
-2.48398e-07
-1.43293e-05
-2.6682e-07
-1.40526e-05
-2.76643e-07
-1.37679e-05
-2.84728e-07
-1.34741e-05
-2.9379e-07
-1.31669e-05
-3.07135e-07
-1.28449e-05
-3.22019e-07
-1.25103e-05
-3.34584e-07
-1.21618e-05
-3.48447e-07
-1.17982e-05
-3.63585e-07
-1.1419e-05
-3.7923e-07
-1.103e-05
-3.88908e-07
-1.06372e-05
-3.92775e-07
-1.02299e-05
-4.07373e-07
-9.80135e-06
-4.2848e-07
-9.36133e-06
-4.40011e-07
-8.92064e-06
-4.40668e-07
-8.47368e-06
-4.46942e-07
-8.00659e-06
-4.67079e-07
-7.52199e-06
-4.84583e-07
-7.03118e-06
-4.90797e-07
-6.54323e-06
-4.87943e-07
-6.05272e-06
-4.90495e-07
-5.54531e-06
-5.07402e-07
-5.02458e-06
-5.20724e-07
-4.50223e-06
-5.22348e-07
-3.98257e-06
-5.19657e-07
-3.4601e-06
-5.22468e-07
-2.93009e-06
-5.30017e-07
-2.40622e-06
-5.23869e-07
-1.89272e-06
-5.13506e-07
-1.38126e-06
-5.11466e-07
-8.66293e-07
-5.14979e-07
-3.50738e-07
-5.15567e-07
1.53352e-07
-5.04104e-07
6.41749e-07
-4.88412e-07
1.11721e-06
-4.75476e-07
1.58393e-06
-4.66736e-07
2.0455e-06
-4.61592e-07
2.50174e-06
-4.56256e-07
2.94978e-06
-4.48057e-07
3.38334e-06
-4.33577e-07
3.80531e-06
-4.21989e-07
4.21794e-06
-4.12654e-07
4.62417e-06
-4.06247e-07
5.0274e-06
-4.03243e-07
5.42596e-06
-3.98577e-07
5.81451e-06
-3.8857e-07
6.18794e-06
-3.73448e-07
6.54961e-06
-3.61678e-07
6.90404e-06
-3.54453e-07
7.25456e-06
-3.50528e-07
7.60009e-06
-3.45543e-07
7.93592e-06
-3.35848e-07
8.25984e-06
-3.23934e-07
8.57278e-06
-3.12948e-07
8.87928e-06
-3.06511e-07
9.18025e-06
-3.00979e-07
9.47053e-06
-2.90293e-07
9.74617e-06
-2.7565e-07
1.00122e-05
-2.66031e-07
1.02732e-05
-2.60975e-07
1.05284e-05
-2.55214e-07
1.07745e-05
-2.46172e-07
1.10068e-05
-2.32313e-07
1.12242e-05
-2.17369e-07
1.14316e-05
-2.07357e-07
1.16326e-05
-2.01031e-07
1.18276e-05
-1.95058e-07
1.20137e-05
-1.86028e-07
1.21871e-05
-1.7342e-07
1.23455e-05
-1.5846e-07
1.24928e-05
-1.47301e-07
1.26309e-05
-1.38068e-07
1.27605e-05
-1.29612e-07
1.28823e-05
-1.21802e-07
1.29939e-05
-1.11634e-07
1.30915e-05
-9.75433e-08
1.31759e-05
-8.44833e-08
1.3251e-05
-7.50808e-08
1.3317e-05
-6.60267e-08
1.33741e-05
-5.70509e-08
1.34222e-05
-4.81068e-08
1.34596e-05
-3.74648e-08
1.34852e-05
-2.55805e-08
1.35001e-05
-1.49258e-08
1.35059e-05
-5.78887e-09
1.35015e-05
4.35356e-09
1.34868e-05
1.47285e-08
1.34632e-05
2.35642e-08
1.34324e-05
3.07952e-08
1.33939e-05
3.84507e-08
1.33471e-05
4.68246e-08
1.32885e-05
5.85331e-08
1.32185e-05
6.99735e-08
1.31435e-05
7.49921e-08
1.30639e-05
7.95914e-08
1.2977e-05
8.69325e-08
1.28817e-05
9.52836e-08
1.27771e-05
1.04548e-07
1.26654e-05
1.11702e-07
1.25483e-05
1.17157e-07
1.24256e-05
1.22642e-07
1.22979e-05
1.27701e-07
1.21646e-05
1.33255e-07
1.20248e-05
1.39871e-07
1.1879e-05
1.45722e-07
1.17289e-05
1.50178e-07
1.15758e-05
1.53076e-07
1.14201e-05
1.55704e-07
1.12596e-05
1.60441e-07
1.10928e-05
1.66785e-07
1.09198e-05
1.73022e-07
1.07434e-05
1.7641e-07
1.0568e-05
1.75413e-07
1.03917e-05
1.76278e-07
1.02126e-05
1.79057e-07
1.00306e-05
1.82016e-07
9.84393e-06
1.86615e-07
9.65273e-06
1.91188e-07
9.46059e-06
1.92125e-07
9.2687e-06
1.91871e-07
9.07568e-06
1.93002e-07
8.88131e-06
1.94358e-07
8.68593e-06
1.95363e-07
8.49021e-06
1.95705e-07
8.29406e-06
1.96127e-07
8.09496e-06
1.99094e-07
7.89207e-06
2.02867e-07
7.68996e-06
2.02102e-07
7.4904e-06
1.9955e-07
7.29148e-06
1.98907e-07
7.09216e-06
1.99304e-07
6.89258e-06
1.99563e-07
6.69189e-06
2.00677e-07
6.48946e-06
2.02414e-07
6.28747e-06
2.01972e-07
6.08778e-06
1.99682e-07
5.89003e-06
1.97732e-07
5.69334e-06
1.96681e-07
5.49737e-06
1.95951e-07
5.30042e-06
1.96941e-07
5.10345e-06
1.96958e-07
4.90947e-06
1.93963e-07
4.71779e-06
1.91668e-07
4.52833e-06
1.89452e-07
4.34171e-06
1.86608e-07
4.15548e-06
1.86212e-07
3.97056e-06
1.84914e-07
3.78976e-06
1.80779e-07
3.61262e-06
1.77135e-07
3.4389e-06
1.73712e-07
3.26734e-06
1.71546e-07
3.09943e-06
1.67902e-07
2.9362e-06
1.63223e-07
2.77818e-06
1.58006e-07
2.6249e-06
1.5328e-07
2.47419e-06
1.507e-07
2.32641e-06
1.47778e-07
2.18339e-06
1.43009e-07
2.04676e-06
1.36625e-07
1.91558e-06
1.31169e-07
1.7876e-06
1.27967e-07
1.66289e-06
1.24705e-07
1.54283e-06
1.20052e-07
1.42694e-06
1.15885e-07
1.31482e-06
1.1211e-07
1.20494e-06
1.09871e-07
1.09643e-06
1.08504e-07
9.90674e-07
1.0575e-07
8.8776e-07
1.02909e-07
7.86233e-07
1.01524e-07
6.84255e-07
1.01975e-07
5.81684e-07
1.02569e-07
4.80181e-07
1.01502e-07
3.79964e-07
1.00217e-07
2.80069e-07
9.98955e-08
1.79176e-07
1.00894e-07
7.66179e-08
1.02559e-07
-2.55471e-08
1.02167e-07
-1.25566e-07
1.00021e-07
-2.22954e-07
9.73905e-08
-3.18095e-07
9.51432e-08
-4.11373e-07
9.32813e-08
-5.02812e-07
9.14411e-08
-5.92298e-07
8.94885e-08
-6.78656e-07
8.63601e-08
-7.61151e-07
8.2498e-08
-8.39838e-07
7.86889e-08
-9.14816e-07
7.49793e-08
-9.86807e-07
7.19935e-08
-1.0556e-06
6.87959e-08
-1.11991e-06
6.43099e-08
-1.17928e-06
5.93742e-08
-1.23391e-06
5.46307e-08
-1.28451e-06
5.0597e-08
-1.33141e-06
4.69e-08
-1.37414e-06
4.27296e-08
-1.41177e-06
3.76354e-08
-1.44428e-06
3.25109e-08
-1.47272e-06
2.84341e-08
-1.49705e-06
2.43313e-08
-1.51663e-06
1.95865e-08
-1.53148e-06
1.48476e-08
-1.54186e-06
1.03761e-08
-1.54791e-06
6.05305e-09
-1.54957e-06
1.66085e-09
-1.54694e-06
-2.63431e-09
-1.54013e-06
-6.80243e-09
-1.52927e-06
-1.08666e-08
-1.5147e-06
-1.45709e-08
-1.49655e-06
-1.81478e-08
-1.47484e-06
-2.1706e-08
-1.44939e-06
-2.54553e-08
-1.42031e-06
-2.90706e-08
-1.38789e-06
-3.24282e-08
-1.35255e-06
-3.53335e-08
-1.31449e-06
-3.80615e-08
-1.2736e-06
-4.08958e-08
-1.22975e-06
-4.38451e-08
-1.18319e-06
-4.65602e-08
-1.13437e-06
-4.88187e-08
-1.08352e-06
-5.08504e-08
-1.03068e-06
-5.28424e-08
-9.76031e-07
-5.46532e-08
-9.19938e-07
-5.60935e-08
-8.62651e-07
-5.72878e-08
-8.03916e-07
-5.87358e-08
-7.43715e-07
-6.02015e-08
-6.82171e-07
-6.15443e-08
-6.19766e-07
-6.24052e-08
-5.56707e-07
-6.30582e-08
-4.93186e-07
-6.352e-08
-4.29496e-07
-6.36881e-08
-3.65441e-07
-6.40527e-08
-3.00979e-07
-6.44595e-08
-2.36418e-07
-6.45587e-08
-1.7237e-07
-6.40459e-08
-1.08652e-07
-6.37167e-08
-4.51007e-08
-6.35495e-08
1.81605e-08
-6.32595e-08
8.07188e-08
-6.25567e-08
1.42708e-07
-6.19879e-08
2.03894e-07
-6.11835e-08
2.63954e-07
-6.00583e-08
3.22932e-07
-5.89756e-08
3.80936e-07
-5.80022e-08
4.38201e-07
-5.72618e-08
4.94742e-07
-5.65387e-08
5.50311e-07
-5.5567e-08
6.04517e-07
-5.42044e-08
6.57945e-07
-5.34258e-08
7.09687e-07
-5.174e-08
7.61394e-07
-5.17062e-08
8.11897e-07
-5.05015e-08
8.62246e-07
-5.03482e-08
9.11259e-07
-4.90127e-08
9.58821e-07
-4.75622e-08
1.00518e-06
-4.63553e-08
1.04902e-06
-4.38455e-08
1.09348e-06
-4.44569e-08
1.13616e-06
-4.26831e-08
1.17657e-06
-4.04082e-08
1.21607e-06
-3.9498e-08
1.25024e-06
-3.41684e-08
1.2796e-06
-2.93558e-08
1.3161e-06
-3.65031e-08
1.34979e-06
-3.36927e-08
1.38135e-06
-3.15521e-08
1.41829e-06
-3.69419e-08
1.42236e-06
-4.06927e-09
1.41442e-06
7.93776e-09
1.44912e-06
-3.4698e-08
1.4598e-06
-1.06787e-08
1.51298e-06
-5.31865e-08
1.60057e-06
-8.75842e-08
1.81785e-06
-2.17279e-07
2.09441e-06
-2.76557e-07
2.27494e-06
-1.8053e-07
2.41526e-06
-1.40323e-07
2.50766e-06
-9.23953e-08
2.57697e-06
-6.93048e-08
2.6288e-06
-5.18338e-08
2.67926e-06
-5.04578e-08
2.72476e-06
-4.5497e-08
2.76666e-06
-4.18935e-08
2.79797e-06
-3.13088e-08
2.8342e-06
-3.62329e-08
2.82412e-06
1.0078e-08
2.79612e-06
2.80024e-08
2.81773e-06
-2.16074e-08
2.81548e-06
2.2564e-09
2.86451e-06
-4.90356e-08
2.96018e-06
-9.566e-08
3.21707e-06
-2.56895e-07
3.54347e-06
-3.26402e-07
3.75567e-06
-2.12198e-07
3.92877e-06
-1.73098e-07
4.03342e-06
-1.04649e-07
4.12094e-06
-8.75155e-08
4.18462e-06
-6.3678e-08
4.23546e-06
-5.08453e-08
4.26792e-06
-3.24533e-08
4.27878e-06
-1.08617e-08
4.28915e-06
-1.03689e-08
4.29793e-06
-8.78341e-09
4.2978e-06
1.34722e-10
4.32135e-06
-2.35484e-08
4.30444e-06
1.69074e-08
4.18086e-06
1.2358e-07
4.08954e-06
9.13213e-08
4.02438e-06
6.51589e-08
3.97558e-06
4.87973e-08
4.1907e-06
-2.1512e-07
4.58766e-06
-3.9696e-07
5.58121e-06
-9.93547e-07
6.81491e-06
-1.2337e-06
7.7918e-06
-9.76895e-07
8.4913e-06
-6.99494e-07
8.9932e-06
-5.01909e-07
9.36369e-06
-3.70485e-07
9.64819e-06
-2.84504e-07
9.87526e-06
-2.2707e-07
1.00573e-05
-1.82039e-07
1.02067e-05
-1.49406e-07
1.03324e-05
-1.25667e-07
1.0442e-05
-1.0962e-07
1.0535e-05
-9.30298e-08
1.06145e-05
-7.9536e-08
1.06861e-05
-7.15649e-08
1.07478e-05
-6.17242e-08
1.08014e-05
-5.35239e-08
1.08509e-05
-4.9577e-08
1.0893e-05
-4.20864e-08
1.09293e-05
-3.62543e-08
1.09618e-05
-3.24921e-08
1.09931e-05
-3.13392e-08
1.10188e-05
-2.57217e-08
1.10394e-05
-2.05401e-08
1.1057e-05
-1.76763e-08
1.10726e-05
-1.56144e-08
1.10863e-05
-1.36147e-08
1.10976e-05
-1.13855e-08
1.11068e-05
-9.15286e-09
1.11141e-05
-7.27457e-09
1.1119e-05
-4.92861e-09
1.1122e-05
-3.02079e-09
1.11217e-05
3.43769e-10
1.11226e-05
-9.55394e-10
1.11246e-05
-2.01343e-09
1.11259e-05
-1.27554e-09
1.11259e-05
-2.85496e-11
1.11245e-05
1.43475e-09
1.11214e-05
3.11765e-09
1.11169e-05
4.47425e-09
1.11115e-05
5.34932e-09
1.11053e-05
6.29215e-09
1.10978e-05
7.40378e-09
1.10893e-05
8.51172e-09
1.10799e-05
9.456e-09
1.10718e-05
8.04538e-09
1.10599e-05
1.18754e-08
1.10454e-05
1.45847e-08
1.103e-05
1.53348e-08
1.10146e-05
1.54539e-08
1.09989e-05
1.56722e-08
1.09833e-05
1.55858e-08
1.09676e-05
1.56654e-08
1.09517e-05
1.59606e-08
1.09352e-05
1.6482e-08
1.09179e-05
1.72702e-08
1.08998e-05
1.8124e-08
1.0881e-05
1.87772e-08
1.0862e-05
1.90178e-08
1.08431e-05
1.89267e-08
1.0824e-05
1.9063e-08
1.08043e-05
1.97214e-08
1.07834e-05
2.08411e-08
1.07615e-05
2.1932e-08
1.07394e-05
2.20861e-08
1.07178e-05
2.15612e-08
1.06964e-05
2.13955e-08
1.06741e-05
2.2335e-08
1.06505e-05
2.36414e-08
1.06269e-05
2.35847e-08
1.06039e-05
2.29571e-08
1.0581e-05
2.28913e-08
1.05557e-05
2.52983e-08
1.05338e-05
2.19564e-08
1.05142e-05
1.95577e-08
1.0497e-05
1.71756e-08
1.04754e-05
2.16096e-08
1.04515e-05
2.38609e-08
1.04271e-05
2.43698e-08
1.04024e-05
2.473e-08
1.03778e-05
2.46084e-08
2.55542e-08
-9.09643e-05
9.35969e-06
-9.10402e-05
1.39067e-06
-9.05158e-05
1.65217e-08
-8.90553e-05
-2.89788e-06
-8.65748e-05
-5.88373e-06
-8.36211e-05
-8.05009e-06
-8.09054e-05
-8.75132e-06
-7.8374e-05
-8.45254e-06
-7.61635e-05
-7.50519e-06
-7.42137e-05
-6.59284e-06
-7.27374e-05
-6.13373e-06
-7.18141e-05
-5.90949e-06
-7.15021e-05
-5.50423e-06
-7.13388e-05
-4.78936e-06
-7.11304e-05
-3.72751e-06
-7.1192e-05
-1.98344e-06
-7.24482e-05
1.03812e-06
-7.47358e-05
4.35508e-06
-7.75704e-05
6.7237e-06
-7.97218e-05
7.48654e-06
-8.01143e-05
7.81264e-06
-7.89474e-05
7.60848e-06
-7.83279e-05
5.60257e-06
-7.91966e-05
3.64418e-06
-8.03697e-05
2.95804e-06
-8.13388e-05
2.51817e-06
-8.21284e-05
1.76482e-06
-8.28225e-05
9.56242e-07
-8.32798e-05
4.8875e-07
-8.35154e-05
2.49264e-07
-8.35675e-05
2.4014e-07
-8.36217e-05
4.53293e-07
-8.38949e-05
7.47655e-07
-8.42872e-05
7.80016e-07
-8.47262e-05
6.34149e-07
-8.50194e-05
4.99386e-07
-8.50529e-05
3.51691e-07
-8.48681e-05
1.52432e-07
-8.44957e-05
-3.70077e-07
-8.40174e-05
-1.18717e-06
-8.35706e-05
-1.52647e-06
-8.30079e-05
-1.47602e-06
-8.23807e-05
-9.8861e-07
-8.19341e-05
-3.52489e-07
-8.16445e-05
-7.60732e-08
-8.13051e-05
-3.07994e-07
-8.07523e-05
-1.13616e-06
-8.00383e-05
-1.86034e-06
-7.92133e-05
-1.97031e-06
-7.83994e-05
-1.62594e-06
-7.7728e-05
-1.14469e-06
-7.71952e-05
-7.99768e-07
-7.67723e-05
-7.96196e-07
-7.63281e-05
-1.12686e-06
-7.56935e-05
-1.5831e-06
-7.48289e-05
-1.87023e-06
-7.38159e-05
-2.06876e-06
-7.26771e-05
-2.35895e-06
-7.14715e-05
-2.63634e-06
-7.02969e-05
-2.7933e-06
-6.92121e-05
-2.56841e-06
-6.82045e-05
-2.01151e-06
-6.7195e-05
-1.61959e-06
-6.60032e-05
-1.75619e-06
-6.45834e-05
-2.33059e-06
-6.32555e-05
-2.62448e-06
-6.21791e-05
-2.27664e-06
-6.13077e-05
-1.75325e-06
-6.03629e-05
-1.78878e-06
-5.93093e-05
-2.32651e-06
-5.80452e-05
-3.07498e-06
-5.64238e-05
-4.0268e-06
-5.44937e-05
-4.7983e-06
-5.25355e-05
-5.35589e-06
-5.07672e-05
-5.70988e-06
-4.93525e-05
-6.12443e-06
-4.80448e-05
-7.29183e-06
-4.72363e-05
-8.65835e-06
-4.46549e-05
-9.13282e-06
-3.87004e-05
-8.82294e-06
-3.09731e-05
-9.65401e-06
-2.34412e-05
-7.49229e-06
-1.92757e-05
-3.69576e-06
-1.62492e-05
-1.9976e-06
-1.51928e-05
4.19137e-07
-1.50505e-05
1.24986e-06
-1.5633e-05
1.83582e-06
-1.74816e-05
2.84244e-06
-1.97016e-05
2.95979e-06
-2.11169e-05
1.85956e-06
-2.21782e-05
1.1742e-06
-2.27286e-05
5.00739e-07
-2.29308e-05
7.68691e-08
-2.28927e-05
-1.91432e-07
-2.28019e-05
-2.60296e-07
-2.26164e-05
-3.12789e-07
-2.24369e-05
-3.63279e-07
-2.23181e-05
-3.90295e-07
-2.28806e-05
-3.14227e-07
-2.36297e-05
2.57671e-07
-2.38607e-05
2.95941e-07
-2.303e-05
-7.21341e-07
-2.2374e-05
-5.24392e-07
-2.23363e-05
-4.43285e-08
-2.20143e-05
1.0285e-07
-2.16977e-05
2.50769e-08
-2.14407e-05
-1.29626e-07
-2.13801e-05
3.40546e-08
-2.16446e-05
2.36452e-07
-2.19409e-05
2.01986e-07
-2.19616e-05
-1.29099e-07
-2.19194e-05
-2.02033e-07
-2.17736e-05
-3.91314e-07
-2.1597e-05
-5.0927e-07
-2.14916e-05
-7.49922e-07
-2.1423e-05
-9.9635e-07
-2.15329e-05
-1.33828e-06
-2.12157e-05
-1.39322e-06
-2.03079e-05
-1.19669e-06
-1.88966e-05
-1.41746e-06
-1.77318e-05
-9.81745e-07
-1.7286e-05
-3.90081e-07
-1.70222e-05
-1.79448e-09
-1.70168e-05
1.94559e-07
-1.70647e-05
8.47264e-08
-1.73199e-05
3.24668e-07
-1.75051e-05
2.44327e-07
-1.74988e-05
2.67601e-08
-1.7499e-05
4.71781e-08
-1.74964e-05
2.4092e-08
-1.74939e-05
-2.4517e-09
-1.75097e-05
1.27014e-08
-1.75059e-05
-2.71985e-08
-1.7465e-05
-8.09177e-08
-1.74119e-05
-9.75261e-08
-1.73417e-05
-1.24541e-07
-1.72709e-05
-1.36381e-07
-1.71906e-05
-1.59151e-07
-1.71094e-05
-1.67223e-07
-1.70185e-05
-1.86305e-07
-1.69153e-05
-2.07348e-07
-1.68004e-05
-2.2986e-07
-1.66744e-05
-2.54014e-07
-1.6538e-05
-2.7527e-07
-1.63946e-05
-2.84119e-07
-1.62418e-05
-3.00442e-07
-1.60764e-05
-3.26033e-07
-1.58957e-05
-3.58356e-07
-1.57033e-05
-3.87503e-07
-1.55041e-05
-4.05624e-07
-1.52986e-05
-4.15744e-07
-1.50793e-05
-4.32161e-07
-1.48444e-05
-4.60305e-07
-1.45924e-05
-5.00361e-07
-1.43279e-05
-5.31316e-07
-1.40577e-05
-5.46769e-07
-1.37796e-05
-5.62823e-07
-1.34856e-05
-5.87709e-07
-1.31708e-05
-6.21935e-07
-1.28408e-05
-6.52024e-07
-1.25033e-05
-6.7198e-07
-1.21579e-05
-6.93882e-07
-1.17987e-05
-7.22669e-07
-1.14225e-05
-7.55432e-07
-1.10355e-05
-7.75823e-07
-1.06411e-05
-7.87187e-07
-1.02317e-05
-8.16726e-07
-9.80455e-06
-8.55598e-07
-9.36741e-06
-8.77113e-07
-8.9268e-06
-8.81249e-07
-8.47642e-06
-8.97282e-07
-8.01127e-06
-9.32199e-07
-7.53159e-06
-9.64242e-07
-7.04604e-06
-9.76314e-07
-6.55779e-06
-9.76176e-07
-6.06154e-06
-9.86722e-07
-5.55768e-06
-1.01125e-06
-5.04583e-06
-1.03257e-06
-4.52947e-06
-1.0387e-06
-4.0093e-06
-1.03982e-06
-3.48323e-06
-1.04855e-06
-2.958e-06
-1.05525e-06
-2.43928e-06
-1.0426e-06
-1.92449e-06
-1.02831e-06
-1.41349e-06
-1.02248e-06
-9.04253e-07
-1.02424e-06
-3.95514e-07
-1.02433e-06
1.08461e-07
-1.00811e-06
6.04314e-07
-9.84294e-07
1.08681e-06
-9.58e-07
1.55413e-06
-9.34088e-07
2.01214e-06
-9.19636e-07
2.46456e-06
-9.08711e-07
2.91299e-06
-8.96524e-07
3.3549e-06
-8.7552e-07
3.78591e-06
-8.53029e-07
4.20321e-06
-8.29992e-07
4.60984e-06
-8.12912e-07
5.01142e-06
-8.04849e-07
5.40866e-06
-7.95851e-07
5.79655e-06
-7.76491e-07
6.17212e-06
-7.49053e-07
6.53891e-06
-7.2849e-07
6.89912e-06
-7.14694e-07
7.25222e-06
-7.03652e-07
7.59634e-06
-6.89686e-07
7.93017e-06
-6.69698e-07
8.25456e-06
-6.48347e-07
8.5713e-06
-6.29711e-07
8.8809e-06
-6.16125e-07
9.18144e-06
-6.01534e-07
9.47007e-06
-5.78938e-07
9.74756e-06
-5.53152e-07
1.00173e-05
-5.35817e-07
1.02801e-05
-5.23748e-07
1.05342e-05
-5.09308e-07
1.07786e-05
-4.90602e-07
1.10121e-05
-4.65834e-07
1.12334e-05
-4.38685e-07
1.14437e-05
-4.17676e-07
1.16453e-05
-4.02573e-07
1.18389e-05
-3.88749e-07
1.20229e-05
-3.70026e-07
1.21962e-05
-3.46653e-07
1.23576e-05
-3.19953e-07
1.25076e-05
-2.97248e-07
1.26467e-05
-2.77205e-07
1.27761e-05
-2.59036e-07
1.2896e-05
-2.4166e-07
1.30058e-05
-2.21455e-07
1.31042e-05
-1.96002e-07
1.31908e-05
-1.7108e-07
1.32666e-05
-1.50893e-07
1.33329e-05
-1.32372e-07
1.33902e-05
-1.14387e-07
1.34381e-05
-9.59517e-08
1.34753e-05
-7.46881e-08
1.35006e-05
-5.08966e-08
1.35142e-05
-2.85736e-08
1.35182e-05
-9.76371e-09
1.35133e-05
9.15376e-09
1.35005e-05
2.75272e-08
1.34789e-05
4.51438e-08
1.34475e-05
6.21711e-08
1.34067e-05
7.92396e-08
1.33571e-05
9.64765e-08
1.32977e-05
1.17842e-07
1.32303e-05
1.37405e-07
1.3156e-05
1.49239e-07
1.3075e-05
1.60662e-07
1.29861e-05
1.75795e-07
1.28884e-05
1.92943e-07
1.27832e-05
2.09734e-07
1.26727e-05
2.22185e-07
1.2557e-05
2.32839e-07
1.24349e-05
2.44791e-07
1.2306e-05
2.56534e-07
1.217e-05
2.69228e-07
1.20275e-05
2.82458e-07
1.18819e-05
2.91263e-07
1.17335e-05
2.98604e-07
1.15806e-05
3.05941e-07
1.14232e-05
3.13094e-07
1.12608e-05
3.22842e-07
1.1093e-05
3.34563e-07
1.09211e-05
3.44926e-07
1.07465e-05
3.50987e-07
1.05706e-05
3.51242e-07
1.03927e-05
3.54187e-07
1.02118e-05
3.59886e-07
1.00278e-05
3.66074e-07
9.84089e-06
3.73448e-07
9.65207e-06
3.79983e-07
9.46137e-06
3.82798e-07
9.26857e-06
3.84634e-07
9.0741e-06
3.87451e-07
8.87895e-06
3.8947e-07
8.68329e-06
3.90995e-07
8.48715e-06
3.91815e-07
8.29006e-06
3.9319e-07
8.09052e-06
3.98609e-07
7.88929e-06
4.04072e-07
7.68847e-06
4.02891e-07
7.48876e-06
3.99239e-07
7.28887e-06
3.98768e-07
7.08796e-06
4.00188e-07
6.88683e-06
4.00664e-07
6.68616e-06
4.01318e-07
6.48571e-06
4.02842e-07
6.28572e-06
4.01932e-07
6.08651e-06
3.98864e-07
5.88759e-06
3.9662e-07
5.68906e-06
3.95184e-07
5.49199e-06
3.92995e-07
5.29646e-06
3.92449e-07
5.1025e-06
3.90891e-07
4.90965e-06
3.86787e-07
4.71672e-06
3.84575e-07
4.52537e-06
3.80773e-07
4.33782e-06
3.7414e-07
4.15376e-06
3.70248e-07
3.97197e-06
3.66681e-07
3.79097e-06
3.61755e-07
3.61185e-06
3.56239e-07
3.43807e-06
3.47477e-07
3.26887e-06
3.40729e-07
3.10235e-06
3.34401e-07
2.93839e-06
3.27167e-07
2.77884e-06
3.1755e-07
2.62431e-06
3.07787e-07
2.47428e-06
3.00722e-07
2.32821e-06
2.93828e-07
2.18505e-06
2.86159e-07
2.04648e-06
2.75174e-07
1.91357e-06
2.64073e-07
1.78543e-06
2.56085e-07
1.66121e-06
2.48914e-07
1.53978e-06
2.41468e-07
1.42091e-06
2.34744e-07
1.30567e-06
2.27331e-07
1.19423e-06
2.21303e-07
1.08578e-06
2.16951e-07
9.7927e-07
2.1225e-07
8.73855e-07
2.08319e-07
7.68992e-07
2.06383e-07
6.65219e-07
2.05747e-07
5.62701e-07
2.05086e-07
4.61022e-07
2.03181e-07
3.59697e-07
2.01544e-07
2.58138e-07
2.01457e-07
1.56714e-07
2.02321e-07
5.58153e-08
2.03463e-07
-4.44561e-08
2.02443e-07
-1.43431e-07
1.99e-07
-2.40804e-07
1.94769e-07
-3.36477e-07
1.9082e-07
-4.29888e-07
1.86697e-07
-5.2059e-07
1.82148e-07
-6.08674e-07
1.77576e-07
-6.94193e-07
1.71882e-07
-7.76851e-07
1.65159e-07
-8.55981e-07
1.57822e-07
-9.31456e-07
1.50456e-07
-1.00351e-06
1.44049e-07
-1.07133e-06
1.36616e-07
-1.13472e-06
1.27704e-07
-1.19402e-06
1.18673e-07
-1.24913e-06
1.09742e-07
-1.29995e-06
1.01422e-07
-1.34627e-06
9.32244e-08
-1.38803e-06
8.44821e-08
-1.42525e-06
7.48651e-08
-1.45795e-06
6.52126e-08
-1.48603e-06
5.65148e-08
-1.50956e-06
4.7862e-08
-1.52879e-06
3.88185e-08
-1.54377e-06
2.98265e-08
-1.55418e-06
2.07826e-08
-1.55994e-06
1.18191e-08
-1.56129e-06
3.0058e-09
-1.55844e-06
-5.47678e-09
-1.55155e-06
-1.36947e-08
-1.54052e-06
-2.18951e-08
-1.52549e-06
-2.95967e-08
-1.50661e-06
-3.70286e-08
-1.48404e-06
-4.42779e-08
-1.45802e-06
-5.14802e-08
-1.42859e-06
-5.84915e-08
-1.39596e-06
-6.50609e-08
-1.36024e-06
-7.10514e-08
-1.32158e-06
-7.67235e-08
-1.28013e-06
-8.23507e-08
-1.23591e-06
-8.80639e-08
-1.18905e-06
-9.34259e-08
-1.13985e-06
-9.80182e-08
-1.08859e-06
-1.02108e-07
-1.03554e-06
-1.05889e-07
-9.80639e-07
-1.0956e-07
-9.23916e-07
-1.12817e-07
-8.65632e-07
-1.15572e-07
-8.06111e-07
-1.18257e-07
-7.4553e-07
-1.20782e-07
-6.83792e-07
-1.2328e-07
-6.21225e-07
-1.24971e-07
-5.57989e-07
-1.26293e-07
-4.94275e-07
-1.27232e-07
-4.30066e-07
-1.27894e-07
-3.65516e-07
-1.286e-07
-3.00849e-07
-1.29124e-07
-2.36329e-07
-1.29076e-07
-1.7179e-07
-1.28582e-07
-1.0741e-07
-1.28094e-07
-4.34183e-08
-1.27538e-07
1.9769e-08
-1.26444e-07
8.23637e-08
-1.25148e-07
1.44315e-07
-1.23935e-07
2.05682e-07
-1.22547e-07
2.66213e-07
-1.20585e-07
3.25941e-07
-1.18699e-07
3.84121e-07
-1.16178e-07
4.41567e-07
-1.14703e-07
4.97772e-07
-1.12739e-07
5.53219e-07
-1.1101e-07
6.074e-07
-1.08382e-07
6.61249e-07
-1.07271e-07
7.13089e-07
-1.03577e-07
7.64508e-07
-1.03123e-07
8.13669e-07
-9.966e-08
8.62176e-07
-9.88537e-08
9.11465e-07
-9.82997e-08
9.59644e-07
-9.57396e-08
1.00896e-06
-9.56721e-08
1.0546e-06
-8.94843e-08
1.09976e-06
-8.96098e-08
1.13801e-06
-8.09312e-08
1.17268e-06
-7.50823e-08
1.21457e-06
-8.13848e-08
1.25783e-06
-7.74305e-08
1.30111e-06
-7.26336e-08
1.34322e-06
-7.86108e-08
1.34848e-06
-3.89526e-08
1.3403e-06
-2.33672e-08
1.37681e-06
-7.34476e-08
1.42365e-06
-5.09174e-08
1.52232e-06
-9.07296e-08
1.6346e-06
-1.46973e-07
1.86531e-06
-2.4139e-07
2.13569e-06
-3.2356e-07
2.31496e-06
-2.66855e-07
2.40798e-06
-3.10299e-07
2.42794e-06
-2.96515e-07
2.47165e-06
-2.24232e-07
2.50838e-06
-1.77054e-07
2.56497e-06
-1.48983e-07
2.61721e-06
-1.21541e-07
2.67721e-06
-1.11822e-07
2.72942e-06
-1.02673e-07
2.77657e-06
-9.26431e-08
2.77708e-06
-4.23931e-08
2.75518e-06
-9.41232e-09
2.78868e-06
-6.97279e-08
2.83607e-06
-3.73015e-08
2.95193e-06
-8.78547e-08
3.08694e-06
-1.56618e-07
3.36763e-06
-2.78434e-07
3.6926e-06
-3.73998e-07
3.90808e-06
-3.11138e-07
4.01461e-06
-3.63425e-07
4.03054e-06
-3.42327e-07
4.07922e-06
-2.60876e-07
4.11915e-06
-2.13026e-07
4.16322e-06
-1.48719e-07
4.18288e-06
-1.07175e-07
4.20823e-06
-8.9029e-08
4.23801e-06
-8.06154e-08
4.27945e-06
-7.3897e-08
4.32243e-06
-5.38452e-08
4.38483e-06
-7.27669e-08
4.39551e-06
-1.94611e-08
4.28031e-06
1.15333e-07
4.17728e-06
7.94806e-08
4.14187e-06
5.23245e-08
4.22218e-06
4.32638e-08
4.58034e-06
-2.66841e-07
5.17324e-06
-5.27741e-07
6.31909e-06
-1.09705e-06
7.47505e-06
-1.37108e-06
8.34735e-06
-1.26925e-06
8.79839e-06
-1.44459e-06
8.92643e-06
-1.36175e-06
9.11588e-06
-1.16634e-06
9.31372e-06
-8.97336e-07
9.51192e-06
-7.00111e-07
9.69907e-06
-5.5763e-07
9.86974e-06
-4.55184e-07
1.00239e-05
-3.81186e-07
1.01611e-05
-3.19326e-07
1.02821e-05
-2.70318e-07
1.03906e-05
-2.34209e-07
1.04867e-05
-2.05767e-07
1.0571e-05
-1.77311e-07
1.06456e-05
-1.54082e-07
1.07121e-05
-1.38145e-07
1.07712e-05
-1.20782e-07
1.08237e-05
-1.05992e-07
1.08708e-05
-9.67479e-08
1.09127e-05
-8.39735e-08
1.09501e-05
-7.35931e-08
1.09833e-05
-6.57488e-08
1.1013e-05
-6.10595e-08
1.10388e-05
-5.14758e-08
1.10609e-05
-4.26881e-08
1.10801e-05
-3.68731e-08
1.10966e-05
-3.21441e-08
1.11103e-05
-2.73011e-08
1.11218e-05
-2.28366e-08
1.11312e-05
-1.85578e-08
1.11386e-05
-1.46956e-08
1.11438e-05
-1.01046e-08
1.11473e-05
-6.51879e-09
1.11493e-05
-1.71001e-09
1.11503e-05
-1.93248e-09
1.11502e-05
-1.88942e-09
1.1149e-05
-1.06735e-10
1.11467e-05
2.21775e-09
1.11434e-05
4.7963e-09
1.11393e-05
7.18036e-09
1.11341e-05
9.71315e-09
1.11278e-05
1.15745e-08
1.11207e-05
1.3433e-08
1.11124e-05
1.56441e-08
1.11028e-05
1.81313e-08
1.10925e-05
1.9734e-08
1.10813e-05
1.93073e-08
1.10687e-05
2.4425e-08
1.10555e-05
2.7764e-08
1.10417e-05
2.91751e-08
1.10272e-05
2.99707e-08
1.10121e-05
3.07199e-08
1.09964e-05
3.13251e-08
1.09802e-05
3.18528e-08
1.09637e-05
3.24796e-08
1.09467e-05
3.34169e-08
1.09292e-05
3.4788e-08
1.0911e-05
3.63291e-08
1.08922e-05
3.75354e-08
1.08731e-05
3.80954e-08
1.08538e-05
3.83135e-08
1.0834e-05
3.88387e-08
1.08133e-05
4.04196e-08
1.07917e-05
4.24597e-08
1.077e-05
4.35892e-08
1.07487e-05
4.33947e-08
1.07272e-05
4.30445e-08
1.07048e-05
4.37888e-08
1.06817e-05
4.54088e-08
1.06588e-05
4.65364e-08
1.06367e-05
4.56912e-08
1.06141e-05
4.5548e-08
1.05906e-05
4.63648e-08
1.05668e-05
4.91466e-08
1.05439e-05
4.49044e-08
1.05215e-05
4.19456e-08
1.04983e-05
4.03267e-08
1.04741e-05
4.58707e-08
1.04498e-05
4.81481e-08
1.04259e-05
4.82627e-08
1.04025e-05
4.81353e-08
1.03784e-05
4.86545e-08
5.17625e-08
-8.77388e-05
7.87109e-06
-8.72224e-05
8.72148e-07
-8.67655e-05
-4.41985e-07
-8.58111e-05
-3.85344e-06
-8.44656e-05
-7.23008e-06
-8.32454e-05
-9.27094e-06
-8.2321e-05
-9.67605e-06
-8.13547e-05
-9.41915e-06
-8.04903e-05
-8.36973e-06
-8.01775e-05
-6.90572e-06
-8.0941e-05
-5.37029e-06
-8.27978e-05
-4.05259e-06
-8.53805e-05
-2.92149e-06
-8.78852e-05
-2.28462e-06
-8.97769e-05
-1.8357e-06
-9.09253e-05
-8.34979e-07
-9.0993e-05
1.10594e-06
-8.99992e-05
3.36129e-06
-8.84805e-05
5.20512e-06
-8.72309e-05
6.23698e-06
-8.60361e-05
6.61784e-06
-8.45833e-05
6.15582e-06
-8.36439e-05
4.66315e-06
-8.36352e-05
3.63556e-06
-8.38017e-05
3.12458e-06
-8.39505e-05
2.667e-06
-8.43061e-05
2.1205e-06
-8.48582e-05
1.50834e-06
-8.52069e-05
8.37521e-07
-8.52665e-05
3.08895e-07
-8.51989e-05
1.72618e-07
-8.50241e-05
2.7858e-07
-8.50109e-05
7.34534e-07
-8.52238e-05
9.93016e-07
-8.55574e-05
9.67792e-07
-8.56806e-05
6.22697e-07
-8.53859e-05
5.71237e-08
-8.47882e-05
-4.45225e-07
-8.42012e-05
-9.56943e-07
-8.39523e-05
-1.43603e-06
-8.37928e-05
-1.68587e-06
-8.35409e-05
-1.72779e-06
-8.30045e-05
-1.52494e-06
-8.22162e-05
-1.14064e-06
-8.1422e-05
-8.70143e-07
-8.06596e-05
-1.07038e-06
-8.00648e-05
-1.73083e-06
-7.96587e-05
-2.26629e-06
-7.92402e-05
-2.38873e-06
-7.8639e-05
-2.2271e-06
-7.79322e-05
-1.85135e-06
-7.71961e-05
-1.53586e-06
-7.65946e-05
-1.39759e-06
-7.6106e-05
-1.61531e-06
-7.56174e-05
-2.07167e-06
-7.49726e-05
-2.5149e-06
-7.41929e-05
-2.84841e-06
-7.33203e-05
-3.23146e-06
-7.24028e-05
-3.55384e-06
-7.15022e-05
-3.69383e-06
-7.05812e-05
-3.48935e-06
-6.95063e-05
-3.08635e-06
-6.81547e-05
-2.97115e-06
-6.6492e-05
-3.41875e-06
-6.47711e-05
-4.0515e-06
-6.33875e-05
-4.00803e-06
-6.22573e-05
-3.40677e-06
-6.11814e-05
-2.82912e-06
-6.01087e-05
-2.86138e-06
-5.91028e-05
-3.33235e-06
-5.80856e-05
-4.09215e-06
-5.69556e-05