/*--------------------------------*- C++ -*----------------------------------*\
| =========                 |                                                 |
| \\      /  F ield         | OpenFOAM: The Open Source CFD Toolbox           |
|  \\    /   O peration     | Version:  v2006                                 |
|   \\  /    A nd           | Website:  www.openfoam.com                      |
|    \\/     M anipulation  |                                                 |
\*---------------------------------------------------------------------------*/
FoamFile
{
    version     2.0;
    format      ascii;
    class       volVectorField;
    location    "5.8";
    object      U;
}
// * * * * * * * * * * * * * * * * * * * * * * * * * * * * * * * * * * * * * //

dimensions      [0 1 -1 0 0 0 0];


internalField   nonuniform List<vector> 
33000
(
(-0.266088 0 0.020023)
(-0.23598 0 0.00382237)
(-0.24682 0 0.00210895)
(-0.245948 0 -0.00459659)
(-0.239596 0 -0.00965352)
(-0.228695 0 -0.0144172)
(-0.213561 0 -0.0179093)
(-0.198755 0 -0.0178338)
(-0.184211 0 -0.0160582)
(-0.172152 0 -0.013371)
(-0.160164 0 -0.0132171)
(-0.14875 0 -0.0143783)
(-0.135531 0 -0.016893)
(-0.122972 0 -0.0165539)
(-0.113078 0 -0.0144421)
(-0.105775 0 -0.0114351)
(-0.103252 0 -0.0102105)
(-0.105279 0 -0.00893802)
(-0.112707 0 -0.00562299)
(-0.123895 0 0.00361127)
(-0.138714 0 0.0195211)
(-0.158988 0 0.031464)
(-0.183536 0 0.0222188)
(-0.193285 0 0.00758321)
(-0.196543 0 0.00305389)
(-0.201949 0 0.00298923)
(-0.205146 0 0.00199196)
(-0.206181 0 0.000157964)
(-0.206337 0 -0.000380791)
(-0.206215 0 -0.000327598)
(-0.206168 0 0.000737707)
(-0.207104 0 0.00134647)
(-0.208347 0 0.00136175)
(-0.209606 0 0.000825763)
(-0.210187 0 0.000317286)
(-0.210617 0 0.000407783)
(-0.211104 0 0.00105109)
(-0.212248 0 0.0011883)
(-0.212919 0 0.000359309)
(-0.2121 0 -0.00142269)
(-0.209391 0 -0.0027573)
(-0.206442 0 -0.00182075)
(-0.204868 0 -3.6095e-05)
(-0.204811 0 0.000684265)
(-0.20544 0 0.000895893)
(-0.206112 0 0.000340124)
(-0.205531 0 -0.00124237)
(-0.202863 0 -0.00262807)
(-0.199641 0 -0.00226601)
(-0.197157 0 -0.00132221)
(-0.195621 0 -0.000551292)
(-0.195103 0 -0.00018224)
(-0.194515 0 -0.000715372)
(-0.193134 0 -0.00158692)
(-0.190798 0 -0.00209392)
(-0.188294 0 -0.00190771)
(-0.18584 0 -0.00185739)
(-0.183042 0 -0.00227328)
(-0.17976 0 -0.00290986)
(-0.175824 0 -0.00359132)
(-0.171657 0 -0.00321469)
(-0.168568 0 -0.00177911)
(-0.166782 0 -0.000621438)
(-0.165566 0 -0.000425752)
(-0.163766 0 -0.00131897)
(-0.160676 0 -0.00253132)
(-0.157373 0 -0.00238123)
(-0.154949 0 -0.0016351)
(-0.153087 0 -0.00149002)
(-0.150466 0 -0.00267133)
(-0.146576 0 -0.00396283)
(-0.14116 0 -0.00528661)
(-0.134553 0 -0.00630936)
(-0.126849 0 -0.00779835)
(-0.117442 0 -0.00951274)
(-0.106902 0 -0.0125989)
(-0.0912487 0 -0.0162066)
(-0.0806302 0 -0.0234006)
(-0.0527576 0 -0.0128611)
(-0.0467245 0 0.00252031)
(-0.0384568 0 0.00661003)
(-0.0374058 0 0.0100109)
(-0.0385145 0 0.00237971)
(-0.039673 0 0.00122017)
(-0.043785 0 0.00092398)
(-0.0469951 0 0.00416976)
(-0.0506937 0 0.00284599)
(-0.0533445 0 0.000931446)
(-0.0556026 0 -5.22333e-05)
(-0.0571096 0 -0.000474022)
(-0.0577507 0 -4.53356e-05)
(-0.0577178 0 -0.00016164)
(-0.0574922 0 0.000282561)
(-0.0570741 0 7.91379e-05)
(-0.0567652 0 0.000223646)
(-0.0561427 0 0.000149206)
(-0.056283 0 0.000293819)
(-0.0549338 0 -0.000150168)
(-0.0554249 0 -0.00372424)
(-0.050329 0 -0.00477131)
(-0.0524639 0 -0.00178648)
(-0.0513348 0 0.0027851)
(-0.0526774 0 0.00411074)
(-0.0520246 0 0.00182058)
(-0.052764 0 0.000588361)
(-0.0540376 0 -0.00106694)
(-0.0544735 0 -0.00120858)
(-0.0547285 0 -0.00117761)
(-0.054889 0 -0.000313778)
(-0.0546455 0 6.46383e-05)
(-0.0543719 0 6.61795e-05)
(-0.053922 0 -7.50482e-05)
(-0.0535778 0 -0.000653866)
(-0.0526343 0 -0.000977771)
(-0.0520362 0 -0.00206784)
(-0.0491716 0 -0.0027108)
(-0.0478244 0 -0.00486254)
(-0.0417133 0 -0.0024728)
(-0.042083 0 0.000856981)
(-0.0407744 0 0.00256717)
(-0.0418203 0 0.00211991)
(-0.0417094 0 -2.70124e-05)
(-0.0421658 0 -0.00029297)
(-0.0429651 0 -0.000314016)
(-0.0431408 0 0.000125871)
(-0.0432073 0 0.000358446)
(-0.0434521 0 0.000365184)
(-0.0435111 0 0.000107445)
(-0.043625 0 6.39062e-05)
(-0.0437383 0 1.53639e-05)
(-0.0437548 0 4.63233e-05)
(-0.0437479 0 5.14025e-05)
(-0.0437304 0 1.34453e-05)
(-0.043635 0 -4.96888e-05)
(-0.0435303 0 -6.38979e-05)
(-0.0434113 0 -9.93506e-05)
(-0.0432601 0 -0.000121286)
(-0.0430794 0 -0.000148951)
(-0.0428696 0 -0.000162172)
(-0.0426458 0 -0.000185279)
(-0.0423948 0 -0.000199331)
(-0.0421229 0 -0.000223796)
(-0.0418206 0 -0.000246664)
(-0.0414814 0 -0.000272574)
(-0.0411288 0 -0.000267271)
(-0.0407748 0 -0.000283471)
(-0.0403917 0 -0.000307315)
(-0.03997 0 -0.00034785)
(-0.0395036 0 -0.000382261)
(-0.0389951 0 -0.000411721)
(-0.0384709 0 -0.000415767)
(-0.0379439 0 -0.00041384)
(-0.0374063 0 -0.000434683)
(-0.036815 0 -0.000489455)
(-0.0361648 0 -0.00052639)
(-0.0354819 0 -0.000550693)
(-0.0347808 0 -0.000568033)
(-0.0340589 0 -0.000580711)
(-0.0333109 0 -0.000597655)
(-0.0325233 0 -0.000628181)
(-0.0317011 0 -0.000659203)
(-0.0308499 0 -0.000692282)
(-0.0299591 0 -0.000722111)
(-0.0290316 0 -0.000750003)
(-0.0280631 0 -0.000767917)
(-0.0270877 0 -0.000774121)
(-0.0260982 0 -0.000801796)
(-0.0250506 0 -0.00084498)
(-0.0239562 0 -0.000868658)
(-0.022851 0 -0.000868531)
(-0.0217528 0 -0.0008776)
(-0.020615 0 -0.000919588)
(-0.019418 0 -0.000956341)
(-0.0181922 0 -0.000970019)
(-0.0169643 0 -0.000960498)
(-0.0157525 0 -0.000959111)
(-0.014511 0 -0.000999379)
(-0.0132157 0 -0.00102865)
(-0.0119079 0 -0.00103124)
(-0.0106036 0 -0.00102248)
(-0.00931 0 -0.0010224)
(-0.00799038 0 -0.00104383)
(-0.00666092 0 -0.00103204)
(-0.00537087 0 -0.00100779)
(-0.00409302 0 -0.00100742)
(-0.00281385 0 -0.00101914)
(-0.00151782 0 -0.00101947)
(-0.000236133 0 -0.000989247)
(0.00100319 0 -0.000952096)
(0.0022063 0 -0.00092831)
(0.00338003 0 -0.000918561)
(0.00454063 0 -0.00091157)
(0.00568706 0 -0.00089949)
(0.0068227 0 -0.000879257)
(0.00792598 0 -0.000844011)
(0.0089914 0 -0.000821781)
(0.0100353 0 -0.000808621)
(0.0110548 0 -0.000799976)
(0.0120667 0 -0.000794341)
(0.0130706 0 -0.000784253)
(0.0140597 0 -0.000764583)
(0.0150126 0 -0.000732535)
(0.0159274 0 -0.000706286)
(0.0168208 0 -0.000691641)
(0.0176998 0 -0.000686959)
(0.0185734 0 -0.000680533)
(0.019427 0 -0.00066207)
(0.0202527 0 -0.000636937)
(0.0210464 0 -0.000612054)
(0.0218178 0 -0.000599863)
(0.0225787 0 -0.00059193)
(0.0233225 0 -0.00057215)
(0.0240296 0 -0.000540287)
(0.0247012 0 -0.000519504)
(0.0253599 0 -0.000511681)
(0.0260059 0 -0.000502988)
(0.0266358 0 -0.000485362)
(0.0272367 0 -0.00045501)
(0.0277968 0 -0.000423414)
(0.0283243 0 -0.000405391)
(0.0288333 0 -0.000395418)
(0.0293298 0 -0.000384711)
(0.0298079 0 -0.000367221)
(0.0302604 0 -0.00034103)
(0.030674 0 -0.000308641)
(0.0310535 0 -0.000287045)
(0.0314102 0 -0.000270807)
(0.0317439 0 -0.000254969)
(0.0320583 0 -0.00024106)
(0.0323528 0 -0.000220831)
(0.0326161 0 -0.000190859)
(0.0328405 0 -0.000164079)
(0.0330389 0 -0.000146848)
(0.0332157 0 -0.000129629)
(0.0333689 0 -0.000112332)
(0.033501 0 -9.46706e-05)
(0.0336092 0 -7.27901e-05)
(0.0336883 0 -4.96416e-05)
(0.033737 0 -3.05397e-05)
(0.0337631 0 -1.31666e-05)
(0.0337655 0 7.4397e-06)
(0.0337415 0 3.08145e-05)
(0.0336918 0 4.81951e-05)
(0.0336238 0 5.99043e-05)
(0.0335376 0 7.40942e-05)
(0.0334316 0 9.03713e-05)
(0.0333032 0 0.000114782)
(0.0331386 0 0.000139729)
(0.032954 0 0.000147635)
(0.0327635 0 0.000155092)
(0.0325557 0 0.000169562)
(0.032329 0 0.000186144)
(0.0320789 0 0.000205281)
(0.0318065 0 0.000220759)
(0.0315204 0 0.00023173)
(0.0312206 0 0.000240984)
(0.0309071 0 0.000250006)
(0.0305822 0 0.000259551)
(0.0302406 0 0.000272965)
(0.029883 0 0.000287968)
(0.029512 0 0.000297175)
(0.0291321 0 0.000301044)
(0.0287467 0 0.000304628)
(0.0283534 0 0.000313797)
(0.0279443 0 0.000327173)
(0.0275196 0 0.000341678)
(0.0270791 0 0.000348613)
(0.026638 0 0.000344264)
(0.0262016 0 0.000344817)
(0.0257567 0 0.000350468)
(0.0253062 0 0.000357654)
(0.0248466 0 0.000369233)
(0.0243729 0 0.000378532)
(0.0238909 0 0.000377751)
(0.0234121 0 0.000375314)
(0.0229314 0 0.000378198)
(0.022447 0 0.000382408)
(0.0219595 0 0.000384394)
(0.0214702 0 0.000384533)
(0.0209809 0 0.0003852)
(0.0204894 0 0.000392326)
(0.0199852 0 0.000400534)
(0.0194754 0 0.000397702)
(0.0189745 0 0.000391537)
(0.0184775 0 0.000390018)
(0.0179799 0 0.000390652)
(0.017481 0 0.000391939)
(0.016982 0 0.000395631)
(0.0164774 0 0.000399497)
(0.01597 0 0.00039836)
(0.0154675 0 0.00039243)
(0.0149716 0 0.000387737)
(0.0144786 0 0.000385536)
(0.0139882 0 0.000384304)
(0.0134987 0 0.000388123)
(0.0130035 0 0.000389678)
(0.012514 0 0.000381807)
(0.0120335 0 0.000375354)
(0.0115556 0 0.000370719)
(0.0110862 0 0.000365941)
(0.0106225 0 0.000367806)
(0.010155 0 0.000366402)
(0.00969806 0 0.000355232)
(0.00925075 0 0.000346101)
(0.00881257 0 0.000341143)
(0.00838188 0 0.000339291)
(0.00795501 0 0.000331421)
(0.00754219 0 0.000320289)
(0.00713894 0 0.000309135)
(0.00675209 0 0.000299853)
(0.00637247 0 0.000296542)
(0.00599857 0 0.000292422)
(0.00563354 0 0.000281358)
(0.00528354 0 0.000267121)
(0.00495032 0 0.000256618)
(0.00462766 0 0.000251888)
(0.00431039 0 0.000246189)
(0.00400418 0 0.000235273)
(0.00371 0 0.000225593)
(0.00342478 0 0.000218044)
(0.00314937 0 0.000215338)
(0.00287538 0 0.000214353)
(0.00260684 0 0.000207818)
(0.0023466 0 0.000200527)
(0.00209227 0 0.000197411)
(0.00183895 0 0.000199767)
(0.00158237 0 0.000202409)
(0.00132612 0 0.000199916)
(0.00107485 0 0.000196336)
(0.000825012 0 0.000195018)
(0.000575393 0 0.00019791)
(0.000320505 0 0.000203023)
(6.26461e-05 0 0.000202139)
(-0.000190378 0 0.000197002)
(-0.000437432 0 0.000191265)
(-0.00067734 0 0.000186556)
(-0.000913129 0 0.000183297)
(-0.00114373 0 0.000180463)
(-0.00137033 0 0.000177026)
(-0.00159115 0 0.000170329)
(-0.00180211 0 0.000161744)
(-0.00200363 0 0.000154091)
(-0.00219554 0 0.000146838)
(-0.00237852 0 0.000141335)
(-0.00255551 0 0.000136086)
(-0.00272246 0 0.000127117)
(-0.00287707 0 0.000116697)
(-0.00301931 0 0.00010706)
(-0.00315023 0 9.92763e-05)
(-0.00327228 0 9.26947e-05)
(-0.00338472 0 8.50009e-05)
(-0.00348592 0 7.45243e-05)
(-0.00357289 0 6.38079e-05)
(-0.00364849 0 5.62973e-05)
(-0.00371504 0 4.86036e-05)
(-0.00377013 0 3.88249e-05)
(-0.00381297 0 2.9078e-05)
(-0.00384437 0 2.03502e-05)
(-0.00386485 0 1.21071e-05)
(-0.00387464 0 3.42321e-06)
(-0.00387313 0 -5.07248e-06)
(-0.00386149 0 -1.34975e-05)
(-0.00383909 0 -2.14226e-05)
(-0.00380719 0 -2.87101e-05)
(-0.0037662 0 -3.54589e-05)
(-0.00371649 0 -4.24576e-05)
(-0.00365763 0 -4.98034e-05)
(-0.00358926 0 -5.74277e-05)
(-0.00351223 0 -6.42604e-05)
(-0.00342716 0 -7.02807e-05)
(-0.00333553 0 -7.50872e-05)
(-0.00323688 0 -8.10272e-05)
(-0.00313102 0 -8.68051e-05)
(-0.00301769 0 -9.2688e-05)
(-0.00289821 0 -9.67713e-05)
(-0.00277362 0 -0.000101156)
(-0.00264393 0 -0.000104966)
(-0.00250945 0 -0.000108835)
(-0.00237065 0 -0.000111145)
(-0.00222902 0 -0.000113205)
(-0.00208418 0 -0.000116284)
(-0.00193537 0 -0.00011925)
(-0.00178315 0 -0.00012229)
(-0.00162767 0 -0.000123181)
(-0.00147112 0 -0.000125032)
(-0.00131237 0 -0.000124494)
(-0.00115354 0 -0.00012589)
(-0.000993888 0 -0.000124402)
(-0.000833301 0 -0.000127193)
(-0.000671553 0 -0.000124619)
(-0.000510533 0 -0.000125578)
(-0.000351289 0 -0.000121235)
(-0.000191955 0 -0.000124137)
(-3.35171e-05 0 -0.000119883)
(0.000124361 0 -0.000121842)
(0.000279246 0 -0.000116253)
(0.000434369 0 -0.000118383)
(0.000585067 0 -0.000111091)
(0.000734809 0 -0.000112629)
(0.000879775 0 -0.000106424)
(0.00102505 0 -0.000108088)
(0.00116583 0 -0.000102845)
(0.00130807 0 -0.000102827)
(0.00144331 0 -9.84798e-05)
(0.0015795 0 -9.57461e-05)
(0.00171002 0 -9.43988e-05)
(0.00183865 0 -8.76679e-05)
(0.00196815 0 -9.4143e-05)
(0.00209148 0 -8.36852e-05)
(0.00221968 0 -0.00010034)
(0.00233659 0 -8.46102e-05)
(0.00245763 0 -0.00010432)
(0.00256806 0 -8.1694e-05)
(0.00267731 0 -9.66072e-05)
(0.00278983 0 -7.16675e-05)
(0.00289123 0 -8.74113e-05)
(0.00299142 0 -8.0138e-05)
(0.00308912 0 -0.000104152)
(0.00316178 0 -7.64547e-05)
(0.00323653 0 -7.61851e-05)
(0.00334377 0 -1.14413e-05)
(0.00340516 0 -1.83256e-05)
(0.00350187 0 -7.37983e-05)
(0.00358912 0 -0.000166144)
(0.00352229 0 -0.000153818)
(0.00355091 0 -9.09849e-05)
(0.00369385 0 0.000297441)
(0.00360483 0 0.000365198)
(0.00396309 0 3.40383e-05)
(0.00403459 0 -0.000507599)
(0.0050554 0 -0.000912127)
(0.00542124 0 -0.000501402)
(0.00594924 0 -0.000407566)
(0.00613046 0 -0.000266293)
(0.00640473 0 -0.000204347)
(0.00648229 0 -0.000194386)
(0.00666048 0 -9.69965e-05)
(0.00673611 0 -0.000101933)
(0.00688831 0 1.73501e-05)
(0.00694351 0 -1.34621e-05)
(0.00704829 0 -3.08984e-05)
(0.00712039 0 -0.000145338)
(0.00700119 0 -8.99454e-05)
(0.0069796 0 -4.28073e-05)
(0.00710958 0 0.000431324)
(0.0069652 0 0.000490035)
(0.00736489 0 0.000128084)
(0.00742434 0 -0.00056044)
(0.00866447 0 -0.00102533)
(0.00905911 0 -0.00055011)
(0.0097144 0 -0.000467016)
(0.00993282 0 -0.000219247)
(0.0102313 0 -0.000174936)
(0.0103759 0 -8.37535e-05)
(0.0105449 0 -0.000106662)
(0.0106343 0 -8.38983e-05)
(0.0107034 0 -0.000108714)
(0.010692 0 -6.21968e-05)
(0.0107533 0 -1.1311e-06)
(0.0107356 0 0.000143949)
(0.0107553 0 6.59164e-05)
(0.0108492 0 -3.66983e-05)
(0.0106732 0 -0.000228866)
(0.0102324 0 -0.000270804)
(0.010216 0 0.000158725)
(0.00990013 0 0.00128806)
(0.00999168 0 0.00109408)
(0.010945 0 0.000455866)
(0.0119962 0 -0.00168236)
(0.0159422 0 -0.00368067)
(0.017967 0 -0.00264867)
(0.020558 0 -0.00184763)
(0.0219528 0 -0.00128149)
(0.0229686 0 -0.00090398)
(0.0237853 0 -0.000663058)
(0.0244196 0 -0.000509071)
(0.0249262 0 -0.000394157)
(0.0253382 0 -0.000315731)
(0.0256793 0 -0.000259324)
(0.0259715 0 -0.000223812)
(0.026225 0 -0.00018768)
(0.0264405 0 -0.000158623)
(0.026628 0 -0.000142531)
(0.026795 0 -0.000122177)
(0.0269391 0 -0.000105126)
(0.0270668 0 -9.79257e-05)
(0.027182 0 -8.24798e-05)
(0.0272804 0 -7.0455e-05)
(0.0273655 0 -6.30165e-05)
(0.0274442 0 -6.2113e-05)
(0.0275165 0 -5.04156e-05)
(0.027575 0 -3.96048e-05)
(0.0276222 0 -3.39496e-05)
(0.0276634 0 -3.01826e-05)
(0.0276998 0 -2.71538e-05)
(0.0277311 0 -2.27629e-05)
(0.0277568 0 -1.79854e-05)
(0.0277772 0 -1.43249e-05)
(0.0277924 0 -9.79256e-06)
(0.0278027 0 -5.88147e-06)
(0.0278064 0 2.07643e-06)
(0.0278064 0 -1.93391e-06)
(0.0278093 0 -5.40664e-06)
(0.0278139 0 -3.96594e-06)
(0.0278158 0 -1.26363e-06)
(0.0278141 0 1.94334e-06)
(0.0278085 0 6.50265e-06)
(0.0277989 0 9.17463e-06)
(0.0277865 0 1.06586e-05)
(0.0277719 0 1.25523e-05)
(0.0277549 0 1.4856e-05)
(0.0277352 0 1.67485e-05)
(0.0277123 0 1.89642e-05)
(0.0276897 0 1.44745e-05)
(0.0276657 0 2.32669e-05)
(0.0276333 0 2.98948e-05)
(0.0275953 0 3.15108e-05)
(0.0275565 0 3.14811e-05)
(0.0275176 0 3.18698e-05)
(0.0274784 0 3.14426e-05)
(0.0274393 0 3.12958e-05)
(0.0273998 0 3.17926e-05)
(0.0273593 0 3.2857e-05)
(0.0273171 0 3.45364e-05)
(0.0272729 0 3.63463e-05)
(0.0272267 0 3.77959e-05)
(0.0271793 0 3.83464e-05)
(0.0271318 0 3.78659e-05)
(0.0270843 0 3.79804e-05)
(0.027036 0 3.90213e-05)
(0.0269854 0 4.09102e-05)
(0.0269318 0 4.39526e-05)
(0.0268765 0 4.50766e-05)
(0.0268217 0 4.38234e-05)
(0.0267681 0 4.25526e-05)
(0.0267137 0 4.3963e-05)
(0.0266563 0 4.71578e-05)
(0.0265968 0 4.80939e-05)
(0.0265383 0 4.64356e-05)
(0.0264816 0 4.51902e-05)
(0.0264224 0 5.06202e-05)
(0.0263607 0 4.33001e-05)
(0.0263144 0 3.8129e-05)
(0.0262556 0 3.08345e-05)
(0.0262516 0 4.13268e-05)
(0.0260209 0 4.72736e-05)
(0.0265216 0 4.938e-05)
(0.0249639 0 5.1609e-05)
(0.0283099 0 5.20418e-05)
(0.0216855 0 5.38756e-05)
(-0.24785 0 0.0367935)
(-0.222787 0 0.00695935)
(-0.228585 0 0.00184565)
(-0.224688 0 -0.00723484)
(-0.220073 0 -0.0178677)
(-0.212717 0 -0.0268179)
(-0.205303 0 -0.0310096)
(-0.198991 0 -0.0302664)
(-0.192699 0 -0.0271255)
(-0.187943 0 -0.0246463)
(-0.18254 0 -0.0248425)
(-0.180051 0 -0.0262316)
(-0.178667 0 -0.0254565)
(-0.178344 0 -0.0213912)
(-0.178116 0 -0.0147824)
(-0.178273 0 -0.00603843)
(-0.179479 0 0.00795517)
(-0.183474 0 0.0239929)
(-0.191031 0 0.0340333)
(-0.198328 0 0.0355138)
(-0.200096 0 0.0357145)
(-0.198455 0 0.0344879)
(-0.194298 0 0.0247502)
(-0.196249 0 0.0136285)
(-0.200325 0 0.0104602)
(-0.202771 0 0.00877399)
(-0.204911 0 0.00552248)
(-0.206474 0 0.00190075)
(-0.207939 0 0.00064756)
(-0.208606 0 0.000444079)
(-0.208992 0 0.000778421)
(-0.208809 0 0.00183254)
(-0.209266 0 0.00236227)
(-0.210125 0 0.00219261)
(-0.211345 0 0.00127312)
(-0.212327 0 0.0012172)
(-0.212711 0 0.00146114)
(-0.212581 0 0.00144035)
(-0.211716 0 -0.000356227)
(-0.210543 0 -0.00410303)
(-0.20952 0 -0.00567873)
(-0.208207 0 -0.00528976)
(-0.206694 0 -0.00276475)
(-0.205086 0 3.73747e-05)
(-0.204539 0 0.000734865)
(-0.203809 0 -0.000121875)
(-0.202703 0 -0.00336748)
(-0.201071 0 -0.00641642)
(-0.19904 0 -0.00672787)
(-0.196928 0 -0.00500074)
(-0.194941 0 -0.00310206)
(-0.193593 0 -0.00188452)
(-0.192446 0 -0.00228728)
(-0.191516 0 -0.00384183)
(-0.190178 0 -0.00538206)
(-0.188223 0 -0.00593219)
(-0.185809 0 -0.00641221)
(-0.183112 0 -0.00739137)
(-0.1801 0 -0.00841336)
(-0.177054 0 -0.00917232)
(-0.17439 0 -0.0084658)
(-0.171794 0 -0.00610174)
(-0.169323 0 -0.00410112)
(-0.166593 0 -0.00397343)
(-0.163147 0 -0.00594337)
(-0.159635 0 -0.00770847)
(-0.156594 0 -0.00691959)
(-0.154403 0 -0.00518017)
(-0.152181 0 -0.0050948)
(-0.149599 0 -0.00730645)
(-0.146794 0 -0.0101622)
(-0.143167 0 -0.0134801)
(-0.138497 0 -0.0160739)
(-0.133734 0 -0.0187019)
(-0.128579 0 -0.0212119)
(-0.124822 0 -0.0241423)
(-0.1217 0 -0.0305757)
(-0.121056 0 -0.0365099)
(-0.114329 0 -0.0378971)
(-0.103635 0 -0.0247027)
(-0.0927081 0 -0.0224794)
(-0.0632078 0 -0.0100126)
(-0.0536953 0 0.00109705)
(-0.0425297 0 0.0069721)
(-0.0388123 0 0.0109429)
(-0.0372193 0 0.00691876)
(-0.0379862 0 0.00701879)
(-0.0401929 0 0.00685856)
(-0.0472392 0 0.00580042)
(-0.0512455 0 0.00394752)
(-0.0543419 0 0.000907145)
(-0.0565269 0 -0.000210924)
(-0.057154 0 -0.00127136)
(-0.057451 0 -0.00125831)
(-0.0570567 0 -0.00154052)
(-0.0569114 0 -0.00111064)
(-0.0562087 0 -0.00166117)
(-0.0559467 0 -0.00189836)
(-0.0556482 0 -0.00291198)
(-0.0588219 0 0.00110206)
(-0.0591029 0 0.00223441)
(-0.0605763 0 -0.0022706)
(-0.0546157 0 -0.00345456)
(-0.0568179 0 -0.00191128)
(-0.0551092 0 0.00288327)
(-0.0548437 0 0.0039918)
(-0.053725 0 0.00226937)
(-0.0534383 0 0.00195341)
(-0.0535135 0 1.66866e-05)
(-0.0547112 0 -0.00088479)
(-0.0549489 0 -0.00129423)
(-0.0548751 0 -0.00118816)
(-0.0547161 0 -0.00125314)
(-0.0541404 0 -0.00161845)
(-0.0538683 0 -0.00294826)
(-0.0535722 0 -0.0045425)
(-0.0535476 0 -0.00634169)
(-0.0541895 0 -0.00585378)
(-0.0516481 0 -0.00315671)
(-0.0502571 0 -0.00282871)
(-0.0441988 0 -0.000967361)
(-0.0441532 0 0.000439651)
(-0.0424407 0 0.00246165)
(-0.0426397 0 0.00201667)
(-0.0424438 0 0.000166439)
(-0.0429163 0 0.000152775)
(-0.0436811 0 5.06801e-05)
(-0.0438039 0 0.000140527)
(-0.0437139 0 0.000309587)
(-0.0437688 0 0.000208059)
(-0.043718 0 -5.05243e-05)
(-0.0437524 0 -8.34782e-05)
(-0.0437974 0 -0.000209143)
(-0.0437243 0 -0.000268282)
(-0.0436049 0 -0.000288306)
(-0.0434483 0 -0.000323497)
(-0.0432656 0 -0.000391271)
(-0.0430837 0 -0.000467078)
(-0.0428738 0 -0.000511826)
(-0.0426701 0 -0.000562357)
(-0.042423 0 -0.000618567)
(-0.0421521 0 -0.000678462)
(-0.0418501 0 -0.000758747)
(-0.0415207 0 -0.000817423)
(-0.0411697 0 -0.00083927)
(-0.0408023 0 -0.000876324)
(-0.0404065 0 -0.000955568)
(-0.0399744 0 -0.00104763)
(-0.039504 0 -0.00115042)
(-0.0390116 0 -0.00121055)
(-0.0385093 0 -0.00123587)
(-0.0379827 0 -0.00125881)
(-0.0374135 0 -0.00133759)
(-0.0368076 0 -0.00146217)
(-0.0361542 0 -0.00156998)
(-0.0354852 0 -0.00162262)
(-0.0348032 0 -0.00166886)
(-0.0340943 0 -0.0017277)
(-0.0333331 0 -0.00181594)
(-0.0325205 0 -0.00190237)
(-0.0316837 0 -0.00196977)
(-0.0308328 0 -0.00204545)
(-0.0299564 0 -0.00213467)
(-0.0290368 0 -0.00222982)
(-0.0280757 0 -0.00228799)
(-0.0271024 0 -0.00231222)
(-0.0261028 0 -0.00239935)
(-0.0250556 0 -0.00252198)
(-0.023967 0 -0.00258882)
(-0.0228708 0 -0.0025942)
(-0.0217632 0 -0.0026346)
(-0.0206192 0 -0.00275075)
(-0.0194369 0 -0.00285153)
(-0.0182214 0 -0.00288661)
(-0.0170095 0 -0.00287388)
(-0.0157796 0 -0.00289567)
(-0.0145288 0 -0.00298802)
(-0.0132596 0 -0.00306338)
(-0.01197 0 -0.00307367)
(-0.0106777 0 -0.00306146)
(-0.00936922 0 -0.003084)
(-0.00804729 0 -0.00312187)
(-0.00674342 0 -0.0030854)
(-0.00545341 0 -0.00302851)
(-0.0041696 0 -0.00301286)
(-0.00289844 0 -0.00302862)
(-0.00162304 0 -0.00303292)
(-0.000354627 0 -0.00297331)
(0.000897273 0 -0.00288741)
(0.00212501 0 -0.00280937)
(0.0033092 0 -0.00274978)
(0.00446229 0 -0.00271593)
(0.00559876 0 -0.00268596)
(0.00672486 0 -0.00264182)
(0.00784053 0 -0.00256365)
(0.00893449 0 -0.00249479)
(0.00999523 0 -0.00243425)
(0.0110212 0 -0.00239224)
(0.0120285 0 -0.00237416)
(0.0130291 0 -0.00234763)
(0.0140146 0 -0.00228864)
(0.0149681 0 -0.00220192)
(0.0158929 0 -0.00213596)
(0.0168018 0 -0.00209382)
(0.0176942 0 -0.00206754)
(0.018567 0 -0.00203449)
(0.0194148 0 -0.00197671)
(0.0202361 0 -0.00190833)
(0.0210368 0 -0.00184712)
(0.0218198 0 -0.0018087)
(0.0225847 0 -0.00177296)
(0.0233223 0 -0.00170874)
(0.0240278 0 -0.00162562)
(0.02471 0 -0.00157103)
(0.0253767 0 -0.00153901)
(0.0260236 0 -0.00150225)
(0.0266471 0 -0.00144878)
(0.0272457 0 -0.00137039)
(0.0278144 0 -0.00128483)
(0.0283525 0 -0.00122409)
(0.0288658 0 -0.00118415)
(0.0293605 0 -0.00114784)
(0.0298337 0 -0.00109438)
(0.0302807 0 -0.00102153)
(0.0306995 0 -0.000936593)
(0.0310884 0 -0.000870593)
(0.031449 0 -0.000814081)
(0.0317843 0 -0.000763435)
(0.0320959 0 -0.000715918)
(0.0323835 0 -0.000656197)
(0.0326448 0 -0.000575591)
(0.0328757 0 -0.000499903)
(0.0330778 0 -0.00044318)
(0.0332547 0 -0.000389187)
(0.0334094 0 -0.000335976)
(0.0335413 0 -0.000283312)
(0.0336484 0 -0.000221616)
(0.0337274 0 -0.000151426)
(0.0337747 0 -8.66953e-05)
(0.0337959 0 -3.22193e-05)
(0.0337943 0 2.67893e-05)
(0.033772 0 8.4837e-05)
(0.0337301 0 0.000136815)
(0.0336641 0 0.000182066)
(0.033573 0 0.0002281)
(0.0334603 0 0.000277622)
(0.0333243 0 0.000345192)
(0.033164 0 0.00040993)
(0.0329871 0 0.000441538)
(0.0327928 0 0.00047035)
(0.0325816 0 0.000513538)
(0.0323484 0 0.000562575)
(0.0320932 0 0.000616229)
(0.0318226 0 0.000656847)
(0.0315407 0 0.000688705)
(0.0312441 0 0.000722624)
(0.0309299 0 0.000753399)
(0.0306001 0 0.000787539)
(0.0302497 0 0.00082614)
(0.0298875 0 0.00085699)
(0.0295218 0 0.000882723)
(0.0291453 0 0.000901662)
(0.0287574 0 0.000918812)
(0.0283584 0 0.000946883)
(0.0279451 0 0.000983351)
(0.0275197 0 0.00101776)
(0.0270854 0 0.00103741)
(0.026647 0 0.00103399)
(0.0262059 0 0.00104029)
(0.0257574 0 0.00105648)
(0.0253016 0 0.00107255)
(0.0248371 0 0.0010971)
(0.0243673 0 0.0011236)
(0.023893 0 0.0011318)
(0.0234138 0 0.00113231)
(0.0229291 0 0.00113829)
(0.0224415 0 0.0011447)
(0.0219533 0 0.00115061)
(0.0214631 0 0.00115319)
(0.0209727 0 0.00115584)
(0.0204775 0 0.00117204)
(0.0199751 0 0.00119341)
(0.0194714 0 0.00119024)
(0.018971 0 0.0011764)
(0.0184728 0 0.00117287)
(0.0179716 0 0.00117536)
(0.0174683 0 0.00117611)
(0.016966 0 0.00118116)
(0.0164649 0 0.00119089)
(0.0159638 0 0.00118854)
(0.0154649 0 0.00117651)
(0.0149677 0 0.0011659)
(0.0144703 0 0.00115983)
(0.0139751 0 0.00115534)
(0.0134849 0 0.00115926)
(0.0129975 0 0.00115779)
(0.0125151 0 0.00114218)
(0.0120331 0 0.00113065)
(0.0115506 0 0.00111787)
(0.0110764 0 0.00110029)
(0.0106128 0 0.00109527)
(0.0101561 0 0.00108644)
(0.0097039 0 0.00106518)
(0.00925099 0 0.00104572)
(0.00880848 0 0.00102374)
(0.00838192 0 0.00100853)
(0.00796255 0 0.000987791)
(0.00754926 0 0.000962197)
(0.00714284 0 0.000932369)
(0.00675145 0 0.000904512)
(0.0063702 0 0.000887519)
(0.00600132 0 0.000868654)
(0.00563977 0 0.00084228)
(0.00528561 0 0.00080638)
(0.00494689 0 0.000774003)
(0.00462105 0 0.000753553)
(0.00430617 0 0.000733612)
(0.00399996 0 0.000707996)
(0.00369898 0 0.000684952)
(0.00340567 0 0.000662852)
(0.00312277 0 0.000647951)
(0.00284848 0 0.000638179)
(0.00258044 0 0.000623094)
(0.00231599 0 0.000608091)
(0.00205332 0 0.000600331)
(0.00179171 0 0.000601514)
(0.00153443 0 0.000603521)
(0.00127914 0 0.000597636)
(0.00102602 0 0.000591139)
(0.000772516 0 0.000589957)
(0.000518219 0 0.000594906)
(0.000265412 0 0.000602856)
(1.36883e-05 0 0.000600657)
(-0.000235943 0 0.000588946)
(-0.000481212 0 0.000574022)
(-0.000722805 0 0.000561072)
(-0.000959578 0 0.000549688)
(-0.00118985 0 0.000538042)
(-0.0014131 0 0.000526124)
(-0.00163027 0 0.000508243)
(-0.00184069 0 0.000486497)
(-0.00204355 0 0.00046422)
(-0.00223633 0 0.000442322)
(-0.00242095 0 0.000424359)
(-0.00259657 0 0.000404463)
(-0.00276005 0 0.000378183)
(-0.00291353 0 0.000349835)
(-0.00305653 0 0.000322206)
(-0.00318908 0 0.000298294)
(-0.00331064 0 0.000275814)
(-0.0034207 0 0.00025073)
(-0.00351939 0 0.000221188)
(-0.00360684 0 0.000191652)
(-0.00368288 0 0.00016712)
(-0.00374724 0 0.000142568)
(-0.00380053 0 0.000115074)
(-0.0038434 0 8.75933e-05)
(-0.0038754 0 6.11871e-05)
(-0.00389543 0 3.54568e-05)
(-0.00390423 0 9.63262e-06)
(-0.00390215 0 -1.56235e-05)
(-0.00389001 0 -3.99411e-05)
(-0.00386768 0 -6.39542e-05)
(-0.00383487 0 -8.5766e-05)
(-0.00379255 0 -0.000107133)
(-0.00374045 0 -0.000128087)
(-0.0036797 0 -0.000150207)
(-0.00361031 0 -0.000170972)
(-0.0035326 0 -0.000190522)
(-0.00344714 0 -0.000207316)
(-0.00335402 0 -0.000223962)
(-0.00325382 0 -0.000240278)
(-0.00314676 0 -0.000257681)
(-0.00303273 0 -0.000273114)
(-0.00291244 0 -0.000286789)
(-0.00278674 0 -0.000298356)
(-0.00265615 0 -0.000310202)
(-0.00252153 0 -0.000320555)
(-0.00238159 0 -0.00032957)
(-0.00223797 0 -0.000336908)
(-0.00209012 0 -0.000345192)
(-0.00194044 0 -0.000353753)
(-0.00178712 0 -0.00036124)
(-0.00163186 0 -0.000367146)
(-0.00147416 0 -0.000370396)
(-0.00131581 0 -0.000374613)
(-0.00115546 0 -0.000374494)
(-0.000994922 0 -0.000378915)
(-0.000832547 0 -0.00037926)
(-0.000671766 0 -0.00038269)
(-0.000509756 0 -0.000377645)
(-0.000349272 0 -0.000379496)
(-0.000187649 0 -0.000375205)
(-2.95294e-05 0 -0.000377257)
(0.000128525 0 -0.00036971)
(0.000283202 0 -0.000370914)
(0.00043854 0 -0.000362409)
(0.000589757 0 -0.000360938)
(0.000741489 0 -0.000350862)
(0.00088808 0 -0.00034945)
(0.0010327 0 -0.00034197)
(0.00117501 0 -0.000341531)
(0.00131398 0 -0.000333967)
(0.00145204 0 -0.00032755)
(0.00158503 0 -0.000324295)
(0.00172122 0 -0.000312252)
(0.00184417 0 -0.000318931)
(0.00197853 0 -0.000302743)
(0.00208955 0 -0.000312269)
(0.00222174 0 -0.000284771)
(0.00233508 0 -0.000289374)
(0.00246375 0 -0.000259827)
(0.00258041 0 -0.00026296)
(0.00269325 0 -0.000252662)
(0.00280491 0 -0.000263847)
(0.00288556 0 -0.000230099)
(0.00297756 0 -0.000230127)
(0.00309557 0 -0.000163978)
(0.00319333 0 -0.000153823)
(0.00331259 0 -0.000210652)
(0.00340299 0 -0.000253748)
(0.00333912 0 -0.000230224)
(0.00336334 0 -0.000216174)
(0.00352007 0 0.000136015)
(0.00359846 0 0.000218465)
(0.00401511 0 -0.000181674)
(0.00415374 0 -0.000384984)
(0.00517183 0 -0.000787678)
(0.00551276 0 -0.000721942)
(0.00605779 0 -0.00119741)
(0.005983 0 -0.00125815)
(0.00615813 0 -0.000916243)
(0.00619722 0 -0.000694514)
(0.00634849 0 -0.000458721)
(0.00647242 0 -0.00033952)
(0.00661756 0 -0.000211236)
(0.00676513 0 -0.000299886)
(0.00688449 0 -0.000255298)
(0.00699637 0 -0.000348864)
(0.00688894 0 -0.000233595)
(0.00688864 0 -0.000254466)
(0.00705373 0 0.000228192)
(0.0071269 0 0.000313056)
(0.00763655 0 -0.000127832)
(0.00779022 0 -0.000421234)
(0.00904512 0 -0.000886333)
(0.00943158 0 -0.000881255)
(0.0100978 0 -0.0014558)
(0.00998156 0 -0.00153389)
(0.0101686 0 -0.00111629)
(0.0102278 0 -0.000891928)
(0.0103688 0 -0.000603172)
(0.0104455 0 -0.000513133)
(0.0104715 0 -0.000416397)
(0.0105666 0 -0.000293024)
(0.010627 0 -0.000169606)
(0.0107661 0 2.35219e-05)
(0.0108507 0 -1.81912e-05)
(0.0110685 0 -7.0322e-05)
(0.0109114 0 -0.000143237)
(0.0104897 0 -0.000253041)
(0.0103987 0 0.000175981)
(0.0103053 0 0.00120368)
(0.0108203 0 0.000991811)
(0.0120611 0 0.000339282)
(0.0138084 0 -0.000914864)
(0.0178251 0 -0.00279178)
(0.0195792 0 -0.00353763)
(0.0216013 0 -0.00609961)
(0.0224413 0 -0.00592657)
(0.0224778 0 -0.00507484)
(0.0229827 0 -0.00362865)
(0.0235247 0 -0.00264358)
(0.0240131 0 -0.00199317)
(0.0244609 0 -0.00155902)
(0.0248685 0 -0.0012646)
(0.0252339 0 -0.00102872)
(0.0255572 0 -0.00085252)
(0.0258435 0 -0.000723821)
(0.0260992 0 -0.000634009)
(0.026325 0 -0.000540972)
(0.0265233 0 -0.000464871)
(0.0266993 0 -0.000418459)
(0.0268563 0 -0.000362629)
(0.0269957 0 -0.000314986)
(0.0271199 0 -0.000290663)
(0.0272313 0 -0.000248677)
(0.0273302 0 -0.000214957)
(0.0274183 0 -0.000191853)
(0.0274968 0 -0.000183054)
(0.0275664 0 -0.000151688)
(0.0276263 0 -0.000122123)
(0.0276777 0 -0.000104883)
(0.0277223 0 -9.21531e-05)
(0.0277602 0 -7.9189e-05)
(0.0277914 0 -6.61999e-05)
(0.0278174 0 -5.34779e-05)
(0.0278384 0 -4.23668e-05)
(0.0278542 0 -2.84165e-05)
(0.0278652 0 -1.75352e-05)
(0.0278715 0 9.212e-07)
(0.0278759 0 -5.36109e-06)
(0.0278764 0 -1.00508e-05)
(0.027875 0 -5.81627e-06)
(0.0278707 0 1.39332e-06)
(0.0278637 0 9.96693e-06)
(0.0278542 0 1.85067e-05)
(0.0278427 0 2.64439e-05)
(0.0278284 0 3.19157e-05)
(0.0278115 0 3.75394e-05)
(0.0277924 0 4.4158e-05)
(0.0277701 0 5.12205e-05)
(0.0277451 0 5.65943e-05)
(0.0277181 0 5.02784e-05)
(0.0276885 0 6.98124e-05)
(0.0276562 0 8.35021e-05)
(0.0276223 0 8.78734e-05)
(0.0275869 0 8.93134e-05)
(0.0275499 0 9.10196e-05)
(0.0275114 0 9.17353e-05)
(0.0274715 0 9.26621e-05)
(0.0274305 0 9.43871e-05)
(0.0273886 0 9.72814e-05)
(0.0273456 0 0.000101696)
(0.0273009 0 0.000106658)
(0.0272547 0 0.000110439)
(0.0272073 0 0.000111842)
(0.0271591 0 0.000111593)
(0.0271102 0 0.000112474)
(0.0270598 0 0.000116788)
(0.0270068 0 0.000123747)
(0.0269525 0 0.000129024)
(0.0268985 0 0.000129049)
(0.0268452 0 0.000126465)
(0.0267906 0 0.000126644)
(0.0267337 0 0.000132202)
(0.0266758 0 0.000138385)
(0.0266194 0 0.000136696)
(0.0265639 0 0.000133783)
(0.0265065 0 0.000134116)
(0.0264476 0 0.000147239)
(0.0263868 0 0.000131148)
(0.0263375 0 0.000117851)