0 	1.000003
0.006666667 	1.000003
0.01333333 	1.000003
0.02 	1.000003
0.02666667 	1.000003
0.03333333 	1.000004
0.04 	1.000004
0.04666667 	1.000004
0.05333333 	1.000004
0.06 	1.000004
0.06666667 	1.000004
0.07333333 	1.000004
0.08 	1.000004
0.08666667 	1.000004
0.09333333 	1.000004
0.1 	1.000003
0.1066667 	1.000003
0.1133333 	1.000004
0.12 	1.000004
0.1266667 	1.000004
0.1333333 	1.000004
0.14 	1.000004
0.1466667 	1.000004
0.1533333 	1.000004
0.16 	1.000004
0.1666667 	1.000004
0.1733333 	1.000004
0.18 	1.000003
0.1866667 	1.000003
0.1933333 	1.000003
0.2 	1.000003
0.2066667 	1.000003
0.2133333 	1.000003
0.22 	1.000003
0.2266667 	1.000003
0.2333333 	1.000004
0.24 	1.000004
0.2466667 	1.000004
0.2533333 	1.000004
0.26 	1.000004
0.2666667 	1.000004
0.2733333 	1.000004
0.28 	1.000004
0.2866667 	1.000004
0.2933333 	1.000004
0.3 	1.000004
0.3066667 	1.000004
0.3133333 	1.000004
0.32 	1.000004
0.3266667 	1.000003
0.3333333 	1.000003
0.34 	1.000004
0.3466667 	1.000004
0.3533333 	1.000004
0.36 	1.000004
0.3666667 	1.000004
0.3733333 	1.000004
0.38 	1.000004
0.3866667 	1.000004
0.3933333 	1.000004
0.4 	1.000004
0.4066667 	1.000003
0.4133333 	1.000003
0.42 	1.000003
0.4266667 	1.000003
0.4333333 	1.000003
0.44 	1.000003
0.4466667 	1.000003
0.4533333 	1.000003
0.46 	1.000003
0.4666667 	1.000003
0.4733333 	1.000003
0.48 	1.000002
0.4866667 	1.000002
0.4933333 	1.000002
0.5 	1.000002
0.5066667 	1.000002
0.5133333 	1.000002
0.52 	1.000002
0.5266667 	1.000002
0.5333333 	1.000002
0.54 	1.000002
0.5466667 	1.000002
0.5533333 	1.000002
0.56 	1.000002
0.5666667 	1.000002
0.5733333 	1.000002
0.58 	1.000002
0.5866667 	1.000002
0.5933333 	1.000002
0.6 	1.000002
0.6066667 	1.000002
0.6133333 	1.000002
0.62 	1.000001
0.6266667 	1.000001
0.6333333 	1.000001
0.64 	1.000001
0.6466667 	1.000001
0.6533333 	1.000001
0.66 	1.000001
0.6666667 	1.000001
0.6733333 	1.000001
0.68 	1.000001
0.6866667 	1.000001
0.6933333 	1.000001
0.7 	1.000001
0.7066667 	1.000001
0.7133333 	1.000001
0.72 	1.000001
0.7266667 	1.000001
0.7333333 	1.000001
0.74 	1.000001
0.7466667 	1.000001
0.7533333 	1.000001
0.76 	1.000001
0.7666667 	1.000001
0.7733333 	0.9999994
0.78 	0.999998
0.7866667 	0.9999967
0.7933333 	0.9999954
0.8 	0.999994
0.8066667 	0.9966245
0.8133333 	0.9932549
0.82 	0.9898853
0.8266667 	0.9865157
0.8333333 	0.9831461
0.84 	0.8834916
0.8466667 	0.7838371
0.8533333 	0.6841826
0.86 	0.5845281
0.8666667 	0.4848737
0.8733333 	0.3882433
0.88 	0.2916128
0.8866667 	0.1949824
0.8933333 	0.09835203
0.9 	0.001721621
0.9066667 	0.0013773
0.9133333 	0.00103298
0.92 	0.000688659
0.9266667 	0.0003443384
0.9333333 	1.773113e-08
0.94 	1.418491e-08
0.9466667 	1.063868e-08
0.9533333 	7.092464e-09
0.96 	3.546244e-09
0.9666667 	2.306094e-14
0.9733333 	1.843457e-14
0.98 	1.382593e-14
0.9866667 	9.217298e-15
0.9933333 	4.608662e-15
1 	2.588337e-20
1.006667 	2.07067e-20
1.013333 	1.553003e-20
1.02 	1.035336e-20
1.026667 	5.176693e-21
1.033333 	2.457279e-26
1.04 	1.965823e-26
1.046667 	1.474368e-26
1.053333 	9.829127e-27
1.06 	4.914574e-27
1.066667 	2.002678e-32
1.073333 	1.582484e-32
1.08 	1.186864e-32
1.086667 	7.912429e-33
1.093333 	3.956221e-33
1.1 	1.343865e-38
1.106667 	1.075092e-38
1.113333 	8.063195e-39
1.12 	5.375466e-39
1.126667 	2.687737e-39
1.133333 	7.676849e-45
1.14 	6.14148e-45
1.146667 	4.606111e-45
1.153333 	3.070742e-45
1.16 	1.535373e-45
1.166667 	3.7757e-51
1.173333 	2.959146e-51
1.18 	2.21936e-51
1.186667 	1.479574e-51
1.193333 	7.397876e-52
1.2 	1.518854e-57
1.206667 	1.215083e-57
1.213333 	9.113125e-58
1.22 	6.075418e-58
1.226667 	3.037712e-58
1.233333 	5.376773e-64
1.24 	4.301419e-64
1.246667 	3.226064e-64
1.253333 	2.15071e-64
1.26 	1.075356e-64
1.266667 	1.718769e-70
1.273333 	1.332001e-70
1.28 	9.990012e-71
1.286667 	6.660009e-71
1.293333 	3.330007e-71
1.3 	4.619663e-77
1.306667 	3.69573e-77
1.313333 	2.771798e-77
1.32 	1.847866e-77
1.326667 	9.239335e-78
1.333333 	1.187537e-83
1.34 	9.500297e-84
1.346667 	7.125224e-84
1.353333 	4.75015e-84
1.36 	2.375077e-84
1.366667 	3.036131e-90
1.373333 	2.333902e-90
1.38 	1.750426e-90
1.386667 	1.166951e-90
1.393333 	5.834759e-91
1.4 	6.950173e-97
1.406667 	5.560137e-97
1.413333 	4.170104e-97
1.42 	2.78007e-97
1.426667 	1.390036e-97
1.433333 	1.598384e-103
1.44 	1.278707e-103
1.446667 	9.590304e-104
1.453333 	6.393537e-104
1.46 	3.19677e-104
1.466667 	3.655139e-110
1.473333 	2.79624e-110
1.48 	2.09718e-110
1.486667 	1.39812e-110
1.493333 	6.990604e-111
1.5 	7.162208e-117
1.506667 	5.729765e-117
1.513333 	4.297324e-117
1.52 	2.864883e-117
1.526667 	1.432442e-117
1.533333 	1.362935e-123
1.54 	1.090348e-123
1.546667 	8.177612e-124
1.553333 	5.451742e-124
1.56 	2.725872e-124
1.566667 	2.534524e-130
1.573333 	1.918583e-130
1.58 	1.438938e-130
1.586667 	9.592919e-131
1.593333 	4.796462e-131
1.6 	3.895262e-137
1.606667 	3.116208e-137
1.613333 	2.337156e-137
1.62 	1.558104e-137
1.626667 	7.790523e-138
1.633333 	5.837167e-144
1.64 	4.669734e-144
1.646667 	3.502302e-144
1.653333 	2.334869e-144
1.66 	1.167437e-144
1.666667 	3.934946e-150
1.673333 	3.103339e-150
1.68 	2.330104e-150
1.686667 	1.55687e-150
1.693333 	7.83635e-151
1.7 	1.040034e-152
1.706667 	8.323038e-153
1.713333 	6.245734e-153
1.72 	4.16843e-153
1.726667 	2.091126e-153
1.733333 	1.382188e-155
1.74 	1.10595e-155
1.746667 	8.297119e-156
1.753333 	5.534739e-156
1.76 	2.77236e-156
1.766667 	9.980139e-159
1.773333 	7.984969e-159
1.78 	5.989937e-159
1.786667 	3.994904e-159
1.793333 	1.999872e-159
1.8 	4.840191e-162
1.806667 	3.872649e-162
1.813333 	2.905108e-162
1.82 	1.937566e-162
1.826667 	9.700248e-163
1.833333 	2.483275e-165
1.84 	1.986935e-165
1.846667 	1.490595e-165
1.853333 	9.942554e-166
1.86 	4.979154e-166
1.866667 	1.57542e-168
1.873333 	1.260504e-168
1.88 	9.456134e-169
1.886667 	6.307224e-169
1.893333 	3.158315e-169
1.9 	9.404672e-172
1.906667 	7.524657e-172
1.913333 	5.644642e-172
1.92 	3.764627e-172
1.926667 	1.884612e-172
1.933333 	4.596982e-175
1.94 	3.677948e-175
1.946667 	2.758914e-175
1.953333 	1.83988e-175
1.96 	9.208462e-176
1.966667 	1.812212e-178
1.973333 	1.449974e-178
1.98 	1.087782e-178
1.986667 	7.255905e-179
1.993333 	3.633987e-179
2 	1.20692e-181
