/*--------------------------------*- C++ -*----------------------------------*\
| =========                 |                                                 |
| \\      /  F ield         | OpenFOAM: The Open Source CFD Toolbox           |
|  \\    /   O peration     | Version:  v2006                                 |
|   \\  /    A nd           | Website:  www.openfoam.com                      |
|    \\/     M anipulation  |                                                 |
\*---------------------------------------------------------------------------*/
FoamFile
{
    version     2.0;
    format      ascii;
    class       volScalarField;
    location    "5.7";
    object      k;
}
// * * * * * * * * * * * * * * * * * * * * * * * * * * * * * * * * * * * * * //

dimensions      [0 2 -2 0 0 0 0];


internalField   nonuniform List<scalar> 
33000
(
2.27177e-08
2.37241e-08
2.46343e-08
2.53738e-08
2.58925e-08
2.61938e-08
2.64852e-08
2.70062e-08
2.79235e-08
2.93299e-08
3.12161e-08
3.35634e-08
3.63913e-08
3.97737e-08
4.36762e-08
4.79042e-08
5.2123e-08
5.58654e-08
5.95381e-08
6.55182e-08
7.74482e-08
9.91851e-08
1.30531e-07
1.6415e-07
1.92552e-07
2.13529e-07
2.27341e-07
2.35018e-07
2.38013e-07
2.38215e-07
2.3886e-07
2.41058e-07
2.44242e-07
2.46991e-07
2.48293e-07
2.48271e-07
2.48343e-07
2.49052e-07
2.48918e-07
2.46239e-07
2.41358e-07
2.3732e-07
2.36943e-07
2.40274e-07
2.45181e-07
2.48288e-07
2.47252e-07
2.42381e-07
2.37277e-07
2.35152e-07
2.36229e-07
2.3888e-07
2.40415e-07
2.3943e-07
2.36499e-07
2.33592e-07
2.31513e-07
2.29548e-07
2.27205e-07
2.24635e-07
2.2358e-07
2.26115e-07
2.31416e-07
2.36386e-07
2.37766e-07
2.3501e-07
2.3186e-07
2.30553e-07
2.29474e-07
2.2518e-07
2.17739e-07
2.08565e-07
1.99741e-07
1.91504e-07
1.84109e-07
1.77242e-07
1.70331e-07
1.61869e-07
1.54255e-07
1.52144e-07
1.46044e-07
1.46652e-07
1.44697e-07
1.48472e-07
1.55118e-07
1.62629e-07
1.68446e-07
1.7143e-07
1.72944e-07
1.7326e-07
1.72519e-07
1.71271e-07
1.69547e-07
1.66832e-07
1.62794e-07
1.57241e-07
1.5067e-07
1.43048e-07
1.35688e-07
1.26447e-07
1.20756e-07
1.21428e-07
1.23467e-07
1.2177e-07
1.19662e-07
1.20711e-07
1.23882e-07
1.25527e-07
1.25004e-07
1.22891e-07
1.20893e-07
1.18257e-07
1.1693e-07
1.16725e-07
1.15883e-07
1.13965e-07
1.11359e-07
1.09323e-07
1.08225e-07
1.07407e-07
1.06685e-07
1.06293e-07
1.0545e-07
1.0549e-07
1.06461e-07
1.07156e-07
1.07657e-07
1.07907e-07
1.07784e-07
1.07747e-07
1.07981e-07
1.08148e-07
1.08312e-07
1.0833e-07
1.08359e-07
1.08292e-07
1.08166e-07
1.08105e-07
1.08047e-07
1.08034e-07
1.08017e-07
1.08e-07
1.07941e-07
1.07853e-07
1.078e-07
1.07769e-07
1.07653e-07
1.07479e-07
1.0728e-07
1.07095e-07
1.06971e-07
1.06868e-07
1.06706e-07
1.06472e-07
1.06237e-07
1.06035e-07
1.0585e-07
1.05648e-07
1.05419e-07
1.05167e-07
1.04911e-07
1.04643e-07
1.04365e-07
1.04112e-07
1.03912e-07
1.03757e-07
1.03591e-07
1.03429e-07
1.03327e-07
1.03276e-07
1.03217e-07
1.03149e-07
1.03125e-07
1.03171e-07
1.0327e-07
1.03376e-07
1.03498e-07
1.03678e-07
1.03892e-07
1.04108e-07
1.04299e-07
1.04481e-07
1.04686e-07
1.04881e-07
1.05037e-07
1.05165e-07
1.053e-07
1.05446e-07
1.0558e-07
1.05683e-07
1.05743e-07
1.05765e-07
1.05753e-07
1.05711e-07
1.05627e-07
1.05501e-07
1.05352e-07
1.05178e-07
1.04982e-07
1.04782e-07
1.04593e-07
1.0441e-07
1.04217e-07
1.04e-07
1.03763e-07
1.03523e-07
1.0329e-07
1.03064e-07
1.02831e-07
1.0258e-07
1.02322e-07
1.0207e-07
1.01816e-07
1.01541e-07
1.01241e-07
1.00928e-07
1.00616e-07
1.0031e-07
9.99939e-08
9.96524e-08
9.92735e-08
9.88635e-08
9.84417e-08
9.80229e-08
9.76056e-08
9.71788e-08
9.67338e-08
9.62716e-08
9.58052e-08
9.53439e-08
9.4891e-08
9.44465e-08
9.39979e-08
9.3538e-08
9.30726e-08
9.26122e-08
9.21592e-08
9.17122e-08
9.12631e-08
9.08073e-08
9.03507e-08
8.98954e-08
8.94335e-08
8.89597e-08
8.84795e-08
8.80067e-08
8.75452e-08
8.70798e-08
8.65931e-08
8.60953e-08
8.56042e-08
8.512e-08
8.46332e-08
8.4139e-08
8.36384e-08
8.3132e-08
8.26196e-08
8.21067e-08
8.15935e-08
8.10779e-08
8.05531e-08
8.00146e-08
7.94698e-08
7.89298e-08
7.83968e-08
7.78651e-08
7.7319e-08
7.67525e-08
7.61712e-08
7.55918e-08
7.50208e-08
7.44546e-08
7.38829e-08
7.3293e-08
7.26851e-08
7.20715e-08
7.14551e-08
7.08313e-08
7.01982e-08
6.95641e-08
6.89388e-08
6.83189e-08
6.76866e-08
6.7038e-08
6.63872e-08
6.57399e-08
6.50961e-08
6.44544e-08
6.38114e-08
6.3159e-08
6.24904e-08
6.1815e-08
6.1138e-08
6.04614e-08
5.97869e-08
5.91036e-08
5.8398e-08
5.76839e-08
5.69586e-08
5.62154e-08
5.54629e-08
5.46901e-08
5.38839e-08
5.30422e-08
5.21418e-08
5.11749e-08
5.02333e-08
4.93237e-08
4.84542e-08
4.76247e-08
4.68469e-08
4.61151e-08
4.54237e-08
4.47705e-08
4.41628e-08
4.36095e-08
4.31077e-08
4.2651e-08
4.22422e-08
4.1884e-08
4.15786e-08
4.13283e-08
4.11277e-08
4.09795e-08
4.08883e-08
4.08536e-08
4.08691e-08
4.09274e-08
4.1026e-08
4.11611e-08
4.13223e-08
4.15e-08
4.16818e-08
4.1861e-08
4.2034e-08
4.21975e-08
4.23466e-08
4.24775e-08
4.25872e-08
4.26735e-08
4.27382e-08
4.27824e-08
4.28069e-08
4.28122e-08
4.27955e-08
4.27574e-08
4.27009e-08
4.26284e-08
4.25405e-08
4.24356e-08
4.23136e-08
4.21754e-08
4.20248e-08
4.18632e-08
4.16885e-08
4.15017e-08
4.13055e-08
4.11011e-08
4.08883e-08
4.06675e-08
4.04403e-08
4.02072e-08
3.99689e-08
3.97263e-08
3.94794e-08
3.92292e-08
3.89761e-08
3.87217e-08
3.84661e-08
3.82097e-08
3.7952e-08
3.76935e-08
3.74352e-08
3.71782e-08
3.69225e-08
3.66677e-08
3.6414e-08
3.61607e-08
3.59065e-08
3.56504e-08
3.53925e-08
3.51337e-08
3.48743e-08
3.46146e-08
3.43537e-08
3.40922e-08
3.38295e-08
3.35657e-08
3.33015e-08
3.30377e-08
3.27732e-08
3.25069e-08
3.22409e-08
3.1975e-08
3.17093e-08
3.14427e-08
3.1177e-08
3.09103e-08
3.06433e-08
3.03747e-08
3.01071e-08
2.98386e-08
2.95728e-08
2.93047e-08
2.90391e-08
2.87726e-08
2.8507e-08
2.8245e-08
2.79828e-08
2.7726e-08
2.74667e-08
2.72112e-08
2.69542e-08
2.66958e-08
2.64465e-08
2.61909e-08
2.59348e-08
2.56819e-08
2.54096e-08
2.51357e-08
2.49069e-08
2.46376e-08
2.43938e-08
2.41562e-08
2.37386e-08
2.34003e-08
2.32843e-08
2.28417e-08
2.29e-08
2.26715e-08
2.34046e-08
2.36318e-08
2.38446e-08
2.3838e-08
2.38144e-08
2.36982e-08
2.35798e-08
2.34314e-08
2.32891e-08
2.31291e-08
2.29611e-08
2.27945e-08
2.25794e-08
2.23762e-08
2.22226e-08
2.19997e-08
2.18468e-08
2.16242e-08
2.15692e-08
2.15453e-08
2.14725e-08
2.1389e-08
2.12734e-08
2.11558e-08
2.10317e-08
2.09049e-08
2.07708e-08
2.05983e-08
2.04294e-08
2.03065e-08
2.01184e-08
2.0007e-08
1.98374e-08
1.93391e-08
1.90411e-08
1.90387e-08
1.85046e-08
1.9274e-08
1.94783e-08
2.2095e-08
2.42712e-08
2.62253e-08
2.77966e-08
2.90106e-08
2.99443e-08
3.06609e-08
3.12122e-08
3.16274e-08
3.19381e-08
3.21715e-08
3.23537e-08
3.2493e-08
3.25959e-08
3.26739e-08
3.27284e-08
3.27625e-08
3.27854e-08
3.2795e-08
3.27928e-08
3.27806e-08
3.27632e-08
3.27382e-08
3.27064e-08
3.26694e-08
3.26278e-08
3.25818e-08
3.25316e-08
3.24774e-08
3.24192e-08
3.23566e-08
3.22897e-08
3.22182e-08
3.21422e-08
3.20619e-08
3.19778e-08
3.18905e-08
3.18008e-08
3.17093e-08
3.16165e-08
3.15228e-08
3.14288e-08
3.13349e-08
3.12412e-08
3.11481e-08
3.10554e-08
3.09626e-08
3.08694e-08
3.07751e-08
3.06792e-08
3.05817e-08
3.04824e-08
3.03815e-08
3.02798e-08
3.0178e-08
3.00767e-08
2.9976e-08
2.98752e-08
2.97735e-08
2.96714e-08
2.957e-08
2.94709e-08
2.93743e-08
2.92791e-08
2.9184e-08
2.90889e-08
2.89954e-08
2.89043e-08
2.88144e-08
2.87238e-08
2.86324e-08
2.85416e-08
2.8452e-08
2.8363e-08
2.82732e-08
2.81908e-08
2.80735e-08
2.81054e-08
2.76547e-08
2.76117e-08
2.50722e-08
1.30545e-08
1.35972e-08
1.44585e-08
1.52995e-08
1.61696e-08
1.71645e-08
1.8201e-08
1.93194e-08
2.08877e-08
2.32159e-08
2.65528e-08
3.11548e-08
3.73321e-08
4.53965e-08
5.54323e-08
6.72368e-08
8.03901e-08
9.40676e-08
1.06676e-07
1.1626e-07
1.23477e-07
1.2949e-07
1.34448e-07
1.34874e-07
1.25659e-07
1.08034e-07
8.91365e-08
7.3766e-08
6.19654e-08
5.41268e-08
4.92685e-08
4.6321e-08
4.44957e-08
4.3215e-08
4.21468e-08
4.12067e-08
4.04305e-08
3.98544e-08
3.92968e-08
3.85719e-08
3.76707e-08
3.68667e-08
3.64742e-08
3.64964e-08
3.66623e-08
3.66176e-08
3.61922e-08
3.54309e-08
3.46223e-08
3.40873e-08
3.38389e-08
3.36877e-08
3.33842e-08
3.28426e-08
3.21513e-08
3.14913e-08
3.09538e-08
3.05109e-08
3.01589e-08
2.99274e-08
2.99668e-08
3.04474e-08
3.12686e-08
3.21158e-08
3.26688e-08
3.28589e-08
3.29492e-08
3.31271e-08
3.31164e-08
3.25315e-08
3.1514e-08
3.0553e-08
3.02755e-08
3.13406e-08
3.44926e-08
4.04977e-08
4.95109e-08
5.84261e-08
6.44741e-08
6.95528e-08
7.57034e-08
8.13436e-08
8.48703e-08
9.18337e-08
9.07097e-08
9.74818e-08
1.01598e-07
9.76744e-08
8.62626e-08
6.78295e-08
4.67616e-08
3.02171e-08
2.36045e-08
2.16935e-08
2.30116e-08
2.59607e-08
3.19654e-08
3.88829e-08
5.03821e-08
6.04329e-08
6.3199e-08
5.72835e-08
4.7132e-08
3.80351e-08
2.94115e-08
2.36543e-08
2.08931e-08
1.89775e-08
1.69025e-08
1.55314e-08
1.50384e-08
1.46753e-08
1.45289e-08
1.5005e-08
1.62937e-08
1.87503e-08
2.17952e-08
2.26606e-08
2.10221e-08
1.89714e-08
1.74046e-08
1.59193e-08
1.52337e-08
1.48718e-08
1.46917e-08
1.45364e-08
1.44074e-08
1.42807e-08
1.42047e-08
1.41678e-08
1.41886e-08
1.42423e-08
1.42971e-08
1.43419e-08
1.43902e-08
1.44451e-08
1.45018e-08
1.45623e-08
1.46261e-08
1.46895e-08
1.47478e-08
1.4801e-08
1.48496e-08
1.49004e-08
1.49555e-08
1.50085e-08
1.50543e-08
1.51022e-08
1.51592e-08
1.52236e-08
1.52864e-08
1.534e-08
1.53851e-08
1.54333e-08
1.54918e-08
1.55553e-08
1.56143e-08
1.56671e-08
1.57199e-08
1.57724e-08
1.58189e-08
1.58574e-08
1.58972e-08
1.59443e-08
1.59892e-08
1.60203e-08
1.6044e-08
1.60775e-08
1.61162e-08
1.61395e-08
1.61446e-08
1.61505e-08
1.61723e-08
1.6201e-08
1.62111e-08
1.61958e-08
1.61771e-08
1.61738e-08
1.61787e-08
1.61733e-08
1.61515e-08
1.61283e-08
1.61169e-08
1.60909e-08
1.60299e-08
1.59628e-08
1.59193e-08
1.58921e-08
1.58566e-08
1.57992e-08
1.57247e-08
1.56453e-08
1.55816e-08
1.55286e-08
1.54715e-08
1.54038e-08
1.53176e-08
1.52144e-08
1.51125e-08
1.50363e-08
1.49862e-08
1.49329e-08
1.48509e-08
1.47395e-08
1.46288e-08
1.45432e-08
1.44757e-08
1.44074e-08
1.43178e-08
1.42125e-08
1.41256e-08
1.40705e-08
1.40065e-08
1.39001e-08
1.37775e-08
1.36769e-08
1.36198e-08
1.35826e-08
1.35222e-08
1.34213e-08
1.33007e-08
1.31992e-08
1.31342e-08
1.30997e-08
1.30547e-08
1.2983e-08
1.28989e-08
1.28119e-08
1.27391e-08
1.27009e-08
1.26809e-08
1.26374e-08
1.25739e-08
1.2512e-08
1.24516e-08
1.24053e-08
1.23781e-08
1.2355e-08
1.23175e-08
1.22763e-08
1.22475e-08
1.22176e-08
1.21761e-08
1.21297e-08
1.20951e-08
1.2075e-08
1.20755e-08
1.20539e-08
1.19953e-08
1.19542e-08
1.19316e-08
1.1916e-08
1.18999e-08
1.18706e-08
1.1836e-08
1.18038e-08
1.17713e-08
1.17451e-08
1.17222e-08
1.1694e-08
1.16592e-08
1.16187e-08
1.15836e-08
1.15615e-08
1.15459e-08
1.15257e-08
1.14906e-08
1.14388e-08
1.13996e-08
1.13718e-08
1.13486e-08
1.1332e-08
1.13116e-08
1.12786e-08
1.12438e-08
1.12153e-08
1.11892e-08
1.11638e-08
1.11379e-08
1.11149e-08
1.11007e-08
1.10872e-08
1.10618e-08
1.10332e-08
1.10107e-08
1.09929e-08
1.0977e-08
1.09641e-08
1.09521e-08
1.09351e-08
1.09147e-08
1.08963e-08
1.08814e-08
1.0869e-08
1.08595e-08
1.08475e-08
1.08311e-08
1.08165e-08
1.08026e-08
1.07893e-08
1.07795e-08
1.07678e-08
1.07527e-08
1.07388e-08
1.07264e-08
1.07153e-08
1.07022e-08
1.06881e-08
1.06753e-08
1.06641e-08
1.06545e-08
1.06441e-08
1.06322e-08
1.06201e-08
1.06095e-08
1.06004e-08
1.05908e-08
1.05802e-08
1.05701e-08
1.05608e-08
1.05522e-08
1.05431e-08
1.05325e-08
1.0522e-08
1.05118e-08
1.05017e-08
1.04914e-08
1.04806e-08
1.04703e-08
1.04607e-08
1.04519e-08
1.04436e-08
1.04345e-08
1.04249e-08
1.04155e-08
1.04066e-08
1.03986e-08
1.03909e-08
1.03833e-08
1.03751e-08
1.0367e-08
1.03598e-08
1.03533e-08
1.03474e-08
1.03417e-08
1.03356e-08
1.03298e-08
1.03251e-08
1.03213e-08
1.03181e-08
1.03149e-08
1.03122e-08
1.03105e-08
1.03095e-08
1.03086e-08
1.03074e-08
1.03065e-08
1.03061e-08
1.03056e-08
1.03049e-08
1.03043e-08
1.03037e-08
1.03031e-08
1.03025e-08
1.03017e-08
1.03007e-08
1.02996e-08
1.02986e-08
1.02976e-08
1.02965e-08
1.02951e-08
1.02932e-08
1.02911e-08
1.02891e-08
1.0287e-08
1.02845e-08
1.02819e-08
1.02791e-08
1.02764e-08
1.02735e-08
1.027e-08
1.02662e-08
1.02623e-08
1.02585e-08
1.02547e-08
1.02508e-08
1.02467e-08
1.02423e-08
1.02377e-08
1.02332e-08
1.02291e-08
1.02246e-08
1.02196e-08
1.02151e-08
1.02106e-08
1.02059e-08
1.02013e-08
1.0197e-08
1.01927e-08
1.01881e-08
1.01833e-08
1.01784e-08
1.01737e-08
1.01693e-08
1.01645e-08
1.01602e-08
1.01549e-08
1.015e-08
1.01447e-08
1.01397e-08
1.01352e-08
1.01306e-08
1.01273e-08
1.01223e-08
1.01193e-08
1.01176e-08
1.01126e-08
1.01107e-08
1.01134e-08
1.01075e-08
1.01168e-08
1.01264e-08
1.01264e-08
1.01584e-08
1.01861e-08
1.01471e-08
1.02475e-08
1.02537e-08
1.02074e-08
1.01493e-08
1.01417e-08
1.01435e-08
1.01073e-08
1.00909e-08
1.00741e-08
1.00599e-08
1.00525e-08
1.00493e-08
1.00541e-08
1.00647e-08
1.0083e-08
1.01113e-08
1.01368e-08
1.01131e-08
1.01724e-08
1.01769e-08
1.01467e-08
1.01143e-08
1.01081e-08
1.0107e-08
1.00768e-08
1.00648e-08
1.00575e-08
1.00571e-08
1.00528e-08
1.00573e-08
1.00527e-08
1.00547e-08
1.00553e-08
1.01465e-08
1.01681e-08
1.02337e-08
1.03422e-08
1.03954e-08
1.03623e-08
1.04309e-08
1.04611e-08
1.04924e-08
1.05217e-08
1.0581e-08
1.05972e-08
1.05277e-08
1.0426e-08
1.03359e-08
1.02683e-08
1.02214e-08
1.01884e-08
1.01642e-08
1.0147e-08
1.0135e-08
1.01269e-08
1.01214e-08
1.01185e-08
1.01179e-08
1.01185e-08
1.01202e-08
1.01234e-08
1.01266e-08
1.01296e-08
1.01327e-08
1.01381e-08
1.01434e-08
1.01478e-08
1.0152e-08
1.0156e-08
1.01601e-08
1.01642e-08
1.01679e-08
1.01717e-08
1.0175e-08
1.01783e-08
1.01764e-08
1.01756e-08
1.01764e-08
1.01777e-08
1.01792e-08
1.01809e-08
1.01822e-08
1.01832e-08
1.01843e-08
1.01856e-08
1.01869e-08
1.01877e-08
1.01872e-08
1.01911e-08
1.01934e-08
1.01934e-08
1.01928e-08
1.0192e-08
1.01908e-08
1.01897e-08
1.01889e-08
1.01887e-08
1.01891e-08
1.01897e-08
1.01898e-08
1.01888e-08
1.01872e-08
1.01863e-08
1.01868e-08
1.01882e-08
1.01889e-08
1.01877e-08
1.01857e-08
1.01847e-08
1.01854e-08
1.0186e-08
1.01843e-08
1.01819e-08
1.01811e-08
1.0182e-08
1.01776e-08
1.01741e-08
1.01697e-08
1.01849e-08
1.01739e-08
1.02381e-08
1.02704e-08
1.03424e-08
1.02769e-08
1.13847e-08
1.17083e-08
1.20798e-08
1.2443e-08
1.27589e-08
1.30829e-08
1.35153e-08
1.42318e-08
1.54472e-08
1.74072e-08
2.04399e-08
2.4924e-08
3.13427e-08
3.98308e-08
5.00578e-08
6.13142e-08
7.28474e-08
8.3626e-08
9.28539e-08
9.93715e-08
1.00801e-07
9.81213e-08
9.15106e-08
8.09459e-08
6.79414e-08
5.55677e-08
4.5345e-08
3.75518e-08
3.19588e-08
2.81602e-08
2.55088e-08
2.36653e-08
2.2456e-08
2.16488e-08
2.10147e-08
2.04627e-08
1.99701e-08
1.95325e-08
1.91043e-08
1.86072e-08
1.81066e-08
1.76839e-08
1.7421e-08
1.73192e-08
1.72822e-08
1.72039e-08
1.70267e-08
1.67442e-08
1.64317e-08
1.61944e-08
1.6072e-08
1.60013e-08
1.59168e-08
1.57689e-08
1.55433e-08
1.5283e-08
1.50351e-08
1.4812e-08
1.46353e-08
1.45259e-08
1.45204e-08
1.46368e-08
1.48334e-08
1.50264e-08
1.5163e-08
1.5302e-08
1.5519e-08
1.57997e-08
1.60085e-08
1.60523e-08
1.59751e-08
1.59106e-08
1.60251e-08
1.64834e-08
1.74654e-08
1.91335e-08
2.15492e-08
2.4505e-08
2.79886e-08
3.17268e-08
3.53415e-08
3.91176e-08
4.35592e-08
4.92215e-08
5.7285e-08
6.64237e-08
7.25657e-08
6.82469e-08
6.09702e-08
5.23052e-08
4.30395e-08
3.45214e-08
2.58799e-08
1.96611e-08
1.59549e-08
1.42787e-08
1.42152e-08
1.55766e-08
1.92068e-08
2.51692e-08
2.94078e-08
3.04212e-08
2.86075e-08
2.55582e-08
2.11723e-08
1.71985e-08
1.46853e-08
1.31267e-08
1.20247e-08
1.13773e-08
1.10298e-08
1.08149e-08
1.06784e-08
1.05977e-08
1.06061e-08
1.07265e-08
1.10259e-08
1.13658e-08
1.14996e-08
1.15402e-08
1.14218e-08
1.11825e-08
1.09764e-08
1.08201e-08
1.06887e-08
1.05975e-08
1.05352e-08
1.04969e-08
1.04662e-08
1.04545e-08
1.04555e-08
1.04533e-08
1.04545e-08
1.0458e-08
1.04643e-08
1.04708e-08
1.04777e-08
1.04858e-08
1.04934e-08
1.05018e-08
1.051e-08
1.05179e-08
1.05255e-08
1.05331e-08
1.05408e-08
1.05478e-08
1.05538e-08
1.05603e-08
1.05687e-08
1.05782e-08
1.05867e-08
1.05929e-08
1.05982e-08
1.06047e-08
1.06131e-08
1.06222e-08
1.06299e-08
1.06363e-08
1.0643e-08
1.06506e-08
1.06576e-08
1.06632e-08
1.06683e-08
1.06745e-08
1.06804e-08
1.0684e-08
1.06862e-08
1.06901e-08
1.06951e-08
1.06972e-08
1.06958e-08
1.06945e-08
1.06958e-08
1.06982e-08
1.06972e-08
1.06918e-08
1.06857e-08
1.06817e-08
1.06782e-08
1.06729e-08
1.06658e-08
1.06589e-08
1.06526e-08
1.06429e-08
1.06283e-08
1.06129e-08
1.06007e-08
1.05911e-08
1.05815e-08
1.05693e-08
1.05544e-08
1.05381e-08
1.05232e-08
1.051e-08
1.04977e-08
1.04854e-08
1.0471e-08
1.04541e-08
1.04373e-08
1.0424e-08
1.04143e-08
1.04042e-08
1.03911e-08
1.03756e-08
1.03608e-08
1.03489e-08
1.03387e-08
1.03282e-08
1.03162e-08
1.03036e-08
1.02933e-08
1.02856e-08
1.02766e-08
1.02645e-08
1.02519e-08
1.02415e-08
1.02347e-08
1.02295e-08
1.0223e-08
1.02136e-08
1.0203e-08
1.01941e-08
1.01879e-08
1.01839e-08
1.01796e-08
1.01739e-08
1.01675e-08
1.0161e-08
1.01557e-08
1.01523e-08
1.01502e-08
1.01471e-08
1.01429e-08
1.01387e-08
1.01347e-08
1.01319e-08
1.01303e-08
1.01291e-08
1.01271e-08
1.01247e-08
1.01228e-08
1.01209e-08
1.01189e-08
1.01168e-08
1.01153e-08
1.01144e-08
1.01144e-08
1.01134e-08
1.01109e-08
1.01091e-08
1.01082e-08
1.01077e-08
1.01071e-08
1.01059e-08
1.01045e-08
1.01033e-08
1.01021e-08
1.01012e-08
1.01004e-08
1.00991e-08
1.00975e-08
1.00959e-08
1.00945e-08
1.00938e-08
1.00932e-08
1.00924e-08
1.0091e-08
1.00889e-08
1.00872e-08
1.00861e-08
1.00852e-08
1.00846e-08
1.00838e-08
1.00826e-08
1.00812e-08
1.00801e-08
1.00791e-08
1.0078e-08
1.0077e-08
1.0076e-08
1.00755e-08
1.0075e-08
1.0074e-08
1.00728e-08
1.00717e-08
1.0071e-08
1.00704e-08
1.00698e-08
1.00692e-08
1.00684e-08
1.00675e-08
1.00667e-08
1.00661e-08
1.00656e-08
1.0065e-08
1.00644e-08
1.00637e-08
1.00631e-08
1.00625e-08
1.00619e-08
1.00613e-08
1.00608e-08
1.00602e-08
1.00596e-08
1.00589e-08
1.00583e-08
1.00577e-08
1.00571e-08
1.00566e-08
1.0056e-08
1.00555e-08
1.0055e-08
1.00544e-08
1.00539e-08
1.00533e-08
1.00528e-08
1.00523e-08
1.00518e-08
1.00513e-08
1.00509e-08
1.00505e-08
1.005e-08
1.00495e-08
1.00492e-08
1.00488e-08
1.00485e-08
1.0048e-08
1.00477e-08
1.00473e-08
1.0047e-08
1.00466e-08
1.00463e-08
1.00461e-08
1.00457e-08
1.00454e-08
1.00451e-08
1.00448e-08
1.00445e-08
1.00442e-08
1.0044e-08
1.00437e-08
1.00435e-08
1.00433e-08
1.00431e-08
1.00429e-08
1.00427e-08
1.00425e-08
1.00423e-08
1.00422e-08
1.00421e-08
1.00419e-08
1.00418e-08
1.00417e-08
1.00417e-08
1.00416e-08
1.00414e-08
1.00414e-08
1.00413e-08
1.00412e-08
1.00411e-08
1.0041e-08
1.00409e-08
1.00408e-08
1.00407e-08
1.00406e-08
1.00404e-08
1.00403e-08
1.00401e-08
1.004e-08
1.00399e-08
1.00399e-08
1.00398e-08
1.00396e-08
1.00395e-08
1.00394e-08
1.00393e-08
1.00391e-08
1.0039e-08
1.00389e-08
1.00387e-08
1.00386e-08
1.00384e-08
1.00383e-08
1.00381e-08
1.0038e-08
1.00378e-08
1.00376e-08
1.00375e-08
1.00373e-08
1.00371e-08
1.00369e-08
1.00367e-08
1.00365e-08
1.00363e-08
1.00362e-08
1.0036e-08
1.00358e-08
1.00356e-08
1.00354e-08
1.00352e-08
1.0035e-08
1.00347e-08
1.00345e-08
1.00343e-08
1.00341e-08
1.0034e-08
1.00336e-08
1.00334e-08
1.00335e-08
1.00331e-08
1.0033e-08
1.00327e-08
1.00329e-08
1.00332e-08
1.00332e-08
1.00335e-08
1.00334e-08
1.00332e-08
1.00335e-08
1.00336e-08
1.00339e-08
1.00341e-08
1.00332e-08
1.00328e-08
1.00326e-08
1.00329e-08
1.0034e-08
1.00349e-08
1.0035e-08
1.00356e-08
1.00359e-08
1.00348e-08
1.00334e-08
1.00324e-08
1.00318e-08
1.00317e-08
1.00314e-08
1.00313e-08
1.00313e-08
1.00312e-08
1.0031e-08
1.00308e-08
1.00307e-08
1.00311e-08
1.00317e-08
1.00322e-08
1.00321e-08
1.00324e-08
1.00324e-08
1.00318e-08
1.00312e-08
1.00306e-08
1.00302e-08
1.00301e-08
1.00297e-08
1.00295e-08
1.00298e-08
1.00302e-08
1.00307e-08
1.00333e-08
1.00361e-08
1.00373e-08
1.0042e-08
1.00424e-08
1.00425e-08
1.00456e-08
1.00521e-08
1.00593e-08
1.0069e-08
1.00732e-08
1.0067e-08
1.00561e-08
1.00465e-08
1.00397e-08
1.00353e-08
1.00324e-08
1.00304e-08
1.0029e-08
1.00279e-08
1.0027e-08
1.00263e-08
1.00258e-08
1.00253e-08
1.0025e-08
1.00249e-08
1.00249e-08
1.0025e-08
1.00252e-08
1.00254e-08
1.00255e-08
1.00257e-08
1.00259e-08
1.00259e-08
1.0026e-08
1.00262e-08
1.00263e-08
1.00265e-08
1.00267e-08
1.00269e-08
1.00271e-08
1.00271e-08
1.00271e-08
1.00271e-08
1.00271e-08
1.00272e-08
1.00273e-08
1.00274e-08
1.00276e-08
1.00277e-08
1.00278e-08
1.00279e-08
1.00279e-08
1.00279e-08
1.00279e-08
1.00279e-08
1.00279e-08
1.00279e-08
1.00279e-08
1.00278e-08
1.00278e-08
1.00278e-08
1.00278e-08
1.00278e-08
1.00278e-08
1.00278e-08
1.00276e-08
1.00274e-08
1.00272e-08
1.00271e-08
1.00271e-08
1.00273e-08
1.00274e-08
1.00273e-08
1.00271e-08
1.0027e-08
1.00271e-08
1.00272e-08
1.00271e-08
1.00268e-08
1.00267e-08
1.00267e-08
1.00266e-08
1.00265e-08
1.00264e-08
1.00267e-08
1.00271e-08
1.00288e-08
1.00304e-08
1.00322e-08
1.00276e-08
1.0588e-08
1.07244e-08
1.08681e-08
1.09919e-08
1.11047e-08
1.12187e-08
1.13686e-08
1.16245e-08
1.20671e-08
1.27933e-08
1.39319e-08
1.56136e-08
1.79211e-08
2.07899e-08
2.39647e-08
2.71782e-08
3.03056e-08
3.33096e-08
3.61844e-08
3.87703e-08
3.98284e-08
3.85333e-08
3.47197e-08
2.94404e-08
2.44923e-08
2.0869e-08
1.84929e-08
1.69207e-08
1.57936e-08
1.49715e-08
1.43515e-08
1.39053e-08
1.36074e-08
1.34164e-08
1.3278e-08
1.31442e-08
1.29898e-08
1.28162e-08
1.26399e-08
1.24763e-08
1.23323e-08
1.2212e-08
1.21184e-08
1.2049e-08
1.19968e-08
1.19489e-08
1.1893e-08
1.18265e-08
1.17588e-08
1.17023e-08
1.16622e-08
1.16336e-08
1.16073e-08
1.15727e-08
1.15224e-08
1.14571e-08
1.13842e-08
1.13123e-08
1.12491e-08
1.12038e-08
1.11844e-08
1.11918e-08
1.12176e-08
1.1249e-08
1.1285e-08
1.13432e-08
1.14371e-08
1.15575e-08
1.16797e-08
1.17776e-08
1.18416e-08
1.18887e-08
1.19532e-08
1.20842e-08
1.23272e-08
1.27275e-08
1.332e-08
1.41209e-08
1.51053e-08
1.62612e-08
1.80451e-08
2.03525e-08
2.32473e-08
2.68488e-08
3.136e-08
3.69078e-08
4.23508e-08
4.73411e-08
4.87227e-08
4.58807e-08
4.0408e-08
3.24302e-08
2.70763e-08
2.32747e-08
1.90574e-08
1.59868e-08
1.40009e-08
1.29042e-08
1.27026e-08
1.35087e-08
1.46849e-08
1.57076e-08
1.65682e-08
1.66621e-08
1.5769e-08
1.44639e-08
1.33404e-08
1.25056e-08
1.18579e-08
1.14562e-08
1.11822e-08
1.09298e-08
1.06793e-08
1.04897e-08
1.03663e-08
1.02797e-08
1.02069e-08
1.01797e-08
1.01765e-08
1.01893e-08
1.0205e-08
1.02054e-08
1.02034e-08
1.01961e-08
1.01832e-08
1.01722e-08
1.01607e-08
1.01439e-08
1.01283e-08
1.01172e-08
1.0109e-08
1.01029e-08
1.00988e-08
1.00958e-08
1.0094e-08
1.00932e-08
1.00931e-08
1.00935e-08
1.00942e-08
1.0095e-08
1.00957e-08
1.00964e-08
1.00972e-08
1.00981e-08
1.0099e-08
1.00999e-08
1.01006e-08
1.01014e-08
1.01025e-08
1.01037e-08
1.01047e-08
1.01055e-08
1.01062e-08
1.01072e-08
1.01083e-08
1.01095e-08
1.01105e-08
1.01113e-08
1.01122e-08
1.01132e-08
1.01142e-08
1.0115e-08
1.01157e-08
1.01165e-08
1.01172e-08
1.01176e-08
1.01178e-08
1.01183e-08
1.01188e-08
1.0119e-08
1.01186e-08
1.01183e-08
1.01181e-08
1.01182e-08
1.01178e-08
1.01169e-08
1.01158e-08
1.01149e-08
1.01139e-08
1.01129e-08
1.01117e-08
1.01104e-08
1.01091e-08
1.01074e-08
1.01051e-08
1.01028e-08
1.01007e-08
1.0099e-08
1.00975e-08
1.00957e-08
1.00936e-08
1.00912e-08
1.0089e-08
1.00869e-08
1.0085e-08
1.00833e-08
1.00814e-08
1.00793e-08
1.00772e-08
1.00754e-08
1.0074e-08
1.00727e-08
1.00711e-08
1.00694e-08
1.00677e-08
1.00663e-08
1.0065e-08
1.00637e-08
1.00624e-08
1.00611e-08
1.006e-08
1.0059e-08
1.0058e-08
1.00568e-08
1.00556e-08
1.00545e-08
1.00538e-08
1.00531e-08
1.00524e-08
1.00516e-08
1.00507e-08
1.00499e-08
1.00493e-08
1.00488e-08
1.00483e-08
1.00478e-08
1.00472e-08
1.00467e-08
1.00463e-08
1.00459e-08
1.00456e-08
1.00453e-08
1.0045e-08
1.00446e-08
1.00443e-08
1.0044e-08
1.00438e-08
1.00437e-08
1.00435e-08
1.00432e-08
1.0043e-08
1.00428e-08
1.00426e-08
1.00424e-08
1.00422e-08
1.00421e-08
1.0042e-08
1.00418e-08
1.00417e-08
1.00415e-08
1.00414e-08
1.00413e-08
1.00412e-08
1.00411e-08
1.00409e-08
1.00408e-08
1.00407e-08
1.00407e-08
1.00405e-08
1.00404e-08
1.00403e-08
1.00401e-08
1.004e-08
1.00399e-08
1.00398e-08
1.00397e-08
1.00396e-08
1.00395e-08
1.00393e-08
1.00392e-08
1.00391e-08
1.0039e-08
1.00389e-08
1.00388e-08
1.00387e-08
1.00385e-08
1.00384e-08
1.00383e-08
1.00382e-08
1.00381e-08
1.0038e-08
1.00379e-08
1.00378e-08
1.00377e-08
1.00376e-08
1.00375e-08
1.00374e-08
1.00373e-08
1.00372e-08
1.00371e-08
1.0037e-08
1.0037e-08
1.00368e-08
1.00367e-08
1.00366e-08
1.00365e-08
1.00364e-08
1.00363e-08
1.00362e-08
1.00361e-08
1.00359e-08
1.00359e-08
1.00358e-08
1.00357e-08
1.00355e-08
1.00354e-08
1.00353e-08
1.00352e-08
1.00352e-08
1.0035e-08
1.00349e-08
1.00348e-08
1.00347e-08
1.00346e-08
1.00345e-08
1.00344e-08
1.00343e-08
1.00342e-08
1.00341e-08
1.0034e-08
1.00339e-08
1.00338e-08
1.00337e-08
1.00336e-08
1.00335e-08
1.00334e-08
1.00333e-08
1.00333e-08
1.00331e-08
1.0033e-08
1.00329e-08
1.00328e-08
1.00327e-08
1.00326e-08
1.00325e-08
1.00325e-08
1.00324e-08
1.00323e-08
1.00322e-08
1.00321e-08
1.0032e-08
1.0032e-08
1.00319e-08
1.00318e-08
1.00317e-08
1.00316e-08
1.00315e-08
1.00314e-08
1.00314e-08
1.00313e-08
1.00312e-08
1.00312e-08
1.00311e-08
1.0031e-08
1.00309e-08
1.00309e-08
1.00308e-08
1.00307e-08
1.00306e-08
1.00306e-08
1.00305e-08
1.00305e-08
1.00304e-08
1.00303e-08
1.00302e-08
1.00302e-08
1.00301e-08
1.003e-08
1.003e-08
1.00299e-08
1.00298e-08
1.00298e-08
1.00297e-08
1.00296e-08
1.00295e-08
1.00294e-08
1.00294e-08
1.00293e-08
1.00292e-08
1.00291e-08
1.0029e-08
1.00289e-08
1.00288e-08
1.00288e-08
1.00287e-08
1.00286e-08
1.00285e-08
1.00285e-08
1.00284e-08
1.00283e-08
1.00282e-08
1.00282e-08
1.00281e-08
1.00281e-08
1.0028e-08
1.00279e-08
1.00278e-08
1.00278e-08
1.00277e-08
1.00276e-08
1.00275e-08
1.00275e-08
1.00274e-08
1.00272e-08
1.00272e-08
1.00271e-08
1.0027e-08
1.00268e-08
1.00271e-08
1.00271e-08
1.00272e-08
1.00271e-08
1.00273e-08
1.00273e-08
1.00273e-08
1.00276e-08
1.00277e-08
1.00276e-08
1.00277e-08
1.00275e-08
1.00273e-08
1.00271e-08
1.00272e-08
1.00273e-08
1.00273e-08
1.00273e-08
1.00273e-08
1.00273e-08
1.00269e-08
1.00259e-08
1.00266e-08
1.00268e-08
1.00268e-08
1.00267e-08
1.00266e-08
1.00265e-08
1.00264e-08
1.00264e-08
1.00263e-08
1.00263e-08
1.00262e-08
1.00261e-08
1.00261e-08
1.00261e-08
1.0026e-08
1.0026e-08
1.00259e-08
1.00257e-08
1.00255e-08
1.00254e-08
1.00256e-08
1.00255e-08
1.00262e-08
1.00258e-08
1.0025e-08
1.00257e-08
1.00263e-08
1.00289e-08
1.00309e-08
1.0034e-08
1.00351e-08
1.00334e-08
1.00317e-08
1.00308e-08
1.00301e-08
1.00296e-08
1.00293e-08
1.00289e-08
1.00285e-08
1.00281e-08
1.00274e-08
1.00266e-08
1.00258e-08
1.0025e-08
1.00244e-08
1.00239e-08
1.00234e-08
1.00229e-08
1.00226e-08
1.00222e-08
1.00219e-08
1.00216e-08
1.00214e-08
1.00212e-08
1.00211e-08
1.00211e-08
1.00211e-08
1.00211e-08
1.00211e-08
1.00211e-08
1.00212e-08
1.00212e-08
1.00212e-08
1.00213e-08
1.00214e-08
1.00216e-08
1.00217e-08
1.00218e-08
1.00218e-08
1.00218e-08
1.00218e-08
1.00217e-08
1.00217e-08
1.00216e-08
1.00217e-08
1.00217e-08
1.00218e-08
1.00219e-08
1.0022e-08
1.00221e-08
1.00221e-08
1.00221e-08
1.00221e-08
1.00221e-08
1.00221e-08
1.00221e-08
1.00221e-08
1.0022e-08
1.00219e-08
1.0022e-08
1.0022e-08
1.00221e-08
1.00221e-08
1.0022e-08
1.00219e-08
1.00217e-08
1.00215e-08
1.00214e-08
1.00214e-08
1.00215e-08
1.00215e-08
1.00215e-08
1.00214e-08
1.00214e-08
1.00214e-08
1.00215e-08
1.00215e-08
1.00213e-08
1.00212e-08
1.00211e-08
1.00211e-08
1.00211e-08
1.0021e-08
1.0021e-08
1.00212e-08
1.00216e-08
1.00224e-08
1.00233e-08
1.00241e-08
1.00211e-08
1.02847e-08
1.03506e-08
1.04202e-08
1.04786e-08
1.05277e-08
1.05684e-08
1.06134e-08
1.0683e-08
1.0797e-08
1.0977e-08
1.12474e-08
1.16254e-08
1.21074e-08
1.26507e-08
1.31786e-08
1.36331e-08
1.39845e-08
1.42224e-08
1.43633e-08
1.44646e-08
1.44727e-08
1.4304e-08
1.38617e-08
1.32981e-08
1.27876e-08
1.24023e-08
1.20975e-08
1.1846e-08
1.16389e-08
1.14699e-08
1.13365e-08
1.12359e-08
1.11641e-08
1.1113e-08
1.10721e-08
1.10314e-08
1.09858e-08
1.09354e-08
1.08849e-08
1.08384e-08
1.07971e-08
1.0761e-08
1.073e-08
1.07035e-08
1.06806e-08
1.06607e-08
1.06422e-08
1.06238e-08
1.06059e-08
1.05896e-08
1.05751e-08
1.05626e-08
1.05519e-08
1.05413e-08
1.05281e-08
1.05109e-08
1.04901e-08
1.04667e-08
1.04438e-08
1.04254e-08
1.04135e-08
1.04083e-08
1.04083e-08
1.04122e-08
1.04209e-08
1.0438e-08
1.0466e-08
1.05035e-08
1.05462e-08
1.05886e-08
1.06253e-08
1.06571e-08
1.06918e-08
1.07423e-08
1.08195e-08
1.09351e-08
1.10981e-08
1.1313e-08
1.15823e-08
1.1912e-08
1.23658e-08
1.30116e-08
1.4017e-08
1.56545e-08
1.80264e-08
2.09738e-08
2.44888e-08
2.80291e-08
3.06448e-08
3.25031e-08
3.21107e-08
3.0343e-08
2.72481e-08
2.37245e-08
2.00028e-08
1.73254e-08
1.54551e-08
1.38962e-08
1.2835e-08
1.21923e-08
1.18873e-08
1.18242e-08
1.19468e-08
1.2023e-08
1.1983e-08
1.18267e-08
1.15845e-08
1.13415e-08
1.11023e-08
1.09208e-08
1.08049e-08
1.07388e-08
1.0733e-08
1.07301e-08
1.06586e-08
1.05254e-08
1.04014e-08
1.03077e-08
1.02323e-08
1.01583e-08
1.01195e-08
1.00991e-08
1.00873e-08
1.00844e-08
1.00836e-08
1.00834e-08
1.00842e-08
1.00857e-08
1.00892e-08
1.00919e-08
1.0089e-08
1.00842e-08
1.00794e-08
1.00746e-08
1.00701e-08
1.00669e-08
1.00643e-08
1.0062e-08
1.00603e-08
1.0059e-08
1.0058e-08
1.00574e-08
1.00571e-08
1.00568e-08
1.00567e-08
1.00566e-08
1.00565e-08
1.00564e-08
1.00564e-08
1.00565e-08
1.00565e-08
1.00566e-08
1.00566e-08
1.00567e-08
1.00568e-08
1.00569e-08
1.0057e-08
1.00571e-08
1.00572e-08
1.00573e-08
1.00574e-08
1.00574e-08
1.00575e-08
1.00575e-08
1.00576e-08
1.00575e-08
1.00575e-08
1.00575e-08
1.00574e-08
1.00573e-08
1.00572e-08
1.0057e-08
1.00568e-08
1.00567e-08
1.00565e-08
1.00563e-08
1.0056e-08
1.00557e-08
1.00555e-08
1.00552e-08
1.0055e-08
1.00547e-08
1.00544e-08
1.0054e-08
1.00536e-08
1.00532e-08
1.00528e-08
1.00525e-08
1.00521e-08
1.00518e-08
1.00514e-08
1.00511e-08
1.00507e-08
1.00503e-08
1.00499e-08
1.00495e-08
1.00492e-08
1.00488e-08
1.00485e-08
1.00481e-08
1.00478e-08
1.00476e-08
1.00473e-08
1.0047e-08
1.00467e-08
1.00463e-08
1.0046e-08
1.00458e-08
1.00455e-08
1.00452e-08
1.00449e-08
1.00447e-08
1.00444e-08
1.00442e-08
1.00439e-08
1.00437e-08
1.00434e-08
1.00432e-08
1.0043e-08
1.00428e-08
1.00426e-08
1.00424e-08
1.00422e-08
1.0042e-08
1.00418e-08
1.00416e-08
1.00415e-08
1.00414e-08
1.00412e-08
1.0041e-08
1.00409e-08
1.00408e-08
1.00406e-08
1.00405e-08
1.00404e-08
1.00403e-08
1.00402e-08
1.004e-08
1.00399e-08
1.00398e-08
1.00397e-08
1.00396e-08
1.00395e-08
1.00394e-08
1.00393e-08
1.00392e-08
1.00391e-08
1.0039e-08
1.00389e-08
1.00388e-08
1.00387e-08
1.00386e-08