/*--------------------------------*- C++ -*----------------------------------*\
| =========                 |                                                 |
| \\      /  F ield         | OpenFOAM: The Open Source CFD Toolbox           |
|  \\    /   O peration     | Version:  v2006                                 |
|   \\  /    A nd           | Website:  www.openfoam.com                      |
|    \\/     M anipulation  |                                                 |
\*---------------------------------------------------------------------------*/
FoamFile
{
    version     2.0;
    format      ascii;
    class       volScalarField;
    location    "5.7";
    object      nut;
}
// * * * * * * * * * * * * * * * * * * * * * * * * * * * * * * * * * * * * * //

dimensions      [0 2 -1 0 0 0 0];


internalField   nonuniform List<scalar> 
33000
(
5.34025e-10
5.40603e-10
5.62952e-10
5.66276e-10
5.73881e-10
5.82179e-10
6.01937e-10
6.40443e-10
7.07235e-10
7.95378e-10
8.98419e-10
9.98216e-10
1.11571e-09
1.28413e-09
1.51059e-09
1.75134e-09
2.00017e-09
2.21414e-09
2.36179e-09
2.60756e-09
3.12502e-09
3.81117e-09
4.20328e-09
4.6525e-09
5.49712e-09
6.37382e-09
6.79492e-09
6.95755e-09
7.02232e-09
7.08623e-09
7.19156e-09
7.33028e-09
7.4502e-09
7.53352e-09
7.55271e-09
7.56869e-09
7.65101e-09
7.72564e-09
7.71139e-09
7.59734e-09
7.46984e-09
7.50162e-09
7.704e-09
7.98341e-09
8.23719e-09
8.34665e-09
8.27893e-09
8.15097e-09
8.15032e-09
8.3023e-09
8.55343e-09
8.79767e-09
8.91709e-09
8.92697e-09
8.92636e-09
8.99904e-09
9.10014e-09
9.1904e-09
9.26128e-09
9.3528e-09
9.63193e-09
1.01579e-08
1.07391e-08
1.11528e-08
1.12896e-08
1.13395e-08
1.16013e-08
1.19977e-08
1.21941e-08
1.20941e-08
1.18851e-08
1.17008e-08
1.16557e-08
1.16551e-08
1.17638e-08
1.17355e-08
1.18306e-08
1.14829e-08
1.5524e-08
2.10218e-08
2.19398e-08
2.76903e-08
2.67129e-08
3.90527e-08
4.05696e-08
4.24505e-08
3.51556e-08
3.29771e-08
3.10695e-08
3.02419e-08
2.89159e-08
2.74228e-08
2.68896e-08
2.59443e-08
2.52941e-08
2.46081e-08
2.3887e-08
2.18769e-08
1.81912e-08
1.61441e-08
1.60583e-08
1.66621e-08
1.6618e-08
1.5001e-08
1.39114e-08
1.37039e-08
1.44148e-08
1.48807e-08
1.51946e-08
1.50786e-08
1.48221e-08
1.4376e-08
1.42889e-08
1.43611e-08
1.43285e-08
1.42849e-08
1.43648e-08
1.60733e-08
1.6469e-08
1.59778e-08
1.58061e-08
1.5739e-08
1.63306e-08
1.63631e-08
1.66601e-08
1.67199e-08
1.66264e-08
1.66878e-08
1.67787e-08
1.68389e-08
1.69711e-08
1.708e-08
1.71984e-08
1.73445e-08
1.75213e-08
1.76759e-08
1.78486e-08
1.80568e-08
1.82853e-08
1.8547e-08
1.88264e-08
1.91283e-08
1.944e-08
1.97958e-08
2.02039e-08
2.06036e-08
2.0999e-08
2.14363e-08
2.19251e-08
2.24982e-08
2.3149e-08
2.38153e-08
2.44684e-08
2.51893e-08
2.60619e-08
2.70567e-08
2.81469e-08
2.93336e-08
3.06261e-08
3.20763e-08
3.37459e-08
3.56211e-08
3.77606e-08
4.02588e-08
4.32799e-08
4.67628e-08
5.06322e-08
5.5346e-08
6.14431e-08
6.9002e-08
7.7808e-08
8.84037e-08
1.02319e-07
1.20904e-07
1.2707e-07
1.27198e-07
1.27346e-07
1.27564e-07
1.27824e-07
1.28085e-07
1.19856e-07
1.03324e-07
9.05306e-08
8.07898e-08
7.27946e-08
6.5962e-08
6.01508e-08
5.54246e-08
5.15415e-08
4.82455e-08
4.53581e-08
4.27839e-08
4.0483e-08
3.84274e-08
3.66296e-08
3.50338e-08
3.35905e-08
3.2276e-08
3.10553e-08
2.99214e-08
2.88938e-08
2.799e-08
2.71804e-08
2.64242e-08
2.57024e-08
2.50199e-08
2.43984e-08
2.38399e-08
2.33345e-08
2.28557e-08
2.23912e-08
2.19628e-08
2.15911e-08
2.12523e-08
2.09157e-08
2.05875e-08
2.02794e-08
2.00111e-08
1.9781e-08
1.95663e-08
1.93501e-08
1.91346e-08
1.89307e-08
1.87519e-08
1.86059e-08
1.84751e-08
1.83511e-08
1.82346e-08
1.81238e-08
1.8024e-08
1.79517e-08
1.79057e-08
1.78652e-08
1.78314e-08
1.78069e-08
1.77907e-08
1.77908e-08
1.78119e-08
1.78482e-08
1.78889e-08
1.79405e-08
1.80117e-08
1.80965e-08
1.81825e-08
1.8275e-08
1.83782e-08
1.85039e-08
1.86657e-08
1.8824e-08
1.89725e-08
1.91384e-08
1.93241e-08
1.95324e-08
1.97576e-08
1.99896e-08
2.02317e-08
2.04862e-08
2.07515e-08
2.10397e-08
2.1352e-08
2.16798e-08
2.20121e-08
2.23459e-08
2.26972e-08
2.30818e-08
2.35052e-08
2.39626e-08
2.44102e-08
2.48435e-08
2.53084e-08
2.57986e-08
2.63246e-08
2.69032e-08
2.75046e-08
2.80984e-08
2.8716e-08
2.93756e-08
3.00663e-08
3.07803e-08
3.15091e-08
3.22828e-08
3.31604e-08
3.41009e-08
3.50295e-08
3.5981e-08
3.70036e-08
3.80924e-08
3.92442e-08
4.0505e-08
4.18807e-08
4.33055e-08
4.47779e-08
4.63498e-08
4.80159e-08
4.9813e-08
5.186e-08
5.4028e-08
5.62741e-08
5.87394e-08
6.13141e-08
6.40609e-08
6.72481e-08
6.67998e-08
6.57648e-08
6.46573e-08
6.34676e-08
6.23088e-08
6.1189e-08
6.01182e-08
5.90966e-08
5.81383e-08
5.72365e-08
5.63843e-08
5.5579e-08
5.48296e-08
5.41474e-08
5.35283e-08
5.29649e-08
5.24605e-08
5.20185e-08
5.16417e-08
5.13328e-08
5.10851e-08
5.09023e-08
5.07896e-08
5.07468e-08
5.07659e-08
5.08378e-08
5.09596e-08
5.11263e-08
5.13253e-08
5.15446e-08
5.1769e-08
5.19901e-08
5.22036e-08
5.24054e-08
5.25893e-08
5.27509e-08
5.28862e-08
5.29927e-08
5.30725e-08
5.31271e-08
5.31573e-08
5.31639e-08
5.31432e-08
5.30962e-08
5.30265e-08
5.29371e-08
5.28287e-08
5.26992e-08
5.25488e-08
5.23782e-08
5.21924e-08
5.19929e-08
5.17773e-08
5.15468e-08
5.13047e-08
5.10524e-08
5.07897e-08
5.05171e-08
5.02367e-08
4.99488e-08
4.96546e-08
4.93551e-08
4.90502e-08
4.87412e-08
4.84286e-08
4.81143e-08
4.77986e-08
4.74819e-08
4.71635e-08
4.68441e-08
4.65249e-08
4.62074e-08
4.58913e-08
4.55765e-08
4.52629e-08
4.49497e-08
4.46355e-08
4.43189e-08
4.4e-08
4.368e-08
4.33592e-08
4.3038e-08
4.27154e-08
4.2392e-08
4.2067e-08
4.17407e-08
4.14138e-08
4.10874e-08
4.07601e-08
4.04305e-08
4.01013e-08
3.97723e-08
3.94434e-08
3.91133e-08
3.87845e-08
3.84542e-08
3.81236e-08
3.7791e-08
3.74596e-08
3.71271e-08
3.67979e-08
3.64658e-08
3.61367e-08
3.58066e-08
3.54775e-08
3.51529e-08
3.4828e-08
3.45097e-08
3.41882e-08
3.38717e-08
3.3553e-08
3.32327e-08
3.29236e-08
3.26067e-08
3.22891e-08
3.19755e-08
3.16378e-08
3.12981e-08
3.10143e-08
3.06802e-08
3.03778e-08
3.0083e-08
2.95648e-08
2.74023e-08
2.67613e-08
2.68393e-08
2.75979e-08
2.5079e-08
2.10884e-08
2.01533e-08
2.03255e-08
2.01302e-08
1.99555e-08
1.95761e-08
1.91902e-08
1.88517e-08
1.85548e-08
1.87682e-08
1.87004e-08
1.81902e-08
1.78571e-08
1.66302e-08
1.63148e-08
1.63743e-08
1.66134e-08
1.55806e-08
1.3374e-08
1.28249e-08
1.26649e-08
1.25453e-08
1.24363e-08
1.2381e-08
1.22486e-08
1.21355e-08
1.19397e-08
1.17685e-08
1.14859e-08
1.16324e-08
1.19662e-08
1.20516e-08
1.19511e-08
1.11982e-08
9.68635e-09
9.55548e-09
8.74423e-09
9.06229e-09
7.88666e-09
6.69997e-09
6.72749e-09
7.1e-09
7.47021e-09
7.68742e-09
7.81563e-09
7.88715e-09
7.9246e-09
7.94119e-09
7.94215e-09
7.92991e-09
7.91306e-09
7.89846e-09
7.87904e-09
7.85799e-09
7.84048e-09
7.81963e-09
7.79914e-09
7.78267e-09
7.76682e-09
7.74755e-09
7.72887e-09
7.71532e-09
7.70243e-09
7.68914e-09
7.67587e-09
7.66301e-09
7.65123e-09
7.63981e-09
7.62879e-09
7.61754e-09
7.60926e-09
7.6008e-09
7.58735e-09
7.57374e-09
7.56094e-09
7.54804e-09
7.53595e-09
7.52471e-09
7.51326e-09
7.50201e-09
7.49156e-09
7.48197e-09
7.47427e-09
7.46402e-09
7.45422e-09
7.44979e-09
7.44536e-09
7.43981e-09
7.4341e-09
7.42821e-09
7.42172e-09
7.41501e-09
7.40833e-09
7.40215e-09
7.39684e-09
7.39236e-09
7.38822e-09
7.38358e-09
7.37846e-09
7.37391e-09
7.37063e-09
7.36927e-09
7.3691e-09
7.36812e-09
7.36606e-09
7.36472e-09
7.36582e-09
7.36809e-09
7.36895e-09
7.36788e-09
7.37085e-09
7.37499e-09
7.37319e-09
7.37292e-09
7.35576e-09
7.41656e-09
7.24479e-09
7.65251e-09
6.57516e-09
8.15774e-09
2.62738e-09
1.50803e-08
1.35625e-08
2.21125e-08
1.649e-08
9.76735e-09
7.53136e-09
7.34301e-09
8.589e-09
1.0302e-08
1.27984e-08
1.44063e-08
1.7333e-08
2.22989e-08
2.7879e-08
3.54118e-08
4.96352e-08
6.967e-08
8.20928e-08
7.62351e-08
7.55487e-08
8.69219e-08
8.9671e-08
9.81298e-08
1.17095e-07
1.20246e-07
1.11333e-07
1.02892e-07
8.5933e-08
9.03383e-08
8.93879e-08
7.54717e-08
6.79723e-08
8.67193e-08
8.93571e-08
9.00188e-08
9.03122e-08
8.08358e-08
5.53094e-08
3.84224e-08
3.12009e-08
3.16677e-08
3.01085e-08
2.73744e-08
2.89469e-08
3.71094e-08
3.84351e-08
3.01965e-08
2.54212e-08
2.21411e-08
2.15461e-08
2.29426e-08
2.71857e-08
3.19416e-08
3.09477e-08
2.55782e-08
2.12406e-08
1.8497e-08
1.65095e-08
1.57474e-08
1.64116e-08
1.77434e-08
1.9684e-08
2.0381e-08
1.784e-08
1.66141e-08
1.79449e-08
2.15326e-08
2.42473e-08
2.40062e-08
2.12894e-08
1.7118e-08
1.45143e-08
1.40006e-08
1.62686e-08
2.25821e-08
2.48197e-08
3.3312e-08
3.62365e-08
3.65473e-08
3.13373e-08
4.16611e-08
7.05158e-08
7.25542e-08
7.21367e-08
7.63855e-08
7.98574e-08
7.89929e-08
7.53844e-08
6.89421e-08
4.91539e-08
2.82354e-08
2.46934e-08
3.07689e-08
4.19493e-08
4.75285e-08
6.14312e-08
6.81378e-08
5.74998e-08
6.55547e-08
7.04876e-08
5.81139e-08
4.48351e-08
3.80766e-08
3.48427e-08
3.65624e-08
4.50092e-08
5.07083e-08
2.76158e-08
2.65124e-08
4.16102e-08
1.01032e-07
7.20802e-08
4.92789e-08
3.29706e-08
2.60815e-08
3.77793e-08
3.27309e-08
2.26978e-08
1.24951e-08
1.35449e-08
2.79794e-08
2.65598e-08
4.19373e-08
4.64058e-08
1.07034e-07
1.28925e-07
1.36461e-07
1.41312e-07
1.22696e-07
1.16091e-07
1.22708e-07
1.06012e-07
8.53784e-08
7.75552e-08
6.70218e-08
6.28397e-08
5.99776e-08
5.76026e-08
5.52606e-08
5.25952e-08
4.95365e-08
4.72605e-08
4.53188e-08
4.42451e-08
4.31801e-08
4.15034e-08
3.94707e-08
3.78999e-08
3.71877e-08
3.70359e-08
3.59291e-08
3.45419e-08
3.30524e-08
3.19888e-08
3.17786e-08
3.16882e-08
3.0856e-08
2.95653e-08
2.87029e-08
2.85336e-08
2.85224e-08
2.81149e-08
2.74529e-08
2.72074e-08
2.72788e-08
2.698e-08
2.64969e-08
2.64725e-08
2.68396e-08
2.69243e-08
2.67227e-08
2.65955e-08
2.69452e-08
2.74628e-08
2.7703e-08
2.78976e-08
2.81075e-08
2.85077e-08
2.89042e-08
2.91287e-08
2.96427e-08
3.03961e-08
3.0961e-08
3.13681e-08
3.15343e-08
3.17067e-08
3.21064e-08
3.26823e-08
3.35781e-08
3.44587e-08
3.49898e-08
3.52955e-08
3.56078e-08
3.61705e-08
3.71369e-08
3.83268e-08
3.91775e-08
3.95316e-08
4.00932e-08
4.13774e-08
4.2935e-08
4.40768e-08
4.49286e-08
4.60567e-08
4.76193e-08
4.9586e-08
5.14958e-08
5.3135e-08
5.48594e-08
5.74321e-08
6.12263e-08
6.4758e-08
6.74319e-08
7.04409e-08
7.44609e-08
7.96915e-08
8.71337e-08
9.68315e-08
1.06927e-07
1.15448e-07
1.259e-07
1.41513e-07
1.64966e-07
2.02643e-07
2.19472e-07
2.22151e-07
2.24999e-07
2.27478e-07
2.28931e-07
2.29742e-07
2.31172e-07
2.33309e-07
2.13586e-07
1.82838e-07
1.56528e-07
1.34221e-07
1.16495e-07
1.04706e-07
9.66999e-08
9.04314e-08
8.55412e-08
7.99641e-08
7.46044e-08
7.03976e-08
6.67482e-08
6.34361e-08
6.12953e-08
5.95406e-08
5.76446e-08
5.55103e-08
5.34345e-08
5.22124e-08
5.15488e-08
5.06942e-08
4.94854e-08
4.83202e-08
4.71056e-08
4.63919e-08
4.66276e-08
4.6545e-08
4.60354e-08
4.55862e-08
4.50252e-08
4.45146e-08
4.43593e-08
4.45254e-08
4.48599e-08
4.49869e-08
4.49394e-08
4.48445e-08
4.49255e-08
4.52091e-08
4.53763e-08
4.54876e-08
4.5787e-08
4.63303e-08
4.68885e-08
4.74222e-08
4.77548e-08
4.775e-08
4.80551e-08
4.88748e-08
4.98109e-08
5.03696e-08
5.0697e-08
5.12857e-08
5.21032e-08
5.28552e-08
5.36331e-08
5.44854e-08
5.51822e-08
5.59636e-08
5.71511e-08
5.83925e-08
5.96081e-08
6.0601e-08
6.11513e-08
6.24679e-08
6.48977e-08
6.7228e-08
6.89272e-08
6.98737e-08
7.1575e-08
7.54552e-08
7.90957e-08
8.14879e-08
8.3986e-08
8.81668e-08
9.33129e-08
9.83413e-08
1.0316e-07
1.06979e-07
1.13269e-07
1.22128e-07
1.30569e-07
1.37916e-07
1.43258e-07
1.48366e-07
1.5652e-07
1.65935e-07
1.7331e-07
1.77161e-07
1.78251e-07
1.77607e-07
1.78463e-07
1.79289e-07
1.78452e-07
1.76597e-07
1.73084e-07
1.70547e-07
1.68689e-07
1.66784e-07
1.67074e-07
1.68887e-07
1.71211e-07
1.75433e-07
1.81546e-07
1.87719e-07
1.939e-07
2.02139e-07
2.1492e-07
2.31032e-07
2.47986e-07
2.71625e-07
3.01739e-07
3.37607e-07
3.81417e-07
3.81369e-07
3.8139e-07
3.81669e-07
3.81684e-07
3.81155e-07
3.80336e-07
3.79683e-07
3.79237e-07
3.78565e-07
3.77607e-07
3.70766e-07
3.27898e-07
2.95863e-07
2.70318e-07
2.48334e-07
2.30556e-07
2.1585e-07
2.03661e-07
1.9383e-07
1.8523e-07
1.7814e-07
1.71989e-07
1.66679e-07
1.62088e-07
1.57895e-07
1.54258e-07
1.51584e-07
1.49613e-07
1.48301e-07
1.46793e-07
1.4542e-07
1.44546e-07
1.44364e-07
1.4443e-07
1.44264e-07
1.44653e-07
1.45417e-07
1.46427e-07
1.4737e-07
1.48517e-07
1.50181e-07
1.52281e-07
1.54049e-07
1.56123e-07
1.58795e-07
1.62541e-07
1.65797e-07
1.69187e-07
1.72503e-07
1.76542e-07
1.80777e-07
1.87754e-07
1.92019e-07
1.98351e-07
2.02675e-07
2.09851e-07
2.11972e-07
2.24426e-07
2.26881e-07
2.42061e-07
2.45022e-07
2.38747e-07
2.43849e-07
2.36691e-07
2.65376e-07
2.72039e-07
3.4291e-07
3.9269e-07
2.7215e-07
2.55979e-07
2.69712e-07
2.53281e-07
4.14945e-07
3.36895e-07
1.19832e-07
1.00474e-07
7.27929e-08
6.87039e-08
3.37514e-08
2.79324e-08
4.1094e-08
6.36699e-08
7.35274e-08
6.65302e-08
1.02081e-07
1.0756e-07
1.3769e-07
1.66563e-07
1.94118e-07
2.22394e-07
4.42146e-07
2.38636e-07
9.59628e-08
7.86548e-08
5.85919e-08
5.63064e-08
2.89371e-08
2.45041e-08
3.60589e-08
5.15893e-08
5.73926e-08
5.50396e-08
9.32816e-08
1.13679e-07
2.44768e-07
1.9048e-07
1.68591e-07
1.23826e-07
1.7451e-07
1.56481e-07
2.84964e-07
6.4527e-08
6.43391e-08
3.26879e-08
2.58838e-08
1.47725e-08
1.14001e-08
6.70096e-09
6.35187e-09
8.71286e-09
1.11505e-08
1.28035e-08
1.31409e-08
1.67829e-08
2.32529e-08
3.05521e-08
3.85949e-08
4.67568e-08
5.56123e-08
6.60928e-08
7.71985e-08
8.94648e-08
1.03779e-07
1.21512e-07
1.39653e-07
1.60055e-07
1.87056e-07
2.13866e-07
2.44782e-07
2.87961e-07
3.41613e-07
3.92501e-07
4.17898e-07
4.14919e-07
4.12673e-07
4.10856e-07
4.09436e-07
4.07943e-07
4.06434e-07
4.05279e-07
4.04199e-07
4.03509e-07
4.02678e-07
4.05094e-07
4.06934e-07
4.07407e-07
4.07407e-07
4.06938e-07
4.05928e-07
4.05304e-07
4.04809e-07
4.04036e-07
4.03046e-07
4.01969e-07
4.01058e-07
3.90876e-07
3.69896e-07
3.61517e-07
3.5243e-07
3.43119e-07
3.35523e-07
3.28325e-07
3.2249e-07
3.17809e-07
3.12335e-07
3.05461e-07
2.98446e-07
2.93226e-07
2.89835e-07
2.86493e-07
2.81601e-07
2.73624e-07
2.66919e-07
2.66877e-07
2.6898e-07
2.66872e-07
2.59766e-07
2.54774e-07
2.56589e-07
2.60971e-07
2.57673e-07
2.51101e-07
2.49645e-07
2.59002e-07
2.50466e-07
2.8275e-07
1.59456e-07
1.80246e-07
4.95863e-08
3.2628e-08
1.71205e-08
3.19002e-08
3.22277e-09
1.11833e-08
1.93877e-08
1.3608e-08
9.2146e-09
6.91962e-09
7.07836e-09
9.88041e-09
1.21432e-08
1.38374e-08
2.38061e-08
7.52414e-08
6.87135e-08
7.03227e-08
8.87185e-08
9.09575e-08
9.31842e-08
9.5202e-08
9.72288e-08
9.975e-08
1.02253e-07
1.04795e-07
1.065e-07
1.06221e-07
1.03603e-07
9.98118e-08
9.59187e-08
9.25398e-08
7.23187e-08
6.06664e-08
5.2659e-08
4.64372e-08
4.0881e-08
4.18044e-08
5.94541e-08
6.50591e-08
5.33799e-08
3.42617e-08
2.1538e-08
1.83957e-08
2.04924e-08
2.61053e-08
2.5733e-08
1.86803e-08
1.49219e-08
1.38518e-08
1.33989e-08
1.37441e-08
1.57745e-08
1.65896e-08
1.42595e-08
1.24428e-08
1.23862e-08
1.34781e-08
1.47444e-08
1.41075e-08
1.21356e-08
1.06341e-08
9.55628e-09
9.22106e-09
9.77479e-09
9.94219e-09
9.37897e-09
7.83883e-09
6.57826e-09
7.05991e-09
8.81841e-09
1.02639e-08
1.1339e-08
1.24241e-08
1.26535e-08
1.21537e-08
1.14666e-08
1.3056e-08
1.67162e-08
2.65451e-08
5.34853e-08
6.56385e-08
6.5331e-08
6.09388e-08
6.50316e-08
6.48635e-08
6.54637e-08
6.7123e-08
6.89289e-08
7.00636e-08
7.02342e-08
6.59417e-08
6.16196e-08
5.76371e-08
5.42805e-08
5.24118e-08
5.07387e-08
3.98611e-08
2.55184e-08
1.90239e-08
1.83747e-08
2.09006e-08
2.9691e-08
6.4527e-08
6.94893e-08
6.19561e-08
5.28474e-08
4.654e-08
4.20827e-08
3.92647e-08
3.59207e-08
2.55091e-08
2.02666e-08
1.48496e-08
1.23833e-08
1.4589e-08
1.9164e-08
2.60036e-08
3.938e-08
8.64808e-08
4.77867e-08
4.82185e-08
1.92154e-08
2.43609e-08
1.61667e-08
1.32774e-08
7.615e-09
8.51696e-09
1.80249e-08
1.79459e-08
2.8645e-08
3.06999e-08
1.58841e-07
2.09999e-07
7.3453e-08
6.45924e-08
5.82355e-08
5.34883e-08
5.17087e-08
4.88482e-08
4.68218e-08
4.28207e-08
4.02891e-08
3.95435e-08
3.77446e-08
3.5846e-08
3.38154e-08
3.24192e-08
3.0867e-08
2.9852e-08
2.86415e-08
2.72117e-08
2.65894e-08
2.66041e-08
2.60039e-08
2.46145e-08
2.33113e-08
2.23413e-08
2.21525e-08
2.22281e-08
2.17455e-08
2.09674e-08
2.00733e-08
1.94188e-08
1.91665e-08
1.91255e-08
1.8983e-08
1.87029e-08
1.848e-08
1.81952e-08
1.7897e-08
1.77452e-08
1.77673e-08
1.78154e-08
1.77602e-08
1.78249e-08
1.78176e-08
1.78672e-08
1.79806e-08
1.80985e-08
1.8418e-08
1.87047e-08
1.87481e-08
1.8745e-08
1.90074e-08
1.95589e-08
1.99779e-08
2.01623e-08
2.0431e-08
2.07341e-08
2.10513e-08
2.1321e-08
2.16145e-08
2.21898e-08
2.28402e-08
2.34114e-08
2.38585e-08
2.40729e-08
2.43033e-08
2.48526e-08
2.57337e-08
2.66455e-08
2.73129e-08
2.78453e-08
2.85458e-08
2.94212e-08
3.03434e-08
3.1321e-08
3.25666e-08
3.38881e-08
3.51083e-08
3.62792e-08
3.75646e-08
3.94209e-08
4.1786e-08
4.42398e-08
4.64567e-08
4.88516e-08
5.16368e-08
5.52499e-08
5.93741e-08
6.39745e-08
6.99178e-08
7.73631e-08
8.53783e-08
9.53342e-08
1.06933e-07
1.18393e-07
1.36516e-07
1.65125e-07
2.04732e-07
2.5224e-07
2.70858e-07
2.47676e-07
2.30774e-07
2.12772e-07
1.8129e-07
1.58428e-07
1.38685e-07
1.17232e-07
1.00882e-07
9.09754e-08
8.37016e-08
7.87568e-08
7.48911e-08
7.03612e-08
6.53628e-08
6.0488e-08
5.68485e-08
5.42882e-08
5.30858e-08
5.22828e-08
5.0154e-08
4.79276e-08
4.59055e-08
4.45224e-08
4.43455e-08
4.40611e-08
4.33238e-08
4.21873e-08
4.08866e-08
4.00832e-08
3.98096e-08
4.01732e-08
4.02866e-08
3.97373e-08
3.93247e-08
3.92115e-08
3.90962e-08
3.90571e-08
3.91855e-08
3.93989e-08
3.95743e-08
3.94774e-08
3.92594e-08
3.97726e-08
4.08064e-08
4.12377e-08
4.10794e-08
4.09846e-08
4.13381e-08
4.20714e-08
4.28241e-08
4.31792e-08
4.34666e-08
4.44025e-08
4.51548e-08
4.54723e-08
4.57483e-08
4.6026e-08
4.67964e-08
4.82237e-08
4.95313e-08
5.01548e-08
5.04602e-08
5.07187e-08
5.13647e-08
5.29216e-08
5.49201e-08
5.63821e-08
5.69825e-08
5.72594e-08
5.83289e-08
6.05626e-08
6.34302e-08
6.49703e-08
6.54646e-08
6.73667e-08
7.14146e-08
7.51231e-08
7.6634e-08
7.85108e-08
8.26148e-08
8.77392e-08
9.25284e-08
9.64315e-08
9.94273e-08
1.03823e-07
1.11478e-07
1.19892e-07
1.25529e-07
1.28536e-07
1.32158e-07
1.38059e-07
1.46424e-07
1.54209e-07
1.57402e-07
1.56586e-07
1.54639e-07
1.5704e-07
1.60176e-07
1.60919e-07
1.60842e-07
1.5819e-07
1.5711e-07
1.59193e-07
1.59152e-07
1.58232e-07
1.58526e-07
1.60034e-07
1.63529e-07
1.69825e-07
1.76544e-07
1.80471e-07
1.85746e-07
1.94691e-07
2.06998e-07
2.2251e-07
2.40228e-07
2.60629e-07
2.82768e-07
3.0836e-07
3.41e-07
3.75615e-07
4.01785e-07
4.19564e-07
4.37797e-07
4.41451e-07
4.22623e-07
3.98454e-07
3.69075e-07
3.34655e-07
3.03599e-07
2.79512e-07
2.59718e-07
2.42118e-07
2.25229e-07
2.10358e-07
1.98074e-07
1.88878e-07
1.81993e-07
1.74926e-07
1.67791e-07
1.62268e-07
1.58204e-07
1.54822e-07
1.5111e-07
1.4793e-07
1.45312e-07
1.43895e-07
1.42794e-07
1.41498e-07
1.39873e-07
1.39166e-07
1.39217e-07
1.40057e-07
1.40126e-07
1.40793e-07
1.41869e-07
1.42532e-07
1.42898e-07
1.43713e-07
1.46351e-07
1.48262e-07
1.50045e-07
1.51295e-07
1.54788e-07
1.5818e-07
1.62394e-07
1.65105e-07
1.69467e-07
1.71933e-07
1.7723e-07
1.82035e-07
1.88587e-07
1.92281e-07
2.01228e-07
2.05147e-07
2.13571e-07
2.19341e-07
2.12365e-07
2.18456e-07
2.14555e-07
2.35117e-07
2.41872e-07
2.89384e-07
3.21857e-07
2.31515e-07
2.14417e-07
2.24396e-07
2.27794e-07
1.21375e-06
3.92833e-07
1.15556e-07
9.02197e-08
6.39692e-08
6.28476e-08
3.14947e-08
2.68024e-08
4.12274e-08
5.67901e-08
7.67039e-08
7.15719e-08
1.42541e-07
1.09799e-07
1.30056e-07
2.37211e-07
1.91627e-07
5.69389e-07
2.59068e-07
2.00213e-07
7.5458e-08
6.22929e-08
4.78212e-08
4.77965e-08
2.60315e-08
2.29829e-08
3.49348e-08
4.59735e-08
5.76677e-08
5.5958e-08
1.0431e-07
8.23065e-08
1.05641e-07
1.17781e-07
9.96964e-08
1.22201e-07
1.23379e-07
1.15723e-07
3.16808e-07
6.7471e-08
6.62055e-08
2.95339e-08
2.22969e-08
1.29642e-08
9.93418e-09
6.15325e-09
5.94353e-09
8.07732e-09
9.61943e-09
1.16831e-08
1.32729e-08
1.92638e-08
2.32144e-08
2.59223e-08
3.19868e-08
3.654e-08
4.14712e-08
4.74412e-08
5.41896e-08
6.131e-08
7.01398e-08
8.00619e-08
9.2323e-08
1.05552e-07
1.21585e-07
1.40211e-07
1.57026e-07
1.79796e-07
2.07569e-07
2.30408e-07
2.62523e-07
3.09024e-07
3.60343e-07
3.94469e-07
4.6311e-07
5.636e-07
6.71758e-07
7.92422e-07
9.07599e-07
9.72185e-07
9.52584e-07
9.14818e-07
8.60816e-07
9.07233e-07
7.76481e-07
6.27216e-07
5.64939e-07
5.34638e-07
5.14978e-07
4.95705e-07
4.76151e-07
4.57206e-07
4.37152e-07
4.17362e-07
4.00051e-07
3.79911e-07
3.5065e-07
3.5819e-07
3.65324e-07
3.54651e-07
3.40203e-07
3.29346e-07
3.20584e-07
3.14076e-07
3.09129e-07
3.0436e-07
2.99272e-07
2.93792e-07
2.87925e-07
2.81513e-07
2.74747e-07
2.68911e-07
2.66024e-07
2.66971e-07
2.6847e-07
2.65209e-07
2.57491e-07
2.51415e-07
2.54189e-07
2.61143e-07
2.58776e-07
2.49106e-07
2.46581e-07
2.55012e-07
2.48199e-07
2.22679e-07
2.47516e-07
1.55842e-07
1.76301e-07
4.86155e-08
3.18798e-08
1.66033e-08
3.08463e-08
3.28199e-09
1.21615e-08
9.97459e-09
8.26394e-09
6.31623e-09
5.06854e-09
5.91459e-09
1.12296e-08
1.44581e-08
1.42035e-08
1.93446e-08
2.84708e-08
3.05644e-08
4.014e-08
6.87253e-08
9.0895e-08
9.06388e-08
9.08114e-08
9.14346e-08
9.25365e-08
9.37584e-08
9.47832e-08
9.52837e-08
9.51798e-08
7.42889e-08
5.45616e-08
4.20235e-08
3.28398e-08
2.64791e-08
2.30686e-08
2.1756e-08
2.38857e-08
2.69675e-08
2.27447e-08
2.03965e-08
1.86894e-08
1.53704e-08
1.24324e-08
1.09836e-08
1.14286e-08
1.43222e-08
1.81475e-08
1.85961e-08
1.33439e-08
9.24302e-09
7.46325e-09
7.37073e-09
8.84709e-09
1.21732e-08
1.47925e-08
1.17731e-08
8.81586e-09
7.47171e-09
7.32622e-09
8.25747e-09
9.78629e-09
1.05054e-08
9.65923e-09
8.36836e-09
8.10808e-09
8.21623e-09
7.22774e-09
5.90613e-09
4.91629e-09
4.63243e-09
5.19129e-09
5.67081e-09
5.62531e-09
6.16182e-09
7.49175e-09
8.40606e-09
8.44976e-09
8.93329e-09
1.0032e-08
1.20172e-08
1.28596e-08
1.85224e-08
3.66365e-08
6.97296e-08
7.75296e-08
7.34366e-08
7.04353e-08
6.88777e-08
6.78553e-08
6.75269e-08
6.76467e-08
6.75849e-08
6.66981e-08
6.47953e-08
6.10316e-08
5.73385e-08
5.26986e-08
5.08527e-08
5.12733e-08
5.20054e-08
5.53389e-08
3.84666e-08
2.76464e-08
2.2397e-08
2.57407e-08
3.78797e-08
5.89072e-08
6.96734e-08
6.51075e-08
6.06504e-08
3.36647e-08
2.419e-08
2.20364e-08
2.76825e-08
3.01979e-08
1.78569e-08
1.40358e-08
1.29796e-08
1.1839e-08
1.33851e-08
1.72587e-08
2.29148e-08
4.56011e-08
7.48772e-08
5.24085e-08
5.03478e-08
1.70661e-08
2.05203e-08
1.33523e-08
1.2135e-08
7.30967e-09
8.14407e-09
1.59347e-08
1.6063e-08
2.64263e-08
2.79847e-08
2.09896e-07
1.61194e-07
4.82747e-08
4.14231e-08
3.84155e-08
4.2801e-08
4.04729e-08
3.91893e-08
3.75999e-08
3.52951e-08
3.38283e-08
3.30542e-08
3.136e-08
2.94608e-08
2.81117e-08
2.71354e-08
2.60489e-08
2.59692e-08
2.57463e-08
2.46182e-08
2.32099e-08
2.20597e-08
2.1461e-08
2.15669e-08
2.13003e-08
2.0432e-08
1.97386e-08
1.92422e-08
1.88116e-08
1.83846e-08
1.80078e-08
1.79331e-08
1.79701e-08
1.77477e-08
1.72279e-08
1.69087e-08
1.69609e-08
1.70081e-08
1.69153e-08
1.68237e-08
1.69599e-08
1.70259e-08
1.69049e-08
1.68987e-08
1.7089e-08
1.73638e-08
1.76005e-08
1.75832e-08
1.75987e-08
1.79878e-08
1.84907e-08
1.8702e-08
1.88305e-08
1.90454e-08
1.93853e-08
1.98556e-08
2.02469e-08
2.05714e-08
2.09619e-08
2.1401e-08
2.19433e-08
2.25562e-08
2.29912e-08
2.3324e-08
2.36813e-08
2.42611e-08
2.51948e-08
2.61187e-08
2.68015e-08
2.72755e-08
2.78409e-08
2.8927e-08
3.03071e-08
3.15939e-08
3.2603e-08
3.33828e-08
3.44988e-08
3.60544e-08
3.82221e-08
4.04672e-08
4.21099e-08
4.40218e-08
4.67634e-08
4.96314e-08
5.30919e-08
5.70845e-08
6.10112e-08
6.53895e-08
7.14737e-08
7.93011e-08
8.87826e-08
9.96721e-08
1.08802e-07
1.18205e-07
1.33441e-07
1.55658e-07
1.80366e-07
1.9053e-07
1.81215e-07
1.73989e-07
1.68059e-07
1.53448e-07
1.3934e-07
1.22624e-07
1.04222e-07
9.17653e-08
8.55512e-08
8.12715e-08
7.74613e-08
7.26011e-08
6.66968e-08
6.1763e-08
5.80009e-08
5.52644e-08
5.33198e-08
5.26323e-08
5.1637e-08
4.91189e-08
4.65147e-08
4.47355e-08
4.3925e-08
4.37257e-08
4.33281e-08
4.24654e-08
4.12302e-08
4.01693e-08
3.98878e-08
3.99651e-08
3.97895e-08
3.94714e-08
3.89614e-08
3.8645e-08
3.89289e-08
3.91047e-08
3.89905e-08
3.89002e-08
3.89991e-08
3.91517e-08
3.89774e-08
3.88705e-08
3.95842e-08
4.06197e-08
4.11289e-08
4.12467e-08
4.11035e-08
4.1109e-08
4.15486e-08
4.23487e-08
4.30757e-08
4.38041e-08
4.49739e-08
4.53654e-08
4.49973e-08
4.5217e-08
4.60185e-08
4.72339e-08
4.86769e-08
4.97709e-08
5.00847e-08
5.01554e-08
5.08725e-08
5.1994e-08
5.32973e-08
5.508e-08
5.64874e-08
5.71867e-08
5.81909e-08
5.95647e-08
6.10885e-08
6.31034e-08
6.4347e-08
6.59595e-08
6.89163e-08
7.20099e-08
7.45816e-08
7.60362e-08
7.84646e-08
8.27653e-08
8.70813e-08
9.03145e-08
9.32027e-08
9.69772e-08
1.01365e-07
1.07017e-07
1.12483e-07
1.15769e-07
1.19559e-07
1.24983e-07
1.2852e-07
1.32503e-07
1.37354e-07
1.40577e-07
1.42824e-07
1.44054e-07
1.44948e-07
1.44685e-07
1.46648e-07
1.50815e-07
1.51619e-07
1.50337e-07
1.50983e-07
1.52127e-07
1.5245e-07
1.53915e-07
1.55673e-07
1.57468e-07
1.61719e-07
1.6648e-07
1.69226e-07
1.74292e-07
1.81144e-07
1.89721e-07
2.01461e-07
2.11989e-07
2.24469e-07
2.40378e-07
2.56367e-07
2.72287e-07
2.86634e-07
2.96634e-07
3.03306e-07
3.10601e-07
3.14029e-07
3.10678e-07
3.02891e-07
2.87387e-07
2.68879e-07
2.53887e-07
2.41192e-07
2.29107e-07
2.17143e-07
2.05138e-07
1.94001e-07
1.85146e-07
1.78136e-07
1.72244e-07
1.65798e-07
1.59836e-07
1.55398e-07
1.52503e-07
1.49627e-07
1.46762e-07
1.43721e-07
1.41573e-07
1.40158e-07
1.3912e-07
1.37745e-07
1.36922e-07
1.36345e-07
1.36671e-07
1.3728e-07
1.37418e-07
1.38082e-07
1.38914e-07
1.40011e-07
1.40348e-07
1.41816e-07
1.43964e-07
1.4631e-07
1.47935e-07
1.50164e-07
1.52557e-07
1.56488e-07
1.60037e-07
1.64444e-07
1.67449e-07
1.70804e-07
1.7355e-07
1.81052e-07
1.86444e-07
1.97077e-07
2.014e-07
2.03469e-07
2.00723e-07
2.206e-07
2.23853e-07
2.89632e-07
2.93266e-07
2.30022e-07
1.99495e-07
1.70314e-07
1.96297e-07
1.93905e-07
4.11765e-06
4.65105e-07
1.07161e-07
8.36188e-08
5.93737e-08
5.89545e-08
3.01631e-08
2.54415e-08
3.88538e-08
5.15317e-08
7.142e-08
6.70805e-08
1.40214e-07
1.2518e-07
2.71415e-07
8.61488e-07
3.89791e-07
2.00769e-07
1.57087e-07
6.9697e-08
5.75743e-08
5.15327e-08
4.34171e-08
3.45613e-08
2.37091e-08
2.04898e-08
3.1197e-08
3.89676e-08
5.14385e-08
5.06164e-08
1.01171e-07
8.80974e-08
1.43613e-07
1.68597e-07
1.02728e-07
1.33865e-07
1.63758e-07
4.56471e-07
6.18403e-08
7.41202e-08
6.62818e-08
2.54125e-08
1.95402e-08
1.20038e-08
9.12103e-09
5.80533e-09
5.6431e-09
7.62379e-09
8.99559e-09
1.13471e-08
1.36562e-08
1.90477e-08
2.42418e-08
3.6943e-08
6.99816e-08
5.45033e-08
4.23156e-08
4.00452e-08
4.25819e-08
4.69464e-08
5.25496e-08
5.91485e-08
6.63444e-08
7.50676e-08
8.42423e-08
9.42349e-08
1.0684e-07
1.20953e-07
1.37102e-07
1.53489e-07
1.72913e-07
1.96297e-07
2.19851e-07
2.48422e-07
2.82011e-07
3.15681e-07
3.47518e-07
3.98076e-07
4.61691e-07
5.22208e-07
5.82524e-07
6.46506e-07
6.85323e-07
6.89216e-07
7.03668e-07
7.15045e-07
7.20866e-07
6.59884e-07
5.87497e-07
5.4224e-07
5.1748e-07
4.97175e-07
4.74916e-07
4.57371e-07
4.35018e-07
4.12328e-07
3.9482e-07
3.82855e-07
3.68309e-07
3.51254e-07
3.52811e-07
3.4986e-07
3.39852e-07
3.2895e-07
3.20484e-07
3.14739e-07
3.10767e-07
3.06533e-07
3.00779e-07
2.9404e-07
2.87568e-07
2.81835e-07
2.76246e-07
2.70687e-07
2.66502e-07
2.66324e-07
2.68835e-07
2.67657e-07
2.60947e-07
2.54142e-07
2.54223e-07
2.60104e-07
2.60758e-07
2.51175e-07
2.44828e-07
2.47267e-07
2.49536e-07
2.41038e-07
2.24514e-07
2.60411e-07
1.5919e-07
1.75441e-07
4.8613e-08
3.18925e-08
1.65768e-08
3.09781e-08
2.91589e-09
2.16869e-08
7.16781e-09
6.09119e-09
4.62867e-09
4.07775e-09
5.77061e-09
1.35781e-08
2.26544e-08
1.86511e-08
1.37301e-08
1.2162e-08
1.33066e-08
1.95335e-08
3.26842e-08
3.74246e-08
4.33225e-08
4.49741e-08
3.96822e-08
3.5438e-08
3.04407e-08
2.71105e-08
2.37037e-08
2.30868e-08
2.2493e-08
2.07332e-08
1.72654e-08
1.393e-08
1.22164e-08
1.1871e-08
1.31464e-08
1.70613e-08
2.11073e-08
1.67011e-08
1.18242e-08
9.1611e-09
8.07902e-09
7.68685e-09
8.14839e-09
9.29369e-09
1.10952e-08
1.33741e-08
1.417e-08
1.1078e-08
7.56103e-09
6.32153e-09
6.76235e-09
8.81534e-09
1.3591e-08
1.72236e-08
1.19918e-08
7.50668e-09
5.96839e-09
5.77765e-09
6.60062e-09
9.41967e-09
1.27617e-08
1.0652e-08
8.47641e-09
8.14459e-09
7.63384e-09
6.26936e-09
5.18837e-09
4.82949e-09
5.17896e-09
5.34045e-09
4.82569e-09
4.32933e-09
4.43488e-09
5.24235e-09
6.36023e-09
6.78874e-09
7.90158e-09
9.7074e-09
1.05797e-08
1.11031e-08
1.07412e-08
1.36565e-08
2.55039e-08
4.51144e-08
9.14967e-08
8.98243e-08
9.74721e-08
8.8288e-08
8.0678e-08
7.54357e-08
7.17944e-08
6.91408e-08
6.69002e-08
6.46891e-08
6.21941e-08
5.96885e-08
5.71341e-08
5.53292e-08
5.40783e-08
5.50227e-08
5.84496e-08
6.41223e-08
5.14668e-08
3.61958e-08
3.34121e-08
3.2284e-08
3.41674e-08
4.01185e-08
5.32352e-08
4.02938e-08
3.07215e-08
2.98046e-08
1.85809e-08
1.20937e-08
1.06865e-08
1.41612e-08
1.71545e-08
1.51236e-08
1.38185e-08
1.46381e-08
1.50245e-08
1.36531e-08
1.84227e-08
2.51217e-08
5.77394e-08
7.36145e-08
5.89785e-08
5.49613e-08
1.81774e-08
2.17586e-08
1.30487e-08
1.2393e-08
7.62972e-09
8.48489e-09
1.49394e-08
1.44973e-08
2.33783e-08
2.19961e-08
3.7004e-08
9.54041e-08
9.00437e-08
3.76407e-08
3.44128e-08
3.57602e-08
3.41053e-08
3.42943e-08
3.31195e-08
3.08886e-08
2.89566e-08
2.78261e-08
2.6787e-08
2.64409e-08
2.64515e-08
2.5777e-08
2.40881e-08
2.27876e-08
2.20314e-08
2.197e-08
2.18425e-08
2.11128e-08
2.02416e-08
1.95262e-08
1.91697e-08
1.90716e-08
1.86895e-08
1.81124e-08
1.78887e-08
1.79403e-08
1.76826e-08
1.71714e-08
1.70008e-08
1.71194e-08
1.70736e-08
1.6896e-08
1.67999e-08
1.68297e-08
1.69277e-08
1.6889e-08
1.68234e-08
1.6981e-08
1.71295e-08
1.7197e-08
1.72795e-08
1.75028e-08
1.78935e-08
1.82005e-08
1.82529e-08
1.83618e-08
1.85769e-08
1.89828e-08
1.95108e-08
2.00048e-08
2.03508e-08
2.05256e-08
2.08503e-08
2.13235e-08
2.1945e-08
2.26447e-08
2.3157e-08
2.34512e-08
2.37638e-08
2.45058e-08
2.54764e-08
2.64052e-08
2.69691e-08
2.73614e-08
2.83314e-08
2.97556e-08
3.0993e-08
3.18521e-08
3.25951e-08
3.37628e-08
3.54835e-08
3.76826e-08
3.95589e-08
4.0771e-08
4.23736e-08
4.5046e-08
4.82317e-08
5.17469e-08
5.52098e-08
5.83063e-08
6.17233e-08
6.69452e-08
7.43706e-08
8.2101e-08
9.05809e-08
9.91404e-08
1.06401e-07
1.14748e-07
1.24704e-07
1.37276e-07
1.45126e-07
1.43515e-07
1.4014e-07
1.3612e-07
1.30181e-07
1.21494e-07
1.06858e-07
9.39867e-08
8.56211e-08
8.08541e-08
7.85802e-08
7.4508e-08
6.84069e-08
6.2891e-08
5.89216e-08
5.62206e-08
5.45405e-08
5.32336e-08
5.19799e-08
5.01173e-08
4.75545e-08
4.52358e-08
4.41866e-08
4.37754e-08
4.31841e-08