/*--------------------------------*- C++ -*----------------------------------*\
| =========                 |                                                 |
| \\      /  F ield         | OpenFOAM: The Open Source CFD Toolbox           |
|  \\    /   O peration     | Version:  v2006                                 |
|   \\  /    A nd           | Website:  www.openfoam.com                      |
|    \\/     M anipulation  |                                                 |
\*---------------------------------------------------------------------------*/
FoamFile
{
    version     2.0;
    format      ascii;
    class       volScalarField;
    location    "5.7";
    object      omega;
}
// * * * * * * * * * * * * * * * * * * * * * * * * * * * * * * * * * * * * * //

dimensions      [0 0 -1 0 0 0 0];


internalField   nonuniform List<scalar> 
33000
(
0.802799
0.802924
0.803037
0.80313
0.803195
0.803234
0.803269
0.803332
0.803442
0.803613
0.803843
0.80413
0.804475
0.804889
0.805367
0.805886
0.806406
0.806868
0.807315
0.808028
0.809451
0.812059
0.815844
0.819925
0.823379
0.825932
0.827615
0.828555
0.828924
0.828951
0.829022
0.829278
0.829659
0.829994
0.830158
0.830154
0.830161
0.830249
0.830248
0.829939
0.829354
0.828861
0.8288
0.829188
0.829779
0.830166
0.830058
0.829479
0.828863
0.828597
0.828717
0.829035
0.829228
0.829119
0.828769
0.828421
0.828172
0.827939
0.82766
0.827349
0.827213
0.827506
0.828137
0.828741
0.82892
0.828591
0.828212
0.828053
0.827929
0.827425
0.826541
0.825445
0.824387
0.823397
0.822508
0.821682
0.820853
0.819837
0.8189
0.818628
0.817882
0.817949
0.817708
0.81816
0.818962
0.81987
0.820574
0.820935
0.821119
0.821159
0.821069
0.820919
0.820712
0.820386
0.819903
0.819234
0.818439
0.817516
0.816626
0.815503
0.814803
0.814883
0.815135
0.814932
0.814672
0.814797
0.815184
0.815386
0.815324
0.815067
0.814825
0.814504
0.814343
0.814321
0.81422
0.813986
0.81367
0.81342
0.813284
0.813183
0.813095
0.813047
0.812942
0.812946
0.813066
0.813152
0.813214
0.813243
0.813227
0.813222
0.813252
0.813272
0.813292
0.813294
0.813299
0.813291
0.813275
0.813267
0.81326
0.813258
0.813256
0.813254
0.813247
0.813237
0.813232
0.813229
0.813215
0.813193
0.813167
0.813145
0.81313
0.813119
0.8131
0.81307
0.813041
0.813016
0.812994
0.81297
0.812943
0.812912
0.81288
0.812847
0.812814
0.812785
0.812762
0.812745
0.812726
0.812708
0.812697
0.812693
0.812687
0.81268
0.812679
0.812686
0.8127
0.812715
0.81273
0.812751
0.812776
0.812801
0.812824
0.812844
0.812868
0.81289
0.812908
0.812921
0.812936
0.812954
0.812969
0.81298
0.812985
0.812987
0.812984
0.812978
0.812967
0.812952
0.812933
0.812911
0.812887
0.812862
0.812839
0.812818
0.812795
0.812768
0.812739
0.812709
0.81268
0.812653
0.812625
0.812594
0.812562
0.812532
0.812501
0.812468
0.81243
0.812392
0.812354
0.812317
0.812279
0.812237
0.81219
0.81214
0.812089
0.812038
0.811988
0.811935
0.81188
0.811824
0.811767
0.811711
0.811656
0.811602
0.811547
0.811491
0.811434
0.811378
0.811323
0.811268
0.811213
0.811157
0.811102
0.811046
0.81099
0.810932
0.810873
0.810815
0.810759
0.810703
0.810643
0.810582
0.810522
0.810463
0.810404
0.810344
0.810282
0.81022
0.810158
0.810095
0.810032
0.809969
0.809905
0.809839
0.809773
0.809707
0.809641
0.809577
0.80951
0.80944
0.809369
0.809298
0.809229
0.80916
0.80909
0.809017
0.808943
0.808868
0.808792
0.808716
0.808639
0.808562
0.808486
0.80841
0.808333
0.808254
0.808175
0.808096
0.808017
0.807939
0.807861
0.807781
0.8077
0.807617
0.807534
0.807452
0.807369
0.807286
0.8072
0.807112
0.807024
0.806933
0.806841
0.806746
0.806647
0.806544
0.806434
0.806315
0.806199
0.806088
0.805981
0.805879
0.805784
0.805694
0.805609
0.805529
0.805454
0.805386
0.805325
0.805268
0.805218
0.805174
0.805137
0.805106
0.805081
0.805063
0.805052
0.805048
0.80505
0.805057
0.805069
0.805086
0.805106
0.805128
0.80515
0.805172
0.805193
0.805213
0.805231
0.805247
0.805261
0.805271
0.805279
0.805285
0.805287
0.805288
0.805286
0.805281
0.805274
0.805265
0.805254
0.805241
0.805226
0.805209
0.805191
0.805171
0.805149
0.805126
0.805102
0.805077
0.805051
0.805024
0.804996
0.804967
0.804938
0.804908
0.804878
0.804847
0.804816
0.804785
0.804753
0.804722
0.80469
0.804658
0.804627
0.804595
0.804564
0.804532
0.804501
0.80447
0.804438
0.804407
0.804375
0.804343
0.804311
0.804279
0.804246
0.804214
0.804181
0.804149
0.804116
0.804084
0.804051
0.804018
0.803985
0.803952
0.803919
0.803886
0.803853
0.80382
0.803787
0.803754
0.803721
0.803688
0.803655
0.803622
0.803589
0.803556
0.803523
0.803491
0.803458
0.803427
0.803395
0.803363
0.803331
0.803299
0.803269
0.803237
0.803205
0.803174
0.80314
0.803107
0.803078
0.803045
0.803015
0.802986
0.802934
0.802892
0.802878
0.802823
0.80283
0.802802
0.802892
0.80292
0.802946
0.802945
0.802942
0.802927
0.802913
0.802894
0.802877
0.802857
0.802836
0.802816
0.802789
0.802764
0.802745
0.802718
0.802699
0.802671
0.802664
0.802661
0.802652
0.802642
0.802628
0.802613
0.802598
0.802582
0.802566
0.802544
0.802524
0.802509
0.802485
0.802472
0.802451
0.802389
0.802352
0.802352
0.802286
0.802382
0.802407
0.802731
0.802999
0.80324
0.803434
0.803583
0.803698
0.803786
0.803853
0.803904
0.803943
0.803971
0.803994
0.804011
0.804023
0.804033
0.804039
0.804044
0.804046
0.804048
0.804047
0.804046
0.804044
0.80404
0.804037
0.804032
0.804027
0.804021
0.804015
0.804008
0.804001
0.803993
0.803985
0.803976
0.803967
0.803957
0.803947
0.803936
0.803925
0.803914
0.803902
0.803891
0.803879
0.803868
0.803856
0.803845
0.803833
0.803822
0.80381
0.803799
0.803787
0.803775
0.803763
0.80375
0.803738
0.803725
0.803713
0.8037
0.803688
0.803675
0.803663
0.80365
0.803638
0.803626
0.803614
0.803603
0.803591
0.803579
0.803568
0.803557
0.803546
0.803535
0.803524
0.803513
0.803502
0.803491
0.80348
0.803466
0.80347
0.803414
0.803409
0.803095
0.359687
0.403814
0.476364
0.540176
0.592205
0.632617
0.657535
0.661797
0.659478
0.666455
0.687572
0.725132
0.777037
0.845711
0.933394
1.03117
1.12607
1.20928
1.2627
1.26834
1.23241
1.1722
1.11499
1.06257
0.992902
0.898437
0.80063
0.716928
0.647278
0.591296
0.551177
0.524053
0.50455
0.487676
0.471667
0.457756
0.447675
0.441835
0.438054
0.433313
0.42601
0.417678
0.412579
0.410666
0.407881
0.401718
0.394313
0.38754
0.382484
0.379792
0.376918
0.371101
0.36127
0.350196
0.341519
0.337101
0.336093
0.336254
0.335914
0.333399
0.329978
0.329849
0.334109
0.341954
0.351657
0.358988
0.36287
0.367941
0.377263
0.388083
0.402053
0.423356
0.454876
0.498154
0.552802
0.62113
0.708999
0.781341
0.852415
0.936953
1.05353
1.14222
1.20356
1.26573
1.25747
1.27618
1.27224
1.2365
1.1443
0.983861
0.779069
0.559266
0.388966
0.286579
0.248384
0.25832
0.312715
0.416399
0.593062
0.7811
0.896598
0.985712
1.05123
0.99891
0.844122
0.646956
0.464196
0.308993
0.234484
0.190821
0.14927
0.126302
0.11374
0.119055
0.140259
0.177537
0.218442
0.234835
0.23036
0.2275
0.215305
0.180298
0.154203
0.137022
0.126768
0.118593
0.11175
0.104651
0.10052
0.0980635
0.0974238
0.0978666
0.0983897
0.0987215
0.0992454
0.100004
0.100799
0.101596
0.10248
0.103331
0.10409
0.104779
0.105354
0.105926
0.106521
0.107075
0.107534
0.108054
0.108708
0.109434
0.110107
0.11067
0.111112
0.111607
0.112247
0.112919
0.113527
0.114108
0.114746
0.115367
0.115851
0.116197
0.11659
0.117116
0.117586
0.117836
0.117995
0.118309
0.118671
0.118777
0.118608
0.11845
0.118513
0.118647
0.118496
0.117962
0.117342
0.116912
0.116564
0.116062
0.115338
0.114557
0.11387
0.112944
0.111542
0.110048
0.108861
0.107928
0.106937
0.105672
0.104159
0.10256
0.101143
0.0998913
0.0986518
0.0973308
0.0957905
0.0940168
0.0922573
0.0908518
0.089819
0.0887723
0.0873703
0.0856118
0.0838677
0.0824448
0.0812681
0.0800922
0.0786791
0.0771062
0.0757718
0.0748074
0.0737238
0.0721579
0.0704298
0.0689899
0.0680838
0.0674389
0.0665397
0.0651542
0.0635252
0.0621425
0.0612296
0.0607032
0.0600833
0.0591557
0.0580639
0.0569421
0.0560014
0.0554791
0.0551962
0.0546669
0.0538937
0.0531303
0.0524172
0.0519143
0.0516636
0.0514681
0.0510973
0.0506753
0.0504004
0.0501255
0.0497427
0.0493182
0.0490375
0.0489409
0.0490871
0.0489669
0.0484033
0.0480476
0.0479339
0.0479156
0.0478811
0.0476807
0.0474144
0.0471674
0.0469033
0.0467198
0.0465852
0.0463722
0.0460567
0.0456652
0.045358
0.0452339
0.0451903
0.0450596
0.0446947
0.0440782
0.0436207
0.0433528
0.0431862
0.0431109
0.0429561
0.0425907
0.0421691
0.0418319
0.0415424
0.0412683
0.0409808
0.0407319
0.0406199
0.0405086
0.0401805
0.0397612
0.039429
0.039196
0.0390273
0.0389107
0.0387833
0.0385379
0.0382038
0.0379047
0.0377
0.0375628
0.0374658
0.0372995
0.0370336
0.0367914
0.0365718
0.0363741
0.0362371
0.0360451
0.0357693
0.0355179
0.0353048
0.0351153
0.0348515
0.0345436
0.0342812
0.0340674
0.0338764
0.0336399
0.0333488
0.0330528
0.0328029
0.0325882
0.0323441
0.0320652
0.0318115
0.0315868
0.0313789
0.0311416
0.0308615
0.0306171
0.0304119
0.0302085
0.0299694
0.0297255
0.0295241
0.0293552
0.0292049
0.029053
0.0288654
0.0286609
0.0284672
0.0282993
0.0281582
0.0280318
0.0279018
0.0277493
0.0276081
0.0275052
0.0274297
0.0273703
0.0272964
0.0271963
0.0271124
0.0270703
0.0270639
0.0270538
0.0270257
0.0270176
0.0270507
0.0271064
0.0271506
0.0271793
0.0272253
0.0272931
0.0273547
0.0273964
0.0274428
0.027504
0.0275697
0.0276356
0.0276857
0.0277252
0.027772
0.0278279
0.0278858
0.0279366
0.027968
0.0279775
0.0279842
0.0279994
0.0280109
0.0280115
0.0280134
0.0280183
0.0280264
0.0280214
0.0279859
0.0279326
0.0278831
0.0278476
0.0278208
0.0277882
0.0277437
0.0276798
0.0275993
0.0275381
0.0274959
0.027415
0.0273069
0.0272392
0.0271783
0.0270912
0.0270165
0.0269571
0.0268838
0.0267846
0.0266704
0.0265543
0.0264577
0.0263771
0.0262765
0.0261947
0.0260517
0.0259148
0.0257666
0.0256617
0.0255647
0.0254579
0.0253769
0.0252066
0.0250767
0.0250708
0.0249313
0.0250058
0.0250829
0.0245216
0.0243812
0.0245743
0.0240034
0.0259225
0.0270268
0.023598
0.0251936
0.0245311
0.0247313
0.0272218
0.0291173
0.0274775
0.0254941
0.0240588
0.0232704
0.0229557
0.0228321
0.0227915
0.0227392
0.022822
0.0226418
0.0240334
0.024923
0.0227677
0.0238573
0.023625
0.0240063
0.0256563
0.0266691
0.0255
0.0243397
0.0234557
0.0230869
0.0227127
0.0227379
0.0225747
0.0233435
0.023529
0.0228508
0.0235806
0.0231994
0.0243609
0.0336865
0.0361694
0.029835
0.0385372
0.0419242
0.0459897
0.0562631
0.0644701
0.063539
0.054472
0.0443586
0.0367143
0.0316657
0.0284945
0.026514
0.0252607
0.0244697
0.0239784
0.0236858
0.0235175
0.023437
0.0234541
0.0235322
0.0236269
0.0237733
0.0239058
0.0240059
0.0240802
0.0242597
0.0244466
0.0245905
0.0247095
0.0248049
0.0249057
0.0250082
0.0250886
0.025165
0.0252163
0.0252764
0.0251211
0.0250055
0.0249785
0.0249816
0.025014
0.0250806
0.0251223
0.0251555
0.0252065
0.0252716
0.0253424
0.025402
0.0254055
0.0256071
0.0257338
0.0257484
0.02572
0.0256806
0.0256179
0.0255628
0.0255352
0.025552
0.0256149
0.0256895
0.0257247
0.0256881
0.0256141
0.0255978
0.0256898
0.0258592
0.0259904
0.0259546
0.0258241
0.0257818
0.0258963
0.0260135
0.0259288
0.0257456
0.0256816
0.0257715
0.0255802
0.0253718
0.0252704
0.0256102
0.0257768
0.0262439
0.0265432
0.0276752
0.0244501
0.158528
0.178137
0.203609
0.223337
0.234498
0.237665
0.232926
0.226337
0.226852
0.239329
0.264849
0.306675
0.371955
0.460608
0.564231
0.674097
0.781757
0.878406
0.955005
0.996205
0.985805
0.93632
0.859254
0.762053
0.655787
0.556724
0.472744
0.405791
0.355506
0.319601
0.293685
0.275154
0.262242
0.252117
0.242488
0.234166
0.228323
0.22513
0.2227
0.216739
0.207229
0.197913
0.193149
0.193651
0.195931
0.195827
0.191788
0.183882
0.174778
0.168476
0.166396
0.165476
0.162646
0.157078
0.149964
0.143974
0.14001
0.136852
0.134041
0.131512
0.13052
0.133191
0.139773
0.148578
0.15618
0.159692
0.161799
0.166478
0.171613
0.174959
0.178825
0.186206
0.19939
0.218554
0.24581
0.280975
0.323026
0.373333
0.428412
0.485206
0.543451
0.603076
0.665395
0.733303
0.831073
0.948049
1.0332
1.03496
0.989462
0.907491
0.792909
0.658658
0.510062
0.390092
0.300226
0.235619
0.190393
0.184796
0.237787
0.33659
0.423199
0.491013
0.541323
0.549166
0.503112
0.438014
0.379165
0.309295
0.231712
0.165064
0.113751
0.0797035
0.0547291
0.0329898
0.0250132
0.024679
0.0311348
0.0399609
0.0449119
0.0467708
0.0450063
0.0404215
0.0383699
0.0351044
0.0279969
0.0229773
0.0196504
0.0175786
0.0160153
0.0149177
0.0139832
0.0133914
0.0130324
0.0129783
0.0131278
0.0133783
0.0136048
0.0137698
0.0139283
0.0140559
0.0142005
0.014367
0.0145398
0.0147034
0.014862
0.0149946
0.0151103
0.0152479
0.0154115
0.0155853
0.0157506
0.015888
0.0160082
0.0161419
0.0162948
0.0164526
0.016597
0.0167287
0.0168778
0.0170381
0.017173
0.0172637
0.0173471
0.0174551
0.0175593
0.017619
0.0176482
0.017705
0.0177778
0.0177939
0.0177327
0.017665
0.0176518
0.0176568
0.0175959
0.0174423
0.0172582
0.0171083
0.0169764
0.0168145
0.0166141
0.0164049
0.0161984
0.0159272
0.0155614
0.015178
0.0148521
0.0145869
0.0143314
0.0140322
0.0136785
0.013292
0.0129261
0.0125963
0.0122927
0.0119986
0.0116728
0.0112969
0.0109177
0.0106045
0.0103633
0.0101239
0.00983044
0.00949376
0.00916891
0.00889559
0.00865764
0.00841628
0.00814914
0.00787725
0.00764879
0.00746421
0.00725404
0.00698904
0.00671842
0.00649081
0.00632997
0.00620441
0.0060559
0.00585325
0.00562343
0.00542709
0.00528554
0.00518765
0.00508851
0.00496455
0.00482478
0.00468479
0.0045642
0.00448355
0.00443154
0.00436401
0.00427327
0.00417936
0.00409341
0.00403437
0.00400387
0.00398154
0.00394104
0.00388961
0.00384789
0.00380889
0.00377118
0.00373478
0.00370759
0.00369412
0.00369861
0.00368118
0.00363213
0.00359944
0.00358876
0.00358607
0.00357544
0.00355017
0.0035239
0.00350391
0.00348425
0.00346982
0.00345347
0.00342162
0.00338492
0.00335057
0.00332423
0.00331144
0.00330379
0.00328569
0.00324744
0.00319115
0.00314791
0.00312136
0.00310402
0.00308993
0.00306881
0.00303694
0.00300265
0.00297153
0.00294115
0.00291249
0.00288511
0.00286302
0.0028517
0.00283877
0.00281034
0.00277507
0.00274689
0.00272727
0.00271159
0.00269835
0.00268518
0.00266528
0.00263958
0.00261656
0.00259952
0.00258596
0.00257471
0.00256012
0.00254109
0.00252416
0.00250616
0.00248736
0.00247277
0.00245669
0.00243758
0.00241854
0.00239891
0.00238106
0.00236051
0.0023379
0.00231727
0.00229899
0.00228123
0.00226121
0.00223933
0.00221608
0.00219498
0.00217622
0.00215611
0.00213484
0.00211477
0.00209552
0.00207714
0.00205791
0.0020374
0.00201904
0.00200247
0.0019857
0.00196735
0.00194947
0.00193386
0.00191971
0.00190617
0.00189261
0.00187786
0.00186243
0.00184754
0.00183399
0.00182194
0.00181085
0.00179997
0.00178858
0.00177796
0.00176911
0.00176193
0.0017559
0.00174942
0.00174239
0.00173669
0.0017332
0.00173154
0.00173019
0.00172869
0.00172862
0.00173065
0.00173398
0.0017372
0.00174001
0.0017436
0.00174819
0.00175288
0.00175728
0.00176214
0.00176712
0.00177189
0.00177697
0.00178171
0.00178614
0.00179074
0.00179539
0.0018001
0.00180453
0.00180798
0.00181033
0.00181235
0.00181466
0.00181689
0.00181851
0.00181989
0.0018208
0.00182167
0.00182214
0.00182144
0.00181963
0.00181759
0.00181609
0.00181502
0.00181327
0.0018106
0.0018073
0.00180324
0.00179984
0.00179667
0.00179232
0.00178679
0.00178337
0.00177935
0.00177453
0.00176961
0.0017657
0.00176101
0.00175625
0.00174988
0.00174396
0.00173804
0.00173346
0.00172611
0.00172171
0.00171457
0.00170754
0.00169806
0.00168953
0.00168259
0.00167334
0.00167083
0.00166023
0.00165971
0.00166145
0.00164361
0.00164606
0.00165808
0.00164267
0.00170199
0.00175443
0.00163697
0.00172591
0.00172616
0.00164347
0.0016136
0.00163701
0.00167893
0.00175971
0.00180373
0.00171464
0.00162967
0.00157879
0.00155626
0.00155148
0.00154313
0.00155946
0.00158182
0.00162196
0.00157278
0.00162595
0.00163885
0.00160392
0.00159256
0.0016107
0.00163776
0.00167695
0.00169734
0.00164838
0.00161452
0.00158149
0.00157734
0.00155866
0.00154967
0.00151709
0.00157885
0.00159174
0.0016772
0.00199757
0.00225104
0.00219963
0.00285539
0.00289491
0.00263075
0.00265765
0.00301405
0.0035463
0.00428458
0.00460056
0.00413973
0.00337276
0.00272378
0.00228621
0.00201453
0.0018478
0.00174304
0.00167433
0.00162855
0.00159806
0.00157816
0.00156543
0.00155837
0.00155663
0.00155785
0.00156051
0.00156556
0.00157093
0.00157624
0.00158198
0.00159209
0.00160275
0.00161196
0.00162041
0.0016282
0.00163493
0.00164119
0.00164673
0.00165198
0.00165587
0.00165945
0.00165601
0.00165405
0.00165447
0.00165583
0.00165756
0.00165952
0.00166219
0.00166473
0.00166806
0.00167242
0.00167749
0.00168141
0.00168379
0.00169188
0.0016965
0.00169776
0.00169755
0.0016965
0.00169455
0.00169233
0.00169103
0.001692
0.00169559
0.00170014
0.00170291
0.00170252
0.00170106
0.00170227
0.00170851
0.00171661
0.0017202
0.00171722
0.00171346
0.0017151
0.00172057
0.0017226
0.00171691
0.00171188
0.00171217
0.00171493
0.00170652
0.00170031
0.00169906
0.00171934
0.00172431
0.00178281
0.00183718
0.00196087
0.00177119
0.0760747
0.0870332
0.100628
0.111142
0.118339
0.120604
0.117747
0.113327
0.113011
0.119466
0.133234
0.15521
0.186114
0.223152
0.26166
0.299006
0.334356
0.366799
0.395741
0.418973
0.424798
0.406541
0.364382
0.309314
0.257816
0.218298
0.190067
0.169496
0.153458
0.140832
0.130641
0.122815
0.117547
0.114614
0.112718
0.110774
0.108377
0.105289
0.101214
0.0960485
0.0903167
0.0853964
0.0824823
0.0818461
0.0824494
0.0823844
0.0800779
0.0755882
0.0706796
0.0674141
0.0665468
0.0669816
0.0670764
0.0656293
0.0624617
0.0585844
0.0552076
0.0527476
0.0510147
0.0498216
0.0496776
0.0512187
0.0541137
0.0573277
0.0599711
0.0622578
0.0656907
0.0704575
0.0745036
0.0769202
0.0791025
0.0823567
0.0873568
0.0954449
0.107725
0.124698
0.143139
0.162125
0.183617
0.209742
0.245724
0.288953
0.337515
0.395677
0.464408
0.545596
0.626631
0.709781
0.751949
0.751754
0.704727
0.61539
0.532445
0.453934
0.36645
0.28889
0.228255
0.183148
0.158218
0.153894
0.16499
0.187598
0.226191
0.255917
0.259998
0.248033
0.234517
0.219764
0.202609
0.193246
0.176498
0.149341
0.112048
0.0760716
0.0493176
0.0327608
0.0176513
0.0114398
0.00885829
0.008183
0.00878326
0.00897337
0.0087037
0.00849976
0.00846743
0.00928211
0.00954743
0.0081133
0.00686969
0.00595892
0.0052556
0.00472001
0.00428119
0.00386775
0.00359599
0.0034758
0.00339952
0.00337722
0.0034101
0.00343289
0.00343192
0.00343652
0.00344092
0.00346004
0.00348916
0.00351411
0.00353287
0.00355491
0.00357693
0.00360248
0.00363119
0.0036587
0.00368591
0.00371299
0.00373864
0.00376662
0.00379453
0.00381948
0.00384645
0.00387739
0.00390738
0.00392912
0.00394298
0.00395655
0.00397197
0.00398405
0.00399032
0.00399676
0.00400499
0.00400506
0.00399063
0.00397202
0.0039625
0.00395739
0.00394115
0.00390868
0.00386818
0.00383008
0.00379644
0.00376056
0.00371837
0.00367265
0.00362394
0.00356451
0.00349383
0.00342103
0.00335491
0.00329762
0.00324322
0.00318446
0.00311911
0.00304801
0.00297709
0.00291045
0.00284923
0.00279329
0.00273671
0.00267399
0.00260906
0.00255089
0.0025023
0.00245676
0.00240725
0.00235402
0.00230118
0.0022526
0.00220841
0.00216572
0.00212337
0.00208256
0.00204484
0.00200946
0.00197254
0.00193258
0.00189379
0.00185969
0.00183112
0.00180507
0.00177821
0.00174875
0.00171897
0.0016924
0.00166867
0.00164707
0.00162705
0.00160827
0.00159065
0.00157318
0.00155583
0.0015402
0.00152651
0.00151411
0.00150221
0.00148929
0.00147705
0.00146816
0.00146129
0.00145421
0.00144612
0.0014375
0.00143049
0.00142517
0.0014202
0.00141493
0.00140973
0.00140513
0.00140144
0.00139773
0.0013939
0.00139079
0.00138829
0.00138564
0.00138205
0.00137817
0.00137519
0.00137328
0.0013711
0.0013682
0.0013651
0.0013615
0.00135769
0.00135433
0.00135133
0.00134852
0.00134653
0.00134457
0.0013414
0.00133699
0.001333
0.0013301
0.0013277
0.00132495
0.00132211
0.00131964
0.00131742
0.0013153
0.00131284
0.00131014
0.00130753
0.00130544
0.00130428
0.00130342
0.0013022
0.00130014
0.00129773
0.00129612
0.00129514
0.00129443
0.00129399
0.00129321
0.00129175
0.00129027
0.00128927
0.00128838
0.00128771
0.00128713
0.00128595
0.00128478
0.00128362
0.00128214
0.00128062
0.00127898
0.00127716
0.00127548
0.00127368
0.00127146
0.00126862
0.00126568
0.00126299
0.00126029
0.00125706
0.00125334
0.00124952
0.00124552
0.00124156
0.00123742
0.00123267
0.00122785
0.00122323
0.00121822
0.00121305
0.00120795
0.00120264
0.00119717
0.00119177
0.00118626
0.00118062
0.0011754
0.00117033
0.00116503
0.00115976
0.00115478
0.00114996
0.0011452
0.00114055
0.00113606
0.00113188
0.00112796
0.0011241
0.00112039
0.00111698
0.00111372
0.00111066
0.00110797
0.00110543
0.00110302
0.00110086
0.00109897
0.00109726
0.00109571
0.0010943
0.0010931
0.0010922
0.00109154
0.00109099
0.00109042
0.00108994
0.00108961
0.00108941
0.00108936
0.00108939
0.00108934
0.00108928
0.00108937
0.00108957
0.00108976
0.0010898
0.00108982
0.00108998
0.00109019
0.0010903
0.00109031
0.00109025
0.00109023
0.00109027
0.00109027
0.0010901
0.00108986
0.00108966
0.00108949
0.00108924
0.00108885
0.00108842
0.00108802
0.00108758
0.00108705
0.00108649
0.00108593
0.00108534
0.00108469
0.00108397
0.00108326
0.00108258
0.00108192
0.00108119
0.00108045
0.00107964
0.00107885
0.00107805
0.00107737
0.00107656
0.00107579
0.00107495
0.00107395
0.00107287
0.00107256
0.00107161
0.00107141
0.00107033
0.00106799
0.00106641
0.00106556
0.00106674
0.00106804
0.0010738
0.00107916
0.00108361
0.00108938
0.00110277
0.00110543
0.00117558
0.0012062
0.00115103
0.00111847
0.0011028
0.00110278
0.00108795
0.00108729
0.00107086
0.00106378
0.00106353
0.00107174
0.00107334
0.0010855
0.00109003
0.00109344
0.0010997
0.00111761
0.00115239
0.00116847
0.00112782
0.00110691
0.00109449
0.00109097
0.00107542
0.00107445
0.00106943
0.00106741
0.00107019
0.00106491
0.00105917
0.00105686
0.00111341
0.00111582
0.00108968
0.00117962
0.00123993
0.00144563
0.00159856
0.00205781
0.00223967
0.00195347
0.00171758
0.00156897
0.00148787
0.00140585
0.0013515
0.00128508
0.0012412
0.00123456
0.00122602
0.00120229
0.00117313
0.00114709
0.00112597
0.00110924
0.001096
0.00108525
0.0010768
0.00107011
0.00106454
0.00106014
0.0010568
0.00105434
0.00105245
0.00105105
0.00105008
0.00104944
0.00104909
0.00104911
0.00104946
0.00104985
0.0010503
0.00105083
0.00105135
0.00105178
0.00105219
0.00105266
0.00105315
0.00105364
0.00105413
0.00105474
0.00105533
0.00105581
0.00105615
0.00105644
0.00105674
0.00105704
0.00105737
0.00105776
0.00105816
0.00105855
0.00105893
0.00105928
0.00105944
0.00105961
0.00105982
0.00106002
0.00106015
0.00106018
0.00106012
0.00106009
0.00106017
0.00106039
0.00106067
0.00106091
0.00106107
0.00106121
0.00106136
0.00106149
0.00106155
0.0010616
0.00106172
0.00106188
0.00106191
0.00106176
0.00106164
0.00106179
0.00106198
0.00106192
0.00106182
0.001062
0.00106239
0.00106107
0.0010681
0.0010702
0.00111978
0.00117088
0.00127569
0.00120235
0.0438069
0.0508912
0.0600275
0.0674625
0.0726684
0.0740251
0.0713628
0.0674316
0.0657949
0.0677071
0.0730846
0.0809211
0.0900067
0.0987874
0.106195
0.112416
0.117417
0.121125
0.123477
0.124789
0.124258
0.120807
0.113364
0.103866
0.0947811
0.087466
0.0815602
0.0765624
0.0720628
0.06783
0.0639395
0.060746
0.0587924
0.0582577
0.0584982
0.0585379
0.0576573
0.0557104
0.0528353
0.0494339
0.0459976
0.043081
0.0412251
0.0406316
0.0408065
0.0405392
0.0389777
0.0363414
0.0336475
0.0320692
0.0320617
0.032977
0.0336049
0.0330813
0.03125
0.0286687
0.0264039
0.0250454
0.0243098
0.0239032
0.0240314
0.0248049
0.0258613
0.0267228
0.0274757
0.0289767
0.031654
0.0348374
0.0372302
0.0382374
0.0385747
0.0393965
0.0410118
0.0443565
0.0502331
0.0585567
0.0681424
0.0770213
0.0847824
0.0937232
0.105561
0.121615
0.143806
0.177312
0.223437
0.278035
0.341096
0.405391
0.458068
0.502451
0.516297
0.508356
0.476915
0.428788
0.369886
0.314878
0.264417
0.216714
0.177336
0.145232
0.121068
0.106851
0.102181
0.102812
0.104413
0.107555
0.108138
0.107914
0.105743
0.108131
0.11103
0.114254
0.118502
0.115977
0.10346
0.0824429
0.0609768
0.0425892
0.0289806
0.0155679
0.00953186
0.00647155
0.0047332
0.00438913
0.00428928
0.0041505
0.00426741
0.0046396
0.00563469
0.00635043
0.00575462
0.00511587
0.00457671
0.00409221
0.00358863
0.00329243
0.0030434
0.00276645
0.00258215
0.00242158
0.00231191
0.00226434
0.0022332
0.00220899
0.00219868
0.00218859
0.00218132
0.00217804
0.00217546
0.00217648
0.00218224
0.00218743
0.00219127
0.00219279
0.00219495
0.00220038
0.00220739
0.00221384
0.00221785
0.00222082
0.00222615
0.00223149
0.00223285
0.00223153
0.00223202
0.00223343
0.00223239
0.00222937
0.00222649
0.00222276
0.00221684
0.00220944
0.00220257
0.00219694
0.00218932
0.00217809
0.00216566
0.00215374
0.00214275
0.00213106
0.00211668
0.00210076
0.0020848
0.00206848
0.00205163
0.00203421
0.00201651
0.00199796
0.00197916
0.00196084
0.0019427
0.00192522
0.00190763
0.00188878
0.00186921
0.00185051
0.00183327
0.00181649
0.00179949
0.00178203
0.0017646
0.00174845
0.00173341
0.00171798
0.00170096
0.00168336
0.00166713
0.00165268
0.00163929
0.00162522
0.00160928
0.00159297
0.00157846
0.00156565
0.00155306
0.00153978
0.00152557
0.00151101
0.00149771
0.00148642
0.0014762
0.00146529
0.00145312
0.00144039
0.00142886
0.0014192
0.00141064
0.00140277
0.00139487
0.0013863
0.00137711
0.00136821
0.00136124
0.0013555
0.00134955
0.00134313
0.00133722
0.00133188
0.00132646
0.00132192
0.00131821
0.00131459
0.00131071
0.0013066
0.00130242
0.00129863
0.00129583
0.00129408
0.00129249
0.00129032
0.00128745
0.00128488
0.00128294
0.00128088
0.00127883
0.00127715
0.00127565
0.0012738
0.00127203
0.00127127
0.00127001
0.00126814
0.00126638
0.0012642
0.0012624
0.00126161
0.00126117
0.00126025
0.00125852
0.00125667
0.00125512
0.00125403
0.00125346
0.00125253
0.00125124
0.00125051
0.00125016
0.0012495
0.00124833
0.00124719
0.00124695
0.00124719
0.00124712
0.00124643
0.00124549
0.00124509
0.00124552
0.00124588
0.00124554
0.00124507
0.00124483
0.0012449
0.00124517
0.0012452
0.00124492
0.00124456
0.00124401
0.0012438
0.00124386
0.00124332
0.00124228
0.00124123
0.0012403
0.00123964
0.00123845
0.00123677
0.00123497
0.00123305
0.00123105
0.00122876
0.00122633
0.0012235
0.00122063
0.00121778
0.00121435
0.00121047
0.00120658
0.00120288
0.00119922
0.00119498
0.00119031
0.00118556
0.00118094
0.00117654
0.00117211
0.00116722
0.00116204
0.00115718
0.00115259
0.00114803
0.00114338
0.00113873
0.00113433
0.00113008
0.0011259
0.00112175
0.00111781
0.0011141
0.0011105
0.0011071
0.00110402
0.00110103
0.0010981
0.00109548
0.00109305
0.00109075
0.00108866
0.00108677
0.00108502
0.00108337
0.00108187
0.0010806
0.00107949
0.00107855
0.00107773
0.00107696
0.00107628
0.00107572
0.00107519
0.00107479
0.00107449
0.00107418
0.0010739
0.0010737
0.00107358
0.00107345
0.00107329
0.00107313
0.00107301
0.00107291
0.00107282
0.00107265
0.00107248
0.0010723
0.00107216
0.00107197
0.00107174
0.00107145
0.00107119
0.00107088
0.00107057
0.00107014
0.00106977
0.00106934
0.00106892
0.00106842
0.00106793
0.00106745
0.0010669
0.00106633
0.00106574
0.00106518
0.00106464
0.00106404
0.00106345
0.00106281
0.00106227
0.00106163
0.00106114
0.00106048
0.00105978
0.00105894
0.00105856
0.0010579
0.00105816
0.00105771
0.00105597
0.00105441
0.00105759
0.0010588
0.00105776
0.00106177
0.00106751
0.00107281
0.0010789
0.00109135
0.00109735
0.00117108
0.00120628
0.00114994
0.00111537
0.00109749
0.00109531
0.00107813
0.00107469
0.00105731
0.00105127
0.00104797
0.00105873
0.00106596
0.00107858
0.00108432
0.00109626
0.00110006
0.00115229
0.00117107
0.00114473
0.00111412
0.00109385
0.00108803
0.00108455
0.0010673
0.00106492
0.00105841
0.00105453
0.00105807
0.00105479
0.0010442
0.00104542
0.00110475
0.00111917
0.00118502
0.00122264
0.00136329
0.00152701
0.00174624
0.00215918
0.00233027
0.00203887
0.00178466
0.00161097
0.00150124
0.00137971
0.00128844
0.00120462
0.00113518
0.00111235
0.00111677
0.0011233
0.0011253
0.00112366
0.00111838
0.00111066
0.00110206
0.00109338
0.00108511
0.00107749
0.00107057
0.00106467
0.00105973
0.00105532
0.00105155
0.00104849
0.00104604
0.0010441
0.00104254
0.0010413
0.00104033
0.00103965
0.00103936
0.0010392
0.00103901
0.00103892
0.00103894
0.00103903
0.00103915
0.00103939
0.00103967
0.00103993
0.00104023
0.00104057
0.00104096
0.00104134
0.00104166
0.00104193
0.00104217
0.00104238
0.00104258
0.0010428
0.00104303
0.00104325
0.00104343
0.0010436
0.00104373
0.00104381
0.00104392
0.00104405
0.00104419
0.00104429
0.00104434
0.00104434
0.00104437
0.00104446
0.00104459
0.00104472
0.00104479
0.00104483
0.00104486
0.00104486
0.00104483
0.00104483
0.00104492
0.00104502
0.00104496
0.00104473
0.00104468
0.00104497
0.00104523
0.00104505
0.00104483
0.00104514
0.00104547
0.0010454
0.00104395
0.00105137
0.0010534
0.00110284
0.00115419
0.00125872
0.00118886
0.0297861
0.0342366
0.0400563
0.0451265
0.0486075
0.0492172
0.0470863
0.0443847
0.0431685
0.044111
0.0470072
0.0504402
0.0532396
0.0547715
0.0552914
0.0555215
0.0556668
0.0557276
0.0556904
0.0555991
0.0551306
0.0539958
0.0520749
0.0498081
0.0475224
0.0456076
0.0441123
0.0427845
0.0413365
0.0395928
0.037585
0.0355975
0.0340296
0.033162
0.0329594
0.0330496
0.0329845
0.032365
0.0310382
0.0292068
0.0272366
0.0256125
0.0248148
0.0248426
0.0251417
0.0249645
0.023901
0.0222171
0.0205264
0.0194865
0.0194489
0.0201024
0.0208605
0.0211613
0.0205526
0.0190777
0.0174197
0.0162807
0.0157743
0.0157554
0.0162035
0.0168773
0.0173678
0.0175114
0.0176092
0.0183065
0.0197838
0.0215618
0.0229855
0.0235085
0.0231253
0.0225828
0.0225572
0.0235215
0.0259507
0.0301494
0.0358961
0.0412707
0.0452593
0.048371
0.052204
0.0576299
0.0659949
0.0788834
0.0975216
0.122099
0.154622
0.197525
0.242937
0.281322
0.311715
0.328274
0.336595
0.329097
0.312226
0.286922
0.25603
0.223681
0.193198
0.164507
0.138099
0.11649
0.0971143
0.0814279
0.0694423
0.0604795
0.0535787
0.0480454
0.044008
0.0456318
0.0506664
0.0579066
0.0660998
0.0730791
0.0788713
0.0843052
0.0844936
0.0777032
0.0648019
0.0511602
0.0389327
0.027878
0.0156264
0.0098156
0.00663195
0.00462318
0.00410541
0.0038475
0.00367907
0.00380996
0.00422797
0.00531722
0.00620599
0.00592109
0.00529618
0.00480383
0.00437297
0.00396884
0.00361784
0.0032569
0.00285548
0.00258298
0.00236886
0.00222813
0.00216782
0.00213041
0.00209909
0.00207656
0.00205478
0.00204481
0.00204607
0.00204691
0.00204425
0.00204027
0.00203813
0.00204151
0.00204551
0.00204941
0.00204957
0.0020469
0.00204621
0.00204725
0.00204753
0.00204564
0.0020441
0.0020414
0.00203623
0.00203075
0.00202633