/*--------------------------------*- C++ -*----------------------------------*\
| =========                 |                                                 |
| \\      /  F ield         | OpenFOAM: The Open Source CFD Toolbox           |
|  \\    /   O peration     | Version:  v2006                                 |
|   \\  /    A nd           | Website:  www.openfoam.com                      |
|    \\/     M anipulation  |                                                 |
\*---------------------------------------------------------------------------*/
FoamFile
{
    version     2.0;
    format      ascii;
    class       volScalarField;
    location    "5.7";
    object      p;
}
// * * * * * * * * * * * * * * * * * * * * * * * * * * * * * * * * * * * * * //

dimensions      [1 -1 -2 0 0 0 0];


internalField   nonuniform List<scalar> 
33000
(
7283.62
7277.7
7273.18
7268.73
7264.56
7260.69
7257.14
7253.76
7250.44
7247.1
7243.77
7240.47
7237.22
7234.01
7230.82
7227.75
7225.09
7222.82
7221.05
7220.37
7220.26
7220.46
7220.67
7220.32
7219.72
7219.76
7219.83
7220.12
7220.66
7221.37
7222.28
7223.38
7224.65
7226.08
7227.7
7229.52
7231.53
7233.71
7236.04
7238.56
7241.28
7244.13
7247.09
7250.2
7253.44
7256.78
7260.28
7263.99
7267.82
7271.75
7275.77
7279.88
7284.1
7288.46
7292.95
7297.54
7302.22
7306.99
7311.83
7316.75
7321.72
7326.72
7331.78
7336.89
7342.08
7347.32
7352.58
7357.85
7363.15
7368.49
7373.84
7379.2
7384.51
7389.75
7394.86
7399.8
7404.44
7408.21
7411.15
7419.27
7425.77
7432.02
7437.94
7444.51
7450.83
7457.75
7464.49
7471.5
7478.05
7484.94
7491.62
7498.56
7505.29
7512.08
7518.56
7525.11
7530.89
7537.1
7540.7
7547.15
7557.24
7565.21
7574.51
7583.59
7592.32
7601.68
7611.44
7621.12
7631.05
7641.09
7651
7660.87
7670.55
7680.31
7689.4
7699.1
7706.36
7716.38
7729.91
7740.65
7752.3
7764.22
7775.77
7787.91
7800.44
7812.78
7825.31
7837.89
7850.48
7863.14
7875.82
7888.48
7901.13
7913.75
7926.29
7938.77
7951.16
7963.47
7975.65
7987.73
7999.67
8011.48
8023.14
8034.65
8045.99
8057.16
8068.17
8079.01
8089.67
8100.14
8110.39
8120.44
8130.3
8139.97
8149.42
8158.66
8167.68
8176.48
8185.06
8193.44
8201.6
8209.55
8217.29
8224.83
8232.15
8239.28
8246.21
8252.96
8259.52
8265.9
8272.11
8278.17
8284.07
8289.82
8295.42
8300.89
8306.25
8311.48
8316.57
8321.51
8326.28
8330.89
8335.3
8339.52
8343.54
8347.34
8350.91
8354.23
8357.3
8360.12
8362.67
8364.95
8366.95
8368.66
8370.08
8371.19
8372.01
8372.52
8372.72
8372.61
8372.17
8371.41
8370.33
8368.94
8367.23
8365.2
8362.85
8360.18
8357.19
8353.91
8350.31
8346.41
8342.21
8337.73
8332.97
8327.94
8322.63
8317.05
8311.23
8305.17
8298.89
8292.38
8285.66
8278.73
8271.61
8264.31
8256.86
8249.25
8241.5
8233.61
8225.6
8217.49
8209.29
8201.01
8192.66
8184.25
8175.79
8167.29
8158.78
8150.25
8141.72
8133.2
8124.7
8116.22
8107.78
8099.39
8091.04
8082.76
8074.56
8066.42
8058.37
8050.4
8042.52
8034.74
8027.06
8019.49
8012.03
8004.68
7997.44
7990.32
7983.32
7976.44
7969.68
7963.05
7956.54
7950.16
7943.91
7937.79
7931.79
7925.92
7920.17
7914.55
7909.05
7903.68
7898.44
7893.31
7888.31
7883.43
7878.67
7874.03
7869.51
7865.1
7860.82
7856.65
7852.6
7848.66
7844.83
7841.11
7837.5
7834
7830.61
7827.32
7824.13
7821.05
7818.07
7815.18
7812.4
7809.71
7807.12
7804.63
7802.23
7799.92
7797.7
7795.58
7793.54
7791.58
7789.71
7787.93
7786.22
7784.6
7783.05
7781.59
7780.2
7778.88
7777.64
7776.48
7775.38
7774.36
7773.4
7772.51
7771.69
7770.93
7770.24
7769.61
7769.05
7768.54
7768.09
7767.71
7767.37
7767.1
7766.88
7766.71
7766.6
7766.54
7766.53
7766.57
7766.65
7766.79
7766.98
7767.21
7767.48
7767.8
7768.16
7768.57
7769.01
7769.49
7770.01
7770.57
7771.16
7771.78
7772.43
7773.12
7773.83
7774.57
7775.33
7776.12
7776.93
7777.76
7778.61
7779.48
7780.36
7781.26
7782.17
7783.09
7784.02
7784.95
7785.9
7786.85
7787.8
7788.76
7789.71
7790.67
7791.63
7792.58
7793.53
7794.48
7795.42
7796.36
7797.29
7798.21
7799.12
7800.02
7800.9
7801.78
7802.64
7803.49
7804.33
7805.15
7805.95
7806.74
7807.51
7808.26
7808.99
7809.71
7810.4
7811.08
7811.74
7812.38
7813
7813.6
7814.18
7814.74
7815.28
7815.8
7816.31
7816.79
7817.25
7817.7
7818.12
7818.53
7818.92
7819.28
7819.63
7819.97
7820.28
7820.58
7820.86
7821.13
7821.38
7821.61
7821.83
7822.04
7822.23
7822.4
7822.57
7822.74
7822.88
7823.01
7823.15
7823.2
7823.33
7823.51
7823.6
7823.72
7823.79
7823.87
7823.91
7823.96
7823.99
7824
7824.02
7824.01
7824.01
7824.01
7824
7823.97
7823.98
7823.86
7823.87
7823.95
7823.94
7823.95
7823.92
7823.89
7823.83
7823.78
7823.7
7823.64
7823.55
7823.46
7823.37
7823.25
7823.14
7823.06
7822.94
7822.82
7822.76
7822.53
7822.39
7822.41
7822.33
7822.21
7822.08
7821.94
7821.8
7821.66
7821.51
7821.36
7821.2
7821.04
7820.88
7820.71
7820.54
7820.37
7820.19
7820.01
7819.83
7819.64
7819.45
7819.25
7819.06
7818.86
7818.65
7818.45
7818.24
7818.03
7817.81
7817.59
7817.37
7817.15
7816.92
7816.69
7816.46
7816.22
7815.98
7815.74
7815.5
7815.25
7815
7814.75
7814.5
7814.24
7813.98
7813.71
7813.45
7813.18
7812.91
7812.63
7812.36
7812.08
7811.8
7811.51
7811.23
7810.94
7810.64
7810.35
7810.05
7809.75
7809.45
7809.14
7808.84
7808.53
7808.21
7807.9
7807.58
7807.26
7806.93
7806.61
7806.28
7805.95
7805.62
7805.28
7804.94
7804.6
7804.26
7803.91
7803.56
7803.19
7802.91
7802.33
7086.45
7081.02
7076.45
7071.96
7067.69
7063.72
7060.01
7056.38
7052.92
7049.5
7046.14
7042.87
7039.67
7036.54
7033.46
7030.48
7027.74
7025.47
7023.93
7022.73
7022.14
7022.43
7023.01
7023.1
7022.99
7022.92
7023.09
7023.45
7023.99
7024.71
7025.65
7026.75
7028.02
7029.49
7031.14
7032.95
7034.96
7037.16
7039.52
7042.05
7044.73
7047.57
7050.55
7053.66
7056.93
7060.31
7063.81
7067.49
7071.31
7075.23
7079.27
7083.41
7087.65
7092.01
7096.49
7101.08
7105.77
7110.55
7115.4
7120.33
7125.31
7130.34
7135.44
7140.61
7145.83
7151.07
7156.34
7161.62
7166.94
7172.28
7177.64
7183.01
7188.37
7193.66
7198.87
7203.96
7208.91
7213.67
7218.74
7223.91
7227.71
7231.41
7240.91
7248.52
7255.84
7261.83
7268.53
7274.93
7281.45
7288.71
7295.3
7302.59
7309.21
7316.38
7323.09
7330.01
7336.55
7343.15
7349.62
7355.43
7363.14
7367.15
7374.49
7386.16
7395.72
7406.33
7415.86
7425.6
7434.77
7444.44
7454.41
7464.37
7474.47
7484.53
7494.25
7504.14
7513.74
7523.31
7534.1
7541.82
7553.21
7567.86
7579.76
7592.09
7604.23
7616.21
7628.64
7641.49
7654.1
7666.83
7679.5
7692.16
7704.8
7717.47
7730.03
7742.56
7754.95
7767.27
7779.45
7791.53
7803.48
7815.3
7826.97
7838.5
7849.86
7861.05
7872.07
7882.92
7893.57
7904.04
7914.3
7924.38
7934.25
7943.92
7953.37
7962.61
7971.63
7980.44
7989.04
7997.43
8005.59
8013.54
8021.29
8028.83
8036.16
8043.29
8050.23
8056.99
8063.56
8069.94
8076.17
8082.22
8088.13
8093.89
8099.5
8104.99
8110.35
8115.58
8120.68
8125.64
8130.43
8135.05
8139.48
8143.71
8147.74
8151.54
8155.13
8158.46
8161.55
8164.37
8166.93
8169.22
8171.23
8172.95
8174.38
8175.51
8176.33
8176.84
8177.04
8176.93
8176.5
8175.75
8174.68
8173.29
8171.57
8169.54
8167.18
8164.51
8161.53
8158.24
8154.64
8150.73
8146.53
8142.05
8137.28
8132.23
8126.91
8121.33
8115.5
8109.43
8103.13
8096.61
8089.87
8082.93
8075.8
8068.49
8061.02
8053.39
8045.62
8037.72
8029.7
8021.57
8013.35
8005.05
7996.68
7988.26
7979.78
7971.27
7962.73
7954.19
7945.64
7937.11
7928.59
7920.1
7911.64
7903.23
7894.88
7886.59
7878.36
7870.21
7862.14
7854.16
7846.27
7838.49
7830.8
7823.21
7815.74
7808.38
7801.13
7794.01
7787
7780.12
7773.35
7766.72
7760.2
7753.82
7747.56
7741.43
7735.43
7729.55
7723.8
7718.17
7712.68
7707.3
7702.05
7696.93
7691.92
7687.04
7682.28
7677.64
7673.11
7668.71
7664.42
7660.25
7656.2
7652.25
7648.43
7644.71
7641.1
7637.6
7634.2
7630.91
7627.73
7624.64
7621.66
7618.78
7615.99
7613.31
7610.72
7608.23
7605.83
7603.52
7601.3
7599.18
7597.14
7595.19
7593.32
7591.54
7589.83
7588.21
7586.67
7585.21
7583.82
7582.51
7581.27
7580.1
7579.01
7577.99
7577.04
7576.15
7575.33
7574.58
7573.89
7573.26
7572.7
7572.2
7571.75
7571.37
7571.04
7570.76
7570.55
7570.38
7570.27
7570.21
7570.2
7570.25
7570.34
7570.48
7570.66
7570.9
7571.18
7571.5
7571.86
7572.27
7572.72
7573.2
7573.72
7574.28
7574.88
7575.5
7576.16
7576.85
7577.56
7578.31
7579.08
7579.87
7580.68
7581.52
7582.37
7583.24
7584.13
7585.03
7585.94
7586.86
7587.8
7588.74
7589.68
7590.64
7591.59
7592.55
7593.51
7594.47
7595.43
7596.39
7597.34
7598.29
7599.24
7600.18
7601.11
7602.03
7602.94
7603.84
7604.73
7605.61
7606.48
7607.33
7608.16
7608.98
7609.79
7610.57
7611.35
7612.1
7612.83
7613.55
7614.25
7614.92
7615.58
7616.22
7616.84
7617.44
7618.02
7618.58
7619.13
7619.65
7620.15
7620.63
7621.09
7621.54
7621.96
7622.37
7622.75
7623.13
7623.47
7623.81
7624.12
7624.42
7624.7
7624.97
7625.21
7625.45
7625.66
7625.86
7626.07
7626.25
7626.41
7626.57
7626.64
7626.78
7626.99
7627.1
7627.23
7627.36
7627.45
7627.56
7627.62
7627.7
7627.74
7627.78
7627.8
7627.82
7627.84
7627.85
7627.84
7627.83
7627.71
7627.69
7627.81
7627.78
7627.82
7627.82
7627.81
7627.79
7627.75
7627.72
7627.66
7627.61
7627.53
7627.46
7627.35
7627.26
7627.19
7627.09
7626.98
7626.91
7626.64
7626.49
7626.53
7626.47
7626.34
7626.23
7626.13
7626.01
7625.89
7625.75
7625.61
7625.47
7625.32
7625.17
7625.01
7624.85
7624.69
7624.52
7624.35
7624.18
7624
7623.82
7623.63
7623.45
7623.26
7623.06
7622.86
7622.66
7622.46
7622.25
7622.04
7621.83
7621.62
7621.4
7621.18
7620.95
7620.73
7620.5
7620.26
7620.03
7619.79
7619.55
7619.31
7619.06
7618.81
7618.56
7618.3
7618.04
7617.78
7617.52
7617.25
7616.99
7616.72
7616.44
7616.17
7615.89
7615.6
7615.32
7615.03
7614.74
7614.45
7614.16
7613.86
7613.56
7613.26
7612.95
7612.64
7612.33
7612.02
7611.71
7611.39
7611.07
7610.74
7610.42
7610.09
7609.76
7609.43
7609.09
7608.75
7608.41
7608.07
7607.72
7607.37
7607
7606.72
7606.14
6888.79
6883.9
6879.34
6874.93
6870.58
6866.47
6862.62
6858.8
6855.13
6851.65
6848.33
6845.13
6842.03
6839.09
6836.33
6833.77
6831.43
6829.47
6827.96
6827.03
6826.47
6826.13
6825.95
6825.78
6825.69
6825.66
6825.86
6826.26
6826.82
6827.58
6828.53
6829.64
6830.95
6832.48
6834.16
6835.96
6837.99
6840.22
6842.61
6845.13
6847.8
6850.64
6853.63
6856.78
6860.08
6863.49
6867.02
6870.69
6874.49
6878.41
6882.47
6886.65
6890.93
6895.3
6899.79
6904.38
6909.07
6913.86
6918.74
6923.68
6928.7
6933.79
6938.94
6944.16
6949.42
6954.7
6959.99
6965.32
6970.67
6976.04
6981.42
6986.81
6992.22
6997.58
7002.91
7008.2
7013.41
7018.62
7023.98
7029.43
7034.74
7040.39
7045.98
7050.07
7054.11
7063.82
7071.76
7079.24
7085.83
7092.57
7099.44
7106.23
7113.64
7120.52
7127.79
7134.57
7141.56
7148.56
7155.41
7162.65
7170.3
7177.6
7184.84
7193.03
7197.66
7205.64
7217.8
7227.6
7238.34
7248.86
7258.98
7268.75
7278.37
7288.34
7298.21
7308.49
7318.63
7329.05
7340.01
7350.69
7361.09
7372.23
7380.62
7392.46
7407.71
7420.05
7432.77
7445.22
7457.48
7470.11
7483.12
7495.82
7508.58
7521.21
7533.8
7546.28
7558.68
7571.03
7583.23
7595.32
7607.29
7619.13
7630.83
7642.38
7653.77
7664.99
7676.03
7686.89
7697.56
7708.04
7718.32
7728.42
7738.31
7747.99
7757.45
7766.7
7775.74
7784.57
7793.19
7801.59
7809.77
7817.74
7825.49
7833.04
7840.39
7847.54
7854.5
7861.26
7867.85
7874.25
7880.49
7886.56
7892.49
7898.27
7903.9
7909.41
7914.78
7920.03
7925.15
7930.12
7934.94
7939.57
7944.02
7948.28
7952.33
7956.16
7959.76
7963.12
7966.23
7969.07
7971.65
7973.96
7975.98
7977.73
7979.17
7980.32
7981.15
7981.67
7981.88
7981.78
7981.36
7980.61
7979.55
7978.16
7976.45
7974.41
7972.06
7969.38
7966.4
7963.1
7959.48
7955.57
7951.36
7946.87
7942.08
7937.02
7931.68
7926.08
7920.23
7914.14
7907.81
7901.26
7894.5
7887.53
7880.38
7873.04
7865.53
7857.87
7850.06
7842.13
7834.08
7825.92
7817.67
7809.33
7800.93
7792.46
7783.95
7775.41
7766.84
7758.27
7749.69
7741.12
7732.57
7724.04
7715.56
7707.12
7698.74
7690.42
7682.16
7673.99
7665.89
7657.88
7649.98
7642.17
7634.46
7626.85
7619.36
7611.98
7604.72
7597.58
7590.56
7583.66
7576.89
7570.24
7563.72
7557.32
7551.05
7544.91
7538.9
7533.01
7527.25
7521.62
7516.12
7510.74
7505.48
7500.35
7495.34
7490.46
7485.7
7481.05
7476.53
7472.12
7467.83
7463.65
7459.59
7455.65
7451.81
7448.09
7444.48
7440.98
7437.58
7434.29
7431.11
7428.02
7425.05
7422.17
7419.39
7416.7
7414.11
7411.62
7409.22
7406.92
7404.7
7402.58
7400.54
7398.59
7396.73
7394.95
7393.25
7391.64
7390.1
7388.64
7387.26
7385.95
7384.72
7383.56
7382.47
7381.45
7380.51
7379.63
7378.81
7378.06
7377.38
7376.76
7376.2
7375.7
7375.26
7374.88
7374.56
7374.29
7374.08
7373.92
7373.81
7373.76
7373.76
7373.81
7373.9
7374.05
7374.24
7374.48
7374.76
7375.09
7375.46
7375.88
7376.33
7376.82
7377.35
7377.92
7378.52
7379.15
7379.81
7380.51
7381.23
7381.98
7382.76
7383.56
7384.38
7385.22
7386.08
7386.96
7387.85
7388.76
7389.68
7390.61
7391.55
7392.5
7393.45
7394.41
7395.38
7396.34
7397.31
7398.27
7399.24
7400.2
7401.16
7402.12
7403.07
7404.01
7404.95
7405.87
7406.79
7407.7
7408.59
7409.47
7410.34
7411.19
7412.03
7412.85
7413.66
7414.45
7415.22
7415.98
7416.71
7417.43
7418.13
7418.81
7419.47
7420.11
7420.73
7421.33
7421.91
7422.47
7423.01
7423.53
7424.04
7424.52
7424.98
7425.42
7425.85
7426.25
7426.64
7427
7427.35
7427.68
7428
7428.29
7428.57
7428.82
7429.07
7429.32
7429.54
7429.74
7429.93
7430.04
7430.2
7430.44
7430.58
7430.74
7430.87
7430.99
7431.1
7431.22
7431.31
7431.4
7431.45
7431.52
7431.6
7431.63
7431.69
7431.68
7431.71
7431.57
7431.59
7431.71
7431.71
7431.74
7431.74
7431.72
7431.71
7431.7
7431.69
7431.66
7431.63
7431.58
7431.51
7431.43
7431.35
7431.29
7431.22
7431.12
7431.07
7430.79
7430.65
7430.7
7430.65
7430.52
7430.41
7430.29
7430.17
7430.06
7429.95
7429.83
7429.7
7429.57
7429.43
7429.28
7429.14
7428.98
7428.83
7428.67
7428.5
7428.34
7428.17
7427.99
7427.81
7427.63
7427.45
7427.26
7427.07
7426.88
7426.68
7426.48
7426.28
7426.07
7425.86
7425.65
7425.43
7425.21
7424.99
7424.77
7424.54
7424.31
7424.08
7423.84
7423.6
7423.36
7423.12
7422.87
7422.62
7422.37
7422.11
7421.86
7421.6
7421.33
7421.07
7420.8
7420.53
7420.25
7419.98
7419.7
7419.42
7419.13
7418.84
7418.56
7418.26
7417.97
7417.67
7417.37
7417.07
7416.76
7416.45
7416.14
7415.83
7415.52
7415.2
7414.88
7414.55
7414.23
7413.9
7413.57
7413.24
7412.9
7412.56
7412.22
7411.88
7411.53
7411.18
7410.81
7410.53
7409.95
6690.9
6686.33
6681.78
6677.33
6672.93
6668.77
6664.64
6660.85
6657.12
6653.58
6650.26
6647.06
6644.03
6641.26
6638.66
6636.27
6634.12
6632.25
6630.8
6629.68
6628.94
6628.54
6628.26
6628.01
6627.87
6627.9
6628.14
6628.6
6629.18
6629.96
6630.94
6632.09
6633.41
6634.95
6636.67
6638.55
6640.6
6642.84
6645.23
6647.75
6650.44
6653.28
6656.29
6659.47
6662.8
6666.26
6669.82
6673.49
6677.3
6681.24
6685.33
6689.55
6693.88
6698.3
6702.8
6707.4
6712.11
6716.93
6721.84
6726.82
6731.88
6737.02
6742.25
6747.52
6752.81
6758.13
6763.5
6768.9
6774.31
6779.73
6785.18
6790.64
6796.12
6801.6
6807.08
6812.56
6818.01
6823.45
6828.96
6834.5
6840.18
6846.02
6851.99
6857.87
6864.05
6870.22
6875.85
6880.6
6885.34
6896.29
6903.66
6911.01
6917.86
6925.23
6932
6939.98
6946.82
6954.48
6961.61
6969.06
6976.53
6984.08
6991.95
7000.62
7008.7
7017.63
7025.78
7034.32
7039.89
7048.28
7060.74
7070.69
7082.37
7092.91
7103.17
7113.15
7123.41
7133.79
7144.71
7155.4
7166.63
7178.18
7189.53
7200.44
7212.02
7220.84
7233
7248.54
7261.16
7274
7286.65
7299.07
7311.76
7324.79
7337.45
7350.11
7362.45
7374.85
7387.02
7399.16
7411.15
7423.02
7434.73
7446.32
7457.74
7468.99
7480.05
7490.95
7501.64
7512.15
7522.46
7532.59
7542.5
7552.21
7561.69
7570.97
7580.04
7588.89
7597.52
7605.95
7614.16
7622.15
7629.93
7637.5
7644.87
7652.05
7659.03
7665.82
7672.44
7678.87
7685.13
7691.23
7697.19
7703
7708.67
7714.2
7719.6
7724.87
7730.01
7735
7739.83
7744.49
7748.97
7753.26
7757.34
7761.2
7764.83
7768.21
7771.35
7774.23
7776.84
7779.18
7781.23
7782.99
7784.46
7785.63
7786.48
7787.02
7787.25
7787.16
7786.75
7786.01
7784.95
7783.56
7781.85
7779.82
7777.47
7774.79
7771.8
7768.48
7764.86
7760.93
7756.71
7752.19
7747.39
7742.29
7736.93
7731.3
7725.43
7719.3
7712.94
7706.34
7699.54
7692.53
7685.34
7677.95
7670.4
7662.69
7654.83
7646.85
7638.75
7630.54
7622.23
7613.85
7605.39
7596.87
7588.31
7579.71
7571.1
7562.47
7553.85
7545.22
7536.62
7528.05
7519.52
7511.04
7502.62
7494.26
7485.96
7477.74
7469.61
7461.57
7453.63
7445.78
7438.04
7430.41
7422.89
7415.49
7408.2
7401.04
7394
7387.08
7380.29
7373.62
7367.09
7360.67
7354.39
7348.23
7342.21
7336.31
7330.53
7324.89
7319.38
7313.99
7308.73
7303.59
7298.57
7293.68
7288.92
7284.27
7279.74
7275.33
7271.03
7266.85
7262.78
7258.83
7254.99
7251.27
7247.65
7244.15
7240.75
7237.46
7234.28
7231.2
7228.22
7225.34
7222.57
7219.88
7217.3
7214.81
7212.41
7210.11
7207.9
7205.78
7203.75
7201.8
7199.95
7198.17
7196.48
7194.87
7193.34
7191.89
7190.51
7189.22
7187.99
7186.84
7185.76
7184.75
7183.81
7182.94
7182.13
7181.39
7180.72
7180.1
7179.55
7179.06
7178.63
7178.26
7177.94
7177.68
7177.48
7177.32
7177.23
7177.18
7177.19
7177.24
7177.35
7177.5
7177.7
7177.95
7178.24
7178.58
7178.96
7179.38
7179.85
7180.35
7180.89
7181.46
7182.07
7182.72
7183.39
7184.1
7184.83
7185.59
7186.38
7187.19
7188.02
7188.88
7189.75
7190.64
7191.54
7192.46
7193.39
7194.33
7195.29
7196.24
7197.21
7198.18
7199.15
7200.13
7201.1
7202.08
7203.05
7204.03
7204.99
7205.96
7206.91
7207.87
7208.81
7209.74
7210.66
7211.58
7212.48
7213.36
7214.24
7215.09
7215.94
7216.76
7217.57
7218.37
7219.14
7219.9
7220.64
7221.36
7222.06
7222.74
7223.4
7224.04
7224.66
7225.26
7225.84
7226.4
7226.94
7227.46
7227.96
7228.44
7228.9
7229.34
7229.76
7230.17
7230.55
7230.93
7231.27
7231.6
7231.9
7232.2
7232.48
7232.75
7233
7233.23
7233.37
7233.57
7233.85
7234.02
7234.21
7234.36
7234.5
7234.64
7234.78
7234.9
7235.02
7235.11
7235.19
7235.32
7235.37
7235.47
7235.47
7235.52
7235.42
7235.44
7235.59
7235.59
7235.65
7235.64
7235.64
7235.63
7235.64
7235.63
7235.63
7235.6
7235.59
7235.53
7235.47
7235.45
7235.39
7235.34
7235.24
7235.22
7234.92
7234.81
7234.88
7234.83
7234.7
7234.58
7234.47
7234.35
7234.25
7234.14
7234.03
7233.91
7233.79
7233.66
7233.53
7233.4
7233.26
7233.11
7232.97
7232.81
7232.66
7232.5
7232.33
7232.16
7231.99
7231.82
7231.64
7231.46
7231.27
7231.09
7230.89
7230.7
7230.5
7230.3
7230.1
7229.89
7229.68
7229.47
7229.25
7229.04
7228.81
7228.59
7228.36
7228.13
7227.9
7227.66
7227.42
7227.18
7226.94
7226.69
7226.44
7226.19
7225.93
7225.68
7225.42
7225.15
7224.89
7224.62
7224.35
7224.07
7223.8
7223.52
7223.24
7222.95
7222.66
7222.37
7222.08
7221.79
7221.49
7221.19
7220.89
7220.58
7220.27
7219.96
7219.65
7219.34
7219.02
7218.7
7218.37
7218.05
7217.72
7217.39
7217.06
7216.72
7216.38
7216.04
7215.7
7215.35
7215
7214.63
7214.35
7213.77
6492.75
6488.33
6483.82
6479.34
6474.87
6470.71
6466.43
6462.46
6458.61
6455.01
6451.69
6448.54
6445.57
6442.96
6440.53
6438.26
6436.26
6434.57
6433.15
6431.94
6431.04
6430.42
6429.98
6429.69
6429.56
6429.59
6429.85
6430.29
6430.96
6431.81
6432.83
6434.01
6435.37
6436.95
6438.71
6440.64
6442.74
6444.99
6447.39
6449.94
6452.65
6455.52
6458.56
6461.77
6465.13
6468.62
6472.21
6475.91
6479.75
6483.74
6487.87
6492.13
6496.51
6500.97
6505.51
6510.14
6514.87
6519.72
6524.67
6529.71
6534.83
6540.04
6545.32
6550.63
6555.98
6561.38
6566.83
6572.32
6577.81
6583.32
6588.85
6594.4
6599.97
6605.56
6611.18
6616.82
6622.48
6628.17
6633.91
6639.65
6645.46
6651.37
6657.32
6663.43
6669.73
6676.14
6682.49
6688.86
6695.23
6701.3
6706.13
6711.44
6722.71
6730.19
6737.74
6744.76
6752.3
6759.45
6767.72
6775.05
6783.14
6790.86
6798.97
6806.94
6815.11
6823.52
6832.59
6841.24
6850.41
6859.05
6868.6
6875.18
6883.59
6895.3
6905.42
6917.45
6928.48
6939.36
6949.9
6960.7
6971.64
6983.05
6994.25
7005.94
7017.96
7029.71
7041.04
7052.94
7062.15
7074.6
7090.38
7103.15
7116.13
7128.68
7141.27
7153.46
7165.85
7178.49
7190.76
7202.95
7215
7226.89
7238.65
7250.28
7261.76
7273.05
7284.16
7295.07
7305.82
7316.36
7326.73
7336.88
7346.83
7356.57
7366.1
7375.42
7384.52
7393.41
7402.08
7410.53
7418.78
7426.81
7434.63
7442.23
7449.64
7456.86
7463.87
7470.7
7477.35
7483.83
7490.13
7496.28
7502.27
7508.12
7513.83
7519.39
7524.83
7530.13
7535.29
7540.3
7545.16
7549.85
7554.37
7558.69
7562.8
7566.7
7570.36
7573.78
7576.95
7579.87
7582.52
7584.89
7586.98
7588.77
7590.26
7591.45
7592.34
7592.9
7593.15
7593.07
7592.68
7591.96
7590.9
7589.52
7587.81
7585.78
7583.43
7580.74
7577.74
7574.41
7570.77
7566.83
7562.59
7558.04
7553.2
7548.07
7542.67
7537.01
7531.09
7524.92
7518.51
7511.86
7505
7497.94
7490.68
7483.24
7475.63
7467.85
7459.93
7451.87
7443.7
7435.43
7427.05
7418.6
7410.07
7401.48
7392.85
7384.18
7375.5
7366.8
7358.11
7349.42
7340.75
7332.12
7323.53
7315
7306.52
7298.1
7289.75
7281.48
7273.3
7265.22
7257.23
7249.34
7241.56
7233.89
7226.33
7218.9
7211.58
7204.38
7197.31
7190.37
7183.55
7176.86
7170.3
7163.87
7157.56
7151.39
7145.34
7139.43
7133.64
7127.98
7122.46
7117.05
7111.78
7106.63
7101.61
7096.7
7091.93
7087.27
7082.74
7078.32
7074.02
7069.83
7065.76
7061.8
7057.96
7054.24
7050.62
7047.11
7043.71
7040.42
7037.24
7034.16
7031.18
7028.31
7025.53
7022.86
7020.27
7017.79
7015.4
7013.1
7010.89
7008.78
7006.75
7004.82
7002.96
7001.2
6999.52
6997.92
6996.4
6994.95
6993.59
6992.3
6991.09
6989.95
6988.88
6987.88
6986.95
6986.09
6985.3
6984.57
6983.9
6983.3
6982.76
6982.28
6981.85
6981.49
6981.18
6980.93
6980.74
6980.6
6980.51
6980.48
6980.49
6980.56
6980.68
6980.84
6981.05
6981.31
6981.62
6981.97
6982.36
6982.79
6983.27
6983.78
6984.34
6984.93
6985.55
6986.21
6986.9
6987.62
6988.37
6989.14
6989.94
6990.77
6991.62
6992.49
6993.37
6994.28
6995.2
6996.13
6997.08
6998.03
6999
6999.97
7000.95
7001.93
7002.92
7003.91
7004.9
7005.89
7006.87
7007.86
7008.84
7009.81
7010.78
7011.74
7012.69
7013.63
7014.56
7015.48
7016.39
7017.29
7018.17
7019.03
7019.88
7020.71
7021.53
7022.33
7023.1
7023.86
7024.6
7025.33
7026.03
7026.71
7027.37
7028.02
7028.64
7029.24
7029.82
7030.38
7030.92
7031.44
7031.94
7032.42
7032.88
7033.32
7033.75
7034.14
7034.52
7034.87
7035.22
7035.56
7035.87
7036.16
7036.43
7036.62
7036.86
7037.18
7037.39
7037.61
7037.79
7037.97
7038.13
7038.31
7038.45
7038.6
7038.7
7038.82
7038.94
7039.05
7039.13
7039.21
7039.16
7039.22
7039.39
7039.44
7039.53
7039.53
7039.58
7039.56
7039.59
7039.6
7039.61
7039.62
7039.6
7039.6
7039.55
7039.52
7039.52
7039.48
7039.47
7039.41
7039.32
7039.04
7038.94
7039.04
7039
7038.88
7038.76
7038.65
7038.54
7038.44
7038.33
7038.23
7038.11
7038
7037.88
7037.76
7037.64
7037.51
7037.38
7037.24
7037.1
7036.95
7036.8
7036.65
7036.49
7036.33
7036.17
7036
7035.83
7035.65
7035.47
7035.29
7035.11
7034.92
7034.73
7034.53
7034.33
7034.13
7033.93
7033.72
7033.51
7033.3
7033.08
7032.86
7032.64
7032.42
7032.19
7031.96
7031.73
7031.49
7031.25
7031.01
7030.77
7030.52
7030.27
7030.02
7029.76
7029.5
7029.24
7028.98
7028.71
7028.44
7028.17
7027.9
7027.62
7027.34
7027.06
7026.78
7026.49
7026.2
7025.91
7025.61
7025.32
7025.02
7024.71
7024.41
7024.1
7023.79
7023.48
7023.16
7022.84
7022.52
7022.2
7021.87
7021.54
7021.21
7020.88
7020.54
7020.21
7019.87
7019.52
7019.17
7018.83
7018.46
7018.18
7017.59
6294.12
6289.85
6285.29
6280.78
6276.26
6271.96
6267.71
6263.66
6259.75
6256.1
6252.71
6249.57
6246.67
6243.99
6241.62
6239.44
6237.46
6235.74
6234.27
6233.2
6232.35
6231.7
6231.22
6230.92
6230.81
6230.89
6231.16
6231.63
6232.32
6233.2
6234.23
6235.44
6236.85
6238.45
6240.23
6242.22
6244.38
6246.67
6249.1
6251.68
6254.43
6257.34
6260.43
6263.69
6267.1
6270.62
6274.24
6277.98
6281.88
6285.91
6290.07
6294.39
6298.81
6303.33
6307.94
6312.63
6317.4
6322.26
6327.27
6332.37
6337.56
6342.83
6348.16
6353.53
6358.95
6364.44
6369.97
6375.55
6381.15
6386.77
6392.4
6398.04
6403.72
6409.44
6415.2
6421
6426.84
6432.72
6438.64
6444.6
6450.61
6456.71
6462.88
6469.13
6475.45
6481.84
6488.27
6494.71
6501.31
6508.03
6514.66
6521.38
6527.71
6532.73
6538.4
6550.34
6557.91
6565.84
6573.26
6581.18
6588.77
6597.51
6605.39
6614.08
6622.4
6631.17
6639.62
6648.52
6656.98
6666.07
6675.39
6684.65
6693.72
6703.65
6710.86
6719.76
6731.36
6741.91
6754.45
6766.03
6777.58
6788.57
6799.81
6811.12
6822.91
6834.44
6846.46
6858.71
6870.65
6882.27
6894.32
6903.88
6916.53
6932.18
6945.13
6958.18
6970.04
6982.53
6994.41
7006.61
7018.9
7030.87
7042.67
7054.34
7065.83
7077.18
7088.35
7099.34
7110.12
7120.73
7131.13
7141.35
7151.34
7161.13
7170.71
7180.09
7189.24
7198.18
7206.89
7215.39
7223.68
7231.76
7239.63
7247.29
7254.75
7262.01
7269.07
7275.95
7282.65
7289.19
7295.54
7301.74
7307.78
7313.67
7319.42
7325.04
7330.51
7335.85
7341.04
7346.08
7350.97
7355.69
7360.24
7364.6
7368.75
7372.68
7376.38
7379.84
7383.05
7386.02
7388.71
7391.12
7393.25
7395.07
7396.6
7397.82
7398.73
7399.33
7399.6
7399.54
7399.16
7398.45
7397.41
7396.04
7394.34
7392.31
7389.94
7387.25
7384.23
7380.89
7377.23
7373.27
7369
7364.42
7359.54
7354.37
7348.92
7343.21
7337.24
7331.01
7324.53
7317.82
7310.89
7303.76
7296.43
7288.9
7281.21
7273.36
7265.35
7257.21
7248.95
7240.58
7232.12
7223.57
7214.95
7206.28
7197.56
7188.81
7180.04
7171.25
7162.47
7153.71
7144.96
7136.26
7127.59
7118.98
7110.43
7101.94
7093.53
7085.2
7076.96
7068.82
7060.77
7052.83
7045
7037.29
7029.68
7022.2
7014.84
7007.6
7000.49
6993.51
6986.66
6979.94
6973.35
6966.9
6960.57
6954.37
6948.3
6942.37
6936.56
6930.89
6925.34
6919.92
6914.63
6909.47
6904.43
6899.52
6894.73
6890.07
6885.52
6881.1
6876.79
6872.6
6868.53
6864.57
6860.72
6856.99
6853.37
6849.86
6846.46
6843.17
6839.98
6836.9
6833.93
6831.05
6828.28
6825.61
6823.03
6820.55
6818.17
6815.88
6813.68
6811.57
6809.55
6807.62
6805.78
6804.03
6802.36
6800.77
6799.26
6797.83
6796.48
6795.21
6794.01
6792.88
6791.82
6790.84
6789.93
6789.08
6788.3
6787.58
6786.93
6786.34
6785.81
6785.34
6784.93
6784.58
6784.29
6784.05
6783.87
6783.74
6783.66
6783.64
6783.67
6783.75
6783.88
6784.06
6784.29
6784.56
6784.88
6785.25
6785.65
6786.1
6786.59
6787.13
6787.69
6788.3
6788.94
6789.62
6790.33
6791.06
6791.83
6792.63
6793.45
6794.29
6795.16
6796.05
6796.95
6797.88
6798.82
6799.77
6800.73
6801.71
6802.69
6803.68
6804.68
6805.68
6806.69
6807.69
6808.7
6809.7
6810.7
6811.7
6812.7
6813.68
6814.66
6815.64
6816.6
6817.55
6818.5
6819.43
6820.34
6821.25
6822.13
6823.01
6823.86
6824.7
6825.52
6826.32
6827.11
6827.87
6828.62
6829.34
6830.04
6830.73
6831.39
6832.03
6832.65
6833.25
6833.84
6834.39
6834.93
6835.45
6835.95
6836.43
6836.88
6837.31
6837.73
6838.15
6838.52
6838.9
6839.23
6839.57
6839.79
6840.09
6840.44
6840.69
6840.95
6841.17
6841.38
6841.58
6841.79
6841.97
6842.14
6842.28
6842.43
6842.58
6842.71
6842.83
6842.93
6842.9
6842.98
6843.2
6843.24
6843.37
6843.39
6843.45
6843.46
6843.5
6843.53
6843.55
6843.58
6843.57
6843.59
6843.54
6843.54
6843.53
6843.53
6843.48
6843.52
6843.24
6843.17
6843.28
6843.25
6843.15
6843.04
6842.93
6842.83
6842.72
6842.62
6842.53
6842.43
6842.32
6842.21
6842.1
6841.98
6841.87
6841.75
6841.62
6841.5
6841.36
6841.23
6841.09
6840.95
6840.8
6840.65
6840.5
6840.34
6840.18
6840.01
6839.84
6839.67
6839.49
6839.31
6839.13
6838.95
6838.76
6838.57
6838.37
6838.17
6837.97
6837.77
6837.56
6837.35
6837.14
6836.92
6836.7
6836.48
6836.25
6836.03
6835.8
6835.56
6835.33
6835.09
6834.85
6834.6
6834.35
6834.1
6833.85
6833.59
6833.34
6833.08
6832.81
6832.55
6832.28
6832.01
6831.73
6831.46
6831.18
6830.89
6830.61
6830.32
6830.03
6829.74
6829.44
6829.15
6828.85
6828.54
6828.24
6827.93
6827.62
6827.31
6826.99
6826.67
6826.35
6826.03
6825.7
6825.38
6825.05
6824.71
6824.38
6824.04
6823.7
6823.35
6823.01
6822.66
6822.29
6822.01
6821.43
6095.11
6090.94
6086.35
6081.79
6077.21
6072.73
6068.47
6064.38
6060.47
6056.79
6053.38
6050.24
6047.37
6044.65
6042.24
6040.14
6038.24
6036.57
6035.15
6034
6033.09
6032.39
6031.89
6031.58
6031.49
6031.59
6031.9
6032.43
6033.17
6034.08
6035.15
6036.4
6037.84
6039.5
6041.3
6043.33
6045.55
6047.89
6050.37
6053.01
6055.81
6058.78
6061.93
6065.24
6068.7
6072.26
6075.92
6079.74
6083.73
6087.78
6091.94
6096.32
6100.82
6105.42
6110.11
6114.89
6119.73
6124.63
6129.66
6134.8
6140.06
6145.39
6150.79
6156.23
6161.74
6167.3
6172.92
6178.59
6184.3
6190.04
6195.79
6201.56
6207.35
6213.2
6219.1
6225.05
6231.06
6237.12
6243.21
6249.36
6255.57
6261.82
6268.15
6274.54
6281.05
6287.61
6294.23
6300.85
6307.49
6314.22
6320.95
6327.85
6334.84
6341.76
6348.81
6355.49
6360.8
6366.95
6379.63
6387.36
6395.58
6403.45
6411.78
6419.85
6429.19
6437.48
6446.72
6455.38
6464.53
6473.38
6482.61
6491.62
6500.94
6510.57
6520.12
6529.64
6540.08
6548.17
6557.64
6569.01
6579.96
6592.88
6605.01
6617.16
6628.61
6640.08
6651.72
6663.73
6675.64
6687.95
6700.8
6712.98
6725.43
6737.17
6749.19
6758.81
6771.14
6786.16
6798.55
6810.71
6822.88
6834.68
6846.53
6858.45
6870.02
6881.42
6892.67
6903.69
6914.56
6925.22
6935.7
6945.96
6956.03
6965.88
6975.53
6984.97
6994.19
7003.19
7011.97
7020.53
7028.89
7037.03
7044.97
7052.7
7060.22
7067.54
7074.66
7081.61
7088.37
7094.97
7101.39
7107.65
7113.75
7119.69
7125.5
7131.16
7136.68
7142.06
7147.29
7152.37
7157.29
7162.06
7166.64
7171.03
7175.22
7179.19
7182.93
7186.44
7189.7
7192.7
7195.44
7197.9
7200.06
7201.92
7203.49
7204.75
7205.7
7206.32
7206.62
7206.58
7206.22
7205.53
7204.5
7203.15
7201.45
7199.41
7197.04
7194.33
7191.3
7187.94
7184.26
7180.26
7175.95
7171.32
7166.4
7161.19
7155.69
7149.91
7143.86
7137.56
7131.01
7124.23
7117.22
7110
7102.57
7094.95
7087.16
7079.21
7071.11
7062.86
7054.49
7046.01
7037.44
7028.78
7020.06
7011.27
7002.45
6993.59
6984.71
6975.83
6966.95
6958.09
6949.25
6940.44
6931.68
6922.98
6914.34
6905.77
6897.28
6888.88
6880.57
6872.35
6864.24
6856.24
6848.35
6840.58
6832.92
6825.39
6817.97
6810.69
6803.54
6796.51
6789.62
6782.86
6776.24
6769.75
6763.39
6757.17
6751.08
6745.12
6739.29
6733.6
6728.03
6722.59
6717.28
6712.1
6707.05
6702.13
6697.32
6692.65
6688.09
6683.66
6679.35
6675.15
6671.07
6667.11
6663.26
6659.52
6655.9
6652.39
6648.98
6645.69
6642.5
6639.42
6636.45
6633.57
6630.81
6628.14
6625.57
6623.1
6620.72
6618.44
6616.25
6614.15
6612.15
6610.23
6608.4
6606.66
6605
6603.42
6601.93
6600.52
6599.19
6597.93
6596.74
6595.63
6594.6
6593.63
6592.73
6591.9
6591.13
6590.43
6589.8
6589.22
6588.71
6588.26
6587.86
6587.52
6587.25
6587.02
6586.85
6586.74
6586.68
6586.68
6586.72
6586.82
6586.97
6587.16
6587.41
6587.7
6588.03
6588.42
6588.84
6589.31
6589.82
6590.37
6590.96
6591.59
6592.25
6592.95
6593.68
6594.44
6595.23
6596.05
6596.89
6597.76
6598.65
6599.56
6600.49
6601.44
6602.4
6603.38
6604.36
6605.36
6606.37
6607.38
6608.4
6609.42
6610.45
6611.47
6612.5
6613.52
6614.54
6615.56
6616.57
6617.57
6618.57
6619.56
6620.53
6621.5
6622.46
6623.4
6624.33
6625.24
6626.14
6627.02
6627.88
6628.73
6629.55
6630.36
6631.15
6631.92
6632.67
6633.4
6634.11
6634.79
6635.46