/*--------------------------------*- C++ -*----------------------------------*\
| =========                 |                                                 |
| \\      /  F ield         | OpenFOAM: The Open Source CFD Toolbox           |
|  \\    /   O peration     | Version:  v2006                                 |
|   \\  /    A nd           | Website:  www.openfoam.com                      |
|    \\/     M anipulation  |                                                 |
\*---------------------------------------------------------------------------*/
FoamFile
{
    version     2.0;
    format      ascii;
    class       volScalarField;
    location    "5.7";
    object      p_rgh;
}
// * * * * * * * * * * * * * * * * * * * * * * * * * * * * * * * * * * * * * //

dimensions      [1 -1 -2 0 0 0 0];


internalField   nonuniform List<scalar> 
33000
(
7381.72
7375.8
7371.28
7366.83
7362.67
7358.79
7355.24
7351.87
7348.54
7345.2
7341.87
7338.57
7335.32
7332.11
7328.92
7325.85
7323.19
7320.93
7319.16
7318.47
7318.36
7318.56
7318.77
7318.42
7317.81
7317.83
7317.89
7318.19
7318.76
7319.47
7320.37
7321.47
7322.74
7324.15
7325.75
7327.6
7329.61
7331.78
7334.06
7336.61
7339.38
7342.23
7345.19
7348.29
7351.49
7354.8
7358.32
7362.08
7365.92
7369.85
7373.86
7377.96
7382.16
7386.51
7391.04
7395.63
7400.31
7405.07
7409.92
7414.85
7419.81
7424.82
7429.87
7434.95
7440.11
7445.41
7450.67
7455.94
7461.24
7466.57
7471.94
7477.3
7482.61
7487.85
7492.96
7497.9
7502.51
7506.27
7509.2
7517.33
7523.83
7530.07
7536.02
7542.61
7548.93
7555.85
7562.59
7569.6
7576.14
7583.03
7589.72
7596.66
7603.39
7610.17
7616.63
7623.17
7628.97
7635.19
7638.8
7645.24
7655.34
7663.31
7672.61
7681.67
7690.4
7699.76
7709.52
7719.19
7729.13
7739.18
7749.09
7758.96
7768.64
7778.37
7787.48
7797.19
7804.46
7814.48
7828
7838.73
7850.38
7862.31
7873.87
7886.01
7898.54
7910.86
7923.38
7935.98
7948.57
7961.23
7973.91
7986.56
7999.22
8011.84
8024.37
8036.85
8049.25
8061.56
8073.75
8085.82
8097.76
8109.57
8121.23
8132.75
8144.07
8155.24
8166.25
8177.09
8187.77
8198.23
8208.49
8218.53
8228.37
8238.06
8247.52
8256.76
8265.77
8274.57
8283.15
8291.52
8299.69
8307.65
8315.39
8322.93
8330.25
8337.37
8344.3
8351.06
8357.62
8364
8370.21
8376.27
8382.17
8387.92
8393.52
8398.98
8404.34
8409.57
8414.66
8419.6
8424.37
8428.98
8433.39
8437.61
8441.63
8445.43
8449
8452.32
8455.39
8458.21
8460.77
8463.05
8465.05
8466.76
8468.16
8469.28
8470.1
8470.62
8470.82
8470.71
8470.27
8469.5
8468.42
8467.03
8465.33
8463.3
8460.95
8458.28
8455.29
8452
8448.41
8444.51
8440.3
8435.83
8431.07
8426.04
8420.73
8415.14
8409.32
8403.27
8396.99
8390.48
8383.76
8376.82
8369.69
8362.41
8354.95
8347.35
8339.6
8331.71
8323.69
8315.58
8307.39
8299.1
8290.75
8282.34
8273.88
8265.39
8256.87
8248.35
8239.82
8231.29
8222.79
8214.32
8205.88
8197.49
8189.14
8180.86
8172.65
8164.52
8156.47
8148.5
8140.61
8132.83
8125.16
8117.59
8110.13
8102.77
8095.53
8088.41
8081.41
8074.54
8067.78
8061.15
8054.64
8048.26
8042
8035.89
8029.89
8024.02
8018.27
8012.65
8007.15
8001.78
7996.54
7991.41
7986.41
7981.53
7976.77
7972.13
7967.6
7963.2
7958.92
7954.75
7950.7
7946.76
7942.93
7939.21
7935.6
7932.1
7928.71
7925.42
7922.23
7919.15
7916.16
7913.28
7910.5
7907.81
7905.22
7902.73
7900.33
7898.02
7895.8
7893.67
7891.64
7889.68
7887.81
7886.03
7884.32
7882.7
7881.15
7879.69
7878.3
7876.98
7875.74
7874.58
7873.48
7872.46
7871.5
7870.61
7869.79
7869.03
7868.34
7867.71
7867.15
7866.64
7866.19
7865.8
7865.47
7865.2
7864.98
7864.81
7864.7
7864.64
7864.63
7864.67
7864.75
7864.89
7865.08
7865.31
7865.58
7865.9
7866.26
7866.67
7867.11
7867.59
7868.11
7868.67
7869.26
7869.88
7870.53
7871.22
7871.93
7872.67
7873.43
7874.22
7875.03
7875.86
7876.71
7877.58
7878.46
7879.36
7880.27
7881.19
7882.12
7883.05
7884
7884.95
7885.9
7886.86
7887.81
7888.77
7889.73
7890.68
7891.63
7892.58
7893.52
7894.46
7895.39
7896.31
7897.22
7898.12
7899
7899.88
7900.74
7901.59
7902.43
7903.25
7904.05
7904.84
7905.61
7906.36
7907.09
7907.81
7908.5
7909.18
7909.84
7910.48
7911.1
7911.7
7912.28
7912.84
7913.38
7913.9
7914.41
7914.89
7915.35
7915.8
7916.22
7916.63
7917.01
7917.38
7917.73
7918.07
7918.38
7918.68
7918.96
7919.23
7919.48
7919.71
7919.93
7920.14
7920.33
7920.5
7920.67
7920.84
7920.98
7921.11
7921.25
7921.3
7921.43
7921.61
7921.7
7921.82
7921.89
7921.97
7922.01
7922.06
7922.09
7922.1
7922.12
7922.11
7922.11
7922.11
7922.1
7922.07
7922.08
7921.96
7921.97
7922.05
7922.04
7922.05
7922.02
7921.99
7921.93
7921.88
7921.8
7921.74
7921.65
7921.56
7921.47
7921.35
7921.24
7921.16
7921.04
7920.92
7920.86
7920.63
7920.49
7920.51
7920.43
7920.3
7920.17
7920.04
7919.9
7919.76
7919.61
7919.46
7919.3
7919.14
7918.98
7918.81
7918.64
7918.47
7918.29
7918.11
7917.92
7917.74
7917.55
7917.35
7917.16
7916.96
7916.75
7916.55
7916.34
7916.12
7915.91
7915.69
7915.47
7915.25
7915.02
7914.79
7914.56
7914.32
7914.08
7913.84
7913.6
7913.35
7913.1
7912.85
7912.6
7912.34
7912.08
7911.81
7911.55
7911.28
7911.01
7910.73
7910.46
7910.18
7909.9
7909.61
7909.33
7909.04
7908.74
7908.45
7908.15
7907.85
7907.55
7907.24
7906.94
7906.63
7906.31
7906
7905.68
7905.36
7905.03
7904.71
7904.38
7904.05
7903.72
7903.38
7903.04
7902.7
7902.36
7902.01
7901.66
7901.29
7901.01
7900.43
7380.75
7375.32
7370.75
7366.26
7361.99
7358.02
7354.31
7350.68
7347.23
7343.81
7340.45
7337.17
7333.97
7330.85
7327.76
7324.78
7322.04
7319.78
7318.23
7317.03
7316.44
7316.72
7317.31
7317.4
7317.26
7317.14
7317.28
7317.65
7318.27
7319.01
7319.94
7321.02
7322.24
7323.64
7325.26
7327.19
7329.17
7331.23
7333.59
7336.13
7338.97
7341.87
7344.84
7347.92
7351.05
7354.38
7357.88
7361.62
7365.59
7369.53
7373.56
7377.64
7381.79
7386.15
7390.67
7395.35
7400.05
7404.82
7409.68
7414.62
7419.6
7424.63
7429.65
7434.72
7439.94
7445.18
7450.55
7455.82
7461.05
7466.39
7471.82
7477.3
7482.66
7487.96
7493.15
7498.17
7503.06
7507.83
7512.9
7518.11
7521.98
7525.7
7535.21
7542.82
7550.13
7556.13
7562.83
7569.23
7575.74
7582.95
7589.48
7596.86
7603.5
7610.66
7617.3
7624.21
7630.78
7637.44
7643.91
7649.69
7657.4
7661.42
7668.78
7680.43
7689.95
7700.56
7710.09
7719.84
7729.06
7738.73
7748.69
7758.65
7768.7
7778.73
7788.45
7798.33
7807.98
7817.6
7828.39
7836.08
7847.46
7862.13
7874.05
7886.37
7898.46
7910.43
7922.85
7935.71
7948.36
7961.12
7973.78
7986.41
7999.05
8011.76
8024.29
8036.81
8049.19
8061.52
8073.73
8085.82
8097.76
8109.57
8121.25
8132.79
8144.11
8155.28
8166.3
8177.15
8187.83
8198.33
8208.58
8218.61
8228.47
8238.14
8247.64
8256.9
8265.92
8274.72
8283.3
8291.68
8299.85
8307.81
8315.58
8323.12
8330.45
8337.57
8344.5
8351.28
8357.85
8364.22
8370.42
8376.5
8382.43
8388.18
8393.77
8399.24
8404.62
8409.88
8414.96
8419.9
8424.69
8429.33
8433.75
8437.96
8441.98
8445.81
8449.42
8452.75
8455.81
8458.64
8461.2
8463.51
8465.52
8467.24
8468.64
8469.76
8470.58
8471.1
8471.33
8471.23
8470.79
8470.01
8468.94
8467.55
8465.85
8463.84
8461.48
8458.79
8455.8
8452.52
8448.93
8445.02
8440.8
8436.31
8431.56
8426.53
8421.21
8415.61
8409.77
8403.7
8397.41
8390.91
8384.17
8377.22
8370.07
8362.76
8355.29
8347.67
8339.92
8332.01
8323.98
8315.84
8307.63
8299.33
8290.97
8282.55
8274.08
8265.56
8257.02
8248.48
8239.92
8231.38
8222.87
8214.39
8205.94
8197.53
8189.16
8180.86
8172.65
8164.51
8156.44
8148.45
8140.56
8132.77
8125.08
8117.5
8110.03
8102.67
8095.43
8088.3
8081.29
8074.41
8067.65
8061.01
8054.49
8048.1
8041.84
8035.73
8029.73
8023.85
8018.1
8012.46
8006.96
8001.59
7996.35
7991.22
7986.22
7981.34
7976.58
7971.94
7967.41
7963
7958.71
7954.55
7950.5
7946.56
7942.73
7939.01
7935.39
7931.89
7928.5
7925.21
7922.03
7918.94
7915.95
7913.07
7910.29
7907.61
7905.02
7902.53
7900.12
7897.81
7895.6
7893.48
7891.44
7889.48
7887.62
7885.83
7884.13
7882.51
7880.97
7879.5
7878.11
7876.81
7875.57
7874.4
7873.31
7872.29
7871.34
7870.45
7869.63
7868.88
7868.19
7867.56
7867
7866.49
7866.05
7865.66
7865.34
7865.06
7864.84
7864.68
7864.57
7864.51
7864.5
7864.55
7864.64
7864.78
7864.96
7865.2
7865.48
7865.8
7866.16
7866.57
7867.01
7867.5
7868.02
7868.58
7869.18
7869.8
7870.46
7871.15
7871.86
7872.61
7873.38
7874.17
7874.98
7875.82
7876.67
7877.54
7878.43
7879.33
7880.24
7881.16
7882.09
7883.04
7883.98
7884.94
7885.89
7886.85
7887.81
7888.77
7889.73
7890.69
7891.64
7892.59
7893.54
7894.47
7895.4
7896.33
7897.24
7898.14
7899.03
7899.91
7900.78
7901.63
7902.46
7903.28
7904.09
7904.87
7905.64
7906.4
7907.13
7907.85
7908.55
7909.22
7909.88
7910.52
7911.14
7911.74
7912.32
7912.88
7913.43
7913.95
7914.45
7914.93
7915.39
7915.84
7916.26
7916.67
7917.05
7917.42
7917.77
7918.11
7918.42
7918.72
7919
7919.27
7919.51
7919.75
7919.96
7920.16
7920.37
7920.55
7920.71
7920.87
7920.94
7921.08
7921.29
7921.4
7921.53
7921.66
7921.75
7921.86
7921.92
7922
7922.04
7922.08
7922.1
7922.12
7922.14
7922.15
7922.14
7922.13
7922.01
7921.99
7922.11
7922.08
7922.12
7922.12
7922.11
7922.09
7922.05
7922.02
7921.96
7921.91
7921.83
7921.76
7921.65
7921.56
7921.48
7921.39
7921.28
7921.21
7920.94
7920.79
7920.83
7920.77
7920.65
7920.54
7920.44
7920.33
7920.2
7920.07
7919.93
7919.78
7919.63
7919.48
7919.32
7919.16
7919
7918.83
7918.66
7918.48
7918.31
7918.12
7917.94
7917.75
7917.56
7917.36
7917.17
7916.96
7916.76
7916.55
7916.35
7916.13
7915.92
7915.7
7915.48
7915.25
7915.03
7914.8
7914.57
7914.33
7914.09
7913.85
7913.61
7913.36
7913.11
7912.86
7912.61
7912.35
7912.09
7911.82
7911.56
7911.29
7911.02
7910.74
7910.47
7910.19
7909.9
7909.62
7909.33
7909.04
7908.75
7908.46
7908.16
7907.86
7907.56
7907.25
7906.94
7906.63
7906.32
7906.01
7905.69
7905.37
7905.04
7904.72
7904.39
7904.06
7903.73
7903.39
7903.05
7902.71
7902.37
7902.02
7901.67
7901.3
7901.02
7900.44
7379.29
7374.4
7369.84
7365.43
7361.08
7356.97
7353.13
7349.3
7345.63
7342.16
7338.83
7335.63
7332.54
7329.6
7326.84
7324.27
7321.93
7319.97
7318.46
7317.52
7316.96
7316.62
7316.45
7316.28
7316.19
7316.15
7316.31
7316.62
7317.16
7317.92
7318.96
7320.13
7321.43
7322.8
7324.29
7326.08
7328.12
7330.35
7332.76
7335.54
7338.29
7341.14
7344.13
7347.27
7350.47
7353.67
7357.14
7361.08
7364.98
7368.91
7372.96
7377.08
7381.2
7385.53
7390.02
7394.66
7399.54
7404.36
7409.24
7414.18
7419.19
7424.21
7429.18
7434.34
7439.65
7445.09
7450.3
7455.49
7460.84
7466.21
7471.6
7477.11
7482.69
7488.07
7493.34
7498.49
7503.67
7508.88
7514.31
7519.91
7525.23
7530.89
7536.48
7540.56
7544.6
7554.32
7562.26
7569.74
7576.32
7582.95
7589.7
7596.48
7604.01
7610.98
7618.23
7624.91
7631.98
7639.05
7645.89
7653.13
7660.73
7668.01
7675.26
7683.51
7688.14
7696.12
7708.24
7718
7728.74
7739.26
7749.44
7759.22
7768.79
7778.67
7788.54
7798.84
7809.1
7819.54
7830.5
7841.16
7851.51
7862.66
7871.1
7882.95
7898.14
7910.41
7923.13
7935.61
7947.96
7960.59
7973.57
7986.2
7998.97
8011.6
8024.19
8036.72
8049.16
8061.48
8073.63
8085.72
8097.72
8109.6
8121.3
8132.85
8144.17
8155.36
8166.41
8177.31
8188.03
8198.49
8208.7
8218.79
8228.68
8238.43
8247.93
8257.14
8266.12
8274.95
8283.65
8292.07
8300.22
8308.15
8315.9
8323.51
8330.86
8337.96
8344.92
8351.74
8358.33
8364.68
8370.91
8377.01
8382.98
8388.74
8394.32
8399.83
8405.21
8410.51
8415.62
8420.56
8425.4
8430.05
8434.45
8438.69
8442.74
8446.59
8450.24
8453.61
8456.72
8459.54
8462.07
8464.37
8466.44
8468.21
8469.66
8470.78
8471.58
8472.1
8472.35
8472.28
8471.84
8471.05
8469.98
8468.63
8466.94
8464.9
8462.52
8459.84
8456.85
8453.58
8449.97
8446.03
8441.8
8437.33
8432.57
8427.51
8422.18
8416.57
8410.68
8404.58
8398.28
8391.76
8384.99
8378.02
8370.83
8363.49
8355.99
8348.36
8340.56
8332.62
8324.54
8316.38
8308.14
8299.83
8291.42
8282.96
8274.45
8265.88
8257.29
8248.72
8240.15
8231.6
8223.06
8214.54
8206.05
8197.61
8189.2
8180.88
8172.64
8164.48
8156.38
8148.37
8140.45
8132.65
8124.95
8117.35
8109.85
8102.46
8095.18
8088.07
8081.06
8074.16
8067.39
8060.72
8054.19
8047.79
8041.54
8035.41
8029.4
8023.51
8017.75
8012.12
8006.6
8001.22
7995.96
7990.84
7985.84
7980.96
7976.2
7971.55
7967.01
7962.6
7958.32
7954.15
7950.09
7946.15
7942.31
7938.59
7934.97
7931.47
7928.08
7924.79
7921.61
7918.52
7915.54
7912.66
7909.88
7907.19
7904.6
7902.12
7899.72
7897.42
7895.2
7893.07
7891.04
7889.09
7887.23
7885.45
7883.75
7882.13
7880.6
7879.14
7877.75
7876.45
7875.22
7874.06
7872.97
7871.95
7871
7870.12
7869.31
7868.57
7867.88
7867.26
7866.7
7866.2
7865.76
7865.38
7865.06
7864.79
7864.58
7864.42
7864.31
7864.26
7864.26
7864.3
7864.4
7864.55
7864.74
7864.98
7865.26
7865.59
7865.96
7866.37
7866.83
7867.32
7867.85
7868.42
7869.02
7869.65
7870.31
7871.01
7871.73
7872.48
7873.26
7874.06
7874.88
7875.72
7876.58
7877.46
7878.35
7879.26
7880.18
7881.11
7882.05
7883
7883.95
7884.91
7885.87
7886.84
7887.81
7888.77
7889.74
7890.7
7891.66
7892.62
7893.57
7894.51
7895.45
7896.37
7897.29
7898.19
7899.09
7899.97
7900.84
7901.69
7902.53
7903.35
7904.16
7904.95
7905.72
7906.48
7907.21
7907.93
7908.63
7909.31
7909.97
7910.61
7911.23
7911.83
7912.41
7912.97
7913.51
7914.03
7914.54
7915.02
7915.48
7915.92
7916.35
7916.75
7917.14
7917.5
7917.85
7918.18
7918.5
7918.79
7919.07
7919.32
7919.57
7919.82
7920.04
7920.24
7920.43
7920.54
7920.7
7920.94
7921.08
7921.24
7921.37
7921.49
7921.6
7921.72
7921.81
7921.9
7921.95
7922.02
7922.1
7922.13
7922.19
7922.18
7922.21
7922.07
7922.09
7922.21
7922.21
7922.24
7922.24
7922.22
7922.21
7922.2
7922.19
7922.16
7922.13
7922.08
7922.01
7921.93
7921.85
7921.79
7921.72
7921.62
7921.57
7921.29
7921.15
7921.2
7921.15
7921.02
7920.9
7920.77
7920.65
7920.54
7920.44
7920.32
7920.19
7920.05
7919.91
7919.77
7919.62
7919.47
7919.32
7919.16
7918.99
7918.83
7918.66
7918.48
7918.31
7918.13
7917.94
7917.76
7917.57
7917.37
7917.18
7916.98
7916.77
7916.57
7916.36
7916.15
7915.93
7915.71
7915.49
7915.27
7915.04
7914.81
7914.58
7914.34
7914.1
7913.86
7913.62
7913.37
7913.12
7912.87
7912.61
7912.36
7912.1
7911.83
7911.57
7911.3
7911.03
7910.75
7910.48
7910.2
7909.92
7909.63
7909.34
7909.06
7908.76
7908.47
7908.17
7907.87
7907.57
7907.26
7906.96
7906.64
7906.33
7906.02
7905.7
7905.38
7905.05
7904.73
7904.4
7904.07
7903.74
7903.4
7903.06
7902.72
7902.38
7902.03
7901.68
7901.31
7901.04
7900.45
7377.6
7373.03
7368.48
7364.03
7359.63
7355.47
7351.34
7347.55
7343.81
7340.28
7336.96
7333.77
7330.74
7327.98
7325.37
7322.98
7320.84
7318.96
7317.51
7316.38
7315.64
7315.24
7314.96
7314.71
7314.57
7314.6
7314.84
7315.23
7315.69
7316.46
7317.61
7318.78
7320.11
7321.6
7323.06
7324.72
7326.78
7329.25
7331.9
7334.44
7337.13
7339.98
7342.99
7346.16
7349.46
7352.87
7356.41
7360.13
7363.99
7367.94
7372.03
7376.23
7380.43
7384.65
7389.19
7394.05
7398.8
7403.62
7408.53
7413.52
7418.57
7423.66
7428.74
7433.97
7439.46
7444.82
7450.13
7455.27
7460.56
7465.98
7471.42
7476.89
7482.69
7488.28
7493.77
7499.16
7504.41
7509.81
7515.36
7521.15
7526.87
7532.71
7538.69
7544.56
7550.75
7556.91
7562.48
7567.09
7571.7
7582.65
7590.02
7597.37
7604.22
7611.81
7618.68
7626.65
7633.48
7641.06
7648.14
7655.62
7663.16
7670.73
7678.6
7687.29
7695.38
7704.29
7712.44
7721
7726.57
7734.91
7747.34
7757.3
7769.03
7779.57
7789.8
7799.72
7810.06
7820.48
7831.4
7842.09
7853.3
7864.86
7876.22
7887.13
7898.68
7907.4
7919.51
7935.21
7947.85
7960.66
7973.21
7985.61
7998.3
8011.32
8024.02
8036.77
8049.12
8061.52
8073.65
8085.71
8097.69
8109.57
8121.37
8132.97
8144.33
8155.52
8166.6
8177.6
8188.29
8198.74
8208.98
8219.11
8229.04
8238.87
8248.35
8257.53
8266.57
8275.42
8284.12
8292.63
8300.82
8308.74
8316.51
8324.1
8331.48
8338.63
8345.62
8352.48
8359.11
8365.46
8371.71
8377.82
8383.85
8389.65
8395.26
8400.78
8406.19
8411.46
8416.61
8421.68
8426.52
8431.16
8435.56
8439.84
8443.92
8447.82
8451.51
8454.91
8458.04
8460.87
8463.43
8465.76
8467.82
8469.65
8471.15
8472.31
8473.1
8473.62
8473.88
8473.84
8473.43
8472.63
8471.58
8470.24
8468.54
8466.49
8464.1
8461.43
8458.46
8455.17
8451.54
8447.56
8443.32
8438.81
8434.06
8428.99
8423.62
8417.96
8412.05
8405.92
8399.59
8393.04
8386.23
8379.22
8371.99
8364.58
8357.03
8349.32
8341.51
8333.53
8325.43
8317.19
8308.88
8300.5
8292.08
8283.56
8274.97
8266.35
8257.73
8249.12
8240.53
8231.91
8223.31
8214.73
8206.17
8197.68
8189.26
8180.92
8172.65
8164.43
8156.28
8148.22
8140.3
8132.48
8124.74
8117.1
8109.55
8102.14
8094.86
8087.72
8080.7
8073.78
8066.99
8060.32
8053.76
8047.34
8041.06
8034.93
8028.9
8023
8017.21
8011.56
8006.07
8000.69
7995.41
7990.26
7985.25
7980.37
7975.61
7970.96
7966.41
7962
7957.71
7953.54
7949.47
7945.51
7941.67
7937.96
7934.35
7930.85
7927.45
7924.15
7920.96
7917.89
7914.92
7912.04
7909.26
7906.57
7903.98
7901.5
7899.11
7896.8
7894.58
7892.46
7890.44
7888.5
7886.64
7884.86
7883.17
7881.57
7880.04
7878.58
7877.2
7875.91
7874.69
7873.54
7872.46
7871.45
7870.5
7869.63
7868.83
7868.09
7867.42
7866.8
7866.25
7865.76
7865.33
7864.96
7864.64
7864.38
7864.17
7864.02
7863.92
7863.88
7863.88
7863.94
7864.04
7864.2
7864.4
7864.65
7864.94
7865.28
7865.66
7866.08
7866.54
7867.05
7867.59
7868.16
7868.77
7869.42
7870.09
7870.8
7871.53
7872.29
7873.08
7873.89
7874.72
7875.58
7876.45
7877.34
7878.24
7879.16
7880.09
7881.03
7881.99
7882.94
7883.91
7884.88
7885.85
7886.83
7887.8
7888.78
7889.75
7890.73
7891.69
7892.66
7893.61
7894.56
7895.51
7896.44
7897.36
7898.28
7899.18
7900.06
7900.93
7901.79
7902.64
7903.46
7904.27
7905.06
7905.84
7906.6
7907.34
7908.05
7908.75
7909.43
7910.1
7910.74
7911.36
7911.96
7912.54
7913.1
7913.64
7914.16
7914.66
7915.14
7915.6
7916.04
7916.46
7916.87
7917.25
7917.63
7917.97
7918.3
7918.6
7918.9
7919.18
7919.45
7919.7
7919.93
7920.07
7920.27
7920.55
7920.72
7920.91
7921.06
7921.2
7921.34
7921.48
7921.6
7921.72
7921.81
7921.89
7922.02
7922.07
7922.17
7922.17
7922.22
7922.12
7922.14
7922.29
7922.29
7922.35
7922.34
7922.34
7922.33
7922.34
7922.33
7922.33
7922.3
7922.28
7922.22
7922.17
7922.15
7922.09
7922.04
7921.94
7921.92
7921.62
7921.51
7921.58
7921.53
7921.41
7921.29
7921.18
7921.06
7920.96
7920.85
7920.74
7920.62
7920.5
7920.37
7920.24
7920.1
7919.96
7919.82
7919.67
7919.52
7919.36
7919.2
7919.03
7918.86
7918.69
7918.52
7918.34
7918.16
7917.97
7917.79
7917.59
7917.4
7917.2
7917
7916.8
7916.59
7916.38
7916.17
7915.95
7915.74
7915.52
7915.29
7915.06
7914.83
7914.6
7914.36
7914.13
7913.88
7913.64
7913.39
7913.14
7912.89
7912.63
7912.38
7912.12
7911.85
7911.59
7911.32
7911.05
7910.77
7910.5
7910.22
7909.94
7909.65
7909.36
7909.08
7908.78
7908.49
7908.19
7907.89
7907.59
7907.28
7906.97
7906.66
7906.35
7906.04
7905.72
7905.4
7905.07
7904.75
7904.42
7904.09
7903.76
7903.42
7903.08
7902.74
7902.4
7902.05
7901.7
7901.33
7901.05
7900.47
7375.65
7371.23
7366.71
7362.24
7357.77
7353.61
7349.33
7345.34
7341.45
7337.84
7334.56
7331.43
7328.47
7325.87
7323.45
7321.18
7319.17
7317.49
7316.07
7314.85
7313.96
7313.33
7312.88
7312.6
7312.46
7312.49
7312.75
7313.17
7313.84
7314.69
7315.71
7316.9
7318.27
7319.83
7321.51
7323.35
7325.46
7327.85
7330.28
7332.83
7335.54
7338.41
7341.45
7344.66
7348.02
7351.5
7355.09
7358.8
7362.65
7366.63
7370.76
7375.02
7379.37
7383.79
7388.31
7392.96
7397.71
7402.58
7407.57
7412.61
7417.73
7422.92
7428.17
7433.48
7438.86
7444.27
7449.72
7455.13
7460.31
7465.64
7471.16
7476.81
7482.79
7488.45
7494.08
7499.71
7505.3
7510.8
7516.44
7522.44
7528.32
7534.26
7540.21
7546.33
7552.62
7558.92
7565
7571.31
7577.69
7583.76
7588.59
7593.98
7605.43
7613.04
7620.63
7627.66
7635.2
7642.31
7650.4
7657.65
7665.76
7673.68
7681.85
7689.82
7697.97
7706.28
7715.31
7724.04
7733.28
7741.93
7751.47
7757.98
7766.38
7778.11
7788.28
7800.31
7811.32
7822.2
7832.77
7843.59
7854.53
7865.94
7877.15
7888.83
7900.8
7912.42
7923.74
7935.82
7945.04
7957.47
7973.13
7985.84
7998.88
8011.51
8024.1
8036.25
8048.59
8061.34
8073.65
8085.79
8097.72
8109.59
8121.35
8133.11
8144.63
8155.84
8166.9
8177.91
8188.65
8199.08
8209.39
8219.55
8229.63
8239.44
8248.9
8258.1
8267.2
8276.09
8284.85
8293.4
8301.66
8309.67
8317.38
8324.97
8332.38
8339.6
8346.73
8353.59
8360.21
8366.57
8372.88
8379.02
8385.05
8390.99
8396.66
8402.15
8407.58
8412.88
8418.11
8423.19
8428.04
8432.64
8437.11
8441.43
8445.56
8449.54
8453.25
8456.67
8459.84
8462.68
8465.27
8467.64
8469.73
8471.59
8473.15
8474.34
8475.19
8475.67
8475.93
8475.93
8475.56
8474.84
8473.75
8472.3
8470.59
8468.57
8466.28
8463.63
8460.63
8457.3
8453.61
8449.61
8445.37
8440.84
8436.07
8430.97
8425.55
8419.81
8413.89
8407.72
8401.36
8394.74
8387.82
8380.75
8373.55
8366.13
8358.48
8350.65
8342.73
8334.68
8326.53
8318.28
8309.89
8301.45
8292.95
8284.35
8275.67
8267
8258.31
8249.65
8240.99
8232.3
8223.61
8214.95
8206.36
8197.82
8189.35
8180.98
8172.64
8164.36
8156.14
8148.05
8140.06
8132.22
8124.45
8116.76
8109.17
8101.74
8094.42
8087.27
8080.21
8073.26
8066.44
8059.75
8053.18
8046.72
8040.42
8034.28
8028.24
8022.31
8016.5
8010.85
8005.34
7999.95
7994.67
7989.5
7984.47
7979.57
7974.81
7970.16
7965.61
7961.21
7956.91
7952.7
7948.62
7944.67
7940.84
7937.13
7933.52
7930
7926.59
7923.29
7920.11
7917.04
7914.08
7911.21
7908.43
7905.73
7903.15
7900.67
7898.29
7895.97
7893.77
7891.66
7889.65
7887.71
7885.85
7884.08
7882.41
7880.81
7879.29
7877.83
7876.47
7875.18
7873.98
7872.85
7871.77
7870.77
7869.84
7868.98
7868.19
7867.46
7866.8
7866.19
7865.64
7865.16
7864.74
7864.38
7864.08
7863.83
7863.63
7863.49
7863.4
7863.37
7863.39
7863.46
7863.57
7863.74
7863.95
7864.2
7864.51
7864.86
7865.25
7865.69
7866.17
7866.68
7867.24
7867.82
7868.45
7869.1
7869.79
7870.51
7871.27
7872.04
7872.84
7873.67
7874.51
7875.38
7876.27
7877.18
7878.1
7879.03
7879.98
7880.93
7881.9
7882.87
7883.85
7884.83
7885.82
7886.81
7887.8
7888.78
7889.77
7890.76
7891.74
7892.71
7893.68
7894.64
7895.59
7896.53
7897.46
7898.38
7899.29
7900.18
7901.06
7901.93
7902.78
7903.61
7904.42
7905.22
7906
7906.76
7907.5
7908.23
7908.92
7909.61
7910.27
7910.91
7911.54
7912.14
7912.72
7913.28
7913.82
7914.33
7914.84
7915.32
7915.78
7916.22
7916.65
7917.04
7917.42
7917.77
7918.12
7918.46
7918.77
7919.06
7919.33
7919.52
7919.76
7920.08
7920.29
7920.51
7920.69
7920.87
7921.03
7921.21
7921.35
7921.5
7921.6
7921.72
7921.84
7921.95
7922.03
7922.11
7922.06
7922.12
7922.29
7922.33
7922.43
7922.43
7922.48
7922.46
7922.49
7922.5
7922.51
7922.51
7922.5
7922.5
7922.45
7922.42
7922.42
7922.37
7922.37
7922.31
7922.22
7921.94
7921.84
7921.94
7921.9
7921.78
7921.66
7921.55
7921.42
7921.32
7921.22
7921.12
7921.01
7920.89
7920.78
7920.66
7920.53
7920.4
7920.27
7920.13
7919.99
7919.85
7919.7
7919.54
7919.39
7919.23
7919.06
7918.89
7918.72
7918.55
7918.37
7918.19
7918
7917.82
7917.63
7917.43
7917.23
7917.03
7916.83
7916.62
7916.41
7916.2
7915.98
7915.76
7915.54
7915.32
7915.09
7914.86
7914.63
7914.39
7914.15
7913.91
7913.67
7913.42
7913.17
7912.92
7912.66
7912.4
7912.14
7911.88
7911.61
7911.34
7911.07
7910.8
7910.52
7910.24
7909.96
7909.68
7909.39
7909.1
7908.81
7908.51
7908.22
7907.92
7907.61
7907.31
7907
7906.69
7906.38
7906.06
7905.74
7905.42
7905.1
7904.77
7904.45
7904.11
7903.78
7903.45
7903.11
7902.77
7902.42
7902.08
7901.73
7901.36
7901.08
7900.49
7373.22
7368.94
7364.39
7359.88
7355.36
7351.05
7346.8
7342.68
7338.45
7334.48
7331.46
7328.64
7325.77
7323.09
7320.73
7318.55
7316.57
7314.85
7313.38
7312.32
7311.46
7310.81
7310.33
7310.03
7309.91
7309.99
7310.25
7310.73
7311.42
7312.29
7313.33
7314.54
7315.95
7317.54
7319.32
7321.29
7323.45
7325.76
7328.19
7330.78
7333.51
7336.37
7339.43
7342.72
7346.18
7349.71
7353.33
7357.05
7360.87
7364.85
7369.07
7373.47
7377.9
7382.42
7386.97
7391.35
7395.77
7400.94
7406.29
7411.46
7416.65
7421.92
7427.24
7432.61
7438.05
7443.53
7449.07
7454.64
7460.13
7465.37
7470.79
7476.81
7482.78
7488.53
7494.3
7500.09
7505.94
7511.81
7517.71
7523.54
7529.37
7535.62
7541.95
7548.23
7554.54
7560.79
7566.92
7573.27
7579.87
7586.61
7593.62
7600.45
7606.81
7611.83
7617.5
7629.44
7637.01
7644.93
7652.29
7659.94
7667.45
7676.2
7684.35
7693.15
7701.48
7710.15
7718.5
7727.4
7735.91
7745.13
7754.48
7763.74
7772.77
7782.62
7789.83
7798.78
7810.44
7820.99
7833.46
7845
7856.55
7867.63
7878.89
7890.17
7901.88
7913.35
7925.5
7937.8
7949.74
7961.36
7973.37
7982.8
7995.44
8011.15
8024.14
8037.05
8048.97
8061.6
8073.5
8085.7
8097.92
8109.76
8121.53
8133.37
8144.91
8156.27
8167.42
8178.39
8189.07
8199.54
8209.95
8220.31
8230.4
8240.2
8249.74
8258.96
8268.07
8277.1
8285.94
8294.47
8302.76
8310.84
8318.64
8326.19
8333.65
8341.04
8348.15
8355.04
8361.73
8368.14
8374.45
8380.67
8386.82
8392.76
8398.5
8404
8409.43
8414.82
8420.11
8425.17
8430.03
8434.64
8439.15
8443.54
8447.79
8451.76
8455.47
8458.92
8462.13
8465.07
8467.66
8470.04
8472.18
8474.09
8475.67
8476.9
8477.82
8478.34
8478.58
8478.59
8478.24
8477.53
8476.47
8475
8473.3
8471.28
8469
8466.34
8463.32
8459.92
8456.19
8452.23
8448.02
8443.5
8438.62
8433.39
8427.9
8422.19
8416.28
8410.08
8403.59
8396.81
8389.88
8382.75
8375.49
8367.99
8360.3
8352.39
8344.33
8336.19
8327.93
8319.6
8311.19
8302.66
8294.04
8285.36
8276.59
8267.8
8259.06
8250.34
8241.55
8232.73
8223.97
8215.26
8206.6
8198.04
8189.51
8181.03
8172.61
8164.23
8155.98
8147.83
8139.81
8131.92
8124.09
8116.35
8108.71
8101.24
8093.92
8086.7
8079.59
8072.59
8065.72
8059.02
8052.44
8045.98
8039.65
8033.46
8027.39
8021.43
8015.61
8009.97
8004.44
7999.02
7993.73
7988.55
7983.49
7978.57
7973.8
7969.16
7964.62
7960.2
7955.88
7951.67
7947.58
7943.64
7939.82
7936.09
7932.46
7928.93
7925.53
7922.24
7919.08
7916
7913.02
7910.15
7907.36
7904.68
7902.12
7899.65
7897.26
7894.96
7892.75
7890.66
7888.65
7886.72
7884.87
7883.1
7881.45
7879.87
7878.36
7876.92
7875.56
7874.3
7873.1
7871.97
7870.91
7869.93
7869.02
7868.17
7867.39
7866.67
7866.02
7865.44
7864.91
7864.43
7864.02
7863.67
7863.38
7863.14
7862.96
7862.83
7862.76
7862.74
7862.77
7862.84
7862.97
7863.16
7863.38
7863.65
7863.98
7864.34
7864.75
7865.2
7865.69
7866.22
7866.79
7867.4
7868.04
7868.72
7869.42
7870.16
7870.93
7871.73
7872.55
7873.39
7874.26
7875.15
7876.05
7876.98
7877.92
7878.87
7879.83
7880.81
7881.79
7882.78
7883.78
7884.78
7885.79
7886.79
7887.8
7888.8
7889.8
7890.8
7891.8
7892.78
7893.76
7894.74
7895.7
7896.65
7897.6
7898.52
7899.44
7900.34
7901.23
7902.1
7902.96
7903.8
7904.62
7905.42
7906.21
7906.97
7907.71
7908.44
7909.14
7909.82
7910.49
7911.13
7911.75
7912.35
7912.93
7913.49
7914.03
7914.55
7915.05
7915.53
7915.98
7916.41
7916.83
7917.24
7917.62
7918
7918.33
7918.67
7918.89
7919.19
7919.54
7919.79
7920.05
7920.27
7920.48
7920.68
7920.89
7921.07
7921.24
7921.38
7921.53
7921.68
7921.81
7921.93
7922.03
7922
7922.08
7922.3
7922.34
7922.47
7922.49
7922.55
7922.56
7922.6
7922.63
7922.65
7922.68
7922.67
7922.69
7922.64
7922.64
7922.63
7922.63
7922.58
7922.62
7922.34
7922.27
7922.38
7922.35
7922.25
7922.14
7922.03
7921.93
7921.82
7921.72
7921.63
7921.53
7921.42
7921.31
7921.2
7921.08
7920.97
7920.85
7920.72
7920.59
7920.46
7920.33
7920.19
7920.05
7919.9
7919.75
7919.59
7919.44
7919.27
7919.11
7918.94
7918.77
7918.59
7918.41
7918.23
7918.05
7917.86
7917.66
7917.47
7917.27
7917.07
7916.87
7916.66
7916.45
7916.24
7916.02
7915.8
7915.58
7915.35
7915.13
7914.9
7914.66
7914.43
7914.19
7913.95
7913.7
7913.45
7913.2
7912.95
7912.7
7912.44
7912.18
7911.91
7911.65
7911.38
7911.11
7910.83
7910.56
7910.28
7909.99
7909.71
7909.42
7909.13
7908.84
7908.55
7908.25
7907.95
7907.64
7907.34
7907.03
7906.72
7906.41
7906.09
7905.77
7905.45
7905.13
7904.81
7904.48
7904.15
7903.81
7903.48
7903.14
7902.8
7902.45
7902.11
7901.76
7901.39
7901.11
7900.53
7370.41
7366.24
7361.65
7357.09
7352.51
7348.03
7343.75
7339.44
7334.75
7330.71
7327.55
7325.39
7322.66
7319.94
7317.53
7315.42
7313.52
7311.86
7310.44
7309.3
7308.39
7307.69
7307.18
7306.85
7306.73
7306.82
7307.16
7307.72
7308.47
7309.38
7310.44
7311.69
7313.1
7314.68
7316.45
7318.55
7320.83
7323.19
7325.67
7328.29
7330.93
7333.53
7336.5
7340.36
7343.98
7347.55
7351.21
7354.92
7358.46
7361.97
7366.59
7371.52
7376.11
7380.71
7385.24
7389.4
7393.88
7398.78
7404.14
7409.92
7415.29
7420.68
7426.08
7431.53
7437.03
7442.6
7448.22
7453.89
7459.59
7465.26
7470.77
7476.41
7482.36
7488.31
7494.3
7500.34
7506.36
7512.41
7518.5
7524.56
7530.45
7536.58
7543.18
7549.8
7556.33
7562.9
7569.44
7575.74
7582.15
7589.1
7596.17
7603.14
7610.14
7617.06
7624.1
7630.79
7636.09
7642.25
7654.92
7662.49
7670.38
7678.26
7686.74
7695.08
7704.47
7712.76
7721.9
7730.42
7739.57
7748.49
7757.87
7766.91
7776.24
7785.83
7795.3
7804.8
7815.26
7823.44
7832.92
7844.24
7855.08
7868.01
7880.18
7892.41
7903.87
7915.3
7926.82
7938.9
7950.92
7963.24
7976.09
7988.24
8000.61
8012.23
8024.2
8033.81
8046.2
8061.4
8073.84
8086
8098.16
8109.88
8121.66
8133.67
8145.3
8156.71
8167.95
8178.92
8189.59
8200.17
8210.87
8221.23
8231.3
8241.14
8250.73
8260.11
8269.37
8278.45
8287.24
8295.79
8304.11
8312.29
8320.22
8327.9
8335.45
8342.8
8349.94
8356.88
8363.65
8370.21
8376.59
8382.9
8389.03
8394.98
8400.76
8406.36
8411.88
8417.32
8422.58
8427.65
8432.46
8437.14
8441.84
8446.31
8450.51
8454.48
8458.21
8461.62
8464.78
8467.9
8470.72
8473.18
8475.34
8477.07
8478.58
8479.95
8480.97
8481.6
8481.9
8481.79
8481.37
8480.76
8479.75
8478.31
8476.58
8474.6
8472.31
8469.62
8466.55
8463.07
8459.39
8455.45
8451.22
8446.61
8441.68
8436.41
8430.84
8425.07
8419.11
8412.83
8406.28
8399.42
8392.39
8385.2
8377.84
8370.24
8362.45
8354.49
8346.32
8338.02
8329.65
8321.21
8312.71
8304.07
8295.35
8286.56
8277.73
8268.77
8259.95
8251.11
8242.23
8233.35
8224.44
8215.63
8206.91
8198.26
8189.63
8181.06
8172.57
8164.09
8155.77
8147.57
8139.52
8131.53
8123.64
8115.86
8108.14
8100.63
8093.26
8085.98
8078.83
8071.78
8064.85
8058.12
8051.53
8045.05
8038.69
8032.47
8026.36
8020.36
8014.54
8008.89
8003.33
7997.89
7992.58
7987.4
7982.33
7977.37
7972.59
7967.94
7963.39
7958.96
7954.65
7950.44
7946.34
7942.38
7938.55
7934.82
7931.19
7927.65
7924.26
7920.98
7917.8
7914.72
7911.74
7908.86
7906.09
7903.43
7900.87
7898.39
7896.02
7893.73
7891.54
7889.45
7887.45
7885.53
7883.69
7881.94
7880.3
7878.72
7877.23
7875.81
7874.48
7873.23
7872.04
7870.93
7869.89
7868.93
7868.03
7867.2
7866.43
7865.73
7865.09
7864.52
7864.01
7863.56
7863.16
7862.82
7862.54
7862.32
7862.15
7862.04
7861.98
7861.98
7862.02
7862.12
7862.26
7862.46
7862.7
7862.99
7863.33
7863.71
7864.14
7864.61
7865.12
7865.67
7866.26
7866.89
7867.55
7868.25
7868.98
7869.74
7870.53
7871.35
7872.19
7873.06
7873.95
7874.86
7875.79
7876.74
7877.7
7878.67
7879.66
7880.66
7881.67
7882.68
7883.7
7884.72
7885.75
7886.77
7887.8
7888.82
7889.84
7890.86
7891.87
7892.87
7893.87
7894.86
7895.83
7896.8
7897.76
7898.7
7899.62
7900.54
7901.43
7902.32
7903.18
7904.03
7904.85
7905.66
7906.45
7907.22
7907.97
7908.7
7909.4
7910.09
7910.76