/*--------------------------------*- C++ -*----------------------------------*\
| =========                 |                                                 |
| \\      /  F ield         | OpenFOAM: The Open Source CFD Toolbox           |
|  \\    /   O peration     | Version:  v2006                                 |
|   \\  /    A nd           | Website:  www.openfoam.com                      |
|    \\/     M anipulation  |                                                 |
\*---------------------------------------------------------------------------*/
FoamFile
{
    version     2.0;
    format      ascii;
    class       surfaceScalarField;
    location    "5.7";
    object      phi;
}
// * * * * * * * * * * * * * * * * * * * * * * * * * * * * * * * * * * * * * //

dimensions      [0 3 -1 0 0 0 0];
oriented        oriented;


internalField   nonuniform List<scalar> 
65390
(
-0.000108344
4.0577e-06
-0.000109792
1.44806e-06
-0.000111489
1.69759e-06
-0.000112655
1.16609e-06
-0.000112353
-3.0214e-07
-0.000110198
-2.15437e-06
-0.000105787
-4.41162e-06
-9.96903e-05
-6.09606e-06
-9.29033e-05
-6.78683e-06
-8.65303e-05
-6.37271e-06
-8.07545e-05
-5.77562e-06
-7.52331e-05
-5.52116e-06
-6.92624e-05
-5.97037e-06
-6.30669e-05
-6.19528e-06
-5.74294e-05
-5.63718e-06
-5.27677e-05
-4.66143e-06
-4.9352e-05
-3.41544e-06
-4.79259e-05
-1.42587e-06
-4.85381e-05
6.12334e-07
-5.12573e-05
2.71943e-06
-5.56071e-05
4.35004e-06
-6.22884e-05
6.68144e-06
-7.07549e-05
8.46661e-06
-7.69625e-05
6.20768e-06
-7.96407e-05
2.67831e-06
-8.11783e-05
1.53767e-06
-8.23467e-05
1.16835e-06
-8.30202e-05
6.73518e-07
-8.29958e-05
-2.45007e-08
-8.25194e-05
-4.76389e-07
-8.19166e-05
-6.02975e-07
-8.14133e-05
-5.03411e-07
-8.11557e-05
-2.57699e-07
-8.10739e-05
-8.1959e-08
-8.09889e-05
-8.5241e-08
-8.06504e-05
-3.38632e-07
-8.02224e-05
-4.28242e-07
-7.99684e-05
-2.54256e-07
-7.98725e-05
-9.61669e-08
-7.96135e-05
-2.59247e-07
-7.8724e-05
-8.89722e-07
-7.72728e-05
-1.45155e-06
-7.57821e-05
-1.49093e-06
-7.46537e-05
-1.12875e-06
-7.40851e-05
-5.68861e-07
-7.38586e-05
-2.26793e-07
-7.35901e-05
-2.68794e-07
-7.27481e-05
-8.42308e-07
-7.13256e-05
-1.42272e-06
-6.9789e-05
-1.53693e-06
-6.84461e-05
-1.3431e-06
-6.74904e-05
-9.55932e-07
-6.678e-05
-7.10637e-07
-6.60412e-05
-7.39014e-07
-6.50057e-05
-1.03575e-06
-6.37519e-05
-1.25392e-06
-6.24594e-05
-1.2927e-06
-6.11107e-05
-1.34879e-06
-5.96583e-05
-1.4525e-06
-5.79558e-05
-1.70258e-06
-5.60304e-05
-1.92547e-06
-5.42806e-05
-1.7499e-06
-5.29771e-05
-1.30351e-06
-5.21038e-05
-8.73251e-07
-5.13199e-05
-7.83908e-07
-5.01425e-05
-1.17743e-06
-4.87007e-05
-1.44176e-06
-4.73963e-05
-1.30432e-06
-4.6412e-05
-9.84253e-07
-4.53449e-05
-1.06707e-06
-4.39441e-05
-1.40068e-06
-4.19933e-05
-1.95076e-06
-3.95782e-05
-2.41504e-06
-3.66699e-05
-2.90819e-06
-3.32855e-05
-3.38433e-06
-2.93386e-05
-3.94687e-06
-2.46421e-05
-4.69644e-06
-1.82227e-05
-6.41928e-06
-1.27381e-05
-5.48461e-06
-1.04095e-05
-2.32855e-06
-8.74812e-06
-1.66135e-06
-8.7913e-06
4.32044e-08
-8.76829e-06
-2.30004e-08
-9.43206e-06
6.63792e-07
-1.06268e-05
1.19471e-06
-1.17743e-05
1.14751e-06
-1.31467e-05
1.37242e-06
-1.43394e-05
1.19273e-06
-1.52957e-05
9.56328e-07
-1.58948e-05
5.99181e-07
-1.61935e-05
2.98661e-07
-1.62286e-05
3.51905e-08
-1.6205e-05
-2.36098e-08
-1.62163e-05
1.13404e-08
-1.62827e-05
6.63607e-08
-1.64583e-05
1.75619e-07
-1.68524e-05
3.94058e-07
-1.75049e-05
6.52533e-07
-1.8193e-05
6.88153e-07
-1.88996e-05
7.06542e-07
-1.96676e-05
7.68033e-07
-2.02111e-05
5.4349e-07
-2.02251e-05
1.40513e-08
-2.00845e-05
-1.40564e-07
-2.01684e-05
8.38457e-08
-2.03557e-05
1.873e-07
-2.05684e-05
2.12685e-07
-2.07206e-05
1.52271e-07
-2.07505e-05
2.98703e-08
-2.0599e-05
-1.51501e-07
-2.0379e-05
-2.20041e-07
-2.00815e-05
-2.97498e-07
-1.97243e-05
-3.57185e-07
-1.93781e-05
-3.46253e-07
-1.88437e-05
-5.34388e-07
-1.81392e-05
-7.04498e-07
-1.70057e-05
-1.13354e-06
-1.61119e-05
-8.93814e-07
-1.5801e-05
-3.10825e-07
-1.57335e-05
-6.75233e-08
-1.58315e-05
9.7973e-08
-1.5809e-05
-2.25204e-08
-1.59426e-05
1.33579e-07
-1.60407e-05
9.80737e-08
-1.60058e-05
-3.48833e-08
-1.59942e-05
-1.16366e-08
-1.59753e-05
-1.88675e-08
-1.59303e-05
-4.50649e-08
-1.58796e-05
-5.06661e-08
-1.58087e-05
-7.08924e-08
-1.57198e-05
-8.88924e-08
-1.56241e-05
-9.57047e-08
-1.5514e-05
-1.10136e-07
-1.53797e-05
-1.34299e-07
-1.52364e-05
-1.43278e-07
-1.50795e-05
-1.56865e-07
-1.49043e-05
-1.75282e-07
-1.47146e-05
-1.89675e-07
-1.4512e-05
-2.02585e-07
-1.42986e-05
-2.13416e-07
-1.40749e-05
-2.23707e-07
-1.38407e-05
-2.34151e-07
-1.35931e-05
-2.47616e-07
-1.33293e-05
-2.63746e-07
-1.30614e-05
-2.67869e-07
-1.2794e-05
-2.67444e-07
-1.25149e-05
-2.79065e-07
-1.22195e-05
-2.95401e-07
-1.19041e-05
-3.1546e-07
-1.15719e-05
-3.32196e-07
-1.1236e-05
-3.35877e-07
-1.09027e-05
-3.33345e-07
-1.05626e-05
-3.40105e-07
-1.02008e-05
-3.61776e-07
-9.81805e-06
-3.82743e-07
-9.42381e-06
-3.9424e-07
-9.02441e-06
-3.99411e-07
-8.61946e-06
-4.04955e-07
-8.20701e-06
-4.12461e-07
-7.78297e-06
-4.24045e-07
-7.35005e-06
-4.32926e-07
-6.90797e-06
-4.4208e-07
-6.45546e-06
-4.52515e-07
-5.99222e-06
-4.63244e-07
-5.52468e-06
-4.67542e-07
-5.06178e-06
-4.62898e-07
-4.59405e-06
-4.67721e-07
-4.11365e-06
-4.80396e-07
-3.62985e-06
-4.83789e-07
-3.15448e-06
-4.75348e-07
-2.68379e-06
-4.70671e-07
-2.20567e-06
-4.78097e-07
-1.7219e-06
-4.83746e-07
-1.24317e-06
-4.78707e-07
-7.78281e-07
-4.64863e-07
-3.22985e-07
-4.55272e-07
1.34735e-07
-4.57697e-07
5.92161e-07
-4.57409e-07
1.04053e-06
-4.48356e-07
1.47734e-06
-4.36809e-07
1.90759e-06
-4.30246e-07
2.33608e-06
-4.28488e-07
2.75385e-06
-4.17779e-07
3.15898e-06
-4.05135e-07
3.55865e-06
-3.99681e-07
3.95857e-06
-3.99924e-07
4.35648e-06
-3.97917e-07
4.74446e-06
-3.87992e-07
5.12088e-06
-3.76429e-07
5.48749e-06
-3.66614e-07
5.84798e-06
-3.60504e-07
6.20405e-06
-3.56076e-07
6.5553e-06
-3.51258e-07
6.89834e-06
-3.43044e-07
7.22937e-06
-3.3103e-07
7.55051e-06
-3.21139e-07
7.86344e-06
-3.12915e-07
8.17054e-06
-3.07087e-07
8.47394e-06
-3.03385e-07
8.77112e-06
-2.97165e-07
9.05727e-06
-2.86125e-07
9.3292e-06
-2.71902e-07
9.59063e-06
-2.61394e-07
9.84516e-06
-2.5449e-07
1.00951e-05
-2.49918e-07
1.03378e-05
-2.42657e-07
1.05694e-05
-2.31594e-07
1.07888e-05
-2.1933e-07
1.09976e-05
-2.08814e-07
1.12001e-05
-2.02464e-07
1.1395e-05
-1.94871e-07
1.15772e-05
-1.82124e-07
1.17446e-05
-1.67387e-07
1.19036e-05
-1.58966e-07
1.20571e-05
-1.53525e-07
1.22034e-05
-1.46268e-07
1.23383e-05
-1.34914e-07
1.24571e-05
-1.18815e-07
1.25622e-05
-1.05044e-07
1.26584e-05
-9.61996e-08
1.2749e-05
-9.06364e-08
1.28325e-05
-8.33972e-08
1.29053e-05
-7.27817e-08
1.29631e-05
-5.78179e-08
1.30068e-05
-4.37414e-08
1.30407e-05
-3.38258e-08
1.30658e-05
-2.51497e-08
1.30836e-05
-1.77698e-08
1.30934e-05
-9.76468e-09
1.30916e-05
1.77505e-09
1.30749e-05
1.66963e-08
1.30473e-05
2.761e-08
1.30119e-05
3.5378e-08
1.29682e-05
4.3703e-08
1.29171e-05
5.11565e-08
1.28576e-05
5.9519e-08
1.27875e-05
7.00448e-08
1.27064e-05
8.11126e-08
1.26168e-05
8.96052e-08
1.25198e-05
9.70481e-08
1.24136e-05
1.06186e-07
1.22986e-05
1.14987e-07
1.21774e-05
1.2119e-07
1.20518e-05
1.25643e-07
1.192e-05
1.31736e-07
1.17811e-05
1.38973e-07
1.16305e-05
1.50544e-07
1.14721e-05
1.58405e-07
1.13138e-05
1.5837e-07
1.11526e-05
1.6118e-07
1.09859e-05
1.6678e-07
1.08125e-05
1.73361e-07
1.06324e-05
1.8014e-07
1.04487e-05
1.83792e-07
1.02627e-05
1.85965e-07
1.00744e-05
1.88371e-07
9.88437e-06
1.90098e-07
9.69128e-06
1.93153e-07
9.49444e-06
1.96903e-07
9.2952e-06
1.99307e-07
9.09518e-06
2.00072e-07
8.89647e-06
1.98764e-07
8.69819e-06
1.98321e-07
8.49757e-06
2.00661e-07
8.29328e-06
2.0432e-07
8.08616e-06
2.07137e-07
7.88026e-06
2.05911e-07
7.68006e-06
2.00212e-07
7.48209e-06
1.97977e-07
7.28438e-06
1.97706e-07
7.08664e-06
1.97744e-07
6.88686e-06
1.99795e-07
6.68611e-06
2.00768e-07
6.48857e-06
1.97573e-07
6.29477e-06
1.93832e-07
6.10294e-06
1.91883e-07
5.91292e-06
1.90075e-07
5.72511e-06
1.87856e-07
5.54007e-06
1.85067e-07
5.35724e-06
1.82844e-07
5.17368e-06
1.83545e-07
4.98936e-06
1.84285e-07
4.80923e-06
1.80085e-07
4.63452e-06
1.74653e-07
4.46294e-06
1.71523e-07
4.29336e-06
1.69527e-07
4.12577e-06
1.67548e-07
3.95914e-06
1.66605e-07
3.79303e-06
1.66087e-07
3.62988e-06
1.63156e-07
3.47133e-06
1.58554e-07
3.31674e-06
1.54618e-07
3.16503e-06
1.51734e-07
3.01568e-06
1.49382e-07
2.86691e-06
1.48803e-07
2.72004e-06
1.46897e-07
2.57798e-06
1.42082e-07
2.43962e-06
1.38369e-07
2.3049e-06
1.34714e-07
2.17428e-06
1.30605e-07
2.04519e-06
1.29075e-07
1.91879e-06
1.26374e-07
1.79769e-06
1.21081e-07
1.68117e-06
1.16517e-07
1.5689e-06
1.1226e-07
1.45961e-06
1.09296e-07
1.35475e-06
1.04869e-07
1.25519e-06
9.95775e-08
1.16129e-06
9.39169e-08
1.07238e-06
8.89242e-08
9.86306e-07
8.60885e-08
9.03444e-07
8.28723e-08
8.2543e-07
7.80207e-08
7.53646e-07
7.17871e-08
6.87038e-07
6.66089e-08
6.23371e-07
6.36655e-08
5.62674e-07
6.0695e-08
5.0613e-07
5.65415e-08
4.53186e-07
5.29403e-08
4.03367e-07
4.98135e-08
3.55114e-07
4.82464e-08
3.07611e-07
4.74951e-08
2.62087e-07
4.55147e-08
2.18511e-07
4.35635e-08
1.75469e-07
4.3028e-08
1.31237e-07
4.42161e-08
8.57183e-08
4.55035e-08
4.04178e-08
4.52854e-08
-4.48827e-09
4.48925e-08
-4.99011e-08
4.54015e-08
-9.70092e-08
4.70994e-08
-1.46434e-07
4.94182e-08
-1.96393e-07
4.99554e-08
-2.45372e-07
4.89755e-08
-2.92919e-07
4.75461e-08
-3.39342e-07
4.64213e-08
-3.8494e-07
4.55974e-08
-4.29693e-07
4.47513e-08
-4.7346e-07
4.37642e-08
-5.1513e-07
4.16663e-08
-5.53993e-07
3.8858e-08
-5.90041e-07
3.6042e-08
-6.23332e-07
3.32835e-08
-6.5452e-07
3.11802e-08
-6.83396e-07
2.88677e-08
-7.08764e-07
2.53597e-08
-7.30183e-07
2.14118e-08
-7.47813e-07
1.7623e-08
-7.62319e-07
1.45007e-08
-7.74011e-07
1.16878e-08
-7.82479e-07
8.4648e-09
-7.86894e-07
4.41207e-09
-7.87222e-07
3.26902e-10
-7.84449e-07
-2.77385e-09
-7.7859e-07
-5.8601e-09
-7.6909e-07
-9.50037e-09
-7.55961e-07
-1.31292e-08
-7.39491e-07
-1.64701e-08
-7.19867e-07
-1.96236e-08
-6.97046e-07
-2.28208e-08
-6.71151e-07
-2.58934e-08
-6.42337e-07
-2.88121e-08
-6.10732e-07
-3.16027e-08
-5.76704e-07
-3.40245e-08
-5.40393e-07
-3.63055e-08
-5.01856e-07
-3.85322e-08
-4.60951e-07
-4.08994e-08
-4.17821e-07
-4.31248e-08
-3.72731e-07
-4.50849e-08
-3.26102e-07
-4.66228e-08
-2.78119e-07
-4.79771e-08
-2.287e-07
-4.94126e-08
-1.77757e-07
-5.09351e-08
-1.25512e-07
-5.22374e-08
-7.23762e-08
-5.31276e-08
-1.85517e-08
-5.38164e-08
3.59282e-08
-5.44717e-08
9.09211e-08
-5.49848e-08
1.46119e-07
-5.51904e-08
2.01329e-07
-5.5202e-08
2.56789e-07
-5.54535e-08
3.12542e-07
-5.57481e-08
3.68512e-07
-5.59664e-08
4.24322e-07
-5.58077e-08
4.79826e-07
-5.55024e-08
5.34897e-07
-5.50692e-08
5.89327e-07
-5.44282e-08
6.43324e-07
-5.39935e-08
6.96963e-07
-5.36346e-08
7.50026e-07
-5.30572e-08
8.02003e-07
-5.19726e-08
8.53129e-07
-5.11203e-08
9.03578e-07
-5.04439e-08
9.53257e-07
-4.96744e-08
1.00185e-06
-4.85877e-08
1.04951e-06
-4.7658e-08
1.09606e-06
-4.65494e-08
1.14125e-06
-4.51874e-08
1.18513e-06
-4.38847e-08
1.22784e-06
-4.27102e-08
1.26959e-06
-4.17568e-08
1.31044e-06
-4.08489e-08
1.35017e-06
-3.97306e-08
1.38847e-06
-3.83045e-08
1.42593e-06
-3.74658e-08
1.46173e-06
-3.57991e-08
1.49744e-06
-3.57119e-08
1.53198e-06
-3.45379e-08
1.56631e-06
-3.43316e-08
1.59939e-06
-3.30904e-08
1.63116e-06
-3.17664e-08
1.6618e-06
-3.06462e-08
1.69017e-06
-2.8367e-08
1.71913e-06
-2.89686e-08
1.74656e-06
-2.74277e-08
1.77169e-06
-2.51353e-08
1.79606e-06
-2.4367e-08
1.81538e-06
-1.93246e-08
1.83015e-06
-1.47696e-08
1.85225e-06
-2.20985e-08
1.87193e-06
-1.96878e-08
1.88915e-06
-1.72151e-08
1.91199e-06
-2.28488e-08
1.90203e-06
9.96267e-09
1.88025e-06
2.17798e-08
1.90281e-06
-2.25613e-08
1.90137e-06
1.44125e-09
1.94193e-06
-4.05646e-08
2.01999e-06
-7.80574e-08
2.22902e-06
-2.09029e-07
2.49344e-06
-2.64423e-07
2.65971e-06
-1.66272e-07
2.78757e-06
-1.2786e-07
2.86787e-06
-8.02984e-08
2.9267e-06
-5.88258e-08
2.96818e-06
-4.14802e-08
3.00823e-06
-4.00484e-08
3.04342e-06
-3.51925e-08
3.07481e-06
-3.13924e-08
3.09557e-06
-2.07555e-08
3.12101e-06
-2.54408e-08
3.1028e-06
1.82106e-08
3.06859e-06
3.42089e-08
3.08301e-06
-1.44232e-08
3.074e-06
9.00268e-09
3.11093e-06
-3.6927e-08
3.19438e-06
-8.34547e-08
3.42406e-06
-2.29671e-07
3.71008e-06
-2.86027e-07
3.88718e-06
-1.77097e-07
4.03027e-06
-1.43093e-07
4.11345e-06
-8.31863e-08
4.18167e-06
-6.82187e-08
4.22938e-06
-4.77168e-08
4.26553e-06
-3.61514e-08
4.28556e-06
-2.00392e-08
4.28639e-06
-8.35496e-10
4.28559e-06
7.90066e-10
4.28474e-06
8.44166e-10
4.27633e-06
8.39811e-09
4.28734e-06
-1.10242e-08
4.26289e-06
2.44346e-08
4.1363e-06
1.26575e-07
4.03407e-06
1.0222e-07
3.97292e-06
6.11401e-08
3.91518e-06
5.77457e-08
4.11809e-06
-2.02871e-07
4.48854e-06
-3.70359e-07
5.46731e-06
-9.78615e-07
6.68448e-06
-1.2169e-06
7.62281e-06
-9.37844e-07
8.27734e-06
-6.54081e-07
8.74411e-06
-4.66367e-07
9.08747e-06
-3.42995e-07
9.34934e-06
-2.61538e-07
9.55642e-06
-2.06783e-07
9.72044e-06
-1.63745e-07
9.85371e-06
-1.33021e-07
9.96455e-06
-1.10619e-07
1.00598e-05
-9.5092e-08
1.0139e-05
-7.89297e-08
1.02056e-05
-6.64372e-08
1.02646e-05
-5.88388e-08
1.03138e-05
-4.91529e-08
1.03555e-05
-4.1582e-08
1.03933e-05
-3.76726e-08
1.04237e-05
-3.02692e-08
1.04488e-05
-2.49782e-08
1.04704e-05
-2.1581e-08
1.04907e-05
-2.01467e-08
1.05052e-05
-1.4466e-08
1.05151e-05
-9.86459e-09
1.05225e-05
-7.33771e-09
1.05279e-05
-5.30154e-09
1.05312e-05
-3.29373e-09
1.05324e-05
-1.13549e-09
1.05315e-05
9.17968e-10
1.05289e-05
2.73824e-09
1.0524e-05
4.94221e-09
1.05171e-05
6.86811e-09
1.05072e-05
9.96134e-09
1.04993e-05
7.9811e-09
1.04919e-05
7.42321e-09
1.04835e-05
8.41259e-09
1.04739e-05
9.68406e-09
1.04628e-05
1.11095e-08
1.04501e-05
1.27402e-08
1.04363e-05
1.38995e-08
1.04216e-05
1.47141e-08
1.0406e-05
1.56992e-08
1.03893e-05
1.67815e-08
1.03715e-05
1.78197e-08
1.03531e-05
1.85594e-08
1.03356e-05
1.74886e-08
1.03142e-05
2.15627e-08
1.02905e-05
2.37483e-08
1.02664e-05
2.41773e-08
1.02423e-05
2.42535e-08
1.02179e-05
2.45058e-08
1.01936e-05
2.4429e-08
1.01691e-05
2.45505e-08
1.01444e-05
2.48876e-08
1.01191e-05
2.54506e-08
1.0093e-05
2.62619e-08
1.0066e-05
2.7092e-08
1.00385e-05
2.76783e-08
1.00108e-05
2.78443e-08
9.98327e-06
2.7745e-08
9.95549e-06
2.79596e-08
9.92698e-06
2.87101e-08
9.89732e-06
2.98605e-08
9.86667e-06
3.08617e-08
9.83601e-06
3.08733e-08
9.80591e-06
3.03306e-08
9.77585e-06
3.03004e-08
9.74472e-06
3.13668e-08
9.71241e-06
3.25568e-08
9.68037e-06
3.23002e-08
9.64898e-06
3.16561e-08
9.61742e-06
3.18226e-08
9.58376e-06
3.39371e-08
9.55366e-06
3.03889e-08
9.52558e-06
2.83597e-08
9.49919e-06
2.66823e-08
9.46823e-06
3.12587e-08
9.43518e-06
3.3349e-08
9.40203e-06
3.34463e-08
9.36822e-06
3.40827e-08
9.3343e-06
3.41646e-08
3.60556e-08
-0.000105394
5.10795e-06
-0.00010582
1.87362e-06
-0.000105869
1.74661e-06
-0.00010543
7.26598e-07
-0.000104335
-1.39668e-06
-0.000102201
-4.28853e-06
-9.90066e-05
-7.60642e-06
-9.549e-05
-9.61287e-06
-9.22415e-05
-1.00355e-05
-8.91739e-05
-9.44048e-06
-8.64646e-05
-8.48522e-06
-8.39969e-05
-7.98907e-06
-8.21555e-05
-7.81202e-06
-8.10042e-05
-7.34691e-06
-8.01171e-05
-6.52449e-06
-7.91697e-05
-5.60907e-06
-7.8506e-05
-4.07938e-06
-7.86011e-05
-1.33096e-06
-8.00498e-05
2.06081e-06
-8.22289e-05
4.89841e-06
-8.39573e-05
6.0783e-06
-8.404e-05
6.764e-06
-8.24075e-05
6.83415e-06
-8.12222e-05
5.02239e-06
-8.14904e-05
2.94654e-06
-8.20654e-05
2.11277e-06
-8.24903e-05
1.59343e-06
-8.27632e-05
9.46578e-07
-8.29585e-05
1.7104e-07
-8.30196e-05
-4.15004e-07
-8.28395e-05
-7.82781e-07
-8.23757e-05
-9.66819e-07
-8.17905e-05
-8.42537e-07
-8.13675e-05
-5.04641e-07
-8.1125e-05
-3.27227e-07
-8.10413e-05
-4.21918e-07
-8.08975e-05
-5.71608e-07
-8.05159e-05
-6.35349e-07
-7.99296e-05
-6.81958e-07
-7.91454e-05
-1.0429e-06
-7.82319e-05
-1.80263e-06
-7.72991e-05
-2.38382e-06
-7.62863e-05
-2.50309e-06
-7.52047e-05
-2.20974e-06
-7.42053e-05
-1.56771e-06
-7.33882e-05
-1.04339e-06
-7.26135e-05
-1.04285e-06
-7.17414e-05
-1.71382e-06
-7.06543e-05
-2.50934e-06
-6.94124e-05
-2.77828e-06
-6.81868e-05
-2.5682e-06
-6.70501e-05
-2.09213e-06
-6.60754e-05
-1.68484e-06
-6.52452e-05
-1.56882e-06
-6.44414e-05
-1.83912e-06
-6.34876e-05
-2.20741e-06
-6.23472e-05
-2.43269e-06
-6.1039e-05
-2.65675e-06
-5.95949e-05
-2.89631e-06
-5.80993e-05
-3.19792e-06
-5.6648e-05
-3.3765e-06
-5.52723e-05
-3.12547e-06
-5.40133e-05
-2.56233e-06
-5.27895e-05
-2.09694e-06
-5.13488e-05
-2.22444e-06
-4.97819e-05
-2.74432e-06
-4.82861e-05
-2.93739e-06
-4.70934e-05
-2.497e-06
-4.60141e-05
-2.06357e-06
-4.49249e-05
-2.15621e-06
-4.37575e-05
-2.56804e-06
-4.23859e-05
-3.32231e-06
-4.0686e-05
-4.11492e-06
-3.88169e-05
-4.77732e-06
-3.69938e-05
-5.20737e-06
-3.55472e-05
-5.39351e-06
-3.44187e-05
-5.82488e-06
-3.39461e-05
-6.8919e-06
-3.21852e-05
-7.24539e-06
-2.75933e-05
-6.9204e-06
-2.1301e-05
-7.95367e-06
-1.508e-05
-6.17771e-06
-1.19515e-05
-3.15149e-06
-9.32975e-06
-1.95793e-06
-8.41608e-06
2.81077e-07
-7.95612e-06
6.87576e-07
-8.13904e-06
1.55535e-06
-9.48501e-06
2.53872e-06
-1.14756e-05
2.94694e-06
-1.30207e-05
2.14433e-06
-1.4425e-05
1.70294e-06
-1.53233e-05
9.33548e-07
-1.58081e-05
4.61194e-07
-1.59606e-05
1.63868e-07
-1.59834e-05
8.91147e-08
-1.59628e-05
1.55056e-07
-1.59025e-05
3.33784e-07
-1.57712e-05
5.21249e-07
-1.59019e-05
8.18775e-07
-1.69447e-05
1.74942e-06
-1.83606e-05
2.18394e-06
-1.92056e-05
1.38848e-06
-1.99157e-05
7.24083e-07
-2.08488e-05
7.92572e-07
-2.13092e-05
5.44219e-07
-2.11009e-05
-2.10104e-08
-2.077e-05
-1.18264e-07
-2.05128e-05
-1.04929e-07
-2.03557e-05
-1.27274e-07
-2.03833e-05
-1.2389e-07
-2.0439e-05
-1.64297e-07
-2.04008e-05
-3.35746e-07
-2.02433e-05
-5.14702e-07
-2.00346e-05
-5.54945e-07
-1.9792e-05
-7.76994e-07
-1.95765e-05
-9.2e-07
-1.95918e-05
-1.11818e-06
-1.93549e-05
-1.13078e-06
-1.86907e-05
-9.74987e-07
-1.76132e-05
-1.14499e-06
-1.66774e-05
-8.37889e-07
-1.62676e-05
-4.32329e-07
-1.59976e-05
-1.36365e-07
-1.59213e-05
2.17482e-08
-1.58669e-05
-8.9295e-08
-1.59663e-05
8.78214e-08
-1.60422e-05
5.70439e-08
-1.59721e-05
-1.15174e-07
-1.58982e-05
-1.24611e-07
-1.58186e-05
-1.50501e-07
-1.57296e-05
-1.77893e-07
-1.56385e-05
-1.86804e-07
-1.55349e-05
-2.13745e-07
-1.54027e-05
-2.66414e-07
-1.52583e-05
-2.87745e-07
-1.50893e-05
-3.25786e-07
-1.49096e-05
-3.55004e-07
-1.47186e-05
-3.80657e-07
-1.45193e-05
-4.01885e-07
-1.43099e-05
-4.22833e-07
-1.40895e-05
-4.44081e-07
-1.38544e-05
-4.69266e-07
-1.36077e-05
-4.94306e-07
-1.33487e-05
-5.22674e-07
-1.30823e-05
-5.3424e-07
-1.28083e-05
-5.41449e-07
-1.2523e-05
-5.64403e-07
-1.22219e-05
-5.96507e-07
-1.19072e-05
-6.30117e-07
-1.15844e-05
-6.55037e-07
-1.12591e-05
-6.61137e-07
-1.09223e-05
-6.70103e-07
-1.05718e-05
-6.90698e-07
-1.02043e-05
-7.29209e-07
-9.82283e-06
-7.64271e-07
-9.43684e-06
-7.80248e-07
-9.04846e-06
-7.87808e-07
-8.64839e-06
-8.05055e-07
-8.22949e-06
-8.31382e-07
-7.79632e-06
-8.57236e-07
-7.35924e-06
-8.7003e-07
-6.921e-06
-8.80335e-07
-6.47544e-06
-8.98078e-07
-6.01761e-06
-9.21075e-07
-5.55404e-06
-9.31115e-07
-5.09096e-06
-9.25962e-07
-4.62236e-06
-9.3631e-07
-4.14418e-06
-9.58559e-07
-3.66388e-06
-9.64069e-07
-3.18957e-06
-9.49633e-07
-2.71672e-06
-9.43489e-07
-2.24044e-06
-9.54351e-07
-1.76089e-06
-9.63269e-07
-1.28648e-06
-9.53094e-07
-8.20824e-07
-9.30497e-07
-3.59669e-07
-9.16414e-07
9.74754e-08
-9.14837e-07
5.51402e-07
-9.11338e-07
9.99144e-07
-8.96109e-07
1.44054e-06
-8.78226e-07
1.87796e-06
-8.67686e-07
2.30729e-06
-8.57837e-07
2.72562e-06
-8.36138e-07
3.13571e-06
-8.15259e-07
3.53883e-06
-8.02829e-07
3.9381e-06
-7.99226e-07
4.33428e-06
-7.94133e-07
4.72483e-06
-7.78574e-07
5.10771e-06
-7.5934e-07
5.47899e-06
-7.37928e-07
5.83901e-06
-7.20551e-07
6.19179e-06
-7.08888e-07
6.54011e-06
-6.99603e-07
6.88422e-06
-6.87169e-07
7.22171e-06
-6.68536e-07
7.54896e-06
-6.48396e-07
7.86422e-06
-6.28172e-07
8.17056e-06
-6.13418e-07
8.47219e-06
-6.05001e-07
8.76804e-06
-5.92993e-07
9.05357e-06
-5.71619e-07
9.32768e-06
-5.45985e-07
9.59338e-06
-5.27054e-07
9.85217e-06
-5.13242e-07
1.01026e-05
-5.00342e-07
1.03433e-05
-4.83306e-07
1.05732e-05
-4.61426e-07
1.07935e-05
-4.39581e-07
1.10057e-05
-4.21082e-07
1.12098e-05
-4.0652e-07
1.14033e-05
-3.88333e-07
1.15836e-05
-3.62439e-07
1.17535e-05
-3.3726e-07
1.19156e-05
-3.21111e-07
1.20695e-05
-3.07354e-07
1.22135e-05
-2.90286e-07
1.23469e-05
-2.68334e-07
1.2468e-05
-2.39954e-07
1.25767e-05
-2.13677e-07
1.26745e-05
-1.94034e-07
1.27643e-05
-1.80405e-07
1.28453e-05
-1.64406e-07
1.29157e-05
-1.43215e-07
1.29746e-05
-1.16731e-07
1.30214e-05
-9.05803e-08
1.3057e-05
-6.9422e-08
1.30825e-05
-5.06355e-08
1.30987e-05
-3.40046e-08
1.31054e-05
-1.65016e-08
1.31022e-05
4.9934e-09
1.30874e-05
3.15241e-08
1.30615e-05
5.34968e-08
1.30261e-05
7.07098e-08
1.29825e-05
8.72674e-08
1.29311e-05
1.02618e-07
1.28708e-05
1.19724e-07
1.28003e-05
1.40514e-07
1.27183e-05
1.63111e-07
1.26265e-05
1.81384e-07
1.25273e-05
1.963e-07
1.24213e-05
2.12202e-07
1.23094e-05
2.26875e-07
1.21898e-05
2.40785e-07
1.2062e-05
2.53436e-07
1.19269e-05
2.66877e-07
1.17848e-05
2.81091e-07
1.1635e-05
3.00323e-07
1.148e-05
3.13387e-07
1.13211e-05
3.17277e-07
1.11577e-05
3.2466e-07
1.09883e-05
3.36174e-07
1.08126e-05
3.49195e-07
1.06328e-05
3.59941e-07
1.04512e-05
3.65495e-07
1.0267e-05
3.70186e-07
1.00788e-05
3.76615e-07
9.88667e-06
3.82342e-07
9.68999e-06
3.89909e-07
9.49057e-06
3.96397e-07
9.29273e-06
3.97214e-07
9.09509e-06
3.97775e-07
8.89596e-06
3.97947e-07
8.69546e-06
3.98867e-07
8.49285e-06
4.03306e-07
8.28815e-06
4.09042e-07
8.08315e-06
4.12161e-07
7.87954e-06
4.09533e-07
7.67843e-06
4.01343e-07
7.47848e-06
3.97943e-07
7.27882e-06
3.97386e-07
7.07912e-06
3.9747e-07
6.8801e-06
3.98864e-07
6.68271e-06
3.98206e-07
6.48666e-06
3.9369e-07
6.29167e-06
3.88882e-07
6.09845e-06
3.85168e-07
5.90796e-06
3.80623e-07
5.72017e-06
3.75679e-07
5.53492e-06
3.70338e-07
5.3513e-06
3.66451e-07
5.16785e-06
3.66965e-07
4.98581e-06
3.66266e-07
4.80731e-06
3.58531e-07
4.6326e-06
3.49307e-07
4.46013e-06
3.43939e-07
4.28905e-06
3.4057e-07
4.12019e-06
3.3639e-07
3.95418e-06
3.32619e-07
3.79071e-06
3.29573e-07
3.6299e-06
3.23996e-07
3.4719e-06
3.16589e-07
3.31616e-06
3.10409e-07
3.16278e-06
3.05155e-07
3.01277e-06
2.99442e-07
2.86605e-06
2.95551e-07
2.72251e-06
2.90462e-07
2.58153e-06
2.83075e-07
2.44197e-06
2.77923e-07
2.30555e-06
2.71126e-07
2.1744e-06
2.61752e-07
2.04789e-06
2.55572e-07
1.92464e-06
2.49614e-07
1.80324e-06
2.42473e-07
1.68487e-06
2.34899e-07
1.57275e-06
2.24396e-07
1.46587e-06
2.16196e-07
1.36228e-06
2.08487e-07
1.26191e-06
1.99975e-07
1.16643e-06
1.89417e-07
1.0763e-06
1.79085e-07
9.90823e-07
1.71582e-07
9.09455e-07
1.64255e-07
8.31105e-07
1.56382e-07
7.57267e-07
1.45632e-07
6.88816e-07
1.35065e-07
6.2483e-07
1.27655e-07
5.64336e-07
1.21189e-07
5.06216e-07
1.1466e-07
4.50191e-07
1.08961e-07
3.97181e-07
1.02816e-07
3.47228e-07
9.81873e-08
2.99527e-07
9.51793e-08
2.53018e-07
9.2004e-08
2.06853e-07
8.97067e-08
1.60507e-07
8.93494e-08
1.14475e-07
9.02252e-08
6.88695e-08
9.10861e-08
2.32813e-08
9.08539e-08
-2.27658e-08
9.09232e-08
-6.98339e-08
9.24569e-08
-1.17627e-07
9.48829e-08
-1.65816e-07
9.76013e-08
-2.14314e-07
9.84483e-08
-2.6251e-07
9.71692e-08
-3.1013e-07
9.51635e-08
-3.5707e-07
9.33587e-08
-4.02804e-07
9.13276e-08
-4.46881e-07
8.88229e-08
-4.89341e-07
8.62168e-08
-5.30189e-07
8.25058e-08
-5.69126e-07
7.77844e-08
-6.05514e-07
7.24182e-08
-6.39191e-07
6.69476e-08
-6.70354e-07
6.23294e-08
-6.98244e-07
5.67447e-08
-7.22662e-07
4.97658e-08
-7.43889e-07
4.26278e-08
-7.61844e-07
3.55687e-08
-7.76443e-07
2.90924e-08
-7.8749e-07
2.27285e-08
-7.94931e-07
1.59014e-08
-7.98824e-07
8.30248e-09
-7.99191e-07
6.92222e-10
-7.95965e-07
-6.00023e-09
-7.89235e-07
-1.2589e-08
-7.79258e-07
-1.94763e-08
-7.66109e-07
-2.62755e-08
-7.49541e-07
-3.30346e-08
-7.29526e-07
-3.96344e-08
-7.0629e-07
-4.60515e-08
-6.80088e-07
-5.20887e-08
-6.51086e-07
-5.78068e-08
-6.19236e-07
-6.34454e-08
-5.84695e-07
-6.85561e-08
-5.47635e-07
-7.3357e-08
-5.08237e-07
-7.792e-08
-4.66747e-07
-8.23797e-08
-4.23238e-07
-8.66233e-08
-3.77907e-07
-9.04044e-08
-3.30891e-07
-9.36278e-08
-2.82338e-07
-9.65191e-08
-2.32396e-07
-9.93433e-08
-1.81108e-07
-1.02212e-07
-1.28582e-07
-1.04751e-07
-7.51068e-08
-1.0659e-07
-2.09232e-08
-1.07987e-07
3.37386e-08
-1.09121e-07
8.89572e-08
-1.10191e-07
1.44701e-07
-1.10922e-07
2.00766e-07
-1.11256e-07
2.56894e-07
-1.11571e-07
3.12966e-07
-1.1181e-07
3.69097e-07
-1.12089e-07
4.25044e-07
-1.11746e-07
4.80694e-07
-1.11145e-07
5.35921e-07
-1.10289e-07
5.9079e-07
-1.09291e-07
6.45194e-07
-1.08391e-07
6.98992e-07
-1.07427e-07
7.51993e-07
-1.06055e-07
8.04392e-07
-1.04367e-07
8.56043e-07
-1.02769e-07
9.06831e-07
-1.0123e-07
9.56381e-07
-9.92235e-08
1.00498e-06
-9.71833e-08
1.05253e-06
-9.52135e-08
1.09919e-06
-9.32131e-08
1.14471e-06
-9.07028e-08
1.18919e-06
-8.83744e-08
1.23194e-06
-8.54664e-08
1.2738e-06
-8.36187e-08
1.31424e-06
-8.12898e-08
1.35383e-06
-7.93263e-08
1.39203e-06
-7.65033e-08
1.42984e-06
-7.5283e-08
1.46556e-06
-7.1527e-08
1.50088e-06
-7.10332e-08
1.53399e-06
-6.76503e-08
1.56649e-06
-6.68405e-08
1.59988e-06
-6.64847e-08
1.63233e-06
-6.42159e-08
1.66593e-06
-6.42551e-08
1.69588e-06
-5.83161e-08
1.72537e-06
-5.84679e-08
1.74824e-06
-5.03033e-08
1.76782e-06
-4.47166e-08
1.79483e-06
-5.13827e-08
1.82362e-06
-4.81166e-08
1.85175e-06
-4.29034e-08
1.87892e-06
-4.92785e-08
1.86918e-06
-9.95009e-09
1.84647e-06
5.494e-09
1.87088e-06
-4.72634e-08
1.90529e-06
-2.44528e-08
1.9905e-06
-6.34293e-08
2.09161e-06
-1.23678e-07
2.31393e-06
-2.20872e-07
2.57351e-06
-3.00156e-07
2.73776e-06
-2.4231e-07
2.81587e-06
-2.87136e-07
2.82372e-06
-2.72277e-07
2.85672e-06
-1.99268e-07
2.88261e-06
-1.53757e-07
2.92787e-06
-1.25554e-07
2.96884e-06
-9.97971e-08
3.01642e-06
-8.90606e-08
3.05612e-06
-7.97483e-08
3.09148e-06
-7.05527e-08
3.08288e-06
-2.27884e-08
3.0551e-06
7.02309e-09
3.08106e-06
-5.14058e-08
3.11907e-06
-1.98002e-08
3.21749e-06
-6.42143e-08
3.33472e-06
-1.31658e-07
3.58633e-06
-2.42606e-07
3.87297e-06
-3.23562e-07
4.05133e-06
-2.61813e-07
4.13202e-06
-3.10356e-07
4.13507e-06
-2.89076e-07
4.17097e-06
-2.13002e-07
4.19659e-06
-1.68711e-07
4.22733e-06
-1.13923e-07
4.23444e-06
-7.53188e-08
4.24742e-06
-6.06978e-08
4.2655e-06
-5.42332e-08
4.29522e-06
-4.97555e-08
4.32752e-06
-3.31314e-08
4.37572e-06
-4.74062e-08
4.37686e-06
-2.93163e-10
4.25659e-06
1.28683e-07
4.14392e-06
1.01649e-07
4.10901e-06
5.93568e-08
4.17835e-06
5.72362e-08
4.52475e-06
-2.44186e-07
5.07772e-06
-4.91862e-07
6.20019e-06
-1.0648e-06
7.33858e-06
-1.34145e-06
8.18444e-06
-1.21658e-06
8.59342e-06
-1.38809e-06
8.69042e-06
-1.31462e-06
8.85784e-06
-1.10597e-06
9.04075e-06
-8.37645e-07
9.22339e-06
-6.49608e-07
9.39487e-06
-5.15036e-07
9.55054e-06
-4.17712e-07
9.69002e-06
-3.46721e-07
9.81285e-06
-2.86995e-07
9.91979e-06
-2.40342e-07
1.00147e-05
-2.05871e-07
1.00973e-05
-1.77989e-07
1.01685e-05
-1.50425e-07
1.02305e-05
-1.28645e-07
1.02847e-05
-1.13314e-07
1.03317e-05
-9.63184e-08
1.03723e-05
-8.24434e-08
1.04079e-05
-7.33875e-08
1.04383e-05
-6.08562e-08
1.04644e-05
-5.12125e-08
1.04866e-05
-4.39043e-08
1.05053e-05
-3.89815e-08
1.05201e-05
-2.94343e-08
1.05316e-05
-2.14288e-08
1.05403e-05
-1.61416e-08
1.05464e-05
-1.14786e-08
1.05498e-05
-6.79976e-09
1.05512e-05
-2.61094e-09
1.05505e-05
1.56631e-09
1.05478e-05
5.31174e-09
1.05431e-05
9.57388e-09
1.05368e-05
1.30554e-08
1.05292e-05
1.75183e-08
1.05206e-05
1.64665e-08
1.0511e-05
1.69879e-08
1.05003e-05
1.90172e-08
1.04886e-05
2.13093e-08
1.04758e-05
2.38018e-08
1.04624e-05
2.60249e-08
1.04478e-05
2.84093e-08
1.04323e-05
3.0148e-08
1.04158e-05
3.20071e-08
1.03983e-05
3.41726e-08
1.03795e-05
3.65176e-08
1.03601e-05
3.78326e-08
1.03397e-05
3.7751e-08
1.03181e-05
4.30114e-08
1.02959e-05
4.57152e-08
1.02732e-05
4.67865e-08
1.02497e-05
4.74988e-08
1.02258e-05
4.82146e-08
1.02012e-05
4.87868e-08
1.01763e-05
4.93023e-08
1.0151e-05
4.99431e-08
1.01253e-05
5.09209e-08
1.00989e-05
5.23139e-08
1.0072e-05
5.38e-08
1.00445e-05
5.48758e-08
1.00167e-05
5.53116e-08
9.98861e-06
5.55099e-08
9.9601e-06
5.61397e-08
9.93063e-06
5.78417e-08
9.90031e-06
5.98137e-08
9.8701e-06
6.07054e-08
9.84023e-06
6.0356e-08
9.81008e-06
6.00833e-08
9.77897e-06
6.10051e-08
9.74728e-06
6.26325e-08
9.71589e-06
6.35042e-08
9.68523e-06
6.25124e-08
9.65397e-06
6.24605e-08
9.62184e-06
6.3482e-08
9.58949e-06
6.58014e-08
9.55808e-06
6.13157e-08
9.52707e-06
5.887e-08
9.49507e-06
5.81767e-08
9.4621e-06
6.37288e-08
9.42926e-06
6.5691e-08
9.39686e-06
6.53724e-08
9.3651e-06
6.53863e-08
9.3325e-06
6.63577e-08
7.01641e-08
-0.000103474
4.11945e-06
-0.000103294
1.69321e-06
-0.000102904
1.35726e-06
-0.000102146
-3.07668e-08
-0.000101045
-2.49729e-06
-9.96098e-05
-5.72399e-06
-9.77528e-05
-9.46317e-06
-9.61282e-05
-1.12372e-05
-9.4638e-05
-1.15254e-05
-9.30161e-05
-1.10621e-05
-9.16886e-05
-9.81237e-06
-9.11749e-05
-8.50246e-06
-9.1929e-05
-7.05762e-06
-9.36975e-05
-5.57813e-06
-9.57234e-05
-4.49825e-06
-9.73691e-05
-3.96308e-06
-9.83996e-05
-3.04865e-06
-9.83886e-05
-1.34176e-06
-9.70709e-05
7.43313e-07
-9.4942e-05
2.76965e-06
-9.29721e-05
4.1086e-06
-9.11408e-05
4.93278e-06
-8.89321e-05
4.62556e-06
-8.72348e-05
3.3252e-06
-8.6493e-05
2.20474e-06
-8.59447e-05
1.56443e-06
-8.5449e-05
1.09769e-06
-8.51422e-05
6.39728e-07
-8.50341e-05
6.28868e-08
-8.49442e-05
-5.04984e-07
-8.46335e-05
-1.09364e-06
-8.40398e-05
-1.56065e-06
-8.32682e-05
-1.61432e-06
-8.25672e-05
-1.20582e-06
-8.21271e-05
-7.67568e-07
-8.19207e-05
-6.28521e-07
-8.16404e-05
-8.52145e-07
-8.10351e-05
-1.24093e-06
-8.00284e-05
-1.68892e-06
-7.89201e-05
-2.15151e-06
-7.80188e-05
-2.70416e-06
-7.73258e-05
-3.07709e-06
-7.66215e-05
-3.20769e-06
-7.57494e-05
-3.08212e-06
-7.46371e-05
-2.68025e-06
-7.338e-05
-2.30075e-06
-7.21155e-05
-2.30762e-06
-7.10283e-05
-2.80135e-06
-7.01258e-05
-3.41201e-06
-6.92319e-05
-3.67246e-06
-6.82828e-05
-3.51756e-06
-6.71894e-05
-3.18566e-06
-6.60649e-05
-2.8095e-06
-6.50468e-05
-2.58709e-06
-6.42007e-05
-2.68539e-06
-6.33516e-05
-3.05669e-06
-6.23679e-05
-3.41646e-06
-6.12639e-05
-3.76082e-06
-6.00742e-05
-4.08615e-06
-5.88529e-05
-4.41922e-06
-5.76701e-05
-4.55931e-06
-5.64881e-05
-4.30753e-06
-5.52128e-05
-3.83769e-06
-5.36664e-05
-3.64332e-06
-5.17542e-05
-4.13666e-06
-4.98983e-05
-4.6002e-06
-4.83544e-05
-4.48129e-06
-4.70541e-05
-3.79723e-06
-4.57924e-05
-3.32523e-06
-4.46075e-05
-3.34103e-06
-4.34794e-05
-3.69617e-06
-4.23998e-05
-4.40179e-06
-4.11423e-05