/*--------------------------------*- C++ -*----------------------------------*\
| =========                 |                                                 |
| \\      /  F ield         | OpenFOAM: The Open Source CFD Toolbox           |
|  \\    /   O peration     | Version:  v2006                                 |
|   \\  /    A nd           | Website:  www.openfoam.com                      |
|    \\/     M anipulation  |                                                 |
\*---------------------------------------------------------------------------*/
FoamFile
{
    version     2.0;
    format      ascii;
    class       volScalarField;
    location    "1.9";
    object      k;
}
// * * * * * * * * * * * * * * * * * * * * * * * * * * * * * * * * * * * * * //

dimensions      [0 2 -2 0 0 0 0];


internalField   nonuniform List<scalar> 
33000
(
2.73846e-08
2.73516e-08
2.73471e-08
2.72527e-08
2.72323e-08
2.71951e-08
2.71573e-08
2.71351e-08
2.71266e-08
2.71368e-08
2.7164e-08
2.71966e-08
2.72255e-08
2.72419e-08
2.72367e-08
2.72337e-08
2.72424e-08
2.72646e-08
2.73089e-08
2.73728e-08
2.74216e-08
2.74387e-08
2.74747e-08
2.75647e-08
2.76674e-08
2.77385e-08
2.77958e-08
2.78473e-08
2.79311e-08
2.80437e-08
2.80973e-08
2.81146e-08
2.81591e-08
2.82763e-08
2.83835e-08
2.84514e-08
2.84299e-08
2.84622e-08
2.85948e-08
2.86502e-08
2.87028e-08
2.86729e-08
2.8557e-08
2.85088e-08
2.85223e-08
2.84389e-08
2.82614e-08
2.81358e-08
2.80516e-08
2.79308e-08
2.77659e-08
2.76069e-08
2.74813e-08
2.73737e-08
2.72749e-08
2.71583e-08
2.70331e-08
2.69428e-08
2.68422e-08
2.67001e-08
2.65347e-08
2.63957e-08
2.63034e-08
2.61656e-08
2.60086e-08
2.58317e-08
2.56628e-08
2.55242e-08
2.53516e-08
2.51606e-08
2.49632e-08
2.47043e-08
2.43742e-08
2.39308e-08
2.34798e-08
2.28496e-08
2.1931e-08
2.0792e-08
2.00513e-08
1.93806e-08
1.93615e-08
1.927e-08
1.93881e-08
1.94401e-08
1.95357e-08
1.95367e-08
1.94237e-08
1.93934e-08
1.9378e-08
1.9374e-08
1.93604e-08
1.93307e-08
1.92721e-08
1.92003e-08
1.91269e-08
1.89827e-08
1.88269e-08
1.84776e-08
1.82636e-08
1.76856e-08
1.77468e-08
1.76315e-08
1.77394e-08
1.76952e-08
1.77238e-08
1.77891e-08
1.77913e-08
1.77651e-08
1.77522e-08
1.77477e-08
1.77351e-08
1.77123e-08
1.76867e-08
1.76139e-08
1.75339e-08
1.73151e-08
1.71862e-08
1.67038e-08
1.6795e-08
1.67e-08
1.67863e-08
1.67735e-08
1.68095e-08
1.68754e-08
1.68891e-08
1.6891e-08
1.68982e-08
1.68953e-08
1.68982e-08
1.68977e-08
1.6882e-08
1.68662e-08
1.68508e-08
1.68316e-08
1.68081e-08
1.67778e-08
1.67494e-08
1.67199e-08
1.66896e-08
1.66548e-08
1.66174e-08
1.65777e-08
1.65364e-08
1.64908e-08
1.64418e-08
1.63912e-08
1.63389e-08
1.62849e-08
1.62273e-08
1.6169e-08
1.61077e-08
1.6044e-08
1.59779e-08
1.59121e-08
1.58461e-08
1.57808e-08
1.57159e-08
1.565e-08
1.55846e-08
1.55201e-08
1.54559e-08
1.5392e-08
1.53288e-08
1.52652e-08
1.52011e-08
1.51376e-08
1.50741e-08
1.50095e-08
1.4946e-08
1.48835e-08
1.48209e-08
1.47585e-08
1.46965e-08
1.46341e-08
1.45714e-08
1.45098e-08
1.4449e-08
1.43875e-08
1.43268e-08
1.42664e-08
1.42049e-08
1.4144e-08
1.40838e-08
1.40243e-08
1.39643e-08
1.39048e-08
1.38462e-08
1.3788e-08
1.37288e-08
1.36695e-08
1.36114e-08
1.35545e-08
1.34967e-08
1.34391e-08
1.33822e-08
1.3326e-08
1.32691e-08
1.32121e-08
1.31564e-08
1.31004e-08
1.30447e-08
1.29896e-08
1.29341e-08
1.28786e-08
1.2824e-08
1.27698e-08
1.27158e-08
1.26627e-08
1.26099e-08
1.25563e-08
1.25034e-08
1.24512e-08
1.2398e-08
1.23462e-08
1.22955e-08
1.22443e-08
1.21933e-08
1.21431e-08
1.20931e-08
1.20425e-08
1.19931e-08
1.19445e-08
1.18951e-08
1.18464e-08
1.17985e-08
1.17495e-08
1.17011e-08
1.16534e-08
1.16048e-08
1.15571e-08
1.151e-08
1.14623e-08
1.14152e-08
1.13679e-08
1.13205e-08
1.12737e-08
1.1226e-08
1.11792e-08
1.11322e-08
1.10856e-08
1.10394e-08
1.09925e-08
1.09462e-08
1.0899e-08
1.08524e-08
1.08063e-08
1.07611e-08
1.07166e-08
1.0673e-08
1.06302e-08
1.05879e-08
1.05464e-08
1.05056e-08
1.04654e-08
1.0426e-08
1.03874e-08
1.03495e-08
1.03122e-08
1.02755e-08
1.02394e-08
1.02038e-08
1.01689e-08
1.01346e-08
1.01009e-08
1.0068e-08
1.00358e-08
1.00042e-08
9.97318e-09
9.94272e-09
9.91285e-09
9.88356e-09
9.85494e-09
9.82701e-09
9.79968e-09
9.7729e-09
9.74667e-09
9.72097e-09
9.69586e-09
9.67137e-09
9.64743e-09
9.624e-09
9.60106e-09
9.57862e-09
9.55668e-09
9.5353e-09
9.51439e-09
9.49391e-09
9.47385e-09
9.45422e-09
9.43507e-09
9.41641e-09
9.39816e-09
9.38032e-09
9.36287e-09
9.34582e-09
9.32919e-09
9.31303e-09
9.29729e-09
9.28192e-09
9.26693e-09
9.25229e-09
9.23802e-09
9.22411e-09
9.21061e-09
9.1975e-09
9.18472e-09
9.17225e-09
9.16009e-09
9.14824e-09
9.13676e-09
9.12558e-09
9.11465e-09
9.10399e-09
9.09359e-09
9.0835e-09
9.0737e-09
9.06413e-09
9.0548e-09
9.04573e-09
9.03696e-09
9.02848e-09
9.02024e-09
9.01223e-09
9.00446e-09
8.99699e-09
8.98977e-09
8.98274e-09
8.97588e-09
8.96923e-09
8.96281e-09
8.95658e-09
8.95052e-09
8.94461e-09
8.93887e-09
8.93331e-09
8.928e-09
8.92291e-09
8.91797e-09
8.91316e-09
8.90847e-09
8.9039e-09
8.89947e-09
8.8952e-09
8.89104e-09
8.88696e-09
8.88299e-09
8.87912e-09
8.87536e-09
8.87176e-09
8.86831e-09
8.86496e-09
8.8617e-09
8.85849e-09
8.85535e-09
8.85225e-09
8.8492e-09
8.84624e-09
8.84338e-09
8.84061e-09
8.83791e-09
8.83528e-09
8.83272e-09
8.83024e-09
8.82782e-09
8.82547e-09
8.82316e-09
8.82087e-09
8.8186e-09
8.81638e-09
8.8142e-09
8.81209e-09
8.81007e-09
8.80813e-09
8.80623e-09
8.80437e-09
8.80254e-09
8.80074e-09
8.79899e-09
8.79729e-09
8.79563e-09
8.79402e-09
8.79247e-09
8.79098e-09
8.78953e-09
8.78812e-09
8.78673e-09
8.78534e-09
8.78395e-09
8.78258e-09
8.78124e-09
8.77994e-09
8.7787e-09
8.77751e-09
8.77634e-09
8.77515e-09
8.77393e-09
8.7727e-09
8.77146e-09
8.77026e-09
8.76913e-09
8.76806e-09
8.76702e-09
8.766e-09
8.76498e-09
8.76397e-09
8.76298e-09
8.76202e-09
8.7611e-09
8.76022e-09
8.75935e-09
8.75849e-09
8.75762e-09
8.75677e-09
8.75595e-09
8.75518e-09
8.75444e-09
8.75373e-09
8.75304e-09
8.75236e-09
8.7517e-09
8.75108e-09
8.75046e-09
8.7498e-09
8.74912e-09
8.74839e-09
8.74775e-09
8.74721e-09
8.74661e-09
8.74631e-09
8.7458e-09
8.74604e-09
8.74557e-09
8.74557e-09
8.74546e-09
8.74542e-09
8.74533e-09
8.74513e-09
8.74501e-09
8.74488e-09
8.74482e-09
8.74493e-09
8.74473e-09
8.74449e-09
8.74427e-09
8.74415e-09
8.74409e-09
8.7439e-09
8.7439e-09
8.74401e-09
8.74428e-09
8.7444e-09
8.74449e-09
8.74467e-09
8.74453e-09
8.7445e-09
8.74415e-09
8.74436e-09
8.74431e-09
8.74405e-09
8.7445e-09
8.7443e-09
8.74439e-09
8.74381e-09
8.7431e-09
8.74304e-09
8.7425e-09
8.74204e-09
8.74436e-09
8.74292e-09
8.75433e-09
8.75249e-09
8.75421e-09
8.75486e-09
8.75494e-09
8.75476e-09
8.75436e-09
8.75369e-09
8.7528e-09
8.75179e-09
8.75072e-09
8.74967e-09
8.74874e-09
8.74801e-09
8.74739e-09
8.74681e-09
8.74622e-09
8.74566e-09
8.74517e-09
8.74478e-09
8.74446e-09
8.74415e-09
8.74384e-09
8.74349e-09
8.7431e-09
8.74269e-09
8.74228e-09
8.7419e-09
8.74155e-09
8.74125e-09
8.741e-09
8.74081e-09
8.7407e-09
8.7407e-09
8.7408e-09
8.74098e-09
8.74123e-09
8.74156e-09
8.74195e-09
8.74239e-09
8.74288e-09
8.74338e-09
8.74386e-09
8.74423e-09
8.74444e-09
8.74447e-09
8.74438e-09
8.74425e-09
8.74417e-09
8.74427e-09
8.74465e-09
8.74532e-09
8.7462e-09
8.74709e-09
8.74773e-09
8.74793e-09
8.74779e-09
8.74773e-09
8.74816e-09
8.749e-09
8.74955e-09
8.74927e-09
8.74806e-09
8.74661e-09
8.74583e-09
8.74579e-09
8.74544e-09
8.74428e-09
8.74278e-09
8.74223e-09
8.74294e-09
8.74309e-09
8.74271e-09
8.74314e-09
8.74481e-09
8.74553e-09
8.74501e-09
8.74436e-09
8.74339e-09
8.74367e-09
8.7426e-09
1.02278e-08
1.02355e-08
1.02292e-08
1.02316e-08
1.02358e-08
1.02353e-08
1.02334e-08
1.02324e-08
1.02329e-08
1.02354e-08
1.02402e-08
1.02469e-08
1.02536e-08
1.0258e-08
1.02592e-08
1.02611e-08
1.02641e-08
1.0268e-08
1.02731e-08
1.02785e-08
1.02811e-08
1.0279e-08
1.02769e-08
1.02789e-08
1.02842e-08
1.02873e-08
1.02876e-08
1.02875e-08
1.02908e-08
1.02961e-08
1.02928e-08
1.02826e-08
1.02769e-08
1.02846e-08
1.02903e-08
1.02843e-08
1.02688e-08
1.02661e-08
1.02824e-08
1.02895e-08
1.0288e-08
1.02702e-08
1.02472e-08
1.02479e-08
1.02611e-08
1.02528e-08
1.0227e-08
1.02198e-08
1.02246e-08
1.02219e-08
1.02047e-08
1.0188e-08
1.01811e-08
1.01797e-08
1.01824e-08
1.01802e-08
1.01763e-08
1.01813e-08
1.01893e-08
1.01815e-08
1.01662e-08
1.01634e-08
1.01728e-08
1.01671e-08
1.01533e-08
1.01361e-08
1.01245e-08
1.01202e-08
1.01119e-08
1.01044e-08
1.01033e-08
1.01064e-08
1.01133e-08
1.0122e-08
1.01342e-08
1.01458e-08
1.01485e-08
1.01339e-08
1.01069e-08
1.00896e-08
1.00956e-08
1.01256e-08
1.01763e-08
1.01825e-08
1.01782e-08
1.01072e-08
1.00876e-08
1.01022e-08
1.01057e-08
1.01046e-08
1.00872e-08
1.00789e-08
1.00747e-08
1.00686e-08
1.00645e-08
1.00661e-08
1.00662e-08
1.00655e-08
1.00651e-08
1.00645e-08
1.00672e-08
1.00944e-08
1.01168e-08
1.00993e-08
1.01229e-08
1.01151e-08
1.00907e-08
1.00786e-08
1.00862e-08
1.00867e-08
1.0073e-08
1.00706e-08
1.00676e-08
1.00618e-08
1.00615e-08
1.00611e-08
1.00609e-08
1.00596e-08
1.00604e-08
1.00837e-08
1.01021e-08
1.00863e-08
1.01055e-08
1.01013e-08
1.00853e-08
1.0082e-08
1.00791e-08
1.00751e-08
1.00748e-08
1.0072e-08
1.00684e-08
1.00699e-08
1.00682e-08
1.00655e-08
1.00632e-08
1.00615e-08
1.00619e-08
1.00603e-08
1.00588e-08
1.00569e-08
1.00562e-08
1.00546e-08
1.0053e-08
1.00519e-08
1.00505e-08
1.00487e-08
1.00471e-08
1.00459e-08
1.0045e-08
1.00436e-08
1.00424e-08
1.00412e-08
1.00396e-08
1.00383e-08
1.00377e-08
1.00369e-08
1.00357e-08
1.00345e-08
1.00336e-08
1.0033e-08
1.00323e-08
1.00313e-08
1.00304e-08
1.00298e-08
1.00293e-08
1.00287e-08
1.00278e-08
1.00272e-08
1.00266e-08
1.00262e-08
1.00256e-08
1.0025e-08
1.00245e-08
1.00242e-08
1.00237e-08
1.00233e-08
1.00229e-08
1.00226e-08
1.00223e-08
1.0022e-08
1.00217e-08
1.00214e-08
1.00212e-08
1.0021e-08
1.00208e-08
1.00206e-08
1.00205e-08
1.00204e-08
1.00203e-08
1.00202e-08
1.00201e-08
1.00199e-08
1.00198e-08
1.00197e-08
1.00196e-08
1.00194e-08
1.00193e-08
1.00191e-08
1.00189e-08
1.00187e-08
1.00185e-08
1.00183e-08
1.00181e-08
1.00179e-08
1.00177e-08
1.00174e-08
1.00171e-08
1.00168e-08
1.00165e-08
1.00163e-08
1.0016e-08
1.00157e-08
1.00154e-08
1.00152e-08
1.00149e-08
1.00146e-08
1.00143e-08
1.0014e-08
1.00136e-08
1.00133e-08
1.0013e-08
1.00126e-08
1.00123e-08
1.0012e-08
1.00117e-08
1.00114e-08
1.00111e-08
1.00108e-08
1.00105e-08
1.00102e-08
1.00098e-08
1.00095e-08
1.00092e-08
1.00089e-08
1.00086e-08
1.00083e-08
1.00081e-08
1.00078e-08
1.00075e-08
1.00071e-08
1.00068e-08
1.00065e-08
1.00062e-08
1.00059e-08
1.00056e-08
1.00054e-08
1.00051e-08
1.00048e-08
1.00045e-08
1.00042e-08
1.00039e-08
1.00036e-08
1.00034e-08
1.00031e-08
1.00028e-08
1.00025e-08
1.00023e-08
1.0002e-08
1.00017e-08
1.00015e-08
1.00012e-08
1.00009e-08
1.00007e-08
1.00004e-08
1.00002e-08
9.99991e-09
9.99965e-09
9.9994e-09
9.99915e-09
9.9989e-09
9.99865e-09
9.99839e-09
9.99814e-09
9.99788e-09
9.99763e-09
9.99738e-09
9.99714e-09
9.9969e-09
9.99667e-09
9.99644e-09
9.99621e-09
9.99599e-09
9.99577e-09
9.99556e-09
9.99536e-09
9.99516e-09
9.99497e-09
9.99478e-09
9.99459e-09
9.9944e-09
9.99422e-09
9.99404e-09
9.99385e-09
9.99366e-09
9.99348e-09
9.99329e-09
9.9931e-09
9.99292e-09
9.99274e-09
9.99256e-09
9.99239e-09
9.99222e-09
9.99205e-09
9.9919e-09
9.99175e-09
9.99161e-09
9.99147e-09
9.99134e-09
9.99121e-09
9.99108e-09
9.99095e-09
9.99082e-09
9.9907e-09
9.99057e-09
9.99045e-09
9.99033e-09
9.99021e-09
9.9901e-09
9.98998e-09
9.98987e-09
9.98976e-09
9.98965e-09
9.98954e-09
9.98943e-09
9.98932e-09
9.98922e-09
9.98911e-09
9.989e-09
9.9889e-09
9.9888e-09
9.98871e-09
9.98862e-09
9.98853e-09
9.98845e-09
9.98837e-09
9.9883e-09
9.98823e-09
9.98816e-09
9.98808e-09
9.988e-09
9.98793e-09
9.98786e-09
9.98779e-09
9.98772e-09
9.98766e-09
9.9876e-09
9.98754e-09
9.98749e-09
9.98744e-09
9.9874e-09
9.98735e-09
9.98731e-09
9.98727e-09
9.98723e-09
9.98719e-09
9.98715e-09
9.98712e-09
9.98709e-09
9.98706e-09
9.98704e-09
9.98701e-09
9.98699e-09
9.98697e-09
9.98694e-09
9.98692e-09
9.9869e-09
9.98688e-09
9.98686e-09
9.98684e-09
9.98683e-09
9.98681e-09
9.9868e-09
9.98679e-09
9.98678e-09
9.98677e-09
9.98676e-09
9.98675e-09
9.98674e-09
9.98673e-09
9.98672e-09
9.98671e-09
9.98671e-09
9.9867e-09
9.98669e-09
9.98668e-09
9.98667e-09
9.98666e-09
9.98665e-09
9.98665e-09
9.98664e-09
9.98664e-09
9.98663e-09
9.98662e-09
9.98662e-09
9.98661e-09
9.9866e-09
9.98659e-09
9.98658e-09
9.98658e-09
9.98658e-09
9.98657e-09
9.98657e-09
9.98657e-09
9.98656e-09
9.98655e-09
9.98655e-09
9.98655e-09
9.98655e-09
9.98654e-09
9.98654e-09
9.98653e-09
9.98653e-09
9.98653e-09
9.98652e-09
9.98652e-09
9.98652e-09
9.98652e-09
9.98652e-09
9.98651e-09
9.98651e-09
9.98651e-09
9.98651e-09
9.9865e-09
9.9865e-09
9.98649e-09
9.9865e-09
9.9865e-09
9.9865e-09
9.98651e-09
9.98651e-09
9.98651e-09
9.98651e-09
9.98651e-09
9.98651e-09
9.98651e-09
9.9865e-09
9.9865e-09
9.9865e-09
9.9865e-09
9.9865e-09
9.9865e-09
9.98648e-09
9.98648e-09
9.98648e-09
9.98649e-09
9.98649e-09
9.98649e-09
9.9865e-09
9.9865e-09
9.9865e-09
9.9865e-09
9.9865e-09
9.98649e-09
9.98649e-09
9.98648e-09
9.98649e-09
9.9865e-09
9.98648e-09
9.9865e-09
9.98651e-09
9.98648e-09
9.98651e-09
9.98642e-09
9.98658e-09
9.98657e-09
9.98711e-09
9.98717e-09
9.98651e-09
9.9865e-09
9.98652e-09
9.98641e-09
9.98636e-09
9.98635e-09
9.98634e-09
9.98634e-09
9.98634e-09
9.98633e-09
9.98632e-09
9.98632e-09
9.98633e-09
9.98634e-09
9.98635e-09
9.98638e-09
9.98639e-09
9.98639e-09
9.98639e-09
9.98639e-09
9.98641e-09
9.98642e-09
9.98643e-09
9.98644e-09
9.98644e-09
9.98644e-09
9.98643e-09
9.98643e-09
9.98643e-09
9.98643e-09
9.98644e-09
9.98645e-09
9.98647e-09
9.98649e-09
9.98652e-09
9.98653e-09
9.98653e-09
9.98653e-09
9.98653e-09
9.98654e-09
9.98654e-09
9.98654e-09
9.98654e-09
9.98654e-09
9.98654e-09
9.98653e-09
9.98653e-09
9.98653e-09
9.98652e-09
9.98653e-09
9.98653e-09
9.98654e-09
9.98654e-09
9.98655e-09
9.98655e-09
9.98656e-09
9.98656e-09
9.98655e-09
9.98654e-09
9.98655e-09
9.98656e-09
9.98656e-09
9.98657e-09
9.98651e-09
9.98645e-09
9.98647e-09
9.98653e-09
9.98656e-09
9.98652e-09
9.98643e-09
9.98647e-09
9.98655e-09
9.98657e-09
9.98655e-09
9.98654e-09
9.98657e-09
9.98658e-09
9.98657e-09
9.9865e-09
9.98653e-09
9.98645e-09
9.98652e-09
9.98647e-09
1.00141e-08
1.00143e-08
1.00143e-08
1.00149e-08
1.00158e-08
1.00165e-08
1.0017e-08
1.00171e-08
1.00175e-08
1.00179e-08
1.0018e-08
1.00179e-08
1.0018e-08
1.0018e-08
1.0018e-08
1.00178e-08
1.00176e-08
1.00174e-08
1.00172e-08
1.00171e-08
1.00169e-08
1.00166e-08
1.00164e-08
1.00161e-08
1.00158e-08
1.00156e-08
1.00154e-08
1.00153e-08
1.00155e-08
1.00158e-08
1.00158e-08
1.00153e-08
1.00148e-08
1.00148e-08
1.00151e-08
1.00153e-08
1.00152e-08
1.00152e-08
1.00156e-08
1.00161e-08
1.00165e-08
1.00162e-08
1.00155e-08
1.00156e-08
1.0016e-08
1.0016e-08
1.00154e-08
1.00151e-08
1.0015e-08
1.00148e-08
1.00141e-08
1.00137e-08
1.00133e-08
1.00132e-08
1.00131e-08
1.00129e-08
1.00129e-08
1.0013e-08
1.00132e-08
1.0013e-08
1.00128e-08
1.0013e-08
1.00135e-08
1.00136e-08
1.00135e-08
1.00134e-08
1.00136e-08
1.00137e-08
1.00139e-08
1.00142e-08
1.00142e-08
1.00145e-08
1.00147e-08
1.00149e-08
1.0015e-08
1.0015e-08
1.00149e-08
1.00147e-08
1.00147e-08
1.0015e-08
1.00157e-08
1.00166e-08
1.00179e-08
1.00191e-08
1.00188e-08
1.00174e-08
1.00169e-08
1.00169e-08
1.00159e-08
1.00145e-08
1.00129e-08
1.00134e-08
1.00135e-08
1.00129e-08
1.00133e-08
1.00133e-08
1.0013e-08
1.0013e-08
1.0013e-08
1.0013e-08
1.0013e-08
1.00131e-08
1.00132e-08
1.00133e-08
1.0014e-08
1.0014e-08
1.00134e-08
1.00133e-08
1.00133e-08
1.00132e-08
1.00129e-08
1.00128e-08
1.00127e-08
1.00125e-08
1.00124e-08
1.00123e-08
1.00123e-08
1.00122e-08
1.00123e-08
1.00123e-08
1.00125e-08
1.00128e-08
1.00137e-08
1.00135e-08
1.00126e-08
1.00126e-08
1.00123e-08
1.0012e-08
1.00118e-08
1.00117e-08
1.00114e-08
1.00114e-08
1.00117e-08
1.00116e-08
1.00113e-08
1.00112e-08
1.00111e-08
1.00109e-08
1.00108e-08
1.00108e-08
1.00106e-08
1.00105e-08
1.00104e-08
1.00103e-08
1.00103e-08
1.00102e-08
1.00101e-08
1.001e-08
1.001e-08
1.00099e-08
1.00099e-08
1.00099e-08
1.00098e-08
1.00098e-08
1.00098e-08
1.00098e-08
1.00097e-08
1.00097e-08
1.00096e-08
1.00096e-08
1.00096e-08
1.00095e-08
1.00095e-08
1.00094e-08
1.00094e-08
1.00094e-08
1.00093e-08
1.00092e-08
1.00092e-08
1.00091e-08
1.00091e-08
1.0009e-08
1.00089e-08
1.00089e-08
1.00088e-08
1.00088e-08
1.00087e-08
1.00087e-08
1.00086e-08
1.00086e-08
1.00085e-08
1.00085e-08
1.00084e-08
1.00084e-08
1.00084e-08
1.00083e-08
1.00083e-08
1.00083e-08
1.00083e-08
1.00083e-08
1.00083e-08
1.00083e-08
1.00083e-08
1.00082e-08
1.00082e-08
1.00082e-08
1.00081e-08
1.00081e-08
1.0008e-08
1.0008e-08
1.00079e-08
1.00079e-08
1.00078e-08
1.00078e-08
1.00077e-08
1.00077e-08
1.00076e-08
1.00075e-08
1.00075e-08
1.00074e-08
1.00074e-08
1.00073e-08
1.00073e-08
1.00072e-08
1.00072e-08
1.00071e-08
1.00071e-08
1.0007e-08
1.00069e-08
1.00069e-08
1.00069e-08
1.00068e-08
1.00068e-08
1.00067e-08
1.00066e-08
1.00066e-08
1.00065e-08
1.00065e-08
1.00064e-08
1.00064e-08
1.00063e-08
1.00063e-08
1.00062e-08
1.00061e-08
1.00061e-08
1.0006e-08
1.0006e-08
1.00059e-08
1.00058e-08
1.00058e-08
1.00057e-08
1.00056e-08
1.00056e-08
1.00055e-08
1.00055e-08
1.00054e-08
1.00054e-08
1.00053e-08
1.00053e-08
1.00052e-08
1.00051e-08
1.00051e-08
1.0005e-08
1.0005e-08
1.00049e-08
1.00049e-08
1.00048e-08
1.00048e-08
1.00047e-08
1.00047e-08
1.00046e-08
1.00046e-08
1.00045e-08
1.00045e-08
1.00044e-08
1.00044e-08
1.00043e-08
1.00043e-08
1.00042e-08
1.00042e-08
1.00041e-08
1.00041e-08
1.0004e-08
1.0004e-08
1.00039e-08
1.00039e-08
1.00038e-08
1.00038e-08
1.00037e-08
1.00037e-08
1.00036e-08
1.00036e-08
1.00035e-08
1.00035e-08
1.00034e-08
1.00034e-08
1.00033e-08
1.00033e-08
1.00032e-08
1.00032e-08
1.00031e-08
1.00031e-08
1.0003e-08
1.0003e-08
1.00029e-08
1.00029e-08
1.00028e-08
1.00028e-08
1.00027e-08
1.00026e-08
1.00026e-08
1.00025e-08
1.00025e-08
1.00024e-08
1.00023e-08
1.00023e-08
1.00022e-08
1.00022e-08
1.00021e-08
1.00021e-08
1.0002e-08
1.0002e-08
1.00019e-08
1.00018e-08
1.00018e-08
1.00017e-08
1.00017e-08
1.00016e-08
1.00015e-08
1.00015e-08
1.00014e-08
1.00013e-08
1.00013e-08
1.00012e-08
1.00012e-08
1.00011e-08
1.0001e-08
1.00009e-08
1.00009e-08
1.00008e-08
1.00007e-08
1.00007e-08
1.00006e-08
1.00005e-08
1.00005e-08
1.00004e-08
1.00003e-08
1.00003e-08
1.00002e-08
1.00001e-08
1.00001e-08
1e-08
9.99995e-09
9.99989e-09
9.99984e-09
9.99978e-09
9.99973e-09
9.99967e-09
9.99962e-09
9.99957e-09
9.99953e-09
9.99948e-09
9.99944e-09
9.9994e-09
9.99936e-09
9.99933e-09
9.99929e-09
9.99925e-09
9.99922e-09
9.99918e-09
9.99915e-09
9.99911e-09
9.99908e-09
9.99905e-09
9.99902e-09
9.999e-09
9.99897e-09
9.99894e-09
9.99892e-09
9.99889e-09
9.99887e-09
9.99885e-09
9.99883e-09
9.99881e-09
9.99879e-09
9.99877e-09
9.99875e-09
9.99873e-09
9.99871e-09
9.99869e-09
9.99867e-09
9.99866e-09
9.99864e-09
9.99862e-09
9.99861e-09
9.99859e-09
9.99858e-09
9.99856e-09
9.99855e-09
9.99854e-09
9.99852e-09
9.99851e-09
9.9985e-09
9.99848e-09
9.99847e-09
9.99846e-09
9.99845e-09
9.99843e-09
9.99842e-09
9.99841e-09
9.9984e-09
9.99839e-09
9.99838e-09
9.99837e-09
9.99836e-09
9.99835e-09
9.99834e-09
9.99834e-09
9.99833e-09
9.99832e-09
9.99831e-09
9.9983e-09
9.99829e-09
9.99829e-09
9.99828e-09
9.99827e-09
9.99827e-09
9.99825e-09
9.99825e-09
9.99825e-09
9.99824e-09
9.99825e-09
9.99824e-09
9.99827e-09
9.99826e-09
9.99822e-09
9.99822e-09
9.99821e-09
9.99821e-09
9.99819e-09
9.99819e-09
9.99819e-09
9.99818e-09
9.99818e-09
9.99818e-09
9.99817e-09
9.99817e-09
9.99817e-09
9.99817e-09
9.99816e-09
9.99816e-09
9.99816e-09
9.99816e-09
9.99815e-09
9.99815e-09
9.99815e-09
9.99815e-09
9.99814e-09
9.99814e-09
9.99814e-09
9.99814e-09
9.99814e-09
9.99815e-09
9.99814e-09
9.99814e-09
9.99814e-09
9.99817e-09
9.99814e-09
9.99832e-09
9.99822e-09
9.99903e-09
9.99899e-09
1e-08
1.00002e-08
9.99887e-09
9.99884e-09
9.99879e-09
9.99873e-09
9.99866e-09
9.99848e-09
9.99829e-09
9.9983e-09
9.99827e-09
9.99823e-09
9.99823e-09
9.99822e-09
9.9982e-09
9.9982e-09
9.9982e-09
9.9982e-09
9.9982e-09
9.99822e-09
9.99826e-09
9.99828e-09
9.99825e-09
9.99821e-09
9.99818e-09
9.99818e-09
9.99819e-09
9.99822e-09
9.99825e-09
9.99826e-09
9.99826e-09
9.99825e-09
9.99822e-09
9.9982e-09
9.99819e-09
9.99819e-09
9.9982e-09
9.99821e-09
9.99821e-09
9.99821e-09
9.9982e-09
9.99819e-09
9.99818e-09
9.99818e-09
9.99819e-09
9.9982e-09
9.99821e-09
9.99822e-09
9.99822e-09
9.99821e-09
9.9982e-09
9.99819e-09
9.99818e-09
9.99818e-09
9.99818e-09
9.99817e-09
9.99817e-09
9.99817e-09
9.99818e-09
9.99819e-09
9.99822e-09
9.99824e-09
9.99821e-09
9.99817e-09
9.99817e-09
9.99819e-09
9.99824e-09
9.99826e-09
9.99817e-09
9.99819e-09
9.9982e-09
9.9982e-09
9.99834e-09
9.9982e-09
9.99823e-09
9.99822e-09
9.99828e-09
9.99845e-09
9.99822e-09
9.99823e-09
9.99836e-09
9.99856e-09
9.9982e-09
9.99816e-09
9.99822e-09
9.99831e-09
9.99876e-09
9.9987e-09
1.0025e-08
1.00228e-08
1.00213e-08
1.00213e-08
1.00211e-08
1.0021e-08
1.00209e-08
1.00208e-08
1.00207e-08
1.00203e-08
1.00197e-08
1.00193e-08
1.00189e-08
1.00185e-08
1.0018e-08
1.00173e-08
1.00168e-08
1.00164e-08
1.00161e-08
1.00157e-08
1.00154e-08
1.00151e-08
1.00148e-08
1.00146e-08
1.00143e-08
1.0014e-08
1.00137e-08
1.00134e-08
1.00134e-08
1.00135e-08
1.00136e-08
1.00138e-08
1.0014e-08
1.00141e-08
1.00143e-08
1.00144e-08
1.00144e-08
1.00144e-08
1.00144e-08
1.00144e-08
1.00144e-08
1.00144e-08
1.00143e-08
1.00143e-08
1.00141e-08
1.0014e-08
1.00138e-08
1.00135e-08
1.00133e-08
1.00131e-08
1.00129e-08
1.00127e-08
1.00127e-08
1.00126e-08
1.00124e-08
1.00121e-08
1.00118e-08
1.00115e-08
1.00111e-08
1.00107e-08
1.00106e-08
1.00105e-08
1.00104e-08
1.00104e-08
1.00104e-08
1.00106e-08
1.00108e-08
1.00109e-08
1.00111e-08
1.00113e-08
1.00114e-08
1.00116e-08
1.00117e-08
1.00118e-08
1.00118e-08
1.00119e-08
1.00117e-08
1.00115e-08
1.00113e-08
1.00113e-08
1.00117e-08
1.00125e-08
1.00131e-08
1.00136e-08
1.00143e-08
1.00154e-08
1.00168e-08
1.00177e-08
1.00174e-08
1.0016e-08
1.00151e-08
1.00142e-08
1.00135e-08
1.00122e-08
1.00126e-08
1.00128e-08
1.0013e-08
1.00129e-08
1.00129e-08
1.00127e-08
1.00127e-08
1.00127e-08
1.00127e-08
1.00128e-08
1.00129e-08
1.0013e-08
1.00131e-08
1.00132e-08
1.00134e-08
1.00132e-08
1.00129e-08
1.00128e-08
1.00126e-08
1.00125e-08
1.00123e-08
1.00123e-08
1.00122e-08
1.00121e-08
1.0012e-08
1.0012e-08
1.0012e-08
1.0012e-08
1.00121e-08
1.00123e-08
1.00125e-08
1.0013e-08
1.00126e-08
1.00119e-08
1.00118e-08
1.00115e-08
1.00114e-08
1.00112e-08
1.00111e-08
1.00109e-08
1.00108e-08
1.00107e-08
1.00109e-08
1.00108e-08
1.00107e-08
1.00106e-08
1.00105e-08
1.00104e-08
1.00103e-08
1.00102e-08
1.00102e-08
1.00101e-08
1.001e-08
1.00099e-08
1.00099e-08
1.00098e-08
1.00098e-08
1.00098e-08
1.00098e-08
1.00097e-08
1.00097e-08
1.00097e-08
1.00096e-08
1.00096e-08
1.00096e-08
1.00095e-08
1.00095e-08
1.00095e-08
1.00094e-08
1.00094e-08
1.00093e-08
1.00093e-08
1.00093e-08
1.00092e-08
1.00091e-08
1.00091e-08
1.0009e-08
1.00089e-08
1.00088e-08
1.00088e-08
1.00088e-08
1.00087e-08
1.00086e-08
1.00086e-08
1.00086e-08
1.00085e-08
1.00084e-08
1.00084e-08
1.00084e-08
1.00083e-08
1.00083e-08
1.00082e-08
1.00082e-08
1.00081e-08
1.00081e-08
1.00081e-08
1.00081e-08
1.00081e-08
1.0008e-08
1.0008e-08
1.00079e-08
1.00079e-08
1.00078e-08
1.00078e-08
1.00078e-08
1.00077e-08
1.00076e-08
1.00076e-08
1.00075e-08
1.00075e-08
1.00074e-08
1.00074e-08
1.00073e-08
1.00073e-08
1.00072e-08
1.00072e-08
1.00071e-08
1.00071e-08
1.0007e-08
1.0007e-08
1.00069e-08
1.00069e-08
1.00068e-08
1.00068e-08
1.00067e-08
1.00066e-08
1.00066e-08
1.00065e-08
1.00065e-08
1.00064e-08
1.00064e-08
1.00063e-08
1.00063e-08
1.00062e-08
1.00062e-08
1.00061e-08
1.00061e-08
1.0006e-08
1.00059e-08
1.00059e-08
1.00058e-08
1.00058e-08
1.00057e-08
1.00056e-08
1.00056e-08
1.00055e-08
1.00055e-08
1.00055e-08
1.00054e-08
1.00053e-08
1.00053e-08
1.00052e-08
1.00052e-08
1.00051e-08
1.00051e-08
1.0005e-08
1.0005e-08
1.00049e-08
1.00049e-08
1.00048e-08
1.00048e-08
1.00047e-08
1.00047e-08
1.00046e-08
1.00046e-08
1.00045e-08
1.00045e-08
1.00044e-08
1.00044e-08
1.00044e-08
1.00043e-08
1.00043e-08
1.00042e-08
1.00042e-08
1.00041e-08
1.00041e-08
1.0004e-08
1.0004e-08
1.00039e-08
1.00039e-08
1.00038e-08
1.00038e-08
1.00037e-08
1.00037e-08
1.00036e-08
1.00036e-08
1.00035e-08
1.00035e-08
1.00034e-08
1.00034e-08
1.00034e-08
1.00033e-08
1.00033e-08
1.00032e-08
1.00032e-08
1.00031e-08
1.00031e-08
1.0003e-08
1.0003e-08
1.00029e-08
1.00029e-08
1.00028e-08
1.00028e-08
1.00027e-08
1.00027e-08
1.00026e-08
1.00025e-08
1.00025e-08
1.00024e-08
1.00024e-08
1.00023e-08
1.00023e-08
1.00022e-08
1.00022e-08
1.00021e-08
1.00021e-08
1.0002e-08
1.0002e-08
1.00019e-08
1.00018e-08
1.00018e-08
1.00017e-08
1.00017e-08
1.00016e-08
1.00016e-08
1.00015e-08
1.00014e-08
1.00014e-08
1.00013e-08
1.00013e-08
1.00012e-08
1.00012e-08
1.00011e-08
1.0001e-08
1.0001e-08
1.00009e-08
1.00008e-08
1.00008e-08
1.00007e-08
1.00006e-08
1.00006e-08
1.00005e-08
1.00004e-08
1.00004e-08
1.00003e-08
1.00003e-08
1.00002e-08
1.00001e-08
1.00001e-08
1e-08
9.99997e-09
9.99991e-09
9.99986e-09
9.99981e-09
9.99976e-09
9.99971e-09
9.99966e-09
9.99962e-09
9.99957e-09
9.99953e-09
9.9995e-09
9.99946e-09
9.99943e-09
9.99939e-09
9.99936e-09
9.99932e-09
9.99929e-09
9.99926e-09
9.99923e-09
9.9992e-09
9.99917e-09
9.99915e-09
9.99912e-09
9.9991e-09
9.99907e-09
9.99905e-09
9.99902e-09
9.999e-09
9.99898e-09
9.99896e-09
9.99894e-09
9.99892e-09
9.9989e-09
9.99888e-09
9.99887e-09
9.99885e-09
9.99883e-09
9.99881e-09
9.9988e-09
9.99878e-09
9.99877e-09
9.99875e-09
9.99874e-09
9.99872e-09
9.99871e-09
9.9987e-09
9.99868e-09
9.99867e-09
9.99866e-09
9.99864e-09
9.99863e-09
9.99862e-09
9.99861e-09
9.9986e-09
9.99859e-09
9.99858e-09
9.99857e-09
9.99856e-09
9.99855e-09
9.99854e-09
9.99853e-09
9.99852e-09
9.99851e-09
9.9985e-09
9.99849e-09
9.99849e-09
9.99848e-09
9.99847e-09
9.99846e-09
9.99845e-09
9.99844e-09
9.99844e-09
9.99844e-09
9.99843e-09
9.99844e-09
9.99843e-09
9.99846e-09
9.99846e-09
9.99841e-09
9.99841e-09
9.99839e-09
9.99838e-09
9.99837e-09
9.99836e-09
9.99836e-09
9.99836e-09
9.99836e-09
9.99836e-09
9.99835e-09
9.99835e-09
9.99834e-09
9.99834e-09
9.99834e-09
9.99833e-09
9.99833e-09
9.99833e-09
9.99832e-09
9.99832e-09
9.99832e-09
9.99832e-09
9.99831e-09
9.99831e-09
9.99831e-09
9.99831e-09
9.99831e-09
9.99831e-09
9.99833e-09
9.99832e-09
9.99832e-09
9.99831e-09
9.9983e-09
9.99848e-09
9.99847e-09
9.99922e-09
9.99919e-09
1.00004e-08
1.00005e-08
9.99911e-09
9.99897e-09
9.99879e-09
9.9988e-09
9.99856e-09
9.99841e-09
9.99829e-09
9.9983e-09
9.9984e-09
9.99837e-09
9.99835e-09
9.99835e-09
9.99833e-09
9.9983e-09
9.99828e-09
9.99828e-09
9.99829e-09
9.9983e-09
9.99831e-09
9.99832e-09
9.99835e-09
9.99838e-09
9.99837e-09
9.99834e-09
9.99832e-09
9.99831e-09
9.99832e-09
9.99835e-09
9.99839e-09
9.99842e-09
9.99843e-09
9.99841e-09
9.99837e-09
9.99833e-09
9.99831e-09
9.99831e-09
9.99832e-09
9.99833e-09
9.99834e-09
9.99834e-09
9.99834e-09
9.99834e-09
9.99833e-09
9.99832e-09
9.99832e-09
9.99832e-09
9.99834e-09
9.99836e-09
9.99838e-09
9.99839e-09
9.99839e-09
9.99837e-09
9.99836e-09
9.99835e-09
9.99835e-09
9.99834e-09
9.99833e-09
9.99833e-09
9.99834e-09
9.99835e-09
9.99837e-09
9.9984e-09
9.99842e-09
9.99838e-09
9.99834e-09
9.99836e-09
9.99838e-09
9.9984e-09
9.99837e-09
9.99834e-09
9.99836e-09
9.99835e-09
9.99842e-09
9.99837e-09
9.99838e-09
9.99843e-09
9.99838e-09
9.99859e-09
9.99841e-09
9.99845e-09
9.99864e-09
9.99876e-09
9.99845e-09
9.99835e-09
9.99836e-09
9.99838e-09
9.99847e-09
9.99937e-09
9.99896e-09
1.00214e-08
1.00197e-08
1.00187e-08
1.00187e-08
1.00188e-08
1.00191e-08
1.00192e-08
1.00192e-08
1.0019e-08
1.00189e-08
1.00187e-08
1.00185e-08
1.00185e-08
1.00185e-08
1.00183e-08
1.00181e-08
1.00181e-08
1.00181e-08
1.0018e-08
1.00178e-08
1.00176e-08
1.00175e-08
1.00176e-08
1.00177e-08
1.00177e-08
1.00175e-08
1.00172e-08
1.00168e-08
1.00166e-08
1.00165e-08
1.00165e-08
1.00165e-08
1.00166e-08
1.00168e-08
1.00169e-08
1.0017e-08
1.0017e-08
1.00169e-08
1.00169e-08
1.00168e-08
1.00167e-08
1.00166e-08
1.00164e-08
1.00162e-08
1.00159e-08
1.00157e-08
1.00154e-08
1.00152e-08
1.0015e-08
1.00148e-08
1.00146e-08
1.00146e-08
1.00146e-08
1.00146e-08
1.00144e-08
1.00142e-08
1.00139e-08
1.00135e-08
1.00131e-08
1.00126e-08
1.00124e-08
1.00121e-08
1.00118e-08
1.00117e-08
1.00117e-08
1.00118e-08
1.00118e-08
1.00119e-08
1.00119e-08
1.0012e-08
1.00121e-08
1.00122e-08
1.00121e-08
1.00124e-08
1.00124e-08
1.00123e-08
1.00123e-08
1.00121e-08
1.00117e-08
1.00114e-08
1.00112e-08
1.00113e-08
1.00116e-08
1.00121e-08
1.00126e-08
1.00132e-08
1.0014e-08
1.00146e-08
1.00156e-08
1.0017e-08
1.00181e-08
1.00176e-08
1.00161e-08
1.00151e-08
1.00141e-08
1.00136e-08
1.00123e-08
1.00126e-08
1.00127e-08
1.00126e-08
1.00128e-08
1.00128e-08
1.00125e-08
1.00125e-08
1.00126e-08
1.00126e-08
1.00127e-08
1.00128e-08
1.00128e-08
1.0013e-08
1.0013e-08
1.00132e-08
1.0013e-08
1.00127e-08
1.00125e-08
1.00123e-08
1.00122e-08
1.00121e-08
1.0012e-08
1.00119e-08
1.00117e-08
1.00117e-08
1.00117e-08
1.00117e-08
1.00118e-08
1.00119e-08
1.00121e-08
1.00123e-08
1.00128e-08
1.00125e-08
1.00118e-08
1.00116e-08
1.00113e-08
1.00112e-08
1.00109e-08
1.00106e-08
1.00105e-08
1.00104e-08
1.00104e-08
1.00106e-08
1.00105e-08
1.00104e-08
1.00103e-08
1.00102e-08
1.00102e-08
1.00101e-08
1.001e-08
1.00099e-08
1.00099e-08
1.00098e-08
1.00098e-08
1.00097e-08
1.00097e-08
1.00096e-08
1.00096e-08
1.00096e-08
1.00095e-08
1.00095e-08
1.00095e-08
1.00094e-08
1.00094e-08
1.00094e-08
1.00093e-08
1.00093e-08
1.00092e-08
1.00092e-08
1.00091e-08
1.00091e-08
1.0009e-08
1.0009e-08
1.00089e-08
1.00088e-08
1.00088e-08
1.00087e-08
1.00087e-08
1.00087e-08
1.00086e-08
1.00086e-08
1.00085e-08
1.00085e-08
1.00084e-08
1.00084e-08
1.00083e-08
1.00082e-08
1.00082e-08
1.00082e-08
1.00081e-08
1.00081e-08
1.0008e-08
1.0008e-08
1.0008e-08
1.00079e-08
1.00079e-08
1.00079e-08
1.00078e-08
1.00078e-08
1.00077e-08
1.00077e-08
1.00076e-08
1.00076e-08
1.00075e-08
1.00075e-08
1.00074e-08
1.00074e-08
1.00073e-08
1.00073e-08
1.00072e-08
1.00072e-08
1.00071e-08
1.00071e-08
1.0007e-08
1.0007e-08
1.00069e-08
1.00069e-08
1.00068e-08
1.00068e-08
1.00067e-08
1.00067e-08
1.00066e-08
1.00066e-08
1.00065e-08
1.00065e-08
1.00064e-08
1.00064e-08
1.00063e-08
1.00063e-08
1.00062e-08
1.00062e-08
1.00061e-08
1.00061e-08
1.0006e-08
1.00059e-08
1.00059e-08
1.00059e-08
1.00058e-08
1.00058e-08
1.00057e-08
1.00057e-08
1.00056e-08
1.00056e-08
1.00055e-08
1.00055e-08
1.00054e-08
1.00054e-08
1.00053e-08
1.00052e-08
1.00052e-08
1.00052e-08
1.00051e-08
1.00051e-08
1.0005e-08
1.00049e-08
1.00049e-08