/*--------------------------------*- C++ -*----------------------------------*\
| =========                 |                                                 |
| \\      /  F ield         | OpenFOAM: The Open Source CFD Toolbox           |
|  \\    /   O peration     | Version:  v2006                                 |
|   \\  /    A nd           | Website:  www.openfoam.com                      |
|    \\/     M anipulation  |                                                 |
\*---------------------------------------------------------------------------*/
FoamFile
{
    version     2.0;
    format      ascii;
    class       volScalarField;
    location    "1.9";
    object      nut;
}
// * * * * * * * * * * * * * * * * * * * * * * * * * * * * * * * * * * * * * //

dimensions      [0 2 -1 0 0 0 0];


internalField   nonuniform List<scalar> 
33000
(
2.68445e-09
2.03751e-09
2.21184e-09
2.21767e-09
2.22865e-09
2.22427e-09
2.23223e-09
2.24012e-09
2.25134e-09
2.26719e-09
2.28508e-09
2.30357e-09
2.32291e-09
2.34103e-09
2.36049e-09
2.38522e-09
2.41188e-09
2.44175e-09
2.47594e-09
2.50723e-09
2.53153e-09
2.56336e-09
2.6149e-09
2.67006e-09
2.71302e-09
2.75297e-09
2.79787e-09
2.85506e-09
2.92576e-09
2.97784e-09
3.01233e-09
3.06837e-09
3.15389e-09
3.23923e-09
3.30423e-09
3.35459e-09
3.41935e-09
3.54031e-09
3.64284e-09
3.71373e-09
3.79895e-09
3.84784e-09
3.93019e-09
4.08107e-09
4.199e-09
4.24707e-09
4.32658e-09
4.46562e-09
4.58568e-09
4.66555e-09
4.75627e-09
4.88716e-09
5.04461e-09
5.20017e-09
5.34694e-09
5.48937e-09
5.67682e-09
5.88138e-09
6.0241e-09
6.14296e-09
6.30416e-09
6.56497e-09
6.7882e-09
6.90537e-09
7.04836e-09
7.23157e-09
7.528e-09
7.81654e-09
8.02684e-09
8.32293e-09
8.62051e-09
8.84867e-09
8.99404e-09
9.2496e-09
9.61167e-09
9.58967e-09
9.74968e-09
1.08162e-08
1.33037e-08
1.56585e-08
1.68954e-08
1.80351e-08
1.96058e-08
2.14503e-08
2.43464e-08
2.43478e-08
2.42073e-08
2.41697e-08
2.41505e-08
2.41455e-08
2.41287e-08
2.40918e-08
2.40189e-08
2.39297e-08
2.38384e-08
2.36591e-08
2.34655e-08
2.30314e-08
2.27653e-08
2.20468e-08
2.21229e-08
2.19794e-08
2.21136e-08
2.20587e-08
2.20943e-08
2.21754e-08
2.21782e-08
2.21456e-08
2.21296e-08
2.2124e-08
2.21084e-08
2.208e-08
2.20482e-08
2.19576e-08
2.18582e-08
2.15861e-08
2.14259e-08
2.08259e-08
2.09394e-08
2.08213e-08
2.09286e-08
2.09127e-08
2.09575e-08
2.10394e-08
2.10565e-08
2.10589e-08
2.10679e-08
2.10643e-08
2.10679e-08
2.10673e-08
2.10478e-08
2.10281e-08
2.10091e-08
2.09851e-08
2.09559e-08
2.09183e-08
2.0883e-08
2.08463e-08
2.08087e-08
2.05173e-08
1.98677e-08
1.91869e-08
1.85997e-08
1.80553e-08
1.75242e-08
1.70193e-08
1.65647e-08
1.61637e-08
1.57542e-08
1.53512e-08
1.49859e-08
1.46299e-08
1.43045e-08
1.40298e-08
1.37481e-08
1.34582e-08
1.31929e-08
1.29556e-08
1.27443e-08
1.25287e-08
1.23119e-08
1.21153e-08
1.1944e-08
1.1775e-08
1.16038e-08
1.14413e-08
1.12936e-08
1.11579e-08
1.10239e-08
1.08922e-08
1.07685e-08
1.06566e-08
1.0552e-08
1.04473e-08
1.03476e-08
1.02573e-08
1.01719e-08
1.00906e-08
1.0014e-08
9.94245e-09
9.87413e-09
9.81048e-09
9.75186e-09
9.69721e-09
9.64574e-09
9.5992e-09
9.55793e-09
9.51962e-09
9.48283e-09
9.44955e-09
9.42179e-09
9.39785e-09
9.37518e-09
9.35613e-09
9.34112e-09
9.32957e-09
9.3201e-09
9.31325e-09
9.31014e-09
9.30973e-09
9.31239e-09
9.31798e-09
9.32585e-09
9.33665e-09
9.35076e-09
9.36759e-09
9.3875e-09
9.40987e-09
9.43454e-09
9.46162e-09
9.49236e-09
9.52636e-09
9.56142e-09
9.59987e-09
9.64189e-09
9.68729e-09
9.73492e-09
9.78444e-09
9.83718e-09
9.89225e-09
9.95086e-09
1.00136e-08
1.00788e-08
1.01465e-08
1.0217e-08
1.02898e-08
1.03661e-08
1.04462e-08
1.05283e-08
1.06143e-08
1.07042e-08
1.07968e-08
1.08931e-08
1.09925e-08
1.10953e-08
1.1202e-08
1.1311e-08
1.14244e-08
1.15415e-08
1.16624e-08
1.17873e-08
1.19153e-08
1.2048e-08
1.21838e-08
1.23242e-08
1.24693e-08
1.26194e-08
1.2775e-08
1.29362e-08
1.31029e-08
1.32135e-08
1.31617e-08
1.31108e-08
1.30608e-08
1.30117e-08
1.29636e-08
1.29164e-08
1.28699e-08
1.28242e-08
1.27791e-08
1.27348e-08
1.26913e-08
1.26485e-08
1.26066e-08
1.25656e-08
1.25255e-08
1.24861e-08
1.24474e-08
1.24094e-08
1.23722e-08
1.23357e-08
1.23e-08
1.22652e-08
1.22312e-08
1.21978e-08
1.21651e-08
1.21331e-08
1.21018e-08
1.20712e-08
1.20414e-08
1.20122e-08
1.19836e-08
1.19556e-08
1.19283e-08
1.19016e-08
1.18756e-08
1.185e-08
1.1825e-08
1.18006e-08
1.17767e-08
1.17534e-08
1.17307e-08
1.17085e-08
1.16867e-08
1.16655e-08
1.16447e-08
1.16246e-08
1.1605e-08
1.15858e-08
1.15671e-08
1.15489e-08
1.15311e-08
1.15137e-08
1.14969e-08
1.14806e-08
1.14646e-08
1.14491e-08
1.14339e-08
1.14192e-08
1.14048e-08
1.13909e-08
1.13773e-08
1.1364e-08
1.1351e-08
1.13385e-08
1.13262e-08
1.13143e-08
1.13027e-08
1.12914e-08
1.12804e-08
1.12699e-08
1.12596e-08
1.12496e-08
1.12399e-08
1.12306e-08
1.12216e-08
1.12128e-08
1.12043e-08
1.1196e-08
1.1188e-08
1.11802e-08
1.11727e-08
1.11653e-08
1.11582e-08
1.11512e-08
1.11446e-08
1.11383e-08
1.11321e-08
1.11261e-08
1.11203e-08
1.11146e-08
1.1109e-08
1.11037e-08
1.10985e-08
1.10934e-08
1.10885e-08
1.10837e-08
1.1079e-08
1.10745e-08
1.10702e-08
1.1066e-08
1.10619e-08
1.10579e-08
1.1054e-08
1.10502e-08
1.10464e-08
1.10427e-08
1.10391e-08
1.10357e-08
1.10323e-08
1.1029e-08
1.10258e-08
1.10227e-08
1.10197e-08
1.10168e-08
1.10139e-08
1.1011e-08
1.10082e-08
1.10054e-08
1.10027e-08
1.10001e-08
1.09976e-08
1.09952e-08
1.09928e-08
1.09905e-08
1.09882e-08
1.09859e-08
1.09838e-08
1.09816e-08
1.09796e-08
1.09776e-08
1.09756e-08
1.09738e-08
1.0972e-08
1.09702e-08
1.09685e-08
1.09667e-08
1.0965e-08
1.09633e-08
1.09616e-08
1.096e-08
1.09585e-08
1.0957e-08
1.09555e-08
1.0954e-08
1.09525e-08
1.0951e-08
1.09494e-08
1.09479e-08
1.09465e-08
1.09452e-08
1.09439e-08
1.09426e-08
1.09414e-08
1.09401e-08
1.09389e-08
1.09377e-08
1.09365e-08
1.09354e-08
1.09343e-08
1.09333e-08
1.09322e-08
1.09311e-08
1.09301e-08
1.09291e-08
1.09282e-08
1.09273e-08
1.09265e-08
1.09256e-08
1.09248e-08
1.0924e-08
1.09233e-08
1.09224e-08
1.09216e-08
1.09207e-08
1.09199e-08
1.09192e-08
1.09185e-08
1.09181e-08
1.09174e-08
1.09177e-08
1.09172e-08
1.09172e-08
1.0917e-08
1.0917e-08
1.09169e-08
1.09166e-08
1.09165e-08
1.09163e-08
1.09162e-08
1.09164e-08
1.09161e-08
1.09158e-08
1.09155e-08
1.09154e-08
1.09153e-08
1.09151e-08
1.09151e-08
1.09152e-08
1.09156e-08
1.09157e-08
1.09158e-08
1.0916e-08
1.09159e-08
1.09158e-08
1.09154e-08
1.09157e-08
1.09156e-08
1.09153e-08
1.09158e-08
1.09156e-08
1.09157e-08
1.0915e-08
1.09141e-08
1.0914e-08
1.09133e-08
1.09128e-08
1.09157e-08
1.09139e-08
1.09281e-08
1.09258e-08
1.09279e-08
1.09287e-08
1.09288e-08
1.09286e-08
1.09281e-08
1.09273e-08
1.09262e-08
1.09249e-08
1.09236e-08
1.09223e-08
1.09211e-08
1.09202e-08
1.09194e-08
1.09187e-08
1.0918e-08
1.09173e-08
1.09167e-08
1.09162e-08
1.09158e-08
1.09154e-08
1.0915e-08
1.09146e-08
1.09141e-08
1.09136e-08
1.09131e-08
1.09126e-08
1.09122e-08
1.09118e-08
1.09115e-08
1.09112e-08
1.09111e-08
1.09111e-08
1.09112e-08
1.09114e-08
1.09118e-08
1.09122e-08
1.09126e-08
1.09132e-08
1.09138e-08
1.09144e-08
1.0915e-08
1.09155e-08
1.09158e-08
1.09158e-08
1.09157e-08
1.09155e-08
1.09154e-08
1.09155e-08
1.0916e-08
1.09168e-08
1.09179e-08
1.09191e-08
1.09199e-08
1.09201e-08
1.09199e-08
1.09199e-08
1.09204e-08
1.09214e-08
1.09221e-08
1.09218e-08
1.09203e-08
1.09185e-08
1.09175e-08
1.09174e-08
1.0917e-08
1.09156e-08
1.09137e-08
1.0913e-08
1.09139e-08
1.09141e-08
1.09136e-08
1.09141e-08
1.09162e-08
1.09171e-08
1.09165e-08
1.09157e-08
1.09145e-08
1.09148e-08
1.09135e-08
5.27555e-09
3.89756e-09
9.4901e-09
6.62069e-08
5.02602e-08
4.38089e-08
4.30787e-08
4.0805e-08
3.79312e-08
3.68905e-08
3.55581e-08
3.33495e-08
3.12272e-08
2.92287e-08
2.79541e-08
2.70224e-08
2.57196e-08
2.50556e-08
2.46551e-08
2.3484e-08
2.19225e-08
2.1362e-08
2.1649e-08
2.11796e-08
2.03368e-08
1.98054e-08
1.95835e-08
1.94949e-08
2.01982e-08
2.25625e-08
2.30636e-08
2.00666e-08
1.69729e-08
1.57633e-08
1.7674e-08
2.02464e-08
1.9824e-08
1.8549e-08
1.66022e-08
1.71196e-08
1.97322e-08
1.93181e-08
1.72212e-08
1.63164e-08
1.70889e-08
1.91639e-08
1.94035e-08
1.94972e-08
1.9443e-08
1.92789e-08
1.8962e-08
1.89458e-08
1.88825e-08
1.88946e-08
1.92003e-08
1.92324e-08
1.93298e-08
2.0949e-08
2.30903e-08
2.26327e-08
2.11138e-08
2.25945e-08
2.64868e-08
2.82008e-08
2.60943e-08
2.40797e-08
2.42386e-08
2.39291e-08
2.4224e-08
2.70457e-08
2.83525e-08
2.5349e-08
2.40662e-08
2.45273e-08
2.41621e-08
2.20733e-08
2.23581e-08
1.94214e-08
1.36982e-08
1.15329e-08
1.19034e-08
1.20262e-08
1.64812e-08
2.52079e-08
3.10334e-08
7.14925e-08
1.34586e-07
2.17618e-07
2.54905e-07
2.06684e-07
1.32058e-07
1.74696e-07
2.11456e-07
2.15177e-07
2.13149e-07
1.21248e-07
9.46555e-08
6.62186e-08
6.81023e-08
5.57289e-08
4.09557e-08
2.90821e-08
3.5348e-08
7.56418e-08
8.72875e-08
1.17159e-07
1.13951e-07
2.12042e-07
1.12599e-07
1.17237e-07
2.7515e-07
3.03551e-07
2.22653e-07
1.51393e-07
1.13545e-07
7.5774e-08
7.80861e-08
9.57928e-08
7.53572e-08
4.29327e-08
5.46726e-08
1.68267e-07
1.33858e-07
1.116e-07
1.03417e-07
7.79471e-08
8.33217e-08
1.18477e-07
1.20549e-07
1.21881e-07
1.21186e-07
1.12802e-07
1.14223e-07
1.208e-07
1.22707e-07
1.21955e-07
1.19911e-07
1.22185e-07
1.22557e-07
1.2282e-07
1.22312e-07
1.26343e-07
1.2899e-07
1.27039e-07
1.30171e-07
1.35532e-07
1.38365e-07
1.38456e-07
1.40808e-07
1.46441e-07
1.50967e-07
1.54037e-07
1.60275e-07
1.6583e-07
1.69765e-07
1.7418e-07
1.81442e-07
1.90082e-07
1.97223e-07
2.02157e-07
2.08236e-07
2.18139e-07
2.3102e-07
2.41022e-07
2.46243e-07
2.54556e-07
2.76954e-07
2.95257e-07
3.03704e-07
3.10721e-07
3.42813e-07
3.73622e-07
3.93016e-07
4.07254e-07
4.62737e-07
5.10194e-07
5.42896e-07
6.01239e-07
6.93039e-07
7.91373e-07
8.92431e-07
1.04703e-06
1.28147e-06
1.39748e-06
1.40023e-06
1.40251e-06
1.40472e-06
1.40621e-06
1.40742e-06
1.40882e-06
1.40995e-06
1.22648e-06
1.02105e-06
8.79166e-07
7.79996e-07
7.052e-07
6.47593e-07
5.9512e-07
5.5164e-07
5.15407e-07
4.82684e-07
4.54832e-07
4.31936e-07
4.11582e-07
3.9258e-07
3.76315e-07
3.64588e-07
3.54893e-07
3.4031e-07
3.29719e-07
3.20693e-07
3.11766e-07
3.03426e-07
2.95748e-07
2.8873e-07
2.82741e-07
2.77249e-07
2.72255e-07
2.681e-07
2.64148e-07
2.60315e-07
2.56796e-07
2.53379e-07
2.50139e-07
2.47333e-07
2.44843e-07
2.42413e-07
2.40078e-07
2.38104e-07
2.36391e-07
2.34792e-07
2.33401e-07
2.32266e-07
2.31198e-07
2.30069e-07
2.29119e-07
2.28328e-07
2.27769e-07
2.27798e-07
2.28077e-07
2.2789e-07
2.27883e-07
2.28077e-07
2.28288e-07
2.28625e-07
2.29103e-07
2.29692e-07
2.30477e-07
2.31441e-07
2.32446e-07
2.33506e-07
2.34695e-07
2.3598e-07
2.3739e-07
2.39029e-07
2.40915e-07
2.42932e-07
2.45034e-07
2.47172e-07
2.49361e-07
2.51622e-07
2.53972e-07
2.56432e-07
2.59038e-07
2.6182e-07
2.64762e-07
2.67845e-07
2.71069e-07
2.7443e-07
2.77963e-07
2.81715e-07
2.85676e-07
2.89832e-07
2.94154e-07
2.98571e-07
3.03081e-07
3.07714e-07
3.12447e-07
3.17295e-07
3.22318e-07
3.27552e-07
3.32995e-07
3.38584e-07
3.44241e-07
3.49977e-07
3.55826e-07
3.61805e-07
3.67928e-07
3.7422e-07
3.80728e-07
3.87501e-07
3.94551e-07
4.01883e-07
4.0952e-07
4.17466e-07
4.25762e-07
4.34425e-07
4.43426e-07
4.52732e-07
4.62309e-07
4.72134e-07
4.82173e-07
4.9241e-07
5.02824e-07
5.13401e-07
5.2417e-07
5.35163e-07
5.46417e-07
5.57978e-07
5.69878e-07
5.82134e-07
5.94769e-07
6.07803e-07
6.21266e-07
6.35195e-07
6.49615e-07
6.64512e-07
6.79856e-07
6.9562e-07
7.11853e-07
7.28713e-07
7.46428e-07
7.65141e-07
7.84754e-07
8.05001e-07
8.25703e-07
8.47001e-07
8.69214e-07
8.9235e-07
9.1591e-07
9.39369e-07
9.6285e-07
9.86989e-07
1.01204e-06
1.03752e-06
1.06308e-06
1.08939e-06
1.11756e-06
1.1477e-06
1.17875e-06
1.20991e-06
1.2417e-06
1.27494e-06
1.30939e-06
1.3442e-06
1.35102e-06
1.35111e-06
1.35126e-06
1.35149e-06
1.3517e-06
1.35181e-06
1.35182e-06
1.35174e-06
1.35155e-06
1.35128e-06
1.35103e-06
1.35093e-06
1.35097e-06
1.35109e-06
1.35127e-06
1.35151e-06
1.35174e-06
1.35185e-06
1.35178e-06
1.35156e-06
1.35131e-06
1.35109e-06
1.35095e-06
1.35092e-06
1.35105e-06
1.35132e-06
1.35162e-06
1.35187e-06
1.35199e-06
1.35201e-06
1.35201e-06
1.35201e-06
1.352e-06
1.35202e-06
1.35219e-06
1.35252e-06
1.35291e-06
1.35318e-06
1.35326e-06
1.35314e-06
1.35288e-06
1.35264e-06
1.35254e-06
1.35261e-06
1.35282e-06
1.35308e-06
1.35326e-06
1.35327e-06
1.35308e-06
1.35275e-06
1.35238e-06
1.35209e-06
1.35203e-06
1.35225e-06
1.35265e-06
1.353e-06
1.35312e-06
1.35307e-06
1.353e-06
1.35294e-06
1.35291e-06
1.35307e-06
1.35335e-06
1.35353e-06
1.35351e-06
1.35335e-06
1.3532e-06
1.35324e-06
1.35347e-06
1.35369e-06
1.35386e-06
1.35399e-06
1.35397e-06
1.35393e-06
1.35405e-06
1.35419e-06
1.35395e-06
1.35369e-06
1.35324e-06
1.35317e-06
1.35404e-06
1.35414e-06
1.35464e-06
1.35542e-06
1.35619e-06
1.35653e-06
1.35633e-06
1.35691e-06
1.35689e-06
1.3568e-06
1.35626e-06
1.35598e-06
1.3562e-06
1.35615e-06
1.3569e-06
1.35642e-06
1.3551e-06
1.35522e-06
1.35544e-06
1.35623e-06
1.35589e-06
1.35617e-06
1.35719e-06
1.35764e-06
1.35797e-06
1.3573e-06
1.35785e-06
1.35701e-06
1.35672e-06
1.35578e-06
1.3567e-06
1.3577e-06
1.35613e-06
1.35776e-06
1.35796e-06
1.35593e-06
1.35581e-06
1.34935e-06
1.35279e-06
1.35405e-06
1.3533e-06
1.35812e-06
1.35737e-06
1.35817e-06
1.35752e-06
1.35526e-06
1.35513e-06
1.35366e-06
1.35284e-06
1.35221e-06
1.35051e-06
1.34856e-06
1.34725e-06
1.34657e-06
1.34608e-06
1.34639e-06
1.34776e-06
1.34931e-06
1.35002e-06
1.34984e-06
1.34974e-06
1.35037e-06
1.35156e-06
1.35268e-06
1.35332e-06
1.35332e-06
1.35272e-06
1.3518e-06
1.35087e-06
1.35019e-06
1.34988e-06
1.34995e-06
1.35044e-06
1.35144e-06
1.35303e-06
1.35526e-06
1.35765e-06
1.35812e-06
1.35815e-06
1.35817e-06
1.35819e-06
1.3582e-06
1.3582e-06
1.3582e-06
1.3582e-06
1.35818e-06
1.35816e-06
1.35813e-06
1.35809e-06
1.35776e-06
1.35713e-06
1.35724e-06
1.35787e-06
1.35808e-06
1.35812e-06
1.35815e-06
1.35817e-06
1.35816e-06
1.35811e-06
1.35774e-06
1.35644e-06
1.35794e-06
1.35812e-06
1.35813e-06
1.35795e-06
1.35105e-06
1.34511e-06
1.34782e-06
1.35595e-06
1.3572e-06
1.35084e-06
1.34405e-06
1.34805e-06
1.35786e-06
1.35805e-06
1.35647e-06
1.35595e-06
1.35813e-06
1.35813e-06
1.35764e-06
1.35077e-06
1.3538e-06
1.34602e-06
1.34621e-06
1.33765e-06
5.17439e-09
3.54547e-09
1.0078e-08
9.32957e-08
4.72102e-08
4.67214e-08
4.36758e-08
4.08635e-08
3.85602e-08
3.76269e-08
3.53918e-08
3.25095e-08
2.99169e-08
2.80589e-08
2.7246e-08
2.62335e-08
2.5259e-08
2.45236e-08
2.28471e-08
2.07843e-08
1.99807e-08
2.10913e-08
2.17826e-08
1.97614e-08
1.79182e-08
1.78e-08
1.83235e-08
1.93687e-08
1.89153e-08
1.7905e-08
1.90741e-08
1.98933e-08
1.86156e-08
1.60788e-08
1.57994e-08
1.70378e-08
1.91788e-08
1.8729e-08
1.58742e-08
1.5804e-08
1.61204e-08
1.69809e-08
1.90027e-08
1.83771e-08
1.66573e-08
1.77313e-08
1.98763e-08
2.02547e-08
1.90463e-08
1.91858e-08
2.00169e-08
2.0171e-08
1.91533e-08
1.88925e-08
1.90148e-08
1.85438e-08
1.95562e-08
2.07017e-08
2.05027e-08
2.0053e-08
2.12615e-08
2.41532e-08
2.36545e-08
2.39261e-08
2.35022e-08
2.66446e-08
2.77663e-08
2.4856e-08
2.34488e-08
2.41655e-08
2.66564e-08
2.85066e-08
2.93648e-08
3.11621e-08
3.00053e-08
3.88376e-08
6.53822e-08
5.23548e-08
3.50802e-08
3.03543e-08
1.98417e-08
1.47742e-08
1.19161e-08
1.22167e-08
1.20701e-08
1.48433e-08
2.78568e-08
2.89626e-08
3.65881e-08
8.57257e-08
1.38518e-07
1.73587e-07
4.94707e-07
1.38605e-07
1.66565e-07
1.5597e-07
1.70899e-07
1.38747e-07
1.0261e-07
1.17036e-07
7.50338e-08
8.10232e-08
5.51245e-08
4.08417e-08
2.78499e-08
3.36316e-08
5.17873e-08
7.55461e-08
9.93792e-08
1.05946e-07
9.89305e-08
1.03938e-07
1.20512e-07
2.28373e-07
1.40781e-07
1.00088e-07
7.62223e-08
8.42539e-08
8.4583e-08
1.06781e-07
1.28273e-07
8.94166e-08
4.23827e-08
4.99181e-08
1.53801e-07
1.33075e-07
1.13562e-07
1.07858e-07
8.06031e-08
8.33533e-08
1.16801e-07
1.25155e-07
1.32309e-07
1.29496e-07
1.18438e-07
1.09115e-07
1.1422e-07
1.21002e-07
1.19812e-07
1.18411e-07
1.21968e-07
1.26959e-07
1.29022e-07
1.25173e-07
1.31079e-07
1.35304e-07
1.35356e-07
1.35653e-07
1.42549e-07
1.46351e-07
1.5223e-07
1.56289e-07
1.55661e-07
1.58099e-07
1.69551e-07
1.77207e-07
1.81518e-07
1.84427e-07
1.91791e-07
2.03224e-07
2.08639e-07
2.10785e-07
2.22867e-07
2.385e-07
2.4336e-07
2.53544e-07
2.70389e-07
2.88709e-07
2.99415e-07
3.09355e-07
3.37837e-07
3.6643e-07
3.87161e-07
4.00068e-07
4.50289e-07
5.04154e-07
5.35385e-07
5.73811e-07
6.6116e-07
7.62122e-07
8.36938e-07
9.4888e-07
1.1461e-06
1.37231e-06
1.5684e-06
1.79156e-06
2.007e-06
1.97428e-06
1.74392e-06
1.49037e-06
1.29652e-06
1.0993e-06
9.44869e-07
8.42448e-07
7.51524e-07
6.80045e-07
6.29635e-07
5.83416e-07
5.42047e-07
5.06826e-07
4.7562e-07
4.51668e-07
4.30496e-07
4.10422e-07
3.90733e-07
3.74456e-07
3.62422e-07
3.49934e-07
3.36977e-07
3.28548e-07
3.20427e-07
3.1124e-07
3.02444e-07
2.94579e-07
2.87952e-07
2.82454e-07
2.76025e-07
2.70871e-07
2.6679e-07
2.63172e-07
2.5965e-07
2.56452e-07
2.52578e-07
2.48597e-07
2.45494e-07
2.43277e-07
2.41503e-07
2.39572e-07
2.37778e-07
2.36229e-07
2.34636e-07
2.32987e-07
2.31595e-07
2.30482e-07
2.29341e-07
2.28428e-07
2.2781e-07
2.27438e-07
2.27224e-07
2.26985e-07
2.26577e-07
2.26694e-07
2.27212e-07
2.27686e-07
2.28201e-07
2.28696e-07
2.29294e-07
2.30051e-07
2.30868e-07
2.31671e-07
2.3256e-07
2.33628e-07
2.34886e-07
2.36332e-07
2.38075e-07
2.40247e-07
2.4261e-07
2.4495e-07
2.47234e-07
2.49423e-07
2.51605e-07
2.53891e-07
2.56311e-07
2.58887e-07
2.61665e-07
2.64688e-07
2.67921e-07
2.71292e-07
2.74786e-07
2.78383e-07
2.82082e-07
2.85893e-07
2.89835e-07
2.94005e-07
2.98368e-07
3.02855e-07
3.07448e-07
3.12092e-07
3.16792e-07
3.21628e-07
3.2668e-07
3.31965e-07
3.37497e-07
3.43267e-07
3.49199e-07
3.55349e-07
3.61697e-07
3.68236e-07
3.74973e-07
3.81898e-07
3.89001e-07
3.96239e-07
4.03569e-07
4.1101e-07
4.18635e-07
4.2651e-07
4.34716e-07
4.43218e-07
4.51997e-07
4.61041e-07
4.70363e-07
4.79987e-07
4.89958e-07
5.00312e-07
5.11021e-07
5.22098e-07
5.33524e-07
5.45309e-07
5.57414e-07
5.69824e-07
5.82506e-07
5.95443e-07
6.08647e-07
6.22143e-07
6.35995e-07
6.50295e-07
6.65148e-07
6.80638e-07
6.96787e-07
7.1357e-07
7.30994e-07
7.49186e-07
7.68339e-07
7.88471e-07
8.09219e-07
8.29975e-07
8.5045e-07
8.7105e-07
8.92472e-07
9.14907e-07
9.37902e-07
9.61255e-07
9.85739e-07
1.01234e-06
1.04083e-06
1.06979e-06
1.09831e-06
1.12711e-06
1.15719e-06
1.188e-06
1.21807e-06
1.24732e-06
1.27735e-06
1.30941e-06
1.34332e-06
1.37889e-06
1.41669e-06
1.45686e-06
1.49855e-06
1.54093e-06
1.58348e-06
1.62524e-06
1.66519e-06
1.70374e-06
1.74247e-06
1.78253e-06
1.82435e-06
1.86872e-06
1.91705e-06
1.96993e-06
2.02612e-06
2.08327e-06
2.13934e-06
2.19323e-06
2.24463e-06
2.29422e-06
2.34393e-06
2.39643e-06
2.45368e-06
2.51585e-06
2.58134e-06
2.64768e-06
2.71321e-06
2.77821e-06
2.84298e-06
2.90493e-06
2.96159e-06
3.01796e-06
3.08492e-06
3.16788e-06
3.26186e-06
3.35878e-06
3.45309e-06
3.53909e-06
3.61328e-06
3.68114e-06
3.75229e-06
3.83281e-06
3.92708e-06
4.03948e-06
4.16923e-06
4.30674e-06
4.43562e-06
4.54251e-06
4.63041e-06
4.71574e-06
4.81696e-06
4.95168e-06
5.1283e-06
5.3305e-06
5.52047e-06
5.67346e-06
5.79157e-06
5.87787e-06
5.982e-06
6.1542e-06
6.39558e-06
6.67753e-06
6.91954e-06
7.07973e-06
7.18103e-06
7.31834e-06
7.49317e-06
7.66547e-06
7.95231e-06
8.34935e-06
8.69521e-06
9.34792e-06
9.37314e-06
8.9653e-06
9.02964e-06
8.73721e-06
8.95409e-06
8.19954e-06
8.50183e-06
9.37355e-06
9.37408e-06
9.37439e-06
9.3745e-06
9.37473e-06
9.37493e-06
9.37501e-06
9.37547e-06
9.37548e-06
9.37548e-06
9.37511e-06
9.37496e-06
9.37508e-06
9.37506e-06
9.37558e-06
9.37524e-06
9.37432e-06
9.3745e-06
9.37467e-06
9.37538e-06
9.37516e-06
9.37525e-06
9.3759e-06
9.37617e-06
9.37634e-06
9.37577e-06
9.37642e-06
9.37588e-06
9.37553e-06
9.37531e-06
9.37592e-06
9.37633e-06
9.37516e-06
9.37584e-06
9.37425e-06
5.92183e-06
6.7014e-06
3.55772e-06
3.16449e-06
5.94916e-06
5.93932e-06
5.57276e-06
6.01669e-06
9.37836e-06
9.37612e-06
9.37557e-06
9.37575e-06
9.37466e-06
9.37386e-06
9.37288e-06
9.37126e-06
9.37012e-06
9.36965e-06
9.36917e-06
9.36861e-06
9.36865e-06
9.36939e-06
9.37014e-06
9.37033e-06
9.37019e-06
9.37033e-06
9.37103e-06
9.37203e-06
9.37286e-06
9.37325e-06
9.37311e-06
9.37248e-06
9.37163e-06
9.37089e-06
9.37044e-06
9.37037e-06
9.37066e-06
9.37127e-06
9.37221e-06
9.37351e-06
9.37516e-06
9.37659e-06
9.37679e-06
9.3768e-06
9.37681e-06
9.37682e-06
9.37683e-06
9.37684e-06
9.37685e-06
9.37685e-06
9.37684e-06
9.37682e-06
9.37679e-06
9.37675e-06
9.37664e-06
9.37639e-06
9.37647e-06
9.37668e-06
9.37673e-06
9.37676e-06
9.37679e-06
9.37681e-06
9.37681e-06
9.37679e-06
9.37668e-06
9.37618e-06
9.3767e-06
9.37675e-06
9.37676e-06
9.37582e-06
9.37065e-06
9.36818e-06
9.37127e-06
9.3756e-06
9.37485e-06
9.36972e-06
9.36723e-06
9.37196e-06
9.37664e-06
9.37634e-06
9.37454e-06
9.37629e-06
9.37683e-06
9.37689e-06
9.37489e-06
9.37173e-06
9.3728e-06
9.36912e-06
4.98472e-06
7.29791e-06
4.48919e-09
3.44678e-09
9.47299e-09
8.25235e-08
5.54941e-08
5.62113e-08
5.18052e-08
4.72101e-08
4.26135e-08
4.03585e-08
3.74792e-08
3.41332e-08
3.12154e-08
2.88449e-08
2.71407e-08
2.58538e-08
2.49179e-08
2.38501e-08
2.23105e-08
2.08599e-08
2.02416e-08
2.05326e-08
2.0409e-08
1.92614e-08
1.82765e-08
1.7964e-08
1.78955e-08
1.82759e-08
1.75162e-08
1.56724e-08
1.53615e-08
1.6932e-08
1.96467e-08
1.96833e-08
1.66964e-08
1.52515e-08
1.63485e-08
1.75153e-08
1.81069e-08
1.75158e-08
1.5616e-08
1.6293e-08
1.93173e-08
2.04092e-08
1.84171e-08
1.73499e-08
1.8345e-08
1.87119e-08
1.88102e-08
1.97745e-08
2.01968e-08
1.93447e-08
1.89658e-08
1.93461e-08
1.9498e-08
1.93795e-08
2.01757e-08
1.98068e-08
1.89896e-08
1.96054e-08
2.18313e-08
2.22775e-08
2.16028e-08
2.25339e-08
2.28821e-08
2.57413e-08
2.75515e-08
2.76049e-08
2.57813e-08
2.32571e-08
2.50864e-08
3.22797e-08
3.78542e-08
4.0851e-08
3.61247e-08
3.88432e-08
4.51186e-08
4.85331e-08
1.39554e-07
1.41046e-07
2.17826e-07
4.57758e-08
3.04289e-08
1.94094e-08
1.86766e-08
1.57054e-08
1.2059e-08
1.30331e-08
1.36616e-08
1.61961e-08
3.01203e-08
3.43326e-08
7.62809e-08
1.05669e-07
2.03122e-07
8.36104e-07
2.46104e-07
3.70859e-07
1.84684e-07
1.93511e-07
1.26268e-07
8.48936e-08
1.01796e-07
7.15477e-08
9.24833e-08
8.07746e-08
4.80681e-08
3.48201e-08
2.71429e-08
3.28918e-08
7.15552e-08
7.01873e-08
8.90029e-08
1.01081e-07
8.13856e-08
8.53574e-08
1.37381e-07
1.24628e-07
1.0395e-07
6.76399e-08
7.73213e-08
8.81831e-08
1.1721e-07
1.14519e-07
8.9127e-08
4.08055e-08
4.8488e-08
1.45524e-07
1.25987e-07
1.12524e-07
1.03212e-07
8.08055e-08
8.66468e-08
1.2531e-07
1.24233e-07
1.26787e-07
1.30913e-07
1.21599e-07
1.11118e-07
1.11935e-07
1.21983e-07
1.2505e-07
1.29456e-07
1.27816e-07
1.29326e-07
1.31033e-07
1.33246e-07
1.3889e-07
1.46529e-07
1.45769e-07
1.49333e-07
1.54879e-07
1.54953e-07
1.57711e-07
1.66974e-07
1.75975e-07
1.8076e-07
1.82524e-07
1.87836e-07
1.99339e-07
2.09101e-07
2.10093e-07
2.16546e-07
2.30116e-07
2.43478e-07
2.56867e-07
2.60489e-07
2.75174e-07
2.97364e-07
3.17382e-07
3.26025e-07
3.48833e-07
3.84935e-07
4.08234e-07
4.21803e-07
4.71818e-07
5.26307e-07
5.62723e-07
6.05299e-07
6.8905e-07
7.74255e-07
8.44702e-07
9.58203e-07
1.10659e-06
1.21313e-06
1.28638e-06
1.36562e-06
1.39852e-06
1.32242e-06
1.1847e-06
1.06959e-06
9.43815e-07
8.53505e-07
7.81141e-07
7.07509e-07
6.48786e-07
6.03162e-07
5.61225e-07
5.24574e-07
4.92077e-07
4.64811e-07
4.46395e-07
4.26755e-07
4.0706e-07
3.8909e-07
3.73125e-07
3.57718e-07
3.41316e-07
3.31748e-07
3.25595e-07
3.17855e-07
3.09655e-07
3.01275e-07
2.93651e-07
2.87432e-07
2.82094e-07
2.76072e-07
2.70746e-07
2.66079e-07
2.6213e-07
2.58575e-07
2.55387e-07
2.51827e-07
2.48024e-07
2.44764e-07
2.4233e-07
2.4075e-07
2.39392e-07
2.37888e-07
2.36477e-07
2.34985e-07
2.33098e-07
2.31234e-07
2.29946e-07
2.2897e-07
2.28123e-07
2.27597e-07
2.27195e-07
2.2641e-07
2.25667e-07
2.25801e-07
2.26412e-07
2.27e-07
2.27453e-07
2.27861e-07
2.28206e-07
2.2869e-07
2.29323e-07
2.30059e-07
2.30951e-07
2.32014e-07
2.33269e-07
2.34704e-07
2.36284e-07
2.38031e-07
2.40024e-07
2.42186e-07
2.44386e-07
2.46654e-07
2.48901e-07
2.51224e-07
2.53711e-07
2.5631e-07
2.5898e-07
2.61779e-07
2.64824e-07
2.68112e-07
2.71541e-07
2.7509e-07
2.78672e-07
2.82185e-07
2.85793e-07
2.89519e-07
2.93495e-07
2.97763e-07
3.02226e-07
3.06823e-07
3.11489e-07
3.16215e-07
3.21032e-07
3.26002e-07
3.31207e-07
3.36738e-07
3.42615e-07
3.48767e-07
3.55197e-07
3.61867e-07
3.68745e-07
3.75787e-07
3.82921e-07
3.90119e-07
3.97349e-07
4.04606e-07
4.11925e-07
4.19391e-07
4.27037e-07
4.34892e-07
4.42978e-07
4.51321e-07
4.59957e-07
4.68942e-07
4.78346e-07
4.88201e-07
4.98541e-07
5.09373e-07
5.20674e-07
5.32406e-07
5.44532e-07
5.56974e-07
5.69688e-07
5.82627e-07
5.95768e-07
6.09114e-07
6.22683e-07
6.36537e-07
6.50805e-07
6.65695e-07
6.81412e-07
6.98058e-07
7.15532e-07
7.33587e-07
7.52046e-07
7.7102e-07
7.9079e-07
8.11363e-07
8.32184e-07
8.52556e-07
8.72502e-07
8.92979e-07
9.14916e-07
9.38178e-07
9.62063e-07
9.86856e-07
1.01403e-06
1.04422e-06
1.07565e-06
1.10581e-06
1.13434e-06
1.16302e-06
1.19273e-06
1.22225e-06
1.25072e-06
1.27969e-06
1.31119e-06
1.34539e-06
1.38163e-06
1.42014e-06
1.46116e-06
1.50383e-06
1.5471e-06
1.59026e-06
1.63214e-06
1.67143e-06
1.70845e-06
1.74561e-06
1.78534e-06
1.82861e-06
1.87539e-06
1.92572e-06
1.97939e-06
2.03513e-06
2.09045e-06
2.14281e-06
2.19112e-06
2.23656e-06
2.28208e-06
2.33084e-06
2.38477e-06
2.4443e-06
2.50907e-06
2.57824e-06
2.6487e-06
2.71558e-06
2.77697e-06
2.83627e-06
2.89659e-06
2.95718e-06
3.02022e-06
3.09384e-06
3.18164e-06
3.27557e-06
3.36527e-06
3.44791e-06
3.52304e-06
3.59104e-06
3.66149e-06
3.74718e-06
3.85115e-06
3.96834e-06
4.09311e-06
4.21937e-06
4.3378e-06
4.43699e-06
4.51366e-06
4.58403e-06
4.67322e-06
4.79446e-06
4.95264e-06
5.14384e-06
5.34338e-06
5.50115e-06
5.61343e-06
5.72125e-06
5.8401e-06
5.99696e-06
6.22472e-06
6.47298e-06
6.74985e-06
6.90908e-06
6.97331e-06
7.02638e-06
7.14131e-06
7.44022e-06
7.73349e-06
8.38607e-06
8.73875e-06
8.33748e-06
8.44978e-06
8.18187e-06
8.31357e-06
7.54299e-06
7.75154e-06
8.86213e-06
9.12481e-06
9.86945e-06
9.99265e-06
9.99265e-06
9.99265e-06
9.99265e-06
9.99265e-06
9.99265e-06
9.99265e-06
9.99266e-06
9.99266e-06
9.99266e-06
9.99265e-06
9.99265e-06
9.99265e-06
9.99265e-06
9.99265e-06
9.99265e-06
9.99264e-06
9.99264e-06
9.99264e-06
9.99265e-06
9.99264e-06
9.99264e-06
9.99265e-06
9.99265e-06
9.99265e-06
9.99266e-06
9.99267e-06
9.99266e-06
9.99265e-06
9.99264e-06
9.99273e-06
9.99271e-06
5.38561e-06
5.7326e-06
3.33898e-06
3.22445e-06
5.81951e-06
6.28399e-06
8.10825e-06
9.37004e-06
9.9931e-06
9.9929e-06
9.99278e-06
9.9927e-06
9.99272e-06
9.9927e-06
9.9927e-06
9.99267e-06
9.99265e-06
9.99261e-06
9.99258e-06
9.99256e-06
9.99256e-06
9.99256e-06
9.99255e-06
9.99256e-06
9.99257e-06
9.99259e-06
9.99259e-06
9.99257e-06
9.99257e-06
9.99258e-06
9.9926e-06
9.99263e-06
9.99265e-06
9.99266e-06
9.99265e-06
9.99262e-06
9.99259e-06
9.99257e-06
9.99257e-06
9.99258e-06
9.99259e-06
9.99261e-06
9.99264e-06
9.99266e-06
9.99268e-06
9.99268e-06
9.99268e-06
9.99267e-06
9.99267e-06
9.99267e-06
9.99268e-06
9.99268e-06
9.99269e-06
9.9927e-06
9.9927e-06
9.99269e-06
9.99268e-06
9.99268e-06
9.99267e-06
9.99267e-06
9.99267e-06
9.99267e-06
9.99267e-06
9.99268e-06
9.99268e-06
9.9927e-06
9.99271e-06
9.99269e-06
9.99267e-06
9.99268e-06
9.99269e-06
9.9927e-06
9.99265e-06
9.99258e-06
9.99257e-06
9.99261e-06
9.99268e-06
9.99262e-06
9.99257e-06
9.9926e-06
9.99264e-06
9.99276e-06
9.99266e-06
9.99268e-06
9.9928e-06
9.99285e-06
9.99268e-06
9.99264e-06
9.99261e-06
9.99261e-06
9.99264e-06
4.10328e-06
6.53113e-06
4.34455e-09
3.52347e-09
8.74777e-09
6.0421e-08
4.73657e-08
4.8075e-08
4.76396e-08
4.43974e-08
3.99752e-08
3.84076e-08
3.68892e-08
3.37945e-08
3.0569e-08
2.7901e-08
2.58753e-08
2.47549e-08
2.41335e-08
2.33129e-08
2.21131e-08
2.09317e-08
2.01636e-08
1.97946e-08
1.94262e-08
1.89346e-08
1.85366e-08
1.82518e-08
1.78811e-08
1.74387e-08
1.66099e-08
1.53807e-08
1.46996e-08
1.51347e-08
1.66187e-08
1.78824e-08
1.70249e-08
1.61584e-08
1.6568e-08
1.71582e-08
1.79096e-08
1.79346e-08
1.71978e-08
1.75849e-08
1.88436e-08
1.95075e-08
1.87008e-08
1.76103e-08
1.77316e-08
1.80247e-08
1.85219e-08
1.88643e-08
1.8725e-08
1.8779e-08
1.97746e-08
1.96842e-08
1.92508e-08
2.04102e-08
2.03388e-08
1.82746e-08
1.81767e-08
1.97871e-08
2.13817e-08
1.98508e-08
2.0278e-08
2.20805e-08
2.36926e-08
2.38505e-08
2.47447e-08
2.73912e-08
2.94918e-08
2.80465e-08
2.65402e-08
2.98759e-08
3.84322e-08
5.12422e-08
4.9953e-08
4.685e-08
4.43437e-08
4.73802e-08
6.86404e-08
1.03427e-07
6.33827e-08
7.41206e-08
2.11751e-07
2.04928e-07
1.56701e-07
4.62187e-08
2.29052e-08
1.70377e-08
1.53849e-08
1.32261e-08
1.62323e-08
1.58038e-08
1.66823e-08
3.0993e-08
3.29273e-08
7.37902e-08
9.27559e-08
1.21257e-07
1.69296e-07
1.94377e-06
7.54468e-07
3.18815e-07
2.11283e-07
1.02671e-07
8.03127e-08
1.45212e-07
1.18775e-07
6.41552e-08
7.85652e-08
5.67253e-08
4.19986e-08
2.67063e-08
3.28197e-08
7.78029e-08
7.96693e-08
8.01757e-08
8.15057e-08
7.13364e-08
8.32873e-08
1.33437e-07
1.14656e-07
9.94148e-08
7.01709e-08
7.74133e-08
8.91856e-08
1.22565e-07
1.1545e-07
8.53209e-08
3.87285e-08
4.5742e-08
1.37182e-07
1.21025e-07
1.19595e-07
1.19052e-07
1.15515e-07
7.75705e-08
8.27567e-08
1.20892e-07
1.21426e-07
1.24127e-07
1.26016e-07
1.16997e-07
1.19734e-07
1.30416e-07
1.29107e-07
1.30539e-07
1.34459e-07
1.38584e-07
1.41974e-07
1.46281e-07
1.4814e-07
1.51947e-07
1.54967e-07
1.60771e-07
1.6588e-07
1.7179e-07
1.77078e-07
1.80414e-07
1.85548e-07
1.93708e-07
2.04387e-07
2.10981e-07
2.13556e-07
2.24337e-07
2.41347e-07
2.51191e-07
2.53119e-07
2.67146e-07
2.93179e-07
3.15227e-07
3.16972e-07
3.34251e-07
3.70837e-07
4.05239e-07
4.03737e-07
4.41887e-07
4.96146e-07
5.41694e-07
5.652e-07
6.23194e-07
7.04198e-07
7.56634e-07
8.16226e-07
8.99884e-07
9.69204e-07
1.02008e-06
1.05818e-06
1.06931e-06
1.03091e-06
9.56519e-07
8.92888e-07
8.27243e-07
7.66401e-07
7.08754e-07
6.579e-07
6.16815e-07
5.71578e-07
5.30611e-07
4.99601e-07
4.72618e-07
4.51542e-07
4.3223e-07
4.12599e-07
3.95856e-07
3.80889e-07
3.66218e-07
3.50886e-07
3.36225e-07
3.27916e-07
3.19498e-07
3.11469e-07
3.04791e-07
2.96991e-07
2.90464e-07
2.84947e-07
2.7935e-07
2.73679e-07
2.68442e-07
2.63554e-07
2.59435e-07
2.56098e-07
2.5323e-07
2.50428e-07
2.47191e-07
2.4394e-07
2.40999e-07
2.38713e-07
2.37158e-07
2.35751e-07
2.3463e-07
2.33708e-07
2.32107e-07
2.30216e-07
2.28755e-07
2.27681e-07
2.26806e-07
2.26199e-07
2.25799e-07
2.25279e-07
2.24959e-07
2.2538e-07
2.2583e-07
2.26055e-07
2.26143e-07
2.26227e-07
2.26602e-07
2.27172e-07
2.27866e-07
2.28783e-07
2.29936e-07
2.31234e-07