/*--------------------------------*- C++ -*----------------------------------*\
| =========                 |                                                 |
| \\      /  F ield         | OpenFOAM: The Open Source CFD Toolbox           |
|  \\    /   O peration     | Version:  v2006                                 |
|   \\  /    A nd           | Website:  www.openfoam.com                      |
|    \\/     M anipulation  |                                                 |
\*---------------------------------------------------------------------------*/
FoamFile
{
    version     2.0;
    format      ascii;
    class       volScalarField;
    location    "1.9";
    object      omega;
}
// * * * * * * * * * * * * * * * * * * * * * * * * * * * * * * * * * * * * * //

dimensions      [0 0 -1 0 0 0 0];


internalField   nonuniform List<scalar> 
33000
(
0.803363
0.803356
0.803356
0.80334
0.803337
0.803333
0.803328
0.803325
0.803323
0.803324
0.803327
0.803332
0.803335
0.803338
0.803336
0.803335
0.803337
0.80334
0.803346
0.803355
0.803361
0.803361
0.803365
0.803376
0.80339
0.803399
0.803406
0.803412
0.803422
0.803436
0.803443
0.803446
0.803451
0.803465
0.803481
0.803488
0.803484
0.803488
0.803504
0.803511
0.803519
0.803515
0.803501
0.803494
0.803496
0.803486
0.803464
0.803448
0.803437
0.803423
0.803402
0.803383
0.803367
0.803354
0.803342
0.803328
0.803313
0.803301
0.803289
0.803272
0.803252
0.803235
0.803223
0.803206
0.803187
0.803165
0.803145
0.803128
0.803107
0.803083
0.803059
0.803028
0.802989
0.802934
0.802879
0.802803
0.802692
0.802553
0.802463
0.802384
0.80238
0.80237
0.802384
0.802391
0.802403
0.802403
0.80239
0.802386
0.802385
0.802386
0.802383
0.80238
0.802373
0.802365
0.802356
0.802339
0.802321
0.80228
0.802255
0.802186
0.802194
0.80218
0.802193
0.802188
0.802191
0.802198
0.802198
0.802195
0.802193
0.802192
0.80219
0.802187
0.802184
0.802175
0.802165
0.802139
0.802124
0.802066
0.802077
0.802065
0.802075
0.802073
0.802077
0.802084
0.802085
0.802085
0.802085
0.802084
0.802084
0.802083
0.80208
0.802078
0.802075
0.802072
0.802069
0.802065
0.802061
0.802056
0.802052
0.802047
0.802042
0.802037
0.802031
0.802025
0.802018
0.802012
0.802005
0.801998
0.80199
0.801982
0.801974
0.801966
0.801958
0.80195
0.801941
0.801934
0.801926
0.801917
0.801909
0.801901
0.801894
0.801886
0.801878
0.80187
0.801862
0.801855
0.801847
0.801839
0.801831
0.801824
0.801816
0.801808
0.801801
0.801793
0.801785
0.801778
0.80177
0.801763
0.801755
0.801748
0.801741
0.801733
0.801726
0.801718
0.801711
0.801704
0.801697
0.801689
0.801682
0.801675
0.801668
0.801661
0.801654
0.801647
0.80164
0.801633
0.801626
0.801619
0.801612
0.801605
0.801598
0.801592
0.801585
0.801578
0.801571
0.801565
0.801558
0.801552
0.801545
0.801539
0.801532
0.801526
0.801519
0.801513
0.801507
0.8015
0.801494
0.801488
0.801482
0.801476
0.80147
0.801464
0.801458
0.801452
0.801446
0.80144
0.801434
0.801428
0.801422
0.801416
0.80141
0.801405
0.801399
0.801393
0.801387
0.801381
0.801376
0.80137
0.801364
0.801358
0.801353
0.801347
0.801341
0.801336
0.80133
0.801325
0.801319
0.801314
0.801309
0.801304
0.801299
0.801294
0.801289
0.801285
0.80128
0.801275
0.801271
0.801267
0.801262
0.801258
0.801254
0.80125
0.801246
0.801242
0.801238
0.801234
0.80123
0.801227
0.801223
0.80122
0.801216
0.801213
0.80121
0.801207
0.801203
0.8012
0.801197
0.801194
0.801192
0.801189
0.801186
0.801183
0.801181
0.801178
0.801176
0.801173
0.801171
0.801169
0.801166
0.801164
0.801162
0.80116
0.801158
0.801156
0.801154
0.801152
0.80115
0.801148
0.801146
0.801144
0.801143
0.801141
0.801139
0.801138
0.801136
0.801135
0.801133
0.801132
0.801131
0.801129
0.801128
0.801127
0.801126
0.801124
0.801123
0.801122
0.801121
0.80112
0.801119
0.801118
0.801117
0.801116
0.801115
0.801114
0.801113
0.801112
0.801112
0.801111
0.80111
0.801109
0.801109
0.801108
0.801107
0.801107
0.801106
0.801105
0.801105
0.801104
0.801104
0.801103
0.801103
0.801102
0.801102
0.801101
0.801101
0.8011
0.8011
0.801099
0.801099
0.801098
0.801098
0.801098
0.801097
0.801097
0.801097
0.801096
0.801096
0.801096
0.801095
0.801095
0.801095
0.801094
0.801094
0.801094
0.801094
0.801093
0.801093
0.801093
0.801093
0.801092
0.801092
0.801092
0.801092
0.801091
0.801091
0.801091
0.801091
0.801091
0.80109
0.80109
0.80109
0.80109
0.80109
0.801089
0.801089
0.801089
0.801089
0.801089
0.801089
0.801089
0.801088
0.801088
0.801088
0.801088
0.801088
0.801088
0.801088
0.801087
0.801087
0.801087
0.801087
0.801087
0.801087
0.801087
0.801087
0.801086
0.801086
0.801086
0.801086
0.801086
0.801086
0.801086
0.801086
0.801086
0.801086
0.801085
0.801085
0.801085
0.801085
0.801085
0.801085
0.801085
0.801085
0.801085
0.801085
0.801085
0.801085
0.801085
0.801084
0.801084
0.801084
0.801084
0.801084
0.801084
0.801084
0.801084
0.801084
0.801084
0.801084
0.801084
0.801084
0.801084
0.801084
0.801084
0.801084
0.801084
0.801084
0.801084
0.801084
0.801084
0.801084
0.801084
0.801084
0.801084
0.801084
0.801084
0.801084
0.801084
0.801084
0.801084
0.801084
0.801084
0.801084
0.801084
0.801084
0.801084
0.801084
0.801084
0.801084
0.801085
0.801085
0.801085
0.801086
0.801086
0.801086
0.801085
0.801085
0.801085
0.801085
0.801085
0.801085
0.801085
0.801085
0.801085
0.801085
0.801084
0.801084
0.801084
0.801084
0.801084
0.801084
0.801084
0.801084
0.801084
0.801084
0.801084
0.801084
0.801084
0.801084
0.801084
0.801084
0.801084
0.801084
0.801084
0.801084
0.801084
0.801084
0.801084
0.801084
0.801084
0.801084
0.801084
0.801084
0.801084
0.801084
0.801084
0.801084
0.801084
0.801084
0.801084
0.801084
0.801084
0.801085
0.801085
0.801085
0.801085
0.801085
0.801085
0.801085
0.801085
0.801085
0.801085
0.801084
0.801084
0.801084
0.801084
0.801084
0.801084
0.801084
0.801084
0.801084
0.801084
0.801084
0.801084
0.801084
0.801084
0.801084
0.801084
0.801084
0.801084
0.0199124
0.0190078
0.0160834
0.0156282
0.0160039
0.0161019
0.0160598
0.0160629
0.0161348
0.0163088
0.0166269
0.0170535
0.017493
0.0177901
0.0178835
0.0180166
0.0182201
0.018486
0.0188384
0.0192184
0.0194167
0.0193123
0.0191787
0.0193168
0.0196854
0.0199135
0.0199502
0.0199366
0.0201061
0.0203769
0.02018
0.0196561
0.0194351
0.0199419
0.0202091
0.0197795
0.0188425
0.0186807
0.0196948
0.0200972
0.0199414
0.0189209
0.017556
0.0175959
0.0183922
0.0179827
0.0164383
0.0159869
0.0163162
0.0162591
0.0152425
0.0142363
0.0138479
0.0138185
0.0140449
0.0139543
0.0137551
0.0141015
0.0146206
0.0141672
0.0132417
0.0130634
0.0135784
0.0132128
0.0123252
0.0112628
0.0105717
0.010305
0.00975907
0.0092802
0.00916376
0.00929001
0.00983151
0.0106425
0.0118889
0.0132983
0.0138615
0.0128636
0.0107836
0.00962755
0.0104018
0.0131183
0.0169322
0.0172772
0.0168367
0.0100793
0.00865757
0.0104612
0.0109452
0.0112666
0.0106912
0.00983068
0.00846042
0.00797485
0.00726938
0.00691949
0.00690564
0.00692037
0.00690021
0.00687545
0.00718687
0.00997706
0.0121784
0.0103083
0.012688
0.0121792
0.00969918
0.00930341
0.00981683
0.00998811
0.00938352
0.00904916
0.00803629
0.0069967
0.00689122
0.00692596
0.00693954
0.00685381
0.00699087
0.00969927
0.0117986
0.0104246
0.0126437
0.0121103
0.0102798
0.0105461
0.0103502
0.0103123
0.0104006
0.0100349
0.00963188
0.0098287
0.00972505
0.00959134
0.00942566
0.00928282
0.00942533
0.00933722
0.00923748
0.00908447
0.00910027
0.00904616
0.00895682
0.00888544
0.00882871
0.00873043
0.00861549
0.00853977
0.00852716
0.0084573
0.00839287
0.00831133
0.00819513
0.00811169
0.00811806
0.00806943
0.00799545
0.0079089
0.00786511
0.00785255
0.00780355
0.00773843
0.00768555
0.00767539
0.00764435
0.00761005
0.0075621
0.00753336
0.00751122
0.00748793
0.00745009
0.00741736
0.00739059
0.0073697
0.00734365
0.00731769
0.00729717
0.00727633
0.00725705
0.00723792
0.00722026
0.00720315
0.00718434
0.00717073
0.00715651
0.00714479
0.00713348
0.00712586
0.00711963
0.00711248
0.00710672
0.00710199
0.00709755
0.00709433
0.00709226
0.0070909
0.00708988
0.00708847
0.00708791
0.00708796
0.00708848
0.00708914
0.00708916
0.00708928
0.00708998
0.00709107
0.00709249
0.00709397
0.00709447
0.0070951
0.00709619
0.00709816
0.00710055
0.00710233
0.0071042
0.00710661
0.00710951
0.00711245
0.00711482
0.00711712
0.00712004
0.00712311
0.00712595
0.00712814
0.00713069
0.00713363
0.00713638
0.00713905
0.00714137
0.00714358
0.007146
0.00714882
0.00715181
0.00715445
0.00715656
0.00715899
0.00716184
0.0071651
0.00716796
0.00717045
0.00717303
0.00717589
0.00717854
0.00718114
0.00718435
0.00718772
0.0071907
0.00719323
0.00719606
0.00719934
0.0072026
0.00720512
0.00720723
0.00720957
0.00721242
0.00721555
0.00721834
0.00722039
0.00722214
0.00722458
0.0072279
0.00723118
0.00723453
0.00723804
0.00724162
0.00724475
0.00724763
0.00725055
0.00725357
0.00725601
0.00725813
0.00726053
0.0072634
0.00726624
0.00726929
0.00727261
0.007276
0.00727935
0.00728298
0.00728694
0.00729068
0.00729424
0.00729721
0.00729929
0.0073009
0.00730242
0.00730385
0.00730477
0.00730546
0.00730631
0.00730758
0.00730933
0.00731111
0.00731354
0.00731666
0.00732035
0.00732397
0.00732734
0.00733064
0.00733395
0.00733682
0.00733946
0.00734179
0.00734366
0.00734503
0.00734582
0.00734659
0.00734754
0.00734858
0.00734986
0.00735158
0.0073536
0.00735581
0.00735828
0.00736075
0.00736293
0.00736496
0.00736662
0.00736786
0.007369
0.00737007
0.00737098
0.007372
0.00737286
0.00737387
0.00737554
0.00737786
0.00738088
0.0073837
0.00738586
0.00738735
0.00738832
0.00738908
0.00738902
0.00738798
0.00738648
0.00738568
0.00738596
0.0073867
0.00738741
0.00738824
0.00738964
0.00739135
0.00739257
0.00739289
0.00739264
0.0073921
0.00739121
0.00738996
0.00738876
0.00738812
0.00738803
0.00738843
0.00738945
0.00739093
0.00739225
0.00739278
0.00739255
0.00739188
0.00739086
0.00738952
0.00738823
0.00738761
0.00738802
0.0073892
0.00739054
0.00739171
0.00739249
0.00739261
0.00739189
0.00739043
0.00738874
0.00738741
0.00738674
0.00738658
0.00738658
0.00738658
0.00738664
0.0073865
0.00738559
0.00738377
0.00738166
0.00738015
0.00737972
0.00738038
0.00738177
0.00738309
0.00738362
0.00738322
0.00738208
0.00738069
0.00737966
0.00737961
0.00738066
0.00738244
0.00738448
0.00738603
0.00738636
0.00738514
0.00738296
0.00738107
0.00738039
0.00738065
0.00738103
0.00738138
0.00738154
0.00738068
0.00737913
0.00737812
0.00737824
0.00737914
0.00737995
0.00737972
0.00737846
0.00737724
0.00737636
0.00737564
0.00737573
0.00737592
0.00737528
0.0073745
0.00737582
0.00737725
0.00737968
0.0073801
0.00737536
0.00737477
0.0073721
0.00736784
0.00736365
0.00736182
0.00736287
0.00735975
0.00735983
0.00736032
0.00736329
0.00736476
0.00736359
0.00736386
0.00735978
0.00736242
0.00736955
0.00736889
0.00736771
0.00736343
0.00736527
0.00736373
0.00735822
0.00735579
0.00735397
0.00735762
0.00735466
0.00735917
0.00736075
0.00736587
0.00736086
0.00735544
0.00736397
0.00735515
0.00735405
0.00736507
0.00736572
0.00740092
0.00738222
0.00737533
0.00737984
0.00735366
0.00735725
0.00735294
0.00735643
0.00736865
0.00736933
0.00737729
0.00738173
0.00738519
0.00739452
0.00740516
0.00741235
0.00741614
0.00741881
0.00741711
0.00740961
0.0074011
0.00739722
0.00739821
0.00739878
0.00739528
0.00738879
0.00738269
0.00737919
0.00737923
0.00738248
0.00738754
0.00739259
0.00739631
0.00739799
0.00739762
0.00739498
0.00738947
0.00738082
0.00736868
0.00735575
0.00735317
0.00735303
0.00735293
0.00735285
0.0073528
0.00735277
0.00735277
0.0073528
0.00735287
0.00735299
0.00735316
0.00735339
0.00735516
0.00735853
0.00735797
0.00735456
0.00735341
0.00735321
0.00735304
0.00735294
0.007353
0.00735325
0.0073553
0.00736233
0.0073542
0.00735321
0.0073532
0.00735416
0.00739166
0.00742427
0.00740935
0.00736497
0.00735821
0.00739284
0.0074301
0.00740806
0.00735461
0.00735363
0.00736218
0.00736496
0.00735315
0.00735317
0.00735584
0.00739318
0.00737668
0.00741925
0.00741825
0.00746569
0.00252413
0.00201122
0.0014963
0.00140838
0.00142013
0.00142376
0.00142419
0.00142611
0.00143023
0.00143766
0.00144974
0.00146497
0.0014804
0.00149163
0.00149727
0.00150387
0.0015117
0.00152146
0.00153493
0.00154861
0.00155491
0.00155096
0.00154731
0.00155384
0.00156621
0.00157242
0.00157415
0.00157685
0.00158865
0.00160798
0.00160259
0.00156731
0.00153617
0.0015417
0.00156643
0.00156634
0.00153056
0.00151305
0.00152956
0.00154178
0.00154838
0.00150685
0.00144824
0.00144288
0.00146855
0.00146014
0.00141096
0.00139588
0.00139995
0.00138965
0.00135396
0.00132405
0.0013105
0.0013032
0.00130248
0.00129794
0.00128772
0.00129189
0.0013049
0.00129151
0.00126234
0.00125724
0.00127633
0.00126472
0.00123967
0.0012045
0.0011899
0.00118542
0.00117977
0.00117648
0.00117481
0.00117545
0.00118788
0.00120338
0.00122515
0.00124802
0.00128113
0.00131464
0.00135788
0.00139689
0.00148949
0.00162178
0.00185997
0.00203558
0.00191451
0.00164047
0.00146418
0.00142414
0.00132328
0.00120872
0.00113848
0.00112296
0.00108586
0.00107363
0.00107065
0.00106646
0.00106311
0.00106902
0.00107251
0.0010685
0.00107524
0.00107547
0.00109222
0.00111581
0.00120165
0.00120576
0.00113832
0.00112922
0.00114582
0.00113627
0.00110837
0.00109826
0.0010821
0.00106288
0.00105795
0.00106062
0.00106637
0.00106296
0.00106498
0.00106214
0.00107001
0.00110254
0.00119172
0.00119025
0.00112354
0.00114547
0.00113039
0.00111476
0.00111632
0.00110915
0.00109688
0.00109952
0.00109658
0.00109299
0.00109068
0.00108924
0.00109017
0.00108756
0.00108582
0.00108341
0.0010828
0.00108084
0.00107888
0.00107806
0.00107622
0.00107391
0.00107191
0.00107061
0.00106957
0.00106797
0.00106649
0.00106503
0.00106321
0.00106178
0.0010611
0.00106002
0.00105875
0.00105741
0.00105652
0.00105597
0.00105516
0.00105419
0.00105324
0.00105276
0.00105226
0.00105174
0.00105087
0.00105036
0.00105004
0.00104977
0.00104908
0.0010486
0.00104826
0.00104804
0.00104759
0.0010473
0.00104713
0.00104689
0.00104667
0.0010465
0.00104638
0.00104629
0.00104621
0.00104619
0.00104612
0.00104607
0.00104603
0.00104607
0.00104612
0.0010462
0.0010463
0.00104639
0.00104646
0.00104653
0.00104664
0.00104676
0.00104687
0.00104693
0.00104698
0.00104705
0.00104713
0.0010472
0.00104728
0.00104739
0.00104751
0.00104756
0.0010476
0.00104764
0.00104769
0.00104772
0.00104776
0.00104779
0.00104786
0.00104795
0.00104805
0.00104814
0.00104822
0.00104826
0.00104827
0.0010483
0.00104837
0.00104847
0.00104858
0.00104863
0.00104868
0.00104873
0.00104879
0.00104887
0.00104892
0.00104893
0.00104895
0.00104899
0.00104905
0.00104915
0.00104924
0.00104931
0.00104938
0.00104945
0.00104952
0.00104957
0.00104962
0.00104963
0.00104964
0.00104966
0.00104971
0.00104978
0.00104985
0.00104989
0.00104996
0.00105004
0.0010501
0.00105017
0.00105025
0.00105034
0.00105041
0.00105038
0.00105032
0.00105029
0.00105031
0.00105039
0.0010505
0.00105062
0.00105072
0.00105082
0.00105094
0.00105104
0.00105113
0.00105121
0.00105129
0.00105134
0.00105136
0.0010514
0.00105145
0.00105153
0.00105164
0.00105174
0.00105184
0.00105196
0.00105211
0.00105226
0.00105242
0.00105257
0.00105271
0.00105283
0.00105292
0.00105301
0.0010531
0.0010532
0.00105331
0.00105341
0.00105351
0.00105362
0.00105377
0.00105393
0.0010541
0.00105425
0.0010544
0.00105455
0.00105469
0.00105483
0.00105495
0.00105502
0.00105509
0.00105516
0.00105524
0.0010553
0.00105536
0.00105542
0.00105549
0.00105558
0.00105566
0.00105573
0.00105581
0.00105589
0.00105598
0.00105607
0.00105616
0.00105626
0.00105635
0.00105644
0.00105655
0.00105667
0.00105679
0.00105692
0.00105706
0.0010572
0.00105732
0.00105744
0.00105758
0.00105773
0.00105785
0.00105796
0.00105809
0.00105824
0.00105838
0.00105851
0.00105865
0.00105878
0.00105893
0.00105908
0.00105923
0.00105938
0.00105951
0.00105966
0.00105981
0.00105997
0.00106014
0.00106029
0.00106045
0.00106062
0.00106077
0.00106091
0.00106105
0.00106118
0.00106133
0.00106147
0.0010616
0.00106172
0.00106187
0.00106203
0.00106218
0.00106234
0.0010625
0.00106263
0.00106277
0.00106291
0.00106304
0.00106315
0.00106327
0.00106339
0.00106351
0.00106361
0.00106371
0.00106382
0.00106393
0.00106403
0.0010641
0.00106417
0.00106426
0.00106437
0.00106448
0.00106458
0.00106468
0.00106479
0.00106487
0.00106494
0.00106502
0.0010651
0.00106518
0.00106527
0.00106536
0.00106547
0.00106558
0.00106567
0.00106574
0.00106582
0.00106589
0.00106597
0.00106606
0.00106614
0.00106621
0.00106626
0.0010663
0.00106633
0.00106636
0.00106642
0.00106647
0.00106653
0.00106657
0.0010666
0.00106662
0.00106665
0.00106666
0.00106667
0.00106667
0.00106669
0.00106669
0.00106669
0.00106669
0.00106668
0.00106668
0.00106669
0.00106669
0.00106668
0.00106671
0.00106664
0.00106658
0.00106654
0.00106653
0.0010665
0.00106648
0.00106647
0.00106642
0.00106642
0.00106642
0.00106646
0.00106648
0.00106646
0.00106646
0.0010664
0.00106644
0.00106655
0.00106653
0.00106651
0.00106643
0.00106645
0.00106644
0.00106637
0.00106634
0.00106632
0.00106638
0.00106631
0.00106637
0.00106641
0.00106643
0.00106636
0.00106632
0.00106645
0.00106639
0.00106656
0.0010624
0.00106272
0.00105533
0.0010537
0.00106346
0.00106385
0.00106486
0.00106544
0.00106614
0.00106638
0.00106642
0.0010664
0.00106652
0.00106661
0.00106672
0.0010669
0.00106703
0.00106708
0.00106714
0.0010672
0.0010672
0.00106712
0.00106703
0.00106701
0.00106703
0.00106701
0.00106692
0.00106681
0.00106672
0.00106668
0.00106669
0.00106677
0.00106687
0.00106695
0.001067
0.001067
0.00106697
0.0010669
0.00106679
0.00106665
0.00106646
0.00106629
0.00106627
0.00106627
0.00106627
0.00106627
0.00106626
0.00106626
0.00106627
0.00106627
0.00106627
0.00106627
0.00106627
0.00106628
0.00106629
0.00106631
0.0010663
0.00106628
0.00106627
0.00106627
0.00106627
0.00106627
0.00106627
0.00106628
0.00106628
0.00106634
0.00106628
0.00106627
0.00106628
0.00106639
0.00106697
0.00106725
0.0010669
0.00106641
0.00106651
0.00106708
0.00106736
0.00106682
0.0010663
0.00106635
0.00106653
0.00106633
0.00106628
0.0010663
0.00106649
0.00106684
0.00106673
0.00106716
0.00106409
0.0010673
0.00237578
0.00179658
0.00131404
0.00122256
0.00122056
0.00122047
0.00121975
0.00121934
0.00121924
0.00121922
0.00121925
0.00121955
0.00122029
0.00122123
0.001222
0.0012227
0.00122325
0.001224
0.00122519
0.00122607
0.00122539
0.00122318
0.00122178
0.00122238
0.00122298
0.00122206
0.0012205
0.00121868
0.0012196
0.00122348
0.00122118
0.00121107
0.00120116
0.00120066
0.00120745
0.00120818
0.00119996
0.00119338
0.00119023
0.00119072
0.0011924
0.00118476
0.00117412
0.00117055
0.00117304
0.00117213
0.00116654
0.00116362
0.00116096
0.00115619
0.0011522
0.00115073
0.0011488
0.00114606
0.00114292
0.00114047
0.00113825
0.00113739
0.0011353
0.00113215
0.00112852
0.00112901
0.00112715
0.00112382
0.0011235
0.00112053
0.0011188
0.0011185
0.00112057
0.00112434
0.00112398
0.00112234
0.00112599
0.00113052
0.00113307
0.00112515
0.00111687
0.00111286
0.00112332
0.00117199
0.00121199
0.00128469
0.00134088
0.00141947
0.00148955
0.00167494
0.00191723
0.00203533
0.00186047
0.00150105
0.00132139
0.00118417
0.00112059
0.00107012
0.0010564
0.00103472
0.0010299
0.00103804
0.00104506
0.00104192
0.00104622
0.001053
0.00105039
0.00105742
0.00105218
0.00106074
0.00107912
0.00110383
0.00113231
0.0011123
0.00106242
0.00106168
0.0010483
0.00104529
0.00104163
0.00104041
0.00103146
0.00103103
0.00103473
0.00104317
0.00104065
0.00104286
0.00104017
0.0010492
0.00105954
0.00109874
0.00108482
0.00104306
0.00104286
0.00103363
0.00103298
0.00103045
0.00102876
0.00102283
0.00102232
0.00102213
0.00102234
0.00102268
0.00102296
0.00102263
0.00102171
0.00102125
0.00102067
0.00102056
0.00102034
0.00101997
0.00101961
0.00101916
0.0010187
0.00101854
0.00101827
0.00101795
0.00101777
0.00101756
0.00101722
0.0010169
0.00101668
0.00101655
0.00101634
0.00101608
0.00101587
0.0010158
0.00101566
0.00101542
0.00101526
0.00101517
0.0010151
0.0010149
0.00101474
0.00101472
0.00101469
0.00101452
0.00101437
0.00101438
0.00101438
0.00101423
0.00101416
0.00101416
0.00101413
0.00101406
0.00101404
0.00101406
0.00101405
0.00101403
0.00101403
0.00101402
0.001014
0.00101398
0.00101397
0.00101397
0.00101397
0.00101398
0.00101396
0.00101394
0.00101391
0.00101387
0.00101384
0.00101379
0.00101374
0.00101367
0.00101359
0.0010135
0.00101341
0.00101333
0.00101326
0.00101319
0.00101311
0.00101303
0.00101291
0.00101277
0.00101264
0.00101251
0.0010124
0.00101229
0.00101217
0.00101206
0.00101194
0.00101182
0.00101169
0.00101156
0.00101144
0.00101131
0.00101118
0.00101106
0.00101093
0.00101079
0.00101065
0.0010105
0.00101036
0.00101022
0.00101009
0.00100997
0.00100986
0.00100973
0.0010096
0.00100948
0.00100936
0.00100924
0.00100913
0.00100901
0.00100887
0.00100873
0.00100858
0.00100845
0.00100832
0.0010082
0.00100809
0.00100797
0.00100786
0.00100775
0.00100763
0.00100751
0.00100739
0.00100726
0.00100714
0.00100701
0.00100687
0.00100674
0.00100662
0.0010065
0.00100639
0.00100628
0.00100617
0.00100607
0.00100596
0.00100586
0.00100575
0.00100564
0.00100552
0.00100541
0.0010053
0.0010052
0.00100509
0.00100499
0.00100489
0.00100479
0.00100469
0.0010046
0.00100451
0.00100442
0.00100433
0.00100424
0.00100415
0.00100406
0.00100396
0.00100387
0.00100377
0.00100368
0.00100359
0.0010035
0.00100342
0.00100334
0.00100327
0.0010032
0.00100313
0.00100307
0.001003
0.00100294
0.00100287
0.00100281
0.00100274
0.00100268
0.00100261
0.00100255
0.00100248
0.00100242
0.00100235
0.00100229
0.00100222
0.00100216
0.00100211
0.00100205
0.001002
0.00100195
0.0010019
0.00100185
0.0010018
0.00100175
0.0010017
0.00100165
0.0010016
0.00100155
0.00100151
0.00100146
0.00100142
0.00100137
0.00100133
0.0010013
0.00100126
0.00100123
0.00100119
0.00100115
0.00100112
0.00100108
0.00100104
0.001001
0.00100097
0.00100094
0.00100092
0.00100089
0.00100087
0.00100085
0.00100083
0.00100081
0.00100079
0.00100077
0.00100075
0.00100074
0.00100072
0.00100071
0.00100069
0.00100068
0.00100067
0.00100066
0.00100066
0.00100065
0.00100064
0.00100063
0.00100063
0.00100062
0.00100061
0.00100061
0.00100061
0.0010006
0.0010006
0.0010006
0.00100059
0.00100059
0.00100059
0.00100058
0.00100058
0.00100058
0.00100058
0.00100058
0.00100058
0.00100057
0.00100057
0.00100057
0.00100057
0.00100057
0.00100057
0.00100057
0.00100057
0.00100057
0.00100057
0.00100057
0.00100057
0.00100057
0.00100057
0.00100057
0.00100057
0.00100057
0.00100057
0.00100057
0.00100057
0.00100057
0.00100057
0.00100057
0.00100057
0.00100057
0.00100058
0.00100058
0.00100058
0.00100058
0.00100058
0.00100058
0.00100058
0.00100058
0.00100058
0.00100058
0.00100058
0.00100058
0.00100058
0.00100058
0.00100058
0.00100058
0.00100058
0.00100058
0.00100058
0.00100058
0.00100058
0.00100058
0.00100058
0.00100058
0.00100057
0.00100057
0.00100057
0.00100057
0.00100057
0.00100057
0.00100057
0.00100057
0.00100057
0.00100057
0.00100057
0.00100057
0.00100057
0.00100057
0.00100057
0.00100057
0.00100057
0.00100057
0.00100057
0.00100057
0.00100057
0.00100057
0.00100057
0.00100057
0.00100057
0.00100057
0.00100057
0.00100057
0.00100057
0.00100057
0.00100057
0.00100058
0.00100058
0.00100059
0.00100059
0.00100075
0.00100072
0.00100054
0.00100044
0.00100042
0.00100054
0.00100055
0.00100055
0.00100055
0.00100056
0.00100057
0.00100057
0.00100057
0.00100057
0.00100057
0.00100057
0.00100057
0.00100057
0.00100057
0.00100057
0.00100058
0.00100058
0.00100058
0.00100058
0.00100058
0.00100058
0.00100058
0.00100057
0.00100057
0.00100057
0.00100057
0.00100058
0.00100058
0.00100058
0.00100058
0.00100058
0.00100057
0.00100057
0.00100057
0.00100057
0.00100057
0.00100057
0.00100057
0.00100057
0.00100057
0.00100057
0.00100057
0.00100057
0.00100057
0.00100057
0.00100057
0.00100057
0.00100057
0.00100057
0.00100057
0.00100057
0.00100057
0.00100057
0.00100057
0.00100057
0.00100057
0.00100057
0.00100057
0.00100057
0.00100057
0.00100057
0.00100057
0.00100057
0.00100057
0.00100057
0.00100057
0.00100058
0.00100058
0.00100057
0.00100057
0.00100057
0.00100058
0.00100058
0.00100057
0.00100058
0.00100058
0.00100058
0.00100058
0.00100059
0.00100058
0.00100057
0.00100058
0.00100058
0.00100058
0.00100057
0.0010006
0.00241727
0.00181321
0.00133277
0.00123113
0.00122421
0.00122336
0.00122142
0.00122087
0.00122115
0.00122154
0.00122134
0.00122132
0.00122211
0.00122358
0.00122522
0.00122619
0.00122636
0.00122629
0.00122639
0.00122641
0.00122593
0.00122492
0.00122376
0.00122275
0.00122168
0.00122044
0.00121944
0.00121888
0.00121955
0.00122143
0.00122085
0.00121543
0.00120756
0.00120229
0.00120269
0.00120228
0.00119758
0.00119278
0.00118865
0.00118639
0.00118469
0.00117975
0.00117417
0.00117097
0.00117042
0.00116992
0.00116717
0.00116441
0.00116111
0.00115754
0.00115481
0.00115244
0.00114887
0.00114703
0.00114458
0.00114081
0.00113997
0.00114081
0.00113785
0.00113343
0.00113098
0.0011333
0.00113055
0.00112586
0.00112387
0.0011237
0.00112246
0.00112017
0.00111895
0.00111995
0.00112081
0.00111894
0.00111828
0.00112033
0.00112105
0.00111372
0.00111098
0.00110741
0.00109655
0.00109324
0.00108797
0.00109876
0.00113277
0.00116375
0.0012086
0.00129684
0.00141578
0.00152462
0.00163155
0.00185305
0.00201737
0.00185055
0.00151508
0.00133668
0.00119053
0.00112324
0.00107298
0.00106126
0.00104103
0.00103171
0.00103509
0.0010389
0.00103766
0.00104452
0.00104817
0.00104094
0.00104395
0.00106059
0.00105698
0.00107253
0.00108898
0.00113031
0.00110956
0.00106033
0.00105855
0.00104881
0.00104685
0.00104178
0.00103772
0.00102862
0.00102912
0.00103269
0.00103971
0.00103843
0.00104169
0.00103962
0.00105008
0.00106079
0.00109905
0.00108521
0.00104393
0.00104325
0.00103283
0.00103144
0.00102395
0.00102865
0.00102699
0.00102153
0.0010214
0.00102184
0.00102163
0.00102172
0.00102116
0.00102026
0.00102022
0.00101997
0.00101956
0.00101918
0.00101886
0.00101852
0.00101832
0.00101806
0.00101779
0.00101752
0.00101728
0.00101703
0.00101679
0.00101661
0.00101643
0.00101623
0.001016
0.00101585
0.00101575
0.00101555
0.00101535
0.00101526
0.00101518
0.00101502
0.00101487
0.00101481
0.00101477
0.00101464
0.00101451
0.00101447
0.00101446
0.00101435
0.00101428
0.00101426
0.00101422
0.00101415
0.00101412
0.00101411
0.00101407
0.00101405
0.00101404
0.00101403
0.001014
0.00101398
0.00101398
0.00101398
0.00101395
0.00101393
0.0010139
0.00101386
0.00101381
0.00101377
0.00101374
0.00101371
0.00101366
0.0010136
0.00101351
0.00101341
0.00101331
0.00101321
0.00101312
0.00101304
0.00101297
0.00101289
0.00101279
0.00101267
0.00101252
0.00101237
0.00101224
0.00101211
0.00101198
0.00101186
0.00101175
0.00101163
0.00101152
0.00101139
0.00101126
0.00101112
0.00101098
0.00101084
0.00101072
0.00101059
0.00101045
0.00101031
0.00101017
0.00101002
0.00100988
0.00100976
0.00100964
0.00100952
0.00100939
0.00100926
0.00100914
0.00100901
0.0010089
0.00100877
0.00100864
0.0010085
0.00100836
0.00100823
0.00100811
0.00100798
0.00100786
0.00100774
0.00100762
0.00100749
0.00100737
0.00100724
0.00100711
0.00100699
0.00100687
0.00100674
0.00100662
0.00100649
0.00100636
0.00100623
0.00100611
0.00100599
0.00100588
0.00100576
0.00100566
0.00100555
0.00100543
0.00100532
0.00100521
0.00100509
0.00100498
0.00100488
0.00100477
0.00100467
0.00100457
0.00100447
0.00100437
0.00100428
0.00100418
0.00100409
0.00100399
0.0010039
0.0010038
0.0010037
0.0010036
0.0010035
0.0010034
0.0010033
0.0010032
0.00100311
0.00100303
0.00100295
0.00100287
0.0010028
0.00100273
0.00100266
0.00100259
0.00100253
0.00100246
0.0010024
0.00100233
0.00100227
0.0010022
0.00100213
0.00100206
0.00100199
0.00100192
0.00100185
0.00100179
0.00100172
0.00100166
0.00100161
0.00100155
0.00100149
0.00100144
0.00100139
0.00100134
0.00100129
0.00100123
0.00100118
0.00100112
0.00100107
0.00100102
0.00100098
0.00100093
0.00100089
0.00100084
0.00100081
0.00100077
0.00100073
0.00100069
0.00100065
0.00100061
0.00100057
0.00100052
0.00100048
0.00100044
0.00100041
0.00100038
0.00100036
0.00100033
0.00100031
0.00100028
0.00100026
0.00100024
0.00100022
0.00100019
0.00100017
0.00100015
0.00100014
0.00100012
0.00100011
0.00100009
0.00100008
0.00100007
0.00100006
0.00100005
0.00100004
0.00100003
0.00100002
0.00100001
0.001
0.000999995
0.000999989
0.000999984
0.000999978
0.000999973
0.000999967
0.000999961
0.000999956
0.000999951
0.000999946
0.000999942
0.000999938
0.000999935
0.000999931
0.000999927
0.000999924
0.000999921
0.000999918
0.000999915
0.000999913
0.00099991
0.000999908
0.000999906
0.000999904
0.000999902
0.000999899
0.000999897
0.000999896
0.000999894
0.000999893
0.000999891
0.00099989
0.000999889
0.000999888
0.000999886
0.000999885
0.000999884
0.000999883
0.000999882
0.000999881
0.00099988
0.000999879
0.000999878
0.000999878
0.000999877
0.000999876
0.000999876
0.000999875
0.000999874
0.000999873
0.000999873
0.000999874
0.000999873
0.000999873
0.000999873
0.000999875
0.000999874
0.000999871
0.000999871
0.00099987
0.00099987
0.000999869
0.000999868
0.000999868
0.000999868
0.000999868
0.000999868
0.000999867
0.000999867
0.000999867
0.000999867
0.000999867
0.000999866
0.000999866
0.000999866
0.000999866
0.000999866
0.000999865
0.000999865
0.000999865
0.000999865
0.000999865
0.000999865
0.000999865
0.000999865
0.000999865
0.000999865
0.000999867
0.000999865
0.000999873
0.000999875
0.000999925
0.000999938
0.000999972
0.00100024
0.00100021
0.000999948
0.000999937
0.00099991
0.000999909
0.000999878
0.000999876
0.000999868
0.000999866
0.000999868
0.000999871
0.000999871
0.000999872
0.000999868
0.000999867
0.000999867
0.000999866
0.000999864
0.000999864
0.000999864
0.000999864
0.000999864
0.000999864
0.000999865
0.000999866
0.000999866
0.000999865
0.000999864
0.000999864
0.000999864
0.000999866
0.000999868
0.000999871
0.000999872
0.000999871
0.000999868
0.000999866
0.000999864
0.000999864
0.000999864
0.000999865
0.000999865
0.000999866
0.000999866
0.000999866
0.000999866
0.000999866
0.000999865
0.000999865
0.000999865
0.000999866
0.000999868
0.000999869
0.00099987
0.00099987
0.000999868
0.000999867
0.000999867
0.000999867
0.000999867
0.000999866
0.000999866
0.000999867
0.000999868
0.000999868
0.00099987
0.000999872
0.00099987
0.000999868
0.000999868
0.000999868
0.000999868
0.000999867
0.000999866
0.000999867
0.000999868
0.000999867
0.000999868
0.000999872
0.000999867
0.000999882
0.000999871
0.000999867
0.000999872
0.0009999
0.000999873
0.000999867
0.00099987
0.000999869
0.000999866
0.000999869
0.000999954
0.000999907
0.00254354
0.00185396
0.00135021
0.00124085
0.00123087
0.00123112
0.00122904
0.00122866
0.00123016
0.00123226
0.00123151
0.00123021
0.00123122