/*--------------------------------*- C++ -*----------------------------------*\
| =========                 |                                                 |
| \\      /  F ield         | OpenFOAM: The Open Source CFD Toolbox           |
|  \\    /   O peration     | Version:  v2006                                 |
|   \\  /    A nd           | Website:  www.openfoam.com                      |
|    \\/     M anipulation  |                                                 |
\*---------------------------------------------------------------------------*/
FoamFile
{
    version     2.0;
    format      ascii;
    class       volScalarField;
    location    "1.9";
    object      p;
}
// * * * * * * * * * * * * * * * * * * * * * * * * * * * * * * * * * * * * * //

dimensions      [1 -1 -2 0 0 0 0];


internalField   nonuniform List<scalar> 
33000
(
7661.8
7659.9
7657.38
7655.08
7652.94
7650.94
7649.07
7647.35
7645.76
7644.29
7642.95
7641.74
7640.64
7639.67
7638.81
7638.06
7637.41
7636.87
7636.42
7636.07
7635.83
7635.68
7635.62
7635.62
7635.71
7635.87
7636.12
7636.44
7636.81
7637.24
7637.75
7638.31
7638.91
7639.56
7640.26
7641.01
7641.8
7642.62
7643.46
7644.33
7645.23
7646.17
7647.12
7648.08
7649.05
7650.03
7651.03
7652.02
7653.02
7654.02
7655.01
7656.01
7656.99
7657.96
7658.92
7659.87
7660.8
7661.71
7662.61
7663.49
7664.36
7665.2
7666.02
7666.81
7667.59
7668.34
7669.06
7669.75
7670.41
7671.04
7671.64
7672.21
7672.74
7673.25
7673.71
7674.14
7674.52
7674.83
7675.12
7675.65
7676.03
7676.32
7676.66
7676.92
7677.16
7677.37
7677.55
7677.66
7677.76
7677.81
7677.84
7677.83
7677.78
7677.69
7677.56
7677.41
7677.22
7677.01
7676.74
7676.45
7676.15
7675.8
7675.44
7675.04
7674.62
7674.18
7673.72
7673.24
7672.74
7672.22
7671.68
7671.13
7670.56
7669.99
7669.39
7668.81
7668.18
7667.56
7666.97
7666.33
7665.71
7665.08
7664.45
7663.83
7663.22
7662.61
7662.01
7661.41
7660.83
7660.25
7659.69
7659.13
7658.59
7658.07
7657.56
7657.07
7656.59
7656.14
7655.7
7655.28
7654.89
7654.51
7654.16
7653.84
7653.53
7653.25
7653
7652.78
7652.57
7652.4
7652.25
7652.13
7652.04
7651.97
7651.93
7651.91
7651.93
7651.97
7652.04
7652.13
7652.25
7652.4
7652.57
7652.77
7652.99
7653.24
7653.52
7653.82
7654.14
7654.49
7654.86
7655.25
7655.67
7656.11
7656.57
7657.06
7657.56
7658.09
7658.63
7659.19
7659.77
7660.37
7660.99
7661.63
7662.28
7662.94
7663.62
7664.32
7665.02
7665.74
7666.48
7667.22
7667.98
7668.74
7669.52
7670.3
7671.09
7671.89
7672.7
7673.51
7674.33
7675.15
7675.98
7676.81
7677.65
7678.49
7679.33
7680.17
7681.01
7681.86
7682.7
7683.55
7684.39
7685.23
7686.07
7686.91
7687.75
7688.58
7689.41
7690.24
7691.06
7691.88
7692.69
7693.5
7694.3
7695.1
7695.89
7696.67
7697.45
7698.22
7698.99
7699.74
7700.49
7701.23
7701.97
7702.69
7703.41
7704.12
7704.82
7705.51
7706.2
7706.87
7707.54
7708.19
7708.84
7709.48
7710.11
7710.73
7711.35
7711.95
7712.54
7713.13
7713.7
7714.27
7714.83
7715.38
7715.92
7716.45
7716.97
7717.48
7717.99
7718.48
7718.97
7719.45
7719.92
7720.38
7720.83
7721.28
7721.71
7722.14
7722.56
7722.97
7723.38
7723.78
7724.17
7724.55
7724.92
7725.29
7725.65
7726.01
7726.35
7726.69
7727.03
7727.36
7727.68
7727.99
7728.3
7728.6
7728.9
7729.19
7729.47
7729.75
7730.02
7730.29
7730.55
7730.81
7731.06
7731.3
7731.54
7731.78
7732.01
7732.24
7732.46
7732.68
7732.89
7733.1
7733.3
7733.5
7733.7
7733.89
7734.07
7734.26
7734.44
7734.61
7734.79
7734.96
7735.12
7735.28
7735.44
7735.6
7735.75
7735.9
7736.04
7736.19
7736.33
7736.46
7736.6
7736.73
7736.86
7736.98
7737.11
7737.23
7737.35
7737.46
7737.58
7737.69
7737.8
7737.9
7738.01
7738.11
7738.21
7738.31
7738.41
7738.5
7738.59
7738.68
7738.77
7738.86
7738.94
7739.03
7739.11
7739.19
7739.27
7739.34
7739.42
7739.49
7739.56
7739.63
7739.7
7739.77
7739.84
7739.9
7739.96
7740.02
7740.08
7740.14
7740.2
7740.26
7740.31
7740.37
7740.42
7740.47
7740.52
7740.57
7740.62
7740.67
7740.71
7740.76
7740.8
7740.84
7740.88
7740.93
7740.96
7741
7741.04
7741.08
7741.11
7741.15
7741.18
7741.22
7741.25
7741.28
7741.31
7741.34
7741.37
7741.4
7741.43
7741.45
7741.48
7741.5
7741.53
7741.55
7741.57
7741.6
7741.62
7741.64
7741.66
7741.68
7741.7
7741.72
7741.74
7741.75
7741.77
7741.79
7741.8
7741.82
7741.83
7741.85
7741.86
7741.88
7741.89
7741.9
7741.91
7741.93
7741.94
7741.95
7741.96
7741.97
7741.98
7741.99
7742
7742
7742.01
7742.02
7742.03
7742.04
7742.04
7742.05
7742.06
7742.06
7742.07
7742.07
7742.08
7742.08
7742.09
7742.09
7742.1
7742.1
7742.1
7742.11
7742.11
7742.11
7742.12
7742.12
7742.12
7742.13
7742.13
7742.13
7742.13
7742.13
7742.14
7742.14
7742.14
7742.14
7742.14
7742.14
7742.14
7742.14
7742.14
7742.14
7742.13
7742.13
7742.13
7742.13
7742.13
7742.14
7742.14
7742.14
7742.14
7742.14
7742.14
7742.14
7742.15
7742.15
7742.15
7742.15
7742.15
7742.15
7742.15
7742.15
7742.15
7742.15
7742.15
7742.15
7742.15
7742.15
7742.15
7742.15
7742.15
7742.15
7742.15
7742.15
7742.15
7742.15
7742.15
7742.15
7742.15
7742.15
7742.15
7742.15
7742.15
7742.15
7742.15
7742.15
7742.15
7742.15
7742.15
7742.15
7742.15
7742.14
7742.14
7742.14
7742.14
7742.14
7742.14
7742.14
7742.14
7742.14
7742.14
7742.14
7742.14
7742.14
7742.13
7742.13
7742.13
7742.13
7742.13
7742.13
7742.13
7742.13
7742.13
7742.13
7742.12
7742.12
7742.12
7742.12
7742.12
7742.12
7742.12
7742.12
7465.25
7463.28
7460.79
7458.51
7456.38
7454.38
7452.53
7450.81
7449.22
7447.77
7446.43
7445.23
7444.15
7443.18
7442.33
7441.59
7440.96
7440.43
7440
7439.68
7439.44
7439.29
7439.23
7439.25
7439.36
7439.54
7439.79
7440.11
7440.49
7440.94
7441.45
7442.02
7442.64
7443.31
7444.02
7444.76
7445.55
7446.38
7447.24
7448.12
7449.03
7449.96
7450.91
7451.88
7452.85
7453.84
7454.83
7455.83
7456.83
7457.84
7458.84
7459.84
7460.83
7461.81
7462.78
7463.74
7464.68
7465.6
7466.5
7467.39
7468.26
7469.1
7469.92
7470.72
7471.5
7472.25
7472.97
7473.66
7474.33
7474.96
7475.56
7476.14
7476.68
7477.18
7477.65
7478.09
7478.49
7478.87
7479.24
7479.59
7479.87
7480.13
7480.55
7480.88
7481.06
7481.3
7481.45
7481.59
7481.69
7481.74
7481.77
7481.74
7481.69
7481.6
7481.48
7481.32
7481.13
7480.9
7480.65
7480.35
7480.04
7479.68
7479.31
7478.94
7478.51
7478.08
7477.6
7477.12
7476.61
7476.08
7475.55
7474.99
7474.43
7473.85
7473.25
7472.65
7472.04
7471.41
7470.8
7470.14
7469.51
7468.92
7468.28
7467.67
7467.04
7466.42
7465.81
7465.22
7464.63
7464.05
7463.49
7462.93
7462.39
7461.86
7461.35
7460.86
7460.38
7459.92
7459.48
7459.06
7458.66
7458.29
7457.94
7457.61
7457.31
7457.03
7456.78
7456.55
7456.34
7456.17
7456.02
7455.9
7455.8
7455.73
7455.69
7455.68
7455.69
7455.73
7455.8
7455.89
7456.01
7456.16
7456.33
7456.53
7456.75
7457
7457.28
7457.58
7457.9
7458.25
7458.62
7459.02
7459.44
7459.88
7460.34
7460.82
7461.33
7461.85
7462.4
7462.96
7463.55
7464.15
7464.76
7465.4
7466.05
7466.72
7467.4
7468.09
7468.8
7469.52
7470.26
7471
7471.76
7472.52
7473.3
7474.08
7474.88
7475.68
7476.49
7477.3
7478.12
7478.94
7479.77
7480.61
7481.44
7482.28
7483.12
7483.97
7484.81
7485.66
7486.5
7487.35
7488.19
7489.04
7489.88
7490.72
7491.56
7492.39
7493.22
7494.05
7494.87
7495.69
7496.5
7497.31
7498.11
7498.91
7499.7
7500.49
7501.26
7502.04
7502.8
7503.56
7504.31
7505.05
7505.78
7506.51
7507.23
7507.94
7508.64
7509.33
7510.02
7510.69
7511.36
7512.01
7512.66
7513.3
7513.93
7514.55
7515.17
7515.77
7516.36
7516.95
7517.52
7518.09
7518.65
7519.2
7519.74
7520.27
7520.79
7521.3
7521.8
7522.3
7522.79
7523.26
7523.73
7524.2
7524.65
7525.09
7525.53
7525.96
7526.38
7526.79
7527.2
7527.59
7527.98
7528.37
7528.74
7529.11
7529.47
7529.82
7530.17
7530.51
7530.84
7531.17
7531.49
7531.81
7532.11
7532.41
7532.71
7533
7533.28
7533.56
7533.83
7534.1
7534.36
7534.62
7534.87
7535.12
7535.36
7535.59
7535.82
7536.05
7536.27
7536.49
7536.7
7536.91
7537.11
7537.31
7537.51
7537.7
7537.88
7538.07
7538.25
7538.42
7538.6
7538.76
7538.93
7539.09
7539.25
7539.4
7539.56
7539.71
7539.85
7539.99
7540.13
7540.27
7540.4
7540.54
7540.66
7540.79
7540.91
7541.03
7541.15
7541.27
7541.38
7541.49
7541.6
7541.71
7541.81
7541.92
7542.02
7542.12
7542.21
7542.31
7542.4
7542.49
7542.58
7542.66
7542.75
7542.83
7542.91
7542.99
7543.07
7543.15
7543.22
7543.3
7543.37
7543.44
7543.51
7543.57
7543.64
7543.7
7543.77
7543.83
7543.89
7543.95
7544
7544.06
7544.12
7544.17
7544.22
7544.27
7544.32
7544.37
7544.42
7544.47
7544.51
7544.56
7544.6
7544.65
7544.69
7544.73
7544.77
7544.81
7544.84
7544.88
7544.92
7544.95
7544.98
7545.02
7545.05
7545.08
7545.11
7545.14
7545.17
7545.2
7545.23
7545.25
7545.28
7545.3
7545.33
7545.35
7545.38
7545.4
7545.42
7545.44
7545.46
7545.48
7545.5
7545.52
7545.54
7545.56
7545.57
7545.59
7545.61
7545.62
7545.64
7545.65
7545.66
7545.68
7545.69
7545.7
7545.72
7545.73
7545.74
7545.75
7545.76
7545.77
7545.78
7545.79
7545.8
7545.81
7545.81
7545.82
7545.83
7545.84
7545.84
7545.85
7545.86
7545.86
7545.87
7545.87
7545.88
7545.88
7545.89
7545.89
7545.9
7545.9
7545.9
7545.91
7545.91
7545.91
7545.92
7545.92
7545.92
7545.93
7545.93
7545.93
7545.93
7545.93
7545.94
7545.94
7545.94
7545.94
7545.94
7545.94
7545.95
7545.95
7545.95
7545.95
7545.95
7545.95
7545.95
7545.95
7545.95
7545.95
7545.95
7545.95
7545.95
7545.95
7545.95
7545.95
7545.95
7545.95
7545.95
7545.95
7545.95
7545.95
7545.95
7545.95
7545.95
7545.95
7545.95
7545.95
7545.95
7545.95
7545.95
7545.95
7545.95
7545.95
7545.95
7545.95
7545.95
7545.95
7545.95
7545.95
7545.95
7545.95
7545.95
7545.95
7545.95
7545.95
7545.95
7545.95
7545.95
7545.95
7545.95
7545.95
7545.94
7545.94
7545.94
7545.94
7545.94
7545.94
7545.94
7545.94
7545.94
7545.94
7545.94
7545.94
7545.94
7545.93
7545.93
7545.93
7545.93
7545.93
7545.93
7545.93
7545.93
7545.93
7545.93
7545.92
7545.92
7545.92
7545.92
7545.92
7545.92
7545.92
7545.92
7545.92
7268.22
7266.28
7263.8
7261.54
7259.42
7257.45
7255.61
7253.91
7252.34
7250.91
7249.6
7248.41
7247.35
7246.41
7245.58
7244.86
7244.25
7243.75
7243.35
7243.05
7242.84
7242.71
7242.67
7242.73
7242.86
7243.06
7243.33
7243.67
7244.08
7244.55
7245.07
7245.65
7246.29
7246.98
7247.71
7248.47
7249.27
7250.11
7250.99
7251.89
7252.81
7253.75
7254.7
7255.68
7256.67
7257.67
7258.67
7259.68
7260.7
7261.71
7262.73
7263.74
7264.74
7265.74
7266.72
7267.69
7268.64
7269.57
7270.49
7271.38
7272.25
7273.09
7273.92
7274.72
7275.5
7276.25
7276.97
7277.66
7278.33
7278.97
7279.57
7280.14
7280.68
7281.19
7281.67
7282.12
7282.53
7282.92
7283.29
7283.63
7283.96
7284.28
7284.58
7284.81
7285.01
7285.29
7285.52
7285.64
7285.7
7285.75
7285.78
7285.75
7285.68
7285.61
7285.47
7285.31
7285.11
7284.88
7284.62
7284.33
7284.01
7283.66
7283.27
7282.88
7282.43
7281.99
7281.54
7281.04
7280.55
7280.01
7279.47
7278.9
7278.32
7277.74
7277.13
7276.53
7275.91
7275.29
7274.66
7274.03
7273.38
7272.75
7272.08
7271.45
7270.86
7270.23
7269.63
7269.02
7268.42
7267.83
7267.26
7266.7
7266.16
7265.63
7265.11
7264.61
7264.13
7263.67
7263.23
7262.8
7262.41
7262.03
7261.68
7261.35
7261.04
7260.76
7260.5
7260.27
7260.07
7259.89
7259.74
7259.62
7259.52
7259.45
7259.41
7259.39
7259.4
7259.44
7259.51
7259.6
7259.72
7259.87
7260.04
7260.24
7260.46
7260.71
7260.99
7261.29
7261.62
7261.96
7262.34
7262.74
7263.16
7263.6
7264.06
7264.55
7265.05
7265.58
7266.13
7266.69
7267.28
7267.88
7268.5
7269.14
7269.79
7270.46
7271.14
7271.84
7272.55
7273.27
7274.01
7274.75
7275.51
7276.28
7277.06
7277.85
7278.64
7279.44
7280.25
7281.07
7281.89
7282.72
7283.55
7284.38
7285.22
7286.07
7286.91
7287.75
7288.6
7289.45
7290.3
7291.14
7291.99
7292.84
7293.68
7294.52
7295.36
7296.19
7297.03
7297.86
7298.68
7299.5
7300.31
7301.12
7301.93
7302.73
7303.52
7304.31
7305.08
7305.86
7306.62
7307.38
7308.13
7308.87
7309.61
7310.34
7311.06
7311.77
7312.47
7313.16
7313.85
7314.52
7315.19
7315.85
7316.5
7317.14
7317.77
7318.39
7319
7319.6
7320.2
7320.78
7321.36
7321.93
7322.48
7323.03
7323.57
7324.1
7324.62
7325.14
7325.64
7326.13
7326.62
7327.1
7327.57
7328.03
7328.48
7328.93
7329.36
7329.79
7330.21
7330.62
7331.03
7331.43
7331.81
7332.2
7332.57
7332.94
7333.3
7333.65
7334
7334.34
7334.67
7335
7335.32
7335.63
7335.94
7336.24
7336.54
7336.83
7337.11
7337.39
7337.66
7337.92
7338.19
7338.44
7338.69
7338.94
7339.18
7339.41
7339.64
7339.87
7340.09
7340.31
7340.52
7340.73
7340.93
7341.13
7341.32
7341.51
7341.7
7341.88
7342.06
7342.24
7342.41
7342.58
7342.74
7342.91
7343.06
7343.22
7343.37
7343.52
7343.66
7343.81
7343.95
7344.08
7344.22
7344.35
7344.48
7344.6
7344.73
7344.85
7344.96
7345.08
7345.19
7345.3
7345.41
7345.52
7345.62
7345.73
7345.83
7345.92
7346.02
7346.11
7346.21
7346.3
7346.38
7346.47
7346.56
7346.64
7346.72
7346.8
7346.88
7346.95
7347.03
7347.1
7347.17
7347.24
7347.31
7347.38
7347.45
7347.51
7347.57
7347.63
7347.69
7347.75
7347.81
7347.87
7347.92
7347.98
7348.03
7348.08
7348.13
7348.18
7348.23
7348.27
7348.32
7348.36
7348.41
7348.45
7348.49
7348.53
7348.57
7348.61
7348.65
7348.68
7348.72
7348.75
7348.79
7348.82
7348.85
7348.89
7348.92
7348.95
7348.97
7349
7349.03
7349.06
7349.08
7349.11
7349.13
7349.16
7349.18
7349.2
7349.22
7349.24
7349.27
7349.29
7349.3
7349.32
7349.34
7349.36
7349.38
7349.39
7349.41
7349.42
7349.44
7349.45
7349.47
7349.48
7349.49
7349.51
7349.52
7349.53
7349.54
7349.55
7349.56
7349.57
7349.58
7349.59
7349.6
7349.61
7349.62
7349.62
7349.63
7349.64
7349.64
7349.65
7349.66
7349.66
7349.67
7349.67
7349.68
7349.68
7349.69
7349.69
7349.7
7349.7
7349.71
7349.71
7349.71
7349.72
7349.72
7349.72
7349.72
7349.73
7349.73
7349.73
7349.73
7349.74
7349.74
7349.74
7349.74
7349.74
7349.74
7349.74
7349.74
7349.74
7349.74
7349.74
7349.74
7349.74
7349.75
7349.75
7349.75
7349.75
7349.75
7349.75
7349.75
7349.75
7349.75
7349.75
7349.75
7349.75
7349.75
7349.75
7349.75
7349.75
7349.75
7349.75
7349.75
7349.75
7349.75
7349.75
7349.75
7349.75
7349.75
7349.75
7349.75
7349.75
7349.75
7349.75
7349.75
7349.75
7349.75
7349.75
7349.75
7349.75
7349.75
7349.75
7349.75
7349.75
7349.75
7349.75
7349.75
7349.75
7349.75
7349.75
7349.74
7349.74
7349.74
7349.74
7349.74
7349.74
7349.74
7349.74
7349.74
7349.74
7349.74
7349.74
7349.74
7349.73
7349.73
7349.73
7349.73
7349.73
7349.73
7349.73
7349.73
7349.73
7349.73
7349.72
7349.72
7349.72
7349.72
7349.72
7349.72
7349.72
7349.72
7349.72
7070.84
7068.93
7066.5
7064.24
7062.14
7060.18
7058.36
7056.67
7055.13
7053.71
7052.43
7051.27
7050.24
7049.32
7048.52
7047.83
7047.25
7046.78
7046.41
7046.14
7045.95
7045.86
7045.86
7045.94
7046.1
7046.33
7046.63
7047
7047.44
7047.95
7048.5
7049.1
7049.75
7050.46
7051.21
7052
7052.83
7053.68
7054.57
7055.49
7056.44
7057.4
7058.37
7059.37
7060.38
7061.4
7062.43
7063.47
7064.5
7065.53
7066.57
7067.6
7068.62
7069.63
7070.63
7071.62
7072.58
7073.53
7074.47
7075.37
7076.25
7077.11
7077.95
7078.76
7079.54
7080.29
7081.02
7081.72
7082.39
7083.03
7083.64
7084.21
7084.75
7085.27
7085.76
7086.21
7086.64
7087.04
7087.4
7087.74
7088.06
7088.36
7088.64
7088.9
7089.15
7089.37
7089.55
7089.69
7089.77
7089.84
7089.93
7089.8
7089.78
7089.68
7089.55
7089.38
7089.18
7088.93
7088.67
7088.37
7088.04
7087.69
7087.3
7086.9
7086.46
7086.01
7085.51
7085.02
7084.47
7083.93
7083.41
7082.83
7082.26
7081.65
7081.04
7080.42
7079.8
7079.16
7078.53
7077.88
7077.24
7076.6
7075.97
7075.31
7074.67
7073.99
7073.36
7072.8
7072.19
7071.61
7071.02
7070.44
7069.89
7069.35
7068.83
7068.33
7067.85
7067.38
7066.93
7066.5
7066.1
7065.72
7065.37
7065.03
7064.72
7064.44
7064.18
7063.95
7063.74
7063.56
7063.41
7063.28
7063.18
7063.11
7063.06
7063.05
7063.06
7063.09
7063.16
7063.25
7063.37
7063.52
7063.69
7063.89
7064.12
7064.37
7064.64
7064.95
7065.27
7065.63
7066
7066.4
7066.82
7067.27
7067.73
7068.22
7068.73
7069.26
7069.81
7070.38
7070.96
7071.57
7072.19
7072.83
7073.49
7074.16
7074.84
7075.55
7076.26
7076.99
7077.72
7078.47
7079.24
7080.01
7080.79
7081.58
7082.38
7083.18
7084
7084.82
7085.64
7086.47
7087.31
7088.14
7088.99
7089.83
7090.68
7091.53
7092.38
7093.23
7094.08
7094.93
7095.78
7096.63
7097.47
7098.32
7099.16
7100
7100.83
7101.66
7102.49
7103.31
7104.13
7104.94
7105.75
7106.55
7107.34
7108.13
7108.91
7109.68
7110.45
7111.21
7111.96
7112.71
7113.44
7114.17
7114.89
7115.61
7116.31
7117
7117.69
7118.37
7119.03
7119.69
7120.34
7120.98
7121.61
7122.24
7122.85
7123.45
7124.05
7124.63
7125.21
7125.78
7126.33
7126.88
7127.42
7127.95
7128.47
7128.99
7129.49
7129.98
7130.47
7130.95
7131.42
7131.88
7132.33
7132.77
7133.21
7133.64
7134.06
7134.47
7134.87
7135.27
7135.66
7136.04
7136.42
7136.78
7137.14
7137.5
7137.84
7138.18
7138.51
7138.84
7139.16
7139.47
7139.78
7140.08
7140.37
7140.66
7140.94
7141.22
7141.49
7141.76
7142.02
7142.27
7142.52
7142.77
7143.01
7143.24
7143.47
7143.7
7143.92
7144.14
7144.35
7144.55
7144.76
7144.96
7145.15
7145.34
7145.53
7145.71
7145.89
7146.06
7146.23
7146.4
7146.57
7146.73
7146.89
7147.04
7147.19
7147.34
7147.48
7147.63
7147.77
7147.9
7148.04
7148.17
7148.29
7148.42
7148.54
7148.66
7148.78
7148.9
7149.01
7149.12
7149.23
7149.33
7149.44
7149.54
7149.64
7149.74
7149.83
7149.93
7150.02
7150.11
7150.2
7150.28
7150.37
7150.45
7150.53
7150.61
7150.69
7150.77
7150.84
7150.91
7150.98
7151.05
7151.12
7151.19
7151.26
7151.32
7151.38
7151.44
7151.5
7151.56
7151.62
7151.68
7151.73
7151.78
7151.84
7151.89
7151.94
7151.99
7152.03
7152.08
7152.13
7152.17
7152.21
7152.26
7152.3
7152.34
7152.38
7152.42
7152.45
7152.49
7152.53
7152.56
7152.6
7152.63
7152.66
7152.69
7152.72
7152.75
7152.78
7152.81
7152.84
7152.86
7152.89
7152.91
7152.94
7152.96
7152.98
7153.01
7153.03
7153.05
7153.07
7153.09
7153.11
7153.13
7153.15
7153.16
7153.18
7153.2
7153.21
7153.23
7153.24
7153.26
7153.27
7153.28
7153.3
7153.31
7153.32
7153.33
7153.34
7153.35
7153.36
7153.37
7153.38
7153.39
7153.4
7153.41
7153.42
7153.43
7153.43
7153.44
7153.45
7153.45
7153.46
7153.47
7153.47
7153.48
7153.48
7153.49
7153.49
7153.5
7153.5
7153.5
7153.51
7153.51
7153.51
7153.52
7153.52
7153.52
7153.53
7153.53
7153.53
7153.53
7153.53
7153.54
7153.54
7153.54
7153.54
7153.54
7153.55
7153.55
7153.55
7153.55
7153.55
7153.55
7153.55
7153.55
7153.55
7153.55
7153.55
7153.55
7153.55
7153.55
7153.55
7153.55
7153.55
7153.55
7153.55
7153.55
7153.55
7153.55
7153.55
7153.55
7153.55
7153.55
7153.55
7153.55
7153.55
7153.55
7153.55
7153.55
7153.55
7153.55
7153.55
7153.55
7153.55
7153.55
7153.55
7153.55
7153.55
7153.55
7153.55
7153.55
7153.55
7153.55
7153.55
7153.55
7153.55
7153.55
7153.55
7153.55
7153.55
7153.55
7153.54
7153.54
7153.54
7153.54
7153.54
7153.54
7153.54
7153.54
7153.54
7153.54
7153.54
7153.54
7153.54
7153.53
7153.53
7153.53
7153.53
7153.53
7153.53
7153.53
7153.53
7153.53
7153.53
7153.52
7153.52
7153.52
7153.52
7153.52
7153.52
7153.52
7153.52
7153.52
6873.05
6871.17
6868.78
6866.55
6864.46
6862.53
6860.74
6859.08
6857.57
6856.19
6854.93
6853.81
6852.81
6851.93
6851.17
6850.52
6849.97
6849.54
6849.2
6848.97
6848.83
6848.77
6848.81
6848.93
6849.13
6849.4
6849.74
6850.15
6850.63
6851.16
6851.75
6852.39
6853.08
6853.81
6854.59
6855.41
6856.27
6857.16
6858.07
6859.02
6859.99
6860.98
6861.99
6863.01
6864.05
6865.1
6866.16
6867.22
6868.28
6869.35
6870.4
6871.46
6872.5
6873.53
6874.55
6875.56
6876.55
6877.53
6878.48
6879.4
6880.3
6881.18
6882.02
6882.85
6883.64
6884.4
6885.14
6885.84
6886.51
6887.16
6887.78
6888.36
6888.9
6889.42
6889.91
6890.37
6890.81
6891.21
6891.57
6891.92
6892.24
6892.53
6892.8
6893.04
6893.25
6893.44
6893.61
6893.75
6893.88
6893.98
6894.03
6894.04
6893.94
6893.93
6893.68
6893.54
6893.33
6893.09
6892.79
6892.49
6892.15
6891.78
6891.39
6890.96
6890.51
6890.05
6889.57
6889.05
6888.53
6887.95
6887.4
6886.78
6886.18
6885.61
6884.98
6884.36
6883.71
6883.06
6882.41
6881.77
6881.11
6880.46
6879.8
6879.14
6878.5
6877.86
6877.2
6876.58
6875.9
6875.29
6874.76
6874.17
6873.63
6873.07
6872.53
6872.01
6871.51
6871.04
6870.59
6870.16
6869.75
6869.37
6869
6868.67
6868.35
6868.07
6867.8
6867.57
6867.36
6867.18
6867.02
6866.89
6866.79
6866.71
6866.67
6866.65
6866.66
6866.69
6866.76
6866.85
6866.97
6867.12
6867.29
6867.49
6867.72
6867.97
6868.25
6868.55
6868.88
6869.24
6869.61
6870.02
6870.44
6870.89
6871.36
6871.85
6872.36
6872.9
6873.45
6874.02
6874.61
6875.22
6875.85
6876.49
6877.15
6877.82
6878.51
6879.22
6879.94
6880.67
6881.41
6882.17
6882.93
6883.71
6884.49
6885.29
6886.09
6886.9
6887.72
6888.54
6889.37
6890.21
6891.05
6891.89
6892.74
6893.58
6894.44
6895.29
6896.14
6897
6897.85
6898.71
6899.56
6900.41
6901.26
6902.11
6902.95
6903.8
6904.63
6905.47
6906.3
6907.12
6907.94
6908.76
6909.57
6910.37
6911.17
6911.96
6912.74
6913.52
6914.29
6915.05
6915.81
6916.55
6917.29
6918.02
6918.74
6919.46
6920.16
6920.86
6921.55
6922.22
6922.89
6923.55
6924.2
6924.85
6925.48
6926.1
6926.71
6927.32
6927.91
6928.5
6929.07
6929.64
6930.2
6930.75
6931.29
6931.82
6932.34
6932.85
6933.36
6933.85
6934.34
6934.81
6935.28
6935.74
6936.19
6936.64
6937.07
6937.5
6937.92
6938.33
6938.73
6939.13
6939.52
6939.9
6940.27
6940.64
6941
6941.35
6941.7
6942.04
6942.37
6942.69
6943.01
6943.32
6943.63
6943.93
6944.22
6944.51
6944.79
6945.07
6945.34
6945.61
6945.87
6946.12
6946.37
6946.61
6946.85
6947.09
6947.32
6947.54
6947.76
6947.98
6948.19
6948.39
6948.59
6948.79
6948.99
6949.18
6949.36
6949.54
6949.72
6949.9
6950.07
6950.23
6950.4
6950.56
6950.71
6950.87
6951.02
6951.17
6951.31
6951.45
6951.59
6951.73
6951.86
6951.99
6952.12
6952.24
6952.36
6952.48
6952.6
6952.72
6952.83
6952.94
6953.05
6953.15
6953.26
6953.36
6953.46
6953.56
6953.65
6953.74
6953.84
6953.93
6954.01
6954.1
6954.18
6954.27
6954.35
6954.43
6954.5
6954.58
6954.65
6954.73
6954.8
6954.87
6954.94
6955
6955.07
6955.13
6955.19
6955.26
6955.32
6955.37
6955.43
6955.49
6955.54
6955.6
6955.65
6955.7
6955.75
6955.8
6955.85
6955.89
6955.94
6955.98
6956.02
6956.07
6956.11
6956.15
6956.19
6956.23
6956.26
6956.3
6956.34
6956.37
6956.4
6956.44
6956.47
6956.5
6956.53
6956.56
6956.59
6956.62
6956.64
6956.67
6956.7
6956.72
6956.74
6956.77
6956.79
6956.81
6956.83
6956.86
6956.88
6956.9
6956.91
6956.93
6956.95
6956.97
6956.98
6957
6957.02
6957.03
6957.05
6957.06
6957.07
6957.09
6957.1
6957.11
6957.12
6957.14
6957.15
6957.16
6957.17
6957.18
6957.19
6957.2
6957.2
6957.21
6957.22
6957.23
6957.24
6957.24
6957.25
6957.26
6957.26
6957.27
6957.27
6957.28
6957.28
6957.29
6957.29
6957.3
6957.3
6957.31
6957.31
6957.31
6957.32
6957.32
6957.32
6957.33
6957.33
6957.33
6957.33
6957.33
6957.33
6957.33
6957.34
6957.34
6957.34
6957.34
6957.34
6957.34
6957.34
6957.34
6957.34
6957.35
6957.35
6957.35
6957.35
6957.35
6957.35
6957.35
6957.35
6957.35
6957.35
6957.35
6957.35
6957.35
6957.35
6957.35
6957.35
6957.35
6957.35
6957.35
6957.35
6957.35
6957.35
6957.35
6957.35
6957.35
6957.35
6957.35
6957.35
6957.35
6957.35
6957.35
6957.35
6957.35
6957.35
6957.35
6957.35
6957.35
6957.35
6957.35
6957.35
6957.35
6957.35
6957.35
6957.35
6957.35
6957.35
6957.35
6957.35
6957.35
6957.34
6957.34
6957.34
6957.34
6957.34
6957.34
6957.34
6957.34
6957.34
6957.34
6957.34
6957.34
6957.34
6957.33
6957.33
6957.33
6957.33
6957.33
6957.33
6957.33
6957.33
6957.33
6957.33
6957.32
6957.32
6957.32
6957.32
6957.32
6957.32
6957.32
6957.32
6957.32
6674.88
6673.07
6670.71
6668.5
6666.44
6664.54
6662.78
6661.17
6659.69
6658.35
6657.13
6656.04
6655.08
6654.25
6653.53
6652.92
6652.42
6652.03
6651.74
6651.55
6651.45
6651.45
6651.53
6651.69
6651.94
6652.26
6652.64
6653.1
6653.63
6654.21
6654.85
6655.53
6656.27
6657.04
6657.87
6658.73
6659.62
6660.55
6661.5
6662.49
6663.49
6664.52
6665.57
6666.63
6667.7
6668.79
6669.88
6670.97
6672.06
6673.16
6674.25
6675.32
6676.39
6677.46
6678.5
6679.53
6680.55
6681.54
6682.51
6683.46
6684.38
6685.27
6686.14
6686.97
6687.77
6688.55
6689.29
6690.01
6690.69
6691.34
6691.97
6692.56
6693.11
6693.63
6694.12
6694.59
6695.02
6695.42
6695.79
6696.14
6696.46
6696.74
6696.99
6697.22
6697.42
6697.6
6697.74
6697.86
6697.95
6698.02
6698.07
6698.1
6698.12
6698.1
6698.01
6697.74
6697.63
6697.26
6697
6696.69
6696.33
6695.94
6695.54
6695.1
6694.64
6694.16
6693.64
6693.12
6692.57
6692.01
6691.43
6690.84
6690.2
6689.58
6688.91
6688.27
6687.65
6686.99
6686.33
6685.66
6684.98
6684.31
6683.65
6682.98
6682.32
6681.65
6681
6680.37
6679.74
6679.09
6678.48
6677.81
6677.23
6676.73
6676.19
6675.68
6675.18
6674.69
6674.21
6673.77
6673.36
6672.96
6672.6
6672.25
6671.93
6671.64
6671.37
6671.13
6670.92
6670.73
6670.57
6670.44
6670.34
6670.26
6670.22
6670.2
6670.2
6670.24
6670.3
6670.39
6670.51
6670.66
6670.83
6671.04
6671.26
6671.52
6671.8
6672.11
6672.44
6672.79
6673.17
6673.58
6674.01
6674.46
6674.93
6675.43
6675.95
6676.48
6677.04
6677.62
6678.21
6678.83
6679.46
6680.11
6680.77
6681.45
6682.15
6682.86
6683.58
6684.32
6685.07
6685.83
6686.6
6687.38
6688.17
6688.97
6689.78
6690.59
6691.42
6692.25
6693.08
6693.92
6694.77
6695.62
6696.47
6697.32
6698.18
6699.04
6699.9
6700.76
6701.62
6702.48
6703.34
6704.19
6705.05
6705.9
6706.75
6707.6
6708.44
6709.28
6710.11
6710.94
6711.76
6712.58
6713.4
6714.2
6715
6715.8
6716.59
6717.37
6718.14
6718.9
6719.66
6720.41
6721.15
6721.88
6722.61
6723.32
6724.03
6724.73
6725.42
6726.1
6726.77
6727.43
6728.08
6728.72
6729.36
6729.98
6730.59
6731.2
6731.79
6732.38
6732.96
6733.52
6734.08
6734.63
6735.17
6735.7
6736.22
6736.73
6737.24
6737.73
6738.22
6738.69
6739.16
6739.62
6740.07
6740.52
6740.95
6741.38
6741.8
6742.21
6742.61
6743.01
6743.39
6743.77
6744.15
6744.51
6744.87
6745.22
6745.57
6745.9
6746.23
6746.56
6746.88
6747.19
6747.49
6747.79
6748.09
6748.37
6748.65
6748.93
6749.2
6749.46
6749.72
6749.98
6750.22
6750.47
6750.71
6750.94
6751.17
6751.39
6751.61
6751.82
6752.03
6752.24
6752.44
6752.64
6752.83
6753.02
6753.2
6753.39
6753.56
6753.74
6753.91
6754.07
6754.24
6754.39
6754.55
6754.7
6754.85
6755
6755.14
6755.29
6755.42
6755.56
6755.69
6755.82
6755.95
6756.07
6756.19
6756.31
6756.43
6756.54
6756.66
6756.77
6756.87
6756.98
6757.08
6757.18
6757.28
6757.38
6757.47
6757.57
6757.66
6757.75
6757.83
6757.92
6758
6758.09
6758.17
6758.25
6758.32
6758.4
6758.47
6758.55
6758.62
6758.69
6758.75
6758.82
6758.88
6758.95
6759.01
6759.07
6759.13
6759.19
6759.25
6759.3
6759.36
6759.41
6759.46
6759.51
6759.56
6759.61
6759.66
6759.7
6759.75
6759.79
6759.84
6759.88
6759.92
6759.96
6760
6760.04
6760.07
6760.11
6760.15
6760.18
6760.21
6760.25
6760.28
6760.31
6760.34
6760.37
6760.4
6760.42
6760.45
6760.48
6760.5
6760.53
6760.55
6760.58
6760.6
6760.62
6760.64
6760.66
6760.68
6760.7
6760.72
6760.74
6760.76
6760.77
6760.79
6760.81
6760.82
6760.84
6760.85
6760.87
6760.88
6760.89
6760.91
6760.92
6760.93
6760.94
6760.95
6760.96
6760.97
6760.98
6760.99
6761
6761.01
6761.02
6761.02
6761.03
6761.04
6761.05
6761.05
6761.06
6761.07
6761.07
6761.08
6761.08
6761.09
6761.09
6761.1
6761.1
6761.1
6761.11
6761.11
6761.12
6761.12
6761.12
6761.12
6761.13
6761.13
6761.13
6761.13
6761.13
6761.14
6761.14
6761.14
6761.14
6761.14
6761.14
6761.14
6761.14
6761.15
6761.15
6761.15
6761.15
6761.15
6761.15
6761.15
6761.15
6761.15
6761.15
6761.15
6761.15
6761.15
6761.15
6761.15
6761.15
6761.15
6761.15
6761.15
6761.15
6761.15
6761.15
6761.15
6761.15
6761.15
6761.15
6761.15
6761.15
6761.15
6761.15
6761.15
6761.15
6761.15
6761.15
6761.15
6761.15
6761.15
6761.15
6761.15
6761.15
6761.15
6761.15
6761.15
6761.15
6761.15
6761.15
6761.15
6761.15
6761.15
6761.15
6761.15
6761.15
6761.14
6761.14
6761.14
6761.14
6761.14
6761.14
6761.14
6761.14
6761.14
6761.14
6761.14
6761.14
6761.13
6761.13
6761.13
6761.13
6761.13
6761.13
6761.13
6761.13
6761.13
6761.13
6761.13
6761.12
6761.12
6761.12
6761.12
6761.12
6761.12
6761.12
6761.12
6761.12
6476.34
6474.6
6472.28
6470.11
6468.09
6466.23
6464.51
6462.93
6461.51
6460.21
6459.04
6458
6457.08
6456.3
6455.64
6455.08
6454.63
6454.28
6454.04
6453.91
6453.87
6453.92
6454.05
6454.28
6454.58
6454.95
6455.39
6455.91
6456.49
6457.13
6457.83
6458.58
6459.37
6460.2
6461.07
6461.99
6462.94
6463.92
6464.92
6465.95
6467.01
6468.08
6469.17
6470.27
6471.39
6472.51
6473.64
6474.78
6475.91
6477.03
6478.14
6479.25
6480.35
6481.44
6482.52
6483.57
6484.61
6485.63
6486.62
6487.58
6488.52
6489.43
6490.31
6491.16
6491.98
6492.76
6493.52
6494.25
6494.94
6495.6
6496.23
6496.82
6497.38
6497.91
6498.4
6498.87
6499.3
6499.7
6500.07
6500.41
6500.72
6501
6501.24
6501.46
6501.64
6501.8
6501.93
6502.03
6502.1
6502.15
6502.17
6502.17
6502.14
6502.09
6502.03
6501.95
6501.85
6501.67
6501.24
6501.02
6500.53
6500.17
6499.76
6499.3
6498.81
6498.32
6497.79
6497.24
6496.69
6496.1
6495.5
6494.88
6494.25
6493.61
6492.96
6492.27
6491.61
6490.88
6490.2
6489.56
6488.87
6488.2
6487.5
6486.81
6486.13
6485.47
6484.79
6484.14
6483.48
6482.85
6482.23
6481.61
6481.01
6480.39
6479.83
6479.2
6478.68
6478.26
6477.78
6477.35
6476.91
6476.5
6476.12
6475.78
6475.45
6475.16
6474.88
6474.64
6474.42
6474.23
6474.07
6473.93
6473.83
6473.75
6473.7
6473.68
6473.68
6473.72
6473.78
6473.87
6473.99
6474.14
6474.31
6474.52
6474.75
6475
6475.29
6475.6
6475.93
6476.29
6476.68
6477.09
6477.52
6477.97
6478.45
6478.95
6479.47
6480.02
6480.58
6481.16
6481.76
6482.38
6483.02
6483.68
6484.35
6485.04
6485.74
6486.45
6487.18
6487.93
6488.68
6489.45
6490.23
6491.02
6491.81
6492.62
6493.44
6494.26
6495.09
6495.93
6496.77
6497.62
6498.47
6499.32
6500.18
6501.04
6501.91
6502.77
6503.64
6504.51
6505.37
6506.24
6507.1
6507.97
6508.83
6509.68
6510.54
6511.39
6512.24
6513.08
6513.92
6514.76
6515.59
6516.41
6517.23
6518.04
6518.84
6519.64
6520.43
6521.22
6521.99
6522.76
6523.52
6524.27
6525.02
6525.75
6526.48
6527.2
6527.91
6528.61
6529.3
6529.98
6530.65
6531.32
6531.97
6532.61
6533.25
6533.87
6534.49
6535.09
6535.69
6536.28
6536.85
6537.42
6537.98
6538.53
6539.07
6539.6
6540.12
6540.63
6541.13
6541.63
6542.11
6542.59
6543.06
6543.52
6543.97
6544.41
6544.84
6545.27
6545.69
6546.1
6546.5
6546.89
6547.28
6547.66
6548.03
6548.4
6548.75
6549.11
6549.45
6549.79
6550.12
6550.44
6550.76
6551.07
6551.37
6551.67
6551.96
6552.25
6552.53
6552.8
6553.07
6553.33
6553.59
6553.84
6554.09
6554.33
6554.57
6554.8
6555.03
6555.25
6555.47
6555.68
6555.89
6556.1
6556.3
6556.49
6556.68
6556.87
6557.05
6557.24
6557.41
6557.58
6557.75
6557.92
6558.08
6558.24
6558.39
6558.55
6558.7
6558.84
6558.98
6559.12
6559.26
6559.4
6559.53
6559.66
6559.78
6559.91
6560.03
6560.15
6560.26
6560.38
6560.49
6560.6
6560.7
6560.81
6560.91
6561.01
6561.11
6561.21
6561.3
6561.39
6561.48
6561.57
6561.66
6561.75
6561.83
6561.91
6561.99
6562.07
6562.15
6562.22
6562.29
6562.37
6562.44
6562.51
6562.57
6562.64
6562.7
6562.77
6562.83
6562.89
6562.95
6563.01
6563.06
6563.12
6563.17
6563.23
6563.28
6563.33
6563.38
6563.43
6563.47
6563.52
6563.56
6563.61
6563.65
6563.69
6563.73
6563.77
6563.81
6563.85
6563.89
6563.92
6563.96
6563.99
6564.03
6564.06
6564.09