/*--------------------------------*- C++ -*----------------------------------*\
| =========                 |                                                 |
| \\      /  F ield         | OpenFOAM: The Open Source CFD Toolbox           |
|  \\    /   O peration     | Version:  v2006                                 |
|   \\  /    A nd           | Website:  www.openfoam.com                      |
|    \\/     M anipulation  |                                                 |
\*---------------------------------------------------------------------------*/
FoamFile
{
    version     2.0;
    format      ascii;
    class       volScalarField;
    location    "1.9";
    object      p_rgh;
}
// * * * * * * * * * * * * * * * * * * * * * * * * * * * * * * * * * * * * * //

dimensions      [1 -1 -2 0 0 0 0];


internalField   nonuniform List<scalar> 
33000
(
7759.82
7757.91
7755.4
7753.14
7751
7749
7747.14
7745.42
7743.83
7742.37
7741.03
7739.81
7738.72
7737.74
7736.89
7736.15
7735.5
7734.95
7734.49
7734.14
7733.9
7733.77
7733.7
7733.7
7733.78
7733.95
7734.19
7734.51
7734.88
7735.32
7735.82
7736.38
7736.99
7737.63
7738.31
7739.07
7739.88
7740.69
7741.53
7742.4
7743.3
7744.24
7745.2
7746.16
7747.12
7748.1
7749.11
7750.11
7751.1
7752.1
7753.1
7754.1
7755.08
7756.05
7757.01
7757.96
7758.89
7759.8
7760.69
7761.58
7762.44
7763.28
7764.1
7764.89
7765.67
7766.42
7767.14
7767.83
7768.49
7769.12
7769.72
7770.29
7770.82
7771.34
7771.8
7772.23
7772.6
7772.9
7773.19
7773.73
7774.12
7774.41
7774.74
7775.01
7775.24
7775.45
7775.64
7775.75
7775.85
7775.88
7775.93
7775.91
7775.86
7775.77
7775.65
7775.5
7775.31
7775.1
7774.83
7774.54
7774.24
7773.89
7773.52
7773.13
7772.71
7772.27
7771.81
7771.33
7770.83
7770.3
7769.77
7769.22
7768.65
7768.08
7767.48
7766.9
7766.27
7765.65
7765.06
7764.42
7763.8
7763.17
7762.54
7761.92
7761.31
7760.7
7760.1
7759.5
7758.92
7758.34
7757.78
7757.23
7756.69
7756.16
7755.65
7755.16
7754.68
7754.23
7753.79
7753.38
7752.98
7752.6
7752.25
7751.93
7751.62
7751.35
7751.09
7750.87
7750.66
7750.49
7750.34
7750.22
7750.13
7750.06
7750.02
7750.01
7750.02
7750.06
7750.13
7750.22
7750.34
7750.49
7750.66
7750.86
7751.08
7751.33
7751.61
7751.91
7752.23
7752.58
7752.95
7753.35
7753.77
7754.21
7754.67
7755.15
7755.65
7756.18
7756.72
7757.29
7757.87
7758.47
7759.09
7759.72
7760.37
7761.04
7761.72
7762.41
7763.12
7763.84
7764.57
7765.32
7766.07
7766.84
7767.61
7768.4
7769.19
7769.99
7770.79
7771.61
7772.43
7773.25
7774.08
7774.91
7775.75
7776.58
7777.42
7778.27
7779.11
7779.96
7780.8
7781.64
7782.49
7783.33
7784.17
7785.01
7785.85
7786.68
7787.51
7788.34
7789.16
7789.98
7790.79
7791.6
7792.4
7793.19
7793.99
7794.77
7795.55
7796.32
7797.08
7797.84
7798.59
7799.33
7800.06
7800.79
7801.51
7802.22
7802.92
7803.61
7804.29
7804.97
7805.64
7806.29
7806.94
7807.58
7808.21
7808.83
7809.44
7810.05
7810.64
7811.23
7811.8
7812.37
7812.93
7813.47
7814.01
7814.54
7815.07
7815.58
7816.08
7816.58
7817.07
7817.54
7818.01
7818.48
7818.93
7819.37
7819.81
7820.24
7820.66
7821.07
7821.48
7821.88
7822.27
7822.65
7823.02
7823.39
7823.75
7824.11
7824.45
7824.79
7825.13
7825.45
7825.78
7826.09
7826.4
7826.7
7827
7827.29
7827.57
7827.85
7828.12
7828.39
7828.65
7828.91
7829.16
7829.4
7829.64
7829.88
7830.11
7830.34
7830.56
7830.78
7830.99
7831.2
7831.4
7831.6
7831.79
7831.99
7832.17
7832.36
7832.54
7832.71
7832.89
7833.06
7833.22
7833.38
7833.54
7833.7
7833.85
7834
7834.14
7834.29
7834.43
7834.56
7834.7
7834.83
7834.96
7835.08
7835.21
7835.33
7835.45
7835.56
7835.68
7835.79
7835.9
7836
7836.11
7836.21
7836.31
7836.41
7836.51
7836.6
7836.69
7836.78
7836.87
7836.96
7837.04
7837.13
7837.21
7837.29
7837.37
7837.44
7837.52
7837.59
7837.66
7837.73
7837.8
7837.87
7837.94
7838
7838.06
7838.12
7838.18
7838.24
7838.3
7838.36
7838.41
7838.47
7838.52
7838.57
7838.62
7838.67
7838.72
7838.77
7838.81
7838.86
7838.9
7838.94
7838.98
7839.03
7839.06
7839.1
7839.14
7839.18
7839.21
7839.25
7839.28
7839.32
7839.35
7839.38
7839.41
7839.44
7839.47
7839.5
7839.53
7839.55
7839.58
7839.6
7839.63
7839.65
7839.67
7839.7
7839.72
7839.74
7839.76
7839.78
7839.8
7839.82
7839.84
7839.85
7839.87
7839.89
7839.9
7839.92
7839.93
7839.95
7839.96
7839.98
7839.99
7840
7840.01
7840.03
7840.04
7840.05
7840.06
7840.07
7840.08
7840.09
7840.1
7840.1
7840.11
7840.12
7840.13
7840.14
7840.14
7840.15
7840.16
7840.16
7840.17
7840.17
7840.18
7840.18
7840.19
7840.19
7840.2
7840.2
7840.2
7840.21
7840.21
7840.21
7840.22
7840.22
7840.22
7840.23
7840.23
7840.23
7840.23
7840.23
7840.24
7840.24
7840.24
7840.24
7840.24
7840.24
7840.24
7840.24
7840.24
7840.24
7840.23
7840.23
7840.23
7840.23
7840.23
7840.24
7840.24
7840.24
7840.24
7840.24
7840.24
7840.24
7840.25
7840.25
7840.25
7840.25
7840.25
7840.25
7840.25
7840.25
7840.25
7840.25
7840.25
7840.25
7840.25
7840.25
7840.25
7840.25
7840.25
7840.25
7840.25
7840.25
7840.25
7840.25
7840.25
7840.25
7840.25
7840.25
7840.25
7840.25
7840.25
7840.25
7840.25
7840.25
7840.25
7840.25
7840.25
7840.25
7840.25
7840.24
7840.24
7840.24
7840.24
7840.24
7840.24
7840.24
7840.24
7840.24
7840.24
7840.24
7840.24
7840.24
7840.23
7840.23
7840.23
7840.23
7840.23
7840.23
7840.23
7840.23
7840.23
7840.23
7840.23
7840.22
7840.22
7840.22
7840.22
7840.22
7840.22
7840.22
7759.82
7757.83
7755.3
7752.99
7750.83
7748.81
7746.94
7745.2
7743.6
7742.13
7740.78
7739.57
7738.48
7737.5
7736.64
7735.89
7735.25
7734.7
7734.22
7733.86
7733.63
7733.54
7733.48
7733.45
7733.49
7733.67
7733.95
7734.34
7734.66
7735.05
7735.6
7736.24
7736.78
7737.41
7738.11
7738.88
7739.77
7740.57
7741.34
7742.22
7743.12
7744.09
7745.12
7746.1
7747.01
7747.99
7749.03
7750.06
7751.01
7752.01
7753.02
7754.07
7755.04
7755.98
7756.95
7757.91
7758.85
7759.73
7760.64
7761.53
7762.42
7763.31
7764.07
7764.86
7765.64
7766.44
7767.2
7767.85
7768.51
7769.16
7769.75
7770.32
7770.87
7771.42
7771.85
7772.28
7772.72
7773.13
7773.5
7773.84
7774.07
7774.33
7774.76
7775.12
7775.33
7775.57
7775.71
7775.8
7775.9
7775.94
7776
7776
7775.96
7775.85
7775.71
7775.56
7775.4
7775.17
7774.89
7774.6
7774.31
7773.92
7773.55
7773.19
7772.78
7772.32
7771.85
7771.38
7770.85
7770.31
7769.78
7769.23
7768.67
7768.1
7767.52
7766.92
7766.29
7765.66
7765.07
7764.41
7763.77
7763.17
7762.54
7761.92
7761.29
7760.69
7760.09
7759.47
7758.88
7758.32
7757.76
7757.19
7756.64
7756.11
7755.62
7755.13
7754.63
7754.18
7753.74
7753.34
7752.92
7752.54
7752.19
7751.87
7751.56
7751.28
7751.03
7750.82
7750.59
7750.42
7750.27
7750.15
7750.07
7750.01
7749.95
7749.94
7749.95
7750
7750.07
7750.16
7750.27
7750.43
7750.61
7750.8
7751.02
7751.27
7751.55
7751.85
7752.17
7752.52
7752.89
7753.29
7753.71
7754.15
7754.61
7755.09
7755.6
7756.13
7756.67
7757.23
7757.82
7758.42
7759.04
7759.67
7760.32
7760.99
7761.67
7762.37
7763.08
7763.8
7764.54
7765.28
7766.04
7766.8
7767.58
7768.37
7769.16
7769.96
7770.77
7771.58
7772.4
7773.23
7774.06
7774.89
7775.73
7776.57
7777.41
7778.25
7779.1
7779.94
7780.79
7781.63
7782.48
7783.32
7784.16
7785.01
7785.84
7786.67
7787.5
7788.33
7789.16
7789.98
7790.79
7791.6
7792.4
7793.2
7793.99
7794.77
7795.55
7796.32
7797.09
7797.85
7798.6
7799.34
7800.07
7800.8
7801.52
7802.23
7802.93
7803.62
7804.31
7804.98
7805.65
7806.3
7806.95
7807.59
7808.22
7808.84
7809.46
7810.06
7810.65
7811.24
7811.81
7812.38
7812.94
7813.49
7814.03
7814.56
7815.08
7815.59
7816.1
7816.59
7817.08
7817.56
7818.03
7818.49
7818.94
7819.39
7819.83
7820.25
7820.68
7821.09
7821.49
7821.89
7822.28
7822.66
7823.04
7823.41
7823.77
7824.12
7824.47
7824.81
7825.14
7825.47
7825.79
7826.1
7826.41
7826.71
7827.01
7827.3
7827.58
7827.86
7828.13
7828.4
7828.66
7828.92
7829.17
7829.41
7829.65
7829.89
7830.12
7830.35
7830.57
7830.78
7831
7831.2
7831.41
7831.61
7831.8
7832
7832.18
7832.37
7832.55
7832.72
7832.89
7833.06
7833.23
7833.39
7833.55
7833.7
7833.86
7834.01
7834.15
7834.29
7834.43
7834.57
7834.7
7834.84
7834.96
7835.09
7835.21
7835.34
7835.45
7835.57
7835.68
7835.79
7835.9
7836.01
7836.11
7836.22
7836.32
7836.42
7836.51
7836.61
7836.7
7836.79
7836.88
7836.96
7837.05
7837.13
7837.21
7837.29
7837.37
7837.45
7837.52
7837.6
7837.67
7837.74
7837.81
7837.87
7837.94
7838
7838.07
7838.13
7838.19
7838.25
7838.3
7838.36
7838.42
7838.47
7838.52
7838.57
7838.62
7838.67
7838.72
7838.77
7838.81
7838.86
7838.9
7838.95
7838.99
7839.03
7839.07
7839.11
7839.14
7839.18
7839.22
7839.25
7839.29
7839.32
7839.35
7839.38
7839.41
7839.44
7839.47
7839.5
7839.53
7839.55
7839.58
7839.61
7839.63
7839.65
7839.68
7839.7
7839.72
7839.74
7839.76
7839.78
7839.8
7839.82
7839.84
7839.86
7839.87
7839.89
7839.91
7839.92
7839.94
7839.95
7839.96
7839.98
7839.99
7840
7840.02
7840.03
7840.04
7840.05
7840.06
7840.07
7840.08
7840.09
7840.1
7840.11
7840.11
7840.12
7840.13
7840.14
7840.14
7840.15
7840.16
7840.16
7840.17
7840.17
7840.18
7840.18
7840.19
7840.19
7840.2
7840.2
7840.2
7840.21
7840.21
7840.21
7840.22
7840.22
7840.22
7840.23
7840.23
7840.23
7840.23
7840.23
7840.23
7840.24
7840.24
7840.24
7840.24
7840.24
7840.25
7840.25
7840.25
7840.26
7840.26
7840.25
7840.25
7840.25
7840.25
7840.25
7840.25
7840.25
7840.25
7840.25
7840.25
7840.25
7840.25
7840.25
7840.25
7840.25
7840.25
7840.25
7840.25
7840.25
7840.25
7840.25
7840.25
7840.25
7840.25
7840.25
7840.25
7840.25
7840.25
7840.25
7840.25
7840.25
7840.25
7840.25
7840.25
7840.25
7840.25
7840.25
7840.25
7840.25
7840.25
7840.25
7840.25
7840.25
7840.25
7840.25
7840.25
7840.25
7840.25
7840.24
7840.24
7840.24
7840.24
7840.24
7840.24
7840.24
7840.24
7840.24
7840.24
7840.24
7840.24
7840.24
7840.23
7840.23
7840.23
7840.23
7840.23
7840.23
7840.23
7840.23
7840.23
7840.23
7840.22
7840.22
7840.22
7840.22
7840.22
7840.22
7840.22
7840.22
7758.48
7756.71
7754.23
7751.93
7749.83
7747.91
7746.08
7744.37
7742.81
7741.4
7740.06
7738.86
7737.8
7736.86
7736.04
7735.31
7734.69
7734.17
7733.74
7733.43
7733.22
7733.12
7733.05
7733.07
7733.2
7733.38
7733.68
7734.05
7734.34
7734.74
7735.27
7735.93
7736.72
7737.41
7738.03
7738.69
7739.5
7740.47
7741.41
7742.28
7743.09
7744.02
7745.13
7746.14
7747.09
7748.02
7749
7750.01
7751.08
7752.11
7753.12
7754.12
7755.1
7756.1
7757.09
7758.07
7759.04
7759.94
7760.77
7761.68
7762.64
7763.49
7764.26
7764.99
7765.86
7766.68
7767.4
7768.1
7768.76
7769.32
7769.95
7770.6
7771.14
7771.64
7772.12
7772.56
7772.94
7773.27
7773.7
7774.09
7774.41
7774.73
7774.97
7775.2
7775.45
7775.75
7775.94
7776.01
7776.15
7776.2
7776.22
7776.19
7776.13
7776.02
7775.92
7775.77
7775.57
7775.33
7775.04
7774.78
7774.47
7774.12
7773.71
7773.32
7772.89
7772.43
7771.97
7771.47
7770.99
7770.46
7769.91
7769.35
7768.76
7768.17
7767.59
7766.99
7766.36
7765.72
7765.1
7764.49
7763.85
7763.21
7762.51
7761.9
7761.32
7760.68
7760.09
7759.47
7758.86
7758.28
7757.72
7757.17
7756.61
7756.08
7755.57
7755.06
7754.56
7754.12
7753.68
7753.25
7752.83
7752.47
7752.12
7751.78
7751.46
7751.2
7750.95
7750.7
7750.49
7750.33
7750.18
7750.04
7749.97
7749.9
7749.85
7749.83
7749.85
7749.9
7749.96
7750.05
7750.17
7750.33
7750.5
7750.7
7750.92
7751.16
7751.45
7751.76
7752.08
7752.41
7752.8
7753.2
7753.62
7754.04
7754.53
7755.01
7755.51
7756.04
7756.59
7757.16
7757.74
7758.34
7758.96
7759.6
7760.25
7760.92
7761.61
7762.31
7763.02
7763.74
7764.48
7765.22
7765.98
7766.76
7767.53
7768.32
7769.11
7769.92
7770.73
7771.55
7772.37
7773.2
7774.03
7774.87
7775.71
7776.55
7777.39
7778.23
7779.08
7779.93
7780.78
7781.63
7782.47
7783.32
7784.16
7785.01
7785.84
7786.68
7787.51
7788.34
7789.16
7789.99
7790.8
7791.61
7792.42
7793.21
7794.01
7794.79
7795.57
7796.35
7797.11
7797.87
7798.62
7799.36
7800.1
7800.83
7801.55
7802.26
7802.96
7803.65
7804.33
7805.01
7805.68
7806.34
7806.99
7807.63
7808.26
7808.88
7809.49
7810.09
7810.69
7811.27
7811.85
7812.42
7812.97
7813.52
7814.06
7814.59
7815.12
7815.63
7816.13
7816.63
7817.11
7817.59
7818.06
7818.52
7818.98
7819.42
7819.86
7820.29
7820.71
7821.12
7821.52
7821.92
7822.31
7822.69
7823.07
7823.43
7823.8
7824.15
7824.5
7824.84
7825.17
7825.5
7825.82
7826.13
7826.44
7826.74
7827.03
7827.32
7827.61
7827.88
7828.16
7828.42
7828.68
7828.94
7829.19
7829.44
7829.68
7829.91
7830.14
7830.37
7830.59
7830.8
7831.02
7831.22
7831.43
7831.63
7831.82
7832.01
7832.2
7832.38
7832.56
7832.74
7832.91
7833.08
7833.24
7833.41
7833.56
7833.72
7833.87
7834.02
7834.17
7834.31
7834.45
7834.58
7834.72
7834.85
7834.98
7835.1
7835.23
7835.35
7835.46
7835.58
7835.69
7835.8
7835.91
7836.02
7836.12
7836.23
7836.33
7836.43
7836.52
7836.62
7836.71
7836.8
7836.89
7836.97
7837.06
7837.14
7837.22
7837.3
7837.38
7837.46
7837.53
7837.6
7837.67
7837.74
7837.81
7837.88
7837.95
7838.01
7838.07
7838.13
7838.19
7838.25
7838.31
7838.37
7838.42
7838.48
7838.53
7838.58
7838.63
7838.68
7838.73
7838.77
7838.82
7838.86
7838.91
7838.95
7838.99
7839.03
7839.07
7839.11
7839.15
7839.18
7839.22
7839.26
7839.29
7839.32
7839.35
7839.39
7839.42
7839.45
7839.48
7839.5
7839.53
7839.56
7839.58
7839.61
7839.63
7839.66
7839.68
7839.7
7839.72
7839.75
7839.77
7839.79
7839.8
7839.82
7839.84
7839.86
7839.88
7839.89
7839.91
7839.92
7839.94
7839.95
7839.97
7839.98
7839.99
7840.01
7840.02
7840.03
7840.04
7840.05
7840.06
7840.07
7840.08
7840.09
7840.1
7840.11
7840.12
7840.12
7840.13
7840.14
7840.14
7840.15
7840.16
7840.16
7840.17
7840.17
7840.18
7840.18
7840.19
7840.19
7840.2
7840.2
7840.21
7840.21
7840.21
7840.22
7840.22
7840.22
7840.22
7840.23
7840.23
7840.23
7840.23
7840.23
7840.24
7840.24
7840.24
7840.24
7840.24
7840.24
7840.23
7840.23
7840.24
7840.24
7840.24
7840.24
7840.24
7840.24
7840.25
7840.25
7840.25
7840.25
7840.25
7840.25
7840.25
7840.25
7840.25
7840.25
7840.25
7840.25
7840.25
7840.25
7840.25
7840.25
7840.25
7840.25
7840.25
7840.25
7840.25
7840.25
7840.25
7840.25
7840.25
7840.25
7840.25
7840.25
7840.25
7840.25
7840.25
7840.25
7840.25
7840.25
7840.25
7840.25
7840.25
7840.25
7840.25
7840.25
7840.25
7840.25
7840.25
7840.25
7840.25
7840.25
7840.24
7840.24
7840.24
7840.24
7840.24
7840.24
7840.24
7840.24
7840.24
7840.24
7840.24
7840.24
7840.23
7840.23
7840.23
7840.23
7840.23
7840.23
7840.23
7840.23
7840.23
7840.23
7840.22
7840.22
7840.22
7840.22
7840.22
7840.22
7840.22
7840.22
7757.73
7755.81
7753.38
7751.13
7749.02
7747.05
7745.22
7743.54
7741.99
7740.56
7739.25
7738.08
7737.03
7736.1
7735.28
7734.57
7733.97
7733.49
7733.11
7732.83
7732.63
7732.52
7732.51
7732.59
7732.74
7732.96
7733.24
7733.6
7734.03
7734.51
7735.03
7735.63
7736.35
7737.11
7737.86
7738.64
7739.46
7740.33
7741.23
7742.15
7743.08
7744.05
7745.04
7746.04
7747.02
7748.02
7749.05
7750.07
7751.08
7752.08
7753.11
7754.18
7755.25
7756.23
7757.19
7758.24
7759.15
7759.99
7760.89
7761.91
7762.81
7763.51
7764.35
7765.17
7766.06
7766.7
7767.42
7768.19
7768.96
7769.62
7770.13
7770.7
7771.26
7771.85
7772.36
7772.76
7773.12
7773.52
7773.92
7774.32
7774.52
7774.82
7775.19
7775.51
7775.76
7775.94
7776.04
7776.17
7776.29
7776.44
7776.55
7776.39
7776.4
7776.31
7776.18
7775.96
7775.77
7775.53
7775.32
7775.02
7774.67
7774.28
7773.91
7773.56
7773.11
7772.62
7772.11
7771.67
7771.14
7770.55
7770.01
7769.49
7768.93
7768.3
7767.66
7767.06
7766.46
7765.83
7765.17
7764.51
7763.89
7763.25
7762.59
7761.96
7761.33
7760.62
7759.99
7759.43
7758.84
7758.26
7757.65
7757.07
7756.53
7756
7755.48
7754.96
7754.47
7754.02
7753.57
7753.14
7752.72
7752.35
7751.99
7751.63
7751.35
7751.06
7750.8
7750.55
7750.33
7750.17
7750.03
7749.9
7749.8
7749.72
7749.69
7749.67
7749.68
7749.73
7749.8
7749.89
7750
7750.14
7750.34
7750.54
7750.74
7751
7751.3
7751.6
7751.91
7752.25
7752.65
7753.05
7753.46
7753.89
7754.38
7754.87
7755.37
7755.89
7756.45
7757.03
7757.6
7758.21
7758.84
7759.48
7760.13
7760.8
7761.5
7762.2
7762.9
7763.63
7764.37
7765.13
7765.89
7766.66
7767.44
7768.24
7769.03
7769.84
7770.65
7771.47
7772.3
7773.13
7773.96
7774.8
7775.65
7776.5
7777.34
7778.19
7779.04
7779.89
7780.74
7781.59
7782.44
7783.29
7784.14
7784.98
7785.83
7786.67
7787.5
7788.33
7789.16
7789.98
7790.8
7791.61
7792.42
7793.22
7794.01
7794.8
7795.58
7796.36
7797.13
7797.89
7798.64
7799.38
7800.12
7800.85
7801.57
7802.28
7802.98
7803.68
7804.37
7805.04
7805.71
7806.37
7807.02
7807.66
7808.29
7808.91
7809.53
7810.13
7810.73
7811.31
7811.89
7812.46
7813.02
7813.56
7814.1
7814.63
7815.16
7815.67
7816.17
7816.67
7817.16
7817.63
7818.1
7818.57
7819.02
7819.46
7819.9
7820.33
7820.75
7821.16
7821.56
7821.96
7822.35
7822.73
7823.11
7823.47
7823.83
7824.19
7824.53
7824.87
7825.2
7825.53
7825.85
7826.16
7826.47
7826.77
7827.07
7827.36
7827.64
7827.92
7828.19
7828.45
7828.71
7828.97
7829.22
7829.46
7829.7
7829.94
7830.17
7830.39
7830.61
7830.83
7831.04
7831.25
7831.45
7831.65
7831.85
7832.04
7832.22
7832.41
7832.59
7832.76
7832.93
7833.1
7833.27
7833.43
7833.58
7833.74
7833.89
7834.04
7834.18
7834.33
7834.46
7834.6
7834.73
7834.87
7834.99
7835.12
7835.24
7835.36
7835.48
7835.6
7835.71
7835.82
7835.93
7836.03
7836.14
7836.24
7836.34
7836.44
7836.53
7836.63
7836.72
7836.81
7836.9
7836.98
7837.07
7837.15
7837.23
7837.31
7837.39
7837.47
7837.54
7837.61
7837.68
7837.75
7837.82
7837.89
7837.96
7838.02
7838.08
7838.14
7838.2
7838.26
7838.32
7838.38
7838.43
7838.48
7838.54
7838.59
7838.64
7838.69
7838.73
7838.78
7838.83
7838.87
7838.92
7838.96
7839
7839.04
7839.08
7839.12
7839.15
7839.19
7839.23
7839.26
7839.3
7839.33
7839.36
7839.39
7839.42
7839.45
7839.48
7839.51
7839.54
7839.56
7839.59
7839.61
7839.64
7839.66
7839.68
7839.71
7839.73
7839.75
7839.77
7839.79
7839.81
7839.83
7839.85
7839.86
7839.88
7839.9
7839.91
7839.93
7839.94
7839.96
7839.97
7839.98
7840
7840.01
7840.02
7840.03
7840.04
7840.05
7840.06
7840.07
7840.08
7840.09
7840.1
7840.11
7840.12
7840.13
7840.13
7840.14
7840.15
7840.15
7840.16
7840.17
7840.17
7840.18
7840.18
7840.19
7840.19
7840.2
7840.2
7840.2
7840.21
7840.21
7840.21
7840.22
7840.22
7840.22
7840.22
7840.23
7840.23
7840.23
7840.23
7840.24
7840.24
7840.24
7840.24
7840.25
7840.25
7840.25
7840.25
7840.25
7840.25
7840.25
7840.25
7840.25
7840.25
7840.25
7840.25
7840.25
7840.25
7840.25
7840.25
7840.25
7840.25
7840.25
7840.25
7840.25
7840.25
7840.25
7840.25
7840.25
7840.25
7840.25
7840.25
7840.25
7840.25
7840.25
7840.25
7840.25
7840.25
7840.25
7840.25
7840.25
7840.25
7840.25
7840.25
7840.25
7840.25
7840.25
7840.25
7840.25
7840.25
7840.25
7840.25
7840.25
7840.25
7840.25
7840.25
7840.25
7840.25
7840.25
7840.25
7840.25
7840.24
7840.24
7840.24
7840.24
7840.24
7840.24
7840.24
7840.24
7840.24
7840.24
7840.24
7840.24
7840.23
7840.23
7840.23
7840.23
7840.23
7840.23
7840.23
7840.23
7840.23
7840.23
7840.22
7840.22
7840.22
7840.22
7840.22
7840.22
7840.22
7840.22
7756.03
7754.17
7751.8
7749.58
7747.5
7745.58
7743.79
7742.13
7740.61
7739.21
7737.95
7736.82
7735.81
7734.93
7734.16
7733.5
7732.96
7732.52
7732.18
7731.93
7731.78
7731.73
7731.76
7731.89
7732.09
7732.35
7732.68
7733.07
7733.54
7734.07
7734.65
7735.29
7735.97
7736.72
7737.51
7738.34
7739.2
7740.09
7741.01
7741.96
7742.93
7743.91
7744.91
7745.93
7746.97
7748
7749.05
7750.09
7751.13
7752.13
7753.21
7754.32
7755.36
7756.38
7757.38
7758.39
7759.37
7760.29
7761.21
7762.14
7763.06
7763.89
7764.64
7765.42
7766.34
7767.13
7767.81
7768.49
7769.26
7769.96
7770.49
7771.01
7771.55
7772.09
7772.67
7773.17
7773.57
7774.02
7774.29
7774.5
7774.82
7775.12
7775.46
7775.81
7775.99
7776.12
7776.31
7776.56
7776.68
7776.7
7776.68
7776.69
7776.61
7776.72
7776.5
7776.37
7776.12
7775.83
7775.53
7775.3
7774.98
7774.55
7774.19
7773.81
7773.27
7772.81
7772.35
7771.9
7771.39
7770.73
7770.16
7769.58
7769.05
7768.46
7767.78
7767.15
7766.5
7765.91
7765.26
7764.57
7763.9
7763.25
7762.64
7761.99
7761.31
7760.67
7760.03
7759.38
7758.69
7758.08
7757.57
7757.01
7756.44
7755.86
7755.32
7754.83
7754.35
7753.85
7753.37
7752.94
7752.53
7752.16
7751.82
7751.44
7751.12
7750.83
7750.57
7750.35
7750.16
7749.95
7749.78
7749.65
7749.56
7749.48
7749.43
7749.43
7749.46
7749.5
7749.55
7749.64
7749.78
7749.91
7750.08
7750.28
7750.51
7750.79
7751.05
7751.35
7751.68
7752.04
7752.41
7752.82
7753.25
7753.69
7754.16
7754.65
7755.16
7755.71
7756.25
7756.82
7757.41
7758.02
7758.65
7759.29
7759.96
7760.64
7761.33
7762.03
7762.75
7763.48
7764.22
7764.98
7765.75
7766.53
7767.32
7768.12
7768.92
7769.73
7770.54
7771.37
7772.21
7773.04
7773.87
7774.72
7775.56
7776.42
7777.27
7778.13
7778.99
7779.84
7780.69
7781.54
7782.4
7783.25
7784.11
7784.95
7785.8
7786.64
7787.48
7788.32
7789.15
7789.97
7790.79
7791.61
7792.43
7793.23
7794.02
7794.81
7795.6
7796.38
7797.15
7797.91
7798.67
7799.41
7800.15
7800.89
7801.61
7802.32
7803.03
7803.73
7804.42
7805.09
7805.76
7806.42
7807.07
7807.72
7808.35
7808.97
7809.59
7810.19
7810.79
7811.37
7811.95
7812.52
7813.08
7813.63
7814.17
7814.7
7815.22
7815.73
7816.24
7816.73
7817.22
7817.7
7818.16
7818.63
7819.08
7819.52
7819.96
7820.38
7820.81
7821.22
7821.62
7822.02
7822.41
7822.79
7823.16
7823.53
7823.89
7824.24
7824.59
7824.92
7825.26
7825.58
7825.9
7826.21
7826.52
7826.82
7827.11
7827.4
7827.68
7827.96
7828.23
7828.5
7828.76
7829.01
7829.26
7829.51
7829.74
7829.98
7830.21
7830.43
7830.65
7830.87
7831.08
7831.29
7831.49
7831.69
7831.88
7832.07
7832.26
7832.44
7832.62
7832.79
7832.96
7833.13
7833.3
7833.46
7833.61
7833.77
7833.92
7834.07
7834.21
7834.35
7834.49
7834.63
7834.76
7834.89
7835.02
7835.14
7835.26
7835.38
7835.5
7835.62
7835.73
7835.84
7835.95
7836.05
7836.16
7836.26
7836.36
7836.46
7836.55
7836.65
7836.74
7836.83
7836.91
7837
7837.09
7837.17
7837.25
7837.33
7837.4
7837.48
7837.56
7837.63
7837.7
7837.77
7837.84
7837.9
7837.97
7838.03
7838.1
7838.16
7838.22
7838.27
7838.33
7838.39
7838.44
7838.5
7838.55
7838.6
7838.65
7838.7
7838.75
7838.79
7838.84
7838.88
7838.93
7838.97
7839.01
7839.05
7839.09
7839.13
7839.16
7839.2
7839.24
7839.27
7839.3
7839.34
7839.37
7839.4
7839.43
7839.46
7839.49
7839.52
7839.54
7839.57
7839.6
7839.62
7839.64
7839.67
7839.69
7839.71
7839.73
7839.76
7839.78
7839.8
7839.81
7839.83
7839.85
7839.87
7839.89
7839.9
7839.92
7839.93
7839.95
7839.96
7839.97
7839.99
7840
7840.01
7840.02
7840.04
7840.05
7840.06
7840.07
7840.08
7840.09
7840.1
7840.1
7840.11
7840.12
7840.13
7840.14
7840.14
7840.15
7840.16
7840.16
7840.17
7840.17
7840.18
7840.18
7840.19
7840.19
7840.2
7840.2
7840.21
7840.21
7840.21
7840.22
7840.22
7840.22
7840.22
7840.23
7840.23
7840.23
7840.23
7840.23
7840.23
7840.23
7840.23
7840.24
7840.24
7840.24
7840.24
7840.24
7840.24
7840.24
7840.24
7840.25
7840.25
7840.25
7840.25
7840.25
7840.25
7840.25
7840.25
7840.25
7840.25
7840.25
7840.25
7840.25
7840.25
7840.25
7840.25
7840.25
7840.25
7840.25
7840.25
7840.25
7840.25
7840.25
7840.25
7840.25
7840.25
7840.25
7840.25
7840.25
7840.25
7840.25
7840.25
7840.25
7840.25
7840.25
7840.25
7840.25
7840.25
7840.25
7840.25
7840.25
7840.25
7840.25
7840.25
7840.25
7840.25
7840.25
7840.25
7840.25
7840.25
7840.24
7840.24
7840.24
7840.24
7840.24
7840.24
7840.24
7840.24
7840.24
7840.24
7840.24
7840.24
7840.23
7840.23
7840.23
7840.23
7840.23
7840.23
7840.23
7840.23
7840.23
7840.23
7840.22
7840.22
7840.22
7840.22
7840.22
7840.22
7840.22
7840.22
7754.1
7752.28
7749.93
7747.73
7745.67
7743.77
7741.99
7740.36
7738.88
7737.53
7736.31
7735.22
7734.26
7733.43
7732.72
7732.11
7731.62
7731.25
7730.96
7730.77
7730.66
7730.66
7730.75
7730.92
7731.17
7731.48
7731.86
7732.31
7732.82
7733.38
7734
7734.66
7735.38
7736.14
7736.95
7737.79
7738.66
7739.57
7740.52
7741.48
7742.46
7743.47
7744.5
7745.55
7746.61
7747.69
7748.78
7749.87
7750.94
7752.01
7753.13
7754.26
7755.34
7756.4
7757.46
7758.5
7759.52
7760.51
7761.47
7762.43
7763.34
7764.2
7765.03
7765.88
7766.74
7767.53
7768.27
7768.98
7769.7
7770.38
7771
7771.59
7772.07
7772.55
7773.17
7773.64
7774.08
7774.48
7774.78
7775.01
7775.48
7775.78
7776.02
7776.15
7776.33
7776.54
7776.73
7776.86
7776.98
7777.07
7777.12
7777.14
7777.13
7777.05
7776.98
7776.78
7776.69
7776.32
7776.03
7775.67
7775.36
7774.99
7774.59
7774.14
7773.64
7773.17
7772.7
7772.17
7771.6
7770.99
7770.46
7769.9
7769.26
7768.6
7767.89
7767.31
7766.71
7766.01
7765.35
7764.68
7764.02
7763.33
7762.67
7762
7761.37
7760.68
7760.01
7759.38
7758.77
7758.11
7757.48
7756.82
7756.26
7755.75
7755.2
7754.69
7754.2
7753.7
7753.21
7752.77
7752.37
7751.98
7751.59
7751.23
7750.91
7750.62
7750.36
7750.11
7749.89
7749.7
7749.55
7749.42
7749.31
7749.24
7749.19
7749.18
7749.19
7749.22
7749.29
7749.38
7749.51
7749.66
7749.83
7750.04
7750.27
7750.52
7750.8
7751.11
7751.45
7751.8
7752.18
7752.59
7753.02
7753.47
7753.94
7754.44
7754.96
7755.49
7756.05
7756.63
7757.22
7757.84
7758.47
7759.12
7759.79
7760.47
7761.16
7761.87
7762.6
7763.34
7764.09
7764.85
7765.62
7766.41
7767.2
7768
7768.81
7769.63
7770.45
7771.29
7772.12
7772.96
7773.81
7774.66
7775.51
7776.37
7777.22
7778.08
7778.95
7779.81
7780.67
7781.52
7782.38
7783.24
7784.09
7784.95
7785.8
7786.65
7787.49
7788.33
7789.17
7789.99
7790.82
7791.64
7792.45
7793.26
7794.06
7794.86
7795.64
7796.42
7797.2
7797.97
7798.73
7799.48
7800.22
7800.95
7801.68
7802.39
7803.1
7803.79
7804.48
7805.16
7805.83
7806.5
7807.15
7807.79
7808.43
7809.05
7809.67
7810.27
7810.87
7811.46
7812.03
7812.6
7813.16
7813.71
7814.25
7814.78
7815.3
7815.81
7816.32
7816.81
7817.3
7817.78
7818.25
7818.71
7819.16
7819.6
7820.04
7820.46
7820.88
7821.29
7821.7
7822.09
7822.48
7822.86
7823.23
7823.6
7823.96
7824.31
7824.66
7824.99
7825.33
7825.65
7825.97
7826.28
7826.58
7826.88
7827.18
7827.46
7827.75
7828.02
7828.29
7828.56
7828.81
7829.07
7829.32
7829.56
7829.8
7830.03
7830.26
7830.49
7830.7
7830.92
7831.13
7831.33
7831.54
7831.73
7831.93
7832.12
7832.3
7832.48
7832.66
7832.83
7833
7833.17
7833.33
7833.49
7833.65
7833.8
7833.95
7834.1
7834.24
7834.39
7834.52
7834.66
7834.79
7834.92
7835.05
7835.17
7835.29
7835.41
7835.53
7835.64
7835.76
7835.87
7835.97
7836.08
7836.18
7836.28
7836.38
7836.48
7836.58
7836.67
7836.76
7836.85
7836.94
7837.02
7837.11
7837.19
7837.27
7837.35
7837.42
7837.5
7837.57
7837.65
7837.72
7837.79
7837.85
7837.92
7837.99
7838.05
7838.11
7838.17
7838.23
7838.29
7838.35
7838.4
7838.46
7838.51
7838.56
7838.61
7838.66
7838.71
7838.76
7838.81
7838.85
7838.89
7838.94
7838.98
7839.02
7839.06
7839.1
7839.14
7839.18
7839.21
7839.25
7839.28
7839.31
7839.35
7839.38
7839.41
7839.44
7839.47
7839.5
7839.53
7839.55
7839.58
7839.6
7839.63
7839.65
7839.68
7839.7
7839.72
7839.74
7839.76
7839.78
7839.8
7839.82
7839.84
7839.86
7839.88
7839.89
7839.91
7839.92
7839.94
7839.95
7839.97
7839.98
7839.99
7840.01
7840.02
7840.03
7840.04
7840.05
7840.06
7840.07
7840.08
7840.09
7840.1
7840.11
7840.12
7840.12
7840.13
7840.14
7840.15
7840.15
7840.16
7840.17
7840.17
7840.18
7840.18
7840.19
7840.19
7840.2
7840.2
7840.2
7840.21
7840.21
7840.22
7840.22
7840.22
7840.22
7840.23
7840.23
7840.23
7840.23
7840.23
7840.24
7840.24
7840.24
7840.24
7840.24
7840.24
7840.24
7840.24
7840.24
7840.25
7840.25
7840.25
7840.25
7840.25
7840.25
7840.25
7840.25
7840.25
7840.25
7840.25
7840.25
7840.25
7840.25
7840.25
7840.25
7840.25
7840.25
7840.25
7840.25
7840.25
7840.25
7840.25
7840.25
7840.25
7840.25
7840.25
7840.25
7840.25
7840.25
7840.25
7840.25
7840.25
7840.25
7840.25
7840.25
7840.25
7840.25
7840.25
7840.25
7840.25
7840.25
7840.25
7840.25
7840.25
7840.25
7840.25
7840.25
7840.25
7840.25
7840.25
7840.25
7840.25
7840.24
7840.24
7840.24
7840.24
7840.24
7840.24
7840.24
7840.24
7840.24
7840.24
7840.24
7840.24
7840.23
7840.23
7840.23
7840.23
7840.23
7840.23
7840.23
7840.23
7840.23
7840.23
7840.22
7840.22
7840.22
7840.22
7840.22
7840.22
7840.22
7840.22
7751.57
7749.85
7747.54
7745.36
7743.31
7741.45
7739.74
7738.15
7736.72
7735.43
7734.24
7733.18
7732.27
7731.53
7730.89
7730.34
7729.89
7729.54
7729.3
7729.18
7729.14
7729.19
7729.33
7729.55
7729.84
7730.17
7730.6
7731.11
7731.7
7732.34
7733.03
7733.77
7734.51
7735.29
7736.13
7737
7737.94
7738.93
7739.86
7740.74
7741.71
7742.85
7744
7745.03
7746.07
7747.31
7748.54
7749.59
7750.58
7751.78
7753.03
7754.18
7755.27
7756.41
7757.54
7758.6
7759.61
7760.7
7761.75
7762.73
7763.66
7764.57
7765.45
7766.25
7767.02
7767.84
7768.65
7769.39
7770.06
7770.72
7771.38
7771.99
7772.52
7772.97
7773.48
7774.04
7774.5
7774.9
7775.19
7775.51
7775.94
7776.22
7776.39
7776.51
7776.77
7776.99
7777.12
7777.17
7777.19
7777.22
7777.28
7777.36
7777.36
7777.31
7777.23
7777.12
7777.02
7776.91
7776.44
7776.19
7775.7
7775.38
7774.99
7774.55
7774.05
7773.55
7773
7772.49
7771.94
7771.34
7770.71
7770.13
7769.5
7768.85
7768.16
7767.52
7766.86
7766.12
7765.41
7764.81
7764.12
7763.44
7762.73
7762.03
7761.36
7760.7
7760.03
7759.37
7758.71
7758.07
7757.46
7756.83
7756.24
7755.63
7755.07
7754.44
7753.92
7753.5
7753.02
7752.59
7752.14
7751.74
7751.36
7751.02
7750.68
7750.38
7750.1
7749.84
7749.58
7749.45
7749.29
7749.15
7748.99
7748.96
7748.92
7748.9
7748.9
7748.91
7749
7749.1
7749.22
7749.37
7749.55
7749.76
7749.99
7750.25
7750.53
7750.84
7751.18
7751.54
7751.93
7752.34
7752.77
7753.22
7753.69
7754.2
7754.73
7755.27
7755.82
7756.4
7757.01
7757.63
7758.27
7758.93
7759.6
7760.29
7760.99
7761.71
7762.44
7763.18
7763.94
7764.71
7765.48
7766.27
7767.07
7767.88
7768.7
7769.53
7770.36
7771.19
7772.04
7772.88
7773.74
7774.59
7775.45
7776.31
7777.17
7778.04
7778.91
7779.77
7780.64
7781.5
7782.37
7783.23
7784.09
7784.95
7785.8
7786.65
7787.5
7788.35
7789.19
7790.02
7790.84
7791.67
7792.49
7793.31
7794.11
7794.91
7795.7
7796.48
7797.25
7798.02
7798.79
7799.54
7800.29
7801.02
7801.75
7802.47
7803.17
7803.87
7804.57
7805.25
7805.92
7806.58
7807.24
7807.88
7808.52
7809.14
7809.76
7810.37
7810.96
7811.55
7812.13
7812.7
7813.26
7813.81
7814.35
7814.88
7815.4
7815.91
7816.41
7816.91
7817.39
7817.87
7818.34
7818.8
7819.25
7819.69
7820.13
7820.55
7820.97
7821.38
7821.79
7822.18
7822.57
7822.95
7823.32
7823.68
7824.04
7824.39
7824.74
7825.07
7825.4
7825.73
7826.04
7826.35
7826.66
7826.96
7827.25
7827.53
7827.81
7828.09
7828.36
7828.62
7828.88
7829.13
7829.38
7829.62
7829.86
7830.09
7830.32
7830.54
7830.76
7830.98
7831.18
7831.39
7831.59
7831.79
7831.98
7832.17
7832.35
7832.53
7832.71
7832.88
7833.05
7833.22
7833.38
7833.54
7833.69
7833.84
7833.99
7834.14
7834.28
7834.42
7834.56
7834.7
7834.83
7834.96
7835.08
7835.21
7835.33
7835.45
7835.56
7835.68
7835.79
7835.9
7836
7836.11
7836.21
7836.31
7836.41
7836.51
7836.6
7836.69
7836.79
7836.87
7836.96
7837.05
7837.13
7837.21
7837.29
7837.37
7837.45
7837.52
7837.6
7837.67
7837.74
7837.81
7837.87
7837.94
7838.01
7838.07
7838.13
7838.19
7838.25
7838.31
7838.37
7838.42
7838.48
7838.53
7838.58
7838.63
7838.68
7838.73
7838.78
7838.82
7838.87
7838.91
7838.95
7838.99
7839.04
7839.08
7839.11
7839.15
7839.19
7839.22
7839.26
7839.29
7839.33
7839.36
7839.39